/*--------------------------------*- C++ -*----------------------------------*\
  =========                 |
  \\      /  F ield         | OpenFOAM: The Open Source CFD Toolbox
   \\    /   O peration     | Website:  https://openfoam.org
    \\  /    A nd           | Version:  7
     \\/     M anipulation  |
\*---------------------------------------------------------------------------*/
FoamFile
{
    version     2.0;
    format      ascii;
    class       volScalarField;
    location    "6";
    object      p;
}
// * * * * * * * * * * * * * * * * * * * * * * * * * * * * * * * * * * * * * //

dimensions      [1 -1 -2 0 0 0 0];

internalField   nonuniform List<scalar> 
1750
(
0.237748
0.471847
0.568795
0.576277
0.59612
0.669744
0.75564
0.819227
0.852001
0.880462
0.0233541
0.07469
0.303005
0.571627
0.755639
0.856359
0.910594
0.855141
0.860407
0.887461
0.021083
0.0225807
0.03351
0.130186
0.349771
0.572363
0.776335
0.842296
0.907381
0.931554
0.0334771
0.0398199
0.0509146
0.0687258
0.0704496
0.113308
0.232785
0.452406
0.632197
0.7863
0.0776571
0.0836717
0.0927623
0.103787
0.109216
0.109885
0.11408
0.131555
0.18703
0.424164
0.144582
0.147758
0.150031
0.156733
0.168958
0.179452
0.187415
0.197206
0.206
0.21052
0.265166
0.266375
0.266163
0.264483
0.266134
0.274659
0.275492
0.274991
0.272151
0.267637
0.481775
0.46105
0.44331
0.431173
0.416746
0.398823
0.38258
0.36898
0.360984
0.350978
0.817123
0.776724
0.729399
0.687037
0.65048
0.611471
0.578087
0.547206
0.522549
0.488758
1.09015
1.0638
1.02926
0.988213
0.944433
0.894127
0.839659
0.786034
0.739273
0.668495
1.13251
1.13161
1.12761
1.12028
1.11075
1.09481
1.06838
1.03197
0.99216
0.911821
1.09069
1.09933
1.10549
1.11193
1.11198
1.11129
1.10978
1.10668
1.101
1.07617
1.02016
1.02821
1.03724
1.04822
1.06027
1.07137
1.08102
1.08837
1.09456
1.09373
1.00098
1.00177
1.00311
1.00531
1.00892
1.01443
1.02195
1.03155
1.04242
1.05989
1.00002
1.00003
1.00006
1.00014
1.0003
1.00066
1.00142
1.00296
1.00543
1.01457
0.0323161
0.0211163
0.0204582
0.0312277
0.0676652
0.139368
0.261725
0.499884
0.861464
1.11006
1.13275
1.07991
1.01449
1.00064
1.00001
0.0306086
0.0198487
0.0220189
0.0422448
0.0832435
0.16725
0.333686
0.629748
0.989882
1.14309
1.13315
1.0632
1.00801
1.00024
1
0.0279009
0.0190253
0.0227059
0.0477905
0.0934683
0.191665
0.408711
0.740646
1.06255
1.15267
1.12771
1.04736
1.0042
1.0001
1
0.0256802
0.0179973
0.0240998
0.0506379
0.119178
0.264361
0.510129
0.850547
1.11863
1.15701
1.11643
1.02937
1.00182
1.00004
1
0.0237451
0.0179371
0.0279579
0.0577544
0.153533
0.337738
0.609459
0.962574
1.15794
1.15831
1.09088
1.01657
1.00078
1.00001
1
0.0223744
0.0188554
0.0335234
0.0846873
0.206908
0.415006
0.742189
1.07539
1.17486
1.15632
1.06664
1.00875
1.0003
1.00001
1
0.0189933
0.0182185
0.0402146
0.116688
0.273197
0.528388
0.901297
1.14898
1.17995
1.13448
1.0435
1.0037
1.0001
1
1
0.0119987
0.0178673
0.0523155
0.157613
0.371323
0.705028
1.03762
1.18355
1.18027
1.10983
1.02359
1.00135
1.00003
1
1
0.00975225
0.019991
0.0835322
0.241319
0.514042
0.871007
1.13875
1.19645
1.16871
1.07514
1.01008
1.00043
1.00001
1
1
0.00806993
0.0399356
0.137951
0.369906
0.710462
1.03249
1.19715
1.19938
1.14286
1.04166
1.00374
1.00012
1
1
1
0.00578901
0.0604636
0.238488
0.555835
0.917937
1.16142
1.21608
1.19636
1.10199
1.01891
1.00114
1.00003
1
1
1
0.00287759
0.104235
0.428373
0.806187
1.09756
1.22243
1.22036
1.165
1.05689
1.00688
1.00028
1.00001
1
1
1
0.0329921
0.292566
0.691291
1.02469
1.2104
1.23979
1.21339
1.11328
1.02356
1.00167
1.00005
1
1
1
1
0.15819
0.55156
0.973892
1.18424
1.25427
1.24361
1.16892
1.05338
1.00628
1.00029
1.00001
1
1
1
1
0.577981
0.966438
1.18605
1.24557
1.2603
1.21035
1.09514
1.01735
1.00116
1.00004
1
1
1
1
1
1.24743
1.25385
1.25896
1.25445
1.24179
1.13794
1.03371
1.00172
1.00002
1
1
1
1
1
1
1.24681
1.25604
1.26162
1.24988
1.22728
1.12527
1.03269
1.00295
1.00011
1
1
1
1
1
1
1.24684
1.26063
1.26494
1.25114
1.20059
1.07672
1.0096
1.00038
1.00001
1
1
1
1
1
1
1.24569
1.26258
1.26499
1.23823
1.15701
1.04574
1.00412
1.00012
1
1
1
1
1
1
1
1.24547
1.26448
1.26382
1.21785
1.11578
1.02211
1.00133
1.00003
1
1
1
1
1
1
1
1.25282
1.27018
1.26472
1.18941
1.07185
1.00898
1.00037
1.00001
1
1
1
1
1
1
1
1.27029
1.27089
1.25721
1.14404
1.03526
1.003
1.00009
1
1
1
1
1
1
1
1
1.29384
1.24857
1.21654
1.09183
1.01627
1.00092
1.00002
1
1
1
1
1
1
1
1
1.31741
1.23018
1.16774
1.05219
1.0057
1.00023
1
1
1
1
1
1
1
1
1
1.32961
1.20828
1.10913
1.02241
1.00172
1.00005
1
1
1
1
1
1
1
1
1
1.32581
1.16494
1.06403
1.00892
1.00044
1.00001
1
1
1
1
1
1
1
1
1
1.28415
1.12004
1.03068
1.0027
1.00009
1
1
1
1
1
1
1
1
1
1
1.23436
1.07297
1.0112
1.00058
1.00001
1
1
1
1
1
1
1
1
1
1
1.15805
1.03296
1.00281
1.00009
1
1
1
1
1
1
1
1
1
1
1
1.06959
1.00922
1.0004
1.00001
1
1
1
1
1
1
1
1
1
1
1
1
1
1
1
1
1
1
1
1
1
1
1
1
1
1
1
1
1
1
1
1
1
1
1
1
1
1
1
1
1
1
1
1
1
1
1
1
1
1
1
1
1
1
1
1
1
1
1
1
1
1
1
1
1
1
1
1
1
1
1
1
1
1
1
1
1
1
1
1
1
1
1
1
1
1
1
1
1
1
1
1
1
1
1
1
1
1
1
1
1
1
1
1
1
1
1
1
1
1
1
1
1
1
1
1
1
1
1
1
1
1
1
1
1
1
1
1
1
1
1
1
1
1
1
1
1
1
1
1
1
1
1
1
1
1
1
1
1
1
1
1
1
1
1
1
1
1
1
1
1
1
1
1
1
1
1
1
1
1
1
1
1
1
1
1
1
1
1
1
1
1
1
1
1
1
1
1
1
1
1
1
1
1
1
1
1
1
1
1
1
1
1
1
1
1
1
1
1
1
1
1
1
1
1
1
1
1
1
1
1
1
1
1
1
1
1
1
1
1
1
1
1
1
1
1
1
1
1
1
1
1
1
1
1
1
1
1
1
1
1
1
1
1
1
1
1
1
1
1
1
1
1
1
1
1
1
1
1
1
1
1
1
1
1
1
1
1
1
1
1
1
1
1
1
1
1
1
1
1
1
1
1
1
1
1
1
1
1
1
1
1
1
1
1
1
1
1
1
1
1
1
1
1
1
1
1
1
1
1
1
1
1
1
1
1
1
1
1
1
1
1
1
1
1
1
1
1
1
1
1
1
1
1
1
1
1
1
1
1
1
1
1
1
1
1
1
1
1
1
1
3.46978
1.02645
1
1
1
1
1
1
1
1
1
1
1
1
1
1
1
1
1
1
10.9081
6.26217
2.20863
0.999996
1
1
1
1
1
1
1
1
1
1
1
1
1
1
1
1
9.51995
8.28714
7.81091
4.83074
1.29842
0.999998
1
1
1
1
1
1
1
1
1
1
1
1
1
1
8.32966
7.90429
8.21083
7.89742
5.73718
1.66501
0.999305
1
1
1
1
1
1
1
1
1
1
1
1
1
7.86025
7.71967
7.74281
7.64064
7.68169
5.83455
1.76051
0.998758
1
1
1
1
1
1
1
1
1
1
1
1
7.64706
7.59377
7.62904
7.62586
7.68909
7.55279
5.59159
1.6371
0.99862
1
1
1
1
1
1
1
1
1
1
1
7.61622
7.61119
7.65245
7.63914
7.65593
7.6527
7.56892
5.21513
1.43918
0.998604
1
1
1
1
1
1
1
1
1
1
7.64136
7.65395
7.67593
7.64827
7.63503
7.5734
7.51709
7.10861
4.02524
1.15432
0.999415
1
1
1
1
1
1
1
1
1
7.6578
7.66714
7.65482
7.61167
7.55763
7.47847
7.43647
7.46124
6.89188
2.95646
1.02277
1
1
1
1
1
1
1
1
1
7.6339
7.60595
7.55857
7.51999
7.47658
7.42406
7.39448
7.3767
7.44101
6.36265
2.16844
0.998039
1.00001
1
1
1
1
1
1
1
7.54944
7.49196
7.45203
7.42737
7.39305
7.36651
7.36235
7.34825
7.39631
7.10728
4.90528
1.3942
0.998434
1.00001
1
1
1
1
1
1
7.44401
7.38385
7.35464
7.33683
7.31304
7.30857
7.30486
7.29639
7.28198
7.20818
7.00644
3.43066
1.07241
0.999826
1
1
1
1
1
1
7.35087
7.29903
7.28159
7.26947
7.25528
7.25286
7.22725
7.20688
7.1908
7.13389
7.02636
5.8178
1.9779
1.0011
0.999996
1
1
1
1
1
7.27273
7.23393
7.22809
7.22293
7.22409
7.18548
7.14642
7.14087
7.09883
7.04238
6.9662
6.92328
4.40479
1.26001
1.00057
1
1
1
1
1
7.19454
7.16816
7.1651
7.1541
7.12213
7.08865
7.04515
7.05748
7.02225
6.97589
6.92546
6.96555
6.09319
2.33508
0.966635
0.998574
0.999994
1
1
1
2.3997
3.78061
4.43907
4.94574
5.35307
5.67167
5.89255
6.11726
6.27955
6.41667
6.52371
6.67713
6.55564
5.41817
1.99379
1.03513
1.00028
1
1
1
0.614328
1.90005
2.7076
3.37722
3.87225
4.32058
4.69701
5.06409
5.37434
5.61298
5.83016
6.08037
6.31549
6.30889
4.58776
1.64292
1.01804
1.00013
1
1
0.570428
1.15343
1.62483
2.21357
2.81997
3.27054
3.74638
4.10633
4.52296
4.81533
5.10703
5.41935
5.79122
6.06173
5.75086
3.4843
1.285
1.00486
1.00003
1
0.708408
0.969151
1.14485
1.50792
2.00447
2.4804
2.95942
3.3881
3.76632
4.1618
4.43229
4.83674
5.19606
5.57732
5.57021
4.98881
2.32754
1.07539
1.0007
1
0.867251
0.833439
0.896899
1.22501
1.55164
1.96085
2.34374
2.82062
3.17749
3.61088
3.9255
4.33316
4.70515
5.0098
5.29374
5.21017
3.74145
1.46081
1.01133
1.00007
0.91762
0.820006
0.813162
0.976452
1.21914
1.59063
1.9266
2.31014
2.68084
3.05589
3.46415
3.8042
4.2378
4.44971
4.83216
5.09611
4.78857
2.49821
1.09977
1.00105
0.924088
0.848493
0.841511
0.912425
1.01028
1.25472
1.59867
1.89654
2.27989
2.60206
3.02429
3.36134
3.75483
4.03932
4.37506
4.83183
4.82882
3.63906
1.48312
1.01174
0.942395
0.907529
0.908414
0.903399
0.938455
1.11238
1.37213
1.63937
1.9915
2.33584
2.69261
3.05817
3.36022
3.71208
4.02923
4.4738
4.70797
4.18508
2.16117
1.07382
0.942827
0.932436
0.916773
0.879382
0.882185
1.00748
1.20082
1.44312
1.72928
2.08741
2.40009
2.76249
3.03732
3.37003
3.68751
4.06154
4.50908
4.38974
3.00278
1.29122
0.930611
0.926251
0.90515
0.864087
0.855011
0.912138
1.01709
1.2541
1.47058
1.81211
2.10839
2.42451
2.71472
3.01359
3.34825
3.72151
4.20242
4.36106
3.7519
1.8458
0.92007
0.911855
0.892009
0.868617
0.870756
0.907626
0.939758
1.10663
1.31475
1.57517
1.89945
2.17032
2.47964
2.76556
3.10811
3.46602
3.8859
4.25079
3.91386
2.65718
0.907703
0.898357
0.892123
0.886438
0.890719
0.895112
0.910085
1.04483
1.2311
1.43544
1.73699
2.00221
2.29583
2.58325
2.89354
3.20737
3.54135
4.0496
3.87933
3.60589
0.901721
0.895547
0.898037
0.89756
0.885446
0.863616
0.869772
0.97071
1.13834
1.31509
1.56175
1.8294
2.08138
2.37728
2.6695
2.93761
3.29241
3.77379
3.9153
4.60439
0.90099
0.896202
0.907542
0.89985
0.87824
0.856114
0.85832
0.899758
1.0033
1.18794
1.35444
1.62442
1.85135
2.16361
2.45558
2.74423
3.0919
3.52048
4.08176
5.52376
0.903129
0.905765
0.910836
0.901767
0.881169
0.861697
0.862489
0.895852
0.946247
1.1009
1.24863
1.48446
1.71698
1.98866
2.30725
2.58998
2.85881
3.22759
4.12642
6.37801
0.803493
0.890596
0.90568
0.902933
0.886847
0.87075
0.879198
0.899498
0.930367
1.05548
1.18934
1.38668
1.62921
1.83366
2.14393
2.43674
2.66759
3.05408
4.14189
7.14324
0.709816
0.829439
0.883621
0.89862
0.887586
0.879703
0.88288
0.882499
0.895203
0.992498
1.12584
1.27079
1.52346
1.73018
1.962
2.23774
2.50403
2.92498
4.30629
7.79714
0.60228
0.731325
0.82904
0.880192
0.887627
0.8833
0.873973
0.858511
0.863587
0.909022
1.0469
1.18841
1.3639
1.61013
1.8326
2.08394
2.35159
2.76335
4.31855
8.16077
0.528917
0.642999
0.756646
0.84358
0.881342
0.879942
0.872882
0.858492
0.862881
0.890013
0.951449
1.1137
1.26982
1.48258
1.71682
1.9478
2.19345
2.72047
4.51655
8.52938
0.526952
0.590796
0.677258
0.790113
0.864894
0.874814
0.871422
0.858731
0.863217
0.885071
0.900636
1.01276
1.17711
1.37153
1.58504
1.80888
2.06585
2.73008
4.63635
8.36114
0.554122
0.552611
0.611621
0.731896
0.827148
0.863503
0.860054
0.850203
0.849099
0.858411
0.869496
0.952492
1.07926
1.25703
1.45885
1.66126
1.94951
2.81636
4.73646
8.03393
0.613771
0.562617
0.58087
0.662523
0.757515
0.828829
0.845201
0.838631
0.83074
0.8299
0.848074
0.918269
1.00742
1.15223
1.33188
1.52188
1.85977
3.0259
4.7951
7.63413
0.711941
0.627835
0.589654
0.614715
0.672384
0.768317
0.822376
0.827483
0.818853
0.813984
0.824481
0.883131
0.954063
1.07356
1.22485
1.41936
1.86559
3.24563
4.66287
6.97706
0.79065
0.70485
0.615234
0.587636
0.604216
0.690845
0.772196
0.811511
0.808765
0.8062
0.81602
0.852469
0.89718
0.999653
1.1364
1.3362
1.98052
3.55834
4.49205
6.23757
0.870738
0.805211
0.738148
0.645993
0.608093
0.629161
0.677484
0.746002
0.777986
0.788184
0.797487
0.806017
0.821294
0.902005
1.03361
1.40773
2.34065
3.62388
4.0952
5.01062
)
;

boundaryField
{
    inlet
    {
        type            fixedValue;
        value           uniform 1;
    }
    outlet
    {
        type            zeroGradient;
    }
    airfoil
    {
        type            zeroGradient;
    }
    top
    {
        type            symmetryPlane;
    }
    bottom
    {
        type            symmetryPlane;
    }
    defaultFaces
    {
        type            empty;
    }
}


// ************************************************************************* //
