/*--------------------------------*- C++ -*----------------------------------*\
  =========                 |
  \\      /  F ield         | OpenFOAM: The Open Source CFD Toolbox
   \\    /   O peration     | Website:  https://openfoam.org
    \\  /    A nd           | Version:  7
     \\/     M anipulation  |
\*---------------------------------------------------------------------------*/
FoamFile
{
    version     2.0;
    format      ascii;
    class       volScalarField;
    location    "6";
    object      T;
}
// * * * * * * * * * * * * * * * * * * * * * * * * * * * * * * * * * * * * * //

dimensions      [0 0 0 1 0 0 0];

internalField   nonuniform List<scalar> 
1750
(
1.36715
1.51151
1.46681
1.4092
1.38038
1.40617
1.43133
1.4528
1.4501
1.44415
0.430054
0.855581
1.4729
1.78909
1.80369
1.78052
1.73297
1.65043
1.61087
1.57454
0.34801
0.351827
0.444394
0.924279
1.32092
1.50785
1.61759
1.6168
1.62069
1.60008
0.394424
0.409177
0.427235
0.455984
0.466839
0.632632
0.902664
1.15231
1.27899
1.37398
0.495008
0.503837
0.514126
0.52608
0.534567
0.5316
0.538651
0.575988
0.684465
0.953947
0.577071
0.58222
0.584874
0.592975
0.605536
0.615932
0.623521
0.635287
0.637558
0.645141
0.690614
0.691269
0.691343
0.690888
0.692403
0.69871
0.699256
0.698982
0.697347
0.693988
0.825834
0.813253
0.802874
0.796562
0.789078
0.778825
0.768758
0.760404
0.755368
0.748555
0.958101
0.943275
0.925371
0.90912
0.894545
0.878175
0.863273
0.849144
0.837368
0.820907
1.02964
1.02296
1.01389
1.00277
0.990288
0.975103
0.957681
0.939581
0.922796
0.896812
1.03783
1.03766
1.0367
1.03491
1.03263
1.0287
1.02196
1.01237
1.00134
0.978469
1.0259
1.0283
1.03001
1.03178
1.0318
1.03162
1.03125
1.03048
1.02907
1.02282
1.00585
1.00817
1.01075
1.01384
1.01718
1.02026
1.02295
1.02497
1.02671
1.02649
1.00028
1.00051
1.0009
1.00153
1.00257
1.00416
1.00631
1.00904
1.01209
1.01699
1
1.00001
1.00002
1.00004
1.00009
1.00019
1.00041
1.00085
1.00156
1.0042
0.528213
0.421729
0.359424
0.38817
0.473228
0.57019
0.688037
0.83569
0.971914
1.03423
1.03782
1.02294
1.00422
1.00019
1
0.527183
0.422647
0.369257
0.421871
0.493813
0.602341
0.737696
0.88826
1.0056
1.04137
1.0378
1.01823
1.00234
1.00007
1
0.513939
0.418311
0.374037
0.433374
0.508011
0.630877
0.784475
0.930359
1.02383
1.04348
1.03628
1.01378
1.00122
1.00003
1
0.500667
0.405663
0.374522
0.434601
0.556043
0.696426
0.837758
0.966848
1.03692
1.04445
1.03311
1.00858
1.00053
1.00001
1
0.488162
0.390912
0.379719
0.449331
0.603435
0.744459
0.882478
0.999095
1.04561
1.04477
1.02608
1.00485
1.00022
1
1
0.495788
0.386794
0.394438
0.51863
0.656898
0.791294
0.931771
1.0274
1.0492
1.04359
1.01926
1.00256
1.00009
1
1
0.518228
0.383983
0.416748
0.568415
0.703436
0.848057
0.981748
1.04413
1.05028
1.0381
1.0127
1.00108
1.00003
1
1
0.490304
0.383502
0.456139
0.612552
0.77095
0.920161
1.01839
1.05154
1.05027
1.03131
1.00693
1.00039
1.00001
1
1
0.479299
0.39427
0.532949
0.693535
0.849411
0.973564
1.04215
1.05424
1.04687
1.02175
1.00297
1.00013
1
1
1
0.467853
0.474882
0.609939
0.786859
0.92536
1.017
1.05505
1.05484
1.04018
1.01222
1.0011
1.00003
1
1
1
0.407756
0.513827
0.706925
0.872463
0.987215
1.04728
1.05906
1.05377
1.02914
1.00556
1.00033
1.00001
1
1
1
0.0994942
0.542677
0.81615
0.957999
1.03364
1.06081
1.06004
1.04598
1.01662
1.00202
1.00008
1
1
1
1
0.237649
0.714103
0.917855
1.01685
1.05905
1.06458
1.05788
1.03218
1.00693
1.00049
1.00002
1
1
1
1
0.487322
0.831781
1.00011
1.05325
1.06817
1.06543
1.04675
1.0155
1.00185
1.00008
1
1
1
1
1
0.835343
0.997065
1.05401
1.06613
1.06938
1.05697
1.02699
1.00507
1.00034
1.00001
1
1
1
1
1
1.06648
1.06793
1.06903
1.06786
1.06481
1.03837
1.00973
1.00049
1
1
1
1
1
1
1
1.0664
1.06855
1.06971
1.06674
1.06126
1.03516
1.00948
1.00085
1.00003
1
1
1
1
1
1
1.06644
1.06963
1.07048
1.06702
1.05445
1.02177
1.00277
1.00011
1
1
1
1
1
1
1
1.06615
1.07006
1.07047
1.06379
1.04329
1.01315
1.00119
1.00004
1
1
1
1
1
1
1
1.06606
1.07042
1.07014
1.05873
1.03242
1.00639
1.00038
1.00001
1
1
1
1
1
1
1
1.06791
1.07168
1.07033
1.05164
1.02048
1.0026
1.00011
1
1
1
1
1
1
1
1
1.07228
1.0718
1.06849
1.03993
1.01014
1.00086
1.00003
1
1
1
1
1
1
1
1
1.07799
1.06596
1.05835
1.02595
1.0047
1.00027
1.00001
1
1
1
1
1
1
1
1
1.08359
1.06122
1.0458
1.01491
1.00164
1.00006
1
1
1
1
1
1
1
1
1
1.08638
1.0557
1.03033
1.00644
1.0005
1.00001
1
1
1
1
1
1
1
1
1
1.08542
1.04488
1.01812
1.00257
1.00013
1
1
1
1
1
1
1
1
1
1
1.07518
1.0333
1.00879
1.00078
1.00003
1
1
1
1
1
1
1
1
1
1
1.06284
1.0207
1.00323
1.00017
1
1
1
1
1
1
1
1
1
1
1
1.04327
1.0095
1.00081
1.00003
1
1
1
1
1
1
1
1
1
1
1
1.01959
1.00268
1.00011
1
1
1
1
1
1
1
1
1
1
1
1
1
1
1
1
1
1
1
1
1
1
1
1
1
1
1
1
1
1
1
1
1
1
1
1
1
1
1
1
1
1
1
1
1
1
1
1
1
1
1
1
1
1
1
1
1
1
1
1
1
1
1
1
1
1
1
1
1
1
1
1
1
1
1
1
1
1
1
1
1
1
1
1
1
1
1
1
1
1
1
1
1
1
1
1
1
1
1
1
1
1
1
1
1
1
1
1
1
1
1
1
1
1
1
1
1
1
1
1
1
1
1
1
1
1
1
1
1
1
1
1
1
1
1
1
1
1
1
1
1
1
1
1
1
1
1
1
1
1
1
1
1
1
1
1
1
1
1
1
1
1
1
1
1
1
1
1
1
1
1
1
1
1
1
1
1
1
1
1
1
1
1
1
1
1
1
1
1
1
1
1
1
1
1
1
1
1
1
1
1
1
1
1
1
1
1
1
1
1
1
1
1
1
1
1
1
1
1
1
1
1
1
1
1
1
1
1
1
1
1
1
1
1
1
1
1
1
1
1
1
1
1
1
1
1
1
1
1
1
1
1
1
1
1
1
1
1
1
1
1
1
1
1
1
1
1
1
1
1
1
1
1
1
1
1
1
1
1
1
1
1
1
1
1
1
1
1
1
1
1
1
1
1
1
1
1
1
1
1
1
1
1
1
1
1
1
1
1
1
1
1
1
1
1
1
1
1
1
1
1
1
1
1
1
1
1
1
1
1
1
1
1
1
1
1
1
1
1
1
1
1
1
1
1
1
1
1
1
1
1
1
1
1
1
1
1
1
1
1
1
1
1.58597
1.01249
1
1
1
1
1
1
1
1
1
1
1
1
1
1
1
1
1
1
2.47822
2.1639
1.43982
0.999998
1
1
1
1
1
1
1
1
1
1
1
1
1
1
1
1
2.38734
2.31825
2.32603
1.98949
1.13386
0.999999
1
1
1
1
1
1
1
1
1
1
1
1
1
1
2.30549
2.28347
2.32051
2.3219
2.08718
1.27137
0.99967
1
1
1
1
1
1
1
1
1
1
1
1
1
2.2618
2.25784
2.27756
2.29129
2.29537
2.05745
1.29864
0.999454
1
1
1
1
1
1
1
1
1
1
1
1
2.23311
2.23678
2.26014
2.28248
2.29483
2.26146
2.01427
1.25776
0.999389
1
1
1
1
1
1
1
1
1
1
1
2.23054
2.23748
2.26088
2.28113
2.29123
2.28091
2.23522
1.95272
1.18748
0.999358
1
1
1
1
1
1
1
1
1
1
2.23376
2.24186
2.26236
2.27977
2.28796
2.27494
2.24373
2.15618
1.76085
1.06897
0.999733
1
1
1
1
1
1
1
1
1
2.23963
2.24647
2.26096
2.27478
2.27907
2.26653
2.24042
2.21085
2.11111
1.57321
1.01011
1
1
1
1
1
1
1
1
1
2.2396
2.24281
2.25288
2.26489
2.2694
2.26081
2.23867
2.20775
2.18737
2.06033
1.42068
0.999193
1
1
1
1
1
1
1
1
2.23483
2.23445
2.24317
2.25506
2.25954
2.25472
2.23847
2.21081
2.18996
2.15032
1.9001
1.1729
0.999261
1
1
1
1
1
1
1
2.2267
2.22536
2.23389
2.2457
2.25038
2.24859
2.23592
2.21092
2.18668
2.16809
2.14351
1.6805
1.03258
0.999921
1
1
1
1
1
1
2.21912
2.21811
2.22701
2.23889
2.24408
2.24286
2.23038
2.20697
2.18276
2.16261
2.14518
2.01284
1.36744
1.00045
0.999998
1
1
1
1
1
2.21084
2.20993
2.21889
2.23215
2.24025
2.23642
2.22364
2.20316
2.17689
2.15505
2.13829
2.12604
1.82771
1.11577
1.00022
1
1
1
1
1
2.20594
2.20888
2.21915
2.22847
2.23017
2.22438
2.209
2.18996
2.16445
2.14417
2.13069
2.13022
2.03598
1.45588
0.98579
0.999546
0.999998
1
1
1
1.62941
1.84938
1.93308
1.99789
2.04998
2.08758
2.10589
2.11258
2.10611
2.09871
2.09617
2.10402
2.0895
1.9645
1.37062
1.01512
1.0001
1
1
1
1.20393
1.56701
1.68877
1.7889
1.86336
1.92881
1.97713
2.01034
2.02572
2.02897
2.0352
2.04979
2.06676
2.06565
1.86585
1.25533
1.00732
1.00004
1
1
1.20369
1.37269
1.46825
1.58462
1.69699
1.77681
1.85307
1.89828
1.93856
1.9532
1.96797
1.98718
2.01605
2.04127
2.00952
1.6858
1.11848
1.00183
1.00001
1
1.27529
1.30862
1.33463
1.42329
1.54116
1.64012
1.73185
1.80001
1.84737
1.88511
1.89929
1.9295
1.95652
1.99221
1.99053
1.90605
1.43672
1.03051
1.00024
1
1.33762
1.27176
1.25635
1.34433
1.43467
1.53441
1.61966
1.70988
1.76437
1.8188
1.8433
1.87739
1.90556
1.93215
1.9604
1.94283
1.71364
1.18063
1.00425
1.00002
1.36733
1.27826
1.23072
1.26689
1.3371
1.44263
1.5264
1.61358
1.68231
1.73902
1.78605
1.81564
1.85372
1.86898
1.90897
1.92966
1.86245
1.46451
1.04034
1.00036
1.36644
1.2954
1.24531
1.24448
1.26353
1.34307
1.44322
1.52208
1.60712
1.66337
1.7238
1.75811
1.79525
1.81925
1.8548
1.89972
1.88188
1.67672
1.18312
1.00438
1.36263
1.31909
1.27097
1.23997
1.23941
1.29808
1.38371
1.46074
1.54809
1.61495
1.671
1.71566
1.74289
1.77718
1.81152
1.85879
1.86851
1.76024
1.37368
1.02862
1.34979
1.31831
1.27068
1.2299
1.22154
1.26376
1.33355
1.40809
1.48661
1.56414
1.61784
1.66922
1.69568
1.73048
1.76603
1.80758
1.84511
1.80494
1.54838
1.11073
1.33688
1.31364
1.26639
1.225
1.21123
1.2311
1.27175
1.35171
1.41511
1.50096
1.55833
1.60929
1.64403
1.67796
1.71825
1.76307
1.80987
1.80275
1.67909
1.28343
1.33408
1.31051
1.26592
1.22803
1.21722
1.22732
1.24066
1.30304
1.36807
1.44073
1.51344
1.56078
1.60489
1.63979
1.68326
1.72787
1.77146
1.79176
1.71629
1.46864
1.33103
1.30849
1.26821
1.23609
1.22389
1.22046
1.2272
1.28069
1.34274
1.40324
1.47703
1.52733
1.57291
1.61043
1.65029
1.69045
1.72605
1.769
1.71535
1.62137
1.32705
1.30701
1.27188
1.24099
1.22129
1.20711
1.21124
1.25341
1.31388
1.36805
1.43409
1.49038
1.53187
1.57461
1.614
1.64907
1.69233
1.73716
1.72183
1.7449
1.32285
1.30386
1.27351
1.24073
1.2181
1.20574
1.20796
1.22679
1.26902
1.32874
1.37593
1.44247
1.48289
1.53538
1.57787
1.61832
1.66371
1.70616
1.74745
1.84309
1.3187
1.30463
1.27463
1.24181
1.21958
1.20822
1.20974
1.22492
1.24734
1.30132
1.34501
1.4078
1.45359
1.50203
1.55219
1.59235
1.62808
1.66754
1.76143
1.92881
1.31363
1.29413
1.26942
1.24184
1.22139
1.21144
1.21613
1.22594
1.24071
1.28641
1.32715
1.38142
1.43332
1.46885
1.52072
1.56518
1.59657
1.64442
1.76934
2.00189
1.2908
1.26479
1.25698
1.23997
1.22147
1.21438
1.21673
1.21841
1.22649
1.26469
1.30734
1.34722
1.4079
1.4451
1.48293
1.52796
1.56804
1.62675
1.79584
2.06032
1.2373
1.21929
1.22988
1.23154
1.22174
1.21494
1.21264
1.20862
1.21435
1.2346
1.28234
1.32173
1.36485
1.41608
1.45416
1.49692
1.53988
1.60238
1.79657
2.09583
1.17562
1.17037
1.19278
1.21385
1.21907
1.21444
1.21247
1.20891
1.2142
1.22616
1.24824
1.29809
1.3365
1.38319
1.42731
1.46794
1.50941
1.5973
1.82044
2.13639
1.146
1.13033
1.14899
1.18856
1.21222
1.21304
1.2122
1.20905
1.21413
1.22314
1.22674
1.26317
1.30674
1.35211
1.39469
1.43693
1.48365
1.60016
1.82357
2.12787
1.1474
1.09992
1.11174
1.15988
1.1964
1.20879
1.20768
1.20537
1.20736
1.21166
1.21336
1.23894
1.27334
1.31784
1.36115
1.40205
1.4597
1.61552
1.82212
2.10702
1.17044
1.10158
1.09064
1.12465
1.16604
1.19469
1.20123
1.20002
1.19873
1.19952
1.20436
1.22424
1.24682
1.28389
1.32499
1.366
1.4395
1.64902
1.8205
2.07997
1.22245
1.12856
1.09473
1.1
1.12576
1.16848
1.19176
1.19507
1.19286
1.19148
1.19326
1.20873
1.2256
1.25612
1.29221
1.33823
1.44521
1.67988
1.80263
2.03037
1.25837
1.16016
1.10375
1.0845
1.09097
1.13295
1.17029
1.18793
1.18769
1.18656
1.18713
1.19437
1.20215
1.22834
1.26257
1.31489
1.47813
1.72586
1.78052
1.96746
1.30268
1.21047
1.15997
1.11317
1.0922
1.10251
1.12733
1.15908
1.17253
1.17523
1.17498
1.17129
1.16785
1.18904
1.22759
1.34505
1.56213
1.7242
1.73178
1.84818
)
;

boundaryField
{
    inlet
    {
        type            fixedValue;
        value           uniform 1;
    }
    outlet
    {
        type            inletOutlet;
        inletValue      uniform 1;
        value           nonuniform List<scalar> 
35
(
1.30272
1.21044
1.15986
1.11298
1.09198
1.10231
1.12714
1.1589
1.17237
1.17505
1.17473
1.17097
1.16753
1.18874
1.22711
1.34384
1.56072
1.72353
1.73144
1.8485
1.44414
1.57457
1.60012
1.37369
0.953438
0.644943
0.694012
0.748572
0.82091
0.896819
0.978475
1.02282
1.02649
1.01699
1.0042
)
;
    }
    airfoil
    {
        type            zeroGradient;
    }
    top
    {
        type            symmetryPlane;
    }
    bottom
    {
        type            symmetryPlane;
    }
    defaultFaces
    {
        type            empty;
    }
}


// ************************************************************************* //
