/*--------------------------------*- C++ -*----------------------------------*\
  =========                 |
  \\      /  F ield         | OpenFOAM: The Open Source CFD Toolbox
   \\    /   O peration     | Website:  https://openfoam.org
    \\  /    A nd           | Version:  7
     \\/     M anipulation  |
\*---------------------------------------------------------------------------*/
FoamFile
{
    version     2.0;
    format      ascii;
    class       volVectorField;
    location    "2";
    object      U;
}
// * * * * * * * * * * * * * * * * * * * * * * * * * * * * * * * * * * * * * //

dimensions      [0 1 -1 0 0 0 0];

internalField   nonuniform List<vector> 
24000
(
(2.88191 -1.30849 0)
(2.85817 -1.18761 0)
(2.8535 -1.15695 0)
(2.83516 -1.01432 0)
(2.84145 -0.917 0)
(2.85386 -0.872114 0)
(2.86351 -0.81177 0)
(2.86556 -0.727751 0)
(2.87509 -0.67949 0)
(2.88029 -0.59695 0)
(2.88719 -0.550457 0)
(2.88746 -0.46371 0)
(2.89213 -0.403371 0)
(2.89552 -0.329725 0)
(2.8844 -0.249816 0)
(2.87092 -0.22523 0)
(2.85997 -0.180512 0)
(2.84719 -0.187605 0)
(2.84006 -0.173495 0)
(2.8315 -0.176561 0)
(2.82575 -0.174202 0)
(2.82369 -0.159694 0)
(2.81826 -0.130888 0)
(2.82432 -0.0911406 0)
(2.82667 -0.0678323 0)
(2.82933 -0.0629559 0)
(2.81043 -0.0736953 0)
(2.79147 -0.0744195 0)
(2.76708 -0.0781259 0)
(2.74301 -0.0861934 0)
(2.71813 -0.102158 0)
(2.706 -0.110972 0)
(2.71162 -0.104992 0)
(2.71356 -0.0833184 0)
(2.69557 -0.086575 0)
(2.68143 -0.0987421 0)
(2.66462 -0.105103 0)
(2.65391 -0.105992 0)
(2.66651 -0.0996536 0)
(2.69619 -0.0661144 0)
(2.72152 -0.012215 0)
(2.71027 0.00586065 0)
(2.62359 -0.00200334 0)
(2.54959 -0.0161144 0)
(2.49866 -0.0230753 0)
(2.47755 -0.0313304 0)
(2.4753 -0.0349663 0)
(2.47919 -0.0594732 0)
(2.59057 -0.0523934 0)
(2.78255 -0.0217035 0)
(2.91187 -1.40007 0)
(2.9115 -1.40003 0)
(2.91122 -1.3997 0)
(2.91036 -1.40018 0)
(2.90975 -1.39947 0)
(2.90868 -1.39901 0)
(2.90772 -1.39822 0)
(2.90619 -1.39854 0)
(2.90492 -1.39862 0)
(2.9037 -1.39847 0)
(2.90204 -1.39745 0)
(2.89471 -1.38367 0)
(2.88158 -1.34909 0)
(2.86076 -1.28172 0)
(2.83113 -1.1644 0)
(2.79878 -1.03305 0)
(2.75229 -0.838792 0)
(2.7356 -0.705385 0)
(2.7086 -0.507631 0)
(2.72448 -0.425926 0)
(2.69151 -0.266986 0)
(2.69957 -0.196765 0)
(2.66582 -0.0718122 0)
(2.65705 -0.0425697 0)
(2.64176 0.0209534 0)
(2.61198 0.00757872 0)
(2.61571 -0.00933918 0)
(2.62876 -0.0374365 0)
(2.63206 -0.0735864 0)
(2.62903 -0.100974 0)
(2.62757 -0.0998736 0)
(2.62854 -0.0981065 0)
(2.63773 -0.0761722 0)
(2.60575 -0.0640731 0)
(2.58454 -0.0673469 0)
(2.56331 -0.0804986 0)
(2.54917 -0.0887027 0)
(2.53522 -0.096708 0)
(2.53538 -0.0938081 0)
(2.54253 -0.0726843 0)
(2.5365 -0.0193156 0)
(2.51567 0.0150065 0)
(2.44924 0.0102245 0)
(2.39766 -0.0130262 0)
(2.37126 -0.020212 0)
(2.36765 -0.0296782 0)
(2.37479 -0.0336656 0)
(2.39052 -0.060548 0)
(2.45844 -0.0656748 0)
(2.62883 -0.0412837 0)
(2.90299 -1.3974 0)
(2.90189 -1.39796 0)
(2.90128 -1.39736 0)
(2.90012 -1.39735 0)
(2.89894 -1.39698 0)
(2.89779 -1.39603 0)
(2.89667 -1.39468 0)
(2.89542 -1.39375 0)
(2.89328 -1.39418 0)
(2.89196 -1.39392 0)
(2.89042 -1.39357 0)
(2.88956 -1.39331 0)
(2.88862 -1.39263 0)
(2.88776 -1.39191 0)
(2.88674 -1.39139 0)
(2.88556 -1.39104 0)
(2.88275 -1.38926 0)
(2.88066 -1.38767 0)
(2.8758 -1.37857 0)
(2.86337 -1.34762 0)
(2.83629 -1.26811 0)
(2.8088 -1.16201 0)
(2.77772 -0.997867 0)
(2.75423 -0.861308 0)
(2.71193 -0.639126 0)
(2.69199 -0.509897 0)
(2.63885 -0.315581 0)
(2.63741 -0.266787 0)
(2.6102 -0.199578 0)
(2.61733 -0.1773 0)
(2.61162 -0.135245 0)
(2.59808 -0.10101 0)
(2.56951 -0.0598083 0)
(2.54468 -0.0553404 0)
(2.51231 -0.069514 0)
(2.50302 -0.0864543 0)
(2.49493 -0.0931424 0)
(2.48552 -0.102163 0)
(2.47605 -0.102109 0)
(2.45412 -0.0738988 0)
(2.41725 -0.00413766 0)
(2.38543 0.0228595 0)
(2.33508 0.0175511 0)
(2.30867 -0.00343258 0)
(2.3017 -0.0113796 0)
(2.31079 -0.0250477 0)
(2.32299 -0.0341201 0)
(2.34288 -0.0620916 0)
(2.36921 -0.0792932 0)
(2.4829 -0.050175 0)
(2.89291 -1.39402 0)
(2.89124 -1.39467 0)
(2.89059 -1.39496 0)
(2.88998 -1.39511 0)
(2.88928 -1.39498 0)
(2.88852 -1.39468 0)
(2.88781 -1.39369 0)
(2.88719 -1.39269 0)
(2.88654 -1.39182 0)
(2.88592 -1.39094 0)
(2.88535 -1.39059 0)
(2.88389 -1.39084 0)
(2.88254 -1.39041 0)
(2.88157 -1.39023 0)
(2.8808 -1.39003 0)
(2.87953 -1.38917 0)
(2.87775 -1.38766 0)
(2.87671 -1.38606 0)
(2.87666 -1.38443 0)
(2.87645 -1.3834 0)
(2.87492 -1.38184 0)
(2.874 -1.38015 0)
(2.87254 -1.37887 0)
(2.87057 -1.37706 0)
(2.86525 -1.36782 0)
(2.84501 -1.30249 0)
(2.78554 -1.10341 0)
(2.73257 -0.858137 0)
(2.67046 -0.559133 0)
(2.64892 -0.33457 0)
(2.64155 -0.17872 0)
(2.58187 0.0234114 0)
(2.52744 -0.00170244 0)
(2.4974 -0.043912 0)
(2.50258 -0.0730369 0)
(2.49842 -0.0849182 0)
(2.48381 -0.0959842 0)
(2.46335 -0.103553 0)
(2.44084 -0.0989358 0)
(2.40667 -0.0665913 0)
(2.36185 0.00806526 0)
(2.33001 0.0302308 0)
(2.28462 0.0176683 0)
(2.26954 -0.00195708 0)
(2.27438 -0.00866298 0)
(2.28962 -0.0235609 0)
(2.30273 -0.0348592 0)
(2.32166 -0.063407 0)
(2.32531 -0.0925562 0)
(2.3648 -0.0590405 0)
(2.88566 -1.39227 0)
(2.88548 -1.39254 0)
(2.88544 -1.39244 0)
(2.88538 -1.39225 0)
(2.88508 -1.39227 0)
(2.88479 -1.39172 0)
(2.88437 -1.39131 0)
(2.88367 -1.39145 0)
(2.88307 -1.39109 0)
(2.8826 -1.39036 0)
(2.88231 -1.38995 0)
(2.88168 -1.38931 0)
(2.8808 -1.3888 0)
(2.88027 -1.38829 0)
(2.87991 -1.3877 0)
(2.87932 -1.3869 0)
(2.87791 -1.38561 0)
(2.87685 -1.38423 0)
(2.8755 -1.38241 0)
(2.87459 -1.38191 0)
(2.8731 -1.38091 0)
(2.87087 -1.37878 0)
(2.86845 -1.37732 0)
(2.86625 -1.37585 0)
(2.86498 -1.37333 0)
(2.86412 -1.37172 0)
(2.86346 -1.37099 0)
(2.8632 -1.37044 0)
(2.86025 -1.36025 0)
(2.8333 -1.2716 0)
(2.78658 -1.0584 0)
(2.74306 -0.717751 0)
(2.68139 -0.437403 0)
(2.61815 -0.221473 0)
(2.57641 -0.103511 0)
(2.51823 -0.0828118 0)
(2.48669 -0.0828735 0)
(2.4472 -0.0892448 0)
(2.4123 -0.086011 0)
(2.3834 -0.0485061 0)
(2.34298 0.0256853 0)
(2.31302 0.0378463 0)
(2.27052 0.0127709 0)
(2.25929 0.0039295 0)
(2.2675 -0.00342063 0)
(2.28192 -0.0230048 0)
(2.29483 -0.0374559 0)
(2.31268 -0.0661173 0)
(2.30076 -0.0948652 0)
(2.29478 -0.0599173 0)
(2.88428 -1.39083 0)
(2.88454 -1.39067 0)
(2.88457 -1.39063 0)
(2.88457 -1.39045 0)
(2.88459 -1.39014 0)
(2.88458 -1.38953 0)
(2.88455 -1.38892 0)
(2.88426 -1.38865 0)
(2.88382 -1.38851 0)
(2.88341 -1.388 0)
(2.8832 -1.3876 0)
(2.88274 -1.38742 0)
(2.88164 -1.38694 0)
(2.8811 -1.38659 0)
(2.88074 -1.38637 0)
(2.88006 -1.38554 0)
(2.87885 -1.38436 0)
(2.87764 -1.38261 0)
(2.87712 -1.38143 0)
(2.87515 -1.38077 0)
(2.87274 -1.38081 0)
(2.87099 -1.37877 0)
(2.86827 -1.37614 0)
(2.86663 -1.37489 0)
(2.86549 -1.37361 0)
(2.86547 -1.37234 0)
(2.86617 -1.37127 0)
(2.86688 -1.36942 0)
(2.86685 -1.36797 0)
(2.86567 -1.3654 0)
(2.86455 -1.36376 0)
(2.86432 -1.363 0)
(2.83157 -1.21988 0)
(2.74971 -0.802603 0)
(2.66597 -0.431076 0)
(2.62132 -0.194273 0)
(2.45947 -0.0765404 0)
(2.43029 -0.0719993 0)
(2.40433 -0.0691565 0)
(2.38354 -0.031387 0)
(2.3413 0.0361326 0)
(2.31163 0.0404963 0)
(2.27821 0.00873084 0)
(2.26827 0.00819025 0)
(2.26851 -0.000204745 0)
(2.27722 -0.0233784 0)
(2.28925 -0.0408446 0)
(2.30503 -0.0667835 0)
(2.28478 -0.0930746 0)
(2.2584 -0.0615476 0)
(2.88538 -1.39178 0)
(2.88484 -1.39034 0)
(2.88454 -1.38975 0)
(2.88454 -1.38819 0)
(2.88492 -1.38735 0)
(2.88519 -1.38695 0)
(2.88508 -1.38695 0)
(2.88487 -1.38698 0)
(2.8846 -1.38678 0)
(2.88425 -1.38646 0)
(2.88393 -1.38626 0)
(2.88373 -1.38613 0)
(2.88296 -1.3859 0)
(2.88233 -1.38555 0)
(2.88183 -1.3852 0)
(2.88112 -1.38464 0)
(2.88023 -1.38336 0)
(2.87934 -1.38259 0)
(2.87807 -1.38189 0)
(2.8757 -1.38163 0)
(2.87282 -1.38156 0)
(2.87031 -1.37897 0)
(2.8688 -1.37624 0)
(2.86845 -1.3745 0)
(2.86755 -1.37292 0)
(2.86811 -1.37187 0)
(2.86902 -1.37081 0)
(2.86989 -1.36699 0)
(2.86953 -1.36501 0)
(2.86743 -1.36358 0)
(2.86672 -1.3621 0)
(2.86652 -1.36192 0)
(2.86578 -1.3619 0)
(2.86246 -1.36229 0)
(2.83697 -1.29466 0)
(2.73731 -0.876323 0)
(2.57894 -0.409857 0)
(2.44741 -0.116034 0)
(2.41578 -0.0623701 0)
(2.38027 -0.01602 0)
(2.34873 0.0340362 0)
(2.3266 0.0313007 0)
(2.3004 0.0135502 0)
(2.28381 0.0159268 0)
(2.27188 0.00373502 0)
(2.27555 -0.0251296 0)
(2.28492 -0.0429027 0)
(2.29702 -0.0649085 0)
(2.27238 -0.0854645 0)
(2.23186 -0.0575396 0)
(2.88776 -1.39031 0)
(2.88733 -1.38884 0)
(2.88698 -1.38768 0)
(2.88634 -1.38754 0)
(2.88605 -1.38658 0)
(2.88629 -1.38562 0)
(2.88611 -1.38578 0)
(2.88578 -1.38647 0)
(2.88564 -1.38637 0)
(2.88534 -1.38592 0)
(2.88471 -1.38597 0)
(2.88431 -1.38541 0)
(2.88404 -1.38479 0)
(2.88371 -1.38434 0)
(2.88327 -1.38378 0)
(2.88294 -1.38282 0)
(2.8823 -1.38261 0)
(2.88161 -1.38212 0)
(2.88024 -1.38193 0)
(2.87762 -1.38223 0)
(2.8748 -1.3794 0)
(2.87181 -1.37731 0)
(2.87123 -1.37571 0)
(2.87011 -1.3745 0)
(2.86889 -1.37267 0)
(2.87101 -1.37141 0)
(2.87242 -1.37073 0)
(2.87321 -1.36704 0)
(2.87358 -1.3643 0)
(2.87059 -1.36272 0)
(2.86827 -1.36242 0)
(2.86712 -1.363 0)
(2.86533 -1.36426 0)
(2.85941 -1.35996 0)
(2.85706 -1.35743 0)
(2.8553 -1.35672 0)
(2.79842 -1.20533 0)
(2.61474 -0.600826 0)
(2.44618 -0.122622 0)
(2.37485 0.0115805 0)
(2.3737 0.032183 0)
(2.36034 0.0307939 0)
(2.33156 0.0338537 0)
(2.29426 0.0230845 0)
(2.27149 0.00360296 0)
(2.27714 -0.0278636 0)
(2.28292 -0.0434704 0)
(2.29237 -0.0618927 0)
(2.26626 -0.0749362 0)
(2.2201 -0.0495768 0)
(2.8902 -1.38733 0)
(2.88976 -1.3871 0)
(2.8895 -1.38583 0)
(2.88875 -1.38534 0)
(2.88803 -1.38541 0)
(2.88788 -1.38485 0)
(2.88785 -1.38441 0)
(2.88737 -1.38509 0)
(2.8873 -1.38543 0)
(2.88707 -1.38531 0)
(2.88651 -1.38501 0)
(2.88616 -1.38443 0)
(2.88585 -1.38466 0)
(2.88594 -1.38436 0)
(2.88578 -1.38432 0)
(2.88569 -1.38407 0)
(2.88547 -1.38332 0)
(2.88488 -1.38229 0)
(2.88274 -1.38209 0)
(2.88025 -1.38043 0)
(2.87562 -1.37739 0)
(2.87427 -1.37625 0)
(2.87326 -1.37466 0)
(2.87198 -1.3739 0)
(2.87204 -1.37286 0)
(2.87479 -1.37252 0)
(2.87534 -1.37208 0)
(2.87549 -1.36803 0)
(2.87566 -1.36487 0)
(2.87207 -1.363 0)
(2.86822 -1.36374 0)
(2.86626 -1.36504 0)
(2.86404 -1.36493 0)
(2.85876 -1.35907 0)
(2.85757 -1.35634 0)
(2.85691 -1.35384 0)
(2.85709 -1.34931 0)
(2.84045 -1.32632 0)
(2.69177 -0.824098 0)
(2.44658 -0.221036 0)
(2.43629 -0.0405201 0)
(2.40266 0.0434139 0)
(2.3639 0.0601661 0)
(2.3073 0.0334124 0)
(2.27453 -0.000457879 0)
(2.2841 -0.0288839 0)
(2.28518 -0.0446169 0)
(2.2907 -0.0579431 0)
(2.26919 -0.0656787 0)
(2.23934 -0.0424837 0)
(2.89289 -1.3854 0)
(2.89225 -1.38516 0)
(2.89156 -1.3847 0)
(2.89072 -1.38463 0)
(2.88989 -1.38489 0)
(2.88948 -1.38464 0)
(2.88864 -1.38549 0)
(2.88793 -1.38695 0)
(2.88783 -1.38687 0)
(2.88758 -1.38662 0)
(2.88698 -1.38694 0)
(2.88674 -1.38686 0)
(2.88666 -1.3859 0)
(2.88692 -1.38507 0)
(2.88712 -1.38486 0)
(2.88727 -1.38487 0)
(2.88717 -1.38381 0)
(2.88693 -1.38209 0)
(2.88524 -1.38003 0)
(2.88377 -1.37784 0)
(2.88309 -1.37507 0)
(2.88122 -1.37321 0)
(2.88037 -1.37308 0)
(2.87944 -1.374 0)
(2.87924 -1.37531 0)
(2.87911 -1.3752 0)
(2.8779 -1.374 0)
(2.87714 -1.36901 0)
(2.87694 -1.36567 0)
(2.87162 -1.36424 0)
(2.86521 -1.36587 0)
(2.8617 -1.36744 0)
(2.86017 -1.36432 0)
(2.86001 -1.35884 0)
(2.86144 -1.35065 0)
(2.85979 -1.34905 0)
(2.86224 -1.34455 0)
(2.85573 -1.34161 0)
(2.84839 -1.34425 0)
(2.66866 -0.907989 0)
(2.572 -0.33581 0)
(2.44509 0.0546654 0)
(2.39574 0.0857926 0)
(2.32617 0.0415059 0)
(2.30201 0.00253296 0)
(2.29701 -0.0183788 0)
(2.29417 -0.0441238 0)
(2.2935 -0.0567938 0)
(2.28293 -0.0567735 0)
(2.28203 -0.0413143 0)
(2.89255 -1.38746 0)
(2.8915 -1.38869 0)
(2.89101 -1.39016 0)
(2.891 -1.38931 0)
(2.89109 -1.38841 0)
(2.88975 -1.38831 0)
(2.88809 -1.38872 0)
(2.88785 -1.38915 0)
(2.88778 -1.38907 0)
(2.8876 -1.38941 0)
(2.88786 -1.39016 0)
(2.8885 -1.38952 0)
(2.88943 -1.38875 0)
(2.88979 -1.38831 0)
(2.89182 -1.38664 0)
(2.89332 -1.38465 0)
(2.89336 -1.38326 0)
(2.89294 -1.38127 0)
(2.89271 -1.37685 0)
(2.89075 -1.3734 0)
(2.88839 -1.37271 0)
(2.88707 -1.37274 0)
(2.88458 -1.37392 0)
(2.88295 -1.37626 0)
(2.88293 -1.37756 0)
(2.87991 -1.37623 0)
(2.87835 -1.37471 0)
(2.87765 -1.36936 0)
(2.87634 -1.36639 0)
(2.86895 -1.36673 0)
(2.86158 -1.36765 0)
(2.85859 -1.36382 0)
(2.85848 -1.36196 0)
(2.85918 -1.35463 0)
(2.8665 -1.34418 0)
(2.86966 -1.33808 0)
(2.86702 -1.33538 0)
(2.85605 -1.33383 0)
(2.84998 -1.33176 0)
(2.83666 -1.32739 0)
(2.78205 -1.15009 0)
(2.65446 -0.562492 0)
(2.50687 -0.138811 0)
(2.43601 -0.00269922 0)
(2.35248 0.0168105 0)
(2.31208 -2.00654e-05 0)
(2.30346 -0.0351494 0)
(2.30045 -0.0613291 0)
(2.31009 -0.0545108 0)
(2.33042 -0.0411043 0)
(2.89082 -1.39369 0)
(2.89163 -1.39478 0)
(2.89207 -1.39496 0)
(2.89222 -1.39477 0)
(2.89232 -1.39472 0)
(2.89236 -1.39421 0)
(2.89221 -1.39337 0)
(2.89251 -1.39292 0)
(2.89329 -1.3928 0)
(2.89425 -1.39314 0)
(2.89554 -1.39337 0)
(2.89621 -1.39313 0)
(2.89694 -1.39277 0)
(2.89722 -1.39162 0)
(2.89754 -1.38803 0)
(2.89766 -1.38477 0)
(2.89624 -1.38287 0)
(2.89395 -1.37864 0)
(2.89298 -1.37422 0)
(2.89273 -1.37277 0)
(2.89127 -1.37169 0)
(2.88904 -1.37154 0)
(2.88573 -1.3738 0)
(2.88344 -1.3778 0)
(2.88452 -1.37844 0)
(2.88071 -1.37416 0)
(2.87752 -1.36998 0)
(2.87729 -1.36565 0)
(2.87342 -1.36366 0)
(2.86545 -1.36897 0)
(2.86266 -1.36763 0)
(2.86322 -1.35557 0)
(2.8639 -1.35148 0)
(2.86645 -1.34253 0)
(2.87675 -1.33056 0)
(2.87624 -1.328 0)
(2.8676 -1.33089 0)
(2.85427 -1.32125 0)
(2.8518 -1.31624 0)
(2.84967 -1.31047 0)
(2.83575 -1.29899 0)
(2.81528 -1.25026 0)
(2.67929 -0.808524 0)
(2.6254 -0.380455 0)
(2.42568 0.0496739 0)
(2.32681 0.0257371 0)
(2.31622 -0.0341784 0)
(2.32426 -0.0586449 0)
(2.34702 -0.0601549 0)
(2.37212 -0.0497851 0)
(2.90214 -1.38879 0)
(2.90217 -1.38893 0)
(2.90239 -1.38868 0)
(2.90261 -1.38931 0)
(2.90269 -1.39052 0)
(2.90355 -1.39104 0)
(2.90496 -1.39031 0)
(2.90501 -1.39024 0)
(2.90494 -1.39036 0)
(2.90473 -1.38987 0)
(2.90366 -1.38899 0)
(2.90353 -1.38847 0)
(2.90249 -1.38757 0)
(2.90157 -1.38434 0)
(2.90246 -1.38089 0)
(2.90046 -1.377 0)
(2.89808 -1.37464 0)
(2.89512 -1.37117 0)
(2.89404 -1.36969 0)
(2.89338 -1.36952 0)
(2.89201 -1.36912 0)
(2.89092 -1.36809 0)
(2.88826 -1.36898 0)
(2.88278 -1.37336 0)
(2.87874 -1.37933 0)
(2.8749 -1.37166 0)
(2.87009 -1.35606 0)
(2.87345 -1.34853 0)
(2.87484 -1.3485 0)
(2.87559 -1.35276 0)
(2.87759 -1.35775 0)
(2.87614 -1.34731 0)
(2.87676 -1.33585 0)
(2.87637 -1.32812 0)
(2.88401 -1.30909 0)
(2.8788 -1.30705 0)
(2.86329 -1.31413 0)
(2.85907 -1.30053 0)
(2.86211 -1.2886 0)
(2.86188 -1.2766 0)
(2.85164 -1.25681 0)
(2.82921 -1.24427 0)
(2.80339 -1.24212 0)
(2.75981 -1.13204 0)
(2.61861 -0.604205 0)
(2.49489 -0.193695 0)
(2.38451 -0.0497163 0)
(2.35187 -0.0570576 0)
(2.37234 -0.0552702 0)
(2.40755 -0.0557165 0)
(2.91201 -1.38674 0)
(2.91244 -1.38621 0)
(2.91227 -1.38528 0)
(2.91218 -1.38517 0)
(2.91223 -1.38632 0)
(2.91217 -1.38701 0)
(2.91161 -1.38643 0)
(2.91125 -1.38626 0)
(2.90981 -1.3871 0)
(2.90854 -1.38645 0)
(2.90665 -1.38234 0)
(2.9049 -1.38008 0)
(2.90479 -1.37726 0)
(2.9053 -1.37467 0)
(2.90213 -1.37014 0)
(2.89883 -1.36258 0)
(2.89652 -1.35693 0)
(2.89225 -1.3551 0)
(2.8911 -1.35535 0)
(2.89056 -1.35562 0)
(2.88919 -1.35873 0)
(2.88963 -1.3565 0)
(2.88827 -1.3549 0)
(2.88177 -1.35863 0)
(2.87558 -1.36291 0)
(2.8726 -1.35613 0)
(2.87311 -1.3461 0)
(2.87944 -1.33834 0)
(2.88226 -1.336 0)
(2.88707 -1.33345 0)
(2.89487 -1.32015 0)
(2.89624 -1.31813 0)
(2.89175 -1.3055 0)
(2.88135 -1.29804 0)
(2.87763 -1.29075 0)
(2.87619 -1.28455 0)
(2.8745 -1.2809 0)
(2.87553 -1.26679 0)
(2.87705 -1.2418 0)
(2.87406 -1.23585 0)
(2.8546 -1.22872 0)
(2.83056 -1.21934 0)
(2.79986 -1.20223 0)
(2.77962 -1.19552 0)
(2.75233 -1.16621 0)
(2.65698 -0.781764 0)
(2.5314 -0.326991 0)
(2.43398 -0.124942 0)
(2.38972 -0.0687491 0)
(2.43708 -0.0445677 0)
(2.91326 -1.33754 0)
(2.91361 -1.33663 0)
(2.91286 -1.33804 0)
(2.91281 -1.33752 0)
(2.91279 -1.33619 0)
(2.91123 -1.33732 0)
(2.91031 -1.33501 0)
(2.91032 -1.33232 0)
(2.90731 -1.33381 0)
(2.90463 -1.33496 0)
(2.90286 -1.33642 0)
(2.90147 -1.3406 0)
(2.90303 -1.34417 0)
(2.90273 -1.33844 0)
(2.89752 -1.33087 0)
(2.89624 -1.32592 0)
(2.89552 -1.32248 0)
(2.89185 -1.32538 0)
(2.89258 -1.32956 0)
(2.89549 -1.32963 0)
(2.89586 -1.33259 0)
(2.89656 -1.33296 0)
(2.8991 -1.32821 0)
(2.8972 -1.3281 0)
(2.89658 -1.32604 0)
(2.89605 -1.32449 0)
(2.89593 -1.31855 0)
(2.89627 -1.30382 0)
(2.89664 -1.29533 0)
(2.89368 -1.28882 0)
(2.89477 -1.27036 0)
(2.90039 -1.25563 0)
(2.89515 -1.25428 0)
(2.88486 -1.2645 0)
(2.88059 -1.26425 0)
(2.88541 -1.2431 0)
(2.88912 -1.2249 0)
(2.89265 -1.21606 0)
(2.89072 -1.20134 0)
(2.88281 -1.18802 0)
(2.87042 -1.1788 0)
(2.84437 -1.16346 0)
(2.80991 -1.14642 0)
(2.79748 -1.14498 0)
(2.7703 -1.11411 0)
(2.74332 -1.10615 0)
(2.69747 -0.965481 0)
(2.5539 -0.456277 0)
(2.48061 -0.228523 0)
(2.46954 -0.0663245 0)
(2.90295 -1.35947 0)
(2.90211 -1.359 0)
(2.90096 -1.35806 0)
(2.90069 -1.3575 0)
(2.90086 -1.35536 0)
(2.90133 -1.35428 0)
(2.90127 -1.34985 0)
(2.9021 -1.34331 0)
(2.90163 -1.34071 0)
(2.90046 -1.34013 0)
(2.89942 -1.33994 0)
(2.89905 -1.34083 0)
(2.89928 -1.33986 0)
(2.89683 -1.33574 0)
(2.89627 -1.33068 0)
(2.89843 -1.32494 0)
(2.90024 -1.32322 0)
(2.90203 -1.31715 0)
(2.90436 -1.31404 0)
(2.90622 -1.30958 0)
(2.90674 -1.30523 0)
(2.90746 -1.30088 0)
(2.91441 -1.29126 0)
(2.9124 -1.27989 0)
(2.91542 -1.25271 0)
(2.92273 -1.23744 0)
(2.92004 -1.23652 0)
(2.91552 -1.23047 0)
(2.9109 -1.21928 0)
(2.90136 -1.21939 0)
(2.89343 -1.2306 0)
(2.89598 -1.22154 0)
(2.90115 -1.20943 0)
(2.9069 -1.20469 0)
(2.9026 -1.19778 0)
(2.90176 -1.18662 0)
(2.90371 -1.17202 0)
(2.89902 -1.15547 0)
(2.89612 -1.14631 0)
(2.8829 -1.13657 0)
(2.87113 -1.13121 0)
(2.85296 -1.12559 0)
(2.82546 -1.10275 0)
(2.80432 -1.07255 0)
(2.7823 -1.07721 0)
(2.75025 -1.05468 0)
(2.73065 -1.0461 0)
(2.7044 -0.978938 0)
(2.61147 -0.629675 0)
(2.51893 -0.190937 0)
(2.93621 -1.19139 0)
(2.93491 -1.18995 0)
(2.9352 -1.18999 0)
(2.93503 -1.19172 0)
(2.93528 -1.1924 0)
(2.93678 -1.19194 0)
(2.93755 -1.19213 0)
(2.93828 -1.18809 0)
(2.93668 -1.17775 0)
(2.93498 -1.17154 0)
(2.93573 -1.17086 0)
(2.93625 -1.17091 0)
(2.93531 -1.17196 0)
(2.93449 -1.17457 0)
(2.9353 -1.17689 0)
(2.93652 -1.17932 0)
(2.93707 -1.18003 0)
(2.93617 -1.17672 0)
(2.934 -1.17082 0)
(2.93119 -1.16631 0)
(2.9276 -1.16756 0)
(2.92562 -1.16416 0)
(2.92516 -1.15641 0)
(2.92356 -1.15696 0)
(2.92455 -1.1582 0)
(2.92675 -1.15872 0)
(2.92651 -1.16033 0)
(2.92445 -1.1606 0)
(2.92448 -1.15334 0)
(2.92218 -1.15206 0)
(2.91898 -1.16001 0)
(2.91793 -1.1587 0)
(2.91926 -1.14878 0)
(2.91977 -1.13908 0)
(2.91731 -1.12689 0)
(2.91476 -1.10971 0)
(2.91127 -1.10543 0)
(2.90394 -1.09889 0)
(2.8935 -1.0966 0)
(2.8804 -1.09051 0)
(2.87412 -1.08855 0)
(2.8596 -1.08331 0)
(2.82895 -1.06148 0)
(2.80862 -1.05188 0)
(2.79164 -1.03579 0)
(2.76325 -1.02565 0)
(2.74195 -1.00203 0)
(2.72484 -0.976605 0)
(2.70838 -0.952614 0)
(2.62381 -0.564871 0)
(2.94459 -1.15803 0)
(2.94456 -1.15738 0)
(2.94479 -1.15693 0)
(2.94491 -1.15723 0)
(2.94445 -1.15859 0)
(2.94381 -1.16089 0)
(2.94373 -1.16298 0)
(2.94272 -1.16138 0)
(2.94183 -1.15765 0)
(2.94179 -1.15681 0)
(2.94251 -1.15845 0)
(2.94347 -1.15811 0)
(2.94219 -1.15304 0)
(2.94226 -1.14823 0)
(2.9411 -1.14778 0)
(2.94028 -1.14835 0)
(2.9393 -1.14569 0)
(2.93816 -1.14034 0)
(2.93664 -1.13668 0)
(2.9363 -1.13441 0)
(2.93459 -1.13683 0)
(2.93383 -1.13842 0)
(2.93374 -1.1378 0)
(2.93284 -1.13844 0)
(2.93258 -1.13867 0)
(2.93273 -1.13791 0)
(2.93196 -1.13299 0)
(2.93153 -1.12402 0)
(2.93525 -1.11354 0)
(2.93854 -1.10302 0)
(2.939 -1.09327 0)
(2.93842 -1.07816 0)
(2.93351 -1.06548 0)
(2.92823 -1.06231 0)
(2.91984 -1.0524 0)
(2.91491 -1.04638 0)
(2.91008 -1.04208 0)
(2.90373 -1.04096 0)
(2.89707 -1.03697 0)
(2.89384 -1.03317 0)
(2.89055 -1.02779 0)
(2.8758 -1.01417 0)
(2.83627 -1.00334 0)
(2.8104 -0.997878 0)
(2.79215 -0.994143 0)
(2.77398 -0.971261 0)
(2.75698 -0.94989 0)
(2.7409 -0.927224 0)
(2.72954 -0.906682 0)
(2.70068 -0.850979 0)
(2.9598 -1.03935 0)
(2.95968 -1.03907 0)
(2.95941 -1.03858 0)
(2.95937 -1.0376 0)
(2.95964 -1.03633 0)
(2.95918 -1.03224 0)
(2.95893 -1.0306 0)
(2.95863 -1.03106 0)
(2.95866 -1.03285 0)
(2.95889 -1.03381 0)
(2.95817 -1.03169 0)
(2.95761 -1.031 0)
(2.95734 -1.03097 0)
(2.95723 -1.03007 0)
(2.95686 -1.02909 0)
(2.95626 -1.03035 0)
(2.9565 -1.03054 0)
(2.95669 -1.02856 0)
(2.95667 -1.02762 0)
(2.95905 -1.02481 0)
(2.95908 -1.0195 0)
(2.95769 -1.01213 0)
(2.9602 -1.00457 0)
(2.95766 -0.997044 0)
(2.95624 -0.987129 0)
(2.95719 -0.983531 0)
(2.95594 -0.982293 0)
(2.95384 -0.980138 0)
(2.95012 -0.980528 0)
(2.94563 -0.981248 0)
(2.94162 -0.975001 0)
(2.9377 -0.972923 0)
(2.93526 -0.970998 0)
(2.92885 -0.974013 0)
(2.92148 -0.978471 0)
(2.91864 -0.983078 0)
(2.91435 -0.976229 0)
(2.91338 -0.973097 0)
(2.9124 -0.96731 0)
(2.91021 -0.960706 0)
(2.90336 -0.95145 0)
(2.88269 -0.940553 0)
(2.84266 -0.928842 0)
(2.81188 -0.926469 0)
(2.79962 -0.92208 0)
(2.78462 -0.912296 0)
(2.77142 -0.906494 0)
(2.75545 -0.883032 0)
(2.74072 -0.862826 0)
(2.71918 -0.816369 0)
(2.96665 -0.936936 0)
(2.96667 -0.93479 0)
(2.96659 -0.934515 0)
(2.96623 -0.935275 0)
(2.96589 -0.937311 0)
(2.96665 -0.939209 0)
(2.96697 -0.939847 0)
(2.96627 -0.939184 0)
(2.96617 -0.936842 0)
(2.96585 -0.935619 0)
(2.96577 -0.936057 0)
(2.96611 -0.936986 0)
(2.96603 -0.936639 0)
(2.96585 -0.935731 0)
(2.96597 -0.935312 0)
(2.96565 -0.934179 0)
(2.96544 -0.93305 0)
(2.96507 -0.932511 0)
(2.96432 -0.932612 0)
(2.96328 -0.932756 0)
(2.96221 -0.932191 0)
(2.96077 -0.932761 0)
(2.95881 -0.935452 0)
(2.95797 -0.937084 0)
(2.9574 -0.935985 0)
(2.95549 -0.933739 0)
(2.9547 -0.931427 0)
(2.95306 -0.929558 0)
(2.95026 -0.926961 0)
(2.94757 -0.926889 0)
(2.94199 -0.927556 0)
(2.93774 -0.926465 0)
(2.93567 -0.924606 0)
(2.93387 -0.92076 0)
(2.93271 -0.915126 0)
(2.93025 -0.911493 0)
(2.92605 -0.907959 0)
(2.92274 -0.90019 0)
(2.91908 -0.891196 0)
(2.91424 -0.884081 0)
(2.90342 -0.88418 0)
(2.87908 -0.887652 0)
(2.84255 -0.887919 0)
(2.81406 -0.883882 0)
(2.80715 -0.88632 0)
(2.79496 -0.876299 0)
(2.78027 -0.851635 0)
(2.76486 -0.833019 0)
(2.74958 -0.818664 0)
(2.72656 -0.782454 0)
(2.97206 -0.835502 0)
(2.97169 -0.835686 0)
(2.97154 -0.835363 0)
(2.97174 -0.834609 0)
(2.97162 -0.83302 0)
(2.97107 -0.832024 0)
(2.97087 -0.832135 0)
(2.9706 -0.833299 0)
(2.97095 -0.834472 0)
(2.97052 -0.834299 0)
(2.97026 -0.833637 0)
(2.96981 -0.833232 0)
(2.96954 -0.833552 0)
(2.96895 -0.833924 0)
(2.96846 -0.833727 0)
(2.96806 -0.833766 0)
(2.96749 -0.833943 0)
(2.96682 -0.833792 0)
(2.9662 -0.833362 0)
(2.96545 -0.83298 0)
(2.96454 -0.832771 0)
(2.9638 -0.831799 0)
(2.96275 -0.830503 0)
(2.96124 -0.829172 0)
(2.9596 -0.82729 0)
(2.95759 -0.826226 0)
(2.95578 -0.826666 0)
(2.95392 -0.827207 0)
(2.9519 -0.826858 0)
(2.95159 -0.822145 0)
(2.94924 -0.816055 0)
(2.94512 -0.813195 0)
(2.94157 -0.811052 0)
(2.93838 -0.810311 0)
(2.93572 -0.808655 0)
(2.93275 -0.80674 0)
(2.92643 -0.808014 0)
(2.92207 -0.811307 0)
(2.91711 -0.814698 0)
(2.9122 -0.816488 0)
(2.90357 -0.817233 0)
(2.88227 -0.819111 0)
(2.84708 -0.82536 0)
(2.81719 -0.82527 0)
(2.80732 -0.818578 0)
(2.79776 -0.818916 0)
(2.78207 -0.810984 0)
(2.76694 -0.801768 0)
(2.75499 -0.79178 0)
(2.73925 -0.747768 0)
(2.97021 -0.761981 0)
(2.96991 -0.762467 0)
(2.96989 -0.762691 0)
(2.96938 -0.763802 0)
(2.96881 -0.764376 0)
(2.96863 -0.764152 0)
(2.96842 -0.763239 0)
(2.96782 -0.762693 0)
(2.96753 -0.763108 0)
(2.96684 -0.763697 0)
(2.96628 -0.763456 0)
(2.96571 -0.76322 0)
(2.96511 -0.763257 0)
(2.96442 -0.763474 0)
(2.96364 -0.763435 0)
(2.9628 -0.76295 0)
(2.96188 -0.763073 0)
(2.96093 -0.763129 0)
(2.96003 -0.762656 0)
(2.95898 -0.762284 0)
(2.95789 -0.762125 0)
(2.95672 -0.761787 0)
(2.9554 -0.761247 0)
(2.95389 -0.761129 0)
(2.95268 -0.760395 0)
(2.95159 -0.75901 0)
(2.95023 -0.759246 0)
(2.94867 -0.759368 0)
(2.94739 -0.757823 0)
(2.94548 -0.757489 0)
(2.94363 -0.757724 0)
(2.9421 -0.758168 0)
(2.94035 -0.757871 0)
(2.9382 -0.757022 0)
(2.93542 -0.756206 0)
(2.93248 -0.756602 0)
(2.92905 -0.757617 0)
(2.92567 -0.757522 0)
(2.92208 -0.758093 0)
(2.91683 -0.757025 0)
(2.90537 -0.757731 0)
(2.88016 -0.764217 0)
(2.84239 -0.766055 0)
(2.81256 -0.771421 0)
(2.80601 -0.772612 0)
(2.79529 -0.771067 0)
(2.78408 -0.767722 0)
(2.77488 -0.755345 0)
(2.76779 -0.754965 0)
(2.75678 -0.713548 0)
(2.96317 -0.71742 0)
(2.96309 -0.717323 0)
(2.96279 -0.716886 0)
(2.96249 -0.716597 0)
(2.9622 -0.716639 0)
(2.96201 -0.716849 0)
(2.96171 -0.716959 0)
(2.96095 -0.716804 0)
(2.9606 -0.716679 0)
(2.9603 -0.716611 0)
(2.95989 -0.716525 0)
(2.95933 -0.716341 0)
(2.95875 -0.716293 0)
(2.95821 -0.716162 0)
(2.95756 -0.715745 0)
(2.95698 -0.715464 0)
(2.95643 -0.715321 0)
(2.95572 -0.714657 0)
(2.95489 -0.713987 0)
(2.95435 -0.713309 0)
(2.95365 -0.712579 0)
(2.95291 -0.711745 0)
(2.95125 -0.710188 0)
(2.95024 -0.709549 0)
(2.94962 -0.70865 0)
(2.94897 -0.707435 0)
(2.94804 -0.706986 0)
(2.94685 -0.707032 0)
(2.94601 -0.706123 0)
(2.94525 -0.704772 0)
(2.94451 -0.704746 0)
(2.94352 -0.706296 0)
(2.94176 -0.706742 0)
(2.93947 -0.705723 0)
(2.93676 -0.704046 0)
(2.93382 -0.703494 0)
(2.93079 -0.705081 0)
(2.92719 -0.707448 0)
(2.92239 -0.709084 0)
(2.91397 -0.712906 0)
(2.89695 -0.716981 0)
(2.866 -0.722644 0)
(2.82946 -0.734442 0)
(2.81207 -0.740555 0)
(2.80817 -0.741208 0)
(2.80202 -0.737373 0)
(2.79737 -0.733036 0)
(2.792 -0.72305 0)
(2.78463 -0.696236 0)
(2.77691 -0.64821 0)
(2.96662 -0.709108 0)
(2.96638 -0.708847 0)
(2.9661 -0.708513 0)
(2.96601 -0.708417 0)
(2.96561 -0.708105 0)
(2.96527 -0.707905 0)
(2.96493 -0.707812 0)
(2.96432 -0.707531 0)
(2.96382 -0.707324 0)
(2.9635 -0.706966 0)
(2.96319 -0.706845 0)
(2.96275 -0.706446 0)
(2.96233 -0.705808 0)
(2.96201 -0.705608 0)
(2.9614 -0.705073 0)
(2.96089 -0.70453 0)
(2.9605 -0.703879 0)
(2.95952 -0.702987 0)
(2.95894 -0.701782 0)
(2.95886 -0.701135 0)
(2.95777 -0.699788 0)
(2.95687 -0.698317 0)
(2.95561 -0.69656 0)
(2.95422 -0.695432 0)
(2.9532 -0.694169 0)
(2.95257 -0.693444 0)
(2.95104 -0.692149 0)
(2.94987 -0.691283 0)
(2.94873 -0.690938 0)
(2.94738 -0.691073 0)
(2.94601 -0.691215 0)
(2.94457 -0.690568 0)
(2.94224 -0.68974 0)
(2.93923 -0.688068 0)
(2.93595 -0.686154 0)
(2.93288 -0.685264 0)
(2.92985 -0.686511 0)
(2.92585 -0.688894 0)
(2.91951 -0.691176 0)
(2.90884 -0.692142 0)
(2.88789 -0.695723 0)
(2.85287 -0.70506 0)
(2.82485 -0.712465 0)
(2.81635 -0.709483 0)
(2.81488 -0.705736 0)
(2.813 -0.69748 0)
(2.80522 -0.670356 0)
(2.79974 -0.644129 0)
(2.79507 -0.637303 0)
(2.78945 -0.589247 0)
(2.97454 -0.685933 0)
(2.97442 -0.685525 0)
(2.97416 -0.684909 0)
(2.97377 -0.684647 0)
(2.97353 -0.684663 0)
(2.97297 -0.684698 0)
(2.97225 -0.684268 0)
(2.97153 -0.683316 0)
(2.97129 -0.682766 0)
(2.97105 -0.682687 0)
(2.9705 -0.682062 0)
(2.96992 -0.681386 0)
(2.96941 -0.681108 0)
(2.96863 -0.680385 0)
(2.96795 -0.679582 0)
(2.96757 -0.679082 0)
(2.96705 -0.67879 0)
(2.96596 -0.677797 0)
(2.965 -0.676626 0)
(2.96425 -0.676118 0)
(2.96332 -0.675179 0)
(2.96186 -0.673343 0)
(2.9606 -0.671236 0)
(2.95911 -0.670056 0)
(2.95764 -0.669783 0)
(2.95684 -0.669744 0)
(2.95496 -0.669577 0)
(2.95317 -0.669293 0)
(2.95159 -0.669374 0)
(2.94986 -0.669799 0)
(2.9477 -0.670139 0)
(2.94547 -0.669575 0)
(2.94322 -0.66821 0)
(2.93978 -0.667344 0)
(2.93567 -0.667591 0)
(2.93164 -0.667049 0)
(2.92724 -0.667116 0)
(2.92172 -0.667264 0)
(2.91329 -0.670762 0)
(2.89881 -0.674267 0)
(2.8738 -0.67729 0)
(2.8424 -0.679062 0)
(2.82554 -0.670591 0)
(2.82221 -0.668262 0)
(2.81766 -0.656575 0)
(2.81557 -0.64095 0)
(2.8139 -0.644625 0)
(2.8139 -0.615717 0)
(2.81579 -0.598485 0)
(2.81539 -0.547794 0)
(2.99098 -0.676994 0)
(2.99081 -0.676817 0)
(2.99067 -0.676231 0)
(2.99046 -0.67601 0)
(2.98982 -0.676276 0)
(2.98878 -0.676139 0)
(2.98791 -0.675817 0)
(2.98761 -0.674929 0)
(2.98747 -0.674262 0)
(2.98695 -0.674268 0)
(2.98629 -0.674016 0)
(2.98567 -0.673543 0)
(2.98494 -0.673736 0)
(2.98445 -0.674018 0)
(2.9834 -0.67264 0)
(2.98259 -0.670849 0)
(2.98159 -0.670244 0)
(2.98026 -0.670737 0)
(2.97928 -0.670969 0)
(2.97804 -0.670045 0)
(2.97674 -0.668614 0)
(2.9752 -0.668033 0)
(2.97368 -0.668112 0)
(2.97208 -0.667437 0)
(2.97024 -0.66666 0)
(2.9684 -0.665939 0)
(2.96598 -0.66462 0)
(2.96357 -0.663612 0)
(2.96119 -0.662665 0)
(2.95877 -0.661136 0)
(2.95581 -0.659486 0)
(2.95266 -0.658123 0)
(2.94939 -0.656082 0)
(2.9452 -0.652825 0)
(2.94039 -0.65034 0)
(2.93482 -0.649696 0)
(2.92864 -0.647401 0)
(2.92067 -0.646318 0)
(2.90964 -0.643705 0)
(2.89107 -0.645541 0)
(2.86349 -0.650368 0)
(2.84308 -0.651228 0)
(2.83829 -0.650644 0)
(2.83228 -0.638258 0)
(2.83041 -0.630783 0)
(2.83346 -0.617592 0)
(2.83694 -0.590656 0)
(2.83922 -0.573661 0)
(2.84104 -0.552519 0)
(2.84203 -0.491733 0)
(3.00665 -0.641958 0)
(3.00629 -0.641608 0)
(3.00592 -0.641024 0)
(3.0055 -0.640778 0)
(3.00502 -0.64063 0)
(3.00432 -0.639764 0)
(3.00403 -0.638478 0)
(3.0037 -0.637875 0)
(3.00275 -0.638006 0)
(3.0018 -0.638201 0)
(3.00088 -0.637619 0)
(2.99961 -0.635947 0)
(2.99911 -0.634712 0)
(2.99834 -0.634244 0)
(2.99718 -0.634364 0)
(2.99613 -0.634374 0)
(2.99512 -0.633078 0)
(2.99311 -0.630912 0)
(2.99204 -0.629329 0)
(2.99079 -0.628943 0)
(2.98914 -0.627861 0)
(2.98665 -0.626646 0)
(2.98494 -0.625248 0)
(2.98276 -0.623487 0)
(2.98004 -0.621789 0)
(2.97768 -0.620347 0)
(2.97454 -0.619153 0)
(2.97178 -0.617548 0)
(2.96887 -0.615365 0)
(2.96512 -0.613683 0)
(2.96144 -0.611652 0)
(2.95736 -0.609247 0)
(2.95267 -0.607442 0)
(2.94767 -0.606312 0)
(2.94177 -0.605155 0)
(2.93504 -0.604449 0)
(2.9275 -0.606829 0)
(2.91843 -0.608771 0)
(2.90639 -0.611348 0)
(2.88984 -0.609603 0)
(2.87009 -0.601595 0)
(2.85943 -0.593921 0)
(2.85413 -0.584334 0)
(2.85039 -0.574144 0)
(2.85165 -0.551851 0)
(2.85555 -0.526545 0)
(2.85955 -0.506075 0)
(2.8596 -0.469425 0)
(2.86054 -0.445364 0)
(2.86267 -0.394181 0)
(3.01795 -0.583113 0)
(3.01771 -0.583393 0)
(3.01723 -0.583718 0)
(3.01646 -0.583491 0)
(3.01587 -0.583147 0)
(3.01572 -0.582707 0)
(3.01556 -0.582557 0)
(3.0141 -0.580832 0)
(3.01283 -0.578595 0)
(3.01262 -0.577111 0)
(3.0119 -0.57662 0)
(3.00972 -0.577316 0)
(3.00874 -0.57839 0)
(3.00835 -0.578656 0)
(3.00707 -0.577542 0)
(3.0053 -0.576103 0)
(3.00386 -0.574771 0)
(3.00235 -0.573265 0)
(3.00063 -0.572866 0)