/*--------------------------------*- C++ -*----------------------------------*\
  =========                 |
  \\      /  F ield         | OpenFOAM: The Open Source CFD Toolbox
   \\    /   O peration     | Website:  https://openfoam.org
    \\  /    A nd           | Version:  7
     \\/     M anipulation  |
\*---------------------------------------------------------------------------*/
FoamFile
{
    version     2.0;
    format      ascii;
    class       volVectorField;
    location    "6";
    object      U;
}
// * * * * * * * * * * * * * * * * * * * * * * * * * * * * * * * * * * * * * //

dimensions      [0 1 -1 0 0 0 0];

internalField   nonuniform List<vector> 
24000
(
(2.97195 -1.33568 0)
(2.87984 -1.10095 0)
(2.84006 -0.931492 0)
(2.83976 -0.889336 0)
(2.80773 -0.69977 0)
(2.81898 -0.54307 0)
(2.8459 -0.517352 0)
(2.83583 -0.381219 0)
(2.84716 -0.309018 0)
(2.84451 -0.188345 0)
(2.86191 -0.145242 0)
(2.84492 -0.0167787 0)
(2.85958 0.0199536 0)
(2.84694 0.122157 0)
(2.84933 0.136018 0)
(2.84355 0.183261 0)
(2.84154 0.180501 0)
(2.84239 0.162729 0)
(2.8425 0.162194 0)
(2.84589 0.156001 0)
(2.84679 0.142191 0)
(2.84255 0.12979 0)
(2.84014 0.122853 0)
(2.82929 0.10798 0)
(2.82908 0.105935 0)
(2.83555 0.113613 0)
(2.83685 0.116545 0)
(2.83875 0.114533 0)
(2.83883 0.112083 0)
(2.83672 0.0951667 0)
(2.84174 0.0881322 0)
(2.84677 0.0969685 0)
(2.85931 0.11291 0)
(2.86274 0.113232 0)
(2.86476 0.110295 0)
(2.86302 0.0864895 0)
(2.86846 0.096604 0)
(2.87322 0.102472 0)
(2.88243 0.103997 0)
(2.88744 0.103264 0)
(2.89093 0.100692 0)
(2.89558 0.0965824 0)
(2.90156 0.0976537 0)
(2.90684 0.0974745 0)
(2.91033 0.0918528 0)
(2.91263 0.0813841 0)
(2.91428 0.072621 0)
(2.91936 0.0617668 0)
(2.9212 0.0569309 0)
(2.9238 0.0507653 0)
(3.08253 -1.48417 0)
(3.08262 -1.48356 0)
(3.0827 -1.48343 0)
(3.08239 -1.48302 0)
(3.08196 -1.48259 0)
(3.08179 -1.48217 0)
(3.08133 -1.4815 0)
(3.08051 -1.48018 0)
(3.07496 -1.47016 0)
(3.06146 -1.43706 0)
(3.0395 -1.38252 0)
(3.00189 -1.25661 0)
(2.96636 -1.13245 0)
(2.91054 -0.891779 0)
(2.87887 -0.731939 0)
(2.81412 -0.448574 0)
(2.80548 -0.312589 0)
(2.76238 -0.12807 0)
(2.7476 -0.0179684 0)
(2.74849 0.0458962 0)
(2.73302 0.13609 0)
(2.7342 0.14136 0)
(2.72955 0.184297 0)
(2.73601 0.202177 0)
(2.75104 0.221603 0)
(2.75808 0.202344 0)
(2.75537 0.156701 0)
(2.76415 0.130771 0)
(2.76975 0.0850935 0)
(2.77897 0.0878285 0)
(2.79395 0.110715 0)
(2.79868 0.14811 0)
(2.8039 0.150823 0)
(2.79926 0.133503 0)
(2.79725 0.105152 0)
(2.8057 0.101938 0)
(2.81502 0.110636 0)
(2.82587 0.122135 0)
(2.83487 0.125471 0)
(2.83997 0.118175 0)
(2.84458 0.107955 0)
(2.85299 0.105013 0)
(2.86113 0.104463 0)
(2.8675 0.0963668 0)
(2.87229 0.0854758 0)
(2.87637 0.0802343 0)
(2.87936 0.0727254 0)
(2.88428 0.071973 0)
(2.88859 0.068093 0)
(2.89021 0.0492049 0)
(3.07563 -1.4794 0)
(3.07491 -1.47887 0)
(3.07401 -1.4785 0)
(3.07324 -1.47777 0)
(3.07199 -1.47686 0)
(3.07138 -1.47625 0)
(3.07078 -1.47582 0)
(3.06959 -1.47571 0)
(3.06914 -1.47504 0)
(3.06893 -1.47416 0)
(3.06832 -1.47412 0)
(3.0681 -1.47332 0)
(3.0671 -1.47389 0)
(3.06688 -1.47308 0)
(3.06584 -1.4747 0)
(3.06057 -1.46441 0)
(3.03959 -1.41194 0)
(2.98719 -1.28528 0)
(2.91578 -1.05745 0)
(2.85885 -0.843272 0)
(2.78286 -0.522024 0)
(2.78573 -0.401735 0)
(2.714 -0.138084 0)
(2.71605 -0.0722865 0)
(2.69164 0.0628726 0)
(2.69252 0.0663002 0)
(2.70049 0.0837107 0)
(2.71708 0.0826239 0)
(2.71693 0.086333 0)
(2.71762 0.1069 0)
(2.72463 0.108659 0)
(2.72653 0.106657 0)
(2.71998 0.0985888 0)
(2.71004 0.097664 0)
(2.7267 0.0908379 0)
(2.73691 0.0947972 0)
(2.75698 0.10195 0)
(2.76309 0.102168 0)
(2.76867 0.0970974 0)
(2.77226 0.0902759 0)
(2.78108 0.0924766 0)
(2.79173 0.0975307 0)
(2.80143 0.0971544 0)
(2.80857 0.0945924 0)
(2.81428 0.0853258 0)
(2.82022 0.0766436 0)
(2.82547 0.0709721 0)
(2.83037 0.0634657 0)
(2.83654 0.0544011 0)
(2.84078 0.0395047 0)
(3.06712 -1.47518 0)
(3.06672 -1.47504 0)
(3.06645 -1.47464 0)
(3.06612 -1.47422 0)
(3.06606 -1.474 0)
(3.06585 -1.474 0)
(3.06563 -1.47363 0)
(3.06525 -1.4733 0)
(3.06494 -1.4728 0)
(3.06428 -1.47312 0)
(3.06406 -1.473 0)
(3.0639 -1.47283 0)
(3.06358 -1.47269 0)
(3.06309 -1.47286 0)
(3.0626 -1.47315 0)
(3.0623 -1.4737 0)
(3.06228 -1.4739 0)
(3.06233 -1.47371 0)
(3.06223 -1.47353 0)
(3.06228 -1.47365 0)
(3.06056 -1.46832 0)
(3.04189 -1.42004 0)
(2.9743 -1.24033 0)
(2.90469 -1.0087 0)
(2.80279 -0.642756 0)
(2.74671 -0.374794 0)
(2.68718 -0.103063 0)
(2.66288 0.0877766 0)
(2.63205 0.18996 0)
(2.64144 0.216948 0)
(2.63866 0.190539 0)
(2.6594 0.138419 0)
(2.66084 0.0884629 0)
(2.669 0.0803131 0)
(2.68035 0.09429 0)
(2.68919 0.116572 0)
(2.70351 0.131347 0)
(2.70152 0.124683 0)
(2.70079 0.111374 0)
(2.70534 0.101094 0)
(2.71824 0.105202 0)
(2.72952 0.103256 0)
(2.73819 0.0965142 0)
(2.74452 0.0841465 0)
(2.75041 0.0777173 0)
(2.75699 0.0777052 0)
(2.76361 0.0729569 0)
(2.76918 0.0670144 0)
(2.77602 0.0621945 0)
(2.78318 0.047247 0)
(3.06357 -1.47181 0)
(3.06341 -1.47172 0)
(3.06332 -1.47159 0)
(3.06321 -1.4716 0)
(3.0631 -1.47157 0)
(3.06304 -1.47147 0)
(3.06267 -1.47196 0)
(3.06265 -1.47181 0)
(3.06269 -1.47164 0)
(3.06207 -1.47247 0)
(3.0619 -1.47315 0)
(3.06211 -1.47292 0)
(3.06181 -1.47329 0)
(3.06185 -1.47307 0)
(3.06167 -1.47349 0)
(3.06157 -1.4741 0)
(3.06164 -1.47454 0)
(3.06189 -1.47435 0)
(3.06207 -1.47395 0)
(3.06259 -1.47326 0)
(3.06305 -1.47312 0)
(3.06363 -1.47261 0)
(3.06373 -1.47268 0)
(3.0639 -1.47363 0)
(3.06414 -1.47475 0)
(3.04231 -1.41914 0)
(2.96111 -1.20123 0)
(2.86214 -0.824125 0)
(2.80288 -0.499411 0)
(2.74346 -0.190205 0)
(2.69078 -0.0425405 0)
(2.67358 0.0424473 0)
(2.67313 0.0588505 0)
(2.67574 0.0750767 0)
(2.66695 0.0942368 0)
(2.66456 0.111386 0)
(2.66392 0.114555 0)
(2.6602 0.106787 0)
(2.66542 0.0956929 0)
(2.67216 0.0934675 0)
(2.6838 0.0973884 0)
(2.68969 0.0991394 0)
(2.69244 0.0941304 0)
(2.69701 0.0852628 0)
(2.70321 0.0734823 0)
(2.7099 0.0702963 0)
(2.71565 0.0642903 0)
(2.72044 0.0562552 0)
(2.72657 0.0487573 0)
(2.73556 0.0361048 0)
(3.06093 -1.47243 0)
(3.06071 -1.47281 0)
(3.06071 -1.47276 0)
(3.06082 -1.47259 0)
(3.06037 -1.47297 0)
(3.06033 -1.47323 0)
(3.06 -1.47393 0)
(3.0599 -1.47431 0)
(3.06018 -1.47408 0)
(3.05969 -1.47483 0)
(3.0595 -1.47573 0)
(3.0597 -1.47555 0)
(3.05969 -1.47582 0)
(3.05997 -1.47535 0)
(3.06037 -1.47509 0)
(3.06087 -1.47511 0)
(3.06151 -1.47479 0)
(3.06206 -1.47437 0)
(3.06276 -1.47332 0)
(3.06297 -1.4724 0)
(3.0642 -1.47079 0)
(3.06433 -1.47027 0)
(3.06443 -1.47061 0)
(3.0644 -1.47232 0)
(3.06546 -1.47383 0)
(3.06569 -1.47641 0)
(3.06673 -1.47723 0)
(3.06508 -1.4801 0)
(3.05347 -1.44805 0)
(2.98379 -1.2342 0)
(2.83395 -0.697872 0)
(2.82711 -0.388899 0)
(2.69034 0.0243203 0)
(2.67376 0.0949282 0)
(2.6604 0.179719 0)
(2.64273 0.140707 0)
(2.64359 0.108284 0)
(2.65179 0.0997705 0)
(2.66271 0.0957915 0)
(2.66907 0.100419 0)
(2.6755 0.0980837 0)
(2.676 0.0953 0)
(2.67439 0.0852508 0)
(2.67598 0.081403 0)
(2.68295 0.0768385 0)
(2.68814 0.0732667 0)
(2.69166 0.0674932 0)
(2.69493 0.0591643 0)
(2.70007 0.0523742 0)
(2.70927 0.0392396 0)
(3.06005 -1.47357 0)
(3.0599 -1.47391 0)
(3.05987 -1.47435 0)
(3.05988 -1.4743 0)
(3.05971 -1.47436 0)
(3.05957 -1.47445 0)
(3.05962 -1.47452 0)
(3.05953 -1.47497 0)
(3.05974 -1.47494 0)
(3.05979 -1.4752 0)
(3.05996 -1.47562 0)
(3.06015 -1.47569 0)
(3.06059 -1.47559 0)
(3.06108 -1.47508 0)
(3.06197 -1.47433 0)
(3.06228 -1.47443 0)
(3.06306 -1.47375 0)
(3.06374 -1.47264 0)
(3.06374 -1.47138 0)
(3.06526 -1.4689 0)
(3.06547 -1.46818 0)
(3.06493 -1.46827 0)
(3.06445 -1.46859 0)
(3.06436 -1.47041 0)
(3.06478 -1.47472 0)
(3.06531 -1.47825 0)
(3.06469 -1.48149 0)
(3.06354 -1.48053 0)
(3.06139 -1.47834 0)
(3.06133 -1.47821 0)
(3.06342 -1.47923 0)
(3.04448 -1.40247 0)
(2.93824 -1.01779 0)
(2.88076 -0.635369 0)
(2.76839 -0.183779 0)
(2.75564 -0.0523535 0)
(2.69035 0.0590648 0)
(2.67509 0.078147 0)
(2.67528 0.0965199 0)
(2.67081 0.104564 0)
(2.66833 0.0994295 0)
(2.66739 0.0904973 0)
(2.66632 0.0775795 0)
(2.67336 0.0749729 0)
(2.67922 0.0732842 0)
(2.68314 0.0697133 0)
(2.68545 0.062052 0)
(2.68851 0.0520084 0)
(2.69317 0.0457651 0)
(2.70201 0.0346276 0)
(3.06119 -1.47287 0)
(3.06124 -1.47294 0)
(3.06126 -1.4733 0)
(3.06106 -1.47363 0)
(3.06081 -1.47399 0)
(3.06069 -1.47423 0)
(3.06073 -1.47438 0)
(3.06089 -1.47447 0)
(3.06104 -1.4745 0)
(3.06118 -1.47452 0)
(3.06185 -1.47488 0)
(3.06214 -1.47498 0)
(3.06211 -1.47475 0)
(3.06204 -1.47475 0)
(3.06316 -1.47438 0)
(3.06489 -1.47339 0)
(3.06562 -1.47233 0)
(3.06632 -1.47132 0)
(3.06638 -1.46899 0)
(3.06691 -1.46747 0)
(3.06623 -1.4667 0)
(3.06475 -1.46683 0)
(3.06308 -1.46849 0)
(3.06297 -1.47231 0)
(3.06316 -1.47916 0)
(3.06211 -1.48227 0)
(3.06177 -1.48307 0)
(3.06143 -1.48248 0)
(3.06095 -1.48072 0)
(3.06177 -1.48001 0)
(3.06481 -1.47746 0)
(3.06681 -1.47671 0)
(3.06528 -1.47594 0)
(3.06383 -1.47163 0)
(2.98204 -1.19653 0)
(2.91924 -0.728674 0)
(2.76416 -0.150313 0)
(2.74823 -0.0329154 0)
(2.70754 0.138139 0)
(2.66417 0.117387 0)
(2.6634 0.0998105 0)
(2.66737 0.0905991 0)
(2.6688 0.0714776 0)
(2.67835 0.0728029 0)
(2.68048 0.0696156 0)
(2.68311 0.0626538 0)
(2.68613 0.0535509 0)
(2.68903 0.0425064 0)
(2.69322 0.0378196 0)
(2.70143 0.0294254 0)
(3.06263 -1.47036 0)
(3.06255 -1.47054 0)
(3.06255 -1.47078 0)
(3.06258 -1.47101 0)
(3.0626 -1.47174 0)
(3.0626 -1.47248 0)
(3.06259 -1.47317 0)
(3.0625 -1.47386 0)
(3.06256 -1.47416 0)
(3.06286 -1.47485 0)
(3.06332 -1.47544 0)
(3.06385 -1.47528 0)
(3.06421 -1.47549 0)
(3.06489 -1.47597 0)
(3.06596 -1.47716 0)
(3.06722 -1.47551 0)
(3.06748 -1.47276 0)
(3.06726 -1.47253 0)
(3.06656 -1.47055 0)
(3.06648 -1.46811 0)
(3.06453 -1.46766 0)
(3.06213 -1.46968 0)
(3.06178 -1.47165 0)
(3.06131 -1.47784 0)
(3.06072 -1.48222 0)
(3.06016 -1.48321 0)
(3.05973 -1.48354 0)
(3.06029 -1.48277 0)
(3.06119 -1.48223 0)
(3.06373 -1.48085 0)
(3.06627 -1.47832 0)
(3.06692 -1.47468 0)
(3.06499 -1.47177 0)
(3.0628 -1.47194 0)
(3.06218 -1.47133 0)
(3.05659 -1.47617 0)
(2.9975 -1.28729 0)
(2.91773 -0.812523 0)
(2.80365 -0.266538 0)
(2.79141 -0.0840062 0)
(2.71117 0.0661146 0)
(2.68508 0.0841363 0)
(2.6951 0.0770087 0)
(2.7006 0.0764505 0)
(2.69074 0.0614979 0)
(2.69453 0.0575202 0)
(2.6977 0.0534885 0)
(2.69913 0.0469409 0)
(2.70143 0.0428373 0)
(2.70667 0.0336693 0)
(3.06479 -1.47064 0)
(3.06492 -1.4707 0)
(3.06505 -1.47096 0)
(3.06556 -1.47195 0)
(3.06604 -1.47247 0)
(3.06659 -1.47328 0)
(3.06693 -1.47425 0)
(3.06703 -1.47508 0)
(3.06661 -1.47656 0)
(3.06642 -1.47717 0)
(3.06637 -1.47793 0)
(3.06655 -1.47753 0)
(3.06657 -1.47705 0)
(3.06669 -1.47761 0)
(3.06677 -1.47895 0)
(3.06729 -1.47708 0)
(3.06734 -1.47488 0)
(3.06653 -1.47463 0)
(3.06516 -1.47406 0)
(3.06496 -1.47131 0)
(3.06036 -1.47419 0)
(3.05934 -1.47716 0)
(3.05983 -1.48114 0)
(3.05897 -1.48326 0)
(3.05935 -1.48346 0)
(3.05957 -1.48336 0)
(3.05995 -1.48237 0)
(3.06152 -1.48008 0)
(3.06213 -1.47995 0)
(3.06453 -1.47884 0)
(3.06572 -1.47588 0)
(3.0658 -1.47164 0)
(3.06365 -1.47026 0)
(3.05741 -1.46769 0)
(3.05115 -1.46748 0)
(3.04044 -1.46953 0)
(3.04611 -1.47157 0)
(3.05581 -1.45511 0)
(3.02785 -1.28014 0)
(2.95485 -0.77318 0)
(2.82211 -0.23918 0)
(2.77979 -0.0445971 0)
(2.74173 0.0469594 0)
(2.7232 0.0868235 0)
(2.71535 0.0661009 0)
(2.7248 0.0586151 0)
(2.72224 0.0453291 0)
(2.72239 0.0366206 0)
(2.72426 0.0348435 0)
(2.72572 0.0226459 0)
(3.06834 -1.46938 0)
(3.0677 -1.47102 0)
(3.06689 -1.47293 0)
(3.06731 -1.47423 0)
(3.06806 -1.47631 0)
(3.06846 -1.4772 0)
(3.069 -1.47664 0)
(3.06881 -1.47706 0)
(3.06743 -1.47866 0)
(3.06672 -1.47976 0)
(3.06631 -1.48008 0)
(3.06616 -1.47955 0)
(3.06573 -1.47972 0)
(3.06543 -1.4803 0)
(3.06464 -1.48054 0)
(3.06429 -1.48052 0)
(3.06394 -1.4793 0)
(3.06159 -1.47925 0)
(3.05884 -1.482 0)
(3.0602 -1.47962 0)
(3.06029 -1.48122 0)
(3.05966 -1.48424 0)
(3.05945 -1.48501 0)
(3.0594 -1.48572 0)
(3.06011 -1.48376 0)
(3.06121 -1.47932 0)
(3.06249 -1.47462 0)
(3.06315 -1.47167 0)
(3.06176 -1.47253 0)
(3.06377 -1.47245 0)
(3.06499 -1.47243 0)
(3.05993 -1.46762 0)
(3.05711 -1.45888 0)
(3.05165 -1.45413 0)
(3.0488 -1.45539 0)
(3.05527 -1.44588 0)
(3.06514 -1.44394 0)
(3.07718 -1.42734 0)
(3.08465 -1.40411 0)
(3.08364 -1.40305 0)
(3.03876 -1.22929 0)
(2.94367 -0.697406 0)
(2.87045 -0.295111 0)
(2.79109 -0.0183951 0)
(2.75514 0.0387297 0)
(2.76026 0.0767845 0)
(2.75489 0.048115 0)
(2.75818 0.0384282 0)
(2.75907 0.0265512 0)
(2.75819 0.0280743 0)
(3.06287 -1.48061 0)
(3.06284 -1.482 0)
(3.06358 -1.48212 0)
(3.06352 -1.48354 0)
(3.06394 -1.4855 0)
(3.06553 -1.48555 0)
(3.06805 -1.48514 0)
(3.06801 -1.48648 0)
(3.06468 -1.48943 0)
(3.06292 -1.49088 0)
(3.06143 -1.48747 0)
(3.05927 -1.48245 0)
(3.05873 -1.48186 0)
(3.05839 -1.48189 0)
(3.05804 -1.4818 0)
(3.05782 -1.48081 0)
(3.05843 -1.4789 0)
(3.05922 -1.47635 0)
(3.05984 -1.4788 0)
(3.05947 -1.48348 0)
(3.05934 -1.48556 0)
(3.06198 -1.48648 0)
(3.06597 -1.48353 0)
(3.06397 -1.48196 0)
(3.05924 -1.47884 0)
(3.06048 -1.47032 0)
(3.0641 -1.46293 0)
(3.06471 -1.46026 0)
(3.06362 -1.45711 0)
(3.06138 -1.4541 0)
(3.05746 -1.44624 0)
(3.05055 -1.44624 0)
(3.05205 -1.43583 0)
(3.0587 -1.43013 0)
(3.06738 -1.43515 0)
(3.07707 -1.41632 0)
(3.08411 -1.39514 0)
(3.09006 -1.38556 0)
(3.09011 -1.36906 0)
(3.08657 -1.35594 0)
(3.08496 -1.36263 0)
(3.08836 -1.3488 0)
(3.05801 -1.14547 0)
(2.93411 -0.549075 0)
(2.91601 -0.262965 0)
(2.8215 -0.005934 0)
(2.78502 0.0330426 0)
(2.78741 0.0661796 0)
(2.78859 0.0433109 0)
(2.79283 0.0181132 0)
(3.0594 -1.48545 0)
(3.0603 -1.4855 0)
(3.06057 -1.48638 0)
(3.06046 -1.48751 0)
(3.06113 -1.48785 0)
(3.06306 -1.48785 0)
(3.06476 -1.48543 0)
(3.06473 -1.48452 0)
(3.06372 -1.48443 0)
(3.06177 -1.48119 0)
(3.05898 -1.47796 0)
(3.05842 -1.47523 0)
(3.05803 -1.47328 0)
(3.05766 -1.47299 0)
(3.05694 -1.47235 0)
(3.05685 -1.47239 0)
(3.05721 -1.47281 0)
(3.05765 -1.47318 0)
(3.05893 -1.47441 0)
(3.06175 -1.47564 0)
(3.06514 -1.47777 0)
(3.06756 -1.47909 0)
(3.07268 -1.47119 0)
(3.07384 -1.46004 0)
(3.06635 -1.4481 0)
(3.06556 -1.43347 0)
(3.06266 -1.4275 0)
(3.06085 -1.41789 0)
(3.05835 -1.41351 0)
(3.05761 -1.41166 0)
(3.06099 -1.40429 0)
(3.06211 -1.41529 0)
(3.07005 -1.40345 0)
(3.08089 -1.3952 0)
(3.08535 -1.3875 0)
(3.0933 -1.3788 0)
(3.09578 -1.35024 0)
(3.09611 -1.33495 0)
(3.08967 -1.3292 0)
(3.08625 -1.33642 0)
(3.09295 -1.32863 0)
(3.10148 -1.29949 0)
(3.10751 -1.27775 0)
(3.10834 -1.26589 0)
(3.07205 -1.02297 0)
(2.94029 -0.465003 0)
(2.94785 -0.209941 0)
(2.85072 0.0288508 0)
(2.8079 0.0290579 0)
(2.83469 0.0535619 0)
(3.05524 -1.49521 0)
(3.05599 -1.49451 0)
(3.05732 -1.49376 0)
(3.05589 -1.48809 0)
(3.05611 -1.48519 0)
(3.05597 -1.48376 0)
(3.05515 -1.48264 0)
(3.05458 -1.48045 0)
(3.05671 -1.47513 0)
(3.05848 -1.47009 0)
(3.05694 -1.46423 0)
(3.05876 -1.45815 0)
(3.06218 -1.45331 0)
(3.06224 -1.44922 0)
(3.06191 -1.44551 0)
(3.06303 -1.44192 0)
(3.06379 -1.439 0)
(3.06324 -1.43692 0)
(3.06473 -1.43302 0)
(3.06805 -1.43268 0)
(3.0674 -1.42212 0)
(3.06828 -1.41176 0)
(3.06935 -1.40417 0)
(3.07042 -1.39218 0)
(3.06778 -1.38927 0)
(3.06893 -1.37994 0)
(3.06655 -1.38261 0)
(3.07064 -1.37695 0)
(3.0726 -1.37954 0)
(3.0747 -1.38017 0)
(3.07889 -1.37574 0)
(3.08603 -1.37594 0)
(3.09314 -1.36194 0)
(3.09755 -1.34978 0)
(3.09805 -1.32624 0)
(3.10183 -1.30888 0)
(3.09895 -1.30208 0)
(3.09426 -1.2984 0)
(3.09241 -1.30104 0)
(3.1029 -1.2864 0)
(3.10707 -1.25501 0)
(3.11529 -1.23722 0)
(3.11727 -1.22461 0)
(3.11597 -1.20681 0)
(3.11212 -1.21469 0)
(3.10093 -1.16742 0)
(3.0737 -0.846846 0)
(2.95868 -0.333786 0)
(2.96331 -0.14693 0)
(2.87715 0.0184379 0)
(3.07537 -1.34856 0)
(3.07494 -1.34496 0)
(3.07334 -1.34199 0)
(3.07233 -1.34172 0)
(3.07185 -1.3417 0)
(3.07057 -1.34329 0)
(3.0696 -1.34879 0)
(3.06946 -1.34713 0)
(3.06937 -1.34438 0)
(3.06974 -1.34219 0)
(3.07068 -1.33931 0)
(3.07051 -1.33858 0)
(3.07153 -1.33373 0)
(3.07233 -1.33272 0)
(3.07413 -1.33067 0)
(3.07521 -1.32899 0)
(3.07776 -1.3254 0)
(3.07471 -1.33502 0)
(3.07672 -1.34031 0)
(3.07791 -1.34647 0)
(3.0797 -1.34843 0)
(3.08099 -1.3492 0)
(3.0815 -1.35151 0)
(3.08517 -1.3463 0)
(3.08346 -1.35053 0)
(3.08527 -1.34635 0)
(3.0869 -1.3458 0)
(3.08714 -1.34741 0)
(3.09208 -1.33984 0)
(3.09406 -1.33491 0)
(3.10146 -1.32438 0)
(3.10542 -1.30971 0)
(3.10661 -1.29022 0)
(3.10925 -1.26762 0)
(3.10556 -1.2579 0)
(3.09901 -1.26326 0)
(3.10173 -1.25083 0)
(3.10137 -1.2557 0)
(3.11232 -1.24695 0)
(3.11334 -1.22001 0)
(3.12007 -1.20157 0)
(3.12216 -1.19302 0)
(3.12007 -1.18254 0)
(3.11157 -1.18835 0)
(3.11284 -1.16951 0)
(3.1222 -1.15905 0)
(3.12216 -1.14475 0)
(3.10197 -1.02819 0)
(3.08455 -0.704184 0)
(2.9417 -0.152061 0)
(3.07278 -1.37377 0)
(3.0732 -1.37229 0)
(3.07417 -1.3703 0)
(3.07503 -1.36713 0)
(3.07607 -1.36325 0)
(3.07672 -1.36124 0)
(3.0745 -1.36277 0)
(3.07346 -1.36441 0)
(3.07458 -1.36583 0)
(3.0765 -1.3658 0)
(3.07775 -1.36139 0)
(3.07791 -1.35773 0)
(3.07758 -1.35655 0)
(3.07946 -1.34921 0)
(3.08061 -1.34642 0)
(3.08142 -1.34385 0)
(3.08355 -1.33923 0)
(3.08408 -1.33892 0)
(3.08485 -1.34261 0)
(3.08706 -1.34095 0)
(3.08807 -1.33522 0)
(3.08887 -1.3287 0)
(3.09212 -1.32234 0)
(3.09671 -1.32083 0)
(3.09642 -1.31157 0)
(3.10033 -1.30277 0)
(3.1092 -1.29236 0)
(3.10651 -1.27108 0)
(3.10975 -1.25693 0)
(3.11266 -1.24206 0)
(3.11439 -1.22321 0)
(3.11329 -1.21469 0)
(3.11079 -1.2124 0)
(3.11099 -1.20664 0)
(3.10705 -1.21335 0)
(3.10863 -1.21419 0)
(3.1147 -1.20178 0)
(3.12361 -1.18578 0)
(3.12325 -1.16918 0)
(3.12775 -1.15747 0)
(3.12568 -1.15528 0)
(3.12383 -1.13746 0)
(3.11825 -1.13332 0)
(3.11746 -1.12799 0)
(3.12166 -1.12205 0)
(3.12391 -1.09393 0)
(3.12737 -1.08639 0)
(3.12801 -1.08352 0)
(3.12677 -1.08202 0)
(3.05869 -0.663284 0)
(3.10831 -1.21963 0)
(3.10873 -1.2208 0)
(3.1097 -1.22342 0)
(3.11068 -1.22503 0)
(3.11023 -1.22276 0)
(3.1106 -1.22004 0)
(3.11161 -1.21851 0)
(3.11156 -1.21882 0)
(3.11165 -1.21974 0)
(3.11167 -1.22251 0)
(3.11201 -1.2254 0)
(3.1129 -1.22392 0)
(3.1132 -1.22454 0)
(3.11443 -1.22436 0)
(3.11343 -1.21919 0)
(3.11539 -1.21578 0)
(3.11897 -1.2126 0)
(3.11669 -1.20402 0)
(3.11808 -1.19303 0)
(3.12008 -1.18804 0)
(3.11957 -1.1773 0)
(3.11884 -1.166 0)
(3.11951 -1.15903 0)
(3.12037 -1.15618 0)
(3.12152 -1.15573 0)
(3.12267 -1.15321 0)
(3.12249 -1.15055 0)
(3.12043 -1.15172 0)
(3.11878 -1.15199 0)
(3.11567 -1.16013 0)
(3.11927 -1.15354 0)
(3.11715 -1.16258 0)
(3.11842 -1.1552 0)
(3.12077 -1.15705 0)
(3.12368 -1.14922 0)
(3.12549 -1.14408 0)
(3.1315 -1.13393 0)
(3.13215 -1.11281 0)
(3.13113 -1.10503 0)
(3.12975 -1.09461 0)
(3.1238 -1.09537 0)
(3.12001 -1.09234 0)
(3.11964 -1.09086 0)
(3.12415 -1.08278 0)
(3.12717 -1.06492 0)
(3.12934 -1.0575 0)
(3.13119 -1.05753 0)
(3.12922 -1.04116 0)
(3.12681 -1.02807 0)
(3.12613 -1.0204 0)
(3.12078 -1.15643 0)
(3.12122 -1.15542 0)
(3.12132 -1.15538 0)
(3.12141 -1.15667 0)
(3.12278 -1.15723 0)
(3.12192 -1.15542 0)
(3.1217 -1.15268 0)
(3.12258 -1.14993 0)
(3.12304 -1.14956 0)
(3.12391 -1.14911 0)
(3.1232 -1.14615 0)
(3.12364 -1.14323 0)
(3.1235 -1.14264 0)
(3.12336 -1.14145 0)
(3.12352 -1.13762 0)
(3.1236 -1.13515 0)
(3.12207 -1.13637 0)
(3.12144 -1.13613 0)
(3.12046 -1.13655 0)
(3.1192 -1.13767 0)
(3.11851 -1.13919 0)
(3.11829 -1.14111 0)
(3.11844 -1.14357 0)
(3.11938 -1.13893 0)
(3.1196 -1.13915 0)
(3.12019 -1.13322 0)
(3.1208 -1.12858 0)
(3.12119 -1.1273 0)
(3.12144 -1.12067 0)
(3.12398 -1.11876 0)
(3.12679 -1.11637 0)
(3.12972 -1.10888 0)
(3.12943 -1.09916 0)
(3.13567 -1.08458 0)
(3.13492 -1.07173 0)
(3.13456 -1.05266 0)
(3.1336 -1.04573 0)
(3.1327 -1.03845 0)
(3.12711 -1.0455 0)
(3.12539 -1.04217 0)
(3.12495 -1.04298 0)
(3.12655 -1.03957 0)
(3.13069 -1.0254 0)
(3.13166 -1.00867 0)
(3.13432 -1.00223 0)
(3.13562 -1.00274 0)
(3.133 -0.987322 0)
(3.13069 -0.981677 0)
(3.12853 -0.98671 0)
(3.12983 -0.976134 0)
(3.1331 -1.04638 0)
(3.13299 -1.04506 0)
(3.13337 -1.04373 0)
(3.13366 -1.04086 0)
(3.13366 -1.03829 0)
(3.13348 -1.03827 0)
(3.13343 -1.03935 0)
(3.13413 -1.0411 0)
(3.13428 -1.0397 0)
(3.13412 -1.03904 0)
(3.13386 -1.03867 0)
(3.13367 -1.03899 0)
(3.13371 -1.03872 0)
(3.13384 -1.03634 0)
(3.13396 -1.03543 0)
(3.13484 -1.03668 0)
(3.13487 -1.03473 0)
(3.13488 -1.03149 0)
(3.1365 -1.02982 0)
(3.13669 -1.02587 0)
(3.13624 -1.02097 0)
(3.13744 -1.01703 0)
(3.13804 -1.0137 0)
(3.13772 -1.00949 0)
(3.13773 -1.0045 0)
(3.138 -1.00399 0)
(3.13942 -1.0029 0)
(3.14024 -0.997771 0)
(3.13803 -0.991275 0)
(3.13816 -0.982667 0)
(3.1395 -0.979384 0)
(3.1397 -0.974539 0)
(3.13817 -0.972421 0)
(3.13688 -0.970937 0)
(3.13438 -0.974894 0)
(3.13343 -0.974688 0)
(3.13133 -0.979014 0)
(3.13003 -0.979064 0)
(3.13115 -0.980637 0)
(3.13251 -0.975377 0)
(3.13485 -0.969326 0)
(3.13563 -0.964218 0)
(3.13631 -0.952281 0)
(3.13591 -0.94949 0)
(3.13468 -0.950222 0)
(3.13405 -0.941939 0)
(3.13154 -0.942133 0)
(3.13219 -0.943665 0)
(3.13235 -0.934105 0)
(3.13386 -0.926693 0)
(3.14004 -0.934421 0)
(3.13988 -0.935142 0)
(3.14016 -0.936047 0)
(3.14026 -0.937749 0)
(3.14008 -0.93809 0)
(3.13999 -0.937424 0)
(3.14043 -0.936012 0)
(3.14074 -0.9339 0)
(3.14036 -0.933563 0)
(3.14024 -0.934076 0)
(3.14037 -0.934415 0)
(3.1403 -0.933497 0)
(3.14036 -0.933025 0)
(3.1404 -0.933235 0)
(3.14032 -0.932415 0)
(3.14027 -0.931818 0)
(3.14024 -0.931511 0)
(3.14024 -0.93107 0)
(3.14013 -0.93064 0)
(3.13983 -0.930677 0)
(3.13966 -0.930289 0)
(3.13967 -0.929446 0)
(3.13949 -0.930042 0)
(3.13955 -0.929763 0)
(3.13958 -0.928899 0)
(3.13949 -0.92747 0)
(3.13929 -0.926032 0)
(3.13845 -0.925549 0)
(3.13705 -0.926666 0)
(3.13627 -0.928256 0)
(3.13634 -0.928087 0)
(3.1364 -0.927079 0)
(3.13604 -0.926378 0)
(3.13496 -0.925686 0)
(3.13515 -0.925348 0)
(3.1352 -0.922972 0)
(3.13613 -0.918942 0)
(3.13583 -0.915829 0)
(3.13791 -0.90943 0)
(3.13739 -0.905648 0)
(3.13773 -0.897184 0)
(3.13724 -0.894824 0)
(3.13582 -0.894557 0)
(3.13444 -0.896517 0)
(3.1344 -0.893792 0)
(3.13391 -0.893219 0)
(3.13435 -0.892722 0)
(3.13506 -0.890639 0)
(3.13452 -0.89031 0)
(3.13473 -0.885578 0)
(3.14136 -0.85149 0)
(3.14162 -0.851013 0)
(3.14156 -0.849436 0)
(3.14124 -0.848599 0)
(3.14138 -0.848718 0)
(3.14118 -0.849356 0)
(3.14136 -0.850208 0)
(3.14158 -0.850346 0)
(3.14135 -0.849554 0)
(3.1411 -0.848868 0)
(3.14098 -0.848796 0)
(3.141 -0.84897 0)
(3.14106 -0.849083 0)
(3.14094 -0.848938 0)
(3.14087 -0.848849 0)
(3.14079 -0.84876 0)
(3.1408 -0.848546 0)
(3.14088 -0.84841 0)
(3.14093 -0.848398 0)
(3.14081 -0.848339 0)
(3.14078 -0.848307 0)
(3.14073 -0.848239 0)
(3.14076 -0.847936 0)
(3.14067 -0.847454 0)
(3.14027 -0.847199 0)
(3.13965 -0.847356 0)
(3.13937 -0.847465 0)
(3.13877 -0.847087 0)
(3.1387 -0.846886 0)
(3.1389 -0.846375 0)
(3.13913 -0.845616 0)
(3.13921 -0.844463 0)
(3.13885 -0.843365 0)
(3.13794 -0.843348 0)
(3.13769 -0.842143 0)
(3.13756 -0.840748 0)
(3.13685 -0.839586 0)
(3.13667 -0.839492 0)
(3.13628 -0.840061 0)
(3.13604 -0.840619 0)
(3.13563 -0.841931 0)
(3.13522 -0.843863 0)
(3.13537 -0.844113 0)
(3.13568 -0.844519 0)
(3.13584 -0.844243 0)
(3.13594 -0.843826 0)
(3.13595 -0.84271 0)
(3.13573 -0.842312 0)
(3.13528 -0.842457 0)
(3.13636 -0.842324 0)
(3.13981 -0.807305 0)
(3.1398 -0.80753 0)
(3.13961 -0.807837 0)
(3.13959 -0.807966 0)
(3.13955 -0.807926 0)
(3.13946 -0.807812 0)
(3.13932 -0.807795 0)
(3.13916 -0.807781 0)
(3.13907 -0.807835 0)
(3.13902 -0.807841 0)
(3.13887 -0.807667 0)
(3.13881 -0.807419 0)
(3.13875 -0.80735 0)
(3.13867 -0.807341 0)
(3.13863 -0.807451 0)
(3.13864 -0.807625 0)
(3.13864 -0.807733 0)
(3.13857 -0.807854 0)
(3.13821 -0.807842 0)
(3.13814 -0.807806 0)
(3.13798 -0.807867 0)
(3.13788 -0.807815 0)
(3.13813 -0.807263 0)
(3.13811 -0.806681 0)
(3.13797 -0.806655 0)
(3.13749 -0.807207 0)
(3.13717 -0.807347 0)
(3.13656 -0.807719 0)
(3.13623 -0.808559 0)
(3.13622 -0.808678 0)
(3.13627 -0.80847 0)
(3.13638 -0.807937 0)
(3.13646 -0.807871 0)
(3.13636 -0.808142 0)
(3.13613 -0.808484 0)
(3.13592 -0.808504 0)
(3.13576 -0.808377 0)
(3.13578 -0.808505 0)
(3.1359 -0.80861 0)
(3.13613 -0.808689 0)
(3.1363 -0.8089 0)
(3.13639 -0.808542 0)
(3.1363 -0.808789 0)
(3.1363 -0.808448 0)
(3.13621 -0.808843 0)
(3.13608 -0.809211 0)
(3.13579 -0.809848 0)
(3.13557 -0.811134 0)
(3.13668 -0.811774 0)
(3.13881 -0.811395 0)
(3.13691 -0.797067 0)
(3.13688 -0.797143 0)
(3.1367 -0.797298 0)
(3.13662 -0.797382 0)
(3.1366 -0.797373 0)
(3.13648 -0.797334 0)
(3.13624 -0.797552 0)
(3.13619 -0.797711 0)
(3.13613 -0.797827 0)
(3.13614 -0.798137 0)
(3.13623 -0.798349 0)
(3.13645 -0.79875 0)
(3.13671 -0.79947 0)
(3.13663 -0.799893 0)
(3.13657 -0.800263 0)
(3.1366 -0.800312 0)
(3.13641 -0.800496 0)
(3.13604 -0.801114 0)
(3.13583 -0.801005 0)
(3.13559 -0.799804 0)
(3.13551 -0.799363 0)
(3.13545 -0.799215 0)
(3.1356 -0.798559 0)
(3.13568 -0.798112 0)
(3.13598 -0.79815 0)
(3.13617 -0.798496 0)
(3.1361 -0.799243 0)
(3.13602 -0.800369 0)
(3.13616 -0.800818 0)
(3.13518 -0.799996 0)
(3.13503 -0.798771 0)
(3.13499 -0.798361 0)
(3.13569 -0.798817 0)
(3.13599 -0.79898 0)
(3.13602 -0.798855 0)
(3.13582 -0.798542 0)
(3.13573 -0.798375 0)
(3.13572 -0.798183 0)
(3.13591 -0.798222 0)
(3.13617 -0.798461 0)
(3.1363 -0.798644 0)
(3.13608 -0.798599 0)
(3.13593 -0.798618 0)
(3.13592 -0.798762 0)
(3.13609 -0.799476 0)
(3.13655 -0.800215 0)
(3.13654 -0.800759 0)
(3.13748 -0.801368 0)
(3.13838 -0.801109 0)
(3.14048 -0.800038 0)
(3.13448 -0.796051 0)
(3.13474 -0.796301 0)
(3.13498 -0.796434 0)
(3.13501 -0.796898 0)
(3.13496 -0.797415 0)
(3.13503 -0.797419 0)
(3.13485 -0.797996 0)
(3.13471 -0.798825 0)
(3.13461 -0.799492 0)
(3.1352 -0.80011 0)
(3.13538 -0.800738 0)
(3.13556 -0.801089 0)
(3.1357 -0.801298 0)
(3.13522 -0.801455 0)
(3.13455 -0.801749 0)
(3.1342 -0.801928 0)
(3.13363 -0.801688 0)
(3.13365 -0.801295 0)
(3.13385 -0.800719 0)
(3.13408 -0.800367 0)
(3.1341 -0.799778 0)
(3.13347 -0.798879 0)
(3.13337 -0.798262 0)
(3.13347 -0.798144 0)
(3.134 -0.798567 0)
(3.13504 -0.799594 0)
(3.13597 -0.800102 0)
(3.13729 -0.800396 0)
(3.13729 -0.799778 0)
(3.13563 -0.798751 0)
(3.13467 -0.798426 0)
(3.13431 -0.798411 0)
(3.1351 -0.798358 0)
(3.13603 -0.798371 0)
(3.13631 -0.798167 0)
(3.13616 -0.797923 0)
(3.13605 -0.797931 0)
(3.13593 -0.797913 0)
(3.13596 -0.797875 0)
(3.13606 -0.79788 0)
(3.13608 -0.798288 0)
(3.13594 -0.798866 0)
(3.13556 -0.799861 0)
(3.13584 -0.800906 0)
(3.13657 -0.801962 0)
(3.1378 -0.802538 0)
(3.13838 -0.80235 0)
(3.13961 -0.801611 0)
(3.14126 -0.799243 0)
(3.14256 -0.798227 0)
(3.13596 -0.798873 0)
(3.13599 -0.798991 0)
(3.13593 -0.799329 0)
(3.13651 -0.799246 0)
(3.13714 -0.797685 0)
(3.13743 -0.797115 0)
(3.13738 -0.796392 0)
(3.13721 -0.795124 0)
(3.13832 -0.793134 0)
(3.13916 -0.789694 0)
(3.1386 -0.787789 0)
(3.13743 -0.784634 0)
(3.13585 -0.781035 0)
(3.13534 -0.780052 0)
(3.13484 -0.779883 0)
(3.13358 -0.780719 0)
(3.13282 -0.781783 0)
(3.13239 -0.78186 0)
(3.13148 -0.781462 0)
(3.13204 -0.783674 0)
(3.13285 -0.785793 0)
(3.1327 -0.786867 0)
(3.13237 -0.789103 0)
(3.13234 -0.793177 0)
(3.13347 -0.796048 0)
(3.13555 -0.796508 0)
(3.13618 -0.790854 0)
(3.13653 -0.784195 0)
(3.13595 -0.781659 0)
(3.13518 -0.781592 0)
(3.13562 -0.787418 0)
(3.13593 -0.79131 0)
(3.1349 -0.791133 0)
(3.13381 -0.788334 0)
(3.13497 -0.786731 0)
(3.1357 -0.788457 0)
(3.1371 -0.79082 0)
(3.13764 -0.791417 0)
(3.1369 -0.792357 0)
(3.13711 -0.793214 0)
(3.13757 -0.794633 0)
(3.138 -0.795713 0)
(3.13837 -0.796214 0)
(3.13966 -0.796259 0)
(3.14079 -0.796032 0)
(3.14208 -0.795378 0)
(3.14332 -0.794469 0)
(3.14541 -0.791831 0)
(3.14584 -0.789426 0)
(3.1437 -0.790564 0)
(3.13518 -0.76885 0)
(3.13473 -0.771371 0)
(3.13444 -0.772586 0)
(3.13437 -0.772869 0)
(3.13481 -0.772952 0)
(3.13519 -0.772678 0)
(3.13503 -0.774347 0)
(3.13484 -0.776979 0)
(3.13558 -0.777562 0)
(3.13598 -0.777058 0)
(3.13583 -0.776167 0)
(3.13535 -0.775292 0)
(3.13547 -0.775151 0)
(3.13501 -0.77585 0)
(3.13469 -0.778076 0)
(3.13566 -0.779791 0)
(3.13615 -0.780015 0)
(3.13728 -0.779999 0)
(3.13875 -0.781182 0)
(3.13838 -0.781852 0)
(3.1377 -0.780352 0)
(3.1373 -0.775724 0)
(3.13801 -0.773041 0)
(3.13627 -0.769611 0)
(3.13546 -0.769585 0)
(3.135 -0.771578 0)
(3.13588 -0.774111 0)
(3.13556 -0.779407 0)
(3.13695 -0.782959 0)
(3.13774 -0.783438 0)
(3.13763 -0.782922 0)
(3.13773 -0.780214 0)
(3.13818 -0.778833 0)
(3.1378 -0.779688 0)
(3.13763 -0.783006 0)
(3.13792 -0.784152 0)
(3.13858 -0.78413 0)
(3.13891 -0.784189 0)
(3.13912 -0.784319 0)
(3.13999 -0.783834 0)
(3.14103 -0.783644 0)
(3.14256 -0.781974 0)
(3.14323 -0.78112 0)
(3.14389 -0.779028 0)
(3.14366 -0.777433 0)
(3.14379 -0.775011 0)
(3.14185 -0.773614 0)
(3.14045 -0.775151 0)
(3.13809 -0.778738 0)
(3.13558 -0.7859 0)
(3.13739 -0.729473 0)
(3.13735 -0.728942 0)
(3.13755 -0.728106 0)
(3.13733 -0.727258 0)
(3.13737 -0.726825 0)
(3.13761 -0.727146 0)
(3.13753 -0.727952 0)
(3.13796 -0.728368 0)
(3.13872 -0.727485 0)
(3.13873 -0.725338 0)
(3.1382 -0.724678 0)
(3.13787 -0.725076 0)
(3.13873 -0.72487 0)
(3.13914 -0.724207 0)
(3.13909 -0.722387 0)
(3.13833 -0.721918 0)
(3.13832 -0.721186 0)
(3.13858 -0.720524 0)
(3.13852 -0.720208 0)
(3.13755 -0.721316 0)
(3.13645 -0.72371 0)
(3.13553 -0.728402 0)
(3.13687 -0.731529 0)
(3.13834 -0.732736 0)
(3.13871 -0.733115 0)
(3.13951 -0.7337 0)
(3.14169 -0.73132 0)
(3.14137 -0.72697 0)
(3.13932 -0.724081 0)
(3.13762 -0.72289 0)
(3.13799 -0.726676 0)
(3.13965 -0.730484 0)
(3.14063 -0.731186 0)
(3.14106 -0.729387 0)
(3.14051 -0.72613 0)
(3.13965 -0.725991 0)
(3.13907 -0.727728 0)
(3.13925 -0.727259 0)
(3.13941 -0.726769 0)
(3.13947 -0.727583 0)
(3.13909 -0.728315 0)
(3.13875 -0.72909 0)
(3.13857 -0.729697 0)
(3.13767 -0.731786 0)
(3.13646 -0.735934 0)
(3.13682 -0.739832 0)
(3.13593 -0.745767 0)
(3.13665 -0.751261 0)
(3.13605 -0.756462 0)
(3.13878 -0.756493 0)
(3.13403 -0.639748 0)
(3.13428 -0.640105 0)
(3.13451 -0.641855 0)
(3.13358 -0.645353 0)
(3.1335 -0.645797 0)
(3.13338 -0.64537 0)
(3.13367 -0.645901 0)
(3.13368 -0.647036 0)
(3.13348 -0.647555 0)
(3.13363 -0.64719 0)
(3.13368 -0.647193 0)
(3.13387 -0.64807 0)
(3.13406 -0.649319 0)
(3.13361 -0.650865 0)
(3.13333 -0.651855 0)
(3.13392 -0.651939 0)
(3.13397 -0.651623 0)
(3.13383 -0.651401 0)
(3.13387 -0.650559 0)
(3.13415 -0.650637 0)
(3.13475 -0.651509 0)
(3.1354 -0.651941 0)
(3.13542 -0.652218 0)
(3.1352 -0.651449 0)
(3.13456 -0.650571 0)
(3.13412 -0.652713 0)
(3.13458 -0.655867 0)
(3.13442 -0.66107 0)
(3.13314 -0.663643 0)