/*--------------------------------*- C++ -*----------------------------------*\
  =========                 |
  \\      /  F ield         | OpenFOAM: The Open Source CFD Toolbox
   \\    /   O peration     | Website:  https://openfoam.org
    \\  /    A nd           | Version:  7
     \\/     M anipulation  |
\*---------------------------------------------------------------------------*/
FoamFile
{
    version     2.0;
    format      ascii;
    class       volScalarField;
    location    "8";
    object      T;
}
// * * * * * * * * * * * * * * * * * * * * * * * * * * * * * * * * * * * * * //

dimensions      [0 0 0 1 0 0 0];

internalField   nonuniform List<scalar> 
90000
(
0.893801
0.903054
0.912553
0.92142
0.929722
0.937399
0.944705
0.951511
0.958105
0.964249
0.97028
0.975874
0.981409
0.986501
0.991548
0.99613
1.00067
1.00469
1.00869
1.01204
1.0155
1.0181
1.02067
1.02294
1.02417
1.02556
1.02673
1.0266
1.02643
1.0261
1.02549
1.02433
1.02315
1.02109
1.01953
1.01857
1.01868
1.01897
1.01937
1.01998
1.02071
1.02114
1.02137
1.0215
1.02131
1.0208
1.02002
1.01929
1.01868
1.01825
1.01812
1.01825
1.01873
1.01946
1.01999
1.01989
1.01956
1.01903
1.0186
1.01826
1.01827
1.01837
1.0186
1.01885
1.01874
1.01842
1.01816
1.01807
1.01814
1.01832
1.01831
1.01808
1.0178
1.0176
1.01764
1.01771
1.01763
1.01752
1.01738
1.01729
1.01721
1.01712
1.01703
1.01701
1.01697
1.01686
1.01672
1.0166
1.01651
1.01647
1.01649
1.01654
1.01649
1.01639
1.01624
1.01611
1.01602
1.01597
1.01588
1.0157
0.885879
0.886371
0.887315
0.888769
0.890716
0.893193
0.896129
0.899587
0.903428
0.907784
0.912415
0.917533
0.922794
0.928477
0.934186
0.9402
0.946162
0.952259
0.958228
0.964206
0.969905
0.975572
0.980864
0.985834
0.990806
0.994846
0.999072
1.00233
1.00547
1.00777
1.00995
1.01122
1.01314
1.01548
1.01785
1.01942
1.02076
1.02137
1.02174
1.02167
1.02124
1.02087
1.02034
1.01936
1.01831
1.0179
1.01772
1.01751
1.01756
1.01781
1.01817
1.01852
1.0186
1.01845
1.01825
1.01792
1.01768
1.01747
1.01749
1.01765
1.01793
1.0179
1.01778
1.01761
1.01744
1.01731
1.01743
1.01765
1.01764
1.01759
1.01742
1.01718
1.01709
1.01711
1.01716
1.01708
1.01693
1.01691
1.01687
1.01682
1.01672
1.01664
1.01659
1.01658
1.0165
1.01639
1.0163
1.01622
1.01616
1.0161
1.01616
1.01615
1.01612
1.01605
1.01594
1.01583
1.01576
1.01567
1.01561
1.01546
0.884953
0.884929
0.884903
0.884877
0.88486
0.884872
0.884913
0.885008
0.885175
0.885448
0.885848
0.886435
0.887234
0.888336
0.889755
0.891638
0.893945
0.896914
0.900373
0.904712
0.909543
0.915373
0.921631
0.928836
0.936353
0.944588
0.952893
0.961553
0.970123
0.978335
0.986499
0.99381
1.00051
1.00508
1.00856
1.01068
1.01222
1.01317
1.014
1.01438
1.01462
1.0142
1.01317
1.01248
1.0128
1.01331
1.01409
1.01516
1.01604
1.0166
1.01652
1.01612
1.0155
1.01461
1.01416
1.0139
1.01406
1.01477
1.0156
1.01586
1.01577
1.01535
1.01491
1.01452
1.01473
1.01528
1.01574
1.01574
1.01549
1.01521
1.01503
1.01524
1.01548
1.01548
1.01536
1.01524
1.01525
1.01532
1.0153
1.01523
1.01517
1.01517
1.01518
1.01515
1.01512
1.01509
1.01504
1.015
1.01495
1.01497
1.015
1.01505
1.01505
1.01501
1.01494
1.01487
1.01481
1.01478
1.01472
1.0146
0.883689
0.883663
0.883631
0.883595
0.883553
0.883512
0.883472
0.883432
0.883392
0.883351
0.883309
0.883268
0.883229
0.883197
0.883163
0.883176
0.883231
0.883352
0.88356
0.883903
0.884424
0.885239
0.886386
0.888108
0.890386
0.893654
0.897692
0.903216
0.909554
0.917647
0.926297
0.936539
0.946846
0.957175
0.967074
0.975327
0.983124
0.98851
0.99392
0.99678
0.999836
1.00158
1.00352
1.00577
1.00896
1.01121
1.01301
1.01386
1.01409
1.01397
1.01345
1.01245
1.01143
1.01022
1.01018
1.01066
1.01154
1.01232
1.01278
1.01262
1.01212
1.01159
1.01131
1.01167
1.01218
1.01259
1.01276
1.01256
1.01227
1.01213
1.01237
1.01266
1.01285
1.01276
1.01261
1.01262
1.01268
1.01274
1.01273
1.01274
1.01279
1.01287
1.01288
1.01289
1.01289
1.0129
1.01291
1.01292
1.01296
1.01302
1.0131
1.01316
1.01317
1.01315
1.01315
1.01315
1.01316
1.01316
1.01314
1.01311
0.882273
0.882254
0.882235
0.882213
0.882189
0.882163
0.882135
0.882104
0.882069
0.882033
0.881997
0.881959
0.881921
0.881885
0.881852
0.881808
0.881758
0.881713
0.881669
0.881623
0.881578
0.88154
0.881498
0.8815
0.88153
0.881654
0.881907
0.882388
0.883175
0.88454
0.886546
0.889825
0.894211
0.900837
0.90875
0.919317
0.930466
0.943135
0.955462
0.967103
0.978001
0.986619
0.995032
1.00011
1.0035
1.0053
1.00709
1.00807
1.00866
1.00804
1.00649
1.00652
1.00699
1.00792
1.00892
1.0097
1.0098
1.00951
1.00905
1.00862
1.00842
1.00862
1.00924
1.00983
1.00989
1.0097
1.00945
1.00927
1.00936
1.00964
1.00993
1.00996
1.00995
1.00996
1.01003
1.0101
1.01017
1.01015
1.01018
1.01024
1.01033
1.01041
1.01042
1.01043
1.01047
1.01054
1.01061
1.01066
1.01073
1.01083
1.0109
1.01096
1.01103
1.01108
1.01114
1.01117
1.01119
1.01122
1.01122
1.01126
0.881102
0.881088
0.881074
0.881059
0.881044
0.881027
0.88101
0.880993
0.880975
0.880956
0.880936
0.880915
0.880893
0.88087
0.880846
0.880822
0.880797
0.880766
0.880733
0.8807
0.880667
0.880636
0.880609
0.880583
0.880571
0.880535
0.880494
0.880455
0.880417
0.880401
0.88042
0.880496
0.880711
0.881217
0.882158
0.884027
0.886962
0.892131
0.898967
0.909205
0.920599
0.934601
0.948491
0.961449
0.973171
0.981038
0.988484
0.992075
0.99613
0.998023
1.00096
1.00379
1.00698
1.00888
1.00961
1.00948
1.00888
1.00765
1.00592
1.006
1.00649
1.00747
1.00858
1.00868
1.00843
1.00789
1.00719
1.00726
1.00764
1.00808
1.00841
1.00832
1.0081
1.00804
1.00817
1.00831
1.00836
1.00829
1.0083
1.00838
1.0085
1.0086
1.00859
1.00858
1.00862
1.00869
1.00875
1.00883
1.00894
1.00903
1.00907
1.0091
1.00915
1.00923
1.00932
1.00939
1.00943
1.00946
1.00947
1.00952
0.880334
0.880326
0.880318
0.88031
0.880301
0.880292
0.880282
0.880272
0.880262
0.880253
0.880243
0.880232
0.880221
0.88021
0.880198
0.880187
0.880175
0.880162
0.880147
0.880132
0.880115
0.880096
0.880077
0.880057
0.880036
0.880013
0.879992
0.879972
0.879953
0.879936
0.879921
0.879925
0.8799
0.879868
0.879836
0.879846
0.879904
0.880119
0.880631
0.88186
0.884071
0.888494
0.894876
0.905348
0.917614
0.933242
0.948568
0.963351
0.976943
0.987369
0.997144
1.00156
1.00458
1.00624
1.00736
1.00673
1.00493
1.00429
1.00482
1.00606
1.00722
1.00792
1.00792
1.00741
1.00651
1.00614
1.00622
1.00675
1.00731
1.00731
1.00724
1.00707
1.0071
1.00725
1.00742
1.0074
1.00733
1.0073
1.00736
1.00744
1.00749
1.0075
1.0075
1.00753
1.00755
1.0076
1.00766
1.00772
1.00783
1.00789
1.0079
1.00789
1.00793
1.00801
1.00811
1.00817
1.0082
1.00819
1.0082
1.00826
0.879912
0.879908
0.879903
0.879898
0.879893
0.879887
0.879882
0.879877
0.879871
0.879865
0.879859
0.879853
0.879847
0.879841
0.879834
0.879828
0.879821
0.879813
0.879804
0.879795
0.879786
0.879776
0.879766
0.879757
0.879747
0.879736
0.879724
0.879711
0.879696
0.879682
0.879674
0.879661
0.879644
0.879628
0.879615
0.879605
0.879606
0.879586
0.879552
0.879552
0.87958
0.879716
0.880113
0.881197
0.883354
0.888068
0.895166
0.907228
0.921069
0.938484
0.955155
0.969326
0.982066
0.988342
0.995132
0.997464
1.00071
1.00376
1.00694
1.00873
1.00865
1.00832
1.00677
1.00527
1.0053
1.00564
1.00649
1.00743
1.0074
1.0071
1.00646
1.00648
1.00672
1.007
1.00711
1.00702
1.00685
1.0069
1.00704
1.00715
1.0071
1.00701
1.00702
1.00705
1.00707
1.00709
1.00713
1.00724
1.00732
1.00732
1.00728
1.00725
1.00727
1.00735
1.00744
1.00753
1.00752
1.00749
1.00749
1.00753
0.879685
0.879681
0.879678
0.879674
0.879671
0.879667
0.879663
0.879659
0.879655
0.87965
0.879646
0.879642
0.879637
0.879632
0.879627
0.879622
0.879617
0.87961
0.879603
0.879597
0.879591
0.879586
0.87958
0.879573
0.879567
0.879563
0.879554
0.879543
0.879532
0.879526
0.879524
0.879513
0.879497
0.879483
0.879473
0.879465
0.879451
0.879439
0.879429
0.879421
0.879421
0.879407
0.879391
0.879397
0.879441
0.879622
0.880122
0.881544
0.884376
0.89067
0.899878
0.915162
0.932154
0.951251
0.969065
0.983
0.996235
1.00199
1.00537
1.00722
1.00719
1.00556
1.0039
1.00447
1.00587
1.00707
1.00749
1.00741
1.0069
1.00616
1.00616
1.00651
1.00701
1.00699
1.00686
1.00665
1.00669
1.0069
1.007
1.00696
1.00688
1.00682
1.00685
1.00689
1.00692
1.00692
1.00696
1.00705
1.0071
1.00709
1.00703
1.00699
1.00699
1.00705
1.00713
1.00719
1.00719
1.00714
1.00714
1.00716
0.879558
0.879554
0.87955
0.879546
0.879542
0.879538
0.879533
0.879529
0.879525
0.879521
0.879516
0.879511
0.879505
0.8795
0.879496
0.879492
0.879484
0.879475
0.879469
0.879463
0.879458
0.879456
0.879453
0.879445
0.879438
0.879432
0.879427
0.879421
0.879415
0.879412
0.879406
0.879396
0.879387
0.879379
0.879374
0.879367
0.879354
0.879342
0.879335
0.87933
0.879322
0.879321
0.879321
0.879324
0.879339
0.879341
0.879351
0.87938
0.879477
0.879807
0.880673
0.88312
0.887847
0.898025
0.91154
0.931166
0.9509
0.968151
0.982999
0.990171
0.996555
0.998949
1.00362
1.00641
1.0085
1.00841
1.008
1.00659
1.00539
1.00556
1.00626
1.00725
1.00725
1.00697
1.00641
1.00645
1.00676
1.00708
1.00705
1.00689
1.0067
1.00673
1.00682
1.00683
1.00684
1.00687
1.00696
1.00702
1.00701
1.00696
1.0069
1.00687
1.00688
1.00692
1.00698
1.00705
1.00702
1.00698
1.00698
1.00699
0.879468
0.879464
0.87946
0.879456
0.879452
0.879447
0.879442
0.879437
0.879433
0.879427
0.879421
0.879417
0.879413
0.879408
0.879402
0.879396
0.87939
0.879382
0.879375
0.879369
0.879366
0.879361
0.879353
0.879346
0.87934
0.879335
0.87933
0.879325
0.87932
0.879315
0.87931
0.879307
0.879306
0.879304
0.879303
0.879301
0.879298
0.879295
0.879294
0.879292
0.879288
0.879282
0.87928
0.879279
0.879279
0.879285
0.879292
0.879304
0.879301
0.879305
0.879325
0.879398
0.879636
0.880463
0.882487
0.887949
0.897139
0.914023
0.933757
0.955225
0.975314
0.989946
1.00136
1.00455
1.00716
1.00681
1.0051
1.00446
1.00521
1.00646
1.0075
1.0075
1.007
1.00614
1.00615
1.00658
1.00706
1.00708
1.00687
1.00662
1.00665
1.00678
1.00684
1.0068
1.0068
1.00687
1.00697
1.00697
1.00693
1.00687
1.00683
1.00682
1.00683
1.00686
1.00689
1.00693
1.00693
1.00691
1.00691
1.00691
0.879371
0.879367
0.879364
0.87936
0.879355
0.879351
0.879346
0.879341
0.879336
0.879331
0.879326
0.879322
0.879318
0.879313
0.879308
0.879302
0.879297
0.87929
0.879284
0.879278
0.879272
0.879265
0.87926
0.879254
0.879249
0.879246
0.879244
0.879241
0.879239
0.879239
0.87924
0.879243
0.879249
0.879255
0.87926
0.879266
0.879272
0.879277
0.879282
0.879286
0.879285
0.879282
0.879276
0.879268
0.879258
0.879245
0.879228
0.879217
0.879211
0.879201
0.879198
0.879198
0.879203
0.879223
0.87929
0.879547
0.880331
0.882944
0.888571
0.901315
0.918686
0.941647
0.964261
0.978486
0.992313
0.995632
1.00008
1.00339
1.00738
1.00833
1.00809
1.0069
1.00545
1.0056
1.00633
1.0073
1.00722
1.00683
1.00638
1.00647
1.00678
1.00684
1.00678
1.00671
1.00677
1.00694
1.00698
1.00693
1.0068
1.00676
1.00678
1.00679
1.00681
1.00682
1.00682
1.00682
1.00684
1.00685
1.00687
1.00686
0.879256
0.879252
0.879249
0.879245
0.879241
0.879237
0.879232
0.879228
0.879224
0.87922
0.879216
0.879211
0.879207
0.879203
0.879199
0.879196
0.879192
0.879188
0.879183
0.879178
0.879173
0.87917
0.879165
0.879163
0.879164
0.879165
0.879166
0.879167
0.87917
0.879176
0.879184
0.879194
0.879204
0.879212
0.87922
0.87923
0.87924
0.87925
0.879259
0.879268
0.879273
0.879272
0.879269
0.879262
0.879247
0.879225
0.879195
0.879164
0.879136
0.879116
0.879107
0.879104
0.879101
0.8791
0.879104
0.879119
0.87915
0.87923
0.879512
0.880732
0.883899
0.892988
0.907322
0.930652
0.954996
0.975359
0.994598
1.0011
1.00579
1.0065
1.00529
1.00402
1.00487
1.00641
1.00755
1.00745
1.00667
1.00603
1.00615
1.00668
1.00694
1.00681
1.00657
1.00662
1.00686
1.00695
1.00691
1.00676
1.00669
1.00669
1.00672
1.00674
1.00677
1.00676
1.00673
1.00671
1.00673
1.00678
1.00682
1.00681
0.87914
0.879137
0.879134
0.879131
0.879128
0.879125
0.879122
0.879119
0.879117
0.879114
0.879111
0.879107
0.879104
0.879101
0.879098
0.879096
0.879093
0.879092
0.87909
0.879087
0.879084
0.879085
0.879086
0.87909
0.879095
0.879096
0.879098
0.879103
0.879111
0.87912
0.87913
0.879137
0.879143
0.879149
0.879158
0.879169
0.879183
0.879197
0.879212
0.879225
0.879235
0.879241
0.879242
0.879239
0.879231
0.879211
0.879178
0.87914
0.879101
0.879065
0.879036
0.879022
0.879022
0.879022
0.879022
0.879029
0.879055
0.879083
0.879084
0.879079
0.879155
0.879671
0.881468
0.887875
0.899541
0.922016
0.946839
0.967865
0.986569
0.992409
0.997787
1.00167
1.007
1.00835
1.00805
1.00654
1.00528
1.00556
1.0065
1.00707
1.00683
1.00642
1.00644
1.00674
1.00701
1.00693
1.00669
1.00657
1.00658
1.00662
1.00665
1.00669
1.0067
1.00668
1.00662
1.0066
1.00664
1.00671
1.00675
1.00674
0.879081
0.879081
0.879081
0.87908
0.87908
0.87908
0.879081
0.879081
0.87908
0.87908
0.879079
0.879078
0.879077
0.879075
0.879072
0.87907
0.87907
0.87907
0.879069
0.879066
0.879066
0.879066
0.879065
0.879064
0.879061
0.879057
0.879053
0.879052
0.879054
0.879058
0.87906
0.879061
0.879064
0.879068
0.879074
0.879085
0.8791
0.879116
0.879133
0.879149
0.879165
0.879181
0.879191
0.879192
0.87919
0.879178
0.879154
0.879123
0.879086
0.879041
0.878995
0.878966
0.878958
0.878954
0.878955
0.878964
0.87899
0.879018
0.879026
0.879027
0.878998
0.878916
0.878884
0.879127
0.880251
0.884961
0.894702
0.91594
0.940835
0.965477
0.989194
0.998846
1.005
1.00633
1.00486
1.00392
1.00508
1.0067
1.0072
1.00685
1.00596
1.00602
1.00656
1.00697
1.00691
1.00661
1.00643
1.00646
1.00652
1.00654
1.00657
1.00662
1.00662
1.00657
1.0065
1.00651
1.00655
1.00662
1.00666
1.00665
0.879064
0.879068
0.879071
0.879075
0.879079
0.879083
0.879086
0.879088
0.879091
0.879094
0.879097
0.879098
0.879099
0.879099
0.879099
0.879097
0.879096
0.879093
0.87909
0.879087
0.879083
0.879078
0.87907
0.879061
0.87905
0.879039
0.879027
0.879015
0.879004
0.878996
0.878987
0.878978
0.878974
0.878973
0.878974
0.878978
0.878986
0.878996
0.879007
0.87902
0.879038
0.87906
0.879085
0.879108
0.879117
0.879118
0.879111
0.879097
0.879076
0.879041
0.87899
0.878939
0.878906
0.878892
0.878886
0.878886
0.878899
0.878947
0.878987
0.878981
0.878953
0.878907
0.878833
0.878729
0.878714
0.878871
0.879687
0.883405
0.891845
0.912018
0.937243
0.962086
0.983144
0.99129
0.997276
1.00205
1.00771
1.00823
1.00745
1.00537
1.00542
1.00611
1.00711
1.00703
1.00648
1.00622
1.00629
1.00647
1.00649
1.00647
1.0065
1.00655
1.00652
1.00645
1.00639
1.00641
1.00646
1.00652
1.00656
1.00655
0.879032
0.879038
0.879044
0.87905
0.879056
0.879062
0.879069
0.879075
0.87908
0.879085
0.879091
0.879096
0.879101
0.879106
0.879108
0.879108
0.879108
0.879106
0.879102
0.879098
0.879092
0.879084
0.879074
0.879064
0.87905
0.879034
0.879016
0.878995
0.878973
0.878951
0.878928
0.878906
0.878888
0.878877
0.87887
0.878867
0.878867
0.878868
0.878869
0.878874
0.878886
0.878907
0.878938
0.878976
0.879012
0.879039
0.879055
0.879057
0.879055
0.879041
0.879009
0.878957
0.878895
0.878842
0.878814
0.878805
0.878806
0.878823
0.878878
0.878931
0.878923
0.878889
0.878835
0.87875
0.878669
0.878658
0.878677
0.878836
0.879532
0.882672
0.890406
0.910187
0.935331
0.962635
0.988363
0.999153
1.00592
1.00613
1.00339
1.00396
1.00577
1.00724
1.00717
1.00644
1.00581
1.006
1.0064
1.00644
1.00639
1.00639
1.00646
1.00647
1.00641
1.00631
1.00631
1.00634
1.00638
1.00641
1.00646
1.00645
0.878972
0.878978
0.878984
0.878991
0.878997
0.879003
0.87901
0.879017
0.879024
0.87903
0.879037
0.879044
0.879051
0.879057
0.879062
0.879066
0.87907
0.879071
0.87907
0.879066
0.879061
0.879054
0.879047
0.879038
0.879027
0.879014
0.878998
0.878978
0.878955
0.878929
0.878901
0.878873
0.878846
0.878819
0.878795
0.878777
0.878766
0.878761
0.87876
0.878761
0.878764
0.878775
0.878797
0.87883
0.878876
0.878931
0.87898
0.87901
0.879016
0.879016
0.879007
0.878975
0.878916
0.878838
0.878764
0.878722
0.878712
0.878714
0.878735
0.878791
0.878856
0.878865
0.878847
0.878803
0.878726
0.878661
0.878654
0.878684
0.878749
0.878919
0.879487
0.882269
0.889902
0.909671
0.936421
0.963265
0.983931
0.992837
0.99794
1.00498
1.00804
1.00782
1.00619
1.00524
1.00566
1.00651
1.00653
1.00634
1.0062
1.00632
1.00646
1.0064
1.0062
1.00621
1.00626
1.00631
1.00631
1.00633
1.00636
1.00635
0.878892
0.878896
0.878901
0.878905
0.87891
0.878915
0.878921
0.878927
0.878933
0.878939
0.878946
0.878954
0.878961
0.878969
0.878977
0.878986
0.878996
0.879005
0.879008
0.879008
0.879007
0.879004
0.878998
0.878993
0.878988
0.878981
0.878972
0.878959
0.878943
0.878926
0.878905
0.878881
0.878853
0.878821
0.878786
0.87875
0.878721
0.878701
0.878689
0.878685
0.878685
0.878687
0.878693
0.878708
0.878738
0.878791
0.878861
0.878926
0.878962
0.878969
0.878967
0.878954
0.878917
0.878853
0.878765
0.878678
0.878635
0.878628
0.878633
0.878662
0.878732
0.878814
0.878841
0.878836
0.878802
0.878728
0.878669
0.878667
0.878692
0.87876
0.878807
0.878897
0.87939
0.882152
0.890545
0.91139
0.938728
0.968384
0.992057
1.00257
1.00644
1.00499
1.00313
1.0047
1.00667
1.00676
1.00641
1.00584
1.00606
1.00644
1.00642
1.00614
1.00608
1.00618
1.00626
1.00626
1.00626
1.00627
1.00628
1.00625
0.878758
0.878759
0.878761
0.878763
0.878766
0.878768
0.878771
0.878775
0.878779
0.878783
0.878789
0.878797
0.878805
0.878815
0.878827
0.87884
0.878857
0.878879
0.878905
0.878928
0.878944
0.878951
0.878954
0.878952
0.878948
0.878945
0.878944
0.878944
0.878943
0.878939
0.878933
0.878922
0.878908
0.878888
0.87886
0.878821
0.878778
0.878731
0.878689
0.878656
0.878638
0.878628
0.878621
0.878622
0.878631
0.878657
0.878702
0.878767
0.87884
0.878893
0.878906
0.878902
0.878885
0.878853
0.878793
0.878702
0.878612
0.878577
0.878576
0.87859
0.878636
0.878722
0.878809
0.878833
0.878827
0.878788
0.878707
0.878653
0.878653
0.87868
0.878745
0.878776
0.878768
0.878832
0.879407
0.882474
0.892367
0.91427
0.94476
0.971099
0.987827
0.995645
1.00129
1.00766
1.00762
1.00676
1.0053
1.00565
1.00656
1.00655
1.00614
1.00591
1.00604
1.00627
1.00626
1.00621
1.00623
1.00624
1.00619
1.00618
0.878657
0.878655
0.878655
0.878657
0.878657
0.878657
0.878658
0.878659
0.87866
0.878663
0.878667
0.878674
0.878681
0.878688
0.878698
0.87871
0.878724
0.878741
0.878761
0.878784
0.878809
0.878837
0.878868
0.878899
0.87892
0.878931
0.878936
0.878939
0.878942
0.878945
0.878946
0.878946
0.878944
0.878939
0.878929
0.878909
0.878877
0.878834
0.87878
0.878717
0.878653
0.878602
0.878576
0.878566
0.878564
0.878566
0.878576
0.8786
0.878646
0.87871
0.878778
0.878827
0.878843
0.878845
0.878832
0.878784
0.878699
0.87861
0.87857
0.878572
0.878591
0.878639
0.878724
0.878799
0.87881
0.878794
0.878736
0.878652
0.878623
0.878633
0.87868
0.878755
0.878782
0.878768
0.878745
0.878832
0.879626
0.883294
0.895768
0.919747
0.95033
0.982072
0.998013
1.006
1.00575
1.00331
1.00451
1.00665
1.00693
1.0064
1.00558
1.0058
1.00633
1.00631
1.0062
1.00618
1.00624
1.00621
1.00611
1.00612
0.878609
0.878604
0.878603
0.878605
0.878606
0.878607
0.878608
0.878609
0.878611
0.878612
0.878615
0.878618
0.878622
0.878626
0.878632
0.878639
0.878646
0.878656
0.878668
0.878681
0.878697
0.878716
0.87874
0.878766
0.878795
0.878825
0.878857
0.878888
0.878911
0.878926
0.878936
0.878943
0.878946
0.878945
0.87894
0.878928
0.87891
0.878882
0.878843
0.878789
0.87872
0.878647
0.878582
0.87854
0.878527
0.878524
0.87852
0.878516
0.878519
0.878542
0.878597
0.878684
0.878785
0.878851
0.878873
0.87887
0.878837
0.878763
0.878671
0.878607
0.878591
0.878595
0.878625
0.878696
0.878759
0.878763
0.878737
0.878675
0.87862
0.878619
0.878648
0.878726
0.878781
0.878786
0.878773
0.878725
0.878721
0.878867
0.880043
0.884743
0.900413
0.927789
0.958912
0.983518
0.993061
0.999114
1.00706
1.00781
1.00686
1.00506
1.00539
1.00639
1.00655
1.00626
1.00609
1.0062
1.00628
1.00617
1.00603
1.00612
0.878685
0.878675
0.878666
0.878657
0.878645
0.878633
0.878624
0.878621
0.87862
0.878619
0.878615
0.878612
0.878609
0.878606
0.878604
0.878604
0.878605
0.878608
0.878609
0.878608
0.878608
0.878609
0.87861
0.878614
0.878621
0.878634
0.878655
0.878684
0.878719
0.87876
0.878801
0.878834
0.878859
0.878875
0.878887
0.878891
0.878883
0.878863
0.878833
0.878798
0.878757
0.87871
0.878657
0.878602
0.878552
0.87852
0.8785
0.878487
0.878478
0.878478
0.878503
0.878569
0.878686
0.878825
0.878897
0.878905
0.878894
0.878857
0.878796
0.878707
0.878615
0.878578
0.878574
0.87859
0.87865
0.878715
0.878727
0.878711
0.878669
0.87865
0.878665
0.878712
0.878764
0.878773
0.878762
0.878713
0.878672
0.878653
0.878677
0.878926
0.880674
0.887583
0.90777
0.937411
0.971461
0.994109
1.00523
1.00571
1.00275
1.00393
1.00638
1.00695
1.00648
1.0058
1.00601
1.00633
1.00625
1.00596
1.00597
1.00618
0.878844
0.878834
0.878824
0.878813
0.878801
0.878787
0.878774
0.878759
0.878743
0.878727
0.87871
0.878691
0.878671
0.878651
0.878633
0.878615
0.878597
0.878578
0.878561
0.878546
0.878532
0.878518
0.878504
0.87849
0.878474
0.878461
0.878457
0.878457
0.878461
0.878481
0.878517
0.878562
0.878611
0.878655
0.878693
0.878729
0.878764
0.878777
0.878769
0.87876
0.878759
0.878758
0.878754
0.878744
0.878721
0.878687
0.87864
0.878579
0.878518
0.878489
0.87849
0.878524
0.878606
0.878723
0.878841
0.878891
0.878883
0.878857
0.878824
0.878773
0.878676
0.878578
0.878553
0.878554
0.878586
0.878669
0.87874
0.878751
0.878743
0.87872
0.878714
0.878719
0.878735
0.878739
0.878724
0.878676
0.878637
0.878619
0.878617
0.878627
0.878689
0.879178
0.88191
0.892517
0.91712
0.950343
0.977343
0.991459
0.997654
1.00638
1.00778
1.00688
1.00527
1.00566
1.00649
1.00645
1.00597
1.00584
1.00603
1.0063
0.878883
0.878879
0.87887
0.878863
0.878856
0.878849
0.878841
0.878831
0.878816
0.8788
0.878781
0.878757
0.878731
0.878709
0.878687
0.878661
0.878631
0.878601
0.878567
0.878531
0.878496
0.878469
0.878448
0.878429
0.87841
0.878392
0.878371
0.878356
0.878354
0.878359
0.87837
0.878393
0.878422
0.878453
0.878488
0.878525
0.878569
0.878619
0.87867
0.878719
0.878766
0.878809
0.878847
0.878874
0.878891
0.878892
0.878861
0.878784
0.878694
0.878614
0.878555
0.878546
0.878566
0.878612
0.878679
0.878747
0.878772
0.878784
0.878792
0.878782
0.87873
0.878638
0.878573
0.878565
0.878583
0.878658
0.878747
0.878777
0.878778
0.878768
0.878743
0.878716
0.878687
0.878666
0.878646
0.878626
0.878609
0.878609
0.878619
0.878647
0.878703
0.87873
0.87885
0.879728
0.884324
0.900326
0.928639
0.964729
0.990964
1.00463
1.00575
1.00283
1.00422
1.00656
1.00676
1.00618
1.00551
1.00576
1.00632
1.00636
0.878816
0.878817
0.878815
0.878807
0.878807
0.87881
0.87881
0.878799
0.878791
0.878785
0.878771
0.878759
0.878756
0.878752
0.878742
0.87872
0.878696
0.878673
0.878647
0.878619
0.878586
0.87855
0.878513
0.878475
0.878444
0.878432
0.878426
0.878418
0.878404
0.878382
0.878367
0.878368
0.878372
0.878381
0.878398
0.878425
0.878459
0.878498
0.878559
0.878653
0.878756
0.878844
0.8789
0.878922
0.87894
0.878947
0.878922
0.878843
0.878767
0.878717
0.878656
0.878575
0.878551
0.878557
0.878568
0.878576
0.878592
0.878635
0.878709
0.878751
0.87876
0.878741
0.878688
0.878663
0.878667
0.878699
0.878743
0.878772
0.878777
0.878771
0.878748
0.878697
0.878647
0.878612
0.878599
0.878598
0.878609
0.878639
0.87867
0.878692
0.878706
0.878723
0.878701
0.878693
0.878904
0.880629
0.888863
0.910463
0.944902
0.97534
0.990261
0.99751
1.00667
1.0075
1.00662
1.00507
1.00544
1.00638
1.00651
1.00634
0.878666
0.87867
0.878676
0.878685
0.878698
0.878729
0.87874
0.878737
0.87874
0.878759
0.878782
0.878796
0.878802
0.878805
0.878806
0.878805
0.8788
0.878792
0.878788
0.878787
0.878783
0.878774
0.878771
0.878768
0.878759
0.878761
0.878776
0.878779
0.878767
0.87873
0.878682
0.878636
0.878596
0.87856
0.878525
0.878491
0.878465
0.878465
0.878498
0.87856
0.878648
0.878792
0.878879
0.878878
0.878883
0.878894
0.878866
0.878775
0.878729
0.878726
0.878706
0.878634
0.878561
0.878545
0.87854
0.878526
0.878521
0.878551
0.878631
0.878723
0.878785
0.878793
0.878771
0.878752
0.878754
0.87875
0.878722
0.878695
0.878692
0.878689
0.878672
0.878648
0.878625
0.878592
0.878588
0.878604
0.878653
0.878703
0.878708
0.87871
0.878708
0.878677
0.878616
0.87855
0.878532
0.878594
0.879226
0.882734
0.897278
0.924759
0.962042
0.990585
1.00477
1.0054
1.00277
1.00404
1.00633
1.00682
1.00651
1.00615
0.878605
0.878621
0.878641
0.87866
0.878682
0.878717
0.878753
0.878763
0.878761
0.878766
0.878787
0.878817
0.878835
0.878854
0.878878
0.878885
0.878885
0.878888
0.878882
0.878878
0.878881
0.878873
0.878873
0.878887
0.8789
0.878925
0.878965
0.878983
0.87898
0.878958
0.878914
0.878863
0.878816
0.878759
0.878693
0.878627
0.878565
0.878512
0.878503
0.87852
0.878571
0.878653
0.878686
0.878667
0.878651
0.878642
0.878594
0.878575
0.878598
0.878664
0.878702
0.878712
0.878707
0.878695
0.878667
0.878638
0.878608
0.878598
0.878624
0.878699
0.878768
0.87878
0.878766
0.878762
0.87877
0.878757
0.878682
0.878597
0.878574
0.878571
0.878577
0.878603
0.878622
0.878637
0.878653
0.878678
0.878715
0.87872
0.878717
0.878699
0.878648
0.878565
0.878521
0.878504
0.878501
0.87852
0.878568
0.878778
0.880258
0.887458
0.90894
0.943892
0.97431
0.990587
0.998037
1.00645
1.00744
1.00672
1.00583
1.00615
0.878641
0.878666
0.878691
0.878696
0.878695
0.878697
0.878719
0.878755
0.878761
0.878752
0.878755
0.87877
0.878783
0.878792
0.878801
0.878809
0.878817
0.878828
0.878824
0.878822
0.878829
0.878816
0.878797
0.878801
0.878833
0.878864
0.878878
0.878896
0.878904
0.878887
0.87886
0.878856
0.878848
0.878806
0.878735
0.878668
0.87862
0.878577
0.87853
0.878521
0.878532
0.878538
0.878525
0.878494
0.878475
0.878449
0.878426
0.878433
0.878486
0.878585
0.878705
0.878799
0.878852
0.878887
0.878889
0.878855
0.8788
0.878741
0.878709
0.878723
0.878722
0.878704
0.878693
0.878703
0.878723
0.878713
0.878645
0.878563
0.878533
0.878535
0.878552
0.878599
0.87868
0.878726
0.87874
0.878739
0.87873
0.878713
0.878672
0.878607
0.878536
0.878483
0.878491
0.878508
0.878546
0.878605
0.878648
0.878659
0.878705
0.879167
0.882472
0.896484
0.924918
0.964484
0.990973
1.00549
1.00519
1.00384
1.0052
1.00653
0.878623
0.878626
0.878625
0.878615
0.878593
0.87856
0.878545
0.878549
0.878552
0.878533
0.878502
0.878491
0.878472
0.878443
0.878432
0.878424
0.878412
0.878385
0.878359
0.878357
0.878371
0.878366
0.878373
0.878414
0.87841
0.878378
0.878366
0.878383
0.878419
0.878409
0.878397
0.878422
0.878496
0.878529
0.878538
0.878532
0.878528
0.878567
0.878638
0.878667
0.878667
0.878634
0.878594
0.878541
0.878484
0.878444
0.878429
0.878442
0.878491
0.878569
0.878682
0.878815
0.87889
0.878927
0.87894
0.878917
0.878863
0.878832
0.878795
0.878731
0.878624
0.878528
0.878511
0.878523
0.87857
0.878606
0.878609
0.878593
0.878591
0.878608
0.878639
0.878686
0.878744
0.878764
0.87876
0.878747
0.878698
0.878605
0.878515
0.878452
0.878446
0.878461
0.878498
0.878586
0.878665
0.878677
0.878675
0.878643
0.878568
0.878514
0.878666
0.880072
0.887968
0.910244
0.945403
0.98089
0.990709
1.00024
1.00689
1.00667
0.878392
0.878382
0.878373
0.87836
0.878345
0.878324
0.87828
0.878248
0.878257
0.878271
0.878258
0.878217
0.878172
0.878131
0.878091
0.87805
0.878
0.877948
0.877939
0.877948
0.877948
0.877962
0.878034
0.878107
0.878099
0.87802
0.877969
0.877955
0.877964
0.877986
0.878016
0.878073
0.878183
0.878335
0.878446
0.878505
0.878578
0.878717
0.878856
0.878892
0.878885
0.878849
0.878828
0.8788
0.878757
0.878721
0.878676
0.878595
0.878549
0.87857
0.878657
0.878788
0.878863
0.878848
0.878785
0.878696
0.878671
0.878693
0.878702
0.878642
0.878501
0.878408
0.878402
0.878424
0.878487
0.87856
0.878636
0.878737
0.878809
0.878823
0.878817
0.878779
0.878769
0.878763
0.878742
0.878681
0.87857
0.878447
0.87839
0.878399
0.878437
0.878518
0.87864
0.878726
0.878725
0.878707
0.878649
0.878547
0.878456
0.878425
0.878436
0.878509
0.879154
0.882834
0.899054
0.929819
0.968319
0.995299
1.00461
1.0044
0.878186
0.878189
0.878174
0.878142
0.87813
0.878134
0.878161
0.878187
0.878189
0.878197
0.878226
0.878234
0.878217
0.878193
0.878168
0.878138
0.878099
0.878076
0.878081
0.878109
0.878138
0.878176
0.87827
0.878295
0.878302
0.878304
0.878231
0.878125
0.878111
0.878121
0.878123
0.878154
0.878261
0.878511
0.878782
0.87882
0.878828
0.878878
0.878921
0.878913
0.878883
0.878834
0.878776
0.878766
0.878791
0.878811
0.878788
0.878659
0.878526
0.878517
0.878566
0.878621
0.878602
0.878468
0.878224
0.878133
0.878148
0.878264
0.878437
0.878492
0.878461
0.878402
0.87835
0.878364
0.878437
0.878574
0.878717
0.878837
0.878887
0.878887
0.878864
0.878801
0.878695
0.878596
0.878534
0.878481
0.878422
0.878371
0.878368
0.878413
0.878549
0.878702
0.878776
0.878766
0.878739
0.878647
0.878497
0.878411
0.878408
0.878423
0.878495
0.87862
0.878639
0.878804
0.880557
0.889404
0.917176
0.952156
0.979915
0.997459
0.87876
0.878751
0.878777
0.878881
0.878915
0.878882
0.87887
0.878941
0.879099
0.879259
0.879382
0.879471
0.879544
0.879613
0.879672
0.87972
0.879774
0.879858
0.879913
0.87989
0.87984
0.879809
0.879772
0.879687
0.87962
0.879554
0.879392
0.879112
0.878923
0.878917
0.87894
0.878904
0.878929
0.879112
0.879216
0.879188
0.879079
0.878986
0.878856
0.878682
0.878555
0.878517
0.878514
0.878528
0.878597
0.878734
0.878789
0.8787
0.878452
0.878362
0.878409
0.878481
0.878467
0.878285
0.878004
0.877943
0.877981
0.87815
0.878352
0.878469
0.87857
0.878603
0.878631
0.878677
0.87875
0.878788
0.878796
0.87881
0.878816
0.878794
0.878715
0.878585
0.878441
0.878315
0.878289
0.878309
0.878365
0.878398
0.878492
0.878645
0.878772
0.878818
0.878815
0.878774
0.878638
0.878464
0.878359
0.878366
0.878406
0.878535
0.878636
0.878687
0.878662
0.878546
0.878574
0.879288
0.884733
0.903098
0.937341
0.985484
0.880501
0.880512
0.880527
0.880551
0.88059
0.880655
0.880767
0.880907
0.881077
0.881319
0.881464
0.881509
0.881592
0.881737
0.881799
0.881771
0.881656
0.881583
0.881455
0.881133
0.88084
0.880737
0.880624
0.880436
0.880278
0.880105
0.879879
0.879612
0.879348
0.87926
0.879312
0.87932
0.87933
0.87935
0.879258
0.879024
0.878805
0.878685
0.878619
0.878578
0.878531
0.878489
0.878471
0.87844
0.87837
0.878349
0.87835
0.87834
0.878307
0.878338
0.878514
0.878657
0.878643
0.878463
0.878273
0.878269
0.878363
0.878555
0.878668
0.87877
0.878779
0.878801
0.8789
0.878953
0.878946
0.87886
0.878645
0.878427
0.878355
0.87831
0.878277
0.878256
0.878223
0.878153
0.878139
0.878184
0.878349
0.878616
0.878787
0.87884
0.878822
0.878781
0.87869
0.878546
0.878382
0.878309
0.878315
0.878403
0.878585
0.878728
0.878719
0.878686
0.878545
0.878404
0.87837
0.878405
0.878803
0.881657
0.892782
0.942026
0.883513
0.883499
0.883472
0.883468