/*--------------------------------*- C++ -*----------------------------------*\
  =========                 |
  \\      /  F ield         | OpenFOAM: The Open Source CFD Toolbox
   \\    /   O peration     | Website:  https://openfoam.org
    \\  /    A nd           | Version:  7
     \\/     M anipulation  |
\*---------------------------------------------------------------------------*/
FoamFile
{
    version     2.0;
    format      ascii;
    class       volScalarField;
    location    "5.6";
    object      T;
}
// * * * * * * * * * * * * * * * * * * * * * * * * * * * * * * * * * * * * * //

dimensions      [0 0 0 1 0 0 0];

internalField   nonuniform List<scalar> 
1750
(
1.34615
1.5185
1.48569
1.43724
1.39257
1.41187
1.43608
1.45105
1.45275
1.45254
0.472759
0.879033
1.42029
1.77921
1.78988
1.76425
1.71942
1.65416
1.61785
1.57552
0.388539
0.384353
0.423333
0.859582
1.28075
1.47479
1.5951
1.6104
1.61495
1.58499
0.403517
0.406341
0.432857
0.464534
0.472001
0.611222
0.861733
1.11109
1.25435
1.33875
0.493492
0.498085
0.509815
0.526773
0.535734
0.534369
0.541811
0.570489
0.670137
0.914521
0.581098
0.581007
0.578018
0.584489
0.597652
0.610341
0.617412
0.629234
0.633372
0.639575
0.691598
0.691675
0.692718
0.693125
0.695954
0.698831
0.698139
0.69714
0.696886
0.69596
0.826267
0.813474
0.802606
0.795974
0.788585
0.777951
0.770033
0.764351
0.757522
0.747384
0.958093
0.943286
0.92526
0.908749
0.89454
0.878329
0.862489
0.848733
0.837448
0.820635
1.02983
1.02309
1.01375
1.00259
0.989858
0.975292
0.958076
0.939144
0.922763
0.897241
1.03799
1.03768
1.03655
1.03475
1.03255
1.02864
1.02203
1.01248
1.00128
0.978373
1.02594
1.02832
1.02998
1.0317
1.03172
1.03158
1.03126
1.03053
1.02913
1.02286
1.00585
1.00817
1.01075
1.01385
1.01714
1.0202
1.02296
1.02499
1.02672
1.0265
1.00028
1.00051
1.0009
1.00153
1.00257
1.00414
1.00629
1.00904
1.01209
1.01699
1
1.00001
1.00002
1.00004
1.00009
1.00019
1.00041
1.00085
1.00156
1.00419
0.519304
0.444353
0.387048
0.408608
0.480966
0.57395
0.690088
0.835692
0.971754
1.03425
1.03807
1.02305
1.00424
1.00019
1
0.514893
0.425324
0.359347
0.426654
0.49816
0.604415
0.737301
0.887595
1.00565
1.04153
1.0378
1.01822
1.00232
1.00007
1
0.516873
0.402806
0.351351
0.427204
0.504506
0.628118
0.781386
0.930074
1.02439
1.0437
1.03616
1.01368
1.00122
1.00003
1
0.520513
0.380514
0.357191
0.424613
0.550063
0.690478
0.836874
0.967456
1.03715
1.04453
1.03308
1.00862
1.00054
1.00001
1
0.503999
0.353303
0.379416
0.452403
0.598554
0.744877
0.883152
0.998977
1.04534
1.04475
1.02613
1.0048
1.00022
1
1
0.495015
0.340836
0.390353
0.515859
0.658551
0.793148
0.931485
1.02679
1.04876
1.04318
1.01909
1.00253
1.00009
1
1
0.498308
0.343875
0.39695
0.569491
0.704522
0.84716
0.981409
1.04368
1.04978
1.03796
1.01276
1.0011
1.00003
1
1
0.502216
0.406173
0.45618
0.620086
0.773771
0.919777
1.01858
1.05121
1.04982
1.03135
1.00696
1.00039
1.00001
1
1
0.491303
0.437626
0.547409
0.699228
0.851278
0.973942
1.04205
1.05412
1.04707
1.02187
1.00297
1.00012
1
1
1
0.401781
0.451322
0.612175
0.791742
0.927129
1.01706
1.05502
1.05491
1.04104
1.01231
1.0011
1.00003
1
1
1
0.121662
0.456347
0.705345
0.873452
0.987508
1.04751
1.05938
1.05478
1.02934
1.00571
1.00034
1.00001
1
1
1
0.116263
0.606373
0.820603
0.955317
1.03312
1.06136
1.06047
1.04606
1.01644
1.00199
1.00008
1
1
1
1
0.227254
0.693056
0.910206
1.01633
1.05938
1.06486
1.0585
1.03151
1.00667
1.00046
1.00001
1
1
1
1
0.49021
0.830357
0.999303
1.053
1.06802
1.06532
1.0461
1.01532
1.00182
1.00009
1
1
1
1
1
0.835579
0.999284
1.05421
1.06595
1.06902
1.0559
1.02711
1.00531
1.00035
1.00001
1
1
1
1
1
1.06655
1.06802
1.06906
1.0679
1.06451
1.03847
1.01021
1.00048
1
1
1
1
1
1
1
1.0664
1.06855
1.0696
1.06683
1.06149
1.03579
1.00903
1.00084
1.00003
1
1
1
1
1
1
1.06615
1.06932
1.07022
1.06672
1.05407
1.02167
1.0028
1.00011
1
1
1
1
1
1
1
1.06596
1.06982
1.07028
1.06301
1.04336
1.01339
1.00123
1.00004
1
1
1
1
1
1
1
1.06621
1.07119
1.07058
1.05924
1.03279
1.00627
1.00037
1.00001
1
1
1
1
1
1
1
1.06869
1.07227
1.07094
1.05191
1.02011
1.00259
1.00011
1
1
1
1
1
1
1
1
1.07212
1.07118
1.06796
1.03958
1.01022
1.00087
1.00003
1
1
1
1
1
1
1
1
1.0777
1.06558
1.05827
1.0263
1.00475
1.00026
1.00001
1
1
1
1
1
1
1
1
1.08355
1.06141
1.04593
1.01472
1.00161
1.00007
1
1
1
1
1
1
1
1
1
1.08629
1.05566
1.03033
1.0065
1.0005
1.00001
1
1
1
1
1
1
1
1
1
1.08505
1.04496
1.0183
1.00261
1.00013
1
1
1
1
1
1
1
1
1
1
1.07565
1.03336
1.00867
1.00076
1.00003
1
1
1
1
1
1
1
1
1
1
1.06303
1.02049
1.00321
1.00017
1
1
1
1
1
1
1
1
1
1
1
1.043
1.00963
1.00082
1.00003
1
1
1
1
1
1
1
1
1
1
1
1.01962
1.00267
1.00012
1
1
1
1
1
1
1
1
1
1
1
1
1
1
1
1
1
1
1
1
1
1
1
1
1
1
1
1
1
1
1
1
1
1
1
1
1
1
1
1
1
1
1
1
1
1
1
1
1
1
1
1
1
1
1
1
1
1
1
1
1
1
1
1
1
1
1
1
1
1
1
1
1
1
1
1
1
1
1
1
1
1
1
1
1
1
1
1
1
1
1
1
1
1
1
1
1
1
1
1
1
1
1
1
1
1
1
1
1
1
1
1
1
1
1
1
1
1
1
1
1
1
1
1
1
1
1
1
1
1
1
1
1
1
1
1
1
1
1
1
1
1
1
1
1
1
1
1
1
1
1
1
1
1
1
1
1
1
1
1
1
1
1
1
1
1
1
1
1
1
1
1
1
1
1
1
1
1
1
1
1
1
1
1
1
1
1
1
1
1
1
1
1
1
1
1
1
1
1
1
1
1
1
1
1
1
1
1
1
1
1
1
1
1
1
1
1
1
1
1
1
1
1
1
1
1
1
1
1
1
1
1
1
1
1
1
1
1
1
1
1
1
1
1
1
1
1
1
1
1
1
1
1
1
1
1
1
1
1
1
1
1
1
1
1
1
1
1
1
1
1
1
1
1
1
1
1
1
1
1
1
1
1
1
1
1
1
1
1
1
1
1
1
1
1
1
1
1
1
1
1
1
1
1
1
1
1
1
1
1
1
1
1
1
1
1
1
1
1
1
1
1
1
1
1
1
1
1
1
1
1
1
1
1
1
1
1
1
1
1
1
1
1
1
1
1
1
1
1
1
1
1
1
1
1
1
1
1
1
1
1
1
1.43537
0.999997
1
1
1
1
1
1
1
1
1
1
1
1
1
1
1
1
1
1
2.40703
2.01842
1.28693
0.999998
1
1
1
1
1
1
1
1
1
1
1
1
1
1
1
1
2.36996
2.30618
2.33695
1.90867
1.08528
0.999999
1
1
1
1
1
1
1
1
1
1
1
1
1
1
2.28565
2.26405
2.32238
2.31185
2.0541
1.23188
0.999774
1
1
1
1
1
1
1
1
1
1
1
1
1
2.24816
2.24168
2.27045
2.28876
2.30645
2.05683
1.27173
0.999479
1
1
1
1
1
1
1
1
1
1
1
1
2.23145
2.23464
2.26078
2.28386
2.29989
2.25697
1.99432
1.23625
0.99935
1
1
1
1
1
1
1
1
1
1
1
2.23233
2.23905
2.26192
2.28078
2.2898
2.26852
2.18689
1.8533
1.1302
0.999561
1
1
1
1
1
1
1
1
1
1
2.23556
2.24385
2.26039
2.27522
2.28301
2.2685
2.24878
2.16559
1.72961
1.04801
0.9998
1
1
1
1
1
1
1
1
1
2.23676
2.24328
2.25471
2.26766
2.27264
2.26321
2.23922
2.20871
2.09517
1.52657
1.00387
1
1
1
1
1
1
1
1
1
2.23565
2.23731
2.24623
2.25917
2.26342
2.25824
2.23966
2.20858
2.16836
2.0091
1.30638
0.998894
1
1
1
1
1
1
1
1
2.22842
2.22703
2.23671
2.25029
2.25505
2.25129
2.23496
2.20509
2.1805
2.15756
1.86896
1.12835
0.999422
1
1
1
1
1
1
1
2.21764
2.21629
2.22756
2.24211
2.24713
2.24373
2.22927
2.19834
2.16845
2.15187
2.06714
1.54949
1.01127
1
1
1
1
1
1
1
2.20793
2.20857
2.22059
2.23453
2.23914
2.23605
2.22111
2.18722
2.15505
2.13609
2.12975
1.98109
1.28344
0.999248
0.999991
1
1
1
1
1
2.19953
2.20045
2.21113
2.2249
2.23092
2.22883
2.21461
2.18525
2.15605
2.13767
2.13458
2.09558
1.7032
1.05416
1.00005
1
1
1
1
1
2.19539
2.19973
2.21155
2.22127
2.22488
2.21746
2.20149
2.17817
2.15504
2.13862
2.12772
2.10105
1.98733
1.32132
0.986655
0.999672
0.999999
1
1
1
1.61933
1.83921
1.92293
1.98954
2.04688
2.08552
2.10571
2.10979
2.10581
2.10129
2.09788
2.08371
2.08249
1.89213
1.26268
1.00692
1.00004
1
1
1
1.20642
1.57126
1.68757
1.78101
1.85376
1.92608
1.9768
2.01323
2.02718
2.03672
2.04286
2.04741
2.06041
2.04545
1.75895
1.16372
1.00327
1.00002
1
1
1.19743
1.37004
1.4746
1.5938
1.69472
1.77584
1.85279
1.90278
1.94272
1.95762
1.97848
1.99039
2.01973
2.02419
1.98197
1.56231
1.06181
1.0007
1
1
1.26886
1.30291
1.3186
1.40945
1.53935
1.63686
1.73307
1.79803
1.84975
1.87858
1.90762
1.93031
1.95434
1.98376
1.97502
1.83866
1.31698
1.01297
1.00008
1
1.33369
1.26491
1.24854
1.32916
1.42429
1.5257
1.61798
1.70707
1.75885
1.80966
1.84207
1.87853
1.89343
1.92471
1.95123
1.92591
1.62554
1.11421
1.00179
1.00001
1.35843
1.27242
1.22479
1.26921
1.33832
1.44093
1.52356
1.61771
1.68062
1.7377
1.78218
1.82122
1.84619
1.86699
1.91081
1.91522
1.80003
1.34024
1.01827
1.00013
1.35721
1.28681
1.23174
1.23061
1.25359
1.34092
1.43636
1.52029
1.60332
1.65552
1.71744
1.75603
1.79165
1.80918
1.85325
1.89153
1.86269
1.59879
1.10921
1.00172
1.35749
1.31089
1.2595
1.22845
1.22143
1.27848
1.36705
1.44608
1.5376
1.60013
1.65746
1.70554
1.73566
1.76598
1.80385
1.8532
1.85487
1.73521
1.30442
1.01515
1.34837
1.31216
1.26257
1.22299
1.21072
1.25186
1.32215
1.39638
1.48105
1.55857
1.61039
1.6642
1.69311
1.72718
1.76358
1.80935
1.83425
1.76773
1.46796
1.06596
1.33214
1.30676
1.25794
1.21459
1.20086
1.22348
1.27235
1.34834
1.41927
1.5077
1.56125
1.61455
1.6488
1.6809
1.71616
1.75615
1.80437
1.77925
1.59926
1.18492
1.32536
1.30069
1.25507
1.21587
1.20475
1.21229
1.22341
1.28974
1.3558
1.44183
1.50959
1.55596
1.60003
1.6321
1.67254
1.71877
1.77081
1.77534
1.68453
1.36019
1.32226
1.2992
1.25795
1.22537
1.21411
1.212
1.21417
1.26428
1.32732
1.39666
1.47312
1.51923
1.56621
1.60215
1.64302
1.68732
1.73483
1.76378
1.70041
1.52442
1.3183
1.29858
1.26534
1.23447
1.21386
1.20301
1.20443
1.24738
1.30775
1.36731
1.43894
1.48772
1.53405
1.57381
1.61227
1.65074
1.69155
1.73836
1.70218
1.65913
1.31415
1.29631
1.26751
1.23499
1.2112
1.19681
1.19838
1.22377
1.27582
1.33253
1.39122
1.44927
1.4867
1.53571
1.57499
1.61253
1.66037
1.70886
1.71005
1.76069
1.31048
1.29621
1.2675
1.23535
1.21182
1.19845
1.19957
1.21318
1.23713
1.29183
1.3368
1.40377
1.44175
1.49608
1.5443
1.58419
1.62917
1.67745
1.73321
1.84238
1.29641
1.28419
1.26164
1.23471
1.21348
1.20335
1.20738
1.21535
1.22843
1.2738
1.31383
1.37353
1.4197
1.46302
1.51564
1.55831
1.59258
1.64028
1.74097
1.91727
1.28127
1.25671
1.24999
1.23319
1.21585
1.20886
1.21019
1.21234
1.2195
1.25694
1.29715
1.34386
1.39767
1.43428
1.47823
1.52552
1.5633
1.6143
1.74501
1.98173
1.24675
1.21943
1.22689
1.22644
1.21582
1.20923
1.20684
1.2007
1.20418
1.22826
1.27674
1.31739
1.36211
1.40602
1.44492
1.48666
1.53103
1.5915
1.7598
2.02962
1.19205
1.17559
1.19263
1.2085
1.2119
1.20692
1.20268
1.19705
1.20142
1.21158
1.24405
1.29309
1.33038
1.3723
1.41704
1.45904
1.49926
1.56287
1.75702
2.05399
1.1573
1.13512
1.14619
1.17953
1.20125
1.20243
1.20032
1.19768
1.20184
1.20985
1.21653
1.25775
1.30143
1.33995
1.38373
1.42646
1.46988
1.56139
1.77557
2.08113
1.15649
1.10388
1.10066
1.14715
1.18226
1.195
1.1955
1.19363
1.19732
1.20255
1.20305
1.22709
1.26798
1.31081
1.35216
1.39292
1.44055
1.56332
1.77462
2.07313
1.17476
1.099
1.08194
1.11286
1.15211
1.17983
1.18671
1.18557
1.18537
1.18742
1.19211
1.21139
1.23668
1.2769
1.31606
1.35927
1.41837
1.57455
1.76749
2.04586
1.22148
1.12455
1.08708
1.08877
1.11303
1.15541
1.17793
1.17801
1.17609
1.17569
1.17817
1.19271
1.21151
1.24444
1.28114
1.32475
1.39992
1.60162
1.76309
2.01552
1.257
1.15611
1.0977
1.07843
1.08335
1.12328
1.15959
1.17329
1.17198
1.17005
1.16948
1.17689
1.18753
1.21548
1.24851
1.29278
1.40479
1.63442
1.74675
1.96811
1.30621
1.20844
1.15635
1.10989
1.0875
1.09678
1.12001
1.14801
1.15785
1.15753
1.15589
1.15195
1.15042
1.1713
1.20379
1.28207
1.45453
1.65466
1.6996
1.86553
)
;

boundaryField
{
    inlet
    {
        type            fixedValue;
        value           uniform 1;
    }
    outlet
    {
        type            inletOutlet;
        inletValue      uniform 1;
        value           nonuniform List<scalar> 
35
(
1.30625
1.2084
1.15629
1.10982
1.08741
1.0967
1.11989
1.14789
1.15772
1.15732
1.15558
1.15158
1.15005
1.17096
1.20348
1.28138
1.453
1.65344
1.69896
1.86552
1.45269
1.57537
1.58458
1.33802
0.913852
0.639447
0.69601
0.74734
0.82061
0.897253
0.978382
1.02286
1.0265
1.01699
1.00419
)
;
    }
    airfoil
    {
        type            zeroGradient;
    }
    top
    {
        type            symmetryPlane;
    }
    bottom
    {
        type            symmetryPlane;
    }
    defaultFaces
    {
        type            empty;
    }
}


// ************************************************************************* //
