/*--------------------------------*- C++ -*----------------------------------*\
  =========                 |
  \\      /  F ield         | OpenFOAM: The Open Source CFD Toolbox
   \\    /   O peration     | Website:  https://openfoam.org
    \\  /    A nd           | Version:  7
     \\/     M anipulation  |
\*---------------------------------------------------------------------------*/
FoamFile
{
    version     2.0;
    format      ascii;
    class       volScalarField;
    location    "1.5";
    object      rho;
}
// * * * * * * * * * * * * * * * * * * * * * * * * * * * * * * * * * * * * * //

dimensions      [1 -3 0 0 0 0 0];

internalField   nonuniform List<scalar> 
90000
(
0.410618
0.434458
0.460954
0.486055
0.508412
0.532198
0.556572
0.578566
0.600281
0.623796
0.647439
0.671288
0.695672
0.720769
0.747008
0.77315
0.799952
0.828358
0.856356
0.885284
0.914797
0.944995
0.974808
1.00549
1.0358
1.06814
1.09664
1.12403
1.14301
1.1561
1.15878
1.16107
1.16491
1.16659
1.16446
1.16289
1.16111
1.15629
1.15022
1.14326
1.13624
1.12856
1.12133
1.1134
1.1029
1.09337
1.09665
1.10349
1.11323
1.12402
1.13411
1.14616
1.15519
1.16246
1.16785
1.17054
1.16855
1.16213
1.14942
1.13735
1.13001
1.12648
1.13059
1.14056
1.15315
1.16328
1.16628
1.16388
1.15747
1.14794
1.13971
1.13942
1.14328
1.14995
1.15322
1.15181
1.14665
1.1352
1.13211
1.13476
1.13942
1.14772
1.15194
1.15638
1.16469
1.17741
1.19006
1.19922
1.21086
1.22645
1.24048
1.25761
1.26541
1.26837
1.27461
1.28247
1.2911
1.29347
1.29325
1.2855
0.391848
0.391893
0.391943
0.391998
0.392058
0.392124
0.39219
0.392261
0.392333
0.392422
0.392507
0.392772
0.39343
0.394743
0.397064
0.40047
0.405515
0.412114
0.421183
0.432266
0.446848
0.464043
0.485512
0.510716
0.540955
0.575517
0.616676
0.66307
0.711929
0.760505
0.807515
0.852224
0.893749
0.932253
0.965256
0.993573
1.02152
1.0389
1.05828
1.06955
1.082
1.08741
1.095
1.09859
1.10367
1.10773
1.11956
1.12919
1.1411
1.14892
1.15576
1.16279
1.16609
1.1674
1.1704
1.16756
1.15119
1.13461
1.12243
1.12381
1.12882
1.1321
1.13841
1.14442
1.15356
1.16203
1.15949
1.15092
1.13902
1.13289
1.13458
1.13654
1.1435
1.15303
1.15139
1.14485
1.13258
1.12596
1.12743
1.13297
1.13925
1.14138
1.14215
1.14705
1.15639
1.1709
1.18421
1.19211
1.20109
1.21399
1.22696
1.24518
1.25766
1.2639
1.27378
1.2846
1.28996
1.29102
1.29089
1.28103
0.393275
0.393372
0.39348
0.393594
0.393715
0.393841
0.393974
0.394117
0.394259
0.394403
0.394554
0.394716
0.394892
0.395121
0.395242
0.395344
0.39545
0.395573
0.395722
0.395891
0.396057
0.396205
0.396355
0.396532
0.396731
0.39692
0.397071
0.397222
0.398847
0.402645
0.411025
0.423417
0.44302
0.4674
0.500283
0.538967
0.583825
0.638434
0.69575
0.760086
0.823663
0.886059
0.946775
1.00104
1.05597
1.0953
1.12099
1.1331
1.14579
1.15293
1.16023
1.16513
1.16782
1.16495
1.15316
1.12976
1.09722
1.10048
1.1109
1.12493
1.13695
1.15334
1.16446
1.16359
1.16069
1.15564
1.14426
1.13314
1.12692
1.12836
1.13422
1.14906
1.15926
1.15744
1.14957
1.13489
1.1236
1.12504
1.12792
1.13346
1.14055
1.13855
1.13767
1.14247
1.15677
1.17157
1.18092
1.18943
1.19685
1.20607
1.21965
1.2383
1.25055
1.2626
1.27527
1.2876
1.28975
1.29067
1.29081
1.27981
0.395207
0.395304
0.395408
0.395515
0.395621
0.395727
0.395841
0.395955
0.396067
0.396175
0.396278
0.396371
0.396471
0.396581
0.396697
0.396819
0.39696
0.397117
0.39727
0.397412
0.397537
0.397652
0.397773
0.397904
0.398019
0.398099
0.398175
0.398281
0.398343
0.39836
0.39838
0.39843
0.398521
0.398642
0.398784
0.398832
0.398839
0.39884
0.399512
0.404435
0.414204
0.435069
0.464117
0.508729
0.56324
0.63545
0.709736
0.786235
0.855339
0.913524
0.966043
1.00237
1.03737
1.06317
1.07841
1.08988
1.10209
1.13201
1.14679
1.16249
1.17435
1.17991
1.17823
1.17391
1.16172
1.13824
1.12543
1.12587
1.12892
1.13857
1.15495
1.17053
1.16845
1.15729
1.13792
1.13011
1.12656
1.12951
1.13757
1.14187
1.14026
1.13423
1.13494
1.14241
1.15838
1.17258
1.18163
1.1888
1.1947
1.20209
1.21509
1.23323
1.24671
1.26336
1.27888
1.28973
1.29029
1.29069
1.29083
1.28003
0.396922
0.396967
0.397011
0.397058
0.397104
0.397151
0.397204
0.397263
0.397325
0.397382
0.397431
0.397471
0.397522
0.397587
0.397652
0.397725
0.397811
0.397898
0.397975
0.39803
0.398058
0.39809
0.398149
0.398242
0.398302
0.398326
0.39836
0.398448
0.398499
0.398501
0.398506
0.398537
0.398619
0.398793
0.398883
0.398888
0.398888
0.398895
0.398904
0.398914
0.398921
0.398925
0.39891
0.398861
0.398869
0.398893
0.400449
0.410538
0.429495
0.46697
0.515523
0.584134
0.666778
0.76267
0.865001
0.972419
1.05752
1.10696
1.12787
1.14722
1.15963
1.16627
1.1634
1.15595
1.14086
1.12448
1.12596
1.13577
1.15406
1.16889
1.17599
1.17453
1.16069
1.14143
1.13203
1.13359
1.14144
1.14936
1.1488
1.14512
1.13247
1.13157
1.13567
1.14898
1.16498
1.17593
1.18307
1.18954
1.19449
1.19949
1.21319
1.23032
1.24794
1.26831
1.28491
1.29188
1.29169
1.29171
1.29178
1.28064
0.39744
0.397453
0.397463
0.397474
0.397488
0.397508
0.397526
0.397548
0.397574
0.397609
0.397649
0.397689
0.397742
0.397803
0.397855
0.397903
0.397936
0.397961
0.397979
0.397997
0.398025
0.398055
0.398095
0.398161
0.398206
0.398223
0.398242
0.398268
0.398307
0.398352
0.398381
0.398413
0.398475
0.398626
0.398767
0.398782
0.398782
0.398802
0.398831
0.398845
0.398851
0.398852
0.398844
0.398815
0.398833
0.398883
0.398896
0.398909
0.398999
0.399103
0.399153
0.399162
0.399168
0.404786
0.424562
0.467491
0.548706
0.641701
0.754787
0.859928
0.942078
1.02169
1.0594
1.10363
1.10829
1.12882
1.14668
1.17645
1.19166
1.19237
1.18909
1.16633
1.13507
1.13048
1.1351
1.15056
1.16523
1.16572
1.15879
1.13763
1.12898
1.13129
1.14367
1.16031
1.17121
1.17514
1.18321
1.19107
1.19604
1.19998
1.21308
1.23108
1.25199
1.27273
1.28919
1.29368
1.29342
1.29359
1.29374
1.28246
0.39757
0.397582
0.3976
0.397615
0.39763
0.397637
0.397644
0.397657
0.397679
0.39771
0.397753
0.397809
0.397888
0.397961
0.398004
0.398025
0.398048
0.398069
0.398078
0.39808
0.398073
0.398062
0.398078
0.398174
0.398262
0.39827
0.39826
0.398262
0.39833
0.398413
0.398419
0.398423
0.398476
0.398696
0.398879
0.398894
0.398895
0.398921
0.398963
0.398984
0.398994
0.399003
0.399005
0.398992
0.39901
0.399067
0.399141
0.399189
0.399248
0.399352
0.399462
0.399497
0.399528
0.399534
0.399486
0.399411
0.399408
0.399405
0.408472
0.432776
0.491506
0.576071
0.702472
0.840266
0.96314
1.08503
1.13247
1.16471
1.17997
1.18135
1.16937
1.13249
1.12191
1.13447
1.15876
1.17427
1.17422
1.16814
1.14884
1.12941
1.12921
1.13899
1.15785
1.16851
1.16939
1.17339
1.18361
1.19398
1.19798
1.20105
1.21327
1.23268
1.25558
1.27431
1.29095
1.29528
1.29549
1.29636
1.29661
1.28476
0.397756
0.397771
0.397793
0.397824
0.397841
0.397849
0.397854
0.39786
0.397881
0.397928
0.397987
0.398059
0.398176
0.398235
0.398241
0.39824
0.398232
0.398226
0.39822
0.398218
0.398227
0.398233
0.398242
0.398269
0.398327
0.398401
0.398444
0.398473
0.39853
0.398609
0.398624
0.398619
0.398641
0.398795
0.399022
0.39906
0.399063
0.399093
0.399186
0.399246
0.399266
0.399289
0.399317
0.399332
0.399316
0.399335
0.399458
0.399553
0.399585
0.399623
0.399659
0.399667
0.399663
0.399648
0.399597
0.399526
0.399497
0.399472
0.399468
0.399488
0.399513
0.39954
0.401763
0.417506
0.482657
0.577471
0.722344
0.861613
0.959247
1.05881
1.08941
1.11312
1.13075
1.17516
1.19176
1.18971
1.18234
1.15073
1.13491
1.12966
1.13747
1.15729
1.17032
1.16978
1.16446
1.17268
1.18673
1.19834
1.20013
1.20307
1.21425
1.23654
1.25762
1.27432
1.29092
1.29653
1.29723
1.29875
1.29926
1.28755
0.397898
0.397903
0.397909
0.397922
0.397943
0.397964
0.39799
0.398035
0.398129
0.398213
0.398222
0.39822
0.398225
0.39828
0.398341
0.39835
0.398348
0.398348
0.398356
0.398366
0.398392
0.398428
0.398438
0.398436
0.39843
0.398451
0.398527
0.398681
0.398752
0.398764
0.398767
0.398753
0.398761
0.398835
0.399097
0.399249
0.399259
0.39925
0.399295
0.399408
0.399452
0.399466
0.399476
0.39948
0.399465
0.399468
0.399556
0.399696
0.399738
0.399754
0.399755
0.39975
0.399721
0.399672
0.399621
0.399563
0.399499
0.399473
0.39947
0.399484
0.399533
0.39958
0.399601
0.399617
0.399601
0.399352
0.406005
0.431346
0.51201
0.637127
0.811276
1.00026
1.10406
1.16036
1.17972
1.17948
1.15955
1.12118
1.13153
1.14412
1.15719
1.16739
1.16947
1.15707
1.15735
1.17132
1.19139
1.20034
1.1966
1.20074
1.21415
1.23694
1.25165
1.26723
1.2892
1.29727
1.2986
1.30073
1.30167
1.29036
0.397914
0.397915
0.397906
0.397892
0.397897
0.39792
0.397985
0.398139
0.398255
0.398266
0.398267
0.398266
0.398263
0.39828
0.398313
0.398346
0.398378
0.398388
0.398388
0.398393
0.398436
0.398504
0.398519
0.398518
0.398525
0.398553
0.398628
0.398802
0.39889
0.398905
0.398912
0.398905
0.398891
0.39892
0.399045
0.399324
0.399498
0.399518
0.399503
0.399497
0.399529
0.399545
0.399548
0.399545
0.399553
0.399585
0.39966
0.399769
0.399823
0.399837
0.399841
0.399843
0.399827
0.399739
0.399601
0.399569
0.399554
0.399506
0.399466
0.399476
0.399487
0.399508
0.399587
0.39963
0.399612
0.399463
0.399212
0.398982
0.398772
0.398311
0.418086
0.489611
0.644411
0.819662
0.952675
1.07115
1.09543
1.12164
1.16539
1.16958
1.17118
1.17127
1.15051
1.14362
1.15582
1.17995
1.19832
1.19625
1.19337
1.19897
1.21501
1.23185
1.24023
1.26138
1.28882
1.2982
1.29978
1.30232
1.30348
1.29263
0.397871
0.397889
0.39792
0.397962
0.39801
0.39807
0.39815
0.398261
0.398344
0.398356
0.398358
0.398359
0.398347
0.398338
0.398359
0.39845
0.398497
0.398505
0.398502
0.398506
0.398551
0.398623
0.398645
0.398648
0.398642
0.398655
0.398693
0.398792
0.39898
0.399068
0.39909
0.399104
0.399106
0.399066
0.399071
0.399196
0.399517
0.399678
0.399692
0.39969
0.399655
0.399596
0.399547
0.399517
0.399521
0.399563
0.399676
0.39978
0.39981
0.399817
0.399819
0.399826
0.399825
0.399787
0.399676
0.399627
0.399641
0.399656
0.399649
0.399593
0.399494
0.399484
0.399574
0.399657
0.399617
0.399437
0.399193
0.399
0.398933
0.398809
0.398507
0.398239
0.398401
0.41749
0.51008
0.678037
0.895287
1.07311
1.14784
1.15753
1.16256
1.14884
1.11659
1.13564
1.17447
1.19182
1.19802
1.18874
1.18979
1.19791
1.21418
1.22174
1.23164
1.25976
1.29243
1.30014
1.30187
1.30497
1.30608
1.29508
0.397944
0.397983
0.398032
0.398098
0.398159
0.398224
0.398361
0.398544
0.398578
0.398585
0.398597
0.398608
0.39861
0.398613
0.398624
0.398638
0.398655
0.398676
0.398704
0.398738
0.39877
0.398809
0.39888
0.39897
0.398998
0.399008
0.399012
0.398998
0.399009
0.399091
0.399169
0.399201
0.399232
0.399257
0.399277
0.399326
0.399476
0.399684
0.399726
0.399724
0.399702
0.399643
0.399574
0.399525
0.399522
0.399551
0.399628
0.39975
0.399838
0.399854
0.399859
0.399858
0.399839
0.399779
0.399773
0.399799
0.399835
0.399842
0.399833
0.399754
0.399581
0.39956
0.399684
0.399727
0.399668
0.399469
0.399239
0.399051
0.399079
0.399168
0.399124
0.3989
0.398647
0.398496
0.398328
0.398611
0.445862
0.581597
0.774689
0.930237
1.04766
1.08795
1.11189
1.17442
1.2004
1.1976
1.18259
1.186
1.19016
1.19844
1.20576
1.21021
1.22782
1.2701
1.29662
1.30204
1.3048
1.30876
1.30965
1.29804
0.398059
0.398116
0.398181
0.398254
0.398339
0.398437
0.398561
0.398707
0.398798
0.398827
0.398843
0.398864
0.398899
0.398927
0.398934
0.398939
0.398943
0.398949
0.398962
0.398986
0.399024
0.399066
0.39911
0.399159
0.39921
0.399246
0.399272
0.399317
0.399355
0.399368
0.399373
0.399365
0.399337
0.399339
0.399379
0.399474
0.399684
0.39984
0.399854
0.399851
0.399815
0.399721
0.399636
0.399573
0.39954
0.399556
0.39962
0.399712
0.399801
0.399908
0.399936
0.39992
0.399822
0.399769
0.399789
0.399899
0.400033
0.400055
0.400046
0.39995
0.399721
0.399626
0.399664
0.399684
0.399609
0.39943
0.399246
0.399105
0.399209
0.399405
0.39945
0.399392
0.399103
0.398765
0.398555
0.398278
0.397569
0.395147
0.407954
0.494056
0.659707
0.887574
1.06284
1.16077
1.18504
1.15549
1.16183
1.18559
1.19537
1.19201
1.1928
1.20196
1.23579
1.28277
1.29615
1.30223
1.30693
1.31131
1.31218
1.30043
0.398144
0.398232
0.398365
0.398519
0.398675
0.398802
0.398866
0.398878
0.398881
0.398887
0.39891
0.398965
0.399024
0.399053
0.399075
0.399105
0.399121
0.399121
0.399122
0.399127
0.399146
0.399183
0.399236
0.39929
0.399335
0.39938
0.399401
0.399406
0.399412
0.399427
0.399445
0.399447
0.399433
0.399431
0.399459
0.399536
0.399712
0.39993
0.399974
0.399978
0.399966
0.39988
0.399759
0.399666
0.399632
0.399644
0.399691
0.399756
0.399829
0.399917
0.399942
0.39991
0.399825
0.39982
0.399856
0.400042
0.400272
0.400305
0.400282
0.400118
0.399816
0.399611
0.399578
0.399604
0.399552
0.399415
0.399265
0.399261
0.399401
0.399599
0.399681
0.399666
0.39939
0.39891
0.398426
0.397817
0.396676
0.395184
0.393744
0.392134
0.391024
0.431256
0.587961
0.809881
1.00429
1.08112
1.16863
1.20475
1.20041
1.17849
1.17984
1.20248
1.25483
1.29121
1.29522
1.29972
1.30885
1.31243
1.31337
1.30182
0.398295
0.398422
0.398695
0.398906
0.398924
0.398922
0.398917
0.398913
0.398913
0.398924
0.398989
0.399044
0.399047
0.399044
0.399067
0.399122
0.399132
0.399128
0.399108
0.399106
0.399126
0.399181
0.399256
0.399344
0.399397
0.399403
0.399391
0.399377
0.399379
0.399404
0.399452
0.399459
0.399436
0.399426
0.39945
0.399532
0.399732
0.399983
0.400029
0.400028
0.399996
0.399855
0.399783
0.399793
0.399823
0.399876
0.399883
0.399885
0.399945
0.400032
0.400048
0.39997
0.399845
0.399831
0.399861
0.400074
0.400351
0.400384
0.400343
0.400072
0.399765
0.399636
0.399573
0.399577
0.399584
0.39955
0.399448
0.399459
0.399597
0.39972
0.399785
0.399767
0.399489
0.398924
0.397939
0.396936
0.39551
0.394507
0.393687
0.392592
0.390912
0.389241
0.387758
0.409058
0.549373
0.848163
1.10827
1.1919
1.18556
1.15694
1.1691
1.21381
1.26432
1.27035
1.27725
1.29878
1.31225
1.3131
1.31382
1.30238
0.398533
0.398764
0.398979
0.398999
0.398996
0.398986
0.398977
0.39897
0.398954
0.398916
0.398878
0.39887
0.398871
0.398865
0.39887
0.398923
0.398962
0.398964
0.39895
0.39894
0.398957
0.399003
0.399063
0.399134
0.399155
0.399146
0.3991
0.399071
0.399072
0.399098
0.39916
0.399229
0.399276
0.399327
0.399403
0.399519
0.399721
0.399903
0.399942
0.399952
0.39993
0.399925
0.399943
0.399991
0.400032
0.400034
0.399989
0.399917
0.399966
0.40012
0.400177
0.400133
0.399927
0.399791
0.39981
0.400044
0.400289
0.400308
0.400191
0.399756
0.399653
0.399698
0.399723
0.399695
0.399823
0.399925
0.399851
0.399735
0.399774
0.399782
0.399818
0.399781
0.399472
0.398393
0.397069
0.395855
0.394535
0.393908
0.393438
0.392407
0.390425
0.388022
0.386238
0.385375
0.384657
0.424485
0.609996
0.936526
1.08662
1.14262
1.18291
1.2332
1.23775
1.24278
1.26922
1.31156
1.31791
1.31695
1.31541
1.30337
0.398493
0.398592
0.398736
0.398852
0.398873
0.398874
0.398868
0.398852
0.398841
0.398826
0.398811
0.398806
0.39881
0.398815
0.398807
0.398811
0.398853
0.398871
0.398867
0.398847
0.398838
0.398838
0.398859
0.398866
0.398864
0.398822
0.398749
0.398746
0.398756
0.398769
0.39879
0.398836
0.398946
0.399191
0.399502
0.399572
0.399572
0.399583
0.399626
0.399713
0.399803
0.399916
0.400073
0.400128
0.400122
0.400104
0.40008
0.400042
0.400072
0.400166
0.400224
0.400195
0.399962
0.399725
0.399672
0.399779
0.399875
0.399873
0.399753
0.399497
0.399507
0.399706
0.399822
0.399884
0.400059
0.400203
0.400176
0.39994
0.399876
0.399662
0.399333
0.398809
0.397906
0.396682
0.395591
0.394623
0.393614
0.392883
0.39234
0.391234
0.389328
0.386866
0.38494
0.384119
0.383781
0.383761
0.384304
0.476937
0.801315
1.09793
1.16392
1.21526
1.20031
1.22596
1.29003
1.32283
1.31987
1.31611
1.31634
1.30605
0.398532
0.398561
0.398565
0.398578
0.398632
0.398741
0.398786
0.3988
0.398805
0.398795
0.398774
0.398769
0.398754
0.398709
0.398697
0.398722
0.398785
0.398837
0.398875
0.39888
0.398854
0.398747
0.398589
0.398523
0.398511
0.398511
0.398526
0.398574
0.398629
0.398657
0.398658
0.398631
0.398698
0.398946
0.399254
0.39931
0.399308
0.399319
0.399402
0.399517
0.399639
0.399887
0.4001
0.400129
0.400112
0.40011
0.400121
0.400088
0.400076
0.400114
0.400181
0.400168
0.399825
0.399431
0.399425
0.399477
0.399402
0.399308
0.399315
0.399327
0.399421
0.399703
0.399855
0.399947
0.400148
0.400297
0.400269
0.399916
0.398874
0.397711
0.397042
0.396456
0.395789
0.395008
0.394139
0.393321
0.39256
0.392302
0.392004
0.390996
0.388686
0.385748
0.383798
0.383364
0.383462
0.383557
0.383958
0.384064
0.416399
0.642923
0.914371
1.10493
1.17249
1.24103
1.33111
1.3329
1.30935
1.31477
1.31933
1.3109
0.398659
0.398662
0.398665
0.398651
0.398611
0.398604
0.398629
0.3987
0.39872
0.398705
0.3987
0.398703
0.398693
0.398601
0.398479
0.398466
0.398506
0.398661
0.398816
0.398835
0.398807
0.398669
0.398381
0.398246
0.398242
0.398258
0.398374
0.39867
0.398791
0.398813
0.3988
0.39868
0.398695
0.398894
0.399043
0.399073
0.399099
0.399067
0.398965
0.398925
0.399045
0.399582
0.399769
0.399764
0.399773
0.399803
0.399725
0.399682
0.399664
0.399642
0.399695
0.399656
0.399241
0.398678
0.39873
0.398848
0.398786
0.398709
0.39884
0.398854
0.398689
0.398554
0.398599
0.398933
0.399154
0.399157
0.399078
0.39861
0.397251
0.395794
0.39507
0.394718
0.39437
0.393827
0.393236
0.39272
0.392904
0.392844
0.392063
0.390319
0.387178
0.384725
0.38336
0.383314
0.383992
0.384416
0.384676
0.384293
0.384605
0.388856
0.488241
0.730677
1.04264
1.20974
1.31159
1.29849
1.29571
1.3227
1.32735
1.3144
0.397801
0.397759
0.39774
0.39774
0.397792
0.397828
0.397817
0.397752
0.397596
0.397534
0.397524
0.397534
0.397581
0.397638
0.39768
0.397728
0.397733
0.397699
0.397687
0.397761
0.398001
0.398114
0.398096
0.398065
0.398055
0.398129
0.398343
0.398448
0.398488
0.398508
0.398518
0.398477
0.398506
0.398628
0.398654
0.398575
0.398541
0.398534
0.398422
0.398122
0.397702
0.397527
0.397542
0.397543
0.397476
0.397405
0.397267
0.397032
0.396974
0.397058
0.397361
0.397453
0.397366
0.397312
0.397432
0.397528
0.397534
0.39769
0.398101
0.398173
0.39807
0.397932
0.397818
0.397891
0.397863
0.397751
0.397553
0.396953
0.395728
0.394807
0.394361
0.394078
0.393838
0.393304
0.393643
0.394179
0.394081
0.393488
0.391885
0.389142
0.386174
0.384408
0.383536
0.384629
0.38695
0.388358
0.38764
0.387737
0.38998
0.393546
0.398112
0.41102
0.535666
0.782369
1.07561
1.1808
1.29383
1.33862
1.33707
1.31914
0.395339
0.395485
0.395603
0.395603
0.395649
0.395733
0.395731
0.395693
0.395617
0.395535
0.395448
0.395436
0.395521
0.395719
0.395924
0.396121
0.396241
0.396242
0.396199
0.396193
0.396318
0.396419
0.39639
0.396349
0.396439
0.396737
0.396823
0.396814
0.396745
0.39675
0.396909
0.397013
0.396941
0.396837
0.396828
0.396806
0.396738
0.396661
0.396576
0.396325
0.396005
0.396023
0.396119
0.396082
0.395817
0.395453
0.395182
0.395007
0.395012
0.395179
0.395725
0.396335
0.396469
0.396547
0.396553
0.396586
0.396722
0.397223
0.398072
0.398374
0.398508
0.398307
0.397808
0.397362
0.397145
0.396889
0.396529
0.395687
0.394927
0.394466
0.394245
0.393932
0.393925
0.394503
0.395856
0.395965
0.395607
0.394301
0.392021
0.388888
0.386369
0.386915
0.389856
0.392701
0.393437
0.394626
0.395825
0.397656
0.400517
0.404587
0.409247
0.417408
0.425773
0.449545
0.560717
0.866717
1.22687
1.31881
1.32066
1.31661
0.393312
0.393498
0.393679
0.393795
0.393818
0.393839
0.393891
0.394038
0.394239
0.394269
0.394259
0.394283
0.394449
0.394588
0.394582
0.394572
0.394702
0.394993
0.395061
0.395021
0.394966
0.395016
0.395008
0.394914
0.394933
0.395132
0.395261
0.395244
0.395002
0.394757
0.394755
0.394744
0.394655
0.394461
0.394235
0.39418
0.394241
0.394532
0.394924
0.394967
0.394876
0.394839
0.395035
0.395202
0.395161
0.394866
0.394554
0.394493
0.394553
0.394793
0.395401
0.39617
0.396397
0.396552
0.3969
0.397459
0.397978
0.398643
0.399538
0.399615
0.399476
0.398984
0.39759
0.396681
0.396691
0.396591
0.396231
0.395247
0.394652
0.395105
0.396054
0.397249
0.398412
0.400017
0.400017
0.399575
0.399085
0.398151
0.396185
0.394671
0.396924
0.400074
0.402868
0.402354
0.401313
0.401835
0.403593
0.406968
0.409783
0.412993
0.416675
0.42366
0.433825
0.446461
0.45564
0.49822
0.701181
1.03641
1.26162
1.31974
0.396101
0.396087
0.396037
0.395939
0.395945
0.396018
0.396045
0.396054
0.396053
0.395976
0.395773
0.395631
0.39559
0.395546
0.395454
0.395329
0.39534
0.395403
0.395412
0.395333
0.395272
0.395148
0.39471
0.394345
0.394326
0.394427
0.394502
0.394496
0.394253
0.393931
0.393919
0.393911
0.393781
0.393769
0.393808
0.393893
0.394034
0.39446
0.395003
0.395124
0.395125
0.39524
0.395561
0.395725
0.395852
0.395968
0.395974
0.395956
0.396078
0.396512
0.397382
0.398354
0.399157
0.399775
0.399937
0.399939
0.400163
0.400164
0.400114
0.399772
0.399139
0.398269
0.3969
0.39669
0.397055
0.397794
0.398471
0.399679
0.402267
0.405533
0.407582
0.409106
0.409173
0.408522
0.407032
0.405942
0.40515
0.403793
0.405002
0.408537
0.41174
0.411864
0.410667
0.410306
0.411739
0.4148
0.418727
0.421233
0.422758
0.425698
0.429007
0.432537
0.44221
0.456612
0.470657
0.484042
0.493489
0.628509
1.00182
1.28391
0.394434
0.394476
0.394434
0.394272
0.394252
0.394353
0.394658
0.394737
0.394731
0.394521
0.394185
0.394139
0.394225
0.394395
0.394418
0.394349
0.394363
0.394549
0.394714
0.394782
0.394815
0.394702
0.39421
0.394047
0.394107
0.394163
0.394167
0.394115
0.393913
0.393845
0.393874
0.39389
0.394005
0.394282
0.394621
0.394866
0.395274
0.396414
0.397384
0.397668
0.39803
0.398774
0.399977
0.401252
0.402203
0.402759
0.403039
0.403321
0.403659
0.403855
0.403955
0.404353
0.404936
0.404956
0.404743
0.404533
0.404154
0.404073
0.404196
0.404023
0.404225
0.405267
0.407425
0.409673
0.411313
0.412956
0.414848
0.416323
0.416985
0.417541
0.41772
0.417565
0.416814
0.415187
0.414132
0.414967
0.417614
0.422146
0.425491
0.427265
0.426016
0.423345
0.423049
0.424368
0.426461
0.429034
0.432234
0.432741
0.433628
0.436697
0.442115
0.45056
0.46151
0.474657
0.485515
0.495885
0.508386
0.51741
0.568753
0.973667
0.397345
0.397687
0.397991
0.398111
0.398211
0.398428
0.398871
0.399376
0.399771
0.400112
0.400426
0.400665
0.400904
0.401247
0.401746
0.402287
0.402524
0.402641
0.402918
0.403684
0.404455
0.404775
0.405024
0.405359
0.405824
0.406133
0.406206
0.406287
0.406528
0.406957
0.407475
0.408205
0.40917
0.409676
0.40996
0.41016
0.410605
0.411326
0.411949
0.41248
0.413223
0.413956
0.414256
0.414267
0.414302
0.414565
0.414708
0.414815
0.415057
0.415173
0.415225
0.415248
0.414973
0.414541
0.414616
0.415117
0.415993
0.416469
0.41702
0.418294
0.420422
0.423176
0.42592
0.428039
0.428429
0.428212
0.428213
0.428529
0.428369
0.427312
0.427191
0.427971
0.429926
0.433089
0.436821
0.439772
0.442698
0.443507
0.443076
0.441709
0.438552
0.437625
0.438592
0.440395
0.442747
0.44412
0.445407
0.447507
0.450573
0.45307
0.458486
0.467118
0.477159
0.489252
0.501606
0.508612
0.515971
0.526145
0.534941
0.704894
0.419979
0.420182
0.420356
0.420368
0.420362
0.420401
0.420618
0.421086
0.421636
0.422009
0.422132
0.422196
0.422322
0.422522
0.422571
0.422502
0.422483
0.422523
0.422733
0.4231
0.423328
0.423381
0.423514
0.423871
0.423943
0.423962
0.424092
0.424361
0.424416
0.424379
0.424438
0.424592
0.424562
0.424222
0.423977
0.424039
0.424033
0.423751
0.423293
0.423141
0.423166
0.423177
0.422976
0.42273
0.422852
0.423376
0.423853
0.424354
0.425069
0.426063
0.427229
0.428378
0.429442
0.430861
0.432772
0.435057
0.43729
0.439405
0.441109
0.442264
0.443068
0.443928
0.445289
0.447068
0.448093
0.448126
0.448149
0.448684
0.449997
0.451313
0.452356
0.453619
0.455627
0.457201
0.458493
0.45844
0.457619
0.456418
0.454863
0.451911
0.452303
0.454338
0.456738
0.458748
0.461203
0.462316
0.463131
0.463982
0.465098
0.467273
0.470786
0.476485
0.485184
0.49563
0.508939
0.521935
0.532376
0.53468
0.538414
0.565797
0.43936
0.439417
0.439643
0.439708
0.439303
0.438664
0.438541
0.438636
0.439046
0.439326
0.439314
0.439272
0.439332
0.439356
0.439109
0.438845
0.438835
0.438895
0.439112
0.439499
0.439899
0.440168
0.440487
0.44083
0.441178
0.441629
0.442165
0.442897
0.44389
0.444756
0.44534
0.445913
0.446665
0.447609
0.448559
0.449269
0.449861
0.450552
0.451125
0.451387
0.451533
0.451898
0.452819
0.454268
0.455792
0.457203
0.458606
0.460017
0.461537
0.463003
0.46418
0.46535
0.466628
0.467523
0.46801
0.468378
0.468482
0.468681
0.468905
0.468799
0.468732
0.468786
0.468659
0.468093
0.467792
0.467966
0.468522
0.469287
0.47031
0.471439
0.472508
0.47296
0.473435
0.473627
0.473712
0.473633
0.473657
0.474188
0.474539
0.475232
0.475628
0.475704
0.475669
0.475498
0.474977
0.475403
0.476506
0.477882
0.479132
0.481478
0.485424
0.491111
0.500011
0.510572
0.517782
0.526285
0.539648
0.553333
0.560732
0.569665
0.472508
0.472841
0.4735
0.473897
0.47388
0.473622
0.473522
0.473513
0.47341
0.473423
0.473793
0.474497
0.474762
0.47475
0.474676
0.474705
0.474921
0.475049
0.475129
0.475303
0.47563
0.475962
0.476253
0.476479
0.476643
0.476795
0.476961
0.477256
0.477776
0.478428
0.479045
0.479647
0.480182
0.480591
0.480977
0.481442
0.481898
0.482259
0.482674
0.483186
0.4835
0.483673
0.483843
0.484039
0.484107
0.484035
0.483839
0.483625
0.48342
0.483
0.482431
0.482269
0.482179
0.481625
0.480982
0.481089
0.481267
0.481158
0.480574
0.480016
0.480282
0.48117
0.482339
0.483594
0.484954
0.48629
0.487883
0.490007
0.491925
0.493214
0.494427
0.494996
0.495396
0.496243
0.496387
0.496426
0.496621
0.49667
0.496557
0.495854
0.494004
0.491467
0.490773
0.491153
0.492465
0.493818
0.495206
0.497277
0.499376
0.501736
0.506301
0.511981
0.519245
0.530154
0.542298
0.551889
0.56038
0.568597
0.579755
0.590792
0.502204
0.502192
0.502161
0.502082
0.502064
0.50213
0.502077
0.501882
0.501832
0.501836
0.501858
0.501894
0.502098
0.502559
0.502737
0.502743
0.502789
0.502779
0.502767
0.502819
0.50285
0.502974
0.50319
0.503268
0.503278
0.503087
0.502717
0.502697
0.502726
0.502665
0.502446
0.50209
0.501744
0.50137
0.500964
0.500568
0.500186
0.50001
0.500075
0.500289
0.500592
0.501009
0.501344
0.501645
0.502117
0.502923
0.503785
0.504184
0.504275
0.504437
0.504782
0.505267
0.505872
0.506746
0.507966
0.509287
0.510833
0.512738
0.514696
0.516842
0.518889
0.519865
0.52038
0.520976
0.521578
0.522247
0.52254
0.522469
0.522005
0.52149
0.520959
0.520337
0.519642
0.518961
0.518141
0.517771
0.517462
0.516799
0.515917
0.515076
0.514526
0.514661
0.51469
0.514845
0.515457
0.516101
0.516188
0.516342
0.516883
0.518364
0.521598
0.526508
0.530811
0.538387
0.551744
0.565427
0.577808
0.586459
0.591546
0.603277
0.533839
0.53413
0.534419
0.534433
0.534293
0.534208
0.534246
0.534235
0.53424
0.534329
0.534357
0.534367
0.534474
0.534679
0.534737
0.534847
0.534979
0.534977
0.535112
0.535513
0.535703
0.535687
0.53568
0.535818
0.536365
0.536611
0.536717
0.536909
0.537224
0.537593
0.537922
0.538209
0.538543
0.538825
0.539071
0.539414
0.539586
0.539655
0.539824
0.540115
0.540179
0.540219
0.540409
0.540871
0.541371
0.541868
0.542378
0.54292
0.543585
0.544192
0.544523
0.544706
0.544931
0.545163
0.545188
0.54501
0.544651
0.54429
0.543974
0.543797
0.54352
0.542844
0.541957
0.541153
0.54019
0.539165
0.538233
0.536811
0.535321
0.53522
0.534906
0.535085
0.53589
0.537154
0.538542
0.540338
0.541176
0.541093
0.540762
0.539969
0.538246
0.535517
0.533025
0.53148
0.530168
0.530486
0.531338
0.532648
0.534501
0.53638
0.538461
0.543517
0.552181
0.5626
0.57494
0.582982
0.585879
0.595232
0.606058
0.61563
0.568942
0.569111
0.569358
0.569401
0.569383
0.569362
0.569366
0.569321
0.569243
0.569245
0.569257
0.56918
0.568879
0.568775
0.568854
0.568879
0.568926
0.568997
0.569016
0.568906
0.568629
0.568588
0.568663
0.568685
0.56849
0.568273
0.568259
0.568201
0.56811
0.568145
0.568195
0.568165
0.568024
0.567995
0.568107
0.56833
0.568509
0.568521
0.568448
0.568312
0.568206
0.568125
0.567979
0.567633
0.567075
0.566454
0.565822
0.565265
0.56482
0.564413
0.56402
0.563626
0.563317
0.563181
0.563048
0.562633
0.562346
0.562439
0.562433
0.562096
0.561561
0.561586
0.562022
0.563121
0.564849
0.566513
0.567307
0.568016
0.569487
0.571081
0.571955
0.572958
0.573104
0.572898
0.572285
0.57115
0.569833
0.567904
0.565248
0.562304
0.558775
0.554484
0.553049
0.553821
0.555629
0.557305
0.55835
0.558716
0.559524
0.559359
0.559484
0.561747
0.56898
0.580148
0.591395
0.6024
0.609345
0.614346
0.621613
0.633963
0.60504
0.605567
0.606459
0.606608
0.606609
0.606611
0.606656
0.606761
0.606812
0.606783
0.606519
0.606166
0.606121
0.606144
0.606095
0.60582
0.605567
0.605557
0.605606
0.605619
0.605766
0.605933
0.605953
0.605899
0.605655
0.605384
0.605346
0.60538
0.605374
0.605284
0.605242
0.605217
0.605116
0.604898
0.604612
0.604498
0.604478
0.60438
0.604184
0.604189
0.604259
0.60425
0.604264
0.604558
0.6049
0.605056
0.605094
0.605126
0.605223
0.60535
0.605389
0.605341
0.605301
0.605346
0.605301
0.605295
0.605679
0.606402
0.606508
0.606387
0.606142
0.605916
0.605552
0.605229
0.604854
0.604205
0.603209
0.602069
0.600976
0.59953
0.598067
0.596356
0.594014
0.591357
0.588784
0.586792
0.585235
0.583758
0.581914
0.580246
0.580065
0.580576
0.581506
0.582385
0.582071
0.580997
0.579279
0.577505
0.574963
0.574765
0.57638
0.580636
0.586568
0.591726
0.597038
0.607235
0.621
0.630108
0.637314
0.649504
0.648505
0.647841
0.64616
0.64556
0.64548
0.645687
0.646739
0.647258
0.647295
0.647269
0.647023
0.646987
0.647074
0.646932
0.646244
0.645941
0.646049
0.646093
0.645657
0.645228
0.645278
0.645342
0.645208
0.644998
0.64492
0.644845
0.644656
0.644358
0.643915
0.643801
0.643809
0.643641
0.643211
0.643123
0.643055
0.642765
0.642568
0.642497
0.642359
0.642043
0.641674
0.641371
0.640964
0.640637
0.640459
0.640247
0.639915
0.639289
0.638631
0.638227
0.637911
0.637505
0.637022
0.636467
0.635772
0.635015
0.634212
0.633233
0.632109
0.631065
0.630219
0.629481
0.628809
0.628044
0.626863
0.625443
0.624255
0.623504
0.623254
0.622907
0.622067
0.621793
0.622264
0.623195
0.623596
0.624027
0.624207
0.624149
0.62303
0.620109
0.616084
0.612055
0.609101
0.606506
0.603906
0.601817
0.599701
0.599368
0.600112
0.602851
0.60674
0.611111
0.61685
0.623838
0.630836
0.638405
0.645927
0.65494
0.665003
0.676762
0.692741
0.692651
0.692185
0.69141
0.690929
0.690855
0.691206
0.691502
0.691153
0.690156
0.68984
0.690027
0.690234
0.690195
0.689941
0.689999
0.69015
0.689815
0.68875
0.688408
0.688519
0.6886
0.688382
0.687856
0.687742
0.687816
0.687719
0.687103
0.686446
0.685981
0.685502
0.685416
0.685473
0.685349
0.684869
0.68432
0.684003
0.683767
0.683396
0.682761
0.682235
0.68186
0.681563
0.681134
0.680689
0.680409
0.680195
0.679883
0.679199
0.678456
0.677939
0.677405
0.676663
0.676111
0.675723
0.675253
0.674652
0.67409
0.673566
0.672983
0.672319