/*--------------------------------*- C++ -*----------------------------------*\
  =========                 |
  \\      /  F ield         | OpenFOAM: The Open Source CFD Toolbox
   \\    /   O peration     | Website:  https://openfoam.org
    \\  /    A nd           | Version:  7
     \\/     M anipulation  |
\*---------------------------------------------------------------------------*/
FoamFile
{
    version     2.0;
    format      ascii;
    class       volScalarField;
    location    "9.3";
    object      p;
}
// * * * * * * * * * * * * * * * * * * * * * * * * * * * * * * * * * * * * * //

dimensions      [1 -1 -2 0 0 0 0];

internalField   nonuniform List<scalar> 
1750
(
0.252638
0.499747
0.615133
0.600271
0.623645
0.698896
0.754387
0.809987
0.909826
0.976523
0.0228365
0.10665
0.407321
0.681371
0.848555
0.884706
0.864535
0.901956
0.959635
0.981147
0.0212871
0.0231871
0.0480309
0.214055
0.520111
0.756158
0.902565
0.9951
0.968408
0.961854
0.0293128
0.0412932
0.0561993
0.0596046
0.086886
0.202051
0.443065
0.670035
0.780371
0.921845
0.0615858
0.0744368
0.0920613
0.100822
0.102357
0.107007
0.113719
0.179014
0.323136
0.620618
0.127772
0.128841
0.137259
0.150421
0.161002
0.167725
0.17346
0.185151
0.188101
0.261239
0.254298
0.252582
0.249559
0.251902
0.256933
0.26106
0.264021
0.263356
0.26403
0.267504
0.461071
0.44057
0.427134
0.414162
0.397782
0.38335
0.374597
0.365789
0.355993
0.341489
0.769785
0.73082
0.690871
0.655756
0.622553
0.586744
0.556967
0.532169
0.509676
0.47663
1.02616
1.00142
0.969285
0.932062
0.891122
0.847838
0.801328
0.754323
0.715658
0.654005
1.0818
1.07898
1.07397
1.06663
1.05461
1.03724
1.01309
0.980988
0.945975
0.876512
1.06171
1.06512
1.06788
1.06727
1.06614
1.06457
1.06223
1.05796
1.05169
1.02798
1.01708
1.02202
1.02787
1.03426
1.04016
1.04514
1.04897
1.05217
1.05181
1.05005
1.00103
1.00172
1.0028
1.00459
1.00713
1.01069
1.015
1.02048
1.026
1.03374
1.00002
1.00003
1.00007
1.00014
1.00028
1.00057
1.00112
1.00213
1.00369
1.00875
0.0259623
0.0186306
0.0201141
0.0261615
0.0563862
0.127811
0.254679
0.479712
0.803187
1.04383
1.08295
1.05754
1.01293
1.00068
1.00001
0.0250097
0.0185928
0.0205894
0.0360346
0.0800094
0.169686
0.322479
0.587728
0.914867
1.08055
1.08462
1.04733
1.00742
1.00027
1
0.0233638
0.017798
0.0201789
0.0455797
0.0965419
0.194322
0.378209
0.685319
0.990524
1.0931
1.08504
1.03717
1.00441
1.00013
1
0.0209348
0.0151172
0.0203233
0.0511096
0.110223
0.227437
0.476536
0.802099
1.04719
1.09841
1.07861
1.02666
1.00222
1.00005
1
0.0195107
0.0128913
0.026391
0.054972
0.134672
0.309808
0.587591
0.899866
1.08312
1.10016
1.06971
1.01676
1.00101
1.00002
1
0.0200677
0.012959
0.0335247
0.0675313
0.176959
0.406189
0.700671
0.989483
1.10308
1.10037
1.05506
1.00958
1.00044
1.00001
1
0.0169482
0.0169598
0.0368819
0.103783
0.262538
0.510692
0.828199
1.06224
1.11136
1.09489
1.03994
1.0051
1.00018
1
1
0.0130038
0.0174341
0.0393277
0.151608
0.359642
0.647431
0.955994
1.10309
1.11432
1.08467
1.02595
1.00222
1.00006
1
1
0.0104524
0.0191435
0.0720826
0.228274
0.48442
0.814666
1.04948
1.12073
1.11536
1.06681
1.01362
1.00082
1.00002
1
1
0.00614729
0.0320277
0.138006
0.35212
0.662812
0.957881
1.10611
1.12635
1.10588
1.04404
1.00635
1.00029
1.00001
1
1
0.00184576
0.0426504
0.22741
0.525754
0.858774
1.06595
1.1294
1.12738
1.08593
1.02506
1.00234
1.00008
1
1
1
0.00329273
0.112294
0.393876
0.749153
1.01229
1.12324
1.13449
1.1173
1.05866
1.01173
1.00075
1.00002
1
1
1
0.0291784
0.265236
0.646519
0.954144
1.10627
1.1404
1.13505
1.09515
1.03457
1.00448
1.00021
1.00001
1
1
1
0.146647
0.499624
0.904165
1.09472
1.14347
1.14315
1.12232
1.06703
1.0156
1.00126
1.00004
1
1
1
1
0.532264
0.894366
1.09501
1.14512
1.14787
1.13808
1.09941
1.03686
1.00499
1.00026
1.00001
1
1
1
1
1.14845
1.15185
1.1568
1.1522
1.14451
1.11797
1.0625
1.01254
1.00064
1.00001
1
1
1
1
1
1.14744
1.15024
1.155
1.14839
1.14099
1.11345
1.05412
1.01215
1.00101
1.00003
1
1
1
1
1
1.14783
1.15051
1.15578
1.14609
1.13311
1.09609
1.03529
1.00448
1.00017
1
1
1
1
1
1
1.1496
1.1513
1.1554
1.14383
1.125
1.07903
1.02228
1.00201
1.00006
1
1
1
1
1
1
1.15245
1.15164
1.15354
1.14048
1.11534
1.05737
1.01177
1.00078
1.00002
1
1
1
1
1
1
1.15464
1.15114
1.14756
1.1345
1.09913
1.04083
1.00613
1.00028
1.00001
1
1
1
1
1
1
1.15575
1.15231
1.14334
1.12929
1.08323
1.02468
1.00236
1.00008
1
1
1
1
1
1
1
1.15617
1.15401
1.13929
1.11798
1.05857
1.01188
1.00081
1.00002
1
1
1
1
1
1
1
1.15482
1.15314
1.13121
1.0973
1.03902
1.00565
1.00025
1
1
1
1
1
1
1
1
1.15427
1.14924
1.12487
1.07767
1.02231
1.00199
1.00006
1
1
1
1
1
1
1
1
1.15619
1.14247
1.11205
1.05152
1.00923
1.00055
1.00001
1
1
1
1
1
1
1
1
1.15549
1.12681
1.0877
1.02965
1.00352
1.00014
1
1
1
1
1
1
1
1
1
1.15132
1.11608
1.06239
1.0135
1.00094
1.00003
1
1
1
1
1
1
1
1
1
1.15044
1.09777
1.03225
1.00382
1.00016
1
1
1
1
1
1
1
1
1
1
1.13899
1.06304
1.01192
1.00079
1.00002
1
1
1
1
1
1
1
1
1
1
1.11802
1.02485
1.00269
1.00012
1
1
1
1
1
1
1
1
1
1
1
1
1
1
1
1
1
1
1
1
1
1
1
1
1
1
1
1
1
1
1
1
1
1
1
1
1
1
1
1
1
1
1
1
1
1
1
1
1
1
1
1
1
1
1
1
1
1
1
1
1
1
1
1
1
1
1
1
1
1
1
1
1
1
1
1
1
1
1
1
1
1
1
1
1
1
1
1
1
1
1
1
1
1
1
1
1
1
1
1
1
1
1
1
1
1
1
1
1
1
1
1
1
1
1
1
1
1
1
1
1
1
1
1
1
1
1
1
1
1
1
1
1
1
1
1
1
1
1
1
1
1
1
1
1
1
1.48857
1
1
1
1
1
1
1
1
1
1.10724
1
1
1
1
1
1
1
1
1
1.01999
1
1
1
1
1
1
1
1
1
1.00406
1
1
1
1
1
1
1
1
1
1.00071
1
1
1
1
1
1
1
1
1
1.0001
1
1
1
1
1
1
1
1
1
1.00001
1
1
1
1
1
1
1
1
1
1
1
1
1
1
1
1
1
1
1
1
1
1
1
1
1
1
1
1
1
1
1
1
1
1
1
1
1
1
1
1
1
1
1
1
1
1
1
1
1
1
1
1
1
1
1
1
1
1
1
1
1
1
1
1
1
1
1
1
1
1
1
1
1
1
1
1
1
1
1
1
1
1
1
1
1
1
1
1
1
1
1
1
1
1
1
1
1
1
1
1
1
1
1
1
1
1
1
1
1
1
1
1
1
1
1
1
1
1
1
1
1
1
1
1
1
1
1
1
1
1
1
1
1
1
1
1
1
1
1
8.62441
5.62677
1.96742
1.00204
1.00035
1.00006
1.00001
1
1
1
1
1
1
1
1
1
1
1
1
1
8.96877
8.38285
7.64251
4.54627
1.23413
1.00003
1
1
1
1
1
1
1
1
1
1
1
1
1
1
8.69705
8.41703
8.53292
8.23244
6.08583
1.76739
0.999751
1
1
1
1
1
1
1
1
1
1
1
1
1
8.51024
8.36721
8.40153
8.30691
8.21073
6.69101
2.15564
0.999004
1
1
1
1
1
1
1
1
1
1
1
1
8.38278
8.29251
8.3132
8.25188
8.23469
8.22168
7.01468
2.40172
0.998161
1
1
1
1
1
1
1
1
1
1
1
8.29558
8.22852
8.24755
8.19821
8.19974
8.18489
8.14257
7.05501
2.39874
0.997669
1
1
1
1
1
1
1
1
1
1
8.23558
8.1789
8.19734
8.15465
8.15675
8.1112
8.08547
8.05196
6.81217
2.14137
0.997736
1
1
1
1
1
1
1
1
1
8.19071
8.13752
8.15284
8.11079
8.10498
8.06526
8.02786
8.01157
7.97677
6.41787
1.84309
0.997537
1.00001
1
1
1
1
1
1
1
8.14512
8.09587
8.11157
8.06705
8.0541
8.01537
7.97676
7.9327
7.86817
7.64977
5.10016
1.35651
0.998662
1.00001
1
1
1
1
1
1
8.08952
8.04471
8.05796
8.01731
7.99898
7.96799
7.92454
7.86991
7.79891
7.71391
7.40581
3.63177
1.08221
0.999635
0.999998
1
1
1
1
1
8.02288
7.98616
7.99169
7.95857
7.93977
7.91638
7.87421
7.84302
7.79506
7.7252
7.80536
7.13174
2.55814
1.01031
1
1
1
1
1
1
7.95659
7.92331
7.92371
7.89463
7.87793
7.85793
7.82931
7.80463
7.79655
7.78245
7.80077
7.71978
6.07385
1.72289
0.999333
0.999993
1
1
1
1
7.88537
7.85312
7.85056
7.81676
7.79307
7.76739
7.73672
7.70986
7.70339
7.68474
7.65953
7.61094
7.39612
4.30013
1.19282
0.99936
0.999965
1
1
1
7.76742
7.70891
7.67717
7.61244
7.56152
7.50862
7.46012
7.42628
7.41884
7.40527
7.38616
7.35729
7.31421
6.59584
2.51024
1.02089
1.00003
1
1
1
7.35475
7.08144
6.99649
6.9079
6.86597
6.84354
6.84044
6.85407
6.89401
6.92531
6.95065
6.94838
6.95768
6.91585
5.014
1.37037
0.991012
0.999481
0.999995
1
2.47267
3.6973
4.28239
4.74157
5.08779
5.4083
5.63679
5.8529
6.03272
6.18441
6.31416
6.39929
6.50996
6.66401
6.5121
3.69074
1.24806
1.00265
1.00001
1
0.734389
1.83063
2.57192
3.23031
3.73673
4.12571
4.511
4.82875
5.11052
5.39211
5.58479
5.7839
5.96012
6.20043
6.37241
5.91241
2.73329
1.10663
1.0011
1.00001
0.771578
1.3352
1.64608
2.09652
2.69194
3.17094
3.60862
3.97216
4.3327
4.65131
4.94496
5.1926
5.45089
5.72882
6.00888
5.95877
4.78624
1.83147
1.02555
1.00016
0.920947
1.1174
1.25097
1.61135
2.00142
2.44647
2.87817
3.29298
3.67916
4.00095
4.36776
4.63146
4.96724
5.26417
5.51277
5.72044
5.51221
3.38354
1.26292
1.00413
0.977614
0.975586
1.00915
1.28771
1.59338
1.97231
2.33936
2.72691
3.09244
3.46498
3.80146
4.11325
4.47192
4.80773
5.03354
5.30037
5.42808
4.73118
2.07783
1.04732
1.03897
0.988165
0.999516
1.10606
1.27462
1.57482
1.91828
2.27581
2.62379
3.0109
3.33926
3.70987
4.01912
4.40704
4.63561
4.89869
5.22193
5.08354
3.34488
1.31489
1.1039
1.04291
1.04342
1.07826
1.13956
1.33814
1.60731
1.92585
2.27303
2.62933
2.98651
3.35521
3.66645
4.00993
4.2767
4.49638
4.84409
5.02032
4.30151
2.04651
1.11716
1.08526
1.07447
1.03597
1.05017
1.21166
1.41648
1.6661
1.98267
2.30385
2.66119
2.98481
3.3498
3.62236
3.92141
4.17324
4.49131
4.84965
4.49941
3.31626
1.11421
1.09131
1.07145
1.02469
1.01189
1.08555
1.23176
1.45789
1.71925
2.01333
2.34804
2.66609
3.02971
3.34313
3.62031
3.91182
4.20384
4.54299
4.602
4.9599
1.11562
1.09812
1.07121
1.03279
1.0315
1.0753
1.12667
1.2927
1.52571
1.8069
2.11196
2.45103
2.73681
3.08926
3.35992
3.63681
3.88719
4.23879
4.88528
6.76465
1.10824
1.09507
1.07741
1.06275
1.05801
1.06673
1.08776
1.2177
1.39497
1.64463
1.91988
2.25217
2.52052
2.81683
3.09501
3.36286
3.6087
3.95734
5.13424
8.82917
1.0891
1.08295
1.08746
1.0873
1.06991
1.04315
1.04002
1.14054
1.28043
1.48965
1.73861
2.0244
2.31872
2.56469
2.8583
3.12711
3.41979
3.77254
5.60539
11.0262
1.07479
1.07672
1.09427
1.09498
1.0725
1.04085
1.03098
1.07603
1.17061
1.3331
1.56536
1.819
2.12981
2.38322
2.67985
2.91822
3.21939
3.71587
6.29925
12.1755
1.07181
1.07868
1.09319
1.0994
1.07597
1.04801
1.04237
1.07605
1.1311
1.26227
1.45829
1.69024
1.96544
2.21408
2.4905
2.74742
2.9936
3.81232
6.91911
12.4318
1.07945
1.08567
1.08905
1.09511
1.0805
1.06227
1.05911
1.06783
1.09306
1.20387
1.36279
1.57737
1.81495
2.06779
2.25919
2.55697
2.86939
4.13113
7.31699
11.8934
0.924747
1.05405
1.07916
1.08851
1.08411
1.07424
1.06395
1.04615
1.05049
1.14481
1.26519
1.45638
1.65047
1.91848
2.12394
2.35887
2.82601
4.70341
7.44396
11.105
0.76427
0.947839
1.04321
1.07742
1.08906
1.07932
1.0611
1.04134
1.03996
1.10895
1.20153
1.3617
1.54189
1.75525
2.0099
2.25326
2.95602
5.39961
7.43353
10.1728
0.648687
0.820199
0.961357
1.04127
1.08091
1.0824
1.06364
1.04333
1.04347
1.0868
1.14827
1.28065
1.46528
1.63329
1.84986
2.16211
3.35806
5.97528
7.19573
9.1333
0.566464
0.6924
0.84741
0.97164
1.04814
1.07443
1.06483
1.05375
1.05338
1.06817
1.1002
1.19734
1.34509
1.52808
1.72429
2.23033
4.01656
6.32532
6.9293
8.02332
0.548683
0.609457
0.728879
0.872262
0.987372
1.05215
1.06832
1.06627
1.06241
1.05245
1.05693
1.13262
1.23641
1.41342
1.65715
2.52757
4.58123
6.26266
6.5884
7.01681
0.574433
0.567752
0.64543
0.77741
0.899565
1.00776
1.06159
1.06798
1.05909
1.04283
1.04013
1.09023
1.15124
1.29818
1.74672
3.06887
4.84886
6.06299
6.12813
6.1247
0.624468
0.578098
0.59755
0.690564
0.810678
0.935456
1.0264
1.05736
1.05189
1.03427
1.02746
1.04344
1.08966
1.32811
2.1489
3.72176
4.79813
5.63934
5.55579
5.41294
0.693143
0.625842
0.599202
0.629567
0.721555
0.843226
0.956073
1.02407
1.03966
1.02809
1.02119
1.03084
1.09516
1.5743
2.75441
4.02781
4.59657
5.05811
4.97636
4.8165
0.797313
0.711029
0.619306
0.621699
0.647109
0.744133
0.859544
0.962869
1.01643
1.01836
1.02016
1.05005
1.30061
2.22249
3.31981
3.94412
4.20857
4.49729
4.4924
4.3798
0.934015
0.866971
0.761255
0.661817
0.637974
0.661976
0.730511
0.838084
0.941085
1.03424
1.20847
1.58693
2.19883
2.81263
3.20651
3.52715
3.54659
3.69652
3.7599
3.72416
)
;

boundaryField
{
    inlet
    {
        type            fixedValue;
        value           uniform 1;
    }
    outlet
    {
        type            zeroGradient;
    }
    airfoil
    {
        type            zeroGradient;
    }
    top
    {
        type            symmetryPlane;
    }
    bottom
    {
        type            symmetryPlane;
    }
    defaultFaces
    {
        type            empty;
    }
}


// ************************************************************************* //
