/*--------------------------------*- C++ -*----------------------------------*\
  =========                 |
  \\      /  F ield         | OpenFOAM: The Open Source CFD Toolbox
   \\    /   O peration     | Website:  https://openfoam.org
    \\  /    A nd           | Version:  7
     \\/     M anipulation  |
\*---------------------------------------------------------------------------*/
FoamFile
{
    version     2.0;
    format      ascii;
    class       volScalarField;
    location    "9.3";
    object      rho;
}
// * * * * * * * * * * * * * * * * * * * * * * * * * * * * * * * * * * * * * //

dimensions      [1 -3 0 0 0 0 0];

internalField   nonuniform List<scalar> 
1750
(
0.240592
0.441267
0.55494
0.571849
0.608158
0.670698
0.727281
0.780898
0.859468
0.915921
0.0678727
0.135548
0.316634
0.490439
0.621386
0.671839
0.690589
0.737734
0.792132
0.829219
0.0810758
0.0878129
0.113951
0.240308
0.439739
0.590655
0.696016
0.771762
0.769719
0.790456
0.107215
0.139845
0.179662
0.184849
0.205102
0.298591
0.495716
0.657691
0.731958
0.826083
0.182353
0.213744
0.252787
0.26695
0.272561
0.28144
0.287355
0.353984
0.50176
0.748064
0.31473
0.317712
0.333298
0.35651
0.374418
0.385651
0.394913
0.417237
0.421504
0.502298
0.517564
0.515048
0.510506
0.514068
0.522415
0.52931
0.533926
0.532968
0.534082
0.542156
0.792554
0.768042
0.750936
0.734715
0.715056
0.697886
0.687161
0.675953
0.6635
0.644948
1.14812
1.10699
1.06348
1.02496
0.98858
0.948821
0.915049
0.886351
0.859992
0.820218
1.42174
1.39662
1.36373
1.32548
1.2833
1.23847
1.18963
1.13953
1.09804
1.02951
1.48007
1.47726
1.47225
1.46483
1.4527
1.43519
1.41076
1.37816
1.34255
1.2704
1.46068
1.46403
1.46672
1.46611
1.465
1.46344
1.46112
1.45685
1.45055
1.42661
1.41692
1.42181
1.42759
1.43391
1.43971
1.44462
1.44837
1.45153
1.45117
1.44939
1.40103
1.40172
1.40279
1.40458
1.4071
1.41064
1.41492
1.42036
1.42585
1.43348
1.40002
1.40004
1.40007
1.40014
1.40029
1.40058
1.40112
1.40213
1.40369
1.40872
0.0709891
0.0603982
0.073196
0.0974896
0.16918
0.314011
0.517683
0.813411
1.18295
1.43985
1.48119
1.45659
1.41281
1.40068
1.40002
0.067189
0.0594386
0.0766888
0.121852
0.220295
0.388156
0.612405
0.941914
1.30387
1.47797
1.48298
1.44664
1.40737
1.40027
1.40001
0.06359
0.058202
0.0770175
0.143933
0.256809
0.425672
0.68347
1.05302
1.38384
1.49095
1.48341
1.43668
1.40438
1.40013
1.40001
0.0605933
0.0560656
0.0796135
0.158929
0.286887
0.474035
0.807136
1.18254
1.44308
1.49642
1.47726
1.42634
1.40221
1.40006
1.40001
0.0591978
0.0551319
0.101636
0.170715
0.322862
0.58653
0.939321
1.28779
1.48028
1.49821
1.46856
1.41658
1.40101
1.40003
1.40001
0.0599334
0.0582024
0.120291
0.198818
0.387624
0.714969
1.06808
1.3823
1.5008
1.49846
1.45422
1.40949
1.40045
1.40001
1.40001
0.0483309
0.0651815
0.127534
0.261703
0.515491
0.844052
1.2092
1.45813
1.50923
1.49326
1.43938
1.40506
1.40018
1.40001
1.40001
0.0375239
0.0642431
0.129501
0.341872
0.650952
1.00391
1.34559
1.50016
1.51219
1.48322
1.42562
1.4022
1.40007
1.40001
1.40001
0.0292202
0.0656545
0.189201
0.458433
0.804733
1.18994
1.44383
1.51822
1.51319
1.46579
1.41349
1.40082
1.40003
1.40001
1.40001
0.018175
0.0987419
0.308461
0.626636
1.01235
1.34467
1.50259
1.52392
1.5041
1.44348
1.40631
1.40029
1.40001
1.40001
1.40001
0.0122974
0.134094
0.450783
0.847772
1.23363
1.45908
1.52661
1.52497
1.4847
1.42482
1.40233
1.40009
1.40001
1.40001
1.40001
0.0420886
0.270941
0.680412
1.10721
1.39958
1.51893
1.53193
1.51561
1.45802
1.41163
1.40076
1.40003
1.40001
1.40001
1.40001
0.179055
0.532302
0.991491
1.33184
1.49922
1.53702
1.53256
1.49405
1.43425
1.40445
1.40022
1.40001
1.40001
1.40001
1.40001
0.427667
0.858356
1.28025
1.48334
1.53917
1.53998
1.52102
1.46647
1.41547
1.40126
1.40005
1.40001
1.40001
1.40001
1.40001
0.902402
1.26917
1.47739
1.5382
1.54421
1.53689
1.49868
1.43652
1.40495
1.40026
1.40001
1.40001
1.40001
1.40001
1.40001
1.52512
1.53335
1.54535
1.54679
1.54419
1.51702
1.46176
1.41244
1.40064
1.40001
1.40001
1.40001
1.40001
1.40001
1.40001
1.52287
1.53009
1.5429
1.5435
1.53896
1.51244
1.45372
1.41212
1.40101
1.40004
1.40001
1.40001
1.40001
1.40001
1.40001
1.52283
1.53015
1.54381
1.54184
1.53233
1.49546
1.43501
1.40445
1.40018
1.40001
1.40001
1.40001
1.40001
1.40001
1.40001
1.52381
1.53054
1.54389
1.54022
1.52431
1.47856
1.42214
1.402
1.40007
1.40001
1.40001
1.40001
1.40001
1.40001
1.40001
1.52563
1.53053
1.54253
1.53754
1.51498
1.45719
1.41172
1.40078
1.40002
1.40001
1.40001
1.40001
1.40001
1.40001
1.40001
1.52654
1.5296
1.53718
1.53217
1.49905
1.44072
1.40611
1.40028
1.40001
1.40001
1.40001
1.40001
1.40001
1.40001
1.40001
1.52664
1.53031
1.53375
1.52757
1.48332
1.42466
1.40236
1.40008
1.40001
1.40001
1.40001
1.40001
1.40001
1.40001
1.40001
1.52625
1.53192
1.53067
1.51692
1.45884
1.4119
1.40082
1.40003
1.40001
1.40001
1.40001
1.40001
1.40001
1.40001
1.40001
1.52379
1.53111
1.52391
1.4969
1.43924
1.40566
1.40026
1.40001
1.40001
1.40001
1.40001
1.40001
1.40001
1.40001
1.40001
1.52222
1.52776
1.51895
1.47781
1.42248
1.402
1.40007
1.40001
1.40001
1.40001
1.40001
1.40001
1.40001
1.40001
1.40001
1.52235
1.52179
1.50772
1.45197
1.40934
1.40056
1.40002
1.40001
1.40001
1.40001
1.40001
1.40001
1.40001
1.40001
1.40001
1.52011
1.50782
1.48471
1.43003
1.40356
1.40014
1.40001
1.40001
1.40001
1.40001
1.40001
1.40001
1.40001
1.40001
1.40001
1.51308
1.49896
1.46091
1.41374
1.40096
1.40003
1.40001
1.40001
1.40001
1.40001
1.40001
1.40001
1.40001
1.40001
1.40001
1.50897
1.4841
1.43187
1.40391
1.40017
1.40001
1.40001
1.40001
1.40001
1.40001
1.40001
1.40001
1.40001
1.40001
1.40001
1.49207
1.45443
1.41196
1.40082
1.40003
1.40001
1.40001
1.40001
1.40001
1.40001
1.40001
1.40001
1.40001
1.40001
1.40001
1.46241
1.42231
1.40275
1.40013
1.40001
1.40001
1.40001
1.40001
1.40001
1.40001
1.40001
1.40001
1.40001
1.40001
1.40001
1.40001
1.40001
1.40001
1.40001
1.40001
1.40001
1.40001
1.40001
1.40001
1.40001
1.40001
1.40001
1.40001
1.40001
1.40001
1.40001
1.40001
1.40001
1.40001
1.40001
1.40001
1.40001
1.40001
1.40001
1.40001
1.40001
1.40001
1.40001
1.40001
1.40001
1.40001
1.40001
1.40001
1.40001
1.40001
1.40001
1.40001
1.40001
1.40001
1.40001
1.40001
1.40001
1.40001
1.40001
1.40001
1.40001
1.40001
1.40001
1.40001
1.40001
1.40001
1.40001
1.40001
1.40001
1.40001
1.40001
1.40001
1.40001
1.40001
1.40001
1.40001
1.40001
1.40001
1.40001
1.40001
1.40001
1.40001
1.40001
1.40001
1.40001
1.40001
1.40001
1.40001
1.40001
1.40001
1.40001
1.40001
1.40001
1.40001
1.40001
1.40001
1.40001
1.40001
1.40001
1.40001
1.40001
1.40001
1.40001
1.40001
1.40001
1.40001
1.40001
1.40001
1.40001
1.40001
1.40001
1.40001
1.40001
1.40001
1.40001
1.40001
1.40001
1.40001
1.40001
1.40001
1.40001
1.40001
1.40001
1.40001
1.40001
1.40001
1.40001
1.40001
1.40001
1.40001
1.40001
1.40001
1.40001
1.40001
1.40001
1.40001
1.40001
1.40001
1.40001
1.40001
1.40001
1.40001
1.40001
1.40001
1.40001
1.40001
1.40001
1.40001
1.40001
1.40001
1.63853
1.40001
1.40001
1.40001
1.40001
1.40001
1.40001
1.40001
1.40001
1.40001
1.46064
1.40001
1.40001
1.40001
1.40001
1.40001
1.40001
1.40001
1.40001
1.40001
1.41787
1.40001
1.40001
1.40001
1.40001
1.40001
1.40001
1.40001
1.40001
1.40001
1.40398
1.40001
1.40001
1.40001
1.40001
1.40001
1.40001
1.40001
1.40001
1.40001
1.40072
1.40001
1.40001
1.40001
1.40001
1.40001
1.40001
1.40001
1.40001
1.40001
1.4001
1.40001
1.40001
1.40001
1.40001
1.40001
1.40001
1.40001
1.40001
1.40001
1.40002
1.40001
1.40001
1.40001
1.40001
1.40001
1.40001
1.40001
1.40001
1.40001
1.40001
1.40001
1.40001
1.40001
1.40001
1.40001
1.40001
1.40001
1.40001
1.40001
1.40001
1.40001
1.40001
1.40001
1.40001
1.40001
1.40001
1.40001
1.40001
1.40001
1.40001
1.40001
1.40001
1.40001
1.40001
1.40001
1.40001
1.40001
1.40001
1.40001
1.40001
1.40001
1.40001
1.40001
1.40001
1.40001
1.40001
1.40001
1.40001
1.40001
1.40001
1.40001
1.40001
1.40001
1.40001
1.40001
1.40001
1.40001
1.40001
1.40001
1.40001
1.40001
1.40001
1.40001
1.40001
1.40001
1.40001
1.40001
1.40001
1.40001
1.40001
1.40001
1.40001
1.40001
1.40001
1.40001
1.40001
1.40001
1.40001
1.40001
1.40001
1.40001
1.40001
1.40001
1.40001
1.40001
1.40001
1.40001
1.40001
1.40001
1.40001
1.40001
1.40001
1.40001
1.40001
1.40001
1.40001
1.40001
1.40001
1.40001
1.40001
1.40001
1.40001
1.40001
1.40001
1.40001
1.40001
1.40001
1.40001
1.40001
1.40001
1.40001
1.40001
1.40001
1.40001
1.40001
1.40001
1.40001
1.40001
1.40001
1.40001
1.40001
1.40001
1.40001
1.40001
1.40001
1.40001
1.40001
1.40001
1.40001
1.40001
1.40001
1.40001
1.40001
1.40001
1.40001
1.40001
1.40001
1.40001
1.40001
4.64496
3.68695
2.03257
1.40208
1.40035
1.40007
1.40001
1.40001
1.40001
1.40001
1.40001
1.40001
1.40001
1.40001
1.40001
1.40001
1.40001
1.40001
1.40001
1.40001
4.83469
4.72692
4.72293
3.40041
1.56706
1.40004
1.40001
1.40001
1.40001
1.40001
1.40001
1.40001
1.40001
1.40001
1.40001
1.40001
1.40001
1.40001
1.40001
1.40001
4.75514
4.72219
4.9128
4.95531
4.06001
1.89779
1.39986
1.40001
1.40001
1.40001
1.40001
1.40001
1.40001
1.40001
1.40001
1.40001
1.40001
1.40001
1.40001
1.40001
4.70888
4.70817
4.84661
4.92097
4.95321
4.3559
2.12811
1.39923
1.40001
1.40001
1.40001
1.40001
1.40001
1.40001
1.40001
1.40001
1.40001
1.40001
1.40001
1.40001
4.6805
4.68673
4.79553
4.87154
4.92476
4.95694
4.48226
2.26286
1.39851
1.40001
1.40001
1.40001
1.40001
1.40001
1.40001
1.40001
1.40001
1.40001
1.40001
1.40001
4.66333
4.66921
4.7597
4.83382
4.90152
4.93549
4.94616
4.51559
2.25609
1.39809
1.40001
1.40001
1.40001
1.40001
1.40001
1.40001
1.40001
1.40001
1.40001
1.40001
4.65311
4.65669
4.73581
4.80899
4.87901
4.90072
4.91485
4.91023
4.38761
2.09898
1.39821
1.40001
1.40001
1.40001
1.40001
1.40001
1.40001
1.40001
1.40001
1.40001
4.64672
4.64705
4.71646
4.78541
4.85347
4.87775
4.88382
4.88948
4.8722
4.20165
1.92127
1.39817
1.40001
1.40001
1.40001
1.40001
1.40001
1.40001
1.40001
1.40001
4.63873
4.63718
4.6993
4.76143
4.82611
4.85221
4.8582
4.85112
4.82428
4.72807
3.63189
1.63591
1.39904
1.40001
1.40001
1.40001
1.40001
1.40001
1.40001
1.40001
4.62568
4.62326
4.67781
4.73514
4.79612
4.82703
4.83225
4.82074
4.79454
4.76497
4.66068
2.94044
1.46022
1.39973
1.4
1.40001
1.40001
1.40001
1.40001
1.40001
4.60712
4.60582
4.65176
4.70625
4.76477
4.79983
4.80656
4.80685
4.79509
4.77593
4.83157
4.57817
2.34658
1.40786
1.40001
1.40001
1.40001
1.40001
1.40001
1.40001
4.58738
4.58581
4.62514
4.67584
4.73238
4.76939
4.78365
4.7885
4.7965
4.804
4.82945
4.80999
4.0949
1.85261
1.39963
1.4
1.40001
1.40001
1.40001
1.40001
4.56414
4.56163
4.59593
4.63971
4.6904
4.72508
4.73993
4.74561
4.7562
4.76164
4.7666
4.75966
4.66611
3.25869
1.53351
1.39956
1.39997
1.4
1.40001
1.40001
4.5191
4.50553
4.52523
4.5503
4.58515
4.60712
4.61521
4.61906
4.6301
4.63798
4.64361
4.64293
4.62887
4.33124
2.3223
1.41653
1.40003
1.4
1.40001
1.40001
4.34931
4.25491
4.25835
4.26404
4.29121
4.31862
4.34242
4.36527
4.39669
4.4238
4.44729
4.45599
4.46627
4.45923
3.62607
1.64088
1.39365
1.39955
1.4
1.40001
1.97346
2.64516
2.9758
3.23538
3.44041
3.63018
3.76884
3.89246
3.99227
4.07641
4.14902
4.19841
4.2572
4.34104
4.29197
2.97005
1.57745
1.40224
1.40001
1.40001
0.763519
1.55506
2.04504
2.44396
2.74339
2.97586
3.2014
3.38383
3.54062
3.69206
3.7979
3.9039
3.99512
4.11942
4.22431
4.04636
2.47625
1.48247
1.401
1.40001
0.780285
1.22497
1.47194
1.78424
2.15887
2.45445
2.71826
2.93434
3.14052
3.31773
3.4787
3.61253
3.74734
3.89186
4.04813
4.03619
3.54664
1.96157
1.42127
1.40016
0.885964
1.07105
1.20166
1.47413
1.73935
2.03017
2.30268
2.55839
2.7877
2.97482
3.18024
3.32735
3.50656
3.66364
3.80382
3.91793
3.85177
2.85314
1.59595
1.40367
0.931888
0.961927
1.02245
1.24943
1.47586
1.73638
1.98093
2.23036
2.45718
2.6805
2.87667
3.05552
3.25281
3.43396
3.56154
3.70675
3.80645
3.55211
2.12746
1.43921
0.975483
0.968931
1.01165
1.11535
1.25718
1.47805
1.71797
1.95606
2.18089
2.4201
2.61896
2.83638
3.01339
3.22683
3.35594
3.50258
3.69831
3.67415
2.85995
1.63773
1.02593
1.00664
1.04396
1.09714
1.15979
1.31485
1.5109
1.73152
1.96403
2.1921
2.41532
2.6379
2.82192
3.01621
3.16665
3.29253
3.49799
3.63753
3.36035
2.12519
1.0413
1.04049
1.06963
1.06827
1.09288
1.22396
1.378
1.55859
1.77739
1.992
2.22255
2.42568
2.64589
2.80507
2.97495
3.11879
3.30877
3.54332
3.42821
2.89815
1.04292
1.04586
1.06592
1.05867
1.06313
1.12882
1.2456
1.4165
1.6041
1.80899
2.03152
2.23767
2.46222
2.64794
2.80802
2.97464
3.15085
3.3733
3.47091
3.81396
1.04639
1.05037
1.06364
1.06368
1.07738
1.1206
1.16881
1.2998
1.47264
1.67369
1.88214
2.10608
2.2884
2.50117
2.66028
2.82073
2.97483
3.20141
3.60681
4.72819
1.04293
1.04787
1.06541
1.08377
1.09741
1.11494
1.14105
1.24587
1.38126
1.56366
1.75766
1.98137
2.15693
2.33993
2.50686
2.66489
2.81723
3.04029
3.72061
5.683
1.03141
1.0394
1.07125
1.10063
1.10705
1.0984
1.10449
1.18862
1.29977
1.45691
1.63808
1.83563
2.03147
2.18709
2.36646
2.52833
2.70845
2.93483
3.94096
6.59787
1.02412
1.03739
1.07675
1.10602
1.10904
1.09796
1.09786
1.13926
1.21925
1.34713
1.52039
1.70036
1.90983
2.07329
2.25824
2.40595
2.59273
2.88924
4.27236
7.06592
1.02504
1.04014
1.07654
1.10879
1.11154
1.10368
1.10665
1.13935
1.19005
1.29606
1.44437
1.6121
1.80095
1.96549
2.14219
2.30481
2.46009
2.93594
4.5734
7.06811
1.0321
1.04647
1.07344
1.10517
1.11485
1.11452
1.11967
1.13353
1.16155
1.25343
1.37554
1.5336
1.69986
1.87085
1.99843
2.18987
2.38932
3.09343
4.76828
6.82817
0.895441
1.02638
1.06846
1.10138
1.11867
1.12447
1.12533
1.11862
1.12993
1.209
1.30421
1.44764
1.58819
1.77309
1.9136
2.06793
2.35189
3.37675
4.8452
6.48379
0.768771
0.95284
1.0461
1.0945
1.12405
1.13003
1.12468
1.11652
1.12128
1.1809
1.2566
1.379
1.51293
1.66476
1.84091
2.00268
2.41756
3.71978
4.84229
6.08018
0.688442
0.86129
0.991416
1.07113
1.11891
1.13324
1.12727
1.11825
1.12385
1.16342
1.21636
1.32018
1.45951
1.58305
1.73565
1.94062
2.6231
4.00236
4.7339
5.62442
0.635484
0.768385
0.910828
1.02308
1.09666
1.1274
1.12794
1.12634
1.13126
1.14891
1.18013
1.25967
1.37396
1.51131
1.6532
1.97565
2.95777
4.17586
4.60781
5.12595
0.636903
0.71002
0.823817
0.950849
1.05239
1.1112
1.13077
1.13574
1.13936
1.13765
1.14744
1.2121
1.29537
1.42972
1.60148
2.13511
3.24329
4.15513
4.44019
4.65696
0.666402
0.683393
0.760061
0.879205
0.986046
1.0783
1.12638
1.1378
1.13735
1.13175
1.13558
1.18001
1.23151
1.34431
1.65389
2.42857
3.40285
4.07967
4.21242
4.22485
0.715638
0.695173
0.723793
0.811701
0.917302
1.02353
1.1011
1.13046
1.13237
1.12664
1.12674
1.1447
1.18496
1.36265
1.88885
2.77368
3.3948
3.89239
3.92722
3.87236
0.778039
0.742992
0.727326
0.759931
0.846102
0.95203
1.04763
1.10655
1.12415
1.12198
1.12133
1.13165
1.1851
1.5195
2.23502
2.96109
3.31837
3.61358
3.63159
3.56849
0.864532
0.820727
0.749502
0.75857
0.783763
0.872111
0.972278
1.06019
1.10711
1.11404
1.11944
1.14553
1.32388
1.9108
2.54996
2.92977
3.13691
3.33354
3.37943
3.33961
0.9674
0.948828
0.874377
0.796588
0.780026
0.804069
0.866277
0.96022
1.04814
1.12494
1.25044
1.49092
1.87057
2.25836
2.51129
2.73259
2.78989
2.90607
2.97713
2.9743
)
;

boundaryField
{
    inlet
    {
        type            calculated;
        value           uniform 1.40001;
    }
    outlet
    {
        type            calculated;
        value           nonuniform List<scalar> 
35
(
0.967487
0.94893
0.87447
0.796664
0.780093
0.804146
0.86634
0.960283
1.04829
1.12531
1.25132
1.49231
1.87183
2.25901
2.51141
2.73255
2.7898
2.90572
2.97699
2.97428
0.91599
0.829255
0.790508
0.826155
0.748015
0.502359
0.542163
0.644935
0.82025
1.0295
1.27039
1.42661
1.4494
1.43349
1.40872
)
;
    }
    airfoil
    {
        type            calculated;
        value           nonuniform List<scalar> 
60
(
0.0709891
0.067189
0.06359
0.0605933
0.0591978
0.0599334
0.0483309
0.0375239
0.0292202
0.018175
0.0122974
0.0420886
0.179055
0.427667
0.902402
1.52512
1.52287
1.52283
1.52381
1.52563
1.52654
1.52664
1.52625
1.52379
1.52222
1.52235
1.52011
1.51308
1.50897
1.49207
4.64496
4.83469
4.75514
4.70888
4.6805
4.66333
4.65311
4.64672
4.63873
4.62568
4.60712
4.58738
4.56414
4.5191
4.34931
1.97346
0.763519
0.780285
0.885964
0.931888
0.975483
1.02593
1.0413
1.04292
1.04639
1.04293
1.03141
1.02412
1.02504
1.0321
)
;
    }
    top
    {
        type            symmetryPlane;
    }
    bottom
    {
        type            symmetryPlane;
    }
    defaultFaces
    {
        type            empty;
    }
}


// ************************************************************************* //
