/*--------------------------------*- C++ -*----------------------------------*\
  =========                 |
  \\      /  F ield         | OpenFOAM: The Open Source CFD Toolbox
   \\    /   O peration     | Website:  https://openfoam.org
    \\  /    A nd           | Version:  7
     \\/     M anipulation  |
\*---------------------------------------------------------------------------*/
FoamFile
{
    version     2.0;
    format      ascii;
    class       volScalarField;
    location    "13";
    object      p;
}
// * * * * * * * * * * * * * * * * * * * * * * * * * * * * * * * * * * * * * //

dimensions      [1 -1 -2 0 0 0 0];

internalField   nonuniform List<scalar> 
90000
(
0.281772
0.31928
0.355392
0.392442
0.426051
0.453563
0.482651
0.514792
0.542583
0.570002
0.60116
0.632123
0.662503
0.694954
0.728212
0.761354
0.79608
0.83004
0.86556
0.898614
0.931979
0.958264
0.985226
0.994399
1.00187
1.00749
1.00894
1.00752
1.0065
1.00441
1.00281
0.99972
0.995665
0.991339
0.986837
0.982077
0.976707
0.971235
0.964088
0.963903
0.967247
0.972433
0.978195
0.984198
0.989615
0.994473
0.997831
1.00167
1.00064
0.996128
0.988557
0.981827
0.978087
0.978436
0.981501
0.986957
0.992475
0.996994
0.996762
0.994103
0.989053
0.984049
0.980487
0.981889
0.986705
0.991804
0.994018
0.993051
0.990096
0.985936
0.985183
0.986617
0.990314
0.992553
0.991506
0.988095
0.986143
0.986753
0.988933
0.991045
0.990736
0.989298
0.988585
0.988891
0.989341
0.989493
0.989537
0.989544
0.989372
0.989038
0.988695
0.988779
0.989086
0.988986
0.988863
0.988962
0.989105
0.988957
0.988489
0.98838
0.249693
0.249679
0.249656
0.249652
0.249738
0.249949
0.250446
0.251543
0.253214
0.255835
0.259684
0.265516
0.273165
0.284006
0.297541
0.315926
0.337854
0.366326
0.398992
0.440013
0.484556
0.536007
0.58996
0.645154
0.698289
0.746807
0.792905
0.830478
0.866633
0.892222
0.917391
0.93105
0.945092
0.950509
0.957638
0.959698
0.962878
0.963958
0.969871
0.978893
0.989963
0.997045
1.00228
1.00607
1.00658
1.00609
1.00502
1.00103
0.990653
0.98123
0.976725
0.978151
0.979325
0.982248
0.987292
0.991892
0.997289
0.997507
0.994674
0.988572
0.982716
0.981724
0.983957
0.986283
0.989972
0.995065
0.993983
0.990469
0.986047
0.984987
0.987177
0.991666
0.992702
0.99201
0.988733
0.986098
0.986244
0.988828
0.9903
0.990441
0.988717
0.98764
0.987839
0.989398
0.989988
0.989378
0.989124
0.989153
0.989037
0.988729
0.988709
0.989002
0.989005
0.988751
0.988782
0.988971
0.989106
0.988963
0.988683
0.988443
0.249723
0.249724
0.249726
0.249729
0.249732
0.249748
0.249735
0.249713
0.24969
0.249665
0.249637
0.24961
0.249587
0.24957
0.249556
0.249547
0.249536
0.24955
0.249722
0.250309
0.25167
0.254853
0.260312
0.270727
0.28576
0.309216
0.338498
0.378493
0.423711
0.479067
0.537167
0.600696
0.664048
0.725531
0.785862
0.837409
0.889236
0.928148
0.963665
0.981612
0.993214
0.99803
1.00226
1.0047
1.00539
1.00282
0.993196
0.976465
0.965169
0.967856
0.974584
0.981598
0.990718
0.997306
1.00089
1.00032
0.997798
0.990819
0.982687
0.978308
0.978125
0.980195
0.986439
0.996021
0.997553
0.995918
0.990589
0.984502
0.982052
0.983615
0.988514
0.993972
0.993629
0.991121
0.986129
0.985304
0.986397
0.989502
0.991354
0.990091
0.988638
0.988364
0.989092
0.989333
0.989409
0.989452
0.989558
0.9893
0.988985
0.988768
0.988639
0.989026
0.988947
0.988615
0.988461
0.988898
0.989005
0.988555
0.98821
0.988467
0.249748
0.249751
0.249754
0.249756
0.24976
0.249763
0.249766
0.249769
0.249773
0.249777
0.249784
0.249791
0.249799
0.249807
0.249816
0.249823
0.249831
0.249838
0.249845
0.249858
0.249828
0.249795
0.249765
0.24974
0.249716
0.249704
0.249665
0.249779
0.250271
0.252163
0.256308
0.266023
0.281491
0.308859
0.344613
0.396873
0.456839
0.531584
0.608232
0.683312
0.753498
0.808743
0.859918
0.890294
0.918663
0.930781
0.940477
0.946831
0.966646
0.981779
0.997378
1.00521
1.01165
1.01047
1.00789
1.00265
0.987393
0.975927
0.973538
0.975503
0.980461
0.989917
0.999669
1.00165
0.999428
0.990974
0.982963
0.981098
0.982504
0.989201
0.995546
0.995606
0.992659
0.986605
0.984614
0.98583
0.990287
0.992394
0.991081
0.987939
0.987215
0.988155
0.989987
0.989956
0.98905
0.988989
0.989379
0.989231
0.988688
0.988539
0.988929
0.98917
0.988917
0.988721
0.988777
0.988969
0.988992
0.988629
0.988411
0.988474
0.249801
0.249802
0.249803
0.249804
0.249805
0.249806
0.249806
0.249806
0.249806
0.249805
0.249804
0.249802
0.249801
0.249799
0.249798
0.249797
0.249796
0.249793
0.249791
0.249786
0.249783
0.249781
0.24978
0.249779
0.249777
0.249776
0.249774
0.249777
0.249764
0.249751
0.24974
0.249734
0.249731
0.249737
0.249731
0.250052
0.251406
0.256682
0.267789
0.292442
0.328894
0.386633
0.455999
0.541755
0.632399
0.721049
0.811813
0.885235
0.94106
0.963179
0.980629
0.988137
0.995374
0.996232
0.99293
0.98007
0.969623
0.971593
0.977079
0.989024
0.998229
1.00335
1.00084
0.997508
0.987778
0.980872
0.979196
0.981908
0.991291
0.99852
0.996459
0.99196
0.985342
0.982941
0.984661
0.991041
0.994323
0.992682
0.988012
0.986552
0.987139
0.989728
0.990887
0.989854
0.988995
0.989004
0.98929
0.989169
0.988611
0.988497
0.989035
0.989207
0.988767
0.988496
0.988651
0.9889
0.988724
0.988232
0.988172
0.988715
0.249773
0.249772
0.249772
0.249772
0.249771
0.249771
0.24977
0.249769
0.249767
0.249766
0.249764
0.249762
0.24976
0.249759
0.249757
0.249757
0.249755
0.249754
0.249753
0.249751
0.249748
0.249746
0.249743
0.249738
0.249734
0.24973
0.249726
0.249722
0.249719
0.249719
0.249721
0.249728
0.249734
0.249744
0.249753
0.249755
0.249755
0.249758
0.249759
0.249764
0.249758
0.250011
0.251583
0.25868
0.27491
0.311235
0.366882
0.453321
0.551179
0.653149
0.74929
0.81706
0.88176
0.912157
0.939738
0.946415
0.965054
0.983545
1.0047
1.01552
1.01458
1.01133
0.999121
0.979899
0.975109
0.976513
0.982876
0.994362
1.00511
1.00289
0.994541
0.983355
0.980184
0.983014
0.991305
0.996815
0.995249
0.98858
0.985045
0.985794
0.989284
0.991386
0.990507
0.988939
0.988728
0.989287
0.989303
0.988638
0.988076
0.98877
0.989597
0.989202
0.988462
0.988333
0.988845
0.988979
0.988615
0.988155
0.988113
0.988746
0.249751
0.24975
0.249749
0.249749
0.249749
0.249749
0.249748
0.249747
0.249746
0.249744
0.249743
0.249742
0.24974
0.249738
0.249737
0.249735
0.249734
0.249732
0.249731
0.249728
0.249725
0.249723
0.24972
0.249717
0.249715
0.249712
0.249711
0.249711
0.249712
0.249716
0.249722
0.24973
0.249741
0.249749
0.249755
0.249762
0.24977
0.249777
0.249779
0.24978
0.249777
0.249765
0.249755
0.249744
0.249731
0.249714
0.249786
0.25176
0.259197
0.285564
0.330984
0.412379
0.51162
0.629614
0.748947
0.849669
0.93755
0.969262
0.991054
1.00085
1.00153
0.993758
0.965473
0.965879
0.97473
0.988127
0.999529
1.00521
1.004
0.992778
0.97921
0.977229
0.980635
0.991235
0.997835
0.996809
0.989475
0.984297
0.984659
0.988328
0.991357
0.990686
0.989072
0.988459
0.989341
0.989738
0.989015
0.987877
0.988349
0.989598
0.989487
0.988632
0.988289
0.988694
0.988988
0.988806
0.988075
0.987927
0.988156
0.989122
0.249752
0.249751
0.249749
0.249748
0.249747
0.249745
0.249744
0.249742
0.24974
0.249739
0.249738
0.249737
0.249737
0.249736
0.249735
0.249734
0.249734
0.249734
0.249735
0.249735
0.249735
0.249736
0.249736
0.249737
0.249738
0.24974
0.249742
0.249744
0.249748
0.249753
0.24976
0.249769
0.249775
0.249776
0.249778
0.24978
0.249781
0.249779
0.249775
0.249767
0.249756
0.249744
0.249736
0.249732
0.249726
0.249721
0.249728
0.24973
0.24973
0.24973
0.249725
0.250563
0.255609
0.27783
0.3242
0.416768
0.535309
0.660939
0.777135
0.850462
0.911543
0.935158
0.943951
0.974013
1.00202
1.01321
1.01378
1.0109
0.990709
0.974285
0.974002
0.97957
0.992599
1.00302
1.00088
0.990359
0.982704
0.98316
0.987902
0.992845
0.992222
0.989245
0.987903
0.988844
0.990227
0.989609
0.987898
0.987663
0.988911
0.989908
0.989399
0.988301
0.988283
0.988866
0.988984
0.988602
0.987931
0.988015
0.988367
0.989364
0.24974
0.249739
0.249738
0.249737
0.249737
0.249737
0.249737
0.249737
0.249737
0.249737
0.249737
0.249738
0.24974
0.249742
0.249745
0.249748
0.24975
0.249753
0.249757
0.249761
0.249765
0.249768
0.249773
0.249778
0.249782
0.249785
0.249787
0.249789
0.249791
0.249793
0.249796
0.249798
0.249796
0.249792
0.249787
0.249783
0.249778
0.249771
0.249763
0.249753
0.249742
0.249732
0.249725
0.249721
0.249717
0.249717
0.249724
0.249742
0.249763
0.249782
0.249797
0.249791
0.249788
0.249786
0.249772
0.25075
0.25788
0.290666
0.353506
0.466679
0.603732
0.752414
0.877402
0.95892
0.990904
1.00455
1.0035
0.990362
0.960625
0.9674
0.982156
0.997672
1.00403
1.00191
0.990661
0.978784
0.979816
0.987229
0.993621
0.993048
0.9907
0.987862
0.98815
0.990169
0.990412
0.989207
0.987097
0.987798
0.98985
0.99003
0.9886
0.988122
0.988692
0.989228
0.988895
0.988098
0.987731
0.987982
0.98852
0.989677
0.249706
0.249707
0.249709
0.249711
0.249714
0.249718
0.249721
0.249725
0.249729
0.249733
0.249737
0.249743
0.249749
0.249755
0.249762
0.249768
0.249775
0.249782
0.249788
0.249793
0.249798
0.249804
0.249808
0.249812
0.249814
0.249814
0.249812
0.249809
0.249803
0.249796
0.249793
0.249786
0.249777
0.249766
0.249757
0.249749
0.249738
0.249728
0.249719
0.249708
0.249697
0.249688
0.249681
0.249678
0.249683
0.249697
0.249718
0.249743
0.249769
0.249793
0.249803
0.24981
0.249814
0.249811
0.249799
0.249767
0.249723
0.249699
0.249722
0.252892
0.27086
0.326522
0.445287
0.591141
0.734005
0.839303
0.902709
0.933716
0.950916
0.989973
1.0105
1.0136
1.00988
0.987282
0.974206
0.97581
0.985409
0.997188
0.996899
0.992865
0.986098
0.986382
0.989657
0.991635
0.990548
0.98682
0.986787
0.989028
0.99052
0.989831
0.988126
0.987862
0.989026
0.989282
0.988772
0.987909
0.98776
0.988162
0.98893
0.989966
0.249702
0.249706
0.249711
0.249718
0.249725
0.249732
0.249738
0.249745
0.249751
0.249758
0.249766
0.249773
0.24978
0.249786
0.249792
0.249798
0.249804
0.249811
0.249817
0.249821
0.249822
0.249823
0.249824
0.249825
0.249822
0.249817
0.249812
0.249805
0.249792
0.249778
0.249769
0.249758
0.249742
0.24973
0.249722
0.249713
0.2497
0.249687
0.249678
0.249668
0.249661
0.249658
0.249657
0.249662
0.249675
0.249696
0.249717
0.249742
0.249768
0.249784
0.249795
0.249808
0.249816
0.249816
0.249806
0.249774
0.249729
0.249713
0.249715
0.249719
0.249739
0.249751
0.252002
0.267737
0.327538
0.445111
0.597311
0.772397
0.909713
0.981835
0.998427
1.00367
0.989179
0.963259
0.969106
0.986233
0.998775
0.999026
0.99437
0.984314
0.983552
0.987917
0.992709
0.992019
0.987427
0.985241
0.987173
0.991057
0.990748
0.988013
0.987149
0.988131
0.989552
0.989281
0.987916
0.987512
0.987798
0.988396
0.989265
0.990197
0.249741
0.249744
0.24975
0.249762
0.249774
0.24978
0.249781
0.249782
0.249785
0.249791
0.249798
0.249804
0.249808
0.24981
0.249811
0.249812
0.249815
0.249819
0.249822
0.249823
0.249822
0.249818
0.249814
0.249813
0.249809
0.2498
0.249794
0.249787
0.249775
0.249761
0.249746
0.249727
0.249716
0.249712
0.249711
0.249707
0.249699
0.249688
0.249683
0.24968
0.249679
0.249683
0.249689
0.249697
0.249706
0.249716
0.249729
0.249746
0.249763
0.249775
0.249784
0.249798
0.249814
0.24982
0.249813
0.249778
0.249748
0.249756
0.24977
0.249777
0.249781
0.249777
0.249781
0.249793
0.249806
0.251773
0.272408
0.338008
0.487572
0.663804
0.789258
0.910185
0.927409
0.963624
0.98462
1.00994
1.00862
1.00009
0.980275
0.979795
0.984851
0.994677
0.994264
0.988558
0.983811
0.985281
0.991298
0.992282
0.989201
0.986065
0.986894
0.989734
0.989958
0.988408
0.987235
0.987511
0.988074
0.988701
0.989632
0.990337
0.24978
0.249781
0.249784
0.249787
0.249793
0.249799
0.249801
0.249799
0.249796
0.249796
0.249799
0.249801
0.249803
0.249805
0.249806
0.249806
0.249807
0.249808
0.249806
0.249804
0.249803
0.249798
0.249793
0.249792
0.249785
0.249777
0.249771
0.249769
0.249765
0.24975
0.249731
0.249726
0.249725
0.249728
0.249732
0.249738
0.249741
0.24974
0.249737
0.249734
0.249734
0.249741
0.249744
0.249742
0.249739
0.249741
0.249748
0.249755
0.249763
0.249775
0.249783
0.249791
0.249813
0.249822
0.249815
0.249791
0.249794
0.249815
0.24984
0.249847
0.249846
0.249832
0.249816
0.249809
0.24981
0.249815
0.249828
0.249832
0.256018
0.288211
0.395524
0.563476
0.7491
0.928979
0.975168
1.00388
1.00007
0.972428
0.968343
0.98056
0.998942
0.998223
0.990904
0.980959
0.981982
0.990335
0.994322
0.991822
0.985318
0.985385
0.988857
0.990729
0.989517
0.986928
0.98704
0.987683
0.988467
0.989016
0.989995
0.990486
0.249788
0.249787
0.249786
0.249785
0.249784
0.249783
0.249784
0.249784
0.249783
0.249783
0.249783
0.249782
0.249783
0.249784
0.249785
0.249783
0.249781
0.249779
0.249778
0.249776
0.249774
0.249773
0.249775
0.249773
0.249767
0.249763
0.249762
0.249765
0.24977
0.249771
0.249771
0.249772
0.249778
0.249785
0.249791
0.249799
0.24981
0.249813
0.249812
0.249808
0.249809
0.24981
0.249807
0.249795
0.249781
0.249774
0.24977
0.249764
0.249757
0.249747
0.249744
0.249758
0.249794
0.249814
0.249814
0.249812
0.249822
0.249846
0.24987
0.249879
0.249873
0.24985
0.249804
0.249781
0.249781
0.249793
0.249817
0.249857
0.249926
0.249978
0.250847
0.263125
0.33899
0.490387
0.672468
0.853731
0.897664
0.942542
0.971038
1.00835
1.01065
1.00009
0.977652
0.978219
0.98692
0.997597
0.995521
0.986313
0.982635
0.986637
0.991549
0.990959
0.98752
0.986207
0.987096
0.988383
0.988791
0.989313
0.990307
0.990417
0.249767
0.249764
0.249761
0.249759
0.24976
0.249763
0.249765
0.249764
0.249762
0.249759
0.249755
0.249748
0.249741
0.249731
0.249724
0.249722
0.24972
0.24972
0.249721
0.249724
0.249727
0.24973
0.249731
0.249732
0.249737
0.24975
0.249763
0.249771
0.249778
0.249785
0.249795
0.249809
0.249825
0.249844
0.249859
0.24987
0.249876
0.249874
0.249867
0.249863
0.249857
0.24985
0.249839
0.249822
0.249805
0.249789
0.249765
0.249733
0.249714
0.249709
0.249712
0.249733
0.249778
0.249825
0.249832
0.24983
0.249836
0.249845
0.249862
0.249872
0.249872
0.249852
0.249798
0.249761
0.249759
0.249773
0.249817
0.249911
0.250042
0.250164
0.250249
0.25028
0.250272
0.254984
0.305773
0.431525
0.633643
0.857662
0.950508
0.998395
0.996268
0.96815
0.968888
0.98499
0.999723
0.998853
0.987062
0.980171
0.982799
0.992781
0.992617
0.988643
0.985304
0.986049
0.988456
0.98871
0.98886
0.989502
0.99047
0.990238
0.249736
0.249732
0.249731
0.24973
0.249729
0.249729
0.249727
0.249725
0.249721
0.249716
0.249712
0.249708
0.249704
0.2497
0.249695
0.249693
0.249691
0.249692
0.249698
0.249706
0.249712
0.249718
0.249725
0.249735
0.249761
0.249785
0.249786
0.249787
0.249789
0.249794
0.249806
0.249824
0.249846
0.249865
0.249879
0.249893
0.249894
0.249881
0.249871
0.249868
0.249863
0.249857
0.249849
0.249832
0.249818
0.249806
0.24978
0.249725
0.249692
0.249691
0.249705
0.249743
0.249813
0.249876
0.249885
0.249882
0.249858
0.249836
0.249839
0.249848
0.249855
0.249854
0.249812
0.249758
0.249759
0.249788
0.249873
0.250027
0.25014
0.250233
0.250296
0.250303
0.250289
0.250209
0.250014
0.25171
0.288309
0.401622
0.597459
0.80597
0.884632
0.935907
0.969714
1.01202
1.00996
0.992011
0.974451
0.97793
0.991866
0.997708
0.992853
0.984218
0.984592
0.987913
0.989544
0.988781
0.989011
0.990426
0.990825
0.989757
0.249719
0.249713
0.249709
0.249707
0.249706
0.249705
0.249704
0.249702
0.249701
0.2497
0.249699
0.249699
0.249696
0.249691
0.24969
0.249691
0.249691
0.249692
0.249698
0.249714
0.249737
0.249754
0.249771
0.249795
0.249814
0.249815
0.249807
0.249793
0.249789
0.249789
0.249796
0.249815
0.249837
0.249851
0.249862
0.249875
0.249873
0.249841
0.249822
0.249824
0.249824
0.249828
0.249827
0.249821
0.249824
0.249823
0.249798
0.249733
0.249725
0.249739
0.249771
0.249825
0.249905
0.249923
0.24992
0.249911
0.249862
0.24978
0.249762
0.249763
0.249791
0.24983
0.249829
0.249828
0.249849
0.249894
0.250018
0.250168
0.25021
0.250249
0.250288
0.250285
0.250225
0.250069
0.249875
0.249817
0.249832
0.250656
0.27937
0.377955
0.581134
0.82995
0.946291
0.999861
0.995473
0.965405
0.972394
0.990485
1.00131
0.997123
0.982361
0.98172
0.986558
0.99011
0.98918
0.988307
0.989588
0.991235
0.990821
0.988959
0.249758
0.249757
0.249754
0.249754
0.249757
0.249757
0.249758
0.249762
0.249764
0.249764
0.249763
0.249762
0.249761
0.249757
0.249753
0.249757
0.249761
0.249759
0.249764
0.249791
0.249804
0.249809
0.24982
0.249823
0.24982
0.249808
0.249784
0.249772
0.24977
0.249769
0.249772
0.249786
0.249805
0.249817
0.249829
0.249841
0.24982
0.249749
0.249713
0.249716
0.249752
0.249794
0.249812
0.249817
0.249826
0.249832
0.249829
0.249816
0.249811
0.24982
0.249824
0.249852
0.249923
0.249941
0.249923
0.249886
0.249819
0.249722
0.249689
0.24969
0.249713
0.249782
0.249912
0.250043
0.250058
0.250074
0.250182
0.250269
0.250253
0.250246
0.250241
0.250197
0.250088
0.249944
0.249831
0.249791
0.249814
0.249936
0.250035
0.250472
0.273894
0.379549
0.580487
0.808782
0.882724
0.937224
0.985517
1.01197
1.00796
0.983328
0.974941
0.982276
0.992885
0.991541
0.987318
0.987854
0.991412
0.991698
0.989744
0.988301
0.24993
0.24993
0.24993
0.24993
0.249929
0.249927
0.249926
0.249925
0.249921
0.249917
0.249916
0.249911
0.249898
0.249887
0.249881
0.249876
0.249871
0.249863
0.249853
0.249842
0.249834
0.249837
0.249836
0.249827
0.24981
0.249783
0.249749
0.249729
0.249722
0.249725
0.249742
0.249753
0.249752
0.249748
0.249751
0.249764
0.249735
0.249665
0.249645
0.249651
0.24969
0.249759
0.249862
0.249911
0.249917
0.249903
0.249914
0.249936
0.249897
0.249845
0.249828
0.24983
0.249886
0.249924
0.249913
0.249873
0.249798
0.249701
0.249666
0.249671
0.249694
0.249794
0.250031
0.250227
0.250238
0.250239
0.250288
0.250301
0.250286
0.250227
0.250119
0.250005
0.249917
0.249874
0.249824
0.249818
0.249909
0.250065
0.250176
0.250194
0.250122
0.250346
0.276156
0.380104
0.603671
0.85921
0.962249
0.999526
0.988595
0.963162
0.97532
0.99532
0.994297
0.987387
0.98597
0.990016
0.993014
0.991526
0.988214
0.988064
0.250037
0.250044
0.250053
0.250057
0.250053
0.250039
0.250029
0.25002
0.250003
0.249995
0.249991
0.249977
0.249952
0.249937
0.249929
0.24992
0.249907
0.249888
0.249864
0.249842
0.249825
0.249805
0.249786
0.24977
0.24975
0.249725
0.249719
0.249718
0.249714
0.249721
0.249746
0.249758
0.249748
0.249737
0.249733
0.249739
0.249712
0.249677
0.249674
0.249682
0.249704
0.249771
0.249931
0.250009
0.250013
0.249986
0.249978
0.249991
0.24996
0.249859
0.2498
0.249774
0.249796
0.249893
0.249908
0.24988
0.249803
0.249714
0.249709
0.249735
0.249792
0.249936
0.250179
0.250317
0.250333
0.250329
0.25033
0.250315
0.250229
0.250079
0.249873
0.2498
0.249823
0.249865
0.249896
0.249937
0.250064
0.250172
0.250199
0.250143
0.249947
0.249588
0.249349
0.24982
0.281177
0.411841
0.627079
0.846742
0.916552
0.951491
1.00467
1.00805
0.995777
0.979909
0.985249
0.994795
0.993964
0.988097
0.987214
0.988288
0.250045
0.250043
0.250044
0.250051
0.250052
0.250036
0.250004
0.249991
0.249981
0.249965
0.24993
0.249866
0.249788
0.24975
0.249749
0.249762
0.249765
0.249754
0.249733
0.249719
0.249713
0.249711
0.24971
0.249709
0.249704
0.249684
0.24969
0.249716
0.249733
0.249766
0.249836
0.249898
0.249899
0.249881
0.249875
0.249886
0.249893
0.249849
0.249826
0.249843
0.249843
0.249854
0.249955
0.250046
0.250052
0.250014
0.249963
0.249976
0.249974
0.249866
0.249707
0.249656
0.24966
0.249772
0.249879
0.249899
0.24994
0.249988
0.249978
0.249959
0.249978
0.250106
0.250283
0.250359
0.250369
0.25036
0.250341
0.250247
0.250086
0.249867
0.249717
0.249726
0.249802
0.249937
0.250004
0.25008
0.250177
0.250215
0.250176
0.25
0.249679
0.249346
0.249302
0.249434
0.249687
0.251254
0.29235
0.437532
0.702604
0.905365
0.999037
0.993278
0.96889
0.978692
0.996196
0.996994
0.989575
0.985056
0.987203
0.989259
0.24996
0.249954
0.249935
0.249892
0.249872
0.249863
0.249838
0.249818
0.249819
0.249813
0.249783
0.249721
0.249689
0.249684
0.249687
0.249703
0.249707
0.249701
0.249705
0.249714
0.249713
0.249715
0.249725
0.24973
0.249717
0.249693
0.249725
0.249812
0.249894
0.249978
0.250071
0.250136
0.250146
0.250101
0.250064
0.250049
0.249998
0.24992
0.249903
0.249929
0.249923
0.249907
0.249962
0.249982
0.249976
0.249917
0.249797
0.249776
0.24982
0.249781
0.249646
0.249597
0.249603
0.249698
0.249918
0.25013
0.250313
0.250383
0.25034
0.250206
0.250145
0.250204
0.250316
0.250344
0.250327
0.250312
0.250248
0.250109
0.24993
0.249763
0.249718
0.249749
0.249896
0.250082
0.250134
0.25019
0.250228
0.250191
0.250006
0.249699
0.249381
0.249243
0.249304
0.249754
0.250217
0.250337
0.250191
0.253029
0.311699
0.501442
0.775233
0.871572
0.942638
0.996307
1.00807
0.998874
0.980822
0.983553
0.99114
0.990013
0.249756
0.249712
0.249702
0.249704
0.249705
0.249701
0.249703
0.249694
0.249678
0.249676
0.249679
0.249696
0.249713
0.249719
0.249725
0.249744
0.249749
0.249735
0.249731
0.249741
0.249764
0.249802
0.249845
0.249856
0.249855
0.249862
0.249939
0.250045
0.250071
0.250108
0.250178
0.250233
0.250226
0.25017
0.250143
0.250103
0.249993
0.249902
0.249891
0.249907
0.249874
0.249743
0.249743
0.249822
0.249833
0.249807
0.249729
0.249658
0.249674
0.24968
0.249665
0.249673
0.249682
0.249773
0.250037
0.250359
0.250533
0.250568
0.250506
0.250327
0.250225
0.250258
0.250257
0.250157
0.25006
0.250009
0.249924
0.249853
0.249781
0.249744
0.249775
0.24988
0.250071
0.25019
0.250199
0.250258
0.250201
0.249967
0.249611
0.249315
0.249137
0.249198
0.249576
0.250146
0.250347
0.25029
0.249917
0.249465
0.249206
0.260653
0.346121
0.585343
0.864345
0.968276
0.996927
0.972089
0.976033
0.991501
0.992747
0.987171
0.249918
0.249926
0.249931
0.249938
0.249947
0.249954
0.249958
0.249955
0.249957
0.24997
0.24999
0.250004
0.249998
0.249955
0.249934
0.249933
0.24991
0.249827
0.249782
0.249792
0.249797
0.249816
0.249831
0.24983
0.249814
0.24981
0.249852
0.249909
0.249908
0.249893
0.249944
0.250014
0.250013
0.250044
0.250074
0.25003
0.249911
0.249878
0.249873
0.249815
0.249586
0.249493
0.249588
0.249649
0.249637
0.249607
0.249626
0.249617
0.24959
0.249665
0.249836
0.249903
0.249892
0.249921
0.25012
0.25042
0.250563
0.250581
0.250517
0.250329
0.250258
0.250182
0.249992
0.249774
0.249667
0.249582
0.249538
0.249563
0.249634
0.249757
0.249849
0.249976
0.250143
0.250205
0.250159
0.250001
0.24971
0.249339
0.249085
0.248942
0.248975
0.249288
0.249944
0.250285
0.250222
0.249838
0.249198
0.2489
0.248944
0.249451
0.249697
0.278237
0.416167
0.650704
0.886645
0.926533
0.983624
1.0031
0.994514
0.981274
0.250158
0.250159
0.250152
0.25015
0.250154
0.250139
0.250089
0.250061
0.250057
0.250065
0.250069
0.250063
0.25004
0.249959
0.249896
0.2499
0.249894
0.249783
0.249627
0.249621
0.249617
0.24958
0.249524
0.249459
0.249396
0.249294
0.249233
0.249229
0.249226
0.249231
0.249306
0.24936
0.249363
0.249392
0.249464
0.249464
0.249447
0.249451
0.249454
0.249426
0.249311
0.249273
0.249395
0.249437
0.249368
0.249363
0.249535
0.249729
0.249814
0.249953
0.25002
0.250024
0.249995
0.249983
0.250075
0.250199
0.250196
0.250153
0.250074
0.249927
0.249787
0.249637
0.249458
0.249343
0.24929
0.249263
0.249274
0.249312
0.249408
0.249569
0.249768
0.249888
0.249861
0.249772
0.249572
0.249262
0.24899
0.248763
0.24866
0.248695
0.248994
0.249658
0.250177
0.250116
0.249724
0.249077
0.24867
0.248675
0.249049
0.24982
0.249986
0.249573
0.251016
0.306316
0.499166
0.780173
0.963154
0.992155
0.968701
0.977034
0.249841
0.249841
0.249836
0.249844
0.249835
0.249773
0.249744
0.249747
0.249739
0.249669
0.249621
0.249594
0.249543
0.249437
0.249396
0.249419
0.249406
0.249262
0.249048
0.24899
0.249013
0.249073
0.249087
0.249063
0.249011
0.248936
0.248815
0.248774
0.24879
0.248845
0.248834
0.248835
0.248936
0.248978
0.24892
0.248881
0.248893
0.248945
0.249055
0.24914
0.249144
0.249127
0.249223
0.249463
0.249575
0.249678
0.249938
0.250051
0.250082
0.250077
0.250073
0.250045
0.24991
0.249728
0.249634
0.249606
0.249589
0.249566
0.249509
0.24941
0.249361
0.24932
0.249219
0.249147
0.249135
0.249158
0.2492
0.249262
0.249392
0.249608
0.249828
0.24986
0.249766
0.249561
0.249171
0.248758
0.248597
0.248547
0.248616
0.248988
0.24966
0.250291
0.250268
0.249854
0.249255
0.248698
0.248635
0.248997
0.249885
0.250334
0.250099
0.249349
0.248993
0.249124
0.258406
0.373717
0.616993
0.837057
0.927823
0.983954
0.24951
0.249517
0.249534
0.249541
0.249541
0.249509
0.249463
0.249472
0.249494
0.249485
0.249405
0.249344
0.249355
0.249368
0.24938
0.249347
0.249246
0.249081
0.248988
0.248983
0.249042
0.24912
0.249128
0.249112
0.249077
0.248996
0.248879
0.248864
0.248925
0.248959
0.248963
0.249047
0.249228
0.249265
0.249228
0.249238
0.249368
0.249588
0.249703
0.249828
0.249992
0.250142
0.250329
0.250428
0.250398
0.25034
0.250313
0.250393
0.250451
0.250444
0.25047
0.250484
0.250373
0.249996
0.249621
0.249534
0.249516
0.249504
0.249512
0.249477
0.249418
0.249382
0.249403
0.249449
0.249565
0.249801
0.250061
0.250208
0.250337
0.250473
0.25048
0.250286
0.249937
0.249365
0.248915
0.24865
0.248539
0.248767
0.249617
0.250458
0.250991
0.250832
0.250372
0.249603
0.249125
0.248835
0.249393
0.250463
0.251196
0.250914
0.250078
0.249284
0.249595
0.250674
0.25077
0.251118
0.284595
0.46555
0.774471
0.969242
0.249199
0.249236
0.249317
0.249423
0.249465
0.249463
0.249429
0.249435
0.249487
0.249501
0.249477
0.249439
0.249457
0.249508
0.249519
0.249475
0.249427
0.249473
0.249535
0.249541
0.249524
0.249523
0.249542
0.249622
0.24991
0.250152
0.250256
0.250407
0.250552
0.250667
0.250865
0.251134
0.251241
0.251238
0.251181
0.251187
0.251293
0.25147
0.251631
0.251648
0.251607
0.251478
0.251137
0.250919
0.250875
0.250813
0.250637
0.2505
0.250451
0.250415
0.250485
0.250527
0.250395
0.250063
0.249804
0.249696
0.249725
0.249875
0.24999
0.250043
0.250112
0.250327
0.25072
0.251093
0.251456
0.251604
0.251534
0.251319
0.251139
0.25099
0.250711
0.250191
0.249765
0.249258
0.249313
0.249662
0.25044
0.251381
0.252309
0.252284
0.251997
0.251279
0.250457
0.249638
0.24976
0.250797
0.252095
0.252591
0.252244
0.251369
0.250209
0.250888
0.251862
0.252424
0.252123
0.251118
0.2514
0.258655
0.34414
0.700007
0.251374
0.251496
0.251534
0.251571
0.251649
0.251768
0.251892
0.25197
0.252046
0.25211
0.252146
0.252178
0.252229
0.252285
0.252351
0.252461
0.25269
0.25305
0.253263
0.253241
0.2531
0.253049
0.253136
0.253432
0.253785
0.254008
0.254098
0.254096
0.254043
0.254042
0.25414
0.254183
0.254183
0.254152
0.254095
0.254025
0.253769
0.253553
0.253567
0.253532
0.253297
0.252822
0.252365
0.252285
0.252309
0.252474
0.252599
0.252606
0.252525
0.252294
0.252189
0.252186
0.252233
0.252468
0.252698
0.252762
0.252804
0.252864
0.25291
0.252953
0.253044
0.25317
0.253266
0.253415
0.253519
0.253414
0.253094
0.252638
0.252356
0.252222
0.252084
0.251841
0.251877
0.252273
0.252975
0.253654
0.254282
0.254397
0.254129
0.25351
0.252619
0.251558
0.25132
0.25221
0.253525
0.254997
0.254861
0.254161
0.252842
0.251893
0.252856
0.254679
0.254561
0.253914
0.252952
0.25373
0.255253
0.255265
0.255206
0.380009
0.257627
0.257631
0.257592
0.257463
0.257438
0.257567
0.257715
0.257746
0.25776
0.257745
0.257689
0.257627
0.257527
0.257301
0.257183
0.257162
0.257099
0.256892
0.256758
0.256685
0.256529
0.256269
0.25615
0.256155
0.256149
0.255983
0.255598
0.255251
0.255064
0.254864
0.254643
0.254487
0.254282
0.254052
0.253988
0.253949
0.253646
0.253399
0.253432
0.253407
0.253168
0.252731
0.252553
0.25256
0.25268
0.253011
0.253258
0.253267
0.253124
0.253126
0.253213
0.253409
0.253715
0.254161
0.25485
0.255335
0.255555
0.255674
0.25571
0.25576
0.255756
0.255537
0.255157
0.254953
0.254765
0.254374
0.254171
0.25426
0.254344
0.25436
0.254508
0.255168
0.256292
0.257498
0.258119
0.257982
0.257427
0.256523
0.255601
0.255119
0.255543
0.256853
0.258492
0.260142
0.260028
0.259156
0.257947
0.256624
0.25742
0.259205
0.261073
0.260714
0.259831
0.259961
0.260748
0.261643
0.261286
0.260759
0.260797
0.263147
0.265912
0.265876
0.265915
0.266125
0.266198
0.266135
0.266025
0.26604
0.266146
0.266166
0.266091
0.266019
0.266033
0.266073
0.265918
0.265576
0.265523
0.265485
0.265329
0.265194
0.265204
0.26524
0.265231
0.265183
0.265151
0.265189
0.265294
0.265407
0.265542
0.265766
0.266058
0.266409
0.266905
0.267501
0.268001
0.268473
0.269008
0.269463
0.269807
0.270331
0.270977
0.271028
0.270917
0.270951
0.271237
0.271851
0.272147
0.272188
0.272305
0.27259
0.272834
0.27297
0.272901
0.272713
0.27252
0.272377
0.272342
0.272379
0.272344
0.272165
0.271802
0.271415
0.271304
0.271245
0.271025
0.270774
0.270834
0.271172
0.271774
0.272268
0.272606
0.272565
0.272363
0.271908
0.271357
0.271012
0.270724
0.270843
0.271166
0.271727
0.272318
0.272764
0.272572
0.271914
0.271098
0.270453
0.270717
0.271622
0.27275
0.272584
0.271949
0.271043
0.271195
0.271623
0.271776
0.271603
0.271617
0.271839
0.271982
0.271996
0.287369
0.287368
0.287425
0.287674
0.287726
0.287664
0.287698
0.287806
0.287842
0.2879
0.288008
0.288277
0.288743
0.288927
0.2888
0.288741
0.288772
0.288968
0.289001
0.288887
0.288872
0.28892
0.288932
0.2889
0.28883
0.288754
0.288679
0.288524
0.288217
0.287916
0.287639
0.287373
0.287213
0.287084
0.286924
0.286905
0.287027
0.287134
0.287107
0.287029
0.287039
0.286982
0.286725
0.286309
0.28579
0.285158
0.284522
0.284004
0.28364
0.283436
0.28326
0.283
0.282599
0.281906
0.280898
0.279738
0.278916
0.278776
0.278922
0.279282
0.279539
0.279628
0.279779
0.280037
0.280364
0.280717
0.281152
0.281495
0.281628
0.281765
0.281698
0.281524
0.281222
0.280801
0.280473
0.280382
0.280514
0.28075
0.28104
0.281082
0.280868
0.280301
0.279645
0.279353
0.279655
0.280315
0.281184
0.281347
0.280733
0.279844
0.279386
0.279751
0.280308
0.280285
0.280093
0.280162
0.280114
0.279899
0.279622
0.279404
0.306225
0.306399
0.306976
0.307354
0.307312
0.306803
0.306207
0.305885
0.305619
0.305498
0.305407
0.305386
0.305541
0.305575
0.305441
0.305449
0.305494
0.305416
0.305267
0.305165
0.305059
0.304939
0.304939
0.304934
0.304817
0.304743
0.304811
0.304709
0.304459
0.304553
0.304613
0.304353
0.303807
0.303403
0.303143
0.302736
0.302148
0.30154
0.301016
0.300681
0.300437
0.300081
0.299904
0.300075
0.300339
0.300411
0.300494
0.30078
0.301211
0.301501
0.301867
0.302291
0.30241
0.302365
0.302374
0.302598
0.303087
0.303544
0.30399
0.304347
0.304233
0.304147
0.30419
0.304114
0.303866
0.303539
0.303053
0.302269
0.301308
0.30039
0.299657
0.298976
0.298601
0.298382
0.298097
0.298039
0.298063
0.297981
0.297611
0.297086
0.296457
0.295889
0.295511
0.295361
0.29522
0.294802
0.294154
0.293354
0.292366
0.292042
0.291966
0.291727
0.291406
0.290785
0.290256
0.289938
0.289466
0.288727
0.288743
0.288811
0.333257
0.333068