/*--------------------------------*- C++ -*----------------------------------*\
  =========                 |
  \\      /  F ield         | OpenFOAM: The Open Source CFD Toolbox
   \\    /   O peration     | Website:  https://openfoam.org
    \\  /    A nd           | Version:  7
     \\/     M anipulation  |
\*---------------------------------------------------------------------------*/
FoamFile
{
    version     2.0;
    format      ascii;
    class       volScalarField;
    location    "5";
    object      rho;
}
// * * * * * * * * * * * * * * * * * * * * * * * * * * * * * * * * * * * * * //

dimensions      [1 -3 0 0 0 0 0];

internalField   nonuniform List<scalar> 
8400
(
0.220867
0.306309
0.401313
0.484818
0.555927
0.62373
0.66826
0.717411
0.74683
0.761088
0.78349
0.802961
0.817806
0.843947
0.868771
0.879507
0.890379
0.901875
0.903339
0.891777
0.885041
0.889803
0.902888
0.9217
0.932516
0.943022
0.9456
0.948137
0.953323
0.95844
0.152097
0.154112
0.162473
0.184746
0.220067
0.272548
0.350274
0.430591
0.520172
0.602908
0.676024
0.73484
0.783744
0.819654
0.835539
0.845839
0.851059
0.83708
0.813547
0.784135
0.777632
0.786215
0.814667
0.846443
0.875797
0.879576
0.874314
0.875392
0.882886
0.890376
0.17134
0.172607
0.17326
0.174618
0.175502
0.17543
0.174966
0.176541
0.189759
0.224741
0.27592
0.346076
0.434205
0.524531
0.595022
0.653356
0.719532
0.761648
0.767348
0.776462
0.780906
0.780949
0.784299
0.790349
0.803934
0.827816
0.835595
0.842344
0.84802
0.853803
0.171303
0.172374
0.1722
0.17196
0.171501
0.170571
0.170527
0.17055
0.170135
0.168887
0.166193
0.165574
0.166583
0.181782
0.22014
0.280022
0.372537
0.50254
0.626497
0.726342
0.769977
0.784382
0.793152
0.79497
0.795406
0.805803
0.841774
0.850472
0.847914
0.847329
0.166309
0.168673
0.17029
0.170319
0.169906
0.168798
0.168021
0.168334
0.168951
0.169237
0.16747
0.166814
0.169883
0.183864
0.191965
0.193066
0.193261
0.20237
0.253878
0.35398
0.503656
0.624064
0.72703
0.772915
0.798771
0.826047
0.876929
0.86447
0.867701
0.881424
0.164062
0.164787
0.165886
0.167561
0.168454
0.168554
0.168903
0.171357
0.17747
0.186804
0.19172
0.194705
0.200548
0.208765
0.219859
0.226038
0.226439
0.225852
0.225872
0.230784
0.24031
0.287001
0.374105
0.520492
0.663179
0.762872
0.835359
0.872223
0.915672
0.96468
0.174309
0.179881
0.185599
0.190379
0.194227
0.197333
0.201005
0.206548
0.21417
0.222129
0.229206
0.233126
0.234467
0.235631
0.240106
0.243875
0.246415
0.249467
0.2573
0.266099
0.276377
0.29081
0.290893
0.291878
0.317582
0.389701
0.507977
0.694633
0.831757
0.933354
0.220122
0.225775
0.231791
0.23695
0.240945
0.240769
0.23934
0.239633
0.241933
0.247498
0.254978
0.257212
0.255255
0.256432
0.262469
0.273661
0.286252
0.299049
0.313677
0.322247
0.327552
0.32814
0.327708
0.328408
0.331111
0.33634
0.341234
0.366207
0.424611
0.637947
0.254393
0.258512
0.266779
0.277417
0.281401
0.280061
0.276442
0.276394
0.279158
0.286976
0.299034
0.309005
0.316402
0.322694
0.329836
0.33963
0.346279
0.346589
0.348886
0.354038
0.354315
0.355558
0.359321
0.36617
0.374455
0.384311
0.391128
0.398751
0.396994
0.397954
0.313114
0.317544
0.326975
0.340945
0.349355
0.350565
0.349341
0.347915
0.348686
0.353269
0.362287
0.37024
0.374712
0.375316
0.375777
0.377911
0.37771
0.372067
0.36936
0.371477
0.378053
0.384543
0.393201
0.405275
0.415686
0.422301
0.424056
0.423227
0.423153
0.427639
0.386652
0.38768
0.391989
0.402763
0.416541
0.419675
0.418701
0.412482
0.407137
0.407162
0.41106
0.417593
0.420808
0.420601
0.420516
0.422534
0.427497
0.434084
0.44079
0.448093
0.454938
0.458294
0.459052
0.459421
0.458548
0.457298
0.455691
0.456632
0.462161
0.475804
0.473957
0.473978
0.475071
0.479682
0.491515
0.499769
0.500665
0.497367
0.488798
0.486591
0.489128
0.495941
0.500275
0.501889
0.503533
0.507734
0.510701
0.510594
0.510431
0.511497
0.511928
0.511333
0.509897
0.509332
0.507957
0.508779
0.511781
0.517404
0.523604
0.525402
0.583674
0.574523
0.573235
0.574322
0.579046
0.587741
0.592246
0.591528
0.584644
0.576368
0.574774
0.576878
0.577557
0.575219
0.573288
0.573247
0.572672
0.568348
0.562015
0.560925
0.561557
0.562712
0.564388
0.565682
0.568108
0.571423
0.575509
0.576243
0.574386
0.568913
0.719473
0.699606
0.686067
0.684226
0.686706
0.693951
0.699123
0.698941
0.693633
0.681282
0.674509
0.675505
0.675266
0.670744
0.665123
0.665205
0.665274
0.66268
0.657391
0.654908
0.653341
0.651021
0.647837
0.643499
0.639545
0.635404
0.63132
0.625547
0.619677
0.613795
0.870695
0.857611
0.827577
0.815181
0.814428
0.82114
0.825946
0.824712
0.817179
0.80133
0.791943
0.792362
0.791542
0.782342
0.768037
0.765772
0.764158
0.758958
0.749167
0.741061
0.735634
0.731453
0.726575
0.720442
0.713232
0.706009
0.700609
0.695632
0.69277
0.687835
1.03426
1.02659
1.00627
0.977307
0.963062
0.964134
0.971906
0.972386
0.962331
0.939642
0.922978
0.922951
0.92267
0.912214
0.889771
0.881883
0.87864
0.871839
0.860424
0.848655
0.83886
0.830678
0.822055
0.812217
0.802137
0.794122
0.786897
0.779837
0.772445
0.756471
1.21714
1.20961
1.196
1.16887
1.14044
1.12842
1.13141
1.13605
1.12837
1.10412
1.07425
1.06843
1.06814
1.0578
1.02944
1.0151
1.00943
0.999792
0.98457
0.968159
0.953849
0.940925
0.928919
0.915914
0.90148
0.887572
0.874643
0.86001
0.846648
0.825536
1.42022
1.4118
1.40035
1.37814
1.34245
1.31396
1.31005
1.31489
1.30938
1.28462
1.2442
1.23341
1.2324
1.22036
1.18527
1.164
1.15478
1.14197
1.12261
1.10162
1.08181
1.06395
1.04718
1.0292
1.01032
0.991236
0.974196
0.957294
0.942304
0.916384
1.64572
1.63581
1.62262
1.60293
1.57001
1.52907
1.51586
1.51807
1.51083
1.48135
1.43173
1.41539
1.41134
1.3956
1.35986
1.33146
1.31336
1.29439
1.2712
1.24702
1.22206
1.19867
1.17672
1.15351
1.12992
1.10682
1.08384
1.06141
1.04211
1.00762
1.89713
1.88431
1.87115
1.85245
1.81515
1.78846
1.77057
1.7503
1.72837
1.70147
1.6555
1.62774
1.61293
1.58985
1.55209
1.51993
1.49149
1.46253
1.43391
1.40485
1.37526
1.3452
1.31756
1.28955
1.26027
1.2323
1.20545
1.17729
1.15303
1.11187
2.04816
2.04573
2.04183
2.03409
2.02113
2.0058
1.99067
1.97404
1.95567
1.93506
1.90489
1.87256
1.84521
1.81564
1.77838
1.73997
1.70204
1.66255
1.62562
1.58841
1.55046
1.51198
1.4753
1.44056
1.40552
1.37074
1.33809
1.30484
1.27542
1.22525
2.0484
2.04968
2.05103
2.05207
2.05392
2.05426
2.05265
2.04913
2.04259
2.03691
2.03203
2.02517
2.01491
1.99913
1.98055
1.95739
1.92635
1.8892
1.84995
1.80841
1.76299
1.71601
1.66783
1.62068
1.57569
1.53096
1.48837
1.44663
1.41057
1.34983
1.9447
1.94972
1.95831
1.97015
1.98567
2.00483
2.01578
2.01403
2.01583
2.02325
2.02588
2.02408
2.02233
2.02437
2.02624
2.02429
2.01754
2.00821
1.99857
1.98438
1.96158
1.92852
1.88671
1.8392
1.78744
1.73297
1.67698
1.62037
1.57223
1.49389
1.6434
1.65956
1.68618
1.7124
1.73079
1.75677
1.78823
1.80986
1.83246
1.86132
1.90124
1.91889
1.92919
1.95032
1.97744
1.98977
1.99441
1.99915
2.00113
2.00185
2.00103
1.99762
1.99031
1.97858
1.95945
1.92892
1.88571
1.83127
1.77612
1.67688
1.43281
1.43814
1.44481
1.45397
1.4641
1.47606
1.49177
1.50949
1.52917
1.55263
1.58148
1.61738
1.65035
1.68639
1.72948
1.77272
1.81401
1.85095
1.89056
1.92032
1.94455
1.9613
1.97364
1.97903
1.97842
1.9765
1.97105
1.95866
1.93834
1.87117
1.40093
1.40117
1.4015
1.40197
1.40261
1.40349
1.40477
1.40659
1.40896
1.41232
1.41692
1.42402
1.43368
1.44559
1.46293
1.48538
1.51504
1.54996
1.5936
1.64259
1.69711
1.75244
1.80402
1.85763
1.894
1.92324
1.94663
1.95399
1.95269
1.94186
1.40001
1.40002
1.40002
1.40002
1.40003
1.40004
1.40006
1.40009
1.40013
1.4002
1.40032
1.40052
1.40088
1.40145
1.40245
1.40415
1.40715
1.41191
1.4198
1.43254
1.45102
1.47959
1.51684
1.56569
1.62611
1.69013
1.75633
1.81954
1.86795
1.90741
1.40001
1.40001
1.40001
1.40001
1.40001
1.40001
1.40001
1.40001
1.40001
1.40001
1.40001
1.40001
1.40001
1.40002
1.40003
1.40005
1.40009
1.40019
1.4004
1.40085
1.40181
1.40381
1.40778
1.41542
1.4292
1.4527
1.48862
1.54118
1.60246
1.71272
1.40001
1.40001
1.40001
1.40001
1.40001
1.40001
1.40001
1.40001
1.40001
1.40001
1.40001
1.40001
1.40001
1.40001
1.40001
1.40001
1.40001
1.40001
1.40001
1.40001
1.40002
1.40005
1.40011
1.4003
1.40077
1.40203
1.40499
1.41211
1.42462
1.47504
1.40001
1.40001
1.40001
1.40001
1.40001
1.40001
1.40001
1.40001
1.40001
1.40001
1.40001
1.40001
1.40001
1.40001
1.40001
1.40001
1.40001
1.40001
1.40001
1.40001
1.40001
1.40001
1.40001
1.40001
1.40001
1.40002
1.40007
1.40023
1.40066
1.4052
0.144045
0.150522
0.169911
0.170291
0.16533
0.163773
0.169408
0.215437
0.252392
0.311105
0.387681
0.484436
0.601884
0.731007
0.875814
1.03999
1.22593
1.43162
1.66381
1.92083
2.0529
2.04774
1.93064
1.61516
1.42563
1.40072
1.40001
1.40001
1.40001
1.40001
0.145166
0.152993
0.171058
0.168203
0.164437
0.164594
0.172645
0.222398
0.268004
0.334749
0.422799
0.521107
0.631008
0.755105
0.900406
1.06962
1.26208
1.47846
1.7289
1.97392
2.06517
2.04431
1.87669
1.56059
1.41425
1.40028
1.40001
1.40001
1.40001
1.40001
0.147379
0.153103
0.168348
0.166363
0.164565
0.168775
0.180196
0.233668
0.287525
0.353354
0.437578
0.53076
0.63861
0.764894
0.914694
1.09729
1.30911
1.54604
1.80394
2.01437
2.07277
2.03509
1.82094
1.51938
1.40838
1.40014
1.40001
1.40001
1.40001
1.40001
0.148492
0.152101
0.164263
0.163784
0.1646
0.175253
0.194352
0.246252
0.299596
0.360905
0.442081
0.535482
0.643969
0.782871
0.960727
1.17
1.3887
1.61908
1.8666
2.04536
2.07485
2.01832
1.77201
1.48662
1.40468
1.40007
1.40001
1.40001
1.40001
1.40001
0.148628
0.149209
0.161536
0.162099
0.16432
0.178698
0.201052
0.250019
0.303243
0.365272
0.444482
0.543407
0.677854
0.848191
1.0336
1.22746
1.43533
1.66251
1.91133
2.06736
2.07485
1.989
1.72053
1.45793
1.40237
1.40003
1.40001
1.40001
1.40001
1.40001
0.147437
0.14778
0.160942
0.161517
0.163178
0.179101
0.201917
0.250879
0.303705
0.372029
0.461793
0.5916
0.743761
0.900767
1.06961
1.25779
1.47152
1.71112
1.96276
2.08093
2.07636
1.9629
1.65296
1.43494
1.4011
1.40002
1.40001
1.40001
1.40001
1.40001
0.146629
0.14786
0.161211
0.161332
0.16095
0.176127
0.200127
0.250812
0.312458
0.401327
0.512429
0.63564
0.771137
0.920918
1.0931
1.29416
1.53327
1.79336
2.01647
2.08623
2.06907
1.9126
1.58913
1.42091
1.40052
1.40001
1.40001
1.40001
1.40001
1.40001
0.146397
0.148268
0.16135
0.160968
0.159915
0.174014
0.201211
0.265301
0.34571
0.432445
0.53571
0.650201
0.782098
0.937401
1.133
1.37025
1.6207
1.8672
2.04961
2.08769
2.04689
1.84528
1.54373
1.41245
1.40024
1.40001
1.40001
1.40001
1.40001
1.40001
0.146342
0.148943
0.160851
0.1597
0.159847
0.177254
0.219199
0.285822
0.360122
0.440838
0.541565
0.657498
0.795671
0.989227
1.22213
1.44957
1.67892
1.91684
2.0729
2.08842
2.02602
1.80094
1.5055
1.4066
1.40011
1.40001
1.40001
1.40001
1.40001
1.40001
0.1464
0.151411
0.160278
0.157275
0.16166
0.189294
0.232106
0.291487
0.363257
0.444178
0.543075
0.677184
0.867041
1.07916
1.28624
1.49742
1.73039
1.97252
2.09333
2.09259
2.011
1.74612
1.46679
1.40312
1.40004
1.40001
1.40001
1.40001
1.40001
1.40001
0.147183
0.154264
0.160271
0.155839
0.165188
0.194944
0.234171
0.292957
0.363811
0.451203
0.578858
0.75732
0.94447
1.12775
1.32568
1.5531
1.81421
2.03201
2.1031
2.09634
1.98808
1.66218
1.43869
1.40138
1.40002
1.40001
1.40001
1.40001
1.40001
1.40001
0.148498
0.155566
0.16054
0.155403
0.165704
0.195153
0.23432
0.298812
0.382047
0.501319
0.650881
0.810016
0.976703
1.15889
1.38167
1.64961
1.89741
2.06862
2.10609
2.08615
1.91472
1.59222
1.42249
1.40061
1.40001
1.40001
1.40001
1.40001
1.40001
1.40001
0.149736
0.155746
0.159234
0.154701
0.164513
0.19475
0.241873
0.334035
0.436156
0.550889
0.682171
0.829713
0.998783
1.21221
1.47852
1.73129
1.95055
2.09232
2.107
2.05557
1.84209
1.54193
1.41246
1.40026
1.40001
1.40001
1.40001
1.40001
1.40001
1.40001
0.150479
0.154539
0.156404
0.152071
0.161055
0.198135
0.27098
0.366403
0.461528
0.567527
0.695871
0.849298
1.05583
1.31736
1.55859
1.79201
2.00181
2.11107
2.10423
2.02792
1.79122
1.49944
1.40623
1.40011
1.40001
1.40001
1.40001
1.40001
1.40001
1.40001
0.149488
0.152001
0.155471
0.149684
0.160089
0.210567
0.29142
0.37456
0.46792
0.575091
0.714205
0.917775
1.16763
1.39697
1.61943
1.86512
2.05965
2.11841
2.10679
2.01107
1.72671
1.45941
1.40274
1.40004
1.40001
1.40001
1.40001
1.40001
1.40001
1.40001
0.145295
0.149242
0.155471
0.14875
0.164691
0.228115
0.296172
0.372616
0.469114
0.59992
0.796086
1.02329
1.23794
1.45405
1.7014
1.95125
2.09892
2.12005
2.10886
1.97447
1.63272
1.43129
1.40106
1.40002
1.40001
1.40001
1.40001
1.40001
1.40001
1.40001
0.141223
0.146593
0.155867
0.149118
0.173167
0.233437
0.292823
0.374184
0.50982
0.689049
0.881594
1.07743
1.28555
1.53335
1.80235
2.01241
2.11592
2.11921
2.08217
1.8709
1.56018
1.41672
1.40042
1.40001
1.40001
1.40001
1.40001
1.40001
1.40001
1.40001
0.139718
0.145099
0.157573
0.154631
0.176315
0.235144
0.295253
0.428999
0.59234
0.748964
0.919824
1.11431
1.35942
1.64514
1.88201
2.0564
2.12205
2.11874
2.03881
1.79792
1.51207
1.40843
1.40017
1.40001
1.40001
1.40001
1.40001
1.40001
1.40001
1.40001
0.139729
0.144007
0.15803
0.158232
0.176737
0.241094
0.34355
0.494957
0.63185
0.776699
0.954472
1.19062
1.48476
1.73981
1.95303
2.09323
2.12651
2.10569
2.00409
1.7364
1.46963
1.40364
1.40006
1.40001
1.40001
1.40001
1.40001
1.40001
1.40001
1.40001
0.141706
0.141103
0.154303
0.158218
0.176945
0.258843
0.397707
0.523301
0.648241
0.805522
1.03875
1.32965
1.58759
1.82438
2.02441
2.11878
2.13047
2.10019
1.969
1.65349
1.43685
1.40141
1.40002
1.40001
1.40001
1.40001
1.40001
1.40001
1.40001
1.40001
0.148115
0.137997
0.148443
0.157347
0.195456
0.301104
0.422302
0.530775
0.674118
0.903355
1.17375
1.42798
1.67131
1.91517
2.08092
2.1333
2.13409
2.10403
1.90077
1.56532
1.41733
1.40048
1.40001
1.40001
1.40001
1.40001
1.40001
1.40001
1.40001
1.40001
0.154581
0.136006
0.142973
0.160805
0.226382
0.325307
0.426535
0.546759
0.781585
1.02426
1.26006
1.50493
1.773
1.99521
2.11863
2.14046
2.13513
2.06404
1.79175
1.50224
1.40763
1.40016
1.40001
1.40001
1.40001
1.40001
1.40001
1.40001
1.40001
1.40001
0.157255
0.13304
0.13787
0.169203
0.24565
0.334011
0.428381
0.651872
0.886319
1.09816
1.33142
1.61432
1.88274
2.05783
2.13639
2.14258
2.1205
1.98336
1.70073
1.46015
1.40314
1.40005
1.40001
1.40001
1.40001
1.40001
1.40001
1.40001
1.40001
1.40001
0.156089
0.128407
0.13641
0.183201
0.253293
0.347319
0.511177
0.74903
0.951361
1.1682
1.45249
1.75412
1.97245
2.10208
2.14073
2.1375
2.09098
1.92505
1.62327
1.43105
1.40114
1.40002
1.40001
1.40001
1.40001
1.40001
1.40001
1.40001
1.40001
1.40001
0.151633
0.123762
0.143205
0.20052
0.260698
0.382748
0.614279
0.812656
1.01566
1.29676
1.61048
1.86541
2.04229
2.12795
2.14042
2.12465
2.06304
1.86036
1.54466
1.41408
1.40038
1.40001
1.40001
1.40001
1.40001
1.40001
1.40001
1.40001
1.40001
1.40001
0.148111
0.120796
0.14774
0.212409
0.300449
0.480719
0.675517
0.867473
1.15097
1.45718
1.73179
1.95673
2.09494
2.14021
2.13956
2.12257
2.03977
1.75585
1.47984
1.40526
1.40011
1.40001
1.40001
1.40001
1.40001
1.40001
1.40001
1.40001
1.40001
1.40001
0.142987
0.118877
0.146911
0.223886
0.362706
0.548452
0.724837
0.989132
1.30789
1.58699
1.84217
2.04019
2.12788
2.14351
2.1437
2.12565
1.96787
1.64179
1.4381
1.40165
1.40003
1.40001
1.40001
1.40001
1.40001
1.40001
1.40001
1.40001
1.40001
1.40001
0.138626
0.119334
0.146513
0.249828
0.419465
0.596155
0.81574
1.15335
1.44598
1.71742
1.95813
2.0981
2.14293
2.14529
2.14213
2.08184
1.85066
1.55294
1.41663
1.40051
1.40001
1.40001
1.40001
1.40001
1.40001
1.40001
1.40001
1.40001
1.40001
1.40001
0.130332
0.124813
0.17224
0.29961
0.465185
0.660739
0.989508
1.30187
1.5889
1.86179
2.04514
2.12972
2.1482
2.14737
2.12882
2.01588
1.759
1.49094
1.40659
1.40014
1.40001
1.40001
1.40001
1.40001
1.40001
1.40001
1.40001
1.40001
1.40001
1.40001
0.110662
0.124777
0.202411
0.348265
0.537179
0.816897
1.14474
1.45055
1.75753
1.97773
2.09715
2.14581
2.15162
2.14299
2.10617
1.96461
1.66894
1.44499
1.40219
1.40004
1.40001
1.40001
1.40001
1.40001
1.40001
1.40001
1.40001
1.40001
1.40001
1.40001
0.0930531
0.120436
0.224493
0.403421
0.654624
0.988931
1.30397
1.63586
1.90575
2.05699
2.12689
2.15409
2.15418
2.13837
2.08292
1.88657
1.55824
1.41723
1.40056
1.40001
1.40001
1.40001
1.40001
1.40001
1.40001
1.40001
1.40001
1.40001
1.40001
1.40001
0.0750649
0.130986
0.263909
0.499123
0.815227
1.15139
1.50015
1.81309
2.0219
2.10512
2.14177
2.15678
2.1566
2.14427
2.05017
1.73962
1.4748
1.4053
1.40012
1.40001
1.40001
1.40001
1.40001
1.40001
1.40001
1.40001
1.40001
1.40001
1.40001
1.40001
0.0524646
0.161869
0.344534
0.639703
0.991721
1.35076
1.71427
1.95909
2.10009
2.12649
2.14806
2.15616
2.15612
2.12612
1.92582
1.60971
1.43191
1.40141
1.40003
1.40001
1.40001
1.40001
1.40001
1.40001
1.40001
1.40001
1.40001
1.40001
1.40001
1.40001
0.0319661
0.183411
0.460341
0.820198
1.21839
1.60546
1.89425
2.06342
2.13849
2.13302
2.15141
2.15104
2.14164
2.05034
1.80417
1.5239
1.41192
1.40035
1.40001
1.40001
1.40001
1.40001
1.40001
1.40001
1.40001
1.40001
1.40001
1.40001
1.40001
1.40001
0.0229391
0.23855
0.640066
1.06669
1.47957
1.82148
2.0281
2.12296
2.14988
2.13529
2.15344
2.14628
2.11233
1.98058
1.70004
1.45897
1.40341
1.40007
1.40001
1.40001
1.40001
1.40001
1.40001
1.40001
1.40001
1.40001
1.40001
1.40001
1.40001
1.40001
0.0579458
0.421655
0.871644
1.34773
1.74123
1.98878
2.10659
2.14806
2.15361
2.13282
2.15323
2.14379
2.08518
1.89894
1.57267
1.41969
1.40072
1.40002
1.40001
1.40001
1.40001
1.40001
1.40001
1.40001
1.40001
1.40001
1.40001
1.40001
1.40001
1.40001
0.184036
0.632763
1.17935
1.65671
1.95611
2.09524
2.14042
2.15586
2.15421
2.12965
2.15091
2.14674
2.05634
1.74206
1.46903
1.40467
1.40011
1.40001
1.40001
1.40001
1.40001
1.40001
1.40001
1.40001
1.40001
1.40001
1.40001
1.40001
1.40001
1.40001
0.402779
0.931754
1.55387
1.92899
2.08573
2.13762
2.15103
2.15729
2.15246
2.12795
2.14446
2.12623
1.92938
1.57878
1.42139
1.40081
1.40002
1.40001
1.40001
1.40001
1.40001
1.40001
1.40001
1.40001
1.40001
1.40001
1.40001
1.40001
1.40001
1.40001
0.776614
1.41232
1.89041
2.08332
2.13536
2.14802
2.15302
2.15716
2.14889
2.12689
2.13498
2.04284
1.75322
1.47839
1.40506
1.40011
1.40001
1.40001
1.40001
1.40001
1.40001
1.40001
1.40001
1.40001
1.40001
1.40001
1.40001
1.40001
1.40001
1.40001
1.40622
1.87202
2.09404
2.14114
2.14745
2.14958
2.15213
2.15589
2.14745
2.12758
2.13448
1.94349
1.60552
1.42287
1.40063
1.40001
1.40001
1.40001
1.40001
1.40001
1.40001
1.40001
1.40001
1.40001
1.40001
1.40001
1.40001
1.40001
1.40001
1.40001
2.15131
2.15161
2.15165
2.15132
2.14879
2.1487
2.14876
2.15562
2.14776
2.13074
2.09639
1.79379
1.46199
1.39938
1.39994
1.4
1.40001
1.40001
1.40001
1.40001
1.40001
1.40001
1.40001
1.40001
1.40001
1.40001
1.40001
1.40001
1.40001
1.40001
2.14889
2.15127
2.15371
2.15362
2.14843
2.14363
2.14524
2.15718
2.1562
2.1261
2.0502
1.73174
1.45612
1.40254
1.40004
1.40001
1.40001
1.40001
1.40001
1.40001
1.40001
1.40001
1.40001
1.40001
1.40001
1.40001
1.40001
1.40001
1.40001
1.40001
2.14833
2.1509
2.15485
2.15536
2.14922
2.14069
2.14294
2.15743
2.15691
2.11546
1.98467
1.63042
1.42143
1.40034
1.40001
1.40001
1.40001
1.40001
1.40001
1.40001
1.40001
1.40001
1.40001
1.40001
1.40001
1.40001
1.40001
1.40001
1.40001
1.40001
2.14832
2.15075
2.15517
2.15579
2.14949
2.13882
2.14006
2.15617
2.15697
2.1017
1.92195
1.55998
1.41002
1.40013
1.40001
1.40001
1.40001
1.40001
1.40001
1.40001
1.40001
1.40001
1.40001
1.40001
1.40001
1.40001
1.40001
1.40001
1.40001
1.40001
2.14858
2.15061
2.15503
2.1557
2.15002
2.13873
2.13878
2.15689
2.15972
2.09736
1.8395
1.4894
1.40353
1.40004
1.40001
1.40001
1.40001
1.40001
1.40001
1.40001
1.40001
1.40001
1.40001
1.40001
1.40001
1.40001
1.40001
1.40001
1.40001
1.40001
2.15056
2.15086
2.15336
2.15371
2.1502
2.14122
2.14031
2.15817
2.16078
2.05225
1.73065
1.44808
1.40127
1.40001
1.40001
1.40001
1.40001
1.40001
1.40001
1.40001
1.40001
1.40001
1.40001
1.40001
1.40001
1.40001
1.40001
1.40001
1.40001
1.40001
2.15282
2.15131
2.15085
2.15035
2.1491
2.14622
2.14359
2.15317
2.15055
1.98022
1.63797
1.42267
1.40039
1.40001
1.40001
1.40001
1.40001
1.40001
1.40001
1.40001
1.40001
1.40001
1.40001
1.40001
1.40001
1.40001
1.40001
1.40001
1.40001
1.40001
2.1547
2.15118
2.14776
2.14629
2.14872
2.15396
2.14644
2.1437
2.12671
1.91727
1.555
1.40926
1.40011
1.40001
1.40001
1.40001
1.40001
1.40001
1.40001
1.40001
1.40001
1.40001
1.40001
1.40001
1.40001
1.40001
1.40001
1.40001
1.40001
1.40001
2.15585
2.15118
2.14553
2.14215
2.14855
2.15949
2.1559
2.13266
2.09838
1.83879
1.48629
1.40334
1.40003
1.40001
1.40001
1.40001
1.40001
1.40001
1.40001
1.40001
1.40001
1.40001
1.40001
1.40001
1.40001
1.40001
1.40001
1.40001
1.40001
1.40001
2.15651
2.15142
2.14448
2.14006
2.14573
2.16215
2.16376
2.12728
2.05385
1.72947
1.44522
1.40113
1.40001
1.40001
1.40001
1.40001
1.40001
1.40001
1.40001
1.40001
1.40001
1.40001
1.40001
1.40001
1.40001
1.40001
1.40001
1.40001
1.40001
1.40001
2.15665
2.15143
2.14416
2.13943
2.14387
2.16385
2.16557
2.12168
2.0003
1.62887
1.42037
1.40032
1.40001
1.40001
1.40001
1.40001
1.40001
1.40001
1.40001
1.40001
1.40001
1.40001
1.40001
1.40001
1.40001
1.40001
1.40001
1.40001
1.40001
1.40001
2.15535
2.15058
2.14496
2.14024
2.14292
2.16502
2.16607
2.10061
1.91827
1.54057
1.40787
1.40009
1.40001
1.40001
1.40001
1.40001
1.40001
1.40001
1.40001
1.40001
1.40001
1.40001
1.40001
1.40001
1.40001
1.40001
1.40001
1.40001
1.40001
1.40001
2.15214
2.14924
2.14741
2.14275
2.14201
2.1657
2.16791
2.07932
1.81399
1.47667
1.40261
1.40003
1.40001
1.40001
1.40001
1.40001
1.40001
1.40001
1.40001
1.40001
1.40001
1.40001
1.40001
1.40001
1.40001
1.40001
1.40001
1.40001
1.40001
1.40001
2.14954
2.14755
2.15023
2.14571
2.13975
2.16
2.16869
2.05377
1.70212
1.43653
1.40079
1.40001
1.40001
1.40001
1.40001
1.40001
1.40001
1.40001
1.40001
1.40001
1.40001
1.40001
1.40001
1.40001
1.40001
1.40001
1.40001
1.40001
1.40001
1.40001
2.14847
2.1456
2.15102
2.15086
2.13843
2.1492
2.15538
1.98159
1.5948
1.41421
1.4002
1.40001
1.40001
1.40001
1.40001
1.40001
1.40001
1.40001
1.40001
1.40001
1.40001
1.40001
1.40001
1.40001
1.40001
1.40001
1.40001
1.40001
1.40001
1.40001
2.14823
2.14359
2.14833
2.15717
2.15061
2.1393
2.12791
1.88391
1.51731
1.40535
1.40005
1.40001
1.40001
1.40001
1.40001
1.40001
1.40001
1.40001
1.40001
1.40001
1.40001
1.40001
1.40001
1.40001
1.40001
1.40001
1.40001
1.40001
1.40001
1.40001
2.14834
2.14324
2.14288
2.16206
2.17273
2.13794
2.10004
1.78109
1.45791
1.40159
1.40002
1.40001
1.40001
1.40001
1.40001
1.40001
1.40001
1.40001
1.40001
1.40001
1.40001
1.40001
1.40001
1.40001
1.40001
1.40001
1.40001
1.40001
1.40001
1.40001
2.14836
2.14259
2.139
2.17269
2.18315
2.14039
2.04637
1.64884
1.42336
1.40041
1.40001
1.40001
1.40001
1.40001
1.40001
1.40001
1.40001
1.40001
1.40001
1.40001
1.40001
1.40001
1.40001
1.40001
1.40001
1.40001
1.40001
1.40001
1.40001
1.40001
2.14614
2.13992
2.13645
2.17906
2.18756
2.12442
1.93726
1.55288
1.40892
1.4001
1.40001
1.40001
1.40001
1.40001
1.40001
1.40001
1.40001
1.40001
1.40001
1.40001
1.40001
1.40001
1.40001
1.40001
1.40001
1.40001
1.40001
1.40001
1.40001
1.40001
2.14328
2.13983
2.1351
2.18099
2.19056
2.10575
1.83128
1.48035
1.40263
1.40003
1.40001
1.40001
1.40001
1.40001
1.40001
1.40001
1.40001
1.40001
1.40001
1.40001
1.40001
1.40001
1.40001
1.40001
1.40001
1.40001
1.40001
1.40001
1.40001
1.40001
2.13786
2.14239
2.13572
2.17827
2.19348
2.08236
1.69853
1.43237
1.40065
1.40001
1.40001
1.40001
1.40001
1.40001
1.40001
1.40001
1.40001
1.40001
1.40001
1.40001
1.40001
1.40001
1.40001
1.40001
1.40001
1.40001
1.40001
1.40001
1.40001
1.40001
2.13095
2.14527
2.14884
2.17185
2.18009
1.97705
1.58383
1.41234
1.40016
1.40001
1.40001
1.40001
1.40001
1.40001
1.40001
1.40001
1.40001
1.40001
1.40001
1.40001
1.40001
1.40001
1.40001
1.40001
1.40001
1.40001
1.40001
1.40001
1.40001
1.40001
2.12733
2.15693
2.18291
2.1643
2.15236
1.87392
1.50116
1.40384
1.40004
1.40001
1.40001
1.40001
1.40001
1.40001
1.40001
1.40001
1.40001
1.40001
1.40001
1.40001
1.40001
1.40001
1.40001
1.40001
1.40001
1.40001
1.40001
1.40001
1.40001
1.40001
2.12669
2.17462
2.20586
2.16701
2.11595
1.73633
1.44038
1.40091
1.40001
1.40001
1.40001
1.40001
1.40001
1.40001
1.40001
1.40001
1.40001
1.40001
1.40001
1.40001
1.40001
1.40001
1.40001
1.40001
1.40001
1.40001
1.40001
1.40001
1.40001
1.40001
2.12757
2.18702
2.21929
2.16612
2.01495
1.59883
1.41445
1.4002
1.40001
1.40001
1.40001
1.40001
1.40001
1.40001
1.40001
1.40001
1.40001
1.40001
1.40001
1.40001
1.40001
1.40001
1.40001
1.40001
1.40001
1.40001
1.40001
1.40001
1.40001
1.40001
2.13405
2.19208
2.22389
2.13816
1.89057
1.51015
1.40449
1.40004
1.40001
1.40001
1.40001
1.40001
1.40001
1.40001
1.40001
1.40001
1.40001
1.40001
1.40001
1.40001
1.40001
1.40001
1.40001
1.40001
1.40001
1.40001
1.40001
1.40001
1.40001
1.40001
2.137
2.19331
2.22775
2.1161
1.75087
1.44412
1.40101
1.40001
1.40001
1.40001
1.40001
1.40001
1.40001
1.40001
1.40001
1.40001
1.40001
1.40001
1.40001
1.40001
1.40001
1.40001
1.40001
1.40001
1.40001
1.40001
1.40001
1.40001
1.40001
1.40001
2.14775
2.20573
2.22649
2.02332
1.60464
1.41461
1.40021
1.40001
1.40001
1.40001
1.40001
1.40001
1.40001
1.40001
1.40001
1.40001
1.40001
1.40001
1.40001
1.40001
1.40001
1.40001
1.40001
1.40001
1.40001
1.40001
1.40001
1.40001
1.40001
1.40001
2.19301
2.21552
2.19037
1.88312
1.5085
1.40446
1.40004
1.40001
1.40001
1.40001
1.40001
1.40001
1.40001
1.40001
1.40001
1.40001
1.40001
1.40001
1.40001
1.40001
1.40001
1.40001
1.40001
1.40001
1.40001
1.40001
1.40001
1.40001
1.40001
1.40001
2.26417
2.19909
2.13821
1.73938
1.44246
1.40101
1.40001
1.40001
1.40001
1.40001
1.40001
1.40001
1.40001
1.40001
1.40001
1.40001
1.40001
1.40001
1.40001
1.40001
1.40001
1.40001
1.40001
1.40001
1.40001
1.40001
1.40001
1.40001
1.40001
1.40001
2.3367
2.15743
2.02469
1.5886
1.41344
1.40021
1.40001
1.40001
1.40001
1.40001
1.40001
1.40001
1.40001
1.40001
1.40001
1.40001
1.40001
1.40001
1.40001
1.40001
1.40001
1.40001
1.40001
1.40001
1.40001
1.40001
1.40001
1.40001
1.40001
1.40001
2.39171
2.11077
1.86926
1.49711
1.4042
1.40005
1.40001
1.40001
1.40001
1.40001
1.40001
1.40001
1.40001
1.40001
1.40001
1.40001
1.40001
1.40001
1.40001
1.40001
1.40001
1.40001
1.40001
1.40001
1.40001
1.40001
1.40001
1.40001
1.40001
1.40001
2.41966
2.05002
1.70922
1.438
1.40102
1.40001
1.40001
1.40001
1.40001
1.40001
1.40001
1.40001
1.40001
1.40001
1.40001
1.40001
1.40001
1.40001
1.40001
1.40001
1.40001
1.40001
1.40001
1.40001
1.40001
1.40001
1.40001
1.40001
1.40001
1.40001
2.40647
1.9412
1.58393
1.4143
1.40025
1.40001
1.40001
1.40001
1.40001
1.40001
1.40001
1.40001
1.40001
1.40001
1.40001
1.40001
1.40001
1.40001
1.40001
1.40001
1.40001
1.40001
1.40001
1.40001
1.40001
1.40001
1.40001
1.40001
1.40001
1.40001
2.32169
1.82609
1.49877
1.40479
1.40006
1.40001
1.40001
1.40001
1.40001
1.40001
1.40001
1.40001
1.40001
1.40001
1.40001
1.40001
1.40001
1.40001
1.40001
1.40001
1.40001
1.40001
1.40001
1.40001
1.40001
1.40001
1.40001
1.40001
1.40001
1.40001
2.25031
1.71018
1.44374
1.40124
1.40002
1.40001
1.40001
1.40001
1.40001
1.40001
1.40001
1.40001
1.40001
1.40001
1.40001
1.40001
1.40001
1.40001
1.40001
1.40001
1.40001
1.40001
1.40001
1.40001
1.40001
1.40001
1.40001
1.40001
1.40001
1.40001
2.12792
1.58602
1.41531
1.40026
1.40001
1.40001
1.40001
1.40001
1.40001
1.40001
1.40001
1.40001
1.40001
1.40001
1.40001
1.40001
1.40001
1.40001
1.40001
1.40001
1.40001
1.40001
1.40001
1.40001
1.40001
1.40001
1.40001
1.40001
1.40001
1.40001
1.9354
1.50517
1.40489
1.40005
1.40001
1.40001
1.40001
1.40001
1.40001
1.40001
1.40001
1.40001
1.40001
1.40001
1.40001
1.40001
1.40001
1.40001
1.40001
1.40001
1.40001
1.40001
1.40001
1.40001
1.40001
1.40001
1.40001
1.40001
1.40001
1.40001
1.74726
1.44274
1.40097
1.40001
1.40001
1.40001
1.40001
1.40001
1.40001
1.40001
1.40001
1.40001
1.40001
1.40001
1.40001
1.40001
1.40001
1.40001
1.40001
1.40001
1.40001
1.40001
1.40001
1.40001
1.40001
1.40001
1.40001
1.40001
1.40001
1.40001
1.53431
1.40764
1.40007
1.40001
1.40001
1.40001
1.40001
1.40001
1.40001
1.40001
1.40001
1.40001
1.40001
1.40001
1.40001
1.40001
1.40001
1.40001
1.40001
1.40001
1.40001
1.40001
1.40001
1.40001
1.40001
1.40001
1.40001
1.40001
1.40001
1.40001
1.40001
1.40001
1.40001
1.40001
1.40001
1.40001
1.40001
1.40001
1.40001
1.40001
1.40001
1.40001
1.40001
1.40001
1.40001
1.40001
1.40001
1.40001
1.40001
1.40001
1.40001
1.40001
1.40001
1.40001
1.40001
1.40001
1.40001
1.40001
1.40001
1.40001
1.40001
1.40001
1.40001
1.40001
1.40001
1.40001
1.40001
1.40001
1.40001
1.40001
1.40001
1.40001
1.40001
1.40001
1.40001
1.40001
1.40001
1.40001
1.40001
1.40001
1.40001
1.40001
1.40001
1.40001
1.40001
1.40001
1.40001
1.40001
1.40001
1.40001
1.40001
1.40001
1.40001
1.40001
1.40001
1.40001
1.40001
1.40001
1.40001
1.40001
1.40001
1.40001
1.40001
1.40001
1.40001
1.40001
1.40001
1.40001
1.40001
1.40001
1.40001
1.40001
1.40001
1.40001
1.40001
1.40001
1.40001
1.40001
1.40001
1.40001
1.40001
1.40001
1.40001
1.40001
1.40001
1.40001
1.40001
1.40001
1.40001
1.40001
1.40001
1.40001
1.40001
1.40001
1.40001
1.40001
1.40001
1.40001
1.40001
1.40001
1.40001
1.40001
1.40001
1.40001
1.40001
1.40001
1.40001
1.40001
1.40001
1.40001
1.40001
1.40001
1.40001
1.40001
1.40001
1.40001
1.40001
1.40001
1.40001
1.40001
1.40001
1.40001
1.40001
1.40001
1.40001
1.40001
1.40001
1.40001
1.40001
1.40001
1.40001
1.40001
1.40001
1.40001
1.40001
1.40001
1.40001
1.40001
1.40001
1.40001
1.40001
1.40001
1.40001
1.40001
1.40001
1.40001
1.40001
1.40001
1.40001
1.40001
1.40001
1.40001
1.40001
1.40001
1.40001
1.40001
1.40001
1.40001
1.40001
1.40001
1.40001
1.40001
1.40001
1.40001
1.40001
1.40001
1.40001
1.40001
1.40001
1.40001
1.40001
1.40001
1.40001
1.40001
1.40001
1.40001
1.40001
1.40001
1.40001
1.40001
1.40001
1.40001
1.40001
1.40001
1.40001
1.40001
1.40001
1.40001
1.40001
1.40001
1.40001
1.40001
1.40001
1.40001
1.40001
1.40001
1.40001
1.40001
1.40001
1.40001
1.40001
1.40001
1.40001
1.40001
1.40001
1.40001
1.40001
1.40001
1.40001
1.40001
1.40001
1.40001
1.40001
1.40001
1.40001
1.40001
1.40001
1.40001
1.40001
1.40001
1.40001
1.40001
1.40001
1.40001
1.40001
1.40001
1.40001
1.40001
1.40001
1.40001
1.40001
1.40001
1.40001
1.40001
1.40001
1.40001
1.40001
1.40001
1.40001
1.40001
1.40001
1.40001
1.40001
1.40001
1.40001
1.40001
1.40001
1.40001
1.40001
1.40001
1.40001
1.40001
1.40001
1.40001
1.40001
1.40001
1.40001
1.40001
1.40001
1.40001
1.40001
1.40001
1.40001
1.40001
1.40001
1.40001
1.40001
1.40001
1.40001
1.40001
1.40001
1.40001
1.40001
1.40001
1.40001