/*--------------------------------*- C++ -*----------------------------------*\
  =========                 |
  \\      /  F ield         | OpenFOAM: The Open Source CFD Toolbox
   \\    /   O peration     | Website:  https://openfoam.org
    \\  /    A nd           | Version:  7
     \\/     M anipulation  |
\*---------------------------------------------------------------------------*/
FoamFile
{
    version     2.0;
    format      ascii;
    class       volScalarField;
    location    "6.5";
    object      p;
}
// * * * * * * * * * * * * * * * * * * * * * * * * * * * * * * * * * * * * * //

dimensions      [1 -1 -2 0 0 0 0];

internalField   nonuniform List<scalar> 
1750
(
0.233453
0.475626
0.593223
0.596428
0.590925
0.649764
0.766973
0.819149
0.856153
0.892048
0.0236311
0.078651
0.317305
0.601524
0.767042
0.841854
0.907423
0.859006
0.869651
0.900483
0.0228125
0.0240198
0.0343078
0.134244
0.380042
0.608895
0.80074
0.883539
0.939002
0.943214
0.0370603
0.042443
0.0489185
0.0612224
0.0691004
0.13045
0.256164
0.495114
0.675314
0.817923
0.0759612
0.0891135
0.0967774
0.0988026
0.105492
0.111464
0.115809
0.137236
0.20464
0.465579
0.135316
0.151815
0.157697
0.161169
0.167523
0.177117
0.18604
0.19441
0.203146
0.217449
0.259052
0.26066
0.26489
0.268242
0.268586
0.271675
0.272999
0.272928
0.265966
0.257148
0.480575
0.461535
0.443201
0.4269
0.414704
0.401084
0.386496
0.372473
0.366065
0.357315
0.819384
0.774081
0.73142
0.687474
0.647639
0.61279
0.579356
0.543204
0.520341
0.490141
1.09182
1.06331
1.02938
0.989043
0.943027
0.893034
0.840919
0.787591
0.73924
0.667645
1.13156
1.13005
1.12717
1.12085
1.11085
1.09441
1.06874
1.03272
0.992179
0.911416
1.09063
1.09937
1.10526
1.11135
1.112
1.11166
1.11017
1.10669
1.10088
1.07615
1.0203
1.02801
1.03723
1.04801
1.06013
1.07147
1.08127
1.08842
1.09454
1.09373
1.001
1.00174
1.0031
1.00531
1.00893
1.01443
1.02196
1.03161
1.04251
1.05992
1.00002
1.00003
1.00006
1.00014
1.0003
1.00066
1.00142
1.00296
1.00545
1.01459
0.0308719
0.0214619
0.0212658
0.0320953
0.0638244
0.128126
0.259814
0.50675
0.869222
1.11158
1.13361
1.08142
1.01516
1.00067
1.00001
0.0329567
0.0214349
0.0236504
0.0384464
0.0786688
0.168146
0.347003
0.634846
0.984062
1.1425
1.13572
1.06388
1.00781
1.00023
1
0.0308344
0.0195204
0.0240478
0.0406683
0.0935028
0.215719
0.414726
0.727658
1.05576
1.1523
1.1302
1.04501
1.00387
1.0001
1
0.0279061
0.0178011
0.0234195
0.0495209
0.124574
0.266139
0.492558
0.843891
1.12186
1.15708
1.11015
1.02883
1.00187
1.00004
1
0.0265972
0.0168017
0.0240024
0.0659157
0.157241
0.317692
0.604588
0.975635
1.16003
1.15834
1.09162
1.01774
1.00082
1.00001
1
0.0250273
0.0175805
0.0302813
0.0862256
0.201304
0.406448
0.757039
1.07743
1.17408
1.15402
1.06921
1.00859
1.00029
1
1
0.0177088
0.0186167
0.0418962
0.109729
0.272304
0.555686
0.899379
1.14375
1.17886
1.13611
1.0427
1.00357
1.0001
1
1
0.0108416
0.0162745
0.0603544
0.165579
0.377047
0.699688
1.03123
1.18224
1.17937
1.11029
1.02291
1.00138
1.00003
1
1
0.00726279
0.0195063
0.0868898
0.251746
0.520697
0.861125
1.13972
1.19572
1.16851
1.07347
1.01015
1.00042
1.00001
1
1
0.00466432
0.0393939
0.138341
0.355633
0.705912
1.03933
1.19739
1.19864
1.14299
1.04258
1.00395
1.00012
1
1
1
0.00573124
0.0622557
0.238469
0.558456
0.913423
1.16208
1.21636
1.19793
1.10365
1.01928
1.00111
1.00003
1
1
1
0.00348509
0.118821
0.420861
0.802955
1.09976
1.22295
1.22063
1.16612
1.05689
1.00678
1.00028
1.00001
1
1
1
0.0310466
0.273597
0.691307
1.02388
1.21165
1.2411
1.21624
1.1125
1.023
1.00163
1.00005
1
1
1
1
0.162523
0.563988
0.975074
1.18313
1.25332
1.24352
1.16771
1.05296
1.00626
1.00029
1.00001
1
1
1
1
0.575177
0.965577
1.18749
1.24579
1.25944
1.20812
1.09519
1.01784
1.0012
1.00004
1
1
1
1
1
1.2477
1.2544
1.25923
1.25445
1.24031
1.13758
1.03467
1.00169
1.00002
1
1
1
1
1
1
1.24666
1.25617
1.26144
1.25046
1.22747
1.12628
1.03183
1.00291
1.00011
1
1
1
1
1
1
1.24574
1.25963
1.2641
1.25035
1.19971
1.07678
1.00963
1.00038
1.00001
1
1
1
1
1
1
1.24501
1.26164
1.2643
1.23561
1.15725
1.04616
1.0042
1.00012
1
1
1
1
1
1
1
1.24604
1.26682
1.26493
1.21904
1.11689
1.02193
1.00132
1.00003
1
1
1
1
1
1
1
1.2557
1.27205
1.26685
1.19039
1.07077
1.00894
1.00037
1.00001
1
1
1
1
1
1
1
1.26988
1.26913
1.25564
1.14293
1.03538
1.003
1.00009
1
1
1
1
1
1
1
1
1.29286
1.24728
1.21621
1.09286
1.01648
1.00092
1.00002
1
1
1
1
1
1
1
1
1.31735
1.23073
1.16816
1.05174
1.00561
1.00023
1
1
1
1
1
1
1
1
1
1.32942
1.2082
1.10901
1.02247
1.00173
1.00005
1
1
1
1
1
1
1
1
1
1.32449
1.16498
1.06461
1.00906
1.00044
1.00001
1
1
1
1
1
1
1
1
1
1.28556
1.12037
1.03037
1.00265
1.00009
1
1
1
1
1
1
1
1
1
1
1.23484
1.07238
1.01116
1.00058
1.00001
1
1
1
1
1
1
1
1
1
1
1.15738
1.03324
1.00283
1.00009
1
1
1
1
1
1
1
1
1
1
1
1.06964
1.00923
1.0004
1.00001
1
1
1
1
1
1
1
1
1
1
1
1
1
1
1
1
1
1
1
1
1
1
1
1
1
1
1
1
1
1
1
1
1
1
1
1
1
1
1
1
1
1
1
1
1
1
1
1
1
1
1
1
1
1
1
1
1
1
1
1
1
1
1
1
1
1
1
1
1
1
1
1
1
1
1
1
1
1
1
1
1
1
1
1
1
1
1
1
1
1
1
1
1
1
1
1
1
1
1
1
1
1
1
1
1
1
1
1
1
1
1
1
1
1
1
1
1
1
1
1
1
1
1
1
1
1
1
1
1
1
1
1
1
1
1
1
1
1
1
1
1
1
1
1
1
1
1
1
1
1
1
1
1
1
1
1
1
1
1
1
1
1
1
1
1
1
1
1
1
1
1
1
1
1
1
1
1
1
1
1
1
1
1
1
1
1
1
1
1
1
1
1
1
1
1
1
1
1
1
1
1
1
1
1
1
1
1
1
1
1
1
1
1
1
1
1
1
1
1
1
1
1
1
1
1
1
1
1
1
1
1
1
1
1
1
1
1
1
1
1
1
1
1
1
1
1
1
1
1
1
1
1
1
1
1
1
1
1
1
1
1
1
1
1
1
1
1
1
1
1
1
1
1
1
1
1
1
1
1
1
1
1
1
1
1
1
1
1
1
1
1
1
1
1
1
1
1
1
1
1
1
1
1
1
1
1
1
1
1
1
1
1
1
1
1
1
1
1
1
1
1
1
1
1
1
1
1
1
1
1
1
1
1
1
1
1
1
1
1
1
1
1
1
1
1
1
1
1
1
1
1
1
1
1
1
1
1
1
1
1
1
3.86231
1.22014
0.999999
1
1
1
1
1
1
1
1
1
1
1
1
1
1
1
1
1
10.8745
6.79008
2.80514
0.999954
1
1
1
1
1
1
1
1
1
1
1
1
1
1
1
1
9.25548
8.08797
7.71422
5.25896
1.44529
0.999998
1
1
1
1
1
1
1
1
1
1
1
1
1
1
8.12573
7.74025
8.01392
7.8541
5.95075
1.80881
0.999105
1
1
1
1
1
1
1
1
1
1
1
1
1
7.79215
7.6839
7.73345
7.68561
7.72293
6.04436
1.87513
0.998732
1
1
1
1
1
1
1
1
1
1
1
1
7.68736
7.65847
7.67678
7.65221
7.69966
7.67136
6.0169
1.82622
0.998217
1
1
1
1
1
1
1
1
1
1
1
7.66579
7.65683
7.67973
7.67915
7.68124
7.62075
7.45359
5.37152
1.53633
0.998616
1
1
1
1
1
1
1
1
1
1
7.68522
7.69704
7.70124
7.68646
7.66094
7.59902
7.59171
7.43585
4.68053
1.28249
0.998947
1
1
1
1
1
1
1
1
1
7.70038
7.69404
7.68586
7.65889
7.61611
7.53934
7.50295
7.52602
7.1244
3.49497
1.07022
0.999857
1
1
1
1
1
1
1
1
7.67325
7.64963
7.62052
7.57665
7.53969
7.48944
7.46602
7.42005
7.33443
6.46149
2.29979
1.00084
1
1
1
1
1
1
1
1
7.60077
7.55265
7.52053
7.47459
7.44935
7.42356
7.41966
7.37838
7.32332
7.39626
5.85916
1.72231
0.997319
1.00001
1
1
1
1
1
1
7.49867
7.44148
7.41676
7.38571
7.36319
7.35131
7.35509
7.34023
7.30883
7.36433
6.97026
3.99644
1.16477
0.999286
0.999999
1
1
1
1
1
7.40212
7.35472
7.33965
7.32206
7.30559
7.29637
7.30415
7.29849
7.25927
7.23707
7.0103
6.55964
2.61125
1.0174
0.999921
0.999998
1
1
1
1
7.34146
7.30578
7.30046
7.28425
7.26336
7.25135
7.24649
7.22917
7.20767
7.16974
7.01639
7.05957
5.09626
1.52146
1.00242
1
1
1
1
1
7.24932
7.20188
7.18727
7.16417
7.13364
7.11051
7.0917
7.09268
7.11178
7.1039
7.0165
6.96921
6.59755
3.12634
0.995305
0.99897
0.999993
1
1
1
2.42077
3.79439
4.43323
4.94101
5.37312
5.67387
5.89421
6.09096
6.27931
6.45552
6.52207
6.61242
6.73378
5.99005
2.4846
1.07696
1.00076
1
1
1
0.654229
1.95482
2.73513
3.36576
3.84742
4.32795
4.68161
5.04196
5.33575
5.62063
5.84907
6.03001
6.33735
6.36977
5.23587
2.0256
1.04046
1.00035
1
1
0.58816
1.17714
1.66216
2.26735
2.8307
3.29335
3.7404
4.08528
4.46989
4.7958
5.14776
5.35448
5.73183
6.10378
5.86652
4.10155
1.49633
1.01145
1.00007
1
0.722916
0.983215
1.13955
1.51115
2.03023
2.50188
3.00105
3.37336
3.76063
4.12482
4.47601
4.78612
5.13855
5.59781
5.59639
5.30404
2.84875
1.15527
1.002
1.00001
0.891295
0.858823
0.913907
1.22162
1.55662
1.95095
2.38027
2.826
3.18549
3.59672
3.94874
4.31694
4.65349
5.00514
5.26447
5.29123
4.352
1.7794
1.0271
1.0002
0.933766
0.839418
0.83424
1.00467
1.24237
1.59437
1.92392
2.33661
2.66893
3.07048
3.46138
3.81887
4.20822
4.46866
4.79114
5.12513
4.94714
3.09824
1.21988
1.00316
0.929892
0.860038
0.852072
0.912578
1.01114
1.27616
1.59259
1.92636
2.2675
2.58453
3.00681
3.3729
3.76116
4.06388
4.34515
4.77262
4.87099
4.01915
1.79658
1.03062
0.950951
0.918279
0.912631
0.908565
0.93454
1.11996
1.36874
1.64578
1.99653
2.28466
2.68271
3.06376
3.39136
3.73337
3.98936
4.39318
4.70114
4.42109
2.59025
1.15164
0.969074
0.953969
0.931268
0.892228
0.891751
1.02017
1.2141
1.43917
1.75484
2.05626
2.38807
2.77575
3.05251
3.402
3.65858
3.99809
4.44837
4.49689
3.50042
1.54456
0.967957
0.955525
0.927509
0.886111
0.875123
0.922528
1.04521
1.26234
1.49631
1.82157
2.07204
2.45137
2.7235
3.03969
3.34069
3.69856
4.14839
4.42884
4.03967
2.30314
0.961194
0.947937
0.922097
0.892041
0.88867
0.915261
0.948551
1.11635
1.30499
1.6029
1.87674
2.17426
2.50074
2.76405
3.09966
3.45592
3.83966
4.27589
4.01174
3.26819
0.948391
0.935793
0.921803
0.915008
0.912531
0.914079
0.92619
1.06257
1.22749
1.45725
1.741
1.98734
2.30843
2.57773
2.89357
3.21204
3.50412
3.99213
4.01933
4.39512
0.926699
0.920845
0.928747
0.927159
0.909665
0.889937
0.893044
0.999049
1.15066
1.32923
1.5939
1.8234
2.10653
2.37175
2.66973
2.94197
3.26483
3.70812
4.13695
5.46001
0.916437
0.915564
0.929724
0.926712
0.903281
0.878787
0.878748
0.925039
1.03913
1.19846
1.39885
1.63471
1.88258
2.18192
2.44766
2.7473
3.07337
3.45805
4.29206
6.45688
0.916873
0.91994
0.929849
0.92465
0.903658
0.88288
0.882305
0.9114
0.97416
1.11506
1.26638
1.49561
1.71398
2.02944
2.31273
2.5897
2.86471
3.2007
4.29976
7.3556
0.809997
0.905656
0.925425
0.925716
0.909266
0.892608
0.896134
0.914793
0.954785
1.07535
1.19909
1.40812
1.61904
1.85995
2.1661
2.44305
2.66043
3.08524
4.44442
8.17391
0.715402
0.844847
0.904843
0.923243
0.914565
0.905731
0.901863
0.902502
0.918786
1.02058
1.12731
1.28707
1.52933
1.72321
1.98193
2.25697
2.51108
2.97307
4.62521
8.64236
0.623684
0.753645
0.854804
0.907946
0.915501
0.909217
0.896404
0.878701
0.884221
0.946259
1.06127
1.17596
1.38201
1.61236
1.82178
2.08425
2.36438
2.88093
4.79807
9.01247
0.545576
0.664173
0.781529
0.870239
0.909858
0.906421
0.895508
0.875146
0.879371
0.902558
0.992955
1.12607
1.27036
1.49741
1.71364
1.94044
2.21133
2.90402
4.96552
8.97262
0.531967
0.603805
0.699034
0.809953
0.89018
0.901395
0.895621
0.878623
0.87805
0.887046
0.918478
1.04673
1.18718
1.3756
1.59308
1.80539
2.08986
3.01317
5.13777
8.65325
0.54767
0.553197
0.624345
0.744824
0.846147
0.888978
0.889447
0.878778
0.871997
0.868775
0.879094
0.967724
1.10386
1.26143
1.45631
1.65693
2.01965
3.28091
5.19099
8.22426
0.611055
0.561334
0.580914
0.668245
0.771598
0.851209
0.875957
0.871534
0.860739
0.851464
0.862095
0.930014
1.02305
1.16219
1.33622
1.56244
2.04049
3.60141
5.12456
7.54528
0.707333
0.626308
0.590032
0.617588
0.680027
0.785273
0.847266
0.858946
0.849239
0.84042
0.843378
0.896029
0.965964
1.08571
1.22809
1.45749
2.20125
3.91642
4.94897
6.74529
0.797442
0.711567
0.616485
0.593588
0.612586
0.70415
0.791965
0.839407
0.837633
0.833515
0.840088
0.868696
0.905028
1.0065
1.13954
1.47778
2.56367
4.18464
4.75124
5.89455
0.886244
0.820063
0.747241
0.651868
0.617691
0.64064
0.694474
0.767653
0.803853
0.815789
0.825076
0.829045
0.83908
0.932018
1.14278
1.7618
2.8578
4.00602
4.26387
4.65193
)
;

boundaryField
{
    inlet
    {
        type            fixedValue;
        value           uniform 1;
    }
    outlet
    {
        type            zeroGradient;
    }
    airfoil
    {
        type            zeroGradient;
    }
    top
    {
        type            symmetryPlane;
    }
    bottom
    {
        type            symmetryPlane;
    }
    defaultFaces
    {
        type            empty;
    }
}


// ************************************************************************* //
