/*--------------------------------*- C++ -*----------------------------------*\
  =========                 |
  \\      /  F ield         | OpenFOAM: The Open Source CFD Toolbox
   \\    /   O peration     | Website:  https://openfoam.org
    \\  /    A nd           | Version:  7
     \\/     M anipulation  |
\*---------------------------------------------------------------------------*/
FoamFile
{
    version     2.0;
    format      ascii;
    class       volScalarField;
    location    "6.5";
    object      rho;
}
// * * * * * * * * * * * * * * * * * * * * * * * * * * * * * * * * * * * * * //

dimensions      [1 -3 0 0 0 0 0];

internalField   nonuniform List<scalar> 
1750
(
0.240401
0.438974
0.561721
0.588925
0.607222
0.658629
0.752144
0.798581
0.832378
0.865424
0.0761906
0.125502
0.298458
0.471942
0.603304
0.669914
0.73802
0.733219
0.755645
0.797782
0.0895063
0.0932791
0.106523
0.203273
0.398512
0.547874
0.676864
0.750327
0.80013
0.818874
0.130038
0.14372
0.161572
0.193011
0.207547
0.265751
0.377131
0.575314
0.716729
0.817487
0.223944
0.247886
0.26049
0.26427
0.277159
0.291649
0.299819
0.326439
0.403065
0.661393
0.334516
0.363972
0.372663
0.377768
0.387673
0.40303
0.417892
0.431308
0.447288
0.46498
0.527939
0.530417
0.536824
0.541668
0.541756
0.545555
0.547661
0.547714
0.537732
0.52497
0.815674
0.792413
0.771212
0.752509
0.73756
0.719989
0.70143
0.683968
0.676089
0.6649
1.19729
1.14925
1.10463
1.05836
1.01529
0.97658
0.938761
0.897256
0.871063
0.835429
1.48419
1.45523
1.42105
1.38051
1.33387
1.28266
1.22876
1.17283
1.12152
1.04266
1.52691
1.52531
1.52233
1.51599
1.50599
1.48961
1.46397
1.42785
1.38717
1.30422
1.48832
1.49678
1.50241
1.5082
1.50878
1.50848
1.50701
1.50354
1.49772
1.473
1.42004
1.42765
1.43671
1.44728
1.45916
1.47022
1.47973
1.48665
1.49251
1.49171
1.401
1.40174
1.40309
1.40528
1.40887
1.41433
1.42178
1.4313
1.44205
1.45909
1.40002
1.40004
1.40007
1.40014
1.40031
1.40067
1.40142
1.40296
1.40543
1.41449
0.0837961
0.0713633
0.0821303
0.116142
0.197253
0.320514
0.528882
0.848692
1.25085
1.50446
1.52886
1.47936
1.41497
1.40067
1.40001
0.0853526
0.068888
0.0877609
0.134584
0.227174
0.387637
0.651301
0.998155
1.37165
1.53612
1.53087
1.46248
1.40774
1.40024
1.40001
0.0794206
0.0631103
0.0881765
0.141422
0.251134
0.461323
0.736477
1.09855
1.44538
1.54604
1.52613
1.44414
1.40384
1.4001
1.40001
0.0729545
0.0602879
0.0869296
0.159129
0.306013
0.537831
0.830808
1.22372
1.51353
1.55088
1.50688
1.42835
1.40187
1.40004
1.40001
0.0715061
0.0593981
0.0898622
0.190666
0.364937
0.60796
0.962604
1.36292
1.55264
1.55216
1.48922
1.41749
1.40082
1.40002
1.40001
0.0698221
0.063823
0.107706
0.229642
0.436741
0.72289
1.13157
1.46781
1.56695
1.5491
1.46758
1.40849
1.4003
1.40001
1.40001
0.0503209
0.0664812
0.133663
0.275607
0.538261
0.902953
1.28318
1.53549
1.57181
1.5315
1.44176
1.40354
1.4001
1.40001
1.40001
0.0327256
0.0607229
0.173243
0.370784
0.676024
1.06678
1.42017
1.57457
1.57247
1.50703
1.42251
1.40138
1.40004
1.40001
1.40001
0.0232022
0.0668622
0.22703
0.497295
0.856126
1.24209
1.53071
1.58818
1.56282
1.47154
1.41001
1.40042
1.40001
1.40001
1.40001
0.0161667
0.116341
0.320178
0.643059
1.07237
1.42859
1.58882
1.59107
1.53833
1.44163
1.40391
1.40013
1.40001
1.40001
1.40001
0.0186989
0.172494
0.473489
0.896245
1.29647
1.55322
1.60778
1.59086
1.50064
1.41894
1.4011
1.40003
1.40001
1.40001
1.40001
0.0443259
0.290053
0.725615
1.17588
1.48889
1.61373
1.61191
1.56036
1.45546
1.40669
1.40029
1.40001
1.40001
1.40001
1.40001
0.18921
0.551108
1.05726
1.41084
1.60143
1.63163
1.60854
1.50927
1.42258
1.40162
1.40006
1.40001
1.40001
1.40001
1.40001
0.459913
0.938459
1.36272
1.57271
1.64298
1.63402
1.56222
1.45181
1.40618
1.40029
1.40001
1.40001
1.40001
1.40001
1.40001
0.965615
1.35605
1.57671
1.63585
1.64913
1.60106
1.49298
1.41759
1.4012
1.40005
1.40001
1.40001
1.40001
1.40001
1.40001
1.63778
1.64424
1.64899
1.64462
1.63131
1.53397
1.43422
1.4017
1.40002
1.40001
1.40001
1.40001
1.40001
1.40001
1.40001
1.63668
1.64578
1.65101
1.6409
1.61924
1.52286
1.43134
1.40289
1.40011
1.40001
1.40001
1.40001
1.40001
1.40001
1.40001
1.63582
1.6491
1.65357
1.64085
1.59322
1.47534
1.40956
1.40039
1.40001
1.40001
1.40001
1.40001
1.40001
1.40001
1.40001
1.63517
1.65106
1.6538
1.62713
1.55282
1.44544
1.40419
1.40013
1.40001
1.40001
1.40001
1.40001
1.40001
1.40001
1.40001
1.63621
1.65603
1.65442
1.61153
1.51408
1.4217
1.40132
1.40003
1.40001
1.40001
1.40001
1.40001
1.40001
1.40001
1.40001
1.64509
1.66095
1.65622
1.58433
1.46944
1.40888
1.40037
1.40001
1.40001
1.40001
1.40001
1.40001
1.40001
1.40001
1.40001
1.6581
1.65844
1.6458
1.53907
1.43494
1.403
1.4001
1.40001
1.40001
1.40001
1.40001
1.40001
1.40001
1.40001
1.40001
1.67943
1.63863
1.60897
1.4909
1.41633
1.40093
1.40003
1.40001
1.40001
1.40001
1.40001
1.40001
1.40001
1.40001
1.40001
1.70205
1.62342
1.56365
1.451
1.40559
1.40023
1.40001
1.40001
1.40001
1.40001
1.40001
1.40001
1.40001
1.40001
1.40001
1.71329
1.60227
1.50695
1.42228
1.40173
1.40006
1.40001
1.40001
1.40001
1.40001
1.40001
1.40001
1.40001
1.40001
1.40001
1.70887
1.56091
1.4637
1.40901
1.40045
1.40001
1.40001
1.40001
1.40001
1.40001
1.40001
1.40001
1.40001
1.40001
1.40001
1.67342
1.51785
1.43008
1.40265
1.4001
1.40001
1.40001
1.40001
1.40001
1.40001
1.40001
1.40001
1.40001
1.40001
1.40001
1.62636
1.47112
1.41108
1.40058
1.40002
1.40001
1.40001
1.40001
1.40001
1.40001
1.40001
1.40001
1.40001
1.40001
1.40001
1.5534
1.43281
1.40282
1.40009
1.40001
1.40001
1.40001
1.40001
1.40001
1.40001
1.40001
1.40001
1.40001
1.40001
1.40001
1.46871
1.40915
1.4004
1.40001
1.40001
1.40001
1.40001
1.40001
1.40001
1.40001
1.40001
1.40001
1.40001
1.40001
1.40001
1.40001
1.40001
1.40001
1.40001
1.40001
1.40001
1.40001
1.40001
1.40001
1.40001
1.40001
1.40001
1.40001
1.40001
1.40001
1.40001
1.40001
1.40001
1.40001
1.40001
1.40001
1.40001
1.40001
1.40001
1.40001
1.40001
1.40001
1.40001
1.40001
1.40001
1.40001
1.40001
1.40001
1.40001
1.40001
1.40001
1.40001
1.40001
1.40001
1.40001
1.40001
1.40001
1.40001
1.40001
1.40001
1.40001
1.40001
1.40001
1.40001
1.40001
1.40001
1.40001
1.40001
1.40001
1.40001
1.40001
1.40001
1.40001
1.40001
1.40001
1.40001
1.40001
1.40001
1.40001
1.40001
1.40001
1.40001
1.40001
1.40001
1.40001
1.40001
1.40001
1.40001
1.40001
1.40001
1.40001
1.40001
1.40001
1.40001
1.40001
1.40001
1.40001
1.40001
1.40001
1.40001
1.40001
1.40001
1.40001
1.40001
1.40001
1.40001
1.40001
1.40001
1.40001
1.40001
1.40001
1.40001
1.40001
1.40001
1.40001
1.40001
1.40001
1.40001
1.40001
1.40001
1.40001
1.40001
1.40001
1.40001
1.40001
1.40001
1.40001
1.40001
1.40001
1.40001
1.40001
1.40001
1.40001
1.40001
1.40001
1.40001
1.40001
1.40001
1.40001
1.40001
1.40001
1.40001
1.40001
1.40001
1.40001
1.40001
1.40001
1.40001
1.40001
1.40001
1.40001
1.40001
1.40001
1.40001
1.40001
1.40001
1.40001
1.40001
1.40001
1.40001
1.40001
1.40001
1.40001
1.40001
1.40001
1.40001
1.40001
1.40001
1.40001
1.40001
1.40001
1.40001
1.40001
1.40001
1.40001
1.40001
1.40001
1.40001
1.40001
1.40001
1.40001
1.40001
1.40001
1.40001
1.40001
1.40001
1.40001
1.40001
1.40001
1.40001
1.40001
1.40001
1.40001
1.40001
1.40001
1.40001
1.40001
1.40001
1.40001
1.40001
1.40001
1.40001
1.40001
1.40001
1.40001
1.40001
1.40001
1.40001
1.40001
1.40001
1.40001
1.40001
1.40001
1.40001
1.40001
1.40001
1.40001
1.40001
1.40001
1.40001
1.40001
1.40001
1.40001
1.40001
1.40001
1.40001
1.40001
1.40001
1.40001
1.40001
1.40001
1.40001
1.40001
1.40001
1.40001
1.40001
1.40001
1.40001
1.40001
1.40001
1.40001
1.40001
1.40001
1.40001
1.40001
1.40001
1.40001
1.40001
1.40001
1.40001
1.40001
1.40001
1.40001
1.40001
1.40001
1.40001
1.40001
1.40001
1.40001
1.40001
1.40001
1.40001
1.40001
1.40001
1.40001
1.40001
1.40001
1.40001
1.40001
1.40001
1.40001
1.40001
1.40001
1.40001
1.40001
1.40001
1.40001
1.40001
1.40001
1.40001
1.40001
1.40001
1.40001
1.40001
1.40001
1.40001
1.40001
1.40001
1.40001
1.40001
1.40001
1.40001
1.40001
1.40001
1.40001
1.40001
1.40001
1.40001
1.40001
1.40001
1.40001
1.40001
1.40001
1.40001
1.40001
1.40001
1.40001
1.40001
1.40001
1.40001
1.40001
1.40001
1.40001
1.40001
1.40001
1.40001
1.40001
1.40001
1.40001
1.40001
1.40001
1.40001
1.40001
1.40001
1.40001
1.40001
1.40001
1.40001
1.40001
1.40001
1.40001
1.40001
1.40001
1.40001
1.40001
1.40001
1.40001
1.40001
1.40001
1.40001
1.40001
1.40001
1.40001
1.40001
1.40001
1.40001
1.40001
1.40001
1.40001
1.40001
1.40001
1.40001
1.40001
1.40001
1.40001
1.40001
1.40001
1.40001
1.40001
1.40001
1.40001
1.40001
1.40001
1.40001
1.40001
3.21413
1.54983
1.4
1.40001
1.40001
1.40001
1.40001
1.40001
1.40001
1.40001
1.40001
1.40001
1.40001
1.40001
1.40001
1.40001
1.40001
1.40001
1.40001
1.40001
6.07931
4.29992
2.50684
1.39992
1.40001
1.40001
1.40001
1.40001
1.40001
1.40001
1.40001
1.40001
1.40001
1.40001
1.40001
1.40001
1.40001
1.40001
1.40001
1.40001
5.40268
4.89611
4.73624
3.59438
1.69404
1.4
1.40001
1.40001
1.40001
1.40001
1.40001
1.40001
1.40001
1.40001
1.40001
1.40001
1.40001
1.40001
1.40001
1.40001
4.92493
4.75159
4.85023
4.72622
3.96044
1.92384
1.39932
1.40001
1.40001
1.40001
1.40001
1.40001
1.40001
1.40001
1.40001
1.40001
1.40001
1.40001
1.40001
1.40001
4.77878
4.72378
4.72044
4.6651
4.69679
4.05626
1.96687
1.399
1.40001
1.40001
1.40001
1.40001
1.40001
1.40001
1.40001
1.40001
1.40001
1.40001
1.40001
1.40001
4.73176
4.71351
4.70094
4.66734
4.68942
4.73325
4.08476
1.93697
1.3986
1.40001
1.40001
1.40001
1.40001
1.40001
1.40001
1.40001
1.40001
1.40001
1.40001
1.40001
4.73387
4.72147
4.71049
4.68928
4.68663
4.69156
4.71298
3.83755
1.75858
1.39894
1.40001
1.40001
1.40001
1.40001
1.40001
1.40001
1.40001
1.40001
1.40001
1.40001
4.7583
4.75459
4.73367
4.7045
4.6851
4.67536
4.71267
4.73045
3.50347
1.59683
1.39921
1.40001
1.40001
1.40001
1.40001
1.40001
1.40001
1.40001
1.40001
1.40001
4.78421
4.76963
4.73921
4.70209
4.67243
4.64864
4.66921
4.72655
4.61773
2.90408
1.45259
1.39993
1.40001
1.40001
1.40001
1.40001
1.40001
1.40001
1.40001
1.40001
4.78297
4.76147
4.72156
4.67424
4.64364
4.62713
4.64694
4.67292
4.69152
4.35101
2.22121
1.40052
1.40001
1.40001
1.40001
1.40001
1.40001
1.40001
1.40001
1.40001
4.75575
4.72476
4.68437
4.63359
4.60634
4.59823
4.6232
4.65448
4.68211
4.75059
4.05054
1.86329
1.39798
1.40001
1.40001
1.40001
1.40001
1.40001
1.40001
1.40001
4.70966
4.67581
4.6406
4.59652
4.57016
4.56705
4.59399
4.63782
4.67502
4.734
4.56833
3.15093
1.51665
1.39947
1.4
1.40001
1.40001
1.40001
1.40001
1.40001
4.66144
4.63317
4.60519
4.56987
4.54768
4.54527
4.57195
4.61811
4.65133
4.67355
4.58143
4.38805
2.40138
1.41346
1.39994
1.4
1.40001
1.40001
1.40001
1.40001
4.62963
4.60814
4.58757
4.55545
4.5321
4.52766
4.5458
4.58257
4.62206
4.63687
4.57683
4.59795
3.6976
1.74348
1.40204
1.40001
1.40001
1.40001
1.40001
1.40001
4.58036
4.5509
4.52682
4.49779
4.47623
4.47094
4.48512
4.52737
4.58052
4.60541
4.57497
4.55672
4.39655
2.69587
1.39137
1.39896
1.4
1.40001
1.40001
1.40001
2.06875
2.86249
3.20718
3.4605
3.66441
3.80455
3.91661
4.03453
4.16239
4.28117
4.33401
4.38707
4.45844
4.12475
2.32289
1.45928
1.40069
1.40001
1.40001
1.40001
0.744979
1.72478
2.25315
2.63029
2.89215
3.1386
3.31738
3.50812
3.68147
3.85609
3.9973
4.10409
4.26897
4.29682
3.74681
2.06029
1.43241
1.40033
1.40001
1.40001
0.672252
1.18399
1.56678
1.98242
2.32857
2.5871
2.82622
3.01202
3.22878
3.42675
3.63754
3.7667
3.97435
4.16861
4.053
3.21035
1.74833
1.40974
1.40007
1.40001
0.784816
1.04093
1.19185
1.4827
1.83573
2.12795
2.41472
2.62381
2.84568
3.06594
3.28294
3.47358
3.67563
3.91954
3.92011
3.79738
2.5625
1.52016
1.40182
1.40001
0.929361
0.938822
1.01216
1.27081
1.51384
1.77914
2.04427
2.30953
2.52327
2.77255
2.99461
3.22264
3.42283
3.61829
3.75328
3.78615
3.36761
1.93723
1.42288
1.4002
0.955588
0.913497
0.940185
1.09838
1.28818
1.54138
1.75929
2.01695
2.22294
2.47157
2.71927
2.94716
3.18265
3.33608
3.51029
3.69839
3.64237
2.72776
1.56794
1.40281
0.951581
0.925159
0.951968
1.02224
1.11468
1.31907
1.54285
1.76013
1.97849
2.18261
2.45246
2.69002
2.9319
3.11563
3.27379
3.5105
3.59981
3.22718
1.96231
1.42617
0.969929
0.966156
0.998664
1.02039
1.05368
1.20241
1.38436
1.57271
1.8042
1.99494
2.25364
2.50307
2.7161
2.9296
3.07978
3.30647
3.50645
3.4347
2.46459
1.52188
0.992255
1.00227
1.01862
1.00892
1.01709
1.12371
1.26881
1.42885
1.64338
1.84798
2.0687
2.32501
2.51321
2.73763
2.89485
3.09148
3.36323
3.43831
2.99042
1.80798
0.999711
1.00695
1.01625
1.00384
1.00248
1.04323
1.1382
1.30236
1.46822
1.69328
1.86705
2.12126
2.31119
2.52119
2.71168
2.92418
3.19286
3.39893
3.26516
2.30967
0.997571
1.00251
1.01058
1.00788
1.01341
1.03797
1.06311
1.19342
1.33363
1.54419
1.73684
1.94251
2.16851
2.35051
2.56812
2.78629
3.02043
3.31176
3.22654
2.90208
0.987636
0.991606
1.00814
1.02542
1.03368
1.03803
1.04704
1.15224
1.27608
1.44098
1.64328
1.81859
2.04347
2.23285
2.44366
2.64498
2.83088
3.14824
3.22432
3.55817
0.969721
0.977741
1.01085
1.03366
1.03199
1.0204
1.02174
1.10291
1.21797
1.3495
1.54107
1.70884
1.91112
2.10221
2.30623
2.48492
2.69168
2.98034
3.28273
4.14611
0.963818
0.975311
1.01194
1.03361
1.02734
1.0107
1.00899
1.04319
1.1307
1.25438
1.40432
1.58022
1.76308
1.97968
2.16671
2.36636
2.57816
2.83204
3.36061
4.65641
0.966684
0.980152
1.01248
1.03208
1.02751
1.01375
1.01169
1.03272
1.07992
1.19177
1.30909
1.48241
1.64856
1.87806
2.07919
2.26859
2.45183
2.67862
3.3545
5.08249
0.860136
0.97308
1.0125
1.03405
1.03217
1.02157
1.02278
1.03574
1.0656
1.16188
1.26015
1.4204
1.58333
1.76376
1.98382
2.17597
2.32626
2.60737
3.42227
5.45336
0.774744
0.929854
1.00025
1.03281
1.03699
1.03223
1.02799
1.02649
1.03804
1.11997
1.20701
1.33323
1.51998
1.67039
1.86137
2.05573
2.23234
2.53705
3.51973
5.65458
0.700267
0.85867
0.964235
1.02167
1.03758
1.03626
1.02445
1.0086
1.01161
1.06145
1.1562
1.25093
1.41337
1.59257
1.75198
1.94154
2.13805
2.47581
3.61886
5.80476
0.643048
0.786832
0.90802
0.993335
1.03335
1.03396
1.02452
1.00655
1.00838
1.02681
1.10176
1.21229
1.33028
1.50882
1.67565
1.84435
2.03714
2.4867
3.71997
5.75988
0.648158
0.742029
0.842826
0.945895
1.01808
1.02991
1.02473
1.00951
1.00726
1.01439
1.04206
1.1496
1.26716
1.41881
1.58952
1.75111
1.95451
2.54545
3.82338
5.58995
0.672572
0.704565
0.780932
0.893399
0.982692
1.01977
1.01986
1.00966
1.00225
0.999313
1.00984
1.08632
1.20216
1.33302
1.49008
1.64665
1.90394
2.69941
3.86671
5.37207
0.734169
0.714519
0.745547
0.82914
0.920771
0.988762
1.00906
1.00388
0.992981
0.984628
0.995428
1.05609
1.13836
1.25757
1.4019
1.57889
1.91214
2.88444
3.83668
5.04073
0.816702
0.77859
0.754414
0.784479
0.8421
0.93381
0.985233
0.993557
0.983753
0.975555
0.97936
1.02855
1.09325
1.19854
1.3205
1.50139
2.00508
3.06586
3.74998
4.65242
0.890028
0.857523
0.781059
0.76297
0.781634
0.863891
0.938741
0.977419
0.974579
0.970519
0.977736
1.00674
1.04453
1.13702
1.25549
1.51186
2.22423
3.23425
3.65104
4.23418
0.950663
0.943688
0.896882
0.815768
0.786294
0.80696
0.853638
0.916392
0.946981
0.957739
0.968031
0.976481
0.992409
1.07832
1.25021
1.68734
2.41108
3.15081
3.38329
3.58187
)
;

boundaryField
{
    inlet
    {
        type            calculated;
        value           uniform 1.40001;
    }
    outlet
    {
        type            calculated;
        value           nonuniform List<scalar> 
35
(
0.950507
0.943676
0.896987
0.815868
0.786343
0.806982
0.853659
0.916468
0.947097
0.957872
0.968186
0.976684
0.99264
1.07863
1.25087
1.68898
2.41255
3.15178
3.38404
3.58113
0.865258
0.797728
0.818999
0.817757
0.661722
0.465019
0.524941
0.664933
0.835362
1.04266
1.30421
1.47299
1.49171
1.45909
1.41449
)
;
    }
    airfoil
    {
        type            calculated;
        value           nonuniform List<scalar> 
60
(
0.0837961
0.0853526
0.0794206
0.0729545
0.0715061
0.0698221
0.0503209
0.0327256
0.0232022
0.0161667
0.0186989
0.0443259
0.18921
0.459913
0.965615
1.63778
1.63668
1.63582
1.63517
1.63621
1.64509
1.6581
1.67943
1.70205
1.71329
1.70887
1.67342
1.62636
1.5534
1.46871
3.21413
6.07931
5.40268
4.92493
4.77878
4.73176
4.73387
4.7583
4.78421
4.78297
4.75575
4.70966
4.66144
4.62963
4.58036
2.06875
0.744979
0.672252
0.784816
0.929361
0.955588
0.951581
0.969929
0.992255
0.999711
0.997571
0.987636
0.969721
0.963818
0.966684
)
;
    }
    top
    {
        type            symmetryPlane;
    }
    bottom
    {
        type            symmetryPlane;
    }
    defaultFaces
    {
        type            empty;
    }
}


// ************************************************************************* //
