/*--------------------------------*- C++ -*----------------------------------*\
  =========                 |
  \\      /  F ield         | OpenFOAM: The Open Source CFD Toolbox
   \\    /   O peration     | Website:  https://openfoam.org
    \\  /    A nd           | Version:  7
     \\/     M anipulation  |
\*---------------------------------------------------------------------------*/
FoamFile
{
    version     2.0;
    format      ascii;
    class       volScalarField;
    location    "1.5";
    object      T;
}
// * * * * * * * * * * * * * * * * * * * * * * * * * * * * * * * * * * * * * //

dimensions      [0 0 0 1 0 0 0];

internalField   nonuniform List<scalar> 
90000
(
0.8992
0.905
0.911071
0.916447
0.921329
0.925807
0.93004
0.933678
0.937137
0.940271
0.9434
0.94635
0.949705
0.953491
0.958179
0.963143
0.968608
0.973967
0.979445
0.984623
0.989765
0.994548
0.999301
1.00355
1.00793
1.01153
1.01545
1.01842
1.02153
1.02403
1.02616
1.02783
1.02939
1.02995
1.0304
1.03039
1.03027
1.02982
1.02906
1.02789
1.02593
1.02363
1.02106
1.01924
1.01844
1.01856
1.01908
1.02002
1.02105
1.02171
1.02211
1.02202
1.02184
1.02158
1.02097
1.02028
1.01938
1.01873
1.01844
1.01856
1.01885
1.01964
1.01993
1.02041
1.02078
1.0207
1.02039
1.01997
1.01985
1.01999
1.02027
1.02051
1.02096
1.02137
1.02131
1.02102
1.02103
1.02115
1.02154
1.02215
1.02228
1.02264
1.02337
1.02433
1.02568
1.02833
1.03282
1.03912
1.04645
1.05339
1.05559
1.05586
1.05585
1.05593
1.05589
1.05609
1.05628
1.05599
1.05475
1.04974
0.893626
0.893871
0.894386
0.895175
0.896176
0.897405
0.898959
0.900701
0.902662
0.904789
0.907211
0.909693
0.912323
0.914962
0.917848
0.920851
0.924256
0.927828
0.931862
0.935985
0.940567
0.94513
0.950114
0.95499
0.960133
0.965282
0.970316
0.975569
0.980497
0.985279
0.990142
0.994211
0.998256
1.00235
1.0052
1.00814
1.01029
1.01258
1.01402
1.01498
1.01737
1.01901
1.01981
1.02008
1.01979
1.01908
1.01776
1.01619
1.01505
1.01435
1.01409
1.0142
1.0146
1.01517
1.01592
1.01674
1.01755
1.01749
1.01718
1.0166
1.01594
1.01519
1.01458
1.01485
1.01555
1.0168
1.01817
1.01866
1.01827
1.01773
1.01709
1.01707
1.01763
1.01862
1.01955
1.01928
1.01897
1.01856
1.0187
1.01946
1.02056
1.02114
1.02154
1.02227
1.02382
1.02666
1.03113
1.0374
1.04477
1.0516
1.05385
1.05419
1.05434
1.05468
1.055
1.05551
1.05579
1.05552
1.05414
1.04853
0.892029
0.891998
0.891964
0.891931
0.891889
0.891843
0.891804
0.891767
0.891771
0.891798
0.891894
0.89207
0.892326
0.892666
0.893108
0.893651
0.89434
0.895182
0.896272
0.897547
0.899153
0.901019
0.903312
0.905999
0.909109
0.912864
0.916945
0.921897
0.927034
0.933028
0.939139
0.945858
0.952748
0.959667
0.966847
0.973942
0.980298
0.986573
0.992496
0.997231
1.00155
1.00402
1.00588
1.00714
1.00816
1.00914
1.00935
1.00914
1.00878
1.00817
1.00763
1.00786
1.0084
1.00904
1.00986
1.0105
1.01133
1.01141
1.01118
1.01055
1.0097
1.00843
1.00832
1.00863
1.00959
1.01071
1.01203
1.01294
1.01304
1.01264
1.01216
1.0124
1.01299
1.01367
1.01437
1.01466
1.01448
1.01435
1.01471
1.01557
1.01649
1.01707
1.01764
1.01866
1.02017
1.02298
1.02792
1.03439
1.04128
1.04792
1.05035
1.05097
1.05153
1.05225
1.05293
1.05377
1.05425
1.05397
1.05252
1.04615
0.889623
0.889589
0.889554
0.889527
0.889502
0.889467
0.889417
0.889372
0.889325
0.889278
0.889207
0.889135
0.889069
0.889003
0.888941
0.888887
0.888817
0.888767
0.888753
0.888752
0.888766
0.888813
0.888934
0.88913
0.889426
0.889886
0.890571
0.891577
0.892916
0.894778
0.897096
0.900251
0.90403
0.908795
0.914718
0.921062
0.929193
0.93709
0.946095
0.954948
0.963528
0.97128
0.978042
0.984188
0.987857
0.992141
0.994432
0.996775
0.998299
0.999344
1.00036
1.0025
1.00388
1.00463
1.00492
1.00515
1.00511
1.00484
1.0044
1.00394
1.00352
1.00357
1.00381
1.00413
1.0044
1.00471
1.00492
1.00537
1.00607
1.00707
1.00774
1.00802
1.00781
1.00782
1.00799
1.0085
1.0091
1.00994
1.01016
1.01034
1.01076
1.01161
1.01284
1.01417
1.01569
1.01841
1.02358
1.03
1.03671
1.04352
1.04616
1.04695
1.04771
1.04867
1.04963
1.05082
1.05149
1.0512
1.04962
1.04286
0.887336
0.887309
0.887283
0.887266
0.887262
0.887256
0.88723
0.887192
0.887167
0.887141
0.887101
0.88704
0.886994
0.886968
0.886935
0.886873
0.886813
0.88678
0.886761
0.886747
0.886747
0.886751
0.886735
0.886707
0.886655
0.88661
0.886586
0.886593
0.886619
0.886674
0.886772
0.88694
0.887275
0.887835
0.888758
0.890132
0.892262
0.895281
0.899357
0.905278
0.911805
0.921018
0.930615
0.941141
0.952097
0.962316
0.971046
0.979973
0.985859
0.991626
0.994394
0.996414
0.997677
0.998572
0.998865
0.999161
0.998939
0.998059
0.998212
0.998954
1.00023
1.00146
1.00196
1.00183
1.00136
1.00063
1.00024
1.00043
1.00108
1.00222
1.00371
1.00443
1.00458
1.00439
1.00403
1.0043
1.00491
1.006
1.00701
1.00708
1.0069
1.00731
1.00861
1.01028
1.01188
1.0146
1.01981
1.02674
1.03324
1.03961
1.0423
1.0432
1.0441
1.04511
1.04609
1.04744
1.04826
1.04799
1.04639
1.03962
0.885974
0.885962
0.885957
0.885949
0.885943
0.885948
0.885954
0.885944
0.885916
0.88587
0.885812
0.885798
0.885799
0.885794
0.885773
0.885704
0.88565
0.885651
0.885652
0.885659
0.885675
0.885668
0.885632
0.885585
0.88559
0.885605
0.885635
0.885645
0.885655
0.885681
0.88573
0.885807
0.885794
0.885796
0.885815
0.885867
0.885969
0.886171
0.886504
0.887114
0.888105
0.889838
0.892629
0.896771
0.903282
0.910713
0.921682
0.932715
0.945014
0.957413
0.967077
0.975844
0.981176
0.986338
0.988265
0.991425
0.992414
0.994314
0.996312
0.998678
1.0003
1.00109
1.00108
1.00056
0.999818
0.999001
0.998954
0.999131
0.99979
1.00053
1.00124
1.00152
1.00171
1.00185
1.00229
1.00287
1.00331
1.00376
1.00425
1.00458
1.00495
1.00558
1.00659
1.00791
1.00944
1.01215
1.01725
1.02432
1.03144
1.03728
1.0398
1.04063
1.04154
1.04243
1.04334
1.04475
1.04557
1.04529
1.04369
1.03708
0.885224
0.88522
0.88522
0.885224
0.885231
0.885244
0.885268
0.885279
0.885264
0.885235
0.885207
0.885188
0.885173
0.885158
0.885139
0.885093
0.885068
0.885073
0.885082
0.885095
0.885134
0.885142
0.885106
0.885072
0.885083
0.885109
0.88514
0.885163
0.885193
0.885232
0.885297
0.885322
0.885328
0.885351
0.885394
0.885447
0.885524
0.885586
0.885641
0.885699
0.885774
0.885875
0.886016
0.886273
0.886817
0.887829
0.889926
0.893211
0.899265
0.906693
0.918294
0.930248
0.94412
0.957404
0.968366
0.978635
0.986119
0.993305
0.995712
0.99778
0.999064
0.999958
0.999301
0.997166
0.997384
0.998003
0.999065
1.00004
1.00031
1.00045
1.00013
0.999592
0.999834
1.00039
1.00153
1.00251
1.00318
1.00318
1.00313
1.00335
1.00404
1.00513
1.00606
1.00693
1.00835
1.01114
1.01592
1.02259
1.03
1.03608
1.03873
1.03943
1.04012
1.04081
1.04171
1.04309
1.04387
1.04355
1.04186
1.03541
0.884851
0.88486
0.884871
0.884882
0.884899
0.88493
0.884947
0.884931
0.884901
0.884907
0.88491
0.884905
0.884882
0.88485
0.884823
0.884784
0.884783
0.884794
0.884811
0.884826
0.884857
0.884885
0.884868
0.884854
0.884867
0.884896
0.884934
0.884973
0.885012
0.885048
0.88509
0.885159
0.885193
0.885207
0.885236
0.885282
0.885338
0.885397
0.885453
0.885509
0.88558
0.885667
0.885765
0.885837
0.885894
0.885956
0.886055
0.886233
0.886672
0.887531
0.889515
0.892793
0.899144
0.907617
0.920865
0.933703
0.94842
0.962079
0.972748
0.981327
0.985437
0.990616
0.992481
0.995394
0.998559
1.00072
1.00125
1.0012
1.00075
0.999543
0.998644
0.998797
0.999318
1.00086
1.0018
1.00222
1.00264
1.00245
1.00261
1.00317
1.00408
1.00495
1.00563
1.00645
1.00797
1.01094
1.01551
1.02175
1.02898
1.03534
1.03851
1.03911
1.03961
1.04013
1.04095
1.04233
1.04304
1.0426
1.04073
1.03442
0.88471
0.884719
0.884729
0.884744
0.884782
0.884796
0.884777
0.884732
0.884738
0.884766
0.884773
0.884763
0.884738
0.884696
0.884649
0.884654
0.884671
0.884693
0.884715
0.884734
0.884746
0.884772
0.884808
0.884808
0.884815
0.884843
0.884885
0.884932
0.884974
0.885016
0.885061
0.885107
0.885163
0.885247
0.885294
0.885322
0.885361
0.885412
0.88547
0.885533
0.885615
0.885709
0.885787
0.885841
0.885872
0.885891
0.885919
0.885989
0.886069
0.886133
0.886207
0.886374
0.886839
0.887871
0.890377
0.89456
0.902381
0.912697
0.927623
0.942751
0.958306
0.972071
0.983472
0.99333
0.997622
0.999954
1.00032
0.999754
0.99723
0.997396
0.99823
0.999776
1.00109
1.00141
1.00161
1.00144
1.00139
1.00175
1.00262
1.00364
1.00433
1.00474
1.00507
1.00603
1.00785
1.01082
1.01544
1.02147
1.02865
1.0348
1.03871
1.03935
1.03954
1.03986
1.04057
1.04197
1.04258
1.04206
1.04003
1.03379
0.884651
0.884658
0.884665
0.884685
0.884712
0.884711
0.884682
0.884663
0.884672
0.884696
0.884705
0.884701
0.884677
0.884619
0.884625
0.884639
0.884668
0.884692
0.884709
0.884729
0.884747
0.884767
0.884784
0.884798
0.88482
0.884861
0.884928
0.884996
0.885029
0.885059
0.885103
0.885174
0.885245
0.885312
0.885377
0.885409
0.885442
0.885488
0.885548
0.885612
0.885682
0.885761
0.885809
0.885812
0.88581
0.885809
0.885829
0.885863
0.885875
0.885883
0.885905
0.885915
0.885934
0.886001
0.886117
0.886329
0.88689
0.888376
0.891908
0.898246
0.909332
0.922967
0.940167
0.956738
0.969935
0.981325
0.986654
0.990891
0.992896
0.997954
1.00063
1.00187
1.00211
1.00149
1.00019
1.00019
1.00062
1.00198
1.00325
1.00389
1.00422
1.00417
1.00469
1.00602
1.00791
1.0106
1.01496
1.02142
1.02883
1.03462
1.03823
1.03915
1.0393
1.03962
1.04036
1.04177
1.04226
1.04169
1.03955
1.0333
0.884485
0.884497
0.88451
0.884537
0.884542
0.884515
0.884505
0.884511
0.884532
0.884574
0.884578
0.884562
0.884507
0.88451
0.884526
0.884547
0.884568
0.884587
0.88461
0.884638
0.884676
0.884713
0.884741
0.884772
0.884826
0.884873
0.884902
0.884944
0.884994
0.885042
0.885096
0.885171
0.885202
0.885223
0.885269
0.885321
0.885357
0.885392
0.885437
0.885489
0.885541
0.885586
0.885611
0.885618
0.885618
0.88562
0.885615
0.885587
0.88556
0.885563
0.885585
0.885621
0.885641
0.88563
0.885635
0.885651
0.885558
0.885483
0.885559
0.88595
0.887272
0.8903
0.897144
0.907979
0.923593
0.942282
0.959588
0.976447
0.988357
0.996523
0.999064
1.00068
0.999891
0.997465
0.998111
0.999087
1.00104
1.00263
1.00316
1.0033
1.00322
1.00361
1.00468
1.00632
1.00791
1.01005
1.01432
1.02166
1.02953
1.03472
1.03753
1.03864
1.03904
1.03946
1.04031
1.04167
1.04205
1.04147
1.03923
1.03289
0.88417
0.884178
0.88419
0.884202
0.884205
0.884209
0.88422
0.884246
0.884255
0.884252
0.884243
0.884207
0.884205
0.884219
0.884243
0.884271
0.884296
0.884319
0.884346
0.884382
0.884425
0.884462
0.884492
0.884545
0.884577
0.884586
0.884611
0.88466
0.88472
0.884775
0.88483
0.884905
0.884935
0.884949
0.884995
0.88507
0.885134
0.885183
0.885225
0.885267
0.885319
0.885381
0.885392
0.885396
0.885395
0.885392
0.88536
0.885293
0.885219
0.88517
0.885178
0.885229
0.885254
0.885243
0.885235
0.88525
0.885246
0.885153
0.885033
0.884959
0.884946
0.885032
0.885581
0.887083
0.891188
0.897955
0.911437
0.927737
0.947344
0.966054
0.976468
0.987643
0.990351
0.994193
0.99973
1.00059
1.00187
1.00258
1.00173
1.00162
1.00223
1.00359
1.00521
1.00629
1.00711
1.00912
1.01385
1.0217
1.02988
1.03475
1.037
1.03814
1.03864
1.03912
1.04008
1.04151
1.04189
1.04129
1.03898
1.03254
0.883874
0.883878
0.883882
0.883901
0.883918
0.883917
0.883906
0.8839
0.883911
0.883919
0.883907
0.883855
0.883845
0.883856
0.88388
0.883913
0.88395
0.883974
0.883999
0.884027
0.884067
0.884113
0.884153
0.884186
0.884195
0.884205
0.884235
0.884286
0.884345
0.884405
0.884468
0.884547
0.884587
0.88462
0.884689
0.884786
0.884872
0.884937
0.884978
0.885013
0.885064
0.885128
0.885134
0.885131
0.885125
0.885118
0.885073
0.88499
0.884906
0.884835
0.884784
0.884774
0.88478
0.884779
0.884795
0.884866
0.884966
0.884999
0.884956
0.884888
0.884835
0.884828
0.884918
0.885183
0.885657
0.886425
0.888538
0.892607
0.90303
0.917014
0.9383
0.958878
0.976432
0.990643
0.998207
0.999033
1.00055
0.999517
0.998391
0.999816
1.00241
1.00391
1.00506
1.00509
1.00571
1.00827
1.01403
1.02159
1.02884
1.03431
1.03663
1.03776
1.03827
1.03884
1.03987
1.04136
1.0417
1.04095
1.0385
1.03214
0.883743
0.883755
0.883766
0.883771
0.883775
0.883783
0.883797
0.883806
0.883804
0.883792
0.883747
0.883662
0.883658
0.883675
0.883709
0.883748
0.883782
0.883811
0.883829
0.883839
0.883857
0.883891
0.883902
0.883889
0.883861
0.883871
0.883902
0.883944
0.883984
0.884037
0.884103
0.884163
0.884189
0.884229
0.884307
0.884407
0.884512
0.884597
0.88464
0.884672
0.884724
0.884774
0.884767
0.88476
0.884754
0.884749
0.884717
0.884661
0.884598
0.884521
0.884436
0.884374
0.884366
0.884385
0.884463
0.884568
0.884643
0.884708
0.8848
0.884815
0.884777
0.884765
0.884812
0.885016
0.885419
0.885801
0.88608
0.886486
0.887601
0.890217
0.897988
0.91014
0.930801
0.950661
0.970453
0.980129
0.989505
0.99232
0.997018
1.0023
1.00303
1.00351
1.00321
1.00354
1.0047
1.00864
1.01399
1.0203
1.02782
1.03402
1.03667
1.03764
1.03789
1.03847
1.03975
1.04123
1.04136
1.0404
1.03779
1.03169
0.883617
0.883637
0.883658
0.883684
0.883722
0.883782
0.883819
0.883818
0.883804
0.883771
0.883699
0.883664
0.883678
0.883704
0.883744
0.883794
0.883851
0.883881
0.883879
0.883876
0.883879
0.88388
0.883872
0.88383
0.883807
0.883821
0.883849
0.883883
0.883912
0.88394
0.88397
0.883985
0.883997
0.884028
0.884096
0.884188
0.884294
0.884387
0.88444
0.884477
0.884522
0.884581
0.884587
0.884592
0.884598
0.884605
0.884606
0.884606
0.884607
0.884555
0.884439
0.884318
0.884233
0.884229
0.884275
0.884357
0.884434
0.884534
0.884691
0.884825
0.884811
0.884795
0.884842
0.88503
0.885334
0.885628
0.88588
0.886073
0.88622
0.886383
0.886908
0.888635
0.894076
0.9056
0.922823
0.94695
0.968263
0.984028
0.99559
1.0004
1.00086
0.999509
1.00031
1.00195
1.00517
1.00852
1.01242
1.01851
1.02745
1.03427
1.03683
1.03715
1.03754
1.03834
1.03982
1.04111
1.04096
1.03974
1.03704
1.03123
0.883323
0.883338
0.883356
0.883375
0.883393
0.883418
0.883461
0.88348
0.883468
0.883423
0.88334
0.883327
0.883343
0.883373
0.883415
0.883488
0.88356
0.88356
0.88354
0.883538
0.883544
0.883544
0.883521
0.883446
0.883444
0.88347
0.883522
0.883576
0.883634
0.883684
0.8837
0.883712
0.883729
0.883764
0.883819
0.88388
0.883961
0.884048
0.88411
0.884149
0.884188
0.884249
0.884293
0.884303
0.884304
0.88432
0.884358
0.884365
0.884367
0.884375
0.884335
0.884236
0.884153
0.88415
0.88421
0.884329
0.88446
0.884599
0.884765
0.88495
0.885003
0.884988
0.885001
0.885091
0.885214
0.885362
0.885598
0.885776
0.885861
0.885873
0.88585
0.885908
0.886222
0.887639
0.891519
0.902464
0.918335
0.941867
0.963736
0.978922
0.986699
0.993837
0.99878
1.00401
1.00662
1.00711
1.00991
1.01763
1.02869
1.03511
1.03626
1.03674
1.03742
1.03849
1.04
1.04072
1.04046
1.0391
1.03633
1.03073
0.883068
0.883086
0.883105
0.883124
0.883141
0.883159
0.883191
0.883212
0.8832
0.883155
0.883102
0.883094
0.883096
0.883104
0.883128
0.883189
0.883236
0.88323
0.883231
0.883257
0.883324
0.883384
0.883379
0.883338
0.88327
0.883275
0.883313
0.883389
0.883492
0.883581
0.883637
0.88368
0.883729
0.88378
0.883801
0.883811
0.883839
0.883901
0.883967
0.884015
0.88406
0.884112
0.884142
0.884156
0.88417
0.884203
0.884238
0.884258
0.884272
0.884287
0.884296
0.884257
0.884162
0.88413
0.884176
0.884311
0.884456
0.884538
0.884606
0.884736
0.884825
0.884827
0.884854
0.884942
0.885018
0.885089
0.885189
0.885322
0.885513
0.885738
0.885767
0.885661
0.885645
0.885792
0.886254
0.887593
0.890866
0.90046
0.916881
0.939757
0.963853
0.988456
0.996502
1.00307
1.00393
1.00296
1.00735
1.01875
1.02999
1.03408
1.03555
1.03659
1.03759
1.03882
1.04009
1.04026
1.03998
1.03858
1.03568
1.03023
0.882926
0.882927
0.882939
0.882963
0.882991
0.88302
0.883046
0.883072
0.883089
0.883078
0.883029
0.882985
0.882992
0.882992
0.882977
0.882932
0.882916
0.882918
0.882937
0.88297
0.883019
0.883089
0.883148
0.88316
0.883154
0.883145
0.883175
0.88325
0.883368
0.883493
0.883587
0.883661
0.883738
0.883783
0.883781
0.883765
0.883778
0.883821
0.883885
0.883954
0.884033
0.884098
0.884095
0.884101
0.884145
0.884192
0.884186
0.884167
0.884164
0.884172
0.884196
0.884228
0.884213
0.884132
0.884127
0.884224
0.884307
0.884302
0.884309
0.884409
0.884563
0.884599
0.884661
0.884811
0.884853
0.884846
0.88485
0.884914
0.885111
0.88542
0.885588
0.885587
0.885595
0.88572
0.886121
0.886661
0.887232
0.888378
0.891702
0.900238
0.918619
0.941591
0.96397
0.985054
0.99199
0.997596
1.00875
1.02009
1.02774
1.03249
1.03559
1.03723
1.03805
1.03883
1.03968
1.04
1.03974
1.03814
1.03501
1.02981
0.882778
0.882765
0.882767
0.882781
0.882802
0.882829
0.882865
0.882899
0.882916
0.882904
0.882876
0.882852
0.882835
0.882814
0.882771
0.882682
0.882626
0.882634
0.882651
0.882676
0.882706
0.882743
0.882799
0.882889
0.882974
0.883019
0.883047
0.883106
0.883211
0.883338
0.88347
0.883577
0.883634
0.883643
0.883638
0.883623
0.883621
0.883629
0.883667
0.883733
0.88382
0.88387
0.883854
0.883856
0.883925
0.883972
0.883957
0.883936
0.883938
0.883957
0.883993
0.884036
0.88403
0.883972
0.883946
0.884002
0.884082
0.884067
0.884032
0.884033
0.884097
0.884202
0.884416
0.8847
0.884863
0.884879
0.884868
0.884853
0.884888
0.88508
0.885382
0.885535
0.885631
0.885821
0.886162
0.886696
0.887259
0.887757
0.888303
0.88938
0.892784
0.901239
0.921389
0.945389
0.97056
0.992569
1.00591
1.01473
1.02295
1.03175
1.03701
1.0382
1.03826
1.03848
1.03961
1.03998
1.03945
1.03738
1.03417
1.0294
0.882555
0.882618
0.882661
0.88266
0.882649
0.882617
0.882596
0.882602
0.882617
0.882654
0.882664
0.882651
0.882619
0.882562
0.882431
0.882312
0.882323
0.882347
0.88238
0.882424
0.88246
0.882479
0.882515
0.882595
0.882716
0.882828
0.882881
0.882929
0.883013
0.883109
0.88323
0.883372
0.883409
0.883405
0.883407
0.883421
0.88342
0.883399
0.883411
0.883448
0.883535
0.883605
0.883595
0.883612
0.883628
0.883602
0.88355
0.883501
0.883495
0.883521
0.883572
0.883655
0.883751
0.883753
0.883745
0.883771
0.88386
0.883858
0.883789
0.883757
0.883768
0.883881
0.88415
0.884459
0.884733
0.884872
0.884886
0.884866
0.884865
0.884988
0.885326
0.885648
0.885846
0.886019
0.886254
0.886663
0.887169
0.88767
0.888012
0.888334
0.888795
0.889913
0.893939
0.904339
0.925501
0.953174
0.974177
0.996882
1.01758
1.03487
1.03859
1.03842
1.03767
1.03853
1.0401
1.03995
1.03877
1.0364
1.03353
1.02924
0.882306
0.882366
0.882402
0.8824
0.882372
0.882309
0.882309
0.882322
0.882329
0.882354
0.882405
0.882404
0.882344
0.882142
0.881997
0.882003
0.882048
0.882096
0.882114
0.882154
0.882185
0.882215
0.882258
0.882295
0.882339
0.882451
0.882601
0.882656
0.882704
0.882763
0.882851
0.883032
0.883141
0.88312
0.883119
0.883169
0.883271
0.883384
0.883381
0.883369
0.883379
0.883414
0.883512
0.883563
0.883529
0.883374
0.883202
0.883115
0.883082
0.883096
0.883161
0.883258
0.883358
0.883432
0.883497
0.883626
0.883854
0.883977
0.88393
0.883829
0.883777
0.883795
0.883997
0.884367
0.884702
0.884926
0.884988
0.884973
0.884982
0.885116
0.885434
0.885761
0.885977
0.886134
0.886322
0.886624
0.887035
0.887477
0.887853
0.888224
0.888677
0.889299
0.890336
0.892286
0.897745
0.910023
0.932134
0.970715
1.00892
1.03369
1.03694
1.03517
1.03631
1.03944
1.04012
1.03961
1.03812
1.03592
1.03354
1.02941
0.882056
0.882064
0.882052
0.881995
0.881972
0.88198
0.881995
0.882011
0.882057
0.882132
0.88213
0.882028
0.881776
0.881741
0.881753
0.881791
0.88188
0.881887
0.881849
0.881854
0.881923
0.882053
0.882086
0.882084
0.882083
0.882087
0.882137
0.882209
0.882243
0.88227
0.882314
0.882415
0.882578
0.882685
0.882751
0.882825
0.882967
0.883158
0.883196
0.883193
0.883205
0.883235
0.883346
0.883447
0.883439
0.883311
0.883032
0.882819
0.882752
0.882758
0.882822
0.882946
0.883048
0.883119
0.883218
0.883433
0.883727
0.883941
0.883977
0.88391
0.883823
0.88382
0.883963
0.884309
0.884673
0.884937
0.885053
0.885061
0.885094
0.88523
0.885482
0.885732
0.885923
0.88609
0.886302
0.886562
0.88685
0.887185
0.887573
0.888038
0.888586
0.889316
0.890444
0.891745
0.893147
0.895153
0.902559
0.922087
0.959637
1.00208
1.02263
1.03087
1.0379
1.04032
1.03998
1.03941
1.03823
1.03621
1.03347
1.02927
0.88203
0.88208
0.882123
0.882126
0.882112
0.882098
0.882093
0.882064
0.882009
0.881922
0.881749
0.881706
0.881725
0.881755
0.881825
0.881964
0.882026
0.881968
0.881847
0.881848
0.881927
0.882034
0.882037
0.882017
0.881992
0.881956
0.881911
0.881858
0.881852
0.88185
0.881802
0.881793
0.881837
0.881928
0.882073
0.882247
0.882428
0.882632
0.8829
0.883166
0.883228
0.883226
0.883264
0.883356
0.883362
0.883271
0.883102
0.882992
0.882912
0.882866
0.882885
0.882979
0.882996
0.882977
0.883042
0.883316
0.883636
0.88387
0.884014
0.883992
0.883888
0.883856
0.883952
0.884235
0.88457
0.884834
0.884989
0.885065
0.885162
0.885322
0.88553
0.885698
0.885839
0.885986
0.886187
0.886443
0.886715
0.887033
0.887431
0.887946
0.88861
0.889521
0.890749
0.892092
0.892955
0.893867
0.895486
0.900303
0.918363
0.953291
1.00001
1.0265
1.03906
1.03752
1.03767
1.03847
1.03798
1.03624
1.03281
1.02831
0.881675
0.881701
0.881753
0.881816
0.881829
0.881815
0.881776
0.881676
0.881479
0.881406
0.881411
0.881458
0.881529
0.881553
0.881588
0.881715
0.881795
0.881737
0.881642
0.881648
0.881752
0.881938
0.881979
0.88197
0.881965
0.881958
0.881897
0.881671
0.881519
0.881497
0.881445
0.881335
0.881344
0.881382
0.881449
0.881597
0.881806
0.882067
0.882448
0.882878
0.883025
0.883035
0.883076
0.883208
0.883238
0.883147
0.883039
0.883036
0.882996
0.882883
0.882872
0.882916
0.882891
0.882799
0.882854
0.883181
0.883536
0.883771
0.883911
0.883898
0.883836
0.883836
0.883962
0.884226
0.884505
0.884737
0.884889
0.884999
0.885151
0.885336
0.885548
0.885674
0.885761
0.885879
0.886081
0.886371
0.886674
0.887004
0.887429
0.888012
0.888779
0.889786
0.891073
0.892277
0.893143
0.893771
0.894912
0.897671
0.903233
0.919049
0.949943
0.987413
1.02294
1.02686
1.03521
1.03867
1.03723
1.03453
1.03143
1.02754
0.880461
0.880447
0.880419
0.880418
0.880429
0.880447
0.880464
0.880501
0.880588
0.880617
0.880659
0.880784
0.880987
0.881142
0.881188
0.881235
0.881291
0.88135
0.881426
0.88152
0.881673
0.88185
0.881878
0.881883
0.881921
0.881951
0.881945
0.881895
0.8818
0.881736
0.881688
0.881598
0.881551
0.881562
0.881578
0.881638
0.881765
0.88197
0.882265
0.882596
0.882737
0.882713
0.882698
0.882775
0.882938
0.882922
0.882915
0.882933
0.882907
0.882821
0.882794
0.882832
0.882818
0.8827
0.882744
0.88306
0.883337
0.883509
0.883718
0.883758
0.883748
0.883812
0.884036
0.884356
0.88468
0.884819
0.884872
0.884963
0.885109
0.885274
0.88549
0.885637
0.885689
0.885812
0.886051
0.886377
0.886731
0.887136
0.887638
0.888266
0.889054
0.890036
0.891289
0.892497
0.893327
0.893872
0.894846
0.897192
0.902391
0.909717
0.922372
0.947701
0.98139
1.00905
1.03444
1.03458
1.03209
1.03175
1.03018
1.02743
0.879054
0.879061
0.87909
0.879088
0.879083
0.879089
0.879123
0.8792
0.879333
0.879559
0.879625
0.87968
0.879946
0.880141
0.880205
0.880279
0.880473
0.880755
0.880946
0.881104
0.881242
0.881329
0.881401
0.88153
0.881582
0.881538
0.881509
0.881488
0.881429
0.881352
0.881288
0.881248
0.881264
0.881286
0.881326
0.881409
0.881523
0.881687
0.881882
0.882017
0.881991
0.881825
0.881772
0.88181
0.881884
0.881953
0.882041
0.882202
0.882431
0.882476
0.88248
0.882526
0.882519
0.88253
0.882748
0.88318
0.883203
0.883183
0.883302
0.883512
0.883641
0.883808
0.884039
0.884316
0.884673
0.884861
0.884889
0.884931
0.885021
0.885129
0.885346
0.885496
0.885603
0.885751
0.886013
0.886426
0.886986
0.887583
0.888138
0.888685
0.889371
0.890286
0.891454
0.892691
0.893451
0.894005
0.894865
0.896961
0.901797
0.909608
0.91773
0.927339
0.941802
0.971388
1.00041
1.01505
1.02489
1.03166
1.03107
1.02885
0.879097
0.879094
0.87904
0.87889
0.87887
0.878882
0.878911
0.878912
0.878912
0.878923
0.878977
0.879065
0.879155
0.879292
0.879443
0.879453
0.879456
0.879556
0.879762
0.880001
0.880046
0.880007
0.879882
0.879878
0.87989
0.8799
0.879958
0.880089
0.880074
0.879995
0.87999
0.880006
0.880032
0.880025
0.880015
0.880075
0.880231
0.880473
0.880635
0.880606
0.880507
0.880528
0.880652
0.880955
0.88127
0.881393
0.881358
0.881271
0.881237
0.881361
0.881596
0.881826
0.882046
0.882315
0.882714
0.883077
0.883233
0.883282
0.883334
0.88346
0.883606
0.883757
0.883909
0.884134
0.884475
0.884737
0.884769
0.884669
0.884606
0.884603
0.884816
0.885232
0.88561
0.885917
0.886284
0.886825
0.88746
0.888029
0.888519
0.889012
0.889634
0.890502
0.891659
0.892818
0.893586
0.89409
0.894898
0.896772
0.901019
0.908694
0.91765
0.924717
0.928871
0.938669
0.954611
0.982824
1.01476
1.02709
1.02871
1.02811
0.878486
0.878515
0.878541
0.878598
0.878634
0.878686
0.878804
0.878842
0.878806
0.878801
0.878837
0.87897
0.879113
0.87923
0.879234
0.879216
0.879224
0.879275
0.879429
0.879524
0.87947
0.879241
0.878644
0.878165
0.878152
0.878153
0.87817
0.878281
0.878371
0.878324
0.87832
0.878373
0.878463
0.8786
0.878795
0.878902
0.878943
0.879102
0.879531
0.879818
0.879801
0.879846
0.879974
0.880398
0.880925
0.881034
0.880999
0.880794
0.880542
0.880509
0.880638
0.880922
0.881224
0.88154
0.881878
0.882259
0.882686
0.882869
0.882843
0.882738
0.882675
0.882682
0.882733
0.882892
0.883347
0.883965
0.884144
0.884088
0.884093
0.88416
0.884488
0.885133
0.885812
0.8863
0.886694
0.887179
0.887741
0.888281
0.888782
0.889299
0.889915
0.890768
0.891921
0.893058
0.893774
0.894268
0.895037
0.896709
0.900373
0.907074
0.916439
0.924767
0.92786
0.928563
0.931237
0.944722
0.967602
0.991052
1.01026
1.02394
0.879244
0.879339
0.879519
0.879992
0.880443
0.880566
0.880578
0.880637
0.880833
0.881081
0.881193
0.881289
0.881407
0.881511
0.881558
0.881527
0.881329
0.881101
0.881116
0.88111
0.880908
0.880269
0.879236
0.878848
0.878825
0.878807
0.878812
0.878913
0.879032
0.879007
0.878894
0.878922
0.879021
0.87905
0.879031
0.879062
0.879291
0.879889
0.880637
0.88101
0.881155
0.881328
0.881763
0.88243
0.882808
0.88285
0.882763
0.882356
0.881705
0.881588
0.881676
0.881714
0.881617
0.881171
0.880975
0.881011
0.881408
0.881875
0.881894
0.88172
0.881512
0.881498
0.881513
0.881667
0.882159
0.882883
0.883493
0.883711
0.883636
0.883698
0.884088
0.885012
0.88584
0.886306
0.886673
0.887148
0.887727
0.888287
0.888765
0.889265
0.889956
0.890957
0.892183
0.893322
0.894037
0.89456
0.895321
0.896737
0.899697
0.905546
0.914609
0.9242
0.927594
0.927621
0.927036
0.927906
0.933639
0.952442
0.978847
1.00824
0.885192
0.885312
0.88553
0.886032
0.886855
0.887241
0.887369
0.887364
0.887378
0.887599
0.887751
0.887874
0.888251
0.888398
0.888413
0.888416
0.888264
0.887829
0.887651
0.887378
0.886562
0.885598
0.885308
0.885237
0.885258
0.885285
0.8852
0.885034
0.884819
0.884413
0.88367
0.88314
0.882775
0.882259
0.882004
0.882007
0.882137
0.882378
0.882663
0.882864
0.883185
0.883642
0.883931
0.883766
0.883205
0.882724
0.882336
0.881891
0.881452
0.881235
0.881284
0.881486
0.88145
0.881047
0.880749
0.880661
0.880729
0.881008
0.881192
0.881243
0.881285
0.881326
0.881354
0.881435
0.881779
0.882371
0.88288
0.883313
0.88382
0.884308
0.884762
0.885062
0.885368
0.88566
0.886031
0.886565
0.887185
0.88778
0.888337
0.889017
0.889944
0.891149
0.892499
0.893702
0.89441
0.894876
0.895494
0.896654
0.899008
0.904038
0.912561
0.922636
0.927276
0.927414
0.926868
0.925605
0.924696
0.92776
0.938381
0.97575
0.892387
0.892031
0.891805
0.891782
0.891997
0.892579
0.892981
0.893051
0.892903
0.892258
0.891544
0.891582
0.891785
0.891722
0.891414
0.891568
0.892007
0.891785
0.890636
0.890219
0.890209
0.890411
0.890481
0.890455
0.890768
0.891438
0.891827
0.892287
0.892606
0.89248
0.891663
0.890442
0.889779
0.889426
0.889134
0.88874
0.887943
0.887091
0.886961
0.887148
0.887363
0.887234
0.886383
0.884914
0.884137
0.88387
0.88359
0.883253
0.883159
0.883168
0.883341
0.883922
0.884368
0.884322
0.883965
0.883176
0.882393
0.882218
0.882244
0.882544
0.883206
0.883716
0.883867
0.883922
0.884146
0.884382
0.884398
0.884394
0.884513
0.884909
0.885183
0.885174
0.885181
0.885367
0.88578
0.886348
0.886943
0.887533
0.888169
0.88899
0.890064
0.891363
0.89279
0.893924
0.894537
0.894954
0.89546
0.896353
0.898264
0.902616
0.910319
0.920311
0.926766
0.927367
0.926735
0.925049
0.923583
0.923617
0.924786
0.941386
0.9125
0.91243
0.912286
0.911997
0.911676
0.911314
0.91112
0.911091
0.911064
0.910571
0.9102
0.910084
0.909829
0.909302
0.908544
0.907532
0.906936
0.906464
0.905543
0.904821
0.904815
0.904892
0.904774
0.904515
0.904413
0.904075
0.903522
0.903403
0.902982
0.902623
0.902777
0.902476
0.901646
0.901571
0.901908
0.901962
0.901438
0.900741
0.900781
0.901047
0.901327
0.901254
0.900601
0.898644
0.896305
0.895203
0.894481
0.893589
0.893164
0.89293
0.892677
0.89268
0.892843
0.893142
0.892999
0.892003
0.890048
0.888396
0.887897
0.887768
0.887584
0.887187
0.886487
0.885871
0.885676
0.885506
0.88517
0.884608
0.884365
0.884449
0.884591
0.884771
0.885038
0.885384
0.885919
0.886574
0.887234
0.887923
0.888754
0.88992
0.891211
0.892349
0.893192
0.893954
0.894349
0.894505
0.894792
0.895548
0.897323
0.901156
0.908023
0.917512
0.925734
0.927095
0.926446
0.924703
0.92327
0.923287
0.923542
0.927125
0.927875
0.927478
0.927158
0.926781
0.9266
0.926589
0.926696
0.926991
0.926979
0.926523
0.926236
0.926346
0.926577
0.926557
0.926299
0.92606
0.925712
0.925129
0.924551
0.9242
0.924151
0.924423
0.924472
0.924317
0.924133
0.92342
0.921995
0.921774
0.922096
0.922083
0.921389
0.919932
0.918086
0.916524
0.915544
0.914887
0.914012
0.91229
0.910667
0.910308
0.910764
0.911613
0.911673
0.911295
0.910397
0.909556
0.909066
0.908483
0.907576
0.906156
0.903777
0.900729
0.899517
0.899652
0.899556
0.898358
0.897473
0.897067
0.896391
0.895069
0.893444
0.892038
0.89078
0.889468
0.889072
0.889025
0.888811
0.887865
0.886835
0.886731
0.886842
0.887243
0.887627
0.88808
0.888803
0.889485
0.889873
0.890308
0.891026
0.89189
0.892691
0.89334
0.893786
0.893941
0.894128
0.894301
0.894611
0.895344
0.896883
0.899962
0.905711
0.914299
0.92364
0.926605
0.92624
0.924882
0.923938
0.924007
0.923807
0.923972
0.950311
0.950086
0.949944
0.949419
0.948753
0.948547
0.948276
0.947692
0.947592
0.947381
0.946426
0.945581
0.945581
0.945603
0.945257
0.945044
0.944664
0.943476
0.942822
0.942837
0.942951
0.942755
0.941723
0.94136
0.941296
0.940908
0.939859
0.939462
0.939333
0.938647
0.938114
0.938235
0.938058
0.936885
0.936211
0.936247
0.936022
0.934848
0.932681
0.931392
0.930555
0.929572
0.928486
0.927435
0.925822
0.923871
0.923344
0.92374
0.924004
0.923657
0.922389
0.920462
0.919058
0.917919
0.915836
0.91282
0.912044
0.91202
0.911454
0.910578
0.90974
0.908298
0.906391
0.904417
0.903091
0.902745
0.902452
0.9013
0.899259
0.897502
0.896483
0.89576
0.89468