/*--------------------------------*- C++ -*----------------------------------*\
  =========                 |
  \\      /  F ield         | OpenFOAM: The Open Source CFD Toolbox
   \\    /   O peration     | Website:  https://openfoam.org
    \\  /    A nd           | Version:  7
     \\/     M anipulation  |
\*---------------------------------------------------------------------------*/
FoamFile
{
    version     2.0;
    format      ascii;
    class       volVectorField;
    location    "0.004";
    object      U;
}
// * * * * * * * * * * * * * * * * * * * * * * * * * * * * * * * * * * * * * //

dimensions      [0 1 -1 0 0 0 0];

internalField   nonuniform List<vector> 
12000
(
(1.68306 0.057822 0)
(3.03387 -0.29166 0)
(3.06445 -0.0544091 0)
(3.00898 -0.0032917 0)
(3.00259 -0.00058407 0)
(3.00001 9.26696e-06 0)
(3 1.08219e-07 0)
(3 -6.54513e-08 0)
(3 -3.07131e-09 0)
(3 -4.75192e-12 0)
(3 2.86361e-12 0)
(3 7.7483e-14 0)
(3 -9.42689e-16 0)
(3 -2.64503e-16 0)
(3 -1.94502e-16 0)
(3 -1.15083e-16 0)
(3 -1.04927e-16 0)
(3 2.98759e-16 0)
(3 -1.52627e-17 0)
(3 -1.65239e-17 0)
(3 -1.32733e-16 0)
(3 -3.98197e-17 0)
(3 2.88248e-16 0)
(3 -3.01901e-16 0)
(3 1.009e-16 0)
(3 -4.21333e-17 0)
(3 -9.95635e-17 0)
(3 -2.14017e-17 0)
(3 2.17471e-16 0)
(3 1.38106e-16 0)
(3 -6.69444e-18 0)
(3 1.7224e-16 0)
(3 1.14003e-17 0)
(3 4.71261e-17 0)
(3 -1.11411e-16 0)
(3 2.4551e-17 0)
(3 8.10668e-17 0)
(3 4.40258e-18 0)
(3 3.40222e-17 0)
(3 -1.69461e-17 0)
(1.77476 0.0384159 0)
(3.08743 -0.289645 0)
(3.06088 -0.0473091 0)
(3.00791 -0.00357083 0)
(3.00171 -0.00061044 0)
(2.99998 -6.08489e-07 0)
(3 -6.73114e-08 0)
(3 -7.74758e-08 0)
(3 -1.08898e-09 0)
(3 -6.29798e-12 0)
(3 4.04146e-12 0)
(3 2.58924e-14 0)
(3 -1.46255e-15 0)
(3 -3.50671e-16 0)
(3 -7.61208e-17 0)
(3 1.09444e-16 0)
(3 4.89208e-17 0)
(3 1.75076e-16 0)
(3 2.07542e-16 0)
(3 -1.18081e-16 0)
(3 -2.13798e-16 0)
(3 -2.50357e-17 0)
(3 -2.39736e-16 0)
(3 -9.30402e-17 0)
(3 -5.06735e-17 0)
(3 -2.13271e-16 0)
(3 -1.30163e-16 0)
(3 -2.88624e-17 0)
(3 2.89278e-17 0)
(3 -7.74768e-18 0)
(3 -9.78015e-17 0)
(3 -1.83526e-16 0)
(3 6.56686e-17 0)
(3 1.41285e-16 0)
(3 1.41335e-16 0)
(3 5.09208e-18 0)
(3 1.16411e-16 0)
(3 8.86974e-17 0)
(3 -1.92548e-17 0)
(3 -4.3899e-17 0)
(1.84697 0.0359809 0)
(3.13142 -0.252397 0)
(3.05497 -0.0342069 0)
(3.00762 -0.00314216 0)
(3.00116 -0.000369508 0)
(2.99998 2.43337e-06 0)
(3 -2.97711e-09 0)
(3 -4.36917e-08 0)
(3 -3.52883e-10 0)
(3 -1.35647e-11 0)
(3 9.18461e-13 0)
(3 -2.08419e-15 0)
(3 -1.802e-15 0)
(3 2.00023e-16 0)
(3 -1.7796e-16 0)
(3 2.81577e-16 0)
(3 2.82466e-16 0)
(3 1.46438e-16 0)
(3 -5.16434e-17 0)
(3 -3.07934e-16 0)
(3 3.256e-16 0)
(3 2.00727e-17 0)
(3 1.42874e-16 0)
(3 -4.24197e-17 0)
(3 3.43413e-17 0)
(3 7.57944e-17 0)
(3 2.12891e-16 0)
(3 -9.86848e-17 0)
(3 1.20522e-16 0)
(3 -1.86597e-16 0)
(3 -3.45424e-17 0)
(3 2.36136e-17 0)
(3 1.16709e-16 0)
(3 -2.35714e-16 0)
(3 -4.97339e-17 0)
(3 6.88075e-18 0)
(3 -2.08665e-16 0)
(3 -1.25296e-16 0)
(3 -2.9895e-16 0)
(3 6.07908e-17 0)
(1.91103 0.0319287 0)
(3.16177 -0.221379 0)
(3.04884 -0.0257488 0)
(3.00762 -0.00328856 0)
(3.00067 -0.000259717 0)
(2.99998 1.62063e-06 0)
(3 -4.88818e-08 0)
(3 -3.75218e-08 0)
(3 -1.97635e-10 0)
(3 4.14862e-12 0)
(3 1.22502e-12 0)
(3 -3.71289e-15 0)
(3 -1.69762e-15 0)
(3 -1.37162e-16 0)
(3 -4.04738e-17 0)
(3 1.02024e-16 0)
(3 2.70513e-17 0)
(3 -4.92035e-16 0)
(3 -2.62886e-16 0)
(3 1.45017e-16 0)
(3 5.57353e-17 0)
(3 1.19652e-17 0)
(3 -1.71879e-16 0)
(3 2.2054e-17 0)
(3 4.02141e-17 0)
(3 1.7349e-16 0)
(3 8.15255e-17 0)
(3 -1.52658e-16 0)
(3 4.52881e-17 0)
(3 -1.2035e-16 0)
(3 2.09604e-16 0)
(3 1.72285e-17 0)
(3 8.01283e-17 0)
(3 -7.05264e-17 0)
(3 -7.8012e-17 0)
(3 -6.98436e-17 0)
(3 4.79031e-17 0)
(3 5.85216e-17 0)
(3 1.2946e-16 0)
(3 9.10779e-17 0)
(1.96921 0.028483 0)
(3.1832 -0.19608 0)
(3.0432 -0.0199626 0)
(3.00758 -0.00379352 0)
(3.00021 -0.0001473 0)
(2.99999 9.89622e-07 0)
(3 -6.16173e-08 0)
(3 -2.27766e-08 0)
(3 -7.91347e-11 0)
(3 1.24491e-11 0)
(3 5.82571e-13 0)
(3 -4.50156e-15 0)
(3 -9.55382e-16 0)
(3 1.00191e-16 0)
(3 -8.66915e-17 0)
(3 1.87538e-16 0)
(3 -1.90573e-17 0)
(3 -1.93154e-16 0)
(3 1.89531e-16 0)
(3 -1.35971e-16 0)
(3 -2.98143e-16 0)
(3 1.61772e-16 0)
(3 1.44734e-16 0)
(3 1.116e-16 0)
(3 -4.93614e-17 0)
(3 4.56795e-17 0)
(3 -2.66227e-16 0)
(3 8.88942e-17 0)
(3 1.19926e-16 0)
(3 1.48905e-16 0)
(3 2.10713e-16 0)
(3 1.41843e-16 0)
(3 -1.17956e-16 0)
(3 8.41298e-17 0)
(3 2.29863e-17 0)
(3 7.66122e-17 0)
(3 -4.8394e-18 0)
(3 -8.86222e-17 0)
(3 6.69857e-17 0)
(3 -6.72366e-17 0)
(2.02261 0.0262108 0)
(3.19766 -0.177469 0)
(3.0383 -0.0161767 0)
(3.00733 -0.00294747 0)
(3.00003 -5.62861e-05 0)
(2.99999 8.61474e-07 0)
(3 -7.42549e-08 0)
(3 -1.48482e-08 0)
(3 -1.92142e-11 0)
(3 1.44421e-11 0)
(3 3.30273e-13 0)
(3 -6.78004e-15 0)
(3 -8.16128e-16 0)
(3 -2.30628e-16 0)
(3 -1.85863e-16 0)
(3 1.70898e-16 0)
(3 -2.58221e-16 0)
(3 3.96263e-16 0)
(3 3.37706e-16 0)
(3 -8.01341e-17 0)
(3 4.55846e-17 0)
(3 -1.04121e-16 0)
(3 -1.02747e-16 0)
(3 -1.02425e-16 0)
(3 7.71966e-17 0)
(3 5.96518e-17 0)
(3 -1.18038e-16 0)
(3 1.88083e-17 0)
(3 -1.59432e-16 0)
(3 -6.66485e-17 0)
(3 3.53444e-17 0)
(3 -1.94181e-16 0)
(3 -5.81903e-17 0)
(3 4.38631e-18 0)
(3 -1.6428e-16 0)
(3 9.64012e-17 0)
(3 -2.43259e-17 0)
(3 1.18463e-16 0)
(3 7.80052e-17 0)
(3 -6.35246e-17 0)
(2.06983 0.0238408 0)
(3.20764 -0.160215 0)
(3.03449 -0.0141891 0)
(3.00685 -0.00272478 0)
(2.99992 -4.17797e-05 0)
(2.99999 6.9054e-07 0)
(3 -4.16588e-08 0)
(3 -8.2929e-09 0)
(3 -9.32601e-12 0)
(3 1.24389e-11 0)
(3 1.48668e-13 0)
(3 -4.2013e-15 0)
(3 -2.00534e-17 0)
(3 1.95825e-16 0)
(3 6.089e-16 0)
(3 2.16708e-17 0)
(3 6.72343e-17 0)
(3 -1.34365e-16 0)
(3 -7.12561e-16 0)
(3 -1.61855e-16 0)
(3 -6.14081e-17 0)
(3 2.10455e-16 0)
(3 1.25369e-16 0)
(3 2.87389e-17 0)
(3 -1.35299e-17 0)
(3 -1.35512e-16 0)
(3 -4.24444e-17 0)
(3 8.0686e-17 0)
(3 -9.76057e-17 0)
(3 -4.4857e-17 0)
(3 -1.06419e-16 0)
(3 -1.17336e-16 0)
(3 1.18615e-16 0)
(3 3.20346e-17 0)
(3 8.84697e-17 0)
(3 4.11366e-17 0)
(3 -2.20759e-16 0)
(3 6.86203e-17 0)
(3 1.55637e-18 0)
(3 8.76236e-17 0)
(2.11274 0.0224506 0)
(3.21401 -0.147791 0)
(3.03123 -0.0120797 0)
(3.00636 -0.00220276 0)
(2.99988 -1.00699e-05 0)
(2.99999 5.13688e-07 0)
(3 -7.67074e-08 0)
(3 -6.6166e-09 0)
(3 -2.89865e-11 0)
(3 6.41337e-12 0)
(3 3.13024e-14 0)
(3 -7.93301e-15 0)
(3 -3.55085e-16 0)
(3 3.29584e-17 0)
(3 6.41888e-17 0)
(3 -1.78387e-16 0)
(3 2.22058e-16 0)
(3 -4.19437e-17 0)
(3 4.82458e-16 0)
(3 2.36904e-16 0)
(3 2.59007e-16 0)
(3 1.27693e-17 0)
(3 -1.25266e-16 0)
(3 1.8153e-18 0)
(3 6.17817e-17 0)
(3 7.30049e-17 0)
(3 3.18708e-16 0)
(3 3.01005e-16 0)
(3 4.89072e-17 0)
(3 2.20901e-16 0)
(3 2.1104e-16 0)
(3 1.15893e-16 0)
(3 -4.07419e-17 0)
(3 9.77354e-18 0)
(3 -1.18421e-16 0)
(3 -8.88416e-17 0)
(3 2.03909e-16 0)
(3 -1.05929e-16 0)
(3 -1.45553e-16 0)
(3 -8.33182e-17 0)
(2.15039 0.0207866 0)
(3.21829 -0.135636 0)
(3.02874 -0.0112998 0)
(3.0058 -0.00215244 0)
(2.99986 -1.22014e-05 0)
(3 3.81647e-07 0)
(3 -8.17011e-08 0)
(3 -4.19468e-09 0)
(3 2.26659e-11 0)
(3 8.73848e-12 0)
(3 5.75638e-15 0)
(3 -8.2519e-15 0)
(3 -9.23294e-17 0)
(3 4.2823e-16 0)
(3 -9.93744e-17 0)
(3 1.20343e-16 0)
(3 3.85408e-16 0)
(3 3.68122e-18 0)
(3 -1.09387e-16 0)
(3 -3.0261e-16 0)
(3 1.11893e-17 0)
(3 -2.78621e-16 0)
(3 1.69152e-16 0)
(3 2.14777e-16 0)
(3 1.45866e-17 0)
(3 -2.70323e-16 0)
(3 6.18335e-17 0)
(3 -2.24448e-16 0)
(3 3.47434e-17 0)
(3 1.55178e-17 0)
(3 -6.40451e-17 0)
(3 -2.75365e-16 0)
(3 -4.62035e-17 0)
(3 -5.08014e-17 0)
(3 -1.83911e-16 0)
(3 2.19963e-16 0)
(3 1.16316e-17 0)
(3 -7.49092e-17 0)
(3 1.26461e-16 0)
(3 2.54653e-18 0)
(2.18449 0.0197558 0)
(3.22051 -0.127337 0)
(3.02662 -0.0099255 0)
(3.00536 -0.00179587 0)
(2.99986 1.3387e-06 0)
(3 4.25701e-07 0)
(3 -5.77224e-08 0)
(3 -2.94071e-09 0)
(3 4.00957e-12 0)
(3 6.75612e-12 0)
(3 -1.52953e-14 0)
(3 -6.05974e-15 0)
(3 -3.11173e-18 0)
(3 4.81727e-16 0)
(3 -2.01281e-16 0)
(3 6.7068e-17 0)
(3 -1.22742e-16 0)
(3 -3.87065e-16 0)
(3 7.51846e-17 0)
(3 -9.20637e-18 0)
(3 1.34605e-16 0)
(3 2.54907e-17 0)
(3 -2.04829e-16 0)
(3 -1.11162e-16 0)
(3 -2.19623e-16 0)
(3 2.25557e-16 0)
(3 2.47311e-17 0)
(3 -4.39116e-17 0)
(3 3.2865e-17 0)
(3 -1.77618e-16 0)
(3 -2.58962e-18 0)
(3 -3.00208e-17 0)
(3 2.6118e-16 0)
(3 8.03397e-17 0)
(3 2.39885e-16 0)
(3 2.50093e-16 0)
(3 -1.37754e-16 0)
(3 3.22359e-17 0)
(3 -2.44195e-17 0)
(3 2.17792e-16 0)
(2.21436 0.0188297 0)
(3.22173 -0.119859 0)
(3.02487 -0.00917636 0)
(3.00491 -0.00158859 0)
(2.99987 6.43134e-06 0)
(3 2.97557e-07 0)
(3 -7.0669e-08 0)
(3 -2.75273e-09 0)
(3 -1.98197e-11 0)
(3 2.51296e-12 0)
(3 2.77547e-14 0)
(3 -3.58575e-15 0)
(3 2.08909e-16 0)
(3 -1.15405e-16 0)
(3 -2.34021e-16 0)
(3 2.39218e-16 0)
(3 1.14949e-16 0)
(3 1.08989e-16 0)
(3 -2.35636e-16 0)
(3 -5.20785e-16 0)
(3 6.01423e-17 0)
(3 2.18887e-16 0)
(3 -1.1131e-16 0)
(3 2.11776e-16 0)
(3 1.64352e-16 0)
(3 6.45158e-17 0)
(3 -2.5662e-16 0)
(3 -2.08673e-16 0)
(3 9.22003e-18 0)
(3 1.01808e-16 0)
(3 8.0028e-17 0)
(3 5.12394e-18 0)
(3 2.09748e-16 0)
(3 -7.96323e-17 0)
(3 2.12739e-17 0)
(3 -2.44128e-16 0)
(3 6.94743e-19 0)
(3 -4.92537e-17 0)
(3 -7.32316e-18 0)
(3 -3.57193e-18 0)
(2.24028 0.0179047 0)
(3.22212 -0.112711 0)
(3.02358 -0.00900377 0)
(3.00451 -0.00158657 0)
(2.99987 2.81073e-06 0)
(3 2.96096e-07 0)
(3 -6.6515e-08 0)
(3 -1.38489e-09 0)
(3 7.6182e-12 0)
(3 3.09479e-12 0)
(3 -3.90298e-15 0)
(3 -3.70856e-15 0)
(3 -2.61723e-16 0)
(3 -7.21429e-17 0)
(3 -6.7014e-17 0)
(3 1.04008e-16 0)
(3 -8.30435e-17 0)
(3 -7.272e-17 0)
(3 -1.04163e-16 0)
(3 3.08268e-16 0)
(3 4.57003e-16 0)
(3 9.59268e-18 0)
(3 -1.54926e-16 0)
(3 4.66344e-16 0)
(3 -9.01382e-17 0)
(3 -3.10582e-16 0)
(3 4.1853e-18 0)
(3 2.49398e-16 0)
(3 1.08472e-16 0)
(3 -1.12743e-16 0)
(3 -9.4634e-17 0)
(3 -1.04542e-16 0)
(3 1.39848e-17 0)
(3 5.6663e-17 0)
(3 6.9179e-17 0)
(3 -5.51457e-17 0)
(3 1.24363e-16 0)
(3 -1.22196e-17 0)
(3 1.71721e-16 0)
(3 -5.78791e-17 0)
(2.26323 0.017349 0)
(3.22179 -0.107991 0)
(3.02243 -0.00829286 0)
(3.0042 -0.00138532 0)
(2.99988 7.75365e-06 0)
(3 3.93869e-07 0)
(3 -4.24128e-08 0)
(3 -1.10546e-09 0)
(3 5.1284e-12 0)
(3 1.8922e-12 0)
(3 -2.27632e-14 0)
(3 -3.56096e-15 0)
(3 -2.49207e-16 0)
(3 -3.30919e-16 0)
(3 -1.85433e-16 0)
(3 1.51797e-16 0)
(3 -7.61565e-17 0)
(3 -1.12913e-16 0)
(3 -1.68289e-17 0)
(3 -5.75254e-17 0)
(3 -3.32399e-16 0)
(3 2.10825e-16 0)
(3 1.88343e-16 0)
(3 -1.69392e-16 0)
(3 -4.5001e-16 0)
(3 -7.20496e-17 0)
(3 2.88046e-16 0)
(3 -5.24022e-17 0)
(3 -3.41143e-16 0)
(3 1.19708e-16 0)
(3 1.15834e-16 0)
(3 1.32528e-17 0)
(3 2.92274e-16 0)
(3 6.69465e-18 0)
(3 -3.24037e-16 0)
(3 3.20534e-17 0)
(3 5.62931e-18 0)
(3 -9.82252e-17 0)
(3 -2.11029e-16 0)
(3 -1.4564e-16 0)
(2.28287 0.0168886 0)
(3.22123 -0.103832 0)
(3.02149 -0.00792929 0)
(3.00388 -0.00125089 0)
(2.9999 8.05746e-06 0)
(3 4.28515e-07 0)
(3 -4.21211e-08 0)
(3 -1.18306e-09 0)
(3 -1.5401e-11 0)
(3 1.04996e-12 0)
(3 8.57031e-15 0)
(3 -2.42351e-15 0)
(3 -3.16548e-16 0)
(3 -6.78291e-17 0)
(3 -6.18093e-17 0)
(3 1.60295e-16 0)
(3 8.53324e-17 0)
(3 7.24939e-17 0)
(3 1.4081e-17 0)
(3 -1.52857e-17 0)
(3 1.9098e-16 0)
(3 2.6398e-16 0)
(3 6.71415e-17 0)
(3 -5.53319e-17 0)
(3 -8.46613e-17 0)
(3 -8.58691e-17 0)
(3 3.92365e-17 0)
(3 -2.27935e-16 0)
(3 6.96674e-17 0)
(3 -9.72887e-17 0)
(3 6.39091e-17 0)
(3 -8.32108e-17 0)
(3 5.59144e-18 0)
(3 -2.9584e-16 0)
(3 -1.6983e-16 0)
(3 1.60265e-16 0)
(3 -6.2816e-17 0)
(3 -5.21031e-17 0)
(3 8.35731e-17 0)
(3 7.56111e-17 0)
(2.29918 0.0163481 0)
(3.22066 -0.0991682 0)
(3.02075 -0.0082447 0)
(3.0036 -0.00133115 0)
(2.9999 4.83923e-06 0)
(3 4.315e-07 0)
(3 -4.02158e-08 0)
(3 -2.77238e-10 0)
(3 4.43636e-11 0)
(3 1.4024e-12 0)
(3 -1.04402e-14 0)
(3 -1.70919e-15 0)
(3 5.05356e-16 0)
(3 -6.15904e-17 0)
(3 4.72287e-17 0)
(3 5.85122e-16 0)
(3 -3.11663e-17 0)
(3 4.2369e-18 0)
(3 1.78567e-16 0)
(3 -6.35564e-17 0)
(3 2.63864e-16 0)
(3 -1.58741e-16 0)
(3 -1.10751e-16 0)
(3 -3.75679e-16 0)
(3 -3.42684e-16 0)
(3 2.60135e-16 0)
(3 2.73679e-16 0)
(3 2.61321e-16 0)
(3 -4.6837e-17 0)
(3 -4.88927e-17 0)
(3 1.94011e-16 0)
(3 -1.5818e-17 0)
(3 -1.31565e-16 0)
(3 6.66447e-17 0)
(3 5.91284e-17 0)
(3 3.4723e-17 0)
(3 4.48321e-17 0)
(3 -3.82441e-18 0)
(3 -6.19141e-17 0)
(3 -2.35044e-17 0)
(2.31312 0.0161187 0)
(3.2197 -0.0967311 0)
(3.02015 -0.00785048 0)
(3.00342 -0.00121807 0)
(2.99991 5.59921e-06 0)
(3 3.81644e-07 0)
(3 -4.15755e-08 0)
(3 -3.95499e-10 0)
(3 1.87883e-11 0)
(3 7.30031e-13 0)
(3 -1.60866e-14 0)
(3 -1.54205e-15 0)
(3 2.27242e-17 0)
(3 -2.50765e-16 0)
(3 3.04093e-16 0)
(3 6.15061e-18 0)
(3 -4.45499e-16 0)
(3 -8.29879e-19 0)
(3 -3.32089e-16 0)
(3 -2.40115e-16 0)
(3 3.05597e-16 0)
(3 -3.51395e-16 0)
(3 -3.35518e-17 0)
(3 1.22147e-16 0)
(3 4.83943e-18 0)
(3 2.45345e-16 0)
(3 -2.53463e-16 0)
(3 1.51059e-16 0)
(3 -2.87871e-16 0)
(3 -1.06913e-16 0)
(3 1.02656e-16 0)
(3 4.21647e-17 0)
(3 -1.25313e-16 0)
(3 1.55361e-16 0)
(3 -4.58222e-17 0)
(3 -9.90423e-17 0)
(3 1.28975e-16 0)
(3 1.40194e-16 0)
(3 -1.29728e-16 0)
(3 2.36414e-17 0)
(2.32435 0.0159692 0)
(3.21883 -0.0947573 0)
(3.0197 -0.00757862 0)
(3.00326 -0.00113111 0)
(2.99992 6.17674e-06 0)
(3 3.49018e-07 0)
(3 -4.44349e-08 0)
(3 -4.6798e-10 0)
(3 4.25467e-12 0)
(3 5.51751e-13 0)
(3 -1.3046e-14 0)
(3 -1.41934e-15 0)
(3 7.90583e-17 0)
(3 -2.6981e-17 0)
(3 -1.48929e-16 0)
(3 -3.13499e-16 0)
(3 -8.80713e-17 0)
(3 3.10172e-16 0)
(3 -1.62496e-16 0)
(3 3.7106e-16 0)
(3 4.47299e-17 0)
(3 3.994e-17 0)
(3 8.51945e-17 0)
(3 -2.36541e-16 0)
(3 -3.12843e-16 0)
(3 -2.57013e-16 0)
(3 -8.58403e-17 0)
(3 2.34802e-16 0)
(3 -4.52193e-17 0)
(3 -3.19515e-17 0)
(3 4.06158e-16 0)
(3 -1.87741e-16 0)
(3 1.39331e-17 0)
(3 3.94199e-17 0)
(3 -3.92934e-17 0)
(3 8.99088e-17 0)
(3 2.14844e-18 0)
(3 6.80429e-17 0)
(3 -1.79436e-16 0)
(3 1.03951e-16 0)
(2.33302 0.0159006 0)
(3.21807 -0.0932889 0)
(3.01936 -0.00738957 0)
(3.0031 -0.00106053 0)
(2.99993 6.10184e-06 0)
(3 3.36952e-07 0)
(3 -4.56868e-08 0)
(3 -3.81367e-10 0)
(3 8.51717e-12 0)
(3 4.44346e-13 0)
(3 -2.63487e-14 0)
(3 -6.95567e-16 0)
(3 4.31503e-16 0)
(3 -1.30837e-16 0)
(3 -9.76936e-17 0)
(3 -4.74218e-17 0)
(3 1.5783e-16 0)
(3 1.83911e-16 0)
(3 -1.56516e-17 0)
(3 1.28353e-16 0)
(3 1.56758e-17 0)
(3 -9.93826e-17 0)
(3 -2.40159e-16 0)
(3 3.50293e-17 0)
(3 2.34162e-16 0)
(3 7.9253e-17 0)
(3 2.78516e-16 0)
(3 1.30082e-16 0)
(3 -1.33664e-16 0)
(3 -7.54239e-17 0)
(3 -1.68242e-18 0)
(3 -2.7759e-17 0)
(3 1.28227e-16 0)
(3 -2.54432e-16 0)
(3 -1.28561e-17 0)
(3 1.49263e-16 0)
(3 2.09908e-17 0)
(3 -1.50658e-16 0)
(3 1.62195e-17 0)
(3 -5.9018e-17 0)
(2.33925 0.0159182 0)
(3.21745 -0.0923057 0)
(3.0191 -0.00727244 0)
(3.00298 -0.00101513 0)
(2.99994 6.63634e-06 0)
(3 4.76914e-07 0)
(3 -2.97535e-08 0)
(3 -6.69537e-10 0)
(3 -7.45913e-12 0)
(3 4.73422e-13 0)
(3 -1.07997e-14 0)
(3 -4.34034e-16 0)
(3 -1.26626e-16 0)
(3 2.25564e-16 0)
(3 -3.50837e-16 0)
(3 -1.27522e-17 0)
(3 3.10155e-16 0)
(3 4.06791e-17 0)
(3 -1.96689e-16 0)
(3 1.09743e-16 0)
(3 -3.84956e-16 0)
(3 -4.11955e-18 0)
(3 3.43205e-16 0)
(3 1.53083e-16 0)
(3 -1.52919e-16 0)
(3 1.03499e-16 0)
(3 -4.36054e-17 0)
(3 1.67796e-16 0)
(3 -5.39161e-17 0)
(3 1.29239e-16 0)
(3 -1.24968e-16 0)
(3 9.07786e-17 0)
(3 -3.8377e-16 0)
(3 1.18587e-16 0)
(3 1.48982e-16 0)
(3 1.79793e-16 0)
(3 -8.64724e-17 0)
(3 -6.72971e-17 0)
(3 6.03428e-17 0)
(3 -3.64059e-17 0)
(2.34312 0.0160118 0)
(3.217 -0.0917896 0)
(3.01892 -0.00720595 0)
(3.00291 -0.000987351 0)
(2.99995 6.49947e-06 0)
(3 4.30671e-07 0)
(3 -3.0699e-08 0)
(3 -5.8401e-10 0)
(3 2.04275e-12 0)
(3 4.08055e-13 0)
(3 -1.31426e-14 0)
(3 -1.12294e-16 0)
(3 -7.07809e-17 0)
(3 2.22963e-16 0)
(3 -6.06472e-16 0)
(3 5.08794e-17 0)
(3 -1.44419e-16 0)
(3 1.78963e-16 0)
(3 -3.76778e-16 0)
(3 3.04749e-16 0)
(3 -1.7845e-16 0)
(3 3.03713e-16 0)
(3 -2.59832e-16 0)
(3 3.14648e-17 0)
(3 6.80028e-17 0)
(3 -3.24881e-17 0)
(3 -9.05777e-17 0)
(3 1.86825e-16 0)
(3 -6.01584e-17 0)
(3 1.74291e-19 0)
(3 -2.48449e-16 0)
(3 1.24196e-18 0)
(3 8.25699e-17 0)
(3 2.76911e-16 0)
(3 -5.89295e-17 0)
(3 -2.9242e-17 0)
(3 -2.72635e-16 0)
(3 2.53045e-16 0)
(3 9.71362e-17 0)
(3 2.72238e-16 0)
(2.34437 0.0161064 0)
(3.21669 -0.0916887 0)
(3.01882 -0.00718424 0)
(3.00286 -0.000974804 0)
(2.99995 6.47392e-06 0)
(3 4.12134e-07 0)
(3 -3.00083e-08 0)
(3 -1.14068e-09 0)
(3 -8.02619e-12 0)
(3 3.87843e-13 0)
(3 -1.35142e-14 0)
(3 -2.25799e-16 0)
(3 -1.10482e-16 0)
(3 1.58763e-17 0)
(3 -8.92368e-17 0)
(3 9.8796e-17 0)
(3 1.63109e-16 0)
(3 1.94924e-16 0)
(3 -8.2737e-17 0)
(3 3.42763e-16 0)
(3 2.14425e-17 0)
(3 -4.11552e-16 0)
(3 1.09659e-16 0)
(3 3.55556e-16 0)
(3 1.86518e-18 0)
(3 -4.37254e-17 0)
(3 3.39331e-17 0)
(3 -6.71269e-17 0)
(3 -3.66525e-16 0)
(3 9.84653e-17 0)
(3 -1.56053e-16 0)
(3 6.41635e-17 0)
(3 2.18609e-16 0)
(3 -3.33717e-16 0)
(3 -1.00392e-16 0)
(3 -6.87461e-17 0)
(3 1.48151e-16 0)
(3 -1.32304e-17 0)
(3 -1.96113e-17 0)
(3 -1.06512e-17 0)
(2.34413 0.016293 0)
(3.21657 -0.0919301 0)
(3.01879 -0.00719886 0)
(3.00284 -0.000972785 0)
(2.99995 6.48978e-06 0)
(3 4.01448e-07 0)
(3 -2.96067e-08 0)
(3 -1.23936e-09 0)
(3 -1.11902e-11 0)
(3 3.18631e-13 0)
(3 -1.37696e-14 0)
(3 -2.87444e-16 0)
(3 -8.13898e-18 0)
(3 -1.28422e-16 0)
(3 2.14071e-17 0)
(3 4.04859e-16 0)
(3 -1.52515e-16 0)
(3 1.51443e-16 0)
(3 -9.20808e-17 0)
(3 -1.74586e-16 0)
(3 -8.47967e-17 0)
(3 2.66349e-16 0)
(3 -2.05641e-16 0)
(3 4.27469e-17 0)
(3 4.59359e-17 0)
(3 3.02808e-17 0)
(3 -1.11688e-16 0)
(3 3.52558e-17 0)
(3 -1.69699e-16 0)
(3 2.5982e-16 0)
(3 8.61006e-17 0)
(3 7.05125e-17 0)
(3 -1.878e-16 0)
(3 6.04071e-18 0)
(3 1.26241e-16 0)
(3 -1.96401e-17 0)
(3 1.16187e-16 0)
(3 -3.63957e-16 0)
(3 1.41398e-16 0)
(3 3.43688e-17 0)
(2.34187 0.0165604 0)
(3.21657 -0.0925891 0)
(3.01879 -0.00724926 0)
(3.00285 -0.000981167 0)
(2.99995 6.59546e-06 0)
(3 4.00725e-07 0)
(3 -2.90637e-08 0)
(3 -1.21188e-09 0)
(3 -1.01485e-11 0)
(3 2.74448e-13 0)
(3 -9.17726e-15 0)
(3 -1.7784e-16 0)
(3 1.21232e-16 0)
(3 8.01185e-17 0)
(3 6.38974e-16 0)
(3 -4.14885e-16 0)
(3 -1.4996e-16 0)
(3 1.40531e-18 0)
(3 8.16762e-17 0)
(3 -1.30353e-18 0)
(3 2.27988e-16 0)
(3 3.02964e-16 0)
(3 -6.90876e-16 0)
(3 2.3706e-16 0)
(3 7.10862e-17 0)
(3 -1.42207e-16 0)
(3 1.89841e-16 0)
(3 -5.25815e-17 0)
(3 -3.76037e-16 0)
(3 9.82982e-17 0)
(3 2.72874e-16 0)
(3 -2.47407e-16 0)
(3 -1.45054e-17 0)
(3 -1.42484e-16 0)
(3 1.72063e-16 0)
(3 1.13617e-16 0)
(3 -6.91649e-17 0)
(3 -1.58525e-16 0)
(3 3.12748e-16 0)
(3 1.96063e-17 0)
(2.33767 0.0168932 0)
(3.2167 -0.0936282 0)
(3.01888 -0.00734311 0)
(3.00288 -0.00100156 0)
(2.99994 6.80616e-06 0)
(3 4.09639e-07 0)
(3 -2.82596e-08 0)
(3 -1.20769e-09 0)
(3 -1.18753e-11 0)
(3 2.79131e-13 0)
(3 -9.90199e-15 0)
(3 -8.19315e-16 0)
(3 8.92175e-17 0)
(3 8.3172e-17 0)
(3 4.56497e-17 0)
(3 -7.58797e-16 0)
(3 1.58351e-16 0)
(3 -4.68672e-17 0)
(3 1.80669e-17 0)
(3 6.65992e-17 0)
(3 1.00046e-17 0)
(3 -1.21317e-16 0)
(3 -1.99193e-16 0)
(3 1.09045e-16 0)
(3 1.26965e-16 0)
(3 -7.64487e-17 0)
(3 1.04408e-16 0)
(3 -3.08266e-16 0)
(3 1.22175e-16 0)
(3 5.8272e-17 0)
(3 2.64969e-16 0)
(3 -1.07793e-16 0)
(3 2.38299e-16 0)
(3 -3.54721e-16 0)
(3 -2.92654e-17 0)
(3 2.2425e-16 0)
(3 -1.45576e-16 0)
(3 2.34145e-17 0)
(3 2.08978e-16 0)
(3 -2.00024e-16 0)
(2.33147 0.017302 0)
(3.21695 -0.0950668 0)
(3.01902 -0.00748693 0)
(3.00293 -0.00103683 0)
(2.99994 7.16378e-06 0)
(3 4.26516e-07 0)
(3 -2.70561e-08 0)
(3 -1.20986e-09 0)
(3 -1.83297e-11 0)
(3 3.57338e-13 0)
(3 -1.22708e-14 0)
(3 -2.78955e-16 0)
(3 4.62882e-16 0)
(3 1.54518e-16 0)
(3 -2.76125e-16 0)
(3 -1.99666e-16 0)
(3 5.83471e-16 0)
(3 2.99787e-17 0)
(3 3.85357e-17 0)
(3 -3.58354e-17 0)
(3 -4.03556e-17 0)
(3 1.01918e-16 0)
(3 -2.74036e-17 0)
(3 -5.35432e-16 0)
(3 3.03445e-17 0)
(3 3.03231e-16 0)
(3 -2.66617e-16 0)
(3 3.39916e-16 0)
(3 -3.14502e-16 0)
(3 -1.62506e-16 0)
(3 2.76315e-16 0)
(3 -3.55803e-16 0)
(3 1.24911e-16 0)
(3 -2.79601e-17 0)
(3 1.01744e-16 0)
(3 -8.94273e-17 0)
(3 -3.98712e-17 0)
(3 3.72016e-17 0)
(3 -5.95295e-17 0)
(3 -2.81466e-17 0)
(2.32322 0.0177908 0)
(3.21729 -0.0969202 0)
(3.01922 -0.00768747 0)
(3.00301 -0.00108977 0)
(2.99993 7.06706e-06 0)
(3 5.65407e-07 0)
(3 -3.04734e-08 0)
(3 -5.46266e-10 0)
(3 -5.05785e-12 0)
(3 3.41832e-13 0)
(3 -1.04456e-14 0)
(3 -3.54652e-16 0)
(3 -1.78637e-16 0)
(3 1.22292e-17 0)
(3 -6.91e-17 0)
(3 8.35699e-19 0)
(3 2.1784e-16 0)
(3 5.07328e-17 0)
(3 -9.01276e-17 0)
(3 -2.00209e-16 0)
(3 2.4687e-17 0)
(3 1.10627e-16 0)
(3 -1.0189e-16 0)
(3 -1.33198e-16 0)
(3 3.64676e-16 0)
(3 -3.40879e-18 0)
(3 -6.26857e-17 0)
(3 2.38384e-16 0)
(3 -2.41338e-16 0)
(3 9.80687e-17 0)
(3 3.59311e-18 0)
(3 -1.66383e-16 0)
(3 -1.08859e-16 0)
(3 4.31646e-16 0)
(3 -2.50863e-16 0)
(3 -2.44478e-17 0)
(3 -8.31346e-17 0)
(3 1.46721e-16 0)
(3 1.22817e-16 0)
(3 -8.79136e-17 0)
(2.31282 0.0183692 0)
(3.21769 -0.0992244 0)
(3.01947 -0.00796397 0)
(3.0031 -0.00116133 0)
(2.99993 6.0992e-06 0)
(3 4.17078e-07 0)
(3 -4.55346e-08 0)
(3 -6.62562e-10 0)
(3 -1.68653e-11 0)
(3 3.87936e-13 0)
(3 -5.86792e-15 0)
(3 -3.82774e-16 0)
(3 -3.64196e-16 0)
(3 -1.40358e-16 0)
(3 2.0773e-16 0)
(3 1.2052e-16 0)
(3 -1.64506e-16 0)
(3 -5.11502e-17 0)
(3 -5.36091e-17 0)
(3 -1.11273e-16 0)
(3 8.07507e-17 0)
(3 -7.01436e-17 0)
(3 -1.54446e-16 0)
(3 6.87589e-17 0)
(3 -5.766e-17 0)
(3 1.41741e-16 0)
(3 8.29849e-17 0)
(3 -1.9866e-16 0)
(3 1.78607e-17 0)
(3 2.57506e-16 0)
(3 -2.1759e-16 0)
(3 -3.63143e-16 0)
(3 2.95623e-16 0)
(3 -1.14099e-16 0)
(3 1.99919e-16 0)
(3 -1.16799e-16 0)
(3 1.02346e-16 0)
(3 3.49453e-18 0)
(3 1.57992e-16 0)
(3 -6.79092e-17 0)
(2.30024 0.019049 0)
(3.21811 -0.102116 0)
(3.01991 -0.00819668 0)
(3.00321 -0.00123409 0)
(2.99992 6.00756e-06 0)
(3 4.47134e-07 0)
(3 -4.72975e-08 0)
(3 -6.90854e-10 0)
(3 -8.59696e-12 0)
(3 3.77932e-13 0)
(3 -3.70544e-15 0)
(3 -3.40487e-16 0)
(3 1.73542e-16 0)
(3 3.98914e-17 0)
(3 -2.25142e-16 0)
(3 3.38893e-16 0)
(3 8.43631e-17 0)
(3 1.32475e-16 0)
(3 -3.50821e-16 0)
(3 1.51431e-16 0)
(3 3.80482e-16 0)
(3 -4.71822e-16 0)
(3 1.18209e-16 0)
(3 1.71817e-16 0)
(3 -3.2735e-16 0)
(3 5.73599e-16 0)
(3 -5.62879e-16 0)
(3 -2.17866e-17 0)
(3 4.73039e-16 0)
(3 -1.50923e-16 0)
(3 -7.21109e-17 0)
(3 -2.1832e-16 0)
(3 2.01566e-16 0)
(3 1.37495e-16 0)
(3 2.20054e-16 0)
(3 -1.20819e-16 0)
(3 1.04767e-16 0)
(3 -3.76512e-17 0)
(3 2.16778e-16 0)
(3 -1.06107e-17 0)
(2.28559 0.0199831 0)
(3.21828 -0.106624 0)
(3.02038 -0.0080552 0)
(3.00336 -0.00118332 0)
(2.99992 7.92997e-06 0)
(3 5.40413e-07 0)
(3 -3.90332e-08 0)
(3 -7.39139e-10 0)
(3 -2.48334e-11 0)
(3 4.02336e-13 0)
(3 -1.13896e-14 0)
(3 -5.75496e-17 0)
(3 4.54633e-17 0)
(3 -4.05014e-17 0)
(3 3.10769e-16 0)
(3 -6.21337e-18 0)
(3 -7.07869e-17 0)
(3 -8.89442e-18 0)
(3 -5.88858e-17 0)
(3 2.4584e-17 0)
(3 1.71378e-16 0)
(3 -4.71106e-16 0)
(3 3.6938e-16 0)
(3 -1.62754e-16 0)
(3 2.79472e-16 0)
(3 -1.74004e-16 0)
(3 -1.52511e-16 0)
(3 -1.28268e-16 0)
(3 2.50048e-16 0)
(3 -1.13851e-17 0)
(3 -1.43035e-16 0)
(3 -3.51207e-17 0)
(3 -1.23763e-16 0)
(3 3.6014e-16 0)
(3 2.01709e-17 0)
(3 -5.50366e-16 0)
(3 -4.78579e-17 0)
(3 3.48745e-16 0)
(3 -1.86979e-16 0)
(3 2.46862e-17 0)
(2.26822 0.020941 0)
(3.21835 -0.110972 0)
(3.02104 -0.00830992 0)
(3.00354 -0.00124922 0)
(2.99991 8.54964e-06 0)
(3 6.24362e-07 0)
(3 -3.88677e-08 0)
(3 -1.06093e-09 0)
(3 -3.87727e-11 0)
(3 6.75851e-13 0)
(3 -4.19881e-15 0)
(3 -2.94567e-16 0)
(3 -1.5944e-16 0)
(3 1.83472e-16 0)
(3 -2.44332e-16 0)
(3 -2.61644e-17 0)
(3 -8.7864e-17 0)
(3 3.63418e-16 0)
(3 1.64434e-16 0)
(3 -4.72125e-16 0)
(3 -3.64051e-17 0)
(3 2.36299e-16 0)
(3 2.07689e-18 0)
(3 -3.45632e-16 0)
(3 5.26377e-16 0)
(3 -4.69005e-16 0)
(3 -9.95742e-17 0)
(3 1.38687e-16 0)
(3 1.84934e-16 0)
(3 6.24112e-17 0)
(3 1.24467e-16 0)
(3 -2.94623e-16 0)
(3 1.46318e-17 0)
(3 2.75263e-17 0)
(3 3.46892e-18 0)
(3 -1.22564e-16 0)
(3 2.35772e-16 0)
(3 1.95913e-16 0)
(3 1.11535e-17 0)
(3 -1.03076e-16 0)
(2.24806 0.0219968 0)
(3.21825 -0.115756 0)
(3.02177 -0.00893741 0)
(3.00372 -0.00139975 0)
(2.99991 6.69025e-06 0)
(3 6.92594e-07 0)
(3 -4.24448e-08 0)
(3 -1.1513e-09 0)
(3 -3.20093e-11 0)
(3 2.05334e-13 0)
(3 -5.94628e-15 0)
(3 -3.17245e-16 0)
(3 -3.42307e-16 0)
(3 -1.46325e-16 0)
(3 1.0682e-16 0)
(3 1.98758e-16 0)
(3 6.47442e-17 0)
(3 2.41397e-16 0)
(3 -7.75092e-17 0)
(3 -4.59514e-16 0)
(3 5.56743e-17 0)
(3 5.23031e-16 0)
(3 -1.41354e-16 0)
(3 -4.11301e-16 0)
(3 6.14607e-16 0)
(3 -6.52304e-16 0)
(3 2.9437e-16 0)
(3 7.02685e-17 0)
(3 -6.56963e-17 0)
(3 1.64563e-16 0)
(3 -6.6049e-18 0)
(3 -3.1641e-16 0)
(3 3.04323e-16 0)
(3 -1.65652e-16 0)
(3 3.07413e-17 0)
(3 2.87791e-16 0)
(3 -1.35872e-16 0)
(3 1.59108e-16 0)
(3 4.71444e-17 0)
(3 -3.06025e-16 0)
(2.22512 0.0232146 0)
(3.21773 -0.121512 0)
(3.02278 -0.00952381 0)
(3.00394 -0.00155864 0)
(2.99991 4.30572e-06 0)
(3 6.9246e-07 0)
(3 -4.76904e-08 0)
(3 -1.1545e-09 0)
(3 -4.84384e-11 0)
(3 4.35321e-13 0)
(3 -3.28467e-15 0)
(3 -4.48893e-16 0)
(3 2.28378e-16 0)
(3 -1.72002e-17 0)
(3 2.32203e-16 0)
(3 -6.22445e-17 0)
(3 -4.34839e-16 0)
(3 5.29334e-16 0)
(3 -1.24171e-16 0)
(3 -1.83395e-16 0)
(3 8.49763e-17 0)
(3 -1.00019e-16 0)
(3 1.77177e-16 0)
(3 -1.56086e-16 0)
(3 2.29414e-16 0)
(3 -4.23578e-17 0)
(3 3.31079e-16 0)
(3 -4.13113e-16 0)
(3 1.01275e-16 0)
(3 -1.65575e-16 0)
(3 1.68879e-16 0)
(3 -2.86401e-18 0)
(3 -1.5447e-16 0)
(3 1.97531e-16 0)
(3 -6.10577e-16 0)
(3 5.71273e-16 0)
(3 -1.59166e-16 0)
(3 1.89669e-16 0)
(3 -1.10962e-16 0)
(3 -1.9817e-16 0)
(2.19952 0.0248611 0)
(3.21636 -0.129718 0)
(3.02379 -0.00969117 0)
(3.0042 -0.00153358 0)
(2.9999 7.35225e-06 0)
(3 5.08426e-07 0)
(3 -4.12841e-08 0)
(3 -4.40351e-10 0)
(3 1.32258e-11 0)
(3 9.27041e-13 0)
(3 -7.39356e-15 0)
(3 -7.75276e-16 0)
(3 -1.51509e-16 0)
(3 1.84091e-16 0)
(3 2.24866e-17 0)
(3 -2.3005e-16 0)
(3 -1.33549e-16 0)
(3 4.88213e-16 0)
(3 5.10619e-17 0)
(3 -4.28262e-16 0)
(3 1.43833e-16 0)
(3 2.47601e-16 0)
(3 -1.38786e-16 0)
(3 3.17643e-17 0)
(3 6.50472e-17 0)
(3 -5.92514e-17 0)
(3 -2.14134e-16 0)
(3 2.31509e-16 0)
(3 -4.07484e-16 0)
(3 2.5019e-16 0)
(3 -7.05653e-16 0)
(3 4.73684e-16 0)
(3 2.90449e-16 0)
(3 7.20159e-18 0)
(3 -7.03754e-16 0)
(3 5.80819e-16 0)
(3 1.75623e-16 0)
(3 -2.62998e-16 0)
(3 1.82708e-16 0)
(3 -3.52423e-16 0)
(2.17012 0.0264916 0)
(3.21427 -0.137612 0)
(3.02525 -0.0107497 0)
(3.00447 -0.00176723 0)
(2.99991 2.38977e-06 0)
(3 6.00927e-07 0)
(3 -4.63856e-08 0)
(3 -1.22462e-09 0)
(3 -6.71879e-11 0)
(3 4.03458e-13 0)
(3 2.71243e-15 0)
(3 -4.93964e-16 0)
(3 -3.22408e-16 0)
(3 4.33344e-16 0)
(3 -3.00312e-16 0)
(3 3.58468e-16 0)
(3 -2.30685e-16 0)
(3 1.57814e-16 0)
(3 -3.19703e-16 0)
(3 1.05245e-16 0)
(3 2.56504e-19 0)
(3 -8.61628e-18 0)
(3 -1.28393e-17 0)
(3 -5.46028e-17 0)
(3 -3.24427e-16 0)
(3 1.47733e-16 0)
(3 1.10847e-16 0)
(3 5.53586e-17 0)
(3 -3.0921e-16 0)
(3 4.14079e-16 0)
(3 -3.12025e-16 0)
(3 4.85098e-16 0)
(3 -1.80349e-16 0)
(3 9.32481e-17 0)
(3 1.33955e-18 0)
(3 -1.4431e-16 0)
(3 2.78403e-16 0)
(3 -1.93859e-16 0)
(3 -1.40114e-16 0)
(3 1.48231e-16 0)
(2.13737 0.028362 0)
(3.21102 -0.147071 0)
(3.02701 -0.0119696 0)
(3.00473 -0.00204815 0)
(2.99991 -6.48607e-06 0)
(3 6.40623e-07 0)
(3 -5.06763e-08 0)
(3 -2.16338e-09 0)
(3 -5.02904e-11 0)
(3 9.15006e-13 0)
(3 2.13449e-14 0)
(3 -5.81731e-16 0)
(3 -1.74076e-16 0)
(3 3.61316e-16 0)
(3 -1.97897e-16 0)
(3 2.02163e-17 0)
(3 8.35187e-17 0)
(3 -1.87521e-16 0)
(3 1.78785e-16 0)
(3 1.28574e-16 0)
(3 2.21914e-16 0)
(3 -1.74005e-16 0)
(3 5.55752e-17 0)
(3 -4.24446e-16 0)
(3 1.49904e-17 0)
(3 -7.30406e-17 0)
(3 3.68403e-16 0)
(3 2.22156e-16 0)
(3 -3.24642e-17 0)
(3 -1.55929e-16 0)
(3 -2.97341e-16 0)
(3 2.92781e-16 0)
(3 -2.60607e-16 0)
(3 2.55495e-16 0)
(3 -4.77234e-17 0)
(3 -1.95151e-16 0)
(3 -1.41473e-16 0)
(3 8.93055e-17 0)
(3 6.83163e-17 0)
(3 9.48996e-17 0)
(2.1008 0.0310379 0)
(3.20585 -0.160077 0)
(3.02889 -0.0128374 0)
(3.00508 -0.0021005 0)
(2.99993 -4.03509e-06 0)
(3 7.52015e-07 0)
(3 -2.67751e-08 0)
(3 -1.33019e-09 0)
(3 -7.4173e-11 0)
(3 7.08116e-13 0)
(3 3.94476e-14 0)
(3 -6.54975e-16 0)
(3 1.61665e-16 0)
(3 3.88277e-16 0)
(3 -5.57877e-16 0)
(3 5.0414e-17 0)
(3 5.67162e-16 0)
(3 -8.8681e-16 0)
(3 1.31815e-16 0)
(3 2.47216e-16 0)
(3 2.00416e-16 0)
(3 -1.83656e-16 0)
(3 -4.61172e-17 0)
(3 -8.5919e-17 0)
(3 1.81368e-16 0)
(3 -1.78321e-16 0)
(3 -4.22252e-17 0)
(3 1.09944e-16 0)
(3 -6.73695e-17 0)
(3 4.77065e-17 0)
(3 -5.0511e-17 0)
(3 1.97248e-16 0)
(3 -1.08353e-16 0)
(3 2.65184e-16 0)
(3 -2.43348e-16 0)
(3 -2.86435e-16 0)
(3 9.37931e-17 0)
(3 1.34811e-17 0)
(3 3.44709e-16 0)
(3 1.19044e-16 0)
(2.05548 0.033791 0)
(3.198 -0.17409 0)
(3.03155 -0.015016 0)
(3.00538 -0.00254367 0)
(2.99996 -2.55189e-05 0)
(3 6.25634e-07 0)
(3 -6.66277e-08 0)
(3 -2.97534e-09 0)
(3 8.52626e-12 0)
(3 1.08499e-12 0)
(3 1.02353e-14 0)
(3 -9.29982e-16 0)
(3 4.91607e-16 0)
(3 -2.34712e-17 0)
(3 -2.08979e-16 0)
(3 5.52468e-16 0)
(3 -2.70009e-17 0)
(3 -2.38133e-17 0)
(3 1.37702e-16 0)
(3 -2.52781e-16 0)
(3 1.40416e-16 0)
(3 -2.98302e-16 0)
(3 1.50316e-16 0)
(3 3.15575e-16 0)
(3 -3.32386e-16 0)
(3 9.02577e-17 0)
(3 4.96368e-17 0)
(3 5.53956e-17 0)
(3 -2.25221e-17 0)
(3 7.20831e-18 0)
(3 4.26322e-17 0)
(3 -1.29933e-16 0)
(3 8.48186e-17 0)
(3 1.25953e-16 0)
(3 -4.5959e-16 0)
(3 1.97158e-17 0)
(3 2.17317e-16 0)
(3 1.03094e-17 0)
(3 -2.67129e-17 0)
(3 1.39191e-16 0)
(2.01336 0.0365699 0)
(3.18155 -0.191808 0)
(3.03453 -0.0173549 0)
(3.00545 -0.00277899 0)
(3.00001 -3.98399e-05 0)
(2.99999 7.97182e-07 0)
(3 -5.78742e-08 0)
(3 -3.09444e-09 0)
(3 -1.16681e-10 0)
(3 7.30585e-13 0)
(3 4.12301e-14 0)
(3 -1.38108e-15 0)
(3 2.99721e-16 0)
(3 3.55832e-17 0)
(3 1.24865e-17 0)
(3 3.04454e-16 0)
(3 -2.89572e-16 0)
(3 2.10222e-16 0)
(3 -3.43778e-16 0)
(3 2.25181e-17 0)
(3 -2.0058e-16 0)
(3 3.47054e-16 0)
(3 -1.65327e-16 0)
(3 5.95547e-16 0)
(3 -3.12319e-16 0)
(3 -1.80127e-16 0)
(3 -2.48561e-16 0)
(3 1.01537e-16 0)
(3 -9.20938e-17 0)
(3 1.73778e-16 0)
(3 1.05473e-16 0)
(3 -1.76975e-16 0)
(3 1.03835e-16 0)
(3 -1.33877e-16 0)
(3 3.61213e-16 0)
(3 2.38108e-16 0)
(3 -1.27971e-16 0)
(3 -3.30988e-16 0)
(3 6.7671e-17 0)
(3 1.84434e-16 0)
(2.01662 0.0403378 0)
(3.16777 -0.191198 0)
(3.03647 -0.0202561 0)
(3.00447 -0.00284472 0)
(3.00011 -0.00010164 0)
(2.99999 7.52704e-07 0)
(3 -1.48514e-07 0)
(3 -7.8078e-09 0)
(3 -1.98234e-10 0)
(3 -1.28944e-13 0)
(3 -1.55002e-16 0)
(3 -6.37311e-16 0)
(3 -3.57558e-17 0)
(3 -6.09664e-17 0)
(3 3.69906e-16 0)
(3 2.11262e-16 0)
(3 -6.16189e-16 0)
(3 3.65796e-16 0)
(3 -2.36909e-17 0)