/*--------------------------------*- C++ -*----------------------------------*\
  =========                 |
  \\      /  F ield         | OpenFOAM: The Open Source CFD Toolbox
   \\    /   O peration     | Website:  https://openfoam.org
    \\  /    A nd           | Version:  7
     \\/     M anipulation  |
\*---------------------------------------------------------------------------*/
FoamFile
{
    version     2.0;
    format      ascii;
    class       volScalarField;
    location    "3.3";
    object      p;
}
// * * * * * * * * * * * * * * * * * * * * * * * * * * * * * * * * * * * * * //

dimensions      [1 -1 -2 0 0 0 0];

internalField   nonuniform List<scalar> 
11200
(
0.167149
0.275264
0.388887
0.483439
0.565919
0.625858
0.667109
0.704376
0.714547
0.717537
0.735385
0.747393
0.759801
0.798167
0.801397
0.78354
0.763441
0.751874
0.752656
0.745551
0.741301
0.73085
0.723299
0.721562
0.722891
0.72628
0.73724
0.73937
0.745323
0.822056
0.0567653
0.0594396
0.074004
0.117669
0.181317
0.276205
0.392616
0.5056
0.623776
0.715463
0.805223
0.837902
0.841567
0.824943
0.783376
0.735636
0.721234
0.734728
0.752939
0.75398
0.742536
0.729823
0.72959
0.735278
0.734743
0.733004
0.732793
0.734322
0.744731
0.832339
0.0588544
0.0586688
0.0586923
0.0580475
0.0582178
0.0581265
0.0662044
0.0919295
0.152581
0.261884
0.38758
0.532219
0.634585
0.702309
0.724453
0.747419
0.752919
0.752378
0.75064
0.748329
0.739202
0.729014
0.729009
0.7321
0.732816
0.743359
0.744197
0.742462
0.751761
0.836818
0.0580776
0.0581334
0.0583164
0.0588917
0.0599421
0.0609645
0.0615542
0.0618712
0.0619916
0.0614852
0.0631858
0.0917141
0.165405
0.284039
0.452992
0.632923
0.728428
0.757559
0.750333
0.735058
0.721049
0.721258
0.738762
0.744646
0.743899
0.745063
0.741494
0.738244
0.749594
0.839241
0.0586887
0.059426
0.0601042
0.0608658
0.0617442
0.0622107
0.0621381
0.0619858
0.0617081
0.0614586
0.0608723
0.0596438
0.0591384
0.0589856
0.0743835
0.146842
0.301052
0.4743
0.605435
0.659581
0.684852
0.710535
0.746455
0.746716
0.743696
0.751348
0.750445
0.743161
0.754887
0.842469
0.0616946
0.0620063
0.0621141
0.0621007
0.0620668
0.0617439
0.0612242
0.0604842
0.0597616
0.0592976
0.0586873
0.058267
0.0581357
0.0582398
0.0581938
0.0577647
0.0568788
0.079842
0.169122
0.340306
0.5166
0.63751
0.683591
0.732728
0.74156
0.749881
0.751182
0.740962
0.755273
0.846896
0.0619615
0.0618393
0.0616323
0.061442
0.0611584
0.0603379
0.0590529
0.057867
0.0571024
0.0570906
0.0572483
0.0572662
0.0574809
0.0577547
0.0576719
0.0576714
0.0577966
0.0586168
0.0607441
0.0627186
0.110249
0.217842
0.368285
0.557388
0.654348
0.711901
0.751274
0.748575
0.765769
0.848468
0.0613665
0.0612928
0.0611904
0.0608911
0.0603648
0.0593379
0.0578859
0.0566371
0.0564246
0.0566636
0.0570973
0.0573702
0.0575564
0.0576479
0.0575491
0.057706
0.0591857
0.0625936
0.0665155
0.0703836
0.0727851
0.0746099
0.0815847
0.136607
0.29096
0.47541
0.630673
0.685417
0.753346
0.865482
0.0611135
0.061104
0.0611327
0.061077
0.0603727
0.0591645
0.0579756
0.0569235
0.0568431
0.0573253
0.0587281
0.0614142
0.0626123
0.0620377
0.0623966
0.063601
0.0654994
0.0680062
0.0703837
0.0727001
0.0764594
0.0813141
0.0878288
0.0909939
0.0909579
0.115021
0.232891
0.434303
0.592714
0.81106
0.0610451
0.0610741
0.0612603
0.0615701
0.061746
0.0621348
0.0627914
0.0628901
0.0632859
0.0644106
0.0666105
0.0702908
0.0735954
0.0757519
0.0774473
0.0796103
0.0805246
0.0800495
0.079984
0.0800706
0.0808928
0.084526
0.0913464
0.0979495
0.104917
0.107723
0.105391
0.122902
0.194264
0.619176
0.0626022
0.0630684
0.0641007
0.0657774
0.0681301
0.0703313
0.0713848
0.0717098
0.0718243
0.0724438
0.0745714
0.0790387
0.0845823
0.0874345
0.0885036
0.0900763
0.0917712
0.0935436
0.0958964
0.0987659
0.0997502
0.0990109
0.0987533
0.101919
0.110491
0.1168
0.120714
0.123895
0.123789
0.327569
0.0764881
0.0773358
0.0785049
0.0801717
0.082297
0.0846278
0.0858194
0.0857665
0.0849315
0.0847939
0.0857984
0.0898532
0.0962786
0.0981269
0.0977495
0.0981171
0.100685
0.104553
0.108495
0.11278
0.116451
0.118231
0.118242
0.117618
0.118069
0.122897
0.129799
0.133022
0.135613
0.15355
0.093349
0.0942731
0.0955628
0.0977922
0.100666
0.103524
0.105651
0.105906
0.105213
0.104913
0.106182
0.11053
0.115347
0.115465
0.113846
0.114052
0.115418
0.117727
0.120361
0.124119
0.129154
0.134247
0.137158
0.13777
0.136886
0.137683
0.139743
0.14381
0.148033
0.152109
0.11841
0.11915
0.119979
0.120721
0.121689
0.123434
0.126608
0.127445
0.127594
0.128077
0.129542
0.133163
0.137287
0.138171
0.138703
0.140428
0.142751
0.142604
0.141937
0.142218
0.144558
0.149238
0.153724
0.156899
0.158112
0.159262
0.160829
0.16237
0.163832
0.167735
0.148828
0.148595
0.14893
0.149657
0.15058
0.15201
0.155109
0.157219
0.156885
0.154122
0.15351
0.155069
0.159509
0.16319
0.163205
0.162816
0.163561
0.165196
0.167091
0.169302
0.170049
0.170008
0.171338
0.174665
0.178341
0.179605
0.181968
0.182275
0.182656
0.185216
0.188009
0.185108
0.182981
0.183348
0.184054
0.184388
0.186712
0.19054
0.19095
0.190187
0.190174
0.191497
0.192849
0.192381
0.190731
0.190569
0.191601
0.193424
0.196166
0.199622
0.201592
0.201225
0.199339
0.198773
0.200574
0.202981
0.203733
0.205196
0.206879
0.207401
0.237859
0.237907
0.233455
0.228263
0.227942
0.229128
0.231954
0.235679
0.237645
0.237535
0.234928
0.232803
0.233022
0.234164
0.235654
0.235918
0.235248
0.23369
0.231973
0.231693
0.23225
0.232676
0.232084
0.23061
0.229317
0.229453
0.230088
0.23024
0.230623
0.231465
0.299059
0.300474
0.299143
0.289427
0.284889
0.284228
0.285042
0.288956
0.291387
0.291574
0.288467
0.283092
0.281071
0.280239
0.278735
0.275985
0.274389
0.274065
0.273516
0.272386
0.269706
0.26759
0.267762
0.268858
0.26879
0.267142
0.265451
0.264245
0.262078
0.259474
0.378729
0.378535
0.377849
0.371465
0.357924
0.353679
0.355816
0.361362
0.361417
0.357236
0.350204
0.346883
0.3468
0.345541
0.340126
0.335651
0.334048
0.33268
0.329786
0.326306
0.323305
0.320142
0.316276
0.312286
0.309139
0.306065
0.30179
0.297376
0.294361
0.288763
0.47649
0.47581
0.475997
0.471998
0.452822
0.441491
0.443093
0.449177
0.448535
0.442835
0.430874
0.424844
0.424725
0.422345
0.413555
0.405289
0.402095
0.399072
0.394024
0.387121
0.380166
0.374691
0.370057
0.364995
0.358259
0.352786
0.348455
0.344041
0.341314
0.333241
0.602263
0.599625
0.597667
0.592815
0.573737
0.55436
0.551665
0.556869
0.557489
0.549207
0.530244
0.521346
0.520766
0.517337
0.505872
0.49362
0.487162
0.481479
0.473877
0.46501
0.455524
0.446092
0.438261
0.431061
0.423177
0.414968
0.407553
0.398779
0.39016
0.377033
0.760076
0.754244
0.745667
0.736925
0.716008
0.693161
0.68731
0.692128
0.69157
0.678378
0.652861
0.641652
0.640153
0.633885
0.617184
0.6014
0.591487
0.582529
0.571233
0.557297
0.544125
0.531914
0.519533
0.50711
0.495635
0.482779
0.47003
0.458457
0.446545
0.427144
0.947788
0.938146
0.925373
0.910809
0.885303
0.860694
0.852941
0.856602
0.852622
0.831166
0.79919
0.789532
0.786519
0.774607
0.749866
0.73062
0.718144
0.705043
0.688381
0.669393
0.65031
0.633553
0.616921
0.600182
0.582876
0.566604
0.550161
0.5331
0.519107
0.494198
1.16959
1.15747
1.14353
1.12183
1.08721
1.05634
1.05171
1.05486
1.04505
1.01307
0.975031
0.967455
0.961535
0.938865
0.906522
0.88522
0.868488
0.850043
0.826642
0.800453
0.775676
0.753758
0.731559
0.70806
0.685374
0.662769
0.641091
0.618039
0.597342
0.565255
1.43903
1.42638
1.41086
1.38541
1.34087
1.30454
1.30284
1.2997
1.27955
1.23364
1.19289
1.18398
1.17079
1.13528
1.09621
1.07047
1.04568
1.01784
0.988277
0.954999
0.923504
0.894083
0.864812
0.834399
0.805067
0.775726
0.746473
0.718255
0.693322
0.65235
1.68589
1.67655
1.66695
1.6523
1.62425
1.6029
1.58596
1.56567
1.54221
1.50949
1.47229
1.44656
1.4192
1.38044
1.3395
1.30182
1.26519
1.22637
1.18635
1.14458
1.10366
1.06411
1.02466
0.985854
0.947226
0.909506
0.873092
0.835941
0.804134
0.75273
1.74626
1.74452
1.74152
1.73682
1.72985
1.724
1.71854
1.71128
1.70199
1.69006
1.67321
1.6577
1.64038
1.61548
1.58638
1.55447
1.51883
1.47919
1.43484
1.38687
1.33686
1.28565
1.23412
1.18129
1.12992
1.07914
1.0295
0.981173
0.939386
0.872282
1.70028
1.70408
1.70361
1.69704
1.69301
1.69606
1.69999
1.70137
1.69973
1.69541
1.68973
1.6848
1.67909
1.66917
1.65846
1.64918
1.63834
1.62297
1.60465
1.58076
1.55192
1.51647
1.47254
1.42221
1.36537
1.3046
1.24192
1.1763
1.11866
1.02776
1.40774
1.42647
1.45404
1.47776
1.48013
1.48705
1.50731
1.52979
1.5537
1.56907
1.5799
1.59959
1.61215
1.61283
1.61454
1.62
1.62319
1.62011
1.61186
1.60231
1.59215
1.58073
1.56582
1.54652
1.52491
1.49429
1.45295
1.39989
1.34351
1.23747
1.0837
1.09458
1.10563
1.11647
1.13036
1.14476
1.15995
1.17829
1.20236
1.22855
1.25297
1.28177
1.31623
1.34678
1.37755
1.40975
1.44375
1.47269
1.4962
1.51695
1.53104
1.53976
1.54252
1.53929
1.52985
1.51737
1.50185
1.48115
1.45711
1.40088
1.00379
1.00446
1.00542
1.0065
1.00793
1.00971
1.01186
1.0146
1.01842
1.02371
1.03022
1.03801
1.04901
1.06314
1.08025
1.10143
1.12702
1.15848
1.1931
1.23241
1.27302
1.31481
1.35438
1.3905
1.4202
1.43966
1.45447
1.4524
1.44575
1.41659
1.00004
1.00005
1.00006
1.00008
1.00011
1.00014
1.00018
1.00025
1.00034
1.00049
1.00071
1.00103
1.00153
1.00233
1.00355
1.00543
1.00831
1.01276
1.01937
1.02896
1.04289
1.06134
1.08671
1.11709
1.15467
1.19555
1.23822
1.27799
1.30999
1.33657
1
1
1
1
1
1
1
1
1
1
1.00001
1.00001
1.00001
1.00002
1.00004
1.00006
1.00012
1.00021
1.00039
1.00073
1.00137
1.00253
1.00466
1.00832
1.01455
1.02442
1.03925
1.06049
1.08524
1.13219
1
1
1
1
1
1
1
1
1
1
1
1
1
1
1
1
1
1
1
1.00001
1.00001
1.00003
1.00006
1.00013
1.00028
1.00063
1.00136
1.0029
1.00543
1.01451
1
1
1
1
1
1
1
1
1
1
1
1
1
1
1
1
1
1
1
1
1
1
1
1
1
1.00001
1.00001
1.00003
1.00008
1.00036
0.0577993
0.0574835
0.0588715
0.0583755
0.0580378
0.0611429
0.0618064
0.0613641
0.0610412
0.0609536
0.0623125
0.0758638
0.0925842
0.117595
0.149183
0.187477
0.237161
0.297731
0.377616
0.477532
0.603808
0.76161
0.953872
1.18342
1.45921
1.70137
1.74793
1.68141
1.37651
1.07156
1.0031
1.00004
1
1
1
0.0576861
0.0579804
0.0590633
0.0584933
0.0584133
0.0612429
0.0611507
0.0609935
0.0603664
0.060464
0.0643358
0.0789287
0.0960507
0.121692
0.154381
0.192394
0.243621
0.307337
0.387924
0.492744
0.620028
0.780689
0.977929
1.21867
1.50891
1.73043
1.75061
1.64862
1.3256
1.05178
1.00171
1.00002
1
1
1
0.0579656
0.0583167
0.0594721
0.0590179
0.0589813
0.0612778
0.0605955
0.0600045
0.0590342
0.0596165
0.0660437
0.079712
0.097427
0.122646
0.155562
0.194291
0.245357
0.314232
0.398837
0.510658
0.652474
0.821795
1.02223
1.26754
1.56397
1.75196
1.75462
1.63052
1.28623
1.03741
1.00101
1.00001
1
1
1
0.0582405
0.0592096
0.0600358
0.0593736
0.0599823
0.0614356
0.0601558
0.0587282
0.0579416
0.059276
0.0679194
0.0799192
0.099383
0.124307
0.157249
0.199181
0.25715
0.336584
0.437511
0.559229
0.710483
0.890173
1.10312
1.35819
1.62991
1.76679
1.75819
1.61334
1.23711
1.02434
1.00054
1
1
1
1
0.0596954
0.0607563
0.0602273
0.0594848
0.0607349
0.0613033
0.0599921
0.05795
0.0571279
0.0600177
0.0713762
0.0811144
0.103801
0.130595
0.166691
0.217019
0.283338
0.362818
0.461567
0.584954
0.738267
0.924242
1.14535
1.40867
1.67017
1.77413
1.75587
1.55893
1.18079
1.01537
1.00029
1
1
1
1
0.0619266
0.0619062
0.0600055
0.0595485
0.0612913
0.0612849
0.0600175
0.0575561
0.0566104
0.0609549
0.0748932
0.0878969
0.112162
0.14335
0.183479
0.232348
0.294763
0.372435
0.472774
0.598165
0.753885
0.946946
1.17645
1.44757
1.7016
1.77878
1.73674
1.49343
1.14255
1.01027
1.00016
1
1
1
1
0.0636807
0.0624551
0.059523
0.0597786
0.061974
0.0612674
0.059942
0.057342
0.0564782
0.0619462
0.0773513
0.0949825
0.11997
0.151012
0.190634
0.237134
0.298924
0.378896
0.479946
0.610314
0.769232
0.968857
1.20974
1.49713
1.73851
1.7832
1.72116
1.45689
1.11407
1.00648
1.00009
1
1
1
1
0.0648848
0.0626716
0.0591096
0.0606824
0.0634015
0.0614179
0.0598458
0.0572796
0.0566101
0.0642001
0.0790892
0.0982891
0.122474
0.153104
0.192662
0.240138
0.301736
0.389204
0.502619
0.649067
0.832407
1.04499
1.2949
1.57649
1.77071
1.78646
1.71562
1.41678
1.08159
1.00355
1.00004
1
1
1
1
0.0654502
0.0627518
0.0593395
0.0619753
0.0647882
0.0622115
0.0598644
0.0574042
0.0575028
0.0664024
0.0794169
0.0988481
0.122572
0.152718
0.192963
0.246537
0.326712
0.431115
0.559191
0.714095
0.899575
1.11873
1.3735
1.63548
1.78595
1.78817
1.69974
1.34108
1.05332
1.00192
1.00002
1
1
1
1
0.0654923
0.0626483
0.0599614
0.0626499
0.0651768
0.0625731
0.0598452
0.0576761
0.0579303
0.0669576
0.0788017
0.0982294
0.121348
0.152839
0.202368
0.274375
0.361395
0.46312
0.588317
0.743392
0.932904
1.15719
1.41601
1.67128
1.79311
1.78597
1.63346
1.27287
1.03713
1.00111
1.00001
1
1
1
1
0.0641245
0.0616063
0.0607036
0.0628496
0.0651189
0.0624355
0.0592023
0.057751
0.0579832
0.0669453
0.0782908
0.0982833
0.12457
0.169642
0.228554
0.294173
0.374903
0.476494
0.604603
0.762738
0.957437
1.19092
1.46089
1.71132
1.79906
1.77189
1.58843
1.2307
1.02571
1.00061
1.00001
1
1
1
1
0.0616375
0.0599227
0.0610394
0.0629413
0.0638257
0.0607963
0.0568044
0.0565972
0.0581578
0.0671179
0.0819257
0.106545
0.14037
0.185844
0.238871
0.30065
0.381377
0.486486
0.62095
0.789227
0.998157
1.24745
1.5318
1.75716
1.803
1.76321
1.55823
1.18599
1.01545
1.0003
1
1
1
1
1
0.0598354
0.058786
0.0605229
0.0621301
0.0611841
0.0580053
0.0549777
0.0556148
0.0597755
0.0702175
0.0908505
0.117741
0.149177
0.189703
0.241403
0.305224
0.391495
0.515829
0.673831
0.868994
1.09566
1.35016
1.61329
1.78737
1.80556
1.7636
1.5127
1.1313
1.00856
1.00014
1
1
1
1
1
0.0591802
0.0582239
0.0587835
0.0598228
0.060046
0.0568969
0.0544421
0.0565688
0.0645743
0.0754614
0.0968474
0.122228
0.151819
0.190721
0.243247
0.323159
0.439246
0.578437
0.742226
0.934899
1.15957
1.41142
1.65997
1.80133
1.80732
1.7432
1.41892
1.09093
1.0049
1.00007
1
1
1
1
1
0.0593501
0.0578997
0.0571652
0.0589066
0.059816
0.0568059
0.0544763
0.0575503
0.0682669
0.0783631
0.0991388
0.123533
0.154576
0.194996
0.268623
0.36788
0.479451
0.611202
0.773261
0.969456
1.20043
1.4583
1.70002
1.80978
1.80601
1.68419
1.35205
1.06559
1.00278
1.00003
1
1
1
1
1
0.0599771
0.0578313
0.056293
0.0588936
0.0599758
0.0570208
0.054781
0.0572523
0.0690096
0.0792375
0.100407
0.124536
0.163372
0.225076
0.303777
0.390656
0.495654
0.628434
0.796569
1.00111
1.24687
1.5217
1.74723
1.81629
1.79412
1.6468
1.30333
1.04447
1.00144
1.00001
1
1
1
1
1
0.061445
0.0578402
0.0562197
0.0598053
0.0602017
0.0572186
0.0547934
0.0557099
0.0683886
0.0796541
0.103626
0.137948
0.185966
0.248328
0.316528
0.399375
0.50739
0.649668
0.838159
1.07465
1.34134
1.61059
1.78694
1.81987
1.78893
1.61974
1.24376
1.02662
1.00069
1.00001
1
1
1
1
1
0.0623837
0.05843
0.057736
0.0620566
0.0604627
0.0569034
0.0544523
0.0551102
0.0677199
0.0838778
0.115388
0.15361
0.196157
0.252876
0.32158
0.409534
0.543779
0.725827
0.939088
1.18177
1.43716
1.67347
1.80926
1.82208
1.79227
1.57147
1.17395
1.01497
1.00031
1
1
1
1
1
1
0.0624885
0.0593602
0.0625554
0.0649598
0.0606879
0.0562404
0.0545701
0.0567414
0.0715644
0.0937238
0.121516
0.157525
0.198646
0.252622
0.332532
0.461789
0.621101
0.800259
1.00649
1.24285
1.49272
1.71494
1.82114
1.82379
1.7694
1.47001
1.1227
1.00845
1.00014
1
1
1
1
1
1
0.0622142
0.0601866
0.0666521
0.0670633
0.0607998
0.0555178
0.0550793
0.0615407
0.0751682
0.0982711
0.123317
0.156998
0.202011
0.26314
0.3838
0.518199
0.664151
0.838946
1.04959
1.29391
1.55153
1.75746
1.82668
1.82067
1.71043
1.39818
1.08751
1.00459
1.00006
1
1
1
1
1
1
0.0603654
0.0611209
0.0679839
0.067449
0.0603713
0.054536
0.055075
0.0646517
0.0762345
0.0991133
0.127126
0.159765
0.215636
0.315545
0.427065
0.545551
0.689919
0.873101
1.10368
1.37105
1.63269
1.79482
1.82859
1.80613
1.67092
1.34107
1.05793
1.00232
1.00003
1
1
1
1
1
1
0.0580983
0.0615539
0.0674497
0.0664013
0.0586735
0.0532428
0.0551747
0.0654788
0.0775254
0.0992474
0.133318
0.186799
0.2602
0.349493
0.445815
0.564033
0.728707
0.951995
1.21412
1.48107
1.7045
1.81717
1.8297
1.79659
1.64031
1.27028
1.03435
1.00106
1.00001
1
1
1
1
1
1
0.0573203
0.0616005
0.0648019
0.064077
0.0569116
0.0529481
0.0557863
0.0657617
0.0816851
0.110341
0.152396
0.218384
0.283257
0.361233
0.461923
0.616366
0.825909
1.06389
1.31395
1.556
1.74912
1.82994
1.83256
1.79909
1.58777
1.19242
1.01885
1.00045
1
1
1
1
1
1
1
0.0578594
0.0619021
0.0627569
0.0606236
0.0559328
0.0549608
0.0599156
0.0696922
0.093908
0.129577
0.17265
0.230105
0.289625
0.368908
0.51369
0.704238
0.906357
1.13256
1.37873
1.61552
1.78584
1.83626
1.83546
1.78254
1.48406
1.13274
1.00998
1.00019
1
1
1
1
1
1
1
0.0600512
0.0623871
0.0618385
0.0585014
0.056371
0.0602024
0.0661855
0.0776871
0.103561
0.137674
0.177709
0.229477
0.29493
0.412393
0.588435
0.760507
0.956722
1.19227
1.45499
1.68728
1.815
1.83811
1.83033
1.716
1.40307
1.09038
1.00504
1.00008
1
1
1
1
1
1
1
0.0614582
0.0623411
0.0618915
0.0581817
0.057173
0.0618664
0.0686762
0.0807306
0.10663
0.138112
0.179835
0.22747
0.329058
0.486771
0.636453
0.801809
1.01901
1.29062
1.56297
1.75235
1.83074
1.83754
1.81104
1.66783
1.33599
1.0574
1.00242
1.00003
1
1
1
1
1
1
1
0.0607139
0.060082
0.0624199
0.0582073
0.0566985
0.0608496
0.0680889
0.0808512
0.107873
0.136837
0.184597
0.274491
0.405666
0.531903
0.6734
0.876314
1.1434
1.4193
1.65067
1.79255
1.83808
1.83554
1.79397
1.62744
1.25869
1.03288
1.00104
1.00001
1
1
1
1
1
1
1
0.0573747
0.057483
0.0624219
0.0563593
0.0545664
0.0574881
0.0633595
0.0802482
0.10859
0.155468
0.226172
0.339065
0.444723
0.565097
0.750278
1.00094
1.25947
1.50701
1.709
1.82012
1.84152
1.83886
1.79252
1.56612
1.17788
1.01678
1.0004
1
1
1
1
1
1
1
1
0.055992
0.0569125
0.0619071
0.0527485
0.0504201
0.0566515
0.0631304
0.088772
0.13022
0.193728
0.271974
0.365879
0.465816
0.620768
0.861421
1.09721
1.34293
1.5828
1.76256
1.83739
1.84382
1.83918
1.774
1.45215
1.11335
1.00782
1.00015
1
1
1
1
1
1
1
1
0.0562782
0.0575747
0.0616218
0.0516481
0.0483794
0.057612
0.0727431
0.11043
0.154295
0.21706
0.287792
0.376054
0.503695
0.725742
0.948263
1.17842
1.43873
1.6717
1.80495
1.84352
1.84399
1.82733
1.68546
1.35458
1.07019
1.00354
1.00005
1
1
1
1
1
1
1
1
0.0587701
0.0621437
0.061358
0.0505292
0.0477579
0.060684
0.0836684
0.122876
0.163367
0.223395
0.299556
0.405013
0.609204
0.816534
1.02898
1.2941
1.56162
1.74603
1.82757
1.84443
1.83976
1.79922
1.62036
1.27814
1.0411
1.00155
1.00002
1
1
1
1
1
1
1
1
0.0685757
0.0667585
0.0589831
0.0487141
0.0476465
0.0617154
0.0890142
0.125912
0.17007
0.227332
0.331709
0.518628
0.709103
0.89781
1.15225
1.43232
1.65907
1.79219
1.8389
1.84289
1.83272
1.77286
1.56696
1.20151
1.0213
1.00058
1.00001
1
1
1
1
1
1
1
1
0.0759923
0.0683245
0.0542576
0.0460173
0.0487714
0.0627246
0.0949264
0.127398
0.187803
0.284891
0.432619
0.609974
0.778658
1.00293
1.29257
1.54263
1.72859
1.82204
1.84433
1.84361
1.83486
1.76314
1.49045
1.12602
1.0094
1.00019
1
1
1
1
1
1
1
1
1
0.0767705
0.0678612
0.0508294
0.0443571
0.0539001
0.0719351
0.109957
0.158033
0.241197
0.358578
0.502133
0.661844
0.858994
1.14334
1.41428
1.63783
1.7835
1.83883
1.84633
1.84665
1.8376
1.73664
1.36334
1.06882
1.00358
1.00006
1
1
1
1
1
1
1
1
1
0.0746628
0.0630869
0.0480555
0.0445086
0.0654871
0.091907
0.134412
0.193567
0.280963
0.403537
0.548799
0.731061
1.00592
1.2804
1.53344
1.72648
1.81757
1.84664
1.84833
1.84717
1.81679
1.61374
1.25392
1.03629
1.00135
1.00002
1
1
1
1
1
1
1
1
1
0.0699584
0.0562086
0.0472476
0.0458355
0.0742654
0.102871
0.145114
0.216041
0.314831
0.444269
0.623905
0.890861
1.16538
1.41839
1.65221
1.78772
1.83476
1.85097
1.84882
1.84119
1.76526
1.51777
1.17656
1.0181
1.0005
1.00001
1
1
1
1
1
1
1
1
1
0.0654261
0.0525186
0.0481055
0.0518361
0.0758495
0.102691
0.14687
0.23762
0.366201
0.539544
0.786099
1.06393
1.311
1.55539
1.73915
1.82121
1.84444
1.85176
1.84529
1.82232
1.72122
1.44099
1.11118
1.00779
1.00016
1
1
1
1
1
1
1
1
1
1
0.0636682
0.0519007
0.0543662
0.0595737
0.072887
0.0984238
0.174694
0.301382
0.470115
0.691726
0.950294
1.20137
1.4524
1.6661
1.79585
1.83758
1.84912
1.85157
1.84324
1.80953
1.68122
1.3342
1.05626
1.0027
1.00004
1
1
1
1
1
1
1
1
1
1
0.0634952
0.0515019
0.0575915
0.0629962
0.0712328
0.127386
0.258337
0.404179
0.589021
0.825598
1.08306
1.34854
1.59442
1.7498
1.8298
1.84445
1.85
1.85154
1.84726
1.81162
1.59688
1.20346
1.02333
1.00077
1.00001
1
1
1
1
1
1
1
1
1
1
0.062563
0.0487519
0.0554851
0.0628642
0.0864543
0.206023
0.337372
0.494208
0.711236
0.969722
1.25326
1.52986
1.71162
1.80298
1.84636
1.84695
1.84882
1.84995
1.84436
1.76124
1.44062
1.11481
1.00923
1.00022
1
1
1
1
1
1
1
1
1
1
1
0.0609881
0.0428591
0.0443246
0.0665086
0.144673
0.270269
0.401523
0.60646
0.875876
1.17789
1.46634
1.67464
1.78594
1.82779
1.85319
1.84759
1.84712
1.84531
1.82171
1.65817
1.32608
1.06391
1.00337
1.00006
1
1
1
1
1
1
1
1
1
1
1
0.0594355
0.03779
0.0407567
0.0895409
0.205518
0.330806
0.518837
0.7996
1.10346
1.39954
1.62693
1.76719
1.82266
1.83726
1.85614
1.84713
1.84589
1.83433
1.78347
1.58357
1.23308
1.02934
1.00104
1.00001
1
1
1
1
1
1
1
1
1
1
1
0.053135
0.0335615
0.0592806
0.143066
0.267527
0.435741
0.730537
1.03532
1.33112
1.57754
1.73777
1.82138
1.83729
1.84059
1.85776
1.84633
1.84784
1.82767
1.74741
1.48782
1.12828
1.01014
1.00025
1
1
1
1
1
1
1
1
1
1
1
1
0.0307564
0.0376566
0.0956336
0.201854
0.372818
0.661043
0.973651
1.27222
1.53553
1.7177
1.81111
1.84467
1.84136
1.84161
1.85887
1.84396
1.85066
1.83535
1.70314
1.31963
1.05358
1.00279
1.00005
1
1
1
1
1
1
1
1
1
1
1
1
0.0189026
0.0396507
0.135408
0.310158
0.583267
0.92241
1.23377
1.51109
1.70254
1.80321
1.8435
1.84961
1.84239
1.84199
1.85988
1.84292
1.84928
1.81928
1.55305
1.17726
1.01989
1.00066
1.00001
1
1
1
1
1
1
1
1
1
1
1
1
0.0131812
0.0791953
0.234478
0.514255
0.877887
1.21568
1.50605
1.69745
1.79774
1.83887
1.85297
1.85044
1.83991
1.84137
1.86088
1.84576
1.82995
1.71225
1.39065
1.093
1.00652
1.00014
1
1
1
1
1
1
1
1
1
1
1
1
1
0.0152719
0.148258
0.43815
0.84203
1.2258
1.52109
1.70554
1.79917
1.83639
1.85076
1.85459
1.84931
1.83731
1.84118
1.86286
1.84806
1.8012
1.61064
1.2647
1.03927
1.00164
1.00003
1
1
1
1
1
1
1
1
1
1
1
1
1
0.0280591
0.282911
0.800173
1.25698
1.56038
1.73192
1.80785
1.83733
1.84799
1.85363
1.85426
1.84531
1.83586
1.84373
1.86445
1.84336
1.77143
1.49807
1.13404
1.01066
1.00028
1
1
1
1
1
1
1
1
1
1
1
1
1
1
0.20765
0.728816
1.29483
1.61333
1.76432
1.82242
1.84073
1.84654
1.85061
1.854
1.85227
1.84171
1.83561
1.84922
1.86451
1.82177
1.69708
1.30745
1.04353
1.00181
1.00003
1
1
1
1
1
1
1
1
1
1
1
1
1
1
0.805035
1.36641
1.69509
1.80772
1.84044
1.84674
1.84662
1.84771
1.85073
1.85315
1.85013
1.83989
1.83718
1.85248
1.85938
1.78275
1.52893
1.14325
1.01038
1.00017
1
1
1
1
1
1
1
1
1
1
1
1
1
1
1
1.84809
1.84961
1.85156
1.85295
1.85206
1.84924
1.84674
1.84643
1.84933
1.85284
1.84883
1.84062
1.83958
1.85326
1.84117
1.69614
1.35457
1.04486
0.999604
0.999958
0.999999
1
1
1
1
1
1
1
1
1
1
1
1
1
1
1.84721
1.84895
1.85156
1.85342
1.85324
1.85066
1.84549
1.84363
1.8462
1.85372
1.85454
1.84897
1.83753
1.84305
1.83812
1.68094
1.31911
1.04521
1.00142
1.00001
1
1
1
1
1
1
1
1
1
1
1
1
1
1
1
1.84621
1.84757
1.85113
1.85343
1.85344
1.85164
1.84589
1.84286
1.8442
1.85268
1.85694
1.85758
1.84059
1.83607
1.8264
1.6162
1.20023
1.01396
1.0002
1
1
1
1
1
1
1
1
1
1
1
1
1
1
1
1
1.84583
1.84601
1.84893
1.85188
1.85292
1.85186
1.8465
1.84271
1.84318
1.85087
1.85838
1.86221
1.84364
1.81913
1.79846
1.53106
1.1313
1.00694
1.00008
1
1
1
1
1
1
1
1
1
1
1
1
1
1
1
1
1.84586
1.84567
1.8471
1.84898
1.85103
1.85112
1.84767
1.84336
1.84279
1.84828
1.85819
1.86346
1.84888
1.8059
1.75993
1.43818
1.08017
1.00273
1.00002
1
1
1
1
1
1
1
1
1
1
1
1
1
1
1
1
1.84669
1.84599
1.84632
1.84679
1.84883
1.85067
1.85022
1.84603
1.84278
1.84419
1.85413
1.86295
1.8528
1.80156
1.72363
1.34117
1.0436
1.00102
1.00001
1
1
1
1
1
1
1
1
1
1
1
1
1
1
1
1
1.84996
1.84799
1.84609
1.84569
1.84703
1.85066
1.85273
1.85066
1.844
1.84082
1.84773
1.86091
1.85364
1.79699
1.66076
1.23364
1.02005
1.00034
1
1
1
1
1
1
1
1
1
1
1
1
1
1
1
1
1
1.85314
1.85076
1.84739
1.84532
1.84601
1.85003
1.85425
1.8547
1.84767
1.83939
1.84194
1.85928
1.85182
1.77595
1.55373
1.15368
1.00893
1.00011
1
1
1
1
1
1
1
1
1
1
1
1
1
1
1
1
1
1.85442
1.85255
1.84934
1.84614
1.84553
1.84885
1.85491
1.85665
1.85194
1.83846
1.83631
1.85481
1.85297
1.76228
1.46652
1.09577
1.00361
1.00003
1
1
1
1
1
1
1
1
1
1
1
1
1
1
1
1
1
1.85452
1.85317
1.85074
1.84739
1.84576
1.84745
1.85389
1.85726
1.85515
1.83918
1.83034
1.84284
1.84829
1.7353
1.36071
1.04848
1.00125
1.00001
1
1
1
1
1
1
1
1
1
1
1
1
1
1
1
1
1
1.85339
1.85305
1.85116
1.84913
1.84609
1.84597
1.85042
1.85704
1.85643
1.84456
1.82875
1.83438
1.83011
1.64671
1.25455
1.02341
1.00042
1
1
1
1
1
1
1
1
1
1
1
1
1
1
1
1
1
1
1.84894
1.8506
1.85108
1.8506
1.84698
1.84512
1.84567
1.8526
1.85639
1.85168
1.83407
1.83118
1.81997
1.57174
1.17027
1.01043
1.00013
1
1
1
1
1
1
1
1
1
1
1
1
1
1
1
1
1
1
1.84467
1.84708
1.85034
1.85168
1.84895
1.84499
1.84261
1.84593
1.85373
1.85858
1.84548
1.82511
1.79773
1.47184
1.09355
1.00369
1.00004
1
1
1
1
1
1
1
1
1
1
1
1
1
1
1
1
1
1
1.84301
1.84471
1.84912
1.85235
1.85092
1.84633
1.84146
1.84091
1.85085
1.8621
1.85323
1.80962
1.72005
1.35286
1.0486
1.00127
1.00001
1
1
1
1
1
1
1
1
1
1
1
1
1
1
1
1
1
1
1.84291
1.844
1.84819
1.8525
1.85214
1.84921
1.84105
1.83807
1.84609
1.86394
1.85626
1.79835
1.65337
1.2582
1.02351
1.00041
1
1
1
1
1
1
1
1
1
1
1
1
1
1
1
1
1
1
1
1.84474
1.84445
1.84765
1.85149
1.85318
1.85312
1.84397
1.83632
1.84002
1.8613
1.85592
1.79316
1.5737
1.15699
1.00889
1.00011
1
1
1
1
1
1
1
1
1
1
1
1
1
1
1
1
1
1
1
1.85052
1.84824
1.8477
1.85017
1.85359
1.85443
1.84774
1.83631
1.83684
1.853
1.84565
1.74609
1.45521
1.08687
1.00328
1.00003
1
1
1
1
1
1
1
1
1
1
1
1
1
1
1
1
1
1
1
1.85531
1.85144
1.84829
1.84847
1.8528
1.85472
1.8519
1.84143
1.83717
1.85204
1.84138
1.69551
1.34182
1.04434
1.00106
1.00001
1
1
1
1
1
1
1
1
1
1
1
1
1
1
1
1
1
1
1
1.85728
1.85287
1.8482
1.84621
1.85002
1.85409
1.8542
1.84831
1.83928
1.84906
1.84092
1.63877
1.22194
1.01752
1.00028
1
1
1
1
1
1
1
1
1
1
1
1
1
1
1
1
1
1
1
1
1.85763
1.85338
1.84824
1.84495
1.84489
1.85
1.85396
1.85657
1.84024
1.82828
1.80682
1.52307
1.12708
1.00643
1.00007
1
1
1
1
1
1
1
1
1
1
1
1
1
1
1
1
1
1
1
1
1.85493
1.85252
1.84817
1.84521
1.84137
1.84355
1.85263
1.86196
1.8502
1.80952
1.74611
1.41265
1.06935
1.00216
1.00002
1
1
1
1
1
1
1
1
1
1
1
1
1
1
1
1
1
1
1
1
1.84808
1.84937
1.84826
1.84594
1.83976
1.8384
1.84762
1.8631
1.85664
1.80571
1.69072
1.29065
1.02892
1.00058
1
1
1
1
1
1
1
1
1
1
1
1
1
1
1
1
1
1
1
1
1
1.84304
1.84649
1.84938
1.84828
1.83967
1.83529
1.84105
1.86093
1.85609
1.79667
1.59524
1.16933
1.01068
1.00014
1
1
1
1
1
1
1
1
1
1
1
1
1
1
1
1
1
1
1
1
1
1.84094
1.84447
1.85101
1.85244
1.84502
1.83498
1.83806
1.85508
1.84881
1.74736
1.46693
1.09448
1.00368
1.00003
1
1
1
1
1
1
1
1
1
1
1
1
1
1
1
1
1
1
1
1
1
1.84061
1.84334
1.85085
1.85436
1.85099
1.84023
1.83879
1.85487
1.84859
1.70636
1.33758
1.04123
1.00095
1.00001
1
1
1
1
1
1
1
1
1
1
1
1
1
1
1
1
1
1
1
1
1
1.84232
1.84421
1.85112
1.85516
1.85453
1.84905
1.83931
1.84528
1.8439
1.62882
1.19919
1.01447
1.00022
1
1
1
1
1
1
1
1
1
1
1
1
1
1
1
1
1
1
1
1
1
1
1.84682
1.84777
1.85078
1.85474
1.85597
1.85954
1.84182
1.82431
1.79472
1.48983
1.10912
1.00482
1.00005
1
1
1
1
1
1
1
1
1
1
1
1
1
1
1
1
1
1
1
1
1
1
1.8496
1.84978
1.84785
1.84816
1.85596
1.86531
1.85714
1.81296
1.73225
1.36659
1.04941
1.00127
1.00001
1
1
1
1
1
1
1
1
1
1
1
1
1
1
1
1
1
1
1
1
1
1
1.85085
1.85001
1.84378
1.83846
1.84709
1.86595
1.86455
1.81473
1.65123
1.21515
1.01611
1.00027
1
1
1
1
1
1
1
1
1
1
1
1
1
1
1
1
1
1
1
1
1
1
1
1.85169
1.84807
1.84072
1.83407
1.83582
1.85903
1.86312
1.78356
1.50918
1.11092
1.00502
1.00005
1
1
1
1
1
1
1
1
1
1
1
1
1
1
1
1
1
1
1
1
1
1
1
1.85015
1.84629
1.83914
1.83643
1.83073
1.85195
1.85666
1.7258
1.36632
1.04919
1.00124
1.00001
1
1
1
1
1
1
1
1
1
1
1
1
1
1
1
1
1
1
1
1
1
1
1
1.84708
1.84315
1.83989
1.83971
1.83046
1.8504
1.85888
1.65426
1.21138
1.01523
1.00024
1
1
1
1
1
1
1
1
1
1
1
1
1
1
1
1
1
1
1
1
1
1
1
1
1.84527
1.84022
1.84174
1.84796
1.83391
1.83875
1.82222
1.48922
1.09787
1.00403
1.00004
1
1
1
1
1
1
1
1
1
1
1
1
1
1
1
1
1
1
1
1
1
1
1
1
1.84521
1.83909
1.84238
1.86363
1.86534
1.82435
1.73339
1.32938
1.04013
1.00091
1.00001
1
1
1
1
1
1
1
1
1
1
1
1
1
1
1
1
1
1
1
1
1
1
1
1
1.84472
1.83773
1.83645
1.87662
1.8908
1.83041
1.61454
1.17623
1.01084
1.00016
1
1
1
1
1
1
1
1
1
1
1
1
1
1
1
1
1
1
1
1
1
1
1
1
1
1.83967
1.83574
1.83216
1.8835
1.89617
1.80868
1.4344
1.07062
1.00235
1.00002
1
1
1
1
1
1
1
1
1
1
1
1
1
1
1
1
1
1
1
1
1
1
1
1
1
1.83079
1.83725
1.83771
1.88119
1.89359
1.68045
1.25763
1.02371
1.00044
1
1
1
1
1
1
1
1
1
1
1
1
1
1
1
1
1
1
1
1
1
1
1
1
1
1
1.82393
1.8491
1.86584
1.87361
1.85759
1.53608
1.12348
1.00557
1.00006
1
1
1
1
1
1
1
1
1
1
1
1
1
1
1
1
1
1
1
1
1
1
1
1
1
1
1.81814
1.86398
1.89854
1.86802
1.77477
1.33982
1.03808
1.00095
1.00001
1
1
1
1
1
1
1
1
1
1
1
1
1
1
1
1
1
1
1
1
1
1
1
1
1
1
1.81496
1.87378
1.9115
1.85542
1.60243
1.15976
1.00929
1.00013
1
1
1
1
1
1
1
1
1
1
1
1
1
1
1
1
1
1
1
1
1
1
1
1
1
1
1
1.82142
1.8875
1.91558
1.77791
1.4021
1.05909
1.00176
1.00002
1
1
1
1
1
1
1
1
1
1
1
1
1
1
1
1
1
1
1
1
1
1
1
1
1
1
1
1.88065
1.91664
1.91732
1.65801
1.2045
1.0136
1.00022
1
1
1
1
1
1
1
1
1
1
1
1
1
1
1
1
1
1
1
1
1
1
1
1
1
1
1
1
1.95049
1.92192
1.86787
1.42701
1.06476
1.0023
1.00002
1
1
1
1
1
1
1
1
1
1
1
1
1
1
1
1
1
1
1
1
1
1
1
1
1
1
1
1
2.04482
1.8283
1.67888
1.20617
1.01622
1.0003
1
1
1
1
1
1
1
1
1
1
1
1
1
1
1
1
1
1
1
1
1
1
1
1
1
1
1
1
1
2.13632
1.74821
1.43549
1.07413
1.00291
1.00004
1
1
1
1
1
1
1
1
1
1
1
1
1
1
1
1
1
1
1
1
1
1
1
1
1
1
1
1
1
2.16672
1.61679
1.202
1.0169
1.0004
1
1
1
1
1
1
1
1
1
1
1
1
1
1
1
1
1
1
1
1
1
1
1
1
1
1
1
1
1
1
2.03236
1.40017
1.08196
1.00389
1.00006
1
1
1
1
1
1
1
1
1
1
1
1
1
1
1
1
1
1
1
1
1
1
1
1
1
1
1
1
1
1
1.81576
1.23108
1.02327
1.00058
1.00001
1
1
1
1
1
1
1
1
1
1
1
1
1
1
1
1
1
1
1
1
1
1
1
1
1
1
1
1
1
1
1.534
1.08946
1.00442
1.00006
1
1
1
1
1
1
1
1
1
1
1
1
1
1
1
1
1
1
1
1
1
1
1
1
1
1
1
1
1
1
1
1.20256
1.01804
1.00031
1
1
1
1
1
1
1
1
1
1
1
1
1
1
1
1
1
1
1
1
1
1
1
1
1
1
1
1
1
1
1
1
1
1
1
1
1
1
1
1
1
1
1
1
1
1
1
1
1
1
1
1
1
1
1
1
1
1
1
1
1
1
1
1
1
1
1
1
1
1
1
1
1
1
1
1
1
1
1
1
1
1
1
1
1
1
1
1
1
1
1
1
1
1
1
1
1
1
1
1
1
1
1
1
1
1
1
1
1
1
1
1
1
1
1
1
1
1
1
1
1
1
1
1
1
1
1
1
1
1
1
1
1
1
1
1
1
1
1
1
1
1
1
1
1
1
1
1
1
1
1
1
1
1
1
1
1
1
1
1
1
1
1
1
1
1
1
1
1
1
1
1
1
1
1
1
1
1
1
1
1
1
1
1
1
1
1
1
1
1
1
1
1
1
1
1
1
1
1
1
1
1
1
1
1
1
1
1
1
1
1
1
1
1
1
1
1
1
1
1
1
1
1
1
1
1
1
1
1
1
1
1
1
1
1
1
1
1
1
1
1
1
1