/*--------------------------------*- C++ -*----------------------------------*\
  =========                 |
  \\      /  F ield         | OpenFOAM: The Open Source CFD Toolbox
   \\    /   O peration     | Website:  https://openfoam.org
    \\  /    A nd           | Version:  7
     \\/     M anipulation  |
\*---------------------------------------------------------------------------*/
FoamFile
{
    version     2.0;
    format      ascii;
    class       volScalarField;
    location    "5.5";
    object      T;
}
// * * * * * * * * * * * * * * * * * * * * * * * * * * * * * * * * * * * * * //

dimensions      [0 0 0 1 0 0 0];

internalField   nonuniform List<scalar> 
90000
(
0.873769
0.882347
0.890188
0.897571
0.904443
0.910301
0.915214
0.920202
0.925006
0.929844
0.934944
0.940936
0.947328
0.954184
0.960985
0.967937
0.974511
0.981139
0.98734
0.993624
0.999409
1.00534
1.01073
1.01633
1.0213
1.02653
1.03101
1.0358
1.03972
1.044
1.04728
1.05094
1.05346
1.05631
1.05808
1.0598
1.06094
1.06183
1.06164
1.06128
1.06074
1.06011
1.05904
1.05726
1.05455
1.05158
1.04961
1.04776
1.04743
1.04783
1.04873
1.05001
1.05146
1.0526
1.0533
1.05325
1.05304
1.05255
1.05181
1.05102
1.05002
1.04922
1.04859
1.04886
1.04954
1.05036
1.05161
1.05154
1.05167
1.0514
1.05065
1.04947
1.04807
1.04701
1.04664
1.04679
1.04709
1.04685
1.04652
1.04589
1.0451
1.04502
1.04521
1.04501
1.04516
1.04537
1.04531
1.04518
1.04478
1.04435
1.04407
1.04374
1.04364
1.0437
1.04356
1.04339
1.04314
1.0427
1.04226
1.0417
0.865331
0.865531
0.865879
0.86638
0.867273
0.868422
0.869649
0.871127
0.872978
0.874964
0.877071
0.879377
0.882061
0.885025
0.888394
0.89206
0.896239
0.900676
0.905633
0.910734
0.916356
0.922009
0.928179
0.934253
0.940825
0.947192
0.953981
0.960454
0.967286
0.97376
0.980419
0.98674
0.993012
0.999057
1.00464
1.01044
1.01493
1.02006
1.02366
1.02752
1.02994
1.0326
1.03433
1.03676
1.04025
1.04402
1.04654
1.04792
1.04855
1.04837
1.04779
1.04685
1.04578
1.04476
1.04385
1.04377
1.04365
1.0433
1.04343
1.0439
1.04479
1.04566
1.04634
1.04704
1.04687
1.04635
1.04565
1.04455
1.04382
1.04382
1.04373
1.04416
1.04517
1.04483
1.04409
1.04315
1.04229
1.04127
1.04138
1.04228
1.04286
1.04281
1.0422
1.04147
1.04157
1.04232
1.04274
1.04241
1.04174
1.04105
1.0412
1.04146
1.04143
1.0411
1.04096
1.04107
1.04095
1.04066
1.04029
1.03971
0.862654
0.862572
0.862486
0.862416
0.862318
0.862215
0.862105
0.861993
0.861914
0.861853
0.861773
0.861671
0.861613
0.861567
0.861573
0.861601
0.861695
0.861936
0.862347
0.862904
0.863666
0.864632
0.865931
0.867514
0.869595
0.872046
0.875206
0.878752
0.883261
0.888144
0.894224
0.900533
0.908221
0.915939
0.925044
0.933969
0.944059
0.953813
0.964105
0.974166
0.983806
0.993533
1.00194
1.01084
1.0163
1.02103
1.02376
1.02642
1.02809
1.02967
1.0307
1.03158
1.03201
1.03193
1.03165
1.03162
1.0319
1.03291
1.03431
1.03614
1.03782
1.03862
1.03928
1.0391
1.03812
1.03662
1.0347
1.03347
1.03295
1.03362
1.03549
1.0374
1.03853
1.03833
1.03735
1.03577
1.03397
1.03415
1.03513
1.03628
1.03689
1.03645
1.03569
1.03531
1.03556
1.03619
1.0367
1.03661
1.03631
1.0362
1.03629
1.03642
1.03633
1.03618
1.03619
1.03632
1.03635
1.0363
1.03609
1.0357
0.858788
0.858721
0.858646
0.858566
0.858486
0.858409
0.858331
0.858251
0.85817
0.858091
0.857998
0.857881
0.857762
0.857661
0.857581
0.857499
0.857444
0.857346
0.857234
0.857125
0.857035
0.856959
0.856879
0.856802
0.856719
0.856712
0.856743
0.856828
0.857001
0.857272
0.857777
0.858508
0.859654
0.86121
0.863559
0.866478
0.87073
0.875695
0.882762
0.890351
0.900582
0.910935
0.923839
0.93607
0.948968
0.961216
0.971736
0.982362
0.989733
0.997871
1.00265
1.00813
1.01108
1.01456
1.01607
1.01861
1.02146
1.0251
1.02732
1.02916
1.03018
1.03071
1.0307
1.02991
1.02854
1.02697
1.02591
1.02566
1.02647
1.02762
1.029
1.02932
1.0292
1.02871
1.02814
1.02777
1.0279
1.02849
1.02893
1.02903
1.0291
1.0291
1.02912
1.02923
1.02933
1.0295
1.02973
1.02995
1.02991
1.03
1.03011
1.03037
1.03052
1.03049
1.03053
1.03069
1.03094
1.03108
1.03102
1.03077
0.855885
0.855848
0.85581
0.855776
0.855743
0.85571
0.855679
0.855647
0.855604
0.855549
0.855491
0.855436
0.855385
0.855339
0.855297
0.855256
0.855209
0.85515
0.855084
0.85503
0.85502
0.85501
0.854978
0.85494
0.854909
0.854896
0.854904
0.854949
0.855033
0.855176
0.85516
0.855152
0.855164
0.855209
0.855298
0.855432
0.855633
0.855913
0.856376
0.857078
0.858351
0.86024
0.863502
0.86767
0.874518
0.882476
0.894408
0.906692
0.922481
0.937328
0.953339
0.967928
0.98068
0.993174
1.00162
1.01013
1.01379
1.01692
1.01897
1.02042
1.02153
1.02147
1.02025
1.01712
1.01754
1.01856
1.02088
1.02259
1.02384
1.02355
1.02364
1.02297
1.02196
1.02151
1.02193
1.0231
1.02419
1.02473
1.02442
1.02354
1.02331
1.02359
1.02427
1.02498
1.02491
1.02447
1.02447
1.0247
1.02534
1.02564
1.02562
1.02556
1.02567
1.02583
1.026
1.02607
1.02624
1.02645
1.02665
1.02658
0.854307
0.854315
0.854314
0.85431
0.854302
0.854293
0.854277
0.854246
0.854214
0.854196
0.854189
0.854186
0.854181
0.854175
0.854173
0.854172
0.854176
0.854195
0.854213
0.854245
0.854276
0.854277
0.854282
0.854302
0.854333
0.854379
0.854461
0.854592
0.854662
0.854686
0.854731
0.854812
0.854916
0.855002
0.855075
0.855168
0.855304
0.855462
0.855594
0.855756
0.855963
0.856082
0.856156
0.856261
0.856507
0.857003
0.858088
0.859891
0.863469
0.868614
0.877585
0.888444
0.904177
0.919893
0.939169
0.955647
0.970634
0.982528
0.991326
0.998071
1.00238
1.006
1.0075
1.01159
1.01615
1.01981
1.02257
1.02328
1.02317
1.02202
1.01954
1.01759
1.01773
1.01873
1.02078
1.02298
1.02347
1.02325
1.02249
1.02168
1.02123
1.02165
1.02242
1.02314
1.02302
1.02224
1.02194
1.02213
1.02273
1.02336
1.02357
1.02328
1.0231
1.02322
1.02345
1.02364
1.02371
1.0238
1.02393
1.02397
0.853814
0.853827
0.853842
0.853854
0.853857
0.853856
0.853848
0.853839
0.853841
0.853846
0.853849
0.853853
0.853864
0.853876
0.853883
0.853892
0.853912
0.853952
0.854014
0.854085
0.854111
0.854128
0.85416
0.854208
0.85427
0.854376
0.854507
0.854591
0.854629
0.854677
0.854758
0.854863
0.85494
0.854984
0.855025
0.85509
0.855184
0.855301
0.855421
0.855556
0.855696
0.855843
0.855994
0.856106
0.856182
0.856221
0.856233
0.85626
0.856332
0.856503
0.856909
0.857792
0.859727
0.863111
0.869841
0.879094
0.894224
0.910782
0.931126
0.950232
0.969123
0.985207
0.998781
1.01186
1.01756
1.02029
1.02272
1.02285
1.02109
1.01502
1.01494
1.01608
1.01883
1.02161
1.02281
1.02297
1.02262
1.02151
1.02028
1.02058
1.02148
1.02236
1.02235
1.0222
1.02175
1.02145
1.02139
1.0217
1.02198
1.0223
1.02226
1.02226
1.02231
1.02238
1.02243
1.02251
1.02263
1.02275
1.02292
1.02293
0.853986
0.854022
0.854042
0.854052
0.854061
0.854065
0.854066
0.854071
0.854099
0.854125
0.85414
0.854171
0.854192
0.854195
0.854198
0.854205
0.854224
0.854269
0.854346
0.854388
0.854407
0.854432
0.854473
0.854539
0.854654
0.854779
0.854828
0.854844
0.854864
0.854908
0.854969
0.855036
0.855093
0.855129
0.855167
0.855217
0.855262
0.855323
0.855426
0.855567
0.8557
0.855823
0.85596
0.8561
0.856197
0.856202
0.856187
0.856171
0.856152
0.856109
0.856032
0.855975
0.855866
0.855859
0.855961
0.856408
0.857689
0.860577
0.866158
0.876091
0.890652
0.909344
0.932274
0.951927
0.972323
0.985691
0.99658
1.00383
1.00843
1.01102
1.01843
1.0216
1.02417
1.02448
1.02422
1.02202
1.01944
1.01984
1.02054
1.02235
1.024
1.02382
1.02311
1.02167
1.021
1.02117
1.02171
1.02237
1.02227
1.022
1.02178
1.02194
1.0222
1.02235
1.02226
1.02226
1.02231
1.02239
1.0225
1.02266
0.854545
0.85457
0.854584
0.854589
0.85459
0.854594
0.854615
0.854693
0.85476
0.854769
0.854777
0.854799
0.85483
0.854841
0.854848
0.854863
0.854916
0.855011
0.855041
0.85505
0.855063
0.855089
0.855134
0.855208
0.855299
0.855326
0.855315
0.855297
0.8553
0.855308
0.855327
0.855366
0.85541
0.855413
0.855414
0.855422
0.855438
0.855474
0.85555
0.855674
0.855775
0.855828
0.855876
0.855951
0.855989
0.855972
0.855945
0.855932
0.855904
0.855824
0.855729
0.855624
0.855437
0.85527
0.855134
0.854967
0.854899
0.854934
0.855108
0.855669
0.857031
0.860192
0.866516
0.877631
0.8947
0.917533
0.942448
0.964874
0.989705
1.00829
1.01906
1.02173
1.02449
1.0242
1.02112
1.01584
1.01701
1.01949
1.02292
1.02508
1.02496
1.02403
1.02217
1.02142
1.02149
1.02224
1.02297
1.0229
1.02233
1.02165
1.02173
1.02213
1.02234
1.0224
1.02236
1.02231
1.02234
1.02236
1.02243
1.02262
0.855029
0.855035
0.855045
0.855056
0.855069
0.855116
0.85525
0.855347
0.855352
0.855336
0.855331
0.85534
0.855375
0.855396
0.855405
0.85544
0.855489
0.855508
0.855516
0.855537
0.855548
0.855555
0.855578
0.855633
0.855681
0.85568
0.855649
0.855595
0.855584
0.855586
0.855592
0.855588
0.855558
0.85551
0.855476
0.855461
0.855462
0.855472
0.85551
0.855558
0.855555
0.855539
0.855536
0.855534
0.855485
0.85541
0.855391
0.855381
0.855344
0.855283
0.855226
0.85512
0.854978
0.854875
0.854741
0.854516
0.854326
0.854275
0.854286
0.854348
0.854437
0.854552
0.854749
0.855379
0.856901
0.861676
0.870084
0.887385
0.908992
0.938217
0.964128
0.981194
0.999418
1.00497
1.00971
1.01462
1.02216
1.02523
1.02549
1.02536
1.02333
1.02135
1.02137
1.02191
1.02321
1.02409
1.02393
1.02291
1.02221
1.02196
1.0222
1.02258
1.02257
1.02244
1.02246
1.02249
1.02249
1.02244
1.02246
1.02266
0.855485
0.855498
0.85552
0.855545
0.855616
0.855744
0.85578
0.855771
0.855757
0.855757
0.855763
0.855769
0.855788
0.855815
0.855861
0.855881
0.855874
0.855863
0.855865
0.855862
0.855852
0.855848
0.85586
0.855889
0.855891
0.855872
0.855817
0.855743
0.855696
0.85567
0.855649
0.85562
0.855588
0.855546
0.855507
0.855477
0.855425
0.855363
0.855329
0.85529
0.855215
0.85513
0.855049
0.854916
0.854752
0.854683
0.854671
0.854662
0.854648
0.854662
0.854659
0.854627
0.854577
0.85451
0.854384
0.854165
0.853983
0.853936
0.85394
0.85398
0.854063
0.85416
0.854203
0.854183
0.854101
0.854138
0.854481
0.85599
0.85939
0.869663
0.884318
0.9114
0.939856
0.967339
0.996849
1.01305
1.02125
1.02442
1.02443
1.02125
1.0181
1.01901
1.02158
1.02415
1.0247
1.02449
1.02339
1.02195
1.02205
1.02255
1.02299
1.02285
1.02239
1.02237
1.02255
1.02265
1.02262
1.02248
1.0225
1.0227
0.855772
0.855829
0.855851
0.855867
0.855876
0.855872
0.855863
0.855838
0.855811
0.855795
0.855775
0.855769
0.855791
0.855807
0.855805
0.855773
0.855733
0.855727
0.855723
0.85571
0.855688
0.855676
0.855674
0.85569
0.855689
0.855652
0.855623
0.85558
0.855537
0.855535
0.855518
0.855464
0.855358
0.855255
0.855184
0.855123
0.855059
0.855007
0.85496
0.854898
0.854814
0.854709
0.854551
0.854301
0.85412
0.854058
0.854046
0.854049
0.854077
0.854149
0.854217
0.854235
0.854231
0.854208
0.854112
0.853914
0.85373
0.853657
0.853661
0.853713
0.853833
0.854016
0.854184
0.854213
0.854185
0.854047
0.853903
0.853917
0.854024
0.854507
0.855765
0.860279
0.868671
0.889756
0.915095
0.947505
0.975602
0.990479
1.00533
1.00808
1.01759
1.02114
1.02482
1.02524
1.02464
1.02275
1.02162
1.02183
1.02269
1.02343
1.02328
1.02247
1.02209
1.0222
1.02247
1.02266
1.02253
1.02241
1.02257
1.02279
0.855864
0.855863
0.855856
0.855841
0.855808
0.855761
0.855713
0.855668
0.855628
0.855593
0.855563
0.855535
0.855533
0.855578
0.855664
0.855712
0.855704
0.855691
0.855692
0.855691
0.855658
0.855589
0.855568
0.855548
0.855495
0.85544
0.855426
0.855441
0.855428
0.855325
0.855071
0.854872
0.854854
0.854853
0.854838
0.85479
0.854753
0.854719
0.854668
0.854598
0.85451
0.854389
0.854199
0.853948
0.853773
0.853722
0.853711
0.853713
0.853746
0.853825
0.853917
0.853985
0.854014
0.85402
0.854004
0.853927
0.853774
0.853618
0.853592
0.853622
0.85372
0.853884
0.85405
0.854111
0.854102
0.854054
0.853979
0.853965
0.853989
0.854031
0.854088
0.854207
0.85454
0.856217
0.860557
0.874981
0.89625
0.929976
0.963346
0.990678
1.01481
1.01938
1.02395
1.02305
1.01875
1.01878
1.02018
1.02273
1.02386
1.02364
1.02255
1.02177
1.02189
1.02234
1.0225
1.02233
1.02212
1.02226
1.02266
1.02274
0.85592
0.855896
0.855864
0.855831
0.855785
0.855724
0.855672
0.855633
0.855606
0.855564
0.855515
0.855475
0.855388
0.855252
0.855199
0.855174
0.855144
0.855098
0.855053
0.854999
0.854893
0.854805
0.854753
0.854706
0.854651
0.854614
0.854604
0.854592
0.854551
0.854428
0.854358
0.854357
0.85438
0.854433
0.854463
0.854493
0.854522
0.854519
0.854494
0.854436
0.854346
0.854211
0.854011
0.853771
0.853594
0.853538
0.853533
0.85354
0.85358
0.853673
0.853779
0.85385
0.853931
0.854074
0.854145
0.854142
0.854082
0.853933
0.853838
0.853828
0.85383
0.853848
0.853913
0.853971
0.853972
0.85395
0.853892
0.853837
0.853832
0.85384
0.853842
0.853821
0.853778
0.853703
0.853777
0.854427
0.856837
0.865986
0.882824
0.915401
0.948682
0.974152
1.0009
1.00426
1.01222
1.01719
1.0232
1.02418
1.0236
1.02196
1.02119
1.02149
1.02254
1.02252
1.02209
1.02161
1.02175
1.02241
1.0226
1.02247
0.855136
0.855084
0.855068
0.855054
0.855033
0.854998
0.854943
0.854873
0.854771
0.854657
0.854638
0.854645
0.854642
0.854624
0.854552
0.854487
0.854447
0.854412
0.854367
0.854301
0.854238
0.854183
0.854088
0.85397
0.853944
0.853941
0.853928
0.8539
0.85388
0.853877
0.85388
0.853891
0.853924
0.853998
0.854129
0.854288
0.854443
0.854527
0.854539
0.854534
0.854496
0.854391
0.854222
0.854017
0.853808
0.853665
0.853643
0.853657
0.853684
0.853733
0.853815
0.853901
0.853986
0.854125
0.854293
0.854329
0.854328
0.854283
0.854198
0.854104
0.854008
0.853932
0.853897
0.853904
0.853898
0.853868
0.853809
0.853744
0.853719
0.853703
0.853677
0.853644
0.853603
0.853582
0.853577
0.853592
0.853648
0.853965
0.855211
0.861362
0.873615
0.904099
0.93893
0.972353
1.00744
1.01541
1.02236
1.02198
1.01811
1.01831
1.02012
1.0227
1.023
1.02242
1.02091
1.02104
1.02191
1.02259
1.02235
1.02187
0.854467
0.854454
0.854441
0.854439
0.854448
0.854492
0.854524
0.854522
0.854454
0.854267
0.854091
0.854067
0.854071
0.854066
0.854037
0.85398
0.853926
0.853879
0.853834
0.853791
0.853751
0.853704
0.853621
0.853491
0.853415
0.853392
0.853373
0.853354
0.853353
0.853364
0.853408
0.853483
0.85357
0.853674
0.853813
0.853972
0.85409
0.854176
0.854263
0.854322
0.854314
0.854259
0.854162
0.854039
0.853877
0.853714
0.853686
0.85373
0.853778
0.85377
0.853759
0.853771
0.853825
0.853985
0.854281
0.8544
0.85439
0.854374
0.854345
0.854258
0.854096
0.854044
0.854025
0.853992
0.853939
0.853873
0.853789
0.853723
0.853697
0.853674
0.853635
0.85358
0.853525
0.853529
0.853557
0.853603
0.853639
0.853616
0.853563
0.85363
0.854237
0.858145
0.867814
0.896871
0.931018
0.963583
0.996768
1.00156
1.01016
1.01643
1.02328
1.02365
1.02251
1.02016
1.02035
1.02175
1.02241
1.02224
1.02132
1.02131
0.854252
0.854251
0.854253
0.854261
0.85427
0.854282
0.854303
0.854314
0.854294
0.854146
0.853932
0.853899
0.853905
0.853903
0.853866
0.853791
0.85374
0.853726
0.853715
0.853696
0.853668
0.853636
0.853598
0.853515
0.85341
0.853336
0.853284
0.853277
0.853288
0.853323
0.853408
0.853576
0.853709
0.853748
0.853765
0.853786
0.853835
0.853911
0.854005
0.854108
0.85412
0.854059
0.853962
0.853883
0.853795
0.853713
0.853747
0.853884
0.853889
0.853876
0.853771
0.853716
0.85372
0.85377
0.853951
0.854306
0.854365
0.854345
0.854325
0.854282
0.854057
0.853937
0.853941
0.85395
0.853929
0.853876
0.853793
0.853729
0.853694
0.853662
0.853636
0.853579
0.853535
0.853556
0.853608
0.8536
0.853563
0.853501
0.853409
0.853274
0.853049
0.852988
0.853312
0.856381
0.864911
0.892326
0.927367
0.965635
1.00453
1.01444
1.02201
1.02128
1.01563
1.01729
1.02094
1.02308
1.02261
1.0208
1.02036
1.02104
0.854186
0.854187
0.854186
0.854184
0.854166
0.854155
0.854161
0.85419
0.854204
0.8542
0.854157
0.85408
0.854067
0.854063
0.854012
0.853952
0.853935
0.853919
0.853908
0.853912
0.853917
0.853907
0.853846
0.853723
0.853599
0.853518
0.853486
0.853469
0.853444
0.853413
0.853422
0.853539
0.85374
0.853756
0.853747
0.85374
0.853741
0.85375
0.853772
0.853861
0.853858
0.853722
0.853618
0.853569
0.853571
0.8536
0.853774
0.853996
0.853993
0.853985
0.853878
0.853663
0.853629
0.853609
0.853619
0.853899
0.854112
0.854098
0.854096
0.854055
0.853815
0.853635
0.853623
0.853654
0.853639
0.853564
0.853449
0.853424
0.853458
0.853544
0.85359
0.853584
0.853587
0.853626
0.853657
0.853622
0.853529
0.85342
0.853256
0.853044
0.852837
0.852749
0.852685
0.85273
0.853065
0.855711
0.863807
0.891556
0.926759
0.963246
0.994143
1.00229
1.00871
1.02035
1.02286
1.02256
1.01999
1.01931
1.02002
1.02166
0.853999
0.854013
0.854014
0.854014
0.854007
0.853962
0.853955
0.853962
0.853961
0.853963
0.853978
0.85398
0.85396
0.853955
0.853968
0.85397
0.853975
0.853978
0.853985
0.854029
0.854071
0.85405
0.853908
0.853763
0.853732
0.85373
0.853693
0.853599
0.853533
0.853483
0.853425
0.853442
0.853567
0.853632
0.85364
0.853638
0.85359
0.853486
0.853469
0.853471
0.853456
0.853396
0.853329
0.853325
0.853358
0.853473
0.853793
0.854033
0.854061
0.854064
0.853962
0.853646
0.853547
0.853511
0.853492
0.853612
0.853848
0.853858
0.853811
0.853695
0.853449
0.853268
0.853247
0.853341
0.853436
0.853405
0.853309
0.853305
0.853368
0.853492
0.853539
0.853537
0.853552
0.853551
0.853523
0.853451
0.853359
0.853255
0.853115
0.852946
0.852794
0.852655
0.852669
0.852726
0.852786
0.852866
0.853189
0.855701
0.864142
0.89157
0.927789
0.970475
1.00506
1.01804
1.02132
1.01661
1.01496
1.01791
1.0218
1.02175
0.853332
0.853364
0.853367
0.853361
0.853326
0.853277
0.853234
0.853222
0.85324
0.853301
0.853441
0.853577
0.853583
0.853577
0.853581
0.853624
0.853671
0.853668
0.853669
0.853719
0.853732
0.853663
0.853436
0.853329
0.853339
0.853402
0.853403
0.853368
0.853382
0.853469
0.853467
0.853472
0.853488
0.853472
0.853492
0.85354
0.853541
0.853407
0.853067
0.852903
0.852848
0.852867
0.852916
0.852948
0.853036
0.853333
0.853799
0.85392
0.853956
0.853956
0.85385
0.853475
0.853239
0.853141
0.853117
0.853243
0.853378
0.853389
0.853315
0.853149
0.852949
0.852852
0.852868
0.853034
0.853367
0.853464
0.853409
0.853373
0.853384
0.853429
0.853442
0.853435
0.853422
0.853377
0.853211
0.852894
0.852753
0.852661
0.852628
0.852611
0.852624
0.852675
0.852763
0.852869
0.852908
0.852886
0.852829
0.852758
0.852972
0.855268
0.865311
0.893289
0.935277
0.971745
0.994066
1.00428
1.01369
1.02273
1.0227
1.02036
0.852453
0.852435
0.852445
0.852455
0.852401
0.852331
0.852335
0.852531
0.853004
0.853136
0.853102
0.853073
0.85313
0.853125
0.853019
0.852975
0.852979
0.853015
0.853066
0.85306
0.852961
0.852648
0.852513
0.852503
0.852551
0.852787
0.852879
0.852844
0.852853
0.853085
0.853445
0.853553
0.853598
0.853687
0.853773
0.8538
0.853795
0.853687
0.853355
0.852987
0.852669
0.852439
0.852355
0.85236
0.85249
0.852968
0.853267
0.853375
0.853423
0.853506
0.853529
0.853298
0.852842
0.852594
0.852585
0.852728
0.85296
0.853108
0.853113
0.853011
0.852767
0.852554
0.852571
0.852796
0.853224
0.853471
0.853464
0.853405
0.853366
0.853327
0.853275
0.853201
0.853126
0.853006
0.852705
0.852402
0.85236
0.85238
0.852445
0.852535
0.852653
0.852781
0.852873
0.852929
0.852924
0.852887
0.852769
0.852515
0.852224
0.85223
0.852674
0.855657
0.869198
0.89899
0.941012
0.990588
1.01193
1.02169
1.01953
1.01534
0.851221
0.851202
0.851201
0.851204
0.85115
0.851045
0.851079
0.851484
0.851835
0.851832
0.851842
0.851975
0.852099
0.852091
0.852025
0.851996
0.851999
0.85196
0.851779
0.851463
0.85126
0.851221
0.851185
0.851126
0.851123
0.851111
0.850905
0.850762
0.8508
0.85099
0.851309
0.85164
0.852044
0.852551
0.852876
0.852871
0.852794
0.852708
0.852562
0.852423
0.852195
0.851554
0.851073
0.851094
0.85145
0.851811
0.851869
0.851821
0.851803
0.851869
0.852191
0.852356
0.85225
0.852022
0.851973
0.852125
0.852519
0.852949
0.853144
0.853126
0.85296
0.852601
0.852459
0.852636
0.85304
0.853296
0.853302
0.85326
0.853211
0.853104
0.852782
0.852459
0.852328
0.852252
0.852214
0.852202
0.852245
0.852374
0.852521
0.852664
0.852781
0.852849
0.852855
0.852847
0.852774
0.852621
0.852362
0.852138
0.852069
0.852078
0.852207
0.852413
0.853235
0.856886
0.874056
0.907932
0.951754
0.98675
0.999344
1.01289
0.849063
0.849025
0.849007
0.848997
0.849009
0.849094
0.849132
0.849096
0.84889
0.848813
0.848986
0.849575
0.849784
0.849784
0.8498
0.849841
0.849865
0.849784
0.849733
0.849724
0.849665
0.849517
0.849318
0.84914
0.848943
0.848468
0.847537
0.847065
0.847072
0.847157
0.847244
0.847382
0.847671
0.848066
0.848436
0.848683
0.84896
0.849732
0.850494
0.85053
0.850424
0.849809
0.849215
0.849218
0.849591
0.850283
0.850561
0.850586
0.850656
0.850877
0.851304
0.851305
0.851262
0.85121
0.851183
0.851249
0.851605
0.852321
0.852834
0.852865
0.852785
0.852512
0.852119
0.851966
0.851986
0.852193
0.852477
0.85254
0.852472
0.852117
0.851591
0.851457
0.851508
0.85168
0.851966
0.852207
0.852398
0.852536
0.852616
0.852724
0.852795
0.852772
0.852675
0.852474
0.852244
0.852027
0.851931
0.851996
0.85212
0.852256
0.852469
0.852686
0.852714
0.852792
0.853708
0.859105
0.881277
0.919154
0.9685
1.01188
0.845134
0.845122
0.84513
0.845305
0.845495
0.845522
0.845519
0.84542
0.845317
0.845351
0.845576
0.846087
0.846802
0.847664
0.848053
0.848163
0.848235
0.848286
0.848337
0.848485
0.84871
0.84876
0.848771
0.848802
0.848657
0.848073
0.84758
0.846874
0.845434
0.84479
0.844758
0.844799
0.844921
0.845048
0.845198
0.845424
0.845809
0.846723
0.848326
0.848918
0.848905
0.848556
0.848152
0.848156
0.848439
0.849049
0.849242
0.849108
0.848825
0.848865
0.849294
0.849637
0.84963
0.849531
0.849254
0.848961
0.848932
0.849109
0.849851
0.850627
0.850697
0.850545
0.850023
0.849548
0.84947
0.849539
0.849898
0.85045
0.850659
0.850683
0.850755
0.850914
0.851165
0.851535
0.851885
0.852161
0.852368
0.852483
0.85254
0.852625
0.852622
0.852398
0.851934
0.851554
0.851495
0.851568
0.851731
0.852108
0.852362
0.852513
0.852542
0.852618
0.85263
0.852546
0.852255
0.852346
0.853874
0.863724
0.888359
0.957265
0.845617
0.845634
0.845686
0.845999
0.846401
0.84651
0.84649
0.84647
0.84649
0.846584
0.846817
0.847214
0.847686
0.848075
0.8483
0.848444
0.848659
0.84912
0.849668
0.84994
0.850139
0.850576
0.85089
0.850874
0.850564
0.850394
0.850768
0.851109
0.850903
0.849735
0.848536
0.848374
0.848338
0.848113
0.847447
0.846883
0.84687
0.847221
0.848279
0.849736
0.85031
0.850246
0.850003
0.850021
0.850337
0.850722
0.850647
0.850168
0.84948
0.849257
0.849406
0.849773
0.849869
0.849802
0.84942
0.84833
0.847081
0.846919
0.847046
0.847733
0.848413
0.848474
0.848306
0.847714
0.847464
0.847573
0.847969
0.848491
0.848928
0.849226
0.84957
0.850028
0.850402
0.850669
0.850939
0.851432
0.851811
0.85179
0.85167
0.851541
0.851312
0.850915
0.850812
0.850869
0.851116
0.851526
0.851992
0.852346
0.852504
0.852548
0.852555
0.852503
0.852309
0.852033
0.851907
0.851959
0.852108
0.852746
0.855384
0.891079
0.85374
0.853127
0.852105
0.851927
0.851946
0.852193
0.852287
0.852146
0.851996
0.851992
0.85206
0.852159
0.852155
0.852123
0.852132
0.85229
0.852722
0.853275
0.853796
0.85388
0.853736
0.853657
0.853873
0.854081
0.854108
0.854459
0.855811
0.856449
0.85643
0.855975
0.855167
0.854972
0.8548
0.854016
0.852032
0.850287
0.849971
0.84997
0.849865
0.84962
0.849788
0.850306
0.850495
0.850484
0.850705
0.850719
0.850499
0.849649
0.848299
0.847852
0.847876
0.848156
0.848924
0.849336
0.849322
0.848712
0.847024
0.846164
0.846099
0.846367
0.847471
0.848169
0.848201
0.84805
0.847759
0.847677
0.847778
0.848066
0.84826
0.848437
0.848825
0.849204
0.849163
0.848962
0.84882
0.848913
0.849141
0.849167
0.849275
0.84941
0.849392
0.849451
0.849679
0.850121
0.850726
0.851449
0.851958
0.852213
0.852395
0.852347
0.852131
0.851786
0.851492
0.851534
0.851694
0.851926
0.852246
0.852428
0.852543
0.857972
0.865752
0.864851
0.864541
0.86452
0.864517
0.864758
0.86532
0.865362
0.864734
0.863025
0.861307
0.86005
0.859597
0.85968
0.859676
0.85965
0.858985
0.858006
0.858219
0.859699
0.860044
0.859109
0.856659
0.856175
0.856553
0.858181
0.858876
0.858694
0.858294
0.858319
0.859057
0.859681
0.85955
0.857998
0.855871
0.855785
0.856268
0.856227
0.85518
0.853413
0.853106
0.853478
0.854455
0.854929
0.854677
0.853634
0.852257
0.850853
0.849478
0.849154
0.849262
0.849713
0.850701
0.852122
0.853338
0.853553
0.853075
0.851638
0.849836
0.849112
0.849295
0.850113
0.851131
0.851528
0.8517
0.85177
0.851669
0.851055
0.850076
0.849873
0.850033
0.850134
0.849755
0.848842
0.848304
0.848308
0.848365
0.848439
0.848493
0.848444
0.848269
0.848302
0.848507
0.84894
0.849457
0.850253
0.850938
0.850941
0.850709
0.85049
0.850507
0.850588
0.850887
0.851399
0.851784
0.852
0.852239
0.852338
0.85213
0.852414
0.883498
0.883947
0.884501
0.884566
0.884627
0.884911
0.885016
0.884691
0.884198
0.883456
0.881559
0.880017
0.879724
0.879734
0.879977
0.880162
0.880035
0.879454
0.879411
0.87998
0.880065
0.878878
0.876181
0.875748
0.876052
0.876809
0.876929
0.876341
0.876053
0.876081
0.875829
0.874836
0.874477
0.87446
0.874413
0.873476
0.871061
0.870426
0.870312
0.869584
0.869169
0.869363
0.86993
0.870394
0.870382
0.86954
0.86763
0.866304
0.865333
0.864151
0.863629
0.863209
0.862629
0.861939
0.861842
0.861971
0.86206
0.861557
0.859842
0.858175
0.857201
0.856487
0.855644
0.854605
0.854111
0.853865
0.853534
0.852848
0.851472
0.850376
0.850051
0.849811
0.849435
0.848708
0.848263
0.848282
0.848366
0.848479
0.848649
0.848788
0.849027
0.849462
0.850002
0.850243
0.850199
0.849905
0.849583
0.849104
0.84869
0.848741
0.84889
0.849125
0.849715
0.850455
0.851157
0.851808
0.851719
0.851481
0.851298
0.851568
0.90363
0.903128
0.902514
0.901979
0.901387
0.900659
0.900413
0.900408
0.900755
0.901044
0.900649
0.899016
0.897795
0.897671
0.897772
0.897739
0.896876
0.895826
0.895413
0.895378
0.895718
0.896041
0.895902
0.894493
0.892851
0.89289
0.893379
0.893402
0.893559
0.894103
0.89423
0.893937
0.893274
0.892638
0.892011
0.890803
0.888255
0.886639
0.886521
0.886099
0.884282
0.882982
0.882147
0.881284
0.881239
0.881476
0.881001
0.880063
0.880013
0.880067
0.879878
0.878884
0.8765
0.872853
0.870015
0.869583
0.869639
0.869019
0.867525
0.867327
0.867438
0.867252
0.865965
0.862918
0.859268
0.858194
0.858371
0.858869
0.858669
0.85732
0.85534
0.854698
0.854712
0.854703
0.85443
0.853745
0.853114
0.853112
0.853362
0.853298
0.852934
0.852443
0.852066
0.851417
0.85076
0.849768
0.849257
0.848885
0.848643
0.848738
0.84915
0.849756
0.850478
0.850701
0.850493
0.850035
0.849937
0.850025
0.850441
0.851373
0.925186
0.925167
0.924879
0.92419
0.923571
0.923468
0.923639
0.924014
0.923979
0.923222
0.922179
0.922117
0.922561
0.922643
0.92234
0.92154
0.920111
0.919296
0.919046
0.918993
0.919159
0.919456
0.91932
0.917622
0.916173
0.916134
0.915979
0.915081
0.914158
0.913885
0.913645
0.912984
0.911735
0.91104
0.910997
0.910916
0.910145
0.908968
0.908867
0.908953
0.908574
0.907302
0.905501
0.903728
0.903285
0.903189
0.902624
0.900517
0.898092
0.897584
0.897708
0.897623
0.896692
0.89483
0.893169
0.892481
0.891728
0.889645
0.886752
0.885864
0.885699
0.885556
0.885107
0.88377
0.880689
0.877671
0.876272
0.875785
0.875215
0.87352
0.870677
0.868363
0.866881
0.865583
0.863888
0.862054
0.860161
0.858733
0.857368
0.856162
0.855033
0.853525
0.851928
0.851325
0.850847
0.85041
0.849817
0.849894
0.850402
0.851228
0.851525
0.851425
0.851014
0.850458
0.849583
0.849012
0.849025
0.849138
0.849665
0.85066
0.945939
0.946136
0.946184
0.946169
0.945687
0.944924
0.944859
0.945085
0.945164
0.944846
0.9439
0.943498
0.943418
0.942989
0.942187
0.942134
0.942145
0.941678
0.94043
0.939513
0.939168
0.938987
0.938926
0.938947
0.938921
0.938422
0.936857
0.93584
0.935598
0.9356
0.935582
0.935344
0.934599
0.933164
0.932158
0.931757
0.931234
0.930276
0.928846
0.927394
0.926583
0.925998
0.925161
0.923429
0.922244
0.922309
0.922383
0.921879
0.920166
0.918335
0.916506
0.913828
0.912335
0.911623
0.910742
0.909658
0.908853
0.90751
0.906038
0.904527
0.901285
0.898354
0.897717
0.89719
0.89622
0.894624
0.892163
0.888693
0.886203
0.885166
0.883843
0.881638
0.879676
0.8778
0.875497
0.873191
0.87123
0.869355
0.867536
0.865429
0.863971
0.862633
0.860743
0.85994
0.859169
0.858715
0.858256
0.857459
0.856473
0.855309
0.854035
0.852725
0.850931
0.850057
0.849484
0.849029
0.849298
0.85009
0.851136
0.850856
0.967952
0.967835
0.96784
0.968165
0.968592
0.968616
0.968296
0.967388
0.967201
0.96719
0.966849
0.965741
0.964714
0.964599
0.964599
0.964302
0.964101
0.964094
0.963826
0.962719
0.96142
0.960746
0.960402
0.960365
0.960469
0.960334
0.959424
0.958316
0.956962
0.955976
0.955959
0.956063
0.955819
0.954803
0.953004
0.951976
0.95174
0.951551
0.950944
0.949194
0.94839
0.948213
0.947685
0.946439
0.944895
0.942635
0.941337
0.941096
0.940642
0.939503
0.937576
0.935774
0.93468
0.933943
0.932888
0.931036
0.928796
0.926923
0.925869
0.924853
0.923205
0.921526
0.919567
0.916549
0.915219
0.914665
0.914095
0.912357
0.908298
0.905433
0.904242
0.902907
0.900777
0.898459
0.896188
0.893688
0.891359
0.888776
0.886368
0.883618
0.880319
0.877814
0.875048
0.87186
0.869154
0.866575
0.86432
0.861724
0.859341
0.857241
0.855248
0.85347
0.852461
0.852097
0.852719
0.853327
0.853418
0.853178
0.852563
0.850619
0.991938
0.991747
0.991486
0.99072
0.990297
0.990085
0.98998
0.990129
0.990596
0.990627
0.989882
0.989404
0.989262
0.988483
0.987285
0.986508
0.986318
0.98644
0.986391
0.985471
0.984708
0.984505
0.984092
0.983445
0.982925
0.982537
0.982196
0.981538
0.980533
0.979394
0.978111
0.977817
0.977751
0.977496
0.976677
0.975351
0.974133
0.973313
0.972699
0.971699
0.970283
0.969294
0.968538
0.967865
0.966655
0.964854
0.963559
0.962879
0.96211
0.961058
0.9594
0.956577
0.954828
0.954043
0.953274
0.951938
0.95007
0.948105
0.94641
0.944571
0.941677
0.93978
0.938405
0.93668
0.935186
0.93304
0.930388
0.928242
0.926181
0.923678
0.920978
0.918569
0.916047
0.913356
0.910854
0.908244
0.905701
0.903194
0.900293
0.897346
0.894343
0.891386
0.888881
0.88643
0.883499
0.880321
0.877215
0.874684
0.87213
0.870565
0.869046
0.866853
0.865357
0.863692
0.862186
0.859972
0.857542
0.854929
0.852546
0.850691
1.01591
1.01578
1.01575
1.01546
1.01441
1.01359
1.01348
1.01367
1.01407
1.01404
1.01367
1.01307
1.01182
1.01118
1.01127
1.01124
1.01077
1.01012
1.00901
1.00815
1.00817
1.00819
1.00779
1.00647
1.00522
1.00499
1.00487
1.00456
1.00361
1.00238
1.00154
1.00096
1.00023
0.999331
0.998581
0.997934
0.997157
0.996041
0.994868
0.99397
0.992928
0.991511
0.990452
0.989716
0.988867
0.987315
0.98513
0.983774
0.982936
0.982008
0.980726
0.978897
0.976805
0.975274
0.974099
0.972595
0.970648
0.968644
0.966859
0.965271
0.963254
0.960894
0.958615
0.956243
0.954697
0.953201
0.951413
0.948468
0.945394
0.943266
0.941491