/*--------------------------------*- C++ -*----------------------------------*\
  =========                 |
  \\      /  F ield         | OpenFOAM: The Open Source CFD Toolbox
   \\    /   O peration     | Website:  https://openfoam.org
    \\  /    A nd           | Version:  7
     \\/     M anipulation  |
\*---------------------------------------------------------------------------*/
FoamFile
{
    version     2.0;
    format      ascii;
    class       volScalarField;
    location    "6";
    object      rho;
}
// * * * * * * * * * * * * * * * * * * * * * * * * * * * * * * * * * * * * * //

dimensions      [1 -3 0 0 0 0 0];

internalField   nonuniform List<scalar> 
90000
(
1.04788
1.05098
1.05454
1.05863
1.06286
1.06734
1.07179
1.07656
1.08121
1.08618
1.09091
1.0959
1.10065
1.10554
1.11019
1.11505
1.1195
1.12431
1.12876
1.13431
1.14082
1.14982
1.16002
1.17221
1.18446
1.19762
1.21
1.22293
1.2343
1.24681
1.25694
1.26835
1.27705
1.28664
1.29406
1.30091
1.30662
1.31056
1.31381
1.31514
1.31673
1.3184
1.32167
1.32221
1.3195
1.30966
1.29787
1.28772
1.2803
1.27677
1.27743
1.28069
1.28574
1.29132
1.2973
1.30244
1.30555
1.30787
1.31019
1.31058
1.30926
1.30632
1.30154
1.29564
1.29276
1.29259
1.2943
1.29954
1.30212
1.30562
1.30835
1.309
1.30701
1.30313
1.29908
1.29713
1.29811
1.30061
1.30443
1.30561
1.3054
1.30365
1.30287
1.30327
1.30537
1.30953
1.30952
1.30938
1.3075
1.30712
1.30753
1.30868
1.30862
1.30778
1.30767
1.30837
1.31028
1.31041
1.3101
1.30942
1.04665
1.04695
1.04748
1.04826
1.04926
1.05068
1.05247
1.05465
1.05718
1.06009
1.0633
1.06685
1.07079
1.07506
1.07958
1.08447
1.0894
1.09461
1.10012
1.10584
1.11136
1.11731
1.12361
1.13096
1.13873
1.14768
1.15716
1.16769
1.17863
1.19007
1.20255
1.21465
1.22751
1.23999
1.25244
1.26485
1.27624
1.28662
1.2977
1.30513
1.31324
1.31854
1.32279
1.32425
1.32444
1.32551
1.32785
1.32927
1.32778
1.32247
1.31534
1.30815
1.30337
1.30068
1.30116
1.30278
1.30535
1.30781
1.31156
1.31596
1.3193
1.32212
1.32141
1.31868
1.31388
1.30916
1.30699
1.30479
1.30615
1.30967
1.3128
1.31523
1.31742
1.31599
1.31349
1.3096
1.30709
1.30671
1.30778
1.3107
1.31402
1.31394
1.31243
1.31063
1.31116
1.31348
1.31645
1.31705
1.31628
1.31458
1.31409
1.31468
1.31498
1.31466
1.31422
1.31437
1.31515
1.31644
1.31647
1.31565
1.05038
1.05038
1.0504
1.0504
1.05046
1.05045
1.05047
1.05053
1.05067
1.05093
1.05117
1.0514
1.0517
1.05216
1.0528
1.0536
1.05448
1.05574
1.05737
1.05941
1.06181
1.06451
1.06745
1.07078
1.07443
1.07861
1.08335
1.08879
1.09524
1.10211
1.11077
1.11983
1.13105
1.14267
1.15634
1.17074
1.18665
1.20372
1.22096
1.23869
1.25734
1.27379
1.28908
1.30292
1.31276
1.32447
1.32876
1.33115
1.33265
1.33281
1.3342
1.33576
1.33706
1.33586
1.33307
1.32884
1.32507
1.3221
1.32226
1.32336
1.32505
1.32719
1.32902
1.331
1.33086
1.32983
1.32674
1.32194
1.31789
1.31666
1.31802
1.32037
1.32369
1.32764
1.33034
1.32838
1.32327
1.31832
1.31766
1.31901
1.32186
1.32524
1.32523
1.32362
1.32194
1.32249
1.32461
1.32649
1.32628
1.32452
1.32288
1.32299
1.32335
1.32344
1.32301
1.32269
1.32311
1.32414
1.324
1.32326
1.05459
1.05459
1.0546
1.05459
1.05454
1.05446
1.05439
1.05436
1.05435
1.05438
1.05446
1.05454
1.05458
1.05462
1.05473
1.05491
1.05522
1.05527
1.05536
1.05551
1.05573
1.05599
1.05631
1.0567
1.05715
1.05769
1.05837
1.05921
1.06029
1.06156
1.0637
1.06645
1.07003
1.07429
1.07968
1.08628
1.09449
1.10489
1.11635
1.13174
1.14736
1.16715
1.18786
1.21008
1.23319
1.25767
1.27744
1.29713
1.31081
1.32245
1.3331
1.33561
1.33794
1.33786
1.33813
1.3379
1.33696
1.33694
1.33636
1.33484
1.33428
1.33461
1.33544
1.33741
1.33863
1.33957
1.33904
1.3363
1.3312
1.32764
1.32592
1.3265
1.32825
1.331
1.33411
1.33627
1.33723
1.33527
1.33176
1.32887
1.32828
1.32988
1.33183
1.33392
1.33332
1.33162
1.33076
1.33185
1.3334
1.33413
1.33318
1.33166
1.33155
1.33154
1.33129
1.33056
1.33057
1.33115
1.33164
1.33118
1.05871
1.05872
1.05874
1.05873
1.05872
1.05873
1.05875
1.05876
1.05873
1.05873
1.05882
1.05897
1.05903
1.05905
1.0591
1.05911
1.05911
1.05916
1.05928
1.05942
1.05954
1.05971
1.05996
1.06019
1.06041
1.06067
1.061
1.06144
1.06197
1.06277
1.06296
1.06313
1.06336
1.06366
1.06408
1.06471
1.06555
1.06671
1.06865
1.07179
1.07605
1.08254
1.09088
1.10224
1.11754
1.13441
1.15812
1.1818
1.20868
1.23546
1.26237
1.28187
1.30331
1.31344
1.32454
1.32984
1.33456
1.33753
1.33753
1.33728
1.33839
1.34084
1.34085
1.34087
1.34127
1.34163
1.34091
1.33949
1.33825
1.33819
1.33778
1.33664
1.33472
1.33351
1.33383
1.33587
1.33758
1.34002
1.34159
1.34016
1.33705
1.33435
1.33482
1.33649
1.33866
1.33874
1.33782
1.33633
1.33676
1.33814
1.33814
1.33729
1.33655
1.33671
1.33676
1.33623
1.33563
1.33565
1.33617
1.33608
1.06197
1.06197
1.06196
1.06198
1.06205
1.06217
1.06231
1.06235
1.06237
1.06242
1.06253
1.06261
1.06263
1.0626
1.06259
1.06268
1.06295
1.0633
1.06337
1.06335
1.06335
1.0635
1.06367
1.06381
1.06397
1.06401
1.06406
1.06422
1.06449
1.06468
1.06483
1.06504
1.06535
1.06569
1.06601
1.06635
1.06669
1.06725
1.06722
1.06718
1.06719
1.06731
1.06765
1.0685
1.07023
1.0732
1.07861
1.08625
1.09855
1.11515
1.13538
1.16371
1.19105
1.22189
1.25136
1.27638
1.29638
1.31531
1.32535
1.33052
1.33687
1.34032
1.34012
1.33932
1.33836
1.33831
1.33826
1.33827
1.33887
1.34068
1.34254
1.34229
1.34074
1.33722
1.33456
1.33508
1.33664
1.34007
1.34177
1.34169
1.34117
1.33954
1.33799
1.3381
1.33849
1.33871
1.3389
1.33913
1.33935
1.34007
1.34089
1.34056
1.33995
1.33921
1.33921
1.33904
1.33868
1.33835
1.33861
1.33899
1.0643
1.06435
1.0644
1.06446
1.06456
1.06468
1.06482
1.06489
1.06496
1.06502
1.06507
1.06507
1.06506
1.06509
1.06519
1.06544
1.06567
1.06579
1.06582
1.06583
1.0659
1.06605
1.06621
1.06633
1.06645
1.06655
1.06676
1.06716
1.0673
1.06732
1.06738
1.06755
1.0678
1.06802
1.06821
1.06837
1.06847
1.06848
1.06842
1.06834
1.06822
1.06806
1.06794
1.06774
1.06749
1.06734
1.0674
1.0677
1.06843
1.07
1.07328
1.07983
1.08973
1.10674
1.12717
1.15486
1.18684
1.21658
1.24854
1.27487
1.29365
1.31053
1.32031
1.32163
1.32338
1.32907
1.33818
1.34021
1.34122
1.34225
1.34214
1.34065
1.33849
1.33747
1.33755
1.33817
1.33892
1.33949
1.33994
1.34025
1.34068
1.34159
1.34139
1.34047
1.33882
1.33844
1.3386
1.33907
1.3396
1.34002
1.34067
1.34138
1.3414
1.34091
1.3402
1.33961
1.33936
1.33918
1.33927
1.33974
1.06577
1.06585
1.06587
1.06589
1.06601
1.06614
1.06617
1.06617
1.06618
1.06618
1.06617
1.06615
1.06611
1.06609
1.06613
1.06624
1.06636
1.06644
1.06644
1.06641
1.06641
1.06646
1.06665
1.06676
1.06678
1.0668
1.06689
1.06706
1.06719
1.06731
1.06744
1.06758
1.0677
1.06783
1.06799
1.06817
1.06835
1.06844
1.06844
1.0684
1.06832
1.0682
1.06803
1.06781
1.06753
1.06716
1.06682
1.06651
1.06602
1.06541
1.06529
1.06543
1.06606
1.06769
1.07096
1.07769
1.08809
1.10486
1.12875
1.16084
1.193
1.22462
1.26221
1.28936
1.30585
1.3205
1.33441
1.33742
1.33852
1.33756
1.33327
1.33344
1.33488
1.33805
1.34108
1.34089
1.3403
1.33844
1.33667
1.33724
1.33887
1.34139
1.34177
1.34141
1.33984
1.33847
1.33854
1.33894
1.33931
1.33965
1.34014
1.34104
1.34165
1.34151
1.34081
1.34004
1.33962
1.33941
1.33943
1.33981
1.06659
1.06659
1.06659
1.06658
1.06658
1.06655
1.06651
1.06647
1.06641
1.06637
1.06635
1.06628
1.06616
1.06611
1.06613
1.06618
1.06619
1.06619
1.06616
1.06607
1.06604
1.0661
1.06624
1.06634
1.06642
1.06646
1.06651
1.06659
1.0667
1.06688
1.06705
1.06714
1.06716
1.06721
1.06733
1.06755
1.06781
1.06798
1.06798
1.06788
1.06771
1.06755
1.06739
1.06714
1.06672
1.06617
1.06567
1.06519
1.06453
1.06374
1.06328
1.06319
1.06322
1.0634
1.06371
1.06414
1.06485
1.06665
1.07046
1.07819
1.09234
1.11462
1.14029
1.17795
1.21996
1.24911
1.27366
1.29598
1.30918
1.31727
1.32279
1.33272
1.33876
1.34252
1.34248
1.34098
1.3372
1.33549
1.33587
1.33768
1.33987
1.34101
1.34069
1.33987
1.33916
1.33887
1.33902
1.33901
1.33883
1.3389
1.33934
1.3403
1.34126
1.34131
1.34095
1.34049
1.33994
1.33952
1.33952
1.33985
1.06633
1.06635
1.06635
1.06633
1.06629
1.06622
1.06621
1.06621
1.06619
1.06613
1.06606
1.06597
1.06587
1.0658
1.06581
1.06583
1.06582
1.06579
1.06567
1.06554
1.06552
1.06556
1.06567
1.06571
1.06575
1.06584
1.06587
1.06585
1.06574
1.06564
1.06559
1.06551
1.06536
1.06526
1.06524
1.06529
1.0655
1.0657
1.06566
1.06548
1.06537
1.0653
1.06521
1.06503
1.06477
1.06451
1.06426
1.06385
1.0632
1.06267
1.06237
1.0622
1.06219
1.06228
1.06244
1.06261
1.06284
1.06313
1.06348
1.06407
1.06524
1.06794
1.07421
1.08613
1.10692
1.13876
1.17371
1.21636
1.25189
1.28718
1.31516
1.32982
1.33519
1.33983
1.33825
1.33038
1.3308
1.33385
1.33794
1.34041
1.34019
1.33914
1.33717
1.33779
1.33906
1.33987
1.3396
1.33889
1.3383
1.33836
1.33871
1.33942
1.34041
1.34077
1.34077
1.34068
1.34026
1.33966
1.33966
1.34002
1.06593
1.06593
1.06593
1.06591
1.06586
1.06579
1.06578
1.06578
1.06577
1.06572
1.06559
1.0655
1.06546
1.06539
1.06533
1.06534
1.06533
1.0653
1.06516
1.06498
1.06496
1.06498
1.06498
1.06488
1.06469
1.06461
1.06455
1.0644
1.06413
1.06387
1.06368
1.0635
1.06325
1.06297
1.06281
1.06278
1.0628
1.06283
1.0628
1.06279
1.06286
1.06297
1.063
1.06302
1.06307
1.0631
1.06301
1.06263
1.06218
1.06201
1.06185
1.06154
1.06135
1.06138
1.06151
1.06168
1.06194
1.06241
1.06295
1.06312
1.06305
1.06274
1.06287
1.06367
1.06651
1.07265
1.08645
1.10783
1.14279
1.18092
1.22221
1.25932
1.28597
1.30546
1.3151
1.32176
1.33363
1.3414
1.34145
1.34095
1.33701
1.33469
1.33519
1.33728
1.34053
1.3406
1.33997
1.33897
1.33813
1.33845
1.33909
1.33952
1.3395
1.33986
1.34043
1.34085
1.34067
1.34023
1.34015
1.34052
1.06537
1.06538
1.0654
1.06538
1.06518
1.06496
1.06495
1.06497
1.06496
1.06485
1.06473
1.06473
1.06476
1.06477
1.06469
1.06462
1.06456
1.06444
1.06426
1.06415
1.06413
1.06414
1.06412
1.06402
1.06383
1.06362
1.0634
1.06317
1.06294
1.06271
1.06245
1.06214
1.06184
1.06156
1.06128
1.06112
1.06103
1.06098
1.06096
1.06096
1.06099
1.06111
1.06129
1.06145
1.06163
1.06175
1.06173
1.06154
1.06146
1.06148
1.06139
1.06107
1.0608
1.0608
1.06089
1.061
1.0612
1.06173
1.06263
1.06319
1.06318
1.06302
1.06269
1.06272
1.06309
1.06381
1.06517
1.06833
1.07611
1.09027
1.11641
1.15108
1.19816
1.23901
1.28292
1.31471
1.33091
1.33763
1.33886
1.33304
1.32937
1.33202
1.33723
1.34116
1.34118
1.34048
1.33826
1.33833
1.33899
1.33984
1.33957
1.33919
1.33918
1.33938
1.34011
1.34091
1.34087
1.34078
1.34101
1.34118
1.06475
1.06475
1.06471
1.06467
1.06461
1.06442
1.06432
1.06426
1.06415
1.06408
1.06406
1.06403
1.06401
1.06403
1.06415
1.0642
1.06417
1.06399
1.06374
1.06366
1.06366
1.06364
1.06356
1.06342
1.06326
1.0631
1.06293
1.06276
1.06258
1.06231
1.06195
1.06157
1.06124
1.061
1.06081
1.06058
1.06025
1.06007
1.06006
1.06005
1.06005
1.0601
1.06021
1.06031
1.06044
1.06064
1.06082
1.06091
1.06092
1.06089
1.06077
1.06051
1.06022
1.06016
1.0602
1.0602
1.06034
1.06093
1.06206
1.06285
1.06314
1.06319
1.06311
1.0631
1.06334
1.06373
1.06423
1.06491
1.06575
1.06732
1.07077
1.08029
1.09784
1.13042
1.17146
1.21801
1.26085
1.28591
1.30813
1.31576
1.33011
1.3395
1.34231
1.34201
1.33874
1.33677
1.33754
1.33984
1.34151
1.34121
1.34008
1.33908
1.33914
1.33986
1.34059
1.34094
1.34117
1.34175
1.3423
1.34197
1.0627
1.06269
1.06269
1.06268
1.06268
1.0627
1.06268
1.06261
1.06259
1.06259
1.06259
1.0626
1.06264
1.06273
1.06288
1.06302
1.0631
1.06316
1.06325
1.06331
1.0633
1.06325
1.06319
1.06313
1.06305
1.06295
1.06284
1.06271
1.06254
1.06228
1.06194
1.06158
1.06127
1.06105
1.06089
1.06068
1.06036
1.06016
1.06011
1.0601
1.06011
1.06014
1.06021
1.06027
1.06038
1.06059
1.06079
1.06096
1.06128
1.06148
1.06152
1.06149
1.06119
1.06055
1.0601
1.06005
1.06016
1.06063
1.0616
1.06265
1.06324
1.06334
1.06328
1.06314
1.06323
1.06357
1.06409
1.06458
1.06484
1.06489
1.065
1.06551
1.06729
1.07346
1.08642
1.11473
1.15298
1.20331
1.25275
1.29668
1.32622
1.33559
1.34017
1.33564
1.32925
1.33303
1.33974
1.34263
1.34223
1.34056
1.33933
1.3394
1.34029
1.34099
1.34082
1.34089
1.34162
1.34305
1.34319
1.34265
1.0622
1.06214
1.06214
1.06213
1.06212
1.06208
1.06206
1.06206
1.06206
1.06206
1.06206
1.06206
1.06211
1.06221
1.0623
1.0624
1.06253
1.06265
1.06275
1.06284
1.0629
1.06297
1.06309
1.06329
1.06334
1.0633
1.06328
1.06326
1.06319
1.06305
1.06289
1.06274
1.06259
1.06241
1.06222
1.06195
1.0615
1.0609
1.06055
1.0605
1.06049
1.0605
1.06052
1.06055
1.06065
1.06083
1.06112
1.06155
1.06218
1.06267
1.06277
1.06277
1.06266
1.06219
1.06144
1.06098
1.06096
1.06114
1.0617
1.06241
1.06299
1.06335
1.06349
1.06354
1.06356
1.0637
1.06393
1.0641
1.06419
1.06418
1.06418
1.06423
1.06437
1.06483
1.06628
1.07057
1.08088
1.10412
1.13987
1.19086
1.23909
1.2764
1.30431
1.31583
1.32887
1.34302
1.34364
1.34269
1.33875
1.33843
1.33955
1.342
1.34236
1.34177
1.34088
1.34118
1.34258
1.34391
1.34385
1.3432
1.06239
1.06229
1.06227
1.06227
1.06227
1.06226
1.06226
1.06226
1.06226
1.06227
1.06227
1.06229
1.06235
1.06246
1.06257
1.06266
1.06278
1.06292
1.063
1.06303
1.06305
1.06313
1.06326
1.06338
1.06352
1.06371
1.06395
1.06414
1.06417
1.06415
1.06415
1.06415
1.06414
1.06409
1.06402
1.06392
1.06369
1.06322
1.06267
1.06242
1.06235
1.06231
1.0623
1.06233
1.06237
1.06237
1.06237
1.06247
1.06288
1.06362
1.06404
1.0641
1.06408
1.06383
1.06318
1.06247
1.06225
1.06233
1.06254
1.06281
1.06317
1.06351
1.06362
1.06361
1.06357
1.06357
1.06363
1.06368
1.06373
1.06375
1.06377
1.06381
1.06395
1.06397
1.06408
1.06435
1.06525
1.06835
1.07659
1.09728
1.13201
1.18489
1.23668
1.29083
1.32455
1.33904
1.34094
1.33142
1.33191
1.3362
1.34248
1.34374
1.34306
1.34085
1.34103
1.34255
1.34397
1.34407
1.34361
1.34348
1.06256
1.06252
1.06247
1.06242
1.06237
1.06232
1.06228
1.06226
1.06224
1.0622
1.06217
1.06218
1.06226
1.06236
1.06246
1.06262
1.06272
1.06277
1.06281
1.06285
1.06291
1.063
1.06311
1.06321
1.06333
1.06351
1.06374
1.06396
1.06423
1.06456
1.06484
1.06494
1.06496
1.06498
1.06507
1.0651
1.06506
1.06487
1.06459
1.06444
1.06437
1.06432
1.06433
1.06433
1.06429
1.06425
1.0642
1.06418
1.06433
1.06489
1.06535
1.06544
1.06543
1.06529
1.06479
1.06408
1.06362
1.06357
1.06362
1.06369
1.06384
1.06398
1.06392
1.06374
1.06358
1.06358
1.06366
1.06378
1.06378
1.06375
1.06372
1.06373
1.06379
1.06411
1.06444
1.06466
1.06486
1.06511
1.06576
1.06792
1.07533
1.09278
1.12851
1.17953
1.2323
1.27678
1.30427
1.31577
1.33293
1.34387
1.34471
1.3434
1.34007
1.34045
1.34308
1.34523
1.34499
1.34339
1.34334
1.34419
1.0628
1.06273
1.06266
1.06259
1.06254
1.0625
1.06245
1.06243
1.06243
1.06242
1.06235
1.0623
1.06235
1.06246
1.06262
1.06273
1.06275
1.06274
1.06275
1.06276
1.06278
1.06283
1.06289
1.06299
1.06314
1.06333
1.06357
1.06383
1.06418
1.06462
1.06493
1.06511
1.06521
1.06528
1.06542
1.06558
1.06568
1.06584
1.06598
1.06601
1.06602
1.06605
1.06607
1.06603
1.0659
1.0658
1.06572
1.06567
1.06569
1.06596
1.06625
1.06626
1.06624
1.06607
1.06559
1.06507
1.06479
1.06465
1.06465
1.06477
1.06496
1.06496
1.06472
1.06437
1.06416
1.06426
1.06452
1.06462
1.06456
1.06444
1.06438
1.06437
1.06443
1.0646
1.06476
1.06484
1.06485
1.06499
1.06522
1.06548
1.06598
1.06781
1.07458
1.09174
1.12832
1.18119
1.23842
1.29807
1.32793
1.3411
1.33982
1.33115
1.33469
1.34177
1.34634
1.34606
1.3441
1.34265
1.34325
1.34505
1.06386
1.06384
1.06382
1.0638
1.06378
1.06376
1.06373
1.06373
1.06373
1.06372
1.06373
1.06373
1.06358
1.06352
1.06374
1.06391
1.06393
1.0639
1.06387
1.06389
1.06397
1.06408
1.06413
1.0642
1.06432
1.06448
1.06469
1.06476
1.06475
1.06472
1.06473
1.06487
1.06506
1.06521
1.06533
1.06547
1.06571
1.06616
1.06678
1.06697
1.06698
1.06694
1.06691
1.06691
1.06683
1.0666
1.06638
1.06629
1.06627
1.06628
1.06622
1.06599
1.06569
1.06544
1.06525
1.06529
1.06536
1.06539
1.0655
1.06585
1.06606
1.06597
1.06556
1.06528
1.06537
1.06577
1.06592
1.06597
1.06597
1.06587
1.06569
1.06543
1.06523
1.06517
1.06513
1.06508
1.06505
1.06509
1.06528
1.0654
1.06541
1.06547
1.06587
1.06766
1.0747
1.09233
1.13078
1.1858
1.24181
1.2844
1.30966
1.32037
1.34294
1.34651
1.34617
1.34295
1.34156
1.3428
1.34512
1.34591
1.06559
1.0656
1.06564
1.06567
1.06568
1.06568
1.06569
1.06577
1.0659
1.06595
1.066
1.06602
1.06599
1.06613
1.06651
1.06659
1.06658
1.06656
1.06652
1.06636
1.06617
1.06618
1.0662
1.06615
1.06614
1.06615
1.06617
1.06609
1.06597
1.06591
1.0659
1.06598
1.06594
1.06591
1.0659
1.06594
1.06613
1.06659
1.06721
1.06749
1.06751
1.06732
1.06697
1.06699
1.06698
1.06665
1.06633
1.06629
1.06635
1.06641
1.06633
1.06604
1.06544
1.06493
1.0649
1.06499
1.06525
1.06545
1.06582
1.06659
1.06688
1.06681
1.06662
1.06661
1.06692
1.06727
1.06725
1.06718
1.06717
1.06715
1.06705
1.06678
1.06632
1.06596
1.06576
1.06558
1.06541
1.06537
1.06541
1.06549
1.06558
1.06571
1.06575
1.06584
1.06622
1.0682
1.07531
1.09622
1.13728
1.19298
1.26475
1.3102
1.33933
1.34181
1.33594
1.33504
1.33972
1.3457
1.34646
1.34592
1.0666
1.06661
1.06671
1.0669
1.06694
1.06693
1.06694
1.06698
1.06699
1.06698
1.067
1.0671
1.06745
1.06808
1.06824
1.06825
1.06821
1.06816
1.06813
1.068
1.06754
1.06744
1.06743
1.06728
1.06691
1.06681
1.06676
1.06664
1.06657
1.06655
1.06654
1.06642
1.06628
1.06628
1.06648
1.06655
1.06641
1.06606
1.06611
1.0664
1.06682
1.06709
1.06704
1.06691
1.06679
1.06652
1.06638
1.06639
1.06657
1.06678
1.06677
1.06653
1.06586
1.06508
1.06486
1.06484
1.065
1.06548
1.06652
1.06749
1.06757
1.06761
1.06766
1.06778
1.06801
1.06801
1.06777
1.06752
1.06754
1.06773
1.06778
1.06768
1.06726
1.06678
1.06653
1.06637
1.06617
1.06604
1.06601
1.06602
1.06606
1.06612
1.06622
1.06628
1.06642
1.06648
1.06688
1.06927
1.07692
1.10255
1.14555
1.20565
1.27133
1.29477
1.31593
1.3316
1.34747
1.34754
1.34558
1.34405
1.06611
1.06606
1.06606
1.06606
1.06606
1.06608
1.06618
1.06624
1.06625
1.06625
1.06634
1.06662
1.06686
1.06703
1.06727
1.06734
1.06733
1.06736
1.06744
1.06743
1.06712
1.06696
1.06698
1.06683
1.06648
1.06646
1.06644
1.06636
1.06634
1.06636
1.06638
1.0662
1.06548
1.06515
1.06511
1.06505
1.0649
1.06468
1.06478
1.06519
1.06552
1.06564
1.06569
1.06553
1.0654
1.06546
1.06581
1.06621
1.06668
1.06709
1.06725
1.06734
1.06724
1.06649
1.06579
1.06569
1.06576
1.06628
1.06741
1.06803
1.06805
1.06791
1.06791
1.06819
1.06836
1.06826
1.06771
1.06743
1.06747
1.06771
1.06782
1.06777
1.06749
1.06711
1.06704
1.06705
1.06703
1.06698
1.06694
1.06689
1.06679
1.06675
1.06677
1.06674
1.06665
1.06667
1.06671
1.06683
1.06738
1.07052
1.07977
1.11248
1.15932
1.22522
1.29958
1.32499
1.34342
1.34046
1.33557
1.34047
1.05904
1.05904
1.05904
1.05903
1.05891
1.05886
1.05885
1.05885
1.05889
1.05898
1.05915
1.05948
1.05996
1.06037
1.06068
1.06097
1.06128
1.06219
1.0633
1.06338
1.06333
1.06342
1.064
1.06421
1.06413
1.06397
1.06381
1.06349
1.06334
1.0633
1.0632
1.06262
1.06204
1.06203
1.0623
1.0632
1.06411
1.06478
1.0658
1.06658
1.06667
1.0665
1.06557
1.06506
1.06494
1.06492
1.06515
1.0658
1.06649
1.06698
1.06733
1.0675
1.06756
1.06736
1.06676
1.06641
1.06643
1.06672
1.06749
1.06769
1.06768
1.06766
1.06775
1.06824
1.06852
1.06838
1.06764
1.06719
1.06723
1.06759
1.06791
1.0679
1.06773
1.06744
1.06736
1.06742
1.06756
1.06762
1.06761
1.06757
1.06752
1.06748
1.06746
1.06744
1.06732
1.06716
1.06708
1.06713
1.06716
1.06718
1.06775
1.07201
1.08482
1.12535
1.18016
1.23953
1.2958
1.30991
1.33164
1.34391
1.05224
1.05176
1.05119
1.0507
1.05054
1.05053
1.05053
1.05055
1.05062
1.05071
1.05102
1.05143
1.05148
1.05175
1.05272
1.05419
1.05561
1.05657
1.05711
1.05738
1.05756
1.05821
1.0591
1.0592
1.0592
1.05929
1.05929
1.05894
1.0586
1.05856
1.05841
1.05803
1.05792
1.05795
1.05831
1.05949
1.06144
1.06398
1.06581
1.06608
1.06611
1.06597
1.0652
1.0645
1.06438
1.06454
1.0646
1.06438
1.06442
1.06482
1.06525
1.06578
1.06657
1.06678
1.06657
1.06641
1.06642
1.06634
1.06579
1.06579
1.06602
1.06614
1.06658
1.06749
1.06797
1.06791
1.06738
1.06685
1.06688
1.06718
1.06763
1.0678
1.0678
1.06772
1.06763
1.06768
1.06779
1.0678
1.06777
1.0677
1.06766
1.06766
1.06779
1.06801
1.06805
1.06802
1.06788
1.06765
1.06741
1.06725
1.06717
1.0673
1.06849
1.07518
1.0943
1.14327
1.20308
1.27211
1.32362
1.34108
1.05704
1.05649
1.05598
1.056
1.05671
1.05734
1.05731
1.05678
1.05661
1.0568
1.05688
1.05676
1.05675
1.05703
1.05815
1.06004
1.06107
1.06074
1.05834
1.05664
1.05684
1.05696
1.05625
1.05493
1.05497
1.05581
1.05616
1.05596
1.05549
1.05543
1.0558
1.05687
1.05754
1.05762
1.05786
1.05865
1.05983
1.06051
1.06042
1.0598
1.05921
1.05919
1.05967
1.06141
1.06223
1.06213
1.06123
1.05914
1.05752
1.05737
1.05741
1.05783
1.05946
1.0621
1.06277
1.06264
1.06229
1.06224
1.06254
1.06384
1.06535
1.06553
1.06559
1.06576
1.06605
1.06651
1.0667
1.0669
1.06715
1.06734
1.06751
1.06774
1.06781
1.06775
1.06766
1.06772
1.06786
1.06786
1.06781
1.06772
1.06767
1.06765
1.06774
1.06811
1.06839
1.06841
1.06836
1.06821
1.06801
1.06771
1.06755
1.06766
1.06776
1.06808
1.07027
1.07976
1.10723
1.16455
1.22334
1.29196
1.06365
1.06408
1.06636
1.06725
1.06726
1.06775
1.06834
1.06824
1.06691
1.06587
1.065
1.06291
1.06168
1.06164
1.06188
1.06228
1.06197
1.05913
1.05353
1.05193
1.0524
1.05269
1.0522
1.05113
1.05144
1.05284
1.0551
1.05594
1.05593
1.05591
1.0564
1.05776
1.05817
1.05797
1.05754
1.0576
1.0574
1.05593
1.05256
1.05117
1.05098
1.05119
1.05261
1.05592
1.05812
1.05844
1.0585
1.0581
1.05592
1.05253
1.05145
1.05163
1.05284
1.05547
1.05787
1.05839
1.05816
1.05808
1.05829
1.05962
1.06198
1.06267
1.06285
1.06281
1.06262
1.06275
1.064
1.06606
1.0668
1.0667
1.06605
1.06582
1.0661
1.06683
1.06715
1.06742
1.06768
1.06764
1.06758
1.06752
1.06743
1.06738
1.06745
1.06794
1.06844
1.06848
1.06835
1.06812
1.06798
1.06819
1.06839
1.06841
1.06834
1.06831
1.06813
1.06847
1.072
1.08765
1.1232
1.2181
1.064
1.06518
1.0664
1.06777
1.0697
1.07188
1.0734
1.07402
1.0741
1.07377
1.0717
1.06833
1.06581
1.06351
1.0626
1.06263
1.06186
1.05817
1.05596
1.05662
1.05797
1.05784
1.05585
1.05468
1.05527
1.05753
1.06039
1.06284
1.06416
1.06453
1.06505
1.0666
1.06722
1.06622
1.06236
1.06006
1.05809
1.05516
1.05324
1.05274
1.05269
1.05304
1.05472
1.05674
1.05858
1.06112
1.06407
1.06537
1.06471
1.06224
1.05935
1.05734
1.05659
1.0572
1.05866
1.05974
1.05986
1.05926
1.05897
1.05943
1.06105
1.0615
1.06142
1.0603
1.05833
1.05758
1.05769
1.05853
1.05983
1.06091
1.0615
1.06192
1.06245
1.06316
1.06415
1.06545
1.06675
1.06688
1.06691
1.06696
1.06718
1.06741
1.06759
1.06804
1.06831
1.06821
1.06806
1.06796
1.06816
1.06863
1.06896
1.06892
1.06883
1.06861
1.06802
1.06768
1.06775
1.06916
1.07547
1.12481
1.09671
1.0969
1.09712
1.09714
1.09713
1.09704
1.09635
1.09489
1.09444
1.09426
1.09298
1.09023
1.08973
1.08902
1.08587
1.08345
1.08257
1.08135
1.08073
1.08195
1.08328
1.08272
1.08201
1.08257
1.08288
1.08245
1.08267
1.08475
1.08712
1.08726
1.0871
1.08778
1.08938
1.08935
1.08727
1.08262
1.0789
1.07765
1.07668
1.07376
1.06944
1.0681
1.06711
1.06514
1.06479
1.06656
1.0701
1.071
1.07089
1.06995
1.06765
1.06463
1.06184
1.06084
1.06086
1.06114
1.06097
1.05939
1.05812
1.05804
1.05798
1.05773
1.05776
1.05775
1.05718
1.05588
1.05525
1.05543
1.05627
1.05763
1.05881
1.0594
1.05961
1.05979
1.06028
1.06122
1.06293
1.06411
1.064
1.06388
1.0642
1.06521
1.06648
1.067
1.06716
1.06734
1.06775
1.0681
1.06861
1.06875
1.06883
1.06876
1.06855
1.06813
1.06778
1.06773
1.06801
1.06821
1.06854
1.08076
1.15208
1.15236
1.15331
1.15358
1.15336
1.15095
1.1497
1.14815
1.14413
1.14214
1.14235
1.14248
1.14135
1.14086
1.14014
1.13608
1.13198
1.13113
1.13057
1.12643
1.1245
1.12435
1.12111
1.11559
1.114
1.1134
1.11134
1.1087
1.10798
1.10691
1.10512
1.10533
1.10655
1.10595
1.10319
1.10215
1.10341
1.10573
1.10561
1.10194
1.0989
1.09867
1.09651
1.0892
1.08329
1.08268
1.08281
1.08012
1.07619
1.07535
1.07346
1.06924
1.06813
1.06833
1.06888
1.06948
1.06933
1.06613
1.06213
1.06071
1.06009
1.06003
1.06045
1.06168
1.06199
1.0611
1.0596
1.05869
1.05895
1.06076
1.06359
1.06455
1.06392
1.0622
1.06093
1.06074
1.06072
1.06049
1.06
1.05998
1.06028
1.06117
1.06261
1.06406
1.06549
1.06682
1.06746
1.06774
1.06814
1.06816
1.06798
1.06769
1.06761
1.06753
1.0678
1.06835
1.06866
1.06884
1.06877
1.07011
1.20787
1.20886
1.20905
1.20863
1.20648
1.20594
1.20514
1.20074
1.19439
1.19331
1.19385
1.19589
1.19613
1.19564
1.19556
1.19405
1.1898
1.18912
1.19092
1.19208
1.19151
1.18758
1.18289
1.18168
1.18265
1.18435
1.18321
1.17742
1.17467
1.17493
1.17477
1.17289
1.16772
1.1583
1.15453
1.15458
1.15368
1.14979
1.144
1.13985
1.13924
1.14078
1.14131
1.13858
1.13656
1.13743
1.13721
1.13211
1.127
1.12474
1.12106
1.11338
1.10916
1.10854
1.10749
1.10476
1.10187
1.10017
1.09827
1.09441
1.08802
1.08323
1.08247
1.08242
1.08205
1.07978
1.07554
1.07074
1.06825
1.06805
1.06794
1.06653
1.06301
1.06001
1.05958
1.05962
1.05927
1.05861
1.0583
1.05837
1.05888
1.06009
1.06133
1.06222
1.06289
1.06367
1.06409
1.06412
1.06423
1.06475
1.06524
1.06582
1.06673
1.06734
1.06825
1.0689
1.06891
1.06888
1.06869
1.06865
1.28119
1.28181
1.28216
1.28161
1.27673
1.27272
1.27252
1.27302
1.27266
1.26975
1.26507
1.26408
1.26494
1.26595
1.26559
1.26362
1.2606
1.25798
1.25773
1.25777
1.2557
1.2503
1.24569
1.24307
1.24271
1.24237
1.2415
1.23824
1.2306
1.22695
1.22739
1.22765
1.22641
1.22197
1.21985
1.22001
1.22026
1.21855
1.21385
1.21043
1.20699
1.2024
1.19779
1.19285
1.18784
1.18337
1.17708
1.17102
1.1702
1.17099
1.17063
1.16646
1.15909
1.15461
1.15122
1.14401
1.13075
1.12684
1.12669
1.12367
1.11885
1.11782
1.11553
1.10798
1.09881
1.09295
1.09
1.08822
1.08532
1.07939
1.07469
1.07165
1.06831
1.06427
1.0639
1.06479
1.0645
1.06337
1.06346
1.06382
1.06537
1.0667
1.06657
1.06591
1.06496
1.06411
1.06301
1.06206
1.06206
1.0623
1.06279
1.06379
1.06504
1.0671
1.06809
1.06861
1.06856
1.06839
1.0682
1.06829
1.35263
1.35072
1.34991
1.35041
1.35075
1.34952
1.34562
1.34404
1.34407
1.3437
1.34113
1.33665
1.33516
1.3355
1.33574
1.33429
1.33305
1.33208
1.32983
1.32861
1.32792
1.32652
1.32354
1.319
1.31671
1.31693
1.31718
1.31605
1.31121
1.30447
1.30075
1.29974
1.29828
1.29441
1.28967
1.28599
1.28393
1.28017
1.27608
1.2752
1.2741
1.27091
1.26599
1.262
1.25872
1.25415
1.24928
1.24424
1.24051
1.23554
1.22738
1.22278
1.22024
1.21691
1.21351
1.20815
1.20056
1.19567
1.18953
1.17715
1.17153
1.17162
1.17049
1.16601
1.15752
1.14449
1.13588
1.13461
1.13462
1.13056
1.12015
1.11293
1.10926
1.10427
1.09797
1.09333
1.08932
1.08401
1.07887
1.07401
1.07171
1.06915
1.0664
1.0643
1.06245
1.06144
1.06105
1.06129
1.06176
1.06278
1.06426
1.06562
1.06595
1.06601
1.06533
1.06494
1.06513
1.06576
1.06694
1.06847
1.43252
1.43141
1.4314
1.43145
1.43006
1.42591
1.42264
1.42223
1.42305
1.42415
1.42342
1.4191
1.41763
1.41646
1.41265
1.40991
1.40925
1.40864
1.40574
1.40457
1.40449
1.4041
1.40194
1.39687
1.39321
1.39162
1.39023
1.38809
1.38511
1.38185
1.37817
1.37603
1.37477
1.37276
1.36914
1.36474
1.36013
1.35687
1.35367
1.35016
1.34666
1.34243
1.33603
1.33179
1.32881
1.32511
1.31888
1.3129
1.30908
1.30487
1.29884
1.2929
1.28907
1.28514
1.27746
1.26434
1.25879
1.25793
1.25459
1.24599
1.23939
1.2323
1.21857
1.21107
1.20685
1.20226
1.19605
1.18469
1.17417
1.168
1.16104
1.15267
1.14428
1.13707
1.12906
1.11988
1.11129
1.10331
1.09634
1.08886
1.08252
1.07714
1.07242
1.06913
1.06741
1.06577
1.06616
1.06694
1.06829
1.06962
1.06931
1.06833
1.06694
1.0651
1.0637
1.06362
1.06375
1.0645
1.06582
1.06832
1.51236
1.5116
1.51185
1.51302
1.51311
1.51112
1.50925
1.50894
1.50733
1.50282
1.50027
1.50054
1.50096
1.50025
1.49758
1.49206
1.48975
1.48951
1.48911
1.48718
1.48313
1.48163
1.48091
1.47909
1.47558
1.47235
1.46991
1.46738
1.46462
1.46159
1.45841
1.4529
1.44974
1.44878
1.44702
1.44407
1.43874
1.43215
1.42855
1.42617
1.42327
1.41921
1.41357
1.40803
1.40377
1.39948
1.39359
1.38777
1.38256
1.37777
1.37043
1.3605
1.35642
1.35453
1.3506
1.34298
1.3345
1.32754
1.32044
1.30935
1.30324
1.29905
1.29156
1.28327
1.27105
1.26101
1.25692
1.25185
1.24204
1.22901
1.21995
1.21346
1.2054
1.19596
1.18716
1.17879
1.16949
1.16084
1.15263
1.14483
1.13549
1.12698
1.1182
1.10936
1.10221
1.09446
1.08833
1.08156
1.07692
1.07191
1.06845
1.06593
1.06449
1.06382
1.06377
1.06395
1.06532
1.06722
1.06771
1.06724
1.60528
1.60463
1.60291
1.59853
1.59569
1.59547
1.59673
1.59767
1.59725
1.59523
1.59151
1.58667
1.58478
1.58508
1.58498
1.58357
1.57842
1.57443
1.57419
1.57393
1.57226
1.56878
1.56581
1.5637
1.56056
1.5574
1.55521
1.55306
1.55033
1.54724
1.54346
1.53835
1.53459
1.53201
1.5289
1.52506
1.52098
1.51583
1.51086
1.50689
1.50335
1.4995
1.49389
1.48691
1.4826
1.47909
1.47372
1.4666
1.46031
1.4551
1.44926
1.44098
1.43286
1.42789
1.42335
1.41624
1.40761
1.40089
1.39456
1.38647
1.37702
1.36766
1.35871
1.3521
1.34441
1.33537
1.32456
1.31332
1.30555
1.2966
1.28507
1.27451
1.26545
1.25467
1.24228
1.23177
1.22157
1.21076
1.19918
1.18792
1.17561
1.16427
1.15293
1.14244
1.13187
1.12165
1.11086
1.10007
1.09029
1.08113
1.07512
1.0713
1.06975
1.06877
1.06964
1.07192
1.07229
1.0714
1.06986
1.06647
1.70051
1.69906
1.69864
1.69823
1.69576
1.68979
1.68676
1.68703
1.68845
1.68847
1.68778
1.68463
1.67844
1.67757
1.6776
1.67691
1.67353
1.66698
1.66555
1.66527
1.66404
1.66019
1.65684
1.65481
1.65247
1.64901
1.64551
1.64254
1.63877
1.6353
1.63237
1.62866
1.62347
1.61907
1.61537
1.61141
1.60741
1.60309
1.59835
1.59317
1.58856
1.58473
1.58047
1.57347
1.56619
1.56095
1.55559
1.54879
1.54196
1.53545
1.52925
1.52243
1.51378
1.50627
1.50067
1.49489
1.48604
1.47655
1.46878
1.46043
1.4509
1.44242
1.43407
1.42511
1.41486
1.4043
1.3954
1.38604
1.37495
1.36416
1.35326
1.34154
1.33087
1.32023
1.3086
1.29639
1.28531
1.27347
1.26134
1.24962
1.23791
1.22571
1.21321
1.20156
1.19021
1.17985
1.16859
1.15756
1.14495
1.13295
1.12074
1.10956
1.09994
1.09029
1.0834
1.07744
1.07271
1.06907
1.06737
1.06609
1.8019
1.80191
1.79996
1.79725
1.797
1.79684
1.79496
1.78844
1.78514
1.7854
1.78549
1.78514
1.78192
1.77942
1.77768
1.77591
1.77193
1.76598
1.76506
1.76488
1.76396
1.75819
1.75217
1.75073
1.74971
1.74701
1.74191
1.73777
1.73408
1.72808
1.72494
1.72301
1.71984
1.71499
1.70966
1.70401
1.69933
1.69497
1.69063
1.68606
1.68026
1.67441
1.66943
1.66367
1.65613
1.64868
1.64247
1.63618
1.62963
1.62258
1.61472
1.60729
1.60048
1.59232
1.58335
1.57538
1.56745
1.55788
1.54852
1.54072
1.53205
1.52195
1.51127
1.50033
1.49088
1.48125
1.46945
1.45852
1.44844
1.43733
1.42481
1.41246
1.40088
1.38911
1.37671
1.36404
1.35166
1.33847
1.32501
1.31117
1.29712
1.2833
1.27001
1.25589
1.24231
1.22827
1.21426
1.20043
1.18541
1.17091
1.15593
1.14247
1.12861
1.11507
1.10179
1.08905
1.08002
1.07491
1.07188
1.07163
1.9116
1.90702
1.90174
1.90038
1.90048
1.9025
1.90394
1.90304
1.89934
1.89527
1.89146