x,y,z,U_0,U_1,U_2
-1.79315,-3,-2.58325e-21,3,1.66174e-15,0
-1.79315,-2.99399,7.57182e-19,3,1.66174e-15,0
-1.79315,-2.98799,1.51695e-18,3,1.66174e-15,0
-1.79315,-2.98198,-1.53968e-18,3,1.66174e-15,0
-1.79315,-2.97598,7.37969e-19,3,1.66174e-15,0
-1.79315,-2.96997,4.0269e-19,3,1.66174e-15,0
-1.79315,-2.96396,-9.71115e-19,3,1.66174e-15,0
-1.79315,-2.95796,-1.73088e-18,3,1.66174e-15,0
-1.79315,-2.95195,-2.49065e-18,3,1.66174e-15,0
-1.79315,-2.94595,-3.25041e-18,3,1.66174e-15,0
-1.79315,-2.93994,-2.27545e-18,3,1.66174e-15,0
-1.79315,-2.93393,-3.03522e-18,3,1.66174e-15,0
-1.79315,-2.92793,-3.79498e-18,3,1.66174e-15,0
-1.79315,-2.92192,-2.82003e-18,3,1.66174e-15,0
-1.79315,-2.91592,-3.57979e-18,3,1.66174e-15,0
-1.79315,-2.90991,-2.60483e-18,3,1.66174e-15,0
-1.79315,-2.9039,-5.09932e-18,3,1.66174e-15,0
-1.79315,-2.8979,-4.12436e-18,3,1.66174e-15,0
-1.79315,-2.89189,-4.01677e-18,3,1.66174e-15,0
-1.79315,-2.88589,-4.77653e-18,3,1.66174e-15,0
-1.79315,-2.87988,-4.23525e-18,3,1.66174e-15,0
-1.79315,-2.87387,-4.56134e-18,3,1.66174e-15,0
-1.79315,-2.86787,-4.28027e-18,3,1.66174e-15,0
-1.79315,-2.86186,2.31501e-19,3,1.66174e-15,0
-1.79315,-2.85586,-1.85015e-18,3,1.66174e-15,0
-1.79315,-2.84985,-3.93179e-18,3,1.66174e-15,0
-1.79315,-2.84384,-2.54399e-18,3,1.66174e-15,0
-1.79315,-2.83784,-5.59547e-18,3,-4.09835e-16,0
-1.79315,-2.83183,-2.19709e-18,3,-4.09835e-16,0
-1.79315,-2.82583,-4.34983e-18,3,-4.09835e-16,0
-1.79315,-2.81982,-4.36309e-19,3,-4.09835e-16,0
-1.79315,-2.81381,-1.75295e-18,3,-4.09835e-16,0
-1.79315,-2.80781,3.99851e-19,3,-4.09835e-16,0
-1.79315,-2.8018,2.55265e-18,3,-4.09835e-16,0
-1.79315,-2.7958,1.23601e-18,3,-4.09835e-16,0
-1.79315,-2.78979,1.65409e-18,3,-4.09835e-16,0
-1.79315,-2.78378,3.37449e-19,3,-4.09835e-16,0
-1.79315,-2.77778,-9.79195e-19,3,-4.09835e-16,0
-1.79315,-2.77177,-5.61115e-19,3,-4.09835e-16,0
-1.79315,-2.76577,-1.43034e-19,3,-4.09835e-16,0
-1.79315,-2.75976,2.75046e-19,3,-4.09835e-16,0
-1.79315,-2.75375,6.93126e-19,3,-4.09835e-16,0
-1.79315,-2.74775,-6.23517e-19,3,-4.09835e-16,0
-1.79315,-2.74174,1.52929e-18,3,-4.09835e-16,0
-1.79315,-2.73574,-1.34301e-19,3,-4.09835e-16,0
-1.79315,-2.72973,-1.58105e-18,3,-4.09835e-16,0
-1.79315,-2.72372,-4.4028e-18,3,-4.09835e-16,0
-1.79315,-2.71772,-3.08616e-18,3,-4.09835e-16,0
-1.79315,-2.71171,-5.23896e-18,3,-4.09835e-16,0
-1.79315,-2.70571,-3.92232e-18,3,-4.09835e-16,0
-1.79315,-2.6997,-1.56484e-18,3,-4.09835e-16,0
-1.79315,-2.69369,-1.98292e-18,3,-4.09835e-16,0
-1.79315,-2.68769,-1.70712e-18,3,-4.09835e-16,0
-1.79315,-2.68168,-1.08436e-18,3,-4.09835e-16,0
-1.79315,-2.67568,-4.278e-18,3,-4.09835e-16,0
-1.79315,-2.66967,-3.3083e-18,3,-4.09835e-16,0
-1.79315,-2.66366,-3.37944e-18,3,-4.09835e-16,0
-1.79315,-2.65766,-3.2771e-18,3,-4.09835e-16,0
-1.79315,-2.65165,-3.34823e-18,3,-4.09835e-16,0
-1.79315,-2.64565,-3.93979e-18,3,-4.09835e-16,0
-1.79315,-2.63964,-3.40377e-18,3,-4.09835e-16,0
-1.79315,-2.63363,-5.25875e-19,3,-4.09835e-16,0
-1.79315,-2.62763,-2.348e-18,3,-4.09835e-16,0
-1.79315,-2.62162,-1.85015e-18,3,-4.09835e-16,0
-1.79315,-2.61562,-2.54402e-18,3,-4.09835e-16,0
-1.79315,-2.60961,-4.62325e-19,3,-4.09835e-16,0
-1.79315,-2.6036,-1.43382e-18,3,-2.23453e-16,0
-1.79315,-2.5976,-2.89833e-18,3,-2.23453e-16,0
-1.79315,-2.59159,-4.36285e-18,3,-2.23453e-16,0
-1.79315,-2.58559,-3.88704e-18,3,-2.23453e-16,0
-1.79315,-2.57958,-1.72855e-18,3,-2.23453e-16,0
-1.79315,-2.57357,-3.03952e-18,3,-2.23453e-16,0
-1.79315,-2.56757,-8.81033e-19,3,-2.23453e-16,0
-1.79315,-2.56156,-2.192e-18,3,-2.23453e-16,0
-1.79315,-2.55556,-1.76824e-18,3,-2.23453e-16,0
-1.79315,-2.54955,-9.97532e-19,3,-2.23453e-16,0
-1.79315,-2.54354,-2.3085e-18,3,-2.23453e-16,0
-1.79315,-2.53754,-2.23168e-18,3,-2.23453e-16,0
-1.79315,-2.53153,-1.80792e-18,3,-2.23453e-16,0
-1.79315,-2.52553,-3.6393e-18,3,-2.23453e-16,0
-1.79315,-2.51952,-3.90943e-18,3,-2.23453e-16,0
-1.79315,-2.51351,-5.91429e-18,3,-2.23453e-16,0
-1.79315,-2.50751,-7.91914e-18,3,-2.23453e-16,0
-1.79315,-2.5015,-8.276e-18,3,-2.23453e-16,0
-1.79315,-2.4955,-5.82336e-18,3,-2.23453e-16,0
-1.79315,-2.48949,-7.98184e-18,3,-2.23453e-16,0
-1.79315,-2.48348,-6.67088e-18,3,-2.23453e-16,0
-1.79315,-2.47748,-8.82936e-18,3,-2.23453e-16,0
-1.79315,-2.47147,-9.25312e-18,3,-2.23453e-16,0
-1.79315,-2.46547,-7.94216e-18,3,-2.23453e-16,0
-1.79315,-2.45946,-8.36592e-18,3,-2.23453e-16,0
-1.79315,-2.45345,-8.78968e-18,3,-2.23453e-16,0
-1.79315,-2.44745,-9.21344e-18,3,-2.23453e-16,0
-1.79315,-2.44144,-9.6372e-18,3,-2.23453e-16,0
-1.79315,-2.43544,-1.0061e-17,3,-2.23453e-16,0
-1.79315,-2.42943,-5.62749e-18,3,-2.23453e-16,0
-1.79315,-2.42342,-4.92368e-18,3,-2.23453e-16,0
-1.79315,-2.41742,-4.13313e-18,3,-2.23453e-16,0
-1.79315,-2.41141,-4.16658e-18,3,-2.23453e-16,0
-1.79315,-2.40541,-1.15627e-18,3,-2.23453e-16,0
-1.79315,-2.3994,-1.85013e-18,3,-2.23453e-16,0
-1.79315,-2.39339,9.2545e-19,3,-2.23453e-16,0
-1.79315,-2.38739,-2.11987e-18,3,9.61291e-16,0
-1.79315,-2.38138,-1.50885e-18,3,9.61291e-16,0
-1.79315,-2.37538,-8.97827e-19,3,9.61291e-16,0
-1.79315,-2.36937,-1.10092e-18,3,9.61291e-16,0
-1.79315,-2.36336,-2.40575e-18,3,9.61291e-16,0
-1.79315,-2.35736,-2.41135e-19,3,9.61291e-16,0
-1.79315,-2.35135,1.88758e-19,3,9.61291e-16,0
-1.79315,-2.34535,6.1865e-19,3,9.61291e-16,0
-1.79315,-2.33934,1.04854e-18,3,9.61291e-16,0
-1.79315,-2.33333,1.47844e-18,3,9.61291e-16,0
-1.79315,-2.32733,1.90833e-18,3,9.61291e-16,0
-1.79315,-2.32132,2.33822e-18,3,9.61291e-16,0
-1.79315,-2.31532,2.76811e-18,3,9.61291e-16,0
-1.79315,-2.30931,4.22449e-19,3,9.61291e-16,0
-1.79315,-2.3033,3.31925e-19,3,9.61291e-16,0
-1.79315,-2.2973,-1.6668e-18,3,9.61291e-16,0
-1.79315,-2.29129,-3.54625e-18,3,9.61291e-16,0
-1.79315,-2.28529,-1.67963e-18,3,9.61291e-16,0
-1.79315,-2.27928,-8.00758e-18,3,9.61291e-16,0
-1.79315,-2.27327,-6.70275e-18,3,9.61291e-16,0
-1.79315,-2.26727,-7.13264e-18,3,9.61291e-16,0
-1.79315,-2.26126,-9.29726e-18,3,9.61291e-16,0
-1.79315,-2.25526,-7.99243e-18,3,9.61291e-16,0
-1.79315,-2.24925,-8.42232e-18,3,9.61291e-16,0
-1.79315,-2.24324,-8.85221e-18,3,9.61291e-16,0
-1.79315,-2.23724,-1.01495e-17,3,9.61291e-16,0
-1.79315,-2.23123,-9.712e-18,3,9.61291e-16,0
-1.79315,-2.22523,-9.448e-18,3,9.61291e-16,0
-1.79315,-2.21922,-8.75033e-18,3,9.61291e-16,0
-1.79315,-2.21321,-7.83581e-18,3,9.61291e-16,0
-1.79315,-2.20721,-7.36581e-18,3,9.61291e-16,0
-1.79315,-2.2012,-7.40126e-18,3,9.61291e-16,0
-1.79315,-2.1952,-5.31957e-18,3,9.61291e-16,0
-1.79315,-2.18919,-6.70732e-18,3,9.61291e-16,0
-1.79315,-2.18318,-6.33396e-18,3,1.18731e-15,0
-1.79315,-2.17718,-5.72956e-18,3,1.18731e-15,0
-1.79315,-2.17117,-5.97704e-18,3,1.18731e-15,0
-1.79315,-2.16517,-7.27525e-18,3,1.18731e-15,0
-1.79315,-2.15916,-8.57346e-18,3,1.18731e-15,0
-1.79315,-2.15315,-8.83083e-18,3,1.18731e-15,0
-1.79315,-2.14715,-8.39432e-18,3,1.18731e-15,0
-1.79315,-2.14114,-9.34558e-18,3,1.18731e-15,0
-1.79315,-2.13514,-8.90907e-18,3,1.18731e-15,0
-1.79315,-2.12913,-8.47255e-18,3,1.18731e-15,0
-1.79315,-2.12312,-8.9034e-18,3,1.18731e-15,0
-1.79315,-2.11712,-8.46688e-18,3,1.18731e-15,0
-1.79315,-2.11111,-9.76509e-18,3,1.18731e-15,0
-1.79315,-2.10511,-1.26245e-17,3,1.18731e-15,0
-1.79315,-2.0991,-9.99795e-18,3,1.18731e-15,0
-1.79315,-2.09309,-1.06844e-17,3,1.18731e-15,0
-1.79315,-2.08709,-9.38623e-18,3,1.18731e-15,0
-1.79315,-2.08108,-8.08802e-18,3,1.18731e-15,0
-1.79315,-2.07508,-8.52454e-18,3,1.18731e-15,0
-1.79315,-2.06907,-8.96105e-18,3,1.18731e-15,0
-1.79315,-2.06306,-9.39757e-18,3,1.18731e-15,0
-1.79315,-2.05706,-8.09936e-18,3,1.18731e-15,0
-1.79315,-2.05105,-8.53588e-18,3,1.18731e-15,0
-1.79315,-2.04505,-7.23767e-18,3,1.18731e-15,0
-1.79315,-2.03904,-6.80682e-18,3,1.18731e-15,0
-1.79315,-2.03303,-7.06987e-18,3,1.18731e-15,0
-1.79315,-2.02703,-7.41964e-18,3,1.18731e-15,0
-1.79315,-2.02102,-8.44163e-18,3,1.18731e-15,0
-1.79315,-2.01502,-5.3196e-18,3,1.18731e-15,0
-1.79315,-2.00901,-3.93179e-18,3,1.18731e-15,0
-1.79315,-2.003,-2.77573e-18,3,-9.90357e-16,0
-1.79315,-1.997,-4.26013e-18,3,-9.90357e-16,0
-1.79315,-1.99099,-4.35676e-18,3,-9.90357e-16,0
-1.79315,-1.98498,-2.48545e-18,3,-9.90357e-16,0
-1.79315,-1.97898,-4.4704e-18,3,-9.90357e-16,0
-1.79315,-1.97297,-5.76145e-18,3,-9.90357e-16,0
-1.79315,-1.96697,-6.35862e-18,3,-9.90357e-16,0
-1.79315,-1.96096,-7.64968e-18,3,-9.90357e-16,0
-1.79315,-1.95495,-7.8999e-18,3,-9.90357e-16,0
-1.79315,-1.94895,-5.37456e-18,3,-9.90357e-16,0
-1.79315,-1.94294,-4.06354e-18,3,-9.90357e-16,0
-1.79315,-1.93694,-3.61987e-18,3,-9.90357e-16,0
-1.79315,-1.93093,-3.00273e-18,3,-9.90357e-16,0
-1.79315,-1.92492,-5.7683e-18,3,-9.90357e-16,0
-1.79315,-1.91892,-7.16778e-18,3,-9.90357e-16,0
-1.79315,-1.91291,-7.92728e-18,3,-9.90357e-16,0
-1.79315,-1.90691,-6.63622e-18,3,-9.90357e-16,0
-1.79315,-1.9009,-5.34516e-18,3,-9.90357e-16,0
-1.79315,-1.89489,-5.78883e-18,3,-9.90357e-16,0
-1.79315,-1.88889,-6.2325e-18,3,-9.90357e-16,0
-1.79315,-1.88288,-4.94144e-18,3,-9.90357e-16,0
-1.79315,-1.87688,-5.38511e-18,3,-9.90357e-16,0
-1.79315,-1.87087,-5.82877e-18,3,-9.90357e-16,0
-1.79315,-1.86486,-5.40508e-18,3,-9.90357e-16,0
-1.79315,-1.85886,-5.84874e-18,3,-9.90357e-16,0
-1.79315,-1.85285,-6.29241e-18,3,-9.90357e-16,0
-1.79315,-1.84685,-6.86618e-18,3,-9.90357e-16,0
-1.79315,-1.84084,-6.01348e-18,3,-9.90357e-16,0
-1.79315,-1.83483,-3.2379e-18,3,-9.90357e-16,0
-1.79315,-1.82883,-1.41917e-18,3,-9.29232e-16,0
-1.79315,-1.82282,-8.29622e-19,3,-9.29232e-16,0
-1.79315,-1.81682,9.33973e-19,3,-9.29232e-16,0
-1.79315,-1.81081,1.73231e-18,3,-9.29232e-16,0
-1.79315,-1.8048,-9.38807e-19,3,-9.29232e-16,0
-1.79315,-1.7988,-1.40473e-19,3,-9.29232e-16,0
-1.79315,-1.79279,-1.07686e-18,3,-9.29232e-16,0
-1.79315,-1.78679,-2.78529e-19,3,-9.29232e-16,0
-1.79315,-1.78078,-1.21492e-18,3,-9.29232e-16,0
-1.79315,-1.77477,4.50777e-19,3,-9.29232e-16,0
-1.79315,-1.76877,-4.85613e-19,3,-9.29232e-16,0
-1.79315,-1.76276,3.12721e-19,3,-9.29232e-16,0
-1.79315,-1.75676,1.11105e-18,3,-9.29232e-16,0
-1.79315,-1.75075,-2.32691e-19,3,-9.29232e-16,0
-1.79315,-1.74474,-1.03103e-18,3,-9.29232e-16,0
-1.79315,-1.73874,-1.82936e-18,3,-9.29232e-16,0
-1.79315,-1.73273,8.41754e-19,3,-9.29232e-16,0
-1.79315,-1.72673,4.34206e-20,3,-9.29232e-16,0
-1.79315,-1.72072,9.7981e-19,3,-9.29232e-16,0
-1.79315,-1.71471,1.81476e-19,3,-9.29232e-16,0
-1.79315,-1.70871,1.98523e-18,3,-9.29232e-16,0
-1.79315,-1.7027,2.05426e-18,3,-9.29232e-16,0
-1.79315,-1.6967,1.6896e-18,3,-9.29232e-16,0
-1.79315,-1.69069,1.41169e-18,3,-9.29232e-16,0
-1.79315,-1.68468,1.16087e-18,3,-9.29232e-16,0
-1.79315,-1.67868,3.00709e-18,3,-9.29232e-16,0
-1.79315,-1.67267,3.70101e-18,3,-9.29232e-16,0
-1.79315,-1.66667,4.77587e-18,3,-9.01108e-16,0
-1.79315,-1.66066,3.96931e-18,3,-9.01108e-16,0
-1.79315,-1.65465,5.85789e-18,3,-9.01108e-16,0
-1.79315,-1.64865,5.27678e-18,3,-9.01108e-16,0
-1.79315,-1.64264,7.47123e-18,3,-9.01108e-16,0
-1.79315,-1.63664,9.66568e-18,3,-9.01108e-16,0
-1.79315,-1.63063,1.04724e-17,3,-9.01108e-16,0
-1.79315,-1.62462,9.5443e-18,3,-9.01108e-16,0
-1.79315,-1.61862,1.0351e-17,3,-9.01108e-16,0
-1.79315,-1.61261,9.42293e-18,3,-9.01108e-16,0
-1.79315,-1.60661,6.32647e-18,3,-9.01108e-16,0
-1.79315,-1.6006,4.22748e-18,3,-9.01108e-16,0
-1.79315,-1.59459,7.35446e-18,3,-9.01108e-16,0
-1.79315,-1.58859,5.16001e-18,3,-9.01108e-16,0
-1.79315,-1.58258,2.96556e-18,3,-9.01108e-16,0
-1.79315,-1.57658,4.24055e-18,3,-9.01108e-16,0
-1.79315,-1.57057,3.78082e-18,3,-9.01108e-16,0
-1.79315,-1.56456,3.3211e-18,3,-9.01108e-16,0
-1.79315,-1.55856,3.72873e-18,3,-9.01108e-16,0
-1.79315,-1.55255,4.83025e-18,3,-9.01108e-16,0
-1.79315,-1.54655,5.4981e-18,3,-9.01108e-16,0
-1.79315,-1.54054,3.65059e-18,3,-9.01108e-16,0
-1.79315,-1.53453,5.78262e-18,3,-9.01108e-16,0
-1.79315,-1.52853,4.39488e-18,3,-9.01108e-16,0
-1.79315,-1.52252,4.84404e-18,3,4.52626e-17,0
-1.79315,-1.51652,-8.28742e-19,3,4.52626e-17,0
-1.79315,-1.51051,1.64432e-18,3,4.52626e-17,0
-1.79315,-1.5045,1.76611e-18,3,4.52626e-17,0
-1.79315,-1.4985,1.8879e-18,3,4.52626e-17,0
-1.79315,-1.49249,2.00969e-18,3,4.52626e-17,0
-1.79315,-1.48649,3.8662e-18,3,4.52626e-17,0
-1.79315,-1.48048,2.25326e-18,3,4.52626e-17,0
-1.79315,-1.47447,2.37505e-18,3,4.52626e-17,0
-1.79315,-1.46847,1.80295e-18,3,4.52626e-17,0
-1.79315,-1.46246,7.97169e-19,3,4.52626e-17,0
-1.79315,-1.45646,4.41908e-19,3,4.52626e-17,0
-1.79315,-1.45045,-3.18146e-19,3,4.52626e-17,0
-1.79315,-1.44444,-4.39934e-19,3,4.52626e-17,0
-1.79315,-1.43844,-2.29645e-18,3,4.52626e-17,0
-1.79315,-1.43243,-4.15296e-18,3,4.52626e-17,0
-1.79315,-1.42643,-4.62169e-18,3,4.52626e-17,0
-1.79315,-1.42042,-3.3557e-18,3,4.52626e-17,0
-1.79315,-1.41441,-1.22235e-18,3,4.52626e-17,0
-1.79315,-1.40841,2.8192e-18,3,4.52626e-17,0
-1.79315,-1.4024,3.21783e-18,3,4.52626e-17,0
-1.79315,-1.3964,3.70095e-18,3,4.52626e-17,0
-1.79315,-1.39039,5.78266e-18,3,4.52626e-17,0
-1.79315,-1.38438,8.97923e-18,3,-1.78835e-15,0
-1.79315,-1.37838,6.07229e-18,3,-1.78835e-15,0
-1.79315,-1.37237,7.93695e-18,3,-1.78835e-15,0
-1.79315,-1.36637,8.76235e-18,3,-1.78835e-15,0
-1.79315,-1.36036,8.89386e-18,3,-1.78835e-15,0
-1.79315,-1.35435,9.02537e-18,3,-1.78835e-15,0
-1.79315,-1.34835,9.15689e-18,3,-1.78835e-15,0
-1.79315,-1.34234,9.2884e-18,3,-1.78835e-15,0
-1.79315,-1.33634,9.41991e-18,3,-1.78835e-15,0
-1.79315,-1.33033,8.7708e-18,3,-1.78835e-15,0
-1.79315,-1.32432,6.79896e-18,3,-1.78835e-15,0
-1.79315,-1.31832,7.30129e-18,3,-1.78835e-15,0
-1.79315,-1.31231,3.70033e-18,3,-1.78835e-15,0
-1.79315,-1.30631,5.30354e-18,3,-1.78835e-15,0
-1.79315,-1.3003,5.17203e-18,3,-1.78835e-15,0
-1.79315,-1.29429,5.04052e-18,3,-1.78835e-15,0
-1.79315,-1.28829,4.04165e-18,3,-1.78835e-15,0
-1.79315,-1.28228,3.91014e-18,3,-1.78835e-15,0
-1.79315,-1.27628,7.50828e-18,3,-1.78835e-15,0
-1.79315,-1.27027,7.75082e-18,3,-1.78835e-15,0
-1.79315,-1.26426,6.47654e-18,3,-1.78835e-15,0
-1.79315,-1.25826,8.99132e-18,3,-1.63614e-15,0
-1.79315,-1.25225,8.15556e-18,3,-1.63614e-15,0
-1.79315,-1.24625,8.63974e-18,3,-1.63614e-15,0
-1.79315,-1.24024,5.3123e-18,3,-1.63614e-15,0
-1.79315,-1.23423,4.41348e-18,3,-1.63614e-15,0
-1.79315,-1.22823,5.24938e-18,3,-1.63614e-15,0
-1.79315,-1.22222,1.92195e-18,3,-1.63614e-15,0
-1.79315,-1.21622,5.35993e-18,3,-1.63614e-15,0
-1.79315,-1.21021,7.58361e-18,3,-1.63614e-15,0
-1.79315,-1.2042,6.20774e-18,3,-1.63614e-15,0
-1.79315,-1.1982,8.72768e-18,3,-1.63614e-15,0
-1.79315,-1.19219,1.13612e-17,3,-1.63614e-15,0
-1.79315,-1.18619,1.05253e-17,3,-1.63614e-15,0
-1.79315,-1.18018,1.00364e-17,3,-1.63614e-15,0
-1.79315,-1.17417,1.12821e-17,3,-1.63614e-15,0
-1.79315,-1.16817,9.05846e-18,3,-1.63614e-15,0
-1.79315,-1.16216,7.70214e-18,3,-1.63614e-15,0
-1.79315,-1.15616,7.12645e-18,3,-1.63614e-15,0
-1.79315,-1.15015,6.47652e-18,3,-1.63614e-15,0
-1.79315,-1.14414,7.17045e-18,3,-1.63614e-15,0
-1.79315,-1.13814,6.83803e-18,3,1.41004e-15,0
-1.79315,-1.13213,1.06624e-17,3,1.41004e-15,0
-1.79315,-1.12613,7.34633e-18,3,1.41004e-15,0
-1.79315,-1.12012,7.49968e-18,3,1.41004e-15,0
-1.79315,-1.11411,7.30608e-18,3,1.41004e-15,0
-1.79315,-1.10811,7.11249e-18,3,1.41004e-15,0
-1.79315,-1.1021,6.91889e-18,3,1.41004e-15,0
-1.79315,-1.0961,8.46002e-18,3,1.41004e-15,0
-1.79315,-1.09009,9.87105e-18,3,1.41004e-15,0
-1.79315,-1.08408,9.38985e-18,3,1.41004e-15,0
-1.79315,-1.07808,9.2365e-18,3,1.41004e-15,0
-1.79315,-1.07207,1.08179e-17,3,1.41004e-15,0
-1.79315,-1.06607,1.10115e-17,3,1.41004e-15,0
-1.79315,-1.06006,9.47034e-18,3,1.41004e-15,0
-1.79315,-1.05405,7.06185e-18,3,1.41004e-15,0
-1.79315,-1.04805,6.30134e-18,3,1.41004e-15,0
-1.79315,-1.04204,5.08873e-18,3,1.41004e-15,0
-1.79315,-1.03604,3.701e-18,3,1.41004e-15,0
-1.79315,-1.03003,6.01923e-19,3,1.87304e-15,0
-1.79315,-1.02402,-2.51813e-18,3,1.87304e-15,0
-1.79315,-1.01802,-9.64762e-19,3,1.87304e-15,0
-1.79315,-1.01201,-2.88084e-18,3,1.87304e-15,0
-1.79315,-1.00601,-3.40913e-18,3,1.87304e-15,0
-1.79315,-1,-3.93743e-18,3,1.87304e-15,0
-1.79315,-0.993994,-1.86364e-18,3,1.87304e-15,0
-1.79315,-0.987988,7.30568e-19,3,1.87304e-15,0
-1.79315,-0.981982,-9.54188e-19,3,1.87304e-15,0
-1.79315,-0.975976,9.61887e-19,3,1.87304e-15,0
-1.79315,-0.96997,1.14324e-18,3,1.87304e-15,0
-1.79315,-0.963964,1.67153e-18,3,1.87304e-15,0
-1.79315,-0.957958,2.19983e-18,3,1.87304e-15,0
-1.79315,-0.951952,1.2604e-19,3,1.87304e-15,0
-1.79315,-0.945946,-7.33443e-19,3,1.87304e-15,0
-1.79315,-0.93994,-1.85016e-18,3,1.87304e-15,0
-1.79315,-0.933934,-4.62327e-19,3,1.87304e-15,0
-1.79315,-0.927928,1.24631e-18,3,-1.43973e-15,0
-1.79315,-0.921922,-1.06758e-18,3,-1.43973e-15,0
-1.79315,-0.915916,-1.94878e-19,3,-1.43973e-15,0
-1.79315,-0.90991,-3.63008e-19,3,-1.43973e-15,0
-1.79315,-0.903904,5.09696e-19,3,-1.43973e-15,0
-1.79315,-0.897898,-3.52323e-19,3,-1.43973e-15,0
-1.79315,-0.891892,-6.07189e-19,3,-1.43973e-15,0
-1.79315,-0.885886,1.15097e-18,3,-1.43973e-15,0
-1.79315,-0.87988,2.7827e-19,3,-1.43973e-15,0
-1.79315,-0.873874,4.464e-19,3,-1.43973e-15,0
-1.79315,-0.867868,9.61475e-19,3,-1.43973e-15,0
-1.79315,-0.861862,-2.58174e-19,3,-1.43973e-15,0
-1.79315,-0.855856,-1.47782e-18,3,-1.43973e-15,0
-1.79315,-0.84985,-2.91431e-18,3,-1.43973e-15,0
-1.79315,-0.843844,-3.23792e-18,3,-1.43973e-15,0
-1.79315,-0.837838,-4.21492e-18,3,-1.39198e-13,0
-1.79315,-0.831832,-3.22494e-18,3,-1.39198e-13,0
-1.79315,-0.825826,-9.50185e-19,3,-1.39198e-13,0
-1.79315,-0.81982,-2.14487e-18,3,-1.39198e-13,0
-1.79315,-0.813814,-1.25789e-18,3,-1.39198e-13,0
-1.79315,-0.807808,4.96451e-19,3,-1.39198e-13,0
-1.79315,-0.801802,-2.5197e-18,3,-1.39198e-13,0
-1.79315,-0.795796,-4.41011e-18,3,-1.39198e-13,0
-1.79315,-0.78979,-4.39862e-19,3,-1.39198e-13,0
-1.79315,-0.783784,-2.71462e-18,3,-1.39198e-13,0
-1.79315,-0.777778,-3.6016e-18,3,-1.39198e-13,0
-1.79315,-0.771772,-2.75386e-18,3,-1.39198e-13,0
-1.79315,-0.765766,-1.47244e-18,3,-1.39198e-13,0
-1.79315,-0.75976,-1.15627e-18,3,-1.39198e-13,0
-1.79315,-0.753754,-4.62323e-19,3,-1.39198e-13,0
-1.79315,-0.747748,-1.85551e-19,3,-4.22979e-11,0
-1.79315,-0.741742,-3.76932e-18,3,-4.22979e-11,0
-1.79315,-0.735736,-5.64248e-18,3,-4.22979e-11,0
-1.79315,-0.72973,-6.12786e-18,3,-4.22979e-11,0
-1.79315,-0.723724,-4.87852e-18,3,-4.22979e-11,0
-1.79315,-0.717718,-5.3639e-18,3,-4.22979e-11,0
-1.79315,-0.711712,-9.74163e-19,3,-4.22979e-11,0
-1.79315,-0.705706,-1.87656e-18,3,-4.22979e-11,0
-1.79315,-0.6997,-3.1259e-18,3,-4.22979e-11,0
-1.79315,-0.693694,-2.64052e-18,3,-4.22979e-11,0
-1.79315,-0.687688,-3.0225e-18,3,-4.22979e-11,0
-1.79315,-0.681682,-4.48868e-18,3,-4.22979e-11,0
-1.79315,-0.675676,-8.78902e-18,3,-4.22979e-11,0
-1.79315,-0.66967,-5.68092e-18,3,-1.1517e-08,0
-1.79315,-0.663664,-7.27792e-18,3,-1.1517e-08,0
-1.79315,-0.657658,-5.31804e-18,3,-1.1517e-08,0
-1.79315,-0.651652,-5.09289e-18,3,-1.1517e-08,0
-1.79315,-0.645646,-4.86773e-18,3,-1.1517e-08,0
-1.79315,-0.63964,-7.50487e-18,3,-1.1517e-08,0
-1.79315,-0.633634,-7.95714e-18,3,-1.1517e-08,0
-1.79315,-0.627628,-9.91702e-18,3,-1.1517e-08,0
-1.79315,-0.621622,-1.01422e-17,3,-1.1517e-08,0
-1.79315,-0.615616,-1.03673e-17,3,-1.1517e-08,0
-1.79315,-0.60961,-9.46492e-18,3,-1.1517e-08,0
-1.79315,-0.603604,-6.01349e-18,3,-1.1517e-08,0
-1.79315,-0.597598,-6.99908e-18,3,-2.71243e-06,0
-1.79315,-0.591592,-4.55407e-18,3,-2.71243e-06,0
-1.79315,-0.585586,-4.31094e-18,3,-2.71243e-06,0
-1.79315,-0.57958,-3.72087e-18,3,-2.71243e-06,0
-1.79315,-0.573574,-2.26343e-18,3,-2.71243e-06,0
-1.79315,-0.567568,-7.19253e-19,3,-2.71243e-06,0
-1.79315,-0.561562,-3.62531e-19,3,-2.71243e-06,0
-1.79315,-0.555556,1.47601e-18,3,-2.71243e-06,0
-1.79315,-0.54955,2.62065e-18,3,-2.71243e-06,0
-1.79315,-0.543544,2.89794e-18,3,-2.71243e-06,0
-1.79315,-0.537538,1.87418e-18,3,-2.71243e-06,0
-1.79315,-0.531532,4.3949e-18,3,-2.71243e-06,0
-1.79315,-0.525526,3.25173e-18,2.99971,-0.000459309,0
-1.79315,-0.51952,5.33748e-18,2.99971,-0.000459309,0
-1.79315,-0.513514,5.25308e-18,2.99971,-0.000459309,0
-1.79315,-0.507508,6.03604e-18,2.99971,-0.000459309,0
-1.79315,-0.501502,7.94657e-18,2.99971,-0.000459309,0
-1.79315,-0.495495,3.0953e-18,2.99971,-0.000459309,0
-1.79315,-0.489489,3.1797e-18,2.99971,-0.000459309,0
-1.79315,-0.483483,3.2641e-18,2.99971,-0.000459309,0
-1.79315,-0.477477,3.52197e-18,2.99971,-0.000459309,0
-1.79315,-0.471471,3.70096e-18,2.99971,-0.000459309,0
-1.79315,-0.465465,5.47844e-18,2.9841,-0.0273307,0
-1.79315,-0.459459,6.60103e-18,2.9841,-0.0273307,0
-1.79315,-0.453453,5.49675e-18,2.9841,-0.0273307,0
-1.79315,-0.447447,6.1272e-18,2.9841,-0.0273307,0
-1.79315,-0.441441,5.28314e-18,2.9841,-0.0273307,0
-1.79315,-0.435435,5.91124e-18,2.9841,-0.0273307,0
-1.79315,-0.429429,5.28079e-18,2.9841,-0.0273307,0
-1.79315,-0.423423,8.11979e-18,2.9841,-0.0273307,0
-1.79315,-0.417417,6.79545e-18,2.9841,-0.0273307,0
-1.79315,-0.411411,8.5582e-18,2.9841,-0.0273307,0
-1.79315,-0.405405,9.57228e-18,2.87588,-0.235567,0
-1.79315,-0.399399,1.01627e-17,2.87588,-0.235567,0
-1.79315,-0.393393,1.01219e-17,2.87588,-0.235567,0
-1.79315,-0.387387,1.11219e-17,2.87588,-0.235567,0
-1.79315,-0.381381,9.42227e-18,2.87588,-0.235567,0
-1.79315,-0.375375,9.89183e-18,2.87588,-0.235567,0
-1.79315,-0.369369,8.19791e-18,2.87588,-0.235567,0
-1.79315,-0.363363,8.06524e-18,2.87588,-0.235567,0
-1.79315,-0.357357,7.8643e-18,2.87588,-0.235567,0
-1.79315,-0.351351,1.95052e-18,2.78709,-0.424323,0
-1.79315,-0.345345,-9.26143e-19,2.78709,-0.424323,0
-1.79315,-0.339339,-2.48615e-19,2.78709,-0.424323,0
-1.79315,-0.333333,4.28913e-19,2.78709,-0.424323,0
-1.79315,-0.327327,3.96784e-19,2.78709,-0.424323,0
-1.79315,-0.321321,-2.80745e-19,2.78709,-0.424323,0
-1.79315,-0.315315,-9.09111e-20,2.78709,-0.424323,0
-1.79315,-0.309309,-3.34759e-19,2.78709,-0.424323,0
-1.79315,-0.303303,-2.54398e-18,2.78709,-0.424323,0
-1.79315,-0.297297,-3.37206e-19,2.72156,-0.538013,0
-1.79315,-0.291291,-6.74118e-19,2.72156,-0.538013,0
-1.79315,-0.285285,-1.43668e-19,2.72156,-0.538013,0
-1.79315,-0.279279,-2.71336e-19,2.72156,-0.538013,0
-1.79315,-0.273273,4.12521e-19,2.72156,-0.538013,0
-1.79315,-0.267267,1.61679e-18,2.72156,-0.538013,0
-1.79315,-0.261261,3.25475e-18,2.72156,-0.538013,0
-1.79315,-0.255255,-1.4738e-18,2.72318,-0.516814,0
-1.79315,-0.249249,-5.07975e-18,2.72318,-0.516814,0
-1.79315,-0.243243,-4.34733e-18,2.72318,-0.516814,0
-1.79315,-0.237237,-1.88018e-18,2.72318,-0.516814,0
-1.79315,-0.231231,-1.8593e-18,2.72318,-0.516814,0
-1.79315,-0.225225,-2.59172e-18,2.72318,-0.516814,0
-1.79315,-0.219219,-4.19151e-18,2.72318,-0.516814,0
-1.79315,-0.213213,-6.25412e-18,2.72151,-0.509959,0
-1.79315,-0.207207,-8.5954e-18,2.72151,-0.509959,0
-1.79315,-0.201201,-7.48526e-18,2.72151,-0.509959,0
-1.79315,-0.195195,-7.32921e-18,2.72151,-0.509959,0
-1.79315,-0.189189,-4.68098e-18,2.72151,-0.509959,0
-1.79315,-0.183183,-6.83196e-18,2.72151,-0.509959,0
-1.79315,-0.177177,-8.48421e-18,2.72151,-0.509959,0
-1.79315,-0.171171,-6.40349e-18,2.72029,-0.50886,0
-1.79315,-0.165165,-5.98404e-18,2.72029,-0.50886,0
-1.79315,-0.159159,-5.8815e-18,2.72029,-0.50886,0
-1.79315,-0.153153,-6.59561e-18,2.72029,-0.50886,0
-1.79315,-0.147147,-6.69815e-18,2.72029,-0.50886,0
-1.79315,-0.141141,-7.23438e-18,2.72029,-0.50886,0
-1.79315,-0.135135,-7.02474e-18,2.72492,-0.516393,0
-1.79315,-0.129129,-1.1225e-17,2.72492,-0.516393,0
-1.79315,-0.123123,-1.10866e-17,2.72492,-0.516393,0
-1.79315,-0.117117,-1.28756e-17,2.72492,-0.516393,0
-1.79315,-0.111111,-1.19732e-17,2.72492,-0.516393,0
-1.79315,-0.105105,-1.20465e-17,2.72492,-0.516393,0
-1.79315,-0.0990991,-1.15564e-17,2.72869,-0.517632,0
-1.79315,-0.0930931,-9.99146e-18,2.72869,-0.517632,0
-1.79315,-0.0870871,-1.15056e-17,2.72869,-0.517632,0
-1.79315,-0.0810811,-1.31458e-17,2.72869,-0.517632,0
-1.79315,-0.0750751,-1.41036e-17,2.72869,-0.517632,0
-1.79315,-0.0690691,-1.04996e-17,2.72804,-0.517189,0
-1.79315,-0.0630631,-1.18329e-17,2.72804,-0.517189,0
-1.79315,-0.0570571,-9.35876e-18,2.72804,-0.517189,0
-1.79315,-0.0510511,-7.57164e-18,2.72804,-0.517189,0
-1.79315,-0.045045,-7.70394e-18,2.72804,-0.517189,0
-1.79315,-0.039039,-9.1772e-18,2.72282,-0.514008,0
-1.79315,-0.033033,-8.59978e-18,2.72282,-0.514008,0
-1.79315,-0.027027,-9.94559e-18,2.72282,-0.514008,0
-1.79315,-0.021021,-9.5074e-18,2.72282,-0.514008,0
-1.79315,-0.015015,-8.09516e-18,2.72282,-0.514008,0
-1.79315,-0.00900901,-7.16154e-18,2.71705,-0.512618,0
-1.79315,-0.003003,-4.24644e-18,2.71705,-0.512618,0
-1.79315,0.003003,-6.87989e-18,2.71705,-0.512618,0
-1.79315,0.00900901,-5.11124e-18,2.71705,-0.512618,0
-1.79315,0.015015,-7.27093e-18,2.71402,-0.512496,0
-1.79315,0.021021,-8.63994e-18,2.71402,-0.512496,0
-1.79315,0.027027,-8.95756e-18,2.71402,-0.512496,0
-1.79315,0.033033,-8.56432e-18,2.71402,-0.512496,0
-1.79315,0.279279,1.01433e-18,2.98469,0.0369074,0
-1.79315,0.285285,4.42634e-18,2.98469,0.0369074,0
-1.79315,0.291291,5.31892e-18,2.98469,0.0369074,0
-1.79315,0.297297,6.35977e-18,2.98469,0.0369074,0
-1.79315,0.303303,1.01967e-17,2.98528,0.036893,0
-1.79315,0.309309,1.13158e-17,2.98528,0.036893,0
-1.79315,0.315315,1.20843e-17,2.98528,0.036893,0
-1.79315,0.321321,1.64212e-17,2.98528,0.036893,0
-1.79315,0.327327,2.20271e-17,2.98638,0.0369566,0
-1.79315,0.333333,2.05976e-17,2.98638,0.0369566,0
-1.79315,0.339339,1.95436e-17,2.98638,0.0369566,0
-1.79315,0.345345,2.16253e-17,2.98638,0.0369566,0
-1.79315,0.351351,2.12085e-17,2.98707,0.037099,0
-1.79315,0.357357,2.19996e-17,2.98707,0.037099,0
-1.79315,0.363363,2.05943e-17,2.98707,0.037099,0
-1.79315,0.369369,2.17988e-17,2.98707,0.037099,0
-1.79315,0.375375,2.05845e-17,2.98707,0.037099,0
-1.79315,0.381381,2.24261e-17,2.98729,0.0372085,0
-1.79315,0.387387,2.06592e-17,2.98729,0.0372085,0
-1.79315,0.393393,1.98835e-17,2.98729,0.0372085,0
-1.79315,0.399399,1.91967e-17,2.98729,0.0372085,0
-1.79315,0.405405,1.86763e-17,2.98729,0.0372085,0
-1.79315,0.411411,2.31666e-17,2.98722,0.0369636,0
-1.79315,0.417417,2.61244e-17,2.98722,0.0369636,0
-1.79315,0.423423,2.57581e-17,2.98722,0.0369636,0
-1.79315,0.429429,2.56152e-17,2.98722,0.0369636,0
-1.79315,0.435435,2.85642e-17,2.98722,0.0369636,0
-1.79315,0.441441,2.89501e-17,2.9867,0.0365016,0
-1.79315,0.447447,2.43129e-17,2.9867,0.0365016,0
-1.79315,0.453453,2.19308e-17,2.9867,0.0365016,0
-1.79315,0.459459,2.19331e-17,2.9867,0.0365016,0
-1.79315,0.465465,2.05845e-17,2.9867,0.0365016,0
-1.79315,0.471471,2.33601e-17,2.9867,0.0365016,0
-1.79315,0.477477,2.82078e-17,2.98643,0.0368011,0
-1.79315,0.483483,2.67281e-17,2.98643,0.0368011,0
-1.79315,0.489489,2.52484e-17,2.98643,0.0368011,0
-1.79315,0.495495,2.41744e-17,2.98643,0.0368011,0
-1.79315,0.501502,2.35335e-17,2.98643,0.0368011,0
-1.79315,0.507508,2.57887e-17,2.98643,0.0368011,0
-1.79315,0.513514,2.28064e-17,2.98662,0.037637,0
-1.79315,0.51952,2.37878e-17,2.98662,0.037637,0
-1.79315,0.525526,2.16467e-17,2.98662,0.037637,0
-1.79315,0.531532,2.06966e-17,2.98662,0.037637,0
-1.79315,0.537538,2.16253e-17,2.98662,0.037637,0
-1.79315,0.543544,2.40539e-17,2.98662,0.037637,0
-1.79315,0.54955,2.71764e-17,2.98662,0.037637,0
-1.79315,0.555556,3.17697e-17,2.98674,0.038866,0
-1.79315,0.561562,3.13933e-17,2.98674,0.038866,0
-1.79315,0.567568,3.17109e-17,2.98674,0.038866,0
-1.79315,0.573574,3.17227e-17,2.98674,0.038866,0
-1.79315,0.57958,3.11663e-17,2.98674,0.038866,0
-1.79315,0.585586,2.9605e-17,2.98674,0.038866,0
-1.79315,0.591592,2.61356e-17,2.98674,0.038866,0
-1.79315,0.597598,-9.02813e-18,2.98979,0.030785,0
-1.79315,0.603604,-1.07644e-17,2.98979,0.030785,0
-1.79315,0.60961,-6.60267e-18,2.98979,0.030785,0
-1.79315,0.615616,-4.00217e-18,2.98979,0.030785,0
-1.79315,0.621622,-3.94503e-18,2.98979,0.030785,0
-1.79315,0.627628,-3.18123e-18,2.98979,0.030785,0
-1.79315,0.633634,-4.74248e-18,2.98979,0.030785,0
-1.79315,0.63964,-8.73233e-18,2.98979,0.030785,0
-1.79315,0.645646,-9.03929e-18,2.99155,0.0243734,0
-1.79315,0.651652,-9.36204e-18,2.99155,0.0243734,0
-1.79315,0.657658,-6.5623e-18,2.99155,0.0243734,0
-1.79315,0.663664,-6.19116e-18,2.99155,0.0243734,0
-1.79315,0.66967,-6.3664e-18,2.99155,0.0243734,0
-1.79315,0.675676,-6.30374e-18,2.99155,0.0243734,0
-1.79315,0.681682,-6.30373e-18,2.99155,0.0243734,0
-1.79315,0.687688,-3.87511e-18,2.99155,0.0243734,0
-1.79315,0.693694,-1.96691e-18,2.99155,0.0243734,0
-1.79315,0.6997,1.25073e-18,2.99595,0.0101743,0
-1.79315,0.705706,-1.12983e-18,2.99595,0.0101743,0
-1.79315,0.711712,-1.08177e-18,2.99595,0.0101743,0
-1.79315,0.717718,8.74478e-19,2.99595,0.0101743,0
-1.79315,0.723724,8.55571e-19,2.99595,0.0101743,0
-1.79315,0.72973,1.1474e-19,2.99595,0.0101743,0
-1.79315,0.735736,-7.52615e-19,2.99595,0.0101743,0
-1.79315,0.741742,-1.61997e-18,2.99595,0.0101743,0
-1.79315,0.747748,-4.22205e-18,2.99595,0.0101743,0
-1.79315,0.753754,-4.90495e-18,2.99918,0.00184759,0
-1.79315,0.75976,-2.40618e-18,2.99918,0.00184759,0
-1.79315,0.765766,-1.64214e-18,2.99918,0.00184759,0
-1.79315,0.771772,-5.31152e-19,2.99918,0.00184759,0
-1.79315,0.777778,-1.50183e-18,2.99918,0.00184759,0
-1.79315,0.783784,-8.52548e-19,2.99918,0.00184759,0
-1.79315,0.78979,-7.5262e-19,2.99918,0.00184759,0
-1.79315,0.795796,1.14748e-19,2.99918,0.00184759,0
-1.79315,0.801802,-1.27302e-18,2.99918,0.00184759,0
-1.79315,0.807808,2.3699e-18,2.99918,0.00184759,0
-1.79315,0.813814,2.73841e-18,2.99994,0.000132068,0
-1.79315,0.81982,4.0042e-19,2.99994,0.000132068,0
-1.79315,0.825826,8.37984e-19,2.99994,0.000132068,0
-1.79315,0.831832,-8.06121e-19,2.99994,0.000132068,0
-1.79315,0.837838,-1.40939e-18,2.99994,0.000132068,0
-1.79315,0.843844,-9.79725e-19,2.99994,0.000132068,0
-1.79315,0.84985,-1.51639e-18,2.99994,0.000132068,0
-1.79315,0.855856,-1.09956e-18,2.99994,0.000132068,0
-1.79315,0.861862,8.0864e-19,2.99994,0.000132068,0
-1.79315,0.867868,2.89031e-18,2.99994,0.000132068,0
-1.79315,0.873874,5.66588e-18,2.99994,0.000132068,0
-1.79315,0.87988,4.78203e-18,3,3.27008e-06,0
-1.79315,0.885886,3.15688e-18,3,3.27008e-06,0
-1.79315,0.891892,3.26645e-18,3,3.27008e-06,0
-1.79315,0.897898,3.37602e-18,3,3.27008e-06,0
-1.79315,0.903904,1.75086e-18,3,3.27008e-06,0
-1.79315,0.90991,9.15129e-19,3,3.27008e-06,0
-1.79315,0.915916,2.93993e-19,3,3.27008e-06,0
-1.79315,0.921922,1.15558e-18,3,3.27008e-06,0
-1.79315,0.927928,1.15558e-18,3,3.27008e-06,0
-1.79315,0.933934,1.50253e-18,3,3.27008e-06,0
-1.79315,0.93994,-5.87138e-20,3,3.27008e-06,0
-1.79315,0.945946,2.54338e-18,3,3.27008e-06,0
-1.79315,0.951952,-1.37202e-19,3,4.96038e-08,0
-1.79315,0.957958,-1.7448e-18,3,4.96038e-08,0