/*--------------------------------*- C++ -*----------------------------------*\
  =========                 |
  \\      /  F ield         | OpenFOAM: The Open Source CFD Toolbox
   \\    /   O peration     | Website:  https://openfoam.org
    \\  /    A nd           | Version:  7
     \\/     M anipulation  |
\*---------------------------------------------------------------------------*/
FoamFile
{
    version     2.0;
    format      ascii;
    class       volScalarField;
    location    "7.7";
    object      p;
}
// * * * * * * * * * * * * * * * * * * * * * * * * * * * * * * * * * * * * * //

dimensions      [1 -1 -2 0 0 0 0];

internalField   nonuniform List<scalar> 
1750
(
0.319785
0.524208
0.695417
0.835339
0.981416
0.966633
0.913717
0.898235
0.931282
0.966016
0.12463
0.193213
0.351178
0.489599
0.657531
0.762338
0.826759
0.891509
0.973804
0.985611
0.127245
0.131507
0.126677
0.131187
0.170844
0.277566
0.490088
0.707813
0.837481
0.942465
0.147614
0.153194
0.148373
0.129347
0.130136
0.138432
0.15994
0.24826
0.399841
0.720537
0.176987
0.194936
0.19729
0.200996
0.205128
0.215952
0.231522
0.252863
0.248302
0.333871
0.287804
0.300111
0.325387
0.328679
0.322013
0.31199
0.30875
0.303039
0.289607
0.292833
0.498739
0.452096
0.437282
0.440556
0.435955
0.414691
0.386696
0.37358
0.378905
0.378716
0.73186
0.71119
0.653559
0.60525
0.586045
0.573492
0.555194
0.526949
0.50613
0.477716
1.02493
0.992478
0.945375
0.869778
0.792254
0.748549
0.723558
0.688664
0.64336
0.584549
1.59701
1.44843
1.33347
1.22137
1.11767
1.01175
0.937336
0.883272
0.829763
0.748398
2.1263
2.02394
1.89639
1.75801
1.61163
1.46026
1.30705
1.17663
1.08637
0.959465
2.1433
2.14141
2.11051
2.07383
2.02951
1.94867
1.8221
1.66706
1.52268
1.30242
1.69718
1.80209
1.89942
1.98134
1.99595
1.99193
1.98364
1.95779
1.91206
1.74764
1.1076
1.1805
1.27811
1.40586
1.54463
1.67333
1.77013
1.86296
1.86526
1.88087
1.00291
1.00685
1.01625
1.03494
1.07568
1.14588
1.25701
1.42071
1.60457
1.95811
0.140303
0.111098
0.108623
0.134657
0.168471
0.303943
0.53602
0.758932
1.1438
1.76003
2.17744
2.1167
1.53646
1.05741
1.00128
0.151098
0.109473
0.100913
0.137662
0.206884
0.401007
0.611352
0.87873
1.36042
1.97876
2.23625
2.02741
1.36943
1.02726
1.00045
0.168365
0.111594
0.0993982
0.161718
0.272935
0.446804
0.658362
1.04282
1.54677
2.16254
2.28001
1.94564
1.25116
1.01201
1.00016
0.18097
0.112629
0.101552
0.185679
0.315032
0.480062
0.7481
1.22297
1.78178
2.31406
2.29331
1.79572
1.121
1.0036
1.00005
0.181923
0.110796
0.0936981
0.190687
0.341106
0.557143
0.983194
1.4364
2.06512
2.37668
2.25589
1.49941
1.04631
1.00104
1.00001
0.16353
0.101336
0.0865033
0.196955
0.400035
0.736207
1.18662
1.67829
2.29638
2.39361
2.03107
1.2895
1.01797
1.0003
1
0.1248
0.0929085
0.105122
0.30842
0.556288
0.929507
1.38217
1.99901
2.44386
2.3793
1.82598
1.15403
1.00558
1.00008
1
0.0792751
0.090249
0.195
0.418457
0.705452
1.10615
1.6264
2.30645
2.51115
2.31106
1.57702
1.05642
1.00135
1.00002
1
0.0546809
0.123798
0.269179
0.499597
0.867845
1.38612
2.0422
2.53
2.53015
2.14082
1.27299
1.01509
1.00028
1
1
0.0459535
0.162841
0.335611
0.653361
1.22283
1.80768
2.40897
2.6254
2.5003
1.72638
1.09903
1.00354
1.00005
1
1
0.0393188
0.198162
0.484498
1.04603
1.66752
2.23193
2.65014
2.65256
2.23678
1.3556
1.02779
1.00063
1.00001
1
1
0.02972
0.309215
0.857256
1.50965
2.11239
2.58012
2.75124
2.63548
1.79412
1.11839
1.00465
1.00008
1
1
1
0.0688292
0.623245
1.40739
2.02147
2.5681
2.75708
2.77718
2.22212
1.32839
1.0235
1.00058
1.00001
1
1
1
0.382005
1.24165
2.03482
2.52738
2.85088
2.77645
2.6228
1.67376
1.08516
1.00328
1.00006
1
1
1
1
1.32175
2.16762
2.60229
2.82361
2.91937
2.75229
2.03609
1.18436
1.00729
1.00012
1
1
1
1
1
2.89439
2.85506
2.82789
2.897
2.92962
2.46923
1.30615
0.988876
0.998933
0.999979
1
1
1
1
1
2.88528
2.84936
2.80778
2.88064
2.9138
2.19523
1.16608
1.0051
1.00006
1
1
1
1
1
1
2.7963
2.86138
2.91834
2.91344
2.71365
1.67773
1.03687
1.00016
1
1
1
1
1
1
1
2.74387
2.88319
3.03208
2.92399
2.4319
1.29112
1.00583
1.00002
1
1
1
1
1
1
1
2.72156
2.89468
3.08516
2.91501
1.91422
1.06438
1.00038
1
1
1
1
1
1
1
1
2.75845
2.95077
3.11095
2.58562
1.43059
1.01199
1.00004
1
1
1
1
1
1
1
1
2.9471
3.01022
3.12719
2.16806
1.12116
1.00094
1
1
1
1
1
1
1
1
1
3.26595
3.04922
2.77946
1.47709
1.01309
1.00004
1
1
1
1
1
1
1
1
1
3.60719
2.85106
2.13403
1.13585
1.00129
1
1
1
1
1
1
1
1
1
1
3.77038
2.61319
1.49574
1.01538
1.00005
1
1
1
1
1
1
1
1
1
1
3.66666
2.10964
1.15978
1.00192
1.00001
1
1
1
1
1
1
1
1
1
1
3.208
1.65463
1.03973
1.00021
1
1
1
1
1
1
1
1
1
1
1
2.6709
1.2911
1.00683
1.00002
1
1
1
1
1
1
1
1
1
1
1
1.97679
1.0999
1.00098
1
1
1
1
1
1
1
1
1
1
1
1
1.39128
1.01684
1.00006
1
1
1
1
1
1
1
1
1
1
1
1
1
1
1
1
1
1
1
1
1
1
1
1
1
1
1
1
1
1
1
1
1
1
1
1
1
1
1
1
1
1
1
1
1
1
1
1
1
1
1
1
1
1
1
1
1
1
1
1
1
1
1
1
1
1
1
1
1
1
1
1
1
1
1
1
1
1
1
1
1
1
1
1
1
1
1
1
1
1
1
1
1
1
1
1
1
1
1
1
1
1
1
1
1
1
1
1
1
1
1
1
1
1
1
1
1
1
1
1
1
1
1
1
1
1
1
1
1
1
1
1
1
1
1
1
1
1
1
1
1
1
1
1
1
1
1
1
1
1
1
1
1
1
1
1
1
1
1
1
1
1
1
1
1
1
1
1
1
1
1
1
1
1
1
1
1
1
1
1
1
1
1
1
1
1
1
1
1
1
1
1
1
1
1
1
1
1
1
1
1
1
1
1
1
1
1
1
1
1
1
1
1
1
1
1
1
1
1
1
1
1
1
1
1
1
1
1
1
1
1
1
1
1
1
1
1
1
1
1
1
1
1
1
1
1
1
1
1
1
1
1
1
1
1
1
1
1
1
1
1
1
1
1
1
1
1
1
1
1
1
1
1
1
1
1
1
1
1
1
1
1
1
1
1
1
1
1
1
1
1
1
1
1
1
1
1
1
1
1
1
1
1
1
1
1
1
1
1
1
1
1
1
1
1
1
1
1
1
1
1
1
1
1
1
1
1
1
1
1
1
1
1
1
1
1
1
1
1
1
1
1
1
1
1
1
1
1
1
1
1
1
1
1
1
1
1
1
1
1
1
1
1.78942
1.01389
1
1
1
1
1
1
1
1
1
1
1
1
1
1
1
1
1
1
3.04622
1.22953
0.999369
1
1
1
1
1
1
1
1
1
1
1
1
1
1
1
1
1
4.70721
1.89027
1.01411
0.999957
1
1
1
1
1
1
1
1
1
1
1
1
1
1
1
1
5.564
3.26568
1.45873
1.00086
1
1
1
1
1
1
1
1
1
1
1
1
1
1
1
1
5.27816
4.20057
3.03664
1.22663
0.999707
0.999999
1
1
1
1
1
1
1
1
1
1
1
1
1
1
4.52772
4.30396
4.2127
2.55873
1.11236
0.999755
0.999998
1
1
1
1
1
1
1
1
1
1
1
1
1
3.93761
4.1372
4.38616
3.82052
1.90924
1.02293
0.999943
0.999998
1
1
1
1
1
1
1
1
1
1
1
1
3.86463
4.01533
4.29296
4.22216
3.24872
1.3596
1.00094
1
1
1
1
1
1
1
1
1
1
1
1
1
3.91658
3.99224
4.08287
4.15145
4.05095
2.50239
1.1191
0.999909
0.999998
1
1
1
1
1
1
1
1
1
1
1
3.99984
3.96967
3.93861
4.03372
4.10922
3.53905
1.71151
1.01258
0.99998
0.999999
1
1
1
1
1
1
1
1
1
1
4.00423
3.98026
3.957
4.00776
4.08653
4.06062
2.8426
1.19805
1.00021
1
1
1
1
1
1
1
1
1
1
1
4.02331
4.01634
3.99955
4.01359
4.049
4.05958
3.527
1.8976
1.03083
0.99999
1
1
1
1
1
1
1
1
1
1
4.08021
4.07883
4.04347
4.00944
3.99426
4.01524
3.9178
2.88662
1.25781
1.00077
1
1
1
1
1
1
1
1
1
1
4.11811
4.09968
4.05468
4.01632
3.99918
4.03752
4.07219
3.76657
2.03182
1.07455
1.0008
1
1
1
1
1
1
1
1
1
4.12023
4.10256
4.06891
4.05242
4.05168
4.07125
4.07563
3.88978
2.83582
1.14638
0.987602
0.999097
0.999991
1
1
1
1
1
1
1
1.5431
2.72584
3.36497
3.70499
3.90903
4.01215
4.05634
3.9279
3.92553
2.54578
1.30641
1.01675
1.00036
1
1
1
1
1
1
1
0.250256
1.32613
2.26103
2.87725
3.33913
3.68778
3.90832
3.87305
4.0386
3.75621
2.41153
1.26338
1.0147
1.00032
1
1
1
1
1
1
0.0981257
0.575171
1.22772
1.96216
2.56428
3.05661
3.48068
3.68581
3.9384
3.93675
3.52065
2.14864
1.17235
1.00766
1.00013
1
1
1
1
1
0.149108
0.394765
0.68477
1.14337
1.78669
2.34443
2.88806
3.26439
3.61959
3.86413
3.82672
3.27495
1.80929
1.08277
1.00258
1.00004
1
1
1
1
0.223067
0.326313
0.480754
0.739403
1.15124
1.7003
2.24054
2.7575
3.13954
3.56891
3.78484
3.71937
2.89752
1.47242
1.02937
1.00055
1.00001
1
1
1
0.263702
0.251654
0.322381
0.579751
0.852342
1.24521
1.7004
2.24112
2.65381
3.13463
3.566
3.69298
3.46555
2.31838
1.20599
1.00781
1.00011
1
1
1
0.316577
0.226257
0.207485
0.400976
0.650862
0.969775
1.34799
1.73846
2.23703
2.62605
3.12972
3.55758
3.53925
3.02976
1.67606
1.05326
1.00103
1.00001
1
1
0.343637
0.239654
0.211757
0.326991
0.499747
0.745267
1.08498
1.42283
1.87303
2.26334
2.71651
3.22564
3.49713
3.3959
2.42443
1.25533
1.01017
1.00013
1
1
0.331146
0.262522
0.248731
0.308371
0.413728
0.572062
0.833085
1.20087
1.515
1.95685
2.3797
2.87846
3.34285
3.40251
3.01039
1.6935
1.05567
1.0011
1.00001
1
0.306189
0.272506
0.280928
0.296313
0.344563
0.486519
0.658639
1.0023
1.31092
1.67497
2.01765
2.48194
3.00513
3.3459
3.26291
2.40176
1.22739
1.00749
1.00009
1
0.296505
0.285142
0.299434
0.274043
0.279964
0.420204
0.560513
0.806045
1.17389
1.38352
1.74463
2.1148
2.62705
3.14328
3.2491
2.82915
1.62305
1.04007
1.00059
1.00001
0.302221
0.306751
0.303812
0.26592
0.258348
0.3695
0.497094
0.666701
1.01817
1.25137
1.58539
1.90793
2.35101
2.88403
3.20237
3.02654
2.07722
1.15114
1.00384
1.00004
0.310148
0.314505
0.303074
0.265916
0.258633
0.332598
0.457724
0.593245
0.85831
1.12879
1.39434
1.72534
2.07955
2.58485
3.08099
3.08699
2.47422
1.3528
1.0161
1.0002
0.300889
0.306536
0.301849
0.271026
0.262736
0.311368
0.411975
0.544654
0.705896
0.991096
1.20305
1.54947
1.83318
2.2627
2.84244
3.07364
2.84962
1.74167
1.05874
1.00098
0.290703
0.296229
0.298696
0.277241
0.272091
0.307022
0.354642
0.489616
0.621521
0.852496
1.08034
1.35351
1.6871
2.02847
2.53864
3.00487
2.96181
2.2022
1.20003
1.00588
0.384382
0.291395
0.293047
0.286515
0.294198
0.309988
0.32786
0.47583
0.60426
0.769938
1.02928
1.26004
1.58772
1.91255
2.30773
2.85596
2.94245
2.43228
1.38473
1.01772
0.484969
0.321347
0.302344
0.299062
0.3012
0.307688
0.325096
0.451886
0.593784
0.723944
0.972684
1.19305
1.43937
1.75338
2.13496
2.66028
2.89811
2.67533
1.65959
1.05056
0.595549
0.385226
0.30627
0.302413
0.299084
0.300602
0.329496
0.42606
0.570684
0.695416
0.860533
1.1287
1.34792
1.59734
1.94529
2.44727
2.84171
2.78654
2.00673
1.1503
0.747297
0.521688
0.326228
0.296643
0.293434
0.287393
0.340416
0.419404
0.522117
0.679447
0.809747
1.02066
1.27275
1.5143
1.7977
2.21476
2.69655
2.77892
2.28952
1.35679
0.91818
0.675251
0.369538
0.288573
0.287933
0.286007
0.351471
0.416827
0.469244
0.645712
0.795282
0.942367
1.16643
1.417
1.67803
2.01386
2.48305
2.71436
2.50964
1.7192
0.984197
0.816287
0.525031
0.296468
0.28297
0.290653
0.354667
0.409758
0.448643
0.578813
0.748469
0.899483
1.08283
1.30671
1.54622
1.84061
2.27564
2.64808
2.56513
2.21681
0.967596
0.944125
0.735903
0.364801
0.283108
0.295003
0.350974
0.394882
0.450986
0.560136
0.683998
0.838178
1.00557
1.21652
1.43421
1.68072
2.05378
2.51217
2.61499
2.81203
0.922653
0.959657
0.836549
0.561025
0.304857
0.293625
0.342474
0.377222
0.453705
0.554029
0.647015
0.784074
0.93159
1.12142
1.33293
1.55467
1.85657
2.2941
2.72979
3.38834
0.921707
0.945305
0.908414
0.766783
0.379494
0.293356
0.334252
0.367709
0.449489
0.532448
0.618336
0.752476
0.886337
1.04794
1.24111
1.44738
1.68642
2.08149
2.78792
3.99787
0.955475
0.954636
0.962772
0.891831
0.655002
0.365399
0.333199
0.365405
0.435349
0.494433
0.571271
0.688734
0.805569
0.944636
1.10339
1.28377
1.48578
1.91318
2.91482
4.66434
)
;

boundaryField
{
    inlet
    {
        type            fixedValue;
        value           uniform 1;
    }
    outlet
    {
        type            zeroGradient;
    }
    airfoil
    {
        type            zeroGradient;
    }
    top
    {
        type            symmetryPlane;
    }
    bottom
    {
        type            symmetryPlane;
    }
    defaultFaces
    {
        type            empty;
    }
}


// ************************************************************************* //
