/*--------------------------------*- C++ -*----------------------------------*\
  =========                 |
  \\      /  F ield         | OpenFOAM: The Open Source CFD Toolbox
   \\    /   O peration     | Website:  https://openfoam.org
    \\  /    A nd           | Version:  7
     \\/     M anipulation  |
\*---------------------------------------------------------------------------*/
FoamFile
{
    version     2.0;
    format      ascii;
    class       volScalarField;
    location    "7.7";
    object      rho;
}
// * * * * * * * * * * * * * * * * * * * * * * * * * * * * * * * * * * * * * //

dimensions      [1 -3 0 0 0 0 0];

internalField   nonuniform List<scalar> 
1750
(
0.407493
0.580528
0.715635
0.830768
0.962716
0.962971
0.935969
0.937001
0.969241
1.00668
0.260441
0.341866
0.492918
0.614848
0.758708
0.848013
0.89374
0.940336
1.00278
1.01929
0.291867
0.30527
0.301574
0.306878
0.349302
0.466259
0.674875
0.846972
0.948151
1.02531
0.339203
0.352324
0.346804
0.316041
0.316853
0.330104
0.360082
0.459819
0.62566
0.917088
0.392514
0.42112
0.42463
0.429663
0.435295
0.451209
0.474333
0.509219
0.501389
0.591325
0.550657
0.5691
0.605584
0.610375
0.600881
0.585874
0.581304
0.573969
0.555602
0.559113
0.818142
0.760926
0.744362
0.749311
0.744453
0.71794
0.680894
0.664571
0.671627
0.670418
1.07805
1.05264
0.984774
0.932593
0.915625
0.902358
0.879565
0.845229
0.82169
0.788418
1.35397
1.32348
1.27771
1.20221
1.12559
1.08256
1.05644
1.01861
0.969737
0.905105
1.84519
1.72091
1.62407
1.52609
1.43199
1.33397
1.26422
1.21239
1.15962
1.07624
2.28373
2.20011
2.09601
1.98281
1.86204
1.73465
1.60243
1.48695
1.40552
1.28485
2.31179
2.30983
2.28485
2.25488
2.21811
2.15112
2.04634
1.91717
1.79676
1.6029
1.98519
2.06707
2.14131
2.2048
2.21184
2.20725
2.19977
2.17787
2.13929
1.99815
1.498
1.56212
1.6462
1.75473
1.87116
1.97643
2.05212
2.12492
2.12313
2.13255
1.40282
1.40658
1.41547
1.43292
1.47043
1.53376
1.63173
1.77248
1.92834
2.2138
0.263334
0.237128
0.251876
0.315927
0.37831
0.56817
0.864613
1.10316
1.46172
1.97951
2.32562
2.29474
1.85476
1.45293
1.40124
0.271109
0.233965
0.246126
0.327829
0.439824
0.698516
0.94989
1.21662
1.65197
2.15646
2.37223
2.22792
1.71693
1.42543
1.40044
0.292286
0.238385
0.247441
0.371286
0.532548
0.75839
0.994808
1.37121
1.80941
2.30284
2.40482
2.16575
1.61859
1.41133
1.40016
0.31112
0.246408
0.255829
0.401203
0.590244
0.799784
1.08615
1.54123
2.0034
2.42298
2.4142
2.05361
1.5084
1.40344
1.40005
0.314399
0.248463
0.242215
0.398851
0.627081
0.888012
1.3234
1.72759
2.22843
2.47292
2.39329
1.82044
1.44265
1.40101
1.40002
0.288451
0.232551
0.227121
0.398601
0.704341
1.07833
1.51683
1.92633
2.40886
2.48718
2.22966
1.65122
1.41692
1.40029
1.40001
0.224659
0.214483
0.249856
0.562433
0.881011
1.26791
1.68284
2.17895
2.5222
2.48123
2.07452
1.53649
1.40531
1.40008
1.40001
0.153356
0.210177
0.393934
0.717876
1.04019
1.43613
1.88508
2.41748
2.57311
2.42949
1.87829
1.45114
1.4013
1.40002
1.40001
0.113102
0.268239
0.514194
0.812755
1.20594
1.68799
2.2188
2.58743
2.58713
2.30118
1.63228
1.41402
1.40028
1.40001
1.40001
0.0981664
0.330123
0.608241
0.979925
1.54131
2.03859
2.49958
2.65762
2.56241
1.98775
1.48802
1.40339
1.40006
1.40001
1.40001
0.0863064
0.387696
0.782883
1.36775
1.92512
2.36968
2.67824
2.67643
2.37104
1.70044
1.4257
1.40062
1.40001
1.40001
1.40001
0.0805051
0.557211
1.17481
1.78912
2.28254
2.63139
2.75186
2.65863
2.03985
1.50487
1.40442
1.40009
1.40001
1.40001
1.40001
0.246396
0.950546
1.6942
2.21279
2.62486
2.7607
2.7702
2.36322
1.67762
1.42158
1.40056
1.40001
1.40001
1.40001
1.40001
0.735147
1.5632
2.22188
2.60183
2.82617
2.77433
2.66001
1.94866
1.47511
1.4031
1.40006
1.40001
1.40001
1.40001
1.40001
1.65225
2.326
2.65943
2.81454
2.87124
2.76102
2.23759
1.5586
1.40659
1.40012
1.40001
1.40001
1.40001
1.40001
1.40001
2.88901
2.85413
2.82305
2.86067
2.87653
2.56158
1.66443
1.39001
1.39898
1.39998
1.4
1.40001
1.40001
1.40001
1.40001
2.88208
2.84986
2.81075
2.85093
2.86167
2.34492
1.54455
1.40489
1.40006
1.40001
1.40001
1.40001
1.40001
1.40001
1.40001
2.82064
2.86094
2.89059
2.8739
2.72465
1.95841
1.43363
1.40016
1.40001
1.40001
1.40001
1.40001
1.40001
1.40001
1.40001
2.78552
2.87934
2.97295
2.88182
2.52428
1.64865
1.4055
1.40003
1.40001
1.40001
1.40001
1.40001
1.40001
1.40001
1.40001
2.77109
2.89112
3.00968
2.87434
2.14035
1.45764
1.40037
1.40001
1.40001
1.40001
1.40001
1.40001
1.40001
1.40001
1.40001
2.80269
2.93344
3.02531
2.64001
1.7602
1.41112
1.40004
1.40001
1.40001
1.40001
1.40001
1.40001
1.40001
1.40001
1.40001
2.92679
2.98121
3.03491
2.32654
1.50546
1.4009
1.40001
1.40001
1.40001
1.40001
1.40001
1.40001
1.40001
1.40001
1.40001
3.15091
3.01946
2.79468
1.79514
1.412
1.40004
1.40001
1.40001
1.40001
1.40001
1.40001
1.40001
1.40001
1.40001
1.40001
3.38461
2.90131
2.33338
1.51955
1.40123
1.40001
1.40001
1.40001
1.40001
1.40001
1.40001
1.40001
1.40001
1.40001
1.40001
3.49752
2.73315
1.83383
1.4144
1.40005
1.40001
1.40001
1.40001
1.40001
1.40001
1.40001
1.40001
1.40001
1.40001
1.40001
3.43826
2.3434
1.54607
1.40186
1.40001
1.40001
1.40001
1.40001
1.40001
1.40001
1.40001
1.40001
1.40001
1.40001
1.40001
3.13695
1.96863
1.43737
1.40022
1.40001
1.40001
1.40001
1.40001
1.40001
1.40001
1.40001
1.40001
1.40001
1.40001
1.40001
2.77446
1.66032
1.40654
1.40003
1.40001
1.40001
1.40001
1.40001
1.40001
1.40001
1.40001
1.40001
1.40001
1.40001
1.40001
2.25684
1.49181
1.40095
1.40001
1.40001
1.40001
1.40001
1.40001
1.40001
1.40001
1.40001
1.40001
1.40001
1.40001
1.40001
1.76537
1.41606
1.40007
1.40001
1.40001
1.40001
1.40001
1.40001
1.40001
1.40001
1.40001
1.40001
1.40001
1.40001
1.40001
1.40001
1.40001
1.40001
1.40001
1.40001
1.40001
1.40001
1.40001
1.40001
1.40001
1.40001
1.40001
1.40001
1.40001
1.40001
1.40001
1.40001
1.40001
1.40001
1.40001
1.40001
1.40001
1.40001
1.40001
1.40001
1.40001
1.40001
1.40001
1.40001
1.40001
1.40001
1.40001
1.40001
1.40001
1.40001
1.40001
1.40001
1.40001
1.40001
1.40001
1.40001
1.40001
1.40001
1.40001
1.40001
1.40001
1.40001
1.40001
1.40001
1.40001
1.40001
1.40001
1.40001
1.40001
1.40001
1.40001
1.40001
1.40001
1.40001
1.40001
1.40001
1.40001
1.40001
1.40001
1.40001
1.40001
1.40001
1.40001
1.40001
1.40001
1.40001
1.40001
1.40001
1.40001
1.40001
1.40001
1.40001
1.40001
1.40001
1.40001
1.40001
1.40001
1.40001
1.40001
1.40001
1.40001
1.40001
1.40001
1.40001
1.40001
1.40001
1.40001
1.40001
1.40001
1.40001
1.40001
1.40001
1.40001
1.40001
1.40001
1.40001
1.40001
1.40001
1.40001
1.40001
1.40001
1.40001
1.40001
1.40001
1.40001
1.40001
1.40001
1.40001
1.40001
1.40001
1.40001
1.40001
1.40001
1.40001
1.40001
1.40001
1.40001
1.40001
1.40001
1.40001
1.40001
1.40001
1.40001
1.40001
1.40001
1.40001
1.40001
1.40001
1.40001
1.40001
1.40001
1.40001
1.40001
1.40001
1.40001
1.40001
1.40001
1.40001
1.40001
1.40001
1.40001
1.40001
1.40001
1.40001
1.40001
1.40001
1.40001
1.40001
1.40001
1.40001
1.40001
1.40001
1.40001
1.40001
1.40001
1.40001
1.40001
1.40001
1.40001
1.40001
1.40001
1.40001
1.40001
1.40001
1.40001
1.40001
1.40001
1.40001
1.40001
1.40001
1.40001
1.40001
1.40001
1.40001
1.40001
1.40001
1.40001
1.40001
1.40001
1.40001
1.40001
1.40001
1.40001
1.40001
1.40001
1.40001
1.40001
1.40001
1.40001
1.40001
1.40001
1.40001
1.40001
1.40001
1.40001
1.40001
1.40001
1.40001
1.40001
1.40001
1.40001
1.40001
1.40001
1.40001
1.40001
1.40001
1.40001
1.40001
1.40001
1.40001
1.40001
1.40001
1.40001
1.40001
1.40001
1.40001
1.40001
1.40001
1.40001
1.40001
1.40001
1.40001
1.40001
1.40001
1.40001
1.40001
1.40001
1.40001
1.40001
1.40001
1.40001
1.40001
1.40001
1.40001
1.40001
1.40001
1.40001
1.40001
1.40001
1.40001
1.40001
1.40001
1.40001
1.40001
1.40001
1.40001
1.40001
1.40001
1.40001
1.40001
1.40001
1.40001
1.40001
1.40001
1.40001
1.40001
1.40001
1.40001
1.40001
1.40001
1.40001
1.40001
1.40001
1.40001
1.40001
1.40001
1.40001
1.40001
1.40001
1.40001
1.40001
1.40001
1.40001
1.40001
1.40001
1.40001
1.40001
1.40001
1.40001
1.40001
1.40001
1.40001
1.40001
1.40001
1.40001
1.40001
1.40001
1.40001
1.40001
1.40001
1.40001
1.40001
1.40001
1.40001
1.40001
1.40001
1.40001
1.40001
1.40001
1.40001
1.40001
1.40001
1.40001
1.40001
1.40001
1.40001
1.40001
1.40001
1.40001
1.40001
1.40001
1.40001
1.40001
1.40001
1.40001
1.40001
1.40001
1.40001
1.40001
1.40001
1.40001
1.40001
1.40001
1.40001
1.40001
1.40001
1.40001
1.40001
1.40001
1.40001
1.40001
1.40001
1.40001
1.40001
1.40001
1.40001
1.40001
1.40001
1.40001
1.40001
1.40001
1.40001
1.40001
1.40001
1.40001
2.09571
1.41261
1.40001
1.40001
1.40001
1.40001
1.40001
1.40001
1.40001
1.40001
1.40001
1.40001
1.40001
1.40001
1.40001
1.40001
1.40001
1.40001
1.40001
1.40001
3.01277
1.59418
1.39943
1.40001
1.40001
1.40001
1.40001
1.40001
1.40001
1.40001
1.40001
1.40001
1.40001
1.40001
1.40001
1.40001
1.40001
1.40001
1.40001
1.40001
4.04402
2.12862
1.4128
1.39997
1.40001
1.40001
1.40001
1.40001
1.40001
1.40001
1.40001
1.40001
1.40001
1.40001
1.40001
1.40001
1.40001
1.40001
1.40001
1.40001
4.46818
3.09366
1.77309
1.40076
1.40001
1.40001
1.40001
1.40001
1.40001
1.40001
1.40001
1.40001
1.40001
1.40001
1.40001
1.40001
1.40001
1.40001
1.40001
1.40001
4.29608
3.69846
2.87343
1.57981
1.39976
1.4
1.40001
1.40001
1.40001
1.40001
1.40001
1.40001
1.40001
1.40001
1.40001
1.40001
1.40001
1.40001
1.40001
1.40001
3.84538
3.7019
3.57721
2.51667
1.49337
1.3998
1.4
1.40001
1.40001
1.40001
1.40001
1.40001
1.40001
1.40001
1.40001
1.40001
1.40001
1.40001
1.40001
1.40001
3.48792
3.59124
3.70081
3.30197
2.07859
1.42019
1.39995
1.4
1.40001
1.40001
1.40001
1.40001
1.40001
1.40001
1.40001
1.40001
1.40001
1.40001
1.40001
1.40001
3.4276
3.51044
3.64629
3.56105
2.9572
1.68492
1.40089
1.40001
1.40001
1.40001
1.40001
1.40001
1.40001
1.40001
1.40001
1.40001
1.40001
1.40001
1.40001
1.40001
3.45859
3.4924
3.51546
3.52479
3.44262
2.4887
1.50021
1.39994
1.4
1.40001
1.40001
1.40001
1.40001
1.40001
1.40001
1.40001
1.40001
1.40001
1.40001
1.40001
3.50681
3.47302
3.42809
3.45972
3.48896
3.14754
1.94993
1.41132
1.39999
1.4
1.40001
1.40001
1.40001
1.40001
1.40001
1.40001
1.40001
1.40001
1.40001
1.40001
3.50417
3.47768
3.44058
3.44681
3.4764
3.46517
2.73311
1.56331
1.40022
1.4
1.40001
1.40001
1.40001
1.40001
1.40001
1.40001
1.40001
1.40001
1.40001
1.40001
3.51353
3.49942
3.46765
3.45085
3.45651
3.46643
3.16797
2.09399
1.42745
1.4
1.40001
1.40001
1.40001
1.40001
1.40001
1.40001
1.40001
1.40001
1.40001
1.40001
3.54896
3.53913
3.49531
3.44976
3.42735
3.44108
3.40559
2.78381
1.61383
1.40073
1.40001
1.40001
1.40001
1.40001
1.40001
1.40001
1.40001
1.40001
1.40001
1.40001
3.57504
3.55466
3.50405
3.45507
3.43084
3.45548
3.4893
3.30752
2.18264
1.46815
1.40079
1.40001
1.40001
1.40001
1.40001
1.40001
1.40001
1.40001
1.40001
1.40001
3.57337
3.55064
3.50686
3.47567
3.46407
3.47597
3.48944
3.41879
2.75499
1.51794
1.38953
1.39914
1.4
1.4
1.40001
1.40001
1.40001
1.40001
1.40001
1.40001
1.74239
2.61464
3.0569
3.26719
3.38199
3.43815
3.47536
3.40484
3.44022
2.54169
1.64932
1.415
1.40035
1.40001
1.40001
1.40001
1.40001
1.40001
1.40001
1.40001
0.465543
1.50924
2.27269
2.72313
3.0275
3.2393
3.38057
3.366
3.47689
3.30139
2.43917
1.61827
1.4135
1.40031
1.40001
1.40001
1.40001
1.40001
1.40001
1.40001
0.178178
0.786401
1.43919
2.05845
2.5076
2.83687
3.10943
3.2434
3.41198
3.41217
3.14296
2.25797
1.54631
1.40718
1.40014
1.40001
1.40001
1.40001
1.40001
1.40001
0.228847
0.586054
0.934221
1.38947
1.92953
2.34908
2.721
2.96891
3.20731
3.36677
3.33975
2.98771
2.02187
1.47259
1.40246
1.40004
1.40001
1.40001
1.40001
1.40001
0.319331
0.509853
0.720809
1.00948
1.3985
1.86354
2.26772
2.62906
2.89301
3.17927
3.31424
3.26942
2.75423
1.77799
1.42652
1.40054
1.40001
1.40001
1.40001
1.40001
0.369633
0.407805
0.52802
0.840014
1.12669
1.48452
1.86235
2.26536
2.56313
2.89472
3.17679
3.25396
3.11438
2.37672
1.57284
1.40727
1.40011
1.40001
1.40001
1.40001
0.42469
0.373034
0.379202
0.637581
0.932161
1.24365
1.58272
1.89091
2.26754
2.54874
2.89425
3.16921
3.15932
2.84827
1.93198
1.44753
1.40099
1.40002
1.40001
1.40001
0.466318
0.391225
0.385859
0.551964
0.766791
1.03272
1.35353
1.64188
1.99507
2.28918
2.61345
2.95352
3.13223
3.07675
2.45702
1.61367
1.40945
1.40013
1.40001
1.40001
0.459704
0.419105
0.436578
0.534815
0.667424
0.855718
1.11593
1.45465
1.71416
2.06209
2.37574
2.72218
3.03021
3.07647
2.84348
1.94544
1.44967
1.40106
1.40002
1.40001
0.436537
0.426594
0.476773
0.521283
0.585917
0.759092
0.943872
1.27312
1.54714
1.8427
2.11119
2.44959
2.80627
3.03858
2.996
2.44847
1.59078
1.40695
1.40009
1.40001
0.425357
0.436195
0.494695
0.490219
0.50439
0.679149
0.845987
1.08662
1.43023
1.60648
1.90104
2.18421
2.54692
2.90038
2.9857
2.73502
1.89898
1.43607
1.40057
1.40001
0.43271
0.457712
0.494489
0.475683
0.476227
0.619437
0.778795
0.953223
1.2906
1.49565
1.77318
2.02751
2.35146
2.72211
2.95127
2.85601
2.23249
1.53126
1.40364
1.40004
0.445698
0.470477
0.494564
0.475298
0.476896
0.578367
0.731414
0.881742
1.13869
1.39061
1.61567
1.88791
2.15468
2.51551
2.86512
2.88509
2.50634
1.69428
1.41494
1.4002
0.443208
0.4674
0.495047
0.481878
0.482301
0.553749
0.676513
0.831536
0.993415
1.26714
1.45618
1.74869
1.97222
2.28797
2.69781
2.87517
2.75172
1.99298
1.45282
1.40094
0.432529
0.454055
0.487496
0.486799
0.492357
0.545001
0.60482
0.765709
0.908523
1.13366
1.3483
1.58575
1.85765
2.11577
2.48327
2.826
2.81368
2.3217
1.57097
1.4055
0.510058
0.458396
0.490537
0.501643
0.521313
0.548909
0.572182
0.746824
0.891133
1.05397
1.30254
1.50642
1.77854
2.02926
2.32007
2.72159
2.80241
2.47992
1.71832
1.41636
0.594643
0.495414
0.509403
0.523184
0.533804
0.546644
0.571376
0.719523
0.879254
1.01083
1.24954
1.45022
1.65837
1.908
2.19672
2.58428
2.77395
2.65412
1.93607
1.44582
0.694085
0.572746
0.523277
0.53113
0.533132
0.539821
0.577961
0.692594
0.853336
0.984594
1.14483
1.39401
1.58267
1.78558
2.05618
2.43242
2.73372
2.7198
2.20053
1.53263
0.824011
0.717934
0.552285
0.526821
0.528787
0.524253
0.592191
0.686267
0.800078
0.968203
1.09754
1.29653
1.51905
1.7194
1.9431
2.26195
2.62739
2.7121
2.40126
1.7039
0.971652
0.872674
0.6066
0.51984
0.522268
0.52136
0.60526
0.683738
0.74209
0.931759
1.08363
1.22424
1.42632
1.63933
1.84925
2.11162
2.4702
2.66146
2.5495
1.98999
1.02614
0.98394
0.7708
0.530144
0.515699
0.526837
0.608546
0.675551
0.719732
0.860577
1.03678
1.18451
1.35225
1.54624
1.74375
1.97922
2.31653
2.61011
2.57936
2.36353
1.01739
1.08038
0.972988
0.608017
0.516048
0.532864
0.603677
0.657342
0.722214
0.842208
0.971638
1.12616
1.28296
1.46904
1.65235
1.85386
2.14965
2.5076
2.61286
2.79112
0.990711
1.08694
1.05305
0.814359
0.542883
0.531419
0.592724
0.63483
0.724521
0.836521
0.934921
1.07388
1.21507
1.38613
1.56808
1.75302
1.99876
2.34473
2.68723
3.18278
0.996826
1.07541
1.10999
1.02023
0.628183
0.531222
0.58289
0.622992
0.719444
0.813918
0.906351
1.04368
1.17311
1.32139
1.49094
1.66689
1.86762
2.18678
2.7217
3.57876
1.02875
1.08449
1.1476
1.11989
0.900732
0.611251
0.581095
0.620829
0.703876
0.77229
0.856504
0.9794
1.0949
1.2264
1.37016
1.5291
1.70343
2.04781
2.78882
3.96411
)
;

boundaryField
{
    inlet
    {
        type            calculated;
        value           uniform 1.40001;
    }
    outlet
    {
        type            calculated;
        value           nonuniform List<scalar> 
35
(
1.02856
1.08451
1.14775
1.12001
0.900785
0.611262
0.581117
0.620767
0.703911
0.772258
0.856571
0.979558
1.09491
1.22633
1.37018
1.52916
1.70349
2.0478
2.78882
3.96423
1.00652
1.01929
1.02541
0.917271
0.591375
0.559077
0.670318
0.788406
0.90526
1.07639
1.28481
1.60286
1.99816
2.13255
2.2138
)
;
    }
    airfoil
    {
        type            calculated;
        value           nonuniform List<scalar> 
60
(
0.263334
0.271109
0.292286
0.31112
0.314399
0.288451
0.224659
0.153356
0.113102
0.0981664
0.0863064
0.0805051
0.246396
0.735147
1.65225
2.88901
2.88208
2.82064
2.78552
2.77109
2.80269
2.92679
3.15091
3.38461
3.49752
3.43826
3.13695
2.77446
2.25684
1.76537
2.09571
3.01277
4.04402
4.46818
4.29608
3.84538
3.48792
3.4276
3.45859
3.50681
3.50417
3.51353
3.54896
3.57504
3.57337
1.74239
0.465543
0.178178
0.228847
0.319331
0.369633
0.42469
0.466318
0.459704
0.436537
0.425357
0.43271
0.445698
0.443208
0.432529
)
;
    }
    top
    {
        type            symmetryPlane;
    }
    bottom
    {
        type            symmetryPlane;
    }
    defaultFaces
    {
        type            empty;
    }
}


// ************************************************************************* //
