/*--------------------------------*- C++ -*----------------------------------*\
  =========                 |
  \\      /  F ield         | OpenFOAM: The Open Source CFD Toolbox
   \\    /   O peration     | Website:  https://openfoam.org
    \\  /    A nd           | Version:  7
     \\/     M anipulation  |
\*---------------------------------------------------------------------------*/
FoamFile
{
    version     2.0;
    format      ascii;
    class       volScalarField;
    location    "7";
    object      p;
}
// * * * * * * * * * * * * * * * * * * * * * * * * * * * * * * * * * * * * * //

dimensions      [1 -1 -2 0 0 0 0];

internalField   nonuniform List<scalar> 
90000
(
0.0629404
0.0954066
0.129547
0.152554
0.176735
0.206262
0.224705
0.240314
0.263437
0.283996
0.302281
0.323803
0.346743
0.371023
0.398669
0.427274
0.457812
0.490868
0.52589
0.56172
0.598544
0.634381
0.672863
0.7068
0.742932
0.773813
0.801652
0.825658
0.84285
0.850977
0.856349
0.852435
0.848057
0.843854
0.837471
0.825517
0.820113
0.821334
0.818137
0.809607
0.803077
0.797861
0.792228
0.787993
0.789555
0.78949
0.785686
0.787281
0.78518
0.782335
0.783936
0.787457
0.788512
0.790384
0.793126
0.796014
0.795622
0.792234
0.787592
0.783605
0.781589
0.782521
0.78511
0.791222
0.799145
0.809114
0.813074
0.816519
0.817783
0.813787
0.806934
0.799086
0.792826
0.787511
0.78734
0.788412
0.791578
0.794124
0.795631
0.796692
0.796051
0.793892
0.794479
0.798861
0.807359
0.816706
0.827214
0.83576
0.844381
0.856086
0.859223
0.867831
0.87178
0.878669
0.889863
0.901825
0.906505
0.909578
0.912462
0.923265
0.0360635
0.0360495
0.0360367
0.036024
0.0360073
0.0359945
0.0359822
0.0359723
0.03596
0.0359544
0.035952
0.0359678
0.0359447
0.0361611
0.037141
0.039542
0.0436157
0.0505496
0.0599863
0.0728573
0.0896412
0.110866
0.136873
0.171171
0.209
0.258319
0.314072
0.37607
0.444817
0.51567
0.590753
0.654842
0.719107
0.763643
0.801135
0.82443
0.838973
0.839753
0.837436
0.822826
0.813335
0.798502
0.792534
0.787703
0.784084
0.787573
0.795115
0.796146
0.797198
0.800739
0.802741
0.803787
0.805156
0.806263
0.803807
0.801267
0.797495
0.795382
0.794269
0.797111
0.803277
0.806922
0.81072
0.816064
0.818881
0.818067
0.811691
0.800324
0.791701
0.786331
0.78445
0.786347
0.789874
0.79445
0.797498
0.798949
0.802625
0.802691
0.798541
0.793817
0.791582
0.79229
0.797617
0.808319
0.818099
0.82724
0.835584
0.84526
0.852209
0.861711
0.865619
0.870713
0.877797
0.887235
0.899668
0.906788
0.908502
0.910013
0.914421
0.927813
0.0361906
0.0361904
0.0361967
0.0362008
0.0361986
0.0361972
0.0362028
0.0362098
0.0362162
0.0362236
0.0362349
0.0362448
0.0362502
0.0362484
0.0362432
0.0362529
0.0362248
0.0361956
0.0361676
0.0361425
0.0361261
0.0361239
0.0361238
0.0361225
0.0361183
0.0361236
0.0361165
0.0375774
0.0431831
0.0555969
0.0756032
0.109469
0.148079
0.205578
0.268821
0.340909
0.418403
0.492615
0.564994
0.629507
0.697538
0.744417
0.791981
0.821484
0.846717
0.861012
0.877736
0.870748
0.868122
0.858737
0.844942
0.824464
0.799536
0.772293
0.739305
0.727437
0.727292
0.743471
0.771072
0.801168
0.825244
0.834171
0.830736
0.816576
0.800053
0.786106
0.777875
0.777344
0.784193
0.795108
0.803246
0.808714
0.811747
0.813603
0.807299
0.79759
0.786695
0.783338
0.784699
0.790449
0.796529
0.804967
0.815697
0.824418
0.831355
0.838759
0.845268
0.854208
0.859901
0.867582
0.870968
0.874987
0.884004
0.897854
0.906983
0.909321
0.909735
0.911052
0.919714
0.933053
0.0361082
0.0361123
0.0361179
0.0361283
0.0361384
0.0361466
0.0361557
0.0361684
0.0361831
0.036194
0.036202
0.0362068
0.0362126
0.0362186
0.0362259
0.0362291
0.0362283
0.0362237
0.0362186
0.0362164
0.0362224
0.0362419
0.0362638
0.0362731
0.0362773
0.0362793
0.0362757
0.036267
0.0362502
0.0362497
0.0362686
0.0362854
0.0362879
0.0362854
0.0362626
0.036669
0.040724
0.0547203
0.0773789
0.118637
0.166009
0.236909
0.308991
0.395028
0.485645
0.561843
0.641506
0.699553
0.761556
0.787519
0.819793
0.81709
0.814406
0.805241
0.798028
0.797761
0.798641
0.79628
0.788234
0.78352
0.780661
0.786765
0.793048
0.792683
0.793183
0.795826
0.796801
0.799507
0.805463
0.811279
0.810337
0.80513
0.796273
0.787676
0.783907
0.785235
0.789901
0.79677
0.803905
0.811759
0.817996
0.824395
0.829255
0.832941
0.836969
0.845026
0.853367
0.863474
0.868795
0.870947
0.874252
0.880767
0.8956
0.90908
0.914871
0.911417
0.908977
0.915344
0.927454
0.93689
0.0362485
0.0362562
0.0362637
0.0362727
0.0362808
0.0362848
0.0362867
0.0362902
0.0362938
0.0362948
0.0362948
0.0362971
0.0363051
0.0363128
0.0363165
0.0363159
0.0363101
0.0362959
0.0362815
0.0362763
0.0362763
0.0362865
0.0363127
0.0363201
0.036321
0.0363196
0.0363161
0.0363146
0.036304
0.0362831
0.0362865
0.0363128
0.036329
0.0363335
0.0363304
0.0363094
0.0362826
0.0362516
0.0362166
0.0361901
0.0361698
0.0361516
0.0361153
0.0411902
0.0539765
0.0869005
0.130199
0.206159
0.29134
0.39917
0.512049
0.613554
0.716981
0.782003
0.858135
0.86752
0.867013
0.857002
0.835426
0.801713
0.758078
0.728711
0.727322
0.74155
0.769381
0.800006
0.824377
0.83359
0.822335
0.801008
0.779648
0.765088
0.761107
0.770513
0.788078
0.805114
0.816084
0.819711
0.81784
0.815491
0.816264
0.820034
0.828108
0.840129
0.852125
0.863264
0.870658
0.873268
0.87262
0.873808
0.880198
0.89721
0.917867
0.913914
0.906083
0.903829
0.915663
0.930225
0.939111
0.939614
0.0363221
0.0363221
0.0363224
0.0363218
0.0363198
0.0363153
0.0363091
0.0363047
0.0363002
0.0362905
0.0362835
0.0362834
0.0362912
0.0363049
0.0363086
0.0363092
0.0363054
0.0362917
0.0362808
0.0362763
0.0362701
0.0362676
0.03628
0.0362997
0.0363067
0.036308
0.0363042
0.0362953
0.0362965
0.0363008
0.0362881
0.0362667
0.0362698
0.0362759
0.0362759
0.0362701
0.0362434
0.0361786
0.03612
0.0360943
0.0360827
0.0360655
0.0360393
0.0360199
0.0360291
0.0360391
0.0360296
0.0360148
0.0359818
0.0426977
0.0606915
0.114674
0.192003
0.314312
0.447188
0.566342
0.676326
0.728195
0.773749
0.771157
0.765045
0.763121
0.769823
0.77775
0.784219
0.793689
0.809248
0.811688
0.802894
0.795681
0.788137
0.788692
0.782874
0.786716
0.797175
0.807457
0.814073
0.81558
0.815317
0.817924
0.823376
0.836643
0.851089
0.862095
0.866596
0.865113
0.865388
0.866955
0.873506
0.883648
0.898874
0.915425
0.907394
0.902784
0.905751
0.91505
0.936263
0.938637
0.92987
0.937767
0.0362818
0.0362838
0.036287
0.0362889
0.03629
0.0362902
0.036288
0.0362846
0.0362808
0.0362669
0.0362427
0.0362372
0.0362392
0.0362524
0.0362599
0.0362632
0.0362643
0.0362653
0.0362645
0.036258
0.0362567
0.0362585
0.0362529
0.0362615
0.0362799
0.0362834
0.0362819
0.0362708
0.0362474
0.0362163
0.0361956
0.0362
0.0362052
0.0362015
0.0361832
0.036126
0.0360689
0.0360485
0.0360443
0.0360388
0.036027
0.0359967
0.035963
0.035957
0.0359834
0.0359945
0.035986
0.0359719
0.0359579
0.0359284
0.0359011
0.0358778
0.0358684
0.0359194
0.0453641
0.0893908
0.166417
0.289698
0.440239
0.57355
0.708945
0.781239
0.816946
0.81232
0.806969
0.795712
0.772281
0.743504
0.743667
0.759381
0.77883
0.79565
0.810348
0.813304
0.804168
0.797541
0.797434
0.807987
0.822899
0.834755
0.840362
0.842084
0.854553
0.868268
0.873271
0.869535
0.8665
0.873854
0.890562
0.90364
0.910299
0.904474
0.905524
0.912808
0.919301
0.927132
0.928874
0.931518
0.938027
0.952649
0.0362506
0.036254
0.0362695
0.0362778
0.0362795
0.0362776
0.0362776
0.036283
0.0362869
0.0362868
0.0362795
0.0362625
0.0362415
0.0362263
0.0362154
0.0362079
0.0362002
0.0361969
0.0362058
0.0362173
0.0362191
0.0362164
0.0362023
0.0361898
0.0361873
0.0361813
0.0361559
0.0361154
0.036081
0.0360711
0.036091
0.0361217
0.0361256
0.0361207
0.0360977
0.0360247
0.0359782
0.0359756
0.0359916
0.0359902
0.0359727
0.0359301
0.0359139
0.0359352
0.0359609
0.035958
0.0359463
0.0359384
0.0359275
0.0358912
0.0358617
0.0358428
0.035841
0.0358553
0.0357984
0.035725
0.0356083
0.035313
0.0453281
0.0974944
0.199903
0.346588
0.504611
0.604046
0.695292
0.712788
0.727227
0.730433
0.756184
0.779751
0.807274
0.81913
0.827018
0.820311
0.810556
0.803475
0.803125
0.809805
0.82542
0.841925
0.85643
0.862754
0.856225
0.851587
0.857939
0.86953
0.879717
0.883889
0.889864
0.907829
0.915558
0.913507
0.910602
0.912698
0.922759
0.927375
0.928709
0.939012
0.946644
0.952941
0.0362799
0.0362796
0.0362788
0.0362739
0.0362647
0.0362676
0.0362859
0.0363105
0.0363238
0.036322
0.0362943
0.0362107
0.0361259
0.0360921
0.0360715
0.0360587
0.0360614
0.0360778
0.0360863
0.0360873
0.0360865
0.0360821
0.0360732
0.0360598
0.0360475
0.0360304
0.0359965
0.0359629
0.0359574
0.0359756
0.0360408
0.0360831
0.0360857
0.03608
0.0360469
0.0359658
0.0359274
0.0359286
0.0359482
0.0359452
0.0359201
0.035879
0.0358649
0.035888
0.0359164
0.0359132
0.0358991
0.0358837
0.0358639
0.0358223
0.0357463
0.0356425
0.0354893
0.0352784
0.035071
0.0349479
0.0348632
0.0347694
0.0346877
0.0345564
0.0342834
0.0380886
0.0630281
0.143836
0.267023
0.420708
0.590406
0.693919
0.780476
0.788006
0.806227
0.81742
0.813059
0.797294
0.801482
0.807652
0.814528
0.821192
0.828468
0.837721
0.849868
0.866319
0.873154
0.868693
0.861433
0.862659
0.879731
0.89749
0.906092
0.896474
0.898638
0.907745
0.914624
0.918688
0.922638
0.938711
0.941338
0.94131
0.946887
0.95819
0.0362037
0.0361919
0.0361817
0.0361805
0.0361856
0.036215
0.0362768
0.0362992
0.0362962
0.0362246
0.0360251
0.0359477
0.0359443
0.0359426
0.0359306
0.0359211
0.0359325
0.0359502
0.0359515
0.0359488
0.0359524
0.0359566
0.0359518
0.0359463
0.0359431
0.0359357
0.0359205
0.0359109
0.0359181
0.0359564
0.036047
0.0360824
0.0360814
0.0360703
0.0360142
0.0359194
0.0358825
0.0358722
0.0358828
0.035879
0.0358422
0.0357847
0.0357695
0.0357991
0.035796
0.035756
0.0356869
0.0355935
0.0354234
0.0352019
0.0349682
0.0347681
0.0346438
0.0345697
0.0345091
0.0344815
0.0344754
0.0344654
0.0343982
0.0342203
0.0340177
0.0339054
0.0338905
0.0338722
0.0338772
0.052022
0.108277
0.245755
0.416326
0.554164
0.680133
0.726312
0.765084
0.781362
0.819702
0.833116
0.845464
0.846526
0.845464
0.85011
0.85583
0.856819
0.862739
0.866696
0.869385
0.872999
0.881956
0.893342
0.91067
0.912303
0.906467
0.905901
0.913195
0.925879
0.93338
0.924466
0.930669
0.944481
0.952832
0.960002
0.0360865
0.036075
0.0360681
0.0360761
0.0361046
0.0361058
0.0360959
0.0361038
0.036108
0.0360596
0.0359016
0.0358238
0.0358184
0.0358184
0.0358216
0.0358312
0.0358569
0.0358811
0.0358842
0.0358815
0.0358793
0.0358833
0.035886
0.0358864
0.0358943
0.0359119
0.035922
0.0359245
0.035924
0.035938
0.0359966
0.0360303
0.0360248
0.036006
0.0359526
0.0358501
0.0357713
0.0357517
0.0357333
0.0356663
0.0354837
0.0352761
0.0352392
0.0352064
0.0351259
0.0349969
0.0348742
0.0348013
0.0347158
0.0345975
0.0344418
0.0343673
0.0343765
0.0343818
0.0343479
0.0342491
0.0341841
0.0341343
0.0340604
0.0339697
0.0338862
0.0338591
0.033857
0.0338853
0.0341677
0.0349033
0.0362239
0.037167
0.0465271
0.112109
0.220663
0.388866
0.588718
0.707026
0.794351
0.813282
0.847229
0.858856
0.849535
0.851834
0.846198
0.846491
0.856154
0.872665
0.887532
0.896923
0.902115
0.901399
0.901522
0.905385
0.907304
0.910144
0.915845
0.923801
0.937784
0.940024
0.937164
0.943886
0.954638
0.96304
0.0359651
0.035973
0.0359724
0.0359697
0.0359634
0.0359403
0.0359315
0.0359444
0.0359513
0.0359409
0.0358728
0.0358117
0.0358029
0.0358042
0.0358201
0.0358636
0.0358819
0.0358782
0.035867
0.0358527
0.0358448
0.0358416
0.0358432
0.0358421
0.0358396
0.0358451
0.0358546
0.0358597
0.0358539
0.0358343
0.0357865
0.0356985
0.0355947
0.0354944
0.0353813
0.0352307
0.0350597
0.0349224
0.0348094
0.0346709
0.0345129
0.0343328
0.0343034
0.0343324
0.0343177
0.0342988
0.034357
0.0345033
0.0345282
0.034492
0.0343485
0.0342716
0.034265
0.0342423
0.0341297
0.0339823
0.0339572
0.033962
0.033958
0.0339177
0.0338917
0.0339477
0.0342912
0.0353286
0.0370048
0.0387726
0.0400822
0.041259
0.0419133
0.041642
0.0412743
0.0530069
0.103978
0.252816
0.441926
0.605723
0.746891
0.784683
0.821848
0.875773
0.867352
0.85936
0.879636
0.885146
0.893235
0.903774
0.90138
0.892186
0.890615
0.898215
0.91046
0.92002
0.927208
0.930173
0.930574
0.935984
0.942319
0.949413
0.954405
0.96108
0.0360166
0.0360156
0.0360123
0.0360026
0.0359959
0.0359895
0.0359847
0.0359788
0.0359555
0.0359451
0.0359423
0.0359337
0.0359111
0.0358783
0.0358514
0.0358304
0.035814
0.0357979
0.0357715
0.0357383
0.0357106
0.0356807
0.0356563
0.0356229
0.0355562
0.0354582
0.0353518
0.0352284
0.0350421
0.0348567
0.0346982
0.0345607
0.0344489
0.0343388
0.0342186
0.034087
0.0339597
0.033945
0.0339482
0.033912
0.0338321
0.0338305
0.0339161
0.0341028
0.0341802
0.0342033
0.0343019
0.034445
0.0344578
0.0344175
0.0342446
0.0341441
0.0341255
0.0340999
0.0339889
0.0339118
0.0339144
0.0339393
0.0340104
0.03432
0.0351831
0.0365758
0.038445
0.0402645
0.0414335
0.0418736
0.0420133
0.0423478
0.0423963
0.0423739
0.0432967
0.0448162
0.0466512
0.0478545
0.0594641
0.140925
0.286588
0.47856
0.668635
0.757941
0.814205
0.843917
0.907624
0.891117
0.891575
0.896349
0.891476
0.899282
0.909689
0.916474
0.922043
0.923649
0.923299
0.919035
0.924888
0.941651
0.956355
0.96017
0.959159
0.962862
0.0359367
0.0359045
0.0358562
0.035794
0.0357235
0.0356492
0.0355702
0.035487
0.0354096
0.03535
0.0352983
0.0352371
0.0351638
0.0350916
0.0350194
0.0349429
0.0348524
0.0347507
0.0346652
0.0345871
0.0345084
0.0344305
0.0343496
0.0342634
0.0341614
0.0340505
0.0339458
0.0338473
0.0337338
0.0336593
0.0336638
0.0337153
0.0337662
0.0337676
0.0337419
0.0336812
0.0336738
0.0337221
0.0337873
0.0337841
0.033768
0.0337821
0.033951
0.0342569
0.0343389
0.0343205
0.0343058
0.0342945
0.034289
0.034262
0.0341271
0.0340605
0.0340687
0.034085
0.034005
0.03405
0.034356
0.0352282
0.0367924
0.0388027
0.0404398
0.0417357
0.0426169
0.0432236
0.0432535
0.0430489
0.0427272
0.0425639
0.0430368
0.0451854
0.0484922
0.0514992
0.0523094
0.0523977
0.052844
0.053162
0.0534349
0.0841978
0.1725
0.336983
0.567733
0.720225
0.801931
0.836814
0.909527
0.923382
0.913419
0.913824
0.907721
0.900743
0.91273
0.923768
0.931984
0.939022
0.942902
0.949692
0.954364
0.952791
0.951872
0.958251
0.0341966
0.0341011
0.0339955
0.0338964
0.0337929
0.0337261
0.0336809
0.0335984
0.0335245
0.0335235
0.0335393
0.0335394
0.0335134
0.0335083
0.0335256
0.0335666
0.0335983
0.0336065
0.0336112
0.0336198
0.0336268
0.0336298
0.0336207
0.0336097
0.033592
0.0335468
0.0335398
0.033546
0.033543
0.0335446
0.0335827
0.0337411
0.0339008
0.0339224
0.0339146
0.033919
0.0339625
0.0340695
0.0341259
0.0341287
0.0341225
0.0341292
0.0342243
0.0343888
0.0344112
0.0343709
0.0342745
0.0342274
0.0342381
0.0342239
0.0342404
0.0344099
0.0349329
0.0359031
0.0371453
0.0384689
0.0398724
0.0411871
0.0424674
0.0433873
0.0437029
0.0438945
0.043983
0.0439757
0.0438245
0.0436285
0.0441374
0.045701
0.0483852
0.0507052
0.0527818
0.0547695
0.0549235
0.0542739
0.0541198
0.0548303
0.0572081
0.059385
0.0603585
0.0618246
0.104761
0.243773
0.415963
0.622991
0.777165
0.824296
0.877154
0.944689
0.930986
0.913641
0.920348
0.924834
0.937792
0.945323
0.948956
0.948785
0.950706
0.957384
0.963451
0.969816
0.0327016
0.0326997
0.0327005
0.0327013
0.0327047
0.0327166
0.0327363
0.0327498
0.0327664
0.0328069
0.0328792
0.0329435
0.0329921
0.0330497
0.0331299
0.033226
0.033327
0.0333982
0.0334385
0.0335045
0.0335591
0.0335658
0.03357
0.0335774
0.033593
0.0336506
0.0337943
0.0339367
0.0339961
0.0340311
0.0341314
0.0343909
0.0345387
0.0345331
0.0344879
0.0344818
0.0345579
0.0346533
0.0346402
0.0346113
0.0346259
0.0346522
0.0345538
0.0344308
0.0344668
0.0347392
0.0350659
0.0352191
0.0355652
0.0365155
0.0380793
0.0398328
0.041302
0.0422577
0.0431555
0.0440696
0.0444685
0.0445804
0.0447615
0.0448092
0.0447003
0.0443924
0.044232
0.0444956
0.0456056
0.0480809
0.0509926
0.0536985
0.0552251
0.0552232
0.0552107
0.0557861
0.0563922
0.0567192
0.057294
0.0586296
0.0615405
0.0644995
0.065352
0.0659962
0.0662486
0.0668222
0.0741242
0.147918
0.301765
0.519141
0.736447
0.825534
0.87461
0.927442
0.945451
0.932564
0.937585
0.936073
0.944734
0.950789
0.96388
0.970802
0.965985
0.96362
0.0332123
0.0332746
0.0333284
0.0333769
0.0334382
0.0334982
0.0335531
0.0336253
0.0337323
0.033835
0.0338993
0.0339655
0.0340577
0.0341893
0.0343282
0.0343686
0.0343556
0.0343478
0.0343488
0.0343939
0.0344746
0.0344911
0.0344828
0.0344684
0.0344783
0.0345543
0.0347161
0.0348785
0.0349347
0.0349315
0.0349336
0.0350034
0.0351978
0.0352298
0.035213
0.0352403
0.0354579
0.035776
0.0360632
0.0363014
0.0365241
0.0368618
0.0374198
0.0381436
0.0389082
0.0397436
0.0406822
0.0416572
0.0425669
0.0432315
0.0438984
0.0446414
0.0451028
0.0451679
0.0453262
0.0456961
0.0457104
0.0456231
0.0455465
0.0456998
0.046168
0.0470735
0.0485055
0.0505469
0.0529859
0.0549708
0.0562911
0.0574038
0.0576395
0.0573718
0.0563847
0.056284
0.0573332
0.0603787
0.0639984
0.0656808
0.0662536
0.0674395
0.0679006
0.0680694
0.0691414
0.071933
0.0743387
0.0746698
0.0750529
0.111809
0.221358
0.415296
0.673099
0.818381
0.900682
0.912017
0.969908
0.962675
0.956429
0.94762
0.951505
0.958057
0.968419
0.97729
0.0348794
0.0349527
0.0349686
0.0349577
0.0347931
0.0346287
0.0346211
0.0346585
0.0347134
0.0347439
0.034778
0.0348104
0.0348915
0.0351454
0.0353344
0.0353399
0.0352408
0.0351806
0.0351604
0.0351502
0.0351851
0.0353403
0.0354223
0.0354572
0.0355521
0.0358152
0.0362111
0.0365214
0.0366031
0.0365459
0.0365324
0.0367013
0.0372849
0.0380285
0.0385408
0.0389213
0.0394735
0.0404899
0.0416731
0.0423061
0.0425299
0.0427797
0.043313
0.0441889
0.0450048
0.0454028
0.0456509
0.0459672
0.0462133
0.0462667
0.0463679
0.046607
0.046598
0.0463685
0.0462524
0.0464321
0.0469699
0.0479106
0.0492768
0.0512443
0.0535203
0.0556021
0.0567573
0.0572532
0.057752
0.0581641
0.0583037
0.0584892
0.0587544
0.0593539
0.0605208
0.0619319
0.0634328
0.06555
0.0683644
0.0695686
0.0692611
0.0693421
0.0702224
0.0718184
0.0743631
0.0768349
0.0777143
0.0783454
0.0796072
0.0816382
0.0830342
0.0929035
0.164201
0.343457
0.604738
0.78555
0.893709
0.915865
0.973018
0.977018
0.971068
0.958834
0.958186
0.971765
0.0369211
0.0369939
0.036978
0.036728
0.036538
0.0365542
0.03664
0.036852
0.0371395
0.0374357
0.0377083
0.0379081
0.0380265
0.0381422
0.0384088
0.0389093
0.0391301
0.0390569
0.0389334
0.038935
0.0391566
0.0396952
0.0400735
0.0402772
0.0406945
0.0412875
0.0417759
0.0421686
0.0424894
0.0427423
0.042979
0.0433682
0.0439507
0.0444189
0.044668
0.0448697
0.0452264
0.0457779
0.0462714
0.0464573
0.0464617
0.0464889
0.046718
0.047258
0.0476253
0.0477085
0.047838
0.0482662
0.0484852
0.0485726
0.0487539
0.0492136
0.0498697
0.0505354
0.0511335
0.0519928
0.0534241
0.0550193
0.0565498
0.0577859
0.0586667
0.0596033
0.0602773
0.0602116
0.0601777
0.0601652
0.0601194
0.0604473
0.0617064
0.0642156
0.0673867
0.0701668
0.0705548
0.0702812
0.0705798
0.0713367
0.0718471
0.0727326
0.0746465
0.0779995
0.0800897
0.0808743
0.0819694
0.0831985
0.0844022
0.0864061
0.0894498
0.0921046
0.0918
0.0920708
0.129292
0.304536
0.543248
0.742388
0.897415
0.918398
0.967716
0.986091
0.982983
0.974931
0.042781
0.0429073
0.0430121
0.0431023
0.0431855
0.0433122
0.0434744
0.0436566
0.043836
0.0440455
0.0443276
0.0445301
0.0445581
0.0446797
0.045303
0.0455088
0.045377
0.0448976
0.0447626
0.0448238
0.0452119
0.0458903
0.0462956
0.0464519
0.0465902
0.0467217
0.046755
0.0468333
0.0469671
0.047133
0.0473606
0.047537
0.047769
0.0481373
0.0482686
0.0482219
0.0481301
0.0481406
0.0484003
0.0488343
0.049028
0.0491064
0.0494612
0.0498135
0.0498616
0.0501465
0.0508215
0.0518527
0.0529716
0.0541635
0.0551988
0.0559296
0.0567898
0.0578113
0.0588758
0.0596202
0.0600749
0.0604682
0.0608737
0.0612011
0.0613719
0.0616256
0.0622733
0.0629662
0.0639844
0.0653593
0.0670003
0.0685656
0.069803
0.0705751
0.0715669
0.0731897
0.0740015
0.0737499
0.0736582
0.0745953
0.0775739
0.0803233
0.0821259
0.0838491
0.0841102
0.0845813
0.0857926
0.0879593
0.0898694
0.0916764
0.0942304
0.0953653
0.0962632
0.0975807
0.0998458
0.101573
0.121014
0.259529
0.496341
0.709555
0.893548
0.923422
0.973106
0.999377
0.0466815
0.0468746
0.047075
0.0473653
0.0476521
0.0476828
0.0476601
0.0476411
0.0476516
0.0477013
0.0478389
0.047889
0.0479143
0.0480759
0.0484324
0.0484566
0.048339
0.0483158
0.0483572
0.0486792
0.0492074
0.0495783
0.0499902
0.0503503
0.0503464
0.0503163
0.05038
0.0506161
0.0510215
0.0513903
0.0516127
0.0517779
0.0521199
0.0529217
0.0534931
0.053478
0.0534066
0.0535197
0.0541229
0.0550234
0.0556623
0.0559708
0.0561905
0.0564968
0.0569845
0.057801
0.0583122
0.0586423
0.059207
0.0601825
0.0608917
0.0611909
0.0615273
0.062132
0.0629852
0.0636929
0.0641534
0.0646651
0.0649941
0.0653076
0.0656642
0.0659944
0.0667461
0.0683683
0.0704406
0.0722667
0.0735467
0.0744545
0.0751725
0.075074
0.0748219
0.0752487
0.0769065
0.0793555
0.0808475
0.0820722
0.0841608
0.08625
0.0873661
0.0874652
0.0880791
0.0892615
0.0910118
0.0933026
0.096554
0.0983031
0.0988958
0.100285
0.102297
0.103739
0.105201
0.108342
0.109604
0.110094
0.118837
0.240838
0.464556
0.700819
0.88953
0.953706
0.0529643
0.0531167
0.0532733
0.0534222
0.0535812
0.0536643
0.0536553
0.0536319
0.053632
0.0536321
0.0536451
0.0537142
0.053816
0.0541305
0.0544451
0.0544527
0.0543673
0.0543505
0.0544819
0.0551713
0.0554314
0.055419
0.0554861
0.0556707
0.05572
0.0557553
0.0560153
0.0565817
0.0567113
0.056701
0.0566839
0.0567469
0.0570702
0.0577352
0.0584686
0.0588895
0.0591783
0.0596003
0.0603114
0.0607397
0.0609896
0.0613254
0.0617849
0.0622559
0.0626879
0.0630586
0.0634547
0.0638854
0.0644304
0.0647398
0.0647611
0.0648872
0.0652504
0.0659884
0.0668637
0.0678302
0.0688652
0.0700373
0.0715002
0.0727516
0.0736351
0.0743088
0.0747563
0.0753
0.0758994
0.0766616
0.0774865
0.078185
0.0790428
0.0798546
0.0806272
0.0813891
0.0830913
0.0860308
0.0889634
0.0897984
0.090057
0.0909111
0.0914601
0.0921296
0.093559
0.0961602
0.0986051
0.100368
0.102167
0.102822
0.103415
0.104393
0.10697
0.110317
0.112066
0.11431
0.116708
0.118013
0.118552
0.119339
0.124652
0.236758
0.431216
0.781268
0.0585673
0.0584687
0.058471
0.0585134
0.0586379
0.0590156
0.0594465
0.0594985
0.0593722
0.0592149
0.0591988
0.0592319
0.0596109
0.0599479
0.0598884
0.059726
0.0597166
0.0598238
0.0604263
0.0607331
0.0607183
0.0607856
0.0610413
0.0612739
0.0613327
0.0613654
0.0615918
0.0623796
0.062846
0.0628163
0.0626919
0.0626786
0.0627955
0.0631111
0.063445
0.0637175
0.0642141
0.064784
0.0649769
0.0652081
0.0656332
0.0663103
0.0671285
0.0678771
0.0686133
0.0693671
0.0701081
0.0708799
0.0716644
0.0723726
0.0729964
0.0736484
0.0743621
0.0748735
0.0751259
0.0753255
0.0757004
0.0764309
0.077452
0.0784764
0.0792435
0.0799243
0.0804182
0.0807135
0.0809192
0.0812783
0.0820583
0.0833555
0.0850334
0.087241
0.089748
0.0916011
0.0922829
0.0927599
0.0942099
0.0950801
0.0950333
0.0952817
0.0966982
0.0986908
0.101084
0.103114
0.105342
0.106986
0.107498
0.108676
0.110391
0.111992
0.114124
0.117862
0.119923
0.120152
0.121481
0.123205
0.124324
0.127362
0.129999
0.130988
0.134194
0.341356
0.0644882
0.0644201
0.0644143
0.0644443
0.0646779
0.065198
0.0653478
0.0652368
0.0650318
0.0650375
0.0651281
0.0653531
0.0656065
0.0659199
0.0661375
0.0661973
0.0662531
0.0664984
0.0670309
0.0676716
0.0681227
0.0683421
0.0684324
0.0685394
0.0687468
0.0692989
0.0700224
0.0703955
0.0705789
0.0707037
0.0708196
0.0709651
0.0712827
0.071884
0.0725875
0.0730626
0.073393
0.0737566
0.0742288
0.0750267
0.0757314
0.0757933
0.0756859
0.0756334
0.0757439
0.0761973
0.0766734
0.0770362
0.0774872
0.0780475
0.078668
0.0794239
0.080209
0.0808171
0.0812039
0.0812312
0.0812423
0.0813454
0.0815682
0.0821583
0.0830497
0.0841771
0.0855951
0.0871923
0.0890847
0.0909145
0.0923499
0.093516
0.0945311
0.0955258
0.0969805
0.0985549
0.0987699
0.0984869
0.09861
0.0997177
0.101079
0.102881
0.104799
0.107662
0.109856
0.111233
0.112421
0.112994
0.113935
0.115314
0.117634
0.120149
0.121427
0.123388
0.125674
0.125907
0.126338
0.128641
0.133351
0.13759
0.138373
0.137894
0.13839
0.141562
0.0733673
0.0733508
0.0733635
0.0734465
0.0737266
0.0739341
0.0739466
0.0739644
0.0740733
0.0743676
0.0747603
0.0750186
0.0752238
0.0754035
0.0754624
0.0755327
0.075774
0.0758561
0.0758605
0.0758932
0.0760531
0.0763058
0.076564
0.0767505
0.0769425
0.0772909
0.0774233
0.0773878
0.0774197
0.0776525
0.0780569
0.0784716
0.0790208
0.0794688
0.0797713
0.0800184
0.0803654
0.0807062
0.0809113
0.081194
0.0814869
0.0815083
0.0814854
0.0816355
0.0821763
0.0832402
0.0837487
0.0836802
0.0833845
0.0833312
0.0834335
0.0840227
0.0852396
0.0864588
0.0876548
0.0890148
0.0905869
0.0920615
0.093096
0.093897
0.0947307
0.095496
0.0963649
0.097639
0.0991401
0.100474
0.101488
0.102147
0.102128
0.101826
0.101805
0.10244
0.10364
0.104619
0.105911
0.107662
0.110799
0.113358
0.115143
0.116656
0.117286
0.118095
0.118499
0.119391
0.120869
0.122866
0.125556
0.128833
0.130185
0.130526
0.13236
0.134719
0.136007
0.137831
0.139915
0.141701
0.144107
0.145987
0.146767
0.149638
0.0818134
0.081823
0.0818687
0.0819728
0.0821202
0.0822755
0.0824036
0.0824892
0.0825565
0.0826271
0.0826681
0.0827429
0.0829894
0.0831721
0.0831639
0.0831519
0.0833512
0.0838188
0.0839594
0.0840139
0.0841366
0.0844022
0.084829
0.0849418
0.0849986
0.0851781
0.0854705
0.0858861
0.086315
0.0863868
0.0863795
0.0864506
0.0866994
0.0867175
0.0867659
0.0869225
0.0874679
0.0877752
0.0879151
0.0881727
0.0887013
0.0895671
0.0906535
0.0915641
0.0921351
0.0928512
0.093706
0.0942383
0.0947079
0.0952806
0.0961171
0.0977469
0.09916
0.0991595
0.0990504
0.0993332
0.100388
0.101829
0.103046
0.103901
0.104425
0.104541
0.104606
0.104656
0.104621
0.104708
0.105159
0.106319
0.107411
0.108316
0.108934
0.110112
0.112388
0.116001
0.118886
0.120594
0.1221
0.122857
0.12364
0.123742
0.124028
0.124586
0.126047
0.128399
0.131086
0.133557
0.135375
0.137451
0.138281
0.13817
0.138483
0.140432
0.144125
0.147347
0.148278
0.149003
0.151285
0.154346
0.156005
0.158133
0.0912699
0.0913296
0.091422
0.091551
0.0917274
0.0918682
0.0919763
0.0921872
0.0922775
0.0922714
0.0923023
0.0924746
0.0926803
0.0928037
0.0929695
0.0932263
0.0934561
0.0936144
0.0937075
0.0937966
0.093896
0.0940316
0.0944649
0.0950967
0.0952957
0.0954104
0.0955943
0.0958279
0.0960538
0.096323
0.0966998
0.0971237
0.0976011
0.0982411
0.098859
0.0993187
0.0997342
0.100267
0.100812
0.101312
0.101638
0.101896
0.102256
0.102626
0.10297
0.103304
0.103744
0.104545
0.10575
0.106334
0.106652
0.107205
0.107951
0.108076
0.108188
0.108966
0.109362
0.109142
0.108936
0.109132
0.109875
0.110957
0.112404
0.114002
0.115085
0.115514
0.115961
0.117061
0.119544
0.122825
0.125591
0.126677
0.127032
0.127827
0.1289
0.129457
0.129346
0.129468
0.129664
0.130399
0.131806
0.134293
0.137059
0.139959
0.142388
0.143627
0.143917
0.144348
0.145406
0.147164
0.148826
0.151746
0.154907
0.156898
0.158637
0.158995
0.158869
0.159694
0.162935
0.167575
0.103578
0.10372
0.103953
0.104098
0.104176
0.10424
0.104334
0.104458
0.104623
0.10478
0.10496
0.105256
0.105461
0.10553
0.105594
0.105722
0.105923
0.106142
0.106365
0.106541
0.106682
0.106929
0.107176
0.107504
0.107882
0.108141
0.108296
0.10845
0.108712
0.109122
0.109461
0.109668
0.109848
0.110172
0.110712
0.110881
0.110949
0.1111
0.1114
0.111804
0.112164
0.112534
0.113022
0.113672
0.114282
0.114642
0.11495
0.115388
0.115542
0.115388
0.115261
0.115477
0.116351
0.117529
0.118612
0.11982
0.1206
0.120943
0.1215
0.122658
0.12358
0.12432
0.125526
0.127364
0.1293
0.130878
0.131994
0.132391
0.132534
0.132848
0.133989
0.134896
0.134929
0.134458
0.134596
0.135009
0.136002
0.137622
0.140462
0.143623
0.14678
0.149135
0.150692
0.15184
0.15284
0.152862
0.152892
0.153316
0.155399
0.158415
0.1615
0.164197
0.164444
0.16403
0.164338
0.166092
0.168359
0.171621
0.174615
0.177636
0.116858
0.117001
0.117167
0.117224
0.117231
0.117238
0.117398
0.117627
0.117769
0.117924
0.118011
0.118079
0.118264
0.118441
0.118506
0.118539
0.118657
0.119011
0.119279
0.119377
0.119471
0.119596
0.119749
0.11987
0.120167
0.120569
0.120672
0.120718
0.120824
0.121297
0.121734
0.121851
0.121923
0.122184
0.12273
0.123113
0.123307
0.123474
0.123804
0.124304
0.124823
0.125213
0.125456
0.12572
0.126145
0.126709
0.127275
0.127874
0.128654
0.129499
0.1304
0.13182
0.13243
0.132404
0.132518
0.13308
0.134399
0.135572
0.136671
0.138118
0.138685
0.139185
0.139979
0.140059
0.140025
0.140409
0.1417
0.143073
0.143226
0.142869
0.142905
0.143957
0.146164
0.148274
0.149776
0.151744
0.154236
0.156547
0.158217
0.159313
0.160511
0.160578
0.160433
0.160024
0.160221
0.16128
0.163079
0.165571
0.168416
0.17098
0.173042
0.173272
0.173928
0.175578
0.177119
0.179589
0.182339
0.184439
0.184275
0.18476
0.132604
0.132683
0.132805
0.133142
0.133397
0.133382
0.133322
0.133336
0.133554
0.133675
0.133668
0.133648
0.133701
0.134044
0.134529
0.134657
0.134668
0.134721
0.134859
0.135192
0.135598
0.135667
0.135719
0.135812
0.136084
0.136709
0.136925
0.136985
0.137139
0.137452
0.137894
0.138184
0.138476
0.138776
0.139108
0.139676
0.140246
0.140574
0.140807
0.141088
0.141493
0.141989
0.142509
0.143041
0.143537
0.14404
0.144481
0.144885
0.145334
0.145698
0.14598
0.146377
0.147054
0.147895
0.148709
0.149672
0.150082
0.149907
0.149761
0.150021
0.150994
0.1525
0.153496
0.153658
0.153796
0.154087
0.154765
0.156158
0.157952
0.159612
0.160723
0.16162
0.162974
0.164963
0.166433
0.167166
0.167636
0.168353
0.168285
0.168053
0.167841
0.168138
0.169113
0.170873
0.173359
0.176757
0.180254
0.183241
0.184085
0.184728
0.184682
0.184977
0.18586
0.187643
0.189405
0.190892
0.192301
0.192584
0.193361
0.196215
0.15097
0.150806
0.150812
0.151149
0.151412
0.151368
0.151315
0.151347
0.151622
0.151965
0.152058
0.152064
0.15207
0.152083
0.152322
0.152583
0.152564
0.152607
0.153065
0.153315
0.153304
0.153429
0.153654
0.153824
0.154158
0.154348
0.154374
0.154577
0.154985
0.155233
0.155394
0.155574
0.155922
0.156253
0.156513
0.156731
0.157072
0.157534
0.157956
0.158255
0.158503
0.158761
0.159089
0.159455
0.159692
0.159927
0.160245
0.160635
0.161059
0.161605
0.162169
0.162639
0.163148
0.163451
0.163622
0.16395
0.164642
0.165592
0.166832
0.168037
0.168212
0.168425
0.169078
0.1701
0.171548
0.173242
0.174556
0.175233
0.17567
0.17647
0.177844
0.17913
0.179478
0.179766
0.180513
0.18096
0.181242
0.181871
0.182928
0.184262
0.186106
0.188209
0.190534
0.192778
0.1945
0.195192
0.195718
0.195663
0.195116
0.194641
0.195039
0.196359
0.198401
0.20041
0.202431
0.203695
0.204882
0.206908
0.208586
0.210268
0.172417
0.172438
0.17283
0.173016
0.17293