/*--------------------------------*- C++ -*----------------------------------*\
  =========                 |
  \\      /  F ield         | OpenFOAM: The Open Source CFD Toolbox
   \\    /   O peration     | Website:  https://openfoam.org
    \\  /    A nd           | Version:  7
     \\/     M anipulation  |
\*---------------------------------------------------------------------------*/
FoamFile
{
    version     2.0;
    format      ascii;
    class       volScalarField;
    location    "7";
    object      T;
}
// * * * * * * * * * * * * * * * * * * * * * * * * * * * * * * * * * * * * * //

dimensions      [0 0 0 1 0 0 0];

internalField   nonuniform List<scalar> 
90000
(
0.620659
0.810931
0.961522
1.03224
1.08784
1.14755
1.17112
1.18585
1.21505
1.23298
1.24286
1.25624
1.27161
1.28815
1.30678
1.3245
1.34372
1.3661
1.3885
1.40816
1.42626
1.44176
1.45779
1.46854
1.48056
1.48785
1.49397
1.49782
1.49631
1.49127
1.48413
1.47409
1.46498
1.45718
1.44873
1.43791
1.4302
1.42753
1.42263
1.41311
1.40257
1.3923
1.38064
1.36881
1.36044
1.35082
1.33961
1.332
1.32277
1.31297
1.30624
1.30048
1.29325
1.28653
1.28042
1.27437
1.26674
1.25781
1.24831
1.23923
1.23131
1.22496
1.2196
1.21627
1.21431
1.21363
1.2114
1.2092
1.20626
1.20186
1.19614
1.18974
1.18424
1.17978
1.17793
1.17668
1.17673
1.17652
1.17607
1.17543
1.17464
1.17293
1.17296
1.17431
1.17729
1.18068
1.18466
1.18787
1.19121
1.19582
1.19703
1.20049
1.20213
1.20494
1.20932
1.21374
1.21566
1.21707
1.21835
1.22259
0.405391
0.404981
0.404541
0.404078
0.403584
0.403085
0.402571
0.402051
0.401507
0.400969
0.400418
0.399944
0.399134
0.400472
0.408294
0.427913
0.460182
0.512609
0.57815
0.657986
0.748956
0.846454
0.946108
1.0544
1.14816
1.2466
1.33244
1.40628
1.47224
1.52866
1.58014
1.61523
1.64967
1.66641
1.68081
1.67995
1.67462
1.66137
1.64459
1.62275
1.60629
1.58776
1.57535
1.56442
1.55447
1.54873
1.54388
1.53622
1.52614
1.51493
1.50212
1.48874
1.47547
1.46193
1.44694
1.43145
1.41502
1.39911
1.38305
1.36946
1.3584
1.34685
1.33563
1.32531
1.31387
1.30046
1.28483
1.26795
1.25295
1.24083
1.23157
1.22476
1.21874
1.21337
1.20836
1.20358
1.20052
1.19632
1.19094
1.18532
1.18128
1.17902
1.17991
1.1829
1.18569
1.18837
1.19095
1.194
1.19608
1.19946
1.20053
1.20222
1.20471
1.20801
1.21264
1.21528
1.21627
1.21705
1.21871
1.22362
0.400387
0.400009
0.399623
0.399215
0.398776
0.398332
0.397906
0.397482
0.397053
0.396626
0.396215
0.395807
0.395402
0.394972
0.394508
0.394108
0.393641
0.393196
0.392783
0.392401
0.392087
0.391859
0.391662
0.391473
0.39128
0.391137
0.39095
0.403271
0.449698
0.54394
0.674391
0.852675
1.00419
1.17493
1.30772
1.41388
1.49994
1.5669
1.62098
1.66575
1.71245
1.74035
1.76847
1.77847
1.7829
1.77921
1.77328
1.75789
1.74225
1.72397
1.70322
1.679
1.65277
1.62169
1.58778
1.5611
1.54407
1.54219
1.54517
1.54728
1.54347
1.53178
1.51207
1.48609
1.45687
1.4285
1.40315
1.38276
1.36723
1.35443
1.3411
1.32732
1.31287
1.2979
1.28021
1.26206
1.24393
1.23111
1.22176
1.21569
1.21046
1.2071
1.20613
1.20535
1.20447
1.20452
1.20464
1.20597
1.20627
1.20763
1.20747
1.20782
1.21019
1.21464
1.21777
1.21832
1.21806
1.21835
1.22126
1.226
0.394337
0.394099
0.393859
0.393636
0.393416
0.393196
0.392986
0.392797
0.392621
0.392443
0.392267
0.392091
0.391933
0.391787
0.391655
0.391523
0.39139
0.391256
0.391131
0.391017
0.390957
0.390961
0.39097
0.390956
0.39092
0.39088
0.390833
0.390778
0.390722
0.390726
0.390788
0.390828
0.390829
0.390816
0.390742
0.394171
0.427804
0.534424
0.67976
0.886646
1.05543
1.23952
1.35965
1.47164
1.56207
1.62668
1.68622
1.72561
1.76579
1.77631
1.78731
1.78056
1.77075
1.75621
1.74539
1.73805
1.72945
1.72217
1.71219
1.70023
1.6858
1.67534
1.66189
1.64342
1.62325
1.60345
1.58182
1.56147
1.54379
1.52525
1.50222
1.47552
1.44593
1.41608
1.38949
1.3672
1.34751
1.32999
1.31367
1.29942
1.28578
1.27361
1.26196
1.25178
1.24322
1.23831
1.23476
1.23297
1.22977
1.22594
1.22254
1.22212
1.22516
1.22875
1.22855
1.22585
1.22262
1.22439
1.22837
1.23068
0.39158
0.391519
0.391461
0.391411
0.391362
0.391306
0.391247
0.3912
0.391158
0.391114
0.391069
0.391034
0.391019
0.391007
0.390989
0.390967
0.390925
0.390859
0.390802
0.390774
0.390771
0.390791
0.390863
0.390896
0.390902
0.390898
0.390886
0.39088
0.390851
0.390795
0.390809
0.3909
0.390951
0.390959
0.390946
0.390879
0.390793
0.390674
0.390524
0.390392
0.390275
0.390147
0.389862
0.431014
0.525319
0.723405
0.912184
1.14759
1.31609
1.47155
1.58803
1.68243
1.76689
1.81446
1.87063
1.86857
1.86166
1.84899
1.82848
1.79986
1.76494
1.73901
1.72452
1.72628
1.73427
1.74314
1.74209
1.73217
1.71241
1.6819
1.6489
1.61565
1.58861
1.56907
1.55255
1.53489
1.51346
1.4879
1.45922
1.43084
1.40474
1.38167
1.36236
1.34714
1.33331
1.32084
1.30815
1.2954
1.28221
1.27158
1.26279
1.26255
1.26211
1.25641
1.2474
1.24049
1.24156
1.24371
1.24425
1.24111
0.390881
0.390877
0.390876
0.390872
0.390862
0.390844
0.390821
0.390804
0.390788
0.390754
0.390728
0.390727
0.390744
0.390783
0.390809
0.390815
0.390806
0.390768
0.390747
0.390746
0.390739
0.390735
0.390779
0.39085
0.390877
0.390884
0.390875
0.390853
0.39086
0.390884
0.390854
0.390786
0.390789
0.390791
0.390776
0.390736
0.390603
0.390303
0.390001
0.38983
0.389724
0.389585
0.389368
0.389111
0.388998
0.388913
0.388797
0.388646
0.388366
0.441971
0.568719
0.854736
1.11758
1.36888
1.53323
1.64971
1.74289
1.78281
1.81181
1.80834
1.80002
1.80052
1.80528
1.80901
1.81265
1.81645
1.81963
1.81339
1.80074
1.78606
1.76775
1.75358
1.73328
1.71935
1.70795
1.69356
1.67408
1.64957
1.62223
1.59566
1.56948
1.54763
1.52662
1.50514
1.48047
1.4532
1.42713
1.4039
1.38442
1.36879
1.35599
1.34584
1.32652
1.31079
1.30008
1.29151
1.29039
1.28294
1.27121
1.26578
0.390753
0.390769
0.390787
0.390796
0.390802
0.390805
0.390802
0.390792
0.390777
0.390734
0.390674
0.390668
0.390677
0.390727
0.39077
0.390798
0.39081
0.390814
0.390809
0.390782
0.390775
0.390783
0.390771
0.390809
0.390875
0.390881
0.390875
0.390836
0.390744
0.39061
0.390479
0.390443
0.390405
0.39035
0.39023
0.38996
0.389633
0.38941
0.3893
0.389219
0.389109
0.388901
0.388637
0.388526
0.388534
0.388498
0.388392
0.388226
0.388056
0.387763
0.387464
0.387169
0.386925
0.38715
0.460943
0.732796
1.03206
1.30823
1.51452
1.66045
1.78736
1.85174
1.87641
1.87146
1.86487
1.85444
1.83502
1.81045
1.80277
1.80945
1.81779
1.82506
1.82751
1.82193
1.809
1.7935
1.78003
1.77198
1.76335
1.75054
1.73228
1.70967
1.69364
1.67668
1.65265
1.62232
1.59062
1.56564
1.54579
1.52522
1.50156
1.47284
1.44821
1.42735
1.40854
1.39171
1.37366
1.35715
1.34484
1.33047
0.390787
0.390797
0.390845
0.390858
0.390859
0.390851
0.390852
0.390871
0.390887
0.390886
0.390861
0.39081
0.390762
0.39074
0.390721
0.390705
0.390679
0.390657
0.390678
0.390688
0.390674
0.390639
0.390546
0.390466
0.390436
0.390396
0.390277
0.390086
0.389888
0.389754
0.389739
0.389729
0.389673
0.38961
0.389484
0.389175
0.388845
0.388746
0.388726
0.388679
0.38855
0.388267
0.38809
0.388088
0.388069
0.387994
0.387847
0.387662
0.387454
0.387168
0.386909
0.386666
0.386503
0.386379
0.386163
0.38597
0.385642
0.384751
0.46532
0.78232
1.15276
1.42917
1.6073
1.70319
1.78422
1.79897
1.81133
1.81205
1.83009
1.84522
1.86109
1.86836
1.86824
1.86255
1.85357
1.84401
1.83695
1.83542
1.83838
1.84004
1.83851
1.82989
1.81398
1.79579
1.78225
1.76791
1.7503
1.72931
1.70787
1.69311
1.67063
1.64163
1.61146
1.58379
1.56081
1.53648
1.51148
1.48973
1.47074
1.43917
0.390889
0.390882
0.390873
0.390847
0.39081
0.390815
0.390855
0.390909
0.390954
0.390952
0.390873
0.390615
0.39033
0.390179
0.390071
0.390002
0.390005
0.390044
0.390044
0.390019
0.389972
0.389903
0.389808
0.389697
0.389604
0.389488
0.389278
0.389031
0.388963
0.38899
0.389109
0.389127
0.389092
0.389035
0.388891
0.388576
0.388278
0.388202
0.388186
0.388133
0.387979
0.387679
0.387488
0.387468
0.387448
0.387357
0.38718
0.386942
0.386676
0.386336
0.385937
0.385555
0.385115
0.384572
0.384031
0.383687
0.383428
0.383116
0.382799
0.382347
0.381518
0.412994
0.593438
0.970718
1.27266
1.49758
1.68345
1.78466
1.86241
1.86361
1.8711
1.87274
1.86766
1.85464
1.85535
1.85683
1.8595
1.86168
1.86426
1.86749
1.87086
1.87654
1.87317
1.86442
1.85233
1.84168
1.84187
1.83992
1.83007
1.81029
1.79423
1.77889
1.7604
1.7395
1.71697
1.70043
1.67633
1.64827
1.62634
1.59045
0.390462
0.390417
0.390359
0.390341
0.390349
0.390429
0.390588
0.390614
0.390601
0.390382
0.38974
0.389361
0.389299
0.389261
0.38917
0.389092
0.389104
0.389111
0.389085
0.389024
0.388972
0.388921
0.388851
0.388788
0.388743
0.388677
0.388549
0.388434
0.388426
0.388489
0.388669
0.388682
0.388654
0.388577
0.388358
0.388012
0.387719
0.387556
0.387483
0.387387
0.387142
0.386738
0.386506
0.386473
0.386401
0.386202
0.385941
0.385654
0.385144
0.38445
0.383702
0.383073
0.382716
0.382525
0.382355
0.382254
0.382208
0.382136
0.381863
0.381266
0.380683
0.380385
0.380351
0.380273
0.380299
0.518539
0.823312
1.22544
1.47464
1.62494
1.73736
1.77776
1.81114
1.82658
1.85558
1.86553
1.87344
1.87292
1.8725
1.87505
1.87606
1.87419
1.87446
1.87424
1.87272
1.87136
1.87334
1.87518
1.87778
1.87141
1.86024
1.85077
1.84416
1.83888
1.82779
1.80719
1.79339
1.78073
1.76623
1.73567
0.389689
0.389618
0.389556
0.389571
0.389603
0.389572
0.389494
0.3895
0.389503
0.389342
0.388789
0.388351
0.388271
0.388238
0.388238
0.38825
0.388296
0.388321
0.388305
0.388254
0.388187
0.388145
0.388104
0.388059
0.388051
0.388055
0.388044
0.388003
0.387959
0.387966
0.388049
0.388044
0.387979
0.387841
0.387576
0.387147
0.386701
0.386465
0.386303
0.386007
0.385379
0.384695
0.384559
0.384458
0.384229
0.383869
0.383529
0.383314
0.383034
0.38262
0.382075
0.381824
0.381859
0.38189
0.38179
0.38148
0.38124
0.381042
0.380768
0.380475
0.380295
0.380251
0.380264
0.380448
0.381545
0.383977
0.388079
0.390863
0.452803
0.793727
1.10002
1.36725
1.57618
1.69784
1.77163
1.79851
1.82852
1.84534
1.8422
1.84351
1.84324
1.84571
1.85364
1.86488
1.87377
1.88014
1.88322
1.88087
1.87678
1.87468
1.8729
1.87102
1.86935
1.86774
1.86835
1.86202
1.85153
1.84601
1.84226
1.82782
0.388597
0.388595
0.388576
0.388545
0.388492
0.388365
0.388307
0.388324
0.38832
0.388274
0.388031
0.38777
0.38771
0.387709
0.38774
0.387823
0.387822
0.387792
0.387731
0.387649
0.387574
0.387524
0.387488
0.387429
0.387341
0.387268
0.387219
0.387161
0.387071
0.386932
0.386717
0.386392
0.386021
0.385652
0.385229
0.384686
0.384102
0.383661
0.383306
0.382866
0.382364
0.381816
0.381761
0.381864
0.381816
0.381743
0.38192
0.382332
0.38237
0.382229
0.381725
0.381479
0.381471
0.381408
0.381067
0.38061
0.380491
0.380504
0.380465
0.380325
0.380375
0.38069
0.381997
0.385394
0.39045
0.395475
0.398974
0.402385
0.403735
0.403008
0.402223
0.475709
0.723496
1.1152
1.34809
1.5176
1.64088
1.69581
1.73792
1.78213
1.78656
1.79151
1.80876
1.81993
1.83096
1.84177
1.84541
1.84547
1.84648
1.85159
1.85972
1.86565
1.86891
1.86779
1.86472
1.86466
1.86424
1.86349
1.862
1.85587
0.38808
0.388075
0.388057
0.388011
0.387966
0.387928
0.387894
0.387839
0.387699
0.387658
0.38767
0.387671
0.387629
0.387509
0.387346
0.387186
0.387053
0.386932
0.386785
0.386629
0.386491
0.38634
0.386201
0.386029
0.385753
0.385395
0.38504
0.384654
0.384084
0.383522
0.38305
0.382634
0.382282
0.381926
0.381524
0.381078
0.380635
0.380559
0.380563
0.380439
0.380201
0.380211
0.380527
0.381146
0.38136
0.381418
0.381697
0.382069
0.382066
0.381901
0.381313
0.381037
0.381016
0.380962
0.380626
0.380369
0.380367
0.380456
0.380777
0.381906
0.384714
0.389036
0.394553
0.399662
0.402818
0.403931
0.404259
0.405186
0.405371
0.405478
0.408085
0.412298
0.417161
0.419901
0.478835
0.799942
1.09115
1.32192
1.49056
1.56777
1.62903
1.67185
1.72992
1.72826
1.73306
1.74476
1.7561
1.77183
1.78693
1.79883
1.81008
1.81885
1.82629
1.8291
1.83462
1.84633
1.85626
1.85681
1.85531
1.85296
0.387403
0.387283
0.387111
0.386895
0.386652
0.386396
0.386126
0.385845
0.385585
0.385375
0.385186
0.384963
0.384703
0.384457
0.384218
0.383964
0.38366
0.383319
0.383031
0.382771
0.382511
0.382253
0.381988
0.381713
0.381396
0.38105
0.380715
0.38039
0.380011
0.379741
0.379747
0.379902
0.380029
0.380022
0.379918
0.37969
0.379648
0.379785
0.379988
0.379982
0.379954
0.380016
0.380616
0.381571
0.381732
0.381651
0.381562
0.381499
0.381464
0.381362
0.380921
0.380783
0.380848
0.380941
0.380762
0.380945
0.381965
0.384718
0.38948
0.395377
0.399998
0.403576
0.405969
0.407593
0.407643
0.407075
0.40616
0.405829
0.407143
0.412923
0.421403
0.428806
0.430682
0.430777
0.431767
0.432507
0.433182
0.57499
0.841795
1.08494
1.30705
1.45307
1.52005
1.56147
1.61551
1.64757
1.65877
1.66847
1.6754
1.68621
1.70456
1.72452
1.74205
1.75786
1.7701
1.78288
1.7955
1.80179
1.80691
1.81634
0.38164
0.381329
0.380986
0.380658
0.38031
0.380081
0.379924
0.379648
0.379395
0.379389
0.379434
0.379432
0.379343
0.379325
0.379382
0.379522
0.379627
0.379652
0.379664
0.379691
0.379708
0.379709
0.379669
0.379626
0.379574
0.379438
0.379401
0.379405
0.379364
0.37935
0.379451
0.37992
0.380342
0.380357
0.380299
0.380294
0.380394
0.380675
0.380886
0.380942
0.380953
0.381008
0.381399
0.381882
0.381872
0.381677
0.381349
0.381246
0.381283
0.381258
0.381371
0.382033
0.383785
0.386751
0.390427
0.394282
0.398314
0.402011
0.405541
0.408024
0.408849
0.409324
0.409555
0.409543
0.409112
0.408658
0.410046
0.414251
0.421123
0.426791
0.431688
0.436288
0.436584
0.435025
0.434624
0.436242
0.441605
0.446411
0.448549
0.452861
0.619151
0.937797
1.11395
1.2891
1.40212
1.46545
1.51944
1.57068
1.57258
1.57706
1.59295
1.61005
1.62841
1.64469
1.65996
1.67341
1.68837
1.70522
1.71987
1.74068
0.37665
0.376639
0.376637
0.376634
0.376642
0.376675
0.376732
0.376768
0.376815
0.376942
0.377175
0.377384
0.377541
0.377726
0.377995
0.378335
0.378691
0.37893
0.379063
0.379288
0.37947
0.37948
0.379486
0.379505
0.37955
0.379725
0.380162
0.380542
0.38066
0.380734
0.381013
0.381777
0.382155
0.38212
0.381944
0.381908
0.382137
0.38252
0.382521
0.382503
0.382591
0.38272
0.382416
0.381947
0.382019
0.38282
0.383873
0.384367
0.385387
0.388211
0.392889
0.398064
0.402266
0.404909
0.40732
0.409765
0.410844
0.411174
0.411679
0.411787
0.41148
0.410607
0.410147
0.410838
0.413752
0.420215
0.427435
0.433845
0.437304
0.437269
0.437198
0.438472
0.439802
0.440553
0.441811
0.444724
0.450924
0.456984
0.458967
0.459822
0.460236
0.461599
0.48816
0.714412
0.959616
1.1666
1.32203
1.38725
1.43309
1.47587
1.50379
1.50667
1.5156
1.52535
1.54129
1.55648
1.57527
1.59286
1.60298
1.62359
0.378089
0.378272
0.378426
0.37856
0.378727
0.378882
0.379018
0.379214
0.379537
0.379874
0.380098
0.380317
0.380604
0.380993
0.381461
0.381672
0.381649
0.381648
0.381659
0.381823
0.38213
0.382216
0.382193
0.382146
0.382173
0.382387
0.382828
0.38327
0.383422
0.383411
0.383415
0.383627
0.38425
0.384372
0.384334
0.384422
0.385098
0.386179
0.387139
0.387891
0.388566
0.389545
0.39114
0.393173
0.395333
0.397743
0.400454
0.40322
0.405704
0.407528
0.40935
0.411361
0.412574
0.412711
0.413084
0.414056
0.414113
0.413906
0.413691
0.414066
0.415182
0.417417
0.421039
0.426133
0.432031
0.436694
0.439687
0.442169
0.442656
0.442036
0.439721
0.439433
0.441782
0.448448
0.45606
0.459414
0.460535
0.462897
0.463825
0.464274
0.466526
0.472144
0.475012
0.476285
0.477292
0.597417
0.828285
1.03618
1.22437
1.32327
1.37825
1.40087
1.44291
1.44853
1.45234
1.45684
1.46791
1.48148
1.49575
1.51749
0.382793
0.383027
0.383063
0.383019
0.38245
0.3819
0.381873
0.381987
0.382204
0.382375
0.38254
0.382669
0.382927
0.383711
0.38437
0.384412
0.384144
0.384007
0.383965
0.383951
0.384092
0.384622
0.384882
0.385
0.38531
0.386094
0.38722
0.388213
0.38853
0.388374
0.388339
0.388878
0.390679
0.392857
0.394297
0.395403
0.397056
0.400068
0.403404
0.405072
0.405647
0.406309
0.407732
0.410073
0.412257
0.413347
0.414013
0.414823
0.41547
0.415631
0.415919
0.416526
0.416482
0.415828
0.415441
0.41589
0.417244
0.419595
0.423016
0.427859
0.433282
0.43807
0.440656
0.441777
0.442909
0.443829
0.444103
0.444491
0.445039
0.44627
0.448704
0.451566
0.454679
0.459063
0.464719
0.467091
0.466507
0.466665
0.468428
0.471525
0.476281
0.480568
0.482406
0.483569
0.485748
0.489215
0.491648
0.519268
0.700083
0.942943
1.13908
1.26262
1.32564
1.35124
1.38629
1.39864
1.4023
1.40305
1.40897
1.42547
0.389689
0.389833
0.389763
0.388915
0.388257
0.388297
0.388554
0.389194
0.390059
0.390924
0.391714
0.39229
0.392605
0.392907
0.393681
0.39523
0.395949
0.395724
0.395265
0.395232
0.395813
0.397334
0.398455
0.399079
0.400262
0.401927
0.403269
0.40439
0.405325
0.406073
0.406774
0.407858
0.409403
0.410591
0.411227
0.411778
0.412769
0.41429
0.415602
0.41606
0.416061
0.416116
0.416662
0.418033
0.419047
0.419305
0.41963
0.420646
0.421224
0.421451
0.421883
0.422981
0.424538
0.426098
0.427495
0.429549
0.432977
0.436735
0.440249
0.44302
0.44495
0.446939
0.448383
0.448247
0.448148
0.448069
0.447848
0.448493
0.451163
0.456404
0.462759
0.468144
0.468909
0.468407
0.468992
0.47046
0.471452
0.473092
0.476677
0.482793
0.486457
0.487779
0.489649
0.491745
0.493818
0.497179
0.502349
0.505536
0.505455
0.506074
0.606639
0.895247
1.07448
1.20221
1.28107
1.30795
1.3401
1.35768
1.35994
1.36205
0.405954
0.40631
0.406609
0.40687
0.407117
0.407493
0.407968
0.408474
0.408965
0.409542
0.41031
0.41088
0.410984
0.411324
0.412982
0.413539
0.413185
0.411914
0.411557
0.411718
0.412739
0.414506
0.415563
0.415975
0.416343
0.416716
0.416826
0.41703
0.417388
0.417862
0.418473
0.418902
0.419434
0.420329
0.420671
0.420562
0.420363
0.420403
0.421071
0.422145
0.42261
0.422781
0.423557
0.424432
0.424604
0.425298
0.426923
0.429298
0.431952
0.434762
0.437166
0.43882
0.440744
0.442993
0.445309
0.446922
0.44792
0.448801
0.449705
0.450414
0.450755
0.451252
0.452552
0.453953
0.455969
0.458689
0.461932
0.464992
0.467401
0.46893
0.470837
0.473888
0.475422
0.47497
0.474803
0.476572
0.482039
0.486855
0.489941
0.492843
0.493322
0.494129
0.496157
0.499728
0.502858
0.505754
0.50962
0.511544
0.51294
0.514881
0.518222
0.520706
0.568356
0.818439
1.01595
1.15353
1.24346
1.27458
1.30456
1.32382
0.416546
0.417017
0.417523
0.418257
0.418963
0.419028
0.418966
0.41892
0.418953
0.419104
0.419488
0.41961
0.419661
0.420042
0.420907
0.420955
0.420648
0.420591
0.420698
0.421497
0.42282
0.423738
0.424736
0.42558
0.425554
0.425443
0.425567
0.426088
0.427051
0.427957
0.428477
0.428842
0.429621
0.431514
0.432876
0.432837
0.432631
0.432863
0.434229
0.436379
0.437938
0.43865
0.439127
0.439824
0.440971
0.442797
0.443985
0.444783
0.446089
0.448223
0.449706
0.450329
0.45105
0.45234
0.454099
0.455521
0.456433
0.457468
0.458143
0.458752
0.459417
0.460008
0.461469
0.464674
0.46869
0.472119
0.474474
0.476142
0.477505
0.477354
0.476922
0.47773
0.480755
0.485106
0.487692
0.489804
0.493354
0.496837
0.49867
0.498828
0.499842
0.501771
0.504594
0.508247
0.513315
0.515918
0.516789
0.51882
0.521737
0.523812
0.525889
0.530332
0.532094
0.532808
0.552277
0.777325
0.970214
1.12487
1.20937
1.25924
0.432
0.432371
0.43274
0.433087
0.433465
0.433679
0.433667
0.433646
0.433662
0.433674
0.433711
0.433868
0.434086
0.434751
0.43542
0.435424
0.43521
0.435159
0.435446
0.437003
0.437656
0.437645
0.437815
0.438254
0.438369
0.438446
0.439022
0.440303
0.440598
0.440563
0.440506
0.440639
0.441359
0.442842
0.444456
0.445395
0.446061
0.44702
0.448551
0.449446
0.449947
0.45063
0.451598
0.452603
0.453518
0.454287
0.455088
0.455969
0.45712
0.457777
0.457786
0.458005
0.458707
0.460177
0.461881
0.463727
0.465691
0.467912
0.470669
0.472985
0.474594
0.475829
0.476668
0.477694
0.478827
0.480218
0.481697
0.482953
0.484469
0.485908
0.487271
0.488604
0.491555
0.496442
0.501239
0.502584
0.502997
0.504346
0.50524
0.506324
0.508615
0.512673
0.516395
0.519019
0.521634
0.522545
0.523384
0.524773
0.528422
0.533101
0.535449
0.538462
0.541607
0.543418
0.543331
0.544481
0.555595
0.757965
0.923476
1.15295
0.444485
0.444291
0.4443
0.4444
0.444682
0.445498
0.446452
0.446572
0.446303
0.446
0.445976
0.446046
0.446853
0.44758
0.447456
0.447118
0.447099
0.447324
0.448611
0.44932
0.449294
0.449423
0.449929
0.450398
0.450531
0.450608
0.451079
0.452697
0.453518
0.453414
0.453114
0.453084
0.45334
0.454023
0.45475
0.455378
0.45649
0.457703
0.45805
0.458443
0.45924
0.460572
0.462192
0.463663
0.465095
0.466551
0.467965
0.469398
0.470845
0.47214
0.473281
0.47449
0.475807
0.476737
0.477216
0.477622
0.478351
0.479711
0.48155
0.483353
0.484698
0.485902
0.48682
0.487397
0.487784
0.488415
0.489765
0.491973
0.494779
0.498408
0.50245
0.505417
0.506501
0.507251
0.509509
0.510871
0.510805
0.511203
0.513416
0.516469
0.520044
0.523017
0.52622
0.528515
0.529188
0.530802
0.53317
0.535359
0.538251
0.543232
0.54589
0.546136
0.547819
0.549926
0.551404
0.555409
0.557552
0.559001
0.564877
0.867192
0.457092
0.456978
0.456969
0.457031
0.457504
0.458557
0.458861
0.458636
0.458228
0.458237
0.458415
0.458867
0.459378
0.459978
0.460393
0.460524
0.460649
0.461156
0.462251
0.463528
0.464404
0.464836
0.465023
0.465235
0.465634
0.466668
0.468019
0.468731
0.469087
0.469324
0.469541
0.469819
0.470424
0.471558
0.47285
0.473689
0.474258
0.474903
0.475755
0.477169
0.478451
0.478589
0.47842
0.478342
0.478546
0.479367
0.480215
0.480848
0.481623
0.482597
0.4837
0.485043
0.486432
0.487482
0.488157
0.488226
0.488254
0.488447
0.488847
0.489849
0.491351
0.493261
0.495659
0.498332
0.501403
0.504294
0.50653
0.508365
0.509953
0.511497
0.513703
0.51611
0.516451
0.516039
0.516237
0.517922
0.519975
0.522623
0.52541
0.529501
0.532549
0.534428
0.536021
0.536776
0.538035
0.539873
0.542946
0.546247
0.547872
0.550327
0.553146
0.553349
0.553845
0.556697
0.56243
0.5674
0.568398
0.567875
0.568156
0.571884
0.474499
0.474456
0.474477
0.474625
0.475143
0.475501
0.475505
0.475523
0.475705
0.476227
0.476921
0.477365
0.477718
0.478027
0.47812
0.478238
0.478671
0.478808
0.478805
0.478846
0.479109
0.479549
0.480004
0.480329
0.480672
0.481281
0.481469
0.481388
0.48143
0.481815
0.482513
0.483249
0.484226
0.485059
0.485617
0.486051
0.486648
0.48724
0.487601
0.488091
0.488598
0.488631
0.488576
0.488806
0.489673
0.491419
0.492194
0.492052
0.491539
0.491484
0.491692
0.492732
0.494797
0.496847
0.49882
0.501037
0.503536
0.505835
0.507412
0.508655
0.50999
0.511236
0.512642
0.514653
0.516955
0.518933
0.520387
0.521395
0.52139
0.52098
0.520953
0.521896
0.523654
0.5251
0.526967
0.529458
0.53384
0.537313
0.53971
0.541714
0.542537
0.543583
0.544086
0.545236
0.547151
0.549704
0.553098
0.557165
0.558761
0.559128
0.561317
0.564113
0.565612
0.567745
0.570173
0.572224
0.574948
0.577052
0.577945
0.581197
0.488913
0.488934
0.489019
0.489203
0.489462
0.489736
0.489964
0.49012
0.490242
0.490368
0.490443
0.490573
0.49099
0.491309
0.491299
0.491282
0.49162
0.492414
0.492666
0.492766
0.492979
0.493427
0.494138
0.494343
0.49445
0.494763
0.495263
0.495957
0.496675
0.496809
0.496802
0.496926
0.497345
0.497358
0.497417
0.497654
0.498528
0.499015
0.49922
0.499619
0.500489
0.501928
0.503712
0.505198
0.50614
0.507273
0.508608
0.509456
0.510188
0.511058
0.512325
0.514726
0.516855
0.516884
0.516773
0.517227
0.518832
0.520933
0.5227
0.523953
0.524722
0.524912
0.52502
0.525105
0.525056
0.525171
0.525804
0.527443
0.529029
0.530321
0.531168
0.532797
0.535934
0.540839
0.544641
0.546849
0.548783
0.549749
0.550754
0.550865
0.551223
0.551923
0.55376
0.55668
0.559965
0.56292
0.565054
0.567463
0.568373
0.568211
0.568553
0.570798
0.575019
0.578631
0.579639
0.580432
0.582968
0.586324
0.588114
0.590416
0.504753
0.504845
0.504988
0.505189
0.505466
0.505687
0.505856
0.506186
0.506321
0.506309
0.506353
0.506615
0.506934
0.507131
0.507392
0.507794
0.508149
0.50838
0.508505
0.508628
0.508776
0.508987
0.509655
0.510623
0.510926
0.511095
0.511362
0.511705
0.512048
0.512465
0.513048
0.513698
0.514426
0.515399
0.516346
0.517047
0.517681
0.518483
0.519294
0.520031
0.520519
0.520905
0.521427
0.521952
0.522422
0.522879
0.523518
0.524694
0.526446
0.52735
0.527852
0.528669
0.529737
0.529905
0.530032
0.531045
0.531562
0.531266
0.531033
0.531332
0.532402
0.533906
0.535865
0.537966
0.539344
0.539874
0.540467
0.541996
0.545381
0.549682
0.553183
0.554529
0.554983
0.555995
0.557344
0.558034
0.557888
0.558033
0.558264
0.559152
0.560866
0.563857
0.567112
0.57047
0.57324
0.574609
0.57489
0.575334
0.576501
0.578448
0.580274
0.583489
0.586944
0.589088
0.590934
0.59132
0.591187
0.592073
0.595476
0.600279
0.523233
0.523437
0.523766
0.523969
0.524082
0.524174
0.524312
0.524495
0.524739
0.524975
0.525242
0.525674
0.52598
0.526094
0.526197
0.52639
0.526683
0.527
0.527323
0.527581
0.527787
0.528143
0.528501
0.528971
0.529499
0.529857
0.530073
0.530289
0.53066
0.531239
0.531725
0.532023
0.53228
0.532732
0.533474
0.533731
0.533842
0.534063
0.534481
0.535035
0.53553
0.53604
0.536712
0.537598
0.538431
0.538927
0.539346
0.539949
0.540169
0.539961
0.539765
0.54004
0.541197
0.542804
0.544256
0.545822
0.546832
0.54728
0.548001
0.549466
0.550651
0.551627
0.553186
0.555491
0.557858
0.559788
0.561163
0.561652
0.561829
0.5622
0.56355
0.564651
0.564694
0.564112
0.564262
0.564746
0.565902
0.567797
0.571107
0.574719
0.578264
0.580863
0.582546
0.583766
0.584816
0.584817
0.584823
0.585274
0.587529
0.590743
0.593983
0.596772
0.597041
0.59661
0.596919
0.598726
0.601042
0.604353
0.60735
0.610354
0.541804
0.541998
0.542223
0.5423
0.54231
0.54232
0.542531
0.542828
0.543007
0.543202
0.543309
0.543393
0.543625
0.543858
0.543944
0.543988
0.544144
0.544611
0.544969
0.545101
0.545225
0.545393
0.545596
0.545758
0.546149
0.54667
0.546799
0.546857
0.546998
0.547613
0.548174
0.548318
0.54841
0.548746
0.54945
0.549939
0.550181
0.550396
0.550828
0.551477
0.552143
0.552635
0.552931
0.553248
0.553778
0.554484
0.555191
0.55594
0.556917
0.557984
0.55913
0.560898
0.561609
0.561555
0.561665
0.562304
0.563872
0.56534
0.566715
0.568445
0.569128
0.569705
0.570579
0.570673
0.570651
0.571133
0.572662
0.574192
0.574304
0.573823
0.57385
0.575079
0.577604
0.579935
0.581576
0.583753
0.586491
0.58897
0.590727
0.591869
0.593103
0.593149
0.592974
0.592487
0.592682
0.593779
0.595649
0.598223
0.601129
0.603716
0.605788
0.606002
0.606644
0.608283
0.609807
0.612236
0.614911
0.616937
0.616788
0.617264
0.561768
0.561863
0.562011
0.562421
0.56274
0.562725
0.562659
0.562678
0.562951
0.563105
0.563098
0.563076
0.563139
0.563549
0.564124
0.564272
0.564283
0.564346
0.564508
0.564892
0.565362
0.565456
0.565526
0.565646
0.565983
0.566733
0.566992
0.567067
0.567252
0.56763
0.568157
0.568501
0.568841
0.569193
0.569586
0.570252
0.570924
0.571312
0.571588
0.571921
0.572396
0.572974
0.573577
0.574191
0.574765
0.575344
0.575853
0.576316
0.576826
0.577239
0.577557
0.578004
0.578766
0.579712
0.58062
0.581686
0.582158
0.581971
0.581808
0.582095
0.583179
0.584828
0.585895
0.586061
0.586206
0.586519
0.587259
0.588757
0.590642
0.592364
0.593521
0.594462
0.59586
0.597891
0.599385
0.600119
0.600571
0.601258
0.601171
0.600904
0.600621
0.600895
0.601852
0.603613
0.606097
0.609466
0.612886
0.615773
0.616575
0.617188
0.617149
0.617434
0.618279
0.619972
0.621638
0.623032
0.624347
0.624604
0.625318
0.627947
0.583098
0.582903
0.582907
0.583274
0.583551
0.583497
0.583427
0.583459
0.58376
0.584149
0.58426
0.584269
0.584278
0.584297
0.584563
0.584854
0.584836
0.584884
0.585385
0.585658
0.585646
0.585781
0.586024
0.586201
0.586552
0.586768
0.586806
0.587037
0.587478
0.587738
0.587909
0.588107
0.588492
0.588856
0.589133
0.589367
0.589733
0.590232
0.590685
0.591006
0.591269
0.591546
0.591898
0.592288
0.592535
0.592778
0.593111
0.59352
0.593964
0.594536
0.595127
0.595616
0.596144
0.596446
0.596605
0.59693
0.597642
0.598633
0.599942
0.601186
0.601311
0.601482
0.602108
0.60314
0.604611
0.606321
0.607614
0.608245
0.608651
0.609427
0.610771
0.61201
0.612307
0.612565
0.613284
0.613678
0.613906
0.614478
0.615475
0.616738
0.61849
0.620476
0.622658
0.624745
0.62634
0.62698
0.627473
0.627426
0.626923
0.626479
0.626844
0.628058
0.629925
0.631739
0.633557
0.634687
0.635746
0.637541
0.639012
0.640483
0.605602
0.605624
0.606031
0.606234
0.606153
0.60593
0.605905
0.606148
0.606653
0.606717
0.606694
0.60674
0.607009
0.607166
0.607176
0.607208
0.607491
0.607956
0.608011
0.607972
0.608038
0.608349
0.60861
0.608756
0.608889
0.609087
0.609286
0.609476
0.609711
0.609994
0.610299
0.610593
0.610876
0.611193
0.611436
0.611609
0.611813
0.612132
0.612539
0.612947
0.613296
0.613585
0.613863
0.61417
0.614529
0.614887
0.615246
0.615635
0.616049
0.616508
0.617019
0.617544
0.618083
0.61872
0.619403
0.620039
0.620556
0.620922
0.621253
0.621806
0.622544
0.623359
0.624251
0.624438
0.6246
0.624986
0.625757
0.626663
0.62702
0.627088
0.627252
0.627922
0.628676
0.629069
0.629517
0.630378
0.631266
0.632111
0.633201
0.634291
0.635356
0.636038
0.636362
0.636681
0.636781
0.636424
0.636226
0.636664
0.637752
0.639739
0.642019
0.643977
0.645649
0.646809
0.647602
0.647662
0.647677
0.64789
0.648437
0.649983
0.630336
0.630377
0.63045
0.630497
0.630578
0.630735
0.630777
0.630768
0.630783
0.63095
0.631186
0.631234
0.63124
0.63128
0.63139
0.631478
0.631604
0.63182
0.631897
0.631907
0.631979
0.63224
0.632468
0.632541
0.63259
0.632715
0.632895
0.633089
0.633322
0.633506
0.633631
0.633735
0.633862
0.634046
0.634295
0.634545
0.634752
0.634948
0.635194
0.635476
0.635726
0.635989
0.63622
0.636358
0.636479
0.636637
0.636834
0.637061
0.637316
0.637584
0.637858
0.638141
0.63838
0.638595
0.638876
0.639203
0.639483
0.63974
0.640018
0.640534
0.640699
0.640662
0.640772
0.6412
0.642062
0.642333
0.642302
0.642374
0.642862
0.643733
0.644353
0.64465
0.645193
0.646031
0.646818
0.647425
0.648143
0.64889
0.64952
0.650107
0.650475
0.650941
0.651369
0.651911
0.652713
0.653729
0.6551
0.656327
0.657496
0.658188
0.658769
0.65885
0.658691
0.658314
0.65792
0.658209
0.658827
0.659902
0.66109
0.662954
0.655196
0.655358
0.655528
0.65551
0.655428
0.655337
0.655311
0.655402
0.65568
0.655838
0.655854
0.65584
0.655768
0.655765
0.655885
0.656065
0.656086
0.656073
0.656079
0.656189
0.656278
0.656337
0.656416
0.656544
0.656725
0.656765
0.656762
0.65677
0.656821
0.656963
0.657149
0.657294
0.657364
0.65741
0.657481
0.657601
0.65776
0.657897
0.658007
0.65813
0.658229
0.658314
0.658409
0.658528
0.658648
0.658749
0.658873
0.659007
0.659142
0.659283
0.659421
0.659577
0.65977
0.659968
0.660181
0.660398
0.660634
0.66087
0.661065
0.661267
0.661557
0.661932
0.662273
0.662462
0.662676
0.662969
0.663341
0.663696
0.663954
0.664294
0.664739
0.665115
0.665414
0.665672
0.665942
0.666146
0.66634
0.666552