/*--------------------------------*- C++ -*----------------------------------*\
  =========                 |
  \\      /  F ield         | OpenFOAM: The Open Source CFD Toolbox
   \\    /   O peration     | Website:  https://openfoam.org
    \\  /    A nd           | Version:  7
     \\/     M anipulation  |
\*---------------------------------------------------------------------------*/
FoamFile
{
    version     2.0;
    format      ascii;
    class       volScalarField;
    location    "6";
    object      p;
}
// * * * * * * * * * * * * * * * * * * * * * * * * * * * * * * * * * * * * * //

dimensions      [1 -1 -2 0 0 0 0];

internalField   nonuniform List<scalar> 
24000
(
0.282306
0.321942
0.366462
0.40374
0.439071
0.47976
0.516
0.552631
0.593559
0.635185
0.679339
0.727056
0.776449
0.829339
0.882356
0.934581
0.975212
1.00195
1.00721
1.00861
1.00631
1.00446
0.997482
0.988886
0.980848
0.970413
0.960476
0.965445
0.975701
0.986598
0.994832
0.998131
0.991941
0.982305
0.979962
0.985211
0.992408
0.992424
0.987049
0.983089
0.985592
0.991697
0.991584
0.987554
0.985964
0.987879
0.988708
0.987853
0.98766
0.987612
0.249436
0.249413
0.249366
0.249385
0.249585
0.250218
0.251627
0.25407
0.258695
0.266193
0.278616
0.297005
0.324677
0.363092
0.416435
0.483581
0.566673
0.652893
0.732932
0.807705
0.864064
0.911753
0.933812
0.952837
0.956259
0.959902
0.971065
0.988983
1.0008
1.00479
1.00353
0.993539
0.979896
0.977974
0.980989
0.989016
0.997062
0.992872
0.983858
0.983178
0.990043
0.992927
0.990387
0.98517
0.986022
0.989121
0.988514
0.986498
0.98702
0.987514
0.249886
0.249886
0.249905
0.249926
0.249947
0.250002
0.250044
0.250022
0.249961
0.249913
0.249886
0.249844
0.249802
0.249756
0.250209
0.25192
0.258138
0.271925
0.301957
0.349583
0.422472
0.512205
0.616382
0.72264
0.819036
0.907516
0.967506
0.991765
1.00072
1.00444
0.997701
0.963572
0.966274
0.976454
0.992816
0.998991
0.996306
0.985049
0.98075
0.983578
0.992924
0.994406
0.987754
0.984631
0.986735
0.989811
0.988037
0.986861
0.987363
0.987453
0.25007
0.250061
0.250048
0.250041
0.250034
0.250052
0.250087
0.250048
0.249982
0.24994
0.249905
0.249854
0.24981
0.249761
0.24971
0.249686
0.249681
0.249658
0.249651
0.249667
0.25045
0.254646
0.269992
0.305269
0.375024
0.479688
0.608864
0.732748
0.83002
0.897857
0.928038
0.938409
0.975206
0.992986
1.00859
1.00305
0.988286
0.977583
0.979815
0.991881
0.998935
0.993645
0.982669
0.983743
0.990664
0.990607
0.986037
0.985994
0.987676
0.987369
0.249917
0.249868
0.24978
0.249715
0.249672
0.249608
0.249562
0.249546
0.249524
0.249495
0.249453
0.249377
0.249312
0.249281
0.249258
0.249239
0.249215
0.249182
0.249183
0.249235
0.249349
0.249513
0.249758
0.249945
0.25035
0.253427
0.270675
0.317037
0.411037
0.545476
0.70992
0.856616
0.952181
0.975325
0.995394
0.992861
0.973068
0.975884
0.991046
1.00177
0.998257
0.982946
0.979996
0.987353
0.993272
0.989499
0.984753
0.985945
0.987499
0.987221
0.249792
0.24974
0.249677
0.249599
0.249543
0.249486
0.249403
0.249322
0.24928
0.249228
0.249106
0.249019
0.249006
0.249022
0.249052
0.249089
0.249101
0.249095
0.249079
0.249087
0.249167
0.249362
0.249575
0.249915
0.250438
0.250766
0.25082
0.250656
0.251233
0.261074
0.301492
0.416312
0.579362
0.730215
0.884407
0.918402
0.954787
0.985287
1.01258
1.00914
0.9855
0.974349
0.9815
0.9965
0.994866
0.98526
0.983182
0.988051
0.987768
0.986822
0.249856
0.249827
0.249802
0.249773
0.249727
0.249652
0.24956
0.249505
0.249458
0.249372
0.249195
0.249019
0.248995
0.249019
0.249096
0.249266
0.24939
0.249414
0.249407
0.249374
0.249402
0.249595
0.249853
0.25021
0.2506
0.250738
0.250722
0.250677
0.250247
0.249779
0.249737
0.251181
0.264833
0.336612
0.477461
0.67399
0.883713
0.962765
0.999488
0.991315
0.963987
0.973242
0.994024
1.00023
0.990468
0.980973
0.985486
0.989652
0.986487
0.986467
0.249827
0.249799
0.249763
0.249754
0.249734
0.24973
0.249748
0.249779
0.249803
0.249812
0.249786
0.249717
0.24975
0.249858
0.249974
0.250094
0.25017
0.250132
0.250041
0.250004
0.249996
0.249993
0.250094
0.250057
0.249927
0.249754
0.249737
0.249841
0.249837
0.249874
0.250041
0.250347
0.250806
0.250838
0.254533
0.30156
0.429116
0.622339
0.840319
0.897419
0.944586
0.992388
1.01019
1.00365
0.977172
0.978561
0.991499
0.991025
0.984477
0.986677
0.250139
0.250148
0.250159
0.250245
0.250367
0.250504
0.250637
0.250657
0.25068
0.250748
0.250767
0.250762
0.250792
0.250811
0.250775
0.250707
0.250621
0.250437
0.250291
0.250194
0.250038
0.24993
0.249745
0.249441
0.249044
0.248873
0.249042
0.24942
0.249587
0.24982
0.250225
0.250939
0.251509
0.251547
0.251394
0.250682
0.251728
0.285879
0.402764
0.628292
0.875269
0.968107
0.998036
0.982021
0.967708
0.986736
0.996406
0.98901
0.981937
0.988135
0.250953
0.250949
0.250948
0.250984
0.251193
0.251309
0.251305
0.251344
0.251359
0.251347
0.251314
0.251283
0.251241
0.251125
0.250991
0.250889
0.250672
0.250332
0.250191
0.249979
0.24967
0.249541
0.249394
0.249105
0.248672
0.248593
0.248907
0.249438
0.24952
0.249674
0.250258
0.251163
0.251647
0.251652
0.251472
0.250587
0.249478
0.24916
0.2501
0.287246
0.426733
0.64758
0.872017
0.929382
0.96754
1.00719
1.0012
0.977962
0.981513
0.991998
0.251542
0.251549
0.251575
0.251703
0.251763
0.251761
0.251773
0.251801
0.25179
0.251712
0.251587
0.25148
0.25136
0.251208
0.251066
0.250864
0.250464
0.250104
0.249958
0.249731
0.249347
0.249268
0.249294
0.249125
0.248785
0.248873
0.249604
0.25021
0.250031
0.249871
0.250309
0.251208
0.251705
0.251691
0.251258
0.250165
0.249043
0.248715
0.248844
0.249224
0.251716
0.299008
0.46415
0.745262
0.938248
0.999832
0.97902
0.968543
0.98952
0.99497
0.250502
0.250433
0.250359
0.250304
0.250241
0.250164
0.250024
0.249914
0.249748
0.249554
0.249467
0.24931
0.249139
0.249198
0.249465
0.249441
0.248989
0.248803
0.248904
0.249078
0.249029
0.248943
0.249308
0.249686
0.249913
0.250336
0.250844
0.250802
0.250277
0.24984
0.249845
0.250074
0.250288
0.250248
0.249855
0.249138
0.248477
0.248297
0.248457
0.248855
0.250122
0.250371
0.255029
0.333715
0.553487
0.826418
0.906618
0.971296
1.0041
0.996865
0.247383
0.2473
0.247213
0.247072
0.246909
0.246897
0.246878
0.246779
0.246731
0.246755
0.246796
0.246791
0.246871
0.247456
0.248111
0.248343
0.248228
0.247806
0.247723
0.248136
0.248578
0.249235
0.250296
0.251125
0.251641
0.251582
0.251411
0.251113
0.250387
0.249585
0.248615
0.248132
0.248097
0.248381
0.24852
0.248318
0.247886
0.247658
0.247889
0.249106
0.250326
0.250295
0.249452
0.247786
0.268325
0.400581
0.698965
0.934601
0.991537
0.983377
0.245609
0.245616
0.245622
0.245442
0.24492
0.244857
0.244849
0.244749
0.244723
0.244819
0.244836
0.24485
0.245239
0.246259
0.246895
0.247516
0.247928
0.247938
0.24841
0.249945
0.25057
0.251352
0.252641
0.252996
0.252573
0.251488
0.250785
0.250064
0.249351
0.249071
0.248414
0.247407
0.24723
0.247465
0.247992
0.248044
0.247883
0.248366
0.249386
0.250566
0.250313
0.249923
0.248762
0.247375
0.247423
0.249627
0.314234
0.534608
0.817673
0.942876
0.250339
0.250849
0.250993
0.250806
0.250364
0.250306
0.250555
0.250342
0.250167
0.250025
0.249744
0.249662
0.249764
0.250277
0.250819
0.251538
0.252483
0.252555
0.252894
0.253989
0.254041
0.25432
0.255024
0.254972
0.25384
0.251998
0.251481
0.250973
0.250331
0.250481
0.250283
0.249404
0.249139
0.249341
0.249751
0.250561
0.251892
0.253722
0.253781
0.252724
0.251419
0.250808
0.248634
0.249026
0.251141
0.254293
0.253453
0.269907
0.404916
0.801433
0.262196
0.262191
0.262349
0.262396
0.262337
0.262004
0.260885
0.258915
0.258437
0.258286
0.257469
0.256426
0.255476
0.254297
0.253893
0.254224
0.255156
0.255235
0.255137
0.254306
0.253447
0.253763
0.254562
0.254529
0.253445
0.251417
0.250712
0.250705
0.250862
0.25148
0.253284
0.25476
0.254935
0.254985
0.256004
0.25785
0.259419
0.259161
0.257759
0.255346
0.251589
0.251255
0.254214
0.258919
0.26167
0.259709
0.254815
0.25576
0.258404
0.459249
0.273664
0.273266
0.272699
0.272767
0.273563
0.274148
0.274106
0.273561
0.273098
0.271618
0.270245
0.270344
0.271858
0.272263
0.272202
0.273553
0.275927
0.276539
0.276189
0.275426
0.274632
0.273123
0.270683
0.269375
0.269843
0.271074
0.27304
0.275703
0.278784
0.282055
0.284566
0.284717
0.283867
0.281962
0.280486
0.279639
0.278698
0.277171
0.275342
0.275536
0.276877
0.278911
0.28132
0.280676
0.278651
0.275063
0.275819
0.278346
0.279023
0.290415
0.308424
0.308398
0.308567
0.309869
0.311785
0.312028
0.312085
0.312756
0.31278
0.312665
0.312995
0.313794
0.314213
0.313948
0.312769
0.312333
0.312634
0.312532
0.312491
0.312886
0.313595
0.313618
0.313612
0.313998
0.313958
0.312877
0.310695
0.308628
0.30675
0.304809
0.304269
0.304081
0.302735
0.299561
0.297582
0.296293
0.29403
0.293481
0.294891
0.297405
0.299935
0.299636
0.29798
0.295025
0.291558
0.292249
0.293485
0.294698
0.293154
0.28996
0.35783
0.358073
0.357587
0.356877
0.356676
0.356692
0.357059
0.35712
0.356697
0.354885
0.353508
0.353571
0.353306
0.350981
0.349126
0.3489
0.348423
0.345883
0.344253
0.344103
0.342989
0.342512
0.342892
0.342854
0.341961
0.339781
0.339071
0.339855
0.339625
0.33672
0.332293
0.329524
0.329565
0.331489
0.334513
0.335781
0.335459
0.335624
0.335218
0.334202
0.331599
0.328621
0.32501
0.321863
0.319799
0.319841
0.319478
0.317865
0.315175
0.311758
0.416512
0.415806
0.414282
0.413815
0.414188
0.414366
0.414139
0.414014
0.41338
0.412704
0.412864
0.412935
0.412048
0.41153
0.411656
0.411475
0.410514
0.40916
0.407966
0.406818
0.40531
0.403259
0.400947
0.399396
0.398432
0.397144
0.39671
0.397348
0.396877
0.394815
0.393179
0.391141
0.387916
0.385481
0.383723
0.380941
0.37674
0.372138
0.367672
0.362764
0.357598
0.353392
0.350393
0.350007
0.349733
0.348703
0.346109
0.342443
0.338714
0.333677
0.489409
0.488556
0.487498
0.48747
0.487376
0.48566
0.484062
0.484227
0.484036
0.482789
0.481625
0.481016
0.480208
0.478752
0.476929
0.475369
0.474228
0.473102
0.470954
0.469241
0.468305
0.46706
0.465155
0.462894
0.460471
0.457668
0.454506
0.451172
0.446999
0.442783
0.440187
0.436848
0.43376
0.430629
0.425378
0.419621
0.415122
0.411576
0.40864
0.405517
0.403593
0.401291
0.399482
0.397139
0.393577
0.38738
0.38103
0.373909
0.368915
0.363353
0.571224
0.571581
0.571563
0.570281
0.569472
0.569079
0.567457
0.566263
0.565846
0.565215
0.563239
0.561617
0.561073
0.56013
0.558281
0.556204
0.554304
0.552665
0.550809
0.548345
0.545739
0.543098
0.540106
0.536946
0.533641
0.530017
0.5267
0.523648
0.520317
0.515901
0.511403
0.50547
0.501005
0.497943
0.493953
0.487674
0.482329
0.477871
0.472546
0.467031
0.460449
0.453914
0.445483
0.437275
0.42789
0.41905
0.411739
0.404403
0.402724
0.397406
0.651503
0.651147
0.649842
0.648211
0.648076
0.648236
0.647694
0.646381
0.644391
0.643916
0.64361
0.642497
0.640471
0.638896
0.637654
0.636253
0.634488
0.632446
0.630383
0.628293
0.6259
0.62322
0.620243
0.616969
0.61356
0.609716
0.605453
0.600862
0.595912
0.59072
0.585733
0.580626
0.574824
0.567571
0.560939
0.55373
0.546054
0.537638
0.529366
0.520146
0.511468
0.502055
0.493006
0.484214
0.475609
0.469484
0.462988
0.458052
0.451831
0.438246
0.695921
0.69587
0.695597
0.695167
0.69504
0.694699
0.694073
0.693968
0.693782
0.693334
0.692454
0.691887
0.691575
0.691098
0.690217
0.689204
0.688198
0.687113
0.685981
0.684651
0.683291
0.681956
0.680439
0.678653
0.676629
0.674317
0.671467
0.668095
0.664225
0.660101
0.655733
0.650883
0.646027
0.64081
0.634146
0.626786
0.618754
0.610469
0.601612
0.592296
0.583061
0.573226
0.563706
0.553081
0.543184
0.532018
0.520618
0.508001
0.494902
0.474796
0.706576
0.706569
0.706591
0.70663
0.706632
0.706638
0.706665
0.706669
0.706654
0.706633
0.706621
0.706605
0.706585
0.7066
0.706606
0.706521
0.70633
0.706085
0.7057
0.705351
0.705174
0.704945
0.704582
0.704039
0.703443
0.703067
0.702682
0.702031
0.701
0.699494
0.697521
0.69506
0.692224
0.689538
0.686596
0.682829
0.677971
0.672045
0.664868
0.657001
0.648292
0.638965
0.628127
0.616126
0.603253
0.5894
0.575463
0.560114
0.547073
0.526968
0.71105
0.711128
0.711085
0.710793
0.710304
0.709884
0.709726
0.709601
0.709636
0.709689
0.709569
0.709281
0.708939
0.708567
0.708464
0.708474
0.708462
0.708414
0.708317
0.708321
0.708402
0.708477
0.708774
0.708967
0.709007
0.709117
0.709525
0.709579
0.709164
0.708515
0.707745
0.706643
0.706206
0.705943
0.705122
0.703869
0.702738
0.70123
0.698748
0.695303
0.691395
0.686757
0.680759
0.673051
0.663534
0.652626
0.640395
0.62623
0.61319
0.589154
0.713442
0.713438
0.713548
0.713574
0.713463
0.712975
0.712742
0.712945
0.712951
0.713004
0.71336
0.713333
0.712887
0.712383
0.712132
0.711856
0.711502
0.711379
0.711203
0.710558
0.709585
0.709375
0.709412
0.709262
0.7086
0.708502
0.709455
0.711078
0.712148
0.712272
0.711805
0.710404
0.708946
0.708648
0.708851
0.709196
0.709424
0.709284
0.708689
0.707574
0.706696
0.705888
0.704502
0.702033
0.698216
0.693084
0.68623
0.677088
0.666904
0.645239
0.721882
0.721408
0.720332
0.720086
0.720103
0.720423
0.720568
0.720667
0.720824
0.720916
0.721123
0.72161
0.721742
0.721638
0.721812
0.722073
0.721527
0.72018
0.719945
0.719953
0.719615
0.718758
0.718476
0.718182
0.717678
0.716921
0.715451
0.714923
0.714926
0.714374
0.714306
0.714958
0.715493
0.715516
0.713873
0.712087
0.711979
0.712472
0.712536
0.711891
0.710905
0.710128
0.709563
0.708723
0.70723
0.70516
0.702763
0.699433
0.695689
0.685375
0.755782
0.755091
0.754933
0.754106
0.753151
0.753147
0.752889
0.752784
0.752567
0.751391
0.750599
0.750702
0.750833
0.750226
0.748784
0.74743
0.745885
0.744727
0.743942
0.742952
0.741897
0.740524
0.739452
0.739452
0.740056
0.739593
0.737578
0.735128
0.73343
0.731399
0.728258
0.726745
0.72707
0.726844
0.725298
0.72283
0.720708
0.719675
0.718651
0.71713
0.715796
0.714496
0.713234
0.712506
0.711793
0.710825
0.71015
0.709434
0.708741
0.705989
0.821284
0.821114
0.820304
0.818578
0.817299
0.817372
0.81755
0.816677
0.815198
0.812995
0.812249
0.812344
0.811785
0.809819
0.808163
0.8071
0.805953
0.804725
0.803255
0.801176
0.799302
0.797359
0.794885
0.792081
0.789343
0.78649
0.783044
0.780057
0.777757
0.775248
0.772165
0.76858
0.765189
0.759703
0.756126
0.753773
0.750632
0.746209
0.742167
0.738702
0.735281
0.732429
0.729025
0.726386
0.724581
0.722742
0.720697
0.71898
0.717247
0.713283
0.911156
0.91133
0.910923
0.909061
0.908275
0.907582
0.90592
0.905257
0.905098
0.904267
0.902211
0.90093
0.900009
0.898539
0.896916
0.895246
0.893413
0.891471
0.889338
0.886901
0.884195
0.881503
0.878503
0.875229
0.871794
0.86811
0.864143
0.859872
0.855474
0.850444
0.845132
0.839455
0.83383
0.828259
0.822012
0.814571
0.807766
0.801098
0.793769
0.786492
0.778749
0.77147
0.764571
0.757426
0.750632
0.744308
0.738219
0.732445
0.727343
0.720453
0.977599
0.977672
0.977691
0.977202
0.976608
0.976188
0.975364
0.974984
0.97497
0.97462
0.973481
0.972332
0.972026
0.971634
0.970732
0.969473
0.968297
0.967149
0.965799
0.964219
0.962495
0.960706
0.958806
0.956544
0.954035
0.951241
0.948099
0.944609
0.940752
0.936598
0.931854
0.926721
0.920998
0.914489
0.907654
0.90024
0.891955
0.883062
0.873705
0.86353
0.853116
0.841873
0.830361
0.81878
0.807259
0.795405
0.784449
0.773682
0.764412
0.751403
0.998
0.99799
0.997992
0.997953
0.997888
0.997805
0.997669
0.997637
0.997616
0.997543
0.997374
0.997234
0.997123
0.99699
0.996838
0.996651
0.996426
0.996184
0.995912
0.995582
0.995212
0.994807
0.994329
0.993763
0.993098
0.992338
0.991422
0.990348
0.989082
0.987593
0.985834
0.983726
0.981212
0.978254
0.974697
0.970533
0.965588
0.959789
0.953003
0.945162
0.936107
0.925829
0.914317
0.901517
0.887564
0.872813
0.857226
0.840636
0.825985
0.801747
0.999947
0.999945
0.999944
0.999942
0.99994
0.999938
0.999935
0.999931
0.999928
0.999925
0.99992
0.999915
0.999909
0.999902
0.999895
0.999886
0.999875
0.999863
0.999848
0.999831
0.99981
0.999785
0.999754
0.999717
0.99967
0.999613
0.999541
0.999449
0.999333
0.999183
0.99899
0.998738
0.998407
0.997969
0.997388
0.996617
0.995582
0.994205
0.99236
0.98992
0.986678
0.982454
0.976946
0.969964
0.961182
0.95044
0.937645
0.92239
0.906972
0.87795
0.999999
0.999999
0.999999
0.999999
0.999999
0.999999
0.999999
0.999999
0.999999
0.999999
0.999999
0.999999
0.999999
0.999999
0.999999
0.999998
0.999998
0.999998
0.999998
0.999998
0.999997
0.999997
0.999996
0.999995
0.999994
0.999993
0.999992
0.999989
0.999986
0.999982
0.999977
0.999969
0.999957
0.99994
0.999914
0.999876
0.999818
0.999728
0.999588
0.999368
0.999022
0.998476
0.997619
0.996285
0.994232
0.99114
0.986622
0.979959
0.971972
0.952
1
1
1
1
1
1
1
1
1
1
1
1
1
1
1
1
1
1
1
1
1
1
1
1
1
1
1
1
1
1
1
1
0.999999
0.999999
0.999999
0.999998
0.999997
0.999995
0.999992
0.999987
0.999976
0.999957
0.999919
0.999848
0.99971
0.999446
0.998949
0.997983
0.996516
0.990746
1
1
1
1
1
1
1
1
1
1
1
1
1
1
1
1
1
1
1
1
1
1
1
1
1
1
1
1
1
1
1
1
1
1
1
1
1
1
1
1
1
0.999999
0.999999
0.999998
0.999995
0.999988
0.999972
0.999931
0.999852
0.999285
1
1
1
1
1
1
1
1
1
1
1
1
1
1
1
1
1
1
1
1
1
1
1
1
1
1
1
1
1
1
1
1
1
1
1
1
1
1
1
1
1
1
1
1
1
1
1
0.999999
0.999997
0.999977
1
1
1
1
1
1
1
1
1
1
1
1
1
1
1
1
1
1
1
1
1
1
1
1
1
1
1
1
1
1
1
1
1
1
1
1
1
1
1
1
1
1
1
1
1
1
1
1
1
1
1
1
1
1
1
1
1
1
1
1
1
1
1
1
1
1
1
1
1
1
1
1
1
1
1
1
1
1
1
1
1
1
1
1
1
1
1
1
1
1
1
1
1
1
1
1
1
1
1
1
0.248898
0.249457
0.249908
0.25008
0.24996
0.249855
0.249911
0.249854
0.250116
0.25093
0.251536
0.250542
0.247446
0.245604
0.249759
0.262678
0.274242
0.309085
0.357412
0.41667
0.489597
0.571687
0.651878
0.696029
0.706697
0.710938
0.713443
0.721909
0.756856
0.821715
0.910851
0.977771
0.998081
0.999949
0.999999
1
1
1
1
1
0.248884
0.249487
0.249957
0.250101
0.25
0.249924
0.249972
0.249897
0.250111
0.250929
0.251522
0.250506
0.247412
0.245627
0.249595
0.264002
0.275443
0.310911
0.359331
0.418414
0.490897
0.576008
0.653832
0.696782
0.706896
0.710827
0.71337
0.721788
0.757289
0.823158
0.912094
0.978776
0.998208
0.999953
0.999999
1
1
1
1
1
0.248826
0.249489
0.249997
0.250148
0.250054
0.249982
0.25003
0.249938
0.250056
0.250852
0.251401
0.25049
0.247343
0.24574
0.249715
0.264387
0.276094
0.311384
0.361463
0.420087
0.492947
0.578339
0.655173
0.697426
0.706988
0.710775
0.713281
0.721553
0.757155
0.824283
0.91443
0.979571
0.998289
0.999955
0.999999
1
1
1
1
1
0.248763
0.249448
0.250019
0.250205
0.250105
0.250021
0.250085
0.249986
0.250006
0.250652
0.251149
0.250431
0.247113
0.245938
0.25011
0.264345
0.276404
0.311785
0.362617
0.421797
0.496185
0.580132
0.656769
0.698027
0.707042
0.710796
0.713307
0.721583
0.757159
0.825708
0.915908
0.980125
0.998358
0.999958
1
1
1
1
1
1
0.248718
0.24935
0.250025
0.250256
0.250159
0.250053
0.250138
0.250032
0.250003
0.25056
0.250991
0.250252
0.246858
0.246123
0.249988
0.263837
0.276681
0.313172
0.363601
0.42372
0.498223
0.582491
0.658885
0.698551
0.707088
0.710781
0.713453
0.722102
0.758562
0.827342
0.91704
0.980672
0.998431
0.99996
1
1
1
1
1
1
0.248697
0.249309
0.250021
0.250294
0.250223
0.25011
0.250219
0.250082
0.250009
0.250531
0.250876
0.25003
0.246768
0.246273
0.249462
0.263626
0.277206
0.315334
0.365131
0.425568
0.500477
0.584924
0.660635
0.699084
0.707179
0.710762
0.713442
0.722579
0.759989
0.828716
0.918398
0.981262
0.998512
0.999963
1
1
1
1
1
1
0.248691
0.249303
0.249998
0.250305
0.250308
0.250236
0.250347
0.250145
0.250018
0.250505
0.250762
0.249986
0.246828
0.246477
0.249434
0.264203
0.277873
0.31648
0.366774
0.42758
0.502994
0.587553
0.662346
0.699637
0.70741
0.711
0.712384
0.722942
0.760546
0.830038
0.920051
0.981904
0.998601
0.999966
1
1
1
1
1
1
0.24868
0.249318
0.249998
0.250307
0.250379
0.250358
0.25049
0.250207
0.250035
0.250443
0.250649
0.250024
0.247199
0.246777
0.250775
0.266921
0.278856
0.317279
0.368337
0.429804
0.505615
0.590184
0.664193
0.700222
0.70774
0.711449
0.711767
0.723667
0.761096
0.83155
0.921888
0.982602
0.998684
0.999969
1
1
1
1
1
1
0.248659
0.249326
0.250026
0.25033
0.250426
0.250455
0.250615
0.250253
0.250044
0.250265
0.250549
0.250186
0.247508
0.246959
0.252107
0.26846
0.280177
0.318464
0.370006
0.432139
0.508156
0.592977
0.66619
0.700829
0.708048
0.711489
0.71181
0.724818
0.762011
0.833543
0.923625
0.98333
0.998764
0.999971
1
1
1
1
1
1
0.24864
0.249293
0.250031
0.250358
0.250465
0.250541
0.250719
0.250289
0.250049
0.25008
0.250469
0.250231
0.247546
0.246939
0.252219
0.268517
0.280859
0.320527
0.371989
0.434448
0.510816
0.596159
0.668225
0.701449
0.708364
0.711369
0.712146
0.725699
0.763456
0.835652
0.925334
0.984042
0.998843
0.999973
1
1
1
1
1
1
0.248639
0.249205
0.250018
0.250363
0.250507
0.250625
0.250813
0.250319
0.250033
0.249977
0.250408
0.250112
0.247502
0.246711
0.251783
0.267942
0.281008
0.322402
0.373828
0.43673
0.514007
0.599544
0.67024
0.702056
0.708641
0.711423
0.712841
0.72631
0.764674
0.83758
0.927102
0.984734
0.998922
0.999976
1
1
1
1
1
1
0.248671
0.249179
0.249949
0.250361
0.250538
0.250703
0.250897
0.250345
0.249974
0.249872
0.250347
0.250031
0.247472
0.246514
0.251524
0.267354
0.280708
0.323754
0.375401
0.439347
0.517801
0.602857
0.672278
0.702631
0.708779
0.711779
0.713534
0.726913
0.765866
0.839569
0.928979
0.985437
0.999001
0.999978
1
1
1
1
1
1
0.248721
0.2492
0.249912
0.250325
0.250547
0.250768
0.250965
0.250366
0.249894
0.249724
0.250282
0.250013
0.247744
0.246621
0.25175
0.26709
0.280332
0.325235
0.376965
0.442539
0.521463
0.606186
0.674363
0.703178
0.708805
0.711936
0.713664
0.72794
0.767255
0.841685
0.930967
0.98617
0.999078
0.99998
1
1
1
1
1
1
0.248771
0.249207
0.249906
0.250272
0.250548
0.250809
0.251012
0.250386
0.2498
0.249552
0.250205
0.250012
0.248416
0.247319
0.252276
0.267106
0.280328
0.327366
0.37881
0.446077
0.52505
0.609706
0.676484
0.703725
0.708805
0.711934
0.713528
0.729703
0.768811
0.843944
0.933046
0.986918
0.999153
0.999982
1
1
1
1
1
1
0.248818
0.249189
0.249901
0.250241
0.250544
0.250829
0.251038
0.250394
0.249683
0.24936
0.250072
0.249972
0.248929
0.247933
0.252469
0.267397
0.28145
0.330184
0.381415
0.449588
0.528827
0.613511
0.678624
0.704308
0.708878
0.711784
0.713306
0.73123
0.770453
0.846363
0.935185
0.987658
0.999225
0.999984
1
1
1
1
1
1
0.248861
0.249191
0.249865
0.250205
0.250529
0.250833
0.251047
0.250374
0.249502
0.249137
0.249892
0.249979
0.249208
0.248068
0.252469
0.26769
0.283809
0.333634
0.38472
0.453252
0.532921
0.617497
0.680779
0.704932
0.708971
0.711476
0.713324
0.732223
0.772099
0.848948
0.937373
0.988399
0.999296
0.999986
1
1
1
1
1
1
0.248916
0.249214
0.249791
0.250161
0.250509
0.250832
0.251048
0.250299
0.249287
0.248899
0.249723
0.250027
0.249396
0.248062
0.251999
0.267882
0.28682
0.3377
0.388097
0.457072
0.537354
0.621544
0.682949
0.705561
0.708979
0.71117
0.713639
0.733048
0.773767
0.851693
0.939638
0.98915
0.999364
0.999988
1
1
1
1
1
1
0.249005
0.249232
0.249742
0.250108
0.250489
0.250831
0.251002
0.250183
0.249129
0.248696
0.249558
0.250024
0.249569
0.247858
0.250769
0.267945
0.290872
0.341891
0.391574
0.461058
0.541968
0.625684
0.685137
0.706171
0.708828
0.710813
0.713739
0.733891
0.775512
0.854576
0.942007
0.989903
0.999429
0.999989
1
1
1
1
1
1
0.249094
0.249254
0.249702
0.250043
0.250453
0.250827
0.250866
0.250065
0.249038
0.248561
0.249405
0.250009
0.249734
0.247263
0.249853
0.268003
0.294895
0.345388
0.395248
0.465229
0.5468
0.629982
0.687321
0.706745
0.708588
0.710415
0.713537
0.734709
0.777427
0.857605
0.944464
0.990642
0.999491
0.999991
1
1
1
1
1
1
0.249161
0.249288
0.249653
0.249964
0.250393
0.250805
0.250694
0.249973
0.248981
0.248482
0.249281
0.250035
0.249959
0.247038
0.249616
0.269239
0.297926
0.347885
0.399015
0.469596
0.551957
0.634456
0.689471
0.707258
0.708353
0.710188
0.713266
0.735265
0.779657
0.860829
0.946988
0.991371
0.999549
0.999992
1
1
1
1
1
1
0.249232
0.249325
0.249583
0.249856
0.250278
0.250712
0.250546
0.24992
0.248947
0.248433
0.249165
0.250217
0.25027
0.247031
0.249622
0.273119
0.300669
0.349695
0.402855
0.474251
0.557476
0.639069
0.691569
0.707675
0.708171
0.710082
0.713352
0.735443
0.782297
0.864302
0.949577
0.992093
0.999604
0.999993
1
1
1
1
1
1
0.249345
0.249363
0.249501
0.249708
0.250112
0.25056
0.250418
0.24991
0.248937
0.2484
0.249029
0.250347
0.250504
0.247027
0.249766
0.276081
0.303543
0.351256
0.406944
0.479342
0.563336
0.643788
0.69361
0.707973
0.708079
0.710045
0.71434
0.735605
0.785273
0.868015
0.952229
0.9928
0.999655
0.999994
1
1
1
1
1
1
0.249487
0.249416
0.249409
0.249559
0.249978
0.250427
0.250287
0.249915
0.24894
0.248383
0.248813
0.250323
0.250634
0.24712
0.250069
0.277595
0.306359
0.353073
0.411514
0.48489
0.569504
0.648601
0.695579
0.708139
0.708051
0.710054
0.71577
0.736977
0.788491
0.871875
0.95492
0.993484
0.999701
0.999995
1
1
1
1
1
1
0.249642
0.249473
0.2493
0.249432
0.249889
0.250315
0.250183
0.249925
0.248958
0.248406
0.248675
0.250064
0.250713
0.247881
0.250535
0.27795
0.308943
0.355907
0.416618
0.49085
0.575992
0.653499
0.697449
0.70822
0.708058
0.710249
0.716826
0.739272
0.791892
0.87586
0.957637
0.994145
0.999744
0.999996
1
1
1
1
1
1
0.249818
0.249504
0.249174
0.249305
0.249815
0.250221
0.250144
0.249957
0.249135
0.248639
0.248831
0.249608
0.250752
0.248571
0.250738
0.277129
0.311595
0.359858
0.422153
0.497238
0.582802
0.658451
0.699179
0.708302
0.708072
0.710543
0.717577
0.740943
0.795352
0.880037
0.960389
0.994782
0.999783
0.999997
1
1
1
1
1
1
0.249948
0.249519
0.249079
0.249163
0.2497
0.250129
0.25015
0.250099
0.249694
0.249049
0.249144
0.249292
0.250759
0.248903
0.250938
0.276861
0.314843
0.364147
0.427956
0.504078
0.589943
0.663409
0.700748
0.708392
0.708088
0.710457
0.718533
0.74251
0.798852
0.884432
0.963175
0.99539
0.999819
0.999997
1
1
1
1
1
1
0.250036
0.249498
0.249044
0.249039
0.249547
0.250011
0.250221
0.25032
0.250312
0.249453
0.24923
0.249023
0.250921
0.249646
0.252232
0.279698
0.319211
0.368741
0.434075
0.51134
0.597343
0.668339
0.702143
0.708497
0.708157
0.71043
0.720071
0.744299
0.802444
0.889041
0.965979
0.995966
0.99985
0.999998
1
1
1
1
1
1
0.2501
0.249475
0.249039
0.248977
0.249429
0.249869
0.250303
0.250561
0.250802
0.24978
0.249198
0.248755
0.251212
0.25131
0.254423
0.285349
0.324006
0.373828
0.440567
0.519028
0.605073
0.673209
0.703349
0.708696
0.708472
0.711049
0.721832
0.746257
0.806235
0.8939
0.968797
0.996508
0.999877
0.999998
1
1
1
1
1
1
0.250134
0.249469
0.249053
0.24896
0.249358
0.24971
0.250301
0.250702
0.25109
0.25008
0.249121
0.248024
0.251235
0.252485
0.256144
0.289584
0.327738
0.379461
0.447469
0.527322
0.613176
0.677914
0.704359
0.70897
0.708733
0.71183
0.723377
0.748457
0.810424
0.899035
0.971611
0.997012
0.999901
0.999999
1
1
1
1
1
1
0.250102
0.249471
0.249093
0.249002
0.249328
0.249542
0.250148
0.250754
0.25124
0.250322
0.24882
0.246877
0.250974
0.25286
0.257889
0.292826
0.330393
0.385658
0.454838
0.536342
0.621535
0.682389
0.705195
0.709138
0.70878
0.712294
0.724492
0.751172
0.815173
0.904432
0.974402
0.997474
0.999921
0.999999
1
1
1
1
1
1
0.249937
0.249498
0.249163
0.249154
0.249329
0.249428
0.249994
0.250778
0.251293
0.250459
0.248057
0.245821
0.249859
0.252728
0.26034
0.297425
0.333166
0.392613
0.462828
0.546029
0.630041
0.686582
0.705905
0.709188
0.708741
0.71269
0.724974
0.754449
0.820478
0.910044
0.977124
0.997892
0.999938
0.999999
1
1
1
1
1
1
0.249793
0.249543
0.249248
0.249314
0.249349
0.24939
0.249945
0.250808
0.2513
0.250532
0.247677
0.245297
0.248829
0.252564
0.263448
0.30324
0.338564
0.400553
0.471626
0.556304
0.638658
0.690442
0.706572
0.709203
0.708766
0.713087
0.724839
0.758004
0.826163
0.915793
0.979757
0.998267
0.999952
0.999999
1
1
1
1
1
1
0.249706
0.249596
0.249366
0.249534
0.249429
0.249398
0.249948
0.250857
0.251318
0.250725
0.247623
0.245121
0.248332
0.253421
0.266738
0.307827
0.346487
0.409226
0.481268
0.567164
0.647315
0.693929
0.707216
0.709343
0.709011
0.713422
0.724767
0.761748
0.832121
0.921674
0.982297
0.998598
0.999964
1
1
1
1
1
1
1
0.249558
0.249765
0.249698
0.249794
0.249535
0.249419
0.249927
0.250884
0.251328
0.25093
0.24762
0.245026
0.248003
0.255599
0.269996
0.311071
0.354009
0.418048
0.491878
0.578705
0.655847
0.697054
0.707695
0.709613
0.709225
0.713878
0.725067
0.765837
0.838442
0.927726
0.984723
0.998885
0.999973
1
1
1
1
1
1
1
0.249438
0.249871
0.250048
0.250071
0.249718
0.249474
0.249827
0.250837
0.251123
0.250816
0.247463
0.244917
0.247394
0.258364
0.273704
0.313736
0.361687
0.427216
0.503475
0.590789
0.664102
0.699793
0.707955
0.709726
0.709385
0.715152
0.725724
0.770468
0.84534
0.933938
0.987003
0.999131
0.999981
1
1
1
1
1
1
1
0.249336
0.249954
0.250362
0.250284
0.249885
0.249605
0.249712
0.250579
0.250822
0.250476
0.246946
0.244574
0.24646
0.261114
0.278565
0.316902
0.370391
0.437052
0.515975
0.603336
0.672008
0.702128
0.708099
0.709736
0.709497
0.716623
0.729256
0.775932
0.85294
0.940271
0.989127
0.999336
0.999986
1
1
1
1
1
1
1
0.249259
0.250005
0.250568
0.250468
0.250027
0.249725
0.249638
0.250195
0.250573
0.250222
0.246526
0.244005
0.246055
0.26439
0.284258
0.322561
0.380419
0.447869
0.529496
0.616371
0.679423
0.704038
0.708181
0.709734
0.709539
0.716983
0.734898
0.78198
0.861191
0.946628
0.991063
0.999505
0.99999
1
1
1
1
1
1
1
0.249281
0.250051
0.250661
0.25056
0.250159
0.249838
0.249554
0.249714
0.250269
0.249967
0.246473
0.243992
0.246685
0.269478
0.289363
0.331375
0.391346
0.46009
0.544256
0.629723
0.686113
0.705523
0.708226
0.709935
0.709778
0.716308
0.738472
0.787824
0.8699
0.952902
0.992799
0.999639
0.999993
1
1
1
1
1
1
1
0.249401
0.250055
0.250674
0.250566
0.250251
0.249994
0.249362
0.249138
0.249772
0.249643
0.247193
0.244502
0.248548
0.273415
0.293243
0.341289
0.402522
0.474099
0.560195
0.642933
0.691923
0.706615
0.70826
0.710445
0.710536
0.715799
0.741362
0.793841
0.87893
0.959041
0.994328
0.999744
0.999996
1
1
1
1
1
1
1
0.249678
0.249922
0.250489
0.250401
0.250235
0.250117
0.249251
0.248664
0.248998
0.249256
0.248379
0.245134
0.249806
0.275549
0.297566
0.352258
0.41428
0.489815
0.577087
0.655737
0.6968
0.707392
0.708306
0.710724
0.710817
0.71657
0.745598
0.801093
0.888352
0.965023
0.995651
0.999824
0.999997
1
1
1
1
1
1
1
0.249833
0.249886
0.250113
0.250134
0.250155
0.25023
0.249391
0.248482
0.248348
0.248914
0.249835
0.246633
0.250599
0.277194
0.306036
0.36485
0.42766
0.50728
0.594854
0.667768
0.700686
0.70795
0.708327
0.710743
0.71061
0.719356
0.750747
0.81009
0.898304
0.970753
0.996758
0.999883
0.999998
1
1
1
1
1
1
1
0.250073
0.249873
0.249742
0.249816
0.250108
0.25034
0.249983
0.24858
0.248069
0.248158
0.251241
0.249425
0.252092
0.279523
0.318046
0.377791
0.443296
0.526577
0.613314
0.678549
0.703598
0.708351
0.708159