/*--------------------------------*- C++ -*----------------------------------*\
  =========                 |
  \\      /  F ield         | OpenFOAM: The Open Source CFD Toolbox
   \\    /   O peration     | Website:  https://openfoam.org
    \\  /    A nd           | Version:  7
     \\/     M anipulation  |
\*---------------------------------------------------------------------------*/
FoamFile
{
    version     2.0;
    format      ascii;
    class       volScalarField;
    location    "3.8";
    object      p;
}
// * * * * * * * * * * * * * * * * * * * * * * * * * * * * * * * * * * * * * //

dimensions      [1 -1 -2 0 0 0 0];

internalField   nonuniform List<scalar> 
1750
(
0.31802
0.498517
0.655638
0.736623
0.852129
0.882803
0.855197
0.805186
0.791128
0.782959
0.123878
0.185928
0.304241
0.42101
0.530798
0.637415
0.734356
0.764659
0.808838
0.812246
0.123828
0.1351
0.131574
0.133784
0.14976
0.210474
0.325623
0.523087
0.652439
0.729347
0.141589
0.13867
0.144191
0.147091
0.141097
0.134382
0.135352
0.169797
0.248909
0.468747
0.185543
0.170234
0.174005
0.194016
0.210724
0.216442
0.218563
0.21896
0.221804
0.234831
0.32316
0.297872
0.2967
0.303412
0.301516
0.292848
0.284039
0.277312
0.266764
0.246755
0.499607
0.46122
0.42561
0.415299
0.403733
0.378174
0.355647
0.340537
0.338182
0.33285
0.711323
0.673134
0.620393
0.585241
0.561341
0.533044
0.503375
0.480206
0.460596
0.42541
1.03159
0.952089
0.879554
0.819885
0.764953
0.717082
0.664233
0.618894
0.586187
0.529711
1.56502
1.41985
1.28049
1.16698
1.06547
0.974117
0.893997
0.813106
0.758333
0.680947
2.06704
1.9665
1.83654
1.69765
1.55643
1.40024
1.26543
1.14358
1.04093
0.902523
2.07948
2.04316
1.99965
1.96077
1.89995
1.81634
1.71361
1.59877
1.48255
1.28582
1.66443
1.74633
1.8074
1.86602
1.86159
1.82557
1.78843
1.74935
1.69859
1.58822
1.10165
1.16788
1.24395
1.34269
1.44086
1.52032
1.5805
1.62346
1.62183
1.57869
1.00268
1.00632
1.0134
1.02752
1.0538
1.09562
1.15316
1.23007
1.30467
1.41565
0.146835
0.117407
0.112318
0.143833
0.201676
0.330528
0.503984
0.75021
1.13524
1.73026
2.13885
2.09088
1.52894
1.05806
1.00132
0.176506
0.119833
0.106407
0.150233
0.2253
0.364983
0.568132
0.890873
1.35791
1.97295
2.21391
2.03838
1.36622
1.02565
1.00042
0.185285
0.116386
0.0940248
0.146013
0.236052
0.393827
0.674247
1.05811
1.55531
2.15071
2.26047
1.91926
1.2335
1.01072
1.00015
0.180914
0.104156
0.083617
0.14422
0.275683
0.517304
0.843983
1.21071
1.78086
2.29346
2.27744
1.78183
1.12264
1.0037
1.00004
0.160696
0.0968414
0.0790847
0.194772
0.392045
0.640196
0.950157
1.37608
2.05558
2.36604
2.26777
1.53085
1.05055
1.00111
1.00001
0.135981
0.0934141
0.103212
0.278329
0.472159
0.715488
1.08257
1.67725
2.29809
2.41101
2.06181
1.30467
1.01925
1.00032
1
0.104874
0.0930348
0.16506
0.327148
0.50993
0.817801
1.36289
2.04027
2.4525
2.43018
1.84466
1.15416
1.00576
1.00008
1
0.0860424
0.118279
0.19826
0.351178
0.593514
1.10521
1.73092
2.32848
2.50267
2.34142
1.54037
1.05026
1.00121
1.00002
1
0.0763921
0.13734
0.217146
0.41981
0.935172
1.46522
2.05339
2.52311
2.5057
2.04252
1.25606
1.01441
1.00027
1
1
0.0566522
0.140264
0.287613
0.728473
1.2836
1.79889
2.38585
2.61245
2.47248
1.74541
1.11109
1.00398
1.00006
1
1
0.0334246
0.162689
0.516765
1.08408
1.62949
2.2081
2.65376
2.63754
2.28514
1.3848
1.02777
1.00063
1.00001
1
1
0.024788
0.321465
0.898808
1.47561
2.09544
2.58147
2.74903
2.61971
1.80697
1.11551
1.00455
1.00008
1
1
1
0.071726
0.656252
1.38598
2.0012
2.56866
2.75597
2.77302
2.26452
1.3219
1.02398
1.00063
1.00001
1
1
1
0.388769
1.23806
2.02539
2.53454
2.85016
2.7788
2.6183
1.6568
1.0836
1.00304
1.00005
1
1
1
1
1.31921
2.16639
2.60982
2.82433
2.92167
2.76099
2.04516
1.1902
1.00821
1.00014
1
1
1
1
1
2.89612
2.85767
2.8319
2.90114
2.93341
2.474
1.30292
0.988025
0.998517
0.999976
1
1
1
1
1
2.87522
2.85145
2.81282
2.88478
2.91651
2.17997
1.16477
1.00513
1.00006
1
1
1
1
1
1
2.79129
2.85841
2.92282
2.91901
2.71574
1.67929
1.03703
1.00015
1
1
1
1
1
1
1
2.74171
2.88285
3.03364
2.93133
2.43323
1.29192
1.00576
1.00002
1
1
1
1
1
1
1
2.72096
2.89654
3.0855
2.92137
1.91376
1.06474
1.00038
1
1
1
1
1
1
1
1
2.75586
2.94906
3.11014
2.5837
1.42626
1.01168
1.00004
1
1
1
1
1
1
1
1
2.94349
3.00788
3.12431
2.16296
1.12302
1.00095
1
1
1
1
1
1
1
1
1
3.26757
3.0516
2.783
1.47791
1.01299
1.00004
1
1
1
1
1
1
1
1
1
3.6094
2.85284
2.13337
1.13508
1.00127
1
1
1
1
1
1
1
1
1
1
3.77162
2.61206
1.49716
1.01562
1.00005
1
1
1
1
1
1
1
1
1
1
3.67059
2.10989
1.15879
1.00188
1.00001
1
1
1
1
1
1
1
1
1
1
3.20077
1.65376
1.03986
1.00022
1
1
1
1
1
1
1
1
1
1
1
2.66966
1.29256
1.0069
1.00002
1
1
1
1
1
1
1
1
1
1
1
1.97985
1.09884
1.00096
1
1
1
1
1
1
1
1
1
1
1
1
1.39056
1.01693
1.00006
1
1
1
1
1
1
1
1
1
1
1
1
1
1
1
1
1
1
1
1
1
1
1
1
1
1
1
1
1
1
1
1
1
1
1
1
1
1
1
1
1
1
1
1
1
1
1
1
1
1
1
1
1
1
1
1
1
1
1
1
1
1
1
1
1
1
1
1
1
1
1
1
1
1
1
1
1
1
1
1
1
1
1
1
1
1
1
1
1
1
1
1
1
1
1
1
1
1
1
1
1
1
1
1
1
1
1
1
1
1
1
1
1
1
1
1
1
1
1
1
1
1
1
1
1
1
1
1
1
1
1
1
1
1
1
1
1
1
1
1
1
1
1
1
1
1
1
1
1
1
1
1
1
1
1
1
1
1
1
1
1
1
1
1
1
1
1
1
1
1
1
1
1
1
1
1
1
1
1
1
1
1
1
1
1
1
1
1
1
1
1
1
1
1
1
1
1
1
1
1
1
1
1
1
1
1
1
1
1
1
1
1
1
1
1
1
1
1
1
1
1
1
1
1
1
1
1
1
1
1
1
1
1
1
1
1
1
1
1
1
1
1
1
1
1
1
1
1
1
1
1
1
1
1
1
1
1
1
1
1
1
1
1
1
1
1
1
1
1
1
1
1
1
1
1
1
1
1
1
1
1
1
1
1
1
1
1
1
1
1
1
1
1
1
1
1
1
1
1
1
1
1
1
1
1
1
1
1
1
1
1
1
1
1
1
1
1
1
1
1
1
1
1
1
1
1
1
1
1
1
1
1
1
1
1
1
1
1
1
1
1
1
1
1
1
1
1
1
1
1
1
1
1
1
1
1
1
1
1
1
1
1
1.78916
1.01387
1
1
1
1
1
1
1
1
1
1
1
1
1
1
1
1
1
1
3.04695
1.22983
0.999368
1
1
1
1
1
1
1
1
1
1
1
1
1
1
1
1
1
4.70835
1.89016
1.01409
0.999957
1
1
1
1
1
1
1
1
1
1
1
1
1
1
1
1
5.56135
3.25654
1.45423
1.00081
1
1
1
1
1
1
1
1
1
1
1
1
1
1
1
1
5.2811
4.2098
3.04503
1.2273
0.999695
0.999999
1
1
1
1
1
1
1
1
1
1
1
1
1
1
4.52185
4.29366
4.1994
2.53257
1.11566
0.999749
0.999998
1
1
1
1
1
1
1
1
1
1
1
1
1
3.9074
4.11634
4.40126
3.90406
1.89569
1.02102
0.999947
0.999998
1
1
1
1
1
1
1
1
1
1
1
1
3.86058
4.00145
4.28954
4.23078
3.33831
1.38463
1.00115
1
1
1
1
1
1
1
1
1
1
1
1
1
3.90932
3.99232
4.09679
4.10851
3.96977
2.50698
1.12519
0.999924
0.999998
1
1
1
1
1
1
1
1
1
1
1
3.99357
3.98532
3.94554
4.00721
4.08527
3.62454
1.71108
1.01139
0.999981
0.999999
1
1
1
1
1
1
1
1
1
1
4.02075
4.00531
3.9757
4.0169
4.0617
4.02326
2.79262
1.19617
1.00023
1
1
1
1
1
1
1
1
1
1
1
4.05706
4.05077
4.04655
4.04689
4.01027
3.95849
3.53609
1.87688
1.02909
0.999985
1
1
1
1
1
1
1
1
1
1
4.08039
4.07642
4.07445
4.03848
3.98216
3.9904
3.99302
2.96283
1.26504
1.00088
1
1
1
1
1
1
1
1
1
1
4.08727
4.07952
4.07215
4.04454
4.01519
4.05198
4.07582
3.73139
2.04087
1.07511
1.00082
1
1
1
1
1
1
1
1
1
4.08617
4.08305
4.0726
4.06622
4.07081
4.0759
4.0574
3.81897
2.82943
1.149
0.988258
0.999111
0.99999
1
1
1
1
1
1
1
1.51414
2.67347
3.36679
3.72074
3.91169
4.01689
4.04035
3.89592
3.91422
2.65398
1.31073
1.01748
1.00042
1.00001
1
1
1
1
1
1
0.268027
1.35737
2.2091
2.85562
3.34911
3.68147
3.89526
3.89743
4.01224
3.72111
2.44051
1.27796
1.01554
1.00034
1
1
1
1
1
1
0.106573
0.681384
1.31854
1.89422
2.48817
3.02644
3.45123
3.71842
3.93273
3.87326
3.60175
2.20115
1.18562
1.00814
1.00015
1
1
1
1
1
0.0914907
0.350115
0.779165
1.28265
1.77327
2.3128
2.83546
3.2826
3.62849
3.81472
3.82117
3.27118
1.81039
1.086
1.00261
1.00004
1
1
1
1
0.15343
0.25149
0.403524
0.80409
1.26457
1.72843
2.25244
2.74652
3.20176
3.55616
3.75153
3.69375
2.84446
1.44752
1.02714
1.00051
1.00001
1
1
1
0.286464
0.256391
0.276111
0.479328
0.841004
1.25475
1.71528
2.19175
2.709
3.11885
3.51053
3.64693
3.48475
2.27427
1.19216
1.0072
1.0001
1
1
1
0.384554
0.271094
0.25137
0.401308
0.621079
0.935357
1.29338
1.74528
2.20907
2.64118
3.08668
3.48575
3.45624
2.97716
1.65127
1.04875
1.00095
1.00001
1
1
0.390925
0.261064
0.22219
0.353167
0.50033
0.749471
1.03749
1.42328
1.86198
2.29108
2.64376
3.13978
3.37596
3.28486
2.33851
1.23406
1.0085
1.0001
1
1
0.365878
0.256736
0.223302
0.28675
0.375393
0.579012
0.822862
1.15668
1.56327
1.97252
2.33225
2.78792
3.22421
3.25722
2.81122
1.59854
1.04413
1.00078
1.00001
1
0.320254
0.261969
0.246758
0.269583
0.313576
0.435511
0.633644
0.894909
1.25252
1.59468
1.99475
2.42069
2.9539
3.18659
3.07826
2.16769
1.16622
1.00478
1.00005
1
0.285918
0.278867
0.279744
0.275113
0.30462
0.411307
0.553257
0.768856
1.02182
1.32781
1.67333
2.05247
2.57059
3.03948
3.05639
2.56933
1.45757
1.02478
1.00033
1
0.266866
0.285116
0.304858
0.277446
0.28812
0.393541
0.510529
0.695439
0.926091
1.18862
1.49306
1.84488
2.23327
2.77189
2.99854
2.77025
1.80989
1.09082
1.00188
1.00002
0.264465
0.285242
0.299464
0.268942
0.264697
0.348087
0.435136
0.613801
0.822338
1.06742
1.35144
1.67918
2.02907
2.49467
2.88584
2.82907
2.16583
1.21852
1.00725
1.00007
0.266885
0.283536
0.288704
0.260596
0.249294
0.297165
0.360753
0.488844
0.68344
0.890831
1.17242
1.45335
1.81061
2.23232
2.72212
2.80282
2.46477
1.44816
1.02507
1.00031
0.274203
0.280103
0.281152
0.257741
0.249557
0.278738
0.319938
0.411631
0.557415
0.726947
0.976968
1.23916
1.55726
1.95718
2.47982
2.74028
2.56763
1.72389
1.07479
1.00142
0.381001
0.28438
0.270616
0.253753
0.256646
0.283125
0.323817
0.425668
0.551355
0.706732
0.919935
1.17114
1.43596
1.79003
2.28164
2.65209
2.58871
1.94091
1.14671
1.0036
0.462105
0.307583
0.267373
0.252056
0.261329
0.278748
0.319925
0.42812
0.532422
0.683966
0.869566
1.11211
1.35948
1.65823
2.08835
2.5476
2.56722
2.14564
1.26648
1.01047
0.561427
0.352461
0.265703
0.256268
0.258714
0.262993
0.297514
0.403982
0.486495
0.628996
0.800162
1.01552
1.25752
1.52707
1.91236
2.40652
2.52433
2.27467
1.44309
1.02868
0.682707
0.484491
0.291057
0.256718
0.255376
0.252826
0.295762
0.386363
0.450221
0.567223
0.719612
0.913302
1.14064
1.38914
1.72528
2.21876
2.45363
2.32077
1.63965
1.07375
0.821507
0.612883
0.338185
0.249141
0.248348
0.247582
0.301463
0.376881
0.43568
0.554166
0.691906
0.860188
1.0592
1.28753
1.56332
2.0042
2.35213
2.31098
1.81675
1.15276
0.903606
0.73054
0.435091
0.245774
0.235992
0.237661
0.299534
0.356436
0.410849
0.540291
0.664694
0.815419
0.997065
1.20071
1.44668
1.82203
2.24507
2.28839
1.97158
1.28422
0.874672
0.819823
0.619777
0.279903
0.225816
0.237122
0.29251
0.333569
0.383448
0.506634
0.621803
0.754009
0.920513
1.10515
1.32371
1.65466
2.10514
2.23791
2.04372
1.46219
0.818254
0.834259
0.708794
0.419081
0.233234
0.24083
0.286026
0.318243
0.377398
0.482167
0.57071
0.693347
0.841552
1.01031
1.20271
1.48141
1.91609
2.14731
2.05226
1.66897
0.781136
0.801095
0.759074
0.610281
0.279885
0.236489
0.276975
0.30773
0.377318
0.46034
0.530442
0.650199
0.783638
0.934247
1.11337
1.34815
1.73559
2.04357
2.01811
1.86396
0.771987
0.778793
0.790284
0.728776
0.474719
0.251588
0.256143
0.291894
0.358398
0.415552
0.476363
0.580522
0.692968
0.821217
0.975186
1.16558
1.47524
1.83542
1.93704
2.06534
)
;

boundaryField
{
    inlet
    {
        type            fixedValue;
        value           uniform 1;
    }
    outlet
    {
        type            zeroGradient;
    }
    airfoil
    {
        type            zeroGradient;
    }
    top
    {
        type            symmetryPlane;
    }
    bottom
    {
        type            symmetryPlane;
    }
    defaultFaces
    {
        type            empty;
    }
}


// ************************************************************************* //
