/*--------------------------------*- C++ -*----------------------------------*\
  =========                 |
  \\      /  F ield         | OpenFOAM: The Open Source CFD Toolbox
   \\    /   O peration     | Website:  https://openfoam.org
    \\  /    A nd           | Version:  7
     \\/     M anipulation  |
\*---------------------------------------------------------------------------*/
FoamFile
{
    version     2.0;
    format      ascii;
    class       volScalarField;
    location    "6.5";
    object      p;
}
// * * * * * * * * * * * * * * * * * * * * * * * * * * * * * * * * * * * * * //

dimensions      [1 -1 -2 0 0 0 0];

internalField   nonuniform List<scalar> 
90000
(
0.803649
0.805525
0.807332
0.80995
0.814395
0.818735
0.82181
0.826053
0.830389
0.834393
0.837855
0.841483
0.845518
0.849129
0.852915
0.856253
0.86027
0.863841
0.867714
0.871199
0.874958
0.879
0.882947
0.887685
0.892514
0.898166
0.903973
0.910906
0.918495
0.927454
0.93662
0.946719
0.956666
0.966091
0.975911
0.98398
0.991647
0.99884
1.00358
1.00807
1.01221
1.016
1.02014
1.02353
1.02247
1.01852
1.0064
0.99232
0.979251
0.970056
0.964874
0.965574
0.968874
0.974816
0.981124
0.986083
0.989466
0.992423
0.994272
0.995725
0.995228
0.992234
0.986269
0.979349
0.973087
0.970925
0.971997
0.975349
0.981017
0.987565
0.992413
0.992206
0.989881
0.98355
0.977548
0.974031
0.975287
0.978174
0.981803
0.985021
0.985461
0.983654
0.981035
0.978276
0.979733
0.983149
0.985849
0.985427
0.983542
0.982108
0.982137
0.983945
0.984597
0.983512
0.981469
0.981163
0.981776
0.983812
0.984095
0.983051
0.80387
0.804092
0.80444
0.804879
0.805364
0.805894
0.806354
0.807051
0.808786
0.810955
0.813176
0.815763
0.818792
0.822052
0.825386
0.828899
0.832452
0.836177
0.839754
0.843471
0.847128
0.85071
0.854267
0.857823
0.861695
0.865792
0.870021
0.874716
0.879891
0.885861
0.892217
0.89937
0.907216
0.91556
0.924731
0.934077
0.94374
0.95335
0.962805
0.971322
0.980059
0.986748
0.993328
0.998614
1.00058
1.00262
1.00387
1.00728
1.00631
1.0023
0.994989
0.986651
0.979644
0.974751
0.972807
0.973228
0.97394
0.976547
0.979511
0.983721
0.988554
0.993049
0.99624
0.994456
0.989382
0.982193
0.976778
0.973285
0.973621
0.97552
0.979527
0.984015
0.990389
0.990025
0.98682
0.980444
0.976065
0.97396
0.975687
0.98051
0.985817
0.985973
0.983622
0.980873
0.980415
0.981335
0.983563
0.985156
0.984442
0.983272
0.982987
0.983671
0.984021
0.983797
0.982415
0.98164
0.982081
0.983413
0.983867
0.983164
0.805542
0.805513
0.805504
0.805512
0.805525
0.80558
0.805627
0.805653
0.805718
0.805743
0.80578
0.805904
0.806123
0.806492
0.807019
0.807711
0.808481
0.8094
0.810378
0.811883
0.813719
0.815848
0.818108
0.820569
0.823232
0.826315
0.829483
0.832881
0.836424
0.840459
0.844716
0.84941
0.85459
0.860317
0.866979
0.873941
0.882608
0.891106
0.901411
0.911525
0.922909
0.933529
0.945053
0.954815
0.965726
0.973693
0.981975
0.987463
0.990493
0.992846
0.996873
1.0006
1.00124
0.999901
0.995974
0.990533
0.98495
0.979821
0.976839
0.977147
0.978933
0.982324
0.986295
0.990209
0.994436
0.994024
0.991075
0.983957
0.976498
0.97171
0.972177
0.975123
0.980717
0.98644
0.99162
0.990162
0.983954
0.977904
0.975562
0.976873
0.980381
0.984165
0.98682
0.98505
0.981794
0.979819
0.980976
0.98354
0.985778
0.984816
0.982906
0.982937
0.98383
0.984331
0.983561
0.981743
0.981595
0.982358
0.983731
0.983449
0.807275
0.80726
0.807246
0.807227
0.807226
0.807252
0.807271
0.807293
0.807341
0.807363
0.807351
0.807301
0.807282
0.807341
0.807491
0.807667
0.807899
0.808187
0.808663
0.808847
0.808979
0.809124
0.809335
0.809663
0.810093
0.810631
0.811299
0.812095
0.813011
0.814025
0.815763
0.817947
0.820501
0.823422
0.826974
0.83108
0.836102
0.841817
0.848744
0.856706
0.865408
0.876169
0.886838
0.899854
0.913325
0.927367
0.942523
0.954999
0.968048
0.978212
0.984328
0.988249
0.990065
0.990221
0.990914
0.990879
0.989785
0.986531
0.982578
0.979006
0.978344
0.979034
0.980625
0.982781
0.984833
0.985692
0.985151
0.984703
0.98298
0.97952
0.975912
0.974071
0.974927
0.977269
0.981567
0.984436
0.98773
0.986939
0.982991
0.978573
0.977099
0.978947
0.982341
0.986557
0.985995
0.983221
0.980471
0.981121
0.983085
0.985694
0.984712
0.983101
0.983219
0.983955
0.984287
0.98309
0.981854
0.982185
0.9833
0.983616
0.810356
0.810409
0.810455
0.810528
0.810598
0.810634
0.810639
0.810646
0.810736
0.810769
0.810767
0.810783
0.810896
0.811013
0.811003
0.811007
0.811087
0.811198
0.811259
0.811253
0.811257
0.811301
0.811447
0.811619
0.811721
0.811831
0.812042
0.812363
0.812718
0.813199
0.813264
0.81343
0.813741
0.814139
0.814584
0.815127
0.815854
0.817211
0.819078
0.821688
0.824919
0.829321
0.834462
0.841789
0.849865
0.860751
0.87276
0.886728
0.902346
0.918527
0.934039
0.94608
0.959274
0.965601
0.973423
0.977643
0.980718
0.981637
0.983325
0.986449
0.987492
0.986852
0.985386
0.984025
0.982003
0.98024
0.979723
0.980447
0.982095
0.983935
0.983471
0.980975
0.977461
0.975004
0.975711
0.978834
0.982609
0.984837
0.986465
0.984837
0.981445
0.978501
0.979195
0.981519
0.983658
0.985385
0.983842
0.98155
0.981666
0.983049
0.985357
0.984743
0.983479
0.983026
0.983537
0.983565
0.982735
0.982047
0.982471
0.98349
0.813775
0.813779
0.813785
0.813814
0.813906
0.814023
0.81405
0.814035
0.814023
0.814023
0.814075
0.814188
0.814211
0.81418
0.814165
0.814207
0.814221
0.814188
0.814176
0.814188
0.814175
0.814165
0.81417
0.814144
0.813944
0.813784
0.813744
0.813662
0.813581
0.813598
0.813621
0.813674
0.81382
0.814088
0.81436
0.814584
0.814924
0.815014
0.815127
0.815292
0.815511
0.815814
0.81638
0.817442
0.819164
0.822104
0.825968
0.832067
0.839468
0.85062
0.863486
0.87991
0.896919
0.915562
0.933149
0.948087
0.962395
0.972274
0.980139
0.983742
0.98477
0.984201
0.983187
0.979968
0.975615
0.976045
0.978279
0.980145
0.981615
0.982362
0.982432
0.982125
0.981023
0.979083
0.977209
0.978063
0.979326
0.982186
0.984106
0.984473
0.984189
0.982325
0.979709
0.979827
0.981052
0.982955
0.983916
0.983538
0.98272
0.982277
0.983108
0.984141
0.984773
0.984067
0.983316
0.983266
0.983094
0.982448
0.982178
0.982801
0.817026
0.817074
0.817122
0.81719
0.817294
0.817387
0.817468
0.817488
0.817464
0.817411
0.817415
0.817466
0.81754
0.817618
0.817647
0.817645
0.817614
0.817475
0.817325
0.817248
0.817202
0.817162
0.817141
0.81713
0.817095
0.817039
0.816973
0.81685
0.816678
0.816516
0.816308
0.816132
0.816131
0.816137
0.816074
0.815868
0.815602
0.815462
0.81539
0.815328
0.815262
0.815234
0.81515
0.81502
0.81495
0.814848
0.814892
0.815129
0.81584
0.817551
0.820582
0.826143
0.83382
0.846316
0.860154
0.878197
0.89754
0.917031
0.934102
0.947444
0.959023
0.964702
0.970074
0.971256
0.974489
0.979908
0.982894
0.982807
0.982389
0.981033
0.979476
0.97952
0.979906
0.981658
0.981444
0.980565
0.979966
0.980121
0.981103
0.982846
0.983343
0.983578
0.982512
0.980717
0.980678
0.98126
0.982674
0.983437
0.983526
0.983009
0.98267
0.983115
0.983794
0.984215
0.983813
0.983473
0.983301
0.982887
0.982401
0.982653
0.817533
0.817588
0.81764
0.817695
0.817732
0.817747
0.817792
0.817902
0.817971
0.818009
0.818067
0.818159
0.818212
0.818216
0.818225
0.818296
0.81834
0.818339
0.818325
0.818326
0.818342
0.818348
0.81832
0.818238
0.818185
0.818141
0.818077
0.81801
0.817928
0.817813
0.817732
0.817751
0.817815
0.817798
0.817749
0.817679
0.817539
0.817324
0.817097
0.816802
0.81618
0.815551
0.815173
0.814905
0.814646
0.814475
0.814208
0.81399
0.813757
0.813301
0.8129
0.812985
0.813454
0.814923
0.818072
0.824344
0.833188
0.847772
0.864786
0.885212
0.9069
0.92796
0.946152
0.96142
0.972976
0.978567
0.981574
0.981554
0.97994
0.974921
0.975294
0.977008
0.980515
0.983692
0.983802
0.983254
0.981823
0.97958
0.979758
0.980538
0.98242
0.983231
0.983002
0.982337
0.981183
0.981028
0.981571
0.982804
0.983244
0.983211
0.982946
0.982989
0.983196
0.983737
0.983888
0.983814
0.983656
0.983384
0.982758
0.982896
0.81746
0.817501
0.81754
0.817576
0.817607
0.817641
0.817691
0.817757
0.817817
0.817872
0.817947
0.818042
0.818077
0.818079
0.818092
0.818167
0.818214
0.818219
0.818219
0.818237
0.818255
0.818257
0.818222
0.818134
0.818055
0.817984
0.817914
0.817856
0.817789
0.817666
0.817593
0.817584
0.817566
0.817488
0.817321
0.817121
0.816841
0.81638
0.816046
0.816012
0.816169
0.816191
0.816062
0.815851
0.815589
0.815245
0.81481
0.814248
0.813548
0.813011
0.81271
0.81256
0.812378
0.811934
0.811229
0.811314
0.812094
0.814418
0.819213
0.827712
0.840562
0.858298
0.878534
0.901726
0.924747
0.939678
0.953524
0.961846
0.967172
0.970622
0.977541
0.981363
0.983996
0.984394
0.983671
0.981698
0.980584
0.979713
0.980176
0.981309
0.982038
0.982207
0.981964
0.981836
0.982018
0.981926
0.982029
0.982183
0.982679
0.982964
0.983143
0.983102
0.983146
0.983285
0.983622
0.983923
0.983837
0.983667
0.983263
0.983019
0.816839
0.816867
0.816893
0.816919
0.816948
0.816986
0.817034
0.817088
0.817146
0.8172
0.817229
0.81726
0.817314
0.817331
0.817332
0.817346
0.817404
0.817435
0.817435
0.817399
0.817322
0.817251
0.817166
0.817014
0.816811
0.816688
0.816634
0.816591
0.816468
0.816214
0.816107
0.81608
0.81605
0.815954
0.815723
0.81543
0.815117
0.814754
0.814517
0.81448
0.814452
0.81439
0.814294
0.814216
0.814168
0.814077
0.813879
0.813532
0.813443
0.813383
0.813241
0.81297
0.812521
0.811861
0.811116
0.810842
0.81084
0.810954
0.811385
0.812489
0.814471
0.818708
0.826028
0.838835
0.857092
0.879624
0.905377
0.926736
0.950033
0.966483
0.976049
0.979345
0.982648
0.981566
0.977393
0.977567
0.979204
0.98115
0.982359
0.98232
0.981389
0.979982
0.980228
0.981086
0.982608
0.982758
0.982564
0.982002
0.982129
0.98254
0.98306
0.983103
0.983023
0.983018
0.983317
0.983739
0.983813
0.983746
0.983659
0.983197
0.814961
0.814954
0.814951
0.814956
0.814981
0.81501
0.815056
0.815158
0.815278
0.815313
0.815316
0.815332
0.815379
0.815392
0.815382
0.815383
0.815392
0.815392
0.81535
0.81521
0.815114
0.815065
0.814966
0.814853
0.814802
0.814762
0.81471
0.814641
0.814543
0.814429
0.814425
0.814438
0.814428
0.814275
0.813934
0.813689
0.813502
0.81319
0.812824
0.812706
0.812696
0.812686
0.812707
0.812808
0.812991
0.813137
0.813155
0.813145
0.813155
0.813143
0.813137
0.813072
0.812827
0.81235
0.811545
0.810895
0.810815
0.810913
0.811271
0.811805
0.812263
0.812617
0.813083
0.814874
0.81862
0.8277
0.840534
0.861704
0.885273
0.910305
0.934179
0.946986
0.961443
0.965989
0.972971
0.978259
0.982926
0.983414
0.983104
0.980986
0.979229
0.979252
0.980378
0.982023
0.982811
0.98263
0.982164
0.981931
0.982117
0.982618
0.982951
0.982949
0.982877
0.982944
0.983046
0.983334
0.983593
0.983708
0.98387
0.98354
0.812902
0.812893
0.812872
0.812832
0.812821
0.812817
0.812816
0.812835
0.812907
0.812966
0.812965
0.812952
0.812949
0.81296
0.812987
0.81299
0.812945
0.812886
0.812796
0.81271
0.812686
0.812664
0.812628
0.812617
0.81265
0.812674
0.812673
0.812675
0.812635
0.812535
0.812523
0.81256
0.812556
0.812358
0.812206
0.812168
0.812064
0.811784
0.811479
0.811308
0.811246
0.811243
0.811289
0.811418
0.811621
0.811842
0.81202
0.812193
0.812501
0.812861
0.813055
0.813074
0.813024
0.812786
0.812189
0.811509
0.811339
0.811421
0.811729
0.812283
0.812906
0.813327
0.813638
0.813541
0.813602
0.81412
0.815938
0.821312
0.830511
0.848429
0.869717
0.897555
0.923526
0.945789
0.968522
0.976049
0.980952
0.980902
0.977505
0.976173
0.977788
0.980369
0.982191
0.982385
0.982074
0.981128
0.981378
0.98206
0.982665
0.982621
0.982623
0.982645
0.982715
0.98285
0.98299
0.982966
0.983149
0.983634
0.984006
0.98374
0.811303
0.811228
0.811151
0.811061
0.81096
0.810864
0.810825
0.810823
0.810826
0.810836
0.810823
0.810749
0.810715
0.810726
0.810714
0.810661
0.810634
0.810622
0.810589
0.810547
0.810531
0.81053
0.810522
0.810529
0.81055
0.8106
0.810729
0.810829
0.810854
0.810864
0.810859
0.810864
0.810859
0.810805
0.810723
0.810622
0.810487
0.810281
0.81
0.809708
0.809461
0.809366
0.809387
0.809517
0.80977
0.810068
0.810345
0.810662
0.811193
0.812059
0.812731
0.812846
0.812803
0.812624
0.812181
0.811604
0.811379
0.811473
0.811841
0.81252
0.813328
0.81405
0.814327
0.814267
0.81414
0.814232
0.814214
0.814322
0.815166
0.818196
0.824853
0.838587
0.857312
0.883958
0.9105
0.933359
0.951227
0.961307
0.966951
0.97535
0.98202
0.982913
0.982601
0.980538
0.979637
0.980211
0.981757
0.982992
0.982943
0.982544
0.98216
0.982357
0.982709
0.982979
0.982788
0.982661
0.983025
0.983887
0.984133
0.983931
0.810929
0.810856
0.810781
0.810696
0.810597
0.810487
0.810389
0.810349
0.810346
0.810345
0.810332
0.810262
0.810172
0.810152
0.810134
0.810065
0.809994
0.809965
0.809958
0.809961
0.809936
0.809887
0.809876
0.809878
0.80987
0.809884
0.809939
0.809991
0.810101
0.810284
0.810385
0.810408
0.810424
0.810419
0.810376
0.810282
0.810134
0.809943
0.809702
0.809397
0.809067
0.80881
0.808716
0.808709
0.808784
0.808942
0.809152
0.809468
0.809986
0.810762
0.811604
0.812071
0.812124
0.812064
0.811903
0.811514
0.811119
0.811168
0.811598
0.812337
0.813125
0.813838
0.814129
0.814094
0.814129
0.814214
0.814196
0.814022
0.813918
0.814058
0.814753
0.81669
0.821131
0.831653
0.848291
0.874956
0.903136
0.931567
0.957857
0.972877
0.978776
0.980678
0.977503
0.974911
0.977263
0.98096
0.982852
0.982686
0.982025
0.981728
0.982017
0.982687
0.98273
0.982579
0.982342
0.982578
0.983215
0.983762
0.983994
0.984028
0.811103
0.811035
0.810963
0.810884
0.810793
0.810676
0.81051
0.810342
0.810267
0.810237
0.810198
0.810114
0.810021
0.809983
0.809961
0.809907
0.809834
0.809823
0.809826
0.809828
0.809804
0.809755
0.809717
0.809698
0.809695
0.809702
0.809707
0.809716
0.809797
0.810015
0.810173
0.810272
0.810452
0.810695
0.810773
0.810789
0.810779
0.810704
0.81054
0.810308
0.810037
0.809707
0.80932
0.809072
0.808984
0.808958
0.809015
0.809248
0.809757
0.810573
0.811421
0.812067
0.812456
0.812562
0.812509
0.812286
0.811852
0.811646
0.811789
0.812096
0.812553
0.813142
0.813541
0.813515
0.813554
0.813675
0.813668
0.813528
0.813361
0.813389
0.813582
0.81367
0.813868
0.81497
0.818526
0.827308
0.843531
0.868064
0.89774
0.92516
0.945032
0.959013
0.965809
0.973888
0.982195
0.982643
0.982124
0.980302
0.98043
0.981511
0.982934
0.983191
0.9828
0.982011
0.982177
0.982803
0.983478
0.98363
0.983816
0.984165
0.812212
0.812141
0.812067
0.811987
0.811893
0.811776
0.811631
0.811458
0.811247
0.811021
0.81084
0.810724
0.810649
0.810592
0.810551
0.810529
0.810511
0.810466
0.810416
0.810404
0.810398
0.810383
0.810344
0.810323
0.810329
0.810343
0.810309
0.810285
0.810301
0.810432
0.810662
0.81087
0.811071
0.811315
0.811603
0.81184
0.811972
0.812019
0.812022
0.812004
0.811965
0.811872
0.811642
0.811247
0.810766
0.81045
0.810322
0.81029
0.81039
0.810754
0.811245
0.811707
0.812109
0.812247
0.812177
0.811919
0.81157
0.811379
0.811468
0.811664
0.811863
0.812201
0.812312
0.812196
0.812256
0.812715
0.81287
0.812839
0.812741
0.812736
0.812883
0.813096
0.813441
0.813586
0.813827
0.814738
0.817748
0.825247
0.840691
0.864497
0.895408
0.925001
0.954362
0.970768
0.979228
0.979783
0.974891
0.976065
0.978986
0.981968
0.982793
0.982552
0.981717
0.981959
0.982818
0.983206
0.983169
0.98328
0.983668
0.984249
0.813085
0.813039
0.812991
0.81294
0.812874
0.812798
0.812713
0.812611
0.812486
0.812349
0.812207
0.812071
0.81194
0.811789
0.811616
0.811469
0.811374
0.811311
0.811242
0.811183
0.811179
0.811169
0.811152
0.811174
0.811234
0.81124
0.811207
0.811203
0.811251
0.811369
0.811506
0.811649
0.81182
0.812055
0.812379
0.812736
0.81307
0.813346
0.813513
0.813643
0.813699
0.81371
0.813667
0.813421
0.812887
0.812264
0.811717
0.81146
0.811487
0.811651
0.811755
0.811875
0.812075
0.812164
0.812056
0.811718
0.811389
0.811205
0.811228
0.811393
0.811671
0.811629
0.811292
0.811049
0.81112
0.811581
0.811856
0.811934
0.811951
0.811973
0.812149
0.812578
0.813019
0.813424
0.813774
0.813778
0.813919
0.814747
0.817291
0.824383
0.838507
0.862735
0.892482
0.922545
0.944427
0.959309
0.965849
0.977244
0.982243
0.982313
0.981728
0.980307
0.980682
0.98234
0.983591
0.983357
0.982866
0.982955
0.983629
0.984372
0.813409
0.813404
0.813403
0.813404
0.813406
0.813413
0.813409
0.813386
0.813348
0.8133
0.813234
0.813155
0.81306
0.812951
0.812822
0.812656
0.812448
0.812271
0.812239
0.812257
0.812264
0.812231
0.812226
0.812241
0.81223
0.812202
0.812189
0.812185
0.812191
0.812207
0.812231
0.812289
0.812418
0.812668
0.813063
0.813534
0.814024
0.814541
0.814742
0.814763
0.814755
0.81474
0.814711
0.814579
0.814168
0.813476
0.812856
0.812698
0.812741
0.812822
0.812785
0.812705
0.812682
0.812638
0.812433
0.811959
0.811492
0.81119
0.811163
0.811417
0.811858
0.811849
0.811302
0.810684
0.810657
0.810933
0.81138
0.811758
0.812029
0.812217
0.812364
0.812495
0.812655
0.812902
0.813186
0.813328
0.813329
0.813307
0.813538
0.814384
0.817018
0.823743
0.838475
0.863412
0.89447
0.928409
0.95832
0.973424
0.979483
0.978365
0.974792
0.976894
0.980917
0.983046
0.982878
0.98225
0.982488
0.983334
0.983805
0.984108
0.813051
0.813114
0.813153
0.813174
0.813212
0.81333
0.81344
0.813454
0.813462
0.813512
0.813546
0.813542
0.813531
0.813568
0.813595
0.813582
0.813587
0.813667
0.813723
0.813732
0.813728
0.813694
0.813554
0.813318
0.813168
0.813154
0.81314
0.813065
0.812937
0.81289
0.812876
0.812867
0.812874
0.812973
0.81324
0.813531
0.813766
0.814072
0.81438
0.814423
0.814393
0.814343
0.814336
0.814287
0.814007
0.813424
0.813041
0.813001
0.813042
0.813226
0.813383
0.813371
0.813319
0.81322
0.812928
0.812339
0.811788
0.811536
0.811578
0.812076
0.812659
0.812649
0.812069
0.811522
0.811468
0.811537
0.811629
0.811757
0.811952
0.812207
0.812382
0.812369
0.812312
0.812339
0.812497
0.812645
0.812612
0.812529
0.812583
0.812807
0.813268
0.814263
0.81714
0.824346
0.840523
0.866551
0.898794
0.929629
0.948568
0.962533
0.969508
0.980779
0.98253
0.982143
0.9804
0.980854
0.98269
0.984177
0.98394
0.983806
0.813201
0.813255
0.813285
0.813292
0.813304
0.813344
0.813467
0.813662
0.813733
0.813757
0.81379
0.813837
0.813912
0.81401
0.81408
0.81417
0.814317
0.814363
0.81438
0.814403
0.814401
0.814332
0.814115
0.813606
0.813362
0.813387
0.813386
0.813278
0.813081
0.812826
0.812731
0.812742
0.812737
0.812721
0.812784
0.813024
0.813238
0.813444
0.813544
0.813532
0.813441
0.813132
0.812858
0.812828
0.812719
0.812373
0.812223
0.812219
0.81226
0.812469
0.812927
0.813379
0.813479
0.813367
0.812923
0.812198
0.811812
0.811825
0.812154
0.81312
0.813603
0.813608
0.813343
0.813199
0.813133
0.812986
0.812655
0.812259
0.812115
0.812188
0.812312
0.812261
0.812061
0.811864
0.811819
0.81181
0.811763
0.811736
0.81179
0.811947
0.812186
0.812482
0.812832
0.813762
0.81713
0.824912
0.843991
0.871935
0.903986
0.944215
0.964402
0.97827
0.978424
0.975262
0.976262
0.979507
0.982837
0.983534
0.983491
0.983721
0.813108
0.81328
0.813678
0.813901
0.81393
0.813922
0.813863
0.813786
0.813779
0.813826
0.814027
0.814258
0.8143
0.814326
0.814413
0.814633
0.814721
0.814728
0.814738
0.81477
0.814757
0.81465
0.814392
0.813818
0.813394
0.81338
0.813405
0.813358
0.813152
0.812669
0.8124
0.812384
0.812465
0.812591
0.81254
0.812539
0.812784
0.812991
0.81301
0.813003
0.812921
0.812626
0.812068
0.811459
0.811256
0.811248
0.811335
0.811417
0.811502
0.811783
0.812487
0.813386
0.813902
0.813857
0.813492
0.812992
0.812573
0.812495
0.812854
0.813584
0.813785
0.813861
0.813977
0.814131
0.814169
0.814088
0.813663
0.81302
0.81279
0.812683
0.812648
0.812562
0.812317
0.811839
0.811408
0.811359
0.811446
0.811645
0.811808
0.811971
0.812167
0.812396
0.812599
0.81275
0.813023
0.813944
0.817982
0.826661
0.849122
0.877639
0.910363
0.944332
0.954649
0.965801
0.97591
0.982778
0.982382
0.981657
0.982332
0.983565
0.811224
0.811224
0.811319
0.811409
0.81142
0.811383
0.811203
0.810896
0.810774
0.810813
0.810973
0.811088
0.811144
0.811304
0.81168
0.811898
0.812005
0.812133
0.812329
0.812405
0.812449
0.812583
0.812615
0.812457
0.812333
0.812384
0.812469
0.812416
0.812216
0.811758
0.811373
0.811334
0.811477
0.811558
0.811514
0.811587
0.81201
0.812773
0.813171
0.813246
0.813217
0.812983
0.812091
0.811183
0.810963
0.810959
0.811092
0.811362
0.811678
0.812196
0.8129
0.813454
0.813866
0.814068
0.813979
0.81376
0.813507
0.813226
0.813267
0.813323
0.813182
0.813064
0.813179
0.81365
0.813913
0.813923
0.813699
0.812952
0.812411
0.812404
0.812596
0.812915
0.812967
0.812742
0.812208
0.811994
0.812025
0.812092
0.812089
0.812018
0.811973
0.812003
0.812143
0.812219
0.81223
0.812287
0.812623
0.81397
0.819212
0.830167
0.856573
0.887849
0.923503
0.959936
0.972409
0.980626
0.97579
0.976972
0.979964
0.983197
0.808989
0.809015
0.809067
0.809127
0.809148
0.809042
0.808595
0.808525
0.808858
0.809092
0.809121
0.80913
0.809222
0.809506
0.809637
0.809601
0.809504
0.80952
0.809739
0.809929
0.810161
0.810706
0.810943
0.810775
0.810533
0.810589
0.810902
0.81092
0.810726
0.81032
0.810154
0.810229
0.81073
0.810907
0.811086
0.811657
0.812563
0.813497
0.814121
0.814509
0.814583
0.814411
0.813685
0.812829
0.812569
0.812552
0.812538
0.812575
0.812763
0.813253
0.813574
0.813639
0.813666
0.813903
0.814168
0.81413
0.814007
0.813904
0.813709
0.813105
0.812375
0.812091
0.812067
0.812524
0.81347
0.813766
0.813614
0.812928
0.8122
0.812118
0.812297
0.812871
0.81345
0.81351
0.813326
0.813053
0.812892
0.812778
0.812623
0.812371
0.812052
0.811782
0.811798
0.811841
0.811854
0.811837
0.811833
0.811917
0.812502
0.814579
0.821486
0.835767
0.865902
0.900186
0.929684
0.955481
0.963743
0.977841
0.981018
0.982823
0.805958
0.806007
0.806069
0.806126
0.80611
0.806079
0.806263
0.807062
0.808301
0.80856
0.808588
0.808673
0.808956
0.809369
0.809413
0.809104
0.808567
0.808469
0.808501
0.808501
0.808564
0.808609
0.808553
0.808348
0.808331
0.808663
0.809364
0.809873
0.80991
0.80969
0.809327
0.809181
0.809275
0.809752
0.810659
0.811842
0.812481
0.812963
0.81346
0.813886
0.813971
0.813747
0.813038
0.812489
0.812385
0.812387
0.812337
0.812257
0.812459
0.812504
0.811896
0.811303
0.811401
0.812116
0.813284
0.813641
0.813534
0.813473
0.813242
0.812679
0.811929
0.811555
0.811464
0.811571
0.812216
0.813076
0.813349
0.81327
0.812888
0.812589
0.812566
0.812769
0.813313
0.813672
0.813692
0.813611
0.813438
0.813281
0.813139
0.812893
0.812526
0.812094
0.811893
0.81185
0.811854
0.811855
0.811913
0.812055
0.812118
0.812271
0.81301
0.815745
0.82497
0.843976
0.878064
0.91463
0.950251
0.97421
0.978799
0.976764
0.803868
0.803796
0.803706
0.803697
0.80372
0.803762
0.803914
0.804485
0.805269
0.805406
0.805383
0.805554
0.806482
0.807154
0.807086
0.806267
0.804575
0.80374
0.803485
0.803183
0.80303
0.803115
0.803256
0.80342
0.803798
0.804734
0.806146
0.806957
0.806863
0.80624
0.805996
0.805819
0.805497
0.805567
0.805936
0.805846
0.804971
0.804664
0.804709
0.80501
0.805712
0.806851
0.808413
0.810049
0.810832
0.81085
0.810703
0.810589
0.810256
0.8093
0.808668
0.808768
0.809311
0.809861
0.810383
0.811199
0.811754
0.811801
0.812002
0.812495
0.812715
0.812628
0.812234
0.811949
0.812052
0.812646
0.81317
0.81346
0.813587
0.813549
0.813274
0.813024
0.813162
0.813566
0.813738
0.813715
0.813554
0.813413
0.813327
0.813197
0.813024
0.812792
0.812458
0.812292
0.812307
0.812284
0.812299
0.812377
0.812537
0.81271
0.812688
0.812803
0.813737
0.818018
0.830561
0.855224
0.892431
0.92656
0.949636
0.967892
0.801513
0.801732
0.801654
0.801002
0.800778
0.800839
0.800599
0.800058
0.799997
0.800426
0.802091
0.80237
0.802389
0.802533
0.802003
0.79975
0.797652
0.797319
0.797605
0.798227
0.798458
0.798481
0.798278
0.798332
0.798972
0.800315
0.801559
0.802251
0.802422
0.802419
0.802675
0.803832
0.804228
0.804128
0.803455
0.802059
0.798804
0.79516
0.794312
0.794369
0.79495
0.796855
0.800109
0.802758
0.804044
0.804919
0.805677
0.805901
0.805732
0.805046
0.80466
0.804981
0.806169
0.806787
0.807067
0.8075
0.807951
0.808458
0.809598
0.811537
0.812313
0.812292
0.812058
0.811896
0.811953
0.812113
0.812432
0.813041
0.813357
0.81336
0.81317
0.812818
0.812743
0.812999
0.813465
0.813545
0.813447
0.813269
0.813057
0.812945
0.812945
0.812955
0.812927
0.812943
0.812982
0.812944
0.812863
0.81288
0.812932
0.812945
0.812786
0.81251
0.812473
0.812761
0.814675
0.821449
0.840078
0.86953
0.908998
0.9575
0.800516
0.800436
0.800475
0.801086
0.801508
0.801267
0.800479
0.799986
0.799886
0.800328
0.801506
0.802341
0.802343
0.801732
0.800329
0.799426
0.79898
0.798948
0.79946
0.800179
0.800328
0.800343
0.800234
0.800114
0.800425
0.801498
0.80304
0.804104
0.804525
0.805275
0.80773
0.809255
0.809044
0.808438
0.807758
0.806425
0.802983
0.797755
0.794692
0.794482
0.795193
0.797402
0.799805
0.801664
0.803303
0.804753
0.805823
0.80644
0.806586
0.806469
0.806138
0.805968
0.805743
0.80538
0.805059
0.804922
0.804511
0.80405
0.804094
0.80464
0.805883
0.807337
0.808243
0.808582
0.80859
0.808472
0.808542
0.809101
0.810369
0.811414
0.811541
0.811359
0.811145
0.811275
0.811799
0.812332
0.812678
0.812824
0.812816
0.812864
0.812977
0.813073
0.813211
0.813324
0.813377
0.813363
0.813376
0.813465
0.813493
0.813335
0.813033
0.812696
0.812505
0.8125
0.812643
0.813461
0.816902
0.827966
0.850094
0.90239
0.824745
0.824229
0.823088
0.82213
0.82168
0.821145
0.820327
0.82011
0.820964
0.822375
0.822483
0.821827
0.820276
0.816973
0.814037
0.813638
0.813858
0.814883
0.815732
0.815581
0.814571
0.813176
0.811726
0.810434
0.809991
0.810375
0.812934
0.814003
0.813814
0.814112
0.817322
0.819366
0.81923
0.818808
0.818049
0.81626
0.81287
0.81038
0.81036
0.810499
0.810353
0.8093
0.806675
0.804869
0.804941
0.805427
0.806258
0.806582
0.806317
0.805693
0.805208
0.804371
0.803483
0.803274
0.803683
0.804748
0.804939
0.804144
0.801525
0.800677
0.800723
0.801207
0.802549
0.804275
0.804859
0.804775
0.80447
0.804424
0.804964
0.805946
0.806997
0.807866
0.808474
0.808902
0.809418
0.810275
0.811268
0.812229
0.81253
0.812655
0.812894
0.813057
0.813266
0.813468
0.81346
0.813259
0.813266
0.813483
0.813659
0.813627
0.813426
0.813064
0.812701
0.812667
0.812698
0.81276
0.813017
0.814558
0.819689
0.8516
0.863431
0.865154
0.865987
0.866014
0.865174
0.86234
0.86161
0.861884
0.861871
0.860905
0.86088
0.861101
0.861007
0.859683
0.855144
0.852513
0.852676
0.85401
0.853392
0.847495
0.839365
0.835641
0.833685
0.831939
0.830639
0.829751
0.828086
0.826267
0.826125
0.826398
0.826727
0.826021
0.824067
0.823976
0.823442
0.819862
0.817521
0.817892
0.821429
0.826118
0.828491
0.828329
0.825065
0.818251
0.813641
0.813474
0.813818
0.81371
0.811934
0.808232
0.805908
0.804764
0.804356
0.804538
0.805411
0.807768
0.810473
0.810245
0.807689
0.803934
0.802211
0.802516
0.803725
0.805364
0.807009
0.806972
0.806116
0.804943
0.803939
0.803574
0.803815
0.805045
0.805808
0.80573
0.805389
0.805589
0.806492
0.807714
0.80874
0.809504
0.810385
0.811323
0.8121
0.812695
0.813084
0.813324
0.813457
0.813625
0.813566
0.813442
0.813292
0.813059
0.81301
0.813015
0.812896
0.812699
0.81273
0.812834
0.813377
0.82305
0.913158
0.913269
0.913837
0.914471
0.914604
0.913966
0.913176
0.912411
0.909384
0.905009
0.904267
0.904782
0.904809
0.903037
0.90081
0.898435
0.896463
0.895949
0.895251
0.892391
0.891177
0.891773
0.892768
0.892202
0.889011
0.886481
0.886558
0.88833
0.888375
0.88491
0.880607
0.878825
0.876975
0.873677
0.868439
0.863699
0.859385
0.853
0.848182
0.848155
0.85022
0.851509
0.84938
0.845862
0.846779
0.847435
0.846398
0.845402
0.844074
0.840641
0.83575
0.830139
0.823537
0.820327
0.820287
0.822497
0.82423
0.824092
0.822677
0.819424
0.81552
0.812546
0.811228
0.810983
0.811151
0.811073
0.810514
0.808831
0.805575
0.804124
0.804225
0.804993
0.805508
0.805408
0.804705
0.804353
0.804485
0.80493
0.805656
0.806536
0.807391
0.808604
0.809652
0.810726
0.811847
0.812901
0.813254
0.813225
0.813004
0.81309
0.813141
0.813093
0.813053
0.813071
0.813002
0.812757
0.812624
0.812704
0.812925
0.814968
0.986941
0.986018
0.985641
0.985501
0.985481
0.986917
0.989445
0.989514
0.986576
0.980195
0.977995
0.978359
0.978481
0.97768
0.97245
0.969165
0.966842
0.962816
0.958683
0.954935
0.953125
0.953293
0.953073
0.949684
0.943258
0.941243
0.939621
0.93595
0.935152
0.934897
0.932727
0.929344
0.927481
0.924601
0.922105
0.922497
0.922583
0.918799
0.913876
0.912385
0.910856
0.907587
0.901919
0.893773
0.886713
0.881798
0.875717
0.872095
0.872051
0.873822
0.873684
0.869639
0.860458
0.856866
0.855678
0.851272
0.83969
0.833396
0.833557
0.832143
0.830152
0.830125
0.829801
0.825914
0.817625
0.814023
0.814726
0.816114
0.815622
0.813336
0.80995
0.807835
0.807053
0.806962
0.807478
0.808055
0.808253
0.808527
0.808932
0.808746
0.808656
0.808368
0.807899
0.807959
0.80829
0.809032
0.809896
0.81082
0.811698
0.8126
0.812779
0.812678
0.812566
0.81244
0.812387
0.812447
0.8127
0.813331
0.813702
0.813769
1.06382
1.06121
1.06002
1.05992
1.06071
1.06183
1.06113
1.05549
1.04962
1.04934
1.05051
1.05057
1.04902
1.04683
1.04331
1.04227
1.04206
1.04115
1.03723
1.03547
1.03593
1.03566
1.03393
1.02857
1.02286
1.02235
1.02234
1.02153
1.01824
1.0141
1.00912
1.00428
1.00124
0.998696
0.995936
0.992837
0.985966
0.977646
0.976729
0.976446
0.974375
0.968608
0.96585
0.963225
0.958447
0.953582
0.947732
0.943268
0.9402
0.934301
0.927067
0.921155
0.913176
0.90979
0.909982
0.90763
0.898827
0.891108
0.884897
0.875657
0.86856
0.868125
0.868296
0.866352
0.860143
0.849489
0.838228
0.834214
0.834943
0.835047
0.832028
0.826453
0.822101
0.818552
0.817579
0.816742
0.815087
0.813164
0.810114
0.808029
0.807233
0.806294
0.805846
0.805866
0.806126
0.80672
0.807667
0.808628
0.809525
0.81009
0.810853
0.810884
0.810713
0.81087
0.811512
0.812186
0.81326
0.814203
0.814279
0.81409
1.1532
1.14875
1.14677
1.1466
1.14754
1.14914
1.14898
1.14614
1.14377
1.14163
1.13801
1.13741
1.13737
1.13534
1.13314
1.13082
1.12575
1.12379
1.12287
1.12188
1.11863
1.11415
1.11198
1.11039
1.10823
1.1055
1.10233
1.0989
1.09577
1.09247
1.08763
1.0844
1.08244
1.08039
1.0769
1.07364
1.07032
1.06604
1.06104
1.0566
1.0525
1.04693
1.04084
1.03564
1.03106
1.02297
1.01181
1.00985
1.0103
1.00825
1.00182
0.994294
0.986682
0.979862
0.974164
0.963105
0.949005
0.947072
0.94559
0.938428
0.928905
0.923931
0.915485
0.904082
0.897512
0.892274
0.886744
0.87637
0.865945
0.863016
0.860127
0.853457
0.845685
0.838519
0.832573
0.828282
0.822955
0.817804
0.813861
0.810898
0.809953
0.808359
0.808309
0.80871
0.810321
0.811902
0.811693
0.811355
0.810789
0.809899
0.808543
0.808256
0.808366
0.808922
0.810046
0.812125
0.813104
0.813926
0.813946
0.813709
1.24759
1.24468
1.24377
1.24394
1.24322
1.23832
1.23329
1.23308
1.2338
1.2336
1.23243
1.22906
1.22413