/*--------------------------------*- C++ -*----------------------------------*\
  =========                 |
  \\      /  F ield         | OpenFOAM: The Open Source CFD Toolbox
   \\    /   O peration     | Website:  https://openfoam.org
    \\  /    A nd           | Version:  7
     \\/     M anipulation  |
\*---------------------------------------------------------------------------*/
FoamFile
{
    version     2.0;
    format      ascii;
    class       volScalarField;
    location    "6.5";
    object      T;
}
// * * * * * * * * * * * * * * * * * * * * * * * * * * * * * * * * * * * * * //

dimensions      [0 0 0 1 0 0 0];

internalField   nonuniform List<scalar> 
90000
(
0.992782
0.995568
0.998407
1.00145
1.00512
1.00849
1.01118
1.01432
1.01725
1.01978
1.02197
1.02412
1.02625
1.02801
1.02974
1.03118
1.03276
1.03404
1.03536
1.03642
1.03758
1.03894
1.04036
1.04217
1.04411
1.04642
1.04886
1.05175
1.05487
1.05847
1.0621
1.066
1.06977
1.07327
1.07684
1.07973
1.08244
1.08491
1.08656
1.08805
1.08936
1.09042
1.0916
1.09168
1.09125
1.09019
1.08672
1.08223
1.07768
1.07445
1.07184
1.07176
1.07232
1.07358
1.0749
1.07592
1.07655
1.07728
1.07785
1.07832
1.07811
1.07703
1.07498
1.07273
1.07075
1.06946
1.06952
1.07014
1.07149
1.07335
1.07452
1.07446
1.07361
1.07144
1.06952
1.06797
1.06812
1.06864
1.06953
1.07047
1.07043
1.06979
1.06874
1.06753
1.06781
1.06878
1.06924
1.06898
1.06826
1.0676
1.06733
1.06776
1.06766
1.06716
1.06635
1.06584
1.06584
1.06625
1.06611
1.06545
0.990464
0.99056
0.990725
0.990958
0.991259
0.991605
0.99196
0.992449
0.993387
0.994473
0.995585
0.996859
0.998306
0.999824
1.00137
1.00298
1.0046
1.00625
1.00783
1.00947
1.01097
1.01232
1.01357
1.01476
1.01602
1.01733
1.01869
1.0202
1.02189
1.02386
1.02599
1.02842
1.0311
1.03399
1.03719
1.04045
1.04387
1.04726
1.05065
1.05376
1.05697
1.05962
1.0623
1.06471
1.0663
1.06773
1.06867
1.0703
1.0701
1.06907
1.06692
1.0643
1.06197
1.0602
1.05929
1.05942
1.0597
1.06059
1.06158
1.06296
1.06448
1.06589
1.06686
1.06629
1.06467
1.06222
1.06027
1.05902
1.05906
1.05953
1.06071
1.06212
1.06418
1.06401
1.06286
1.06065
1.05932
1.05845
1.0589
1.06033
1.06195
1.06191
1.06109
1.06021
1.05981
1.06004
1.06064
1.06106
1.06079
1.06042
1.06016
1.06033
1.06028
1.06012
1.0596
1.05911
1.05916
1.05945
1.0594
1.059
0.98884
0.988799
0.988766
0.988735
0.988705
0.988684
0.988664
0.988643
0.988637
0.988613
0.988577
0.988583
0.988618
0.988705
0.988845
0.989038
0.989259
0.989533
0.98983
0.9903
0.990886
0.991581
0.992324
0.993136
0.994012
0.995031
0.996073
0.997191
0.998353
0.999676
1.00107
1.0026
1.00428
1.00612
1.00827
1.0105
1.0133
1.01601
1.01929
1.02248
1.02607
1.02944
1.0331
1.03633
1.03997
1.04284
1.04591
1.04819
1.04998
1.05155
1.05361
1.05499
1.05583
1.05567
1.05483
1.05348
1.052
1.05049
1.04961
1.04963
1.05004
1.05101
1.0523
1.05359
1.05491
1.05486
1.0541
1.05202
1.04974
1.04836
1.0485
1.04935
1.05112
1.05293
1.05459
1.05416
1.05226
1.05036
1.04974
1.05008
1.05113
1.05231
1.05317
1.05258
1.05151
1.05093
1.05129
1.05211
1.05287
1.0526
1.05203
1.05203
1.0523
1.05241
1.05218
1.05159
1.05152
1.05175
1.05211
1.05198
0.986366
0.986345
0.986327
0.986305
0.986294
0.986289
0.986277
0.986266
0.986259
0.986248
0.986229
0.986181
0.986147
0.986156
0.986187
0.98622
0.986265
0.986324
0.98646
0.986455
0.986441
0.986443
0.98647
0.986537
0.98664
0.986778
0.986959
0.987184
0.987444
0.98773
0.988244
0.988914
0.989719
0.990649
0.991792
0.993123
0.994764
0.996624
0.998864
1.00142
1.00419
1.00762
1.01095
1.01502
1.01914
1.02343
1.028
1.03173
1.03574
1.03899
1.04112
1.04261
1.04364
1.04417
1.04489
1.04513
1.04492
1.0441
1.04302
1.04186
1.04184
1.04209
1.04266
1.04345
1.04427
1.04494
1.04493
1.04484
1.04433
1.04333
1.04225
1.0418
1.04207
1.04283
1.04428
1.04536
1.04646
1.04627
1.04514
1.0438
1.04344
1.044
1.04511
1.04643
1.04629
1.04546
1.04471
1.04495
1.04562
1.04649
1.04619
1.04574
1.04578
1.04603
1.0462
1.04589
1.04557
1.0457
1.04605
1.04619
0.984879
0.984893
0.984908
0.984938
0.98496
0.984963
0.98496
0.98496
0.984981
0.984979
0.984972
0.984974
0.985007
0.985032
0.985022
0.985021
0.985044
0.985063
0.985062
0.985053
0.985051
0.985061
0.985107
0.985149
0.985158
0.985173
0.985221
0.985303
0.985386
0.985504
0.985463
0.985473
0.985537
0.985635
0.985743
0.985882
0.986086
0.986514
0.987131
0.988011
0.9891
0.99058
0.992289
0.994723
0.99736
1.00091
1.00474
1.00915
1.01396
1.01884
1.02341
1.02692
1.03082
1.03274
1.03517
1.03664
1.03778
1.03834
1.03908
1.04014
1.041
1.04095
1.04071
1.04042
1.03985
1.03928
1.03913
1.03939
1.03991
1.04054
1.0405
1.03992
1.03895
1.03835
1.03861
1.03962
1.04087
1.04173
1.04235
1.04194
1.04099
1.04014
1.04033
1.04111
1.04182
1.04243
1.04202
1.04139
1.04144
1.04191
1.04263
1.04247
1.04206
1.04203
1.04221
1.0423
1.04209
1.04192
1.04208
1.04245
0.984572
0.98457
0.98457
0.984578
0.98461
0.984643
0.984648
0.98464
0.98463
0.984629
0.984646
0.984676
0.984676
0.984656
0.984644
0.984651
0.984649
0.984631
0.984624
0.984627
0.984621
0.984612
0.984609
0.984592
0.984505
0.984431
0.984408
0.984374
0.984337
0.98434
0.984351
0.984372
0.984425
0.984518
0.984609
0.984683
0.984792
0.984827
0.984875
0.984937
0.985008
0.985103
0.98529
0.985648
0.986232
0.987236
0.988554
0.990639
0.99314
0.996884
1.0011
1.00643
1.01179
1.01763
1.023
1.02753
1.03185
1.03477
1.03724
1.03832
1.0389
1.03878
1.03853
1.03761
1.03631
1.03644
1.03714
1.03773
1.03823
1.03852
1.03873
1.03868
1.03842
1.03797
1.03757
1.03788
1.0383
1.03922
1.03982
1.04013
1.04006
1.03956
1.0388
1.03888
1.03928
1.03994
1.04032
1.04024
1.04003
1.0399
1.0402
1.04052
1.04076
1.04059
1.04039
1.04042
1.04039
1.04021
1.04018
1.04039
0.985144
0.985161
0.985179
0.985204
0.985243
0.985277
0.985305
0.98531
0.985302
0.985283
0.985284
0.9853
0.985325
0.985352
0.985361
0.98536
0.985349
0.985301
0.985249
0.985223
0.985207
0.985195
0.98519
0.985188
0.985179
0.985164
0.985146
0.98511
0.985056
0.985005
0.984938
0.984891
0.984898
0.984906
0.98489
0.98483
0.984748
0.98471
0.984691
0.984666
0.984629
0.98462
0.9846
0.984566
0.984563
0.984554
0.984584
0.984687
0.984941
0.985529
0.986583
0.988519
0.991168
0.995454
1.00009
1.00606
1.01231
1.01847
1.02372
1.02775
1.0312
1.03281
1.03432
1.03464
1.03567
1.0374
1.0384
1.0384
1.03832
1.03795
1.03755
1.03762
1.0378
1.03838
1.03835
1.03817
1.03814
1.03818
1.03844
1.03899
1.0392
1.03932
1.03904
1.03856
1.03859
1.0388
1.03928
1.03953
1.03963
1.03948
1.03943
1.03958
1.03981
1.03998
1.03988
1.0398
1.03977
1.03966
1.03955
1.03963
0.985409
0.98543
0.98545
0.98547
0.985485
0.985492
0.985509
0.985547
0.985571
0.985584
0.985604
0.985636
0.985661
0.985666
0.98567
0.985695
0.985717
0.985719
0.985717
0.985719
0.985731
0.985738
0.985732
0.985711
0.985701
0.985692
0.985675
0.985654
0.985628
0.985593
0.985569
0.985576
0.985603
0.985598
0.985579
0.985547
0.985485
0.985399
0.985315
0.985217
0.985029
0.984846
0.984742
0.984671
0.9846
0.984561
0.98449
0.984423
0.984337
0.98415
0.984031
0.984082
0.984277
0.984815
0.985928
0.988121
0.99119
0.996209
1.00194
1.00869
1.01568
1.02233
1.02795
1.03261
1.03612
1.03779
1.03868
1.03867
1.03815
1.03658
1.0367
1.03724
1.03832
1.0393
1.03933
1.03914
1.0387
1.03805
1.0381
1.03833
1.03889
1.03918
1.03913
1.03895
1.03862
1.03865
1.03884
1.03922
1.03941
1.03941
1.03937
1.03939
1.03946
1.03964
1.03971
1.03972
1.03969
1.03962
1.03944
1.03949
0.985653
0.985669
0.985683
0.985696
0.985706
0.985718
0.985734
0.985757
0.985779
0.985798
0.985821
0.985853
0.985872
0.985874
0.985879
0.985901
0.985919
0.985926
0.985929
0.98594
0.985951
0.985953
0.985943
0.985916
0.985892
0.985867
0.985839
0.985814
0.985787
0.985746
0.985726
0.985729
0.985727
0.985707
0.985655
0.985591
0.985497
0.985336
0.985225
0.985219
0.985282
0.985293
0.985255
0.985192
0.98511
0.984997
0.984848
0.984652
0.984423
0.984259
0.984173
0.984135
0.984081
0.983928
0.983695
0.983735
0.984023
0.984855
0.986551
0.989528
0.993974
1.00002
1.00677
1.01439
1.02178
1.02646
1.03073
1.03326
1.03487
1.03587
1.0379
1.03896
1.03971
1.03983
1.03963
1.03904
1.03869
1.0384
1.03853
1.03887
1.03908
1.03912
1.03905
1.03903
1.03907
1.03906
1.03911
1.03917
1.03932
1.03942
1.03947
1.03946
1.03947
1.03952
1.03962
1.03973
1.03971
1.03966
1.03954
1.03947
0.985736
0.985746
0.985755
0.985764
0.985773
0.985784
0.985798
0.985814
0.985835
0.985856
0.985868
0.985879
0.985899
0.985909
0.98591
0.985914
0.985932
0.985947
0.985949
0.985939
0.985915
0.985894
0.985867
0.985819
0.985755
0.985714
0.985691
0.985672
0.985623
0.985527
0.985485
0.985475
0.985467
0.985437
0.985364
0.985275
0.985182
0.985071
0.984994
0.984973
0.98495
0.984914
0.984873
0.984845
0.984828
0.984795
0.984717
0.984584
0.984579
0.984576
0.984544
0.984456
0.984297
0.984062
0.983795
0.983703
0.983704
0.983746
0.983899
0.984283
0.984972
0.986451
0.988999
0.993449
0.999687
1.00724
1.01565
1.02252
1.02983
1.03494
1.03784
1.03879
1.0397
1.03935
1.03806
1.03812
1.0386
1.03917
1.03951
1.03948
1.03919
1.03873
1.03878
1.03902
1.03948
1.03949
1.03943
1.03925
1.03928
1.03939
1.03952
1.03951
1.03948
1.03948
1.03957
1.03971
1.03971
1.03969
1.03965
1.03951
0.985256
0.985255
0.985255
0.985257
0.985266
0.985276
0.985292
0.985328
0.985372
0.985387
0.985389
0.985397
0.985417
0.985423
0.98542
0.98542
0.985424
0.985425
0.985412
0.985365
0.98533
0.98531
0.985271
0.985227
0.985206
0.985192
0.985176
0.985155
0.985123
0.985078
0.985073
0.985075
0.985071
0.985017
0.984899
0.984818
0.984759
0.98466
0.984539
0.984498
0.984491
0.984482
0.984485
0.984511
0.984567
0.984612
0.984617
0.984614
0.984615
0.984605
0.984599
0.984573
0.98448
0.984299
0.984007
0.983766
0.983731
0.983762
0.983876
0.984043
0.984185
0.984298
0.984454
0.985058
0.986352
0.989521
0.993959
1.00118
1.00899
1.01718
1.02477
1.02883
1.03332
1.0347
1.03684
1.03843
1.03982
1.03995
1.03984
1.0392
1.03862
1.0386
1.03891
1.03934
1.03957
1.03952
1.03938
1.03928
1.03931
1.03944
1.0395
1.03949
1.03944
1.03945
1.03948
1.03957
1.03964
1.03966
1.03968
1.03956
0.984523
0.984523
0.984517
0.984504
0.984499
0.984497
0.984497
0.984504
0.984531
0.984553
0.984553
0.984547
0.984545
0.984547
0.984552
0.984553
0.984535
0.98451
0.984475
0.984437
0.984414
0.984393
0.984364
0.984351
0.984359
0.984366
0.984366
0.984369
0.98436
0.984331
0.984327
0.984341
0.98434
0.984274
0.984222
0.984209
0.984173
0.984074
0.983971
0.983922
0.983906
0.983905
0.983917
0.983951
0.98401
0.98408
0.984144
0.984209
0.984317
0.984425
0.984458
0.984453
0.984417
0.984304
0.984073
0.983841
0.983789
0.983819
0.983925
0.984095
0.984251
0.984344
0.984433
0.984392
0.984417
0.984603
0.985231
0.987096
0.990266
0.996408
1.00357
1.01277
1.02114
1.02818
1.03524
1.03756
1.03904
1.039
1.03794
1.03756
1.03801
1.03875
1.03928
1.03934
1.03925
1.03895
1.03902
1.03919
1.03934
1.03931
1.03929
1.03928
1.03929
1.03931
1.03934
1.03932
1.03937
1.03951
1.03959
1.03949
0.983736
0.983708
0.983678
0.983643
0.983605
0.98357
0.983554
0.983552
0.983554
0.983556
0.983551
0.983524
0.983509
0.983512
0.983509
0.983492
0.983472
0.983454
0.98343
0.983405
0.983387
0.983378
0.983369
0.98337
0.983375
0.983391
0.983437
0.983474
0.983481
0.983484
0.983482
0.983483
0.983481
0.983459
0.983422
0.983374
0.983311
0.983225
0.983118
0.983013
0.982928
0.982899
0.982908
0.982955
0.983043
0.983144
0.983242
0.983355
0.983544
0.983842
0.984022
0.984029
0.983997
0.983904
0.983716
0.983507
0.983447
0.983492
0.983643
0.983881
0.984121
0.984326
0.984405
0.984391
0.984351
0.984371
0.984336
0.984352
0.984614
0.98565
0.987956
0.992707
0.999064
1.00796
1.01655
1.0238
1.02935
1.03244
1.03421
1.03682
1.03893
1.03923
1.03912
1.03857
1.03815
1.03828
1.03871
1.03911
1.03911
1.03899
1.03884
1.03888
1.03898
1.03905
1.03899
1.03893
1.03903
1.0393
1.03934
1.03926
0.983271
0.98324
0.983208
0.983172
0.983133
0.983092
0.983056
0.98304
0.983039
0.983039
0.983034
0.983009
0.982976
0.982967
0.98296
0.982937
0.982908
0.982885
0.982877
0.982877
0.982866
0.982845
0.98284
0.98284
0.982836
0.982839
0.982855
0.982868
0.9829
0.982963
0.983006
0.98302
0.983029
0.983027
0.983006
0.982958
0.982888
0.982807
0.982714
0.9826
0.982473
0.982361
0.982303
0.982292
0.982305
0.982344
0.982409
0.982519
0.982707
0.982982
0.983269
0.983425
0.98344
0.983414
0.983342
0.983181
0.983029
0.983042
0.983181
0.983422
0.983686
0.983935
0.984032
0.984014
0.984019
0.98402
0.983998
0.983897
0.983814
0.98384
0.984042
0.98468
0.986196
0.989831
0.995503
1.00444
1.01362
1.02265
1.03089
1.03549
1.03733
1.03795
1.03698
1.03623
1.03686
1.0379
1.03857
1.03855
1.03837
1.03823
1.03829
1.03846
1.03846
1.03842
1.03835
1.03842
1.0386
1.03876
1.03881
1.03882
0.982909
0.982882
0.982854
0.982824
0.982791
0.98275
0.982694
0.982634
0.982603
0.98259
0.982573
0.982539
0.982506
0.982499
0.982495
0.982478
0.982457
0.982457
0.98246
0.982463
0.982456
0.982441
0.982432
0.98243
0.982428
0.982426
0.982421
0.98242
0.982442
0.982513
0.982563
0.982591
0.982645
0.982718
0.982736
0.98274
0.982734
0.982705
0.982645
0.982565
0.982471
0.982352
0.982207
0.982099
0.982044
0.982017
0.982022
0.982073
0.982214
0.982465
0.982752
0.983005
0.983179
0.983232
0.983218
0.983136
0.982942
0.982821
0.982844
0.982905
0.983034
0.983244
0.983386
0.98337
0.983376
0.98338
0.983354
0.983266
0.983163
0.983146
0.983166
0.983134
0.983161
0.983491
0.984687
0.987724
0.993279
1.00152
1.01126
1.01996
1.02614
1.03041
1.03255
1.03509
1.03765
1.03798
1.03783
1.03725
1.03717
1.03745
1.03784
1.03799
1.03788
1.03764
1.03768
1.03784
1.03803
1.03806
1.03811
1.03821
0.982741
0.98272
0.982699
0.982676
0.982649
0.982615
0.98257
0.982513
0.98244
0.982356
0.982286
0.982243
0.982219
0.982202
0.98219
0.982185
0.982181
0.982171
0.982164
0.982166
0.982166
0.982164
0.982152
0.982144
0.982145
0.982148
0.982134
0.982122
0.982126
0.982166
0.982228
0.982268
0.982303
0.982358
0.982445
0.982537
0.982593
0.982613
0.982614
0.982607
0.982594
0.982566
0.982493
0.982354
0.982179
0.982052
0.981961
0.981917
0.981926
0.982002
0.982135
0.982302
0.982476
0.982546
0.982528
0.982444
0.982296
0.982187
0.982202
0.982238
0.982274
0.982364
0.982401
0.982353
0.982367
0.982491
0.982495
0.982454
0.982367
0.982344
0.982368
0.982403
0.982485
0.982482
0.982521
0.982793
0.98381
0.986391
0.991685
0.999699
1.00984
1.01927
1.02844
1.03352
1.03592
1.03635
1.03483
1.03517
1.03601
1.03686
1.03722
1.03715
1.03687
1.03692
1.03714
1.03721
1.03721
1.03724
1.03736
1.03752
0.98249
0.982481
0.982472
0.982462
0.982447
0.982428
0.982406
0.982376
0.982335
0.982286
0.982233
0.98218
0.982128
0.98207
0.982004
0.981947
0.98191
0.981889
0.98187
0.981855
0.981852
0.981847
0.981837
0.981841
0.98185
0.981847
0.981834
0.981834
0.981855
0.981901
0.981939
0.981968
0.982002
0.982061
0.98216
0.982281
0.982396
0.982488
0.982544
0.982586
0.982589
0.982585
0.982554
0.982441
0.982237
0.982018
0.981818
0.981702
0.981705
0.98175
0.981774
0.981809
0.981878
0.98191
0.981869
0.981741
0.981605
0.981524
0.981528
0.981573
0.981641
0.981615
0.981473
0.981348
0.98136
0.981493
0.981566
0.981569
0.98154
0.981519
0.981549
0.981662
0.981793
0.981922
0.981995
0.981941
0.981954
0.982196
0.983044
0.985474
0.990305
0.998469
1.00823
1.01781
1.0245
1.02903
1.03113
1.0347
1.0365
1.03648
1.03628
1.03571
1.03579
1.03625
1.03666
1.03659
1.03644
1.03645
1.03665
1.03686
0.982106
0.982107
0.982109
0.982114
0.982119
0.982125
0.982126
0.982122
0.982112
0.982094
0.982068
0.982034
0.981993
0.981945
0.981889
0.981821
0.981739
0.981667
0.981652
0.981655
0.981654
0.981635
0.981627
0.981624
0.98161
0.981588
0.98158
0.981582
0.981594
0.98161
0.981623
0.981641
0.981678
0.981755
0.981884
0.982049
0.98224
0.982438
0.98248
0.982472
0.982452
0.982426
0.982391
0.982309
0.982132
0.981871
0.98165
0.981602
0.981623
0.981652
0.981636
0.981595
0.981569
0.981535
0.981435
0.981236
0.981057
0.980957
0.980949
0.98103
0.98115
0.981134
0.980909
0.98067
0.980656
0.980748
0.980888
0.980982
0.981028
0.981059
0.981087
0.981105
0.981133
0.981192
0.981255
0.981259
0.981226
0.981174
0.981214
0.981449
0.98231
0.984605
0.989639
0.998014
1.00818
1.01893
1.02828
1.03284
1.03486
1.03453
1.0334
1.03399
1.03516
1.03587
1.03584
1.03566
1.03572
1.03593
1.03607
1.03616
0.981457
0.981474
0.981483
0.981487
0.981498
0.981533
0.981556
0.981553
0.981552
0.981562
0.981562
0.981553
0.981539
0.981544
0.981542
0.981527
0.981523
0.981541
0.981542
0.981533
0.981523
0.981503
0.981446
0.98136
0.981308
0.981304
0.981301
0.98128
0.981255
0.981261
0.981277
0.981289
0.981299
0.981338
0.981427
0.981521
0.981608
0.981723
0.981792
0.981781
0.98175
0.981709
0.981692
0.981659
0.981539
0.981326
0.981223
0.981222
0.981246
0.981319
0.981329
0.981299
0.981243
0.981167
0.981017
0.980789
0.980624
0.980559
0.980573
0.980721
0.980841
0.980811
0.980565
0.980418
0.980427
0.980469
0.980468
0.980437
0.980431
0.980471
0.98053
0.980522
0.980474
0.980452
0.980466
0.980482
0.980445
0.980373
0.980368
0.980403
0.980518
0.980822
0.981787
0.984251
0.989771
0.998467
1.00902
1.0187
1.02453
1.02883
1.03105
1.03464
1.03526
1.03514
1.03458
1.03466
1.03517
1.03566
1.0356
1.03555
0.980931
0.980933
0.980932
0.980923
0.98092
0.980923
0.980945
0.980983
0.980987
0.980985
0.980986
0.98099
0.981002
0.981023
0.981036
0.981058
0.981097
0.981098
0.981093
0.981093
0.98109
0.981065
0.980986
0.980811
0.980753
0.98077
0.980773
0.980747
0.980703
0.980656
0.98066
0.980681
0.980687
0.980683
0.980704
0.980778
0.980828
0.98086
0.980856
0.980837
0.980781
0.980643
0.980547
0.980547
0.98052
0.980417
0.980396
0.980398
0.980412
0.980476
0.980604
0.980692
0.980693
0.980629
0.980431
0.980183
0.980093
0.980105
0.980229
0.980541
0.980589
0.980563
0.980428
0.980411
0.98042
0.980392
0.980271
0.980065
0.979944
0.979955
0.979995
0.979979
0.979902
0.979795
0.979743
0.979714
0.979667
0.979634
0.979647
0.97969
0.979752
0.979821
0.979909
0.980194
0.981327
0.983985
0.990488
0.999773
1.01019
1.02284
1.02914
1.03332
1.03353
1.0325
1.0328
1.03374
1.03474
1.03505
1.03503
1.03506
0.980342
0.980397
0.980528
0.980567
0.980567
0.980562
0.980533
0.980492
0.980485
0.980498
0.980561
0.980626
0.980629
0.980633
0.980659
0.980731
0.980756
0.980757
0.980761
0.980773
0.98077
0.980737
0.980652
0.980454
0.980329
0.980332
0.980345
0.980331
0.980264
0.980102
0.980017
0.980013
0.980039
0.980069
0.980041
0.980027
0.980084
0.980106
0.980097
0.980088
0.980052
0.979947
0.979759
0.979561
0.979501
0.9795
0.97953
0.979554
0.979578
0.979664
0.979886
0.98017
0.980334
0.980317
0.980194
0.980029
0.979874
0.979835
0.979951
0.980189
0.980223
0.980231
0.980264
0.980315
0.980322
0.980292
0.980147
0.979932
0.979834
0.979777
0.979736
0.979678
0.979579
0.979412
0.979261
0.979214
0.979234
0.979292
0.979341
0.979382
0.979422
0.979474
0.979513
0.979525
0.979579
0.979861
0.981229
0.984194
0.991845
1.00126
1.01188
1.02243
1.02561
1.02908
1.03215
1.03439
1.03427
1.03401
1.03419
1.03457
0.979107
0.979107
0.979141
0.979175
0.97918
0.979167
0.979103
0.978995
0.978952
0.978966
0.979025
0.979075
0.979106
0.979175
0.979319
0.979393
0.979425
0.979466
0.979536
0.979568
0.979586
0.979636
0.979648
0.979595
0.97955
0.979566
0.979592
0.979569
0.979484
0.979294
0.979119
0.979092
0.979137
0.979159
0.979142
0.979167
0.979306
0.97955
0.979722
0.979781
0.979776
0.979712
0.979448
0.97913
0.979004
0.978992
0.979022
0.979089
0.97917
0.979317
0.97955
0.979778
0.97997
0.980055
0.980025
0.979937
0.97981
0.979675
0.979682
0.97971
0.979669
0.979642
0.979689
0.979843
0.979889
0.979882
0.9798
0.979549
0.979357
0.979345
0.979383
0.979455
0.979463
0.979386
0.979207
0.979128
0.979135
0.979154
0.979152
0.979118
0.979068
0.979052
0.979068
0.979062
0.97903
0.979016
0.979097
0.979531
0.981332
0.985085
0.994044
1.00431
1.01571
1.02714
1.03083
1.03338
1.03191
1.03224
1.03314
1.03417
0.977924
0.977941
0.977964
0.977988
0.977998
0.977969
0.977829
0.977805
0.977914
0.978018
0.97804
0.978046
0.978082
0.978189
0.978248
0.978238
0.978205
0.97821
0.978281
0.978337
0.978408
0.978584
0.978653
0.97859
0.978497
0.978513
0.978613
0.978614
0.97853
0.978352
0.978251
0.978266
0.978417
0.978496
0.978589
0.978829
0.979191
0.979555
0.979823
0.980004
0.980043
0.979994
0.979784
0.979467
0.97926
0.979204
0.979165
0.979163
0.979205
0.979339
0.979465
0.979565
0.979656
0.979804
0.979893
0.979859
0.979766
0.979683
0.979581
0.979347
0.979102
0.979021
0.979013
0.979161
0.979457
0.979542
0.979485
0.979241
0.978972
0.978928
0.978974
0.979156
0.979351
0.979368
0.979297
0.9792
0.979149
0.979115
0.97907
0.97899
0.978883
0.978766
0.978742
0.978727
0.9787
0.978659
0.978622
0.978641
0.978834
0.979553
0.981955
0.986848
0.996994
1.00816
1.01745
1.02535
1.0279
1.03229
1.03337
1.03391
0.976758
0.9768
0.976838
0.976863
0.976858
0.976849
0.976915
0.977212
0.977662
0.977706
0.977695
0.977705
0.977779
0.97791
0.977927
0.977822
0.977641
0.977609
0.977616
0.97761
0.977624
0.977624
0.977595
0.977504
0.97749
0.977593
0.977811
0.97795
0.977949
0.977836
0.977692
0.977666
0.977709
0.977901
0.97825
0.978689
0.978962
0.979191
0.979416
0.979575
0.979597
0.979514
0.979284
0.979048
0.97891
0.978836
0.978754
0.978699
0.978779
0.978822
0.978669
0.978555
0.978634
0.978961
0.979355
0.979421
0.979345
0.979278
0.979167
0.978975
0.978742
0.978613
0.978561
0.978582
0.978771
0.979068
0.979174
0.979142
0.978993
0.978863
0.978846
0.978916
0.979112
0.979231
0.979231
0.979201
0.97916
0.979126
0.979089
0.979009
0.978879
0.978728
0.978633
0.978594
0.978572
0.978539
0.978546
0.97859
0.97862
0.978691
0.978956
0.979902
0.983076
0.989516
1.00083
1.01257
1.02374
1.03112
1.03259
1.03194
0.975924
0.975918
0.975914
0.97592
0.975936
0.975958
0.976018
0.976224
0.976459
0.976471
0.976443
0.976486
0.976777
0.976983
0.976955
0.976663
0.976067
0.975758
0.975652
0.975535
0.97548
0.975509
0.975554
0.975602
0.975721
0.976037
0.9765
0.976722
0.976672
0.97642
0.976347
0.976326
0.976302
0.976358
0.976542
0.976529
0.97625
0.976154
0.976171
0.97627
0.976487
0.976848
0.977369
0.977903
0.978115
0.978102
0.978009
0.977933
0.977813
0.97756
0.977452
0.977515
0.977759
0.977966
0.978095
0.978296
0.978441
0.978461
0.978546
0.978763
0.978871
0.978836
0.978665
0.978516
0.97854
0.978744
0.978961
0.979077
0.979104
0.979075
0.978953
0.978861
0.978914
0.979072
0.97915
0.979148
0.979113
0.979085
0.979066
0.979027
0.978956
0.978856
0.978722
0.978641
0.978621
0.978586
0.978586
0.978614
0.978688
0.978784
0.978783
0.97882
0.979129
0.980584
0.984865
0.993167
1.00543
1.01629
1.02347
1.02912
0.97497
0.975055
0.975033
0.974825
0.974747
0.974763
0.974663
0.97443
0.974393
0.974539
0.9751
0.975174
0.97517
0.975212
0.975021
0.97422
0.973464
0.973337
0.973436
0.973661
0.97375
0.973759
0.973687
0.973704
0.973921
0.974381
0.974794
0.974997
0.975036
0.975036
0.975129
0.97556
0.975776
0.975769
0.975603
0.975179
0.97407
0.972713
0.972304
0.972313
0.972508
0.973182
0.97435
0.97529
0.975706
0.975972
0.976216
0.976305
0.976263
0.976095
0.976032
0.976159
0.976599
0.976787
0.976834
0.976936
0.977067
0.97724
0.977666
0.978381
0.978613
0.978592
0.978473
0.978397
0.978418
0.978487
0.978625
0.978845
0.978915
0.978904
0.978813
0.978681
0.978663
0.978771
0.978962
0.979006
0.978985
0.978943
0.97889
0.978873
0.978866
0.978847
0.978816
0.978804
0.978788
0.978756
0.978717
0.978726
0.978763
0.978786
0.978757
0.978684
0.978651
0.97874
0.979382
0.981692
0.988049
0.997904
1.0107
1.02612
0.974563
0.974534
0.974547
0.974751
0.974892
0.974811
0.974513
0.974264
0.974208
0.974355
0.974746
0.975003
0.974998
0.974777
0.974258
0.973937
0.973826
0.973826
0.974027
0.974316
0.974388
0.974393
0.974347
0.974294
0.974396
0.974755
0.975269
0.975605
0.975728
0.975969
0.976829
0.977457
0.977416
0.977276
0.977124
0.976731
0.975543
0.97357
0.972307
0.972196
0.972426
0.973201
0.974124
0.974869
0.975452
0.9759
0.976241
0.976497
0.97659
0.976572
0.976493
0.976435
0.976349
0.976222
0.976107
0.976047
0.975883
0.975716
0.975735
0.975932
0.976355
0.976822
0.977104
0.977233
0.977253
0.977236
0.977266
0.977451
0.977853
0.978181
0.978217
0.978154
0.978086
0.978137
0.978334
0.978543
0.978678
0.978749
0.978764
0.978795
0.978845
0.97887
0.97891
0.978928
0.978919
0.978896
0.978892
0.978924
0.978957
0.978918
0.978839
0.978745
0.978659
0.978643
0.978681
0.978948
0.980129
0.983942
0.99144
1.00898
0.983052
0.982881
0.982509
0.982186
0.98199
0.981727
0.981354
0.981261
0.98155
0.981977
0.981992
0.981746
0.981199
0.98005
0.979046
0.978918
0.978997
0.979366
0.979681
0.979637
0.979304
0.97882
0.978271
0.977749
0.977549
0.977647
0.978426
0.97879
0.978734
0.978847
0.980002
0.980853
0.980842
0.980759
0.980594
0.980105
0.978965
0.977846
0.977752
0.977761
0.977714
0.977389
0.976562
0.975937
0.975944
0.976053
0.976292
0.976497
0.976447
0.976289
0.976145
0.975839
0.975526
0.975473
0.975625
0.97599
0.976042
0.975754
0.97483
0.974528
0.974542
0.974699
0.975146
0.975753
0.975987
0.975971
0.975877
0.975853
0.976017
0.976325
0.976675
0.976975
0.977191
0.977347
0.977539
0.977856
0.978221
0.978569
0.978688
0.978739
0.978828
0.978878
0.978947
0.978987
0.97897
0.978876
0.978871
0.978948
0.979042
0.979044
0.978995
0.978886
0.978747
0.978718
0.978718
0.978729
0.978816
0.979357
0.981135
0.992181
0.995517
0.996061
0.99633
0.996337
0.996047
0.995059
0.99478
0.994877
0.994888
0.99461
0.994614
0.994712
0.994686
0.994244
0.992765
0.9921
0.99221
0.992761
0.99261
0.990799
0.988217
0.986929
0.986162
0.985444
0.984907
0.984555
0.983939
0.983274
0.983209
0.983301
0.983432
0.983219
0.982605
0.982588
0.982411
0.981179
0.980283
0.980364
0.981451
0.982986
0.983963
0.983967
0.982989
0.980755
0.979045
0.978931
0.979023
0.978997
0.978447
0.977275
0.976485
0.976047
0.975888
0.975952
0.976262
0.977079
0.977991
0.977904
0.977016
0.975725
0.975123
0.97522
0.975618
0.97617
0.976746
0.976742
0.97647
0.97607
0.975687
0.975525
0.975598
0.976019
0.976303
0.976288
0.976191
0.97627
0.976602
0.977044
0.977412
0.977682
0.977987
0.978307
0.978574
0.978771
0.97888
0.978932
0.978952
0.979027
0.979026
0.979008
0.978977
0.978902
0.978874
0.978861
0.978807
0.978724
0.978737
0.978779
0.978971
0.982336
1.01198
1.01201
1.01219
1.01237
1.01241
1.0122
1.01195
1.01171
1.01076
1.00933
1.00906
1.00919
1.00919
1.0086
1.00787
1.00709
1.00644
1.00626
1.00603
1.00511
1.0047
1.00488
1.00517
1.00498
1.00394
1.00315
1.00318
1.00373
1.00371
1.00247
1.00108
1.00063
1.00016
0.999209
0.997605
0.996117
0.994699
0.992516
0.990773
0.990739
0.991418
0.991847
0.991124
0.989838
0.99008
0.990204
0.989797
0.989505
0.989208
0.9883
0.986842
0.984955
0.982581
0.981377
0.98135
0.982069
0.982591
0.982533
0.982068
0.981033
0.979773
0.978755
0.97826
0.97815
0.978196
0.978171
0.978001
0.977461
0.97634
0.975787
0.975807
0.976055
0.976245
0.97622
0.975991
0.975874
0.975925
0.976093
0.976362
0.976672
0.976965
0.977384
0.977749
0.978117
0.978495
0.978804
0.978921
0.978918
0.978864
0.978904
0.978937
0.978921
0.978902
0.978887
0.978849
0.978751
0.978705
0.978734
0.978812
0.979507
1.03446
1.03416
1.03403
1.03399
1.03398
1.0344
1.03511
1.03512
1.0342
1.03226
1.03163
1.03177
1.03187
1.03165
1.03013
1.02924
1.0286
1.02742
1.02615
1.02497
1.02435
1.02438
1.0243
1.02321
1.0212
1.02063
1.02017
1.01907
1.01881
1.01872
1.01801
1.01692
1.01632
1.01541
1.01458
1.01468
1.01466
1.01335
1.01181
1.01146
1.01109
1.01016
1.0084
1.00575
1.00342
1.00182
0.999835
0.998641
0.998629
0.999209
0.999152
0.997782
0.994697
0.99363
0.993327
0.991919
0.988005
0.985822
0.985872
0.985384
0.984738
0.984756
0.984669
0.983391
0.980575
0.979296
0.979521
0.979983
0.979819
0.979056
0.977894
0.977127
0.976837
0.976802
0.976977
0.977169
0.977238
0.977338
0.977488
0.977419
0.977385
0.977292
0.977138
0.977156
0.977258
0.977483
0.977761
0.978077
0.978388
0.97872
0.978791
0.978759
0.978712
0.978655
0.978608
0.978621
0.978699
0.978917
0.97905
0.979061
1.05692
1.05619
1.05589
1.05587
1.0561
1.05644
1.05625
1.05467
1.05297
1.05288
1.0532
1.0532
1.05274
1.05211
1.05111
1.05078
1.0507
1.05041
1.04926
1.04875
1.04888
1.0488
1.0483
1.04676
1.04516
1.04503
1.04503
1.0448
1.04385
1.04265
1.0412
1.03976
1.03885
1.03808
1.03725
1.03634
1.03431
1.0318
1.03152
1.03142
1.03078
1.02901
1.02816
1.02733
1.02584
1.02434
1.02253
1.02119
1.02033
1.01858
1.01635
1.01447
1.01195
1.0108
1.01079
1.00994
1.00702
1.00465
1.00283
0.999947
0.99753
0.997324
0.997358
0.996706
0.994722
0.991291
0.987524
0.986092
0.986321
0.986351
0.98534
0.983462
0.981968
0.980732
0.980381
0.980083
0.979511
0.978857
0.977814
0.977114
0.97684
0.976557
0.976417
0.976419
0.976488
0.976664
0.976962
0.977285
0.977599
0.977806
0.978071
0.978083
0.978015
0.97806
0.978259
0.978474
0.978842
0.979181
0.979215
0.97915
1.08156
1.08038
1.07982
1.07976
1.08001
1.08043
1.08038
1.07961
1.07898
1.07842
1.07746
1.0773
1.07728
1.07672
1.07612
1.07551
1.07415
1.07361
1.07334
1.07306
1.07217
1.07096
1.07038
1.06995
1.06935
1.06858
1.06769
1.06673
1.06586
1.06495
1.06361
1.0627
1.06214
1.06155
1.06056
1.05964
1.05871
1.05752
1.05612
1.05486
1.05368
1.05207
1.05031
1.0488
1.0475
1.04518
1.04191
1.04129
1.04141
1.04079
1.03886
1.03659
1.03431
1.03228
1.0306
1.02728
1.02296
1.02233
1.02185
1.01959
1.01662
1.01516
1.01257
1.00894
1.00682
1.00511
1.00337
1.00007
0.996636
0.995608
0.994622
0.992417
0.989862
0.987475
0.985458
0.983989
0.982165
0.980406
0.979057
0.978039
0.97773
0.977201
0.977191
0.977326
0.977863
0.978369
0.978278
0.97815
0.977959
0.977648
0.977189
0.97711
0.977152
0.977343
0.977717
0.978417
0.978753
0.979053
0.97907
0.978998
1.10608
1.10533
1.10511
1.10516
1.10498
1.10375
1.10246
1.1024
1.10258
1.10253
1.10223
1.10137
1.1001
1.09962
1.09977
1.09979
1.09943
1.09792
1.09667
1.09664
1.09664
1.09621
1.09515
1.09424
1.0931
1.09202
1.09147
1.09096
1.09021
1.08914
1.08787
1.08673
1.08586
1.08496
1.08377
1.08249
1.08131
1.08022
1.07894
1.07736
1.07613
1.07505
1.07349
1.07192
1.07071
1.06922
1.06724
1.06551
1.06402
1.06236
1.06021
1.05803
1.05584
1.05358
1.05197
1.05004
1.04757
1.04526
1.04311
1.03993
1.03664
1.03542
1.03374
1.03136
1.02764
1.02306
1.02078
1.01934
1.01686
1.01297
1.01004
1.00757
1.00469
1.00212
0.999591
0.997386
0.995216
0.992851
0.990999
0.988905
0.987077
0.984953
0.983192
0.981715
0.980739
0.979497
0.977942
0.977452
0.977237
0.976919
0.976706
0.976762
0.977196
0.977917
0.978255
0.978387
0.978272
0.978245
0.978293
0.978573
1.12991
1.12998
1.13014
1.13019
1.13005
1.12964
1.129
1.12776
1.1272
1.12729
1.12724
1.1268
1.12612
1.1249
1.12388
1.12379
1.12368
1.12329
1.12211
1.12106
1.12075
1.12045
1.11952
1.11852