/*--------------------------------*- C++ -*----------------------------------*\
  =========                 |
  \\      /  F ield         | OpenFOAM: The Open Source CFD Toolbox
   \\    /   O peration     | Website:  https://openfoam.org
    \\  /    A nd           | Version:  7
     \\/     M anipulation  |
\*---------------------------------------------------------------------------*/
FoamFile
{
    version     2.0;
    format      ascii;
    class       volScalarField;
    location    "4";
    object      rho;
}
// * * * * * * * * * * * * * * * * * * * * * * * * * * * * * * * * * * * * * //

dimensions      [1 -3 0 0 0 0 0];

internalField   nonuniform List<scalar> 
90000
(
0.543141
0.579991
0.615306
0.650844
0.687913
0.719507
0.749102
0.782858
0.815711
0.846746
0.879276
0.913581
0.947297
0.981207
1.01525
1.05008
1.0838
1.1179
1.15061
1.18344
1.21247
1.23929
1.26128
1.27262
1.27785
1.28495
1.28653
1.28679
1.28618
1.28501
1.28418
1.28258
1.27973
1.27667
1.27285
1.26949
1.26566
1.26094
1.25402
1.25455
1.25777
1.26231
1.26757
1.27295
1.27766
1.28182
1.28452
1.2879
1.28738
1.2836
1.2765
1.27019
1.26503
1.26555
1.26759
1.27255
1.2775
1.2814
1.28104
1.27785
1.27131
1.26506
1.26039
1.26123
1.26429
1.26921
1.27213
1.27122
1.26793
1.26292
1.25981
1.26059
1.26278
1.26517
1.26421
1.26086
1.25699
1.25602
1.25704
1.25829
1.25724
1.25437
1.25256
1.25246
1.25306
1.25216
1.24976
1.24763
1.24695
1.24643
1.24546
1.24384
1.24255
1.24241
1.24246
1.24303
1.24494
1.24548
1.24561
1.24549
0.513527
0.513547
0.513561
0.513593
0.513731
0.514024
0.514646
0.515855
0.517976
0.520989
0.525587
0.53204
0.541209
0.552905
0.568718
0.588079
0.612989
0.642248
0.678333
0.719224
0.767004
0.818774
0.87551
0.931943
0.985197
1.03607
1.07889
1.11899
1.14958
1.17859
1.19716
1.21528
1.22383
1.23316
1.23666
1.24152
1.24352
1.24584
1.25029
1.26074
1.26918
1.27656
1.28105
1.28511
1.28542
1.28505
1.28443
1.28103
1.27126
1.26258
1.25809
1.25961
1.26044
1.26281
1.26745
1.27105
1.27575
1.27551
1.27181
1.26445
1.25837
1.25567
1.25697
1.25793
1.26137
1.26592
1.26612
1.26335
1.2581
1.25555
1.25656
1.25761
1.25973
1.26011
1.2585
1.25516
1.2532
1.25364
1.25558
1.25497
1.25338
1.25144
1.25024
1.251
1.25046
1.24918
1.24754
1.24637
1.24563
1.24456
1.24361
1.24228
1.24134
1.24115
1.24156
1.24237
1.2444
1.24484
1.24505
1.24533
0.514434
0.514489
0.51455
0.514617
0.514688
0.514787
0.51484
0.514879
0.514928
0.514991
0.515055
0.515117
0.515186
0.515268
0.515361
0.515464
0.515564
0.5157
0.516035
0.516787
0.518761
0.522374
0.529592
0.540813
0.559505
0.584066
0.618953
0.660163
0.712407
0.76915
0.833413
0.898247
0.963115
1.02563
1.08104
1.13363
1.17542
1.21566
1.24382
1.26308
1.26977
1.27707
1.27999
1.28391
1.28383
1.28223
1.27463
1.26058
1.24533
1.24756
1.25403
1.26091
1.26988
1.27619
1.2797
1.27877
1.27631
1.26822
1.2594
1.25248
1.25167
1.25288
1.25703
1.26509
1.26883
1.26768
1.2625
1.25523
1.25139
1.25235
1.25542
1.26157
1.26167
1.25894
1.2539
1.2513
1.25168
1.25386
1.25565
1.2541
1.2508
1.24958
1.24965
1.25087
1.2503
1.2477
1.24598
1.24609
1.24583
1.24478
1.24353
1.2422
1.24137
1.24095
1.24122
1.2423
1.24431
1.24477
1.24508
1.24573
0.515793
0.515857
0.515929
0.516003
0.51608
0.516156
0.516234
0.516315
0.5164
0.516488
0.516581
0.516676
0.516775
0.516873
0.516973
0.517071
0.517169
0.517266
0.517362
0.51749
0.517536
0.517574
0.517613
0.517659
0.517709
0.517772
0.517822
0.517989
0.518795
0.520951
0.526782
0.537301
0.557553
0.5862
0.630275
0.683884
0.753148
0.829359
0.910614
0.988771
1.05464
1.11518
1.15438
1.19236
1.20921
1.22721
1.23093
1.23878
1.25095
1.26581
1.27872
1.28635
1.29189
1.29092
1.28848
1.28335
1.26745
1.2539
1.25046
1.25189
1.25566
1.26391
1.27167
1.2753
1.27298
1.26439
1.25487
1.25153
1.25223
1.25786
1.26385
1.26554
1.26301
1.25636
1.2527
1.25203
1.25505
1.25831
1.25728
1.25365
1.25089
1.25006
1.25194
1.25215
1.25034
1.24769
1.24622
1.24665
1.24701
1.24548
1.24411
1.24298
1.24185
1.24144
1.24171
1.24284
1.24477
1.24536
1.24572
1.247
0.517185
0.517232
0.517282
0.517333
0.517384
0.517436
0.517487
0.517538
0.51759
0.517642
0.517695
0.517749
0.517804
0.517858
0.517911
0.517959
0.518008
0.518055
0.518104
0.518148
0.518193
0.518239
0.518286
0.518333
0.518381
0.518429
0.518472
0.518522
0.518546
0.518569
0.51859
0.518617
0.518645
0.51868
0.51871
0.519033
0.521101
0.526651
0.541897
0.567526
0.613775
0.673375
0.755161
0.844427
0.940345
1.034
1.114
1.18956
1.2344
1.26349
1.26998
1.27757
1.28318
1.28292
1.27936
1.26607
1.25333
1.25489
1.25928
1.26992
1.27958
1.28215
1.28012
1.2761
1.26462
1.25622
1.253
1.25444
1.2628
1.27052
1.27004
1.26712
1.25867
1.25496
1.25406
1.25792
1.2621
1.26109
1.25746
1.2537
1.2518
1.25376
1.25546
1.25348
1.25019
1.24813
1.24852
1.2497
1.24871
1.24659
1.24563
1.2445
1.24295
1.2426
1.24292
1.24421
1.24596
1.24674
1.24735
1.24923
0.518054
0.518079
0.518106
0.518132
0.518158
0.518184
0.518211
0.518237
0.518262
0.518288
0.518313
0.518339
0.518365
0.518391
0.518415
0.518437
0.518459
0.518481
0.518504
0.518527
0.518552
0.518572
0.518593
0.518612
0.518632
0.518653
0.518675
0.518696
0.518718
0.51874
0.518762
0.518789
0.518817
0.518848
0.518877
0.518913
0.51892
0.518932
0.518946
0.518972
0.518991
0.519239
0.521605
0.52895
0.550911
0.58833
0.656455
0.74396
0.851849
0.962226
1.05278
1.12927
1.1785
1.21363
1.23788
1.24213
1.25766
1.27228
1.29111
1.30121
1.30035
1.29485
1.28501
1.26431
1.25343
1.25402
1.25835
1.269
1.28078
1.27929
1.27436
1.26222
1.25634
1.25681
1.26221
1.26828
1.26717
1.26363
1.25708
1.25442
1.25686
1.25989
1.25836
1.25396
1.25072
1.25113
1.25317
1.25282
1.25082
1.24888
1.24792
1.24657
1.24476
1.24455
1.24502
1.24635
1.24787
1.24879
1.24961
1.25168
0.518515
0.518527
0.518538
0.518549
0.518559
0.51857
0.51858
0.518591
0.518602
0.518613
0.518624
0.518633
0.518643
0.518653
0.518661
0.518668
0.518675
0.518682
0.51869
0.518699
0.518708
0.518718
0.518729
0.518742
0.518757
0.518774
0.518793
0.518813
0.518833
0.518852
0.518873
0.518897
0.518925
0.518953
0.51898
0.519001
0.519024
0.519049
0.519077
0.519108
0.519143
0.519148
0.519146
0.519144
0.519137
0.519117
0.519269
0.520988
0.53157
0.557238
0.61522
0.697839
0.81103
0.93242
1.05227
1.15045
1.23481
1.26307
1.28192
1.29068
1.29049
1.28403
1.26428
1.25126
1.25592
1.26649
1.27943
1.28683
1.28409
1.27806
1.26511
1.25751
1.25788
1.26575
1.27365
1.2727
1.26912
1.26107
1.25713
1.25875
1.26382
1.26321
1.2602
1.25476
1.25338
1.25522
1.25623
1.25484
1.25229
1.25099
1.2501
1.24841
1.2465
1.24625
1.24682
1.24814
1.24946
1.2505
1.25187
1.25392
0.518757
0.518761
0.518764
0.518767
0.51877
0.518772
0.518775
0.518778
0.518783
0.518787
0.518791
0.518794
0.518798
0.5188
0.518802
0.518804
0.518806
0.518809
0.518813
0.518818
0.518825
0.518836
0.518849
0.518865
0.518882
0.518903
0.518924
0.518946
0.518966
0.518986
0.519006
0.519031
0.519057
0.519083
0.519107
0.519124
0.519139
0.519156
0.519177
0.519196
0.519213
0.519225
0.519232
0.519234
0.519231
0.51922
0.519195
0.519183
0.519184
0.519191
0.519205
0.519926
0.526399
0.549129
0.601059
0.697942
0.823382
0.955454
1.07111
1.14505
1.20601
1.22657
1.24177
1.25562
1.28327
1.29944
1.30162
1.29836
1.28406
1.26262
1.25607
1.25805
1.26856
1.28183
1.28071
1.27563
1.26385
1.25879
1.26002
1.26655
1.26855
1.26551
1.25798
1.25509
1.25643
1.25951
1.25872
1.2556
1.2533
1.25283
1.25173
1.24949
1.24753
1.24761
1.24811
1.24922
1.25066
1.25185
1.25405
1.25537
0.518889
0.518889
0.518889
0.518889
0.518889
0.51889
0.51889
0.518892
0.518894
0.518897
0.5189
0.518902
0.518904
0.518906
0.518909
0.518911
0.518915
0.51892
0.518927
0.518935
0.518946
0.518963
0.518982
0.519002
0.519024
0.519046
0.519066
0.519084
0.519101
0.519116
0.519131
0.519148
0.519166
0.519181
0.519195
0.519205
0.519214
0.519225
0.519238
0.519254
0.519272
0.519287
0.519296
0.519302
0.519304
0.519299
0.519299
0.519303
0.51931
0.519322
0.519338
0.519356
0.519372
0.5194
0.519409
0.520232
0.527474
0.561426
0.626213
0.742522
0.883674
1.0271
1.16171
1.23723
1.27149
1.28732
1.28972
1.28071
1.25193
1.25009
1.25835
1.27474
1.28635
1.28492
1.27907
1.26531
1.25842
1.25936
1.26841
1.2728
1.26982
1.26034
1.25576
1.25704
1.26204
1.26158
1.259
1.25608
1.2541
1.25388
1.25239
1.24957
1.2482
1.24826
1.24888
1.24988
1.25101
1.25283
1.256
1.25638
0.51895
0.51895
0.518952
0.518955
0.51896
0.518964
0.518968
0.518971
0.518976
0.518981
0.518988
0.518994
0.518999
0.519006
0.519013
0.519018
0.519025
0.519035
0.519045
0.519054
0.519068
0.51909
0.519109
0.519127
0.519144
0.519157
0.519168
0.519176
0.519183
0.51919
0.519197
0.519205
0.51921
0.519214
0.519221
0.519227
0.519231
0.519237
0.519247
0.519262
0.519282
0.519301
0.519317
0.519334
0.51935
0.519365
0.519379
0.519387
0.519394
0.519401
0.519406
0.519409
0.519408
0.519409
0.519403
0.519399
0.51941
0.519459
0.519492
0.522005
0.537263
0.592625
0.697071
0.851209
0.999933
1.10315
1.18916
1.21623
1.23641
1.25983
1.28602
1.30062
1.29794
1.28592
1.26194
1.25505
1.25759
1.26948
1.27946
1.27594
1.26269
1.25508
1.25592
1.26251
1.26563
1.26281
1.25623
1.2549
1.25497
1.25442
1.25232
1.24969
1.2484
1.24882
1.24926
1.25
1.25117
1.25387
1.25711
1.25717
0.519058
0.519064
0.519071
0.519079
0.519087
0.519095
0.519103
0.519113
0.519124
0.519131
0.519139
0.519148
0.519155
0.519164
0.519173
0.519178
0.519183
0.51919
0.519195
0.5192
0.51921
0.519225
0.519235
0.519243
0.519249
0.51925
0.519249
0.519245
0.519244
0.519243
0.519241
0.51924
0.519237
0.519231
0.519229
0.519229
0.51923
0.519234
0.519244
0.519261
0.519286
0.519315
0.519343
0.519371
0.519403
0.519442
0.519466
0.519475
0.51948
0.519479
0.519473
0.519452
0.51943
0.519411
0.51939
0.519384
0.519392
0.51943
0.519476
0.519507
0.519534
0.51956
0.52032
0.534669
0.57962
0.688358
0.839142
1.00933
1.1655
1.24439
1.27256
1.28716
1.28342
1.25151
1.24762
1.25679
1.27291
1.28217
1.27969
1.26474
1.25198
1.2532
1.26301
1.26799
1.26566
1.25776
1.25358
1.25461
1.25632
1.25474
1.25029
1.24874
1.24884
1.24965
1.24962
1.24991
1.25162
1.25543
1.25747
1.25737
0.51925
0.519259
0.519268
0.519276
0.519285
0.519292
0.5193
0.519307
0.519313
0.519317
0.51932
0.519323
0.519327
0.519333
0.519336
0.519336
0.519335
0.519333
0.519331
0.519332
0.519335
0.519336
0.519336
0.519333
0.519331
0.519327
0.51932
0.519309
0.519301
0.519292
0.519283
0.51928
0.519276
0.519262
0.519252
0.51925
0.519251
0.51926
0.51928
0.519309
0.519343
0.519378
0.519411
0.519446
0.51949
0.519535
0.51956
0.519571
0.519576
0.519573
0.519557
0.519517
0.519465
0.519416
0.519386
0.519382
0.519391
0.519426
0.519466
0.51951
0.519558
0.519605
0.51963
0.519624
0.519576
0.520295
0.530984
0.585273
0.706262
0.880138
1.03425
1.14332
1.2057
1.22348
1.25688
1.28556
1.29465
1.29072
1.26681
1.24828
1.25007
1.26147
1.27386
1.27089
1.25931
1.25236
1.25308
1.25807
1.25744
1.25232
1.24861
1.24847
1.25112
1.25064
1.24948
1.24982
1.25253
1.25664
1.25763
1.25745
0.51941
0.519415
0.51942
0.519425
0.519429
0.519435
0.519438
0.519439
0.51944
0.51944
0.519433
0.519429
0.519428
0.519429
0.519427
0.519423
0.519417
0.519412
0.51941
0.519411
0.519412
0.519409
0.519401
0.519394
0.519392
0.51939
0.519386
0.519376
0.519363
0.519348
0.519344
0.519343
0.519339
0.519328
0.51932
0.519319
0.519319
0.519326
0.519347
0.519381
0.519415
0.519443
0.519471
0.519509
0.519557
0.519595
0.519611
0.519622
0.519638
0.519643
0.519631
0.519588
0.519511
0.519432
0.51941
0.51941
0.519422
0.519464
0.519528
0.519569
0.519588
0.519613
0.519637
0.519645
0.519628
0.519586
0.519563
0.519561
0.520823
0.541409
0.612754
0.755125
0.946995
1.12531
1.2373
1.27011
1.28215
1.27161
1.23917
1.24513
1.26414
1.27662
1.27522
1.2628
1.24993
1.25046
1.25792
1.26012
1.25676
1.24846
1.24757
1.25105
1.25243
1.25061
1.24906
1.25013
1.25426
1.25689
1.25718
1.25706
0.519487
0.519488
0.519489
0.519491
0.519489
0.519487
0.519487
0.519488
0.519495
0.519493
0.519481
0.519473
0.519465
0.519459
0.519456
0.51945
0.519443
0.51944
0.51944
0.519443
0.519443
0.519439
0.519433
0.519432
0.519432
0.519433
0.519431
0.519425
0.519414
0.519399
0.519394
0.519396
0.519394
0.519392
0.519395
0.519398
0.519403
0.519413
0.519432
0.519453
0.519472
0.519485
0.519503
0.519536
0.519578
0.519606
0.519614
0.51962
0.519644
0.519666
0.519664
0.519632
0.519546
0.519502
0.519504
0.519509
0.519536
0.519592
0.519615
0.519607
0.519602
0.519607
0.519624
0.519642
0.519636
0.519591
0.519574
0.519597
0.519654
0.519848
0.519952
0.524035
0.556891
0.675991
0.857158
1.02576
1.15599
1.20689
1.22876
1.26265
1.29154
1.28784
1.26859
1.24629
1.24693
1.25515
1.2656
1.26186
1.2499
1.24606
1.24834
1.25474
1.25351
1.24937
1.24882
1.25127
1.25546
1.25612
1.25671
1.25673
0.519471
0.519471
0.519474
0.519473
0.519466
0.519463
0.519462
0.519465
0.519463
0.519447
0.519426
0.519422
0.519422
0.519423
0.519424
0.519429
0.519431
0.51943
0.519431
0.519435
0.519438
0.519434
0.519431
0.519431
0.519437
0.519443
0.519444
0.519445
0.519449
0.519448
0.519451
0.519466
0.51947
0.519475
0.519489
0.519487
0.519482
0.519482
0.519487
0.519489
0.519492
0.519494
0.5195
0.51952
0.51954
0.519543
0.519544
0.519552
0.519604
0.519658
0.519659
0.519634
0.519601
0.519605
0.519615
0.51962
0.519641
0.519668
0.519655
0.519609
0.519572
0.519566
0.519579
0.51962
0.519642
0.519646
0.519673
0.519746
0.519892
0.52013
0.520201
0.520213
0.520199
0.520807
0.536145
0.615471
0.77359
0.990893
1.17401
1.24654
1.27838
1.27202
1.23699
1.23893
1.25462
1.26868
1.26736
1.25385
1.24294
1.24494
1.25618
1.2565
1.25234
1.24822
1.24933
1.25373
1.25565
1.25508
1.25635
1.25649
0.519413
0.519415
0.519418
0.519423
0.519422
0.519417
0.519414
0.519413
0.519414
0.519419
0.519414
0.519409
0.519408
0.519408
0.519409
0.519412
0.519414
0.519418
0.519424
0.519432
0.519443
0.519453
0.519466
0.519489
0.519515
0.519528
0.519535
0.51955
0.519571
0.519586
0.519607
0.519628
0.51963
0.519626
0.51961
0.519585
0.519563
0.519547
0.519535
0.519523
0.519511
0.519493
0.519474
0.519465
0.519458
0.519457
0.51947
0.519511
0.519591
0.519653
0.519671
0.519675
0.519662
0.519661
0.519664
0.519663
0.519668
0.519691
0.519686
0.519634
0.519545
0.519528
0.519539
0.519581
0.519649
0.519759
0.519867
0.519955
0.520126
0.520276
0.520279
0.520243
0.520194
0.520119
0.520019
0.519856
0.525848
0.576585
0.736078
0.931261
1.11064
1.17708
1.21829
1.24656
1.28203
1.28018
1.26232
1.24325
1.24375
1.25454
1.26205
1.25738
1.24852
1.24777
1.25261
1.25559
1.25416
1.25357
1.25639
1.2564
0.519389
0.519394
0.519398
0.519401
0.519403
0.519406
0.519408
0.519411
0.519413
0.519413
0.519413
0.519417
0.519427
0.519439
0.519454
0.51947
0.519486
0.519502
0.519517
0.519536
0.519557
0.519582
0.519609
0.519634
0.519659
0.519688
0.519698
0.5197
0.519699
0.5197
0.519708
0.519713
0.519713
0.519706
0.519682
0.519645
0.519613
0.519595
0.519577
0.519555
0.519523
0.519463
0.519418
0.519406
0.519397
0.519396
0.51942
0.519486
0.519583
0.519707
0.519759
0.519761
0.519721
0.519669
0.51966
0.519654
0.519651
0.519671
0.519682
0.519637
0.519534
0.519491
0.519506
0.519584
0.519719
0.519939
0.520045
0.520107
0.520243
0.520332
0.52032
0.520243
0.520058
0.519863
0.519731
0.519712
0.51973
0.519765
0.523377
0.562195
0.685663
0.906657
1.13716
1.22759
1.27206
1.26782
1.23822
1.24047
1.25672
1.26679
1.26296
1.24887
1.2461
1.25081
1.25623
1.25492
1.25145
1.25313
1.25695
1.25622
0.519417
0.51942
0.519423
0.519431
0.519437
0.519444
0.519452
0.519462
0.519473
0.519483
0.519491
0.519504
0.519515
0.519526
0.519541
0.519559
0.519577
0.519596
0.519619
0.51965
0.519682
0.519705
0.519721
0.519728
0.519735
0.51975
0.519748
0.519721
0.519705
0.519705
0.519716
0.519725
0.519724
0.519713
0.519681
0.519639
0.519612
0.519605
0.519594
0.519564
0.519509
0.51942
0.519383
0.51938
0.519396
0.519422
0.519455
0.519526
0.519675
0.519816
0.519833
0.519826
0.519753
0.519644
0.519623
0.519603
0.519583
0.519612
0.519689
0.51968
0.519571
0.519507
0.519562
0.519713
0.519929
0.520155
0.520173
0.520178
0.520275
0.520344
0.520318
0.520148
0.519868
0.519655
0.519624
0.51967
0.519809
0.519932
0.520054
0.520109
0.520971
0.551322
0.675092
0.883867
1.0964
1.16456
1.21911
1.24824
1.2797
1.27488
1.25175
1.24123
1.24595
1.25855
1.25848
1.25047
1.24939
1.25419
1.25806
1.25568
0.519555
0.519565
0.51956
0.519558
0.519565
0.519567
0.519568
0.519574
0.519582
0.519585
0.519585
0.519585
0.519588
0.519593
0.519596
0.519598
0.519605
0.519619
0.51964
0.519667
0.519699
0.519727
0.519734
0.519731
0.519731
0.519736
0.519711
0.519627
0.519576
0.519571
0.519592
0.519598
0.519589
0.519589
0.519592
0.519592
0.519574
0.519568
0.519586
0.519592
0.519547
0.519541
0.519549
0.519554
0.519555
0.519587
0.519632
0.519712
0.519865
0.519906
0.519904
0.519868
0.519691
0.519548
0.519533
0.51952
0.519504
0.519532
0.51969
0.51979
0.519757
0.519712
0.519768
0.519976
0.520203
0.520294
0.520269
0.520244
0.520302
0.52031
0.520211
0.519982
0.519726
0.519604
0.519614
0.519714
0.519959
0.520101
0.520193
0.520173
0.520071
0.519701
0.520048
0.551486
0.663912
0.892039
1.13646
1.22534
1.26756
1.25588
1.23221
1.2421
1.25828
1.26257
1.25345
1.24386
1.24777
1.25937
1.25877
1.25486
0.519678
0.519679
0.519677
0.519676
0.519675
0.519669
0.51966
0.519653
0.519649
0.519645
0.519633
0.51962
0.519616
0.519614
0.51961
0.519607
0.519604
0.519606
0.519628
0.51966
0.519671
0.519674
0.519683
0.519688
0.51967
0.51964
0.519583
0.51946
0.519397
0.519393
0.519433
0.519465
0.519475
0.519523
0.519579
0.519587
0.519596
0.519671
0.519734
0.519732
0.519724
0.519775
0.519775
0.519704
0.519666
0.519677
0.519701
0.51976
0.519905
0.519945
0.519925
0.519853
0.519636
0.519418
0.519392
0.519446
0.51948
0.519515
0.519704
0.520018
0.520113
0.520058
0.520045
0.520227
0.520388
0.520374
0.520326
0.520303
0.520269
0.520154
0.519985
0.519819
0.519697
0.519638
0.519689
0.519909
0.520139
0.520248
0.520237
0.520135
0.519785
0.519271
0.519008
0.519032
0.519547
0.550908
0.677871
0.896952
1.11563
1.16661
1.22343
1.25978
1.27127
1.26519
1.2392
1.24109
1.25566
1.26274
1.25701
1.25396
0.519693
0.519686
0.519677
0.519665
0.519647
0.51962
0.519587
0.51955
0.519511
0.519487
0.519481
0.519485
0.519489
0.519489
0.519489
0.519487
0.519496
0.519528
0.519566
0.519595
0.519608
0.519609
0.519609
0.519621
0.519611
0.519572
0.519512
0.519408
0.519348
0.519345
0.519389
0.519412
0.519409
0.519442
0.519521
0.5196
0.519736
0.519911
0.519955
0.519921
0.519904
0.519946
0.519925
0.519759
0.51967
0.519672
0.519688
0.519707
0.519807
0.51987
0.519881
0.519837
0.519633
0.519393
0.519316
0.519358
0.519506
0.519661
0.519905
0.52024
0.520401
0.520364
0.520308
0.520377
0.520435
0.520413
0.520305
0.520179
0.520018
0.519833
0.519756
0.519732
0.519747
0.519807
0.519943
0.520157
0.520299
0.520297
0.520237
0.519929
0.519391
0.519012
0.518968
0.519161
0.519914
0.520055
0.520729
0.558804
0.692593
0.938306
1.16796
1.23538
1.25907
1.24344
1.22917
1.24908
1.26493
1.26144
1.25279
1.25548
0.519438
0.519419
0.5194
0.519377
0.519368
0.51937
0.519367
0.519359
0.519348
0.519341
0.519352
0.519394
0.519439
0.519453
0.519449
0.519444
0.519471
0.519583
0.519637
0.519652
0.519672
0.519708
0.519741
0.519761
0.519776
0.5198
0.519825
0.519803
0.519706
0.519632
0.519641
0.519658
0.519619
0.519617
0.519689
0.519805
0.51995
0.520084
0.520116
0.520089
0.520005
0.520005
0.519984
0.5198
0.519625
0.51961
0.519632
0.519601
0.519635
0.519878
0.519954
0.519918
0.519769
0.519553
0.519467
0.519507
0.519709
0.519976
0.520245
0.520492
0.520605
0.520597
0.520512
0.520441
0.520435
0.52038
0.520188
0.519935
0.519705
0.519624
0.519662
0.51978
0.519962
0.520099
0.520234
0.520339
0.520351
0.520279
0.519997
0.519478
0.519066
0.51888
0.518987
0.519597
0.520232
0.52034
0.520215
0.519518
0.520499
0.570442
0.730608
0.956367
1.15525
1.19895
1.23032
1.27368
1.27195
1.24966
1.25012
1.2616
0.51929
0.519299
0.5193
0.519292
0.519295
0.519328
0.51938
0.519388
0.519392
0.519428
0.519535
0.519567
0.519569
0.519616
0.519677
0.519695
0.519751
0.519944
0.520097
0.520096
0.520082
0.520117
0.520161
0.520165
0.520193
0.520229
0.520184
0.52013
0.52008
0.51997
0.519876
0.519844
0.519813
0.519793
0.519845
0.519968
0.519983
0.519953
0.519923
0.519891
0.519762
0.51972
0.51973
0.519639
0.519414
0.519368
0.519391
0.519415
0.519487
0.519764
0.520036
0.520114
0.520117
0.520127
0.52005
0.51997
0.52001
0.520144
0.520379
0.520582
0.520686
0.520684
0.520604
0.520405
0.520239
0.520115
0.519936
0.519713
0.519542
0.51956
0.519673
0.519917
0.520151
0.520291
0.520352
0.520401
0.520209
0.519854
0.519354
0.518956
0.51876
0.518823
0.519333
0.520096
0.52034
0.520226
0.519585
0.518875
0.518852
0.519041
0.522659
0.588193
0.774756
1.03909
1.20165
1.26396
1.25416
1.23432
1.25477
1.26799
0.51919
0.519186
0.519191
0.519246
0.519323
0.519341
0.51934
0.519326
0.519336
0.5194
0.519602
0.519739
0.519748
0.519778
0.519852
0.519846
0.519843
0.519961
0.520179
0.520228
0.520249
0.520276
0.520285
0.520306
0.52038
0.520379
0.52027
0.520214
0.520213
0.520166
0.519994
0.519811
0.519798
0.519823
0.519764
0.519599
0.519425
0.519262
0.519122
0.51911
0.519165
0.519262
0.519308
0.519238
0.519191
0.519226
0.519295
0.519359
0.519515
0.519813
0.520085
0.520243
0.520278
0.520308
0.52033
0.520277
0.520211
0.52023
0.520423
0.520506
0.520427
0.520246
0.519998
0.519754
0.519625
0.519606
0.519564
0.519472
0.519415
0.519534
0.519774
0.520021
0.520206
0.520356
0.520347
0.520034
0.519401
0.518898
0.518548
0.518452
0.518507
0.518976
0.519816
0.520215
0.520105
0.519454
0.51866
0.518405
0.518536
0.519386
0.519947
0.51972
0.526943
0.618736
0.839545
1.09006
1.16796
1.22379
1.27901
1.27496
0.519269
0.519262
0.519255
0.519257
0.519296
0.519323
0.51932
0.519315
0.519317
0.519356
0.519494
0.519682
0.519725
0.519718
0.519736
0.519754
0.519737
0.51978
0.519881
0.519927
0.520012
0.520067
0.520065
0.520095
0.520147
0.520115
0.519958
0.519865
0.5198
0.519597
0.51941
0.519415
0.519368
0.519152
0.518845
0.518684
0.518606
0.518526
0.518501
0.518553
0.518776
0.519003
0.519012
0.518968
0.519011
0.519203
0.519364
0.519493
0.519593
0.519665
0.519803
0.520004
0.520171
0.520299
0.520325
0.520288
0.520104
0.519969
0.519888
0.519715
0.519449
0.51915
0.518975
0.518971
0.519034
0.519104
0.519122
0.519118
0.51917
0.519329
0.519499
0.519734
0.51982
0.519759
0.51956
0.519025
0.518422
0.518079
0.518021
0.518104
0.518651
0.5196
0.520141
0.519997
0.51924
0.51831
0.518008
0.518099
0.518911
0.519811
0.51978
0.519216
0.518454
0.518465
0.541461
0.663785
0.937231
1.16972
1.25947
1.26216
0.519498
0.519466
0.519401
0.519313
0.519228
0.519137
0.519004
0.518821
0.518684
0.518666
0.518671
0.518711
0.518796
0.518829
0.518849
0.518873
0.518862
0.518771
0.518699
0.518733
0.518806
0.518787
0.518742
0.51877
0.518794
0.518768
0.518707
0.518604
0.518444
0.518427
0.518465
0.518391
0.518354
0.518364
0.518215
0.518121
0.518163
0.518236
0.518282
0.518402
0.518709
0.519078
0.519123
0.519039
0.519043
0.519226
0.519408
0.51948
0.519555
0.519675
0.519848
0.519871
0.519843
0.519788
0.51971
0.519538
0.519382
0.519429
0.519474
0.5193
0.518916
0.518632
0.518595
0.518638
0.518748
0.518844
0.518952
0.519055
0.519243
0.519452
0.519632
0.519697
0.519616
0.519345
0.518978
0.518388
0.517992
0.517849
0.517956
0.518616
0.519769
0.520498
0.520291
0.519553
0.518364
0.517882
0.517978
0.518766
0.520001
0.520192
0.519788
0.518786
0.518365
0.518577
0.51908
0.519717
0.568017
0.758115
1.02743
1.18447
0.519474
0.519457
0.519369
0.519258
0.519177
0.519104
0.5189
0.518642
0.518475
0.518319
0.51828
0.518318
0.518348
0.518355
0.518427
0.518576
0.518628
0.518544
0.518476
0.518562
0.518621
0.518548
0.518489
0.518545
0.51866
0.518688
0.518681
0.518649
0.518585
0.518611
0.518725
0.518754
0.518746
0.518768
0.518767
0.518811
0.518953
0.519174
0.519527
0.520158
0.520807
0.520979
0.52091
0.520699
0.520709
0.520978
0.521065
0.521025
0.52088
0.520535
0.519971
0.519739
0.519641
0.519591
0.519516
0.519438
0.519475
0.519511
0.519499
0.519284
0.518975
0.51887
0.518897
0.519008
0.519257
0.519693
0.520159
0.520575
0.520919
0.52086
0.520448
0.519848
0.519339
0.518862
0.518543
0.518136
0.518078
0.518529
0.519587
0.520743
0.521481
0.521212
0.5204
0.519152
0.518181
0.518201
0.519479
0.52095
0.52142
0.520945
0.519915
0.518693
0.519381
0.5205
0.521148
0.520739
0.520668
0.529203
0.615059
0.970735
0.519475
0.519466
0.519374
0.519312
0.519324
0.519365
0.519366
0.519253
0.519078
0.518821
0.518536
0.518496
0.518482
0.518479
0.518595
0.518823
0.518862
0.518822
0.518895
0.519228
0.519384
0.519305
0.519139
0.5192
0.519559
0.519735
0.519717
0.519626
0.519691
0.520021
0.520532
0.520942
0.521308
0.521499
0.521584
0.521642
0.521659
0.521667
0.521884
0.522324
0.522548
0.522594
0.522475
0.521837
0.52128
0.521276
0.521342
0.521208
0.520874
0.520493
0.520152
0.519921
0.519832
0.519834
0.51987
0.519831
0.519819
0.519868
0.520084
0.520446
0.520707
0.520972
0.521273
0.521562
0.521879
0.521904
0.521885
0.521995
0.521976
0.521621
0.520843
0.520096
0.519427
0.518877
0.519018
0.519755
0.521271
0.52261
0.523494
0.523334
0.522784
0.521425
0.520402
0.519249
0.519736
0.521452
0.523455
0.523641
0.52326
0.522284
0.520536
0.521489
0.523193
0.523074
0.522452
0.521461
0.521946
0.5245
0.525424
0.640042
0.522607
0.522749
0.52289
0.523098
0.52363
0.524107
0.52426
0.524378
0.524345
0.524053
0.523696
0.523642
0.523644
0.523775
0.524097
0.524151
0.524133
0.524248
0.524681
0.524981
0.524996
0.524801
0.524608
0.524713
0.525169
0.525508
0.525742
0.525852
0.525819
0.525641
0.52532
0.5251
0.525153
0.52523
0.52521
0.525189
0.524947
0.524475
0.524249
0.524247
0.524253
0.524262
0.524235
0.524007
0.523943
0.523957
0.523758
0.523279
0.523234
0.523333
0.523448
0.523675
0.523856
0.523906
0.523823
0.523624
0.523605
0.523738
0.524121
0.524599
0.524965
0.525269
0.525396
0.525367
0.525161
0.5246
0.523994
0.523823
0.523674
0.523391
0.523021
0.522841
0.523009
0.523612
0.524562
0.525368
0.526279
0.526304
0.525929
0.524945
0.523549
0.521953
0.522078
0.523636
0.525619
0.527477
0.527019
0.526095
0.524487
0.52306
0.52447
0.527092
0.526833
0.525605
0.525668
0.526931
0.52843
0.529648
0.530333
0.534308
0.532768
0.532776
0.532687
0.532571
0.532539
0.532606
0.532697
0.532668
0.532501
0.531998
0.531069
0.530745
0.530787
0.53073
0.530319
0.530106
0.530043
0.529929
0.52968
0.52936
0.529052
0.528757
0.528736
0.528871
0.528927
0.528776
0.528633
0.528746
0.52871
0.528304
0.527569
0.526868
0.526365
0.526314
0.526337
0.526126
0.525341
0.524517
0.524326
0.524331
0.524422
0.52454
0.52453
0.52443
0.524455
0.524419
0.524177
0.524131
0.524299
0.524787
0.525391
0.526006
0.526566
0.527069
0.527368
0.527425
0.527454
0.527472
0.527578
0.527821
0.528245
0.528438
0.528235
0.527766
0.526978
0.526734
0.526629
0.526084
0.525634
0.525874
0.526957
0.528658
0.530137
0.530925
0.531125
0.53085
0.530078
0.529066
0.528062
0.527729
0.528451
0.530419
0.532684
0.534853
0.534625
0.533259
0.531464
0.530016
0.531264
0.534029
0.536614
0.53587
0.534727
0.535272
0.536096
0.536418
0.535878
0.5353
0.53699
0.542275
0.541824
0.541989
0.542152
0.542265
0.542344
0.542469
0.542714
0.542818
0.542778
0.542755
0.542749
0.542556
0.542422
0.542435
0.542649
0.542702
0.542713
0.542905
0.543237
0.543346
0.543415
0.543723
0.5439
0.543889
0.543984
0.544344
0.544834
0.545099
0.545217
0.545343
0.545492
0.545662
0.546037
0.546536
0.546703
0.546865
0.547117
0.547403
0.547673
0.548035
0.548694
0.549596
0.550336
0.550856
0.551242
0.551751
0.552456
0.552936
0.553109
0.55314
0.553151
0.553315
0.553747
0.553959
0.553908
0.553711
0.553378
0.552871
0.55217
0.551656
0.551597
0.551576
0.55132
0.550655
0.550523
0.550737
0.551329
0.551947
0.552238
0.552401
0.552569
0.552709
0.552746
0.552597
0.5521
0.551547
0.550899
0.550954
0.551304
0.552095
0.552918
0.553288
0.552896
0.551886
0.550601
0.549899
0.550569
0.552028
0.553641
0.553347
0.552259
0.550404
0.550513
0.551229
0.551168
0.551227
0.551975
0.55373
0.555207
0.558326
0.573579
0.573616
0.573668
0.573694
0.573653
0.573757
0.574216
0.574846
0.575056
0.575042
0.574936
0.574752
0.574679
0.574749
0.574815
0.57467
0.574355
0.574293
0.574285
0.574259
0.57423
0.574315
0.574536
0.574493
0.574521
0.574991
0.575486
0.575507
0.575389
0.575425
0.575708
0.576025
0.576126
0.576089
0.576051
0.575967
0.575692
0.575199
0.574456
0.573493
0.573192
0.572993
0.572458
0.571421
0.570678
0.570673
0.570757
0.570672
0.570215
0.569298
0.568132
0.566942
0.565598
0.564492
0.564297
0.56448
0.564717
0.564534
0.563672
0.562628
0.562048
0.5622
0.562604
0.563192
0.564
0.56505
0.565904
0.566404
0.566721
0.566614
0.566219
0.565556
0.564771
0.564129
0.563956
0.564046
0.564291
0.564578
0.564996
0.565149
0.564839
0.56437
0.563801
0.563422
0.563785
0.564576
0.565702
0.565589
0.564718
0.563472
0.562672
0.563172
0.56412
0.564843
0.564473
0.563989
0.564058
0.563827
0.564284
0.568777
0.603483
0.602769
0.602458
0.602368
0.602436
0.603055
0.603403
0.603508
0.603731
0.60363
0.602856
0.602475
0.60263
0.602656
0.60253
0.602115
0.601283
0.600861
0.600894
0.600802
0.600062
0.599543
0.599348
0.599036
0.598434
0.597772
0.597307
0.596874
0.596362
0.595731
0.595074
0.594558
0.594209
0.593869
0.593528
0.593544
0.594194
0.595111
0.595251
0.594802
0.594589
0.594637
0.594699
0.594597
0.594241
0.594199
0.594292
0.594252
0.593861
0.593647
0.593782
0.594054
0.594401
0.594893
0.595542
0.596494
0.597705
0.598093
0.597971
0.598004
0.59847
0.598895
0.598773
0.598295
0.597603
0.596899
0.596037
0.595202
0.594395
0.593537
0.59259
0.591707
0.590863
0.589884
0.589715
0.589893
0.589829
0.589451
0.588882
0.588246
0.587462
0.586583
0.586148
0.585813
0.585429
0.584718
0.583572
0.582663
0.581433
0.581547
0.5819
0.581533
0.580789
0.579879
0.57858
0.577395
0.577353
0.578083
0.579678
0.583617
0.637193
0.637725
0.637769
0.637553
0.637264
0.637231
0.637275
0.637463
0.637556
0.637518
0.637513
0.637604
0.63773
0.637842
0.638087
0.638247
0.638169
0.637701
0.637441
0.637426
0.637443
0.637479
0.637684
0.637994
0.637943
0.637539
0.637414
0.637474
0.637439
0.63685
0.636274
0.636304
0.63633
0.636069
0.635402
0.63524
0.635494
0.635497
0.634926
0.633956
0.633699
0.633826
0.63415
0.634169
0.633815
0.633469
0.633405
0.633171
0.632581
0.632102
0.631654
0.630957
0.629992
0.629002
0.628144
0.627312
0.626404
0.625399
0.624134
0.622779
0.621431
0.6199
0.61871
0.617856
0.61672
0.615074
0.613482
0.612367
0.61157
0.611419
0.611668
0.612216
0.612394
0.612408
0.612536
0.612465
0.612036
0.611123
0.610017
0.608935
0.608107
0.607162
0.60625
0.605745
0.605288
0.60465
0.603961