/*--------------------------------*- C++ -*----------------------------------*\
  =========                 |
  \\      /  F ield         | OpenFOAM: The Open Source CFD Toolbox
   \\    /   O peration     | Website:  https://openfoam.org
    \\  /    A nd           | Version:  7
     \\/     M anipulation  |
\*---------------------------------------------------------------------------*/
FoamFile
{
    version     2.0;
    format      ascii;
    class       volScalarField;
    location    "7.5";
    object      T;
}
// * * * * * * * * * * * * * * * * * * * * * * * * * * * * * * * * * * * * * //

dimensions      [0 0 0 1 0 0 0];

internalField   nonuniform List<scalar> 
8400
(
0.997827
1.17693
1.26855
1.3099
1.33889
1.36027
1.36902
1.37719
1.36625
1.34644
1.34457
1.3388
1.33135
1.34023
1.34976
1.34751
1.3426
1.33428
1.32131
1.30133
1.28155
1.2696
1.26552
1.26301
1.25962
1.25445
1.2521
1.25181
1.2486
1.23836
0.498607
0.500713
0.548518
0.669083
0.818109
0.984032
1.13623
1.24418
1.3456
1.42547
1.48968
1.54007
1.56058
1.5601
1.55081
1.53336
1.50604
1.47383
1.44246
1.41232
1.41231
1.41875
1.426
1.4225
1.41338
1.40022
1.38512
1.37093
1.36325
1.35417
0.477533
0.470654
0.463307
0.457513
0.451861
0.445533
0.439499
0.46729
0.606689
0.84535
1.04037
1.21765
1.3791
1.46594
1.51918
1.5679
1.57426
1.56505
1.54515
1.54586
1.5438
1.54327
1.54162
1.53626
1.53553
1.52983
1.51856
1.50462
1.493
1.47822
0.446382
0.442702
0.439354
0.437079
0.434514
0.432681
0.431567
0.431384
0.431739
0.430832
0.430661
0.431075
0.519226
0.700005
0.955796
1.17485
1.37291
1.51503
1.58711
1.62644
1.62173
1.61008
1.59765
1.58214
1.58118
1.57505
1.56749
1.55942
1.55191
1.5367
0.434356
0.433537
0.432065
0.430973
0.43009
0.43003
0.430773
0.431903
0.432663
0.43143
0.430879
0.432168
0.437707
0.444999
0.448962
0.450902
0.532289
0.773593
1.0757
1.27898
1.41867
1.49294
1.52078
1.53851
1.56043
1.5493
1.55004
1.55211
1.54798
1.53641
0.432694
0.432586
0.431335
0.430304
0.430558
0.431813
0.435375
0.442584
0.451044
0.452567
0.450796
0.451497
0.456682
0.467257
0.476961
0.481321
0.481735
0.4855
0.490221
0.540385
0.731774
0.961784
1.14685
1.27865
1.33984
1.3839
1.4294
1.45771
1.47079
1.46688
0.441613
0.443881
0.446657
0.450682
0.455195
0.460475
0.467293
0.472794
0.477992
0.483156
0.486327
0.488863
0.490441
0.493453
0.49916
0.499658
0.499452
0.502309
0.513654
0.521094
0.526819
0.531091
0.570812
0.715672
0.873964
1.04042
1.14928
1.2079
1.2621
1.32876
0.480797
0.485213
0.489872
0.494281
0.495671
0.494929
0.494368
0.494802
0.497199
0.503024
0.510597
0.512025
0.511982
0.513286
0.518676
0.525531
0.531908
0.539504
0.548804
0.555025
0.558726
0.562432
0.562297
0.563791
0.565159
0.60232
0.700437
0.841766
0.962431
1.12332
0.514923
0.519465
0.524428
0.527236
0.526803
0.523024
0.520209
0.52086
0.524886
0.534237
0.544545
0.551278
0.555275
0.558358
0.563554
0.569421
0.572445
0.576002
0.581453
0.582581
0.581638
0.579692
0.580729
0.584599
0.591077
0.594996
0.600502
0.603234
0.623367
0.815212
0.55701
0.562652
0.569353
0.574914
0.57717
0.577122
0.57552
0.575156
0.576979
0.582792
0.590406
0.594421
0.595123
0.595433
0.598059
0.599285
0.597951
0.597292
0.599783
0.60419
0.607013
0.609774
0.614613
0.620756
0.627012
0.630059
0.632095
0.631636
0.629856
0.631226
0.602116
0.606386
0.613851
0.62097
0.622583
0.621988
0.618368
0.613849
0.613078
0.614654
0.619989
0.624295
0.625755
0.62572
0.626059
0.628127
0.630309
0.631564
0.63349
0.638509
0.644277
0.647992
0.650054
0.651695
0.652027
0.651029
0.649164
0.647392
0.649263
0.655435
0.656499
0.656724
0.65812
0.661165
0.666196
0.669363
0.669547
0.66725
0.663936
0.663619
0.666003
0.670261
0.671234
0.671154
0.671373
0.673601
0.674736
0.674474
0.674207
0.675171
0.675956
0.675661
0.673897
0.671725
0.669051
0.669551
0.671039
0.674945
0.679679
0.683688
0.716197
0.712857
0.710353
0.71007
0.711723
0.715648
0.718382
0.718498
0.716218
0.71192
0.71009
0.711352
0.71241
0.711646
0.710011
0.709925
0.710049
0.70923
0.707534
0.706552
0.705981
0.705348
0.704982
0.705432
0.70688
0.708999
0.710815
0.711486
0.710503
0.707111
0.777136
0.776512
0.772851
0.766822
0.763131
0.762819
0.764641
0.766562
0.766512
0.764131
0.759711
0.757658
0.75751
0.757169
0.75434
0.752416
0.752083
0.751164
0.74897
0.747106
0.746258
0.746003
0.745438
0.744085
0.742436
0.739883
0.737157
0.733838
0.7306
0.727299
0.833723
0.83455
0.834067
0.831361
0.824213
0.818285
0.816109
0.816911
0.817558
0.816041
0.810469
0.805468
0.805525
0.805472
0.802541
0.796737
0.794339
0.793128
0.791108
0.788148
0.784575
0.781505
0.778571
0.77542
0.771883
0.768628
0.766186
0.763897
0.763844
0.76264
0.892009
0.893007
0.892371
0.889882
0.885195
0.877628
0.871563
0.869528
0.870516
0.869728
0.864263
0.855567
0.853965
0.853744
0.85118
0.844249
0.839557
0.83734
0.834548
0.83078
0.826125
0.821992
0.818932
0.815707
0.81186
0.808664
0.805232
0.801664
0.798354
0.792035
0.951503
0.951921
0.951037
0.948732
0.94535
0.938292
0.929296
0.924217
0.924617
0.92431
0.919565
0.908886
0.905008
0.904384
0.901578
0.894187
0.887699
0.883971
0.880409
0.875485
0.870101
0.864326
0.859639
0.855094
0.849786
0.844202
0.839046
0.833887
0.828851
0.820796
1.01002
1.01085
1.01202
1.01094
1.00646
0.998864
0.989386
0.981265
0.979951
0.979781
0.9755
0.963967
0.958294
0.956897
0.953426
0.945484
0.937947
0.932582
0.9277
0.921905
0.915262
0.908536
0.902274
0.896483
0.890353
0.883481
0.877293
0.871016
0.865503
0.85652
1.07608
1.07456
1.07385
1.07183
1.06769
1.06178
1.0528
1.04156
1.03964
1.03867
1.03336
1.0209
1.0132
1.01033
1.00597
0.998066
0.989856
0.982577
0.97572
0.969058
0.961809
0.954046
0.946376
0.939106
0.931677
0.923982
0.916454
0.908864
0.90194
0.890576
1.14706
1.14362
1.14064
1.13595
1.13072
1.12564
1.11859
1.10933
1.10333
1.09902
1.09293
1.08201
1.07323
1.0672
1.05974
1.05111
1.04293
1.03422
1.02544
1.0172
1.00913
1.00057
0.991636
0.982869
0.974422
0.965613
0.956821
0.948192
0.940366
0.927364
1.18374
1.18232
1.18042
1.17801
1.1757
1.17379
1.17109
1.16699
1.16211
1.15682
1.15134
1.14445
1.13518
1.12713
1.11931
1.11011
1.10051
1.09044
1.07979
1.06944
1.05918
1.04893
1.03889
1.02852
1.0184
1.00848
0.998551
0.988445
0.979581
0.964981
1.1838
1.18312
1.18253
1.18266
1.18287
1.18281
1.18226
1.18122
1.18081
1.18044
1.17975
1.17793
1.17486
1.17185
1.16813
1.16223
1.15479
1.14698
1.13778
1.12716
1.11582
1.1037
1.0913
1.07905
1.06661
1.05438
1.0427
1.03074
1.02022
1.00358
1.15833
1.15928
1.1611
1.16383
1.16856
1.17116
1.17178
1.17287
1.17487
1.17663
1.17637
1.17623
1.17705
1.1772
1.17652
1.17552
1.17482
1.17379
1.17188
1.16814
1.16244
1.15497
1.14561
1.13451
1.12181
1.10781
1.0935
1.07885
1.0657
1.0453
1.07768
1.08282
1.08746
1.09513
1.10245
1.10751
1.11381
1.12252
1.12952
1.13591
1.14149
1.14647
1.15251
1.16067
1.16333
1.16457
1.16731
1.17041
1.17041
1.17019
1.16982
1.16914
1.16773
1.16525
1.161
1.15408
1.14424
1.13152
1.11802
1.09418
1.0106
1.01261
1.01466
1.0172
1.02065
1.02447
1.02893
1.0345
1.04103
1.0481
1.05682
1.06609
1.07566
1.08699
1.09878
1.10955
1.11967
1.13058
1.1396
1.14785
1.15372
1.15858
1.16168
1.16301
1.16291
1.16259
1.1615
1.15895
1.15474
1.14034
1.00028
1.00036
1.00047
1.00061
1.00081
1.00108
1.00146
1.00199
1.00275
1.00382
1.00534
1.00752
1.01025
1.01426
1.01962
1.02689
1.03532
1.04623
1.0589
1.07309
1.08831
1.10262
1.11755
1.1294
1.14001
1.14798
1.15221
1.15538
1.15561
1.15415
1
1
1
1.00001
1.00001
1.00001
1.00002
1.00002
1.00004
1.00006
1.00009
1.00016
1.00025
1.00043
1.00073
1.00127
1.00213
1.0036
1.00609
1.00986
1.01593
1.02431
1.0358
1.05083
1.06739
1.08578
1.10368
1.11952
1.13156
1.14326
1
1
1
1
1
1
1
1
1
1
1
1
1
1
1.00001
1.00001
1.00003
1.00005
1.00011
1.00025
1.00053
1.00113
1.00232
1.00467
1.00893
1.01615
1.02722
1.04308
1.06042
1.09216
1
1
1
1
1
1
1
1
1
1
1
1
1
1
1
1
1
1
1
1
1
1.00001
1.00003
1.00008
1.00022
1.00059
1.00149
1.00366
1.00745
1.02334
1
1
1
1
1
1
1
1
1
1
1
1
1
1
1
1
1
1
1
1
1
1
1
1
1
1.00001
1.00002
1.00007
1.00019
1.00157
0.52273
0.509944
0.485489
0.450071
0.434855
0.432762
0.439767
0.476809
0.510377
0.552017
0.599925
0.65805
0.721573
0.777273
0.832281
0.890402
0.951869
1.01743
1.08858
1.15483
1.18489
1.18406
1.15466
1.06831
1.00816
1.00022
1
1
1
1
0.523732
0.511129
0.483644
0.445546
0.432366
0.434129
0.44444
0.482443
0.515238
0.558636
0.614651
0.678487
0.734208
0.787772
0.845864
0.911357
0.977775
1.04501
1.11205
1.16794
1.18665
1.18177
1.14019
1.05114
1.00449
1.00008
1
1
1
1
0.532442
0.518164
0.484369
0.441368
0.42826
0.435399
0.450341
0.488684
0.52403
0.574721
0.633628
0.687103
0.739699
0.797433
0.866727
0.933484
0.997145
1.06049
1.12534
1.17514
1.18749
1.17699
1.1258
1.03888
1.00268
1.00004
1
1
1
1
0.539845
0.521779
0.483039
0.436766
0.424741
0.437582
0.459535
0.500737
0.541526
0.588396
0.640838
0.691008
0.748704
0.819299
0.884659
0.945678
1.00713
1.07053
1.1364
1.18141
1.18824
1.174
1.11348
1.02856
1.00148
1.00002
1
1
1
1
0.545481
0.524286
0.482818
0.435787
0.423838
0.440838
0.465942
0.507565
0.549341
0.591717
0.643225
0.698814
0.7679
0.834573
0.893433
0.953259
1.01548
1.08167
1.14987
1.18721
1.18883
1.17278
1.09954
1.01881
1.00073
1.00001
1
1
1
1
0.549327
0.527536
0.484326
0.436303
0.423698
0.442153
0.467635
0.509001
0.551108
0.594909
0.646434
0.716912
0.785536
0.842926
0.900503
0.965354
1.03448
1.10436
1.16547
1.19025
1.18939
1.16371
1.07921
1.01107
1.00033
1
1
1
1
1
0.552344
0.531283
0.485502
0.437997
0.424053
0.441852
0.466328
0.507847
0.550365
0.602161
0.6679
0.73835
0.794718
0.851767
0.922456
0.993239
1.06035
1.12405
1.17481
1.1911
1.18699
1.14617
1.0604
1.00673
1.00016
1
1
1
1
1
0.553288
0.532927
0.485269
0.438732
0.42349
0.440558
0.464461
0.507394
0.555842
0.623267
0.690777
0.747157
0.804839
0.87662
0.947829
1.01157
1.07437
1.13614
1.18103
1.1914
1.18181
1.13473
1.04781
1.00407
1.00007
1
1
1
1
1
0.551948
0.532212
0.484155
0.435541
0.420027
0.440475
0.469299
0.525365
0.582702
0.638985
0.696754
0.753499
0.822525
0.897248
0.960382
1.02209
1.08615
1.14966
1.18757
1.19177
1.17853
1.12358
1.03414
1.00205
1.00003
1
1
1
1
1
0.54922
0.526819
0.477316
0.427264
0.418936
0.447261
0.487432
0.54332
0.594497
0.642324
0.698768
0.764903
0.845187
0.908786
0.969741
1.03532
1.105
1.16646
1.19247
1.19262
1.17716
1.1041
1.02075
1.00091
1.00001
1
1
1
1
1
0.54818
0.522733
0.466881
0.421067
0.420089
0.459185
0.498491
0.548311
0.596549
0.645584
0.704745
0.791104
0.859004
0.919376
0.990405
1.06382
1.12957
1.17851
1.19453
1.19327
1.16635
1.08041
1.01236
1.00042
1
1
1
1
1
1
0.54807
0.519089
0.458711
0.417545
0.422271
0.463759
0.50091
0.550692
0.595349
0.656485
0.738527
0.811526
0.873604
0.945358
1.02141
1.08674
1.14443
1.1853
1.19522
1.19049
1.14753
1.06239
1.00742
1.00019
1
1
1
1
1
1
0.547629
0.516478
0.452653
0.415385
0.423318
0.463666
0.501161
0.552612
0.611773
0.688307
0.76497
0.826633
0.896362
0.97507
1.04006
1.10152
1.15654
1.19113
1.19539
1.18445
1.13506
1.04744
1.00395
1.00008
1
1
1
1
1
1
0.5469
0.513338
0.448274
0.414067
0.425785
0.460478
0.504442
0.573379
0.645365
0.712459
0.775383
0.843308
0.924536
0.991055
1.05314
1.11768
1.17085
1.19547
1.19461
1.17952
1.12112
1.03153
1.00189
1.00003
1
1
1
1
1
1
0.545119
0.508939
0.445384
0.411831
0.429966
0.469847
0.530615
0.599984
0.663207
0.719249
0.78456
0.867013
0.940908
1.00465
1.07338
1.13997
1.18388
1.19711
1.19523
1.17505
1.09722
1.01846
1.00081
1.00001
1
1
1
1
1
1
0.544111
0.507073
0.445167
0.41029
0.433287
0.483703
0.545668
0.606673
0.66718
0.726338
0.802535
0.889886
0.957404
1.0301
1.10199
1.15854
1.19198
1.1976
1.19582
1.16094
1.07214
1.01018
1.00032
1
1
1
1
1
1
1
0.544458
0.507909
0.451665
0.412209
0.436511
0.487177
0.548319
0.609427
0.666334
0.743378
0.83915
0.910522
0.983947
1.0621
1.12295
1.17135
1.19606
1.19758
1.19018
1.1395
1.05268
1.00537
1.00013
1
1
1
1
1
1
1
0.547179
0.512033
0.458446
0.417566
0.438563
0.48831
0.54832
0.61441
0.69131
0.787599
0.862282
0.935238
1.01808
1.08411
1.13991
1.1821
1.19763
1.19775
1.1809
1.12277
1.03648
1.00256
1.00005
1
1
1
1
1
1
1
0.551674
0.515072
0.46034
0.418972
0.443345
0.498325
0.567599
0.649761
0.739139
0.813434
0.883531
0.966512
1.04074
1.10382
1.15837
1.1904
1.19857
1.1951
1.17338
1.10457
1.02216
1.00111
1.00002
1
1
1
1
1
1
1
0.562913
0.516217
0.458099
0.418257
0.456027
0.527286
0.603086
0.68741
0.759979
0.827358
0.90789
0.993827
1.06287
1.12872
1.17501
1.19589
1.19928
1.19388
1.16445
1.07841
1.01191
1.00043
1.00001
1
1
1
1
1
1
1
0.578137
0.514835
0.449333
0.419166
0.473648
0.553293
0.624835
0.700505
0.77019
0.848046
0.943368
1.02001
1.092
1.15136
1.18717
1.1991
1.19997
1.19468
1.14561
1.05293
1.00555
1.00014
1
1
1
1
1
1
1
1
0.586353
0.502093
0.436566
0.432957
0.491325
0.563913
0.632266
0.708775
0.786015
0.888901
0.974783
1.05036
1.12038
1.1682
1.1951
1.20058
1.20015
1.18523
1.1177
1.03281
1.00231
1.00004
1
1
1
1
1
1
1
1
0.588202
0.487823
0.424564
0.444652
0.490984
0.564373
0.635153
0.727279
0.838981
0.929273
1.00523
1.08308
1.14224
1.18153
1.19898
1.20087
1.19733
1.16692
1.09362
1.01935
1.00095
1.00001
1
1
1
1
1
1
1
1
0.589856
0.480702
0.417837
0.44777
0.488917
0.563779
0.669517
0.788463
0.882522
0.956656
1.03623
1.11058
1.16228
1.19127
1.20032
1.1999
1.19151
1.15399
1.07199
1.01015
1.00035
1
1
1
1
1
1
1
1
1
0.602366
0.479037
0.414828
0.4461
0.511335
0.619643
0.731244
0.827747
0.906055
0.986474
1.07207
1.1373
1.18008
1.1972
1.2006
1.19847
1.1863
1.13854
1.04725
1.00448
1.00011
1
1
1
1
1
1
1
1
1
0.609325
0.479009
0.4174
0.445911
0.551421
0.670386
0.763355
0.851586
0.935131
1.03028
1.10593
1.16182
1.19194
1.20042
1.20072
1.19927
1.18222
1.10895
1.02545
1.00159
1.00003
1
1
1
1
1
1
1
1
1
0.604929
0.471575
0.420313
0.483316
0.601797
0.694915
0.783877
0.883128
0.987169
1.07298
1.13653
1.17929
1.19834
1.20154
1.20127
1.19885
1.16297
1.0749
1.01192
1.00049
1.00001
1
1
1
1
1
1
1
1
1
0.590911
0.454912
0.420899
0.529291
0.620422
0.715268
0.821875
0.944342
1.03807
1.10737
1.16171
1.19072
1.20094
1.20173
1.2005
1.18706
1.13286
1.04917
1.00533
1.00015
1
1
1
1
1
1
1
1
1
1
0.5675
0.434643
0.431162
0.550308
0.644028
0.756289
0.894173
0.9998
1.07526
1.13749
1.18041
1.19773
1.20182
1.20115
1.19739
1.17417
1.11109
1.03052
1.00212
1.00004
1
1
1
1
1
1
1
1
1
1
0.545063
0.42529
0.458653
0.561222
0.692398
0.838403
0.951455
1.03933
1.11168
1.16463
1.1923
1.20152
1.20229
1.20013
1.19342
1.16383
1.08632
1.01484
1.00067
1.00001
1
1
1
1
1
1
1
1
1
1
0.5242
0.425068
0.489335
0.605238
0.76429
0.8944
0.996717
1.08269
1.14981
1.18331
1.19809
1.20314
1.20302
1.20086
1.19163
1.14446
1.05032
1.00528
1.00016
1
1
1
1
1
1
1
1
1
1
1
0.503874
0.443022
0.518952
0.685815
0.831683
0.947847
1.05099
1.12922
1.17669
1.19362
1.20062
1.20339
1.20363
1.20172
1.1822
1.10293
1.02353
1.00158
1.00003
1
1
1
1
1
1
1
1
1
1
1
0.503025
0.464087
0.564688
0.75403
0.896833
1.01333
1.10721
1.16304
1.19283
1.19814
1.2019
1.20255
1.20256
1.19553
1.15022
1.06694
1.01054
1.00043
1.00001
1
1
1
1
1
1
1
1
1
1
1
0.520884
0.504903
0.665999
0.832287
0.971015
1.08166
1.14934
1.18503
1.20107
1.19957
1.203
1.20158
1.19795
1.17984
1.12352
1.04225
1.00403
1.00011
1
1
1
1
1
1
1
1
1
1
1
1
0.435286
0.537276
0.75866
0.928145
1.05381
1.13333
1.17792
1.19788
1.2036
1.20029
1.20353
1.20181
1.19306
1.16593
1.0959
1.01991
1.0011
1.00002
1
1
1
1
1
1
1
1
1
1
1
1
0.105268
0.572072
0.851969
1.01822
1.11862
1.17067
1.19471
1.20325
1.20448
1.20031
1.2036
1.20282
1.19063
1.14608
1.05388
1.00609
1.00021
1
1
1
1
1
1
1
1
1
1
1
1
1
0.200412
0.721768
0.965382
1.10028
1.16372
1.19231
1.20193
1.20492
1.2047
1.19916
1.2023
1.2018
1.18353
1.1012
1.02104
1.00134
1.00003
1
1
1
1
1
1
1
1
1
1
1
1
1
0.382831
0.824081
1.0678
1.15935
1.1903
1.20102
1.20417
1.20522
1.20436
1.19796
1.19953
1.19213
1.14615
1.0568
1.00708
1.00024
1
1
1
1
1
1
1
1
1
1
1
1
1
1
0.679367
1.00081
1.15124
1.191
1.20069
1.20346
1.20463
1.20518
1.20301
1.19684
1.19737
1.17578
1.10884
1.02778
1.00177
1.00003
1
1
1
1
1
1
1
1
1
1
1
1
1
1
0.996745
1.14854
1.19281
1.20142
1.20313
1.20383
1.20443
1.20466
1.20179
1.19632
1.19764
1.1552
1.06492
1.00739
1.00019
1
1
1
1
1
1
1
1
1
1
1
1
1
1
1
1.2023
1.20254
1.20321
1.20366
1.20348
1.20366
1.20338
1.20425
1.20135
1.19657
1.18999
1.11262
1.01787
0.999767
0.999973
1
1
1
1
1
1
1
1
1
1
1
1
1
1
1
1.20164
1.20232
1.20344
1.20401
1.20334
1.20251
1.20257
1.20463
1.20355
1.19495
1.17716
1.09616
1.01803
1.00075
1.00001
1
1
1
1
1
1
1
1
1
1
1
1
1
1
1
1.20144
1.20219
1.20372
1.20445
1.20361
1.20191
1.202
1.2048
1.2042
1.19364
1.16176
1.0716
1.00673
1.0001
1
1
1
1
1
1
1
1
1
1
1
1
1
1
1
1
1.20141
1.20214
1.2038
1.20455
1.20374
1.20149
1.20135
1.20452
1.20457
1.19423
1.14751
1.04896
1.00295
1.00003
1
1
1
1
1
1
1
1
1
1
1
1
1
1
1
1
1.20142
1.20211
1.20379
1.20456
1.20393
1.20146
1.20095
1.20409
1.20427
1.18885
1.12525
1.02775
1.00107
1.00001
1
1
1
1
1
1
1
1
1
1
1
1
1
1
1
1
1.20188
1.20224
1.20353
1.20436
1.20404
1.20209
1.20137
1.20397
1.20278
1.17453
1.09861
1.01529
1.00039
1
1
1
1
1
1
1
1
1
1
1
1
1
1
1
1
1
1.20254
1.20249
1.20305
1.2036
1.20386
1.20318
1.20227
1.20385
1.20218
1.16321
1.0738
1.00716
1.00011
1
1
1
1
1
1
1
1
1
1
1
1
1
1
1
1
1
1.20292
1.20251
1.20244
1.20267
1.20364
1.20492
1.2032
1.2024
1.19906
1.14749
1.0466
1.00277
1.00003
1
1
1
1
1
1
1
1
1
1
1
1
1
1
1
1
1
1.20308
1.20235
1.20178
1.20168
1.20357
1.20616
1.20501
1.19898
1.18893
1.12359
1.02718
1.00102
1.00001
1
1
1
1
1
1
1
1
1
1
1
1
1
1
1
1
1
1.20312
1.20221
1.20139
1.20116
1.20298
1.20677
1.20683
1.19753
1.17899
1.09966
1.01447
1.00034
1
1
1
1
1
1
1
1
1
1
1
1
1
1
1
1
1
1
1.20306
1.20211
1.20128
1.20099
1.20258
1.20718
1.20734
1.19667
1.1674
1.06986
1.00616
1.00009
1
1
1
1
1
1
1
1
1
1
1
1
1
1
1
1
1
1
1.20288
1.20205
1.20149
1.20125
1.20247
1.2075
1.20743
1.19129
1.14611
1.04336
1.00241
1.00002
1
1
1
1
1
1
1
1
1
1
1
1
1
1
1
1
1
1
1.20247
1.20194
1.20206
1.2019
1.20246
1.20771
1.20771
1.1851
1.12038
1.02433
1.00079
1.00001
1
1
1
1
1
1
1
1
1
1
1
1
1
1
1
1
1
1
1.20188
1.20159
1.20268
1.20258
1.2021
1.20673
1.20796
1.17935
1.09082
1.01136
1.00023
1
1
1
1
1
1
1
1
1
1
1
1
1
1
1
1
1
1
1
1.20133
1.20095
1.20288
1.20373
1.20174
1.20423
1.20512
1.16328
1.05971
1.00435
1.00006
1
1
1
1
1
1
1
1
1
1
1
1
1
1
1
1
1
1
1
1.201
1.20025
1.20209
1.20494
1.2043
1.20157
1.19801
1.13864
1.03672
1.00163
1.00001
1
1
1
1
1
1
1
1
1
1
1
1
1
1
1
1
1
1
1
1.2008
1.19998
1.20061
1.20594
1.20941
1.20101
1.19096
1.1129
1.01841
1.00048
1
1
1
1
1
1
1
1
1
1
1
1
1
1
1
1
1
1
1
1
1.20073
1.19996
1.19966
1.20836
1.21191
1.20138
1.17886
1.07628
1.00725
1.00012
1
1
1
1
1
1
1
1
1
1
1
1
1
1
1
1
1
1
1
1
1.20068
1.19956
1.19915
1.21008
1.21312
1.1975
1.15263
1.04748
1.00272
1.00003
1
1
1
1
1
1
1
1
1
1
1
1
1
1
1
1
1
1
1
1
1.20043
1.19966
1.19895
1.21065
1.21384
1.19297
1.12588
1.02551
1.0008
1.00001
1
1
1
1
1
1
1
1
1
1
1
1
1
1
1
1
1
1
1
1
1.19923
1.2004
1.19962
1.21004
1.21451
1.18825
1.09048
1.01014
1.00019
1
1
1
1
1
1
1
1
1
1
1
1
1
1
1
1
1
1
1
1
1
1.19705
1.2006
1.20196
1.20812
1.21142
1.16387
1.05706
1.00377
1.00004
1
1
1
1
1
1
1
1
1
1
1
1
1
1
1
1
1
1
1
1
1
1.19567
1.2027
1.20933
1.20592
1.20436
1.13772
1.03215
1.00117
1.00001
1
1
1
1
1
1
1
1
1
1
1
1
1
1
1
1
1
1
1
1
1
1.19538
1.20644
1.21443
1.20631
1.19586
1.10189
1.01284
1.00027
1
1
1
1
1
1
1
1
1
1
1
1
1
1
1
1
1
1
1
1
1
1
1.19582
1.20964
1.21776
1.20644
1.17317
1.06194
1.00444
1.00006
1
1
1
1
1
1
1
1
1
1
1
1
1
1
1
1
1
1
1
1
1
1
1.19863
1.21166
1.21905
1.20032
1.14185
1.03488
1.00137
1.00001
1
1
1
1
1
1
1
1
1
1
1
1
1
1
1
1
1
1
1
1
1
1
1.20009
1.21154
1.21973
1.1952
1.10559
1.01409
1.0003
1
1
1
1
1
1
1
1
1
1
1
1
1
1
1
1
1
1
1
1
1
1
1
1.20126
1.21142
1.21929
1.17488
1.06371
1.0045
1.00006
1
1
1
1
1
1
1
1
1
1
1
1
1
1
1
1
1
1
1
1
1
1
1
1.21072
1.21226
1.21048
1.14004
1.03434
1.00135
1.00001
1
1
1
1
1
1
1
1
1
1
1
1
1
1
1
1
1
1
1
1
1
1
1
1.22814
1.20651
1.19776
1.10243
1.01354
1.0003
1
1
1
1
1
1
1
1
1
1
1
1
1
1
1
1
1
1
1
1
1
1
1
1
1.24499
1.1952
1.17035
1.05875
1.00414
1.00006
1
1
1
1
1
1
1
1
1
1
1
1
1
1
1
1
1
1
1
1
1
1
1
1
1.25683
1.18238
1.13088
1.03023
1.00127
1.00001
1
1
1
1
1
1
1
1
1
1
1
1
1
1
1
1
1
1
1
1
1
1
1
1
1.26218
1.16784
1.0885
1.01171
1.0003
1
1
1
1
1
1
1
1
1
1
1
1
1
1
1
1
1
1
1
1
1
1
1
1
1
1.25792
1.14373
1.05421
1.00432
1.00007
1
1
1
1
1
1
1
1
1
1
1
1
1
1
1
1
1
1
1
1
1
1
1
1
1
1.23786
1.11733
1.02972
1.00143
1.00002
1
1
1
1
1
1
1
1
1
1
1
1
1
1
1
1
1
1
1
1
1
1
1
1
1
1.22081
1.08963
1.01336
1.00037
1
1
1
1
1
1
1
1
1
1
1
1
1
1
1
1
1
1
1
1
1
1
1
1
1
1
1.19126
1.05552
1.00463
1.00007
1
1
1
1
1
1
1
1
1
1
1
1
1
1
1
1
1
1
1
1
1
1
1
1
1
1
1.14284
1.03213
1.00148
1.00001
1
1
1
1
1
1
1
1
1
1
1
1
1
1
1
1
1
1
1
1
1
1
1
1
1
1
1.09406
1.01319
1.00029
1
1
1
1
1
1
1
1
1
1
1
1
1
1
1
1
1
1
1
1
1
1
1
1
1
1
1
1.0377
1.00227
1.00002
1
1
1
1
1
1
1
1
1
1
1
1
1
1
1
1
1
1
1
1
1
1
1
1
1
1
1
1
1
1
1
1
1
1
1
1
1
1
1
1
1
1
1
1
1
1
1
1
1
1
1
1
1
1
1
1
1
1
1
1
1
1
1
1
1
1
1
1
1
1
1
1
1
1
1
1
1
1
1
1
1
1
1
1
1
1
1
1
1
1
1
1
1
1
1
1
1
1
1
1
1
1
1
1
1
1
1
1
1
1
1
1
1
1
1
1
1
1
1
1
1
1
1
1
1
1
1
1
1
1
1
1
1
1
1
1
1
1
1
1
1
1
1
1
1
1
1
1
1
1
1
1
1
1
1
1
1
1
1
1
1
1
1
1
1
1
1
1
1
1
1
1
1
1
1
1
1
1
1
1
1
1
1
1
1
1
1
1
1
1
1
1
1
1
1
1
1
1
1
1
1
1
1
1
1
1
1
1
1
1
1
1
1
1
1
1
1
1
1
1
1
1
1
1
1
1
1
1
1
1
1
1
1
1
1
1
1
1
1
1
1
1
1
1
1
1
1
1
1
1
1
1
1
1
1
1
1
1
1
1
1
1
1
1
1
1
1
1
1
1
1
1
1
1
1
1
1
1
1
1
1
1
1
1
1
1
1
1
1
1
1
1
1
1
1
1
1
1
1
1
1
1
1
1
1
1
1
1
1
1
1
1
1
1
1
1
1
1
1
1
1
1
1
1
1
1
1
1
1
1
1
1
1
1
1
1
1
1
1
1
1
1
1
1
1
1
1
1
1
1
1
1
1
1
1
1
1
1
1
1
1
1
1
1
1
1
1
1
1
1
1
1
1
1
1
1
1
1
1
1
1
1
1
1
1
1
1
1
1
1
1
1
1
1
1
1
1
1
1
1
1
1
1
1
1
1
1
1
1
1
1
1
1
1
1
1
1
1
1
1
1
1
1
1
1
1
1
1
1
1
1
1
1
1
1
1
1
1
1
1
1
1
1
1
1
1
1
1
1
1
1
1
1
1
1
1
1
1
1
1
1
1
1
1
1
1
1
1
1
1
1
1
1
1
1
1
1
1
1
1
1
1
1
1
1
1
1
1
1
1
1
1
1
1
1
1
1
1
1
1
1
1
1
1
1
1
1
1
1
1
1
1
1
1
1
1
1
1
1
1
1
1
1
1
1
1
1
1
1
1
1
1
1
1
1
1
1
1
1
1
1
1
1
1
1
1
1
1
1
1
1
1
1
1
1
1
1
1
1
1
1
1
1
1
1
1
1
1
1
1
1
1
1
1
1
1
1
1
1
1
1
1
1
1
1
1
1
1
1
1
1
1
1
1
1
1
1
1
1
1
1
1
1
1
1
1
1
1
1
1
1
1
1
1
1
1
1
1
1
1
1
1
1
1
1
1
1
1
1
1
1
1
1
1
1
1
1
1
1
1
1
1
1
1
1
1
1
1
1
1
1
1
1
1
1
1
1
1
1
1
1
1
1
1
1
1
1
1
1
1
1
1
1
1
1
1
1
1
1
1
1
1
1
1
1
1
1
1
1
1
1
1
1
1
1
1
1
1
1
1
1
1
1
1
1
1
1
1
1
1
1
1
1
1
1
1
1
1
1
1
1
1
1
1
1
1
1
1
1
1
1
1
1
1
1
1
1
1
1
1
1
1
1
1
1
1
1
1
1
1
1
1
1
1
1
1
1
1
1
1
1
1
1
1
1
1
1
1
1
1
1
1
1
1
1
1
1
1
1
1
1
1
1
1
1
1
1
1
1
1
1
1
1
1
1
1
1
1
1
1
1
1
1
1
1
1
1
1
1
1
1
1
1
1
1
1
1
1
1
1
1
1
1
1
1
1
1
1
1
1
1
1
1
1
1
1
1
1
1
1
1
1
1
1
1
1
1
1
1
1
1
1
1
1
1
1
1
1
1
1
1
1
1
1
1
1
1
1
1
1
1
1
1
1
1
1
1
1
1
1
1
1
1
1
1
1
1
1
1
1
1
1
1
1
1
1
1
1
1
1
1
1
1
1
1
1
1
1
1
1
1
1
1
1
1
1
1
1
1
1
1
1
1
1
1
1
1
1
1
1
1
1
1
1
1
1
1
1
1
1
1
1
1
1
1
1
1
1
1
1
1
1
1
1
1
1
1
1
1
1
1
1
1
1
1
1
1
1
1
1
1
1
1
1
1
1
1
1
1
1
1
1
1
1
1
1
1
1
1
1
1
1
1
1
1
1
1
1
1
1
1
1
1
1
1
1
1
1
1
1
1
1
1
1
1
1
1
1
1
1
1
1
1
1
1
1
1
1
1
1
1
1
1
1
1
1
1
1
1
1
1
1
1
1
1
1
1
1
1
1
1
1
1
1
1
1
1
1
1
1
1
1
1
1
1
1
1
1
1
1
1
1
1
1
1
1
1
1
1
1
1
1
1
1
1
1
1
1
1
1
1
1
1
1
1
1
1
1
1
1
1
1
1
1
1
1
1
1
1
1
1
1
1
1
1
1
1
1
1
1
1
1
1
1
1
1
1
1
1
1
1
1
1
1
1
1
1
1
1
1
1
1
1
1
1
1
1
1
1
1
1
1
1
1
1
1
1
1
1
1
1
1
1
1
1
1
1
1
1
1
1
1
1
1
1
1
1
1
1
1
1
1
1
1
1
1
1
1
1
1
1
1
1
1
1
1
1
1
1
1
1
1
1
1
1
1
1
1
1
1
1
1
1
1
1
1
1
1
1
1
1
1
1
1
1
1
1
1
1
1
1
1
1
1
1
1
1
1
1
1
1
1
1
1
1
1
1
1
1
1
1
1
1
1
1
1
1
1
1
1
1
1
1
1
1
1
1
1
1
1
1
1
1
1
1
1
1
1
1
1
1
1
1
1
1
1
1
1
1
1
1
1
1
1
1
1
1
1
1
1
1
1
1
1
1
1
1
1
1
1
1
1
1
1
1
1
1
1
1
1
1
1
1
1
1
1
1
1
1
1
1
1
1
1
1
1
1
1
1
1
1
1
1
1
1
1
1
1
1
1
1
1
1
1
1
1
1
1
1
1
1
1
1
1
1
1
1
1
1
1
1
1
1
1
1
1
1
1
1
1
1
1
1
1
1
1
1
1
1
1
1
1
1
1
1
1
1
1
1
1
1
1
1
1
1
1
1
1
1
1
1
1
1
1
1
1
1
1
1
1
1
1
1
1
1
1
1
1
1
1
1
1
1
1
1
1
1
1
1
1
1
1
1
1
1
1
1
1
1
1
1
1
1
1
1
1
1
1
1
1
1
1
1
1
1
1
1
1
1
1
1
1
1
1
1
1
1
1
1
1
1
1
1
1
1
1
1
1
1
1
1
1
1
1
1
1
1
1
1
1
1
1
1
1
1
1
1
1
1
1
1
1
1
1
1
1
1
1
1
1
1
1
1
1
1
1
1
1
1
1
1
1
1
1
1
1
1
1
1
1
1
1
1
1
1
1
1
1
1
1
1
1
1
1
1
1
1
1
1
1
1
1
1
1
1
1
1
1
1
1
1
1
1
1
1
1
1
1
1
1
1
1
1
1
1
1
1
1
1
1
1
1
1
1
1
1
1
1
1
1
1
1
1
1
1
1
1
1
1
1
1
1
1
1
1
1
1
1
1
1
1
1
1
1
1
1
1
1
1
1
1
1
1
1
1
1
1
1
1
1
1
1
1
1
1
1
1
1
1
1
1
1
1
1
1
1
1
1
1
1
1
1
1
1
1
1
1
1
1
1
1
1
1
1
1
1
1
1
1
1
1
1
1
1
1
1
1
1
1
1
1
1
1
1
1
1
1
1
1
1
1
1
1
1
1
1
1
1
1
1
1
1
1
1
1
1
1
1
1
1
1
1
1
1
1
1
1
1
1
1
1
1
1
1
1
1
1
1
1
1
1
1
1
1
1
1
1
1
1
1
1
1
1
1
1
1
1
1
1
1
1
1
1
1
1
1
1
1
1
1
1
1
1
1
1
1
1
1
1
1
1
1
1
1
1
1
1
1
1
1
1
1
1
1
1
1
1
1
1
1
1
1
1
1
1
1
1
1
1
1
1
1
1
1
1
1
1
1
1
1
1
1
1
1
1
1
1
1.10735
1
1
1
1
1
1
1
1
1
1
1
1
1
1
1
1
1
1
1
1
1
1
1
1
1
1
1
1
1
1.29036
0.999619
1
1
1
1
1
1
1
1
1
1
1
1
1
1
1
1
1
1
1
1
1
1
1
1
1
1
1
1
1.47831
1.03165
1
1
1
1
1
1
1
1
1
1
1
1
1
1
1
1
1
1
1
1
1
1
1
1
1
1
1
1
1.67913
1.1376
1
1
1
1
1
1
1
1
1
1
1
1
1
1
1
1
1
1
1
1
1
1
1
1
1
1
1
1
1.86262
1.35089
0.999572
1
1
1
1
1
1
1
1
1
1
1
1
1
1
1
1
1
1
1
1
1
1
1
1
1
1
1
2.01168
1.6047
1.04832
0.999938
1
1
1
1
1
1
1
1
1
1
1
1
1
1
1
1
1
1
1
1
1
1
1
1
1
1
2.10398
1.86681
1.483
1.00257
1
1
1
1
1
1
1
1
1
1
1
1
1
1
1
1
1
1
1
1
1
1
1
1
1
1
2.04319
1.91358
1.95856
1.31573
0.99967
1
1
1
1
1
1
1
1
1
1
1
1
1
1
1
1
1
1
1
1
1
1
1
1
1
1.94396
1.90266
2.03758
1.84282
1.11497
0.999845
1
1
1
1
1
1
1
1
1
1
1
1
1
1
1
1
1
1
1
1
1
1
1
1
1.88021
1.89273
2.01029
2.03838
1.54059
1.00403
1
1
1
1
1
1
1
1
1
1
1
1
1
1
1
1
1
1
1
1
1
1
1
1
1.85421
1.88004
1.97416
2.01609
1.86537
1.19357
0.999743
1
1
1
1
1
1
1
1
1
1
1
1
1
1
1
1
1
1
1
1
1
1
1
1.8409
1.87222
1.9402
1.97603
1.99234
1.54011
1.00965
1
1
1
1
1
1
1
1
1
1
1
1
1
1
1
1
1
1
1
1
1
1
1
1.83469
1.86649
1.91509
1.96875
2.01699
1.83865
1.18278
0.999738
1
1
1
1
1
1
1
1
1
1
1
1
1
1
1
1
1
1
1
1
1
1
1.8358
1.86494
1.90777
1.96737
2.01007
1.96054
1.52112
1.00892
1
1
1
1
1
1
1
1
1
1
1
1
1
1
1
1
1
1
1
1
1
1
1.84076
1.86715
1.90994
1.96358
1.99778
1.96097
1.74139
1.12419
0.999977
1
1
1
1
1
1
1
1
1
1
1
1
1
1
1
1
1
1
1
1
1
1.84891
1.87295
1.91426
1.95825
1.98048
1.95854
1.87226
1.37202
0.99983
1
1
1
1
1
1
1
1
1
1
1
1
1
1
1
1
1
1
1
1
1
1.85795
1.87904
1.91618
1.95578
1.96936
1.95882
1.93467
1.65541
1.05919
1
1
1
1
1
1
1
1
1
1
1
1
1
1
1
1
1
1
1
1
1
1.86612
1.88411
1.91708
1.95433
1.96358
1.9597
1.9446
1.80501
1.27083
0.999611
1
1
1
1
1
1
1
1
1
1
1
1
1
1
1
1
1
1
1
1
1.87229
1.88793
1.91843
1.95529
1.96568
1.96254
1.94625
1.87028
1.49265
1.01193
1
1
1
1
1
1
1
1
1
1
1
1
1
1
1
1
1
1
1
1
1.87551
1.89005
1.91901
1.9566
1.9707
1.96517
1.95019
1.91076
1.71968
1.12884
0.999816
1
1
1
1
1
1
1
1
1
1
1
1
1
1
1
1
1
1
1
1.87819
1.89175
1.91957
1.95696
1.97423
1.96748
1.95289
1.93043
1.83589
1.38008
1.00111
1
1
1
1
1
1
1
1
1
1
1
1
1
1
1
1
1
1
1
1.88161
1.89297
1.92122
1.95774
1.97487
1.96964
1.9567
1.93815
1.88046
1.58409
1.03883
1
1
1
1
1
1
1
1
1
1
1
1
1
1
1
1
1
1
1
1.88526
1.89336
1.92283
1.9575
1.97432
1.9714
1.96154
1.94437
1.90787
1.7703
1.20251
0.999685
1
1
1
1
1
1
1
1
1
1
1
1
1
1
1
1
1
1
1.88632
1.89318
1.92257
1.95601
1.97277
1.97174
1.96269
1.94428
1.91898
1.86322
1.46933
1.00823
1
1
1
1
1
1
1
1
1
1
1
1
1
1
1
1
1
1
1.88626
1.89292
1.92141
1.95331
1.97066
1.97167
1.96297
1.94547
1.92796
1.88713
1.65586
1.08048
1
1
1
1
1
1
1
1
1
1
1
1
1
1
1
1
1
1
1.8858
1.89283
1.92005
1.95097
1.96912
1.97168
1.9638
1.94908
1.93375
1.90449
1.81674
1.28512
0.999574
1
1
1
1
1
1
1
1
1
1
1
1
1
1
1
1
1
1.8848
1.89324
1.91943
1.94944
1.96776
1.97127
1.96477
1.95148
1.93535
1.91347
1.8933
1.56112
1.02446
1
1
1
1
1
1
1
1
1
1
1
1
1
1
1
1
1
1.884
1.89377
1.91876
1.94761
1.96589
1.97024
1.96447
1.95126
1.93527
1.92003
1.90141
1.72216
1.14381
0.999785
1
1
1
1
1
1
1
1
1
1
1
1
1
1
1
1
1.88405
1.89446
1.91802
1.94655
1.96412
1.96869
1.9638
1.95077
1.93489
1.92284
1.90682
1.85391
1.37275
1.00163
1
1
1
1
1
1
1
1
1
1
1
1
1
1
1
1
1.88524
1.89539
1.91797
1.94608
1.96304
1.96704
1.96259
1.95
1.93458
1.9217
1.91043
1.91611
1.64236
1.05229
1
1
1
1
1
1
1
1
1
1
1
1
1
1
1
1
1.88752
1.89663
1.91796
1.94546
1.96235
1.96567
1.96143
1.9487
1.9344
1.9216
1.91118
1.91785
1.77589
1.21667
0.999662
1
1
1
1
1
1
1
1
1
1
1
1
1
1
1
1.8896
1.89766
1.91778
1.94456
1.96147
1.96478
1.96081
1.94813
1.93472
1.92267
1.91231
1.91234
1.87153
1.44181
1.00626
1
1
1
1
1
1
1
1
1
1
1
1
1
1
1
1.89067
1.89831
1.91721
1.94352
1.96055
1.96417
1.96075
1.94822
1.93518
1.92338
1.91416
1.91245
1.92547
1.69767
1.08498
0.999886
1
1
1
1
1
1
1
1
1
1
1
1
1
1
1.89091
1.89841
1.9162
1.9423
1.95953
1.96358
1.9608
1.94876
1.93588
1.9243
1.91597
1.9127
1.9289
1.81174
1.2835
1.0003
1
1
1
1
1
1
1
1
1
1
1
1
1
1
1.8907
1.89855
1.91526
1.94089
1.95827
1.96294
1.96095
1.9497
1.93674
1.92563
1.91759
1.91187
1.92134
1.8761
1.49411
1.01427
1
1
1
1
1
1
1
1
1
1
1
1
1
1
1.89034
1.89875
1.91515
1.93989
1.95738
1.96244
1.96136
1.95108
1.93749
1.92679
1.91931
1.91194
1.91738
1.92596
1.73231
1.11754
0.999816
0.999999
1
1
1
1
1
1
1
1
1
1
1
1
1.89033
1.89893
1.91534
1.93931
1.95693
1.9622
1.96168
1.95244
1.93805
1.92705
1.92052
1.91436
1.91788
1.9333
1.83811
1.33877
1.00184
1
1
1
1
1
1
1
1
1
1
1
1
1
1.8911
1.89935
1.91591
1.93902
1.95646
1.96195
1.96177
1.95346
1.93855
1.92716
1.92096
1.91635
1.91747
1.93145
1.88248
1.53496
1.02353
0.999962
1
1
1
1
1
1
1
1
1
1
1
1
1.89225
1.89973
1.91624
1.93865
1.95555
1.96122
1.9615
1.95433
1.93975
1.92734
1.9212
1.91722
1.91558
1.92326
1.92058
1.76326
1.16044
1.00039
1
1
1
1
1
1
1
1
1
1
1
1
1.89511
1.90462
1.92231
1.94321
1.9575
1.96149
1.9611
1.95427
1.93839
1.92626
1.92056
1.9174
1.91532
1.92334
1.93183
1.84187
1.33436
0.988782
0.999895
1
1
1
1
1
1
1
1
1
1
1
1.54255
1.74778
1.83465
1.89252
1.9295
1.9494
1.95652
1.95386
1.94519
1.93224
1.9229
1.91964
1.91628
1.91979
1.9317
1.8977
1.66711
1.11614
1.00161
1.00001
1
1
1
1
1
1
1
1
1
1
1.16223
1.52657
1.68697
1.78499
1.85805
1.90236
1.93138
1.94272
1.94097
1.93301
1.92385
1.92016
1.91911
1.9184
1.92723
1.92631
1.88266
1.45116
1.03417
1.00031
1
1
1
1
1
1
1
1
1
1
0.904273
1.33156
1.5236
1.65102
1.75583
1.82696
1.87618
1.90932
1.92319
1.92407
1.91969
1.91725
1.91848
1.91725
1.92124
1.93227
1.91986
1.73022
1.19977
1.00513
1.00003
1
1
1
1
1
1
1
1
1
0.89259
1.21884
1.38681
1.52266
1.63184
1.73857
1.80092
1.85495
1.88672
1.90081
1.90525
1.90709
1.91187
1.91588
1.91677
1.93032
1.93717
1.88876
1.5048
1.05122
1.00055
1
1
1
1
1
1
1
1
1
0.905009
1.1109
1.2693
1.41855
1.52519
1.63721
1.72712
1.7823
1.836
1.86457
1.87795
1.88756
1.89646
1.90746
1.91243
1.92612
1.94003
1.93764
1.75053
1.22539
1.00654
1.00003
1
1
1
1
1
1
1
1
0.933183
1.01715
1.15853
1.32069
1.44824
1.53345
1.64782
1.71904
1.7724
1.81758
1.84299
1.85764
1.87318
1.8891
1.90179
1.91742
1.93771
1.93565
1.9115
1.55088
1.06382
1.00071
1
1
1
1
1
1
1
1
1.0148
1.0101
1.06901