/*--------------------------------*- C++ -*----------------------------------*\
  =========                 |
  \\      /  F ield         | OpenFOAM: The Open Source CFD Toolbox
   \\    /   O peration     | Website:  https://openfoam.org
    \\  /    A nd           | Version:  7
     \\/     M anipulation  |
\*---------------------------------------------------------------------------*/
FoamFile
{
    version     2.0;
    format      ascii;
    class       volScalarField;
    location    "4";
    object      p;
}
// * * * * * * * * * * * * * * * * * * * * * * * * * * * * * * * * * * * * * //

dimensions      [1 -1 -2 0 0 0 0];

internalField   nonuniform List<scalar> 
1750
(
0.206226
0.373905
0.504844
0.523609
0.56697
0.60479
0.67559
0.707647
0.719961
0.759662
0.0185847
0.0658924
0.258857
0.48742
0.679514
0.759585
0.817936
0.759355
0.747073
0.778254
0.0197667
0.0242501
0.0284401
0.0975786
0.23232
0.450142
0.602198
0.684124
0.719084
0.784812
0.0271682
0.0358371
0.0497757
0.0634583
0.0663917
0.0863843
0.144457
0.269171
0.384893
0.563954
0.0636919
0.0717897
0.088873
0.0982976
0.101067
0.10261
0.113062
0.122487
0.12818
0.210002
0.130937
0.133144
0.140702
0.153069
0.155745
0.161159
0.175096
0.189797
0.194087
0.20244
0.252799
0.252556
0.251899
0.254181
0.26086
0.268894
0.269132
0.266946
0.263854
0.254328
0.464699
0.444247
0.43155
0.417777
0.400707
0.385669
0.374067
0.36339
0.354933
0.343617
0.779384
0.74012
0.699863
0.664976
0.630115
0.593587
0.562679
0.534694
0.513108
0.479256
1.02585
1.00361
0.973312
0.939012
0.899264
0.855049
0.809165
0.762135
0.718675
0.650398
1.0718
1.06958
1.06602
1.06048
1.0509
1.03568
1.01351
0.982486
0.946865
0.87347
1.05083
1.05484
1.0579
1.05917
1.05897
1.05845
1.05715
1.05371
1.04744
1.02117
1.01229
1.01632
1.02136
1.02738
1.03341
1.03869
1.04358
1.04746
1.04726
1.04348
1.00063
1.00107
1.00186
1.00315
1.00528
1.00828
1.01239
1.01766
1.02359
1.02959
1.00001
1.00002
1.00004
1.00008
1.00019
1.0004
1.00085
1.00174
1.00326
1.0077
0.0242423
0.0184342
0.017557
0.0233238
0.0605915
0.129341
0.252759
0.482623
0.812026
1.04116
1.07267
1.04675
1.00889
1.0004
1.00001
0.0270398
0.0173371
0.0179522
0.0331266
0.081802
0.167014
0.320446
0.594121
0.924392
1.07352
1.07365
1.03621
1.0045
1.00014
1
0.0280574
0.0154882
0.0192006
0.0435342
0.0936976
0.188222
0.37901
0.696322
0.996538
1.08304
1.07195
1.02623
1.00245
1.00006
1
0.024807
0.0142251
0.021275
0.0512955
0.107261
0.22656
0.480777
0.812035
1.04697
1.08695
1.06368
1.01799
1.0012
1.00003
1
0.0217957
0.0129358
0.0235508
0.0558628
0.130959
0.315181
0.591494
0.908095
1.07847
1.0882
1.05519
1.01086
1.0005
1.00001
1
0.0196787
0.0138239
0.0290218
0.0733294
0.187088
0.406838
0.705946
0.997609
1.09562
1.08847
1.04153
1.00532
1.00019
1
1
0.0161109
0.0184361
0.0324746
0.1012
0.263601
0.510013
0.839941
1.06741
1.10217
1.08121
1.02595
1.00234
1.00007
1
1
0.0108625
0.0181646
0.0500442
0.15068
0.35888
0.657624
0.968074
1.10193
1.10363
1.0657
1.01423
1.00087
1.00002
1
1
0.00518074
0.0151973
0.0806984
0.232022
0.484876
0.823027
1.05722
1.11376
1.10268
1.04505
1.00648
1.00027
1.00001
1
1
0.00252415
0.0240103
0.129672
0.352896
0.668553
0.965547
1.10731
1.11678
1.08373
1.02612
1.00248
1.00008
1
1
1
0.00282738
0.0616309
0.22397
0.514329
0.856931
1.073
1.12532
1.11574
1.06204
1.01232
1.00074
1.00002
1
1
1
0.00307966
0.115262
0.391235
0.748503
1.01603
1.1259
1.12874
1.09794
1.03521
1.00421
1.00019
1
1
1
1
0.0278759
0.240587
0.638021
0.957967
1.11424
1.13981
1.12721
1.06992
1.01513
1.00116
1.00004
1
1
1
1
0.146473
0.523361
0.907034
1.09098
1.1494
1.1427
1.10171
1.03487
1.00453
1.00023
1.00001
1
1
1
1
0.530414
0.891483
1.09356
1.14665
1.15549
1.1286
1.06153
1.01242
1.00095
1.00003
1
1
1
1
1
1.14986
1.15333
1.156
1.15356
1.14866
1.08792
1.02216
1.00154
1.00002
1
1
1
1
1
1
1.14974
1.1548
1.15768
1.14994
1.1373
1.07555
1.02133
1.00236
1.0001
1
1
1
1
1
1
1.15047
1.15848
1.16061
1.1503
1.12145
1.05036
1.00754
1.00035
1.00001
1
1
1
1
1
1
1.15033
1.16032
1.16115
1.14541
1.09754
1.03041
1.00321
1.00013
1
1
1
1
1
1
1
1.1495
1.16086
1.16038
1.1333
1.07167
1.01578
1.00116
1.00003
1
1
1
1
1
1
1
1.1512
1.16124
1.15714
1.11336
1.04762
1.00709
1.00036
1.00001
1
1
1
1
1
1
1
1.16176
1.16155
1.1534
1.09029
1.02493
1.00249
1.00009
1
1
1
1
1
1
1
1
1.17698
1.15183
1.13334
1.05839
1.0117
1.00084
1.00002
1
1
1
1
1
1
1
1
1.19015
1.13919
1.10293
1.03503
1.00462
1.00022
1.00001
1
1
1
1
1
1
1
1
1.19796
1.12606
1.06974
1.01626
1.00147
1.00005
1
1
1
1
1
1
1
1
1
1.19756
1.10175
1.04125
1.00645
1.00038
1.00001
1
1
1
1
1
1
1
1
1
1.17178
1.07375
1.02076
1.00213
1.00008
1
1
1
1
1
1
1
1
1
1
1.14108
1.04697
1.00802
1.00048
1.00001
1
1
1
1
1
1
1
1
1
1
1.09769
1.0213
1.00201
1.00007
1
1
1
1
1
1
1
1
1
1
1
1.04342
1.00597
1.00029
1.00001
1
1
1
1
1
1
1
1
1
1
1
1
1
1
1
1
1
1
1
1
1
1
1
1
1
1
1
1
1
1
1
1
1
1
1
1
1
1
1
1
1
1
1
1
1
1
1
1
1
1
1
1
1
1
1
1
1
1
1
1
1
1
1
1
1
1
1
1
1
1
1
1
1
1
1
1
1
1
1
1
1
1
1
1
1
1
1
1
1
1
1
1
1
1
1
1
1
1
1
1
1
1
1
1
1
1
1
1
1
1
1
1
1
1
1
1
1
1
1
1
1
1
1
1
1
1
1
1
1
1
1
1
1
1
1
1
1
1
1
1
1
1
1
1
1
1
1
1
1
1
1
1
1
1
1
1
1
1
1
1
1
1
1
1
1
1
1
1
1
1
1
1
1
1
1
1
1
1
1
1
1
1
1
1
1
1
1
1
1
1
1
1
1
1
1
1
1
1
1
1
1
1
1
1
1
1
1
1
1
1
1
1
1
1
1
1
1
1
1
1
1
1
1
1
1
1
1
1
1
1
1
1
1
1
1
1
1
1
1
1
1
1
1
1
1
1
1
1
1
1
1
1
1
1
1
1
1
1
1
1
1
1
1
1
1
1
1
1
1
1
1
1
1
1
1
1
1
1
1
1
1
1
1
1
1
1
1
1
1
1
1
1
1
1
1
1
1
1
1
1
1
1
1
1
1
1
1
1
1
1
1
1
1
1
1
1
1
1
1
1
1
1
1
1
1
1
1
1
1
1
1
1
1
1
1
1
1
1
1
1
1
1
1
1
1
1
1
1
1
1
1
1
1
1
1
1
1
1
1
1
1
6.28416
2.91749
0.999993
1
1
1
1
1
1
1
1
1
1
1
1
1
1
1
1
1
10.3935
8.21469
5.75013
1.66613
0.999997
1
1
1
1
1
1
1
1
1
1
1
1
1
1
1
8.7816
7.93291
8.28131
6.74451
2.33119
0.998868
1
1
1
1
1
1
1
1
1
1
1
1
1
1
8.11449
7.84946
8.02044
7.9984
6.88248
2.5926
0.998019
1
1
1
1
1
1
1
1
1
1
1
1
1
7.97281
7.87085
7.95307
7.85689
7.84321
6.82813
2.49378
0.997373
1
1
1
1
1
1
1
1
1
1
1
1
7.91577
7.83444
7.82461
7.73035
7.67059
7.6503
6.56005
2.17933
0.996962
1.00001
1
1
1
1
1
1
1
1
1
1
7.85483
7.76604
7.72635
7.63736
7.59224
7.47734
7.20309
5.15433
1.46356
0.998425
1
1
1
1
1
1
1
1
1
1
7.75563
7.65374
7.60588
7.53878
7.50191
7.39151
7.31544
7.08672
3.80368
1.09109
0.999999
1
1
1
1
1
1
1
1
1
7.62081
7.53126
7.4963
7.44824
7.40657
7.3264
7.24145
7.26901
6.3406
2.39678
0.996976
1.00001
1
1
1
1
1
1
1
1
7.49272
7.41842
7.39073
7.35273
7.31255
7.27026
7.22082
7.21403
6.98937
4.71038
1.31647
0.998738
1
1
1
1
1
1
1
1
7.37694
7.31394
7.29087
7.25884
7.22211
7.19311
7.16678
7.10317
7.12512
6.78118
3.03103
1.02541
1
1
1
1
1
1
1
1
7.28478
7.22634
7.21232
7.18031
7.14425
7.11168
7.09481
7.04578
7.02579
6.87295
5.17741
1.57946
0.997727
1.00001
1
1
1
1
1
1
7.20913
7.14861
7.14084
7.11952
7.08609
7.04308
7.03421
6.96825
6.92803
6.81241
6.45187
3.18324
1.04461
0.999859
1
1
1
1
1
1
7.14938
7.08292
7.07146
7.05358
7.03119
6.99102
6.96824
6.91101
6.86776
6.77309
6.81843
5.18472
1.64682
1.00086
1
1
1
1
1
1
7.06848
7.0121
7.00257
6.97495
6.94457
6.90825
6.88201
6.85924
6.82117
6.76126
6.78856
6.14258
2.79439
0.95696
0.999611
1
1
1
1
1
2.31772
3.63645
4.32698
4.87264
5.32426
5.62597
5.8867
6.09201
6.27112
6.36489
6.52269
6.53476
5.62444
2.19218
1.05204
1.00046
1
1
1
1
0.669517
1.91635
2.6206
3.19846
3.74831
4.27098
4.68043
5.07205
5.38364
5.62115
5.92748
6.25577
6.19629
4.71975
1.76628
1.02529
1.00019
1
1
1
0.551729
1.16823
1.69371
2.24855
2.70079
3.22272
3.67413
4.14794
4.5383
4.8701
5.20971
5.65477
5.92041
5.67955
3.61989
1.34297
1.00662
1.00004
1
1
0.641758
0.909999
1.09406
1.54809
2.04223
2.46595
2.93377
3.337
3.81193
4.19914
4.58886
5.01028
5.4322
5.46789
4.88255
2.39524
1.08504
1.00085
1
1
0.811109
0.804871
0.826733
1.10958
1.49599
1.89085
2.34574
2.71522
3.15849
3.58101
4.01731
4.36372
4.80997
5.14792
5.13975
3.74484
1.48865
1.01177
1.00007
1
0.902695
0.807724
0.793427
0.975142
1.20531
1.51844
1.8633
2.27482
2.60419
3.05963
3.48013
3.8512
4.18198
4.68947
5.01866
4.65633
2.46126
1.10124
1.0011
1
0.887163
0.806871
0.797959
0.882355
1.01391
1.30161
1.57491
1.94554
2.26314
2.66201
3.06797
3.46099
3.73753
4.17077
4.72379
4.66342
3.44652
1.44733
1.01059
1.00006
0.876766
0.833177
0.810326
0.826376
0.846344
1.04889
1.32212
1.64368
1.99142
2.30452
2.70789
3.07709
3.43154
3.78554
4.30377
4.5598
4.12324
2.15192
1.07125
1.00065
0.899115
0.883797
0.856059
0.821744
0.807561
0.914422
1.10871
1.33822
1.70578
1.99784
2.35206
2.65392
3.06134
3.42304
3.89749
4.37025
4.2595
2.91725
1.27188
1.00522
0.92733
0.907709
0.873399
0.828021
0.815256
0.894139
1.01162
1.19656
1.4796
1.7899
2.06291
2.36694
2.69058
3.06313
3.47401
4.04925
4.1932
3.56974
1.6885
1.02671
0.921819
0.899543
0.864009
0.820513
0.820623
0.852825
0.930681
1.11686
1.32872
1.63029
1.90072
2.18942
2.47765
2.82963
3.19875
3.71392
4.04151
3.7946
2.26474
1.10529
0.897867
0.874816
0.845374
0.822862
0.818504
0.823441
0.847459
0.998549
1.16432
1.44284
1.71646
1.98805
2.28421
2.6052
2.94106
3.39053
3.86324
3.75761
2.68831
1.28445
0.867362
0.85423
0.850561
0.841811
0.827455
0.814035
0.81643
0.910097
1.04458
1.21803
1.4853
1.73355
2.03611
2.35376
2.65044
3.04229
3.596
3.69345
3.09323
1.60506
0.839807
0.843607
0.863443
0.863261
0.839324
0.817447
0.818815
0.900928
1.00319
1.13709
1.36005
1.58643
1.87054
2.1848
2.47256
2.82151
3.33911
3.60332
3.2957
2.06456
0.830023
0.842067
0.862047
0.865774
0.842737
0.818965
0.819583
0.87238
0.955946
1.08197
1.27077
1.48854
1.737
2.03788
2.30896
2.63131
3.09836
3.47181
3.27253
2.58198
0.727948
0.8244
0.854174
0.865312
0.845657
0.8194
0.811164
0.830542
0.882817
0.999547
1.14593
1.3741
1.57321
1.86337
2.11628
2.39928
2.82441
3.31123
3.22642
3.09479
0.608717
0.756293
0.834341
0.862069
0.846695
0.826084
0.808697
0.802172
0.817238
0.919346
1.02839
1.23753
1.44315
1.69225
1.96352
2.23301
2.61297
3.13187
3.22003
3.58556
0.539219
0.67228
0.786574
0.846124
0.846225
0.834634
0.813045
0.795806
0.796196
0.864781
0.968656
1.12551
1.34754
1.56476
1.82263
2.07884
2.40714
2.9108
3.25621
4.00775
0.491851
0.603212
0.71858
0.803539
0.836346
0.828274
0.807085
0.776507
0.775146
0.821601
0.922673
1.05528
1.24578
1.45362
1.67727
1.91438
2.18928
2.6391
3.20092
4.38016
0.487485
0.545323
0.62211
0.724247
0.797188
0.803491
0.785012
0.753464
0.752685
0.775759
0.849938
0.983782
1.1357
1.33035
1.5461
1.77208
2.01462
2.41728
3.16722
4.66376
0.505516
0.499178
0.538726
0.640045
0.727995
0.766006
0.763426
0.747992
0.751033
0.762926
0.782667
0.892456
1.03876
1.20215
1.40887
1.6327
1.85346
2.21516
3.10303
4.91952
0.539105
0.491043
0.494578
0.567605
0.647519
0.717707
0.740358
0.740237
0.746793
0.745315
0.749488
0.835153
0.945879
1.09218
1.28371
1.48704
1.69827
2.05176
2.99572
5.04713
0.627787
0.546638
0.505284
0.525796
0.56423
0.653882
0.710657
0.718882
0.719677
0.711319
0.714248
0.787398
0.870507
0.988104
1.16852
1.34597
1.54202
1.89747
2.88936
5.0416
0.691425
0.605937
0.52704
0.49282
0.499135
0.577715
0.656552
0.689821
0.687524
0.676085
0.676722
0.732028
0.807305
0.9137
1.06585
1.23575
1.41605
1.772
2.78258
4.91901
0.760869
0.705221
0.642806
0.560088
0.513177
0.534069
0.57536
0.627696
0.642677
0.637273
0.640232
0.66216
0.711539
0.808835
0.919985
1.07492
1.2501
1.63104
2.58863
4.53721
)
;

boundaryField
{
    inlet
    {
        type            fixedValue;
        value           uniform 1;
    }
    outlet
    {
        type            zeroGradient;
    }
    airfoil
    {
        type            zeroGradient;
    }
    top
    {
        type            symmetryPlane;
    }
    bottom
    {
        type            symmetryPlane;
    }
    defaultFaces
    {
        type            empty;
    }
}


// ************************************************************************* //
