/*--------------------------------*- C++ -*----------------------------------*\
  =========                 |
  \\      /  F ield         | OpenFOAM: The Open Source CFD Toolbox
   \\    /   O peration     | Website:  https://openfoam.org
    \\  /    A nd           | Version:  7
     \\/     M anipulation  |
\*---------------------------------------------------------------------------*/
FoamFile
{
    version     2.0;
    format      ascii;
    class       volScalarField;
    location    "4";
    object      T;
}
// * * * * * * * * * * * * * * * * * * * * * * * * * * * * * * * * * * * * * //

dimensions      [0 0 0 1 0 0 0];

internalField   nonuniform List<scalar> 
1750
(
1.39618
1.44045
1.43941
1.41046
1.40902
1.41386
1.43534
1.44433
1.43841
1.45648
0.374048
0.77881
1.39616
1.73944
1.82205
1.78715
1.73929
1.65542
1.59391
1.55986
0.334708
0.349395
0.380127
0.834344
1.16479
1.40573
1.49899
1.51801
1.48743
1.48009
0.367412
0.386879
0.423436
0.452003
0.464863
0.543885
0.708989
0.926116
1.00976
1.13566
0.470961
0.480685
0.502973
0.518214
0.52671
0.523572
0.53424
0.548757
0.558046
0.696423
0.564138
0.567612
0.577163
0.590516
0.591611
0.59666
0.612183
0.627966
0.632764
0.638252
0.681798
0.682627
0.682754
0.684664
0.689035
0.69422
0.694522
0.693196
0.690852
0.683226
0.815735
0.804011
0.797542
0.790301
0.780046
0.77024
0.762833
0.756258
0.750671
0.74287
0.942693
0.928015
0.913074
0.899519
0.885071
0.869116
0.855121
0.84215
0.831502
0.814717
1.01049
1.00452
0.996285
0.986632
0.974884
0.961047
0.94592
0.929724
0.913865
0.888356
1.02073
1.02014
1.01927
1.01791
1.01545
1.01147
1.00554
0.997021
0.986786
0.965161
1.01455
1.01568
1.01653
1.01694
1.01688
1.01674
1.0164
1.01551
1.01387
1.00693
1.00354
1.00469
1.00612
1.0078
1.00951
1.01101
1.01238
1.01349
1.01345
1.01245
1.00018
1.00031
1.00053
1.0009
1.00151
1.00237
1.00354
1.00504
1.0067
1.00843
1
1.00001
1.00001
1.00002
1.00005
1.00011
1.00024
1.0005
1.00093
1.00221
0.474402
0.390655
0.328686
0.35618
0.46664
0.56052
0.681066
0.826512
0.95428
1.01434
1.021
1.01341
1.00256
1.00011
1
0.495382
0.386741
0.327613
0.397247
0.496586
0.600668
0.730752
0.875452
0.985465
1.02181
1.02118
1.01039
1.0013
1.00004
1
0.51466
0.392523
0.353083
0.429104
0.507337
0.625926
0.769614
0.914277
1.00396
1.02395
1.02041
1.00756
1.00071
1.00002
1
0.510739
0.392272
0.38211
0.441155
0.528409
0.663354
0.823861
0.952342
1.01605
1.02483
1.01823
1.00521
1.00035
1.00001
1
0.497355
0.375181
0.398462
0.443393
0.572651
0.735291
0.874413
0.980717
1.02339
1.0251
1.0158
1.00315
1.00015
1
1
0.483197
0.369312
0.401584
0.491184
0.645537
0.789392
0.918347
1.00451
1.02735
1.02503
1.01195
1.00154
1.00006
1
1
0.485208
0.401139
0.392193
0.553105
0.703446
0.840787
0.961054
1.02138
1.02891
1.02308
1.00752
1.00068
1.00002
1
1
0.48205
0.401647
0.463664
0.623453
0.767043
0.90184
0.997122
1.02938
1.02927
1.01879
1.00413
1.00025
1.00001
1
1
0.396657
0.373787
0.540789
0.68947
0.834391
0.957207
1.0193
1.03204
1.02891
1.01299
1.00188
1.00008
1
1
1
0.31981
0.403806
0.612114
0.775763
0.909763
0.997056
1.03096
1.03273
1.02373
1.00757
1.00072
1.00002
1
1
1
0.381267
0.50822
0.691411
0.853083
0.968003
1.0234
1.035
1.03229
1.01772
1.00358
1.00021
1.00001
1
1
1
0.0936555
0.57108
0.795378
0.937312
1.01012
1.03558
1.03575
1.0275
1.01016
1.00122
1.00005
1
1
1
1
0.214708
0.659249
0.893424
0.995886
1.03342
1.03866
1.03519
1.01985
1.0044
1.00034
1.00001
1
1
1
1
0.471179
0.82211
0.981208
1.0285
1.04124
1.03935
1.02845
1.01004
1.00131
1.00007
1
1
1
1
1
0.812316
0.973462
1.02916
1.0406
1.04255
1.03545
1.01745
1.00359
1.00027
1.00001
1
1
1
1
1
1.04118
1.04203
1.04265
1.04198
1.04067
1.02465
1.00637
1.00044
1.00001
1
1
1
1
1
1
1.04118
1.04245
1.04311
1.04103
1.03781
1.02133
1.00614
1.00068
1.00003
1
1
1
1
1
1
1.04139
1.04339
1.04385
1.04113
1.03359
1.01429
1.00217
1.0001
1
1
1
1
1
1
1
1.04137
1.04388
1.04399
1.03985
1.02721
1.0087
1.00092
1.00004
1
1
1
1
1
1
1
1.04116
1.04399
1.04377
1.03667
1.02018
1.00453
1.00033
1.00001
1
1
1
1
1
1
1
1.04164
1.04401
1.04289
1.03142
1.01355
1.00204
1.0001
1
1
1
1
1
1
1
1
1.04438
1.044
1.0419
1.02526
1.00714
1.00071
1.00003
1
1
1
1
1
1
1
1
1.04827
1.04139
1.03669
1.01654
1.00336
1.00024
1.00001
1
1
1
1
1
1
1
1
1.05163
1.03801
1.02856
1.00999
1.00133
1.00006
1
1
1
1
1
1
1
1
1
1.05358
1.03455
1.01956
1.00466
1.00042
1.00002
1
1
1
1
1
1
1
1
1
1.05347
1.02817
1.0117
1.00185
1.00011
1
1
1
1
1
1
1
1
1
1
1.04677
1.02067
1.00594
1.00061
1.00002
1
1
1
1
1
1
1
1
1
1
1.03874
1.01335
1.00231
1.00014
1
1
1
1
1
1
1
1
1
1
1
1.02716
1.00611
1.00058
1.00002
1
1
1
1
1
1
1
1
1
1
1
1.01229
1.00172
1.00008
1
1
1
1
1
1
1
1
1
1
1
1
1
1
1
1
1
1
1
1
1
1
1
1
1
1
1
1
1
1
1
1
1
1
1
1
1
1
1
1
1
1
1
1
1
1
1
1
1
1
1
1
1
1
1
1
1
1
1
1
1
1
1
1
1
1
1
1
1
1
1
1
1
1
1
1
1
1
1
1
1
1
1
1
1
1
1
1
1
1
1
1
1
1
1
1
1
1
1
1
1
1
1
1
1
1
1
1
1
1
1
1
1
1
1
1
1
1
1
1
1
1
1
1
1
1
1
1
1
1
1
1
1
1
1
1
1
1
1
1
1
1
1
1
1
1
1
1
1
1
1
1
1
1
1
1
1
1
1
1
1
1
1
1
1
1
1
1
1
1
1
1
1
1
1
1
1
1
1
1
1
1
1
1
1
1
1
1
1
1
1
1
1
1
1
1
1
1
1
1
1
1
1
1
1
1
1
1
1
1
1
1
1
1
1
1
1
1
1
1
1
1
1
1
1
1
1
1
1
1
1
1
1
1
1
1
1
1
1
1
1
1
1
1
1
1
1
1
1
1
1
1
1
1
1
1
1
1
1
1
1
1
1
1
1
1
1
1
1
1
1
1
1
1
1
1
1
1
1
1
1
1
1
1
1
1
1
1
1
1
1
1
1
1
1
1
1
1
1
1
1
1
1
1
1
1
1
1
1
1
1
1
1
1
1
1
1
1
1
1
1
1
1
1
1
1
1
1
1
1
1
1
1
1
1
1
1
1
1
1
1
1
1
1
1
1
1
1
1
1
1
1
1
1
1
1
1
1
1
1
1
1
2.14189
1.59257
0.999996
1
1
1
1
1
1
1
1
1
1
1
1
1
1
1
1
1
2.56843
2.36656
2.12327
1.27501
0.999998
1
1
1
1
1
1
1
1
1
1
1
1
1
1
1
2.44479
2.35771
2.38827
2.19155
1.46056
0.99948
1
1
1
1
1
1
1
1
1
1
1
1
1
1
2.38695
2.35837
2.36562
2.33798
2.16173
1.51634
0.99919
1
1
1
1
1
1
1
1
1
1
1
1
1
2.37029
2.35791
2.35805
2.33078
2.29755
2.14179
1.49263
0.998998
1
1
1
1
1
1
1
1
1
1
1
1
2.36343
2.35375
2.34611
2.32311
2.2903
2.2571
2.11347
1.43037
0.998678
1
1
1
1
1
1
1
1
1
1
1
2.35406
2.34489
2.33687
2.31843
2.29352
2.25324
2.18786
1.93361
1.19972
0.999261
1
1
1
1
1
1
1
1
1
1
2.33807
2.32925
2.32395
2.31152
2.29194
2.25756
2.22548
2.1636
1.73068
1.04139
1
1
1
1
1
1
1
1
1
1
2.31572
2.30931
2.30862
2.30195
2.28672
2.25818
2.22232
2.19057
2.06928
1.47702
0.998784
1.00001
1
1
1
1
1
1
1
1
2.2923
2.28803
2.28981
2.28782
2.27798
2.25606
2.22162
2.18685
2.12934
1.86103
1.14148
0.999402
1
1
1
1
1
1
1
1
2.26868
2.26576
2.26928
2.27094
2.26552
2.24794
2.2166
2.17768
2.15257
2.09785
1.60153
1.01163
1
1
1
1
1
1
1
1
2.24673
2.24443
2.24995
2.25342
2.2504
2.23643
2.20947
2.17384
2.14622
2.11271
1.91807
1.24252
0.998927
1
1
1
1
1
1
1
2.22848
2.22598
2.23257
2.23754
2.23633
2.22522
2.20308
2.16798
2.13929
2.10997
2.062
1.62639
1.02043
0.999934
1
1
1
1
1
1
2.21572
2.21207
2.21747
2.22298
2.22448
2.21667
2.19754
2.16583
2.13648
2.1098
2.10005
1.91405
1.26267
1.00036
1
1
1
1
1
1
2.20809
2.20601
2.21122
2.21387
2.21199
2.2026
2.1842
2.15915
2.13172
2.1083
2.09666
2.02022
1.55069
0.983626
0.999882
1
1
1
1
1
1.62545
1.83799
1.92469
1.99209
2.04641
2.07896
2.09852
2.09909
2.09313
2.08003
2.07547
2.06482
1.97149
1.42464
1.02242
1.00016
1
1
1
1
1.2216
1.57579
1.68299
1.76863
1.8499
1.92193
1.97068
2.00403
2.01771
2.01809
2.02546
2.03933
2.03365
1.88086
1.2962
1.01035
1.00006
1
1
1
1.22881
1.39903
1.50104
1.60551
1.68507
1.77336
1.84098
1.89977
1.93275
1.9479
1.96086
1.98448
2.0063
1.98607
1.71089
1.14351
1.00254
1.00001
1
1
1.27717
1.31504
1.3377
1.44514
1.55405
1.64133
1.72639
1.78872
1.84689
1.8775
1.90073
1.92329
1.95642
1.96177
1.88806
1.45595
1.03491
1.00029
1
1
1.33457
1.27013
1.23492
1.31549
1.42467
1.52016
1.62023
1.68786
1.75604
1.8032
1.83976
1.85583
1.88993
1.92427
1.9168
1.70871
1.19165
1.0045
1.00002
1
1.3578
1.27329
1.22451
1.2697
1.34289
1.43042
1.51907
1.60676
1.6652
1.73095
1.77409
1.79707
1.81871
1.87074
1.90212
1.83383
1.45333
1.04069
1.00037
1
1.3513
1.2775
1.2304
1.24032
1.27815
1.36853
1.44632
1.53797
1.60148
1.66821
1.71747
1.74869
1.76436
1.8082
1.86833
1.85122
1.64214
1.17086
1.00393
1.00002
1.34904
1.29778
1.24214
1.22074
1.21236
1.28384
1.37023
1.46338
1.54382
1.60284
1.66146
1.69578
1.72435
1.75984
1.82048
1.84163
1.75502
1.3721
1.02764
1.00022
1.3559
1.32198
1.26353
1.21483
1.1948
1.23185
1.30075
1.37649
1.47779
1.53919
1.59928
1.62918
1.67203
1.71105
1.7707
1.81935
1.78717
1.53942
1.10531
1.00184
1.35566
1.3213
1.26318
1.2147
1.19828
1.22574
1.27025
1.33424
1.42059
1.4924
1.54158
1.57864
1.61446
1.65875
1.71413
1.78113
1.77739
1.65516
1.24465
1.01003
1.34576
1.31303
1.25624
1.21084
1.20198
1.21103
1.24265
1.30822
1.37614
1.4526
1.50473
1.54375
1.5779
1.62221
1.67372
1.73845
1.75563
1.68521
1.38676
1.04041
1.32884
1.29922
1.25107
1.21318
1.20141
1.20018
1.21171
1.268
1.32145
1.40083
1.45905
1.50068
1.54123
1.58368
1.63226
1.69287
1.73194
1.68808
1.47176
1.10563
1.31785
1.29543
1.25725
1.22471
1.20509
1.19354
1.19384
1.23218
1.27723
1.33116
1.39761
1.44162
1.49065
1.5372
1.58262
1.64049
1.69994
1.68333
1.54389
1.20607
1.31037
1.29491
1.26664
1.23449
1.20869
1.19402
1.19327
1.2255
1.26097
1.30303
1.36126
1.40461
1.45479
1.50449
1.55087
1.60582
1.6693
1.67265
1.58586
1.32352
1.30529
1.29414
1.26665
1.23557
1.20913
1.19364
1.19265
1.21218
1.24298
1.28262
1.33339
1.37765
1.42322
1.47401
1.51996
1.57376
1.63656
1.65684
1.59284
1.43166
1.30097
1.28217
1.25951
1.23463
1.2095
1.19272
1.18851
1.19602
1.21623
1.25225
1.29199
1.34415
1.38086
1.43554
1.48155
1.53219
1.59409
1.63571
1.59004
1.5169
1.25348
1.24646
1.24666
1.23322
1.21051
1.19521
1.18646
1.18399
1.18929
1.22159
1.2499
1.30288
1.34541
1.39612
1.45017
1.50102
1.55884
1.6115
1.58834
1.58351
1.21254
1.20284
1.22096
1.2258
1.21106
1.19832
1.18658
1.17727
1.17465
1.19709
1.22487
1.26554
1.3179
1.36447
1.41943
1.47007
1.5226
1.58061
1.59387
1.6341
1.17316
1.16357
1.18677
1.20557
1.207
1.19593
1.18249
1.16463
1.16031
1.17497
1.2044
1.23966
1.28767
1.33554
1.38606
1.4356
1.48206
1.53902
1.58766
1.67729
1.14429
1.12307
1.13508
1.16803
1.18963
1.18474
1.17126
1.15279
1.14869
1.1526
1.1737
1.21266
1.2523
1.30151
1.35372
1.4036
1.44631
1.50134
1.585
1.70864
1.14183
1.08879
1.08312
1.12255
1.15609
1.16638
1.1599
1.14893
1.14635
1.14473
1.14396
1.1774
1.21857
1.26358
1.31776
1.37041
1.41085
1.46406
1.57653
1.73411
1.14923
1.06524
1.04792
1.07898
1.11358
1.14056
1.14611
1.14317
1.14225
1.13422
1.12668
1.15255
1.18429
1.22867
1.28273
1.33374
1.37482
1.43177
1.55925
1.74522
1.20266
1.09103
1.04916
1.05027
1.06473
1.10521
1.12811
1.12942
1.12638
1.1164
1.109
1.13066
1.15514
1.19355
1.24887
1.29611
1.33678
1.39973
1.53897
1.74321
1.24198
1.11747
1.05165
1.02181
1.01961
1.06087
1.09801
1.11191
1.10775
1.09648
1.08934
1.10531
1.12978
1.16652
1.21644
1.26401
1.30288
1.37041
1.51579
1.72766
1.309
1.18489
1.11057
1.05567
1.02348
1.03091
1.05187
1.07615
1.08064
1.07318
1.0684
1.0724
1.091
1.1285
1.16835
1.21457
1.25453
1.3327
1.47121
1.68156
)
;

boundaryField
{
    inlet
    {
        type            fixedValue;
        value           uniform 1;
    }
    outlet
    {
        type            inletOutlet;
        inletValue      uniform 1;
        value           nonuniform List<scalar> 
35
(
1.30948
1.18502
1.11051
1.0555
1.02325
1.03065
1.05154
1.07578
1.08024
1.07279
1.06801
1.07197
1.0907
1.1285
1.16828
1.21447
1.25423
1.33183
1.47007
1.67962
1.45702
1.56017
1.47967
1.13524
0.696236
0.638197
0.683146
0.742796
0.814685
0.888327
0.965133
1.0069
1.01242
1.00842
1.00221
)
;
    }
    airfoil
    {
        type            zeroGradient;
    }
    top
    {
        type            symmetryPlane;
    }
    bottom
    {
        type            symmetryPlane;
    }
    defaultFaces
    {
        type            empty;
    }
}


// ************************************************************************* //
