/*--------------------------------*- C++ -*----------------------------------*\
  =========                 |
  \\      /  F ield         | OpenFOAM: The Open Source CFD Toolbox
   \\    /   O peration     | Website:  https://openfoam.org
    \\  /    A nd           | Version:  7
     \\/     M anipulation  |
\*---------------------------------------------------------------------------*/
FoamFile
{
    version     2.0;
    format      ascii;
    class       volScalarField;
    location    "5";
    object      p;
}
// * * * * * * * * * * * * * * * * * * * * * * * * * * * * * * * * * * * * * //

dimensions      [1 -1 -2 0 0 0 0];

internalField   nonuniform List<scalar> 
90000
(
0.483926
0.499346
0.516285
0.53333
0.550298
0.567047
0.583724
0.600203
0.616714
0.633053
0.649502
0.665775
0.682215
0.698388
0.71483
0.730926
0.74735
0.763308
0.779698
0.795426
0.811712
0.827135
0.843169
0.858
0.873654
0.88762
0.902526
0.915333
0.929237
0.940572
0.952997
0.962511
0.972551
0.980122
0.987045
0.991623
0.997465
0.998214
0.998672
0.997513
0.996245
0.99359
0.988605
0.977351
0.968685
0.966559
0.966226
0.968002
0.970987
0.975718
0.983288
0.986851
0.988509
0.991607
0.995034
0.996352
0.995729
0.993829
0.991728
0.989657
0.988053
0.985959
0.984657
0.985188
0.987617
0.990629
0.995148
1.00128
1.00368
1.00259
0.998805
0.994657
0.989735
0.987864
0.988605
0.991159
0.995049
0.995325
0.993692
0.99062
0.987791
0.98745
0.98934
0.992401
0.993107
0.992641
0.991589
0.991303
0.993201
0.995088
0.994832
0.994111
0.99291
0.992957
0.993736
0.993608
0.993217
0.992942
0.992662
0.992059
0.471411
0.47177
0.472482
0.473612
0.47529
0.477558
0.480406
0.483929
0.488085
0.493
0.498579
0.505039
0.512168
0.520235
0.528963
0.538785
0.549251
0.56093
0.573182
0.586725
0.600699
0.616081
0.631694
0.648699
0.665756
0.684254
0.702449
0.721876
0.740757
0.760565
0.77977
0.799222
0.818374
0.836187
0.854891
0.870295
0.88696
0.900018
0.91369
0.922916
0.932795
0.938965
0.943824
0.950814
0.967279
0.978233
0.987983
0.992826
0.998321
1.00024
1.00072
0.999
0.995408
0.992611
0.990315
0.989238
0.987584
0.986072
0.985581
0.98487
0.985498
0.987672
0.991375
0.995235
0.998519
0.999903
0.998914
0.997959
0.996254
0.99501
0.994083
0.991247
0.992294
0.993362
0.994767
0.99465
0.993668
0.991898
0.990083
0.987769
0.988747
0.990582
0.992374
0.992124
0.99136
0.990253
0.990905
0.992697
0.994475
0.993872
0.993067
0.992462
0.993029
0.994042
0.993549
0.993125
0.993002
0.993044
0.992658
0.992006
0.471397
0.471378
0.47137
0.471415
0.471397
0.471346
0.471273
0.471202
0.471164
0.471171
0.471201
0.471269
0.471418
0.471628
0.47188
0.472205
0.472657
0.473338
0.474409
0.475889
0.477749
0.480169
0.483119
0.486928
0.491484
0.497379
0.504238
0.51297
0.522826
0.535242
0.548939
0.565971
0.584242
0.606482
0.62962
0.657064
0.685136
0.716923
0.749388
0.783251
0.818328
0.85103
0.888075
0.916852
0.93792
0.949619
0.96034
0.966432
0.9734
0.976345
0.978866
0.979453
0.980221
0.980113
0.979305
0.975801
0.974985
0.976522
0.981691
0.988129
0.996104
1.00198
1.0052
1.00467
1.00229
0.99721
0.991236
0.986938
0.984775
0.984663
0.987781
0.994013
1.00085
1.00043
0.998129
0.992927
0.988461
0.984556
0.986014
0.990795
0.994479
0.994025
0.992015
0.989971
0.989008
0.990877
0.993633
0.994474
0.993853
0.992583
0.992837
0.993843
0.994403
0.993983
0.993063
0.993173
0.993331
0.993142
0.99252
0.992059
0.471034
0.471012
0.470996
0.470989
0.470969
0.470925
0.470861
0.470744
0.47064
0.470568
0.470516
0.470489
0.4705
0.470542
0.470551
0.470541
0.470554
0.470692
0.470755
0.470792
0.470819
0.470859
0.470878
0.470874
0.470892
0.470968
0.471156
0.471445
0.471857
0.472448
0.473274
0.474627
0.476553
0.479472
0.483321
0.489007
0.496169
0.506812
0.51965
0.538016
0.559028
0.587053
0.618097
0.656403
0.695077
0.736264
0.77689
0.81184
0.848803
0.873796
0.902849
0.918049
0.937641
0.945395
0.954804
0.957638
0.969433
0.979885
0.992703
0.999638
1.00567
1.00799
1.00759
1.00602
0.999989
0.992679
0.986467
0.980378
0.981505
0.987209
0.994263
1.00245
1.00324
1.00157
0.995832
0.989896
0.985416
0.987502
0.991597
0.995511
0.996956
0.994893
0.991697
0.988716
0.989582
0.991967
0.994152
0.993813
0.992493
0.991789
0.992493
0.994028
0.994283
0.99382
0.993048
0.992786
0.992864
0.992797
0.99233
0.992122
0.470709
0.470695
0.470687
0.470717
0.470785
0.47082
0.470804
0.470741
0.47068
0.470635
0.470619
0.470643
0.470711
0.470795
0.47085
0.470901
0.470968
0.471021
0.47107
0.471109
0.471126
0.471123
0.471112
0.471096
0.471098
0.471158
0.471257
0.471368
0.471479
0.471616
0.471797
0.471892
0.472027
0.472231
0.472377
0.472474
0.47257
0.472763
0.473177
0.474041
0.475467
0.47812
0.481989
0.489049
0.498685
0.515493
0.536058
0.567741
0.602206
0.648268
0.695001
0.747137
0.799688
0.845269
0.89231
0.926823
0.955804
0.967676
0.979789
0.986807
0.992777
0.994384
0.993216
0.986245
0.973426
0.974717
0.979457
0.985755
0.992497
0.998053
0.998642
0.998833
0.995482
0.989897
0.988465
0.989624
0.99326
0.995935
0.99609
0.994284
0.991618
0.990544
0.990883
0.991383
0.993366
0.994142
0.993535
0.992026
0.991208
0.991845
0.992835
0.993646
0.993461
0.993379
0.993577
0.993556
0.993289
0.992774
0.992419
0.992416
0.470003
0.469994
0.469988
0.469984
0.469996
0.470023
0.470043
0.470055
0.470058
0.470057
0.470056
0.470054
0.470062
0.470093
0.470103
0.470108
0.470118
0.47014
0.470182
0.470242
0.470327
0.470401
0.470452
0.470509
0.470598
0.47071
0.470803
0.470899
0.471016
0.471156
0.471291
0.471433
0.471562
0.471668
0.47179
0.471944
0.472114
0.47226
0.472392
0.472573
0.472835
0.473031
0.473139
0.473237
0.473398
0.473811
0.474676
0.476729
0.480291
0.487841
0.498673
0.519313
0.544881
0.586463
0.631044
0.689296
0.744876
0.796958
0.84605
0.876347
0.910174
0.922675
0.940547
0.946892
0.966138
0.980711
0.996027
1.00431
1.00541
1.00467
1.00084
0.989082
0.979253
0.979695
0.983101
0.992165
1.00216
1.00206
1.00042
0.995641
0.989972
0.98877
0.990554
0.994011
0.995951
0.994086
0.992312
0.990652
0.990999
0.992425
0.993896
0.993978
0.993226
0.992694
0.992982
0.993065
0.992721
0.99216
0.992231
0.992651
0.469823
0.469826
0.469831
0.469832
0.469831
0.46983
0.469838
0.469887
0.469918
0.469922
0.469923
0.46992
0.469874
0.46977
0.469732
0.46973
0.469737
0.469756
0.469781
0.469834
0.469938
0.470044
0.470127
0.47023
0.4704
0.47051
0.470575
0.470653
0.470772
0.470921
0.471028
0.471094
0.471139
0.471189
0.471269
0.471382
0.47157
0.471861
0.472265
0.472551
0.472551
0.472515
0.472475
0.472425
0.472365
0.472283
0.472154
0.472046
0.472042
0.472138
0.472436
0.473224
0.474762
0.478373
0.484396
0.497897
0.517168
0.553496
0.59599
0.656754
0.718207
0.783507
0.848204
0.901299
0.9572
0.976323
0.991632
0.998972
1.00109
0.993777
0.971796
0.968252
0.972308
0.98355
0.994954
1.00034
1.00212
1.00034
0.994731
0.987302
0.987541
0.990796
0.995145
0.997225
0.996584
0.99376
0.989924
0.990021
0.991632
0.993194
0.993063
0.992421
0.992447
0.993186
0.993703
0.993526
0.992545
0.99203
0.992399
0.993328
0.470148
0.470153
0.470156
0.470162
0.47016
0.470156
0.470162
0.470189
0.470201
0.470202
0.470201
0.470206
0.470232
0.470273
0.47031
0.470351
0.470413
0.470484
0.470565
0.470682
0.470772
0.470831
0.470909
0.471064
0.471197
0.471256
0.471289
0.471341
0.471432
0.471511
0.471519
0.471523
0.47155
0.471622
0.471723
0.471835
0.471962
0.472138
0.472333
0.472503
0.472595
0.472601
0.472569
0.472511
0.47246
0.472396
0.472291
0.472178
0.472051
0.471926
0.471838
0.471766
0.471758
0.471844
0.471983
0.472192
0.472724
0.474498
0.47848
0.488959
0.505782
0.540277
0.58351
0.649868
0.716868
0.786474
0.851331
0.887123
0.924792
0.936374
0.949917
0.973968
0.992846
1.00367
1.00506
1.0039
0.995178
0.983339
0.984084
0.986195
0.993108
1.00012
0.999586
0.998248
0.993159
0.98966
0.989215
0.991026
0.993841
0.993771
0.9926
0.991119
0.991693
0.992941
0.993422
0.993157
0.992476
0.992037
0.992574
0.993583
0.470877
0.470885
0.470899
0.470902
0.470906
0.470926
0.470986
0.471031
0.471052
0.471067
0.471075
0.471088
0.471109
0.471133
0.471164
0.471216
0.471298
0.471424
0.471507
0.471543
0.471569
0.471615
0.471717
0.471793
0.471787
0.471764
0.471765
0.471776
0.471807
0.47183
0.471836
0.471841
0.471865
0.471927
0.472042
0.472149
0.472235
0.472371
0.472543
0.472617
0.472615
0.472581
0.472497
0.472401
0.47233
0.472251
0.472164
0.472081
0.471985
0.471833
0.471581
0.471297
0.471098
0.470845
0.47057
0.470501
0.470538
0.470674
0.470752
0.470874
0.471264
0.472653
0.476155
0.486919
0.50587
0.547785
0.602084
0.681825
0.762934
0.845366
0.93025
0.969221
0.988707
0.99875
0.999685
0.989142
0.963839
0.967875
0.977851
0.993809
1.00512
1.00448
1.00047
0.993124
0.987841
0.988449
0.991578
0.995185
0.994965
0.992935
0.990246
0.990475
0.992121
0.993058
0.993022
0.991872
0.991787
0.992183
0.993516
0.99381
0.471365
0.471366
0.47137
0.471383
0.471466
0.471649
0.471674
0.471668
0.471679
0.47171
0.471734
0.47178
0.471812
0.471827
0.471851
0.471908
0.472029
0.47215
0.472183
0.47218
0.472183
0.472231
0.472296
0.472298
0.472261
0.472172
0.472129
0.472131
0.472139
0.472142
0.472128
0.472096
0.472087
0.472109
0.472168
0.472234
0.472309
0.47241
0.472495
0.472504
0.472489
0.472408
0.472286
0.472184
0.472103
0.472027
0.471902
0.471721
0.471538
0.471345
0.471126
0.470907
0.470551
0.469991
0.469767
0.469751
0.469797
0.469972
0.47011
0.470119
0.470016
0.469727
0.469584
0.469673
0.470254
0.472445
0.478461
0.494741
0.52515
0.582265
0.658383
0.748441
0.823192
0.885073
0.92042
0.940712
0.955107
0.989181
1.00173
1.00631
1.00582
0.99712
0.986896
0.987008
0.988177
0.99357
0.998045
0.997586
0.993362
0.989629
0.989782
0.991685
0.993237
0.993025
0.991317
0.990683
0.991529
0.993513
0.994131
0.993904
0.471765
0.471796
0.471837
0.471992
0.472233
0.472272
0.47225
0.472222
0.472231
0.472293
0.472365
0.472389
0.472396
0.472411
0.472449
0.472517
0.472601
0.472671
0.472686
0.472694
0.472725
0.47275
0.472746
0.472711
0.472669
0.472622
0.472551
0.472469
0.472433
0.472425
0.472386
0.472294
0.47224
0.472249
0.472289
0.47236
0.472461
0.472512
0.472511
0.472495
0.472422
0.472278
0.472112
0.471949
0.471757
0.471444
0.47111
0.470913
0.470816
0.470746
0.470702
0.470605
0.470242
0.469691
0.469534
0.469524
0.469556
0.469697
0.46987
0.469936
0.46991
0.469865
0.469857
0.469828
0.469769
0.469822
0.470052
0.47063
0.472252
0.476765
0.489677
0.519806
0.577926
0.663567
0.755706
0.86602
0.942686
0.986487
0.996304
1.00266
0.992098
0.970116
0.97371
0.98269
0.995076
1.00176
1.00096
0.995492
0.987924
0.988343
0.991414
0.994243
0.993852
0.991009
0.988897
0.989873
0.993095
0.994299
0.994205
0.993522
0.47247
0.472621
0.472704
0.472718
0.472714
0.472676
0.472648
0.472651
0.472703
0.472745
0.472747
0.47274
0.472744
0.472782
0.472797
0.472789
0.47278
0.472777
0.47278
0.4728
0.472823
0.472821
0.472761
0.47267
0.472642
0.47262
0.472589
0.472535
0.472482
0.4724
0.47222
0.472095
0.472115
0.472267
0.472344
0.472325
0.472223
0.472044
0.471828
0.47163
0.471445
0.471226
0.471035
0.470855
0.470579
0.470231
0.470154
0.470195
0.470371
0.470453
0.470458
0.470393
0.470075
0.469531
0.469357
0.469352
0.469385
0.469544
0.469771
0.469861
0.469981
0.470228
0.47038
0.47038
0.470344
0.470329
0.470371
0.470645
0.470968
0.471127
0.471386
0.4723
0.476906
0.489005
0.526863
0.587689
0.686796
0.78906
0.853327
0.923583
0.933653
0.967797
0.982264
1.00079
1.00293
1.00198
0.994084
0.986997
0.987827
0.991903
0.996624
0.995827
0.990924
0.98815
0.988866
0.992416
0.994501
0.994455
0.993578
0.993155
0.47323
0.473222
0.473201
0.473166
0.47314
0.473138
0.473149
0.473187
0.473207
0.473201
0.473188
0.473188
0.473209
0.473221
0.473209
0.473154
0.473135
0.473133
0.47313
0.473132
0.473136
0.473125
0.473053
0.47293
0.472857
0.472838
0.472823
0.472791
0.472723
0.472512
0.472158
0.472065
0.471998
0.471905
0.471811
0.471692
0.471549
0.471377
0.471183
0.470956
0.47071
0.470515
0.470331
0.470115
0.469901
0.469844
0.469851
0.469948
0.470238
0.47037
0.470369
0.470298
0.469993
0.469612
0.469542
0.469561
0.469597
0.469681
0.469843
0.470072
0.470319
0.470578
0.470775
0.470808
0.470799
0.470778
0.470766
0.470825
0.471027
0.471136
0.471121
0.471034
0.470946
0.471084
0.472528
0.477414
0.499341
0.540323
0.628509
0.735549
0.840334
0.954586
0.976619
0.99909
0.997293
0.984132
0.9745
0.981134
0.993468
1.00003
0.998801
0.99219
0.985917
0.98697
0.992396
0.995324
0.994951
0.992644
0.992431
0.992958
0.473629
0.473562
0.473546
0.473521
0.473393
0.473248
0.473238
0.47325
0.473247
0.473204
0.473129
0.473105
0.473102
0.473091
0.473043
0.472943
0.47281
0.472693
0.472671
0.47267
0.472666
0.472621
0.472413
0.472278
0.472275
0.472281
0.472258
0.472175
0.471915
0.471307
0.471007
0.471016
0.471174
0.471291
0.471299
0.471289
0.471246
0.471169
0.47101
0.470789
0.470555
0.47036
0.470129
0.469926
0.469865
0.469844
0.469843
0.46994
0.470221
0.470476
0.470532
0.470498
0.470407
0.470356
0.470406
0.470602
0.470718
0.470756
0.470766
0.470743
0.470732
0.470794
0.471017
0.471152
0.471147
0.47112
0.471101
0.471096
0.471135
0.471133
0.471104
0.471019
0.47086
0.470731
0.470695
0.470741
0.471216
0.473419
0.484744
0.511726
0.585539
0.684672
0.786349
0.902246
0.917881
0.946747
0.965917
0.998607
1.00369
1.00177
0.990606
0.984936
0.98612
0.992403
0.998444
0.996949
0.991903
0.990964
0.991858
0.99344
0.472643
0.472582
0.472507
0.472405
0.47219
0.472018
0.471974
0.471939
0.47189
0.471833
0.471764
0.471673
0.471596
0.471549
0.471505
0.471415
0.471206
0.471031
0.471009
0.471
0.470975
0.470854
0.470649
0.470613
0.470629
0.470692
0.470719
0.470664
0.470238
0.469913
0.469908
0.470012
0.470423
0.470866
0.470977
0.471038
0.471113
0.471136
0.471091
0.470925
0.470677
0.470416
0.470171
0.470012
0.470006
0.47005
0.47011
0.470229
0.470483
0.470826
0.471091
0.471107
0.471003
0.47095
0.471015
0.471404
0.471642
0.47166
0.471605
0.471386
0.471244
0.471249
0.471424
0.471668
0.471667
0.471537
0.471506
0.471482
0.471437
0.471364
0.471252
0.47109
0.470961
0.470814
0.470706
0.470714
0.470818
0.471067
0.471509
0.472603
0.478951
0.496113
0.558125
0.651647
0.770965
0.913467
0.955393
0.991936
0.994584
0.980492
0.972096
0.980324
0.994742
1.00062
0.998704
0.991819
0.989387
0.990949
0.993791
0.993583
0.471166
0.471132
0.471086
0.47106
0.470995
0.470785
0.470704
0.470672
0.470595
0.470577
0.470586
0.470549
0.470391
0.4702
0.470017
0.469771
0.469653
0.469649
0.469635
0.469588
0.469565
0.469549
0.469501
0.469482
0.469485
0.469456
0.46942
0.469373
0.469235
0.469189
0.469221
0.469415
0.469876
0.470367
0.470653
0.470796
0.470896
0.470996
0.471068
0.471006
0.470765
0.470443
0.470153
0.469942
0.469941
0.470127
0.470484
0.470751
0.470951
0.471104
0.471177
0.47115
0.471012
0.470914
0.470924
0.471337
0.472049
0.472159
0.472159
0.472015
0.471632
0.471368
0.4714
0.471609
0.471667
0.471553
0.471543
0.47163
0.471645
0.471575
0.471377
0.471273
0.471294
0.471313
0.471224
0.471173
0.471251
0.471501
0.471805
0.471856
0.471925
0.472295
0.475815
0.4878
0.542221
0.625782
0.742371
0.869424
0.903475
0.940018
0.965963
1.00188
1.00574
1.00326
0.990003
0.985527
0.988618
0.995103
0.995011
0.992637
0.470939
0.470961
0.470996
0.471003
0.471003
0.470974
0.470842
0.470723
0.470628
0.470621
0.470663
0.470634
0.470382
0.470206
0.470109
0.469857
0.469723
0.469738
0.469723
0.469617
0.469555
0.469543
0.469539
0.469498
0.469466
0.469463
0.469406
0.469266
0.469234
0.469278
0.469479
0.469856
0.4703
0.470577
0.470704
0.470814
0.470965
0.471183
0.471466
0.47159
0.471486
0.471155
0.470783
0.470546
0.470502
0.470642
0.471262
0.471605
0.471623
0.471591
0.471484
0.471141
0.470917
0.470853
0.470914
0.471501
0.472409
0.472552
0.472566
0.472491
0.472072
0.471355
0.471048
0.471135
0.471408
0.471502
0.471492
0.47156
0.471633
0.471609
0.471474
0.471443
0.47155
0.471768
0.471812
0.471812
0.471887
0.47203
0.472051
0.471962
0.471985
0.471862
0.471489
0.47154
0.474014
0.483671
0.532148
0.611648
0.737074
0.897172
0.95419
0.997163
0.995563
0.980013
0.976826
0.985573
0.996643
0.997128
0.993833
0.990755
0.470746
0.470811
0.470879
0.470916
0.470983
0.471021
0.471026
0.471031
0.471131
0.471208
0.47118
0.471034
0.470972
0.470854
0.470499
0.470318
0.470334
0.470346
0.47026
0.47004
0.469901
0.469834
0.469733
0.469487
0.469359
0.469341
0.469262
0.469075
0.469019
0.469056
0.469238
0.469647
0.470205
0.470592
0.470767
0.470883
0.471004
0.47119
0.471507
0.471758
0.471701
0.471322
0.470792
0.470564
0.470558
0.470732
0.471517
0.472002
0.472032
0.471976
0.471817
0.47134
0.470824
0.470736
0.470808
0.471389
0.472317
0.472517
0.472554
0.47253
0.472173
0.471276
0.470712
0.470749
0.470948
0.471092
0.471189
0.471386
0.471612
0.471643
0.471617
0.471649
0.471861
0.472182
0.472268
0.472264
0.47227
0.472261
0.472187
0.472008
0.471658
0.471274
0.470949
0.470748
0.470772
0.471026
0.47335
0.482059
0.527567
0.609408
0.730798
0.875748
0.903959
0.94325
0.970914
1.00484
1.00393
0.99542
0.987192
0.99013
0.471057
0.471085
0.471156
0.471261
0.471382
0.471518
0.471692
0.471811
0.471821
0.471791
0.471762
0.47178
0.471844
0.471784
0.471611
0.471591
0.471606
0.471535
0.47133
0.47118
0.471138
0.471097
0.470939
0.470539
0.470227
0.470132
0.470024
0.469897
0.469826
0.469756
0.469745
0.469882
0.470308
0.470641
0.470692
0.470725
0.470835
0.471061
0.47137
0.471722
0.471719
0.471343
0.47075
0.470597
0.470622
0.470793
0.471567
0.472316
0.472417
0.472356
0.472137
0.471552
0.470839
0.470615
0.470659
0.471159
0.471849
0.472144
0.472381
0.472429
0.4721
0.471151
0.470629
0.470659
0.470799
0.470797
0.470828
0.471176
0.471762
0.471903
0.471936
0.472034
0.472257
0.472442
0.472454
0.472396
0.472293
0.472086
0.471574
0.470998
0.470579
0.470533
0.470634
0.470725
0.471051
0.47155
0.471765
0.471961
0.473947
0.482312
0.528093
0.612459
0.75036
0.91212
0.959977
0.998375
0.9936
0.972392
0.980599
0.995774
0.470762
0.47076
0.470808
0.47095
0.471089
0.471206
0.47136
0.47151
0.471533
0.471514
0.471492
0.471522
0.471614
0.471583
0.47143
0.471405
0.471419
0.471332
0.471151
0.471128
0.471125
0.471061
0.470759
0.470044
0.469655
0.469665
0.469696
0.469648
0.469679
0.469782
0.469861
0.47002
0.470132
0.470104
0.470003
0.470098
0.4705
0.470822
0.471041
0.471335
0.471347
0.470898
0.470337
0.470208
0.470286
0.470809
0.471894
0.472349
0.472457
0.472433
0.472173
0.471711
0.471012
0.470396
0.469987
0.470029
0.470351
0.470839
0.471461
0.471795
0.471585
0.47088
0.470731
0.470935
0.47095
0.470769
0.470757
0.47119
0.471881
0.472034
0.47207
0.472197
0.472438
0.472466
0.472425
0.47232
0.472013
0.4714
0.470606
0.47011
0.470047
0.470201
0.470504
0.471098
0.471811
0.472036
0.472141
0.472111
0.471949
0.471762
0.473414
0.482504
0.534983
0.628492
0.759895
0.891605
0.921459
0.955923
0.99874
1.00123
0.466837
0.467164
0.467522
0.467731
0.467917
0.468129
0.46831
0.46856
0.468716
0.468736
0.468922
0.469673
0.470161
0.470128
0.469955
0.469929
0.469996
0.470057
0.470208
0.470381
0.470322
0.469861
0.469134
0.468642
0.468275
0.468206
0.468333
0.468325
0.468399
0.468995
0.470014
0.470287
0.470293
0.470231
0.47028
0.470735
0.471068
0.471063
0.471074
0.470898
0.470292
0.469591
0.469233
0.468901
0.46868
0.468863
0.469688
0.470811
0.471546
0.471899
0.471901
0.471625
0.470899
0.4698
0.468952
0.46878
0.469054
0.469743
0.47006
0.469982
0.470085
0.470302
0.470583
0.47116
0.47142
0.471336
0.471378
0.471721
0.472041
0.47205
0.472045
0.472136
0.472378
0.472409
0.472162
0.471554
0.470869
0.470199
0.469826
0.469879
0.47004
0.470553
0.471161
0.47188
0.47221
0.472311
0.47228
0.472166
0.4715
0.470886
0.470839
0.47105
0.473838
0.486622
0.546454
0.650832
0.806952
0.939402
0.990289
0.993834
0.461234
0.461442
0.461315
0.461185
0.461253
0.461695
0.462649
0.463305
0.463312
0.463304
0.463714
0.464894
0.465503
0.465513
0.465381
0.465307
0.465338
0.465494
0.465695
0.465742
0.46572
0.46557
0.465238
0.464763
0.464118
0.463623
0.463503
0.463668
0.46432
0.465582
0.467021
0.467919
0.468219
0.468291
0.468378
0.468626
0.468769
0.468754
0.468697
0.468476
0.467881
0.466897
0.465877
0.465222
0.464923
0.465032
0.465511
0.465826
0.465952
0.46647
0.468251
0.469392
0.469233
0.468614
0.467907
0.467605
0.467803
0.468234
0.468633
0.468678
0.468732
0.469193
0.470231
0.471105
0.471365
0.471346
0.471411
0.47184
0.472014
0.47174
0.471479
0.471514
0.471532
0.471291
0.470527
0.469619
0.469207
0.469257
0.469428
0.4698
0.47066
0.471188
0.471705
0.472169
0.472249
0.472274
0.472151
0.471478
0.47045
0.470473
0.470658
0.471272
0.471761
0.472244
0.475432
0.49315
0.562154
0.684772
0.820668
0.923719
0.46235
0.46228
0.462083
0.461892
0.461872
0.46205
0.462154
0.462115
0.462099
0.462223
0.462749
0.464033
0.465146
0.46526
0.46525
0.465226
0.46531
0.465395
0.465402
0.465328
0.465186
0.464688
0.464039
0.463945
0.463765
0.462923
0.461039
0.459729
0.459755
0.460401
0.461282
0.461358
0.460984
0.460732
0.460841
0.461458
0.462135
0.46311
0.46435
0.464606
0.464585
0.464122
0.462665
0.462019
0.462094
0.461863
0.460567
0.460103
0.460186
0.460807
0.462552
0.463824
0.464124
0.464188
0.464238
0.464374
0.464907
0.46638
0.468288
0.468567
0.468408
0.467673
0.467011
0.46698
0.467669
0.469316
0.47
0.470001
0.46936
0.467881
0.467399
0.467559
0.468024
0.46825
0.468252
0.468208
0.468403
0.468915
0.469722
0.470558
0.471319
0.471519
0.471766
0.472155
0.472034
0.471579
0.470722
0.469743
0.469755
0.470275
0.471143
0.471848
0.472256
0.472376
0.472381
0.472565
0.476861
0.505054
0.581414
0.794507
0.460077
0.459243
0.457612
0.456092
0.455584
0.45554
0.455578
0.455639
0.455752
0.456001
0.456454
0.457222
0.458564
0.460369
0.461523
0.461782
0.461912
0.462203
0.462955
0.46361
0.46369
0.463755
0.463895
0.463972
0.464055
0.463519
0.461012
0.458103
0.4576
0.457776
0.457867
0.457331
0.454919
0.453711
0.453673
0.454161
0.455616
0.457647
0.460067
0.462252
0.462615
0.46255
0.462115
0.462089
0.462507
0.462385
0.460886
0.45807
0.456167
0.456322
0.457892
0.46041
0.462323
0.463551
0.463714
0.463119
0.462232
0.46212
0.463118
0.465571
0.466072
0.465608
0.463315
0.461624
0.461601
0.46237
0.463697
0.464095
0.46392
0.463452
0.463328
0.463492
0.464049
0.464895
0.46576
0.466524
0.467294
0.468214
0.469351
0.470245
0.470789
0.471024
0.470814
0.470235
0.469494
0.468791
0.468494
0.468685
0.469667
0.47083
0.471699
0.471947
0.472204
0.472122
0.471367
0.470631
0.470985
0.472447
0.479453
0.574761
0.462005
0.461129
0.460084
0.459096
0.458604
0.45857
0.458616
0.458752
0.459229
0.46018
0.460281
0.460193
0.461003
0.462946
0.464002
0.4652
0.467066
0.468739
0.469558
0.469579
0.469567
0.469694
0.470265
0.47097
0.471206
0.470915
0.468921
0.46558
0.462852
0.460733
0.460459
0.460394
0.459493
0.458335
0.457937
0.458105
0.458962
0.460862
0.462841
0.463845
0.464717
0.465436
0.466486
0.46867
0.471251
0.471848
0.470947
0.468567
0.465929
0.464244
0.464439
0.465363
0.466322
0.466971
0.466901
0.4661
0.463877
0.463029
0.463519
0.465761
0.466481
0.466033
0.463863
0.460639
0.459735
0.459918
0.460801
0.461647
0.461794
0.46142
0.461038
0.461087
0.461455
0.462134
0.462993
0.463771
0.464396
0.464996
0.465457
0.465891
0.46566
0.465392
0.465194
0.465266
0.465562
0.466004
0.467101
0.468526
0.469801
0.470762
0.471598
0.471574
0.47107
0.470193
0.469417
0.469683
0.470484
0.471151
0.47147
0.484905
0.484447
0.483564
0.482595
0.482017
0.481767
0.481697
0.48186
0.482582
0.482753
0.482482
0.482308
0.482364
0.482984
0.484789
0.487205
0.488947
0.489536
0.489415
0.488551
0.486373
0.485785
0.485929
0.486722
0.487622
0.488885
0.489754
0.489717
0.488416
0.486887
0.486864
0.487024
0.486607
0.485131
0.483274
0.4817
0.480004
0.478281
0.476827
0.475196
0.474182
0.474242
0.475155
0.475973
0.476793
0.47782
0.478446
0.478328
0.477293
0.475089
0.472472
0.470806
0.470368
0.470381
0.470057
0.469419
0.468127
0.464551
0.462738
0.462727
0.463593
0.464764
0.464952
0.463792
0.460845
0.459752
0.45991
0.460829
0.461788
0.462273
0.462908
0.463244
0.463354
0.463715
0.464626
0.465847
0.466206
0.465916
0.465371
0.464172
0.462891
0.462145
0.461806
0.461873
0.461965
0.462249
0.462985
0.464351
0.466162
0.467751
0.467619
0.467403
0.467056
0.467087
0.467281
0.468132
0.469669
0.470595
0.471171
0.471117
0.471331
0.518768
0.519479
0.519708
0.519703
0.519221
0.516248
0.514992
0.515288
0.515011
0.512296
0.510781
0.510144
0.509323
0.509571
0.511567
0.512196
0.511509
0.509544
0.507599
0.505796
0.503387
0.500732
0.498342
0.496915
0.497034
0.499356
0.50284
0.502898
0.501989
0.501991
0.503391
0.504698
0.504347
0.50358
0.503832
0.504805
0.504173
0.499769
0.494735
0.493388
0.49286
0.492116
0.49147
0.490987
0.489814
0.48644
0.48264
0.481971
0.482121
0.482583
0.482603
0.482601
0.482654
0.482616
0.482924
0.483124
0.482064
0.478566
0.473355
0.470592
0.470852
0.473591
0.47812
0.478813
0.477927
0.476487
0.47462
0.473761
0.473917
0.474985
0.475188
0.474463
0.472735
0.471245
0.47029
0.468935
0.466703
0.464649
0.463437
0.462529
0.462051
0.46203
0.462169
0.462996
0.464453
0.466365
0.467695
0.467413
0.466183
0.464538
0.463343
0.463317
0.463603
0.464183
0.465527
0.467419
0.469088
0.469091
0.468375
0.468235
0.56246
0.563113
0.563521
0.563227
0.561335
0.560584
0.560779
0.561252
0.561715
0.563226
0.564386
0.564046
0.560865
0.558404
0.558284
0.558122
0.558259
0.558872
0.558414
0.554004
0.551393
0.551211
0.550792
0.5492
0.545394
0.54279
0.542054
0.541708
0.541574
0.541526
0.540758
0.53816
0.537033
0.537172
0.536912
0.536886
0.537436
0.536734
0.534618
0.534407
0.534534
0.533842
0.532865
0.532992
0.533653
0.533174
0.529322
0.524553
0.522838
0.521505
0.518934
0.516356
0.515026
0.515155
0.51568
0.515783
0.515402
0.513838
0.510601
0.506372
0.501963
0.499666
0.499412
0.498919
0.497262
0.494438
0.491241
0.488309
0.485354
0.483331
0.48196
0.479756
0.476609
0.473888
0.47176
0.469843
0.468314
0.467219
0.467395
0.468073
0.46916
0.470529
0.471674
0.472694
0.472022
0.471037
0.469455
0.466761
0.46412
0.463494
0.463109
0.463259
0.463954
0.465585
0.467526
0.467156
0.466105
0.464897
0.464822
0.465619
0.610973
0.608926
0.604905
0.603386
0.602768
0.601965
0.601341
0.601305
0.602843
0.605933
0.606362
0.604547
0.599722
0.598569
0.598701
0.598355
0.596675
0.595198
0.595073
0.594887
0.593474
0.593206
0.59327
0.592237
0.589343
0.588616
0.588989
0.589842
0.590533
0.591085
0.591141
0.589816
0.585871
0.584938
0.585081
0.584513
0.581643
0.577497
0.574334
0.570146
0.565742
0.565436
0.565215
0.563571
0.563144
0.563914
0.563858
0.56287
0.561338
0.559535
0.558377
0.556241
0.5506
0.542392
0.540233
0.539636
0.537873
0.537362
0.537457
0.536979
0.534916
0.529928
0.524248
0.520293
0.515963
0.513309
0.513719
0.5137
0.512003
0.506161
0.50192
0.501291
0.500933
0.500419
0.499181
0.496539
0.494826
0.494828
0.494388
0.492953
0.490244
0.487343
0.48465
0.481646
0.47769
0.473332
0.469439
0.466917
0.46472
0.464878
0.465846
0.467491
0.469956
0.469783
0.469086
0.466439
0.464626
0.464036
0.464081
0.46515
0.664758
0.660854
0.659707
0.659629
0.660072
0.661933
0.662389
0.662007
0.659976
0.65868
0.658778
0.658745
0.657236
0.655537
0.655514
0.65526
0.65323
0.652131
0.652173
0.651487
0.650072
0.649724
0.64902
0.646949
0.642966
0.640136
0.639661
0.639532
0.639207
0.637896
0.635914
0.635659
0.635716
0.634673
0.633636
0.633527
0.632899
0.631593
0.63027
0.628725
0.626692
0.624406
0.620081
0.616412
0.615919
0.614441
0.610828
0.608094
0.605587
0.603911
0.604072
0.604522
0.602806
0.596879
0.593584
0.592611
0.589949
0.583394
0.580399
0.57976
0.578937
0.576873
0.573972
0.570762
0.56456
0.558982
0.558225
0.557875
0.55603
0.550362
0.543151
0.539634
0.537766
0.534551
0.530103
0.524514
0.519451
0.514414
0.510459
0.50585
0.500811
0.496021
0.49177
0.48776
0.485914
0.483629
0.482735
0.483206
0.484732
0.484621
0.483637
0.480936
0.477993
0.473326
0.469165
0.466271
0.464766
0.465211
0.467028
0.469205
0.722904
0.721616
0.717858
0.71687
0.717186
0.717339
0.716726
0.71611
0.715911
0.715225
0.713784
0.713608
0.713751
0.712884
0.711275
0.710653
0.709087
0.707336
0.707091
0.706825
0.706187
0.704286
0.702732
0.702791
0.702796
0.702133
0.699701
0.69747
0.696574
0.695801
0.694198
0.692209
0.691099
0.689923
0.688094
0.685586
0.682933
0.680712
0.678603
0.676551
0.674781
0.672602
0.668183
0.666034
0.66637
0.666146
0.664191
0.661014
0.658157
0.655144
0.652144
0.64906
0.643204
0.636318
0.63518
0.635644
0.634958
0.631328
0.626983
0.621727
0.614674
0.611574
0.610139
0.608207
0.605541
0.601109
0.594697
0.587906
0.583636
0.582319
0.579524
0.574171
0.568877
0.563979
0.559626
0.555579
0.552014
0.54783
0.54348
0.539624
0.536848
0.533667
0.530458
0.527377
0.524805
0.521971
0.51753
0.512472
0.506745
0.50136
0.495326
0.488305
0.481697
0.476598
0.474604
0.475922
0.478293
0.478314
0.477536
0.474042
0.784766
0.784152
0.783639
0.782505
0.78027
0.779692
0.779947
0.779903
0.779123
0.77817
0.776336
0.774254
0.773706
0.77349
0.773337
0.773001
0.771939
0.768949
0.767207
0.766853
0.766156
0.764949
0.764074
0.763429
0.762437
0.760818
0.758351
0.755785
0.754044
0.752859
0.751828
0.749651
0.746703
0.744926
0.743953
0.742533
0.74072
0.738666
0.737016
0.735005
0.732762
0.730505
0.727795
0.724842
0.721776
0.719623
0.716262
0.71057
0.708233
0.707294
0.706026
0.704124
0.700931
0.696289
0.691789
0.687816
0.682951
0.67949
0.677958
0.67537
0.670282
0.665632
0.662475
0.657969
0.653171
0.649497
0.646718
0.642055
0.634571
0.631875
0.630692
0.627263
0.620592
0.613979
0.608665
0.604495
0.599259
0.593342
0.587177
0.580945
0.575143
0.568776
0.562534
0.555548
0.548628
0.541242
0.534645
0.528016
0.520683
0.515706
0.509927
0.508927
0.507165
0.50725
0.505544
0.502481
0.497552
0.491385
0.484644
0.475209
0.854262
0.854176
0.853501
0.850379
0.847285
0.847013
0.847846
0.848951
0.84888
0.847404
0.846551
0.845955
0.844116
0.840983
0.839104
0.83903
0.839183
0.838484
0.835569
0.834495
0.833822
0.83227
0.830786
0.829699
0.828109
0.826274
0.824658
0.823327
0.820844
0.817513
0.816886
0.816355
0.815044
0.812087
0.807715
0.80532
0.803831
0.802079
0.800028
0.797563
0.79467
0.792035
0.789399
0.785843
0.782552
0.780178
0.777993
0.774729
0.77016
0.766439
0.763574
0.760222
0.756518
0.752587
0.748026
0.744171
0.740728
0.736692
0.731937
0.727181
0.720867
0.716068
0.712993
0.709699
0.705357
0.697421
0.690594
0.68671
0.68342
0.677901
0.670821
0.664609
0.658516
0.65292
0.647106
0.641503
0.635303
0.628066
0.621142
0.6153
0.608936
0.6029
0.597115
0.591312
0.586005
0.580329
0.574713
0.570282
0.566143
0.561034
0.556006
0.550901
0.544014
0.535806
0.526872
0.518691
0.509004
0.500708
0.495414
0.493878
0.930736
0.929554
0.929508
0.929943