/*--------------------------------*- C++ -*----------------------------------*\
  =========                 |
  \\      /  F ield         | OpenFOAM: The Open Source CFD Toolbox
   \\    /   O peration     | Website:  https://openfoam.org
    \\  /    A nd           | Version:  7
     \\/     M anipulation  |
\*---------------------------------------------------------------------------*/
FoamFile
{
    version     2.0;
    format      ascii;
    class       volVectorField;
    location    "5";
    object      U;
}
// * * * * * * * * * * * * * * * * * * * * * * * * * * * * * * * * * * * * * //

dimensions      [0 1 -1 0 0 0 0];

internalField   nonuniform List<vector> 
90000
(
(5.05734 -0.482885 0)
(5.05406 -0.455704 0)
(5.0512 -0.43002 0)
(5.04837 -0.404548 0)
(5.0461 -0.383701 0)
(5.04365 -0.362148 0)
(5.04171 -0.345389 0)
(5.03947 -0.326595 0)
(5.03772 -0.312932 0)
(5.03555 -0.295723 0)
(5.03392 -0.284665 0)
(5.03172 -0.268372 0)
(5.03019 -0.259217 0)
(5.028 -0.243489 0)
(5.02655 -0.236128 0)
(5.02425 -0.220381 0)
(5.02289 -0.214666 0)
(5.02051 -0.198854 0)
(5.01928 -0.194189 0)
(5.01687 -0.178206 0)
(5.01582 -0.174989 0)
(5.01324 -0.158427 0)
(5.01236 -0.156212 0)
(5.00965 -0.13923 0)
(5.00907 -0.138211 0)
(5.00614 -0.12028 0)
(5.00594 -0.120428 0)
(5.00273 -0.102054 0)
(5.00293 -0.102774 0)
(4.99935 -0.084186 0)
(5.00008 -0.0849846 0)
(4.99604 -0.0669902 0)
(4.99687 -0.0660438 0)
(4.99302 -0.0511935 0)
(4.99225 -0.0456562 0)
(4.99019 -0.0358512 0)
(4.99153 -0.0289022 0)
(4.98651 -0.0204498 0)
(4.98628 -0.0153528 0)
(4.98651 -0.0100874 0)
(4.98553 -0.00452291 0)
(4.98249 -0.00254505 0)
(4.97814 0.00591383 0)
(4.97515 0.00559482 0)
(4.97425 0.0145591 0)
(4.97372 0.00960494 0)
(4.97255 0.00740219 0)
(4.97143 0.00453407 0)
(4.97025 0.00189006 0)
(4.96896 -0.0030463 0)
(4.96787 -0.00276895 0)
(4.96745 -0.00802579 0)
(4.96652 -0.00757337 0)
(4.96557 -0.0044434 0)
(4.96393 -0.0040751 0)
(4.96588 -0.00242647 0)
(4.96672 -0.00209013 0)
(4.96803 -0.000893417 0)
(4.96939 0.00122432 0)
(4.97029 0.00180354 0)
(4.97075 0.00167372 0)
(4.97089 0.00302604 0)
(4.97142 0.00131928 0)
(4.97116 0.000226444 0)
(4.97067 -0.000694433 0)
(4.97013 -0.0034063 0)
(4.96895 -0.0043091 0)
(4.96902 -0.00370178 0)
(4.96899 -0.000658637 0)
(4.96948 0.000463653 0)
(4.97093 0.00218414 0)
(4.97209 0.00172831 0)
(4.97206 0.00364527 0)
(4.97301 0.00111232 0)
(4.97292 0.000188574 0)
(4.97266 -0.000605263 0)
(4.97206 -0.00300731 0)
(4.97255 -0.00118081 0)
(4.97315 -0.000157898 0)
(4.97356 0.000954429 0)
(4.97411 0.00118119 0)
(4.97414 0.000361605 0)
(4.974 -0.000419308 0)
(4.97377 -0.00227751 0)
(4.97368 -0.000838408 0)
(4.97384 5.7936e-05 0)
(4.97407 0.000504629 0)
(4.97411 0.000137335 0)
(4.97396 -0.000459675 0)
(4.97379 -0.00148621 0)
(4.9743 -0.000297412 0)
(4.97442 0.000243796 0)
(4.97477 0.000423527 0)
(4.97478 0.000198486 0)
(4.97471 -0.000671188 0)
(4.97483 -3.23315e-05 0)
(4.97495 0.000162981 0)
(4.97505 0.000123555 0)
(4.97512 0.000104921 0)
(4.97531 0.000117458 0)
(5.05937 -0.503621 0)
(5.05873 -0.503176 0)
(5.05769 -0.50242 0)
(5.05626 -0.500862 0)
(5.0546 -0.498948 0)
(5.05271 -0.496049 0)
(5.05073 -0.492763 0)
(5.04856 -0.488212 0)
(5.04639 -0.483355 0)
(5.04401 -0.47669 0)
(5.04174 -0.470403 0)
(5.03921 -0.461651 0)
(5.03688 -0.453563 0)
(5.03422 -0.442276 0)
(5.03192 -0.432756 0)
(5.02909 -0.418772 0)
(5.02686 -0.407953 0)
(5.02393 -0.391311 0)
(5.02177 -0.379121 0)
(5.01861 -0.35944 0)
(5.0167 -0.346796 0)
(5.01331 -0.324023 0)
(5.01175 -0.310799 0)
(5.00811 -0.284489 0)
(5.00719 -0.272492 0)
(5.00299 -0.242065 0)
(5.00286 -0.231723 0)
(4.99817 -0.198048 0)
(4.99876 -0.188906 0)
(4.99365 -0.153426 0)
(4.99494 -0.145708 0)
(4.9895 -0.109621 0)
(4.99168 -0.10373 0)
(4.98574 -0.0658001 0)
(4.98901 -0.0643311 0)
(4.98206 -0.0272823 0)
(4.98474 -0.0253836 0)
(4.97813 0.00509634 0)
(4.98012 0.00743155 0)
(4.97403 0.0308678 0)
(4.97388 0.0358511 0)
(4.96888 0.0492932 0)
(4.9676 0.0522932 0)
(4.96528 0.044305 0)
(4.96737 0.0355196 0)
(4.96525 0.0170309 0)
(4.96717 0.00922118 0)
(4.96748 0.00085012 0)
(4.97006 -1.78118e-05 0)
(4.96843 -0.00576991 0)
(4.96986 -0.00770603 0)
(4.97052 -0.00853498 0)
(4.97253 -0.00839444 0)
(4.97312 -0.00868121 0)
(4.97387 -0.0052572 0)
(4.974 -0.00103843 0)
(4.97274 0.00170578 0)
(4.97272 0.00497592 0)
(4.9736 0.00747357 0)
(4.97326 0.009198 0)
(4.97334 0.00846746 0)
(4.97327 0.00574548 0)
(4.97316 0.00202849 0)
(4.97222 -0.00429688 0)
(4.97228 -0.00657617 0)
(4.97224 -0.0104326 0)
(4.97171 -0.0103546 0)
(4.97339 -0.00683876 0)
(4.97356 -0.00202641 0)
(4.9742 0.00269579 0)
(4.97412 0.00702196 0)
(4.97399 0.00860919 0)
(4.97428 0.00669617 0)
(4.9737 0.00167469 0)
(4.97386 -0.00194241 0)
(4.97413 -0.00418011 0)
(4.97421 -0.00328725 0)
(4.97458 -0.000303317 0)
(4.9748 0.00279078 0)
(4.97503 0.00519348 0)
(4.97498 0.00336375 0)
(4.97476 0.000207941 0)
(4.97476 -0.00255651 0)
(4.97485 -0.00191899 0)
(4.97486 -0.000430134 0)
(4.97513 0.0019031 0)
(4.97508 0.00163527 0)
(4.97469 -0.000439696 0)
(4.97457 -0.00164751 0)
(4.97463 -0.000463873 0)
(4.97485 0.00110379 0)
(4.97519 0.00220635 0)
(4.97522 0.00136636 0)
(4.97515 -0.000323817 0)
(4.97504 -0.000187782 0)
(4.97521 0.0005709 0)
(4.97524 0.000637701 0)
(4.97528 0.000259813 0)
(4.97536 0.00026833 0)
(4.97552 0.000321236 0)
(5.05821 -0.504797 0)
(5.05818 -0.504804 0)
(5.05816 -0.504744 0)
(5.05814 -0.504867 0)
(5.05817 -0.504693 0)
(5.05813 -0.504479 0)
(5.05813 -0.504289 0)
(5.05817 -0.504217 0)
(5.05819 -0.50404 0)
(5.05815 -0.503638 0)
(5.05809 -0.50343 0)
(5.05802 -0.503284 0)
(5.05788 -0.50282 0)
(5.0577 -0.502079 0)
(5.05754 -0.501379 0)
(5.05734 -0.500469 0)
(5.05712 -0.499701 0)
(5.05674 -0.498429 0)
(5.0563 -0.49693 0)
(5.05577 -0.495081 0)
(5.05516 -0.492779 0)
(5.05436 -0.489801 0)
(5.05343 -0.48592 0)
(5.05229 -0.481062 0)
(5.05106 -0.475409 0)
(5.04951 -0.468325 0)
(5.04786 -0.460185 0)
(5.04578 -0.449501 0)
(5.04377 -0.438624 0)
(5.04111 -0.423022 0)
(5.03885 -0.410567 0)
(5.03535 -0.388159 0)
(5.03316 -0.37455 0)
(5.02905 -0.344937 0)
(5.02716 -0.330491 0)
(5.02248 -0.294253 0)
(5.02131 -0.282701 0)
(5.0161 -0.239253 0)
(5.01583 -0.232233 0)
(5.01091 -0.188075 0)
(5.01145 -0.185274 0)
(5.00801 -0.146829 0)
(5.01212 -0.145378 0)
(5.00494 -0.113324 0)
(5.01159 -0.10303 0)
(4.99893 -0.0676281 0)
(5.00042 -0.0602166 0)
(4.99303 -0.0418989 0)
(4.99498 -0.0338811 0)
(4.98941 -0.023347 0)
(4.98935 -0.0151928 0)
(4.98672 -0.0102082 0)
(4.98799 -0.00494959 0)
(4.98657 -0.00122292 0)
(4.9855 0.00354024 0)
(4.98473 0.0049453 0)
(4.98009 0.00981773 0)
(4.97937 0.00995841 0)
(4.97789 0.00701632 0)
(4.9778 0.00467688 0)
(4.9768 -0.00257623 0)
(4.97735 -0.00419534 0)
(4.97642 -0.0107512 0)
(4.9766 -0.0123572 0)
(4.97733 -0.0119666 0)
(4.97825 -0.0108112 0)
(4.98043 -0.00486603 0)
(4.97929 -0.00118675 0)
(4.97967 0.00331145 0)
(4.97965 0.00705687 0)
(4.97869 0.00732231 0)
(4.97749 0.00482213 0)
(4.97654 -0.000874504 0)
(4.97669 -0.002732 0)
(4.97667 -0.00316304 0)
(4.97746 -0.00152428 0)
(4.97773 0.000327135 0)
(4.97808 0.00539462 0)
(4.97765 0.00487201 0)
(4.9778 0.0034848 0)
(4.97675 -0.00253199 0)
(4.97673 -0.00372419 0)
(4.97723 -0.00290086 0)
(4.97723 -0.00214812 0)
(4.97762 0.000446732 0)
(4.97728 -4.01126e-05 0)
(4.97697 -0.0010293 0)
(4.97647 -0.00252481 0)
(4.97652 -0.00175515 0)
(4.97661 -0.000301265 0)
(4.97657 -6.56781e-05 0)
(4.97659 -0.000438194 0)
(4.97635 -0.00152828 0)
(4.97636 -0.00117736 0)
(4.97621 -0.000400621 0)
(4.97615 -0.000254163 0)
(4.97609 -0.000144494 0)
(4.97612 2.45969e-05 0)
(4.97618 0.00054531 0)
(4.97632 0.000380685 0)
(5.05828 -0.502293 0)
(5.05828 -0.502272 0)
(5.05825 -0.50237 0)
(5.05825 -0.502421 0)
(5.05825 -0.5023 0)
(5.05827 -0.502198 0)
(5.05827 -0.502154 0)
(5.05832 -0.502181 0)
(5.05841 -0.502348 0)
(5.05841 -0.502381 0)
(5.05841 -0.502481 0)
(5.05841 -0.502629 0)
(5.05844 -0.502568 0)
(5.05842 -0.502723 0)
(5.05841 -0.50293 0)
(5.05847 -0.50294 0)
(5.0585 -0.503148 0)
(5.05854 -0.503394 0)
(5.05867 -0.503227 0)
(5.05877 -0.503263 0)
(5.05885 -0.503412 0)
(5.05885 -0.503343 0)
(5.05881 -0.503046 0)
(5.05885 -0.502827 0)
(5.0589 -0.502762 0)
(5.05894 -0.502766 0)
(5.05893 -0.502584 0)
(5.05887 -0.502175 0)
(5.05877 -0.501453 0)
(5.05862 -0.500728 0)
(5.05855 -0.499448 0)
(5.05839 -0.49776 0)
(5.05805 -0.495219 0)
(5.05742 -0.491322 0)
(5.05661 -0.486425 0)
(5.05532 -0.478645 0)
(5.05392 -0.470146 0)
(5.05144 -0.454858 0)
(5.04932 -0.441538 0)
(5.04512 -0.413396 0)
(5.04295 -0.396019 0)
(5.0366 -0.349186 0)
(5.03644 -0.331141 0)
(5.02768 -0.260813 0)
(5.03093 -0.248677 0)
(5.02075 -0.168457 0)
(5.02551 -0.169319 0)
(5.01395 -0.0932448 0)
(5.01824 -0.101194 0)
(5.00827 -0.04093 0)
(5.01045 -0.0502579 0)
(5.00195 -0.0118253 0)
(5.00092 -0.0173447 0)
(4.9942 0.00341356 0)
(4.99045 0.003532 0)
(4.98868 0.01013 0)
(4.98635 0.00425324 0)
(4.98543 0.00141289 0)
(4.98522 -0.00448312 0)
(4.98387 -0.00433822 0)
(4.98336 -0.00934399 0)
(4.98084 -0.00738762 0)
(4.98076 -0.00648929 0)
(4.98098 -0.0049183 0)
(4.98196 -0.000240325 0)
(4.98238 0.00493121 0)
(4.98383 0.00747246 0)
(4.98324 0.00735105 0)
(4.98234 0.00544165 0)
(4.98081 0.00176742 0)
(4.97999 -0.00163936 0)
(4.97935 -0.00247337 0)
(4.97962 -0.000940629 0)
(4.97948 0.00190744 0)
(4.97987 0.00327192 0)
(4.97999 0.00795741 0)
(4.98076 0.00527529 0)
(4.98065 0.0021179 0)
(4.97995 -0.000719852 0)
(4.98075 -0.0033189 0)
(4.97926 0.000889368 0)
(4.97946 0.00166698 0)
(4.97984 0.00281255 0)
(4.97999 0.00116133 0)
(4.97983 -0.000256766 0)
(4.97935 -0.00269109 0)
(4.97886 -0.00209301 0)
(4.97884 -0.00107486 0)
(4.97881 4.30543e-05 0)
(4.97877 0.000550305 0)
(4.97855 0.000431449 0)
(4.97827 0.000726493 0)
(4.97797 0.00119393 0)
(4.97797 0.00117871 0)
(4.97788 0.000808942 0)
(4.97779 0.000102802 0)
(4.97773 0.000229598 0)
(4.97777 0.000435047 0)
(4.97782 0.000836403 0)
(4.978 0.000406216 0)
(5.05961 -0.50273 0)
(5.05966 -0.502726 0)
(5.05969 -0.502799 0)
(5.05972 -0.502826 0)
(5.05969 -0.502569 0)
(5.05967 -0.502334 0)
(5.05966 -0.502324 0)
(5.0597 -0.502221 0)
(5.05985 -0.502041 0)
(5.05992 -0.501945 0)
(5.06002 -0.501889 0)
(5.06014 -0.501829 0)
(5.06029 -0.501817 0)
(5.06049 -0.501882 0)
(5.06061 -0.501739 0)
(5.06074 -0.501497 0)
(5.06072 -0.501581 0)
(5.06066 -0.501913 0)
(5.06068 -0.501957 0)
(5.06073 -0.501862 0)
(5.06074 -0.501976 0)
(5.0608 -0.502114 0)
(5.06092 -0.502128 0)
(5.06105 -0.502092 0)
(5.06109 -0.502245 0)
(5.06113 -0.502416 0)
(5.06116 -0.502538 0)
(5.06121 -0.502389 0)
(5.06124 -0.502436 0)
(5.06128 -0.502419 0)
(5.06128 -0.502641 0)
(5.06134 -0.502584 0)
(5.06137 -0.502505 0)
(5.0614 -0.502307 0)
(5.06139 -0.502361 0)
(5.06135 -0.502534 0)
(5.06129 -0.502449 0)
(5.06116 -0.502185 0)
(5.06102 -0.501705 0)
(5.06081 -0.500859 0)
(5.06047 -0.499062 0)
(5.05991 -0.49625 0)
(5.05914 -0.491178 0)
(5.05775 -0.483032 0)
(5.05603 -0.471353 0)
(5.05285 -0.450313 0)
(5.05026 -0.429648 0)
(5.04465 -0.386266 0)
(5.04268 -0.363354 0)
(5.03432 -0.294154 0)
(5.03474 -0.281333 0)
(5.02395 -0.196267 0)
(5.02551 -0.198113 0)
(5.01503 -0.119676 0)
(5.01533 -0.13023 0)
(5.00621 -0.0827014 0)
(5.01235 -0.0926865 0)
(5.00099 -0.058821 0)
(5.00278 -0.0579368 0)
(4.9947 -0.0389653 0)
(4.99499 -0.0309732 0)
(4.99243 -0.0206159 0)
(4.99042 -0.0102962 0)
(4.98662 -0.000587322 0)
(4.98361 0.00907945 0)
(4.9832 0.0100532 0)
(4.98174 0.00935043 0)
(4.98033 0.00178844 0)
(4.97992 -0.00243966 0)
(4.97927 -0.00942973 0)
(4.97918 -0.0107725 0)
(4.97973 -0.00858221 0)
(4.98071 -0.00282225 0)
(4.98009 0.00194126 0)
(4.98161 0.00917474 0)
(4.98151 0.00985839 0)
(4.98089 0.0054533 0)
(4.98086 -0.000525102 0)
(4.98056 -0.004819 0)
(4.98096 -0.00473599 0)
(4.9807 -0.00357068 0)
(4.98165 0.00116987 0)
(4.98182 0.00227864 0)
(4.98107 0.000674938 0)
(4.98079 -0.000952668 0)
(4.98035 -0.0028627 0)
(4.98066 -0.00224575 0)
(4.98078 -0.0014431 0)
(4.98073 2.29372e-05 0)
(4.98055 8.96712e-05 0)
(4.98011 -0.00107926 0)
(4.97984 -0.00150893 0)
(4.97992 -0.00131394 0)
(4.98016 -0.00035692 0)
(4.98022 0.000486167 0)
(4.98019 0.000539215 0)
(4.9802 0.000509086 0)
(4.98035 0.000550795 0)
(4.98032 0.001175 0)
(4.98048 0.000528075 0)
(5.06135 -0.503641 0)
(5.0614 -0.503591 0)
(5.06144 -0.503587 0)
(5.06145 -0.503638 0)
(5.06149 -0.50366 0)
(5.0615 -0.503581 0)
(5.06153 -0.503525 0)
(5.06158 -0.503485 0)
(5.06165 -0.503425 0)
(5.06175 -0.503388 0)
(5.06184 -0.503369 0)
(5.06193 -0.503374 0)
(5.06205 -0.503425 0)
(5.06215 -0.503484 0)
(5.06219 -0.503484 0)
(5.06223 -0.503466 0)
(5.06229 -0.503467 0)
(5.06233 -0.503584 0)
(5.06239 -0.503654 0)
(5.06245 -0.503525 0)
(5.06244 -0.503545 0)
(5.06236 -0.503794 0)
(5.06234 -0.50388 0)
(5.06235 -0.503769 0)
(5.06234 -0.503777 0)
(5.06226 -0.504103 0)
(5.06226 -0.504346 0)
(5.06228 -0.504277 0)
(5.06234 -0.504075 0)
(5.06233 -0.504184 0)
(5.06231 -0.504543 0)
(5.06239 -0.504436 0)
(5.06252 -0.504553 0)
(5.06264 -0.504795 0)
(5.0627 -0.504858 0)
(5.0626 -0.505187 0)
(5.06253 -0.50517 0)
(5.06257 -0.505156 0)
(5.06253 -0.505356 0)
(5.06259 -0.505379 0)
(5.06268 -0.50541 0)
(5.06287 -0.505533 0)
(5.06308 -0.505487 0)
(5.06321 -0.505305 0)
(5.06328 -0.505016 0)
(5.06326 -0.504487 0)
(5.06308 -0.503165 0)
(5.06264 -0.500677 0)
(5.06178 -0.495668 0)
(5.05999 -0.486403 0)
(5.05789 -0.472493 0)
(5.05348 -0.445344 0)
(5.05033 -0.419488 0)
(5.04147 -0.357474 0)
(5.04075 -0.330294 0)
(5.02589 -0.228638 0)
(5.0319 -0.216186 0)
(5.01419 -0.10725 0)
(5.02306 -0.112668 0)
(5.00561 -0.0289369 0)
(5.01093 -0.031549 0)
(4.9993 0.0183914 0)
(4.997 0.020325 0)
(4.99177 0.0438559 0)
(4.98556 0.0313019 0)
(4.98143 0.0121503 0)
(4.98091 0.00198921 0)
(4.9799 -0.00301322 0)
(4.97892 -0.00753135 0)
(4.97922 -0.00833835 0)
(4.97997 -0.00579291 0)
(4.98219 0.000205277 0)
(4.98344 0.00843046 0)
(4.98302 0.00803311 0)
(4.98201 0.00757202 0)
(4.98074 0.00290558 0)
(4.9802 0.000362111 0)
(4.98032 -6.28574e-05 0)
(4.98057 -0.000724003 0)
(4.98125 0.00154608 0)
(4.98173 0.00283562 0)
(4.98208 0.00232535 0)
(4.98162 0.000929499 0)
(4.98092 -0.000640136 0)
(4.98121 -0.00307255 0)
(4.98157 -0.00368259 0)
(4.98213 -0.00124216 0)
(4.98222 0.00042729 0)
(4.98212 0.000471238 0)
(4.98195 -0.000521056 0)
(4.98203 -0.000223644 0)
(4.98238 0.000329378 0)
(4.9828 0.000935662 0)
(4.98287 0.000295097 0)
(4.98283 -0.000186267 0)
(4.9828 -0.000465329 0)
(4.98303 1.79995e-05 0)
(4.98325 0.000412809 0)
(4.98313 0.000812868 0)
(4.98308 0.000161171 0)
(5.06278 -0.504556 0)
(5.0628 -0.504563 0)
(5.06284 -0.504577 0)
(5.06285 -0.504607 0)
(5.06287 -0.504647 0)
(5.0629 -0.504652 0)
(5.06295 -0.504636 0)
(5.06298 -0.504728 0)
(5.06291 -0.504856 0)
(5.06289 -0.504891 0)
(5.06289 -0.50493 0)
(5.06286 -0.504993 0)
(5.06282 -0.505043 0)
(5.06282 -0.504882 0)
(5.06287 -0.504691 0)
(5.0629 -0.504645 0)
(5.06294 -0.50464 0)
(5.06295 -0.504723 0)
(5.06297 -0.504773 0)
(5.063 -0.50471 0)
(5.06298 -0.504793 0)
(5.06291 -0.505052 0)
(5.06288 -0.505085 0)
(5.06286 -0.504975 0)
(5.06276 -0.5051 0)
(5.06265 -0.505457 0)
(5.06267 -0.505608 0)
(5.06269 -0.505644 0)
(5.06271 -0.50555 0)
(5.06277 -0.505493 0)
(5.06279 -0.505796 0)
(5.06291 -0.506059 0)
(5.06307 -0.506202 0)
(5.06321 -0.506174 0)
(5.06333 -0.506196 0)
(5.06339 -0.506565 0)
(5.06357 -0.506744 0)
(5.06391 -0.506693 0)
(5.06436 -0.506807 0)
(5.06422 -0.507358 0)
(5.06416 -0.507443 0)
(5.06411 -0.507498 0)
(5.06411 -0.507501 0)
(5.06415 -0.507463 0)
(5.06423 -0.50746 0)
(5.06431 -0.507508 0)
(5.06435 -0.507606 0)
(5.06453 -0.507539 0)
(5.06463 -0.507456 0)
(5.06473 -0.507281 0)
(5.06486 -0.506834 0)
(5.06494 -0.506173 0)
(5.06486 -0.504119 0)
(5.06447 -0.500355 0)
(5.06346 -0.491415 0)
(5.06084 -0.476061 0)
(5.05743 -0.451211 0)
(5.05043 -0.406482 0)
(5.04652 -0.36892 0)
(5.03587 -0.286037 0)
(5.03602 -0.262331 0)
(5.0253 -0.167078 0)
(5.02616 -0.166406 0)
(5.01931 -0.101455 0)
(5.03087 -0.112871 0)
(5.00972 -0.0589905 0)
(5.00676 -0.0523477 0)
(5.00225 -0.0358034 0)
(4.9967 -0.0195817 0)
(4.99333 -0.00797982 0)
(4.98269 0.000768566 0)
(4.98529 0.0106597 0)
(4.98442 0.00895301 0)
(4.98222 -0.000172132 0)
(4.98154 -0.00133457 0)
(4.98223 -0.0107945 0)
(4.98047 -0.00724555 0)
(4.98125 -0.00333291 0)
(4.9821 0.00195126 0)
(4.9832 0.00519527 0)
(4.98303 0.00463753 0)
(4.98252 0.00181142 0)
(4.98161 -0.000887498 0)
(4.9823 -0.00353147 0)
(4.98256 -0.00309483 0)
(4.983 -0.000746014 0)
(4.9837 0.000363639 0)
(4.98371 0.000132246 0)
(4.98351 -0.000770012 0)
(4.98396 -0.00200834 0)
(4.98421 -0.00179427 0)
(4.9847 -0.000717534 0)
(4.98499 0.000502071 0)
(4.9851 0.000646171 0)
(4.98512 0.000581477 0)
(4.98518 0.000627927 0)
(4.98548 0.000697965 0)
(4.98544 0.000880375 0)
(4.9854 0.00104105 0)
(4.98533 0.000377711 0)
(5.0644 -0.505226 0)
(5.06442 -0.505251 0)
(5.06446 -0.505267 0)
(5.0645 -0.505304 0)
(5.06451 -0.505329 0)
(5.06454 -0.505364 0)
(5.06457 -0.505378 0)
(5.06459 -0.505452 0)
(5.06456 -0.505517 0)
(5.06454 -0.505539 0)
(5.06452 -0.505584 0)
(5.06451 -0.505609 0)
(5.06449 -0.5056 0)
(5.06441 -0.505717 0)
(5.06438 -0.505808 0)
(5.0644 -0.505744 0)
(5.06436 -0.505872 0)
(5.0643 -0.506107 0)
(5.06428 -0.506057 0)
(5.06429 -0.506057 0)
(5.06417 -0.506421 0)
(5.06417 -0.506642 0)
(5.06417 -0.50651 0)
(5.06418 -0.506399 0)
(5.06398 -0.506841 0)
(5.06402 -0.50705 0)
(5.06409 -0.506963 0)
(5.06415 -0.506974 0)
(5.0642 -0.506997 0)
(5.06425 -0.507177 0)
(5.0643 -0.50747 0)
(5.06445 -0.507657 0)
(5.06464 -0.507644 0)
(5.06479 -0.507729 0)
(5.06492 -0.507797 0)
(5.0651 -0.507757 0)
(5.06528 -0.507898 0)
(5.06545 -0.50807 0)
(5.06561 -0.508265 0)
(5.06573 -0.508418 0)
(5.06565 -0.508422 0)
(5.06562 -0.508405 0)
(5.06555 -0.508345 0)
(5.06552 -0.508244 0)
(5.06551 -0.508191 0)
(5.06555 -0.508171 0)
(5.06565 -0.50819 0)
(5.06578 -0.508188 0)
(5.06593 -0.508126 0)
(5.06606 -0.508112 0)
(5.06622 -0.508003 0)
(5.06644 -0.507842 0)
(5.06659 -0.507781 0)
(5.06693 -0.507648 0)
(5.06731 -0.507065 0)
(5.06759 -0.506406 0)
(5.06767 -0.50534 0)
(5.06728 -0.502972 0)
(5.06617 -0.497284 0)
(5.06354 -0.483943 0)
(5.06023 -0.461211 0)
(5.05298 -0.412826 0)
(5.04954 -0.371874 0)
(5.03415 -0.266454 0)
(5.04294 -0.233858 0)
(5.02348 -0.094616 0)
(5.0357 -0.0977027 0)
(5.01409 0.00326807 0)
(5.01694 0.00468317 0)
(5.00506 0.0567226 0)
(4.99509 0.0478642 0)
(4.98737 0.0190769 0)
(4.98663 0.00583485 0)
(4.98362 -0.00849444 0)
(4.98361 -0.00926866 0)
(4.98439 -0.0093435 0)
(4.98526 -0.00355565 0)
(4.98695 0.0102345 0)
(4.987 0.0129379 0)
(4.98645 0.0105375 0)
(4.98458 0.00453246 0)
(4.98408 -0.00323404 0)
(4.9845 -0.00416196 0)
(4.98508 -0.00339811 0)
(4.98572 -0.00099814 0)
(4.98607 0.00329015 0)
(4.98636 0.00172128 0)
(4.98602 0.000363758 0)
(4.986 -0.00195033 0)
(4.98599 -0.00203601 0)
(4.9863 -0.00110668 0)
(4.98672 3.43134e-05 0)
(4.98648 0.000135895 0)
(4.98656 -0.000420211 0)
(4.98636 6.87717e-05 0)
(4.98651 0.000418521 0)
(4.98669 0.00117375 0)
(4.98677 0.00084076 0)
(4.9869 0.0002845 0)
(4.98687 -0.000230199 0)
(5.06598 -0.506408 0)
(5.06601 -0.506406 0)
(5.06604 -0.506425 0)
(5.06602 -0.506457 0)
(5.06602 -0.506521 0)
(5.06604 -0.506509 0)
(5.06604 -0.506538 0)
(5.06594 -0.506717 0)
(5.06596 -0.506765 0)
(5.06596 -0.506849 0)
(5.06596 -0.506929 0)
(5.06598 -0.507002 0)
(5.066 -0.507113 0)
(5.066 -0.50709 0)
(5.06601 -0.507035 0)
(5.06596 -0.507098 0)
(5.06591 -0.507074 0)
(5.06587 -0.507075 0)
(5.06568 -0.507398 0)
(5.06568 -0.507671 0)
(5.06569 -0.507659 0)
(5.0657 -0.507565 0)
(5.06564 -0.507585 0)
(5.06556 -0.507675 0)
(5.06554 -0.507675 0)
(5.0656 -0.507776 0)
(5.06563 -0.507823 0)
(5.06566 -0.50779 0)
(5.06569 -0.507826 0)
(5.06576 -0.507903 0)
(5.06588 -0.50787 0)
(5.06597 -0.507925 0)
(5.06608 -0.507997 0)
(5.0662 -0.50788 0)
(5.06632 -0.507857 0)
(5.06637 -0.508098 0)
(5.06646 -0.508152 0)
(5.06657 -0.508179 0)
(5.06659 -0.508413 0)
(5.06662 -0.508623 0)
(5.06664 -0.50865 0)
(5.06669 -0.50866 0)
(5.06681 -0.508517 0)
(5.0669 -0.508479 0)
(5.06693 -0.508614 0)
(5.0669 -0.508681 0)
(5.06697 -0.508539 0)
(5.06705 -0.508334 0)
(5.06709 -0.508173 0)
(5.06713 -0.507996 0)
(5.06714 -0.50779 0)
(5.06724 -0.507432 0)
(5.06745 -0.506824 0)
(5.06756 -0.506626 0)
(5.06795 -0.506231 0)
(5.06832 -0.505895 0)
(5.06848 -0.505747 0)
(5.06852 -0.50589 0)
(5.06836 -0.506237 0)
(5.06818 -0.506081 0)
(5.0679 -0.504972 0)
(5.0676 -0.502259 0)
(5.06692 -0.495886 0)
(5.06461 -0.484162 0)
(5.06077 -0.456964 0)
(5.05443 -0.414846 0)
(5.04886 -0.353939 0)
(5.03951 -0.269577 0)
(5.03725 -0.223289 0)
(5.02983 -0.137761 0)
(5.03686 -0.1333 0)
(5.0214 -0.0827352 0)
(5.01435 -0.0540643 0)
(5.00819 -0.0367439 0)
(5.00379 -0.0189571 0)
(4.99764 -0.00627914 0)
(4.9904 0.00761511 0)
(4.9892 0.00784261 0)
(4.98879 0.0041368 0)
(4.98656 -0.00473126 0)
(4.98679 -0.00608021 0)
(4.98707 -0.00588962 0)
(4.98843 -0.00286732 0)
(4.98882 0.000144593 0)
(4.98984 0.00333352 0)
(4.98958 0.00299569 0)
(4.98863 0.000729559 0)
(4.98818 -0.00322233 0)
(4.98825 -0.0030336 0)
(4.98854 -0.00141986 0)
(4.98889 0.000232425 0)
(4.98883 0.000185557 0)
(4.98852 -0.000420771 0)
(4.98776 -0.000801637 0)
(4.98776 -9.06273e-05 0)
(4.98763 0.000528187 0)
(4.98775 0.00159153 0)
(4.98782 0.00104371 0)
(4.98798 0.000291431 0)
(4.98745 -0.000377091 0)
(5.06716 -0.507475 0)
(5.06716 -0.507517 0)
(5.06718 -0.507545 0)
(5.06719 -0.507483 0)
(5.06727 -0.507347 0)
(5.06706 -0.507554 0)
(5.06686 -0.507795 0)
(5.06687 -0.507981 0)
(5.06695 -0.508137 0)
(5.067 -0.508273 0)
(5.06706 -0.50823 0)
(5.06716 -0.508215 0)
(5.06709 -0.508359 0)
(5.06708 -0.508493 0)
(5.06708 -0.508498 0)
(5.06705 -0.508379 0)
(5.06696 -0.5083 0)
(5.06686 -0.508459 0)
(5.06686 -0.508589 0)
(5.06684 -0.508664 0)
(5.06685 -0.50877 0)
(5.06687 -0.508818 0)
(5.06677 -0.508557 0)
(5.06675 -0.508368 0)
(5.06674 -0.508297 0)
(5.06682 -0.508382 0)
(5.06689 -0.508456 0)
(5.0669 -0.508451 0)
(5.06691 -0.508481 0)
(5.06693 -0.508606 0)
(5.06696 -0.508654 0)
(5.06701 -0.508672 0)
(5.06701 -0.50868 0)
(5.06698 -0.508731 0)
(5.06694 -0.50886 0)
(5.06693 -0.508806 0)
(5.06695 -0.508728 0)
(5.06695 -0.508774 0)
(5.06694 -0.508892 0)
(5.06697 -0.508925 0)
(5.06701 -0.508943 0)
(5.06709 -0.509003 0)
(5.06732 -0.508788 0)
(5.06752 -0.50857 0)
(5.06767 -0.508547 0)
(5.06779 -0.508565 0)
(5.06792 -0.508468 0)
(5.06804 -0.508161 0)
(5.06807 -0.507715 0)
(5.06796 -0.507729 0)
(5.06787 -0.507373 0)
(5.06778 -0.506895 0)
(5.06754 -0.506808 0)
(5.06756 -0.506264 0)
(5.06811 -0.505659 0)
(5.06823 -0.505516 0)
(5.06846 -0.50538 0)
(5.06861 -0.505471 0)
(5.06844 -0.505945 0)
(5.06835 -0.506218 0)
(5.06821 -0.506377 0)
(5.06828 -0.505874 0)
(5.06844 -0.504803 0)
(5.06837 -0.504484 0)
(5.0681 -0.503964 0)
(5.06742 -0.501595 0)
(5.06586 -0.493972 0)
(5.06257 -0.475353 0)
(5.0567 -0.432748 0)
(5.04763 -0.370912 0)
(5.04075 -0.27329 0)
(5.0309 -0.169762 0)
(5.02794 -0.0957138 0)
(5.01462 -0.0148293 0)
(5.02077 0.00628458 0)
(5.00849 0.0578357 0)
(4.99754 0.0415743 0)
(4.99779 0.0144345 0)
(4.99339 -0.00393715 0)
(4.9904 -0.0107935 0)
(4.99095 -0.0102834 0)
(4.99333 -0.00283629 0)
(4.99426 0.00875105 0)
(4.99422 0.0102969 0)
(4.99305 0.00676399 0)
(4.99133 0.00233096 0)
(4.9901 -0.00332852 0)
(4.99004 -0.00335933 0)
(4.9909 -0.000906837 0)
(4.99101 0.00156179 0)
(4.99079 0.00114653 0)
(4.99016 -8.84526e-05 0)
(4.98932 -0.00143931 0)
(4.98918 -0.000923454 0)
(4.98956 0.000581627 0)
(4.98896 0.00204235 0)
(4.98868 0.00128553 0)
(4.98838 0.000501765 0)
(4.98797 -0.000543173 0)
(4.98786 -0.000394489 0)
(5.06791 -0.507578 0)
(5.06788 -0.507494 0)
(5.06789 -0.507276 0)
(5.06794 -0.507165 0)
(5.06769 -0.507583 0)
(5.06756 -0.507805 0)
(5.06749 -0.507943 0)
(5.06753 -0.508204 0)
(5.0676 -0.50837 0)
(5.06769 -0.508505 0)
(5.06773 -0.508505 0)
(5.06772 -0.508536 0)
(5.06772 -0.508556 0)
(5.06771 -0.508566 0)
(5.06768 -0.508583 0)
(5.06762 -0.508543 0)
(5.06758 -0.508418 0)
(5.06757 -0.508403 0)
(5.06755 -0.508501 0)
(5.06755 -0.508551 0)
(5.06754 -0.50852 0)
(5.06746 -0.508428 0)
(5.06744 -0.508419 0)
(5.06748 -0.508321 0)
(5.06757 -0.508135 0)
(5.06762 -0.508027 0)
(5.06766 -0.507986 0)
(5.06769 -0.508116 0)
(5.06771 -0.508312 0)
(5.06769 -0.508394 0)
(5.06771 -0.508382 0)
(5.06775 -0.508303 0)
(5.06768 -0.508232 0)
(5.06762 -0.508237 0)
(5.06745 -0.50833 0)
(5.06726 -0.508353 0)
(5.0671 -0.508225 0)
(5.06699 -0.50829 0)
(5.06697 -0.508392 0)
(5.06697 -0.508418 0)
(5.06704 -0.508421 0)
(5.06721 -0.508301 0)
(5.06742 -0.508172 0)
(5.06769 -0.507957 0)
(5.06799 -0.507699 0)
(5.0683 -0.507691 0)
(5.0687 -0.507117 0)
(5.06885 -0.506685 0)
(5.06873 -0.506809 0)
(5.0685 -0.506675 0)
(5.06825 -0.506422 0)
(5.0679 -0.506312 0)
(5.06747 -0.506051 0)
(5.06763 -0.505335 0)
(5.06805 -0.505051 0)
(5.06811 -0.504995 0)
(5.06828 -0.504908 0)
(5.06847 -0.504948 0)
(5.06836 -0.505402 0)
(5.06819 -0.505837 0)
(5.06809 -0.505977 0)
(5.06821 -0.505769 0)
(5.06826 -0.505334 0)
(5.06819 -0.505108 0)
(5.06815 -0.505111 0)
(5.06807 -0.505284 0)
(5.06794 -0.505722 0)
(5.06785 -0.50585 0)
(5.06752 -0.504346 0)
(5.06648 -0.499203 0)
(5.06341 -0.480611 0)
(5.05921 -0.454196 0)
(5.04793 -0.363948 0)
(5.04713 -0.328107 0)
(5.03028 -0.185663 0)
(5.03893 -0.172347 0)
(5.02193 -0.102469 0)
(5.03385 -0.0808204 0)
(5.01318 -0.0445845 0)
(5.00462 -0.0234988 0)
(5.00165 -0.0101191 0)
(4.99832 0.00435797 0)
(4.99665 0.00522922 0)
(4.99407 0.00333928 0)
(4.99129 -0.00352266 0)
(4.99059 -0.00408225 0)
(4.99058 -0.00385671 0)
(4.99114 -0.000211278 0)
(4.99083 0.00190064 0)
(4.99057 0.00182331 0)
(4.98984 -1.56681e-05 0)
(4.98857 -0.0026599 0)
(4.9885 -0.00207016 0)
(4.98906 -3.53204e-05 0)
(4.9888 0.00131307 0)
(4.9886 0.00118471 0)
(4.98804 -0.000247 0)
(4.98772 -0.000671111 0)
(4.98765 -0.000488324 0)
(4.9876 -5.01985e-05 0)
(5.0677 -0.507531 0)
(5.06753 -0.507797 0)
(5.06739 -0.508208 0)
(5.06739 -0.508313 0)
(5.06738 -0.508303 0)
(5.0674 -0.508396 0)
(5.06747 -0.508609 0)
(5.0675 -0.50866 0)
(5.06754 -0.508807 0)
(5.06748 -0.509015 0)
(5.06746 -0.50906 0)
(5.06745 -0.509091 0)
(5.06746 -0.509091 0)
(5.06744 -0.509181 0)
(5.06736 -0.50932 0)
(5.06732 -0.509385 0)
(5.06734 -0.509416 0)
(5.06735 -0.509418 0)
(5.06735 -0.509387 0)
(5.06736 -0.509342 0)
(5.06732 -0.509363 0)
(5.0673 -0.509396 0)
(5.06727 -0.509411 0)
(5.06754 -0.50917 0)
(5.06768 -0.509 0)
(5.06772 -0.508912 0)
(5.06775 -0.508784 0)
(5.06776 -0.508688 0)
(5.06781 -0.508802 0)
(5.06779 -0.508984 0)
(5.06787 -0.50886 0)
(5.0681 -0.508207 0)
(5.06807 -0.508081 0)
(5.06791 -0.508002 0)
(5.06748 -0.507875 0)
(5.0674 -0.507802 0)
(5.06727 -0.507526 0)
(5.06709 -0.507169 0)
(5.06693 -0.507369 0)
(5.06682 -0.507552 0)
(5.06688 -0.507313 0)
(5.06698 -0.507326 0)
(5.06726 -0.507122 0)
(5.06763 -0.50678 0)
(5.06798 -0.506958 0)
(5.06863 -0.506471 0)
(5.06898 -0.505909 0)
(5.06904 -0.505827 0)
(5.06894 -0.505753 0)
(5.06837 -0.505623 0)
(5.06819 -0.505566 0)
(5.06792 -0.505486 0)
(5.06748 -0.505416 0)
(5.06749 -0.505301 0)
(5.06789 -0.505264 0)
(5.06795 -0.505234 0)
(5.06806 -0.505179 0)
(5.06823 -0.505001 0)
(5.06832 -0.504962 0)
(5.06824 -0.50527 0)
(5.0682 -0.505619 0)
(5.06812 -0.505987 0)
(5.06799 -0.506032 0)
(5.06796 -0.505983 0)
(5.0679 -0.505985 0)
(5.06783 -0.506081 0)
(5.06778 -0.506276 0)
(5.06773 -0.506486 0)
(5.06779 -0.506683 0)
(5.06773 -0.506647 0)
(5.06754 -0.506402 0)
(5.06716 -0.504916 0)
(5.06593 -0.499199 0)
(5.06362 -0.48249 0)
(5.05439 -0.429485 0)
(5.05257 -0.379309 0)
(5.02857 -0.199167 0)
(5.04612 -0.180764 0)
(5.01731 -0.012232 0)
(5.01623 -0.0114853 0)
(5.00874 0.0584608 0)
(4.99614 0.0362332 0)
(4.9903 0.00577144 0)
(4.99233 -0.00179898 0)
(4.99046 -0.00721948 0)
(4.99019 -0.00625091 0)
(4.98929 -6.57388e-05 0)
(4.98821 0.00813788 0)
(4.98757 0.00680943 0)
(4.98661 0.00191492 0)
(4.98585 -0.0026607 0)
(4.98599 -0.00247826 0)
(4.9869 0.000397976 0)
(4.9871 0.00316729 0)
(4.98678 0.00225358 0)
(4.98668 -5.81778e-05 0)
(4.98607 -0.0016119 0)
(4.98613 -0.0011329 0)
(4.98631 -0.000405526 0)
(4.98609 0.00018509 0)
(5.06679 -0.507741 0)
(5.0668 -0.50773 0)
(5.06683 -0.507704 0)
(5.06684 -0.507717 0)
(5.06683 -0.507774 0)
(5.06682 -0.507794 0)
(5.06682 -0.507801 0)
(5.0668 -0.507841 0)
(5.06679 -0.507866 0)
(5.06678 -0.507876 0)
(5.06681 -0.507962 0)
(5.06682 -0.507988 0)
(5.06682 -0.508065 0)
(5.06678 -0.508222 0)
(5.06678 -0.508255 0)
(5.06684 -0.508304 0)
(5.06697 -0.508336 0)
(5.06701 -0.508333 0)
(5.06704 -0.508293 0)
(5.0671 -0.508268 0)
(5.06714 -0.508305 0)
(5.06716 -0.50834 0)
(5.06727 -0.508319 0)
(5.06747 -0.508234 0)
(5.06766 -0.508099 0)
(5.06779 -0.507982 0)
(5.06781 -0.50784 0)
(5.06781 -0.507761 0)
(5.06785 -0.507861 0)
(5.06786 -0.508102 0)
(5.06816 -0.507835 0)
(5.06854 -0.507254 0)
(5.06852 -0.506863 0)
(5.06838 -0.506404 0)
(5.06808 -0.50642 0)
(5.06782 -0.506144 0)
(5.06759 -0.505619 0)
(5.06733 -0.505536 0)
(5.06717 -0.505435 0)
(5.06707 -0.505636 0)
(5.06696 -0.50597 0)
(5.06716 -0.505584 0)
(5.0674 -0.505363 0)
(5.06756 -0.505604 0)
(5.0682 -0.5054 0)
(5.06862 -0.505171 0)
(5.06882 -0.504939 0)
(5.06895 -0.504832 0)
(5.06883 -0.504722 0)
(5.06835 -0.504581 0)
(5.06827 -0.504541 0)
(5.06813 -0.504444 0)
(5.06792 -0.504419 0)
(5.06779 -0.504881 0)
(5.06776 -0.505162 0)
(5.06776 -0.505222 0)
(5.06775 -0.505109 0)
(5.06779 -0.504809 0)
(5.06793 -0.504617 0)
(5.06805 -0.504791 0)
(5.06807 -0.505335 0)
(5.06801 -0.505959 0)
(5.06781 -0.506385 0)
(5.06764 -0.506432 0)
(5.06755 -0.506431 0)
(5.06749 -0.50655 0)
(5.06752 -0.506634 0)
(5.06764 -0.506679 0)
(5.0677 -0.506715 0)
(5.06735 -0.506844 0)
(5.06729 -0.506852 0)
(5.06723 -0.506913 0)
(5.06718 -0.506547 0)
(5.06712 -0.506168 0)
(5.06671 -0.504476 0)
(5.06551 -0.496853 0)
(5.06132 -0.474108 0)
(5.05534 -0.422176 0)
(5.04274 -0.319756 0)
(5.03995 -0.262779 0)
(5.02582 -0.129891 0)
(5.04431 -0.133315 0)
(5.01116 -0.0545969 0)
(5.00379 -0.0358618 0)
(5.00249 -0.0211432 0)
(4.98796 -0.0060474 0)
(4.98199 0.00988193 0)
(4.9809 0.00641112 0)
(4.98083 -0.000532416 0)
(4.98188 -0.0048977 0)
(4.98244 -0.00412214 0)
(4.98385 -0.000113818 0)
(4.98506 0.00289044 0)
(4.98484 0.0025589 0)
(4.98418 -0.000906866 0)
(4.98378 -0.00393884 0)
(4.98401 -0.00277175 0)
(4.98412 -0.000844908 0)
(4.9847 0.00050191 0)
(4.9847 0.000195004 0)
(5.06643 -0.507225 0)
(5.0665 -0.507079 0)
(5.06658 -0.506829 0)
(5.06651 -0.50664 0)
(5.06641 -0.50665 0)
(5.06653 -0.507002 0)