/*--------------------------------*- C++ -*----------------------------------*\
  =========                 |
  \\      /  F ield         | OpenFOAM: The Open Source CFD Toolbox
   \\    /   O peration     | Website:  https://openfoam.org
    \\  /    A nd           | Version:  7
     \\/     M anipulation  |
\*---------------------------------------------------------------------------*/
FoamFile
{
    version     2.0;
    format      ascii;
    class       volScalarField;
    location    "8";
    object      T;
}
// * * * * * * * * * * * * * * * * * * * * * * * * * * * * * * * * * * * * * //

dimensions      [0 0 0 1 0 0 0];

internalField   nonuniform List<scalar> 
3600
(
0.89507
0.90506
0.91683
0.92924
0.942258
0.95546
0.969584
0.983187
0.997611
1.00975
1.02181
1.03148
1.0371
1.03468
1.02474
1.02466
1.02503
1.02042
1.01795
1.02343
0.888697
0.889279
0.890546
0.892774
0.896475
0.902379
0.910716
0.922516
0.936773
0.95443
0.972748
0.9917
1.01167
1.01839
1.02204
1.02588
1.02507
1.02051
1.0178
1.02296
0.889911
0.890028
0.890186
0.89058
0.890973
0.891322
0.89198
0.89321
0.895597
0.900787
0.910215
0.927907
0.953812
0.9861
1.00904
1.01877
1.01731
1.01404
1.01655
1.02178
0.890584
0.890639
0.89072
0.890823
0.890746
0.890605
0.890348
0.889944
0.889754
0.889891
0.890735
0.893118
0.900234
0.917857
0.947349
0.982484
0.997088
1.00619
1.01937
1.02189
0.888192
0.88791
0.887496
0.887036
0.886793
0.886445
0.885705
0.88453
0.884126
0.884071
0.883899
0.884022
0.884681
0.88644
0.894652
0.916844
0.960172
0.997494
1.0162
1.01857
0.880606
0.879934
0.879055
0.8782
0.877198
0.87561
0.875164
0.875454
0.876287
0.877821
0.878114
0.877791
0.87639
0.875679
0.876384
0.880276
0.899034
0.942314
0.988623
1.00622
0.883664
0.883433
0.883216
0.882965
0.882732
0.882712
0.882905
0.882946
0.883083
0.883626
0.883563
0.881791
0.879309
0.879333
0.881
0.885357
0.888156
0.897263
0.919807
0.97733
0.931475
0.931308
0.930866
0.929593
0.928397
0.928481
0.927963
0.925692
0.9229
0.920831
0.91794
0.91372
0.90909
0.907127
0.905393
0.901284
0.897641
0.890753
0.886941
0.915963
1.0172
1.01579
1.01415
1.01246
1.01024
1.00731
1.00366
0.999064
0.993519
0.987077
0.979957
0.971984
0.963555
0.954159
0.942563
0.929055
0.915438
0.902
0.892587
0.898741
1.09525
1.09482
1.0942
1.09314
1.09192
1.09043
1.08851
1.08602
1.08274
1.07857
1.07312
1.06613
1.05723
1.04627
1.03268
1.01569
0.994676
0.973471
0.952629
0.931677
1.10181
1.10178
1.10179
1.10183
1.10179
1.10178
1.10186
1.10184
1.1015
1.10097
1.1001
1.09888
1.09731
1.09499
1.09162
1.08614
1.07618
1.06002
1.03869
0.996349
1.06373
1.06415
1.06469
1.06555
1.06659
1.06767
1.06905
1.07075
1.07265
1.07474
1.07706
1.07933
1.08184
1.08394
1.086
1.08598
1.08564
1.08416
1.08064
1.06413
1.00987
1.01011
1.01038
1.01079
1.01133
1.01197
1.01279
1.01384
1.01522
1.017
1.01937
1.0224
1.02626
1.0312
1.03767
1.04559
1.05402
1.06141
1.06977
1.06908
1.00028
1.00029
1.0003
1.00032
1.00034
1.00037
1.00042
1.00047
1.00055
1.00067
1.00084
1.00109
1.00149
1.00214
1.00323
1.00515
1.00851
1.01394
1.02221
1.0393
1
1
1
1
1
1
1.00001
1.00001
1.00001
1.00001
1.00001
1.00002
1.00002
1.00004
1.00006
1.00012
1.00025
1.00058
1.0013
1.00619
0.887351
0.88847
0.889601
0.890334
0.888386
0.881437
0.883969
0.931608
1.01853
1.09595
1.10184
1.0631
1.00954
1.00026
1
0.88742
0.888471
0.889156
0.889739
0.888373
0.882458
0.884528
0.932482
1.02088
1.09709
1.10185
1.06214
1.00908
1.00025
1
0.887496
0.888493
0.888719
0.88898
0.888233
0.883441
0.885175
0.933817
1.0235
1.09812
1.10185
1.06116
1.00862
1.00023
1
0.887657
0.888477
0.888229
0.88822
0.888156
0.884258
0.886021
0.936361
1.02655
1.09923
1.10186
1.05986
1.0081
1.00021
1
0.887855
0.888405
0.887673
0.887529
0.887648
0.884943
0.887093
0.938692
1.0299
1.10042
1.10197
1.05826
1.00754
1.00019
1
0.888186
0.888369
0.887133
0.88689
0.88629
0.885521
0.888437
0.941186
1.03375
1.1017
1.10212
1.05655
1.00695
1.00017
1
0.888774
0.888385
0.88663
0.886211
0.884594
0.886052
0.890144
0.9443
1.03826
1.10312
1.10216
1.05457
1.00633
1.00015
1
0.889672
0.888603
0.886196
0.885354
0.883185
0.886474
0.892198
0.94826
1.04335
1.10477
1.10192
1.05221
1.00567
1.00013
1
0.891052
0.88883
0.885758
0.883936
0.882465
0.886968
0.894702
0.953204
1.04907
1.10652
1.10171
1.04951
1.00499
1.00011
1
0.892793
0.889222
0.885416
0.881792
0.882348
0.88825
0.897726
0.959296
1.05551
1.10841
1.10147
1.04639
1.0043
1.00009
1
0.894789
0.890022
0.885223
0.879597
0.882639
0.890474
0.900954
0.966505
1.06284
1.1103
1.10064
1.04287
1.00362
1.00007
1
0.896688
0.891105
0.885191
0.878302
0.882717
0.891994
0.904003
0.97525
1.07094
1.11203
1.09873
1.03892
1.00295
1.00006
1
0.898319
0.892091
0.885236
0.8777
0.882453
0.892709
0.907471
0.985749
1.07979
1.11344
1.09645
1.03456
1.00232
1.00004
1
0.899622
0.893133
0.88511
0.877316
0.880912
0.893378
0.914143
0.998462
1.089
1.11438
1.09351
1.02978
1.00175
1.00003
1
0.900232
0.894134
0.885089
0.876554
0.878847
0.895129
0.925122
1.01311
1.09804
1.11485
1.08935
1.02468
1.00126
1.00002
1
0.900276
0.894699
0.884953
0.875222
0.877072
0.898507
0.938524
1.02955
1.10639
1.11496
1.0836
1.0195
1.00085
1.00001
1
0.897618
0.894856
0.884895
0.873711
0.87606
0.902802
0.955164
1.04824
1.1134
1.11437
1.07615
1.01453
1.00054
1.00001
1
0.895059
0.893112
0.886056
0.873235
0.876013
0.910273
0.976553
1.06896
1.11869
1.11374
1.06687
1.01006
1.00031
1
1
0.88938
0.89109
0.887764
0.876782
0.879784
0.927726
1.00329
1.09005
1.12258
1.11139
1.05556
1.0063
1.00016
1
1
0.884919
0.886706
0.886624
0.882251
0.890024
0.953158
1.03679
1.1086
1.12473
1.10676
1.04158
1.0034
1.00007
1
1
1
1
1
1
1.00001
1.00091
1.02085
1.08916
1.13185
1.13296
1.13052
1.13211
1.13552
1.13644
1.11824
1
1
1
1
1.00002
1.00106
1.02271
1.09158
1.13249
1.13333
1.1306
1.13216
1.13532
1.13294
1.08856
1
1
1
1
1.00002
1.00124
1.02515
1.09509
1.13318
1.13337
1.13085
1.13221
1.13495
1.12648
1.05462
1
1
1
1
1.00002
1.0015
1.02805
1.09806
1.13354
1.13324
1.13096
1.13216
1.13424
1.11622
1.01976
1
1
1
1
1.00003
1.00184
1.03132
1.10085
1.13375
1.1334
1.131
1.13208
1.13257
1.10248
0.983571
1
1
1
1
1.00004
1.0023
1.03532
1.10428
1.13415
1.13327
1.13082
1.13184
1.12908
1.08413
0.948916
1
1
1
1
1.00006
1.00293
1.04001
1.10799
1.13452
1.13313
1.13043
1.13124
1.12266
1.06235
0.913647
1
1
1
1
1.00008
1.00381
1.04543
1.11103
1.13465
1.13309
1.12985
1.13
1.11192
1.03617
0.88322
1
1
1
1
1.00011
1.00502
1.0514
1.11427
1.13499
1.13276
1.12913
1.12701
1.09566
1.0077
0.853359
1
1
1
1
1.00017
1.00671
1.05843
1.11791
1.13557
1.13255
1.12812
1.12091
1.07303
0.977452
0.834669
1
1
1
1
1.00026
1.00908
1.06582
1.12082
1.13564
1.13249
1.12657
1.11003
1.04386
0.947164
0.815612
1
1
1
1.00001
1.0004
1.01227
1.0739
1.12365
1.13571
1.13271
1.12314
1.09234
1.00986
0.920762
0.817222
1
1
1
1.00001
1.00066
1.01677
1.08215
1.12601
1.136
1.13292
1.11651
1.06733
0.97227
0.897361
0.822966
1
1
1
1.00002
1.0011
1.02267
1.09071
1.12778
1.1359
1.13189
1.10342
1.0349
0.935357
0.881576
0.840369
1
1
1
1.00003
1.00187
1.03081
1.0995
1.12837
1.13556
1.12762
1.08257
0.998
0.900697
0.875565
0.864042
1
1
1
1.00007
1.00331
1.04093
1.10727
1.12915
1.13482
1.11776
1.05243
0.960668
0.876322
0.865202
0.890347
1
1
1
1.00014
1.00568
1.05301
1.11549
1.12861
1.13218
1.09856
1.01439
0.928103
0.866513
0.86581
0.898656
1
1
1
1.00031
1.00996
1.06759
1.12073
1.1281
1.12283
1.0687
0.976142
0.904616
0.866985
0.867886
0.8959
1
1
1.00001
1.00069
1.01693
1.08194
1.12458
1.12609
1.10407
1.03089
0.938763
0.887857
0.868172
0.87303
0.89108
1
1
1.00003
1.00156
1.02736
1.0968
1.12537
1.12093
1.07391
0.987473
0.908372
0.885656
0.878125
0.876665
0.88329
1.13856
1.13752
1.13557
1.13215
1.13057
1.13265
1.13122
1.08715
1.01932
1.00078
1.00001
1
1
1
1
1.1384
1.13751
1.13567
1.13242
1.13052
1.13219
1.13091
1.08631
1.01846
1.00073
1.00001
1
1
1
1
1.13831
1.13741
1.13568
1.13266
1.13038
1.13179
1.13045
1.08476
1.01703
1.00065
1.00001
1
1
1
1
1.13819
1.13724
1.13568
1.13306
1.13027
1.13156
1.12987
1.08195
1.01553
1.00057
1.00001
1
1
1
1
1.13801
1.13707
1.13566
1.13364
1.13051
1.13152
1.12894
1.07854
1.01405
1.00049
1.00001
1
1
1
1
1.13776
1.13692
1.13565
1.13438
1.13133
1.1315
1.12769
1.07547
1.01256
1.00041
1.00001
1
1
1
1
1.1375
1.13678
1.13569
1.13512
1.13226
1.1314
1.12615
1.07191
1.01093
1.00033
1
1
1
1
1
1.13718
1.13662
1.13566
1.13571
1.13334
1.13125
1.12421
1.06748
1.00925
1.00026
1
1
1
1
1
1.13668
1.13644
1.13574
1.13609
1.13452
1.13103
1.12178
1.06217
1.00758
1.0002
1
1
1
1
1
1.13595
1.13624
1.13584
1.13633
1.13563
1.13074
1.11862
1.05607
1.00601
1.00015
1
1
1
1
1
1.13494
1.13581
1.13589
1.13648
1.13644
1.13049
1.11464
1.04926
1.00455
1.0001
1
1
1
1
1
1.13359
1.13505
1.13578
1.13684
1.13679
1.13001
1.10973
1.04181
1.00326
1.00007
1
1
1
1
1
1.13222
1.13401
1.13561
1.13716
1.13681
1.12836
1.10367
1.03398
1.0022
1.00004
1
1
1
1
1
1.1312
1.13289
1.13512
1.13712
1.13689
1.12619
1.09621
1.02613
1.00138
1.00002
1
1
1
1
1
1.13069
1.13196
1.13445
1.13677
1.13653
1.12413
1.08695
1.0188
1.00081
1.00001
1
1
1
1
1
1.13057
1.13148
1.13382
1.13637
1.13615
1.1219
1.0749
1.01217
1.00041
1.00001
1
1
1
1
1
1.1311
1.13147
1.1332
1.1365
1.13656
1.11901
1.05858
1.00679
1.00019
1
1
1
1
1
1
1.13264
1.13216
1.13243
1.13659
1.13703
1.11071
1.03955
1.00313
1.00007
1
1
1
1
1
1
1.1349
1.13275
1.13149
1.13468
1.13598
1.09145
1.02174
1.00111
1.00002
1
1
1
1
1
1
1.13594
1.1344
1.13174
1.13142
1.1265
1.0651
1.00914
1.0003
1
1
1
1
1
1
1
1
1
1
1
1
1
1
1
1
1
1
1
1
1.00014
1.00813
1
1
1
1
1
1
1
1
1
1
1
1
1
1.00084
1.02114
1
1
1
1
1
1
1
1
1
1
1
1
1.00002
1.0022
1.0359
1
1
1
1
1
1
1
1
1
1
1
1
1.00007
1.00482
1.05134
1
1
1
1
1
1
1
1
1
1
1
1
1.00019
1.00862
1.0679
1
1
1
1
1
1
1
1
1
1
1
1
1.00047
1.01459
1.08448
1
1
1
1
1
1
1
1
1
1
1
1.00001
1.00103
1.02221
1.102
1
1
1
1
1
1
1
1
1
1
1
1.00004
1.00226
1.03286
1.11856
1
1
1
1
1
1
1
1
1
1
1
1.00011
1.00449
1.04525
1.13541
1
1
1
1
1
1
1
1
1
1
1
1.00029
1.00894
1.06042
1.14989
1
1
1
1
1
1
1
1
1
1
1.00001
1.00074
1.01627
1.07669
1.16244
1
1
1
1
1
1
1
1
1
1
1.00004
1.00199
1.02928
1.09307
1.17233
1
1
1
1
1
1
1
1
1
1
1.00013
1.00487
1.04784
1.11003
1.17459
1
1
1
1
1
1
1
1
1
1.00001
1.00048
1.01254
1.07456
1.12207
1.17053
1
1
1
1
1
1
1
1
1
1.00003
1.00166
1.02913
1.10724
1.13048
1.15772
1
1
1
1
1
1
1
1
1
1.00016
1.0063
1.05917
1.13205
1.13734
1.13822
1
1
1
1
1
1
1
1
1.00001
1.00079
1.01889
1.09266
1.14089
1.14033
1.12727
1
1
1
1
1
1
1
1
1.00008
1.00364
1.0442
1.11483
1.14176
1.13918
1.12742
1
1
1
1
1
1
1
1.00001
1.00046
1.01264
1.07786
1.13006
1.14131
1.13735
1.12934
1
1
1
1
1
1
1
1.00005
1.00248
1.03557
1.10635
1.13022
1.13877
1.1355
1.13322
1
1
1
1
1
1
1
1
1
1
1
1
1
1
1
1
1
1
1
1
1
1
1
1
1
1
1
1
1
1
1
1
1
1
1
1
1
1
1
1
1
1
1
1
1
1
1
1
1
1
1
1
1
1
1
1
1
1
1
1
1
1
1
1
1
1
1
1
1
1
1
1
1
1
1
1
1
1
1
1
1
1
1
1
1
1
1
1
1
1
1
1
1
1
1
1
1
1
1
1
1
1
1
1
1
1
1
1
1
1
1
1
1
1
1
1
1
1
1
1
1
1
1
1
1
1
1
1
1
1
1
1
1
1
1
1
1
1
1
1
1
1
1
1
1
1
1
1
1
1
1
1
1
1
1
1
1
1
1
1
1
1
1
1
1
1
1
1
1
1
1
1
1
1
1
1
1
1
1
1
1
1
1
1
1
1
1
1
1
1
1
1
1
1
1
1
1
1
1
1
1
1
1
1
1
1
1
1
1
1
1
1
1
1
1
1
1
1
1
1
1
1
1
1
1
1
1
1
1
1
1
1
1
1
1
1
1
1
1
1
1
1
1
1
1
1
1
1
1
1
1
1
1
1
1
1
1
1
1
1
1
1
1
1
1
1
1
1
1
1
1
1
1
1
1
1
1
1
1
1
1
1
1
1
1
1
1
1
1
1
1
1
1
1
1
1
1
1
1
1
1
1
1
1
1
1
1
1
1
1
1
1
1
1
1
1
1
1
1
1
1
1
1
1
1
1
1
1
1
1
1
1
1
1
1
1
1
1
1
1
1
1
1
1
1
1
1
1
1
1
1
1
1
1
1
1
1
1
1
1
1
1
1
1
1
1
1
1
1
1
1
1
1
1
1
1
1
1
1
1
1
1
1
1
1
1
1
1
1
1
1
1
1
1
1
1
1
1
1
1
1
1
1
1
1
1
1
1
1
1
1
1
1
1
1
1
1
1
1
1
1
1
1
1
1
1
1
1
1
1
1
1
1
1
1
1
1
1
1
1
1
1
1
1
1
1
1
1
1
1
1
1
1
1
1
1
1
1
1
1
1
1
1
1
1
1
1
1
1
1
1
1
1
1
1
1
1
1
1
1
1
1
1
1
1
1
1
1
1
1
1
1
1
1
1
1
1
1
1
1
1
1
1
1
1
1
1
1
1
1
1
1
1
1
1
1
1
1
1
1
1
1
1
1
1
1
1
1
1
1
1
1
1
1
1
1
1
1
1
1
1
1
1
1
1
1
1
1
1
1
1
1
1
1
1
1
1
1
1
1
1
1
1
1
1
1
1
1
1
1
1
1
1
1
1
1
1
1
1
1
1
1
1
1
1
1
1
1
1
1
1
1
1
1
1
1
1
1
1
1
1.00813
1.00014
1
1
1
1
1
1
1
1
1
1
1
1
1
1.02114
1.00084
1
1
1
1
1
1
1
1
1
1
1
1
1
1.0359
1.0022
1.00002
1
1
1
1
1
1
1
1
1
1
1
1
1.05134
1.00482
1.00007
1
1
1
1
1
1
1
1
1
1
1
1
1.0679
1.00862
1.00019
1
1
1
1
1
1
1
1
1
1
1
1
1.08448
1.01459
1.00047
1
1
1
1
1
1
1
1
1
1
1
1
1.102
1.02221
1.00103
1.00001
1
1
1
1
1
1
1
1
1
1
1
1.11856
1.03286
1.00226
1.00004
1
1
1
1
1
1
1
1
1
1
1
1.13541
1.04525
1.00449
1.00011
1
1
1
1
1
1
1
1
1
1
1
1.14989
1.06042
1.00894
1.00029
1
1
1
1
1
1
1
1
1
1
1
1.16244
1.07669
1.01627
1.00074
1.00001
1
1
1
1
1
1
1
1
1
1
1.17233
1.09307
1.02928
1.00199
1.00004
1
1
1
1
1
1
1
1
1
1
1.17459
1.11003
1.04784
1.00487
1.00013
1
1
1
1
1
1
1
1
1
1
1.17053
1.12207
1.07456
1.01254
1.00048
1.00001
1
1
1
1
1
1
1
1
1
1.15772
1.13048
1.10724
1.02913
1.00166
1.00003
1
1
1
1
1
1
1
1
1
1.13822
1.13734
1.13205
1.05917
1.0063
1.00016
1
1
1
1
1
1
1
1
1
1.12727
1.14033
1.14089
1.09266
1.01889
1.00079
1.00001
1
1
1
1
1
1
1
1
1.12742
1.13918
1.14176
1.11483
1.0442
1.00364
1.00008
1
1
1
1
1
1
1
1
1.12934
1.13735
1.14131
1.13006
1.07786
1.01264
1.00046
1.00001
1
1
1
1
1
1
1
1.13322
1.1355
1.13877
1.13022
1.10635
1.03557
1.00248
1.00005
1
1
1
1
1
1
1
1
1
1
1
1.00001
1.00078
1.01932
1.08715
1.13122
1.13265
1.13057
1.13215
1.13557
1.13752
1.13856
1
1
1
1
1.00001
1.00073
1.01846
1.08631
1.13091
1.13219
1.13052
1.13242
1.13567
1.13751
1.1384
1
1
1
1
1.00001
1.00065
1.01703
1.08476
1.13045
1.13179
1.13038
1.13266
1.13568
1.13741
1.13831
1
1
1
1
1.00001
1.00057
1.01553
1.08195
1.12987
1.13156
1.13027
1.13306
1.13568
1.13724
1.13819
1
1
1
1
1.00001
1.00049
1.01405
1.07854
1.12894
1.13152
1.13051
1.13364
1.13566
1.13707
1.13801
1
1
1
1
1.00001
1.00041
1.01256
1.07547
1.12769
1.1315
1.13133
1.13438
1.13565
1.13692
1.13776
1
1
1
1
1
1.00033
1.01093
1.07191
1.12615
1.1314
1.13226
1.13512
1.13569
1.13678
1.1375
1
1
1
1
1
1.00026
1.00925
1.06748
1.12421
1.13125
1.13334
1.13571
1.13566
1.13662
1.13718
1
1
1
1
1
1.0002
1.00758
1.06217
1.12178
1.13103
1.13452
1.13609
1.13574
1.13644
1.13668
1
1
1
1
1
1.00015
1.00601
1.05607
1.11862
1.13074
1.13563
1.13633
1.13584
1.13624
1.13595
1
1
1
1
1
1.0001
1.00455
1.04926
1.11464
1.13049
1.13644
1.13648
1.13589
1.13581
1.13494
1
1
1
1
1
1.00007
1.00326
1.04181
1.10973
1.13001
1.13679
1.13684
1.13578
1.13505
1.13359
1
1
1
1
1
1.00004
1.0022
1.03398
1.10367
1.12836
1.13681
1.13716
1.13561
1.13401
1.13222
1
1
1
1
1
1.00002
1.00138
1.02613
1.09621
1.12619
1.13689
1.13712
1.13512
1.13289
1.1312
1
1
1
1
1
1.00001
1.00081
1.0188
1.08695
1.12413
1.13653
1.13677
1.13445
1.13196
1.13069
1
1
1
1
1
1.00001
1.00041
1.01217
1.0749
1.1219
1.13615
1.13637
1.13382
1.13148
1.13057
1
1
1
1
1
1
1.00019
1.00679
1.05858
1.11901
1.13656
1.1365
1.1332
1.13147
1.1311
1
1
1
1
1
1
1.00007
1.00313
1.03955
1.11071
1.13703
1.13659
1.13243
1.13216
1.13264
1
1
1
1
1
1
1.00002
1.00111
1.02174
1.09145
1.13598
1.13468
1.13149
1.13275
1.1349
1
1
1
1
1
1
1
1.0003
1.00914
1.0651
1.1265
1.13142
1.13174
1.1344
1.13594
1.11824
1.13644
1.13552
1.13211
1.13052
1.13296
1.13185
1.08916
1.02085
1.00091
1.00001
1
1
1
1
1.08856
1.13294
1.13532
1.13216
1.1306
1.13333
1.13249
1.09158
1.02271
1.00106
1.00002
1
1
1
1
1.05462
1.12648
1.13495
1.13221
1.13085
1.13337
1.13318
1.09509
1.02515
1.00124
1.00002
1
1
1
1
1.01976
1.11622
1.13424
1.13216
1.13096
1.13324
1.13354
1.09806
1.02805
1.0015
1.00002
1
1
1
1
0.98357
1.10248
1.13257
1.13208
1.131
1.1334
1.13375
1.10085
1.03132
1.00184
1.00003
1
1
1
1
0.948916
1.08413
1.12908
1.13184
1.13082
1.13327
1.13415
1.10428
1.03532
1.0023
1.00004
1
1
1
1
0.913646
1.06235
1.12266
1.13124
1.13043
1.13313
1.13452
1.10799
1.04001
1.00293
1.00006
1
1
1
1
0.883221
1.03617
1.11192
1.13
1.12985
1.13309
1.13465
1.11103
1.04543
1.00381
1.00008
1
1
1
1
0.853357
1.0077
1.09566
1.12701
1.12913
1.13276
1.13499
1.11427
1.0514
1.00502
1.00011
1
1
1
1
0.834669
0.977453
1.07303
1.12091
1.12812
1.13255
1.13557
1.11791
1.05843
1.00671
1.00017
1
1
1
1
0.815611
0.947163
1.04386
1.11003
1.12657
1.13249
1.13564
1.12082
1.06582
1.00908
1.00026
1
1
1
1
0.817222
0.920762
1.00986
1.09234
1.12314
1.13271
1.13571
1.12365
1.0739
1.01227
1.0004
1.00001
1
1
1
0.822966
0.897361
0.97227
1.06733
1.11651
1.13292
1.136
1.12601
1.08215
1.01677
1.00066
1.00001
1
1
1
0.840369
0.881576
0.935356
1.03489
1.10342
1.13189
1.1359
1.12778
1.09071
1.02267
1.0011
1.00002
1
1
1
0.864042
0.875566
0.900702
0.998003
1.08257
1.12762
1.13556
1.12837
1.0995
1.03081
1.00187
1.00003
1
1
1
0.890347
0.865201
0.876317
0.960663
1.05244
1.11776
1.13482
1.12915
1.10727
1.04093
1.00331
1.00007
1
1
1
0.898655
0.86581
0.866513
0.928106
1.01439
1.09856
1.13218
1.12861
1.11549
1.05301
1.00568
1.00014
1
1
1
0.895899
0.867887
0.866986
0.904617
0.976144
1.0687
1.12283
1.1281
1.12073
1.06759
1.00996
1.00031
1
1
1
0.89108
0.873031
0.868171
0.887852
0.938763
1.03089
1.10408
1.12609
1.12458
1.08194
1.01693
1.00069
1.00001
1
1
0.883292
0.876665
0.878123
0.885655
0.908371
0.987473
1.07391
1.12093
1.12537
1.0968
1.02736
1.00156
1.00003
1
1
1
1.00026
1.00954
1.0631
1.10184
1.09595
1.01853
0.931619
0.883969
0.881447
0.888388
0.890333
0.889596
0.888461
0.887343
1
1.00025
1.00908
1.06214
1.10185
1.09709
1.02088
0.93247
0.884531
0.882467
0.888376
0.889736
0.88915
0.888463
0.887415
1
1.00023
1.00862
1.06116
1.10185
1.09812
1.0235
0.933774
0.885176
0.883452
0.888236
0.888979
0.888713
0.888487
0.887489
1
1.00021
1.0081
1.05986
1.10186
1.09923
1.02655
0.936328
0.886022
0.884269
0.888158
0.88822
0.888223
0.888471
0.887648
1
1.00019
1.00754
1.05826
1.10197
1.10042
1.02991
0.93868
0.887095
0.884953
0.887647
0.88753
0.887669
0.8884
0.887849
1
1.00017
1.00695
1.05655
1.10212
1.1017
1.03375
0.941183
0.888439
0.885529
0.886286
0.886893
0.88713
0.888364
0.888182
1
1.00015
1.00633
1.05457
1.10216
1.10312
1.03826
0.944308
0.890147
0.886059
0.88459
0.886215
0.88663
0.888382
0.888771
1
1.00013
1.00567
1.05221
1.10192
1.10477
1.04335
0.948269
0.892203
0.886481
0.883186
0.885357
0.886198
0.888605
0.889671
1
1.00011
1.00499
1.04951
1.10171
1.10653
1.04907
0.953206
0.894707
0.886976
0.882471
0.883934
0.885761
0.888833
0.891055
1
1.00009
1.0043
1.04639
1.10147
1.10841
1.05551
0.959299
0.89773
0.888263
0.882357
0.881786
0.88542
0.889227
0.892799
1
1.00007
1.00362
1.04287
1.10064
1.1103
1.06284
0.966509
0.900954
0.890484
0.882649
0.879596
0.885228
0.89003
0.894795
1
1.00006
1.00295
1.03892
1.09873
1.11203
1.07094
0.975248
0.903996
0.891997
0.882725
0.878306
0.885198
0.89111
0.896691
1
1.00004
1.00232
1.03456
1.09645
1.11344
1.07979
0.985747
0.907456
0.892708
0.88246
0.877706
0.885243
0.892094
0.898321
1
1.00003
1.00175
1.02978
1.09351
1.11438
1.089
0.998464
0.91414
0.893376
0.880914
0.87732
0.885114
0.893134
0.899625
1
1.00002
1.00126
1.02468
1.08935
1.11485
1.09804
1.01311
0.925122
0.895126
0.878845
0.876552
0.885087
0.894133
0.900235
1
1.00001
1.00085
1.0195
1.0836
1.11496
1.10639
1.02955
0.938526
0.898503
0.877066
0.875218
0.884949
0.894698
0.900278
1
1.00001
1.00054
1.01453
1.07615
1.11437
1.1134
1.04824
0.955166
0.902796
0.876057
0.873707
0.884892
0.894854
0.897616
1
1
1.00031
1.01006
1.06687
1.11374
1.11869
1.06896
0.976555
0.910275
0.876011
0.873232
0.886055
0.893111
0.895057
1
1
1.00016
1.0063
1.05556
1.11139
1.12258
1.09005
1.00329
0.927731
0.879786
0.876782
0.887763
0.891091
0.889381
1
1
1.00007
1.0034
1.04158
1.10676
1.12473
1.1086
1.03679
0.953157
0.890026
0.882254
0.886628
0.886707
0.884921
1
1
1
1
1
1
1.00001
1.00001
1.00001
1.00001
1.00001
1.00002
1.00002
1.00004
1.00006
1.00012
1.00025
1.00058
1.0013
1.00619
1.00028
1.00029
1.0003
1.00032
1.00034
1.00037
1.00042
1.00047
1.00055
1.00067
1.00084
1.00109
1.00149
1.00214
1.00323
1.00515
1.00851
1.01394
1.02221
1.0393
1.00987
1.01011
1.01038
1.01079
1.01133
1.01197
1.01279
1.01384
1.01522
1.017
1.01937
1.0224
1.02626
1.0312
1.03767
1.04559
1.05402
1.06141
1.06977
1.06908
1.06373
1.06415
1.06469
1.06555
1.06659
1.06767
1.06905
1.07075
1.07265
1.07474
1.07706
1.07933
1.08184
1.08394
1.086
1.08598
1.08564
1.08416
1.08064
1.06413
1.10181
1.10178
1.10179
1.10183
1.10179
1.10178
1.10186
1.10184
1.1015
1.10097
1.1001
1.09888
1.09731
1.09499
1.09162
1.08614
1.07618
1.06002
1.03869
0.996349
1.09525
1.09482
1.0942
1.09314
1.09192
1.09044
1.08851
1.08602
1.08274
1.07857
1.07312
1.06613
1.05723
1.04627
1.03268
1.01569
0.994676
0.973472
0.952629
0.931676
1.0172
1.0158
1.01415
1.01245
1.01024
1.00731
1.00365
0.99906
0.993517
0.987078
0.97996
0.971985
0.963553
0.954158
0.942563
0.929055
0.915437
0.902002
0.892589
0.89874
0.931485
0.931315
0.930826
0.929505
0.928468
0.928548
0.927951
0.925658
0.922901
0.92084
0.917949
0.913724
0.909088
0.907121
0.905391
0.901285
0.897639
0.890755
0.886945
0.915948
0.883664
0.883439
0.883217
0.882965
0.882733
0.882707
0.882897
0.882939
0.883077
0.883627
0.883566
0.881792
0.879308
0.879332
0.881
0.885357
0.888154
0.897266
0.919807
0.977311
0.880617
0.879944
0.879061
0.878204
0.8772
0.875604
0.875162
0.875449
0.876279
0.877818
0.878111
0.877787
0.87639
0.875682
0.876388
0.88028
0.899022
0.942355
0.988581
1.00616
0.888195
0.887913
0.887495
0.887038
0.886798
0.886448
0.885701
0.884524
0.884121
0.884067
0.883894
0.884015
0.884676
0.886441
0.894657
0.916851
0.960161
0.997521
1.01617
1.01859
0.890589
0.890642
0.890715
0.89082
0.890749
0.890605
0.890343
0.889941
0.889749
0.889886
0.890728
0.89311
0.900226
0.917859
0.94736
0.982473
0.997099
1.00617
1.01932
1.02198
0.88991
0.890028
0.890184
0.890576
0.890969
0.891317
0.891975
0.893207
0.895594
0.900784
0.910209
0.927898
0.953807
0.9861
1.00905
1.01877
1.01731
1.01402
1.01655
1.02186
0.888689
0.889272
0.890541
0.892769
0.89647
0.902374
0.910714
0.922518
0.936774
0.954428
0.972742
0.991691
1.01167
1.01839
1.02204
1.02588
1.02507
1.0205
1.0178
1.02318
0.895062
0.905054
0.916828
0.92924
0.942259
0.955461
0.969586
0.98319
0.997613
1.00975
1.02181
1.03147
1.0371
1.03468
1.02475
1.02466
1.02503
1.02042
1.01795
1.02284
)
;

boundaryField
{
    inlet
    {
        type            fixedValue;
        value           uniform 1;
    }
    outlet
    {
        type            inletOutlet;
        inletValue      uniform 1;
        value           nonuniform List<scalar> 
30
(
1.00619
1.0393
1.06908
1.06413
0.996349
0.931676
0.89874
0.915948
0.977311
1.00616
1.01859
1.02198
1.02186
1.02318
1.02284
1.02343
1.02296
1.02178
1.02189
1.01857
1.00622
0.97733
0.915963
0.898741
0.931677
0.996349
1.06413
1.06908
1.0393
1.00619
)
;
    }
    airfoil
    {
        type            zeroGradient;
    }
    top_fore
    {
        type            fixedValue;
        value           uniform 1;
    }
    top_wake
    {
        type            fixedValue;
        value           uniform 1;
    }
    bottom_fore
    {
        type            fixedValue;
        value           uniform 1;
    }
    bottom_wake
    {
        type            fixedValue;
        value           uniform 1;
    }
    defaultFaces
    {
        type            empty;
    }
}


// ************************************************************************* //
