/*--------------------------------*- C++ -*----------------------------------*\
  =========                 |
  \\      /  F ield         | OpenFOAM: The Open Source CFD Toolbox
   \\    /   O peration     | Website:  https://openfoam.org
    \\  /    A nd           | Version:  7
     \\/     M anipulation  |
\*---------------------------------------------------------------------------*/
FoamFile
{
    version     2.0;
    format      ascii;
    class       volScalarField;
    location    "13";
    object      rho;
}
// * * * * * * * * * * * * * * * * * * * * * * * * * * * * * * * * * * * * * //

dimensions      [1 -3 0 0 0 0 0];

internalField   nonuniform List<scalar> 
90000
(
0.909966
0.950498
0.993521
1.0361
1.07705
1.11631
1.15354
1.18781
1.21956
1.24734
1.27282
1.29395
1.31327
1.32837
1.34219
1.35248
1.36169
1.36823
1.37393
1.37787
1.38135
1.38352
1.3858
1.38576
1.38447
1.38062
1.37483
1.36965
1.36499
1.36556
1.3672
1.36961
1.3722
1.37482
1.37687
1.37843
1.37953
1.37893
1.37674
1.3748
1.37346
1.37323
1.37368
1.37489
1.37674
1.37877
1.37947
1.37884
1.37728
1.37618
1.37634
1.37664
1.37776
1.37949
1.37948
1.3788
1.37802
1.37789
1.37829
1.37929
1.37968
1.37945
1.37892
1.37892
1.37922
1.37967
1.37979
1.37967
1.37968
1.3799
1.38023
1.38021
1.38008
1.38005
1.3801
1.38024
1.38055
1.38083
1.3809
1.38081
1.38054
1.38045
1.3805
1.38069
1.38103
1.3814
1.38168
1.3818
1.38179
1.38172
1.38158
1.38154
1.38156
1.38166
1.38175
1.38178
1.38179
1.38184
1.3819
1.38212
0.877076
0.877591
0.878975
0.881975
0.887041
0.895245
0.906664
0.922594
0.942323
0.967215
0.995527
1.0284
1.06332
1.10074
1.13823
1.17498
1.21002
1.24105
1.26953
1.2917
1.3115
1.32429
1.33592
1.34229
1.34799
1.35082
1.35461
1.35941
1.36656
1.37077
1.37375
1.3768
1.37924
1.38128
1.38099
1.38035
1.37798
1.37499
1.37226
1.37245
1.37322
1.37452
1.37659
1.3787
1.37972
1.37918
1.37798
1.37632
1.37515
1.37538
1.37643
1.37836
1.37988
1.37966
1.37877
1.3776
1.37761
1.37792
1.3787
1.37956
1.37949
1.37899
1.37872
1.37891
1.37935
1.37971
1.37965
1.37961
1.37971
1.37999
1.38023
1.38019
1.38004
1.38004
1.38011
1.38027
1.38058
1.38085
1.38089
1.38068
1.38042
1.38042
1.3805
1.38071
1.38105
1.38141
1.38167
1.38177
1.38173
1.38167
1.38154
1.3815
1.38154
1.38162
1.38171
1.38173
1.38175
1.38182
1.38191
1.38213
0.877395
0.877419
0.877446
0.877481
0.877533
0.877631
0.877846
0.878306
0.879119
0.880583
0.882978
0.887031
0.893132
0.902652
0.915699
0.934313
0.957594
0.987709
1.02215
1.06229
1.10461
1.14852
1.19168
1.23143
1.26902
1.30023
1.32778
1.34623
1.36053
1.3684
1.37371
1.37587
1.37736
1.37809
1.37787
1.37528
1.37034
1.37106
1.37363
1.37629
1.37975
1.38261
1.38356
1.38258
1.38092
1.37767
1.37582
1.37523
1.37577
1.37807
1.38071
1.38192
1.38131
1.3795
1.37832
1.3779
1.37851
1.37999
1.38103
1.38064
1.37969
1.37906
1.37924
1.38002
1.38057
1.38032
1.37996
1.38005
1.3805
1.38086
1.38071
1.3805
1.38038
1.38044
1.3806
1.38085
1.38116
1.38126
1.38116
1.38091
1.38069
1.38071
1.38088
1.38115
1.38149
1.38178
1.38197
1.38199
1.38194
1.38186
1.38171
1.38169
1.38173
1.38182
1.38188
1.38189
1.38191
1.38198
1.38209
1.38233
0.878161
0.878178
0.878196
0.878218
0.878245
0.878285
0.878311
0.878349
0.878392
0.87844
0.878497
0.878575
0.878698
0.878916
0.879388
0.880276
0.8818
0.884573
0.889102
0.896912
0.908518
0.926734
0.950906
0.984435
1.02414
1.07229
1.12391
1.1753
1.22486
1.26485
1.30121
1.32291
1.3416
1.34965
1.3568
1.36085
1.36797
1.37568
1.3834
1.38897
1.39156
1.39028
1.38868
1.38501
1.37903
1.37646
1.37662
1.37836
1.38175
1.38551
1.38536
1.3839
1.38137
1.37933
1.37937
1.38097
1.38275
1.38373
1.38308
1.38155
1.38025
1.38068
1.38191
1.38268
1.38223
1.38144
1.38148
1.38202
1.38251
1.38233
1.38188
1.38177
1.38185
1.38196
1.38204
1.38219
1.38233
1.38235
1.38217
1.38187
1.3818
1.38186
1.38197
1.38216
1.38243
1.38264
1.38274
1.38281
1.38274
1.3826
1.38242
1.38241
1.38245
1.38248
1.38251
1.38249
1.3825
1.38255
1.38263
1.38285
0.879091
0.879116
0.879143
0.87917
0.879198
0.879225
0.879256
0.87927
0.879283
0.879301
0.879325
0.879358
0.879401
0.87947
0.879508
0.879545
0.879588
0.879645
0.879735
0.879902
0.88023
0.881006
0.882498
0.885561
0.890936
0.901086
0.916867
0.942878
0.977473
1.02501
1.07935
1.13947
1.1991
1.25071
1.29703
1.32987
1.35703
1.36948
1.37749
1.38203
1.38529
1.38608
1.38376
1.37846
1.37937
1.38129
1.38549
1.38889
1.39022
1.38877
1.38555
1.38365
1.38202
1.38231
1.38455
1.38684
1.38655
1.38563
1.38408
1.38289
1.3834
1.38466
1.38525
1.3848
1.38401
1.38386
1.38436
1.38482
1.38475
1.38438
1.38409
1.38405
1.38407
1.38404
1.38412
1.38433
1.38444
1.3843
1.38396
1.38366
1.38359
1.38361
1.38373
1.38397
1.38422
1.3843
1.38433
1.38427
1.38412
1.38392
1.38375
1.38372
1.38371
1.38371
1.38367
1.38361
1.38359
1.38363
1.38372
1.3839
0.879933
0.879952
0.879972
0.879993
0.880015
0.880037
0.88006
0.880083
0.880105
0.880126
0.880147
0.880167
0.880186
0.880205
0.880216
0.880222
0.880233
0.880252
0.880282
0.880324
0.880428
0.88044
0.880458
0.880495
0.880581
0.880797
0.881279
0.882593
0.885409
0.891739
0.903097
0.924748
0.956518
1.00463
1.06218
1.12876
1.19573
1.25037
1.29809
1.32487
1.34796
1.35918
1.36686
1.37423
1.38505
1.39366
1.39914
1.39789
1.39563
1.39033
1.38225
1.38221
1.38341
1.38668
1.39048
1.39029
1.38895
1.38623
1.38468
1.38528
1.38692
1.38815
1.38758
1.38644
1.38582
1.38632
1.38721
1.3873
1.38696
1.38645
1.38628
1.38624
1.38626
1.38631
1.38653
1.38664
1.3865
1.38614
1.38578
1.3856
1.3856
1.38566
1.3858
1.38596
1.38608
1.38606
1.38603
1.38593
1.38574
1.38554
1.38538
1.38532
1.3853
1.38524
1.38516
1.38505
1.38501
1.38504
1.3851
1.38522
0.88054
0.880551
0.880563
0.880575
0.880586
0.880599
0.880612
0.880625
0.880638
0.880651
0.880665
0.880679
0.880692
0.880706
0.88072
0.880732
0.880743
0.880754
0.880763
0.880772
0.880778
0.880785
0.880796
0.880813
0.88084
0.880883
0.880996
0.880991
0.881008
0.881087
0.881325
0.882101
0.884071
0.88926
0.899624
0.921386
0.955266
1.00888
1.07376
1.14696
1.21849
1.27658
1.32761
1.35907
1.37787
1.38532
1.39119
1.39165
1.38737
1.38096
1.38264
1.38613
1.39043
1.39322
1.39193
1.38927
1.38647
1.38587
1.38648
1.38892
1.38983
1.38906
1.38796
1.38725
1.38764
1.38884
1.38886
1.3884
1.38783
1.38791
1.38803
1.38793
1.38773
1.38782
1.38813
1.38815
1.38795
1.38757
1.38725
1.38713
1.38717
1.38727
1.3874
1.38756
1.38762
1.38759
1.38754
1.38742
1.38723
1.38698
1.38681
1.38675
1.3867
1.38662
1.38648
1.38637
1.38634
1.38636
1.38643
1.38654
0.880884
0.880889
0.880895
0.8809
0.880905
0.880911
0.880917
0.880922
0.880928
0.880934
0.880941
0.880947
0.880954
0.880961
0.880968
0.880975
0.880982
0.88099
0.880997
0.881005
0.881013
0.881022
0.881029
0.881037
0.881044
0.88105
0.881058
0.881079
0.881104
0.881133
0.881209
0.881202
0.881212
0.881269
0.881464
0.882206
0.884297
0.890325
0.903058
0.930803
0.973695
1.03892
1.1162
1.19389
1.26552
1.30761
1.34294
1.35689
1.36721
1.37736
1.3898
1.39981
1.40008
1.39833
1.39235
1.384
1.38431
1.3862
1.38958
1.39223
1.3914
1.38917
1.38703
1.38753
1.38923
1.39046
1.38997
1.38881
1.3881
1.38846
1.38886
1.3888
1.38865
1.38879
1.38904
1.38894
1.3885
1.38822
1.38813
1.38806
1.38811
1.38825
1.38844
1.38856
1.38856
1.3885
1.38838
1.38819
1.388
1.38786
1.38776
1.38772
1.38768
1.38761
1.38749
1.38736
1.38735
1.3874
1.38747
1.38755
0.881043
0.881045
0.881048
0.88105
0.881052
0.881055
0.881057
0.881059
0.881062
0.881065
0.881068
0.881071
0.881075
0.881079
0.881084
0.881088
0.881093
0.881098
0.881104
0.881111
0.881118
0.881126
0.881133
0.881141
0.881149
0.881157
0.881165
0.881173
0.881182
0.881193
0.881203
0.881225
0.881248
0.881273
0.881318
0.881312
0.881322
0.881391
0.88169
0.882882
0.886266
0.896274
0.916776
0.959574
1.02168
1.10461
1.19123
1.26407
1.32771
1.36357
1.38214
1.38983
1.3935
1.38872
1.38098
1.38253
1.38693
1.39123
1.39272
1.39176
1.38825
1.38627
1.38671
1.38935
1.39083
1.39046
1.38899
1.38828
1.38857
1.38907
1.38903
1.38887
1.38898
1.3894
1.38937
1.38916
1.3887
1.38837
1.38842
1.38849
1.38852
1.38873
1.38894
1.38896
1.38895
1.38889
1.38881
1.38865
1.38846
1.38829
1.38823
1.38822
1.38816
1.38805
1.38793
1.38785
1.38787
1.38796
1.38808
1.38821
0.881112
0.881112
0.881113
0.881114
0.881115
0.881116
0.881117
0.881119
0.88112
0.881122
0.881124
0.881126
0.881129
0.881133
0.881136
0.88114
0.881145
0.88115
0.881155
0.881161
0.881168
0.881176
0.881183
0.88119
0.881198
0.881206
0.881215
0.881223
0.881231
0.881239
0.881244
0.881251
0.881258
0.881264
0.881269
0.881279
0.881288
0.881303
0.881294
0.881296
0.88133
0.881516
0.882241
0.885069
0.892858
0.914733
0.954781
1.02514
1.11388
1.20262
1.282
1.32135
1.35442
1.36354
1.37711
1.38835
1.39882
1.39816
1.39504
1.38717
1.38379
1.38522
1.38916
1.39225
1.39142
1.38872
1.38732
1.388
1.38952
1.38947
1.38905
1.3888
1.38921
1.38967
1.38948
1.38874
1.38843
1.38844
1.38857
1.38864
1.38876
1.38899
1.3891
1.38908
1.38904
1.389
1.38886
1.38869
1.38853
1.38847
1.38842
1.38839
1.38833
1.38823
1.38815
1.3881
1.38815
1.38826
1.38841
1.38852
0.881155
0.881156
0.881156
0.881157
0.881158
0.881159
0.88116
0.881161
0.881163
0.881164
0.881167
0.881169
0.881172
0.881176
0.88118
0.881184
0.881189
0.881194
0.8812
0.881206
0.881213
0.88122
0.881226
0.881232
0.881239
0.881245
0.881251
0.881257
0.881262
0.881266
0.881269
0.881273
0.881273
0.881272
0.881272
0.881269
0.881267
0.881264
0.881261
0.881259
0.881252
0.881239
0.88124
0.881267
0.881407
0.882133
0.88472
0.89423
0.916634
0.968201
1.04522
1.14252
1.239
1.3091
1.36366
1.37946
1.39157
1.39118
1.38442
1.38165
1.38537
1.39082
1.39321
1.39214
1.38795
1.3858
1.38662
1.38944
1.38994
1.38933
1.38843
1.3887
1.38968
1.38966
1.3889
1.38819
1.38827
1.38853
1.38867
1.38874
1.38893
1.38918
1.38916
1.38908
1.38903
1.38895
1.38883
1.38864
1.3885
1.38846
1.38845
1.38842
1.38834
1.38824
1.38816
1.38817
1.38823
1.38836
1.38849
1.3886
0.881201
0.881202
0.881203
0.881205
0.881207
0.881209
0.881211
0.881213
0.881216
0.881219
0.881222
0.881226
0.88123
0.881234
0.881239
0.881243
0.881247
0.881253
0.881259
0.881264
0.881268
0.881273
0.881276
0.88128
0.881283
0.881286
0.881288
0.881289
0.88129
0.88129
0.881288
0.881286
0.881283
0.881278
0.881272
0.881266
0.881261
0.881253
0.881246
0.88124
0.881229
0.881223
0.881216
0.881208
0.881206
0.881211
0.881242
0.881424
0.882254
0.886111
0.897799
0.932122
0.992885
1.08899
1.19751
1.2732
1.33627
1.35145
1.36787
1.381
1.39532
1.39869
1.39607
1.38764
1.38337
1.38518
1.38922
1.39081
1.38957
1.38782
1.38809
1.38954
1.39005
1.3893
1.38792
1.38795
1.38834
1.3886
1.38862
1.38873
1.38907
1.38918
1.38912
1.38903
1.38897
1.38887
1.38866
1.3885
1.38845
1.38844
1.38844
1.38841
1.38833
1.3882
1.38815
1.38817
1.38826
1.38841
1.38854
1.38865
0.881259
0.881262
0.881265
0.881267
0.88127
0.881274
0.881276
0.88128
0.881285
0.881287
0.88129
0.881294
0.881298
0.881301
0.881306
0.881309
0.881312
0.881315
0.881317
0.881319
0.881321
0.881322
0.881323
0.881323
0.881322
0.881321
0.88132
0.881318
0.881315
0.88131
0.881305
0.881299
0.881292
0.881284
0.881275
0.881267
0.881258
0.881249
0.881242
0.881233
0.881224
0.881217
0.88121
0.881205
0.881206
0.881211
0.881218
0.88123
0.881247
0.881308
0.881592
0.883231
0.889205
0.911139
0.958533
1.04818
1.15796
1.25457
1.33678
1.37001
1.38786
1.39069
1.38455
1.38125
1.38555
1.39157
1.39238
1.39012
1.38643
1.38669
1.38907
1.39056
1.38996
1.38775
1.38744
1.38795
1.3886
1.38857
1.38857
1.38878
1.3892
1.38914
1.38902
1.38895
1.38886
1.3887
1.38848
1.3884
1.38841
1.38842
1.38841
1.38837
1.38824
1.38814
1.38813
1.38818
1.3883
1.38845
1.38859
1.38869
0.881324
0.881327
0.881331
0.881333
0.881334
0.881336
0.881339
0.881342
0.881345
0.881347
0.881349
0.881351
0.881353
0.881354
0.881355
0.881356
0.881356
0.881356
0.881356
0.881355
0.881353
0.881352
0.88135
0.881347
0.881344
0.881341
0.881337
0.881333
0.881328
0.881323
0.881317
0.88131
0.881302
0.881294
0.881285
0.881278
0.881269
0.881262
0.881255
0.881247
0.881241
0.881233
0.881229
0.881229
0.881231
0.881235
0.881243
0.881253
0.881265
0.881276
0.881292
0.881322
0.881438
0.88216
0.885408
0.900041
0.936543
1.01895
1.12951
1.23114
1.3159
1.3434
1.36347
1.37896
1.39683
1.39915
1.39497
1.38462
1.38487
1.38781
1.3916
1.3909
1.38805
1.38647
1.38734
1.38877
1.38872
1.38845
1.38856
1.38909
1.38931
1.38915
1.38897
1.38891
1.38878
1.38854
1.38836
1.38836
1.3884
1.3884
1.38838
1.3883
1.38815
1.3881
1.38811
1.38818
1.38832
1.38847
1.38859
1.38868
0.881374
0.881376
0.881378
0.881378
0.881379
0.88138
0.88138
0.881381
0.881381
0.881381
0.88138
0.881378
0.881377
0.881376
0.881375
0.881373
0.881372
0.881369
0.881365
0.881363
0.88136
0.881358
0.881353
0.881349
0.881345
0.88134
0.881335
0.881331
0.881326
0.881322
0.881317
0.881313
0.881309
0.881304
0.881299
0.881295
0.88129
0.881287
0.881283
0.881279
0.881277
0.881274
0.881275
0.881276
0.881275
0.881276
0.881279
0.881281
0.881283
0.881287
0.881295
0.881309
0.881325
0.881345
0.881398
0.881769
0.883713
0.894137
0.924124
0.999544
1.10867
1.22216
1.32126
1.36541
1.38753
1.39122
1.38176
1.38206
1.38806
1.39367
1.39233
1.38797
1.38564
1.38641
1.38927
1.38925
1.38846
1.38831
1.38893
1.38947
1.38931
1.38902
1.38897
1.38893
1.38871
1.3884
1.38832
1.38838
1.38844
1.38843
1.38837
1.38823
1.38807
1.38807
1.3881
1.38821
1.38838
1.3885
1.38859
1.38867
0.881403
0.881402
0.881402
0.8814
0.8814
0.881398
0.881397
0.881395
0.881393
0.88139
0.881388
0.881385
0.881383
0.88138
0.881377
0.881373
0.881368
0.881364
0.881358
0.881353
0.881349
0.881344
0.881339
0.881335
0.881332
0.881328
0.881323
0.881321
0.881319
0.881318
0.881316
0.881314
0.881314
0.881315
0.881317
0.88132
0.881323
0.881326
0.881329
0.881332
0.881337
0.881338
0.881338
0.881337
0.881333
0.881328
0.881321
0.881312
0.881301
0.881295
0.881293
0.881294
0.881305
0.881324
0.881353
0.881378
0.881413
0.881636
0.882983
0.891044
0.917063
0.989157
1.10056
1.21559
1.30838
1.34443
1.3645
1.3838
1.40059
1.3988
1.39192
1.38342
1.38471
1.38911
1.39072
1.38921
1.38773
1.38842
1.38979
1.38972
1.38907
1.38894
1.38911
1.38898
1.38857
1.38833
1.38837
1.38846
1.38848
1.38845
1.38835
1.38816
1.38804
1.38806
1.38813
1.38827
1.38844
1.38854
1.38859
1.38866
0.881414
0.881412
0.88141
0.881407
0.881405
0.881402
0.881399
0.881395
0.881392
0.881388
0.881383
0.88138
0.881375
0.881371
0.881367
0.881362
0.881357
0.881353
0.881348
0.881342
0.881339
0.881335
0.88133
0.881327
0.881324
0.881321
0.881319
0.881318
0.881318
0.881319
0.881321
0.881324
0.881331
0.881339
0.881347
0.881356
0.881367
0.881376
0.881385
0.881396
0.881401
0.881401
0.881398
0.881391
0.881381
0.881367
0.881349
0.88133
0.881311
0.881297
0.881292
0.881293
0.881301
0.88132
0.88135
0.881385
0.881433
0.881452
0.881471
0.881622
0.882661
0.889679
0.914695
0.986344
1.09825
1.22263
1.32529
1.37262
1.39095
1.38903
1.37946
1.38322
1.39041
1.39272
1.39015
1.38665
1.38715
1.38999
1.39023
1.38942
1.38884
1.38913
1.38931
1.38899
1.38842
1.38835
1.38846
1.38851
1.3885
1.38847
1.38833
1.38811
1.38805
1.38808
1.38819
1.38835
1.3885
1.38856
1.38862
1.38868
0.881415
0.881412
0.881409
0.881406
0.881404
0.8814
0.881395
0.881392
0.881388
0.881384
0.88138
0.881375
0.881371
0.881367
0.881362
0.881359
0.881355
0.881352
0.881349
0.881345
0.881342
0.88134
0.881338
0.881336
0.881335
0.881334
0.881334
0.881334
0.881334
0.881337
0.881343
0.881352
0.881363
0.881374
0.881385
0.881398
0.881409
0.881419
0.881428
0.881435
0.881438
0.881435
0.881429
0.88142
0.881408
0.88139
0.881367
0.881342
0.88132
0.881303
0.881296
0.881298
0.881309
0.881331
0.881364
0.881405
0.881454
0.881499
0.881521
0.881516
0.881507
0.881605
0.882561
0.889306
0.915383
0.98931
1.11009
1.23348
1.31717
1.35261
1.37018
1.39217
1.4012
1.39635
1.38517
1.38569
1.38933
1.39173
1.39024
1.38836
1.38877
1.3897
1.3895
1.38858
1.38832
1.38847
1.38857
1.38854
1.38854
1.38849
1.38834
1.38812
1.38808
1.38814
1.38827
1.38843
1.38856
1.3886
1.38866
1.3887
0.881407
0.881404
0.881403
0.881403
0.881401
0.881399
0.881397
0.881395
0.881392
0.88139
0.881387
0.881384
0.881381
0.881378
0.881375
0.881372
0.881368
0.881365
0.881362
0.88136
0.881358
0.881356
0.881356
0.881355
0.881356
0.881358
0.881359
0.881362
0.881368
0.881376
0.881385
0.881394
0.881401
0.881411
0.881419
0.881427
0.881433
0.881439
0.881442
0.881446
0.881449
0.881445
0.881436
0.881427
0.881415
0.881398
0.881377
0.881356
0.881338
0.881322
0.881308
0.88131
0.881324
0.881351
0.881388
0.881432
0.881479
0.881523
0.881547
0.881546
0.881536
0.881499
0.881447
0.881538
0.882595
0.889867
0.920269
1.00105
1.1252
1.26052
1.34495
1.38313
1.39246
1.38201
1.38303
1.38987
1.39397
1.39165
1.38735
1.38754
1.38982
1.39001
1.38898
1.38815
1.38842
1.3887
1.38863
1.38855
1.38856
1.38851
1.38824
1.38808
1.38811
1.3882
1.38835
1.38851
1.3886
1.38863
1.3887
1.38871
0.881403
0.881402
0.881401
0.881401
0.881401
0.8814
0.8814
0.881399
0.881398
0.881398
0.881397
0.881397
0.881397
0.881397
0.881397
0.881398
0.881399
0.881399
0.8814
0.881402
0.881402
0.881403
0.881406
0.881406
0.881408
0.881412
0.881417
0.881419
0.881423
0.881427
0.881428
0.881429
0.881431
0.881433
0.881435
0.881438
0.88144
0.881441
0.881441
0.881443
0.881446
0.88144
0.881431
0.881422
0.88141
0.881394
0.881383
0.881376
0.881369
0.881359
0.881346
0.881349
0.88137
0.881399
0.88143
0.881462
0.881492
0.881527
0.88156
0.881561
0.881543
0.881506
0.881464
0.88141
0.8814
0.881526
0.88294
0.891603
0.929427
1.02062
1.1566
1.27906
1.33642
1.36194
1.38596
1.40101
1.39781
1.38668
1.38569
1.38847
1.39131
1.3899
1.38783
1.3881
1.38893
1.38888
1.38855
1.3886
1.3886
1.38839
1.38817
1.38811
1.38816
1.38827
1.38842
1.38857
1.38863
1.38866
1.38872
1.38871
0.881419
0.881422
0.881425
0.881428
0.881432
0.881435
0.881439
0.881443
0.881446
0.881449
0.881453
0.881457
0.881461
0.881465
0.881469
0.881472
0.881477
0.88148
0.881481
0.881483
0.881486
0.881488
0.881489
0.881489
0.881488
0.881487
0.881484
0.88148
0.881475
0.881468
0.88146
0.881451
0.881444
0.881437
0.881427
0.881417
0.881405
0.881393
0.881386
0.881382
0.881379
0.881373
0.881369
0.881369
0.881373
0.881382
0.88139
0.881404
0.881418
0.881426
0.881428
0.881441
0.881464
0.881479
0.881486
0.881488
0.881488
0.881495
0.881517
0.881534
0.881527
0.881509
0.881481
0.881444
0.88141
0.881406
0.881423
0.881634
0.883703
0.895343
0.945855
1.05077
1.19171
1.31593
1.37265
1.39206
1.38498
1.38152
1.38807
1.39338
1.39181
1.38685
1.38695
1.38892
1.38925
1.38876
1.38843
1.38867
1.38857
1.38822
1.38813
1.38818
1.38825
1.38834
1.38849
1.38861
1.38863
1.38868
1.38874
1.38871
0.881476
0.881481
0.881485
0.881491
0.881497
0.881502
0.881507
0.881513
0.881517
0.881523
0.881528
0.881532
0.881537
0.881542
0.881545
0.881548
0.881553
0.881555
0.881556
0.881556
0.881555
0.881554
0.881552
0.881548
0.881543
0.881536
0.881529
0.881519
0.881507
0.881493
0.881476
0.881458
0.881439
0.881418
0.881398
0.881379
0.881358
0.881337
0.881323
0.881316
0.881312
0.881311
0.881313
0.881323
0.881342
0.881369
0.881399
0.881438
0.881482
0.881511
0.881528
0.881545
0.881554
0.88155
0.881534
0.881501
0.881465
0.881453
0.881451
0.881459
0.881474
0.881486
0.881495
0.881494
0.881483
0.881478
0.881476
0.881473
0.8815
0.881824
0.885088
0.902806
0.968153
1.09612
1.23094
1.32548
1.3557
1.37978
1.40042
1.39785
1.38767
1.38478
1.38743
1.39028
1.38928
1.38816
1.38849
1.38884
1.38842
1.38806
1.38816
1.38828
1.38832
1.38837
1.38851
1.38859
1.38862
1.38867
1.38873
1.38868
0.881518
0.881521
0.881525
0.881529
0.881534
0.881537
0.881542
0.881546
0.88155
0.881555
0.881559
0.881562
0.881566
0.881569
0.881571
0.881573
0.881576
0.881578
0.88158
0.881579
0.881577
0.881573
0.881569
0.881564
0.881557
0.881548
0.881539
0.881529
0.881514
0.881496
0.881475
0.881453
0.881428
0.881404
0.881382
0.881361
0.881341
0.881318
0.881299
0.881293
0.881291
0.881291
0.881294
0.881308
0.881334
0.881371
0.881415
0.881464
0.881517
0.881568
0.881591
0.881597
0.881597
0.881585
0.881555
0.881505
0.881451
0.881426
0.881423
0.881424
0.88144
0.881475
0.881525
0.881552
0.881558
0.881555
0.88154
0.881505
0.88148
0.881464
0.881512
0.882126
0.887689
0.916744
1.0038
1.14387
1.28574
1.36355
1.39045
1.38679
1.38111
1.38744
1.39241
1.39072
1.3874
1.38763
1.38913
1.38887
1.38793
1.38797
1.38835
1.38839
1.38836
1.38847
1.38857
1.38859
1.38862
1.38869
1.38873
1.38864
0.881529
0.881532
0.881534
0.881537
0.88154
0.881543
0.881545
0.881548
0.88155
0.881552
0.881554
0.881556
0.881558
0.881559
0.881559
0.88156
0.881559
0.881559
0.88156
0.88156
0.881555
0.881552
0.881549
0.881546
0.881541
0.881534
0.881524
0.88151
0.881496
0.881483
0.88147
0.881452
0.88143
0.881408
0.881385
0.881363
0.881344
0.881328
0.881314
0.881304
0.8813
0.8813
0.881304
0.88132
0.881347
0.881381
0.881425
0.881475
0.881532
0.881587
0.881606
0.881609
0.881606
0.881589
0.881553
0.881506
0.881455
0.881427
0.881424
0.881426
0.881441
0.881485
0.881558
0.881604
0.881609
0.881604
0.881576
0.881524
0.881467
0.881438
0.881438
0.881458
0.881588
0.883017
0.89322
0.939515
1.0556
1.2022
1.31094
1.35255
1.3759
1.39947
1.39707
1.38723
1.38641
1.38875
1.38995
1.38811
1.38756
1.3882
1.38859
1.38837
1.38839
1.38858
1.38856
1.38855
1.38859
1.38868
1.38871
1.38855
0.881486
0.881484
0.881482
0.88148
0.881478
0.881476
0.881475
0.881472
0.88147
0.881469
0.881469
0.881466
0.881465
0.881464
0.881465
0.881466
0.881463
0.881461
0.881461
0.881461
0.881461
0.881462
0.881464
0.881469
0.88147
0.88147
0.881472
0.881476
0.881477
0.881474
0.881469
0.881464
0.88146
0.881454
0.881447
0.881439
0.88143
0.881422
0.881413
0.881404
0.881393
0.881383
0.881375
0.88137
0.881373
0.881385
0.881407
0.881441
0.881484
0.88153
0.881566
0.881583
0.881582
0.881569
0.881544
0.881514
0.881481
0.881449
0.881443
0.881452
0.88148
0.881529
0.88159
0.881628
0.881631
0.881623
0.881586
0.881525
0.881467
0.88144
0.881443
0.881487
0.881628
0.881737
0.882065
0.885058
0.904997
0.978084
1.11403
1.26969
1.35395
1.39004
1.38669
1.38262
1.38894
1.39225
1.3896
1.38654
1.38746
1.38894
1.38851
1.38825
1.38849
1.38867
1.38852
1.38851
1.38859
1.38868
1.38867
1.38845
0.88138
0.881375
0.88137
0.881366
0.881363
0.881359
0.881355
0.881351
0.88135
0.881349
0.881348
0.881348
0.881348
0.88135
0.881352
0.881356
0.881359
0.881363
0.881368
0.881373
0.881379
0.881387
0.881396
0.881407
0.88142
0.881432
0.881441
0.881452
0.881467
0.881483
0.881501
0.881523
0.88154
0.881551
0.881564
0.88157
0.881569
0.881561
0.881549
0.881533
0.881514
0.881492
0.881464
0.881431
0.881399
0.881377
0.88137
0.881381
0.881402
0.881429
0.881458
0.881493
0.881524
0.881539
0.881537
0.88154
0.881537
0.881525
0.88153
0.881542
0.881551
0.881571
0.881609
0.881624
0.88162
0.881604
0.881562
0.881522
0.88147
0.881461
0.88149
0.881576
0.88173
0.88185
0.881854
0.881876
0.882548
0.889233
0.927588
1.03468
1.18375
1.31186
1.34883
1.37738
1.39982
1.39578
1.38524
1.38587
1.38961
1.38958
1.38828
1.38825
1.38879
1.38875
1.38848
1.38849
1.38863
1.38868
1.38864
1.38837
0.881342
0.881337
0.881332
0.881328
0.881323
0.881318
0.881314
0.881312
0.881313
0.881314
0.881315
0.881318
0.881319
0.881321
0.881325
0.88133
0.881337
0.881344
0.881352
0.88136
0.881366
0.881374
0.881384
0.881396
0.881413
0.881431
0.88145
0.881473
0.8815
0.881526
0.881555
0.881584
0.881604
0.881619
0.881633
0.88164
0.881635
0.881622
0.881604
0.881581
0.881556
0.881527
0.881493
0.881455
0.88142
0.881386
0.881359
0.881361
0.881375
0.881389
0.881407
0.881437
0.881479
0.881521
0.881574
0.881605
0.881618
0.88163
0.881642
0.88164
0.881607
0.881599
0.881604
0.881602
0.881587
0.881566
0.881545
0.881515
0.881511
0.881538
0.881611
0.88171
0.88183
0.88187
0.881859
0.88177
0.881572
0.881652
0.8838
0.899671
0.969317
1.10627
1.26219
1.35759
1.38934
1.38244
1.38239
1.38983
1.39198
1.38903
1.38718
1.3883
1.38917
1.38871
1.38834
1.38857
1.38873
1.38868
1.38849
1.38817
0.881383
0.881381
0.881379
0.881378
0.881377
0.881376
0.881375
0.881374
0.881373
0.88137
0.881366
0.881368
0.881371
0.881371
0.881373
0.881378
0.881382
0.881387
0.881395
0.881405
0.881416
0.881427
0.881439
0.88145
0.881462
0.881472
0.881482
0.881498
0.881518
0.881541
0.881569
0.881595
0.881615
0.881627
0.881637
0.881643
0.881633
0.881612
0.881588
0.881563
0.881533
0.8815
0.881465
0.881442
0.88143
0.881412
0.88138
0.881373
0.881388
0.881401
0.881411
0.88143
0.881478
0.881564
0.881646
0.881676
0.881683
0.881685
0.881685
0.881676
0.881635
0.881594
0.881584
0.881577
0.881568
0.881559
0.881546
0.881566
0.881611
0.881693
0.881764
0.881813
0.88186
0.881851
0.881766
0.881604
0.88142
0.881306
0.881333
0.881949
0.888291
0.923678
1.03483
1.18975
1.30799
1.35357
1.38277
1.39839
1.39394
1.38524
1.38717
1.39016
1.38945
1.3881
1.38832
1.38882
1.38877
1.38851
1.38836
1.3881
0.881618
0.88162
0.88162
0.881622
0.881623
0.881623
0.881622
0.881623
0.881625
0.881627
0.881628
0.881628
0.881624
0.88162
0.881615
0.88161
0.881604
0.881594
0.881589
0.881584
0.881575
0.881562
0.881546
0.881522
0.881515
0.881509
0.881492
0.881478
0.881474
0.881473
0.881475
0.881485
0.881494
0.881491
0.881489
0.881496
0.881487
0.881471
0.881461
0.881454
0.881444
0.881429
0.881422
0.881429
0.881455
0.881467
0.881457
0.881461
0.881485
0.881505
0.881523
0.881546
0.881591
0.881663
0.881711
0.881713
0.881703
0.881681
0.881671
0.881659
0.881616
0.88157
0.881566
0.881564
0.881569
0.881584
0.881629
0.881692
0.881771
0.881845
0.881847
0.881847
0.881812
0.881704
0.88154
0.88143
0.881344
0.881302
0.881347
0.88148
0.881756
0.883833
0.900891
0.970757
1.11374
1.27831
1.36221
1.39003
1.38081
1.38321
1.39202
1.39134
1.38795
1.38774
1.3889
1.38908
1.38861
1.38831
1.38826
1.388
0.881848
0.88185
0.881854
0.881857
0.881857
0.881856
0.881854
0.881852
0.881849
0.881848
0.881846
0.88184
0.881833
0.881824
0.881809
0.881795
0.881778
0.881744
0.881718
0.881698
0.881662
0.881624
0.881598
0.881562
0.881519
0.881485
0.881454
0.881423
0.881393
0.881359
0.881341
0.881337
0.881336
0.881319
0.881307
0.8813
0.881298
0.881304
0.881318
0.881341
0.881376
0.881401
0.881409
0.881446
0.88152
0.881586
0.881637
0.881683
0.881709
0.881712
0.881692
0.881672
0.881684
0.881722
0.881741
0.881717
0.881645
0.881593
0.881579
0.881578
0.881571
0.881557
0.88156
0.881596
0.881667
0.881749
0.881809
0.88185
0.88189
0.881881
0.881861
0.881776
0.881621
0.881427
0.881332
0.881328
0.881328
0.881388
0.881541
0.881762
0.8819
0.881955
0.882536
0.888799
0.929332
1.04716
1.20227
1.32734
1.3569
1.38648
1.39759
1.392
1.3859
1.38779
1.38987
1.38892
1.38826
1.38834
1.38817
1.38782
0.881865
0.881871
0.881877
0.881884
0.881894
0.8819
0.881898
0.881893
0.881887
0.881882
0.881876
0.881866
0.881852
0.88184
0.881835
0.881824
0.881794
0.881761
0.881729
0.881677
0.881606
0.881571
0.88155
0.881516
0.881469
0.88144
0.881413
0.881378
0.881347
0.881316
0.881283
0.881274
0.881273
0.881261
0.881235
0.881224
0.881224
0.881234
0.881264
0.88131
0.881367
0.881427
0.881481
0.881547
0.881638
0.88173
0.881783
0.881806
0.881821
0.88181
0.881749
0.881725
0.881723
0.881725
0.881699
0.881633
0.881557
0.88153
0.881532
0.881544
0.881558
0.881592
0.881662
0.881773
0.881912
0.881973
0.881956
0.881927
0.881913
0.881865
0.881719
0.881525
0.881335
0.881234
0.881258
0.881308
0.881441
0.881641
0.881823
0.881955
0.881965
0.88191
0.88166
0.881718
0.884152
0.903731
0.98729
1.14438
1.29392
1.37477
1.38942
1.37908
1.38625
1.39137
1.39005
1.38766
1.38794
1.38845
1.38796
1.38768
0.881608
0.881613
0.881619
0.881625
0.88163
0.881637
0.881646
0.881655
0.881665
0.881677
0.881682
0.881679
0.881674
0.881663
0.88165
0.881633
0.8816
0.881593
0.881593
0.881555
0.881523
0.881522
0.881505
0.881482
0.881468
0.881456
0.881433
0.881392
0.881374
0.88136
0.881347
0.881346
0.881334
0.88133
0.881356
0.881359
0.881344
0.881359
0.88141
0.881461
0.881515
0.881573
0.881594
0.881627
0.881693
0.881777
0.881803
0.881797
0.881797
0.881782
0.881718
0.881636
0.88161
0.881608
0.881594
0.881571
0.881526
0.881518
0.881533
0.88158
0.881672
0.881796
0.881911
0.882029
0.882077
0.882062
0.882012
0.881935
0.881795
0.881582
0.88138
0.881237
0.88117
0.881191
0.881261
0.881441
0.881724
0.881925
0.882008
0.882015
0.881945
0.881725
0.881388
0.881254
0.881321
0.882253
0.891744
0.941505
1.08057
1.2435
1.33138
1.3629
1.39681
1.39584
1.39034
1.38691
1.38874
1.3886
1.38735
1.38761
0.881276
0.881278
0.881283
0.881288
0.881294
0.881303
0.881315
0.881327
0.881341
0.881357
0.881376
0.881396
0.881412
0.881428
0.881443
0.881458
0.881469
0.881482
0.881486
0.881481
0.881486
0.881493
0.881506
0.881549
0.88159
0.881609
0.881633
0.881662
0.88167
0.881659
0.881668
0.881679
0.881658
0.881648
0.881661
0.881648
0.881601
0.88158
0.881583
0.8816
0.881632
0.881661
0.881648
0.881637
0.881672
0.881693
0.881685
0.881671
0.881663
0.881624
0.881543
0.88149
0.881478
0.881525
0.881572
0.881579
0.881597
0.881649
0.881769
0.881907
0.881997
0.882077
0.882117
0.882124
0.882109
0.882054
0.881918
0.881696
0.88141
0.881204
0.881106
0.881114
0.881143
0.881261
0.881492
0.881798
0.882004
0.88207
0.882061
0.881953
0.881701
0.881416
0.881232
0.881236
0.881314
0.88153
0.881991
0.885702
0.916001
1.01573
1.18683
1.32305
1.38676
1.38673
1.38351
1.3891
1.39053
1.38741
1.38677
1.3882
0.881225
0.881232
0.881239
0.881248
0.881259
0.88127
0.881284
0.881298
0.881311
0.881328
0.881361
0.88138
0.881389
0.881405
0.881427
0.881445
0.881469
0.881505
0.88155
0.881598
0.881642
0.881686
0.881731
0.881768
0.881805
0.881842
0.881877
0.881896
0.881896
0.881879
0.881867
0.881853
0.881809
0.881789
0.881763
0.881714
0.881664
0.881622
0.881583
0.881552
0.881555
0.881562
0.8815
0.881445
0.881465
0.881472
0.881472
0.881475
0.881508
0.881513
0.881476
0.881473
0.881482
0.881527
0.881643
0.881774
0.881892
0.882013
0.882177
0.882241
0.882231
0.882203
0.88216
0.882086
0.881939
0.881726
0.881514
0.88126
0.881104
0.881021
0.881025
0.881084
0.881296
0.881623
0.881909
0.882098
0.882118
0.882089
0.881934
0.881664
0.88136
0.881227
0.88123
0.881313
0.881606
0.881853
0.881934
0.882004
0.883388
0.897912
0.969743
1.12471
1.28059
1.34177
1.3758
1.39748
1.39292
1.38499
1.38672
1.38951
0.881531
0.881528
0.881524
0.881542
0.8816
0.881635
0.881662
0.881713
0.881733
0.88176
0.88184
0.881886
0.881902
0.881915
0.881928
0.881939
0.881947
0.881956
0.881965
0.881966
0.881944
0.881918
0.881918
0.881907
0.881902
0.881919
0.881927
0.881919
0.881897
0.881859
0.881808
0.881767
0.881722
0.881689
0.881637
0.881556
0.881472
0.881374
0.881293
0.881284
0.881313
0.88131
0.881271
0.88127
0.881308
0.881357
0.881381
0.881418
0.881498
0.881558
0.88158
0.881634