/*--------------------------------*- C++ -*----------------------------------*\
  =========                 |
  \\      /  F ield         | OpenFOAM: The Open Source CFD Toolbox
   \\    /   O peration     | Website:  https://openfoam.org
    \\  /    A nd           | Version:  7
     \\/     M anipulation  |
\*---------------------------------------------------------------------------*/
FoamFile
{
    version     2.0;
    format      ascii;
    class       volVectorField;
    location    "1.1";
    object      U;
}
// * * * * * * * * * * * * * * * * * * * * * * * * * * * * * * * * * * * * * //

dimensions      [0 1 -1 0 0 0 0];

internalField   nonuniform List<vector> 
8400
(
(2.28176 -0.870911 0)
(2.33419 -0.558801 0)
(2.38227 -0.421128 0)
(2.40462 -0.349973 0)
(2.41807 -0.272512 0)
(2.42738 -0.265214 0)
(2.43693 -0.212054 0)
(2.44668 -0.218098 0)
(2.45484 -0.232975 0)
(2.50553 -0.163573 0)
(2.551 -0.0690925 0)
(2.63726 0.0607782 0)
(2.69662 0.168372 0)
(2.70735 0.180703 0)
(2.69933 0.184706 0)
(2.68748 0.179391 0)
(2.68202 0.155133 0)
(2.66889 0.156206 0)
(2.64824 0.163684 0)
(2.64041 0.165568 0)
(2.63363 0.157893 0)
(2.64389 0.158759 0)
(2.66231 0.171612 0)
(2.66652 0.168394 0)
(2.65452 0.14334 0)
(2.65155 0.132963 0)
(2.65822 0.132363 0)
(2.67693 0.139076 0)
(2.69702 0.119974 0)
(2.76402 0.0757866 0)
(2.27453 -1.36627 0)
(2.32483 -1.38729 0)
(2.36494 -1.38127 0)
(2.40129 -1.323 0)
(2.41999 -1.22653 0)
(2.42834 -1.1102 0)
(2.42325 -0.993745 0)
(2.401 -0.863212 0)
(2.34226 -0.709534 0)
(2.29088 -0.570086 0)
(2.22325 -0.370698 0)
(2.21636 -0.163703 0)
(2.2637 0.0411743 0)
(2.2562 0.161675 0)
(2.25804 0.209009 0)
(2.27211 0.21973 0)
(2.29128 0.199244 0)
(2.32075 0.136273 0)
(2.30716 0.111884 0)
(2.29824 0.118785 0)
(2.29575 0.117147 0)
(2.32033 0.118285 0)
(2.36168 0.144884 0)
(2.40568 0.173479 0)
(2.44213 0.172037 0)
(2.48152 0.156557 0)
(2.53026 0.124726 0)
(2.59406 0.111193 0)
(2.64319 0.0825587 0)
(2.73696 0.0494535 0)
(2.42602 -1.4762 0)
(2.45713 -1.49099 0)
(2.48955 -1.48867 0)
(2.53569 -1.48179 0)
(2.58118 -1.48393 0)
(2.62886 -1.48047 0)
(2.66213 -1.50069 0)
(2.66359 -1.51795 0)
(2.65669 -1.5232 0)
(2.61488 -1.49008 0)
(2.46779 -1.29776 0)
(2.31478 -0.916231 0)
(2.12907 -0.455107 0)
(2.02843 -0.141653 0)
(1.91429 0.0723789 0)
(1.89547 0.13695 0)
(1.90726 0.157138 0)
(1.97005 0.18296 0)
(2.02021 0.181765 0)
(2.04687 0.138462 0)
(2.09087 0.0860169 0)
(2.13413 0.0760716 0)
(2.18058 0.0939642 0)
(2.24035 0.111522 0)
(2.31034 0.109788 0)
(2.38841 0.102408 0)
(2.46866 0.0765848 0)
(2.55785 0.0702847 0)
(2.6345 0.0465399 0)
(2.74168 0.0178248 0)
(2.56797 -1.58271 0)
(2.58262 -1.59136 0)
(2.60064 -1.5962 0)
(2.62201 -1.57527 0)
(2.64693 -1.54763 0)
(2.67063 -1.5427 0)
(2.68594 -1.53133 0)
(2.6718 -1.51639 0)
(2.65703 -1.50594 0)
(2.64283 -1.49835 0)
(2.63209 -1.47384 0)
(2.6161 -1.47776 0)
(2.54907 -1.39033 0)
(2.38833 -1.12997 0)
(2.1966 -0.801473 0)
(1.99877 -0.445938 0)
(1.9056 -0.197873 0)
(1.89379 -0.0283118 0)
(1.96607 0.0188069 0)
(2.044 0.0340869 0)
(2.09416 0.0384563 0)
(2.13013 0.0468417 0)
(2.1743 0.0595693 0)
(2.23986 0.071518 0)
(2.3195 0.0698452 0)
(2.40269 0.0638403 0)
(2.48425 0.0416203 0)
(2.56788 0.0343656 0)
(2.63599 0.00311281 0)
(2.73921 -0.0125286 0)
(2.70427 -1.697 0)
(2.68723 -1.68391 0)
(2.6713 -1.65484 0)
(2.6613 -1.62033 0)
(2.66871 -1.5695 0)
(2.6801 -1.53762 0)
(2.68249 -1.528 0)
(2.67416 -1.51473 0)
(2.65164 -1.49947 0)
(2.64131 -1.48725 0)
(2.62692 -1.47082 0)
(2.6074 -1.41964 0)
(2.59774 -1.40081 0)
(2.58208 -1.38391 0)
(2.5399 -1.35994 0)
(2.4301 -1.22857 0)
(2.29546 -1.03761 0)
(2.18541 -0.772654 0)
(2.12724 -0.478278 0)
(2.14554 -0.2745 0)
(2.17583 -0.158839 0)
(2.20732 -0.0933818 0)
(2.24883 -0.050077 0)
(2.30391 -0.0233424 0)
(2.36873 -0.0181173 0)
(2.43481 -0.018966 0)
(2.50333 -0.031346 0)
(2.57442 -0.0328735 0)
(2.63869 -0.046931 0)
(2.74032 -0.0496792 0)
(2.7581 -1.72451 0)
(2.71006 -1.70462 0)
(2.68432 -1.66723 0)
(2.68352 -1.60418 0)
(2.69516 -1.54487 0)
(2.70169 -1.51277 0)
(2.69666 -1.50189 0)
(2.68927 -1.47924 0)
(2.67098 -1.44088 0)
(2.63944 -1.41166 0)
(2.63292 -1.37211 0)
(2.63584 -1.35315 0)
(2.6374 -1.30249 0)
(2.60808 -1.26611 0)
(2.588 -1.25368 0)
(2.5382 -1.20486 0)
(2.49916 -1.16989 0)
(2.45416 -1.11415 0)
(2.43373 -1.08064 0)
(2.39394 -0.967224 0)
(2.37919 -0.772346 0)
(2.37257 -0.56881 0)
(2.38655 -0.4058 0)
(2.41882 -0.287853 0)
(2.45254 -0.214071 0)
(2.48699 -0.159088 0)
(2.53041 -0.128643 0)
(2.58781 -0.111461 0)
(2.64818 -0.108434 0)
(2.7425 -0.0967582 0)
(2.85359 -1.62754 0)
(2.7916 -1.64331 0)
(2.75404 -1.64154 0)
(2.74825 -1.56088 0)
(2.74767 -1.4879 0)
(2.73963 -1.45261 0)
(2.72868 -1.43188 0)
(2.71474 -1.40652 0)
(2.70195 -1.37196 0)
(2.68582 -1.35321 0)
(2.67272 -1.33864 0)
(2.6698 -1.30377 0)
(2.66941 -1.24468 0)
(2.65409 -1.201 0)
(2.63561 -1.17946 0)
(2.58668 -1.14161 0)
(2.51487 -1.0764 0)
(2.47871 -1.03318 0)
(2.47052 -1.01462 0)
(2.47473 -0.961749 0)
(2.49165 -0.921003 0)
(2.51519 -0.883242 0)
(2.53254 -0.822829 0)
(2.54229 -0.722451 0)
(2.5633 -0.603425 0)
(2.58558 -0.486125 0)
(2.60994 -0.38827 0)
(2.64171 -0.305542 0)
(2.68003 -0.251566 0)
(2.75595 -0.176517 0)
(2.92809 -1.62884 0)
(2.8832 -1.62875 0)
(2.82848 -1.62692 0)
(2.79554 -1.55918 0)
(2.78668 -1.47515 0)
(2.77656 -1.42274 0)
(2.76764 -1.38923 0)
(2.75465 -1.36522 0)
(2.73842 -1.34939 0)
(2.72658 -1.31996 0)
(2.7163 -1.27768 0)
(2.71391 -1.23139 0)
(2.71796 -1.16907 0)
(2.70218 -1.11818 0)
(2.6877 -1.10005 0)
(2.65195 -1.07886 0)
(2.58168 -1.02466 0)
(2.53595 -0.941273 0)
(2.52724 -0.918985 0)
(2.51787 -0.886698 0)
(2.5278 -0.831653 0)
(2.55493 -0.791077 0)
(2.58518 -0.760957 0)
(2.61321 -0.724339 0)
(2.64059 -0.6623 0)
(2.66833 -0.601093 0)
(2.69027 -0.539005 0)
(2.70562 -0.453902 0)
(2.72413 -0.373041 0)
(2.78444 -0.2315 0)
(3.03587 -1.38786 0)
(3.00662 -1.35172 0)
(2.94055 -1.35814 0)
(2.88715 -1.35846 0)
(2.8592 -1.27541 0)
(2.84615 -1.21102 0)
(2.83294 -1.19165 0)
(2.81856 -1.16487 0)
(2.80401 -1.12888 0)
(2.78959 -1.10493 0)
(2.77598 -1.09492 0)
(2.76911 -1.07421 0)
(2.77021 -1.02664 0)
(2.75393 -0.990731 0)
(2.73624 -0.978147 0)
(2.71192 -0.956764 0)
(2.64892 -0.916443 0)
(2.58732 -0.868266 0)
(2.57318 -0.838995 0)
(2.56179 -0.808439 0)
(2.56965 -0.779375 0)
(2.59498 -0.730748 0)
(2.62587 -0.678451 0)
(2.65395 -0.638965 0)
(2.68245 -0.612949 0)
(2.71511 -0.572972 0)
(2.74715 -0.51091 0)
(2.77444 -0.424468 0)
(2.79626 -0.350189 0)
(2.83826 -0.217912 0)
(3.06464 -1.30923 0)
(3.04469 -1.30254 0)
(3.00537 -1.31004 0)
(2.95308 -1.32509 0)
(2.91384 -1.27642 0)
(2.88979 -1.19817 0)
(2.87427 -1.16159 0)
(2.85769 -1.14134 0)
(2.84126 -1.11376 0)
(2.82874 -1.08371 0)
(2.81923 -1.05735 0)
(2.81317 -1.02844 0)
(2.81166 -0.9784 0)
(2.79344 -0.930857 0)
(2.7746 -0.915823 0)
(2.74898 -0.90194 0)
(2.69316 -0.863377 0)
(2.63544 -0.813104 0)
(2.61805 -0.793351 0)
(2.61017 -0.761601 0)
(2.6186 -0.70893 0)
(2.64188 -0.672376 0)
(2.67122 -0.639017 0)
(2.69933 -0.582755 0)
(2.72505 -0.509779 0)
(2.75328 -0.448162 0)
(2.7852 -0.40645 0)
(2.8202 -0.364976 0)
(2.85143 -0.319008 0)
(2.89163 -0.193707 0)
(3.10829 -1.13121 0)
(3.08966 -1.11695 0)
(3.05852 -1.11246 0)
(3.01891 -1.12634 0)
(2.98151 -1.07753 0)
(2.95269 -1.01258 0)
(2.93292 -0.98546 0)
(2.91657 -0.968881 0)
(2.90073 -0.940834 0)
(2.88752 -0.912506 0)
(2.87572 -0.897107 0)
(2.86732 -0.8774 0)
(2.86215 -0.83651 0)
(2.84238 -0.801507 0)
(2.82474 -0.787054 0)
(2.80292 -0.770613 0)
(2.75002 -0.744085 0)
(2.69319 -0.694976 0)
(2.67337 -0.655853 0)
(2.66451 -0.632919 0)
(2.66694 -0.600539 0)
(2.68707 -0.552278 0)
(2.71348 -0.499289 0)
(2.74024 -0.459787 0)
(2.76808 -0.425412 0)
(2.79798 -0.380519 0)
(2.82942 -0.325753 0)
(2.86174 -0.266298 0)
(2.89157 -0.213341 0)
(2.93246 -0.116611 0)
(3.14369 -0.97106 0)
(3.12198 -0.963114 0)
(3.0913 -0.960033 0)
(3.05636 -0.963673 0)
(3.0247 -0.933561 0)
(3.00033 -0.889909 0)
(2.97925 -0.875912 0)
(2.96196 -0.865155 0)
(2.94577 -0.838491 0)
(2.93389 -0.811099 0)
(2.92471 -0.795752 0)
(2.91808 -0.778335 0)
(2.90895 -0.740417 0)
(2.88618 -0.71034 0)
(2.86676 -0.697246 0)
(2.84338 -0.686096 0)
(2.79467 -0.660487 0)
(2.74487 -0.622297 0)
(2.72898 -0.603543 0)
(2.71768 -0.577296 0)
(2.72023 -0.533638 0)
(2.73978 -0.490473 0)
(2.76672 -0.44609 0)
(2.79415 -0.394375 0)
(2.8205 -0.337687 0)
(2.84707 -0.281256 0)
(2.87539 -0.226714 0)
(2.90583 -0.171962 0)
(2.93504 -0.120678 0)
(2.96937 -0.0504863 0)
(3.16446 -0.790586 0)
(3.14693 -0.790564 0)
(3.12125 -0.795957 0)
(3.09366 -0.784658 0)
(3.06537 -0.758559 0)
(3.04212 -0.742702 0)
(3.02503 -0.731531 0)
(3.00913 -0.716717 0)
(2.99412 -0.694646 0)
(2.98224 -0.671858 0)
(2.97258 -0.659065 0)
(2.96499 -0.643029 0)
(2.95004 -0.610642 0)
(2.92646 -0.590009 0)
(2.90807 -0.577389 0)
(2.88228 -0.565006 0)
(2.83544 -0.543727 0)
(2.79531 -0.511096 0)
(2.78306 -0.491782 0)
(2.77192 -0.463359 0)
(2.77374 -0.423689 0)
(2.79185 -0.378433 0)
(2.8174 -0.330805 0)
(2.84419 -0.284123 0)
(2.87085 -0.237082 0)
(2.89731 -0.187453 0)
(2.92374 -0.135959 0)
(2.94997 -0.0860048 0)
(2.97318 -0.0445849 0)
(2.99222 -0.0112752 0)
(3.16722 -0.602669 0)
(3.15845 -0.606716 0)
(3.14492 -0.61129 0)
(3.12619 -0.600278 0)
(3.10401 -0.593629 0)
(3.08395 -0.593684 0)
(3.06598 -0.577495 0)
(3.0511 -0.560223 0)
(3.03904 -0.548744 0)
(3.02572 -0.532392 0)
(3.01339 -0.519967 0)
(3.00367 -0.506365 0)
(2.98444 -0.485549 0)
(2.96339 -0.472193 0)
(2.94446 -0.461366 0)
(2.91383 -0.450368 0)
(2.872 -0.43114 0)
(2.84654 -0.409188 0)
(2.8353 -0.394449 0)
(2.82496 -0.362558 0)
(2.82947 -0.322772 0)
(2.84821 -0.278745 0)
(2.87297 -0.23279 0)
(2.89808 -0.186375 0)
(2.92219 -0.140358 0)
(2.94515 -0.0960648 0)
(2.9663 -0.0562446 0)
(2.98379 -0.0254021 0)
(2.99486 -0.00764024 0)
(2.99933 -0.000880006 0)
(3.15791 -0.409096 0)
(3.1545 -0.408518 0)
(3.14961 -0.406506 0)
(3.14137 -0.408518 0)
(3.1306 -0.412429 0)
(3.1181 -0.408563 0)
(3.10432 -0.402095 0)
(3.08871 -0.395654 0)
(3.07438 -0.387505 0)
(3.05953 -0.378656 0)
(3.0426 -0.372304 0)
(3.02898 -0.366283 0)
(3.01086 -0.356359 0)
(2.99274 -0.34588 0)
(2.97059 -0.337383 0)
(2.93524 -0.326861 0)
(2.90689 -0.31262 0)
(2.89602 -0.303314 0)
(2.88181 -0.279868 0)
(2.87682 -0.248207 0)
(2.88561 -0.210855 0)
(2.90461 -0.169828 0)
(2.92675 -0.128807 0)
(2.94778 -0.0904227 0)
(2.96637 -0.0565191 0)
(2.98168 -0.029414 0)
(2.99247 -0.0114406 0)
(2.99805 -0.00283358 0)
(2.99974 -0.000370703 0)
(2.99999 -1.66275e-05 0)
(3.1305 -0.181829 0)
(3.13001 -0.186486 0)
(3.13202 -0.198446 0)
(3.134 -0.203694 0)
(3.13474 -0.215936 0)
(3.12199 -0.225721 0)
(3.11011 -0.224841 0)
(3.09603 -0.222571 0)
(3.08634 -0.222399 0)
(3.07299 -0.225056 0)
(3.05797 -0.228363 0)
(3.04313 -0.227426 0)
(3.02579 -0.223137 0)
(3.00425 -0.218897 0)
(2.97919 -0.215154 0)
(2.95549 -0.20875 0)
(2.94655 -0.203526 0)
(2.93349 -0.188134 0)
(2.92569 -0.165372 0)
(2.92775 -0.13756 0)
(2.93935 -0.105845 0)
(2.95564 -0.0742143 0)
(2.97137 -0.0466145 0)
(2.98401 -0.025251 0)
(2.99278 -0.0110047 0)
(2.99765 -0.00347143 0)
(2.99953 -0.000688764 0)
(2.99995 -7.42621e-05 0)
(3 -4.05775e-06 0)
(3 -9.19819e-08 0)
(3.0973 -0.0112998 0)
(3.09521 -0.0213295 0)
(3.09264 -0.0276895 0)
(3.09078 -0.0344268 0)
(3.09021 -0.047314 0)
(3.08679 -0.0586099 0)
(3.08114 -0.0629386 0)
(3.07546 -0.0694933 0)
(3.07062 -0.0829238 0)
(3.06116 -0.0953873 0)
(3.04825 -0.102682 0)
(3.03453 -0.10688 0)
(3.02041 -0.109581 0)
(3.00369 -0.110906 0)
(2.98621 -0.109272 0)
(2.97998 -0.106674 0)
(2.97173 -0.0991562 0)
(2.96558 -0.0856106 0)
(2.96521 -0.0688659 0)
(2.97084 -0.0498306 0)
(2.97998 -0.0314397 0)
(2.98877 -0.0169017 0)
(2.99491 -0.00748985 0)
(2.99823 -0.00257258 0)
(2.99957 -0.000625422 0)
(2.99994 -9.71492e-05 0)
(2.99999 -8.92413e-06 0)
(3 -4.82841e-07 0)
(3 -1.5818e-08 0)
(3 3.41608e-10 0)
(3.06374 0.0483082 0)
(3.06209 0.0405656 0)
(3.05918 0.0340075 0)
(3.05612 0.0265141 0)
(3.05273 0.0180252 0)
(3.04857 0.0119658 0)
(3.04444 0.00799084 0)
(3.04132 0.00182889 0)
(3.03827 -0.00746942 0)
(3.03342 -0.0172374 0)
(3.02617 -0.0254463 0)
(3.01815 -0.0314466 0)
(3.00943 -0.0352804 0)
(2.99997 -0.0366335 0)
(2.99534 -0.0358364 0)
(2.99289 -0.0339551 0)
(2.98991 -0.0289177 0)
(2.98926 -0.0222702 0)
(2.99112 -0.014944 0)
(2.9944 -0.00829519 0)
(2.99738 -0.00366967 0)
(2.99909 -0.00126428 0)
(2.99977 -0.000328574 0)
(2.99996 -6.11202e-05 0)
(3 -7.75009e-06 0)
(3 -6.62276e-07 0)
(3 -3.88203e-08 0)
(3 -1.3145e-09 0)
(3 3.32481e-10 0)
(3 3.6856e-10 0)
(3.03921 0.0465509 0)
(3.03772 0.041625 0)
(3.03583 0.0359802 0)
(3.03353 0.030134 0)
(3.03059 0.0258207 0)
(3.02732 0.0217895 0)
(3.02441 0.0159023 0)
(3.02104 0.00940798 0)
(3.01594 0.00472977 0)
(3.01109 0.00167097 0)
(3.00785 -0.00115458 0)
(3.00531 -0.00373868 0)
(3.00234 -0.00534981 0)
(2.99987 -0.00565054 0)
(2.99932 -0.00543891 0)
(2.99874 -0.00483033 0)
(2.99843 -0.00363504 0)
(2.99866 -0.00228873 0)
(2.99921 -0.0011278 0)
(2.99969 -0.000408903 0)
(2.99992 -0.000108094 0)
(2.99999 -2.15578e-05 0)
(3 -3.30611e-06 0)
(3 -3.86014e-07 0)
(3 -3.41552e-08 0)
(3 -2.25269e-09 0)
(3 -1.52381e-11 0)
(3 1.44201e-10 0)
(3 1.7478e-10 0)
(3 1.15957e-10 0)
(3.00911 0.0241803 0)
(3.00906 0.0211172 0)
(3.00874 0.0179918 0)
(3.00811 0.0152453 0)
(3.00741 0.0121182 0)
(3.00656 0.00890977 0)
(3.00538 0.00674755 0)
(3.004 0.00535357 0)
(3.00323 0.00361643 0)
(3.00276 0.00179766 0)
(3.00194 0.000535032 0)
(3.00093 -9.90477e-06 0)
(3.00029 -0.000231788 0)
(3.00001 -0.000276 0)
(2.99997 -0.000259563 0)
(2.99994 -0.000222105 0)
(2.99993 -0.000144602 0)
(2.99995 -6.94424e-05 0)
(2.99998 -2.27129e-05 0)
(3 -4.93921e-06 0)
(3 -8.09153e-07 0)
(3 -1.14833e-07 0)
(3 -1.40172e-08 0)
(3 -1.36913e-09 0)
(3 -8.90877e-11 0)
(3 2.5554e-11 0)
(3 4.90229e-11 0)
(3 5.4511e-11 0)
(3 3.58143e-11 0)
(3 9.48501e-12 0)
(3.00067 0.00343723 0)
(3.00069 0.00293323 0)
(3.00067 0.00241793 0)
(3.00063 0.00190554 0)
(3.00057 0.00143382 0)
(3.00047 0.00105417 0)
(3.00035 0.000764698 0)
(3.00026 0.000517744 0)
(3.00021 0.000309116 0)
(3.00015 0.000173562 0)
(3.00008 9.2469e-05 0)
(3.00005 3.19296e-05 0)
(3.00002 2.37523e-06 0)
(3.00001 -2.94426e-06 0)
(3 -3.14184e-06 0)
(3 -2.60475e-06 0)
(3 -1.83766e-06 0)
(3 -7.65956e-07 0)
(3 -1.80486e-07 0)
(3 -2.54467e-08 0)
(3 -3.04513e-09 0)
(3 -3.86364e-10 0)
(3 -4.165e-11 0)
(3 2.15315e-12 0)
(3 9.92981e-12 0)
(3 1.44472e-11 0)
(3 1.37578e-11 0)
(3 7.16429e-12 0)
(3 1.83638e-12 0)
(3 1.59445e-13 0)
(3.00002 9.61182e-05 0)
(3.00002 7.76355e-05 0)
(3.00002 6.12761e-05 0)
(3.00001 4.65603e-05 0)
(3.00001 3.38057e-05 0)
(3.00001 2.37418e-05 0)
(3.00001 1.61707e-05 0)
(3 1.02514e-05 0)
(3 5.88799e-06 0)
(3 3.22146e-06 0)
(3 1.70514e-06 0)
(3 1.14604e-06 0)
(3 1.05747e-06 0)
(3 5.50573e-07 0)
(3 1.69283e-07 0)
(3 2.31512e-08 0)
(3 -4.4939e-09 0)
(3 -2.53932e-09 0)
(3 -1.22727e-09 0)
(3 -2.13662e-10 0)
(3 -1.49629e-11 0)
(3 1.74208e-13 0)
(3 1.96293e-12 0)
(3 3.037e-12 0)
(3 3.6154e-12 0)
(3 2.74657e-12 0)
(3 1.10958e-12 0)
(3 2.2432e-13 0)
(3 1.80586e-14 0)
(3 -1.45936e-15 0)
(3 6.45032e-07 0)
(3 4.93502e-07 0)
(3 3.845e-07 0)
(3 2.90843e-07 0)
(3 2.10967e-07 0)
(3 1.47423e-07 0)
(3 9.83071e-08 0)
(3 6.10698e-08 0)
(3 3.4961e-08 0)
(3 1.92177e-08 0)
(3 1.43325e-08 0)
(3 1.57359e-08 0)
(3 2.40416e-08 0)
(3 4.25962e-08 0)
(3 3.89873e-08 0)
(3 1.84957e-08 0)
(3 3.19697e-09 0)
(3 1.91701e-10 0)
(3 1.09896e-12 0)
(3 -4.69812e-14 0)
(3 2.37243e-13 0)
(3 5.41794e-13 0)
(3 7.6369e-13 0)
(3 7.20117e-13 0)
(3 4.08536e-13 0)
(3 1.25243e-13 0)
(3 2.35919e-14 0)
(3 -3.10677e-16 0)
(3 -3.11126e-15 0)
(3 -3.72374e-15 0)
(3 1.63879e-09 0)
(3 1.1983e-09 0)
(3 8.91587e-10 0)
(3 6.08944e-10 0)
(3 3.48764e-10 0)
(3 1.30463e-10 0)
(3 -5.73497e-11 0)
(3 -2.00408e-10 0)
(3 -2.42303e-10 0)
(3 -1.74252e-10 0)
(3 -1.11445e-10 0)
(3 -3.97655e-11 0)
(3 1.60183e-10 0)
(3 5.67425e-10 0)
(3 7.50435e-10 0)
(3 6.65301e-10 0)
(3 4.66567e-10 0)
(3 1.18768e-10 0)
(3 8.97916e-12 0)
(3 2.82026e-13 0)
(3 1.25448e-13 0)
(3 1.15688e-13 0)
(3 7.25312e-14 0)
(3 2.73625e-14 0)
(3 3.59914e-15 0)
(3 -1.45507e-15 0)
(3 -5.84665e-16 0)
(3 -6.46309e-16 0)
(3 -1.08486e-15 0)
(3 -1.417e-15 0)
(3 -1.40517e-10 0)
(3 -1.55686e-10 0)
(3 -1.65103e-10 0)
(3 -1.7424e-10 0)
(3 -1.86877e-10 0)
(3 -2.01938e-10 0)
(3 -2.07367e-10 0)
(3 -2.00982e-10 0)
(3 -1.88436e-10 0)
(3 -1.67895e-10 0)
(3 -1.34908e-10 0)
(3 -8.29918e-11 0)
(3 -3.39977e-11 0)
(3 -9.4856e-12 0)
(3 1.40308e-12 0)
(3 5.71539e-12 0)
(3 5.97508e-12 0)
(3 4.76609e-12 0)
(3 1.67982e-12 0)
(3 1.75283e-13 0)
(3 1.47009e-14 0)
(3 2.27797e-15 0)
(3 1.14141e-15 0)
(3 -2.31371e-15 0)
(3 -3.09006e-15 0)
(3 -2.81686e-15 0)
(3 -2.31822e-15 0)
(3 -7.30758e-16 0)
(3 -8.62291e-16 0)
(3 -1.24904e-15 0)
(3 -5.49861e-11 0)
(3 -5.85163e-11 0)
(3 -6.05986e-11 0)
(3 -6.26791e-11 0)
(3 -6.35576e-11 0)
(3 -6.28194e-11 0)
(3 -5.90357e-11 0)
(3 -5.17861e-11 0)
(3 -4.13581e-11 0)
(3 -2.92927e-11 0)
(3 -1.86383e-11 0)
(3 -1.21576e-11 0)
(3 -8.13441e-12 0)
(3 -4.03223e-12 0)
(3 -1.12474e-12 0)
(3 -1.46039e-13 0)
(3 1.35835e-14 0)
(3 2.508e-14 0)
(3 2.14708e-14 0)
(3 9.02542e-15 0)
(3 9.19941e-16 0)
(3 -2.42545e-16 0)
(3 -1.38732e-15 0)
(3 -2.41923e-15 0)
(3 -3.5676e-15 0)
(3 -4.79735e-15 0)
(3 -6.2492e-15 0)
(3 -6.37651e-15 0)
(3 -4.35528e-15 0)
(3 -2.73421e-15 0)
(3 -4.4827e-12 0)
(3 -4.59501e-12 0)
(3 -4.62362e-12 0)
(3 -4.53322e-12 0)
(3 -4.03317e-12 0)
(3 -3.17987e-12 0)
(3 -2.34484e-12 0)
(3 -1.65012e-12 0)
(3 -1.07799e-12 0)
(3 -6.45288e-13 0)
(3 -3.5833e-13 0)
(3 -2.10782e-13 0)
(3 -1.15119e-13 0)
(3 -6.20431e-14 0)
(3 -4.23496e-14 0)
(3 -2.76482e-14 0)
(3 -7.82774e-15 0)
(3 -1.51913e-15 0)
(3 -1.09753e-15 0)
(3 -7.14456e-16 0)
(3 1.30867e-16 0)
(3 1.80775e-16 0)
(3 7.68804e-16 0)
(3 2.19454e-15 0)
(3 -9.90097e-16 0)
(3 -1.39679e-15 0)
(3 -1.36712e-15 0)
(3 -4.56989e-16 0)
(3 -1.6367e-15 0)
(3 -3.35187e-15 0)
(3 -4.30932e-14 0)
(3 -4.17286e-14 0)
(3 -3.88641e-14 0)
(3 -3.49706e-14 0)
(3 -2.94422e-14 0)
(3 -2.40232e-14 0)
(3 -1.63447e-14 0)
(3 -1.02177e-14 0)
(3 -7.41511e-15 0)
(3 -5.19103e-15 0)
(3 -4.20335e-15 0)
(3 -3.7217e-15 0)
(3 -2.51438e-15 0)
(3 -1.8826e-15 0)
(3 -1.25785e-15 0)
(3 -3.70367e-16 0)
(3 -5.293e-17 0)
(3 6.11339e-16 0)
(3 5.96698e-16 0)
(3 7.81709e-16 0)
(3 8.55654e-16 0)
(3 5.32744e-16 0)
(3 1.2709e-15 0)
(3 3.80577e-15 0)
(3 3.87727e-15 0)
(3 5.43199e-15 0)
(3 5.06336e-15 0)
(3 3.8654e-15 0)
(3 2.05489e-15 0)
(3 1.06587e-15 0)
(3 -2.17312e-15 0)
(3 -2.37264e-15 0)
(3 -2.36808e-15 0)
(3 -2.12647e-15 0)
(3 -1.92524e-15 0)
(3 -1.84329e-15 0)
(3 -1.69251e-15 0)
(3 -7.12134e-16 0)
(3 -3.20332e-16 0)
(3 1.47417e-16 0)
(3 2.47442e-16 0)
(3 1.31842e-16 0)
(3 2.52798e-16 0)
(3 1.48047e-16 0)
(3 -3.20079e-16 0)
(3 -9.30618e-16 0)
(3 -1.06984e-15 0)
(3 -2.18482e-16 0)
(3 1.13378e-15 0)
(3 2.89671e-15 0)
(3 2.73156e-15 0)
(3 1.63628e-15 0)
(3 8.36204e-16 0)
(3 6.66178e-16 0)
(3 2.39997e-15 0)
(3 2.181e-15 0)
(3 2.60588e-15 0)
(3 2.38234e-15 0)
(3 5.19632e-15 0)
(3 6.00892e-15 0)
(3 -1.75165e-15 0)
(3 -1.93009e-15 0)
(3 -2.00668e-15 0)
(3 -1.75313e-15 0)
(3 -1.6845e-15 0)
(3 -1.16862e-15 0)
(3 -3.60191e-16 0)
(3 8.54089e-17 0)
(3 5.19858e-16 0)
(3 7.18767e-16 0)
(3 9.3164e-16 0)
(3 8.84674e-16 0)
(3 1.03626e-15 0)
(3 9.13238e-16 0)
(3 4.66266e-16 0)
(3 -1.00033e-16 0)
(3 -4.53061e-16 0)
(3 -4.03731e-16 0)
(3 -1.63425e-16 0)
(3 9.24796e-16 0)
(3 1.11752e-15 0)
(3 1.06717e-15 0)
(3 4.63344e-16 0)
(3 5.76655e-16 0)
(3 1.09463e-15 0)
(3 1.02326e-15 0)
(3 1.12061e-15 0)
(3 2.10739e-15 0)
(3 2.2691e-15 0)
(3 1.6531e-15 0)
(2.22586 -1.38246 0)
(2.22013 -1.31912 0)
(2.37614 -1.45103 0)
(2.56385 -1.56321 0)
(2.73418 -1.68154 0)
(2.8321 -1.73912 0)
(2.92173 -1.65587 0)
(2.96729 -1.64904 0)
(3.06847 -1.4242 0)
(3.09636 -1.30778 0)
(3.13678 -1.13144 0)
(3.16698 -0.96967 0)
(3.17477 -0.788791 0)
(3.17218 -0.602065 0)
(3.16052 -0.409415 0)
(3.13775 -0.188717 0)
(3.09974 0.00530758 0)
(3.0647 0.0595623 0)
(3.0399 0.0541875 0)
(3.0089 0.0274064 0)
(3.00063 0.0040286 0)
(3.00002 0.000131829 0)
(3 1.29179e-06 0)
(3 6.967e-09 0)
(3 -7.9377e-11 0)
(3 -4.64385e-11 0)
(3 -4.03166e-12 0)
(3 -4.03455e-14 0)
(3 -2.07794e-15 0)
(3 -1.6817e-15 0)
(2.14786 -1.20777 0)
(2.1702 -1.28614 0)
(2.3885 -1.43417 0)
(2.64945 -1.53295 0)
(2.84783 -1.67017 0)
(2.95632 -1.72227 0)
(3.04952 -1.65667 0)
(3.05548 -1.60222 0)
(3.12609 -1.39168 0)
(3.16184 -1.24838 0)
(3.19695 -1.07954 0)
(3.20814 -0.90897 0)
(3.20033 -0.726768 0)
(3.18515 -0.553168 0)
(3.16775 -0.365658 0)
(3.14239 -0.143569 0)
(3.0988 0.0367881 0)
(3.06383 0.0739479 0)
(3.03568 0.0650059 0)
(3.00661 0.0291627 0)
(3.00037 0.00368557 0)
(3.00001 9.63658e-05 0)
(3 6.85367e-07 0)
(3 2.53306e-09 0)
(3 -7.70936e-11 0)
(3 -2.98474e-11 0)
(3 -1.99752e-12 0)
(3 -1.85509e-14 0)
(3 -1.83626e-15 0)
(3 -1.13298e-15 0)
(2.06362 -1.23593 0)
(2.15299 -1.22715 0)
(2.42769 -1.30817 0)
(2.75934 -1.44355 0)
(2.96156 -1.6292 0)
(3.04991 -1.6837 0)
(3.09867 -1.6941 0)
(3.14239 -1.55564 0)
(3.18824 -1.39361 0)
(3.22674 -1.23523 0)
(3.23865 -1.05931 0)
(3.233 -0.883372 0)
(3.21559 -0.723595 0)
(3.19384 -0.559663 0)
(3.17379 -0.339396 0)
(3.13503 -0.0794358 0)
(3.09428 0.0670006 0)
(3.06297 0.0858236 0)
(3.03265 0.0721503 0)
(3.00539 0.029838 0)
(3.00023 0.00349673 0)
(3 8.17474e-05 0)
(3 5.54625e-07 0)
(3 2.0765e-09 0)
(3 -3.68135e-11 0)
(3 -1.87204e-11 0)
(3 -1.08149e-12 0)
(3 -1.04861e-14 0)
(3 -1.26882e-15 0)
(3 9.42245e-18 0)
(2.07567 -1.14606 0)
(2.18515 -1.15429 0)
(2.47288 -1.23785 0)
(2.84817 -1.40066 0)
(3.04763 -1.63433 0)
(3.10339 -1.65817 0)
(3.12237 -1.71381 0)
(3.21535 -1.51138 0)
(3.23772 -1.39485 0)
(3.25036 -1.22091 0)
(3.26491 -1.04101 0)
(3.24614 -0.874474 0)
(3.22724 -0.713855 0)
(3.20669 -0.513802 0)
(3.16948 -0.258721 0)
(3.13623 -0.044032 0)
(3.09051 0.0875156 0)
(3.05988 0.100478 0)
(3.02742 0.0808425 0)
(3.00377 0.0312373 0)
(3.00009 0.00307594 0)
(3 6.36736e-05 0)
(3 4.1407e-07 0)
(3 1.56787e-09 0)
(3 -1.69158e-11 0)
(3 -1.07507e-11 0)
(3 -5.4549e-13 0)
(3 -6.00994e-15 0)
(3 -6.23173e-16 0)
(3 8.35773e-16 0)
(2.09524 -1.14152 0)
(2.26017 -1.13116 0)
(2.53239 -1.22363 0)
(2.89175 -1.41326 0)
(3.07467 -1.6996 0)
(3.12454 -1.6566 0)
(3.13153 -1.72026 0)
(3.2168 -1.50286 0)
(3.25026 -1.39187 0)
(3.288 -1.20151 0)
(3.27666 -1.05005 0)
(3.26183 -0.880077 0)
(3.24699 -0.681866 0)
(3.2068 -0.431048 0)
(3.17284 -0.222657 0)
(3.12918 -0.00149189 0)
(3.08479 0.108064 0)
(3.05599 0.114373 0)
(3.02231 0.0863767 0)
(3.00157 0.0298232 0)
(2.99997 0.00255878 0)
(3 4.63398e-05 0)
(3 2.89116e-07 0)
(3 1.10964e-09 0)
(3 -1.00905e-11 0)
(3 -6.28992e-12 0)
(3 -2.8904e-13 0)
(3 -3.79558e-15 0)
(3 2.22742e-16 0)
(3 1.12619e-15 0)
(2.15025 -1.14385 0)
(2.35587 -1.14566 0)
(2.6075 -1.25718 0)
(2.89855 -1.51994 0)
(3.0705 -1.77982 0)
(3.14375 -1.64411 0)
(3.1586 -1.71062 0)
(3.23873 -1.45109 0)
(3.27742 -1.36521 0)
(3.29368 -1.18511 0)
(3.29531 -1.01429 0)
(3.28687 -0.799096 0)
(3.24041 -0.562407 0)
(3.20194 -0.37859 0)
(3.16638 -0.180975 0)
(3.12415 0.0302495 0)
(3.0769 0.130684 0)
(3.05163 0.126846 0)
(3.01659 0.0906335 0)
(3.00063 0.026918 0)
(2.99993 0.0019936 0)
(3 3.15032e-05 0)
(3 1.88696e-07 0)
(3 7.31331e-10 0)
(3 -6.22574e-12 0)
(3 -3.2904e-12 0)
(3 -1.49718e-13 0)
(3 -2.25402e-15 0)
(3 5.80757e-16 0)
(3 1.27965e-15 0)
(2.19952 -1.16941 0)
(2.40165 -1.17339 0)
(2.68359 -1.35969 0)
(2.93624 -1.71192 0)
(3.06711 -1.82089 0)
(3.15317 -1.63286 0)
(3.16236 -1.64215 0)
(3.24092 -1.39021 0)
(3.279 -1.31338 0)
(3.30314 -1.11233 0)
(3.29857 -0.892701 0)
(3.26028 -0.673742 0)
(3.22848 -0.515374 0)
(3.19741 -0.359801 0)
(3.15614 -0.128274 0)
(3.11335 0.0748412 0)
(3.06875 0.149883 0)
(3.04588 0.139613 0)
(3.01166 0.0924872 0)
(2.9994 0.0246062 0)
(2.99991 0.00148703 0)
(3 2.02391e-05 0)
(3 1.16301e-07 0)
(3 4.5327e-10 0)
(3 -1.56757e-12 0)
(3 -1.56475e-12 0)
(3 -7.28384e-14 0)
(3 -9.26882e-16 0)
(3 8.56413e-16 0)
(3 1.23786e-15 0)
(2.23132 -1.18912 0)
(2.42065 -1.20652 0)
(2.75562 -1.50274 0)
(2.98045 -1.77166 0)
(3.06727 -1.82372 0)
(3.17447 -1.57639 0)
(3.17042 -1.60366 0)
(3.23856 -1.37475 0)
(3.27467 -1.19206 0)
(3.28716 -0.989363 0)
(3.27824 -0.81078 0)
(3.25935 -0.668808 0)
(3.2284 -0.539025 0)
(3.19411 -0.334026 0)
(3.15387 -0.0964912 0)
(3.10281 0.112359 0)
(3.0622 0.164293 0)
(3.03807 0.151464 0)
(3.00396 0.0933275 0)
(2.99888 0.0208045 0)
(2.99993 0.00103354 0)
(3 1.22177e-05 0)
(3 6.78324e-08 0)
(3 2.6657e-10 0)
(3 -3.73216e-13 0)
(3 -6.74091e-13 0)
(3 -2.97181e-14 0)
(3 -3.4122e-16 0)
(3 9.30073e-16 0)
(3 1.48324e-15 0)
(2.27066 -1.21542 0)
(2.45655 -1.23681 0)
(2.80964 -1.53931 0)
(3.00598 -1.7687 0)
(3.05482 -1.82349 0)
(3.16324 -1.59622 0)
(3.182 -1.54744 0)
(3.23813 -1.37047 0)
(3.27492 -1.14185 0)
(3.29181 -1.00339 0)
(3.28348 -0.851474 0)
(3.25635 -0.703546 0)
(3.22903 -0.516313 0)
(3.19191 -0.272647 0)
(3.14252 -0.0314985 0)
(3.0917 0.144232 0)
(3.05447 0.180085 0)
(3.03027 0.159419 0)
(3.00331 0.0873509 0)
(2.99903 0.0166159 0)
(2.99995 0.000680413 0)
(3 7.03215e-06 0)
(3 3.77539e-08 0)
(3 1.49903e-10 0)
(3 9.12859e-14 0)
(3 -2.69219e-13 0)
(3 -1.06194e-14 0)
(3 1.85434e-16 0)
(3 8.58187e-16 0)
(3 1.57769e-15 0)
(2.31093 -1.23914 0)
(2.54134 -1.28614 0)
(2.84648 -1.54564 0)
(3.01343 -1.77913 0)
(3.04014 -1.81122 0)
(3.1151 -1.67436 0)
(3.17234 -1.44974 0)
(3.23944 -1.36743 0)
(3.27971 -1.20175 0)
(3.28549 -1.04643 0)
(3.27799 -0.869602 0)
(3.26605 -0.669778 0)
(3.23092 -0.415706 0)
(3.18824 -0.215047 0)
(3.1299 0.0234642 0)
(3.07852 0.175827 0)
(3.04393 0.198718 0)
(3.02056 0.16678 0)
(2.99787 0.0858221 0)
(2.9988 0.0130973 0)
(2.99996 0.000425294 0)
(3 3.8622e-06 0)
(3 2.01014e-08 0)
(3 8.02615e-11 0)
(3 6.62044e-15 0)
(3 -9.91854e-14 0)
(3 -2.93943e-15 0)
(3 4.67938e-16 0)
(3 8.09774e-16 0)
(3 1.4111e-15 0)
(2.38397 -1.29188 0)
(2.58348 -1.32012 0)
(2.842 -1.56308 0)
(3.0133 -1.78207 0)
(3.04342 -1.78868 0)
(3.10923 -1.67724 0)
(3.20106 -1.46543 0)
(3.24295 -1.3773 0)
(3.27564 -1.21647 0)
(3.30061 -1.01802 0)
(3.30293 -0.78455 0)
(3.26879 -0.537217 0)
(3.22166 -0.342373 0)
(3.17347 -0.148046 0)
(3.11942 0.0652422 0)
(3.06577 0.202696 0)
(3.03629 0.209712 0)
(3.01033 0.171497 0)
(2.99638 0.0725046 0)
(2.99906 0.00922923 0)
(2.99998 0.000243519 0)
(3 1.99895e-06 0)
(3 1.01985e-08 0)
(3 4.08146e-11 0)
(3 9.00906e-14 0)
(3 -3.21104e-14 0)
(3 4.12045e-16 0)
(3 7.13425e-16 0)
(3 9.60672e-16 0)
(3 1.36564e-15 0)
(2.42035 -1.32695 0)
(2.58784 -1.36914 0)
(2.81911 -1.60519 0)
(3.00103 -1.77561 0)
(3.08028 -1.68398 0)
(3.11998 -1.66013 0)
(3.20043 -1.50052 0)
(3.26579 -1.35333 0)
(3.31659 -1.12736 0)
(3.32028 -0.871987 0)
(3.28818 -0.643161 0)
(3.25006 -0.464164 0)
(3.2116 -0.311328 0)
(3.15576 -0.0846646 0)
(3.10033 0.127651 0)
(3.05074 0.229857 0)
(3.02796 0.222836 0)
(3.00055 0.175676 0)
(2.99318 0.0658906 0)
(2.9992 0.00634647 0)
(2.99999 0.000133062 0)
(3 9.89588e-07 0)
(3 4.95533e-09 0)
(3 1.98703e-11 0)
(3 2.88076e-14 0)
(3 -9.41426e-15 0)
(3 2.12157e-15 0)
(3 9.59348e-16 0)
(3 8.30693e-16 0)
(3 1.31155e-15 0)
(2.42261 -1.32901 0)
(2.59065 -1.41349 0)
(2.82385 -1.62243 0)
(2.97505 -1.77078 0)
(3.08307 -1.63434 0)
(3.12521 -1.63832 0)
(3.21122 -1.47761 0)
(3.28796 -1.20375 0)
(3.29806 -0.967809 0)
(3.29596 -0.777012 0)
(3.27968 -0.626056 0)
(3.24543 -0.475744 0)
(3.19812 -0.260952 0)
(3.14453 -0.0447777 0)
(3.08396 0.172058 0)
(3.03807 0.247809 0)
(3.02031 0.234095 0)
(2.99392 0.164542 0)
(2.99411 0.0509563 0)
(2.99947 0.00394005 0)
(2.99999 6.70138e-05 0)
(3 4.62025e-07 0)
(3 2.29243e-09 0)
(3 9.25809e-12 0)
(3 2.55144e-14 0)
(3 -3.18495e-15 0)
(3 2.61355e-15 0)
(3 1.10285e-15 0)
(3 -3.29363e-17 0)
(3 8.06456e-16 0)
(2.41194 -1.31501 0)
(2.57474 -1.4241 0)
(2.82019 -1.62731 0)
(2.96018 -1.77097 0)
(3.08235 -1.62242 0)
(3.12498 -1.60465 0)
(3.22533 -1.33543 0)
(3.26653 -1.12323 0)
(3.29501 -0.976412 0)
(3.29504 -0.819739 0)
(3.27259 -0.656739 0)
(3.23934 -0.444566 0)
(3.19032 -0.218666 0)
(3.12408 0.0271965 0)
(3.06298 0.217239 0)
(3.02586 0.266152 0)
(3.00728 0.244334 0)
(2.9892 0.154209 0)
(2.99486 0.0392242 0)
(2.99969 0.00228959 0)
(3 3.1658e-05 0)
(3 2.04917e-07 0)
(3 1.01045e-09 0)
(3 4.11491e-12 0)
(3 1.08936e-14 0)
(3 -2.59981e-16 0)
(3 3.21343e-15 0)
(3 7.44461e-16 0)
(3 -8.34012e-16 0)
(3 9.23784e-17 0)
(2.39377 -1.29308 0)
(2.51927 -1.40573 0)
(2.80136 -1.62397 0)
(2.94998 -1.78656 0)
(3.08631 -1.52965 0)
(3.12861 -1.54149 0)
(3.21821 -1.32631 0)
(3.26815 -1.19853 0)
(3.28719 -1.02769 0)
(3.28619 -0.836895 0)
(3.27758 -0.604051 0)
(3.23226 -0.348536 0)
(3.17759 -0.157231 0)
(3.1098 0.0712239 0)
(3.04678 0.245585 0)
(3.01406 0.279149 0)
(2.99607 0.248631 0)
(2.98511 0.144703 0)
(2.99599 0.0284891 0)
(2.99983 0.00124996 0)
(3 1.42216e-05 0)
(3 8.70867e-08 0)
(3 4.26288e-10 0)
(3 1.7464e-12 0)
(3 7.44972e-15 0)
(3 1.16098e-15 0)
(3 3.2873e-15 0)
(3 6.11396e-16 0)
(3 -1.1483e-15 0)
(3 -3.50978e-16 0)
(2.37657 -1.27155 0)
(2.4795 -1.34111 0)
(2.76936 -1.59124 0)
(2.95653 -1.80176 0)
(3.10509 -1.5289 0)
(3.13485 -1.5585 0)
(3.2129 -1.38046 0)
(3.26357 -1.22011 0)
(3.30202 -1.00212 0)
(3.31141 -0.724039 0)
(3.26553 -0.450938 0)
(3.21983 -0.286398 0)
(3.15096 -0.0639076 0)
(3.08493 0.143085 0)
(3.02767 0.279045 0)
(3.00357 0.288103 0)
(2.99026 0.248384 0)
(2.98584 0.121882 0)
(2.99736 0.0188119 0)
(2.99992 0.000620846 0)
(3 6.01216e-06 0)
(3 3.53379e-08 0)
(3 1.71763e-10 0)
(3 7.08894e-13 0)
(3 5.354e-15 0)
(3 1.50414e-15 0)
(3 1.46683e-15 0)
(3 -1.24496e-16 0)
(3 -1.15279e-15 0)
(3 -3.97547e-16 0)
(2.35646 -1.25266 0)
(2.46499 -1.29966 0)
(2.73381 -1.58001 0)
(2.94442 -1.81379 0)
(3.10725 -1.614 0)
(3.14926 -1.57266 0)
(3.24072 -1.36958 0)
(3.31876 -1.12552 0)
(3.32642 -0.819418 0)
(3.28455 -0.554732 0)
(3.24566 -0.391556 0)
(3.19826 -0.226734 0)
(3.12756 0.000927824 0)
(3.06191 0.199982 0)
(3.01217 0.302536 0)
(2.99445 0.297458 0)
(2.98051 0.235887 0)
(2.98711 0.0986955 0)
(2.9984 0.0116209 0)
(2.99996 0.000292716 0)
(3 2.4606e-06 0)
(3 1.39064e-08 0)
(3 6.66276e-11 0)
(3 2.76774e-13 0)
(3 4.80493e-15 0)
(3 2.02021e-15 0)
(3 1.72022e-16 0)
(3 -2.54582e-16 0)
(3 -9.0646e-16 0)
(3 -3.96736e-16 0)
(2.33254 -1.24299 0)
(2.43129 -1.29855 0)
(2.69869 -1.61082 0)
(2.9462 -1.81657 0)
(3.10582 -1.6577 0)
(3.21648 -1.5107 0)
(3.31174 -1.22567 0)
(3.29967 -0.911919 0)
(3.29057 -0.703286 0)
(3.27341 -0.550731 0)
(3.23438 -0.393592 0)
(3.17362 -0.144278 0)
(3.10866 0.0529341 0)
(3.03539 0.258827 0)
(2.9979 0.322569 0)