/*--------------------------------*- C++ -*----------------------------------*\
  =========                 |
  \\      /  F ield         | OpenFOAM: The Open Source CFD Toolbox
   \\    /   O peration     | Website:  https://openfoam.org
    \\  /    A nd           | Version:  7
     \\/     M anipulation  |
\*---------------------------------------------------------------------------*/
FoamFile
{
    version     2.0;
    format      ascii;
    class       volScalarField;
    location    "6.4";
    object      T;
}
// * * * * * * * * * * * * * * * * * * * * * * * * * * * * * * * * * * * * * //

dimensions      [0 0 0 1 0 0 0];

internalField   nonuniform List<scalar> 
1750
(
1.10498
1.30158
1.3914
1.40953
1.42072
1.39793
1.36924
1.35316
1.35047
1.34049
0.667735
0.819615
1.01739
1.123
1.19428
1.24903
1.29894
1.33274
1.36061
1.35348
0.592626
0.590256
0.580459
0.594055
0.68933
0.833054
1.02019
1.17606
1.23975
1.28561
0.605841
0.600497
0.57785
0.570279
0.583985
0.600352
0.631902
0.759413
0.898341
1.09932
0.65486
0.653236
0.645022
0.646681
0.658012
0.679944
0.691554
0.696717
0.693634
0.792412
0.736262
0.750016
0.752139
0.747801
0.747007
0.748411
0.747389
0.739849
0.727751
0.731484
0.835546
0.833123
0.833706
0.826236
0.807737
0.798051
0.7968
0.7932
0.792527
0.790664
0.958082
0.94266
0.923215
0.909381
0.897987
0.886995
0.879121
0.870444
0.862685
0.849864
1.06804
1.05584
1.0316
1.00583
0.988681
0.973306
0.958308
0.941457
0.925828
0.905508
1.2092
1.18136
1.15116
1.11755
1.08936
1.06268
1.04157
1.02014
0.99925
0.972252
1.30348
1.28887
1.26688
1.23962
1.21087
1.17709
1.14259
1.11032
1.08235
1.04413
1.29926
1.29924
1.29273
1.286
1.28095
1.26846
1.24685
1.21886
1.18731
1.13637
1.19579
1.2244
1.24066
1.25584
1.26484
1.26459
1.26276
1.25875
1.25183
1.2242
1.03374
1.05895
1.088
1.12072
1.15555
1.18779
1.20867
1.2256
1.23035
1.23543
1.00086
1.00218
1.00519
1.01116
1.02408
1.04627
1.07917
1.12172
1.16528
1.23887
0.751598
0.651707
0.592195
0.608753
0.643736
0.728861
0.859572
0.968864
1.08409
1.24465
1.31169
1.29216
1.15716
1.01902
1.0004
0.755079
0.644874
0.577644
0.619519
0.656015
0.777202
0.91336
1.01357
1.14967
1.28793
1.32029
1.27375
1.1173
1.00874
1.00013
0.777047
0.6459
0.575099
0.626795
0.693808
0.835736
0.942623
1.05128
1.20104
1.31467
1.32675
1.25517
1.07987
1.00363
1.00005
0.798115
0.649849
0.581463
0.644202
0.747362
0.862354
0.964743
1.10084
1.25147
1.33501
1.32913
1.22206
1.04076
1.00123
1.00001
0.804088
0.634506
0.579415
0.655581
0.774027
0.885993
1.00141
1.1655
1.30052
1.34427
1.31841
1.15454
1.01563
1.00032
1
0.789417
0.617164
0.565622
0.663168
0.792733
0.936035
1.09276
1.2277
1.33495
1.34651
1.27873
1.09562
1.0059
1.00009
1
0.781728
0.613526
0.559184
0.703777
0.868498
1.02426
1.15746
1.28223
1.35557
1.34333
1.2355
1.05241
1.00187
1.00002
1
0.774338
0.611971
0.606707
0.820337
0.959314
1.09345
1.21873
1.33558
1.36381
1.33607
1.17139
1.01841
1.00041
1
1
0.707619
0.609685
0.733443
0.894412
1.02445
1.15402
1.28816
1.36862
1.3663
1.29681
1.08887
1.00481
1.00008
1
1
0.6227
0.664174
0.816655
0.964843
1.09247
1.23011
1.35453
1.38112
1.36421
1.21288
1.03437
1.00114
1.00002
1
1
0.557231
0.741062
0.888693
1.0523
1.2044
1.31662
1.38903
1.38548
1.32518
1.11992
1.00949
1.0002
1
1
1
0.486787
0.815274
1.00824
1.18085
1.29843
1.37442
1.39851
1.38136
1.23424
1.04263
1.00156
1.00003
1
1
1
0.409708
0.928169
1.15982
1.2811
1.36677
1.40488
1.40054
1.32689
1.11111
1.00869
1.00021
1
1
1
1
0.725221
1.10972
1.28396
1.35393
1.40787
1.41141
1.37515
1.19653
1.02801
1.00092
1.00002
1
1
1
1
1.11765
1.30302
1.3677
1.39773
1.4205
1.40669
1.28496
1.06289
1.00277
1.00005
1
1
1
1
1
1.40192
1.39892
1.40023
1.41394
1.42367
1.33629
1.10245
0.99604
0.999542
0.999993
1
1
1
1
1
1.39953
1.39893
1.39783
1.41258
1.42461
1.30116
1.0664
1.00226
1.00002
1
1
1
1
1
1
1.38832
1.40172
1.41408
1.41713
1.40471
1.1972
1.0101
1.00003
1
1
1
1
1
1
1
1.38008
1.40408
1.43099
1.42195
1.34383
1.09901
1.00206
1.00001
1
1
1
1
1
1
1
1.37693
1.40717
1.43957
1.42692
1.26399
1.027
1.00015
1
1
1
1
1
1
1
1
1.3782
1.40909
1.44243
1.3851
1.12929
1.00315
1.00001
1
1
1
1
1
1
1
1
1.40157
1.40769
1.43776
1.29095
1.04165
1.0003
1
1
1
1
1
1
1
1
1
1.44828
1.40896
1.39349
1.15694
1.00497
1.00001
1
1
1
1
1
1
1
1
1
1.49272
1.37596
1.28328
1.04372
1.00033
1
1
1
1
1
1
1
1
1
1
1.51092
1.33709
1.14421
1.00558
1.00002
1
1
1
1
1
1
1
1
1
1
1.49628
1.26193
1.04936
1.00056
1
1
1
1
1
1
1
1
1
1
1
1.42845
1.17447
1.01255
1.00006
1
1
1
1
1
1
1
1
1
1
1
1.3452
1.09066
1.00227
1.00001
1
1
1
1
1
1
1
1
1
1
1
1.22871
1.03136
1.00029
1
1
1
1
1
1
1
1
1
1
1
1
1.103
1.00527
1.00002
1
1
1
1
1
1
1
1
1
1
1
1
1
1
1
1
1
1
1
1
1
1
1
1
1
1
1
1
1
1
1
1
1
1
1
1
1
1
1
1
1
1
1
1
1
1
1
1
1
1
1
1
1
1
1
1
1
1
1
1
1
1
1
1
1
1
1
1
1
1
1
1
1
1
1
1
1
1
1
1
1
1
1
1
1
1
1
1
1
1
1
1
1
1
1
1
1
1
1
1
1
1
1
1
1
1
1
1
1
1
1
1
1
1
1
1
1
1
1
1
1
1
1
1
1
1
1
1
1
1
1
1
1
1
1
1
1
1
1
1
1
1
1
1
1
1
1
1
1
1
1
1
1
1
1
1
1
1
1
1
1
1
1
1
1
1
1
1
1
1
1
1
1
1
1
1
1
1
1
1
1
1
1
1
1
1
1
1
1
1
1
1
1
1
1
1
1
1
1
1
1
1
1
1
1
1
1
1
1
1
1
1
1
1
1
1
1
1
1
1
1
1
1
1
1
1
1
1
1
1
1
1
1
1
1
1
1
1
1
1
1
1
1
1
1
1
1
1
1
1
1
1
1
1
1
1
1
1
1
1
1
1
1
1
1
1
1
1
1
1
1
1
1
1
1
1
1
1
1
1
1
1
1
1
1
1
1
1
1
1
1
1
1
1
1
1
1
1
1
1
1
1
1
1
1
1
1
1
1
1
1
1
1
1
1
1
1
1
1
1
1
1
1
1
1
1
1
1
1
1
1
1
1
1
1
1
1
1
1
1
1
1
1
1
1
1
1
1
1
1
1
1
1
1
1
1
1
1
1
1
1
1
1.1953
1.00486
1
1
1
1
1
1
1
1
1
1
1
1
1
1
1
1
1
1
1.41604
1.07996
0.999776
1
1
1
1
1
1
1
1
1
1
1
1
1
1
1
1
1
1.62829
1.24167
1.00488
0.999986
1
1
1
1
1
1
1
1
1
1
1
1
1
1
1
1
1.74355
1.48139
1.15014
1.00025
1
1
1
1
1
1
1
1
1
1
1
1
1
1
1
1
1.7189
1.58407
1.47454
1.09115
0.999887
1
1
1
1
1
1
1
1
1
1
1
1
1
1
1
1.64913
1.63183
1.66103
1.42013
1.03835
0.999917
1
1
1
1
1
1
1
1
1
1
1
1
1
1
1.58586
1.61711
1.66129
1.64236
1.30085
1.00806
0.999978
0.999999
1
1
1
1
1
1
1
1
1
1
1
1
1.58091
1.60423
1.64543
1.63527
1.52508
1.14606
1.00054
1
1
1
1
1
1
1
1
1
1
1
1
1
1.58818
1.59991
1.61412
1.63557
1.6505
1.40514
1.0346
0.999955
0.999999
1
1
1
1
1
1
1
1
1
1
1
1.598
1.60167
1.61119
1.6333
1.65114
1.55944
1.2322
1.0051
0.999991
1
1
1
1
1
1
1
1
1
1
1
1.60293
1.60547
1.61445
1.63194
1.64646
1.6109
1.43624
1.07256
1.00009
1
1
1
1
1
1
1
1
1
1
1
1.60281
1.60686
1.61823
1.63294
1.64277
1.63244
1.58895
1.27246
1.00939
0.999991
1
1
1
1
1
1
1
1
1
1
1.60356
1.60912
1.62176
1.63439
1.64074
1.63472
1.60976
1.45849
1.1042
1.0004
0.999999
1
1
1
1
1
1
1
1
1
1.60445
1.61074
1.62234
1.63404
1.63778
1.63235
1.62011
1.58338
1.29622
1.01942
1.00018
1
1
1
1
1
1
1
1
1
1.6073
1.61517
1.62674
1.6367
1.63911
1.63398
1.62528
1.60528
1.44357
1.05676
0.994995
0.999696
0.999997
1
1
1
1
1
1
1
1.23286
1.45239
1.54091
1.58957
1.61854
1.63115
1.6296
1.62476
1.5835
1.409
1.11223
1.00649
1.00013
1
1
1
1
1
1
1
0.738509
1.20864
1.38515
1.48292
1.54758
1.59353
1.61607
1.61799
1.62585
1.57763
1.39235
1.09645
1.00521
1.00011
1
1
1
1
1
1
0.781873
1.05141
1.19017
1.32386
1.43374
1.50993
1.56623
1.5913
1.62184
1.61665
1.55539
1.32839
1.06088
1.00236
1.00004
1
1
1
1
1
0.894622
0.963788
1.06106
1.16081
1.28969
1.40064
1.47461
1.5355
1.59147
1.61138
1.60223
1.51944
1.24423
1.02877
1.00081
1.00001
1
1
1
1
0.925703
0.88996
0.948845
1.06162
1.16911
1.28994
1.37245
1.46293
1.53207
1.57972
1.59726
1.59085
1.45052
1.14924
1.00958
1.00017
1
1
1
1
0.977331
0.845088
0.830515
0.962171
1.06108
1.18403
1.28401
1.37877
1.46244
1.5214
1.57156
1.58931
1.56547
1.35746
1.06996
1.00246
1.00003
1
1
1
1.02787
0.84713
0.761364
0.857852
0.966902
1.07725
1.19643
1.2863
1.38841
1.44869
1.51825
1.57362
1.57246
1.49454
1.22096
1.0198
1.00037
1
1
1
1.03503
0.86923
0.77487
0.823926
0.914161
1.00071
1.11578
1.21656
1.30557
1.38762
1.45112
1.52907
1.56561
1.55219
1.38573
1.09428
1.00348
1.00004
1
1
1.02736
0.888431
0.794109
0.80062
0.863697
0.952378
1.05076
1.16136
1.24028
1.33419
1.39935
1.47601
1.54512
1.55196
1.48536
1.2244
1.02135
1.00035
1
1
1.01219
0.90545
0.81657
0.787424
0.804245
0.908176
0.986928
1.09924
1.18435
1.26798
1.34491
1.41278
1.49992
1.54431
1.53011
1.36022
1.07762
1.0026
1.00003
1
1.00525
0.935509
0.851487
0.787058
0.768943
0.856092
0.934691
1.02052
1.12977
1.19294
1.28666
1.35988
1.44278
1.51681
1.52717
1.46445
1.18943
1.01299
1.00018
1
0.993745
0.936974
0.857213
0.78569
0.761419
0.826202
0.910794
0.993702
1.09075
1.16107
1.24421
1.32325
1.39946
1.47933
1.51742
1.48825
1.32035
1.05323
1.00117
1.00001
0.958528
0.92359
0.853373
0.786514
0.762499
0.79771
0.884551
0.96739
1.04922
1.12773
1.20193
1.28345
1.35435
1.43569
1.50001
1.49362
1.38974
1.13127
1.00623
1.00007
0.930939
0.907057
0.851153
0.789196
0.765282
0.786138
0.837681
0.935299
1.00583
1.09239
1.1568
1.23628
1.30005
1.37866
1.46926
1.49178
1.43305
1.21104
1.0197
1.0003
0.935236
0.909052
0.857343
0.798173
0.776738
0.789888
0.804912
0.890926
0.960658
1.04052
1.11958
1.18964
1.26787
1.33968
1.42959
1.48476
1.46628
1.31627
1.05942
1.00156
1.06173
0.891556
0.84008
0.79979
0.788739
0.792809
0.799784
0.880167
0.953011
1.02393
1.10553
1.17255
1.24895
1.32022
1.39938
1.4698
1.47214
1.38265
1.12995
1.00611
1.14095
0.902913
0.82897
0.797964
0.787455
0.787663
0.800961
0.870525
0.947254
1.00833
1.08613
1.15499
1.21673
1.29248
1.36337
1.44355
1.46793
1.4088
1.20514
1.01961
1.20462
0.936465
0.815175
0.789251
0.780715
0.772939
0.801932
0.863569
0.930335
0.993675
1.0537
1.13437
1.19392
1.25631
1.32867
1.40534
1.45571
1.42992
1.27903
1.05175
1.26623
1.01164
0.824072
0.779797
0.774423
0.769512
0.804772
0.860251
0.905753
0.982385
1.03609
1.10387
1.17711
1.23407
1.29842
1.37243
1.4393
1.43534
1.33814
1.11595
1.32546
1.082
0.852003
0.775959
0.769809
0.768428
0.807902
0.855849
0.88466
0.962099
1.02406
1.07696
1.14865
1.21289
1.26663
1.33603
1.41046
1.43258
1.37801
1.21003
1.34452
1.16644
0.954291
0.784807
0.768605
0.768152
0.806775
0.848101
0.881208
0.943213
1.0053
1.05926
1.11637
1.18413
1.24041
1.29767
1.37129
1.4205
1.39052
1.3111
1.33532
1.23474
1.07099
0.847754
0.769644
0.769489
0.800767
0.836753
0.878458
0.934959
0.984807
1.04127
1.09524
1.15479
1.21548
1.26896
1.33146
1.39698
1.39669
1.40523
1.3145
1.24098
1.11554
0.966301
0.787122
0.771232
0.796749
0.825066
0.872292
0.925007
0.965636
1.02015
1.07467
1.12969
1.18578
1.23973
1.29575
1.36465
1.41643
1.48076
1.3018
1.23531
1.14814
1.05417
0.848365
0.773742
0.798135
0.816763
0.86779
0.910884
0.949917
1.004
1.05402
1.10761
1.16038
1.21031
1.26076
1.33001
1.42499
1.54355
1.29651
1.22852
1.17327
1.115
1.02354
0.842133
0.800024
0.815018
0.858803
0.889658
0.927158
0.977806
1.02161
1.07143
1.12146
1.16806
1.21464
1.29552
1.43839
1.60626
)
;

boundaryField
{
    inlet
    {
        type            fixedValue;
        value           uniform 1;
    }
    outlet
    {
        type            inletOutlet;
        inletValue      uniform 1;
        value           nonuniform List<scalar> 
35
(
1.29617
1.22812
1.17312
1.11487
1.02356
0.842194
0.800184
0.815375
0.858784
0.889643
0.92707
0.977694
1.02154
1.07135
1.12144
1.16803
1.21453
1.29536
1.43812
1.60583
1.34035
1.35356
1.28552
1.09913
0.792376
0.731436
0.790565
0.849942
0.905624
0.972274
1.04414
1.13633
1.22417
1.23541
1.23887
)
;
    }
    airfoil
    {
        type            zeroGradient;
    }
    top
    {
        type            symmetryPlane;
    }
    bottom
    {
        type            symmetryPlane;
    }
    defaultFaces
    {
        type            empty;
    }
}


// ************************************************************************* //
