/*--------------------------------*- C++ -*----------------------------------*\
  =========                 |
  \\      /  F ield         | OpenFOAM: The Open Source CFD Toolbox
   \\    /   O peration     | Website:  https://openfoam.org
    \\  /    A nd           | Version:  7
     \\/     M anipulation  |
\*---------------------------------------------------------------------------*/
FoamFile
{
    version     2.0;
    format      ascii;
    class       volScalarField;
    location    "9.6";
    object      p;
}
// * * * * * * * * * * * * * * * * * * * * * * * * * * * * * * * * * * * * * //

dimensions      [1 -1 -2 0 0 0 0];

internalField   nonuniform List<scalar> 
11200
(
0.199345
0.33853
0.466049
0.578697
0.668685
0.716621
0.751224
0.757488
0.789667
0.812678
0.828232
0.863127
0.898881
0.906194
0.894406
0.873234
0.877188
0.894264
0.911757
0.910807
0.903785
0.89767
0.893179
0.898122
0.908839
0.928821
0.955789
0.97574
0.968757
0.973175
0.0599176
0.0650505
0.0889828
0.146333
0.25029
0.392318
0.554658
0.697726
0.831495
0.906197
0.953317
0.956039
0.945855
0.903641
0.853408
0.838367
0.868946
0.914911
0.929871
0.905552
0.887412
0.888237
0.898714
0.909184
0.92487
0.947124
0.961862
0.968848
0.97502
0.989845
0.0625454
0.0620221
0.0617692
0.0608476
0.0597149
0.0662207
0.0963108
0.184056
0.304952
0.472341
0.670513
0.791868
0.897068
0.895056
0.885167
0.868145
0.876011
0.89238
0.890841
0.890935
0.90042
0.901709
0.906891
0.917417
0.925072
0.944324
0.963486
0.975767
0.981658
0.991731
0.0608599
0.0609304
0.0609926
0.0613311
0.0617855
0.0622889
0.0616687
0.0609747
0.0600995
0.0703847
0.121416
0.249358
0.444715
0.668835
0.875868
0.911243
0.901081
0.879892
0.859045
0.866001
0.899732
0.91259
0.920522
0.927283
0.938659
0.949019
0.95836
0.973052
0.983435
0.996272
0.0611637
0.0616833
0.0622911
0.0629184
0.06334
0.0631763
0.0625742
0.0614217
0.060197
0.0593428
0.0593793
0.0595793
0.0642244
0.132977
0.328034
0.574757
0.746222
0.810718
0.850869
0.878052
0.896197
0.90698
0.921965
0.928216
0.936122
0.957213
0.969801
0.979422
0.989127
1.00126
0.0619641
0.0622549
0.0627668
0.0630564
0.0628531
0.0623648
0.0614693
0.0602035
0.0587214
0.0583547
0.0586576
0.0589918
0.0591875
0.0594195
0.0590792
0.104577
0.243047
0.488638
0.743641
0.856676
0.8939
0.905638
0.932463
0.937825
0.947814
0.953177
0.965166
0.977427
0.988277
1.00189
0.0609163
0.0609128
0.0607642
0.0605989
0.0603743
0.0599133
0.0590867
0.0581335
0.0575393
0.057767
0.0583174
0.0584273
0.0584562
0.0588646
0.059085
0.0593264
0.0598182
0.0832542
0.211122
0.478188
0.723336
0.836418
0.918553
0.932469
0.952129
0.954581
0.975896
0.988955
0.997381
1.0075
0.0588864
0.0587992
0.0587865
0.0588476
0.0589478
0.0588514
0.0584815
0.0580024
0.0575541
0.0576397
0.0581464
0.0582456
0.0583041
0.05881
0.060805
0.0635181
0.0665901
0.0702465
0.0729745
0.0923638
0.209759
0.474885
0.728344
0.857122
0.948365
0.955973
0.985314
0.983253
0.992859
1.00258
0.0584165
0.0583998
0.0585914
0.0592723
0.0601408
0.060934
0.0611453
0.061141
0.0608765
0.0596183
0.0591075
0.0593382
0.0603531
0.0632719
0.067023
0.0698946
0.0720622
0.073914
0.0780538
0.0834923
0.0861014
0.10288
0.219772
0.497573
0.748174
0.873757
0.992995
0.984878
1.01044
1.01634
0.060035
0.0602221
0.0610545
0.0623094
0.0636331
0.0652705
0.0660429
0.0662238
0.06665
0.0672645
0.0682975
0.0702434
0.0736518
0.0761304
0.077031
0.0781774
0.0778398
0.0777812
0.0799818
0.084621
0.0911458
0.0986728
0.10256
0.122872
0.253791
0.540858
0.789322
0.907527
1.02569
1.01681
0.0642188
0.0644835
0.0652172
0.0663824
0.0676372
0.0692696
0.0715821
0.0729801
0.0737601
0.0749954
0.0771467
0.0805917
0.0843202
0.0850377
0.0859027
0.0884352
0.0910739
0.0933969
0.0961583
0.0989499
0.100795
0.102916
0.110078
0.118992
0.119909
0.147
0.296137
0.619019
0.846893
0.979185
0.075307
0.0754883
0.0760115
0.0772731
0.0797186
0.0837905
0.0887209
0.0907284
0.0904007
0.088864
0.0883995
0.0897004
0.0929057
0.0972528
0.101828
0.105748
0.110217
0.114392
0.118583
0.121992
0.122504
0.120385
0.119562
0.124007
0.133684
0.141366
0.140445
0.190442
0.376862
0.817959
0.0939126
0.0946998
0.0958239
0.0977871
0.100917
0.104578
0.108479
0.11002
0.109372
0.107826
0.108296
0.11093
0.116343
0.121813
0.123678
0.124447
0.126089
0.128504
0.131618
0.135867
0.14067
0.145083
0.146003
0.145777
0.149067
0.153561
0.157833
0.161009
0.16251
0.402179
0.11795
0.11845
0.119026
0.119546
0.120525
0.122556
0.126667
0.130395
0.130854
0.131047
0.132017
0.135129
0.140234
0.141388
0.140209
0.140086
0.141243
0.143081
0.145487
0.149654
0.156038
0.163127
0.167925
0.168532
0.167999
0.169996
0.175373
0.179891
0.18374
0.189838
0.149654
0.149856
0.149871
0.150534
0.152215
0.153932
0.157713
0.159993
0.159269
0.156007
0.155386
0.156948
0.161217
0.16364
0.164782
0.166679
0.17058
0.174718
0.177067
0.176993
0.176953
0.179032
0.183869
0.188152
0.190499
0.192953
0.196868
0.199109
0.201774
0.207916
0.189608
0.187058
0.183972
0.18408
0.185394
0.185897
0.188576
0.193174
0.19345
0.192482
0.192673
0.194322
0.197258
0.200167
0.202459
0.204355
0.206492
0.20849
0.209803
0.211423
0.212148
0.211316
0.211476
0.214087
0.217568
0.219311
0.220424
0.222592
0.223627
0.226429
0.239304
0.239785
0.235235
0.229812
0.22957
0.230017
0.232698
0.237194
0.239788
0.240202
0.23874
0.237432
0.237734
0.239265
0.239997
0.239493
0.239029
0.239483
0.240879
0.243465
0.245931
0.246719
0.24682
0.246867
0.247982
0.249102
0.249422
0.250256
0.250808
0.251345
0.301892
0.302131
0.299652
0.289818
0.285297
0.285419
0.287571
0.291074
0.293816
0.29427
0.291598
0.288731
0.288159
0.287384
0.287084
0.287654
0.288679
0.288457
0.286902
0.284013
0.282276
0.282784
0.28475
0.284943
0.284463
0.284386
0.284922
0.284911
0.284289
0.283815
0.380273
0.380259
0.378681
0.366911
0.356489
0.355133
0.357861
0.363245
0.364212
0.362573
0.357868
0.355038
0.354653
0.352214
0.34715
0.346192
0.345954
0.345213
0.343031
0.340661
0.339101
0.336446
0.333504
0.33091
0.328216
0.325488
0.321418
0.319806
0.320276
0.318456
0.480387
0.480095
0.478274
0.464787
0.44708
0.44382
0.448133
0.454423
0.453582
0.447008
0.437362
0.435693
0.43539
0.431437
0.422037
0.418106
0.416612
0.413867
0.408849
0.401681
0.397216
0.393875
0.388859
0.384514
0.380152
0.377262
0.373836
0.367497
0.364282
0.359972
0.605295
0.603553
0.601359
0.588827
0.564309
0.555883
0.55938
0.566751
0.564868
0.553943
0.538125
0.534297
0.53385
0.528883
0.51605
0.507604
0.503786
0.498104
0.49059
0.48215
0.473481
0.467615
0.460599
0.453039
0.445708
0.4373
0.431108
0.424497
0.41598
0.40359
0.762198
0.757655
0.753223
0.739542
0.711184
0.69589
0.697181
0.703833
0.701364
0.686348
0.663037
0.657005
0.656237
0.648582
0.630081
0.617299
0.610399
0.602133
0.589397
0.577249
0.565289
0.554195
0.543891
0.531498
0.52069
0.508799
0.496632
0.486293
0.477114
0.460836
0.95248
0.945756
0.936608
0.918717
0.888001
0.866816
0.862986
0.868297
0.865736
0.846791
0.814775
0.806166
0.80471
0.79344
0.766546
0.749996
0.739394
0.727088
0.710107
0.691226
0.675395
0.659627
0.644058
0.627043
0.609791
0.595072
0.579184
0.561901
0.548427
0.526416
1.17578
1.16828
1.15585
1.1359
1.10448
1.07388
1.05934
1.06294
1.06072
1.03919
0.997513
0.982934
0.980153
0.964723
0.930751
0.907253
0.892269
0.873977
0.852103
0.826793
0.804218
0.783464
0.760907
0.738683
0.715804
0.693356
0.672269
0.650593
0.631171
0.600164
1.4448
1.43537
1.42186
1.40343
1.37489
1.33173
1.30655
1.30674
1.29991
1.27195
1.22073
1.19899
1.19019
1.16681
1.12756
1.09573
1.07135
1.04524
1.01643
0.985669
0.954071
0.925671
0.896982
0.866696
0.838272
0.809424
0.781285
0.753218
0.728607
0.689147
1.69542
1.68854
1.68148
1.66768
1.6498
1.6299
1.60716
1.58749
1.56967
1.54582
1.50438
1.4721
1.44913
1.41647
1.37364
1.3339
1.295
1.25622
1.21624
1.17539
1.1345
1.09422
1.05606
1.01766
0.979963
0.943533
0.90809
0.872255
0.841377
0.791484
1.75715
1.75704
1.75704
1.75587
1.75192
1.74714
1.74334
1.7399
1.73561
1.72901
1.71692
1.70085
1.68372
1.66174
1.63341
1.60109
1.56287
1.51888
1.47134
1.42014
1.3667
1.31223
1.25781
1.20483
1.1535
1.10393
1.05729
1.01115
0.971713
0.909223
1.69022
1.704
1.71692
1.72324
1.72429
1.72016
1.71846
1.72508
1.72688
1.72608
1.7269
1.72855
1.72776
1.72523
1.7214
1.71588
1.70809
1.69679
1.67874
1.65201
1.61553
1.56938
1.51362
1.45093
1.38428
1.31636
1.2503
1.18551
1.13108
1.04803
1.40139
1.42192
1.44605
1.4667
1.495
1.51636
1.52279
1.53831
1.56262
1.59151
1.60995
1.62186
1.64341
1.66661
1.6758
1.68195
1.69007
1.69449
1.69407
1.69283
1.69001
1.68357
1.67057
1.64937
1.61403
1.56302
1.49779
1.42132
1.34814
1.23088
1.08451
1.09323
1.10254
1.1122
1.12899
1.14816
1.16265
1.18031
1.20291
1.22983
1.26325
1.29357
1.32719
1.37105
1.41247
1.45215
1.49344
1.53799
1.57474
1.60749
1.63141
1.64943
1.66156
1.66028
1.65879
1.65403
1.64096
1.61474
1.57294
1.4631
1.00382
1.00442
1.00525
1.0062
1.00755
1.00959
1.01193
1.01467
1.0183
1.02314
1.03021
1.0395
1.05028
1.06582
1.08603
1.11197
1.14366
1.18452
1.23285
1.28875
1.34964
1.41101
1.47661
1.5278
1.57377
1.60587
1.62308
1.62295
1.62153
1.59953
1.00004
1.00005
1.00006
1.00008
1.0001
1.00013
1.00018
1.00025
1.00034
1.00047
1.00069
1.00104
1.00155
1.00238
1.00372
1.00595
1.00947
1.01518
1.02453
1.03862
1.06127
1.09278
1.13803
1.19764
1.2679
1.34678
1.42768
1.49662
1.54768
1.58053
1
1
1
1
1
1
1
1
1
1
1
1.00001
1.00001
1.00002
1.00004
1.00007
1.00013
1.00025
1.00051
1.00104
1.00216
1.00449
1.00919
1.01852
1.03573
1.06563
1.113
1.18218
1.26163
1.39616
1
1
1
1
1
1
1
1
1
1
1
1
1
1
1
1
1
1
1
1.00001
1.00002
1.00005
1.00013
1.00036
1.00098
1.00267
1.00686
1.0174
1.03649
1.11321
1
1
1
1
1
1
1
1
1
1
1
1
1
1
1
1
1
1
1
1
1
1
1
1
1.00001
1.00003
1.0001
1.00038
1.00114
1.01005
0.0614455
0.0595507
0.0626997
0.0609572
0.0605106
0.0616227
0.0607735
0.0588835
0.058959
0.0600021
0.0641178
0.0753724
0.0933662
0.117469
0.148756
0.188639
0.238154
0.301187
0.380254
0.48047
0.608549
0.766755
0.957332
1.18393
1.46096
1.70906
1.75767
1.67654
1.37839
1.07313
1.00314
1.00004
1
1
1
0.0603046
0.0591328
0.0622936
0.0603767
0.0601149
0.0610707
0.0601941
0.0586973
0.0600578
0.0614904
0.0670576
0.0830883
0.0994462
0.124138
0.154666
0.193692
0.244261
0.308415
0.390488
0.493245
0.623444
0.784688
0.979869
1.21733
1.51351
1.73965
1.75901
1.65817
1.33494
1.05236
1.0017
1.00002
1
1
1
0.0584063
0.0579164
0.0608029
0.0589895
0.0592743
0.0606166
0.0599148
0.0591024
0.0605398
0.0625023
0.0688584
0.0867111
0.102708
0.127306
0.157667
0.195767
0.246006
0.310767
0.395795
0.504207
0.64163
0.812009
1.02073
1.27779
1.5775
1.76052
1.76133
1.64841
1.288
1.036
1.00096
1.00001
1
1
1
0.0573618
0.0574729
0.0594451
0.0576944
0.0587053
0.0600882
0.0595445
0.0594273
0.0601811
0.0625176
0.0696377
0.0873209
0.105212
0.130384
0.162374
0.201112
0.25559
0.331548
0.428313
0.552913
0.704708
0.887738
1.10457
1.36299
1.63474
1.77139
1.76365
1.60965
1.2264
1.02332
1.00053
1
1
1
1
0.0569087
0.0576994
0.0589389
0.057089
0.058315
0.0593241
0.0587885
0.0593932
0.0589338
0.0602672
0.0703764
0.0866575
0.108439
0.136875
0.174151
0.220268
0.283216
0.36338
0.463408
0.588494
0.742896
0.92934
1.14769
1.4065
1.66856
1.7768
1.75333
1.54166
1.1806
1.01588
1.0003
1
1
1
1
0.0567965
0.0582336
0.0589062
0.0570068
0.0582592
0.0589717
0.0585234
0.0590717
0.0582205
0.0591998
0.072304
0.0883224
0.114654
0.146984
0.186583
0.234275
0.296143
0.37619
0.476928
0.603564
0.761394
0.95187
1.17594
1.44466
1.70192
1.78106
1.73567
1.50327
1.1483
1.01049
1.00016
1
1
1
1
0.0567263
0.0586143
0.059437
0.0577469
0.0591049
0.0589925
0.0585458
0.0585144
0.0581628
0.0597176
0.07606
0.0926979
0.11832
0.150761
0.191355
0.239348
0.301297
0.381366
0.484242
0.612069
0.773757
0.971485
1.21058
1.50079
1.74151
1.78427
1.72715
1.46932
1.11299
1.00615
1.00008
1
1
1
1
0.0566606
0.0589369
0.0602196
0.0590437
0.0605642
0.05943
0.0587222
0.0581594
0.0581277
0.0620882
0.0786076
0.093888
0.118882
0.15147
0.192377
0.241218
0.304246
0.384937
0.492708
0.633646
0.812911
1.03452
1.29751
1.58058
1.77116
1.78627
1.72482
1.4093
1.0777
1.00343
1.00004
1
1
1
1
0.0567404
0.0596033
0.0608814
0.0599625
0.0618509
0.060122
0.0590309
0.0577559
0.0579182
0.0641016
0.0794244
0.0948393
0.118577
0.150528
0.19183
0.245395
0.319375
0.4203
0.546664
0.706697
0.897549
1.12
1.37245
1.63218
1.78517
1.7875
1.68626
1.33144
1.05413
1.00199
1.00002
1
1
1
1
0.0572299
0.0605644
0.0611034
0.0601128
0.0624125
0.0607791
0.0595266
0.0575556
0.0580671
0.0660391
0.079731
0.0978095
0.122122
0.155138
0.206811
0.275027
0.360167
0.464881
0.593786
0.750902
0.94018
1.16098
1.41437
1.66969
1.7928
1.78451
1.62903
1.27937
1.03836
1.00112
1.00001
1
1
1
1
0.0584049
0.0611376
0.0601046
0.0591503
0.062523
0.0616185
0.0601486
0.0581333
0.0592368
0.0701965
0.0832305
0.106463
0.134982
0.174973
0.230509
0.296515
0.378612
0.483344
0.613223
0.772301
0.965815
1.19289
1.45998
1.71323
1.79913
1.77133
1.59517
1.23412
1.02491
1.00058
1
1
1
1
1
0.0600915
0.0611924
0.0579839
0.0579542
0.0627299
0.0626702
0.0610224
0.0588567
0.0607277
0.0752662
0.090985
0.116516
0.145784
0.185621
0.23821
0.303074
0.38629
0.491835
0.626149
0.789901
0.994523
1.24477
1.53497
1.75738
1.8034
1.76426
1.56313
1.17984
1.01499
1.00029
1
1
1
1
1
0.0619746
0.0604508
0.056161
0.0575727
0.0633338
0.0636052
0.0620297
0.0599258
0.0620152
0.0783003
0.0949173
0.120976
0.150391
0.189202
0.240964
0.30509
0.390871
0.501077
0.649641
0.8451
1.08008
1.34594
1.61176
1.78638
1.80601
1.7653
1.50128
1.13034
1.00877
1.00014
1
1
1
1
1
0.0628031
0.059231
0.0554855
0.0577849
0.0637243
0.0639953
0.062491
0.0607978
0.0628051
0.0790823
0.0956402
0.121612
0.151575
0.191476
0.243957
0.316377
0.417966
0.559686
0.733017
0.936549
1.16562
1.41431
1.65942
1.80182
1.80796
1.74164
1.42002
1.09313
1.00494
1.00007
1
1
1
1
1
0.062581
0.0583775
0.0556362
0.05902
0.0638084
0.0631307
0.0607852
0.0603862
0.0631307
0.0780086
0.0950745
0.120479
0.152425
0.200184
0.271426
0.363911
0.477948
0.617886
0.786214
0.983189
1.20971
1.46153
1.70187
1.81055
1.80716
1.68477
1.35818
1.06523
1.00269
1.00003
1
1
1
1
1
0.0611635
0.0575567
0.0568061
0.0611129
0.0633898
0.0601019
0.0559789
0.0570285
0.0641319
0.0766486
0.0955803
0.125876
0.172495
0.231514
0.305027
0.393259
0.503672
0.643042
0.812229
1.01368
1.25263
1.52316
1.74853
1.81595
1.79476
1.64837
1.3017
1.04317
1.00143
1.00001
1
1
1
1
1
0.0593551
0.056986
0.0587997
0.0622942
0.0625116
0.0572603
0.0534974
0.0555867
0.0671417
0.0808103
0.10789
0.146956
0.192538
0.247384
0.316497
0.403538
0.51656
0.658272
0.837515
1.06117
1.33163
1.60768
1.78591
1.81905
1.78663
1.61742
1.23824
1.02692
1.0007
1.00001
1
1
1
1
1
0.0586278
0.0570885
0.0601023
0.0627989
0.0603746
0.0550132
0.0531881
0.0562034
0.0731898
0.0927569
0.121824
0.155784
0.196924
0.250624
0.320547
0.407771
0.529025
0.691208
0.905974
1.16854
1.43447
1.67212
1.80859
1.82127
1.78823
1.56589
1.17693
1.01543
1.00032
1
1
1
1
1
1
0.0586829
0.0582277
0.0603694
0.0629679
0.0576577
0.0532731
0.0535753
0.06193
0.077846
0.0992386
0.126095
0.15752
0.197086
0.250156
0.325585
0.438254
0.592558
0.790481
1.0132
1.25203
1.49782
1.71649
1.82063
1.82299
1.7707
1.47256
1.12349
1.00829
1.00014
1
1
1
1
1
1
0.0593006
0.0593628
0.0601966
0.0629709
0.0567196
0.0527132
0.0550297
0.0664946
0.0789327
0.100347
0.126342
0.157518
0.198898
0.266947
0.37736
0.515116
0.67261
0.857176
1.06816
1.30328
1.55443
1.75853
1.82607
1.82038
1.71106
1.39896
1.08566
1.00452
1.00006
1
1
1
1
1
1
0.0602244
0.0596693
0.0594878
0.0628049
0.0564072
0.0527871
0.0553727
0.0669861
0.0773509
0.100016
0.125865
0.166743
0.232725
0.320912
0.429665
0.556205
0.708431
0.893776
1.11268
1.36531
1.62922
1.79449
1.82879
1.80641
1.67
1.33788
1.05778
1.00237
1.00003
1
1
1
1
1
1
0.060498
0.0589913
0.0597212
0.0630383
0.0564707
0.052674
0.0546541
0.066803
0.0766343
0.103506
0.14444
0.201949
0.267076
0.34833
0.449263
0.574397
0.734738
0.935841
1.18957
1.4699
1.70201
1.8179
1.83083
1.79809
1.63942
1.26989
1.03508
1.00108
1.00001
1
1
1
1
1
1
0.0593439
0.0575362
0.0619472
0.0640783
0.05701
0.0522299
0.0525962
0.0666784
0.0856784
0.122435
0.167761
0.22007
0.278816
0.357341
0.461369
0.594067
0.78401
1.03555
1.31137
1.56107
1.75091
1.83051
1.83304
1.80093
1.59192
1.19601
1.01901
1.00046
1
1
1
1
1
1
1
0.0570429
0.057049
0.0648687
0.0649786
0.0576263
0.0522663
0.0525506
0.0682521
0.0955061
0.130383
0.172524
0.223312
0.282978
0.363113
0.489526
0.676625
0.901924
1.14825
1.39635
1.62399
1.78645
1.83532
1.83475
1.78139
1.48513
1.13209
1.0098
1.00019
1
1
1
1
1
1
1
0.0557392
0.0578493
0.0670368
0.0651061
0.0571928
0.0529107
0.057702
0.0734767
0.0993482
0.130813
0.172191
0.222242
0.293349
0.413097
0.583348
0.772665
0.982829
1.21548
1.46303
1.68668
1.8129
1.83657
1.82684
1.71275
1.40012
1.08961
1.00511
1.00008
1
1
1
1
1
1
1
0.0556406
0.0600891
0.0683622
0.0644975
0.0550081
0.0530662
0.062537
0.0761367
0.101686
0.129896
0.172059
0.243258
0.35584
0.490629
0.647417
0.825919
1.03779
1.28441
1.55086
1.74941
1.82908
1.83573
1.80705
1.66459
1.33542
1.05888
1.00254
1.00003
1
1
1
1
1
1
1
0.0562756
0.0626737
0.0685677
0.0605311
0.0528252
0.0522708
0.0647151
0.078562
0.106446
0.146249
0.20833
0.302396
0.405719
0.529384
0.683136
0.87024
1.11402
1.39948
1.64621
1.79415
1.83765
1.83652
1.79527
1.62826
1.26143
1.0332
1.00104
1.00001
1
1
1
1
1
1
1
0.0578502
0.0641426
0.0669502
0.0560606
0.0505561
0.051458
0.0668978
0.0853919
0.121226
0.178336
0.249835
0.332477
0.42806
0.55527
0.729451
0.965592
1.24782
1.51344
1.71297
1.82129
1.84152
1.84021
1.79827
1.57056
1.17694
1.01634
1.00039
1
1
1
1
1
1
1
1
0.059654
0.0643035
0.0640531
0.0534462
0.0488864
0.0526963
0.0725946
0.101236
0.144999
0.200914
0.264098
0.343864
0.448163
0.608503
0.840741
1.10378
1.36205
1.59339
1.76237
1.83564
1.84301
1.83931
1.77116
1.44845
1.11161
1.00778
1.00015
1
1
1
1
1
1
1
1
0.0608414
0.063399
0.0607826
0.051766
0.0488271
0.0598609
0.0819799
0.115611
0.157903
0.207373
0.268816
0.35977
0.515947
0.729513
0.96292
1.20157
1.44674
1.66856
1.80208
1.84154
1.84262
1.82542
1.68426
1.35397
1.07113
1.00363
1.00005
1
1
1
1
1
1
1
1
0.0616248
0.0600059
0.0566002
0.0505269
0.0519378
0.0684934
0.088602
0.12011
0.159446
0.207209
0.28673
0.442865
0.627453
0.823694
1.04286
1.28764
1.54774
1.7439
1.82715
1.8433
1.83884
1.79745
1.62599
1.28423
1.04254
1.0016
1.00002
1
1
1
1
1
1
1
1
0.0629409
0.0588274
0.0536968
0.0492693
0.0560334
0.0733134
0.090354
0.118499
0.15733
0.228416
0.373193
0.535105
0.697868
0.889861
1.13206
1.41341
1.65674
1.79539
1.84021
1.8441
1.83731
1.7796
1.57561
1.20469
1.02121
1.00058
1.00001
1
1
1
1
1
1
1
1
0.0647286
0.059804
0.0533703
0.0488923
0.0578711
0.0733332
0.089212
0.119239
0.181512
0.30923
0.445575
0.586784
0.754012
0.985452
1.28155
1.54864
1.73221
1.82448
1.84599
1.84553
1.84026
1.77803
1.4898
1.12207
1.00891
1.00018
1
1
1
1
1
1
1
1
1
0.0670956
0.0623402
0.0542692
0.0494985
0.0570531
0.0683763
0.0909958
0.150661
0.2532
0.36617
0.483394
0.634991
0.859115
1.14835
1.42777
1.64622
1.78286
1.83972
1.84742
1.84642
1.83367
1.71647
1.35145
1.06735
1.00358
1.00006
1
1
1
1
1
1
1
1
1
0.0708061
0.0643606
0.0547562
0.050236
0.0573139
0.0652563
0.115529
0.20427
0.296429
0.393939
0.524692
0.749506
1.02519
1.2939
1.5389
1.72477
1.81823
1.84597
1.84711
1.84383
1.80154
1.60066
1.25448
1.03793
1.00143
1.00002
1
1
1
1
1
1
1
1
1
0.0734533
0.0647117
0.0535416
0.047229
0.0584098
0.0774372
0.159462
0.239126
0.317717
0.42813
0.644234
0.912973
1.16581
1.41438
1.64573
1.78725
1.83731
1.84807
1.8451
1.83298
1.76321
1.5298
1.18461
1.01893
1.00052
1.00001
1
1
1
1
1
1
1
1
1
0.0746907
0.0634156
0.0485934
0.0411261
0.0620101
0.114059
0.191823
0.254607
0.346634
0.54688
0.80171
1.04756
1.29466
1.54677
1.74107
1.82203
1.84443
1.84854
1.84494
1.82479
1.73524
1.45397
1.10999
1.00747
1.00015
1
1
1
1
1
1
1
1
1
1
0.073901
0.0560231
0.0456617
0.0397544
0.0760486
0.145676
0.203335
0.273858
0.456124
0.696044
0.931832
1.18283
1.45223
1.66972
1.80079
1.83692
1.84627
1.84905
1.84808
1.82909
1.70335
1.32269
1.05187
1.00244
1.00004
1
1
1
1
1
1
1
1
1
1
0.0679881
0.0493715
0.0456748
0.0502645
0.0999485
0.163002
0.214081
0.372915
0.597561
0.822364
1.07277
1.3612
1.60226
1.75262
1.83263
1.84276
1.84762
1.84954
1.84914
1.81594
1.57151
1.19604
1.02298
1.00075
1.00001
1
1
1
1
1
1
1
1
1
1
0.0647296
0.0457297
0.0480084
0.074038
0.115533
0.174631
0.28835
0.507981
0.722308
0.968334
1.26917
1.53488
1.71168
1.80255
1.84731
1.84569
1.85027
1.84888
1.8387
1.73614
1.44036
1.12242
1.01017
1.00023
1
1
1
1
1
1
1
1
1
1
1
0.0642828
0.0436796
0.0485685
0.0917673
0.127882
0.204502
0.42234
0.637885
0.873987
1.18005
1.46391
1.66958
1.78437
1.8274
1.85232
1.84838
1.85177
1.84515
1.81072
1.6666
1.34683
1.06934
1.00371
1.00006
1
1
1
1
1
1
1
1
1
1
1
0.0640176
0.0410279
0.0463789
0.0990378
0.171876
0.341524
0.561415
0.787675
1.0955
1.39562
1.62136
1.76677
1.8226
1.8368
1.85546
1.85023
1.85175
1.84597
1.78894
1.60017
1.23422
1.02861
1.00103
1.00001
1
1
1
1
1
1
1
1
1
1
1
0.0567947
0.0375726
0.0612185
0.114624
0.255738
0.485485
0.716954
1.02348
1.33086
1.577
1.74045
1.82211
1.83704
1.84019
1.85788
1.8517
1.8484
1.84816
1.77689
1.47189
1.11535
1.00903
1.00023
1
1
1
1
1
1
1
1
1
1
1
1
0.0307121
0.0426528
0.0877579
0.19256
0.403902
0.6568
0.956997
1.27733
1.53889
1.71929
1.81154
1.84424
1.84117
1.84156
1.85949
1.85041
1.84293
1.82709
1.67623
1.2993
1.05134
1.00269
1.00005
1
1
1
1
1
1
1
1
1
1
1
1
0.015564
0.0398864
0.128319
0.333323
0.600752
0.897903
1.24216
1.51363
1.70326
1.80297
1.84272
1.84929
1.84248
1.84239
1.86042
1.84126
1.83476
1.77201
1.53225
1.18824
1.02277
1.00075
1.00001
1
1
1
1
1
1
1
1
1
1
1
1
0.00726541
0.0624654
0.241006
0.529409
0.86387
1.22725
1.50762
1.69717
1.79782
1.8386
1.85282
1.85047
1.84135
1.84253
1.86104
1.83381
1.82953
1.72143
1.42314
1.10536
1.00743
1.00017
1
1
1
1
1
1
1
1
1
1
1
1
1
0.0124428
0.155334
0.459135
0.833162
1.21969
1.52156
1.70629
1.79944
1.83573
1.8506
1.85496
1.85054
1.83881
1.84252
1.86206
1.83215
1.82793
1.66297
1.2729
1.03679
1.00152
1.00003
1
1
1
1
1
1
1
1
1
1
1
1
1
0.0299814
0.315909
0.78913
1.25064
1.56278
1.72964
1.80768
1.83657
1.84706
1.85405
1.85539
1.84756
1.83665
1.84334
1.86287
1.83749
1.77396
1.48772
1.11943
1.00895
1.00023
1
1
1
1
1
1
1
1
1
1
1
1
1
1
0.20649
0.703109
1.28442
1.61553
1.76555
1.82239
1.83965
1.84569
1.8504
1.85507
1.85409
1.84283
1.83586
1.84669
1.86288
1.83426
1.66347
1.29352
1.04574
1.00199
1.00003
1
1
1
1
1
1
1
1
1
1
1
1
1
1
0.809382
1.37194
1.69523
1.80504
1.83811
1.84492
1.8461
1.84782
1.85145
1.85475
1.85122
1.8396
1.83612
1.84994
1.85696
1.78007
1.53111
1.15629
1.01268
1.00021
1
1
1
1
1
1
1
1
1
1
1
1
1
1
1
1.84837
1.84933
1.85047
1.85152
1.85096
1.8486
1.84713
1.84822
1.85091
1.85327
1.84854
1.83864
1.83851
1.85189
1.83982
1.695
1.36542
1.04194
0.999405
0.99993
0.999999
1
1
1
1
1
1
1
1
1
1
1
1
1
1
1.84792
1.84901
1.85106
1.85273
1.8528
1.85065
1.84667
1.84506
1.84683
1.85266
1.85281
1.8459
1.83757
1.84602
1.84252
1.69554
1.31336
1.04319
1.00139
1.00001
1
1
1
1
1
1
1
1
1
1
1
1
1
1
1
1.84754
1.84839
1.85117
1.85309
1.85341
1.85231
1.84739
1.84389
1.84442
1.85086
1.85496
1.85545
1.84163
1.83965
1.83173
1.60864
1.20014
1.01462
1.0002
1
1
1
1
1
1
1
1
1
1
1
1
1
1
1
1
1.84706
1.84709
1.84981
1.85262
1.85352
1.85292
1.84836
1.8434
1.84322
1.84833
1.85713
1.86224
1.8448
1.82057
1.79263
1.52534
1.13405
1.00693
1.00008
1
1
1
1
1
1
1
1
1
1
1
1
1
1
1
1
1.84662
1.84619
1.84746
1.84975
1.85242
1.85248
1.8492
1.84377
1.84261
1.84624
1.85739
1.86427
1.85068
1.8067
1.75684
1.44422
1.07922
1.00267
1.00002
1
1
1
1
1
1
1
1
1
1
1
1
1
1
1
1
1.84697
1.84624
1.84622
1.84696
1.8495
1.85123
1.85019
1.84503
1.84228
1.84409
1.85545
1.86454
1.85512
1.80165
1.71888
1.34062
1.04319
1.00104
1.00001
1
1
1
1
1
1
1
1
1
1
1
1
1
1
1
1
1.84851
1.84684
1.84566
1.84541
1.84716
1.85039
1.85169
1.84805
1.8429
1.8417
1.85037
1.86273
1.8557
1.7971
1.66002
1.23568
1.0206
1.00034
1
1
1
1
1
1
1
1
1
1
1
1
1
1
1
1
1
1.85097
1.84878
1.84589
1.84485
1.84593
1.84958
1.85258
1.85237
1.8455
1.8404
1.84452
1.85966
1.85087
1.77281
1.55893
1.15416
1.00896
1.00011
1
1
1
1
1
1
1
1
1
1
1
1
1
1
1
1
1
1.8527
1.85117
1.84817
1.84556
1.84552
1.84821
1.85339
1.8551
1.85085
1.84016
1.83877
1.85565
1.85083
1.75515
1.46568
1.09407
1.00356
1.00003
1
1
1
1
1
1
1
1
1
1
1
1
1
1
1
1
1
1.85305
1.85259
1.85056
1.84763
1.84591
1.84701
1.85226
1.85652
1.85519
1.84137
1.83219
1.84421
1.84988
1.73836
1.35914
1.049
1.00127
1.00001
1
1
1
1
1
1
1
1
1
1
1
1
1
1
1
1
1
1.85276
1.85287
1.85179
1.85013
1.84669
1.84598
1.84964
1.8571
1.85688
1.84662
1.82815
1.82988
1.83094
1.65428
1.25299
1.02311
1.00041
1
1
1
1
1
1
1
1
1
1
1
1
1
1
1
1
1
1
1.85053
1.85216
1.85217
1.85163
1.84745
1.84516
1.84651
1.8543
1.8572
1.85326
1.82957
1.82297
1.81302
1.5714
1.1706
1.01044
1.00013
1
1
1
1
1
1
1
1
1
1
1
1
1
1
1
1
1
1
1.84678
1.84942
1.85193
1.85221
1.84872
1.84489
1.84365
1.84851
1.85616
1.85875
1.84257
1.81999
1.80126
1.47692
1.09617
1.00379
1.00004
1
1
1
1
1
1
1
1
1
1
1
1
1
1
1
1
1
1
1.84435
1.8462
1.85009
1.85225
1.85046
1.84591
1.84191
1.84237
1.85246
1.86123
1.85172
1.8114
1.73377
1.35003
1.04768
1.00126
1.00001
1
1
1
1
1
1
1
1
1
1
1
1
1
1
1
1
1
1
1.84384
1.84454
1.84796
1.85173
1.85096
1.84749
1.84141
1.83918
1.84769
1.8634
1.85564
1.79753
1.64775
1.25312
1.02333
1.0004
1
1
1
1
1
1
1
1
1
1
1
1
1
1
1
1
1
1
1
1.84418
1.84432
1.84688
1.85014
1.85115
1.8509
1.84334
1.83673
1.84119
1.86317
1.85681
1.7908
1.57005
1.16071
1.00908
1.00011
1
1
1
1
1
1
1
1
1
1
1
1
1
1
1
1
1
1
1
1.84801
1.84608
1.8463
1.84872
1.85214
1.85375
1.8481
1.83549
1.83474
1.85088
1.85001
1.76401
1.45845
1.0851
1.00315
1.00003
1
1
1
1
1
1
1
1
1
1
1
1
1
1
1
1
1
1
1
1.85343
1.84985
1.84652
1.84734
1.85162
1.85484
1.85279
1.83971
1.83301
1.84504
1.83729
1.69325
1.33862
1.04382
1.00105
1.00001
1
1
1
1
1
1
1
1
1
1
1
1
1
1
1
1
1
1
1
1.85606
1.852
1.84747
1.84626
1.85043
1.85498
1.85553
1.84737
1.83557
1.84376
1.83385
1.63245
1.22859
1.01833
1.00029
1
1
1
1
1
1
1
1
1
1
1
1
1
1
1
1
1
1
1
1
1.85673
1.8529
1.84809
1.84581
1.84743
1.8531
1.85588
1.85578
1.84092
1.83442
1.81705
1.5305
1.12652
1.00634
1.00007
1
1
1
1
1
1
1
1
1
1
1
1
1
1
1
1
1
1
1
1
1.85595
1.85301
1.84879
1.84633
1.8437
1.84646
1.8544
1.86159
1.84945
1.81186
1.74782
1.40396
1.06767
1.00214
1.00002
1
1
1
1
1
1
1
1
1
1
1
1
1
1
1
1
1
1
1
1
1.85055
1.85074
1.84902
1.84766
1.84195
1.84012
1.84877
1.86333
1.85666
1.80368
1.68375
1.29296
1.03004
1.00059
1
1
1
1
1
1
1
1
1
1
1
1
1
1
1
1
1
1
1
1
1
1.84495
1.84741
1.84936
1.84864
1.84117
1.83569
1.84109
1.8623
1.85739
1.80236
1.59762
1.16945
1.0104
1.00014
1
1
1
1
1
1
1
1
1
1
1
1
1
1
1
1
1
1
1
1
1
1.84227
1.84491
1.85029
1.85115
1.84357
1.83341
1.83531
1.85173
1.84905
1.75475
1.46505
1.09179
1.00358
1.00003
1
1
1
1
1
1
1
1
1
1
1
1
1
1
1
1
1
1
1
1
1
1.84169
1.84302
1.84969
1.85283
1.8489
1.83668
1.83459
1.84848
1.84423
1.70249
1.34026
1.04243
1.00098
1.00001
1
1
1
1
1
1
1
1
1
1
1
1
1
1
1
1
1
1
1
1
1
1.84226
1.84272
1.84851
1.85286
1.85208
1.84602
1.83631
1.84571
1.84452
1.63228
1.20311
1.01461
1.00022
1
1
1
1
1
1
1
1
1
1
1
1
1
1
1
1
1
1
1
1
1
1
1.8461
1.84599
1.84878
1.85244
1.85386
1.85758
1.84244
1.83057
1.80254
1.48856
1.10646
1.00471
1.00005
1
1
1
1
1
1
1
1
1
1
1
1
1
1
1
1
1
1
1
1
1
1
1.84898
1.84923
1.84813
1.84981
1.85582
1.86581
1.8577
1.81305
1.7287
1.36223
1.05015
1.00128
1.00001
1
1
1
1
1
1
1
1
1
1
1
1
1
1
1
1
1
1
1
1
1
1
1.85
1.85047
1.8458
1.8422
1.8519
1.86866
1.86627
1.81168
1.64595
1.21971
1.01645
1.00027
1
1
1
1
1
1
1
1
1
1
1
1
1
1
1
1
1
1
1
1
1
1
1
1.85011
1.8492
1.84334
1.83767
1.84013
1.86421
1.8667
1.79215
1.50922
1.10846
1.00485
1.00005
1
1
1
1
1
1
1
1
1
1
1
1
1
1
1
1
1
1
1
1
1
1
1
1.84906
1.84701
1.84131
1.83975
1.83211
1.85127
1.8576
1.7228
1.36115
1.04857
1.00124
1.00001
1
1
1
1
1
1
1
1
1
1
1
1
1
1
1
1
1
1
1
1
1
1
1
1.84662
1.84384
1.84129
1.84272
1.83072
1.84693
1.85177
1.64914
1.21623
1.01561
1.00024
1
1
1
1
1
1
1
1
1
1
1
1
1
1
1
1
1
1
1
1
1
1
1
1
1.84487
1.83963
1.84063
1.84814
1.83433
1.83977
1.82883
1.49812
1.09641
1.00394
1.00004
1
1
1
1
1
1
1
1
1
1
1
1
1
1
1
1
1
1
1
1
1
1
1
1
1.84465
1.83775
1.8385
1.85872
1.85945
1.8192
1.73423
1.32428
1.03888
1.00088
1.00001
1
1
1
1
1
1
1
1
1
1
1
1
1
1
1
1
1
1
1
1
1
1
1
1
1.84511
1.83727
1.83482
1.8722
1.88552
1.81477
1.61447
1.1802
1.01139
1.00016
1
1
1
1
1
1
1
1
1
1
1
1
1
1
1
1
1
1
1
1
1
1
1
1
1
1.84261
1.8368
1.8316
1.8821
1.89563
1.80823
1.43974
1.0712
1.00236
1.00002
1
1
1
1
1
1
1
1
1
1
1
1
1
1
1
1
1
1
1
1
1
1
1
1
1
1.83414
1.83869
1.83452
1.88077
1.89625
1.69857
1.25472
1.023
1.00043
1
1
1
1
1
1
1
1
1
1
1
1
1
1
1
1
1
1
1
1
1
1
1
1
1
1
1.82617
1.84827
1.86547
1.87414
1.85687
1.52897
1.12313
1.00564
1.00006
1
1
1
1
1
1
1
1
1
1
1
1
1
1
1
1
1
1
1
1
1
1
1
1
1
1
1.82164
1.8655
1.90181
1.86868
1.7728
1.34392
1.03983
1.00098
1.00001
1
1
1
1
1
1
1
1
1
1
1
1
1
1
1
1
1
1
1
1
1
1
1
1
1
1
1.8183
1.87686
1.91402
1.86419
1.60836
1.15767
1.00899
1.00013
1
1
1
1
1
1
1
1
1
1
1
1
1
1
1
1
1
1
1
1
1
1
1
1
1
1
1
1.81863
1.8836
1.91748
1.78343
1.39458
1.05788
1.00171
1.00001
1
1
1
1
1
1
1
1
1
1
1
1
1
1
1
1
1
1
1
1
1
1
1
1
1
1
1
1.86761
1.9103
1.90822
1.65167
1.20643
1.01384
1.00023
1
1
1
1
1
1
1
1
1
1
1
1
1
1
1
1
1
1
1
1
1
1
1
1
1
1
1
1
1.94941
1.92418
1.86915
1.43298
1.06648
1.00233
1.00002
1
1
1
1
1
1
1
1
1
1
1
1
1
1
1
1
1
1
1
1
1
1
1
1
1
1
1
1
2.04792
1.83408
1.6816
1.20214
1.0157
1.0003
1
1
1
1
1
1
1
1
1
1
1
1
1
1
1
1
1
1
1
1
1
1
1
1
1
1
1
1
1
2.13576
1.74557
1.43393
1.07462
1.00293
1.00003
1
1
1
1
1
1
1
1
1
1
1
1
1
1
1
1
1
1
1
1
1
1
1
1
1
1
1
1
1
2.16747
1.61704
1.20245
1.01695
1.0004
1
1
1
1
1
1
1
1
1
1
1
1
1
1
1
1
1
1
1
1
1
1
1
1
1
1
1
1
1
1
2.03475
1.39991
1.08125
1.00384
1.00006
1
1
1
1
1
1
1
1
1
1
1
1
1
1
1
1
1
1
1
1
1
1
1
1
1
1
1
1
1
1
1.81424
1.23082
1.02338
1.00058
1.00001
1
1
1
1
1
1
1
1
1
1
1
1
1
1
1
1
1
1
1
1
1
1
1
1
1
1
1
1
1
1
1.53371
1.08976
1.00443
1.00006
1
1
1
1
1
1
1
1
1
1
1
1
1
1
1
1
1
1
1
1
1
1
1
1
1
1
1
1
1
1
1
1.20282
1.01795
1.00031
1
1
1
1
1
1
1
1
1
1
1
1
1
1
1
1
1
1
1
1
1
1
1
1
1
1
1
1
1
1
1
1
1
1
1
1
1
1
1
1
1
1
1
1
1
1
1
1
1
1
1
1
1
1
1
1
1
1
1
1
1
1
1
1
1
1
1
1
1
1
1
1
1
1
1
1
1
1
1
1
1
1
1
1
1
1
1
1
1
1
1
1
1
1
1
1
1
1
1
1
1
1
1
1
1
1
1
1
1
1
1
1
1
1
1
1
1
1
1
1
1
1
1
1
1
1
1
1
1
1
1
1
1
1
1
1
1
1
1
1
1
1
1
1
1
1
1
1
1
1
1
1
1
1
1
1
1
1
1
1
1
1
1
1
1
1
1
1
1
1
1
1
1
1
1
1
1
1
1
1
1
1
1
1
1
1
1
1
1
1
1
1
1
1
1
1
1
1
1
1
1
1
1
1
1
1
1
1
1
1
1
1
1
1
1
1
1
1
1
1
1
1
1
1
1
1
1
1
1
1
1
1
1
1
1
1
1
1
1
1
1
1
1
1
1
1
1
1
1
1
1
1
1
1
1
1
1
1
1
1
1
1
1
1
1
1
1
1
1
1
1
1
1
1
1
1
1