/*--------------------------------*- C++ -*----------------------------------*\
  =========                 |
  \\      /  F ield         | OpenFOAM: The Open Source CFD Toolbox
   \\    /   O peration     | Website:  https://openfoam.org
    \\  /    A nd           | Version:  7
     \\/     M anipulation  |
\*---------------------------------------------------------------------------*/
FoamFile
{
    version     2.0;
    format      ascii;
    class       volVectorField;
    location    "9.6";
    object      U;
}
// * * * * * * * * * * * * * * * * * * * * * * * * * * * * * * * * * * * * * //

dimensions      [0 1 -1 0 0 0 0];

internalField   nonuniform List<vector> 
11200
(
(2.54113 -0.602547 0)
(2.50405 -0.164064 0)
(2.49853 0.0790304 0)
(2.51112 0.213772 0)
(2.50397 0.348732 0)
(2.52394 0.418473 0)
(2.54213 0.443681 0)
(2.58182 0.439824 0)
(2.59643 0.392322 0)
(2.61775 0.323546 0)
(2.65889 0.279326 0)
(2.66907 0.219449 0)
(2.66338 0.162312 0)
(2.68306 0.123261 0)
(2.72282 0.147822 0)
(2.74522 0.195198 0)
(2.76223 0.233149 0)
(2.75277 0.217599 0)
(2.74165 0.189816 0)
(2.75193 0.159618 0)
(2.76959 0.160274 0)
(2.78794 0.172726 0)
(2.8028 0.180461 0)
(2.81003 0.184844 0)
(2.81522 0.190106 0)
(2.82213 0.181663 0)
(2.82665 0.151224 0)
(2.83413 0.125257 0)
(2.83846 0.138089 0)
(2.84494 0.136688 0)
(2.68659 -1.43557 0)
(2.69798 -1.41798 0)
(2.68601 -1.24763 0)
(2.63073 -1.01483 0)
(2.56416 -0.727577 0)
(2.48345 -0.359971 0)
(2.49417 -0.225456 0)
(2.43244 0.0736525 0)
(2.44715 0.0794138 0)
(2.45274 0.129884 0)
(2.46796 0.172285 0)
(2.50222 0.184227 0)
(2.52798 0.131087 0)
(2.53741 0.105636 0)
(2.57367 0.12371 0)
(2.58285 0.143342 0)
(2.58576 0.163515 0)
(2.57894 0.162534 0)
(2.60523 0.153284 0)
(2.63433 0.163848 0)
(2.65518 0.161916 0)
(2.67912 0.168628 0)
(2.69654 0.185079 0)
(2.70877 0.179937 0)
(2.71933 0.164541 0)
(2.73189 0.154529 0)
(2.7441 0.138796 0)
(2.75825 0.131846 0)
(2.77261 0.12699 0)
(2.79156 0.107182 0)
(2.85148 -1.54397 0)
(2.91054 -1.55082 0)
(2.93403 -1.6148 0)
(2.96856 -1.61421 0)
(2.98691 -1.62978 0)
(2.98307 -1.58518 0)
(2.92816 -1.43719 0)
(2.77472 -1.04964 0)
(2.68998 -0.785769 0)
(2.53302 -0.366665 0)
(2.50396 -0.158511 0)
(2.42373 0.129284 0)
(2.41305 0.178075 0)
(2.42428 0.244967 0)
(2.44029 0.217583 0)
(2.44999 0.170784 0)
(2.46157 0.158734 0)
(2.47827 0.132968 0)
(2.50106 0.16006 0)
(2.52782 0.192315 0)
(2.54536 0.187463 0)
(2.55725 0.156579 0)
(2.57213 0.141904 0)
(2.5839 0.149032 0)
(2.59732 0.144167 0)
(2.61227 0.139388 0)
(2.62933 0.147055 0)
(2.6494 0.142008 0)
(2.6694 0.132401 0)
(2.69903 0.118872 0)
(2.99062 -1.64406 0)
(3.00693 -1.66133 0)
(3.02805 -1.66205 0)
(3.04192 -1.66696 0)
(3.0561 -1.66036 0)
(3.07143 -1.65954 0)
(3.07752 -1.6538 0)
(3.08435 -1.65173 0)
(3.08101 -1.65888 0)
(3.04437 -1.61267 0)
(2.937 -1.3962 0)
(2.76719 -0.894075 0)
(2.71142 -0.56105 0)
(2.54485 -0.118627 0)
(2.51606 -0.00293792 0)
(2.45252 0.0871978 0)
(2.47632 0.130592 0)
(2.48515 0.149612 0)
(2.48504 0.157662 0)
(2.48336 0.150202 0)
(2.47501 0.149185 0)
(2.4787 0.150846 0)
(2.48363 0.150503 0)
(2.4923 0.148593 0)
(2.50291 0.154912 0)
(2.51225 0.136286 0)
(2.52897 0.115904 0)
(2.54754 0.107735 0)
(2.56415 0.109233 0)
(2.59316 0.100496 0)
(3.06311 -1.65011 0)
(3.06852 -1.64824 0)
(3.07353 -1.64668 0)
(3.07774 -1.64156 0)
(3.08056 -1.63976 0)
(3.08343 -1.64107 0)
(3.08495 -1.64232 0)
(3.08867 -1.64425 0)
(3.08291 -1.65493 0)
(3.06395 -1.66834 0)
(3.05457 -1.6707 0)
(3.04779 -1.66907 0)
(3.03958 -1.63902 0)
(2.90528 -1.29926 0)
(2.76873 -0.770244 0)
(2.51024 -0.118566 0)
(2.49789 0.0903425 0)
(2.48621 0.233095 0)
(2.47464 0.201823 0)
(2.46006 0.16674 0)
(2.46169 0.130803 0)
(2.46264 0.138563 0)
(2.45874 0.135016 0)
(2.46587 0.130048 0)
(2.47291 0.122131 0)
(2.47287 0.128485 0)
(2.48232 0.131326 0)
(2.49211 0.11993 0)
(2.50002 0.115186 0)
(2.51739 0.10416 0)
(3.06846 -1.64619 0)
(3.07216 -1.64422 0)
(3.07618 -1.64136 0)
(3.07896 -1.64104 0)
(3.07931 -1.64278 0)
(3.07954 -1.64461 0)
(3.08083 -1.64925 0)
(3.0776 -1.65762 0)
(3.06564 -1.65949 0)
(3.05247 -1.66056 0)
(3.04282 -1.65931 0)
(3.03719 -1.65079 0)
(3.03938 -1.64553 0)
(3.03645 -1.6489 0)
(3.03537 -1.64936 0)
(2.93294 -1.421 0)
(2.79015 -0.906153 0)
(2.68522 -0.374951 0)
(2.61633 -0.0810695 0)
(2.52122 0.0932986 0)
(2.49094 0.110711 0)
(2.47838 0.138552 0)
(2.46077 0.12097 0)
(2.47254 0.11022 0)
(2.47857 0.103173 0)
(2.47991 0.108877 0)
(2.4794 0.111325 0)
(2.48074 0.104086 0)
(2.48329 0.102893 0)
(2.49225 0.0959289 0)
(3.05823 -1.64637 0)
(3.05808 -1.6485 0)
(3.05754 -1.65266 0)
(3.0574 -1.65668 0)
(3.05686 -1.65924 0)
(3.05678 -1.66398 0)
(3.05921 -1.66852 0)
(3.05993 -1.66673 0)
(3.0527 -1.65926 0)
(3.04629 -1.656 0)
(3.02987 -1.65067 0)
(3.02493 -1.64637 0)
(3.03018 -1.64143 0)
(3.03348 -1.64714 0)
(3.03034 -1.64432 0)
(3.02265 -1.64168 0)
(3.01434 -1.63955 0)
(2.96883 -1.49114 0)
(2.85057 -0.998994 0)
(2.70619 -0.409437 0)
(2.62204 -0.0720028 0)
(2.53372 0.133576 0)
(2.4812 0.11882 0)
(2.51527 0.144145 0)
(2.50564 0.119619 0)
(2.50345 0.101746 0)
(2.4978 0.0895805 0)
(2.49571 0.0836447 0)
(2.49365 0.0833916 0)
(2.496 0.0828129 0)
(3.04753 -1.65198 0)
(3.04481 -1.65283 0)
(3.04357 -1.65332 0)
(3.04382 -1.65596 0)
(3.0447 -1.66116 0)
(3.04529 -1.66366 0)
(3.0492 -1.66668 0)
(3.052 -1.66407 0)
(3.04615 -1.65118 0)
(3.0415 -1.64501 0)
(3.02512 -1.63783 0)
(3.02298 -1.6356 0)
(3.0295 -1.63349 0)
(3.03086 -1.63729 0)
(3.02832 -1.63482 0)
(3.02017 -1.62408 0)
(3.01619 -1.59583 0)
(3.00982 -1.61308 0)
(3.02499 -1.57661 0)
(3.0113 -1.45489 0)
(2.90511 -1.02466 0)
(2.77282 -0.461361 0)
(2.71175 -0.11718 0)
(2.59414 0.0938504 0)
(2.53808 0.118271 0)
(2.5682 0.137153 0)
(2.55644 0.0922075 0)
(2.55239 0.0885313 0)
(2.53742 0.100156 0)
(2.52552 0.103271 0)
(3.03877 -1.65669 0)
(3.03844 -1.65626 0)
(3.0378 -1.65487 0)
(3.03006 -1.66049 0)
(3.02143 -1.67192 0)
(3.02225 -1.67079 0)
(3.03058 -1.66132 0)
(3.04066 -1.64644 0)
(3.0372 -1.62393 0)
(3.02014 -1.59641 0)
(3.01888 -1.59603 0)
(3.01854 -1.58993 0)
(3.03027 -1.56529 0)
(3.04059 -1.56683 0)
(3.04093 -1.5905 0)
(3.04208 -1.57013 0)
(3.03196 -1.56671 0)
(3.03194 -1.56114 0)
(3.04094 -1.52776 0)
(3.04256 -1.51669 0)
(3.04652 -1.49163 0)
(3.03305 -1.39497 0)
(2.96549 -0.960731 0)
(2.83726 -0.46547 0)
(2.75068 -0.10241 0)
(2.65256 0.0973998 0)
(2.61546 0.111371 0)
(2.62872 0.124562 0)
(2.60827 0.0787694 0)
(2.59403 0.0667733 0)
(3.02887 -1.65366 0)
(3.02942 -1.64796 0)
(3.02716 -1.64443 0)
(3.01901 -1.65461 0)
(3.01898 -1.65544 0)
(3.02602 -1.64591 0)
(3.0296 -1.63441 0)
(3.03743 -1.62341 0)
(3.0379 -1.59652 0)
(3.04168 -1.56415 0)
(3.03573 -1.5548 0)
(3.02758 -1.55163 0)
(3.0381 -1.53203 0)
(3.05205 -1.53225 0)
(3.0644 -1.53196 0)
(3.0663 -1.51217 0)
(3.06334 -1.4905 0)
(3.06956 -1.46109 0)
(3.0704 -1.44843 0)
(3.07429 -1.42986 0)
(3.0663 -1.43069 0)
(3.05441 -1.43333 0)
(3.06308 -1.39412 0)
(3.06371 -1.28438 0)
(2.99961 -0.859788 0)
(2.88183 -0.421335 0)
(2.82216 -0.0881551 0)
(2.70627 0.101091 0)
(2.66421 0.116234 0)
(2.67224 0.116266 0)
(3.03305 -1.59659 0)
(3.03384 -1.59757 0)
(3.03731 -1.59294 0)
(3.03684 -1.60124 0)
(3.04123 -1.58886 0)
(3.04853 -1.5692 0)
(3.0509 -1.56437 0)
(3.04879 -1.54643 0)
(3.0486 -1.53788 0)
(3.04488 -1.53535 0)
(3.03512 -1.54134 0)
(3.02911 -1.54233 0)
(3.04294 -1.51659 0)
(3.06244 -1.47031 0)
(3.0778 -1.45224 0)
(3.08111 -1.45599 0)
(3.07414 -1.40628 0)
(3.08103 -1.37919 0)
(3.09592 -1.36044 0)
(3.10992 -1.33283 0)
(3.11034 -1.31993 0)
(3.09453 -1.33729 0)
(3.07914 -1.34482 0)
(3.07964 -1.32562 0)
(3.09499 -1.29486 0)
(3.08489 -1.1682 0)
(3.0297 -0.768068 0)
(2.888 -0.331204 0)
(2.83969 -0.0453124 0)
(2.73341 0.109199 0)
(3.06231 -1.49254 0)
(3.06409 -1.47742 0)
(3.06773 -1.45653 0)
(3.06948 -1.4411 0)
(3.07013 -1.42821 0)
(3.07845 -1.40806 0)
(3.0821 -1.4074 0)
(3.08307 -1.41643 0)
(3.08348 -1.41376 0)
(3.08108 -1.40977 0)
(3.07721 -1.4178 0)
(3.07536 -1.43749 0)
(3.07105 -1.40435 0)
(3.08218 -1.36433 0)
(3.08906 -1.35708 0)
(3.08099 -1.37063 0)
(3.07547 -1.36047 0)
(3.08002 -1.34377 0)
(3.09201 -1.33035 0)
(3.10642 -1.30799 0)
(3.11617 -1.29166 0)
(3.12472 -1.25713 0)
(3.12141 -1.23851 0)
(3.09904 -1.25077 0)
(3.08944 -1.22086 0)
(3.11326 -1.2288 0)
(3.12177 -1.21301 0)
(3.0866 -1.03303 0)
(3.04867 -0.676165 0)
(2.85384 -0.103579 0)
(3.06789 -1.41084 0)
(3.06661 -1.41151 0)
(3.06798 -1.40914 0)
(3.07339 -1.40231 0)
(3.06856 -1.41582 0)
(3.06812 -1.43535 0)
(3.07702 -1.41812 0)
(3.07863 -1.40018 0)
(3.07633 -1.39116 0)
(3.08825 -1.3436 0)
(3.10208 -1.31447 0)
(3.09797 -1.30765 0)
(3.09301 -1.30089 0)
(3.09632 -1.29851 0)
(3.10089 -1.29852 0)
(3.10131 -1.29155 0)
(3.09736 -1.28578 0)
(3.09699 -1.27379 0)
(3.10092 -1.26436 0)
(3.10296 -1.2545 0)
(3.10464 -1.23819 0)
(3.11503 -1.21511 0)
(3.12542 -1.19071 0)
(3.12627 -1.17547 0)
(3.11211 -1.18243 0)
(3.10778 -1.16632 0)
(3.11728 -1.13721 0)
(3.12652 -1.13317 0)
(3.12704 -1.13371 0)
(3.01289 -0.574357 0)
(3.09179 -1.28775 0)
(3.09564 -1.27521 0)
(3.10153 -1.26769 0)
(3.10916 -1.25569 0)
(3.11727 -1.24601 0)
(3.11627 -1.24973 0)
(3.11383 -1.25869 0)
(3.10719 -1.25512 0)
(3.10309 -1.24964 0)
(3.10414 -1.24706 0)
(3.10234 -1.25064 0)
(3.09822 -1.25665 0)
(3.10302 -1.24491 0)
(3.11003 -1.23406 0)
(3.1156 -1.21822 0)
(3.12138 -1.19999 0)
(3.12102 -1.1944 0)
(3.1192 -1.17393 0)
(3.12297 -1.15797 0)
(3.11794 -1.16147 0)
(3.1099 -1.16803 0)
(3.10909 -1.15834 0)
(3.11875 -1.13857 0)
(3.12556 -1.12432 0)
(3.13024 -1.10482 0)
(3.12664 -1.09649 0)
(3.11943 -1.08725 0)
(3.12174 -1.08819 0)
(3.12603 -1.07435 0)
(3.12672 -1.04844 0)
(3.10737 -1.18436 0)
(3.1103 -1.17262 0)
(3.11866 -1.16265 0)
(3.13091 -1.15782 0)
(3.13038 -1.16516 0)
(3.12376 -1.18656 0)
(3.12151 -1.19035 0)
(3.11356 -1.17973 0)
(3.11053 -1.17634 0)
(3.12098 -1.149 0)
(3.13245 -1.12228 0)
(3.13072 -1.11822 0)
(3.12632 -1.11922 0)
(3.12598 -1.1127 0)
(3.1275 -1.10473 0)
(3.12906 -1.09707 0)
(3.12634 -1.09384 0)
(3.12532 -1.08543 0)
(3.13443 -1.07219 0)
(3.13711 -1.06669 0)
(3.13451 -1.06628 0)
(3.1264 -1.06916 0)
(3.12236 -1.06421 0)
(3.12618 -1.04579 0)
(3.13287 -1.03443 0)
(3.1334 -1.03168 0)
(3.12857 -1.02643 0)
(3.12725 -1.00976 0)
(3.12622 -1.01154 0)
(3.128 -1.00184 0)
(3.11917 -1.04605 0)
(3.11759 -1.02968 0)
(3.13968 -1.02057 0)
(3.14795 -1.02265 0)
(3.14848 -1.03246 0)
(3.14122 -1.04742 0)
(3.13592 -1.05803 0)
(3.12674 -1.05033 0)
(3.12555 -1.04629 0)
(3.13079 -1.03225 0)
(3.13906 -1.02015 0)
(3.13823 -1.01998 0)
(3.13236 -1.02537 0)
(3.1314 -1.02183 0)
(3.13224 -1.01923 0)
(3.13049 -1.02071 0)
(3.12982 -1.02265 0)
(3.12884 -1.01657 0)
(3.12945 -1.01188 0)
(3.13402 -0.999545 0)
(3.13929 -0.982567 0)
(3.13774 -0.971925 0)
(3.13635 -0.96907 0)
(3.13171 -0.972011 0)
(3.1327 -0.963344 0)
(3.13491 -0.960037 0)
(3.13469 -0.959556 0)
(3.13245 -0.950426 0)
(3.13146 -0.94282 0)
(3.12996 -0.939341 0)
(3.13021 -0.928054 0)
(3.13464 -0.906609 0)
(3.13368 -0.894621 0)
(3.14853 -0.901049 0)
(3.14878 -0.910916 0)
(3.14857 -0.92183 0)
(3.1407 -0.939852 0)
(3.13107 -0.950673 0)
(3.13131 -0.935142 0)
(3.13883 -0.918155 0)
(3.1407 -0.911666 0)
(3.14105 -0.915824 0)
(3.13891 -0.919707 0)
(3.13644 -0.919102 0)
(3.13828 -0.913299 0)
(3.13936 -0.908841 0)
(3.14082 -0.898573 0)
(3.13998 -0.895782 0)
(3.13599 -0.896362 0)
(3.13246 -0.90294 0)
(3.13431 -0.907748 0)
(3.13584 -0.905686 0)
(3.13642 -0.899232 0)
(3.13695 -0.894062 0)
(3.13416 -0.893193 0)
(3.13388 -0.889778 0)
(3.13536 -0.88411 0)
(3.13657 -0.884143 0)
(3.13502 -0.880947 0)
(3.13315 -0.875631 0)
(3.12794 -0.803148 0)
(3.13535 -0.787777 0)
(3.13549 -0.763008 0)
(3.14167 -0.76155 0)
(3.1473 -0.787568 0)
(3.14661 -0.792909 0)
(3.13966 -0.801435 0)
(3.13113 -0.815291 0)
(3.13076 -0.808818 0)
(3.13776 -0.792107 0)
(3.14025 -0.782412 0)
(3.14713 -0.792908 0)
(3.14024 -0.801982 0)
(3.13512 -0.801285 0)
(3.1362 -0.799992 0)
(3.137 -0.800727 0)
(3.13684 -0.804851 0)
(3.13747 -0.804934 0)
(3.13978 -0.800013 0)
(3.13909 -0.79598 0)
(3.13559 -0.7969 0)
(3.13423 -0.79903 0)
(3.13328 -0.805614 0)
(3.13415 -0.807709 0)
(3.13481 -0.80845 0)
(3.13408 -0.810131 0)
(3.13336 -0.813587 0)
(3.13346 -0.814819 0)
(3.13453 -0.815 0)
(3.13342 -0.817268 0)
(3.12027 -0.664784 0)
(3.12702 -0.653261 0)
(3.12828 -0.627883 0)
(3.12971 -0.610354 0)
(3.1381 -0.637602 0)
(3.1356 -0.654596 0)
(3.13354 -0.660587 0)
(3.12374 -0.674299 0)
(3.12306 -0.678622 0)
(3.12811 -0.67412 0)
(3.13591 -0.661774 0)
(3.14092 -0.666221 0)
(3.13637 -0.678909 0)
(3.12835 -0.682587 0)
(3.12766 -0.686679 0)
(3.13151 -0.689518 0)
(3.13235 -0.689566 0)
(3.13259 -0.692103 0)
(3.13134 -0.70052 0)
(3.12948 -0.710878 0)
(3.13037 -0.712317 0)
(3.13237 -0.712778 0)
(3.13217 -0.720213 0)
(3.13151 -0.721019 0)
(3.13218 -0.72348 0)
(3.13318 -0.724216 0)
(3.13167 -0.727045 0)
(3.12994 -0.736099 0)
(3.12991 -0.741371 0)
(3.13097 -0.746419 0)
(3.10184 -0.517204 0)
(3.10596 -0.511449 0)
(3.10921 -0.493088 0)
(3.11204 -0.471626 0)
(3.12179 -0.492159 0)
(3.12195 -0.508066 0)
(3.12201 -0.514503 0)
(3.10744 -0.536834 0)
(3.1044 -0.544042 0)
(3.11286 -0.537632 0)
(3.12366 -0.53302 0)
(3.12777 -0.538965 0)
(3.12268 -0.551789 0)
(3.11691 -0.553302 0)
(3.11674 -0.55949 0)
(3.12071 -0.571597 0)
(3.12157 -0.574835 0)
(3.12286 -0.57978 0)
(3.12347 -0.582448 0)
(3.12204 -0.589104 0)
(3.12165 -0.603041 0)
(3.123 -0.60173 0)
(3.12527 -0.610956 0)
(3.12476 -0.620219 0)
(3.12397 -0.626981 0)
(3.12509 -0.641182 0)
(3.12589 -0.644359 0)
(3.12517 -0.649228 0)
(3.12676 -0.666879 0)
(3.12633 -0.67663 0)
(3.07136 -0.368 0)
(3.07742 -0.365779 0)
(3.08463 -0.350086 0)
(3.08781 -0.323177 0)
(3.09987 -0.333992 0)
(3.09954 -0.361064 0)
(3.09824 -0.367287 0)
(3.08526 -0.393753 0)
(3.08057 -0.407181 0)
(3.09217 -0.402231 0)
(3.10465 -0.395955 0)
(3.10734 -0.405761 0)
(3.10223 -0.420386 0)
(3.09794 -0.421052 0)
(3.10125 -0.43271 0)
(3.10459 -0.449689 0)
(3.10496 -0.453138 0)
(3.10672 -0.457989 0)
(3.10927 -0.476972 0)
(3.10799 -0.479554 0)
(3.10971 -0.493564 0)
(3.11174 -0.508296 0)
(3.1129 -0.513311 0)
(3.11454 -0.529195 0)
(3.11482 -0.536769 0)
(3.11647 -0.551463 0)
(3.11703 -0.566598 0)
(3.11823 -0.571297 0)
(3.12013 -0.579666 0)
(3.12104 -0.596428 0)
(3.03633 -0.219859 0)
(3.03918 -0.215703 0)
(3.04788 -0.201892 0)
(3.05444 -0.177705 0)
(3.06873 -0.179353 0)
(3.06839 -0.213521 0)
(3.06591 -0.224554 0)
(3.05744 -0.2506 0)
(3.05134 -0.267655 0)
(3.06239 -0.263504 0)
(3.07658 -0.257224 0)
(3.08131 -0.269561 0)
(3.07646 -0.287371 0)
(3.07192 -0.289282 0)
(3.07745 -0.305554 0)
(3.08068 -0.320142 0)
(3.08277 -0.333987 0)
(3.08523 -0.338239 0)
(3.08863 -0.351581 0)
(3.08967 -0.370516 0)
(3.09069 -0.379457 0)
(3.09428 -0.394483 0)
(3.09642 -0.407293 0)
(3.09838 -0.422732 0)
(3.10017 -0.43992 0)
(3.10143 -0.444543 0)
(3.10403 -0.462135 0)
(3.10593 -0.482976 0)
(3.10758 -0.492399 0)
(3.11032 -0.512377 0)
(2.99637 -0.0710022 0)
(2.99444 -0.071361 0)
(3.00194 -0.0605445 0)
(3.01164 -0.0398321 0)
(3.0279 -0.0365451 0)
(3.02894 -0.0638606 0)
(3.02097 -0.0841599 0)
(3.01968 -0.10804 0)
(3.0132 -0.127371 0)
(3.02316 -0.125459 0)
(3.03936 -0.119632 0)
(3.04713 -0.134977 0)
(3.04217 -0.154625 0)
(3.03685 -0.155694 0)
(3.04403 -0.17625 0)
(3.04911 -0.197033 0)
(3.05121 -0.20424 0)
(3.05682 -0.218305 0)
(3.06063 -0.231409 0)
(3.0629 -0.251797 0)
(3.0652 -0.267055 0)
(3.06971 -0.281755 0)
(3.07425 -0.302338 0)
(3.07586 -0.312821 0)
(3.08018 -0.335849 0)
(3.08334 -0.354497 0)
(3.08681 -0.370585 0)
(3.08957 -0.385662 0)
(3.09254 -0.405714 0)
(3.09677 -0.433369 0)
(2.94479 0.0751379 0)
(2.94292 0.0720401 0)
(2.9466 0.0762163 0)
(2.95648 0.0912058 0)
(2.96991 0.101331 0)
(2.9756 0.086483 0)
(2.96815 0.0598953 0)
(2.97162 0.0316009 0)
(2.96636 0.00591887 0)
(2.97483 0.00578699 0)
(2.98984 0.0133171 0)
(2.99972 -0.00191883 0)
(2.99786 -0.0217867 0)
(2.99504 -0.0290504 0)
(3.00136 -0.0475636 0)
(3.00757 -0.0716332 0)
(3.01108 -0.080832 0)
(3.01899 -0.0956018 0)
(3.02518 -0.11381 0)
(3.0275 -0.129939 0)
(3.03305 -0.153728 0)
(3.0382 -0.16768 0)
(3.04458 -0.18829 0)
(3.04954 -0.210382 0)
(3.05344 -0.226014 0)
(3.05894 -0.248358 0)
(3.06376 -0.269794 0)
(3.06834 -0.289534 0)
(3.0727 -0.309343 0)
(3.07859 -0.338837 0)
(2.88217 0.228259 0)
(2.88101 0.221664 0)
(2.88156 0.219056 0)
(2.88705 0.224674 0)
(2.89671 0.232393 0)
(2.90465 0.226097 0)
(2.91141 0.200533 0)
(2.91593 0.169527 0)
(2.90954 0.146775 0)
(2.91451 0.147735 0)
(2.92276 0.15229 0)
(2.94099 0.127301 0)
(2.94231 0.10718 0)
(2.94332 0.10211 0)
(2.9538 0.077746 0)
(2.95789 0.0581491 0)
(2.9642 0.0407943 0)
(2.97261 0.0279512 0)
(2.98257 0.00474618 0)
(2.98721 -0.0130248 0)
(2.99371 -0.0344204 0)
(3.00187 -0.056415 0)
(3.0091 -0.0755426 0)
(3.01597 -0.0973187 0)
(3.02322 -0.122488 0)
(3.02949 -0.142559 0)
(3.03653 -0.167404 0)
(3.0429 -0.191105 0)
(3.04876 -0.213068 0)
(3.05787 -0.250288 0)
(2.82489 0.352399 0)
(2.8251 0.347661 0)
(2.82525 0.349646 0)
(2.82816 0.34922 0)
(2.83598 0.342042 0)
(2.84242 0.334208 0)
(2.8463 0.326372 0)
(2.85164 0.311189 0)
(2.85454 0.294048 0)
(2.8557 0.293671 0)
(2.86151 0.287137 0)
(2.87575 0.26093 0)
(2.8809 0.244206 0)
(2.88579 0.236611 0)
(2.89798 0.21318 0)
(2.90445 0.192901 0)
(2.91189 0.173316 0)
(2.92219 0.152954 0)
(2.93255 0.131266 0)
(2.94209 0.10639 0)
(2.95046 0.0840999 0)
(2.95993 0.0612997 0)
(2.97052 0.0344716 0)
(2.97874 0.0127772 0)
(2.98848 -0.0147247 0)
(2.99698 -0.0391187 0)
(3.00595 -0.0658372 0)
(3.01421 -0.0912977 0)
(3.02216 -0.11697 0)
(3.03391 -0.157118 0)
(2.81324 0.382801 0)
(2.81326 0.382545 0)
(2.81359 0.381569 0)
(2.81381 0.380347 0)
(2.81483 0.379009 0)
(2.81594 0.377793 0)
(2.81673 0.376762 0)
(2.8179 0.375231 0)
(2.81939 0.373319 0)
(2.82097 0.372139 0)
(2.82427 0.368322 0)
(2.82847 0.360755 0)
(2.83123 0.354685 0)
(2.83585 0.347165 0)
(2.84344 0.334999 0)
(2.85086 0.321103 0)
(2.85895 0.304894 0)
(2.86805 0.285901 0)
(2.87895 0.262376 0)
(2.88895 0.240135 0)
(2.90156 0.211523 0)
(2.91293 0.185284 0)
(2.92543 0.155816 0)
(2.93726 0.126789 0)
(2.94936 0.0961653 0)
(2.96032 0.0679177 0)
(2.97217 0.0364631 0)
(2.98274 0.00803313 0)
(2.99283 -0.0202451 0)
(3.00777 -0.0648668 0)
(2.82926 0.357705 0)
(2.82657 0.352876 0)
(2.82428 0.353152 0)
(2.82545 0.358753 0)
(2.82698 0.362195 0)
(2.82656 0.366914 0)
(2.82635 0.37618 0)
(2.82243 0.377355 0)
(2.81843 0.373424 0)
(2.8212 0.367899 0)
(2.82429 0.368202 0)
(2.82429 0.371796 0)
(2.82392 0.372804 0)
(2.82447 0.371426 0)
(2.82482 0.369465 0)
(2.82584 0.367723 0)
(2.82836 0.364912 0)
(2.83176 0.361161 0)
(2.83636 0.354597 0)
(2.84253 0.344123 0)
(2.8511 0.328754 0)
(2.86126 0.309714 0)
(2.87392 0.284018 0)
(2.88666 0.255903 0)
(2.90173 0.221306 0)
(2.91569 0.18813 0)
(2.93123 0.15034 0)
(2.94509 0.115781 0)
(2.95843 0.081748 0)
(2.97751 0.0305165 0)
(2.89818 0.232235 0)
(2.89542 0.232002 0)
(2.88613 0.246127 0)
(2.88112 0.251737 0)
(2.88261 0.251956 0)
(2.874 0.268569 0)
(2.86916 0.290697 0)
(2.86809 0.307695 0)
(2.86127 0.307655 0)
(2.85831 0.304132 0)
(2.84854 0.31851 0)
(2.84571 0.334554 0)
(2.8461 0.336291 0)
(2.84191 0.343377 0)
(2.83707 0.351045 0)
(2.83512 0.354043 0)
(2.83384 0.356895 0)
(2.8339 0.358722 0)
(2.83402 0.35875 0)
(2.83454 0.357821 0)
(2.83531 0.356374 0)
(2.83711 0.35401 0)
(2.84061 0.34988 0)
(2.84606 0.342074 0)
(2.8549 0.327221 0)
(2.86617 0.306067 0)
(2.88116 0.27504 0)
(2.89689 0.239834 0)
(2.91386 0.200848 0)
(2.93894 0.139389 0)
(2.9785 0.0511203 0)
(2.9758 0.0567468 0)
(2.97159 0.06931 0)
(2.96876 0.0709873 0)
(2.96597 0.0707325 0)
(2.95574 0.0871815 0)
(2.95267 0.100983 0)
(2.95091 0.111877 0)
(2.94515 0.125928 0)
(2.93897 0.13259 0)
(2.93079 0.144685 0)
(2.91738 0.177419 0)
(2.91526 0.184312 0)
(2.90271 0.209609 0)
(2.89509 0.227141 0)
(2.88436 0.249545 0)
(2.8748 0.268837 0)
(2.86771 0.284747 0)
(2.85741 0.308284 0)
(2.85417 0.316063 0)
(2.84683 0.330699 0)
(2.84427 0.336879 0)
(2.84216 0.341971 0)
(2.84267 0.342174 0)
(2.84376 0.341604 0)
(2.84542 0.340117 0)
(2.84909 0.33549 0)
(2.85585 0.325663 0)
(2.8664 0.307845 0)
(2.89034 0.258879 0)
(2.99889 0.00254203 0)
(2.99875 0.00279066 0)
(2.99849 0.00333427 0)
(2.99817 0.00396237 0)
(2.99768 0.004603 0)
(2.99685 0.00578388 0)
(2.99605 0.00753449 0)
(2.99538 0.00941835 0)
(2.9944 0.0118931 0)
(2.99298 0.0143516 0)
(2.99067 0.0179424 0)
(2.98718 0.0249545 0)
(2.98446 0.0309689 0)
(2.97938 0.0412622 0)
(2.97423 0.0513211 0)
(2.96579 0.0688938 0)
(2.9574 0.0859531 0)
(2.94674 0.107754 0)
(2.93187 0.140435 0)
(2.92362 0.159187 0)
(2.90238 0.204728 0)
(2.89412 0.223811 0)
(2.87766 0.257807 0)
(2.86405 0.290572 0)
(2.86067 0.299506 0)
(2.85218 0.318165 0)
(2.84812 0.330369 0)
(2.85017 0.328248 0)
(2.85104 0.327121 0)
(2.85752 0.319113 0)
(2.99999 2.74765e-05 0)
(2.99998 3.24383e-05 0)
(2.99998 3.89706e-05 0)
(2.99997 4.97751e-05 0)
(2.99997 6.06374e-05 0)
(2.99995 8.2162e-05 0)
(2.99994 0.000111751 0)
(2.99992 0.000155076 0)
(2.99989 0.000213641 0)
(2.99984 0.000290811 0)
(2.99976 0.000419223 0)
(2.99964 0.000639809 0)
(2.99946 0.000981833 0)
(2.9992 0.00144301 0)
(2.99871 0.00234575 0)
(2.99799 0.00363834 0)
(2.99679 0.00591592 0)
(2.9949 0.00944363 0)
(2.99194 0.0149642 0)
(2.98726 0.024346 0)
(2.98065 0.0367741 0)
(2.97081 0.0571275 0)
(2.95799 0.0827536 0)
(2.9422 0.115506 0)
(2.92355 0.1559 0)
(2.90513 0.195871 0)
(2.88727 0.235311 0)
(2.87307 0.269422 0)
(2.86271 0.293649 0)
(2.85834 0.30841 0)
(3 1.61435e-07 0)
(3 1.89334e-07 0)
(3 2.34051e-07 0)
(3 2.93951e-07 0)
(3 3.78051e-07 0)
(3 5.01435e-07 0)
(3 6.95226e-07 0)
(3 9.72844e-07 0)
(3 1.39062e-06 0)
(3 2.00852e-06 0)
(3 2.9951e-06 0)
(3 4.93942e-06 0)
(3 7.89168e-06 0)
(2.99999 1.34474e-05 0)
(2.99999 2.3057e-05 0)
(2.99997 4.33365e-05 0)
(2.99995 7.96128e-05 0)
(2.99991 0.000157965 0)
(2.99982 0.000312219 0)
(2.99963 0.000644935 0)
(2.99925 0.00132892 0)
(2.99844 0.00280318 0)
(2.99689 0.00562255 0)
(2.99371 0.0116677 0)
(2.9884 0.0216826 0)
(2.97874 0.0407504 0)
(2.96534 0.0674464 0)
(2.94532 0.109143 0)
(2.92602 0.150147 0)
(2.89381 0.221487 0)
(3 7.30574e-10 0)
(3 8.75988e-10 0)
(3 1.08474e-09 0)
(3 1.38679e-09 0)
(3 1.79179e-09 0)
(3 2.39621e-09 0)
(3 3.28372e-09 0)
(3 4.59394e-09 0)
(3 6.61609e-09 0)
(3 9.62986e-09 0)
(3 1.47297e-08 0)
(3 2.38088e-08 0)
(3 3.96803e-08 0)
(3 6.74365e-08 0)
(3 1.22751e-07 0)
(3 2.3214e-07 0)
(3 4.62474e-07 0)
(3 9.6858e-07 0)
(3 2.12442e-06 0)
(3 4.96851e-06 0)
(2.99999 1.1962e-05 0)
(2.99998 3.10364e-05 0)
(2.99995 8.05789e-05 0)
(2.99987 0.000223989 0)
(2.99966 0.000598832 0)
(2.99907 0.00167369 0)
(2.99769 0.00420031 0)
(2.99412 0.0109951 0)
(2.98827 0.0221746 0)
(2.9656 0.0691254 0)
(3 2.55482e-12 0)
(3 3.07866e-12 0)
(3 3.87959e-12 0)
(3 4.9788e-12 0)
(3 6.5434e-12 0)
(3 8.76214e-12 0)
(3 1.2115e-11 0)
(3 1.68824e-11 0)
(3 2.46032e-11 0)
(3 3.58748e-11 0)
(3 5.54206e-11 0)
(3 8.89302e-11 0)
(3 1.49105e-10 0)
(3 2.53752e-10 0)
(3 4.67501e-10 0)
(3 8.83022e-10 0)
(3 1.80506e-09 0)
(3 3.79262e-09 0)
(3 8.73208e-09 0)
(3 2.06245e-08 0)
(3 5.38111e-08 0)
(3 1.43908e-07 0)
(3 4.27221e-07 0)
(3 1.28641e-06 0)
(3 4.30812e-06 0)
(2.99999 1.43095e-05 0)
(2.99996 5.18536e-05 0)
(2.99985 0.000183998 0)
(2.99955 0.000585912 0)
(2.99616 0.00463957 0)
(2.60235 -1.41581 0)
(2.66178 -1.40401 0)
(2.80531 -1.49957 0)
(2.95588 -1.6345 0)
(3.05228 -1.6504 0)
(3.06706 -1.64998 0)
(3.05808 -1.64638 0)
(3.05166 -1.6515 0)
(3.04075 -1.65818 0)
(3.02864 -1.65902 0)
(3.0333 -1.59326 0)
(3.05554 -1.51901 0)
(3.06891 -1.41279 0)
(3.0894 -1.29628 0)
(3.10521 -1.1916 0)
(3.1175 -1.06491 0)
(3.12653 -0.939138 0)
(3.12753 -0.807388 0)
(3.11961 -0.667261 0)
(3.10272 -0.51765 0)
(3.078 -0.367813 0)
(3.04678 -0.214757 0)
(3.00563 -0.0600203 0)
(2.95091 0.0882568 0)
(2.88225 0.245539 0)
(2.82182 0.361862 0)
(2.81376 0.382887 0)
(2.83245 0.361826 0)
(2.90127 0.232105 0)
(2.9796 0.0477809 0)
(2.99908 0.00206452 0)
(2.99999 2.42232e-05 0)
(3 1.40312e-07 0)
(3 6.29824e-10 0)
(3 2.18198e-12 0)
(2.59427 -1.4045 0)
(2.66717 -1.41795 0)
(2.8218 -1.52366 0)
(2.97214 -1.6391 0)
(3.0557 -1.65371 0)
(3.06573 -1.65162 0)
(3.05399 -1.65344 0)
(3.04757 -1.6547 0)
(3.03692 -1.6649 0)
(3.01979 -1.66932 0)
(3.04656 -1.53944 0)
(3.05186 -1.53357 0)
(3.08574 -1.38581 0)
(3.09416 -1.3006 0)
(3.10864 -1.19252 0)
(3.12459 -1.0612 0)
(3.13814 -0.933479 0)
(3.14557 -0.788615 0)
(3.14063 -0.641673 0)
(3.1241 -0.478042 0)
(3.09705 -0.313973 0)
(3.05768 -0.154312 0)
(3.00566 0.00170728 0)
(2.94064 0.151087 0)
(2.86499 0.29196 0)
(2.81602 0.374884 0)
(2.81447 0.381732 0)
(2.83445 0.356468 0)
(2.91003 0.200017 0)
(2.98453 0.0341816 0)
(2.99948 0.00109144 0)
(2.99999 1.01415e-05 0)
(3 5.96578e-08 0)
(3 2.93826e-10 0)
(3 1.06781e-12 0)
(2.56354 -1.39949 0)
(2.65107 -1.42381 0)
(2.81046 -1.54469 0)
(2.97014 -1.63776 0)
(3.05282 -1.6631 0)
(3.06712 -1.65949 0)
(3.05706 -1.66151 0)
(3.04639 -1.66652 0)
(3.03218 -1.67125 0)
(3.01079 -1.66827 0)
(3.05949 -1.53627 0)
(3.06245 -1.52153 0)
(3.09344 -1.39873 0)
(3.10402 -1.30163 0)
(3.12125 -1.18744 0)
(3.1418 -1.04349 0)
(3.15842 -0.885176 0)
(3.15392 -0.720921 0)
(3.13929 -0.560605 0)
(3.1057 -0.390444 0)
(3.06603 -0.229647 0)
(3.02037 -0.0775792 0)
(2.96588 0.0675962 0)
(2.9018 0.207684 0)
(2.84332 0.323036 0)
(2.81098 0.383023 0)
(2.81309 0.379581 0)
(2.83988 0.326675 0)
(2.92912 0.154151 0)
(2.99002 0.0219211 0)
(2.99971 0.000600624 0)
(3 5.26843e-06 0)
(3 3.05272e-08 0)
(3 1.49299e-10 0)
(3 5.40264e-13 0)
(2.54529 -1.39063 0)
(2.63856 -1.43084 0)
(2.80489 -1.55674 0)
(2.97294 -1.64104 0)
(3.05557 -1.6744 0)
(3.07471 -1.67286 0)
(3.06741 -1.68096 0)
(3.05183 -1.67959 0)
(3.02825 -1.67683 0)
(3.02159 -1.64075 0)
(3.06808 -1.53669 0)
(3.08399 -1.49288 0)
(3.11152 -1.36927 0)
(3.13516 -1.23254 0)
(3.14594 -1.10897 0)
(3.15232 -0.958171 0)
(3.13866 -0.801766 0)
(3.12327 -0.655198 0)
(3.10415 -0.498483 0)
(3.08282 -0.357226 0)
(3.04997 -0.210138 0)
(3.00807 -0.0663352 0)
(2.95783 0.0696758 0)
(2.89706 0.205584 0)
(2.83549 0.328432 0)
(2.80905 0.386454 0)
(2.81209 0.380166 0)
(2.86189 0.297818 0)
(2.94538 0.127601 0)
(2.99385 0.0147431 0)
(2.99985 0.000337733 0)
(3 2.71846e-06 0)
(3 1.54421e-08 0)
(3 7.48438e-11 0)
(3 2.6838e-13 0)
(2.53404 -1.38343 0)
(2.62894 -1.43313 0)
(2.80476 -1.55911 0)
(2.97773 -1.6459 0)
(3.06147 -1.67895 0)
(3.08172 -1.67809 0)
(3.07387 -1.69211 0)
(3.05592 -1.68446 0)
(3.02874 -1.6834 0)
(3.04395 -1.58 0)
(3.06079 -1.55888 0)
(3.09165 -1.44412 0)
(3.11176 -1.30806 0)
(3.12047 -1.15362 0)
(3.12727 -1.04897 0)
(3.13281 -0.92281 0)
(3.13045 -0.79789 0)
(3.1214 -0.676401 0)
(3.10628 -0.528632 0)
(3.08018 -0.388216 0)
(3.04633 -0.238268 0)
(3.004 -0.0892216 0)
(2.95267 0.0538202 0)
(2.89272 0.197934 0)
(2.83137 0.335837 0)
(2.80843 0.389125 0)
(2.81291 0.381048 0)
(2.86504 0.300594 0)
(2.95182 0.12034 0)
(2.99561 0.0108325 0)
(2.99991 0.000197095 0)
(3 1.44108e-06 0)
(3 7.90096e-09 0)
(3 3.75923e-11 0)
(3 1.31761e-13 0)
(2.52808 -1.37649 0)
(2.62091 -1.4374 0)
(2.80686 -1.55674 0)
(2.98132 -1.64689 0)
(3.06591 -1.67639 0)
(3.0857 -1.67679 0)
(3.07627 -1.69307 0)
(3.05682 -1.69151 0)
(3.03027 -1.68124 0)
(3.04162 -1.56673 0)
(3.03325 -1.57191 0)
(3.073 -1.40933 0)
(3.1013 -1.3024 0)
(3.11786 -1.17593 0)
(3.12204 -1.08134 0)
(3.12981 -0.95419 0)
(3.12903 -0.825097 0)
(3.11914 -0.689553 0)
(3.10413 -0.54159 0)
(3.08207 -0.385248 0)
(3.05056 -0.226688 0)
(3.00878 -0.0688699 0)
(2.95531 0.0863298 0)
(2.88913 0.23941 0)
(2.82462 0.359594 0)
(2.80791 0.390955 0)
(2.81866 0.383732 0)
(2.87095 0.30247 0)
(2.9587 0.0981785 0)
(2.99695 0.00689803 0)
(2.99995 0.000106714 0)
(3 7.38271e-07 0)
(3 3.97734e-09 0)
(3 1.86853e-11 0)
(3 6.36163e-14 0)
(2.52535 -1.37166 0)
(2.61611 -1.4366 0)
(2.81236 -1.54949 0)
(2.99023 -1.64498 0)
(3.07454 -1.66359 0)
(3.08671 -1.67635 0)
(3.07628 -1.69501 0)
(3.04919 -1.69943 0)
(3.02623 -1.68238 0)
(3.03351 -1.56051 0)
(3.01789 -1.57019 0)
(3.06969 -1.39982 0)
(3.09074 -1.32255 0)
(3.11031 -1.19919 0)
(3.12293 -1.09218 0)
(3.13628 -0.956053 0)
(3.14041 -0.818225 0)
(3.14011 -0.656993 0)
(3.12585 -0.497957 0)
(3.0989 -0.317981 0)
(3.0588 -0.149465 0)
(3.00446 0.0134275 0)
(2.93457 0.167769 0)
(2.86185 0.30007 0)
(2.81397 0.379144 0)
(2.80742 0.390521 0)
(2.81929 0.376758 0)
(2.88055 0.255808 0)
(2.97091 0.064616 0)
(2.99822 0.00384357 0)
(2.99997 5.25076e-05 0)
(3 3.58889e-07 0)
(3 1.93496e-09 0)
(3 9.06472e-12 0)
(3 2.96084e-14 0)
(2.52574 -1.36874 0)
(2.6123 -1.4358 0)
(2.81151 -1.54144 0)
(2.98436 -1.63461 0)
(3.07083 -1.64891 0)
(3.08517 -1.67547 0)
(3.074 -1.69732 0)
(3.04362 -1.70391 0)
(3.02124 -1.67802 0)
(3.03339 -1.55203 0)
(3.01759 -1.56791 0)
(3.06578 -1.41442 0)
(3.09223 -1.32021 0)
(3.12186 -1.18956 0)
(3.15058 -1.06521 0)
(3.16329 -0.91157 0)
(3.16665 -0.74692 0)
(3.14459 -0.56905 0)
(3.11398 -0.400497 0)
(3.06424 -0.228116 0)
(3.01407 -0.0681717 0)
(2.96133 0.0779582 0)
(2.90334 0.208352 0)
(2.84554 0.318483 0)
(2.80833 0.386039 0)
(2.80622 0.389352 0)
(2.82474 0.352094 0)
(2.91079 0.202492 0)
(2.98002 0.0471174 0)
(2.99904 0.00219691 0)
(2.99999 2.62228e-05 0)
(3 1.72864e-07 0)
(3 9.24801e-10 0)
(3 4.31321e-12 0)
(3 1.27504e-14 0)
(2.52597 -1.36831 0)
(2.61165 -1.43865 0)
(2.80379 -1.53742 0)
(2.97319 -1.62597 0)
(3.06698 -1.63966 0)
(3.08448 -1.67383 0)
(3.07427 -1.69514 0)
(3.04707 -1.6992 0)
(3.01914 -1.6557 0)
(3.04205 -1.56866 0)
(3.03075 -1.56376 0)
(3.07368 -1.40968 0)
(3.10514 -1.29584 0)
(3.13807 -1.14509 0)
(3.16014 -1.00333 0)
(3.15225 -0.830546 0)
(3.12942 -0.651894 0)
(3.1085 -0.503051 0)
(3.07762 -0.346854 0)
(3.04677 -0.210431 0)
(3.0053 -0.0680066 0)
(2.95667 0.0665633 0)
(2.89955 0.196025 0)
(2.83908 0.319937 0)
(2.80565 0.390633 0)
(2.80524 0.389599 0)
(2.83862 0.336083 0)
(2.91704 0.194911 0)
(2.98553 0.0367739 0)
(2.99945 0.00131687 0)
(2.99999 1.34407e-05 0)
(3 8.42386e-08 0)
(3 4.41316e-10 0)
(3 2.03363e-12 0)
(3 4.5157e-15 0)
(2.52715 -1.36837 0)
(2.61077 -1.44178 0)
(2.79938 -1.5342 0)
(2.96909 -1.61652 0)
(3.07147 -1.63125 0)
(3.09263 -1.66791 0)
(3.08231 -1.68901 0)
(3.05519 -1.69478 0)
(3.02901 -1.63874 0)
(3.03814 -1.60843 0)
(3.0615 -1.52105 0)
(3.10105 -1.36183 0)
(3.11504 -1.25273 0)
(3.12543 -1.09188 0)
(3.12105 -0.935738 0)
(3.12514 -0.792016 0)
(3.1213 -0.651268 0)
(3.10487 -0.529056 0)
(3.07878 -0.379208 0)
(3.04219 -0.236431 0)
(2.99982 -0.0883365 0)
(2.95067 0.0571774 0)
(2.89442 0.203612 0)
(2.83226 0.339919 0)
(2.80426 0.39504 0)
(2.80469 0.39373 0)