/*--------------------------------*- C++ -*----------------------------------*\
  =========                 |
  \\      /  F ield         | OpenFOAM: The Open Source CFD Toolbox
   \\    /   O peration     | Website:  https://openfoam.org
    \\  /    A nd           | Version:  7
     \\/     M anipulation  |
\*---------------------------------------------------------------------------*/
FoamFile
{
    version     2.0;
    format      ascii;
    class       volScalarField;
    location    "2.5";
    object      p;
}
// * * * * * * * * * * * * * * * * * * * * * * * * * * * * * * * * * * * * * //

dimensions      [1 -1 -2 0 0 0 0];

internalField   nonuniform List<scalar> 
90000
(
0.073021
0.103846
0.125996
0.159686
0.18174
0.190217
0.212731
0.242192
0.262165
0.287585
0.323157
0.359575
0.397643
0.442116
0.484402
0.531321
0.57593
0.614862
0.656996
0.687047
0.710294
0.733634
0.740755
0.747448
0.74912
0.741808
0.734858
0.731058
0.726554
0.72802
0.737079
0.749912
0.750141
0.744242
0.736901
0.745695
0.757761
0.782908
0.815859
0.835844
0.840441
0.83848
0.842102
0.851942
0.865802
0.876921
0.88596
0.889573
0.888555
0.881479
0.867819
0.856667
0.84903
0.852036
0.861272
0.871857
0.876555
0.875126
0.869753
0.865414
0.863166
0.862693
0.863009
0.864711
0.868791
0.873831
0.877464
0.8792
0.877655
0.878081
0.881023
0.890709
0.902713
0.90746
0.906733
0.908802
0.917151
0.93371
0.948814
0.956238
0.960247
0.96299
0.966019
0.970391
0.975094
0.98098
0.993158
1.00107
0.998901
0.979934
0.95193
0.904194
0.837474
0.80035
0.795865
0.837255
0.886571
0.879458
0.856271
0.857565
0.0437928
0.0437744
0.0437533
0.043733
0.0437139
0.0436973
0.0436813
0.0436679
0.0436522
0.0436474
0.0436083
0.0442862
0.0467341
0.052661
0.0626195
0.076567
0.0986116
0.124709
0.15953
0.203984
0.251
0.306394
0.367023
0.422764
0.479217
0.529151
0.573046
0.622249
0.66797
0.706242
0.741754
0.775602
0.787169
0.772362
0.759296
0.771405
0.806599
0.847255
0.866357
0.869265
0.869088
0.877508
0.882751
0.88833
0.891988
0.886123
0.881979
0.877877
0.874736
0.862834
0.85125
0.850467
0.856752
0.868055
0.880486
0.883149
0.880555
0.874712
0.86689
0.863908
0.863495
0.864126
0.865909
0.868356
0.872352
0.878154
0.879517
0.877655
0.873771
0.874566
0.880086
0.893121
0.904521
0.906248
0.903476
0.906615
0.918114
0.936976
0.949146
0.955442
0.959935
0.963887
0.967985
0.973559
0.975256
0.981045
0.993615
1.00058
0.997837
0.979774
0.951499
0.909166
0.844279
0.805906
0.80094
0.83815
0.884488
0.882092
0.856007
0.857172
0.0437979
0.043796
0.0437964
0.0437981
0.043801
0.0438037
0.0438077
0.04381
0.0438117
0.043811
0.0438076
0.0438038
0.0437638
0.0437224
0.0436904
0.043667
0.0436564
0.0436492
0.0436506
0.043654
0.0436743
0.0436669
0.0457015
0.0517318
0.0649039
0.0877298
0.117619
0.155016
0.207841
0.273421
0.349199
0.429698
0.51892
0.594005
0.663493
0.720704
0.773867
0.810103
0.826934
0.841933
0.871745
0.899233
0.916849
0.915736
0.902226
0.888029
0.879626
0.872241
0.860814
0.843497
0.840163
0.845481
0.856855
0.871704
0.880163
0.880794
0.878549
0.871668
0.866995
0.865594
0.865006
0.864833
0.866037
0.868865
0.873634
0.876746
0.878193
0.875914
0.873651
0.875637
0.885531
0.899445
0.904923
0.901529
0.900105
0.906232
0.921763
0.940209
0.94921
0.955258
0.960255
0.96452
0.969743
0.975847
0.975845
0.981602
0.994033
1.00035
0.996398
0.979118
0.951182
0.912388
0.851671
0.811945
0.807913
0.843296
0.881853
0.88364
0.856547
0.858568
0.0438099
0.0438067
0.0438058
0.0438053
0.0438056
0.0438028
0.0437998
0.0437971
0.0437906
0.043781
0.0437699
0.0437549
0.0437422
0.0437365
0.043736
0.0437387
0.0437492
0.0437591
0.043768
0.0437753
0.0437909
0.0438152
0.0438253
0.043831
0.0438375
0.0438362
0.0438379
0.0438392
0.043851
0.0438586
0.0447149
0.0521806
0.0732786
0.118005
0.181475
0.264345
0.339218
0.38274
0.413025
0.445497
0.489751
0.543271
0.601477
0.657984
0.712155
0.754694
0.800212
0.823126
0.841959
0.842815
0.853019
0.861277
0.878781
0.885134
0.88265
0.879366
0.871293
0.86811
0.870182
0.871592
0.868939
0.866697
0.868876
0.873243
0.8772
0.876754
0.873827
0.870426
0.870989
0.878482
0.895076
0.902393
0.900718
0.89517
0.896696
0.90792
0.927289
0.941104
0.948613
0.955567
0.961077
0.965228
0.971358
0.977324
0.976798
0.982527
0.9945
1.00067
0.995688
0.97897
0.951356
0.915028
0.858246
0.820172
0.817123
0.84913
0.883871
0.886322
0.858253
0.859652
0.0437899
0.0437836
0.0437805
0.0437785
0.0437749
0.0437707
0.0437652
0.0437572
0.0437472
0.0437356
0.0437228
0.0437154
0.0437111
0.0437109
0.0437186
0.043729
0.0437404
0.0437528
0.0437588
0.0437616
0.0437798
0.0438093
0.0438349
0.0438576
0.0438734
0.0438767
0.0438754
0.0438727
0.0438752
0.0438886
0.0439071
0.0439391
0.0439975
0.0440872
0.0441904
0.0443267
0.0445999
0.0467955
0.0492743
0.0529127
0.059088
0.0743598
0.104132
0.150075
0.219629
0.31541
0.424101
0.538307
0.636552
0.716565
0.778405
0.805872
0.831675
0.847429
0.857954
0.86512
0.865578
0.86848
0.874644
0.877091
0.871223
0.868076
0.872734
0.874723
0.874556
0.871959
0.865932
0.865109
0.872231
0.888692
0.902612
0.901456
0.895004
0.889978
0.896056
0.914201
0.932087
0.940088
0.948117
0.957188
0.962834
0.966492
0.97252
0.977861
0.978074
0.983912
0.995553
1.00186
0.995672
0.978919
0.951934
0.916994
0.865003
0.830098
0.828676
0.855698
0.888799
0.889408
0.861378
0.862656
0.0437365
0.043735
0.043735
0.0437349
0.0437333
0.0437313
0.0437286
0.0437206
0.0437104
0.0437029
0.0436995
0.0437032
0.0437122
0.0437212
0.0437377
0.0437575
0.0437687
0.0437726
0.0437747
0.0437774
0.043796
0.0438306
0.0438569
0.0438712
0.0438748
0.0438711
0.0438626
0.043857
0.0438576
0.0438649
0.043885
0.0439207
0.0439674
0.044043
0.0441396
0.0442624
0.044472
0.0448472
0.0453805
0.0463734
0.0490841
0.0565422
0.0693379
0.0789248
0.0814705
0.0816956
0.0808382
0.094553
0.126819
0.189255
0.269239
0.371762
0.471173
0.56668
0.648359
0.73716
0.798153
0.860489
0.865286
0.869169
0.868077
0.869291
0.879637
0.876635
0.872694
0.869649
0.861506
0.863858
0.878434
0.898556
0.906672
0.900081
0.881106
0.883743
0.898807
0.920963
0.935024
0.940344
0.949284
0.959418
0.964588
0.967693
0.973077
0.977786
0.977372
0.983473
0.996498
1.00339
0.996053
0.978909
0.953145
0.918475
0.870921
0.841082
0.839068
0.864137
0.896217
0.891729
0.864748
0.864761
0.0437301
0.0437246
0.0437244
0.0437269
0.0437272
0.043724
0.0437193
0.0437157
0.0437135
0.0437155
0.0437222
0.0437324
0.0437474
0.0437653
0.043784
0.0437963
0.0437961
0.0437889
0.0437773
0.0437708
0.0437921
0.0438246
0.0438451
0.0438566
0.0438493
0.0438372
0.0438268
0.0438182
0.0438196
0.0438353
0.0438572
0.0438896
0.0439332
0.0439893
0.0440752
0.0442168
0.0444369
0.0447654
0.0452369
0.0460554
0.0480129
0.0529067
0.0625151
0.073652
0.0788874
0.0800096
0.0802598
0.079668
0.0791602
0.0790921
0.0793718
0.079311
0.0838519
0.110538
0.160208
0.242666
0.378089
0.537519
0.667268
0.766165
0.841251
0.863865
0.873594
0.873298
0.872907
0.859258
0.852294
0.86559
0.891134
0.903768
0.902218
0.881715
0.874364
0.882599
0.908906
0.928262
0.930772
0.936376
0.951481
0.961925
0.966154
0.969345
0.973083
0.97765
0.978744
0.984125
0.997699
1.00542
0.997139
0.97935
0.95505
0.919659
0.876469
0.852601
0.853254
0.870821
0.90344
0.896496
0.870636
0.868405
0.0437375
0.0437336
0.0437351
0.0437381
0.0437367
0.0437347
0.0437349
0.0437375
0.0437445
0.0437559
0.0437688
0.0437797
0.0437927
0.0438092
0.043821
0.0438149
0.0437891
0.0437659
0.0437468
0.0437368
0.0437559
0.0437826
0.0437978
0.043812
0.0438062
0.0437916
0.0437833
0.0437847
0.0437948
0.0438221
0.043853
0.0438773
0.0439093
0.0439541
0.0440218
0.0441401
0.0443754
0.0447332
0.0451759
0.0458003
0.0471639
0.0504758
0.0575526
0.0677122
0.0749386
0.077041
0.0776591
0.0783057
0.0787517
0.0788694
0.0791075
0.0792644
0.0786363
0.0776613
0.077683
0.0779555
0.0778573
0.0897766
0.153413
0.261262
0.429217
0.577009
0.714603
0.791006
0.842743
0.841029
0.855207
0.886301
0.910086
0.90798
0.885833
0.865338
0.870739
0.895557
0.921558
0.927505
0.926319
0.936285
0.956437
0.965623
0.969723
0.973115
0.974082
0.977832
0.982017
0.986276
0.999248
1.00773
0.998923
0.980331
0.957637
0.921883
0.881092
0.863953
0.863771
0.883249
0.907089
0.898979
0.87441
0.869011
0.0437714
0.0437709
0.043773
0.0437729
0.043772
0.0437737
0.0437807
0.0437918
0.0438013
0.0438111
0.0438211
0.043829
0.0438345
0.0438376
0.0438313
0.0437995
0.0437367
0.0437099
0.0436951
0.0436932
0.043709
0.0437314
0.0437464
0.0437596
0.043764
0.0437609
0.0437636
0.0437805
0.0438044
0.0438378
0.0438721
0.0438887
0.0439027
0.0439356
0.0439958
0.044097
0.0442995
0.0446565
0.0451183
0.0456631
0.0467039
0.049239
0.0545201
0.062906
0.0708295
0.0741428
0.0746242
0.0747632
0.0751852
0.0760537
0.0768618
0.0777076
0.0777695
0.0769386
0.0768389
0.0774106
0.0776652
0.07786
0.0788126
0.0796665
0.0800437
0.113728
0.196194
0.351799
0.53062
0.686423
0.817978
0.881442
0.894099
0.881686
0.861078
0.863229
0.880473
0.913044
0.928087
0.922871
0.920942
0.938843
0.960722
0.966499
0.970897
0.973827
0.975981
0.978448
0.983921
0.989732
1.0012
1.00985
1.00128
0.981788
0.960378
0.92613
0.884605
0.875199
0.873695
0.89227
0.915496
0.908401
0.884118
0.874358
0.0438212
0.043829
0.0438333
0.043832
0.0438289
0.0438278
0.043834
0.043843
0.0438481
0.043857
0.0438673
0.0438684
0.0438637
0.0438542
0.04383
0.0437548
0.0436707
0.0436468
0.0436389
0.0436462
0.0436637
0.0436887
0.0437074
0.0437218
0.0437342
0.0437474
0.04377
0.043809
0.0438532
0.043894
0.0439216
0.0439284
0.0439315
0.0439435
0.0439917
0.0440826
0.0442434
0.0445838
0.0450495
0.0455633
0.0463773
0.0483769
0.0526266
0.0594552
0.0668364
0.0710839
0.0721905
0.0722293
0.0721941
0.0724708
0.073363
0.0743964
0.074846
0.0750967
0.0754869
0.0764871
0.0768779
0.0770848
0.0779743
0.079149
0.0792405
0.0790138
0.0789345
0.0790523
0.0939029
0.171543
0.311829
0.483889
0.642776
0.750121
0.836646
0.865889
0.902708
0.931916
0.9275
0.911391
0.916346
0.948927
0.964271
0.969486
0.975438
0.978437
0.97988
0.98246
0.987247
0.993374
1.00331
1.01124
1.00334
0.983226
0.962833
0.929369
0.889847
0.882848
0.883065
0.902218
0.920878
0.91444
0.892158
0.876994
0.0438755
0.0438757
0.0438754
0.0438723
0.0438696
0.0438708
0.0438738
0.0438762
0.043884
0.0438939
0.0438921
0.0438812
0.0438638
0.0438412
0.0437814
0.0436511
0.0435902
0.0435826
0.0435904
0.0436073
0.043631
0.0436666
0.0437055
0.0437323
0.0437468
0.0437615
0.0437937
0.0438507
0.043918
0.0439663
0.043975
0.0439749
0.0439761
0.043982
0.0440177
0.0440945
0.044223
0.0445277
0.0449896
0.0454583
0.0461384
0.0477601
0.0513019
0.0571506
0.064025
0.0687287
0.0705085
0.0708009
0.0707657
0.0708467
0.0714017
0.0720691
0.072335
0.0726607
0.0732931
0.0742648
0.074847
0.0755506
0.0766114
0.0772533
0.0775395
0.077739
0.0781203
0.0786751
0.0790487
0.0790662
0.0789959
0.0896305
0.146825
0.295959
0.526033
0.740891
0.887023
0.919451
0.920133
0.896711
0.916641
0.962226
0.968456
0.972254
0.978956
0.982736
0.98409
0.988086
0.990242
0.997015
1.00483
1.0114
1.00502
0.985782
0.965563
0.932562
0.896465
0.889687
0.892106
0.91133
0.927699
0.920935
0.900944
0.880152
0.0438839
0.043883
0.0438809
0.0438834
0.043892
0.0438963
0.0438991
0.0439081
0.0439134
0.043911
0.0438979
0.0438649
0.0438265
0.0437823
0.0436977
0.0435722
0.0435283
0.0435291
0.0435431
0.0435778
0.0436351
0.0437017
0.0437585
0.0437828
0.04378
0.0437807
0.0438025
0.0438624
0.0439434
0.0440003
0.0440167
0.0440191
0.0440156
0.0440143
0.0440359
0.0441017
0.0442222
0.0445012
0.0449513
0.0453945
0.0459792
0.047299
0.050268
0.0554119
0.0619997
0.0673097
0.0695766
0.069967
0.0699308
0.0699139
0.0701437
0.0703798
0.0702791
0.0703078
0.0706914
0.0714143
0.0722366
0.073252
0.0745515
0.0751612
0.0752277
0.0753952
0.0760702
0.0774547
0.0777373
0.0778101
0.077985
0.0783187
0.0789375
0.0797902
0.0955177
0.200111
0.403306
0.614185
0.79563
0.859475
0.933723
0.97537
0.968715
0.971481
0.979952
0.985509
0.989457
0.993771
0.992791
0.999513
1.00561
1.01015
1.00619
0.988132
0.967946
0.936675
0.903027
0.896305
0.899707
0.919639
0.934579
0.926673
0.908483
0.884048
0.0438857
0.0438838
0.0438874
0.0438995
0.0439114
0.0439293
0.0439398
0.0439384
0.0439322
0.04392
0.0438935
0.0438325
0.0437691
0.0437172
0.043652
0.0435601
0.0435304
0.0435351
0.0435649
0.0436396
0.0437169
0.0437676
0.0438033
0.0438054
0.0437859
0.0437825
0.0437991
0.0438527
0.0439371
0.0440076
0.0440315
0.044031
0.0440216
0.0440158
0.0440258
0.0440847
0.0442151
0.0444932
0.0449415
0.0453796
0.0459024
0.0469779
0.0494254
0.0539349
0.0602493
0.0662184
0.0690741
0.0694936
0.0694885
0.0694046
0.0693708
0.0693519
0.0690679
0.0688849
0.0689606
0.0693475
0.0700139
0.0708874
0.0721445
0.0732246
0.073465
0.0737072
0.0742571
0.0751913
0.0760719
0.0767159
0.0771821
0.0777215
0.0785952
0.0802306
0.0819292
0.0826417
0.0830477
0.133347
0.303422
0.604785
0.87418
0.956398
0.953206
0.97084
0.98174
0.987496
0.996304
0.998534
0.994847
1.00042
1.0054
1.00769
1.00648
0.991126
0.97006
0.941989
0.909121
0.902836
0.906851
0.926672
0.942974
0.93343
0.915929
0.887345
0.0438571
0.0438705
0.043891
0.0439131
0.0439494
0.0439848
0.0439879
0.0439811
0.0439643
0.0439408
0.0439001
0.0438159
0.043752
0.0437044
0.0436427
0.0436341
0.0436473
0.0436576
0.0436862
0.0437374
0.043781
0.0438093
0.0438188
0.0438127
0.0437787
0.043769
0.0437798
0.0438245
0.0439097
0.0439937
0.0440296
0.0440305
0.0440092
0.0439889
0.0440012
0.0440742
0.0442246
0.0445008
0.0449403
0.045391
0.0458911
0.0467707
0.0487236
0.0526489
0.0586859
0.0652615
0.0688322
0.0693095
0.0693096
0.0691818
0.0690274
0.0689139
0.0684894
0.0681324
0.0680732
0.0681629
0.0685029
0.069215
0.0703027
0.0714585
0.0721062
0.0725569
0.0731159
0.0740073
0.0750014
0.0757734
0.0764676
0.0773042
0.0785351
0.0805667
0.0825566
0.0828939
0.0830664
0.083994
0.0849573
0.129086
0.311099
0.638596
0.856051
0.97451
0.986789
0.990741
1.00185
1.00166
0.995263
1.00042
1.00522
1.00622
1.00699
0.994807
0.973018
0.94813
0.915538
0.909421
0.914154
0.932547
0.950864
0.940178
0.922112
0.889976
0.0438918
0.0439845
0.0440472
0.0440498
0.0440442
0.0440336
0.0440237
0.0440139
0.0440012
0.0439762
0.0439091
0.0438431
0.0437859
0.0437412
0.0437392
0.0437765
0.0438556
0.0438648
0.0438483
0.0438112
0.0438054
0.0438134
0.043815
0.0438017
0.0437277
0.0436568
0.0436542
0.0436723
0.0437382
0.0438672
0.0439873
0.0439992
0.0439704
0.0439583
0.0439777
0.0440832
0.0442923
0.0445654
0.0449558
0.0454137
0.0459112
0.0466165
0.048122
0.051541
0.0572524
0.0641545
0.0686097
0.0691538
0.069155
0.069059
0.0689315
0.068788
0.068231
0.0676492
0.0674958
0.0674678
0.0676284
0.0682468
0.0692189
0.0701729
0.0709674
0.0717327
0.0724392
0.073276
0.0742068
0.0750863
0.0760416
0.0771869
0.0789058
0.0807092
0.0828966
0.0834286
0.0832627
0.0838701
0.0855065
0.0868985
0.0876959
0.139994
0.43901
0.853098
0.96003
0.993762
1.00954
1.00316
0.993604
0.999763
1.00857
1.00942
1.00922
0.999269
0.977585
0.953915
0.923253
0.916075
0.922038
0.9384
0.958604
0.947837
0.927376
0.892583
0.0440907
0.0440956
0.0440951
0.0440941
0.0440884
0.0440816
0.0440803
0.044076
0.0440583
0.0440069
0.0439401
0.0439057
0.043897
0.0439001
0.0439405
0.0440521
0.0440739
0.0440533
0.0439823
0.0438822
0.0438205
0.0437899
0.0437561
0.0436942
0.0435704
0.0434426
0.0434301
0.0434447
0.043509
0.0436461
0.0438221
0.0438764
0.0438851
0.0439053
0.0439633
0.0441115
0.0443553
0.0446257
0.0449643
0.0454149
0.0459059
0.04648
0.0476254
0.0505162
0.0558252
0.0623786
0.0676725
0.0689262
0.0689379
0.0689265
0.0688885
0.0687239
0.0680672
0.067238
0.0670623
0.0670476
0.0671889
0.0677707
0.0686816
0.0695202
0.0703483
0.0712845
0.0721357
0.0729066
0.0737878
0.0747256
0.0758709
0.0775768
0.0795593
0.0808835
0.0828319
0.0845233
0.0846269
0.0847582
0.0858447
0.0873018
0.0882652
0.0894199
0.0935187
0.258249
0.663475
0.927443
1.01119
1.00087
0.990029
1.00149
1.01499
1.01468
1.01173
1.00345
0.98418
0.958614
0.931841
0.92391
0.93006
0.944613
0.965233
0.95637
0.932096
0.895055
0.0441166
0.0441224
0.0441283
0.0441277
0.0441207
0.0441129
0.0441072
0.0440871
0.044026
0.0439985
0.0439869
0.0439735
0.0439753
0.0440125
0.044157
0.0442464
0.0442456
0.0441994
0.0440808
0.0439404
0.0438489
0.0437786
0.0436613
0.0435581
0.0434699
0.0433591
0.0433035
0.0433056
0.0433567
0.0434764
0.0436499
0.0437846
0.0438428
0.0438866
0.043968
0.0441256
0.0443697
0.0446388
0.0448978
0.0452948
0.0457954
0.046326
0.047218
0.0495582
0.0544086
0.0604599
0.0659178
0.0685349
0.0687209
0.0687168
0.0687178
0.0686155
0.0680165
0.0671381
0.0669483
0.0669453
0.0670708
0.0676551
0.0684905
0.0692631
0.0701824
0.0711889
0.0720705
0.0727737
0.0736119
0.0745923
0.0761823
0.0788985
0.0813388
0.081865
0.0826336
0.0843814
0.0860646
0.0868067
0.0874956
0.089783
0.0917488
0.091773
0.0929291
0.094488
0.168405
0.519381
0.90071
0.982772
0.99047
1.00948
1.02183
1.01934
1.0146
1.007
0.990256
0.964092
0.938127
0.933456
0.938441
0.951627
0.969895
0.964505
0.937435
0.898278
0.0441013
0.0441047
0.0440985
0.0440669
0.0440019
0.0439631
0.0439585
0.0439613
0.0439639
0.0439579
0.0439031
0.0438738
0.043898
0.0440521
0.044276
0.0443208
0.0443154
0.0442619
0.0441286
0.0439826
0.0438825
0.043785
0.0436168
0.0435045
0.0434435
0.0433665
0.0433071
0.0432904
0.04333
0.0434521
0.0436081
0.0437791
0.0439076
0.043977
0.0440351
0.0441439
0.0443278
0.0445494
0.0447671
0.0451193
0.0456445
0.0461688
0.046901
0.0487782
0.0530865
0.0588716
0.0641288
0.0677222
0.0685194
0.0685718
0.0685904
0.0685178
0.0679473
0.0671597
0.067105
0.0672115
0.0673754
0.0677617
0.0684245
0.0692124
0.0703591
0.0715842
0.072505
0.0731246
0.0741798
0.0761425
0.0785952
0.0806525
0.0830412
0.0842946
0.0838973
0.0844691
0.0872042
0.0899895
0.0912613
0.0929311
0.0958795
0.0972968
0.0978199
0.0998679
0.100817
0.117887
0.35718
0.809258
0.970589
1.02211
1.03019
1.02427
1.01774
1.0112
0.995575
0.971368
0.943448
0.94173
0.946919
0.957829
0.973619
0.970315
0.943464
0.901597
0.0437948
0.0438048
0.043825
0.0438419
0.043835
0.0437759
0.0437025
0.0436924
0.0437097
0.0437268
0.0437168
0.0437242
0.043805
0.0440806
0.044277
0.0442888
0.0442805
0.0442371
0.0441389
0.0440143
0.0439066
0.0437815
0.0436169
0.0434917
0.0434823
0.0435022
0.0435579
0.0435591
0.0435775
0.0436544
0.0437328
0.0438227
0.0439256
0.0439959
0.0440425
0.0441061
0.0442247
0.0444103
0.0446367
0.0449907
0.0455392
0.0460841
0.0467346
0.0482525
0.0519317
0.0574569
0.0627143
0.0665933
0.068292
0.0685625
0.0685938
0.0685494
0.0680459
0.0677927
0.0677902
0.0680225
0.0686742
0.0693148
0.0699798
0.0716863
0.0733913
0.074069
0.074815
0.0758163
0.0773622
0.0796597
0.0813565
0.0820937
0.0837523
0.0863163
0.0877223
0.0886763
0.0905689
0.0938117
0.0960411
0.0972792
0.099347
0.1019
0.103561
0.105094
0.106724
0.107151
0.108263
0.265615
0.716007
0.960815
1.02826
1.03498
1.02397
1.01381
0.998667
0.978589
0.952066
0.948113
0.953921
0.964107
0.977047
0.973193
0.948652
0.9051
0.0433395
0.0433153
0.0433178
0.0433764
0.0434692
0.0434816
0.0434623
0.0434517
0.0434587
0.0434888
0.0435384
0.0436182
0.0437759
0.044049
0.0442506
0.0442743
0.0442654
0.044241
0.0442107
0.0441601
0.0440324
0.0438405
0.0438144
0.0438247
0.0438561
0.0439584
0.044064
0.044051
0.0439815
0.0438766
0.0438375
0.043862
0.0439193
0.0439464
0.0439821
0.0440562
0.0441894
0.044378
0.0446042
0.0449455
0.0454914
0.0460535
0.0466844
0.0479623
0.0511316
0.0562649
0.0616725
0.0658391
0.0678888
0.06867
0.0689099
0.0692115
0.0698839
0.0700724
0.0700165
0.0702245
0.0711488
0.0727011
0.0746497
0.0760238
0.0768582
0.077254
0.0776675
0.0785541
0.07997
0.0819831
0.0834795
0.0844897
0.085352
0.087576
0.0909782
0.0940187
0.0961668
0.0981303
0.0995583
0.100453
0.101917
0.104691
0.106677
0.10815
0.110002
0.110946
0.112009
0.113418
0.198698
0.591549
0.923224
1.0341
1.03578
1.02083
1.00238
0.983109
0.96038
0.954848
0.962754
0.968986
0.97907
0.975363
0.954298
0.90936
0.0431236
0.0431262
0.0431233
0.0431456
0.0432629
0.0433251
0.0433405
0.0433572
0.0433839
0.0434398
0.0435859
0.0437958
0.043982
0.0442084
0.0443727
0.0443728
0.0443505
0.0443648
0.0444316
0.044514
0.0445404
0.0445241
0.0444669
0.0444461
0.0444996
0.0445339
0.0444918
0.0443662
0.0441508
0.0439082
0.04383
0.0438321
0.0438351
0.0438397
0.0438725
0.0439744
0.0441709
0.0444273
0.0446916
0.0450095
0.0454914
0.0460431
0.0466753
0.0478988
0.0507113
0.05535
0.0608804
0.0655276
0.0678275
0.068772
0.0699751
0.0713574
0.0726089
0.0737119
0.0740935
0.0744721
0.0750133
0.0761876
0.0780115
0.0786238
0.0789535
0.0794594
0.0804689
0.0820904
0.0839285
0.0855978
0.0879954
0.0899074
0.0906964
0.0916933
0.0942221
0.097538
0.0997328
0.101292
0.102344
0.103018
0.103938
0.106317
0.108595
0.110064
0.112215
0.113943
0.116067
0.119374
0.120896
0.156724
0.47282
0.889374
1.02227
1.03035
1.01454
0.991263
0.968894
0.960595
0.971061
0.977295
0.98043
0.975088
0.957869
0.912782
0.0434444
0.0434907
0.0435497
0.0436355
0.0436809
0.0436659
0.0436659
0.0437042
0.0437809
0.0438982
0.0440692
0.0442144
0.0442716
0.0443385
0.0444663
0.0445019
0.0444901
0.0445041
0.0445749
0.0447737
0.0449816
0.0450017
0.0449469
0.0449338
0.0449404
0.0448814
0.0447082
0.0444599
0.0441272
0.0438282
0.0437787
0.0437883
0.0437941
0.0438005
0.0438376
0.0439395
0.0441672
0.0444975
0.0448491
0.0452459
0.0458375
0.0465539
0.0472463
0.0482589
0.0506214
0.0550143
0.0604914
0.0653647
0.0690746
0.0718554
0.0740456
0.0753358
0.0761684
0.0774007
0.0784448
0.0791776
0.0797459
0.0803338
0.0812516
0.0821349
0.0830006
0.0844089
0.0863433
0.088673
0.0910331
0.0922292
0.0929429
0.0941003
0.095886
0.0980582
0.100487
0.102358
0.103107
0.104073
0.106091
0.107911
0.108071
0.108858
0.111148
0.112776
0.114957
0.118788
0.1217
0.123786
0.127119
0.128143
0.136065
0.370094
0.839146
0.999792
1.0116
0.992296
0.975763
0.972076
0.97771
0.985192
0.985823
0.978467
0.960617
0.916728
0.0443689
0.0443425
0.0443064
0.0442209
0.0440595
0.0439043
0.0438693
0.043904
0.043998
0.0441376
0.0442491
0.0443116
0.0443369
0.0443622
0.0444444
0.0444964
0.0444691
0.0444758
0.0445459
0.044763
0.0450839
0.0451512
0.0451648
0.0452058
0.0452026
0.0451229
0.0449103
0.0447099
0.0444975
0.0443015
0.0442822
0.044301
0.0443788
0.0445136
0.0446966
0.0449419
0.045391
0.0459329
0.0464088
0.0469575
0.0477865
0.0488203
0.0498464
0.0508655
0.0523886
0.0555417
0.0615112
0.0689624
0.0742001
0.0768724
0.078606
0.0799794
0.0807993
0.081469
0.0824548
0.0834068
0.0840021
0.0844422
0.0853043
0.0870444
0.0893776
0.0916096
0.0933042
0.0944868
0.0956444
0.0962397
0.0968702
0.0985564
0.101552
0.104469
0.107297
0.108681
0.108794
0.109317
0.111253
0.114512
0.116079
0.116865
0.118444
0.120914
0.123166
0.126077
0.127738
0.128277
0.13022
0.133296
0.13483
0.137106
0.309642
0.78416
0.979003
0.985485
0.980135
0.982818
0.986701
0.990932
0.986889
0.978765
0.962265
0.921545
0.0452161
0.0450504
0.0446494
0.0440754
0.0437996
0.0437035
0.0436925
0.0437259
0.0438156
0.0439606
0.0439929
0.043999
0.0440329
0.0441019
0.0442773
0.0443945
0.0444021
0.0444531
0.0446167
0.0449549
0.0452658
0.045543
0.0458079
0.0460316
0.0462572
0.0466058
0.0470735
0.0474209
0.0476309
0.047717
0.0477583
0.0478364
0.0480322
0.0483686
0.048774
0.0491478
0.0494474
0.0496871
0.0499573
0.0503447
0.0509282
0.0517655
0.0527266
0.0538159
0.055456
0.0588828
0.0652612
0.072848
0.0780968
0.0810846
0.083109
0.0848209
0.0862404
0.0867461
0.086811
0.0869418
0.08736
0.0882129
0.0897561
0.0921126
0.0944891
0.0963239
0.0977271
0.0984019
0.0991751
0.100787
0.103172
0.105878
0.108165
0.109682
0.111279
0.11314
0.11482
0.116285
0.117915
0.120567
0.123361
0.125043
0.126766
0.128705
0.130079
0.131809
0.133306
0.133804
0.134611
0.137104
0.139998
0.142295
0.144031
0.273714
0.743376
0.944249
1.00054
0.989677
0.990432
0.995676
0.993685
0.984676
0.967189
0.924922
0.046266
0.0462256
0.0460604
0.0457114
0.045661
0.0456466
0.0456402
0.0457582
0.0460412
0.0462821
0.0465003
0.046568
0.0466179
0.0467293
0.0469118
0.0471146
0.0472566
0.0474105
0.0476579
0.0479872
0.0483921
0.0488965
0.0493874
0.0497689
0.050145
0.050649
0.0512639
0.051702
0.0518878
0.0519579
0.0519981
0.0520651
0.052183
0.0523356
0.0525807
0.0529722
0.0530897
0.053219
0.0535063
0.053982
0.0545401
0.0551578
0.0559414
0.0570879
0.058996
0.0626453
0.0686667
0.0760647
0.0828276
0.0866488
0.0884189
0.0899536
0.0920404
0.0935888
0.0938672
0.0941557
0.0948451
0.0962309
0.0981725
0.100037
0.101263
0.101975
0.102732
0.103858
0.10557
0.107688
0.110099
0.112216
0.113456
0.114
0.114862
0.117111
0.120449
0.123546
0.124999
0.126134
0.128184
0.129972
0.131595
0.133307
0.134219
0.135276
0.137244
0.138643
0.139973
0.142407
0.145191
0.147991
0.150531
0.151961
0.260078
0.705833
0.964144
1.00451
0.997008
0.99272
0.992818
0.988547
0.974317
0.930896
0.0507823
0.0509608
0.0511062
0.0511535
0.0511875
0.0512641
0.0512982
0.0513318
0.0514775
0.051715
0.0517329
0.0515024
0.0509885
0.050911
0.050933
0.0510407
0.0512914
0.0514858
0.0516375
0.0517846
0.0520392
0.0523364
0.0525438
0.0527288
0.0530571
0.0535356
0.0540392
0.0545049
0.0549214
0.0553044
0.0557432
0.0561928
0.0562625
0.0562239
0.0562868
0.056704
0.0573994
0.0580814
0.0587996
0.0595985
0.0604023
0.0613263
0.0624561
0.0637261
0.0652252
0.0676876
0.0724033
0.0792589
0.0865548
0.0910688
0.0938012
0.0963107
0.0987785
0.100966
0.102669
0.103804
0.104799
0.105857
0.106842
0.108046
0.109032
0.109284
0.109762
0.110921
0.112715
0.11454
0.116257
0.117738
0.118908
0.120051
0.12173
0.124231
0.127046
0.130054
0.131759
0.131954
0.132419
0.13363
0.135237
0.137348
0.138468
0.139074
0.140783
0.143498
0.146334
0.148915
0.151923
0.153651
0.156496
0.1588
0.159983
0.262014
0.693811
0.953311
1.00823
0.998618
0.993911
0.987029
0.974441
0.934294
0.0549306
0.0550993
0.0552937
0.0554891
0.0556798
0.0558582
0.0560047
0.0561234
0.056319
0.0566389
0.0567462
0.056653
0.0562958
0.0561719
0.0561953
0.0562832
0.0565407
0.0569157
0.0571687
0.0573074
0.0574987
0.0578765
0.0583268
0.0586769
0.0590495
0.0595183
0.0600056
0.0604903
0.061068
0.0618057
0.0625505
0.0629815
0.0630022
0.0629742
0.0630446
0.0634018
0.0639622
0.06467
0.0654171
0.0660512
0.0665834
0.0671501
0.0679546
0.0687958
0.0696985
0.0711116
0.0741954
0.0802304
0.0884307
0.0960971
0.101482
0.105442
0.107386
0.108326
0.109081
0.10951
0.109874
0.110365
0.110957
0.112029
0.113433
0.114892
0.116392
0.118093
0.120033
0.121991
0.123351
0.124683
0.126269
0.128034
0.130048
0.132335
0.133998
0.135776
0.137956
0.138157
0.138168
0.138831
0.140386
0.143052
0.145512
0.146656
0.147944
0.150483
0.153308
0.156135
0.158584
0.161091
0.162624
0.165142
0.166907
0.167791
0.248559
0.619723
0.931535
0.986973
1.01249
1.00144
0.984205
0.937215
0.0616945
0.0618703
0.0620328
0.062158
0.0622698
0.0623911
0.0625247
0.0626983
0.0628909
0.0630385
0.0631568
0.0633624
0.0636291
0.0637862
0.0639271
0.0642112
0.0643834
0.064376
0.0642691
0.0641717
0.0641668
0.0642519
0.0644853
0.0647996
0.0651343
0.0654282
0.0656518
0.0659474
0.0663665
0.0668774
0.0673954
0.0679029
0.0681968
0.0682664
0.0683365
0.0685594
0.068766
0.0690578
0.0694965
0.0700063
0.0706693
0.0713496
0.0720787
0.0728983
0.0738987
0.0754609
0.078756
0.0857524
0.0953129
0.104335
0.110419
0.112715
0.11337
0.114042
0.114355
0.114339
0.11448
0.115013
0.116108
0.117684
0.120026
0.122647
0.125089
0.126783
0.128101
0.129557
0.130762
0.131874
0.133387
0.13553
0.137922
0.139915
0.141077
0.142321
0.144164
0.145937
0.14727
0.148723
0.150161
0.151672
0.153629
0.155131
0.156427
0.158607
0.16117
0.163143
0.165259
0.167385
0.16941
0.170961
0.173091
0.174871
0.175764
0.220431
0.506224
0.857479
0.97661
1.00942
1.00626
0.958647
0.0672301
0.067495
0.0677425
0.0679697
0.0680542
0.068061
0.0680929
0.0682521
0.0685501
0.0687474
0.0688836
0.0690336
0.0692304
0.0694467
0.0696764
0.0698918
0.070032
0.070147
0.0702438
0.0702443
0.0701637
0.0701288
0.0701621
0.070278
0.0706278
0.0710125
0.0712361
0.0714465
0.0717857
0.0723408
0.0729756
0.0735542
0.0742966
0.0748624
0.0749259
0.0749864
0.0753164
0.0757867
0.0762596
0.0769188
0.0778398
0.0790051
0.0802854
0.0815092
0.0826637
0.0840048
0.0863355
0.0911095
0.0985921
0.108326
0.11566
0.117048
0.118173
0.120088
0.122504
0.124692
0.126496
0.128047
0.129527
0.131289
0.133101
0.13393
0.134619
0.135169
0.135581
0.136286
0.137756
0.139611
0.14162
0.143929
0.146184
0.147755
0.149042
0.150527
0.152427
0.154766
0.157047
0.159287
0.160401
0.160547
0.161235
0.162715
0.16472
0.166901
0.168856
0.170176
0.171516
0.173255
0.175158
0.177763
0.179853
0.181807
0.184287
0.185488
0.198722
0.38514
0.725162
0.95109
0.982729
0.953699
0.0743584
0.0745103
0.0746609
0.0746848
0.0746922
0.0747766
0.0750121
0.0753316
0.0756144
0.07583
0.0760232
0.076289
0.0766767
0.0769475
0.0771446
0.0773784
0.0776216
0.0779154
0.0783215
0.0785508
0.0785952
0.0786345
0.0786783
0.0786613
0.0786512
0.0788185
0.0792811
0.079669
0.0799467
0.0801093
0.0804237
0.0810095
0.08178
0.0826554
0.082988
0.0831051
0.0833719
0.0836768
0.0838451
0.0840643
0.0845085
0.085284
0.086268
0.0872734
0.0881621
0.0890039
0.0901195
0.092623
0.0991459
0.109934
0.120144
0.126918
0.131149
0.133543
0.134646
0.135703
0.13684
0.138041
0.138936
0.139823
0.141062
0.141352
0.141597
0.142466
0.143676
0.145415
0.147619
0.150325
0.152742
0.153843
0.154844
0.156121
0.157679
0.159416
0.161415
0.16337
0.164897
0.166463
0.167616
0.167846
0.16838
0.16995
0.171817
0.173915
0.175382
0.177109
0.178708
0.180108
0.182173
0.185027
0.188477
0.190485
0.192096
0.194269
0.19614
0.198715
0.274787
0.533592
0.808914
0.910964
0.082128
0.0823293
0.0824745
0.082538
0.082591
0.0826572
0.0827625
0.0829075
0.0830748
0.0832349
0.0833789
0.0835458
0.0837257
0.0839265
0.0841475
0.0843965
0.0847403
0.0851268
0.0854723
0.0857165
0.0858999
0.0861187
0.0863221
0.0863382
0.0863799
0.0866159
0.0868879
0.0868819
0.086829
0.0868725
0.0871922
0.0877559
0.0883479
0.0888845
0.089537
0.0903536
0.0906232
0.0905198
0.0904883
0.0907454
0.0914426
0.0922394
0.0931289
0.0942263
0.0954591
0.096962
0.0989875
0.102295
0.10873
0.119228
0.131051
0.140295
0.143507
0.14345
0.142957
0.14297
0.143464
0.144279
0.144942
0.145644
0.146782
0.148692
0.151098
0.15345
0.155994
0.158581
0.16036
0.161917
0.163068
0.163174
0.163546
0.164693
0.166701
0.16872
0.170402
0.17195
0.172593
0.172903
0.173685
0.174836
0.176371
0.17814
0.179856
0.181172
0.183392
0.185315
0.187712
0.190467
0.192408
0.19425
0.196641
0.199538
0.200785
0.20203
0.204032
0.20829
0.211211
0.225513
0.31872
0.593582
0.0911845
0.091088
0.0911054
0.0912198
0.0914681
0.091712