/*--------------------------------*- C++ -*----------------------------------*\
  =========                 |
  \\      /  F ield         | OpenFOAM: The Open Source CFD Toolbox
   \\    /   O peration     | Website:  https://openfoam.org
    \\  /    A nd           | Version:  7
     \\/     M anipulation  |
\*---------------------------------------------------------------------------*/
FoamFile
{
    version     2.0;
    format      ascii;
    class       volVectorField;
    location    "0.5";
    object      U;
}
// * * * * * * * * * * * * * * * * * * * * * * * * * * * * * * * * * * * * * //

dimensions      [0 1 -1 0 0 0 0];

internalField   nonuniform List<vector> 
90000
(
(2.98446 -0.231745 0)
(2.97874 -0.217057 0)
(2.97051 -0.196846 0)
(2.96483 -0.185632 0)
(2.95897 -0.175348 0)
(2.95267 -0.161873 0)
(2.94832 -0.149567 0)
(2.94559 -0.143369 0)
(2.94192 -0.132578 0)
(2.93955 -0.12533 0)
(2.93688 -0.114229 0)
(2.93547 -0.109014 0)
(2.93265 -0.097577 0)
(2.93127 -0.092627 0)
(2.9285 -0.0818654 0)
(2.92699 -0.0767918 0)
(2.92439 -0.0677186 0)
(2.92218 -0.0603502 0)
(2.92075 -0.0553432 0)
(2.91728 -0.0443693 0)
(2.91694 -0.0419877 0)
(2.91269 -0.0314491 0)
(2.91153 -0.026994 0)
(2.90884 -0.0200109 0)
(2.90775 -0.014644 0)
(2.90416 -0.00736493 0)
(2.90394 -0.00499778 0)
(2.90239 -0.00135205 0)
(2.90173 0.00146716 0)
(2.90043 0.0032865 0)
(2.89973 0.00576589 0)
(2.89799 0.00708427 0)
(2.89655 0.00840384 0)
(2.89727 0.00571732 0)
(2.8967 0.00354846 0)
(2.89485 0.00139166 0)
(2.89252 -0.0025219 0)
(2.8914 -0.00505599 0)
(2.88973 -0.00595004 0)
(2.88832 -0.00614268 0)
(2.88707 -0.00585658 0)
(2.88683 -0.00589812 0)
(2.88648 -0.00428336 0)
(2.88695 -0.00335597 0)
(2.88789 -0.00206249 0)
(2.88869 -0.000760919 0)
(2.88912 -7.49057e-05 0)
(2.88962 0.000567248 0)
(2.88933 0.000211888 0)
(2.88891 -0.000369764 0)
(2.88821 -0.000926084 0)
(2.88725 -0.00147743 0)
(2.88661 -0.00118201 0)
(2.88699 -0.00100646 0)
(2.88717 0.000545789 0)
(2.88742 0.00091656 0)
(2.88779 0.0011498 0)
(2.888 0.000681926 0)
(2.88777 -6.92203e-05 0)
(2.88737 -0.000228158 0)
(2.88692 -0.000106478 0)
(2.88699 0.000773651 0)
(2.8871 0.00133287 0)
(2.88728 0.0016227 0)
(2.88765 0.00111323 0)
(2.88748 0.000430346 0)
(2.88732 0.000165321 0)
(2.88708 0.000236423 0)
(2.88746 0.000895122 0)
(2.88777 0.00119911 0)
(2.88878 0.00121434 0)
(2.89147 0.000498286 0)
(2.8965 -0.00059861 0)
(2.90391 -0.000838209 0)
(2.91272 -0.000712781 0)
(2.92042 -0.00146352 0)
(2.92529 -0.00275829 0)
(2.93024 -0.00410937 0)
(2.93312 -0.0057108 0)
(2.93533 -0.00850409 0)
(2.93958 -0.0110287 0)
(2.94424 -0.0124406 0)
(2.94851 -0.0114217 0)
(2.95371 -0.00870192 0)
(2.9597 -0.00584719 0)
(2.96561 -0.00374005 0)
(2.97146 -0.00214748 0)
(2.97788 -0.00108779 0)
(2.98526 -0.000447831 0)
(2.99284 -0.000123265 0)
(2.99808 -1.92275e-05 0)
(2.9998 -1.95893e-06 0)
(2.99999 -6.55435e-08 0)
(3 -6.41517e-10 0)
(3 -3.10244e-12 0)
(3 -1.3891e-14 0)
(3 -4.62473e-16 0)
(3 -8.24297e-16 0)
(3 -5.9054e-16 0)
(3 7.69215e-17 0)
(2.98807 -0.245948 0)
(2.98754 -0.245072 0)
(2.98654 -0.243243 0)
(2.9852 -0.240479 0)
(2.98355 -0.23725 0)
(2.9812 -0.23324 0)
(2.97804 -0.227336 0)
(2.97498 -0.222638 0)
(2.97093 -0.215866 0)
(2.96689 -0.209595 0)
(2.96212 -0.200463 0)
(2.95808 -0.193166 0)
(2.95302 -0.182293 0)
(2.9489 -0.172978 0)
(2.94397 -0.160457 0)
(2.94006 -0.14957 0)
(2.93539 -0.135774 0)
(2.93164 -0.123442 0)
(2.92769 -0.109649 0)
(2.92347 -0.0945701 0)
(2.92171 -0.0846484 0)
(2.91611 -0.0641773 0)
(2.91654 -0.0593785 0)
(2.91042 -0.0385792 0)
(2.91044 -0.0332594 0)
(2.90552 -0.0176235 0)
(2.9051 -0.01204 0)
(2.90092 0.000954164 0)
(2.90073 0.00421325 0)
(2.89751 0.0124953 0)
(2.89603 0.0151563 0)
(2.89533 0.0192006 0)
(2.89438 0.0181284 0)
(2.8932 0.0153408 0)
(2.89357 0.0118241 0)
(2.89431 0.00873122 0)
(2.89695 0.00573941 0)
(2.89783 0.0026583 0)
(2.89812 0.0015903 0)
(2.89879 0.000717777 0)
(2.89933 -0.000357512 0)
(2.89919 -0.00044244 0)
(2.89909 0.000246742 0)
(2.89889 0.00180503 0)
(2.89825 0.00283639 0)
(2.89751 0.00455178 0)
(2.89727 0.00464816 0)
(2.89718 0.00393663 0)
(2.89682 0.00199123 0)
(2.89703 0.000400914 0)
(2.89657 -0.00196689 0)
(2.89631 -0.00211756 0)
(2.89633 -0.00148639 0)
(2.89622 -0.000600426 0)
(2.89595 0.000695562 0)
(2.89561 0.00220119 0)
(2.89556 0.00254552 0)
(2.89517 0.00154164 0)
(2.89552 8.96206e-05 0)
(2.89549 -0.00109548 0)
(2.89547 -0.00121384 0)
(2.8957 -0.00059182 0)
(2.89535 0.000471518 0)
(2.89543 0.00105373 0)
(2.89539 0.000709712 0)
(2.89549 3.56425e-05 0)
(2.89541 -0.000464388 0)
(2.89531 -0.000299855 0)
(2.89546 7.09845e-05 0)
(2.89571 0.000528472 0)
(2.89655 0.000659219 0)
(2.89905 -4.58306e-05 0)
(2.90393 -0.00119203 0)
(2.91134 -0.00087783 0)
(2.92013 -0.000736973 0)
(2.92687 -0.00114001 0)
(2.93232 -0.00324692 0)
(2.93786 -0.00440042 0)
(2.941 -0.00572376 0)
(2.94301 -0.00853582 0)
(2.94633 -0.0113099 0)
(2.94965 -0.0128951 0)
(2.95208 -0.0120581 0)
(2.95556 -0.009587 0)
(2.96018 -0.00701004 0)
(2.96543 -0.004593 0)
(2.97115 -0.00283834 0)
(2.97762 -0.00160526 0)
(2.98514 -0.000791426 0)
(2.99281 -0.000300087 0)
(2.99808 -7.68923e-05 0)
(2.9998 -7.33021e-06 0)
(2.99999 -2.04642e-07 0)
(3 -1.86725e-09 0)
(3 -9.15731e-12 0)
(3 -4.1348e-14 0)
(3 -7.89757e-16 0)
(3 -4.06755e-16 0)
(3 -3.99421e-16 0)
(3 -2.36887e-16 0)
(2.98547 -0.245944 0)
(2.98539 -0.245936 0)
(2.98529 -0.245924 0)
(2.98516 -0.245899 0)
(2.98501 -0.245838 0)
(2.98481 -0.245723 0)
(2.98456 -0.245506 0)
(2.98425 -0.245133 0)
(2.98385 -0.244636 0)
(2.98329 -0.243778 0)
(2.98261 -0.242748 0)
(2.98172 -0.241134 0)
(2.98065 -0.239255 0)
(2.97929 -0.236523 0)
(2.97767 -0.233207 0)
(2.97576 -0.229037 0)
(2.97344 -0.223744 0)
(2.97081 -0.217387 0)
(2.96789 -0.21016 0)
(2.96427 -0.200309 0)
(2.96108 -0.191727 0)
(2.95633 -0.177664 0)
(2.95312 -0.167884 0)
(2.94742 -0.149904 0)
(2.94454 -0.140203 0)
(2.93804 -0.118534 0)
(2.93544 -0.109667 0)
(2.92924 -0.0884396 0)
(2.92679 -0.0800356 0)
(2.92144 -0.0602661 0)
(2.92054 -0.0568249 0)
(2.91617 -0.0393355 0)
(2.91686 -0.0376562 0)
(2.91145 -0.0268183 0)
(2.90905 -0.0192356 0)
(2.90702 -0.0132428 0)
(2.9062 -0.00834807 0)
(2.90571 -0.00474267 0)
(2.90437 -0.00294804 0)
(2.9042 -0.000752364 0)
(2.90415 0.00222452 0)
(2.90262 0.00389121 0)
(2.90191 0.00644134 0)
(2.90208 0.00515836 0)
(2.90166 0.00397418 0)
(2.90138 0.00226118 0)
(2.90055 -0.000381892 0)
(2.90058 -0.00140831 0)
(2.89971 -0.00337218 0)
(2.89984 -0.00362985 0)
(2.90024 -0.00350033 0)
(2.90067 -0.00247552 0)
(2.90133 -0.0021625 0)
(2.90124 -0.000370411 0)
(2.90095 0.00021444 0)
(2.90032 0.000536506 0)
(2.89951 1.69214e-06 0)
(2.89873 -0.000105434 0)
(2.89876 -1.74781e-05 0)
(2.89904 0.000116082 0)
(2.8994 -0.000111885 0)
(2.8998 0.000351001 0)
(2.89972 0.000447533 0)
(2.89952 0.000418596 0)
(2.89912 0.000348022 0)
(2.89911 0.000247974 0)
(2.89918 0.000277222 0)
(2.89932 0.000521066 0)
(2.8993 0.00071282 0)
(2.89954 0.000750524 0)
(2.90026 0.000797971 0)
(2.90245 0.000433965 0)
(2.90711 -0.000578229 0)
(2.91459 -0.00112638 0)
(2.92368 -0.00165847 0)
(2.92964 -0.00351734 0)
(2.93559 -0.00484614 0)
(2.94108 -0.00504234 0)
(2.94471 -0.00596635 0)
(2.94729 -0.00858511 0)
(2.95016 -0.0115694 0)
(2.95303 -0.0130403 0)
(2.95469 -0.0124406 0)
(2.95717 -0.0102986 0)
(2.96111 -0.00770062 0)
(2.966 -0.00532527 0)
(2.97156 -0.00347837 0)
(2.9779 -0.00216033 0)
(2.98529 -0.00119153 0)
(2.99289 -0.000513522 0)
(2.99811 -0.000127744 0)
(2.99981 -1.23053e-05 0)
(2.99999 -3.49547e-07 0)
(3 -3.19965e-09 0)
(3 -1.57043e-11 0)
(3 -5.94642e-14 0)
(3 -1.05794e-15 0)
(3 3.04748e-16 0)
(3 3.40686e-16 0)
(3 1.20885e-16 0)
(2.98214 -0.245748 0)
(2.9821 -0.245747 0)
(2.98204 -0.245744 0)
(2.98198 -0.245743 0)
(2.9819 -0.245726 0)
(2.98183 -0.24571 0)
(2.98174 -0.245693 0)
(2.98165 -0.245668 0)
(2.98157 -0.245643 0)
(2.98147 -0.245619 0)
(2.98137 -0.245578 0)
(2.98126 -0.245532 0)
(2.98113 -0.245463 0)
(2.98098 -0.245371 0)
(2.9808 -0.245223 0)
(2.9806 -0.244975 0)
(2.98035 -0.244626 0)
(2.98002 -0.244035 0)
(2.9796 -0.243232 0)
(2.97901 -0.241959 0)
(2.97824 -0.24019 0)
(2.97716 -0.23761 0)
(2.97581 -0.234121 0)
(2.97388 -0.229028 0)
(2.97175 -0.223063 0)
(2.96846 -0.21355 0)
(2.96555 -0.204713 0)
(2.96031 -0.188402 0)
(2.95699 -0.177395 0)
(2.94946 -0.152871 0)
(2.94648 -0.140496 0)
(2.93706 -0.109563 0)
(2.93554 -0.0975838 0)
(2.92587 -0.064058 0)
(2.92548 -0.0564648 0)
(2.91646 -0.0282947 0)
(2.91565 -0.0235257 0)
(2.90895 -0.00465649 0)
(2.90791 -0.00223906 0)
(2.90511 0.00442269 0)
(2.90178 0.0106203 0)
(2.9013 0.0113559 0)
(2.90024 0.00917754 0)
(2.90051 0.00601067 0)
(2.89978 0.0014163 0)
(2.90053 0.000749043 0)
(2.89984 -0.00105759 0)
(2.90001 -0.000968192 0)
(2.90017 -0.000817198 0)
(2.90055 0.000349353 0)
(2.90099 0.00200196 0)
(2.90103 0.00277528 0)
(2.90127 0.00276261 0)
(2.90092 0.000954844 0)
(2.90086 -0.000291735 0)
(2.90036 -0.00149945 0)
(2.90004 -0.00209914 0)
(2.8997 -0.00141752 0)
(2.89955 -0.000270892 0)
(2.89991 0.00115584 0)
(2.89958 0.00205486 0)
(2.90013 0.00136331 0)
(2.90021 0.00056998 0)
(2.90033 -0.000496097 0)
(2.89992 -0.000365286 0)
(2.90004 0.000357912 0)
(2.90007 0.000842292 0)
(2.90005 0.00109861 0)
(2.90005 0.000533873 0)
(2.90017 -0.000262524 0)
(2.90079 -0.000588029 0)
(2.90288 -0.000980601 0)
(2.90744 -0.00140446 0)
(2.9149 -0.0016318 0)
(2.92378 -0.00214621 0)
(2.93025 -0.00339818 0)
(2.93578 -0.00608767 0)
(2.94143 -0.0063347 0)
(2.94548 -0.00722716 0)
(2.94869 -0.00974946 0)
(2.95146 -0.0127543 0)
(2.95428 -0.0139424 0)
(2.95612 -0.0132048 0)
(2.95836 -0.0110462 0)
(2.96195 -0.00846486 0)
(2.96652 -0.00631511 0)
(2.97183 -0.00442951 0)
(2.97812 -0.00285962 0)
(2.98549 -0.0015915 0)
(2.99301 -0.000712687 0)
(2.99816 -0.000179901 0)
(2.99981 -1.75052e-05 0)
(2.99999 -4.96384e-07 0)
(3 -4.50796e-09 0)
(3 -2.19821e-11 0)
(3 -7.35179e-14 0)
(3 5.04619e-16 0)
(3 1.03319e-15 0)
(3 1.00871e-15 0)
(3 9.57816e-16 0)
(2.97963 -0.245479 0)
(2.97961 -0.245476 0)
(2.97958 -0.245475 0)
(2.97956 -0.245474 0)
(2.97953 -0.245473 0)
(2.97952 -0.245474 0)
(2.97949 -0.245475 0)
(2.97947 -0.245476 0)
(2.97944 -0.245478 0)
(2.97941 -0.245476 0)
(2.97938 -0.245474 0)
(2.97933 -0.24547 0)
(2.97928 -0.245463 0)
(2.97923 -0.245449 0)
(2.97916 -0.245432 0)
(2.9791 -0.245416 0)
(2.97903 -0.245393 0)
(2.97896 -0.245374 0)
(2.97888 -0.245341 0)
(2.9788 -0.245296 0)
(2.97871 -0.24522 0)
(2.97862 -0.245112 0)
(2.9785 -0.244921 0)
(2.97835 -0.244642 0)
(2.97812 -0.24412 0)
(2.97779 -0.243371 0)
(2.97726 -0.242008 0)
(2.97647 -0.240027 0)
(2.97529 -0.236783 0)
(2.9735 -0.231995 0)
(2.97122 -0.225189 0)
(2.96769 -0.215056 0)
(2.96395 -0.203211 0)
(2.95798 -0.184164 0)
(2.95389 -0.169519 0)
(2.94497 -0.139004 0)
(2.94166 -0.126019 0)
(2.93203 -0.0931461 0)
(2.92855 -0.0808169 0)
(2.92139 -0.055934 0)
(2.91828 -0.0470411 0)
(2.91703 -0.0388842 0)
(2.91247 -0.0275876 0)
(2.91381 -0.0230657 0)
(2.90795 -0.0153966 0)
(2.90727 -0.0111896 0)
(2.90489 -0.00677418 0)
(2.90407 -0.00253996 0)
(2.90181 0.00109196 0)
(2.90028 0.00507926 0)
(2.9001 0.00496688 0)
(2.8997 0.00413171 0)
(2.89874 0.0011964 0)
(2.89889 -5.95041e-05 0)
(2.89871 -0.00260014 0)
(2.89883 -0.00331292 0)
(2.89918 -0.00272303 0)
(2.8998 -0.00153741 0)
(2.90031 0.000753221 0)
(2.90024 0.00140402 0)
(2.89969 0.00121294 0)
(2.89929 0.000812001 0)
(2.89932 -0.000346638 0)
(2.8996 -0.000528118 0)
(2.89995 -0.000194006 0)
(2.90011 3.45847e-05 0)
(2.90009 0.000596619 0)
(2.89993 0.000524889 0)
(2.89963 -0.000153746 0)
(2.89972 -0.000643086 0)
(2.90049 -0.000851292 0)
(2.90275 -0.00107652 0)
(2.90731 -0.00181421 0)
(2.91455 -0.00234994 0)
(2.92295 -0.00269573 0)
(2.93005 -0.00346984 0)
(2.93546 -0.00590756 0)
(2.9413 -0.00719348 0)
(2.94548 -0.00827845 0)
(2.94908 -0.0106409 0)
(2.95208 -0.0135716 0)
(2.95475 -0.0145439 0)
(2.95693 -0.0135602 0)
(2.9593 -0.0115156 0)
(2.96239 -0.00937124 0)
(2.96646 -0.00713373 0)
(2.97163 -0.00518246 0)
(2.97798 -0.00352566 0)
(2.9855 -0.00212326 0)
(2.99313 -0.000915682 0)
(2.99822 -0.000223516 0)
(2.99982 -2.13142e-05 0)
(2.99999 -5.96307e-07 0)
(3 -5.38979e-09 0)
(3 -2.63606e-11 0)
(3 -8.8938e-14 0)
(3 1.06854e-15 0)
(3 1.50228e-15 0)
(3 1.27616e-15 0)
(3 8.20777e-16 0)
(2.97834 -0.245486 0)
(2.97833 -0.245485 0)
(2.97832 -0.245486 0)
(2.97831 -0.245487 0)
(2.9783 -0.245485 0)
(2.97829 -0.245486 0)
(2.97828 -0.245487 0)
(2.97827 -0.245487 0)
(2.97827 -0.245489 0)
(2.97826 -0.245491 0)
(2.97825 -0.245492 0)
(2.97824 -0.245495 0)
(2.97823 -0.245498 0)
(2.97823 -0.2455 0)
(2.97822 -0.245503 0)
(2.97821 -0.245506 0)
(2.9782 -0.245506 0)
(2.97818 -0.245503 0)
(2.97817 -0.245499 0)
(2.97815 -0.245495 0)
(2.97814 -0.245494 0)
(2.97813 -0.245488 0)
(2.97813 -0.245483 0)
(2.97812 -0.245476 0)
(2.97811 -0.245467 0)
(2.9781 -0.245452 0)
(2.97809 -0.245423 0)
(2.97807 -0.245363 0)
(2.97802 -0.24525 0)
(2.97794 -0.245021 0)
(2.97777 -0.244563 0)
(2.97744 -0.243705 0)
(2.97686 -0.242173 0)
(2.97578 -0.239346 0)
(2.97415 -0.234813 0)
(2.97132 -0.227069 0)
(2.9679 -0.216474 0)
(2.96201 -0.198814 0)
(2.95659 -0.180902 0)
(2.94801 -0.153307 0)
(2.93969 -0.123273 0)
(2.93548 -0.103464 0)
(2.92276 -0.0583636 0)
(2.9252 -0.0525277 0)
(2.91381 -0.0186358 0)
(2.91297 -0.0125999 0)
(2.90809 0.00216629 0)
(2.90553 0.00971132 0)
(2.90364 0.0120161 0)
(2.90154 0.0106002 0)
(2.90043 0.00509681 0)
(2.89994 0.00148389 0)
(2.89872 -0.00146984 0)
(2.89873 -0.0015929 0)
(2.89891 -0.00180402 0)
(2.89927 -0.000978096 0)
(2.90037 0.00138254 0)
(2.9008 0.00127218 0)
(2.90069 0.00125096 0)
(2.9001 0.00081017 0)
(2.8994 -0.000460966 0)
(2.89896 -0.000893085 0)
(2.89919 -0.000702402 0)
(2.89967 2.14867e-06 0)
(2.90007 0.000927557 0)
(2.90019 0.000596711 0)
(2.90002 0.000326848 0)
(2.89967 -0.00018951 0)
(2.89977 -0.000102796 0)
(2.89998 -8.45009e-05 0)
(2.90082 0.000102613 0)
(2.90296 -9.43498e-05 0)
(2.90749 -0.00160901 0)
(2.91451 -0.0030426 0)
(2.92288 -0.00323078 0)
(2.93007 -0.00471476 0)
(2.93584 -0.00745206 0)
(2.94151 -0.00842319 0)
(2.94554 -0.00920332 0)
(2.94938 -0.0112784 0)
(2.95267 -0.0138993 0)
(2.95516 -0.0146105 0)
(2.95754 -0.013784 0)
(2.96 -0.0121445 0)
(2.96315 -0.0100234 0)
(2.96716 -0.00790357 0)
(2.9722 -0.00598716 0)
(2.97841 -0.00422477 0)
(2.98581 -0.00255251 0)
(2.99331 -0.00111088 0)
(2.99829 -0.000265939 0)
(2.99983 -2.45552e-05 0)
(3 -6.66565e-07 0)
(3 -5.92193e-09 0)
(3 -2.88557e-11 0)
(3 -9.72763e-14 0)
(3 1.19135e-15 0)
(3 5.47994e-16 0)
(3 3.54758e-16 0)
(3 7.0853e-16 0)
(2.97809 -0.245496 0)
(2.97809 -0.245496 0)
(2.97809 -0.245496 0)
(2.97809 -0.245496 0)
(2.9781 -0.245496 0)
(2.9781 -0.245497 0)
(2.9781 -0.245497 0)
(2.9781 -0.245497 0)
(2.97811 -0.245498 0)
(2.97811 -0.245497 0)
(2.97812 -0.245498 0)
(2.97812 -0.245498 0)
(2.97812 -0.245498 0)
(2.97813 -0.245499 0)
(2.97814 -0.2455 0)
(2.97815 -0.245501 0)
(2.97816 -0.245503 0)
(2.97817 -0.245505 0)
(2.97818 -0.245508 0)
(2.9782 -0.245512 0)
(2.97821 -0.245517 0)
(2.97822 -0.245521 0)
(2.97824 -0.245528 0)
(2.97825 -0.245535 0)
(2.97827 -0.24554 0)
(2.97828 -0.245547 0)
(2.97829 -0.24555 0)
(2.97831 -0.24555 0)
(2.97833 -0.245544 0)
(2.97835 -0.245539 0)
(2.97837 -0.245528 0)
(2.97839 -0.245507 0)
(2.97841 -0.245464 0)
(2.97842 -0.245367 0)
(2.97841 -0.245164 0)
(2.97831 -0.244759 0)
(2.978 -0.24381 0)
(2.97734 -0.24208 0)
(2.97597 -0.238201 0)
(2.9737 -0.232252 0)
(2.96987 -0.220916 0)
(2.96504 -0.206326 0)
(2.95717 -0.181651 0)
(2.95183 -0.16125 0)
(2.94055 -0.122599 0)
(2.93639 -0.105637 0)
(2.92775 -0.0734291 0)
(2.92268 -0.0538581 0)
(2.92265 -0.0474606 0)
(2.91611 -0.0309163 0)
(2.91705 -0.0251637 0)
(2.91086 -0.0153287 0)
(2.90745 -0.00951732 0)
(2.90595 -0.0047326 0)
(2.90264 0.000308656 0)
(2.90066 0.00475684 0)
(2.90017 0.00425499 0)
(2.8998 0.00222098 0)
(2.8999 -7.9806e-06 0)
(2.89952 -0.00214337 0)
(2.9001 -0.00283877 0)
(2.90033 -0.00190084 0)
(2.90063 -0.000570057 0)
(2.90103 0.0012766 0)
(2.90094 0.00160304 0)
(2.90064 0.00111672 0)
(2.9002 8.88017e-05 0)
(2.90022 -0.000455531 0)
(2.9004 -0.000265887 0)
(2.90073 0.00010967 0)
(2.90163 0.000422844 0)
(2.90361 0.000132468 0)
(2.9079 -0.00200316 0)
(2.91464 -0.00412289 0)
(2.92302 -0.00473946 0)
(2.93014 -0.00607016 0)
(2.93632 -0.00901877 0)
(2.94189 -0.00961724 0)
(2.94586 -0.0104357 0)
(2.9499 -0.0125457 0)
(2.95333 -0.0147499 0)
(2.9557 -0.0151091 0)
(2.95815 -0.0143319 0)
(2.9608 -0.0127717 0)
(2.96407 -0.0107893 0)
(2.96812 -0.00877895 0)
(2.973 -0.00682842 0)
(2.97897 -0.00490483 0)
(2.98616 -0.00298896 0)
(2.99351 -0.00130511 0)
(2.99837 -0.000308218 0)
(2.99985 -2.75852e-05 0)
(3 -7.20195e-07 0)
(3 -6.21354e-09 0)
(3 -2.98686e-11 0)
(3 -1.14418e-13 0)
(3 -4.60317e-16 0)
(3 -6.17183e-16 0)
(3 -2.91818e-16 0)
(3 -4.39472e-17 0)
(2.97852 -0.24547 0)
(2.97853 -0.245471 0)
(2.97854 -0.24547 0)
(2.97855 -0.245471 0)
(2.97855 -0.24547 0)
(2.97856 -0.245471 0)
(2.97857 -0.245471 0)
(2.97858 -0.245471 0)
(2.97859 -0.245472 0)
(2.9786 -0.245472 0)
(2.97862 -0.245472 0)
(2.97863 -0.245472 0)
(2.97864 -0.245472 0)
(2.97866 -0.245473 0)
(2.97867 -0.245472 0)
(2.97869 -0.245475 0)
(2.97871 -0.245475 0)
(2.97873 -0.245477 0)
(2.97874 -0.245477 0)
(2.97877 -0.24548 0)
(2.97879 -0.245483 0)
(2.97881 -0.245485 0)
(2.97883 -0.245488 0)
(2.97885 -0.24549 0)
(2.97888 -0.245495 0)
(2.9789 -0.245495 0)
(2.97893 -0.245502 0)
(2.97895 -0.245502 0)
(2.97898 -0.245504 0)
(2.979 -0.245509 0)
(2.97902 -0.245512 0)
(2.97904 -0.245518 0)
(2.97907 -0.245519 0)
(2.97908 -0.245528 0)
(2.97912 -0.245524 0)
(2.97915 -0.245525 0)
(2.97917 -0.245515 0)
(2.97918 -0.24549 0)
(2.97916 -0.245368 0)
(2.97912 -0.245069 0)
(2.97891 -0.244325 0)
(2.97834 -0.242691 0)
(2.97695 -0.23891 0)
(2.9746 -0.232187 0)
(2.96999 -0.219468 0)
(2.96418 -0.200729 0)
(2.9561 -0.17554 0)
(2.94516 -0.137767 0)
(2.9421 -0.117639 0)
(2.9255 -0.0602934 0)
(2.92865 -0.0528543 0)
(2.91649 -0.0145627 0)
(2.91508 -0.00727832 0)
(2.90876 0.0110528 0)
(2.90655 0.0123372 0)
(2.90435 0.00966796 0)
(2.90204 0.00282198 0)
(2.90163 -0.00086194 0)
(2.9009 -0.00246988 0)
(2.90113 -0.00239716 0)
(2.90171 -0.00129543 0)
(2.90308 0.000941753 0)
(2.90263 0.00202979 0)
(2.90238 0.00192679 0)
(2.90179 0.00114896 0)
(2.90112 -0.000282563 0)
(2.90082 -0.000551332 0)
(2.90105 -0.000124591 0)
(2.90145 0.000818196 0)
(2.9018 0.00101903 0)
(2.90249 0.000548702 0)
(2.9043 -0.000449305 0)
(2.90827 -0.00250193 0)
(2.91482 -0.0042767 0)
(2.9233 -0.00453283 0)
(2.9304 -0.00654067 0)
(2.93706 -0.0100129 0)
(2.94238 -0.0105209 0)
(2.94627 -0.0116404 0)
(2.9503 -0.0138947 0)
(2.95374 -0.0157388 0)
(2.95611 -0.0158367 0)
(2.95865 -0.0150155 0)
(2.96153 -0.0135354 0)
(2.96485 -0.0116191 0)
(2.96888 -0.00955853 0)
(2.97366 -0.00754378 0)
(2.97949 -0.00551183 0)
(2.98655 -0.00339637 0)
(2.99378 -0.0014811 0)
(2.99848 -0.000343876 0)
(2.99986 -2.97504e-05 0)
(3 -7.44278e-07 0)
(3 -6.21763e-09 0)
(3 -2.9448e-11 0)
(3 -1.28176e-13 0)
(3 -1.82472e-15 0)
(3 -1.04719e-15 0)
(3 -1.24257e-16 0)
(3 -6.64375e-16 0)
(2.97927 -0.245508 0)
(2.97928 -0.245509 0)
(2.97929 -0.24551 0)
(2.9793 -0.245511 0)
(2.97931 -0.245511 0)
(2.97932 -0.245514 0)
(2.97933 -0.245514 0)
(2.97934 -0.245515 0)
(2.97936 -0.245517 0)
(2.97937 -0.245517 0)
(2.97938 -0.24552 0)
(2.9794 -0.24552 0)
(2.97941 -0.245522 0)
(2.97942 -0.245525 0)
(2.97944 -0.245524 0)
(2.97945 -0.245529 0)
(2.97947 -0.24553 0)
(2.97948 -0.245532 0)
(2.9795 -0.245534 0)
(2.97952 -0.245538 0)
(2.97954 -0.24554 0)
(2.97955 -0.245543 0)
(2.97957 -0.245542 0)
(2.97959 -0.245548 0)
(2.97961 -0.245549 0)
(2.97962 -0.245555 0)
(2.97964 -0.245557 0)
(2.97966 -0.245561 0)
(2.97968 -0.245564 0)
(2.9797 -0.245564 0)
(2.97972 -0.245571 0)
(2.97974 -0.245569 0)
(2.97976 -0.245575 0)
(2.97977 -0.24557 0)
(2.97978 -0.245569 0)
(2.97978 -0.245562 0)
(2.97979 -0.245558 0)
(2.9798 -0.245546 0)
(2.9798 -0.245529 0)
(2.97985 -0.245537 0)
(2.97988 -0.245535 0)
(2.9799 -0.245513 0)
(2.97987 -0.245434 0)
(2.97976 -0.245118 0)
(2.97942 -0.24428 0)
(2.97855 -0.241922 0)
(2.97676 -0.237277 0)
(2.97316 -0.227062 0)
(2.96812 -0.211516 0)
(2.95922 -0.184184 0)
(2.95361 -0.160992 0)
(2.94002 -0.112566 0)
(2.93694 -0.0983795 0)
(2.927 -0.0584167 0)
(2.92731 -0.0525462 0)
(2.92024 -0.0334752 0)
(2.91763 -0.0241344 0)
(2.91321 -0.0157116 0)
(2.91039 -0.00702994 0)
(2.90689 -0.000561344 0)
(2.9039 0.00461736 0)
(2.90364 0.00428257 0)
(2.90254 0.00221353 0)
(2.90183 -0.000151521 0)
(2.90176 -0.00267735 0)
(2.90172 -0.00220856 0)
(2.90193 -0.000691516 0)
(2.90225 0.00156496 0)
(2.90259 0.00151976 0)
(2.90271 0.00101376 0)
(2.9032 -0.000468249 0)
(2.90473 -0.00118228 0)
(2.90847 -0.00257172 0)
(2.91487 -0.00384739 0)
(2.92325 -0.00401227 0)
(2.93017 -0.00655037 0)
(2.93709 -0.0108683 0)
(2.94246 -0.0114966 0)
(2.94643 -0.0128627 0)
(2.95053 -0.0151343 0)
(2.95398 -0.0166459 0)
(2.95641 -0.0165986 0)
(2.95903 -0.0158024 0)
(2.96212 -0.0144056 0)
(2.96549 -0.0125123 0)
(2.96941 -0.0104977 0)
(2.97413 -0.00841974 0)
(2.97996 -0.00617239 0)
(2.987 -0.00378795 0)
(2.99411 -0.00163448 0)
(2.99861 -0.000369854 0)
(2.99988 -3.0624e-05 0)
(3 -7.27605e-07 0)
(3 -5.86224e-09 0)
(3 -2.73527e-11 0)
(3 -1.20059e-13 0)
(3 -1.25981e-15 0)
(3 -7.61331e-16 0)
(3 1.20597e-16 0)
(3 -3.50494e-16 0)
(2.97991 -0.245575 0)
(2.97991 -0.245575 0)
(2.97992 -0.245578 0)
(2.97993 -0.245578 0)
(2.97993 -0.245579 0)
(2.97994 -0.245581 0)
(2.97994 -0.245582 0)
(2.97995 -0.245584 0)
(2.97996 -0.245586 0)
(2.97996 -0.245586 0)
(2.97997 -0.245589 0)
(2.97998 -0.24559 0)
(2.97998 -0.245592 0)
(2.97999 -0.245595 0)
(2.98 -0.245596 0)
(2.98 -0.245597 0)
(2.98001 -0.2456 0)
(2.98002 -0.245602 0)
(2.98002 -0.245603 0)
(2.98003 -0.245603 0)
(2.98004 -0.245607 0)
(2.98005 -0.245606 0)
(2.98005 -0.245609 0)
(2.98006 -0.24561 0)
(2.98007 -0.245611 0)
(2.98007 -0.245611 0)
(2.98008 -0.245611 0)
(2.98009 -0.245612 0)
(2.9801 -0.245611 0)
(2.9801 -0.245616 0)
(2.98011 -0.245616 0)
(2.98012 -0.245621 0)
(2.98013 -0.245623 0)
(2.98014 -0.245628 0)
(2.98015 -0.245631 0)
(2.98017 -0.245635 0)
(2.98018 -0.245638 0)
(2.98019 -0.245646 0)
(2.98021 -0.245647 0)
(2.9802 -0.245649 0)
(2.98019 -0.245642 0)
(2.98018 -0.245634 0)
(2.98016 -0.24563 0)
(2.98017 -0.245588 0)
(2.98018 -0.245556 0)
(2.98017 -0.245529 0)
(2.9801 -0.245379 0)
(2.97986 -0.244827 0)
(2.97925 -0.243382 0)
(2.97758 -0.23912 0)
(2.97475 -0.231056 0)
(2.96832 -0.213006 0)
(2.96244 -0.192098 0)
(2.94845 -0.146219 0)
(2.94487 -0.122469 0)
(2.92816 -0.064705 0)
(2.92605 -0.0426712 0)
(2.91922 -0.0175504 0)
(2.91357 0.00559597 0)
(2.90928 0.0121756 0)
(2.9067 0.0105819 0)
(2.90466 0.00399103 0)
(2.90387 -0.00102501 0)
(2.90275 -0.00290078 0)
(2.90302 -0.00269204 0)
(2.90355 -0.000616688 0)
(2.90375 0.00264564 0)
(2.90346 0.00281701 0)
(2.90295 0.00176941 0)
(2.90284 -0.000421573 0)
(2.90353 -0.00130189 0)
(2.9054 -0.0011231 0)
(2.9089 -0.00142057 0)
(2.91487 -0.00312457 0)
(2.92281 -0.00372727 0)
(2.92971 -0.00668621 0)
(2.93653 -0.0118065 0)
(2.94223 -0.012592 0)
(2.94641 -0.0141738 0)
(2.95067 -0.0163855 0)
(2.95425 -0.01761 0)
(2.95686 -0.017454 0)
(2.95966 -0.0166649 0)
(2.96281 -0.0153406 0)
(2.9662 -0.0134487 0)
(2.97014 -0.0113195 0)
(2.97481 -0.00911091 0)
(2.98056 -0.00673395 0)
(2.98754 -0.00413919 0)
(2.9945 -0.00175853 0)
(2.99876 -0.000383123 0)
(2.9999 -2.98956e-05 0)
(3 -6.65223e-07 0)
(3 -5.13396e-09 0)
(3 -2.35953e-11 0)
(3 -9.08045e-14 0)
(3 -2.69803e-16 0)
(3 -3.27833e-16 0)
(3 -3.01722e-16 0)
(3 -4.54854e-16 0)
(2.9802 -0.245657 0)
(2.98021 -0.245657 0)
(2.98021 -0.245657 0)
(2.98021 -0.245656 0)
(2.98021 -0.245656 0)
(2.98021 -0.245656 0)
(2.98021 -0.245655 0)
(2.98021 -0.245655 0)
(2.98022 -0.245655 0)
(2.98022 -0.245653 0)
(2.98022 -0.245653 0)
(2.98022 -0.245653 0)
(2.98022 -0.245651 0)
(2.98023 -0.24565 0)
(2.98023 -0.245649 0)
(2.98023 -0.245649 0)
(2.98023 -0.245647 0)
(2.98023 -0.245645 0)
(2.98024 -0.245645 0)
(2.98024 -0.245642 0)
(2.98024 -0.245642 0)
(2.98024 -0.245639 0)
(2.98025 -0.245637 0)
(2.98025 -0.245635 0)
(2.98025 -0.245633 0)
(2.98025 -0.245632 0)
(2.98026 -0.245629 0)
(2.98026 -0.245631 0)
(2.98026 -0.245629 0)
(2.98027 -0.245628 0)
(2.98027 -0.245629 0)
(2.98027 -0.245626 0)
(2.98028 -0.245625 0)
(2.98028 -0.245622 0)
(2.98029 -0.24562 0)
(2.98029 -0.24562 0)
(2.98029 -0.245619 0)
(2.98029 -0.24562 0)
(2.9803 -0.24562 0)
(2.9803 -0.245619 0)
(2.9803 -0.245617 0)
(2.9803 -0.245611 0)
(2.9803 -0.245609 0)
(2.98029 -0.245612 0)
(2.98028 -0.245603 0)
(2.98026 -0.245605 0)
(2.98025 -0.245636 0)
(2.98023 -0.245611 0)
(2.98019 -0.245596 0)
(2.98012 -0.245506 0)
(2.97993 -0.245056 0)
(2.97934 -0.243695 0)
(2.97788 -0.239534 0)
(2.97467 -0.231111 0)
(2.96889 -0.212295 0)
(2.96091 -0.187866 0)
(2.94888 -0.143841 0)
(2.94339 -0.12045 0)
(2.92988 -0.0686422 0)
(2.9292 -0.0613238 0)
(2.92123 -0.0380841 0)
(2.91739 -0.0252737 0)
(2.91544 -0.0154187 0)
(2.9112 -0.00631069 0)
(2.90647 -0.000506358 0)
(2.90365 0.00336798 0)
(2.90276 0.00284331 0)
(2.90183 0.000699088 0)
(2.90213 -0.00254744 0)
(2.90289 -0.00326167 0)
(2.90411 -0.00246539 0)
(2.90595 -0.000672354 0)
(2.90897 -0.000718657 0)
(2.91427 -0.00275772 0)
(2.92155 -0.005573 0)
(2.92912 -0.00846589 0)
(2.93522 -0.0128947 0)
(2.94182 -0.0140825 0)
(2.94618 -0.0155723 0)
(2.95039 -0.017595 0)
(2.9541 -0.0186199 0)
(2.95684 -0.0184589 0)
(2.96002 -0.0177054 0)
(2.96353 -0.0163474 0)
(2.96697 -0.0144017 0)
(2.97077 -0.0122422 0)
(2.97539 -0.00992872 0)
(2.98118 -0.00732952 0)
(2.98816 -0.00445966 0)
(2.99495 -0.00184478 0)
(2.99893 -0.000381392 0)
(2.99992 -2.75517e-05 0)
(3 -5.64899e-07 0)
(3 -4.1416e-09 0)
(3 -1.86759e-11 0)
(3 -6.89587e-14 0)
(3 -4.32676e-16 0)
(3 -1.11438e-16 0)
(3 -7.78523e-16 0)
(3 -6.33196e-16 0)
(2.98029 -0.245638 0)
(2.98029 -0.245638 0)
(2.98029 -0.245637 0)
(2.98029 -0.245636 0)
(2.98029 -0.245635 0)
(2.98029 -0.245634 0)
(2.98029 -0.245633 0)
(2.98029 -0.245632 0)
(2.98029 -0.245631 0)
(2.98029 -0.24563 0)
(2.9803 -0.245628 0)
(2.9803 -0.245626 0)
(2.9803 -0.245625 0)
(2.9803 -0.245624 0)
(2.9803 -0.245623 0)
(2.9803 -0.245622 0)
(2.9803 -0.24562 0)
(2.9803 -0.245619 0)
(2.9803 -0.245618 0)
(2.9803 -0.245617 0)
(2.98031 -0.245616 0)
(2.98031 -0.245614 0)
(2.98031 -0.245613 0)
(2.98031 -0.245612 0)
(2.98031 -0.245611 0)
(2.98031 -0.245609 0)
(2.98031 -0.245607 0)
(2.98031 -0.245606 0)
(2.98032 -0.245604 0)
(2.98032 -0.245602 0)
(2.98032 -0.245599 0)
(2.98032 -0.245595 0)
(2.98032 -0.245591 0)
(2.98032 -0.245587 0)
(2.98032 -0.245583 0)
(2.98032 -0.245579 0)
(2.98033 -0.245572 0)
(2.98033 -0.245567 0)
(2.98032 -0.245562 0)
(2.98032 -0.245556 0)
(2.98032 -0.245551 0)
(2.98032 -0.245548 0)
(2.98031 -0.245549 0)
(2.98031 -0.245552 0)
(2.98029 -0.24555 0)
(2.98028 -0.24555 0)
(2.98025 -0.245569 0)
(2.98023 -0.245565 0)
(2.98018 -0.245569 0)
(2.98017 -0.245566 0)
(2.98016 -0.245568 0)
(2.98016 -0.245525 0)
(2.98015 -0.24537 0)
(2.97999 -0.244814 0)
(2.97939 -0.243121 0)
(2.97769 -0.238516 0)
(2.97349 -0.226514 0)
(2.9677 -0.208018 0)
(2.95393 -0.165686 0)
(2.94947 -0.139372 0)
(2.92904 -0.0706721 0)
(2.92589 -0.0487129 0)
(2.91891 -0.0154889 0)
(2.91344 0.00473609 0)
(2.9089 0.0137151 0)
(2.9034 0.00544132 0)
(2.90222 6.99498e-05 0)
(2.90214 -0.00246773 0)
(2.9039 -0.0031298 0)
(2.90488 -0.0024596 0)
(2.90589 -8.71261e-05 0)
(2.90658 0.000850358 0)
(2.90829 -0.000588052 0)
(2.91277 -0.0049366 0)
(2.91963 -0.00748415 0)
(2.92755 -0.0088178 0)
(2.93389 -0.0137345 0)
(2.942 -0.0159781 0)
(2.94694 -0.0174456 0)
(2.95104 -0.0192273 0)
(2.95454 -0.0200294 0)
(2.95755 -0.0197114 0)
(2.96078 -0.0188469 0)
(2.96426 -0.0174637 0)
(2.96777 -0.0154377 0)
(2.9716 -0.013091 0)
(2.97615 -0.0106745 0)
(2.98192 -0.00788982 0)
(2.98888 -0.00472924 0)
(2.99547 -0.00188187 0)
(2.99911 -0.000362941 0)
(2.99994 -2.37888e-05 0)
(3 -4.41657e-07 0)
(3 -3.05136e-09 0)
(3 -1.34552e-11 0)
(3 -4.58453e-14 0)
(3 -7.85393e-16 0)
(3 1.2456e-16 0)
(3 -2.33847e-16 0)
(3 -6.40206e-16 0)
(2.98033 -0.245525 0)
(2.98033 -0.245523 0)
(2.98033 -0.245521 0)
(2.98033 -0.245519 0)
(2.98033 -0.245517 0)
(2.98033 -0.245515 0)
(2.98033 -0.245513 0)
(2.98033 -0.24551 0)
(2.98033 -0.245507 0)
(2.98033 -0.245505 0)
(2.98033 -0.245502 0)
(2.98033 -0.2455 0)
(2.98033 -0.245498 0)
(2.98033 -0.245494 0)
(2.98033 -0.245491 0)
(2.98033 -0.245488 0)
(2.98033 -0.245484 0)
(2.98033 -0.24548 0)
(2.98033 -0.245477 0)
(2.98033 -0.245473 0)
(2.98033 -0.245469 0)
(2.98034 -0.245465 0)
(2.98034 -0.245461 0)
(2.98034 -0.245457 0)
(2.98034 -0.245453 0)
(2.98034 -0.245449 0)
(2.98034 -0.245446 0)
(2.98034 -0.245442 0)
(2.98034 -0.245438 0)
(2.98034 -0.245435 0)
(2.98034 -0.24543 0)
(2.98034 -0.245426 0)
(2.98034 -0.245422 0)
(2.98034 -0.245418 0)
(2.98034 -0.245416 0)
(2.98034 -0.245416 0)
(2.98033 -0.245412 0)
(2.98033 -0.245413 0)
(2.98033 -0.245414 0)
(2.98032 -0.245418 0)
(2.98032 -0.245428 0)
(2.98031 -0.24544 0)
(2.98029 -0.245458 0)
(2.98028 -0.245479 0)
(2.98027 -0.2455 0)
(2.98024 -0.245508 0)
(2.98023 -0.245514 0)
(2.98021 -0.245511 0)
(2.9802 -0.245496 0)
(2.98019 -0.245464 0)
(2.9802 -0.245425 0)
(2.98022 -0.245396 0)
(2.98023 -0.245357 0)
(2.98021 -0.245175 0)
(2.98018 -0.245063 0)
(2.98009 -0.244858 0)
(2.97978 -0.244178 0)
(2.97883 -0.241718 0)
(2.97624 -0.235235 0)
(2.97115 -0.219037 0)
(2.96182 -0.191669 0)
(2.95157 -0.154863 0)
(2.9395 -0.11037 0)
(2.92862 -0.0702429 0)
(2.92519 -0.0515997 0)
(2.92221 -0.0368834 0)
(2.9142 -0.0201399 0)
(2.91232 -0.0102441 0)
(2.91106 -0.00359394 0)
(2.90732 0.00215939 0)
(2.90556 0.00116134 0)
(2.90496 -0.00143644 0)
(2.90636 -0.00376696 0)
(2.91053 -0.00693289 0)
(2.91775 -0.00864217 0)
(2.92568 -0.00881794 0)
(2.93207 -0.0142276 0)
(2.94102 -0.0173516 0)
(2.9463 -0.0187073 0)
(2.95075 -0.0201994 0)
(2.95441 -0.0209188 0)
(2.95786 -0.0207704 0)
(2.96135 -0.0199255 0)
(2.96477 -0.018482 0)
(2.96819 -0.0165526 0)
(2.97213 -0.0142078 0)
(2.97693 -0.0114918 0)
(2.98281 -0.00839306 0)
(2.98973 -0.00491889 0)
(2.99603 -0.00186191 0)
(2.99929 -0.000328823 0)
(2.99996 -1.91013e-05 0)
(3 -3.14859e-07 0)
(3 -2.0328e-09 0)
(3 -8.73335e-12 0)
(3 -3.42838e-14 0)
(3 -4.8958e-16 0)
(3 -5.11607e-16 0)
(3 -3.07703e-16 0)
(3 -7.79533e-16 0)
(2.98034 -0.245378 0)
(2.98034 -0.245379 0)
(2.98033 -0.245379 0)
(2.98033 -0.24538 0)
(2.98033 -0.245381 0)
(2.98033 -0.245381 0)
(2.98033 -0.245383 0)
(2.98033 -0.245383 0)
(2.98033 -0.245384 0)