/*--------------------------------*- C++ -*----------------------------------*\
  =========                 |
  \\      /  F ield         | OpenFOAM: The Open Source CFD Toolbox
   \\    /   O peration     | Website:  https://openfoam.org
    \\  /    A nd           | Version:  7
     \\/     M anipulation  |
\*---------------------------------------------------------------------------*/
FoamFile
{
    version     2.0;
    format      ascii;
    class       volScalarField;
    location    "9";
    object      p;
}
// * * * * * * * * * * * * * * * * * * * * * * * * * * * * * * * * * * * * * //

dimensions      [1 -1 -2 0 0 0 0];

internalField   nonuniform List<scalar> 
90000
(
0.813404
0.819637
0.827078
0.834483
0.842207
0.849411
0.856762
0.863405
0.870197
0.876204
0.8825
0.888023
0.894269
0.900751
0.908824
0.917655
0.927866
0.93853
0.949755
0.960794
0.971539
0.981327
0.991172
0.998622
1.00637
1.01245
1.01589
1.01958
1.02208
1.02178
1.02143
1.02079
1.01913
1.01562
1.00713
0.99846
0.991826
0.987163
0.987168
0.988645
0.99096
0.993982
0.995614
0.997251
0.999024
0.999011
0.998542
0.997266
0.995354
0.993431
0.992099
0.991979
0.992456
0.994051
0.994827
0.996696
0.998141
0.998977
0.999043
0.997993
0.996873
0.996661
0.997097
0.997562
0.998194
0.999213
0.999069
0.998037
0.997397
0.99741
0.997627
0.998249
0.998815
0.998328
0.99771
0.997438
0.997621
0.997856
0.997881
0.997417
0.997266
0.997361
0.997691
0.997921
0.997929
0.997886
0.997876
0.997999
0.99831
0.998739
0.999011
0.998959
0.998855
0.998711
0.998435
0.998326
0.998325
0.998434
0.998613
0.998691
0.808795
0.809485
0.810835
0.812769
0.815419
0.818605
0.822456
0.826757
0.831631
0.836929
0.842637
0.848752
0.85496
0.861355
0.867666
0.874482
0.881504
0.889371
0.897634
0.906572
0.916227
0.925734
0.93613
0.946185
0.955918
0.96597
0.974761
0.983325
0.990777
0.99567
1.00208
1.00596
1.00664
1.00721
1.00917
1.01114
1.01079
1.00825
1.00441
1.00005
0.995644
0.992661
0.991145
0.990977
0.991981
0.993276
0.994897
0.996936
0.999092
0.999774
0.998975
0.996981
0.994837
0.992908
0.992131
0.992959
0.995107
0.997739
1.00032
1.00044
0.999342
0.9976
0.995986
0.996292
0.997609
0.999176
0.999652
0.999023
0.997761
0.996642
0.996962
0.998016
0.998807
0.998527
0.997814
0.997456
0.997491
0.997854
0.997872
0.997663
0.997373
0.997335
0.997497
0.99783
0.997964
0.997925
0.997889
0.997953
0.998178
0.998582
0.998899
0.998992
0.998939
0.998768
0.998521
0.998375
0.998321
0.998404
0.998578
0.998681
0.808442
0.808446
0.80846
0.808492
0.808568
0.808712
0.808961
0.809366
0.809955
0.81081
0.811939
0.813488
0.815392
0.817809
0.820632
0.82393
0.82776
0.832097
0.83723
0.842849
0.84962
0.856902
0.865411
0.874929
0.885137
0.896566
0.909002
0.921179
0.934975
0.948197
0.960259
0.972547
0.983888
0.993058
1.00066
1.00473
1.00638
1.00766
1.00775
1.00669
1.00443
1.0007
0.996949
0.993971
0.992802
0.993347
0.994538
0.995994
0.997658
0.998188
0.997923
0.997211
0.996134
0.994467
0.993169
0.993254
0.994165
0.995572
0.997342
0.998656
0.999264
0.998532
0.997712
0.99726
0.997506
0.997971
0.998642
0.999131
0.998706
0.997908
0.99741
0.997457
0.997903
0.998313
0.998221
0.997807
0.997463
0.997504
0.997707
0.9978
0.997625
0.997451
0.997483
0.997724
0.997933
0.997981
0.99795
0.997965
0.998105
0.998429
0.998883
0.999012
0.998939
0.998821
0.998614
0.998398
0.99837
0.998423
0.998595
0.998691
0.808317
0.808289
0.808263
0.808244
0.808226
0.808211
0.808203
0.808209
0.808215
0.808225
0.808248
0.808284
0.808384
0.808548
0.808813
0.809206
0.809759
0.810488
0.811502
0.812836
0.814604
0.816908
0.819867
0.823595
0.8285
0.834376
0.841692
0.850915
0.860845
0.873415
0.887257
0.901673
0.91787
0.934431
0.949749
0.964313
0.974597
0.984804
0.991954
0.994679
0.996632
0.998798
0.999392
1.00054
1.00118
1.00101
1.00018
0.998611
0.997431
0.996153
0.995296
0.99514
0.995259
0.995901
0.996367
0.996131
0.995515
0.994847
0.994978
0.995653
0.996934
0.99845
0.999838
0.999376
0.998327
0.997204
0.99731
0.998047
0.99901
0.998897
0.998176
0.997179
0.997218
0.997727
0.998334
0.998145
0.997691
0.997461
0.997646
0.997861
0.997832
0.997567
0.997456
0.997581
0.997856
0.997973
0.99798
0.997968
0.998044
0.998289
0.998678
0.998947
0.998965
0.998877
0.998709
0.9985
0.998397
0.998427
0.998556
0.998676
0.808182
0.808174
0.808158
0.808152
0.808152
0.808141
0.808122
0.808088
0.808042
0.807994
0.807962
0.807948
0.807918
0.807898
0.807889
0.807898
0.807908
0.807927
0.80796
0.808014
0.808104
0.808234
0.808517
0.808987
0.809693
0.810739
0.812233
0.814391
0.817466
0.821718
0.827484
0.83538
0.845122
0.857738
0.872455
0.889491
0.908717
0.926531
0.945216
0.963051
0.974567
0.986299
0.993984
0.997901
0.99988
0.99991
0.998847
0.998258
0.997804
0.996893
0.99606
0.996185
0.996882
0.997975
0.998009
0.99738
0.996171
0.99462
0.993841
0.994145
0.995106
0.996942
0.99839
0.999211
0.999142
0.998366
0.997731
0.997793
0.99821
0.998565
0.998322
0.99774
0.997287
0.997424
0.997782
0.998055
0.997873
0.997575
0.997618
0.997824
0.997903
0.997752
0.997512
0.997564
0.997764
0.997953
0.998024
0.998014
0.998032
0.998181
0.998526
0.998909
0.998969
0.998938
0.998814
0.998602
0.998446
0.998431
0.998539
0.998675
0.808
0.807996
0.80799
0.807985
0.807986
0.807986
0.80798
0.807968
0.80795
0.807934
0.807918
0.807904
0.807888
0.807867
0.807839
0.807793
0.807741
0.807709
0.807694
0.807693
0.807703
0.807756
0.807739
0.807733
0.807741
0.807762
0.807809
0.807902
0.808077
0.808395
0.809077
0.810277
0.812242
0.815254
0.820174
0.826891
0.836827
0.850399
0.865821
0.885783
0.907001
0.927892
0.946973
0.962754
0.975924
0.984617
0.986723
0.989651
0.992124
0.995691
0.998227
0.999126
1.00002
0.999841
0.99922
0.997897
0.996426
0.995062
0.994382
0.99464
0.99523
0.99609
0.996622
0.99749
0.997668
0.997927
0.998623
0.998566
0.998306
0.998078
0.997963
0.997935
0.99772
0.997521
0.99744
0.997628
0.997917
0.9979
0.99779
0.997746
0.997829
0.99786
0.997717
0.997571
0.997642
0.997868
0.997996
0.998046
0.998039
0.998111
0.998327
0.998717
0.998931
0.99895
0.998887
0.998705
0.998521
0.998447
0.998518
0.998652
0.807829
0.807824
0.80782
0.80782
0.80781
0.8078
0.807795
0.807794
0.80779
0.807783
0.807774
0.807768
0.807765
0.807762
0.807754
0.807744
0.807735
0.807721
0.807707
0.807699
0.807689
0.807668
0.807653
0.807631
0.807609
0.807603
0.807604
0.807629
0.807678
0.807827
0.807818
0.807816
0.807863
0.807987
0.808276
0.808846
0.810181
0.812654
0.817234
0.824014
0.83542
0.849608
0.86904
0.891537
0.91351
0.937231
0.956792
0.972215
0.982237
0.991768
0.995622
0.996766
0.997607
0.997396
0.995637
0.995255
0.995807
0.996986
0.997569
0.997396
0.996657
0.995882
0.995311
0.995586
0.996053
0.997215
0.99811
0.998393
0.998215
0.997785
0.997879
0.99814
0.99808
0.997789
0.997337
0.997365
0.997627
0.99812
0.998131
0.997944
0.99778
0.997827
0.997862
0.997753
0.997669
0.997767
0.997967
0.998047
0.99805
0.998095
0.998218
0.998512
0.998849
0.998972
0.998989
0.998835
0.998613
0.998469
0.99851
0.998626
0.807673
0.807668
0.807664
0.807659
0.807646
0.807631
0.807624
0.80762
0.807616
0.807614
0.807611
0.807608
0.807604
0.807601
0.807598
0.807596
0.807597
0.8076
0.807605
0.807613
0.807621
0.807626
0.807631
0.807635
0.80764
0.807646
0.807651
0.807652
0.807658
0.807669
0.807694
0.807725
0.807767
0.807829
0.807922
0.808161
0.808155
0.808198
0.808389
0.808845
0.810158
0.812802
0.818002
0.826505
0.840518
0.857806
0.880664
0.906744
0.929326
0.950046
0.965445
0.977121
0.983023
0.987462
0.990122
0.994944
0.998027
1.00022
1.00001
0.999294
0.997803
0.995563
0.994494
0.994903
0.996073
0.997297
0.997217
0.997379
0.997294
0.997546
0.998097
0.998435
0.998279
0.997893
0.99741
0.997356
0.997551
0.99789
0.998169
0.998094
0.997955
0.997888
0.997866
0.997813
0.997725
0.997748
0.997876
0.998042
0.99805
0.998078
0.998137
0.998328
0.998734
0.998935
0.999037
0.99895
0.998749
0.998533
0.998516
0.9986
0.807545
0.807545
0.807541
0.80753
0.807514
0.807497
0.807491
0.807489
0.807487
0.807484
0.80748
0.807478
0.807476
0.807474
0.807473
0.807474
0.80748
0.807488
0.807499
0.807512
0.807527
0.807541
0.807557
0.807577
0.807603
0.807631
0.807657
0.807685
0.807713
0.807742
0.807769
0.807802
0.807837
0.807875
0.807908
0.807962
0.80805
0.808142
0.808238
0.808451
0.808435
0.80848
0.80871
0.809426
0.811368
0.815227
0.823126
0.834969
0.854034
0.876327
0.902077
0.929546
0.950136
0.969649
0.98278
0.991669
0.994537
0.997387
0.99718
0.99541
0.994879
0.995395
0.996284
0.997335
0.997183
0.99673
0.995603
0.995669
0.996155
0.997428
0.998366
0.99831
0.998039
0.997731
0.997643
0.9977
0.99781
0.997806
0.997884
0.997999
0.998127
0.998094
0.997967
0.997855
0.997792
0.997781
0.997824
0.99796
0.998076
0.998084
0.998087
0.998194
0.99852
0.998936
0.999042
0.999
0.998857
0.99863
0.998522
0.998566
0.807438
0.807436
0.807435
0.807431
0.807421
0.807414
0.807413
0.80741
0.807408
0.807407
0.807408
0.807408
0.807409
0.807411
0.807414
0.807421
0.807433
0.807446
0.807461
0.80748
0.807501
0.807523
0.807548
0.807578
0.807612
0.807649
0.807689
0.807729
0.807771
0.807816
0.807859
0.807902
0.807946
0.80799
0.808028
0.808058
0.808101
0.808152
0.808197
0.808241
0.808315
0.808386
0.808507
0.808477
0.808498
0.808644
0.809285
0.810838
0.814665
0.82151
0.835026
0.853002
0.877976
0.905281
0.930663
0.954125
0.967023
0.979405
0.983879
0.988668
0.993408
0.998101
0.999941
0.999612
0.998197
0.995223
0.99457
0.994904
0.996203
0.997438
0.997787
0.997752
0.997473
0.997609
0.998007
0.998034
0.997901
0.997696
0.997681
0.997899
0.998173
0.998165
0.998054
0.997948
0.997887
0.997807
0.997816
0.997882
0.998027
0.998061
0.998058
0.998133
0.99836
0.998796
0.999042
0.999034
0.998959
0.998765
0.998551
0.998559
0.807425
0.807424
0.807423
0.807425
0.807426
0.807424
0.807423
0.807425
0.807429
0.807432
0.807434
0.807439
0.807446
0.807454
0.807462
0.807474
0.80749
0.807509
0.80753
0.807552
0.807574
0.807599
0.807627
0.807658
0.807694
0.807733
0.807772
0.807814
0.807861
0.807904
0.807947
0.807993
0.80804
0.80808
0.808121
0.808158
0.808188
0.808222
0.808249
0.808251
0.808258
0.808275
0.808295
0.80833
0.808375
0.808405
0.808372
0.808406
0.808632
0.809263
0.811047
0.814794
0.823366
0.836555
0.858657
0.884358
0.913574
0.941262
0.961885
0.981288
0.989723
0.994573
0.997021
0.995788
0.993276
0.993852
0.995362
0.996764
0.997101
0.996863
0.99632
0.996507
0.997038
0.997886
0.998435
0.998232
0.997808
0.997553
0.99773
0.997995
0.998208
0.998168
0.998092
0.998072
0.998006
0.99789
0.997823
0.997853
0.997936
0.997995
0.998039
0.998123
0.998292
0.998605
0.99898
0.999042
0.999021
0.998887
0.998634
0.998562
0.807572
0.807575
0.807575
0.807571
0.807571
0.807575
0.807585
0.807587
0.807586
0.807589
0.807596
0.807612
0.807619
0.807617
0.807618
0.80763
0.807662
0.807675
0.807681
0.807691
0.807709
0.80773
0.807752
0.807773
0.807797
0.807821
0.80785
0.807884
0.807921
0.807956
0.807992
0.808031
0.808066
0.808099
0.808133
0.808165
0.808193
0.80823
0.808263
0.808271
0.808268
0.80826
0.80825
0.808236
0.808238
0.808245
0.808245
0.808222
0.808206
0.808239
0.808349
0.808634
0.809458
0.811491
0.816629
0.826188
0.844171
0.867663
0.897084
0.926891
0.949413
0.967502
0.977815
0.984072
0.989549
0.996103
0.999331
0.998968
0.997596
0.994798
0.994948
0.995716
0.997326
0.998139
0.998003
0.997596
0.997579
0.997812
0.998114
0.998112
0.998065
0.998056
0.998128
0.998168
0.998096
0.997976
0.997866
0.997858
0.997863
0.997913
0.998015
0.998145
0.998269
0.998475
0.998837
0.999046
0.999061
0.998975
0.998751
0.99859
0.80789
0.807888
0.80789
0.807891
0.807885
0.807881
0.807883
0.807884
0.807882
0.807884
0.807887
0.807886
0.807884
0.807876
0.807872
0.80788
0.807884
0.807881
0.807878
0.807883
0.807883
0.807883
0.807889
0.80789
0.807889
0.807895
0.807907
0.807923
0.807944
0.807966
0.80799
0.808014
0.808038
0.808064
0.80809
0.808116
0.808142
0.808171
0.808204
0.808236
0.808257
0.80826
0.808255
0.808247
0.808229
0.808201
0.808165
0.808124
0.808093
0.808087
0.808108
0.808163
0.808244
0.808404
0.80882
0.809896
0.813042
0.819707
0.834058
0.854759
0.883984
0.916114
0.942507
0.968878
0.984365
0.992741
0.99632
0.995515
0.992292
0.992853
0.994856
0.997167
0.997816
0.997598
0.996756
0.996796
0.997527
0.998292
0.998282
0.998087
0.997904
0.997989
0.998196
0.998257
0.998167
0.998073
0.997975
0.997871
0.997811
0.997848
0.997986
0.998155
0.998244
0.998381
0.998656
0.998982
0.999059
0.999008
0.99885
0.998639
0.808265
0.808262
0.808258
0.808254
0.808249
0.808244
0.808239
0.808235
0.808231
0.808224
0.808217
0.808206
0.808193
0.808178
0.808164
0.808154
0.808142
0.808128
0.808112
0.808094
0.808073
0.808052
0.808032
0.80801
0.807992
0.807981
0.80797
0.807963
0.807962
0.807968
0.807976
0.807984
0.807995
0.808012
0.808033
0.808054
0.808075
0.808099
0.808132
0.808172
0.808212
0.808248
0.808275
0.808282
0.808276
0.808252
0.808204
0.808142
0.808066
0.807999
0.807983
0.808002
0.808039
0.808071
0.80812
0.808227
0.80845
0.809037
0.811019
0.815694
0.82732
0.84561
0.873699
0.906525
0.934564
0.959797
0.972985
0.982058
0.987374
0.994708
0.998784
0.998555
0.997555
0.995477
0.995725
0.996712
0.997911
0.99832
0.998201
0.99792
0.997976
0.998184
0.998255
0.998169
0.998107
0.998147
0.998103
0.997921
0.9978
0.997833
0.997977
0.998152
0.998227
0.998331
0.99852
0.998835
0.999058
0.999017
0.998926
0.998713
0.808519
0.80852
0.808521
0.80852
0.808519
0.808518
0.808516
0.808514
0.808509
0.808501
0.808492
0.808481
0.808468
0.808451
0.808434
0.808418
0.8084
0.808378
0.808353
0.808325
0.808291
0.808253
0.808214
0.808175
0.80814
0.808107
0.808074
0.808045
0.808025
0.808008
0.807994
0.807984
0.80798
0.807983
0.80799
0.807998
0.808011
0.808032
0.808067
0.808113
0.808165
0.808227
0.808291
0.808325
0.808328
0.808318
0.808288
0.808233
0.808153
0.808054
0.807941
0.807883
0.807878
0.80788
0.807888
0.807927
0.808006
0.808099
0.80819
0.808505
0.809791
0.813262
0.82294
0.839307
0.86732
0.900669
0.93145
0.963222
0.981197
0.991398
0.995546
0.994766
0.992455
0.993599
0.99557
0.997641
0.997931
0.997732
0.997412
0.997627
0.998296
0.998373
0.998184
0.998
0.998106
0.998215
0.998138
0.997964
0.997833
0.997875
0.997985
0.998101
0.998196
0.998301
0.998425
0.998653
0.99895
0.999009
0.998974
0.998791
0.80859
0.808599
0.808609
0.808618
0.808625
0.80863
0.808634
0.808638
0.80864
0.808638
0.808636
0.808635
0.808631
0.808624
0.808615
0.808604
0.808589
0.808571
0.808551
0.808525
0.808491
0.808454
0.808415
0.808373
0.808329
0.808285
0.808242
0.808198
0.808156
0.808119
0.808085
0.808052
0.808025
0.808009
0.807999
0.807991
0.807992
0.808006
0.808033
0.808071
0.808124
0.808193
0.808271
0.808338
0.808369
0.808367
0.808348
0.808308
0.808244
0.808151
0.80802
0.807862
0.807736
0.807703
0.807698
0.807711
0.807766
0.807864
0.808028
0.808083
0.808077
0.808175
0.809043
0.811772
0.820412
0.83575
0.86367
0.897113
0.928895
0.958478
0.970955
0.981321
0.987403
0.995966
0.998449
0.998208
0.996949
0.996135
0.996645
0.998006
0.99858
0.99834
0.997969
0.99806
0.998308
0.998286
0.998092
0.997944
0.997952
0.998013
0.998024
0.998058
0.998165
0.99829
0.998372
0.998511
0.998755
0.998968
0.999013
0.998877
0.808518
0.808532
0.808546
0.80856
0.808574
0.808588
0.808602
0.808616
0.80863
0.808643
0.808654
0.808664
0.808671
0.808678
0.808683
0.808684
0.808682
0.808678
0.808669
0.808655
0.808637
0.808616
0.80859
0.808558
0.808523
0.808485
0.808443
0.808396
0.808348
0.808299
0.808248
0.808195
0.808142
0.808092
0.808048
0.808019
0.808006
0.808005
0.808013
0.808035
0.808074
0.808133
0.808208
0.808286
0.808352
0.808387
0.808388
0.808369
0.808331
0.808264
0.808145
0.807958
0.80773
0.807584
0.807549
0.807545
0.807582
0.807672
0.807847
0.808031
0.808144
0.808208
0.808094
0.80808
0.808706
0.811161
0.819396
0.834256
0.862865
0.897078
0.930218
0.964431
0.981181
0.9922
0.994852
0.993883
0.993264
0.995282
0.997583
0.998567
0.998282
0.997528
0.997684
0.998284
0.998349
0.998156
0.997935
0.997989
0.998154
0.998127
0.998035
0.99805
0.998157
0.998261
0.998323
0.998415
0.998571
0.998835
0.998988
0.99891
0.808361
0.808374
0.808388
0.808403
0.808419
0.808435
0.808454
0.808474
0.808494
0.808516
0.808539
0.808563
0.808587
0.80861
0.808632
0.808654
0.808672
0.808685
0.808693
0.808698
0.808698
0.808696
0.808691
0.808679
0.808663
0.808643
0.808616
0.808581
0.80854
0.808495
0.808444
0.808383
0.808313
0.808235
0.808154
0.808079
0.808023
0.807994
0.807984
0.807983
0.807993
0.808025
0.808081
0.808156
0.808241
0.808323
0.808389
0.808415
0.80841
0.808382
0.808307
0.80816
0.807924
0.807661
0.80752
0.807491
0.807494
0.807556
0.80772
0.807946
0.808146
0.808221
0.808219
0.808192
0.807998
0.808022
0.8087
0.811181
0.819386
0.834364
0.863704
0.898685
0.931084
0.961531
0.972875
0.983059
0.990716
0.998617
0.998718
0.998009
0.996585
0.996907
0.998123
0.998684
0.998316
0.997761
0.997863
0.998205
0.998328
0.998216
0.998072
0.998106
0.99819
0.998229
0.998276
0.998342
0.998441
0.998659
0.998951
0.998918
0.808173
0.808187
0.808201
0.808218
0.808237
0.808258
0.808279
0.8083
0.808322
0.808348
0.808377
0.808406
0.808436
0.808466
0.808496
0.808527
0.808556
0.808583
0.808608
0.808632
0.808655
0.808677
0.808694
0.808702
0.808704
0.808702
0.808694
0.808675
0.80865
0.808618
0.808574
0.808518
0.80845
0.808372
0.808281
0.808181
0.808078
0.807986
0.807933
0.807923
0.807929
0.807953
0.807994
0.808042
0.80811
0.808212
0.808328
0.808407
0.808456
0.808473
0.808459
0.808395
0.808255
0.808025
0.807772
0.807631
0.807601
0.807612
0.807687
0.807858
0.808088
0.808246
0.808273
0.808251
0.808153
0.808
0.807959
0.808097
0.808923
0.811511
0.819986
0.835829
0.867198
0.903498
0.938712
0.972485
0.985214
0.995006
0.994886
0.992946
0.994595
0.997459
0.998789
0.998398
0.997367
0.997474
0.998091
0.998396
0.998236
0.998141
0.99816
0.998246
0.998236
0.998208
0.998232
0.998273
0.998337
0.998487
0.998774
0.998906
0.807992
0.808001
0.808012
0.808026
0.80804
0.808054
0.80807
0.808086
0.808105
0.808127
0.808149
0.808171
0.808196
0.808223
0.808256
0.808293
0.808333
0.808376
0.80842
0.808462
0.808501
0.80854
0.808572
0.808592
0.808599
0.808602
0.808607
0.808613
0.80861
0.808599
0.808579
0.80855
0.808508
0.808454
0.808384
0.808295
0.808186
0.808061
0.807937
0.807836
0.807787
0.807781
0.807783
0.807799
0.807844
0.807929
0.808065
0.808252
0.808424
0.808536
0.808593
0.808601
0.808571
0.808467
0.808265
0.808015
0.807848
0.807801
0.807795
0.807841
0.807983
0.808191
0.808307
0.808313
0.808268
0.808135
0.807973
0.807971
0.808043
0.808261
0.809112
0.811855
0.821235
0.839152
0.873115
0.911498
0.942314
0.969431
0.978197
0.987115
0.996945
0.998715
0.998147
0.996385
0.996681
0.998033
0.998655
0.998411
0.998058
0.998126
0.998388
0.998378
0.998271
0.998186
0.998212
0.998223
0.998254
0.998361
0.998567
0.998821
0.807864
0.80786
0.807856
0.807851
0.807847
0.807847
0.807847
0.807848
0.80785
0.807854
0.807858
0.807864
0.807871
0.80788
0.807893
0.807911
0.807936
0.80797
0.808017
0.808078
0.808146
0.808213
0.80827
0.808316
0.808356
0.808397
0.808442
0.808476
0.808491
0.808489
0.808486
0.808487
0.808478
0.80846
0.808432
0.808387
0.808315
0.80821
0.808074
0.807917
0.807767
0.807679
0.807663
0.807675
0.807723
0.807813
0.80793
0.808062
0.808221
0.808401
0.808581
0.80871
0.808738
0.808731
0.808662
0.808477
0.808218
0.80801
0.807928
0.80791
0.807944
0.808114
0.808324
0.808396
0.808392
0.808333
0.808176
0.808026
0.808014
0.808093
0.808195
0.808373
0.809229
0.812533
0.823765
0.84509
0.881715
0.921344
0.955247
0.981876
0.992216
0.99576
0.992389
0.993844
0.99713
0.998911
0.998481
0.997642
0.997769
0.998298
0.998531
0.998444
0.998285
0.998244
0.998221
0.998168
0.998181
0.998254
0.998386
0.998674
0.807823
0.807801
0.807781
0.807763
0.80775
0.80774
0.807732
0.807725
0.807718
0.807712
0.807706
0.807699
0.807691
0.807683
0.807674
0.807664
0.807658
0.807655
0.807655
0.807661
0.807675
0.807697
0.807727
0.807768
0.80783
0.807919
0.808022
0.808122
0.808211
0.808289
0.808354
0.808397
0.808429
0.808463
0.808483
0.808486
0.808473
0.808426
0.808338
0.808209
0.808047
0.807878
0.80775
0.807709
0.807722
0.807766
0.807837
0.807934
0.808054
0.808207
0.808405
0.808622
0.80874
0.808753
0.808749
0.808694
0.808531
0.808265
0.808012
0.807921
0.807912
0.807964
0.808174
0.808444
0.808533
0.808538
0.808483
0.808329
0.808145
0.808106
0.808129
0.80822
0.80822
0.808364
0.809507
0.814083
0.828095
0.853481
0.891984
0.933097
0.957015
0.976657
0.984543
0.995918
0.999039
0.998406
0.996543
0.997033
0.998156
0.998679
0.998547
0.998268
0.998332
0.998361
0.998254
0.998126
0.99813
0.99817
0.998235
0.998513
0.807966
0.807919
0.807876
0.807836
0.807799
0.807767
0.807738
0.807712
0.807693
0.807679
0.807666
0.807656
0.807645
0.807635
0.807623
0.807611
0.807597
0.807582
0.807565
0.807546
0.807525
0.807511
0.807503
0.807498
0.807501
0.807531
0.807591
0.80767
0.807766
0.807887
0.808039
0.808219
0.808391
0.808502
0.808558
0.808595
0.808634
0.808647
0.808629
0.808577
0.808492
0.80838
0.808242
0.808091
0.807972
0.807928
0.807923
0.807924
0.807947
0.808016
0.80814
0.808338
0.808551
0.808655
0.808672
0.808664
0.808605
0.808443
0.808167
0.807939
0.807896
0.807934
0.808084
0.808327
0.808587
0.808705
0.808717
0.808671
0.808476
0.808246
0.808152
0.808148
0.808159
0.80811
0.808114
0.808394
0.810312
0.816669
0.834704
0.865038
0.904418
0.946716
0.974945
0.991954
0.995771
0.992521
0.993988
0.996671
0.998773
0.998544
0.998017
0.998112
0.99848
0.998437
0.998286
0.99812
0.998124
0.998109
0.998105
0.99835
0.808297
0.808259
0.808217
0.808173
0.80813
0.808085
0.808038
0.807988
0.807939
0.80789
0.807842
0.807799
0.807764
0.807736
0.807713
0.80769
0.807664
0.80763
0.807593
0.807561
0.807534
0.807513
0.807502
0.807497
0.807493
0.807495
0.807515
0.807558
0.807625
0.807722
0.807856
0.808026
0.80821
0.808384
0.808533
0.808651
0.808734
0.808789
0.808794
0.808781
0.80877
0.808759
0.808733
0.808668
0.808559
0.808418
0.808246
0.808065
0.807966
0.80794
0.807938
0.807989
0.808104
0.808234
0.80836
0.808478
0.808525
0.808502
0.808362
0.808142
0.808003
0.808011
0.808097
0.80826
0.808479
0.80871
0.808803
0.808809
0.808724
0.808457
0.808233
0.808158
0.808123
0.8081
0.808096
0.808085
0.808157
0.808745
0.811799
0.820726
0.843988
0.878407
0.919479
0.955979
0.97277
0.983401
0.995631
0.998831
0.998374
0.996904
0.997487
0.998463
0.998663
0.998459
0.998176
0.99816
0.998157
0.998061
0.998002
0.998214
0.808621
0.808625
0.808628
0.808625
0.80862
0.808613
0.808599
0.808578
0.80855
0.808515
0.808469
0.808415
0.808355
0.808294
0.808236
0.808181
0.808123
0.808061
0.807995
0.807924
0.807852
0.807786
0.807726
0.807672
0.807629
0.807613
0.807622
0.807651
0.8077
0.807773
0.807872
0.807981
0.808091
0.808214
0.808353
0.80849
0.808608
0.808708
0.808807
0.80889
0.808929
0.808931
0.808925
0.808916
0.808893
0.808818
0.808659
0.808421
0.808145
0.807939
0.807865
0.807842
0.807839
0.807872
0.807976
0.808173
0.808408
0.808509
0.808492
0.808426
0.808346
0.808291
0.808281
0.808291
0.808366
0.808573
0.808761
0.808787
0.808751
0.808574
0.808303
0.808197
0.808164
0.808166
0.808181
0.808174
0.80819
0.808215
0.808416
0.809454
0.81434
0.826901
0.856701
0.895553
0.937443
0.97453
0.990234
0.996179
0.992427
0.994147
0.996958
0.998774
0.998535
0.998004
0.998125
0.9983
0.998217
0.9979
0.997932
0.998308
0.808828
0.808867
0.808917
0.808958
0.808977
0.808993
0.809012
0.809025
0.809033
0.809039
0.809042
0.809042
0.809026
0.808985
0.808936
0.808879
0.808813
0.808749
0.808685
0.808612
0.808532
0.808449
0.808361
0.808267
0.808173
0.808094
0.808029
0.807967
0.807913
0.807902
0.807915
0.807935
0.807966
0.808012
0.808064
0.808108
0.808161
0.808245
0.808363
0.808498
0.808627
0.80874
0.808847
0.808913
0.808927
0.808915
0.808871
0.80876
0.808566
0.808309
0.808051
0.807876
0.80782
0.80783
0.807919
0.808107
0.808304
0.808469
0.808549
0.808605
0.808641
0.808642
0.808554
0.808409
0.808379
0.808427
0.808576
0.808669
0.808656
0.808548
0.808352
0.808229
0.808214
0.808242
0.808306
0.80832
0.8083
0.808289
0.808288
0.808338
0.808707
0.810584
0.818234
0.83655
0.872349
0.917214
0.948872
0.974408
0.9835
0.996051
0.998794
0.998298
0.997009
0.997634
0.998508
0.998459
0.998029
0.9978
0.997997
0.998462
0.808844
0.808882
0.808917
0.808949
0.808976
0.808998
0.809017
0.809035
0.809054
0.809076
0.809107
0.809147
0.809164
0.809157
0.809131
0.809084
0.80905
0.809019
0.808972
0.808925
0.808893
0.808852
0.808797
0.808725
0.80864
0.808549
0.808451
0.808347
0.808247
0.808158
0.808061
0.807947
0.807867
0.807849
0.807838
0.807814
0.807803
0.80781
0.807849
0.807926
0.808031
0.80816
0.808309
0.80848
0.808689
0.808865
0.808924
0.808951
0.808947
0.808846
0.808647
0.808417
0.808196
0.80805
0.808072
0.808194
0.808313
0.808386
0.808498
0.80866
0.808783
0.808791
0.808736
0.808557
0.808423
0.808409
0.808434
0.808492
0.808508
0.808485
0.80842
0.808342
0.808315
0.808321
0.808368
0.808395
0.808386
0.808364
0.808332
0.808334
0.808355
0.808461
0.809221
0.812671
0.824922
0.851188
0.891738
0.937854
0.971896
0.99184
0.995368
0.992324
0.994849
0.997434
0.998698
0.998333
0.997591
0.997782
0.998396
0.998571
0.808303
0.808351
0.8084
0.808449
0.808501
0.80856
0.80862
0.808675
0.808728
0.808776
0.808812
0.808834
0.808863
0.808885
0.808858
0.808842
0.808847
0.80886
0.808864
0.808859
0.808849
0.808834
0.808807
0.808767
0.808723
0.808682
0.808632
0.808566
0.808482
0.808384
0.80828
0.808178
0.808069
0.807948
0.807831
0.807762
0.807728
0.807717
0.807714
0.807716
0.807741
0.807815
0.807929
0.808091
0.808367
0.808648
0.808827
0.808987
0.809106
0.809101
0.80898
0.808832
0.80875
0.808664
0.808579
0.808475
0.808368
0.808301
0.808301
0.808436
0.80869
0.808799
0.808772
0.808676
0.808554
0.808464
0.808446
0.808453
0.808466
0.808465
0.808474
0.80848
0.808467
0.808432
0.808402
0.80839
0.808385
0.808376
0.808358
0.808354
0.808383
0.808404
0.808431
0.808675
0.810281
0.816635
0.835922
0.869556
0.914423
0.953872
0.972877
0.984362
0.997826
0.998876
0.998239
0.996826
0.99726
0.998441
0.998775
0.998599
0.80766
0.807654
0.807649
0.807648
0.807665
0.807704
0.807748
0.807791
0.807832
0.807869
0.807896
0.80791
0.807917
0.807926
0.807946
0.807993
0.808089
0.808224
0.808363
0.808478
0.808555
0.808613
0.808673
0.808743
0.808781
0.808784
0.80878
0.808748
0.80866
0.808497
0.808408
0.808404
0.808384
0.808375
0.80841
0.808454
0.808459
0.808426
0.808349
0.808229
0.808048
0.807894
0.807869
0.807955
0.808224
0.808555
0.808806
0.80899
0.809092
0.809069
0.808915
0.808855
0.808907
0.808975
0.808957
0.808771
0.808409
0.808212
0.808187
0.808251
0.808389
0.808511
0.80862
0.808718
0.808739
0.808715
0.808655
0.808555
0.808492
0.808479
0.808501
0.808541
0.808536
0.808496
0.808419
0.808359
0.808339
0.80834
0.808346
0.808375
0.808445
0.808487
0.808491
0.808465
0.808514
0.809084
0.812581
0.823623
0.852436
0.892708
0.939286
0.975731
0.993145
0.995056
0.993013
0.994994
0.99788
0.998984
0.998752
0.998364
0.807419
0.80741
0.807401
0.807384
0.807371
0.807366
0.807367
0.807389
0.807427
0.807455
0.807469
0.807481
0.807494
0.807517
0.807563
0.807646
0.807777
0.807956
0.80816
0.808357
0.80851
0.808615
0.808678
0.808707
0.808705
0.80866
0.808605
0.808568
0.80849
0.808474
0.808493
0.808465
0.80847
0.808609
0.808933
0.809221
0.809275
0.809275
0.809256
0.809138
0.808833
0.80847
0.808274
0.808273
0.808358
0.808623
0.808871
0.80893
0.808854
0.80857
0.808431
0.808442
0.808613
0.80889
0.808948
0.808855
0.808536
0.808252
0.808174
0.808235
0.80831
0.80836
0.80845
0.808629
0.808866
0.808958
0.808966
0.808879
0.808649
0.808526
0.80852
0.808548
0.808551
0.808518
0.808436
0.808352
0.808328
0.808332
0.808372
0.808459
0.808542
0.808556
0.808534
0.808484
0.808395
0.808394
0.808628
0.810191
0.817075
0.836252
0.873504
0.920523
0.954532
0.975253
0.987152
0.997731
0.999024
0.998547
0.997905
0.998225
0.808333
0.808255
0.808165
0.808043
0.807935
0.807897
0.807868
0.807816
0.807799
0.807844
0.807877
0.807871
0.80789
0.807984
0.808111
0.808236
0.80835
0.808467
0.808641
0.808833
0.808952
0.808968
0.808937
0.808861
0.808765
0.808646
0.808479
0.808327
0.808275
0.808311
0.808354
0.80833
0.808367
0.808581
0.808964
0.809308
0.809509
0.809627
0.809611
0.809444
0.809086
0.808825
0.808646
0.80857
0.808649
0.808858
0.808956
0.808918
0.808672
0.808198
0.80797
0.807984
0.80814
0.808456
0.808738
0.808787
0.808696
0.808598
0.80852
0.808463
0.80848
0.808495
0.8085
0.80858
0.808842
0.809053
0.809072
0.809
0.808766
0.80851
0.808395
0.808386
0.80839
0.808417
0.808439
0.808435
0.808435
0.808456
0.808498
0.808556
0.808588
0.808574
0.808524
0.808425
0.808345
0.808303
0.808316
0.808438
0.809197
0.812854
0.826034
0.855944
0.898324
0.948774
0.978081
0.995134
0.994739
0.994949
0.996735
0.998407
0.809139
0.809131
0.809124
0.809135
0.809173
0.809182
0.809171
0.809124
0.809091
0.809129
0.809274
0.80934
0.809382
0.809494
0.809711
0.809772
0.80977
0.809775
0.80976
0.809676
0.809548
0.809419
0.80925
0.808986
0.808673
0.808337
0.807962
0.807677
0.807616
0.807632
0.807606
0.807574
0.807668
0.807996
0.808393
0.808697
0.808812
0.808882
0.808819
0.808486
0.808284
0.808344
0.808516
0.808616
0.808792
0.809022
0.809108
0.809062
0.808766
0.808274
0.808019
0.808036
0.808175
0.80838
0.808587
0.80877
0.808846
0.808927
0.808991
0.808989
0.808978
0.808902
0.808768
0.808727
0.80876
0.808892
0.808956
0.808913
0.808766
0.808541
0.808378
0.808329
0.808332
0.808373
0.808496
0.808621
0.808647
0.808636
0.808611
0.808608
0.808594
0.808535
0.808446
0.80838
0.808325
0.808324
0.808392
0.808468
0.808544
0.80884
0.810832
0.818402
0.8418
0.881108
0.924239
0.966573
0.977335
0.990746
0.998221
0.998161
0.808681
0.808756
0.808828
0.808895
0.808963
0.809081
0.809275
0.809328
0.809339
0.809413
0.809568
0.809654
0.809749
0.809925
0.810012
0.810028
0.810007
0.809926
0.809792
0.809611
0.80941
0.809211
0.808971
0.808627
0.808185
0.807741
0.807301
0.806944
0.806761
0.806773
0.806792
0.80685
0.807044
0.807414
0.807726
0.807743
0.807639
0.807621
0.807487
0.807363
0.807385
0.807591
0.807993
0.808382
0.808765
0.809083
0.809275
0.809311
0.809187
0.808886
0.808656
0.808635
0.808721
0.808786
0.808812
0.808877
0.808924
0.809015
0.809165
0.809183
0.809151
0.809061
0.808927
0.808807
0.808719
0.808644
0.808602
0.808571
0.80856
0.808578
0.808577
0.808525
0.808474
0.808499
0.8086
0.808722
0.808736
0.808712
0.808627
0.808538
0.80848
0.808426
0.80841
0.808377
0.808387
0.808467
0.808535
0.808556
0.808552
0.80855
0.80865
0.809524
0.814494
0.829393
0.86459
0.911
0.955067
0.98502
0.99478
0.994419
0.807033
0.807184