/*--------------------------------*- C++ -*----------------------------------*\
  =========                 |
  \\      /  F ield         | OpenFOAM: The Open Source CFD Toolbox
   \\    /   O peration     | Website:  https://openfoam.org
    \\  /    A nd           | Version:  7
     \\/     M anipulation  |
\*---------------------------------------------------------------------------*/
FoamFile
{
    version     2.0;
    format      ascii;
    class       volScalarField;
    location    "5";
    object      T;
}
// * * * * * * * * * * * * * * * * * * * * * * * * * * * * * * * * * * * * * //

dimensions      [0 0 0 1 0 0 0];

internalField   nonuniform List<scalar> 
90000
(
0.627796
0.754013
0.83474
0.903335
0.959106
0.979207
1.00095
1.03235
1.0468
1.05931
1.07453
1.0901
1.10762
1.12436
1.14063
1.16098
1.18168
1.20228
1.22454
1.24579
1.26662
1.28428
1.30318
1.3179
1.33283
1.33947
1.34688
1.3446
1.34099
1.33598
1.32981
1.32196
1.3161
1.31099
1.30621
1.30267
1.29893
1.29698
1.29498
1.29245
1.28715
1.27872
1.26775
1.25808
1.24948
1.24894
1.25016
1.25354
1.25716
1.26191
1.26642
1.2706
1.27023
1.26657
1.25824
1.24623
1.23411
1.2242
1.21707
1.21284
1.21296
1.21461
1.21669
1.21665
1.21462
1.20804
1.19832
1.18883
1.18242
1.17866
1.17915
1.17997
1.17984
1.17615
1.16876
1.16194
1.15631
1.15576
1.15578
1.15459
1.15001
1.14478
1.14032
1.14036
1.1407
1.13811
1.13455
1.13135
1.131
1.13236
1.13267
1.13133
1.13039
1.13124
1.13258
1.13357
1.13442
1.13566
1.13741
1.13981
0.493192
0.492953
0.492687
0.492407
0.492117
0.49182
0.491516
0.491204
0.490883
0.490544
0.49023
0.489707
0.490729
0.495806
0.506369
0.527761
0.556646
0.600047
0.651499
0.717073
0.783037
0.859161
0.930316
1.00735
1.07487
1.1395
1.19388
1.23956
1.27483
1.30254
1.32668
1.34509
1.36266
1.37394
1.38012
1.38645
1.38455
1.38199
1.37643
1.3719
1.36543
1.36192
1.35676
1.35776
1.3613
1.36478
1.36599
1.3656
1.36448
1.36287
1.35996
1.35362
1.34343
1.3332
1.32454
1.31891
1.31436
1.3101
1.30792
1.30505
1.30392
1.30247
1.2992
1.29169
1.28246
1.2736
1.26569
1.25935
1.25392
1.25024
1.24729
1.24291
1.23474
1.22576
1.21737
1.21173
1.20769
1.20528
1.20009
1.19202
1.18402
1.17809
1.17433
1.17209
1.16646
1.1601
1.15514
1.15185
1.15091
1.14865
1.14467
1.1426
1.14221
1.14294
1.14238
1.14132
1.14162
1.14278
1.14401
1.14491
0.490368
0.490143
0.4899
0.48964
0.489372
0.489097
0.488817
0.488531
0.488241
0.487943
0.487644
0.48735
0.487033
0.486723
0.486348
0.485966
0.485598
0.485258
0.484942
0.484655
0.484389
0.484151
0.483923
0.483738
0.483468
0.486429
0.50042
0.54325
0.605286
0.696466
0.790657
0.893169
0.978959
1.05963
1.12599
1.18217
1.23274
1.27599
1.31413
1.35011
1.37949
1.40913
1.43151
1.44996
1.45379
1.45188
1.44775
1.44113
1.43173
1.41957
1.40459
1.38748
1.37154
1.36609
1.36838
1.37172
1.37789
1.38371
1.39012
1.3892
1.38554
1.37801
1.36621
1.35449
1.3442
1.33936
1.33563
1.33576
1.33446
1.3303
1.32264
1.3122
1.30172
1.2949
1.2894
1.2842
1.27832
1.26885
1.25953
1.24998
1.24153
1.23492
1.22935
1.22087
1.21195
1.20378
1.19674
1.1913
1.18602
1.1797
1.17459
1.17058
1.1676
1.16355
1.16083
1.15945
1.15885
1.1584
1.15663
1.15534
0.486583
0.486393
0.486198
0.485998
0.485796
0.485595
0.485397
0.485198
0.485004
0.484815
0.48464
0.48447
0.484307
0.484143
0.483984
0.483832
0.483692
0.483565
0.483441
0.483323
0.483209
0.483106
0.483011
0.482915
0.482826
0.482745
0.482664
0.482577
0.482487
0.48241
0.482361
0.482323
0.48228
0.482202
0.485037
0.504314
0.559645
0.632017
0.743817
0.846708
0.962437
1.05352
1.13993
1.21096
1.2652
1.31241
1.34519
1.37359
1.38545
1.39852
1.39779
1.3979
1.39927
1.40755
1.41493
1.42079
1.4242
1.42665
1.428
1.42625
1.41884
1.41058
1.4037
1.40081
1.3995
1.3982
1.39705
1.39498
1.3925
1.38663
1.37883
1.37094
1.36497
1.35919
1.35608
1.35341
1.34731
1.33842
1.32726
1.31855
1.31105
1.30444
1.29559
1.28527
1.27455
1.26437
1.25538
1.24789
1.23997
1.23168
1.22343
1.21572
1.20912
1.20372
1.19845
1.19306
1.18826
1.18421
1.18239
1.17871
0.483889
0.483816
0.483745
0.483671
0.483595
0.483521
0.483444
0.483366
0.48329
0.483221
0.483158
0.483101
0.483045
0.482985
0.482923
0.482863
0.482811
0.482769
0.482731
0.482686
0.482635
0.482588
0.482545
0.482498
0.48245
0.48241
0.482383
0.482346
0.482289
0.482223
0.482181
0.482157
0.482123
0.482082
0.481999
0.481905
0.4818
0.481678
0.481634
0.481619
0.481553
0.481381
0.494774
0.53778
0.640773
0.757078
0.897655
1.01521
1.12108
1.21172
1.28931
1.36358
1.40793
1.43788
1.43946
1.44259
1.44184
1.44013
1.43335
1.4233
1.40822
1.40912
1.41324
1.41888
1.42508
1.42882
1.42865
1.42623
1.42013
1.4131
1.40828
1.40613
1.40713
1.40713
1.40452
1.39895
1.39177
1.38547
1.38122
1.37562
1.37164
1.36576
1.35738
1.34753
1.33802
1.33018
1.32229
1.31344
1.30417
1.2944
1.2854
1.27708
1.2698
1.26185
1.25381
1.24615
1.23913
1.2329
1.22757
1.21824
0.48295
0.482928
0.482905
0.482878
0.482853
0.482829
0.482804
0.482775
0.482745
0.482715
0.482684
0.482657
0.482639
0.482621
0.482594
0.48256
0.482526
0.482498
0.482481
0.482463
0.482434
0.482397
0.482358
0.482322
0.482283
0.482233
0.482172
0.482123
0.482077
0.482018
0.481944
0.481876
0.481809
0.481716
0.481634
0.481575
0.4815
0.481399
0.481351
0.481335
0.481271
0.481161
0.48103
0.480943
0.48085
0.480736
0.480595
0.480407
0.498054
0.562144
0.708973
0.880754
1.04837
1.16096
1.24079
1.30457
1.34139
1.37504
1.3847
1.39458
1.40196
1.41536
1.42745
1.43551
1.44152
1.44143
1.43976
1.43254
1.4249
1.41898
1.41851
1.42007
1.42321
1.42777
1.42613
1.41983
1.41434
1.4088
1.40973
1.41129
1.40895
1.40422
1.39716
1.39051
1.38534
1.38061
1.37678
1.37056
1.36264
1.35495
1.34836
1.34133
1.33319
1.32495
1.31647
1.3085
1.30101
1.29246
1.28493
1.27332
0.482565
0.482556
0.482547
0.482532
0.482514
0.482509
0.482509
0.482501
0.482484
0.482464
0.482438
0.482401
0.48238
0.482372
0.482358
0.482334
0.482295
0.482238
0.482193
0.482167
0.482136
0.482092
0.48205
0.482016
0.481976
0.481923
0.481853
0.481756
0.48165
0.48158
0.481531
0.481468
0.481379
0.481262
0.481171
0.48112
0.48107
0.480995
0.480907
0.480817
0.480722
0.480669
0.480657
0.48063
0.480574
0.48048
0.48036
0.480255
0.480174
0.480131
0.480106
0.480088
0.480029
0.505451
0.627573
0.776674
0.948398
1.07653
1.18973
1.29371
1.364
1.40929
1.41797
1.42693
1.43165
1.43356
1.42875
1.41764
1.41867
1.42041
1.42535
1.42964
1.43155
1.4303
1.42556
1.42
1.4202
1.42052
1.42273
1.4249
1.42341
1.41862
1.41482
1.4123
1.41256
1.41147
1.40821
1.40439
1.40049
1.3968
1.39337
1.38972
1.3852
1.37943
1.37483
1.36838
1.36073
1.35291
1.34653
1.33474
0.482305
0.482294
0.482281
0.482272
0.482262
0.482249
0.482229
0.482207
0.482188
0.482166
0.482142
0.482117
0.482086
0.48205
0.482022
0.481991
0.481946
0.481894
0.481852
0.481807
0.481739
0.481685
0.481665
0.481627
0.481562
0.481478
0.481405
0.481334
0.48124
0.481165
0.481117
0.481046
0.480949
0.480859
0.480791
0.480731
0.480678
0.480616
0.480534
0.480415
0.48033
0.48033
0.480347
0.480345
0.480327
0.480274
0.480193
0.480136
0.480106
0.480077
0.480057
0.48006
0.480058
0.479978
0.479867
0.479847
0.479839
0.484334
0.577665
0.744287
0.955584
1.10746
1.21348
1.29595
1.33712
1.37538
1.38316
1.39974
1.41338
1.42595
1.43506
1.43345
1.43139
1.4239
1.41656
1.41709
1.41979
1.42688
1.43183
1.43029
1.42501
1.42059
1.41949
1.42094
1.42276
1.42341
1.42235
1.42032
1.41983
1.42034
1.4201
1.41859
1.41606
1.41387
1.41057
1.40931
1.40595
1.40059
1.39626
1.38779
0.481937
0.481919
0.481899
0.481872
0.481848
0.48183
0.48181
0.481785
0.481762
0.481744
0.481718
0.481685
0.48166
0.481639
0.481608
0.481571
0.481514
0.48147
0.481434
0.481394
0.481336
0.481295
0.481266
0.481211
0.481114
0.481014
0.481012
0.481014
0.480976
0.480902
0.480804
0.480694
0.480586
0.480506
0.480451
0.480404
0.480368
0.480344
0.480313
0.480242
0.480189
0.480191
0.480211
0.480242
0.480253
0.480235
0.480179
0.480151
0.480127
0.480071
0.480031
0.480037
0.480058
0.480022
0.47995
0.479921
0.479868
0.47978
0.479705
0.479664
0.479721
0.491736
0.624738
0.800521
0.991736
1.13787
1.25685
1.35754
1.39666
1.41271
1.42217
1.42415
1.41923
1.40841
1.40989
1.41612
1.42439
1.42971
1.42904
1.42326
1.41675
1.4178
1.42135
1.42618
1.42623
1.42556
1.4248
1.4249
1.42664
1.42911
1.431
1.43083
1.4301
1.4307
1.43126
1.43023
1.4295
1.42773
1.42581
1.42189
0.481506
0.481486
0.481465
0.481444
0.481421
0.481397
0.481371
0.481339
0.481308
0.481283
0.481261
0.481234
0.481201
0.481169
0.481161
0.481162
0.481144
0.481093
0.481074
0.48107
0.481041
0.48098
0.480929
0.48089
0.480814
0.480754
0.480762
0.480768
0.480752
0.480699
0.480588
0.480452
0.480342
0.480266
0.480222
0.480195
0.480175
0.48017
0.480166
0.480146
0.480109
0.480102
0.480116
0.480154
0.48019
0.480182
0.480114
0.48004
0.480046
0.48003
0.479982
0.479983
0.480027
0.480038
0.480014
0.48001
0.479973
0.4798
0.479485
0.479342
0.479415
0.479766
0.479921
0.47982
0.479205
0.520302
0.721648
0.945635
1.13165
1.24363
1.33176
1.36423
1.38568
1.39368
1.41384
1.42603
1.42991
1.42877
1.41834
1.40974
1.41121
1.41751
1.42506
1.42616
1.42532
1.42414
1.42456
1.42746
1.43165
1.43399
1.43354
1.43319
1.43397
1.436
1.43853
1.43932
1.43916
1.43962
1.44026
1.43983
0.480987
0.480969
0.480951
0.480934
0.48092
0.480909
0.480897
0.480883
0.480869
0.480854
0.480829
0.480818
0.480821
0.480826
0.480826
0.480823
0.480815
0.480804
0.48079
0.480771
0.480749
0.480721
0.480682
0.480616
0.480569
0.480589
0.480669
0.480671
0.480646
0.48057
0.480432
0.480317
0.480251
0.480203
0.480141
0.480065
0.480023
0.48002
0.480023
0.48
0.479956
0.479934
0.479929
0.479933
0.479937
0.479917
0.479864
0.479886
0.479946
0.479951
0.479915
0.479906
0.479967
0.480031
0.480023
0.48002
0.48001
0.47985
0.479337
0.478945
0.47898
0.479269
0.479444
0.479365
0.479106
0.478703
0.478426
0.478129
0.524012
0.69096
0.922649
1.12077
1.27839
1.3716
1.41284
1.42253
1.42472
1.41715
1.39835
1.40104
1.4148
1.42326
1.42381
1.42299
1.42062
1.42139
1.42495
1.42968
1.43125
1.43246
1.43231
1.43307
1.43592
1.43881
1.44102
1.44131
1.44185
1.4431
1.44467
1.44593
0.480613
0.4806
0.480584
0.480565
0.480554
0.48055
0.480544
0.480535
0.480526
0.480526
0.48053
0.48054
0.480555
0.480577
0.480584
0.480581
0.480571
0.480554
0.480545
0.480546
0.480548
0.48053
0.480456
0.480374
0.480376
0.480485
0.480599
0.480597
0.480572
0.480489
0.480342
0.480216
0.480163
0.480142
0.480105
0.480016
0.479947
0.479923
0.479898
0.479824
0.47976
0.479725
0.479706
0.47972
0.479702
0.479666
0.479698
0.479815
0.479875
0.479877
0.479829
0.479789
0.479858
0.480001
0.479999
0.479989
0.479992
0.479836
0.479279
0.478677
0.478533
0.478461
0.478314
0.478136
0.478131
0.47806
0.477735
0.477365
0.477422
0.477917
0.478176
0.524476
0.720152
1.01014
1.18843
1.29244
1.36129
1.38266
1.38883
1.4112
1.42997
1.42875
1.42352
1.41548
1.4162
1.42051
1.42613
1.43015
1.42956
1.42949
1.43002
1.43227
1.43615
1.43824
1.43964
1.44105
1.44273
1.44474
1.44632
1.44776
0.480199
0.480189
0.480176
0.48017
0.48017
0.480165
0.480149
0.480132
0.480123
0.480124
0.480147
0.480195
0.480244
0.480282
0.480298
0.480298
0.480294
0.48029
0.480294
0.480306
0.480306
0.480256
0.480138
0.480107
0.480181
0.480422
0.480521
0.480521
0.480495
0.480391
0.480224
0.480081
0.480028
0.480031
0.48003
0.479999
0.47993
0.479888
0.479806
0.479609
0.479491
0.479467
0.479484
0.479541
0.479509
0.479499
0.479594
0.479737
0.479735
0.479677
0.479609
0.479596
0.4797
0.479876
0.479894
0.479899
0.479893
0.479717
0.479179
0.478524
0.478033
0.477648
0.477204
0.477033
0.477081
0.477201
0.477148
0.477006
0.477099
0.477653
0.478157
0.478045
0.477701
0.476841
0.55559
0.827299
1.06128
1.2573
1.36977
1.42082
1.42381
1.42336
1.4079
1.40971
1.41526
1.42063
1.42345
1.42529
1.42521
1.42582
1.42762
1.43106
1.43396
1.43549
1.43655
1.4383
1.44058
1.4427
1.44423
1.44641
0.479909
0.479901
0.47989
0.479884
0.479884
0.479887
0.479888
0.479885
0.479862
0.479833
0.47983
0.479842
0.47987
0.479882
0.479882
0.479884
0.479886
0.479888
0.4799
0.479938
0.479929
0.479844
0.479822
0.479873
0.480138
0.480411
0.480418
0.4804
0.480329
0.480208
0.48007
0.479948
0.479912
0.479939
0.47997
0.479962
0.47991
0.479875
0.479788
0.479542
0.479323
0.479304
0.479369
0.479476
0.479472
0.479455
0.4795
0.479558
0.47953
0.479369
0.47909
0.478916
0.478997
0.479051
0.479022
0.478967
0.478901
0.478741
0.47844
0.477968
0.477413
0.476832
0.476347
0.476306
0.476566
0.477051
0.477098
0.477
0.477052
0.477434
0.477622
0.477527
0.477391
0.476836
0.476802
0.47716
0.484744
0.667448
0.990835
1.1916
1.28752
1.35778
1.37529
1.41322
1.41941
1.41732
1.41426
1.41496
1.41685
1.42022
1.42399
1.42685
1.42738
1.42852
1.43013
1.43247
1.43483
1.43685
1.43877
1.44179
0.479728
0.479721
0.479716
0.479712
0.479705
0.479694
0.479691
0.479693
0.479685
0.479616
0.479554
0.479549
0.479539
0.479507
0.47948
0.479479
0.479483
0.479462
0.479436
0.479436
0.479497
0.479531
0.479572
0.47973
0.480027
0.480095
0.48006
0.479956
0.479919
0.479907
0.479859
0.479779
0.479801
0.479936
0.479985
0.479981
0.479895
0.479783
0.479639
0.47938
0.479193
0.479192
0.47931
0.479467
0.479484
0.47949
0.479467
0.479415
0.479341
0.479136
0.47869
0.478102
0.477572
0.477161
0.47691
0.476903
0.476919
0.476904
0.476861
0.476834
0.476671
0.476254
0.475976
0.476042
0.476712
0.477891
0.478189
0.477912
0.477364
0.477323
0.47722
0.477163
0.477219
0.478748
0.481243
0.482144
0.482342
0.484268
0.48623
0.569392
0.834247
1.08165
1.27181
1.35945
1.37614
1.39326
1.39712
1.40491
1.4053
1.40843
1.41071
1.41194
1.4135
1.4155
1.41802
1.42013
1.42205
1.42472
1.42739
1.43096
0.479578
0.479574
0.479569
0.47956
0.479558
0.479569
0.479576
0.479572
0.479543
0.47944
0.479336
0.479322
0.479323
0.479323
0.479325
0.479356
0.479359
0.479246
0.479069
0.479038
0.479052
0.479126
0.479255
0.479383
0.479453
0.479431
0.479326
0.479183
0.479159
0.479183
0.47921
0.479255
0.479441
0.479765
0.479865
0.479835
0.479627
0.479265
0.478941
0.47868
0.478461
0.478386
0.478494
0.478746
0.478876
0.478946
0.479028
0.479025
0.478917
0.478636
0.478092
0.477312
0.476536
0.476043
0.475941
0.475991
0.476087
0.476234
0.476397
0.476461
0.476402
0.47608
0.475935
0.476222
0.477345
0.478725
0.479305
0.479235
0.478521
0.477383
0.477136
0.477268
0.479121
0.483506
0.488535
0.488984
0.487998
0.488131
0.491124
0.495202
0.497962
0.522587
0.790534
1.02273
1.18349
1.30391
1.33389
1.36876
1.381
1.38557
1.38203
1.38471
1.38758
1.39156
1.39544
1.39696
1.39919
1.40314
1.40678
1.4111
0.479608
0.479571
0.47954
0.47951
0.479503
0.479512
0.479535
0.47953
0.479509
0.479464
0.479329
0.479232
0.4792
0.479153
0.479127
0.479153
0.479166
0.479025
0.478425
0.478014
0.478
0.478098
0.478259
0.478312
0.478306
0.47818
0.478065
0.478082
0.478271
0.478534
0.478574
0.478583
0.478682
0.478924
0.478972
0.478903
0.478677
0.478303
0.47788
0.477489
0.477185
0.477033
0.477031
0.477108
0.477206
0.477232
0.477275
0.477335
0.477336
0.477256
0.477086
0.476706
0.476042
0.475654
0.475632
0.475696
0.475834
0.47606
0.476388
0.476614
0.476603
0.476572
0.476708
0.477321
0.478425
0.479383
0.480017
0.480864
0.481759
0.481919
0.482569
0.484116
0.485692
0.488084
0.49158
0.493977
0.496154
0.49849
0.49974
0.501083
0.504777
0.509069
0.510023
0.513644
0.714333
0.964072
1.15161
1.2692
1.30312
1.33504
1.34635
1.35595
1.35404
1.3565
1.35902
1.36258
1.36678
1.37181
1.37522
1.38032
0.479392
0.479314
0.47922
0.479175
0.479163
0.479143
0.479073
0.478935
0.478793
0.478686
0.478566
0.478381
0.478231
0.478081
0.477889
0.477856
0.477802
0.477294
0.476339
0.476161
0.476223
0.476459
0.476679
0.476806
0.47693
0.477086
0.477208
0.47736
0.477654
0.477903
0.477912
0.477908
0.477932
0.477914
0.477849
0.477701
0.47747
0.477261
0.477145
0.477024
0.476844
0.476674
0.476516
0.476359
0.476198
0.476054
0.476015
0.476073
0.476348
0.476544
0.476607
0.476486
0.475965
0.475593
0.475572
0.475615
0.475789
0.476332
0.477467
0.478637
0.47935
0.479724
0.480174
0.481099
0.481902
0.482085
0.482277
0.483323
0.485662
0.488809
0.491524
0.493708
0.494571
0.494105
0.495132
0.499317
0.503544
0.507072
0.509289
0.510017
0.510556
0.513065
0.517199
0.519926
0.521796
0.523123
0.696091
0.923889
1.10662
1.22511
1.26149
1.29935
1.31452
1.32018
1.31749
1.31948
1.32534
1.33141
1.33531
1.34087
0.477995
0.478004
0.477967
0.477865
0.477776
0.477697
0.477607
0.477479
0.47737
0.477339
0.477283
0.477136
0.477011
0.477008
0.476996
0.476932
0.476671
0.475962
0.475561
0.475565
0.475691
0.475986
0.476317
0.476603
0.476914
0.477219
0.477273
0.477251
0.477192
0.477105
0.476926
0.476702
0.476666
0.476734
0.476807
0.476747
0.476666
0.476738
0.476874
0.476869
0.476763
0.476567
0.476324
0.475994
0.47581
0.47574
0.475716
0.475767
0.476097
0.476424
0.476583
0.476703
0.476437
0.476234
0.476359
0.476602
0.477342
0.478834
0.480723
0.482559
0.484203
0.485489
0.486233
0.487159
0.488474
0.488886
0.488585
0.488602
0.490116
0.493849
0.497512
0.500853
0.504269
0.505387
0.506054
0.507576
0.509314
0.511375
0.51503
0.51988
0.521155
0.521487
0.52319
0.526186
0.529599
0.531832
0.533145
0.534461
0.681956
0.891544
1.07465
1.19382
1.23268
1.26485
1.27989
1.28388
1.28706
1.28822
1.29166
1.29894
0.476899
0.477076
0.477106
0.477119
0.477156
0.477174
0.477167
0.477148
0.47716
0.477358
0.47756
0.477568
0.477544
0.47749
0.477382
0.477117
0.476876
0.476872
0.476922
0.477022
0.477227
0.477432
0.477427
0.477395
0.477328
0.477207
0.476948
0.476588
0.476383
0.476291
0.476165
0.475949
0.475904
0.476047
0.47632
0.476329
0.476326
0.476483
0.476739
0.476753
0.476672
0.47655
0.476345
0.475992
0.475802
0.475807
0.475818
0.475918
0.476497
0.477327
0.478171
0.479503
0.48122
0.482881
0.484123
0.48507
0.48599
0.487043
0.48822
0.488984
0.489659
0.490799
0.49181
0.492542
0.493654
0.495274
0.497244
0.499256
0.501512
0.504398
0.506974
0.50887
0.511145
0.512818
0.513833
0.515189
0.517067
0.519533
0.522271
0.526449
0.528955
0.529194
0.530027
0.532886
0.537267
0.539155
0.5398
0.541847
0.544362
0.546342
0.671191
0.869544
1.05088
1.1723
1.20802
1.23734
1.25686
1.25163
1.25358
1.25834
0.478401
0.478421
0.478416
0.478409
0.478407
0.478406
0.478378
0.47831
0.478307
0.478407
0.478544
0.47855
0.478524
0.478376
0.478315
0.478383
0.478422
0.478392
0.478343
0.478287
0.478162
0.477914
0.477651
0.477498
0.477383
0.477258
0.476981
0.476579
0.476297
0.476166
0.476037
0.475881
0.475847
0.475991
0.476374
0.47652
0.476574
0.476775
0.477194
0.477623
0.478084
0.478459
0.478717
0.478945
0.479278
0.479794
0.480467
0.481431
0.482744
0.484486
0.486806
0.489006
0.49084
0.492497
0.493576
0.494261
0.494753
0.495152
0.495338
0.495109
0.495017
0.495702
0.497696
0.500052
0.502485
0.505548
0.509357
0.512578
0.514133
0.515191
0.516256
0.516526
0.517083
0.518405
0.5206
0.523705
0.52815
0.531102
0.531342
0.53165
0.533271
0.535729
0.538694
0.541859
0.544309
0.545803
0.546917
0.549399
0.551856
0.554542
0.556907
0.557508
0.671107
0.870561
1.04775
1.15868
1.1924
1.21046
1.23015
1.22881
0.476866
0.476851
0.476873
0.476955
0.47719
0.477556
0.477756
0.477774
0.477763
0.47776
0.477802
0.47792
0.478038
0.478087
0.478135
0.47827
0.478481
0.478508
0.478498
0.478471
0.478351
0.478092
0.477798
0.477563
0.477513
0.477491
0.477389
0.477136
0.477149
0.477383
0.478006
0.478324
0.47858
0.479156
0.480266
0.481767
0.483168
0.484477
0.485868
0.487383
0.488931
0.490119
0.491029
0.492002
0.493063
0.493907
0.494468
0.494952
0.495333
0.495894
0.497007
0.497836
0.498089
0.498502
0.499152
0.499934
0.500927
0.501732
0.502679
0.504181
0.506275
0.508566
0.511305
0.514311
0.516871
0.518432
0.519802
0.521576
0.521891
0.52162
0.521796
0.523172
0.525931
0.529363
0.532053
0.534121
0.536872
0.538092
0.538011
0.538236
0.540335
0.544296
0.547958
0.54984
0.550385
0.551661
0.553868
0.557122
0.560475
0.56089
0.562017
0.564687
0.566373
0.5676
0.691093
0.881117
1.04158
1.15046
1.18156
1.20039
0.479688
0.480067
0.480392
0.480597
0.480751
0.481027
0.48162
0.482166
0.482353
0.482493
0.482777
0.483256
0.483854
0.484485
0.485214
0.485727
0.485946
0.486107
0.486376
0.48682
0.487327
0.487784
0.488171
0.48852
0.488921
0.489399
0.489834
0.490359
0.491184
0.49204
0.492764
0.493464
0.494252
0.495129
0.495727
0.496085
0.496594
0.497526
0.498612
0.499292
0.49978
0.500327
0.501082
0.501948
0.502853
0.503498
0.503878
0.503937
0.503889
0.503983
0.504811
0.505516
0.505689
0.50624
0.507861
0.510124
0.512453
0.51505
0.517521
0.519762
0.522098
0.524016
0.52482
0.52537
0.526014
0.525977
0.525965
0.526768
0.528428
0.529764
0.531254
0.533829
0.537318
0.541124
0.542719
0.542655
0.542827
0.543896
0.545838
0.548441
0.551274
0.554105
0.55568
0.556192
0.557405
0.55964
0.562131
0.56369
0.567155
0.569358
0.569194
0.570715
0.574182
0.577276
0.578204
0.578895
0.701601
0.913222
1.05931
1.16239
0.49604
0.496222
0.496347
0.496447
0.496562
0.49676
0.497124
0.497575
0.49775
0.497772
0.497818
0.498016
0.498429
0.498927
0.499253
0.499445
0.499595
0.49982
0.500148
0.500554
0.500987
0.501366
0.501722
0.50213
0.502589
0.503049
0.503399
0.503676
0.503929
0.504027
0.504143
0.504347
0.504757
0.504917
0.504768
0.504756
0.505003
0.505951
0.506372
0.506527
0.506892
0.507773
0.508937
0.509873
0.510897
0.512265
0.513585
0.514781
0.516108
0.517593
0.519144
0.520689
0.52218
0.523849
0.525422
0.526696
0.527816
0.528883
0.52957
0.529894
0.530504
0.531646
0.531779
0.5318
0.532201
0.532929
0.53398
0.535919
0.539125
0.542947
0.545945
0.547214
0.547601
0.548734
0.549861
0.549943
0.550246
0.551898
0.555462
0.558637
0.560355
0.561891
0.562599
0.563704
0.565091
0.567585
0.571243
0.572142
0.572905
0.57584
0.577813
0.579116
0.582104
0.583756
0.584853
0.587099
0.58814
0.601293
0.726279
1.04035
0.507793
0.507888
0.507972
0.508054
0.508115
0.508261
0.508555
0.508722
0.508779
0.508837
0.508951
0.509152
0.509392
0.509651
0.510001
0.510376
0.510754
0.511154
0.511553
0.51197
0.512391
0.512819
0.513291
0.51377
0.51429
0.514903
0.515533
0.516082
0.516597
0.517122
0.517711
0.51835
0.518957
0.519556
0.520188
0.520813
0.521392
0.521992
0.522714
0.523622
0.524611
0.525534
0.526355
0.527195
0.528257
0.529272
0.530152
0.531063
0.532006
0.532856
0.533526
0.53406
0.534499
0.535023
0.535617
0.536092
0.53645
0.536736
0.536772
0.536664
0.536894
0.538102
0.540182
0.542302
0.544491
0.546936
0.549556
0.551603
0.552745
0.553949
0.555536
0.555752
0.555184
0.555159
0.556216
0.558943
0.56182
0.563866
0.565835
0.568224
0.569003
0.569226
0.570494
0.572754
0.57504
0.576558
0.579053
0.581813
0.581647
0.581927
0.5843
0.587067
0.589445
0.590428
0.591319
0.593269
0.596414
0.597695
0.59823
0.725827
0.523868
0.5239
0.523952
0.524051
0.52419
0.524387
0.524596
0.524782
0.524914
0.525037
0.525228
0.525496
0.525801
0.526119
0.526406
0.526693
0.527041
0.527434
0.527814
0.52819
0.528606
0.529086
0.529583
0.530023
0.530452
0.530904
0.531419
0.531991
0.532538
0.533011
0.533398
0.533766
0.534147
0.534503
0.534877
0.535266
0.535648
0.536006
0.536371
0.536761
0.537327
0.537695
0.537856
0.538068
0.538405
0.538802
0.539098
0.539314
0.539518
0.539759
0.540067
0.540584
0.541273
0.542049
0.543048
0.544327
0.545683
0.547117
0.548805
0.550672
0.552415
0.553912
0.555637
0.557709
0.559275
0.560272
0.561431
0.561714
0.561461
0.561296
0.561845
0.563008
0.564334
0.565596
0.567606
0.570567
0.573778
0.575345
0.575473
0.576186
0.577242
0.57821
0.579304
0.581384
0.584789
0.586218
0.586529
0.588417
0.590086
0.590912
0.593272
0.595683
0.596613
0.598267
0.599772
0.601383
0.603172
0.604505
0.606119
0.608141
0.538773
0.53886
0.539009
0.539181
0.539337
0.539526
0.539767
0.539833
0.539757
0.539684
0.53975
0.540071
0.540394
0.540456
0.540489
0.540579
0.540769
0.540877
0.540929
0.540992
0.541123
0.541446
0.541852
0.541948
0.541872
0.541792
0.54188
0.542203
0.542934
0.543312
0.54342
0.543601
0.543952
0.544447
0.544937
0.545383
0.545919
0.546501
0.546987
0.547407
0.548183
0.549091
0.549283
0.549483
0.550031
0.551066
0.552325
0.553371
0.554185
0.554872
0.555669
0.556711
0.558027
0.55946
0.560838
0.562067
0.563262
0.56439
0.565361
0.566325
0.567073
0.567092
0.567125
0.567412
0.567771
0.56809
0.568616
0.569061
0.569545
0.570298
0.571895
0.574713
0.577965
0.580285
0.581482
0.582138
0.583187
0.583895
0.583984
0.584198
0.585689
0.588473
0.590885
0.592112
0.593959
0.595733
0.595764
0.595953
0.597705
0.600489
0.603096
0.604197
0.604129
0.6048
0.60743
0.609359
0.610393
0.612478
0.613779
0.61574
0.553618
0.553743
0.553882
0.554017
0.554151
0.554284
0.554413
0.554551
0.554718
0.554921
0.55511
0.555251
0.55543
0.555593
0.555686
0.555728
0.555864
0.556331
0.556493
0.556592
0.556813
0.557123
0.557546
0.557956
0.558278
0.558518
0.558711
0.559072
0.55954
0.56004
0.56054
0.560947
0.561237
0.561488
0.561776
0.562111
0.562458
0.562822
0.563236
0.563733
0.564282
0.564904
0.565582
0.566399
0.567137
0.56772
0.568314
0.569013
0.569652
0.570122
0.57045
0.570723
0.571104
0.571585
0.572065
0.57218
0.572313
0.57254
0.572849
0.573487
0.574408
0.574601
0.574797
0.575303
0.576449
0.578051
0.57989
0.582165
0.584671
0.586938
0.588376
0.589268
0.590253
0.59148
0.59156
0.591309
0.591492
0.592356
0.593973
0.595941
0.597725
0.599811
0.601854
0.602364
0.602349
0.603171
0.604784
0.605981
0.607836
0.60975
0.610535
0.611894
0.612793
0.614151
0.615831
0.6172
0.61951
0.620677
0.621258
0.623106
0.568833
0.568933
0.569043
0.56917
0.56927
0.569346
0.569513
0.569624
0.569653
0.569742
0.569967
0.570185
0.570371
0.570595
0.570669
0.570683
0.570749
0.571064
0.5715
0.571616
0.57174
0.572139
0.57236
0.572453
0.57268
0.573205
0.573573
0.573582
0.57359
0.573795
0.574556
0.574889
0.574945
0.575021
0.575336
0.575853
0.576278
0.576581
0.576895
0.577266
0.577548
0.577614
0.577778
0.578163
0.578214
0.578302
0.578588
0.579119
0.57987
0.580856
0.581581
0.582053
0.582587
0.583415
0.584119
0.584654
0.585245
0.586046
0.587024
0.588237
0.589721
0.591469
0.593152
0.594578
0.595791
0.596788
0.597554
0.597933
0.598366
0.599355
0.59974
0.599489
0.599132
0.599377
0.600095
0.601121
0.602537
0.604448
0.606724
0.608861
0.609853
0.610325
0.610938
0.611453
0.61172
0.612683
0.614621
0.617002
0.619033
0.619584
0.61972
0.620261
0.622206
0.624438
0.625013
0.626268
0.627196
0.627913
0.629389
0.631942
0.585604
0.585712
0.585828
0.585976
0.586104
0.586167
0.586262
0.586478
0.586621
0.586631
0.58664
0.586788
0.58721
0.587368
0.587329
0.587327
0.587496
0.587573
0.587564
0.587641
0.588117
0.588515
0.588471
0.588436
0.588494
0.588706
0.589188
0.589544
0.589686
0.589914
0.590252
0.590592
0.590938
0.591299
0.591674
0.592099
0.592523
0.592859
0.593182
0.593723
0.594153
0.594392
0.594632
0.595018
0.595653
0.596457
0.597013
0.597332
0.597621
0.598044
0.598651
0.599284
0.599873
0.600531
0.601349
0.602194
0.602877
0.603392
0.603794
0.604148
0.604404
0.60474
0.605082
0.605356
0.605761
0.606307
0.606519
0.606147
0.605913
0.606202
0.607322
0.608643
0.609944
0.611387
0.613453
0.61587
0.61766
0.618816
0.61946
0.620146
0.620285
0.620218
0.62049
0.621647
0.623559
0.625251
0.626396
0.627662
0.628011
0.628639
0.629202
0.630068
0.631293
0.632232
0.634036
0.635577
0.635819
0.63653
0.637603
0.639611
0.602918
0.602953
0.602984
0.603063
0.603265
0.603436
0.603503
0.603601
0.603732
0.603737
0.603696
0.603718
0.603858
0.604128
0.60457
0.604803
0.604785
0.604814
0.605107
0.60524
0.605246
0.605406
0.60564
0.605735
0.605945
0.60633
0.606422
0.606457
0.606698
0.607003
0.607061
0.607098
0.60726
0.607471
0.607645
0.607776
0.60796
0.608165
0.608432
0.608761
0.609141
0.609603
0.610054
0.610389
0.610914
0.611465
0.611542
0.611586
0.61172
0.612016
0.612408
0.612922
0.61329
0.613322
0.613425
0.613665
0.613975
0.614396
0.614961
0.615602
0.616204
0.616719
0.617174
0.617572
0.618105
0.61917
0.620803
0.622734
0.62425
0.625119
0.625995
0.627278
0.62872
0.629751
0.629965
0.630152
0.63032
0.630337
0.629983
0.629997
0.630415
0.631344
0.63254
0.633968
0.63575
0.636742
0.637608
0.637487
0.637663
0.638125
0.639292
0.640937
0.64218
0.643139
0.64385
0.644261
0.645032
0.645928
0.646887
0.648565
0.621398
0.621434
0.621423
0.621446
0.621653
0.621729
0.621697
0.621689
0.621741
0.622044
0.622228
0.622095
0.622031
0.622213
0.622661
0.622687
0.622597
0.622581
0.622733
0.623071
0.623115
0.623059
0.623048
0.623141
0.623517
0.623785
0.623808
0.623843
0.623977
0.62416
0.624367
0.624634
0.624856
0.625079
0.625374
0.625644
0.625924
0.626344
0.626517
0.626546
0.626581
0.62679
0.627118
0.627318
0.627487
0.627797
0.628266
0.628736
0.629203
0.629681
0.630087
0.630654
0.631199
0.631467
0.631701
0.632086
0.632665
0.63321
0.633597
0.634042
0.634708
0.63551
0.636288
0.636954
0.637421
0.637704
0.637889
0.638169
0.63869
0.639062
0.638943
0.638708
0.638489
0.638545
0.638295
0.638072
0.638267
0.639046
0.640179
0.641695
0.643449
0.645152
0.646698
0.647389
0.647591
0.647655
0.647695
0.647875
0.648477
0.649689
0.651062
0.651873
0.653063
0.653648
0.653444
0.653766
0.654479
0.65601
0.657145
0.658268
0.640895
0.640971
0.641118
0.641166
0.641073
0.64095
0.640948
0.641212
0.641393
0.641346
0.641266
0.64126
0.641484
0.641558
0.641588
0.641765
0.641857
0.641859
0.642
0.642143
0.642148
0.6422
0.642398
0.642604
0.642676
0.642716
0.642774
0.642896
0.643076
0.643191
0.643285
0.643348
0.64343
0.643598
0.643762
0.643853
0.64396
0.644147
0.644395
0.644652
0.644891
0.645142
0.64544
0.645727
0.645908
0.646148
0.646376
0.646449
0.646522
0.646644
0.646762
0.646927
0.64727
0.647635
0.647934
0.648325
0.648678
0.648707
0.64861
0.648587
0.648709
0.648781
0.648843
0.649084
0.649653
0.64993
0.649815
0.649565
0.649646
0.650187
0.650981
0.651657
0.652309
0.653251
0.654658
0.656151
0.657432
0.658447
0.659372
0.660013
0.660316
0.660204
0.659979
0.659574
0.659047
0.659152
0.659666
0.660523
0.661551
0.662769
0.663469
0.663799
0.663562
0.663624
0.664156
0.6649
0.665758
0.666676
0.666807
0.667116
0.661638
0.661703
0.661838
0.661891
0.661875
0.661869
0.662028
0.662115
0.66199
0.661822
0.661827
0.661967
0.662142
0.662216
0.662277
0.662356
0.662351
0.662331
0.662348
0.662417
0.662539
0.662587
0.662593
0.662639
0.662719
0.66279
0.662857
0.662906
0.662986
0.663129
0.663184
0.663217
0.663279
0.663405
0.6636
0.663726
0.663797
0.663843
0.663923
0.664074
0.664228
0.664324
0.664398
0.66447
0.664556
0.664672
0.664835
0.665048
0.665267
0.665432
0.66559
0.66584
0.665983
0.665966
0.665914
0.665967
0.666221
0.66657
0.666958
0.667451
0.667728
0.667805
0.667899
0.668149
0.668571
0.669067
0.669582
0.670092
0.670442
0.67066
0.670981
0.671401
0.671763
0.671911
0.67204
0.671925
0.671727
0.671323
0.670868
0.670198
0.669557
0.668762
0.668818
0.669183