/*--------------------------------*- C++ -*----------------------------------*\
  =========                 |
  \\      /  F ield         | OpenFOAM: The Open Source CFD Toolbox
   \\    /   O peration     | Website:  https://openfoam.org
    \\  /    A nd           | Version:  7
     \\/     M anipulation  |
\*---------------------------------------------------------------------------*/
FoamFile
{
    version     2.0;
    format      ascii;
    class       volVectorField;
    location    "5";
    object      U;
}
// * * * * * * * * * * * * * * * * * * * * * * * * * * * * * * * * * * * * * //

dimensions      [0 1 -1 0 0 0 0];

internalField   nonuniform List<vector> 
90000
(
(3.98416 -1.38543 0)
(3.92959 -1.20548 0)
(3.90148 -1.16565 0)
(3.86524 -1.00778 0)
(3.85161 -0.807414 0)
(3.85322 -0.801922 0)
(3.85615 -0.762303 0)
(3.84168 -0.63242 0)
(3.84567 -0.557327 0)
(3.85691 -0.517512 0)
(3.8628 -0.46819 0)
(3.86084 -0.394744 0)
(3.86769 -0.352933 0)
(3.86968 -0.284112 0)
(3.87913 -0.269735 0)
(3.8749 -0.183722 0)
(3.88534 -0.173371 0)
(3.87893 -0.0927042 0)
(3.8886 -0.0843786 0)
(3.88145 -0.00529171 0)
(3.89174 0.00167821 0)
(3.88591 0.0744734 0)
(3.89759 0.0761062 0)
(3.8962 0.140214 0)
(3.90137 0.134159 0)
(3.90008 0.171304 0)
(3.89589 0.157066 0)
(3.89223 0.169883 0)
(3.88835 0.163652 0)
(3.88864 0.161597 0)
(3.88851 0.15744 0)
(3.88642 0.152194 0)
(3.88983 0.139579 0)
(3.89016 0.129475 0)
(3.88827 0.120476 0)
(3.88809 0.109343 0)
(3.88293 0.0996678 0)
(3.88113 0.094389 0)
(3.87465 0.0916917 0)
(3.86776 0.0933178 0)
(3.86414 0.0980348 0)
(3.85958 0.10492 0)
(3.85575 0.113717 0)
(3.85386 0.12817 0)
(3.85894 0.131204 0)
(3.85946 0.129753 0)
(3.86012 0.126121 0)
(3.85847 0.122296 0)
(3.85769 0.11673 0)
(3.85711 0.110535 0)
(3.85761 0.101954 0)
(3.85875 0.0928169 0)
(3.86178 0.0864367 0)
(3.86336 0.0899119 0)
(3.86561 0.0985726 0)
(3.86777 0.108072 0)
(3.87236 0.121686 0)
(3.87167 0.132584 0)
(3.87841 0.137013 0)
(3.87943 0.138304 0)
(3.8796 0.134347 0)
(3.87832 0.12733 0)
(3.87869 0.118068 0)
(3.87826 0.102587 0)
(3.87903 0.0976929 0)
(3.87935 0.101833 0)
(3.88387 0.115366 0)
(3.885 0.127891 0)
(3.89117 0.13741 0)
(3.89218 0.137239 0)
(3.89274 0.132383 0)
(3.89358 0.12336 0)
(3.8957 0.108853 0)
(3.89632 0.112672 0)
(3.89839 0.121241 0)
(3.90372 0.13758 0)
(3.90466 0.140549 0)
(3.90486 0.137241 0)
(3.90497 0.124847 0)
(3.90631 0.118714 0)
(3.90843 0.12377 0)
(3.9121 0.134481 0)
(3.91293 0.135443 0)
(3.91342 0.133323 0)
(3.9144 0.120973 0)
(3.9157 0.124687 0)
(3.91628 0.129686 0)
(3.91833 0.133785 0)
(3.91843 0.131832 0)
(3.91818 0.122045 0)
(3.91853 0.117575 0)
(3.9187 0.119605 0)
(3.91872 0.120163 0)
(3.91808 0.118321 0)
(3.91757 0.1115 0)
(3.91708 0.107379 0)
(3.91631 0.104438 0)
(3.91537 0.100682 0)
(3.91453 0.096302 0)
(3.91318 0.0897838 0)
(4.04688 -1.52989 0)
(4.04688 -1.52994 0)
(4.04696 -1.52979 0)
(4.04699 -1.52984 0)
(4.04711 -1.52962 0)
(4.04708 -1.52978 0)
(4.0472 -1.52947 0)
(4.04713 -1.52968 0)
(4.04725 -1.52936 0)
(4.04714 -1.52965 0)
(4.04729 -1.52919 0)
(4.04714 -1.52964 0)
(4.04661 -1.52821 0)
(4.04452 -1.5194 0)
(4.04028 -1.50611 0)
(4.03273 -1.47562 0)
(4.02373 -1.44423 0)
(4.01107 -1.38218 0)
(3.99715 -1.3289 0)
(3.97847 -1.22493 0)
(3.96326 -1.15221 0)
(3.94043 -1.01091 0)
(3.92672 -0.924244 0)
(3.90142 -0.75026 0)
(3.89374 -0.666054 0)
(3.86599 -0.4745 0)
(3.86601 -0.416115 0)
(3.83791 -0.236431 0)
(3.84777 -0.199787 0)
(3.8249 -0.0659565 0)
(3.83453 -0.0449544 0)
(3.81562 0.0514281 0)
(3.82409 0.0650501 0)
(3.81144 0.124619 0)
(3.80996 0.154105 0)
(3.81858 0.163863 0)
(3.80844 0.197356 0)
(3.81491 0.209321 0)
(3.81198 0.23164 0)
(3.8143 0.240687 0)
(3.81539 0.258117 0)
(3.81581 0.255123 0)
(3.81315 0.241053 0)
(3.80891 0.207982 0)
(3.81335 0.179368 0)
(3.80856 0.14095 0)
(3.81263 0.123284 0)
(3.8098 0.096802 0)
(3.81481 0.0863021 0)
(3.81985 0.0723599 0)
(3.82369 0.0791159 0)
(3.82859 0.0946022 0)
(3.8311 0.118874 0)
(3.83641 0.145053 0)
(3.82994 0.17154 0)
(3.83146 0.183389 0)
(3.83537 0.188037 0)
(3.83233 0.175461 0)
(3.833 0.166615 0)
(3.82919 0.139894 0)
(3.83101 0.128561 0)
(3.83209 0.110126 0)
(3.8361 0.113509 0)
(3.83962 0.121187 0)
(3.84761 0.136952 0)
(3.85054 0.154667 0)
(3.85548 0.162747 0)
(3.85691 0.16028 0)
(3.85731 0.150297 0)
(3.8571 0.133011 0)
(3.85805 0.122197 0)
(3.86236 0.116143 0)
(3.86843 0.127488 0)
(3.87172 0.140231 0)
(3.87502 0.141783 0)
(3.87827 0.136951 0)
(3.88002 0.130545 0)
(3.88196 0.115788 0)
(3.88488 0.123628 0)
(3.88734 0.129638 0)
(3.8913 0.137501 0)
(3.89451 0.136134 0)
(3.89687 0.133464 0)
(3.89828 0.118895 0)
(3.90174 0.1267 0)
(3.90451 0.134204 0)
(3.90616 0.134729 0)
(3.908 0.131098 0)
(3.90897 0.124009 0)
(3.91048 0.119793 0)
(3.91136 0.126726 0)
(3.9124 0.126868 0)
(3.91242 0.121047 0)
(3.91314 0.109024 0)
(3.91323 0.10689 0)
(3.91306 0.108142 0)
(3.91236 0.105882 0)
(3.91124 0.100345 0)
(3.91111 0.0926222 0)
(3.91095 0.0874349 0)
(4.04694 -1.52938 0)
(4.04686 -1.5295 0)
(4.04683 -1.52948 0)
(4.04677 -1.52954 0)
(4.04682 -1.52928 0)
(4.04666 -1.52954 0)
(4.04669 -1.52927 0)
(4.04653 -1.52947 0)
(4.04654 -1.52924 0)
(4.04632 -1.52955 0)
(4.04636 -1.52915 0)
(4.04607 -1.52956 0)
(4.04614 -1.52907 0)
(4.04577 -1.52967 0)
(4.04575 -1.52951 0)
(4.04574 -1.52933 0)
(4.04565 -1.52931 0)
(4.04561 -1.52908 0)
(4.04542 -1.52917 0)
(4.04537 -1.52893 0)
(4.04512 -1.52916 0)
(4.0451 -1.52881 0)
(4.04478 -1.52915 0)
(4.04472 -1.52872 0)
(4.04441 -1.52929 0)
(4.04263 -1.52462 0)
(4.03667 -1.50801 0)
(4.02033 -1.45323 0)
(4.00003 -1.38416 0)
(3.96976 -1.25607 0)
(3.94368 -1.14256 0)
(3.91077 -0.967186 0)
(3.89029 -0.842555 0)
(3.86422 -0.678612 0)
(3.84616 -0.543372 0)
(3.83967 -0.449006 0)
(3.81599 -0.28138 0)
(3.83123 -0.26204 0)
(3.80562 -0.1071 0)
(3.8137 -0.102452 0)
(3.80257 -0.0110882 0)
(3.80732 -0.00391817 0)
(3.80721 0.0429612 0)
(3.80517 0.0494572 0)
(3.80269 0.070137 0)
(3.8018 0.0898778 0)
(3.80147 0.0901015 0)
(3.80165 0.0916484 0)
(3.80155 0.0987639 0)
(3.80119 0.106955 0)
(3.79861 0.114459 0)
(3.79287 0.124788 0)
(3.79142 0.12899 0)
(3.79219 0.133688 0)
(3.78873 0.133341 0)
(3.78522 0.126528 0)
(3.78429 0.124188 0)
(3.78291 0.122175 0)
(3.78419 0.11378 0)
(3.78518 0.110786 0)
(3.79243 0.101517 0)
(3.79529 0.10382 0)
(3.79974 0.107844 0)
(3.8018 0.118216 0)
(3.80903 0.114322 0)
(3.81001 0.113266 0)
(3.81157 0.112314 0)
(3.81295 0.109918 0)
(3.81323 0.111578 0)
(3.81443 0.109138 0)
(3.81831 0.114473 0)
(3.82388 0.121236 0)
(3.82801 0.126189 0)
(3.83388 0.131736 0)
(3.83719 0.131977 0)
(3.84007 0.127306 0)
(3.84059 0.11689 0)
(3.84713 0.117404 0)
(3.85228 0.124758 0)
(3.85718 0.132665 0)
(3.86161 0.13059 0)
(3.86505 0.128845 0)
(3.86876 0.117361 0)
(3.87252 0.124418 0)
(3.87731 0.129944 0)
(3.88211 0.131795 0)
(3.88599 0.128768 0)
(3.88883 0.12423 0)
(3.89119 0.120565 0)
(3.8942 0.124346 0)
(3.89669 0.120775 0)
(3.89933 0.113928 0)
(3.90112 0.107967 0)
(3.90216 0.109899 0)
(3.90295 0.108288 0)
(3.90377 0.102151 0)
(3.9048 0.095711 0)
(3.90521 0.0886272 0)
(3.90485 0.0904543 0)
(3.90497 0.0878172 0)
(4.0459 -1.52966 0)
(4.04585 -1.52952 0)
(4.04572 -1.52958 0)
(4.04561 -1.52956 0)
(4.04557 -1.52939 0)
(4.04546 -1.52936 0)
(4.04531 -1.52943 0)
(4.04519 -1.52942 0)
(4.04507 -1.52941 0)
(4.04491 -1.52947 0)
(4.04477 -1.5294 0)
(4.04459 -1.52941 0)
(4.04446 -1.52924 0)
(4.04427 -1.52926 0)
(4.04417 -1.52905 0)
(4.04394 -1.52911 0)
(4.04381 -1.52892 0)
(4.04356 -1.52895 0)
(4.04334 -1.52885 0)
(4.04308 -1.52882 0)
(4.04281 -1.52881 0)
(4.04258 -1.52867 0)
(4.04237 -1.52849 0)
(4.0421 -1.52849 0)
(4.04187 -1.52848 0)
(4.04171 -1.52821 0)
(4.04156 -1.52806 0)
(4.04144 -1.52794 0)
(4.04136 -1.52783 0)
(4.04124 -1.52774 0)
(4.0411 -1.52763 0)
(4.04093 -1.52748 0)
(4.04071 -1.52735 0)
(4.04053 -1.52729 0)
(4.03905 -1.52321 0)
(4.03109 -1.49988 0)
(4.01112 -1.42446 0)
(3.98918 -1.34384 0)
(3.95129 -1.16144 0)
(3.92757 -1.04473 0)
(3.88348 -0.797974 0)
(3.86946 -0.683866 0)
(3.82341 -0.426873 0)
(3.83524 -0.346836 0)
(3.78463 -0.103943 0)
(3.8093 -0.0590556 0)
(3.76388 0.0964086 0)
(3.77285 0.13106 0)
(3.74707 0.210771 0)
(3.73835 0.229099 0)
(3.73708 0.253622 0)
(3.73577 0.243372 0)
(3.73755 0.217933 0)
(3.74782 0.167805 0)
(3.75394 0.127446 0)
(3.76222 0.112393 0)
(3.76131 0.0987808 0)
(3.76123 0.0947733 0)
(3.76527 0.0917422 0)
(3.76304 0.11033 0)
(3.76594 0.130582 0)
(3.76533 0.146671 0)
(3.76693 0.165722 0)
(3.76458 0.164913 0)
(3.7635 0.158951 0)
(3.75904 0.139687 0)
(3.76059 0.130933 0)
(3.76292 0.115486 0)
(3.76649 0.117898 0)
(3.77124 0.125353 0)
(3.77717 0.134303 0)
(3.78208 0.138322 0)
(3.78761 0.13788 0)
(3.78855 0.12436 0)
(3.79161 0.119071 0)
(3.79368 0.119397 0)
(3.79678 0.12482 0)
(3.80339 0.135898 0)
(3.80982 0.133196 0)
(3.81624 0.133389 0)
(3.82055 0.131938 0)
(3.8235 0.125387 0)
(3.8289 0.125892 0)
(3.83517 0.126433 0)
(3.84138 0.128663 0)
(3.84742 0.12896 0)
(3.8527 0.126995 0)
(3.857 0.123649 0)
(3.86123 0.124229 0)
(3.86602 0.121305 0)
(3.87064 0.120129 0)
(3.87478 0.121358 0)
(3.87839 0.119329 0)
(3.88092 0.113685 0)
(3.88356 0.107776 0)
(3.88608 0.103926 0)
(3.88838 0.101434 0)
(3.89054 0.101573 0)
(3.89115 0.0966846 0)
(3.89299 0.0863336 0)
(4.04427 -1.52949 0)
(4.04419 -1.5294 0)
(4.04406 -1.52939 0)
(4.04394 -1.52937 0)
(4.0438 -1.52936 0)
(4.04375 -1.52912 0)
(4.04355 -1.52922 0)
(4.04343 -1.52915 0)
(4.0433 -1.52908 0)
(4.04319 -1.52896 0)
(4.043 -1.52902 0)
(4.04288 -1.52883 0)
(4.04267 -1.52885 0)
(4.04251 -1.52867 0)
(4.04234 -1.5286 0)
(4.04221 -1.52841 0)
(4.04208 -1.52832 0)
(4.04198 -1.52811 0)
(4.04183 -1.52796 0)
(4.04161 -1.52784 0)
(4.04139 -1.52776 0)
(4.04121 -1.52763 0)
(4.04106 -1.52745 0)
(4.04094 -1.52733 0)
(4.04081 -1.52726 0)
(4.04065 -1.52719 0)
(4.04048 -1.52702 0)
(4.04016 -1.52684 0)
(4.03995 -1.52672 0)
(4.03978 -1.52662 0)
(4.03969 -1.52658 0)
(4.03952 -1.52647 0)
(4.0393 -1.52637 0)
(4.03912 -1.52631 0)
(4.03896 -1.5262 0)
(4.03894 -1.52608 0)
(4.03895 -1.52601 0)
(4.0389 -1.52598 0)
(4.03878 -1.52598 0)
(4.03811 -1.52586 0)
(4.03746 -1.52561 0)
(4.03709 -1.52553 0)
(4.03074 -1.50741 0)
(4.01489 -1.45387 0)
(3.97856 -1.31072 0)
(3.9501 -1.15779 0)
(3.90443 -0.900484 0)
(3.88577 -0.742743 0)
(3.84551 -0.477986 0)
(3.84507 -0.379625 0)
(3.80985 -0.172193 0)
(3.81014 -0.112891 0)
(3.78179 -0.0256582 0)
(3.774 0.0149243 0)
(3.76205 0.0549531 0)
(3.76463 0.0595069 0)
(3.76037 0.0693204 0)
(3.7596 0.0802324 0)
(3.75472 0.089915 0)
(3.73922 0.111295 0)
(3.73206 0.135603 0)
(3.73183 0.140969 0)
(3.72933 0.139824 0)
(3.72654 0.132813 0)
(3.72698 0.124433 0)
(3.72882 0.116628 0)
(3.73512 0.107157 0)
(3.73773 0.106799 0)
(3.74278 0.110238 0)
(3.75045 0.123332 0)
(3.75152 0.132419 0)
(3.75307 0.135234 0)
(3.75299 0.133276 0)
(3.74757 0.131093 0)
(3.75673 0.116114 0)
(3.75694 0.110012 0)
(3.76253 0.114741 0)
(3.7664 0.121455 0)
(3.77202 0.132637 0)
(3.77467 0.124388 0)
(3.77741 0.121288 0)
(3.78094 0.118843 0)
(3.78728 0.12093 0)
(3.79314 0.126547 0)
(3.79936 0.129067 0)
(3.80503 0.131312 0)
(3.81014 0.126528 0)
(3.81562 0.119084 0)
(3.82168 0.115878 0)
(3.82774 0.116953 0)
(3.83334 0.115243 0)
(3.83847 0.108536 0)
(3.84358 0.10364 0)
(3.84857 0.0992781 0)
(3.85332 0.0986698 0)
(3.85725 0.0980846 0)
(3.86065 0.0947388 0)
(3.86437 0.086818 0)
(3.86765 0.0821674 0)
(3.87216 0.081406 0)
(4.04279 -1.52761 0)
(4.04266 -1.52761 0)
(4.04254 -1.52757 0)
(4.04244 -1.5275 0)
(4.04234 -1.52748 0)
(4.04222 -1.52743 0)
(4.04209 -1.52734 0)
(4.04194 -1.52733 0)
(4.04183 -1.52728 0)
(4.04172 -1.52722 0)
(4.0416 -1.5272 0)
(4.04149 -1.52715 0)
(4.04136 -1.52709 0)
(4.04123 -1.52701 0)
(4.04106 -1.52694 0)
(4.04097 -1.5269 0)
(4.04088 -1.52683 0)
(4.0408 -1.52678 0)
(4.04071 -1.52673 0)
(4.04051 -1.52663 0)
(4.0403 -1.52656 0)
(4.04019 -1.52653 0)
(4.04008 -1.5265 0)
(4.03996 -1.52649 0)
(4.0398 -1.52647 0)
(4.03963 -1.52643 0)
(4.03946 -1.52637 0)
(4.03941 -1.52633 0)
(4.03929 -1.52628 0)
(4.03911 -1.52621 0)
(4.03884 -1.52612 0)
(4.03865 -1.52607 0)
(4.03847 -1.52597 0)
(4.03829 -1.52582 0)
(4.03821 -1.52579 0)
(4.03802 -1.52571 0)
(4.0377 -1.52555 0)
(4.03725 -1.52541 0)
(4.03663 -1.52527 0)
(4.0359 -1.52505 0)
(4.03494 -1.52477 0)
(4.03429 -1.52453 0)
(4.03384 -1.52437 0)
(4.0332 -1.52456 0)
(4.03273 -1.52476 0)
(4.0326 -1.52482 0)
(4.03251 -1.52492 0)
(4.03247 -1.52513 0)
(4.0262 -1.50031 0)
(4.00846 -1.42259 0)
(3.96164 -1.18791 0)
(3.92976 -0.981475 0)
(3.85343 -0.563867 0)
(3.86806 -0.450989 0)
(3.78973 -0.126017 0)
(3.8173 -0.0740976 0)
(3.75622 0.111778 0)
(3.75256 0.141759 0)
(3.73534 0.223964 0)
(3.71681 0.217473 0)
(3.70805 0.200767 0)
(3.71797 0.149448 0)
(3.72368 0.125996 0)
(3.72631 0.119086 0)
(3.7239 0.111265 0)
(3.72827 0.110079 0)
(3.72969 0.11042 0)
(3.73635 0.119403 0)
(3.7398 0.134872 0)
(3.74242 0.134279 0)
(3.74147 0.132355 0)
(3.73926 0.127884 0)
(3.7371 0.118773 0)
(3.73159 0.114012 0)
(3.73493 0.123679 0)
(3.73937 0.130448 0)
(3.74335 0.131485 0)
(3.7444 0.128761 0)
(3.74544 0.124858 0)
(3.74485 0.127816 0)
(3.74732 0.118624 0)
(3.75129 0.121865 0)
(3.75636 0.126046 0)
(3.75942 0.128077 0)
(3.76308 0.125387 0)
(3.767 0.118591 0)
(3.77047 0.119792 0)
(3.77564 0.122248 0)
(3.78163 0.122628 0)
(3.78697 0.121102 0)
(3.79137 0.117303 0)
(3.79611 0.114824 0)
(3.80159 0.106926 0)
(3.8076 0.107234 0)
(3.81326 0.100842 0)
(3.81831 0.093961 0)
(3.82306 0.09015 0)
(3.82812 0.0885642 0)
(3.83273 0.0906765 0)
(3.83975 0.0859103 0)
(4.04121 -1.52705 0)
(4.04116 -1.52708 0)
(4.0411 -1.52707 0)
(4.04101 -1.52702 0)
(4.04094 -1.52698 0)
(4.04091 -1.52695 0)
(4.0409 -1.5269 0)
(4.04081 -1.52685 0)
(4.04074 -1.52681 0)
(4.04067 -1.52678 0)
(4.04056 -1.52673 0)
(4.04044 -1.52669 0)
(4.04042 -1.52669 0)
(4.04039 -1.52668 0)
(4.04027 -1.52663 0)
(4.04021 -1.52662 0)
(4.04011 -1.52658 0)
(4.03997 -1.52647 0)
(4.03991 -1.52638 0)
(4.03982 -1.52632 0)
(4.03966 -1.52624 0)
(4.03945 -1.52621 0)
(4.03937 -1.52623 0)
(4.03923 -1.52622 0)
(4.03904 -1.52617 0)
(4.03883 -1.52614 0)
(4.03856 -1.52608 0)
(4.03814 -1.52596 0)
(4.03786 -1.52591 0)
(4.0378 -1.5259 0)
(4.03756 -1.52582 0)
(4.03732 -1.52574 0)
(4.03712 -1.52561 0)
(4.0369 -1.52544 0)
(4.03675 -1.52538 0)
(4.03631 -1.52521 0)
(4.03559 -1.52497 0)
(4.03484 -1.52473 0)
(4.03427 -1.5246 0)
(4.03383 -1.5244 0)
(4.03347 -1.52404 0)
(4.03313 -1.52381 0)
(4.0327 -1.52369 0)
(4.03224 -1.52402 0)
(4.032 -1.52453 0)
(4.03196 -1.52478 0)
(4.03204 -1.5249 0)
(4.03205 -1.52523 0)
(4.032 -1.52531 0)
(4.03202 -1.5251 0)
(4.03216 -1.52475 0)
(4.03239 -1.52437 0)
(4.03262 -1.52396 0)
(4.02546 -1.49103 0)
(3.98577 -1.32032 0)
(3.95597 -1.12335 0)
(3.9005 -0.772567 0)
(3.89443 -0.622202 0)
(3.84327 -0.310272 0)
(3.86217 -0.227495 0)
(3.80776 -0.0636207 0)
(3.79939 -0.0118078 0)
(3.76832 0.0519176 0)
(3.76371 0.0636955 0)
(3.75101 0.0876866 0)
(3.74327 0.109405 0)
(3.7356 0.12548 0)
(3.73295 0.143332 0)
(3.73111 0.144821 0)
(3.72737 0.137281 0)
(3.72531 0.121036 0)
(3.72454 0.108449 0)
(3.72835 0.103885 0)
(3.72875 0.106452 0)
(3.73127 0.115883 0)
(3.73531 0.133418 0)
(3.73578 0.136344 0)
(3.73398 0.130364 0)
(3.73246 0.117843 0)
(3.73351 0.112511 0)
(3.7357 0.118415 0)
(3.7373 0.122338 0)
(3.74207 0.12957 0)
(3.74228 0.128409 0)
(3.74205 0.124871 0)
(3.74313 0.122613 0)
(3.74574 0.115012 0)
(3.74887 0.115651 0)
(3.75224 0.115202 0)
(3.75476 0.110733 0)
(3.75713 0.104197 0)
(3.76055 0.100353 0)
(3.76451 0.101732 0)
(3.76977 0.0975082 0)
(3.77364 0.0997108 0)
(3.77799 0.0948573 0)
(3.78277 0.0883992 0)
(3.78783 0.0859791 0)
(3.7924 0.0821711 0)
(3.80058 0.0770708 0)
(4.04032 -1.527 0)
(4.04026 -1.52701 0)
(4.04021 -1.527 0)
(4.04012 -1.52695 0)
(4.03998 -1.52688 0)
(4.03987 -1.52683 0)
(4.03972 -1.52672 0)
(4.03966 -1.52661 0)
(4.03959 -1.52657 0)
(4.0395 -1.52654 0)
(4.03941 -1.52649 0)
(4.0393 -1.52642 0)
(4.03915 -1.52636 0)
(4.03907 -1.52636 0)
(4.039 -1.52636 0)
(4.03889 -1.52635 0)
(4.03873 -1.52633 0)
(4.03865 -1.52618 0)
(4.03858 -1.52596 0)
(4.03843 -1.52584 0)
(4.0383 -1.52582 0)
(4.0383 -1.52584 0)
(4.03817 -1.52587 0)
(4.03772 -1.52575 0)
(4.03753 -1.52571 0)
(4.03734 -1.52565 0)
(4.03703 -1.52564 0)
(4.03657 -1.52554 0)
(4.0362 -1.52546 0)
(4.03612 -1.52544 0)
(4.03578 -1.52534 0)
(4.03506 -1.52508 0)
(4.03456 -1.52495 0)
(4.0341 -1.52477 0)
(4.03354 -1.52462 0)
(4.03296 -1.5246 0)
(4.03269 -1.52434 0)
(4.03215 -1.52395 0)
(4.03198 -1.52384 0)
(4.03194 -1.52364 0)
(4.03205 -1.52342 0)
(4.03219 -1.52308 0)
(4.03223 -1.52311 0)
(4.03241 -1.52338 0)
(4.03269 -1.52357 0)
(4.03275 -1.52372 0)
(4.03287 -1.5238 0)
(4.03295 -1.52405 0)
(4.03273 -1.52462 0)
(4.03264 -1.52508 0)
(4.03276 -1.52507 0)
(4.03306 -1.52476 0)
(4.03331 -1.52449 0)
(4.03334 -1.52427 0)
(4.03409 -1.52331 0)
(4.03466 -1.52267 0)
(4.03457 -1.52285 0)
(4.03316 -1.51742 0)
(4.00434 -1.38368 0)
(3.98231 -1.1753 0)
(3.91096 -0.70228 0)
(3.91476 -0.547295 0)
(3.81699 -0.144784 0)
(3.84657 -0.0809131 0)
(3.77595 0.12492 0)
(3.75894 0.160979 0)
(3.74048 0.219408 0)
(3.72514 0.194073 0)
(3.71994 0.148226 0)
(3.72484 0.134288 0)
(3.72316 0.115718 0)
(3.72487 0.114252 0)
(3.72625 0.1107 0)
(3.7362 0.125207 0)
(3.73763 0.136188 0)
(3.73656 0.138133 0)
(3.73262 0.133727 0)
(3.72858 0.122551 0)
(3.72849 0.110439 0)
(3.73073 0.111238 0)
(3.7353 0.118816 0)
(3.73715 0.131127 0)
(3.73728 0.130586 0)
(3.73673 0.124941 0)
(3.73602 0.117602 0)
(3.73426 0.116518 0)
(3.73499 0.119497 0)
(3.73593 0.119177 0)
(3.73623 0.117429 0)
(3.73601 0.113677 0)
(3.73704 0.107345 0)
(3.73898 0.10357 0)
(3.74107 0.0986576 0)
(3.74369 0.0980571 0)
(3.74538 0.0871515 0)
(3.74666 0.0886127 0)
(3.74947 0.0889825 0)
(3.75325 0.0850531 0)
(3.75651 0.0838976 0)
(3.763 0.0813831 0)
(4.03902 -1.52661 0)
(4.03896 -1.52658 0)
(4.03891 -1.52653 0)
(4.03885 -1.52645 0)
(4.03884 -1.52644 0)
(4.0388 -1.52642 0)
(4.03874 -1.52634 0)
(4.03867 -1.52627 0)
(4.03862 -1.52621 0)
(4.03851 -1.52614 0)
(4.03841 -1.52609 0)
(4.03835 -1.52606 0)
(4.03828 -1.52604 0)
(4.03805 -1.52597 0)
(4.03775 -1.52587 0)
(4.0375 -1.52578 0)
(4.03727 -1.52564 0)
(4.03711 -1.52556 0)
(4.03657 -1.52533 0)
(4.03618 -1.52516 0)
(4.03584 -1.52503 0)
(4.03569 -1.52499 0)
(4.03518 -1.52487 0)
(4.03451 -1.52464 0)
(4.03412 -1.52461 0)
(4.03396 -1.52463 0)
(4.03376 -1.52464 0)
(4.03298 -1.52485 0)
(4.03246 -1.52484 0)
(4.0323 -1.52484 0)
(4.03223 -1.52482 0)
(4.03216 -1.5248 0)
(4.03206 -1.52454 0)
(4.03196 -1.52427 0)
(4.03186 -1.52404 0)
(4.03171 -1.52408 0)
(4.03169 -1.52415 0)
(4.03183 -1.5238 0)
(4.03192 -1.52343 0)
(4.03204 -1.52299 0)
(4.03225 -1.52281 0)
(4.03243 -1.52282 0)
(4.03259 -1.52284 0)
(4.03285 -1.52279 0)
(4.03319 -1.52286 0)
(4.03329 -1.52302 0)
(4.03337 -1.52328 0)
(4.03359 -1.52375 0)
(4.03332 -1.52429 0)
(4.03304 -1.52476 0)
(4.03308 -1.52509 0)
(4.03336 -1.52529 0)
(4.0336 -1.52533 0)
(4.03364 -1.52516 0)
(4.03439 -1.52452 0)
(4.03507 -1.52346 0)
(4.03509 -1.52256 0)
(4.03472 -1.52234 0)
(4.03465 -1.52384 0)
(4.03454 -1.52644 0)
(4.03516 -1.52797 0)
(4.03283 -1.5122 0)
(3.99248 -1.32631 0)
(3.96599 -1.07874 0)
(3.90444 -0.654958 0)
(3.91292 -0.494305 0)
(3.84074 -0.155882 0)
(3.85244 -0.0966515 0)
(3.77347 0.0315347 0)
(3.77126 0.067564 0)
(3.75497 0.094826 0)
(3.74873 0.11571 0)
(3.73842 0.130698 0)
(3.73653 0.146321 0)
(3.73275 0.143948 0)
(3.73047 0.129708 0)
(3.7263 0.110424 0)
(3.72376 0.0997566 0)
(3.7257 0.104606 0)
(3.73142 0.11832 0)
(3.73505 0.130491 0)
(3.73515 0.131892 0)
(3.73455 0.12568 0)
(3.73405 0.118683 0)
(3.73238 0.113695 0)
(3.73183 0.11538 0)
(3.73189 0.117081 0)
(3.73158 0.11627 0)
(3.73063 0.11127 0)
(3.73081 0.104874 0)
(3.73012 0.100852 0)
(3.73009 0.100591 0)
(3.73018 0.0990213 0)
(3.7295 0.095563 0)
(3.7301 0.0942736 0)
(3.72967 0.084311 0)
(3.72989 0.0834951 0)
(3.73111 0.0822431 0)
(3.73233 0.0773134 0)
(3.73591 0.0731123 0)
(4.03674 -1.52554 0)
(4.03666 -1.52546 0)
(4.03655 -1.5254 0)
(4.03642 -1.52533 0)
(4.03625 -1.52525 0)
(4.03607 -1.52514 0)
(4.03588 -1.52505 0)
(4.03568 -1.52498 0)
(4.03551 -1.52492 0)
(4.03536 -1.52478 0)
(4.0352 -1.5246 0)
(4.03498 -1.52449 0)
(4.03473 -1.52444 0)
(4.03449 -1.52439 0)
(4.03429 -1.52426 0)
(4.03408 -1.52417 0)
(4.03376 -1.52417 0)
(4.03353 -1.52414 0)
(4.03334 -1.52406 0)
(4.03306 -1.52386 0)
(4.03281 -1.52371 0)
(4.03275 -1.52362 0)
(4.03272 -1.52353 0)
(4.03253 -1.52364 0)
(4.0323 -1.52384 0)
(4.0322 -1.52385 0)
(4.03202 -1.52384 0)
(4.03164 -1.52423 0)
(4.03142 -1.52471 0)
(4.03143 -1.52476 0)
(4.03151 -1.52478 0)
(4.03173 -1.52459 0)
(4.03183 -1.52434 0)
(4.0319 -1.52418 0)
(4.03202 -1.52405 0)
(4.03205 -1.52403 0)
(4.03205 -1.52414 0)
(4.03212 -1.52408 0)
(4.03222 -1.52374 0)
(4.03237 -1.52335 0)
(4.03263 -1.52308 0)
(4.03284 -1.52305 0)
(4.03302 -1.52304 0)
(4.03313 -1.52283 0)
(4.03339 -1.5226 0)
(4.0335 -1.52263 0)
(4.03366 -1.52298 0)
(4.03377 -1.52347 0)
(4.0337 -1.52413 0)
(4.03327 -1.52462 0)
(4.03307 -1.52529 0)
(4.03336 -1.5259 0)
(4.03387 -1.5263 0)
(4.03408 -1.52617 0)
(4.03457 -1.52569 0)
(4.03531 -1.5246 0)
(4.03533 -1.52339 0)
(4.03523 -1.52219 0)
(4.03568 -1.52325 0)
(4.03617 -1.52568 0)
(4.03625 -1.52668 0)
(4.03626 -1.52727 0)
(4.0357 -1.52696 0)
(4.03593 -1.52639 0)
(4.0376 -1.52521 0)
(4.03043 -1.47037 0)
(3.97306 -1.16107 0)
(3.9508 -0.816439 0)
(3.8592 -0.351701 0)
(3.83757 -0.130345 0)
(3.81314 0.0173603 0)
(3.75899 0.175145 0)
(3.74262 0.20132 0)
(3.73148 0.180277 0)
(3.73783 0.145488 0)
(3.73745 0.117702 0)
(3.72943 0.108906 0)
(3.72684 0.106929 0)
(3.73453 0.125555 0)
(3.73515 0.147332 0)
(3.73298 0.142296 0)
(3.73024 0.12872 0)
(3.73076 0.118612 0)
(3.72926 0.115801 0)
(3.72859 0.116614 0)
(3.72937 0.118344 0)
(3.72923 0.117137 0)
(3.72772 0.111614 0)
(3.72764 0.106258 0)
(3.72766 0.10165 0)
(3.72694 0.0984191 0)
(3.72695 0.0987812 0)
(3.72638 0.0965488 0)
(3.72485 0.0912824 0)
(3.72441 0.0872401 0)
(3.72301 0.0855702 0)
(3.7217 0.082756 0)
(3.72064 0.0818671 0)
(3.72023 0.0795674 0)
(3.72135 0.0760946 0)
(4.03431 -1.52414 0)
(4.03422 -1.52403 0)
(4.03414 -1.52394 0)
(4.03405 -1.52389 0)
(4.03398 -1.52379 0)
(4.0339 -1.52374 0)
(4.03381 -1.52378 0)
(4.03377 -1.52378 0)
(4.03376 -1.52375 0)
(4.03374 -1.52372 0)
(4.03371 -1.52365 0)
(4.03365 -1.52356 0)
(4.03353 -1.52354 0)
(4.03335 -1.52358 0)
(4.03321 -1.52351 0)
(4.0331 -1.52342 0)
(4.03302 -1.52344 0)
(4.033 -1.52337 0)
(4.03296 -1.52337 0)
(4.03288 -1.52352 0)
(4.03285 -1.52347 0)
(4.03292 -1.52323 0)
(4.03302 -1.52314 0)
(4.03304 -1.52313 0)
(4.03305 -1.52305 0)
(4.03306 -1.52282 0)
(4.03266 -1.52304 0)
(4.03192 -1.52394 0)
(4.03171 -1.52424 0)
(4.03162 -1.52434 0)
(4.03177 -1.52438 0)
(4.03213 -1.52444 0)
(4.03223 -1.52443 0)
(4.03222 -1.52439 0)
(4.03217 -1.52436 0)
(4.03222 -1.52443 0)
(4.03225 -1.52445 0)
(4.03231 -1.52436 0)
(4.03247 -1.52416 0)
(4.03263 -1.52397 0)
(4.03294 -1.5236 0)
(4.03314 -1.52342 0)
(4.03329 -1.52331 0)
(4.03353 -1.52274 0)
(4.034 -1.52214 0)
(4.03413 -1.52202 0)
(4.0344 -1.52244 0)
(4.03443 -1.52284 0)
(4.03421 -1.52373 0)
(4.03366 -1.52445 0)
(4.03317 -1.52565 0)
(4.03336 -1.52683 0)
(4.03395 -1.52757 0)
(4.03431 -1.52742 0)
(4.03471 -1.5269 0)
(4.0356 -1.52588 0)
(4.03592 -1.52438 0)
(4.03597 -1.52316 0)
(4.03687 -1.52384 0)
(4.03806 -1.52563 0)
(4.03788 -1.52599 0)
(4.03694 -1.52673 0)
(4.03516 -1.52752 0)
(4.03482 -1.52775 0)
(4.03643 -1.52608 0)
(4.03628 -1.52406 0)
(4.03608 -1.528 0)
(4.0336 -1.5328 0)
(4.0198 -1.47907 0)
(3.97839 -1.22556 0)
(3.93575 -0.881126 0)
(3.85498 -0.410085 0)
(3.8643 -0.231188 0)
(3.78324 -0.0210858 0)
(3.79127 0.0195315 0)
(3.7606 0.0698634 0)
(3.75115 0.103759 0)
(3.73554 0.125798 0)
(3.72932 0.147268 0)
(3.72403 0.146329 0)
(3.71656 0.124191 0)
(3.71751 0.098731 0)
(3.72039 0.103245 0)
(3.72353 0.113122 0)
(3.72434 0.120473 0)
(3.724 0.119135 0)
(3.72236 0.112092 0)
(3.7208 0.103859 0)
(3.72177 0.09671 0)
(3.72034 0.0984909 0)
(3.72188 0.0981658 0)
(3.72223 0.0964969 0)
(3.72185 0.0925207 0)
(3.72094 0.0864356 0)
(3.72152 0.0841344 0)
(3.7206 0.0843687 0)
(3.71906 0.081841 0)
(3.71772 0.0787507 0)
(3.71684 0.0756405 0)
(3.71701 0.0722052 0)
(4.03289 -1.52317 0)
(4.03289 -1.52316 0)
(4.0329 -1.52319 0)
(4.03292 -1.52313 0)
(4.03296 -1.52305 0)
(4.03297 -1.52302 0)
(4.033 -1.52303 0)
(4.03303 -1.52307 0)
(4.03306 -1.52314 0)
(4.0331 -1.52311 0)
(4.03314 -1.523 0)
(4.03308 -1.523 0)
(4.03299 -1.52293 0)
(4.03293 -1.52276 0)
(4.03282 -1.5228 0)
(4.03279 -1.5229 0)
(4.03284 -1.52292 0)
(4.03291 -1.52289 0)
(4.03299 -1.52284 0)
(4.03309 -1.52286 0)
(4.03317 -1.52299 0)
(4.03319 -1.52304 0)
(4.03346 -1.52287 0)
(4.03358 -1.52261 0)
(4.03362 -1.52236 0)
(4.0335 -1.52204 0)
(4.03257 -1.52277 0)
(4.0321 -1.52344 0)
(4.03194 -1.52362 0)
(4.03194 -1.52378 0)
(4.03215 -1.52391 0)
(4.03253 -1.52455 0)
(4.03261 -1.52485 0)
(4.03251 -1.52497 0)
(4.03237 -1.52495 0)
(4.03224 -1.52502 0)
(4.03242 -1.52525 0)
(4.03254 -1.52525 0)
(4.03258 -1.52521 0)
(4.03272 -1.52479 0)
(4.03329 -1.5244 0)
(4.03377 -1.52447 0)
(4.03444 -1.52426 0)
(4.03533 -1.52302 0)
(4.03532 -1.52204 0)
(4.03543 -1.52164 0)
(4.03546 -1.52168 0)
(4.03527 -1.52239 0)
(4.03482 -1.52358 0)
(4.03446 -1.52431 0)
(4.03392 -1.52567 0)
(4.03394 -1.52738 0)
(4.0346 -1.52851 0)
(4.03451 -1.52856 0)
(4.03452 -1.52818 0)
(4.0354 -1.52724 0)
(4.03613 -1.52563 0)
(4.03648 -1.52459 0)
(4.03769 -1.52447 0)
(4.03935 -1.52529 0)
(4.03882 -1.52629 0)
(4.03738 -1.52694 0)
(4.03474 -1.52802 0)
(4.03377 -1.52749 0)
(4.0333 -1.5276 0)
(4.03315 -1.5284 0)
(4.03356 -1.52897 0)
(4.03216 -1.53182 0)
(4.03062 -1.53331 0)
(4.02779 -1.53385 0)
(4.02616 -1.53585 0)
(4.01243 -1.47499 0)
(3.98446 -1.22216 0)
(3.86257 -0.575565 0)
(3.90409 -0.379897 0)
(3.77887 0.0589121 0)
(3.76815 0.134944 0)
(3.7317 0.220032 0)
(3.71401 0.198598 0)
(3.72391 0.150571 0)
(3.71703 0.108267 0)
(3.71816 0.103683 0)
(3.72112 0.109183 0)
(3.72195 0.125219 0)
(3.72075 0.124404 0)
(3.71783 0.115441 0)
(3.71633 0.104934 0)
(3.71756 0.100356 0)
(3.71855 0.100178 0)
(3.71789 0.100149 0)
(3.71756 0.0983683 0)
(3.71619 0.0936574 0)
(3.71491 0.0870841 0)
(3.71586 0.0843468 0)
(3.71676 0.0822953 0)
(3.71761 0.0818341 0)
(3.71714 0.0791423 0)
(3.71634 0.076024 0)
(3.71563 0.0728663 0)
(3.71562 0.0705522 0)
(4.0322 -1.52348 0)
(4.03223 -1.52351 0)
(4.03228 -1.52354 0)
(4.03235 -1.52359 0)
(4.0324 -1.52364 0)
(4.0324 -1.52366 0)
(4.03243 -1.52368 0)
(4.03251 -1.52369 0)
(4.03258 -1.52363 0)
(4.03266 -1.52353 0)
(4.03277 -1.52329 0)
(4.03276 -1.52305 0)
(4.03269 -1.52288 0)
(4.03271 -1.52259 0)
(4.03277 -1.52247 0)
(4.0328 -1.52262 0)
(4.03289 -1.52271 0)
(4.033 -1.52264 0)
(4.03314 -1.52256 0)
(4.03331 -1.52266 0)
(4.03342 -1.5229 0)
(4.03346 -1.52298 0)
(4.03396 -1.52258 0)
(4.0342 -1.52211 0)
(4.03437 -1.52175 0)
(4.03381 -1.52191 0)
(4.0328 -1.52271 0)
(4.03258 -1.523 0)
(4.03232 -1.52321 0)
(4.03232 -1.52333 0)
(4.03255 -1.52362 0)
(4.03284 -1.5246 0)
(4.03295 -1.52499 0)
(4.0329 -1.52536 0)
(4.03269 -1.52556 0)
(4.03245 -1.52551 0)
(4.03239 -1.52615 0)
(4.03236 -1.52675 0)
(4.03243 -1.52683 0)
(4.03301 -1.52664 0)
(4.03436 -1.52689 0)
(4.03467 -1.52688 0)
(4.03533 -1.5264 0)
(4.03567 -1.52461 0)
(4.03552 -1.52284 0)
(4.03618 -1.52153 0)
(4.03652 -1.52145 0)
(4.03571 -1.5227 0)
(4.03543 -1.52305 0)
(4.0357 -1.52397 0)
(4.03579 -1.52565 0)
(4.03597 -1.52796 0)
(4.03675 -1.52948 0)
(4.03598 -1.52969 0)
(4.03509 -1.52932 0)
(4.03502 -1.52865 0)
(4.03543 -1.5276 0)
(4.036 -1.52665 0)
(4.0379 -1.52507 0)
(4.03945 -1.52564 0)
(4.03892 -1.52721 0)
(4.03673 -1.52885 0)
(4.03412 -1.53048 0)
(4.03254 -1.53175 0)
(4.03202 -1.53154 0)
(4.03153 -1.53067 0)
(4.03139 -1.53093 0)
(4.03049 -1.53357 0)
(4.02948 -1.53439 0)
(4.02662 -1.5354 0)
(4.0245 -1.53721 0)
(4.02499 -1.53752 0)
(4.02599 -1.53676 0)
(4.02972 -1.53384 0)
(4.01661 -1.42797 0)
(3.94391 -1.01735 0)
(3.88424 -0.583953 0)
(3.88042 -0.290239 0)
(3.78464 -0.0380581 0)
(3.79187 0.0197188 0)
(3.75204 0.0672445 0)
(3.74456 0.101831 0)
(3.72125 0.133064 0)
(3.71672 0.130315 0)
(3.71797 0.115124 0)
(3.7175 0.0971167 0)
(3.71982 0.0920348 0)
(3.72104 0.0957829 0)
(3.72136 0.099801 0)
(3.72011 0.0986845 0)
(3.71775 0.0943484 0)
(3.71427 0.0878953 0)
(3.71252 0.079834 0)
(3.71383 0.0809283 0)
(3.71453 0.0802672 0)
(3.71516 0.0789826 0)
(3.71513 0.0762711 0)
(3.71497 0.0733813 0)
(3.71467 0.0718748 0)
(3.71417 0.069344 0)
(4.03146 -1.52442 0)
(4.03152 -1.52448 0)
(4.03159 -1.52453 0)
(4.03166 -1.52457 0)
(4.03177 -1.52461 0)
(4.03188 -1.52461 0)
(4.03192 -1.52462 0)
(4.03191 -1.52464 0)
(4.03192 -1.52459 0)
(4.03212 -1.52431 0)
(4.03224 -1.52419 0)
(4.03237 -1.52419 0)
(4.03253 -1.52427 0)
(4.03276 -1.52409 0)
(4.03299 -1.52382 0)
(4.03321 -1.52376 0)
(4.0334 -1.52387 0)
(4.03367 -1.52393 0)
(4.03411 -1.5239 0)
(4.03451 -1.52394 0)
(4.03452 -1.52401 0)
(4.03499 -1.52357 0)
(4.03542 -1.52277 0)
(4.0356 -1.52233 0)
(4.03546 -1.52181 0)
(4.03395 -1.52224 0)
(4.03321 -1.52254 0)
(4.03301 -1.52274 0)
(4.03299 -1.52284 0)
(4.03319 -1.523 0)
(4.03348 -1.52369 0)
(4.03369 -1.52455 0)
(4.03379 -1.52479 0)
(4.0338 -1.52499 0)
(4.03341 -1.52555 0)
(4.03321 -1.52556 0)
(4.03314 -1.52616 0)
(4.0331 -1.52759 0)
(4.03297 -1.52825 0)
(4.03351 -1.52824 0)
(4.03474 -1.5279 0)
(4.03495 -1.52796 0)
(4.0352 -1.52774 0)
(4.03478 -1.52615 0)
(4.03458 -1.52453 0)
(4.03538 -1.52261 0)
(4.03567 -1.52233 0)
(4.03562 -1.52304 0)
(4.0358 -1.52322 0)
(4.03636 -1.52386 0)
(4.03787 -1.52638 0)
(4.03979 -1.52842 0)
(4.04047 -1.53074 0)
(4.03746 -1.53181 0)
(4.03537 -1.53204 0)
(4.0338 -1.5323 0)
(4.03331 -1.5322 0)
(4.03372 -1.53186 0)
(4.03551 -1.53066 0)
(4.03706 -1.52866 0)
(4.03674 -1.52897 0)
(4.03481 -1.53183 0)
(4.03257 -1.534 0)
(4.03176 -1.53429 0)
(4.03113 -1.5336 0)
(4.03016 -1.53307 0)
(4.03006 -1.53316 0)
(4.0297 -1.53425 0)
(4.02896 -1.53472 0)
(4.02712 -1.53451 0)
(4.02642 -1.53503 0)
(4.02648 -1.53466 0)
(4.02612 -1.53551 0)
(4.03109 -1.53151 0)
(4.03484 -1.52887 0)
(4.03596 -1.53108 0)
(4.03307 -1.52526 0)
(4.00343 -1.28963 0)
(3.87762 -0.605089 0)
(3.9107 -0.374594 0)
(3.79521 0.058377 0)
(3.75264 0.153441 0)
(3.73649 0.192297 0)
(3.73238 0.131968 0)
(3.73241 0.109817 0)
(3.73738 0.102425 0)
(3.73909 0.10172 0)
(3.7356 0.105314 0)
(3.73357 0.105017 0)
(3.73098 0.100311 0)
(3.72862 0.0945986 0)
(3.72267 0.0842082 0)
(3.72087 0.0828455 0)
(3.7202 0.0826544 0)
(3.71936 0.0805862 0)
(3.71898 0.0779661 0)
(3.71842 0.0742721 0)
(3.71807 0.0735217 0)