/*--------------------------------*- C++ -*----------------------------------*\
  =========                 |
  \\      /  F ield         | OpenFOAM: The Open Source CFD Toolbox
   \\    /   O peration     | Website:  https://openfoam.org
    \\  /    A nd           | Version:  7
     \\/     M anipulation  |
\*---------------------------------------------------------------------------*/
FoamFile
{
    version     2.0;
    format      ascii;
    class       volScalarField;
    location    "4.5";
    object      p;
}
// * * * * * * * * * * * * * * * * * * * * * * * * * * * * * * * * * * * * * //

dimensions      [1 -1 -2 0 0 0 0];

internalField   nonuniform List<scalar> 
90000
(
0.803723
0.805352
0.807062
0.809931
0.814047
0.817702
0.82088
0.825568
0.829819
0.83371
0.837163
0.841179
0.844976
0.848892
0.852442
0.856347
0.859966
0.863731
0.867258
0.870914
0.874531
0.878394
0.882888
0.887247
0.892523
0.898024
0.904429
0.91115
0.918992
0.927579
0.937038
0.947034
0.956733
0.967168
0.975728
0.984976
0.991912
0.998544
1.00407
1.0089
1.01217
1.01637
1.02016
1.02328
1.02271
1.01902
1.00778
0.992676
0.978323
0.968972
0.964272
0.966051
0.969764
0.975092
0.980282
0.985844
0.990186
0.993151
0.994782
0.995861
0.995115
0.991701
0.985695
0.978328
0.972266
0.970764
0.971888
0.97559
0.981266
0.987921
0.992082
0.991816
0.989747
0.984044
0.978254
0.974368
0.975379
0.978103
0.981432
0.985002
0.985733
0.984311
0.981732
0.978738
0.980055
0.983308
0.98598
0.985439
0.983295
0.981778
0.981907
0.98365
0.984476
0.983755
0.981922
0.981534
0.981887
0.983705
0.984123
0.983191
0.803737
0.803923
0.804183
0.804482
0.804803
0.805221
0.805643
0.80644
0.808248
0.810419
0.812804
0.815578
0.818603
0.821821
0.825132
0.828716
0.832403
0.835916
0.839483
0.843162
0.846701
0.850315
0.853912
0.857742
0.861556
0.865888
0.870355
0.875173
0.880388
0.886158
0.892758
0.899704
0.907615
0.916012
0.925135
0.934418
0.944086
0.953513
0.962689
0.971867
0.97999
0.987009
0.993695
0.99827
1.00163
1.00384
1.00454
1.00697
1.00563
1.00181
0.995069
0.987132
0.980068
0.975391
0.972226
0.972558
0.974412
0.977401
0.980055
0.984216
0.988723
0.992389
0.995045
0.99313
0.988472
0.982393
0.977109
0.97359
0.973503
0.975619
0.979088
0.983716
0.990611
0.990483
0.98748
0.98092
0.976088
0.973827
0.975557
0.980484
0.98624
0.986594
0.984251
0.981332
0.980639
0.981559
0.983777
0.985185
0.984389
0.982849
0.982514
0.983288
0.983943
0.983992
0.98286
0.982138
0.982179
0.983207
0.983737
0.983278
0.805372
0.805385
0.805379
0.805348
0.805263
0.805183
0.805119
0.805123
0.805236
0.805294
0.805362
0.805528
0.805852
0.806336
0.806894
0.807524
0.808293
0.809165
0.810172
0.811397
0.813192
0.81534
0.817747
0.82046
0.82329
0.826399
0.829702
0.833271
0.836916
0.84107
0.845405
0.850282
0.855305
0.860946
0.867549
0.874397
0.882887
0.891439
0.901437
0.911555
0.922891
0.933422
0.945594
0.954952
0.965893
0.974148
0.982637
0.987549
0.990016
0.992557
0.996512
1.00057
1.00181
1.00035
0.996337
0.990519
0.984799
0.98055
0.977485
0.977587
0.978935
0.981856
0.985534
0.989542
0.99401
0.993739
0.990666
0.98341
0.976266
0.97137
0.972077
0.975304
0.980986
0.986544
0.991755
0.990379
0.983983
0.977714
0.975399
0.976787
0.980647
0.984642
0.987426
0.985576
0.982059
0.98
0.981141
0.983554
0.985586
0.984377
0.982365
0.982497
0.983585
0.984401
0.98375
0.981986
0.981593
0.982173
0.983556
0.983515
0.80699
0.806972
0.80699
0.807042
0.807084
0.807082
0.807064
0.807001
0.806868
0.806769
0.806778
0.806919
0.807082
0.807147
0.807199
0.807316
0.80753
0.807866
0.808307
0.80899
0.809235
0.80943
0.809729
0.810204
0.810758
0.811288
0.811861
0.812593
0.813537
0.814781
0.816246
0.818496
0.821124
0.824117
0.827669
0.831718
0.836722
0.842199
0.849141
0.85661
0.865699
0.875915
0.886886
0.900205
0.913316
0.927384
0.942684
0.9558
0.968254
0.97825
0.984218
0.988216
0.990522
0.990798
0.991106
0.991022
0.989956
0.987387
0.983415
0.979398
0.978091
0.978635
0.980104
0.982382
0.984617
0.984656
0.985104
0.984894
0.983135
0.97964
0.976099
0.974372
0.975101
0.977184
0.981583
0.984634
0.988082
0.98704
0.982972
0.978412
0.977323
0.979285
0.982749
0.986952
0.986348
0.983453
0.980623
0.981069
0.98298
0.985362
0.984244
0.982614
0.982874
0.983895
0.984442
0.983177
0.981832
0.981991
0.982984
0.983577
0.809969
0.809932
0.809929
0.809943
0.810012
0.810108
0.810119
0.810088
0.81008
0.810117
0.810291
0.81046
0.810504
0.810511
0.810489
0.810461
0.810486
0.810654
0.811066
0.811253
0.811262
0.811296
0.811484
0.811856
0.812109
0.812265
0.812478
0.812863
0.813389
0.813926
0.814678
0.814796
0.814927
0.815128
0.81544
0.815896
0.816535
0.817785
0.819591
0.822054
0.825233
0.829544
0.83471
0.842021
0.849824
0.860699
0.872596
0.886664
0.902922
0.91842
0.934372
0.94599
0.959465
0.966254
0.97316
0.977528
0.981326
0.98238
0.983796
0.986537
0.987108
0.986429
0.985178
0.984011
0.981657
0.979184
0.979427
0.98041
0.98234
0.984255
0.983821
0.981268
0.9775
0.974709
0.975556
0.979028
0.982987
0.985075
0.986249
0.984548
0.981269
0.978734
0.979508
0.981894
0.983954
0.985549
0.983927
0.98173
0.981539
0.982728
0.98492
0.984289
0.983092
0.98284
0.983534
0.983512
0.982567
0.981826
0.982217
0.983369
0.81319
0.813193
0.813148
0.813085
0.813088
0.81314
0.813197
0.813336
0.813489
0.813525
0.813522
0.81346
0.813421
0.81345
0.813454
0.813422
0.813479
0.813698
0.813795
0.813717
0.813662
0.813696
0.81385
0.813895
0.81387
0.813873
0.813969
0.814246
0.814393
0.814435
0.814481
0.814546
0.814661
0.814854
0.815148
0.815476
0.815986
0.815959
0.815851
0.815844
0.815928
0.816134
0.816568
0.817497
0.81909
0.821809
0.825564
0.831627
0.839284
0.850527
0.863597
0.880392
0.89724
0.915756
0.934296
0.948026
0.963025
0.973004
0.980768
0.983744
0.984306
0.983795
0.983106
0.980326
0.975458
0.97589
0.977527
0.979489
0.981369
0.982588
0.98277
0.982405
0.981154
0.978426
0.976958
0.978257
0.979763
0.982511
0.983851
0.984262
0.984048
0.982422
0.980052
0.980211
0.981328
0.983101
0.983938
0.983668
0.98266
0.981982
0.982767
0.983884
0.984477
0.983752
0.983122
0.983159
0.982956
0.98225
0.981968
0.982691
0.816283
0.816326
0.816333
0.816312
0.816201
0.816157
0.816167
0.816231
0.816345
0.816401
0.816398
0.816361
0.816341
0.816415
0.816657
0.816834
0.817034
0.817114
0.817092
0.817095
0.817141
0.817195
0.817205
0.817169
0.817039
0.816999
0.81708
0.817279
0.817361
0.817338
0.817245
0.817056
0.816783
0.816714
0.816763
0.816809
0.816777
0.816614
0.816358
0.81607
0.815854
0.815688
0.815497
0.815275
0.814923
0.814576
0.814549
0.814807
0.815539
0.817302
0.820421
0.826318
0.834318
0.84675
0.860405
0.879188
0.897936
0.917284
0.935164
0.948111
0.957957
0.963808
0.969931
0.971422
0.974619
0.979789
0.982425
0.982473
0.982171
0.981122
0.979819
0.979877
0.98018
0.981393
0.981262
0.980799
0.980448
0.980614
0.98106
0.982431
0.983069
0.983688
0.982805
0.981161
0.980967
0.981426
0.98272
0.983312
0.983469
0.982916
0.98242
0.982906
0.98356
0.984037
0.983623
0.98327
0.983087
0.982609
0.982103
0.982458
0.817308
0.81734
0.817369
0.817381
0.81738
0.817383
0.817401
0.817408
0.8174
0.817392
0.817398
0.817484
0.817669
0.817772
0.817836
0.817857
0.817828
0.81782
0.817873
0.817917
0.817911
0.817869
0.817858
0.817863
0.817909
0.81808
0.818226
0.818215
0.818213
0.81831
0.818371
0.81836
0.818331
0.818332
0.818422
0.818498
0.818482
0.818387
0.818044
0.817461
0.81687
0.816368
0.815926
0.81546
0.814935
0.814372
0.813974
0.813457
0.812911
0.812601
0.812593
0.812848
0.813658
0.815596
0.81893
0.825263
0.834017
0.848435
0.865111
0.885573
0.907026
0.92696
0.945052
0.960961
0.972788
0.978405
0.981174
0.981214
0.97963
0.974873
0.975357
0.977552
0.980878
0.983655
0.983617
0.983226
0.982123
0.980074
0.979837
0.980256
0.981996
0.983326
0.983197
0.982631
0.981521
0.981165
0.981646
0.98275
0.983108
0.983202
0.98295
0.982867
0.983039
0.983572
0.983854
0.983683
0.983442
0.9831
0.982457
0.98265
0.817189
0.817208
0.817235
0.817286
0.817319
0.817343
0.81736
0.817364
0.81735
0.817334
0.817354
0.817458
0.817607
0.817718
0.817783
0.817781
0.817748
0.81774
0.817776
0.817783
0.817749
0.817699
0.817696
0.817704
0.817773
0.817945
0.818024
0.818031
0.818017
0.818015
0.817993
0.817855
0.817782
0.817772
0.817804
0.817864
0.817868
0.817831
0.817844
0.817799
0.817604
0.817294
0.816897
0.816425
0.815888
0.815215
0.814232
0.813322
0.812747
0.812455
0.812171
0.811866
0.811832
0.811846
0.811918
0.812206
0.813162
0.815563
0.820085
0.82797
0.840237
0.85756
0.877619
0.900886
0.923857
0.939497
0.953233
0.962181
0.96699
0.970585
0.977776
0.982303
0.983971
0.98426
0.983513
0.981505
0.980754
0.980207
0.98051
0.981118
0.981569
0.982072
0.982116
0.982145
0.982294
0.982062
0.982054
0.982184
0.982629
0.982983
0.983261
0.98313
0.983048
0.983186
0.983568
0.98394
0.98378
0.983513
0.983029
0.9829
0.816442
0.816461
0.816473
0.816507
0.816589
0.816623
0.81664
0.816652
0.816653
0.816664
0.816766
0.816828
0.81683
0.816883
0.817072
0.817203
0.81719
0.817161
0.817152
0.817079
0.816852
0.816624
0.816583
0.8166
0.816612
0.816587
0.816468
0.816344
0.816265
0.816106
0.815788
0.81564
0.815609
0.815605
0.815665
0.815849
0.815923
0.815895
0.815844
0.81581
0.81573
0.815564
0.815341
0.815088
0.814751
0.814216
0.813879
0.813694
0.813451
0.812993
0.812353
0.811845
0.811673
0.811669
0.811684
0.811732
0.811846
0.812014
0.812159
0.812615
0.813967
0.817755
0.824782
0.837596
0.856286
0.879186
0.905438
0.927096
0.950061
0.966694
0.976068
0.980258
0.982586
0.981277
0.976922
0.977276
0.97936
0.981874
0.982491
0.982183
0.980862
0.979738
0.980463
0.981491
0.98278
0.982786
0.982523
0.982008
0.982166
0.982686
0.983256
0.983223
0.983027
0.983052
0.983281
0.983756
0.983803
0.983705
0.983518
0.983119
0.815114
0.815117
0.815127
0.815156
0.815207
0.815246
0.815266
0.815281
0.815299
0.815318
0.815314
0.815263
0.815205
0.815214
0.8153
0.815334
0.8153
0.815299
0.815302
0.815229
0.815036
0.814825
0.814748
0.814734
0.814724
0.814661
0.814507
0.814366
0.814244
0.81398
0.813675
0.813615
0.813639
0.813645
0.813677
0.813756
0.813764
0.81373
0.813693
0.813702
0.813762
0.813809
0.813844
0.813833
0.813708
0.813385
0.813293
0.813273
0.813204
0.813037
0.812669
0.812193
0.81187
0.811771
0.811754
0.811758
0.811834
0.811963
0.812039
0.811977
0.811743
0.811709
0.811983
0.813751
0.817754
0.827281
0.840718
0.862023
0.885702
0.911121
0.932848
0.947634
0.960943
0.966118
0.972202
0.97865
0.98366
0.983885
0.98332
0.980708
0.978671
0.978996
0.980263
0.982311
0.982825
0.982619
0.982061
0.981925
0.982273
0.982876
0.983156
0.983069
0.982925
0.982963
0.983227
0.983474
0.983626
0.98371
0.983733
0.983432
0.813036
0.813045
0.813051
0.813059
0.813079
0.813108
0.813134
0.813163
0.813204
0.813212
0.813177
0.813123
0.813096
0.813101
0.81313
0.81313
0.813119
0.813147
0.813161
0.813107
0.812966
0.812887
0.812889
0.812889
0.812864
0.812672
0.812462
0.812439
0.812407
0.812269
0.81212
0.812091
0.812138
0.81223
0.812238
0.812172
0.812062
0.812034
0.812012
0.811969
0.811981
0.812067
0.812209
0.812305
0.812322
0.812357
0.812485
0.812652
0.812688
0.812613
0.812477
0.812309
0.812086
0.811978
0.812003
0.812085
0.812274
0.812537
0.812717
0.812737
0.812598
0.812438
0.812433
0.812438
0.812702
0.813494
0.815652
0.821316
0.830947
0.848343
0.869845
0.897629
0.922268
0.946422
0.967936
0.976193
0.981847
0.981416
0.977604
0.975537
0.977154
0.980368
0.98277
0.982711
0.98221
0.981002
0.981238
0.982068
0.982817
0.982841
0.982768
0.982697
0.982798
0.98299
0.9831
0.983191
0.98339
0.983743
0.983879
0.983627
0.811044
0.811069
0.811093
0.811118
0.811143
0.811157
0.811167
0.811194
0.811208
0.811184
0.811153
0.811136
0.811132
0.811153
0.811172
0.811166
0.811146
0.811144
0.811174
0.811222
0.811238
0.811256
0.811276
0.811271
0.811214
0.811057
0.810866
0.810745
0.810644
0.810551
0.810528
0.810555
0.810588
0.810586
0.810522
0.810356
0.810111
0.809946
0.809905
0.809871
0.809865
0.809929
0.810082
0.810255
0.810457
0.81074
0.811112
0.81153
0.811915
0.81216
0.812184
0.812096
0.811917
0.811775
0.811781
0.811907
0.812148
0.812471
0.81289
0.813305
0.813439
0.813381
0.813256
0.813252
0.81341
0.813653
0.813734
0.814129
0.815405
0.818358
0.825182
0.837668
0.857583
0.883624
0.911025
0.933162
0.95343
0.96074
0.966515
0.974166
0.981888
0.983332
0.98311
0.98092
0.979579
0.980029
0.981648
0.983081
0.983047
0.982674
0.982271
0.982505
0.982839
0.983066
0.982872
0.982936
0.98328
0.983895
0.983986
0.98377
0.81057
0.810575
0.81058
0.810585
0.810598
0.810602
0.810595
0.810591
0.810578
0.810561
0.810553
0.810543
0.810542
0.810547
0.810536
0.810524
0.810517
0.810508
0.810501
0.810505
0.810531
0.810578
0.810617
0.810629
0.810597
0.810513
0.81039
0.810266
0.81021
0.810184
0.810193
0.810233
0.810238
0.810212
0.810129
0.809947
0.809654
0.809419
0.809309
0.809224
0.809179
0.809178
0.809215
0.809346
0.809585
0.809905
0.810257
0.810615
0.810983
0.811315
0.811432
0.811413
0.811333
0.811183
0.811088
0.811175
0.811486
0.812
0.812648
0.813128
0.813346
0.813331
0.813275
0.813409
0.813657
0.813743
0.813724
0.813709
0.813896
0.814234
0.814868
0.816508
0.821082
0.831282
0.849031
0.875418
0.903636
0.931562
0.958878
0.971709
0.978939
0.980889
0.977786
0.975268
0.977258
0.980831
0.982862
0.982725
0.982153
0.981789
0.982116
0.982652
0.982747
0.982618
0.982432
0.982728
0.983351
0.983761
0.983843
0.983816
0.810534
0.810526
0.810527
0.810526
0.810526
0.810533
0.810531
0.810489
0.810468
0.81047
0.810458
0.810442
0.810447
0.810452
0.810441
0.810411
0.810395
0.810383
0.810364
0.810347
0.810348
0.810356
0.810344
0.810364
0.810368
0.810315
0.810261
0.810251
0.810364
0.810689
0.810806
0.810815
0.810812
0.810765
0.810674
0.810532
0.810323
0.810072
0.809741
0.809367
0.809178
0.809147
0.809152
0.809209
0.809378
0.809697
0.81016
0.81069
0.811204
0.811658
0.812022
0.812257
0.812312
0.812252
0.811987
0.811852
0.812046
0.812201
0.812243
0.812471
0.812794
0.812822
0.812761
0.812874
0.813124
0.813266
0.813291
0.813188
0.813156
0.813365
0.813612
0.813701
0.81387
0.814975
0.818652
0.827825
0.843748
0.868512
0.897422
0.923977
0.945413
0.959
0.966091
0.974205
0.981929
0.982636
0.9821
0.98027
0.98035
0.981455
0.982887
0.983054
0.982649
0.981948
0.982194
0.982951
0.983674
0.983647
0.98367
0.98391
0.811112
0.811117
0.811106
0.811097
0.811101
0.811085
0.810962
0.810848
0.810834
0.810852
0.810876
0.810859
0.810818
0.810802
0.810786
0.810771
0.810773
0.810803
0.810803
0.810761
0.810751
0.810768
0.810795
0.810864
0.810941
0.810998
0.811048
0.811119
0.811313
0.811649
0.811885
0.812023
0.812134
0.812205
0.812236
0.812232
0.812172
0.812042
0.81185
0.811643
0.811414
0.811133
0.810867
0.810706
0.810662
0.810692
0.810827
0.811066
0.81133
0.81164
0.812038
0.812398
0.812453
0.812341
0.812065
0.811866
0.811917
0.811938
0.811813
0.811691
0.811779
0.811726
0.811594
0.811692
0.812186
0.81266
0.812721
0.81251
0.812359
0.812483
0.812925
0.813358
0.81359
0.813526
0.813679
0.814759
0.81794
0.825681
0.840208
0.864722
0.895289
0.924783
0.954847
0.971232
0.978991
0.979614
0.974715
0.975925
0.978742
0.981915
0.982655
0.982365
0.981491
0.981711
0.982665
0.983184
0.983223
0.98325
0.983528
0.98403
0.811629
0.81162
0.811607
0.811609
0.811615
0.811566
0.811397
0.811326
0.811331
0.811333
0.811318
0.811211
0.811098
0.811104
0.811116
0.81111
0.811125
0.811156
0.811171
0.811198
0.811256
0.811329
0.811352
0.811371
0.811426
0.811523
0.811633
0.811764
0.811994
0.81226
0.812505
0.812774
0.813031
0.813224
0.813414
0.813616
0.813685
0.813695
0.813714
0.813722
0.813654
0.813412
0.812965
0.812461
0.812082
0.811915
0.811904
0.811921
0.811936
0.812029
0.812296
0.812639
0.812683
0.812529
0.812234
0.811963
0.811801
0.811803
0.811844
0.811786
0.811347
0.81082
0.810658
0.810805
0.811485
0.811983
0.811889
0.811518
0.811391
0.811556
0.812161
0.812751
0.8131
0.813334
0.813604
0.813746
0.813971
0.814732
0.817071
0.824154
0.838051
0.862824
0.892769
0.922637
0.944586
0.959345
0.965802
0.976956
0.982228
0.982189
0.981557
0.980141
0.980465
0.98214
0.983496
0.983276
0.982778
0.982912
0.983541
0.984213
0.812421
0.812316
0.812167
0.812075
0.812082
0.812121
0.812133
0.812132
0.812078
0.811996
0.811917
0.811805
0.811631
0.811557
0.811576
0.811585
0.811593
0.811605
0.811611
0.811617
0.811693
0.811739
0.811711
0.811693
0.811671
0.811642
0.811636
0.811678
0.811803
0.812035
0.812407
0.81286
0.813269
0.813601
0.813961
0.81444
0.814773
0.814882
0.814934
0.814958
0.814952
0.814879
0.814606
0.814098
0.813512
0.813097
0.812971
0.812978
0.812958
0.812938
0.813027
0.813164
0.813147
0.812942
0.812522
0.812126
0.811896
0.811886
0.812022
0.812077
0.811785
0.810807
0.810196
0.810288
0.810949
0.811496
0.811542
0.811552
0.811586
0.811771
0.812061
0.812199
0.812453
0.812769
0.813106
0.813394
0.813573
0.813602
0.813725
0.814342
0.816749
0.823543
0.838359
0.863629
0.894976
0.928635
0.958502
0.973236
0.979626
0.978326
0.974653
0.976877
0.980764
0.982993
0.982793
0.982146
0.982399
0.983274
0.983674
0.983993
0.813194
0.813211
0.813194
0.813186
0.813252
0.813304
0.813296
0.813309
0.813419
0.813487
0.813509
0.813524
0.813519
0.813401
0.813216
0.81312
0.813046
0.812965
0.812906
0.812883
0.81286
0.812804
0.812706
0.812567
0.812328
0.812046
0.811984
0.811967
0.811957
0.811958
0.812032
0.812281
0.812625
0.812944
0.813316
0.813846
0.814357
0.814591
0.814712
0.81476
0.814774
0.814762
0.814662
0.814326
0.813741
0.813267
0.813124
0.81314
0.813233
0.813376
0.813516
0.813547
0.813461
0.813167
0.812771
0.812471
0.812311
0.812351
0.812698
0.812894
0.812689
0.811772
0.811243
0.811329
0.811535
0.811463
0.811406
0.81151
0.8118
0.81209
0.812111
0.812018
0.811932
0.812084
0.812422
0.812706
0.812892
0.812938
0.81293
0.813024
0.813312
0.814185
0.816973
0.824206
0.840289
0.866474
0.898892
0.929647
0.948735
0.962412
0.969355
0.980923
0.982499
0.982068
0.980349
0.980807
0.982667
0.984085
0.983786
0.983741
0.814067
0.81408
0.814098
0.814127
0.814181
0.814317
0.814486
0.814528
0.814565
0.814623
0.814653
0.814665
0.814665
0.814655
0.814526
0.8143
0.814105
0.813874
0.813733
0.813661
0.813519
0.813262
0.813173
0.813107
0.812872
0.812383
0.81223
0.812198
0.81219
0.812187
0.8121
0.81204
0.812037
0.812112
0.812337
0.812748
0.813261
0.813577
0.813673
0.813728
0.813793
0.813871
0.813865
0.813581
0.812904
0.812407
0.812318
0.812379
0.812654
0.813038
0.813184
0.813158
0.812981
0.812731
0.812723
0.812712
0.812665
0.812882
0.813645
0.813878
0.81373
0.813331
0.813276
0.813207
0.813035
0.812464
0.8119
0.811841
0.812045
0.812294
0.812241
0.811885
0.811516
0.811515
0.811696
0.811941
0.812064
0.812108
0.81217
0.812272
0.812437
0.812671
0.81296
0.81382
0.817081
0.824818
0.843785
0.871991
0.903991
0.944074
0.964166
0.978263
0.978639
0.975581
0.976447
0.979622
0.982985
0.983452
0.983354
0.983647
0.814289
0.814299
0.814319
0.814351
0.814399
0.814535
0.814961
0.815251
0.815276
0.815286
0.815284
0.815275
0.815265
0.815238
0.81515
0.814993
0.814889
0.814627
0.814203
0.814092
0.814022
0.813784
0.813661
0.813603
0.813379
0.812832
0.812607
0.812541
0.812457
0.812203
0.811776
0.811559
0.81153
0.811597
0.811774
0.812124
0.81263
0.812795
0.812818
0.812779
0.81275
0.812773
0.81279
0.812581
0.812021
0.811675
0.811648
0.811824
0.812422
0.812998
0.813216
0.813275
0.813263
0.813256
0.813324
0.813342
0.813302
0.8135
0.814014
0.81408
0.814035
0.814076
0.814333
0.814394
0.814247
0.813425
0.812495
0.812417
0.812666
0.812873
0.812808
0.812324
0.81158
0.811287
0.811343
0.811622
0.811999
0.812187
0.812291
0.812379
0.812539
0.812676
0.812739
0.812781
0.813032
0.813985
0.818018
0.826683
0.849163
0.877786
0.910354
0.944004
0.954959
0.966381
0.976131
0.982939
0.98252
0.981681
0.982324
0.983435
0.81143
0.811631
0.811782
0.811962
0.812407
0.813027
0.813227
0.813272
0.813244
0.813206
0.81328
0.81355
0.813743
0.813756
0.813736
0.813763
0.813734
0.813451
0.813081
0.813013
0.812957
0.812818
0.812777
0.812752
0.81252
0.811934
0.811718
0.811662
0.811586
0.811204
0.810737
0.810712
0.810863
0.811464
0.812316
0.812525
0.812572
0.812632
0.812725
0.812718
0.812419
0.812194
0.812074
0.811856
0.811781
0.811812
0.811984
0.812561
0.813287
0.81346
0.813589
0.813736
0.81386
0.814012
0.814113
0.814065
0.814018
0.81397
0.813707
0.813414
0.813359
0.813468
0.813935
0.814157
0.814092
0.813455
0.812221
0.811804
0.811977
0.812665
0.81311
0.813038
0.812561
0.812014
0.811938
0.812079
0.812391
0.81244
0.812369
0.81223
0.812212
0.812234
0.812274
0.812196
0.812148
0.812248
0.812682
0.814106
0.819385
0.830386
0.856741
0.887902
0.923812
0.96055
0.972783
0.98084
0.975998
0.977108
0.979956
0.983022
0.806978
0.807181
0.807415
0.80769
0.808128
0.808611
0.809028
0.809665
0.810021
0.810009
0.81015
0.81091
0.811334
0.811268
0.810892
0.810834
0.810803
0.810582
0.810394
0.810235
0.810083
0.809978
0.809981
0.809985
0.809742
0.809526
0.80951
0.809781
0.810111
0.810102
0.810215
0.810794
0.811968
0.813008
0.813474
0.813693
0.813865
0.81407
0.81428
0.814329
0.814233
0.813754
0.813097
0.812691
0.812485
0.812518
0.812849
0.813442
0.81361
0.813635
0.813643
0.813714
0.813972
0.814268
0.814395
0.814496
0.814597
0.814477
0.813592
0.812402
0.812025
0.812086
0.812883
0.813893
0.813955
0.813496
0.812329
0.811584
0.811667
0.812168
0.813047
0.813503
0.813432
0.813057
0.812783
0.812785
0.812913
0.812911
0.812709
0.812354
0.812114
0.812023
0.811949
0.811857
0.811816
0.811808
0.811858
0.811996
0.812614
0.81467
0.821556
0.835894
0.866222
0.900851
0.930583
0.956185
0.964083
0.977968
0.980987
0.982627
0.802204
0.802476
0.802878
0.803255
0.803785
0.804288
0.804322
0.804194
0.804283
0.805048
0.806172
0.807104
0.807688
0.807746
0.807717
0.807791
0.808022
0.808019
0.807738
0.807484
0.807325
0.807216
0.807257
0.807253
0.806923
0.806745
0.806739
0.806871
0.807323
0.807874
0.808592
0.81018
0.812053
0.81294
0.813265
0.813381
0.81346
0.81354
0.813645
0.813668
0.81361
0.813296
0.812691
0.812284
0.812123
0.812148
0.81261
0.812818
0.812616
0.812223
0.812161
0.812288
0.812949
0.813648
0.813869
0.81402
0.814125
0.813949
0.812994
0.811569
0.810776
0.810632
0.810983
0.812276
0.813324
0.813321
0.812939
0.812334
0.81214
0.812311
0.812875
0.813433
0.81354
0.813443
0.813181
0.813084
0.813186
0.813291
0.813214
0.812903
0.812552
0.812303
0.812071
0.811873
0.811868
0.811896
0.811983
0.812136
0.81224
0.812434
0.813185
0.816033
0.825428
0.84457
0.878909
0.915384
0.950594
0.974291
0.978685
0.976639
0.807568
0.807188
0.807032
0.807132
0.80725
0.807094
0.806387
0.805533
0.804972
0.804454
0.804271
0.804196
0.804194
0.804379
0.80451
0.8045
0.804516
0.804886
0.80513
0.805122
0.804869
0.804713
0.80481
0.804972
0.804875
0.804427
0.803424
0.802638
0.802605
0.802604
0.802473
0.802851
0.805034
0.807009
0.806999
0.806629
0.80668
0.807082
0.807882
0.809648
0.810353
0.810368
0.809922
0.808576
0.807996
0.808139
0.808741
0.808818
0.808407
0.808026
0.808139
0.808604
0.80918
0.80979
0.810509
0.811391
0.812068
0.81245
0.812623
0.812537
0.811943
0.810829
0.810491
0.810966
0.812238
0.813006
0.813213
0.813339
0.813353
0.813206
0.813091
0.813212
0.813428
0.813413
0.81325
0.813037
0.812982
0.812958
0.812903
0.812928
0.812922
0.812878
0.812751
0.812476
0.812267
0.812271
0.812298
0.812343
0.812347
0.812377
0.812482
0.812784
0.813953
0.818422
0.831194
0.855841
0.89285
0.92662
0.949409
0.967678
0.807122
0.806931
0.806491
0.805912
0.805101
0.803118
0.800934
0.800616
0.800746
0.800735
0.800436
0.799961
0.799703
0.799306
0.799212
0.799283
0.799203
0.798687
0.798835
0.799588
0.799696
0.799705
0.800108
0.801435
0.802143
0.802162
0.802206
0.802458
0.802623
0.802525
0.801544
0.799716
0.799437
0.79925
0.797708
0.795172
0.794742
0.79495
0.796304
0.800019
0.803929
0.804672
0.804562
0.803977
0.803637
0.803782
0.804577
0.804562
0.803869
0.803014
0.803069
0.804197
0.80501
0.805296
0.805775
0.806698
0.807889
0.809937
0.811926
0.812121
0.81194
0.811207
0.810406
0.810251
0.810524
0.811475
0.812683
0.813182
0.813249
0.813165
0.812935
0.812774
0.812852
0.81308
0.813078
0.812976
0.812835
0.812717
0.81271
0.812792
0.812971
0.813064
0.813052
0.812981
0.81292
0.812897
0.812837
0.812696
0.81249
0.812429
0.812483
0.812591
0.812763
0.81323
0.815281
0.822035
0.840491
0.869511
0.908621
0.957195
0.805629
0.805032
0.804751
0.803994
0.801597
0.800236
0.800104
0.800139
0.800908
0.801719
0.801757
0.801762
0.801889
0.801875
0.801837
0.802088
0.802128
0.801519
0.801175
0.801428
0.801437
0.801399
0.801683
0.80324
0.80581
0.807872
0.809399
0.810077
0.809967
0.809372
0.807509
0.803704
0.801002
0.799331
0.797261
0.795394
0.795112
0.79548
0.796899
0.79938
0.802182
0.804801
0.805877
0.805615
0.80526
0.805408
0.806459
0.806805
0.806154
0.805294
0.804656
0.803958
0.803398
0.803025
0.802826
0.802737
0.802822
0.803546
0.805444
0.807629
0.808164
0.808188
0.807733
0.806984
0.806733
0.807059
0.808289
0.810132
0.811498
0.811706
0.811474
0.811121
0.811137
0.811487
0.812289
0.812917
0.812967
0.812966
0.81299
0.813051
0.813157
0.813189
0.81318
0.813204
0.813299
0.813321
0.81328
0.81312
0.812919
0.812654
0.812636
0.812724
0.812869
0.813012
0.813162
0.813922
0.817216
0.827961
0.849754
0.902118
0.817555
0.814809
0.81462
0.815484
0.816298
0.815882
0.814488
0.814408
0.816056
0.817887
0.818052
0.817349
0.816766
0.817
0.818113
0.818247
0.817986
0.818355
0.818787
0.81771
0.813489
0.811921
0.811923
0.814187
0.817406
0.817983
0.81861
0.819859
0.821663
0.822401
0.822204
0.82045
0.81717
0.814878
0.813157
0.811419
0.810006
0.80859
0.806631
0.805276
0.805711
0.807103
0.807397
0.807188
0.806961
0.807072
0.807192
0.807507
0.807381
0.806505
0.805838
0.805337
0.804899
0.804902
0.804831
0.80414
0.802741
0.80194
0.801803
0.801824
0.802306
0.803375
0.804347
0.804327
0.803923
0.803807
0.80414
0.805032
0.806295
0.807283
0.807719
0.808027
0.808389
0.808781
0.809565
0.811006
0.812363
0.812813
0.812921
0.812971
0.813148
0.813215
0.813218
0.813254
0.813389
0.813364
0.813168
0.812903
0.812852
0.812872
0.81294
0.813046
0.81322
0.813313
0.813364
0.813321
0.813431
0.814786
0.819769
0.851613
0.869276
0.868613
0.865985
0.864857
0.863544
0.857648
0.852491
0.852671
0.853496
0.852195
0.849132
0.848986
0.84962
0.849527
0.848054
0.845767
0.844849
0.844573
0.843941
0.840553
0.8333
0.830084
0.82976
0.829726
0.829331
0.827645
0.827229
0.828607
0.829197
0.829837
0.830824
0.829016
0.826945
0.827872
0.828694
0.827924
0.827479
0.828229
0.827863
0.82358
0.818103
0.815025
0.814272
0.81488
0.815108
0.81481
0.812625
0.808377
0.806815
0.806614
0.807038
0.807564
0.808343
0.810429
0.812846
0.813062
0.811254
0.806669
0.803119
0.802706
0.803263
0.804262
0.805195
0.806474
0.806726
0.806111
0.805131
0.804824
0.804839
0.805158
0.806287
0.806606
0.80614
0.805114
0.805077
0.805738
0.807245
0.808504
0.809458
0.810247
0.811044
0.811633
0.812142
0.812454
0.812899
0.813173
0.813118
0.813023
0.813092
0.813283
0.813418
0.813645
0.813808
0.813777
0.813658
0.813366
0.813019
0.812909
0.813351
0.823137
0.919692
0.919785
0.919007
0.917777
0.91602
0.909886
0.903009
0.902382
0.902869
0.902462
0.901735
0.902139
0.903195
0.903599
0.90432
0.905353
0.905185
0.903834
0.901666
0.897935
0.894566
0.894495
0.895697
0.895171
0.891015
0.884815
0.883242
0.883966
0.884734
0.883972
0.879644
0.873729
0.870757
0.868665
0.864485
0.858614
0.856923
0.85782
0.858723
0.856752
0.852274
0.852055
0.854849
0.855233
0.853497
0.850545
0.846737
0.841168
0.83598
0.830495
0.82381
0.820572
0.820435
0.823089
0.827128
0.828132
0.827798
0.82586
0.820669
0.814165
0.810429
0.809501
0.809612
0.811012
0.811623
0.811358
0.810241
0.807359
0.805368
0.805364
0.805949
0.806398
0.806004
0.80449
0.803595
0.803638
0.804162
0.80524
0.806554
0.80765
0.808266
0.808938
0.809848
0.810809
0.811564
0.812352
0.81258
0.812704
0.812867
0.813097
0.813411
0.813906
0.814107
0.814073
0.813886
0.813286
0.812869
0.812772
0.812865
0.815
0.994225
0.992167
0.988375
0.985063
0.982034
0.979366
0.978842
0.97909
0.980153
0.979492
0.974429
0.969778
0.967871
0.96629
0.964959
0.965011
0.964995
0.962253
0.958246
0.957882
0.957375
0.953074
0.950113
0.949278
0.948
0.944282
0.938167
0.935819
0.93618
0.936594
0.93469
0.932442
0.932958
0.932558
0.929189
0.925728
0.923586
0.920914
0.916231
0.910415
0.902774
0.895698
0.892631
0.89112
0.8862
0.882455
0.882003
0.880858
0.879478
0.876293
0.868537
0.86209
0.860162
0.857214
0.849235
0.840801
0.839961
0.84123
0.839447
0.835349
0.834749
0.833708
0.827583
0.817739
0.814588
0.81534
0.817783
0.817944
0.816108
0.811686
0.80867
0.808667
0.808225
0.806915
0.80699
0.807719
0.808567
0.809572
0.810015
0.809878
0.809019
0.807934
0.807732
0.807911
0.808043
0.808309
0.809045
0.810067
0.811229
0.812328
0.813097
0.813569
0.813621
0.813551
0.813297
0.812917
0.812853
0.812955
0.813325
0.813852
1.06449
1.06375
1.06275
1.06243
1.06141
1.05723
1.05417
1.05392
1.05406
1.05518
1.05539
1.05291
1.04836
1.04585
1.04478
1.04326
1.04097
1.04046
1.04079
1.04067
1.03892
1.03562
1.0302
1.02712
1.02736
1.02702
1.02144
1.01563
1.0147
1.01401
1.01155
1.00768
1.00238
0.995999
0.992531
0.990944
0.988835
0.984851
0.980523
0.97708
0.973215
0.968605
0.964501
0.961959
0.958335
0.954116
0.95154
0.945694
0.936722
0.929752
0.921032
0.915124
0.915462
0.915974
0.911534
0.902862
0.897329
0.89015
0.87856
0.872649
0.872997
0.873478
0.871122
0.863582
0.852559
0.842178
0.839032
0.839982
0.840096
0.836718
0.82925
0.82519
0.823328
0.820327
0.818266
0.816284
0.814408
0.812105
0.809835
0.80784
0.805899
0.80547
0.805591
0.80589
0.806031
0.806321
0.806964
0.807716
0.80852
0.809725
0.810972
0.811296
0.81159
0.811974
0.812244
0.812504
0.812989
0.813622
0.814031
0.814121
1.15302
1.15266
1.1522
1.15108
1.15007
1.14873
1.14526
1.14156
1.14124
1.14136
1.13994
1.13568
1.13449
1.13359
1.12925
1.12584
1.12587
1.12556
1.12486
1.12242
1.11855
1.11591
1.11377
1.11149
1.10895
1.10627
1.10085
1.09571
1.09468
1.094
1.09216
1.08835
1.08506
1.08186
1.07842
1.07493
1.07119
1.06652
1.06156
1.0565
1.05085
1.04477
1.03974
1.03182
1.02339
1.02246
1.02235
1.01988
1.01273
1.0044
0.997629
0.99119
0.984602
0.977839
0.966873
0.959061
0.957178
0.953591
0.945001
0.93754
0.931064
0.917916
0.909106
0.905846
0.901475
0.895139
0.884235
0.873705
0.868991
0.865927
0.859524
0.849296
0.843019
0.839536
0.834533
0.827438
0.821325
0.816304
0.812375
0.810484
0.80868
0.807864
0.808078
0.809189
0.810625
0.811783
0.811302
0.81014
0.809054
0.808405
0.808344
0.808635
0.80938
0.810147
0.810939
0.812199
0.812819
0.8134
0.8137
0.813661
1.24536
1.24476
1.24407
1.24313
1.24217
1.23984
1.23522
1.23442
1.23474