/*--------------------------------*- C++ -*----------------------------------*\
  =========                 |
  \\      /  F ield         | OpenFOAM: The Open Source CFD Toolbox
   \\    /   O peration     | Website:  https://openfoam.org
    \\  /    A nd           | Version:  7
     \\/     M anipulation  |
\*---------------------------------------------------------------------------*/
FoamFile
{
    version     2.0;
    format      ascii;
    class       volScalarField;
    location    "4.5";
    object      rho;
}
// * * * * * * * * * * * * * * * * * * * * * * * * * * * * * * * * * * * * * //

dimensions      [1 -3 0 0 0 0 0];

internalField   nonuniform List<scalar> 
90000
(
1.13336
1.13254
1.13178
1.13219
1.13399
1.13556
1.13683
1.13956
1.14225
1.1448
1.14707
1.14997
1.15294
1.15616
1.15915
1.16258
1.1659
1.16947
1.17289
1.17656
1.18016
1.1839
1.18812
1.19207
1.19676
1.20155
1.20707
1.21279
1.2195
1.22684
1.235
1.24364
1.25206
1.26118
1.26862
1.27675
1.28278
1.28861
1.29347
1.29779
1.30076
1.30471
1.30839
1.31232
1.31195
1.30844
1.29777
1.28399
1.27131
1.26299
1.25979
1.26179
1.26577
1.27138
1.27706
1.28297
1.28747
1.29039
1.29193
1.29293
1.29233
1.28933
1.28394
1.27717
1.27154
1.27093
1.27229
1.27623
1.28205
1.28843
1.29272
1.29246
1.29067
1.28557
1.28018
1.27711
1.27837
1.2814
1.28481
1.28819
1.2892
1.28797
1.28579
1.28337
1.28481
1.28797
1.29092
1.29057
1.28871
1.2876
1.28806
1.28987
1.29102
1.29053
1.28897
1.28912
1.28975
1.29165
1.29237
1.29188
1.1361
1.13627
1.13648
1.13668
1.13686
1.1371
1.1373
1.13782
1.13927
1.1411
1.14311
1.14547
1.14807
1.15085
1.15371
1.15683
1.16006
1.16313
1.16626
1.1695
1.17272
1.17614
1.17964
1.18342
1.18724
1.19157
1.19603
1.20082
1.20597
1.21162
1.21802
1.22468
1.2322
1.24011
1.24862
1.25722
1.26605
1.27461
1.28281
1.29095
1.29799
1.30391
1.30942
1.31258
1.31478
1.31582
1.31567
1.31719
1.31584
1.31209
1.30572
1.29834
1.29185
1.28774
1.28519
1.28551
1.28716
1.28987
1.29228
1.2961
1.30026
1.30367
1.30623
1.3045
1.30022
1.29483
1.29013
1.28683
1.28698
1.2891
1.29242
1.29673
1.30311
1.30305
1.3004
1.29449
1.28991
1.28811
1.28987
1.2946
1.30005
1.30053
1.29841
1.29566
1.2953
1.29624
1.29843
1.29987
1.29918
1.29776
1.2977
1.29847
1.29928
1.29944
1.29845
1.29804
1.29826
1.29933
1.30009
1.29986
1.14029
1.14033
1.14036
1.14037
1.14032
1.14028
1.14028
1.14032
1.14047
1.14058
1.1407
1.14091
1.14129
1.14183
1.14246
1.14316
1.14399
1.14493
1.14601
1.1473
1.14917
1.15138
1.15384
1.15663
1.15953
1.16271
1.16609
1.16974
1.17346
1.17768
1.18207
1.18698
1.19205
1.19774
1.20437
1.21125
1.21972
1.22824
1.23811
1.24808
1.25918
1.26942
1.28117
1.28997
1.30019
1.30759
1.31503
1.31891
1.32015
1.32149
1.32424
1.32778
1.32814
1.32648
1.32223
1.31631
1.31064
1.30657
1.30357
1.30372
1.30514
1.30805
1.31157
1.31533
1.31941
1.31906
1.31598
1.30893
1.30206
1.29729
1.29797
1.30115
1.30651
1.31168
1.31648
1.31514
1.30907
1.30322
1.30094
1.30234
1.30602
1.30981
1.31238
1.31067
1.30741
1.30541
1.30649
1.30875
1.31062
1.30945
1.30755
1.30767
1.30871
1.30953
1.3089
1.30725
1.30692
1.30748
1.30886
1.30887
1.14549
1.14549
1.14552
1.1456
1.14567
1.14568
1.14568
1.14565
1.14556
1.1455
1.14552
1.14568
1.14588
1.14599
1.14607
1.14622
1.14648
1.14686
1.14736
1.14809
1.14841
1.14866
1.14901
1.14955
1.15019
1.1508
1.15145
1.15224
1.15326
1.15458
1.15614
1.1585
1.16124
1.16435
1.16802
1.1722
1.17733
1.18294
1.19
1.1976
1.2068
1.21711
1.22818
1.24149
1.25461
1.26858
1.28374
1.29664
1.30866
1.31812
1.32349
1.32696
1.32857
1.32819
1.3279
1.32745
1.32627
1.32365
1.31972
1.31585
1.31444
1.31494
1.3163
1.31837
1.32015
1.31976
1.31982
1.31961
1.3179
1.31445
1.31107
1.3093
1.30999
1.3119
1.31591
1.31856
1.32172
1.32068
1.31672
1.31237
1.3112
1.31308
1.3163
1.32026
1.31964
1.31684
1.31405
1.31444
1.31619
1.31837
1.31731
1.3157
1.31594
1.31687
1.3173
1.31604
1.31469
1.31481
1.31572
1.31622
1.15152
1.15149
1.15149
1.15151
1.15159
1.15171
1.15173
1.15171
1.15171
1.15175
1.15193
1.15214
1.15221
1.15222
1.15221
1.15218
1.15221
1.15239
1.15283
1.15304
1.15305
1.15308
1.15328
1.15367
1.15398
1.15417
1.15441
1.15483
1.15538
1.15597
1.15677
1.15697
1.15716
1.15741
1.15778
1.15828
1.15897
1.16028
1.16216
1.1647
1.16796
1.17234
1.1776
1.185
1.19292
1.20391
1.21594
1.23011
1.24645
1.26205
1.27807
1.28969
1.303
1.30959
1.31622
1.32022
1.3237
1.32429
1.32531
1.32785
1.32771
1.32685
1.32538
1.32411
1.32179
1.3195
1.31973
1.32061
1.32241
1.32413
1.32359
1.32092
1.3172
1.3143
1.31505
1.3183
1.32197
1.32376
1.32472
1.32301
1.31977
1.31727
1.31802
1.32021
1.3221
1.32353
1.32191
1.31979
1.31952
1.32062
1.3227
1.32206
1.32092
1.32055
1.32116
1.32108
1.32012
1.31936
1.31969
1.3207
1.15655
1.15656
1.15652
1.15646
1.15646
1.15652
1.15658
1.15672
1.15689
1.15694
1.15694
1.15688
1.15686
1.15689
1.15691
1.1569
1.15696
1.1572
1.15732
1.15724
1.15719
1.15722
1.15739
1.15745
1.15743
1.15743
1.15753
1.15781
1.15798
1.15802
1.15807
1.15813
1.15824
1.15843
1.15873
1.15905
1.15956
1.15954
1.15943
1.15944
1.15953
1.15975
1.1602
1.16114
1.16277
1.16553
1.16933
1.17545
1.18318
1.1945
1.20766
1.22447
1.24135
1.25974
1.27812
1.29171
1.30645
1.31622
1.32351
1.32652
1.32668
1.32608
1.32529
1.32252
1.31784
1.31827
1.31986
1.32171
1.32344
1.32453
1.32443
1.32404
1.32275
1.32
1.31829
1.31948
1.32089
1.3235
1.32471
1.32493
1.3247
1.32303
1.32067
1.32077
1.3218
1.32342
1.32412
1.32384
1.32283
1.32215
1.32285
1.3239
1.32438
1.32364
1.32299
1.32301
1.32279
1.3221
1.32175
1.3224
1.16037
1.16041
1.16042
1.1604
1.16029
1.16024
1.16025
1.16032
1.16044
1.16049
1.16048
1.16044
1.16042
1.1605
1.16074
1.16092
1.16113
1.1612
1.16117
1.16116
1.1612
1.16125
1.16125
1.16121
1.16107
1.16103
1.16111
1.16131
1.16138
1.16135
1.16125
1.16105
1.16076
1.16069
1.16074
1.16078
1.16075
1.16058
1.16032
1.16003
1.1598
1.15962
1.15941
1.15918
1.15883
1.15843
1.15839
1.15864
1.15936
1.16112
1.16425
1.17018
1.17822
1.19067
1.20434
1.22304
1.24171
1.26087
1.27852
1.29133
1.30106
1.30685
1.31286
1.31435
1.31741
1.32232
1.32475
1.3247
1.32436
1.32331
1.322
1.32196
1.32216
1.32333
1.32309
1.32253
1.32203
1.32221
1.32266
1.32396
1.32452
1.32502
1.3241
1.32246
1.32217
1.3226
1.3238
1.32435
1.32443
1.32386
1.3233
1.32374
1.32432
1.32475
1.32431
1.32395
1.32376
1.32329
1.32276
1.32309
1.16133
1.16136
1.1614
1.1614
1.1614
1.1614
1.16141
1.16141
1.1614
1.16138
1.16139
1.16147
1.16165
1.16174
1.16179
1.16181
1.16177
1.16176
1.16181
1.16184
1.16182
1.16177
1.16175
1.16175
1.16179
1.16196
1.16209
1.16208
1.16207
1.16217
1.16224
1.16223
1.16222
1.16222
1.16232
1.1624
1.16239
1.16229
1.16194
1.16132
1.16069
1.16016
1.15969
1.1592
1.15865
1.15807
1.15768
1.15717
1.1566
1.1562
1.15618
1.15642
1.15723
1.15917
1.16253
1.1689
1.17769
1.1921
1.20873
1.22903
1.25023
1.26982
1.28755
1.30302
1.3145
1.31996
1.32265
1.32272
1.32122
1.31669
1.31714
1.31922
1.32241
1.32507
1.32505
1.32471
1.32365
1.32166
1.32139
1.32181
1.3235
1.32472
1.32456
1.32399
1.32288
1.32245
1.32291
1.32396
1.32427
1.32429
1.32401
1.3239
1.32405
1.32455
1.32478
1.3246
1.32435
1.32402
1.32338
1.32355
1.16087
1.16089
1.16092
1.16097
1.161
1.16101
1.16102
1.16102
1.16101
1.16099
1.16101
1.16111
1.16126
1.16137
1.16142
1.16141
1.16137
1.16136
1.16139
1.16141
1.16138
1.16133
1.16133
1.16134
1.16141
1.16157
1.16164
1.16164
1.16163
1.16163
1.16161
1.16147
1.16139
1.16138
1.16142
1.16147
1.16147
1.16143
1.16143
1.16138
1.16117
1.16084
1.16043
1.15994
1.15939
1.15871
1.15771
1.15676
1.15616
1.15586
1.15557
1.15524
1.1552
1.1552
1.15526
1.15554
1.15649
1.1589
1.16344
1.17135
1.18362
1.20088
1.2208
1.24369
1.26617
1.28146
1.29487
1.30359
1.30827
1.3118
1.3188
1.3233
1.32495
1.32526
1.32452
1.32258
1.32186
1.32137
1.32167
1.32226
1.32271
1.32319
1.32323
1.32323
1.32338
1.32314
1.32312
1.32325
1.32367
1.324
1.32428
1.32414
1.32404
1.32417
1.32453
1.32488
1.32472
1.32447
1.32401
1.32386
1.15977
1.15978
1.15979
1.15983
1.15991
1.15994
1.15996
1.15997
1.15996
1.15997
1.16008
1.16013
1.16013
1.16018
1.16036
1.16048
1.16047
1.16044
1.16043
1.16036
1.16013
1.15989
1.15985
1.15986
1.15987
1.15985
1.15973
1.15961
1.15953
1.15937
1.15904
1.15888
1.15885
1.15884
1.1589
1.15908
1.15916
1.15913
1.15909
1.15906
1.15899
1.15882
1.1586
1.15835
1.15801
1.15746
1.15709
1.15689
1.15664
1.15618
1.15554
1.15502
1.15484
1.15484
1.15485
1.1549
1.15502
1.15519
1.15533
1.15579
1.15716
1.16098
1.16805
1.18087
1.19949
1.22218
1.24806
1.26923
1.29156
1.3076
1.31664
1.32075
1.32316
1.32193
1.31776
1.31809
1.3201
1.32253
1.32317
1.3229
1.32164
1.32058
1.32129
1.32228
1.32356
1.3236
1.32337
1.32291
1.32308
1.3236
1.32418
1.32415
1.32397
1.32399
1.32421
1.32466
1.32472
1.32464
1.32447
1.32409
1.15819
1.15819
1.1582
1.15822
1.15827
1.15831
1.15833
1.15835
1.15837
1.15839
1.15839
1.15834
1.15828
1.15828
1.15837
1.15841
1.15838
1.15838
1.15838
1.15831
1.15811
1.15788
1.1578
1.15778
1.15777
1.15771
1.15756
1.15741
1.15729
1.15702
1.1567
1.15663
1.15666
1.15666
1.15669
1.15676
1.15678
1.15675
1.15672
1.15673
1.1568
1.15687
1.15691
1.15691
1.15679
1.15646
1.15635
1.15633
1.15626
1.15609
1.15572
1.15524
1.15493
1.15484
1.15484
1.15486
1.15495
1.1551
1.1552
1.15514
1.15491
1.15489
1.15517
1.15698
1.16104
1.17062
1.18409
1.20531
1.22877
1.25369
1.2749
1.28925
1.30218
1.3072
1.31307
1.31927
1.32412
1.32436
1.32384
1.32132
1.31942
1.31976
1.321
1.32303
1.32355
1.32336
1.32283
1.32278
1.32315
1.32377
1.32406
1.32399
1.32386
1.3239
1.32416
1.3244
1.32457
1.32467
1.32471
1.32445
1.15608
1.1561
1.15611
1.15612
1.15614
1.15617
1.15621
1.15625
1.1563
1.15631
1.15627
1.15622
1.15621
1.15622
1.15626
1.15626
1.15625
1.15629
1.1563
1.15625
1.15611
1.15603
1.15603
1.15603
1.156
1.15581
1.15558
1.15554
1.1555
1.15536
1.1552
1.15516
1.15521
1.1553
1.1553
1.15523
1.15513
1.15511
1.15509
1.15506
1.15508
1.15518
1.15535
1.15545
1.15547
1.1555
1.15563
1.1558
1.15585
1.15579
1.15568
1.15553
1.15532
1.15521
1.15524
1.15532
1.15551
1.1558
1.15603
1.15608
1.15598
1.15585
1.15584
1.15585
1.15612
1.15694
1.15916
1.1649
1.1746
1.19199
1.21337
1.2408
1.26496
1.28848
1.30926
1.31717
1.32262
1.32222
1.31857
1.31657
1.31819
1.32134
1.32365
1.32359
1.32311
1.32196
1.32221
1.32307
1.32385
1.32389
1.32383
1.32377
1.32387
1.32407
1.32418
1.32429
1.3245
1.32486
1.32502
1.32479
1.15434
1.15437
1.1544
1.15443
1.15447
1.15449
1.15451
1.15455
1.15456
1.15454
1.15451
1.1545
1.15451
1.15453
1.15456
1.15455
1.15454
1.15454
1.15458
1.15463
1.15465
1.15467
1.15469
1.15468
1.15462
1.15446
1.15427
1.15414
1.15403
1.15394
1.15393
1.15396
1.154
1.154
1.15395
1.1538
1.15356
1.15339
1.15335
1.15332
1.15331
1.15338
1.15354
1.15372
1.15392
1.15421
1.15459
1.15502
1.15544
1.15576
1.15581
1.15575
1.15561
1.15547
1.15546
1.15557
1.15578
1.15609
1.15653
1.157
1.15718
1.15714
1.15703
1.15702
1.15717
1.15743
1.15755
1.158
1.15932
1.16231
1.16919
1.18173
1.20163
1.22747
1.25449
1.27618
1.29593
1.30301
1.30854
1.31586
1.32322
1.32455
1.32435
1.32215
1.32104
1.32152
1.32315
1.3245
1.32446
1.3241
1.32374
1.32398
1.32431
1.32454
1.32436
1.32443
1.32478
1.32538
1.32549
1.32529
1.15425
1.15426
1.15427
1.15428
1.1543
1.15431
1.1543
1.1543
1.15428
1.15427
1.15426
1.15425
1.15425
1.15426
1.15425
1.15423
1.15423
1.15424
1.15424
1.15425
1.15428
1.15433
1.15438
1.15439
1.15436
1.15428
1.15416
1.15403
1.15397
1.15395
1.15397
1.15403
1.15405
1.15405
1.15399
1.15381
1.15351
1.15328
1.15319
1.15311
1.15307
1.15307
1.15311
1.15325
1.15349
1.15381
1.15416
1.15452
1.1549
1.15526
1.1554
1.15539
1.15534
1.15522
1.15513
1.15522
1.15554
1.15606
1.15672
1.15722
1.15746
1.15746
1.15742
1.15756
1.15783
1.15796
1.15796
1.15797
1.1582
1.15858
1.15927
1.16098
1.16563
1.17591
1.19371
1.22001
1.24793
1.27532
1.30183
1.31421
1.32118
1.32297
1.31999
1.31752
1.31953
1.32307
1.32492
1.32475
1.32419
1.32389
1.32425
1.32478
1.32488
1.32476
1.32458
1.32487
1.32549
1.32589
1.32597
1.32596
1.1547
1.15469
1.15469
1.15469
1.15468
1.15469
1.15469
1.15464
1.15462
1.15462
1.1546
1.15458
1.15459
1.15459
1.15457
1.15454
1.15453
1.15452
1.15452
1.15451
1.15452
1.15454
1.15454
1.15457
1.15457
1.15453
1.15449
1.15448
1.15461
1.15495
1.1551
1.15511
1.15511
1.15507
1.15498
1.15482
1.1546
1.15433
1.15399
1.15361
1.15342
1.15339
1.1534
1.15347
1.15366
1.15401
1.15451
1.15508
1.15563
1.15609
1.15644
1.15667
1.15673
1.15667
1.15644
1.15634
1.15656
1.15676
1.15684
1.15709
1.15741
1.15743
1.15738
1.15751
1.15781
1.15803
1.15809
1.158
1.15799
1.15823
1.15854
1.15871
1.15893
1.16011
1.16387
1.17315
1.18917
1.2139
1.24257
1.26872
1.28974
1.303
1.3098
1.31756
1.32485
1.3254
1.32487
1.32311
1.32337
1.3245
1.32591
1.32595
1.32556
1.32491
1.32517
1.32592
1.32663
1.32661
1.32663
1.32687
1.15591
1.15591
1.15588
1.15586
1.15586
1.15584
1.15571
1.15558
1.15556
1.15558
1.1556
1.15558
1.15554
1.15553
1.15551
1.1555
1.1555
1.15554
1.15555
1.15552
1.15553
1.15555
1.15559
1.15567
1.15576
1.15583
1.1559
1.156
1.15623
1.15661
1.15687
1.15701
1.15712
1.15717
1.15719
1.15718
1.1571
1.15695
1.15674
1.15651
1.15626
1.15597
1.1557
1.15556
1.15555
1.15559
1.15578
1.15608
1.1564
1.15675
1.15715
1.15749
1.15754
1.15742
1.15715
1.15699
1.15707
1.15712
1.15702
1.15692
1.15702
1.15698
1.15686
1.15698
1.15751
1.15807
1.15817
1.15799
1.15787
1.15801
1.15848
1.15897
1.15928
1.15926
1.15945
1.16062
1.16389
1.17174
1.18637
1.21089
1.24125
1.27031
1.29964
1.31549
1.32308
1.32343
1.31876
1.31995
1.32273
1.32587
1.32642
1.32614
1.32534
1.32559
1.32656
1.3271
1.3271
1.32714
1.32741
1.32791
1.15708
1.15707
1.15705
1.15705
1.15705
1.157
1.15681
1.15674
1.15675
1.15675
1.15674
1.15664
1.15653
1.15654
1.15656
1.15655
1.15657
1.15661
1.15664
1.15668
1.15675
1.15683
1.15687
1.15689
1.15695
1.15705
1.15717
1.15732
1.15757
1.15787
1.15814
1.15843
1.1587
1.1589
1.15908
1.15928
1.15935
1.15936
1.15938
1.15939
1.15933
1.15908
1.15862
1.1581
1.15773
1.15758
1.15758
1.15763
1.15767
1.1578
1.15809
1.15844
1.15848
1.15833
1.15805
1.15781
1.15767
1.15768
1.15772
1.15767
1.15723
1.15675
1.15664
1.1568
1.15752
1.15806
1.15798
1.15764
1.15756
1.15774
1.15839
1.15902
1.1594
1.15967
1.15997
1.1602
1.1605
1.16134
1.16375
1.17093
1.18494
1.20976
1.23957
1.26908
1.29072
1.30514
1.31128
1.32195
1.32674
1.32673
1.32615
1.32498
1.32534
1.327
1.32825
1.32804
1.32755
1.32769
1.32832
1.32899
1.15849
1.15839
1.15824
1.15815
1.15816
1.15821
1.15822
1.15823
1.15818
1.15811
1.15804
1.15793
1.15775
1.15767
1.15769
1.1577
1.15771
1.15773
1.15775
1.15776
1.15785
1.1579
1.15787
1.15786
1.15784
1.15781
1.15781
1.15786
1.15799
1.15824
1.15864
1.1591
1.15952
1.15986
1.16021
1.16069
1.16104
1.16118
1.16125
1.16129
1.1613
1.16124
1.16097
1.16045
1.15984
1.15942
1.1593
1.15931
1.1593
1.1593
1.15942
1.1596
1.15959
1.15942
1.15904
1.15866
1.15843
1.15842
1.15856
1.15863
1.15834
1.15738
1.15681
1.15691
1.15761
1.15822
1.15829
1.15834
1.15838
1.15858
1.1589
1.15909
1.15939
1.15975
1.16011
1.16043
1.16069
1.1608
1.16098
1.16167
1.16416
1.17108
1.18606
1.21141
1.24259
1.27581
1.30485
1.31921
1.32521
1.32396
1.32049
1.32271
1.32652
1.32857
1.32834
1.3277
1.32797
1.32887
1.32927
1.32958
1.15997
1.16
1.15999
1.15999
1.16006
1.16013
1.16013
1.16015
1.16026
1.16035
1.16038
1.1604
1.16039
1.16028
1.16008
1.15998
1.1599
1.15982
1.15977
1.15974
1.15972
1.15966
1.15956
1.15942
1.15918
1.1589
1.15881
1.15878
1.15877
1.15877
1.15886
1.15912
1.15948
1.15982
1.1602
1.16074
1.16129
1.16156
1.16171
1.16177
1.16179
1.16178
1.16168
1.16133
1.1607
1.1602
1.16005
1.16007
1.16018
1.16038
1.16059
1.16066
1.16061
1.16036
1.15998
1.15965
1.15947
1.15951
1.15989
1.16014
1.15995
1.15906
1.1585
1.15857
1.15883
1.1588
1.15882
1.15895
1.15927
1.15956
1.15959
1.15953
1.1595
1.15969
1.16006
1.16037
1.16062
1.16072
1.16078
1.16092
1.16127
1.16221
1.16507
1.17242
1.18865
1.21493
1.24711
1.27754
1.29631
1.30965
1.3163
1.32733
1.32868
1.32826
1.32663
1.32714
1.32901
1.33034
1.33004
1.33
1.16163
1.16165
1.16167
1.16171
1.16177
1.1619
1.16209
1.16215
1.1622
1.16227
1.16231
1.16233
1.16234
1.16234
1.16222
1.16198
1.16177
1.16153
1.16137
1.16129
1.16113
1.16086
1.16076
1.16069
1.16045
1.15994
1.15975
1.1597
1.15968
1.15968
1.15958
1.15955
1.15957
1.15966
1.15992
1.16039
1.16095
1.16129
1.1614
1.16146
1.16153
1.1616
1.16158
1.16126
1.16053
1.16001
1.15993
1.16001
1.16031
1.16079
1.161
1.16101
1.16089
1.16064
1.16062
1.16058
1.16051
1.16071
1.1615
1.1618
1.16168
1.16132
1.16126
1.16118
1.161
1.16044
1.15995
1.15993
1.16016
1.1604
1.16034
1.15998
1.15967
1.15969
1.1599
1.16017
1.16032
1.16041
1.1605
1.16063
1.16082
1.1611
1.16144
1.16237
1.16572
1.17359
1.19272
1.22103
1.25281
1.29224
1.3117
1.32556
1.32557
1.32269
1.32352
1.32663
1.32991
1.33027
1.33019
1.33051
1.16246
1.16247
1.16249
1.16252
1.16257
1.1627
1.16312
1.16343
1.16347
1.16348
1.16348
1.16347
1.16347
1.16344
1.16334
1.16316
1.16304
1.16276
1.16233
1.1622
1.16212
1.16186
1.16172
1.16166
1.16143
1.16086
1.16066
1.16063
1.16057
1.16033
1.1599
1.15976
1.15977
1.15986
1.16007
1.16047
1.16103
1.16119
1.1612
1.16116
1.16112
1.16113
1.16113
1.16089
1.16028
1.15993
1.15991
1.1601
1.16072
1.16136
1.16165
1.16173
1.16172
1.16172
1.1618
1.16182
1.16177
1.16196
1.16246
1.16253
1.16249
1.16254
1.16283
1.16291
1.16277
1.16196
1.16103
1.16095
1.1612
1.16144
1.16139
1.16092
1.1602
1.15993
1.15999
1.16028
1.16068
1.1609
1.16103
1.16114
1.16132
1.16149
1.1616
1.16169
1.16199
1.16299
1.16712
1.17594
1.1986
1.22731
1.25956
1.29285
1.3035
1.31449
1.32388
1.33026
1.32986
1.32916
1.32983
1.33089
1.1601
1.1603
1.16045
1.16064
1.16112
1.16178
1.16191
1.16193
1.1619
1.16185
1.16193
1.1622
1.16235
1.16234
1.1623
1.16231
1.16228
1.16199
1.16163
1.16156
1.1615
1.16136
1.16134
1.16133
1.1611
1.16048
1.16033
1.16034
1.16033
1.16001
1.15956
1.15953
1.15968
1.16029
1.16117
1.1614
1.16144
1.16148
1.16156
1.16155
1.16123
1.161
1.16088
1.16065
1.16059
1.16062
1.16081
1.16141
1.16214
1.1623
1.16242
1.16257
1.16273
1.16293
1.16307
1.16305
1.163
1.16293
1.16262
1.16226
1.16218
1.16228
1.16278
1.16308
1.16303
1.16241
1.16116
1.16072
1.16089
1.16161
1.16211
1.16206
1.16161
1.16106
1.16099
1.16114
1.16147
1.16153
1.16148
1.16138
1.16137
1.16141
1.16146
1.16141
1.16139
1.16152
1.162
1.16349
1.16889
1.18007
1.2066
1.23776
1.27327
1.30904
1.32096
1.32867
1.32403
1.32516
1.32798
1.33088
1.15599
1.15619
1.15643
1.15671
1.15716
1.15765
1.15808
1.15873
1.15908
1.15906
1.15921
1.15998
1.16038
1.1603
1.1599
1.15983
1.15979
1.15957
1.15939
1.15925
1.15913
1.15908
1.1591
1.15912
1.15887
1.15869
1.15869
1.15899
1.15938
1.15938
1.1595
1.16008
1.16123
1.16222
1.16265
1.16286
1.16302
1.16321
1.16341
1.16346
1.16337
1.1629
1.16227
1.1619
1.16171
1.16174
1.16209
1.16269
1.16279
1.16276
1.16274
1.16279
1.16308
1.16344
1.16362
1.16376
1.16388
1.16377
1.16286
1.16159
1.16115
1.1612
1.16204
1.16313
1.16321
1.16277
1.16159
1.16084
1.16093
1.16146
1.16238
1.16287
1.16281
1.16245
1.16217
1.16217
1.16231
1.16232
1.16214
1.16179
1.16154
1.16145
1.16137
1.16129
1.16127
1.16129
1.16136
1.16153
1.1622
1.16433
1.17134
1.18587
1.21631
1.25076
1.28008
1.30519
1.31288
1.32627
1.32913
1.33069
1.15118
1.15147
1.15189
1.15228
1.15283
1.15336
1.1534
1.15328
1.15338
1.15417
1.15533
1.15629
1.15691
1.15698
1.15695
1.15703
1.15727
1.15727
1.15699
1.15679
1.1567
1.15665
1.1567
1.15671
1.15639
1.1562
1.15618
1.1563
1.15674
1.15729
1.15802
1.15963
1.16149
1.16234
1.16265
1.16278
1.16288
1.16297
1.1631
1.16313
1.16308
1.16279
1.16224
1.1619
1.16175
1.16177
1.1622
1.16233
1.16209
1.16162
1.16153
1.16165
1.16234
1.16314
1.16342
1.16361
1.16372
1.16353
1.16252
1.16099
1.16015
1.16003
1.16041
1.16178
1.16285
1.16284
1.16245
1.16184
1.16166
1.16184
1.16242
1.16301
1.16315
1.16307
1.16281
1.1627
1.16279
1.16289
1.16281
1.1625
1.16215
1.1619
1.16167
1.16147
1.16148
1.16151
1.16161
1.16179
1.16193
1.16216
1.16294
1.16586
1.1754
1.19474
1.2291
1.26526
1.29973
1.32279
1.32703
1.32507
1.15685
1.15648
1.15634
1.15645
1.15658
1.15643
1.15572
1.15487
1.15432
1.15378
1.15362
1.15359
1.1536
1.1538
1.15397
1.15396
1.15398
1.15435
1.15465
1.15466
1.15444
1.15431
1.15442
1.15462
1.15453
1.15409
1.15303
1.1521
1.15203
1.15201
1.15186
1.15223
1.15442
1.15647
1.15648
1.15615
1.15623
1.15668
1.15753
1.15934
1.1601
1.16013
1.15971
1.15839
1.1578
1.15793
1.15847
1.1585
1.15803
1.1576
1.15771
1.15817
1.1588
1.1595
1.16031
1.16125
1.16191
1.16222
1.16231
1.16218
1.16154
1.16045
1.16015
1.16067
1.16198
1.16269
1.16288
1.16302
1.16304
1.16289
1.16279
1.16293
1.16318
1.16318
1.16304
1.16283
1.16275
1.16271
1.16264
1.16266
1.16266
1.16262
1.1625
1.16222
1.16201
1.16202
1.16206
1.16212
1.16213
1.16218
1.16231
1.16263
1.16383
1.16838
1.18131
1.20613
1.24298
1.27642
1.29883
1.31655
1.15672
1.15653
1.15608
1.1555
1.15467
1.15264
1.15041
1.1501
1.15024
1.15024
1.14995
1.14948
1.14923
1.14883
1.14872
1.14879
1.14871
1.14817
1.14832
1.1491
1.14923
1.14926
1.1497
1.15112
1.15186
1.15187
1.1519
1.15209
1.15221
1.15209
1.15102
1.14908
1.14881
1.14865
1.14712
1.14459
1.14419
1.14442
1.14582
1.14962
1.15363
1.15443
1.15433
1.15376
1.15341
1.15353
1.15428
1.15423
1.15346
1.15256
1.15262
1.15379
1.15467
1.15502
1.15555
1.15651
1.15769
1.1597
1.16167
1.16186
1.16168
1.16096
1.16018
1.16002
1.1603
1.16124
1.16246
1.16297
1.16304
1.16296
1.16274
1.16261
1.16271
1.16298
1.16298
1.16287
1.16271
1.16257
1.16255
1.16262
1.1628
1.16291
1.1629
1.16282
1.16275
1.16273
1.16267
1.16254
1.16234
1.1623
1.16237
1.16248
1.16266
1.16312
1.16519
1.17205
1.1907
1.21984
1.25877
1.30613
1.15539
1.15478
1.1545
1.15374
1.15135
1.14985
1.14967
1.14971
1.1505
1.1513
1.15133
1.15133
1.15144
1.1514
1.15135
1.15159
1.15163
1.151
1.15064
1.1509
1.15091
1.15088
1.1512
1.15288
1.15565
1.15782
1.15934
1.15999
1.15986
1.15922
1.15723
1.15323
1.15043
1.14877
1.14672
1.14494
1.14471
1.1451
1.14658
1.14911
1.15192
1.1546
1.15577
1.15552
1.15517
1.1553
1.1563
1.15659
1.15588
1.15498
1.15435
1.15365
1.15308
1.15272
1.15253
1.15243
1.1525
1.15319
1.15509
1.15733
1.15789
1.15792
1.15746
1.15668
1.15642
1.15675
1.15802
1.15991
1.16129
1.1615
1.16127
1.16096
1.16101
1.16142
1.16226
1.16286
1.16287
1.16286
1.16287
1.16291
1.16302
1.16306
1.16305
1.16307
1.16314
1.16316
1.16312
1.16297
1.16278
1.16253
1.16253
1.16262
1.16277
1.1629
1.16303
1.16378
1.16713
1.17803
1.20007
1.25187
1.16769
1.16478
1.16456
1.16542
1.16621
1.16578
1.16434
1.16426
1.16594
1.16781
1.16798
1.16726
1.16666
1.1669
1.16804
1.1682
1.16795
1.16835
1.16881
1.16771
1.16342
1.16193
1.16195
1.16438
1.16776
1.16828
1.16887
1.17011
1.17191
1.17257
1.17234
1.17044
1.16698
1.16471
1.16308
1.16143
1.16007
1.15865
1.1566
1.15512
1.15554
1.15703
1.15743
1.15726
1.15704
1.15714
1.15713
1.15732
1.15717
1.15628
1.15561
1.15509
1.15463
1.15463
1.15456
1.15386
1.1524
1.15154
1.15139
1.15141
1.1519
1.153
1.15398
1.15395
1.15353
1.15341
1.15375
1.15467
1.15595
1.15696
1.15742
1.15776
1.15817
1.15862
1.15945
1.1609
1.16225
1.16268
1.16277
1.16281
1.16299
1.16307
1.16307
1.1631
1.16322
1.16319
1.16299
1.16273
1.16269
1.16272
1.1628
1.16292
1.1631
1.16317
1.16319
1.16313
1.16324
1.16463
1.16972
1.20168
1.22007
1.21938
1.21673
1.21556
1.21422
1.20829
1.20298
1.20312
1.20387
1.20249
1.19932
1.19916
1.19975
1.19963
1.1981
1.19575
1.19486
1.19461
1.194
1.19063
1.18334
1.18006
1.17973
1.17971
1.17934
1.17773
1.17737
1.17881
1.17943
1.18008
1.18108
1.17925
1.17721
1.1782
1.17913
1.17839
1.17791
1.1786
1.17815
1.17359
1.16788
1.16487
1.16421
1.16487
1.16515
1.16484
1.16257
1.15812
1.15654
1.15636
1.15681
1.15732
1.15807
1.16017
1.16267
1.16291
1.16105
1.15632
1.15266
1.15225
1.15283
1.15387
1.15483
1.15615
1.15639
1.15574
1.15472
1.15441
1.15444
1.15478
1.15594
1.15629
1.15584
1.15481
1.15478
1.15545
1.15697
1.15823
1.15919
1.15998
1.1608
1.16141
1.16194
1.16225
1.16268
1.16296
1.16291
1.16282
1.1629
1.16311
1.16325
1.1635
1.16365
1.16361
1.16347
1.16316
1.16279
1.16271
1.16317
1.1731
1.26979
1.26989
1.26913
1.26793
1.26619
1.2601
1.25331
1.25272
1.25323
1.25285
1.25216
1.25256
1.25361
1.25404
1.25479
1.25583
1.25566
1.25432
1.25217
1.24848
1.24519
1.24513
1.24635
1.24586
1.24182
1.23565
1.23397
1.23464
1.23531
1.2345
1.23006
1.22403
1.22104
1.21897
1.21486
1.20909
1.20746
1.20837
1.20928
1.20731
1.20286
1.20269
1.20559
1.20603
1.20431
1.20128
1.19727
1.1914
1.18597
1.18042
1.17377
1.17055
1.17041
1.17314
1.17735
1.17841
1.17805
1.17597
1.17054
1.16385
1.16008
1.15917
1.15931
1.1608
1.16141
1.1611
1.15988
1.15691
1.15493
1.15495
1.15557
1.15604
1.15564
1.1541
1.1532
1.15325
1.15378
1.15486
1.15619
1.1573
1.15793
1.15863
1.15956
1.16054
1.1613
1.16209
1.16233
1.16246
1.16264
1.16289
1.16322
1.16375
1.16394
1.1639
1.1637
1.16307
1.16264
1.16258
1.16268
1.16488
1.3427
1.34072
1.33708
1.33387
1.33088
1.3282
1.32766
1.32789
1.32888
1.32822
1.32326
1.31869
1.31687
1.3154
1.31417
1.31424
1.31424
1.3116
1.3077
1.30732
1.3068
1.30258
1.29966
1.29885
1.2976
1.29396
1.28798
1.28573
1.28611
1.28655
1.28471
1.28262
1.28318
1.28284
1.27962
1.2762
1.27398
1.27122
1.2665
1.26072
1.25319
1.24622
1.24314
1.2416
1.23665
1.23292
1.23251
1.2314
1.23005
1.22693
1.21926
1.21269
1.21058
1.20752
1.19949
1.19104
1.1902
1.1915
1.18977
1.18567
1.18491
1.18372
1.17742
1.16746
1.16432
1.16509
1.16758
1.16773
1.16584
1.16132
1.15829
1.1583
1.15785
1.15653
1.15662
1.15739
1.15826
1.15929
1.15973
1.15959
1.1587
1.1576
1.1574
1.15759
1.15773
1.15799
1.15874
1.15979
1.16098
1.16211
1.16291
1.16342
1.16347
1.1634
1.16314
1.16273
1.16268
1.16279
1.16318
1.16374
1.40963
1.40893
1.40798
1.40767
1.40669
1.40271
1.39988
1.39967
1.39981
1.40087
1.40107
1.39874
1.39443
1.39204
1.391
1.38954
1.38732
1.38682
1.38714
1.38704
1.38541
1.3823
1.37713
1.37415
1.37437
1.37405
1.36876
1.36321
1.36229
1.36161
1.35923
1.3555
1.35037
1.34423
1.34093
1.33944
1.33742
1.33357
1.32939
1.32608
1.32238
1.31794
1.31396
1.31148
1.30793
1.30377
1.30116
1.29536
1.28653
1.27972
1.27116
1.26545
1.26582
1.26638
1.26208
1.25349
1.24782
1.24051
1.22892
1.22317
1.22355
1.22407
1.22172
1.21407
1.20285
1.19236
1.18925
1.19023
1.19035
1.18691
1.17931
1.17521
1.17335
1.17031
1.16822
1.16622
1.16432
1.16196
1.15962
1.15754
1.15553
1.1551
1.15523
1.15554
1.1557
1.156
1.15666
1.15743
1.15826
1.1595
1.16079
1.16114
1.16146
1.16186
1.16214
1.16239
1.16287
1.16351
1.16394
1.16403
1.49251
1.49218
1.49176
1.49072
1.48979
1.48856
1.48534
1.48191
1.48162
1.48173
1.48042
1.47649
1.47536
1.4745
1.47044
1.46728
1.46732
1.46704
1.46638
1.4641
1.46049
1.45805
1.45607
1.45396
1.45159
1.44909
1.44398
1.43916
1.43823
1.43762
1.43593
1.43236
1.42927
1.42625
1.42301
1.41972
1.41619
1.41176
1.40705
1.40223
1.39685
1.39107
1.38627
1.3787
1.37063
1.3698
1.36974
1.36743
1.3606
1.35262
1.34608
1.33984
1.33344
1.32686
1.31622
1.30866
1.30685
1.30338
1.29503
1.28767
1.2812
1.26821
1.25953
1.25635
1.25205
1.2457
1.23476
1.22422
1.21953
1.21647
1.21002
1.19968
1.19336
1.18985
1.18479
1.1776
1.17139
1.16627
1.16225
1.16029
1.15842
1.15762
1.15785
1.15901
1.1605
1.1617
1.16121
1.16
1.15887
1.15821
1.15818
1.15848
1.15926
1.16005
1.16085
1.16213
1.16274
1.16332
1.16363
1.16358
1.57704
1.5765
1.57588
1.57502
1.57415
1.57205
1.56787
1.56714
1.56743
1.56701
1.56564
1.56182
1.5586
1.55838
1.55749
1.55564
1.55205
1.54829
1.54781
1.54746
1.54612
1.54218
1.53751
1.53555
1.53433
1.53268
1.52935
1.52416
1.51973
1.51698
1.51474
1.512
1.50887
1.50538
1.49879
1.49386
1.49156
1.48935
1.48565
1.48095
1.47624
1.47068
1.46499
1.45994
1.45464
1.44975
1.44489
1.43911
1.43236
1.42487
1.41792
1.41216
1.40673
1.40102
1.39408
1.38635
1.37869
1.37005
1.36057
1.35392
1.34861
1.34
1.33091
1.3221
1.31085
1.30249
1.29571
1.28816
1.27681
1.26696
1.26029
1.25112
1.24077
1.23501
1.22917
1.22135
1.21355
1.20715
1.19953
1.19293
1.18748
1.18121
1.17568
1.17115
1.16843
1.16453
1.16065
1.15785
1.15689
1.15684
1.15711
1.15761
1.1588
1.16103
1.16161
1.16151
1.1614
1.16133
1.1616
1.16247
1.66624
1.66587
1.6655
1.66418
1.66297
1.66268
1.66166
1.65763
1.65329
1.65298
1.65351
1.6533
1.65183
1.64611
1.64259
1.6426
1.64229
1.64047
1.63467
1.63191
1.63151
1.63055
1.62749
1.62334
1.62034
1.61815
1.61586
1.61272
1.60846
1.603
1.59928
1.59696
1.59461
1.59132
1.58689
1.58194
1.57638
1.57195
1.56801
1.56325
1.55838
1.55347
1.5477
1.54189
1.53558
1.52952
1.52492
1.51991
1.51317
1.50626
1.49991
1.49283
1.48503
1.47752
1.46974
1.46168
1.4544
1.44733
1.4397
1.43089
1.42097
1.4096
1.40073
1.39354
1.38513
1.37395
1.36012
1.35159
1.34427
1.33285
1.31898
1.30927
1.29925
1.28782
1.27707
1.26673
1.25438
1.24387
1.23497
1.22406
1.21338
1.20328
1.19315
1.1831
1.17559
1.16937
1.16446
1.16175
1.16046
1.16099
1.16263
1.16382
1.16455
1.16404
1.16254
1.15988
1.15894
1.15944
1.16013
1.16146
1.7645
1.76056
1.75931
1.75925
1.75869
1.75707
1.75605
1.75463
1.75079
1.74668
1.74639
1.74677
1.7464
1.74403
1.73719
1.73398
1.73413
1.73377
1.73076
1.72466
1.72245
1.72187
1.72038
1.71619
1.71153
1.70876
1.70634
1.7029
1.69898
1.69517
1.69157
1.68758
1.68347
1.67936
1.67458
1.66966
1.66478
1.65944
1.65476
1.65054
1.64576
1.64016
1.63386
1.62789
1.62212
1.61484
1.6078
1.60259
1.59682
1.58856
1.58101
1.57432
1.56684
1.55901
1.55142
1.54301
1.53329
1.52425
1.51565
1.50644
1.49756
1.48828
1.47834
1.46757
1.45565
1.44626
1.4363
1.42407
1.41248
1.40199
1.38984
1.37664
1.36445
1.35306
1.34091
1.3286
1.31694
1.30381
1.29103
1.2797
1.2678
1.25682
1.24667
1.23545
1.22348
1.21463
1.20596
1.19775
1.18906
1.18205
1.17561
1.16947
1.16545
1.16185
1.15916
1.15817
1.15844
1.15964
1.16176
1.16255
1.867
1.86406
1.86126
1.86066
1.85965
1.85715
1.85632
1.85538
1.85183
1.84719
1.84679
1.84723
1.84682
1.84427
1.83698
1.83381
1.834
1.83376
1.83097
1.82313
1.82043
1.82001
1.81902
1.81564
1.81044
1.80555
1.80187
1.79867
1.79517
1.7907
1.78596
1.78168
1.77739
1.77299
1.76832
1.76354
1.75874
1.75289
1.74609
1.74097
1.73662
1.73147
1.72494
1.71816
1.71221
1.70546
1.69707
1.68969
1.68336
1.67581
1.66762
1.66053
1.65259
1.6435
1.63516
1.62678
1.61709
1.60647
1.59677
1.58765
1.57804
1.56765
1.55681
1.54647
1.53518
1.52315
1.51175
1.50066
1.48868
1.47512
1.46281
1.45066
1.43681
1.42369
1.41164
1.39673
1.38272
1.36971
1.35479
1.33971
1.32608
1.31157
1.29664
1.28256
1.26797
1.25522
1.24223
1.2291
1.21539
1.20128
1.18878
1.17727
1.16999
1.16599
1.16243
1.16247
1.16369
1.16628
1.1659
1.16384
1.97463
1.97331
1.97216
1.9704
1.96702
1.96591
1.9645
1.9599
1.95471
1.95326
1.95405
1.95493
1.9541
1.95089
1.94331
1.93772
1.9377
1.93767
1.93684