/*--------------------------------*- C++ -*----------------------------------*\
  =========                 |
  \\      /  F ield         | OpenFOAM: The Open Source CFD Toolbox
   \\    /   O peration     | Website:  https://openfoam.org
    \\  /    A nd           | Version:  7
     \\/     M anipulation  |
\*---------------------------------------------------------------------------*/
FoamFile
{
    version     2.0;
    format      ascii;
    class       volScalarField;
    location    "3.5";
    object      p;
}
// * * * * * * * * * * * * * * * * * * * * * * * * * * * * * * * * * * * * * //

dimensions      [1 -1 -2 0 0 0 0];

internalField   nonuniform List<scalar> 
90000
(
0.0690904
0.105679
0.148479
0.185682
0.202696
0.227875
0.26378
0.284185
0.302194
0.333649
0.369047
0.398527
0.435659
0.477116
0.519994
0.563172
0.605658
0.652485
0.692121
0.732893
0.769152
0.79629
0.822708
0.833032
0.841973
0.840116
0.830764
0.82491
0.821167
0.804158
0.795
0.79526
0.789335
0.786979
0.785903
0.783482
0.782514
0.787015
0.794036
0.793711
0.79253
0.796386
0.793266
0.788836
0.788478
0.787624
0.784952
0.782999
0.782966
0.782078
0.781814
0.780066
0.778027
0.776212
0.776552
0.778033
0.781524
0.785753
0.792315
0.799584
0.803361
0.8064
0.808878
0.809056
0.808268
0.806174
0.80258
0.797233
0.790126
0.782685
0.777181
0.773588
0.772637
0.771869
0.773904
0.774971
0.776101
0.775074
0.771988
0.771313
0.774705
0.779568
0.786779
0.789266
0.793463
0.798952
0.807908
0.820094
0.827144
0.830042
0.837324
0.84033
0.846972
0.853416
0.854559
0.861528
0.866195
0.870218
0.875629
0.882556
0.0334529
0.0334319
0.0334094
0.0333882
0.0333672
0.0333494
0.0333314
0.0333164
0.0333
0.0332764
0.0333592
0.0342013
0.0369486
0.0430096
0.0518121
0.0659589
0.0842036
0.10903
0.143075
0.181868
0.234309
0.29469
0.362898
0.439499
0.518653
0.599335
0.672318
0.732566
0.795362
0.819749
0.842669
0.850357
0.844604
0.833444
0.818666
0.802953
0.794511
0.783206
0.778695
0.778494
0.77728
0.773436
0.770108
0.769801
0.771388
0.776894
0.782438
0.788302
0.792732
0.794849
0.796377
0.796023
0.796375
0.799478
0.80322
0.806555
0.810838
0.813933
0.816658
0.816718
0.810975
0.805024
0.799416
0.795585
0.792485
0.790244
0.788683
0.786188
0.783036
0.779913
0.777698
0.777333
0.77857
0.78004
0.780723
0.779548
0.77603
0.771018
0.771296
0.775466
0.782041
0.787287
0.791796
0.794871
0.800035
0.80938
0.817325
0.830707
0.83204
0.83538
0.842348
0.846035
0.85441
0.85617
0.858686
0.865211
0.868726
0.873617
0.878626
0.885682
0.0334496
0.0334512
0.0334557
0.0334596
0.0334628
0.0334667
0.0334715
0.0334754
0.0334787
0.033483
0.0334866
0.0334963
0.0334806
0.0334608
0.0334439
0.0334283
0.0334168
0.0334074
0.033404
0.0333988
0.0334011
0.0333865
0.0344144
0.0411254
0.0537753
0.0784917
0.115217
0.166336
0.230903
0.314725
0.394778
0.479861
0.560785
0.633411
0.70317
0.752947
0.805495
0.828345
0.848521
0.857127
0.862626
0.848314
0.837574
0.823348
0.809071
0.792836
0.772482
0.753793
0.741302
0.737742
0.746088
0.763682
0.784001
0.805185
0.817534
0.819432
0.812151
0.80172
0.791655
0.787007
0.787939
0.792626
0.797427
0.800377
0.800504
0.799136
0.795981
0.79287
0.790724
0.788938
0.78677
0.786273
0.785321
0.782962
0.77705
0.772003
0.770636
0.772585
0.779551
0.786556
0.790826
0.794734
0.797474
0.800357
0.808233
0.819729
0.827971
0.836398
0.836188
0.840813
0.84802
0.852945
0.858089
0.858743
0.862489
0.868468
0.871977
0.876634
0.881994
0.888535
0.0334627
0.0334708
0.0334788
0.0334852
0.03349
0.0334933
0.033496
0.0334969
0.0334961
0.0334949
0.0334953
0.0334942
0.0334923
0.0334928
0.0334935
0.0334923
0.0334895
0.0334882
0.03349
0.0334893
0.0334877
0.0334851
0.0334734
0.0334604
0.0334479
0.0334376
0.0334339
0.0334368
0.033444
0.0334374
0.0360938
0.0483563
0.0728403
0.113875
0.169218
0.243587
0.327145
0.426562
0.520484
0.606414
0.69439
0.753654
0.810499
0.834885
0.851454
0.83885
0.827368
0.809309
0.793105
0.790725
0.785632
0.775485
0.771808
0.778142
0.789761
0.799269
0.80433
0.80967
0.811152
0.809406
0.808663
0.807373
0.807601
0.807257
0.802464
0.794478
0.786078
0.779854
0.777373
0.778522
0.780292
0.780263
0.77877
0.778304
0.778461
0.780022
0.784141
0.791165
0.798476
0.798214
0.794171
0.797277
0.802871
0.810901
0.824045
0.833501
0.8401
0.842247
0.841865
0.848756
0.855447
0.860013
0.862264
0.863043
0.867411
0.872833
0.876302
0.88059
0.886142
0.891988
0.0335651
0.0335587
0.0335515
0.0335454
0.033539
0.0335323
0.033525
0.0335172
0.0335096
0.0335043
0.0335001
0.0334943
0.0334879
0.033485
0.033484
0.0334811
0.033476
0.0334714
0.0334717
0.0334759
0.033476
0.0334683
0.0334587
0.0334494
0.0334393
0.0334301
0.0334289
0.0334368
0.0334441
0.0334407
0.0334204
0.0334001
0.0333938
0.0334104
0.0334437
0.0334773
0.0334776
0.0414496
0.0604074
0.104373
0.166148
0.263047
0.370331
0.489288
0.61157
0.699918
0.7849
0.824092
0.850458
0.855148
0.849128
0.829515
0.800737
0.771017
0.739669
0.733853
0.746426
0.774054
0.805875
0.827913
0.834528
0.821346
0.799645
0.781273
0.771017
0.774112
0.783528
0.789763
0.790037
0.787911
0.786072
0.786714
0.788048
0.790089
0.790587
0.790476
0.790905
0.791252
0.790793
0.794012
0.800711
0.811237
0.821475
0.832804
0.84143
0.834794
0.836135
0.840284
0.84842
0.855485
0.858002
0.858693
0.859492
0.864963
0.872112
0.87646
0.880455
0.88575
0.891349
0.892198
0.0334918
0.0334862
0.0334801
0.0334736
0.0334682
0.0334643
0.0334603
0.0334571
0.033456
0.0334562
0.0334555
0.0334521
0.0334476
0.0334456
0.0334493
0.0334489
0.0334445
0.0334392
0.0334404
0.0334492
0.0334481
0.0334402
0.0334306
0.0334207
0.03341
0.0334022
0.0334007
0.0334061
0.0334133
0.0334038
0.033387
0.0333812
0.0334007
0.0334362
0.0334756
0.0335128
0.0335451
0.0335465
0.0335415
0.0335445
0.0335711
0.0335827
0.0355936
0.0541044
0.0957701
0.182499
0.294222
0.433837
0.580073
0.673878
0.758872
0.78564
0.795429
0.785182
0.772034
0.77635
0.77936
0.779129
0.783569
0.796261
0.804901
0.805096
0.8035
0.796124
0.783512
0.774926
0.775931
0.787051
0.795626
0.795744
0.788344
0.781938
0.779064
0.785781
0.791901
0.793642
0.7921
0.793289
0.801132
0.811811
0.820456
0.824942
0.825541
0.828164
0.832703
0.838669
0.849482
0.858354
0.86907
0.865218
0.858552
0.862058
0.869572
0.878708
0.883931
0.884606
0.888801
0.894428
0.892446
0.894267
0.0334239
0.0334214
0.0334192
0.0334168
0.0334133
0.0334095
0.0334107
0.0334173
0.0334287
0.0334372
0.0334395
0.033439
0.033437
0.0334358
0.0334415
0.0334435
0.0334382
0.0334323
0.0334305
0.0334334
0.0334336
0.0334304
0.0334259
0.0334179
0.0334084
0.0334022
0.033402
0.0334032
0.0334036
0.0334012
0.0334041
0.0334219
0.0334473
0.0334788
0.033517
0.0335537
0.0335733
0.0335782
0.0335807
0.0336009
0.0336461
0.0336827
0.0336786
0.0336685
0.0336547
0.0336397
0.033615
0.0453228
0.0827192
0.168713
0.289467
0.439601
0.595202
0.696157
0.784791
0.808096
0.805987
0.799843
0.789663
0.772624
0.757727
0.758901
0.775748
0.799184
0.81385
0.805688
0.789894
0.771587
0.767692
0.776589
0.788068
0.794074
0.792966
0.786719
0.78875
0.79887
0.805744
0.807748
0.810093
0.816846
0.824555
0.830498
0.834627
0.839792
0.848057
0.855882
0.859192
0.857197
0.855098
0.859695
0.866803
0.872845
0.875985
0.876741
0.880912
0.884514
0.887699
0.88897
0.893023
0.899246
0.0334063
0.0334059
0.0334055
0.0334025
0.0333992
0.033401
0.0334102
0.0334382
0.0334697
0.0334827
0.0334872
0.0334896
0.0334935
0.0334977
0.0334931
0.0334852
0.033479
0.0334797
0.0334844
0.0334867
0.0334832
0.0334803
0.0334828
0.0334839
0.03348
0.0334729
0.0334655
0.0334595
0.0334535
0.0334474
0.0334542
0.0334739
0.0334953
0.0335217
0.0335459
0.0335577
0.0335564
0.033551
0.0335548
0.0335806
0.0336339
0.0336681
0.0336787
0.0336787
0.0336702
0.0336584
0.0336367
0.0336091
0.0336023
0.0335986
0.0335872
0.0486721
0.0957904
0.209409
0.365918
0.514115
0.635349
0.696894
0.745746
0.742121
0.751571
0.763865
0.771937
0.782379
0.807877
0.815086
0.807513
0.792638
0.777564
0.768709
0.775898
0.788093
0.799248
0.799793
0.792339
0.7877
0.795711
0.809906
0.818225
0.822056
0.825708
0.831426
0.839277
0.847136
0.851691
0.857032
0.85999
0.862442
0.866948
0.870485
0.871703
0.873339
0.877975
0.884684
0.891585
0.893212
0.893591
0.898213
0.902196
0.903234
0.0334362
0.0334386
0.0334484
0.0334652
0.0334814
0.0334961
0.0335179
0.0335441
0.0335631
0.0335741
0.0335766
0.0335762
0.0335777
0.0335824
0.0335856
0.0335853
0.0335812
0.0335759
0.033571
0.0335645
0.033558
0.0335552
0.0335583
0.0335545
0.0335421
0.0335255
0.0335098
0.0334956
0.0334818
0.0334733
0.0334874
0.0335116
0.0335311
0.0335522
0.0335576
0.0335447
0.0335294
0.0335202
0.0335259
0.033554
0.033612
0.0336525
0.0336664
0.0336702
0.033668
0.0336622
0.0336389
0.0335999
0.0335937
0.0335957
0.0335898
0.0335688
0.0335415
0.0334572
0.0360905
0.0713089
0.152778
0.283888
0.455503
0.592665
0.711671
0.750819
0.776601
0.780027
0.790501
0.797375
0.793812
0.793094
0.791495
0.785739
0.78193
0.781784
0.788326
0.800193
0.807564
0.808795
0.808738
0.815776
0.825949
0.831823
0.836114
0.839485
0.840993
0.843733
0.849012
0.857622
0.863277
0.864222
0.866738
0.873265
0.877428
0.878469
0.883744
0.888864
0.892516
0.893087
0.89313
0.896505
0.898341
0.900688
0.0335279
0.0335417
0.0335688
0.0336044
0.033628
0.0336397
0.033643
0.0336421
0.0336409
0.0336401
0.0336394
0.0336406
0.0336427
0.0336437
0.033643
0.0336426
0.0336434
0.0336396
0.0336306
0.0336193
0.0336076
0.0336013
0.0336005
0.0335922
0.0335807
0.0335649
0.0335466
0.0335302
0.0335177
0.0335168
0.0335285
0.0335488
0.0335729
0.0335775
0.0335628
0.0335222
0.0334995
0.0334935
0.0335011
0.0335296
0.0335849
0.0336228
0.0336319
0.0336344
0.033634
0.0336287
0.0335896
0.0335298
0.033538
0.0335453
0.0335158
0.0334469
0.03338
0.0333347
0.0332548
0.0331964
0.0330994
0.0328352
0.04979
0.128908
0.260321
0.423471
0.587032
0.66891
0.735348
0.747197
0.77672
0.795053
0.807548
0.801074
0.792011
0.785028
0.785026
0.791385
0.801996
0.811769
0.817045
0.819531
0.82333
0.827671
0.836145
0.844146
0.850982
0.853297
0.856766
0.861334
0.866022
0.867827
0.862837
0.863973
0.876465
0.886167
0.888145
0.886733
0.888341
0.891808
0.896419
0.896832
0.903037
0.907207
0.0335511
0.0335655
0.0335786
0.0335931
0.033611
0.0336312
0.0336458
0.0336517
0.0336524
0.03365
0.0336462
0.033644
0.0336463
0.0336503
0.0336517
0.0336526
0.0336545
0.0336537
0.0336497
0.0336423
0.0336327
0.0336284
0.033634
0.0336305
0.0336219
0.0336083
0.0335887
0.0335692
0.0335605
0.0335597
0.0335614
0.033576
0.0335916
0.0335896
0.0335621
0.0335014
0.0334722
0.0334671
0.0334761
0.0334993
0.033524
0.0335419
0.0335426
0.0335403
0.0335368
0.033523
0.0334857
0.0334105
0.0333267
0.0332439
0.0331482
0.0330434
0.0329388
0.0328848
0.0328853
0.0328801
0.0328293
0.0327058
0.0325548
0.0324894
0.0324959
0.0520782
0.115982
0.256167
0.431419
0.588346
0.723811
0.769146
0.79735
0.798712
0.802476
0.790839
0.798424
0.804895
0.813468
0.823683
0.829318
0.828807
0.829692
0.833793
0.835715
0.840407
0.847224
0.852802
0.85729
0.861654
0.863884
0.870084
0.873839
0.875622
0.878808
0.887538
0.89272
0.892158
0.890802
0.891618
0.897962
0.900075
0.897062
0.900291
0.0335487
0.033563
0.0335772
0.0335943
0.033613
0.0336278
0.0336345
0.0336371
0.0336387
0.0336397
0.0336387
0.033636
0.0336332
0.0336319
0.0336319
0.0336354
0.0336442
0.0336477
0.0336439
0.0336361
0.0336296
0.0336409
0.0336609
0.0336608
0.0336544
0.0336424
0.0336241
0.0336086
0.0335997
0.0335943
0.0335862
0.0335813
0.0335846
0.0335822
0.0335544
0.0334785
0.0334049
0.033386
0.0333902
0.0333933
0.0333897
0.0333915
0.0334039
0.0333995
0.0333798
0.033341
0.0332978
0.0332331
0.0331224
0.0329778
0.0328228
0.0326931
0.0326179
0.0326208
0.0326307
0.0326442
0.0326432
0.0325994
0.0325039
0.0324736
0.0325161
0.0326658
0.0329833
0.0332972
0.0476041
0.127334
0.274735
0.460476
0.645534
0.728371
0.777895
0.785016
0.821899
0.816735
0.820367
0.822367
0.825624
0.827442
0.831361
0.837345
0.84426
0.850805
0.856354
0.860132
0.862576
0.865153
0.866225
0.866431
0.871011
0.877427
0.881791
0.885265
0.888356
0.8898
0.891089
0.893255
0.896682
0.901996
0.903486
0.905972
0.0335734
0.0335795
0.0335855
0.0335932
0.0336011
0.03361
0.0336158
0.033617
0.0336175
0.033623
0.0336259
0.0336207
0.0336109
0.0336037
0.0336016
0.0336064
0.0336211
0.0336276
0.0336248
0.0336186
0.0336188
0.0336401
0.0336697
0.0336709
0.0336677
0.0336589
0.033643
0.0336291
0.033617
0.0336048
0.0335881
0.0335681
0.033563
0.0335569
0.0335248
0.0334279
0.0332948
0.0332199
0.0332134
0.0332207
0.0332345
0.0332395
0.0332414
0.0332238
0.033171
0.0330925
0.0330303
0.0329707
0.0328812
0.0327415
0.0325683
0.0324778
0.0324759
0.0324968
0.0325475
0.0325971
0.0326027
0.0325705
0.0325455
0.0325957
0.0327934
0.0331981
0.0337663
0.0344097
0.034896
0.0354536
0.0358191
0.0665762
0.158478
0.346453
0.557218
0.693358
0.774184
0.790651
0.822899
0.831477
0.838627
0.839769
0.844507
0.844045
0.851424
0.855073
0.854812
0.855555
0.857462
0.859733
0.863598
0.871531
0.881308
0.888083
0.889031
0.888148
0.889027
0.89088
0.894965
0.898733
0.899108
0.899754
0.902539
0.90658
0.0335406
0.0335447
0.0335465
0.0335508
0.033558
0.0335662
0.0335757
0.0335773
0.0335773
0.0335822
0.0335766
0.0335284
0.0334969
0.0334958
0.0335056
0.0335389
0.0335704
0.0335712
0.0335562
0.033548
0.0335542
0.0335998
0.0336386
0.0336402
0.0336378
0.033626
0.0336098
0.0335964
0.0335743
0.0335305
0.0334778
0.0334641
0.0334603
0.0334461
0.033386
0.033269
0.033174
0.0331329
0.0331246
0.033117
0.0330849
0.0330097
0.0329547
0.0329216
0.0328754
0.0328108
0.0327538
0.0327092
0.0326583
0.0325827
0.03249
0.0324431
0.032444
0.0324643
0.0325239
0.0325959
0.0327128
0.0328732
0.0331815
0.0336453
0.0342352
0.0347473
0.0351886
0.0356098
0.0360089
0.0365659
0.0375836
0.0385488
0.039323
0.0442644
0.0907152
0.232196
0.416441
0.58971
0.721572
0.765911
0.814786
0.851087
0.859675
0.843786
0.853253
0.849769
0.85279
0.861587
0.872299
0.874529
0.878085
0.881732
0.882524
0.88343
0.882439
0.881015
0.883784
0.889783
0.896872
0.900555
0.901782
0.904521
0.909702
0.913375
0.0335012
0.033499
0.0334918
0.0334745
0.0334629
0.0334573
0.0334555
0.0334631
0.0334682
0.0334541
0.033364
0.033194
0.0331567
0.0331604
0.0331834
0.0332495
0.0333134
0.0333146
0.0332829
0.0332742
0.0332936
0.0333787
0.0334313
0.0334325
0.0334245
0.0333908
0.0333473
0.0333313
0.0333061
0.0332448
0.0331708
0.0331263
0.0331099
0.0331022
0.0330641
0.032999
0.0329963
0.0329913
0.0329703
0.0329295
0.0328421
0.0326862
0.0326262
0.0326202
0.0326151
0.0326068
0.0326018
0.0325937
0.0325788
0.0325424
0.0324865
0.0324492
0.0324519
0.0324927
0.0326518
0.0329703
0.033458
0.0342066
0.03507
0.0359616
0.0366701
0.0369401
0.037117
0.0373314
0.0375481
0.038133
0.0395197
0.0414611
0.0431145
0.0439213
0.0444322
0.0449815
0.054866
0.13315
0.276233
0.475347
0.655294
0.74362
0.808126
0.830532
0.884127
0.86744
0.870999
0.86945
0.865847
0.865791
0.875762
0.880774
0.882286
0.88542
0.890201
0.894161
0.89829
0.900622
0.904272
0.905491
0.907021
0.907667
0.908781
0.909595
0.0333213
0.0333041
0.0332965
0.0332868
0.0332694
0.033235
0.0331689
0.0330985
0.0330244
0.0329173
0.0328545
0.0328488
0.0328496
0.0328582
0.032909
0.0329924
0.0330041
0.0329901
0.032966
0.0329659
0.0329873
0.0330545
0.0330923
0.0330861
0.0330503
0.0330006
0.0329746
0.0329605
0.0329261
0.0328369
0.0327566
0.032755
0.0327819
0.0327924
0.0327751
0.0327536
0.0327563
0.0327558
0.0327426
0.0327169
0.0326606
0.0325632
0.0325215
0.0325108
0.0325185
0.0325377
0.0325675
0.0325753
0.032572
0.0325624
0.0325976
0.0327244
0.0329336
0.0333139
0.0339045
0.0346175
0.0353557
0.0362548
0.037124
0.0377933
0.0382575
0.0385151
0.0387835
0.0393155
0.0404726
0.0420121
0.0435137
0.0450439
0.046037
0.0459492
0.0460199
0.046934
0.0484426
0.0504708
0.0516537
0.0801036
0.16722
0.341004
0.547961
0.705603
0.789819
0.826404
0.889396
0.891286
0.88287
0.873416
0.876132
0.877195
0.887769
0.894628
0.896678
0.89845
0.896944
0.89421
0.896799
0.899641
0.904362
0.908185
0.910092
0.913976
0.0329952
0.0330104
0.0330091
0.0329996
0.0329795
0.0329149
0.0327647
0.0327017
0.0327006
0.0327155
0.0327372
0.0327447
0.0327503
0.0327747
0.0328502
0.0328842
0.0328788
0.0328428
0.0327907
0.0327846
0.0327983
0.0328288
0.0328314
0.0327991
0.0327155
0.0326889
0.0326819
0.0326746
0.0326414
0.0325691
0.0325433
0.0325497
0.0325909
0.0326324
0.0326399
0.0326458
0.0326593
0.0326687
0.0326652
0.0326498
0.0326184
0.0325479
0.0325107
0.0325036
0.0325215
0.0325642
0.0326674
0.0328343
0.0330752
0.0335059
0.0341716
0.0350331
0.0358963
0.0366822
0.0371567
0.0375224
0.0378686
0.0381811
0.0386879
0.039123
0.0396172
0.0404457
0.0414967
0.0428963
0.0446264
0.0460354
0.0467157
0.0474527
0.0478963
0.0482167
0.0486391
0.0495987
0.0511215
0.0531209
0.055697
0.0561237
0.0558808
0.0567517
0.0947338
0.235308
0.417806
0.621938
0.762109
0.80336
0.854012
0.899083
0.902399
0.883393
0.889497
0.88558
0.890585
0.90324
0.907033
0.908641
0.908455
0.90747
0.909943
0.913327
0.91564
0.917123
0.0327858
0.0327938
0.0327915
0.032774
0.0327645
0.0327653
0.0327803
0.0327866
0.0327931
0.0328119
0.0328318
0.0328444
0.0328495
0.0328553
0.0328563
0.0328557
0.0328381
0.0327543
0.0326701
0.0326659
0.0326817
0.0327044
0.0327023
0.0326445
0.0325418
0.0325251
0.0325322
0.0325337
0.0325096
0.0324725
0.0324695
0.0324812
0.0325303
0.0325918
0.0326226
0.0326354
0.0326534
0.0326616
0.0326653
0.0326742
0.0327386
0.0328409
0.0329642
0.0331238
0.0333592
0.033729
0.0343364
0.0351127
0.0359883
0.0368335
0.0376482
0.0382832
0.0388512
0.0393911
0.0396086
0.039741
0.039931
0.0400935
0.0406163
0.0416675
0.0430394
0.0445115
0.0459287
0.0469133
0.0476799
0.0483497
0.0485408
0.0488161
0.0496016
0.0512459
0.0530645
0.0546024
0.0554519
0.0558818
0.0569543
0.0585292
0.0598142
0.0609578
0.0623646
0.0635773
0.0714777
0.14384
0.293371
0.510298
0.708952
0.799004
0.85452
0.879541
0.925651
0.904845
0.904164
0.900787
0.89349
0.900312
0.908965
0.911415
0.912518
0.911708
0.910557
0.914265
0.0332926
0.0332783
0.0332561
0.0332195
0.033147
0.0331133
0.0331181
0.0331282
0.0331253
0.0331027
0.033058
0.033041
0.0330427
0.0330451
0.0330416
0.0330174
0.0329168
0.0327691
0.0327281
0.032739
0.0327567
0.0327589
0.0327439
0.0326321
0.0325441
0.0325424
0.0325552
0.0325576
0.032539
0.0325428
0.0325645
0.0326017
0.0326605
0.0327752
0.0329146
0.0330534
0.033237
0.0335207
0.0339812
0.0345913
0.0352103
0.0357572
0.036224
0.036674
0.037078
0.0375535
0.0380736
0.0385826
0.0391159
0.0396031
0.0400569
0.0404077
0.0407341
0.0411613
0.041638
0.0421281
0.042816
0.0438872
0.0451378
0.0464358
0.0477098
0.0486262
0.0493718
0.0495776
0.0495743
0.0498208
0.0503982
0.0513174
0.0530347
0.0551391
0.0571863
0.0587706
0.0588081
0.0586238
0.058733
0.0602223
0.0632213
0.065112
0.0661005
0.0678242
0.0688928
0.0691127
0.0698003
0.105424
0.209473
0.410924
0.632428
0.782164
0.855073
0.876428
0.931878
0.927382
0.900038
0.901155
0.900631
0.907515
0.91708
0.920009
0.918901
0.917898
0.0328534
0.0328516
0.0328242
0.0328153
0.0328159
0.0328289
0.032864
0.0328738
0.0328581
0.0327949
0.0327819
0.0327909
0.0328257
0.0328874
0.0329172
0.0329125
0.0328474
0.032793
0.0328064
0.0328772
0.0329909
0.0330818
0.0331762
0.0332091
0.0332291
0.0333047
0.0334838
0.0337595
0.0340913
0.034398
0.0346647
0.034956
0.0353118
0.0357216
0.0361182
0.0365276
0.0369635
0.0374769
0.0380455
0.0386213
0.0391034
0.0394742
0.0397739
0.0400433
0.0403087
0.0406022
0.0408654
0.0411499
0.0414644
0.0418751
0.0423828
0.0430048
0.0437431
0.0446164
0.0457162
0.0468441
0.0478401
0.0487587
0.0494588
0.0499949
0.0505038
0.0509148
0.0513539
0.0516487
0.0519712
0.0528262
0.0544622
0.0564271
0.0581002
0.0590298
0.0600397
0.0610406
0.0616095
0.062073
0.0626661
0.0639882
0.0669064
0.0694033
0.0695229
0.0701834
0.0715968
0.0735348
0.0754857
0.0768351
0.077737
0.0854721
0.146262
0.323051
0.537544
0.733053
0.847064
0.873245
0.891836
0.93309
0.912475
0.916566
0.912817
0.912856
0.917654
0.921711
0.0332362
0.0333315
0.0334192
0.0335097
0.0336181
0.03373
0.033849
0.0339908
0.0341258
0.034242
0.0343819
0.0345586
0.0347215
0.0348696
0.0350351
0.0352257
0.0354201
0.0356354
0.0358663
0.0360934
0.0363315
0.0365982
0.0368669
0.0370761
0.0372852
0.0375612
0.0378647
0.0381181
0.0383663
0.0386197
0.0388777
0.0391831
0.0395128
0.0398359
0.040096
0.0403254
0.0405912
0.0409029
0.0412263
0.0415481
0.0418808
0.0422144
0.0425581
0.0429062
0.0433098
0.0437341
0.044214
0.0447807
0.0454009
0.0461922
0.0470583
0.0480324
0.0489359
0.0497518
0.0504076
0.0510242
0.0515098
0.0518383
0.05201
0.0521477
0.0523955
0.0529417
0.0538675
0.0552508
0.0570438
0.058699
0.0602222
0.0615736
0.0620958
0.0620885
0.0622074
0.0629355
0.0645535
0.066661
0.0683597
0.0694592
0.0708159
0.0730599
0.0737448
0.0736548
0.0747276
0.0777411
0.0798053
0.0806335
0.082099
0.0836865
0.0848272
0.0862371
0.115826
0.24505
0.455905
0.672646
0.823597
0.882035
0.892416
0.941418
0.928813
0.918544
0.915281
0.916584
0.037553
0.037637
0.0377381
0.0378512
0.0379658
0.0380674
0.0381474
0.038213
0.0382879
0.0384067
0.038563
0.0387174
0.0388435
0.0389431
0.0390372
0.0391518
0.039292
0.0394262
0.0395719
0.0397571
0.0399613
0.0401493
0.0403066
0.0404903
0.0407288
0.0409933
0.0412302
0.0413878
0.0415758
0.0418082
0.0420406
0.0423804
0.0426969
0.0429965
0.043321
0.043677
0.0440933
0.0444835
0.0449106
0.0453967
0.0459708
0.046562
0.0472028
0.0478015
0.0483951
0.0489698
0.0495746
0.0501345
0.0506792
0.0511218
0.0515527
0.0519766
0.0523811
0.0527641
0.0530888
0.0534668
0.0538972
0.0543393
0.0549282
0.0556901
0.0567324
0.0581085
0.0595411
0.0609878
0.0623836
0.0632099
0.0638949
0.0647873
0.0649636
0.065081
0.0654311
0.0664686
0.0685413
0.0713646
0.0739962
0.0746433
0.0746517
0.0754552
0.077042
0.0785284
0.0801234
0.0821766
0.083972
0.0850544
0.0865505
0.0879828
0.0903039
0.0928593
0.0943465
0.0950849
0.103227
0.192202
0.401352
0.620964
0.794499
0.884241
0.89757
0.927874
0.931977
0.924369
0.0414754
0.0415671
0.041658
0.0417709
0.0419038
0.0419291
0.0419079
0.0419092
0.0419788
0.0421853
0.0424541
0.0426772
0.0428499
0.0429746
0.0430863
0.0432132
0.0433723
0.0435507
0.0437767
0.0440629
0.0443013
0.0444948
0.0447108
0.0449948
0.0453104
0.0456068
0.0459328
0.0462781
0.046608
0.0469185
0.0472046
0.0475005
0.0478417
0.0482598
0.0487536
0.0491909
0.0495271
0.0499042
0.0503369
0.0507866
0.0511704
0.0515579
0.0519621
0.0523759
0.0527551
0.0531207
0.0535001
0.0538489
0.0541703
0.0543898
0.0546262
0.0548791
0.0552902
0.0557043
0.0562343
0.0569782
0.0580332
0.0593471
0.0607465
0.0621864
0.0634247
0.0644482
0.0652148
0.0655579
0.0658667
0.0661379
0.0663767
0.0670766
0.0683362
0.0700347
0.0719716
0.0737615
0.0748687
0.0759455
0.0778348
0.0786783
0.0786573
0.078978
0.0807331
0.0842153
0.0864452
0.086974
0.0882153
0.0897482
0.0911078
0.0931402
0.096057
0.0973429
0.0987144
0.100467
0.102125
0.103654
0.106685
0.161488
0.333633
0.562335
0.766581
0.869534
0.89748
0.926334
0.0468209
0.0469259
0.0470265
0.0471339
0.0472501
0.0473787
0.0475266
0.0476882
0.0478712
0.0480446
0.0481961
0.0483623
0.0485484
0.0487207
0.0488612
0.0490304
0.0492036
0.0494064
0.0496364
0.0498462
0.0500184
0.050213
0.0504454
0.0506961
0.0509381
0.0511798
0.0514952
0.0517192
0.0518775
0.0520995
0.0523429
0.0525478
0.0527226
0.0529101
0.0531674
0.0534347
0.0535826
0.0536983
0.0538274
0.0539868
0.0541787
0.0544497
0.0548002
0.055251
0.0557101
0.0561989
0.0567151
0.0573203
0.0579712
0.0586838
0.0594601
0.0603425
0.0612292
0.0621979
0.0631844
0.064073
0.0648937
0.065581
0.0662463
0.0669896
0.0676415
0.0681272
0.0686965
0.0688845
0.0691916
0.0699849
0.0710045
0.0722983
0.0742083
0.0763737
0.0783316
0.0800506
0.0803011
0.0800358
0.0804199
0.0818852
0.0838555
0.085431
0.0873465
0.0896255
0.091047
0.0918356
0.0929531
0.0944787
0.0960657
0.0988206
0.101444
0.102239
0.102983
0.104511
0.106734
0.109658
0.111631
0.11317
0.114326
0.143298
0.290984
0.519965
0.746095
0.880445
0.0518745
0.0519562
0.0520565
0.0521596
0.0522589
0.0523558
0.0524431
0.0525004
0.0525576
0.0526565
0.0527528
0.0528528
0.0529828
0.0531364
0.0532354
0.0533166
0.0534705
0.0536574
0.0538358
0.0539747
0.0541081
0.0542827
0.0544836
0.0546762
0.0549139
0.0551394
0.0554131
0.0557084
0.0559369
0.0563544
0.0567472
0.0569675
0.0572182
0.0575324
0.057964
0.0583519
0.0586235
0.0588744
0.0591435
0.0594867
0.0599158
0.0604054
0.0609849
0.0615798
0.0621917
0.0627707
0.0634098
0.0641118
0.0648284
0.0655475
0.0662802
0.0669832
0.0676091
0.0681843
0.0688323
0.069392
0.069821
0.0701198
0.0703088
0.070597
0.0710986
0.0716664
0.0725536
0.0739659
0.0757069
0.0774838
0.079235
0.0804961
0.0813868
0.0820298
0.0826419
0.0837637
0.0846261
0.0850637
0.0855836
0.0873567
0.0903268
0.0930608
0.0943965
0.0948118
0.0958016
0.0970671
0.0984156
0.100479
0.103273
0.105206
0.106225
0.107723
0.108954
0.110415
0.113557
0.116568
0.117812
0.119689
0.1221
0.123142
0.124279
0.148756
0.24992
0.589703
0.0577794
0.057874
0.0579687
0.0580573
0.0581754
0.0582786
0.0582862
0.058277
0.0582978
0.0584475
0.0587167
0.0589517
0.059112
0.059226
0.0593266
0.0594372
0.0595811
0.0597574
0.0599329
0.0600968
0.0603169
0.0605529
0.0607755
0.060961
0.0611238
0.0613346
0.0616578
0.0620133
0.0622576
0.0624373
0.0626603
0.0629835
0.0633639
0.0637239
0.0640466
0.0644086
0.0648561
0.0653341
0.0658037
0.0662923
0.0668115
0.0673292
0.0677905
0.0681933
0.0685443
0.0689181
0.0693217
0.0697722
0.0701768
0.0705371
0.070873
0.0712519
0.0716388
0.0720608
0.0726355
0.0734079
0.0742673
0.0752668
0.0762912
0.077322
0.078374
0.0795274
0.0806253
0.0818405
0.0831903
0.0842906
0.0854179
0.0861841
0.0866031
0.0867151
0.0868844
0.0877341
0.0897167
0.0925818
0.0946456
0.0958029
0.0973616
0.0991899
0.0995871
0.100004
0.100839
0.102693
0.104919
0.10775
0.110363
0.110791
0.111479
0.113219
0.115573
0.118286
0.120565
0.122263
0.124146
0.125804
0.127434
0.129349
0.132602
0.133593
0.134328
0.199623
0.0638591
0.0639504
0.0640629
0.0641979
0.0642753
0.0643307
0.0644234
0.0645879
0.0648059
0.0649907
0.0651185
0.0652715
0.0654378
0.065557
0.0656724
0.0658241
0.0660088
0.0662124
0.0663982
0.0665935
0.0667855
0.0669585
0.067142
0.0673327
0.0675457
0.0677269
0.0680739
0.0684714
0.0685978
0.0686792
0.0688364
0.0691345
0.0695121
0.0699005
0.0702805
0.0706514
0.0709975
0.0712496
0.0715099
0.0718394
0.0722453
0.072678
0.0731475
0.0736764
0.0742343
0.0748474
0.0755249
0.0761905
0.0768594
0.0775176
0.0781158
0.0787276
0.0794671
0.080226
0.0809291
0.0816567
0.0825299
0.0834777
0.0845922
0.0856985
0.0865955
0.0873809
0.0879671
0.0884283
0.088887
0.0892854
0.0898749
0.0908352
0.0921103
0.0935762
0.0953239
0.0967614
0.0983034
0.100426
0.102555
0.103083
0.103524
0.104176
0.105145
0.10638
0.108423
0.110901
0.113349
0.115059
0.115945
0.117096
0.118404
0.120004
0.122394
0.125882
0.126898
0.127572
0.129853
0.131781
0.13363
0.136805
0.139157
0.14089
0.14267
0.144988
0.0713567
0.0714514
0.0715473
0.0716139
0.0716646
0.0717269
0.0718336
0.0719947
0.0721374
0.0722477
0.0724059
0.0725416
0.0726145
0.0727027
0.072877
0.0730973
0.0732934
0.0734626
0.0736583
0.0738689
0.0740736
0.0743015
0.0745844
0.0749011
0.0751825
0.0754191
0.075724
0.0761186
0.0764874
0.0768098
0.0771294
0.0774696
0.0777981
0.0781182
0.0784985
0.0789004
0.0791764
0.0794486
0.0798163
0.0802847
0.0807684
0.0812869
0.0818308
0.0823151
0.0827285
0.0831433
0.0836126
0.084075
0.0845825
0.0852286
0.0859559
0.0866547
0.0873725
0.0881158
0.088805
0.0893675
0.0897586
0.0900957
0.0905371
0.0911135
0.0918043
0.0926361
0.0936672
0.0947136
0.0958357
0.0971205
0.0982761
0.0996421
0.101286
0.103182
0.105216
0.106517
0.106767
0.107039
0.108183
0.109101
0.109579
0.11076
0.112799
0.115749
0.11799
0.119563
0.120883
0.121314
0.12227
0.123985
0.126791
0.129174
0.131145
0.132903
0.134342
0.136196
0.137775
0.139645
0.142459
0.144236
0.145243
0.147605
0.150221
0.15374
0.0798655
0.0799563
0.0800627
0.080175
0.0803039
0.0804443
0.0805869
0.0807245
0.0808571
0.0809934
0.0811507
0.0813101
0.0814579
0.0816209
0.0817733
0.0819684
0.0821707
0.0823584
0.0825271
0.0827046
0.0829062
0.0831129
0.0832959
0.0834606
0.0836304
0.0838259
0.0840575
0.0842266
0.0844059
0.0846428
0.084935
0.085218
0.0854866
0.0858276
0.0862362
0.0866515
0.0871167
0.0876728
0.0881818
0.0886421
0.0890294
0.0894029
0.0897305
0.0900062
0.0903451
0.0907941
0.0912917
0.0918219
0.0923993
0.092993
0.0935288
0.093939
0.0943633
0.0951292
0.09622
0.0973603
0.098348
0.0992583
0.100138
0.101022
0.101937
0.102917
0.104117
0.105452
0.106845
0.108245
0.109445
0.110166
0.110609
0.110998
0.111779
0.113055
0.113557
0.113974
0.11485
0.116995
0.119885
0.121755
0.123622
0.125467
0.126664
0.127658
0.128416
0.129685
0.131315
0.133688
0.135771
0.138104
0.13991
0.140326
0.141771
0.144135
0.145631
0.147869
0.150141
0.151504
0.153648
0.155583
0.157206
0.160428
0.089524
0.0895981
0.0896847
0.0897925
0.0899128
0.0900341
0.0901477
0.090261
0.0903763
0.0904935
0.0905993
0.090718
0.0909306
0.0911007
0.0912664
0.0913978
0.0915177
0.0916832
0.0918744
0.0921126
0.0923587
0.0925566
0.0927398
0.0929434
0.0931827
0.0934649
0.0937668
0.0940737
0.094418
0.0947437
0.0950519
0.0953844
0.0957294
0.096097
0.0964061
0.0966936
0.0970219
0.0973603
0.0976657
0.0980184
0.0984902
0.0990629
0.0996783
0.100345
0.101071
0.101747
0.102325
0.102891
0.103518
0.104111
0.104681
0.105299
0.106147
0.107283
0.107935
0.108265
0.108761
0.109636
0.110637
0.111634
0.112577
0.113323
0.113803
0.114189
0.114586
0.115219
0.116213
0.11712
0.118097
0.118799
0.119631
0.121019
0.123526
0.126005
0.127876
0.129539
0.131222
0.132679
0.133637
0.133847
0.134421
0.135148
0.136835
0.138927
0.141552
0.143999
0.145629
0.146723
0.147853
0.149365
0.150851
0.152546
0.155156
0.157259
0.158544
0.160512
0.162442
0.164036
0.165275
0.167642
0.100681
0.100797
0.100933
0.101114
0.101216
0.101264
0.101362
0.101581
0.101691
0.101711
0.101778
0.102018
0.102265
0.102361
0.102436
0.102619
0.102844
0.103092
0.103288
0.103455
0.103645
0.103867
0.104088
0.104301
0.104547
0.104817
0.105092
0.105384
0.105672
0.105956
0.106264
0.106588
0.10692
0.107283
0.107687
0.108122
0.108578
0.109046
0.109518
0.110037
0.110555
0.111012
0.111428
0.111826
0.112184
0.112521
0.112899
0.113381
0.113946
0.11465
0.11543
0.116003
0.116866
0.117759
0.117917
0.118119
0.118755
0.119623
0.120151
0.120674
0.121577
0.122765
0.123858
0.124977
0.126012
0.127007
0.128062
0.129638
0.131586
0.133883
0.135536
0.136347
0.137122
0.138534
0.139835
0.140359
0.14043
0.140961
0.141679
0.142742
0.143989
0.146313