/*--------------------------------*- C++ -*----------------------------------*\
  =========                 |
  \\      /  F ield         | OpenFOAM: The Open Source CFD Toolbox
   \\    /   O peration     | Website:  https://openfoam.org
    \\  /    A nd           | Version:  7
     \\/     M anipulation  |
\*---------------------------------------------------------------------------*/
FoamFile
{
    version     2.0;
    format      ascii;
    class       volVectorField;
    location    "3.5";
    object      U;
}
// * * * * * * * * * * * * * * * * * * * * * * * * * * * * * * * * * * * * * //

dimensions      [0 1 -1 0 0 0 0];

internalField   nonuniform List<vector> 
90000
(
(3.79433 -1.60302 0)
(3.71243 -1.48353 0)
(3.62936 -1.15076 0)
(3.61724 -0.850837 0)
(3.63377 -0.891108 0)
(3.62484 -0.789092 0)
(3.60762 -0.554597 0)
(3.63427 -0.448486 0)
(3.66033 -0.425198 0)
(3.6644 -0.32663 0)
(3.667 -0.200162 0)
(3.68426 -0.15328 0)
(3.69515 -0.0879655 0)
(3.69132 0.0219709 0)
(3.71181 0.0425144 0)
(3.69746 0.159689 0)
(3.71044 0.195032 0)
(3.71264 0.253414 0)
(3.70389 0.348503 0)
(3.72424 0.346043 0)
(3.7125 0.421382 0)
(3.71802 0.45378 0)
(3.73102 0.44861 0)
(3.73253 0.48986 0)
(3.73478 0.491571 0)
(3.74673 0.472426 0)
(3.75714 0.450809 0)
(3.77649 0.42331 0)
(3.78528 0.387958 0)
(3.78249 0.355807 0)
(3.80103 0.325378 0)
(3.80807 0.28867 0)
(3.80089 0.25163 0)
(3.81263 0.229162 0)
(3.80881 0.198997 0)
(3.8117 0.190592 0)
(3.81412 0.197149 0)
(3.81894 0.207352 0)
(3.82813 0.218376 0)
(3.83131 0.248299 0)
(3.83997 0.261336 0)
(3.85268 0.262418 0)
(3.85582 0.28585 0)
(3.86221 0.299888 0)
(3.86732 0.296789 0)
(3.87022 0.301614 0)
(3.87326 0.311159 0)
(3.87655 0.313942 0)
(3.87864 0.313408 0)
(3.88114 0.314754 0)
(3.88244 0.32215 0)
(3.88539 0.324266 0)
(3.88784 0.324938 0)
(3.88896 0.326494 0)
(3.88861 0.328947 0)
(3.88797 0.327747 0)
(3.88621 0.322672 0)
(3.8849 0.314174 0)
(3.88588 0.302165 0)
(3.88712 0.288782 0)
(3.88686 0.279105 0)
(3.88752 0.271751 0)
(3.8886 0.267836 0)
(3.88978 0.266664 0)
(3.89005 0.268306 0)
(3.89006 0.271178 0)
(3.88975 0.274455 0)
(3.89025 0.277981 0)
(3.89183 0.282458 0)
(3.89439 0.286663 0)
(3.89637 0.290062 0)
(3.89984 0.29375 0)
(3.90109 0.292947 0)
(3.90145 0.287854 0)
(3.90353 0.282657 0)
(3.90408 0.277083 0)
(3.9069 0.272775 0)
(3.90875 0.271872 0)
(3.91166 0.272759 0)
(3.91398 0.269564 0)
(3.91421 0.264184 0)
(3.91515 0.255844 0)
(3.91517 0.248361 0)
(3.91619 0.23994 0)
(3.91755 0.234082 0)
(3.91815 0.224671 0)
(3.9177 0.2104 0)
(3.91935 0.20144 0)
(3.9176 0.184862 0)
(3.91968 0.180507 0)
(3.92049 0.174815 0)
(3.9209 0.160828 0)
(3.92443 0.157079 0)
(3.9217 0.14458 0)
(3.92426 0.138169 0)
(3.92449 0.130286 0)
(3.92559 0.122543 0)
(3.92588 0.113914 0)
(3.92654 0.11022 0)
(3.92761 0.0990362 0)
(3.92492 -1.89007 0)
(3.92517 -1.89002 0)
(3.92537 -1.89017 0)
(3.92572 -1.89005 0)
(3.92598 -1.89023 0)
(3.92644 -1.89004 0)
(3.92666 -1.89049 0)
(3.92731 -1.89015 0)
(3.92749 -1.891 0)
(3.92834 -1.89045 0)
(3.92839 -1.89101 0)
(3.9262 -1.88188 0)
(3.91858 -1.85683 0)
(3.90432 -1.79833 0)
(3.88639 -1.73642 0)
(3.86018 -1.62447 0)
(3.83301 -1.50344 0)
(3.80181 -1.36671 0)
(3.76333 -1.15987 0)
(3.73827 -1.02087 0)
(3.69677 -0.80771 0)
(3.66115 -0.596565 0)
(3.65447 -0.500786 0)
(3.59989 -0.240381 0)
(3.60339 -0.172717 0)
(3.56456 0.00117786 0)
(3.55043 0.109503 0)
(3.53977 0.209226 0)
(3.54952 0.259109 0)
(3.53734 0.36331 0)
(3.55727 0.361549 0)
(3.55583 0.401693 0)
(3.56951 0.425706 0)
(3.60342 0.438281 0)
(3.61713 0.435626 0)
(3.64014 0.426445 0)
(3.66316 0.416619 0)
(3.68139 0.393494 0)
(3.6978 0.371304 0)
(3.72216 0.36171 0)
(3.727 0.325269 0)
(3.73789 0.28693 0)
(3.7509 0.282602 0)
(3.76308 0.27682 0)
(3.77609 0.261938 0)
(3.78658 0.26597 0)
(3.79584 0.277266 0)
(3.80507 0.284102 0)
(3.81178 0.292407 0)
(3.81869 0.304452 0)
(3.82828 0.305124 0)
(3.83736 0.312691 0)
(3.84393 0.308145 0)
(3.84823 0.301918 0)
(3.85166 0.285106 0)
(3.85621 0.278143 0)
(3.86026 0.26521 0)
(3.86344 0.265548 0)
(3.86733 0.259907 0)
(3.87142 0.266656 0)
(3.87663 0.277907 0)
(3.881 0.281231 0)
(3.88396 0.28573 0)
(3.88671 0.289466 0)
(3.88831 0.295587 0)
(3.88876 0.303378 0)
(3.88906 0.306072 0)
(3.88898 0.308612 0)
(3.89016 0.309639 0)
(3.89234 0.307115 0)
(3.89294 0.300192 0)
(3.89484 0.294186 0)
(3.8971 0.287151 0)
(3.89845 0.278913 0)
(3.90103 0.273956 0)
(3.90283 0.270274 0)
(3.90538 0.271027 0)
(3.90833 0.274333 0)
(3.90936 0.273986 0)
(3.90981 0.26705 0)
(3.91031 0.25719 0)
(3.91201 0.250492 0)
(3.91249 0.242098 0)
(3.91368 0.235619 0)
(3.91466 0.230466 0)
(3.91399 0.2194 0)
(3.91374 0.204016 0)
(3.91445 0.197718 0)
(3.91359 0.183634 0)
(3.91554 0.18079 0)
(3.91547 0.16985 0)
(3.9177 0.156897 0)
(3.92047 0.154428 0)
(3.91863 0.142594 0)
(3.92137 0.139003 0)
(3.92086 0.128553 0)
(3.92284 0.121276 0)
(3.92296 0.113685 0)
(3.92342 0.108039 0)
(3.92491 0.0969385 0)
(3.93014 -1.89146 0)
(3.93042 -1.89198 0)
(3.93108 -1.89186 0)
(3.93121 -1.8929 0)
(3.93205 -1.89252 0)
(3.93224 -1.89347 0)
(3.93312 -1.8931 0)
(3.93331 -1.89418 0)
(3.9343 -1.89374 0)
(3.93448 -1.89491 0)
(3.93536 -1.8946 0)
(3.93575 -1.89566 0)
(3.93629 -1.89545 0)
(3.93661 -1.89564 0)
(3.93706 -1.89558 0)
(3.93739 -1.89588 0)
(3.93797 -1.89561 0)
(3.93829 -1.89595 0)
(3.93892 -1.89563 0)
(3.93908 -1.89644 0)
(3.93993 -1.89584 0)
(3.94005 -1.89697 0)
(3.9373 -1.88788 0)
(3.91632 -1.82992 0)
(3.88249 -1.7424 0)
(3.8207 -1.55714 0)
(3.75372 -1.37953 0)
(3.67057 -1.08015 0)
(3.61796 -0.898346 0)
(3.53588 -0.555275 0)
(3.53036 -0.444966 0)
(3.47546 -0.205442 0)
(3.46992 -0.0942084 0)
(3.45579 0.0501364 0)
(3.45893 0.128639 0)
(3.4555 0.222631 0)
(3.47182 0.233764 0)
(3.46943 0.316947 0)
(3.47817 0.304507 0)
(3.49549 0.315929 0)
(3.50792 0.349256 0)
(3.52665 0.34754 0)
(3.5522 0.339786 0)
(3.57152 0.316606 0)
(3.59561 0.284547 0)
(3.61945 0.248477 0)
(3.628 0.228385 0)
(3.65519 0.206214 0)
(3.66818 0.205763 0)
(3.68473 0.208354 0)
(3.69841 0.223722 0)
(3.71287 0.249867 0)
(3.72585 0.271039 0)
(3.73574 0.276266 0)
(3.74523 0.28457 0)
(3.75882 0.285031 0)
(3.7759 0.286443 0)
(3.79177 0.285349 0)
(3.80591 0.28384 0)
(3.81745 0.288769 0)
(3.82772 0.293967 0)
(3.83531 0.296491 0)
(3.84174 0.297877 0)
(3.8484 0.290974 0)
(3.85625 0.283148 0)
(3.86455 0.273613 0)
(3.87242 0.271321 0)
(3.87849 0.273597 0)
(3.88369 0.275318 0)
(3.88828 0.276159 0)
(3.89089 0.275963 0)
(3.89204 0.270889 0)
(3.89292 0.268743 0)
(3.89548 0.272219 0)
(3.89802 0.277793 0)
(3.89972 0.283788 0)
(3.90219 0.285606 0)
(3.90282 0.282585 0)
(3.90306 0.268094 0)
(3.90386 0.253335 0)
(3.90523 0.241931 0)
(3.90763 0.238886 0)
(3.90943 0.231486 0)
(3.91079 0.226199 0)
(3.91127 0.220174 0)
(3.9103 0.206563 0)
(3.91087 0.19676 0)
(3.9104 0.18717 0)
(3.91068 0.177516 0)
(3.9129 0.175247 0)
(3.91287 0.163147 0)
(3.91423 0.153329 0)
(3.91694 0.148602 0)
(3.91678 0.138715 0)
(3.9192 0.136184 0)
(3.91855 0.124529 0)
(3.9204 0.118363 0)
(3.92064 0.110386 0)
(3.92119 0.105069 0)
(3.92304 0.0943771 0)
(3.93504 -1.896 0)
(3.93559 -1.89577 0)
(3.93596 -1.89601 0)
(3.93643 -1.89603 0)
(3.93679 -1.89633 0)
(3.9374 -1.89604 0)
(3.93776 -1.89632 0)
(3.93833 -1.8962 0)
(3.93866 -1.89662 0)
(3.93927 -1.89638 0)
(3.93954 -1.89681 0)
(3.93999 -1.89677 0)
(3.94039 -1.89681 0)
(3.94088 -1.89658 0)
(3.94107 -1.89699 0)
(3.94149 -1.89691 0)
(3.94182 -1.89702 0)
(3.94227 -1.89675 0)
(3.94246 -1.8969 0)
(3.94263 -1.89732 0)
(3.94305 -1.89729 0)
(3.94334 -1.8975 0)
(3.94365 -1.89757 0)
(3.94383 -1.89755 0)
(3.94404 -1.89749 0)
(3.94418 -1.89759 0)
(3.94434 -1.8977 0)
(3.94432 -1.89815 0)
(3.94452 -1.89806 0)
(3.9446 -1.89837 0)
(3.93524 -1.87674 0)
(3.894 -1.77673 0)
(3.83017 -1.63068 0)
(3.74406 -1.34956 0)
(3.67737 -1.15203 0)
(3.58478 -0.78996 0)
(3.55552 -0.643111 0)
(3.46199 -0.305522 0)
(3.474 -0.217253 0)
(3.39186 0.0507104 0)
(3.40282 0.0952895 0)
(3.3618 0.253875 0)
(3.37352 0.265039 0)
(3.3683 0.33735 0)
(3.38508 0.347987 0)
(3.40645 0.375728 0)
(3.42717 0.372537 0)
(3.45327 0.361694 0)
(3.48704 0.333677 0)
(3.51251 0.304547 0)
(3.52229 0.261517 0)
(3.54263 0.210431 0)
(3.56664 0.196877 0)
(3.5881 0.202305 0)
(3.60202 0.234653 0)
(3.61442 0.277743 0)
(3.63283 0.30906 0)
(3.64795 0.33291 0)
(3.66195 0.328516 0)
(3.67766 0.308947 0)
(3.6933 0.286754 0)
(3.71274 0.264544 0)
(3.73301 0.25895 0)
(3.75159 0.267832 0)
(3.77165 0.282786 0)
(3.79191 0.295459 0)
(3.80998 0.300899 0)
(3.82497 0.300768 0)
(3.8374 0.303027 0)
(3.84787 0.307572 0)
(3.85737 0.307634 0)
(3.86563 0.308337 0)
(3.87179 0.30491 0)
(3.87691 0.299519 0)
(3.88098 0.292137 0)
(3.88479 0.280529 0)
(3.88941 0.265804 0)
(3.89443 0.249705 0)
(3.89502 0.233986 0)
(3.89761 0.235622 0)
(3.89964 0.238424 0)
(3.90106 0.239074 0)
(3.90151 0.233393 0)
(3.90206 0.223836 0)
(3.90254 0.202699 0)
(3.90293 0.183579 0)
(3.90509 0.181302 0)
(3.9064 0.17591 0)
(3.90723 0.170131 0)
(3.909 0.163696 0)
(3.90917 0.150236 0)
(3.91027 0.145817 0)
(3.91315 0.140539 0)
(3.9137 0.132278 0)
(3.91596 0.129973 0)
(3.91508 0.117175 0)
(3.91716 0.112839 0)
(3.9173 0.104165 0)
(3.91813 0.0983212 0)
(3.92088 0.0889941 0)
(3.94101 -1.89497 0)
(3.94112 -1.89528 0)
(3.94141 -1.89524 0)
(3.94159 -1.8954 0)
(3.94173 -1.89568 0)
(3.94193 -1.89583 0)
(3.94217 -1.89587 0)
(3.94233 -1.89607 0)
(3.94253 -1.89617 0)
(3.94275 -1.89619 0)
(3.94287 -1.89633 0)
(3.94295 -1.89656 0)
(3.94313 -1.89655 0)
(3.94328 -1.89658 0)
(3.94329 -1.89679 0)
(3.94337 -1.89702 0)
(3.94354 -1.89704 0)
(3.9437 -1.89706 0)
(3.94378 -1.89716 0)
(3.9438 -1.89745 0)
(3.94395 -1.89781 0)
(3.94404 -1.89788 0)
(3.94422 -1.89798 0)
(3.94431 -1.8981 0)
(3.94439 -1.89831 0)
(3.94455 -1.89841 0)
(3.94467 -1.89856 0)
(3.94453 -1.89898 0)
(3.94443 -1.89927 0)
(3.94465 -1.89891 0)
(3.94481 -1.8988 0)
(3.94485 -1.89879 0)
(3.94479 -1.89898 0)
(3.94488 -1.89863 0)
(3.94431 -1.89901 0)
(3.94399 -1.89829 0)
(3.94352 -1.89882 0)
(3.91455 -1.82909 0)
(3.86249 -1.70365 0)
(3.75968 -1.40206 0)
(3.6841 -1.17173 0)
(3.55956 -0.733815 0)
(3.526 -0.548358 0)
(3.42607 -0.207317 0)
(3.41788 -0.0871771 0)
(3.34361 0.159612 0)
(3.34855 0.16929 0)
(3.34462 0.247915 0)
(3.35171 0.268198 0)
(3.38398 0.250759 0)
(3.39542 0.238527 0)
(3.41093 0.237792 0)
(3.42592 0.232103 0)
(3.43994 0.215073 0)
(3.45984 0.203946 0)
(3.46536 0.203374 0)
(3.47103 0.207174 0)
(3.4747 0.22107 0)
(3.4769 0.2492 0)
(3.49308 0.266825 0)
(3.50287 0.272382 0)
(3.54817 0.27047 0)
(3.57317 0.260424 0)
(3.59902 0.254498 0)
(3.62733 0.264023 0)
(3.65485 0.278377 0)
(3.67805 0.292254 0)
(3.69963 0.293073 0)
(3.72185 0.279773 0)
(3.74392 0.263866 0)
(3.76604 0.260357 0)
(3.78736 0.260643 0)
(3.80554 0.265957 0)
(3.81976 0.266073 0)
(3.83133 0.25898 0)
(3.84142 0.253949 0)
(3.8508 0.251298 0)
(3.86007 0.256649 0)
(3.86613 0.267526 0)
(3.87038 0.263733 0)
(3.87338 0.251956 0)
(3.87603 0.228981 0)
(3.88076 0.207005 0)
(3.88527 0.189694 0)
(3.88834 0.178046 0)
(3.89002 0.181798 0)
(3.89252 0.187987 0)
(3.89372 0.188397 0)
(3.89459 0.180285 0)
(3.8966 0.166823 0)
(3.90049 0.149684 0)
(3.90403 0.150546 0)
(3.90553 0.14863 0)
(3.90497 0.140099 0)
(3.90742 0.134138 0)
(3.90734 0.119691 0)
(3.91006 0.115237 0)
(3.90986 0.105915 0)
(3.91084 0.0956333 0)
(3.91618 0.0908889 0)
(3.94298 -1.897 0)
(3.9431 -1.89712 0)
(3.9432 -1.89724 0)
(3.94333 -1.89726 0)
(3.94347 -1.89729 0)
(3.94351 -1.89744 0)
(3.94355 -1.89753 0)
(3.94356 -1.89761 0)
(3.94356 -1.89771 0)
(3.9436 -1.89777 0)
(3.94358 -1.89792 0)
(3.94356 -1.8981 0)
(3.94359 -1.89814 0)
(3.94367 -1.89812 0)
(3.94362 -1.89825 0)
(3.94346 -1.89859 0)
(3.9435 -1.89874 0)
(3.94358 -1.89874 0)
(3.94372 -1.89875 0)
(3.94356 -1.89905 0)
(3.9434 -1.89927 0)
(3.94341 -1.89934 0)
(3.94349 -1.89948 0)
(3.94348 -1.89963 0)
(3.94352 -1.89977 0)
(3.94359 -1.89984 0)
(3.9435 -1.89999 0)
(3.94338 -1.90022 0)
(3.94335 -1.90016 0)
(3.94334 -1.89976 0)
(3.9436 -1.89944 0)
(3.94377 -1.89945 0)
(3.94357 -1.89994 0)
(3.94337 -1.8999 0)
(3.94316 -1.89932 0)
(3.94301 -1.89825 0)
(3.94302 -1.89713 0)
(3.94309 -1.89693 0)
(3.94319 -1.89681 0)
(3.94308 -1.89707 0)
(3.94319 -1.89671 0)
(3.94286 -1.89784 0)
(3.93673 -1.88037 0)
(3.87946 -1.72747 0)
(3.79357 -1.50502 0)
(3.63991 -1.01106 0)
(3.58044 -0.762047 0)
(3.42347 -0.281183 0)
(3.42351 -0.129423 0)
(3.31989 0.175107 0)
(3.3223 0.220538 0)
(3.28486 0.30638 0)
(3.29647 0.330862 0)
(3.30664 0.334601 0)
(3.33583 0.312065 0)
(3.3433 0.265338 0)
(3.35311 0.23253 0)
(3.36186 0.200935 0)
(3.37253 0.196974 0)
(3.38644 0.207584 0)
(3.38526 0.251179 0)
(3.40119 0.291945 0)
(3.41735 0.323729 0)
(3.4433 0.316884 0)
(3.46233 0.286545 0)
(3.48596 0.252901 0)
(3.51313 0.243329 0)
(3.53854 0.259306 0)
(3.5606 0.280357 0)
(3.58467 0.292996 0)
(3.61374 0.289017 0)
(3.6428 0.278484 0)
(3.67158 0.271003 0)
(3.69514 0.272015 0)
(3.71619 0.279115 0)
(3.73661 0.273401 0)
(3.75577 0.26016 0)
(3.77301 0.246375 0)
(3.78796 0.233983 0)
(3.80015 0.224476 0)
(3.81025 0.208049 0)
(3.81853 0.20162 0)
(3.82771 0.201694 0)
(3.83702 0.209077 0)
(3.84558 0.213389 0)
(3.85142 0.207652 0)
(3.85496 0.183886 0)
(3.86117 0.15828 0)
(3.87 0.137493 0)
(3.87361 0.144894 0)
(3.87803 0.15112 0)
(3.88169 0.146833 0)
(3.88484 0.133893 0)
(3.88702 0.114117 0)
(3.89101 0.110751 0)
(3.89201 0.101622 0)
(3.89441 0.0974316 0)
(3.89578 0.0863028 0)
(3.89693 0.0881759 0)
(3.90076 0.0853664 0)
(3.94405 -1.89832 0)
(3.94413 -1.89833 0)
(3.94419 -1.89835 0)
(3.94419 -1.89846 0)
(3.94422 -1.89846 0)
(3.94427 -1.89844 0)
(3.94424 -1.89851 0)
(3.94419 -1.89853 0)
(3.94413 -1.89849 0)
(3.94397 -1.89864 0)
(3.94392 -1.8988 0)
(3.94394 -1.89878 0)
(3.94398 -1.89864 0)
(3.94408 -1.8985 0)
(3.94413 -1.89852 0)
(3.94379 -1.89868 0)
(3.94356 -1.89891 0)
(3.94348 -1.89918 0)
(3.94347 -1.89934 0)
(3.94344 -1.89935 0)
(3.94342 -1.89899 0)
(3.94348 -1.89877 0)
(3.94331 -1.89886 0)
(3.94322 -1.89909 0)
(3.94327 -1.89914 0)
(3.94338 -1.899 0)
(3.94337 -1.89896 0)
(3.94328 -1.89928 0)
(3.94336 -1.89895 0)
(3.94364 -1.89795 0)
(3.94403 -1.89725 0)
(3.94405 -1.89724 0)
(3.94373 -1.89793 0)
(3.94358 -1.89786 0)
(3.94339 -1.897 0)
(3.94312 -1.89631 0)
(3.94307 -1.89612 0)
(3.94338 -1.89566 0)
(3.94363 -1.89553 0)
(3.94394 -1.89533 0)
(3.94391 -1.89555 0)
(3.9436 -1.89634 0)
(3.94348 -1.89695 0)
(3.94355 -1.89739 0)
(3.94338 -1.89794 0)
(3.94308 -1.89805 0)
(3.94264 -1.89848 0)
(3.90338 -1.80329 0)
(3.82189 -1.57628 0)
(3.66663 -1.06633 0)
(3.61394 -0.792696 0)
(3.44387 -0.274515 0)
(3.453 -0.14487 0)
(3.35768 0.139728 0)
(3.36473 0.137842 0)
(3.33339 0.180605 0)
(3.34963 0.203049 0)
(3.35438 0.202632 0)
(3.358 0.208534 0)
(3.35538 0.209721 0)
(3.35203 0.237176 0)
(3.34998 0.247494 0)
(3.34734 0.262464 0)
(3.34577 0.283814 0)
(3.35036 0.286014 0)
(3.36945 0.266469 0)
(3.38804 0.24365 0)
(3.42296 0.215961 0)
(3.43262 0.223037 0)
(3.44629 0.244308 0)
(3.46376 0.267738 0)
(3.48472 0.270259 0)
(3.51234 0.265209 0)
(3.53785 0.237157 0)
(3.56315 0.234324 0)
(3.58462 0.247113 0)
(3.60745 0.255413 0)
(3.63085 0.247749 0)
(3.65298 0.233061 0)
(3.67289 0.221395 0)
(3.69004 0.225877 0)
(3.70592 0.21789 0)
(3.72147 0.207322 0)
(3.73672 0.189556 0)
(3.75259 0.171265 0)
(3.76895 0.156577 0)
(3.78162 0.151991 0)
(3.79261 0.15615 0)
(3.80493 0.167958 0)
(3.8141 0.168661 0)
(3.8212 0.153827 0)
(3.82878 0.137037 0)
(3.83662 0.128678 0)
(3.84294 0.127418 0)
(3.84893 0.131039 0)
(3.85241 0.120795 0)
(3.8565 0.116471 0)
(3.86091 0.115501 0)
(3.86314 0.108125 0)
(3.86612 0.0871237 0)
(3.94485 -1.8985 0)
(3.94488 -1.89854 0)
(3.94487 -1.89844 0)
(3.94487 -1.8983 0)
(3.94486 -1.89824 0)
(3.94484 -1.89816 0)
(3.94483 -1.89789 0)
(3.94467 -1.89771 0)
(3.94407 -1.89817 0)
(3.94371 -1.89847 0)
(3.94356 -1.89853 0)
(3.94343 -1.89858 0)
(3.94333 -1.8986 0)
(3.94321 -1.89845 0)
(3.94313 -1.89832 0)
(3.94317 -1.89817 0)
(3.94326 -1.89803 0)
(3.94325 -1.8979 0)
(3.94297 -1.8981 0)
(3.94283 -1.89823 0)
(3.9428 -1.89776 0)
(3.94293 -1.89735 0)
(3.94286 -1.89735 0)
(3.94284 -1.89744 0)
(3.94291 -1.89748 0)
(3.94289 -1.89769 0)
(3.94295 -1.89767 0)
(3.94296 -1.8977 0)
(3.94297 -1.89779 0)
(3.94312 -1.89764 0)
(3.94328 -1.89752 0)
(3.94287 -1.89811 0)
(3.94247 -1.89899 0)
(3.94234 -1.89892 0)
(3.94233 -1.89768 0)
(3.94245 -1.89676 0)
(3.94282 -1.8964 0)
(3.94319 -1.89628 0)
(3.94359 -1.89612 0)
(3.94401 -1.89585 0)
(3.94399 -1.89595 0)
(3.94368 -1.89638 0)
(3.94378 -1.89675 0)
(3.94363 -1.89739 0)
(3.94343 -1.8978 0)
(3.94328 -1.8978 0)
(3.94294 -1.89796 0)
(3.94276 -1.89923 0)
(3.94274 -1.89991 0)
(3.94269 -1.90029 0)
(3.94305 -1.90004 0)
(3.89814 -1.77609 0)
(3.81852 -1.50199 0)
(3.63938 -0.875668 0)
(3.59162 -0.564186 0)
(3.44671 -0.101265 0)
(3.41535 0.0819345 0)
(3.37647 0.228251 0)
(3.3465 0.285242 0)
(3.34408 0.303977 0)
(3.33948 0.286843 0)
(3.33795 0.268431 0)
(3.34668 0.239487 0)
(3.34858 0.235777 0)
(3.33005 0.251445 0)
(3.33564 0.266206 0)
(3.34308 0.269342 0)
(3.3581 0.266312 0)
(3.37247 0.251052 0)
(3.3883 0.233382 0)
(3.39191 0.232978 0)
(3.39639 0.241918 0)
(3.40251 0.255983 0)
(3.42198 0.257987 0)
(3.43735 0.236125 0)
(3.45616 0.212511 0)
(3.47313 0.212028 0)
(3.4896 0.216634 0)
(3.50867 0.210182 0)
(3.52824 0.199344 0)
(3.54749 0.186357 0)
(3.56518 0.18061 0)
(3.58234 0.180364 0)
(3.59943 0.185417 0)
(3.61847 0.180065 0)
(3.63888 0.187772 0)
(3.65897 0.178493 0)
(3.67623 0.166836 0)
(3.69259 0.15421 0)
(3.70834 0.139069 0)
(3.723 0.129412 0)
(3.73598 0.127313 0)
(3.74767 0.128777 0)
(3.75722 0.115338 0)
(3.76756 0.10432 0)
(3.77678 0.0917727 0)
(3.78515 0.0894565 0)
(3.79188 0.0813355 0)
(3.797 0.0763053 0)
(3.80266 0.0773544 0)
(3.94516 -1.89826 0)
(3.94517 -1.8982 0)
(3.94516 -1.898 0)
(3.94504 -1.89783 0)
(3.94485 -1.89761 0)
(3.94478 -1.89716 0)
(3.94449 -1.89711 0)
(3.94415 -1.89723 0)
(3.94408 -1.89698 0)
(3.94384 -1.89701 0)
(3.94349 -1.89731 0)
(3.94335 -1.89738 0)
(3.94326 -1.89722 0)
(3.9431 -1.89717 0)
(3.94294 -1.89729 0)
(3.94289 -1.89723 0)
(3.94289 -1.897 0)
(3.94296 -1.89682 0)
(3.94288 -1.89684 0)
(3.94272 -1.89706 0)
(3.94267 -1.89715 0)
(3.94274 -1.89696 0)
(3.94279 -1.89685 0)
(3.94266 -1.89721 0)
(3.94264 -1.89733 0)
(3.94271 -1.89736 0)
(3.94282 -1.89733 0)
(3.94284 -1.89733 0)
(3.94292 -1.89727 0)
(3.94308 -1.89695 0)
(3.94317 -1.89676 0)
(3.94266 -1.89726 0)
(3.94209 -1.89829 0)
(3.94187 -1.89837 0)
(3.94198 -1.89748 0)
(3.94227 -1.89683 0)
(3.94294 -1.89633 0)
(3.94339 -1.89619 0)
(3.9439 -1.89602 0)
(3.94433 -1.89574 0)
(3.94426 -1.89579 0)
(3.94397 -1.89599 0)
(3.94398 -1.89636 0)
(3.94381 -1.89698 0)
(3.94362 -1.89735 0)
(3.9435 -1.89733 0)
(3.94317 -1.89746 0)
(3.94298 -1.89916 0)
(3.94294 -1.90017 0)
(3.94277 -1.90129 0)
(3.94278 -1.9012 0)
(3.94263 -1.90166 0)
(3.94255 -1.90135 0)
(3.94316 -1.89971 0)
(3.93778 -1.87621 0)
(3.85116 -1.60143 0)
(3.75292 -1.21079 0)
(3.61534 -0.627488 0)
(3.62336 -0.397328 0)
(3.479 0.0190119 0)
(3.48676 0.0599828 0)
(3.41436 0.173143 0)
(3.40051 0.189942 0)
(3.38516 0.213559 0)
(3.37935 0.222058 0)
(3.35552 0.248173 0)
(3.34043 0.268459 0)
(3.34333 0.268377 0)
(3.35255 0.255595 0)
(3.36279 0.23962 0)
(3.37094 0.226475 0)
(3.37501 0.223666 0)
(3.37642 0.232026 0)
(3.37902 0.244527 0)
(3.384 0.246964 0)
(3.39489 0.236416 0)
(3.40278 0.215063 0)
(3.41182 0.204566 0)
(3.42014 0.20573 0)
(3.43108 0.203665 0)
(3.44309 0.202455 0)
(3.45463 0.190733 0)
(3.46738 0.174361 0)
(3.48164 0.160062 0)
(3.49593 0.153399 0)
(3.51189 0.148909 0)
(3.52963 0.145709 0)
(3.54833 0.141309 0)
(3.56583 0.141214 0)
(3.58079 0.15291 0)
(3.59749 0.151322 0)
(3.61209 0.131444 0)
(3.6264 0.118632 0)
(3.63953 0.110883 0)
(3.65263 0.116008 0)
(3.66578 0.115418 0)
(3.67764 0.110304 0)
(3.68687 0.102924 0)
(3.69466 0.0989972 0)
(3.70492 0.0839432 0)
(3.94536 -1.89671 0)
(3.94533 -1.8965 0)
(3.94506 -1.89658 0)
(3.94463 -1.8969 0)
(3.94422 -1.89712 0)
(3.94393 -1.89708 0)
(3.9438 -1.89684 0)
(3.9437 -1.8967 0)
(3.94362 -1.89657 0)
(3.94356 -1.89644 0)
(3.94353 -1.89628 0)
(3.94345 -1.89622 0)
(3.94321 -1.89643 0)
(3.94305 -1.89665 0)
(3.94303 -1.89654 0)
(3.94307 -1.89635 0)
(3.94305 -1.89627 0)
(3.94301 -1.89635 0)
(3.94301 -1.8964 0)
(3.94301 -1.89642 0)
(3.94303 -1.89642 0)
(3.94309 -1.89646 0)
(3.94291 -1.89687 0)
(3.94278 -1.89716 0)
(3.94278 -1.89718 0)
(3.94279 -1.89718 0)
(3.94272 -1.89739 0)
(3.94258 -1.89769 0)
(3.94252 -1.8978 0)
(3.9425 -1.89775 0)
(3.94234 -1.89785 0)
(3.94194 -1.89821 0)
(3.9415 -1.89852 0)
(3.94119 -1.89883 0)
(3.94111 -1.89892 0)
(3.94183 -1.89843 0)
(3.94281 -1.89764 0)
(3.94335 -1.89723 0)
(3.94394 -1.89693 0)
(3.94445 -1.89631 0)
(3.94436 -1.89604 0)
(3.94412 -1.8961 0)
(3.94411 -1.89635 0)
(3.94395 -1.89683 0)
(3.9437 -1.89717 0)
(3.94373 -1.89702 0)
(3.94344 -1.89688 0)
(3.94396 -1.89878 0)
(3.94415 -1.90088 0)
(3.94288 -1.9044 0)
(3.94168 -1.90572 0)
(3.94164 -1.90619 0)
(3.94117 -1.90754 0)
(3.94233 -1.90649 0)
(3.9437 -1.90285 0)
(3.94342 -1.90066 0)
(3.94251 -1.90132 0)
(3.94174 -1.90448 0)
(3.91359 -1.77457 0)
(3.76796 -1.21636 0)
(3.73006 -0.815792 0)
(3.56252 -0.217342 0)
(3.57721 -0.0613666 0)
(3.44261 0.219708 0)
(3.42107 0.243056 0)
(3.39637 0.317246 0)
(3.3662 0.299676 0)
(3.35757 0.272048 0)
(3.36135 0.253536 0)
(3.36891 0.248098 0)
(3.37745 0.235477 0)
(3.38488 0.22694 0)
(3.38627 0.223446 0)
(3.38559 0.220712 0)
(3.38423 0.219085 0)
(3.38681 0.214343 0)
(3.38996 0.203423 0)
(3.39342 0.188436 0)
(3.39835 0.183002 0)
(3.40274 0.180556 0)
(3.40668 0.17996 0)
(3.41032 0.176897 0)
(3.41498 0.176144 0)
(3.42288 0.16791 0)
(3.43045 0.157734 0)
(3.43849 0.153691 0)
(3.44771 0.152918 0)
(3.46012 0.150228 0)
(3.47139 0.131454 0)
(3.48397 0.118547 0)
(3.49405 0.120746 0)
(3.50425 0.120908 0)
(3.51692 0.112002 0)
(3.52912 0.100254 0)
(3.54149 0.0974221 0)
(3.55334 0.0931639 0)
(3.56428 0.0918743 0)
(3.57522 0.0802386 0)
(3.58267 0.0859224 0)
(3.59668 0.0860168 0)
(3.94454 -1.89693 0)
(3.94429 -1.89712 0)
(3.94406 -1.89726 0)
(3.94383 -1.89736 0)
(3.9437 -1.89703 0)
(3.94362 -1.89652 0)
(3.94361 -1.8962 0)
(3.94366 -1.89601 0)
(3.94364 -1.89599 0)
(3.9436 -1.89607 0)
(3.94363 -1.89603 0)
(3.94371 -1.89591 0)
(3.9438 -1.89586 0)
(3.94375 -1.89602 0)
(3.9437 -1.89621 0)
(3.94369 -1.89627 0)
(3.94368 -1.8962 0)
(3.94374 -1.8961 0)
(3.94377 -1.89612 0)
(3.94374 -1.89616 0)
(3.94371 -1.89625 0)
(3.94378 -1.89631 0)
(3.94353 -1.8968 0)
(3.94316 -1.89729 0)
(3.94307 -1.89733 0)
(3.94299 -1.89726 0)
(3.94285 -1.89755 0)
(3.94264 -1.898 0)
(3.94248 -1.89822 0)
(3.94241 -1.89827 0)
(3.94239 -1.89801 0)
(3.94245 -1.89785 0)
(3.94169 -1.89866 0)
(3.94127 -1.8993 0)
(3.94099 -1.89966 0)
(3.94186 -1.89931 0)
(3.94285 -1.8987 0)
(3.94332 -1.89835 0)
(3.94372 -1.89828 0)
(3.94395 -1.89854 0)
(3.94431 -1.89798 0)
(3.9447 -1.89671 0)
(3.94473 -1.89613 0)
(3.94472 -1.89613 0)
(3.94459 -1.89645 0)
(3.94479 -1.89645 0)
(3.9452 -1.89506 0)
(3.94497 -1.89635 0)
(3.94422 -1.90089 0)
(3.94289 -1.90481 0)
(3.94262 -1.90589 0)
(3.94264 -1.90638 0)
(3.94239 -1.90725 0)
(3.94179 -1.90694 0)
(3.94137 -1.90636 0)
(3.94134 -1.90491 0)
(3.94092 -1.90193 0)
(3.94081 -1.89956 0)
(3.94 -1.9038 0)
(3.93927 -1.90647 0)
(3.93912 -1.90691 0)
(3.89306 -1.75164 0)
(3.82813 -1.36226 0)
(3.67857 -0.706831 0)
(3.68235 -0.452905 0)
(3.53822 -0.0124664 0)
(3.54198 0.0816967 0)
(3.4433 0.205044 0)
(3.42013 0.228722 0)
(3.41378 0.242814 0)
(3.4081 0.239313 0)
(3.41419 0.23156 0)
(3.4032 0.214816 0)
(3.39945 0.196211 0)
(3.39857 0.187846 0)
(3.39615 0.185014 0)
(3.39678 0.184796 0)
(3.39898 0.176478 0)
(3.40257 0.172193 0)
(3.40457 0.171115 0)
(3.40706 0.169758 0)
(3.40711 0.164036 0)
(3.40788 0.158623 0)
(3.41148 0.153512 0)
(3.41563 0.144722 0)
(3.41973 0.141711 0)
(3.42443 0.137761 0)
(3.42782 0.143066 0)
(3.43294 0.14464 0)
(3.43911 0.135062 0)
(3.44383 0.119 0)
(3.44892 0.116012 0)
(3.45617 0.116544 0)
(3.46455 0.110673 0)
(3.47328 0.104832 0)
(3.48101 0.0970484 0)
(3.488 0.0970396 0)
(3.49782 0.091268 0)
(3.50398 0.0753362 0)
(3.51677 0.0694669 0)
(3.94422 -1.89683 0)
(3.94405 -1.89694 0)
(3.94392 -1.89688 0)
(3.94383 -1.89666 0)
(3.94369 -1.8966 0)
(3.94367 -1.8965 0)
(3.9438 -1.89622 0)
(3.94393 -1.89608 0)
(3.94397 -1.89615 0)
(3.94402 -1.8963 0)
(3.94419 -1.89628 0)
(3.94438 -1.89623 0)
(3.94453 -1.89626 0)
(3.94462 -1.89634 0)
(3.94464 -1.89641 0)
(3.94466 -1.89646 0)
(3.94463 -1.89652 0)
(3.94455 -1.89656 0)
(3.94453 -1.89656 0)
(3.94455 -1.89651 0)
(3.94459 -1.89643 0)
(3.9447 -1.89633 0)
(3.94401 -1.89694 0)
(3.94354 -1.89741 0)
(3.94342 -1.89741 0)
(3.94332 -1.89726 0)
(3.94321 -1.89745 0)
(3.94313 -1.89815 0)
(3.94297 -1.89848 0)
(3.94286 -1.89846 0)
(3.9426 -1.89843 0)
(3.94243 -1.89852 0)
(3.94214 -1.89893 0)
(3.94168 -1.89951 0)
(3.94153 -1.89966 0)
(3.94215 -1.90061 0)
(3.94283 -1.90251 0)
(3.94274 -1.90313 0)
(3.94243 -1.90295 0)
(3.94216 -1.9025 0)
(3.94222 -1.90106 0)
(3.94332 -1.89973 0)
(3.94446 -1.89768 0)
(3.94461 -1.89676 0)
(3.94472 -1.89725 0)
(3.94494 -1.89769 0)
(3.94542 -1.89659 0)
(3.94493 -1.89601 0)
(3.94379 -1.89818 0)
(3.94235 -1.90354 0)
(3.94175 -1.90726 0)
(3.94165 -1.90887 0)
(3.94151 -1.90938 0)
(3.94131 -1.90803 0)
(3.94055 -1.90628 0)
(3.94022 -1.90407 0)
(3.9396 -1.90206 0)
(3.9389 -1.90224 0)
(3.93897 -1.90437 0)
(3.93893 -1.90597 0)
(3.93796 -1.90557 0)
(3.93475 -1.90696 0)
(3.93269 -1.90274 0)
(3.92839 -1.90833 0)
(3.91106 -1.79202 0)
(3.78612 -1.24112 0)
(3.77091 -0.785729 0)
(3.5909 -0.141091 0)
(3.5908 -0.0102407 0)
(3.47918 0.224192 0)
(3.44537 0.226826 0)
(3.44083 0.246734 0)
(3.44121 0.218754 0)
(3.44874 0.211096 0)
(3.44426 0.200122 0)
(3.43684 0.189115 0)
(3.4339 0.188013 0)
(3.42869 0.185415 0)
(3.42522 0.179167 0)
(3.42281 0.171566 0)
(3.42136 0.162893 0)
(3.41761 0.150595 0)
(3.41587 0.139343 0)
(3.41755 0.13489 0)
(3.42044 0.129353 0)
(3.42226 0.130542 0)
(3.42487 0.133021 0)
(3.42698 0.132773 0)
(3.42808 0.130601 0)
(3.42957 0.123905 0)
(3.43242 0.113374 0)
(3.43717 0.105281 0)
(3.44171 0.104461 0)
(3.44651 0.102251 0)
(3.45235 0.0988016 0)
(3.45755 0.091125 0)
(3.46284 0.084205 0)
(3.46722 0.0851986 0)
(3.47199 0.0852988 0)
(3.48066 0.0767676 0)
(3.9435 -1.89723 0)
(3.94347 -1.89741 0)
(3.94359 -1.8973 0)
(3.94375 -1.89719 0)
(3.94382 -1.89735 0)
(3.94396 -1.89743 0)
(3.94408 -1.89702 0)
(3.94429 -1.89672 0)
(3.94445 -1.89671 0)
(3.94466 -1.8967 0)
(3.94481 -1.89657 0)
(3.94489 -1.89651 0)
(3.94515 -1.89636 0)
(3.94522 -1.89632 0)
(3.94524 -1.89632 0)
(3.94526 -1.89636 0)
(3.94526 -1.89643 0)
(3.94514 -1.89643 0)
(3.94512 -1.89641 0)
(3.94515 -1.89628 0)
(3.94523 -1.89611 0)
(3.94538 -1.896 0)
(3.94445 -1.89667 0)
(3.94398 -1.89698 0)
(3.94391 -1.89693 0)
(3.94378 -1.89665 0)
(3.94373 -1.89697 0)
(3.94372 -1.89783 0)
(3.94357 -1.89831 0)
(3.94346 -1.89834 0)
(3.94311 -1.89834 0)
(3.94263 -1.89875 0)
(3.94259 -1.89928 0)
(3.94221 -1.90014 0)
(3.94184 -1.90117 0)
(3.94193 -1.90237 0)
(3.94189 -1.90336 0)
(3.94089 -1.90415 0)
(3.94058 -1.9045 0)
(3.94045 -1.90497 0)
(3.94063 -1.90522 0)
(3.94155 -1.90407 0)
(3.94315 -1.90208 0)
(3.9435 -1.9006 0)
(3.94362 -1.90034 0)
(3.94314 -1.90111 0)
(3.94285 -1.89975 0)
(3.94191 -1.89966 0)
(3.94096 -1.90175 0)
(3.94026 -1.90534 0)
(3.93997 -1.90858 0)
(3.94042 -1.90839 0)
(3.94039 -1.9083 0)
(3.94025 -1.90814 0)
(3.93984 -1.90666 0)
(3.93878 -1.90422 0)
(3.93875 -1.90275 0)
(3.93851 -1.90258 0)
(3.93659 -1.90322 0)
(3.93521 -1.90247 0)
(3.93314 -1.89998 0)
(3.92976 -1.901 0)
(3.92952 -1.89984 0)
(3.93275 -1.89391 0)
(3.93386 -1.89407 0)
(3.93984 -1.89125 0)
(3.94432 -1.86798 0)
(3.8949 -1.61386 0)
(3.82752 -1.14347 0)
(3.6845 -0.496566 0)
(3.66418 -0.242395 0)
(3.54594 0.0613661 0)
(3.53771 0.118999 0)
(3.51604 0.202329 0)
(3.49494 0.197817 0)
(3.49863 0.214027 0)
(3.48901 0.199332 0)
(3.47379 0.178317 0)
(3.46982 0.150551 0)
(3.4653 0.146266 0)
(3.45932 0.144044 0)
(3.44996 0.143898 0)
(3.44722 0.145787 0)
(3.4461 0.148813 0)
(3.44341 0.146753 0)
(3.44098 0.145199 0)
(3.43932 0.141994 0)
(3.43773 0.129631 0)
(3.43677 0.115707 0)
(3.43689 0.104889 0)
(3.43956 0.0964145 0)
(3.44388 0.0930273 0)
(3.44656 0.0952717 0)
(3.449 0.0948742 0)
(3.45191 0.0903799 0)
(3.45545 0.0836291 0)
(3.46056 0.0815991 0)
(3.4637 0.0788301 0)
(3.46647 0.077233 0)
(3.47336 0.06963 0)
(3.94207 -1.89919 0)
(3.94194 -1.89977 0)
(3.94205 -1.90023 0)
(3.94231 -1.90033 0)
(3.94249 -1.90042 0)
(3.94271 -1.90056 0)
(3.94301 -1.90034 0)
(3.94325 -1.89985 0)
(3.94367 -1.8996 0)
(3.9441 -1.89973 0)
(3.94405 -1.89992 0)
(3.94473 -1.89952 0)
(3.94606 -1.89822 0)
(3.94638 -1.89789 0)
(3.94652 -1.89767 0)
(3.94639 -1.89743 0)
(3.94579 -1.89738 0)
(3.94565 -1.8974 0)
(3.94576 -1.89721 0)
(3.94613 -1.89675 0)
(3.94624 -1.89646 0)
(3.94614 -1.89628 0)
(3.94468 -1.89691 0)
(3.94429 -1.89712 0)
(3.9442 -1.89701 0)
(3.94397 -1.8966 0)
(3.94423 -1.89737 0)
(3.94441 -1.89837 0)
(3.94476 -1.89883 0)
(3.94531 -1.8992 0)
(3.94531 -1.89984 0)
(3.94475 -1.90091 0)
(3.94387 -1.90159 0)
(3.94292 -1.90158 0)
(3.94187 -1.90165 0)
(3.94131 -1.9034 0)
(3.94092 -1.90538 0)
(3.93986 -1.90656 0)
(3.93998 -1.9077 0)
(3.93977 -1.90945 0)
(3.93939 -1.91106 0)
(3.94016 -1.91192 0)
(3.94249 -1.91021 0)
(3.943 -1.90759 0)
(3.94227 -1.90514 0)
(3.94124 -1.90358 0)
(3.94032 -1.90307 0)
(3.93976 -1.9027 0)
(3.93928 -1.90362 0)
(3.93908 -1.90513 0)
(3.93909 -1.90649 0)
(3.93945 -1.9074 0)
(3.93943 -1.90764 0)
(3.93941 -1.90747 0)
(3.9393 -1.90637 0)
(3.93835 -1.90432 0)
(3.93562 -1.90338 0)
(3.93323 -1.89785 0)
(3.93097 -1.89374 0)
(3.93139 -1.88775 0)
(3.93529 -1.88053 0)
(3.94072 -1.87799 0)
(3.94551 -1.8773 0)
(3.95164 -1.86659 0)
(3.95131 -1.86622 0)
(3.95015 -1.86704 0)
(3.951 -1.84933 0)
(3.95828 -1.82401 0)
(3.95908 -1.8265 0)
(3.95286 -1.78314 0)
(3.91385 -1.50396 0)
(3.76269 -0.786808 0)
(3.76745 -0.508818 0)
(3.61356 -0.0435228 0)
(3.61962 0.0379292 0)
(3.56097 0.177186 0)
(3.52729 0.18284 0)
(3.5077 0.206416 0)
(3.52067 0.188089 0)
(3.52485 0.182349 0)
(3.50641 0.155184 0)
(3.50531 0.14947 0)
(3.5041 0.141017 0)
(3.5002 0.135215 0)
(3.49235 0.128477 0)
(3.48851 0.126412 0)
(3.48301 0.11838 0)
(3.4788 0.106938 0)
(3.47387 0.104809 0)
(3.47122 0.109541 0)
(3.46913 0.116216 0)
(3.46689 0.11604 0)
(3.46628 0.112073 0)
(3.4656 0.103293 0)
(3.4656 0.0943869 0)
(3.46636 0.0873605 0)
(3.46928 0.0838153 0)
(3.47146 0.0751014 0)
(3.47371 0.0670092 0)
(3.48013 0.0570281 0)
(3.94016 -1.9012 0)
(3.94016 -1.90211 0)
(3.94004 -1.90256 0)
(3.94008 -1.90326 0)