/*--------------------------------*- C++ -*----------------------------------*\
  =========                 |
  \\      /  F ield         | OpenFOAM: The Open Source CFD Toolbox
   \\    /   O peration     | Website:  https://openfoam.org
    \\  /    A nd           | Version:  7
     \\/     M anipulation  |
\*---------------------------------------------------------------------------*/
FoamFile
{
    version     2.0;
    format      ascii;
    class       volScalarField;
    location    "4";
    object      T;
}
// * * * * * * * * * * * * * * * * * * * * * * * * * * * * * * * * * * * * * //

dimensions      [0 0 0 1 0 0 0];

internalField   nonuniform List<scalar> 
90000
(
0.914656
0.921544
0.928352
0.934724
0.940347
0.94572
0.950742
0.955821
0.960737
0.965841
0.970846
0.976042
0.981006
0.986071
0.990759
0.995499
0.999753
1.00405
1.00776
1.01152
1.01462
1.01773
1.02013
1.02248
1.02411
1.02559
1.02644
1.02708
1.02699
1.02665
1.02604
1.02524
1.02417
1.02293
1.02099
1.01944
1.01825
1.01827
1.01852
1.01879
1.01912
1.0196
1.02022
1.02078
1.02124
1.0211
1.0207
1.01999
1.01934
1.01889
1.01869
1.01882
1.0192
1.01944
1.01977
1.01997
1.01984
1.01952
1.01907
1.01869
1.01874
1.01897
1.01933
1.0193
1.01919
1.01897
1.01873
1.01863
1.01871
1.01869
1.01863
1.01853
1.01837
1.01822
1.01816
1.01807
1.01806
1.01802
1.01794
1.01784
1.01774
1.01764
1.01757
1.01746
1.01724
1.01681
1.01616
1.01529
1.01415
1.01282
1.01162
1.01066
1.00982
1.00902
1.00824
1.00738
1.00653
1.00578
1.00518
1.00428
0.908803
0.909249
0.910104
0.911366
0.913057
0.915104
0.917519
0.920241
0.923334
0.926682
0.930365
0.934234
0.938461
0.942816
0.947522
0.952256
0.95728
0.962225
0.967359
0.972325
0.977341
0.982146
0.986802
0.991282
0.99534
0.999362
1.0027
1.00602
1.00848
1.01078
1.0123
1.01364
1.01482
1.01677
1.01873
1.01993
1.02044
1.02063
1.02046
1.01999
1.01933
1.01865
1.01794
1.0176
1.01762
1.01757
1.01758
1.01772
1.01797
1.01822
1.0182
1.01807
1.01779
1.01749
1.0172
1.01702
1.01707
1.01721
1.0176
1.01791
1.01792
1.01784
1.01767
1.01744
1.01742
1.01758
1.01774
1.01773
1.01759
1.01739
1.01724
1.01734
1.01745
1.01737
1.01719
1.017
1.01706
1.01715
1.0171
1.01698
1.01687
1.01685
1.01681
1.0167
1.01647
1.01604
1.01541
1.01459
1.01351
1.01225
1.01104
1.01011
1.0093
1.00855
1.00781
1.00703
1.0063
1.00556
1.00492
1.00404
0.907902
0.907882
0.907863
0.907838
0.907842
0.907865
0.907928
0.908048
0.908246
0.908538
0.908964
0.909539
0.910325
0.911334
0.912668
0.914307
0.916402
0.91888
0.921979
0.925496
0.929766
0.934413
0.93987
0.945583
0.952024
0.958568
0.965567
0.972528
0.97947
0.98632
0.992528
0.998768
1.00376
1.00762
1.01005
1.01212
1.01333
1.01407
1.01424
1.01452
1.01446
1.01407
1.01338
1.01263
1.01277
1.01323
1.01398
1.01484
1.01554
1.01589
1.0157
1.01517
1.0144
1.0137
1.01306
1.0131
1.01357
1.01446
1.01514
1.01551
1.01532
1.01495
1.01448
1.0145
1.01479
1.01519
1.01539
1.01525
1.01501
1.01482
1.01492
1.01515
1.01525
1.01517
1.01505
1.01497
1.01501
1.01509
1.01508
1.01506
1.01508
1.01509
1.01505
1.01494
1.01474
1.01438
1.0138
1.013
1.012
1.01083
1.00961
1.0087
1.00803
1.0074
1.00671
1.006
1.00537
1.00469
1.00412
1.00331
0.906681
0.906658
0.90663
0.906601
0.906566
0.90653
0.906494
0.906461
0.906429
0.906395
0.906362
0.906331
0.906303
0.906273
0.906282
0.906326
0.906421
0.906582
0.906844
0.907239
0.907845
0.908701
0.909963
0.911638
0.914015
0.91698
0.921005
0.925702
0.931717
0.93832
0.946122
0.954255
0.962937
0.971306
0.978753
0.985851
0.991151
0.995959
0.998969
1.00195
1.00353
1.00469
1.00594
1.00823
1.01008
1.01162
1.01242
1.01287
1.01283
1.01265
1.01215
1.01146
1.01078
1.01026
1.01037
1.0108
1.01131
1.0117
1.01176
1.01174
1.01165
1.01154
1.01161
1.01184
1.01203
1.01213
1.01209
1.01201
1.01196
1.01204
1.01217
1.01227
1.01235
1.01233
1.01232
1.0123
1.01232
1.01237
1.01246
1.01252
1.0126
1.01264
1.01263
1.01256
1.0124
1.01209
1.01153
1.01074
1.00983
1.00877
1.00762
1.00677
1.00609
1.00545
1.00484
1.00429
1.0038
1.00322
1.00266
1.00187
0.905304
0.905287
0.90527
0.905251
0.90523
0.905208
0.905184
0.905156
0.905125
0.905093
0.90506
0.905028
0.904996
0.904965
0.904928
0.904883
0.904842
0.904803
0.904765
0.904728
0.904697
0.904665
0.904667
0.904692
0.904795
0.905004
0.905388
0.906004
0.907045
0.908568
0.911004
0.914259
0.919123
0.925016
0.932969
0.941642
0.951702
0.96186
0.971614
0.980953
0.988469
0.995694
1.00058
1.00389
1.00539
1.00681
1.00764
1.00829
1.00805
1.00737
1.00686
1.00721
1.00789
1.00884
1.00948
1.00968
1.00947
1.00894
1.00856
1.00837
1.00848
1.00894
1.00957
1.00993
1.00982
1.00953
1.00927
1.0093
1.00951
1.0098
1.00981
1.00974
1.00974
1.0098
1.00993
1.01001
1.00997
1.00998
1.01004
1.01016
1.01027
1.01032
1.0103
1.01024
1.01011
1.00978
1.00926
1.00851
1.00761
1.0066
1.00549
1.0046
1.00394
1.00337
1.00275
1.00226
1.00181
1.00128
1.00078
1.00008
0.904131
0.904119
0.904107
0.904094
0.90408
0.904066
0.904051
0.904036
0.904021
0.904005
0.903988
0.903969
0.903949
0.903929
0.903908
0.903886
0.903859
0.903829
0.903799
0.903772
0.903746
0.903723
0.903701
0.903694
0.903666
0.903633
0.903604
0.903574
0.90356
0.903577
0.903643
0.903826
0.904239
0.904989
0.906422
0.908668
0.91255
0.917724
0.925494
0.934508
0.945455
0.956768
0.967728
0.97788
0.984843
0.991421
0.99468
0.998287
0.999882
1.00173
1.00377
1.00656
1.00832
1.00946
1.00943
1.00918
1.00845
1.00745
1.00675
1.0068
1.00729
1.00796
1.00857
1.00851
1.00825
1.00786
1.00772
1.00785
1.00815
1.00845
1.00846
1.00833
1.00816
1.0082
1.00833
1.00846
1.00842
1.00839
1.00843
1.00854
1.00866
1.00871
1.00868
1.0086
1.00844
1.00819
1.00761
1.00679
1.00592
1.00495
1.00383
1.00287
1.00216
1.00152
1.00095
1.00049
1.00001
0.999478
0.998998
0.998342
0.903357
0.90335
0.903342
0.903334
0.903326
0.903318
0.90331
0.903302
0.903293
0.903284
0.903275
0.903266
0.903256
0.903246
0.903235
0.903224
0.903213
0.903201
0.903187
0.903173
0.903158
0.903142
0.903126
0.903112
0.903095
0.903078
0.903063
0.90305
0.903038
0.903028
0.903034
0.903014
0.902989
0.902962
0.902971
0.903021
0.90318
0.903601
0.904596
0.906361
0.909827
0.914814
0.922951
0.932565
0.944993
0.957376
0.969499
0.980723
0.989198
0.997514
1.00174
1.00454
1.00601
1.00745
1.0073
1.00642
1.00541
1.0057
1.00636
1.00719
1.00793
1.0078
1.00755
1.00709
1.00677
1.00685
1.00718
1.00759
1.00769
1.00761
1.00752
1.00747
1.0075
1.00758
1.00761
1.0076
1.00761
1.00762
1.00767
1.0077
1.00776
1.00776
1.00776
1.0077
1.0075
1.00714
1.00666
1.00585
1.00487
1.00386
1.00283
1.00177
1.00095
1.00026
0.999651
0.999235
0.998797
0.998245
0.997726
0.997042
0.90293
0.902926
0.902921
0.902917
0.902912
0.902908
0.902903
0.902898
0.902893
0.902887
0.902882
0.902877
0.902871
0.902866
0.90286
0.902853
0.902847
0.90284
0.902833
0.902826
0.902818
0.90281
0.902803
0.902796
0.902789
0.902782
0.902774
0.902765
0.902755
0.902748
0.902737
0.902729
0.902719
0.902712
0.902703
0.902705
0.902723
0.902706
0.902695
0.902717
0.902823
0.903164
0.904086
0.905877
0.909696
0.915379
0.92494
0.935927
0.949728
0.963219
0.974876
0.985394
0.990876
0.996691
0.998899
1.00132
1.00379
1.00674
1.00854
1.00867
1.00849
1.00766
1.00617
1.00604
1.00619
1.00679
1.00753
1.00769
1.00747
1.00718
1.00695
1.00705
1.00726
1.00741
1.00731
1.00719
1.00722
1.00731
1.00739
1.00738
1.00734
1.00732
1.00732
1.00729
1.0071
1.00665
1.0061
1.00542
1.00444
1.00331
1.00224
1.00121
1.00029
0.999574
0.998984
0.998486
0.997979
0.997448
0.996975
0.996245
0.902707
0.902703
0.9027
0.902697
0.902694
0.902691
0.902687
0.902684
0.902681
0.902678
0.902674
0.90267
0.902666
0.902662
0.902658
0.902654
0.90265
0.902645
0.90264
0.902634
0.902629
0.902624
0.902619
0.902615
0.90261
0.902606
0.902601
0.902596
0.902591
0.902587
0.902583
0.902575
0.902567
0.902559
0.902552
0.902544
0.902536
0.902536
0.902538
0.90254
0.902561
0.902545
0.902547
0.90258
0.90274
0.903193
0.904454
0.906898
0.912124
0.919595
0.931709
0.945127
0.960256
0.974456
0.985656
0.996589
1.00179
1.00514
1.00675
1.00736
1.00641
1.00489
1.00515
1.00607
1.007
1.00753
1.00761
1.00732
1.00664
1.00664
1.0068
1.0072
1.0073
1.00721
1.00706
1.00702
1.00711
1.00724
1.00724
1.00718
1.00713
1.00713
1.00713
1.00708
1.00688
1.00647
1.00585
1.00513
1.00421
1.00316
1.00202
1.0009
0.999957
0.999165
0.998613
0.99812
0.997552
0.997009
0.996564
0.995834
0.902578
0.902575
0.902573
0.90257
0.902567
0.902563
0.90256
0.902557
0.902556
0.902553
0.902547
0.902543
0.90254
0.902537
0.902534
0.90253
0.902526
0.902522
0.902517
0.902513
0.902509
0.902505
0.902501
0.902497
0.902493
0.902489
0.902485
0.902481
0.902478
0.902476
0.902473
0.90247
0.902465
0.902461
0.902459
0.902455
0.902449
0.902445
0.902443
0.90244
0.902441
0.902446
0.902452
0.902469
0.902459
0.90246
0.902478
0.90257
0.902898
0.903731
0.905958
0.91004
0.918421
0.929259
0.944645
0.960284
0.974002
0.986271
0.992084
0.998055
1.00014
1.00381
1.00616
1.00829
1.00828
1.00806
1.00716
1.006
1.00606
1.0065
1.00724
1.00748
1.00731
1.00683
1.00681
1.00695
1.00716
1.00722
1.00716
1.00703
1.00702
1.00705
1.00704
1.00692
1.00671
1.00637
1.00579
1.00496
1.004
1.003
1.00195
1.00076
0.999734
0.998904
0.998377
0.997891
0.997375
0.996866
0.996391
0.995613
0.90249
0.902487
0.902484
0.902482
0.902478
0.902475
0.902472
0.902469
0.902466
0.902462
0.902459
0.902455
0.902451
0.902448
0.902445
0.902441
0.902436
0.902432
0.902427
0.902422
0.902418
0.902415
0.902411
0.902408
0.902403
0.902398
0.902394
0.902391
0.902389
0.902388
0.902388
0.902388
0.902388
0.902389
0.902391
0.902391
0.902391
0.902392
0.902392
0.902391
0.902387
0.902385
0.90238
0.902379
0.902382
0.902381
0.90238
0.902372
0.902371
0.902389
0.90247
0.902727
0.903569
0.905496
0.910331
0.918028
0.931566
0.947034
0.963936
0.979759
0.99127
1.00131
1.00439
1.00699
1.00687
1.00588
1.00499
1.00549
1.00652
1.00737
1.00756
1.00727
1.0066
1.00654
1.00679
1.00714
1.00716
1.00709
1.00691
1.00692
1.00701
1.00702
1.00696
1.00676
1.00656
1.00631
1.00578
1.00488
1.00384
1.00285
1.00182
1.00064
0.999591
0.998775
0.998228
0.997699
0.997221
0.996761
0.996303
0.995497
0.902404
0.902402
0.9024
0.902398
0.902395
0.902392
0.902389
0.902386
0.902383
0.902379
0.902376
0.902373
0.90237
0.902366
0.902363
0.90236
0.902356
0.902352
0.902348
0.902343
0.902339
0.902334
0.902329
0.902325
0.90232
0.902317
0.902315
0.902314
0.902314
0.902315
0.902317
0.902318
0.902321
0.902324
0.902327
0.902329
0.902332
0.902335
0.90234
0.902344
0.902343
0.902339
0.902331
0.90232
0.902305
0.902288
0.902268
0.902256
0.90224
0.902224
0.902221
0.902224
0.902248
0.902332
0.902636
0.903487
0.906038
0.911053
0.921705
0.93541
0.953288
0.970932
0.982599
0.993905
0.997019
1.00064
1.00342
1.00691
1.00807
1.00789
1.00708
1.00587
1.00597
1.00653
1.00732
1.00729
1.00705
1.00665
1.0067
1.00692
1.00705
1.00698
1.00679
1.00663
1.00649
1.00622
1.00567
1.00477
1.00372
1.00269
1.00163
1.00049
0.999507
0.998734
0.998133
0.997564
0.997104
0.996659
0.996209
0.995391
0.902309
0.902308
0.902306
0.902304
0.902302
0.902299
0.902297
0.902295
0.902292
0.90229
0.902288
0.902285
0.902283
0.902281
0.902277
0.902275
0.902273
0.902271
0.902269
0.902266
0.902262
0.902255
0.902249
0.902249
0.902248
0.902246
0.902243
0.902243
0.902244
0.902246
0.902247
0.902249
0.902251
0.902251
0.902251
0.902252
0.902254
0.902257
0.902261
0.902267
0.902272
0.902272
0.902269
0.90226
0.902242
0.902216
0.902185
0.902153
0.902123
0.902102
0.902091
0.902089
0.902088
0.902093
0.90211
0.902151
0.902271
0.902637
0.903966
0.907031
0.914911
0.926553
0.944851
0.963831
0.979874
0.995371
1.00128
1.00517
1.0064
1.00561
1.0043
1.00493
1.00628
1.00741
1.00742
1.00702
1.00629
1.00633
1.00669
1.00697
1.00693
1.00673
1.00661
1.00663
1.00648
1.00609
1.00543
1.00458
1.00361
1.00255
1.00138
1.00034
0.999437
0.998669
0.998003
0.997461
0.997017
0.996556
0.996094
0.995267
0.902224
0.902224
0.902223
0.902223
0.902223
0.902222
0.902222
0.902222
0.902221
0.90222
0.902219
0.902219
0.902218
0.902216
0.902213
0.902211
0.902209
0.902207
0.902205
0.902201
0.902195
0.902187
0.902179
0.902179
0.902178
0.902174
0.902171
0.90217
0.902169
0.902168
0.902166
0.902164
0.902162
0.902161
0.902159
0.902159
0.90216
0.902164
0.902168
0.902172
0.902178
0.902187
0.902191
0.90219
0.902181
0.90216
0.902129
0.902091
0.90205
0.902008
0.901976
0.901969
0.901969
0.901972
0.901976
0.901989
0.902019
0.902048
0.902087
0.902233
0.90288
0.90474
0.910538
0.920313
0.938114
0.957564
0.974198
0.988841
0.994259
0.998893
1.002
1.00639
1.00786
1.00772
1.00684
1.00568
1.00581
1.00645
1.00699
1.00689
1.00656
1.00646
1.00659
1.00662
1.00643
1.00587
1.00515
1.00438
1.00345
1.0023
1.00114
1.00029
0.999435
0.998585
0.997833
0.997382
0.996956
0.99646
0.995966
0.995128
0.902162
0.902165
0.902168
0.902171
0.902173
0.902175
0.902176
0.902176
0.902176
0.902176
0.902175
0.902174
0.902173
0.902171
0.902168
0.902165
0.902162
0.902158
0.902153
0.902147
0.902139
0.90213
0.90212
0.90211
0.902101
0.902093
0.902085
0.902078
0.902072
0.902067
0.902063
0.902059
0.902056
0.902055
0.902055
0.902058
0.90206
0.902062
0.902064
0.902068
0.902076
0.902089
0.902105
0.902117
0.902117
0.902108
0.902087
0.902056
0.902017
0.901968
0.901919
0.901887
0.90187
0.901865
0.901863
0.901865
0.901884
0.901917
0.901948
0.901947
0.901916
0.901943
0.90224
0.903417
0.907866
0.916319
0.933508
0.953156
0.972143
0.99095
0.999335
1.00457
1.00608
1.00532
1.0043
1.00507
1.00642
1.00711
1.00687
1.00625
1.00618
1.00641
1.00667
1.00656
1.00622
1.00562
1.00498
1.00425
1.00325
1.00201
1.00098
1.00022
0.999358
0.998454
0.997716
0.997334
0.996905
0.996382
0.995853
0.994984
0.90208
0.902084
0.902089
0.902094
0.9021
0.902105
0.90211
0.902113
0.902116
0.902118
0.902118
0.902117
0.902115
0.902113
0.90211
0.902107
0.902103
0.902098
0.902092
0.902085
0.902077
0.902068
0.902056
0.902043
0.902029
0.902015
0.902
0.901986
0.901971
0.901956
0.901942
0.901933
0.901927
0.901926
0.901926
0.901927
0.901931
0.901939
0.901947
0.901958
0.901973
0.901992
0.902012
0.902031
0.902044
0.902046
0.902041
0.902025
0.901997
0.901954
0.901901
0.901847
0.901806
0.901782
0.901766
0.901759
0.901767
0.901794
0.901829
0.901834
0.901828
0.901786
0.9017
0.90166
0.901849
0.902738
0.906415
0.913977
0.930431
0.95033
0.96966
0.986699
0.993076
0.998624
1.00217
1.00682
1.00769
1.00722
1.00572
1.00568
1.00608
1.00676
1.00671
1.00643
1.00588
1.00542
1.00494
1.00411
1.00288
1.00178
1.00103
1.00021
0.999261
0.998307
0.997745
0.997317
0.996824
0.996281
0.99574
0.994847
0.901968
0.901974
0.90198
0.901985
0.901991
0.901997
0.902002
0.902009
0.902016
0.902022
0.902025
0.902028
0.902029
0.90203
0.902029
0.902028
0.902025
0.902021
0.902016
0.902011
0.902005
0.901997
0.901987
0.901975
0.901961
0.901946
0.901929
0.901911
0.90189
0.901867
0.901844
0.901824
0.901806
0.901796
0.901793
0.901794
0.901797
0.901802
0.90181
0.90182
0.901835
0.901856
0.901882
0.901912
0.901942
0.901965
0.901971
0.901968
0.901955
0.901927
0.901888
0.901835
0.901771
0.901704
0.901659
0.901641
0.901637
0.90165
0.901698
0.90174
0.901741
0.90172
0.901681
0.901624
0.901555
0.901558
0.901717
0.902471
0.905699
0.912724
0.929166
0.949236
0.970191
0.990781
0.999384
1.00513
1.00582
1.00413
1.00434
1.00559
1.00689
1.00688
1.00654
1.00593
1.00562
1.00543
1.00488
1.00374
1.00249
1.00173
1.00101
1.00011
0.999078
0.998238
0.997725
0.997253
0.996705
0.996156
0.995612
0.994718
0.901844
0.901849
0.901855
0.90186
0.901866
0.901873
0.90188
0.901886
0.901893
0.9019
0.901907
0.901913
0.901918
0.901921
0.901924
0.901925
0.901925
0.901925
0.901925
0.901925
0.901922
0.901917
0.901912
0.901904
0.901895
0.901886
0.901876
0.901862
0.901845
0.901824
0.901802
0.901779
0.901754
0.901728
0.901704
0.901686
0.901679
0.90168
0.901686
0.901696
0.901709
0.901725
0.901747
0.901777
0.901813
0.901851
0.901878
0.901884
0.901879
0.901867
0.901847
0.90181
0.901747
0.901652
0.901559
0.901531
0.90153
0.901541
0.901579
0.901637
0.901676
0.90168
0.901666
0.901639
0.901594
0.901544
0.90152
0.901531
0.901685
0.902375
0.905396
0.912345
0.929096
0.950049
0.970405
0.988212
0.99426
0.999202
1.00439
1.0074
1.00732
1.00647
1.00561
1.00567
1.00587
1.00553
1.00458
1.00326
1.00232
1.00181
1.001
0.99997
0.998901
0.998267
0.997728
0.997175
0.996571
0.996023
0.995473
0.9946
0.901705
0.901709
0.901713
0.901717
0.901721
0.901726
0.901732
0.901738
0.901745
0.901752
0.90176
0.90177
0.90178
0.901791
0.901803
0.901812
0.901819
0.901824
0.901829
0.901832
0.901834
0.901835
0.901835
0.901836
0.901836
0.901834
0.901833
0.901829
0.901822
0.901812
0.901799
0.90178
0.901756
0.901727
0.901695
0.901659
0.901624
0.901601
0.901595
0.901597
0.901604
0.901615
0.901628
0.901642
0.901662
0.901694
0.901735
0.901765
0.901776
0.901777
0.901772
0.901754
0.90171
0.901622
0.901507
0.901444
0.901438
0.901449
0.90149
0.901547
0.901604
0.901649
0.901661
0.901655
0.901632
0.901585
0.901525
0.90149
0.901491
0.901519
0.901688
0.902345
0.905411
0.912863
0.930649
0.952447
0.974638
0.994296
1.002
1.0061
1.0054
1.00381
1.00489
1.00619
1.00601
1.00524
1.00398
1.00303
1.0026
1.00185
1.00086
0.999688
0.998818
0.998257
0.997676
0.997066
0.99644
0.995884
0.99533
0.994507
0.901599
0.9016
0.901601
0.901603
0.901604
0.901606
0.901609
0.901611
0.901614
0.901618
0.901624
0.901631
0.90164
0.901651
0.901664
0.90168
0.901702
0.901725
0.901744
0.901753
0.901758
0.90176
0.901763
0.901769
0.901779
0.901789
0.901796
0.901798
0.901799
0.901799
0.901796
0.901784
0.901766
0.901743
0.901715
0.901681
0.901639
0.901594
0.901555
0.901532
0.901527
0.901528
0.901529
0.901528
0.901528
0.901534
0.901551
0.901575
0.901603
0.901638
0.901669
0.901673
0.901658
0.901603
0.901512
0.901425
0.901394
0.901402
0.901434
0.901479
0.901528
0.901581
0.901629
0.90164
0.901637
0.901612
0.901547
0.901478
0.901455
0.901462
0.901489
0.901534
0.901677
0.902376
0.905801
0.914376
0.933578
0.957101
0.976511
0.99186
0.996988
1.00172
1.00687
1.00673
1.0058
1.00427
1.00341
1.00342
1.00291
1.00189
1.00052
0.999551
0.999014
0.998333
0.997596
0.996931
0.996331
0.995747
0.995187
0.994449
0.901517
0.901517
0.901519
0.901521
0.901522
0.901525
0.901528
0.90153
0.901533
0.901537
0.90154
0.901544
0.901549
0.901555
0.901562
0.901572
0.901585
0.9016
0.901618
0.901636
0.901658
0.901682
0.901707
0.901727
0.901742
0.901753
0.901761
0.901763
0.901763
0.901762
0.901758
0.901752
0.901742
0.901729
0.901711
0.901685
0.901651
0.901611
0.901567
0.901522
0.901487
0.901467
0.901457
0.90145
0.901439
0.901427
0.901422
0.901426
0.901443
0.901478
0.901537
0.901591
0.901599
0.901581
0.901536
0.901479
0.901435
0.901431
0.901444
0.901455
0.901466
0.901492
0.901542
0.901591
0.901603
0.901597
0.90156
0.901485
0.901436
0.901433
0.901451
0.901506
0.901526
0.901532
0.901672
0.902574
0.906733
0.917345
0.938067
0.961997
0.984998
0.998899
1.0052
1.00508
1.0028
1.00322
1.00401
1.00376
1.0028
1.00141
1.00038
0.999808
0.999062
0.998247
0.997471
0.996839
0.996259
0.995595
0.995075
0.994436
0.901478
0.901474
0.90147
0.90147
0.90147
0.901469
0.901466
0.901464
0.901465
0.901465
0.901466
0.901469
0.901475
0.901479
0.901483
0.901487
0.901492
0.901498
0.901506
0.901518
0.901532
0.901549
0.901571
0.901597
0.901624
0.901649
0.90167
0.901686
0.901699
0.901712
0.901715
0.90171
0.901702
0.901693
0.90168
0.90166
0.901635
0.901609
0.901579
0.901544
0.901507
0.901463
0.901424
0.901411
0.901398
0.901379
0.901366
0.901365
0.901372
0.901403
0.901462
0.901528
0.901558
0.901553
0.901537
0.901521
0.901509
0.901507
0.901501
0.901471
0.901429
0.901422
0.901433
0.901478
0.901532
0.901551
0.901543
0.901504
0.901448
0.901431
0.901442
0.90148
0.901517
0.901526
0.9015
0.901501
0.901711
0.903064
0.908226
0.921525
0.944307
0.968794
0.986044
0.995081
0.999207
1.00469
1.00467
1.00361
1.00178
1.00092
1.00067
1.00011
0.999168
0.998128
0.997387
0.996817
0.996198
0.995455
0.995014
0.994458
0.901503
0.901492
0.901482
0.901472
0.901463
0.901455
0.901446
0.901436
0.901428
0.90142
0.90141
0.901403
0.901401
0.901401
0.901401
0.901402
0.901403
0.901404
0.901406
0.901408
0.90141
0.901413
0.901417
0.901424
0.901434
0.901447
0.901463
0.90148
0.901498
0.901516
0.901532
0.901545
0.901556
0.901565
0.901572
0.901575
0.901574
0.901569
0.901564
0.901561
0.901553
0.901531
0.901499
0.901473
0.901449
0.901414
0.901386
0.90137
0.901368
0.901386
0.901441
0.901486
0.901516
0.901522
0.901515
0.901517
0.901532
0.901542
0.901539
0.901503
0.901423
0.90137
0.901366
0.901382
0.901433
0.901499
0.901528
0.901526
0.9015
0.901463
0.901457
0.901469
0.901496
0.901507
0.901494
0.901468
0.901449
0.901488
0.90187
0.903832
0.911051
0.927767
0.951276
0.978335
0.9944
1.00355
1.00312
1.00041
1.00054
1.00082
1.00083
1.00011
0.998926
0.998049
0.997469
0.99681
0.996079
0.995349
0.995141
0.994526
0.901561
0.901548
0.901535
0.901523
0.90151
0.901496
0.901482
0.901466
0.901448
0.901429
0.901411
0.901394
0.901376
0.901359
0.901344
0.901335
0.901332
0.90133
0.901326
0.901323
0.901319
0.901315
0.901309
0.901303
0.901301
0.9013
0.9013
0.901303
0.901311
0.901323
0.901336
0.901355
0.901378
0.901399
0.901416
0.901433
0.901454
0.901486
0.901529
0.901564
0.901593
0.901608
0.901615
0.901614
0.901599
0.901566
0.901536
0.901513
0.901486
0.90148
0.901477
0.901455
0.901433
0.901432
0.901435
0.901453
0.901494
0.901529
0.901533
0.901517
0.901453
0.901366
0.901334
0.901342
0.90138
0.901448
0.901517
0.901543
0.901543
0.901522
0.901483
0.901465
0.901463
0.901471
0.90147
0.901454
0.901436
0.901435
0.901447
0.90154
0.902213
0.905129
0.915488
0.935228
0.95984
0.984312
0.99075
0.995811
1.00134
1.00172
1.00079
0.999249
0.998648
0.998246
0.997584
0.996701
0.995997
0.995551
0.995242
0.994516
0.901558
0.90155
0.901543
0.901538
0.901533
0.901527
0.90152
0.901509
0.901495
0.901477
0.901458
0.901438
0.901418
0.901397
0.901377
0.901357
0.90134
0.901326
0.901311
0.901297
0.901286
0.901279
0.901273
0.901267
0.90126
0.901253
0.901249
0.90125
0.901252
0.901253
0.901255
0.901265
0.901282
0.901301
0.901311
0.90132
0.901343
0.901401
0.90147
0.901541
0.901618
0.901644
0.901653
0.901667
0.901666
0.901642
0.901619
0.901609
0.901604
0.901593
0.901544
0.901449
0.901373
0.901338
0.901325
0.901333
0.901385
0.901472
0.901523
0.901526
0.901503
0.901436
0.901368
0.901356
0.901379
0.901431
0.901499
0.901543
0.901548
0.901546
0.901513
0.901458
0.901435
0.901429
0.901431
0.901438
0.901446
0.901455
0.901467
0.901465
0.901475
0.90161
0.902752
0.907216
0.921772
0.944335
0.969958
0.99136
0.998644
1.00059
0.997677
0.997867
0.998503
0.99836
0.997503
0.996476
0.995962
0.995754
0.995298
0.994413
0.901535
0.901535
0.901535
0.901536
0.901537
0.901539
0.901541
0.901542
0.90154
0.901533
0.901526
0.901518
0.90151
0.9015
0.901495
0.90149
0.901484
0.90148
0.901473
0.901461
0.901441
0.901429
0.901429
0.90143
0.901427
0.901425
0.901422
0.901415
0.901397
0.901369
0.901337
0.901307
0.901286
0.901277
0.901269
0.901262
0.901275
0.901316
0.901372
0.901465
0.90159
0.90162
0.901619
0.901632
0.901635
0.901609
0.901592
0.901591
0.901602
0.901606
0.901567
0.901456
0.90135
0.901302
0.901276
0.90127
0.9013
0.901379
0.901475
0.901534
0.901546
0.901539
0.901499
0.901452
0.901434
0.901442
0.901465
0.901501
0.90153
0.901534
0.90152
0.901468
0.901421
0.901411
0.901413
0.901438
0.901476
0.901488
0.901483
0.901468
0.901439
0.901389
0.901253
0.901503
0.903445
0.910478
0.929998
0.955449
0.974419
0.989245
0.992613
0.998494
0.999311
0.998269
0.9965
0.996341
0.996334
0.996006
0.995302
0.994313
0.901508
0.901512
0.901516
0.901522
0.901531
0.901548
0.901572
0.90159
0.901591
0.901592
0.901603
0.901608
0.901601
0.901601
0.901608
0.901609
0.901607
0.901612
0.901621
0.901621
0.901614
0.901611
0.901617
0.901633
0.901645
0.901648
0.901646
0.901636
0.90162
0.901595
0.901557
0.901516
0.901474
0.901417
0.901329
0.901262
0.90126
0.90127
0.901295
0.901349
0.90143
0.901455
0.90144
0.901435
0.901446
0.901467
0.901497
0.901531
0.90155
0.901564
0.901552
0.901474
0.901373
0.901326
0.901297
0.901273
0.901281
0.901332
0.901401
0.901476
0.90155
0.901588
0.901584
0.901547
0.901497
0.901449
0.901424
0.901419
0.90143
0.901468
0.901491
0.901484
0.901452
0.901437
0.901445
0.901474
0.901499
0.901497
0.901484
0.901447
0.901364
0.901258
0.901148
0.900939
0.900711
0.901177
0.904906
0.91616
0.938804
0.965511
0.985344
0.997113
0.997549
0.994966
0.995487
0.996311
0.996531
0.995961
0.995059
0.994247
0.901532
0.901545
0.901562
0.901584
0.901608
0.901628
0.901646
0.901652
0.901652
0.901657
0.901662
0.901654
0.901646
0.901651
0.901656
0.901644
0.901643
0.901643
0.90164
0.901645
0.901658
0.901653
0.90165
0.901662
0.901683
0.901686
0.901674
0.901664
0.901659
0.901638
0.901594
0.901566
0.901539
0.90148
0.901388
0.901304
0.901261
0.901261
0.901273
0.901299
0.901326
0.90133
0.901308
0.901279
0.901268
0.901282
0.901338
0.901417
0.901449
0.901481
0.901511
0.901502
0.901479
0.901497
0.901518
0.901486
0.901417
0.901369
0.901358
0.901386
0.901465
0.901557
0.901574
0.901558
0.901523
0.901452
0.901375
0.901362
0.90137
0.90142
0.901483
0.901513
0.901513
0.901509
0.901517
0.901512
0.901508
0.901498
0.901448
0.901367
0.901279
0.901177
0.901083
0.900897
0.900608
0.900039
0.899862
0.900985
0.907609
0.923623
0.949521
0.97451
0.984445
0.990132
0.996689
0.99729
0.996433
0.995044
0.994811
0.994512
0.901532
0.901542
0.901545
0.901545
0.901542
0.901533
0.901524
0.901504
0.90148
0.901476
0.901467
0.901443
0.901436
0.901442
0.901444
0.90143
0.901431
0.901438
0.901448
0.901476
0.901489
0.901485
0.901484
0.901491
0.901512
0.90154
0.90155
0.901557
0.901566
0.901577
0.901582
0.90156
0.9015
0.90142
0.90139
0.901387
0.901369
0.901336
0.901325
0.901327
0.901334
0.901331
0.901302
0.901262
0.901255
0.901271
0.901305
0.901373
0.901421
0.901444
0.901483
0.901509
0.901547
0.901635
0.901681
0.901662
0.901575
0.901433
0.901336
0.901327
0.90135
0.901408
0.901462
0.901478
0.901477
0.90143
0.901349
0.901328
0.901343
0.901403
0.901491
0.901539
0.901546
0.901547
0.901545
0.901532
0.901486
0.901421
0.901355
0.901286
0.901228
0.901158
0.901067
0.900903
0.900606
0.900107
0.899487
0.898559
0.898882
0.901494
0.913318
0.934311
0.961343
0.984729
0.994089
0.995978
0.993096
0.993865
0.995063
0.99466
0.901366
0.901359
0.901349
0.901336
0.901317
0.901294
0.901268
0.901236
0.901208
0.901183
0.901147
0.901091
0.901065
0.901068
0.901073
0.90107
0.901088
0.901089
0.90109
0.901107
0.901094
0.901056
0.901045
0.901047
0.901065
0.901105
0.901156
0.901211
0.901282
0.901317
0.90134
0.901371
0.901393
0.901414
0.901455
0.901499
0.901528
0.901551
0.901553
0.901552
0.901562
0.901578
0.901567
0.901534
0.901518
0.901508
0.901484
0.90145
0.901417
0.901406
0.901427
0.901475
0.901564
0.901682
0.901723
0.901709
0.901634
0.901478
0.90132
0.901286
0.901286
0.901324
0.901392
0.901413
0.901415
0.901398
0.901387
0.9014
0.901436
0.9015
0.90155
0.901545
0.901542
0.90154
0.901525
0.901475
0.901396
0.901313
0.901282
0.901257
0.901228
0.901193
0.901116
0.900936
0.900605
0.900102
0.899362
0.898563
0.897686
0.897412
0.898644
0.904453
0.92221
0.948094
0.969234
0.98356
0.988539
0.995338
0.995287
0.994456
0.901186
0.901179
0.901155
0.901128
0.901106
0.901089
0.901071
0.901052
0.901031
0.901005
0.900963
0.900902
0.90086
0.900844
0.900847
0.900878
0.900937
0.900947
0.90093
0.900931
0.900925
0.90088
0.900855
0.90085
0.90085
0.900867
0.900925
0.901001
0.90107
0.901135
0.901217
0.901327
0.90144
0.901541
0.901599
0.901618
0.901628
0.901644
0.901624
0.901596
0.901596
0.90163
0.901653
0.901672
0.901681
0.901678
0.901639
0.901525
0.901395
0.901359
0.901356
0.901385
0.901485
0.90153
0.901525
0.901505
0.901449
0.901354
0.901267
0.901259
0.901272
0.90134
0.901425
0.901439
0.901439
0.90144
0.901451
0.901496
0.901568
0.901594
0.901585
0.90155
0.901485
0.901436
0.9014
0.901361
0.901321
0.901273
0.901267
0.901282
0.901299
0.90127
0.901163
0.900947
0.900573
0.899988
0.899182
0.898385
0.897627
0.897149
0.896648
0.896977
0.899952
0.910764
0.932833
0.96093
0.982578
0.993691
0.993584
0.992548
0.901137
0.901175
0.901211
0.901242
0.901272
0.901297
0.901307
0.901307
0.901305
0.9013
0.901285
0.90128
0.901285
0.901289
0.901315
0.901394
0.901524
0.901565
0.901562
0.901572
0.901594
0.901578
0.90153
0.901463
0.90136
0.901293
0.901248
0.901176
0.901137
0.901159
0.901263
0.901437
0.901545
0.901599
0.901604
0.901579
0.901581
0.901571
0.901517
0.901441
0.901397
0.901392
0.901429
0.901526
0.901564
0.901565
0.901535
0.901428
0.901249
0.901199
0.901205
0.901237
0.901241
0.901231
0.901226
0.901219
0.901199
0.9012
0.901231
0.901317
0.901439
0.901578
0.901599
0.901597
0.901564
0.901494
0.901487
0.901537
0.901608
0.901614
0.901574
0.901474
0.901341
0.901282
0.901274
0.901289
0.901303
0.90132
0.901352
0.901383
0.901364
0.901302
0.901176
0.900897
0.900424
0.89978
0.898995
0.898264
0.897637
0.897249
0.896839
0.896337
0.895707
0.896675
0.902787
0.91956
0.946784
0.97083
0.981733
0.989944
0.901658
0.90169
0.901725
0.901759
0.901787
0.901808
0.901838
0.901867
0.901866
0.901865
0.901871
0.901914
0.901947
0.901985
0.902069
0.902199
0.90229
0.902322
0.902349
0.90239
0.902417
0.902413
0.902379
0.902271
0.902066
0.901839
0.901611
0.901433
0.901381
0.901402
0.901491
0.901523
0.901509
0.901506
0.901526
0.901492
0.901344
0.901071
0.900872
0.900797
0.9008
0.900865
0.901015
0.901171
0.90128
0.901327
0.901295
0.901185
0.901093
0.901086
0.901104
0.901119
0.901116
0.901094
0.901098
0.901117
0.901141
0.901199
0.901307
0.901393
0.901527
0.901674
0.901692
0.901674
0.901595
0.901497
0.901427
0.901403
0.90141
0.901404
0.901375
0.901331
0.90127
0.901244
0.901248
0.901305
0.901415
0.901494
0.901494
0.901461
0.901403
0.901296
0.901082
0.900728
0.900224
0.899615
0.898909
0.898259
0.897751
0.897337
0.896913
0.896371
0.895692
0.894564
0.894719
0.897435
0.909696
0.932675
0.961956
0.986735
0.902307
0.9023
0.902302
0.902303
0.902317
0.902354
0.902415
0.902481
0.902496
0.902455
0.902438
0.902431
0.90237
0.902292
0.902234
0.902195
0.902146
0.902055
0.901992
0.901999
0.902067
0.902137
0.902123
0.902004
0.901775
0.901401
0.901081
0.900971
0.900977
0.901057
0.901278
0.901414
0.901455
0.901482
0.901521
0.901506
0.901353
0.901042
0.900822
0.900756
0.900766
0.900857
0.901041
0.901213
0.901277
0.901287
0.901261
0.901201
0.901188
0.901231
0.901336
0.90143
0.901475
0.901502
0.901549
0.901645
0.901663
0.901628
0.901479
0.901396
0.901411
0.901497
0.901542
0.901517
0.901427
0.901311
0.901185
0.901081
0.90106
0.901066
0.901134
0.901207
0.901228
0.901245
0.901314
0.901439
0.901538
0.901562
0.901541
0.901464
0.901325
0.90114
0.900885