/*--------------------------------*- C++ -*----------------------------------*\
  =========                 |
  \\      /  F ield         | OpenFOAM: The Open Source CFD Toolbox
   \\    /   O peration     | Website:  https://openfoam.org
    \\  /    A nd           | Version:  7
     \\/     M anipulation  |
\*---------------------------------------------------------------------------*/
FoamFile
{
    version     2.0;
    format      ascii;
    class       volScalarField;
    location    "5.1";
    object      p;
}
// * * * * * * * * * * * * * * * * * * * * * * * * * * * * * * * * * * * * * //

dimensions      [1 -1 -2 0 0 0 0];

internalField   nonuniform List<scalar> 
1750
(
0.3604
0.568721
0.735994
0.844577
0.944794
0.95802
0.927246
0.896118
0.900209
0.895821
0.133131
0.206913
0.344606
0.517452
0.620342
0.730664
0.829549
0.878207
0.933809
0.917547
0.120766
0.126196
0.129521
0.14525
0.189341
0.277721
0.467496
0.682985
0.784263
0.852264
0.147495
0.138977
0.13379
0.139167
0.147751
0.151263
0.161003
0.23546
0.355302
0.614253
0.2039
0.185263
0.178236
0.185822
0.209863
0.233272
0.24179
0.250423
0.245772
0.285704
0.326346
0.328114
0.314693
0.312255
0.317098
0.316767
0.311979
0.301464
0.292601
0.279239
0.481953
0.48608
0.461745
0.424624
0.412645
0.404579
0.397711
0.38706
0.374672
0.36087
0.721177
0.685655
0.643014
0.600718
0.587625
0.572051
0.549811
0.526397
0.505729
0.465987
1.06992
0.994733
0.915696
0.836951
0.79493
0.767682
0.720885
0.670054
0.63241
0.572533
1.60879
1.48025
1.34816
1.21088
1.08902
1.01492
0.951106
0.872831
0.80926
0.725044
2.1212
2.04591
1.91683
1.76202
1.60196
1.43961
1.30529
1.17898
1.06999
0.925465
2.13722
2.12717
2.11323
2.08543
2.03371
1.94642
1.81559
1.65649
1.50003
1.26338
1.68319
1.80861
1.91465
1.96973
1.9982
1.99513
1.97963
1.93616
1.87134
1.69026
1.10809
1.17589
1.27896
1.40518
1.54246
1.67833
1.77555
1.83788
1.83163
1.80613
1.0029
1.00663
1.0156
1.03551
1.075
1.14699
1.25937
1.41695
1.58669
1.85911
0.161323
0.122085
0.10886
0.139318
0.203453
0.312283
0.468339
0.76649
1.15866
1.74688
2.16621
2.1408
1.56297
1.06151
1.00137
0.171645
0.117212
0.097773
0.143172
0.219364
0.346288
0.5813
0.926696
1.34871
1.97166
2.24614
2.05289
1.36974
1.02594
1.00044
0.16389
0.105036
0.0862318
0.147826
0.235552
0.415383
0.729742
1.05007
1.54249
2.15144
2.28818
1.91907
1.23241
1.01129
1.00016
0.154375
0.0992053
0.0844721
0.186361
0.31619
0.534381
0.821233
1.16776
1.78417
2.29052
2.28794
1.76275
1.11987
1.00359
1.00004
0.147267
0.0976097
0.108475
0.234804
0.380996
0.599469
0.902482
1.37745
2.04462
2.35217
2.23408
1.51065
1.0459
1.00098
1.00001
0.135826
0.0986518
0.139967
0.252807
0.40663
0.675607
1.08182
1.70456
2.287
2.39408
2.0531
1.30666
1.01889
1.00031
1
0.123776
0.110121
0.14834
0.257147
0.453611
0.864368
1.41058
2.00451
2.45398
2.41906
1.86935
1.1685
1.00658
1.00009
1
0.109244
0.119897
0.149961
0.287329
0.711088
1.18414
1.69363
2.28733
2.52741
2.38218
1.57769
1.056
1.00136
1.00002
1
0.0796424
0.116288
0.187803
0.509226
0.987239
1.4453
2.00077
2.53091
2.54489
2.08295
1.25584
1.01428
1.00027
1
1
0.046806
0.116009
0.329151
0.76913
1.23309
1.77305
2.40101
2.63497
2.50872
1.70219
1.10002
1.0036
1.00005
1
1
0.0287554
0.188354
0.570366
1.04613
1.59442
2.21062
2.67428
2.66111
2.18915
1.36028
1.02654
1.00059
1.00001
1
1
0.0248282
0.345186
0.866891
1.4541
2.12695
2.56518
2.76742
2.59685
1.80889
1.12274
1.00475
1.00008
1
1
1
0.0746742
0.645669
1.36468
2.04861
2.57276
2.75541
2.79082
2.23606
1.35025
1.02555
1.00066
1.00001
1
1
1
0.387153
1.24639
2.03564
2.52386
2.83813
2.82877
2.58655
1.68976
1.08499
1.00335
1.00006
1
1
1
1
1.31516
2.16332
2.59163
2.79016
2.90515
2.84285
2.03705
1.18099
1.00758
1.00012
1
1
1
1
1
2.89877
2.84796
2.80253
2.85797
2.91511
2.45697
1.28061
0.988554
0.998843
0.99998
1
1
1
1
1
2.88885
2.84566
2.79206
2.83655
2.86593
2.15025
1.19084
1.00554
1.00005
1
1
1
1
1
1
2.80692
2.86473
2.91166
2.89265
2.80362
1.69451
1.03438
1.00014
1
1
1
1
1
1
1
2.74913
2.8794
3.02834
2.9156
2.42215
1.26068
1.00461
1.00001
1
1
1
1
1
1
1
2.731
2.90637
3.09839
2.84841
1.92748
1.08034
1.00054
1
1
1
1
1
1
1
1
2.77979
2.97517
3.14583
2.68509
1.43867
1.01148
1.00004
1
1
1
1
1
1
1
1
2.92269
3.00296
3.15149
2.14537
1.10561
1.00079
1
1
1
1
1
1
1
1
1
3.24479
3.00746
2.75266
1.49124
1.01585
1.00004
1
1
1
1
1
1
1
1
1
3.60137
2.85946
2.14727
1.12857
1.00106
1
1
1
1
1
1
1
1
1
1
3.76866
2.60083
1.49349
1.01561
1.00005
1
1
1
1
1
1
1
1
1
1
3.6878
2.11832
1.16266
1.00201
1
1
1
1
1
1
1
1
1
1
1
3.22177
1.64654
1.038
1.0002
1
1
1
1
1
1
1
1
1
1
1
2.64141
1.29526
1.00717
1.00002
1
1
1
1
1
1
1
1
1
1
1
1.9819
1.10094
1.00099
1
1
1
1
1
1
1
1
1
1
1
1
1.39257
1.01611
1.00006
1
1
1
1
1
1
1
1
1
1
1
1
1
1
1
1
1
1
1
1
1
1
1
1
1
1
1
1
1
1
1
1
1
1
1
1
1
1
1
1
1
1
1
1
1
1
1
1
1
1
1
1
1
1
1
1
1
1
1
1
1
1
1
1
1
1
1
1
1
1
1
1
1
1
1
1
1
1
1
1
1
1
1
1
1
1
1
1
1
1
1
1
1
1
1
1
1
1
1
1
1
1
1
1
1
1
1
1
1
1
1
1
1
1
1
1
1
1
1
1
1
1
1
1
1
1
1
1
1
1
1
1
1
1
1
1
1
1
1
1
1
1
1
1
1
1
1
1
1
1
1
1
1
1
1
1
1
1
1
1
1
1
1
1
1
1
1
1
1
1
1
1
1
1
1
1
1
1
1
1
1
1
1
1
1
1
1
1
1
1
1
1
1
1
1
1
1
1
1
1
1
1
1
1
1
1
1
1
1
1
1
1
1
1
1
1
1
1
1
1
1
1
1
1
1
1
1
1
1
1
1
1
1
1
1
1
1
1
1
1
1
1
1
1
1
1
1
1
1
1
1
1
1
1
1
1
1
1
1
1
1
1
1
1
1
1
1
1
1
1
1
1
1
1
1
1
1
1
1
1
1
1
1
1
1
1
1
1
1
1
1
1
1
1
1
1
1
1
1
1
1
1
1
1
1
1
1
1
1
1
1
1
1
1
1
1
1
1
1
1
1
1
1
1
1
1
1
1
1
1
1
1
1
1
1
1
1
1
1
1
1
1
1
1
1
1
1
1
1
1
1
1
1
1
1
1
1
1
1
1
1
1
1.78874
1.01388
1
1
1
1
1
1
1
1
1
1
1
1
1
1
1
1
1
1
3.05073
1.23043
0.999364
1
1
1
1
1
1
1
1
1
1
1
1
1
1
1
1
1
4.68994
1.88126
1.0141
0.999958
1
1
1
1
1
1
1
1
1
1
1
1
1
1
1
1
5.57539
3.28172
1.44371
1.00058
1
1
1
1
1
1
1
1
1
1
1
1
1
1
1
1
5.27143
4.1793
3.06333
1.24308
0.999679
0.999999
1
1
1
1
1
1
1
1
1
1
1
1
1
1
4.50524
4.25706
4.16979
2.5
1.11037
0.999777
0.999998
1
1
1
1
1
1
1
1
1
1
1
1
1
3.94374
4.13457
4.42416
4.01547
1.93541
1.01922
0.999949
0.999998
1
1
1
1
1
1
1
1
1
1
1
1
3.90679
4.05794
4.3028
4.15908
3.22499
1.43324
1.00192
1
1
1
1
1
1
1
1
1
1
1
1
1
3.93546
3.98503
4.06975
4.0981
3.97405
2.44732
1.10604
0.999912
0.999998
1
1
1
1
1
1
1
1
1
1
1
3.9675
3.97765
3.97837
4.07378
4.17288
3.62849
1.68105
1.00967
0.999979
0.999999
1
1
1
1
1
1
1
1
1
1
3.98635
3.99186
4.00933
4.07487
4.13302
3.89223
2.74697
1.2218
1.00049
1
1
1
1
1
1
1
1
1
1
1
4.00535
4.01761
4.03887
4.0515
4.03123
3.96803
3.636
1.89098
1.02671
0.999984
1
1
1
1
1
1
1
1
1
1
4.0329
4.04722
4.05169
4.0292
3.99032
4.01408
4.01559
2.98678
1.27804
1.00092
0.999999
1
1
1
1
1
1
1
1
1
4.07709
4.07971
4.0724
4.02831
3.99188
3.9994
4.02655
3.50938
2.01997
1.07458
1.00071
1
1
1
1
1
1
1
1
1
4.1105
4.10279
4.08136
4.03989
4.01386
4.01003
4.05309
3.90426
2.869
1.12641
0.989442
0.999116
0.99999
1
1
1
1
1
1
1
1.52785
2.70414
3.398
3.72097
3.87092
3.95343
4.03251
4.07329
3.83387
2.63253
1.31294
1.01876
1.00044
1.00001
1
1
1
1
1
1
0.255054
1.31325
2.23196
2.90782
3.36077
3.64657
3.8722
4.02565
3.99845
3.63878
2.49021
1.28156
1.01554
1.00035
1
1
1
1
1
1
0.121516
0.663693
1.25414
1.88233
2.54387
3.04561
3.45735
3.75809
3.94828
3.89499
3.51065
2.19127
1.18027
1.00745
1.00013
1
1
1
1
1
0.113357
0.400015
0.786485
1.21036
1.7225
2.34075
2.82132
3.27852
3.66595
3.85247
3.78379
3.18355
1.80369
1.08529
1.00259
1.00004
1
1
1
1
0.142459
0.251092
0.450318
0.845181
1.24068
1.73835
2.23397
2.71957
3.21814
3.6122
3.72643
3.68251
2.76302
1.43676
1.02665
1.0005
1.00001
1
1
1
0.245718
0.229396
0.246444
0.503743
0.887072
1.28144
1.73799
2.18332
2.74941
3.16618
3.52938
3.67833
3.51873
2.24755
1.18814
1.00697
1.0001
1
1
1
0.341156
0.249548
0.23815
0.381538
0.630878
0.951341
1.316
1.74848
2.26898
2.68752
3.14339
3.56643
3.57019
3.07907
1.67348
1.0554
1.0012
1.00001
1
1
0.376756
0.271085
0.234481
0.343878
0.503196
0.749698
1.03726
1.43783
1.86375
2.32691
2.71111
3.2354
3.51701
3.43991
2.49508
1.26545
1.01055
1.00014
1
1
0.363212
0.268047
0.236359
0.294644
0.385327
0.619544
0.858731
1.20062
1.57006
2.00754
2.39342
2.86943
3.33007
3.41739
3.04674
1.77773
1.06331
1.00121
1.00001
1
0.337713
0.272331
0.253429
0.271619
0.302001
0.459548
0.694815
0.945184
1.29625
1.64464
2.08108
2.46272
3.00877
3.33584
3.23922
2.36
1.25449
1.00852
1.00009
1
0.321165
0.290563
0.283081
0.273282
0.28699
0.404115
0.591854
0.782976
1.06358
1.36014
1.77683
2.13704
2.59899
3.12432
3.23057
2.77964
1.57993
1.04094
1.00063
1.00001
0.292839
0.300897
0.305056
0.273609
0.279495
0.380809
0.530229
0.715142
0.937878
1.22081
1.55281
1.93578
2.30683
2.84287
3.18627
3.108
2.06719
1.13308
1.00322
1.00003
0.27913
0.298688
0.305477
0.274449
0.268322
0.344687
0.452171
0.649333
0.843287
1.10073
1.38012
1.75296
2.10524
2.57768
3.06859
3.11815
2.62472
1.3942
1.017
1.00021
0.279039
0.296964
0.305257
0.276218
0.2684
0.315142
0.379673
0.543268
0.73036
0.950796
1.20506
1.51015
1.86721
2.26621
2.82634
3.07052
2.80728
1.7572
1.068
1.00115
0.29085
0.294233
0.302916
0.283926
0.277425
0.313777
0.347881
0.453814
0.624305
0.79957
1.0468
1.30387
1.65828
2.01496
2.50217
2.93033
2.85285
2.10511
1.17595
1.00484
0.394606
0.299128
0.299709
0.290495
0.291426
0.31588
0.354179
0.466704
0.60961
0.769186
0.999567
1.25474
1.5541
1.89315
2.30864
2.79395
2.84604
2.4347
1.35831
1.01565
0.498164
0.33283
0.298859
0.286798
0.292206
0.307439
0.351872
0.463439
0.582951
0.73376
0.940607
1.19245
1.43826
1.74784
2.1229
2.62663
2.83024
2.58925
1.62169
1.04769
0.616945
0.396279
0.300548
0.280922
0.286094
0.284688
0.334245
0.444107
0.529979
0.683609
0.857236
1.09389
1.31581
1.57334
1.91454
2.3916
2.75535
2.65654
1.92869
1.13422
0.742942
0.512888
0.31691
0.280801
0.280717
0.279443
0.33318
0.431833
0.49378
0.634298
0.793534
0.992068
1.22173
1.46126
1.74942
2.17037
2.63134
2.64218
2.17482
1.30435
0.91925
0.675531
0.36759
0.285022
0.279359
0.278736
0.332656
0.422621
0.477018
0.60702
0.751514
0.915443
1.13006
1.36573
1.61347
1.95814
2.44567
2.60348
2.34515
1.57349
0.989564
0.826683
0.522523
0.297855
0.277256
0.27712
0.327511
0.403313
0.463383
0.584322
0.70737
0.860212
1.04851
1.25872
1.49276
1.77003
2.2126
2.51817
2.41126
1.9487
0.973382
0.946602
0.744835
0.36622
0.275506
0.276362
0.313388
0.371027
0.446409
0.559687
0.660951
0.800033
0.974703
1.15999
1.373
1.61907
1.99271
2.3996
2.39255
2.36605
0.918519
0.940642
0.819995
0.547063
0.294789
0.275934
0.308851
0.341738
0.415087
0.526059
0.615232
0.733133
0.89077
1.06821
1.24949
1.47344
1.78988
2.22963
2.42064
2.75476
0.891314
0.912819
0.88498
0.751753
0.377658
0.273928
0.303197
0.329482
0.405493
0.489016
0.573504
0.69167
0.819653
0.985173
1.15879
1.35852
1.62475
2.04756
2.47023
3.06676
0.894745
0.893411
0.907281
0.839786
0.633909
0.345485
0.297444
0.325458
0.393182
0.44383
0.515183
0.628419
0.730976
0.867651
1.02758
1.19884
1.40853
1.7881
2.45361
3.43671
)
;

boundaryField
{
    inlet
    {
        type            fixedValue;
        value           uniform 1;
    }
    outlet
    {
        type            zeroGradient;
    }
    airfoil
    {
        type            zeroGradient;
    }
    top
    {
        type            symmetryPlane;
    }
    bottom
    {
        type            symmetryPlane;
    }
    defaultFaces
    {
        type            empty;
    }
}


// ************************************************************************* //
