/*--------------------------------*- C++ -*----------------------------------*\
  =========                 |
  \\      /  F ield         | OpenFOAM: The Open Source CFD Toolbox
   \\    /   O peration     | Website:  https://openfoam.org
    \\  /    A nd           | Version:  7
     \\/     M anipulation  |
\*---------------------------------------------------------------------------*/
FoamFile
{
    version     2.0;
    format      ascii;
    class       volScalarField;
    location    "5.1";
    object      rho;
}
// * * * * * * * * * * * * * * * * * * * * * * * * * * * * * * * * * * * * * //

dimensions      [1 -3 0 0 0 0 0];

internalField   nonuniform List<scalar> 
1750
(
0.432049
0.595708
0.747063
0.848441
0.930955
0.954643
0.94441
0.933272
0.946184
0.953921
0.271316
0.343367
0.476538
0.641471
0.731379
0.817261
0.892053
0.932443
0.980324
0.972984
0.285599
0.296347
0.304554
0.327241
0.377119
0.468822
0.649209
0.828406
0.914455
0.969509
0.344299
0.3306
0.321196
0.330483
0.344274
0.349993
0.362351
0.44403
0.580774
0.838558
0.433598
0.406361
0.395479
0.406514
0.44181
0.477301
0.48971
0.504898
0.496927
0.540226
0.606277
0.608313
0.589689
0.585978
0.59285
0.592772
0.586942
0.572454
0.559399
0.540864
0.798786
0.804718
0.776529
0.731178
0.714791
0.704057
0.69578
0.682778
0.66656
0.647333
1.05827
1.02138
0.979614
0.9347
0.917101
0.89751
0.87236
0.846743
0.822768
0.774145
1.39589
1.32241
1.24792
1.17377
1.1314
1.10201
1.05266
0.999519
0.959415
0.892061
1.85354
1.74636
1.63563
1.51733
1.40719
1.33769
1.27725
1.20181
1.13943
1.0525
2.27828
2.21728
2.11303
1.98689
1.85427
1.71674
1.60095
1.48922
1.3903
1.25184
2.30608
2.29921
2.28782
2.26448
2.22133
2.14876
2.04081
1.90886
1.77796
1.56811
1.97128
2.07285
2.15552
2.19679
2.21262
2.20954
2.19664
2.16092
2.10714
1.95167
1.49803
1.55808
1.64746
1.75484
1.86916
1.97943
2.05712
2.10261
2.09583
2.07317
1.40281
1.40637
1.41487
1.43348
1.46982
1.53458
1.63376
1.76889
1.91306
2.13536
0.289031
0.257366
0.263775
0.32552
0.431873
0.587754
0.781659
1.10899
1.48063
1.96819
2.31474
2.30855
1.87373
1.45639
1.40133
0.305087
0.254359
0.244532
0.328733
0.45409
0.632641
0.91422
1.27248
1.64637
2.15137
2.37791
2.24619
1.71799
1.42426
1.40043
0.295324
0.231
0.217516
0.328639
0.47715
0.71906
1.07459
1.38608
1.8049
2.29509
2.41113
2.14924
1.60442
1.41071
1.40016
0.277283
0.218799
0.21103
0.390668
0.591071
0.857789
1.16824
1.48743
2.00186
2.40717
2.41302
2.03233
1.50823
1.40345
1.40005
0.261854
0.214871
0.251457
0.474732
0.6763
0.93135
1.24446
1.67026
2.21201
2.45773
2.38295
1.83131
1.44225
1.40095
1.40002
0.246512
0.221757
0.316336
0.508235
0.70635
1.0134
1.41513
1.94736
2.40166
2.48986
2.24241
1.66219
1.41764
1.40031
1.40001
0.228601
0.252301
0.340987
0.514533
0.759296
1.20594
1.70898
2.18705
2.52801
2.50703
2.10269
1.54765
1.40623
1.40009
1.40001
0.201659
0.267085
0.347605
0.54428
1.04331
1.50674
1.94484
2.40307
2.58205
2.47298
1.87733
1.45084
1.40131
1.40002
1.40001
0.149405
0.25873
0.396526
0.80906
1.32358
1.73835
2.18892
2.58574
2.59477
2.2591
1.61958
1.41334
1.40027
1.40001
1.40001
0.093053
0.258159
0.58304
1.09994
1.55281
2.01173
2.49528
2.66316
2.5681
1.97371
1.48952
1.40345
1.40006
1.40001
1.40001
0.0718217
0.374947
0.872163
1.37142
1.8652
2.35576
2.69683
2.68292
2.33933
1.70614
1.42459
1.40058
1.40001
1.40001
1.40001
0.0745911
0.589325
1.19178
1.74194
2.29128
2.62132
2.76368
2.63708
2.05428
1.50787
1.40448
1.40008
1.40001
1.40001
1.40001
0.257178
0.964115
1.66099
2.23281
2.62577
2.75887
2.78006
2.37425
1.69425
1.42336
1.40065
1.40001
1.40001
1.40001
1.40001
0.736702
1.56729
2.22115
2.59716
2.8155
2.80934
2.63464
1.96302
1.47489
1.40316
1.40006
1.40001
1.40001
1.40001
1.40001
1.64618
2.3215
2.65108
2.7902
2.86013
2.81882
2.23306
1.55431
1.40684
1.40012
1.40001
1.40001
1.40001
1.40001
1.40001
2.89141
2.84917
2.80696
2.83473
2.86504
2.54936
1.64184
1.38972
1.39889
1.39999
1.4
1.40001
1.40001
1.40001
1.40001
2.88867
2.85004
2.80247
2.82313
2.83135
2.31667
1.56567
1.40529
1.40006
1.40001
1.40001
1.40001
1.40001
1.40001
1.40001
2.83139
2.86636
2.8884
2.86435
2.79308
1.97289
1.43141
1.40014
1.40001
1.40001
1.40001
1.40001
1.40001
1.40001
1.40001
2.78974
2.87563
2.96881
2.87886
2.51756
1.62312
1.40435
1.40002
1.40001
1.40001
1.40001
1.40001
1.40001
1.40001
1.40001
2.77628
2.89405
3.0154
2.82491
2.14836
1.47152
1.40053
1.40001
1.40001
1.40001
1.40001
1.40001
1.40001
1.40001
1.40001
2.80941
2.94653
3.04708
2.70645
1.76613
1.41062
1.40004
1.40001
1.40001
1.40001
1.40001
1.40001
1.40001
1.40001
1.40001
2.91225
2.97313
3.05067
2.31003
1.49227
1.40076
1.40001
1.40001
1.40001
1.40001
1.40001
1.40001
1.40001
1.40001
1.40001
3.1411
3.00202
2.78086
1.80747
1.41457
1.40005
1.40001
1.40001
1.40001
1.40001
1.40001
1.40001
1.40001
1.40001
1.40001
3.38197
2.90678
2.34213
1.51327
1.40101
1.40001
1.40001
1.40001
1.40001
1.40001
1.40001
1.40001
1.40001
1.40001
1.40001
3.49549
2.72249
1.83118
1.41461
1.40006
1.40001
1.40001
1.40001
1.40001
1.40001
1.40001
1.40001
1.40001
1.40001
1.40001
3.44803
2.34984
1.54872
1.40194
1.40001
1.40001
1.40001
1.40001
1.40001
1.40001
1.40001
1.40001
1.40001
1.40001
1.40001
3.14792
1.96282
1.43579
1.4002
1.40001
1.40001
1.40001
1.40001
1.40001
1.40001
1.40001
1.40001
1.40001
1.40001
1.40001
2.75332
1.66387
1.40687
1.40003
1.40001
1.40001
1.40001
1.40001
1.40001
1.40001
1.40001
1.40001
1.40001
1.40001
1.40001
2.26091
1.49273
1.40096
1.40001
1.40001
1.40001
1.40001
1.40001
1.40001
1.40001
1.40001
1.40001
1.40001
1.40001
1.40001
1.7664
1.41536
1.40006
1.40001
1.40001
1.40001
1.40001
1.40001
1.40001
1.40001
1.40001
1.40001
1.40001
1.40001
1.40001
1.40001
1.40001
1.40001
1.40001
1.40001
1.40001
1.40001
1.40001
1.40001
1.40001
1.40001
1.40001
1.40001
1.40001
1.40001
1.40001
1.40001
1.40001
1.40001
1.40001
1.40001
1.40001
1.40001
1.40001
1.40001
1.40001
1.40001
1.40001
1.40001
1.40001
1.40001
1.40001
1.40001
1.40001
1.40001
1.40001
1.40001
1.40001
1.40001
1.40001
1.40001
1.40001
1.40001
1.40001
1.40001
1.40001
1.40001
1.40001
1.40001
1.40001
1.40001
1.40001
1.40001
1.40001
1.40001
1.40001
1.40001
1.40001
1.40001
1.40001
1.40001
1.40001
1.40001
1.40001
1.40001
1.40001
1.40001
1.40001
1.40001
1.40001
1.40001
1.40001
1.40001
1.40001
1.40001
1.40001
1.40001
1.40001
1.40001
1.40001
1.40001
1.40001
1.40001
1.40001
1.40001
1.40001
1.40001
1.40001
1.40001
1.40001
1.40001
1.40001
1.40001
1.40001
1.40001
1.40001
1.40001
1.40001
1.40001
1.40001
1.40001
1.40001
1.40001
1.40001
1.40001
1.40001
1.40001
1.40001
1.40001
1.40001
1.40001
1.40001
1.40001
1.40001
1.40001
1.40001
1.40001
1.40001
1.40001
1.40001
1.40001
1.40001
1.40001
1.40001
1.40001
1.40001
1.40001
1.40001
1.40001
1.40001
1.40001
1.40001
1.40001
1.40001
1.40001
1.40001
1.40001
1.40001
1.40001
1.40001
1.40001
1.40001
1.40001
1.40001
1.40001
1.40001
1.40001
1.40001
1.40001
1.40001
1.40001
1.40001
1.40001
1.40001
1.40001
1.40001
1.40001
1.40001
1.40001
1.40001
1.40001
1.40001
1.40001
1.40001
1.40001
1.40001
1.40001
1.40001
1.40001
1.40001
1.40001
1.40001
1.40001
1.40001
1.40001
1.40001
1.40001
1.40001
1.40001
1.40001
1.40001
1.40001
1.40001
1.40001
1.40001
1.40001
1.40001
1.40001
1.40001
1.40001
1.40001
1.40001
1.40001
1.40001
1.40001
1.40001
1.40001
1.40001
1.40001
1.40001
1.40001
1.40001
1.40001
1.40001
1.40001
1.40001
1.40001
1.40001
1.40001
1.40001
1.40001
1.40001
1.40001
1.40001
1.40001
1.40001
1.40001
1.40001
1.40001
1.40001
1.40001
1.40001
1.40001
1.40001
1.40001
1.40001
1.40001
1.40001
1.40001
1.40001
1.40001
1.40001
1.40001
1.40001
1.40001
1.40001
1.40001
1.40001
1.40001
1.40001
1.40001
1.40001
1.40001
1.40001
1.40001
1.40001
1.40001
1.40001
1.40001
1.40001
1.40001
1.40001
1.40001
1.40001
1.40001
1.40001
1.40001
1.40001
1.40001
1.40001
1.40001
1.40001
1.40001
1.40001
1.40001
1.40001
1.40001
1.40001
1.40001
1.40001
1.40001
1.40001
1.40001
1.40001
1.40001
1.40001
1.40001
1.40001
1.40001
1.40001
1.40001
1.40001
1.40001
1.40001
1.40001
1.40001
1.40001
1.40001
1.40001
1.40001
1.40001
1.40001
1.40001
1.40001
1.40001
1.40001
1.40001
1.40001
1.40001
1.40001
1.40001
1.40001
1.40001
1.40001
1.40001
1.40001
1.40001
1.40001
1.40001
1.40001
1.40001
1.40001
1.40001
1.40001
1.40001
1.40001
1.40001
1.40001
1.40001
1.40001
1.40001
1.40001
1.40001
1.40001
1.40001
1.40001
1.40001
1.40001
1.40001
1.40001
1.40001
1.40001
1.40001
1.40001
1.40001
1.40001
1.40001
1.40001
1.40001
1.40001
1.40001
1.40001
1.40001
1.40001
1.40001
1.40001
1.40001
1.40001
1.40001
1.40001
2.09529
1.41261
1.40001
1.40001
1.40001
1.40001
1.40001
1.40001
1.40001
1.40001
1.40001
1.40001
1.40001
1.40001
1.40001
1.40001
1.40001
1.40001
1.40001
1.40001
3.01561
1.59488
1.39943
1.40001
1.40001
1.40001
1.40001
1.40001
1.40001
1.40001
1.40001
1.40001
1.40001
1.40001
1.40001
1.40001
1.40001
1.40001
1.40001
1.40001
4.03273
2.12147
1.41281
1.39997
1.40001
1.40001
1.40001
1.40001
1.40001
1.40001
1.40001
1.40001
1.40001
1.40001
1.40001
1.40001
1.40001
1.40001
1.40001
1.40001
4.4768
3.10219
1.76079
1.40051
1.40001
1.40001
1.40001
1.40001
1.40001
1.40001
1.40001
1.40001
1.40001
1.40001
1.40001
1.40001
1.40001
1.40001
1.40001
1.40001
4.29433
3.69177
2.89564
1.59395
1.39973
1.4
1.40001
1.40001
1.40001
1.40001
1.40001
1.40001
1.40001
1.40001
1.40001
1.40001
1.40001
1.40001
1.40001
1.40001
3.8311
3.67293
3.54716
2.48082
1.49211
1.39982
1.4
1.40001
1.40001
1.40001
1.40001
1.40001
1.40001
1.40001
1.40001
1.40001
1.40001
1.40001
1.40001
1.40001
3.48562
3.58461
3.72078
3.40355
2.09106
1.4168
1.39996
1.4
1.40001
1.40001
1.40001
1.40001
1.40001
1.40001
1.40001
1.40001
1.40001
1.40001
1.40001
1.40001
3.4497
3.5286
3.65167
3.52932
2.94246
1.74023
1.40178
1.40001
1.40001
1.40001
1.40001
1.40001
1.40001
1.40001
1.40001
1.40001
1.40001
1.40001
1.40001
1.40001
3.46668
3.48347
3.50944
3.499
3.39854
2.45719
1.48945
1.39994
1.4
1.40001
1.40001
1.40001
1.40001
1.40001
1.40001
1.40001
1.40001
1.40001
1.40001
1.40001
3.48675
3.48099
3.45597
3.48564
3.52741
3.20789
1.92887
1.40871
1.39999
1.4
1.40001
1.40001
1.40001
1.40001
1.40001
1.40001
1.40001
1.40001
1.40001
1.40001
3.49823
3.49004
3.47562
3.48658
3.50503
3.3709
2.67382
1.58319
1.40048
1.40001
1.40001
1.40001
1.40001
1.40001
1.40001
1.40001
1.40001
1.40001
1.40001
1.40001
3.50875
3.50585
3.49388
3.47289
3.44374
3.41265
3.23183
2.08662
1.42375
1.4
1.40001
1.40001
1.40001
1.40001
1.40001
1.40001
1.40001
1.40001
1.40001
1.40001
3.52342
3.52232
3.50024
3.45913
3.42068
3.43771
3.46051
2.8492
1.62893
1.40086
1.4
1.40001
1.40001
1.40001
1.40001
1.40001
1.40001
1.40001
1.40001
1.40001
3.54955
3.54208
3.5138
3.46036
3.42516
3.43015
3.46111
3.1684
2.18075
1.46887
1.40071
1.40001
1.40001
1.40001
1.40001
1.40001
1.40001
1.40001
1.40001
1.40001
3.56386
3.54872
3.51338
3.46773
3.44117
3.43828
3.47258
3.41458
2.78762
1.49863
1.39145
1.39917
1.39999
1.4
1.40001
1.40001
1.40001
1.40001
1.40001
1.40001
1.72687
2.59498
3.07449
3.27689
3.35868
3.40394
3.45593
3.49556
3.37578
2.5896
1.65186
1.41679
1.40043
1.40001
1.40001
1.40001
1.40001
1.40001
1.40001
1.40001
0.476141
1.5096
2.25387
2.74468
3.04246
3.21617
3.3537
3.46332
3.45274
3.23024
2.48602
1.63034
1.41417
1.40034
1.40001
1.40001
1.40001
1.40001
1.40001
1.40001
0.203347
0.86216
1.45816
1.99945
2.49366
2.83219
3.09292
3.29052
3.42052
3.38908
3.14269
2.28899
1.55248
1.40694
1.40013
1.40001
1.40001
1.40001
1.40001
1.40001
0.188546
0.583831
1.02537
1.43969
1.87689
2.34476
2.67574
2.97883
3.23927
3.36256
3.31711
2.94022
2.02414
1.47512
1.40248
1.40004
1.40001
1.40001
1.40001
1.40001
0.225059
0.408442
0.675281
1.09967
1.48103
1.89001
2.2651
2.60241
2.9457
3.20886
3.28056
3.25065
2.67599
1.75532
1.42431
1.40048
1.40001
1.40001
1.40001
1.40001
0.347786
0.380629
0.430296
0.755921
1.16475
1.5233
1.89846
2.22713
2.62967
2.91669
3.15399
3.24716
3.15116
2.33363
1.56003
1.40653
1.4001
1.40001
1.40001
1.40001
0.46128
0.406289
0.425792
0.623257
0.905128
1.23165
1.5553
1.90199
2.2894
2.59139
2.901
3.1742
3.17472
2.87634
1.92953
1.44951
1.40115
1.40002
1.40001
1.40001
0.502288
0.429525
0.423554
0.581223
0.767184
1.03323
1.30591
1.65044
1.98477
2.33338
2.60718
2.95735
3.14015
3.09598
2.49982
1.61972
1.40973
1.40014
1.40001
1.40001
0.487902
0.421491
0.42294
0.517346
0.634621
0.895022
1.1428
1.44628
1.75548
2.09519
2.38407
2.71328
3.0175
3.08158
2.85814
2.00731
1.4559
1.40115
1.40002
1.40001
0.461395
0.421817
0.437765
0.481982
0.535051
0.725222
0.989937
1.22518
1.53664
1.81831
2.15989
2.43522
2.80542
3.02866
2.9781
2.41763
1.61355
1.40791
1.40009
1.40001
0.448422
0.439921
0.469756
0.484279
0.516252
0.66565
0.880997
1.07494
1.33557
1.59079
1.92909
2.20219
2.52682
2.88709
2.97193
2.69996
1.86681
1.43711
1.40062
1.40001
0.426524
0.457775
0.501119
0.485047
0.504863
0.641013
0.811181
1.00692
1.21694
1.47027
1.74764
2.04964
2.31979
2.69515
2.94095
2.90614
2.22105
1.51544
1.40304
1.40004
0.416822
0.457442
0.500729
0.48603
0.488014
0.595943
0.721934
0.936969
1.12717
1.36402
1.60607
1.90799
2.17525
2.51248
2.85912
2.9097
2.60583
1.72608
1.41565
1.40021
0.417096
0.455208
0.498602
0.48796
0.487443
0.553593
0.63622
0.821624
1.02038
1.23028
1.46147
1.71808
2.00092
2.29436
2.69168
2.8763
2.72554
2.00211
1.46065
1.40111
0.42827
0.447296
0.48908
0.494449
0.497464
0.550721
0.598253
0.722647
0.912976
1.08865
1.32161
1.54733
1.83741
2.10806
2.46169
2.77734
2.7468
2.25518
1.55217
1.40455
0.519699
0.465399
0.496506
0.509341
0.5198
0.555525
0.607358
0.739158
0.897119
1.05861
1.27625
1.50347
1.75149
2.01436
2.32122
2.67913
2.73824
2.48909
1.70077
1.41457
0.613576
0.513868
0.508697
0.509368
0.523634
0.548904
0.604938
0.73701
0.86851
1.02385
1.22061
1.4492
1.6565
1.90188
2.18555
2.55911
2.72634
2.59461
1.90854
1.44347
0.722036
0.592387
0.519834
0.505669
0.518699
0.521356
0.582747
0.7155
0.810587
0.97214
1.14242
1.36175
1.55456
1.76428
2.02951
2.39021
2.67231
2.62952
2.14131
1.51895
0.830868
0.716018
0.542998
0.507381
0.512136
0.511902
0.58107
0.700545
0.770172
0.920269
1.08219
1.26999
1.47473
1.67463
1.90359
2.229
2.58143
2.6166
2.32082
1.6614
0.96494
0.868337
0.604542
0.514829
0.510496
0.510648
0.580719
0.68986
0.751928
0.892463
1.04212
1.20003
1.39543
1.59623
1.79762
2.06982
2.445
2.58792
2.44021
1.879
1.0279
0.990355
0.769246
0.532689
0.508712
0.50902
0.575128
0.667671
0.736802
0.869523
0.998411
1.14823
1.32291
1.5057
1.70066
1.92486
2.27315
2.52582
2.47809
2.16918
1.02074
1.08387
0.98517
0.610848
0.507156
0.509193
0.557675
0.62895
0.717171
0.843976
0.951043
1.09031
1.25568
1.42085
1.60243
1.80652
2.10905
2.43899
2.46294
2.48062
0.986451
1.07194
1.03755
0.80051
0.530289
0.50871
0.551717
0.592955
0.680763
0.807996
0.903644
1.02474
1.17742
1.34026
1.49875
1.68964
1.953
2.31058
2.48317
2.76252
0.968691
1.04537
1.08672
1.00355
0.623991
0.505921
0.544587
0.578131
0.670257
0.767386
0.859671
0.983293
1.10955
1.26489
1.42067
1.5953
1.82324
2.17199
2.51869
2.98561
0.974828
1.02345
1.0889
1.06604
0.878351
0.585691
0.536837
0.572539
0.655838
0.715662
0.795288
0.916956
1.02132
1.15351
1.3027
1.45833
1.64506
1.96582
2.49596
3.23069
)
;

boundaryField
{
    inlet
    {
        type            calculated;
        value           uniform 1.40001;
    }
    outlet
    {
        type            calculated;
        value           nonuniform List<scalar> 
35
(
0.974957
1.02341
1.08887
1.06612
0.878514
0.585848
0.536864
0.57249
0.65578
0.715702
0.795545
0.917038
1.02132
1.15362
1.30271
1.45839
1.64511
1.96595
2.49679
3.2326
0.954136
0.973169
0.969916
0.83923
0.540549
0.540933
0.647472
0.77425
0.892115
1.05257
1.25199
1.56825
1.95191
2.07353
2.13588
)
;
    }
    airfoil
    {
        type            calculated;
        value           nonuniform List<scalar> 
60
(
0.289031
0.305087
0.295324
0.277283
0.261854
0.246512
0.228601
0.201659
0.149405
0.093053
0.0718217
0.0745911
0.257178
0.736702
1.64618
2.89141
2.88867
2.83139
2.78974
2.77628
2.80941
2.91225
3.1411
3.38197
3.49549
3.44803
3.14792
2.75332
2.26091
1.7664
2.09529
3.01561
4.03273
4.4768
4.29433
3.8311
3.48562
3.4497
3.46668
3.48675
3.49823
3.50875
3.52342
3.54955
3.56386
1.72687
0.476141
0.203347
0.188546
0.225059
0.347786
0.46128
0.502288
0.487902
0.461395
0.448422
0.426524
0.416822
0.417096
0.42827
)
;
    }
    top
    {
        type            symmetryPlane;
    }
    bottom
    {
        type            symmetryPlane;
    }
    defaultFaces
    {
        type            empty;
    }
}


// ************************************************************************* //
