/*--------------------------------*- C++ -*----------------------------------*\
  =========                 |
  \\      /  F ield         | OpenFOAM: The Open Source CFD Toolbox
   \\    /   O peration     | Website:  https://openfoam.org
    \\  /    A nd           | Version:  7
     \\/     M anipulation  |
\*---------------------------------------------------------------------------*/
FoamFile
{
    version     2.0;
    format      ascii;
    class       volVectorField;
    location    "5.5";
    object      U;
}
// * * * * * * * * * * * * * * * * * * * * * * * * * * * * * * * * * * * * * //

dimensions      [0 1 -1 0 0 0 0];

internalField   nonuniform List<vector> 
24000
(
(3.08079 -1.07512 0)
(3.02792 -0.978645 0)
(2.98878 -0.859569 0)
(2.96437 -0.707625 0)
(2.96643 -0.675471 0)
(2.95291 -0.586166 0)
(2.95042 -0.500833 0)
(2.951 -0.403084 0)
(2.96345 -0.375703 0)
(2.95609 -0.274214 0)
(2.96649 -0.243235 0)
(2.95781 -0.143961 0)
(2.96921 -0.124713 0)
(2.95928 -0.0276391 0)
(2.96451 -0.0189947 0)
(2.95151 0.0461006 0)
(2.9466 0.0301788 0)
(2.93671 0.0510735 0)
(2.92954 0.0500943 0)
(2.92846 0.0490176 0)
(2.92849 0.0453384 0)
(2.93085 0.0513922 0)
(2.92393 0.0604687 0)
(2.92171 0.068547 0)
(2.91573 0.0677551 0)
(2.9128 0.0658876 0)
(2.90838 0.0659869 0)
(2.90627 0.0570639 0)
(2.90399 0.0476419 0)
(2.89904 0.0440533 0)
(2.89577 0.0342075 0)
(2.89766 0.0388143 0)
(2.90188 0.0465289 0)
(2.90501 0.0568956 0)
(2.90414 0.0567471 0)
(2.90121 0.0516614 0)
(2.89809 0.0431867 0)
(2.8981 0.0456656 0)
(2.9009 0.0502184 0)
(2.90277 0.0537238 0)
(2.90339 0.0513533 0)
(2.90426 0.0458955 0)
(2.90664 0.0466954 0)
(2.91072 0.0505506 0)
(2.91678 0.0492149 0)
(2.92078 0.0439491 0)
(2.92419 0.040868 0)
(2.92844 0.0383425 0)
(2.92963 0.0357473 0)
(2.9328 0.0268497 0)
(3.14213 -1.18428 0)
(3.14186 -1.18407 0)
(3.14149 -1.18377 0)
(3.14111 -1.18344 0)
(3.1407 -1.18327 0)
(3.14018 -1.18311 0)
(3.13965 -1.18313 0)
(3.13845 -1.18134 0)
(3.13526 -1.17623 0)
(3.12732 -1.15931 0)
(3.11649 -1.13456 0)
(3.09905 -1.07816 0)
(3.08003 -1.01666 0)
(3.0487 -0.885175 0)
(3.02614 -0.779804 0)
(2.983 -0.575911 0)
(2.96654 -0.469087 0)
(2.92142 -0.257945 0)
(2.93013 -0.198425 0)
(2.89625 -0.0558986 0)
(2.90026 -0.0209275 0)
(2.88381 0.0495606 0)
(2.88205 0.0607473 0)
(2.87269 0.0960901 0)
(2.86385 0.0997538 0)
(2.87316 0.12116 0)
(2.87241 0.108946 0)
(2.86843 0.0797375 0)
(2.86591 0.0556509 0)
(2.87183 0.031509 0)
(2.87667 0.0334248 0)
(2.88467 0.0483765 0)
(2.88377 0.072385 0)
(2.87992 0.0767015 0)
(2.87172 0.0709179 0)
(2.86727 0.0617937 0)
(2.86964 0.0512577 0)
(2.87224 0.0528205 0)
(2.8799 0.0603747 0)
(2.88125 0.0604363 0)
(2.88013 0.0543442 0)
(2.88219 0.0528037 0)
(2.88486 0.0557718 0)
(2.89182 0.0576715 0)
(2.89458 0.0532364 0)
(2.89999 0.0465848 0)
(2.90322 0.0439083 0)
(2.9078 0.040952 0)
(2.9093 0.0374978 0)
(2.91202 0.0289346 0)
(3.13403 -1.18209 0)
(3.13343 -1.18176 0)
(3.13264 -1.18166 0)
(3.13184 -1.18144 0)
(3.13116 -1.18089 0)
(3.12997 -1.18106 0)
(3.12909 -1.18069 0)
(3.12787 -1.18084 0)
(3.12658 -1.18066 0)
(3.12585 -1.18026 0)
(3.12509 -1.17997 0)
(3.12403 -1.18028 0)
(3.12337 -1.17986 0)
(3.12238 -1.1801 0)
(3.12171 -1.17965 0)
(3.12087 -1.1803 0)
(3.11606 -1.17098 0)
(3.09767 -1.12546 0)
(3.07171 -1.04168 0)
(3.0317 -0.896343 0)
(2.9974 -0.739684 0)
(2.95694 -0.544287 0)
(2.93897 -0.408917 0)
(2.90042 -0.220064 0)
(2.90004 -0.166151 0)
(2.86971 -0.01987 0)
(2.86695 -0.0299503 0)
(2.86063 0.00198855 0)
(2.86153 0.031354 0)
(2.86387 0.0349031 0)
(2.8622 0.0427325 0)
(2.8591 0.0599927 0)
(2.85568 0.0649577 0)
(2.84774 0.0627684 0)
(2.84153 0.051886 0)
(2.84398 0.0429356 0)
(2.85187 0.0454346 0)
(2.85646 0.0509959 0)
(2.85982 0.0523943 0)
(2.85754 0.0476252 0)
(2.85675 0.041586 0)
(2.85877 0.0442881 0)
(2.86353 0.0500951 0)
(2.86973 0.0502124 0)
(2.87173 0.0464441 0)
(2.87653 0.0409945 0)
(2.88048 0.0422426 0)
(2.88715 0.0414177 0)
(2.88847 0.0369142 0)
(2.89174 0.0262934 0)
(3.12367 -1.18089 0)
(3.12311 -1.18095 0)
(3.12265 -1.1807 0)
(3.12202 -1.18073 0)
(3.1215 -1.18041 0)
(3.12082 -1.18035 0)
(3.12012 -1.18035 0)
(3.11953 -1.18015 0)
(3.11878 -1.18024 0)
(3.11819 -1.17985 0)
(3.11717 -1.18014 0)
(3.11652 -1.18011 0)
(3.11614 -1.17988 0)
(3.11581 -1.17987 0)
(3.11571 -1.18015 0)
(3.11561 -1.17979 0)
(3.11574 -1.17942 0)
(3.11574 -1.17917 0)
(3.1157 -1.17891 0)
(3.11603 -1.17835 0)
(3.11612 -1.17794 0)
(3.11469 -1.17316 0)
(3.10354 -1.14069 0)
(3.07051 -1.03292 0)
(3.03377 -0.890735 0)
(2.96095 -0.599871 0)
(2.94881 -0.445757 0)
(2.87526 -0.151286 0)
(2.86273 -0.0290522 0)
(2.85956 0.0542877 0)
(2.82581 0.118704 0)
(2.82381 0.109277 0)
(2.83086 0.0738709 0)
(2.83503 0.0565004 0)
(2.83731 0.0440996 0)
(2.84166 0.0450859 0)
(2.84748 0.0549486 0)
(2.84676 0.0624232 0)
(2.84436 0.0586548 0)
(2.83695 0.0484374 0)
(2.83769 0.0496414 0)
(2.84135 0.0561379 0)
(2.84972 0.0603382 0)
(2.85031 0.0548756 0)
(2.85297 0.0471849 0)
(2.8578 0.0443811 0)
(2.86262 0.0435038 0)
(2.87078 0.0377736 0)
(2.87239 0.0357675 0)
(2.87721 0.0275525 0)
(3.11822 -1.1787 0)
(3.11788 -1.17892 0)
(3.11769 -1.17877 0)
(3.11752 -1.17866 0)
(3.11729 -1.17876 0)
(3.11716 -1.17842 0)
(3.11681 -1.17847 0)
(3.11649 -1.17856 0)
(3.11626 -1.17826 0)
(3.11605 -1.17797 0)
(3.11571 -1.17802 0)
(3.11562 -1.17803 0)
(3.11565 -1.178 0)
(3.11574 -1.17801 0)
(3.11591 -1.17816 0)
(3.11623 -1.17807 0)
(3.11633 -1.17783 0)
(3.11629 -1.17784 0)
(3.11648 -1.1776 0)
(3.11661 -1.17749 0)
(3.11648 -1.17765 0)
(3.11641 -1.1773 0)
(3.11643 -1.17598 0)
(3.11614 -1.17582 0)
(3.11544 -1.17545 0)
(3.11499 -1.17583 0)
(3.10669 -1.15117 0)
(3.06499 -1.01826 0)
(3.02172 -0.822734 0)
(2.95313 -0.488704 0)
(2.94242 -0.31779 0)
(2.87718 -0.107364 0)
(2.88461 -0.0526278 0)
(2.85569 0.00527703 0)
(2.84921 0.0266583 0)
(2.84639 0.0442802 0)
(2.83756 0.0647539 0)
(2.83218 0.0640734 0)
(2.82456 0.048586 0)
(2.82381 0.0410931 0)
(2.82765 0.0441848 0)
(2.8337 0.0557155 0)
(2.84003 0.0562315 0)
(2.84081 0.0506991 0)
(2.84338 0.0432045 0)
(2.84768 0.044048 0)
(2.85471 0.0455964 0)
(2.86024 0.0418512 0)
(2.86514 0.0356011 0)
(2.87007 0.0251805 0)
(3.11621 -1.17748 0)
(3.11618 -1.1777 0)
(3.11613 -1.17799 0)
(3.11609 -1.17801 0)
(3.11603 -1.178 0)
(3.11594 -1.17821 0)
(3.11589 -1.17843 0)
(3.11585 -1.17831 0)
(3.11582 -1.17801 0)
(3.11583 -1.17785 0)
(3.11576 -1.17786 0)
(3.11574 -1.17788 0)
(3.1158 -1.17773 0)
(3.11589 -1.17788 0)
(3.11616 -1.17806 0)
(3.11651 -1.17787 0)
(3.11656 -1.17776 0)
(3.11649 -1.17786 0)
(3.11678 -1.17751 0)
(3.11695 -1.17785 0)
(3.11687 -1.17806 0)
(3.11683 -1.17746 0)
(3.11663 -1.17741 0)
(3.11575 -1.17706 0)
(3.11348 -1.17722 0)
(3.11325 -1.17701 0)
(3.11357 -1.17691 0)
(3.11544 -1.17736 0)
(3.11763 -1.17773 0)
(3.11356 -1.16492 0)
(3.0902 -1.07245 0)
(2.99932 -0.71957 0)
(2.99104 -0.483756 0)
(2.89389 -0.0999377 0)
(2.8843 -0.0291239 0)
(2.86168 0.116035 0)
(2.82382 0.0980668 0)
(2.8176 0.0625858 0)
(2.81959 0.0429926 0)
(2.82282 0.0408047 0)
(2.83179 0.0535323 0)
(2.83552 0.0615895 0)
(2.83289 0.0564717 0)
(2.83437 0.0453395 0)
(2.83818 0.0426594 0)
(2.84272 0.0454887 0)
(2.85377 0.0438853 0)
(2.85611 0.0397319 0)
(2.86311 0.0346248 0)
(2.8671 0.0256035 0)
(3.11534 -1.17793 0)
(3.1154 -1.17787 0)
(3.11551 -1.17765 0)
(3.11566 -1.1775 0)
(3.11572 -1.17773 0)
(3.11587 -1.17819 0)
(3.11603 -1.1782 0)
(3.11615 -1.17776 0)
(3.11631 -1.17746 0)
(3.11637 -1.17738 0)
(3.11649 -1.17726 0)
(3.11662 -1.17712 0)
(3.11671 -1.17687 0)
(3.11678 -1.17692 0)
(3.11703 -1.17705 0)
(3.11715 -1.17747 0)
(3.11735 -1.17734 0)
(3.11752 -1.17752 0)
(3.11765 -1.1777 0)
(3.11764 -1.17843 0)
(3.11755 -1.17887 0)
(3.11716 -1.17965 0)
(3.11652 -1.17953 0)
(3.11416 -1.17912 0)
(3.11269 -1.17872 0)
(3.11219 -1.1789 0)
(3.11297 -1.17912 0)
(3.11534 -1.17933 0)
(3.11894 -1.17809 0)
(3.1193 -1.17572 0)
(3.11772 -1.17535 0)
(3.11715 -1.1772 0)
(3.11189 -1.15583 0)
(3.0642 -0.964673 0)
(3.01605 -0.684026 0)
(2.94075 -0.285006 0)
(2.93876 -0.170779 0)
(2.8689 -0.0290932 0)
(2.85398 0.0212536 0)
(2.84818 0.0466804 0)
(2.83546 0.0682067 0)
(2.8304 0.0637877 0)
(2.82086 0.0456745 0)
(2.82615 0.0375832 0)
(2.83313 0.0428537 0)
(2.84028 0.0481456 0)
(2.85029 0.0438381 0)
(2.85349 0.0365211 0)
(2.86045 0.0327656 0)
(2.86466 0.0246823 0)
(3.11568 -1.17712 0)
(3.11574 -1.17707 0)
(3.11594 -1.1772 0)
(3.11617 -1.17725 0)
(3.11645 -1.17733 0)
(3.11684 -1.17715 0)
(3.11704 -1.17677 0)
(3.11724 -1.17642 0)
(3.11724 -1.17615 0)
(3.11714 -1.17601 0)
(3.1171 -1.17597 0)
(3.117 -1.17595 0)
(3.11667 -1.17622 0)
(3.11663 -1.17651 0)
(3.11671 -1.17673 0)
(3.11697 -1.17722 0)
(3.11743 -1.17729 0)
(3.11804 -1.17773 0)
(3.118 -1.17845 0)
(3.11815 -1.1795 0)
(3.11818 -1.18054 0)
(3.11776 -1.18104 0)
(3.116 -1.18043 0)
(3.11374 -1.17944 0)
(3.11312 -1.1793 0)
(3.11276 -1.17966 0)
(3.11329 -1.1805 0)
(3.11593 -1.18072 0)
(3.12009 -1.1786 0)
(3.12067 -1.17512 0)
(3.11884 -1.17366 0)
(3.11811 -1.17459 0)
(3.11807 -1.1775 0)
(3.12008 -1.17785 0)
(3.11935 -1.18275 0)
(3.08636 -1.07715 0)
(3.04827 -0.782849 0)
(2.93198 -0.284114 0)
(2.94483 -0.131547 0)
(2.87064 0.106405 0)
(2.83034 0.0896462 0)
(2.82189 0.0602933 0)
(2.82376 0.0441536 0)
(2.82975 0.0422124 0)
(2.83605 0.0511455 0)
(2.84412 0.0485287 0)
(2.84613 0.0418605 0)
(2.8504 0.034299 0)
(2.85585 0.0319187 0)
(2.86025 0.0246186 0)
(3.11628 -1.17575 0)
(3.11637 -1.17578 0)
(3.11641 -1.1756 0)
(3.11645 -1.17524 0)
(3.11641 -1.17524 0)
(3.11642 -1.17506 0)
(3.11656 -1.17449 0)
(3.11666 -1.17412 0)
(3.11635 -1.17433 0)
(3.11629 -1.17469 0)
(3.11642 -1.17463 0)
(3.11659 -1.17455 0)
(3.11582 -1.17521 0)
(3.11571 -1.17606 0)
(3.11629 -1.17668 0)
(3.11695 -1.17705 0)
(3.11783 -1.17721 0)
(3.11875 -1.17722 0)
(3.1191 -1.17791 0)
(3.11863 -1.17954 0)
(3.1184 -1.18043 0)
(3.11803 -1.1807 0)
(3.11527 -1.17973 0)
(3.11428 -1.17929 0)
(3.1134 -1.17924 0)
(3.11321 -1.18049 0)
(3.11392 -1.18187 0)
(3.11816 -1.18197 0)
(3.12245 -1.17893 0)
(3.12215 -1.17421 0)
(3.11906 -1.1733 0)
(3.11758 -1.17693 0)
(3.11758 -1.17954 0)
(3.119 -1.17982 0)
(3.11803 -1.18087 0)
(3.11229 -1.18378 0)
(3.11053 -1.18449 0)
(3.09302 -1.12448 0)
(3.0509 -0.836453 0)
(2.95857 -0.353217 0)
(2.94081 -0.18068 0)
(2.87735 -0.0209219 0)
(2.8516 0.0307864 0)
(2.85023 0.0489087 0)
(2.84539 0.0545117 0)
(2.84468 0.0453589 0)
(2.84469 0.0346072 0)
(2.84897 0.0349634 0)
(2.85482 0.0313579 0)
(2.85799 0.0220397 0)
(3.11563 -1.17422 0)
(3.11555 -1.17444 0)
(3.11547 -1.17428 0)
(3.11554 -1.17375 0)
(3.1153 -1.17375 0)
(3.11517 -1.17414 0)
(3.11521 -1.17385 0)
(3.11512 -1.17374 0)
(3.11463 -1.1743 0)
(3.1142 -1.17504 0)
(3.11417 -1.17519 0)
(3.11428 -1.17539 0)
(3.11417 -1.17663 0)
(3.11475 -1.1778 0)
(3.11586 -1.1793 0)
(3.1162 -1.17984 0)
(3.11757 -1.17969 0)
(3.11911 -1.17859 0)
(3.11914 -1.17853 0)
(3.11897 -1.17921 0)
(3.11839 -1.17918 0)
(3.11738 -1.1783 0)
(3.11635 -1.17785 0)
(3.11592 -1.17822 0)
(3.11633 -1.17957 0)
(3.11698 -1.18261 0)
(3.1186 -1.18445 0)
(3.12208 -1.18455 0)
(3.12381 -1.18052 0)
(3.12229 -1.17415 0)
(3.11846 -1.17349 0)
(3.11639 -1.18037 0)
(3.11601 -1.18241 0)
(3.11597 -1.18227 0)
(3.11251 -1.18378 0)
(3.10976 -1.18385 0)
(3.1095 -1.18404 0)
(3.10997 -1.18379 0)
(3.11296 -1.17914 0)
(3.09709 -1.11347 0)
(3.05246 -0.792196 0)
(2.93717 -0.245936 0)
(2.91568 -0.0885605 0)
(2.88549 0.105138 0)
(2.83486 0.0629002 0)
(2.84257 0.0461353 0)
(2.84964 0.0365796 0)
(2.85817 0.0357217 0)
(2.86012 0.0305778 0)
(2.86328 0.0210888 0)
(3.11345 -1.17671 0)
(3.11299 -1.17703 0)
(3.11272 -1.17781 0)
(3.11265 -1.17734 0)
(3.11272 -1.17676 0)
(3.11158 -1.17756 0)
(3.11102 -1.17836 0)
(3.11131 -1.17882 0)
(3.11142 -1.18032 0)
(3.1121 -1.18233 0)
(3.11335 -1.18292 0)
(3.11442 -1.18162 0)
(3.11529 -1.18123 0)
(3.1159 -1.18211 0)
(3.11596 -1.18251 0)
(3.11626 -1.18281 0)
(3.1169 -1.18332 0)
(3.11876 -1.18197 0)
(3.12002 -1.17901 0)
(3.11955 -1.17692 0)
(3.11892 -1.17487 0)
(3.11761 -1.17264 0)
(3.11708 -1.17434 0)
(3.11754 -1.17878 0)
(3.11862 -1.18185 0)
(3.12051 -1.18582 0)
(3.12118 -1.18734 0)
(3.12137 -1.18649 0)
(3.12205 -1.18249 0)
(3.12075 -1.1757 0)
(3.11857 -1.1759 0)
(3.11503 -1.18298 0)
(3.1112 -1.18519 0)
(3.10738 -1.18473 0)
(3.10534 -1.18303 0)
(3.10715 -1.18136 0)
(3.11014 -1.17965 0)
(3.11191 -1.17897 0)
(3.11409 -1.17676 0)
(3.11522 -1.17537 0)
(3.11421 -1.17957 0)
(3.09273 -1.09392 0)
(3.02877 -0.706929 0)
(2.94531 -0.235792 0)
(2.94497 -0.0908297 0)
(2.88233 0.0249691 0)
(2.86679 0.0350726 0)
(2.87639 0.0383932 0)
(2.87257 0.0228435 0)
(2.8767 0.0179643 0)
(3.11103 -1.18568 0)
(3.11153 -1.18572 0)
(3.11219 -1.18596 0)
(3.1123 -1.18721 0)
(3.11299 -1.18748 0)
(3.11325 -1.18796 0)
(3.11395 -1.18908 0)
(3.11417 -1.19018 0)
(3.11479 -1.19097 0)
(3.11524 -1.19121 0)
(3.11556 -1.19116 0)
(3.11649 -1.19081 0)
(3.11737 -1.19002 0)
(3.11821 -1.18785 0)
(3.11808 -1.18731 0)
(3.11816 -1.18768 0)
(3.11896 -1.18768 0)
(3.11931 -1.18564 0)
(3.11854 -1.1804 0)
(3.11791 -1.17431 0)
(3.11644 -1.17106 0)
(3.11513 -1.17051 0)
(3.11757 -1.17452 0)
(3.1174 -1.17903 0)
(3.11881 -1.18304 0)
(3.12097 -1.1867 0)
(3.12147 -1.18775 0)
(3.12049 -1.18614 0)
(3.11961 -1.18135 0)
(3.11628 -1.17884 0)
(3.1122 -1.18121 0)
(3.11029 -1.18665 0)
(3.10427 -1.18611 0)
(3.10147 -1.1843 0)
(3.1008 -1.18274 0)
(3.1075 -1.17784 0)
(3.11211 -1.17314 0)
(3.11552 -1.17095 0)
(3.11895 -1.16677 0)
(3.11927 -1.16973 0)
(3.11652 -1.17389 0)
(3.11491 -1.16689 0)
(3.11807 -1.1581 0)
(3.08133 -0.986107 0)
(3.05443 -0.568891 0)
(2.93834 -0.0757323 0)
(2.91206 -0.0199312 0)
(2.8991 0.0367228 0)
(2.88778 0.0259584 0)
(2.89525 0.0239284 0)
(3.11578 -1.18736 0)
(3.1177 -1.18902 0)
(3.11871 -1.18952 0)
(3.11957 -1.18988 0)
(3.12023 -1.19133 0)
(3.12022 -1.19232 0)
(3.12084 -1.19274 0)
(3.12207 -1.19359 0)
(3.12326 -1.19398 0)
(3.12346 -1.1938 0)
(3.12362 -1.19296 0)
(3.12304 -1.19205 0)
(3.12306 -1.19054 0)
(3.1234 -1.1872 0)
(3.12274 -1.18467 0)
(3.12128 -1.18525 0)
(3.11979 -1.18562 0)
(3.11964 -1.18137 0)
(3.11805 -1.1739 0)
(3.1166 -1.16902 0)
(3.1148 -1.16732 0)
(3.11457 -1.16914 0)
(3.11772 -1.17241 0)
(3.11726 -1.17813 0)
(3.11808 -1.18418 0)
(3.1202 -1.18855 0)
(3.11416 -1.18092 0)
(3.10514 -1.17557 0)
(3.09896 -1.17341 0)
(3.10125 -1.17459 0)
(3.10503 -1.18241 0)
(3.11072 -1.18677 0)
(3.10959 -1.17868 0)
(3.11014 -1.17047 0)
(3.11017 -1.16601 0)
(3.12055 -1.1557 0)
(3.12394 -1.14959 0)
(3.12183 -1.14979 0)
(3.11919 -1.14965 0)
(3.1175 -1.15771 0)
(3.11932 -1.15434 0)
(3.12063 -1.14118 0)
(3.12668 -1.12912 0)
(3.12805 -1.1294 0)
(3.12717 -1.12109 0)
(3.07867 -0.864576 0)
(2.99864 -0.383708 0)
(2.93258 -0.11415 0)
(2.92768 -0.00983818 0)
(2.90888 0.0267122 0)
(3.12464 -1.19325 0)
(3.12515 -1.19354 0)
(3.12566 -1.19381 0)
(3.12618 -1.1939 0)
(3.12673 -1.19405 0)
(3.12742 -1.1945 0)
(3.12877 -1.19501 0)
(3.12959 -1.19531 0)
(3.1295 -1.19513 0)
(3.12913 -1.19403 0)
(3.12827 -1.1938 0)
(3.12696 -1.19091 0)
(3.12343 -1.18693 0)
(3.12271 -1.1831 0)
(3.12349 -1.17891 0)
(3.12181 -1.17502 0)
(3.11943 -1.17183 0)
(3.11954 -1.16364 0)
(3.11453 -1.1562 0)
(3.1108 -1.15405 0)
(3.1085 -1.155 0)
(3.10776 -1.15958 0)
(3.10818 -1.16608 0)
(3.11009 -1.1741 0)
(3.11055 -1.18054 0)
(3.10771 -1.18021 0)
(3.10174 -1.16912 0)
(3.09602 -1.15828 0)
(3.09754 -1.15738 0)
(3.10685 -1.16014 0)
(3.11171 -1.16081 0)
(3.12087 -1.15618 0)
(3.12253 -1.15342 0)
(3.12339 -1.1478 0)
(3.12319 -1.14398 0)
(3.12272 -1.13759 0)
(3.12114 -1.136 0)
(3.11732 -1.13829 0)
(3.11371 -1.14034 0)
(3.12275 -1.12835 0)
(3.12602 -1.11412 0)
(3.12991 -1.10636 0)
(3.13222 -1.10169 0)
(3.13225 -1.09716 0)
(3.13033 -1.08773 0)
(3.12854 -1.08316 0)
(3.11231 -1.00406 0)
(3.03298 -0.630912 0)
(2.99499 -0.265457 0)
(2.93894 -0.0412112 0)
(3.11868 -1.14028 0)
(3.11839 -1.13988 0)
(3.11771 -1.14126 0)
(3.118 -1.13992 0)
(3.1185 -1.13968 0)
(3.11912 -1.14037 0)
(3.11999 -1.13896 0)
(3.11994 -1.13896 0)
(3.11873 -1.14038 0)
(3.11765 -1.13942 0)
(3.11561 -1.1388 0)
(3.11356 -1.13977 0)
(3.11308 -1.1389 0)
(3.11238 -1.13913 0)
(3.11147 -1.13987 0)
(3.11148 -1.13873 0)
(3.11218 -1.13051 0)
(3.11198 -1.12687 0)
(3.1105 -1.1251 0)
(3.10842 -1.12261 0)
(3.10931 -1.13125 0)
(3.10903 -1.13968 0)
(3.11127 -1.14375 0)
(3.1183 -1.1433 0)
(3.12057 -1.14053 0)
(3.1194 -1.13984 0)
(3.11593 -1.1385 0)
(3.1135 -1.13505 0)
(3.11583 -1.12952 0)
(3.11688 -1.12799 0)
(3.11745 -1.12758 0)
(3.12314 -1.11937 0)
(3.12775 -1.11027 0)
(3.13177 -1.10652 0)
(3.12958 -1.10955 0)
(3.12332 -1.1109 0)
(3.12188 -1.09884 0)
(3.12307 -1.0993 0)
(3.12538 -1.08819 0)
(3.13142 -1.07309 0)
(3.13477 -1.06767 0)
(3.13513 -1.06754 0)
(3.13523 -1.06448 0)
(3.13324 -1.05137 0)
(3.12904 -1.04647 0)
(3.12849 -1.03426 0)
(3.1357 -1.03831 0)
(3.13739 -1.02781 0)
(3.11284 -0.903803 0)
(2.98903 -0.265164 0)
(3.10745 -1.14704 0)
(3.10816 -1.14904 0)
(3.10916 -1.15005 0)
(3.11254 -1.15257 0)
(3.11461 -1.15327 0)
(3.11558 -1.15136 0)
(3.11529 -1.14914 0)
(3.11438 -1.14726 0)
(3.1136 -1.14564 0)
(3.11266 -1.14493 0)
(3.11137 -1.14426 0)
(3.10815 -1.14303 0)
(3.10393 -1.14435 0)
(3.10315 -1.14662 0)
(3.10379 -1.14734 0)
(3.10221 -1.14499 0)
(3.10091 -1.13876 0)
(3.10502 -1.12734 0)
(3.10799 -1.123 0)
(3.10906 -1.12236 0)
(3.1149 -1.11923 0)
(3.11701 -1.11756 0)
(3.11924 -1.11872 0)
(3.12131 -1.11925 0)
(3.12708 -1.11327 0)
(3.13183 -1.10384 0)
(3.13692 -1.08857 0)
(3.13938 -1.07698 0)
(3.1379 -1.07462 0)
(3.13174 -1.07432 0)
(3.12394 -1.06775 0)
(3.11781 -1.06449 0)
(3.11837 -1.06222 0)
(3.12733 -1.05177 0)
(3.132 -1.05173 0)
(3.12964 -1.05659 0)
(3.1289 -1.05269 0)
(3.13179 -1.04444 0)
(3.13568 -1.03717 0)
(3.13853 -1.03517 0)
(3.13795 -1.02232 0)
(3.13793 -1.01866 0)
(3.13624 -1.00652 0)
(3.13091 -1.00406 0)
(3.12895 -1.00245 0)
(3.13269 -0.993481 0)
(3.1352 -0.982574 0)
(3.13878 -0.973507 0)
(3.13665 -0.980288 0)
(3.10955 -0.820359 0)
(3.12815 -1.02332 0)
(3.12889 -1.02372 0)
(3.12917 -1.02533 0)
(3.13024 -1.02703 0)
(3.13536 -1.02416 0)
(3.13377 -1.01239 0)
(3.13025 -0.997032 0)
(3.13211 -0.991723 0)
(3.13227 -0.977098 0)
(3.12793 -0.962435 0)
(3.12906 -0.960894 0)
(3.12983 -0.963506 0)
(3.13101 -0.969332 0)
(3.12915 -0.975493 0)
(3.12895 -0.975782 0)
(3.12963 -0.981739 0)
(3.13242 -0.992835 0)
(3.13373 -0.995556 0)
(3.13213 -1.00397 0)
(3.13416 -1.01352 0)
(3.13568 -1.01525 0)
(3.129 -1.00099 0)
(3.12642 -0.993393 0)
(3.12421 -0.993016 0)
(3.12339 -0.991285 0)
(3.1267 -0.983596 0)
(3.13469 -0.979753 0)
(3.13807 -0.982004 0)
(3.13749 -0.985207 0)
(3.13722 -0.989693 0)
(3.13511 -0.988985 0)
(3.12956 -0.990965 0)
(3.12738 -0.996539 0)
(3.13067 -0.995637 0)
(3.13766 -0.989118 0)
(3.13901 -0.987252 0)
(3.1415 -0.983209 0)
(3.14247 -0.978238 0)
(3.14297 -0.973689 0)
(3.14 -0.960754 0)
(3.13849 -0.956054 0)
(3.13439 -0.955691 0)
(3.13284 -0.953228 0)
(3.13163 -0.961138 0)
(3.13578 -0.953636 0)
(3.13848 -0.947542 0)
(3.14038 -0.941494 0)
(3.1389 -0.938552 0)
(3.13497 -0.94092 0)
(3.13298 -0.933542 0)
(3.13395 -0.959633 0)
(3.13342 -0.960937 0)
(3.12993 -0.964704 0)
(3.12923 -0.966673 0)
(3.12886 -0.9686 0)
(3.12795 -0.971004 0)
(3.12745 -0.971013 0)
(3.12726 -0.970706 0)
(3.1279 -0.968386 0)
(3.13012 -0.96707 0)
(3.13087 -0.967377 0)
(3.13153 -0.971507 0)
(3.13352 -0.976811 0)
(3.13595 -0.977149 0)
(3.13623 -0.974278 0)
(3.13649 -0.970312 0)
(3.13551 -0.963074 0)
(3.13551 -0.951388 0)
(3.138 -0.945287 0)
(3.13998 -0.937752 0)
(3.1378 -0.935359 0)
(3.13235 -0.939762 0)
(3.13221 -0.942721 0)
(3.13379 -0.947796 0)
(3.13142 -0.955659 0)
(3.13126 -0.962868 0)
(3.13232 -0.964699 0)
(3.12959 -0.963172 0)
(3.12937 -0.959362 0)
(3.13328 -0.953318 0)
(3.13953 -0.943921 0)
(3.14249 -0.94008 0)
(3.14557 -0.937303 0)
(3.14364 -0.934627 0)
(3.14488 -0.925333 0)
(3.14288 -0.920942 0)
(3.14217 -0.909947 0)
(3.14177 -0.906172 0)
(3.13964 -0.90447 0)
(3.13451 -0.91136 0)
(3.13316 -0.911355 0)
(3.13074 -0.921613 0)
(3.13543 -0.917805 0)
(3.13943 -0.912345 0)
(3.14166 -0.907233 0)
(3.14315 -0.894577 0)
(3.14042 -0.892727 0)
(3.13501 -0.892835 0)
(3.13248 -0.895438 0)
(3.13437 -0.88943 0)
(3.14039 -0.848711 0)
(3.13983 -0.847585 0)
(3.13931 -0.847513 0)
(3.1394 -0.846654 0)
(3.14048 -0.844358 0)
(3.14005 -0.841295 0)
(3.13995 -0.840077 0)
(3.14043 -0.840532 0)
(3.14124 -0.840557 0)
(3.14179 -0.839783 0)
(3.14211 -0.836895 0)
(3.1409 -0.834263 0)
(3.14067 -0.836815 0)
(3.14005 -0.840334 0)
(3.14003 -0.842921 0)
(3.13949 -0.845984 0)
(3.13858 -0.848742 0)
(3.13734 -0.852933 0)
(3.13871 -0.857253 0)
(3.14098 -0.858274 0)
(3.14163 -0.857844 0)
(3.14243 -0.858109 0)
(3.1448 -0.855813 0)
(3.15044 -0.845205 0)
(3.15034 -0.832837 0)
(3.1445 -0.824003 0)
(3.1405 -0.818891 0)
(3.14215 -0.820574 0)
(3.14133 -0.825014 0)
(3.14144 -0.832483 0)
(3.14244 -0.835283 0)
(3.1416 -0.830256 0)
(3.14149 -0.823404 0)
(3.14072 -0.825004 0)
(3.13916 -0.83068 0)
(3.13829 -0.833276 0)
(3.13435 -0.840738 0)
(3.13516 -0.845533 0)
(3.13399 -0.85295 0)
(3.13723 -0.853787 0)
(3.13809 -0.852971 0)
(3.14097 -0.849301 0)
(3.14334 -0.843344 0)
(3.14433 -0.837535 0)
(3.14111 -0.830975 0)
(3.13773 -0.83406 0)
(3.13338 -0.839808 0)
(3.13243 -0.844981 0)
(3.13451 -0.843732 0)
(3.1374 -0.840485 0)
(3.13983 -0.748396 0)
(3.13923 -0.747957 0)
(3.13953 -0.748209 0)
(3.13974 -0.748305 0)
(3.13976 -0.749057 0)
(3.13948 -0.751165 0)
(3.13988 -0.752253 0)
(3.13982 -0.751741 0)
(3.1396 -0.750599 0)
(3.13973 -0.750139 0)
(3.14008 -0.750975 0)
(3.13979 -0.752527 0)
(3.14015 -0.75369 0)
(3.14069 -0.753366 0)
(3.14071 -0.752119 0)
(3.14038 -0.751711 0)
(3.14064 -0.751385 0)
(3.1415 -0.750021 0)
(3.14167 -0.749215 0)
(3.14074 -0.749421 0)
(3.13978 -0.749995 0)
(3.13858 -0.751427 0)
(3.13789 -0.753884 0)
(3.13836 -0.756129 0)
(3.13754 -0.763519 0)
(3.1361 -0.770278 0)
(3.13655 -0.771513 0)
(3.14014 -0.770093 0)
(3.14091 -0.768271 0)
(3.13944 -0.767173 0)
(3.13769 -0.767717 0)
(3.1347 -0.772309 0)
(3.13506 -0.780569 0)
(3.13564 -0.784853 0)
(3.1359 -0.784267 0)
(3.13691 -0.784044 0)
(3.13819 -0.785479 0)
(3.13961 -0.78339 0)
(3.13937 -0.783174 0)
(3.1423 -0.775659 0)
(3.14145 -0.775213 0)
(3.14232 -0.765314 0)
(3.13804 -0.767264 0)
(3.13604 -0.771543 0)
(3.13383 -0.778712 0)
(3.13134 -0.791633 0)
(3.13257 -0.793784 0)
(3.13557 -0.793842 0)
(3.13825 -0.788476 0)
(3.13817 -0.787656 0)
(3.13503 -0.639341 0)
(3.13549 -0.641495 0)
(3.13481 -0.643859 0)
(3.13465 -0.644482 0)
(3.13493 -0.643943 0)
(3.13489 -0.642408 0)
(3.13403 -0.641474 0)
(3.13481 -0.642568 0)
(3.13471 -0.644402 0)
(3.13419 -0.645759 0)
(3.13474 -0.645094 0)
(3.13483 -0.644739 0)
(3.13489 -0.645782 0)
(3.13469 -0.646054 0)
(3.13468 -0.647503 0)
(3.13465 -0.649031 0)
(3.13464 -0.649788 0)
(3.1349 -0.651342 0)
(3.13488 -0.652433 0)
(3.1349 -0.654166 0)
(3.135 -0.656229 0)
(3.13531 -0.656539 0)
(3.13551 -0.657925 0)
(3.13538 -0.659679 0)
(3.1359 -0.658092 0)
(3.13506 -0.655666 0)
(3.1341 -0.657903 0)
(3.13484 -0.662908 0)
(3.13417 -0.667526 0)
(3.13314 -0.671721 0)
(3.13532 -0.670088 0)
(3.13655 -0.666233 0)
(3.13617 -0.665234 0)
(3.13473 -0.670081 0)
(3.13412 -0.67124 0)
(3.13424 -0.672667 0)
(3.135 -0.670434 0)
(3.13519 -0.673516 0)
(3.13236 -0.675411 0)
(3.13314 -0.680885 0)
(3.13142 -0.688293 0)
(3.13121 -0.698441 0)
(3.13232 -0.707323 0)
(3.13322 -0.717989 0)
(3.13248 -0.724423 0)
(3.13367 -0.727594 0)
(3.13666 -0.723624 0)
(3.13686 -0.728082 0)
(3.13367 -0.722545 0)
(3.13527 -0.735256 0)
(3.12623 -0.559398 0)
(3.12653 -0.559376 0)
(3.12681 -0.558914 0)
(3.12672 -0.557703 0)
(3.12652 -0.557613 0)
(3.12661 -0.558683 0)
(3.12665 -0.560112 0)
(3.12594 -0.561394 0)
(3.12593 -0.561108 0)
(3.12582 -0.560798 0)
(3.12612 -0.562092 0)
(3.12616 -0.562747 0)
(3.12625 -0.563038 0)
(3.12633 -0.56395 0)
(3.12617 -0.564527 0)
(3.12618 -0.565511 0)
(3.12624 -0.566385 0)
(3.12621 -0.56698 0)
(3.12621 -0.568303 0)
(3.12625 -0.568947 0)
(3.12645 -0.570223 0)
(3.12668 -0.571655 0)
(3.12681 -0.572575 0)
(3.12705 -0.574452 0)
(3.12724 -0.576959 0)
(3.1273 -0.578578 0)
(3.12746 -0.580697 0)
(3.12748 -0.583761 0)
(3.12747 -0.585211 0)
(3.1268 -0.584734 0)
(3.12705 -0.588706 0)
(3.12756 -0.595722 0)
(3.12755 -0.599471 0)
(3.12757 -0.599005 0)
(3.12878 -0.60427 0)
(3.12927 -0.611456 0)
(3.12879 -0.616019 0)
(3.12861 -0.620328 0)
(3.12897 -0.627777 0)
(3.12901 -0.634301 0)
(3.12938 -0.63953 0)
(3.13009 -0.644219 0)
(3.13063 -0.649326 0)
(3.13159 -0.650064 0)
(3.13202 -0.652908 0)
(3.1322 -0.650772 0)
(3.13235 -0.656106 0)
(3.12808 -0.660224 0)
(3.13118 -0.673555 0)
(3.13241 -0.683589 0)
(3.11921 -0.518007 0)
(3.11926 -0.517479 0)
(3.11925 -0.517115 0)
(3.11941 -0.516431 0)
(3.11922 -0.515514 0)
(3.11976 -0.515892 0)
(3.11989 -0.51668 0)
(3.11985 -0.516918 0)
(3.1194 -0.517975 0)
(3.11914 -0.518431 0)
(3.11924 -0.518899 0)
(3.11956 -0.519348 0)
(3.1197 -0.519575 0)
(3.11971 -0.519886 0)
(3.11966 -0.520491 0)
(3.11948 -0.521205 0)
(3.11924 -0.521511 0)
(3.11909 -0.521846 0)
(3.119 -0.522167 0)
(3.11893 -0.522548 0)
(3.11898 -0.522837 0)
(3.11921 -0.522856 0)
(3.11957 -0.52313 0)
(3.12011 -0.524107 0)
(3.12044 -0.524912 0)
(3.1207 -0.525058 0)
(3.12108 -0.525665 0)
(3.1215 -0.527291 0)
(3.12151 -0.528648 0)
(3.12138 -0.530877 0)
(3.12122 -0.532347 0)
(3.121 -0.533101 0)
(3.12097 -0.535171 0)
(3.12118 -0.53721 0)
(3.12176 -0.538526 0)
(3.12272 -0.541948 0)
(3.12307 -0.545085 0)
(3.12306 -0.547546 0)
(3.12302 -0.549964 0)
(3.12313 -0.554318 0)
(3.12332 -0.55713 0)
(3.12385 -0.562011 0)
(3.12394 -0.565286 0)
(3.12443 -0.573049 0)
(3.1242 -0.577833 0)
(3.12544 -0.588665 0)
(3.12601 -0.596454 0)
(3.12733 -0.608604 0)
(3.1288 -0.615375 0)
(3.13062 -0.625692 0)
(3.11749 -0.511413 0)
(3.11738 -0.511244 0)
(3.11744 -0.511132 0)
(3.11752 -0.510847 0)
(3.1175 -0.5106 0)
(3.1177 -0.510674 0)
(3.1178 -0.510921 0)
(3.11774 -0.511043 0)
(3.11771 -0.511053 0)
(3.11761 -0.511082 0)
(3.11759 -0.511209 0)
(3.11758 -0.511382 0)
(3.11757 -0.511546 0)
(3.11763 -0.511563 0)
(3.11766 -0.51145 0)
(3.11759 -0.511168 0)
(3.1174 -0.510963 0)
(3.11732 -0.510878 0)
(3.11727 -0.510921 0)
(3.11715 -0.510975 0)
(3.11706 -0.51093 0)
(3.11702 -0.510893 0)
(3.11713 -0.511104 0)
(3.1173 -0.511719 0)
(3.1175 -0.512034 0)
(3.11768 -0.512061 0)
(3.1179 -0.512018 0)
(3.11812 -0.512058 0)
(3.1184 -0.512348 0)
(3.11864 -0.512543 0)
(3.11869 -0.512918 0)
(3.11848 -0.513467 0)
(3.11806 -0.513787 0)
(3.11748 -0.513754 0)
(3.11729 -0.514522 0)
(3.11806 -0.516151 0)
(3.11874 -0.517619 0)
(3.11895 -0.51824 0)
(3.11911 -0.519543 0)
(3.11906 -0.521478 0)
(3.11911 -0.524562 0)
(3.1193 -0.526285 0)
(3.12 -0.530044 0)
(3.12053 -0.532852 0)
(3.12111 -0.537734 0)
(3.12199 -0.541428 0)
(3.12314 -0.546609 0)
(3.12432 -0.551882 0)
(3.12489 -0.556154 0)
(3.12571 -0.569547 0)
(3.1157 -0.506898 0)
(3.1159 -0.506619 0)
(3.11582 -0.506264 0)
(3.11572 -0.506076 0)
(3.11567 -0.506024 0)
(3.11555 -0.506009 0)
(3.11547 -0.505958 0)
(3.11549 -0.505842 0)
(3.11558 -0.505827 0)
(3.11572 -0.505966 0)
(3.11599 -0.506066 0)
(3.1163 -0.506111 0)
(3.11669 -0.506092 0)
(3.11715 -0.506038 0)
(3.11767 -0.505979 0)
(3.11819 -0.505619 0)
(3.11835 -0.505388 0)
(3.11855 -0.505118 0)
(3.11858 -0.504984 0)
(3.11826 -0.505308 0)
(3.11758 -0.506154 0)
(3.11651 -0.50732 0)
(3.11553 -0.507989 0)
(3.11495 -0.507915 0)
(3.11482 -0.507376 0)
(3.11495 -0.507011 0)
(3.11503 -0.507072 0)
(3.1154 -0.507586 0)
(3.11652 -0.50836 0)
(3.11782 -0.50835 0)
(3.11827 -0.507717 0)
(3.11823 -0.507504 0)
(3.1178 -0.507674 0)
(3.11679 -0.508947 0)
(3.11622 -0.509733 0)
(3.1163 -0.509609 0)
(3.11689 -0.509354 0)
(3.11762 -0.509749 0)
(3.11783 -0.510105 0)
(3.11788 -0.510779 0)
(3.11782 -0.511185 0)
(3.11802 -0.511242 0)
(3.11849 -0.511975 0)
(3.119 -0.512401 0)
(3.11951 -0.513525 0)
(3.11991 -0.514151 0)
(3.1204 -0.516536 0)
(3.12047 -0.518225 0)
(3.12072 -0.522481 0)
(3.1207 -0.530321 0)
(3.11353 -0.502844 0)
(3.11354 -0.503059 0)
(3.11441 -0.503927 0)
(3.11476 -0.505426 0)
(3.11427 -0.506706 0)
(3.11385 -0.50828 0)
(3.11404 -0.510329 0)
(3.11427 -0.511378 0)
(3.11457 -0.511582 0)
(3.11533 -0.512182 0)
(3.11608 -0.513273 0)
(3.11623 -0.513812 0)
(3.11633 -0.514261 0)
(3.11702 -0.514693 0)
(3.11791 -0.514499 0)
(3.11815 -0.514113 0)
(3.11822 -0.51286 0)
(3.11899 -0.51125 0)
(3.11984 -0.507529 0)
(3.11878 -0.503504 0)
(3.11727 -0.502118 0)
(3.11609 -0.501274 0)
(3.11539 -0.500988 0)
(3.11595 -0.502454 0)
(3.11682 -0.503855 0)
(3.11717 -0.506011 0)
(3.11639 -0.507576 0)
(3.11629 -0.511483 0)
(3.11633 -0.512655 0)
(3.11553 -0.510976 0)
(3.11564 -0.506965 0)
(3.11694 -0.50604 0)
(3.1182 -0.50725 0)
(3.11846 -0.50929 0)
(3.11775 -0.510322 0)
(3.11713 -0.509623 0)
(3.11653 -0.508886 0)
(3.1172 -0.508879 0)
(3.11792 -0.50921 0)
(3.11823 -0.509335 0)
(3.11837 -0.509365 0)
(3.11862 -0.508656 0)
(3.11883 -0.508877 0)
(3.11899 -0.508885 0)
(3.1192 -0.509132 0)
(3.11885 -0.508681 0)
(3.11861 -0.51006 0)
(3.11858 -0.510938 0)
(3.11839 -0.513334 0)
(3.11832 -0.515428 0)
(3.11766 -0.489308 0)
(3.11718 -0.485839 0)
(3.11607 -0.482617 0)
(3.11592 -0.482032 0)
(3.11599 -0.481741 0)
(3.11652 -0.478596 0)
(3.11706 -0.474817 0)
(3.11669 -0.473356 0)
(3.11672 -0.472812 0)
(3.11556 -0.472474 0)
(3.11429 -0.472516 0)
(3.11251 -0.473803 0)
(3.11236 -0.476289 0)
(3.11267 -0.479356 0)
(3.11248 -0.480827 0)
(3.11306 -0.484189 0)
(3.1128 -0.485909 0)
(3.11239 -0.486228 0)
(3.11205 -0.487501 0)
(3.1125 -0.490651 0)
(3.11236 -0.493453 0)
(3.11488 -0.498348 0)
(3.11527 -0.502571 0)
(3.11695 -0.504729 0)
(3.11798 -0.504561 0)
(3.11964 -0.500499 0)
(3.11909 -0.489106 0)
(3.11619 -0.484045 0)
(3.11396 -0.48367 0)
(3.11388 -0.486969 0)
(3.11314 -0.49246 0)
(3.11512 -0.499613 0)
(3.11795 -0.500617 0)
(3.1169 -0.494835 0)
(3.11541 -0.490754 0)
(3.11547 -0.493083 0)
(3.11564 -0.496477 0)
(3.11548 -0.496437 0)
(3.11537 -0.495722 0)
(3.11568 -0.496279 0)
(3.11588 -0.496957 0)
(3.11559 -0.497172 0)
(3.11561 -0.49836 0)
(3.11566 -0.499755 0)
(3.11598 -0.501473 0)
(3.11659 -0.503345 0)
(3.11699 -0.505519 0)
(3.11836 -0.507622 0)
(3.1186 -0.509224 0)
(3.12009 -0.509669 0)
(3.10861 -0.448424 0)
(3.10863 -0.448256 0)
(3.10879 -0.446659 0)
(3.10905 -0.44519 0)
(3.10991 -0.444612 0)
(3.1106 -0.444328 0)
(3.11006 -0.445048 0)
(3.10992 -0.447446 0)
(3.11018 -0.451176 0)
(3.10898 -0.453323 0)
(3.10879 -0.456656 0)
(3.11025 -0.460093 0)
(3.11056 -0.461402 0)
(3.11136 -0.462157 0)
(3.11264 -0.463745 0)
(3.11344 -0.46328 0)
(3.11342 -0.461458 0)
(3.11275 -0.461028 0)
(3.11208 -0.459678 0)