/*--------------------------------*- C++ -*----------------------------------*\
  =========                 |
  \\      /  F ield         | OpenFOAM: The Open Source CFD Toolbox
   \\    /   O peration     | Website:  https://openfoam.org
    \\  /    A nd           | Version:  7
     \\/     M anipulation  |
\*---------------------------------------------------------------------------*/
FoamFile
{
    version     2.0;
    format      ascii;
    class       volScalarField;
    location    "6.5";
    object      T;
}
// * * * * * * * * * * * * * * * * * * * * * * * * * * * * * * * * * * * * * //

dimensions      [0 0 0 1 0 0 0];

internalField   nonuniform List<scalar> 
14400
(
0.895663
0.905252
0.91562
0.925704
0.935605
0.94504
0.954449
0.963339
0.972385
0.980689
0.98932
0.996802
1.00481
1.01108
1.01778
1.02236
1.02622
1.02912
1.02903
1.02794
1.02416
1.01942
1.01784
1.01852
1.02058
1.02276
1.02301
1.0223
1.02148
1.02121
1.02171
1.02219
1.02151
1.02033
1.02051
1.02086
1.02048
1.01995
1.01989
1.01961
0.887132
0.887613
0.888621
0.890317
0.892767
0.896171
0.900463
0.905939
0.912273
0.919963
0.928243
0.937889
0.947636
0.958371
0.968735
0.978879
0.988991
0.99657
1.00476
1.00872
1.01209
1.01599
1.01959
1.02172
1.0226
1.02218
1.02116
1.01972
1.01955
1.02039
1.02118
1.02085
1.01994
1.01925
1.01993
1.01991
1.01941
1.01919
1.0192
1.01893
0.885251
0.885196
0.885138
0.885076
0.884995
0.884948
0.884988
0.885151
0.885517
0.886253
0.887476
0.889636
0.892839
0.898064
0.904906
0.915091
0.927058
0.942428
0.958958
0.97571
0.993738
1.00488
1.01156
1.01344
1.0156
1.01523
1.01392
1.01483
1.01706
1.01841
1.01804
1.01675
1.01622
1.0171
1.01765
1.01723
1.01686
1.0171
1.01707
1.0169
0.883296
0.883216
0.883122
0.883024
0.882941
0.882863
0.882782
0.882701
0.882612
0.882502
0.882383
0.882269
0.882203
0.882292
0.882662
0.883744
0.885915
0.89069
0.89819
0.911814
0.929723
0.951248
0.973282
0.986037
0.998367
1.00133
1.00567
1.01069
1.01562
1.01553
1.01406
1.01161
1.01266
1.01477
1.01442
1.01345
1.01356
1.01412
1.01409
1.01408
0.882192
0.882123
0.882043
0.881956
0.881862
0.88176
0.881651
0.881538
0.881415
0.881278
0.881143
0.881019
0.880889
0.880858
0.880863
0.880891
0.880973
0.881204
0.881738
0.883363
0.886864
0.895925
0.910549
0.934006
0.959093
0.979896
0.998325
1.00459
1.01009
1.00984
1.00696
1.00801
1.01054
1.01216
1.01144
1.01046
1.01104
1.01156
1.01131
1.01144
0.881524
0.881499
0.881473
0.881444
0.881412
0.881373
0.881327
0.881275
0.881225
0.881173
0.881103
0.881058
0.881018
0.881021
0.88107
0.881155
0.88126
0.881401
0.881681
0.881935
0.882267
0.882916
0.884468
0.889598
0.900088
0.922096
0.948577
0.970753
0.99008
0.995948
1.00117
1.00907
1.01126
1.01037
1.00837
1.00893
1.01018
1.01002
1.00963
1.00992
0.881389
0.881417
0.881459
0.881487
0.88151
0.881537
0.881556
0.881584
0.881619
0.881622
0.88161
0.881604
0.881628
0.881682
0.881738
0.881777
0.881812
0.881893
0.882045
0.882241
0.882437
0.88274
0.88299
0.883145
0.883657
0.886365
0.894532
0.914986
0.942621
0.972725
0.99624
1.00629
1.00898
1.00619
1.00673
1.00936
1.00995
1.00915
1.00871
1.00938
0.882244
0.882316
0.882406
0.882442
0.882431
0.882389
0.882392
0.882392
0.882363
0.882303
0.88224
0.882203
0.88216
0.882085
0.881989
0.881889
0.881836
0.881827
0.881885
0.882011
0.881968
0.881948
0.881993
0.882056
0.881785
0.881389
0.88177
0.884348
0.893211
0.91541
0.94721
0.976187
0.99417
1.00079
1.0072
1.01092
1.00998
1.00785
1.00849
1.00959
0.8832
0.883196
0.883179
0.883148
0.883115
0.883072
0.883008
0.882913
0.882791
0.882676
0.882589
0.882496
0.882358
0.882158
0.88194
0.881754
0.881624
0.881567
0.881447
0.881098
0.880647
0.880566
0.880625
0.880802
0.880832
0.880713
0.880831
0.881261
0.88204
0.88497
0.895861
0.920314
0.953841
0.988788
1.00448
1.00997
1.00604
1.00699
1.00979
1.00981
0.883056
0.882985
0.882901
0.882807
0.882708
0.882603
0.882501
0.882388
0.882246
0.882093
0.881953
0.881829
0.88171
0.881517
0.881305
0.881099
0.880762
0.880564
0.880337
0.879839
0.879627
0.879686
0.879903
0.880131
0.880357
0.880768
0.881416
0.881936
0.882319
0.882355
0.88294
0.886055
0.900241
0.930602
0.964025
0.992274
0.998414
1.00831
1.01086
1.00958
0.880426
0.880345
0.880247
0.880139
0.880032
0.879963
0.8799
0.879835
0.879797
0.879764
0.879737
0.879757
0.879819
0.879837
0.879835
0.879785
0.87956
0.879476
0.879467
0.879283
0.879291
0.879537
0.879943
0.880316
0.880831
0.881322
0.881825
0.882117
0.882146
0.882056
0.881674
0.881092
0.881962
0.887828
0.909244
0.945635
0.982921
1.00581
1.00895
1.00721
0.876262
0.876286
0.876304
0.876313
0.876393
0.876501
0.876564
0.876642
0.876793
0.877064
0.877387
0.877768
0.878192
0.878585
0.878963
0.87918
0.879263
0.879363
0.879597
0.880048
0.880616
0.880956
0.88105
0.881132
0.881232
0.881387
0.8815
0.881371
0.881094
0.880737
0.8802
0.879488
0.879337
0.879805
0.882951
0.895389
0.929004
0.967944
0.990308
1.00309
0.87802
0.877889
0.877811
0.877845
0.878117
0.878317
0.878271
0.878238
0.878259
0.87837
0.878579
0.878824
0.879086
0.879439
0.879937
0.880572
0.881328
0.882029
0.88269
0.883333
0.883531
0.883365
0.882889
0.88209
0.881026
0.880441
0.879845
0.879006
0.878661
0.878704
0.878756
0.878712
0.878578
0.878814
0.879655
0.881327
0.888654
0.910347
0.950119
0.995342
0.890487
0.889924
0.889278
0.888946
0.889036
0.88904
0.888561
0.887551
0.886636
0.885917
0.885632
0.885447
0.88498
0.884671
0.88468
0.884647
0.884629
0.884614
0.884546
0.884623
0.88444
0.883532
0.882147
0.880504
0.878944
0.878852
0.878656
0.877815
0.87772
0.878025
0.878429
0.878635
0.87911
0.880156
0.881137
0.880853
0.880507
0.882798
0.896232
0.951974
0.906421
0.90605
0.905542
0.905226
0.904925
0.904266
0.903351
0.902379
0.901203
0.900219
0.899374
0.898408
0.897215
0.89599
0.894903
0.893637
0.89243
0.891334
0.889642
0.88858
0.887958
0.88678
0.885133
0.883929
0.882956
0.882783
0.882625
0.881732
0.881062
0.881253
0.882214
0.882635
0.882778
0.882647
0.882043
0.880899
0.879278
0.878675
0.879744
0.904975
0.935601
0.93525
0.935081
0.935191
0.935147
0.93456
0.933538
0.933046
0.932167
0.931191
0.931012
0.930516
0.929234
0.927948
0.926905
0.925612
0.923994
0.922206
0.92009
0.917783
0.915424
0.913293
0.910566
0.908506
0.906671
0.904515
0.902772
0.900481
0.896982
0.893875
0.891437
0.888828
0.88623
0.883508
0.880772
0.879396
0.878605
0.878689
0.879221
0.88392
0.980925
0.98038
0.97968
0.978995
0.978301
0.977445
0.976286
0.975291
0.974219
0.972798
0.971237
0.969609
0.967838
0.965882
0.963683
0.961235
0.958734
0.956273
0.953563
0.950796
0.948142
0.945239
0.942038
0.938165
0.934139
0.929595
0.924609
0.920064
0.915609
0.910484
0.905214
0.90019
0.895389
0.891364
0.888254
0.885641
0.884385
0.884082
0.884258
0.884616
1.03102
1.03041
1.02957
1.02871
1.02783
1.02682
1.02528
1.02409
1.02303
1.02147
1.0196
1.01782
1.01584
1.01374
1.01151
1.009
1.00636
1.00347
1.00041
0.99675
0.992826
0.988503
0.983986
0.979437
0.974618
0.970036
0.964881
0.9583
0.952675
0.94701
0.94081
0.934397
0.92794
0.921718
0.91563
0.909504
0.902873
0.897153
0.891423
0.884963
1.08321
1.08258
1.08174
1.08107
1.08034
1.07929
1.07794
1.07674
1.07558
1.07401
1.07221
1.0704
1.06845
1.06628
1.06397
1.06136
1.05847
1.05523
1.05149
1.04733
1.04265
1.03784
1.03271
1.02735
1.02181
1.01529
1.00842
1.00135
0.994384
0.986588
0.978242
0.969282
0.960763
0.951492
0.942545
0.9329
0.923464
0.913982
0.905663
0.895414
1.11986
1.11963
1.11914
1.11886
1.11861
1.11807
1.11732
1.11649
1.11557
1.11454
1.11335
1.1122
1.11095
1.10963
1.1083
1.10685
1.10518
1.10315
1.10057
1.09753
1.0941
1.09002
1.08531
1.08011
1.07396
1.06715
1.0595
1.05083
1.0422
1.03374
1.0243
1.01405
1.00344
0.992717
0.982128
0.971226
0.960944
0.949733
0.940741
0.92559
1.12746
1.12747
1.12748
1.12753
1.12765
1.12776
1.12775
1.12771
1.12775
1.12778
1.12778
1.12773
1.1276
1.1273
1.12675
1.12599
1.12504
1.12418
1.12358
1.12258
1.12188
1.12125
1.11992
1.11782
1.1153
1.11195
1.10717
1.10095
1.09351
1.08501
1.07534
1.06496
1.05305
1.0404
1.02688
1.01356
0.999915
0.986112
0.973462
0.953383
1.11929
1.1195
1.11975
1.12003
1.12034
1.12068
1.12105
1.12144
1.12188
1.12233
1.12282
1.12355
1.12406
1.12421
1.12436
1.12436
1.12414
1.12397
1.12388
1.1237
1.12378
1.12398
1.12395
1.12351
1.12276
1.12263
1.12253
1.12205
1.12064
1.11809
1.11418
1.10872
1.10133
1.09145
1.07915
1.0647
1.04892
1.03212
1.01664
0.99315
1.08036
1.08072
1.0812
1.082
1.08276
1.08357
1.08466
1.08545
1.08634
1.08769
1.08892
1.09011
1.09151
1.09309
1.09469
1.09634
1.09807
1.09993
1.10192
1.10415
1.10648
1.10892
1.11136
1.11313
1.11448
1.11564
1.11687
1.11842
1.11956
1.11954
1.11928
1.11865
1.11774
1.11605
1.11295
1.10705
1.09749
1.08384
1.06834
1.0403
1.02048
1.02081
1.02133
1.02189
1.02236
1.02291
1.02357
1.02435
1.02522
1.02618
1.02725
1.02846
1.02984
1.03142
1.03319
1.03524
1.03758
1.04026
1.04322
1.0466
1.05027
1.05439
1.05887
1.06376
1.06912
1.07466
1.08081
1.08681
1.09259
1.09847
1.10369
1.10775
1.1107
1.11332
1.11329
1.11306
1.11214
1.10969
1.10518
1.0881
1.00112
1.00116
1.00121
1.00125
1.0013
1.00137
1.00144
1.00153
1.00163
1.00174
1.00188
1.00204
1.00223
1.00246
1.00274
1.00308
1.0035
1.00402
1.00467
1.00547
1.00647
1.00771
1.00931
1.01131
1.01395
1.01726
1.0214
1.02656
1.03287
1.04047
1.04938
1.05919
1.06938
1.07985
1.08951
1.09739
1.10284
1.10672
1.10665
1.10459
1.00002
1.00002
1.00002
1.00002
1.00002
1.00002
1.00002
1.00002
1.00003
1.00003
1.00003
1.00004
1.00004
1.00005
1.00005
1.00006
1.00007
1.00009
1.00011
1.00014
1.00018
1.00023
1.0003
1.00042
1.00058
1.00083
1.00121
1.0018
1.00272
1.00416
1.0064
1.00983
1.01491
1.02216
1.03201
1.04429
1.0579
1.07233
1.08421
1.09543
1
1
1
1
1
1
1
1
1
1
1
1
1
1
1
1
1
1
1
1
1
1
1
1
1.00001
1.00001
1.00002
1.00003
1.00005
1.00009
1.00018
1.00034
1.00067
1.00135
1.0027
1.00536
1.01014
1.01839
1.02944
1.05358
1
1
1
1
1
1
1
1
1
1
1
1
1
1
1
1
1
1
1
1
1
1
1
1
1
1
1
1
1
1
1
1
1.00001
1.00002
1.00005
1.00014
1.00038
1.00105
1.00246
1.01051
1
1
1
1
1
1
1
1
1
1
1
1
1
1
1
1
1
1
1
1
1
1
1
1
1
1
1
1
1
1
1
1
1
1
1
1
1
1.00002
1.00005
1.00058
1
1
1
1
1
1
1
1
1
1
1
1
1
1
1
1
1
1
1
1
1
1
1
1
1
1
1
1
1
1
1
1
1
1
1
1
1
1
1
1.00001
0.887757
0.886972
0.885319
0.883387
0.882272
0.881552
0.881361
0.882165
0.8832
0.883129
0.880527
0.876261
0.878203
0.891148
0.90677
0.936493
0.981667
1.03189
1.08397
1.12019
1.12746
1.11905
1.0798
1.02001
1.00107
1.00002
1
1
1
1
0.88774
0.886975
0.885338
0.88346
0.882354
0.881579
0.881336
0.882093
0.8832
0.883193
0.880617
0.87625
0.878372
0.891839
0.907327
0.93813
0.982987
1.03346
1.08529
1.12103
1.12743
1.1187
1.07865
1.01932
1.00101
1.00001
1
1
1
1
0.887719
0.886981
0.88537
0.883551
0.882441
0.881606
0.88131
0.882028
0.883197
0.883248
0.880775
0.876245
0.878376
0.892121
0.907857
0.939202
0.9843
1.03501
1.0866
1.12186
1.12737
1.11835
1.07742
1.01863
1.00095
1.00001
1
1
1
1
0.887687
0.886973
0.885392
0.883633
0.882519
0.88163
0.881284
0.881974
0.883178
0.883281
0.880976
0.876452
0.878226
0.892154
0.908354
0.940104
0.985553
1.03646
1.08787
1.1225
1.12735
1.11799
1.07626
1.0179
1.00088
1.00001
1
1
1
1
0.887651
0.886959
0.885423
0.883725
0.88259
0.881648
0.881259
0.881927
0.883153
0.883296
0.881148
0.876745
0.877966
0.892009
0.908769
0.941144
0.986821
1.03799
1.08917
1.12308
1.12735
1.11763
1.07511
1.01711
1.00082
1.00001
1
1
1
1
0.887606
0.886979
0.885463
0.883821
0.882662
0.881658
0.881233
0.881872
0.883138
0.883299
0.881241
0.876818
0.877889
0.891761
0.909066
0.942344
0.988251
1.03974
1.09059
1.12359
1.1274
1.11728
1.07382
1.01631
1.00076
1.00001
1
1
1
1
0.88755
0.887013
0.885509
0.883925
0.882739
0.881661
0.881187
0.881743
0.883101
0.883248
0.881258
0.876852
0.878008
0.891785
0.90929
0.943764
0.989871
1.04163
1.09206
1.12412
1.12756
1.11696
1.07238
1.01551
1.0007
1.00001
1
1
1
1
0.887468
0.887055
0.885571
0.884028
0.882823
0.881662
0.881136
0.881525
0.882945
0.883105
0.881155
0.877026
0.878337
0.892339
0.909651
0.945349
0.991598
1.04357
1.09355
1.12482
1.12788
1.11668
1.07083
1.01468
1.00064
1.00001
1
1
1
1
0.887376
0.887087
0.885653
0.884131
0.882906
0.881667
0.881086
0.881297
0.882699
0.882913
0.880981
0.877392
0.878751
0.893165
0.910465
0.947084
0.993493
1.04565
1.09511
1.12561
1.12816
1.11638
1.06921
1.01382
1.00058
1.00001
1
1
1
1
0.887272
0.887103
0.885744
0.884231
0.882989
0.881684
0.880997
0.881061
0.882447
0.88269
0.88093
0.877864
0.879332
0.89399
0.911694
0.949012
0.995566
1.04787
1.09676
1.12628
1.12837
1.11598
1.06747
1.01294
1.00052
1.00001
1
1
1
1
0.88718
0.887106
0.885834
0.884326
0.88306
0.881703
0.880814
0.880799
0.882182
0.882479
0.881072
0.87839
0.879997
0.894588
0.91281
0.951076
0.997735
1.05022
1.09851
1.12678
1.12843
1.11544
1.06559
1.01206
1.00047
1.00001
1
1
1
1
0.88711
0.887116
0.885911
0.884414
0.883132
0.881711
0.88064
0.880514
0.881891
0.882333
0.88137
0.878907
0.880626
0.894984
0.913392
0.953229
1.00003
1.05267
1.10034
1.12718
1.12836
1.11479
1.06356
1.01118
1.00041
1
1
1
1
1
0.887073
0.887142
0.885988
0.884508
0.883203
0.881722
0.880518
0.880214
0.881569
0.882238
0.88145
0.879393
0.881282
0.895436
0.913511
0.955524
1.00247
1.0552
1.10222
1.12758
1.12842
1.11398
1.06137
1.0103
1.00036
1
1
1
1
1
0.887058
0.887191
0.886064
0.8846
0.883268
0.881799
0.88043
0.879922
0.881192
0.882151
0.881402
0.879734
0.881989
0.896268
0.914094
0.958051
1.00508
1.0579
1.1042
1.1281
1.1286
1.11304
1.05904
1.00943
1.00032
1
1
1
1
1
0.887053
0.88722
0.886139
0.884687
0.883292
0.881857
0.880345
0.879697
0.880739
0.881948
0.881395
0.879843
0.882503
0.897275
0.916498
0.960878
1.00796
1.06085
1.10633
1.12857
1.12847
1.11185
1.05665
1.00858
1.00028
1
1
1
1
1
0.887054
0.887251
0.886219
0.884771
0.883273
0.881841
0.880281
0.879548
0.880256
0.881655
0.881434
0.879843
0.88266
0.898218
0.919752
0.963931
1.01124
1.0641
1.10858
1.12878
1.12774
1.11033
1.0542
1.00775
1.00024
1
1
1
1
1
0.887112
0.887318
0.886307
0.884838
0.883217
0.88178
0.880253
0.879472
0.879865
0.881388
0.881445
0.879707
0.882528
0.899197
0.923057
0.967113
1.01491
1.06753
1.11092
1.12882
1.12684
1.10859
1.05164
1.00693
1.0002
1
1
1
1
1
0.88721
0.887419
0.886387
0.884864
0.883165
0.881755
0.880259
0.87945
0.879635
0.881085
0.881488
0.879597
0.882372
0.900404
0.926655
0.970406
1.01871
1.07109
1.11335
1.12883
1.12636
1.10672
1.04885
1.00612
1.00017
1
1
1
1
1
0.887332
0.887469
0.88644
0.884799
0.883083
0.881717
0.880288
0.879449
0.87954
0.880798
0.88182
0.879749
0.882448
0.902241
0.930319
0.97372
1.02263
1.07483
1.11583
1.12897
1.12625
1.10471
1.04582
1.00535
1.00014
1
1
1
1
1
0.887536
0.887464
0.886449
0.884679
0.882951
0.881628
0.880333
0.879451
0.879506
0.880537
0.882128
0.879952
0.882993
0.904864
0.933849
0.977127
1.02681
1.07882
1.11827
1.12927
1.12631
1.10254
1.04265
1.00461
1.00011
1
1
1
1
1
0.887792
0.887516
0.88635
0.884554
0.882828
0.881533
0.88039
0.879502
0.879478
0.8802
0.882231
0.880494
0.883585
0.906918
0.937286
0.980814
1.03136
1.08299
1.12057
1.12946
1.12617
1.10012
1.03937
1.00391
1.00009
1
1
1
1
1
0.888011
0.887734
0.886252
0.884387
0.882706
0.881459
0.880478
0.879623
0.879511
0.879814
0.882226
0.881457
0.883906
0.907427
0.940777
0.98496
1.03629
1.08726
1.12267
1.12945
1.12537
1.09735
1.03598
1.00326
1.00007
1
1
1
1
1
0.88833
0.887918
0.886177
0.884149
0.882564
0.881414
0.880798
0.880012
0.879778
0.87957
0.882069
0.882476
0.884416
0.907097
0.944549
0.989578
1.04158
1.0916
1.12456
1.12933
1.12449
1.09426
1.03251
1.00268
1.00005
1
1
1
1
1
0.88877
0.888084
0.886133
0.883821
0.882377
0.88139
0.881273
0.88055
0.880025
0.879484
0.88207
0.883763
0.885621
0.908418
0.948917
0.99485
1.04723
1.09602
1.12619
1.12934
1.1239
1.09083
1.02897
1.00215
1.00004
1
1
1
1
1
0.889238
0.888248
0.886086
0.883487
0.882147
0.881416
0.881487
0.881068
0.880101
0.879363
0.882081
0.885256
0.88723
0.913748
0.954041
1.00096
1.05317
1.10053
1.12755
1.12955
1.12352
1.08692
1.02543
1.0017
1.00003
1
1
1
1
1
0.889645
0.888418
0.88602
0.88324
0.881908
0.881439
0.88158
0.881382
0.880101
0.87917
0.88209
0.886582
0.889028
0.91974
0.959193
1.00758
1.05948
1.1051
1.12872
1.12993
1.12336
1.08251
1.02196
1.00131
1.00002
1
1
1
1
1
0.890035
0.888573
0.885983
0.883046
0.881675
0.881413
0.88172
0.88149
0.880043
0.878738
0.882082
0.887298
0.890999
0.924526
0.9641
1.01466
1.06623
1.10965
1.12975
1.12977
1.12273
1.07755
1.01861
1.00099
1.00001
1
1
1
1
1
0.890481
0.88874
0.885937
0.882913
0.881476
0.881336
0.881814
0.881568
0.879986
0.877866
0.881418
0.887415
0.894303
0.930077
0.969897
1.0223
1.07338
1.11407
1.13046
1.12913
1.11943
1.07196
1.01546
1.00073
1.00001
1
1
1
1
1
0.890906
0.888999
0.885927
0.882853
0.881335
0.88121
0.881839
0.881658
0.880025
0.877041
0.879579
0.887547
0.900652
0.936577
0.977526
1.03067
1.08083
1.11825
1.13094
1.12863
1.11571
1.06605
1.01254
1.00052
1.00001
1
1
1
1
1
0.891192
0.88933
0.886062
0.882851
0.881238
0.881082
0.881834
0.881668
0.879917
0.876422
0.878071
0.88899
0.906815
0.942307
0.986513
1.03958
1.08837
1.12207
1.1313
1.12896
1.11263
1.05981
1.00983
1.00035
1
1
1
1
1
1
0.891296
0.889526
0.886359
0.88307
0.881205
0.880896
0.881825
0.881616
0.879616
0.875845
0.877333
0.890917
0.911858
0.947511
0.99591
1.04892
1.09604
1.1253
1.1316
1.12989
1.10941
1.05285
1.0074
1.00023
1
1
1
1
1
1
0.891306
0.889569
0.886548
0.883431
0.881363
0.88065
0.881671
0.881604
0.879527
0.87544
0.877166
0.892795
0.917548
0.954252
1.00612
1.05904
1.10354
1.12774
1.13184
1.12998
1.10519
1.04529
1.00534
1.00015
1
1
1
1
1
1
0.890817
0.889583
0.886745
0.88374
0.881468
0.880463
0.881255
0.881548
0.879685
0.875626
0.877622
0.898246
0.924615
0.96482
1.01752
1.06988
1.11066
1.12939
1.13191
1.12883
1.09909
1.0376
1.0037
1.00009
1
1
1
1
1
1
0.890254
0.889267
0.886982
0.88408
0.88165
0.880431
0.880571
0.881131
0.880379
0.87772
0.880513
0.904927
0.931937
0.977638
1.02988
1.08115
1.11708
1.1304
1.13181
1.12569
1.09166
1.03027
1.00246
1.00005
1
1
1
1
1
1
0.889235
0.889013
0.887139
0.884302
0.882191
0.880675
0.880081
0.880192
0.881098
0.880353
0.883915
0.909234
0.940381
0.991109
1.04311
1.09233
1.12258
1.13103
1.13157
1.12238
1.08393
1.02354
1.00155
1.00003
1
1
1
1
1
1
0.88867
0.888591
0.88688
0.884359
0.882691
0.881578
0.880028
0.878703
0.881541
0.883132
0.887375
0.914329
0.953439
1.00549
1.05744
1.10291
1.12701
1.13139
1.1309
1.11937
1.07539
1.01739
1.00092
1.00001
1
1
1
1
1
1
0.888529
0.888033
0.886285
0.884011
0.883012
0.882488
0.88035
0.877935
0.880305
0.885263
0.891392
0.922725
0.969226
1.02092
1.07274
1.11258
1.13017
1.13149
1.13074
1.11621
1.06466
1.01188
1.0005
1.00001
1
1
1
1
1
1
0.889066
0.887794
0.885378
0.883677
0.88343
0.883004
0.880986
0.877245
0.878532
0.886556
0.89696
0.936696
0.986232
1.03861
1.08829
1.12049
1.13208
1.13155
1.13096
1.11086
1.05201
1.00742
1.00025
1
1
1
1
1
1
1
0.890044
0.887892
0.884511
0.882909
0.883522
0.8832
0.881119
0.875957
0.877278
0.88927
0.908586
0.954141
1.00498
1.05849
1.1026
1.12618
1.13291
1.13179
1.12871
1.10009
1.0396
1.0043
1.00011
1
1
1
1
1
1
1
0.890639
0.888224
0.88434
0.882174
0.882855
0.883252
0.881246
0.87537
0.877057
0.895685
0.926093
0.972172
1.02626
1.07888
1.11485
1.12956
1.13331
1.13175
1.12426
1.08891
1.02867
1.00227
1.00005
1
1
1
1
1
1
1
1
1
1
1
1
1
1
1
1
1
1
1
1.00016
1.00624
1.05126
1.1096
1.12602
1.13387
1.1351
1.134
1.13255
1.13247
1.1328
1.1339
1.13485
1.13488
1.13443
1.13368
1.13173
1.11269
1
1
1
1
1
1
1
1
1
1
1
1
1.00019
1.00708
1.05348
1.11064
1.1261
1.1339
1.13508
1.13399
1.13261
1.13249
1.13282
1.13391
1.13488
1.13489
1.13441
1.13355
1.12823
1.08413
1
1
1
1
1
1
1
1
1
1
1
1
1.00023
1.00797
1.05586
1.11196
1.12641
1.13392
1.13499
1.13401
1.13268
1.13252
1.13285
1.13393
1.13491
1.13491
1.1344
1.13321
1.12196
1.05373
1
1
1
1
1
1
1
1
1
1
1
1
1.00027
1.00894
1.05922
1.11412
1.12695
1.13392
1.13482
1.13403
1.13274
1.13253
1.13289
1.13398
1.13494
1.13493
1.13435
1.13243
1.113
1.02313
1
1
1
1
1
1
1
1
1
1
1
1
1.00033
1.01019
1.06264
1.11575
1.127
1.1339
1.13476
1.1341
1.1328
1.13252
1.13292
1.13402
1.13497
1.13493
1.1342
1.13078
1.1015
0.993636
1
1
1
1
1
1
1
1
1
1
1
1
1.00041
1.01161
1.06557
1.11698
1.12712
1.13388
1.13472
1.13416
1.13282
1.13249
1.13296
1.13405
1.135
1.13494
1.13394
1.12801
1.08766
0.964513
1
1
1
1
1
1
1
1
1
1
1
1.00001
1.00051
1.01318
1.0689
1.1187
1.12735
1.13386
1.13471
1.13419
1.13282
1.13245
1.13297
1.1341
1.13504
1.13493
1.13346
1.12342
1.07145
0.938016
1
1
1
1
1
1
1
1
1
1
1
1.00001
1.00063
1.015
1.07256
1.12053
1.12739
1.13384
1.13484
1.13426
1.13283
1.1324
1.13298
1.13413
1.13507
1.13488
1.13255
1.11682
1.05441
0.910902
1
1
1
1
1
1
1
1
1
1
1
1.00001
1.00079
1.01715
1.07613
1.12168
1.12737
1.1338
1.13498
1.13433
1.1329
1.13235
1.13302
1.13415
1.1351
1.13476
1.13084
1.1075
1.03489
0.888278
1
1
1
1
1
1
1
1
1
1
1
1.00001
1.001
1.01959
1.07971
1.12276
1.12729
1.13372
1.13496
1.1344
1.133
1.13232
1.13301
1.13416
1.13514
1.13448
1.12793
1.09544
1.01535
0.86695
1
1
1
1
1
1
1
1
1
1
1
1.00002
1.00127
1.02239
1.08358
1.12401
1.12714
1.13352
1.13501
1.13456
1.13311
1.13232
1.13301
1.13416
1.13513
1.13387
1.12309
1.08051
0.995459
0.848204
1
1
1
1
1
1
1
1
1
1
1
1.00003
1.00163
1.02554
1.08731
1.12504
1.12724
1.13326
1.13507
1.13461
1.13322
1.13232
1.13304
1.13416
1.13509
1.13265
1.11598
1.06294
0.974529
0.833827
1
1
1
1
1
1
1
1
1
1
1
1.00003
1.00208
1.02911
1.09142
1.12635
1.12761
1.13311
1.13508
1.1346
1.1333
1.1323
1.13306
1.13412
1.13495
1.13035
1.10574
1.04297
0.95618
0.82598
1
1
1
1
1
1
1
1
1
1
1
1.00005
1.00268
1.03317
1.09562
1.12732
1.12786
1.13288
1.13503
1.1346
1.13337
1.13224
1.13303
1.13398
1.1346
1.12638
1.09261
1.02184
0.938479
0.816141
1
1
1
1
1
1
1
1
1
1
1
1.00007
1.00344
1.03768
1.09977
1.12815
1.12791
1.13244
1.13498
1.13458
1.13342
1.13224
1.13299
1.13382
1.13362
1.12005
1.07608
0.999404
0.921396
0.815678
1
1
1
1
1
1
1
1
1
1
1
1.0001
1.00447
1.04271
1.10376
1.129
1.12808
1.13235
1.13496
1.1345
1.13348
1.13225
1.13293
1.13364
1.13148
1.11064
1.05736
0.97711
0.907303
0.81809
1
1
1
1
1
1
1
1
1
1
1
1.00015
1.00575
1.04814
1.10717
1.12973
1.12855
1.13232
1.13485
1.13447
1.13355
1.13227
1.13281
1.13331
1.12772
1.09799
1.03594
0.954562
0.895969
0.826535
1
1
1
1
1
1
1
1
1
1
1
1.00022
1.00748
1.05398
1.11057
1.13043
1.12893
1.13223
1.13481
1.1345
1.13359
1.13235
1.13273
1.13235
1.1213
1.08173
1.01427
0.933814
0.88578
0.835664
1
1
1
1
1
1
1
1
1
1
1
1.00032
1.0096
1.06004
1.11361
1.13156
1.12926
1.13222
1.13484
1.13452
1.13366
1.13244
1.13261
1.13042
1.11199
1.0628
0.991493
0.913045
0.877075
0.844325
1
1
1
1
1
1
1
1
1
1
1.00001
1.00048
1.01235
1.0664
1.11642
1.13226
1.12972
1.13224
1.13486
1.13461
1.13384
1.13255
1.13231
1.12659
1.09876
1.0413
0.969923
0.895486
0.873403
0.856892
1
1
1
1
1
1
1
1
1
1
1.00001
1.00072
1.01571
1.07289
1.11948
1.13249
1.13011
1.13213
1.13481
1.13489
1.13413
1.13267
1.13146
1.12033
1.08238
1.01842
0.948632
0.880504
0.868822
0.871479
1
1
1
1
1
1
1
1
1
1
1.00002
1.00108
1.01994
1.07961
1.1215
1.13294
1.13048
1.13173
1.13459
1.13499
1.13453
1.13272
1.12948
1.11041
1.06239
0.995228
0.930463
0.870564
0.862891
0.883802
1
1
1
1
1
1
1
1
1
1
1.00003
1.00164
1.025
1.08612
1.12334
1.13372
1.13075
1.13115
1.13416
1.13494
1.13476
1.13249
1.12561
1.09696
1.04069
0.971822
0.913098
0.863417
0.863074
0.889454
1
1
1
1
1
1
1
1
1
1
1.00005
1.00245
1.03107
1.09324
1.12546
1.13446
1.13071
1.13053
1.13359
1.13478
1.13471
1.13164
1.11881
1.07939
1.01718
0.949774
0.898777
0.863471
0.86408
0.893175
1
1
1
1
1
1
1
1
1
1
1.00008
1.00372
1.0383
1.09948
1.1271
1.13465
1.13078
1.13021
1.13281
1.13456
1.13455
1.12929
1.10817
1.05883
0.993724
0.929141
0.889332
0.864589
0.866808
0.894547
1
1
1
1
1
1
1
1
1
1
1.00014
1.00546
1.04606
1.10505
1.12839
1.13492
1.13106
1.13022
1.13246
1.13442
1.134
1.12448
1.09315
1.0361
0.970625
0.910011
0.88106
0.866006
0.871595
0.894759
1
1
1
1
1
1
1
1
1
1
1.00026
1.00809
1.05479
1.11035
1.12938
1.13529
1.13157
1.13046
1.13247
1.13434
1.13236
1.11573
1.07413
1.01191
0.949516
0.89484
0.877001
0.868759
0.877642
0.894755
1
1
1
1
1
1
1
1
1
1.00001
1.00045
1.01156
1.06372
1.11475
1.13045
1.1354
1.13205
1.13098
1.13245
1.13411
1.12866
1.10301
1.05223
0.98829
0.92936
0.880448
0.872842
0.872147
0.883567
0.895765
1
1
1
1
1
1
1
1
1
1.00001
1.00081
1.01638
1.07334
1.11889
1.13088
1.13533
1.13247
1.13133
1.13231
1.13342
1.12183
1.08574
1.02823
0.964994
0.914248
0.872999
0.868404
0.876212
0.888307
0.897148
1
1
1
1
1
1
1
1
1
1.00002
1.00142
1.02266
1.0826
1.12233
1.13063
1.13507
1.13277
1.13139
1.13225
1.1309
1.11099
1.06518
1.0042
0.943598
0.899744
0.86722
0.864547
0.879072
0.891048
0.89921
1
1
1
1
1
1
1
1
1
1.00005
1.00243
1.03035
1.09205
1.12527
1.13045
1.13472
1.13284
1.13135
1.13161
1.12552
1.09551
1.04244
0.98078
0.924105
0.890518
0.867225
0.864991
0.880493
0.892514
0.899723
1
1
1
1
1
1
1
1
1
1.0001
1.0042
1.03995
1.10047
1.12835
1.13063
1.13443
1.13296
1.1311
1.12958
1.11607
1.07623
1.0178
0.958242
0.907926
0.883854
0.868029
0.866741
0.881953
0.892346
0.899102
1
1
1
1
1
1
1
1
1
1.00021
1.00681
1.05044
1.10787
1.13017
1.13086
1.13438
1.13317
1.13058
1.12516
1.10153
1.05317
0.994565
0.939161
0.893137
0.879969
0.871478
0.869705
0.88302
0.891482
0.897204
1
1
1
1
1
1
1
1
1.00001
1.00043
1.01107
1.06231
1.11491
1.13092
1.13103
1.1344
1.13324
1.12933
1.11722
1.08294
1.02906
0.970818
0.921741
0.882467
0.876874
0.876148
0.874127
0.884889
0.891215
0.893869
1
1
1
1
1
1
1
1
1.00001
1.00089
1.01704
1.07393
1.11972
1.13169
1.1313
1.13427
1.13301
1.12644
1.10492
1.06054
1.00443
0.949319
0.907152
0.875831
0.872593
0.878446
0.880026
0.886496
0.89084
0.891094
1
1
1
1
1
1
1
1
1.00003
1.00174
1.025
1.08631
1.12415
1.13255
1.13148
1.1338
1.13201
1.12048
1.08791
1.03569
0.97981
0.930157
0.898177
0.873682
0.871074
0.878806
0.884003
0.887996
0.890301
0.8892
1
1
1
1
1
1
1
1
1.00008
1.00343
1.03613
1.09713
1.1271
1.13292
1.13147
1.13307
1.12928
1.10987
1.06688
1.01225
0.958947
0.912851
0.88913
0.873742
0.871816
0.879658
0.88522
0.887975
0.889261
0.888442
1
1
1
1
1
1
1
1
1.00019
1.00631
1.04801
1.10609
1.12944
1.13325
1.1313
1.132
1.12339
1.09448
1.04417
0.987863
0.937284
0.897952
0.88539
0.876066
0.873667
0.880041
0.884821
0.887179
0.888834
0.888843
1
1
1
1
1
1
1
1.00001
1.00045
1.01098
1.06212
1.11549
1.13107
1.13354
1.13132
1.12934
1.11309
1.07463
1.01925
0.962721
0.920551
0.887777
0.882482
0.881397
0.877293
0.880618
0.883809
0.885896
0.888549
0.890096
1
1
1
1
1
1
1
1.00002
1.00106
1.01871
1.0772
1.12069
1.13123
1.13348
1.131
1.12394
1.09789
1.05068
0.993529
0.944019
0.906858
0.880593
0.878129
0.881577
0.881857
0.881672
0.882052
0.884826
0.888594
0.890783
1.13261
1.1331
1.13376
1.13446
1.13487
1.13482
1.13387
1.13279
1.13243
1.1325
1.13401
1.13512
1.13385
1.12591
1.10847
1.04854
1.00556
1.00013
1
1
1
1
1
1
1
1
1
1
1
1
1.13262
1.13307
1.13376
1.13446
1.13485
1.13481
1.13389
1.13279
1.13237
1.13242
1.13391
1.1352
1.13393
1.12585
1.10742
1.04672
1.00528
1.00013
1
1
1
1
1
1
1
1
1
1
1
1
1.13267
1.13306
1.13379
1.13448
1.13483
1.13479
1.13392
1.13278
1.1323
1.13237
1.13386
1.13534
1.13402
1.12556
1.10591
1.04496
1.00482
1.00011
1
1
1
1
1
1
1
1
1
1
1
1
1.13271
1.13305
1.13377
1.13447
1.13481
1.13476
1.13398
1.13277
1.13224
1.13233
1.13382
1.1355
1.13414
1.12528
1.10451
1.04315
1.00436
1.00009
1
1
1
1
1
1
1
1
1
1
1
1
1.13276
1.13304
1.13371
1.13444
1.13478
1.13473
1.13401
1.13278
1.13219
1.13229
1.13377
1.13565
1.13429
1.125
1.10295
1.04104
1.00394
1.00008
1
1
1
1
1
1
1
1
1
1
1
1
1.13281
1.133
1.13365
1.13442
1.13474
1.13468
1.13401
1.13277
1.13217
1.13224
1.13369
1.13579
1.13444
1.12472
1.1011
1.03883
1.00354
1.00007
1
1
1
1
1
1
1
1
1
1
1
1
1.13285
1.133
1.1336
1.13437
1.1347
1.13464
1.13403
1.13279
1.13217
1.13218
1.13353
1.13589
1.13454
1.12452
1.09897
1.03663
1.00315
1.00006
1
1
1
1
1
1
1
1
1
1
1
1
1.1329
1.13302
1.13359
1.1343
1.13464
1.13458
1.1341
1.13292
1.13219
1.13207
1.1333
1.13593
1.1346
1.12446
1.09676
1.03441
1.00278
1.00005
1
1
1
1
1
1
1
1
1
1
1
1
1.13296
1.13306
1.13359
1.13423
1.13457
1.13452
1.13416
1.13309
1.1322
1.13189
1.13303
1.13594
1.13459
1.12412
1.09447
1.03213
1.00242
1.00004
1
1
1
1
1
1
1
1
1
1
1
1
1.13302
1.1331
1.13354
1.13413
1.1345
1.13447
1.1342
1.13326
1.13221
1.13165
1.1327
1.13588
1.13449
1.12301
1.0921
1.02979
1.00209
1.00003
1
1
1
1
1
1
1
1
1
1
1
1
1.13308
1.13315
1.13352
1.13402
1.13441
1.13443
1.13424
1.13346
1.13221
1.13143
1.13234
1.13571
1.13435
1.12263
1.0897
1.02739
1.00178
1.00003
1
1
1
1
1
1
1
1
1
1
1
1
1.13314
1.13321
1.13353
1.13389
1.1343
1.1344
1.13428
1.1337
1.13219
1.13126
1.13194
1.13531
1.13403
1.12289
1.0872
1.02498
1.0015
1.00002
1
1
1
1
1
1
1
1
1
1
1
1
1.13322
1.13329
1.13356
1.13377
1.13414
1.13438
1.13433
1.13399
1.13234
1.13116
1.13155
1.13476
1.13375
1.12318
1.08448
1.02251
1.00124
1.00002
1
1
1
1
1
1
1
1
1
1
1
1
1.13331
1.13338
1.13357
1.13366
1.13393
1.13434
1.13441
1.13428
1.13273
1.13115
1.13122
1.13418
1.1336
1.12263
1.08136
1.02003
1.001
1.00001
1
1
1
1
1
1
1
1
1
1
1
1
1.13344
1.13348
1.13359
1.13356
1.13369
1.13427
1.13449
1.13455
1.1331
1.13117
1.13099
1.13359
1.1332
1.12072
1.07776
1.01758
1.0008
1.00001
1
1
1
1
1
1
1
1
1
1
1
1
1.1336
1.13359
1.1336
1.13347
1.13343
1.13415
1.13458
1.13478
1.13349
1.13127
1.13087
1.13314
1.13248
1.11835
1.0737
1.0152
1.00063
1.00001
1
1
1
1
1
1
1
1
1
1
1
1
1.1338
1.1337
1.1336
1.13338
1.13319
1.134
1.13466
1.135
1.13394
1.13157
1.13083
1.13296
1.1321
1.11624
1.0694
1.01295
1.00048
1.00001
1
1
1
1
1
1
1
1
1
1
1
1
1.13403
1.13381
1.13359
1.13328
1.13302
1.13379
1.13469
1.13518
1.13437
1.13193
1.1309
1.13297
1.132
1.11414
1.06464
1.01079
1.00036
1
1
1
1
1
1
1
1
1
1
1
1
1
1.13428
1.13391
1.1336
1.13318
1.13287
1.13356
1.13468
1.13529
1.1347
1.13231
1.13114
1.13304
1.13225
1.11189
1.05923
1.00879
1.00026
1
1
1
1
1
1
1
1
1
1
1
1
1
1.13453
1.13403
1.1336
1.13307
1.13277
1.13334
1.13454
1.13535
1.1349
1.13269
1.13132
1.13302
1.13239
1.10949
1.05334
1.00696
1.00019
1
1
1
1
1
1
1
1
1
1
1
1
1
1.13474
1.1342
1.13359
1.13299
1.13273
1.13318
1.13443
1.13538
1.135
1.13309
1.13133
1.13277
1.13221
1.10613
1.04707
1.00534
1.00013
1
1
1
1
1
1
1
1
1
1
1
1
1
1.13488
1.13435
1.1337
1.13297
1.13275
1.13307
1.13433
1.13534
1.13504
1.1335
1.13116
1.13193
1.13072
1.10134
1.04084
1.00401
1.00009
1
1
1
1
1
1
1
1
1
1
1
1
1
1.13495
1.13445
1.13382
1.13302
1.13274
1.13297
1.13417
1.13519
1.13497
1.1339
1.13091
1.13043
1.12906
1.09671
1.03496
1.00292
1.00006
1
1
1
1
1
1
1
1
1
1
1
1
1
1.13497
1.13449
1.13386
1.13311
1.13272
1.13291
1.13395
1.13499
1.1348
1.13422
1.13087
1.12903
1.12743
1.09227