/*--------------------------------*- C++ -*----------------------------------*\
  =========                 |
  \\      /  F ield         | OpenFOAM: The Open Source CFD Toolbox
   \\    /   O peration     | Website:  https://openfoam.org
    \\  /    A nd           | Version:  7
     \\/     M anipulation  |
\*---------------------------------------------------------------------------*/
FoamFile
{
    version     2.0;
    format      ascii;
    class       volScalarField;
    location    "6.5";
    object      rho;
}
// * * * * * * * * * * * * * * * * * * * * * * * * * * * * * * * * * * * * * //

dimensions      [1 -3 0 0 0 0 0];

internalField   nonuniform List<scalar> 
90000
(
0.807037
0.820629
0.83602
0.851945
0.86813
0.884421
0.900815
0.917257
0.933818
0.950326
0.966975
0.983532
1.00023
1.01672
1.03343
1.04982
1.06646
1.08262
1.09911
1.11497
1.13129
1.14664
1.1625
1.17719
1.19249
1.20632
1.22106
1.23379
1.2474
1.25858
1.27089
1.28035
1.2908
1.29852
1.30541
1.31177
1.31677
1.31784
1.32005
1.32015
1.31955
1.31681
1.3107
1.30533
1.29642
1.2914
1.29177
1.29411
1.29814
1.30281
1.30977
1.31744
1.32281
1.32464
1.32616
1.32737
1.32665
1.32481
1.32233
1.32002
1.31893
1.31695
1.31638
1.31733
1.32059
1.32419
1.32876
1.33429
1.3374
1.33637
1.33283
1.32938
1.3248
1.32367
1.32463
1.3274
1.33111
1.33194
1.3308
1.32864
1.32604
1.32613
1.32797
1.33096
1.33204
1.33196
1.33122
1.3314
1.33347
1.33557
1.33558
1.33516
1.33418
1.33462
1.33566
1.33584
1.33575
1.33574
1.33564
1.33542
0.797386
0.79778
0.798545
0.799745
0.801523
0.803927
0.806933
0.810657
0.815075
0.820298
0.826228
0.833083
0.840698
0.849315
0.858633
0.869099
0.880244
0.892644
0.905647
0.92003
0.934899
0.95115
0.967582
0.985467
1.00341
1.02263
1.04178
1.06201
1.08173
1.10209
1.12196
1.14189
1.16125
1.17952
1.19832
1.21344
1.23076
1.24317
1.25613
1.2652
1.27489
1.27988
1.2829
1.28862
1.30425
1.31331
1.3223
1.32628
1.33039
1.33158
1.33271
1.33251
1.33036
1.3272
1.32538
1.32387
1.32362
1.32302
1.32139
1.31981
1.32043
1.32273
1.32686
1.33142
1.33534
1.33689
1.33614
1.33531
1.33384
1.33273
1.33201
1.32966
1.33073
1.33192
1.33365
1.33379
1.33301
1.3317
1.33035
1.32855
1.3295
1.33124
1.3332
1.3331
1.33268
1.33189
1.33262
1.33458
1.33669
1.33632
1.33572
1.33524
1.33588
1.33717
1.33676
1.3368
1.33689
1.33706
1.33682
1.33657
0.800344
0.800385
0.800437
0.800576
0.800591
0.800597
0.800593
0.800596
0.800627
0.800729
0.800875
0.801038
0.801263
0.801612
0.802068
0.802637
0.803342
0.804275
0.80562
0.807407
0.809613
0.812442
0.815867
0.820278
0.825576
0.832369
0.840293
0.850389
0.861752
0.875936
0.89148
0.910631
0.931075
0.955662
0.981282
1.01103
1.04141
1.07526
1.10941
1.14412
1.17988
1.21269
1.24948
1.27625
1.29645
1.30639
1.31628
1.32027
1.32514
1.32644
1.32832
1.3284
1.32846
1.3278
1.32687
1.32481
1.32432
1.32552
1.32991
1.33572
1.34287
1.34833
1.35148
1.35089
1.34839
1.34325
1.33747
1.33348
1.33158
1.33152
1.3344
1.34099
1.34695
1.34661
1.34462
1.33979
1.3357
1.33205
1.33349
1.33815
1.34159
1.34108
1.33911
1.33722
1.33644
1.33819
1.34082
1.34181
1.34133
1.34024
1.34042
1.34131
1.34193
1.3416
1.34088
1.34102
1.34123
1.34113
1.34063
1.34035
0.803538
0.803609
0.803684
0.803759
0.803806
0.803826
0.803827
0.803822
0.803823
0.803851
0.803923
0.804008
0.804089
0.804175
0.804268
0.804382
0.804528
0.804776
0.804897
0.805021
0.805129
0.805164
0.805172
0.805188
0.805251
0.805421
0.805696
0.806045
0.806499
0.807184
0.808261
0.810008
0.812446
0.816032
0.820638
0.827372
0.8358
0.848151
0.862931
0.88367
0.907298
0.93867
0.973364
1.01537
1.05761
1.10174
1.14551
1.18216
1.21983
1.24387
1.27179
1.28575
1.30423
1.31199
1.32119
1.32302
1.33306
1.34222
1.35384
1.35957
1.36436
1.36589
1.36502
1.36319
1.35705
1.35012
1.34458
1.33917
1.34029
1.34552
1.35156
1.35857
1.35958
1.35801
1.35253
1.34686
1.34243
1.34429
1.34802
1.35143
1.35261
1.35078
1.34759
1.34452
1.34525
1.34735
1.34926
1.34896
1.34768
1.34693
1.34748
1.34878
1.34886
1.34833
1.34747
1.34713
1.3471
1.34688
1.3464
1.34611
0.806857
0.806871
0.806872
0.806859
0.806854
0.806857
0.806879
0.806902
0.806918
0.806917
0.8069
0.806875
0.806852
0.806831
0.806827
0.806827
0.806839
0.806833
0.806786
0.80677
0.806795
0.806868
0.806897
0.806906
0.806934
0.806997
0.807066
0.807128
0.807215
0.807381
0.807632
0.80792
0.808199
0.808392
0.808543
0.808763
0.809146
0.809729
0.810514
0.811743
0.813537
0.816738
0.821389
0.829728
0.840912
0.860066
0.88341
0.918961
0.957482
1.00787
1.05865
1.11391
1.16895
1.21608
1.26443
1.29824
1.32703
1.33804
1.34949
1.35563
1.36134
1.36173
1.3604
1.3532
1.34048
1.34182
1.34669
1.35364
1.35973
1.36458
1.36405
1.36333
1.36008
1.35505
1.35321
1.35421
1.35764
1.36011
1.35984
1.3575
1.35488
1.3537
1.35399
1.35428
1.35591
1.35627
1.35557
1.35408
1.35317
1.3537
1.35452
1.35506
1.35471
1.35435
1.35438
1.3541
1.35368
1.35289
1.35252
1.35226
0.806781
0.806778
0.806776
0.806776
0.80678
0.806822
0.806916
0.806937
0.80694
0.806938
0.806928
0.806928
0.806931
0.806954
0.807019
0.807036
0.807025
0.807016
0.807015
0.807031
0.807104
0.807203
0.807287
0.807359
0.8074
0.807431
0.807462
0.807508
0.807581
0.807687
0.807819
0.808005
0.808189
0.808331
0.808501
0.808673
0.808795
0.808934
0.809157
0.809475
0.809808
0.810117
0.810384
0.810621
0.810844
0.811291
0.812274
0.814675
0.818751
0.827406
0.839964
0.863537
0.892529
0.938467
0.988264
1.05169
1.11178
1.16617
1.21736
1.2491
1.28446
1.29699
1.31455
1.32018
1.33837
1.35188
1.36662
1.37506
1.37522
1.37418
1.36964
1.35751
1.3482
1.34853
1.35172
1.36053
1.37011
1.36951
1.36762
1.3627
1.35743
1.35564
1.35732
1.3606
1.3621
1.36003
1.35825
1.35664
1.35693
1.35822
1.35949
1.35926
1.35842
1.35764
1.35782
1.35763
1.35708
1.35647
1.35652
1.35664
0.806585
0.806613
0.806636
0.806659
0.806684
0.80673
0.806778
0.806821
0.806854
0.806874
0.806923
0.806973
0.806991
0.80704
0.807122
0.807153
0.80717
0.807243
0.80733
0.807329
0.807335
0.80736
0.807446
0.807609
0.807653
0.807658
0.807668
0.807704
0.807812
0.808002
0.808054
0.80802
0.807972
0.80801
0.808141
0.808265
0.808342
0.808428
0.808577
0.808772
0.808949
0.80909
0.809224
0.809397
0.809755
0.8102
0.810342
0.810297
0.810192
0.810218
0.810417
0.811116
0.812661
0.816608
0.8234
0.83889
0.861088
0.902067
0.949484
1.01585
1.08311
1.1523
1.21902
1.27162
1.32586
1.34425
1.36001
1.36741
1.36958
1.36259
1.3402
1.3376
1.34163
1.35251
1.36341
1.36913
1.3706
1.36875
1.3631
1.35551
1.35572
1.3588
1.36318
1.36483
1.36404
1.3612
1.35731
1.35737
1.35897
1.36042
1.36012
1.35941
1.35944
1.35997
1.36032
1.35989
1.35868
1.35806
1.35831
1.35912
0.807068
0.807097
0.807115
0.807138
0.807178
0.807241
0.807319
0.807392
0.807464
0.807529
0.807592
0.807646
0.807688
0.807725
0.807773
0.80784
0.807902
0.807902
0.80789
0.807889
0.807899
0.807923
0.80797
0.808053
0.808157
0.808184
0.808204
0.808263
0.808413
0.808568
0.808595
0.808579
0.808563
0.808567
0.808585
0.808597
0.808615
0.808654
0.808736
0.808826
0.808904
0.809005
0.809142
0.809305
0.809497
0.809684
0.809713
0.809668
0.809555
0.809383
0.809215
0.80911
0.80898
0.808714
0.808524
0.808567
0.808975
0.811007
0.815786
0.828161
0.848066
0.887592
0.936024
1.00783
1.07932
1.15206
1.21888
1.25551
1.29419
1.30601
1.31921
1.34224
1.36078
1.37092
1.37283
1.37176
1.36323
1.35165
1.35215
1.35386
1.36046
1.3676
1.36726
1.36584
1.36057
1.35717
1.35663
1.35852
1.36126
1.36114
1.35992
1.35844
1.35903
1.36031
1.36033
1.35986
1.3592
1.3587
1.35931
1.36003
0.807839
0.807885
0.807926
0.807968
0.808007
0.808042
0.80808
0.808127
0.808174
0.808214
0.808253
0.808313
0.808388
0.808416
0.808417
0.808429
0.808453
0.808468
0.808492
0.80854
0.808579
0.808617
0.808693
0.80879
0.808844
0.80886
0.808877
0.808942
0.808985
0.808981
0.808948
0.808862
0.808786
0.808748
0.80871
0.808685
0.808684
0.808693
0.808719
0.808765
0.808832
0.808924
0.809062
0.809239
0.809433
0.809518
0.809469
0.809361
0.809254
0.809152
0.808999
0.80876
0.808415
0.808074
0.807662
0.806955
0.806437
0.806402
0.80649
0.806863
0.807803
0.810122
0.814797
0.827366
0.848929
0.895423
0.955356
1.04138
1.1277
1.21288
1.2972
1.33431
1.35371
1.36344
1.36513
1.35534
1.331
1.33533
1.34492
1.36019
1.37128
1.37089
1.36742
1.35992
1.3547
1.35524
1.35855
1.3622
1.36199
1.35989
1.35725
1.35752
1.3592
1.36009
1.35989
1.35847
1.35848
1.35888
1.36027
1.36039
0.808221
0.808238
0.808257
0.808276
0.808297
0.808321
0.808353
0.808388
0.80842
0.808449
0.808476
0.808516
0.808597
0.808662
0.808684
0.808702
0.808737
0.808789
0.80884
0.808873
0.80893
0.809037
0.809131
0.809186
0.8092
0.809198
0.809207
0.809247
0.809264
0.809258
0.809218
0.809145
0.809092
0.80906
0.809033
0.808992
0.808935
0.808875
0.808806
0.808717
0.8087
0.808719
0.808779
0.808904
0.809066
0.809078
0.808965
0.808707
0.808383
0.808179
0.808038
0.807862
0.807699
0.807541
0.80721
0.80652
0.805937
0.805837
0.805851
0.806005
0.80626
0.806438
0.806594
0.806808
0.807519
0.809971
0.816736
0.835218
0.869798
0.93367
1.01652
1.11204
1.19036
1.25312
1.28839
1.30863
1.32279
1.3557
1.36697
1.37176
1.37137
1.36292
1.35324
1.35341
1.35438
1.35959
1.3642
1.36384
1.35974
1.35597
1.35617
1.35825
1.35974
1.35963
1.35788
1.35718
1.35794
1.35992
1.36046
1.36029
0.808704
0.808708
0.808715
0.808727
0.808757
0.808799
0.808833
0.808857
0.808874
0.808888
0.808905
0.808935
0.808988
0.809061
0.809138
0.80923
0.809299
0.809337
0.809378
0.809424
0.809523
0.809644
0.809675
0.80966
0.809647
0.809643
0.809655
0.809688
0.8097
0.809694
0.809658
0.809576
0.809486
0.809414
0.80934
0.80926
0.809172
0.809071
0.808993
0.808876
0.808699
0.808464
0.808305
0.808247
0.808165
0.808041
0.807785
0.807436
0.807187
0.807127
0.807165
0.807256
0.807279
0.807259
0.807091
0.806535
0.805992
0.805912
0.805926
0.806011
0.806172
0.806392
0.806703
0.807202
0.807234
0.80724
0.807321
0.807705
0.809364
0.814656
0.829965
0.864789
0.929979
1.02402
1.12153
1.2342
1.30925
1.3513
1.36016
1.36729
1.35736
1.33617
1.33979
1.349
1.361
1.36731
1.36656
1.36132
1.35389
1.35426
1.35724
1.36014
1.35992
1.35728
1.35514
1.35607
1.35917
1.36039
1.36031
1.35971
0.809331
0.809338
0.809348
0.809363
0.809379
0.809395
0.809416
0.809427
0.809419
0.809391
0.80938
0.809393
0.809469
0.809682
0.809763
0.809764
0.809771
0.809816
0.809905
0.809924
0.809917
0.80992
0.809918
0.809867
0.80973
0.809679
0.809657
0.809643
0.809644
0.809637
0.809582
0.809473
0.8094
0.809319
0.809204
0.809226
0.809224
0.809138
0.808865
0.808513
0.808238
0.808053
0.807862
0.807607
0.8073
0.80694
0.806541
0.806371
0.806366
0.806413
0.806648
0.807049
0.807174
0.807169
0.807071
0.806714
0.806206
0.805959
0.805931
0.805982
0.80617
0.806455
0.80691
0.807522
0.807826
0.80792
0.807961
0.808053
0.808074
0.808194
0.808609
0.809875
0.815514
0.829705
0.872873
0.940495
1.04704
1.15534
1.22071
1.29172
1.30204
1.33522
1.34895
1.36694
1.36847
1.36746
1.3597
1.35289
1.35368
1.35756
1.36218
1.36147
1.35685
1.35421
1.35491
1.35836
1.36032
1.36029
1.35956
1.35924
0.810156
0.810142
0.810123
0.810104
0.810089
0.810075
0.81005
0.809986
0.809859
0.809769
0.809771
0.809871
0.810094
0.81014
0.810138
0.810106
0.810104
0.810149
0.810163
0.810182
0.810264
0.81033
0.810325
0.81027
0.810141
0.810021
0.809946
0.809925
0.809926
0.809911
0.809829
0.809689
0.809555
0.80943
0.809287
0.809013
0.808632
0.808283
0.808088
0.808009
0.80797
0.807917
0.807749
0.807427
0.80704
0.806572
0.806404
0.806383
0.80638
0.806432
0.806674
0.807061
0.807203
0.807208
0.807195
0.80718
0.807074
0.806855
0.806671
0.806579
0.806581
0.806753
0.80721
0.807784
0.808182
0.808337
0.808376
0.808386
0.808387
0.80844
0.808505
0.808482
0.808414
0.808565
0.810226
0.815967
0.841478
0.888436
0.985501
1.10004
1.2083
1.32172
1.34254
1.36442
1.36264
1.34974
1.3408
1.34745
1.35942
1.36571
1.36444
1.35794
1.35184
1.35294
1.35823
1.36115
1.36071
1.35844
1.35843
1.35898
0.810487
0.810486
0.810488
0.810486
0.810458
0.810389
0.810273
0.810133
0.810063
0.810041
0.810062
0.810199
0.810414
0.810447
0.810449
0.810449
0.810422
0.810332
0.810292
0.810258
0.810158
0.809982
0.80978
0.809595
0.809439
0.809257
0.809056
0.808923
0.80889
0.808847
0.808717
0.808437
0.80813
0.807974
0.807865
0.807693
0.807515
0.807511
0.807649
0.807883
0.807934
0.807919
0.807777
0.807473
0.807016
0.806651
0.806621
0.806627
0.806642
0.806706
0.806925
0.807249
0.807538
0.807739
0.807861
0.808002
0.80816
0.808203
0.808165
0.808012
0.807862
0.807833
0.807852
0.808006
0.808452
0.8087
0.808732
0.80873
0.808679
0.808637
0.808608
0.808518
0.808331
0.80816
0.808134
0.808219
0.808878
0.811565
0.824778
0.855721
0.937762
1.04593
1.1528
1.27066
1.28614
1.3147
1.33355
1.36522
1.36969
1.36768
1.35643
1.35106
1.35227
1.35845
1.36431
1.36284
1.35778
1.35705
1.35797
1.35959
0.810124
0.810028
0.809887
0.809665
0.809084
0.808637
0.8086
0.808679
0.808852
0.808874
0.808858
0.808911
0.808987
0.809
0.808999
0.808993
0.808954
0.808814
0.808694
0.808662
0.808607
0.808474
0.808252
0.807957
0.807788
0.807668
0.807471
0.807305
0.807263
0.807246
0.807154
0.80682
0.806709
0.806731
0.806909
0.807097
0.807146
0.807222
0.807466
0.807948
0.808249
0.80831
0.808297
0.808179
0.807827
0.807365
0.807157
0.807165
0.807271
0.807515
0.807837
0.808094
0.808287
0.80843
0.808503
0.808586
0.808851
0.809177
0.809226
0.809211
0.809046
0.808719
0.808539
0.808581
0.809
0.809321
0.809339
0.809253
0.809059
0.808952
0.808884
0.808745
0.808518
0.808245
0.808213
0.808351
0.808576
0.80876
0.809136
0.810424
0.817979
0.838102
0.908293
1.0112
1.13722
1.28109
1.32208
1.35719
1.36068
1.34694
1.33893
1.34703
1.36119
1.36688
1.36491
1.35809
1.3557
1.35728
1.36013
1.35994
0.807984
0.807229
0.806932
0.806856
0.806855
0.806895
0.807004
0.807324
0.807955
0.808179
0.808198
0.808198
0.808192
0.808233
0.808286
0.808301
0.80831
0.808231
0.808053
0.808006
0.807979
0.807858
0.807539
0.807154
0.806952
0.806826
0.806636
0.806414
0.806361
0.806348
0.806269
0.806114
0.806097
0.806144
0.806383
0.806763
0.806999
0.807167
0.807384
0.807699
0.808106
0.80851
0.80869
0.808623
0.808304
0.807808
0.807511
0.807527
0.807766
0.808264
0.808721
0.808813
0.808775
0.808717
0.808716
0.808705
0.808768
0.809231
0.809666
0.80976
0.809754
0.809517
0.808962
0.808753
0.808926
0.809398
0.809558
0.809467
0.809262
0.8092
0.809118
0.808896
0.808675
0.808688
0.808887
0.809323
0.809572
0.809634
0.809776
0.809922
0.810087
0.810552
0.814655
0.828515
0.890152
0.982588
1.10676
1.23828
1.27268
1.30906
1.33417
1.36895
1.3723
1.36969
1.35649
1.35232
1.35532
1.3617
1.36165
1.35931
0.806021
0.806029
0.805994
0.805965
0.805977
0.80609
0.806372
0.80683
0.80747
0.808106
0.808403
0.808473
0.808532
0.808599
0.808605
0.808581
0.808591
0.80859
0.80842
0.808345
0.808346
0.80832
0.808224
0.807949
0.807579
0.807264
0.807056
0.806937
0.806848
0.806702
0.806462
0.806371
0.806382
0.806478
0.806884
0.807533
0.807682
0.807733
0.807878
0.808164
0.80851
0.80887
0.809203
0.809195
0.808864
0.808224
0.807982
0.80802
0.808432
0.809335
0.809634
0.809651
0.809547
0.809076
0.808841
0.808779
0.808807
0.809212
0.809923
0.810185
0.810233
0.810078
0.809429
0.808813
0.808832
0.809089
0.809346
0.809364
0.80931
0.809281
0.809236
0.809084
0.808997
0.80909
0.809512
0.810126
0.810301
0.810267
0.810281
0.810318
0.810326
0.810143
0.809413
0.80942
0.812266
0.82366
0.879341
0.968608
1.10322
1.2663
1.32149
1.36351
1.36207
1.34678
1.34412
1.3528
1.36368
1.36412
1.36091
1.35784
0.805765
0.80591
0.80592
0.805894
0.805864
0.805878
0.805963
0.80621
0.806732
0.807529
0.808199
0.808527
0.808719
0.808845
0.809003
0.809244
0.809328
0.809295
0.809064
0.808935
0.808993
0.809021
0.809072
0.809074
0.808854
0.808321
0.807928
0.807791
0.807681
0.80745
0.807156
0.806984
0.806833
0.806734
0.806843
0.807509
0.807957
0.80799
0.808066
0.808301
0.808639
0.808974
0.80929
0.809317
0.808941
0.80812
0.807936
0.807987
0.808577
0.809821
0.810132
0.810154
0.810127
0.809761
0.808963
0.808689
0.808627
0.808774
0.809408
0.810056
0.810238
0.81012
0.809547
0.808942
0.808829
0.808997
0.809053
0.809061
0.809122
0.809392
0.809657
0.809699
0.809722
0.809845
0.810222
0.810529
0.810578
0.810544
0.810559
0.81051
0.81014
0.809537
0.808847
0.808676
0.808727
0.809009
0.811891
0.822448
0.874872
0.965913
1.09595
1.24602
1.27408
1.31262
1.33947
1.37207
1.37119
1.36275
1.35474
1.35756
0.805905
0.805959
0.806076
0.806279
0.806499
0.806704
0.807049
0.807297
0.807746
0.808524
0.808755
0.808788
0.808844
0.808926
0.809103
0.809386
0.809463
0.809371
0.809201
0.809232
0.809347
0.80933
0.809401
0.809504
0.809433
0.809011
0.808772
0.808745
0.808661
0.808302
0.80775
0.807641
0.80768
0.807696
0.807827
0.808217
0.808383
0.808478
0.808695
0.809047
0.809138
0.809127
0.809218
0.809226
0.808789
0.808153
0.80803
0.808085
0.808706
0.810181
0.81065
0.81068
0.81061
0.810417
0.80999
0.80926
0.808438
0.808091
0.808223
0.808978
0.809844
0.809932
0.80951
0.809288
0.809242
0.80917
0.809093
0.809007
0.80908
0.809667
0.810273
0.810394
0.810444
0.810552
0.810686
0.810637
0.810613
0.810569
0.810338
0.809864
0.809235
0.808851
0.808759
0.808867
0.809203
0.809589
0.810064
0.810478
0.812999
0.823062
0.875861
0.970404
1.11775
1.28126
1.32766
1.36529
1.36073
1.34056
1.34871
1.36338
0.805824
0.805842
0.805913
0.806091
0.806549
0.806712
0.806783
0.807098
0.807583
0.807756
0.807735
0.80768
0.807668
0.807723
0.807933
0.80817
0.808369
0.808505
0.808615
0.808971
0.809172
0.80918
0.809317
0.809484
0.809449
0.80912
0.808862
0.808797
0.808617
0.807895
0.807382
0.807327
0.807459
0.808105
0.80838
0.808379
0.808293
0.808686
0.809409
0.809529
0.809413
0.809079
0.809035
0.808904
0.808316
0.808045
0.807967
0.807955
0.808518
0.810084
0.81066
0.810718
0.810609
0.810539
0.810263
0.809382
0.807839
0.807186
0.807386
0.808172
0.80865
0.808785
0.809011
0.809393
0.80985
0.809898
0.809614
0.809475
0.809605
0.810171
0.810583
0.810636
0.810684
0.81071
0.810682
0.810536
0.810114
0.80963
0.809128
0.808697
0.808547
0.808621
0.808909
0.809655
0.81007
0.810411
0.810768
0.810776
0.810659
0.810647
0.812637
0.823439
0.883521
0.98717
1.12676
1.26241
1.29192
1.32594
1.36714
1.36896
0.801906
0.802092
0.802546
0.803632
0.804213
0.804247
0.804225
0.804196
0.8042
0.804142
0.804096
0.804115
0.804246
0.804872
0.806088
0.806354
0.80624
0.806175
0.806394
0.80778
0.808692
0.808719
0.808485
0.807861
0.807693
0.807811
0.807799
0.807454
0.806262
0.805385
0.805254
0.805263
0.805763
0.805973
0.806266
0.807035
0.808156
0.809513
0.810133
0.810155
0.810013
0.809626
0.80875
0.807901
0.807743
0.807591
0.80701
0.806252
0.806363
0.807209
0.808197
0.808864
0.809691
0.8103
0.8101
0.808696
0.806893
0.806766
0.807355
0.807801
0.807673
0.807454
0.807757
0.809198
0.810322
0.810464
0.810315
0.81018
0.810307
0.810564
0.810679
0.810677
0.810706
0.810708
0.810509
0.809695
0.808558
0.807906
0.807912
0.808133
0.808467
0.80899
0.809844
0.810517
0.810695
0.810865
0.810942
0.810854
0.810249
0.809511
0.809431
0.809707
0.813114
0.828353
0.896802
1.01248
1.17678
1.3085
1.35795
1.3618
0.797707
0.79791
0.79878
0.800084
0.800317
0.800344
0.800352
0.800219
0.79982
0.799759
0.799806
0.800049
0.800476
0.800587
0.800345
0.800237
0.800421
0.800906
0.801808
0.803108
0.80366
0.803674
0.803392
0.802727
0.802477
0.802336
0.802257
0.802157
0.801712
0.800769
0.800502
0.800613
0.800556
0.800241
0.800561
0.802077
0.803908
0.805027
0.805816
0.806687
0.807252
0.807261
0.806943
0.806325
0.805702
0.804485
0.802882
0.802291
0.802458
0.803028
0.803331
0.803675
0.80471
0.806384
0.80661
0.806015
0.80595
0.806433
0.807179
0.807348
0.807151
0.80663
0.806734
0.80816
0.810098
0.810496
0.810344
0.810211
0.810362
0.810644
0.810488
0.810025
0.809743
0.809469
0.808866
0.807788
0.806946
0.806952
0.80732
0.807972
0.808962
0.809889
0.810684
0.810784
0.810773
0.810872
0.810707
0.809969
0.808969
0.809025
0.809215
0.809849
0.810527
0.811199
0.815084
0.835964
0.91425
1.04757
1.19194
1.29352
0.799941
0.800117
0.800286
0.800802
0.802338
0.803054
0.803074
0.803091
0.802859
0.801954
0.801768
0.801677
0.801227
0.800066
0.799729
0.799735
0.799738
0.79971
0.799951
0.800955
0.801385
0.801434
0.801456
0.801528
0.801471
0.800854
0.800157
0.799852
0.799622
0.799049
0.798662
0.798449
0.797597
0.795656
0.795389
0.795399
0.795108
0.794509
0.794383
0.794636
0.795997
0.79933
0.801426
0.801573
0.801394
0.799969
0.79877
0.798724
0.798086
0.797312
0.797529
0.798544
0.800834
0.802108
0.801916
0.801635
0.801673
0.802022
0.80302
0.804979
0.806349
0.806462
0.806523
0.806494
0.80599
0.805759
0.806153
0.807118
0.807471
0.807255
0.806343
0.805474
0.80538
0.805499
0.805739
0.806012
0.806331
0.806977
0.808019
0.808856
0.809644
0.81025
0.810744
0.810782
0.81064
0.809935
0.808975
0.808084
0.808222
0.808916
0.809837
0.810586
0.811153
0.811291
0.811317
0.811612
0.816809
0.849816
0.937031
1.15826
0.796872
0.797105
0.797787
0.798646
0.798886
0.798852
0.798575
0.798037
0.797914
0.798061
0.798164
0.79768
0.795267
0.792223
0.791756
0.791831
0.792511
0.793881
0.794696
0.794796
0.794806
0.794543
0.794407
0.794723
0.795558
0.79605
0.796446
0.797638
0.798902
0.798995
0.798874
0.798924
0.798482
0.795236
0.791868
0.79103
0.789901
0.788305
0.78794
0.788056
0.789064
0.792054
0.796708
0.798717
0.798748
0.79838
0.798291
0.798742
0.798953
0.797689
0.795248
0.794573
0.795306
0.798183
0.79997
0.7998
0.798965
0.798696
0.798618
0.799107
0.801057
0.801979
0.802035
0.801575
0.799801
0.798663
0.798652
0.799177
0.800097
0.800674
0.800847
0.800969
0.801124
0.801471
0.802241
0.803528
0.805032
0.806449
0.807692
0.808547
0.809146
0.809654
0.809482
0.808803
0.807715
0.806512
0.806504
0.806864
0.808335
0.809588
0.810485
0.810764
0.8111
0.810943
0.810052
0.809231
0.809657
0.811591
0.820054
0.92628
0.797308
0.797271
0.797805
0.800017
0.800662
0.800674
0.800298
0.800144
0.800378
0.800617
0.800504
0.799576
0.797451
0.795853
0.79576
0.796299
0.79743
0.798419
0.798777
0.798683
0.798388
0.798029
0.797856
0.798056
0.799015
0.800764
0.802627
0.80429
0.80566
0.807423
0.810499
0.812537
0.812442
0.810046
0.805252
0.802087
0.800126
0.798355
0.796524
0.795457
0.795656
0.797074
0.799257
0.801032
0.80237
0.803664
0.805009
0.806556
0.807672
0.807079
0.804456
0.803271
0.803807
0.8056
0.806265
0.805372
0.802766
0.800788
0.799009
0.798561
0.798914
0.800491
0.801213
0.801031
0.799714
0.797185
0.796436
0.796583
0.797237
0.798134
0.798366
0.798292
0.798118
0.798231
0.798785
0.799845
0.801311
0.802586
0.803264
0.803453
0.80278
0.802636
0.802699
0.802616
0.802744
0.803238
0.804619
0.806587
0.808514
0.809529
0.810433
0.810445
0.809724
0.808494
0.807646
0.807987
0.809177
0.810016
0.810494
0.826601
0.828019
0.828705
0.829099
0.829065
0.828789
0.82899
0.830293
0.830664
0.830573
0.830573
0.830303
0.827958
0.825545
0.824805
0.825048
0.825595
0.82551
0.824539
0.822744
0.821425
0.820398
0.819696
0.819726
0.820278
0.821628
0.823737
0.825247
0.825238
0.824517
0.824539
0.826411
0.830137
0.831207
0.83074
0.829022
0.826906
0.825015
0.823459
0.821713
0.819996
0.818436
0.816406
0.812957
0.811692
0.812218
0.813286
0.813306
0.813572
0.814892
0.814927
0.81171
0.808596
0.808568
0.808864
0.808754
0.807125
0.805061
0.802261
0.799082
0.798164
0.798283
0.799433
0.800586
0.800669
0.799653
0.797469
0.796614
0.79673
0.797589
0.798803
0.800147
0.801492
0.801971
0.802437
0.802796
0.80303
0.803156
0.802888
0.801579
0.799963
0.798859
0.798277
0.798384
0.798472
0.798723
0.799444
0.801084
0.803586
0.805589
0.806241
0.806022
0.805275
0.804982
0.80511
0.806049
0.807925
0.809389
0.810041
0.810214
0.810368
0.868775
0.868658
0.86868
0.868897
0.86914
0.870406
0.872307
0.872569
0.872494
0.871711
0.870117
0.867713
0.865282
0.86356
0.862776
0.862164
0.859748
0.856167
0.855519
0.856003
0.85685
0.856896
0.855405
0.850485
0.846989
0.847034
0.847633
0.847172
0.843884
0.840173
0.840047
0.840221
0.839056
0.838641
0.841315
0.843683
0.843309
0.841878
0.841363
0.842541
0.844253
0.843263
0.837264
0.832999
0.831918
0.831502
0.831132
0.829579
0.826058
0.822483
0.820392
0.819607
0.818945
0.818257
0.818317
0.819644
0.822787
0.823677
0.822154
0.81718
0.811358
0.810334
0.811355
0.814301
0.816639
0.817131
0.816706
0.815239
0.813152
0.812364
0.812703
0.813356
0.812958
0.811603
0.809026
0.806483
0.804377
0.802182
0.80055
0.799461
0.798818
0.798341
0.798727
0.800231
0.801883
0.80364
0.805222
0.805018
0.803631
0.802111
0.800635
0.800465
0.800775
0.801306
0.802773
0.804998
0.80724
0.80766
0.806886
0.80659
0.915827
0.914349
0.913194
0.913198
0.913188
0.914122
0.917817
0.918662
0.9174
0.91582
0.915878
0.914746
0.909982
0.906644
0.90614
0.90633
0.90698
0.90794
0.910139
0.913476
0.914052
0.912777
0.911319
0.91018
0.90803
0.907187
0.907646
0.907151
0.902518
0.898285
0.896758
0.894629
0.890746
0.889671
0.889692
0.889212
0.886611
0.883766
0.883706
0.884728
0.884355
0.882046
0.881421
0.881836
0.881345
0.878644
0.877786
0.878514
0.878449
0.875123
0.868543
0.866672
0.86635
0.864876
0.861063
0.85858
0.858427
0.858738
0.858868
0.857319
0.852249
0.84731
0.843894
0.841552
0.839208
0.837344
0.835322
0.832343
0.828566
0.824512
0.821459
0.819761
0.817728
0.814198
0.810298
0.808258
0.80663
0.805168
0.805417
0.805975
0.807076
0.808852
0.811278
0.811579
0.810547
0.809511
0.807809
0.804498
0.801287
0.800429
0.800121
0.800346
0.80106
0.803016
0.805127
0.805618
0.804326
0.80271
0.802498
0.803411
0.973091
0.971983
0.97189
0.972766
0.973314
0.973437
0.973575
0.971795
0.968252
0.968286
0.96767
0.964312
0.963719
0.964909
0.965223
0.962784
0.957382
0.955685
0.956114
0.957003
0.95713
0.956915
0.953879
0.950416
0.949422
0.948653
0.947759
0.947731
0.947743
0.946789
0.943223
0.941641
0.942002
0.944526
0.945658
0.94449
0.942162
0.941533
0.940942
0.938334
0.932322
0.928509
0.926983
0.924633
0.91932
0.913311
0.911594
0.912542
0.913405
0.912094
0.910308
0.910016
0.909601
0.90795
0.903617
0.895225
0.886393
0.883809
0.884041
0.884086
0.882571
0.879791
0.877596
0.874936
0.869401
0.860953
0.858115
0.858308
0.858102
0.85589
0.850834
0.846868
0.845429
0.842966
0.842403
0.842807
0.842001
0.838909
0.836835
0.835832
0.833677
0.830376
0.826346
0.822005
0.817187
0.813149
0.808205
0.804907
0.802109
0.801795
0.80282
0.805403
0.808181
0.808764
0.807531
0.805183
0.802516
0.801434
0.801431
0.80256
1.03132
1.03201
1.03327
1.03341
1.03165
1.02688
1.02611
1.02639
1.02599
1.02625
1.02697
1.02713
1.02734
1.02777
1.02775
1.02648
1.02387
1.02211
1.02184
1.02201
1.0219
1.02088
1.01916
1.01682
1.01606
1.01498
1.01262
1.0113
1.01025
1.00875
1.0056
1.00265
1.00178
1.00057
0.998876
0.997661
0.99548
0.992845
0.991166
0.989393
0.988779
0.989294
0.989556
0.988941
0.98658
0.980655
0.974623
0.973687
0.972886
0.969095
0.962739
0.961273
0.961329
0.960979
0.959029
0.954371
0.950635
0.948304
0.943434
0.937152
0.934483
0.932624
0.931231
0.930112
0.927839
0.921912
0.914025
0.909464
0.908246
0.906579
0.901997
0.894637
0.889053
0.884669
0.880394
0.874927
0.869383
0.862944
0.856461
0.851369
0.846269
0.840543
0.835371
0.831134
0.827466
0.823471
0.823684
0.825761
0.82648
0.825386
0.824107
0.821777
0.818812
0.813441
0.807618
0.804751
0.802448
0.802602
0.804099
0.806984
1.09771
1.09791
1.09762
1.0969
1.09678
1.09599
1.09293
1.0921
1.09207
1.09155
1.09034
1.09019
1.08981
1.0879
1.08644
1.08509
1.08432
1.08373
1.08186
1.08027
1.07968
1.07938
1.0785
1.07628
1.07564
1.07571
1.07538
1.07398
1.0719
1.06813
1.0655
1.065
1.06453
1.06336
1.06158
1.05998
1.05852
1.05675
1.0543
1.05115
1.0476
1.04451
1.04155
1.03864
1.03626
1.0324
1.02783
1.02757
1.02775
1.02687
1.02362
1.0189
1.01493
1.01027
1.00225
0.99804
0.997723
0.996784
0.993064
0.987418
0.984453
0.98036
0.973066
0.967332
0.964259
0.962823
0.95964
0.952787
0.9449
0.940205
0.937308
0.93266
0.926144
0.920525
0.916396
0.911689
0.906501
0.902064
0.898072
0.892808
0.888082
0.883985
0.880999
0.878747
0.875916
0.870912
0.86472
0.859896
0.85443
0.847129
0.839391
0.831274
0.823404
0.816808
0.814441
0.814901
0.817192
0.818672
0.817952
0.813903
1.16378
1.16129
1.16082
1.16133
1.16205
1.16193
1.16069
1.16005
1.15949
1.15749
1.15622
1.15612
1.156
1.15529
1.15227
1.15073
1.15097
1.15072
1.14929
1.14782
1.14531
1.14409
1.14367
1.143
1.14189
1.13881
1.13577
1.13571
1.13576
1.13504
1.13195
1.12826
1.12641
1.12534
1.1234
1.11954
1.11644
1.1161
1.11562
1.11351
1.1096
1.10639
1.10416
1.10082
1.09835
1.09644
1.09367
1.08953
1.08521
1.08179
1.07875
1.07611
1.07362
1.07048
1.06647
1.0622
1.05839
1.05412
1.04612
1.04192
1.04152
1.03962
1.03532
1.03026
1.02238
1.01683
1.01421
1.01188
1.00753
1.00037
0.994414
0.990654
0.985483
0.979162
0.97301
0.967255
0.961431
0.955172
0.948877
0.941465
0.934628
0.926731
0.919143
0.910485
0.903286
0.895749
0.886573
0.876889
0.870211
0.864304
0.857584
0.85617
0.854236
0.853886
0.851989
0.848167
0.842404
0.834944
0.827532
0.815621
1.23777
1.23785
1.23748
1.23445
1.23232
1.23249
1.23296
1.23277
1.23214
1.23125
1.22901
1.22755
1.22788
1.22784
1.22585
1.22432
1.22289
1.22026
1.21978
1.2196
1.21859
1.2159
1.21333
1.21234
1.21172
1.21081
1.20834
1.2052
1.20423
1.20362
1.20188
1.19837
1.1947
1.19344
1.19242
1.19055
1.18772
1.18451
1.18194
1.17933
1.1763
1.17346
1.1711
1.16775
1.16214
1.15889
1.15735
1.15518
1.15157
1.14717
1.14325
1.13965
1.13576
1.13133
1.12616
1.12193
1.11879
1.11516
1.1098
1.10365
1.09908
1.09349
1.088
1.08414
1.07934
1.07461
1.06687
1.05797
1.05285
1.04957
1.04409
1.03731
1.03036
1.02295
1.01548
1.00887
1.0021
0.995082
0.987078
0.979391
0.972463
0.966457
0.960208
0.953193
0.945154
0.938773
0.934725
0.928412
0.922425
0.917869
0.912343
0.905269
0.89767
0.889354
0.877961
0.867773
0.857046
0.846464
0.838339
0.836652
1.3157
1.31507
1.31442
1.31383
1.31275
1.31106
1.3104
1.30945
1.30856
1.30828
1.30677
1.30469
1.30439
1.3041
1.30323
1.29977
1.29828
1.29813
1.29699
1.29514
1.2926
1.29038
1.28911
1.28831
1.28697
1.28472
1.28242
1.28037
1.27878
1.27734
1.27557
1.27172
1.26585
1.2645
1.26416
1.26302
1.26025
1.25608
1.25241
1.24957
1.24628
1.24327
1.24056
1.238
1.23271
1.22615
1.2233
1.22197
1.2195
1.21443
1.20855
1.20464
1.20121
1.19666
1.19118
1.18659
1.18226
1.17752
1.17138
1.16388
1.15937
1.15584
1.15073
1.14461
1.13678
1.13113
1.12629
1.12051
1.11275
1.10597
1.10066
1.0943
1.08777
1.08038
1.07266
1.0663
1.06022
1.05313
1.04564
1.03861
1.03115
1.02405
1.01619
1.00887
1.00032
0.990192
0.981275
0.972501
0.962222
0.951609
0.94143
0.931277
0.919972
0.911333
0.90281
0.89536
0.892151
0.888873
0.885151
0.875774
1.40186
1.40072
1.40022
1.39931
1.39678
1.39504
1.395
1.39501
1.39357
1.38982
1.38868
1.38894
1.38887