/*--------------------------------*- C++ -*----------------------------------*\
  =========                 |
  \\      /  F ield         | OpenFOAM: The Open Source CFD Toolbox
   \\    /   O peration     | Website:  https://openfoam.org
    \\  /    A nd           | Version:  7
     \\/     M anipulation  |
\*---------------------------------------------------------------------------*/
FoamFile
{
    version     2.0;
    format      ascii;
    class       volScalarField;
    location    "6.5";
    object      T;
}
// * * * * * * * * * * * * * * * * * * * * * * * * * * * * * * * * * * * * * //

dimensions      [0 0 0 1 0 0 0];

internalField   nonuniform List<scalar> 
90000
(
0.839354
0.851703
0.864336
0.876108
0.88707
0.89718
0.906687
0.915563
0.924054
0.932032
0.939781
0.947117
0.954307
0.961124
0.96791
0.974323
0.980758
0.986798
0.992915
0.998607
1.00444
1.00974
1.01522
1.02013
1.02524
1.0297
1.03446
1.03841
1.0426
1.04588
1.04949
1.05207
1.05497
1.0569
1.05848
1.06002
1.06085
1.06052
1.06026
1.05976
1.05897
1.05743
1.05494
1.05282
1.04946
1.04767
1.04583
1.0459
1.04631
1.04702
1.04844
1.05014
1.05133
1.05161
1.05191
1.05214
1.05184
1.05111
1.05013
1.04908
1.0483
1.04738
1.0466
1.04664
1.04717
1.04775
1.04875
1.05021
1.0508
1.05033
1.04896
1.04741
1.04579
1.04478
1.04481
1.0453
1.04633
1.04614
1.04543
1.04422
1.04326
1.0426
1.0429
1.04371
1.04357
1.04319
1.04264
1.04224
1.04268
1.04302
1.04277
1.04224
1.04163
1.04136
1.0414
1.04121
1.04091
1.0406
1.0403
1.03976
0.827762
0.827949
0.828363
0.829051
0.830077
0.831485
0.833261
0.835461
0.838057
0.841103
0.844518
0.848406
0.85265
0.857373
0.86237
0.867871
0.873577
0.87979
0.886091
0.892883
0.899651
0.906878
0.913898
0.921406
0.928632
0.936271
0.943562
0.951226
0.958366
0.965771
0.972716
0.979779
0.986397
0.992769
0.999152
1.00439
1.01027
1.01467
1.01914
1.02248
1.02602
1.02821
1.03001
1.03287
1.03928
1.04319
1.04669
1.04826
1.04954
1.05011
1.05019
1.0499
1.04892
1.04782
1.04695
1.04625
1.04582
1.04528
1.04447
1.04358
1.04364
1.04411
1.04505
1.04619
1.04718
1.04742
1.04703
1.04651
1.04582
1.04512
1.04463
1.04364
1.04386
1.04394
1.04417
1.04405
1.04359
1.04278
1.04207
1.04129
1.04146
1.04174
1.04197
1.04179
1.04142
1.04085
1.04092
1.04126
1.04154
1.04125
1.0409
1.04045
1.04048
1.04053
1.04021
1.03998
1.03978
1.03959
1.0393
1.03884
0.824895
0.824813
0.824723
0.82465
0.82454
0.824415
0.824276
0.824122
0.823983
0.823879
0.823776
0.823664
0.823601
0.823588
0.823607
0.823674
0.82381
0.824049
0.82446
0.825076
0.825897
0.827027
0.828446
0.830338
0.832643
0.835661
0.83918
0.84371
0.848742
0.855038
0.861767
0.870013
0.878514
0.888632
0.898774
0.910402
0.921801
0.934436
0.946695
0.95913
0.971597
0.983111
0.996037
1.00581
1.01318
1.0177
1.02219
1.02488
1.02749
1.02909
1.03066
1.03174
1.03258
1.03306
1.03301
1.03255
1.03212
1.03241
1.03366
1.03548
1.03786
1.03974
1.04102
1.04099
1.04058
1.03937
1.03778
1.03638
1.03556
1.03515
1.03604
1.03797
1.03969
1.03959
1.03903
1.0377
1.03626
1.03497
1.03541
1.0369
1.03778
1.03761
1.03702
1.03638
1.03605
1.03656
1.03737
1.03757
1.03733
1.03689
1.03693
1.03717
1.03726
1.03708
1.03674
1.03669
1.03665
1.03654
1.0363
1.03606
0.820837
0.820783
0.820726
0.820661
0.820582
0.820495
0.820397
0.820285
0.82017
0.820076
0.819994
0.819903
0.819802
0.819704
0.819606
0.819511
0.819425
0.819383
0.819298
0.819191
0.819068
0.818937
0.818799
0.81865
0.818522
0.81845
0.818408
0.818428
0.8185
0.818671
0.819007
0.819631
0.820558
0.822008
0.823936
0.826857
0.830539
0.836033
0.842522
0.851659
0.861717
0.874908
0.888751
0.905115
0.920218
0.935735
0.950229
0.962546
0.974809
0.983066
0.992436
0.997857
1.00453
1.00818
1.01212
1.01394
1.01855
1.02262
1.02717
1.02984
1.03187
1.03322
1.03342
1.03308
1.03138
1.02906
1.02701
1.02546
1.02591
1.0276
1.02967
1.03169
1.0329
1.03249
1.03095
1.02932
1.02796
1.02868
1.03003
1.03114
1.0317
1.03124
1.03039
1.02959
1.02987
1.03064
1.03142
1.03139
1.03112
1.03101
1.03123
1.03169
1.03189
1.0318
1.0316
1.0316
1.03167
1.03167
1.03161
1.03164
0.818129
0.81809
0.818045
0.817993
0.817942
0.817899
0.817861
0.817818
0.81777
0.817716
0.817645
0.817569
0.817497
0.817427
0.817357
0.817288
0.817234
0.817176
0.817096
0.817009
0.816955
0.816925
0.816886
0.816838
0.816797
0.81676
0.816726
0.816718
0.816724
0.816749
0.816803
0.816863
0.816901
0.816909
0.816917
0.816955
0.81706
0.817254
0.817544
0.818035
0.818781
0.820166
0.822212
0.825963
0.830952
0.839602
0.849758
0.865101
0.880576
0.900334
0.918619
0.938251
0.956532
0.972273
0.987885
0.999152
1.00863
1.01282
1.01683
1.01944
1.02141
1.02243
1.02215
1.02006
1.01607
1.01649
1.01809
1.02035
1.02262
1.02412
1.02447
1.02492
1.02432
1.02291
1.02261
1.0231
1.02439
1.02526
1.02557
1.02518
1.02458
1.02457
1.02471
1.02494
1.02564
1.0261
1.02601
1.02569
1.02565
1.02592
1.02627
1.02662
1.02671
1.02683
1.02697
1.02705
1.02713
1.02708
1.02712
1.0273
0.816162
0.816145
0.816125
0.816099
0.816087
0.816092
0.816105
0.816101
0.81609
0.816072
0.816047
0.816019
0.816001
0.816002
0.816007
0.816003
0.815987
0.815957
0.815934
0.815933
0.815946
0.815965
0.815983
0.816006
0.816017
0.81602
0.816024
0.816036
0.816062
0.816102
0.816141
0.816191
0.816244
0.81629
0.816348
0.81641
0.816458
0.816516
0.816608
0.816736
0.816867
0.816994
0.817117
0.817229
0.817329
0.817537
0.817991
0.819083
0.820937
0.824925
0.830638
0.841478
0.854201
0.874088
0.893763
0.918151
0.938538
0.956638
0.972494
0.982361
0.993049
0.996808
1.00195
1.00379
1.00988
1.01501
1.02072
1.02321
1.02394
1.02379
1.02275
1.0194
1.01662
1.01687
1.01808
1.02096
1.02426
1.02445
1.02411
1.02278
1.02107
1.02116
1.02181
1.02291
1.02367
1.02323
1.02276
1.02239
1.0226
1.02312
1.02362
1.02384
1.0237
1.02363
1.02378
1.02391
1.02389
1.02393
1.02407
1.02433
0.815517
0.815529
0.815538
0.815546
0.815555
0.81557
0.815585
0.8156
0.815616
0.815628
0.815653
0.815673
0.815678
0.815697
0.815726
0.815727
0.815728
0.815749
0.815778
0.815776
0.815779
0.815791
0.815827
0.815892
0.815918
0.815926
0.815934
0.815951
0.815992
0.816065
0.81609
0.816079
0.816063
0.816083
0.816147
0.816209
0.816254
0.816304
0.816379
0.816471
0.816557
0.816628
0.816694
0.816778
0.816934
0.817148
0.817264
0.81726
0.817264
0.817301
0.817417
0.817751
0.818455
0.820262
0.823379
0.830613
0.840668
0.859086
0.878692
0.904984
0.929113
0.95323
0.975075
0.992231
1.01007
1.01631
1.02111
1.02359
1.02357
1.02138
1.01465
1.0131
1.01436
1.01786
1.02152
1.0231
1.02384
1.02339
1.02177
1.0196
1.01968
1.02078
1.02219
1.02305
1.02289
1.02206
1.02104
1.02115
1.02174
1.0223
1.02236
1.02229
1.02235
1.02257
1.02287
1.02284
1.02252
1.02252
1.02266
1.02303
0.815696
0.81571
0.815718
0.815728
0.815746
0.815773
0.815807
0.815839
0.815874
0.815912
0.815949
0.815978
0.816
0.816019
0.816043
0.816079
0.816112
0.816114
0.816112
0.816113
0.81612
0.816135
0.816161
0.816202
0.816254
0.816279
0.816297
0.816329
0.816392
0.81646
0.816493
0.816499
0.816506
0.816523
0.81655
0.816576
0.816605
0.816644
0.8167
0.81675
0.816792
0.816842
0.816904
0.816978
0.817071
0.817167
0.81719
0.817181
0.817152
0.817096
0.81703
0.81699
0.816946
0.816843
0.816823
0.816861
0.817061
0.817994
0.820171
0.825913
0.835036
0.853217
0.873947
0.903644
0.929942
0.9557
0.977131
0.988787
1.00066
1.00408
1.00812
1.01563
1.02142
1.02466
1.02499
1.02472
1.02232
1.01888
1.01908
1.01969
1.02173
1.02384
1.02378
1.02343
1.02195
1.02078
1.0208
1.02142
1.02236
1.02235
1.02202
1.02168
1.02188
1.02228
1.02249
1.02236
1.02216
1.02217
1.02236
1.02266
0.816214
0.816238
0.81626
0.816283
0.816306
0.816326
0.816349
0.816377
0.816407
0.816436
0.816465
0.816503
0.816543
0.816559
0.816562
0.816571
0.816591
0.81661
0.816633
0.816662
0.816683
0.816704
0.816741
0.816789
0.816823
0.816841
0.816856
0.81689
0.81692
0.816921
0.816913
0.816886
0.816867
0.816865
0.816863
0.816864
0.816871
0.816886
0.816897
0.816907
0.816927
0.81696
0.817013
0.817082
0.817166
0.817213
0.8172
0.817169
0.817128
0.817076
0.817
0.816898
0.816764
0.816638
0.81649
0.816225
0.81598
0.815934
0.815958
0.816088
0.816455
0.81746
0.819543
0.825359
0.835191
0.85642
0.881559
0.915363
0.946268
0.975425
1.00379
1.01649
1.02247
1.0253
1.02504
1.02169
1.01389
1.01516
1.0181
1.02264
1.02598
1.02583
1.02482
1.02252
1.02081
1.02098
1.02195
1.02309
1.023
1.02235
1.02153
1.02164
1.02216
1.02248
1.02245
1.02203
1.02204
1.02221
1.02262
1.02278
0.816681
0.816691
0.816702
0.816713
0.816725
0.816739
0.816757
0.816776
0.816795
0.816813
0.81683
0.816852
0.816885
0.816911
0.816922
0.816932
0.816952
0.816979
0.817006
0.817024
0.817053
0.817101
0.817143
0.817167
0.817168
0.817166
0.817168
0.817182
0.817188
0.817184
0.817166
0.817134
0.817107
0.817087
0.817066
0.817039
0.817008
0.816979
0.816944
0.816906
0.816903
0.816916
0.816947
0.816995
0.817047
0.817048
0.816999
0.816888
0.816742
0.816634
0.816557
0.816475
0.816405
0.816337
0.816197
0.815905
0.815624
0.815542
0.815541
0.815583
0.815645
0.815681
0.815727
0.815806
0.816076
0.817136
0.820161
0.828701
0.844421
0.872803
0.906958
0.9425
0.96877
0.989166
1.00028
1.00655
1.01103
1.022
1.02533
1.02673
1.02665
1.02435
1.02139
1.02133
1.02153
1.02302
1.0244
1.02425
1.02292
1.02181
1.02182
1.02235
1.02283
1.02278
1.02221
1.02208
1.02228
1.02281
1.02302
1.02297
0.816972
0.816974
0.816976
0.816981
0.816992
0.817009
0.817023
0.817033
0.81704
0.817043
0.817048
0.817056
0.817075
0.817104
0.817136
0.817171
0.817194
0.817207
0.817222
0.817241
0.817284
0.817331
0.817339
0.817333
0.817321
0.817306
0.817306
0.817309
0.817308
0.817301
0.817279
0.817238
0.817192
0.817149
0.817102
0.817054
0.817004
0.816954
0.816926
0.816886
0.816821
0.816736
0.81667
0.816638
0.816595
0.816536
0.816427
0.816272
0.816151
0.816086
0.816081
0.816085
0.816074
0.816048
0.815956
0.815707
0.815446
0.815377
0.815378
0.815397
0.815436
0.815501
0.815612
0.815788
0.815792
0.815783
0.815809
0.815951
0.816615
0.818947
0.825916
0.841997
0.870548
0.908172
0.944169
0.982547
1.0084
1.02223
1.0248
1.02625
1.02305
1.01662
1.01759
1.02024
1.02389
1.02575
1.02552
1.02389
1.02164
1.02173
1.0226
1.02342
1.02332
1.02248
1.02175
1.02204
1.02296
1.02331
1.02327
1.02305
0.817092
0.817093
0.817095
0.817099
0.817107
0.817112
0.817113
0.817113
0.817109
0.817093
0.817085
0.81709
0.817119
0.817202
0.817225
0.817223
0.817223
0.817235
0.817264
0.817267
0.817262
0.817264
0.817265
0.81725
0.8172
0.817165
0.817144
0.817133
0.81713
0.817122
0.817094
0.817043
0.817002
0.816954
0.816881
0.81687
0.816857
0.816812
0.816702
0.816567
0.816454
0.816369
0.81628
0.816167
0.816038
0.815889
0.81573
0.815626
0.815593
0.815605
0.815685
0.815814
0.815829
0.815817
0.815759
0.815599
0.815382
0.815268
0.81525
0.815259
0.815306
0.815389
0.815536
0.815741
0.815848
0.815884
0.815893
0.815915
0.815881
0.81588
0.815985
0.816499
0.818999
0.825494
0.845395
0.874759
0.918765
0.956201
0.977892
1.00042
1.00377
1.01494
1.01966
1.02524
1.02605
1.02581
1.02361
1.02152
1.02172
1.02283
1.0242
1.02397
1.02255
1.02173
1.02191
1.0229
1.02343
1.02348
1.02323
1.02307
0.817225
0.817214
0.8172
0.817186
0.817173
0.817163
0.817151
0.817123
0.817068
0.817027
0.817027
0.817073
0.817159
0.817164
0.817161
0.817141
0.817139
0.817154
0.817156
0.817161
0.817197
0.817247
0.817255
0.81724
0.817196
0.817153
0.817127
0.81712
0.817119
0.817111
0.817074
0.817012
0.816944
0.816876
0.816799
0.816667
0.816494
0.816343
0.816255
0.816199
0.816156
0.816106
0.816009
0.815859
0.815689
0.815503
0.81542
0.815393
0.815389
0.815407
0.815497
0.815637
0.81569
0.815689
0.815667
0.815627
0.815549
0.815445
0.815367
0.815323
0.815318
0.815367
0.815509
0.815693
0.815826
0.815876
0.815874
0.815862
0.815829
0.815803
0.815777
0.815731
0.815661
0.815715
0.816431
0.818988
0.830807
0.851657
0.892575
0.935153
0.973093
1.01141
1.01866
1.02526
1.02462
1.02073
1.01764
1.01958
1.02319
1.02508
1.02473
1.02283
1.021
1.02133
1.02296
1.02374
1.0236
1.02296
1.02286
1.02301
0.817195
0.817193
0.817193
0.817191
0.817177
0.817146
0.817093
0.817031
0.817008
0.817004
0.817014
0.817079
0.817165
0.817169
0.817167
0.817165
0.817147
0.817099
0.817071
0.817047
0.816995
0.816911
0.816818
0.816733
0.816658
0.81657
0.816475
0.81642
0.816409
0.816394
0.816344
0.81623
0.816101
0.816038
0.815999
0.81594
0.815871
0.815867
0.815918
0.815972
0.815968
0.815948
0.815869
0.815729
0.815536
0.815353
0.815295
0.815293
0.815297
0.815323
0.815413
0.815539
0.815648
0.815719
0.815753
0.815783
0.815811
0.815814
0.815792
0.815715
0.81564
0.815624
0.815622
0.815652
0.81578
0.815839
0.815836
0.815819
0.81577
0.815726
0.815691
0.815627
0.815535
0.815434
0.815391
0.815415
0.815658
0.816789
0.822737
0.836763
0.873536
0.916222
0.954843
0.99388
0.998952
1.00812
1.01421
1.02429
1.02597
1.02545
1.02232
1.02054
1.02089
1.02275
1.02453
1.02409
1.0226
1.0223
1.02257
1.02305
0.81687
0.81683
0.816774
0.816685
0.81645
0.816272
0.816258
0.81629
0.816365
0.816379
0.816374
0.816398
0.816412
0.816409
0.816404
0.816396
0.816373
0.816305
0.816242
0.816215
0.816177
0.816106
0.815999
0.815865
0.815779
0.815713
0.815617
0.815548
0.815534
0.815529
0.815494
0.815358
0.815309
0.815317
0.815389
0.815462
0.815478
0.815507
0.815603
0.815779
0.815882
0.815907
0.815902
0.815852
0.815703
0.815489
0.815366
0.815363
0.815399
0.815486
0.815596
0.815688
0.815769
0.815835
0.815868
0.815901
0.815998
0.816063
0.816048
0.816017
0.815931
0.815807
0.815759
0.815784
0.815925
0.815953
0.81593
0.815867
0.815777
0.815726
0.815696
0.815635
0.815513
0.815367
0.815327
0.815366
0.815428
0.815471
0.815593
0.816072
0.819392
0.828451
0.860079
0.901895
0.948771
0.99798
1.01186
1.02354
1.02352
1.01934
1.01653
1.01886
1.0231
1.02484
1.02432
1.02242
1.02161
1.02206
1.02291
1.02289
0.815816
0.815508
0.815382
0.815348
0.815347
0.815362
0.815405
0.815538
0.815793
0.815865
0.815872
0.815874
0.815873
0.815891
0.815901
0.815899
0.815901
0.815872
0.815796
0.815762
0.815741
0.815686
0.815556
0.8154
0.815307
0.815246
0.815167
0.815081
0.815048
0.815029
0.814976
0.814891
0.814878
0.814893
0.814979
0.815124
0.815218
0.815284
0.815372
0.815503
0.815675
0.815839
0.815909
0.815883
0.815756
0.815549
0.815405
0.815406
0.815496
0.815677
0.815797
0.815814
0.815801
0.815791
0.815797
0.815799
0.815828
0.815992
0.816062
0.816054
0.816046
0.815954
0.81576
0.815697
0.815758
0.815887
0.815904
0.815852
0.81577
0.81574
0.815686
0.815559
0.815406
0.815389
0.81544
0.815567
0.815619
0.815611
0.815624
0.815635
0.815667
0.815832
0.817635
0.823868
0.852284
0.891153
0.93888
0.983219
0.994047
1.0055
1.01361
1.02458
1.02609
1.02544
1.02165
1.0203
1.02114
1.02302
1.02305
1.02237
0.814822
0.814806
0.814776
0.814762
0.814767
0.81481
0.814921
0.815103
0.815343
0.815563
0.81569
0.815746
0.815795
0.815832
0.815835
0.815823
0.815825
0.815824
0.815757
0.815721
0.815717
0.815704
0.815662
0.815547
0.815399
0.815287
0.815214
0.815162
0.815113
0.81504
0.814922
0.814842
0.814838
0.814863
0.815005
0.815247
0.815294
0.81531
0.815369
0.815494
0.815652
0.815811
0.815948
0.815946
0.815827
0.815578
0.815449
0.815456
0.815602
0.815914
0.815972
0.815976
0.815944
0.815783
0.815703
0.815687
0.815705
0.815874
0.816093
0.816102
0.816101
0.816032
0.815776
0.81552
0.815518
0.815603
0.815676
0.815669
0.815616
0.815561
0.815511
0.815421
0.815355
0.815377
0.815507
0.81567
0.815687
0.815653
0.815628
0.815618
0.815619
0.815529
0.815233
0.815122
0.816375
0.821463
0.846869
0.884096
0.935516
0.991956
1.01085
1.02385
1.02333
1.01881
1.01737
1.01995
1.02307
1.02346
1.02254
1.02153
0.814514
0.814559
0.814561
0.81455
0.814538
0.814543
0.814577
0.814677
0.814889
0.815203
0.815444
0.81556
0.815648
0.815734
0.815845
0.815958
0.815979
0.815963
0.815862
0.815806
0.815827
0.815843
0.815871
0.815875
0.8158
0.815608
0.815446
0.815369
0.815305
0.815195
0.815059
0.814958
0.814872
0.814835
0.81488
0.815133
0.815267
0.815272
0.815302
0.815405
0.815559
0.81572
0.815871
0.815888
0.815756
0.815418
0.815269
0.815275
0.815471
0.8159
0.815992
0.816004
0.816004
0.815906
0.815647
0.81552
0.815475
0.815514
0.815708
0.815892
0.815953
0.81591
0.815683
0.815386
0.815289
0.815326
0.815338
0.815324
0.815327
0.815403
0.81547
0.815462
0.815456
0.815486
0.815601
0.815682
0.815677
0.815644
0.815642
0.815614
0.815449
0.815183
0.814866
0.814707
0.814712
0.814807
0.815995
0.82059
0.844394
0.883319
0.933769
0.984468
0.993629
1.00616
1.01476
1.02516
1.02496
1.02271
1.02024
1.02106
0.814389
0.814414
0.814471
0.814572
0.814677
0.814773
0.814919
0.81502
0.815199
0.815493
0.815567
0.81558
0.815605
0.815646
0.815733
0.815882
0.81594
0.81591
0.815844
0.815856
0.815902
0.815897
0.815929
0.81598
0.815956
0.815795
0.815669
0.81564
0.815593
0.815438
0.815196
0.815088
0.815061
0.815034
0.815076
0.815235
0.815281
0.815303
0.815381
0.815516
0.815577
0.815612
0.81571
0.815729
0.815584
0.81531
0.815149
0.815146
0.815324
0.815834
0.81604
0.816065
0.816044
0.815982
0.815839
0.815562
0.81516
0.814939
0.814974
0.815252
0.815633
0.815685
0.815519
0.81534
0.815249
0.8152
0.81516
0.815107
0.815125
0.815319
0.815513
0.815541
0.815553
0.815593
0.815648
0.815617
0.815586
0.815552
0.815436
0.815221
0.81494
0.814747
0.814653
0.814675
0.814773
0.814884
0.815033
0.81517
0.816215
0.820646
0.844507
0.88412
0.94019
0.996787
1.01232
1.02365
1.02212
1.01562
1.01795
1.02238
0.81409
0.814099
0.814136
0.814226
0.814432
0.81452
0.814563
0.814699
0.814901
0.814985
0.814978
0.814965
0.814966
0.814992
0.815086
0.815197
0.815294
0.815354
0.815398
0.815545
0.815625
0.815621
0.815661
0.815703
0.815685
0.815559
0.815419
0.815344
0.815223
0.814894
0.814633
0.81458
0.814624
0.814858
0.814954
0.814957
0.814935
0.815099
0.815429
0.815532
0.815499
0.815397
0.815393
0.815346
0.815119
0.81491
0.81474
0.814693
0.814875
0.815475
0.815867
0.815959
0.81593
0.815909
0.815779
0.81534
0.814586
0.814254
0.814335
0.814671
0.814927
0.814985
0.815059
0.815169
0.815298
0.815312
0.815198
0.815121
0.815152
0.815329
0.815485
0.815514
0.815539
0.815552
0.815534
0.815449
0.815246
0.815025
0.81478
0.814578
0.814457
0.814492
0.814589
0.814853
0.814978
0.815077
0.815188
0.815183
0.815105
0.815083
0.815928
0.820677
0.848013
0.891544
0.944257
0.988944
0.998354
1.00949
1.0227
1.02374
0.812285
0.812365
0.812549
0.812939
0.813224
0.813311
0.813321
0.813333
0.813352
0.813337
0.813331
0.813342
0.813403
0.813672
0.814172
0.814273
0.814223
0.81419
0.814281
0.814845
0.815183
0.815188
0.815091
0.814801
0.814643
0.814661
0.814638
0.814466
0.813938
0.813531
0.813459
0.813464
0.81367
0.813752
0.813863
0.814167
0.814653
0.81529
0.815637
0.815665
0.815608
0.815435
0.815063
0.814701
0.814558
0.814411
0.814071
0.813744
0.813803
0.81419
0.814674
0.815019
0.815376
0.815574
0.815457
0.814779
0.813964
0.813906
0.814158
0.814392
0.814352
0.814247
0.814337
0.814864
0.815352
0.815438
0.81538
0.815285
0.8153
0.815358
0.81543
0.815467
0.81548
0.815468
0.815352
0.814974
0.814461
0.814177
0.814092
0.81416
0.814289
0.814486
0.81482
0.815068
0.815118
0.815181
0.815202
0.815157
0.814893
0.814573
0.814451
0.814561
0.816023
0.822711
0.85338
0.900092
0.959958
1.00506
1.02133
1.02154
0.810579
0.810669
0.811012
0.811559
0.811717
0.811741
0.811745
0.811692
0.811537
0.811517
0.811538
0.811644
0.811811
0.81184
0.811723
0.811655
0.811715
0.811889
0.812249
0.812772
0.812955
0.812955
0.812832
0.812527
0.812348
0.812244
0.81218
0.812097
0.811832
0.811428
0.811377
0.811464
0.811475
0.811392
0.811531
0.812172
0.812978
0.813494
0.813823
0.814138
0.81431
0.81429
0.8141
0.813789
0.813484
0.812916
0.812262
0.812096
0.812191
0.812485
0.812657
0.812818
0.813213
0.813762
0.813788
0.813496
0.813465
0.813678
0.814034
0.814121
0.814027
0.81376
0.81377
0.814293
0.815133
0.815368
0.815307
0.815177
0.815186
0.815237
0.81517
0.814998
0.814892
0.814773
0.814505
0.814047
0.81365
0.813632
0.813752
0.81399
0.814372
0.814738
0.815067
0.815108
0.815099
0.815121
0.815043
0.814716
0.814302
0.814255
0.814309
0.814545
0.814811
0.815081
0.816766
0.825977
0.86104
0.914988
0.96446
0.999766
0.811584
0.811652
0.811711
0.811903
0.812499
0.812751
0.812752
0.812756
0.812665
0.812291
0.81218
0.81213
0.811953
0.811478
0.811194
0.811144
0.811117
0.811096
0.811194
0.811602
0.811756
0.811766
0.811767
0.81178
0.811742
0.81145
0.8111
0.810926
0.810806
0.81055
0.81049
0.810485
0.810251
0.809543
0.809444
0.809451
0.809339
0.809071
0.808974
0.809053
0.809558
0.810877
0.811626
0.811646
0.811559
0.810943
0.810523
0.810568
0.810388
0.810145
0.810237
0.810631
0.811499
0.811848
0.811723
0.811611
0.811646
0.811831
0.812304
0.813134
0.813543
0.813524
0.813524
0.813517
0.813362
0.813324
0.813504
0.813805
0.813867
0.813752
0.813361
0.81302
0.812982
0.813019
0.813094
0.813185
0.813303
0.81355
0.81396
0.814287
0.814596
0.814847
0.815042
0.815039
0.814966
0.814663
0.814259
0.813861
0.813907
0.814163
0.814504
0.814787
0.815025
0.815089
0.815088
0.815204
0.817491
0.832235
0.868905
0.960517
0.810035
0.810114
0.810372
0.810699
0.810784
0.810768
0.81065
0.810411
0.810334
0.810388
0.810431
0.810248
0.809328
0.80799
0.807657
0.807678
0.807937
0.808475
0.808824
0.808904
0.808934
0.808878
0.808839
0.808955
0.809234
0.80936
0.809465
0.80987
0.810424
0.81054
0.810534
0.810598
0.81046
0.809252
0.807937
0.807577
0.807104
0.806396
0.806162
0.806194
0.806577
0.807788
0.809685
0.810428
0.810425
0.810266
0.81025
0.810505
0.810659
0.810213
0.809254
0.808886
0.809139
0.810207
0.810854
0.810778
0.810484
0.81045
0.810433
0.810616
0.811332
0.811592
0.811602
0.811425
0.810732
0.810268
0.810254
0.810435
0.810765
0.810986
0.811059
0.811111
0.81117
0.811299
0.811593
0.812099
0.812701
0.81326
0.813761
0.814079
0.81431
0.814481
0.814398
0.814106
0.813653
0.813186
0.813172
0.813314
0.813897
0.814396
0.814735
0.814843
0.814985
0.814925
0.814564
0.81422
0.814377
0.815164
0.818798
0.86912
0.809765
0.809753
0.809966
0.810837
0.811058
0.81106
0.810902
0.810838
0.810932
0.81102
0.810968
0.810562
0.809676
0.80912
0.809106
0.809354
0.809856
0.8103
0.810461
0.81043
0.81033
0.810203
0.810138
0.810223
0.810619
0.811306
0.811961
0.812498
0.812964
0.813674
0.81508
0.816212
0.816231
0.815336
0.813399
0.811901
0.810896
0.810055
0.809264
0.808852
0.808949
0.809573
0.810482
0.811145
0.811608
0.812079
0.812648
0.813424
0.814016
0.813794
0.812707
0.812104
0.812293
0.812983
0.813228
0.81286
0.811824
0.811096
0.810413
0.810169
0.810281
0.810858
0.811133
0.811065
0.810557
0.809553
0.809231
0.809283
0.809537
0.809906
0.810011
0.809986
0.809909
0.809947
0.810155
0.810568
0.811154
0.811652
0.811922
0.811943
0.811672
0.811587
0.811593
0.811545
0.811598
0.811805
0.812377
0.813183
0.813969
0.814359
0.814706
0.814711
0.814423
0.813933
0.813574
0.8137
0.814162
0.814487
0.814679
0.821725
0.822264
0.822509
0.82257
0.822526
0.822322
0.822363
0.822793
0.822874
0.822821
0.822816
0.82271
0.821777
0.820872
0.820614
0.820717
0.820922
0.82088
0.820477
0.819739
0.819166
0.8187
0.818376
0.818374
0.818539
0.818942
0.819626
0.820245
0.820274
0.820089
0.820149
0.821055
0.822817
0.823378
0.823202
0.8225
0.82156
0.820685
0.819987
0.819248
0.818572
0.818003
0.817288
0.815939
0.815197
0.815331
0.815659
0.815742
0.815995
0.816693
0.816708
0.815321
0.814049
0.814049
0.81419
0.81415
0.813491
0.812651
0.811521
0.81026
0.809876
0.809916
0.810365
0.810822
0.810855
0.810448
0.809591
0.809273
0.809317
0.809638
0.810088
0.810609
0.811159
0.811352
0.81153
0.811656
0.811732
0.811777
0.811669
0.811132
0.810461
0.810011
0.809771
0.809815
0.809855
0.809964
0.81027
0.810957
0.811977
0.812786
0.813015
0.812915
0.81261
0.812483
0.812533
0.81291
0.813643
0.814224
0.814482
0.814552
0.814575
0.837311
0.83728
0.837296
0.837405
0.837522
0.837998
0.838814
0.839059
0.839041
0.838759
0.838226
0.837491
0.836729
0.836087
0.835758
0.835506
0.834541
0.833192
0.83299
0.833196
0.833545
0.83356
0.832922
0.830791
0.829216
0.829209
0.82946
0.829295
0.828025
0.826561
0.826512
0.826588
0.826137
0.825968
0.827025
0.827861
0.827664
0.827086
0.826958
0.827514
0.828334
0.828002
0.825745
0.823918
0.823314
0.823121
0.822999
0.822434
0.821092
0.819675
0.818784
0.818427
0.818146
0.817899
0.817937
0.818494
0.819763
0.820116
0.819525
0.817581
0.815242
0.814785
0.815158
0.816278
0.817181
0.817392
0.817251
0.816687
0.815802
0.815431
0.815546
0.815801
0.815649
0.815117
0.814084
0.813062
0.81222
0.811344
0.810678
0.810233
0.809971
0.80981
0.809977
0.810598
0.811267
0.811978
0.812614
0.812522
0.811943
0.8113
0.810676
0.810611
0.810747
0.810973
0.811582
0.812456
0.813348
0.813482
0.813163
0.812989
0.855632
0.855062
0.854607
0.854599
0.854589
0.854931
0.8563
0.856597
0.856106
0.855535
0.855587
0.855212
0.853516
0.852077
0.851747
0.85181
0.852046
0.852383
0.853158
0.854293
0.854427
0.853874
0.853281
0.852885
0.852251
0.852153
0.852379
0.852175
0.850289
0.848718
0.848288
0.847636
0.846278
0.845871
0.845878
0.845688
0.844669
0.843514
0.843463
0.843804
0.843627
0.842619
0.842233
0.842331
0.842074
0.841023
0.840857
0.841299
0.841387
0.840291
0.837805
0.83691
0.836708
0.836057
0.834472
0.833412
0.833347
0.833511
0.833625
0.83309
0.83119
0.829193
0.827734
0.826778
0.82586
0.825157
0.824403
0.823248
0.821747
0.82013
0.818929
0.818281
0.817505
0.81613
0.814592
0.813801
0.81319
0.812624
0.812728
0.812955
0.813389
0.814098
0.815041
0.815122
0.814692
0.814257
0.813562
0.812234
0.81095
0.810567
0.810439
0.810534
0.810835
0.811632
0.812509
0.812648
0.812095
0.811409
0.811279
0.811642
0.876395
0.876
0.875965
0.876281
0.876482
0.876529
0.87657
0.875859
0.874548
0.87462
0.874487
0.87342
0.87322
0.873697
0.873857
0.873059
0.871121
0.870304
0.870423
0.870677
0.870685
0.870593
0.869435
0.868175
0.867855
0.8676
0.86731
0.86732
0.86734
0.867027
0.865728
0.865018
0.865119
0.865977
0.866312
0.865833
0.864984
0.864841
0.864689
0.86381
0.861662
0.860268
0.859691
0.858794
0.856785
0.854548
0.853906
0.854267
0.854565
0.854039
0.853356
0.853281
0.853167
0.852608
0.851017
0.84781
0.844384
0.843388
0.843483
0.843497
0.842901
0.84183
0.841006
0.840002
0.837873
0.834597
0.833515
0.833592
0.833515
0.832667
0.830708
0.829161
0.828599
0.82765
0.827432
0.82758
0.827253
0.826005
0.825126
0.824695
0.823815
0.822491
0.82089
0.819171
0.817249
0.81562
0.813618
0.812311
0.811222
0.811126
0.811533
0.81255
0.813664
0.813856
0.81335
0.812377
0.811258
0.810808
0.810807
0.811273
0.897175
0.89743
0.897898
0.897958
0.897369
0.895739
0.895463
0.895551
0.895396
0.895477
0.895714
0.895748
0.895797
0.895905
0.895886
0.895426
0.894487
0.893858
0.893774
0.89385
0.893825
0.893495
0.89293
0.892138
0.891866
0.89147
0.89062
0.890143
0.889757
0.889209
0.888073
0.887023
0.886729
0.886317
0.885737
0.885324
0.884563
0.883621
0.882995
0.882328
0.882075
0.882242
0.882313
0.882083
0.881237
0.879093
0.876931
0.876701
0.876479
0.875162
0.872827
0.87221
0.872208
0.872053
0.871285
0.869513
0.868196
0.867453
0.86578
0.863449
0.862327
0.861521
0.860938
0.860524
0.859732
0.857611
0.854695
0.852858
0.852322
0.851663
0.849948
0.847202
0.845075
0.843385
0.841752
0.839683
0.837572
0.835103
0.832598
0.830634
0.828658
0.826427
0.824419
0.82279
0.821356
0.819797
0.819898
0.820742
0.820993
0.820538
0.819968
0.818971
0.817758
0.815619
0.813265
0.812106
0.811194
0.811253
0.811863
0.813029
0.919737
0.919793
0.919686
0.919435
0.919396
0.919134
0.91811
0.917856
0.917855
0.917693
0.917288
0.917237
0.917113
0.916475
0.915982
0.915511
0.915249
0.915064
0.91446
0.913933
0.913725
0.913622
0.913333
0.912588
0.912344
0.912355
0.912228
0.91172
0.910992
0.909704
0.908831
0.90866
0.908484
0.90806
0.907423
0.906855
0.906353
0.905762
0.904946
0.903891
0.902686
0.901643
0.900633
0.899628
0.898797
0.897465
0.89585
0.895732
0.895778
0.895449
0.894297
0.892653
0.891299
0.889706
0.886914
0.88541
0.885266
0.884903
0.883541
0.881502
0.88048
0.879041
0.876405
0.874321
0.873198
0.872697
0.871576
0.869076
0.866146
0.864397
0.863342
0.861641
0.859229
0.857131
0.855609
0.853868
0.851932
0.85026
0.848755
0.846765
0.844952
0.843371
0.842204
0.841325
0.840203
0.838238
0.835792
0.833888
0.831743
0.828873
0.825818
0.822614
0.819512
0.816868
0.816005
0.81621
0.817156
0.817671
0.817362
0.815727
0.941583
0.940761
0.940594
0.940757
0.940975
0.940926
0.940511
0.940307
0.940131
0.93949
0.939093
0.939065
0.939029
0.938809
0.937857
0.937356
0.93743
0.937338
0.936856
0.936384
0.935595
0.935197
0.935038
0.934796
0.93442
0.933408
0.932389
0.93236
0.932367
0.93212
0.931081
0.929867
0.929272
0.928932
0.9283
0.927027
0.925992
0.925877
0.925714
0.925003
0.923695
0.922639
0.921921
0.92082
0.919992
0.919328
0.918376
0.916977
0.915526
0.91437
0.913342
0.91245
0.911602
0.910526
0.909175
0.907734
0.906441
0.904983
0.902229
0.90074
0.900544
0.899816
0.898302
0.896635
0.893955
0.891956
0.890922
0.890043
0.888526
0.886037
0.883919
0.882541
0.880662
0.878379
0.876162
0.874057
0.871909
0.869586
0.867242
0.86448
0.861939
0.85902
0.856218
0.853005
0.850308
0.847484
0.844038
0.840376
0.83782
0.83554
0.832932
0.832472
0.831822
0.831613
0.830799
0.829259
0.826974
0.824035
0.821057
0.816354
0.965046
0.965074
0.964963
0.96403
0.963359
0.963408
0.963542
0.963471
0.963257
0.962962
0.962244
0.961767
0.961863
0.961845
0.961203
0.960732
0.960309
0.959519
0.959367
0.959304
0.958972
0.958112
0.957301
0.957001
0.956816
0.956533
0.955757
0.954764
0.954444
0.954235
0.953667
0.95252
0.951322
0.950907
0.950578
0.94999
0.949112
0.948114
0.947309
0.946469
0.945474
0.944538
0.943768
0.942689
0.940889
0.939847
0.939333
0.938606
0.93741
0.93596
0.934692
0.933527
0.932266
0.930814
0.929116
0.927743
0.926705
0.925472
0.923646
0.921549
0.920028
0.918161
0.916306
0.91498
0.91332
0.911751
0.909145
0.906095
0.904289
0.903148
0.901261
0.898928
0.896516
0.89393
0.891325
0.889014
0.886626
0.884116
0.88123
0.878443
0.875949
0.873794
0.871555
0.869028
0.866084
0.863737
0.86226
0.859949
0.857698
0.855934
0.853819
0.851127
0.848235
0.845066
0.840708
0.836805
0.832663
0.828634
0.825237
0.824962
0.988824
0.988641
0.988448
0.988276
0.987957
0.987453
0.987254
0.986963
0.986688
0.9866
0.986139
0.985509
0.985416
0.985325
0.985056
0.984
0.983526
0.983466
0.983098
0.982532
0.981772
0.981125
0.980745
0.980491
0.980063
0.979356
0.978649
0.978029
0.977549
0.977113
0.976577
0.975415
0.973617
0.973155
0.973024
0.972647
0.971774
0.970499
0.969415
0.968582
0.967578
0.966623
0.965733
0.964906
0.963241
0.961223
0.960343
0.959914
0.959119
0.957485
0.955621
0.954413
0.95336
0.951929
0.950181
0.948723
0.947331
0.945793
0.943797
0.941343
0.939862
0.938696
0.937025