/*--------------------------------*- C++ -*----------------------------------*\
  =========                 |
  \\      /  F ield         | OpenFOAM: The Open Source CFD Toolbox
   \\    /   O peration     | Website:  https://openfoam.org
    \\  /    A nd           | Version:  7
     \\/     M anipulation  |
\*---------------------------------------------------------------------------*/
FoamFile
{
    version     2.0;
    format      ascii;
    class       volScalarField;
    location    "9.5";
    object      p;
}
// * * * * * * * * * * * * * * * * * * * * * * * * * * * * * * * * * * * * * //

dimensions      [1 -1 -2 0 0 0 0];

internalField   nonuniform List<scalar> 
90000
(
0.483792
0.499172
0.516079
0.533064
0.549979
0.566702
0.583334
0.599804
0.61632
0.632615
0.649044
0.665298
0.681705
0.697888
0.714341
0.73046
0.74689
0.762855
0.779245
0.795013
0.81131
0.826636
0.84272
0.857559
0.87313
0.887023
0.90183
0.914618
0.928397
0.939799
0.952003
0.961486
0.971818
0.978898
0.987343
0.991465
0.994918
0.998471
0.999996
0.998874
0.99638
0.992812
0.988591
0.980012
0.970173
0.966149
0.96549
0.96762
0.970864
0.975663
0.983134
0.98575
0.988388
0.992053
0.995675
0.996799
0.996339
0.994694
0.992484
0.990023
0.987664
0.984901
0.983832
0.984571
0.987282
0.990939
0.995921
1.00122
1.00378
1.00237
0.998045
0.99395
0.989839
0.988092
0.988675
0.991101
0.995081
0.995481
0.993878
0.990811
0.987905
0.987475
0.989231
0.992134
0.992803
0.992343
0.99137
0.991181
0.993196
0.995072
0.994828
0.994024
0.992692
0.992788
0.993551
0.993576
0.99322
0.99293
0.992574
0.991929
0.471392
0.471715
0.472386
0.473473
0.475101
0.477325
0.480123
0.483603
0.48773
0.492613
0.49816
0.504594
0.511716
0.519809
0.5286
0.538462
0.548947
0.560598
0.572822
0.586374
0.600387
0.615756
0.631305
0.648387
0.66539
0.683754
0.70185
0.721168
0.740037
0.759694
0.779006
0.798183
0.817368
0.835521
0.853729
0.870003
0.886667
0.899264
0.913909
0.923195
0.932848
0.939072
0.944456
0.951597
0.967485
0.977751
0.987971
0.993036
0.997649
1.00028
1.00089
0.999005
0.995537
0.992948
0.990427
0.9892
0.988112
0.98698
0.986348
0.98495
0.985209
0.987101
0.990653
0.994647
0.998186
1.00013
0.999278
0.997937
0.996127
0.994562
0.993341
0.990517
0.991919
0.993434
0.994831
0.994756
0.993842
0.992114
0.99028
0.98792
0.9888
0.99058
0.992296
0.991999
0.991097
0.98995
0.990664
0.99256
0.994432
0.993932
0.993136
0.992345
0.992856
0.993874
0.993286
0.993075
0.992928
0.992878
0.992426
0.991847
0.471309
0.471257
0.471211
0.471212
0.471174
0.471122
0.471061
0.471002
0.470964
0.470974
0.471013
0.471065
0.471148
0.471309
0.471573
0.471954
0.47245
0.473102
0.474078
0.475468
0.477285
0.479685
0.482588
0.486355
0.490891
0.496741
0.503576
0.512268
0.522116
0.534542
0.54823
0.565321
0.583505
0.605788
0.628981
0.656456
0.684742
0.716414
0.748771
0.782923
0.818151
0.85106
0.888547
0.917328
0.937846
0.949071
0.960342
0.966536
0.97276
0.976356
0.979389
0.980041
0.980661
0.980238
0.97931
0.976758
0.975619
0.977053
0.982189
0.988352
0.99616
1.00185
1.00507
1.00455
1.00221
0.99726
0.991229
0.986841
0.984635
0.984167
0.986908
0.993321
1.00068
1.00032
0.997997
0.993002
0.988793
0.984811
0.986201
0.990824
0.994376
0.993991
0.99199
0.989808
0.988723
0.990583
0.993381
0.994348
0.993809
0.992648
0.992816
0.993686
0.994234
0.993823
0.993011
0.993074
0.993214
0.993021
0.992408
0.99196
0.470929
0.470897
0.470878
0.470867
0.47086
0.470854
0.470843
0.470818
0.47078
0.470739
0.470697
0.470646
0.470595
0.470573
0.470588
0.470638
0.470682
0.470765
0.470714
0.470676
0.470679
0.470736
0.470792
0.470827
0.470859
0.470929
0.471049
0.471259
0.47155
0.471995
0.472671
0.473922
0.47577
0.478636
0.482492
0.488283
0.495559
0.506271
0.519146
0.537612
0.558685
0.586778
0.617717
0.656101
0.695102
0.736541
0.777418
0.81269
0.84937
0.874359
0.903912
0.918962
0.937981
0.945023
0.954242
0.956984
0.968749
0.979518
0.992599
0.999669
1.00587
1.00824
1.00767
1.00598
0.999831
0.992507
0.986139
0.980055
0.981273
0.98708
0.993796
1.00142
1.00273
1.00133
0.995757
0.990117
0.985788
0.987732
0.991557
0.995304
0.99706
0.995161
0.991747
0.988537
0.989299
0.991648
0.993906
0.993683
0.992496
0.991892
0.992555
0.99394
0.994172
0.993665
0.992874
0.99267
0.992724
0.992584
0.992156
0.991994
0.470878
0.470821
0.470787
0.470755
0.470722
0.470688
0.470653
0.470626
0.470619
0.470623
0.470606
0.470559
0.470517
0.470523
0.470513
0.470521
0.470589
0.470626
0.470655
0.470657
0.470646
0.470672
0.470734
0.470788
0.470796
0.470802
0.470868
0.470985
0.471121
0.471243
0.471434
0.471486
0.471558
0.471613
0.471643
0.471708
0.471841
0.472125
0.472695
0.473719
0.475241
0.477927
0.481774
0.488837
0.498503
0.515364
0.535908
0.567636
0.602248
0.648457
0.695518
0.74791
0.800484
0.845841
0.89318
0.926657
0.955349
0.967565
0.97984
0.986941
0.993028
0.994547
0.993503
0.986656
0.973434
0.974394
0.978691
0.985365
0.99255
0.997837
0.998326
0.99827
0.994905
0.989674
0.98862
0.989831
0.993514
0.995958
0.995955
0.994104
0.991874
0.990617
0.990873
0.991259
0.993132
0.993894
0.993354
0.991953
0.991286
0.99197
0.992944
0.993672
0.993428
0.993341
0.993506
0.993385
0.993175
0.992568
0.992276
0.992256
0.469918
0.469907
0.469901
0.469912
0.469931
0.469947
0.469957
0.46996
0.469961
0.469971
0.46998
0.469976
0.469976
0.470005
0.470054
0.470061
0.470086
0.470149
0.47023
0.470304
0.470376
0.470456
0.470551
0.470652
0.47075
0.470852
0.470971
0.471103
0.471199
0.471283
0.471373
0.471491
0.471602
0.471688
0.471749
0.471806
0.471887
0.472091
0.472175
0.472157
0.472162
0.472307
0.472536
0.472748
0.473024
0.473616
0.474748
0.477112
0.480865
0.488473
0.49936
0.520068
0.54571
0.587376
0.631672
0.689834
0.74545
0.797309
0.845665
0.875704
0.909739
0.922994
0.941618
0.947654
0.966297
0.980132
0.995129
1.00401
1.00542
1.00468
1.00077
0.988735
0.978843
0.979385
0.983044
0.99227
1.00228
1.00204
1.00029
0.9955
0.99011
0.988801
0.990645
0.994041
0.995849
0.993908
0.992182
0.990673
0.991106
0.992602
0.994022
0.994049
0.993129
0.992609
0.992855
0.992901
0.992551
0.992097
0.992225
0.992603
0.469602
0.469622
0.469646
0.469681
0.469725
0.469769
0.4698
0.469812
0.469816
0.469832
0.469849
0.469855
0.469875
0.469939
0.470012
0.470044
0.470063
0.470098
0.470185
0.470314
0.470423
0.470501
0.470577
0.470683
0.470809
0.470913
0.470996
0.471071
0.47115
0.471257
0.471368
0.471455
0.471538
0.471618
0.471673
0.471739
0.471864
0.472084
0.472249
0.472263
0.472222
0.47207
0.472011
0.472011
0.472055
0.472201
0.472376
0.472552
0.47276
0.473024
0.473388
0.474092
0.475387
0.478671
0.484419
0.497762
0.517057
0.553454
0.595856
0.656308
0.717665
0.783257
0.848697
0.901924
0.957367
0.975778
0.990746
0.998838
1.001
0.993768
0.971897
0.968172
0.972047
0.983414
0.994984
1.00097
1.00233
1.00041
0.994571
0.987118
0.987455
0.990917
0.995469
0.997289
0.996537
0.993645
0.989875
0.990038
0.991822
0.993494
0.993307
0.992556
0.992609
0.993375
0.993695
0.993435
0.992385
0.991959
0.992291
0.993218
0.469983
0.47
0.470017
0.470036
0.470046
0.47005
0.470062
0.470067
0.470065
0.470072
0.470105
0.470179
0.470295
0.470428
0.470525
0.470533
0.470531
0.470541
0.470638
0.470798
0.470841
0.470854
0.470877
0.47093
0.471013
0.4711
0.471181
0.471264
0.471353
0.471424
0.471485
0.47158
0.471709
0.471829
0.471935
0.472068
0.472263
0.472431
0.472442
0.472388
0.472292
0.472231
0.472192
0.472176
0.472182
0.47219
0.472177
0.472165
0.472159
0.472168
0.47224
0.472317
0.472308
0.472262
0.472217
0.472319
0.472815
0.474654
0.478587
0.488772
0.505342
0.539906
0.5833
0.649992
0.716946
0.786351
0.850684
0.886562
0.924632
0.936308
0.950478
0.974247
0.992628
1.00356
1.00527
1.00423
0.995473
0.983431
0.984029
0.98602
0.993054
1.00033
0.999887
0.998395
0.993103
0.989601
0.989166
0.991159
0.994145
0.994072
0.992874
0.991337
0.991901
0.992981
0.993353
0.993029
0.992387
0.992006
0.99262
0.993425
0.470786
0.470803
0.470816
0.470813
0.470798
0.470797
0.470807
0.470807
0.470812
0.470835
0.470894
0.471025
0.471148
0.471222
0.471248
0.471251
0.471261
0.471303
0.471381
0.471424
0.471418
0.471408
0.47141
0.471419
0.471448
0.471502
0.471562
0.471618
0.471666
0.47171
0.471789
0.471909
0.472027
0.472156
0.472304
0.472461
0.47258
0.47262
0.472607
0.472544
0.472414
0.472292
0.472208
0.47217
0.472153
0.472129
0.472103
0.472034
0.471886
0.471694
0.471518
0.471383
0.471294
0.471202
0.471165
0.471166
0.471141
0.471001
0.470735
0.470765
0.471047
0.47247
0.476183
0.487133
0.50621
0.547881
0.601899
0.681399
0.762786
0.845443
0.930725
0.969509
0.988676
0.998677
0.999801
0.989501
0.964088
0.968179
0.977889
0.993698
1.00524
1.00473
1.00092
0.993213
0.98783
0.988429
0.991764
0.995506
0.995303
0.993251
0.990543
0.990748
0.992315
0.9931
0.992999
0.991725
0.991711
0.992149
0.993523
0.993769
0.471501
0.471506
0.471504
0.471502
0.471501
0.471501
0.471504
0.471532
0.471583
0.471593
0.47163
0.471757
0.471815
0.471834
0.471844
0.471889
0.471952
0.471959
0.471948
0.471908
0.47185
0.471818
0.471806
0.47179
0.471781
0.471792
0.471842
0.471849
0.471841
0.471846
0.471899
0.472007
0.472109
0.472189
0.472286
0.472382
0.472463
0.472518
0.472508
0.472439
0.472327
0.472208
0.472115
0.472092
0.472074
0.471993
0.471831
0.471621
0.471322
0.470859
0.470555
0.470407
0.470304
0.470257
0.470294
0.470451
0.470499
0.470449
0.470279
0.469985
0.469744
0.469666
0.469683
0.469858
0.470511
0.472725
0.478623
0.494636
0.524959
0.582727
0.658792
0.749175
0.824316
0.885492
0.920496
0.940832
0.955093
0.989058
1.00142
1.00639
1.00601
0.997457
0.987252
0.98731
0.988262
0.993585
0.998263
0.997856
0.993642
0.989874
0.990045
0.991995
0.993452
0.993141
0.991229
0.990598
0.991462
0.993514
0.994068
0.993874
0.472286
0.472293
0.472298
0.472307
0.472317
0.472322
0.472328
0.472339
0.472357
0.472378
0.472399
0.472433
0.472492
0.472513
0.472517
0.472515
0.472501
0.472466
0.472405
0.472319
0.472249
0.472207
0.47217
0.472119
0.47209
0.472092
0.47209
0.472074
0.47207
0.472098
0.472163
0.472234
0.472284
0.472332
0.472398
0.47248
0.472564
0.472621
0.472609
0.472533
0.47239
0.472239
0.47213
0.471997
0.471769
0.471492
0.471285
0.47111
0.470784
0.470377
0.47012
0.469941
0.469858
0.469825
0.469848
0.469997
0.470144
0.470156
0.47011
0.469945
0.469834
0.469757
0.469692
0.469705
0.469818
0.470013
0.470276
0.470779
0.47223
0.476647
0.489609
0.520055
0.578401
0.664413
0.756199
0.865796
0.942713
0.986015
0.995876
1.0027
0.992281
0.970459
0.973936
0.983032
0.995334
1.00188
1.0011
0.995668
0.988077
0.988518
0.991648
0.99447
0.994078
0.991099
0.988829
0.989774
0.993038
0.994289
0.994182
0.993482
0.472794
0.472801
0.472809
0.472829
0.472835
0.472835
0.472832
0.472833
0.472844
0.472874
0.472922
0.472962
0.472974
0.472975
0.472968
0.472926
0.472798
0.472722
0.472702
0.472671
0.472597
0.472491
0.472404
0.472362
0.472353
0.472344
0.47232
0.472267
0.472232
0.472225
0.472198
0.472133
0.472041
0.471947
0.471869
0.471848
0.471855
0.471891
0.471907
0.47185
0.47165
0.471443
0.471284
0.471108
0.470952
0.470829
0.470764
0.470685
0.470478
0.470164
0.469885
0.469699
0.469643
0.469618
0.469622
0.469731
0.469931
0.470021
0.470033
0.470146
0.470251
0.470248
0.470158
0.470063
0.470102
0.470247
0.470436
0.47076
0.470929
0.470995
0.471206
0.472118
0.47685
0.489144
0.527085
0.587541
0.686803
0.788459
0.852644
0.923666
0.934059
0.968201
0.982539
1.00102
1.00304
1.00209
0.994163
0.987042
0.987861
0.99197
0.996761
0.995998
0.991108
0.988233
0.988867
0.992293
0.994322
0.994466
0.993602
0.993128
0.473417
0.473444
0.47348
0.473493
0.473493
0.473492
0.473489
0.473476
0.473473
0.473512
0.473567
0.473592
0.47361
0.473608
0.473547
0.473386
0.473315
0.473299
0.473286
0.473252
0.473166
0.473022
0.472862
0.472774
0.47271
0.472619
0.472497
0.472377
0.472234
0.472001
0.471711
0.471448
0.471271
0.471149
0.471041
0.470935
0.47086
0.470841
0.470841
0.470797
0.470635
0.470548
0.470482
0.470404
0.470395
0.470452
0.470503
0.470494
0.470359
0.470072
0.469809
0.469676
0.469646
0.469625
0.469614
0.469701
0.469887
0.469976
0.470152
0.470495
0.470721
0.47075
0.470742
0.4707
0.470653
0.470621
0.470628
0.470765
0.470953
0.471
0.470974
0.47088
0.470854
0.471049
0.472576
0.477516
0.499455
0.540309
0.628096
0.735125
0.840416
0.954979
0.976853
0.99916
0.997337
0.984239
0.974461
0.981088
0.993403
1.00003
0.998845
0.992313
0.986064
0.987074
0.992357
0.995162
0.994769
0.992646
0.992416
0.992915
0.473507
0.473502
0.473489
0.473482
0.473478
0.473474
0.473473
0.473483
0.473505
0.473501
0.473487
0.473491
0.473507
0.473503
0.473428
0.473207
0.473082
0.473078
0.473081
0.473044
0.472882
0.472605
0.472403
0.472268
0.47208
0.471816
0.471687
0.471639
0.471573
0.471457
0.471288
0.471075
0.470907
0.470803
0.470727
0.470618
0.47039
0.470197
0.470079
0.47002
0.470015
0.470039
0.470156
0.470217
0.470236
0.470313
0.470435
0.470476
0.470462
0.470412
0.470401
0.470463
0.470477
0.47044
0.470318
0.470238
0.470256
0.470394
0.470613
0.470835
0.4711
0.471234
0.471279
0.471299
0.471222
0.470954
0.470827
0.470866
0.470969
0.470978
0.470934
0.470831
0.470722
0.470687
0.470686
0.470779
0.471338
0.473552
0.484733
0.511545
0.585384
0.684645
0.786169
0.902027
0.917859
0.946907
0.965941
0.998568
1.00363
1.00171
0.990603
0.985062
0.986278
0.992462
0.99834
0.996769
0.991769
0.990843
0.991789
0.993413
0.472606
0.472592
0.47259
0.472595
0.472599
0.472614
0.472637
0.472639
0.472621
0.47256
0.47252
0.472513
0.472492
0.47239
0.47208
0.47186
0.471854
0.471843
0.471761
0.471424
0.470914
0.47081
0.470839
0.470874
0.470833
0.470746
0.470733
0.470773
0.470891
0.470983
0.471007
0.470973
0.470845
0.470746
0.470688
0.470605
0.470362
0.469924
0.469745
0.469734
0.469748
0.469902
0.470215
0.470251
0.470247
0.470304
0.470529
0.47088
0.471059
0.471052
0.471064
0.471195
0.471379
0.47136
0.471286
0.471112
0.470984
0.471005
0.471036
0.471119
0.471468
0.471836
0.47189
0.471881
0.471728
0.471303
0.47111
0.471167
0.47129
0.471282
0.471155
0.470905
0.470726
0.470694
0.470699
0.470789
0.471004
0.471276
0.471639
0.472617
0.478861
0.49601
0.557876
0.651165
0.770597
0.913454
0.9554
0.991857
0.994489
0.980287
0.972117
0.980447
0.994902
1.00061
0.9986
0.991621
0.989181
0.990786
0.993715
0.993533
0.470501
0.470503
0.470492
0.470483
0.470491
0.470536
0.470577
0.470572
0.470568
0.470566
0.470488
0.470403
0.47031
0.470076
0.469966
0.469979
0.470004
0.469967
0.469655
0.4693
0.469275
0.469349
0.469582
0.469952
0.470168
0.47017
0.470148
0.470163
0.470305
0.47064
0.470764
0.470746
0.470644
0.470574
0.470518
0.470402
0.470082
0.469597
0.469422
0.469401
0.469411
0.469576
0.470061
0.470328
0.470383
0.470475
0.470717
0.471027
0.47119
0.471169
0.471095
0.471091
0.471332
0.471634
0.471651
0.471586
0.47136
0.471254
0.471256
0.471293
0.471559
0.472002
0.472061
0.472041
0.471863
0.471433
0.471199
0.471191
0.471204
0.471174
0.471093
0.471076
0.47115
0.471221
0.471269
0.471363
0.47156
0.471876
0.472061
0.471997
0.471978
0.47224
0.475521
0.487326
0.541711
0.625479
0.742406
0.869308
0.903232
0.939779
0.965966
1.00214
1.00582
1.00325
0.989846
0.985398
0.988428
0.994934
0.99492
0.992613
0.469929
0.469927
0.469925
0.469933
0.469949
0.469944
0.469903
0.469825
0.469765
0.469723
0.46968
0.469661
0.469648
0.469608
0.469441
0.469301
0.469283
0.469221
0.46903
0.468963
0.468987
0.469132
0.469343
0.469637
0.470007
0.470106
0.470149
0.470239
0.470523
0.471048
0.471309
0.471297
0.471175
0.471157
0.47116
0.471079
0.470802
0.470345
0.470103
0.470052
0.470058
0.470176
0.470654
0.47111
0.471161
0.471189
0.471241
0.471308
0.47136
0.471266
0.471082
0.471041
0.471232
0.471843
0.472009
0.471978
0.471792
0.471492
0.471378
0.471371
0.471531
0.472052
0.472212
0.472184
0.471944
0.471434
0.471162
0.471158
0.471162
0.471126
0.471099
0.471154
0.471437
0.471799
0.472004
0.472072
0.472141
0.472279
0.472285
0.472185
0.47205
0.471615
0.470948
0.471044
0.473622
0.483441
0.532168
0.611586
0.736772
0.896852
0.95418
0.997467
0.995779
0.980218
0.976741
0.985459
0.996413
0.997082
0.993854
0.99076
0.469612
0.469616
0.46963
0.46969
0.469714
0.469663
0.469441
0.469333
0.469314
0.46932
0.469346
0.469352
0.469346
0.469317
0.469234
0.469048
0.468887
0.468832
0.468807
0.468804
0.468826
0.468925
0.46907
0.469268
0.469691
0.469965
0.470082
0.470265
0.470648
0.471123
0.471349
0.471355
0.471344
0.471412
0.471489
0.471427
0.47108
0.470506
0.470314
0.47029
0.470352
0.470528
0.470972
0.471543
0.471658
0.471658
0.47158
0.471573
0.471631
0.471479
0.470961
0.470798
0.470869
0.47152
0.471957
0.471986
0.471994
0.471865
0.471444
0.471266
0.471377
0.471786
0.471848
0.471786
0.471534
0.471175
0.471127
0.47124
0.471334
0.471331
0.471313
0.47139
0.471753
0.472303
0.472478
0.472475
0.472448
0.47243
0.472386
0.472223
0.4717
0.470901
0.470426
0.470331
0.470421
0.470793
0.473306
0.482082
0.527424
0.609168
0.730732
0.876086
0.904222
0.943454
0.970891
1.00467
1.00375
0.995357
0.987242
0.990105
0.471204
0.471265
0.471373
0.471441
0.471426
0.471136
0.470642
0.470517
0.470516
0.470558
0.470582
0.470584
0.470582
0.470559
0.470417
0.470105
0.469791
0.469705
0.469698
0.469736
0.469856
0.469874
0.46983
0.46983
0.470003
0.470228
0.470404
0.470586
0.470821
0.471079
0.471152
0.47115
0.471194
0.47137
0.471529
0.471475
0.471091
0.470625
0.470499
0.470463
0.470557
0.470857
0.471345
0.471854
0.472006
0.472034
0.471889
0.471727
0.471794
0.471761
0.471298
0.470729
0.47064
0.471007
0.471739
0.472022
0.472093
0.472085
0.471739
0.471138
0.471041
0.471137
0.47111
0.470846
0.470617
0.470628
0.470787
0.471278
0.47182
0.471934
0.471924
0.47194
0.472134
0.472482
0.472552
0.47254
0.472476
0.472294
0.471865
0.471336
0.470693
0.470287
0.47033
0.470372
0.47062
0.471263
0.471695
0.471955
0.473931
0.48227
0.528068
0.612675
0.750747
0.912386
0.959967
0.998171
0.993427
0.9725
0.980716
0.99577
0.471127
0.471178
0.471236
0.471256
0.471233
0.470952
0.470437
0.470302
0.470249
0.47025
0.47029
0.470373
0.470409
0.470364
0.470043
0.469499
0.469388
0.469366
0.469409
0.46967
0.469757
0.469775
0.469816
0.469814
0.469627
0.469529
0.469754
0.469977
0.469998
0.469997
0.470025
0.470157
0.470436
0.470829
0.471163
0.471179
0.470882
0.470418
0.470271
0.470197
0.47023
0.470905
0.47178
0.471932
0.47193
0.471938
0.471886
0.471689
0.471696
0.471725
0.471359
0.470429
0.469783
0.469845
0.470376
0.471035
0.471585
0.471852
0.471675
0.471071
0.470683
0.470724
0.470706
0.470349
0.470129
0.470149
0.47041
0.471182
0.47206
0.472339
0.472319
0.472288
0.472291
0.472427
0.47246
0.47242
0.472213
0.471632
0.470833
0.470389
0.470116
0.470135
0.470343
0.470712
0.471284
0.471825
0.472061
0.472059
0.471921
0.471883
0.473512
0.482652
0.535358
0.628925
0.760054
0.891612
0.921263
0.955987
0.998938
1.00124
0.4697
0.469665
0.469543
0.469304
0.468999
0.46888
0.46886
0.468865
0.46887
0.468855
0.468891
0.468998
0.468925
0.468295
0.467619
0.467548
0.467597
0.467913
0.468049
0.46781
0.467619
0.46783
0.46806
0.468244
0.468673
0.469615
0.470181
0.470256
0.470162
0.469968
0.470002
0.470289
0.470378
0.470192
0.470017
0.469977
0.469682
0.46949
0.469522
0.469566
0.469388
0.469457
0.470246
0.471156
0.471368
0.471496
0.471577
0.471377
0.471276
0.471254
0.470931
0.469956
0.468913
0.468737
0.469044
0.469595
0.470072
0.470706
0.471107
0.470842
0.470726
0.470855
0.470903
0.470665
0.470292
0.470292
0.470611
0.4713
0.472075
0.472362
0.472349
0.472308
0.472268
0.472019
0.471641
0.471403
0.471049
0.470468
0.47006
0.470108
0.470117
0.470528
0.471099
0.471522
0.471931
0.472083
0.472144
0.472085
0.4716
0.471023
0.470891
0.471114
0.473993
0.486838
0.546669
0.650826
0.806696
0.939229
0.990794
0.99405
0.464521
0.464524
0.464438
0.464058
0.463883
0.463807
0.463766
0.463769
0.463842
0.464017
0.464041
0.463848
0.463746
0.463737
0.463668
0.463589
0.463774
0.464507
0.464663
0.464141
0.463897
0.464034
0.464385
0.465113
0.466623
0.467922
0.46799
0.467618
0.467255
0.467086
0.467051
0.467051
0.466965
0.466677
0.466411
0.466268
0.466197
0.466203
0.466233
0.466143
0.465805
0.465882
0.466153
0.46611
0.466063
0.465963
0.466221
0.467775
0.468699
0.468649
0.468252
0.467439
0.467117
0.467179
0.467499
0.467705
0.467777
0.468037
0.468821
0.47
0.470689
0.470969
0.470973
0.470799
0.470663
0.470656
0.470849
0.471381
0.471671
0.471842
0.471951
0.471892
0.471401
0.470317
0.469631
0.469389
0.469333
0.469464
0.469788
0.470088
0.470677
0.471288
0.471503
0.471817
0.471976
0.472033
0.471921
0.471383
0.470614
0.470534
0.470643
0.471246
0.471843
0.472331
0.475477
0.493048
0.56202
0.68451
0.8212
0.923897
0.464817
0.464791
0.464816
0.464859
0.464894
0.464896
0.464751
0.464318
0.463741
0.463576
0.463681
0.463776
0.463794
0.463665
0.462935
0.462659
0.462735
0.463541
0.464122
0.463679
0.461655
0.46105
0.461048
0.461375
0.462532
0.463976
0.464434
0.464171
0.463092
0.462406
0.462371
0.462651
0.462834
0.462815
0.463065
0.463387
0.463406
0.463313
0.462776
0.462089
0.46209
0.462566
0.462527
0.460971
0.459361
0.459173
0.459418
0.461325
0.463505
0.463643
0.463465
0.463156
0.463146
0.463409
0.464277
0.465385
0.466863
0.467526
0.467467
0.467442
0.467521
0.46768
0.468249
0.469349
0.469986
0.470062
0.469921
0.468843
0.46747
0.467266
0.467485
0.467961
0.468071
0.46795
0.467944
0.468008
0.468349
0.469155
0.470282
0.470957
0.471396
0.471518
0.471552
0.471822
0.471719
0.471193
0.470487
0.469823
0.469933
0.470377
0.471071
0.471844
0.472344
0.472378
0.472355
0.472489
0.476653
0.504852
0.581433
0.794706
0.459259
0.459499
0.459881
0.460387
0.46088
0.461553
0.462594
0.463444
0.463806
0.463942
0.464245
0.464571
0.464604
0.464525
0.464257
0.463746
0.46312
0.463034
0.463351
0.463268
0.460702
0.457197
0.456803
0.456986
0.458163
0.4594
0.45936
0.458232
0.456439
0.456104
0.456222
0.457016
0.45749
0.457795
0.458406
0.459288
0.459787
0.460342
0.46127
0.462066
0.462539
0.462547
0.46199
0.459933
0.456787
0.455181
0.45515
0.456159
0.459428
0.461835
0.462276
0.46274
0.463966
0.464644
0.463958
0.463393
0.463624
0.464503
0.464719
0.464609
0.463891
0.462698
0.462447
0.462736
0.463701
0.464194
0.464166
0.463651
0.46283
0.462608
0.462748
0.463314
0.464163
0.464959
0.465553
0.466115
0.466964
0.468542
0.4699
0.470681
0.470962
0.470948
0.470841
0.470336
0.469357
0.468557
0.468501
0.468847
0.470037
0.470849
0.471635
0.47195
0.472259
0.472222
0.471484
0.470606
0.470721
0.472308
0.479475
0.575036
0.461551
0.461747
0.462036
0.462467
0.463099
0.464071
0.465504
0.467145
0.468611
0.470094
0.471422
0.471709
0.47169
0.471669
0.471837
0.471885
0.47136
0.469123
0.466121
0.464705
0.46326
0.462077
0.461627
0.461633
0.461888
0.461818
0.461429
0.460407
0.459617
0.45954
0.459639
0.459944
0.460135
0.460335
0.460709
0.461805
0.463109
0.464108
0.465693
0.468207
0.470944
0.472613
0.472633
0.471656
0.469458
0.466578
0.463683
0.462347
0.462637
0.463472
0.464436
0.466223
0.467569
0.467365
0.466079
0.465622
0.465913
0.466702
0.466774
0.466322
0.464989
0.462488
0.460906
0.460829
0.461192
0.46197
0.462149
0.462066
0.461434
0.460818
0.460806
0.461052
0.461566
0.462227
0.462878
0.463432
0.464106
0.464988
0.466017
0.466099
0.465627
0.465154
0.465215
0.465237
0.465429
0.465939
0.467119
0.468806
0.470248
0.470815
0.471567
0.471508
0.471019
0.470252
0.469468
0.469642
0.470761
0.471348
0.471668
0.485053
0.486224
0.486532
0.486722
0.486807
0.486833
0.487088
0.487999
0.488661
0.488954
0.489493
0.490183
0.490241
0.490137
0.490171
0.491024
0.49215
0.492325
0.491656
0.489124
0.487638
0.487572
0.48775
0.48849
0.490066
0.490774
0.490748
0.490462
0.489133
0.485874
0.482231
0.480212
0.478853
0.477283
0.475592
0.474985
0.475674
0.477342
0.477581
0.477144
0.477401
0.479295
0.481427
0.48192
0.481768
0.481118
0.479737
0.477241
0.473981
0.471197
0.470282
0.470443
0.470546
0.469901
0.46816
0.465975
0.464807
0.46477
0.465006
0.464852
0.464769
0.4643
0.462509
0.46089
0.460766
0.461126
0.461943
0.462195
0.462194
0.462438
0.462633
0.462799
0.46326
0.464126
0.465214
0.466315
0.466468
0.466098
0.465327
0.463968
0.462797
0.461949
0.461516
0.461567
0.461698
0.462016
0.46278
0.464412
0.466288
0.467957
0.468306
0.467933
0.467044
0.467048
0.467261
0.468195
0.4696
0.470862
0.471329
0.471314
0.471373
0.514365
0.515077
0.515177
0.51513
0.514251
0.513535
0.513618
0.513559
0.51068
0.504124
0.502026
0.501197
0.499697
0.49925
0.499358
0.501088
0.506283
0.509027
0.508958
0.507852
0.507716
0.509429
0.51282
0.513557
0.513343
0.51312
0.51334
0.513166
0.510257
0.507509
0.507022
0.506017
0.503127
0.499501
0.497894
0.497421
0.496958
0.496067
0.494914
0.49364
0.491473
0.487514
0.484586
0.48428
0.485037
0.486588
0.487544
0.487647
0.486978
0.485438
0.48425
0.483527
0.4828
0.481572
0.479484
0.476926
0.473616
0.471581
0.471629
0.47325
0.477284
0.479136
0.4787
0.477495
0.475638
0.473506
0.472713
0.473405
0.475679
0.476406
0.475721
0.473621
0.471954
0.471334
0.47086
0.4696
0.467302
0.464766
0.463228
0.462444
0.461889
0.46165
0.461803
0.46262
0.464047
0.465885
0.467689
0.467493
0.466357
0.465085
0.463498
0.463312
0.463604
0.464116
0.465613
0.46752
0.468707
0.469234
0.468618
0.468357
0.562203
0.56208
0.562205
0.562831
0.564493
0.566105
0.566358
0.564682
0.558183
0.551556
0.54981
0.549856
0.550216
0.550428
0.549894
0.5483
0.546944
0.54674
0.547035
0.547874
0.54945
0.549898
0.549871
0.549063
0.547671
0.547662
0.54814
0.547897
0.545443
0.542381
0.542306
0.542678
0.541829
0.540864
0.541181
0.541666
0.541527
0.541006
0.539965
0.537872
0.535228
0.533537
0.531837
0.52849
0.52412
0.523086
0.523346
0.522771
0.522129
0.521489
0.519894
0.518865
0.518891
0.519121
0.51897
0.517581
0.514262
0.5098
0.506067
0.503901
0.502963
0.502472
0.501496
0.499617
0.496802
0.493811
0.490091
0.486896
0.485789
0.48486
0.482704
0.478827
0.47537
0.473336
0.47179
0.470131
0.46888
0.467436
0.467274
0.467887
0.469116
0.470481
0.471185
0.471982
0.471392
0.470729
0.46946
0.466879
0.464275
0.463296
0.4631
0.463306
0.463848
0.465366
0.467435
0.46756
0.466489
0.465415
0.465172
0.465854
0.605457
0.604519
0.603837
0.602696
0.602061
0.60232
0.603244
0.603603
0.603697
0.603418
0.601445
0.600218
0.600497
0.60077
0.600015
0.596346
0.594352
0.594582
0.596005
0.597206
0.598672
0.599226
0.599215
0.598845
0.597574
0.596111
0.595315
0.593371
0.588548
0.58736
0.58803
0.587422
0.583751
0.580082
0.578283
0.575064
0.571793
0.571265
0.570725
0.569352
0.569043
0.57028
0.571481
0.571015
0.569523
0.568241
0.566772
0.563848
0.561098
0.558376
0.553075
0.54605
0.544022
0.544447
0.544355
0.542742
0.542325
0.542484
0.541572
0.53715
0.530311
0.524135
0.519474
0.517976
0.51823
0.518796
0.518106
0.514009
0.507559
0.50473
0.504787
0.50444
0.502901
0.500568
0.49708
0.495384
0.495686
0.495783
0.494868
0.49293
0.490222
0.487449
0.484579
0.481179
0.477273
0.473758
0.469677
0.467115
0.464914
0.464286
0.465415
0.467492
0.469831
0.470162
0.469116
0.467447
0.465051
0.464352
0.464279
0.465099
0.661545
0.660975
0.66094
0.660688
0.660541
0.660147
0.659877
0.660283
0.660915
0.660826
0.659513
0.656429
0.654833
0.654792
0.654346
0.651844
0.649284
0.64907
0.649239
0.648889
0.6473
0.646019
0.645742
0.645836
0.645843
0.644388
0.642443
0.642156
0.642144
0.641542
0.638967
0.637932
0.638121
0.638096
0.637342
0.635185
0.632549
0.630156
0.627386
0.623998
0.620829
0.618512
0.617452
0.616243
0.61396
0.613011
0.612364
0.610334
0.609461
0.609032
0.607008
0.602371
0.59893
0.597425
0.595425
0.590336
0.587198
0.587126
0.586397
0.583038
0.579608
0.57727
0.573144
0.56649
0.562916
0.562368
0.561978
0.559257
0.552931
0.546762
0.544001
0.541925
0.53861
0.533681
0.528456
0.523537
0.519008
0.514776
0.51081
0.50603
0.500825
0.496241
0.491868
0.487657
0.48507
0.482666
0.48278
0.483878
0.484725
0.483653
0.482686
0.480575
0.478102
0.474348
0.469529
0.466936
0.464919
0.464933
0.466285
0.468653
0.721429
0.721122
0.720274
0.718277
0.716583
0.715224
0.714959
0.715891
0.717335
0.717185
0.715854
0.715637
0.715343
0.712408
0.709433
0.709329
0.710048
0.710027
0.708227
0.705901
0.704948
0.704055
0.703428
0.703176
0.703055
0.702106
0.69983
0.698753
0.698271
0.696895
0.693451
0.690895
0.688759
0.685612
0.68445
0.684532
0.684082
0.681848
0.678904
0.676415
0.674561
0.672735
0.671337
0.670076
0.668472
0.666114
0.663069
0.659291
0.655994
0.653121
0.649847
0.646388
0.642955
0.641313
0.640061
0.637252
0.634374
0.631345
0.624421
0.616361
0.615356
0.614746
0.61248
0.609046
0.603501
0.596761
0.591869
0.58965
0.587679
0.58372
0.577551
0.57241
0.568445
0.564492
0.560186
0.555795
0.551899
0.547474
0.543782
0.539913
0.536359
0.533198
0.530281
0.527681
0.524713
0.52098
0.516333
0.512232
0.50755
0.501791
0.494941
0.488433
0.482011
0.477269
0.474746
0.474645
0.476366
0.477536
0.477255
0.474268
0.784749
0.783677
0.78206
0.781783
0.782067
0.78202
0.780004
0.776675
0.775584
0.77585
0.776799
0.777173
0.776753
0.774743
0.774056
0.773133
0.772039
0.771199
0.769347
0.767471
0.764811
0.762333
0.762194
0.762062
0.761139
0.759602
0.75841
0.756044
0.752633
0.752436
0.752636
0.752026
0.749236
0.744734
0.743529
0.743122
0.742279
0.740036
0.736249
0.733249
0.730934
0.729354
0.726558
0.722216
0.720148
0.719124
0.717747
0.71396
0.710089
0.708315
0.706182
0.702939
0.699436
0.694933
0.687819
0.684216
0.684685
0.684722
0.681674
0.67458
0.670445
0.666692
0.66024
0.656784
0.654263
0.65156
0.64598
0.639202
0.636616
0.635343
0.631752
0.624809
0.618397
0.613742
0.609629
0.604556
0.599189
0.593611
0.587539
0.5814
0.575326
0.568188
0.562474
0.555412
0.548822
0.54144
0.53429
0.527245
0.52057
0.516359
0.50984
0.508259
0.507537
0.50745
0.506165
0.502537
0.497377
0.491284
0.485291
0.476265
0.852881
0.85312
0.853167
0.852231
0.851136
0.851123
0.850949
0.849179
0.845752
0.844928
0.845233
0.845248
0.844825
0.844177
0.842065
0.838837
0.838407
0.838255
0.837707
0.835514
0.832834
0.831595
0.83084
0.829564
0.827693
0.826202
0.825286
0.824264
0.822208
0.819248
0.817208
0.815491
0.813675
0.810472
0.806441
0.804959
0.804411
0.803444
0.801397
0.797825
0.792783
0.790212
0.788761
0.786326
0.78243
0.77954
0.777636
0.775204
0.771569
0.767493
0.76303
0.75804
0.7554
0.752951
0.748961
0.743639
0.739434
0.736451
0.73266
0.725341
0.721917
0.719428
0.715389
0.709812
0.701933
0.696323
0.692015
0.687823
0.682341
0.676556
0.671525
0.66586
0.659077
0.652636
0.646518
0.640883
0.634073
0.627757
0.621519
0.615753
0.610016
0.603659
0.597329
0.590949
0.585348
0.57981
0.57535
0.57061
0.565339
0.560901
0.556201
0.550419
0.543964
0.536132
0.527442
0.518923
0.508624
0.500598
0.494918
0.493785
0.926403
0.925793
0.926104
0.9275
0.927771