/*--------------------------------*- C++ -*----------------------------------*\
  =========                 |
  \\      /  F ield         | OpenFOAM: The Open Source CFD Toolbox
   \\    /   O peration     | Website:  https://openfoam.org
    \\  /    A nd           | Version:  7
     \\/     M anipulation  |
\*---------------------------------------------------------------------------*/
FoamFile
{
    version     2.0;
    format      ascii;
    class       volScalarField;
    location    "9.5";
    object      T;
}
// * * * * * * * * * * * * * * * * * * * * * * * * * * * * * * * * * * * * * //

dimensions      [0 0 0 1 0 0 0];

internalField   nonuniform List<scalar> 
90000
(
0.839334
0.851678
0.864316
0.876084
0.887035
0.897151
0.906659
0.915536
0.924044
0.932015
0.939763
0.947093
0.954277
0.961088
0.967857
0.974257
0.980664
0.986688
0.992791
0.998484
1.0043
1.0096
1.01512
1.02006
1.02521
1.02965
1.03434
1.03825
1.04243
1.04575
1.04928
1.05189
1.05471
1.05649
1.05873
1.05945
1.06007
1.06064
1.06044
1.05972
1.05849
1.05693
1.05531
1.05234
1.04897
1.04739
1.04606
1.04618
1.04655
1.0474
1.04916
1.04937
1.04984
1.05076
1.0517
1.05197
1.05181
1.05123
1.05036
1.0493
1.04825
1.04725
1.0465
1.04655
1.04705
1.04777
1.04893
1.05031
1.05078
1.05025
1.04877
1.04721
1.0458
1.04488
1.04483
1.04529
1.04635
1.04621
1.0455
1.04417
1.04316
1.04257
1.0429
1.04369
1.04354
1.04316
1.04264
1.04226
1.04271
1.04302
1.04277
1.04225
1.04163
1.04138
1.04142
1.04123
1.04093
1.04063
1.04033
1.0398
0.827727
0.827904
0.828307
0.828983
0.830001
0.831403
0.833172
0.835367
0.837953
0.840985
0.844387
0.848275
0.852502
0.857215
0.862221
0.867715
0.873407
0.87959
0.885883
0.892678
0.899461
0.906707
0.913764
0.921341
0.928588
0.936253
0.943495
0.951105
0.958234
0.965599
0.972561
0.979464
0.986142
0.992503
0.998697
1.0043
1.00988
1.01417
1.01902
1.02228
1.02564
1.02798
1.03022
1.03316
1.03909
1.04291
1.04644
1.04817
1.0497
1.05056
1.05056
1.04994
1.04876
1.04774
1.04676
1.04626
1.04574
1.04512
1.04465
1.04394
1.04387
1.04425
1.04507
1.04607
1.04701
1.04742
1.04703
1.04643
1.04572
1.04503
1.04447
1.04344
1.04376
1.04401
1.04423
1.04406
1.04362
1.04283
1.0421
1.04122
1.04139
1.04175
1.04199
1.0418
1.04135
1.04077
1.04088
1.04125
1.04154
1.04126
1.0409
1.04045
1.04048
1.04054
1.04024
1.03999
1.03978
1.0396
1.03931
1.03887
0.824767
0.824671
0.824568
0.824483
0.824376
0.824258
0.824129
0.823993
0.823865
0.823758
0.823658
0.82356
0.823479
0.82344
0.82346
0.82353
0.82366
0.823875
0.824255
0.824863
0.825714
0.826892
0.828348
0.830275
0.832607
0.835639
0.839155
0.843625
0.84861
0.854853
0.861557
0.869791
0.878222
0.888338
0.898398
0.910041
0.921465
0.933941
0.94612
0.958764
0.97132
0.982897
0.995825
1.00587
1.01307
1.01754
1.02196
1.02485
1.02762
1.02954
1.03122
1.03212
1.03308
1.03322
1.03303
1.03229
1.03177
1.03218
1.03375
1.0357
1.03814
1.03987
1.04098
1.04093
1.04052
1.03936
1.03772
1.03626
1.03543
1.03506
1.03589
1.03774
1.03984
1.03971
1.03905
1.03767
1.03629
1.03499
1.0354
1.03679
1.03774
1.03763
1.03706
1.03636
1.03597
1.03649
1.03732
1.03753
1.03731
1.0369
1.03693
1.03716
1.03726
1.03708
1.03676
1.03672
1.03668
1.03656
1.03632
1.03607
0.820758
0.820687
0.820619
0.820549
0.820476
0.820401
0.820318
0.820226
0.820124
0.820018
0.81991
0.819794
0.819674
0.81957
0.81948
0.819405
0.819324
0.819253
0.819135
0.819016
0.818916
0.818837
0.818752
0.818656
0.818554
0.818478
0.818425
0.818442
0.818507
0.818658
0.818929
0.819492
0.820364
0.821771
0.823693
0.826641
0.830349
0.835846
0.842339
0.851576
0.861719
0.874876
0.888547
0.904858
0.920111
0.935755
0.950184
0.962516
0.974852
0.983451
0.9933
0.998713
1.00521
1.00825
1.01181
1.01346
1.01806
1.02224
1.02697
1.02981
1.03204
1.03328
1.03335
1.03303
1.03137
1.02909
1.02694
1.02518
1.02563
1.02745
1.02967
1.03182
1.03282
1.03244
1.03087
1.02927
1.028
1.02868
1.02995
1.0311
1.03179
1.0313
1.03038
1.02952
1.02978
1.03056
1.03136
1.03134
1.03109
1.031
1.03123
1.03169
1.03189
1.03179
1.03161
1.03163
1.0317
1.03169
1.03162
1.03165
0.817799
0.81774
0.817685
0.817632
0.817577
0.817519
0.81746
0.817407
0.817362
0.817322
0.817279
0.81721
0.817145
0.817112
0.817059
0.817031
0.817036
0.817024
0.817005
0.816967
0.816911
0.816875
0.816855
0.816831
0.81678
0.816732
0.816733
0.816755
0.816793
0.816832
0.816912
0.816898
0.816892
0.816886
0.81686
0.816864
0.816899
0.817013
0.817271
0.817768
0.818533
0.819914
0.821908
0.825617
0.830641
0.839393
0.849626
0.865007
0.880584
0.900466
0.918973
0.938752
0.957124
0.972681
0.988188
0.999192
1.00837
1.01263
1.01669
1.01937
1.0214
1.02244
1.02221
1.02025
1.01623
1.01653
1.01787
1.01996
1.02241
1.02397
1.02462
1.02499
1.02423
1.02281
1.02267
1.02316
1.02442
1.02523
1.02551
1.02521
1.0247
1.02455
1.02468
1.02489
1.02558
1.02603
1.02596
1.02563
1.02563
1.02591
1.02628
1.02662
1.02668
1.02683
1.02699
1.02708
1.02715
1.02709
1.02712
1.02728
0.815925
0.815906
0.815893
0.815889
0.815884
0.815876
0.815867
0.815856
0.815845
0.815838
0.815832
0.815817
0.815811
0.815821
0.815837
0.815834
0.81584
0.815862
0.815893
0.81592
0.815944
0.815971
0.816004
0.816041
0.816079
0.816119
0.81617
0.816231
0.816278
0.81632
0.816364
0.816421
0.816472
0.816511
0.81654
0.816569
0.816612
0.816725
0.816767
0.816752
0.816748
0.816809
0.816919
0.817029
0.817175
0.817484
0.81807
0.81931
0.82129
0.825343
0.831063
0.841897
0.854666
0.87471
0.894048
0.918152
0.938589
0.956836
0.972515
0.982081
0.992594
0.996651
1.00222
1.00415
1.01017
1.01501
1.02029
1.02293
1.02378
1.02369
1.02281
1.0195
1.01658
1.01686
1.01812
1.021
1.02417
1.02444
1.0241
1.0228
1.02111
1.02118
1.02182
1.0229
1.02363
1.02318
1.02271
1.02236
1.02258
1.02313
1.02364
1.02383
1.02363
1.02362
1.02377
1.02393
1.02392
1.02393
1.02405
1.02432
0.815394
0.815405
0.815419
0.815438
0.815463
0.815483
0.815495
0.815499
0.8155
0.815508
0.815514
0.815516
0.815524
0.815553
0.815585
0.815597
0.815605
0.815622
0.815665
0.815728
0.81578
0.815816
0.815853
0.815906
0.815971
0.816027
0.816073
0.816113
0.816154
0.816205
0.816259
0.816302
0.816346
0.81639
0.816426
0.816468
0.81654
0.816658
0.816759
0.816778
0.816764
0.816703
0.81669
0.816699
0.816739
0.816832
0.816939
0.817039
0.81715
0.817292
0.81749
0.817872
0.818569
0.820343
0.823431
0.830622
0.840664
0.85907
0.878695
0.904869
0.928671
0.952753
0.974993
0.992487
1.01035
1.01629
1.0207
1.02329
1.02348
1.02129
1.01479
1.01319
1.01437
1.0179
1.02157
1.02323
1.02383
1.02335
1.02171
1.01959
1.0197
1.02084
1.02225
1.02304
1.02287
1.02202
1.02102
1.02113
1.02173
1.02234
1.02237
1.02226
1.02231
1.02259
1.02282
1.02281
1.02255
1.02254
1.02268
1.02303
0.815585
0.815596
0.815607
0.815618
0.815626
0.815631
0.815642
0.815649
0.81565
0.815656
0.815677
0.815719
0.815784
0.815856
0.815903
0.815906
0.815906
0.815912
0.815962
0.816046
0.816078
0.816091
0.816109
0.816143
0.816194
0.816247
0.816295
0.816342
0.816388
0.816422
0.816452
0.816499
0.816565
0.816633
0.8167
0.816782
0.816896
0.817005
0.817021
0.817003
0.816972
0.81696
0.816951
0.816949
0.816957
0.816972
0.816968
0.816962
0.81696
0.816968
0.817013
0.817063
0.817061
0.817041
0.81703
0.817091
0.817367
0.818374
0.820511
0.826047
0.834835
0.852778
0.873549
0.903491
0.929992
0.955662
0.977075
0.988706
1.00053
1.00396
1.00828
1.01581
1.0214
1.02474
1.02504
1.02477
1.02232
1.0188
1.01901
1.01967
1.02178
1.0239
1.02381
1.02342
1.02193
1.02079
1.0208
1.02141
1.02237
1.02237
1.02206
1.02168
1.02186
1.02221
1.02244
1.02235
1.02217
1.02217
1.02235
1.02264
0.816126
0.816138
0.816151
0.816152
0.816151
0.816154
0.816165
0.81617
0.816178
0.816197
0.816234
0.816308
0.81638
0.816428
0.816447
0.816451
0.816459
0.816485
0.816532
0.816569
0.81657
0.816571
0.816577
0.816591
0.816617
0.816652
0.816688
0.816718
0.816741
0.816761
0.816799
0.816858
0.816916
0.816982
0.817058
0.817138
0.817205
0.817233
0.817229
0.817203
0.817146
0.817091
0.817049
0.817029
0.817023
0.817013
0.817004
0.816975
0.816907
0.816819
0.816736
0.816671
0.816625
0.816573
0.816542
0.816529
0.816507
0.816435
0.816297
0.816306
0.816436
0.817172
0.819147
0.825067
0.835096
0.856462
0.881674
0.915564
0.946478
0.97557
1.00402
1.01672
1.02252
1.02536
1.02511
1.02181
1.01394
1.01513
1.01805
1.02268
1.02607
1.0259
1.02481
1.02252
1.02084
1.02101
1.02196
1.02308
1.02301
1.0224
1.02158
1.02167
1.02214
1.02243
1.02241
1.02204
1.02205
1.02221
1.0226
1.02275
0.816698
0.816703
0.816704
0.816707
0.816711
0.816713
0.816716
0.816734
0.816762
0.81677
0.81679
0.816854
0.816892
0.816907
0.816916
0.816939
0.816976
0.816983
0.816978
0.816958
0.816929
0.816916
0.816912
0.816905
0.816901
0.816908
0.816932
0.816933
0.816928
0.816931
0.816957
0.817007
0.817052
0.817084
0.817125
0.817165
0.817197
0.81722
0.817214
0.817178
0.817119
0.817051
0.81699
0.816974
0.816965
0.816927
0.816851
0.816752
0.816613
0.816392
0.816237
0.81616
0.816099
0.816046
0.816054
0.816106
0.81611
0.816072
0.815962
0.815791
0.815647
0.815561
0.815558
0.81563
0.815947
0.817099
0.820222
0.828825
0.844614
0.873161
0.907087
0.942708
0.969022
0.989224
1.00023
1.00651
1.01095
1.02181
1.02544
1.02685
1.02676
1.02443
1.02135
1.02135
1.02156
1.02306
1.02441
1.02425
1.02294
1.02185
1.02187
1.02238
1.02284
1.02275
1.02216
1.02202
1.02226
1.02282
1.023
1.02294
0.817175
0.817178
0.81718
0.817184
0.817188
0.81719
0.817193
0.817198
0.817206
0.817216
0.817225
0.817243
0.817274
0.817277
0.817275
0.817271
0.81726
0.817238
0.817201
0.817153
0.817114
0.817086
0.817058
0.817023
0.817005
0.817003
0.817
0.816987
0.816982
0.816992
0.817025
0.817071
0.817106
0.817132
0.81716
0.81719
0.817217
0.817235
0.817227
0.817185
0.817105
0.817015
0.816941
0.816854
0.816723
0.816578
0.816477
0.816395
0.816239
0.816037
0.815902
0.815808
0.815745
0.815703
0.815707
0.815762
0.815796
0.815787
0.815743
0.815649
0.815581
0.815521
0.815471
0.815471
0.815509
0.815583
0.815691
0.815929
0.816669
0.819019
0.825942
0.842014
0.870641
0.90824
0.944075
0.982374
1.00826
1.022
1.02491
1.0264
1.02318
1.01669
1.01763
1.02024
1.0239
1.02579
1.02554
1.0239
1.02165
1.02177
1.02268
1.02347
1.02334
1.02243
1.02171
1.02199
1.02295
1.02331
1.02326
1.023
0.817345
0.817347
0.81735
0.817357
0.817357
0.817355
0.817352
0.817352
0.817357
0.817371
0.817393
0.817402
0.8174
0.817397
0.817391
0.817365
0.817297
0.817245
0.817222
0.817197
0.817153
0.817094
0.81704
0.817005
0.816995
0.816989
0.816976
0.816954
0.816946
0.816944
0.816929
0.816893
0.816846
0.816804
0.81677
0.816757
0.816756
0.816763
0.816765
0.816731
0.816623
0.816509
0.816417
0.816316
0.816225
0.816153
0.816108
0.816055
0.815934
0.815759
0.815606
0.815507
0.81547
0.815446
0.815445
0.815489
0.81556
0.815583
0.815584
0.815624
0.815657
0.815649
0.815592
0.815534
0.815545
0.815594
0.815657
0.815781
0.815849
0.815867
0.815956
0.816416
0.818907
0.825461
0.845368
0.874669
0.9186
0.955954
0.977907
1.00066
1.00396
1.01503
1.01968
1.02526
1.02609
1.02586
1.02362
1.02148
1.02169
1.02286
1.02426
1.02403
1.02258
1.02172
1.02188
1.02285
1.02342
1.02349
1.02322
1.02302
0.817506
0.817518
0.817534
0.817537
0.817537
0.817535
0.81753
0.817519
0.817516
0.817538
0.817568
0.817577
0.817582
0.81758
0.81755
0.817476
0.817437
0.817424
0.817414
0.817394
0.817347
0.817272
0.817188
0.817133
0.817091
0.817038
0.816971
0.816906
0.816829
0.816708
0.81656
0.816422
0.816325
0.816261
0.816211
0.816162
0.816117
0.816096
0.816091
0.816065
0.81598
0.815935
0.815898
0.815857
0.815844
0.815861
0.815862
0.815841
0.815754
0.815597
0.815452
0.815374
0.815355
0.815342
0.815336
0.815377
0.815462
0.815485
0.815544
0.815677
0.81576
0.815764
0.815755
0.815724
0.815691
0.815656
0.815637
0.815666
0.815726
0.815737
0.815717
0.815652
0.815614
0.815698
0.816471
0.819069
0.830842
0.851592
0.892511
0.935324
0.973313
1.01144
1.01866
1.02526
1.02466
1.0208
1.0176
1.01951
1.02313
1.02508
1.02476
1.02289
1.02107
1.02136
1.02294
1.02369
1.02358
1.02297
1.02285
1.02297
0.817396
0.817392
0.817383
0.817377
0.817372
0.817366
0.817364
0.817368
0.817376
0.817373
0.817364
0.817365
0.817371
0.817368
0.817326
0.817209
0.817146
0.817144
0.817146
0.817128
0.817049
0.816913
0.816812
0.816745
0.816655
0.816531
0.816466
0.816434
0.816392
0.816322
0.816228
0.816109
0.816006
0.815937
0.81589
0.815828
0.815707
0.815599
0.815529
0.815495
0.815492
0.815504
0.81556
0.815591
0.815601
0.815638
0.815697
0.815713
0.8157
0.815647
0.815614
0.815625
0.815624
0.815605
0.815539
0.815495
0.815503
0.815568
0.815659
0.815742
0.815844
0.815883
0.81589
0.815893
0.815849
0.815704
0.815616
0.815616
0.815625
0.815619
0.815595
0.815547
0.815476
0.815429
0.815406
0.815436
0.8157
0.816836
0.82277
0.83682
0.873656
0.916256
0.954793
0.993889
0.999037
1.00822
1.01418
1.02418
1.02591
1.02541
1.02235
1.02061
1.02095
1.02277
1.02451
1.02405
1.0226
1.02228
1.02255
1.02301
0.816789
0.816778
0.816774
0.816774
0.816774
0.816779
0.816791
0.816792
0.816784
0.816755
0.816732
0.816728
0.816716
0.816664
0.816505
0.816392
0.81639
0.816386
0.816347
0.816182
0.815932
0.815883
0.815898
0.815916
0.815898
0.815858
0.815851
0.815868
0.815914
0.815935
0.815935
0.815911
0.815832
0.815769
0.815732
0.815683
0.815555
0.815334
0.815225
0.815213
0.815219
0.815289
0.815433
0.815448
0.815446
0.815477
0.815594
0.815775
0.815855
0.815841
0.815841
0.815896
0.81596
0.815939
0.815887
0.815789
0.815727
0.815738
0.815753
0.815792
0.81595
0.81607
0.816064
0.816051
0.815968
0.815762
0.815676
0.815701
0.815734
0.815718
0.815634
0.815496
0.815401
0.815366
0.815355
0.81538
0.815461
0.815571
0.815726
0.816182
0.819444
0.828468
0.860002
0.901797
0.94878
0.99808
1.0118
1.02342
1.02341
1.0192
1.01652
1.01891
1.02315
1.02484
1.0243
1.02237
1.02158
1.02204
1.02289
1.02286
0.815624
0.815623
0.815613
0.815605
0.815608
0.815626
0.815647
0.815645
0.815644
0.815643
0.815605
0.815561
0.815512
0.815393
0.815334
0.81534
0.815352
0.815335
0.815184
0.814998
0.814979
0.815012
0.815124
0.815304
0.815397
0.815395
0.81538
0.815388
0.81546
0.815631
0.8157
0.815692
0.815643
0.815605
0.815572
0.815509
0.815352
0.815118
0.815004
0.814977
0.81498
0.815055
0.815283
0.815389
0.815405
0.815447
0.815571
0.815733
0.815814
0.8158
0.815756
0.815752
0.815869
0.815964
0.815953
0.815907
0.815788
0.815749
0.815754
0.815778
0.815919
0.81607
0.816052
0.816029
0.815938
0.815744
0.815633
0.815608
0.815586
0.815546
0.815477
0.815459
0.81549
0.815508
0.815515
0.815537
0.815599
0.815708
0.815744
0.815704
0.815654
0.81577
0.81749
0.82375
0.852197
0.891154
0.938934
0.98308
0.993893
1.00537
1.01363
1.02466
1.02609
1.02544
1.02164
1.02027
1.02111
1.023
1.02301
1.02236
0.815239
0.815237
0.815236
0.815239
0.815246
0.815244
0.815224
0.815186
0.815155
0.815131
0.815103
0.815087
0.815076
0.815051
0.814963
0.814889
0.814879
0.814849
0.814751
0.814694
0.814701
0.814763
0.814857
0.814993
0.815163
0.815196
0.815211
0.815255
0.8154
0.815673
0.815819
0.815815
0.815754
0.815747
0.81575
0.815713
0.815583
0.815369
0.815236
0.815189
0.815189
0.815242
0.815474
0.815658
0.815655
0.815659
0.815687
0.815742
0.815787
0.815745
0.815654
0.815636
0.815735
0.816012
0.816036
0.816001
0.81588
0.815732
0.815708
0.815712
0.815799
0.816038
0.816073
0.816053
0.815927
0.815667
0.815493
0.815458
0.815431
0.815384
0.815346
0.815369
0.815495
0.81565
0.815722
0.815727
0.815728
0.815745
0.815731
0.815672
0.815597
0.815367
0.815006
0.815024
0.816347
0.821513
0.846967
0.884051
0.935357
0.991875
1.01088
1.02392
1.02336
1.01882
1.01737
1.01993
1.02305
1.02342
1.0225
1.02153
0.814998
0.815001
0.815011
0.815043
0.815057
0.815036
0.814944
0.814878
0.81485
0.814849
0.814852
0.81485
0.814842
0.814823
0.814776
0.814679
0.814602
0.814567
0.814536
0.814526
0.814531
0.814568
0.81463
0.814719
0.814916
0.815036
0.815084
0.815167
0.815353
0.815611
0.815756
0.815764
0.81576
0.81579
0.815823
0.815792
0.81563
0.815356
0.815229
0.815205
0.81523
0.815308
0.815513
0.815747
0.81577
0.81577
0.815746
0.815761
0.815814
0.815753
0.815506
0.815398
0.81543
0.815745
0.815893
0.815881
0.815871
0.815795
0.815596
0.815523
0.81558
0.815763
0.81577
0.815734
0.815607
0.815407
0.815339
0.81537
0.815384
0.815363
0.815334
0.815362
0.815516
0.815753
0.815801
0.81579
0.815763
0.815746
0.815716
0.815627
0.815362
0.814939
0.814675
0.814548
0.814587
0.814763
0.816032
0.8206
0.844284
0.883227
0.933684
0.9844
0.993578
1.00616
1.01477
1.02516
1.02493
1.02267
1.02024
1.02106
0.815701
0.815732
0.815789
0.815826
0.81582
0.815695
0.815469
0.815376
0.81537
0.81538
0.815379
0.815369
0.815361
0.815344
0.815266
0.815104
0.814943
0.814882
0.814873
0.814891
0.814931
0.814925
0.814891
0.814889
0.814973
0.815075
0.815152
0.815242
0.815366
0.815509
0.815558
0.815561
0.815589
0.815689
0.81578
0.815757
0.815581
0.815354
0.81525
0.815212
0.81525
0.815359
0.815529
0.815733
0.815831
0.815859
0.815794
0.815738
0.815782
0.815771
0.815544
0.81521
0.815131
0.815294
0.815642
0.815801
0.815841
0.815833
0.815638
0.815291
0.815211
0.815243
0.815224
0.815103
0.814983
0.81498
0.815037
0.815247
0.815481
0.81552
0.815509
0.815509
0.815589
0.815741
0.815757
0.815746
0.815698
0.815583
0.815349
0.815078
0.814758
0.814496
0.814496
0.814497
0.814594
0.814893
0.815079
0.815188
0.816186
0.820553
0.844385
0.884046
0.94021
0.996806
1.0123
1.02363
1.02212
1.01564
1.01798
1.02243
0.81551
0.81553
0.815554
0.815562
0.815552
0.815432
0.815209
0.815102
0.815024
0.815008
0.815014
0.815037
0.815049
0.815025
0.814861
0.814569
0.814489
0.81447
0.814483
0.814583
0.814608
0.814617
0.814646
0.814651
0.814582
0.814546
0.814658
0.814778
0.814813
0.814821
0.814842
0.814915
0.815065
0.815265
0.815423
0.815428
0.81528
0.815026
0.814883
0.814803
0.814809
0.815115
0.815555
0.815658
0.815668
0.815691
0.815678
0.815588
0.815584
0.815589
0.815379
0.81484
0.814443
0.814461
0.814724
0.815108
0.815449
0.815591
0.815487
0.815121
0.814838
0.814844
0.814838
0.814682
0.814582
0.81459
0.814709
0.815073
0.815491
0.815614
0.815598
0.815575
0.815576
0.815637
0.815638
0.81561
0.815483
0.815157
0.814725
0.814493
0.814326
0.81433
0.814418
0.814578
0.814835
0.81509
0.815171
0.815161
0.815069
0.815039
0.815878
0.820651
0.848094
0.891642
0.944272
0.988911
0.998369
1.00948
1.02279
1.02381
0.814574
0.814555
0.814489
0.814368
0.814209
0.814115
0.814088
0.814089
0.814089
0.814074
0.814082
0.814116
0.814076
0.813769
0.813419
0.813369
0.813392
0.813541
0.813596
0.813464
0.813343
0.813434
0.813563
0.813697
0.813974
0.814502
0.814782
0.814812
0.814764
0.814674
0.814696
0.814844
0.814884
0.814785
0.814679
0.814644
0.81448
0.814302
0.814285
0.814286
0.814184
0.814216
0.814607
0.8151
0.815261
0.815347
0.815386
0.815288
0.815198
0.815138
0.814905
0.81436
0.813858
0.813793
0.813966
0.814282
0.814558
0.814866
0.815005
0.814834
0.814732
0.814795
0.814834
0.814742
0.814568
0.814562
0.814702
0.815038
0.815437
0.815578
0.815567
0.81553
0.815484
0.815332
0.815132
0.814999
0.814796
0.814474
0.814222
0.814234
0.814234
0.814429
0.814699
0.814894
0.815087
0.815173
0.81518
0.815139
0.814877
0.814576
0.814453
0.814566
0.816049
0.822738
0.85339
0.900051
0.959904
1.00503
1.02138
1.02166
0.811851
0.81185
0.811802
0.811608
0.811497
0.811438
0.811408
0.811407
0.811427
0.811475
0.811474
0.811369
0.811353
0.811361
0.811341
0.811311
0.811407
0.81178
0.811859
0.811598
0.811471
0.811538
0.81172
0.812119
0.812946
0.813635
0.813669
0.813477
0.813265
0.81315
0.813117
0.813108
0.813054
0.812902
0.812757
0.812651
0.812566
0.812532
0.812519
0.812466
0.812315
0.812365
0.81257
0.812584
0.812576
0.812522
0.812636
0.813363
0.813756
0.813708
0.813442
0.813001
0.812934
0.812986
0.813188
0.813319
0.813351
0.813438
0.813739
0.814238
0.814578
0.814792
0.814821
0.814763
0.81469
0.814673
0.814741
0.814971
0.815115
0.815189
0.815217
0.815171
0.814893
0.81434
0.814003
0.813872
0.813824
0.813874
0.814015
0.814155
0.81444
0.814735
0.814836
0.814994
0.815091
0.815082
0.815012
0.814719
0.814333
0.81424
0.814291
0.814582
0.814868
0.815104
0.816739
0.8259
0.860925
0.914942
0.964481
0.999813
0.811836
0.811812
0.811818
0.811829
0.811842
0.811843
0.811767
0.811542
0.811241
0.811147
0.811191
0.811255
0.811281
0.811224
0.810883
0.810767
0.810808
0.81123
0.811556
0.811347
0.810374
0.810113
0.810114
0.810278
0.810854
0.811562
0.811777
0.811636
0.811063
0.81062
0.810574
0.810703
0.8108
0.810795
0.810936
0.81104
0.811019
0.810938
0.810608
0.810349
0.810396
0.810718
0.81073
0.810015
0.809148
0.80899
0.809101
0.810029
0.811056
0.811091
0.810963
0.810848
0.810877
0.811057
0.811536
0.812115
0.812873
0.813048
0.812971
0.812923
0.812953
0.813066
0.813418
0.813989
0.81421
0.814212
0.814142
0.813611
0.812934
0.812822
0.812912
0.813113
0.813155
0.813087
0.813079
0.813107
0.813264
0.813652
0.81421
0.814543
0.814758
0.814816
0.814837
0.814963
0.814899
0.814615
0.814231
0.813865
0.813914
0.814123
0.814463
0.814845
0.815095
0.815102
0.815082
0.81515
0.817345
0.832091
0.868855
0.960518
0.808914
0.809036
0.80923
0.809484
0.809726
0.810042
0.810528
0.810952
0.811151
0.81123
0.811392
0.811552
0.811564
0.811524
0.811391
0.811153
0.810904
0.810891
0.8111
0.811085
0.809872
0.808113
0.807873
0.80796
0.808541
0.809151
0.809127
0.808556
0.807582
0.807322
0.807374
0.807772
0.808032
0.808201
0.808521
0.808963
0.809159
0.809357
0.809766
0.810267
0.810647
0.810686
0.810459
0.809469
0.807821
0.806893
0.806859
0.80735
0.808981
0.810157
0.810349
0.810564
0.811191
0.811585
0.811269
0.811002
0.811114
0.811508
0.811535
0.811468
0.811099
0.810514
0.810399
0.810538
0.810989
0.811201
0.811184
0.810927
0.810519
0.810405
0.81047
0.81074
0.811154
0.811547
0.81184
0.812115
0.812526
0.813307
0.813976
0.81434
0.814461
0.814441
0.814383
0.814128
0.813637
0.813244
0.813174
0.813342
0.813924
0.814329
0.814725
0.81489
0.815038
0.815015
0.814639
0.814198
0.81425
0.815045
0.818736
0.869114
0.810124
0.81022
0.810362
0.810574
0.810884
0.811356
0.812034
0.812799
0.813512
0.814261
0.814952
0.815138
0.815138
0.815141
0.815258
0.815304
0.815075
0.81403
0.812551
0.81183
0.811123
0.81052
0.810192
0.810166
0.810217
0.810145
0.809874
0.809244
0.808875
0.808871
0.808951
0.809154
0.809271
0.809372
0.809541
0.810035
0.810584
0.810991
0.811745
0.813119
0.814742
0.815711
0.815725
0.815197
0.813971
0.812382
0.810882
0.810242
0.810397
0.810827
0.811296
0.812151
0.812851
0.812766
0.812154
0.811923
0.812062
0.812433
0.812457
0.812223
0.811551
0.810304
0.809512
0.809472
0.809648
0.810017
0.8101
0.810066
0.809768
0.809467
0.80946
0.809579
0.80983
0.810156
0.810477
0.810747
0.811074
0.811506
0.811996
0.812018
0.811769
0.811518
0.811545
0.811552
0.811646
0.811899
0.812483
0.813314
0.814021
0.814304
0.814687
0.814662
0.814422
0.814032
0.813624
0.813704
0.814248
0.814538
0.814697
0.821672
0.821508
0.821655
0.821748
0.82179
0.821803
0.821927
0.822376
0.822737
0.822906
0.823183
0.823584
0.823664
0.823671
0.823734
0.824266
0.824973
0.825121
0.824852
0.823697
0.822937
0.822893
0.822969
0.823286
0.823962
0.824182
0.824155
0.823994
0.823309
0.82167
0.819886
0.81897
0.818387
0.817682
0.816804
0.816388
0.81664
0.817304
0.817397
0.817229
0.817436
0.818579
0.81976
0.819992
0.819893
0.819502
0.818739
0.817474
0.815918
0.814588
0.814115
0.814177
0.814208
0.813879
0.813014
0.811956
0.811407
0.811393
0.811511
0.811432
0.811381
0.811131
0.810222
0.80946
0.809419
0.809602
0.809991
0.810089
0.81008
0.810211
0.81032
0.810406
0.81062
0.811025
0.811552
0.812091
0.812163
0.811981
0.811593
0.810905
0.810313
0.809881
0.809673
0.809702
0.809772
0.809936
0.810324
0.811146
0.812074
0.81289
0.813059
0.812874
0.812435
0.812433
0.812528
0.812979
0.813656
0.814282
0.814509
0.814505
0.814517
0.83519
0.835505
0.835543
0.835521
0.835111
0.834784
0.834825
0.834793
0.833401
0.830271
0.82931
0.828946
0.828282
0.828101
0.828158
0.828999
0.831478
0.83274
0.8327
0.832157
0.832066
0.832821
0.834325
0.834638
0.834543
0.834461
0.834581
0.834504
0.833113
0.831914
0.831827
0.831492
0.83027
0.828545
0.827665
0.827361
0.827075
0.826607
0.826077
0.825493
0.824424
0.822451
0.821028
0.820888
0.821261
0.822023
0.822532
0.822601
0.822304
0.821581
0.82099
0.820631
0.82028
0.819691
0.818684
0.817449
0.815825
0.814751
0.814754
0.815521
0.817483
0.818404
0.818219
0.817699
0.816819
0.81571
0.815257
0.815572
0.81667
0.817039
0.816706
0.815661
0.814822
0.814517
0.81429
0.813678
0.812542
0.811274
0.810501
0.810112
0.809835
0.809746
0.809832
0.810253
0.810972
0.811893
0.812775
0.812664
0.812076
0.811425
0.810628
0.81054
0.81069
0.810947
0.811693
0.812621
0.813202
0.81345
0.813142
0.812979
0.85645
0.856398
0.856453
0.856726
0.857439
0.858084
0.858163
0.857354
0.854336
0.851637
0.851073
0.851116
0.851352
0.851506
0.851307
0.850693
0.850155
0.850069
0.850196
0.850562
0.851236
0.85136
0.85134
0.850968
0.85033
0.850319
0.850518
0.850403
0.849305
0.847857
0.847783
0.847909
0.8475
0.846971
0.847073
0.84729
0.847251
0.847085
0.846719
0.845848
0.844655
0.843927
0.843237
0.841807
0.839813
0.839273
0.839368
0.839085
0.83872
0.838292
0.837408
0.83701
0.837061
0.837239
0.837195
0.836599
0.835084
0.832956
0.831104
0.830014
0.829563
0.829348
0.828927
0.828102
0.826793
0.825343
0.823525
0.821993
0.821489
0.821061
0.820034
0.818153
0.816472
0.815498
0.814763
0.813969
0.813356
0.812644
0.812565
0.81287
0.813481
0.814164
0.814508
0.814877
0.814575
0.814236
0.813596
0.812308
0.811003
0.810496
0.810413
0.81052
0.810803
0.811551
0.812575
0.812599
0.812054
0.811499
0.811356
0.811689
0.874989
0.874625
0.874361
0.873892
0.87362
0.873724
0.874101
0.874255
0.874296
0.874182
0.87336
0.872813
0.87292
0.873034
0.87273
0.871225
0.870346
0.870431
0.87101
0.871473
0.872032
0.872242
0.872237
0.872084
0.871556
0.870948
0.870613
0.869778
0.867788
0.867397
0.867735
0.867511
0.866005
0.864404
0.863565
0.862112
0.860721
0.860527
0.860308
0.859713
0.859563
0.860085
0.860564
0.860344
0.85969
0.859169
0.858577
0.85735
0.856184
0.854996
0.852635
0.849502
0.848609
0.848803
0.848752
0.848016
0.847856
0.847945
0.847558
0.845577
0.842431
0.839569
0.837439
0.836763
0.836884
0.837158
0.836854
0.834985
0.831986
0.830637
0.830664
0.83051
0.82981
0.828734
0.827092
0.82624
0.826354
0.826373
0.825909
0.824956
0.823647
0.822316
0.820932
0.819282
0.817376
0.815648
0.81363
0.812359
0.811264
0.810989
0.811562
0.812592
0.813786
0.813848
0.813322
0.812468
0.81126
0.810912
0.810883
0.811292
0.897411
0.897183
0.897164
0.897067
0.897021
0.896885
0.896785
0.896944
0.897202
0.897172
0.896677
0.895479
0.894811
0.894777
0.894584
0.893562
0.892573
0.89251
0.892589
0.892466
0.891883
0.891415
0.891309
0.891342
0.891339
0.890746
0.889955
0.88983
0.889821
0.889574
0.888517
0.888034
0.888096
0.888079
0.887772
0.886923
0.885924
0.88502
0.88393
0.882557
0.881257
0.88031
0.879883
0.879394
0.878463
0.878068
0.877797
0.876961
0.876574
0.87636
0.875479
0.873526
0.872157
0.871617
0.87085
0.868728
0.867295
0.867208
0.866845
0.865345
0.8639
0.86299
0.861315
0.858459
0.856793
0.856499
0.856313
0.855128
0.852385
0.84965
0.848378
0.847423
0.84593
0.843725
0.841372
0.839131
0.837052
0.8351
0.833267
0.831053
0.828627
0.826473
0.824401
0.822394
0.821163
0.820036
0.820101
0.820632
0.821005
0.82047
0.819978
0.818922
0.817698
0.815851
0.813448
0.812149
0.811166
0.811178
0.811865
0.813033
0.919886
0.919776
0.919469
0.918741
0.918117
0.917606
0.917504
0.917844
0.918364
0.918303
0.917805
0.917741
0.91765
0.916594
0.915492
0.915448
0.915698
0.91568
0.914986
0.914117
0.913788
0.913486
0.91325
0.913139
0.913083
0.912715
0.911853
0.91144
0.91125
0.91072
0.909417
0.908493
0.907746
0.906623
0.906172
0.906185
0.905992
0.905112
0.903975
0.903029
0.902334
0.901644
0.901105
0.900611
0.89999
0.899082
0.897905
0.896438
0.895168
0.894067
0.892797
0.891436
0.890064
0.889402
0.888895
0.887759
0.88662
0.885435
0.882653
0.87936
0.87894
0.878682
0.877744
0.876358
0.874096
0.871295
0.869237
0.868294
0.86747
0.865809
0.863184
0.860969
0.859251
0.857537
0.855669
0.853756
0.852053
0.85009
0.848445
0.846722
0.845122
0.843686
0.842347
0.84115
0.839766
0.838031
0.835856
0.833921
0.831707
0.82898
0.825722
0.822614
0.819533
0.817247
0.815993
0.816002
0.816845
0.817379
0.817232
0.815753
0.942259
0.941884
0.941334
0.94125
0.941355
0.941345
0.940664
0.939517
0.939129
0.939222
0.939543
0.93965
0.939501
0.9388
0.938557
0.938225
0.937841
0.93756
0.936936
0.936294
0.935346
0.934449
0.934407
0.934372
0.93407
0.933545
0.933129
0.932297
0.931068
0.930983
0.931043
0.930813
0.9298
0.92821
0.927831
0.927704
0.92741
0.9266
0.925219
0.924121
0.923274
0.922707
0.921702
0.920128
0.919381
0.919013
0.918517
0.91713
0.915705
0.915045
0.914248
0.913038
0.911743
0.910083
0.907418
0.906028
0.906192
0.906189
0.904998
0.902255
0.900717
0.899332
0.896843
0.895441
0.894399
0.893346
0.891209
0.888542
0.887448
0.886904
0.885457
0.882676
0.880066
0.878132
0.876424
0.87432
0.87208
0.869725
0.867147
0.86452
0.861908
0.858827
0.856346
0.853272
0.850392
0.847143
0.843957
0.840778
0.837717
0.835785
0.83274
0.832079
0.831815
0.831749
0.831096
0.829335
0.826857
0.823951
0.821047
0.816693
0.964892
0.964966
0.964978
0.964668
0.964313
0.96431
0.964255
0.963686
0.962584
0.962324
0.962426
0.962433
0.962298
0.962094
0.961421
0.960359
0.960198
0.960141
0.959954
0.959221
0.958331
0.957917
0.957663
0.957235
0.956616
0.95613
0.955835
0.955506
0.954835
0.953857
0.953177
0.952594
0.951967
0.950863
0.949504
0.949036
0.948868
0.948552
0.947864
0.946655
0.944937
0.944053
0.943548
0.942707
0.941365
0.94037
0.939711
0.938868
0.937612
0.936205
0.934659
0.932909
0.93197
0.931086
0.929654
0.927749
0.926246
0.925175
0.923808
0.921137
0.919888
0.918965
0.917484
0.915465
0.912547
0.910445
0.908804
0.907233
0.905175
0.90298
0.901051
0.898875
0.896254
0.893739
0.891332
0.889101
0.886385
0.883844
0.881317
0.878967
0.876616
0.873986
0.871359
0.868694
0.866355
0.864024
0.862128
0.860092
0.857784
0.855806
0.853715
0.85116
0.848287
0.844767
0.84082
0.836924
0.832152
0.828434
0.825604
0.825324
0.987946
0.987745
0.987838
0.988256
0.98833
0.988144
0.987788
0.987712
0.987425
0.986344
0.985549
0.985619
0.985818
0.985588
0.984995
0.984377
0.983919
0.983602
0.983245
0.98234
0.981665
0.98138
0.981074
0.980502
0.979695
0.978995
0.978444
0.978001
0.977504
0.977012
0.975842
0.974444
0.974284
0.974114
0.973482
0.972409
0.971206
0.970087
0.969341
0.968692
0.967788
0.966368
0.965244
0.9645
0.963562
0.962315
0.961085
0.959815
0.958493
0.957349
0.956222
0.95471
0.953096
0.951685
0.950262
0.948398
0.946566
0.945398
0.944311
0.9426
0.940316
0.938273
0.93651