/*--------------------------------*- C++ -*----------------------------------*\
  =========                 |
  \\      /  F ield         | OpenFOAM: The Open Source CFD Toolbox
   \\    /   O peration     | Website:  https://openfoam.org
    \\  /    A nd           | Version:  7
     \\/     M anipulation  |
\*---------------------------------------------------------------------------*/
FoamFile
{
    version     2.0;
    format      ascii;
    class       volVectorField;
    location    "6.9";
    object      U;
}
// * * * * * * * * * * * * * * * * * * * * * * * * * * * * * * * * * * * * * //

dimensions      [0 1 -1 0 0 0 0];

internalField   nonuniform List<vector> 
1750
(
(2.26362 0.253171 0)
(2.3944 0.570007 0)
(2.40028 0.774993 0)
(2.52361 0.669358 0)
(2.62644 0.512805 0)
(2.69107 0.372877 0)
(2.72839 0.240472 0)
(2.73275 0.133265 0)
(2.71095 0.112154 0)
(2.68889 0.118307 0)
(2.32039 -1.67742 0)
(2.37681 -1.19583 0)
(2.33314 -0.372944 0)
(2.25965 0.178891 0)
(2.25167 0.282024 0)
(2.34095 0.155791 0)
(2.40895 0.229557 0)
(2.5061 0.222794 0)
(2.51305 0.144611 0)
(2.55399 0.0875073 0)
(2.66411 -2.00956 0)
(2.77954 -1.92397 0)
(2.80841 -1.86036 0)
(2.55109 -0.996804 0)
(2.43045 -0.513846 0)
(2.37345 -0.150411 0)
(2.37272 0.00187058 0)
(2.41856 0.0807553 0)
(2.45053 0.0803675 0)
(2.54966 0.0563148 0)
(2.96623 -1.7016 0)
(3.05332 -1.6514 0)
(3.10545 -1.5744 0)
(3.13944 -1.82861 0)
(3.10191 -1.67044 0)
(2.90451 -1.20456 0)
(2.78738 -0.818912 0)
(2.6762 -0.381563 0)
(2.71376 -0.20378 0)
(2.64861 0.0205654 0)
(3.04648 -1.62571 0)
(3.12676 -1.44263 0)
(3.11897 -1.43314 0)
(3.12151 -1.41257 0)
(3.10213 -1.35167 0)
(3.12911 -1.28594 0)
(3.13356 -1.28594 0)
(3.11046 -1.20967 0)
(3.03761 -0.943374 0)
(2.91959 -0.470437 0)
(3.13783 -1.23875 0)
(3.14044 -1.23816 0)
(3.14616 -1.16301 0)
(3.17773 -1.07239 0)
(3.17462 -1.06401 0)
(3.15165 -1.05579 0)
(3.12761 -1.09094 0)
(3.13744 -1.0375 0)
(3.14136 -1.10017 0)
(3.1145 -0.996615 0)
(3.1614 -0.842149 0)
(3.15474 -0.846677 0)
(3.14337 -0.858481 0)
(3.13999 -0.874556 0)
(3.14276 -0.874569 0)
(3.14151 -0.87127 0)
(3.13717 -0.858282 0)
(3.13368 -0.856624 0)
(3.13173 -0.844584 0)
(3.13757 -0.828692 0)
(3.12255 -0.475837 0)
(3.12168 -0.517858 0)
(3.11813 -0.539445 0)
(3.117 -0.555737 0)
(3.11974 -0.579259 0)
(3.12254 -0.605101 0)
(3.12205 -0.623946 0)
(3.12276 -0.639438 0)
(3.11971 -0.628482 0)
(3.12712 -0.67172 0)
(3.03404 -0.123946 0)
(3.04939 -0.179249 0)
(3.0561 -0.215917 0)
(3.06266 -0.249776 0)
(3.07416 -0.309501 0)
(3.0776 -0.323289 0)
(3.08763 -0.372479 0)
(3.09411 -0.41949 0)
(3.0984 -0.447596 0)
(3.10673 -0.487072 0)
(2.97586 0.0617557 0)
(2.98405 0.0433272 0)
(2.9928 0.0196973 0)
(3.00222 -0.00618612 0)
(3.01262 -0.0372699 0)
(3.02465 -0.0800803 0)
(3.03567 -0.121005 0)
(3.04467 -0.157193 0)
(3.05689 -0.207959 0)
(3.07167 -0.269296 0)
(2.96646 0.08742 0)
(2.9684 0.0843331 0)
(2.96929 0.0812518 0)
(2.9715 0.0786249 0)
(2.97559 0.0729552 0)
(2.98039 0.0633273 0)
(2.98675 0.0473993 0)
(2.99543 0.0243381 0)
(3.00534 -0.00357689 0)
(3.02332 -0.061193 0)
(2.97924 0.0569972 0)
(2.97616 0.0644358 0)
(2.97467 0.0681571 0)
(2.97399 0.0711816 0)
(2.97447 0.0716636 0)
(2.97457 0.0716737 0)
(2.97503 0.0710616 0)
(2.97624 0.0691074 0)
(2.97826 0.0662749 0)
(2.98565 0.0513585 0)
(2.9948 0.013435 0)
(2.99276 0.0180243 0)
(2.99024 0.0237129 0)
(2.98715 0.0312489 0)
(2.98453 0.0381192 0)
(2.98187 0.0456638 0)
(2.97989 0.0518815 0)
(2.97844 0.0566114 0)
(2.978 0.060472 0)
(2.97859 0.0602254 0)
(2.99971 0.000656422 0)
(2.99948 0.00110021 0)
(2.99903 0.00196101 0)
(2.99834 0.00334649 0)
(2.99723 0.00568841 0)
(2.99563 0.00915879 0)
(2.9935 0.0140765 0)
(2.99099 0.0202321 0)
(2.9882 0.0273183 0)
(2.98476 0.0385829 0)
(2.99999 8.22991e-06 0)
(2.99999 1.53802e-05 0)
(2.99998 3.35135e-05 0)
(2.99995 6.92497e-05 0)
(2.99988 0.000155583 0)
(2.99975 0.000324258 0)
(2.99945 0.000716767 0)
(2.99888 0.00139412 0)
(2.99792 0.00263197 0)
(2.99467 0.00640329 0)
(2.034 -1.49624 0)
(2.23921 -1.58023 0)
(2.52461 -1.95193 0)
(2.84092 -1.80761 0)
(3.02327 -1.65149 0)
(3.14517 -1.19734 0)
(3.17392 -0.812477 0)
(3.10454 -0.40535 0)
(3.01917 -0.0858435 0)
(2.97082 0.0708673 0)
(2.96551 0.0870606 0)
(2.97909 0.0561869 0)
(2.99595 0.0102712 0)
(2.99981 0.000436564 0)
(3 5.30155e-06 0)
(1.95997 -1.46215 0)
(2.29721 -1.68377 0)
(2.61152 -2.00467 0)
(2.89911 -1.6562 0)
(3.04025 -1.57486 0)
(3.16437 -0.967065 0)
(3.14955 -0.685061 0)
(3.08395 -0.337991 0)
(3.00279 -0.0253844 0)
(2.96553 0.0876364 0)
(2.9673 0.0833864 0)
(2.98432 0.0410063 0)
(2.99798 0.00486007 0)
(2.99993 0.000146935 0)
(3 1.80228e-06 0)
(1.85371 -1.49854 0)
(2.33601 -1.77665 0)
(2.62495 -1.9682 0)
(2.88144 -1.69891 0)
(3.1004 -1.28471 0)
(3.16269 -0.990367 0)
(3.13281 -0.632989 0)
(3.06463 -0.229888 0)
(2.98615 0.0402512 0)
(2.96369 0.0934286 0)
(2.97313 0.0727069 0)
(2.99117 0.0257615 0)
(2.99906 0.00250122 0)
(2.99997 6.09136e-05 0)
(3 6.97189e-07 0)
(1.79243 -1.50584 0)
(2.35793 -1.79964 0)
(2.58896 -1.98136 0)
(2.86284 -1.6661 0)
(3.11151 -1.08697 0)
(3.13101 -1.0113 0)
(3.12278 -0.488679 0)
(3.03508 -0.0916615 0)
(2.97204 0.0810841 0)
(2.9623 0.0971555 0)
(2.97355 0.0724949 0)
(2.9929 0.0211281 0)
(2.99953 0.00127474 0)
(2.99999 2.53931e-05 0)
(3 2.62248e-07 0)
(1.55047 -1.40742 0)
(2.36908 -1.80413 0)
(2.58572 -1.95437 0)
(2.90841 -1.48643 0)
(3.11656 -1.26088 0)
(3.17332 -0.709261 0)
(3.0896 -0.251932 0)
(3.00527 -0.00310425 0)
(2.96243 0.101432 0)
(2.96136 0.100178 0)
(2.97597 0.0703151 0)
(2.99557 0.0123695 0)
(2.99978 0.00054725 0)
(3 9.74679e-06 0)
(3 9.59151e-08 0)
(1.53014 -1.31814 0)
(2.27954 -1.79358 0)
(2.63649 -1.78876 0)
(2.96621 -1.2951 0)
(3.11803 -1.14756 0)
(3.12477 -0.434484 0)
(3.06805 -0.196171 0)
(2.9861 0.0391202 0)
(2.95903 0.107743 0)
(2.96182 0.10518 0)
(2.98473 0.0409591 0)
(2.99809 0.00515377 0)
(2.99992 0.000191624 0)
(3 3.24675e-06 0)
(3 3.20277e-08 0)
(1.52788 -1.32298 0)
(2.16573 -1.80198 0)
(2.66367 -1.65022 0)
(3.02556 -1.21469 0)
(3.14741 -0.677989 0)
(3.12418 -0.45067 0)
(3.03345 -0.0933723 0)
(2.96721 0.0904198 0)
(2.95742 0.110469 0)
(2.96453 0.0884932 0)
(2.98994 0.0263388 0)
(2.99906 0.00258232 0)
(2.99997 6.6951e-05 0)
(3 1.04936e-06 0)
(3 1.00401e-08 0)
(1.39564 -1.32081 0)
(2.06069 -1.77879 0)
(2.71965 -1.37756 0)
(3.04286 -1.10876 0)
(3.14607 -0.571164 0)
(3.09081 -0.27326 0)
(2.99612 0.0235781 0)
(2.95789 0.111865 0)
(2.95724 0.110189 0)
(2.97583 0.0622272 0)
(2.99387 0.0173066 0)
(2.99965 0.000905995 0)
(2.99999 2.07557e-05 0)
(3 3.12024e-07 0)
(3 2.94118e-09 0)
(1.29076 -1.09365 0)
(1.92853 -1.57923 0)
(2.79745 -1.13323 0)
(3.05479 -0.88184 0)
(3.13269 -0.535872 0)
(3.03703 -0.0650643 0)
(2.97063 0.0905712 0)
(2.95367 0.119792 0)
(2.95898 0.102864 0)
(2.98199 0.0476275 0)
(2.99793 0.00611196 0)
(2.9999 0.000268607 0)
(3 5.5158e-06 0)
(3 8.14776e-08 0)
(3 7.73215e-10 0)
(0.865016 -0.691325 0)
(2.23225 -0.95074 0)
(2.82725 -1.23884 0)
(3.10734 -0.519476 0)
(3.10157 -0.212365 0)
(3.00697 0.0215537 0)
(2.9563 0.120104 0)
(2.95223 0.121879 0)
(2.9633 0.0962158 0)
(2.98829 0.0323658 0)
(2.99903 0.00272745 0)
(2.99997 8.36589e-05 0)
(3 1.46398e-06 0)
(3 2.03959e-08 0)
(3 1.85893e-10 0)
(0.406856 0.169361 0)
(2.3135 -0.605639 0)
(2.96871 -0.802104 0)
(3.13104 -0.360537 0)
(3.04955 -0.0424067 0)
(2.97112 0.10268 0)
(2.94991 0.133346 0)
(2.95034 0.126971 0)
(2.97495 0.0631294 0)
(2.99626 0.0106923 0)
(2.99975 0.000741166 0)
(2.99999 1.89661e-05 0)
(3 3.30836e-07 0)
(3 4.5583e-09 0)
(3 4.06756e-11 0)
(0.567793 0.471074 0)
(2.47277 -0.888728 0)
(3.09941 -0.356062 0)
(3.10139 -0.133281 0)
(3.00683 0.0352867 0)
(2.95196 0.135623 0)
(2.9486 0.136841 0)
(2.95788 0.107073 0)
(2.98524 0.0378276 0)
(2.99826 0.00484446 0)
(2.99994 0.000184483 0)
(3 4.09853e-06 0)
(3 6.6748e-08 0)
(3 8.91554e-10 0)
(3 7.73244e-12 0)
(1.1021 0.455181 0)
(2.87798 -0.142878 0)
(3.15283 -0.23725 0)
(3.03331 0.0489113 0)
(2.96231 0.12231 0)
(2.94622 0.144589 0)
(2.94777 0.139316 0)
(2.97398 0.0670267 0)
(2.99372 0.0162394 0)
(2.99954 0.00118474 0)
(2.99999 3.88207e-05 0)
(3 7.81525e-07 0)
(3 1.21857e-08 0)
(3 1.56656e-10 0)
(3 1.28732e-12 0)
(2.03956 0.23442 0)
(3.14809 -0.0989435 0)
(3.09032 0.00446651 0)
(2.97917 0.12765 0)
(2.94648 0.142495 0)
(2.9457 0.144423 0)
(2.96525 0.091058 0)
(2.98652 0.0347959 0)
(2.99857 0.00375402 0)
(2.99994 0.000180104 0)
(3 4.91664e-06 0)
(3 9.61275e-08 0)
(3 1.51568e-09 0)
(3 1.97222e-11 0)
(3 1.65836e-13 0)
(2.69126 0.189697 0)
(3.11512 0.0317408 0)
(2.98895 0.120573 0)
(2.94837 0.162261 0)
(2.94419 0.145511 0)
(2.95393 0.124352 0)
(2.97596 0.061308 0)
(2.99542 0.0114475 0)
(2.99966 0.000872631 0)
(2.99999 2.80869e-05 0)
(3 6.01967e-07 0)
(3 1.00616e-08 0)
(3 1.4697e-10 0)
(3 1.77921e-12 0)
(3 1.1417e-14 0)
(2.92901 0.150678 0)
(2.93768 0.152461 0)
(2.94184 0.160752 0)
(2.94181 0.165322 0)
(2.9634 0.131769 0)
(2.96619 0.0927 0)
(2.98983 0.0231592 0)
(2.99944 0.000972871 0)
(3 3.10828e-06 0)
(3 8.54103e-07 0)
(3 -3.67061e-09 0)
(3 3.37154e-11 0)
(3 6.12726e-12 0)
(3 6.34241e-14 0)
(3 -1.60985e-15 0)
(2.92548 0.151149 0)
(2.93331 0.150286 0)
(2.9419 0.155708 0)
(2.94228 0.168499 0)
(2.95154 0.135695 0)
(2.96435 0.0892569 0)
(2.99167 0.01984 0)
(2.99912 0.00190785 0)
(2.99996 6.88229e-05 0)
(3 1.41773e-06 0)
(3 2.16463e-08 0)
(3 2.73488e-10 0)
(3 2.13797e-12 0)
(3 2.17667e-14 0)
(3 -4.99624e-16 0)
(2.92445 0.152948 0)
(2.93421 0.153265 0)
(2.94442 0.155609 0)
(2.94366 0.165555 0)
(2.96104 0.110542 0)
(2.98157 0.044695 0)
(2.99692 0.0062187 0)
(2.99987 0.000239439 0)
(3 4.07969e-06 0)
(3 4.77853e-08 0)
(3 4.56696e-10 0)
(3 3.74733e-12 0)
(3 2.79055e-14 0)
(3 -2.80771e-15 0)
(3 -3.64498e-16 0)
(2.92364 0.154077 0)
(2.93316 0.157327 0)
(2.94503 0.153584 0)
(2.95296 0.151324 0)
(2.96247 0.106463 0)
(2.98739 0.0286018 0)
(2.99866 0.002736 0)
(2.99996 7.44129e-05 0)
(3 1.20318e-06 0)
(3 1.34427e-08 0)
(3 1.26916e-10 0)
(3 1.01741e-12 0)
(3 8.44397e-15 0)
(3 -7.31205e-16 0)
(3 7.36767e-16 0)
(2.92359 0.155282 0)
(2.92924 0.16335 0)
(2.94531 0.152582 0)
(2.95173 0.148222 0)
(2.97587 0.0659199 0)
(2.99311 0.0153826 0)
(2.99959 0.000757085 0)
(2.99999 1.97901e-05 0)
(3 2.49991e-07 0)
(3 2.72043e-09 0)
(3 2.42716e-11 0)
(3 1.88234e-13 0)
(3 3.26455e-15 0)
(3 -9.01343e-16 0)
(3 1.43777e-15 0)
(2.92484 0.160252 0)
(2.92558 0.168454 0)
(2.94842 0.14864 0)
(2.9589 0.135099 0)
(2.98225 0.0450703 0)
(2.99733 0.00534328 0)
(2.99987 0.000256977 0)
(3 4.21695e-06 0)
(3 5.80048e-08 0)
(3 5.87434e-10 0)
(3 5.14932e-12 0)
(3 3.99542e-14 0)
(3 2.81688e-15 0)
(3 6.86117e-16 0)
(3 1.71823e-15 0)
(2.92409 0.157651 0)
(2.92296 0.174469 0)
(2.96161 0.13546 0)
(2.97789 0.0873999 0)
(2.99087 0.0229299 0)
(2.999 0.00202103 0)
(2.99997 5.36508e-05 0)
(3 9.85634e-07 0)
(3 1.13941e-08 0)
(3 1.14204e-10 0)
(3 9.62677e-13 0)
(3 5.79252e-15 0)
(3 2.68917e-15 0)
(3 2.46017e-15 0)
(3 1.99522e-15 0)
(2.92154 0.153867 0)
(2.92411 0.192162 0)
(2.97011 0.112579 0)
(2.97856 0.0688414 0)
(2.99538 0.0105046 0)
(2.99971 0.000541585 0)
(2.99999 1.44966e-05 0)
(3 1.97162e-07 0)
(3 2.31043e-09 0)
(3 2.17613e-11 0)
(3 1.75473e-13 0)
(3 -2.006e-15 0)
(3 2.19837e-15 0)
(3 2.87143e-15 0)
(3 2.22206e-15 0)
(2.92663 0.135628 0)
(2.93212 0.195969 0)
(2.97252 0.0951548 0)
(2.98738 0.0328262 0)
(2.99831 0.00346756 0)
(2.99992 0.000156398 0)
(3 2.69911e-06 0)
(3 3.92117e-08 0)
(3 4.08983e-10 0)
(3 3.75752e-12 0)
(3 2.64092e-14 0)
(3 -4.38934e-15 0)
(3 1.20223e-15 0)
(3 3.9675e-15 0)
(3 1.86949e-15 0)
(2.93337 0.118196 0)
(2.94221 0.166483 0)
(2.98162 0.0585735 0)
(2.99406 0.0153149 0)
(2.99945 0.0011548 0)
(2.99998 3.00238e-05 0)
(3 5.72969e-07 0)
(3 6.5565e-09 0)
(3 7.05916e-11 0)
(3 5.76113e-13 0)
(3 2.05189e-15 0)
(3 -5.24179e-15 0)
(3 6.17162e-16 0)
(3 3.43311e-15 0)
(3 1.55739e-15 0)
(2.93073 0.0884575 0)
(2.94791 0.142066 0)
(2.98719 0.0383168 0)
(2.99758 0.00589235 0)
(2.99987 0.000266677 0)
(3 6.51807e-06 0)
(3 8.51951e-08 0)
(3 1.07159e-09 0)
(3 9.26379e-12 0)
(3 8.12614e-14 0)
(3 -9.88117e-16 0)
(3 -5.1048e-15 0)
(3 5.33456e-16 0)
(3 3.33089e-15 0)
(3 1.36231e-15 0)
(2.94459 0.0680049 0)
(2.96401 0.0967773 0)
(2.99285 0.0187101 0)
(2.9992 0.00175736 0)
(2.99997 5.89434e-05 0)
(3 9.99313e-07 0)
(3 1.38087e-08 0)
(3 1.28067e-10 0)
(3 1.26481e-12 0)
(3 1.10915e-14 0)
(3 -1.66587e-15 0)
(3 -5.49737e-15 0)
(3 3.58112e-16 0)
(3 3.37621e-15 0)
(3 1.39425e-15 0)
(2.95408 0.0414562 0)
(2.97628 0.057996 0)
(2.99715 0.00679293 0)
(2.99982 0.000376188 0)
(3 8.68781e-06 0)
(3 1.30712e-07 0)
(3 1.4273e-09 0)
(3 1.54493e-11 0)
(3 1.07147e-13 0)
(3 4.10134e-15 0)
(3 -1.55143e-15 0)
(3 -5.14746e-15 0)
(3 -1.73529e-17 0)
(3 2.86936e-15 0)
(3 1.28186e-15 0)
(2.96867 0.016144 0)
(2.98865 0.0255191 0)
(2.9992 0.00178241 0)
(2.99997 5.61391e-05 0)
(3 9.39756e-07 0)
(3 1.20411e-08 0)
(3 1.31331e-10 0)
(3 1.00481e-12 0)
(3 1.00243e-14 0)
(3 1.91185e-15 0)
(3 -1.75809e-15 0)
(3 -4.43624e-15 0)
(3 -7.26378e-16 0)
(3 2.40128e-15 0)
(3 1.20243e-15 0)
(2.98451 0.0062587 0)
(2.99659 0.00658305 0)
(2.99988 0.000240835 0)
(3 4.69858e-06 0)
(3 6.11721e-08 0)
(3 6.38204e-10 0)
(3 5.49309e-12 0)
(3 5.04205e-14 0)
(3 2.89443e-15 0)
(3 1.91905e-15 0)
(3 -2.47109e-15 0)
(3 -4.06435e-15 0)
(3 -1.09977e-15 0)
(3 1.00539e-15 0)
(3 1.02648e-15 0)
(3 5.73054e-15 0)
(3 3.62679e-15 0)
(3 2.18518e-15 0)
(3 5.67044e-16 0)
(3 -9.703e-16 0)
(3 -3.31737e-15 0)
(3 -2.82996e-15 0)
(3 2.1479e-16 0)
(3 2.86871e-15 0)
(3 2.57467e-15 0)
(3 -1.94776e-15 0)
(3 -3.49994e-15 0)
(3 -8.76669e-16 0)
(3 1.27572e-15 0)
(3 9.06627e-16 0)
(3 4.56581e-15 0)
(3 6.21945e-15 0)
(3 5.51072e-15 0)
(3 1.9292e-15 0)
(3 -1.72132e-15 0)
(3 -3.51778e-15 0)
(3 -3.49241e-15 0)
(3 2.22034e-16 0)
(3 3.40604e-15 0)
(3 2.14716e-15 0)
(3 -1.93273e-15 0)
(3 -2.08995e-15 0)
(3 9.1647e-17 0)
(3 4.58085e-16 0)
(3 6.28085e-16 0)
(3 3.62664e-15 0)
(3 4.54231e-15 0)
(3 5.16442e-15 0)
(3 3.2017e-15 0)
(3 -2.18274e-15 0)
(3 -3.21503e-15 0)
(3 -1.93978e-15 0)
(3 9.73089e-17 0)
(3 2.37125e-15 0)
(3 1.21123e-15 0)
(3 -8.86723e-16 0)
(3 -1.8036e-15 0)
(3 -3.48429e-18 0)
(3 4.76032e-16 0)
(3 6.29638e-16 0)
(3 2.98486e-15 0)
(3 4.72733e-15 0)
(3 6.6782e-15 0)
(3 2.58481e-15 0)
(3 -2.44047e-15 0)
(3 -2.6516e-15 0)
(3 -3.87665e-16 0)
(3 1.31428e-15 0)
(3 1.62568e-15 0)
(3 6.82967e-16 0)
(3 -5.13891e-16 0)
(3 -1.7131e-15 0)
(3 1.09333e-16 0)
(3 1.64111e-15 0)
(3 7.38951e-16 0)
(3 1.92819e-15 0)
(3 3.76569e-15 0)
(3 6.34334e-15 0)
(3 2.05319e-15 0)
(3 -2.09148e-15 0)
(3 -1.98059e-15 0)
(3 7.5668e-16 0)
(3 1.47327e-15 0)
(3 1.21561e-15 0)
(3 3.9081e-16 0)
(3 -1.15856e-15 0)
(3 -1.89785e-15 0)
(3 4.39395e-16 0)
(3 2.3224e-15 0)
(3 1.23608e-15 0)
(3 7.12469e-16 0)
(3 3.18698e-15 0)
(3 4.07599e-15 0)
(3 1.84825e-15 0)
(3 -4.16798e-16 0)
(3 -1.33358e-15 0)
(3 9.67003e-16 0)
(3 8.67864e-16 0)
(3 1.89423e-16 0)
(3 7.80785e-16 0)
(3 -1.48702e-15 0)
(3 -2.17927e-15 0)
(3 1.7637e-16 0)
(3 2.12641e-15 0)
(3 1.6955e-15 0)
(3 7.05761e-16 0)
(3 4.5125e-15 0)
(3 3.93484e-15 0)
(3 2.52965e-15 0)
(3 -2.81788e-16 0)
(3 -9.08734e-16 0)
(3 9.5909e-16 0)
(3 3.81799e-16 0)
(3 -6.12778e-16 0)
(3 6.79826e-16 0)
(3 -1.21131e-15 0)
(3 -1.92126e-15 0)
(3 -1.44107e-16 0)
(3 1.75707e-15 0)
(3 1.70236e-15 0)
(3 6.74392e-16 0)
(3 4.57965e-15 0)
(3 2.67906e-15 0)
(3 1.33432e-15 0)
(3 -4.28765e-16 0)
(3 8.94653e-16 0)
(3 1.61566e-16 0)
(3 -2.30145e-15 0)
(3 1.35594e-16 0)
(3 1.37189e-15 0)
(3 -1.55605e-15 0)
(3 -1.76343e-15 0)
(3 5.77796e-17 0)
(3 4.91224e-16 0)
(3 1.1059e-15 0)
(3 -6.32479e-16 0)
(3 1.77251e-15 0)
(3 2.17105e-16 0)
(3 4.74944e-16 0)
(3 7.43211e-16 0)
(3 1.72685e-15 0)
(3 1.43758e-16 0)
(3 -2.98146e-15 0)
(3 -2.32779e-16 0)
(3 9.56276e-16 0)
(3 -5.74528e-16 0)
(3 -4.24584e-16 0)
(3 -6.42144e-17 0)
(3 2.54209e-16 0)
(3 3.51021e-16 0)
(3 -1.36228e-15 0)
(3 -1.08062e-15 0)
(3 -1.97055e-16 0)
(3 2.46177e-16 0)
(3 -3.90298e-17 0)
(3 2.25524e-15 0)
(3 1.18127e-15 0)
(3 -3.23738e-15 0)
(3 -3.68556e-17 0)
(3 7.46296e-16 0)
(3 -9.19624e-16 0)
(3 2.50101e-16 0)
(3 5.95804e-16 0)
(3 -2.48975e-18 0)
(3 3.28724e-16 0)
(3 4.89966e-15 0)
(3 4.30303e-15 0)
(3 3.53771e-15 0)
(3 3.27098e-15 0)
(3 1.491e-15 0)
(3 -1.83274e-16 0)
(3 -3.56088e-15 0)
(3 -4.50375e-15 0)
(3 -4.5728e-15 0)
(3 5.1899e-17 0)
(3 6.46739e-15 0)
(3 5.57093e-15 0)
(3 4.07524e-15 0)
(3 1.97611e-15 0)
(3 1.51812e-15 0)
(3 5.68229e-16 0)
(3 -3.9627e-16 0)
(3 -1.04792e-15 0)
(3 -1.34766e-15 0)
(3 -2.07594e-16 0)
(3 3.83866e-15 0)
(3 5.09659e-15 0)
(3 3.27336e-15 0)
(3 2.12021e-15 0)
(3 2.61921e-15 0)
(3 2.33303e-15 0)
(3 1.53696e-15 0)
(3 5.01596e-16 0)
(3 1.56177e-16 0)
(3 -6.64885e-18 0)
(3 2.01227e-15 0)
(3 2.46509e-15 0)
(3 2.02773e-15 0)
(3 1.66933e-15 0)
(3 2.10179e-15 0)
(3 3.03259e-15 0)
(3 1.94855e-15 0)
(3 -1.13668e-17 0)
(3 3.3874e-16 0)
(3 8.44831e-16 0)
(3 1.59574e-15 0)
(3 1.55254e-15 0)
(3 3.65833e-15 0)
(3 3.85066e-15 0)
(3 2.7439e-15 0)
(3 2.27831e-15 0)
(3 2.1813e-15 0)
(3 2.70825e-15 0)
(3 2.62477e-15 0)
(3 6.10771e-16 0)
(3 -4.84617e-16 0)
(3 6.07817e-16 0)
(3 1.32716e-15 0)
(3 2.36989e-15 0)
(3 1.22416e-15 0)
(3 -5.04205e-16 0)
(3 -5.40952e-16 0)
(3 1.4125e-15 0)
(3 1.5747e-15 0)
(3 2.40627e-16 0)
(3 -2.08067e-15 0)
(3 -2.09562e-15 0)
(3 -1.83581e-15 0)
(3 -2.19126e-15 0)
(3 -1.7519e-15 0)
(3 -7.36463e-16 0)
(3 -6.97827e-16 0)
(3 1.96466e-16 0)
(3 1.66963e-16 0)
(3 2.56201e-16 0)
(3 -1.85823e-15 0)
(3 -2.46055e-15 0)
(3 -1.79573e-15 0)
(3 -1.0875e-15 0)
(3 4.31055e-17 0)
(3 7.77596e-16 0)
(3 2.10223e-15 0)
(3 2.83619e-15 0)
(3 2.52424e-15 0)
(3 1.32936e-15 0)
(3 -3.4975e-15 0)
(3 -1.87219e-15 0)
(3 -1.38132e-15 0)
(3 -4.32416e-16 0)
(3 -6.40832e-16 0)
(3 -1.36933e-15 0)
(3 -1.59519e-15 0)
(3 -7.42296e-16 0)
(3 3.57648e-16 0)
(3 9.72222e-16 0)
(3 -1.14111e-15 0)
(3 -1.08413e-15 0)
(3 -1.96147e-15 0)
(3 -1.69201e-15 0)
(3 -1.77079e-15 0)
(3 -3.59042e-15 0)
(3 -4.15455e-15 0)
(3 -4.04717e-15 0)
(3 -3.07796e-15 0)
(3 -1.50804e-15 0)
(3 6.07849e-16 0)
(3 -2.0848e-16 0)
(3 -1.54137e-15 0)
(3 -1.96583e-15 0)
(3 -2.28034e-15 0)
(3 -2.47477e-15 0)
(3 -1.45023e-15 0)
(3 -1.15576e-15 0)
(3 -1.39555e-15 0)
(3 -9.07115e-16 0)
(3 -8.64452e-16 0)
(3 -2.26219e-15 0)
(3 -2.99248e-15 0)
(3 -3.5561e-15 0)
(3 -2.82799e-15 0)
(3 -1.53151e-15 0)
(3 -1.03915e-15 0)
(3 -8.1048e-16 0)
(3 -6.79916e-16 0)
(3 -1.8912e-16 0)
(3 -2.25061e-15 0)
(3 -3.22651e-15 0)
(3 -3.66363e-15 0)
(3 -2.14703e-15 0)
(3 -6.29669e-16 0)
(3 -1.06637e-15 0)
(3 -1.8363e-15 0)
(3 -1.01181e-15 0)
(3 2.55215e-16 0)
(3 3.3175e-16 0)
(3 -8.27409e-17 0)
(3 4.90016e-16 0)
(3 3.95238e-16 0)
(3 5.01623e-16 0)
(3 8.05745e-16 0)
(3 1.58342e-15 0)
(3 1.86359e-15 0)
(3 1.10477e-15 0)
(3 3.7583e-16 0)
(3 5.4046e-16 0)
(3 3.13858e-15 0)
(3 3.78878e-15 0)
(3 3.87194e-15 0)
(3 3.26899e-15 0)
(3 3.20298e-15 0)
(3 3.51705e-15 0)
(3 2.92271e-15 0)
(3 1.3809e-15 0)
(3 2.06501e-17 0)
(3 -2.63535e-16 0)
(3 3.35083e-15 0)
(3 4.60303e-15 0)
(3 5.3055e-15 0)
(3 5.3745e-15 0)
(3 3.88069e-15 0)
(3 2.97022e-15 0)
(3 2.74929e-15 0)
(3 2.55742e-15 0)
(3 8.35897e-16 0)
(3 -3.07158e-16 0)
(3 5.43593e-16 0)
(3 5.08409e-16 0)
(3 6.04788e-16 0)
(3 1.21142e-16 0)
(3 -5.44743e-16 0)
(3 -5.31492e-16 0)
(3 7.41529e-16 0)
(3 -2.54629e-16 0)
(3 -2.57099e-16 0)
(3 -1.6023e-16 0)
(3 -1.69983e-15 0)
(3 -1.74015e-15 0)
(3 -1.59434e-15 0)
(3 -1.7367e-15 0)
(3 -1.44437e-15 0)
(3 -1.14576e-15 0)
(3 -1.31553e-15 0)
(3 -7.68512e-16 0)
(3 -4.16045e-16 0)
(3 -4.43258e-16 0)
(3 -4.13786e-16 0)
(3 -3.07659e-17 0)
(3 -2.99138e-17 0)
(3 -8.23068e-17 0)
(3 -3.47843e-16 0)
(3 -1.11718e-16 0)
(3 -3.40138e-16 0)
(3 -3.14046e-16 0)
(3 8.5733e-18 0)
(3 -1.69818e-16 0)
(3 6.00786e-16 0)
(3 3.28207e-16 0)
(3 1.01234e-16 0)
(3 -8.6086e-17 0)
(3 -2.97955e-16 0)
(3 -5.7247e-17 0)
(3 -1.21813e-16 0)
(3 -5.03154e-16 0)
(3 -2.51915e-16 0)
(3 4.5535e-16 0)
(2.45808 -0.511203 0)
(2.87172 -0.128029 0)
(3 5.63159e-07 0)
(3 -3.30075e-13 0)
(3 -2.95115e-16 0)
(3 -2.21898e-15 0)
(3 -2.333e-15 0)
(3 -2.13542e-15 0)
(3 -2.83607e-15 0)
(3 -8.17199e-16 0)
(3 9.67371e-16 0)
(3 -8.36445e-16 0)
(3 -2.33993e-15 0)
(3 4.14692e-16 0)
(3 3.33053e-15 0)
(3 2.66553e-15 0)
(3 2.94013e-16 0)
(3 -1.38008e-15 0)
(3 -4.8206e-16 0)
(3 4.2984e-16 0)
(1.22595 -0.611716 0)
(1.21207 -0.860009 0)
(2.39999 -0.688405 0)
(3.00129 -0.0130905 0)
(3 3.17465e-08 0)
(3 9.11903e-14 0)
(3 -3.04092e-15 0)
(3 -2.63502e-15 0)
(3 -2.18654e-15 0)
(3 -2.39843e-16 0)
(3 1.55714e-15 0)
(3 -2.22887e-15 0)
(3 -1.47787e-15 0)
(3 1.74369e-16 0)
(3 3.09347e-15 0)
(3 2.17117e-15 0)
(3 8.00176e-16 0)
(3 -1.30678e-15 0)
(3 -5.27238e-16 0)
(3 2.6362e-16 0)
(1.31185 -0.801912 0)
(1.24177 -0.93401 0)
(1.35015 -0.929776 0)
(1.72589 -0.776592 0)
(2.85221 -0.135229 0)
(3 8.96029e-07 0)
(3 9.83873e-12 0)
(3 -1.66609e-15 0)
(3 -1.37484e-15 0)
(3 1.15843e-15 0)
(3 1.97829e-15 0)
(3 -2.62264e-15 0)
(3 -1.52929e-15 0)
(3 -1.58662e-16 0)
(3 2.54818e-15 0)
(3 1.77716e-15 0)
(3 1.62036e-15 0)
(3 -1.43669e-15 0)
(3 -1.3612e-15 0)
(3 -3.55663e-16 0)
(1.3592 -0.899043 0)
(1.31598 -0.919161 0)
(1.3417 -0.912673 0)
(1.34566 -0.904854 0)
(1.62319 -0.829938 0)
(2.72252 -0.246358 0)
(3.00034 0.000539377 0)
(3 -1.31418e-07 0)
(3 3.20574e-11 0)
(3 -1.59586e-13 0)
(3 2.98139e-15 0)
(3 -3.21582e-15 0)
(3 -9.15859e-16 0)
(3 -1.53455e-15 0)
(3 2.21903e-15 0)
(3 1.6075e-15 0)
(3 2.0576e-15 0)
(3 -9.19714e-16 0)
(3 -2.69943e-15 0)
(3 -5.88271e-16 0)
(1.36423 -0.920913 0)
(1.34831 -0.915824 0)
(1.36263 -0.906289 0)
(1.36883 -0.911392 0)
(1.37776 -0.916102 0)
(1.61161 -0.844527 0)
(2.65818 -0.274724 0)
(3.00091 0.000840942 0)
(3 -1.58885e-06 0)
(3 4.53744e-09 0)
(3 -1.03369e-11 0)
(3 2.47728e-14 0)
(3 -1.22906e-15 0)
(3 -1.6019e-15 0)
(3 1.99763e-15 0)
(3 2.22066e-15 0)
(3 1.55482e-15 0)
(3 -8.0033e-16 0)
(3 -2.84042e-15 0)
(3 -8.69975e-16 0)
(1.3607 -0.917376 0)
(1.35904 -0.914932 0)
(1.3661 -0.912043 0)
(1.37022 -0.914575 0)
(1.3811 -0.916088 0)
(1.39207 -0.924866 0)
(1.64647 -0.837986 0)
(2.69072 -0.233773 0)
(3.00091 0.000685989 0)
(3 -6.46252e-07 0)
(3 5.45598e-11 0)
(3 -1.61364e-13 0)
(3 -2.45172e-15 0)
(3 -7.84579e-16 0)
(3 2.4867e-15 0)
(3 2.04288e-15 0)
(3 1.44827e-15 0)
(3 -4.3626e-16 0)
(3 -3.17469e-15 0)
(3 -1.38762e-15 0)
(1.35965 -0.915376 0)
(1.36069 -0.913342 0)
(1.36635 -0.913905 0)
(1.37107 -0.913646 0)
(1.3854 -0.915161 0)
(1.40642 -0.93004 0)
(1.42676 -0.936572 0)
(1.74016 -0.819199 0)
(2.75968 -0.191966 0)
(3.00089 0.000832234 0)
(3 -2.60486e-06 0)
(3 8.1125e-09 0)
(3 -3.08715e-11 0)
(3 6.09778e-14 0)
(3 3.28944e-15 0)
(3 2.36467e-15 0)
(3 1.92268e-15 0)
(3 -1.29309e-15 0)
(3 -3.40104e-15 0)
(3 -1.6616e-15 0)
(1.35825 -0.913761 0)
(1.36055 -0.911613 0)
(1.36551 -0.912887 0)
(1.37382 -0.915752 0)
(1.3904 -0.918842 0)
(1.40705 -0.934286 0)
(1.4124 -0.947941 0)
(1.40858 -0.950895 0)
(1.81054 -0.764944 0)
(2.84347 -0.108382 0)
(3.00067 0.000498573 0)
(3 -1.92996e-06 0)
(3 1.12282e-08 0)
(3 -1.57362e-11 0)
(3 -1.24797e-13 0)
(3 2.33102e-15 0)
(3 1.82601e-15 0)
(3 -1.24288e-15 0)
(3 -3.28114e-15 0)
(3 -1.74246e-15 0)
(1.35872 -0.913056 0)
(1.36299 -0.91282 0)
(1.36949 -0.9156 0)
(1.38127 -0.921748 0)
(1.39709 -0.926269 0)
(1.40677 -0.940771 0)
(1.42035 -0.946148 0)
(1.42459 -0.963414 0)
(1.50134 -0.935712 0)
(2.14086 -0.635795 0)
(2.95476 -0.0402012 0)
(3.00021 0.000229795 0)
(3 -3.26573e-08 0)
(3 1.63997e-11 0)
(3 8.3431e-14 0)
(3 3.03074e-15 0)
(3 1.40488e-15 0)
(3 -1.28327e-15 0)
(3 -3.09831e-15 0)
(3 -1.59687e-15 0)
(1.36558 -0.914653 0)
(1.36957 -0.917671 0)
(1.37814 -0.922401 0)
(1.39013 -0.930505 0)
(1.40392 -0.936121 0)
(1.41167 -0.947028 0)
(1.42748 -0.951381 0)
(1.45185 -0.957719 0)
(1.47774 -0.969986 0)
(1.54481 -0.932768 0)
(2.41397 -0.458063 0)
(2.99475 -0.00697682 0)
(3 1.85894e-09 0)
(3 1.56783e-12 0)
(3 4.88453e-14 0)
(3 2.89551e-15 0)
(3 1.48254e-15 0)
(3 -1.29837e-15 0)
(3 -2.47118e-15 0)
(3 -1.16612e-15 0)
(1.37541 -0.919576 0)
(1.3783 -0.925645 0)
(1.38893 -0.930664 0)
(1.40134 -0.939592 0)
(1.41408 -0.943264 0)
(1.42232 -0.952223 0)
(1.4393 -0.95459 0)
(1.46123 -0.959267 0)
(1.46912 -0.97524 0)
(1.45908 -0.995539 0)
(1.65444 -0.875963 0)
(2.66822 -0.233848 0)
(3.00153 0.00101373 0)
(2.99999 -3.58556e-06 0)
(3 -6.19251e-08 0)
(3 2.03806e-10 0)
(3 1.04716e-11 0)
(3 -1.46672e-14 0)
(3 -2.85471e-15 0)
(3 -1.15819e-15 0)
(1.38724 -0.927551 0)
(1.38963 -0.934468 0)
(1.40114 -0.939807 0)
(1.41305 -0.94479 0)
(1.42396 -0.947726 0)
(1.43335 -0.954528 0)
(1.45032 -0.954952 0)
(1.46526 -0.962269 0)
(1.47197 -0.974009 0)
(1.46982 -0.984353 0)
(1.53944 -0.955362 0)
(1.96076 -0.736699 0)
(2.86974 -0.100066 0)
(3.00067 0.00049967 0)
(3 -3.29179e-06 0)
(3 -3.57266e-09 0)
(3 -1.08277e-10 0)
(3 2.33597e-13 0)
(3 6.57484e-15 0)
(3 -1.34353e-15 0)
(1.39911 -0.93645 0)
(1.40123 -0.942789 0)
(1.41291 -0.945885 0)
(1.42286 -0.948525 0)
(1.43192 -0.949714 0)
(1.44091 -0.953693 0)
(1.45596 -0.955553 0)
(1.46874 -0.963881 0)
(1.4805 -0.976808 0)
(1.49974 -0.97407 0)
(1.52363 -0.983942 0)
(1.54124 -1.00472 0)
(2.35246 -0.511533 0)
(2.98761 -0.0135358 0)
(3.00014 0.000130847 0)
(3 2.82162e-06 0)
(3 1.31083e-08 0)
(3 -4.18518e-11 0)
(3 -2.58364e-12 0)
(3 -5.31815e-15 0)
(1.41137 -0.945561 0)
(1.41388 -0.95034 0)
(1.42477 -0.951389 0)
(1.43202 -0.953465 0)
(1.43991 -0.953297 0)
(1.44694 -0.95413 0)
(1.4586 -0.959418 0)
(1.47439 -0.966846 0)
(1.4958 -0.978905 0)
(1.52077 -0.981635 0)
(1.5329 -0.989447 0)
(1.51848 -0.986841 0)
(1.78965 -0.844118 0)
(2.66883 -0.251399 0)
(3.00038 -0.00449335 0)
(3 -1.14942e-06 0)
(3 8.51694e-09 0)
(3 4.40024e-10 0)
(3 -1.66455e-12 0)
(3 -1.36658e-13 0)
(1.43978 -0.952299 0)
(1.44321 -0.957123 0)
(1.45547 -0.954712 0)
(1.46062 -0.95684 0)
(1.46603 -0.956649 0)
(1.4703 -0.958745 0)
(1.47952 -0.966229 0)
(1.49626 -0.973312 0)
(1.51648 -0.981265 0)
(1.52974 -0.988302 0)
(1.53954 -0.99235 0)
(1.54879 -0.988804 0)
(1.58987 -1.00104 0)
(2.14271 -0.67578 0)
(3.0142 0.01143 0)
(2.99978 0.00105931 0)
(3.00001 4.77445e-05 0)
(3 1.72882e-07 0)
(3 5.21291e-10 0)
(3 1.49976e-12 0)
(2.03622 -0.811166 0)
(2.08367 -0.657058 0)
(1.90682 -0.791613 0)
(1.82887 -0.860142 0)
(1.74855 -0.904896 0)
(1.71439 -0.916911 0)
(1.66756 -0.940887 0)
(1.65244 -0.95011 0)
(1.64554 -0.961201 0)
(1.63151 -0.977602 0)
(1.61762 -0.980526 0)
(1.60807 -0.985085 0)
(1.60535 -1.00897 0)
(1.71968 -0.922046 0)
(2.28774 -0.59233 0)
(2.95154 -0.0594045 0)
(2.99962 -0.000966198 0)
(3 -4.98863e-06 0)
(3 -1.93189e-08 0)
(3 -6.66597e-11 0)
(2.6856 -0.954435 0)
(2.55643 -0.301057 0)
(2.28923 -0.527643 0)
(2.15087 -0.65972 0)
(2.06365 -0.750318 0)
(1.9491 -0.831034 0)
(1.88573 -0.869994 0)
(1.82873 -0.901878 0)
(1.79272 -0.925855 0)
(1.76004 -0.951455 0)
(1.73231 -0.954983 0)
(1.71208 -0.968894 0)
(1.67419 -0.997325 0)
(1.67482 -0.965699 0)
(1.77883 -0.92179 0)
(2.49748 -0.476314 0)
(2.97458 -0.0383885 0)
(2.9998 -0.000445106 0)
(3 -2.33499e-06 0)
(3 -8.5928e-09 0)
(2.62975 -0.199361 0)
(2.73155 0.110399 0)
(2.52209 -0.306375 0)
(2.38283 -0.506828 0)
(2.29865 -0.589796 0)
(2.17052 -0.702788 0)
(2.10124 -0.748543 0)
(1.99677 -0.824582 0)
(1.94677 -0.85968 0)
(1.90014 -0.897331 0)
(1.84346 -0.926296 0)
(1.82244 -0.931194 0)
(1.75588 -0.962952 0)
(1.72476 -0.956604 0)
(1.72512 -0.981433 0)
(2.01903 -0.841825 0)
(2.75286 -0.281288 0)
(2.99421 -0.0112637 0)
(2.99996 -8.12845e-05 0)
(3 -3.35385e-07 0)
(2.76976 0.13581 0)
(2.72223 0.375983 0)
(2.62173 -0.0222657 0)
(2.60798 -0.16483 0)
(2.4619 -0.422803 0)
(2.3923 -0.506572 0)
(2.25832 -0.631972 0)
(2.1835 -0.687695 0)
(2.09843 -0.759505 0)
(2.03709 -0.815317 0)
(1.97075 -0.868742 0)
(1.92748 -0.881155 0)
(1.86154 -0.911214 0)
(1.82546 -0.92701 0)
(1.76982 -0.971509 0)
(1.82989 -0.960881 0)
(2.28457 -0.683416 0)
(2.90096 -0.127458 0)
(2.9987 -0.00246473 0)
(2.99999 -1.21697e-05 0)
(2.84861 0.227153 0)
(2.83813 0.333482 0)
(2.68611 0.0998783 0)
(2.67238 0.0699468 0)
(2.60357 -0.166832 0)
(2.53593 -0.321324 0)
(2.38912 -0.517032 0)
(2.32547 -0.575766 0)
(2.2099 -0.693242 0)
(2.15029 -0.750819 0)
(2.08025 -0.81616 0)
(2.01546 -0.850741 0)
(1.96656 -0.859353 0)
(1.91528 -0.898018 0)
(1.84332 -0.951447 0)
(1.8475 -0.958711 0)
(2.02752 -0.887462 0)
(2.65957 -0.40151 0)
(2.98422 -0.0289989 0)
(2.99987 -0.000223866 0)
(2.87962 0.201673 0)
(2.84112 0.205738 0)
(2.75603 0.160043 0)
(2.69599 0.110696 0)
(2.67778 -0.068008 0)
(2.59014 -0.262714 0)
(2.52221 -0.370116 0)
(2.4058 -0.515981 0)
(2.32493 -0.604769 0)
(2.24138 -0.695063 0)
(2.18119 -0.751632 0)
(2.10721 -0.80517 0)
(2.05359 -0.81898 0)
(2.00642 -0.860287 0)
(1.92552 -0.916382 0)
(1.88635 -0.946811 0)
(1.93717 -0.954198 0)
(2.27395 -0.747548 0)
(2.88691 -0.151803 0)
(2.99799 -0.00333667 0)
(2.8537 0.154011 0)
(2.84471 0.141236 0)
(2.75806 0.182162 0)
(2.74704 0.210717 0)
(2.7316 0.0561985 0)
(2.68085 -0.116493 0)
(2.62964 -0.216119 0)
(2.50349 -0.393055 0)
(2.45043 -0.446367 0)
(2.34412 -0.582339 0)
(2.29307 -0.632582 0)
(2.20817 -0.714865 0)
(2.14495 -0.756642 0)
(2.10068 -0.805045 0)
(2.00987 -0.86708 0)
(1.95053 -0.917434 0)
(1.94928 -0.951435 0)
(2.09966 -0.888792 0)
(2.62985 -0.438532 0)
(2.9805 -0.0246728 0)
(2.81388 0.151615 0)
(2.80464 0.144505 0)
(2.78215 0.189861 0)
(2.77694 0.236348 0)
(2.76954 0.12829 0)
(2.75797 0.105407 0)
(2.69443 -0.0687354 0)
(2.61632 -0.214292 0)
(2.52206 -0.341687 0)
(2.44798 -0.446249 0)
(2.35818 -0.56189 0)
(2.28918 -0.634455 0)
(2.21534 -0.711592 0)
(2.17473 -0.766186 0)
(2.07408 -0.839533 0)
(2.00975 -0.88745 0)
(1.97504 -0.937259 0)
(2.06082 -0.921224 0)
(2.44775 -0.635661 0)
(2.90476 -0.101581 0)
(2.81545 0.155115 0)
(2.80544 0.167259 0)
(2.80001 0.184878 0)
(2.81715 0.216746 0)
(2.8008 0.152369 0)
(2.7964 0.132823 0)
(2.74128 -0.0320544 0)
(2.69438 -0.12766 0)
(2.56592 -0.329953 0)
(2.5176 -0.385467 0)
(2.40141 -0.536463 0)
(2.34993 -0.59698 0)
(2.27874 -0.6781 0)
(2.22466 -0.748915 0)
(2.14113 -0.806701 0)
(2.08853 -0.837027 0)
(2.03579 -0.897911 0)
(2.06688 -0.920378 0)
(2.25855 -0.829373 0)
(2.70406 -0.291379 0)
(2.81815 0.155827 0)
(2.81009 0.166277 0)
(2.80574 0.175526 0)
(2.80147 0.181447 0)
(2.79507 0.168537 0)
(2.81004 0.17082 0)
(2.7604 -0.00263763 0)
(2.72411 -0.104572 0)
(2.63228 -0.259024 0)
(2.56604 -0.348163 0)
(2.49767 -0.440951 0)
(2.41099 -0.543618 0)
(2.36546 -0.592746 0)
(2.28988 -0.689548 0)
(2.22367 -0.739487 0)
(2.16526 -0.773611 0)
(2.09703 -0.856704 0)
(2.08773 -0.916466 0)
(2.17026 -0.934612 0)
(2.49947 -0.455153 0)
(2.82198 0.152757 0)
(2.81068 0.15563 0)
(2.7947 0.15356 0)