/*--------------------------------*- C++ -*----------------------------------*\
  =========                 |
  \\      /  F ield         | OpenFOAM: The Open Source CFD Toolbox
   \\    /   O peration     | Website:  https://openfoam.org
    \\  /    A nd           | Version:  7
     \\/     M anipulation  |
\*---------------------------------------------------------------------------*/
FoamFile
{
    version     2.0;
    format      ascii;
    class       volScalarField;
    location    "9.5";
    object      p;
}
// * * * * * * * * * * * * * * * * * * * * * * * * * * * * * * * * * * * * * //

dimensions      [1 -1 -2 0 0 0 0];

internalField   nonuniform List<scalar> 
90000
(
0.107724
0.144271
0.175934
0.210882
0.241599
0.258711
0.281896
0.310595
0.329795
0.35021
0.375368
0.400961
0.42958
0.459467
0.490653
0.526774
0.564792
0.604079
0.645728
0.689983
0.733809
0.777989
0.82062
0.862115
0.897279
0.924543
0.94467
0.953124
0.950764
0.947049
0.939631
0.932233
0.924535
0.918303
0.90997
0.904429
0.899593
0.899919
0.898645
0.896603
0.891069
0.881548
0.868055
0.852987
0.846363
0.848986
0.857481
0.871608
0.886852
0.90554
0.924004
0.938762
0.948621
0.944534
0.931378
0.91136
0.891968
0.876442
0.869999
0.871168
0.880363
0.895776
0.910983
0.922353
0.929233
0.921353
0.907756
0.893491
0.88718
0.888071
0.897583
0.908079
0.920378
0.916595
0.906957
0.896919
0.894218
0.900393
0.907992
0.912774
0.907059
0.899178
0.897372
0.903254
0.912295
0.909201
0.902874
0.899344
0.900179
0.905225
0.909347
0.908106
0.909977
0.915386
0.922583
0.927948
0.932173
0.936807
0.941778
0.949574
0.0762895
0.0762654
0.0762388
0.0762133
0.0761895
0.0761667
0.0761452
0.0761247
0.0761061
0.0760862
0.0760743
0.0760216
0.0763571
0.0775075
0.0803285
0.0852425
0.0931985
0.104306
0.12051
0.140835
0.167819
0.199967
0.241163
0.289032
0.347432
0.412444
0.483288
0.553935
0.617714
0.677205
0.726168
0.773234
0.808129
0.841132
0.858319
0.875715
0.879874
0.885165
0.882884
0.883163
0.880803
0.882409
0.879647
0.88355
0.893997
0.903729
0.911183
0.914692
0.917862
0.920966
0.922689
0.916215
0.90361
0.891129
0.88446
0.882832
0.883565
0.886907
0.894079
0.900347
0.908898
0.91591
0.921727
0.915441
0.907288
0.899829
0.89634
0.896536
0.900984
0.907081
0.912726
0.914488
0.90916
0.901255
0.895994
0.896726
0.903088
0.911596
0.912139
0.904921
0.898889
0.897908
0.903421
0.912335
0.908893
0.902904
0.899616
0.900421
0.904989
0.909304
0.908131
0.909287
0.91524
0.923423
0.927425
0.928352
0.932677
0.939504
0.945514
0.952322
0.0763525
0.0763463
0.0763392
0.076333
0.0763285
0.0763225
0.0763174
0.0763125
0.0763106
0.0763082
0.0763053
0.0763014
0.0762927
0.0763021
0.07627
0.0762366
0.0762069
0.0761859
0.0761695
0.0761613
0.0761549
0.0761558
0.0761541
0.0761664
0.0761511
0.0765351
0.0806175
0.0896678
0.108575
0.134219
0.172996
0.216777
0.273449
0.333057
0.404058
0.474782
0.546652
0.616494
0.681048
0.745418
0.799801
0.857845
0.903104
0.946348
0.960702
0.966013
0.962796
0.956188
0.943779
0.924088
0.898177
0.867549
0.83791
0.836842
0.847411
0.861334
0.881543
0.901813
0.92303
0.932632
0.932162
0.922433
0.906359
0.891452
0.879899
0.880015
0.886414
0.899864
0.91289
0.919809
0.913989
0.903594
0.896173
0.896402
0.902052
0.907189
0.912628
0.906951
0.902939
0.899553
0.899493
0.903875
0.910285
0.907535
0.903878
0.902295
0.902212
0.904947
0.907837
0.907614
0.910959
0.915694
0.921848
0.922828
0.924911
0.930567
0.938201
0.946043
0.949776
0.954809
0.0762525
0.0762466
0.0762401
0.0762333
0.0762282
0.0762229
0.0762185
0.0762151
0.0762163
0.0762192
0.0762235
0.0762247
0.0762266
0.076227
0.0762291
0.0762342
0.0762456
0.0762617
0.0762788
0.0762929
0.0763041
0.0763111
0.076315
0.0763197
0.0763252
0.0763299
0.0763141
0.0763038
0.076306
0.0763066
0.0763003
0.0762944
0.0762882
0.0762713
0.0772531
0.0817341
0.0959655
0.117984
0.156846
0.204295
0.271881
0.345731
0.436416
0.531133
0.614488
0.697243
0.753128
0.805628
0.829381
0.855244
0.855383
0.85714
0.861085
0.875766
0.890067
0.901929
0.911249
0.91857
0.926589
0.928608
0.915157
0.901056
0.89327
0.894333
0.898048
0.900962
0.905838
0.90953
0.913687
0.910239
0.902256
0.896373
0.894741
0.895991
0.903663
0.910919
0.912467
0.907235
0.899924
0.899256
0.903063
0.910011
0.90998
0.905571
0.901966
0.90024
0.901691
0.906257
0.908821
0.910916
0.912761
0.916121
0.920267
0.926351
0.931855
0.936146
0.939263
0.94273
0.947525
0.95492
0.0762043
0.0762106
0.0762172
0.0762228
0.0762266
0.0762297
0.0762329
0.0762373
0.0762427
0.0762509
0.0762613
0.0762718
0.0762792
0.0762822
0.0762843
0.0762896
0.0763011
0.0763184
0.0763379
0.0763512
0.0763572
0.0763583
0.0763566
0.0763542
0.0763574
0.0763551
0.0763477
0.0763368
0.0763299
0.0763322
0.0763385
0.0763363
0.0763311
0.0763244
0.0763036
0.0762828
0.0762758
0.0762833
0.0762979
0.0762954
0.0762798
0.076238
0.0797249
0.0908506
0.121484
0.167007
0.240796
0.328988
0.438602
0.556832
0.668223
0.782682
0.855138
0.907858
0.911129
0.9173
0.919977
0.917258
0.907637
0.889192
0.860429
0.865102
0.877348
0.892624
0.906431
0.913763
0.91839
0.916332
0.908127
0.895682
0.892265
0.893758
0.902297
0.913195
0.911623
0.9066
0.900716
0.898843
0.900771
0.902332
0.908078
0.910656
0.907258
0.90263
0.900351
0.903559
0.90779
0.909204
0.909971
0.910323
0.91384
0.919469
0.926132
0.931515
0.933265
0.936602
0.942197
0.948424
0.951941
0.956638
0.0763751
0.0763733
0.0763706
0.076368
0.0763669
0.0763684
0.0763696
0.0763671
0.0763637
0.0763623
0.0763649
0.0763707
0.0763737
0.0763719
0.0763685
0.0763674
0.0763718
0.0763805
0.0763904
0.0763969
0.0763978
0.0763952
0.0763904
0.0763841
0.0763722
0.0763596
0.0763529
0.0763451
0.076327
0.0763073
0.0762965
0.0762859
0.0762729
0.0762674
0.076267
0.0762579
0.0762498
0.0762553
0.0762841
0.0763254
0.0763304
0.0763148
0.0762665
0.0762376
0.0762262
0.0762164
0.0762182
0.0762182
0.0808925
0.0982395
0.147302
0.227653
0.347217
0.475895
0.589582
0.688789
0.754525
0.794114
0.832538
0.834912
0.857703
0.878336
0.898651
0.919684
0.927657
0.926322
0.923799
0.910349
0.895446
0.887783
0.888322
0.894074
0.902739
0.918826
0.917646
0.908879
0.896553
0.8921
0.898401
0.909556
0.91319
0.909657
0.902086
0.898823
0.900384
0.903404
0.910434
0.913147
0.91279
0.914468
0.918734
0.924387
0.92782
0.929836
0.933998
0.939141
0.945686
0.950955
0.95375
0.959537
0.0763808
0.0763812
0.0763807
0.0763791
0.0763784
0.0763817
0.0763844
0.0763831
0.0763797
0.0763727
0.0763704
0.0763735
0.0763741
0.0763729
0.0763707
0.0763665
0.0763642
0.0763622
0.0763581
0.0763541
0.0763503
0.076345
0.0763383
0.0763326
0.0763247
0.0763115
0.0762974
0.0762844
0.0762731
0.076263
0.0762455
0.0762153
0.0761966
0.0761957
0.0762225
0.0762459
0.0762453
0.0762358
0.0762361
0.0762735
0.0763126
0.0763094
0.0762971
0.0762852
0.0762742
0.0762612
0.0762582
0.0762737
0.0762912
0.0763055
0.0763097
0.0763103
0.0763028
0.083005
0.118938
0.180658
0.281416
0.406456
0.553093
0.684439
0.810059
0.861992
0.886211
0.90821
0.914213
0.915535
0.905255
0.877566
0.883607
0.891287
0.901892
0.911286
0.915618
0.91393
0.905119
0.896445
0.894971
0.89616
0.902623
0.910782
0.910817
0.903076
0.898333
0.900498
0.907369
0.91183
0.90959
0.908879
0.910535
0.914578
0.920601
0.925825
0.930119
0.933679
0.938489
0.944264
0.948199
0.951631
0.955384
0.960746
0.0763528
0.0763483
0.0763453
0.0763466
0.0763469
0.0763452
0.0763408
0.0763381
0.0763371
0.0763353
0.0763328
0.0763288
0.0763162
0.0763095
0.0763172
0.0763248
0.0763217
0.0763136
0.0763059
0.076302
0.0762946
0.0762779
0.0762663
0.0762653
0.0762654
0.0762576
0.0762445
0.076227
0.076212
0.0762081
0.076201
0.0761895
0.0761945
0.0762181
0.0762498
0.0762813
0.0763087
0.0763176
0.0763089
0.0762898
0.0762784
0.0762861
0.0762978
0.0763017
0.0762979
0.0762902
0.0762867
0.0763032
0.0763499
0.076396
0.0763983
0.0763845
0.0763706
0.0763689
0.0763844
0.0764104
0.076408
0.079078
0.0991059
0.169755
0.27863
0.433826
0.5681
0.702295
0.768939
0.834463
0.84155
0.858415
0.900063
0.91999
0.925548
0.922494
0.919896
0.901035
0.886805
0.887659
0.892598
0.905924
0.916671
0.914222
0.903718
0.895291
0.896823
0.903507
0.909398
0.915589
0.913349
0.911773
0.913767
0.91914
0.925324
0.928377
0.929571
0.933286
0.938711
0.944386
0.950844
0.954398
0.957469
0.963048
0.0762511
0.0762495
0.0762493
0.076253
0.0762554
0.0762534
0.0762507
0.07625
0.0762509
0.0762489
0.0762464
0.076244
0.0762428
0.0762523
0.0762665
0.0762658
0.0762585
0.0762476
0.0762456
0.0762468
0.0762406
0.0762306
0.0762341
0.0762596
0.0762759
0.0762771
0.076268
0.076247
0.0762384
0.0762441
0.0762497
0.0762541
0.0762666
0.0762843
0.0762967
0.0763047
0.0763173
0.0763378
0.076354
0.0763558
0.0763474
0.0763325
0.0763172
0.0763141
0.0763198
0.076324
0.0763365
0.0763635
0.076405
0.0764379
0.0764386
0.076411
0.0763888
0.0763821
0.0763935
0.0764272
0.076457
0.076454
0.0764402
0.0763961
0.0763489
0.0829769
0.116358
0.186638
0.324249
0.494286
0.658276
0.801989
0.880306
0.906737
0.91023
0.914873
0.905201
0.879438
0.882038
0.892179
0.907816
0.919137
0.917292
0.903093
0.889384
0.890852
0.903771
0.915242
0.915284
0.913057
0.91147
0.91176
0.915488
0.921407
0.926779
0.929761
0.932131
0.936582
0.944409
0.948334
0.950391
0.953888
0.957627
0.963146
0.0762131
0.0762121
0.076211
0.0762106
0.0762122
0.0762147
0.0762176
0.0762214
0.0762264
0.0762316
0.0762373
0.0762449
0.0762501
0.0762495
0.0762508
0.0762673
0.0762803
0.0762765
0.076271
0.0762713
0.0762777
0.0762883
0.0762968
0.0763013
0.0763128
0.0763354
0.076353
0.0763559
0.0763492
0.0763399
0.0763347
0.0763408
0.0763597
0.076378
0.0763819
0.0763825
0.0763893
0.0763964
0.076397
0.0763944
0.0763885
0.0763656
0.0763283
0.0763139
0.0763078
0.0763099
0.076328
0.076367
0.0764078
0.0764401
0.0764476
0.0764247
0.0763849
0.076371
0.0763794
0.0764162
0.0764661
0.0764864
0.0764707
0.0763903
0.0762337
0.0761751
0.0762097
0.0762187
0.0761005
0.0869248
0.154003
0.281134
0.453397
0.634537
0.741196
0.846092
0.851538
0.870986
0.897894
0.921903
0.927126
0.924581
0.902507
0.886113
0.886772
0.900633
0.920968
0.920222
0.916792
0.910946
0.911285
0.915046
0.923264
0.928351
0.928927
0.929867
0.932944
0.938368
0.944999
0.951281
0.95346
0.95669
0.960816
0.96598
0.0762191
0.0762197
0.0762199
0.0762206
0.0762238
0.0762308
0.0762393
0.0762482
0.0762568
0.0762649
0.0762732
0.0762818
0.0762923
0.0763056
0.0763171
0.0763234
0.0763265
0.0763305
0.0763384
0.0763478
0.0763573
0.0763698
0.0763833
0.0763955
0.0764099
0.076423
0.0764271
0.0764211
0.076412
0.0764036
0.0763968
0.0763962
0.076404
0.0764137
0.0764195
0.0764278
0.0764349
0.0764326
0.0764288
0.0764241
0.0764109
0.0763641
0.0763023
0.076281
0.076276
0.0762804
0.0763085
0.0763583
0.0764018
0.0764351
0.0764448
0.0764266
0.076355
0.0763358
0.0763462
0.0763958
0.0764642
0.0764958
0.0764735
0.0763485
0.0761114
0.0759316
0.0758744
0.0758031
0.0756953
0.0756833
0.0756658
0.075544
0.0839962
0.142309
0.271898
0.470582
0.658369
0.83719
0.897213
0.919744
0.91886
0.906107
0.871968
0.879337
0.904057
0.924352
0.922995
0.917469
0.909277
0.909737
0.915193
0.923978
0.928205
0.929989
0.92964
0.932069
0.938326
0.94559
0.94899
0.950821
0.953542
0.957069
0.960892
0.96588
0.0762935
0.0762954
0.0762961
0.0763003
0.0763124
0.07633
0.0763434
0.0763511
0.0763565
0.0763614
0.0763668
0.0763734
0.0763789
0.0763821
0.0763849
0.0763869
0.0763871
0.0763871
0.0763885
0.0763919
0.0763973
0.0764062
0.0764177
0.0764272
0.0764329
0.0764388
0.076442
0.0764342
0.0764201
0.0764124
0.0764063
0.0764008
0.076399
0.0763992
0.0764073
0.0764214
0.076425
0.0764225
0.0764193
0.0764144
0.0763958
0.0763276
0.0762213
0.0761919
0.0761951
0.0762233
0.0762869
0.0763463
0.0763909
0.0764279
0.076434
0.0764174
0.0763566
0.0762982
0.0762939
0.0763362
0.0764389
0.0764858
0.0764523
0.0762589
0.0759593
0.0757345
0.0755619
0.0753949
0.075313
0.0752811
0.0752486
0.0751718
0.0751193
0.0752446
0.075367
0.0826738
0.160738
0.316155
0.525145
0.70169
0.800377
0.848008
0.864402
0.904662
0.942688
0.940135
0.921762
0.900326
0.903247
0.913358
0.925479
0.933269
0.931669
0.931079
0.932314
0.937049
0.943843
0.94973
0.950232
0.951902
0.956137
0.960386
0.963518
0.967661
0.0763306
0.0763316
0.0763399
0.0763581
0.0763899
0.0764035
0.0764032
0.0763993
0.076391
0.0763858
0.0763829
0.0763813
0.0763809
0.0763805
0.0763811
0.0763799
0.076377
0.0763741
0.076373
0.0763744
0.0763793
0.0763896
0.0764032
0.0764097
0.0764101
0.0764116
0.0764162
0.0764095
0.0763934
0.0763862
0.0763826
0.0763784
0.0763712
0.0763708
0.0763864
0.076401
0.0764017
0.0763968
0.0763827
0.0763705
0.0763414
0.0762458
0.0760985
0.0760637
0.0760683
0.0760988
0.0761683
0.0762716
0.0763625
0.0764091
0.0764172
0.0764015
0.0763467
0.0762735
0.0762034
0.0761812
0.0762075
0.0761868
0.0760347
0.075758
0.0755977
0.0754534
0.0752438
0.0750353
0.0748846
0.0749152
0.0749733
0.0749612
0.0749711
0.0751239
0.0752066
0.0751092
0.0748501
0.0745121
0.101595
0.204471
0.394102
0.633988
0.82438
0.90075
0.930979
0.926232
0.882858
0.891422
0.912127
0.926608
0.930763
0.932407
0.931833
0.932949
0.936486
0.942845
0.946969
0.94992
0.951115
0.953406
0.958302
0.962167
0.964339
0.96839
0.0762876
0.0762971
0.0763464
0.0763795
0.0763807
0.0763773
0.0763711
0.0763656
0.0763587
0.0763497
0.0763413
0.0763361
0.0763349
0.0763361
0.0763395
0.0763416
0.0763392
0.0763326
0.0763272
0.0763242
0.0763259
0.0763307
0.0763429
0.0763539
0.0763537
0.0763499
0.0763536
0.0763471
0.0763213
0.0763094
0.0763103
0.0763203
0.0763323
0.0763462
0.076369
0.0763773
0.0763788
0.0763776
0.0763599
0.0763311
0.0762915
0.0762096
0.0760947
0.0760594
0.0760669
0.0760938
0.0761275
0.0761757
0.0762433
0.0763055
0.0763493
0.0763354
0.0762657
0.0760928
0.0758665
0.0756662
0.0754677
0.075274
0.0750864
0.0750206
0.0750226
0.0749861
0.0748363
0.0745857
0.0745691
0.0747528
0.0750424
0.07505
0.0750073
0.075047
0.0749981
0.0748634
0.0745791
0.0744939
0.0746639
0.0750306
0.078509
0.130727
0.311592
0.535668
0.727563
0.820895
0.851619
0.921301
0.942775
0.936998
0.928822
0.92668
0.929436
0.936942
0.943821
0.947807
0.947781
0.948657
0.951219
0.956571
0.961262
0.963931
0.965879
0.969657
0.0762228
0.0762546
0.0763304
0.0763495
0.0763493
0.0763446
0.0763372
0.0763325
0.0763272
0.0763136
0.076295
0.07628
0.0762629
0.0762593
0.0762619
0.0762632
0.0762588
0.0762439
0.0762283
0.0762104
0.0761961
0.0761926
0.0762013
0.0762136
0.0761972
0.0761527
0.0761336
0.0761164
0.0760884
0.0760824
0.0760954
0.0761501
0.0762475
0.0763363
0.0763528
0.0763527
0.0763533
0.0763596
0.0763543
0.0763281
0.0762753
0.0761795
0.076092
0.0760799
0.0760903
0.0761165
0.0761253
0.0761039
0.0760015
0.0759007
0.0758588
0.0758091
0.0756797
0.075449
0.0751885
0.0749467
0.0747359
0.0745812
0.0745857
0.0746742
0.0747237
0.0747063
0.0745565
0.0743903
0.0744324
0.0748475
0.075452
0.0755639
0.0753983
0.0750997
0.0749256
0.0747784
0.0744957
0.0751511
0.0770357
0.0782286
0.0788868
0.0793572
0.0799969
0.109276
0.223959
0.471287
0.730039
0.885384
0.902476
0.925289
0.926322
0.936837
0.938185
0.944586
0.946123
0.947642
0.94909
0.951365
0.95588
0.960586
0.962111
0.964588
0.967466
0.970699
0.076159
0.0761983
0.0762866
0.076313
0.0763141
0.0763045
0.0762985
0.0763046
0.0763095
0.0763055
0.0762894
0.0762728
0.0762336
0.0762063
0.0762014
0.0761874
0.0761728
0.0761757
0.0761766
0.0761533
0.0760812
0.0760544
0.0760517
0.076043
0.0760022
0.0759266
0.0758525
0.075775
0.0757255
0.0757261
0.0757553
0.0758389
0.0759501
0.0760487
0.0761167
0.0761567
0.0761931
0.0762411
0.0762517
0.0762363
0.0761812
0.0760877
0.0760149
0.075968
0.0759007
0.0757884
0.0756219
0.0754128
0.0752199
0.0751271
0.0750958
0.0750456
0.074965
0.0748654
0.0746976
0.0744298
0.0742423
0.0742012
0.0742319
0.0744411
0.0746661
0.0746646
0.0745248
0.0744147
0.0745604
0.0750294
0.0756715
0.0760681
0.0759305
0.0752848
0.0750285
0.0752712
0.0763472
0.0781486
0.0807638
0.0818412
0.0813193
0.0816176
0.0835144
0.0854759
0.0868022
0.0988267
0.208996
0.432367
0.639859
0.8485
0.878589
0.932839
0.947392
0.954289
0.94443
0.945903
0.948168
0.95404
0.960071
0.961283
0.962689
0.96612
0.969584
0.972188
0.0762136
0.0762688
0.0763161
0.0763192
0.0763159
0.0763128
0.0763225
0.0763501
0.0763587
0.0763553
0.0763381
0.0763217
0.0762778
0.076217
0.0762002
0.0761724
0.0761279
0.0761215
0.0761235
0.0761026
0.0760139
0.0759116
0.0758801
0.0758534
0.0757666
0.0755901
0.0754525
0.0753955
0.075385
0.0754011
0.0754528
0.075528
0.0755321
0.0755274
0.075523
0.0755069
0.0754983
0.0755172
0.0755427
0.0755361
0.0755108
0.0754527
0.0753219
0.0751448
0.0749893
0.0748547
0.0746936
0.0745227
0.0744791
0.0744942
0.0745887
0.0746482
0.0746554
0.0746505
0.0745592
0.0743107
0.0741109
0.0740732
0.0741172
0.0743869
0.075054
0.0752956
0.0751493
0.0750593
0.0751433
0.0753297
0.0757835
0.0765875
0.0771715
0.0776612
0.0783277
0.0796236
0.0811691
0.0816989
0.0826237
0.0841408
0.0858168
0.0873728
0.0882965
0.0894876
0.0917212
0.0935657
0.0943819
0.0969626
0.184076
0.388128
0.635304
0.843891
0.884572
0.939423
0.952132
0.963805
0.956476
0.957705
0.959233
0.962515
0.966019
0.969563
0.97058
0.973082
0.0760663
0.076058
0.076039
0.0760064
0.0759526
0.0759064
0.0758951
0.0758889
0.0758751
0.0758708
0.0758701
0.075848
0.0758075
0.0757467
0.0757292
0.0757106
0.0756792
0.0756347
0.0755857
0.0754957
0.0753729
0.0753085
0.0752782
0.0752334
0.0751248
0.0749887
0.0749223
0.0749167
0.0749342
0.0750227
0.0750655
0.0750547
0.0750229
0.0750179
0.0750132
0.0749795
0.0749171
0.0748929
0.0748997
0.0749219
0.0749316
0.0749126
0.0748244
0.0746975
0.0745739
0.0744343
0.0742788
0.0741725
0.0741578
0.0741783
0.0742744
0.0744634
0.0745779
0.074593
0.074535
0.0743086
0.0741073
0.0741077
0.074251
0.0748513
0.0759102
0.0768384
0.0771141
0.0771972
0.0773995
0.077777
0.0779209
0.0781863
0.079138
0.0806806
0.0822715
0.083749
0.0854232
0.0858221
0.0859376
0.0872574
0.0903014
0.0924158
0.0932365
0.0945102
0.0956842
0.0976903
0.100118
0.101585
0.102538
0.103252
0.179322
0.360207
0.607005
0.839372
0.885366
0.948449
0.967111
0.971731
0.962445
0.958485
0.965879
0.970785
0.972426
0.974347
0.0746712
0.0746742
0.0746718
0.0746731
0.0746727
0.0746583
0.0746528
0.0746567
0.0746693
0.0747146
0.0748243
0.07485
0.0748479
0.0748657
0.0749581
0.0750218
0.0750246
0.0750219
0.0750036
0.0749761
0.0749516
0.0749319
0.0749272
0.074919
0.0748977
0.0748642
0.0748245
0.0748068
0.074819
0.0748492
0.0748499
0.0748342
0.074779
0.074696
0.0746605
0.0746353
0.0745823
0.0745377
0.0745469
0.0746125
0.074659
0.0746551
0.0746199
0.074568
0.0744749
0.0743117
0.0741378
0.074081
0.0740841
0.0741152
0.0741972
0.0744016
0.0746424
0.0749126
0.0751436
0.0751992
0.0752859
0.0755934
0.076203
0.0771051
0.0779407
0.0788873
0.079969
0.0804985
0.0808327
0.0816105
0.0822122
0.0825222
0.0829958
0.0840485
0.0858519
0.0877383
0.0899593
0.0924115
0.0930726
0.093377
0.0939844
0.0951388
0.0975152
0.100683
0.102062
0.102276
0.103459
0.105486
0.108048
0.109524
0.110288
0.111251
0.175092
0.35176
0.612484
0.847523
0.895686
0.954977
0.974106
0.975169
0.974752
0.967218
0.970689
0.977382
0.0737795
0.0738359
0.0738987
0.0739602
0.0740106
0.0740538
0.0741058
0.0741668
0.0742306
0.0742959
0.0743509
0.074397
0.0744637
0.0745889
0.0747714
0.0748992
0.0749237
0.074922
0.0749084
0.0748797
0.074872
0.0748911
0.0749531
0.074981
0.0749814
0.0749822
0.0749781
0.0749212
0.0747716
0.0746988
0.0746802
0.0746505
0.0745737
0.0744699
0.0744251
0.0744154
0.0743874
0.0743699
0.0743959
0.0745185
0.0745616
0.0745609
0.0745807
0.0745673
0.0744974
0.0743391
0.0742097
0.074216
0.0742664
0.0743977
0.0747021
0.0753149
0.0762556
0.0772981
0.078341
0.0794775
0.0804002
0.0809977
0.08155
0.0820114
0.0821974
0.0823466
0.0829184
0.0835875
0.0840136
0.0847014
0.0862177
0.0882815
0.0902785
0.0920002
0.0931327
0.0937449
0.0946889
0.0963516
0.0975818
0.0984051
0.0990729
0.101162
0.103264
0.105294
0.107199
0.107427
0.107873
0.109714
0.113262
0.115258
0.11569
0.117102
0.118879
0.120156
0.184164
0.357913
0.614457
0.856306
0.907978
0.96398
0.991991
0.97217
0.972964
0.974758
0.0751639
0.0751875
0.0751903
0.0751847
0.0751521
0.0751102
0.0751053
0.0751191
0.0751618
0.0751678
0.075121
0.0750596
0.075063
0.0751221
0.0752468
0.0752826
0.0752812
0.0752616
0.0752068
0.0751313
0.0750877
0.0750863
0.0750881
0.0750664
0.0750535
0.075057
0.0750479
0.0749771
0.0748596
0.0747935
0.0747589
0.0746995
0.0745755
0.0744527
0.0744218
0.0744232
0.0744246
0.0744446
0.0745296
0.0747733
0.0749185
0.0750508
0.0753499
0.0758763
0.076485
0.0770681
0.0776333
0.0782473
0.0789266
0.079605
0.0803405
0.0811905
0.082191
0.0830554
0.0836861
0.0844206
0.0849991
0.0852754
0.0855297
0.0856953
0.0858754
0.0862404
0.0869875
0.0883741
0.0900498
0.0917065
0.093561
0.0953628
0.0968524
0.0985141
0.0995016
0.0993991
0.0992131
0.099728
0.101899
0.104228
0.106766
0.10907
0.109524
0.109486
0.110386
0.112505
0.115047
0.117071
0.118526
0.119912
0.120761
0.122526
0.124765
0.126505
0.12845
0.129371
0.192971
0.372088
0.638303
0.877611
0.93442
0.959489
0.992507
0.983601
0.0749816
0.0749784
0.074976
0.0749258
0.0747579
0.0746995
0.0747097
0.0748192
0.0748886
0.074874
0.0747333
0.074593
0.0745808
0.0745977
0.0746748
0.0747872
0.0748368
0.0748532
0.074883
0.0749459
0.0750153
0.0751025
0.0751364
0.0751514
0.0752068
0.0753152
0.075365
0.0753683
0.0754067
0.075538
0.0757281
0.0759627
0.0762257
0.0764757
0.076755
0.0771412
0.077699
0.0783913
0.0790573
0.0796502
0.0803019
0.0811291
0.0821085
0.0830805
0.0838904
0.0845155
0.0851025
0.0856358
0.0860756
0.0864876
0.0868162
0.0869537
0.0872315
0.0875767
0.0877785
0.0880172
0.0884187
0.0889125
0.0895264
0.0905333
0.0919594
0.09383
0.0958817
0.0979513
0.099582
0.100573
0.101344
0.101783
0.101849
0.102138
0.103128
0.104359
0.105508
0.107101
0.109411
0.11156
0.112954
0.113689
0.114214
0.114764
0.115996
0.118531
0.121576
0.123175
0.123258
0.124092
0.126052
0.128565
0.131402
0.132224
0.132944
0.135201
0.136771
0.13777
0.210805
0.408163
0.67325
0.893673
0.959352
0.978601
0.0762492
0.0764205
0.0765802
0.0766771
0.0767422
0.0768203
0.0769422
0.0771037
0.0772677
0.0774493
0.0776274
0.0778153
0.0780537
0.0783319
0.0785701
0.0787459
0.0789364
0.0792224
0.0795476
0.0798933
0.0802998
0.0807365
0.0811379
0.0815089
0.0818171
0.082116
0.0824836
0.0829381
0.0834579
0.0839535
0.0844059
0.0848439
0.085235
0.0856196
0.0860266
0.0863743
0.0866867
0.08704
0.087383
0.0876449
0.0879121
0.0882911
0.088719
0.089129
0.0894489
0.0897476
0.0901454
0.0905412
0.0908001
0.0911857
0.091476
0.0916419
0.0919785
0.0928384
0.0941681
0.0953913
0.0965688
0.0979416
0.0996308
0.101354
0.102558
0.103325
0.104115
0.105164
0.10565
0.105596
0.105676
0.106166
0.10673
0.107361
0.108838
0.111408
0.114412
0.115952
0.116995
0.118023
0.117988
0.118214
0.119468
0.122131
0.124585
0.126278
0.127292
0.127927
0.128992
0.130946
0.133526
0.134723
0.136693
0.139211
0.139058
0.13975
0.142447
0.145314
0.14659
0.147412
0.228319
0.459033
0.737304
0.937237
0.0860849
0.0861794
0.0863364
0.0864754
0.0865572
0.0866092
0.0866755
0.0867829
0.0869465
0.0871134
0.0872455
0.0873416
0.0874322
0.0875437
0.0876785
0.0878233
0.0879525
0.0880822
0.0882404
0.0884061
0.0885899
0.0888168
0.0890802
0.0893054
0.0895123
0.0897292
0.0899853
0.0902384
0.0904806
0.0907158
0.0910144
0.0912625
0.0914414
0.0917157
0.0919948
0.0920654
0.092165
0.092469
0.0926932
0.0928781
0.0931403
0.0935381
0.0939834
0.0944798
0.095088
0.0958635
0.0967216
0.0976733
0.0986616
0.0995902
0.100612
0.101756
0.102854
0.103885
0.104941
0.106037
0.10702
0.107646
0.108026
0.108673
0.109171
0.109057
0.108974
0.109185
0.109755
0.110314
0.111106
0.11287
0.115417
0.118053
0.11959
0.120615
0.122045
0.122476
0.122517
0.122979
0.123976
0.125343
0.127375
0.129545
0.131719
0.132813
0.13315
0.134207
0.135603
0.13745
0.140397
0.141793
0.142295
0.144462
0.146483
0.147686
0.149987
0.15126
0.152386
0.154799
0.155895
0.164719
0.253647
0.644487
0.0934731
0.093563
0.0936249
0.0936855
0.0937617
0.0938623
0.0939584
0.0940371
0.0941316
0.0942755
0.0944714
0.0946645
0.0948199
0.0949483
0.0950766
0.0952271
0.0954549
0.0956154
0.0957499
0.0958967
0.0961
0.0963639
0.0965992
0.096867
0.0971871
0.0975468
0.097864
0.0982053
0.0985952
0.0990428
0.0994992
0.0999668
0.100487
0.101027
0.101567
0.102115
0.10268
0.103202
0.103737
0.104319
0.10487
0.105373
0.105905
0.106445
0.107104
0.107897
0.108705
0.109373
0.10984
0.110275
0.110731
0.111142
0.111548
0.111902
0.112167
0.112574
0.112973
0.112958
0.112928
0.113176
0.114104
0.114882
0.115625
0.11676
0.118673
0.120969
0.123
0.124281
0.125379
0.126932
0.127453
0.127277
0.127265
0.127847
0.128399
0.129701
0.131751
0.134682
0.136619
0.137488
0.138595
0.139319
0.140285
0.141699
0.143695
0.145238
0.147072
0.149827
0.150099
0.150092
0.151928
0.154914
0.157622
0.158571
0.159087
0.160636
0.163238
0.165822
0.16611
0.258366
0.104502
0.104528
0.10457
0.104666
0.104869
0.105031
0.105048
0.105039
0.105052
0.105197
0.105543
0.105833
0.10598
0.106081
0.106239
0.106448
0.106596
0.106749
0.106937
0.107144
0.107335
0.107557
0.107825
0.108118
0.108443
0.108816
0.109226
0.1096
0.10995
0.110301
0.110612
0.110883
0.111168
0.11148
0.111789
0.112125
0.112401
0.112625
0.112896
0.113217
0.113516
0.113802
0.114039
0.114227
0.114428
0.114664
0.11494
0.115209
0.115345
0.115573
0.1159
0.116227
0.116664
0.117225
0.117865
0.118681
0.119734
0.120974
0.122198
0.123441
0.124846
0.126546
0.128235
0.129624
0.130548
0.131357
0.132343
0.132339
0.132208
0.132361
0.132962
0.133478
0.134359
0.135741
0.13819
0.140513
0.142295
0.144059
0.144826
0.144931
0.145148
0.146365
0.148195
0.149922
0.152528
0.154183
0.154544
0.155951
0.157505
0.15845
0.160431
0.162678
0.163794
0.165381
0.16679
0.168523
0.170009
0.17123
0.173194
0.175468
0.114692
0.114864
0.115089
0.115136
0.115101
0.115044
0.115053
0.115193
0.11543
0.115523
0.115646
0.115868
0.11594
0.115993
0.116114
0.116267
0.116366
0.116458
0.116607
0.116772
0.1169
0.11695
0.117027
0.11716
0.117262
0.117378
0.117551
0.117744
0.118057
0.118279
0.1183
0.118337
0.118451
0.118669
0.119036
0.119552
0.120088
0.120554
0.120985
0.121458
0.121969
0.122414
0.122906
0.12344
0.123784
0.124148
0.124692
0.125497
0.126486
0.127436
0.128315
0.129179
0.129995
0.130919
0.13199
0.13298
0.133901
0.134929
0.135886
0.136417
0.136787
0.137255
0.137483
0.137637
0.137703
0.137874
0.138424
0.138859
0.139223
0.13999
0.141519
0.144162
0.146549
0.148283
0.149731
0.150401
0.151337
0.151532
0.151956
0.152548
0.153585
0.155466
0.158111
0.159972
0.161506
0.162721
0.162959
0.163214
0.164712
0.167769
0.170202
0.171216
0.171237
0.171902
0.174454
0.176572
0.177681
0.179824
0.1813
0.183405
0.125991
0.126067
0.126153
0.12625
0.126367
0.126518
0.126694
0.126859
0.127119
0.127261
0.127259
0.127315
0.127587
0.127759
0.127834
0.12795
0.128191
0.128473
0.128729
0.128921
0.129065
0.129229
0.129612
0.12979
0.12976
0.129786
0.13
0.130491
0.131018
0.131383
0.13169
0.131943
0.132158
0.132417
0.132804
0.133191
0.133536
0.133873
0.134206
0.134546
0.134907
0.135324
0.135828
0.136436
0.137088
0.137696
0.138248
0.13885
0.139482
0.139859
0.140051
0.140287
0.140629
0.141034
0.141354
0.141488
0.141625
0.142074
0.142607
0.142691
0.142893
0.143639
0.144141
0.144572
0.145306
0.146616
0.148289
0.150234
0.152461
0.154488
0.155895
0.157059
0.15766
0.158401
0.158699
0.158716
0.158857
0.159559
0.160959
0.16302
0.165146
0.167029
0.168737
0.169454
0.169292
0.169779
0.171525
0.173186
0.17498
0.177118
0.177536
0.178391
0.179875
0.18216
0.183911
0.185044
0.187266
0.188467
0.188929
0.190796
0.138621
0.138696
0.138781
0.138869
0.138989
0.139052
0.139102
0.139254
0.139536
0.139619
0.139622
0.139662
0.139819
0.139976
0.140074
0.140165
0.140314
0.140545
0.140798
0.14104
0.141341
0.141496
0.141579
0.141798
0.142125
0.14238
0.142481
0.142583
0.142802
0.143162
0.143619
0.144049
0.144199
0.144302
0.144433
0.144599
0.144849
0.145206
0.145626
0.146006
0.146227
0.146454
0.146653
0.146841
0.147165
0.147334
0.147425
0.147671
0.148324
0.148981
0.149522
0.150043
0.150849
0.151715
0.152306
0.152728
0.153226
0.15392
0.15498
0.156314
0.157567
0.15878
0.160296
0.161844
0.163107
0.164029
0.164764
0.165183
0.165562
0.16623
0.166696
0.166603
0.166334
0.166348
0.166805
0.168114
0.169814
0.171737
0.173672
0.175621
0.176979
0.177473
0.177944
0.178438
0.178943
0.180026
0.181834
0.184294
0.186661
0.186834
0.187221
0.187845
0.189641
0.192141
0.192813
0.194128
0.195254
0.19597
0.197405
0.20009
0.153511
0.153596
0.153697
0.153794
0.15388
0.154048
0.154145
0.154163
0.154237
0.154406
0.15465
0.154857
0.154897
0.154945
0.155099
0.155142
0.155215
0.155343
0.155563
0.155869
0.155904
0.155906
0.155991
0.156239
0.156647
0.156747
0.15673
0.156746
0.156887
0.157257
0.157758
0.158198
0.158554
0.158806
0.159049
0.159391
0.159835
0.16016
0.160597
0.161139
0.16154
0.161835
0.162097
0.162426
0.162882
0.163362
0.163879
0.164596
0.165127
0.165489
0.165842
0.166238
0.166768
0.167513
0.168361
0.169243
0.169963
0.170422
0.170777
0.171218
0.17163
0.171803
0.17206
0.172365
0.172758
0.173144
0.173504
0.173368
0.173126
0.173273
0.174218
0.175508
0.177004
0.17867
0.180669
0.182764
0.184641
0.186184
0.186852
0.187403
0.187591
0.187624
0.187953
0.189031
0.190979
0.193359
0.194493
0.195574
0.196083
0.196564
0.197325
0.198686
0.20016
0.200863
0.202675
0.204036
0.204712
0.206045
0.207443
0.209618
0.169874
0.169934
0.169991
0.170045
0.170175
0.170268
0.170326
0.170444
0.170583
0.170695
0.170791
0.170936
0.171106
0.171143
0.171204
0.171496
0.171616
0.171719
0.171947
0.172025
0.172065
0.172295
0.17279
0.173071
0.173108
0.17317
0.173397
0.173725
0.173841
0.173856
0.173915
0.174189
0.174514
0.17467
0.17487
0.175142
0.17513
0.175092
0.17518
0.175497
0.176001
0.176545
0.177003
0.177409
0.177762
0.17811
0.17867
0.17913
0.179139
0.17907
0.179148
0.179527
0.180309
0.18061
0.180676
0.181006
0.181313
0.181548
0.18186
0.182455
0.183521
0.184121
0.18445
0.184897
0.185609
0.186742
0.18813
0.189832
0.191638
0.193026
0.19419
0.195415
0.196567
0.19752
0.198405
0.198362
0.198291
0.198339
0.19817
0.198227
0.198621
0.199779
0.201396
0.203021
0.204513
0.205756
0.20662
0.206591
0.206994
0.207898
0.209279
0.211129
0.21212
0.213325
0.214634
0.215105
0.215704
0.216528
0.217621
0.219662
0.188787
0.188832
0.188886
0.188952
0.189025
0.189138
0.189223
0.189299
0.189356
0.189452
0.189571
0.189634
0.189752
0.189989
0.190113
0.190119
0.190085
0.190084
0.190372
0.190644
0.190692
0.190704
0.190724
0.190879
0.190927
0.191041
0.191534
0.191832
0.191814
0.191708