/*--------------------------------*- C++ -*----------------------------------*\
  =========                 |
  \\      /  F ield         | OpenFOAM: The Open Source CFD Toolbox
   \\    /   O peration     | Website:  https://openfoam.org
    \\  /    A nd           | Version:  7
     \\/     M anipulation  |
\*---------------------------------------------------------------------------*/
FoamFile
{
    version     2.0;
    format      ascii;
    class       volScalarField;
    location    "0.6";
    object      rho;
}
// * * * * * * * * * * * * * * * * * * * * * * * * * * * * * * * * * * * * * //

dimensions      [1 -3 0 0 0 0 0];

internalField   nonuniform List<scalar> 
1750
(
0.5043
0.746468
0.951679
1.13008
1.1973
1.21414
1.24389
1.30241
1.37485
1.3986
0.364795
0.4701
0.623587
0.80181
0.975513
1.09208
1.19918
1.31484
1.38448
1.39933
0.443212
0.492329
0.572768
0.700948
0.869948
1.05286
1.21156
1.34005
1.39319
1.39983
0.643908
0.725329
0.813279
0.913046
1.03366
1.17333
1.30665
1.38248
1.399
1.39999
0.883868
0.978412
1.07717
1.17148
1.25951
1.33694
1.3851
1.39873
1.39997
1.4
1.17977
1.25107
1.31227
1.3568
1.38363
1.39606
1.39956
1.39999
1.4
1.40001
1.36233
1.38158
1.39283
1.39792
1.39958
1.39995
1.4
1.4
1.40001
1.40001
1.39834
1.39946
1.39987
1.39998
1.4
1.4
1.40001
1.40001
1.40001
1.40001
1.39998
1.4
1.4
1.4
1.40001
1.40001
1.40001
1.40001
1.40001
1.40001
1.4
1.40001
1.40001
1.40001
1.40001
1.40001
1.40001
1.40001
1.40001
1.40001
1.40001
1.40001
1.40001
1.40001
1.40001
1.40001
1.40001
1.40001
1.40001
1.40001
1.40001
1.40001
1.40001
1.40001
1.40001
1.40001
1.40001
1.40001
1.40001
1.40001
1.40001
1.40001
1.40001
1.40001
1.40001
1.40001
1.40001
1.40001
1.40001
1.40001
1.40001
1.40001
1.40001
1.40001
1.40001
1.40001
1.40001
1.40001
1.40001
1.40001
1.40001
1.40001
1.40001
1.40001
1.40001
1.40001
1.40001
1.40001
1.40001
1.40001
0.272286
0.353019
0.408016
0.575902
0.805906
1.11003
1.33642
1.39579
1.39992
1.4
1.40001
1.40001
1.40001
1.40001
1.40001
0.286737
0.365929
0.420793
0.596532
0.826284
1.12422
1.34183
1.39656
1.39995
1.4
1.40001
1.40001
1.40001
1.40001
1.40001
0.295495
0.364584
0.417487
0.592224
0.817924
1.1115
1.33383
1.39548
1.39992
1.4
1.40001
1.40001
1.40001
1.40001
1.40001
0.314927
0.382422
0.426258
0.602668
0.823098
1.11082
1.33231
1.3951
1.3999
1.4
1.40001
1.40001
1.40001
1.40001
1.40001
0.328776
0.418243
0.488527
0.680773
0.891169
1.14021
1.33484
1.39495
1.39989
1.4
1.40001
1.40001
1.40001
1.40001
1.40001
0.326217
0.426146
0.537386
0.775758
1.01623
1.22656
1.35567
1.39587
1.39989
1.4
1.40001
1.40001
1.40001
1.40001
1.40001
0.276689
0.41087
0.534728
0.827149
1.1356
1.32715
1.38822
1.39878
1.39993
1.4
1.4
1.40001
1.40001
1.40001
1.40001
0.138721
0.309461
0.522022
0.882809
1.26356
1.42093
1.41894
1.40226
1.40001
1.4
1.4
1.40001
1.40001
1.40001
1.40001
0.0524409
0.223896
0.517313
1.01047
1.4234
1.50068
1.44969
1.40478
1.40008
1.4
1.4
1.40001
1.40001
1.40001
1.40001
0.0338782
0.207317
0.611498
1.26103
1.59029
1.58235
1.46664
1.40517
1.40009
1.4
1.4
1.40001
1.40001
1.40001
1.40001
0.0379561
0.258506
0.92309
1.58184
1.73877
1.65007
1.46798
1.40381
1.40006
1.4
1.4
1.40001
1.40001
1.40001
1.40001
0.149593
0.533938
1.32117
1.87042
1.87164
1.67107
1.44409
1.40158
1.40003
1.40001
1.40001
1.40001
1.40001
1.40001
1.40001
0.353473
0.880198
1.79261
2.09769
1.94719
1.57933
1.41531
1.40037
1.40001
1.40001
1.40001
1.40001
1.40001
1.40001
1.40001
0.788457
1.50305
2.26445
2.21996
1.81663
1.46355
1.40262
1.40005
1.40001
1.40001
1.40001
1.40001
1.40001
1.40001
1.40001
1.7228
2.38642
2.52237
2.0763
1.54695
1.4084
1.40019
1.40001
1.40001
1.40001
1.40001
1.40001
1.40001
1.40001
1.40001
3.01527
2.86474
2.62861
1.53579
1.39479
1.39984
1.4
1.40001
1.40001
1.40001
1.40001
1.40001
1.40001
1.40001
1.40001
3.0187
2.83995
2.65205
1.68479
1.4046
1.40002
1.40001
1.40001
1.40001
1.40001
1.40001
1.40001
1.40001
1.40001
1.40001
3.03753
2.83315
2.6175
1.64957
1.40329
1.40001
1.40001
1.40001
1.40001
1.40001
1.40001
1.40001
1.40001
1.40001
1.40001
3.0395
2.82019
2.58798
1.63048
1.40306
1.40001
1.40001
1.40001
1.40001
1.40001
1.40001
1.40001
1.40001
1.40001
1.40001
3.0182
2.78301
2.5387
1.60749
1.40243
1.40001
1.40001
1.40001
1.40001
1.40001
1.40001
1.40001
1.40001
1.40001
1.40001
2.98915
2.72686
2.45772
1.57574
1.40198
1.40001
1.40001
1.40001
1.40001
1.40001
1.40001
1.40001
1.40001
1.40001
1.40001
2.99975
2.67791
2.34187
1.52977
1.40126
1.40001
1.40001
1.40001
1.40001
1.40001
1.40001
1.40001
1.40001
1.40001
1.40001
3.05117
2.64568
2.18128
1.47671
1.40058
1.40001
1.40001
1.40001
1.40001
1.40001
1.40001
1.40001
1.40001
1.40001
1.40001
3.16624
2.60947
1.97675
1.43373
1.40019
1.40001
1.40001
1.40001
1.40001
1.40001
1.40001
1.40001
1.40001
1.40001
1.40001
3.31367
2.53349
1.73991
1.40964
1.40004
1.40001
1.40001
1.40001
1.40001
1.40001
1.40001
1.40001
1.40001
1.40001
1.40001
3.35934
2.32422
1.54107
1.40174
1.40001
1.40001
1.40001
1.40001
1.40001
1.40001
1.40001
1.40001
1.40001
1.40001
1.40001
3.19259
1.97061
1.43741
1.40022
1.40001
1.40001
1.40001
1.40001
1.40001
1.40001
1.40001
1.40001
1.40001
1.40001
1.40001
2.75535
1.66689
1.40684
1.40003
1.40001
1.40001
1.40001
1.40001
1.40001
1.40001
1.40001
1.40001
1.40001
1.40001
1.40001
2.26333
1.49066
1.40094
1.40001
1.40001
1.40001
1.40001
1.40001
1.40001
1.40001
1.40001
1.40001
1.40001
1.40001
1.40001
1.7635
1.41659
1.40007
1.40001
1.40001
1.40001
1.40001
1.40001
1.40001
1.40001
1.40001
1.40001
1.40001
1.40001
1.40001
1.40001
1.40001
1.40001
1.40001
1.40001
1.40001
1.40001
1.40001
1.40001
1.40001
1.40001
1.40001
1.40001
1.40001
1.40001
1.40001
1.40001
1.40001
1.40001
1.40001
1.40001
1.40001
1.40001
1.40001
1.40001
1.40001
1.40001
1.40001
1.40001
1.40001
1.40001
1.40001
1.40001
1.40001
1.40001
1.40001
1.40001
1.40001
1.40001
1.40001
1.40001
1.40001
1.40001
1.40001
1.40001
1.40001
1.40001
1.40001
1.40001
1.40001
1.40001
1.40001
1.40001
1.40001
1.40001
1.40001
1.40001
1.40001
1.40001
1.40001
1.40001
1.40001
1.40001
1.40001
1.40001
1.40001
1.40001
1.40001
1.40001
1.40001
1.40001
1.40001
1.40001
1.40001
1.40001
1.40001
1.40001
1.40001
1.40001
1.40001
1.40001
1.40001
1.40001
1.40001
1.40001
1.40001
1.40001
1.40001
1.40001
1.40001
1.40001
1.40001
1.40001
1.40001
1.40001
1.40001
1.40001
1.40001
1.40001
1.40001
1.40001
1.40001
1.40001
1.40001
1.40001
1.40001
1.40001
1.40001
1.40001
1.40001
1.40001
1.40001
1.40001
1.40001
1.40001
1.40001
1.40001
1.40001
1.40001
1.40001
1.40001
1.40001
1.40001
1.40001
1.40001
1.40001
1.40001
1.40001
1.40001
1.40001
1.40001
1.40001
1.40001
1.40001
1.40001
1.40001
1.40001
1.40001
1.40001
1.40001
1.40001
1.40001
1.40001
1.40001
1.40001
1.40001
1.40001
1.40001
1.40001
1.40001
1.40001
1.40001
1.40001
1.40001
1.40001
1.40001
1.40001
1.40001
1.40001
1.40001
1.40001
1.40001
1.40001
1.40001
1.40001
1.40001
1.40001
1.40001
1.40001
1.40001
1.40001
1.40001
1.40001
1.40001
1.40001
1.40001
1.40001
1.40001
1.40001
1.40001
1.40001
1.40001
1.40001
1.40001
1.40001
1.40001
1.40001
1.40001
1.40001
1.40001
1.40001
1.40001
1.40001
1.40001
1.40001
1.40001
1.40001
1.40001
1.40001
1.40001
1.40001
1.40001
1.40001
1.40001
1.40001
1.40001
1.40001
1.40001
1.40001
1.40001
1.40001
1.40001
1.40001
1.40001
1.40001
1.40001
1.40001
1.40001
1.40001
1.40001
1.40001
1.40001
1.40001
1.40001
1.40001
1.40001
1.40001
1.40001
1.40001
1.40001
1.40001
1.40001
1.40001
1.40001
1.40001
1.40001
1.40001
1.40001
1.40001
1.40001
1.40001
1.40001
1.40001
1.40001
1.40001
1.40001
1.40001
1.40001
1.40001
1.40001
1.40001
1.40001
1.40001
1.40001
1.40001
1.40001
1.40001
1.40001
1.40001
1.40001
1.40001
1.40001
1.40001
1.40001
1.40001
1.40001
1.40001
1.40001
1.40001
1.40001
1.40001
1.40001
1.40001
1.40001
1.40001
1.40001
1.40001
1.40001
1.40001
1.40001
1.40001
1.40001
1.40001
1.40001
1.40001
1.40001
1.40001
1.40001
1.40001
1.40001
1.40001
1.40001
1.40001
1.40001
1.40001
1.40001
1.40001
1.40001
1.40001
1.40001
1.40001
1.40001
1.40001
1.40001
1.40001
1.40001
1.40001
1.40001
1.40001
1.40001
1.40001
1.40001
1.40001
1.40001
1.40001
1.40001
1.40001
1.40001
1.40001
1.40001
1.40001
1.40001
1.40001
1.40001
1.40001
1.40001
1.40001
1.40001
1.40001
1.40001
1.40001
1.40001
1.40001
1.40001
1.40001
1.40001
1.40001
1.40001
1.40001
1.40001
1.40001
1.40001
1.40001
1.40001
1.40001
1.40001
1.40001
1.40001
1.40001
1.40001
2.08015
1.41613
1.40001
1.40001
1.40001
1.40001
1.40001
1.40001
1.40001
1.40001
1.40001
1.40001
1.40001
1.40001
1.40001
1.40001
1.40001
1.40001
1.40001
1.40001
3.05239
1.58402
1.39946
1.40001
1.40001
1.40001
1.40001
1.40001
1.40001
1.40001
1.40001
1.40001
1.40001
1.40001
1.40001
1.40001
1.40001
1.40001
1.40001
1.40001
4.05756
2.16359
1.41904
1.40001
1.40001
1.40001
1.40001
1.40001
1.40001
1.40001
1.40001
1.40001
1.40001
1.40001
1.40001
1.40001
1.40001
1.40001
1.40001
1.40001
4.36175
3.02846
1.69182
1.3995
1.40001
1.40001
1.40001
1.40001
1.40001
1.40001
1.40001
1.40001
1.40001
1.40001
1.40001
1.40001
1.40001
1.40001
1.40001
1.40001
4.1856
3.39988
2.38819
1.44274
1.40001
1.40001
1.40001
1.40001
1.40001
1.40001
1.40001
1.40001
1.40001
1.40001
1.40001
1.40001
1.40001
1.40001
1.40001
1.40001
3.82192
3.37621
2.98975
1.69378
1.4
1.4
1.40001
1.40001
1.40001
1.40001
1.40001
1.40001
1.40001
1.40001
1.40001
1.40001
1.40001
1.40001
1.40001
1.40001
3.41339
3.36698
3.23185
2.11239
1.41431
1.4
1.40001
1.40001
1.40001
1.40001
1.40001
1.40001
1.40001
1.40001
1.40001
1.40001
1.40001
1.40001
1.40001
1.40001
3.18798
3.35532
3.31111
2.48508
1.47348
1.40002
1.40001
1.40001
1.40001
1.40001
1.40001
1.40001
1.40001
1.40001
1.40001
1.40001
1.40001
1.40001
1.40001
1.40001
3.16143
3.38659
3.35831
2.7365
1.57241
1.40012
1.40001
1.40001
1.40001
1.40001
1.40001
1.40001
1.40001
1.40001
1.40001
1.40001
1.40001
1.40001
1.40001
1.40001
3.16639
3.43673
3.4222
2.9024
1.67386
1.40047
1.40001
1.40001
1.40001
1.40001
1.40001
1.40001
1.40001
1.40001
1.40001
1.40001
1.40001
1.40001
1.40001
1.40001
3.20141
3.49339
3.48841
3.01166
1.75334
1.40098
1.40001
1.40001
1.40001
1.40001
1.40001
1.40001
1.40001
1.40001
1.40001
1.40001
1.40001
1.40001
1.40001
1.40001
3.23901
3.52109
3.52609
3.08321
1.81946
1.40181
1.40001
1.40001
1.40001
1.40001
1.40001
1.40001
1.40001
1.40001
1.40001
1.40001
1.40001
1.40001
1.40001
1.40001
3.25497
3.52474
3.54074
3.1317
1.87704
1.40249
1.40001
1.40001
1.40001
1.40001
1.40001
1.40001
1.40001
1.40001
1.40001
1.40001
1.40001
1.40001
1.40001
1.40001
3.25301
3.51041
3.5388
3.18873
1.98439
1.40607
1.40001
1.40001
1.40001
1.40001
1.40001
1.40001
1.40001
1.40001
1.40001
1.40001
1.40001
1.40001
1.40001
1.40001
3.31937
3.57123
3.56177
3.11206
1.72075
1.38158
1.39991
1.40001
1.40001
1.40001
1.40001
1.40001
1.40001
1.40001
1.40001
1.40001
1.40001
1.40001
1.40001
1.40001
1.57875
2.44994
3.22033
3.15315
2.64895
1.82557
1.44378
1.4013
1.40002
1.40001
1.40001
1.40001
1.40001
1.40001
1.40001
1.40001
1.40001
1.40001
1.40001
1.40001
0.591773
1.3314
2.20919
2.80882
2.74412
2.37075
1.69863
1.42487
1.40057
1.40001
1.40001
1.40001
1.40001
1.40001
1.40001
1.40001
1.40001
1.40001
1.40001
1.40001
0.145796
0.579561
1.33285
2.11166
2.51961
2.43115
2.00525
1.52479
1.40586
1.40008
1.40001
1.40001
1.40001
1.40001
1.40001
1.40001
1.40001
1.40001
1.40001
1.40001
0.0457141
0.248432
0.785472
1.46188
2.13286
2.24859
2.11188
1.67745
1.42472
1.40042
1.40001
1.4
1.40001
1.40001
1.40001
1.40001
1.40001
1.40001
1.40001
1.40001
0.068565
0.235846
0.473449
0.986267
1.68305
2.01879
2.02151
1.74546
1.44775
1.40108
1.40001
1.4
1.4
1.40001
1.40001
1.40001
1.40001
1.40001
1.40001
1.40001
0.122678
0.26193
0.393133
0.695934
1.3243
1.81317
1.8707
1.70958
1.45342
1.40154
1.40001
1.4
1.4
1.40001
1.40001
1.40001
1.40001
1.40001
1.40001
1.40001
0.208826
0.306564
0.400895
0.66361
1.14578
1.63292
1.71388
1.62489
1.44504
1.40148
1.40001
1.4
1.4
1.40001
1.40001
1.40001
1.40001
1.40001
1.40001
1.40001
0.355005
0.395605
0.452929
0.714996
1.06303
1.45751
1.5749
1.52356
1.42492
1.40072
1.39998
1.39999
1.4
1.40001
1.40001
1.40001
1.40001
1.40001
1.40001
1.40001
0.55963
0.535269
0.556465
0.760151
1.00781
1.295
1.43007
1.42488
1.40298
1.39972
1.39995
1.4
1.4
1.40001
1.40001
1.40001
1.40001
1.40001
1.40001
1.40001
0.621062
0.585532
0.604658
0.77402
0.940435
1.13039
1.2656
1.34923
1.39185
1.39959
1.39999
1.4
1.40001
1.40001
1.40001
1.40001
1.40001
1.40001
1.40001
1.40001
0.621098
0.585838
0.611441
0.732967
0.823026
0.975061
1.15446
1.3213
1.39116
1.3997
1.4
1.40001
1.40001
1.40001
1.40001
1.40001
1.40001
1.40001
1.40001
1.40001
0.600392
0.554543
0.577871
0.651867
0.736873
0.913287
1.13368
1.32112
1.39179
1.39978
1.4
1.40001
1.40001
1.40001
1.40001
1.40001
1.40001
1.40001
1.40001
1.40001
0.571914
0.519436
0.540136
0.628781
0.72693
0.91116
1.13536
1.3238
1.39267
1.39982
1.4
1.40001
1.40001
1.40001
1.40001
1.40001
1.40001
1.40001
1.40001
1.40001
0.562559
0.514144
0.535778
0.629501
0.730673
0.91803
1.14658
1.33241
1.39429
1.39988
1.4
1.40001
1.40001
1.40001
1.40001
1.40001
1.40001
1.40001
1.40001
1.40001
0.558852
0.514041
0.531763
0.616154
0.716018
0.901175
1.1337
1.32623
1.39302
1.39982
1.4
1.40001
1.40001
1.40001
1.40001
1.40001
1.40001
1.40001
1.40001
1.40001
0.614341
0.509942
0.54722
0.654115
0.761691
0.965033
1.19295
1.35394
1.39708
1.39996
1.4
1.40001
1.40001
1.40001
1.40001
1.40001
1.40001
1.40001
1.40001
1.40001
0.697073
0.522025
0.563674
0.708661
0.824365
1.04004
1.2535
1.37579
1.39901
1.39999
1.4
1.40001
1.40001
1.40001
1.40001
1.40001
1.40001
1.40001
1.40001
1.40001
0.878771
0.593741
0.600251
0.767331
0.894939
1.12047
1.3085
1.3898
1.39975
1.4
1.40001
1.40001
1.40001
1.40001
1.40001
1.40001
1.40001
1.40001
1.40001
1.40001
1.09476
0.769434
0.696829
0.835381
0.969657
1.19703
1.35194
1.39682
1.39996
1.4
1.40001
1.40001
1.40001
1.40001
1.40001
1.40001
1.40001
1.40001
1.40001
1.40001
1.18807
0.984329
0.863212
0.9452
1.06074
1.2673
1.38005
1.39931
1.4
1.40001
1.40001
1.40001
1.40001
1.40001
1.40001
1.40001
1.40001
1.40001
1.40001
1.40001
1.20834
1.10538
1.05352
1.09185
1.18156
1.33372
1.39445
1.39991
1.4
1.40001
1.40001
1.40001
1.40001
1.40001
1.40001
1.40001
1.40001
1.40001
1.40001
1.40001
1.2358
1.19749
1.20568
1.23997
1.30975
1.38233
1.39928
1.4
1.40001
1.40001
1.40001
1.40001
1.40001
1.40001
1.40001
1.40001
1.40001
1.40001
1.40001
1.40001
1.31062
1.31015
1.32602
1.35364
1.38373
1.39839
1.39997
1.4
1.40001
1.40001
1.40001
1.40001
1.40001
1.40001
1.40001
1.40001
1.40001
1.40001
1.40001
1.40001
1.37995
1.38362
1.38913
1.39538
1.39915
1.39996
1.4
1.40001
1.40001
1.40001
1.40001
1.40001
1.40001
1.40001
1.40001
1.40001
1.40001
1.40001
1.40001
1.40001
1.39897
1.39931
1.39965
1.3999
1.39999
1.4
1.40001
1.40001
1.40001
1.40001
1.40001
1.40001
1.40001
1.40001
1.40001
1.40001
1.40001
1.40001
1.40001
1.40001
)
;

boundaryField
{
    inlet
    {
        type            calculated;
        value           uniform 1.40001;
    }
    outlet
    {
        type            calculated;
        value           nonuniform List<scalar> 
35
(
1.39887
1.39925
1.39961
1.39989
1.39999
1.4
1.40001
1.40001
1.40001
1.40001
1.40001
1.40001
1.40001
1.40001
1.40001
1.40001
1.40001
1.40001
1.40001
1.40001
1.39846
1.39927
1.39981
1.39999
1.4
1.40001
1.40001
1.40001
1.40001
1.40001
1.40001
1.40001
1.40001
1.40001
1.40001
)
;
    }
    airfoil
    {
        type            calculated;
        value           nonuniform List<scalar> 
60
(
0.272286
0.286737
0.295495
0.314927
0.328776
0.326217
0.276689
0.138721
0.0524409
0.0338782
0.0379561
0.149593
0.353473
0.788457
1.7228
3.01527
3.0187
3.03753
3.0395
3.0182
2.98915
2.99975
3.05117
3.16624
3.31367
3.35934
3.19259
2.75535
2.26333
1.7635
2.08015
3.05239
4.05756
4.36175
4.1856
3.82192
3.41339
3.18798
3.16143
3.16639
3.20141
3.23901
3.25497
3.25301
3.31937
1.57875
0.591773
0.145796
0.0457141
0.068565
0.122678
0.208826
0.355005
0.55963
0.621062
0.621098
0.600392
0.571914
0.562559
0.558852
)
;
    }
    top
    {
        type            symmetryPlane;
    }
    bottom
    {
        type            symmetryPlane;
    }
    defaultFaces
    {
        type            empty;
    }
}


// ************************************************************************* //
