/*--------------------------------*- C++ -*----------------------------------*\
  =========                 |
  \\      /  F ield         | OpenFOAM: The Open Source CFD Toolbox
   \\    /   O peration     | Website:  https://openfoam.org
    \\  /    A nd           | Version:  7
     \\/     M anipulation  |
\*---------------------------------------------------------------------------*/
FoamFile
{
    version     2.0;
    format      ascii;
    class       volVectorField;
    location    "0.6";
    object      U;
}
// * * * * * * * * * * * * * * * * * * * * * * * * * * * * * * * * * * * * * //

dimensions      [0 1 -1 0 0 0 0];

internalField   nonuniform List<vector> 
1750
(
(2.51913 -0.480721 0)
(2.49657 -0.216908 0)
(2.47389 -0.148465 0)
(2.48697 -0.11153 0)
(2.58068 -0.0700798 0)
(2.69434 -0.0399085 0)
(2.81486 -0.0184016 0)
(2.92155 -0.00562244 0)
(2.98338 -0.00127544 0)
(2.99895 -6.68916e-05 0)
(2.52861 -1.25546 0)
(2.43277 -0.931949 0)
(2.44264 -0.594025 0)
(2.51848 -0.363799 0)
(2.59428 -0.213776 0)
(2.68859 -0.133058 0)
(2.81265 -0.0855489 0)
(2.93173 -0.0377514 0)
(2.98902 -0.00669565 0)
(2.9995 -0.000274045 0)
(2.63057 -0.809652 0)
(2.70734 -0.725133 0)
(2.76054 -0.61601 0)
(2.76711 -0.501347 0)
(2.76348 -0.347537 0)
(2.79694 -0.19965 0)
(2.87918 -0.0933221 0)
(2.96229 -0.026521 0)
(2.99581 -0.00283513 0)
(2.99988 -7.16203e-05 0)
(2.73004 -0.706403 0)
(2.77568 -0.621291 0)
(2.83013 -0.540456 0)
(2.87151 -0.440229 0)
(2.89648 -0.313298 0)
(2.92342 -0.175262 0)
(2.96125 -0.0631947 0)
(2.99129 -0.0104516 0)
(2.99945 -0.000541207 0)
(2.99999 -7.27349e-06 0)
(2.84096 -0.402966 0)
(2.87484 -0.315633 0)
(2.9065 -0.22891 0)
(2.93621 -0.154588 0)
(2.96179 -0.0922428 0)
(2.98169 -0.0403495 0)
(2.99476 -0.00924581 0)
(2.99945 -0.00076405 0)
(2.99998 -1.90465e-05 0)
(3 -1.68594e-07 0)
(2.93746 -0.152004 0)
(2.95709 -0.100688 0)
(2.97355 -0.0577658 0)
(2.98661 -0.0278119 0)
(2.99502 -0.0104517 0)
(2.99881 -0.00251735 0)
(2.99985 -0.000282443 0)
(2.99999 -1.16705e-05 0)
(3 -1.90813e-07 0)
(3 -1.45139e-09 0)
(2.98926 -0.0244069 0)
(2.99438 -0.0118219 0)
(2.99768 -0.00456441 0)
(2.99931 -0.00132514 0)
(2.99987 -0.000270253 0)
(2.99998 -3.4615e-05 0)
(3 -2.32366e-06 0)
(3 -7.12903e-08 0)
(3 -1.06255e-09 0)
(3 1.1691e-12 0)
(2.99952 -0.00108323 0)
(2.99983 -0.000351607 0)
(2.99996 -9.03536e-05 0)
(2.99999 -1.73179e-05 0)
(3 -2.36815e-06 0)
(3 -2.16234e-07 0)
(3 -1.14376e-08 0)
(3 -3.10514e-10 0)
(3 -3.88334e-12 0)
(3 1.33378e-12 0)
(2.99999 -1.42976e-05 0)
(3 -3.47758e-06 0)
(3 -7.18318e-07 0)
(3 -1.14037e-07 0)
(3 -1.29549e-08 0)
(3 -9.80382e-10 0)
(3 -4.42545e-11 0)
(3 -1.10067e-12 0)
(3 6.22175e-14 0)
(3 5.11815e-14 0)
(3 -1.0618e-07 0)
(3 -2.16254e-08 0)
(3 -3.88737e-09 0)
(3 -5.43946e-10 0)
(3 -5.40651e-11 0)
(3 -3.54746e-12 0)
(3 -1.47415e-13 0)
(3 -3.44715e-15 0)
(3 5.32037e-15 0)
(3 -3.17368e-16 0)
(3 -6.06764e-10 0)
(3 -1.08253e-10 0)
(3 -1.69295e-11 0)
(3 -2.0673e-12 0)
(3 -1.85818e-13 0)
(3 -1.08867e-14 0)
(3 -1.96425e-15 0)
(3 -1.48855e-15 0)
(3 -1.83788e-15 0)
(3 -7.32363e-16 0)
(3 -2.75362e-12 0)
(3 -4.51732e-13 0)
(3 -6.42397e-14 0)
(3 -8.0289e-15 0)
(3 -1.38026e-15 0)
(3 -9.57316e-17 0)
(3 5.30338e-16 0)
(3 -1.17937e-16 0)
(3 -6.02026e-16 0)
(3 -3.9722e-16 0)
(3 -8.81281e-15 0)
(3 -7.26527e-16 0)
(3 1.13441e-15 0)
(3 1.07606e-15 0)
(3 1.05977e-15 0)
(3 1.11518e-15 0)
(3 1.42174e-15 0)
(3 1.11811e-15 0)
(3 5.72514e-16 0)
(3 -8.37626e-16 0)
(3 1.48649e-15 0)
(3 2.55166e-15 0)
(3 2.73617e-15 0)
(3 2.65852e-15 0)
(3 2.04911e-15 0)
(3 3.66747e-16 0)
(3 4.6883e-16 0)
(3 1.56728e-15 0)
(3 1.64535e-15 0)
(3 1.26838e-15 0)
(3 8.25601e-16 0)
(3 1.02945e-15 0)
(3 7.62831e-16 0)
(3 7.04495e-16 0)
(3 7.95018e-16 0)
(3 7.90986e-17 0)
(3 -2.64722e-17 0)
(3 2.22298e-17 0)
(3 9.5315e-16 0)
(3 1.28442e-15 0)
(2.67997 -1.16734 0)
(2.52305 -1.35597 0)
(2.58627 -0.908799 0)
(2.69593 -0.789323 0)
(2.809 -0.483558 0)
(2.91667 -0.203433 0)
(2.98285 -0.0412869 0)
(2.9989 -0.00276253 0)
(2.99998 -5.67093e-05 0)
(3 -5.51342e-07 0)
(3 -3.56987e-09 0)
(3 -1.69082e-11 0)
(3 -6.019e-14 0)
(3 4.19775e-16 0)
(3 4.11231e-16 0)
(2.65028 -1.10467 0)
(2.52105 -1.30719 0)
(2.59899 -0.862144 0)
(2.70954 -0.770092 0)
(2.81995 -0.464775 0)
(2.92142 -0.193848 0)
(2.98413 -0.0377713 0)
(2.9991 -0.00225641 0)
(2.99999 -3.92467e-05 0)
(3 -3.34014e-07 0)
(3 -1.98498e-09 0)
(3 -8.86363e-12 0)
(3 -2.99187e-14 0)
(3 -8.33931e-17 0)
(3 4.93554e-16 0)
(2.64724 -1.14536 0)
(2.52709 -1.31174 0)
(2.60346 -0.866251 0)
(2.7141 -0.779863 0)
(2.82478 -0.475882 0)
(2.92322 -0.206001 0)
(2.983 -0.0435376 0)
(2.99885 -0.00296894 0)
(2.99998 -5.94227e-05 0)
(3 -5.57536e-07 0)
(3 -3.55948e-09 0)
(3 -1.6936e-11 0)
(3 -6.20534e-14 0)
(3 -2.6517e-16 0)
(3 4.23007e-16 0)
(2.69901 -1.14339 0)
(2.56259 -1.30781 0)
(2.62212 -0.864859 0)
(2.7368 -0.783521 0)
(2.83771 -0.477706 0)
(2.92635 -0.207743 0)
(2.98371 -0.0449736 0)
(2.99883 -0.00326752 0)
(2.99998 -6.80421e-05 0)
(3 -6.30709e-07 0)
(3 -3.80299e-09 0)
(3 -1.67323e-11 0)
(3 -5.48233e-14 0)
(3 -5.86053e-17 0)
(3 3.47906e-16 0)
(2.76746 -1.18925 0)
(2.68786 -1.37268 0)
(2.75372 -0.874996 0)
(2.8737 -0.764708 0)
(2.92647 -0.451208 0)
(2.95633 -0.19742 0)
(2.98669 -0.0444198 0)
(2.99889 -0.00339285 0)
(2.99997 -7.81679e-05 0)
(3 -8.13307e-07 0)
(3 -5.56827e-09 0)
(3 -2.81279e-11 0)
(3 -1.03714e-13 0)
(3 2.42651e-17 0)
(3 1.41731e-16 0)
(2.80829 -1.20883 0)
(2.79376 -1.46045 0)
(2.98207 -0.934365 0)
(3.07757 -0.724882 0)
(3.06188 -0.376735 0)
(3.01626 -0.149337 0)
(2.99864 -0.0340049 0)
(2.99946 -0.00295118 0)
(2.99998 -7.95418e-05 0)
(3 -1.06954e-06 0)
(3 -7.19275e-09 0)
(3 -2.89136e-11 0)
(3 -9.3825e-14 0)
(3 -2.11159e-16 0)
(3 -2.37856e-16 0)
(2.89685 -1.27378 0)
(2.90156 -1.53466 0)
(3.15698 -0.983452 0)
(3.23647 -0.655891 0)
(3.15368 -0.268436 0)
(3.05717 -0.0765353 0)
(3.01102 -0.0130033 0)
(3.00054 -0.00112067 0)
(2.99999 -5.55108e-05 0)
(3 -2.87872e-06 0)
(3 -6.36226e-08 0)
(3 -2.43733e-10 0)
(3 -4.53988e-13 0)
(3 -7.75349e-16 0)
(3 -1.73818e-16 0)
(2.85968 -1.22048 0)
(3.07794 -1.53616 0)
(3.30242 -0.997952 0)
(3.33558 -0.490356 0)
(3.18521 -0.122822 0)
(3.06985 0.00165616 0)
(3.02063 0.00948149 0)
(3.00088 0.00143502 0)
(3.00001 -2.51726e-06 0)
(3 -4.86362e-06 0)
(3 -4.48075e-07 0)
(3 -4.02703e-09 0)
(3 -8.67027e-12 0)
(3 -1.06986e-14 0)
(3 -7.68135e-17 0)
(2.52882 -0.605737 0)
(3.0385 -1.23126 0)
(3.44113 -0.869965 0)
(3.33588 -0.217605 0)
(3.16374 0.0365835 0)
(3.07242 0.0710422 0)
(3.01944 0.0338972 0)
(3.00089 0.00331577 0)
(3.00002 4.60186e-05 0)
(3 -2.5238e-06 0)
(3 -6.58709e-07 0)
(3 -1.92113e-08 0)
(3 -7.02254e-11 0)
(3 -1.17933e-13 0)
(3 -1.25486e-16 0)
(2.05415 -0.0452775 0)
(3.02339 -1.08083 0)
(3.30266 -0.32807 0)
(3.25976 0.0430563 0)
(3.11983 0.173511 0)
(3.06734 0.136104 0)
(3.00948 0.0472404 0)
(3.00042 0.0036492 0)
(3.00001 5.63326e-05 0)
(3 -7.55995e-07 0)
(3 -3.94875e-07 0)
(3 -2.63425e-08 0)
(3 -1.7704e-10 0)
(3 -4.21638e-13 0)
(3 -4.21788e-16 0)
(1.59184 0.291179 0)
(3.02296 -0.214297 0)
(3.31297 -0.100844 0)
(3.17032 0.250232 0)
(3.08466 0.278582 0)
(3.03293 0.183734 0)
(3.00458 0.0495686 0)
(3.00015 0.00275172 0)
(3 3.83094e-05 0)
(3 -1.00724e-08 0)
(3 -1.17399e-07 0)
(3 -1.50101e-08 0)
(3 -1.70619e-10 0)
(3 -5.2228e-13 0)
(3 -1.28254e-15 0)
(1.55295 0.48686 0)
(3.05727 -0.283693 0)
(3.26345 0.14095 0)
(3.08303 0.40623 0)
(3.04204 0.358283 0)
(3.007 0.199675 0)
(2.99777 0.0338032 0)
(2.99993 0.00116065 0)
(3 1.46261e-05 0)
(3 8.17051e-08 0)
(3 -2.16498e-08 0)
(3 -3.63664e-09 0)
(3 -5.49121e-11 0)
(3 -2.15977e-13 0)
(3 -8.4363e-16 0)
(1.96328 0.304475 0)
(3.15811 0.120895 0)
(3.15783 0.457139 0)
(3.01993 0.515432 0)
(2.99574 0.401037 0)
(2.98075 0.143729 0)
(2.99819 0.0116575 0)
(2.99997 0.000265938 0)
(3 3.21475e-06 0)
(3 2.43327e-08 0)
(3 -2.1989e-09 0)
(3 -4.90377e-10 0)
(3 -8.45804e-12 0)
(3 -4.36031e-14 0)
(3 -5.63067e-16 0)
(2.19043 0.240346 0)
(3.10227 0.741064 0)
(3.01443 0.652947 0)
(2.98223 0.57423 0)
(2.92495 0.326799 0)
(2.98653 0.0509121 0)
(2.99964 0.00196513 0)
(3 3.25585e-05 0)
(3 3.80358e-07 0)
(3 2.97843e-09 0)
(3 -1.10538e-10 0)
(3 -3.4557e-11 0)
(3 -6.37675e-13 0)
(3 -4.6944e-15 0)
(3 -5.93093e-16 0)
(2.5597 0.559177 0)
(2.9286 0.881961 0)
(2.93123 0.669598 0)
(2.8798 0.493876 0)
(2.96491 0.113804 0)
(2.99842 0.00654664 0)
(2.99998 0.000136356 0)
(3 1.90255e-06 0)
(3 2.13856e-08 0)
(3 1.74956e-10 0)
(3 -2.46728e-12 0)
(3 -1.05556e-12 0)
(3 -1.98608e-14 0)
(3 -7.31465e-16 0)
(3 -6.99291e-16 0)
(2.70207 0.797112 0)
(2.65504 0.956186 0)
(2.94812 0.604266 0)
(3.00317 0.0988137 0)
(2.99914 -0.0049734 0)
(3.00003 -0.000130786 0)
(3 -3.06104e-07 0)
(3 -5.13948e-10 0)
(3 -4.00196e-15 0)
(3 7.02333e-14 0)
(3 1.64706e-16 0)
(3 1.21127e-16 0)
(3 1.11916e-15 0)
(3 -6.13877e-16 0)
(3 -7.25603e-16 0)
(2.71068 0.798634 0)
(2.66454 0.961201 0)
(2.92923 0.652143 0)
(2.97381 0.223719 0)
(2.99924 0.00346059 0)
(3 9.84847e-06 0)
(3 2.4222e-08 0)
(3 5.9878e-11 0)
(3 8.60747e-14 0)
(3 -2.49739e-16 0)
(3 -1.05179e-15 0)
(3 3.59317e-16 0)
(3 9.14331e-16 0)
(3 -5.88299e-16 0)
(3 -6.7273e-16 0)
(2.70879 0.794365 0)
(2.66395 0.968065 0)
(2.93411 0.637749 0)
(2.97654 0.197209 0)
(2.9994 0.00247029 0)
(3 5.95833e-06 0)
(3 1.34198e-08 0)
(3 3.26103e-11 0)
(3 9.44817e-14 0)
(3 1.26902e-15 0)
(3 8.77731e-16 0)
(3 1.78726e-16 0)
(3 9.524e-16 0)
(3 -4.59683e-16 0)
(3 -8.31309e-16 0)
(2.70728 0.791973 0)
(2.66315 0.967174 0)
(2.93597 0.625499 0)
(2.97823 0.182454 0)
(2.99952 0.00226785 0)
(3 6.46444e-06 0)
(3 1.63531e-08 0)
(3 4.16809e-11 0)
(3 9.90947e-14 0)
(3 1.40238e-15 0)
(3 1.46542e-15 0)
(3 -1.19687e-16 0)
(3 9.61262e-16 0)
(3 -4.92455e-16 0)
(3 -9.69466e-16 0)
(2.69417 0.776153 0)
(2.65273 0.958203 0)
(2.93229 0.60604 0)
(2.97905 0.164643 0)
(2.99955 0.00181263 0)
(3 4.39414e-06 0)
(3 9.89501e-09 0)
(3 2.37995e-11 0)
(3 6.44724e-14 0)
(3 9.28177e-16 0)
(3 6.1567e-16 0)
(3 5.0946e-17 0)
(3 5.93817e-16 0)
(3 -4.33711e-16 0)
(3 -4.44734e-16 0)
(2.66633 0.754732 0)
(2.63985 0.933843 0)
(2.9233 0.570339 0)
(2.97886 0.139177 0)
(2.99965 0.00144281 0)
(3 4.22784e-06 0)
(3 1.09432e-08 0)
(3 2.69325e-11 0)
(3 5.79077e-14 0)
(3 1.45553e-15 0)
(3 1.81701e-16 0)
(3 -1.09625e-16 0)
(3 1.5513e-16 0)
(3 -2.1362e-16 0)
(3 -1.33103e-16 0)
(2.64517 0.733929 0)
(2.62213 0.914002 0)
(2.90845 0.516872 0)
(2.97842 0.101425 0)
(2.9997 0.000902761 0)
(3 2.58829e-06 0)
(3 7.14338e-09 0)
(3 2.04617e-11 0)
(3 5.57482e-14 0)
(3 1.61572e-15 0)
(3 4.85518e-16 0)
(3 -3.38968e-16 0)
(3 3.22294e-16 0)
(3 -6.68991e-17 0)
(3 -2.08905e-16 0)
(2.628 0.692734 0)
(2.60159 0.898148 0)
(2.89342 0.434595 0)
(2.98264 0.0575617 0)
(2.99983 0.000393568 0)
(3 1.10304e-06 0)
(3 2.90277e-09 0)
(3 7.44456e-12 0)
(3 2.11693e-14 0)
(3 1.1722e-15 0)
(3 -2.16519e-16 0)
(3 -3.7151e-16 0)
(3 4.37517e-16 0)
(3 2.09163e-16 0)
(3 5.1469e-18 0)
(2.60857 0.630539 0)
(2.585 0.861811 0)
(2.8902 0.327722 0)
(2.99038 0.0238323 0)
(2.99993 0.000116294 0)
(3 3.23548e-07 0)
(3 1.0196e-09 0)
(3 3.67538e-12 0)
(3 1.63862e-14 0)
(3 1.04541e-15 0)
(3 -3.94827e-16 0)
(3 -4.12815e-16 0)
(3 1.55016e-16 0)
(3 2.6349e-16 0)
(3 1.01427e-16 0)
(2.60419 0.568268 0)
(2.59647 0.778057 0)
(2.91441 0.195302 0)
(2.99675 0.00637325 0)
(2.99998 2.13872e-05 0)
(3 4.34735e-08 0)
(3 7.51383e-11 0)
(3 1.20504e-13 0)
(3 3.50456e-15 0)
(3 7.7095e-16 0)
(3 -4.66439e-16 0)
(3 -7.0042e-17 0)
(3 2.07017e-16 0)
(3 3.43012e-16 0)
(3 1.58605e-16 0)
(2.61385 0.507988 0)
(2.65831 0.619466 0)
(2.95687 0.0798193 0)
(2.99933 0.00108808 0)
(3 2.68696e-06 0)
(3 6.11525e-09 0)
(3 1.40321e-11 0)
(3 2.85341e-14 0)
(3 2.4246e-15 0)
(3 7.46109e-16 0)
(3 3.845e-17 0)
(3 1.29456e-16 0)
(3 3.51331e-18 0)
(3 3.48377e-16 0)
(3 2.26357e-16 0)
(2.63334 0.360319 0)
(2.76232 0.399532 0)
(2.9874 0.0209617 0)
(2.99991 0.000126751 0)
(3 2.89754e-07 0)
(3 5.40498e-10 0)
(3 9.1873e-13 0)
(3 -1.289e-15 0)
(3 5.45968e-16 0)
(3 1.57681e-15 0)
(3 1.39294e-15 0)
(3 2.84806e-16 0)
(3 -6.94808e-16 0)
(3 1.08479e-16 0)
(3 2.13777e-16 0)
(2.71177 0.243201 0)
(2.88025 0.191938 0)
(2.99745 0.00398167 0)
(2.99999 1.2504e-05 0)
(3 1.83023e-08 0)
(3 2.91566e-11 0)
(3 3.96505e-14 0)
(3 -1.89248e-15 0)
(3 6.62508e-16 0)
(3 1.04844e-15 0)
(3 1.9008e-15 0)
(3 5.55067e-16 0)
(3 -1.28276e-15 0)
(3 -2.21384e-16 0)
(3 1.79523e-17 0)
(2.8119 0.123908 0)
(2.95721 0.0646531 0)
(2.99962 0.000541647 0)
(3 1.09782e-06 0)
(3 1.99532e-09 0)
(3 1.78447e-12 0)
(3 1.48145e-16 0)
(3 -2.54216e-15 0)
(3 3.43747e-16 0)
(3 7.52935e-16 0)
(3 1.63121e-15 0)
(3 9.21656e-16 0)
(3 -1.91738e-16 0)
(3 -4.50749e-16 0)
(3 -2.12289e-16 0)
(2.91494 0.0270511 0)
(2.99192 0.0112197 0)
(2.99997 3.64291e-05 0)
(3 4.00142e-08 0)
(3 1.95175e-11 0)
(3 4.89701e-14 0)
(3 -1.3649e-16 0)
(3 -1.04254e-15 0)
(3 2.50654e-16 0)
(3 2.46534e-16 0)
(3 1.08865e-15 0)
(3 1.48157e-15 0)
(3 5.84448e-17 0)
(3 -4.06624e-16 0)
(3 -3.99689e-16 0)
(3 1.13669e-15 0)
(3 -4.47021e-17 0)
(3 -2.10491e-15 0)
(3 -1.07722e-16 0)
(3 1.07558e-15 0)
(3 4.231e-16 0)
(3 -5.31966e-16 0)
(3 -3.89554e-16 0)
(3 9.75967e-18 0)
(3 4.8871e-17 0)
(3 7.85763e-16 0)
(3 1.31197e-15 0)
(3 4.15971e-16 0)
(3 -4.6114e-16 0)
(3 -4.5995e-16 0)
(3 1.58992e-15 0)
(3 2.98033e-16 0)
(3 -2.1431e-15 0)
(3 -5.69486e-16 0)
(3 8.37102e-16 0)
(3 1.2863e-15 0)
(3 -1.55096e-16 0)
(3 -1.17492e-15 0)
(3 4.9544e-16 0)
(3 8.10645e-17 0)
(3 1.82271e-16 0)
(3 1.44574e-15 0)
(3 1.87454e-16 0)
(3 -7.07063e-16 0)
(3 -4.53533e-16 0)
(3 1.19218e-15 0)
(3 7.02278e-17 0)
(3 -9.1794e-16 0)
(3 -2.85038e-16 0)
(3 5.64544e-16 0)
(3 5.17213e-16 0)
(3 8.30769e-17 0)
(3 -5.38956e-16 0)
(3 6.73031e-16 0)
(3 -3.04389e-16 0)
(3 3.45284e-18 0)
(3 2.03838e-15 0)
(3 -3.00742e-16 0)
(3 -8.53452e-16 0)
(3 -1.06953e-17 0)
(3 6.93333e-16 0)
(3 -1.56373e-16 0)
(3 -2.69409e-16 0)
(3 1.35271e-16 0)
(3 6.45023e-16 0)
(3 5.08553e-16 0)
(3 7.50128e-17 0)
(3 -2.34071e-16 0)
(3 2.85798e-16 0)
(3 -4.1342e-16 0)
(3 1.22908e-16 0)
(3 1.58783e-15 0)
(3 -4.39698e-16 0)
(3 -6.90154e-16 0)
(3 1.41743e-16 0)
(3 1.47292e-17 0)
(3 5.29725e-16 0)
(3 6.55594e-16 0)
(3 -4.14474e-16 0)
(3 8.06541e-16 0)
(3 6.4943e-16 0)
(3 -3.57962e-16 0)
(3 -1.72876e-16 0)
(3 3.60131e-17 0)
(3 -1.20831e-16 0)
(3 1.60096e-16 0)
(3 7.29255e-16 0)
(3 -7.65884e-17 0)
(3 -2.22632e-16 0)
(3 1.21138e-16 0)
(3 8.89946e-16 0)
(3 4.72002e-16 0)
(3 5.68855e-16 0)
(3 -5.89758e-16 0)
(3 -6.38417e-16 0)
(3 -1.28973e-16 0)
(3 6.02357e-16 0)
(3 1.79815e-16 0)
(3 -3.47469e-16 0)
(3 -3.53977e-16 0)
(3 -1.62854e-16 0)
(3 3.68359e-16 0)
(3 -5.39464e-17 0)
(3 -8.22328e-17 0)
(3 2.06526e-16 0)
(3 1.44012e-15 0)
(3 9.80217e-16 0)
(3 -4.99832e-16 0)
(3 -1.50123e-15 0)
(3 -1.25277e-15 0)
(3 -2.35645e-16 0)
(3 1.44688e-15 0)
(3 5.75351e-16 0)
(3 -5.96244e-16 0)
(3 -2.94795e-16 0)
(3 -7.23372e-16 0)
(3 4.32877e-16 0)
(3 -8.24576e-17 0)
(3 1.88732e-16 0)
(3 5.50757e-16 0)
(3 8.22962e-16 0)
(3 5.68811e-17 0)
(3 -8.94048e-16 0)
(3 -1.75013e-15 0)
(3 -1.10632e-15 0)
(3 -2.16371e-16 0)
(3 1.638e-15 0)
(3 1.41002e-15 0)
(3 -4.85396e-16 0)
(3 -4.46635e-16 0)
(3 -4.58482e-16 0)
(3 2.8015e-16 0)
(3 -2.32747e-16 0)
(3 -4.32059e-17 0)
(3 3.88263e-16 0)
(3 -1.06009e-16 0)
(3 -2.0276e-15 0)
(3 -4.39239e-16 0)
(3 -3.81366e-16 0)
(3 -3.45543e-16 0)
(3 -1.60547e-17 0)
(3 1.21345e-15 0)
(3 5.84906e-16 0)
(3 -3.17142e-17 0)
(3 -1.51261e-16 0)
(3 -9.44571e-16 0)
(3 -2.89939e-17 0)
(3 1.41888e-16 0)
(3 1.96902e-16 0)
(3 1.07219e-16 0)
(3 9.1264e-16 0)
(3 -7.21921e-16 0)
(3 -5.59328e-16 0)
(3 -7.80541e-16 0)
(3 -6.20311e-16 0)
(3 -4.26121e-16 0)
(3 6.06276e-16 0)
(3 4.6787e-16 0)
(3 1.72438e-16 0)
(3 -6.01249e-16 0)
(3 -2.03654e-18 0)
(3 3.14881e-16 0)
(3 -5.37462e-16 0)
(3 1.8969e-16 0)
(3 2.70709e-16 0)
(3 -9.69377e-16 0)
(3 -7.74174e-17 0)
(3 3.53388e-16 0)
(3 5.00611e-16 0)
(3 -4.29315e-16 0)
(3 1.13616e-15 0)
(3 1.15613e-15 0)
(3 8.31994e-16 0)
(3 1.92613e-15 0)
(3 1.18758e-15 0)
(3 -2.8404e-16 0)
(3 -1.20037e-15 0)
(3 -1.28542e-15 0)
(3 -1.02673e-15 0)
(3 -6.53547e-16 0)
(3 -1.65036e-16 0)
(3 4.47798e-16 0)
(3 -5.54067e-16 0)
(3 -1.24603e-16 0)
(3 -1.08894e-15 0)
(3 4.60923e-16 0)
(3 -2.40768e-16 0)
(3 -6.61216e-16 0)
(3 -3.48309e-16 0)
(3 -8.80934e-17 0)
(3 -9.74796e-16 0)
(3 -8.19232e-17 0)
(3 7.33894e-16 0)
(3 -3.98878e-17 0)
(3 -6.7409e-16 0)
(3 6.45394e-17 0)
(3 4.76407e-16 0)
(3 5.45673e-16 0)
(3 4.18461e-16 0)
(3 -1.29117e-16 0)
(3 -1.48804e-15 0)
(3 -2.16757e-15 0)
(3 -6.12811e-16 0)
(3 -1.05906e-15 0)
(3 4.71243e-16 0)
(3 1.93015e-15 0)
(3 1.30881e-15 0)
(3 -3.07548e-16 0)
(3 -1.3353e-15 0)
(3 -1.31014e-15 0)
(3 -2.06535e-15 0)
(3 -2.11826e-15 0)
(3 -2.22879e-15 0)
(3 -5.9387e-16 0)
(3 3.49818e-16 0)
(3 2.94371e-15 0)
(3 -1.21839e-16 0)
(3 -9.18609e-16 0)
(3 -1.3539e-15 0)
(3 -8.43176e-16 0)
(3 -4.94272e-17 0)
(3 9.00674e-16 0)
(3 9.43711e-16 0)
(3 7.20092e-17 0)
(3 -2.58046e-16 0)
(3 -3.12207e-16 0)
(3 -1.19666e-15 0)
(3 -1.07189e-15 0)
(3 -1.58856e-16 0)
(3 4.11535e-17 0)
(3 1.62387e-15 0)
(3 1.74126e-15 0)
(3 1.93714e-15 0)
(3 2.43062e-16 0)
(3 5.19189e-16 0)
(3 -1.22915e-15 0)
(3 -1.01395e-15 0)
(3 -8.03383e-16 0)
(3 -1.94086e-16 0)
(3 1.57903e-16 0)
(3 -5.55688e-16 0)
(3 -3.8002e-16 0)
(3 4.00536e-16 0)
(3 8.60871e-16 0)
(3 5.39124e-16 0)
(3 -5.129e-16 0)
(3 2.14842e-16 0)
(3 -1.47476e-16 0)
(3 -5.33684e-16 0)
(3 -4.32864e-16 0)
(3 -3.63485e-16 0)
(3 -3.63069e-16 0)
(3 7.56949e-16 0)
(3 1.13248e-15 0)
(3 1.53478e-16 0)
(3 -2.80491e-16 0)
(3 -1.45495e-16 0)
(3 -3.88744e-16 0)
(3 -2.03336e-17 0)
(3 2.16353e-16 0)
(3 4.32481e-16 0)
(3 -7.44196e-18 0)
(3 -5.87089e-16 0)
(3 -3.82742e-16 0)
(3 4.75807e-16 0)
(3 -1.0612e-15 0)
(3 -8.41438e-16 0)
(3 -3.69321e-16 0)
(3 3.2539e-17 0)
(3 -1.63351e-16 0)
(3 -2.82556e-16 0)
(3 -7.3951e-16 0)
(3 -1.61423e-15 0)
(3 -1.94114e-15 0)
(3 -9.85029e-16 0)
(3 -5.11437e-17 0)
(3 6.87597e-16 0)
(3 9.18597e-16 0)
(3 1.29712e-15 0)
(3 4.48668e-16 0)
(3 -8.65188e-16 0)
(3 -8.55718e-16 0)
(3 -5.81094e-16 0)
(3 -4.96654e-17 0)
(3 -1.37047e-15 0)
(3 4.22192e-16 0)
(3 3.52168e-16 0)
(3 1.44098e-16 0)
(3 1.2964e-16 0)
(3 1.35706e-16 0)
(3 -1.48875e-16 0)
(3 -1.42674e-16 0)
(3 -3.95027e-16 0)
(3 6.90761e-17 0)
(3 2.19366e-16 0)
(3 -6.14007e-16 0)
(3 -7.13045e-16 0)
(3 -2.53334e-16 0)
(3 -6.81495e-16 0)
(3 -2.34439e-16 0)
(3 1.13356e-15 0)
(3 8.19971e-16 0)
(3 9.32155e-16 0)
(3 5.83508e-16 0)
(3 1.20005e-15 0)
(3 -2.47778e-16 0)
(3 1.34635e-16 0)
(3 5.78676e-16 0)
(3 1.22889e-15 0)
(3 1.76691e-15 0)
(3 2.07907e-15 0)
(3 1.748e-15 0)
(3 1.72625e-15 0)
(3 1.02645e-15 0)
(3 1.8048e-16 0)
(3 8.60605e-16 0)
(3 9.80499e-16 0)
(3 8.66907e-16 0)
(3 1.35386e-15 0)
(3 1.47298e-15 0)
(3 1.21589e-15 0)
(3 1.24947e-15 0)
(3 8.23083e-16 0)
(3 5.7244e-16 0)
(3 1.67787e-16 0)
(3 9.50319e-16 0)
(3 4.94787e-16 0)
(3 4.02497e-16 0)
(3 6.49083e-16 0)
(3 6.38615e-16 0)
(3 -2.65041e-16 0)
(3 -8.11357e-16 0)
(3 -7.66916e-16 0)
(3 -2.74435e-16 0)
(3 -6.01193e-17 0)
(3 3.79996e-16 0)
(3 1.00397e-16 0)
(3 -1.00586e-16 0)
(3 -1.05923e-15 0)
(3 -1.24613e-15 0)
(3 -1.21105e-15 0)
(3 -1.29144e-15 0)
(3 -9.95584e-16 0)
(3 -3.72556e-16 0)
(3 -3.30549e-17 0)
(3 3.72618e-16 0)
(3 1.61412e-16 0)
(3 -3.87525e-17 0)
(3 4.49291e-17 0)
(3 -2.38433e-16 0)
(3 2.78654e-16 0)
(3 1.27647e-15 0)
(3 1.63864e-15 0)
(3 1.588e-15 0)
(3 7.72127e-16 0)
(3 -1.12032e-17 0)
(3 -9.52919e-17 0)
(3 6.02162e-17 0)
(3 8.23928e-16 0)
(3 1.05358e-15 0)
(3 1.52185e-15 0)
(3 1.63357e-15 0)
(3 1.64244e-15 0)
(3 1.22784e-15 0)
(3 4.02742e-16 0)
(2.83277 -0.0685098 0)
(2.99131 -0.0111015 0)
(3 4.65036e-09 0)
(3 -2.75731e-13 0)
(3 2.75583e-15 0)
(3 1.87615e-15 0)
(3 -1.00525e-15 0)
(3 -9.46281e-16 0)
(3 -8.66028e-16 0)
(3 -3.95531e-17 0)
(3 -1.18205e-15 0)
(3 -8.10822e-16 0)
(3 5.49642e-16 0)
(3 -8.12727e-16 0)
(3 2.34293e-16 0)
(3 1.0244e-15 0)
(3 9.14181e-16 0)
(3 4.32424e-16 0)
(3 1.20484e-16 0)
(3 -3.14118e-16 0)
(2.63686 -0.259779 0)
(2.90485 -0.123355 0)
(3.00026 0.000309253 0)
(3 -2.3339e-08 0)
(3 2.25363e-11 0)
(3 1.17983e-13 0)
(3 1.45608e-16 0)
(3 -4.92731e-16 0)
(3 -1.55643e-15 0)
(3 -2.37309e-16 0)
(3 -7.45722e-16 0)
(3 -1.52413e-15 0)
(3 6.46982e-16 0)
(3 -2.54504e-16 0)
(3 1.18087e-15 0)
(3 1.43663e-16 0)
(3 1.00294e-15 0)
(3 1.61416e-16 0)
(3 -1.49262e-15 0)
(3 -5.38181e-16 0)
(2.43014 -0.492344 0)
(2.64179 -0.482193 0)
(2.99302 -0.00932341 0)
(3 -1.25889e-08 0)
(3 -5.31007e-12 0)
(3 1.13188e-13 0)
(3 2.7717e-15 0)
(3 -1.43272e-15 0)
(3 -1.41576e-15 0)
(3 -3.15386e-17 0)
(3 -7.18383e-16 0)
(3 -1.71885e-15 0)
(3 1.43557e-15 0)
(3 1.4208e-15 0)
(3 7.5742e-16 0)
(3 -8.32509e-16 0)
(3 9.20009e-16 0)
(3 -2.34052e-16 0)
(3 -1.85581e-15 0)
(3 -6.5306e-16 0)
(2.3341 -0.741839 0)
(2.34435 -0.926715 0)
(2.89809 -0.162722 0)
(3.00019 0.000360526 0)
(3 -1.64943e-09 0)
(3 -1.56369e-11 0)
(3 -2.6925e-15 0)
(3 -1.74983e-15 0)
(3 -1.53853e-15 0)
(3 -3.03113e-16 0)
(3 -5.53273e-16 0)
(3 -7.25052e-16 0)
(3 1.65182e-15 0)
(3 1.44996e-15 0)
(3 -7.74589e-16 0)
(3 -4.99711e-16 0)
(3 8.34164e-16 0)
(3 -5.17709e-16 0)
(3 -2.01722e-15 0)
(3 -4.07638e-16 0)
(2.29085 -0.838264 0)
(2.20304 -1.14015 0)
(2.72591 -0.540622 0)
(2.98516 -0.0294791 0)
(3 -5.2212e-09 0)
(3 2.20578e-11 0)
(3 7.89708e-14 0)
(3 4.79274e-17 0)
(3 -1.45474e-15 0)
(3 -8.81741e-16 0)
(3 -2.27509e-16 0)
(3 4.43715e-16 0)
(3 9.73654e-16 0)
(3 1.32774e-15 0)
(3 -1.95766e-15 0)
(3 -1.54785e-16 0)
(3 1.2658e-15 0)
(3 -6.13391e-16 0)
(3 -9.70092e-16 0)
(3 -1.53734e-16 0)
(2.29284 -0.914624 0)
(2.23182 -1.1051 0)
(2.63052 -0.776078 0)
(2.90003 -0.212018 0)
(2.99991 5.476e-05 0)
(3 5.53455e-07 0)
(3 -2.94806e-10 0)
(3 -1.02972e-12 0)
(3 -8.3924e-16 0)
(3 -6.04823e-16 0)
(3 -8.81593e-17 0)
(3 5.04078e-16 0)
(3 5.43686e-16 0)
(3 1.56182e-15 0)
(3 -2.20277e-15 0)
(3 -2.64348e-17 0)
(3 1.08671e-15 0)
(3 -5.61028e-16 0)
(3 -1.80632e-16 0)
(3 2.87128e-16 0)
(2.35478 -0.945064 0)
(2.30832 -1.03874 0)
(2.55391 -0.895214 0)
(2.78186 -0.479025 0)
(2.99435 -0.0102178 0)
(3 6.12508e-07 0)
(3 3.37248e-09 0)
(3 8.6875e-13 0)
(3 4.22844e-16 0)
(3 -4.37984e-16 0)
(3 2.24217e-17 0)
(3 1.75253e-16 0)
(3 1.00602e-15 0)
(3 9.7003e-16 0)
(3 -1.74403e-15 0)
(3 1.81929e-16 0)
(3 7.12158e-16 0)
(3 -5.81217e-16 0)
(3 4.40075e-16 0)
(3 7.89721e-16 0)
(2.39466 -0.994174 0)
(2.38926 -1.02165 0)
(2.54179 -0.960553 0)
(2.71068 -0.678599 0)
(2.97361 -0.0552701 0)
(2.99999 -5.71854e-06 0)
(3 1.08527e-09 0)
(3 2.3879e-12 0)
(3 8.46209e-16 0)
(3 -2.48458e-16 0)
(3 -3.84576e-16 0)
(3 1.47908e-16 0)
(3 1.56635e-15 0)
(3 2.02526e-16 0)
(3 -7.7016e-16 0)
(3 5.43385e-16 0)
(3 5.58647e-16 0)
(3 -6.09816e-16 0)
(3 4.90032e-16 0)
(3 8.53897e-16 0)
(2.42185 -1.00825 0)
(2.43973 -1.0327 0)
(2.56042 -1.00555 0)
(2.68873 -0.810037 0)
(2.94535 -0.133535 0)
(2.99995 -8.53257e-05 0)
(3 -1.04775e-08 0)
(3 -1.54302e-12 0)
(3 -4.27228e-16 0)
(3 1.04483e-15 0)
(3 -7.03051e-16 0)
(3 -7.0047e-16 0)
(3 8.82918e-16 0)
(3 4.45042e-16 0)
(3 2.1311e-16 0)
(3 -1.94942e-16 0)
(3 4.07239e-16 0)
(3 -4.73997e-16 0)
(3 4.63747e-16 0)
(3 8.81052e-16 0)
(2.44585 -1.0218 0)
(2.47701 -1.04874 0)
(2.58585 -1.04061 0)
(2.68609 -0.898986 0)
(2.92472 -0.213204 0)
(2.99985 -0.000356771 0)
(3 -5.03484e-08 0)
(3 -1.08885e-11 0)
(3 -2.24268e-15 0)
(3 1.20764e-15 0)
(3 -1.31123e-15 0)
(3 -2.50949e-16 0)
(3 4.57363e-16 0)
(3 5.64161e-16 0)
(3 2.62633e-16 0)
(3 -8.07028e-16 0)
(3 1.58955e-16 0)
(3 -4.5971e-17 0)
(3 4.57285e-16 0)
(3 7.20205e-16 0)
(2.46891 -1.03494 0)
(2.5048 -1.05892 0)
(2.6063 -1.06634 0)
(2.68961 -0.953868 0)
(2.91273 -0.273119 0)
(2.99969 -0.000770915 0)
(3 -9.63593e-08 0)
(3 -1.62222e-11 0)
(3 -1.67245e-15 0)
(3 3.46489e-16 0)
(3 -6.80671e-16 0)
(3 2.15556e-16 0)
(3 4.34831e-16 0)
(3 1.96356e-16 0)
(3 -5.59217e-17 0)
(3 -1.46364e-15 0)
(3 4.40275e-16 0)
(3 2.06969e-16 0)
(3 5.64002e-16 0)
(3 7.58253e-16 0)
(2.48216 -1.03552 0)
(2.52216 -1.05847 0)
(2.61821 -1.07627 0)
(2.68806 -0.984693 0)
(2.90213 -0.318825 0)
(2.9995 -0.00142571 0)
(3 -2.25961e-07 0)
(3 -4.79388e-11 0)
(3 -1.27967e-14 0)
(3 7.1522e-16 0)
(3 -5.74095e-16 0)
(3 1.23607e-17 0)
(3 6.23742e-16 0)
(3 -3.30016e-16 0)
(3 9.07619e-17 0)
(3 -1.00587e-15 0)
(3 9.73997e-17 0)
(3 2.81451e-17 0)
(3 9.44373e-16 0)
(3 8.1185e-16 0)
(2.48945 -1.03178 0)
(2.53277 -1.05274 0)
(2.61962 -1.07889 0)
(2.67957 -1.0034 0)
(2.88998 -0.356155 0)
(2.99918 -0.00196975 0)
(3 -2.00446e-07 0)
(3 -2.11999e-11 0)
(3 -2.51374e-15 0)
(3 3.42814e-16 0)
(3 5.28742e-16 0)
(3 -4.7465e-16 0)
(3 3.10591e-16 0)
(3 -3.1816e-17 0)
(3 4.14269e-16 0)
(3 -9.20342e-16 0)
(3 2.34032e-16 0)
(3 -3.51776e-16 0)
(3 7.07285e-16 0)
(3 7.67297e-16 0)
(2.49294 -1.0284 0)
(2.53879 -1.04643 0)
(2.61995 -1.07813 0)
(2.66517 -1.02556 0)
(2.86821 -0.421289 0)
(2.99826 -0.00483394 0)
(3 -9.36341e-07 0)
(3 -2.10048e-10 0)
(3 -5.66853e-14 0)
(3 5.27843e-16 0)
(3 9.35463e-16 0)
(3 -1.72409e-16 0)
(3 1.58733e-16 0)
(3 -3.0438e-16 0)
(3 8.84576e-16 0)
(3 -8.96493e-16 0)
(3 1.4324e-16 0)
(3 -5.06741e-16 0)
(3 1.40106e-16 0)
(3 7.204e-16 0)
(2.51358 -1.03331 0)
(2.55211 -1.05687 0)
(2.60691 -1.07986 0)
(2.66895 -0.972337 0)
(2.92645 -0.228734 0)
(3.00248 0.0201681 0)
(3.00002 7.87163e-05 0)
(3 1.58682e-08 0)
(3 3.04232e-12 0)
(3 1.05951e-15 0)
(3 3.26094e-16 0)
(3 -1.46445e-16 0)
(3 -5.48682e-16 0)
(3 3.25675e-16 0)
(3 1.59686e-15 0)
(3 -9.84351e-16 0)
(3 -3.67215e-17 0)
(3 -2.52475e-16 0)
(3 -3.12665e-16 0)
(3 2.66899e-16 0)
(2.29173 -0.895494 0)
(2.78077 -0.837926 0)
(2.70034 -0.989076 0)
(2.71274 -1.00611 0)
(2.70438 -0.848537 0)
(2.8928 -0.321471 0)
(2.99239 -0.0341763 0)
(2.99988 -0.000941564 0)
(3 -1.202e-05 0)
(3 -1.1157e-07 0)
(3 -8.45487e-10 0)
(3 3.83095e-12 0)
(3 4.51011e-12 0)
(3 3.21924e-13 0)
(3 5.74136e-15 0)
(3 -8.48107e-16 0)
(3 -7.89331e-17 0)
(3 -3.59874e-16 0)
(3 -4.23175e-16 0)
(3 1.76348e-16 0)
(1.96497 -0.614681 0)
(2.83095 -0.31123 0)
(2.90057 -0.650709 0)
(2.80378 -0.926005 0)
(2.8224 -0.900594 0)
(2.80573 -0.698853 0)
(2.93348 -0.233021 0)
(2.99601 -0.019052 0)
(2.99995 -0.000410082 0)
(3 -4.2738e-06 0)
(3 -3.13625e-08 0)
(3 1.21442e-10 0)
(3 1.65617e-10 0)
(3 1.26907e-11 0)
(3 1.55129e-13 0)
(3 9.70196e-16 0)
(3 -2.60988e-17 0)
(3 -8.13856e-16 0)
(3 -5.16531e-16 0)
(3 1.96299e-16 0)
(1.18869 -0.631036 0)
(2.60879 -0.243762 0)
(3.0724 -0.143212 0)
(2.96755 -0.693989 0)
(2.90132 -0.820475 0)
(2.92325 -0.729978 0)
(2.91651 -0.468672 0)
(2.98152 -0.0987135 0)
(2.99946 -0.00437906 0)
(3 -5.43001e-05 0)
(3 -3.65545e-07 0)
(3 2.42522e-09 0)
(3 2.41395e-09 0)
(3 1.87039e-10 0)
(3 2.27049e-12 0)
(3 1.25897e-14 0)
(3 -1.50077e-16 0)
(3 -1.98249e-15 0)
(3 -4.47632e-16 0)
(3 2.45277e-16 0)
(2.14994 -0.0624963 0)
(2.71156 0.341112 0)
(3.20229 0.3609 0)
(3.13403 -0.337463 0)
(3.01971 -0.664077 0)
(2.982 -0.651178 0)
(3.00238 -0.503296 0)
(2.99062 -0.211774 0)
(2.999 -0.0186858 0)
(3 -0.000297951 0)
(3 -1.82036e-06 0)
(3 3.52454e-08 0)
(3 2.19194e-08 0)
(3 1.63246e-09 0)
(3 1.8131e-11 0)
(3 7.31403e-14 0)
(3 6.50134e-17 0)
(3 -2.09077e-15 0)
(3 1.60207e-16 0)
(3 4.25713e-16 0)
(2.47944 0.473949 0)
(2.71986 1.08231 0)
(3.12287 0.470466 0)
(3.21582 0.0125371 0)
(3.12838 -0.444213 0)
(3.07414 -0.524106 0)
(3.05734 -0.44852 0)
(3.0226 -0.24097 0)
(3.00136 -0.0351063 0)
(3.00003 -0.000780101 0)
(3 -4.79218e-06 0)
(3 2.78434e-07 0)
(3 1.24907e-07 0)
(3 8.42982e-09 0)
(3 7.3915e-11 0)
(3 2.15858e-13 0)
(3 3.31676e-16 0)
(3 -1.39883e-15 0)
(3 -5.50282e-17 0)
(3 3.39188e-16 0)
(2.72316 0.898207 0)
(2.92885 1.30905 0)
(3.22945 0.907514 0)
(3.22469 0.278781 0)
(3.22596 -0.182455 0)
(3.1712 -0.370918 0)
(3.11606 -0.346134 0)
(3.04438 -0.212926 0)
(3.00367 -0.0382079 0)
(3.0001 -0.00109384 0)
(3 -5.59458e-06 0)
(3 1.3133e-06 0)
(3 4.47726e-07 0)
(3 1.83835e-08 0)
(3 9.01104e-11 0)
(3 1.99869e-13 0)
(3 1.41189e-16 0)
(3 -8.35241e-16 0)
(3 1.9222e-16 0)
(3 3.58207e-16 0)
(2.88194 1.11331 0)
(2.99483 1.44832 0)
(3.23598 0.876521 0)
(3.31217 0.564423 0)
(3.31755 0.0912657 0)
(3.22651 -0.199351 0)
(3.15183 -0.22031 0)
(3.06305 -0.151836 0)
(3.0054 -0.0318848 0)
(3.00015 -0.00104381 0)
(3.00001 1.43699e-06 0)
(3 4.1693e-06 0)
(3 7.27748e-07 0)
(3 1.19373e-08 0)
(3 3.49814e-11 0)
(3 6.10062e-14 0)
(3 -1.25832e-15 0)
(3 -8.41101e-16 0)
(3 7.82057e-16 0)
(3 3.5379e-16 0)
(3.04634 1.15181 0)
(3.0791 1.33905 0)
(3.22556 0.78849 0)
(3.35173 0.726868 0)
(3.31763 0.287124 0)
(3.23566 -0.0199202 0)
(3.14054 -0.0983129 0)
(3.06522 -0.0762911 0)
(3.00723 -0.0167672 0)
(3.00018 -0.000466999 0)
(3 2.2077e-05 0)
(3 7.22465e-06 0)
(3 3.65755e-07 0)
(3 2.19768e-09 0)
(3 4.32151e-12 0)
(3 5.38626e-15 0)
(3 -2.28412e-15 0)
(3 -6.88822e-16 0)
(3 1.5217e-15 0)
(3 4.47923e-16 0)
(3.09656 0.998564 0)
(3.09365 1.05826 0)
(3.15351 0.761805 0)
(3.19794 0.773836 0)
(3.2386 0.400762 0)
(3.19525 0.139078 0)
(3.10349 0.0136031 0)
(3.04016 -0.0064096 0)
(3.00336 -0.00121883 0)
(2.99998 0.000214942 0)
(2.99998 3.94591e-05 0)
(3 2.83139e-06 0)
(3 4.16419e-08 0)
(3 1.07396e-10 0)
(3 1.47473e-13 0)
(3 -6.78757e-16 0)
(3 -1.74748e-15 0)
(3 4.82521e-16 0)
(3 1.81603e-15 0)
(3 3.33635e-16 0)
(3.03636 0.908205 0)
(3.03209 0.925789 0)
(2.99726 0.761201 0)
(3.07837 0.769069 0)
(3.11139 0.46257 0)
(3.0981 0.269217 0)
(3.03795 0.12197 0)
(3.00342 0.0401374 0)
(2.99907 0.00577486 0)
(2.99989 0.00027602 0)
(2.99999 1.15505e-05 0)
(3 2.25535e-07 0)
(3 9.16874e-10 0)
(3 1.46124e-12 0)
(3 2.91554e-15 0)
(3 -1.11282e-15 0)
(3 -1.1585e-15 0)
(3 1.13551e-15 0)
(3 1.42685e-15 0)
(3 -1.79525e-17 0)
(3.00976 0.891484 0)
(2.99597 0.898389 0)
(2.91644 0.76679 0)
(2.89398 0.759419 0)
(2.94414 0.519994 0)
(2.96784 0.369386 0)
(2.96948 0.188277 0)
(2.98702 0.0551679 0)
(2.99843 0.00605916 0)
(2.99993 0.000201743 0)
(3 2.46519e-06 0)
(3 1.49539e-08 0)
(3 6.33094e-11 0)
(3 2.38216e-13 0)
(3 2.80722e-15 0)
(3 -2.20923e-17 0)
(3 -9.72445e-16 0)
(3 1.46457e-15 0)
(3 1.04754e-15 0)
(3 -1.84296e-16 0)
(2.93967 0.856213 0)
(2.90145 0.855804 0)
(2.79429 0.766958 0)
(2.76289 0.781245 0)
(2.83596 0.560571 0)
(2.90186 0.403299 0)
(2.95013 0.198455 0)
(2.98571 0.0549384 0)
(2.99842 0.00559915 0)
(2.99996 0.000151203 0)
(3 1.41849e-06 0)
(3 8.17638e-09 0)
(3 3.71472e-11 0)
(3 1.36801e-13 0)
(3 2.76152e-15 0)
(3 7.93736e-16 0)
(3 -1.07081e-15 0)
(3 1.26566e-15 0)
(3 8.54081e-16 0)
(3 -1.63059e-16 0)
(2.88559 0.857286 0)
(2.84711 0.852888 0)
(2.74651 0.774332 0)
(2.73453 0.791834 0)
(2.81922 0.563898 0)
(2.89541 0.402803 0)
(2.94833 0.196648 0)
(2.98517 0.0526409 0)
(2.99856 0.00498024 0)
(2.99997 0.000125417 0)
(3 1.18398e-06 0)
(3 7.26398e-09 0)
(3 3.54831e-11 0)