/*--------------------------------*- C++ -*----------------------------------*\
  =========                 |
  \\      /  F ield         | OpenFOAM: The Open Source CFD Toolbox
   \\    /   O peration     | Website:  https://openfoam.org
    \\  /    A nd           | Version:  7
     \\/     M anipulation  |
\*---------------------------------------------------------------------------*/
FoamFile
{
    version     2.0;
    format      ascii;
    class       volScalarField;
    location    "3.5";
    object      rho;
}
// * * * * * * * * * * * * * * * * * * * * * * * * * * * * * * * * * * * * * //

dimensions      [1 -3 0 0 0 0 0];

internalField   nonuniform List<scalar> 
60000
(
0.107624
0.149807
0.181736
0.210254
0.245947
0.280731
0.315094
0.352497
0.393313
0.433559
0.465801
0.492251
0.517797
0.536756
0.545147
0.545204
0.541735
0.531021
0.528985
0.523851
0.517942
0.520155
0.527613
0.539452
0.555899
0.575713
0.595284
0.611136
0.623822
0.634966
0.645077
0.655133
0.664514
0.673682
0.683892
0.696156
0.709078
0.720721
0.73051
0.736422
0.740811
0.743904
0.746599
0.746891
0.747959
0.749151
0.749207
0.747793
0.744113
0.743722
0.745724
0.750074
0.755029
0.759144
0.763381
0.767724
0.772234
0.775315
0.778187
0.779204
0.778137
0.774808
0.770235
0.769859
0.771735
0.777668
0.783736
0.788429
0.790648
0.791942
0.790878
0.789021
0.788145
0.789402
0.793745
0.800531
0.809076
0.820522
0.834369
0.846496
0.853938
0.864987
0.884154
0.919565
0.95021
0.980988
1.00234
1.01253
0.999584
0.942862
0.911748
0.912938
1.02996
1.11367
1.11974
1.06548
0.959137
0.883472
0.834267
0.823932
0.069399
0.0694378
0.0694743
0.0695282
0.0695685
0.0704551
0.0734008
0.080448
0.0919924
0.10929
0.134441
0.170022
0.214689
0.268797
0.323632
0.37689
0.419975
0.454039
0.478015
0.489168
0.488124
0.487138
0.476901
0.471199
0.467724
0.468938
0.471365
0.480522
0.497872
0.519789
0.53934
0.554242
0.565935
0.57636
0.586026
0.593177
0.600468
0.608779
0.617994
0.627178
0.638016
0.647715
0.655572
0.662401
0.669648
0.677981
0.687588
0.696874
0.705338
0.713667
0.722774
0.733459
0.744924
0.754176
0.760456
0.764544
0.767158
0.766723
0.765384
0.763273
0.761924
0.762319
0.764095
0.768195
0.77446
0.782281
0.786963
0.790694
0.791523
0.789818
0.786441
0.785697
0.787281
0.792084
0.79731
0.804236
0.812715
0.827204
0.839163
0.850328
0.855902
0.867201
0.890137
0.928099
0.953248
0.983072
1.0008
0.99136
0.970132
0.893859
0.876682
0.87918
1.00862
1.10304
1.11076
1.05588
0.951397
0.878427
0.83344
0.824411
0.069881
0.0699604
0.0700488
0.0701488
0.0702553
0.0703696
0.0704404
0.0705154
0.0706076
0.0707056
0.0708431
0.0709674
0.0717979
0.0765839
0.08834
0.11125
0.147133
0.199008
0.259956
0.321133
0.375885
0.412014
0.435561
0.443453
0.439789
0.431801
0.421282
0.419829
0.419111
0.423513
0.430433
0.440936
0.457676
0.475659
0.489507
0.497109
0.504099
0.510302
0.5165
0.524934
0.537644
0.550256
0.560791
0.571273
0.582758
0.595481
0.60784
0.619691
0.630707
0.641391
0.651843
0.661544
0.670511
0.678961
0.685886
0.692234
0.6989
0.706106
0.714334
0.723523
0.733357
0.743553
0.754374
0.765345
0.773692
0.779785
0.780588
0.778857
0.775092
0.773135
0.77501
0.779691
0.787178
0.794135
0.798754
0.805783
0.814667
0.830924
0.841258
0.851587
0.856396
0.867405
0.893522
0.930637
0.952423
0.97414
0.970214
0.958712
0.914558
0.824373
0.811726
0.823499
0.969585
1.08295
1.09617
1.04447
0.943881
0.872583
0.832301
0.82517
0.0704833
0.0705828
0.0706992
0.0708176
0.070958
0.0711001
0.0712594
0.0714312
0.0716299
0.0718349
0.0720743
0.0723072
0.0725915
0.0727362
0.0728971
0.0730755
0.0733142
0.0735039
0.0780615
0.0928992
0.122521
0.169118
0.232726
0.300214
0.354505
0.391828
0.425049
0.426361
0.420737
0.405425
0.396495
0.391215
0.391487
0.392233
0.39398
0.402958
0.417377
0.430683
0.441693
0.450013
0.454081
0.453575
0.455461
0.462239
0.472255
0.483479
0.493695
0.50374
0.515031
0.527183
0.540547
0.553234
0.565439
0.578031
0.59141
0.605582
0.619324
0.632928
0.64646
0.659551
0.672135
0.683694
0.694648
0.703294
0.711484
0.717208
0.724814
0.731957
0.739293
0.748148
0.757875
0.767877
0.774783
0.777892
0.783593
0.796572
0.811365
0.828822
0.834221
0.839148
0.843744
0.856916
0.892262
0.912727
0.918733
0.929612
0.924523
0.895678
0.827711
0.743185
0.726864
0.751162
0.912748
1.05219
1.07504
1.03082
0.93638
0.866936
0.831349
0.826697
0.071359
0.0714908
0.0716314
0.0717823
0.0719441
0.0721175
0.0723001
0.0724937
0.072704
0.0729225
0.0731551
0.0733833
0.0736396
0.0738957
0.0741777
0.0744402
0.0747313
0.0750396
0.0752148
0.075365
0.075604
0.0757893
0.077789
0.0899881
0.118811
0.166746
0.245111
0.309794
0.359338
0.379986
0.394464
0.392441
0.379709
0.371476
0.365274
0.369545
0.375608
0.383366
0.397148
0.409404
0.412717
0.411319
0.413348
0.416841
0.419964
0.42456
0.431741
0.441114
0.449266
0.45533
0.458995
0.463563
0.470857
0.481705
0.495316
0.508411
0.520595
0.532018
0.544623
0.55659
0.568713
0.582413
0.596654
0.610038
0.622688
0.635586
0.650413
0.6665
0.681157
0.693012
0.702583
0.710272
0.719758
0.734047
0.751086
0.768642
0.780175
0.784942
0.791063
0.80225
0.814
0.830527
0.851995
0.860647
0.866294
0.860542
0.840716
0.804358
0.741505
0.682999
0.66518
0.687715
0.846837
1.01028
1.04691
1.0133
0.927562
0.861941
0.830773
0.82978
0.0723884
0.0725447
0.0727063
0.0728771
0.0730483
0.0732298
0.0734146
0.073618
0.073835
0.0740793
0.0743197
0.0745678
0.074812
0.0750758
0.0753406
0.075599
0.0758547
0.0761084
0.076406
0.0767211
0.0770703
0.0774151
0.0777449
0.0779457
0.078214
0.0784188
0.0809999
0.0965373
0.130235
0.186427
0.247284
0.304065
0.332921
0.350687
0.370438
0.376022
0.377606
0.382541
0.385426
0.389665
0.391581
0.394138
0.398844
0.39987
0.398187
0.398548
0.400958
0.408963
0.416899
0.423927
0.428113
0.429711
0.431501
0.435349
0.441973
0.448854
0.45428
0.459752
0.46563
0.474926
0.485666
0.497362
0.510841
0.523277
0.533235
0.541512
0.551639
0.566036
0.580793
0.595368
0.607298
0.621182
0.641118
0.661344
0.678181
0.687111
0.696262
0.705149
0.715228
0.727953
0.738489
0.751915
0.773781
0.779595
0.774877
0.764731
0.743577
0.718296
0.674938
0.643999
0.633765
0.651426
0.79119
0.966843
1.01505
0.991767
0.916784
0.855881
0.830624
0.833301
0.0736723
0.0738441
0.0740295
0.0742158
0.0744005
0.0745869
0.0747771
0.0749765
0.0752047
0.0754549
0.0757151
0.0759848
0.076245
0.0765204
0.076779
0.0770498
0.077304
0.0775893
0.0778735
0.0781954
0.0784979
0.07883
0.0791565
0.0795042
0.0798758
0.0802463
0.0805848
0.080784
0.0810598
0.08126
0.0849805
0.101623
0.134558
0.177317
0.23434
0.284429
0.314123
0.345044
0.359715
0.374813
0.385618
0.397214
0.406788
0.402328
0.397966
0.399789
0.404415
0.404873
0.405139
0.407681
0.41191
0.414899
0.417659
0.418286
0.421063
0.42582
0.431242
0.43592
0.439218
0.441659
0.447133
0.452103
0.455107
0.459376
0.466072
0.474061
0.481341
0.489832
0.502031
0.517243
0.531905
0.544444
0.556556
0.571772
0.586297
0.593553
0.60221
0.613893
0.626944
0.642359
0.651995
0.66799
0.680294
0.684982
0.683906
0.675333
0.662626
0.657702
0.639495
0.63672
0.632663
0.640423
0.74904
0.925428
0.979356
0.965292
0.903703
0.848585
0.829872
0.836158
0.0752179
0.0754065
0.0756036
0.0757998
0.0760025
0.0762027
0.0764164
0.0766343
0.0768825
0.0771433
0.0774142
0.0776807
0.0779558
0.0782161
0.0784789
0.0787362
0.0789938
0.07926
0.0795386
0.0798236
0.0801002
0.0803848
0.0806478
0.0809446
0.0812242
0.0815251
0.081789
0.0820354
0.0823134
0.0825703
0.0827228
0.0828628
0.0830622
0.0831783
0.0846635
0.0963857
0.120544
0.158835
0.209398
0.26115
0.310043
0.346857
0.372859
0.391654
0.402043
0.408479
0.415711
0.410552
0.407865
0.408093
0.412677
0.41782
0.420744
0.419421
0.416698
0.41756
0.420212
0.42396
0.427897
0.430512
0.432885
0.437223
0.439921
0.440742
0.44224
0.445463
0.450875
0.45547
0.455552
0.45926
0.47
0.487536
0.502651
0.508547
0.516834
0.526975
0.535752
0.540904
0.551006
0.568108
0.578677
0.591785
0.605199
0.612036
0.614999
0.615028
0.618083
0.621147
0.628479
0.642041
0.645266
0.644919
0.727095
0.888678
0.944253
0.937624
0.889728
0.8416
0.828622
0.838721
0.0772889
0.0774677
0.0776495
0.07784
0.0780398
0.0782467
0.0784543
0.0786673
0.0788973
0.0791464
0.0793944
0.079632
0.0798645
0.0800841
0.0803023
0.0805131
0.0807288
0.0809358
0.0811526
0.0813634
0.0815839
0.0817757
0.0819752
0.0821677
0.0823652
0.082566
0.0827502
0.0829566
0.0831484
0.0833548
0.083578
0.0838167
0.0840299
0.0842653
0.0845483
0.0847543
0.084947
0.0852384
0.0854972
0.0898757
0.107512
0.140475
0.191219
0.25614
0.315722
0.36157
0.387517
0.401751
0.413793
0.414986
0.420504
0.425667
0.424065
0.421011
0.420633
0.423276
0.424211
0.426738
0.430244
0.433322
0.434153
0.432652
0.433255
0.433929
0.434657
0.435817
0.43784
0.442644
0.446249
0.448509
0.45363
0.462666
0.474997
0.48426
0.485743
0.488286
0.497743
0.505183
0.512074
0.521755
0.535435
0.55249
0.567828
0.575435
0.578069
0.580265
0.58968
0.602908
0.627162
0.658648
0.665594
0.654887
0.717658
0.853256
0.907422
0.911062
0.876881
0.83593
0.82769
0.841086
0.0793475
0.0795059
0.0796729
0.0798395
0.0800071
0.0801766
0.0803452
0.0805192
0.0806986
0.080891
0.081079
0.0812611
0.0814326
0.0816012
0.0817654
0.0819304
0.0820818
0.0822356
0.0823917
0.0825468
0.0826972
0.0828418
0.0829837
0.0831192
0.0832694
0.0834218
0.0835946
0.0837641
0.0839637
0.084184
0.0844302
0.0846934
0.0849517
0.0852599
0.085564
0.0859193
0.0863096
0.0867342
0.0871517
0.087381
0.0876196
0.0879526
0.0881434
0.0903067
0.105013
0.140053
0.193152
0.261967
0.324657
0.371076
0.397994
0.41561
0.426382
0.429371
0.432941
0.436594
0.434221
0.433084
0.433641
0.435923
0.435603
0.433616
0.434394
0.436125
0.437505
0.43831
0.438098
0.437707
0.440471
0.444981
0.451297
0.458088
0.464136
0.471783
0.477077
0.479451
0.483227
0.49047
0.500932
0.511005
0.517941
0.530977
0.545609
0.555156
0.561278
0.568309
0.581161
0.596406
0.626362
0.671507
0.681607
0.669239
0.722273
0.826816
0.875094
0.889406
0.863931
0.83088
0.826752
0.842895
0.0811443
0.0812599
0.0813842
0.0815099
0.0816365
0.0817659
0.0819029
0.0820424
0.0821825
0.0823207
0.0824562
0.0825898
0.0827205
0.0828485
0.082979
0.0831124
0.0832402
0.0833646
0.0834908
0.083624
0.0837527
0.0838819
0.0840061
0.0841369
0.0842647
0.08442
0.0845914
0.0848064
0.0850456
0.0853189
0.08562
0.0859247
0.0862351
0.0865343
0.086858
0.0872121
0.087573
0.0879134
0.0881995
0.0884969
0.0888256
0.0890831
0.0893122
0.089426
0.0895913
0.0898295
0.0899471
0.0921792
0.107115
0.145468
0.200492
0.272294
0.337777
0.390519
0.415621
0.437501
0.443299
0.445906
0.447388
0.448322
0.448304
0.444191
0.444623
0.444514
0.443104
0.441322
0.439911
0.44086
0.445248
0.45222
0.459178
0.463734
0.465986
0.468804
0.473065
0.477319
0.480978
0.486338
0.496032
0.506882
0.517781
0.531559
0.543313
0.550991
0.557812
0.567055
0.578564
0.592405
0.631069
0.677163
0.692204
0.684211
0.725807
0.802043
0.847745
0.869003
0.850166
0.826658
0.825836
0.845616
0.0825371
0.0826396
0.0827464
0.0828521
0.082957
0.0830611
0.083169
0.0832783
0.0833849
0.0834981
0.0836134
0.0837277
0.0838403
0.0839481
0.0840608
0.0841787
0.0843011
0.0844223
0.0845464
0.0846725
0.0848117
0.0849481
0.0850932
0.0852322
0.0853872
0.0855585
0.0857618
0.086006
0.0862945
0.0866049
0.0869308
0.0872495
0.0875368
0.0878213
0.08811
0.0884132
0.088709
0.0889585
0.0891703
0.0894117
0.0896222
0.0897805
0.0899218
0.0900457
0.0902274
0.0904143
0.0906073
0.0906597
0.0907056
0.0908668
0.0910892
0.0942002
0.1131
0.157796
0.223115
0.303008
0.3677
0.412508
0.439637
0.44842
0.460381
0.45821
0.460298
0.459259
0.454216
0.451117
0.4508
0.452111
0.456894
0.463335
0.467828
0.469547
0.46887
0.471397
0.476525
0.481578
0.485743
0.491948
0.501181
0.509493
0.519764
0.533461
0.544261
0.551309
0.557924
0.567299
0.577476
0.593321
0.633565
0.671214
0.691212
0.699315
0.735646
0.788549
0.828931
0.851949
0.8352
0.8264
0.829219
0.851145
0.084018
0.0840818
0.0841516
0.0842264
0.0843062
0.0843927
0.0844787
0.084562
0.0846404
0.0847264
0.0848187
0.0849138
0.0850126
0.0851152
0.085221
0.0853348
0.0854476
0.0855735
0.0857078
0.085864
0.0860255
0.0861905
0.0863524
0.0865093
0.0866802
0.0868868
0.0871212
0.0873941
0.0876896
0.0880001
0.0883237
0.0886207
0.0888904
0.0891112
0.0893405
0.0895703
0.0897771
0.0899378
0.0900927
0.0902294
0.0903564
0.0904531
0.0905163
0.0906016
0.0907344
0.0908972
0.091134
0.091423
0.0918209
0.0923783
0.0932144
0.0943238
0.0950645
0.0958667
0.0963056
0.101444
0.128611
0.179366
0.258284
0.33138
0.399552
0.43779
0.456019
0.467643
0.465827
0.467349
0.47112
0.470475
0.473962
0.478612
0.478124
0.479698
0.481477
0.486562
0.488319
0.490372
0.494421
0.501354
0.508352
0.51405
0.52381
0.538836
0.547907
0.553865
0.561236
0.571763
0.581055
0.596056
0.628673
0.654811
0.677738
0.702875
0.730544
0.76939
0.808535
0.834979
0.835255
0.832238
0.839907
0.862684
0.0852365
0.0852897
0.0853459
0.085409
0.0854829
0.0855598
0.085636
0.0857111
0.0857834
0.0858645
0.0859569
0.0860458
0.086144
0.0862523
0.0863707
0.0864916
0.0866189
0.0867623
0.0869316
0.0871251
0.0873293
0.087526
0.087702
0.0878629
0.0880413
0.0882495
0.0884798
0.0887508
0.0890255
0.0893037
0.089565
0.0898295
0.0900363
0.0902019
0.0903551
0.0904993
0.090614
0.090709
0.0908042
0.0908845
0.0909503
0.090994
0.0910466
0.091142
0.0913376
0.0917484
0.0923322
0.0930984
0.0939747
0.0948874
0.0959499
0.0968659
0.0978437
0.0985921
0.0989018
0.0988826
0.0989781
0.0992546
0.0993202
0.110219
0.143821
0.212219
0.292392
0.376285
0.425241
0.459666
0.477346
0.483026
0.490963
0.500929
0.496257
0.498808
0.500239
0.502326
0.5005
0.504133
0.514038
0.523616
0.528055
0.533689
0.544083
0.554549
0.558152
0.562129
0.56952
0.580068
0.587678
0.603265
0.623934
0.643153
0.660782
0.694104
0.729889
0.764931
0.804142
0.835992
0.840175
0.848475
0.860705
0.88301
0.0864968
0.0865608
0.0866283
0.0867015
0.0867848
0.0868726
0.086958
0.0870513
0.0871431
0.0872376
0.0873443
0.0874477
0.0875591
0.0876885
0.0878236
0.0879647
0.0881135
0.0882802
0.0884699
0.088659
0.088856
0.0890469
0.0892026
0.0893364
0.0894823
0.0896373
0.0898108
0.0900113
0.0902427
0.0904522
0.0906499
0.0908349
0.0909813
0.0910886
0.0911829
0.0912682
0.0913399
0.0914332
0.0915426
0.0916503
0.0917596
0.0919011
0.0921212
0.0925107
0.0931471
0.0940176
0.0950868
0.0961963
0.0971665
0.0980387
0.098763
0.0994053
0.0999308
0.100103
0.0999
0.0996811
0.0996611
0.0997792
0.0997725
0.0993549
0.0985971
0.0984114
0.100408
0.124619
0.183313
0.266171
0.359457
0.425622
0.466337
0.498175
0.509084
0.521867
0.528679
0.528321
0.525981
0.535358
0.54528
0.546229
0.548322
0.555991
0.56889
0.577296
0.580022
0.584286
0.591003
0.59836
0.603471
0.61454
0.630095
0.64214
0.648905
0.675421
0.710927
0.744477
0.784523
0.824577
0.847321
0.870784
0.889144
0.912952
0.0879787
0.0880634
0.0881561
0.0882615
0.0883876
0.0885177
0.0886294
0.0887392
0.0888534
0.088974
0.0891032
0.0892132
0.0893257
0.0894507
0.0895657
0.0896875
0.0898127
0.0899543
0.0900925
0.0902026
0.0903147
0.0904259
0.0905094
0.0905835
0.0906533
0.0907249
0.0908176
0.0909403
0.0910909
0.0912378
0.091372
0.0915094
0.091643
0.0917498
0.0918762
0.0920257
0.0922192
0.092496
0.0928553
0.0932723
0.0937329
0.0943074
0.0950152
0.095844
0.0967513
0.0976816
0.0985574
0.0992983
0.0999262
0.100431
0.100743
0.100908
0.100901
0.100742
0.100218
0.0997228
0.099601
0.0996914
0.099674
0.0993044
0.0989753
0.0994382
0.101586
0.104876
0.109289
0.111686
0.127697
0.171779
0.238377
0.332949
0.415034
0.473425
0.505591
0.529402
0.551744
0.578435
0.589294
0.579273
0.58058
0.59185
0.601936
0.602576
0.609842
0.623148
0.632281
0.638116
0.644267
0.645096
0.647461
0.653918
0.65711
0.66822
0.692861
0.722307
0.76127
0.800752
0.848591
0.894623
0.922562
0.950104
0.089751
0.0898394
0.0899587
0.0901091
0.090262
0.0903796
0.0904755
0.0905698
0.0906724
0.0907965
0.0909025
0.090967
0.0910296
0.0911032
0.0911762
0.091244
0.0913156
0.0914054
0.0914609
0.091483
0.0915025
0.091542
0.0915794
0.0915928
0.091597
0.091615
0.0916706
0.0917774
0.0919085
0.0920368
0.0921687
0.0923457
0.092599
0.092909
0.0933397
0.0939338
0.0946209
0.0954088
0.0962652
0.097066
0.0978031
0.098528
0.0992511
0.0998667
0.100373
0.100775
0.101097
0.101266
0.101469
0.101651
0.1016
0.101377
0.101145
0.100678
0.0999363
0.0995877
0.0995797
0.0997523
0.100072
0.100999
0.103384
0.107468
0.112146
0.117047
0.120348
0.122472
0.12306
0.123891
0.124002
0.124278
0.146333
0.196439
0.283404
0.38709
0.478954
0.536073
0.570757
0.599262
0.621194
0.644548
0.647569
0.641028
0.65666
0.672629
0.675343
0.679435
0.692525
0.694581
0.689
0.681531
0.67564
0.67574
0.686983
0.707615
0.73351
0.770113
0.83911
0.910146
0.957522
0.992768
0.0916587
0.0917367
0.0918205
0.091905
0.0919783
0.0920476
0.0921191
0.0922052
0.0923047
0.0923768
0.0924255
0.0924689
0.0924981
0.092526
0.092583
0.0926202
0.0926448
0.0926768
0.0927149
0.0927465
0.0927728
0.0928316
0.0929275
0.0929425
0.0929618
0.0930349
0.0932149
0.0934998
0.0938571
0.0942693
0.0947314
0.0953287
0.0960451
0.0967451
0.0975133
0.0983341
0.0991348
0.0999081
0.100583
0.101092
0.101442
0.101705
0.101949
0.10208
0.102139
0.102125
0.102016
0.101766
0.101699
0.101661
0.101417
0.101097
0.100907
0.100562
0.0999956
0.100077
0.100763
0.102742
0.106459
0.111244
0.116013
0.119792
0.122795
0.125002
0.126434
0.126897
0.126929
0.127242
0.127004
0.12689
0.127825
0.130451
0.134928
0.146192
0.185461
0.251998
0.352898
0.470281
0.557166
0.601865
0.642258
0.675914
0.716087
0.746308
0.732496
0.736735
0.748574
0.742565
0.736205
0.729488
0.713763
0.698859
0.699101
0.708107
0.719932
0.747981
0.82046
0.907451
0.981149
1.03398
0.0937395
0.0937825
0.0938247
0.0938595
0.0938989
0.0939459
0.0939917
0.0940423
0.094102
0.0941679
0.0942354
0.0943048
0.0943766
0.0944552
0.0945574
0.0946813
0.094829
0.0949856
0.0951706
0.0953759
0.0955917
0.0958298
0.0960919
0.0964026
0.0967266
0.0970413
0.0973852
0.0978027
0.0983268
0.0988796
0.0993888
0.0999584
0.100494
0.100898
0.101324
0.101776
0.102251
0.102632
0.102864
0.102996
0.103026
0.102997
0.102892
0.102737
0.102563
0.102392
0.102046
0.101508
0.101411
0.101489
0.101338
0.101393
0.101799
0.102764
0.104902
0.108191
0.112474
0.11725
0.121484
0.124794
0.127101
0.128314
0.128889
0.129417
0.129823
0.129317
0.12887
0.128918
0.129566
0.132617
0.138677
0.146126
0.154187
0.160041
0.16133
0.161991
0.162671
0.178073
0.228981
0.312746
0.442067
0.569931
0.6526
0.716361
0.760961
0.792461
0.819525
0.812939
0.796765
0.779783
0.762235
0.751716
0.743022
0.731785
0.730995
0.744487
0.804992
0.899439
1.00261
1.07714
0.0954282
0.09555
0.0956888
0.095856
0.0960557
0.0962124
0.0963535
0.096533
0.0967897
0.097154
0.0974978
0.0977769
0.0980329
0.0982713
0.0985205
0.0988253
0.0991482
0.0994788
0.0998418
0.100167
0.100459
0.100709
0.100913
0.101137
0.101388
0.101599
0.101745
0.101924
0.102205
0.102434
0.1026
0.10277
0.102865
0.102934
0.103042
0.103188
0.103386
0.103432
0.103403
0.103318
0.103311
0.103183
0.102817
0.102517
0.102343
0.102287
0.102365
0.102675
0.103405
0.10489
0.107253
0.110536
0.114141
0.117804
0.121507
0.124867
0.127618
0.129823
0.131161
0.131761
0.132326
0.132276
0.131694
0.131673
0.131125
0.13082
0.131912
0.135325
0.14214
0.150852
0.157772
0.163153
0.166801
0.167892
0.168966
0.169644
0.171613
0.173341
0.175818
0.179884
0.183333
0.219851
0.294056
0.430933
0.60658
0.72622
0.801282
0.855735
0.858051
0.839282
0.828709
0.819501
0.801744
0.772346
0.761494
0.766701
0.809443
0.897773
1.02718
1.12128
0.100257
0.100496
0.100681
0.1009
0.101218
0.101293
0.101322
0.101412
0.101601
0.101932
0.10228
0.102455
0.102552
0.102626
0.1027
0.102801
0.102942
0.103148
0.103361
0.10353
0.103706
0.103745
0.103762
0.103847
0.103977
0.104016
0.104017
0.104112
0.104282
0.104337
0.104341
0.10425
0.104144
0.104018
0.103862
0.103935
0.10389
0.103716
0.103757
0.104032
0.104372
0.104935
0.105882
0.107335
0.109224
0.111609
0.114291
0.117187
0.120326
0.12326
0.126042
0.128604
0.130402
0.131837
0.133211
0.134224
0.134676
0.13516
0.135372
0.134869
0.134714
0.134392
0.134439
0.135532
0.13849
0.14409
0.150945
0.15815
0.164112
0.168755
0.17147
0.173282
0.173599
0.174348
0.175434
0.177418
0.180652
0.184634
0.190355
0.196348
0.202336
0.205157
0.20795
0.209873
0.238342
0.327058
0.498005
0.70566
0.827267
0.851449
0.878969
0.901069
0.886022
0.843789
0.815916
0.814034
0.841335
0.914934
1.04821
1.14635
0.104445
0.104474
0.104505
0.104553
0.104563
0.10456
0.104567
0.104627
0.10468
0.104777
0.104832
0.104822
0.104863
0.104956
0.104962
0.104977
0.105082
0.10529
0.105326
0.105402
0.105573
0.105603
0.105647
0.105796
0.105956
0.106157
0.106423
0.10698
0.107456
0.107741
0.108027
0.108587
0.10947
0.110409
0.111322
0.112339
0.113561
0.114934
0.116491
0.118205
0.120193
0.122277
0.124459
0.126553
0.128548
0.130393
0.132023
0.133504
0.134792
0.135903
0.136717
0.137337
0.137828
0.138086
0.138451
0.138628
0.138383
0.138544
0.139158
0.139747
0.141404
0.144845
0.150516
0.156506
0.162757
0.16819
0.172603
0.175923
0.177641
0.178842
0.179886
0.180145
0.181155
0.183325
0.186557
0.19135
0.196243
0.202049
0.207056
0.210944
0.214505
0.21771
0.220375
0.223267
0.225143
0.227347
0.229932
0.283776
0.440332
0.646481
0.808097
0.885835
0.906834
0.885469
0.880741
0.881349
0.8983
0.955435
1.08549
1.17661
0.108868
0.109052
0.109293
0.109535
0.109739
0.109931
0.110143
0.110388
0.110666
0.11096
0.111252
0.111562
0.111919
0.112326
0.112762
0.113214
0.113663
0.114112
0.114609
0.115185
0.115848
0.116592
0.117445
0.11838
0.119372
0.120397
0.12149
0.122636
0.123803
0.124959
0.12613
0.127302
0.128419
0.129538
0.130633
0.131693
0.13271
0.133694
0.134687
0.135616
0.136508
0.137418
0.138248
0.138989
0.139761
0.140421
0.141071
0.141562
0.142142
0.142701
0.142737
0.143056
0.143992
0.144573
0.145374
0.147141
0.149986
0.153601
0.157419
0.162117
0.166916
0.171797
0.175882
0.17932
0.181975
0.18377
0.185187
0.186366
0.186893
0.18746
0.188629
0.191119
0.194591
0.198502
0.203417
0.208221
0.213022
0.217108
0.220003
0.222801
0.225581
0.228139
0.230473
0.233282
0.236281
0.240098
0.243692
0.245641
0.246826
0.273975
0.370432
0.560072
0.759076
0.856736
0.874204
0.881829
0.915901
0.990716
1.1275
1.21657
0.127282
0.127528
0.127805
0.128073
0.128349
0.128625
0.128895
0.129203
0.129537
0.129863
0.130196
0.130548
0.130902
0.131272
0.131663
0.13207
0.132492
0.132959
0.13345
0.133967
0.134515
0.135088
0.135672
0.136265
0.136872
0.137485
0.138088
0.138668
0.139231
0.139805
0.140388
0.140965
0.141544
0.142117
0.142692
0.143277
0.143853
0.144434
0.145011
0.145584
0.146186
0.146821
0.147468
0.14824
0.14907
0.150004
0.151131
0.152363
0.153916
0.155781
0.158165
0.160756
0.16363
0.166698
0.170183
0.173613
0.177118
0.180367
0.183412
0.185979
0.188134
0.190118
0.191574
0.193003
0.193761
0.194559
0.195429
0.196809
0.198856
0.201485
0.205
0.209222
0.213482
0.217918
0.22203
0.225381
0.228411
0.230732
0.233198
0.235549
0.237715
0.240057
0.242931
0.245794
0.248496
0.250645
0.252405
0.254046
0.255707
0.256937
0.257879
0.261361
0.313842
0.451627
0.603581
0.720332
0.813506
0.908671
1.00742
1.12975
0.14328
0.143484
0.143693
0.143919
0.144193
0.1445
0.144797
0.145077
0.145362
0.145672
0.14603
0.146394
0.146734
0.147081
0.147472
0.147873
0.148283
0.148701
0.14912
0.149527
0.149935
0.150362
0.150806
0.151264
0.151728
0.15222
0.152741
0.153326
0.153966
0.154683
0.155453
0.156296
0.157178
0.158133
0.159122
0.160164
0.161251
0.162416
0.163646
0.164997
0.16644
0.168063
0.169791
0.171676
0.173661
0.175763
0.177859
0.180005
0.182112
0.184311
0.186464
0.188591
0.190611
0.192531
0.194298
0.19588
0.197436
0.198776
0.200106
0.201157
0.202302
0.20329
0.204495
0.20585
0.207649
0.209815
0.212567
0.215808
0.219506
0.223309
0.227022
0.230109
0.232987
0.235614
0.237796
0.239929
0.24162
0.243245
0.244907
0.246582
0.248379
0.250362
0.252228
0.253877
0.255436
0.256711
0.258019
0.259354
0.260657
0.261778
0.26296
0.264127
0.264707
0.265277
0.270368
0.302637
0.359247
0.441908
0.483561
0.630352
0.165766
0.166059
0.166382
0.166715
0.167014
0.167301
0.167651
0.168031
0.168407
0.168789
0.169166
0.16956
0.169996
0.170452
0.170909
0.171387
0.171891
0.17242
0.172981
0.173582
0.174225
0.1749
0.175617
0.176361
0.177155
0.17799
0.17888
0.179785
0.180725
0.18166
0.182613
0.183568
0.184544
0.185521
0.186538
0.187588
0.188698
0.189851
0.191068
0.192331
0.193643
0.194963
0.196306
0.197639
0.198935
0.200175
0.201362
0.202547
0.203744
0.204975
0.206179
0.207425
0.208585
0.209755
0.210851
0.212049
0.213254
0.214634
0.21614
0.217925
0.219913
0.222176
0.224665
0.22734
0.230135
0.232933
0.23562
0.238186
0.240398
0.242495
0.244294
0.245783
0.247063
0.248199
0.249457
0.250711
0.251936
0.253228
0.254502
0.255863
0.257208
0.25835
0.259256
0.260102
0.260884
0.261751
0.262544
0.263261
0.263871
0.264476
0.265244
0.266125
0.266838
0.267406
0.268002
0.26935
0.273416
0.285473
0.310308
0.364757
0.193842
0.19412
0.194398
0.194658
0.194939
0.195315
0.195707
0.196051
0.196401
0.196786
0.197208
0.197655
0.198104
0.198557
0.199036
0.199551
0.200093
0.200647
0.201194
0.201741
0.202298
0.202872
0.203459
0.204064
0.204681
0.20532
0.205973
0.206651
0.207356
0.208089
0.208848
0.20963
0.21044
0.211271
0.212124
0.213012
0.213937
0.214889
0.215851
0.216801
0.217739
0.218668
0.219619
0.220601
0.221644
0.222714
0.223831
0.224984
0.226198
0.22745
0.228764
0.230142
0.231616
0.233129
0.234648
0.236147
0.237639
0.239156
0.240737
0.242413
0.244096
0.245735
0.247244
0.248624
0.249842
0.250969
0.25204
0.25298
0.253838
0.254715
0.255543
0.25632
0.256966
0.257698
0.258542
0.259437
0.260321
0.261075
0.261733
0.26228
0.262717
0.263119
0.263492
0.263809
0.264105
0.264411
0.264703
0.265005
0.265334
0.265977
0.266848
0.267851
0.26835
0.268371
0.268566
0.269466
0.272973
0.28361
0.30359
0.351568
0.226088
0.226256
0.226442
0.226655
0.226911
0.227169
0.227411
0.22766
0.227923
0.22821
0.228526
0.228872
0.229247
0.229648
0.230082
0.230539
0.230973
0.231358
0.231713
0.232072
0.23246
0.232894
0.233362
0.233844
0.234338
0.234845
0.235367
0.235906
0.236462
0.237014
0.237562
0.238113
0.238661
0.239195
0.239717
0.240255
0.240831
0.241448
0.242098
0.242775
0.24347
0.244184
0.244928
0.245717
0.246505
0.247225
0.247871
0.248481
0.249095
0.249751
0.25048
0.251306
0.252189
0.253022
0.253742
0.254326
0.25481
0.255268
0.255762
0.256344
0.257011
0.257713
0.258362
0.25893
0.259424
0.25992
0.260431
0.260965
0.261519
0.262061
0.262624
0.263117
0.263567
0.263932
0.26425
0.264596
0.264889
0.265061
0.265136
0.265125
0.265145
0.265195
0.26519
0.265202
0.265261
0.265407
0.265679
0.266193
0.266963
0.268126
0.268868
0.269509
0.26951
0.268997
0.268792
0.269395
0.272763
0.283081
0.301512
0.344753
0.251419
0.251481
0.251548
0.251629
0.25172
0.25177
0.251845
0.252074
0.25217
0.252178
0.25221
0.252329
0.252742
0.253044
0.253176
0.253389
0.253668
0.253885
0.254042
0.254193
0.254381
0.254613
0.254864
0.255114
0.255345
0.255553
0.255748
0.255946
0.256152
0.256347
0.256537
0.256739
0.256958
0.257187
0.257416
0.257632
0.257857
0.258099
0.258366
0.258657
0.258969
0.259291
0.259607
0.259927
0.260252
0.260552
0.260817
0.261046
0.26126
0.261487
0.26175
0.262056
0.262425
0.26287
0.263295
0.263563
0.263724
0.263804
0.263887
0.264047
0.264368
0.264853
0.265339
0.265645
0.265832
0.266004
0.266219
0.266452
0.266654
0.266748
0.266785
0.266839
0.266833
0.266736
0.266598
0.266568
0.266529
0.266418
0.266238
0.266097
0.266032
0.265982
0.265966
0.266109
0.266465
0.267172
0.2682
0.269292
0.270362
0.271099
0.271088
0.270941
0.270472
0.269116
0.268919
0.269763
0.273375
0.283422
0.301157
0.342374
0.263926
0.263911
0.263868
0.263867
0.263864
0.263809
0.263775
0.263794
0.26383
0.263826
0.263824
0.263874
0.263973
0.263992
0.264004
0.263991
0.263977
0.263973
0.263982
0.264041
0.264105
0.264132
0.264183
0.264322
0.2644
0.2644
0.264411
0.264457
0.264554
0.264694
0.264854
0.265007
0.265163
0.265352
0.265568
0.265661
0.265668
0.265686
0.265745
0.265862
0.266061
0.266303
0.266395
0.266452
0.266595
0.266818
0.266978
0.267076
0.267132
0.267202
0.267259
0.267309
0.26741
0.267661
0.26794
0.268002
0.268005
0.267964
0.267819
0.267766
0.267788
0.267878
0.267983
0.26805
0.268065
0.268018
0.26786
0.267724
0.267663
0.267543
0.267366
0.267297
0.267197
0.26697
0.266764
0.266677
0.266596
0.266409
0.266425
0.266561
0.266903
0.267641
0.268779
0.27007
0.271418
0.272649
0.27354
0.273971
0.274364
0.274168
0.273853
0.27318
0.271851
0.271884
0.272781
0.275943
0.282442
0.293176
0.307516
0.343271
0.267282
0.26735
0.267478
0.26761
0.267699
0.267754
0.26781
0.267878
0.267944
0.268006
0.268066
0.268077
0.268064
0.26805
0.268001
0.267859
0.267689
0.267588
0.267524
0.267495
0.26751
0.267574
0.267595
0.267579
0.267508
0.267384
0.267307
0.267273
0.267291
0.267434
0.267679
0.267843
0.26795
0.268066
0.268245
0.26838
0.268398
0.268374
0.26837
0.268436
0.268647
0.268815
0.268831
0.268843
0.268985
0.269189
0.269235
0.269222
0.269193
0.269133
0.268996
0.2689
0.268904
0.26897
0.268984
0.268941
0.268893
0.268868
0.268775
0.268733
0.268666
0.268345
0.268162
0.268221
0.268386
0.268349
0.26797
0.267622
0.267545
0.267447
0.267294
0.267343
0.267366
0.267452
0.267738
0.268246
0.269084
0.270266
0.271791
0.273394
0.27501
0.276482
0.277659
0.278422
0.279242
0.279278
0.278912
0.278682
0.278487
0.278043
0.277731
0.277954
0.27949
0.283093
0.287523
0.292768
0.299792
0.310492
0.32344
0.35464
0.270055
0.270056
0.270085
0.270157
0.270228
0.270288
0.270335
0.270378
0.270445
0.270493
0.270502
0.270487
0.270428
0.27042
0.270428
0.270381
0.270231
0.270195
0.270165
0.270106
0.270098
0.270119
0.270141
0.270094
0.269774
0.26956
0.269566
0.269576
0.269526
0.269532
0.269548
0.26954
0.269498
0.269454
0.269468
0.26954
0.269586
0.26958
0.269599
0.269683
0.269803
0.269921
0.270054
0.270199
0.270237
0.27015
0.270055
0.270037
0.270011
0.269909
0.269688
0.26955
0.269507
0.26939
0.269059
0.268859
0.268779
0.268733
0.268852
0.26911
0.269139
0.26894
0.268585
0.268595
0.268989
0.269681
0.270145
0.270346
0.270779
0.271773
0.273159
0.274573
0.275922
0.277348
0.278868
0.280488
0.281916
0.283121
0.284176
0.285005
0.285574
0.285996
0.285903
0.285862
0.285875
0.285419
0.284465
0.284588
0.285448
0.286875
0.289385
0.293533
0.298673
0.303338
0.307571
0.311866
0.317997
0.327897
0.338283
0.363583
0.27251
0.272494
0.2725
0.27254
0.272554
0.272565
0.272579
0.272592
0.272618
0.272678
0.272751
0.272809
0.272876
0.272892
0.272887
0.272895
0.272924
0.272959
0.273008
0.273077
0.273067
0.272942
0.272634
0.272529