/*--------------------------------*- C++ -*----------------------------------*\
  =========                 |
  \\      /  F ield         | OpenFOAM: The Open Source CFD Toolbox
   \\    /   O peration     | Website:  https://openfoam.org
    \\  /    A nd           | Version:  7
     \\/     M anipulation  |
\*---------------------------------------------------------------------------*/
FoamFile
{
    version     2.0;
    format      ascii;
    class       volScalarField;
    location    "3.5";
    object      T;
}
// * * * * * * * * * * * * * * * * * * * * * * * * * * * * * * * * * * * * * //

dimensions      [0 0 0 1 0 0 0];

internalField   nonuniform List<scalar> 
60000
(
0.935206
1.27402
1.31084
1.32123
1.37762
1.43174
1.46626
1.48928
1.50492
1.51763
1.53265
1.53234
1.52721
1.51518
1.49743
1.4765
1.44801
1.4158
1.39682
1.37288
1.34447
1.32392
1.30952
1.29912
1.29508
1.29237
1.2866
1.27718
1.26533
1.25283
1.24137
1.23212
1.22362
1.21633
1.21015
1.20643
1.20357
1.20048
1.19661
1.19095
1.18436
1.17754
1.17073
1.16281
1.15581
1.14872
1.14222
1.13508
1.12773
1.12284
1.12063
1.12057
1.12079
1.121
1.12186
1.12325
1.12481
1.12553
1.12576
1.12541
1.1243
1.12192
1.11867
1.11739
1.11792
1.12016
1.12239
1.1241
1.1242
1.12384
1.12245
1.12024
1.11835
1.11665
1.11744
1.11902
1.1213
1.12473
1.12929
1.13361
1.13425
1.1363
1.14193
1.15474
1.16541
1.17505
1.18129
1.19225
1.19507
1.17904
1.14571
1.12305
1.15609
1.20605
1.32354
1.50776
1.62302
1.63157
1.60571
1.5981
0.432702
0.432307
0.431835
0.431376
0.430573
0.446682
0.502402
0.625279
0.800015
0.999021
1.19783
1.38914
1.5486
1.6838
1.77138
1.82944
1.86018
1.87126
1.86028
1.83076
1.79258
1.75726
1.71341
1.67958
1.64795
1.61318
1.57309
1.5443
1.52831
1.51719
1.50409
1.48664
1.46693
1.44744
1.42787
1.40661
1.38489
1.36457
1.34539
1.32653
1.31053
1.296
1.28155
1.26689
1.25285
1.23945
1.22724
1.21549
1.20436
1.19429
1.18624
1.18095
1.17721
1.17311
1.16836
1.16324
1.15764
1.15117
1.14414
1.13719
1.13169
1.12788
1.12567
1.12594
1.1273
1.12976
1.13075
1.13056
1.12926
1.1262
1.12255
1.1199
1.11923
1.11986
1.12072
1.12229
1.12448
1.12941
1.13314
1.1374
1.13753
1.14013
1.1476
1.1632
1.17435
1.1847
1.19514
1.21316
1.24424
1.23467
1.19978
1.144
1.1702
1.21511
1.33126
1.51501
1.628
1.63498
1.60711
1.5983
0.430877
0.430383
0.429829
0.42921
0.428575
0.427668
0.426473
0.425189
0.423911
0.422598
0.42142
0.41961
0.432247
0.523697
0.726799
1.02128
1.32513
1.57914
1.76982
1.90104
1.99911
2.05249
2.0767
2.0583
2.01925
1.9736
1.9352
1.91065
1.88527
1.85931
1.83311
1.81103
1.80413
1.79595
1.77707
1.74763
1.71656
1.68567
1.6542
1.62325
1.59881
1.57543
1.5496
1.5228
1.49653
1.47105
1.44566
1.42108
1.3971
1.37354
1.35063
1.32856
1.3072
1.28614
1.26505
1.24517
1.22763
1.21315
1.20179
1.19267
1.18474
1.17783
1.1726
1.16957
1.16637
1.1627
1.15695
1.14924
1.14065
1.13349
1.12917
1.12778
1.12869
1.1297
1.12972
1.13094
1.13331
1.13957
1.14223
1.14564
1.14597
1.14947
1.16112
1.17961
1.19403
1.20909
1.22425
1.26725
1.33593
1.33817
1.29952
1.19341
1.20262
1.23487
1.3427
1.5234
1.63367
1.63854
1.60878
1.59801
0.426625
0.425888
0.425097
0.424233
0.423343
0.422383
0.421394
0.420366
0.419332
0.418244
0.417137
0.416032
0.414602
0.412795
0.410978
0.409164
0.407559
0.405172
0.489905
0.748686
1.1225
1.47346
1.75457
1.95568
2.08105
2.16592
2.22969
2.2154
2.17524
2.11771
2.08528
2.0664
2.04911
2.03082
2.00188
1.99164
1.99306
1.98939
1.97796
1.95444
1.92259
1.88532
1.84905
1.81904
1.79057
1.76173
1.73086
1.70004
1.67121
1.64196
1.61322
1.58314
1.55214
1.5204
1.48837
1.45703
1.42661
1.39843
1.37362
1.35141
1.33014
1.30896
1.2885
1.26821
1.24968
1.23154
1.21632
1.20228
1.18998
1.17995
1.17206
1.16714
1.16235
1.15617
1.15474
1.15829
1.16295
1.16927
1.16798
1.16764
1.16856
1.17578
1.19677
1.21508
1.23293
1.26358
1.30345
1.37271
1.47089
1.48828
1.43809
1.27672
1.25555
1.27107
1.36092
1.53428
1.63998
1.64272
1.61145
1.59689
0.420714
0.419901
0.419024
0.418105
0.417149
0.416159
0.415126
0.414055
0.412956
0.411808
0.410624
0.409356
0.408087
0.406755
0.405413
0.403968
0.402494
0.401052
0.398953
0.396665
0.394701
0.391862
0.419789
0.639724
1.04541
1.45038
1.8158
2.01844
2.13857
2.20507
2.23888
2.22567
2.18104
2.14525
2.11538
2.12025
2.12397
2.12755
2.13923
2.13611
2.12155
2.09956
2.07924
2.05916
2.03611
2.01426
1.99392
1.97799
1.95791
1.93055
1.89706
1.86254
1.83017
1.80018
1.77058
1.73738
1.7017
1.66461
1.63016
1.59626
1.56301
1.53206
1.50259
1.47287
1.44231
1.41129
1.381
1.3526
1.32618
1.30147
1.27918
1.25893
1.24507
1.23806
1.23881
1.24198
1.23984
1.23377
1.22926
1.23191
1.23846
1.25308
1.27366
1.29834
1.33478
1.38232
1.44002
1.53411
1.63839
1.64938
1.57567
1.37298
1.3165
1.32159
1.38874
1.54925
1.64644
1.64739
1.61506
1.59509
0.413555
0.412749
0.411878
0.41097
0.41001
0.409021
0.407986
0.406937
0.40586
0.40478
0.403628
0.40243
0.401163
0.399874
0.398519
0.397082
0.395569
0.393987
0.392435
0.390869
0.389288
0.387735
0.385837
0.383608
0.381646
0.378902
0.41591
0.679573
1.11272
1.53321
1.80696
1.98255
2.06601
2.11949
2.17387
2.18713
2.1819
2.18113
2.17701
2.17529
2.16931
2.1617
2.15478
2.14257
2.1259
2.11197
2.09821
2.10085
2.09821
2.09104
2.07665
2.05644
2.03355
2.01166
1.99164
1.96842
1.94031
1.90983
1.87843
1.8512
1.82433
1.79717
1.77117
1.74097
1.70436
1.66168
1.61693
1.57534
1.53489
1.49847
1.46484
1.43644
1.42179
1.41401
1.40702
1.39796
1.38578
1.37156
1.36263
1.36558
1.37438
1.39345
1.42388
1.4564
1.49955
1.55908
1.62835
1.72773
1.78417
1.757
1.63667
1.43561
1.37454
1.37643
1.42683
1.57093
1.65318
1.65082
1.61818
1.59223
0.405981
0.40521
0.404395
0.403531
0.402619
0.401667
0.400679
0.399659
0.398644
0.397612
0.396536
0.395422
0.394238
0.393032
0.391738
0.390407
0.388981
0.387564
0.386095
0.384655
0.383129
0.38161
0.380038
0.378484
0.376934
0.375475
0.373695
0.371629
0.369833
0.36731
0.425701
0.691694
1.07367
1.39016
1.64053
1.81714
1.9106
2.00178
2.0556
2.10423
2.13245
2.15432
2.16609
2.15329
2.1401
2.1337
2.13197
2.12466
2.11529
2.1125
2.11068
2.1062
2.09937
2.0878
2.07939
2.07206
2.06371
2.05253
2.03748
2.01845
2.00371
1.98573
1.96258
1.93764
1.91232
1.88336
1.84772
1.80924
1.77422
1.74371
1.7121
1.68238
1.65951
1.6493
1.63825
1.62196
1.60193
1.57979
1.56978
1.57489
1.58511
1.60799
1.63198
1.66138
1.70604
1.76139
1.82375
1.89111
1.87901
1.7997
1.64225
1.45509
1.41473
1.42201
1.47078
1.59946
1.65993
1.65218
1.61972
1.58813
0.398281
0.397573
0.396814
0.396006
0.395171
0.394292
0.3934
0.392469
0.391545
0.390585
0.389588
0.388536
0.387463
0.386323
0.385148
0.383915
0.382636
0.381328
0.380007
0.378666
0.377282
0.375888
0.374427
0.373006
0.371542
0.370106
0.368612
0.367103
0.36564
0.364225
0.362379
0.360502
0.358891
0.356701
0.373846
0.551592
0.844901
1.15971
1.42078
1.60545
1.76233
1.88583
1.97906
2.04853
2.08602
2.10341
2.11874
2.1093
2.10456
2.10001
2.10547
2.10972
2.10862
2.10194
2.09143
2.08349
2.07926
2.077
2.07408
2.06855
2.06149
2.05717
2.04857
2.03579
2.02157
2.00657
1.99026
1.96767
1.93679
1.90927
1.88702
1.88238
1.8752
1.86067
1.84953
1.83777
1.81959
1.79178
1.7832
1.79315
1.8028
1.81816
1.83625
1.85738
1.89153
1.93546
1.97845
1.98157
1.92177
1.78786
1.61664
1.45653
1.4403
1.45585
1.51768
1.63253
1.666
1.6523
1.61989
1.58385
0.391162
0.390481
0.38974
0.388972
0.388187
0.387382
0.386543
0.385676
0.384798
0.383909
0.382975
0.381988
0.380965
0.379891
0.378787
0.377639
0.376469
0.375249
0.374016
0.372749
0.371486
0.370158
0.368831
0.367479
0.366132
0.364792
0.36343
0.362112
0.360776
0.359466
0.358194
0.35697
0.35571
0.354575
0.353507
0.3524
0.351368
0.35061
0.349638
0.406955
0.637445
0.958973
1.26813
1.52165
1.70281
1.84241
1.93597
1.99498
2.03612
2.04795
2.06712
2.08362
2.08252
2.07911
2.07544
2.07572
2.07272
2.07354
2.07517
2.07445
2.07062
2.06143
2.05531
2.04997
2.04378
2.03612
2.02697
2.02231
2.01297
1.9993
1.98618
1.98401
1.98822
1.9854
1.9751
1.96006
1.95464
1.94318
1.9362
1.9406
1.95313
1.96993
1.98472
1.99781
2.01776
2.03899
2.04944
2.02437
1.92491
1.75477
1.57744
1.45522
1.45355
1.48166
1.56141
1.66117
1.6704
1.65078
1.61903
1.58
0.383731
0.383085
0.382405
0.381691
0.380949
0.380183
0.379385
0.378567
0.377726
0.376877
0.375991
0.375068
0.374105
0.373117
0.372103
0.371072
0.369995
0.3689
0.367788
0.366659
0.365513
0.36435
0.363178
0.361995
0.360842
0.359701
0.358604
0.357513
0.356483
0.355497
0.354561
0.353661
0.352763
0.351973
0.351206
0.350557
0.34998
0.349479
0.348949
0.348306
0.347697
0.347207
0.3464
0.371192
0.567475
0.917426
1.23776
1.48877
1.66517
1.80073
1.89328
1.9558
1.99343
2.01453
2.03225
2.04886
2.04473
2.04252
2.04336
2.04679
2.04639
2.04193
2.04105
2.04141
2.04031
2.03697
2.03054
2.02113
2.01761
2.0159
2.01725
2.01701
2.01616
2.01743
2.01577
2.00956
2.00349
2.00456
2.00928
2.01584
2.01895
2.03017
2.04375
2.05735
2.07498
2.08511
2.08144
2.03724
1.91569
1.73283
1.55611
1.46332
1.47109
1.51242
1.60006
1.67618
1.67295
1.645
1.61599
1.57597
0.376106
0.375499
0.374867
0.374211
0.373533
0.372839
0.372137
0.371419
0.37068
0.369915
0.369123
0.368304
0.367462
0.366599
0.365726
0.364846
0.363942
0.363018
0.362084
0.361151
0.360205
0.359257
0.358303
0.357367
0.356434
0.35556
0.35472
0.353964
0.353254
0.352604
0.352003
0.351411
0.350835
0.350254
0.349734
0.349281
0.348849
0.348392
0.347865
0.34736
0.346921
0.346399
0.345878
0.345235
0.344696
0.344317
0.343764
0.370537
0.56419
0.924093
1.23392
1.46997
1.63866
1.78341
1.87249
1.93986
1.96523
1.97955
1.99186
2.00536
2.00791
2.0021
2.00382
2.00758
2.0092
2.00892
2.00778
2.00716
2.01157
2.01863
2.02728
2.02516
2.01988
2.01601
2.01471
2.01477
2.01351
2.01474
2.02145
2.03051
2.03977
2.05335
2.06456
2.07635
2.09241
2.09899
2.09041
2.03592
1.91545
1.733
1.56415
1.48372
1.49439
1.5441
1.62737
1.6786
1.66881
1.63215
1.6083
1.57076
0.368608
0.368118
0.367601
0.367057
0.366491
0.365907
0.365314
0.364707
0.364079
0.363444
0.362795
0.362129
0.361444
0.360737
0.360026
0.359313
0.358598
0.357875
0.357151
0.356429
0.355727
0.355024
0.354342
0.353657
0.353006
0.352387
0.351825
0.351334
0.350914
0.350527
0.350164
0.34979
0.349373
0.348955
0.34855
0.34817
0.347779
0.34733
0.346841
0.346416
0.345964
0.345453
0.344934
0.344397
0.344019
0.34371
0.343426
0.343148
0.342736
0.342562
0.342278
0.370423
0.581973
0.949385
1.26185
1.4868
1.64957
1.77261
1.8548
1.89314
1.92246
1.93123
1.94731
1.95778
1.95523
1.95688
1.96233
1.97065
1.98356
1.9954
2.00396
2.00194
1.99662
1.99796
2.00205
2.00676
2.0096
2.01463
2.02313
2.02903
2.03851
2.05388
2.06616
2.07837
2.09379
2.09943
2.0889
2.03583
1.92769
1.75961
1.60561
1.52936
1.53508
1.57875
1.64401
1.67216
1.64651
1.60983
1.59358
1.56067
0.362452
0.362016
0.361559
0.361088
0.360607
0.360125
0.359633
0.359125
0.358597
0.35807
0.357541
0.357006
0.356467
0.355927
0.355388
0.354859
0.354324
0.353809
0.353304
0.352836
0.352378
0.35193
0.351484
0.351029
0.350588
0.350198
0.349843
0.349552
0.349298
0.349067
0.348854
0.348599
0.348308
0.347949
0.347602
0.347252
0.346866
0.346428
0.346008
0.345589
0.34517
0.344715
0.344211
0.34374
0.34342
0.343213
0.343116
0.342941
0.342628
0.342586
0.342885
0.343812
0.344505
0.345331
0.345585
0.398583
0.677455
1.0232
1.31745
1.4984
1.65029
1.76434
1.82983
1.86454
1.87698
1.89501
1.91536
1.92523
1.93807
1.94526
1.94915
1.95433
1.9565
1.96216
1.96511
1.9701
1.97839
1.98849
1.99612
2.00172
2.01503
2.03719
2.05172
2.06598
2.08501
2.09263
2.08085
2.03181
1.94502
1.81421
1.68349
1.59993
1.57924
1.60253
1.64151
1.64317
1.6105
1.57561
1.56578
1.54019
0.356925
0.356582
0.356223
0.355859
0.355498
0.355132
0.354761
0.354388
0.354008
0.353636
0.353275
0.352899
0.352533
0.352181
0.351842
0.351503
0.351167
0.350849
0.350565
0.350309
0.350064
0.349808
0.349524
0.349208
0.348901
0.34862
0.34836
0.348176
0.348005
0.347846
0.347668
0.34749
0.347243
0.346944
0.346624
0.346284
0.345905
0.34552
0.345165
0.344813
0.344446
0.344041
0.343592
0.34328
0.343048
0.34306
0.343091
0.343306
0.343814
0.344539
0.345582
0.346535
0.347532
0.348292
0.34827
0.347987
0.347907
0.348019
0.348022
0.47473
0.778807
1.15266
1.3815
1.56191
1.68389
1.76911
1.82021
1.84771
1.86969
1.89313
1.88908
1.89342
1.89242
1.8925
1.89411
1.90383
1.92105
1.93568
1.94231
1.95208
1.97102
1.99108
2.00603
2.02348
2.04783
2.05736
2.0475
2.01688
1.95208
1.86976
1.77601
1.69666
1.64819
1.64253
1.64146
1.6128
1.55654
1.5282
1.52161
1.50492
0.352672
0.352461
0.352239
0.352019
0.351816
0.35162
0.351421
0.351231
0.351033
0.350828
0.350628
0.350408
0.350189
0.349988
0.349782
0.349574
0.349367
0.34918
0.349018
0.348844
0.348673
0.348492
0.348268
0.348004
0.347743
0.347475
0.347229
0.347043
0.346924
0.346783
0.346629
0.346456
0.346241
0.345974
0.34569
0.345399
0.345106
0.344854
0.344634
0.344404
0.344104
0.343768
0.343353
0.343334
0.343544
0.344098
0.345058
0.346204
0.347182
0.348034
0.348721
0.349315
0.349724
0.349724
0.349325
0.348702
0.348491
0.348557
0.348508
0.34786
0.346736
0.346341
0.36663
0.600084
0.9754
1.24218
1.45317
1.59303
1.67708
1.73907
1.76983
1.79692
1.8098
1.82085
1.81905
1.83017
1.83876
1.84521
1.85202
1.86549
1.88535
1.90493
1.92539
1.94857
1.97544
1.984
1.97936
1.96945
1.94247
1.89773
1.84466
1.79317
1.73676
1.69159
1.64816
1.5853
1.50397
1.46746
1.46367
1.45591
0.350206
0.350117
0.350026
0.349951
0.349906
0.349857
0.349776
0.349679
0.349575
0.349466
0.349354
0.349201
0.349039
0.34888
0.348692
0.34851
0.348337
0.348193
0.348041
0.347842
0.347635
0.347421
0.347176
0.346912
0.346627
0.346329
0.346079
0.345896
0.345768
0.345636
0.345484
0.345337
0.345179
0.344989
0.34487
0.344782
0.344666
0.344566
0.344519
0.344463
0.344549
0.344858
0.345448
0.346248
0.347169
0.348139
0.348999
0.349661
0.350128
0.350469
0.3507
0.350663
0.350569
0.350309
0.349536
0.348628
0.34819
0.348287
0.348261
0.34772
0.34715
0.3478
0.35016
0.354642
0.36093
0.364059
0.477542
0.766668
1.03944
1.24771
1.41372
1.52532
1.60305
1.65808
1.69915
1.73492
1.75518
1.7488
1.75104
1.76214
1.77205
1.78608
1.81272
1.844
1.87014
1.88209
1.88671
1.88785
1.8911
1.88992
1.87814
1.85281
1.81921
1.76498
1.68817
1.58505
1.4755
1.41011
1.40191
1.3988
0.349106
0.349029
0.349014
0.349014
0.349003
0.348947
0.348845
0.348724
0.348617
0.348543
0.348445
0.348294
0.348128
0.347963
0.347784
0.347602
0.347447
0.347325
0.347168
0.346958
0.34672
0.346499
0.346273
0.346003
0.345673
0.345394
0.34524
0.345169
0.345087
0.344968
0.344816
0.344697
0.344592
0.344586
0.344682
0.344999
0.345538
0.346316
0.347242
0.348103
0.348867
0.349622
0.350345
0.350901
0.351275
0.351529
0.351573
0.351469
0.35144
0.351525
0.351417
0.351034
0.350655
0.349953
0.348834
0.348172
0.348082
0.348245
0.348557
0.349728
0.353052
0.358599
0.364734
0.370967
0.375029
0.377578
0.378389
0.379427
0.379482
0.382846
0.552331
0.810789
1.07389
1.24963
1.39444
1.47715
1.53637
1.58691
1.62525
1.64971
1.66437
1.66651
1.68998
1.71207
1.73062
1.74534
1.76002
1.77416
1.79478
1.82883
1.85697
1.85985
1.85199
1.81382
1.73403
1.60777
1.47373
1.37082
1.34693
1.34338
0.348051
0.34804
0.34803
0.348015
0.347981
0.347929
0.347858
0.347801
0.347773
0.347729
0.347659
0.347571
0.347448
0.347298
0.347177
0.347032
0.34688
0.346749
0.346621
0.346464
0.346264
0.346084
0.345932
0.345674
0.345309
0.345118
0.345136
0.345202
0.345334
0.345553
0.345869
0.346398
0.347137
0.347897
0.348789
0.349768
0.350673
0.351496
0.35214
0.35254
0.35276
0.352908
0.35295
0.352885
0.352724
0.35252
0.3522
0.351668
0.351412
0.35123
0.35074
0.350274
0.350013
0.349572
0.348629
0.348623
0.349401
0.351936
0.356843
0.363165
0.369388
0.374191
0.377958
0.380695
0.382431
0.382965
0.383007
0.383399
0.383157
0.382675
0.384204
0.387737
0.393001
0.436015
0.620672
0.845
1.04773
1.21937
1.33753
1.40043
1.45642
1.5095
1.55897
1.60215
1.60728
1.61915
1.63028
1.64084
1.66768
1.71726
1.77057
1.81495
1.82693
1.81042
1.74954
1.62921
1.48529
1.35175
1.30324
1.29356
0.348179
0.348163
0.348135
0.348087
0.348039
0.348
0.347958
0.347913
0.347864
0.347802
0.347731
0.347671
0.347627
0.347624
0.347647
0.347694
0.34775
0.347753
0.347776
0.347824
0.347896
0.348009
0.348157
0.348371
0.34861
0.348837
0.349105
0.349486
0.350039
0.350596
0.351041
0.351563
0.352064
0.352411
0.352792
0.353187
0.353525
0.353711
0.353831
0.353828
0.353797
0.353682
0.353443
0.353123
0.352763
0.352366
0.351742
0.350895
0.350624
0.350671
0.350418
0.350309
0.35069
0.35181
0.354637
0.35904
0.364659
0.370764
0.376097
0.380256
0.383149
0.384656
0.38538
0.386053
0.38651
0.385888
0.38535
0.385428
0.386349
0.390229
0.397282
0.405453
0.414992
0.417813
0.420168
0.421762
0.422744
0.486736
0.678525
0.881544
1.05226
1.21584
1.30555
1.38114
1.45074
1.49696
1.5303
1.54449
1.56225
1.59383
1.63748
1.69227
1.74279
1.75075
1.71976
1.62865
1.49385
1.34961
1.28049
1.25487
0.348515
0.348578
0.348671
0.348812
0.349
0.349113
0.349207
0.349353
0.349605
0.350031
0.350446
0.350734
0.350953
0.351129
0.351323
0.3516
0.351904
0.35221
0.352547
0.352804
0.352996
0.353128
0.353208
0.353316
0.353452
0.353535
0.353567
0.353658
0.353919
0.354019
0.354009
0.354016
0.353974
0.353883
0.353843
0.353848
0.353843
0.353745
0.353554
0.353379
0.353377
0.353199
0.35269
0.352216
0.351853
0.351691
0.351493
0.351702
0.352531
0.354371
0.35738
0.361671
0.366443
0.371264
0.376026
0.380243
0.383646
0.386387
0.388073
0.388854
0.389548
0.389463
0.388756
0.38873
0.388047
0.387649
0.388866
0.392832
0.4008
0.41056
0.417882
0.423518
0.42708
0.428254
0.429257
0.429751
0.431545
0.433258
0.435705
0.439641
0.443221
0.567949
0.756465
0.961328
1.16023
1.28692
1.35905
1.42217
1.48038
1.50448
1.52337
1.54691
1.58842
1.62437
1.62365
1.58351
1.48461
1.35212
1.27397
1.22975
0.352686
0.352918
0.353061
0.353275
0.353542
0.353503
0.353439
0.353474
0.353597
0.35392
0.354296
0.354325
0.354306
0.354283
0.354287
0.354328
0.354425
0.354619
0.354831
0.354997
0.355133
0.355112
0.355085
0.355152
0.355201
0.35517
0.35511
0.355204
0.355281
0.355244
0.355169
0.354884
0.354523
0.35409
0.353543
0.3535
0.353355
0.353016
0.353024
0.353295
0.353651
0.354274
0.355388
0.357168
0.359577
0.362677
0.366218
0.370031
0.374121
0.377889
0.381439
0.384679
0.386969
0.388789
0.390497
0.391733
0.392307
0.392939
0.393189
0.392609
0.392381
0.391869
0.391896
0.39309
0.396451
0.402886
0.410514
0.418223
0.424399
0.429115
0.431822
0.433639
0.433798
0.434403
0.435348
0.437223
0.440329
0.444098
0.449495
0.455094
0.460532
0.463164
0.465737
0.467415
0.550543
0.766568
0.980939
1.18203
1.32753
1.38387
1.41215
1.44063
1.47554
1.50043
1.50739
1.49102
1.43853
1.34262
1.27029
1.2123
0.35537
0.355349
0.355321
0.355303
0.355267
0.355175
0.355151
0.355192
0.355187
0.355201
0.355176
0.355078
0.355085
0.355125
0.355087
0.35507
0.355157
0.355391
0.355445
0.35556
0.355815
0.355887
0.355972
0.356201
0.356451
0.356748
0.357129
0.357881
0.35841
0.358669
0.358975
0.359648
0.360693
0.361749
0.362804
0.36406
0.365628
0.367429
0.369473
0.371715
0.374299
0.37699
0.37977
0.382393
0.384849
0.387091
0.389058
0.39084
0.392377
0.393722
0.39472
0.395496
0.396115
0.396407
0.396798
0.396982
0.396702
0.396887
0.397501
0.398057
0.399799
0.403579
0.409844
0.416339
0.422973
0.428566
0.433013
0.436299
0.437945
0.439052
0.440023
0.440142
0.440967
0.442957
0.44602
0.450542
0.455076
0.46036
0.464842
0.468283
0.471403
0.474174
0.476438
0.47889
0.480517
0.482464
0.484944
0.623116
0.898443
1.11274
1.23182
1.28711
1.34347
1.38176
1.41178
1.40685
1.38057
1.32491
1.27369
1.20781
0.361275
0.361451
0.36169
0.361927
0.36211
0.362276
0.362466
0.3627
0.362982
0.363288
0.363595
0.363933
0.364333
0.364795
0.365293
0.3658
0.366302
0.366815
0.367409
0.36811
0.368942
0.369892
0.370985
0.372178
0.373449
0.374755
0.376128
0.377549
0.378998
0.380424
0.381857
0.38328
0.38464
0.386002
0.387331
0.388612
0.389838
0.391025
0.392219
0.393335
0.394401
0.395485
0.396466
0.397347
0.398254
0.399023
0.399777
0.400354
0.401013
0.401684
0.401742
0.402108
0.403133
0.403601
0.404305
0.406088
0.409111
0.413003
0.417151
0.422209
0.427208
0.432171
0.436231
0.439622
0.442209
0.44394
0.445281
0.446348
0.446742
0.447153
0.448143
0.450423
0.45363
0.457214
0.461669
0.465954
0.470195
0.47374
0.476224
0.478597
0.480933
0.483077
0.485022
0.487365
0.489814
0.493125
0.495725
0.497027
0.498024
0.564671
0.758384
0.966518
1.12696
1.23733
1.27762
1.28153
1.28835
1.28275
1.26627
1.20853
0.383432
0.383714
0.384036
0.38435
0.384675
0.385
0.385321
0.385688
0.386089
0.386482
0.386886
0.387313
0.387742
0.38819
0.388662
0.389153
0.389663
0.390226
0.390816
0.391435
0.392086
0.392765
0.393452
0.394146
0.394848
0.395551
0.396236
0.39689
0.397523
0.398165
0.398819
0.399468
0.400125
0.400781
0.401447
0.402133
0.402813
0.403505
0.404189
0.404874
0.405583
0.406323
0.407047
0.4079
0.408775
0.40974
0.41088
0.412108
0.41366
0.415597
0.41812
0.42084
0.423852
0.427043
0.430609
0.434043
0.437516
0.440705
0.443669
0.446143
0.448212
0.450086
0.45144
0.452741
0.45337
0.454024
0.454722
0.455883
0.457678
0.459991
0.463102
0.46683
0.470568
0.474431
0.477964
0.480812
0.48336
0.485289
0.48735
0.489307
0.491089
0.493004
0.495347
0.497657
0.499835
0.501537
0.502968
0.504307
0.505625
0.506581
0.507299
0.512916
0.630259
0.858923
0.994656
1.07056
1.13067
1.17927
1.17973
1.15365
0.40201
0.402226
0.402444
0.402683
0.402974
0.403301
0.403619
0.403916
0.404217
0.404546
0.404928
0.405317
0.40568
0.406052
0.406473
0.406907
0.407352
0.407807
0.40826
0.408703
0.409142
0.409599
0.410068
0.410546
0.411024
0.411523
0.412043
0.412621
0.413248
0.413952
0.414709
0.415548
0.416434
0.417408
0.418431
0.41952
0.420659
0.421889
0.423184
0.424617
0.426136
0.427848
0.429659
0.431623
0.433675
0.435837
0.437973
0.440154
0.442266
0.444442
0.44654
0.4486
0.450546
0.452388
0.454066
0.455558
0.456991
0.458202
0.459375
0.460274
0.461255
0.462075
0.463085
0.464196
0.465695
0.467507
0.469853
0.472651
0.475847
0.479106
0.482245
0.484824
0.48723
0.489423
0.491235
0.492993
0.494372
0.495692
0.497032
0.498375
0.499809
0.50139
0.502872
0.504177
0.505401
0.506402
0.507426
0.508472
0.509502
0.510397
0.511384
0.512071
0.512734
0.513269
0.524212
0.59851
0.702407
0.818169
0.824511
0.880547
0.426018
0.426332
0.426678
0.427035
0.427358
0.427669
0.428044
0.42845
0.428852
0.429262
0.429667
0.430088
0.430551
0.431034
0.431517
0.43202
0.43255
0.433102
0.433684
0.434303
0.434961
0.435651
0.43638
0.437134
0.437936
0.438777
0.439672
0.440581
0.441523
0.442459
0.443409
0.444356
0.445318
0.446274
0.447261
0.448271
0.449329
0.450418
0.451558
0.452731
0.45394
0.455144
0.456363
0.457565
0.458727
0.459832
0.460889
0.461941
0.462999
0.464079
0.46513
0.466205
0.467192
0.468174
0.469074
0.470057
0.471028
0.472148
0.473359
0.474811
0.476435
0.478311
0.480386
0.482617
0.484936
0.487247
0.489463
0.491584
0.493412
0.495133
0.496585
0.497777
0.498804
0.499721
0.500733
0.501729
0.502693
0.503709
0.50471
0.505778
0.506826
0.507709
0.508408
0.509064
0.509675
0.510359
0.510989
0.511564
0.512063
0.512567
0.513209
0.513963
0.514558
0.51502
0.515475
0.516475
0.51952
0.528576
0.54627
0.584983
0.453945
0.454208
0.45447
0.454714
0.454977
0.455328
0.455693
0.456012
0.456335
0.45669
0.457078
0.457488
0.4579
0.458315
0.458752
0.459217
0.459702
0.460193
0.460679
0.461166
0.461663
0.462178
0.462701
0.463239
0.463785
0.464349
0.464919
0.465509
0.466116
0.466744
0.467391
0.468055
0.46874
0.46944
0.470156
0.4709
0.471674
0.472469
0.473272
0.47406
0.474834
0.475592
0.476362
0.47715
0.47798
0.478825
0.479708
0.48062
0.481594
0.482612
0.4837
0.484845
0.486074
0.487325
0.488572
0.489794
0.49101
0.492248
0.493548
0.494939
0.496344
0.497717
0.498972
0.5001
0.501075
0.501966
0.502818
0.503578
0.504276
0.504979
0.505621
0.506213
0.506706
0.507278
0.50794
0.508638
0.50932
0.509898
0.510402
0.510819
0.511148
0.511451
0.511736
0.511984
0.512223
0.512474
0.51272
0.51298
0.513267
0.513807
0.51453
0.515335
0.515724
0.515717
0.515839
0.516501
0.519108
0.527074
0.541483
0.576425
0.482387
0.482519
0.482666
0.482836
0.483041
0.483248
0.483443
0.483644
0.483856
0.484087
0.484343
0.484624
0.484931
0.485257
0.485608
0.485973
0.486313
0.48661
0.486884
0.487165
0.487476
0.487823
0.488197
0.488579
0.488969
0.48937
0.489781
0.490206
0.490643
0.491079
0.491513
0.491953
0.492391
0.492819
0.493234
0.493661
0.494116
0.494604
0.495117
0.495653
0.496203
0.49677
0.497362
0.497994
0.498626
0.499202
0.499716
0.500197
0.500676
0.501186
0.501756
0.502406
0.503105
0.503767
0.50434
0.5048
0.505172
0.505517
0.505888
0.506334
0.506862
0.507432
0.507962
0.508409
0.508776
0.509136
0.50951
0.509914
0.510345
0.510763
0.511187
0.511545
0.511876
0.512151
0.512393
0.512655
0.512873
0.512998
0.513046
0.513034
0.513045
0.51308
0.513084
0.513102
0.513164
0.513301
0.513542
0.513979
0.514601
0.515527
0.5161
0.516545
0.516522
0.516068
0.515875
0.516354
0.518886
0.52658
0.539869
0.571348
0.5026
0.502645
0.502694
0.502755
0.502823
0.502857
0.502914
0.503094
0.503162
0.503161
0.503178
0.503263
0.50358
0.503818
0.503924
0.504094
0.504315
0.504485
0.50461
0.504733
0.504884
0.505063
0.505252
0.505437
0.505608
0.505762
0.505906
0.506055
0.506212
0.506363
0.506511
0.506672
0.506849
0.507036
0.507222
0.507396
0.507574
0.507763
0.507973
0.508203
0.508449
0.508705
0.508957
0.509215
0.509476
0.509715
0.509923
0.510095
0.510246
0.510403
0.51059
0.510816
0.511096
0.511442
0.511777
0.511987
0.512109
0.51216
0.512211
0.512323
0.512567
0.512951
0.513342
0.51358
0.513715
0.513833
0.51398
0.514142
0.514291
0.514359
0.514378
0.514403
0.514393
0.514312
0.514203
0.514176
0.514143
0.514055
0.513912
0.513805
0.51376
0.513727
0.51374
0.513873
0.514174
0.51475
0.51556
0.516403
0.517174
0.517721
0.517674
0.517505
0.517097
0.515987
0.515764
0.516352
0.519041
0.52662
0.539546
0.569447
0.512305
0.512296
0.512265
0.512267
0.512265
0.512227
0.512204
0.512219
0.512249
0.512247
0.512246
0.512284
0.51236
0.512383
0.512397
0.512388
0.512379
0.512377
0.512384
0.51243
0.51248
0.512499
0.512536
0.512639
0.512697
0.512698
0.512707
0.512746
0.512824
0.512937
0.513063
0.51318
0.5133
0.513449
0.51362
0.51369
0.513694
0.513708
0.513754
0.513844
0.513999
0.514189
0.514271
0.514323
0.514443
0.514623
0.514748
0.514813
0.514835
0.514866
0.514882
0.514899
0.51496
0.515145
0.515361
0.515412
0.515414
0.515382
0.515267
0.515212
0.515224
0.515286
0.51537
0.515422
0.515431
0.515389
0.515252
0.515126
0.515066
0.514964
0.514821
0.514761
0.514678
0.514498
0.514337
0.514269
0.514208
0.514072
0.514091
0.51421
0.514499
0.515097
0.515985
0.516969
0.517973
0.518888
0.519533
0.519822
0.520042
0.519864
0.519584
0.519036
0.517925
0.517941
0.518622
0.521047
0.525952
0.533852
0.543812
0.569548
0.515033
0.515086
0.515186
0.515289
0.515358
0.5154
0.515442
0.515493
0.51554
0.515584
0.515625
0.51563
0.51562
0.515608
0.515568
0.515459
0.515329
0.515253
0.515205
0.515184
0.515195
0.515246
0.515264
0.515253
0.515201
0.515109
0.515057
0.515035
0.51505
0.515162
0.515348
0.515464
0.515533
0.515614
0.515746
0.515822
0.515824
0.515802
0.515797
0.515844
0.515999
0.516132
0.516152
0.516164
0.516282
0.516444
0.516465
0.516451
0.516419
0.516356
0.516226
0.516104
0.516092
0.516126
0.51613
0.5161
0.516069
0.516055
0.515987
0.515947
0.515885
0.515627
0.515491
0.515539
0.515665
0.515634
0.515336
0.515048
0.514971
0.514884
0.514762
0.5148
0.514829
0.514905
0.515133
0.515531
0.516181
0.517088
0.518248
0.519454
0.520652
0.52173
0.522582
0.523125
0.523698
0.523706
0.52341
0.523198
0.523007
0.522638
0.522361
0.522531
0.523705
0.526432
0.529733
0.53357
0.538631
0.546269
0.555115
0.576775
0.517205
0.517205
0.517227
0.517286
0.517333
0.517361
0.51738
0.517401
0.517447
0.517478
0.517482
0.51747
0.517422
0.517415
0.517421
0.517385
0.517269
0.517242
0.517219
0.517177
0.517174
0.517194
0.517217
0.517184
0.516947
0.516793
0.5168
0.51681
0.516773
0.516777
0.516787
0.516779
0.516741
0.516695
0.516697
0.516726
0.516725
0.516711
0.516722
0.516779
0.516863
0.516946
0.517044
0.517155
0.517185
0.517119
0.517049
0.517036
0.517016
0.516936
0.516758
0.516609
0.516535
0.516402
0.516117
0.515986
0.515945
0.515914
0.516005
0.516207
0.51623
0.516076
0.515807
0.515814
0.516111
0.516635
0.516999
0.517166
0.517501
0.518239
0.519258
0.520314
0.521338
0.522414
0.523536
0.524716
0.525753
0.526628
0.527388
0.52798
0.528372
0.528658
0.528576
0.528517
0.528511
0.52815
0.527397
0.527479
0.528109
0.529159
0.531016
0.53407
0.537796
0.541136
0.544127
0.547157
0.551408
0.55822
0.565146
0.582378
0.519088
0.519072
0.519076
0.519104
0.519104
0.519107
0.519114
0.519121
0.519134
0.51917
0.519214
0.51925
0.519289
0.519291
0.519283
0.519286
0.519303
0.519324
0.519353
0.519395
0.519385
0.519288
0.519051
0.518963
0.518977
0.519002
0.518982
0.51896
0.518987
0.518967
0.51883
0.518845
0.518948
0.518942
0.518843
0.518799
0.518802
0.518851
0.519031
0.519271
0.519289
0.519245
0.519297
0.519499
0.51965
0.519877
0.520204
0.520234
0.520254
0.520311
0.520388
0.520531
0.520736
0.521039
0.521529
0.522092
0.522566
0.522959
0.523385
0.523973
0.524635
0.525333
0.52605
0.526857
0.527818
0.528428
0.528844
0.529486
0.530505
0.531412
0.532168
0.532769
0.533245
0.533747
0.534151
0.534519
0.534729
0.534777
0.534901
0.534849
0.534615
0.534709
0.534635
0.534753
0.535443
0.536671
0.53848
0.540761
0.5437
0.547221
0.550493
0.55314
0.55543
0.556693
0.557595
0.55925
0.562614
0.568549
0.575102
0.589268
0.527196
0.527229
0.527269
0.527311
0.52736
0.527413
0.527464
0.527524
0.527604
0.527679
0.527748
0.527823
0.52791
0.528008
0.528105
0.528205
0.528329
0.528448
0.52854
0.528649
0.528772
0.528868
0.528961
0.529074
0.529209
0.529339
0.529428
0.529481
0.529525
0.529582
0.52967
0.52978
0.529901
0.530024
0.530189
0.530432
0.530672
0.530907
0.531145
0.531425
0.531838
0.532163
0.532314
0.532455
0.532666
0.53296
0.533278
0.533584
0.533913
0.534276
0.534653
0.535015
0.535374
0.53576
0.536154
0.536531
0.53686
0.537155
0.537438
0.53776
0.538255
0.538771
0.539175
0.539579
0.539762
0.53996
0.540232
0.540857
0.541179
0.541266
0.541573
0.541968
0.541991
0.542259
0.5425
0.542622
0.543163
0.54379
0.54446
0.545359
0.546827
0.548767
0.55104
0.553502
0.55612
0.558968
0.561623
0.564019
0.565877
0.56748
0.568674
0.569054
0.56959
0.569783
0.570015
0.571109
0.573347
0.578082
0.587144
0.609156
0.5429
0.542949
0.543014
0.543085
0.543142
0.543194
0.543247
0.543308
0.543387
0.543461
0.543525
0.543594
0.543675
0.543769
0.543865
0.543949
0.544036
0.544151
0.544262
0.544362
0.54448
0.544607
0.544726
0.544847
0.544957
0.545073
0.545197
0.545317