/*--------------------------------*- C++ -*----------------------------------*\
  =========                 |
  \\      /  F ield         | OpenFOAM: The Open Source CFD Toolbox
   \\    /   O peration     | Website:  https://openfoam.org
    \\  /    A nd           | Version:  7
     \\/     M anipulation  |
\*---------------------------------------------------------------------------*/
FoamFile
{
    version     2.0;
    format      ascii;
    class       volVectorField;
    location    "9.2";
    object      U;
}
// * * * * * * * * * * * * * * * * * * * * * * * * * * * * * * * * * * * * * //

dimensions      [0 1 -1 0 0 0 0];

internalField   nonuniform List<vector> 
8400
(
(2.42108 -0.6087 0)
(2.4327 -0.220996 0)
(2.44742 0.0109135 0)
(2.469 0.0960476 0)
(2.45222 0.282031 0)
(2.48489 0.285354 0)
(2.4842 0.397731 0)
(2.50089 0.415428 0)
(2.52439 0.410266 0)
(2.55619 0.408377 0)
(2.59797 0.41454 0)
(2.62249 0.386099 0)
(2.64075 0.336375 0)
(2.6648 0.283433 0)
(2.69549 0.242487 0)
(2.71063 0.200666 0)
(2.71726 0.183831 0)
(2.70961 0.140598 0)
(2.73525 0.156666 0)
(2.74393 0.184679 0)
(2.75456 0.20819 0)
(2.76243 0.221321 0)
(2.76798 0.21918 0)
(2.77073 0.212681 0)
(2.77152 0.195374 0)
(2.77066 0.165576 0)
(2.77306 0.131097 0)
(2.78248 0.112051 0)
(2.79418 0.103596 0)
(2.80342 0.118669 0)
(2.57604 -1.39881 0)
(2.60338 -1.39388 0)
(2.61091 -1.35131 0)
(2.61404 -1.21121 0)
(2.57574 -0.979673 0)
(2.54783 -0.822447 0)
(2.4764 -0.519482 0)
(2.45759 -0.342785 0)
(2.43661 -0.179952 0)
(2.44454 -0.0929673 0)
(2.43251 0.0632894 0)
(2.44553 0.122791 0)
(2.45457 0.125862 0)
(2.47847 0.0906274 0)
(2.49351 0.135134 0)
(2.52598 0.152174 0)
(2.53255 0.149686 0)
(2.5317 0.141179 0)
(2.55201 0.145386 0)
(2.56756 0.146441 0)
(2.57423 0.146333 0)
(2.578 0.1507 0)
(2.58252 0.15007 0)
(2.5936 0.148201 0)
(2.60669 0.144052 0)
(2.61508 0.130165 0)
(2.62561 0.117664 0)
(2.64491 0.111782 0)
(2.66133 0.128461 0)
(2.6796 0.118556 0)
(2.81163 -1.4543 0)
(2.85551 -1.47112 0)
(2.89143 -1.50231 0)
(2.92339 -1.53828 0)
(2.95211 -1.57641 0)
(2.9938 -1.60783 0)
(3.00608 -1.65624 0)
(2.99722 -1.63389 0)
(2.93309 -1.49244 0)
(2.83104 -1.30501 0)
(2.67797 -0.915071 0)
(2.61204 -0.645939 0)
(2.49021 -0.301548 0)
(2.42536 -0.0848172 0)
(2.3761 0.0640031 0)
(2.36255 0.221473 0)
(2.36686 0.325249 0)
(2.38548 0.296338 0)
(2.40114 0.255227 0)
(2.43092 0.201188 0)
(2.44954 0.127531 0)
(2.47201 0.0990047 0)
(2.47865 0.10161 0)
(2.48235 0.131324 0)
(2.48678 0.143155 0)
(2.49785 0.143867 0)
(2.5114 0.137073 0)
(2.5285 0.12776 0)
(2.5427 0.120704 0)
(2.56128 0.109292 0)
(2.94592 -1.60362 0)
(2.97958 -1.62008 0)
(3.00259 -1.64525 0)
(3.01306 -1.65742 0)
(3.03804 -1.67993 0)
(3.04396 -1.70457 0)
(3.04839 -1.71354 0)
(3.05531 -1.72102 0)
(3.06147 -1.72341 0)
(3.06819 -1.72738 0)
(3.06687 -1.72576 0)
(3.06685 -1.72106 0)
(3.01992 -1.60507 0)
(2.92082 -1.36374 0)
(2.76515 -1.02404 0)
(2.65462 -0.638958 0)
(2.59851 -0.287069 0)
(2.60231 -0.150808 0)
(2.53557 0.0150606 0)
(2.49397 0.0806938 0)
(2.49088 0.0949404 0)
(2.49721 0.0992901 0)
(2.50116 0.116356 0)
(2.4999 0.115725 0)
(2.48586 0.0949423 0)
(2.48816 0.0968303 0)
(2.49097 0.0997866 0)
(2.49498 0.0997136 0)
(2.50214 0.106062 0)
(2.51616 0.0932191 0)
(3.0516 -1.71005 0)
(3.04761 -1.72137 0)
(3.04385 -1.72567 0)
(3.04137 -1.72851 0)
(3.04385 -1.72568 0)
(3.04529 -1.72565 0)
(3.04958 -1.72627 0)
(3.05832 -1.72452 0)
(3.06529 -1.71995 0)
(3.07444 -1.71985 0)
(3.06778 -1.71617 0)
(3.05174 -1.69811 0)
(3.05777 -1.67667 0)
(3.08424 -1.64304 0)
(3.09516 -1.63912 0)
(3.08112 -1.67778 0)
(3.02117 -1.48949 0)
(2.95309 -1.20745 0)
(2.80767 -0.735034 0)
(2.70735 -0.372682 0)
(2.64737 -0.140124 0)
(2.59874 0.0181515 0)
(2.57035 0.120312 0)
(2.5433 0.102902 0)
(2.53566 0.0764231 0)
(2.56016 0.0930946 0)
(2.55191 0.0853514 0)
(2.53598 0.0630353 0)
(2.53447 0.0646899 0)
(2.53854 0.0675237 0)
(3.06734 -1.75061 0)
(3.06125 -1.74999 0)
(3.05828 -1.74691 0)
(3.05863 -1.74474 0)
(3.06024 -1.7397 0)
(3.06439 -1.72574 0)
(3.06638 -1.7044 0)
(3.07283 -1.65645 0)
(3.09312 -1.6148 0)
(3.10624 -1.58578 0)
(3.08139 -1.59526 0)
(3.05852 -1.63523 0)
(3.06247 -1.6133 0)
(3.10128 -1.53285 0)
(3.12341 -1.51807 0)
(3.12313 -1.52978 0)
(3.12257 -1.55153 0)
(3.11594 -1.53098 0)
(3.11751 -1.5125 0)
(3.08729 -1.4262 0)
(2.99827 -1.13338 0)
(2.88462 -0.743772 0)
(2.82338 -0.419477 0)
(2.78476 -0.214631 0)
(2.74894 -0.0484351 0)
(2.69115 0.0979169 0)
(2.65016 0.0751183 0)
(2.61271 0.114476 0)
(2.61991 0.126667 0)
(2.60993 0.113567 0)
(3.09228 -1.59483 0)
(3.0943 -1.59566 0)
(3.09689 -1.59781 0)
(3.10073 -1.5895 0)
(3.09514 -1.59163 0)
(3.09061 -1.58295 0)
(3.08939 -1.56354 0)
(3.09205 -1.5498 0)
(3.10511 -1.52709 0)
(3.12415 -1.51011 0)
(3.11753 -1.51864 0)
(3.10185 -1.54539 0)
(3.08818 -1.57579 0)
(3.08971 -1.5527 0)
(3.11115 -1.48709 0)
(3.13782 -1.44374 0)
(3.14772 -1.43969 0)
(3.14966 -1.42755 0)
(3.14243 -1.38923 0)
(3.1325 -1.38377 0)
(3.12916 -1.3714 0)
(3.12544 -1.38442 0)
(3.10347 -1.2867 0)
(3.05493 -1.02454 0)
(3.02495 -0.756703 0)
(2.90341 -0.405361 0)
(2.93767 -0.235087 0)
(2.7958 0.00840968 0)
(2.72558 0.08562 0)
(2.69465 0.11892 0)
(3.10486 -1.55475 0)
(3.10944 -1.55299 0)
(3.10797 -1.56174 0)
(3.10918 -1.56293 0)
(3.10527 -1.56811 0)
(3.10392 -1.55792 0)
(3.10353 -1.54235 0)
(3.10368 -1.53242 0)
(3.11118 -1.50661 0)
(3.12258 -1.48432 0)
(3.13451 -1.45611 0)
(3.15474 -1.42673 0)
(3.14942 -1.42255 0)
(3.13161 -1.43528 0)
(3.1238 -1.39781 0)
(3.1333 -1.35279 0)
(3.14371 -1.3386 0)
(3.1465 -1.32987 0)
(3.13602 -1.32825 0)
(3.13205 -1.30808 0)
(3.13329 -1.30711 0)
(3.13606 -1.28863 0)
(3.13807 -1.26396 0)
(3.14131 -1.25882 0)
(3.14074 -1.24033 0)
(3.11131 -1.1403 0)
(3.09462 -0.957608 0)
(3.00996 -0.576708 0)
(3.00574 -0.432362 0)
(2.86039 -0.0718597 0)
(3.15012 -1.40496 0)
(3.15255 -1.3941 0)
(3.15473 -1.38117 0)
(3.15935 -1.36963 0)
(3.16468 -1.35401 0)
(3.17239 -1.33954 0)
(3.17184 -1.33332 0)
(3.1659 -1.3337 0)
(3.15728 -1.31586 0)
(3.15149 -1.2824 0)
(3.16334 -1.25406 0)
(3.17555 -1.25068 0)
(3.16604 -1.26896 0)
(3.16022 -1.27707 0)
(3.14886 -1.26105 0)
(3.13612 -1.25517 0)
(3.1372 -1.24538 0)
(3.13899 -1.24662 0)
(3.14179 -1.23441 0)
(3.14262 -1.22884 0)
(3.14806 -1.21584 0)
(3.15276 -1.19315 0)
(3.14052 -1.15682 0)
(3.1377 -1.13777 0)
(3.1307 -1.12495 0)
(3.12178 -1.12962 0)
(3.12018 -1.1356 0)
(3.12233 -1.1296 0)
(3.11921 -1.04793 0)
(3.03626 -0.584064 0)
(3.17244 -1.26908 0)
(3.16886 -1.2612 0)
(3.16507 -1.25326 0)
(3.16538 -1.2344 0)
(3.16577 -1.23304 0)
(3.16823 -1.23303 0)
(3.1709 -1.2254 0)
(3.1691 -1.22325 0)
(3.15141 -1.23915 0)
(3.13255 -1.25441 0)
(3.13028 -1.23508 0)
(3.14979 -1.20685 0)
(3.15499 -1.18712 0)
(3.15958 -1.17646 0)
(3.15173 -1.17378 0)
(3.1422 -1.17003 0)
(3.14029 -1.15804 0)
(3.15014 -1.1379 0)
(3.15153 -1.12288 0)
(3.14755 -1.0983 0)
(3.14714 -1.08255 0)
(3.14198 -1.07087 0)
(3.1315 -1.06819 0)
(3.12309 -1.07588 0)
(3.12402 -1.0743 0)
(3.12536 -1.079 0)
(3.13144 -1.06376 0)
(3.13417 -1.04749 0)
(3.13643 -1.04524 0)
(3.13134 -1.02933 0)
(3.17882 -1.12563 0)
(3.17486 -1.12647 0)
(3.16426 -1.13718 0)
(3.15479 -1.13888 0)
(3.15244 -1.1119 0)
(3.16296 -1.0866 0)
(3.16389 -1.07171 0)
(3.16993 -1.057 0)
(3.16821 -1.0548 0)
(3.15866 -1.06518 0)
(3.14463 -1.07865 0)
(3.14487 -1.06851 0)
(3.14843 -1.05427 0)
(3.15245 -1.04173 0)
(3.15732 -1.03205 0)
(3.15033 -1.02344 0)
(3.14713 -1.01198 0)
(3.14505 -1.00713 0)
(3.14093 -1.00472 0)
(3.13832 -1.0002 0)
(3.13246 -1.0085 0)
(3.13126 -1.00627 0)
(3.12785 -1.01103 0)
(3.13076 -0.99891 0)
(3.13452 -0.992729 0)
(3.13969 -0.981638 0)
(3.13988 -0.974582 0)
(3.13856 -0.947627 0)
(3.13528 -0.940621 0)
(3.12863 -0.939363 0)
(3.17022 -0.947351 0)
(3.16884 -0.94688 0)
(3.16288 -0.9522 0)
(3.14775 -0.973224 0)
(3.1367 -0.969203 0)
(3.14353 -0.943565 0)
(3.14835 -0.92869 0)
(3.1576 -0.9169 0)
(3.15926 -0.921727 0)
(3.15516 -0.925946 0)
(3.14789 -0.933807 0)
(3.13722 -0.926032 0)
(3.13972 -0.915816 0)
(3.14523 -0.913128 0)
(3.14595 -0.916665 0)
(3.14318 -0.919434 0)
(3.1386 -0.917621 0)
(3.13547 -0.916816 0)
(3.13333 -0.918579 0)
(3.13439 -0.920571 0)
(3.13587 -0.919503 0)
(3.13765 -0.915238 0)
(3.1406 -0.903654 0)
(3.14121 -0.894109 0)
(3.13923 -0.878737 0)
(3.13699 -0.875703 0)
(3.13204 -0.877156 0)
(3.12784 -0.884492 0)
(3.12268 -0.903014 0)
(3.1278 -0.898192 0)
(3.16043 -0.778513 0)
(3.15583 -0.789116 0)
(3.15339 -0.789925 0)
(3.14315 -0.798784 0)
(3.13126 -0.810214 0)
(3.13273 -0.798055 0)
(3.13901 -0.783825 0)
(3.14482 -0.767511 0)
(3.15168 -0.774456 0)
(3.14515 -0.79306 0)
(3.13945 -0.798459 0)
(3.13286 -0.796525 0)
(3.1337 -0.794945 0)
(3.13864 -0.792401 0)
(3.14035 -0.792813 0)
(3.13843 -0.797069 0)
(3.13615 -0.799898 0)
(3.13512 -0.799378 0)
(3.13857 -0.790097 0)
(3.13885 -0.786246 0)
(3.13894 -0.783935 0)
(3.13561 -0.781161 0)
(3.13386 -0.782726 0)
(3.13217 -0.786131 0)
(3.13089 -0.792886 0)
(3.12682 -0.807875 0)
(3.12705 -0.808619 0)
(3.12844 -0.816438 0)
(3.13078 -0.815464 0)
(3.13195 -0.815105 0)
(3.13171 -0.577442 0)
(3.14214 -0.612197 0)
(3.13652 -0.629139 0)
(3.13444 -0.634046 0)
(3.12279 -0.648991 0)
(3.11808 -0.653912 0)
(3.12318 -0.646556 0)
(3.12855 -0.630347 0)
(3.13932 -0.617231 0)
(3.13707 -0.634041 0)
(3.13041 -0.648423 0)
(3.12229 -0.659555 0)
(3.12215 -0.659907 0)
(3.1279 -0.657636 0)
(3.13293 -0.661046 0)
(3.13195 -0.665546 0)
(3.12975 -0.666728 0)
(3.12704 -0.67365 0)
(3.12672 -0.683755 0)
(3.12729 -0.689306 0)
(3.12735 -0.697168 0)
(3.1256 -0.702391 0)
(3.12672 -0.715562 0)
(3.12627 -0.723167 0)
(3.12685 -0.725757 0)
(3.12904 -0.72778 0)
(3.13072 -0.729434 0)
(3.13174 -0.727544 0)
(3.1336 -0.714818 0)
(3.12941 -0.72149 0)
(3.09367 -0.403446 0)
(3.11597 -0.421907 0)
(3.12169 -0.458632 0)
(3.11502 -0.475519 0)
(3.10979 -0.480806 0)
(3.09385 -0.496736 0)
(3.09252 -0.500556 0)
(3.10305 -0.492045 0)
(3.12113 -0.480265 0)
(3.12335 -0.491822 0)
(3.11911 -0.507602 0)
(3.11017 -0.524978 0)
(3.10619 -0.525829 0)
(3.11046 -0.526833 0)
(3.11859 -0.537826 0)
(3.11767 -0.546362 0)
(3.11659 -0.548072 0)
(3.11826 -0.558231 0)
(3.11839 -0.566277 0)
(3.11735 -0.571529 0)
(3.11839 -0.579969 0)
(3.12101 -0.581047 0)
(3.12176 -0.587057 0)
(3.12042 -0.586432 0)
(3.1204 -0.597372 0)
(3.12133 -0.601893 0)
(3.11902 -0.604077 0)
(3.12044 -0.61788 0)
(3.12272 -0.635105 0)
(3.12263 -0.647054 0)
(3.06779 -0.258413 0)
(3.0787 -0.251387 0)
(3.09319 -0.283779 0)
(3.0865 -0.309763 0)
(3.08414 -0.315803 0)
(3.07106 -0.344104 0)
(3.06402 -0.361485 0)
(3.07507 -0.357045 0)
(3.09603 -0.336607 0)
(3.10145 -0.342428 0)
(3.0993 -0.359255 0)
(3.09137 -0.386372 0)
(3.08558 -0.392236 0)
(3.08968 -0.390856 0)
(3.10007 -0.407059 0)
(3.09968 -0.418526 0)
(3.09882 -0.420032 0)
(3.10217 -0.43175 0)
(3.10316 -0.443529 0)
(3.1024 -0.459192 0)
(3.10294 -0.465222 0)
(3.10697 -0.478263 0)
(3.10855 -0.488633 0)
(3.1093 -0.507052 0)
(3.10932 -0.514942 0)
(3.11053 -0.526535 0)
(3.11245 -0.545268 0)
(3.11344 -0.554704 0)
(3.11475 -0.567798 0)
(3.11628 -0.579753 0)
(3.02697 -0.114866 0)
(3.03448 -0.0981526 0)
(3.04967 -0.111831 0)
(3.04981 -0.14963 0)
(3.04827 -0.160302 0)
(3.04301 -0.18699 0)
(3.03523 -0.218516 0)
(3.0398 -0.221898 0)
(3.06028 -0.200183 0)
(3.0695 -0.196581 0)
(3.07051 -0.213831 0)
(3.06504 -0.246676 0)
(3.05697 -0.258422 0)
(3.05967 -0.256666 0)
(3.07487 -0.280572 0)
(3.07496 -0.291036 0)
(3.075 -0.296073 0)
(3.07924 -0.308985 0)
(3.08112 -0.325742 0)
(3.07988 -0.339542 0)
(3.08267 -0.355084 0)
(3.0871 -0.364221 0)
(3.0907 -0.376799 0)
(3.09154 -0.39188 0)
(3.09225 -0.404689 0)
(3.0952 -0.417822 0)
(3.09778 -0.42996 0)
(3.09839 -0.437546 0)
(3.09871 -0.442718 0)
(3.10184 -0.465514 0)
(2.97452 0.0204582 0)
(2.98168 0.0333442 0)
(2.9932 0.0382524 0)
(3.00143 0.00913157 0)
(2.99893 -0.0146178 0)
(3.00261 -0.035119 0)
(2.99756 -0.0732879 0)
(2.9963 -0.0843689 0)
(3.01126 -0.0686636 0)
(3.02341 -0.059278 0)
(3.03194 -0.0757986 0)
(3.02928 -0.110294 0)
(3.02004 -0.126095 0)
(3.02034 -0.124923 0)
(3.03785 -0.150449 0)
(3.04076 -0.167805 0)
(3.04147 -0.170421 0)
(3.04807 -0.186175 0)
(3.05214 -0.20892 0)
(3.05003 -0.21921 0)
(3.05509 -0.240635 0)
(3.06059 -0.252561 0)
(3.06565 -0.266671 0)
(3.06837 -0.284365 0)
(3.07103 -0.305171 0)
(3.07436 -0.318215 0)
(3.07714 -0.32973 0)
(3.08185 -0.354501 0)
(3.08464 -0.373759 0)
(3.08889 -0.39467 0)
(2.91278 0.15355 0)
(2.91738 0.156292 0)
(2.92596 0.164255 0)
(2.93621 0.160947 0)
(2.94132 0.130949 0)
(2.94734 0.109278 0)
(2.95014 0.0744807 0)
(2.94428 0.0546153 0)
(2.95403 0.060029 0)
(2.96322 0.0718426 0)
(2.97748 0.0554321 0)
(2.98083 0.0191787 0)
(2.97587 0.00419169 0)
(2.9775 0.00389527 0)
(2.99321 -0.0255239 0)
(2.99643 -0.0418856 0)
(3.00004 -0.0520324 0)
(3.00861 -0.0678347 0)
(3.01466 -0.0863808 0)
(3.01689 -0.105888 0)
(3.02076 -0.12216 0)
(3.02811 -0.140427 0)
(3.03461 -0.15728 0)
(3.03946 -0.175804 0)
(3.04337 -0.195653 0)
(3.04735 -0.21126 0)
(3.054 -0.235636 0)
(3.05796 -0.248283 0)
(3.06124 -0.263069 0)
(3.06778 -0.293995 0)
(2.84626 0.305812 0)
(2.85265 0.296298 0)
(2.86237 0.279895 0)
(2.86919 0.278429 0)
(2.87564 0.271642 0)
(2.88893 0.240782 0)
(2.88706 0.221543 0)
(2.88613 0.210959 0)
(2.89206 0.206338 0)
(2.89626 0.20591 0)
(2.91598 0.178454 0)
(2.92302 0.142626 0)
(2.92389 0.139668 0)
(2.92835 0.136408 0)
(2.9445 0.102111 0)
(2.94781 0.0844273 0)
(2.95301 0.070316 0)
(2.9638 0.048898 0)
(2.97141 0.031069 0)
(2.97765 0.0102753 0)
(2.98366 -0.00877616 0)
(2.99123 -0.027508 0)
(2.99975 -0.0502394 0)
(3.00541 -0.0672232 0)
(3.01215 -0.0895868 0)
(3.01906 -0.111575 0)
(3.0249 -0.128808 0)
(3.03196 -0.152976 0)
(3.03769 -0.174236 0)
(3.04617 -0.204858 0)
(2.81669 0.371498 0)
(2.81758 0.368926 0)
(2.82038 0.364983 0)
(2.82422 0.360788 0)
(2.82774 0.35932 0)
(2.83281 0.353144 0)
(2.83499 0.34618 0)
(2.83612 0.340311 0)
(2.84085 0.330344 0)
(2.84725 0.320424 0)
(2.85776 0.303992 0)
(2.86545 0.286196 0)
(2.86904 0.275707 0)
(2.87602 0.261402 0)
(2.88851 0.234497 0)
(2.89512 0.216826 0)
(2.90405 0.196774 0)
(2.91372 0.176251 0)
(2.924 0.15256 0)
(2.93288 0.130509 0)
(2.94279 0.104887 0)
(2.95106 0.0851716 0)
(2.96095 0.061175 0)
(2.97008 0.0367242 0)
(2.97843 0.0136862 0)
(2.98631 -0.00742026 0)
(2.99548 -0.0328212 0)
(3.00303 -0.0545636 0)
(3.01023 -0.0769093 0)
(3.02148 -0.11282 0)
(2.8206 0.366296 0)
(2.82095 0.36636 0)
(2.82123 0.368418 0)
(2.82047 0.373257 0)
(2.82078 0.375992 0)
(2.82034 0.376939 0)
(2.8205 0.376589 0)
(2.8205 0.374453 0)
(2.82201 0.368608 0)
(2.82336 0.364175 0)
(2.8247 0.362172 0)
(2.8269 0.362764 0)
(2.83008 0.361971 0)
(2.83654 0.352657 0)
(2.84139 0.341655 0)
(2.84626 0.331587 0)
(2.85353 0.318468 0)
(2.86316 0.299509 0)
(2.87299 0.278622 0)
(2.88299 0.257553 0)
(2.89476 0.23163 0)
(2.90516 0.207039 0)
(2.91763 0.177413 0)
(2.92807 0.152001 0)
(2.9395 0.123857 0)
(2.95071 0.0958949 0)
(2.9614 0.0687066 0)
(2.97132 0.0430173 0)
(2.9808 0.0175126 0)
(2.99465 -0.0214787 0)
(2.84402 0.318001 0)
(2.84104 0.337392 0)
(2.84406 0.349909 0)
(2.84277 0.35051 0)
(2.83761 0.342748 0)
(2.83518 0.339568 0)
(2.83693 0.346724 0)
(2.8357 0.356055 0)
(2.83625 0.362638 0)
(2.83107 0.36044 0)
(2.82862 0.35919 0)
(2.82927 0.360815 0)
(2.83087 0.3634 0)
(2.83191 0.363173 0)
(2.8323 0.362234 0)
(2.83267 0.361389 0)
(2.83351 0.358954 0)
(2.83497 0.35612 0)
(2.83831 0.351632 0)
(2.84333 0.345048 0)
(2.85034 0.334152 0)
(2.85853 0.318621 0)
(2.86861 0.29776 0)
(2.87979 0.273712 0)
(2.89326 0.244371 0)
(2.90589 0.215373 0)
(2.91991 0.182113 0)
(2.93291 0.150638 0)
(2.94526 0.120249 0)
(2.96314 0.0741836 0)
(2.93056 0.150423 0)
(2.9291 0.157353 0)
(2.91709 0.18523 0)
(2.9141 0.21013 0)
(2.91203 0.204725 0)
(2.90058 0.212998 0)
(2.88862 0.23679 0)
(2.88572 0.256424 0)
(2.88201 0.269869 0)
(2.88061 0.268553 0)
(2.86963 0.283268 0)
(2.85734 0.313941 0)
(2.85457 0.322105 0)
(2.85443 0.317553 0)
(2.8458 0.333375 0)
(2.84604 0.339156 0)
(2.84234 0.344702 0)
(2.83875 0.349964 0)
(2.8392 0.349 0)
(2.84046 0.347751 0)
(2.84103 0.347296 0)
(2.84195 0.346844 0)
(2.84396 0.344593 0)
(2.84743 0.340087 0)
(2.85332 0.330789 0)
(2.8615 0.316368 0)
(2.87299 0.294462 0)
(2.88582 0.267728 0)
(2.89991 0.236842 0)
(2.92221 0.184322 0)
(2.99019 0.0213195 0)
(2.98777 0.0263119 0)
(2.98611 0.0294029 0)
(2.98324 0.0375148 0)
(2.98185 0.0415308 0)
(2.97714 0.0499845 0)
(2.97202 0.0585679 0)
(2.96613 0.0713166 0)
(2.96155 0.0820451 0)
(2.95336 0.101364 0)
(2.94714 0.112446 0)
(2.93679 0.133456 0)
(2.92573 0.160196 0)
(2.91975 0.172455 0)
(2.90288 0.208276 0)
(2.89947 0.21988 0)
(2.88443 0.251667 0)
(2.87514 0.270457 0)
(2.87085 0.280687 0)
(2.85721 0.312324 0)
(2.856 0.314678 0)
(2.84979 0.326339 0)
(2.84651 0.33405 0)
(2.84706 0.335085 0)
(2.84737 0.33505 0)
(2.84803 0.33457 0)
(2.84986 0.332691 0)
(2.85373 0.328355 0)
(2.85979 0.319627 0)
(2.87649 0.288462 0)
(2.99971 0.000603785 0)
(2.99962 0.000775731 0)
(2.99951 0.000973533 0)
(2.99933 0.0013421 0)
(2.99916 0.00172217 0)
(2.99889 0.0022395 0)
(2.99844 0.00303379 0)
(2.99782 0.00414994 0)
(2.99698 0.00583881 0)
(2.99591 0.00792137 0)
(2.9943 0.0110755 0)
(2.99213 0.0149608 0)
(2.98864 0.0225286 0)
(2.98568 0.0282249 0)
(2.97902 0.0413691 0)
(2.97296 0.0539004 0)
(2.96365 0.0733018 0)
(2.95313 0.0959808 0)
(2.94294 0.117059 0)
(2.92444 0.157951 0)
(2.91815 0.173703 0)
(2.89668 0.218303 0)
(2.88519 0.244749 0)
(2.87839 0.26141 0)
(2.86151 0.299402 0)
(2.85812 0.306872 0)
(2.85586 0.312072 0)
(2.85232 0.323736 0)
(2.85259 0.324463 0)
(2.85535 0.320676 0)
(3 5.27349e-06 0)
(3 6.56061e-06 0)
(3 8.95848e-06 0)
(2.99999 1.18306e-05 0)
(2.99999 1.73275e-05 0)
(2.99999 2.31869e-05 0)
(2.99998 3.51224e-05 0)
(2.99997 5.12493e-05 0)
(2.99995 8.01717e-05 0)
(2.99993 0.000126587 0)
(2.99989 0.000195775 0)
(2.99981 0.000334711 0)
(2.99969 0.000541686 0)
(2.99949 0.000935511 0)
(2.99916 0.00148751 0)
(2.99852 0.00271242 0)
(2.99757 0.0044403 0)
(2.99593 0.00757779 0)
(2.99326 0.0127012 0)
(2.98925 0.0201282 0)
(2.98289 0.0334075 0)
(2.97445 0.0496551 0)
(2.96308 0.0732917 0)
(2.94755 0.106502 0)
(2.93287 0.136911 0)
(2.91406 0.178389 0)
(2.89666 0.217298 0)
(2.88236 0.248789 0)
(2.87141 0.274839 0)
(2.862 0.299396 0)
(3 2.7557e-08 0)
(3 3.56045e-08 0)
(3 4.58717e-08 0)
(3 6.43216e-08 0)
(3 8.73056e-08 0)
(3 1.2758e-07 0)
(3 1.82188e-07 0)
(3 2.8436e-07 0)
(3 4.38026e-07 0)
(3 7.26618e-07 0)
(3 1.20283e-06 0)
(3 2.11155e-06 0)
(3 3.89656e-06 0)
(3 7.0089e-06 0)
(2.99999 1.36891e-05 0)
(2.99998 2.71435e-05 0)
(2.99997 5.57067e-05 0)
(2.99993 0.000116846 0)
(2.99986 0.000241579 0)
(2.9997 0.000537315 0)
(2.99937 0.0011 0)
(2.99867 0.00241631 0)
(2.99734 0.00485456 0)
(2.99472 0.00980073 0)
(2.99025 0.0184183 0)
(2.98237 0.0339951 0)
(2.97173 0.0552749 0)
(2.95495 0.090022 0)
(2.93849 0.124755 0)
(2.90818 0.191829 0)
(3 1.20382e-10 0)
(3 1.52899e-10 0)
(3 2.06298e-10 0)
(3 2.77268e-10 0)
(3 3.93506e-10 0)
(3 5.49572e-10 0)
(3 8.1755e-10 0)
(3 1.21324e-09 0)
(3 1.9164e-09 0)
(3 3.07931e-09 0)
(3 5.16614e-09 0)
(3 9.08162e-09 0)
(3 1.65799e-08 0)
(3 3.12796e-08 0)
(3 6.14129e-08 0)
(3 1.29677e-07 0)
(3 2.78684e-07 0)
(3 6.33029e-07 0)
(3 1.49403e-06 0)
(3 3.67499e-06 0)
(2.99999 9.38849e-06 0)
(2.99999 2.47075e-05 0)
(2.99996 6.57424e-05 0)
(2.9999 0.000180545 0)
(2.99973 0.000472793 0)
(2.99929 0.00128068 0)
(2.99829 0.00311655 0)
(2.99584 0.00778131 0)
(2.99184 0.0154255 0)
(2.97589 0.0483665 0)
(3 3.99998e-13 0)
(3 5.1594e-13 0)
(3 6.97154e-13 0)
(3 9.58805e-13 0)
(3 1.35135e-12 0)
(3 1.92132e-12 0)
(3 2.8382e-12 0)
(3 4.23609e-12 0)
(3 6.60495e-12 0)
(3 1.05519e-11 0)
(3 1.75423e-11 0)
(3 3.03505e-11 0)
(3 5.53701e-11 0)
(3 1.02621e-10 0)
(3 2.05361e-10 0)
(3 4.26399e-10 0)
(3 9.43305e-10 0)
(3 2.14708e-09 0)
(3 5.29652e-09 0)
(3 1.33455e-08 0)
(3 3.65871e-08 0)
(3 1.01333e-07 0)
(3 3.06735e-07 0)
(3 9.26941e-07 0)
(3 3.03754e-06 0)
(2.99999 9.8221e-06 0)
(2.99997 3.36688e-05 0)
(2.99991 0.000112959 0)
(2.99974 0.000335358 0)
(2.99797 0.0024963 0)
(2.42232 -1.32387 0)
(2.54046 -1.39149 0)
(2.77551 -1.42945 0)
(2.91329 -1.57547 0)
(3.04401 -1.68497 0)
(3.06762 -1.7576 0)
(3.09065 -1.59786 0)
(3.10013 -1.5604 0)
(3.14813 -1.41212 0)
(3.17475 -1.27852 0)
(3.18212 -1.11899 0)
(3.16271 -0.915451 0)
(3.1425 -0.735428 0)
(3.11726 -0.566068 0)
(3.0899 -0.42455 0)
(3.05925 -0.280561 0)
(3.01862 -0.134688 0)
(2.96875 0.00962025 0)
(2.91118 0.157129 0)
(2.84545 0.308714 0)
(2.81574 0.376281 0)
(2.82019 0.367136 0)
(2.86367 0.295193 0)
(2.93834 0.139197 0)
(2.99238 0.0171807 0)
(2.99978 0.00047381 0)
(3 4.32846e-06 0)
(3 2.2827e-08 0)
(3 9.8082e-11 0)
(3 3.23389e-13 0)
(2.4228 -1.31438 0)
(2.5619 -1.39339 0)
(2.7985 -1.44601 0)
(2.91626 -1.60062 0)
(3.04674 -1.69665 0)
(3.06377 -1.76068 0)
(3.09164 -1.5653 0)
(3.10126 -1.55441 0)
(3.15874 -1.40163 0)
(3.18881 -1.2577 0)
(3.17651 -1.01556 0)
(3.1451 -0.870514 0)
(3.13093 -0.72717 0)
(3.11229 -0.57757 0)
(3.08454 -0.430507 0)
(3.05569 -0.274691 0)
(3.01796 -0.120127 0)
(2.96848 0.0388072 0)
(2.9034 0.200503 0)
(2.83757 0.331381 0)
(2.81333 0.383541 0)
(2.82078 0.36986 0)
(2.87639 0.269731 0)
(2.95642 0.103593 0)
(2.99604 0.00935331 0)
(2.99992 0.000178231 0)
(3 1.35116e-06 0)
(3 7.60107e-09 0)
(3 3.66075e-11 0)
(3 1.26742e-13 0)
(2.418 -1.3152 0)
(2.56509 -1.394 0)
(2.79567 -1.46408 0)
(2.90653 -1.6075 0)
(3.045 -1.69168 0)
(3.05599 -1.76374 0)
(3.09134 -1.56592 0)
(3.09841 -1.57058 0)
(3.17051 -1.38921 0)
(3.19233 -1.2046 0)
(3.16915 -1.02195 0)
(3.13891 -0.901962 0)
(3.12744 -0.747432 0)
(3.11189 -0.587527 0)
(3.09444 -0.408207 0)
(3.06614 -0.229324 0)
(3.02279 -0.0601085 0)
(2.95742 0.108968 0)
(2.88241 0.258495 0)
(2.82626 0.355491 0)
(2.81241 0.385948 0)
(2.82472 0.375256 0)
(2.88221 0.27147 0)
(2.96633 0.0820895 0)
(2.99761 0.00574188 0)
(2.99996 8.93909e-05 0)
(3 6.12518e-07 0)
(3 3.3216e-09 0)
(3 1.55526e-11 0)
(3 5.11593e-14 0)
(2.41042 -1.31261 0)
(2.56662 -1.39608 0)
(2.79502 -1.4739 0)
(2.91114 -1.6144 0)
(3.03677 -1.69779 0)
(3.04307 -1.76142 0)
(3.09359 -1.56333 0)
(3.12057 -1.54694 0)
(3.18155 -1.31423 0)
(3.18455 -1.15277 0)
(3.16255 -1.04669 0)
(3.16271 -0.881335 0)
(3.15592 -0.69915 0)
(3.13933 -0.510713 0)
(3.09614 -0.299756 0)
(3.04142 -0.119162 0)
(2.98169 0.0405056 0)
(2.91911 0.174971 0)
(2.85915 0.293246 0)
(2.81578 0.370081 0)
(2.81512 0.382095 0)
(2.82974 0.365928 0)
(2.89006 0.255031 0)
(2.97373 0.0610325 0)
(2.99854 0.00327788 0)
(2.99998 4.09416e-05 0)
(3 2.66505e-07 0)
(3 1.41872e-09 0)
(3 6.50886e-12 0)
(3 1.87808e-14 0)
(2.40324 -1.30936 0)
(2.56663 -1.3935 0)
(2.79171 -1.4796 0)
(2.93349 -1.62106 0)
(3.03377 -1.69396 0)
(3.03502 -1.74663 0)
(3.09694 -1.55437 0)
(3.13251 -1.49195 0)
(3.17056 -1.26351 0)
(3.18009 -1.1662 0)
(3.18438 -1.01591 0)
(3.18367 -0.802518 0)
(3.14857 -0.598572 0)
(3.09798 -0.398441 0)
(3.05559 -0.230868 0)
(3.01445 -0.08358 0)
(2.9648 0.0549814 0)
(2.91023 0.173391 0)
(2.84843 0.302061 0)
(2.81073 0.377056 0)
(2.81461 0.375368 0)
(2.83932 0.341371 0)
(2.91288 0.190506 0)
(2.98287 0.0378221 0)
(2.99927 0.00153569 0)
(2.99999 1.71954e-05 0)
(3 1.09616e-07 0)
(3 5.83342e-10 0)
(3 2.67132e-12 0)
(3 5.06301e-15 0)
(2.39526 -1.30512 0)
(2.56548 -1.39039 0)
(2.78519 -1.48376 0)
(2.93408 -1.61602 0)
(3.0395 -1.6833 0)
(3.03643 -1.7407 0)
(3.10437 -1.51657 0)
(3.12501 -1.41374 0)
(3.16446 -1.31099 0)
(3.17863 -1.17492 0)
(3.19006 -0.921465 0)
(3.14866 -0.7173 0)
(3.11394 -0.542648 0)
(3.08383 -0.392009 0)
(3.05237 -0.259081 0)
(3.01147 -0.111106 0)
(2.96087 0.0351573 0)
(2.90198 0.18083 0)
(2.83908 0.323658 0)
(2.80897 0.383893 0)
(2.81323 0.374679 0)
(2.84452 0.322461 0)
(2.93805 0.143934 0)
(2.9906 0.0224753 0)
(2.99968 0.000712365 0)
(3 6.89793e-06 0)
(3 4.32301e-08 0)
(3 2.30329e-10 0)
(3 1.06228e-12 0)
(3 -8.47685e-16 0)
(2.38425 -1.29883 0)
(2.56268 -1.38617 0)
(2.78436 -1.48205 0)
(2.93342 -1.61347 0)
(3.04317 -1.67642 0)
(3.04632 -1.71731 0)
(3.10811 -1.49961 0)
(3.12457 -1.42585 0)
(3.15803 -1.33218 0)
(3.20136 -1.10901 0)
(3.15927 -0.850918 0)
(3.1302 -0.725646 0)
(3.10824 -0.575204 0)
(3.07889 -0.421178 0)
(3.04766 -0.264359 0)
(3.01002 -0.0990519 0)
(2.96004 0.0685142 0)
(2.8861 0.244054 0)
(2.82474 0.357524 0)
(2.80743 0.391466 0)
(2.81097 0.377787 0)
(2.86347 0.291116 0)
(2.94716 0.131496 0)
(2.99438 0.0144385 0)
(2.99986 0.000336854 0)
(3 2.86812e-06 0)
(3 1.71753e-08 0)
(3 9.00401e-11 0)
(3 4.10637e-13 0)
(3 -3.69551e-15 0)
(2.37414 -1.29249 0)
(2.55198 -1.37429 0)
(2.78498 -1.48213 0)
(2.92707 -1.61962 0)
(3.05008 -1.66076 0)
(3.05438 -1.70131 0)
(3.09898 -1.53726 0)
(3.1254 -1.44552 0)
(3.18746 -1.29936 0)
(3.19818 -0.996423 0)
(3.15486 -0.883529 0)
(3.12559 -0.733942 0)
(3.10994 -0.576635 0)
(3.0908 -0.39348 0)
(3.06077 -0.190177 0)
(3.0072 -0.00379184 0)
(2.93446 0.163222 0)
(2.8614 0.29362 0)
(2.8154 0.372907 0)
(2.80679 0.394001 0)
(2.81624 0.38528 0)
(2.87938 0.277761 0)
(2.95974 0.103486 0)
(2.99661 0.00856014 0)
(2.99993 0.000160363 0)
(3 1.20404e-06 0)
(3 6.92595e-09 0)
(3 3.54355e-11 0)
(3 1.56201e-13 0)
(3 -4.89136e-15 0)
(2.36087 -1.28581 0)
(2.53462 -1.36115 0)
(2.7822 -1.48515 0)
(2.91165 -1.64476 0)
(3.05672 -1.65376 0)
(3.05773 -1.7143 0)
(3.09822 -1.54633 0)
(3.1524 -1.43171 0)
(3.20873 -1.16491 0)
(3.19663 -1.00256 0)
(3.15924 -0.883663 0)
(3.15166 -0.691513 0)
(3.13755 -0.497939 0)
(3.09267 -0.273486 0)
(3.02525 -0.0716925 0)
(2.96255 0.0833973 0)
(2.90557 0.204565 0)
(2.84994 0.306212 0)
(2.80909 0.380815 0)
(2.80813 0.39164 0)
(2.82262 0.385756 0)
(2.88373 0.277616 0)
(2.97126 0.0681034 0)
(2.99809 0.00442793 0)
(2.99997 6.61041e-05 0)
(3 4.76917e-07 0)
(3 2.71022e-09 0)
(3 1.37182e-11 0)
(3 5.82418e-14 0)
(3 -4.04256e-15 0)
(2.34035 -1.27645 0)
(2.51071 -1.35241 0)
(2.77617 -1.48964 0)
(2.91304 -1.65805 0)
(3.05897 -1.65741 0)
(3.06195 -1.72351 0)
(3.13131 -1.49751 0)
(3.1907 -1.3203 0)
(3.19569 -1.10136 0)
(3.18567 -1.03211 0)
(3.19135 -0.813834 0)
(3.15904 -0.584251 0)
(3.10013 -0.365259 0)
(3.04732 -0.189455 0)
(3.00385 -0.0477576 0)
(2.95255 0.0828271 0)
(2.89616 0.204931 0)
(2.83656 0.331391 0)
(2.8043 0.386954 0)
(2.80733 0.383683 0)
(2.82607 0.35023 0)
(2.90484 0.204398 0)
(2.98057 0.0436428 0)
(2.99907 0.00205513 0)
(2.99999 2.58333e-05 0)
(3 1.78534e-07 0)
(3 1.01428e-09 0)
(3 5.12984e-12 0)
(3 2.12759e-14 0)
(3 -2.9223e-15 0)
(2.32731 -1.27119 0)
(2.48943 -1.3495 0)
(2.75611 -1.50733 0)
(2.9221 -1.69067 0)
(3.0684 -1.65685 0)
(3.07073 -1.72286 0)
(3.13974 -1.44093 0)
(3.16501 -1.24203 0)
(3.18804 -1.1489 0)
(3.19631 -1.00575 0)
(3.1727 -0.702956 0)
(3.12443 -0.507206 0)
(3.07711 -0.34192 0)
(3.03884 -0.214745 0)
(2.99516 -0.068433 0)
(2.94449 0.082679 0)
(2.8826 0.243932 0)
(2.82151 0.363583 0)
(2.80191 0.391429 0)
(2.80695 0.38184 0)
(2.85272 0.308144 0)
(2.94151 0.144213 0)
(2.98981 0.0256872 0)
(2.99961 0.00088223 0)
(3 9.56567e-06 0)
(3 6.44479e-08 0)
(3 3.65339e-10 0)
(3 1.84697e-12 0)
(3 8.14161e-15 0)
(3 -2.05557e-15 0)
(2.31831 -1.26976 0)
(2.47226 -1.34929 0)
(2.74226 -1.52734 0)
(2.93171 -1.71586 0)
(3.07401 -1.64652 0)
(3.07869 -1.67159 0)
(3.12376 -1.35857 0)
(3.14652 -1.29132 0)
(3.17346 -1.17703 0)
(3.19763 -0.865527 0)
(3.14956 -0.663443 0)
(3.1081 -0.533508 0)
(3.06834 -0.374568 0)
(3.03146 -0.214257 0)
(2.99347 -0.0353998 0)
(2.93388 0.152347 0)
(2.85689 0.303792 0)
(2.81245 0.380834 0)
(2.80165 0.397916 0)
(2.80697 0.380248 0)
(2.86695 0.292244 0)
(2.94794 0.136701 0)
(2.99436 0.0151568 0)
(2.99984 0.000394518 0)
(3 3.64838e-06 0)
(3 2.3322e-08 0)
(3 1.29802e-10 0)
(3 6.47491e-13 0)
(3 3.81979e-15 0)
(3 -1.27873e-15 0)
(2.31153 -1.27115 0)
(2.46454 -1.35194 0)
(2.727 -1.54132 0)
(2.93665 -1.71587 0)
(3.07 -1.6445 0)
(3.06424 -1.55345 0)
(3.12212 -1.39992 0)
(3.14662 -1.31176 0)
(3.20122 -1.12758 0)
(3.16896 -0.765309 0)
(3.13236 -0.693093 0)
(3.10258 -0.52857 0)
(3.07517 -0.347575 0)
(3.03745 -0.121666 0)
(2.97356 0.075968 0)
(2.90171 0.22725 0)
(2.84379 0.324655 0)
(2.80627 0.391506 0)
(2.80111 0.402932 0)
(2.81456 0.389824 0)
(2.87416 0.30321 0)
(2.96 0.103479 0)
(2.99667 0.00864545 0)
(2.99993 0.000172462 0)
(3 1.39388e-06 0)
(3 8.51115e-09 0)
(3 4.6155e-11 0)
(3 2.23691e-13 0)
(3 2.46034e-15 0)
(3 -6.84597e-16 0)
(2.30942 -1.27242 0)
(2.46063 -1.35095 0)
(2.71419 -1.54394 0)
(2.94231 -1.70885 0)
(3.04941 -1.66522 0)
(3.06874 -1.54937 0)
(3.11894 -1.44387 0)
(3.17358 -1.29835 0)
(3.20986 -0.95253 0)
(3.17992 -0.823411 0)
(3.14366 -0.66552 0)
(3.12226 -0.445253 0)
(3.07564 -0.213507 0)
(2.99719 0.00186447 0)
(2.93835 0.14065 0)
(2.88615 0.245087 0)
(2.83073 0.345002 0)
(2.80256 0.396405 0)
(2.80408 0.403203 0)
(2.82167 0.389628 0)
(2.88632 0.262483 0)
(2.97496 0.0606893 0)
(2.99829 0.00415755 0)
(2.99997 6.49006e-05 0)
(3 4.99522e-07 0)
(3 3.01289e-09 0)
(3 1.61362e-11 0)
(3 7.44783e-14 0)
(3 2.21428e-15 0)
(3 4.84799e-16 0)
(2.30989 -1.27165 0)
(2.45978 -1.35063 0)
(2.70195 -1.55883 0)
(2.94422 -1.70556 0)
(3.04118 -1.67127 0)
(3.07457 -1.58266 0)
(3.12894 -1.45391 0)
(3.22391 -1.14209 0)
(3.19962 -0.9022 0)
(3.17176 -0.832226 0)
(3.15742 -0.543858 0)
(3.08614 -0.296069 0)
(3.02844 -0.112399 0)
(2.98121 0.0171722 0)
(2.92531 0.144732 0)
(2.86871 0.275355 0)
(2.81488 0.374533 0)
(2.80022 0.396529 0)
(2.80249 0.392525 0)
(2.82917 0.343816 0)
(2.91974 0.17995 0)
(2.98292 0.0401501 0)
(2.99923 0.00176354 0)
(2.99999 2.31791e-05 0)
(3 1.70197e-07 0)
(3 1.02169e-09 0)
(3 5.45234e-12 0)
(3 2.28475e-14 0)
(3 2.05919e-15 0)
(3 6.6064e-16 0)
(2.31288 -1.26825 0)
(2.45889 -1.35212 0)
(2.69787 -1.57052 0)
(2.94703 -1.72957 0)
(3.05712 -1.6487 0)
(3.09753 -1.58566 0)
(3.19286 -1.3483 0)
(3.19254 -1.00032 0)
(3.18789 -0.966145 0)
(3.19426 -0.734535 0)
(3.10589 -0.409105 0)
(3.06356 -0.257048 0)
(3.01869 -0.130545 0)
(2.96777 0.0142835 0)
(2.91005 0.181285 0)
(2.84235 0.329234 0)
(2.80492 0.391658 0)
(2.79765 0.396528 0)
(2.80437 0.380534 0)
(2.86362 0.293771 0)
(2.94128 0.140387 0)
(2.99146 0.0213708 0)
(2.9997 0.000697176 0)
(3 7.80399e-06 0)
(3 5.52698e-08 0)
(3 3.3072e-10 0)
(3 1.76416e-12 0)
(3 5.80635e-15 0)
(3 1.72714e-15 0)
(3 1.42873e-15 0)
(2.31209 -1.26276 0)
(2.44356 -1.3408 0)
(2.69183 -1.57323 0)
(2.95838 -1.75517 0)
(3.07862 -1.62502 0)
(3.1502 -1.50656 0)
(3.17232 -1.17711 0)
(3.18233 -1.06704 0)
(3.18007 -0.964876 0)
(3.13682 -0.554128 0)
(3.10746 -0.423821 0)
(3.05186 -0.28014 0)
(3.00644 -0.118857 0)
(2.95656 0.0778873 0)
(2.88302 0.254885 0)
(2.82826 0.354627 0)
(2.80006 0.401514 0)