/*--------------------------------*- C++ -*----------------------------------*\
  =========                 |
  \\      /  F ield         | OpenFOAM: The Open Source CFD Toolbox
   \\    /   O peration     | Website:  https://openfoam.org
    \\  /    A nd           | Version:  7
     \\/     M anipulation  |
\*---------------------------------------------------------------------------*/
FoamFile
{
    version     2.0;
    format      ascii;
    class       volScalarField;
    location    "0.27";
    object      rho;
}
// * * * * * * * * * * * * * * * * * * * * * * * * * * * * * * * * * * * * * //

dimensions      [1 -3 0 0 0 0 0];

internalField   nonuniform List<scalar> 
324000
(
0.441553
0.640516
0.83613
1.04658
1.12128
1.09351
1.07118
1.05701
1.03764
1.04051
1.04862
1.05562
1.06441
1.07474
1.0759
1.07225
1.07062
1.07376
1.07322
1.06802
1.0616
1.05267
1.04351
1.03872
1.03862
1.03982
1.04367
1.05046
1.05433
1.05333
1.05434
1.06402
1.08229
1.10088
1.11311
1.11408
1.11342
1.1183
1.14357
1.21044
1.28529
1.32499
1.3445
1.35395
1.36032
1.36794
1.37868
1.39071
1.39837
1.40014
1.40014
1.40006
1.40001
1.40001
1.40001
1.40001
1.40001
1.40001
1.40001
1.40001
1.40001
1.40001
1.40001
1.40001
1.40001
1.40001
1.40001
1.40001
1.40001
1.40001
1.40001
1.40001
1.40001
1.40001
1.40001
1.40001
1.40001
1.40001
1.40001
1.40001
0.327207
0.330767
0.391923
0.562941
0.835622
0.993696
1.08324
1.07142
1.05116
1.05523
1.05149
1.03612
1.03315
1.03609
1.03743
1.03627
1.0395
1.04663
1.04687
1.0408
1.03222
1.0224
1.01197
1.00726
1.00734
1.00964
1.01397
1.01809
1.01737
1.01493
1.01571
1.02613
1.05009
1.07783
1.09905
1.10714
1.10939
1.11396
1.13818
1.20294
1.27627
1.32143
1.34288
1.35186
1.35778
1.36551
1.37675
1.38951
1.39792
1.40004
1.40011
1.40005
1.40001
1.40001
1.40001
1.40001
1.40001
1.40001
1.40001
1.40001
1.40001
1.40001
1.40001
1.40001
1.40001
1.40001
1.40001
1.40001
1.40001
1.40001
1.40001
1.40001
1.40001
1.40001
1.40001
1.40001
1.40001
1.40001
1.40001
1.40001
0.330521
0.331996
0.33304
0.333232
0.388692
0.56497
0.818572
0.984669
1.06757
1.07309
1.04898
1.02086
1.01605
1.01724
1.01729
1.02105
1.02653
1.03427
1.0387
1.03412
1.02504
1.01671
1.0073
0.999763
0.995626
0.993269
0.991812
0.990422
0.988792
0.98885
0.994792
1.01265
1.04196
1.07638
1.09535
1.11012
1.11372
1.12293
1.14735
1.20552
1.27338
1.31898
1.34069
1.34891
1.35463
1.36281
1.37477
1.38836
1.39751
1.39995
1.40008
1.40004
1.40001
1.40001
1.40001
1.40001
1.40001
1.40001
1.40001
1.40001
1.40001
1.40001
1.40001
1.40001
1.40001
1.40001
1.40001
1.40001
1.40001
1.40001
1.40001
1.40001
1.40001
1.40001
1.40001
1.40001
1.40001
1.40001
1.40001
1.40001
0.333032
0.33362
0.333604
0.333535
0.33321
0.3324
0.379065
0.568032
0.822262
0.978813
1.02312
1.02875
1.02501
1.02284
1.01521
1.01661
1.0286
1.04133
1.04297
1.03832
1.02916
1.01912
1.00541
0.990183
0.980489
0.975377
0.974548
0.976837
0.981405
0.988178
0.99752
1.01722
1.0422
1.07628
1.1165
1.14815
1.15111
1.14345
1.15505
1.20252
1.26701
1.31827
1.33811
1.34487
1.35082
1.35982
1.37272
1.38728
1.39715
1.39988
1.40006
1.40004
1.40001
1.40001
1.40001
1.40001
1.40001
1.40001
1.40001
1.40001
1.40001
1.40001
1.40001
1.40001
1.40001
1.40001
1.40001
1.40001
1.40001
1.40001
1.40001
1.40001
1.40001
1.40001
1.40001
1.40001
1.40001
1.40001
1.40001
1.40001
0.333431
0.333341
0.333154
0.332832
0.332196
0.331624
0.331481
0.331126
0.379226
0.56773
0.813743
0.989005
1.03012
1.04369
1.02905
1.02682
1.03714
1.04507
1.04338
1.0391
1.02853
1.01342
0.997829
0.982758
0.976036
0.974093
0.97526
0.974843
0.981036
0.992371
1.00395
1.02079
1.05756
1.10738
1.15548
1.18248
1.1888
1.18638
1.19453
1.23245
1.28396
1.32041
1.33441
1.34037
1.34684
1.35669
1.37065
1.38629
1.39686
1.39983
1.40004
1.40003
1.40001
1.40001
1.40001
1.40001
1.40001
1.40001
1.40001
1.40001
1.40001
1.40001
1.40001
1.40001
1.40001
1.40001
1.40001
1.40001
1.40001
1.40001
1.40001
1.40001
1.40001
1.40001
1.40001
1.40001
1.40001
1.40001
1.40001
1.40001
0.33344
0.333059
0.33259
0.332056
0.331569
0.331324
0.33102
0.330723
0.330687
0.330671
0.387524
0.596196
0.827677
0.992217
1.01428
1.03915
1.05655
1.05275
1.04663
1.0398
1.02585
1.00746
0.992764
0.980884
0.975684
0.975156
0.976028
0.981028
0.99716
1.01764
1.03422
1.05412
1.08901
1.13837
1.18553
1.21095
1.21857
1.2195
1.22729
1.25792
1.29792
1.32054
1.33032
1.33606
1.34282
1.35343
1.36862
1.38542
1.39664
1.39979
1.40003
1.40002
1.40001
1.40001
1.40001
1.40001
1.40001
1.40001
1.40001
1.40001
1.40001
1.40001
1.40001
1.40001
1.40001
1.40001
1.40001
1.40001
1.40001
1.40001
1.40001
1.40001
1.40001
1.40001
1.40001
1.40001
1.40001
1.40001
1.40001
1.40001
0.332721
0.332244
0.331827
0.331396
0.331145
0.3309
0.33075
0.330521
0.330107
0.329815
0.329965
0.332307
0.409202
0.612434
0.826399
0.99219
1.03634
1.04865
1.04125
1.02585
1.01315
1.00111
0.988388
0.979894
0.97873
0.982762
0.98881
0.999056
1.01824
1.03964
1.06013
1.08831
1.12827
1.16701
1.19902
1.22377
1.23566
1.24225
1.25412
1.28039
1.30721
1.32046
1.32672
1.33168
1.33866
1.3502
1.36676
1.38473
1.39646
1.39976
1.40002
1.40002
1.40001
1.40001
1.40001
1.40001
1.40001
1.40001
1.40001
1.40001
1.40001
1.40001
1.40001
1.40001
1.40001
1.40001
1.40001
1.40001
1.40001
1.40001
1.40001
1.40001
1.40001
1.40001
1.40001
1.40001
1.40001
1.40001
1.40001
1.40001
0.331871
0.331455
0.331179
0.331031
0.330845
0.330741
0.330583
0.330134
0.329514
0.329323
0.329499
0.329963
0.330147
0.33221
0.421698
0.637356
0.860457
1.00909
1.02317
1.00658
1.00446
0.997104
0.985208
0.978029
0.981649
0.991555
1.00139
1.02085
1.05017
1.07294
1.09253
1.12184
1.15399
1.17391
1.1955
1.22055
1.23757
1.25084
1.26867
1.29112
1.30938
1.31759
1.32197
1.32679
1.33458
1.34725
1.36506
1.38413
1.39638
1.39975
1.40001
1.40001
1.40001
1.40001
1.40001
1.40001
1.40001
1.40001
1.40001
1.40001
1.40001
1.40001
1.40001
1.40001
1.40001
1.40001
1.40001
1.40001
1.40001
1.40001
1.40001
1.40001
1.40001
1.40001
1.40001
1.40001
1.40001
1.40001
1.40001
1.40001
0.331186
0.331034
0.330959
0.330932
0.330804
0.3306
0.330238
0.329787
0.329292
0.329193
0.329294
0.329455
0.329182
0.328332
0.325946
0.328438
0.427956
0.683648
0.940733
0.984984
1.00452
0.996989
0.993299
0.991425
0.998481
1.00504
1.01735
1.04394
1.07353
1.09682
1.12049
1.14834
1.1687
1.17673
1.19213
1.21512
1.23561
1.25179
1.27019
1.29175
1.30659
1.31257
1.31642
1.32146
1.33042
1.34462
1.36354
1.38333
1.39625
1.39974
1.40001
1.40001
1.40001
1.40001
1.40001
1.40001
1.40001
1.40001
1.40001
1.40001
1.40001
1.40001
1.40001
1.40001
1.40001
1.40001
1.40001
1.40001
1.40001
1.40001
1.40001
1.40001
1.40001
1.40001
1.40001
1.40001
1.40001
1.40001
1.40001
1.40001
0.331044
0.330967
0.330863
0.330654
0.330323
0.330074
0.329854
0.329656
0.32945
0.329275
0.329071
0.328697
0.328016
0.32618
0.322194
0.317109
0.310407
0.326086
0.497429
0.778447
0.960306
0.978507
1.00499
1.01274
1.02737
1.02828
1.04058
1.067
1.08441
1.10198
1.12737
1.15884
1.16715
1.17483
1.18928
1.21155
1.2329
1.25043
1.26755
1.28566
1.29895
1.30656
1.31127
1.31686
1.32649
1.34172
1.3621
1.3834
1.39645
1.39976
1.40001
1.40001
1.40001
1.40001
1.40001
1.40001
1.40001
1.40001
1.40001
1.40001
1.40001
1.40001
1.40001
1.40001
1.40001
1.40001
1.40001
1.40001
1.40001
1.40001
1.40001
1.40001
1.40001
1.40001
1.40001
1.40001
1.40001
1.40001
1.40001
1.40001
0.330801
0.330546
0.330344
0.330165
0.329976
0.329958
0.330158
0.330184
0.330025
0.329726
0.328906
0.327823
0.326459
0.322892
0.316775
0.31078
0.3077
0.306808
0.307161
0.380283
0.599966
0.826226
0.968945
1.00079
1.0324
1.05042
1.07851
1.09749
1.09714
1.10628
1.13067
1.15383
1.1601
1.16914
1.1881
1.20997
1.22883
1.24603
1.26382
1.2786
1.2894
1.29809
1.30539
1.31313
1.32375
1.33912
1.36003
1.38296
1.39658
1.39979
1.4
1.40001
1.40001
1.40001
1.40001
1.40001
1.40001
1.40001
1.40001
1.40001
1.40001
1.40001
1.40001
1.40001
1.40001
1.40001
1.40001
1.40001
1.40001
1.40001
1.40001
1.40001
1.40001
1.40001
1.40001
1.40001
1.40001
1.40001
1.40001
1.40001
0.330412
0.330188
0.330087
0.330017
0.330038
0.330136
0.33039
0.330491
0.330345
0.329949
0.32909
0.326942
0.322335
0.316027
0.310071
0.307253
0.307461
0.309496
0.313495
0.319079
0.328415
0.436761
0.638272
0.852055
0.984756
1.0381
1.07724
1.09419
1.0995
1.11188
1.13756
1.14205
1.14926
1.16666
1.19052
1.2079
1.22277
1.23857
1.25598
1.27104
1.28104
1.28919
1.29783
1.30742
1.31944
1.33652
1.36004
1.38359
1.39685
1.39982
1.4
1.40001
1.40001
1.40001
1.40001
1.40001
1.40001
1.40001
1.40001
1.40001
1.40001
1.40001
1.40001
1.40001
1.40001
1.40001
1.40001
1.40001
1.40001
1.40001
1.40001
1.40001
1.40001
1.40001
1.40001
1.40001
1.40001
1.40001
1.40001
1.40001
0.330053
0.330031
0.330075
0.330074
0.330086
0.330163
0.3304
0.330567
0.330459
0.329652
0.326791
0.320888
0.313969
0.309876
0.307844
0.308856
0.311079
0.316586
0.324613
0.331853
0.341221
0.352371
0.365696
0.457249
0.629476
0.824802
0.967093
1.0478
1.0939
1.11512
1.13611
1.1291
1.14165
1.17159
1.1916
1.20309
1.21458
1.22846
1.24427
1.26073
1.27443
1.28344
1.29117
1.30147
1.31489
1.33315
1.35872
1.38398
1.3972
1.39986
1.4
1.40001
1.40001
1.40001
1.40001
1.40001
1.40001
1.40001
1.40001
1.40001
1.40001
1.40001
1.40001
1.40001
1.40001
1.40001
1.40001
1.40001
1.40001
1.40001
1.40001
1.40001
1.40001
1.40001
1.40001
1.40001
1.40001
1.40001
1.40001
1.40001
0.330132
0.329904
0.329602
0.329643
0.329745
0.330003
0.329988
0.329485
0.327463
0.323079
0.316874
0.311938
0.309152
0.308812
0.310137
0.314208
0.318149
0.322117
0.330616
0.340336
0.350225
0.361569
0.375866
0.390889
0.402501
0.460598
0.580592
0.761273
0.948445
1.06433
1.11471
1.12492
1.15626
1.18926
1.18594
1.18921
1.20112
1.21818
1.23362
1.24781
1.26176
1.27492
1.28582
1.296
1.3102
1.33169
1.35954
1.38501
1.39761
1.39989
1.4
1.40001
1.40001
1.40001
1.40001
1.40001
1.40001
1.40001
1.40001
1.40001
1.40001
1.40001
1.40001
1.40001
1.40001
1.40001
1.40001
1.40001
1.40001
1.40001
1.40001
1.40001
1.40001
1.40001
1.40001
1.40001
1.40001
1.40001
1.40001
1.40001
0.329562
0.329193
0.328706
0.328541
0.328293
0.327536
0.325755
0.322518
0.318155
0.314153
0.310526
0.30883
0.309439
0.310626
0.312551
0.317467
0.325104
0.331267
0.338924
0.353753
0.368501
0.382043
0.39556
0.408957
0.423495
0.436615
0.45045
0.48076
0.568294
0.73682
0.904867
1.05388
1.13549
1.16997
1.16535
1.17088
1.18527
1.2035
1.22286
1.23579
1.24806
1.26202
1.27603
1.28971
1.3053
1.32853
1.35947
1.38627
1.39808
1.39993
1.4
1.40001
1.40001
1.40001
1.40001
1.40001
1.40001
1.40001
1.40001
1.40001
1.40001
1.40001
1.40001
1.40001
1.40001
1.40001
1.40001
1.40001
1.40001
1.40001
1.40001
1.40001
1.40001
1.40001
1.40001
1.40001
1.40001
1.40001
1.40001
1.40001
0.328884
0.328757
0.328392
0.327589
0.326176
0.323447
0.31963
0.315404
0.311196
0.308959
0.308739
0.308526
0.309474
0.312896
0.316825
0.321311
0.332282
0.348628
0.361191
0.371526
0.384284
0.398294
0.411158
0.424086
0.438028
0.45211
0.467293
0.483127
0.500733
0.524794
0.588908
0.72941
0.89938
1.03904
1.11049
1.15742
1.19366
1.20729
1.21831
1.23219
1.24403
1.25288
1.26474
1.28101
1.30115
1.32896
1.36126
1.38794
1.39855
1.39996
1.4
1.40001
1.40001
1.40001
1.40001
1.40001
1.40001
1.40001
1.40001
1.40001
1.40001
1.40001
1.40001
1.40001
1.40001
1.40001
1.40001
1.40001
1.40001
1.40001
1.40001
1.40001
1.40001
1.40001
1.40001
1.40001
1.40001
1.40001
1.40001
1.40001
0.329226
0.328915
0.328462
0.326571
0.322592
0.317507
0.312543
0.30957
0.308113
0.307799
0.308495
0.309479
0.311521
0.318468
0.330594
0.342949
0.352024
0.362591
0.376364
0.387933
0.397654
0.408768
0.420395
0.434311
0.448235
0.463317
0.479596
0.496072
0.515795
0.53381
0.554772
0.580817
0.642283
0.776478
0.972021
1.11615
1.17335
1.19125
1.20075
1.21371
1.22879
1.24448
1.259
1.2735
1.29469
1.32711
1.36344
1.39
1.399
1.39998
1.4
1.40001
1.40001
1.40001
1.40001
1.40001
1.40001
1.40001
1.40001
1.40001
1.40001
1.40001
1.40001
1.40001
1.40001
1.40001
1.40001
1.40001
1.40001
1.40001
1.40001
1.40001
1.40001
1.40001
1.40001
1.40001
1.40001
1.40001
1.40001
1.40001
0.327932
0.325509
0.321338
0.316587
0.31224
0.309483
0.307899
0.307865
0.308059
0.308317
0.310891
0.318669
0.32859
0.337368
0.346014
0.357949
0.369739
0.377617
0.387051
0.399342
0.412609
0.424492
0.438641
0.452924
0.468516
0.484851
0.501325
0.518902
0.535753
0.556379
0.576153
0.596093
0.619391
0.650028
0.734471
0.893877
1.04767
1.1331
1.16884
1.1888
1.20758
1.22768
1.24618
1.26578
1.29386
1.32911
1.36693
1.39221
1.39938
1.39999
1.4
1.40001
1.40001
1.40001
1.40001
1.40001
1.40001
1.40001
1.40001
1.40001
1.40001
1.40001
1.40001
1.40001
1.40001
1.40001
1.40001
1.40001
1.40001
1.40001
1.40001
1.40001
1.40001
1.40001
1.40001
1.40001
1.40001
1.40001
1.40001
1.40001
0.319685
0.315857
0.312565
0.310392
0.308853
0.308483
0.308779
0.309531
0.312606
0.319245
0.325881
0.333214
0.342278
0.352443
0.361406
0.368088
0.379377
0.392152
0.4024
0.41347
0.427463
0.442133
0.45679
0.471503
0.487112
0.503349
0.520816
0.539557
0.558082
0.578306
0.600022
0.62319
0.644759
0.666002
0.694974
0.749309
0.87262
1.02644
1.12394
1.16615
1.18931
1.20901
1.22988
1.25506
1.28927
1.33141
1.37172
1.39451
1.39967
1.4
1.40001
1.40001
1.40001
1.40001
1.40001
1.40001
1.40001
1.40001
1.40001
1.40001
1.40001
1.40001
1.40001
1.40001
1.40001
1.40001
1.40001
1.40001
1.40001
1.40001
1.40001
1.40001
1.40001
1.40001
1.40001
1.40001
1.40001
1.40001
1.40001
1.40001
0.31162
0.310237
0.30963
0.309552
0.310707
0.312397
0.315097
0.319368
0.324231
0.330664
0.338746
0.346542
0.354167
0.362418
0.374954
0.385793
0.394381
0.406896
0.421074
0.434533
0.446124
0.460106
0.473977
0.488834
0.503364
0.519326
0.535635
0.55371
0.573713
0.592499
0.614503
0.637895
0.66493
0.691369
0.715523
0.749358
0.798149
0.890658
1.01361
1.10541
1.15691
1.1883
1.21652
1.25037
1.29107
1.33705
1.37755
1.39657
1.39985
1.4
1.40001
1.40001
1.40001
1.40001
1.40001
1.40001
1.40001
1.40001
1.40001
1.40001
1.40001
1.40001
1.40001
1.40001
1.40001
1.40001
1.40001
1.40001
1.40001
1.40001
1.40001
1.40001
1.40001
1.40001
1.40001
1.40001
1.40001
1.40001
1.40001
1.40001
0.310519
0.310324
0.311117
0.312337
0.314113
0.31747
0.321909
0.327447
0.333792
0.340252
0.348914
0.359441
0.370646
0.381043
0.390111
0.403793
0.416593
0.426677
0.438538
0.451368
0.464971
0.477424
0.491393
0.506877
0.52384
0.539656
0.557404
0.575066
0.595114
0.616665
0.63806
0.661108
0.684691
0.711173
0.737163
0.763528
0.80031
0.85821
0.938365
1.02859
1.10136
1.15459
1.19986
1.24584
1.29482
1.3455
1.38387
1.39817
1.39995
1.4
1.40001
1.40001
1.40001
1.40001
1.40001
1.40001
1.40001
1.40001
1.40001
1.40001
1.40001
1.40001
1.40001
1.40001
1.40001
1.40001
1.40001
1.40001
1.40001
1.40001
1.40001
1.40001
1.40001
1.40001
1.40001
1.40001
1.40001
1.40001
1.40001
1.40001
0.309946
0.310021
0.31089
0.314607
0.317854
0.322989
0.330488
0.338871
0.348038
0.358524
0.369076
0.378963
0.388534
0.40038
0.411106
0.4193
0.431243
0.443202
0.454075
0.465932
0.479422
0.493619
0.508578
0.522845
0.538816
0.557894
0.57715
0.597191
0.617035
0.640006
0.664406
0.689473
0.714461
0.741029
0.768453
0.796008
0.826858
0.869615
0.934158
1.00713
1.08293
1.14957
1.20245
1.251
1.30412
1.35654
1.38991
1.39921
1.39999
1.4
1.40001
1.40001
1.40001
1.40001
1.40001
1.40001
1.40001
1.40001
1.40001
1.40001
1.40001
1.40001
1.40001
1.40001
1.40001
1.40001
1.40001
1.40001
1.40001
1.40001
1.40001
1.40001
1.40001
1.40001
1.40001
1.40001
1.40001
1.40001
1.40001
1.40001
0.312957
0.318331
0.322945
0.328069
0.337641
0.346059
0.353641
0.36178
0.370807
0.379717
0.388206
0.397462
0.40665
0.414858
0.426742
0.437154
0.446213
0.459338
0.472301
0.485496
0.499111
0.514484
0.530456
0.547867
0.564867
0.58171
0.599578
0.62023
0.642057
0.663305
0.68663
0.711859
0.740172
0.769073
0.799848
0.829243
0.856902
0.889573
0.936112
1.00336
1.07513
1.14125
1.19996
1.25753
1.31733
1.36904
1.39483
1.39975
1.4
1.40001
1.40001
1.40001
1.40001
1.40001
1.40001
1.40001
1.40001
1.40001
1.40001
1.40001
1.40001
1.40001
1.40001
1.40001
1.40001
1.40001
1.40001
1.40001
1.40001
1.40001
1.40001
1.40001
1.40001
1.40001
1.40001
1.40001
1.40001
1.40001
1.40001
1.40001
0.325786
0.331295
0.339035
0.34436
0.351015
0.359559
0.366673
0.374023
0.382384
0.391438
0.399874
0.408906
0.42029
0.431198
0.440262
0.454014
0.467339
0.478486
0.49253
0.506961
0.521296
0.535815
0.551121
0.567129
0.585034
0.603611
0.623436
0.642688
0.664187
0.687648
0.712002
0.73789
0.764091
0.79288
0.823785
0.857594
0.891876
0.927322
0.968793
1.02264
1.08443
1.14422
1.20556
1.27134
1.33571
1.38175
1.39806
1.39995
1.4
1.40001
1.40001
1.40001
1.40001
1.40001
1.40001
1.40001
1.40001
1.40001
1.40001
1.40001
1.40001
1.40001
1.40001
1.40001
1.40001
1.40001
1.40001
1.40001
1.40001
1.40001
1.40001
1.40001
1.40001
1.40001
1.40001
1.40001
1.40001
1.40001
1.40001
1.40001
0.338833
0.343724
0.351295
0.361622
0.367116
0.374241
0.383986
0.393462
0.402395
0.41132
0.422176
0.432823
0.442369
0.453819
0.465653
0.475608
0.488134
0.50109
0.513011
0.526581
0.541276
0.556009
0.572138
0.588847
0.605753
0.62469
0.644467
0.666723
0.689577
0.713552
0.73881
0.765136
0.793496
0.823646
0.856438
0.890177
0.923334
0.956891
0.995231
1.04386
1.10191
1.16433
1.22933
1.29731
1.35834
1.39202
1.39954
1.4
1.40001
1.40001
1.40001
1.40001
1.40001
1.40001
1.40001
1.40001
1.40001
1.40001
1.40001
1.40001
1.40001
1.40001
1.40001
1.40001
1.40001
1.40001
1.40001
1.40001
1.40001
1.40001
1.40001
1.40001
1.40001
1.40001
1.40001
1.40001
1.40001
1.40001
1.40001
1.40001
0.358182
0.366217
0.37185
0.380324
0.389927
0.396586
0.404772
0.413322
0.422504
0.431762
0.440157
0.450519
0.460933
0.470091
0.482132
0.494251
0.504536
0.517869
0.532324
0.54576
0.560357
0.577253
0.594134
0.611947
0.631126
0.651022
0.672291
0.693593
0.71651
0.741012
0.767538
0.795894
0.824621
0.854187
0.886444
0.922655
0.960957
0.998775
1.0358
1.07497
1.12235
1.18345
1.25587
1.32804
1.37945
1.3978
1.39995
1.4
1.40001
1.40001
1.40001
1.40001
1.40001
1.40001
1.40001
1.40001
1.40001
1.40001
1.40001
1.40001
1.40001
1.40001
1.40001
1.40001
1.40001
1.40001
1.40001
1.40001
1.40001
1.40001
1.40001
1.40001
1.40001
1.40001
1.40001
1.40001
1.40001
1.40001
1.40001
1.40001
0.374939
0.383117
0.390832
0.395448
0.40389
0.413175
0.420248
0.428904
0.437293
0.447179
0.457944
0.466804
0.477732
0.490593
0.501051
0.513624
0.52846
0.541577
0.555574
0.571317
0.587444
0.603338
0.620553
0.638755
0.65783
0.677934
0.698984
0.721693
0.745997
0.77143
0.797595
0.825426
0.855678
0.887976
0.921962
0.957602
0.995471
1.03599
1.07888
1.12442
1.17519
1.23506
1.30285
1.36313
1.39377
1.3997
1.4
1.40001
1.40001
1.40001
1.40001
1.40001
1.40001
1.40001
1.40001
1.40001
1.40001
1.40001
1.40001
1.40001
1.40001
1.40001
1.40001
1.40001
1.40001
1.40001
1.40001
1.40001
1.40001
1.40001
1.40001
1.40001
1.40001
1.40001
1.40001
1.40001
1.40001
1.40001
1.40001
1.40001
0.39488
0.400871
0.410008
0.418629
0.424366
0.433224
0.442642
0.451527
0.461606
0.470593
0.480956
0.492679
0.502853
0.513964
0.527102
0.538705
0.550803
0.565263
0.57929
0.593535
0.609489
0.626562
0.643887
0.662359
0.682177
0.702866
0.724972
0.748381
0.77333
0.799597
0.827029
0.855984
0.886949
0.920164
0.955567
0.992901
1.03175
1.07228
1.11554
1.16406
1.22104
1.28627
1.34917
1.38838
1.39913
1.39999
1.4
1.40001
1.40001
1.40001
1.40001
1.40001
1.40001
1.40001
1.40001
1.40001
1.40001
1.40001
1.40001
1.40001
1.40001
1.40001
1.40001
1.40001
1.40001
1.40001
1.40001
1.40001
1.40001
1.40001
1.40001
1.40001
1.40001
1.40001
1.40001
1.40001
1.40001
1.40001
1.40001
1.40001
0.414457
0.421623
0.427196
0.436435
0.445661
0.452246
0.461247
0.470392
0.479603
0.490345
0.499559
0.509772
0.522292
0.533522
0.544825
0.558982
0.572954
0.586275
0.60179
0.618319
0.634901
0.652411
0.671254
0.69076
0.711293
0.733298
0.756614
0.780678
0.805762
0.832544
0.861401
0.892191
0.924434
0.957829
0.992703
1.03033
1.07193
1.11733
1.16627
1.22022
1.2806
1.3414
1.38401
1.39839
1.39996
1.4
1.40001
1.40001
1.40001
1.40001
1.40001
1.40001
1.40001
1.40001
1.40001
1.40001
1.40001
1.40001
1.40001
1.40001
1.40001
1.40001
1.40001
1.40001
1.40001
1.40001
1.40001
1.40001
1.40001
1.40001
1.40001
1.40001
1.40001
1.40001
1.40001
1.40001
1.40001
1.40001
1.40001
1.40001
0.433635
0.442034
0.450113
0.455946
0.464928
0.474982
0.483257
0.493125
0.502794
0.512568
0.524472
0.535501
0.546334
0.559517
0.572597
0.585147
0.599523
0.61472
0.629896
0.646273
0.663762
0.68144
0.700188
0.720606
0.741936
0.763598
0.786795
0.812281
0.83936
0.867032
0.895486
0.926069
0.959772
0.996236
1.03433
1.07367
1.11542
1.16173
1.21465
1.27462
1.33571
1.38075
1.39773
1.39993
1.4
1.40001
1.40001
1.40001
1.40001
1.40001
1.40001
1.40001
1.40001
1.40001
1.40001
1.40001
1.40001
1.40001
1.40001
1.40001
1.40001
1.40001
1.40001
1.40001
1.40001
1.40001
1.40001
1.40001
1.40001
1.40001
1.40001
1.40001
1.40001
1.40001
1.40001
1.40001
1.40001
1.40001
1.40001
1.40001
0.455208
0.461694
0.470449
0.479912
0.487
0.495655
0.505812
0.515021
0.525535
0.536138
0.546328
0.558464
0.570665
0.582429
0.59594
0.610118
0.624184
0.639462
0.65606
0.672572
0.69003
0.709222
0.729158
0.749319
0.771002
0.794839
0.81984
0.845197
0.871657
0.900456
0.931781
0.964741
0.998788
1.03429
1.07219
1.11377
1.16016
1.21233
1.27067
1.33091
1.37767
1.39703
1.3999
1.4
1.40001
1.40001
1.40001
1.40001
1.40001
1.40001
1.40001
1.40001
1.40001
1.40001
1.40001
1.40001
1.40001
1.40001
1.40001
1.40001
1.40001
1.40001
1.40001
1.40001
1.40001
1.40001
1.40001
1.40001
1.40001
1.40001
1.40001
1.40001
1.40001
1.40001
1.40001
1.40001
1.40001
1.40001
1.40001
1.40001
0.477062
0.485296
0.49236
0.500639
0.510921
0.5199
0.52899
0.539278
0.5495
0.560682
0.572152
0.58362
0.59653
0.60992
0.623083
0.637638
0.653491
0.668927
0.685291
0.703499
0.722209
0.74095
0.761244
0.783443
0.806386
0.829791
0.854822
0.882068
0.910804
0.94039
0.971353
1.00475
1.041
1.07969
1.12054
1.16442
1.21339
1.26893
1.32753
1.37496
1.39627
1.39985
1.4
1.40001
1.40001
1.40001
1.40001
1.40001
1.40001
1.40001
1.40001
1.40001
1.40001
1.40001
1.40001
1.40001
1.40001
1.40001
1.40001
1.40001
1.40001
1.40001
1.40001
1.40001
1.40001
1.40001
1.40001
1.40001
1.40001
1.40001
1.40001
1.40001
1.40001
1.40001
1.40001
1.40001
1.40001
1.40001
1.40001
1.40001
0.499899
0.507815
0.517095
0.525705
0.533974
0.544076
0.554112
0.564377
0.575234
0.586113
0.598204
0.611047
0.623365
0.636921
0.651939
0.666493
0.681573
0.698538
0.716222
0.733826
0.752637
0.773111
0.794342
0.81621
0.839644
0.864879
0.891253
0.918571
0.947506
0.978668
1.01194
1.04693
1.08375
1.12321
1.16656
1.21517
1.26967
1.3267
1.37351
1.39568
1.39979
1.4
1.40001
1.40001
1.40001
1.40001
1.40001
1.40001
1.40001
1.40001
1.40001
1.40001
1.40001
1.40001
1.40001
1.40001
1.40001
1.40001
1.40001
1.40001
1.40001
1.40001
1.40001
1.40001
1.40001
1.40001
1.40001
1.40001
1.40001
1.40001
1.40001
1.40001
1.40001
1.40001
1.40001
1.40001
1.40001
1.40001
1.40001
1.40001
0.524573
0.532707
0.541053
0.551018
0.560327
0.56964
0.58024
0.590819
0.601994
0.614256
0.626183
0.638805
0.652917
0.666945
0.681092
0.696903
0.713671
0.730403
0.748058
0.767199
0.787111
0.807655
0.829568
0.853021
0.87755
0.903132
0.930262
0.959195
0.989777
1.02197
1.05612
1.09263
1.13187
1.17445
1.22153
1.27398
1.32874
1.37377
1.39551
1.39976
1.4
1.40001
1.40001
1.40001
1.40001
1.40001
1.40001
1.40001
1.40001
1.40001
1.40001
1.40001
1.40001
1.40001
1.40001
1.40001
1.40001
1.40001
1.40001
1.40001
1.40001
1.40001
1.40001
1.40001
1.40001
1.40001
1.40001
1.40001
1.40001
1.40001
1.40001
1.40001
1.40001
1.40001
1.40001
1.40001
1.40001
1.40001
1.40001
1.40001
0.550049
0.559175
0.567989
0.576719
0.586977
0.597705
0.607881
0.619165
0.630972
0.642852
0.655919
0.66949
0.683004
0.697659
0.713395
0.729309
0.745905
0.76382
0.782574
0.8019
0.822302
0.844044
0.866909
0.890884
0.916241
0.943093
0.971395
1.00126
1.03299
1.06676
1.10271
1.14116
1.18295
1.22927
1.28056
1.33324
1.37567
1.39582
1.39977
1.4
1.40001
1.40001
1.40001
1.40001
1.40001
1.40001
1.40001
1.40001
1.40001
1.40001
1.40001
1.40001
1.40001
1.40001
1.40001
1.40001
1.40001
1.40001
1.40001
1.40001
1.40001
1.40001
1.40001
1.40001
1.40001
1.40001
1.40001
1.40001
1.40001
1.40001
1.40001
1.40001
1.40001
1.40001
1.40001
1.40001
1.40001
1.40001
1.40001
1.40001
0.577515
0.586034
0.595687
0.60616
0.615692
0.626001
0.637607
0.649148
0.661172
0.674091
0.687224
0.700964
0.715682
0.730847
0.746552
0.763349
0.781053
0.799361
0.818532
0.838833
0.860215
0.88269
0.906433
0.93152
0.957944
0.985815
1.01535
1.0467
1.07998
1.1154
1.1534
1.19472
1.24031
1.29018
1.34021
1.37898
1.39652
1.39982
1.4
1.40001
1.40001
1.40001
1.40001
1.40001
1.40001
1.40001
1.40001
1.40001
1.40001
1.40001
1.40001
1.40001
1.40001
1.40001
1.40001
1.40001
1.40001
1.40001
1.40001
1.40001
1.40001
1.40001
1.40001
1.40001
1.40001
1.40001
1.40001
1.40001
1.40001
1.40001
1.40001
1.40001
1.40001
1.40001
1.40001
1.40001
1.40001
1.40001
1.40001
1.40001
0.606275
0.615915
0.625371
0.635128
0.646171
0.657473
0.668713
0.680796
0.693522
0.706633
0.720462
0.734897
0.749831
0.765599
0.782265
0.799631
0.817775
0.836873
0.856936
0.877999
0.90022
0.923704
0.948466
0.974567
1.00214
1.03134
1.06231
1.0952
1.13027
1.16793
1.20889
1.25387
1.3023
1.34916
1.38327
1.39745
1.39988
1.4
1.40001
1.40001
1.40001
1.40001
1.40001
1.40001
1.40001
1.40001
1.40001
1.40001
1.40001
1.40001
1.40001
1.40001
1.40001
1.40001
1.40001
1.40001
1.40001
1.40001
1.40001
1.40001
1.40001
1.40001
1.40001
1.40001
1.40001
1.40001
1.40001
1.40001
1.40001
1.40001
1.40001
1.40001
1.40001
1.40001
1.40001
1.40001
1.40001
1.40001
1.40001
1.40001
0.637012
0.646508
0.656781
0.667578
0.678398
0.689795
0.701967
0.714545
0.727634
0.741377
0.755656
0.770562
0.786247
0.802686
0.819898
0.837972
0.856917
0.876752
0.897607
0.919623
0.942868
0.967386
0.993256
1.02059
1.04953
1.08022
1.11286
1.1477
1.18516
1.22586
1.27021
1.31679
1.35953
1.38796
1.39838
1.39993
1.4
1.40001
1.40001
1.40001
1.40001
1.40001
1.40001
1.40001
1.40001
1.40001
1.40001
1.40001
1.40001
1.40001
1.40001
1.40001
1.40001
1.40001
1.40001
1.40001
1.40001
1.40001
1.40001
1.40001
1.40001
1.40001
1.40001
1.40001
1.40001
1.40001
1.40001
1.40001
1.40001
1.40001
1.40001
1.40001
1.40001
1.40001
1.40001
1.40001
1.40001
1.40001
1.40001
1.40001
0.669526
0.679674
0.690161
0.701083
0.712663
0.7247
0.73715
0.750223
0.763908
0.778139
0.79299
0.808539
0.824841
0.841969
0.859935
0.878729
0.898417
0.919125
0.940968
0.964025
0.988367
1.01407
1.04124
1.07001
1.10054
1.13303
1.16776
1.20513
1.24562
1.28911
1.33307
1.37044
1.39236
1.39914
1.39997
1.4
1.40001
1.40001
1.40001
1.40001
1.40001
1.40001
1.40001
1.40001
1.40001
1.40001
1.40001
1.40001
1.40001
1.40001
1.40001
1.40001
1.40001
1.40001
1.40001
1.40001
1.40001
1.40001
1.40001
1.40001
1.40001
1.40001
1.40001
1.40001
1.40001
1.40001
1.40001
1.40001
1.40001
1.40001
1.40001
1.40001
1.40001
1.40001
1.40001
1.40001
1.40001
1.40001
1.40001
1.40001
0.704135
0.714595
0.725602
0.737113
0.749044
0.761496
0.774558
0.788194
0.802387
0.817178
0.832635
0.848853
0.865894
0.883762
0.902462
0.922058
0.942658
0.964379
0.987321
1.01156
1.03718
1.06427
1.09297
1.12346
1.15594
1.19067
1.22803
1.26817
1.31018
1.35022
1.38075
1.39588
1.39963
1.39999
1.4
1.40001
1.40001
1.40001
1.40001
1.40001
1.40001
1.40001
1.40001
1.40001
1.40001
1.40001
1.40001
1.40001
1.40001
1.40001
1.40001
1.40001
1.40001
1.40001
1.40001
1.40001
1.40001
1.40001
1.40001
1.40001
1.40001
1.40001
1.40001
1.40001
1.40001
1.40001
1.40001
1.40001
1.40001
1.40001
1.40001
1.40001
1.40001
1.40001
1.40001
1.40001
1.40001
1.40001
1.40001
1.40001
0.740902
0.751844
0.763298
0.775238
0.787702
0.800723
0.814322
0.8285
0.84326
0.858663
0.874816
0.89179
0.909601
0.928254
0.947801
0.968348
0.990021
1.01293
1.03715
1.06278
1.0899
1.11865
1.14922
1.18179
1.21661
1.25387
1.29318
1.33252
1.36681
1.38927
1.3982
1.39988
1.4
1.40001
1.40001
1.40001
1.40001
1.40001
1.40001
1.40001
1.40001
1.40001
1.40001
1.40001
1.40001
1.40001
1.40001
1.40001
1.40001
1.40001
1.40001
1.40001
1.40001
1.40001
1.40001
1.40001
1.40001
1.40001
1.40001
1.40001
1.40001
1.40001
1.40001
1.40001
1.40001
1.40001
1.40001
1.40001
1.40001
1.40001
1.40001
1.40001
1.40001
1.40001
1.40001
1.40001
1.40001
1.40001
1.40001
1.40001
0.780027
0.791434
0.803381
0.81584
0.828841
0.842433
0.856614
0.871367
0.886747
0.902866
0.919812
0.937609
0.956263
0.97582
0.996389
1.0181
1.04107
1.06538
1.09112
1.11839
1.14732
1.17806
1.2108
1.24565
1.28238
1.31977
1.35451
1.38104
1.39516
1.3994
1.39998
1.4
1.40001
1.40001
1.40001
1.40001
1.40001
1.40001
1.40001
1.40001
1.40001
1.40001
1.40001
1.40001
1.40001
1.40001
1.40001
1.40001
1.40001
1.40001
1.40001
1.40001
1.40001
1.40001
1.40001
1.40001
1.40001
1.40001
1.40001
1.40001
1.40001
1.40001
1.40001
1.40001
1.40001
1.40001
1.40001
1.40001
1.40001
1.40001
1.40001
1.40001
1.40001
1.40001
1.40001
1.40001
1.40001
1.40001
1.40001
1.40001
0.821681
0.833594
0.846058
0.859069
0.872675
0.886875
0.90165
0.917045
0.933175
0.950143
0.967982
0.986699
1.00634
1.02703
1.04889
1.07203
1.09655
1.12253
1.15006
1.17926
1.21024
1.24304
1.27747
1.31262
1.34613
1.37381
1.39127
1.39835
1.39986
1.4
1.4
1.40001
1.40001
1.40001
1.40001
1.40001
1.40001
1.40001
1.40001
1.40001
1.40001
1.40001
1.40001
1.40001
1.40001
1.40001
1.40001
1.40001
1.40001
1.40001
1.40001
1.40001
1.40001
1.40001
1.40001
1.40001
1.40001
1.40001
1.40001
1.40001
1.40001
1.40001
1.40001
1.40001
1.40001
1.40001
1.40001
1.40001
1.40001
1.40001
1.40001
1.40001
1.40001
1.40001
1.40001
1.40001
1.40001
1.40001
1.40001
1.40001
0.866085
0.878535
0.891575
0.905216
0.919465
0.9343
0.94976
0.965961
0.983017
1.00097
1.01984
1.03968
1.06059
1.08272
1.10618
1.13104
1.15737
1.18524
1.21471
1.24575
1.2781
1.31097
1.34248
1.3694
1.38799
1.39702
1.39961
1.39998
1.4
1.40001
1.40001
1.40001
1.40001
1.40001
1.40001
1.40001
1.40001
1.40001
1.40001
1.40001
1.40001
1.40001
1.40001
1.40001
1.40001
1.40001
1.40001
1.40001
1.40001
1.40001
1.40001
1.40001
1.40001
1.40001
1.40001
1.40001
1.40001
1.40001
1.40001
1.40001
1.40001
1.40001
1.40001
1.40001
1.40001
1.40001
1.40001
1.40001
1.40001
1.40001
1.40001
1.40001
1.40001
1.40001
1.40001
1.40001
1.40001
1.40001
1.40001
1.40001
0.913515
0.926572
0.940279
0.954618
0.969566
0.985158
1.00151
1.01875
1.03693
1.05606
1.07622
1.0975
1.12005
1.14395
1.16924
1.19597
1.2241
1.25354
1.28394
1.31448
1.34355
1.36851
1.38643
1.39602
1.39932
1.39995
1.4
1.4
1.40001
1.40001
1.40001
1.40001
1.40001
1.40001
1.40001
1.40001
1.40001
1.40001
1.40001
1.40001
1.40001