/*--------------------------------*- C++ -*----------------------------------*\
  =========                 |
  \\      /  F ield         | OpenFOAM: The Open Source CFD Toolbox
   \\    /   O peration     | Website:  https://openfoam.org
    \\  /    A nd           | Version:  7
     \\/     M anipulation  |
\*---------------------------------------------------------------------------*/
FoamFile
{
    version     2.0;
    format      ascii;
    class       volScalarField;
    location    "6";
    object      p;
}
// * * * * * * * * * * * * * * * * * * * * * * * * * * * * * * * * * * * * * //

dimensions      [1 -1 -2 0 0 0 0];

internalField   nonuniform List<scalar> 
90000
(
0.813523
0.819775
0.827191
0.834628
0.842318
0.849554
0.856878
0.863549
0.870309
0.876348
0.882622
0.888144
0.894438
0.900831
0.908995
0.917726
0.92802
0.938649
0.949837
0.960951
0.97151
0.981625
0.99112
0.998465
1.00707
1.01211
1.01577
1.02032
1.02172
1.02172
1.02149
1.02083
1.01919
1.01571
1.00729
0.998566
0.991588
0.987108
0.987271
0.988726
0.990929
0.993763
0.995492
0.997502
0.998864
0.998909
0.998513
0.997211
0.995332
0.993353
0.992156
0.992041
0.992455
0.994093
0.994958
0.996826
0.998237
0.998938
0.998927
0.997827
0.996706
0.996522
0.99698
0.997496
0.998212
0.999383
0.999175
0.99802
0.997335
0.997361
0.997646
0.998357
0.998957
0.998455
0.997878
0.997574
0.997703
0.997943
0.997944
0.997432
0.997264
0.997374
0.997722
0.997947
0.997949
0.99791
0.9979
0.998
0.998331
0.998734
0.998952
0.998958
0.998785
0.998602
0.998362
0.998274
0.998263
0.998363
0.998549
0.998579
0.808907
0.809611
0.810948
0.812899
0.815544
0.818729
0.822591
0.826876
0.831775
0.837036
0.842791
0.848842
0.855106
0.861442
0.867792
0.874588
0.881588
0.889555
0.897633
0.906792
0.916245
0.9258
0.936414
0.94592
0.956332
0.965987
0.974844
0.98344
0.99036
0.996558
1.00197
1.00542
1.00649
1.00741
1.00984
1.01136
1.01069
1.00797
1.00435
1.00004
0.99564
0.992726
0.991087
0.990921
0.991902
0.993251
0.994902
0.996776
0.999056
0.999699
0.998943
0.997049
0.994745
0.99291
0.992333
0.993216
0.995348
0.997866
1.00023
1.00026
0.999146
0.997419
0.995833
0.996186
0.997605
0.999345
0.999751
0.999052
0.9977
0.996552
0.996914
0.998082
0.998948
0.998697
0.997988
0.997562
0.997559
0.997861
0.997865
0.997642
0.997351
0.997342
0.997509
0.997849
0.997982
0.997938
0.997898
0.99796
0.998226
0.998554
0.998917
0.99891
0.998818
0.998659
0.99844
0.998332
0.998273
0.998336
0.998487
0.998573
0.808567
0.808572
0.808588
0.808621
0.808699
0.80884
0.809091
0.809494
0.810095
0.810941
0.812077
0.813609
0.815503
0.81793
0.820714
0.824046
0.827831
0.832213
0.837319
0.842918
0.849743
0.8569
0.865596
0.874952
0.885066
0.896903
0.908778
0.921359
0.935045
0.948217
0.960096
0.973245
0.983869
0.992675
1.00113
1.00457
1.00636
1.00755
1.00763
1.00658
1.00436
1.00086
0.997194
0.993878
0.992577
0.993151
0.994566
0.995905
0.997267
0.998273
0.998116
0.997268
0.996053
0.994296
0.993241
0.993455
0.99443
0.995802
0.997389
0.998503
0.999074
0.998395
0.997565
0.997172
0.997472
0.998071
0.998855
0.999174
0.998669
0.99784
0.997388
0.99748
0.998017
0.998474
0.998406
0.997977
0.997581
0.997577
0.997729
0.997785
0.997581
0.997412
0.997466
0.997735
0.997948
0.998002
0.99796
0.99798
0.998114
0.998459
0.998835
0.998928
0.998861
0.998713
0.998526
0.998381
0.998299
0.998332
0.998484
0.998573
0.808447
0.808423
0.808395
0.808376
0.808358
0.808344
0.808336
0.808341
0.808347
0.808353
0.808378
0.808416
0.808509
0.808664
0.80892
0.809307
0.809853
0.810569
0.811588
0.812901
0.814682
0.816988
0.819901
0.823722
0.828449
0.834467
0.841753
0.850887
0.860895
0.87351
0.887428
0.901377
0.918383
0.934212
0.949971
0.964045
0.974747
0.985318
0.991648
0.994855
0.996649
0.999043
0.999958
1.00009
1.00049
1.00056
1.00021
0.999043
0.997256
0.996087
0.995411
0.99525
0.995452
0.995858
0.9963
0.996146
0.995635
0.995067
0.995139
0.995684
0.99684
0.998358
0.999678
0.999272
0.998288
0.997336
0.997473
0.998129
0.998942
0.998841
0.998134
0.997198
0.997305
0.997896
0.99852
0.998314
0.997804
0.997485
0.997641
0.997836
0.997782
0.997509
0.997441
0.9976
0.997874
0.997987
0.997976
0.997968
0.998056
0.998293
0.998646
0.998866
0.998887
0.998785
0.998625
0.998461
0.998322
0.998337
0.99842
0.998549
0.808304
0.808303
0.808296
0.808282
0.808273
0.808266
0.808251
0.808219
0.808173
0.808125
0.808092
0.808081
0.808053
0.808029
0.808016
0.808016
0.80802
0.808036
0.808058
0.808103
0.808193
0.808321
0.808585
0.809036
0.809724
0.810763
0.81226
0.814413
0.817529
0.821635
0.827668
0.835212
0.845185
0.857861
0.872178
0.889833
0.908581
0.926808
0.945019
0.963374
0.974579
0.985363
0.995138
0.997428
0.998868
0.999659
0.999587
0.99855
0.997005
0.995779
0.995965
0.996473
0.997229
0.998091
0.998022
0.997295
0.996278
0.994936
0.994093
0.994325
0.995138
0.996821
0.998253
0.998865
0.998976
0.998423
0.997889
0.997886
0.998225
0.998476
0.99821
0.997646
0.997347
0.997554
0.997977
0.998274
0.99806
0.997701
0.997622
0.997757
0.997852
0.997697
0.997502
0.997579
0.997782
0.997982
0.998032
0.998023
0.998047
0.998185
0.998487
0.998835
0.998857
0.998818
0.998737
0.998565
0.998389
0.998341
0.998401
0.998534
0.808118
0.808121
0.808118
0.80811
0.808103
0.808103
0.808102
0.808096
0.808083
0.808067
0.808051
0.808037
0.808024
0.808005
0.807977
0.807931
0.80788
0.807834
0.807804
0.807792
0.807797
0.807845
0.807821
0.807808
0.807803
0.807814
0.807856
0.807946
0.808121
0.808424
0.809094
0.81029
0.812218
0.815288
0.820117
0.826928
0.836833
0.850388
0.866138
0.885202
0.90769
0.927509
0.9468
0.963775
0.974267
0.984703
0.988756
0.989962
0.990675
0.993952
0.998035
0.999526
1.00009
0.999852
0.999124
0.997816
0.996533
0.995437
0.994683
0.994875
0.99531
0.996027
0.99653
0.997125
0.997433
0.997959
0.998806
0.998693
0.998392
0.998004
0.997832
0.997836
0.997768
0.997696
0.997666
0.997867
0.998118
0.998051
0.997836
0.997665
0.997713
0.997776
0.997702
0.997605
0.997671
0.997867
0.998
0.998055
0.998059
0.998125
0.998309
0.998645
0.998895
0.99887
0.998804
0.998653
0.99848
0.998363
0.998395
0.99851
0.807929
0.80793
0.807927
0.807924
0.807923
0.80792
0.807915
0.807908
0.807905
0.807907
0.807909
0.807907
0.807903
0.807905
0.807897
0.807885
0.807879
0.807862
0.807832
0.80781
0.807792
0.807768
0.807747
0.807717
0.80769
0.807668
0.807662
0.807674
0.807716
0.807853
0.807831
0.807819
0.807857
0.807968
0.808247
0.808802
0.810167
0.812628
0.817277
0.824069
0.835318
0.850026
0.868583
0.891622
0.914536
0.93609
0.955624
0.973871
0.983038
0.991131
0.995399
0.997174
0.997632
0.997205
0.995117
0.995197
0.995901
0.997269
0.997833
0.997613
0.996775
0.995945
0.995217
0.995336
0.995773
0.99715
0.998407
0.99858
0.998289
0.997686
0.997729
0.998016
0.998028
0.997857
0.997513
0.997546
0.997775
0.998184
0.99812
0.997854
0.997628
0.997702
0.997803
0.997754
0.997704
0.997781
0.997969
0.998055
0.998074
0.998111
0.998207
0.998466
0.998741
0.998922
0.99892
0.998765
0.998557
0.998375
0.998397
0.998495
0.807731
0.807733
0.807733
0.80773
0.807732
0.80773
0.807725
0.807722
0.807723
0.807728
0.807734
0.807739
0.807744
0.80775
0.807747
0.807741
0.807739
0.807744
0.807748
0.807747
0.807749
0.807751
0.80775
0.807745
0.807738
0.807729
0.807717
0.807701
0.807691
0.807688
0.807701
0.80772
0.807748
0.807796
0.807882
0.808085
0.808098
0.808166
0.80838
0.808868
0.810186
0.812838
0.818153
0.82648
0.840291
0.858809
0.880166
0.905621
0.930159
0.951287
0.964947
0.976471
0.98248
0.987181
0.989829
0.994699
0.99793
1.00042
1.00025
0.999583
0.998054
0.995858
0.994501
0.994788
0.995723
0.996685
0.997453
0.997683
0.997393
0.997482
0.997895
0.998296
0.998192
0.997882
0.997516
0.997496
0.997656
0.997937
0.998091
0.998013
0.997784
0.997775
0.997817
0.997809
0.997737
0.997754
0.997876
0.99803
0.998064
0.998083
0.998128
0.998304
0.998637
0.998848
0.998968
0.998891
0.998694
0.998444
0.998404
0.998482
0.807568
0.807572
0.807576
0.807576
0.807575
0.807573
0.807574
0.807576
0.807578
0.807583
0.807591
0.807599
0.807612
0.807623
0.807622
0.807619
0.807625
0.807642
0.807658
0.80767
0.807679
0.80769
0.807699
0.807708
0.807715
0.807726
0.807737
0.807743
0.807749
0.807758
0.807767
0.807779
0.807792
0.807813
0.807833
0.807878
0.807951
0.808041
0.808149
0.808351
0.808392
0.808488
0.80876
0.809522
0.811459
0.815308
0.823208
0.834939
0.854137
0.876528
0.902232
0.92906
0.949667
0.969632
0.982673
0.991522
0.994499
0.997624
0.997531
0.995767
0.995214
0.995697
0.996492
0.997148
0.996911
0.99626
0.995637
0.995932
0.996481
0.997454
0.998333
0.998263
0.997879
0.997671
0.997742
0.997876
0.997897
0.997854
0.997844
0.997923
0.997951
0.997949
0.997906
0.997855
0.997814
0.997783
0.997824
0.997942
0.998063
0.99807
0.998079
0.998173
0.998492
0.99882
0.998969
0.998945
0.998817
0.998558
0.998428
0.99847
0.807465
0.807467
0.807468
0.807471
0.807473
0.807477
0.807483
0.807489
0.807498
0.807509
0.807519
0.807531
0.807545
0.807557
0.807569
0.807584
0.807602
0.807618
0.807637
0.80766
0.807684
0.807712
0.807736
0.807752
0.807767
0.807786
0.807807
0.80783
0.80785
0.807862
0.807871
0.807882
0.807897
0.807912
0.807925
0.807931
0.807948
0.80798
0.808022
0.80808
0.808173
0.808269
0.808426
0.808479
0.80857
0.808781
0.8094
0.810902
0.81471
0.821565
0.834935
0.853023
0.878012
0.905104
0.930442
0.954077
0.966787
0.979248
0.98425
0.988696
0.993658
0.998789
1.0002
0.999612
0.997906
0.994525
0.994536
0.995038
0.996566
0.997917
0.997876
0.997559
0.997297
0.99758
0.998164
0.998227
0.998057
0.997749
0.997636
0.997782
0.998034
0.998027
0.997973
0.99793
0.997907
0.997836
0.997816
0.997868
0.997991
0.998068
0.998057
0.998113
0.998317
0.998738
0.998969
0.998981
0.998917
0.998705
0.998479
0.998481
0.80745
0.807456
0.807466
0.807475
0.807483
0.807492
0.807503
0.807516
0.807531
0.807546
0.807561
0.80758
0.807601
0.807622
0.807646
0.807671
0.807695
0.807719
0.807747
0.807779
0.807817
0.807848
0.807872
0.807896
0.807921
0.807945
0.807973
0.808007
0.808023
0.808024
0.808026
0.808034
0.808039
0.808038
0.808032
0.80802
0.808009
0.808006
0.808007
0.808016
0.808039
0.80808
0.808137
0.808214
0.808299
0.808387
0.808506
0.808669
0.808915
0.809432
0.811036
0.814693
0.823286
0.8365
0.858657
0.884138
0.913288
0.940635
0.961845
0.981059
0.989738
0.995156
0.997162
0.995799
0.992951
0.993399
0.994875
0.996597
0.997307
0.997267
0.996407
0.996293
0.996835
0.997871
0.998534
0.998427
0.998017
0.997601
0.997684
0.997842
0.998041
0.99803
0.997995
0.998039
0.99802
0.997935
0.997829
0.997854
0.997919
0.998008
0.998036
0.998093
0.998228
0.998543
0.998937
0.998982
0.99897
0.998831
0.998569
0.9985
0.807577
0.807595
0.807609
0.80761
0.807614
0.807626
0.807647
0.807668
0.807688
0.807708
0.807725
0.807744
0.807768
0.807794
0.80782
0.807845
0.807871
0.807896
0.807923
0.807957
0.807986
0.808011
0.808039
0.808069
0.808094
0.808121
0.808156
0.808181
0.808186
0.808187
0.808186
0.808184
0.808177
0.808158
0.808128
0.808093
0.808058
0.80803
0.808008
0.807994
0.807989
0.807994
0.808006
0.808031
0.808066
0.808129
0.808212
0.808296
0.80843
0.808582
0.808646
0.808809
0.809486
0.811384
0.816471
0.825928
0.843923
0.867379
0.896644
0.926788
0.949029
0.967639
0.978172
0.984352
0.989591
0.995691
0.999041
0.998794
0.997721
0.995337
0.995039
0.995781
0.997229
0.998
0.998079
0.997853
0.997749
0.997903
0.998057
0.997989
0.997883
0.997899
0.998005
0.998141
0.998114
0.998022
0.99789
0.997877
0.997875
0.997921
0.998006
0.998096
0.998186
0.998389
0.998786
0.998991
0.999015
0.998928
0.998694
0.99854
0.807818
0.807822
0.807824
0.80783
0.807841
0.807869
0.807891
0.807902
0.80791
0.807919
0.807933
0.807955
0.807979
0.807996
0.808013
0.808034
0.808056
0.808072
0.808089
0.808112
0.808131
0.80815
0.808173
0.808194
0.808213
0.808235
0.808261
0.808282
0.808293
0.808297
0.808296
0.808292
0.808277
0.808249
0.808208
0.808159
0.80811
0.808066
0.808026
0.807988
0.807958
0.807935
0.80792
0.807915
0.807928
0.807962
0.808014
0.808076
0.808178
0.808296
0.808424
0.808456
0.808429
0.80844
0.808719
0.809664
0.812722
0.819414
0.833681
0.854672
0.883627
0.915819
0.942825
0.969348
0.984616
0.992536
0.996088
0.995249
0.992372
0.993108
0.995365
0.997492
0.997848
0.997503
0.996833
0.99696
0.997728
0.998378
0.998291
0.997953
0.9977
0.997799
0.99807
0.998208
0.998155
0.998098
0.998011
0.997901
0.997829
0.997858
0.997968
0.998095
0.998162
0.998296
0.998585
0.998937
0.99903
0.998984
0.998819
0.998604
0.80808
0.808075
0.808078
0.808089
0.808104
0.808115
0.808123
0.808125
0.80812
0.808117
0.808124
0.808142
0.808148
0.808152
0.808161
0.808175
0.808183
0.808187
0.808194
0.808205
0.808214
0.808224
0.808236
0.80825
0.808267
0.808286
0.808301
0.808315
0.808329
0.808343
0.80835
0.808347
0.808335
0.808313
0.808279
0.808236
0.808189
0.808143
0.808096
0.808045
0.807989
0.80793
0.807876
0.80784
0.807832
0.807839
0.807865
0.807915
0.807988
0.80808
0.808191
0.80827
0.8083
0.808321
0.808289
0.80822
0.808297
0.808757
0.81067
0.815384
0.827165
0.845546
0.873808
0.906727
0.934938
0.96036
0.972793
0.981581
0.987133
0.994822
0.999025
0.99882
0.997684
0.995439
0.995731
0.996777
0.998072
0.998354
0.99817
0.997727
0.997717
0.997943
0.998146
0.998111
0.998106
0.998182
0.998155
0.99797
0.997823
0.997845
0.997954
0.998085
0.998155
0.998252
0.998443
0.998775
0.99904
0.999013
0.998927
0.998702
0.808335
0.808329
0.808328
0.808329
0.808329
0.808326
0.808319
0.808309
0.808301
0.808293
0.808291
0.808289
0.808285
0.80828
0.808278
0.808276
0.808273
0.808269
0.808266
0.808265
0.808267
0.808269
0.808271
0.808277
0.808287
0.8083
0.808312
0.80832
0.808327
0.808338
0.808353
0.808366
0.808371
0.808364
0.80835
0.808333
0.808309
0.808278
0.808238
0.808186
0.80812
0.808042
0.807958
0.80788
0.80782
0.807791
0.807788
0.807802
0.807841
0.807894
0.807965
0.808057
0.808133
0.808176
0.808176
0.808174
0.808124
0.807972
0.807944
0.808208
0.809528
0.813164
0.823081
0.839699
0.867645
0.900887
0.931564
0.96307
0.9809
0.991416
0.995816
0.995154
0.992668
0.993685
0.995567
0.997702
0.998075
0.997805
0.997336
0.997471
0.998045
0.998145
0.998063
0.997957
0.998091
0.998255
0.998204
0.998026
0.997861
0.997892
0.99796
0.998037
0.998125
0.998225
0.998349
0.998583
0.998911
0.999015
0.998993
0.998807
0.808521
0.808514
0.808506
0.808497
0.808487
0.808475
0.808462
0.808449
0.808434
0.80842
0.808407
0.808394
0.80838
0.808366
0.808351
0.808336
0.808323
0.808312
0.808301
0.808293
0.808287
0.808281
0.808275
0.808273
0.808276
0.808282
0.808287
0.808289
0.808294
0.808303
0.808316
0.808337
0.808367
0.808397
0.808415
0.808426
0.808429
0.808422
0.808403
0.808366
0.808308
0.80823
0.808135
0.808029
0.807924
0.807835
0.807774
0.807744
0.807732
0.807737
0.807768
0.807825
0.80792
0.808027
0.808087
0.808101
0.808091
0.808033
0.807904
0.807739
0.807745
0.80796
0.809024
0.812035
0.820834
0.83605
0.863619
0.896986
0.928529
0.957734
0.970962
0.981768
0.987748
0.99619
0.998543
0.998276
0.997176
0.996161
0.996592
0.997827
0.998373
0.998128
0.997744
0.997902
0.998252
0.998317
0.998166
0.998007
0.997989
0.998011
0.99799
0.998008
0.998093
0.998206
0.998292
0.998441
0.998711
0.998953
0.999047
0.998911
0.808632
0.808622
0.808611
0.808602
0.808591
0.808577
0.808561
0.808544
0.808526
0.808509
0.808491
0.808471
0.808448
0.808425
0.808402
0.80838
0.808358
0.808337
0.808318
0.8083
0.808284
0.80827
0.808258
0.808251
0.808248
0.808247
0.808244
0.808244
0.808249
0.808257
0.808269
0.80829
0.80833
0.808382
0.808432
0.808471
0.808503
0.808523
0.808524
0.808507
0.808472
0.808415
0.808331
0.808226
0.808103
0.80797
0.807837
0.807724
0.807659
0.807637
0.807628
0.80765
0.807727
0.807857
0.808002
0.808096
0.808119
0.808113
0.808051
0.807891
0.807745
0.807706
0.807771
0.808016
0.808977
0.8116
0.819654
0.834156
0.862485
0.896606
0.929851
0.964447
0.981481
0.99246
0.994972
0.993912
0.993302
0.995276
0.99751
0.998413
0.998088
0.997318
0.997482
0.998139
0.998324
0.9982
0.998011
0.998059
0.998177
0.998119
0.998011
0.998014
0.998089
0.998173
0.998239
0.998347
0.998532
0.998825
0.999031
0.998953
0.808681
0.808674
0.808667
0.808659
0.808648
0.808635
0.808622
0.808609
0.808594
0.808577
0.808559
0.80854
0.808518
0.808495
0.808472
0.808447
0.80842
0.808392
0.808365
0.808337
0.80831
0.808282
0.808252
0.808226
0.808205
0.80819
0.808181
0.808178
0.808179
0.808185
0.808201
0.808233
0.808277
0.80832
0.808365
0.808405
0.80844
0.808479
0.808516
0.808534
0.808525
0.808499
0.808453
0.808387
0.808298
0.808176
0.80802
0.807841
0.807676
0.807596
0.807578
0.807575
0.807615
0.807737
0.807915
0.808093
0.808211
0.808238
0.808227
0.80815
0.807977
0.807808
0.807765
0.807804
0.807937
0.808228
0.80907
0.81139
0.819212
0.834015
0.863466
0.898578
0.931304
0.962093
0.973071
0.983021
0.990636
0.998546
0.998606
0.997868
0.996429
0.996724
0.997927
0.998586
0.998303
0.997824
0.997945
0.998285
0.998343
0.998215
0.998053
0.998076
0.99813
0.998145
0.998185
0.99827
0.998404
0.998663
0.998999
0.998964
0.808688
0.808689
0.808688
0.808682
0.808679
0.808674
0.808667
0.80866
0.80865
0.808638
0.808626
0.808613
0.808598
0.808581
0.808561
0.808538
0.808512
0.808484
0.808455
0.808422
0.808386
0.808346
0.808304
0.808259
0.808211
0.80816
0.808114
0.80808
0.808064
0.80806
0.80806
0.808064
0.808069
0.808083
0.808122
0.808189
0.808268
0.808333
0.808392
0.808446
0.808468
0.808459
0.808449
0.80844
0.808414
0.808347
0.808235
0.808074
0.807877
0.807705
0.807635
0.807627
0.80764
0.807707
0.807845
0.808045
0.808258
0.808382
0.808397
0.808375
0.808261
0.808049
0.807838
0.80779
0.80781
0.807946
0.808156
0.808359
0.80903
0.811343
0.819718
0.835709
0.867315
0.90381
0.938937
0.97249
0.985109
0.99493
0.994817
0.992862
0.994516
0.997311
0.998647
0.998301
0.99737
0.997543
0.998221
0.998483
0.99828
0.998141
0.998147
0.9982
0.998177
0.998126
0.998144
0.998205
0.998307
0.998506
0.998834
0.998958
0.808653
0.808667
0.808678
0.808682
0.80868
0.808677
0.808676
0.808677
0.808675
0.808671
0.808666
0.808661
0.808653
0.808643
0.80863
0.808613
0.808595
0.808573
0.808547
0.808518
0.808484
0.808446
0.808402
0.808351
0.80829
0.808219
0.808141
0.808064
0.807993
0.807929
0.807889
0.807877
0.807872
0.807866
0.807858
0.807855
0.807866
0.807897
0.807949
0.80803
0.808132
0.808243
0.808337
0.8084
0.808429
0.80843
0.808402
0.808323
0.808187
0.808004
0.807833
0.807761
0.807761
0.807793
0.807882
0.808041
0.808252
0.80845
0.808534
0.808539
0.808492
0.808332
0.808041
0.807832
0.807785
0.807818
0.807939
0.808205
0.80829
0.808379
0.809059
0.81174
0.821257
0.839264
0.873224
0.911497
0.942102
0.96928
0.978051
0.987022
0.996928
0.998619
0.998018
0.996293
0.996655
0.998138
0.998803
0.998535
0.998113
0.998141
0.998348
0.998323
0.998217
0.998113
0.998126
0.998161
0.998236
0.998398
0.998638
0.998896
0.808554
0.80857
0.808583
0.808594
0.808602
0.808608
0.808611
0.808615
0.808631
0.808651
0.808651
0.808647
0.808646
0.808641
0.80863
0.808622
0.80861
0.808594
0.808578
0.808558
0.808533
0.808507
0.808478
0.808441
0.808394
0.808335
0.808264
0.808181
0.808085
0.807979
0.80787
0.807777
0.807716
0.807671
0.807629
0.807605
0.807599
0.807596
0.807601
0.807639
0.80773
0.807869
0.808042
0.808212
0.808341
0.808424
0.808465
0.80847
0.808446
0.808365
0.808222
0.808056
0.807957
0.807946
0.807972
0.808064
0.808239
0.808463
0.808616
0.808644
0.808636
0.808552
0.808317
0.808005
0.807841
0.807827
0.807865
0.808046
0.808264
0.808413
0.808371
0.808422
0.809235
0.812626
0.82394
0.845153
0.881567
0.921094
0.954969
0.981702
0.99217
0.995707
0.992316
0.993753
0.997106
0.999002
0.998617
0.997759
0.997851
0.998311
0.998475
0.998377
0.998208
0.998158
0.998153
0.998137
0.998178
0.998301
0.998462
0.998757
0.808175
0.808212
0.808254
0.808301
0.808352
0.808405
0.808458
0.808512
0.808567
0.808598
0.808603
0.808603
0.808607
0.8086
0.808588
0.808578
0.808563
0.80855
0.808545
0.808535
0.80853
0.808533
0.808532
0.808523
0.808509
0.808488
0.808454
0.808402
0.808323
0.808215
0.808075
0.807905
0.807732
0.807605
0.807533
0.807482
0.807441
0.807427
0.807431
0.80746
0.807529
0.807639
0.807783
0.807961
0.808147
0.808306
0.808433
0.808527
0.808563
0.808572
0.808552
0.808452
0.808279
0.808118
0.808057
0.808057
0.808109
0.808237
0.808439
0.80863
0.808681
0.808652
0.808525
0.808292
0.808062
0.807976
0.807968
0.80804
0.808246
0.808425
0.808455
0.808449
0.808278
0.808395
0.809611
0.814242
0.828145
0.853359
0.891738
0.932854
0.956967
0.976702
0.984536
0.995817
0.999024
0.998468
0.996668
0.997157
0.99824
0.998709
0.99853
0.998194
0.998231
0.998273
0.998196
0.998129
0.998159
0.99823
0.998318
0.998603
0.807773
0.80779
0.807812
0.807837
0.807865
0.807896
0.807932
0.807973
0.808018
0.808063
0.808106
0.808152
0.80821
0.808283
0.80836
0.808422
0.808464
0.808496
0.808522
0.808544
0.808562
0.808579
0.808597
0.808616
0.808637
0.808655
0.80866
0.808658
0.808642
0.808596
0.808507
0.808365
0.808175
0.807959
0.807751
0.807584
0.807477
0.807426
0.807425
0.807455
0.80752
0.807603
0.807696
0.807797
0.807924
0.808086
0.808264
0.808444
0.808585
0.808628
0.808641
0.808635
0.808553
0.808367
0.808169
0.808062
0.808036
0.80806
0.80817
0.808348
0.80853
0.808593
0.808579
0.808515
0.808392
0.808262
0.808207
0.808216
0.808317
0.808467
0.808507
0.808474
0.808341
0.808155
0.808154
0.808478
0.810442
0.816717
0.83459
0.864864
0.904303
0.946794
0.974991
0.991857
0.995754
0.992571
0.994095
0.996808
0.998851
0.998578
0.99798
0.998053
0.998396
0.998359
0.998235
0.998136
0.998179
0.99819
0.998204
0.998447
0.807654
0.807654
0.807655
0.80765
0.807637
0.807634
0.807632
0.807632
0.807641
0.807654
0.807672
0.807699
0.807736
0.807781
0.807841
0.807919
0.808001
0.80808
0.808165
0.80826
0.808355
0.808442
0.808525
0.808606
0.808683
0.808752
0.808816
0.808873
0.8089
0.8089
0.808888
0.808844
0.808757
0.808623
0.808448
0.808248
0.808062
0.807905
0.807771
0.807693
0.807689
0.807703
0.807716
0.80774
0.807784
0.807853
0.807967
0.808143
0.808368
0.808542
0.808602
0.808612
0.808608
0.808555
0.808412
0.808221
0.808061
0.808012
0.808046
0.808197
0.808355
0.808462
0.808533
0.808583
0.808586
0.808552
0.808459
0.808407
0.808422
0.808518
0.808581
0.808535
0.808409
0.808208
0.808114
0.808121
0.80823
0.808841
0.811819
0.820637
0.843852
0.878367
0.919539
0.955986
0.972792
0.983427
0.995744
0.998938
0.998442
0.996911
0.997452
0.998396
0.998597
0.998396
0.998138
0.998175
0.998237
0.998165
0.998123
0.998313
0.807645
0.807637
0.807633
0.807626
0.80761
0.807599
0.807599
0.807603
0.807598
0.807593
0.807594
0.807598
0.807607
0.807627
0.807664
0.807712
0.807761
0.807817
0.807895
0.80799
0.808086
0.808181
0.808287
0.808417
0.808569
0.808717
0.808833
0.808902
0.808953
0.809005
0.809033
0.809023
0.808994
0.808946
0.808879
0.808782
0.808663
0.808537
0.808406
0.808269
0.808116
0.807953
0.807834
0.807784
0.807759
0.807746
0.807761
0.80783
0.80796
0.808144
0.808346
0.808517
0.808628
0.80869
0.808682
0.808579
0.8084
0.808214
0.808155
0.8082
0.808262
0.808304
0.808395
0.808544
0.808638
0.808645
0.808612
0.808522
0.808478
0.808483
0.808519
0.808533
0.808484
0.808346
0.808212
0.808182
0.808232
0.808292
0.808483
0.809422
0.814188
0.82673
0.856661
0.895617
0.937526
0.974529
0.990331
0.996242
0.992455
0.99416
0.99692
0.998705
0.998454
0.997937
0.998097
0.998356
0.998312
0.998027
0.998052
0.998385
0.808058
0.808015
0.807972
0.807927
0.807878
0.807839
0.807805
0.807771
0.807738
0.807709
0.807674
0.807639
0.807628
0.807642
0.807643
0.807639
0.80765
0.807682
0.807743
0.80784
0.807937
0.808006
0.808069
0.808151
0.808256
0.808378
0.808515
0.808643
0.808744
0.808832
0.808904
0.808917
0.808895
0.808864
0.808845
0.808823
0.808775
0.808718
0.808675
0.808627
0.808521
0.808339
0.808128
0.807924
0.807789
0.807748
0.807729
0.807726
0.807774
0.807892
0.80806
0.808258
0.80852
0.808795
0.808903
0.808871
0.80877
0.808668
0.808583
0.808469
0.808325
0.808246
0.808253
0.808384
0.808569
0.808635
0.808626
0.808579
0.808497
0.808462
0.808469
0.808487
0.808495
0.808467
0.808392
0.808338
0.808323
0.808337
0.808318
0.808302
0.808586
0.810391
0.818083
0.836541
0.87247
0.917284
0.948995
0.974378
0.983514
0.99605
0.998742
0.998231
0.996913
0.997563
0.998543
0.998517
0.998149
0.997916
0.998095
0.998518
0.808919
0.808869
0.808806
0.80874
0.808673
0.808602
0.80852
0.808436
0.808356
0.808262
0.808181
0.80812
0.80806
0.807992
0.807923
0.807866
0.807809
0.807761
0.807755
0.80778
0.807845
0.807909
0.807918
0.807914
0.807923
0.807956
0.80799
0.808008
0.808019
0.808046
0.808114
0.808204
0.808278
0.808343
0.808407
0.808469
0.808528
0.808607
0.808659
0.808678
0.808671
0.808599
0.80849
0.808364
0.808199
0.808066
0.807996
0.807901
0.807832
0.807866
0.808023
0.808241
0.808498
0.808796
0.808979
0.808959
0.808906
0.808919
0.808935
0.808853
0.808531
0.808258
0.808228
0.808264
0.808373
0.808512
0.808605
0.80861
0.808573
0.808498
0.808447
0.808455
0.808494
0.808506
0.808496
0.808457
0.808417
0.808388
0.808334
0.80828
0.808221
0.808274
0.80902
0.812561
0.824973
0.851334
0.891847
0.937852
0.971942
0.991802
0.995327
0.992281
0.994752
0.997403
0.998753
0.998403
0.997676
0.997896
0.998454
0.998629
0.809209
0.809157
0.80911
0.809077
0.809038
0.808987
0.808942
0.808896
0.808842
0.808781
0.808715
0.808651
0.808584
0.808505
0.808413
0.808326
0.808242
0.808165
0.808094
0.808024
0.807954
0.807875
0.807805
0.807775
0.807746
0.807708
0.807679
0.80764
0.80758
0.807546
0.807552
0.807599
0.807682
0.807781
0.807886
0.807979
0.808076
0.808203
0.808334
0.808482
0.808619
0.808667
0.808718
0.808781
0.808792
0.808753
0.808658
0.80849
0.808317
0.808194
0.808197
0.808304
0.808512
0.808703
0.808782
0.808807
0.808831
0.808917
0.809004
0.808974
0.808719
0.808347
0.808236
0.808256
0.808313
0.808408
0.80853
0.808648
0.80868
0.808657
0.808587
0.808515
0.808489
0.808485
0.808475
0.80845
0.808431
0.808404
0.808356
0.808283
0.808247
0.808266
0.808295
0.808569
0.810271
0.816734
0.836013
0.869614
0.914446
0.953731
0.972819
0.984333
0.997692
0.99889
0.998274
0.996893
0.997353
0.998515
0.998822
0.998658
0.809122
0.809103
0.8091
0.809086
0.809047
0.809042
0.80905
0.809038
0.809013
0.808986
0.808953
0.808914
0.808867
0.808804
0.808734
0.808665
0.808603
0.808539
0.808495
0.808452
0.808385
0.808299
0.808183
0.808058
0.807938
0.807829
0.80777
0.80774
0.807697
0.807629
0.807612
0.807644
0.807708
0.807778
0.807845
0.807906
0.808008
0.808146
0.80826
0.80845
0.808702
0.808751
0.808802
0.808945
0.809034
0.809028
0.808936
0.808755
0.808691
0.808616
0.808512
0.808561
0.808628
0.80861
0.808464
0.808409
0.808437
0.808587
0.808768
0.808801
0.808709
0.808515
0.808378
0.808346
0.808366
0.808437
0.808532
0.808654
0.808771
0.808801
0.808785
0.808669
0.808504
0.808415
0.808392
0.808388
0.808396
0.80839
0.80835
0.80832
0.808324
0.808347
0.80838
0.808409
0.808522
0.809155
0.812666
0.823693
0.852427
0.892679
0.939225
0.975688
0.993005
0.995011
0.993014
0.995065
0.997972
0.999036
0.99881
0.998393
0.808382
0.808405
0.808432
0.808467
0.80851
0.808565
0.808629
0.808676
0.808711
0.808753
0.808777
0.808796
0.808843
0.808882
0.808876
0.808875
0.808887
0.808858
0.808854
0.808874
0.808857
0.808837
0.808793
0.808729
0.808672
0.808651
0.808668
0.808733
0.808797
0.808813
0.808764
0.80872
0.808698
0.808616
0.808472
0.808358
0.8083
0.808272
0.808296
0.808484
0.808599
0.808661
0.808796
0.808905
0.80898
0.80896
0.80877
0.808622
0.808665
0.808703
0.808683
0.80874
0.808758
0.808647
0.808346
0.808195
0.808214
0.808322
0.808454
0.808551
0.808622
0.808672
0.808682
0.808681
0.808679
0.808662
0.808637
0.808649
0.808761
0.808859
0.808851
0.808741
0.808537
0.808377
0.808331
0.808335
0.808361
0.808409
0.808428
0.808422
0.808421
0.808424
0.808439
0.808452
0.808423
0.808431
0.808665
0.810234
0.817118
0.836274
0.873465
0.920415
0.954429
0.975247
0.98718
0.997868
0.999108
0.998618
0.997934
0.998242
0.80819
0.80824
0.808296
0.808362
0.808449
0.808535
0.808629
0.808727
0.808794
0.80881
0.808804
0.808822
0.808931
0.808964
0.808951
0.808969
0.809012
0.808977
0.808956
0.808953
0.808931
0.808949
0.808934
0.808894
0.808871
0.808874
0.808978
0.809213
0.809449
0.809696
0.809814
0.809826
0.809796
0.809667
0.809469
0.80923
0.808939
0.80859
0.808411
0.808422
0.808482
0.808486
0.808449
0.808494
0.808511
0.808418
0.808139
0.80803
0.808084
0.808311
0.808651
0.808881
0.808983
0.808907
0.808612
0.808337
0.808267
0.808335
0.808446
0.808527
0.808614
0.808778
0.80892
0.808954
0.808961
0.808892
0.808726
0.808631
0.808622
0.808662
0.808692
0.808676
0.808569
0.808407
0.808354
0.808359
0.808428
0.808533
0.808548
0.808527
0.808464
0.808439
0.808435
0.808424
0.808381
0.808362
0.808369
0.808463
0.8092
0.812843
0.825987
0.855849
0.898218
0.948724
0.97812
0.995261
0.994835
0.994979
0.996715
0.998407
0.808238
0.808413
0.808713
0.808829
0.808831
0.808822
0.808836
0.808816
0.808795
0.808798
0.808786
0.808793
0.808854
0.808863
0.808851
0.808796
0.808673
0.808625
0.808609
0.808527
0.808353
0.808321
0.808343
0.808288
0.808226
0.808239
0.808358
0.808599
0.808913
0.809393
0.809658
0.809648
0.80966
0.809724
0.80967
0.809378
0.808885
0.808489
0.808274
0.808227
0.808287
0.808314
0.808214
0.808084
0.808039
0.807944
0.807713
0.807602
0.807665
0.807956
0.808501
0.808997
0.809235
0.809214
0.809044
0.80891
0.808835
0.80884
0.808834
0.808798
0.808775
0.808863
0.809021
0.80904
0.809019
0.808917
0.808727
0.808579
0.808531
0.808522
0.808533
0.808557
0.808573
0.808555
0.808522
0.808545
0.808622
0.808642
0.80863
0.808587
0.808463
0.80836
0.80836
0.808358
0.808374
0.80838
0.808404
0.808462
0.808509
0.808762
0.810708
0.818264
0.841685
0.881055
0.924277
0.966638
0.977366
0.990762
0.998204
0.998172
0.809199
0.809214
0.809232
0.809244
0.809242
0.809187
0.809068
0.808932
0.808799
0.808708
0.808616
0.808514
0.808425
0.808331
0.808167
0.807916
0.807607
0.807358
0.807218
0.807092
0.806945
0.806835
0.806754
0.806693
0.806683
0.806715
0.806813
0.806983
0.807328
0.807832
0.808216
0.808446
0.808629
0.808815
0.808845
0.808714
0.808446
0.808237
0.808149
0.808119
0.80815
0.808171
0.808054
0.807925
0.807873
0.807779
0.807596
0.807498
0.807621
0.808141
0.808816
0.809119
0.809248
0.809234
0.809146
0.809132
0.809158
0.809197
0.809137
0.808967
0.808879
0.808807
0.808727
0.808662
0.808615
0.808573
0.808548
0.808573
0.808602
0.808597
0.808593
0.80863
0.808725
0.808757
0.808744
0.808737
0.808721
0.808668
0.808599
0.808499
0.808363
0.8083
0.808305
0.808343
0.808397
0.808477
0.808518
0.808513
0.808484
0.80845
0.80855
0.80943
0.814429
0.829375
0.864609
0.911024
0.955056
0.985017
0.994757
0.994404