/*--------------------------------*- C++ -*----------------------------------*\
  =========                 |
  \\      /  F ield         | OpenFOAM: The Open Source CFD Toolbox
   \\    /   O peration     | Website:  https://openfoam.org
    \\  /    A nd           | Version:  7
     \\/     M anipulation  |
\*---------------------------------------------------------------------------*/
FoamFile
{
    version     2.0;
    format      ascii;
    class       volScalarField;
    location    "1";
    object      rho;
}
// * * * * * * * * * * * * * * * * * * * * * * * * * * * * * * * * * * * * * //

dimensions      [1 -3 0 0 0 0 0];

internalField   nonuniform List<scalar> 
90000
(
1.26027
1.26908
1.27895
1.28797
1.29766
1.30704
1.31591
1.32396
1.3323
1.33995
1.34726
1.35459
1.36145
1.36987
1.37842
1.38846
1.39877
1.4102
1.42177
1.43371
1.44529
1.4557
1.46645
1.47402
1.48214
1.48799
1.49185
1.49508
1.49739
1.50002
1.50257
1.50499
1.50352
1.4977
1.4882
1.4802
1.47411
1.47003
1.46797
1.46813
1.4694
1.47144
1.47284
1.47418
1.47428
1.47384
1.47277
1.4703
1.46738
1.46415
1.46234
1.46253
1.46311
1.4643
1.46571
1.46577
1.46497
1.46277
1.45938
1.45676
1.45499
1.45295
1.45235
1.45204
1.45021
1.44624
1.44178
1.43748
1.4324
1.42519
1.41522
1.40382
1.39593
1.39356
1.3937
1.39408
1.39402
1.39369
1.39351
1.3936
1.3938
1.39389
1.39389
1.39392
1.39392
1.39383
1.3932
1.39093
1.38603
1.37803
1.36826
1.35705
1.34997
1.34756
1.34669
1.34599
1.34575
1.34464
1.34556
1.35601
1.25365
1.25496
1.25725
1.26031
1.26403
1.26883
1.27435
1.28042
1.28715
1.29447
1.30217
1.31034
1.31871
1.32725
1.33576
1.34481
1.3541
1.36404
1.37417
1.3849
1.39614
1.40791
1.41998
1.43226
1.44407
1.45557
1.46608
1.47586
1.48388
1.49066
1.49592
1.49843
1.50045
1.50091
1.50108
1.50199
1.50086
1.49736
1.49169
1.48627
1.48191
1.47917
1.47708
1.47588
1.47493
1.47524
1.47594
1.47635
1.47614
1.47535
1.47345
1.47164
1.47029
1.46969
1.47057
1.4713
1.4709
1.46925
1.4662
1.46299
1.46042
1.45787
1.4572
1.45668
1.4556
1.45254
1.44774
1.44217
1.43656
1.43037
1.42166
1.41045
1.40177
1.39819
1.39796
1.39838
1.3985
1.39824
1.39795
1.39766
1.39772
1.39781
1.39782
1.39783
1.39771
1.39744
1.39671
1.39447
1.38965
1.38163
1.37215
1.36013
1.35329
1.35099
1.35032
1.34981
1.3496
1.34743
1.34797
1.35673
1.25401
1.25429
1.25459
1.25493
1.25533
1.25586
1.25654
1.25741
1.25865
1.26031
1.26243
1.26512
1.26841
1.27239
1.27698
1.2822
1.28817
1.29475
1.30226
1.3104
1.31943
1.32959
1.34028
1.35279
1.36542
1.37991
1.39418
1.41012
1.42527
1.44061
1.45479
1.46619
1.47876
1.48707
1.49421
1.49842
1.49878
1.49899
1.4994
1.50074
1.50066
1.49946
1.4969
1.49279
1.48852
1.48531
1.48256
1.48111
1.4806
1.48049
1.48035
1.47999
1.47943
1.47861
1.47771
1.47753
1.47746
1.47673
1.47487
1.47223
1.46888
1.46486
1.4612
1.45959
1.4588
1.45768
1.45499
1.44913
1.44131
1.43339
1.42578
1.41746
1.40932
1.40443
1.40301
1.40323
1.40366
1.40368
1.40344
1.40305
1.40278
1.40263
1.40246
1.40229
1.40204
1.40174
1.40104
1.3989
1.39408
1.38641
1.37701
1.36467
1.35776
1.35564
1.35511
1.35458
1.35362
1.35083
1.3504
1.35756
1.25454
1.25486
1.2552
1.25555
1.25592
1.25632
1.25676
1.25729
1.25775
1.25821
1.2587
1.25925
1.25987
1.26058
1.26139
1.26241
1.26368
1.26526
1.26727
1.26976
1.27283
1.27662
1.28119
1.28696
1.2937
1.3021
1.31198
1.32352
1.33767
1.35252
1.37059
1.38862
1.408
1.42752
1.44518
1.46305
1.4745
1.4853
1.49427
1.49733
1.49941
1.49948
1.49894
1.49797
1.49686
1.49525
1.49232
1.48909
1.48676
1.486
1.4854
1.48463
1.4834
1.48171
1.47947
1.47798
1.47721
1.47709
1.47738
1.47699
1.47545
1.47236
1.46774
1.46349
1.4605
1.45919
1.45781
1.45415
1.44711
1.43742
1.42826
1.41979
1.41307
1.40922
1.40764
1.40728
1.40737
1.40733
1.40717
1.40682
1.40659
1.40646
1.40628
1.40612
1.40606
1.40596
1.40543
1.40346
1.39866
1.39093
1.38145
1.36971
1.36138
1.35862
1.35793
1.35727
1.35618
1.35336
1.3524
1.35836
1.25566
1.25597
1.25631
1.25666
1.25702
1.25739
1.25777
1.25816
1.25858
1.25903
1.2595
1.25999
1.26049
1.26102
1.2616
1.26214
1.26267
1.26321
1.26377
1.26436
1.26493
1.26554
1.26624
1.26709
1.26827
1.26984
1.27211
1.27512
1.27951
1.28531
1.29324
1.30397
1.31644
1.33365
1.35174
1.373
1.3966
1.41714
1.44002
1.45591
1.47077
1.48208
1.48699
1.48978
1.49338
1.49433
1.49432
1.4947
1.49463
1.49415
1.49289
1.49083
1.48798
1.48489
1.48231
1.47956
1.47767
1.4769
1.47687
1.47632
1.47495
1.47276
1.4704
1.46751
1.4636
1.46029
1.45724
1.45336
1.448
1.44091
1.43191
1.42243
1.41475
1.41081
1.4097
1.40959
1.40969
1.40975
1.40964
1.40929
1.40882
1.40863
1.40864
1.40868
1.40863
1.40833
1.40772
1.40584
1.40107
1.39364
1.38414
1.37226
1.36337
1.36114
1.36032
1.35938
1.35791
1.35491
1.3539
1.35906
1.25708
1.25738
1.2577
1.25803
1.25836
1.25871
1.25906
1.25944
1.25983
1.26022
1.26064
1.26108
1.26152
1.26195
1.26239
1.26284
1.26328
1.26369
1.26408
1.26448
1.26491
1.2653
1.26557
1.26576
1.26592
1.26608
1.26625
1.26648
1.2668
1.26737
1.26831
1.26998
1.27269
1.27695
1.28368
1.29279
1.30628
1.32302
1.34335
1.36862
1.39295
1.41647
1.44186
1.45952
1.47106
1.4838
1.49192
1.49421
1.49487
1.49438
1.49327
1.49013
1.48596
1.48347
1.48288
1.48187
1.48012
1.47823
1.4764
1.47418
1.4729
1.4718
1.47049
1.46861
1.46603
1.46229
1.45667
1.45172
1.44702
1.44108
1.43357
1.42496
1.41665
1.41169
1.41026
1.41015
1.41022
1.41034
1.41051
1.41046
1.41009
1.40957
1.40942
1.40949
1.40965
1.40965
1.40925
1.40743
1.40261
1.39532
1.38588
1.37411
1.36539
1.36312
1.362
1.36079
1.35896
1.35588
1.35499
1.35962
1.25883
1.25911
1.25941
1.25972
1.26004
1.26035
1.26067
1.261
1.26135
1.2617
1.26206
1.26243
1.26282
1.2632
1.26356
1.26391
1.26426
1.26458
1.26483
1.26505
1.2653
1.26557
1.26572
1.26579
1.26587
1.26599
1.26611
1.26615
1.26619
1.26623
1.26624
1.26628
1.26642
1.26664
1.26715
1.26826
1.27032
1.27408
1.27997
1.28971
1.30378
1.32325
1.3455
1.37415
1.40177
1.42432
1.44774
1.46379
1.47442
1.47935
1.48355
1.48385
1.48565
1.48686
1.4867
1.48547
1.48315
1.47994
1.47532
1.47214
1.47105
1.47055
1.46986
1.46863
1.46635
1.46184
1.45626
1.45111
1.44622
1.44067
1.43356
1.42538
1.41755
1.41247
1.41067
1.4105
1.41049
1.41054
1.41061
1.41062
1.41052
1.41013
1.40987
1.40995
1.41027
1.41051
1.41024
1.40864
1.40388
1.39639
1.38708
1.37571
1.36664
1.36347
1.36243
1.36124
1.35947
1.35671
1.35594
1.36011
1.26056
1.26082
1.26109
1.26135
1.26165
1.26197
1.26227
1.26257
1.26286
1.26315
1.26346
1.26376
1.26406
1.26435
1.26464
1.26489
1.26512
1.26534
1.2655
1.26561
1.26576
1.2659
1.26596
1.266
1.26605
1.26609
1.2661
1.26609
1.26609
1.26609
1.26607
1.26611
1.26622
1.26624
1.26616
1.26621
1.26639
1.26663
1.2671
1.26807
1.26998
1.27397
1.28095
1.29256
1.31066
1.33299
1.36065
1.38976
1.41969
1.44089
1.46143
1.47522
1.48358
1.48636
1.48575
1.48409
1.48069
1.47641
1.47378
1.47192
1.47092
1.4701
1.4687
1.46628
1.46337
1.46002
1.45618
1.45181
1.44673
1.44045
1.43265
1.42472
1.41753
1.41264
1.41095
1.4105
1.41044
1.41052
1.41062
1.41063
1.41054
1.4104
1.41028
1.41037
1.41055
1.4106
1.41032
1.40882
1.40451
1.39689
1.38772
1.37625
1.36687
1.36329
1.36244
1.36143
1.35981
1.35743
1.3568
1.36057
1.26206
1.26232
1.26257
1.26282
1.26308
1.26336
1.26363
1.26392
1.26418
1.2644
1.26464
1.26487
1.26512
1.26533
1.26549
1.26567
1.26585
1.26595
1.26601
1.26605
1.26606
1.2661
1.26614
1.26616
1.26619
1.26622
1.26623
1.26624
1.26626
1.26625
1.26623
1.26623
1.26626
1.26625
1.26613
1.26603
1.26613
1.26619
1.2662
1.2662
1.26623
1.26638
1.26684
1.2681
1.27085
1.27679
1.28682
1.30371
1.32622
1.35634
1.38563
1.41493
1.44015
1.45741
1.46725
1.46947
1.47111
1.47401
1.47594
1.47505
1.47325
1.47128
1.46745
1.46349
1.46074
1.4584
1.45584
1.45219
1.44711
1.4397
1.43198
1.4244
1.41742
1.41264
1.41075
1.41035
1.41037
1.41053
1.41058
1.41053
1.41043
1.41041
1.41047
1.41054
1.41061
1.4106
1.41031
1.40887
1.40467
1.39732
1.38817
1.37661
1.36671
1.36364
1.36292
1.36193
1.36026
1.35808
1.35752
1.36098
1.26307
1.26331
1.26357
1.26382
1.26406
1.26429
1.26451
1.26475
1.26499
1.26521
1.26541
1.2656
1.2658
1.266
1.26612
1.26623
1.26632
1.26639
1.26644
1.26647
1.26647
1.2664
1.26639
1.26642
1.26645
1.26646
1.26646
1.26645
1.26646
1.26645
1.26646
1.26647
1.26648
1.26645
1.26642
1.26641
1.26636
1.26624
1.26608
1.26599
1.26595
1.26597
1.26595
1.26596
1.26602
1.26633
1.2672
1.26966
1.2746
1.28524
1.30149
1.32667
1.35672
1.38887
1.41949
1.44227
1.45903
1.4705
1.47302
1.4728
1.47139
1.46765
1.46394
1.46157
1.45992
1.45778
1.45489
1.45076
1.44501
1.43877
1.43217
1.42532
1.41786
1.41201
1.41014
1.41013
1.41029
1.41055
1.41052
1.41038
1.41032
1.41038
1.41054
1.41059
1.41059
1.41049
1.41011
1.40873
1.40476
1.39787
1.38878
1.37753
1.36694
1.36414
1.36348
1.36247
1.36082
1.35871
1.35815
1.36133
1.26373
1.26396
1.2642
1.26444
1.26467
1.26489
1.2651
1.2653
1.26547
1.26564
1.26579
1.26592
1.26608
1.26628
1.2664
1.26648
1.26657
1.26664
1.26669
1.26672
1.26672
1.26664
1.26661
1.26665
1.26669
1.2667
1.2667
1.26669
1.26668
1.26669
1.26669
1.2667
1.26667
1.26664
1.26662
1.26664
1.26663
1.26658
1.26646
1.26633
1.26616
1.26599
1.26585
1.26577
1.26577
1.26579
1.26581
1.26577
1.26593
1.26666
1.26897
1.27457
1.28572
1.30459
1.33104
1.36464
1.39455
1.42398
1.43939
1.45233
1.45548
1.458
1.4618
1.46282
1.46182
1.45923
1.45446
1.44786
1.44284
1.43862
1.43405
1.42659
1.41761
1.41119
1.40977
1.40987
1.41031
1.41051
1.41037
1.4103
1.41033
1.41046
1.41055
1.41052
1.41046
1.41028
1.40985
1.40859
1.40505
1.39848
1.3897
1.37862
1.36745
1.3646
1.36395
1.36292
1.36134
1.3593
1.35875
1.36166
1.26402
1.26419
1.26436
1.26452
1.26469
1.26487
1.26501
1.26513
1.26525
1.2654
1.26565
1.26595
1.26609
1.2662
1.26631
1.26638
1.26641
1.26648
1.26655
1.2666
1.26662
1.26664
1.26667
1.26669
1.2667
1.26672
1.26674
1.26676
1.2668
1.26684
1.26687
1.26687
1.26683
1.26682
1.26681
1.26681
1.26677
1.26666
1.26657
1.2665
1.26642
1.26626
1.26613
1.26599
1.26589
1.26577
1.26566
1.26552
1.26542
1.26534
1.26519
1.2654
1.26625
1.26921
1.27581
1.28969
1.31225
1.34013
1.37443
1.40662
1.42824
1.44873
1.45776
1.46076
1.45953
1.45602
1.45026
1.44618
1.44305
1.44034
1.43528
1.42648
1.41633
1.41082
1.40991
1.41012
1.41035
1.41027
1.41018
1.41023
1.41048
1.4106
1.41054
1.41046
1.41036
1.4102
1.40982
1.40868
1.4055
1.3993
1.39089
1.38005
1.36833
1.36493
1.36423
1.36324
1.36185
1.35984
1.35928
1.36198
1.26463
1.26474
1.26485
1.26495
1.26506
1.26518
1.2653
1.26542
1.26554
1.26568
1.26588
1.26597
1.266
1.26605
1.26616
1.26632
1.2665
1.26664
1.26671
1.26674
1.26673
1.26679
1.26692
1.26699
1.26705
1.26711
1.26717
1.2672
1.26722
1.26723
1.26723
1.26724
1.26729
1.26734
1.26733
1.26721
1.2671
1.26701
1.26692
1.26682
1.26671
1.26656
1.26636
1.2662
1.26603
1.26588
1.26567
1.2655
1.26526
1.26514
1.26495
1.26479
1.26467
1.26441
1.2647
1.26598
1.27016
1.27912
1.29683
1.32235
1.35477
1.38705
1.41175
1.43191
1.43917
1.44419
1.44576
1.44742
1.44549
1.44203
1.43473
1.42386
1.41525
1.4114
1.41078
1.41046
1.41007
1.40993
1.41008
1.4105
1.41075
1.41069
1.41054
1.41041
1.4103
1.41014
1.40981
1.40891
1.40614
1.40008
1.39172
1.38121
1.36955
1.36512
1.36438
1.36342
1.36202
1.36024
1.35973
1.36225
1.26537
1.26541
1.26545
1.26551
1.26558
1.26568
1.26581
1.26591
1.26599
1.26608
1.26621
1.26633
1.26639
1.26646
1.26656
1.26665
1.26672
1.26678
1.26681
1.26679
1.26679
1.26689
1.26698
1.26704
1.26707
1.2671
1.26712
1.26712
1.26712
1.26714
1.26718
1.26721
1.26723
1.26723
1.26718
1.26705
1.26701
1.26708
1.26717
1.26721
1.2672
1.2671
1.26694
1.26678
1.26659
1.26636
1.26608
1.26581
1.26556
1.2653
1.26506
1.26468
1.26446
1.26413
1.2639
1.26361
1.26334
1.26378
1.26612
1.27211
1.28639
1.30712
1.33915
1.37492
1.40384
1.42711
1.44291
1.44395
1.44219
1.43646
1.42896
1.42147
1.4163
1.41296
1.41127
1.40999
1.40948
1.40971
1.41035
1.4108
1.41079
1.41071
1.41061
1.41047
1.4103
1.41014
1.40991
1.40921
1.4067
1.40067
1.39218
1.38198
1.37061
1.36533
1.36437
1.36347
1.36224
1.36062
1.36019
1.36253
1.26608
1.26609
1.26611
1.26614
1.26621
1.26633
1.2665
1.26656
1.26657
1.26658
1.26663
1.26677
1.26688
1.26694
1.267
1.26706
1.26712
1.26715
1.26717
1.26714
1.26716
1.26723
1.26729
1.26733
1.26735
1.26736
1.26736
1.26735
1.26734
1.26733
1.26732
1.26732
1.26731
1.26728
1.26723
1.26724
1.26731
1.26734
1.26731
1.26724
1.26719
1.26715
1.26716
1.26718
1.26713
1.26686
1.26656
1.26627
1.26604
1.2658
1.26548
1.26507
1.26462
1.26423
1.26377
1.26338
1.263
1.2626
1.26214
1.26199
1.26309
1.26711
1.27852
1.29842
1.33056
1.36255
1.39584
1.42039
1.42189
1.42233
1.42408
1.42332
1.41876
1.4139
1.40971
1.40895
1.40944
1.41041
1.41081
1.41074
1.4106
1.4107
1.41076
1.41062
1.41039
1.41023
1.41008
1.40947
1.40711
1.40118
1.39271
1.38278
1.37161
1.36557
1.36443
1.36373
1.36253
1.36103
1.36066
1.36282
1.26685
1.26689
1.26691
1.26695
1.26698
1.267
1.26706
1.2672
1.26729
1.26731
1.26735
1.26742
1.26751
1.26757
1.26763
1.26768
1.26774
1.26778
1.26781
1.26783
1.26785
1.26787
1.26789
1.2679
1.26791
1.26792
1.26793
1.26792
1.26791
1.2679
1.26787
1.26781
1.26775
1.26769
1.26766
1.26765
1.26758
1.26743
1.26738
1.26745
1.26754
1.26759
1.26752
1.26725
1.26702
1.26687
1.26678
1.26662
1.26632
1.26594
1.26556
1.26534
1.26507
1.26471
1.26419
1.26367
1.26308
1.26253
1.26194
1.2614
1.26094
1.26002
1.26072
1.26392
1.27429
1.29298
1.32348
1.36352
1.3908
1.41209
1.41825
1.41928
1.41547
1.40857
1.40704
1.40856
1.41075
1.41105
1.4108
1.41022
1.41036
1.41083
1.41087
1.41072
1.4105
1.41045
1.41033
1.40971
1.40744
1.40185
1.39364
1.3839
1.37257
1.36581
1.36467
1.3641
1.36295
1.36154
1.36119
1.36314
1.26735
1.26736
1.26738
1.26741
1.26743
1.26744
1.26752
1.26768
1.26778
1.26783
1.26788
1.26792
1.26796
1.26803
1.2681
1.26816
1.26821
1.26825
1.26829
1.26832
1.26835
1.26836
1.26837
1.26838
1.26838
1.26838
1.26838
1.26839
1.26839
1.26839
1.26839
1.2684
1.26843
1.26844
1.26841
1.26835
1.26827
1.2682
1.26811
1.26798
1.26782
1.26766
1.26749
1.26733
1.26726
1.26722
1.26714
1.26697
1.2667
1.26635
1.26597
1.26561
1.26527
1.26496
1.26463
1.26421
1.26353
1.26282
1.26207
1.26135
1.26075
1.25992
1.25871
1.25748
1.2582
1.26008
1.26933
1.28872
1.31959
1.35121
1.36953
1.38757
1.39291
1.39832
1.40579
1.41166
1.41162
1.4109
1.40932
1.40978
1.41071
1.41099
1.41084
1.41047
1.41048
1.4107
1.41057
1.40988
1.4078
1.40289
1.39495
1.38529
1.37372
1.36619
1.36497
1.36457
1.36352
1.36217
1.3618
1.36351
1.26713
1.26718
1.26719
1.2672
1.26722
1.26728
1.26736
1.26745
1.26755
1.26766
1.26773
1.26778
1.26784
1.26793
1.26802
1.26809
1.26816
1.26822
1.26828
1.26833
1.26838
1.26842
1.26847
1.26852
1.26857
1.26862
1.26866
1.26869
1.26871
1.26871
1.26869
1.26868
1.26871
1.26876
1.26881
1.26886
1.26892
1.26898
1.26894
1.26876
1.26853
1.26833
1.26818
1.26804
1.26789
1.2677
1.26747
1.26719
1.26691
1.26665
1.2664
1.26613
1.26583
1.26546
1.26498
1.2644
1.26375
1.26314
1.26245
1.26175
1.26088
1.26002
1.25861
1.25732
1.25578
1.25492
1.2521
1.25405
1.26476
1.2794
1.30273
1.33132
1.36026
1.38719
1.40092
1.40809
1.40779
1.40564
1.40729
1.40947
1.41126
1.41098
1.41014
1.41018
1.41065
1.41083
1.41066
1.40988
1.40822
1.40405
1.39629
1.38666
1.37528
1.36676
1.36536
1.36492
1.36397
1.36269
1.36234
1.36385
1.26716
1.26731
1.26737
1.26739
1.26742
1.26747
1.26755
1.26765
1.26775
1.26786
1.26796
1.26803
1.2681
1.26819
1.26829
1.26836
1.26842
1.26849
1.26855
1.26861
1.26867
1.26873
1.26879
1.26884
1.26891
1.26898
1.26901
1.2691
1.26924
1.26939
1.26951
1.26962
1.26971
1.26978
1.26983
1.26983
1.26976
1.26965
1.26953
1.26934
1.26917
1.2691
1.26908
1.26899
1.2687
1.26829
1.26793
1.26763
1.26736
1.26708
1.26683
1.26659
1.26633
1.26597
1.26547
1.2649
1.26428
1.2636
1.26281
1.26195
1.26102
1.26008
1.2589
1.25755
1.25577
1.2541
1.25165
1.24856
1.24427
1.2436
1.24808
1.26042
1.29016
1.32592
1.35969
1.38041
1.3931
1.40058
1.4102
1.41161
1.41095
1.40917
1.4095
1.4103
1.41089
1.41074
1.41035
1.40986
1.40862
1.40501
1.39733
1.38794
1.37716
1.36771
1.36575
1.36521
1.36425
1.36304
1.36273
1.36408
1.26821
1.26827
1.2683
1.26833
1.26838
1.26843
1.26849
1.26856
1.26866
1.26875
1.2688
1.26886
1.26893
1.269
1.26907
1.26912
1.26917
1.26922
1.26927
1.26931
1.26935
1.26941
1.26946
1.2695
1.26955
1.26959
1.26962
1.26967
1.26971
1.26974
1.26976
1.26977
1.26978
1.26977
1.26975
1.26968
1.26951
1.26947
1.2696
1.26974
1.26984
1.26991
1.26991
1.26973
1.26935
1.26894
1.2686
1.26834
1.26813
1.2679
1.26763
1.26731
1.26687
1.26627
1.2656
1.26501
1.26456
1.26411
1.26345
1.26254
1.26146
1.26031
1.25911
1.25789
1.25642
1.25432
1.25179
1.24824
1.24251
1.23522
1.22667
1.22586
1.2339
1.25675
1.29463
1.3345
1.37404
1.3944
1.40692
1.40805
1.40546
1.40689
1.40909
1.41111
1.41087
1.41004
1.41004
1.40999
1.40894
1.40551
1.39805
1.38914
1.37909
1.36888
1.366
1.36541
1.36451
1.36332
1.36305
1.36425
1.26967
1.26971
1.26975
1.26978
1.26982
1.26986
1.26989
1.26989
1.26992
1.27
1.27005
1.2701
1.27015
1.27018
1.27021
1.2702
1.27013
1.27016
1.27023
1.27027
1.27029
1.27031
1.27033
1.27035
1.27039
1.27042
1.27043
1.27045
1.27045
1.27044
1.2704
1.27037
1.27032
1.27027
1.2702
1.27012
1.27005
1.27004
1.27009
1.27011
1.27005
1.26988
1.26967
1.26947
1.26933
1.26927
1.2692
1.26908
1.26895
1.2688
1.26852
1.26808
1.26749
1.26684
1.26623
1.26566
1.26504
1.26433
1.26359
1.26283
1.26192
1.26079
1.25955
1.25815
1.25643
1.25436
1.25164
1.24782
1.24193
1.23305
1.22284
1.21561
1.21552
1.22043
1.23495
1.26572
1.30555
1.34362
1.37708
1.38774
1.3973
1.40901
1.41145
1.41085
1.40912
1.40941
1.41038
1.41044
1.4093
1.40583
1.39904
1.39051
1.38085
1.37002
1.36602
1.36547
1.36459
1.36354
1.36331
1.36437
1.27047
1.27055
1.27059
1.27061
1.27064
1.27068
1.27073
1.27077
1.27081
1.27083
1.27086
1.27088
1.2709
1.27091
1.27091
1.27092
1.27085
1.27079
1.27086
1.27094
1.27101
1.27104
1.27101
1.271
1.27109
1.27118
1.27125
1.2713
1.27135
1.27138
1.27142
1.27145
1.27148
1.27149
1.27149
1.27146
1.27142
1.27135
1.27124
1.27108
1.27085
1.27057
1.27032
1.27012
1.26997
1.26983
1.26967
1.2695
1.26928
1.26894
1.26848
1.26798
1.26756
1.26727
1.26701
1.26659
1.26594
1.26517
1.26433
1.26341
1.26242
1.26136
1.26013
1.25861
1.25679
1.25456
1.25161
1.24729
1.24065
1.23103
1.22048
1.214
1.21254
1.21285
1.21498
1.22312
1.24139
1.27691
1.31834
1.35725
1.38988
1.40418
1.40884
1.4053
1.4063
1.40891
1.41136
1.4108
1.4089
1.40606
1.40066
1.39225
1.38247
1.37124
1.36608
1.36541
1.36465
1.3638
1.36364
1.36454
1.27022
1.27027
1.27031
1.27036
1.2704
1.27044
1.27047
1.2705
1.27055
1.2706
1.27061
1.27062
1.27069
1.27075
1.27075
1.27077
1.27088
1.27098
1.27105
1.27109
1.27107
1.27107
1.27119
1.27135
1.27145
1.27154
1.27164
1.27176
1.27188
1.27199
1.27211
1.27222
1.27231
1.27239
1.27244
1.27246
1.27247
1.27244
1.27236
1.27225
1.27212
1.272
1.27186
1.27168
1.27147
1.27122
1.27091
1.27054
1.27011
1.26963
1.26913
1.26863
1.26816
1.26769
1.26728
1.26698
1.26672
1.26625
1.26542
1.26435
1.26317
1.26198
1.26082
1.25941
1.25752
1.25496
1.25139
1.24622
1.23843
1.22785
1.21781
1.21301
1.21226
1.21227
1.21241
1.21316
1.21639
1.22732
1.24989
1.28987
1.3333
1.36485
1.3866
1.39641
1.40761
1.41192
1.41155
1.4099
1.40851
1.40698
1.4028
1.39412
1.38406
1.37282
1.36646
1.36543
1.3648
1.36419
1.36406
1.36484
1.27094
1.2709
1.27096
1.27107
1.27112
1.27116
1.27119
1.2712
1.27123
1.27128
1.27133
1.27139
1.27145
1.27151
1.27156
1.27161
1.2717
1.27178
1.27183
1.27187
1.27188
1.27191
1.27202
1.27212
1.27218
1.27223
1.2723
1.27238
1.27245
1.27253
1.2726
1.27267
1.27274
1.27281
1.27286
1.27291
1.27294
1.27296
1.27296
1.27291
1.27288
1.27288
1.27288
1.27284
1.2727
1.27247
1.2721
1.27165
1.27116
1.2707
1.27028
1.26988
1.26946
1.269
1.26848
1.2679
1.26724
1.26651
1.26574
1.26489
1.26387
1.2626
1.26104
1.25919
1.25703
1.25431
1.25038
1.24427
1.23505
1.2237
1.21507
1.21217
1.21189
1.21191
1.21196
1.21204
1.21227
1.21352
1.21831
1.23355
1.26236
1.30441
1.34945
1.38539
1.40202
1.4095
1.40676
1.40768
1.40874
1.40803
1.40429
1.39571
1.38589
1.37566
1.36778
1.36566
1.3648
1.3644
1.3643
1.36506
1.27285
1.27291
1.273
1.27304
1.27306
1.27309
1.27318
1.27323
1.27325
1.27329
1.27339
1.27346
1.27349
1.27354
1.27362
1.2737
1.27378
1.27385
1.27391
1.27396
1.27398
1.27394
1.27398
1.27409
1.27417
1.27423
1.27426
1.27428
1.27429
1.2743
1.2743
1.2743
1.27429
1.27425
1.27417
1.27404
1.27388
1.2737
1.27352
1.27337
1.27324
1.27313
1.27304
1.27296
1.27285
1.2727
1.27249
1.2722
1.27185
1.2715
1.27117
1.27087
1.27059
1.27028
1.26979
1.26902
1.26809
1.26716
1.26626
1.26533
1.26435
1.26313
1.26146
1.2594
1.25701
1.25383
1.24899
1.24136
1.23054
1.2193
1.21304
1.21173
1.21169
1.2117
1.21172
1.21173
1.21174
1.21181
1.2122
1.21434
1.22203
1.24241
1.27806
1.32361
1.35889
1.38663
1.39591
1.40805
1.40973
1.40823
1.40405
1.39761
1.38875
1.37898
1.36916
1.36546
1.36457
1.36439
1.36426
1.36498
1.275
1.27502
1.27503
1.27502
1.27501
1.27509
1.27529
1.27536
1.27537
1.27539
1.27552
1.27565
1.27568
1.27567
1.27573
1.27589
1.27602
1.2761
1.27616
1.27622
1.27626
1.27624
1.27624
1.27634
1.27644
1.2765
1.27655
1.27658
1.27658
1.27659
1.27657
1.27654
1.27648
1.27638
1.27626
1.27608
1.27588
1.27567
1.27547
1.27529
1.2751
1.27487
1.27459
1.2743
1.27399
1.27366
1.27329
1.27287
1.27244
1.27206
1.27171
1.27138
1.27107
1.27077
1.27039
1.26982
1.26908
1.26825
1.26734
1.26633
1.26514
1.26371
1.26197
1.25983
1.25705
1.25309
1.2469
1.23735
1.2253
1.21565
1.21208
1.21169
1.2117
1.21173
1.21173
1.21172
1.21169
1.21166
1.21164
1.21172
1.2125
1.21627
1.22811
1.25575
1.29672
1.3448
1.37997
1.4047
1.40664
1.40295
1.40118
1.39858
1.39154
1.38122
1.37014
1.36471
1.3639
1.36379
1.36381
1.36472
1.27589
1.27592
1.27594
1.27599
1.27605
1.27616
1.2763
1.27635
1.27637
1.27643
1.27657
1.2767
1.27674
1.27679
1.27688
1.27702
1.27713
1.27721
1.27729
1.27734
1.2774
1.27748
1.27757
1.27766
1.27773
1.27775
1.27774
1.27778
1.27788
1.27795
1.278
1.27802
1.27801
1.27796
1.27788
1.27781
1.27773
1.27764
1.27755
1.27745
1.27728
1.27704
1.27675
1.27647
1.27622
1.27594
1.2756
1.2752
1.27477
1.27431
1.27379
1.27322
1.27263
1.27206
1.2715
1.27093
1.27033
1.26964
1.26876
1.26768
1.26641
1.26491
1.26312
1.26079
1.25735
1.25197
1.24354
1.23183
1.21993
1.21344
1.21226
1.21222
1.21225
1.21232
1.21234
1.21231
1.21228
1.21224
1.21219
1.21215
1.21206
1.21222
1.21382
1.22021
1.23888
1.27386
1.31981
1.3643
1.38374
1.39284
1.40181
1.40051
1.39368
1.3833
1.3721
1.36505
1.36383
1.36344
1.36336
1.36437
1.27718
1.27722
1.27723
1.27723
1.27723
1.27732
1.27742
1.27748
1.27751
1.27755
1.27762
1.27768
1.27771
1.27776
1.27785
1.27794
1.278
1.27803
1.27807
1.27813
1.27819
1.27825
1.27831
1.27837
1.27844
1.27847
1.27849
1.27847
1.27842
1.27844
1.27851
1.27855
1.27855
1.27851
1.27846
1.27845
1.27844
1.27837
1.27832
1.27828
1.27825
1.27821
1.27815
1.2781
1.27805
1.27793
1.2777
1.27743
1.27713
1.27677
1.2763
1.27574
1.27513
1.27443
1.27366
1.27283
1.27196
1.27104
1.27005
1.26894
1.26788
1.26663
1.26453
1.26122
1.25621
1.2485
1.23745
1.22469
1.21552
1.2127
1.21248
1.21251
1.21261
1.21273
1.21278
1.21279
1.21281
1.21284
1.21286
1.21288
1.21291
1.21302
1.21297
1.21332
1.21638
1.22682
1.25542
1.29731
1.34681
1.38262
1.39935
1.39707
1.39109
1.38216
1.37492
1.36707
1.36436
1.36368
1.3632
1.36416
1.28095
1.28098
1.28098
1.28102
1.28106
1.28109
1.28107
1.28107
1.28116
1.28123
1.28126
1.28125
1.28128
1.28133
1.28135
1.28131
1.28136
1.28147
1.28152
1.28154
1.28151
1.28152
1.28156
1.28157
1.28157
1.28157
1.28158
1.28157
1.28154
1.28149
1.28145
1.28142
1.2814
1.28135
1.28128
1.2812
1.2811
1.28096
1.28076
1.28053
1.28028
1.28002
1.27976
1.27946
1.2791
1.27865
1.27814
1.27775
1.2776
1.27755
1.27748
1.27725
1.27681
1.27618
1.27542
1.27453
1.27348
1.27233
1.27119
1.27004
1.26845
1.26599
1.26259
1.25772
1.25054
1.24044
1.22815
1.2175
1.21278
1.2121
1.21211
1.21225
1.21247
1.21262
1.21269
1.21275
1.21281
1.21288
1.21296
1.21304
1.21314
1.21323
1.21334
1.21359
1.21392
1.21519
1.22101
1.23894
1.27772
1.32507
1.36627
1.378
1.38317
1.38239
1.37757
1.3696
1.3644
1.36314
1.36272
1.3638
1.28496
1.28498
1.285
1.28502
1.28504
1.28506
1.28508
1.2851
1.28513
1.28515
1.28513
1.28513
1.28516
1.2852
1.28523
1.28524
1.28517
1.28518
1.28529
1.28535
1.28536
1.28533
1.28539
1.28544
1.28544
1.28544
1.28544
1.28544
1.28544
1.28544
1.28542
1.28534
1.28527
1.28525
1.2852
1.2851
1.28496
1.2848
1.2846
1.28434
1.28406
1.28381
1.28357
1.28327
1.28286
1.28233
1.28177
1.28118
1.28056
1.27996
1.27936
1.27872
1.27801
1.27728
1.27659
1.27593
1.27516
1.2741
1.27268
1.27073
1.26809
1.26458
1.25948
1.25202
1.24193
1.22995
1.21886
1.21264
1.21131
1.21124
1.21128
1.21144
1.21163
1.2117
1.21171
1.21173
1.21176
1.2118
1.21185
1.21192
1.21201
1.21211
1.21225
1.21245
1.21275
1.21323
1.21405
1.21711
1.22824
1.25808
1.30071
1.34542
1.37446
1.37863
1.37515
1.36825
1.36204
1.36073
1.36095
1.36284
1.28607
1.28612
1.28616
1.28618
1.28619
1.28624
1.28629
1.28631
1.28636
1.28639
1.28642
1.28646
1.28647
1.28648
1.28654
1.28656
1.28652
1.28658
1.28666
1.28666
1.28675
1.28693
1.28704
1.28712
1.2872
1.28726
1.28728
1.2873
1.28731
1.28734
1.28736
1.28737
1.28735
1.28735
1.28736
1.28735
1.28729
1.28726
1.2873
1.28728
1.28722
1.28721
1.28719
1.28704
1.28677
1.28645
1.28605
1.28544
1.28458
1.2837
1.28296
1.28232
1.28162
1.28075
1.27982
1.27899
1.27813
1.2768
1.27479
1.27191
1.26786
1.26212
1.25422
1.24393
1.23225
1.22164
1.21465
1.21193
1.21133
1.21128
1.21131
1.21147
1.21167
1.21176
1.21177
1.21179
1.21181
1.21184
1.21187
1.21191
1.21194
1.212
1.21205
1.21212
1.21226
1.2125
1.21307
1.21445
1.21665
1.22345
1.2427
1.27976
1.31941
1.3477
1.35726
1.35768
1.35702
1.35733
1.35805
1.36141
1.29104
1.29107
1.29108
1.29105
1.2911
1.29122
1.2913
1.29136
1.2914
1.29141
1.2914
1.29146
1.29152
1.29155
1.29152
1.29145
1.29155
1.29161
1.29163
1.29169
1.29171
1.2916
1.29164
1.29176
1.29185
1.29189
1.29186
1.2918
1.29174
1.29168
1.2916
1.2915
1.29137
1.29122
1.29111
1.29103
1.29083
1.29063
1.29046
1.29019
1.2897
1.2892
1.28874
1.28825
1.28774
1.28744
1.28733
1.28719
1.28693
1.28666
1.28644
1.28615
1.28547
1.2842
1.28247
1.28039
1.27807
1.27555
1.27235
1.26796
1.26182
1.25379
1.24445
1.23489
1.22634
1.21981
1.21595
1.21458
1.21442
1.21445
1.21464
1.21488
1.21496
1.21494
1.21488
1.21482
1.2148
1.21474
1.21468
1.21464
1.21454
1.21454
1.21447
1.21442
1.21441
1.2144
1.21456
1.21515
1.21661
1.21928
1.22442
1.236
1.26242
1.29842
1.32972
1.34708
1.35377
1.35681
1.35682
1.35966
1.30194
1.30199
1.30205
1.30207
1.30204
1.30205
1.30213
1.30218
1.30222
1.30224
1.30226
1.30227
1.30228
1.30231
1.3023
1.30229
1.30233
1.30225
1.30217
1.30221
1.30221
1.30213
1.30206
1.30203
1.30204
1.30202
1.30185
1.30172
1.30164
1.30151
1.30132
1.30112
1.30089
1.30064
1.30041
1.30023
1.30003
1.29975
1.29941
1.29899
1.2984
1.29763
1.2968
1.29597
1.29512
1.29424
1.29334
1.29239
1.29129
1.29
1.28856
1.28708
1.28557
1.28394
1.28198
1.27953
1.2763
1.27193
1.26632
1.25946
1.25154
1.24316
1.23528
1.22885
1.22409
1.22083
1.21927
1.219
1.21906
1.21932
1.21988
1.22037
1.22065
1.22084
1.22105
1.2213
1.22159
1.2219
1.2222
1.22255
1.22288
1.22324
1.22362
1.22395
1.22436
1.22466
1.22503
1.22526
1.22548
1.22643
1.229
1.23597
1.24539
1.26245
1.28765
1.31321
1.33161
1.34364
1.35052
1.35986
1.30758
1.30757
1.30762
1.30767
1.30768
1.30769
1.30763
1.30762
1.30766
1.30765
1.30766
1.30773
1.30771
1.30772
1.30774
1.30766
1.30767
1.30763
1.30752
1.30743
1.30739
1.30734
1.30731
1.30718
1.307
1.30694
1.30683
1.30671
1.30658
1.30644
1.30629
1.30615
1.30598
1.30576
1.30555
1.30542
1.30532
1.3052
1.30508
1.30497
1.30476
1.30435
1.30379
1.30318
1.30242
1.3014
1.30019
1.29892
1.29751
1.29581
1.29373
1.29137
1.28898
1.28663
1.28407
1.28083
1.27629
1.27027
1.26298
1.25491
1.24666
1.23876
1.23153
1.22529
1.22084
1.21843
1.21772
1.21783
1.21843
1.21932
1.22005
1.22054
1.22092
1.22131
1.22175
1.22226
1.22282
1.22343
1.22408
1.22477
1.22553
1.22631
1.2272
1.22809
1.22907
1.23008
1.23118
1.23233
1.23359
1.23513
1.23741
1.24105
1.24736
1.257
1.27085
1.28876
1.30849
1.32676
1.34083
1.35836
1.31795
1.31778
1.31777
1.31793
1.31803
1.31803
1.31796
1.31785
1.31775
1.31758
1.31746
1.31753
1.31754
1.31748
1.31728
1.31695
1.31692
1.3169
1.31671
1.31634
1.31611
1.31598
1.31577
1.31547
1.31519
1.315
1.31482
1.31458
1.31431
1.31402
1.3137
1.31335
1.31301
1.31268
1.31231
1.31197
1.31164
1.31118
1.31068
1.31022
1.30976
1.3092
1.30857
1.30798
1.30741
1.30678
1.30606
1.30531
1.30453
1.30355
1.30217
1.30024
1.29764
1.29424
1.28999
1.28498
1.27931
1.27297
1.26584
1.25798
1.24987
1.24212
1.23519
1.22935
1.22549
1.2245
1.2247
1.22542
1.22659
1.22768
1.22832
1.22869
1.22904
1.22944
1.22992
1.23045
1.23103
1.23165
1.23232
1.23304
1.23382
1.23466
1.23558
1.23659
1.2377
1.23892
1.24024
1.24178
1.24335
1.24484
1.24631
1.24786
1.25116
1.25826
1.27039
1.2871
1.30597
1.32471
1.33941
1.35799
1.34231
1.34218
1.34204
1.34201
1.34199
1.34186
1.34171
1.34156
1.34142
1.34128
1.34114
1.34102
1.34085
1.34062
1.34037
1.34013
1.33989
1.3396
1.33933
1.33903
1.33868
1.33838
1.33808
1.33775
1.33738
1.33703
1.33673
1.33643
1.33602
1.33551
1.33497
1.33443
1.33396
1.33358
1.33318
1.33275
1.33234
1.33186
1.33124
1.33061
1.33001
1.32944
1.32881
1.32805
1.32714
1.326
1.32453
1.32262
1.32024
1.31738
1.31411
1.3105
1.30648
1.30176
1.29605
1.28946
1.28258
1.27591
1.26966
1.26373
1.25804
1.25306
1.24949
1.24788
1.24781
1.24834
1.24964
1.25146
1.25315
1.25434
1.25518
1.25594
1.25677
1.25771
1.25876
1.25987
1.26105
1.26228
1.26359
1.26497
1.26643
1.26799
1.26963
1.2714
1.27327
1.27529
1.27739
1.27968
1.28213
1.28448
1.28664
1.28835
1.28997
1.29278
1.29842
1.30793
1.32073
1.33534
1.34794
1.3658
1.3676
1.36741
1.36715
1.36712
1.36727
1.36734
1.36732
1.3672
1.36708
1.36693
1.36682
1.36679
1.36676
1.36668
1.36652
1.36651
1.3665
1.36638
1.36617
1.3661
1.36604
1.36593
1.36581
1.36574
1.36565
1.36548
1.36523
1.36497
1.36468
1.36433
1.36395
1.36355
1.36313
1.36266
1.36209
1.3614
1.36058
1.35967
1.35868
1.35767
1.35673
1.35585
1.35489
1.35362
1.35186
1.34957
1.34677
1.34349
1.33969
1.33516
1.32969
1.32335
1.31653
1.3096
1.30263
1.2955
1.28829
1.28135
1.27511
1.2702
1.26738
1.26666
1.26691
1.26816
1.27046
1.27312
1.2756
1.27761
1.27914
1.28037
1.28155
1.28284
1.28429
1.28587
1.28756
1.28932
1.29117
1.2931
1.29513
1.29726
1.2995
1.30185
1.30432
1.3069
1.30961
1.31244
1.3154
1.3185
1.32175
1.32506
1.32836
1.33144
1.33371
1.33522
1.33686
1.33969
1.34466
1.35216
1.36078
1.376
1.42351
1.42345
1.42339
1.42325
1.42326
1.42335
1.42335
1.4233
1.42317
1.42314
1.42313
1.42309
1.42302
1.42292
1.42281