/*--------------------------------*- C++ -*----------------------------------*\
  =========                 |
  \\      /  F ield         | OpenFOAM: The Open Source CFD Toolbox
   \\    /   O peration     | Website:  https://openfoam.org
    \\  /    A nd           | Version:  7
     \\/     M anipulation  |
\*---------------------------------------------------------------------------*/
FoamFile
{
    version     2.0;
    format      ascii;
    class       volVectorField;
    location    "8.3";
    object      U;
}
// * * * * * * * * * * * * * * * * * * * * * * * * * * * * * * * * * * * * * //

dimensions      [0 1 -1 0 0 0 0];

internalField   nonuniform List<vector> 
8400
(
(2.43405 -0.637713 0)
(2.42085 -0.152191 0)
(2.46934 -0.027735 0)
(2.47347 0.10504 0)
(2.46004 0.300237 0)
(2.49514 0.282661 0)
(2.4854 0.390389 0)
(2.49933 0.420313 0)
(2.51442 0.404101 0)
(2.55088 0.415065 0)
(2.58801 0.421162 0)
(2.59358 0.375498 0)
(2.61951 0.314667 0)
(2.66525 0.26883 0)
(2.70307 0.242317 0)
(2.7052 0.195239 0)
(2.70773 0.178225 0)
(2.70948 0.146445 0)
(2.72763 0.159672 0)
(2.73396 0.191785 0)
(2.74692 0.219019 0)
(2.75696 0.22652 0)
(2.76446 0.223713 0)
(2.76731 0.216134 0)
(2.76718 0.198691 0)
(2.76573 0.1668 0)
(2.77007 0.131644 0)
(2.77966 0.112818 0)
(2.7883 0.105541 0)
(2.79961 0.120358 0)
(2.57148 -1.41051 0)
(2.60903 -1.41079 0)
(2.62962 -1.39338 0)
(2.62529 -1.24361 0)
(2.58055 -0.983679 0)
(2.55254 -0.839998 0)
(2.48066 -0.552571 0)
(2.44566 -0.330998 0)
(2.44809 -0.241608 0)
(2.42852 -0.0889713 0)
(2.42373 0.115973 0)
(2.43938 0.102124 0)
(2.44878 0.0941418 0)
(2.47321 0.0956165 0)
(2.50685 0.149837 0)
(2.51897 0.1571 0)
(2.52873 0.146742 0)
(2.52975 0.128066 0)
(2.5516 0.141571 0)
(2.56344 0.14887 0)
(2.57292 0.153035 0)
(2.57456 0.15268 0)
(2.5812 0.15061 0)
(2.59497 0.151564 0)
(2.60683 0.147765 0)
(2.61525 0.13284 0)
(2.62849 0.121031 0)
(2.64735 0.113694 0)
(2.66117 0.125339 0)
(2.67953 0.114465 0)
(2.82579 -1.47955 0)
(2.86974 -1.50649 0)
(2.89162 -1.541 0)
(2.94027 -1.57076 0)
(2.95538 -1.60072 0)
(2.98849 -1.63103 0)
(3.01645 -1.67191 0)
(3.00986 -1.64098 0)
(2.94748 -1.51398 0)
(2.81529 -1.28735 0)
(2.66755 -0.879129 0)
(2.61292 -0.605392 0)
(2.49882 -0.317542 0)
(2.45178 -0.14646 0)
(2.37197 0.0882958 0)
(2.3802 0.213337 0)
(2.37102 0.312221 0)
(2.38344 0.30243 0)
(2.39974 0.254473 0)
(2.43261 0.205041 0)
(2.45144 0.140341 0)
(2.47071 0.0991089 0)
(2.48071 0.0996444 0)
(2.48501 0.133161 0)
(2.48761 0.150512 0)
(2.49873 0.15003 0)
(2.51567 0.14549 0)
(2.53607 0.134416 0)
(2.54973 0.117052 0)
(2.56924 0.103805 0)
(2.97579 -1.61967 0)
(2.99169 -1.64275 0)
(3.01363 -1.66595 0)
(3.0279 -1.69326 0)
(3.03937 -1.70377 0)
(3.05278 -1.71905 0)
(3.06703 -1.7253 0)
(3.07278 -1.72298 0)
(3.08027 -1.72472 0)
(3.0679 -1.72324 0)
(3.06538 -1.72295 0)
(3.06787 -1.71707 0)
(3.03277 -1.61195 0)
(2.92495 -1.39948 0)
(2.76933 -1.0492 0)
(2.69009 -0.691149 0)
(2.60758 -0.312152 0)
(2.56551 -0.11138 0)
(2.54373 -0.0181175 0)
(2.49634 0.0936935 0)
(2.49069 0.105178 0)
(2.4953 0.0999464 0)
(2.50311 0.110081 0)
(2.50368 0.117252 0)
(2.48402 0.10276 0)
(2.48613 0.100809 0)
(2.49251 0.105905 0)
(2.50205 0.104643 0)
(2.51229 0.10457 0)
(2.52799 0.0897366 0)
(3.03857 -1.72523 0)
(3.04161 -1.72661 0)
(3.04644 -1.73169 0)
(3.0464 -1.73933 0)
(3.05512 -1.73883 0)
(3.06747 -1.73551 0)
(3.07407 -1.73417 0)
(3.08284 -1.72269 0)
(3.08586 -1.71314 0)
(3.07226 -1.71858 0)
(3.05112 -1.71191 0)
(3.04676 -1.68944 0)
(3.07547 -1.6529 0)
(3.08009 -1.64746 0)
(3.0714 -1.66132 0)
(3.06736 -1.66225 0)
(3.02032 -1.46998 0)
(2.94057 -1.17957 0)
(2.82212 -0.790303 0)
(2.69012 -0.365341 0)
(2.62678 -0.101998 0)
(2.61873 0.000555293 0)
(2.5675 0.108361 0)
(2.53873 0.110369 0)
(2.52816 0.0857329 0)
(2.55531 0.0978663 0)
(2.54876 0.0884873 0)
(2.53957 0.0661573 0)
(2.54108 0.0605066 0)
(2.54853 0.0591902 0)
(3.06585 -1.75092 0)
(3.06682 -1.74272 0)
(3.06197 -1.73671 0)
(3.05878 -1.73159 0)
(3.05676 -1.71185 0)
(3.06437 -1.68632 0)
(3.07223 -1.68149 0)
(3.07694 -1.65663 0)
(3.08692 -1.6195 0)
(3.06616 -1.61362 0)
(3.0438 -1.65545 0)
(3.04936 -1.62725 0)
(3.0742 -1.55158 0)
(3.10475 -1.52581 0)
(3.10386 -1.55639 0)
(3.09644 -1.5467 0)
(3.10175 -1.52627 0)
(3.10396 -1.51593 0)
(3.1107 -1.50891 0)
(3.07501 -1.42698 0)
(2.99098 -1.11703 0)
(2.89197 -0.736129 0)
(2.8175 -0.42752 0)
(2.75881 -0.198525 0)
(2.73734 -0.0410216 0)
(2.68531 0.0985091 0)
(2.64497 0.075423 0)
(2.61331 0.112992 0)
(2.62103 0.124257 0)
(2.61748 0.10869 0)
(3.09999 -1.60971 0)
(3.09743 -1.59487 0)
(3.09077 -1.57983 0)
(3.07371 -1.58736 0)
(3.06855 -1.57313 0)
(3.07328 -1.55345 0)
(3.08549 -1.53073 0)
(3.09805 -1.50716 0)
(3.11601 -1.49366 0)
(3.10992 -1.50574 0)
(3.08374 -1.55711 0)
(3.07776 -1.58024 0)
(3.0761 -1.52734 0)
(3.10165 -1.4847 0)
(3.12149 -1.47373 0)
(3.12903 -1.47161 0)
(3.11479 -1.44703 0)
(3.1085 -1.40891 0)
(3.11928 -1.38051 0)
(3.12441 -1.39006 0)
(3.13258 -1.363 0)
(3.12816 -1.3699 0)
(3.10164 -1.28334 0)
(3.03843 -1.00959 0)
(3.01458 -0.746767 0)
(2.90446 -0.410143 0)
(2.93099 -0.238763 0)
(2.79404 0.00478156 0)
(2.72822 0.0796536 0)
(2.6998 0.112281 0)
(3.09416 -1.57926 0)
(3.08911 -1.58234 0)
(3.08136 -1.5835 0)
(3.07071 -1.59197 0)
(3.06696 -1.58663 0)
(3.07545 -1.54959 0)
(3.09102 -1.52117 0)
(3.09443 -1.51445 0)
(3.11131 -1.49545 0)
(3.1251 -1.47908 0)
(3.12922 -1.4703 0)
(3.1152 -1.46094 0)
(3.10401 -1.42639 0)
(3.12314 -1.37642 0)
(3.14306 -1.36837 0)
(3.14504 -1.37089 0)
(3.13326 -1.36235 0)
(3.11791 -1.33514 0)
(3.11551 -1.31664 0)
(3.12149 -1.31379 0)
(3.12952 -1.30634 0)
(3.13517 -1.28528 0)
(3.13845 -1.26311 0)
(3.14174 -1.25866 0)
(3.1412 -1.24119 0)
(3.11296 -1.14668 0)
(3.09672 -0.960002 0)
(3.01752 -0.585587 0)
(3.01256 -0.445297 0)
(2.87006 -0.084654 0)
(3.1444 -1.38103 0)
(3.14465 -1.38057 0)
(3.14686 -1.3759 0)
(3.14937 -1.36955 0)
(3.14491 -1.3719 0)
(3.14115 -1.35296 0)
(3.14607 -1.30597 0)
(3.14954 -1.28805 0)
(3.16018 -1.26128 0)
(3.17451 -1.2482 0)
(3.16678 -1.25724 0)
(3.14506 -1.28985 0)
(3.12725 -1.30173 0)
(3.13039 -1.27394 0)
(3.15219 -1.23965 0)
(3.15813 -1.23794 0)
(3.15485 -1.23855 0)
(3.14019 -1.24878 0)
(3.13509 -1.24984 0)
(3.14078 -1.23285 0)
(3.15091 -1.20793 0)
(3.15346 -1.19231 0)
(3.14366 -1.16946 0)
(3.14613 -1.14242 0)
(3.1412 -1.12889 0)
(3.131 -1.146 0)
(3.12997 -1.1387 0)
(3.13192 -1.13271 0)
(3.12853 -1.05605 0)
(3.04932 -0.604403 0)
(3.16099 -1.23004 0)
(3.16288 -1.23022 0)
(3.16488 -1.23498 0)
(3.1713 -1.23635 0)
(3.16847 -1.24543 0)
(3.15251 -1.27321 0)
(3.14237 -1.27545 0)
(3.14014 -1.24337 0)
(3.14695 -1.22215 0)
(3.1514 -1.21497 0)
(3.16068 -1.20187 0)
(3.16178 -1.1979 0)
(3.15065 -1.19898 0)
(3.13747 -1.19757 0)
(3.1384 -1.17375 0)
(3.15151 -1.16194 0)
(3.16138 -1.14802 0)
(3.16613 -1.12819 0)
(3.15849 -1.11454 0)
(3.15806 -1.08422 0)
(3.15603 -1.07564 0)
(3.15106 -1.06864 0)
(3.14184 -1.07635 0)
(3.13608 -1.0774 0)
(3.13268 -1.07276 0)
(3.13572 -1.08248 0)
(3.13822 -1.0661 0)
(3.14001 -1.0499 0)
(3.14137 -1.03568 0)
(3.13969 -1.0279 0)
(3.1628 -1.10607 0)
(3.16324 -1.09245 0)
(3.17229 -1.08262 0)
(3.1788 -1.07609 0)
(3.18245 -1.07444 0)
(3.18227 -1.07682 0)
(3.17577 -1.09536 0)
(3.16486 -1.10743 0)
(3.1537 -1.08231 0)
(3.15618 -1.06915 0)
(3.15958 -1.06532 0)
(3.16875 -1.05171 0)
(3.16987 -1.04502 0)
(3.16041 -1.04242 0)
(3.15121 -1.03976 0)
(3.15233 -1.03377 0)
(3.15379 -1.03528 0)
(3.15364 -1.02909 0)
(3.14925 -1.02181 0)
(3.14518 -1.01472 0)
(3.14207 -1.01028 0)
(3.13937 -1.00654 0)
(3.13827 -1.01243 0)
(3.13885 -0.998879 0)
(3.14126 -0.993765 0)
(3.14629 -0.981852 0)
(3.14743 -0.971692 0)
(3.14383 -0.948279 0)
(3.13945 -0.944492 0)
(3.13056 -0.944563 0)
(3.16375 -0.973952 0)
(3.15877 -0.969391 0)
(3.15406 -0.956544 0)
(3.16042 -0.944944 0)
(3.16627 -0.938066 0)
(3.17336 -0.933862 0)
(3.17799 -0.934951 0)
(3.17299 -0.939119 0)
(3.16075 -0.943098 0)
(3.14847 -0.939524 0)
(3.14876 -0.938473 0)
(3.15257 -0.936827 0)
(3.16026 -0.925356 0)
(3.16015 -0.920608 0)
(3.15368 -0.918083 0)
(3.14755 -0.914441 0)
(3.14659 -0.910905 0)
(3.14556 -0.909194 0)
(3.14303 -0.915477 0)
(3.14162 -0.919762 0)
(3.14169 -0.918852 0)
(3.14216 -0.9143 0)
(3.14339 -0.904982 0)
(3.14585 -0.893597 0)
(3.14258 -0.882403 0)
(3.14187 -0.874888 0)
(3.13583 -0.87599 0)
(3.13184 -0.880904 0)
(3.12604 -0.896078 0)
(3.12906 -0.897428 0)
(3.15645 -0.790809 0)
(3.15471 -0.791989 0)
(3.14882 -0.801949 0)
(3.14078 -0.814211 0)
(3.14 -0.806386 0)
(3.1469 -0.792614 0)
(3.1518 -0.775557 0)
(3.16132 -0.769214 0)
(3.15457 -0.783427 0)
(3.14698 -0.788691 0)
(3.13719 -0.795151 0)
(3.13633 -0.79706 0)
(3.14123 -0.796274 0)
(3.145 -0.794166 0)
(3.14383 -0.794866 0)
(3.14088 -0.798072 0)
(3.13931 -0.79967 0)
(3.13969 -0.798832 0)
(3.14305 -0.790887 0)
(3.14342 -0.785292 0)
(3.14216 -0.778352 0)
(3.13599 -0.777476 0)
(3.13431 -0.779493 0)
(3.13241 -0.784974 0)
(3.13063 -0.794414 0)
(3.1288 -0.804764 0)
(3.1279 -0.811037 0)
(3.12838 -0.82043 0)
(3.13073 -0.819375 0)
(3.13486 -0.814214 0)
(3.14443 -0.600856 0)
(3.13816 -0.622887 0)
(3.1333 -0.628663 0)
(3.12622 -0.633988 0)
(3.11522 -0.642651 0)
(3.11595 -0.643896 0)
(3.12102 -0.640771 0)
(3.13705 -0.628172 0)
(3.14544 -0.627864 0)
(3.1367 -0.638969 0)
(3.12913 -0.65402 0)
(3.12234 -0.658944 0)
(3.12238 -0.657874 0)
(3.13007 -0.660281 0)
(3.13128 -0.662665 0)
(3.13053 -0.667092 0)
(3.13033 -0.668565 0)
(3.12935 -0.675929 0)
(3.12692 -0.686943 0)
(3.12721 -0.692043 0)
(3.12738 -0.700348 0)
(3.12617 -0.707896 0)
(3.12611 -0.718136 0)
(3.12601 -0.723107 0)
(3.12696 -0.727052 0)
(3.12832 -0.731567 0)
(3.13249 -0.724934 0)
(3.1317 -0.727486 0)
(3.13227 -0.715245 0)
(3.13011 -0.723689 0)
(3.10066 -0.404559 0)
(3.12114 -0.436453 0)
(3.11392 -0.468807 0)
(3.11064 -0.475529 0)
(3.10105 -0.484281 0)
(3.09238 -0.495662 0)
(3.09465 -0.495707 0)
(3.10816 -0.48291 0)
(3.12336 -0.476285 0)
(3.12073 -0.490973 0)
(3.11608 -0.511058 0)
(3.10729 -0.52463 0)
(3.10605 -0.524 0)
(3.11279 -0.527537 0)
(3.1176 -0.535999 0)
(3.11704 -0.544245 0)
(3.11646 -0.5484 0)
(3.11836 -0.555463 0)
(3.11766 -0.566198 0)
(3.11642 -0.571464 0)
(3.1179 -0.577016 0)
(3.12018 -0.580014 0)
(3.12049 -0.587479 0)
(3.11941 -0.587382 0)
(3.11961 -0.600264 0)
(3.11931 -0.597571 0)
(3.12146 -0.609912 0)
(3.11818 -0.615609 0)
(3.1221 -0.629031 0)
(3.12256 -0.646085 0)
(3.06487 -0.248024 0)
(3.07898 -0.251387 0)
(3.09259 -0.287559 0)
(3.08201 -0.31706 0)
(3.07955 -0.325263 0)
(3.06861 -0.345606 0)
(3.06374 -0.35538 0)
(3.07514 -0.349439 0)
(3.09488 -0.331106 0)
(3.10162 -0.338314 0)
(3.09894 -0.361875 0)
(3.08827 -0.388188 0)
(3.08329 -0.391497 0)
(3.08975 -0.392073 0)
(3.09966 -0.406378 0)
(3.09932 -0.41583 0)
(3.09897 -0.418849 0)
(3.10171 -0.430188 0)
(3.10137 -0.444482 0)
(3.10088 -0.460994 0)
(3.1017 -0.463169 0)
(3.10684 -0.479475 0)
(3.10787 -0.488308 0)
(3.10775 -0.502287 0)
(3.10774 -0.511711 0)
(3.11039 -0.528539 0)
(3.11166 -0.542384 0)
(3.11272 -0.556295 0)
(3.11404 -0.570089 0)
(3.11655 -0.580525 0)
(3.02695 -0.115651 0)
(3.03646 -0.100961 0)
(3.05258 -0.116576 0)
(3.04821 -0.152567 0)
(3.04414 -0.165187 0)
(3.0386 -0.187117 0)
(3.032 -0.213236 0)
(3.03826 -0.215973 0)
(3.05999 -0.197403 0)
(3.07018 -0.197989 0)
(3.07084 -0.217545 0)
(3.06231 -0.24876 0)
(3.05486 -0.255198 0)
(3.05936 -0.255807 0)
(3.07463 -0.280153 0)
(3.07427 -0.290026 0)
(3.07452 -0.293721 0)
(3.07857 -0.306963 0)
(3.07972 -0.328831 0)
(3.07814 -0.33944 0)
(3.08222 -0.354364 0)
(3.08703 -0.362707 0)
(3.09011 -0.377285 0)
(3.09048 -0.392243 0)
(3.09171 -0.405896 0)
(3.09472 -0.419382 0)
(3.09735 -0.429736 0)
(3.09877 -0.438467 0)
(3.09931 -0.444763 0)
(3.10167 -0.465566 0)
(2.97541 0.0231129 0)
(2.98401 0.0375147 0)
(2.9962 0.039828 0)
(3.00072 0.00808895 0)
(2.99694 -0.0156766 0)
(3.00061 -0.0400284 0)
(2.99466 -0.0758584 0)
(2.9955 -0.0836484 0)
(3.01258 -0.0645591 0)
(3.02456 -0.0595953 0)
(3.03062 -0.0761909 0)
(3.02692 -0.111531 0)
(3.01907 -0.124946 0)
(3.02197 -0.125309 0)
(3.03813 -0.150122 0)
(3.04061 -0.166654 0)
(3.04154 -0.171192 0)
(3.04668 -0.184207 0)
(3.05067 -0.208992 0)
(3.05007 -0.222349 0)
(3.05457 -0.237627 0)
(3.06087 -0.251095 0)
(3.06594 -0.26917 0)
(3.06724 -0.283161 0)
(3.06986 -0.300665 0)
(3.07419 -0.317499 0)
(3.07773 -0.332555 0)
(3.08134 -0.352082 0)
(3.08434 -0.370108 0)
(3.08855 -0.394245 0)
(2.91312 0.156874 0)
(2.91854 0.163015 0)
(2.92737 0.171559 0)
(2.93531 0.159975 0)
(2.93967 0.12871 0)
(2.94808 0.10561 0)
(2.94779 0.0706981 0)
(2.94269 0.0544234 0)
(2.95377 0.0644071 0)
(2.96454 0.0711336 0)
(2.9797 0.0534076 0)
(2.97975 0.0173979 0)
(2.9747 0.0065656 0)
(2.97816 0.00305179 0)
(2.99263 -0.0273513 0)
(2.9954 -0.0401861 0)
(2.99993 -0.050206 0)
(3.0088 -0.0682466 0)
(3.01413 -0.0870805 0)
(3.01635 -0.10524 0)
(3.02123 -0.123018 0)
(3.02831 -0.139262 0)
(3.0345 -0.155931 0)
(3.03895 -0.176066 0)
(3.04327 -0.196255 0)
(3.04775 -0.210721 0)
(3.05419 -0.233685 0)
(3.05812 -0.249528 0)
(3.06158 -0.265365 0)
(3.06787 -0.294281 0)
(2.84819 0.295952 0)
(2.84967 0.301163 0)
(2.85473 0.299433 0)
(2.87302 0.271285 0)
(2.87707 0.256766 0)
(2.88042 0.246168 0)
(2.88674 0.225915 0)
(2.889 0.207691 0)
(2.89329 0.206994 0)
(2.8962 0.208163 0)
(2.91744 0.17802 0)
(2.92221 0.143225 0)
(2.92208 0.14126 0)
(2.92993 0.130912 0)
(2.94337 0.0989955 0)
(2.94693 0.0842688 0)
(2.95311 0.0721347 0)
(2.96404 0.0511397 0)
(2.9721 0.0284742 0)
(2.97672 0.0115272 0)
(2.98371 -0.00924419 0)
(2.99146 -0.027705 0)
(2.99964 -0.0484285 0)
(3.00599 -0.0686664 0)
(3.01205 -0.0895086 0)
(3.01907 -0.110577 0)
(3.02559 -0.129491 0)
(3.03202 -0.151907 0)
(3.03757 -0.173057 0)
(3.04608 -0.204742 0)
(2.81684 0.373809 0)
(2.81738 0.372152 0)
(2.81888 0.369796 0)
(2.82339 0.363024 0)
(2.82713 0.357716 0)
(2.83115 0.352301 0)
(2.83525 0.343463 0)
(2.83685 0.337215 0)
(2.84083 0.328892 0)
(2.84625 0.321949 0)
(2.85545 0.308489 0)
(2.8659 0.28373 0)
(2.86981 0.272235 0)
(2.8762 0.261624 0)
(2.88754 0.237626 0)
(2.89506 0.215919 0)
(2.90379 0.195881 0)
(2.91391 0.17612 0)
(2.92525 0.150315 0)
(2.93239 0.1321 0)
(2.94267 0.106037 0)
(2.95188 0.0831179 0)
(2.96096 0.0612198 0)
(2.96985 0.0382107 0)
(2.97865 0.0140865 0)
(2.9867 -0.00733886 0)
(2.99577 -0.032899 0)
(3.00328 -0.0549314 0)
(3.01051 -0.0769986 0)
(3.02174 -0.112837 0)
(2.81601 0.375377 0)
(2.81682 0.371309 0)
(2.81888 0.366434 0)
(2.81985 0.365259 0)
(2.82255 0.366232 0)
(2.82353 0.368917 0)
(2.82222 0.373443 0)
(2.821 0.374796 0)
(2.82153 0.373734 0)
(2.8232 0.370068 0)
(2.8259 0.36269 0)
(2.8277 0.358979 0)
(2.82967 0.358151 0)
(2.83431 0.353633 0)
(2.84162 0.342285 0)
(2.84742 0.331141 0)
(2.85472 0.317146 0)
(2.86324 0.299891 0)
(2.8728 0.279135 0)
(2.88308 0.256679 0)
(2.89466 0.231588 0)
(2.90568 0.206167 0)
(2.917 0.17898 0)
(2.92844 0.151314 0)
(2.9402 0.122608 0)
(2.95032 0.0979398 0)
(2.96159 0.0688338 0)
(2.97157 0.0419469 0)
(2.98064 0.017762 0)
(2.99466 -0.0210535 0)
(2.85265 0.322865 0)
(2.84801 0.313837 0)
(2.84453 0.309795 0)
(2.84448 0.3217 0)
(2.84428 0.334461 0)
(2.83812 0.350473 0)
(2.83864 0.371515 0)
(2.83371 0.372393 0)
(2.82548 0.35969 0)
(2.82912 0.352123 0)
(2.83061 0.352555 0)
(2.83118 0.358626 0)
(2.83205 0.365235 0)
(2.83128 0.365921 0)
(2.83159 0.362624 0)
(2.83199 0.358947 0)
(2.83289 0.357972 0)
(2.83523 0.356325 0)
(2.83893 0.351909 0)
(2.84353 0.34494 0)
(2.84999 0.333758 0)
(2.85803 0.318562 0)
(2.86853 0.297585 0)
(2.87986 0.273565 0)
(2.89315 0.244407 0)
(2.90575 0.215563 0)
(2.91998 0.181965 0)
(2.93277 0.150459 0)
(2.94497 0.120356 0)
(2.9631 0.0741296 0)
(2.93464 0.164438 0)
(2.9306 0.159795 0)
(2.92773 0.157181 0)
(2.9073 0.190919 0)
(2.90243 0.21687 0)
(2.90329 0.221161 0)
(2.8956 0.238932 0)
(2.88766 0.263284 0)
(2.88167 0.263066 0)
(2.87926 0.26326 0)
(2.86193 0.288189 0)
(2.858 0.315493 0)
(2.85826 0.314781 0)
(2.85493 0.320893 0)
(2.84695 0.337431 0)
(2.84415 0.339816 0)
(2.84069 0.341464 0)
(2.83911 0.346273 0)
(2.84055 0.348862 0)
(2.84084 0.348755 0)
(2.84099 0.348423 0)
(2.84154 0.347267 0)
(2.84372 0.344167 0)
(2.84735 0.339429 0)
(2.85324 0.330394 0)
(2.86136 0.316361 0)
(2.87287 0.294475 0)
(2.88564 0.267426 0)
(2.89962 0.236643 0)
(2.92207 0.184217 0)
(2.99082 0.0224091 0)
(2.98952 0.0251035 0)
(2.98685 0.0293662 0)
(2.98321 0.0342769 0)
(2.97907 0.0423318 0)
(2.97581 0.0500529 0)
(2.97093 0.0622803 0)
(2.9673 0.072881 0)
(2.96238 0.0841399 0)
(2.95371 0.0989846 0)
(2.94804 0.107496 0)
(2.93281 0.142548 0)
(2.9284 0.156231 0)
(2.91658 0.180653 0)
(2.90829 0.198677 0)
(2.89666 0.224085 0)
(2.88279 0.25352 0)
(2.87869 0.262663 0)
(2.86438 0.295527 0)
(2.86248 0.301444 0)
(2.85432 0.316358 0)
(2.84918 0.328261 0)
(2.84829 0.330482 0)
(2.84719 0.335383 0)
(2.8473 0.335509 0)
(2.84781 0.335101 0)
(2.84966 0.332992 0)
(2.8535 0.327974 0)
(2.85937 0.319027 0)
(2.87621 0.288242 0)
(2.99973 0.000611343 0)
(2.99965 0.000759199 0)
(2.99955 0.000934433 0)
(2.99936 0.00122807 0)
(2.99908 0.00167861 0)
(2.99873 0.00233795 0)
(2.99834 0.00315301 0)
(2.99781 0.00442152 0)
(2.99715 0.00582014 0)
(2.99594 0.00796773 0)
(2.99434 0.0105011 0)
(2.99136 0.0164976 0)
(2.98918 0.0214594 0)
(2.98492 0.0300954 0)
(2.97977 0.0398182 0)
(2.972 0.0558538 0)
(2.96337 0.0742609 0)
(2.95468 0.0921929 0)
(2.93872 0.126793 0)
(2.93077 0.145229 0)
(2.91174 0.18513 0)
(2.89803 0.216385 0)
(2.89123 0.233901 0)
(2.87059 0.279803 0)
(2.86714 0.287267 0)
(2.85963 0.30285 0)
(2.85265 0.321292 0)
(2.85198 0.323161 0)
(2.85305 0.322165 0)
(2.85539 0.319665 0)
(3 5.13883e-06 0)
(3 6.62528e-06 0)
(3 8.42659e-06 0)
(2.99999 1.16634e-05 0)
(2.99999 1.63625e-05 0)
(2.99999 2.44092e-05 0)
(2.99998 3.62187e-05 0)
(2.99997 5.39519e-05 0)
(2.99996 8.28813e-05 0)
(2.99993 0.000122224 0)
(2.99988 0.000202281 0)
(2.99981 0.000332735 0)
(2.99968 0.000583674 0)
(2.9995 0.000891131 0)
(2.99912 0.00158587 0)
(2.99851 0.00269036 0)
(2.99753 0.00453199 0)
(2.99583 0.0078241 0)
(2.99332 0.0123526 0)
(2.98895 0.0213796 0)
(2.98317 0.0323048 0)
(2.97434 0.0503036 0)
(2.96253 0.0753275 0)
(2.94929 0.102145 0)
(2.93181 0.140431 0)
(2.91379 0.179591 0)
(2.89896 0.212529 0)
(2.88208 0.250152 0)
(2.8711 0.275953 0)
(2.86174 0.299072 0)
(3 2.74049e-08 0)
(3 3.41824e-08 0)
(3 4.60015e-08 0)
(3 6.14672e-08 0)
(3 8.82831e-08 0)
(3 1.27444e-07 0)
(3 1.91451e-07 0)
(3 2.91893e-07 0)
(3 4.5e-07 0)
(3 7.27247e-07 0)
(3 1.18759e-06 0)
(3 2.22977e-06 0)
(3 3.8864e-06 0)
(3 7.30367e-06 0)
(2.99999 1.36448e-05 0)
(2.99998 2.83082e-05 0)
(2.99997 5.67606e-05 0)
(2.99993 0.000118255 0)
(2.99986 0.000252419 0)
(2.99969 0.000534107 0)
(2.99936 0.00113552 0)
(2.99866 0.00243238 0)
(2.99736 0.00482115 0)
(2.99469 0.00997498 0)
(2.99032 0.0182756 0)
(2.98256 0.0337168 0)
(2.97171 0.0555544 0)
(2.95525 0.0897751 0)
(2.9391 0.123905 0)
(2.90824 0.19132 0)
(3 1.18183e-10 0)
(3 1.52329e-10 0)
(3 2.01559e-10 0)
(3 2.78602e-10 0)
(3 3.88272e-10 0)
(3 5.62798e-10 0)
(3 8.28204e-10 0)
(3 1.2485e-09 0)
(3 1.94478e-09 0)
(3 3.07663e-09 0)
(3 5.21657e-09 0)
(3 9.23505e-09 0)
(3 1.71115e-08 0)
(3 3.14204e-08 0)
(3 6.34685e-08 0)
(3 1.32168e-07 0)
(3 2.8674e-07 0)
(3 6.51722e-07 0)
(3 1.52732e-06 0)
(3 3.79712e-06 0)
(2.99999 9.49065e-06 0)
(2.99999 2.5139e-05 0)
(2.99996 6.63269e-05 0)
(2.9999 0.000180066 0)
(2.99973 0.000475412 0)
(2.99929 0.00127221 0)
(2.99831 0.00308875 0)
(2.99587 0.00774854 0)
(2.99193 0.0153109 0)
(2.97599 0.0480999 0)
(3 3.94489e-13 0)
(3 5.10331e-13 0)
(3 6.91796e-13 0)
(3 9.51045e-13 0)
(3 1.34924e-12 0)
(3 1.94125e-12 0)
(3 2.87229e-12 0)
(3 4.28343e-12 0)
(3 6.68585e-12 0)
(3 1.05488e-11 0)
(3 1.76501e-11 0)
(3 3.09605e-11 0)
(3 5.64352e-11 0)
(3 1.0414e-10 0)
(3 2.09934e-10 0)
(3 4.37316e-10 0)
(3 9.68389e-10 0)
(3 2.21181e-09 0)
(3 5.45249e-09 0)
(3 1.37345e-08 0)
(3 3.72499e-08 0)
(3 1.02947e-07 0)
(3 3.09116e-07 0)
(3 9.28787e-07 0)
(3 3.0422e-06 0)
(2.99999 9.74711e-06 0)
(2.99997 3.33301e-05 0)
(2.99991 0.000111815 0)
(2.99975 0.000331172 0)
(2.99799 0.00247659 0)
(2.41921 -1.3219 0)
(2.53143 -1.39761 0)
(2.7769 -1.44366 0)
(2.94798 -1.59032 0)
(3.0357 -1.70849 0)
(3.06645 -1.75262 0)
(3.10138 -1.61981 0)
(3.09833 -1.5742 0)
(3.13488 -1.38663 0)
(3.15643 -1.23334 0)
(3.16287 -1.11422 0)
(3.16806 -0.975564 0)
(3.15692 -0.759132 0)
(3.12488 -0.570122 0)
(3.0921 -0.410543 0)
(3.0582 -0.268624 0)
(3.01786 -0.132318 0)
(2.96825 0.0107047 0)
(2.91065 0.156008 0)
(2.84614 0.302287 0)
(2.81567 0.376521 0)
(2.81965 0.379315 0)
(2.8579 0.328341 0)
(2.93918 0.149092 0)
(2.99281 0.017167 0)
(2.99979 0.000485819 0)
(3 4.31749e-06 0)
(3 2.25501e-08 0)
(3 9.68534e-11 0)
(3 3.18877e-13 0)
(2.41755 -1.30591 0)
(2.55208 -1.39729 0)
(2.79177 -1.45325 0)
(2.94258 -1.60607 0)
(3.04026 -1.72248 0)
(3.0739 -1.74535 0)
(3.09785 -1.61118 0)
(3.11103 -1.51224 0)
(3.14264 -1.35668 0)
(3.16384 -1.22204 0)
(3.17227 -1.11306 0)
(3.18061 -0.914123 0)
(3.14292 -0.700181 0)
(3.11291 -0.570028 0)
(3.08528 -0.419207 0)
(3.05324 -0.267845 0)
(3.01647 -0.115731 0)
(2.96731 0.0355473 0)
(2.90492 0.19531 0)
(2.83764 0.330965 0)
(2.81472 0.379146 0)
(2.82248 0.379231 0)
(2.86336 0.306751 0)
(2.95112 0.111068 0)
(2.9953 0.010416 0)
(2.99991 0.000189632 0)
(3 1.39846e-06 0)
(3 7.7442e-09 0)
(3 3.64838e-11 0)
(3 1.24877e-13 0)
(2.4118 -1.30386 0)
(2.55208 -1.39204 0)
(2.7882 -1.4525 0)
(2.929 -1.59795 0)
(3.04279 -1.71379 0)
(3.07115 -1.7439 0)
(3.08588 -1.60065 0)
(3.10738 -1.52957 0)
(3.13907 -1.3864 0)
(3.16008 -1.25095 0)
(3.18947 -1.08498 0)
(3.17096 -0.827351 0)
(3.13618 -0.726312 0)
(3.1101 -0.57569 0)
(3.08888 -0.412078 0)
(3.06256 -0.236111 0)
(3.0208 -0.055028 0)
(2.95981 0.105092 0)
(2.88461 0.256368 0)
(2.82573 0.356866 0)
(2.81372 0.378228 0)
(2.8234 0.362024 0)
(2.88198 0.251876 0)
(2.96498 0.0768649 0)
(2.99747 0.00539755 0)
(2.99996 8.54778e-05 0)
(3 6.02614e-07 0)
(3 3.30388e-09 0)
(3 1.55105e-11 0)
(3 5.12134e-14 0)
(2.40529 -1.30164 0)
(2.55582 -1.39186 0)
(2.78655 -1.45661 0)
(2.9118 -1.61485 0)
(3.04379 -1.70418 0)
(3.05835 -1.75832 0)
(3.08046 -1.59024 0)
(3.10158 -1.54386 0)
(3.14708 -1.3872 0)
(3.1894 -1.21216 0)
(3.19396 -0.956741 0)
(3.17168 -0.848777 0)
(3.14342 -0.711206 0)
(3.13048 -0.50703 0)
(3.10007 -0.317993 0)
(3.04791 -0.130479 0)
(2.98234 0.0401121 0)
(2.91591 0.18159 0)
(2.85561 0.299142 0)
(2.81491 0.372854 0)
(2.8119 0.377361 0)
(2.83246 0.342392 0)
(2.9099 0.20756 0)
(2.97794 0.052799 0)
(2.99875 0.00283455 0)
(2.99998 3.70541e-05 0)
(3 2.49202e-07 0)
(3 1.35831e-09 0)
(3 6.39204e-12 0)
(3 1.97417e-14 0)
(2.39775 -1.30188 0)
(2.55858 -1.39436 0)
(2.77859 -1.47585 0)
(2.91111 -1.62106 0)
(3.05632 -1.68265 0)
(3.05182 -1.76076 0)
(3.08703 -1.55998 0)
(3.11762 -1.52729 0)
(3.18045 -1.32341 0)
(3.18956 -1.09026 0)
(3.18174 -0.92976 0)
(3.16196 -0.862188 0)
(3.15361 -0.623453 0)
(3.10014 -0.408461 0)
(3.05266 -0.228273 0)
(3.01282 -0.0819522 0)
(2.96706 0.0503147 0)
(2.90725 0.181866 0)
(2.84547 0.305453 0)
(2.81079 0.380055 0)
(2.81094 0.37888 0)
(2.84313 0.333205 0)
(2.91525 0.205206 0)
(2.98424 0.0396258 0)
(2.99934 0.00157287 0)
(2.99999 1.6741e-05 0)
(3 1.05243e-07 0)
(3 5.59741e-10 0)
(3 2.59344e-12 0)
(3 6.76547e-15 0)
(2.39334 -1.3009 0)
(2.55723 -1.39275 0)
(2.77311 -1.49311 0)
(2.92428 -1.63155 0)
(3.05951 -1.68001 0)
(3.04757 -1.76081 0)
(3.09021 -1.5427 0)
(3.12616 -1.44177 0)
(3.15458 -1.22813 0)
(3.17469 -1.05984 0)
(3.1752 -0.969063 0)
(3.17454 -0.799873 0)
(3.11827 -0.540002 0)
(3.08617 -0.390486 0)
(3.04892 -0.243978 0)
(3.0085 -0.107766 0)
(2.95995 0.031451 0)
(2.9008 0.17693 0)
(2.83897 0.318712 0)
(2.80906 0.386175 0)
(2.81011 0.38634 0)
(2.84758 0.344266 0)
(2.92789 0.176305 0)
(2.98961 0.0251291 0)
(2.99966 0.000762203 0)
(3 7.18893e-06 0)
(3 4.35762e-08 0)
(3 2.28049e-10 0)
(3 1.03748e-12 0)
(3 1.74704e-15 0)
(2.38606 -1.29927 0)
(2.54592 -1.37766 0)
(2.77543 -1.48864 0)
(2.93498 -1.63729 0)
(3.06028 -1.67376 0)
(3.03418 -1.73529 0)
(3.09493 -1.51375 0)
(3.10294 -1.34783 0)
(3.14331 -1.26173 0)
(3.1718 -1.09041 0)
(3.16613 -0.983916 0)
(3.14438 -0.676102 0)
(3.11743 -0.563024 0)
(3.07941 -0.4136 0)
(3.04349 -0.256612 0)
(3.00631 -0.0966421 0)
(2.95908 0.0655138 0)
(2.89258 0.230992 0)
(2.82724 0.352369 0)
(2.80716 0.390397 0)
(2.8149 0.390677 0)
(2.85553 0.324759 0)
(2.94883 0.121454 0)
(2.99399 0.014128 0)
(2.99985 0.000344619 0)
(3 2.91549e-06 0)
(3 1.74392e-08 0)
(3 9.06553e-11 0)
(3 4.06555e-13 0)
(3 -4.88805e-16 0)
(2.37192 -1.2932 0)
(2.53275 -1.36214 0)
(2.77758 -1.48541 0)
(2.93651 -1.64263 0)
(3.0584 -1.67066 0)
(3.03519 -1.67911 0)
(3.09365 -1.51903 0)
(3.12058 -1.38991 0)
(3.14028 -1.27996 0)
(3.17103 -1.10633 0)
(3.19246 -0.89896 0)
(3.1518 -0.675648 0)
(3.11265 -0.56672 0)
(3.08679 -0.39059 0)
(3.05625 -0.196889 0)
(3.00508 -0.00308603 0)
(2.93569 0.163098 0)
(2.86287 0.297423 0)
(2.81522 0.372315 0)
(2.80762 0.388897 0)
(2.81579 0.381288 0)
(2.8808 0.263894 0)
(2.95953 0.0943582 0)
(2.99657 0.00809532 0)
(2.99993 0.000149214 0)
(3 1.17208e-06 0)
(3 6.85691e-09 0)
(3 3.53536e-11 0)
(3 1.55537e-13 0)
(3 -1.6916e-15 0)
(2.36059 -1.287 0)
(2.52615 -1.35411 0)
(2.7806 -1.48535 0)
(2.92394 -1.66148 0)
(3.05253 -1.6741 0)
(3.04957 -1.68918 0)
(3.08699 -1.52847 0)
(3.12371 -1.42001 0)
(3.17075 -1.25276 0)
(3.20303 -1.06349 0)
(3.17953 -0.771408 0)
(3.14901 -0.703319 0)
(3.1313 -0.499658 0)
(3.09149 -0.284106 0)
(3.02875 -0.0796838 0)
(2.96285 0.0854574 0)
(2.90127 0.215025 0)
(2.84652 0.316969 0)
(2.80759 0.381961 0)
(2.80695 0.384459 0)
(2.82495 0.352 0)
(2.89424 0.236355 0)
(2.97054 0.070708 0)
(2.99815 0.00427735 0)
(2.99997 6.48635e-05 0)
(3 4.64619e-07 0)
(3 2.66243e-09 0)
(3 1.35798e-11 0)
(3 5.81261e-14 0)
(3 -1.36438e-15 0)
(2.35011 -1.28121 0)
(2.51708 -1.34935 0)
(2.78134 -1.48923 0)
(2.91923 -1.66773 0)
(3.04928 -1.67671 0)
(3.05286 -1.70893 0)
(3.09754 -1.51275 0)
(3.14715 -1.41569 0)
(3.19624 -1.16524 0)
(3.20199 -0.922138 0)
(3.1797 -0.772708 0)
(3.16005 -0.654928 0)
(3.09938 -0.374657 0)
(3.04662 -0.188498 0)
(3.00354 -0.0472868 0)
(2.95284 0.0833597 0)
(2.89287 0.211089 0)
(2.83512 0.331276 0)
(2.8043 0.389891 0)
(2.80574 0.384015 0)
(2.84173 0.334215 0)
(2.90753 0.218931 0)
(2.98308 0.0411361 0)
(2.99916 0.00195322 0)
(2.99999 2.48265e-05 0)
(3 1.73533e-07 0)
(3 9.90467e-10 0)
(3 5.04567e-12 0)
(3 1.95331e-14 0)
(3 -1.79097e-15 0)
(2.33602 -1.27699 0)
(2.51391 -1.35215 0)
(2.77842 -1.49501 0)
(2.91636 -1.67957 0)
(3.05851 -1.66196 0)
(3.05801 -1.71408 0)
(3.11958 -1.46217 0)
(3.18736 -1.32735 0)
(3.18942 -1.07151 0)
(3.18239 -0.887133 0)
(3.16671 -0.809638 0)
(3.13423 -0.51954 0)
(3.08049 -0.334043 0)
(3.03725 -0.203474 0)
(2.99252 -0.0662411 0)
(2.94301 0.0797602 0)
(2.88284 0.232438 0)
(2.82296 0.359674 0)
(2.80318 0.397347 0)
(2.80458 0.389213 0)
(2.84371 0.34339 0)
(2.93435 0.161034 0)
(2.98988 0.0261129 0)
(2.99962 0.000928608 0)
(3 9.7298e-06 0)
(3 6.4239e-08 0)
(3 3.6119e-10 0)
(3 1.82703e-12 0)
(3 4.5888e-15 0)
(3 -2.0309e-15 0)
(2.32327 -1.27291 0)
(2.49876 -1.36718 0)
(2.76458 -1.51874 0)
(2.92876 -1.69768 0)
(3.07788 -1.64083 0)
(3.08504 -1.69568 0)
(3.11892 -1.43207 0)
(3.13445 -1.19037 0)
(3.16855 -1.09586 0)
(3.17516 -0.930285 0)
(3.16923 -0.759889 0)
(3.11449 -0.471449 0)
(3.07342 -0.367388 0)
(3.02821 -0.204557 0)
(2.98838 -0.0332533 0)
(2.93502 0.143079 0)
(2.86272 0.294332 0)
(2.81369 0.379012 0)
(2.80244 0.400875 0)
(2.80942 0.396733 0)
(2.85541 0.329936 0)
(2.94808 0.129782 0)
(2.99369 0.0165678 0)
(2.99983 0.000412586 0)
(3 3.7818e-06 0)
(3 2.38652e-08 0)
(3 1.31183e-10 0)
(3 6.52552e-13 0)
(3 4.45326e-17 0)
(3 -1.7936e-15 0)
(2.31099 -1.26732 0)
(2.46187 -1.3618 0)
(2.7391 -1.5363 0)
(2.93849 -1.70657 0)
(3.08012 -1.63641 0)
(3.08016 -1.61865 0)
(3.11123 -1.3832 0)
(3.13352 -1.22963 0)
(3.15956 -1.12179 0)
(3.17567 -0.93359 0)
(3.15779 -0.613634 0)
(3.11537 -0.5108 0)
(3.07482 -0.345329 0)
(3.0319 -0.12448 0)
(2.96872 0.0764672 0)
(2.90112 0.229042 0)
(2.84317 0.331109 0)
(2.8063 0.388342 0)
(2.803 0.399933 0)
(2.8146 0.396794 0)
(2.88118 0.270482 0)
(2.95685 0.105819 0)
(2.99653 0.00838244 0)
(2.99993 0.000170952 0)
(3 1.4144e-06 0)
(3 8.68682e-09 0)
(3 4.70265e-11 0)
(3 2.29383e-13 0)
(3 -1.28006e-15 0)
(3 -1.62975e-15 0)
(2.30256 -1.26143 0)
(2.44209 -1.34507 0)
(2.71362 -1.53378 0)
(2.94133 -1.72122 0)
(3.07226 -1.63972 0)
(3.0576 -1.56649 0)
(3.1029 -1.42163 0)
(3.1355 -1.2675 0)
(3.18446 -1.10915 0)
(3.21377 -0.799946 0)
(3.15222 -0.564312 0)
(3.11627 -0.475708 0)
(3.07242 -0.224777 0)
(2.99645 -0.00552629 0)
(2.93571 0.144563 0)
(2.88106 0.25685 0)
(2.82899 0.350914 0)
(2.80071 0.393365 0)
(2.80251 0.391157 0)
(2.81946 0.359872 0)
(2.8927 0.238421 0)
(2.97436 0.0603578 0)
(2.99833 0.00390671 0)
(2.99997 6.37002e-05 0)
(3 4.95562e-07 0)
(3 3.02341e-09 0)
(3 1.63059e-11 0)
(3 7.76889e-14 0)
(3 -1.83765e-15 0)
(3 -9.69992e-16 0)
(2.30043 -1.25921 0)
(2.43275 -1.33598 0)
(2.69239 -1.54219 0)
(2.94773 -1.72277 0)
(3.05593 -1.68146 0)
(3.06485 -1.59092 0)
(3.11125 -1.44954 0)
(3.16904 -1.25244 0)
(3.2404 -0.967614 0)
(3.17719 -0.649906 0)
(3.14742 -0.595172 0)
(3.10489 -0.336548 0)
(3.02119 -0.108555 0)
(2.98165 0.013624 0)
(2.9249 0.146172 0)
(2.86549 0.275377 0)
(2.81446 0.376137 0)
(2.7982 0.395906 0)
(2.8021 0.386899 0)
(2.84605 0.32301 0)
(2.91189 0.202524 0)
(2.9851 0.03622 0)
(2.99927 0.00175925 0)
(2.99999 2.25874e-05 0)
(3 1.66832e-07 0)
(3 1.0096e-09 0)
(3 5.43429e-12 0)
(3 2.5044e-14 0)
(3 -1.7232e-15 0)
(3 -3.57843e-16 0)
(2.3009 -1.25914 0)
(2.4337 -1.33972 0)
(2.67585 -1.571 0)
(2.94955 -1.71769 0)
(3.04986 -1.70073 0)
(3.097 -1.57488 0)
(3.1641 -1.42095 0)
(3.23993 -1.11098 0)
(3.18321 -0.794512 0)
(3.1681 -0.689949 0)
(3.13986 -0.544969 0)
(3.04905 -0.224971 0)
(3.01592 -0.119694 0)
(2.96723 0.0156695 0)
(2.91091 0.174735 0)
(2.84591 0.31928 0)
(2.80586 0.392485 0)
(2.79749 0.402273 0)
(2.80155 0.382869 0)
(2.85112 0.318636 0)
(2.94751 0.13508 0)
(2.99178 0.0226889 0)
(2.99972 0.000712924 0)
(3 7.84742e-06 0)
(3 5.48752e-08 0)
(3 3.27034e-10 0)
(3 1.74947e-12 0)
(3 7.33136e-15 0)
(3 -1.44163e-15 0)
(3 2.42093e-17 0)
(2.3067 -1.26319 0)
(2.43469 -1.34481 0)
(2.67788 -1.58215 0)
(2.9517 -1.73546 0)
(3.08133 -1.67015 0)
(3.14626 -1.49662 0)
(3.21975 -1.25943 0)
(3.17914 -0.953267 0)
(3.17111 -0.847414 0)
(3.14839 -0.722666 0)
(3.10911 -0.395006 0)
(3.06101 -0.255364 0)
(3.00541 -0.112943 0)
(2.9533 0.0813195 0)
(2.88779 0.247784 0)
(2.83135 0.351208 0)
(2.80175 0.401173 0)