/*--------------------------------*- C++ -*----------------------------------*\
  =========                 |
  \\      /  F ield         | OpenFOAM: The Open Source CFD Toolbox
   \\    /   O peration     | Website:  https://openfoam.org
    \\  /    A nd           | Version:  7
     \\/     M anipulation  |
\*---------------------------------------------------------------------------*/
FoamFile
{
    version     2.0;
    format      ascii;
    class       volVectorField;
    location    "2.1";
    object      U;
}
// * * * * * * * * * * * * * * * * * * * * * * * * * * * * * * * * * * * * * //

dimensions      [0 1 -1 0 0 0 0];

internalField   nonuniform List<vector> 
1750
(
(2.4289 -0.228364 0)
(2.58128 0.23335 0)
(2.50045 0.612908 0)
(2.44184 0.444659 0)
(2.6265 0.303586 0)
(2.68189 0.311182 0)
(2.37795 0.19003 0)
(2.21946 -0.00695822 0)
(2.35339 -0.134238 0)
(2.61542 -0.0281754 0)
(2.30638 -1.88532 0)
(2.44362 -1.55217 0)
(2.43411 -0.790971 0)
(2.39025 -0.444358 0)
(2.08144 0.0738457 0)
(2.13726 0.359342 0)
(2.05222 0.299594 0)
(2.06901 0.0409401 0)
(2.18474 -0.176069 0)
(2.34193 -0.0637172 0)
(2.63403 -2.05226 0)
(2.80212 -2.13147 0)
(2.89509 -1.91643 0)
(2.78087 -1.70708 0)
(2.27905 -0.689301 0)
(2.21846 0.130718 0)
(2.39033 0.183909 0)
(2.43631 -0.0385096 0)
(2.26894 -0.216511 0)
(2.2853 -0.0969573 0)
(2.9013 -2.00002 0)
(2.9584 -1.75761 0)
(3.02875 -1.51896 0)
(3.09951 -1.6901 0)
(3.08224 -1.65154 0)
(2.79492 -0.840101 0)
(2.9475 -0.573343 0)
(2.93381 -0.707893 0)
(2.76401 -0.803332 0)
(2.40345 -0.253473 0)
(3.09618 -1.50239 0)
(3.11361 -1.48334 0)
(3.08975 -1.54683 0)
(3.09094 -1.43284 0)
(3.129 -1.37974 0)
(3.12895 -1.40504 0)
(3.12883 -1.37579 0)
(3.11287 -1.29644 0)
(3.03152 -1.40198 0)
(2.67297 -0.667223 0)
(3.16174 -1.21552 0)
(3.17533 -1.22765 0)
(3.16383 -1.17306 0)
(3.16337 -1.11327 0)
(3.17207 -1.09849 0)
(3.19021 -1.04251 0)
(3.17125 -1.04761 0)
(3.12641 -1.07915 0)
(3.07926 -1.09039 0)
(2.90176 -0.919351 0)
(3.17347 -0.870898 0)
(3.17977 -0.868612 0)
(3.17365 -0.875405 0)
(3.15722 -0.894285 0)
(3.15231 -0.90791 0)
(3.151 -0.906007 0)
(3.14991 -0.890604 0)
(3.15102 -0.863995 0)
(3.11231 -0.883359 0)
(2.96767 -0.789264 0)
(3.13052 -0.492118 0)
(3.13873 -0.522788 0)
(3.14394 -0.557441 0)
(3.14387 -0.57413 0)
(3.14213 -0.568398 0)
(3.13827 -0.599858 0)
(3.13347 -0.630807 0)
(3.13364 -0.673692 0)
(3.11363 -0.683258 0)
(3.00194 -0.586205 0)
(3.06186 -0.160959 0)
(3.07501 -0.204699 0)
(3.08132 -0.220614 0)
(3.09448 -0.268848 0)
(3.10179 -0.32481 0)
(3.09913 -0.323537 0)
(3.12693 -0.364671 0)
(3.11809 -0.405824 0)
(3.07817 -0.428085 0)
(3.02136 -0.425647 0)
(3.01175 0.0110512 0)
(3.02081 -0.00495733 0)
(3.03042 -0.0250919 0)
(3.03867 -0.0439148 0)
(3.04913 -0.0770132 0)
(3.05796 -0.108813 0)
(3.06629 -0.130015 0)
(3.07774 -0.17847 0)
(3.07184 -0.227284 0)
(3.01841 -0.226483 0)
(2.99841 0.0353975 0)
(3.00216 0.0316023 0)
(3.00637 0.0282559 0)
(3.01062 0.0222125 0)
(3.01564 0.0115254 0)
(3.02019 -0.000984108 0)
(3.02502 -0.0149028 0)
(3.03116 -0.0363533 0)
(3.03458 -0.067963 0)
(3.01042 -0.084293 0)
(2.99677 0.0234041 0)
(2.99803 0.0230466 0)
(3.00065 0.0207562 0)
(3.00295 0.0183465 0)
(3.00529 0.0148782 0)
(3.00698 0.0100563 0)
(3.00747 0.00544193 0)
(3.00769 -0.000136181 0)
(3.00806 -0.00851516 0)
(3.00246 -0.0148099 0)
(2.99863 0.0049268 0)
(2.9985 0.00605588 0)
(2.99872 0.00694525 0)
(2.9994 0.00694903 0)
(3.00022 0.00651874 0)
(3.0013 0.00540821 0)
(3.00211 0.0034545 0)
(3.00181 0.00135218 0)
(3.00113 -7.5327e-05 0)
(3.00025 -0.000920858 0)
(2.99993 0.000202617 0)
(2.9999 0.000298736 0)
(2.99987 0.000435809 0)
(2.99987 0.000576938 0)
(2.99992 0.000625433 0)
(2.99997 0.000585393 0)
(3.00005 0.000454422 0)
(3.00013 0.000280432 0)
(3.00013 7.01253e-05 0)
(3.00003 -1.30942e-05 0)
(3 2.04171e-06 0)
(3 3.31499e-06 0)
(3 5.40667e-06 0)
(3 8.41797e-06 0)
(3 1.06142e-05 0)
(3 1.0687e-05 0)
(3 9.58175e-06 0)
(3 6.92657e-06 0)
(3 3.76586e-06 0)
(3 4.98801e-07 0)
(1.98217 -1.51349 0)
(2.20351 -1.60972 0)
(2.51342 -2.05092 0)
(2.85755 -1.79485 0)
(3.06204 -1.56469 0)
(3.14287 -1.2574 0)
(3.15617 -0.90214 0)
(3.13269 -0.495925 0)
(3.05803 -0.139207 0)
(3.00691 0.0193328 0)
(2.99624 0.0371276 0)
(2.99542 0.0229974 0)
(2.99878 0.00403015 0)
(2.99995 0.000151887 0)
(3 1.45319e-06 0)
(1.96402 -1.52813 0)
(2.23883 -1.75361 0)
(2.65121 -1.97995 0)
(2.97664 -1.62319 0)
(3.06266 -1.50644 0)
(3.12902 -1.19838 0)
(3.15937 -0.773333 0)
(3.115 -0.356709 0)
(3.03746 -0.0611781 0)
(2.99802 0.0403182 0)
(2.99402 0.0392086 0)
(2.99513 0.0185758 0)
(2.99925 0.00220183 0)
(2.99998 5.82199e-05 0)
(3 5.68354e-07 0)
(1.88688 -1.55766 0)
(2.19159 -1.782 0)
(2.66901 -1.8964 0)
(2.93351 -1.73497 0)
(3.02103 -1.55723 0)
(3.14649 -1.10365 0)
(3.16179 -0.578147 0)
(3.08348 -0.201845 0)
(3.01336 0.003736 0)
(2.99246 0.0489643 0)
(2.99265 0.0402724 0)
(2.99559 0.0148675 0)
(2.99958 0.00123432 0)
(2.99999 2.74349e-05 0)
(3 2.52466e-07 0)
(1.77045 -1.53783 0)
(2.22974 -1.8053 0)
(2.68218 -1.83051 0)
(2.88529 -1.80086 0)
(3.08257 -1.42382 0)
(3.17453 -0.759781 0)
(3.14288 -0.436173 0)
(3.05829 -0.137539 0)
(3.00061 0.0272767 0)
(2.98913 0.052163 0)
(2.98731 0.0372357 0)
(2.99649 0.0102988 0)
(2.99979 0.000624621 0)
(3 1.18923e-05 0)
(3 1.05413e-07 0)
(1.64167 -1.50511 0)
(2.26199 -1.80175 0)
(2.65313 -1.84737 0)
(2.84248 -1.816 0)
(3.12849 -0.922512 0)
(3.17295 -0.679273 0)
(3.11356 -0.366183 0)
(3.03398 -0.0727052 0)
(2.99087 0.0481178 0)
(2.98688 0.0534248 0)
(2.99078 0.0335583 0)
(2.99804 0.00608942 0)
(2.9999 0.000277096 0)
(3 4.76917e-06 0)
(3 4.12885e-08 0)
(1.52142 -1.34407 0)
(2.20024 -1.79913 0)
(2.65582 -1.8126 0)
(3.03523 -1.40885 0)
(3.15374 -0.901987 0)
(3.13896 -0.684117 0)
(3.08441 -0.260891 0)
(3.01194 -0.00356579 0)
(2.98443 0.0597579 0)
(2.98543 0.053792 0)
(2.99136 0.0250566 0)
(2.99881 0.00338581 0)
(2.99996 0.000110324 0)
(3 1.76364e-06 0)
(3 1.50642e-08 0)
(1.4445 -1.36384 0)
(2.03966 -1.75514 0)
(2.62523 -1.66183 0)
(3.00754 -0.896804 0)
(3.11374 -1.00678 0)
(3.12826 -0.45018 0)
(3.04801 -0.095146 0)
(2.99192 0.0461499 0)
(2.9802 0.0646121 0)
(2.98081 0.0477103 0)
(2.99411 0.0162936 0)
(2.99953 0.00142021 0)
(2.99999 3.90227e-05 0)
(3 5.97647e-07 0)
(3 5.07809e-09 0)
(1.33394 -1.28741 0)
(1.97624 -1.71048 0)
(2.59608 -1.59649 0)
(3.04955 -1.12554 0)
(3.15005 -0.706739 0)
(3.09329 -0.233516 0)
(3.02169 -0.0252212 0)
(2.98126 0.0637251 0)
(2.97814 0.0653324 0)
(2.98524 0.0450724 0)
(2.99649 0.0101786 0)
(2.99979 0.000605027 0)
(3 1.32821e-05 0)
(3 1.92874e-07 0)
(3 1.60861e-09 0)
(0.928473 -1.20113 0)
(1.95253 -1.54437 0)
(2.76096 -1.15574 0)
(3.0493 -1.06999 0)
(3.11935 -0.373308 0)
(3.06765 -0.142209 0)
(2.99567 0.0342384 0)
(2.9755 0.0718968 0)
(2.97712 0.0652709 0)
(2.98827 0.0303963 0)
(2.99833 0.0043558 0)
(2.99993 0.000187381 0)
(3 3.83817e-06 0)
(3 5.55963e-08 0)
(3 4.68153e-10 0)
(0.732992 -0.637226 0)
(2.09914 -0.972531 0)
(2.8786 -1.05709 0)
(3.12228 -0.538839 0)
(3.11588 -0.287223 0)
(3.02532 -0.0259043 0)
(2.97915 0.0671173 0)
(2.97351 0.0736693 0)
(2.97933 0.0533576 0)
(2.99391 0.0158424 0)
(2.99944 0.0015638 0)
(2.99998 5.23403e-05 0)
(3 9.8638e-07 0)
(3 1.42221e-08 0)
(3 1.22412e-10 0)
(0.551553 0.0463444 0)
(2.26654 -0.942755 0)
(2.96103 -0.954261 0)
(3.13449 -0.343653 0)
(3.0718 -0.11499 0)
(2.99211 0.0496433 0)
(2.97187 0.0793309 0)
(2.97294 0.0738651 0)
(2.98423 0.0414268 0)
(2.99673 0.00876712 0)
(2.99981 0.000529784 0)
(3 1.35906e-05 0)
(3 2.37341e-07 0)
(3 3.31529e-09 0)
(3 2.83714e-11 0)
(0.480391 0.492417 0)
(2.46128 -0.810583 0)
(3.10188 -0.356513 0)
(3.12083 -0.21343 0)
(3.01821 0.00933602 0)
(2.97459 0.0814418 0)
(2.97013 0.0818933 0)
(2.97569 0.0629651 0)
(2.99109 0.0229854 0)
(2.99895 0.00281861 0)
(2.99996 0.000123392 0)
(3 2.90363e-06 0)
(3 4.91821e-08 0)
(3 6.76815e-10 0)
(3 5.77084e-12 0)
(1.05843 0.409013 0)
(2.88825 -0.138052 0)
(3.16754 -0.236734 0)
(3.05108 0.000176713 0)
(2.98459 0.0675461 0)
(2.96868 0.0903942 0)
(2.96968 0.0827656 0)
(2.98134 0.0479765 0)
(2.99593 0.0105317 0)
(2.99972 0.000767209 0)
(2.99999 2.52141e-05 0)
(3 5.19342e-07 0)
(3 8.40823e-09 0)
(3 1.12825e-10 0)
(3 9.63372e-13 0)
(2.04898 0.225987 0)
(3.15818 -0.174861 0)
(3.11154 -0.0763912 0)
(2.99937 0.0653364 0)
(2.96933 0.0884629 0)
(2.96804 0.0917407 0)
(2.97431 0.066222 0)
(2.99075 0.022022 0)
(2.99881 0.00297484 0)
(2.99994 0.00015867 0)
(3 4.21072e-06 0)
(3 7.95874e-08 0)
(3 1.20269e-09 0)
(3 1.51255e-11 0)
(3 1.22403e-13 0)
(2.69971 0.123439 0)
(3.13875 -0.00723344 0)
(3.01124 0.0700441 0)
(2.97045 0.10119 0)
(2.96706 0.0908679 0)
(2.97042 0.0841168 0)
(2.98389 0.0390631 0)
(2.99629 0.0084978 0)
(2.99972 0.000658347 0)
(2.99999 2.33468e-05 0)
(3 5.41085e-07 0)
(3 9.24057e-09 0)
(3 1.30276e-10 0)
(3 1.42878e-12 0)
(3 1.20505e-14 0)
(2.95602 0.0950975 0)
(2.96179 0.0961056 0)
(2.96514 0.100142 0)
(2.96506 0.103218 0)
(2.97883 0.08174 0)
(2.98113 0.053148 0)
(2.99387 0.0133101 0)
(2.99964 0.000731636 0)
(2.99999 1.12315e-05 0)
(3 7.67569e-07 0)
(3 -3.14497e-09 0)
(3 -7.66594e-11 0)
(3 -6.26298e-15 0)
(3 7.8783e-16 0)
(3 5.95454e-16 0)
(2.95402 0.0952289 0)
(2.95943 0.0952708 0)
(2.96469 0.098563 0)
(2.96635 0.10628 0)
(2.97055 0.0829339 0)
(2.98005 0.050768 0)
(2.99498 0.0151259 0)
(2.99937 0.00142422 0)
(2.99997 6.27843e-05 0)
(3 1.45621e-06 0)
(3 2.34636e-08 0)
(3 2.97805e-10 0)
(3 3.14359e-12 0)
(3 3.21046e-14 0)
(3 2.21798e-15 0)
(2.9535 0.0958598 0)
(2.95948 0.0978469 0)
(2.96658 0.0983335 0)
(2.96744 0.106195 0)
(2.9749 0.0757478 0)
(2.98582 0.0345808 0)
(2.99788 0.00425615 0)
(2.99988 0.000238097 0)
(3 4.58674e-06 0)
(3 6.06578e-08 0)
(3 6.3398e-10 0)
(3 5.60796e-12 0)
(3 4.27903e-14 0)
(3 2.16916e-15 0)
(3 1.0502e-15 0)
(2.95296 0.0973573 0)
(2.95816 0.099924 0)
(2.9672 0.0973218 0)
(2.96925 0.100633 0)
(2.98 0.057405 0)
(2.99225 0.0181737 0)
(2.99891 0.00236914 0)
(2.99996 7.33927e-05 0)
(3 1.43358e-06 0)
(3 1.78687e-08 0)
(3 1.84323e-10 0)
(3 1.60463e-12 0)
(3 1.03561e-14 0)
(3 1.79121e-15 0)
(3 1.08225e-15 0)
(2.95385 0.09987 0)
(2.95749 0.101815 0)
(2.96812 0.0970841 0)
(2.97471 0.0890506 0)
(2.98385 0.0453797 0)
(2.9952 0.0110963 0)
(2.99967 0.000631728 0)
(2.99999 2.09474e-05 0)
(3 3.05141e-07 0)
(3 3.72435e-09 0)
(3 3.642e-11 0)
(3 3.05182e-13 0)
(3 3.71574e-17 0)
(3 -1.05785e-15 0)
(3 3.57701e-16 0)
(2.95356 0.100377 0)
(2.95511 0.106861 0)
(2.97075 0.0933595 0)
(2.97787 0.0790755 0)
(2.98842 0.0313154 0)
(2.99802 0.00413287 0)
(2.99987 0.000251679 0)
(3 4.83399e-06 0)
(3 7.58782e-08 0)
(3 8.38932e-10 0)
(3 8.02842e-12 0)
(3 6.4351e-14 0)
(3 -2.49927e-15 0)
(3 -2.46947e-15 0)
(3 -1.04734e-15 0)
(2.95348 0.0989852 0)
(2.95138 0.111975 0)
(2.9743 0.0851966 0)
(2.98205 0.0651191 0)
(2.99401 0.0151346 0)
(2.99917 0.00170853 0)
(2.99997 5.55213e-05 0)
(3 1.19422e-06 0)
(3 1.51194e-08 0)
(3 1.68911e-10 0)
(3 1.53911e-12 0)
(3 1.16263e-14 0)
(3 -2.78247e-15 0)
(3 -1.99415e-15 0)
(3 -3.31668e-16 0)
(2.95191 0.0973908 0)
(2.95531 0.120222 0)
(2.98432 0.0682308 0)
(2.98883 0.0389806 0)
(2.99672 0.00780452 0)
(2.99974 0.000510653 0)
(2.99999 1.53859e-05 0)
(3 2.41186e-07 0)
(3 3.18814e-09 0)
(3 3.24797e-11 0)
(3 2.91601e-13 0)
(3 3.69481e-15 0)
(3 -2.40675e-15 0)
(3 -2.13133e-15 0)
(3 -3.66179e-16 0)
(2.95387 0.0855801 0)
(2.95856 0.122607 0)
(2.98336 0.0603388 0)
(2.99104 0.0246844 0)
(2.99864 0.00291298 0)
(2.99993 0.000142786 0)
(3 3.16253e-06 0)
(3 4.99297e-08 0)
(3 5.71776e-10 0)
(3 5.672e-12 0)
(3 5.26731e-14 0)
(3 3.80341e-15 0)
(3 -8.16767e-16 0)
(3 -3.61136e-15 0)
(3 -8.37079e-16 0)
(2.95857 0.074859 0)
(2.96459 0.105088 0)
(2.98859 0.0379184 0)
(2.99603 0.0107053 0)
(2.99956 0.000939386 0)
(2.99998 3.25772e-05 0)
(3 6.44552e-07 0)
(3 8.4486e-09 0)
(3 9.66437e-11 0)
(3 8.87206e-13 0)
(3 1.17164e-14 0)
(3 5.89821e-15 0)
(3 -5.05174e-16 0)
(3 -4.87667e-15 0)
(3 -1.05119e-15 0)
(2.95847 0.0556442 0)
(2.96816 0.0916346 0)
(2.99145 0.0261553 0)
(2.99811 0.00452047 0)
(2.99987 0.000254409 0)
(3 6.85094e-06 0)
(3 1.05209e-07 0)
(3 1.40302e-09 0)
(3 1.38468e-11 0)
(3 1.20592e-13 0)
(3 5.10267e-15 0)
(3 6.12373e-15 0)
(3 -4.95061e-16 0)
(3 -4.84227e-15 0)
(3 -1.12992e-15 0)
(2.96749 0.0380535 0)
(2.98006 0.0590037 0)
(2.99564 0.0121308 0)
(2.99942 0.00131759 0)
(2.99997 5.15956e-05 0)
(3 1.01783e-06 0)
(3 1.60853e-08 0)
(3 1.71438e-10 0)
(3 1.74597e-12 0)
(3 1.31667e-14 0)
(3 4.02013e-15 0)
(3 6.53282e-15 0)
(3 -5.36476e-16 0)
(3 -5.26456e-15 0)
(3 -1.02813e-15 0)
(2.97045 0.0270528 0)
(2.98417 0.0396897 0)
(2.99802 0.00501602 0)
(2.99985 0.000320999 0)
(3 8.28797e-06 0)
(3 1.45228e-07 0)
(3 1.68514e-09 0)
(3 1.94841e-11 0)
(3 1.62622e-13 0)
(3 1.7032e-15 0)
(3 3.52585e-15 0)
(3 6.66919e-15 0)
(3 -3.92908e-16 0)
(3 -5.52206e-15 0)
(3 -9.37075e-16 0)
(2.98056 0.0111617 0)
(2.99308 0.0160403 0)
(2.99943 0.00130589 0)
(2.99998 4.75011e-05 0)
(3 9.47654e-07 0)
(3 1.27159e-08 0)
(3 1.58495e-10 0)
(3 1.40391e-12 0)
(3 1.15926e-14 0)
(3 7.94306e-16 0)
(3 3.2746e-15 0)
(3 6.66475e-15 0)
(3 -3.95098e-16 0)
(3 -4.99314e-15 0)
(3 -5.5404e-16 0)
(2.99047 0.00298453 0)
(2.9978 0.0043965 0)
(2.99991 0.000178359 0)
(3 4.04827e-06 0)
(3 5.86381e-08 0)
(3 7.29859e-10 0)
(3 6.95357e-12 0)
(3 6.20794e-14 0)
(3 2.07797e-16 0)
(3 1.46271e-15 0)
(3 2.88949e-15 0)
(3 5.95279e-15 0)
(3 -1.57813e-16 0)
(3 -3.99534e-15 0)
(3 -3.29031e-16 0)
(3 1.32433e-15 0)
(3 1.34564e-15 0)
(3 -1.3029e-15 0)
(3 -2.39585e-15 0)
(3 -3.06343e-15 0)
(3 -8.2444e-16 0)
(3 1.39408e-15 0)
(3 -1.40029e-15 0)
(3 -8.28413e-16 0)
(3 1.33734e-15 0)
(3 2.31411e-15 0)
(3 5.81536e-15 0)
(3 2.59673e-16 0)
(3 -3.56712e-15 0)
(3 5.05879e-17 0)
(3 1.30771e-15 0)
(3 1.63517e-16 0)
(3 -1.89261e-15 0)
(3 -2.16455e-15 0)
(3 -3.02527e-15 0)
(3 -3.92643e-16 0)
(3 2.29321e-15 0)
(3 -9.40973e-16 0)
(3 -8.14394e-16 0)
(3 1.57896e-15 0)
(3 2.08481e-15 0)
(3 4.60848e-15 0)
(3 2.63855e-17 0)
(3 -2.87933e-15 0)
(3 5.18232e-16 0)
(3 1.46154e-15 0)
(3 -1.2554e-15 0)
(3 -1.87733e-15 0)
(3 -2.96805e-15 0)
(3 -3.69303e-15 0)
(3 3.82101e-16 0)
(3 2.45507e-15 0)
(3 -1.28434e-15 0)
(3 -7.49718e-19 0)
(3 2.19014e-15 0)
(3 1.59089e-15 0)
(3 3.16413e-15 0)
(3 -6.57911e-16 0)
(3 -1.96938e-15 0)
(3 8.1126e-16 0)
(3 1.72645e-15 0)
(3 -1.49767e-15 0)
(3 -2.50895e-15 0)
(3 -4.10159e-15 0)
(3 -2.59908e-15 0)
(3 1.47483e-15 0)
(3 2.52159e-15 0)
(3 -7.7468e-16 0)
(3 1.18124e-15 0)
(3 2.69806e-15 0)
(3 1.04729e-15 0)
(3 2.07562e-15 0)
(3 -9.45087e-16 0)
(3 -9.33047e-16 0)
(3 1.66294e-15 0)
(3 1.12457e-15 0)
(3 -2.46845e-15 0)
(3 -2.85789e-15 0)
(3 -4.80408e-15 0)
(3 -1.12889e-15 0)
(3 1.55512e-15 0)
(3 1.95011e-15 0)
(3 1.53805e-16 0)
(3 1.50513e-15 0)
(3 1.78285e-15 0)
(3 2.18426e-16 0)
(3 1.40963e-15 0)
(3 -1.3802e-15 0)
(3 -1.00549e-16 0)
(3 1.70959e-15 0)
(3 1.57267e-16 0)
(3 -2.57726e-15 0)
(3 -3.65538e-15 0)
(3 -3.58047e-15 0)
(3 1.02849e-15 0)
(3 1.5798e-15 0)
(3 1.13011e-15 0)
(3 1.38272e-15 0)
(3 1.14495e-15 0)
(3 4.69533e-16 0)
(3 -1.89591e-16 0)
(3 1.70075e-15 0)
(3 -1.326e-15 0)
(3 5.53472e-17 0)
(3 1.88886e-15 0)
(3 1.36496e-16 0)
(3 -2.82335e-16 0)
(3 -4.5611e-15 0)
(3 -3.6148e-15 0)
(3 3.06206e-15 0)
(3 1.51828e-15 0)
(3 1.46655e-15 0)
(3 2.822e-15 0)
(3 8.41632e-16 0)
(3 -1.56801e-15 0)
(3 -7.8513e-16 0)
(3 1.85558e-15 0)
(3 -1.22473e-15 0)
(3 3.45887e-16 0)
(3 1.9995e-15 0)
(3 -1.12078e-15 0)
(3 -1.77442e-15 0)
(3 -6.20756e-15 0)
(3 -8.76572e-16 0)
(3 3.89036e-15 0)
(3 1.44534e-15 0)
(3 1.10595e-15 0)
(3 2.59811e-15 0)
(3 5.84206e-16 0)
(3 -2.17031e-15 0)
(3 -5.74562e-16 0)
(3 2.64074e-15 0)
(3 -1.37248e-15 0)
(3 1.99896e-16 0)
(3 1.70999e-15 0)
(3 -3.26235e-15 0)
(3 -2.93988e-15 0)
(3 -3.91185e-15 0)
(3 -5.57651e-16 0)
(3 2.3462e-15 0)
(3 1.0294e-15 0)
(3 1.65205e-15 0)
(3 2.30392e-15 0)
(3 1.43612e-16 0)
(3 -2.26959e-15 0)
(3 -3.67879e-16 0)
(3 1.01846e-15 0)
(3 -1.33107e-15 0)
(3 6.64242e-16 0)
(3 1.55791e-15 0)
(3 2.34045e-16 0)
(3 -2.02775e-15 0)
(3 -1.98317e-15 0)
(3 -5.10661e-16 0)
(3 -2.34267e-16 0)
(3 1.1681e-16 0)
(3 1.24363e-15 0)
(3 1.3512e-15 0)
(3 -7.00048e-16 0)
(3 -3.45682e-16 0)
(3 6.9328e-16 0)
(3 9.04736e-18 0)
(3 -6.64123e-16 0)
(3 4.19168e-16 0)
(3 7.78906e-16 0)
(3 5.07317e-16 0)
(3 7.34305e-16 0)
(3 1.66269e-15 0)
(3 2.38151e-15 0)
(3 2.54107e-15 0)
(3 2.52163e-15 0)
(3 7.28602e-16 0)
(3 -5.53581e-16 0)
(3 7.19834e-16 0)
(3 8.43569e-16 0)
(3 1.39275e-15 0)
(3 1.5414e-15 0)
(3 6.4402e-16 0)
(3 6.74668e-16 0)
(3 1.335e-15 0)
(3 1.8718e-15 0)
(3 8.00768e-16 0)
(3 -5.57517e-16 0)
(3 1.46573e-15 0)
(3 1.22344e-15 0)
(3 -1.05339e-15 0)
(3 -5.35743e-17 0)
(3 3.9914e-16 0)
(3 -6.44449e-16 0)
(3 -1.25378e-15 0)
(3 -1.18643e-15 0)
(3 -6.60875e-16 0)
(3 4.54046e-16 0)
(3 1.39416e-15 0)
(3 1.05741e-15 0)
(3 -2.80481e-15 0)
(3 -2.44351e-15 0)
(3 -2.51053e-15 0)
(3 -3.06975e-15 0)
(3 -3.30955e-15 0)
(3 -2.04547e-15 0)
(3 2.93345e-15 0)
(3 4.83592e-15 0)
(3 4.23419e-15 0)
(3 7.98025e-16 0)
(3 -2.40004e-15 0)
(3 -1.87868e-15 0)
(3 -2.25731e-15 0)
(3 -2.15675e-15 0)
(3 -1.62813e-15 0)
(3 1.81012e-16 0)
(3 1.80663e-15 0)
(3 1.93242e-15 0)
(3 1.5829e-15 0)
(3 2.37319e-16 0)
(3 -3.89056e-15 0)
(3 -3.17979e-15 0)
(3 -2.74547e-15 0)
(3 -1.52808e-15 0)
(3 -1.66624e-15 0)
(3 -6.31437e-16 0)
(3 -1.66152e-15 0)
(3 -3.10631e-15 0)
(3 -3.63622e-15 0)
(3 -8.17899e-16 0)
(3 -2.00439e-15 0)
(3 -1.23476e-15 0)
(3 -1.68462e-15 0)
(3 -1.16451e-15 0)
(3 -1.29923e-15 0)
(3 -2.94755e-15 0)
(3 -4.80448e-15 0)
(3 -3.44579e-15 0)
(3 -2.72571e-15 0)
(3 4.96911e-18 0)
(3 9.67749e-16 0)
(3 1.3409e-15 0)
(3 2.82334e-16 0)
(3 -5.79181e-16 0)
(3 5.97892e-17 0)
(3 -7.09894e-16 0)
(3 -1.64651e-15 0)
(3 -2.02513e-15 0)
(3 -2.00421e-15 0)
(3 -1.35211e-15 0)
(3 1.09511e-16 0)
(3 1.18479e-15 0)
(3 1.64366e-15 0)
(3 1.65449e-15 0)
(3 2.27631e-15 0)
(3 2.53818e-15 0)
(3 4.19452e-16 0)
(3 -1.87326e-15 0)
(3 -1.63892e-15 0)
(3 -1.32863e-15 0)
(3 1.9724e-15 0)
(3 2.84775e-15 0)
(3 3.81421e-15 0)
(3 4.08937e-15 0)
(3 2.48317e-15 0)
(3 6.49436e-16 0)
(3 8.48088e-16 0)
(3 7.49883e-16 0)
(3 1.59802e-15 0)
(3 1.38953e-15 0)
(3 1.86218e-15 0)
(3 1.54966e-15 0)
(3 2.19151e-15 0)
(3 2.45065e-15 0)
(3 1.70371e-15 0)
(3 3.8246e-16 0)
(3 4.17038e-16 0)
(3 2.34028e-15 0)
(3 2.11264e-15 0)
(3 3.40689e-16 0)
(3 3.66991e-16 0)
(3 -2.20138e-16 0)
(3 -4.23258e-16 0)
(3 -2.41796e-16 0)
(3 4.09523e-16 0)
(3 1.24015e-15 0)
(3 1.38875e-15 0)
(3 2.10171e-15 0)
(3 1.5978e-15 0)
(3 -2.74851e-16 0)
(3 1.5359e-15 0)
(3 6.82573e-16 0)
(3 -9.08172e-16 0)
(3 -2.06029e-15 0)
(3 -2.16115e-15 0)
(3 3.81123e-16 0)
(3 1.42908e-15 0)
(3 1.92359e-15 0)
(3 1.35142e-15 0)
(3 3.14459e-16 0)
(3 9.74768e-16 0)
(3 5.5784e-16 0)
(3 1.53038e-16 0)
(3 1.36774e-16 0)
(3 8.23749e-16 0)
(3 9.94033e-16 0)
(3 1.09464e-15 0)
(3 3.53439e-16 0)
(3 1.82637e-17 0)
(3 5.99845e-16 0)
(3 3.09752e-16 0)
(3 5.9573e-16 0)
(3 1.13324e-15 0)
(3 1.85077e-15 0)
(3 2.20022e-15 0)
(3 9.54611e-16 0)
(3 7.23722e-17 0)
(3 -2.24299e-16 0)
(3 -8.61348e-16 0)
(3 -1.68133e-16 0)
(3 -9.1727e-16 0)
(3 -7.07031e-16 0)
(3 3.75248e-16 0)
(3 1.0747e-15 0)
(3 1.21051e-15 0)
(3 2.44886e-16 0)
(3 -4.1768e-16 0)
(3 -1.35984e-15 0)
(3 -1.19673e-15 0)
(3 -9.37624e-16 0)
(3 2.98994e-16 0)
(3 6.73388e-16 0)
(3 1.33497e-15 0)
(3 2.47937e-15 0)
(3 2.68234e-15 0)
(3 2.88226e-15 0)
(3 1.74102e-15 0)
(3 6.93315e-16 0)
(3 1.84509e-16 0)
(3 -5.62645e-16 0)
(3 -1.91272e-15 0)
(3 -1.43596e-15 0)
(3 -1.21056e-15 0)
(3 -9.30255e-16 0)
(3 -1.02154e-15 0)
(3 -7.47167e-16 0)
(3 -9.04943e-17 0)
(3 1.76198e-16 0)
(3 7.55795e-16 0)
(3 7.71253e-16 0)
(3 -2.48189e-15 0)
(3 -4.00794e-15 0)
(3 -5.14755e-15 0)
(3 -5.65787e-15 0)
(3 -5.30858e-15 0)
(3 -4.09132e-15 0)
(3 -1.76361e-15 0)
(3 -1.13151e-15 0)
(3 -7.08001e-16 0)
(3 -9.00438e-17 0)
(3 6.78081e-16 0)
(3 -2.34353e-16 0)
(3 -7.90282e-16 0)
(3 -1.00999e-15 0)
(3 -8.60891e-16 0)
(3 -9.06592e-16 0)
(3 -5.7005e-16 0)
(3 -2.16555e-16 0)
(3 -4.87142e-16 0)
(3 -6.30292e-16 0)
(3.08065 0.130067 0)
(3 -3.43662e-06 0)
(3 3.08269e-11 0)
(3 1.30279e-15 0)
(3 -3.90509e-15 0)
(3 -2.42751e-15 0)
(3 9.56139e-17 0)
(3 7.41659e-16 0)
(3 2.55442e-16 0)
(3 1.95513e-15 0)
(3 1.26802e-15 0)
(3 1.03699e-15 0)
(3 1.63312e-15 0)
(3 1.81575e-15 0)
(3 -2.20826e-16 0)
(3 -4.96358e-16 0)
(3 -2.32266e-16 0)
(3 -1.72789e-15 0)
(3 -1.02847e-15 0)
(3 1.09467e-15 0)
(1.65374 -0.573624 0)
(1.83245 -0.843772 0)
(2.93141 -0.0751442 0)
(3 2.96403e-08 0)
(3 3.90282e-12 0)
(3 -1.07856e-15 0)
(3 -3.379e-16 0)
(3 3.58221e-16 0)
(3 1.04708e-15 0)
(3 2.42517e-15 0)
(3 1.06471e-15 0)
(3 1.52359e-15 0)
(3 2.12531e-15 0)
(3 1.93825e-15 0)
(3 -1.1477e-15 0)
(3 -8.13696e-16 0)
(3 -1.14045e-15 0)
(3 -1.98307e-15 0)
(3 -2.40651e-16 0)
(3 1.3926e-15 0)
(1.28906 -0.836571 0)
(1.11266 -1.0285 0)
(1.31639 -0.869284 0)
(2.33795 -0.584518 0)
(2.99891 -0.00232161 0)
(3 -8.16642e-09 0)
(3 2.98447e-11 0)
(3 4.89391e-16 0)
(3 2.54285e-15 0)
(3 3.3216e-15 0)
(3 8.09796e-16 0)
(3 1.84381e-15 0)
(3 2.22686e-15 0)
(3 2.37157e-15 0)
(3 -1.44714e-15 0)
(3 -1.69925e-15 0)
(3 -2.36427e-15 0)
(3 -3.09231e-15 0)
(3 -4.41885e-17 0)
(3 2.02312e-15 0)
(1.38025 -0.912892 0)
(1.27171 -0.987932 0)
(1.31466 -0.940425 0)
(1.31536 -0.938001 0)
(2.08098 -0.612927 0)
(2.98061 -0.0168231 0)
(3 -6.16918e-09 0)
(3 1.28667e-10 0)
(3 -6.06445e-13 0)
(3 3.32214e-15 0)
(3 1.0616e-15 0)
(3 2.74006e-15 0)
(3 3.21705e-15 0)
(3 1.68032e-15 0)
(3 -1.4889e-15 0)
(3 -1.65256e-15 0)
(3 -3.81772e-15 0)
(3 -4.1435e-15 0)
(3 -1.35682e-17 0)
(3 2.42786e-15 0)
(1.41508 -0.980739 0)
(1.36093 -1.00516 0)
(1.3915 -0.965386 0)
(1.40115 -0.983927 0)
(1.59164 -0.935569 0)
(2.40533 -0.519439 0)
(3.00214 0.0018354 0)
(3 -5.43736e-06 0)
(3 3.32326e-08 0)
(3 1.80117e-11 0)
(3 -2.08049e-16 0)
(3 3.62072e-15 0)
(3 3.01633e-15 0)
(3 6.34046e-16 0)
(3 -1.96566e-15 0)
(3 -1.49277e-15 0)
(3 -4.13363e-15 0)
(3 -4.67648e-15 0)
(3 -4.2389e-17 0)
(3 2.26479e-15 0)
(1.46028 -1.00942 0)
(1.43364 -1.02388 0)
(1.45356 -1.00041 0)
(1.48056 -0.992723 0)
(1.52596 -1.01348 0)
(1.60904 -0.949022 0)
(2.57477 -0.300818 0)
(3.00202 0.00127115 0)
(3 -2.68995e-07 0)
(3 -1.59219e-10 0)
(3 2.89531e-14 0)
(3 2.96233e-15 0)
(3 2.72979e-15 0)
(3 2.22137e-16 0)
(3 -2.03472e-15 0)
(3 -3.12035e-15 0)
(3 -3.39303e-15 0)
(3 -4.22834e-15 0)
(3 -4.54003e-16 0)
(3 2.03581e-15 0)
(1.4961 -1.0309 0)
(1.48443 -1.0384 0)
(1.50214 -1.02238 0)
(1.51337 -1.01069 0)
(1.54125 -1.01905 0)
(1.61347 -1.01522 0)
(2.10235 -0.757643 0)
(2.92464 -0.0693203 0)
(3 2.11703e-07 0)
(3 4.72523e-10 0)
(3 -1.34143e-13 0)
(3 1.16849e-15 0)
(3 2.16651e-15 0)
(3 6.82662e-16 0)
(3 -2.25524e-15 0)
(3 -4.05548e-15 0)
(3 -2.94258e-15 0)
(3 -3.75858e-15 0)
(3 -8.20791e-16 0)
(3 1.4965e-15 0)
(1.52091 -1.0502 0)
(1.52059 -1.05283 0)
(1.53808 -1.0456 0)
(1.55234 -1.04198 0)
(1.59224 -1.03963 0)
(1.62135 -1.06235 0)
(1.72413 -1.01811 0)
(2.47246 -0.435982 0)
(3.00284 0.00204619 0)
(3 -1.32621e-07 0)
(3 1.93972e-11 0)
(3 3.59765e-14 0)
(3 1.84702e-15 0)
(3 5.74149e-16 0)
(3 -2.11424e-15 0)
(3 -4.70469e-15 0)
(3 -3.34748e-15 0)
(3 -2.32348e-15 0)
(3 -9.20602e-16 0)
(3 9.25642e-16 0)
(1.54539 -1.06955 0)
(1.54818 -1.07239 0)
(1.56672 -1.0699 0)
(1.57855 -1.06231 0)
(1.60458 -1.0529 0)
(1.63877 -1.07788 0)
(1.72822 -1.05301 0)
(2.15601 -0.784268 0)
(2.92001 -0.0761328 0)
(3 1.54412e-07 0)
(3 -6.32636e-11 0)
(3 5.45359e-15 0)
(3 5.91397e-16 0)
(3 2.78672e-16 0)
(3 -1.42582e-15 0)
(3 -4.93943e-15 0)
(3 -3.11276e-15 0)
(3 -1.86459e-15 0)
(3 -8.71193e-16 0)
(3 7.02969e-16 0)
(1.56668 -1.08607 0)
(1.57004 -1.08818 0)
(1.58543 -1.08599 0)
(1.59566 -1.0758 0)
(1.62527 -1.06832 0)
(1.672 -1.10051 0)
(1.7218 -1.11105 0)
(1.83374 -1.04232 0)
(2.56601 -0.391356 0)
(3.00212 0.00184964 0)
(3 3.77009e-07 0)
(3 -1.09658e-11 0)
(3 3.96246e-14 0)
(3 1.69191e-16 0)
(3 -1.928e-15 0)
(3 -4.59329e-15 0)
(3 -2.53966e-15 0)
(3 -1.52987e-15 0)
(3 -1.13164e-15 0)
(3 4.78177e-16 0)
(1.58852 -1.10205 0)
(1.59146 -1.10068 0)
(1.60528 -1.09731 0)
(1.61427 -1.08586 0)
(1.64318 -1.08013 0)
(1.68887 -1.10946 0)
(1.73465 -1.13032 0)
(1.83227 -1.08026 0)
(2.2834 -0.702768 0)
(2.96889 -0.0303702 0)
(3 -9.65508e-07 0)
(3 2.6298e-10 0)
(3 -4.50086e-13 0)
(3 1.05077e-15 0)
(3 -2.34989e-15 0)
(3 -5.3655e-15 0)
(3 -2.20181e-15 0)
(3 -1.53435e-15 0)
(3 -1.23632e-15 0)
(3 4.97219e-16 0)
(1.61091 -1.11827 0)
(1.61328 -1.11397 0)
(1.62544 -1.10966 0)
(1.63353 -1.09888 0)
(1.66188 -1.09719 0)
(1.70982 -1.11839 0)
(1.76087 -1.14241 0)
(1.81759 -1.12367 0)
(2.01436 -0.964078 0)
(2.74762 -0.237953 0)
(2.99994 -1.64476e-05 0)
(3 -2.22118e-10 0)
(3 8.64346e-13 0)
(3 -7.0837e-16 0)
(3 -2.64976e-15 0)
(3 -5.38628e-15 0)
(3 -2.70247e-15 0)
(3 -1.65826e-15 0)
(3 -1.64906e-15 0)
(3 -2.50391e-17 0)
(1.63081 -1.13183 0)
(1.63253 -1.1275 0)
(1.64471 -1.12466 0)
(1.65712 -1.11569 0)
(1.68594 -1.11517 0)
(1.72931 -1.12956 0)
(1.77405 -1.15785 0)
(1.80816 -1.16126 0)
(1.88289 -1.11031 0)
(2.49365 -0.517322 0)
(2.99981 -0.000542976 0)
(3 -9.72701e-07 0)
(3 2.09014e-09 0)
(3 -5.77925e-14 0)
(3 -8.00882e-16 0)
(3 -5.68633e-15 0)
(3 -2.62706e-15 0)
(3 -2.12355e-15 0)
(3 -2.60933e-15 0)
(3 -3.87265e-16 0)
(1.64809 -1.1426 0)
(1.6494 -1.1387 0)
(1.66407 -1.13579 0)
(1.6804 -1.13208 0)
(1.70479 -1.13046 0)
(1.74056 -1.13897 0)
(1.77989 -1.15588 0)
(1.81167 -1.16314 0)
(1.89602 -1.12542 0)
(2.19155 -0.842629 0)
(2.88872 -0.131642 0)
(3 7.23786e-07 0)
(3 -2.91442e-09 0)
(3 1.08376e-13 0)
(3 -5.26257e-15 0)
(3 -4.25338e-15 0)
(3 -2.47877e-15 0)
(3 -2.29292e-15 0)
(3 -1.87209e-15 0)
(3 -2.94307e-16 0)
(1.67752 -1.16321 0)
(1.67916 -1.16004 0)
(1.69434 -1.15766 0)
(1.71103 -1.15848 0)
(1.72994 -1.15364 0)
(1.7596 -1.15274 0)
(1.79952 -1.16611 0)
(1.83438 -1.18085 0)
(1.87307 -1.17385 0)
(2.02103 -1.03763 0)
(2.84973 -0.136123 0)
(3.01183 0.0165856 0)
(3 -8.26838e-09 0)
(3 -9.92986e-14 0)
(3 -3.80043e-15 0)
(3 -3.16655e-15 0)
(3 -2.11294e-15 0)
(3 -1.78791e-15 0)
(3 -1.64065e-15 0)
(3 -4.65611e-16 0)
(2.12289 -1.04679 0)
(2.25203 -0.864975 0)
(2.05978 -0.992492 0)
(1.96675 -1.06531 0)
(1.89085 -1.11023 0)
(1.86602 -1.12846 0)
(1.86618 -1.149 0)
(1.8721 -1.17223 0)
(1.87958 -1.17782 0)
(1.93158 -1.11866 0)
(2.19281 -0.864288 0)
(2.84497 -0.21249 0)
(2.99687 -0.00784372 0)
(2.99998 -5.36819e-05 0)
(3 -2.51361e-07 0)
(3 -9.83725e-10 0)
(3 -3.50441e-12 0)
(3 -1.33144e-14 0)
(3 -6.50216e-16 0)
(3 -4.08995e-16 0)
(2.48508 -1.20693 0)
(2.66049 -0.457131 0)
(2.42719 -0.720003 0)
(2.27241 -0.870493 0)
(2.17628 -0.965002 0)
(2.06221 -1.05401 0)
(2.03005 -1.08063 0)
(1.99236 -1.12081 0)
(1.94481 -1.15484 0)
(1.94949 -1.10395 0)
(1.9184 -1.12071 0)
(2.34335 -0.763121 0)
(2.91312 -0.140032 0)
(2.99865 -0.00376722 0)
(2.99999 -2.36945e-05 0)
(3 -1.06436e-07 0)
(3 -4.13201e-10 0)
(3 -1.44306e-12 0)
(3 -4.51659e-15 0)
(3 3.96995e-16 0)
(2.76243 -0.367217 0)
(2.87478 -0.0196904 0)
(2.67292 -0.472527 0)
(2.52886 -0.677261 0)
(2.42898 -0.78085 0)
(2.29819 -0.918969 0)
(2.2129 -0.990485 0)
(2.13777 -1.04681 0)
(2.07696 -1.08169 0)
(2.01685 -1.08978 0)
(1.97098 -1.1496 0)
(2.07777 -1.04401 0)
(2.56837 -0.565288 0)
(2.96885 -0.0576206 0)
(2.99969 -0.000846891 0)
(3 -4.33909e-06 0)
(3 -1.75801e-08 0)
(3 -6.36442e-11 0)
(3 -2.06912e-13 0)
(3 -2.17808e-16 0)
(2.92578 0.0636191 0)
(2.90174 0.431178 0)
(2.81864 -0.0795377 0)
(2.77771 -0.333995 0)
(2.60214 -0.618576 0)
(2.54346 -0.677856 0)
(2.38681 -0.852945 0)
(2.31362 -0.918217 0)
(2.22576 -0.990355 0)
(2.16587 -1.04652 0)
(2.05092 -1.14785 0)
(2.08484 -1.1196 0)
(2.25018 -0.938766 0)
(2.78202 -0.320748 0)
(2.9931 -0.0143983 0)
(2.99995 -0.000117892 0)
(3 -5.19439e-07 0)
(3 -1.91319e-09 0)
(3 -6.21231e-12 0)
(3 -1.58362e-14 0)
(3.07995 0.213385 0)
(3.03403 0.411305 0)
(2.89729 -0.0191238 0)
(2.88886 -0.072158 0)
(2.79899 -0.330395 0)
(2.6853 -0.512258 0)
(2.57596 -0.645346 0)
(2.46893 -0.7675 0)
(2.38734 -0.869441 0)
(2.30388 -0.979443 0)
(2.16359 -1.09606 0)
(2.13543 -1.10935 0)
(2.20745 -1.06167 0)
(2.53245 -0.688098 0)
(2.94098 -0.107829 0)
(2.99926 -0.00184503 0)
(3 -9.19396e-06 0)
(3 -3.36232e-08 0)
(3 -1.09146e-10 0)
(3 -2.97956e-13 0)
(3.08493 0.239067 0)
(3.07572 0.25426 0)
(2.99157 0.0652058 0)
(2.94298 -0.0473223 0)
(2.93479 -0.19459 0)
(2.76514 -0.481758 0)
(2.70565 -0.523876 0)
(2.58276 -0.688921 0)
(2.52554 -0.775931 0)
(2.44028 -0.883192 0)
(2.30378 -1.00289 0)
(2.22452 -1.07521 0)
(2.24877 -1.05202 0)
(2.40032 -0.896448 0)
(2.81151 -0.327286 0)
(2.99296 -0.0159445 0)
(2.99995 -0.00012142 0)
(3 -4.90978e-07 0)
(3 -1.67566e-09 0)
(3 -4.76432e-12 0)
(3.03011 0.171636 0)
(3.04934 0.15457 0)
(3.0086 0.120045 0)
(3.05832 0.176736 0)
(2.9982 -0.103155 0)
(2.89008 -0.326786 0)
(2.81043 -0.437404 0)
(2.70197 -0.607091 0)
(2.64938 -0.723782 0)
(2.54528 -0.837765 0)
(2.44291 -0.903421 0)
(2.33291 -1.01116 0)
(2.30406 -1.04472 0)
(2.37031 -0.985566 0)
(2.63631 -0.603115 0)
(2.95865 -0.0797813 0)
(2.99953 -0.00114642 0)
(3 -5.29527e-06 0)
(3 -1.87658e-08 0)
(3 -5.48939e-11 0)
(3.03283 0.141037 0)
(3.04013 0.121017 0)
(3.04732 0.216191 0)
(3.06864 0.349315 0)
(3.04446 0.105841 0)
(3.02504 -0.0228602 0)
(2.90388 -0.259239 0)
(2.83993 -0.411584 0)
(2.78295 -0.594453 0)
(2.64463 -0.768451 0)
(2.54922 -0.831158 0)
(2.43847 -0.935552 0)
(2.37301 -1.02234 0)
(2.39887 -0.981642 0)
(2.55073 -0.767619 0)
(2.88554 -0.214566 0)
(2.99687 -0.00721866 0)
(2.99998 -4.49264e-05 0)
(3 -1.69301e-07 0)
(3 -5.05077e-10 0)
(3.05933 0.132033 0)
(3.05496 0.127965 0)
(3.10792 0.211583 0)
(3.12925 0.338791 0)
(3.10402 0.14838 0)
(3.0762 0.129234 0)
(2.97081 -0.139458 0)
(2.91727 -0.266043 0)
(2.88589 -0.42342 0)
(2.75049 -0.622528 0)
(2.6552 -0.719328 0)
(2.53778 -0.841553 0)
(2.45338 -0.964818 0)
(2.45008 -0.978916 0)
(2.5121 -0.850381 0)
(2.77702 -0.404698 0)
(2.98554 -0.0306216 0)
(2.99988 -0.000303676 0)
(3 -1.23726e-06 0)
(3 -3.73147e-09 0)
(3.11249 0.100815 0)
(3.08905 0.112959 0)
(3.11851 0.179886 0)
(3.16518 0.236785 0)
(3.162 0.118464 0)
(3.15717 0.0904294 0)
(3.08065 -0.0961102 0)
(2.99844 -0.295752 0)
(2.95927 -0.377095 0)
(2.82748 -0.556564 0)
(2.74928 -0.621366 0)
(2.6367 -0.741526 0)
(2.53956 -0.889362 0)
(2.51919 -0.961252 0)
(2.57858 -0.90828 0)
(2.72933 -0.566199 0)
(2.95822 -0.090122 0)
(2.99941 -0.00151343 0)
(3 -6.9119e-06 0)
(3 -2.10659e-08 0)
(3.1146 0.0953485 0)
(3.10613 0.0964495 0)
(3.11392 0.123162 0)
(3.15669 0.136787 0)
(3.17815 0.11637 0)
(3.19484 0.0793753 0)
(3.19145 -0.0469265 0)
(3.05274 -0.318731 0)
(3.03872 -0.377917 0)
(2.91006 -0.558077 0)
(2.83693 -0.600554 0)
(2.72105 -0.710086 0)