/*--------------------------------*- C++ -*----------------------------------*\
  =========                 |
  \\      /  F ield         | OpenFOAM: The Open Source CFD Toolbox
   \\    /   O peration     | Website:  https://openfoam.org
    \\  /    A nd           | Version:  7
     \\/     M anipulation  |
\*---------------------------------------------------------------------------*/
FoamFile
{
    version     2.0;
    format      ascii;
    class       volScalarField;
    location    "7.5";
    object      rho;
}
// * * * * * * * * * * * * * * * * * * * * * * * * * * * * * * * * * * * * * //

dimensions      [1 -3 0 0 0 0 0];

internalField   nonuniform List<scalar> 
1750
(
0.225033
0.425606
0.547542
0.560237
0.587444
0.654711
0.724705
0.768612
0.821956
0.874837
0.0638413
0.121406
0.298067
0.452074
0.58672
0.654301
0.691421
0.712414
0.757116
0.805038
0.0797456
0.0816447
0.102166
0.224416
0.42595
0.557443
0.665894
0.744872
0.788285
0.787434
0.111221
0.125647
0.16102
0.204017
0.221126
0.298852
0.445415
0.628867
0.730307
0.815306
0.202168
0.217977
0.24303
0.257067
0.268403
0.288523
0.295873
0.340719
0.450967
0.712578
0.329796
0.335789
0.335357
0.342418
0.366106
0.385172
0.40151
0.421365
0.423529
0.469956
0.516764
0.523838
0.524931
0.526473
0.52912
0.535338
0.533125
0.533653
0.532118
0.526647
0.793264
0.776043
0.756073
0.737867
0.721072
0.702369
0.690244
0.678339
0.66357
0.654195
1.15405
1.11765
1.07567
1.03227
0.994856
0.956565
0.920875
0.890075
0.86552
0.82309
1.42184
1.39884
1.36912
1.33183
1.28963
1.2467
1.19824
1.14685
1.10247
1.03161
1.47022
1.46845
1.46456
1.45825
1.44855
1.43358
1.41142
1.38002
1.34485
1.2724
1.45037
1.45425
1.45676
1.45786
1.45789
1.45752
1.45621
1.45297
1.44752
1.4249
1.41193
1.41612
1.42119
1.42713
1.43304
1.43846
1.44304
1.44635
1.44763
1.44676
1.40061
1.40106
1.40185
1.40319
1.40524
1.40828
1.41228
1.41744
1.42313
1.43132
1.40001
1.40002
1.40004
1.40009
1.40019
1.40041
1.40085
1.40172
1.40315
1.40808
0.0575739
0.0563042
0.0770427
0.109504
0.184812
0.320561
0.509009
0.811842
1.19551
1.43968
1.47099
1.44588
1.40896
1.40041
1.40001
0.0569061
0.0590601
0.0843704
0.137404
0.219994
0.370245
0.610926
0.961253
1.31882
1.47265
1.47263
1.43699
1.40477
1.40015
1.40001
0.0589122
0.0595881
0.0862917
0.143226
0.239654
0.408754
0.704969
1.07307
1.38702
1.48209
1.47317
1.42706
1.40245
1.40007
1.40001
0.0647316
0.0593991
0.0874979
0.140778
0.279103
0.506137
0.822989
1.18338
1.44012
1.48666
1.46466
1.41746
1.40116
1.40003
1.40001
0.0698209
0.0576225
0.0957304
0.149965
0.334195
0.608119
0.933259
1.2913
1.47717
1.48831
1.4535
1.41066
1.40052
1.40001
1.40001
0.0650007
0.0535424
0.102382
0.215931
0.418795
0.703739
1.07038
1.394
1.49492
1.48861
1.44138
1.40568
1.40021
1.40001
1.40001
0.0461206
0.0531691
0.106776
0.279579
0.511228
0.83363
1.22385
1.46271
1.50129
1.48026
1.42785
1.40248
1.40007
1.40001
1.40001
0.0321556
0.0565519
0.136544
0.339637
0.640297
1.02529
1.35267
1.49754
1.50298
1.46827
1.416
1.40102
1.40003
1.40001
1.40001
0.0231859
0.0789192
0.213714
0.44755
0.811474
1.19644
1.44678
1.51208
1.50337
1.44985
1.40753
1.40035
1.40001
1.40001
1.40001
0.0171514
0.100587
0.298475
0.628567
1.0268
1.34707
1.50156
1.51594
1.48827
1.42954
1.40308
1.40011
1.40001
1.40001
1.40001
0.0111428
0.127271
0.438257
0.859715
1.23413
1.46182
1.5219
1.51638
1.46777
1.41521
1.40106
1.40003
1.40001
1.40001
1.40001
0.0433471
0.283221
0.69409
1.10602
1.39739
1.51675
1.52623
1.50229
1.4422
1.40608
1.40029
1.40001
1.40001
1.40001
1.40001
0.178959
0.527471
0.992495
1.33444
1.49979
1.53268
1.52643
1.479
1.42154
1.40197
1.40007
1.40001
1.40001
1.40001
1.40001
0.431516
0.861973
1.28117
1.48324
1.53733
1.53509
1.50815
1.44807
1.40823
1.4005
1.40002
1.40001
1.40001
1.40001
1.40001
0.902048
1.27306
1.4786
1.53523
1.54183
1.52729
1.48006
1.42276
1.40224
1.40009
1.40001
1.40001
1.40001
1.40001
1.40001
1.52819
1.53526
1.54404
1.54363
1.5401
1.50681
1.44321
1.40573
1.40012
1.40001
1.40001
1.40001
1.40001
1.40001
1.40001
1.52641
1.53278
1.54279
1.54194
1.536
1.50019
1.43928
1.40663
1.40037
1.40001
1.40001
1.40001
1.40001
1.40001
1.40001
1.52642
1.53314
1.54389
1.5419
1.52891
1.47959
1.42239
1.40191
1.40006
1.40001
1.40001
1.40001
1.40001
1.40001
1.40001
1.52874
1.53486
1.54368
1.54099
1.51945
1.46224
1.41307
1.40087
1.40003
1.40001
1.40001
1.40001
1.40001
1.40001
1.40001
1.53123
1.53576
1.54145
1.53753
1.50539
1.44242
1.40632
1.40031
1.40001
1.40001
1.40001
1.40001
1.40001
1.40001
1.40001
1.53309
1.53561
1.53757
1.52956
1.48599
1.42755
1.40294
1.40011
1.40001
1.40001
1.40001
1.40001
1.40001
1.40001
1.40001
1.53508
1.5361
1.53651
1.5197
1.46528
1.41458
1.40111
1.40004
1.40001
1.40001
1.40001
1.40001
1.40001
1.40001
1.40001
1.53708
1.5356
1.53155
1.50092
1.44356
1.40702
1.40038
1.40001
1.40001
1.40001
1.40001
1.40001
1.40001
1.40001
1.40001
1.53906
1.53118
1.52151
1.48119
1.42601
1.40293
1.40012
1.40001
1.40001
1.40001
1.40001
1.40001
1.40001
1.40001
1.40001
1.54139
1.52473
1.51237
1.46021
1.41366
1.40101
1.40003
1.40001
1.40001
1.40001
1.40001
1.40001
1.40001
1.40001
1.40001
1.54262
1.51834
1.4937
1.43678
1.40542
1.40028
1.40001
1.40001
1.40001
1.40001
1.40001
1.40001
1.40001
1.40001
1.40001
1.5334
1.50337
1.46808
1.42002
1.40199
1.40007
1.40001
1.40001
1.40001
1.40001
1.40001
1.40001
1.40001
1.40001
1.40001
1.51757
1.49151
1.4463
1.40839
1.40051
1.40002
1.40001
1.40001
1.40001
1.40001
1.40001
1.40001
1.40001
1.40001
1.40001
1.50362
1.47235
1.42292
1.40253
1.4001
1.40001
1.40001
1.40001
1.40001
1.40001
1.40001
1.40001
1.40001
1.40001
1.40001
1.47954
1.44268
1.40826
1.40054
1.40002
1.40001
1.40001
1.40001
1.40001
1.40001
1.40001
1.40001
1.40001
1.40001
1.40001
1.44586
1.41606
1.40198
1.4001
1.40001
1.40001
1.40001
1.40001
1.40001
1.40001
1.40001
1.40001
1.40001
1.40001
1.40001
1.40001
1.40001
1.40001
1.40001
1.40001
1.40001
1.40001
1.40001
1.40001
1.40001
1.40001
1.40001
1.40001
1.40001
1.40001
1.40001
1.40001
1.40001
1.40001
1.40001
1.40001
1.40001
1.40001
1.40001
1.40001
1.40001
1.40001
1.40001
1.40001
1.40001
1.40001
1.40001
1.40001
1.40001
1.40001
1.40001
1.40001
1.40001
1.40001
1.40001
1.40001
1.40001
1.40001
1.40001
1.40001
1.40001
1.40001
1.40001
1.40001
1.40001
1.40001
1.40001
1.40001
1.40001
1.40001
1.40001
1.40001
1.40001
1.40001
1.40001
1.40001
1.40001
1.40001
1.40001
1.40001
1.40001
1.40001
1.40001
1.40001
1.40001
1.40001
1.40001
1.40001
1.40001
1.40001
1.40001
1.40001
1.40001
1.40001
1.40001
1.40001
1.40001
1.40001
1.40001
1.40001
1.40001
1.40001
1.40001
1.40001
1.40001
1.40001
1.40001
1.40001
1.40001
1.40001
1.40001
1.40001
1.40001
1.40001
1.40001
1.40001
1.40001
1.40001
1.40001
1.40001
1.40001
1.40001
1.40001
1.40001
1.40001
1.40001
1.40001
1.40001
1.40001
1.40001
1.40001
1.40001
1.40001
1.40001
1.40001
1.40001
1.40001
1.40001
1.40001
1.40001
1.40001
1.40001
1.40001
1.40001
1.40001
1.40001
1.40001
1.40001
1.40001
1.40001
1.588
1.40001
1.40001
1.40001
1.40001
1.40001
1.40001
1.40001
1.40001
1.40001
1.44572
1.40001
1.40001
1.40001
1.40001
1.40001
1.40001
1.40001
1.40001
1.40001
1.41379
1.40001
1.40001
1.40001
1.40001
1.40001
1.40001
1.40001
1.40001
1.40001
1.40307
1.40001
1.40001
1.40001
1.40001
1.40001
1.40001
1.40001
1.40001
1.40001
1.40055
1.40001
1.40001
1.40001
1.40001
1.40001
1.40001
1.40001
1.40001
1.40001
1.40008
1.40001
1.40001
1.40001
1.40001
1.40001
1.40001
1.40001
1.40001
1.40001
1.40001
1.40001
1.40001
1.40001
1.40001
1.40001
1.40001
1.40001
1.40001
1.40001
1.40001
1.40001
1.40001
1.40001
1.40001
1.40001
1.40001
1.40001
1.40001
1.40001
1.40001
1.40001
1.40001
1.40001
1.40001
1.40001
1.40001
1.40001
1.40001
1.40001
1.40001
1.40001
1.40001
1.40001
1.40001
1.40001
1.40001
1.40001
1.40001
1.40001
1.40001
1.40001
1.40001
1.40001
1.40001
1.40001
1.40001
1.40001
1.40001
1.40001
1.40001
1.40001
1.40001
1.40001
1.40001
1.40001
1.40001
1.40001
1.40001
1.40001
1.40001
1.40001
1.40001
1.40001
1.40001
1.40001
1.40001
1.40001
1.40001
1.40001
1.40001
1.40001
1.40001
1.40001
1.40001
1.40001
1.40001
1.40001
1.40001
1.40001
1.40001
1.40001
1.40001
1.40001
1.40001
1.40001
1.40001
1.40001
1.40001
1.40001
1.40001
1.40001
1.40001
1.40001
1.40001
1.40001
1.40001
1.40001
1.40001
1.40001
1.40001
1.40001
1.40001
1.40001
1.40001
1.40001
1.40001
1.40001
1.40001
1.40001
1.40001
1.40001
1.40001
1.40001
1.40001
1.40001
1.40001
1.40001
1.40001
1.40001
1.40001
1.40001
1.40001
1.40001
1.40001
1.40001
1.40001
1.40001
1.40001
1.40001
1.40001
1.40001
1.40001
1.40001
1.40001
1.40001
1.40001
1.40001
1.40001
1.40001
4.60464
3.54846
1.87298
1.40156
1.40027
1.40005
1.40001
1.40001
1.40001
1.40001
1.40001
1.40001
1.40001
1.40001
1.40001
1.40001
1.40001
1.40001
1.40001
1.40001
4.87169
4.74463
4.60248
2.99287
1.44487
1.40003
1.40001
1.40001
1.40001
1.40001
1.40001
1.40001
1.40001
1.40001
1.40001
1.40001
1.40001
1.40001
1.40001
1.40001
4.76836
4.7098
4.91853
4.91509
3.7302
1.6925
1.4
1.40001
1.40001
1.40001
1.40001
1.40001
1.40001
1.40001
1.40001
1.40001
1.40001
1.40001
1.40001
1.40001
4.68258
4.6693
4.81545
4.91806
4.92268
4.03965
1.85899
1.39932
1.40001
1.40001
1.40001
1.40001
1.40001
1.40001
1.40001
1.40001
1.40001
1.40001
1.40001
1.40001
4.6687
4.67371
4.79623
4.84764
4.87124
4.84478
4.03876
1.87248
1.39907
1.40001
1.40001
1.40001
1.40001
1.40001
1.40001
1.40001
1.40001
1.40001
1.40001
1.40001
4.65727
4.6613
4.75514
4.82246
4.84778
4.88524
4.87965
4.00776
1.81095
1.39886
1.40001
1.40001
1.40001
1.40001
1.40001
1.40001
1.40001
1.40001
1.40001
1.40001
4.64464
4.64713
4.72695
4.78961
4.82836
4.83308
4.85339
4.77749
3.71908
1.66757
1.39903
1.40001
1.40001
1.40001
1.40001
1.40001
1.40001
1.40001
1.40001
1.40001
4.62894
4.6276
4.69396
4.75287
4.79889
4.81313
4.80743
4.82
4.71667
3.14956
1.489
1.39964
1.40001
1.40001
1.40001
1.40001
1.40001
1.40001
1.40001
1.40001
4.6108
4.6076
4.6642
4.72155
4.77039
4.78686
4.80236
4.81082
4.86573
4.73394
2.67799
1.42113
1.4
1.40001
1.40001
1.40001
1.40001
1.40001
1.40001
1.40001
4.5944
4.59161
4.64007
4.69392
4.74462
4.76712
4.79232
4.80813
4.83515
4.83827
4.35088
2.11203
1.39936
1.40001
1.40001
1.40001
1.40001
1.40001
1.40001
1.40001
4.58261
4.5808
4.62318
4.6736
4.72441
4.75225
4.78213
4.78787
4.79475
4.78511
4.78785
3.84516
1.71983
1.39853
1.40001
1.40001
1.40001
1.40001
1.40001
1.40001
4.57454
4.5731
4.61057
4.65516
4.70436
4.73383
4.75882
4.75887
4.76
4.74932
4.76163
4.53316
2.87853
1.46251
1.39973
1.4
1.40001
1.40001
1.40001
1.40001
4.56253
4.5606
4.59395
4.63086
4.67286
4.70042
4.71807
4.71774
4.71358
4.69789
4.69222
4.63063
4.26858
2.11487
1.40309
1.39999
1.4
1.40001
1.40001
1.40001
4.52945
4.52116
4.54338
4.56756
4.59687
4.61744
4.63143
4.6397
4.64618
4.64402
4.64621
4.62532
4.63667
3.57139
1.6397
1.40143
1.40001
1.40001
1.40001
1.40001
4.38098
4.30562
4.3155
4.32414
4.34512
4.37253
4.40507
4.43464
4.46344
4.48987
4.51942
4.52922
4.56629
4.30053
2.45048
1.38836
1.39877
1.4
1.4
1.40001
1.99482
2.68471
2.9926
3.25073
3.48461
3.67238
3.82785
3.96003
4.06657
4.1532
4.23218
4.28387
4.35093
4.38323
3.94937
2.08586
1.42873
1.40024
1.40001
1.40001
0.778299
1.64331
2.11277
2.457
2.71882
2.99541
3.22432
3.44048
3.61231
3.75826
3.88271
3.97215
4.08004
4.22673
4.22112
3.43507
1.81346
1.41215
1.40009
1.40001
0.744317
1.17855
1.48789
1.86382
2.1979
2.46112
2.72333
2.95035
3.17063
3.35948
3.52175
3.64838
3.78301
3.9598
4.11308
3.97429
2.78908
1.56931
1.40293
1.40002
0.834495
1.05847
1.19073
1.45426
1.76092
2.04126
2.32437
2.56106
2.80207
3.00494
3.20543
3.36029
3.52031
3.7031
3.89262
3.90251
3.61191
2.13596
1.43992
1.40037
0.957849
0.991741
1.05961
1.27617
1.48048
1.72565
1.98806
2.25029
2.48862
2.70461
2.91947
3.11036
3.28122
3.46244
3.62323
3.76141
3.76156
2.99572
1.66162
1.40559
0.989869
0.971277
0.999404
1.119
1.27968
1.50574
1.73085
1.98019
2.19482
2.43289
2.62768
2.86069
3.03472
3.23164
3.3783
3.55269
3.70729
3.51577
2.21701
1.45295
0.992309
0.980904
1.01335
1.06248
1.1193
1.29858
1.51296
1.74154
1.95049
2.18446
2.3943
2.62207
2.83295
3.00901
3.19315
3.36181
3.59801
3.56232
2.79168
1.63511
1.01161
1.01322
1.04325
1.05975
1.08754
1.21391
1.36849
1.56189
1.77768
1.97582
2.22074
2.42287
2.66073
2.82915
3.01337
3.17195
3.4112
3.53617
3.26426
2.09286
1.03245
1.03849
1.05738
1.05206
1.05821
1.14837
1.26847
1.42681
1.63288
1.81733
2.05459
2.25851
2.46229
2.65797
2.82427
2.97628
3.19863
3.45891
3.39297
2.77866
1.0386
1.04283
1.05603
1.04955
1.05303
1.08353
1.15678
1.29996
1.47923
1.67417
1.86534
2.09751
2.27005
2.47926
2.66086
2.83713
3.04699
3.31412
3.37914
3.54256
1.0359
1.03813
1.05093
1.05913
1.06391
1.07438
1.09012
1.19632
1.34335
1.54494
1.72189
1.95475
2.14937
2.32989
2.52301
2.70904
2.8946
3.14624
3.42659
4.28793
1.0244
1.03086
1.05573
1.07797
1.08242
1.07915
1.08306
1.16755
1.27986
1.45424
1.63232
1.82469
2.03212
2.19818
2.38846
2.56871
2.72198
2.97698
3.50246
4.99299
1.00923
1.02071
1.05616
1.08108
1.08107
1.06934
1.06532
1.13036
1.21978
1.37151
1.55036
1.70161
1.90056
2.05308
2.25402
2.43061
2.60208
2.83615
3.56154
5.58385
0.997241
1.01355
1.04944
1.07783
1.07611
1.06385
1.06054
1.09252
1.14717
1.26564
1.44788
1.59446
1.77133
1.93982
2.11335
2.32129
2.50881
2.74911
3.68359
6.05555
0.998247
1.01378
1.0425
1.0712
1.07308
1.06601
1.06834
1.09084
1.12319
1.21621
1.35881
1.51194
1.66905
1.86044
2.00618
2.21289
2.39408
2.6979
3.84881
6.26265
0.868056
0.997916
1.03689
1.06649
1.07732
1.07843
1.08409
1.0936
1.11799
1.19605
1.29914
1.44774
1.57955
1.77948
1.93272
2.09969
2.25932
2.66904
4.00427
6.31546
0.75924
0.934419
1.01739
1.06034
1.08761
1.09296
1.0925
1.08812
1.10174
1.16606
1.23047
1.3719
1.5033
1.65312
1.84718
1.99287
2.18752
2.71142
4.18218
6.29752
0.685459
0.851988
0.971919
1.04281
1.08608
1.09744
1.09328
1.08525
1.09218
1.14055
1.18047
1.2701
1.43047
1.56562
1.73733
1.90453
2.13006
2.87275
4.3068
6.10825
0.626642
0.766368
0.902945
1.00353
1.07153
1.0941
1.0912
1.0858
1.09344
1.1205
1.15413
1.22192
1.34324
1.49887
1.64292
1.81559
2.11219
3.12476
4.34708
5.7877
0.62882
0.711722
0.821579
0.937825
1.0343
1.08184
1.0895
1.08853
1.08871
1.09558
1.12085
1.19482
1.28555
1.41897
1.55492
1.73035
2.18662
3.38907
4.27718
5.37633
0.649594
0.669935
0.750393
0.87059
0.972494
1.05205
1.08428
1.08712
1.08277
1.0776
1.08602
1.14746
1.22353
1.33775
1.48465
1.70324
2.38492
3.59102
4.17541
4.93362
0.705721
0.6798
0.710683
0.794835
0.898557
1.00046
1.06513
1.0823
1.07956
1.07195
1.07535
1.11044
1.17423
1.26335
1.40334
1.78797
2.6905
3.70194
4.05743
4.46708
0.76745
0.730671
0.712001
0.739367
0.826903
0.932271
1.02062
1.06429
1.0739
1.07006
1.07472
1.09096
1.12488
1.21079
1.40474
1.97121
2.85764
3.64457
3.88589
4.02212
0.837943
0.801355
0.730388
0.738145
0.770609
0.847991
0.948664
1.02509
1.06079
1.06773
1.07364
1.07865
1.08928
1.19266
1.49352
2.25233
2.94222
3.53293
3.6451
3.63902
0.927771
0.911151
0.843963
0.771703
0.756487
0.777235
0.838089
0.925204
0.997986
1.04153
1.05996
1.06865
1.12234
1.37989
1.86204
2.45858
2.84591
3.23522
3.1925
3.12225
)
;

boundaryField
{
    inlet
    {
        type            calculated;
        value           uniform 1.40001;
    }
    outlet
    {
        type            calculated;
        value           nonuniform List<scalar> 
35
(
0.927773
0.911183
0.844043
0.771767
0.756516
0.777204
0.838178
0.925279
0.998025
1.04154
1.05993
1.0687
1.12285
1.38121
1.86365
2.45948
2.84603
3.23523
3.19243
3.12215
0.874795
0.805123
0.787676
0.815481
0.712808
0.470058
0.526715
0.654166
0.823131
1.03161
1.2724
1.4249
1.44676
1.43132
1.40808
)
;
    }
    airfoil
    {
        type            calculated;
        value           nonuniform List<scalar> 
60
(
0.0575739
0.0569061
0.0589122
0.0647316
0.0698209
0.0650007
0.0461206
0.0321556
0.0231859
0.0171514
0.0111428
0.0433471
0.178959
0.431516
0.902048
1.52819
1.52641
1.52642
1.52874
1.53123
1.53309
1.53508
1.53708
1.53906
1.54139
1.54262
1.5334
1.51757
1.50362
1.47954
4.60464
4.87169
4.76836
4.68258
4.6687
4.65727
4.64464
4.62894
4.6108
4.5944
4.58261
4.57454
4.56253
4.52945
4.38098
1.99482
0.778299
0.744317
0.834495
0.957849
0.989869
0.992309
1.01161
1.03245
1.0386
1.0359
1.0244
1.00923
0.997241
0.998247
)
;
    }
    top
    {
        type            symmetryPlane;
    }
    bottom
    {
        type            symmetryPlane;
    }
    defaultFaces
    {
        type            empty;
    }
}


// ************************************************************************* //
