/*--------------------------------*- C++ -*----------------------------------*\
  =========                 |
  \\      /  F ield         | OpenFOAM: The Open Source CFD Toolbox
   \\    /   O peration     | Website:  https://openfoam.org
    \\  /    A nd           | Version:  7
     \\/     M anipulation  |
\*---------------------------------------------------------------------------*/
FoamFile
{
    version     2.0;
    format      ascii;
    class       volScalarField;
    location    "2";
    object      rho;
}
// * * * * * * * * * * * * * * * * * * * * * * * * * * * * * * * * * * * * * //

dimensions      [1 -3 0 0 0 0 0];

internalField   nonuniform List<scalar> 
1750
(
0.179246
0.299152
0.437643
0.506348
0.519545
0.655095
0.84704
0.989388
1.02462
1.09155
0.0696349
0.10297
0.186164
0.387973
0.515599
0.637996
0.780189
0.939849
1.03182
1.08686
0.0993584
0.111018
0.110339
0.168357
0.389837
0.553857
0.624063
0.79884
1.06732
1.12638
0.136054
0.151729
0.174543
0.188759
0.226845
0.318683
0.314658
0.382492
0.750282
1.09786
0.194543
0.227084
0.258278
0.258714
0.265166
0.28116
0.314556
0.34644
0.424636
0.815267
0.323263
0.345904
0.3497
0.352508
0.361495
0.371396
0.387496
0.422922
0.483089
0.63943
0.518082
0.517569
0.524524
0.531109
0.530412
0.529208
0.530513
0.548014
0.60127
0.716351
0.81016
0.787311
0.765444
0.744182
0.721883
0.713936
0.719293
0.748856
0.789655
0.833396
1.18512
1.1427
1.102
1.06296
1.03059
0.989894
0.960716
0.966024
0.976722
0.994362
1.44004
1.41392
1.38667
1.35378
1.32105
1.28482
1.24155
1.20881
1.18435
1.16973
1.47561
1.4658
1.45466
1.442
1.42881
1.41523
1.39475
1.36767
1.33919
1.32013
1.44865
1.44692
1.44334
1.43756
1.42938
1.42031
1.41276
1.40512
1.3954
1.3881
1.40884
1.41026
1.41124
1.41117
1.41032
1.40815
1.40523
1.40238
1.40055
1.39948
1.40029
1.40041
1.40055
1.40066
1.40069
1.40063
1.40046
1.40025
1.40007
1.4
1.40001
1.40001
1.40001
1.40001
1.40002
1.40001
1.40001
1.40001
1.40001
1.40001
0.074042
0.0662884
0.0793417
0.111011
0.180237
0.316538
0.528848
0.841498
1.23178
1.46079
1.48351
1.44858
1.40728
1.40023
1.40001
0.0782822
0.0651482
0.0752854
0.115298
0.223131
0.399317
0.640272
0.978869
1.34487
1.4933
1.48893
1.43902
1.40396
1.4001
1.40001
0.0796245
0.0597796
0.0720735
0.125783
0.269983
0.453578
0.711102
1.07926
1.41745
1.50771
1.4908
1.43042
1.40227
1.40005
1.40001
0.0731023
0.0550292
0.0783049
0.170305
0.315429
0.505935
0.81187
1.21334
1.4819
1.51764
1.48498
1.42072
1.40113
1.40002
1.40001
0.067024
0.0515683
0.0999222
0.200193
0.343875
0.580473
0.958878
1.34439
1.51934
1.52307
1.47256
1.41254
1.40051
1.40001
1.40001
0.0619156
0.0552176
0.111982
0.220587
0.393764
0.729558
1.11652
1.44089
1.53825
1.52596
1.45528
1.40667
1.40021
1.40001
1.40001
0.0570647
0.0647967
0.118366
0.257205
0.533068
0.886196
1.25933
1.51276
1.55057
1.51699
1.43776
1.40317
1.40008
1.40001
1.40001
0.0422338
0.0783664
0.149476
0.339922
0.681345
1.04601
1.40415
1.55823
1.55699
1.50011
1.42204
1.40124
1.40003
1.40001
1.40001
0.0274729
0.0782731
0.223263
0.493827
0.84699
1.23832
1.51876
1.57791
1.55924
1.47203
1.40967
1.4004
1.40001
1.40001
1.40001
0.0131119
0.0759429
0.315928
0.6728
1.06263
1.42013
1.58086
1.5855
1.53493
1.44006
1.40366
1.40012
1.40001
1.40001
1.40001
0.00681868
0.161231
0.482267
0.886192
1.29762
1.54682
1.60364
1.58822
1.49868
1.41908
1.40114
1.40003
1.40001
1.40001
1.40001
0.0488983
0.320855
0.72936
1.16391
1.48321
1.61101
1.60923
1.5584
1.45538
1.40653
1.40027
1.40001
1.40001
1.40001
1.40001
0.187661
0.542317
1.04512
1.41863
1.60136
1.62877
1.60933
1.50963
1.42306
1.40165
1.40006
1.40001
1.40001
1.40001
1.40001
0.458209
0.933116
1.36385
1.57294
1.64269
1.63206
1.56155
1.45378
1.4065
1.40032
1.40001
1.40001
1.40001
1.40001
1.40001
0.967292
1.36073
1.57659
1.63658
1.64928
1.6048
1.49736
1.41749
1.40119
1.40004
1.40001
1.40001
1.40001
1.40001
1.40001
1.63863
1.64461
1.64966
1.64665
1.63683
1.53996
1.4311
1.40127
1.40004
1.40001
1.40001
1.40001
1.40001
1.40001
1.40001
1.63726
1.64622
1.65154
1.64136
1.61953
1.51682
1.42852
1.40276
1.40011
1.40001
1.40001
1.40001
1.40001
1.40001
1.40001
1.63613
1.64928
1.65424
1.64024
1.58943
1.47644
1.41018
1.40038
1.40001
1.40001
1.40001
1.40001
1.40001
1.40001
1.40001
1.63596
1.65228
1.65446
1.62836
1.55457
1.44514
1.40397
1.40013
1.40001
1.40001
1.40001
1.40001
1.40001
1.40001
1.40001
1.63789
1.65766
1.65451
1.61245
1.51337
1.42144
1.40133
1.40004
1.40001
1.40001
1.40001
1.40001
1.40001
1.40001
1.40001
1.64537
1.66016
1.6557
1.58444
1.46861
1.40882
1.40037
1.40001
1.40001
1.40001
1.40001
1.40001
1.40001
1.40001
1.40001
1.65612
1.65754
1.64458
1.53724
1.4357
1.40307
1.4001
1.40001
1.40001
1.40001
1.40001
1.40001
1.40001
1.40001
1.40001
1.67904
1.6392
1.60985
1.49067
1.4157
1.40089
1.40003
1.40001
1.40001
1.40001
1.40001
1.40001
1.40001
1.40001
1.40001
1.70204
1.62335
1.5625
1.45098
1.40577
1.40024
1.40001
1.40001
1.40001
1.40001
1.40001
1.40001
1.40001
1.40001
1.40001
1.71334
1.60298
1.50758
1.42232
1.40171
1.40006
1.40001
1.40001
1.40001
1.40001
1.40001
1.40001
1.40001
1.40001
1.40001
1.7095
1.56079
1.46368
1.40905
1.40045
1.40002
1.40001
1.40001
1.40001
1.40001
1.40001
1.40001
1.40001
1.40001
1.40001
1.67545
1.51714
1.42964
1.40259
1.40009
1.40001
1.40001
1.40001
1.40001
1.40001
1.40001
1.40001
1.40001
1.40001
1.40001
1.62429
1.47132
1.4113
1.4006
1.40002
1.40001
1.40001
1.40001
1.40001
1.40001
1.40001
1.40001
1.40001
1.40001
1.40001
1.5531
1.43327
1.40285
1.4001
1.40001
1.40001
1.40001
1.40001
1.40001
1.40001
1.40001
1.40001
1.40001
1.40001
1.40001
1.46912
1.40893
1.40039
1.40001
1.40001
1.40001
1.40001
1.40001
1.40001
1.40001
1.40001
1.40001
1.40001
1.40001
1.40001
1.40001
1.40001
1.40001
1.40001
1.40001
1.40001
1.40001
1.40001
1.40001
1.40001
1.40001
1.40001
1.40001
1.40001
1.40001
1.40001
1.40001
1.40001
1.40001
1.40001
1.40001
1.40001
1.40001
1.40001
1.40001
1.40001
1.40001
1.40001
1.40001
1.40001
1.40001
1.40001
1.40001
1.40001
1.40001
1.40001
1.40001
1.40001
1.40001
1.40001
1.40001
1.40001
1.40001
1.40001
1.40001
1.40001
1.40001
1.40001
1.40001
1.40001
1.40001
1.40001
1.40001
1.40001
1.40001
1.40001
1.40001
1.40001
1.40001
1.40001
1.40001
1.40001
1.40001
1.40001
1.40001
1.40001
1.40001
1.40001
1.40001
1.40001
1.40001
1.40001
1.40001
1.40001
1.40001
1.40001
1.40001
1.40001
1.40001
1.40001
1.40001
1.40001
1.40001
1.40001
1.40001
1.40001
1.40001
1.40001
1.40001
1.40001
1.40001
1.40001
1.40001
1.40001
1.40001
1.40001
1.40001
1.40001
1.40001
1.40001
1.40001
1.40001
1.40001
1.40001
1.40001
1.40001
1.40001
1.40001
1.40001
1.40001
1.40001
1.40001
1.40001
1.40001
1.40001
1.40001
1.40001
1.40001
1.40001
1.40001
1.40001
1.40001
1.40001
1.40001
1.40001
1.40001
1.40001
1.40001
1.40001
1.40001
1.40001
1.40001
1.40001
1.40001
1.40001
1.40001
1.40001
1.40001
1.40001
1.40001
1.40001
1.40001
1.40001
1.40001
1.40001
1.40001
1.40001
1.40001
1.40001
1.40001
1.40001
1.40001
1.40001
1.40001
1.40001
1.40001
1.40001
1.40001
1.40001
1.40001
1.40001
1.40001
1.40001
1.40001
1.40001
1.40001
1.40001
1.40001
1.40001
1.40001
1.40001
1.40001
1.40001
1.40001
1.40001
1.40001
1.40001
1.40001
1.40001
1.40001
1.40001
1.40001
1.40001
1.40001
1.40001
1.40001
1.40001
1.40001
1.40001
1.40001
1.40001
1.40001
1.40001
1.40001
1.40001
1.40001
1.40001
1.40001
1.40001
1.40001
1.40001
1.40001
1.40001
1.40001
1.40001
1.40001
1.40001
1.40001
1.40001
1.40001
1.40001
1.40001
1.40001
1.40001
1.40001
1.40001
1.40001
1.40001
1.40001
1.40001
1.40001
1.40001
1.40001
1.40001
1.40001
1.40001
1.40001
1.40001
1.40001
1.40001
1.40001
1.40001
1.40001
1.40001
1.40001
1.40001
1.40001
1.40001
1.40001
1.40001
1.40001
1.40001
1.40001
1.40001
1.40001
1.40001
1.40001
1.40001
1.40001
1.40001
1.40001
1.40001
1.40001
1.40001
1.40001
1.40001
1.40001
1.40001
1.40001
1.40001
1.40001
1.40001
1.40001
1.40001
1.40001
1.40001
1.40001
1.40001
1.40001
1.40001
1.40001
1.40001
1.40001
1.40001
1.40001
1.40001
1.40001
1.40001
1.40001
1.40001
1.40001
1.40001
1.40001
1.40001
1.40001
1.40001
1.40001
1.40001
1.40001
1.40001
1.40001
1.40001
1.40001
1.40001
1.40001
1.40001
1.40001
1.40001
1.40001
1.40001
1.40001
1.40001
1.40001
1.40001
1.40001
1.40001
1.40001
1.40001
1.40001
1.40001
1.40001
1.40001
1.40001
1.40001
1.40001
1.40001
1.40001
1.40001
1.40001
1.40001
1.40001
1.40001
1.40001
1.40001
1.40001
1.40001
1.40001
1.40001
1.40001
1.40001
1.40001
1.40001
1.40001
1.40001
1.40001
1.40001
1.40001
1.40001
1.40001
1.40001
1.40001
1.40001
1.40001
1.40001
1.40001
1.40001
1.40001
1.40001
1.40001
1.40001
2.38322
1.39855
1.40001
1.40001
1.40001
1.40001
1.40001
1.40001
1.40001
1.40001
1.40001
1.40001
1.40001
1.40001
1.40001
1.40001
1.40001
1.40001
1.40001
1.40001
5.1622
2.39377
1.4
1.40001
1.40001
1.40001
1.40001
1.40001
1.40001
1.40001
1.40001
1.40001
1.40001
1.40001
1.40001
1.40001
1.40001
1.40001
1.40001
1.40001
6.82308
5.14816
3.833
1.87628
1.39997
1.40001
1.40001
1.40001
1.40001
1.40001
1.40001
1.40001
1.40001
1.40001
1.40001
1.40001
1.40001
1.40001
1.40001
1.40001
5.65092
4.88787
4.90035
4.26026
2.26356
1.39805
1.40001
1.40001
1.40001
1.40001
1.40001
1.40001
1.40001
1.40001
1.40001
1.40001
1.40001
1.40001
1.40001
1.40001
4.94743
4.6637
4.65932
4.60649
4.08297
2.0218
1.39808
1.40001
1.40001
1.40001
1.40001
1.40001
1.40001
1.40001
1.40001
1.40001
1.40001
1.40001
1.40001
1.40001
4.65805
4.57632
4.5371
4.43611
4.37515
3.48661
1.65041
1.39944
1.40001
1.40001
1.40001
1.40001
1.40001
1.40001
1.40001
1.40001
1.40001
1.40001
1.40001
1.40001
4.54031
4.48045
4.43364
4.34629
4.36206
4.24904
2.6464
1.40848
1.40001
1.40001
1.40001
1.40001
1.40001
1.40001
1.40001
1.40001
1.40001
1.40001
1.40001
1.40001
4.46204
4.40006
4.35711
4.28275
4.2767
4.29226
3.70761
1.78752
1.39899
1.40001
1.40001
1.40001
1.40001
1.40001
1.40001
1.40001
1.40001
1.40001
1.40001
1.40001
4.40226
4.34268
4.31058
4.25553
4.27481
4.32453
4.21545
2.66829
1.41406
1.40001
1.40001
1.40001
1.40001
1.40001
1.40001
1.40001
1.40001
1.40001
1.40001
1.40001
4.36947
4.31701
4.2914
4.2506
4.25119
4.2664
4.2576
3.54909
1.69466
1.4
1.40001
1.40001
1.40001
1.40001
1.40001
1.40001
1.40001
1.40001
1.40001
1.40001
4.35158
4.30437
4.28161
4.24669
4.22704
4.24176
4.28471
4.08766
2.34211
1.39763
1.40001
1.40001
1.40001
1.40001
1.40001
1.40001
1.40001
1.40001
1.40001
1.40001
4.33376
4.29574
4.28228
4.25122
4.21128
4.21098
4.25916
4.21135
3.15259
1.52262
1.4
1.40001
1.40001
1.40001
1.40001
1.40001
1.40001
1.40001
1.40001
1.40001
4.31984
4.28996
4.28373
4.25351
4.20237
4.20208
4.26124
4.28158
3.78256
1.8827
1.39814
1.40001
1.40001
1.40001
1.40001
1.40001
1.40001
1.40001
1.40001
1.40001
4.3088
4.2835
4.2828
4.25489
4.20893
4.20969
4.26503
4.28987
4.12357
2.59405
1.4359
1.40001
1.40001
1.40001
1.40001
1.40001
1.40001
1.40001
1.40001
1.40001
4.30679
4.27936
4.27834
4.25872
4.23093
4.23164
4.26215
4.28885
4.27161
3.10071
1.38619
1.40001
1.40001
1.40001
1.40001
1.40001
1.40001
1.40001
1.40001
1.40001
1.95762
2.84891
3.34391
3.6553
3.83808
3.97669
4.08133
4.2076
4.28112
4.18306
2.59314
1.52283
1.40225
1.40002
1.40001
1.40001
1.40001
1.40001
1.40001
1.40001
0.634979
1.67211
2.28567
2.78679
3.15988
3.40868
3.64494
3.88636
4.15369
4.19106
3.73021
2.29628
1.47752
1.40118
1.40001
1.40001
1.40001
1.40001
1.40001
1.40001
0.480388
1.10177
1.55855
1.99243
2.4478
2.80725
3.08983
3.40613
3.78065
4.02315
3.9098
3.27371
1.92338
1.42846
1.4003
1.40001
1.40001
1.40001
1.40001
1.40001
0.536812
0.879204
1.16246
1.52179
1.8655
2.28167
2.62353
2.96679
3.30969
3.62758
3.76438
3.67618
2.75562
1.61789
1.40558
1.40004
1.40001
1.40001
1.40001
1.40001
0.608514
0.731556
0.851887
1.218
1.51892
1.83646
2.21207
2.56785
2.89318
3.17956
3.50732
3.56824
3.31173
2.11586
1.44904
1.40057
1.40001
1.40001
1.40001
1.40001
0.699855
0.677854
0.696534
0.955358
1.24494
1.49662
1.83326
2.16972
2.47948
2.77668
3.14209
3.37267
3.3062
2.68281
1.6462
1.40692
1.40005
1.40001
1.40001
1.40001
0.761641
0.691265
0.692672
0.864529
1.0693
1.31063
1.56245
1.85761
2.11492
2.38256
2.74416
3.09888
3.20484
2.99378
2.00487
1.44086
1.40044
1.40001
1.40001
1.40001
0.752831
0.694596
0.710449
0.803205
0.94508
1.17823
1.38537
1.64204
1.88968
2.10485
2.38924
2.77485
3.05013
3.01401
2.39589
1.55107
1.40304
1.40002
1.40001
1.40001
0.720114
0.694256
0.727977
0.748066
0.801225
1.02002
1.20407
1.43991
1.70516
1.92436
2.15878
2.48849
2.87078
2.94405
2.66068
1.74941
1.41418
1.40011
1.40001
1.40001
0.710002
0.715446
0.751775
0.73712
0.729355
0.829076
1.00822
1.18226
1.45806
1.71346
1.95888
2.25642
2.66612
2.8299
2.72514
1.98007
1.44476
1.40048
1.40001
1.40001
0.716753
0.743157
0.771171
0.747034
0.733722
0.791913
0.913558
1.05038
1.25046
1.48098
1.72937
2.01892
2.43801
2.68904
2.68294
2.16613
1.5013
1.40167
1.40001
1.40001
0.718225
0.742675
0.769652
0.754847
0.741693
0.776186
0.860832
1.01464
1.17385
1.37528
1.56841
1.81358
2.20444
2.55641
2.6128
2.27898
1.57622
1.40455
1.40003
1.40001
0.700746
0.72543
0.75424
0.74238
0.728517
0.752838
0.795812
0.945253
1.10216
1.30405
1.48197
1.6921
2.03073
2.43741
2.53172
2.336
1.66121
1.41033
1.40008
1.40001
0.658924
0.687284
0.720202
0.724141
0.725358
0.729768
0.731834
0.832263
0.971804
1.17941
1.37208
1.57825
1.89232
2.32457
2.45662
2.34807
1.74739
1.41991
1.40017
1.40001
0.646494
0.662112
0.695216
0.723758
0.731359
0.72101
0.712754
0.77166
0.890848
1.0105
1.19931
1.41096
1.70771
2.15527
2.35147
2.31121
1.8104
1.43343
1.40037
1.40001
0.589855
0.654365
0.698208
0.73245
0.738176
0.722692
0.717477
0.775554
0.880363
0.988035
1.13131
1.28496
1.55068
2.00211
2.25987
2.26484
1.83982
1.44231
1.40052
1.40001
0.555994
0.651017
0.714179
0.746117
0.742209
0.725912
0.726406
0.775203
0.862881
0.982193
1.11443
1.27627
1.5308
1.98065
2.24396
2.25517
1.83586
1.44326
1.40057
1.40001
0.581497
0.675481
0.741492
0.762854
0.754284
0.732646
0.737348
0.766953
0.81134
0.932899
1.06566
1.2562
1.52948
1.98557
2.23165
2.22857
1.81581
1.44127
1.40056
1.40001
0.575175
0.683468
0.749888
0.784985
0.777266
0.757855
0.753876
0.771271
0.79399
0.891603
1.0264
1.20718
1.4876
1.9366
2.1735
2.16908
1.77497
1.43561
1.40047
1.40001
0.581228
0.67194
0.736293
0.790637
0.808607
0.796301
0.780582
0.787418
0.802859
0.893616
1.02727
1.18807
1.47437
1.90798
2.11934
2.09236
1.70792
1.42563
1.40031
1.40001
0.700965
0.714086
0.744901
0.806056
0.852977
0.845822
0.826552
0.818278
0.837993
0.907202
1.03827
1.20265
1.50046
1.9306
2.07806
2.00194
1.61985
1.41394
1.40015
1.40001
0.933639
0.89042
0.853129
0.883206
0.931493
0.937867
0.91916
0.885421
0.91732
0.959814
1.06622
1.26766
1.58053
1.95407
2.02392
1.88394
1.52494
1.40504
1.40004
1.40001
1.05058
1.06419
1.03833
1.04382
1.0718
1.08011
1.05288
1.00573
1.04656
1.06758
1.11609
1.35598
1.6844
1.9425
1.94431
1.72239
1.44706
1.40099
1.40001
1.40001
1.08223
1.18045
1.20246
1.19023
1.1649
1.14719
1.13446
1.10706
1.15002
1.1915
1.21389
1.47356
1.75815
1.88709
1.81206
1.54318
1.40882
1.40009
1.40001
1.40001
1.17605
1.27115
1.27265
1.24044
1.17664
1.15125
1.1537
1.17097
1.21135
1.29031
1.3646
1.54896
1.71215
1.69463
1.55586
1.42212
1.40049
1.40001
1.4
1.40001
)
;

boundaryField
{
    inlet
    {
        type            calculated;
        value           uniform 1.40001;
    }
    outlet
    {
        type            calculated;
        value           nonuniform List<scalar> 
35
(
1.17943
1.27556
1.27733
1.24536
1.18071
1.15357
1.15511
1.17134
1.21162
1.2896
1.36209
1.54662
1.71305
1.69791
1.56102
1.42372
1.40054
1.40001
1.4
1.40001
1.09454
1.08903
1.12776
1.09814
0.814676
0.638431
0.715325
0.832852
0.993798
1.16938
1.31993
1.38806
1.39948
1.4
1.40001
)
;
    }
    airfoil
    {
        type            calculated;
        value           nonuniform List<scalar> 
60
(
0.074042
0.0782822
0.0796245
0.0731023
0.067024
0.0619156
0.0570647
0.0422338
0.0274729
0.0131119
0.00681868
0.0488983
0.187661
0.458209
0.967292
1.63863
1.63726
1.63613
1.63596
1.63789
1.64537
1.65612
1.67904
1.70204
1.71334
1.7095
1.67545
1.62429
1.5531
1.46912
2.38322
5.1622
6.82308
5.65092
4.94743
4.65805
4.54031
4.46204
4.40226
4.36947
4.35158
4.33376
4.31984
4.3088
4.30679
1.95762
0.634979
0.480388
0.536812
0.608514
0.699855
0.761641
0.752831
0.720114
0.710002
0.716753
0.718225
0.700746
0.658924
0.646494
)
;
    }
    top
    {
        type            symmetryPlane;
    }
    bottom
    {
        type            symmetryPlane;
    }
    defaultFaces
    {
        type            empty;
    }
}


// ************************************************************************* //
