/*--------------------------------*- C++ -*----------------------------------*\
  =========                 |
  \\      /  F ield         | OpenFOAM: The Open Source CFD Toolbox
   \\    /   O peration     | Website:  https://openfoam.org
    \\  /    A nd           | Version:  7
     \\/     M anipulation  |
\*---------------------------------------------------------------------------*/
FoamFile
{
    version     2.0;
    format      ascii;
    class       volScalarField;
    location    "2";
    object      T;
}
// * * * * * * * * * * * * * * * * * * * * * * * * * * * * * * * * * * * * * //

dimensions      [0 0 0 1 0 0 0];

internalField   nonuniform List<scalar> 
1750
(
1.27354
1.39614
1.52922
1.53023
1.39044
1.41841
1.48225
1.46308
1.3836
1.23163
0.389506
0.65331
1.07367
1.71612
1.72927
1.6869
1.6531
1.55874
1.42059
1.26051
0.368898
0.366372
0.372611
0.639361
1.47956
1.68869
1.60777
1.43589
1.34141
1.24685
0.393159
0.408476
0.43992
0.447317
0.57889
0.96874
0.882324
0.841801
1.01834
1.14943
0.458574
0.485074
0.509249
0.513221
0.515761
0.528003
0.55375
0.585506
0.635992
0.929254
0.56209
0.577986
0.580313
0.581938
0.588979
0.599883
0.616678
0.642503
0.669234
0.751873
0.681769
0.683606
0.689678
0.693922
0.696036
0.697443
0.698987
0.706329
0.727025
0.776146
0.82257
0.815918
0.807572
0.798103
0.788884
0.783011
0.783825
0.791978
0.804499
0.820282
0.953383
0.940632
0.927379
0.913487
0.900913
0.88608
0.871116
0.870691
0.872151
0.875854
1.01631
1.00966
1.00253
0.993463
0.983816
0.972712
0.958644
0.94713
0.938559
0.932317
1.02274
1.01998
1.01683
1.0132
1.00936
1.00534
0.999386
0.991533
0.983503
0.977269
1.01432
1.01381
1.01277
1.01107
1.00867
1.00597
1.00372
1.0015
0.998795
0.996598
1.00257
1.00298
1.00324
1.0032
1.00294
1.00232
1.00149
1.00068
1.00016
0.999846
1.00008
1.00012
1.00016
1.00019
1.00019
1.00018
1.00013
1.00007
1.00002
0.999999
1
1
1
1
1
1
1
1
1
1
0.499921
0.424951
0.358658
0.379619
0.449132
0.557142
0.681794
0.833245
0.966844
1.02153
1.02502
1.01431
1.00212
1.00006
1
0.514907
0.397454
0.338798
0.392297
0.491892
0.605575
0.740326
0.886703
0.996604
1.02895
1.02644
1.01146
1.00115
1.00003
1
0.523464
0.385611
0.339942
0.433075
0.531691
0.641098
0.779906
0.92318
1.01412
1.03244
1.02684
1.00899
1.00066
1.00001
1
0.510182
0.367266
0.374429
0.466656
0.55478
0.675718
0.82456
0.961979
1.02838
1.03485
1.025
1.00613
1.00033
1.00001
1
0.491595
0.343716
0.408102
0.473234
0.577537
0.717105
0.878367
0.996272
1.03659
1.03622
1.02147
1.00372
1.00015
1
1
0.472569
0.339406
0.416967
0.48207
0.618866
0.791498
0.931983
1.01997
1.04092
1.03694
1.01643
1.00197
1.00006
1
1
0.495706
0.370909
0.409403
0.539184
0.713983
0.854804
0.974312
1.03649
1.04405
1.03428
1.01128
1.00093
1.00002
1
1
0.501313
0.407274
0.438037
0.620088
0.779441
0.910915
1.01206
1.04672
1.04571
1.02959
1.00661
1.00036
1.00001
1
1
0.464551
0.411984
0.545249
0.71068
0.847463
0.968521
1.0391
1.05126
1.04617
1.02154
1.00289
1.00011
1
1
1
0.339479
0.402911
0.623125
0.788087
0.919855
1.01626
1.05307
1.05311
1.0394
1.01204
1.00108
1.00003
1
1
1
0.0973494
0.501121
0.714617
0.868939
0.986985
1.04601
1.05812
1.05383
1.02914
1.00572
1.00033
1.00001
1
1
1
0.118599
0.609857
0.814131
0.954226
1.03286
1.06026
1.05951
1.04562
1.0165
1.00194
1.00008
1
1
1
1
0.225154
0.675332
0.906967
1.01702
1.05911
1.06411
1.0588
1.03209
1.00692
1.00049
1.00002
1
1
1
1
0.489635
0.837654
1.00165
1.05305
1.06784
1.06483
1.04618
1.01596
1.00193
1.00009
1
1
1
1
1
0.834865
0.99865
1.0544
1.0664
1.06917
1.05725
1.0283
1.00521
1.00035
1.00001
1
1
1
1
1
1.06677
1.06812
1.06923
1.06838
1.06572
1.03982
1.00913
1.00036
1.00001
1
1
1
1
1
1
1.06651
1.06863
1.06975
1.06694
1.0614
1.03371
1.00834
1.0008
1.00003
1
1
1
1
1
1
1.06619
1.06938
1.07039
1.06659
1.05318
1.02211
1.00297
1.00011
1
1
1
1
1
1
1
1.06616
1.07016
1.07044
1.06345
1.04383
1.01317
1.00115
1.00004
1
1
1
1
1
1
1
1.06673
1.07155
1.07045
1.05926
1.03256
1.00626
1.00038
1.00001
1
1
1
1
1
1
1
1.06882
1.07214
1.07073
1.0519
1.01992
1.00257
1.0001
1
1
1
1
1
1
1
1
1.07173
1.07087
1.06767
1.03915
1.0104
1.00089
1.00003
1
1
1
1
1
1
1
1
1.07768
1.06586
1.05851
1.02615
1.00457
1.00025
1.00001
1
1
1
1
1
1
1
1
1.08354
1.06132
1.04558
1.01478
1.00167
1.00007
1
1
1
1
1
1
1
1
1
1.0863
1.05585
1.03048
1.00647
1.00049
1.00001
1
1
1
1
1
1
1
1
1
1.08514
1.04484
1.01828
1.00262
1.00013
1
1
1
1
1
1
1
1
1
1
1.07612
1.03317
1.00857
1.00075
1.00003
1
1
1
1
1
1
1
1
1
1
1.0624
1.0206
1.00328
1.00017
1
1
1
1
1
1
1
1
1
1
1
1.043
1.00972
1.00083
1.00003
1
1
1
1
1
1
1
1
1
1
1
1.01972
1.00261
1.00011
1
1
1
1
1
1
1
1
1
1
1
1
1
1
1
1
1
1
1
1
1
1
1
1
1
1
1
1
1
1
1
1
1
1
1
1
1
1
1
1
1
1
1
1
1
1
1
1
1
1
1
1
1
1
1
1
1
1
1
1
1
1
1
1
1
1
1
1
1
1
1
1
1
1
1
1
1
1
1
1
1
1
1
1
1
1
1
1
1
1
1
1
1
1
1
1
1
1
1
1
1
1
1
1
1
1
1
1
1
1
1
1
1
1
1
1
1
1
1
1
1
1
1
1
1
1
1
1
1
1
1
1
1
1
1
1
1
1
1
1
1
1
1
1
1
1
1
1
1
1
1
1
1
1
1
1
1
1
1
1
1
1
1
1
1
1
1
1
1
1
1
1
1
1
1
1
1
1
1
1
1
1
1
1
1
1
1
1
1
1
1
1
1
1
1
1
1
1
1
1
1
1
1
1
1
1
1
1
1
1
1
1
1
1
1
1
1
1
1
1
1
1
1
1
1
1
1
1
1
1
1
1
1
1
1
1
1
1
1
1
1
1
1
1
1
1
1
1
1
1
1
1
1
1
1
1
1
1
1
1
1
1
1
1
1
1
1
1
1
1
1
1
1
1
1
1
1
1
1
1
1
1
1
1
1
1
1
1
1
1
1
1
1
1
1
1
1
1
1
1
1
1
1
1
1
1
1
1
1
1
1
1
1
1
1
1
1
1
1
1
1
1
1
1
1
1
1
1
1
1
1
1
1
1
1
1
1
1
1
1
1
1
1
1
1
1
1
1
1
1
1
1
1
1
1
1
1
1
1
1
1
1
1.26263
0.999881
1
1
1
1
1
1
1
1
1
1
1
1
1
1
1
1
1
1
1.9734
1.46787
0.999997
1
1
1
1
1
1
1
1
1
1
1
1
1
1
1
1
1
2.38463
2.21398
2.25295
1.34218
0.99993
1
1
1
1
1
1
1
1
1
1
1
1
1
1
1
2.26199
2.19046
2.29052
2.2236
1.50904
0.998943
1
1
1
1
1
1
1
1
1
1
1
1
1
1
2.19194
2.17137
2.2215
2.22827
2.10507
1.38239
0.99888
1
1
1
1
1
1
1
1
1
1
1
1
1
2.16622
2.16598
2.18558
2.18672
2.15889
1.87717
1.15968
0.999568
1
1
1
1
1
1
1
1
1
1
1
1
2.15463
2.15328
2.16315
2.15924
2.15247
2.07053
1.57773
1.00553
1
1
1
1
1
1
1
1
1
1
1
1
2.14163
2.13761
2.14474
2.13942
2.13056
2.08223
1.8747
1.23847
0.999288
1
1
1
1
1
1
1
1
1
1
1
2.12668
2.12189
2.12854
2.12442
2.11974
2.09386
2.00185
1.5735
1.00891
1
1
1
1
1
1
1
1
1
1
1
2.11264
2.10856
2.115
2.11393
2.10832
2.08428
2.01957
1.80005
1.18102
0.999999
1
1
1
1
1
1
1
1
1
1
2.09859
2.09514
2.10272
2.10578
2.09966
2.07818
2.03439
1.92695
1.45668
0.999104
1
1
1
1
1
1
1
1
1
1
2.08254
2.08037
2.09034
2.0974
2.09016
2.06992
2.03416
1.9648
1.68644
1.07663
1
1
1
1
1
1
1
1
1
1
2.06668
2.0659
2.0778
2.08662
2.07884
2.06225
2.03561
1.98063
1.82993
1.27095
0.998932
1
1
1
1
1
1
1
1
1
2.04962
2.04817
2.06093
2.07214
2.06837
2.05676
2.03417
1.99024
1.91804
1.54018
1.02063
1
1
1
1
1
1
1
1
1
2.04175
2.0439
2.05695
2.06371
2.05849
2.04704
2.02477
1.98884
1.92492
1.6562
1.02217
0.999468
1
1
1
1
1
1
1
1
1.53623
1.76358
1.86164
1.92967
1.97223
1.99837
1.9968
1.98379
1.96451
1.91857
1.54863
1.06871
1.00094
1.00001
1
1
1
1
1
1
1.05283
1.46952
1.61235
1.72795
1.81674
1.87611
1.91532
1.936
1.94671
1.94652
1.87256
1.45581
1.04094
1.00045
1
1
1
1
1
1
1.08425
1.29228
1.40997
1.51934
1.64028
1.73382
1.79629
1.84839
1.8867
1.9166
1.89892
1.76802
1.28402
1.01338
1.0001
1
1
1
1
1
1.15914
1.2034
1.26818
1.37463
1.47598
1.59685
1.68513
1.75785
1.80147
1.84466
1.8698
1.85116
1.6039
1.11908
1.00231
1.00001
1
1
1
1
1.20247
1.14863
1.14375
1.2596
1.35215
1.46109
1.57241
1.66401
1.71753
1.76027
1.82043
1.82459
1.73178
1.34287
1.02292
1.0002
1
1
1
1
1.23485
1.1135
1.0524
1.14135
1.24541
1.33663
1.45409
1.55679
1.62287
1.67915
1.74976
1.78757
1.76211
1.54466
1.12375
1.00276
1.00001
1
1
1
1.24526
1.11636
1.04489
1.09429
1.17881
1.27088
1.36783
1.46817
1.53126
1.59166
1.671
1.74546
1.74539
1.64172
1.28264
1.01779
1.00014
1
1
1
1.23674
1.1239
1.05721
1.06384
1.12526
1.22137
1.30856
1.40261
1.47235
1.52652
1.59722
1.68987
1.71946
1.67367
1.42843
1.07048
1.00111
1.00001
1
1
1.21756
1.13523
1.07422
1.04403
1.05795
1.15635
1.23647
1.33225
1.41772
1.4809
1.54612
1.63079
1.68592
1.65983
1.51109
1.16092
1.00554
1.00003
1
1
1.21526
1.164
1.10039
1.04171
1.01808
1.06635
1.14779
1.22422
1.33242
1.41856
1.49517
1.57543
1.6448
1.63423
1.53323
1.25063
1.01839
1.00016
1
1
1.22006
1.18862
1.12124
1.04965
1.02089
1.04806
1.10888
1.17294
1.25895
1.34411
1.43053
1.5151
1.5987
1.60126
1.5307
1.31023
1.0423
1.00056
1
1
1.21995
1.18788
1.12172
1.05685
1.02724
1.04156
1.0899
1.16455
1.24021
1.32123
1.39186
1.46566
1.54933
1.57233
1.51836
1.33804
1.07181
1.00155
1.00001
1
1.20604
1.17622
1.11492
1.05284
1.02661
1.03193
1.06127
1.13872
1.21858
1.30544
1.37524
1.43926
1.50911
1.54408
1.49695
1.35356
1.10332
1.00359
1.00002
1
1.17949
1.15491
1.10227
1.0534
1.03151
1.0309
1.03261
1.09072
1.16471
1.26503
1.34587
1.4093
1.47132
1.51351
1.473
1.35134
1.13279
1.00707
1.00005
1
1.15364
1.13939
1.09602
1.05945
1.04563
1.03386
1.02879
1.06672
1.12876
1.19911
1.28908
1.3617
1.42142
1.47048
1.44114
1.34033
1.15146
1.01188
1.00011
1
1.17111
1.11857
1.08832
1.06628
1.05137
1.03688
1.03219
1.07092
1.13007
1.19533
1.26535
1.32088
1.37404
1.42798
1.40816
1.32231
1.15139
1.01455
1.00016
1
1.17918
1.10484
1.09071
1.07173
1.05092
1.03705
1.03825
1.07284
1.1291
1.19643
1.25676
1.30274
1.34298
1.39872
1.38322
1.30614
1.14712
1.01469
1.00017
1
1.24357
1.1193
1.0937
1.07398
1.05377
1.03882
1.04639
1.07488
1.11643
1.18491
1.23519
1.27722
1.31565
1.37249
1.35614
1.28264
1.13635
1.01388
1.00017
1
1.22152
1.11913
1.09006
1.07813
1.06234
1.05177
1.06145
1.08571
1.11451
1.16966
1.20928
1.23756
1.27196
1.32605
1.31255
1.25029
1.11977
1.01177
1.00014
1
1.15093
1.09793
1.08142
1.08647
1.08646
1.08455
1.09179
1.10824
1.11581
1.15032
1.1766
1.18612
1.21736
1.27455
1.26661
1.21419
1.09666
1.00831
1.00009
1
1.20235
1.11556
1.08979
1.11028
1.13647
1.13235
1.12235
1.11347
1.1121
1.11399
1.12448
1.12777
1.16801
1.23228
1.22575
1.17735
1.06864
1.00442
1.00004
1
1.33258
1.20929
1.14434
1.13695
1.14652
1.1429
1.12569
1.10125
1.08618
1.05799
1.04851
1.07427
1.13471
1.19627
1.189
1.13883
1.03919
1.00156
1.00001
1
1.33121
1.22139
1.15501
1.13552
1.13343
1.12178
1.09455
1.05344
1.03199
1.00149
0.987594
1.04342
1.11863
1.164
1.1547
1.09392
1.01483
1.0003
1
1
1.28887
1.19745
1.12854
1.09339
1.0672
1.03884
1.00713
0.979204
0.978276
0.975496
0.97886
1.04339
1.11317
1.13568
1.115
1.04401
1.00276
1.00003
1
1
1.16362
1.09563
1.0301
0.994994
0.96557
0.946748
0.937873
0.93904
0.951271
0.9733
0.994734
1.04916
1.09238
1.088
1.0503
1.00752
1.00016
1
1
1
)
;

boundaryField
{
    inlet
    {
        type            fixedValue;
        value           uniform 1;
    }
    outlet
    {
        type            inletOutlet;
        inletValue      uniform 1;
        value           nonuniform List<scalar> 
35
(
1.1603
1.09183
1.02632
0.991058
0.962243
0.944842
0.936729
0.938748
0.951058
0.973834
0.996568
1.05074
1.0918
1.08591
1.04682
1.00638
1.00012
1
1
1
1.22826
1.25799
1.24533
1.14913
0.929928
0.753049
0.777259
0.820818
0.876352
0.932599
0.977418
0.996629
0.999846
0.999999
1
)
;
    }
    airfoil
    {
        type            zeroGradient;
    }
    top
    {
        type            symmetryPlane;
    }
    bottom
    {
        type            symmetryPlane;
    }
    defaultFaces
    {
        type            empty;
    }
}


// ************************************************************************* //
