/*--------------------------------*- C++ -*----------------------------------*\
  =========                 |
  \\      /  F ield         | OpenFOAM: The Open Source CFD Toolbox
   \\    /   O peration     | Website:  https://openfoam.org
    \\  /    A nd           | Version:  7
     \\/     M anipulation  |
\*---------------------------------------------------------------------------*/
FoamFile
{
    version     2.0;
    format      ascii;
    class       volScalarField;
    location    "2.5";
    object      p;
}
// * * * * * * * * * * * * * * * * * * * * * * * * * * * * * * * * * * * * * //

dimensions      [1 -1 -2 0 0 0 0];

internalField   nonuniform List<scalar> 
90000
(
0.701087
0.71182
0.722916
0.734004
0.7454
0.755023
0.764454
0.773776
0.782932
0.791629
0.801616
0.812351
0.824175
0.836431
0.849205
0.862048
0.874903
0.8871
0.899274
0.910204
0.921268
0.930585
0.939729
0.947356
0.953791
0.959305
0.963925
0.965988
0.967544
0.967822
0.967489
0.966357
0.963925
0.960486
0.953762
0.94724
0.942343
0.939075
0.938635
0.939697
0.941714
0.944377
0.946946
0.947832
0.948123
0.947684
0.946983
0.945541
0.942647
0.94058
0.938869
0.938399
0.938715
0.940043
0.94073
0.942136
0.942882
0.942631
0.94156
0.94056
0.939737
0.939699
0.940352
0.940977
0.941238
0.940803
0.940219
0.93887
0.937887
0.937726
0.937864
0.938373
0.938278
0.937666
0.936673
0.936334
0.936677
0.936943
0.936666
0.936033
0.935677
0.935704
0.935724
0.935483
0.93541
0.935571
0.935741
0.935747
0.935844
0.936228
0.9371
0.938949
0.94356
0.954791
0.975697
1.00169
1.02586
1.0402
1.04559
1.05283
0.692679
0.693595
0.69525
0.697543
0.700953
0.705139
0.70974
0.715187
0.721469
0.728285
0.73552
0.743513
0.751973
0.761076
0.770986
0.781246
0.792774
0.804157
0.816574
0.829096
0.841705
0.854657
0.867304
0.879303
0.89181
0.902583
0.912251
0.923411
0.929839
0.936524
0.941885
0.945768
0.947585
0.949153
0.953224
0.958064
0.958091
0.956718
0.95443
0.951457
0.948323
0.9457
0.944021
0.942071
0.942088
0.942063
0.942412
0.943234
0.944564
0.94523
0.944852
0.943545
0.941577
0.93989
0.938238
0.93832
0.939175
0.940761
0.942491
0.943231
0.942518
0.941208
0.93983
0.938926
0.939312
0.940232
0.940645
0.940134
0.938695
0.937433
0.936872
0.93719
0.937825
0.937876
0.937175
0.936402
0.936321
0.936451
0.936473
0.936156
0.935738
0.935558
0.935458
0.935462
0.93545
0.935587
0.935742
0.935767
0.935826
0.936152
0.936986
0.93879
0.943265
0.95426
0.975104
1.00133
1.02601
1.04022
1.0455
1.05265
0.69237
0.692327
0.692278
0.692244
0.692249
0.692335
0.692514
0.692839
0.693369
0.694148
0.695228
0.696674
0.698579
0.700944
0.703979
0.707597
0.712151
0.717509
0.724142
0.73176
0.741019
0.751333
0.763225
0.776797
0.790833
0.807289
0.823575
0.840884
0.858739
0.876209
0.892631
0.907678
0.923018
0.934244
0.941729
0.949919
0.95169
0.951302
0.951884
0.951916
0.950906
0.948666
0.945767
0.942888
0.941219
0.941684
0.942858
0.94419
0.94593
0.94657
0.94601
0.944276
0.941798
0.939328
0.93675
0.936881
0.937892
0.939515
0.941607
0.943021
0.942826
0.941604
0.939876
0.939141
0.939514
0.940441
0.940792
0.940339
0.939189
0.93765
0.937324
0.937646
0.938219
0.937903
0.937316
0.936543
0.936407
0.936503
0.936471
0.936228
0.935747
0.935455
0.935403
0.935424
0.93543
0.935575
0.935681
0.935681
0.935751
0.936106
0.936963
0.938709
0.9431
0.954084
0.974918
1.00117
1.02611
1.04029
1.04552
1.05267
0.692288
0.692229
0.692158
0.692088
0.692012
0.691931
0.691855
0.691789
0.691734
0.691689
0.691635
0.691576
0.691546
0.691548
0.691642
0.691816
0.69214
0.692672
0.693447
0.69453
0.696083
0.698261
0.701211
0.705284
0.710624
0.717506
0.72659
0.73729
0.751123
0.766197
0.784844
0.804284
0.824977
0.847868
0.866467
0.887443
0.902586
0.913849
0.925896
0.931843
0.934863
0.936057
0.938754
0.942637
0.945169
0.947811
0.948364
0.948018
0.947261
0.946468
0.944816
0.943056
0.941325
0.939992
0.939518
0.939559
0.939645
0.939773
0.940166
0.940487
0.940756
0.940972
0.941694
0.941422
0.940773
0.939967
0.939239
0.938883
0.938981
0.938629
0.938124
0.937659
0.937342
0.936974
0.93703
0.936876
0.936584
0.936326
0.936133
0.936103
0.935858
0.935603
0.935445
0.935365
0.935487
0.935679
0.935798
0.935849
0.935967
0.936326
0.937093
0.938734
0.943063
0.953761
0.974361
1.00104
1.02619
1.04022
1.04521
1.0523
0.692184
0.692132
0.692079
0.69203
0.691979
0.691921
0.691852
0.691772
0.691687
0.691601
0.691511
0.691424
0.691342
0.691276
0.691186
0.69108
0.691009
0.690927
0.690832
0.690776
0.690729
0.690705
0.690717
0.690826
0.691193
0.69183
0.692922
0.694569
0.69723
0.701044
0.706831
0.714818
0.725696
0.740002
0.758058
0.778225
0.803406
0.828951
0.853064
0.87697
0.900212
0.914538
0.929159
0.93738
0.94053
0.943531
0.943806
0.943531
0.942666
0.941042
0.939152
0.939494
0.9405
0.942527
0.944027
0.943689
0.942288
0.940239
0.938554
0.93777
0.938021
0.939197
0.941161
0.942455
0.942194
0.941023
0.939119
0.938186
0.938551
0.939021
0.938954
0.938195
0.937076
0.936689
0.937001
0.937306
0.93687
0.936265
0.93596
0.936109
0.936135
0.93571
0.935469
0.935401
0.935538
0.935692
0.935887
0.936011
0.936102
0.936395
0.937148
0.938777
0.942987
0.953559
0.974037
1.00085
1.02613
1.04038
1.04526
1.05228
0.692065
0.692016
0.691967
0.691919
0.691874
0.69182
0.691757
0.691699
0.691641
0.691578
0.691508
0.691433
0.691354
0.691271
0.691184
0.691094
0.690989
0.690877
0.690769
0.690663
0.690566
0.690481
0.690405
0.690354
0.690247
0.690127
0.690012
0.689893
0.689841
0.689886
0.690068
0.690612
0.691806
0.693808
0.697554
0.703236
0.712437
0.725249
0.743512
0.764895
0.790944
0.820086
0.848141
0.871793
0.891407
0.909694
0.916727
0.924833
0.927818
0.931605
0.936177
0.941488
0.944191
0.946512
0.946227
0.945427
0.943357
0.940878
0.93846
0.937513
0.938078
0.939366
0.940386
0.940696
0.940446
0.939786
0.939166
0.939285
0.939217
0.93912
0.938758
0.937963
0.937047
0.936687
0.936945
0.937116
0.937004
0.936443
0.93601
0.936085
0.936071
0.935686
0.935413
0.935475
0.935603
0.935707
0.935807
0.935987
0.936199
0.93653
0.937153
0.938696
0.942996
0.953505
0.97414
1.00127
1.02619
1.04038
1.04493
1.05191
0.691954
0.691906
0.691857
0.691811
0.691761
0.69171
0.691651
0.691592
0.691535
0.691473
0.691409
0.691343
0.691274
0.691204
0.691125
0.691045
0.690968
0.690885
0.690797
0.690701
0.690595
0.690489
0.690381
0.690267
0.690138
0.690011
0.689882
0.689762
0.68965
0.689552
0.689514
0.689384
0.689234
0.689082
0.689059
0.689161
0.689655
0.690877
0.693462
0.698435
0.706462
0.720492
0.738023
0.763781
0.79219
0.823404
0.853368
0.882189
0.901303
0.921067
0.93154
0.937774
0.9397
0.942405
0.942052
0.940101
0.93757
0.937833
0.939866
0.941435
0.941736
0.940923
0.939579
0.938322
0.938138
0.938334
0.939363
0.940034
0.939917
0.939441
0.93826
0.937484
0.937326
0.937244
0.937178
0.93672
0.936384
0.936366
0.936366
0.936326
0.936024
0.935654
0.93564
0.935646
0.935645
0.935674
0.935876
0.935962
0.93613
0.936478
0.937185
0.938622
0.942739
0.953164
0.973754
1.00126
1.02616
1.04047
1.04474
1.05168
0.691886
0.691842
0.691793
0.691741
0.691693
0.691647
0.691592
0.691536
0.69148
0.691419
0.691356
0.691291
0.691224
0.691158
0.691084
0.691006
0.690931
0.690852
0.690769
0.690681
0.690587
0.69049
0.690389
0.690284
0.690166
0.690044
0.689918
0.68979
0.689654
0.68951
0.689365
0.689234
0.6891
0.688966
0.688832
0.688737
0.688559
0.688375
0.688159
0.688177
0.688448
0.689502
0.691848
0.697166
0.706548
0.721833
0.745084
0.771854
0.805587
0.838925
0.86615
0.89258
0.904161
0.91702
0.922644
0.928901
0.934359
0.94029
0.945607
0.945627
0.944608
0.941724
0.937578
0.936547
0.936827
0.938281
0.94027
0.939919
0.939331
0.938509
0.937595
0.937698
0.937851
0.93774
0.937213
0.936372
0.936015
0.936235
0.936602
0.936339
0.935758
0.935346
0.935544
0.935737
0.935699
0.93556
0.935788
0.935977
0.936042
0.936287
0.93701
0.938706
0.942965
0.9533
0.973746
1.0015
1.02634
1.0405
1.04441
1.05133
0.691759
0.691716
0.691673
0.691622
0.691572
0.691522
0.691476
0.691423
0.69136
0.691302
0.691246
0.691187
0.691125
0.691061
0.690997
0.690923
0.69085
0.690775
0.690699
0.690618
0.690534
0.690444
0.690351
0.690255
0.690153
0.690044
0.689932
0.689814
0.689693
0.689559
0.689422
0.689277
0.689129
0.688977
0.688811
0.688642
0.688482
0.68831
0.688127
0.687976
0.687783
0.687598
0.68745
0.687442
0.687778
0.689059
0.692586
0.699335
0.713464
0.732749
0.762626
0.795939
0.831672
0.865766
0.891231
0.917417
0.928798
0.935874
0.94069
0.942061
0.939503
0.935645
0.935919
0.937458
0.939363
0.940238
0.93976
0.938866
0.937757
0.937099
0.937744
0.93837
0.938384
0.937902
0.936887
0.936262
0.936268
0.936485
0.936599
0.936221
0.935649
0.935434
0.935527
0.935774
0.935677
0.935473
0.935624
0.935877
0.935989
0.936174
0.936797
0.938466
0.942987
0.9535
0.974146
1.00191
1.02686
1.04056
1.04415
1.05103
0.691609
0.691566
0.69152
0.69146
0.691417
0.691374
0.691327
0.691273
0.691217
0.691161
0.691101
0.691041
0.690985
0.690923
0.690861
0.690789
0.690718
0.690646
0.690572
0.690494
0.690411
0.690325
0.690238
0.690149
0.690055
0.689956
0.689852
0.689741
0.689627
0.689505
0.689377
0.689242
0.689098
0.688951
0.688791
0.68862
0.68844
0.68826
0.688088
0.687914
0.687764
0.687607
0.687438
0.6873
0.687069
0.68679
0.686492
0.686599
0.687424
0.689826
0.69647
0.707861
0.729855
0.757669
0.794288
0.831652
0.862959
0.8921
0.905827
0.920064
0.92503
0.933605
0.939337
0.94356
0.943105
0.941842
0.939084
0.936234
0.93589
0.936985
0.938726
0.938641
0.937969
0.937196
0.936461
0.936501
0.936739
0.936597
0.936262
0.935907
0.935734
0.935946
0.935716
0.935844
0.935633
0.935492
0.935601
0.935747
0.935881
0.936106
0.936749
0.938283
0.942668
0.953149
0.973695
1.00193
1.02725
1.04053
1.04385
1.05073
0.691564
0.691517
0.691469
0.691419
0.691369
0.691326
0.691275
0.691219
0.69116
0.691096
0.69103
0.690967
0.690907
0.690842
0.690776
0.690705
0.69063
0.690553
0.690474
0.690396
0.690316
0.690236
0.690158
0.69008
0.689993
0.689903
0.68981
0.689709
0.689603
0.689492
0.689371
0.689242
0.689103
0.688958
0.6888
0.688627
0.688449
0.688279
0.688129
0.687978
0.687821
0.68766
0.687468
0.687245
0.687023
0.686772
0.68652
0.68634
0.686137
0.685742
0.685829
0.686497
0.689089
0.694843
0.708608
0.729238
0.763002
0.801474
0.84098
0.879125
0.905992
0.927833
0.934571
0.940163
0.939519
0.936321
0.934015
0.935209
0.937097
0.938949
0.938846
0.938057
0.936349
0.936114
0.936433
0.937126
0.937052
0.936483
0.935812
0.935569
0.935928
0.936008
0.935737
0.935878
0.935716
0.935632
0.935633
0.935658
0.935776
0.936033
0.936694
0.938209
0.942408
0.952718
0.97301
1.0014
1.02753
1.04054
1.04375
1.05066
0.691608
0.691558
0.691513
0.691469
0.691419
0.691369
0.691316
0.691259
0.691194
0.691123
0.691055
0.690987
0.690924
0.690858
0.690787
0.690708
0.690632
0.690558
0.690481
0.690417
0.690357
0.690292
0.690239
0.690179
0.6901
0.689997
0.689905
0.689815
0.689716
0.689608
0.689489
0.689356
0.689214
0.689057
0.688888
0.688711
0.688542
0.688397
0.688264
0.688116
0.68794
0.687746
0.687522
0.687262
0.686981
0.686708
0.686466
0.686254
0.686014
0.6858
0.685568
0.685222
0.684736
0.684554
0.685332
0.688015
0.696101
0.710829
0.739303
0.774467
0.815886
0.8587
0.884228
0.910742
0.917003
0.925438
0.931777
0.939702
0.940695
0.94003
0.938049
0.935142
0.934673
0.935566
0.937135
0.937241
0.936815
0.935903
0.93545
0.935735
0.936117
0.935749
0.935598
0.935996
0.936059
0.935736
0.935601
0.935666
0.935776
0.935952
0.936543
0.938067
0.942187
0.952295
0.972181
1.00064
1.02745
1.04071
1.0439
1.05078
0.691584
0.691547
0.691502
0.691449
0.691401
0.69135
0.691293
0.69123
0.691166
0.691101
0.691025
0.690962
0.690926
0.690885
0.690827
0.690763
0.690694
0.690636
0.690603
0.690577
0.690545
0.690509
0.690468
0.690398
0.690304
0.69016
0.690058
0.689986
0.689893
0.689775
0.689646
0.689512
0.689368
0.689204
0.689039
0.688883
0.688735
0.688601
0.688461
0.688293
0.688086
0.687852
0.687605
0.687312
0.687003
0.68668
0.686449
0.686254
0.686026
0.685799
0.685539
0.685255
0.684878
0.684552
0.684013
0.683697
0.684016
0.685311
0.690017
0.69986
0.722329
0.753147
0.797194
0.84345
0.879263
0.914964
0.926442
0.93595
0.936385
0.934496
0.931882
0.933202
0.935634
0.937687
0.937464
0.936728
0.935406
0.934962
0.935758
0.936324
0.935989
0.935428
0.935623
0.936185
0.936281
0.935665
0.935478
0.935712
0.935842
0.935893
0.936389
0.937893
0.941954
0.951946
0.971387
0.999746
1.02724
1.04093
1.04418
1.05116
0.691493
0.691453
0.691413
0.691372
0.691323
0.69127
0.691222
0.69117
0.691119
0.691068
0.691002
0.690953
0.690934
0.690909
0.690859
0.690799
0.690768
0.69075
0.690739
0.690736
0.690743
0.690728
0.69066
0.690541
0.690393
0.69023
0.690163
0.690116
0.690029
0.689892
0.689746
0.689631
0.689511
0.689367
0.689228
0.689104
0.688987
0.688865
0.688724
0.688548
0.68832
0.688059
0.68779
0.687503
0.687196
0.686813
0.686554
0.686393
0.686181
0.685914
0.685619
0.685302
0.684928
0.684459
0.684009
0.683847
0.68367
0.683465
0.683275
0.683748
0.686204
0.692679
0.710434
0.737188
0.780226
0.827506
0.863458
0.89851
0.908279
0.918971
0.926911
0.93721
0.939268
0.93829
0.936161
0.934212
0.934017
0.935602
0.93656
0.936204
0.935537
0.93529
0.935943
0.936406
0.936195
0.935454
0.9354
0.935748
0.935849
0.935818
0.936267
0.937736
0.941718
0.951577
0.97099
0.998865
1.02682
1.04073
1.0446
1.05189
0.691438
0.691385
0.691335
0.691286
0.69124
0.691209
0.691184
0.691154
0.691118
0.691088
0.691058
0.691011
0.690976
0.690947
0.690903
0.690857
0.690838
0.690821
0.690805
0.690799
0.690787
0.69073
0.690611
0.690459
0.690285
0.6902
0.690163
0.690121
0.690051
0.68992
0.689771
0.689665
0.689572
0.689466
0.689372
0.689288
0.689199
0.689086
0.688943
0.688755
0.68852
0.688253
0.687984
0.687743
0.687501
0.687143
0.68679
0.686579
0.686356
0.686052
0.685714
0.685373
0.68501
0.684577
0.68411
0.68392
0.683799
0.683614
0.683384
0.682978
0.682429
0.682547
0.683906
0.688338
0.702384
0.72593
0.768575
0.816671
0.859915
0.903715
0.920345
0.932125
0.934755
0.930373
0.931134
0.93295
0.935542
0.936728
0.936368
0.935074
0.934668
0.935638
0.936466
0.936536
0.935782
0.935153
0.935476
0.935772
0.935741
0.935707
0.936205
0.937653
0.941471
0.95117
0.970757
0.998398
1.02603
1.04013
1.04514
1.05304
0.691538
0.691508
0.691479
0.691444
0.69141
0.691382
0.691345
0.691284
0.691235
0.691212
0.691184
0.691144
0.69109
0.691042
0.691003
0.690959
0.690927
0.690907
0.690885
0.690847
0.690769
0.690643
0.690487
0.690277
0.690182
0.690156
0.690123
0.690055
0.689981
0.689907
0.689812
0.68968
0.689544
0.689502
0.689499
0.689449
0.689337
0.6892
0.689045
0.688862
0.688655
0.688418
0.688173
0.687963
0.687767
0.687496
0.687143
0.68683
0.686528
0.68617
0.685803
0.68545
0.685083
0.684675
0.684244
0.684031
0.68388
0.683666
0.683362
0.682983
0.682512
0.681983
0.681573
0.681525
0.682339
0.685551
0.697308
0.718654
0.760294
0.808615
0.851411
0.889349
0.906018
0.914199
0.929833
0.936677
0.937375
0.93626
0.933727
0.933356
0.935075
0.936739
0.9369
0.936237
0.935055
0.935037
0.935572
0.935725
0.93558
0.935623
0.936194
0.93755
0.941148
0.950698
0.970556
0.997921
1.02488
1.03904
1.04463
1.0529
0.691642
0.691596
0.69156
0.691535
0.691512
0.691485
0.691431
0.691357
0.69133
0.691313
0.691281
0.691235
0.691189
0.691149
0.691114
0.691083
0.691051
0.69101
0.690954
0.690858
0.69071
0.690525
0.690275
0.690162
0.690144
0.690135
0.6901
0.689986
0.689912
0.689909
0.689892
0.689771
0.689602
0.689561
0.689586
0.689566
0.689461
0.689304
0.68914
0.688965
0.688768
0.688546
0.688325
0.688131
0.687949
0.687719
0.687405
0.687054
0.686673
0.686244
0.685827
0.685456
0.685093
0.684716
0.684323
0.684061
0.683872
0.683636
0.683293
0.682913
0.682489
0.682037
0.681618
0.68127
0.680872
0.680593
0.681182
0.683792
0.694135
0.714205
0.755942
0.803802
0.855504
0.894647
0.923053
0.930432
0.933046
0.928287
0.929158
0.933567
0.936871
0.937113
0.936484
0.93487
0.934453
0.935407
0.935646
0.93547
0.93538
0.935582
0.936177
0.937373
0.940741
0.950063
0.970189
0.997604
1.02409
1.03809
1.04418
1.05289
0.691769
0.691712
0.691679
0.69167
0.691659
0.691636
0.6916
0.691564
0.691528
0.69149
0.691436
0.691366
0.691335
0.691318
0.691298
0.691273
0.691234
0.691161
0.691043
0.690881
0.690692
0.690475
0.690306
0.69027
0.690258
0.690241
0.690207
0.690117
0.69
0.689974
0.689989
0.689937
0.689762
0.689698
0.689712
0.689679
0.689547
0.689361
0.689181
0.688999
0.6888
0.688594
0.688405
0.68822
0.688021
0.68778
0.68747
0.687114
0.686718
0.686279
0.685847
0.685463
0.685082
0.6847
0.684311
0.684016
0.683804
0.683558
0.683223
0.682845
0.682471
0.682051
0.681635
0.681226
0.680822
0.680478
0.680035
0.679685
0.680146
0.682469
0.691943
0.712652
0.753577
0.803897
0.856225
0.883282
0.908156
0.91603
0.929795
0.938059
0.937623
0.935968
0.933749
0.933975
0.935411
0.935942
0.935459
0.934931
0.93505
0.935627
0.936106
0.937125
0.940276
0.949272
0.969153
0.997459
1.02365
1.03745
1.04381
1.0529
0.692
0.691984
0.691968
0.691943
0.691897
0.691846
0.691828
0.691818
0.691797
0.691752
0.691691
0.691614
0.691572
0.691562
0.691564
0.69156
0.691515
0.691384
0.691205
0.691021
0.690832
0.690665
0.690609
0.690596
0.690579
0.690535
0.690461
0.690387
0.690263
0.69018
0.690176
0.690139
0.689957
0.689851
0.689837
0.689771
0.689605
0.689395
0.689201
0.689004
0.688796
0.688597
0.688428
0.688251
0.688038
0.687777
0.687454
0.687086
0.686691
0.686281
0.685871
0.68548
0.685071
0.684679
0.684312
0.68401
0.683748
0.683472
0.683148
0.682793
0.682434
0.682057
0.681645
0.681175
0.680731
0.680371
0.680049
0.679631
0.679082
0.678342
0.678611
0.680951
0.689822
0.714476
0.753093
0.808319
0.86432
0.901614
0.92551
0.933508
0.93198
0.928832
0.931608
0.93547
0.936759
0.93582
0.934293
0.934334
0.93558
0.93572
0.935862
0.936759
0.939794
0.948361
0.968127
0.996962
1.02351
1.0372
1.04371
1.0529
0.692269
0.692222
0.692182
0.692166
0.692159
0.692159
0.692162
0.692143
0.6921
0.692039
0.691961
0.691868
0.69183
0.691823
0.691826
0.691818
0.69176
0.691632
0.691462
0.691258
0.691071
0.691027
0.691023
0.691016
0.69099
0.690927
0.690822
0.690737
0.690655
0.690512
0.690426
0.690363
0.690221
0.690017
0.689893
0.689777
0.689615
0.689412
0.689194
0.688962
0.688752
0.688593
0.688451
0.688274
0.688037
0.687747
0.687409
0.687028
0.68663
0.686262
0.685921
0.685576
0.685178
0.684762
0.684353
0.684
0.68369
0.683368
0.683025
0.682719
0.682437
0.682126
0.681739
0.681276
0.680707
0.680264
0.679986
0.679606
0.679084
0.678495
0.677888
0.677091
0.677387
0.680231
0.689615
0.716946
0.758872
0.813659
0.868353
0.892529
0.911941
0.922622
0.936913
0.938081
0.936151
0.932971
0.933323
0.935238
0.936417
0.935665
0.935451
0.936403
0.93938
0.947482
0.9671
0.996815
1.02364
1.03763
1.04379
1.05294
0.69244
0.692357
0.69234
0.692336
0.692331
0.692324
0.692324
0.692316
0.692281
0.69222
0.692135
0.692009
0.691951
0.691942
0.691941
0.691917
0.691838
0.691719
0.691576
0.691409
0.691322
0.691304
0.691307
0.691306
0.69128
0.691222
0.691137
0.691045
0.690951
0.690796
0.690626
0.690486
0.690322
0.690118
0.689938
0.689776
0.689599
0.689393
0.689151
0.688901
0.688716
0.68859
0.688463
0.688284
0.688026
0.687712
0.68737
0.686995
0.686628
0.686291
0.686019
0.685737
0.685373
0.684954
0.684487
0.684011
0.683609
0.68325
0.682885
0.682636
0.68244
0.682168
0.681757
0.681254
0.680674
0.680183
0.679908
0.679553
0.679047
0.678461
0.677965
0.677467
0.676744
0.676141
0.676527
0.680198
0.690936
0.721965
0.76797
0.824109
0.884239
0.913732
0.931996
0.933221
0.927187
0.929713
0.934502
0.937096
0.936254
0.934836
0.934981
0.936041
0.938728
0.946621
0.967051
0.996958
1.02365
1.03713
1.04389
1.05314
0.69246
0.692368
0.692359
0.692359
0.692353
0.692346
0.692345
0.692341
0.692314
0.692261
0.69218
0.692043
0.691974
0.691966
0.691957
0.691909
0.691811
0.691699
0.691566
0.691466
0.691436
0.691427
0.691431
0.691438
0.691415
0.691357
0.691276
0.691174
0.691063
0.69092
0.690747
0.690561
0.690351
0.690122
0.689936
0.689773
0.689592
0.689377
0.689142
0.688907
0.688702
0.68856
0.688435
0.688258
0.687997
0.687683
0.687362
0.687026
0.686714
0.686373
0.68609
0.685877
0.685597
0.685232
0.684765
0.684163
0.683599
0.683136
0.682723
0.682533
0.682408
0.682169
0.681754
0.681195
0.680512
0.68012
0.679862
0.679479
0.678899
0.678255
0.677936
0.677599
0.676998
0.676414
0.675877
0.67546
0.67604
0.680553
0.69348
0.730076
0.781045
0.836583
0.8846
0.906297
0.915975
0.933897
0.93773
0.936777
0.933952
0.93429
0.935525
0.936385
0.938326
0.945753
0.966434
0.996197
1.02288
1.03703
1.0443
1.05343
0.692452
0.692343
0.692322
0.692316
0.692313
0.692313
0.692318
0.692311
0.692276
0.692213
0.692138
0.692044
0.691941
0.691899
0.691878
0.69184
0.69176
0.691612
0.691482
0.691442
0.691429
0.691424
0.691417
0.69142
0.691424
0.691386
0.691294
0.691181
0.691066
0.690946
0.690803
0.690615
0.690374
0.690067
0.689894
0.689776
0.689608
0.689379
0.689144
0.688904
0.68866
0.688496
0.688376
0.688206
0.687963
0.687678
0.687382
0.68707
0.686797
0.686468
0.686118
0.68595
0.685775
0.685469
0.684989
0.684381
0.683723
0.682968
0.682554
0.682454
0.682374
0.682146
0.681703
0.681127
0.680503
0.68016
0.679916
0.679517
0.678674
0.67809
0.677904
0.677654
0.677053
0.676407
0.675925
0.675648
0.675113
0.674742
0.675569
0.681907
0.699151
0.742332
0.797636
0.862486
0.904155
0.92928
0.93221
0.930007
0.931013
0.933896
0.936333
0.936241
0.937448
0.945576
0.965299
0.994361
1.02207
1.03762
1.04518
1.05369
0.692448
0.69238
0.692308
0.692224
0.692189
0.692195
0.692202
0.692184
0.692133
0.69207
0.692
0.691927
0.691853
0.69175
0.691669
0.691618
0.691523
0.69138
0.691333
0.691323
0.691321
0.691343
0.691351
0.691338
0.691341
0.691322
0.691235
0.69111
0.690993
0.690897
0.690786
0.690635
0.690448
0.69015
0.689989
0.689925
0.68981
0.689583
0.689324
0.689142
0.688982
0.688832
0.688683
0.688468
0.688137
0.687729
0.687403
0.687114
0.686848
0.686514
0.686123
0.685955
0.68582
0.685545
0.685068
0.684476
0.683747
0.682819
0.682427
0.682347
0.682287
0.682086
0.68165
0.681052
0.680428
0.680059
0.679813
0.679385
0.678526
0.678033
0.677854
0.677663
0.677068
0.676376
0.675906
0.675622
0.67521
0.674408
0.673711
0.673893
0.675762
0.684749
0.709848
0.758556
0.820985
0.878381
0.89693
0.918085
0.931685
0.937441
0.936089
0.933701
0.935544
0.944925
0.963377
0.991985
1.02181
1.03865
1.04595
1.05363
0.692413
0.692336
0.692263
0.692215
0.692173
0.692143
0.692149
0.692151
0.692129
0.692065
0.691961
0.691848
0.691744
0.691649
0.691556
0.691469
0.691335
0.691214
0.691192
0.691191
0.691195
0.691209
0.691219
0.691215
0.69123
0.691237
0.691165
0.691021
0.690908
0.690852
0.690785
0.690693
0.69056
0.690321
0.690129
0.69007
0.690007
0.689849
0.68953
0.6894
0.68937
0.689285
0.689133
0.688901
0.688575
0.688182
0.687755
0.687294
0.686897
0.686476
0.686014
0.685842
0.685759
0.685534
0.685069
0.684444
0.68377
0.683096
0.682512
0.68232
0.682187
0.681957
0.681517
0.680875
0.6804
0.680188
0.679956
0.679489
0.678524
0.677961
0.677758
0.677561
0.676959
0.67627
0.675822
0.675543
0.675124
0.674429
0.673613
0.673138
0.672812
0.673269
0.676789
0.689751
0.727945
0.782188
0.844385
0.90465
0.924149
0.934493
0.928219
0.928336
0.934136
0.943039
0.95904
0.989274
1.02164
1.03966
1.04648
1.05362
0.692628
0.692558
0.692498
0.692412
0.692376
0.692383
0.692377
0.692316
0.692301
0.692308
0.692261
0.692133
0.691942
0.691806
0.691725
0.691639
0.691513
0.691341
0.69125
0.691235
0.691231
0.691219
0.691173
0.691136
0.691123
0.691129
0.691101
0.691038
0.690962
0.690885
0.69082
0.690756
0.690662
0.6905
0.690235
0.690083
0.69002
0.689904
0.689636
0.689479
0.689474
0.689442
0.689315
0.689101
0.688819
0.688479
0.68805
0.687529
0.687011
0.68638
0.685769
0.685601
0.685572
0.685449
0.685042
0.684395
0.683702
0.68318
0.682761
0.682324
0.682124
0.681897
0.681376
0.680636
0.680312
0.680151
0.67991
0.6794
0.67836
0.677714
0.677485
0.677272
0.676677
0.676019
0.67564
0.675421
0.674988
0.674345
0.673731
0.673347
0.673048
0.672634
0.672539
0.673581
0.680207
0.700165
0.748701
0.81109
0.860693
0.906104
0.914717
0.927657
0.934233
0.938324
0.95542
0.988527
1.02166
1.03839
1.04621
1.05387
0.693328
0.69325
0.693163
0.693124
0.693121
0.693143
0.693151
0.693109
0.693099
0.693129
0.6931
0.692976
0.692776
0.692591
0.692456
0.692338
0.692201
0.692037
0.691969
0.691937
0.691896
0.691841
0.691768
0.691686
0.691614
0.691545
0.691421
0.691283
0.691182
0.691078
0.690957
0.690838
0.690724
0.690598
0.690402
0.690099
0.689953
0.689847
0.689634
0.689451
0.689405
0.689376
0.689272
0.689081
0.688857
0.688602
0.688234
0.687743
0.687208
0.686464
0.685622
0.6854
0.685356
0.685324
0.685035
0.684361
0.683606
0.683216
0.683011
0.682766
0.682391
0.681988
0.681503
0.680758
0.680339
0.680139
0.67987
0.679337
0.678386
0.677818
0.677611
0.677336
0.676691
0.67607
0.675738
0.675472
0.674923
0.674196
0.673625
0.673295
0.673018
0.672663
0.672331
0.672081
0.672381
0.674697
0.68671
0.715761
0.775396
0.846579
0.895277
0.92543
0.928761
0.931466
0.95277
0.989752
1.01881
1.03668
1.04649
1.05448
0.693694
0.693559
0.693541
0.693539
0.693557
0.693583
0.69356
0.693523
0.693538
0.693556
0.693507
0.693372
0.693218
0.693061
0.692933
0.692804
0.692654
0.69248
0.692331
0.692188
0.692076
0.692002
0.69192
0.691808
0.691741
0.691692
0.691613
0.691477
0.691299
0.691139
0.691006
0.690876
0.690751
0.690619
0.690427
0.690057
0.689715
0.6896
0.689457
0.689275
0.689173
0.689158
0.689122
0.688988
0.688836
0.688663
0.688383
0.687955
0.687443
0.686823
0.686054
0.685418
0.68525
0.685201
0.685038
0.684515
0.683794
0.683306
0.683056
0.682802
0.682421
0.681958
0.681446
0.680753
0.680234
0.679992
0.679693
0.679143
0.678221
0.677733
0.677578
0.677299
0.676607
0.676016
0.675713
0.675421
0.674858
0.673946
0.673311
0.673016
0.672836
0.672588
0.672196
0.671848
0.671521
0.671437
0.672427
0.677436
0.698167
0.73968
0.80449
0.874886
0.896245
0.918579
0.958096
0.990275
1.01399
1.03663
1.04803
1.05551
0.693741
0.693572
0.693534
0.69353
0.693558
0.693584
0.693545
0.693496
0.693504
0.693505
0.693445
0.693313
0.69318
0.693053
0.69293
0.692794
0.692627
0.692447
0.692273
0.692097
0.691967
0.691894
0.691826
0.691712
0.691656
0.691646
0.691608
0.691499
0.691316
0.691124
0.690982
0.690856
0.690724
0.690558
0.690307
0.68991
0.689425
0.689124
0.689054
0.688955
0.688799
0.688756
0.688753
0.688738
0.688745
0.688701
0.688534
0.68819
0.687698
0.687138
0.686664
0.686265
0.685931
0.685657
0.685325
0.684775
0.684046
0.683373
0.682979
0.68267
0.682296
0.681819
0.681288
0.680675
0.680037
0.679695
0.67939
0.678824
0.678046
0.677688
0.677577
0.677321
0.676599
0.675981
0.675665
0.675317
0.674741
0.674014
0.673287
0.672796
0.67256
0.672243
0.671841
0.671624
0.671442
0.671178
0.671135
0.671521
0.674089
0.683476
0.717358
0.772263
0.836556
0.900181
0.946138
0.971409
1.00771
1.04033
1.04979
1.0561
0.692849
0.692744
0.692665
0.692646
0.692639
0.692659
0.69268
0.692656
0.692577
0.692518
0.692522
0.692515
0.692425
0.692358
0.692332
0.692266
0.692132
0.691995
0.691875
0.691738
0.691606
0.691516
0.691435
0.691387
0.691387
0.691409
0.691406
0.691302
0.69116
0.691156
0.691219
0.691237
0.691185
0.691028
0.690747
0.690339
0.689859
0.689412
0.689007
0.688763
0.68868
0.688644
0.688638
0.688656
0.68869
0.688747
0.688655
0.688319
0.68778
0.687199
0.686806
0.686546
0.686299
0.686001
0.685565
0.684944
0.684221
0.683413
0.682722
0.682286
0.681953
0.681581
0.681114
0.680508
0.679849
0.679524
0.679294
0.678793
0.678111
0.677757
0.677595
0.677312
0.676598
0.675918
0.675534
0.67511
0.674518
0.67386
0.673055
0.672428
0.672095
0.671753
0.671549
0.671466
0.671416
0.671353
0.671211
0.671106
0.671226
0.672038
0.677619
0.695169
0.744212
0.812365
0.871334
0.938111
1.01106
1.04604
1.05093
1.05743
0.691822
0.691827
0.691855
0.691862
0.69183
0.691749
0.691706
0.691699
0.691725
0.69176
0.691774
0.691761
0.691731
0.691739
0.691762
0.691704
0.691519
0.691342
0.69129
0.691271
0.691228
0.6911
0.690999
0.690994
0.69103
0.691123
0.691274
0.691476
0.691686
0.69185
0.691955
0.692047
0.69205
0.691891
0.691592
0.691221
0.6909
0.690587
0.690207
0.689845
0.689589
0.689376
0.689129
0.68887
0.688772
0.688728
0.688617
0.688276
0.687652
0.687011
0.686683
0.686475
0.686266
0.685972
0.685534
0.684957
0.684239
0.683389
0.682452
0.681768
0.681504
0.681285
0.680943
0.680274
0.679706
0.67953
0.679405
0.679029
0.678308
0.677834
0.677569
0.677208
0.676533
0.675778
0.675177
0.674626
0.673984
0.673275
0.672472
0.671993
0.671775
0.671623
0.671504
0.671469
0.671522
0.671469
0.671296
0.671094
0.670898
0.670749
0.670912
0.672953
0.68558
0.716541
0.782626
0.8854
0.99467
1.02616
1.04503
1.05916
0.692472
0.692475
0.692495
0.692504
0.692496
0.692512
0.692539
0.69259
0.692648
0.692651
0.692679
0.692748
0.692727
0.692603
0.692514
0.692424
0.692233
0.691905
0.69173
0.691589
0.691397
0.691354
0.691368
0.69151
0.691869
0.691975
0.691911
0.691921
0.692068
0.692143
0.69214
0.692181
0.69212
0.691901
0.691587
0.691205
0.690917
0.690615
0.69022
0.690011
0.689891
0.689666
0.689246
0.688767
0.688529
0.688374
0.688092
0.687595
0.686846
0.686137
0.685885
0.685752
0.685587
0.685364
0.685089
0.684788
0.684296
0.683397
0.682146
0.681547
0.681364
0.681265
0.681031
0.68044
0.679893
0.67966
0.679441
0.679008
0.678345
0.677724
0.677264
0.676731
0.676052
0.675284
0.6746
0.673956
0.67334
0.672674
0.672192
0.671947
0.67182
0.671673
0.671506
0.671389
0.671469
0.671358
0.671113
0.670902
0.670738
0.670653
0.670811
0.670936
0.672231
0.678491
0.705333
0.774561
0.887565
0.982371
1.04531
1.06182
0.695952
0.695952
0.695937
0.695941
0.695971
0.695972
0.695911
0.695697
0.695235
0.694987
0.694969
0.694883
0.694618
0.694365
0.694248
0.694086
0.693857
0.693714
0.69353
0.693167
0.692782
0.692511
0.692366
0.692357
0.692379
0.692324
0.692249
0.692212
0.69205
0.691689
0.691188
0.690696
0.690333
0.690122
0.690021
0.690031
0.690024
0.689902
0.68984
0.689826
0.689756
0.689547
0.689136
0.688532
0.688016
0.687659
0.687269
0.686585
0.685661
0.685334
0.685272
0.685223
0.685045
0.684808
0.684652
0.684278
0.684107
0.683767
0.682942
0.682511
0.682351
0.682186
0.68184
0.680999
0.67999
0.679555
0.679154
0.678621
0.677965
0.67725
0.676516
0.675725
0.674982
0.674434
0.673928
0.673387
0.672838
0.672203
0.671663
0.671445
0.671381
0.671317
0.671222
0.671159
0.67109
0.670824
0.670653
0.670524
0.670464
0.67045
0.670704
0.671009
0.671626
0.672715
0.678504
0.703004
0.778238
0.91794
1.02528
1.05421
0.69729
0.697103
0.696898
0.696661
0.696436
0.69618
0.695827
0.695356
0.694671
0.694123
0.693826
0.693662
0.693673
0.693693
0.693678
0.693533
0.693461