/*--------------------------------*- C++ -*----------------------------------*\
  =========                 |
  \\      /  F ield         | OpenFOAM: The Open Source CFD Toolbox
   \\    /   O peration     | Website:  https://openfoam.org
    \\  /    A nd           | Version:  7
     \\/     M anipulation  |
\*---------------------------------------------------------------------------*/
FoamFile
{
    version     2.0;
    format      ascii;
    class       volScalarField;
    location    "5";
    object      rho;
}
// * * * * * * * * * * * * * * * * * * * * * * * * * * * * * * * * * * * * * //

dimensions      [1 -3 0 0 0 0 0];

internalField   nonuniform List<scalar> 
90000
(
1.12559
1.13492
1.14509
1.15606
1.16601
1.17525
1.18499
1.19412
1.20306
1.21164
1.2219
1.23243
1.24431
1.25657
1.26962
1.28249
1.29553
1.30785
1.31991
1.33119
1.34164
1.35131
1.35993
1.36754
1.37321
1.37931
1.38265
1.3841
1.38568
1.3857
1.38529
1.38388
1.3808
1.37648
1.36882
1.36231
1.3577
1.35643
1.35744
1.35957
1.36231
1.36369
1.36519
1.36683
1.36805
1.36839
1.3681
1.3667
1.36458
1.36295
1.36252
1.36284
1.36379
1.36538
1.36634
1.36739
1.36817
1.36801
1.36788
1.36742
1.36747
1.36792
1.36848
1.36917
1.36966
1.3702
1.37003
1.36976
1.36966
1.36966
1.36992
1.37036
1.37072
1.37042
1.3701
1.37023
1.3706
1.37094
1.37092
1.37074
1.37078
1.37102
1.37139
1.37156
1.37149
1.37147
1.3716
1.37186
1.3722
1.37256
1.373
1.37345
1.37373
1.37374
1.37369
1.37356
1.37359
1.37371
1.37393
1.374
1.11869
1.11967
1.12128
1.1239
1.12742
1.13148
1.13626
1.14205
1.14836
1.1553
1.16279
1.171
1.17956
1.18904
1.19903
1.20997
1.22138
1.23346
1.24592
1.25873
1.27164
1.28469
1.29723
1.30957
1.32168
1.33182
1.343
1.35102
1.35877
1.36414
1.36912
1.3717
1.37309
1.37487
1.37872
1.38059
1.38053
1.37918
1.37679
1.37378
1.37069
1.36829
1.36658
1.36664
1.36711
1.368
1.36904
1.37036
1.37203
1.37241
1.3719
1.37048
1.36881
1.36711
1.36638
1.36674
1.36839
1.37067
1.37321
1.37314
1.37239
1.371
1.36972
1.36994
1.37121
1.37285
1.3732
1.37266
1.3717
1.37095
1.37137
1.37239
1.37284
1.37255
1.37187
1.37175
1.37207
1.37257
1.37253
1.37235
1.37234
1.37244
1.37274
1.37276
1.37271
1.37275
1.37284
1.37302
1.37328
1.3736
1.37401
1.37433
1.37455
1.37475
1.37471
1.37459
1.37456
1.37457
1.37472
1.37476
1.11906
1.11909
1.11913
1.11919
1.11931
1.1195
1.1198
1.12029
1.121
1.12199
1.1233
1.12504
1.12722
1.12996
1.13329
1.13744
1.14231
1.14841
1.15536
1.16395
1.17351
1.18494
1.19738
1.21165
1.22679
1.24341
1.26055
1.27839
1.29634
1.31336
1.33023
1.34471
1.35911
1.36909
1.3768
1.38056
1.38241
1.38244
1.38245
1.38157
1.37955
1.37682
1.37292
1.37019
1.37078
1.37195
1.37364
1.37546
1.37756
1.37755
1.37682
1.37519
1.37326
1.37108
1.37029
1.37101
1.37263
1.37471
1.37632
1.37715
1.37676
1.37547
1.37464
1.37475
1.3753
1.37613
1.37651
1.37625
1.37572
1.37517
1.37529
1.37564
1.37586
1.37573
1.37539
1.37505
1.3751
1.37528
1.37532
1.37529
1.37519
1.37519
1.3753
1.37546
1.37544
1.37533
1.37523
1.37531
1.37555
1.37591
1.37634
1.37656
1.37681
1.37675
1.37663
1.37649
1.37637
1.37636
1.37648
1.37648
1.12033
1.12032
1.12032
1.12032
1.12033
1.12034
1.12035
1.12039
1.12045
1.12051
1.12058
1.12066
1.12075
1.12092
1.12118
1.12157
1.12212
1.12289
1.12391
1.12533
1.12725
1.12993
1.13343
1.13827
1.14431
1.15247
1.16222
1.17487
1.18911
1.20665
1.2255
1.24646
1.2688
1.28998
1.31146
1.32834
1.34439
1.35454
1.36381
1.36806
1.3716
1.37242
1.37563
1.37903
1.38161
1.38268
1.38279
1.38231
1.38177
1.38065
1.37925
1.37808
1.37718
1.37727
1.37766
1.37833
1.37854
1.37861
1.3785
1.37881
1.37928
1.38001
1.38087
1.38059
1.37991
1.37909
1.37913
1.37943
1.38009
1.38006
1.37977
1.37934
1.37921
1.37935
1.37935
1.37909
1.37875
1.37867
1.37881
1.37892
1.37886
1.37872
1.37868
1.37871
1.37866
1.37854
1.3784
1.37843
1.37859
1.37887
1.37919
1.3793
1.3794
1.37938
1.37934
1.37926
1.37911
1.37897
1.37901
1.37889
1.12177
1.12178
1.12179
1.12181
1.12182
1.12183
1.12182
1.12181
1.12179
1.12179
1.12179
1.12179
1.12182
1.12182
1.12183
1.12187
1.12193
1.122
1.12206
1.12212
1.12222
1.12236
1.12257
1.12297
1.12362
1.12461
1.12607
1.12837
1.13163
1.13667
1.14338
1.15335
1.16561
1.18257
1.20185
1.22566
1.25069
1.27675
1.30251
1.32395
1.34478
1.35939
1.37199
1.3772
1.38035
1.38153
1.38174
1.38135
1.38001
1.37743
1.37789
1.37935
1.38166
1.38401
1.38487
1.38435
1.3827
1.38093
1.37964
1.37973
1.38048
1.38221
1.38364
1.38411
1.38371
1.38268
1.38172
1.38204
1.38276
1.38329
1.38313
1.38249
1.38206
1.38219
1.38248
1.38245
1.38212
1.38179
1.38185
1.38201
1.38202
1.38189
1.38176
1.38176
1.38172
1.38163
1.38144
1.38143
1.38154
1.38178
1.38203
1.38214
1.38224
1.3822
1.38213
1.38203
1.38185
1.38163
1.38163
1.38146
1.12298
1.12298
1.12299
1.123
1.12301
1.12302
1.12303
1.12304
1.12305
1.12306
1.12306
1.12306
1.12306
1.12306
1.12306
1.12306
1.12304
1.12302
1.123
1.123
1.12302
1.12305
1.12314
1.12315
1.12319
1.12322
1.12326
1.12333
1.12346
1.12372
1.12417
1.12516
1.12686
1.12994
1.13462
1.14259
1.15343
1.16997
1.1897
1.21535
1.24276
1.27161
1.29994
1.32145
1.34173
1.35234
1.36257
1.36731
1.37098
1.3747
1.3808
1.38495
1.38822
1.38845
1.38807
1.38664
1.38439
1.38255
1.38102
1.38145
1.38253
1.38381
1.38416
1.38405
1.38373
1.38383
1.38421
1.38484
1.38488
1.38485
1.38456
1.38418
1.38404
1.3841
1.38427
1.3842
1.38401
1.38378
1.38383
1.38391
1.38399
1.38394
1.38387
1.38382
1.38378
1.38372
1.38361
1.38361
1.38373
1.38391
1.38407
1.38416
1.38424
1.38423
1.38425
1.38423
1.38411
1.38391
1.38384
1.38362
1.12374
1.12374
1.12375
1.12375
1.12376
1.12376
1.12377
1.12378
1.12378
1.12379
1.12379
1.1238
1.1238
1.1238
1.12381
1.12382
1.12382
1.12382
1.12382
1.12381
1.1238
1.1238
1.12379
1.12377
1.12376
1.12375
1.12375
1.12376
1.12379
1.12385
1.12404
1.12402
1.12403
1.1241
1.12427
1.12467
1.12564
1.1278
1.13158
1.13888
1.1496
1.16716
1.1887
1.2176
1.24838
1.27969
1.31005
1.33299
1.35534
1.36856
1.37696
1.38079
1.38442
1.38516
1.38376
1.38063
1.3812
1.38281
1.38467
1.38619
1.38587
1.38451
1.38345
1.38291
1.38315
1.38405
1.38534
1.38619
1.38595
1.38537
1.38489
1.385
1.38528
1.38531
1.38525
1.38512
1.385
1.38502
1.38503
1.38499
1.385
1.38507
1.38508
1.38503
1.38497
1.38497
1.38495
1.38498
1.38508
1.38519
1.38529
1.3854
1.38548
1.38559
1.38568
1.38571
1.38562
1.38543
1.38532
1.38509
1.12412
1.12412
1.12412
1.12413
1.12413
1.12413
1.12413
1.12414
1.12414
1.12414
1.12414
1.12414
1.12414
1.12414
1.12415
1.12415
1.12415
1.12415
1.12415
1.12416
1.12416
1.12416
1.12416
1.12416
1.12416
1.12416
1.12415
1.12414
1.12414
1.12413
1.12413
1.12415
1.12418
1.12422
1.12428
1.12444
1.12443
1.12446
1.12455
1.12485
1.12566
1.12776
1.13176
1.14009
1.15266
1.17384
1.19947
1.23202
1.26607
1.29639
1.32486
1.34096
1.35652
1.36368
1.36966
1.37532
1.3832
1.38816
1.38998
1.38952
1.38759
1.38457
1.38218
1.38221
1.38327
1.38481
1.38599
1.38586
1.38561
1.38515
1.38524
1.38567
1.3859
1.38567
1.38534
1.38537
1.38551
1.38569
1.38563
1.3854
1.38536
1.38545
1.38563
1.38561
1.38554
1.38555
1.38563
1.3858
1.38583
1.38584
1.38585
1.38592
1.38605
1.38622
1.38643
1.38654
1.3865
1.38637
1.38622
1.38599
1.12429
1.12429
1.12429
1.12429
1.12429
1.12429
1.12429
1.12429
1.12429
1.12429
1.12429
1.12429
1.12429
1.12429
1.1243
1.1243
1.1243
1.1243
1.1243
1.1243
1.12431
1.12431
1.12431
1.12432
1.12432
1.12433
1.12433
1.12434
1.12435
1.12436
1.12436
1.12436
1.12438
1.12439
1.12441
1.12444
1.12449
1.12455
1.12462
1.12478
1.12477
1.1248
1.12493
1.12531
1.12641
1.12936
1.135
1.14687
1.16403
1.19171
1.22356
1.2601
1.29597
1.32412
1.3522
1.36797
1.37826
1.38267
1.38591
1.38445
1.38055
1.38097
1.38212
1.384
1.38581
1.38564
1.38516
1.38413
1.38431
1.38487
1.38594
1.38646
1.38624
1.38578
1.38536
1.38552
1.38585
1.38606
1.38593
1.38567
1.38555
1.38566
1.38581
1.38591
1.38587
1.38591
1.38605
1.38623
1.38622
1.38617
1.3861
1.38613
1.38627
1.38654
1.38678
1.387
1.38697
1.38688
1.38673
1.38648
1.12436
1.12436
1.12436
1.12436
1.12436
1.12436
1.12436
1.12437
1.12437
1.12437
1.12437
1.12437
1.12437
1.12437
1.12438
1.12438
1.12438
1.12439
1.12439
1.1244
1.12441
1.12441
1.12442
1.12443
1.12444
1.12446
1.12447
1.12449
1.12451
1.12452
1.12454
1.12456
1.12459
1.1246
1.12462
1.12464
1.12466
1.12469
1.12472
1.12475
1.12482
1.12489
1.12498
1.12513
1.12516
1.12525
1.12552
1.12639
1.12848
1.13388
1.1436
1.16298
1.18844
1.22396
1.26199
1.29589
1.32813
1.34375
1.36091
1.36671
1.3754
1.3818
1.38781
1.38863
1.38802
1.3861
1.38244
1.3826
1.38358
1.38545
1.38663
1.38628
1.38555
1.3854
1.38563
1.38618
1.38623
1.38608
1.38581
1.38578
1.38586
1.38593
1.3859
1.38595
1.38606
1.38622
1.38644
1.38649
1.38645
1.38636
1.38621
1.38621
1.38634
1.38664
1.38697
1.38723
1.38724
1.3872
1.38707
1.3868
1.12446
1.12446
1.12446
1.12446
1.12446
1.12446
1.12446
1.12447
1.12447
1.12448
1.12448
1.12448
1.12448
1.12449
1.12449
1.1245
1.12451
1.12452
1.12453
1.12454
1.12455
1.12457
1.12459
1.12461
1.12463
1.12465
1.12467
1.1247
1.12472
1.12475
1.12478
1.12481
1.12483
1.12485
1.12489
1.12491
1.12492
1.12493
1.12493
1.12493
1.12494
1.12496
1.12499
1.12503
1.12511
1.1252
1.12527
1.12536
1.12551
1.12583
1.12658
1.12883
1.13378
1.14564
1.16397
1.19528
1.23171
1.2722
1.31153
1.34017
1.3673
1.37659
1.3846
1.38461
1.38254
1.37994
1.38101
1.3834
1.38621
1.3865
1.38609
1.38463
1.38468
1.38532
1.38637
1.38669
1.38646
1.38593
1.38569
1.38595
1.38621
1.38614
1.386
1.38602
1.38623
1.38655
1.38667
1.38665
1.38659
1.38646
1.38629
1.38629
1.38641
1.38669
1.38704
1.38737
1.3874
1.3874
1.38732
1.38705
1.12464
1.12464
1.12464
1.12465
1.12465
1.12466
1.12466
1.12467
1.12467
1.12468
1.12469
1.12469
1.1247
1.12471
1.12472
1.12473
1.12475
1.12477
1.12478
1.1248
1.12482
1.12485
1.12487
1.12488
1.12491
1.12494
1.12496
1.12499
1.12502
1.12505
1.12508
1.1251
1.12512
1.12515
1.12517
1.12518
1.12518
1.12518
1.12517
1.12515
1.12513
1.12512
1.12511
1.12512
1.12514
1.12518
1.12523
1.12527
1.12532
1.12543
1.12555
1.12565
1.12593
1.12685
1.12926
1.13602
1.14854
1.17383
1.2061
1.24795
1.29092
1.32062
1.35007
1.35939
1.36819
1.37548
1.38471
1.38877
1.3885
1.38683
1.38334
1.3834
1.38457
1.38645
1.38698
1.38666
1.38596
1.38581
1.38614
1.38653
1.3864
1.38618
1.38611
1.38626
1.3866
1.38687
1.38686
1.38681
1.38673
1.38656
1.3864
1.38643
1.38656
1.38681
1.3871
1.38745
1.38756
1.38758
1.38754
1.38729
1.12495
1.12495
1.12495
1.12496
1.12497
1.12498
1.12498
1.12499
1.12501
1.12502
1.12502
1.12503
1.12504
1.12505
1.12507
1.12508
1.12511
1.12512
1.12514
1.12516
1.12518
1.12521
1.12521
1.12522
1.12525
1.12527
1.1253
1.12532
1.12535
1.12537
1.12539
1.1254
1.12543
1.12545
1.12545
1.12545
1.12545
1.12543
1.12541
1.12538
1.12534
1.12532
1.1253
1.12528
1.12528
1.12528
1.12531
1.12535
1.1254
1.12546
1.12554
1.12571
1.12574
1.12576
1.12584
1.12621
1.12732
1.13115
1.13944
1.15898
1.18698
1.22956
1.27518
1.31426
1.35287
1.36955
1.38005
1.38465
1.38316
1.37969
1.38109
1.38433
1.38747
1.38725
1.38668
1.38538
1.38548
1.3863
1.38694
1.38684
1.38649
1.38623
1.38637
1.38675
1.38697
1.38701
1.387
1.38697
1.38687
1.38668
1.38657
1.38662
1.38678
1.38695
1.38719
1.38748
1.38771
1.38778
1.38776
1.38754
1.12534
1.12534
1.12534
1.12535
1.12536
1.12536
1.12537
1.12538
1.12539
1.12539
1.1254
1.12541
1.12542
1.12543
1.12544
1.12545
1.12547
1.12549
1.1255
1.12552
1.12554
1.12555
1.12555
1.12556
1.12558
1.1256
1.12562
1.12565
1.12566
1.12568
1.12569
1.12572
1.12573
1.12574
1.12574
1.12574
1.12573
1.12571
1.12567
1.12563
1.12559
1.12555
1.12552
1.12549
1.12547
1.12547
1.12547
1.12549
1.12553
1.12559
1.12566
1.12577
1.12584
1.12587
1.12587
1.12584
1.12584
1.12595
1.12647
1.12863
1.13422
1.14944
1.17367
1.21482
1.26143
1.30161
1.33747
1.35316
1.36564
1.37379
1.38497
1.38953
1.38912
1.38716
1.38408
1.38436
1.38599
1.38752
1.38737
1.38661
1.38632
1.3866
1.38711
1.38735
1.38723
1.38716
1.38718
1.38716
1.387
1.38685
1.38685
1.38695
1.38706
1.38716
1.38733
1.38755
1.38783
1.38797
1.38799
1.38782
1.1257
1.1257
1.1257
1.1257
1.12571
1.12571
1.12572
1.12572
1.12572
1.12572
1.12573
1.12573
1.12574
1.12575
1.12575
1.12576
1.12578
1.12579
1.12579
1.1258
1.12582
1.12582
1.12582
1.12583
1.12585
1.12586
1.12588
1.1259
1.12591
1.12593
1.12595
1.12597
1.12599
1.126
1.12601
1.12601
1.126
1.12598
1.12595
1.12592
1.12589
1.12586
1.12582
1.12579
1.12575
1.12571
1.12571
1.12571
1.12574
1.12577
1.12582
1.1259
1.12597
1.12599
1.12598
1.12596
1.12594
1.12589
1.1258
1.12583
1.12609
1.12744
1.13145
1.14368
1.16514
1.20526
1.25231
1.29705
1.34272
1.36606
1.38022
1.38522
1.38348
1.38051
1.38233
1.38582
1.38817
1.38775
1.38646
1.38616
1.38659
1.38754
1.38769
1.38755
1.38736
1.38741
1.38742
1.38732
1.3871
1.38709
1.38718
1.3873
1.38732
1.38738
1.38751
1.38767
1.38791
1.38814
1.38824
1.38809
1.126
1.126
1.12599
1.12599
1.12599
1.12599
1.12599
1.12599
1.12599
1.12599
1.12599
1.12599
1.12599
1.12599
1.12599
1.126
1.126
1.12601
1.12601
1.12602
1.12602
1.12603
1.12603
1.12604
1.12606
1.12607
1.12608
1.1261
1.12612
1.12614
1.12616
1.12618
1.1262
1.12622
1.12624
1.12625
1.12624
1.12623
1.12623
1.12622
1.12621
1.12619
1.12617
1.12614
1.12609
1.12603
1.12599
1.12598
1.12598
1.12599
1.12601
1.12604
1.12608
1.12611
1.1261
1.12607
1.12605
1.126
1.12592
1.12582
1.12578
1.12581
1.126
1.12699
1.13012
1.14052
1.16002
1.19876
1.24617
1.29185
1.33391
1.35196
1.36625
1.37514
1.38702
1.3898
1.38876
1.38513
1.38524
1.38619
1.38781
1.38837
1.38799
1.38752
1.38762
1.38777
1.38762
1.38734
1.38726
1.38741
1.38757
1.38759
1.38757
1.38763
1.38772
1.3878
1.38798
1.38824
1.38845
1.38834
1.12625
1.12624
1.12624
1.12623
1.12623
1.12622
1.12622
1.12621
1.12621
1.12621
1.1262
1.1262
1.1262
1.12619
1.12619
1.12618
1.12618
1.12618
1.12618
1.12618
1.12618
1.12618
1.12618
1.12619
1.12619
1.1262
1.12621
1.12622
1.12623
1.12625
1.12627
1.1263
1.12632
1.12634
1.12636
1.12639
1.12642
1.12644
1.12646
1.12647
1.12648
1.12648
1.12648
1.12646
1.12642
1.12636
1.1263
1.12625
1.12622
1.1262
1.12619
1.12617
1.12617
1.12618
1.12619
1.12618
1.12617
1.12616
1.12611
1.12601
1.12589
1.12585
1.12588
1.12598
1.12622
1.12708
1.12969
1.13895
1.1574
1.19667
1.24498
1.29428
1.34449
1.36752
1.38195
1.3852
1.38099
1.38142
1.38467
1.38852
1.38891
1.38831
1.38725
1.3875
1.38809
1.38798
1.38769
1.38739
1.38751
1.38775
1.3878
1.38777
1.38779
1.38789
1.38792
1.38795
1.38805
1.38827
1.38858
1.38852
1.12643
1.12642
1.12642
1.12641
1.1264
1.1264
1.12639
1.12639
1.12638
1.12638
1.12638
1.12637
1.12636
1.12636
1.12636
1.12635
1.12634
1.12634
1.12633
1.12632
1.12632
1.12631
1.12631
1.12631
1.12631
1.12631
1.12632
1.12632
1.12633
1.12634
1.12636
1.12638
1.1264
1.12642
1.12645
1.12649
1.12653
1.12657
1.1266
1.12663
1.12665
1.12666
1.12666
1.12666
1.12663
1.12659
1.12654
1.12648
1.12643
1.12638
1.12633
1.12628
1.12626
1.12625
1.12626
1.12629
1.12633
1.12636
1.12636
1.12631
1.1262
1.12608
1.12605
1.12608
1.12621
1.12638
1.1266
1.12727
1.12954
1.13841
1.15711
1.19736
1.24742
1.29611
1.3387
1.35573
1.36829
1.38149
1.38992
1.38982
1.38843
1.38632
1.38689
1.38856
1.38858
1.38806
1.38738
1.38754
1.38801
1.38805
1.38791
1.38791
1.38802
1.38811
1.38807
1.38807
1.38813
1.38829
1.38865
1.38863
1.12656
1.12656
1.12656
1.12656
1.12655
1.12655
1.12655
1.12655
1.12654
1.12654
1.12654
1.12653
1.12653
1.12653
1.12652
1.12652
1.12651
1.1265
1.1265
1.12649
1.12648
1.12647
1.12646
1.12645
1.12644
1.12643
1.12643
1.12642
1.12642
1.12642
1.12642
1.12643
1.12644
1.12645
1.12647
1.12649
1.12653
1.12658
1.12662
1.12666
1.12669
1.1267
1.1267
1.12669
1.12667
1.12666
1.12664
1.12661
1.12655
1.12649
1.12642
1.12635
1.12633
1.12633
1.12634
1.12639
1.12649
1.1266
1.12667
1.12666
1.12661
1.12648
1.12635
1.1263
1.12631
1.12638
1.12656
1.12671
1.12681
1.12733
1.12956
1.13881
1.15902
1.20216
1.25414
1.30663
1.35447
1.37465
1.38607
1.38482
1.38125
1.38411
1.38819
1.38935
1.38859
1.38698
1.38724
1.38825
1.38837
1.38809
1.38793
1.38808
1.38827
1.38824
1.38817
1.38817
1.38822
1.38831
1.3886
1.3887
1.12671
1.12671
1.12671
1.12671
1.12671
1.12671
1.12671
1.12671
1.1267
1.1267
1.1267
1.1267
1.1267
1.1267
1.12669
1.12669
1.12669
1.12668
1.12668
1.12667
1.12666
1.12664
1.12662
1.1266
1.12658
1.12657
1.12655
1.12653
1.12651
1.12648
1.12647
1.12647
1.12646
1.12646
1.12646
1.12648
1.12652
1.12657
1.12661
1.12664
1.12666
1.12666
1.12664
1.12664
1.12664
1.12665
1.12666
1.12665
1.12662
1.12657
1.12648
1.1264
1.12638
1.12638
1.12639
1.12647
1.1266
1.12675
1.12688
1.12695
1.12694
1.12688
1.12675
1.12658
1.1265
1.12648
1.12654
1.1267
1.12687
1.12685
1.12684
1.12734
1.12996
1.14044
1.16358
1.20946
1.26492
1.3119
1.34904
1.36314
1.37502
1.38924
1.39009
1.38884
1.38596
1.38641
1.38835
1.38915
1.38858
1.38779
1.38798
1.38839
1.3884
1.38829
1.38824
1.38829
1.38831
1.38835
1.38856
1.38873
1.12683
1.12683
1.12683
1.12683
1.12684
1.12684
1.12684
1.12684
1.12684
1.12684
1.12684
1.12684
1.12684
1.12684
1.12684
1.12684
1.12684
1.12683
1.12683
1.12682
1.1268
1.12678
1.12676
1.12673
1.12671
1.12669
1.12667
1.12664
1.12661
1.12657
1.12652
1.12649
1.12649
1.12648
1.12648
1.12648
1.12649
1.12651
1.12651
1.1265
1.12649
1.12647
1.12647
1.12648
1.12651
1.12657
1.12664
1.12667
1.12668
1.12667
1.12661
1.12654
1.1265
1.12648
1.12648
1.12654
1.12666
1.12678
1.1269
1.12701
1.12707
1.12706
1.12702
1.12687
1.12668
1.12662
1.12663
1.12673
1.12693
1.12703
1.12703
1.1269
1.1269
1.12759
1.13104
1.14332
1.17116
1.22096
1.27737
1.33256
1.36701
1.3836
1.38557
1.38082
1.38316
1.38789
1.38992
1.38909
1.38744
1.38765
1.38854
1.38856
1.38837
1.38825
1.38833
1.38838
1.38833
1.38836
1.38854
1.38871
1.12694
1.12694
1.12695
1.12695
1.12695
1.12695
1.12695
1.12695
1.12696
1.12696
1.12697
1.12697
1.12697
1.12697
1.12696
1.12696
1.12695
1.12694
1.12693
1.12692
1.12691
1.12688
1.12685
1.12681
1.12679
1.12677
1.12675
1.12672
1.12668
1.12664
1.1266
1.12656
1.12652
1.1265
1.1265
1.1265
1.1265
1.12651
1.1265
1.12646
1.12643
1.12642
1.12642
1.12643
1.12648
1.12655
1.12665
1.12674
1.1268
1.12684
1.12685
1.12683
1.12679
1.12674
1.12668
1.12666
1.12669
1.12674
1.1268
1.12689
1.12702
1.12711
1.12713
1.12707
1.12689
1.12674
1.12673
1.12679
1.12698
1.12717
1.1272
1.12714
1.127
1.12691
1.12703
1.12804
1.13279
1.14763
1.18195
1.23558
1.29385
1.33529
1.35932
1.37116
1.38754
1.39086
1.38948
1.38631
1.38681
1.38871
1.38916
1.38861
1.38806
1.38824
1.38854
1.38847
1.38836
1.38839
1.38857
1.38866
1.12685
1.12685
1.12684
1.12684
1.12684
1.12684
1.12684
1.12684
1.12684
1.12685
1.12686
1.12687
1.12689
1.1269
1.12691
1.12693
1.12694
1.12694
1.12694
1.12694
1.12693
1.12691
1.12689
1.12686
1.12681
1.12678
1.12675
1.12672
1.1267
1.12669
1.12668
1.12666
1.12664
1.12665
1.12665
1.12665
1.12663
1.12661
1.12656
1.1265
1.12647
1.12647
1.12647
1.12647
1.12651
1.12659
1.12671
1.12682
1.12693
1.12703
1.12711
1.12713
1.12711
1.12705
1.12694
1.12684
1.12676
1.1267
1.12666
1.12667
1.12677
1.127
1.12718
1.1272
1.12713
1.12697
1.12687
1.12688
1.12697
1.12715
1.12729
1.12727
1.12716
1.12696
1.12691
1.12694
1.1272
1.12874
1.13527
1.15536
1.1975
1.25358
1.31647
1.35918
1.38201
1.3863
1.38077
1.38315
1.38801
1.38991
1.3891
1.38752
1.38784
1.38866
1.38865
1.38835
1.38834
1.38849
1.38867
1.38861
1.12667
1.12666
1.12665
1.12665
1.12665
1.12664
1.12664
1.12664
1.12665
1.12665
1.12666
1.12668
1.12669
1.1267
1.12671
1.12672
1.12673
1.12674
1.12675
1.12675
1.12675
1.12675
1.12676
1.12676
1.12675
1.12675
1.12675
1.12674
1.12673
1.12674
1.12676
1.12679
1.12682
1.12687
1.12691
1.12692
1.12692
1.12691
1.12689
1.12687
1.12684
1.1268
1.12677
1.12674
1.12672
1.12673
1.12679
1.12689
1.12701
1.12713
1.12722
1.12726
1.12724
1.12717
1.12711
1.12705
1.12693
1.12675
1.12661
1.12656
1.12659
1.12679
1.12712
1.12734
1.12735
1.12729
1.12713
1.12699
1.12697
1.12703
1.1272
1.12727
1.12722
1.12707
1.12695
1.12694
1.12698
1.12709
1.12751
1.13003
1.13948
1.16735
1.2158
1.27707
1.32844
1.35506
1.36905
1.38684
1.39054
1.38932
1.38638
1.38698
1.38885
1.38899
1.38848
1.38816
1.38838
1.3887
1.38872
1.38855
1.12661
1.1266
1.1266
1.12659
1.12657
1.12656
1.12654
1.12654
1.12654
1.12655
1.12656
1.12657
1.12657
1.12657
1.12658
1.12659
1.1266
1.12661
1.12663
1.12664
1.12665
1.12666
1.12668
1.12669
1.12671
1.12674
1.12677
1.12679
1.12682
1.12687
1.12692
1.12698
1.12705
1.12713
1.12716
1.12719
1.12719
1.12719
1.12721
1.12724
1.12725
1.12723
1.12718
1.12708
1.12694
1.12682
1.12675
1.12676
1.12682
1.12691
1.12702
1.12714
1.12721
1.12718
1.12718
1.12721
1.12719
1.12703
1.12672
1.12657
1.12658
1.12673
1.12703
1.12735
1.12749
1.12748
1.12739
1.12714
1.12696
1.12693
1.12699
1.12715
1.1272
1.12716
1.12708
1.12706
1.12709
1.12719
1.1272
1.12727
1.12796
1.13225
1.14652
1.18443
1.2394
1.30389
1.35555
1.38013
1.38626
1.38048
1.38313
1.38816
1.3897
1.38896
1.38761
1.388
1.38878
1.38882
1.3887
1.38846
1.12679
1.12679
1.12678
1.12677
1.12675
1.12671
1.1267
1.12669
1.12669
1.12669
1.12671
1.12672
1.12672
1.12671
1.12671
1.12671
1.1267
1.12669
1.12668
1.12668
1.12669
1.12671
1.12673
1.12675
1.12678
1.12682
1.12687
1.12693
1.12698
1.12702
1.12705
1.1271
1.12717
1.1272
1.12721
1.12724
1.12724
1.12724
1.12726
1.12733
1.12736
1.12735
1.12732
1.12722
1.12704
1.12688
1.12673
1.12668
1.12672
1.12677
1.12677
1.12678
1.12684
1.12697
1.12718
1.1274
1.12748
1.12746
1.12724
1.12688
1.12675
1.12682
1.127
1.12724
1.12748
1.12752
1.12747
1.12728
1.12697
1.12688
1.12688
1.12701
1.12719
1.12724
1.12723
1.12722
1.12723
1.12726
1.12724
1.12722
1.12719
1.12737
1.12887
1.13619
1.15869
1.20579
1.26993
1.32138
1.35477
1.36891
1.38724
1.3903
1.38907
1.38655
1.38727
1.38898
1.38906
1.38868
1.38848
1.38846
1.12732
1.12732
1.12733
1.12733
1.1273
1.12726
1.1272
1.12715
1.12712
1.12711
1.12711
1.12711
1.12709
1.12708
1.12708
1.12708
1.12707
1.12706
1.12704
1.12701
1.127
1.12701
1.12699
1.12699
1.12701
1.12701
1.12703
1.12706
1.12707
1.12702
1.12695
1.12693
1.12693
1.12691
1.12689
1.12688
1.1269
1.12696
1.12709
1.12723
1.12728
1.12728
1.12726
1.12716
1.12702
1.12691
1.12679
1.1267
1.12673
1.12675
1.12671
1.12665
1.12665
1.12675
1.12704
1.12747
1.12772
1.12775
1.12767
1.12745
1.12718
1.12705
1.12706
1.12712
1.12725
1.12743
1.12745
1.12733
1.12707
1.12692
1.12691
1.127
1.1272
1.12732
1.12733
1.12731
1.1273
1.12728
1.12723
1.12714
1.1271
1.12708
1.12713
1.12764
1.13078
1.1434
1.17766
1.23338
1.30121
1.35349
1.3812
1.3855
1.38062
1.38392
1.38862
1.38962
1.38901
1.3879
1.3883
1.38864
1.12756
1.12755
1.12756
1.12758
1.12758
1.12754
1.12745
1.12734
1.12727
1.12726
1.12726
1.12725
1.1272
1.12717
1.12716
1.12714
1.12712
1.12713
1.12712
1.1271
1.12711
1.1271
1.12708
1.1271
1.1271
1.12705
1.12707
1.12708
1.12703
1.12691
1.12674
1.12659
1.12645
1.12638
1.12636
1.12635
1.12638
1.12652
1.12675
1.12699
1.12714
1.12717
1.12716
1.12707
1.12705
1.12706
1.12708
1.12709
1.1271
1.12708
1.12697
1.12678
1.12671
1.12675
1.12696
1.12736
1.12769
1.12777
1.12773
1.12761
1.12746
1.12726
1.1271
1.12706
1.12707
1.12716
1.12729
1.12731
1.12725
1.12719
1.12719
1.12724
1.12732
1.12736
1.12735
1.12733
1.1273
1.12721
1.1271
1.12706
1.12706
1.12708
1.12717
1.12719
1.12733
1.12853
1.13473
1.15648
1.20211
1.26754
1.32378
1.35439
1.37022
1.38892
1.39025
1.38902
1.38707
1.38761
1.38893
1.38885
1.12737
1.12736
1.12738
1.12739
1.12737
1.12731
1.12719
1.12713
1.12712
1.12711
1.12709
1.12707
1.12703
1.12701
1.12701
1.127
1.12696
1.12695
1.12698
1.12698
1.12703
1.12706
1.12705
1.12708
1.12715
1.1272
1.1272
1.12714
1.12704
1.1269
1.12674
1.12657
1.1264
1.12625
1.12618
1.12617
1.12622
1.12636
1.12656
1.12681
1.12706
1.12718
1.12718
1.12717
1.12722
1.12736
1.12753
1.12765
1.12767
1.12764
1.12752
1.1273
1.12705
1.12693
1.12698
1.12713
1.12728
1.12743
1.12748
1.12744
1.1274
1.12734
1.12717
1.12705
1.12704
1.12709
1.1272
1.12731
1.12742
1.1275
1.12754
1.12753
1.12748
1.12739
1.12733
1.12727
1.1272
1.12712
1.12706
1.12706
1.12709
1.12717
1.12725
1.12727
1.12724
1.12726
1.12762
1.1305
1.1424
1.1777
1.23409
1.30506
1.35638
1.38379
1.38471
1.38195
1.385
1.38857
1.38947
1.38889
1.12663
1.12662
1.12662
1.12663
1.12664
1.12658
1.12652
1.12651
1.12652
1.12652
1.12653
1.12656
1.12661
1.12668
1.12678
1.12681
1.12682
1.12688
1.12704
1.12714
1.12718
1.12725
1.12736
1.12741
1.12744
1.12749
1.12752
1.1275
1.12744
1.12736
1.12727
1.12717
1.12703
1.12686
1.12673
1.12673
1.12679
1.12686
1.12693
1.12701
1.12709
1.12719
1.12725
1.1273
1.12739
1.12756
1.12773
1.12786
1.1279
1.12784
1.12772
1.12757
1.12737
1.12713
1.12696
1.12693
1.1269
1.1269
1.12698
1.12715
1.1273
1.12734
1.12733
1.12728
1.12728
1.1273
1.12732
1.12738
1.12751
1.12765
1.12767
1.12765
1.12752
1.12726
1.12712
1.12709
1.1271
1.12712
1.12716
1.12719
1.12724
1.1273
1.12731
1.1273
1.12724
1.12713
1.12711
1.12726
1.12848
1.13488
1.15766
1.20642
1.27303
1.32988
1.35665
1.37404
1.38903
1.38998
1.38909
1.3882
1.12609
1.12609
1.1261
1.1261
1.12611
1.12611
1.12612
1.12613
1.12614
1.12617
1.12623
1.12631
1.12641
1.12654
1.12672
1.1269
1.12706
1.12722
1.12739
1.12757
1.12771
1.12783
1.12789
1.1279
1.12788
1.12785
1.12785
1.12779
1.1277
1.12764
1.12762
1.12762
1.12763
1.12761
1.12756
1.1275
1.12743
1.12736
1.1273
1.1272
1.12703
1.12695
1.12695
1.12703
1.12721
1.12743
1.12761
1.12769
1.12764
1.12754
1.12749
1.12749
1.12744
1.12724
1.12694
1.12679
1.12675
1.12675
1.12688
1.12715
1.12742
1.12754
1.12755
1.12761
1.1277
1.1277
1.12763
1.12754
1.12752
1.12753
1.12754
1.1275
1.12738
1.12717
1.12705
1.12705
1.12708
1.12724
1.12736
1.12739
1.12739
1.12738
1.12736
1.12729
1.12714
1.12701
1.12702
1.12711
1.12723
1.12777
1.13099
1.14444
1.18279
1.24256
1.31651
1.36162
1.38528
1.38436
1.38505
1.38735
1.12708
1.12707
1.12708
1.12707
1.12699
1.12683
1.12679
1.12681
1.12678
1.12673
1.12674
1.12676
1.12678
1.12681
1.12694
1.12716
1.12741
1.12754
1.12761
1.12771
1.1278
1.12783
1.12782
1.12781
1.12777
1.12768
1.12756
1.12746
1.12741
1.12739
1.12739
1.12741
1.12742
1.12741
1.1274
1.12736
1.12732
1.12724
1.12704
1.1267
1.1265
1.12647
1.12649
1.12658
1.12678
1.127
1.12706
1.12699
1.1268
1.12673
1.12679
1.12699
1.12711
1.12712
1.12708
1.12707
1.12709
1.12717
1.12734
1.12759
1.12774
1.12772
1.12771
1.12784
1.12794
1.12793
1.12785
1.12763
1.12736
1.12719
1.12715
1.12718
1.12723
1.12722
1.12714
1.12715
1.12726
1.12742
1.1275
1.12751
1.12748
1.12739
1.12725
1.12709
1.12698
1.127
1.12704
1.12716
1.1273
1.12736
1.12752
1.12894
1.13627
1.1632
1.21753
1.2824
1.34246
1.36058
1.38032
1.38854
1.12859
1.12853
1.12845
1.12833
1.1281
1.128
1.128
1.12796
1.12784
1.12771
1.12756
1.12737
1.12712
1.12696
1.12694
1.12695
1.12709
1.12725
1.12727
1.12731
1.12729
1.12722
1.12706
1.12677
1.12636
1.12611
1.12601
1.126
1.12607
1.1262
1.12631
1.12643
1.12661
1.12669
1.12671
1.1267
1.12664
1.12652
1.12636
1.12615
1.12606
1.12604
1.12605
1.12614
1.12634
1.12657
1.12664
1.12658
1.12643
1.12637
1.12642
1.12667
1.1271
1.12724
1.12722
1.12724
1.1274
1.12775
1.12801
1.12802
1.12793
1.12777
1.12769
1.12769
1.12772
1.1277
1.1276
1.12743
1.12728
1.12711
1.12705
1.12712
1.12729
1.12749
1.12752
1.12754
1.12753
1.12755
1.12755
1.12751
1.12738
1.12719
1.12703
1.12697
1.12699
1.12708
1.1273
1.12746
1.12746
1.12742
1.12727
1.12728
1.12788
1.13216
1.14895
1.19403
1.25981
1.32904
1.37021
1.38471
1.12737
1.1274
1.12743
1.12744
1.12741
1.12732
1.12717
1.12712
1.12718
1.12719
1.12703
1.12675
1.1264
1.12613
1.12609
1.12611
1.12629
1.12647
1.12664
1.12677
1.12679
1.12672
1.12646
1.12585
1.12552
1.12552
1.12558
1.12566
1.12582
1.12601
1.1262
1.12639
1.12647
1.12647
1.12648
1.12642
1.12624
1.12605
1.126
1.12606
1.12615
1.12626
1.12647
1.12667
1.12683
1.12716
1.12754
1.1276
1.12757
1.12757
1.12765
1.12776
1.12769
1.12732
1.12707
1.12705
1.12721
1.12767
1.1279
1.12788
1.12773
1.12743
1.1271
1.12693
1.12694
1.12698
1.12708
1.12727
1.1273
1.12727
1.12721
1.12733
1.12759
1.12777
1.1278
1.12779
1.12768
1.12746
1.12728
1.12719
1.1271
1.12701
1.12697
1.12702
1.12721
1.12746
1.12762
1.12761
1.12755
1.12739
1.12711
1.12707
1.1271
1.12744
1.12974
1.14032
1.17309
1.23671
1.29878
1.3553
1.12964
1.12973
1.12985
1.12994
1.13
1.13006
1.1301
1.13006
1.13003
1.13002
1.13002
1.13006
1.13001
1.12963
1.12928
1.12925
1.12934
1.12946
1.12967
1.13013
1.13034
1.13008
1.1298
1.12986
1.13009
1.13006
1.13003
1.13011
1.13015
1.12999
1.1295
1.12866
1.12828
1.12828
1.12811
1.12783
1.12782
1.12783
1.12787
1.12833
1.12876
1.12866
1.12862
1.12876
1.12875
1.12875
1.12891
1.129
1.12905
1.1292
1.12927
1.12909
1.12829
1.12697
1.12636
1.12632
1.12644
1.12676
1.12708
1.12714
1.12708
1.12691
1.12666
1.12644
1.12644
1.12655
1.12683
1.12724
1.12759
1.12769
1.12773
1.12779
1.12779
1.12777
1.12774
1.12763
1.12741
1.12711
1.12696
1.12697
1.12702
1.1271
1.12725
1.12746
1.12763
1.12772
1.12771
1.12764
1.12747
1.1272
1.12704
1.12706
1.12719
1.12734
1.12751
1.12857
1.13468
1.15862
1.2078
1.30426
1.14384
1.14365
1.14369
1.14354
1.14338
1.14343
1.14372
1.14387
1.14393
1.14395
1.14386
1.14353
1.14283
1.14127
1.14031
1.14016
1.14018
1.14034
1.14042
1.14054
1.1409
1.141
1.14074
1.14059
1.14052
1.14018
1.13956
1.13914
1.13888
1.13865
1.13828
1.1371
1.136
1.13507
1.13379
1.13268
1.13219
1.13192
1.1319
1.13198
1.13194
1.13155
1.13115
1.13104
1.13071
1.12974
1.1287
1.12823
1.12816
1.12821
1.12821
1.12807
1.12748
1.12651
1.12629
1.12635
1.12653
1.12679
1.127
1.12713
1.1272
1.12719
1.12699
1.12692
1.12702
1.12725
1.12767
1.12809
1.12817
1.12813
1.128
1.12782
1.12753
1.12717
1.12696
1.12688
1.12686
1.12684
1.1268
1.12687
1.12714
1.12755
1.12782
1.12781
1.12777
1.12773
1.12761
1.12744
1.12728
1.12711
1.12713
1.12729
1.12748
1.12755
1.12756
1.12751
1.12789
1.13151
1.14563
1.21731
1.16552
1.16494
1.16452
1.16403
1.16404
1.16429
1.16419
1.16291
1.16189
1.16148
1.16085
1.1595
1.15774
1.15581
1.15442
1.1534
1.15261
1.15246
1.15242
1.15199
1.15124
1.15097
1.15059
1.14911
1.14732
1.14629
1.1454
1.14503
1.14494
1.14503
1.14563
1.14586
1.14544
1.14416
1.14252
1.14131
1.1406
1.14044
1.14064
1.14071
1.14047
1.13975
1.13859
1.13703
1.13552
1.13428
1.13306
1.13194
1.1317
1.13163
1.13126
1.13094
1.13069
1.13058
1.13085
1.13139
1.1313
1.13068
1.12972
1.1293
1.12932
1.12944
1.12962
1.12993
1.13009
1.13006
1.12979
1.12907
1.12847
1.12822
1.12794
1.12755
1.12714
1.12676
1.12662
1.12665
1.12679
1.12691
1.1271
1.12738
1.12771
1.12798
1.12794
1.12776
1.12749
1.12731
1.12728
1.12727
1.12721
1.1273
1.12749
1.12765
1.12768
1.12763
1.12751
1.12741
1.12735
1.12756
1.12913
1.15736
1.20198
1.20125
1.20115
1.20096
1.20096
1.20121
1.20164
1.20204
1.20183
1.20039
1.19834
1.19735
1.19641
1.19439
1.19364