x,y,z,p
4.24322e-19,0.3,-5.55112e-18,1.84324
0.003003,0.2997,-4.85723e-18,1.84324
0.018018,0.298198,-2.08167e-18,1.2656
0.021021,0.297898,-6.19161e-18,1.14227
0.024024,0.297598,-4.16334e-18,1.14227
0.027027,0.297297,-1.38778e-18,1.03488
0.03003,0.296997,-4.97312e-18,0.935412
0.042042,0.295796,-1.38778e-18,0.761772
0.0600601,0.293994,2.77556e-18,0.50261
0.0630631,0.293694,5.9567e-18,0.456772
0.0660661,0.293393,4.16334e-18,0.456772
0.0690691,0.293093,6.63882e-18,0.419019
0.0720721,0.292793,6.93889e-18,0.419019
0.0750751,0.292492,6.70604e-18,0.377683
0.0810811,0.291892,-9.57448e-19,0.346309
0.0840841,0.291592,4.16334e-18,0.346309
0.0870871,0.291291,4.54845e-18,0.323446
0.0960961,0.29039,-1.48022e-27,0.296931
0.0990991,0.29009,7.15428e-19,0.278319
0.102102,0.28979,-6.245e-18,0.278319
0.117117,0.288288,-6.01088e-19,0.241436
0.12012,0.287988,-6.93889e-19,0.241436
0.123123,0.287688,3.79987e-18,0.241791
0.126126,0.287387,4.85723e-18,0.241791
0.129129,0.287087,1.66079e-18,0.243476
0.132132,0.286787,6.245e-18,0.243476
0.135135,0.286486,-1.46971e-18,0.241246
0.138138,0.286186,6.88003e-18,0.241246
0.147147,0.285285,-4.16334e-18,0.241127
0.15015,0.284985,2.91353e-19,0.243392
0.153153,0.284685,-2.77556e-18,0.243392
0.156156,0.284384,6.93889e-19,0.243392
0.159159,0.284084,-1.47036e-19,0.25065
0.168168,0.283183,-6.93889e-19,0.263226
0.171171,0.282883,-1.38778e-18,0.263226
0.174174,0.282583,-3.685e-18,0.269357
0.177177,0.282282,-6.93889e-19,0.269357
0.18018,0.281982,-9.96339e-18,0.273892
0.183183,0.281682,-6.8795e-18,0.273892
0.186186,0.281381,-4.85723e-18,0.273892
0.189189,0.281081,-4.38464e-18,0.283118
0.192192,0.280781,-1.38778e-18,0.283118
0.21021,0.278979,-4.43635e-27,0.320249
0.213213,0.278679,-2.21427e-18,0.331361
0.216216,0.278378,-2.46442e-18,0.331361
0.264264,0.273574,-2.08167e-18,0.426184
0.267267,0.273273,-6.48918e-27,0.426184
0.27027,0.272973,-1.74003e-18,0.438356
0.273273,0.272673,2.14451e-19,0.438356
0.276276,0.272372,6.93889e-19,0.438356
0.279279,0.272072,6.206e-18,0.44911
0.282282,0.271772,4.70991e-18,0.44911
0.285285,0.271471,7.63278e-18,0.44911
0.288288,0.271171,7.63278e-18,0.44911
0.291291,0.270871,8.55918e-18,0.463585
0.294294,0.270571,7.51521e-18,0.463585
0.297297,0.27027,9.71445e-18,0.463585
0.3003,0.26997,1.52293e-17,0.472669
0.303303,0.26967,1.06472e-17,0.472669
0.306306,0.269369,1.249e-17,0.472669
0.309309,0.269069,1.45717e-17,0.472669
0.339339,0.266066,4.15075e-18,0.480224
0.342342,0.265766,3.46945e-18,0.480224
0.345345,0.265465,2.75549e-18,0.483801
0.348348,0.265165,3.7925e-18,0.483801
0.351351,0.264865,6.93889e-18,0.483801
0.423423,0.257658,1.65004e-18,0.47719
0.426426,0.257357,-3.44568e-19,0.47719
0.429429,0.257057,2.77556e-18,0.47719
0.432432,0.256757,6.93889e-19,0.47719
0.435435,0.256456,-2.85704e-18,0.477817
0.438438,0.256156,-3.44993e-18,0.477817
0.459459,0.254054,-6.93889e-18,0.47946
0.462462,0.253754,-7.63278e-18,0.47946
0.465465,0.253453,-2.45765e-18,0.479816
0.468468,0.253153,-2.67664e-18,0.479816
0.471471,0.252853,6.93889e-19,0.479816
0.474474,0.252553,1.38778e-18,0.479816
0.477477,0.252252,5.55112e-18,0.479816
0.48048,0.251952,5.82479e-18,0.480142
0.483483,0.251652,4.23103e-18,0.480142
0.486486,0.251351,2.77556e-18,0.480142
0.489489,0.251051,4.85723e-18,0.480142
0.492492,0.250751,3.46945e-18,0.480142
0.495495,0.25045,4.45736e-18,0.481457
0.498498,0.25015,3.91714e-18,0.481457
0.501502,0.24985,5.55112e-18,0.481457
0.534535,0.246547,2.77556e-18,0.481259
0.537538,0.246246,4.16334e-18,0.481259
0.540541,0.245946,5.55112e-18,0.481259
0.543544,0.245646,9.9242e-18,0.479913
0.546547,0.245345,1.01143e-17,0.479913
0.54955,0.245045,1.38778e-17,0.479913
0.552553,0.244745,1.73472e-17,0.479913
0.555556,0.244444,1.73472e-17,0.479913
0.558559,0.244144,1.57371e-17,0.478817
0.561562,0.243844,1.66326e-17,0.478817
0.564565,0.243544,1.79619e-17,0.478817
0.585586,0.241441,-1.48641e-27,0.477989
0.588589,0.241141,1.38778e-18,0.477989
0.591592,0.240841,6.22555e-18,0.477129
0.594595,0.240541,3.67403e-18,0.477129
0.597598,0.24024,6.67362e-18,0.477129
0.600601,0.23994,4.85723e-18,0.477129
0.603604,0.23964,4.85723e-18,0.477129
0.606607,0.239339,4.85723e-18,0.477129
0.60961,0.239039,9.6529e-18,0.475873
0.612613,0.238739,2.94885e-18,0.475873
0.615616,0.238438,4.57147e-18,0.475873
0.618619,0.238138,4.85723e-18,0.475873
0.621622,0.237838,2.77556e-18,0.475873
0.624625,0.237538,4.16334e-18,0.475873
0.627628,0.237237,6.89954e-18,0.47437
0.630631,0.236937,7.14494e-18,0.47437
0.633634,0.236637,8.77811e-18,0.47437
0.636637,0.236336,4.17441e-18,0.47437
0.63964,0.236036,9.02056e-18,0.47437
0.642643,0.235736,1.04083e-17,0.47437
0.645646,0.235435,1.17961e-17,0.47437
0.648649,0.235135,7.2388e-18,0.473279
0.651652,0.234835,9.57617e-18,0.473279
0.654655,0.234535,8.4441e-18,0.473279
0.657658,0.234234,7.63278e-18,0.473279
0.660661,0.233934,6.93889e-18,0.473279
0.663664,0.233634,9.71445e-18,0.473279
0.666667,0.233333,9.47262e-18,0.472767
0.66967,0.233033,9.04451e-18,0.472767
0.672673,0.232733,5.4939e-18,0.472767
0.756757,0.224324,-7.63278e-18,0.470468
0.75976,0.224024,-4.16334e-18,0.470468
0.762763,0.223724,-4.16334e-18,0.470468
0.765766,0.223423,-4.16334e-18,0.470468
0.768769,0.223123,-2.3052e-18,0.47042
0.771772,0.222823,-6.04641e-19,0.47042
0.774775,0.222523,-3.24089e-18,0.47042
0.777778,0.222222,-2.08243e-18,0.47042
0.780781,0.221922,-6.93889e-19,0.47042
0.798799,0.22012,4.40773e-18,0.470426
0.801802,0.21982,3.46945e-18,0.470426
0.804805,0.21952,3.46945e-18,0.470426
0.807808,0.219219,3.46945e-18,0.470426
0.810811,0.218919,6.93889e-18,0.470426
0.813814,0.218619,1.07875e-18,0.470403
0.816817,0.218318,3.49052e-18,0.470403
0.81982,0.218018,3.12673e-18,0.470403
0.822823,0.217718,5.55112e-18,0.470403
0.825826,0.217417,6.93889e-18,0.470403
0.828829,0.217117,4.85723e-18,0.470403
0.831832,0.216817,2.77556e-18,0.470403
0.834835,0.216517,4.08519e-18,0.470868
0.837838,0.216216,1.6481e-18,0.470868
0.840841,0.215916,3.37434e-18,0.470868
0.843844,0.215616,4.23322e-18,0.470868
0.846847,0.215315,-5.84958e-27,0.470868
0.84985,0.215015,1.38778e-18,0.470868
0.852853,0.214715,6.93889e-19,0.470868
0.855856,0.214414,-2.77556e-18,0.470868
0.858859,0.214114,-4.30596e-18,0.471655
0.861862,0.213814,-2.57155e-18,0.471655
0.864865,0.213514,-1.53102e-18,0.471655
0.867868,0.213213,-5.68123e-20,0.471655
0.870871,0.212913,-6.93889e-19,0.471655
0.873874,0.212613,-6.93889e-19,0.471655
0.891892,0.210811,-2.54734e-18,0.472611
0.894895,0.210511,-6.245e-18,0.472611
0.897898,0.21021,-4.16334e-18,0.472611
0.900901,0.20991,-2.08167e-18,0.472611
0.903904,0.20961,-3.46945e-18,0.472611
0.906907,0.209309,-4.24184e-18,0.473139
0.90991,0.209009,-1.10386e-18,0.473139
0.912913,0.208709,-1.43533e-18,0.473139
0.972973,0.202703,9.02056e-18,0.474538
0.975976,0.202402,9.02056e-18,0.474538
0.978979,0.202102,1.249e-17,0.474538
0.981982,0.201802,1.249e-17,0.474538
0.984985,0.201502,1.44107e-17,0.47438
0.987988,0.201201,9.93828e-18,0.47438
0.990991,0.200901,1.067e-17,0.47438
0.993994,0.200601,8.97307e-18,0.47438
0.996997,0.2003,9.71445e-18,0.47438
1,0.2,9.02056e-18,0.47438
1.003,0.1997,8.32667e-18,0.47438
1.00601,0.199399,7.63278e-18,0.47438
1.00901,0.199099,6.93889e-18,0.47438
1.01201,0.198799,2.61186e-18,0.473906
1.01502,0.198498,3.00373e-18,0.473906
1.01802,0.198198,2.00782e-18,0.473906
1.02102,0.197898,-1.59018e-18,0.473906
1.02402,0.197598,-2.0982e-18,0.473906
1.02703,0.197297,-3.46945e-18,0.473906
1.03003,0.196997,-2.77556e-18,0.473906
1.03303,0.196697,-5.55112e-18,0.473906
1.03604,0.196396,-4.85723e-18,0.473906
1.03904,0.196096,-4.26723e-18,0.473132
1.04204,0.195796,-1.78675e-18,0.473132
1.04505,0.195495,-2.77572e-18,0.473132
1.04805,0.195195,-1.16261e-18,0.473132
1.05105,0.194895,-3.10567e-18,0.473132
1.05405,0.194595,-4.85723e-18,0.473132
1.05706,0.194294,-6.93889e-18,0.473132
1.06006,0.193994,-4.85723e-18,0.473132
1.06306,0.193694,-6.245e-18,0.473132
1.06607,0.193393,-7.63278e-18,0.473132
1.06907,0.193093,-4.43605e-18,0.472062
1.07207,0.192793,-2.98962e-18,0.472062
1.07508,0.192492,-6.05347e-18,0.472062
1.07808,0.192192,-4.43357e-18,0.472062
1.08108,0.191892,-6.245e-18,0.472062
1.08408,0.191592,-4.85723e-18,0.472062
1.08709,0.191291,-3.46945e-18,0.472062
1.09009,0.190991,-2.08167e-18,0.472062
1.09309,0.190691,-6.93889e-19,0.472062
1.0961,0.19039,-2.17137e-18,0.470661
1.0991,0.19009,-3.14693e-18,0.470661
1.1021,0.18979,-1.34693e-18,0.470661
1.10511,0.189489,4.61641e-18,0.470661
1.10811,0.189189,5.80926e-18,0.470661
1.11111,0.188889,2.08167e-18,0.470661
1.11411,0.188589,2.08167e-18,0.470661
1.11712,0.188288,2.77556e-18,0.470661
1.12012,0.187988,-2.31112e-33,0.470661
1.12312,0.187688,6.93889e-19,0.470661
1.12613,0.187387,-1.2781e-19,0.46914
1.12913,0.187087,-1.09689e-18,0.46914
1.13213,0.186787,-3.8007e-18,0.46914
1.13514,0.186486,-3.03505e-18,0.46914
1.13814,0.186186,-3.22351e-18,0.46914
1.14114,0.185886,-3.08149e-33,0.46914
1.14414,0.185586,-1.38778e-18,0.46914
1.14715,0.185285,-4.85723e-18,0.46914
1.15015,0.184985,-4.16334e-18,0.46914
1.15315,0.184685,-6.93889e-18,0.46914
1.15616,0.184384,-4.959e-18,0.468511
1.15916,0.184084,-8.69731e-18,0.468511
1.16216,0.183784,-7.23146e-18,0.468511
1.16517,0.183483,-6.11254e-18,0.468511
1.16817,0.183183,-7.68245e-18,0.468511
1.17117,0.182883,-1.38778e-18,0.468511
1.17417,0.182583,-6.93889e-18,0.468511
1.17718,0.182282,-5.55112e-18,0.468511
1.18018,0.181982,6.93889e-18,0.468511
1.18318,0.181682,4.16334e-18,0.468511
1.18619,0.181381,-7.08418e-19,0.468595
1.18919,0.181081,1.80446e-18,0.468595
1.19219,0.180781,-1.92952e-19,0.468595
1.1952,0.18048,9.32143e-19,0.468595
1.1982,0.18018,2.9246e-18,0.468595
1.2012,0.17988,4.26654e-18,0.468595
1.2042,0.17958,5.55112e-18,0.468595
1.20721,0.179279,5.55112e-18,0.468595
1.21021,0.178979,5.55112e-18,0.468595
1.21321,0.178679,9.02056e-18,0.468595
1.21622,0.178378,5.55112e-18,0.468595
1.21922,0.178078,4.73169e-18,0.469382
1.22222,0.177778,2.39337e-18,0.469382
1.22523,0.177477,1.78978e-18,0.469382
1.22823,0.177177,1.18619e-18,0.469382
1.23123,0.176877,-1.67254e-18,0.469382
1.23423,0.176577,1.38778e-18,0.469382
1.23724,0.176276,-3.08149e-33,0.469382
1.24024,0.175976,-1.38778e-18,0.469382
1.24324,0.175676,-2.77556e-18,0.469382
1.24625,0.175375,-6.245e-18,0.469382
1.24925,0.175075,-4.85723e-18,0.469382
1.25225,0.174775,-7.10799e-18,0.470535
1.25526,0.174474,-3.88929e-18,0.470535
1.25826,0.174174,-5.87476e-18,0.470535
1.26126,0.173874,-4.39078e-18,0.470535
1.26426,0.173574,-7.50382e-18,0.470535
1.26727,0.173273,-1.17961e-17,0.470535
1.27027,0.172973,-1.04083e-17,0.470535
1.27327,0.172673,-9.02056e-18,0.470535
1.27628,0.172372,-7.63278e-18,0.470535
1.27928,0.172072,-6.93889e-18,0.470535
1.28228,0.171772,-5.55112e-18,0.470535
1.28529,0.171471,-5.00547e-18,0.471306
1.28829,0.171171,-1.781e-18,0.471306
1.29129,0.170871,-4.80154e-18,0.471306
1.29429,0.170571,-2.96485e-18,0.471306
1.2973,0.17027,-4.59761e-18,0.471306
1.3003,0.16997,-6.9351e-18,0.471306
1.3033,0.16967,-9.02056e-18,0.471306
1.30631,0.169369,-2.77556e-18,0.471306
1.30931,0.169069,-6.93889e-18,0.471306
1.31231,0.168769,-4.16334e-18,0.471306
1.31532,0.168468,-1.38778e-18,0.471306
1.31832,0.168168,3.40354e-18,0.471716
1.32132,0.167868,-9.99149e-19,0.471716
1.32432,0.167568,-1.97663e-19,0.471716
1.32733,0.167267,-4.3701e-19,0.471716
1.33033,0.166967,-5.02886e-19,0.471716
1.33333,0.166667,-1.43612e-18,0.471716
1.33634,0.166366,-1.38778e-18,0.471716
1.33934,0.166066,6.93889e-19,0.471716
1.34234,0.165766,-6.16298e-33,0.471716
1.34535,0.165465,2.77556e-18,0.471716
1.34835,0.165165,2.08167e-18,0.471716
1.35135,0.164865,6.245e-18,0.471716
1.35435,0.164565,3.31066e-18,0.471992
1.35736,0.164264,7.24015e-18,0.471992
1.36036,0.163964,4.23074e-18,0.471992
1.36336,0.163664,6.42551e-18,0.471992
1.36637,0.163363,5.15083e-18,0.471992
1.36937,0.163063,4.09299e-18,0.471992
1.37237,0.162763,2.77556e-18,0.471992
1.37538,0.162462,4.85723e-18,0.471992
1.37838,0.162162,3.46945e-18,0.471992
1.38138,0.161862,2.08167e-18,0.471992
1.38438,0.161562,4.16334e-18,0.471992
1.38739,0.161261,2.77556e-18,0.471992
1.39039,0.160961,2.59053e-18,0.472509
1.39339,0.160661,-1.10738e-18,0.472509
1.3964,0.16036,3.98873e-19,0.472509
1.3994,0.16006,-1.56432e-18,0.472509
1.4024,0.15976,6.35824e-19,0.472509
1.40541,0.159459,2.83597e-18,0.472509
1.40841,0.159159,5.55112e-18,0.472509
1.41141,0.158859,3.46945e-18,0.472509
1.41441,0.158559,1.38778e-18,0.472509
1.41742,0.158258,2.77556e-18,0.472509
1.42042,0.157958,4.16334e-18,0.472509
1.42342,0.157658,2.08167e-18,0.472509
1.42643,0.157357,2.62794e-18,0.47326
1.42943,0.157057,5.18028e-18,0.47326
1.43243,0.156757,5.9979e-18,0.47326
1.43544,0.156456,3.34607e-18,0.47326
1.43844,0.156156,5.89841e-18,0.47326
1.44144,0.155856,4.28741e-18,0.47326
1.44444,0.155556,6.93889e-18,0.47326
1.44745,0.155255,9.02056e-18,0.47326
1.45045,0.154955,7.63278e-18,0.47326
1.45345,0.154655,6.245e-18,0.47326
1.45646,0.154354,4.85723e-18,0.47326
1.45946,0.154054,3.46945e-18,0.47326
1.46246,0.153754,4.11384e-18,0.473504
1.46547,0.153453,1.1202e-18,0.473504
1.46847,0.153153,3.67767e-18,0.473504
1.47147,0.152853,6.23514e-18,0.473504
1.47447,0.152553,7.05789e-18,0.473504
1.47748,0.152252,6.31939e-18,0.473504
1.48048,0.151952,4.08469e-18,0.473504
1.48348,0.151652,3.46945e-18,0.473504
1.48649,0.151351,4.16334e-18,0.473504
1.48949,0.151051,8.32667e-18,0.473504
1.49249,0.150751,8.32667e-18,0.473504
1.4955,0.15045,9.02056e-18,0.473504
1.4985,0.15015,9.71445e-18,0.473504
1.5015,0.14985,1.05174e-17,0.473582
1.5045,0.14955,7.95991e-18,0.473582
1.50751,0.149249,8.87188e-18,0.473582
1.51051,0.148949,1.15186e-17,0.473582
1.51351,0.148649,1.03489e-17,0.473582
1.51652,0.148348,8.91899e-18,0.473582
1.51952,0.148048,8.2969e-18,0.473582
1.52252,0.147748,8.7727e-18,0.473582
1.52553,0.147447,5.77906e-18,0.473582
1.52853,0.147147,3.82625e-18,0.473582
1.53153,0.146847,4.30206e-18,0.473582
1.53453,0.146547,3.56356e-18,0.473582
1.53754,0.146246,2.23959e-18,0.473582
1.54054,0.145946,7.11145e-18,0.473427
1.54354,0.145646,1.08041e-17,0.473427
1.54655,0.145345,1.10273e-17,0.473427
1.54955,0.145045,9.86277e-18,0.473427
1.55255,0.144745,6.96348e-18,0.473427
1.55556,0.144444,8.18416e-18,0.473427
1.55856,0.144144,1.02843e-17,0.473427
1.56156,0.143844,8.67327e-18,0.473427
1.56456,0.143544,3.59283e-18,0.473427
1.56757,0.143243,5.10433e-18,0.473427
1.57057,0.142943,4.88112e-18,0.473427
1.57357,0.142643,8.12735e-18,0.473427
1.57658,0.142342,7.01627e-18,0.473148
1.57958,0.142042,7.24474e-18,0.473148
1.58258,0.141742,7.47321e-18,0.473148
1.58559,0.141441,7.70168e-18,0.473148
1.58859,0.141141,9.66487e-18,0.473148
1.59159,0.140841,9.02598e-18,0.473148
1.59459,0.140541,1.03479e-17,0.473148
1.5976,0.14024,8.03779e-18,0.473148
1.6006,0.13994,5.03377e-18,0.473148
1.6036,0.13964,6.19308e-18,0.473148
1.60661,0.139339,7.35239e-18,0.473148
1.60961,0.139039,5.04225e-18,0.473148
1.61261,0.138739,2.82003e-18,0.472806
1.61562,0.138438,5.82943e-18,0.472806
1.61862,0.138138,2.59383e-18,0.472806
1.62162,0.137838,5.60323e-18,0.472806
1.62462,0.137538,5.14319e-18,0.472806
1.62763,0.137237,6.15766e-18,0.472806
1.63063,0.136937,6.18524e-18,0.472806
1.63363,0.136637,5.25751e-18,0.472806
1.63664,0.136336,8.60327e-19,0.472806
1.63964,0.136036,3.40204e-18,0.472806
1.64264,0.135736,2.4743e-18,0.472806
1.64565,0.135435,1.98025e-18,0.472806
1.64865,0.135135,3.54627e-18,0.472431
1.65165,0.134835,7.94895e-18,0.472431
1.65465,0.134535,8.88219e-18,0.472431
1.65766,0.134234,9.81543e-18,0.472431
1.66066,0.133934,1.42181e-17,0.472431
1.66366,0.133634,1.77534e-17,0.472431
1.66667,0.133333,1.72221e-17,0.472431
1.66967,0.133033,1.97583e-17,0.472431
1.67267,0.132733,1.81312e-17,0.472431
1.67568,0.132432,1.47693e-17,0.472431
1.67868,0.132132,1.76525e-17,0.472431
1.68168,0.131832,1.5982e-17,0.472431
1.68468,0.131532,1.40553e-17,0.472101
1.68769,0.131231,1.08308e-17,0.472101
1.69069,0.130931,7.60637e-18,0.472101
1.69369,0.130631,9.23913e-18,0.472101
1.6967,0.13033,6.36161e-18,0.472101
1.6997,0.13003,4.1487e-18,0.472101
1.7027,0.12973,4.59761e-18,0.472101
1.70571,0.129429,5.74041e-18,0.472101
1.70871,0.129129,8.27098e-18,0.472101
1.71171,0.128829,7.33211e-18,0.472101
1.71471,0.128529,5.87283e-18,0.472101
1.71772,0.128228,4.26235e-18,0.471972
1.72072,0.127928,4.5131e-18,0.471972
1.72372,0.127628,5.80467e-18,0.471972
1.72673,0.127327,3.97375e-18,0.471972
1.72973,0.127027,3.01019e-18,0.471972
1.73273,0.126727,2.04663e-18,0.471972
1.73574,0.126426,3.94763e-18,0.471972
1.73874,0.126126,4.39078e-18,0.471972
1.74174,0.125826,6.56865e-18,0.471972
1.74474,0.125526,9.09346e-18,0.471972
1.74775,0.125225,1.11846e-17,0.471972
1.75075,0.124925,1.11858e-17,0.471972
1.75375,0.124625,1.07486e-17,0.471972
1.75676,0.124324,1.13521e-17,0.471972
1.75976,0.124024,1.40374e-17,0.471972
1.76276,0.123724,1.32532e-17,0.471972
1.76577,0.123423,1.38785e-17,0.471972
1.76877,0.123123,1.50299e-17,0.471972
1.77177,0.122823,1.54672e-17,0.471972
1.77477,0.122523,1.69452e-17,0.471972
1.77778,0.122222,1.66886e-17,0.471972
1.78078,0.121922,1.53044e-17,0.471972
1.78378,0.121622,1.81753e-17,0.47204
1.78679,0.121321,1.8438e-17,0.47204
1.78979,0.121021,1.76598e-17,0.47204
1.79279,0.120721,1.82695e-17,0.47204
1.7958,0.12042,1.80117e-17,0.47204
1.7988,0.12012,1.03485e-17,0.47204
1.8018,0.11982,1.35553e-17,0.47204
1.8048,0.11952,1.22518e-17,0.47204
1.80781,0.119219,1.51116e-17,0.47204
1.81081,0.118919,1.69306e-17,0.47204
1.81381,0.118619,1.59089e-17,0.47204
1.81682,0.118318,1.34379e-17,0.472099
1.81982,0.118018,1.37068e-17,0.472099
1.82282,0.117718,1.39756e-17,0.472099
1.82583,0.117417,1.51119e-17,0.472099
1.82883,0.117117,1.39062e-17,0.472099
1.83183,0.116817,1.29734e-17,0.472099
1.83483,0.116517,1.40923e-17,0.472099
1.83784,0.116216,1.34765e-17,0.472099
1.84084,0.115916,1.45954e-17,0.472099
1.84384,0.115616,1.31556e-17,0.472099
1.84685,0.115315,1.54366e-17,0.472136
1.84985,0.115015,1.29362e-17,0.472136
1.85285,0.114715,1.39053e-17,0.472136
1.85586,0.114414,1.48744e-17,0.472136
1.85886,0.114114,1.32414e-17,0.472136
1.86186,0.113814,1.51064e-17,0.472136
1.86486,0.113514,1.48312e-17,0.472136
1.86787,0.113213,1.28213e-17,0.472136
1.87087,0.112913,1.34134e-17,0.472136
1.87387,0.112613,1.46995e-17,0.472136
1.87688,0.112312,9.8653e-18,0.472158
1.87988,0.112012,8.0653e-18,0.472158
1.88288,0.111712,9.3878e-18,0.472158
1.88589,0.111411,1.15777e-17,0.472158
1.88889,0.111111,9.43072e-18,0.472158
1.89189,0.110811,1.23186e-17,0.472158
1.89489,0.110511,1.20369e-17,0.472158
1.8979,0.11021,1.76533e-17,0.472158
1.9009,0.10991,1.84125e-17,0.472158
1.9039,0.10961,1.94319e-17,0.472158
1.90691,0.109309,1.61559e-17,0.472161
1.90991,0.109009,1.92198e-17,0.472161
1.91291,0.108709,2.22836e-17,0.472161
1.91592,0.108408,2.37862e-17,0.472161
1.91892,0.108108,2.63731e-17,0.472161
1.92192,0.107808,2.61176e-17,0.472161
1.92492,0.107508,2.47885e-17,0.472161
1.92793,0.107207,2.17246e-17,0.472161
1.93093,0.106907,1.93547e-17,0.472161
1.93393,0.106607,2.43021e-17,0.47213
1.93694,0.106306,2.18216e-17,0.47213
1.93994,0.106006,2.28106e-17,0.47213
1.94294,0.105706,2.24118e-17,0.47213
1.94595,0.105405,2.14058e-17,0.47213
1.94895,0.105105,2.27948e-17,0.47213
1.95195,0.104805,2.6663e-17,0.47213
1.95495,0.104505,2.35924e-17,0.47213
1.95796,0.104204,2.52055e-17,0.47213
1.96096,0.103904,2.50839e-17,0.47213
1.96396,0.103604,2.17063e-17,0.472058
1.96697,0.103303,2.13144e-17,0.472058
1.96997,0.103003,1.91878e-17,0.472058
1.97297,0.102703,1.86225e-17,0.472058
1.97598,0.102402,1.94129e-17,0.472058
1.97898,0.102102,2.11926e-17,0.472058
1.98198,0.101802,2.05436e-17,0.472058
1.98498,0.101502,2.19763e-17,0.472058
1.98799,0.101201,2.3409e-17,0.472058
1.99099,0.100901,2.51216e-17,0.471959
1.99399,0.100601,2.68185e-17,0.471959
1.997,0.1003,3.02501e-17,0.471959
2,0.1,3.43757e-17,0.471959
2.003,0.0996997,3.46306e-17,0.471959
2.00601,0.0993994,3.64767e-17,0.471959
2.00901,0.0990991,3.72084e-17,0.471959
2.01201,0.0987988,3.68993e-17,0.471959
2.01502,0.0984985,3.65901e-17,0.471959
2.01802,0.0981982,3.62339e-17,0.471875
2.02102,0.0978979,3.58564e-17,0.471875
2.02402,0.0975976,3.86015e-17,0.471875
2.02703,0.0972973,3.96118e-17,0.471875
2.08709,0.0912913,3.17005e-18,0.471684
2.09009,0.090991,3.87942e-18,0.471684
2.09309,0.0906907,-7.88859e-19,0.471684
2.0961,0.0903904,-4.3497e-19,0.471536
2.0991,0.0900901,-7.8959e-19,0.471536
2.1021,0.0897898,5.90513e-19,0.471536
2.10511,0.0894895,6.24207e-20,0.471536
2.10811,0.0891892,-1.616e-18,0.471536
2.12613,0.0873874,8.9667e-19,0.4713
2.12913,0.0870871,1.15719e-18,0.4713
2.13213,0.0867868,4.90493e-19,0.4713
2.13514,0.0864865,2.9188e-18,0.4713
2.13814,0.0861862,1.87766e-18,0.4713
2.14114,0.0858859,2.57124e-18,0.4713
2.14414,0.0855856,7.84223e-18,0.470954
2.14715,0.0852853,1.02793e-17,0.470954
2.15015,0.084985,1.13286e-17,0.470954
2.15315,0.0846847,1.23779e-17,0.470954
2.15616,0.0843844,1.29405e-17,0.470954
2.15916,0.0840841,1.05034e-17,0.470954
2.16216,0.0837838,8.06635e-18,0.470954
2.16517,0.0834835,5.62926e-18,0.470954
2.16817,0.0831832,7.2227e-18,0.470543
2.17117,0.0828829,9.32121e-18,0.470543
2.17417,0.0825826,1.00319e-17,0.470543
2.17718,0.0822823,1.11384e-17,0.470543
2.18018,0.081982,1.00572e-17,0.470543
2.18318,0.0816817,1.03873e-17,0.470543
2.18619,0.0813814,8.11529e-18,0.470543
2.18919,0.0810811,9.07661e-18,0.470166
2.19219,0.0807808,8.75507e-18,0.470166
2.1952,0.0804805,1.1903e-17,0.470166
2.1982,0.0801802,1.07141e-17,0.470166
2.2012,0.0798799,8.86291e-18,0.470166
2.21922,0.0780781,7.61954e-18,0.469909
2.22222,0.0777778,4.14242e-18,0.469909
2.22523,0.0774775,5.84298e-18,0.469909
2.22823,0.0771772,4.42103e-18,0.469909
2.23123,0.0768769,2.99909e-18,0.469909
2.23423,0.0765766,2.24295e-18,0.469785
2.23724,0.0762763,-4.89471e-19,0.469785
2.24024,0.075976,-4.46338e-19,0.469785
2.24324,0.0756757,-2.39814e-18,0.469785
2.32733,0.0672673,-3.06528e-18,0.469925
2.33033,0.066967,3.22999e-19,0.469925
2.33333,0.0666667,4.2317e-18,0.469925
2.33634,0.0663664,7.82344e-18,0.470086
2.33934,0.0660661,7.91468e-18,0.470086
2.34234,0.0657658,1.11284e-17,0.470086
2.34535,0.0654655,8.90313e-18,0.470086
2.34835,0.0651652,7.77106e-18,0.470086
2.35135,0.0648649,7.1594e-18,0.470086
2.35435,0.0645646,7.67802e-18,0.470282
2.35736,0.0642643,4.65707e-18,0.470282
2.36036,0.063964,5.10556e-18,0.470282
2.36336,0.0636637,2.77261e-18,0.470282
2.36637,0.0633634,5.79357e-18,0.470282
2.36937,0.0630631,7.77369e-18,0.470282
2.37237,0.0627628,1.22908e-17,0.470282
2.37538,0.0624625,8.05155e-18,0.470484
2.37838,0.0621622,6.08199e-18,0.470484
2.38138,0.0618619,6.93135e-18,0.470484
2.38438,0.0615616,5.14298e-18,0.470484
2.38739,0.0612613,8.15338e-18,0.470484
2.39039,0.060961,9.6459e-18,0.470484
2.39339,0.0606607,4.57019e-18,0.47067
2.3964,0.0603604,8.85643e-18,0.47067
2.3994,0.0600601,9.67322e-18,0.47067
2.4024,0.0597598,1.06736e-17,0.47067
2.40541,0.0594595,1.26324e-17,0.47067
2.40841,0.0591592,9.04002e-18,0.47067
2.41141,0.0588589,1.36449e-17,0.470829
2.41441,0.0585586,1.06563e-17,0.470829
2.43544,0.0564565,1.20682e-18,0.470972
2.43844,0.0561562,-6.73184e-19,0.470972
2.44144,0.0558559,-8.18461e-19,0.470972
2.44444,0.0555556,4.43953e-18,0.471115
2.44745,0.0552553,3.55556e-18,0.471115
2.45045,0.054955,6.44461e-18,0.471115
2.45345,0.0546547,5.84517e-18,0.471115
2.45646,0.0543544,9.15776e-18,0.471115
2.45946,0.0540541,1.11224e-17,0.471261
2.46246,0.0537538,9.55635e-18,0.471261
2.46547,0.0534535,9.37812e-18,0.471261
2.4985,0.0501502,-4.34259e-18,0.471596
2.5015,0.0498498,-4.47695e-19,0.471596
2.5045,0.0495495,-6.40963e-19,0.471596
2.50751,0.0492492,-4.01969e-18,0.471777
2.51051,0.0489489,-2.07899e-18,0.471777
2.51351,0.0486486,-5.16898e-18,0.471777
2.51652,0.0483483,-5.27187e-18,0.471777
2.51952,0.048048,-4.09007e-18,0.471777
2.52252,0.0477477,-4.72139e-18,0.471961
2.52553,0.0474474,-4.15546e-18,0.471961
2.52853,0.0471471,7.47286e-19,0.471961
2.53153,0.0468468,7.18692e-18,0.471961
2.53453,0.0465465,6.62099e-18,0.471961
2.53754,0.0462462,9.21498e-18,0.472149
2.54054,0.0459459,8.7534e-18,0.472149
2.56156,0.0438438,1.7152e-18,0.472296
2.56456,0.0435435,-4.86195e-20,0.472296
2.56757,0.0432432,-5.02768e-18,0.472408
2.57057,0.0429429,-8.58419e-18,0.472408
2.57357,0.0426426,-5.20655e-18,0.472408
2.57658,0.0423423,-3.90518e-18,0.472408
2.64865,0.0351351,-5.3403e-18,0.472904
2.65165,0.0348348,-4.13945e-18,0.472904
2.65465,0.0345345,-2.0616e-18,0.472904
2.65766,0.0342342,-2.08197e-18,0.472965
2.66066,0.0339339,-1.99418e-20,0.472965
2.69069,0.0309309,-5.8029e-18,0.472928
2.69369,0.0306306,-8.33314e-18,0.472928
2.6967,0.0303303,-9.25942e-18,0.472928
2.6997,0.03003,-1.16515e-17,0.472928
2.7027,0.0297297,-1.31311e-17,0.472988
2.70571,0.0294294,-1.26326e-17,0.472988
2.70871,0.0291291,-1.79267e-17,0.472988
2.71171,0.0288288,-2.11806e-17,0.473026
2.71471,0.0285285,-1.81233e-17,0.473026
2.71772,0.0282282,-1.85877e-17,0.473026
2.72072,0.0279279,-1.47495e-17,0.473026
2.72372,0.0276276,-1.1015e-17,0.473003
2.72673,0.0273273,-1.06228e-17,0.473003
2.72973,0.027027,-1.21378e-17,0.473003
2.73273,0.0267267,-1.54796e-17,0.472968
2.73574,0.0264264,-1.52464e-17,0.472968
2.78378,0.0216216,3.82752e-19,0.472898
2.78679,0.0213213,-6.48021e-19,0.472898
2.78979,0.021021,1.87136e-18,0.472934
2.80781,0.0192192,-3.05503e-18,0.472996
2.81081,0.0189189,-1.16647e-18,0.472996
2.81381,0.0186186,-2.3211e-18,0.472983
2.81682,0.0183183,-5.65387e-18,0.472983
2.81982,0.018018,-6.34301e-18,0.472983
2.82282,0.0177177,-9.60268e-18,0.472963
2.82583,0.0174174,-3.94779e-18,0.472963
2.82883,0.0171171,-2.62098e-18,0.47294
2.83183,0.0168168,-2.14272e-18,0.47294
2.84084,0.0159159,-1.76116e-18,0.472913
2.84384,0.0156156,-2.67673e-18,0.472883
2.84685,0.0153153,-5.70297e-18,0.472883
2.84985,0.015015,-6.18941e-18,0.472883
2.85285,0.0147147,-5.8401e-18,0.472854
2.86186,0.0138138,4.04873e-18,0.472827
2.86486,0.0135135,1.38297e-18,0.472827
2.86787,0.0132132,5.64569e-18,0.472801
2.87087,0.0129129,2.84949e-18,0.472801
2.87387,0.0126126,1.16413e-18,0.472773
2.87688,0.0123123,-5.18765e-18,0.472773
2.87988,0.012012,-8.47036e-18,0.472739
2.88288,0.0117117,-7.37864e-18,0.472739
2.8979,0.0102102,-6.1084e-19,0.472577
2.9009,0.00990991,3.40454e-18,0.472577
2.9039,0.00960961,6.98676e-18,0.472513
2.91291,0.00870871,7.50788e-18,0.472457
2.91592,0.00840841,3.64547e-18,0.472408
2.91892,0.00810811,2.5187e-18,0.472408
2.92492,0.00750751,2.32852e-19,0.472362
2.92793,0.00720721,-1.03892e-19,0.472315
2.93093,0.00690691,-3.51632e-18,0.472315
2.93393,0.00660661,-1.86305e-18,0.472266
2.93694,0.00630631,-9.7731e-18,0.472266
2.93994,0.00600601,-6.96658e-18,0.472215
2.95796,0.0042042,1.6757e-18,0.472016
2.96997,0.003003,2.5445e-18,0.471927
2.97297,0.0027027,5.47537e-19,0.471878
2.97598,0.0024024,4.35698e-18,0.471831
2.97898,0.0021021,3.763e-18,0.471831
2.98198,0.0018018,9.57148e-18,0.471781
2.997,0.0003003,-3.22168e-18,0.471512
3,-7.61008e-18,-1.01244e-18,0.483862
