/*--------------------------------*- C++ -*----------------------------------*\
  =========                 |
  \\      /  F ield         | OpenFOAM: The Open Source CFD Toolbox
   \\    /   O peration     | Website:  https://openfoam.org
    \\  /    A nd           | Version:  7
     \\/     M anipulation  |
\*---------------------------------------------------------------------------*/
FoamFile
{
    version     2.0;
    format      ascii;
    class       volScalarField;
    location    "9";
    object      T;
}
// * * * * * * * * * * * * * * * * * * * * * * * * * * * * * * * * * * * * * //

dimensions      [0 0 0 1 0 0 0];

internalField   nonuniform List<scalar> 
24000
(
0.72915
0.779179
0.818436
0.85133
0.881016
0.902456
0.920173
0.938641
0.955743
0.972
0.988455
1.00602
1.02347
1.04202
1.06094
1.07837
1.09196
1.09953
1.10012
1.09957
1.09793
1.09571
1.09175
1.08758
1.08333
1.07875
1.07485
1.0763
1.07961
1.08311
1.08623
1.08602
1.08362
1.08008
1.0774
1.07841
1.0804
1.08044
1.07884
1.07657
1.07681
1.07809
1.07781
1.07629
1.07493
1.07522
1.07502
1.07445
1.07395
1.07307
0.68181
0.681725
0.681633
0.681557
0.681734
0.682299
0.683628
0.686429
0.691772
0.700149
0.713931
0.733348
0.761
0.795795
0.839325
0.885927
0.933791
0.973536
1.00624
1.03395
1.05384
1.06953
1.07668
1.08229
1.08263
1.08303
1.08538
1.09038
1.09468
1.0953
1.09448
1.09119
1.08705
1.08455
1.08484
1.08665
1.0885
1.08692
1.0842
1.08291
1.08457
1.085
1.08391
1.0819
1.08163
1.082
1.08159
1.08049
1.08018
1.07948
0.680001
0.679945
0.679879
0.679764
0.679642
0.679544
0.679382
0.679145
0.678901
0.678659
0.678399
0.678144
0.677938
0.677682
0.677991
0.679633
0.686352
0.701306
0.732882
0.776972
0.833713
0.889769
0.943248
0.990168
1.02979
1.06344
1.0846
1.092
1.09547
1.09536
1.093
1.08242
1.08297
1.0854
1.0902
1.09169
1.09062
1.08702
1.08507
1.08596
1.08861
1.08827
1.08601
1.08435
1.0849
1.08527
1.08448
1.08359
1.08339
1.08281
0.677617
0.677541
0.677506
0.677438
0.677317
0.677182
0.677078
0.676964
0.676824
0.676672
0.676523
0.676383
0.676251
0.676146
0.67603
0.675879
0.675704
0.675534
0.675373
0.675164
0.675834
0.68018
0.696362
0.732414
0.793019
0.8655
0.935734
0.988666
1.02671
1.05111
1.06254
1.06736
1.08145
1.08862
1.09422
1.09231
1.08767
1.08411
1.08464
1.08831
1.09044
1.08853
1.08455
1.08458
1.08643
1.08616
1.08444
1.084
1.08417
1.08373
0.675622
0.675566
0.675503
0.675435
0.67537
0.675296
0.675226
0.675172
0.67511
0.675018
0.674932
0.674868
0.6748
0.67471
0.674646
0.674622
0.674608
0.674609
0.674612
0.67461
0.674638
0.674708
0.674787
0.674898
0.675262
0.6783
0.696481
0.741056
0.815782
0.895098
0.971408
1.03146
1.0687
1.07873
1.08658
1.08597
1.07999
1.08043
1.08523
1.08839
1.08776
1.08367
1.08198
1.08432
1.08589
1.08484
1.08322
1.08351
1.08373
1.08349
0.674628
0.674586
0.674555
0.67452
0.674438
0.67434
0.674293
0.67428
0.674252
0.674199
0.674187
0.674194
0.674204
0.674215
0.674219
0.674209
0.674189
0.67418
0.674218
0.674309
0.674416
0.674533
0.674713
0.675054
0.67533
0.675348
0.675297
0.674938
0.675408
0.685391
0.725701
0.819709
0.912671
0.980061
1.04069
1.05442
1.06807
1.07899
1.08893
1.08818
1.08147
1.07777
1.08004
1.08477
1.08439
1.08151
1.08082
1.08257
1.08248
1.08238
0.67432
0.674286
0.674258
0.674236
0.674199
0.6741
0.674003
0.673983
0.673973
0.673967
0.673975
0.674022
0.67407
0.67412
0.674153
0.674148
0.674133
0.674118
0.674129
0.67424
0.674468
0.674661
0.674882
0.675236
0.675405
0.675409
0.675364
0.675032
0.67442
0.674245
0.6741
0.675396
0.689041
0.756447
0.855626
0.955436
1.04075
1.06933
1.08261
1.08036
1.07208
1.0747
1.08099
1.08334
1.08067
1.07768
1.0794
1.08097
1.0802
1.08038
0.674263
0.674239
0.674222
0.674199
0.674113
0.674025
0.674013
0.67402
0.674043
0.674091
0.674185
0.674308
0.674376
0.674443
0.67448
0.674459
0.674423
0.674412
0.674417
0.674467
0.674595
0.674731
0.674961
0.67497
0.674927
0.674884
0.674839
0.674594
0.674331
0.674228
0.674337
0.674457
0.674597
0.674527
0.678208
0.725673
0.827581
0.932576
1.0222
1.04399
1.06137
1.07834
1.08433
1.08256
1.0747
1.07526
1.07958
1.07968
1.07785
1.07853
0.674695
0.674716
0.674711
0.674709
0.674712
0.67471
0.674678
0.674663
0.674687
0.674726
0.674802
0.674877
0.674875
0.674849
0.67482
0.674736
0.674598
0.674548
0.674507
0.674424
0.674383
0.6743
0.67414
0.673965
0.673823
0.673873
0.674025
0.674031
0.67408
0.674271
0.674615
0.675066
0.67518
0.675097
0.674775
0.674305
0.675664
0.710548
0.807003
0.933507
1.03733
1.07141
1.08043
1.07516
1.07045
1.0767
1.07966
1.07759
1.0756
1.07763
0.675355
0.675356
0.675355
0.67535
0.675338
0.675329
0.675317
0.675241
0.675166
0.675139
0.675116
0.675072
0.674994
0.674909
0.674821
0.674639
0.674463
0.674397
0.674226
0.674016
0.673856
0.673611
0.673331
0.673078
0.673065
0.673332
0.673716
0.673736
0.673795
0.674164
0.674821
0.675285
0.675331
0.675231
0.6748
0.673871
0.673442
0.673325
0.674292
0.711599
0.82461
0.943348
1.03356
1.05499
1.06849
1.08199
1.08037
1.07341
1.07472
1.07814
0.675815
0.675817
0.675794
0.675728
0.675711
0.675668
0.675595
0.67552
0.675425
0.675326
0.675235
0.675101
0.674906
0.67475
0.67462
0.674386
0.674193
0.674083
0.673855
0.673558
0.673405
0.67325
0.67302
0.672839
0.672893
0.673365
0.673897
0.67386
0.673814
0.674156
0.674903
0.675382
0.675425
0.675291
0.674568
0.673446
0.672902
0.672829
0.673035
0.673346
0.675486
0.721457
0.84393
0.985903
1.06095
1.08103
1.07421
1.0706
1.07725
1.07898
0.675014
0.674967
0.67477
0.674561
0.67456
0.674505
0.674304
0.674174
0.674062
0.674027
0.673979
0.673886
0.673922
0.673887
0.673622
0.673362
0.673252
0.673296
0.673259
0.673072
0.673034
0.673171
0.673165
0.672996
0.673119
0.673754
0.674184
0.674
0.673698
0.673898
0.674388
0.674689
0.674654
0.674278
0.673533
0.672698
0.672356
0.672383
0.672667
0.673024
0.673824
0.673933
0.678335
0.753987
0.898627
1.01886
1.04818
1.0713
1.08186
1.07969
0.672122
0.672046
0.671975
0.671934
0.671908
0.671825
0.671784
0.671812
0.671849
0.671916
0.672264
0.672596
0.672691
0.672652
0.672411
0.672351
0.67236
0.672438
0.672705
0.672897
0.673318
0.67402
0.674399
0.674417
0.674322
0.674405
0.674406
0.674198
0.67375
0.673119
0.67283
0.672775
0.672904
0.672876
0.672596
0.672104
0.671823
0.671909
0.672201
0.673263
0.67407
0.673913
0.673041
0.671831
0.692341
0.803283
0.966959
1.064
1.07923
1.07615
0.6699
0.669919
0.669914
0.669906
0.669907
0.669979
0.669968
0.669898
0.669899
0.670084
0.670894
0.671741
0.671878
0.671978
0.672019
0.671996
0.672443
0.673678
0.673956
0.674246
0.675593
0.676644
0.676592
0.675972
0.674878
0.674201
0.673964
0.673696
0.673367
0.672731
0.672086
0.671906
0.671984
0.672186
0.672198
0.671988
0.671924
0.672234
0.673015
0.674123
0.674099
0.673698
0.672477
0.671498
0.67161
0.673648
0.736331
0.889159
1.0125
1.06446
0.673232
0.673507
0.673314
0.672933
0.672803
0.672719
0.672615
0.672521
0.672484
0.672594
0.673463
0.67426
0.6743
0.674367
0.675084
0.675456
0.675889
0.676981
0.6773
0.67755
0.678416
0.678819
0.678512
0.677225
0.675399
0.674948
0.674708
0.674186
0.674337
0.674377
0.67357
0.672928
0.672979
0.67311
0.673493
0.674438
0.675673
0.676477
0.676261
0.67537
0.674836
0.674396
0.672476
0.672719
0.67446
0.67691
0.676241
0.692124
0.802369
1.02596
0.682595
0.681686
0.680108
0.679742
0.679832
0.679968
0.679468
0.678199
0.677657
0.677474
0.677157
0.676989
0.677087
0.677434
0.67803
0.678328
0.678268
0.678124
0.677384
0.67725
0.677807
0.678034
0.677715
0.676528
0.674836
0.674227
0.674211
0.674336
0.67478
0.675818
0.676381
0.676416
0.676287
0.676864
0.678426
0.680415
0.681288
0.680929
0.679557
0.677261
0.674677
0.674661
0.677032
0.680446
0.682327
0.680915
0.677272
0.677972
0.680205
0.849039
0.692811
0.691873
0.691645
0.691675
0.691663
0.691208
0.689576
0.688938
0.689074
0.690225
0.690458
0.690321
0.690934
0.692238
0.693008
0.693083
0.692802
0.691785
0.690911
0.689775
0.687596
0.686163
0.686463
0.687667
0.689074
0.69058
0.692354
0.694407
0.696817
0.698824
0.698988
0.69837
0.697155
0.69623
0.69599
0.695746
0.695036
0.693754
0.69243
0.692627
0.693478
0.694828
0.696555
0.696148
0.694698
0.692072
0.692647
0.69452
0.694966
0.704626
0.717075
0.717716
0.718562
0.719098
0.719077
0.7185
0.71815
0.718419
0.718826
0.718997
0.71889
0.718294
0.717548
0.717413
0.717604
0.717758
0.71781
0.718039
0.718469
0.718455
0.718173
0.718304
0.718823
0.718886
0.718332
0.717054
0.715678
0.714388
0.713531
0.713414
0.71344
0.71285
0.710954
0.709056
0.708047
0.706747
0.705094
0.705232
0.706477
0.707964
0.709379
0.709135
0.707963
0.706134
0.703965
0.704422
0.705116
0.705816
0.704766
0.70244
0.746056
0.746073
0.746304
0.746373
0.746164
0.745279
0.74497
0.745203
0.745092
0.743918
0.743086
0.74278
0.742157
0.741271
0.740421
0.739314
0.738928
0.738982
0.738631
0.738206
0.738439
0.738663
0.738546
0.737896
0.736387
0.736129
0.736468
0.735641
0.732881
0.730533
0.729275
0.729139
0.72979
0.7316
0.732576
0.732463
0.732229
0.732622
0.732412
0.73168
0.730107
0.728287
0.725841
0.723712
0.722447
0.722529
0.722238
0.721031
0.719236
0.717104
0.779574
0.778829
0.778181
0.77812
0.778595
0.778991
0.778969
0.778884
0.778439
0.777867
0.77786
0.777871
0.777565
0.776942
0.776524
0.776175
0.775442
0.774679
0.774122
0.773297
0.772122
0.771092
0.770629
0.770323
0.769632
0.769342
0.769836
0.769621
0.768173
0.767161
0.766443
0.764789
0.763373
0.762432
0.761356
0.759338
0.756887
0.754572
0.752005
0.748916
0.745781
0.743543
0.741564
0.741166
0.741164
0.740658
0.738991
0.736624
0.734216
0.731072
0.816081
0.815498
0.815458
0.815532
0.815056
0.814149
0.814065
0.81406
0.813368
0.812969
0.812744
0.811875
0.811526
0.811328
0.810493
0.809308
0.808453
0.808114
0.807716
0.807019
0.806061
0.805132
0.804252
0.803251
0.8019
0.800388
0.798666
0.796936
0.795013
0.793617
0.792106
0.790233
0.788753
0.786584
0.783457
0.780792
0.778726
0.776804
0.775193
0.773158
0.771961
0.771084
0.770042
0.768462
0.766444
0.76311
0.759497
0.755369
0.752458
0.749295
0.853882
0.853819
0.853255
0.852346
0.852276
0.852283
0.85188
0.851314
0.850499
0.850311
0.850182
0.849584
0.848526
0.847848
0.84741
0.846789
0.845862
0.844805
0.843764
0.842811
0.84178
0.840563
0.839286
0.837907
0.836476
0.83514
0.833708
0.832167
0.830371
0.828277
0.826027
0.823477
0.82181
0.820197
0.817711
0.814877
0.812659
0.810345
0.807624
0.804886
0.801493
0.798149
0.793921
0.789686
0.784806
0.780213
0.776466
0.772411
0.7715
0.768677
0.885349
0.884748
0.884641
0.884747
0.884648
0.884117
0.883762
0.883219
0.883012
0.882906
0.882552
0.881706
0.881155
0.880846
0.880404
0.879732
0.878913
0.878095
0.87728
0.876361
0.875317
0.874192
0.872957
0.871643
0.870223
0.868652
0.866986
0.865168
0.863258
0.861263
0.859214
0.85691
0.854166
0.850987
0.848179
0.845052
0.841759
0.838118
0.83444
0.830252
0.82619
0.821686
0.817424
0.813344
0.809251
0.806233
0.803057
0.800543
0.797322
0.790399
0.902056
0.901988
0.901956
0.901852
0.901698
0.901571
0.901462
0.901236
0.901071
0.900985
0.900855
0.900555
0.900282
0.90017
0.900002
0.899666
0.899242
0.898852
0.89851
0.898129
0.897655
0.897108
0.89646
0.895657
0.894716
0.893652
0.89249
0.891339
0.890104
0.88878
0.887249
0.885455
0.883464
0.881122
0.878243
0.875392
0.872381
0.869111
0.865547
0.861713
0.857749
0.853436
0.849316
0.844775
0.840414
0.835387
0.830161
0.82435
0.818226
0.808773
0.906293
0.906278
0.906261
0.906262
0.906281
0.906288
0.906288
0.906283
0.906261
0.906235
0.906204
0.906165
0.906149
0.906135
0.906075
0.905965
0.90588
0.905788
0.905754
0.905736
0.905675
0.905552
0.905423
0.905262
0.905032
0.904724
0.904351
0.903983
0.903584
0.903015
0.90235
0.901753
0.901064
0.900165
0.89893
0.897266
0.895243
0.892993
0.890465
0.887668
0.884289
0.880462
0.87605
0.871313
0.866178
0.86042
0.854522
0.847979
0.842277
0.833505
0.906815
0.906806
0.906788
0.906797
0.906864
0.906909
0.90691
0.906928
0.906981
0.90699
0.906967
0.906956
0.907001
0.907104
0.90712
0.907155
0.907257
0.907306
0.907359
0.907427
0.907398
0.907355
0.907391
0.907509
0.907479
0.907307
0.906965
0.906563
0.906288
0.906243
0.906231
0.906231
0.906103
0.905771
0.905554
0.905302
0.904756
0.903901
0.902993
0.901993
0.900664
0.898825
0.896436
0.893551
0.890093
0.885951
0.881127
0.875529
0.870236
0.860426
0.907864
0.907868
0.9079
0.907918
0.907905
0.907857
0.907922
0.907956
0.907957
0.907901
0.907878
0.90792
0.907942
0.907871
0.907689
0.907476
0.907429
0.907455
0.907358
0.907045
0.906896
0.906907
0.907089
0.907714
0.908507
0.90882
0.90869
0.908016
0.907434
0.907113
0.906856
0.906839
0.906946
0.907154
0.907395
0.907402
0.907257
0.906929
0.906651
0.906516
0.906307
0.905927
0.905297
0.90437
0.903078
0.901251
0.898679
0.895269
0.891402
0.883085
0.912637
0.912731
0.912726
0.912637
0.912484
0.912453
0.912472
0.912573
0.912623
0.912574
0.912466
0.912269
0.911911
0.911816
0.911883
0.911814
0.911353
0.910729
0.910558
0.91044
0.910088
0.909551
0.909466
0.90965
0.909694
0.909749
0.909959
0.909661
0.90951
0.909534
0.90962
0.90966
0.909225
0.908378
0.908207
0.908452
0.908717
0.908609
0.908285
0.90799
0.907747
0.907545
0.907292
0.906901
0.906428
0.905766
0.90483
0.903571
0.902219
0.898387
0.923148
0.922878
0.922743
0.922796
0.922916
0.922857
0.922514
0.92228
0.921987
0.921829
0.92181
0.92168
0.921212
0.921011
0.92096
0.920695
0.920329
0.920326
0.920314
0.92003
0.919638
0.919264
0.918987
0.918611
0.918025
0.91733
0.916647
0.915989
0.915098
0.914611
0.914747
0.914738
0.914225
0.913415
0.912336
0.911743
0.911571
0.911186
0.910543
0.910104
0.909637
0.909108
0.908756
0.908342
0.907989
0.907792
0.907486
0.907108
0.906969
0.906037
0.945551
0.945407
0.94524
0.945206
0.945084
0.944635
0.944322
0.94435
0.944191
0.943681
0.943043
0.942881
0.942822
0.942489
0.941811
0.941301
0.940868
0.94033
0.939751
0.939102
0.938335
0.937552
0.936784
0.935987
0.935125
0.934306
0.933529
0.932671
0.931621
0.930445
0.92928
0.927849
0.9262
0.925385
0.924448
0.923145
0.921353
0.920182
0.919049
0.917735
0.916657
0.915417
0.914408
0.913487
0.912321
0.91181
0.911302
0.910533
0.909874
0.908554
0.973793
0.973477
0.97348
0.973606
0.973513
0.973193
0.972633
0.972297
0.972298
0.97212
0.971466
0.970733
0.970596
0.970442
0.969955
0.969234
0.968606
0.968037
0.967407
0.966677
0.965861
0.964996
0.964092
0.963117
0.962025
0.960843
0.959576
0.958251
0.956739
0.955148
0.95352
0.951811
0.950011
0.948003
0.94562
0.943555
0.941459
0.938942
0.936604
0.934061
0.93157
0.929083
0.926432
0.924154
0.921803
0.919508
0.917408
0.915414
0.91357
0.911054
0.993765
0.993605
0.993389
0.993293
0.993334
0.993345
0.993234
0.992966
0.992651
0.99262
0.992582
0.992343
0.992024
0.991797
0.991588
0.991328
0.990989
0.990589
0.990186
0.989784
0.989322
0.988799
0.988205
0.987547
0.986813
0.985986
0.985068
0.984043
0.982939
0.981673
0.98028
0.978733
0.976956
0.975056
0.973027
0.970635
0.968133
0.965417
0.96242
0.959292
0.955855
0.95235
0.948678
0.944719
0.940988
0.937082
0.933225
0.929578
0.926498
0.921953
0.999454
0.999442
0.999428
0.999412
0.999377
0.999367
0.999365
0.99935
0.999303
0.999268
0.999259
0.99924
0.999195
0.99914
0.999092
0.999045
0.998989
0.998919
0.998837
0.998746
0.998645
0.998526
0.998388
0.998228
0.998043
0.99782
0.997561
0.997258
0.9969
0.996479
0.995971
0.99537
0.994655
0.993801
0.992781
0.991592
0.990141
0.988467
0.986471
0.984159
0.98149
0.978402
0.974936
0.971055
0.966749
0.962085
0.95722
0.951907
0.947061
0.939116
0.999985
0.999984
0.999984
0.999984
0.999983
0.999982
0.999981
0.999981
0.999979
0.999978
0.999977
0.999976
0.999974
0.999972
0.99997
0.999967
0.999964
0.999961
0.999957
0.999952
0.999946
0.999938
0.99993
0.999919
0.999906
0.99989
0.999869
0.999843
0.99981
0.999768
0.999713
0.999641
0.999547
0.999423
0.999258
0.999039
0.998746
0.998352
0.99783
0.997131
0.996209
0.994999
0.993419
0.991409
0.988853
0.98572
0.981919
0.977352
0.972672
0.963786
1
1
1
1
1
1
1
1
1
1
1
1
1
1
1
1
1
0.999999
0.999999
0.999999
0.999999
0.999999
0.999999
0.999999
0.999998
0.999998
0.999998
0.999997
0.999996
0.999995
0.999993
0.999991
0.999988
0.999983
0.999976
0.999965
0.999948
0.999922
0.999883
0.99982
0.999721
0.999566
0.999323
0.998943
0.998361
0.99748
0.996191
0.994283
0.991975
0.986194
1
1
1
1
1
1
1
1
1
1
1
1
1
1
1
1
1
1
1
1
1
1
1
1
1
1
1
1
1
1
1
1
1
1
1
0.999999
0.999999
0.999999
0.999998
0.999996
0.999993
0.999988
0.999977
0.999957
0.999917
0.999842
0.999701
0.999426
0.999009
0.997371
1
1
1
1
1
1
1
1
1
1
1
1
1
1
1
1
1
1
1
1
1
1
1
1
1
1
1
1
1
1
1
1
1
1
1
1
1
1
1
1
1
1
1
0.999999
0.999998
0.999997
0.999992
0.99998
0.999958
0.999796
1
1
1
1
1
1
1
1
1
1
1
1
1
1
1
1
1
1
1
1
1
1
1
1
1
1
1
1
1
1
1
1
1
1
1
1
1
1
1
1
1
1
1
1
1
1
1
1
0.999999
0.999994
1
1
1
1
1
1
1
1
1
1
1
1
1
1
1
1
1
1
1
1
1
1
1
1
1
1
1
1
1
1
1
1
1
1
1
1
1
1
1
1
1
1
1
1
1
1
1
1
1
1
1
1
1
1
1
1
1
1
1
1
1
1
1
1
1
1
1
1
1
1
1
1
1
1
1
1
1
1
1
1
1
1
1
1
1
1
1
1
1
1
1
1
1
1
1
1
1
1
1
1
0.682298
0.681908
0.680098
0.677689
0.675679
0.674692
0.67437
0.674292
0.674663
0.675344
0.675816
0.675046
0.67223
0.669951
0.67276
0.682838
0.692965
0.716832
0.746242
0.779872
0.816704
0.854058
0.885816
0.902255
0.906295
0.906814
0.907903
0.912463
0.923445
0.945735
0.974344
0.993878
0.999464
0.999985
1
1
1
1
1
1
0.682275
0.681869
0.680051
0.677618
0.67565
0.674722
0.674428
0.674334
0.67467
0.675343
0.67581
0.675007
0.672245
0.670256
0.672781
0.683056
0.693001
0.717633
0.747207
0.780586
0.817673
0.855211
0.886396
0.902515
0.906303
0.906812
0.907965
0.912349
0.923792
0.946349
0.974828
0.994041
0.999485
0.999986
1
1
1
1
1
1
0.682253
0.681866
0.680056
0.677613
0.675654
0.674754
0.67449
0.674377
0.674661
0.675321
0.675786
0.675003
0.672237
0.670356
0.67292
0.683024
0.69271
0.718143
0.747845
0.781329
0.818498
0.855907
0.886916
0.902706
0.906288
0.906798
0.908029
0.912339
0.923968
0.946824
0.975148
0.994181
0.999506
0.999987
1
1
1
1
1
1
0.68222
0.68187
0.680098
0.677614
0.675656
0.674773
0.674551
0.67443
0.674594
0.675169
0.675673
0.675029
0.672197
0.67036
0.67308
0.682977
0.692699
0.717991
0.748759
0.782378
0.819503
0.856766
0.887533
0.902926
0.906266
0.906796
0.908118
0.912457
0.924225
0.94723
0.975518
0.994319
0.999534
0.999988
1
1
1
1
1
1
0.682179
0.681874
0.680133
0.677609
0.67566
0.674793
0.674602
0.674491
0.67456
0.675103
0.675613
0.675034
0.672153
0.670272
0.67298
0.683139
0.693277
0.717886
0.749786
0.783384
0.820374
0.858069
0.888195
0.903153
0.906251
0.906844
0.908227
0.912596
0.924616
0.947669
0.975871
0.994474
0.999559
0.999989
1
1
1
1
1
1
0.682121
0.681855
0.68014
0.677603
0.675672
0.674818
0.674647
0.674553
0.674578
0.675116
0.67561
0.675027
0.672093
0.670184
0.672695
0.684004
0.694064
0.718985
0.750847
0.784346
0.821321
0.859112
0.888944
0.903381
0.906246
0.906931
0.90836
0.912557
0.924929
0.9481
0.976322
0.994694
0.999581
0.99999
1
1
1
1
1
1
0.68208
0.681729
0.680131
0.677607
0.675688
0.674852
0.674689
0.674603
0.674597
0.675141
0.675614
0.675014
0.672047
0.670168
0.672717
0.685035
0.694598
0.720428
0.751907
0.785259
0.822572
0.860157
0.889629
0.903595
0.906246
0.907005
0.90851
0.912484
0.925243
0.94865
0.976876
0.99491
0.999603
0.99999
1
1
1
1
1
1
0.682059
0.681682
0.68008
0.677617
0.675698
0.674895
0.67474
0.674648
0.674601
0.675138
0.675607
0.674995
0.672043
0.670249
0.673231
0.685392
0.695055
0.720833
0.752759
0.786203
0.824106
0.861282
0.890325
0.903801
0.906243
0.907064
0.90866
0.912515
0.925662
0.949233
0.977385
0.995098
0.999626
0.999991
1
1
1
1
1
1
0.682051
0.681676
0.680038
0.677609
0.675715
0.674941
0.67481
0.674698
0.674623
0.675114
0.675563
0.674938
0.672126
0.670472
0.673419
0.68532
0.695699
0.721345
0.753612
0.78751
0.825446
0.862438
0.891062
0.904007
0.906239
0.907115
0.908775
0.912807
0.926111
0.949768
0.977875
0.995276
0.999649
0.999992
1
1
1
1
1
1
0.682044
0.68168
0.680021
0.677585
0.67575
0.675
0.674908
0.674762
0.674663
0.674984
0.675305
0.674743
0.672123
0.670689
0.673212
0.685163
0.696575
0.722817
0.754607
0.789119
0.82676
0.863661
0.891823
0.904209
0.906239
0.907163
0.908827
0.913218
0.926565
0.950322
0.97837
0.99546
0.999672
0.999992
1
1
1
1
1
1
0.682041
0.681677
0.680007
0.677574
0.675812
0.675092
0.675029
0.674835
0.674697
0.674808
0.675028
0.674513
0.671963
0.670944
0.673223
0.685728
0.697626
0.724289
0.755768
0.790513
0.828153
0.864958
0.892589
0.904398
0.906261
0.907229
0.908846
0.913491
0.927025
0.950954
0.978888
0.995665
0.999694
0.999993
1
1
1
1
1
1
0.682043
0.6816
0.679976
0.677571
0.67587
0.675196
0.675159
0.674902
0.674719
0.674719
0.674884
0.674422
0.672023
0.671288
0.674537
0.68819
0.698913
0.725456
0.757097
0.791886
0.829592
0.866311
0.893365
0.904583
0.906289
0.907341
0.908933
0.913663
0.92751
0.951689
0.979461
0.995884
0.999717
0.999994
1
1
1
1
1
1
0.682075
0.681562
0.679922
0.677563
0.675902
0.675275
0.675271
0.674955
0.674727
0.67466
0.674794
0.674372
0.672217
0.67149
0.675558
0.689062
0.700064
0.726664
0.758456
0.793337
0.831139
0.86772
0.894158
0.904761
0.906304
0.907441
0.909107
0.91365
0.928002
0.952464
0.980081
0.996094
0.999738
0.999994
1
1
1
1
1
1
0.682115
0.68156
0.679878
0.677536
0.675919
0.675339
0.675357
0.674997
0.674729
0.674589
0.674723
0.674295
0.672188
0.671456
0.675537
0.688814
0.700598
0.728019
0.759775
0.794867
0.832819
0.869185
0.894958
0.904928
0.90631
0.907496
0.90922
0.913413
0.928499
0.953223
0.980704
0.996297
0.99976
0.999995
1
1
1
1
1
1
0.682181
0.681591
0.67986
0.677508
0.675934
0.675405
0.675426
0.675038
0.6747
0.674496
0.674635
0.674137
0.672077
0.671205
0.675287
0.68818
0.700711
0.729231
0.761082
0.796543
0.834615
0.870688
0.895761
0.905089
0.906317
0.90754
0.90932
0.913361
0.929025
0.953989
0.981323
0.996505
0.99978
0.999995
1
1
1
1
1
1
0.682247
0.681622
0.679854
0.67748
0.675956
0.675474
0.675478
0.675074
0.674616
0.674383
0.674489
0.673973
0.672117
0.67114
0.675398
0.687968
0.700334
0.730247
0.762389
0.79836
0.836454
0.872235
0.896568
0.905255
0.906377
0.907593
0.909514
0.913689
0.929603
0.954802
0.981965
0.996718
0.9998
0.999996
1
1
1
1
1
1
0.68232
0.681656
0.679846
0.677449
0.675982
0.675537
0.67551
0.675105
0.674539
0.674217
0.674316
0.67388
0.672489
0.671573
0.676147
0.688023
0.699767
0.731428
0.763811
0.800247
0.838346
0.873848
0.897374
0.905433
0.906515
0.907685
0.909764
0.914462
0.930226
0.955698
0.982644
0.99693
0.999819
0.999996
1
1
1
1
1
1
0.682412
0.681712
0.679833
0.677415
0.676
0.675574
0.675524
0.675129
0.674443
0.673982
0.674123
0.673814
0.673026
0.67233
0.676537
0.688705
0.699829
0.733199
0.765407
0.802218
0.840372
0.875531
0.89817
0.905622
0.906626
0.907843
0.909857
0.915097
0.930867
0.956656
0.983354
0.997141
0.999838
0.999997
1
1
1
1
1
1
0.682516
0.681775
0.679811
0.677386
0.676004
0.675584
0.675528
0.675135
0.674271
0.673717
0.673907
0.673758
0.673412
0.672592
0.676562
0.689296
0.701562
0.735672
0.767266
0.804351
0.842583
0.87726
0.898948
0.90581
0.906723
0.908008
0.909647
0.915502
0.931531
0.957638
0.984076
0.997351
0.999855
0.999997
1
1
1
1
1
1
0.682622
0.681839
0.679774
0.677359
0.675994
0.675583
0.675528
0.675118
0.6741
0.673481
0.673676
0.673722
0.673727
0.672609
0.676138
0.689385
0.705029
0.73859
0.769478
0.806672
0.844922
0.879007
0.899704
0.905985
0.906806
0.908094
0.909341
0.91591
0.932231
0.958654
0.984803
0.997557
0.999872
0.999998
1
1
1
1
1
1
0.682731
0.681909
0.679745
0.677326
0.675975
0.675581
0.675504
0.675045
0.674016
0.67332
0.673463
0.673738
0.674015
0.672461
0.675083
0.689321
0.708843
0.74143
0.771892
0.809126
0.847312
0.880776
0.900439
0.906146
0.906851
0.908106
0.909224
0.916407
0.932971
0.959722
0.985545
0.997761
0.999887
0.999998
1
1
1
1
1
1
0.682868
0.68199
0.679738
0.677277
0.675948
0.67558
0.675404
0.674933
0.67399
0.673231
0.673298
0.673808
0.674309
0.672228
0.674586
0.689559
0.711705
0.743666
0.774307
0.811646
0.849775
0.882578
0.901153
0.9063
0.90687
0.908096
0.909158
0.916918
0.933764
0.960842
0.986309
0.997961
0.999902
0.999998
1
1
1
1
1
1
0.683048
0.682091
0.679737
0.677207
0.675896
0.675554
0.675259
0.674829
0.673979
0.67318
0.673172
0.673911
0.674604
0.672201
0.67453
0.691879
0.713666
0.745285
0.776793
0.814275
0.852346
0.884413
0.901849
0.906462
0.906879
0.908073
0.909136
0.917498
0.934646
0.962015
0.987098
0.998156
0.999915
0.999999
1
1
1
1
1
1
0.683261
0.682205
0.67973
0.677154
0.675803
0.675427
0.67512
0.674762
0.673975
0.673139
0.67306
0.673962
0.674767
0.672195
0.674536
0.694662
0.715487
0.746666
0.7794
0.817021
0.85505
0.886264
0.902529
0.906626
0.906883
0.908004
0.909251
0.918209
0.935671
0.963254
0.9879
0.998344
0.999927
0.999999
1
1
1
1
1
1
0.683501
0.682305
0.67972
0.677114
0.675696
0.675266
0.674989
0.674746
0.673979
0.6731
0.672918
0.673859
0.674798
0.672435
0.674659
0.696455
0.717634
0.748219
0.782161
0.819944
0.857898
0.888115
0.903185
0.906758
0.906866
0.907884
0.909491
0.918947
0.936843
0.964577
0.988704
0.998524
0.999938
0.999999
1
1
1
1
1
1
0.683722
0.68241
0.679715
0.67707
0.675637
0.675146
0.674885
0.674758
0.674021
0.673084
0.672803
0.673319
0.674813
0.673193
0.675164
0.697032
0.719915
0.750271
0.785138
0.823105
0.860853
0.889971
0.903797
0.906836
0.906765
0.907831
0.909691
0.919619
0.938093
0.965968
0.989512
0.998696
0.999948
0.999999
1
1
1
1
1
1
0.683902
0.68253
0.679732
0.677001
0.675587
0.675061
0.674835
0.674778
0.674199
0.673256
0.672902
0.672892
0.67481
0.67398
0.67563
0.696841
0.72219
0.75284
0.788352
0.82649
0.863924
0.891818
0.904351
0.906853
0.906671
0.907834
0.909981
0.920233
0.939411
0.967414
0.990321
0.998859
0.999957
0.999999
1
1
1
1
1
1
0.684025
0.682615
0.679789
0.676939
0.675464
0.674974
0.674833
0.674823
0.674636
0.673708
0.673203
0.67262
0.674856
0.674897
0.676516
0.696936
0.724787
0.755702
0.791776
0.830107
0.867114
0.893618
0.904845
0.906839
0.906618
0.907859
0.910621
0.920827
0.940837
0.968918
0.991132
0.999012
0.999965
1
1
1
1
1
1
1
0.684096
0.68264
0.679838
0.676923
0.675338
0.674841
0.674851
0.674954
0.675109
0.67413
0.673308
0.672487
0.674963
0.675999
0.677987
0.700163
0.727968
0.75886
0.795438
0.83392
0.870358
0.895355
0.905269
0.906805
0.906599
0.907831
0.911294
0.921473
0.942382
0.970482
0.991937
0.999153
0.999972
1
1
1
1
1
1
1
0.684135
0.682641
0.679866
0.676941
0.67526
0.674674
0.674829
0.675122
0.675429
0.674475
0.673312
0.672348
0.675132
0.676921
0.67941
0.704327
0.731076
0.762328
0.799299
0.8379
0.87367
0.897027
0.905619
0.906796
0.906597
0.907678
0.911688
0.922261
0.944043
0.972121
0.992729
0.999283
0.999978
1
1
1
1
1
1
1
0.684141
0.682631
0.679891
0.676988
0.675213
0.674514
0.674687
0.675169
0.675605
0.674758
0.673244
0.671812
0.67511
0.677315
0.680724
0.706786
0.733395
0.766117
0.803387
0.84214
0.87707
0.898603
0.9059
0.906799
0.906601
0.907621
0.911969
0.923204
0.945801
0.973818
0.993502
0.999401
0.999982
1
1
1
1
1
1
1
0.683997
0.682676
0.679934
0.677078
0.675187
0.674398
0.674531
0.675179
0.675695
0.67498
0.672903
0.67082
0.674475
0.677295
0.682508
0.70939
0.735449
0.77028
0.807776
0.846672
0.880491
0.900048
0.906114
0.906816
0.906654
0.907746
0.912536
0.9243
0.947635
0.975551
0.994253
0.999507
0.999986
1
1
1
1
1
1
1
0.683843
0.682744
0.680008
0.677178
0.675172
0.674335
0.674456
0.675207
0.675749
0.675124
0.672486
0.670264
0.67327
0.677012
0.685384
0.713658
0.738538
0.774925
0.812486
0.851399
0.883866
0.901347
0.906266
0.906916
0.906815
0.908049
0.913665
0.925628
0.94955
0.977323
0.994977
0.999601
0.99999
1
1
1
1
1
1
1
0.683674
0.682789
0.680123
0.677267
0.675169
0.674313
0.674447
0.675288
0.675822
0.675284
0.672422
0.670138
0.672567
0.677241
0.688951
0.717767
0.743449
0.779992
0.8175
0.85629
0.88718
0.90249
0.906356
0.907006
0.906877
0.908338
0.914683
0.927151
0.951576
0.979136
0.995668
0.999683
0.999992
1
1
1
1
1
1
1
0.683538
0.682815
0.680262
0.677369
0.675169
0.674311
0.674477
0.675364
0.675908
0.675523
0.672565
0.670145
0.672344
0.67888
0.691978
0.720677
0.74863
0.785229
0.822911
0.861364
0.890359
0.903464
0.906394
0.90702
0.906871
0.908631
0.91512
0.928762
0.953757
0.980982
0.996318
0.999753
0.999994
1
1
1
1
1
1
1
0.683478
0.682827
0.680406
0.677475
0.67525
0.674365
0.674475
0.67538
0.675895
0.675572
0.672768
0.670236
0.672189
0.681245
0.694684
0.722918
0.75365
0.790567
0.82876
0.866575
0.893345
0.904281
0.906413
0.90702
0.906877
0.908961
0.915027
0.930466
0.956124
0.982839
0.996918
0.999811
0.999996
1
1
1
1
1
1
1
0.683471
0.682871
0.680556
0.677568
0.675421
0.674542
0.674482
0.675255
0.675621
0.675261
0.672454
0.669987
0.671703
0.683553
0.698173
0.725394
0.759047
0.796208
0.835033
0.871854
0.896091
0.904959
0.906439
0.907026
0.907036
0.909349
0.91497
0.932386
0.958674
0.984686
0.997466
0.999859
0.999997
1
1
1
1
1
1
1
0.683543
0.682997
0.680706
0.67763
0.675543
0.674694
0.674521
0.674919
0.675281
0.674873
0.671976
0.669487
0.67132
0.686326
0.702559
0.729361
0.765163
0.802366
0.841659
0.87711
0.898545
0.905512
0.906436
0.907012
0.907271
0.91004
0.91607
0.934665
0.961384
0.986515
0.997959
0.999897
0.999998
1
1
1
1
1
1
1
0.683699
0.683123
0.680766
0.677655
0.675619
0.67481
0.674542
0.67447
0.674837
0.674436
0.671835
0.66945
0.671849
0.690539
0.70671
0.735547
0.771876
0.80916
0.848589
0.882241
0.900654
0.905947
0.906412
0.907001
0.90753
0.911013
0.918573
0.93721
0.964226
0.988304
0.998393
0.999927
0.999999
1
1
1
1
1
1
1
0.683984
0.683188
0.680744
0.67758
0.675657
0.674939
0.67443
0.673998
0.674205
0.67385
0.672223
0.670014
0.673714
0.69386
0.710116
0.742494
0.778732
0.816597
0.855796
0.887152
0.902403
0.906275
0.906412
0.907069
0.907789
0.911478
0.920331
0.939696
0.967188
0.990031
0.998766
0.99995
0.999999
1
1
1
1
1
1
1
0.684433
0.683253
0.680561
0.677418
0.675652
0.675013
0.674403
0.673662
0.673499
0.67314
0.673197
0.67086
0.675128
0.695866
0.714068
0.749727
0.785837
0.824717
0.86319
0.891705
0.903789
0.906509
0.906441
0.907232
0.908039
0.911377
0.921799
0.942307
0.970257
0.991672
0.999079
0.999967
1
1
1
1
1
1
1
1
0.684829
0.683445
0.680341
0.677182
0.675546
0.675051
0.674622
0.673544
0.67301
0.672425
0.674593
0.672664
0.676179
0.69756
0.720751
0.757592
0.793654
0.833504
0.870704
0.895747
0.90483
0.906647
0.906544
0.907435
0.908252
0.911249
0.9236
0.945342
0.973413
0.993203
0.999335
0.999978
1
1
1
1
1
1
1
1
0.685298
0.683528
0.680092
0.676896
0.675397
0.675038
0.674948
0.673799
0.672693
0.671694
0.67544
0.6755
0.678007
0.700097
0.729359
0.765678
0.802614
0.84292
0.878092
0.899136
0.905576
0.906749
0.906619
0.907567
0.908264
0.912105
0.925878
0.948823
0.976622
0.994597
0.999536
0.999987
1
1
1
1
1
1
1
1
0.685566
0.683622
0.679993
0.676673
0.675214
0.675034
0.67516
0.674524
0.672563
0.670742