/*--------------------------------*- C++ -*----------------------------------*\
  =========                 |
  \\      /  F ield         | OpenFOAM: The Open Source CFD Toolbox
   \\    /   O peration     | Website:  https://openfoam.org
    \\  /    A nd           | Version:  7
     \\/     M anipulation  |
\*---------------------------------------------------------------------------*/
FoamFile
{
    version     2.0;
    format      ascii;
    class       volScalarField;
    location    "6";
    object      p;
}
// * * * * * * * * * * * * * * * * * * * * * * * * * * * * * * * * * * * * * //

dimensions      [1 -1 -2 0 0 0 0];

internalField   nonuniform List<scalar> 
90000
(
0.803696
0.805171
0.80783
0.810669
0.813107
0.817077
0.822708
0.82658
0.82995
0.833573
0.83803
0.841646
0.845391
0.848981
0.852946
0.856501
0.860088
0.863813
0.867174
0.870927
0.87432
0.878521
0.882579
0.887321
0.892146
0.897869
0.903857
0.910859
0.91841
0.92706
0.936732
0.946322
0.957207
0.966301
0.976095
0.984573
0.991508
0.998547
1.00416
1.00863
1.01195
1.016
1.02022
1.02327
1.02258
1.01883
1.00666
0.992161
0.979194
0.969986
0.965471
0.966561
0.969333
0.974425
0.980322
0.985962
0.989979
0.992952
0.994871
0.995912
0.995238
0.991919
0.985271
0.978152
0.972226
0.970706
0.972012
0.975591
0.981462
0.987441
0.992678
0.992681
0.990257
0.983825
0.977602
0.974113
0.975281
0.978187
0.982204
0.985626
0.986042
0.98425
0.981286
0.978413
0.979865
0.983458
0.986137
0.985701
0.983634
0.982298
0.982357
0.984204
0.984913
0.983737
0.981525
0.981295
0.982013
0.983851
0.983935
0.982786
0.804054
0.80418
0.804371
0.80466
0.805073
0.805528
0.806077
0.806948
0.808447
0.810683
0.813314
0.815982
0.818753
0.821854
0.825283
0.82895
0.832416
0.835907
0.839464
0.843045
0.84663
0.85019
0.853826
0.85751
0.861362
0.86547
0.869933
0.874663
0.879868
0.885528
0.892119
0.899304
0.90717
0.915825
0.924855
0.934091
0.94392
0.953068
0.962663
0.971715
0.980061
0.986799
0.993623
0.998416
1.00095
1.00373
1.00436
1.0066
1.00592
1.00217
0.994823
0.987062
0.980462
0.975286
0.972108
0.972815
0.974251
0.977023
0.979896
0.984278
0.988919
0.992858
0.995534
0.993788
0.988957
0.982279
0.976872
0.97311
0.973611
0.975211
0.979426
0.984467
0.990903
0.990336
0.986833
0.98026
0.975743
0.974143
0.976017
0.98107
0.986548
0.986608
0.984027
0.981017
0.980543
0.981599
0.983861
0.98542
0.984548
0.983293
0.98317
0.98397
0.984128
0.98383
0.982388
0.981698
0.982096
0.98339
0.983718
0.982985
0.80592
0.8059
0.80577
0.805632
0.805592
0.805529
0.805511
0.805593
0.80572
0.805792
0.80591
0.806061
0.806225
0.80648
0.80688
0.807498
0.808294
0.809223
0.810234
0.811337
0.813016
0.815088
0.81744
0.820018
0.822763
0.825775
0.829017
0.832658
0.836301
0.840294
0.844465
0.849356
0.854434
0.860369
0.866766
0.874226
0.882079
0.891332
0.90117
0.911169
0.923174
0.93355
0.945496
0.955105
0.965321
0.974298
0.982585
0.986872
0.990585
0.992999
0.996651
1.00066
1.00194
1.00061
0.996407
0.990295
0.984604
0.980274
0.977138
0.977406
0.979133
0.98233
0.986084
0.989981
0.994311
0.99392
0.990795
0.98347
0.975955
0.971615
0.972095
0.97528
0.981192
0.986781
0.991311
0.989704
0.983503
0.977845
0.975938
0.977386
0.981004
0.98468
0.987243
0.985231
0.981858
0.980032
0.981266
0.983832
0.985873
0.984744
0.983071
0.983173
0.984015
0.984377
0.983644
0.98188
0.98172
0.982388
0.983592
0.983319
0.807477
0.807551
0.80756
0.807541
0.807581
0.807615
0.807601
0.80756
0.807465
0.807393
0.807427
0.807482
0.807471
0.807428
0.807396
0.807468
0.807647
0.807958
0.808349
0.808929
0.809057
0.809192
0.8094
0.809694
0.810066
0.810516
0.811074
0.811854
0.812795
0.813917
0.815176
0.81728
0.819888
0.82308
0.826698
0.83104
0.835944
0.841817
0.848528
0.85643
0.865268
0.875981
0.886818
0.90006
0.913182
0.926896
0.943127
0.955289
0.968091
0.978532
0.984381
0.988222
0.990618
0.990965
0.990919
0.990258
0.989167
0.986634
0.983047
0.979028
0.978332
0.978973
0.980508
0.982658
0.984821
0.985517
0.984922
0.984432
0.982549
0.979112
0.975688
0.974261
0.975328
0.977438
0.981276
0.98383
0.987306
0.986737
0.983295
0.9791
0.977636
0.979442
0.982759
0.986837
0.986198
0.983386
0.980691
0.981388
0.983351
0.985853
0.984904
0.98334
0.983447
0.984098
0.984387
0.983207
0.981984
0.982243
0.983144
0.983409
0.810512
0.810506
0.810534
0.810608
0.810769
0.811001
0.811072
0.811067
0.811012
0.810994
0.811033
0.811061
0.811041
0.810969
0.810948
0.810976
0.81098
0.81097
0.81099
0.811083
0.811147
0.81125
0.811433
0.811481
0.811527
0.81162
0.811803
0.81211
0.812531
0.81296
0.813555
0.813626
0.813742
0.813926
0.814244
0.814769
0.815593
0.81704
0.818962
0.821588
0.824746
0.829265
0.834539
0.841772
0.849942
0.860609
0.872464
0.887153
0.90216
0.918572
0.934969
0.946071
0.959013
0.96616
0.973861
0.977148
0.980377
0.981605
0.983546
0.986455
0.987568
0.986901
0.985506
0.984202
0.982164
0.979817
0.979282
0.980038
0.981725
0.983827
0.983411
0.981131
0.977756
0.974917
0.975371
0.978227
0.982201
0.984775
0.986728
0.985194
0.981808
0.978931
0.979585
0.981805
0.98384
0.985444
0.983992
0.981725
0.98188
0.983339
0.98573
0.985139
0.983877
0.983322
0.98386
0.983837
0.982908
0.982122
0.982411
0.983211
0.813824
0.813844
0.813943
0.814148
0.814236
0.814263
0.814265
0.814242
0.814158
0.814125
0.814149
0.814166
0.814156
0.814086
0.814025
0.814034
0.814039
0.813982
0.813869
0.81385
0.813902
0.813937
0.813929
0.813871
0.813666
0.813493
0.813494
0.813484
0.81344
0.813416
0.813452
0.813542
0.813647
0.813773
0.813961
0.814222
0.814698
0.814934
0.815092
0.815256
0.815486
0.815821
0.816421
0.81745
0.819078
0.821934
0.825762
0.831971
0.839523
0.850824
0.863605
0.880215
0.896969
0.915421
0.933383
0.947943
0.962387
0.972528
0.98056
0.98385
0.984852
0.984256
0.98328
0.980276
0.975958
0.976088
0.978024
0.979914
0.981436
0.982274
0.982632
0.982354
0.981166
0.97892
0.976699
0.977501
0.978952
0.982153
0.984337
0.984703
0.984439
0.982651
0.980085
0.980193
0.981228
0.982991
0.98398
0.983599
0.982784
0.982527
0.983431
0.984452
0.985111
0.984415
0.983726
0.983619
0.983392
0.98263
0.982252
0.982872
0.817329
0.817443
0.817512
0.817506
0.817491
0.817515
0.817528
0.817517
0.81745
0.817266
0.817139
0.817097
0.817079
0.817065
0.817068
0.817093
0.817104
0.817091
0.817027
0.816941
0.816883
0.816846
0.816801
0.816673
0.816475
0.816351
0.816284
0.816227
0.816088
0.815919
0.815834
0.81573
0.815507
0.815443
0.815431
0.815388
0.815296
0.815271
0.815285
0.815329
0.815357
0.815355
0.815272
0.815188
0.815122
0.815054
0.815122
0.815416
0.816138
0.81788
0.820843
0.826356
0.834011
0.84631
0.860093
0.878739
0.897432
0.916476
0.934856
0.947416
0.959655
0.964915
0.969759
0.971419
0.975006
0.979545
0.982662
0.982811
0.982411
0.981052
0.979686
0.979644
0.979923
0.981429
0.981034
0.980072
0.979698
0.980013
0.98114
0.982964
0.983489
0.983848
0.982855
0.98121
0.980847
0.981339
0.982744
0.983374
0.983581
0.983159
0.982966
0.983414
0.984111
0.984527
0.984182
0.983773
0.983418
0.982731
0.982033
0.982312
0.81787
0.817877
0.817877
0.817867
0.81785
0.817853
0.817908
0.817964
0.817969
0.817948
0.817914
0.817913
0.817936
0.817969
0.818007
0.818082
0.818154
0.818172
0.818164
0.818115
0.818046
0.817975
0.817895
0.817806
0.81774
0.817715
0.817707
0.817698
0.817684
0.817661
0.817624
0.817503
0.817353
0.817307
0.817302
0.817308
0.817277
0.817128
0.816707
0.816377
0.816149
0.815903
0.815604
0.815288
0.814998
0.814767
0.814607
0.814454
0.814091
0.813448
0.812819
0.812806
0.813221
0.814812
0.818128
0.824543
0.833534
0.847947
0.86446
0.885588
0.90701
0.928023
0.945941
0.961409
0.973399
0.978205
0.981272
0.981448
0.980014
0.975069
0.975343
0.976985
0.98049
0.983506
0.98351
0.982856
0.981427
0.979472
0.979729
0.980535
0.982502
0.983499
0.983289
0.982655
0.981445
0.981156
0.981643
0.982805
0.983207
0.983302
0.98317
0.983261
0.98349
0.984047
0.984111
0.983979
0.9836
0.982971
0.982089
0.982217
0.817736
0.817735
0.817731
0.817719
0.817715
0.817724
0.817782
0.817835
0.81784
0.81783
0.817823
0.817837
0.817877
0.817908
0.817933
0.818
0.818072
0.818089
0.818085
0.81805
0.81797
0.81787
0.817773
0.817682
0.81763
0.817612
0.817609
0.817598
0.817555
0.817528
0.817468
0.817298
0.817061
0.816976
0.816946
0.816846
0.81669
0.816676
0.816829
0.816933
0.816874
0.816722
0.816518
0.816259
0.815973
0.815616
0.815183
0.814567
0.813844
0.813206
0.812663
0.81233
0.81197
0.81127
0.811015
0.811222
0.812161
0.814668
0.81939
0.828126
0.840508
0.858308
0.879011
0.901626
0.924547
0.939546
0.953239
0.961797
0.967506
0.970961
0.977419
0.981655
0.984015
0.984083
0.983371
0.981325
0.980119
0.979582
0.980136
0.981241
0.982027
0.982372
0.982243
0.982159
0.982314
0.982009
0.982041
0.982194
0.98268
0.983064
0.98335
0.983345
0.983409
0.983578
0.983849
0.984007
0.983827
0.983333
0.982619
0.982475
0.817258
0.817246
0.817232
0.817217
0.817212
0.817215
0.817234
0.817248
0.817245
0.817203
0.81716
0.817177
0.81721
0.817195
0.817157
0.817166
0.817247
0.817291
0.817288
0.817234
0.817011
0.816842
0.816786
0.816734
0.816687
0.816639
0.816468
0.816267
0.816223
0.816165
0.816013
0.815769
0.815432
0.815333
0.815334
0.815315
0.815128
0.814953
0.814921
0.814886
0.814785
0.814737
0.814716
0.814692
0.814646
0.814526
0.814255
0.813903
0.813745
0.813553
0.813146
0.812623
0.811988
0.811147
0.810751
0.810751
0.81085
0.811153
0.811785
0.812904
0.814758
0.818817
0.826028
0.838743
0.856753
0.87968
0.905365
0.926401
0.950254
0.966845
0.975871
0.979514
0.982666
0.981442
0.97698
0.9772
0.978826
0.980945
0.982277
0.98226
0.981303
0.980015
0.980556
0.981478
0.982809
0.982801
0.982551
0.982021
0.982178
0.982661
0.983254
0.983312
0.983248
0.983259
0.983528
0.983841
0.983793
0.983554
0.983304
0.982869
0.815468
0.815477
0.815495
0.815497
0.815485
0.815465
0.815453
0.81544
0.815411
0.815367
0.815314
0.815289
0.815291
0.815281
0.815207
0.815147
0.815166
0.815207
0.815199
0.815077
0.814845
0.8148
0.814824
0.814836
0.814824
0.814747
0.814537
0.814451
0.814469
0.81445
0.814305
0.814094
0.813788
0.813644
0.813642
0.813619
0.813424
0.813066
0.812938
0.812921
0.812932
0.813001
0.813106
0.813278
0.813416
0.813469
0.813461
0.813388
0.813272
0.813153
0.813042
0.812814
0.812346
0.811569
0.810902
0.810764
0.810823
0.811103
0.811657
0.812296
0.812601
0.812764
0.813082
0.814744
0.818375
0.82748
0.840462
0.861895
0.885424
0.910542
0.934284
0.947057
0.961111
0.966081
0.972105
0.978175
0.982792
0.983192
0.982877
0.980818
0.979105
0.979259
0.980254
0.982138
0.982866
0.982698
0.982114
0.981944
0.98221
0.982784
0.98311
0.983112
0.983061
0.983174
0.983247
0.983546
0.983621
0.983677
0.983793
0.983478
0.812942
0.812941
0.812958
0.813023
0.813076
0.813089
0.813087
0.813077
0.813051
0.813027
0.813013
0.812986
0.812956
0.812922
0.812874
0.812838
0.812835
0.812839
0.812805
0.812686
0.812631
0.812638
0.812684
0.812739
0.812758
0.812741
0.812705
0.812707
0.812701
0.81257
0.812476
0.812441
0.812329
0.812209
0.812214
0.812193
0.811996
0.811715
0.811566
0.811485
0.81148
0.811523
0.811595
0.811744
0.811953
0.812116
0.812262
0.812462
0.81269
0.812772
0.812741
0.812652
0.81244
0.811974
0.811396
0.811199
0.811258
0.811548
0.812105
0.812834
0.81338
0.813579
0.813648
0.813452
0.813376
0.813845
0.81571
0.82125
0.830519
0.84861
0.869792
0.897633
0.922945
0.94631
0.96755
0.975855
0.980669
0.980586
0.977252
0.975884
0.977509
0.980309
0.982458
0.982485
0.982161
0.981118
0.981302
0.98204
0.982744
0.982754
0.982728
0.982743
0.982868
0.98304
0.983146
0.983132
0.98328
0.983744
0.984048
0.983819
0.811036
0.810986
0.810974
0.810976
0.810981
0.81098
0.810966
0.810947
0.810929
0.810909
0.810888
0.810866
0.810841
0.810823
0.810817
0.810817
0.810803
0.810798
0.810787
0.81074
0.810703
0.81068
0.810702
0.810837
0.810935
0.810981
0.811009
0.811002
0.810922
0.810796
0.810796
0.810842
0.810852
0.810826
0.81075
0.810617
0.810425
0.810221
0.809948
0.809635
0.809509
0.809516
0.809586
0.809763
0.810071
0.81037
0.81061
0.810929
0.811446
0.812032
0.812374
0.812376
0.812212
0.811842
0.811375
0.811183
0.811265
0.81159
0.812237
0.813092
0.813926
0.814445
0.814452
0.814268
0.813976
0.814003
0.813974
0.814151
0.815141
0.818276
0.824933
0.838461
0.857481
0.883617
0.910342
0.933099
0.950665
0.96101
0.966872
0.975021
0.98194
0.982888
0.98269
0.980781
0.979691
0.980168
0.981692
0.983034
0.982995
0.982619
0.98226
0.982462
0.982794
0.983062
0.982906
0.982807
0.983171
0.984009
0.98419
0.984047
0.810639
0.810557
0.810497
0.810467
0.810441
0.810384
0.810331
0.810321
0.810315
0.810303
0.810291
0.810283
0.810279
0.810275
0.810265
0.810258
0.810256
0.810267
0.810265
0.81021
0.810164
0.810148
0.810146
0.810186
0.810276
0.810327
0.81035
0.810363
0.810336
0.810323
0.810355
0.810447
0.810471
0.810463
0.810405
0.810267
0.810079
0.809845
0.809516
0.809121
0.808879
0.808784
0.808761
0.808812
0.809083
0.809342
0.809518
0.809768
0.810203
0.810805
0.811356
0.811518
0.811465
0.81131
0.811095
0.810853
0.810881
0.811229
0.812005
0.812904
0.813711
0.814245
0.814292
0.814186
0.814068
0.814043
0.813969
0.813867
0.813842
0.814084
0.814857
0.816739
0.821247
0.831385
0.848709
0.87428
0.903123
0.931587
0.957969
0.972654
0.978673
0.980675
0.977724
0.975216
0.977343
0.980949
0.982745
0.982585
0.982054
0.981775
0.982064
0.982659
0.982705
0.982595
0.982394
0.982612
0.983266
0.983809
0.984046
0.984152
0.810582
0.810473
0.810377
0.810311
0.810246
0.810168
0.810131
0.810124
0.81012
0.810117
0.810116
0.810115
0.810118
0.810137
0.810142
0.810141
0.810153
0.810165
0.810159
0.810107
0.810032
0.810012
0.810008
0.810047
0.810094
0.810096
0.810083
0.810117
0.810151
0.810171
0.810242
0.81047
0.810755
0.810851
0.810874
0.810873
0.810832
0.810691
0.810427
0.810055
0.809612
0.809187
0.808988
0.808986
0.809095
0.809191
0.809276
0.809485
0.809969
0.810699
0.811385
0.811792
0.811974
0.812031
0.811972
0.811742
0.811547
0.811673
0.812026
0.812488
0.813022
0.813572
0.813727
0.813629
0.813516
0.813523
0.813519
0.813397
0.813291
0.813404
0.813556
0.813576
0.813756
0.814906
0.818509
0.827368
0.843586
0.868047
0.897419
0.924605
0.944769
0.958799
0.965909
0.974138
0.982067
0.982519
0.982005
0.980145
0.980345
0.981429
0.982833
0.983061
0.982683
0.981939
0.982111
0.982774
0.983448
0.983617
0.983876
0.984293
0.811726
0.811631
0.811527
0.811415
0.8113
0.811186
0.811072
0.810974
0.810902
0.810832
0.810788
0.810794
0.810804
0.810809
0.810794
0.810782
0.810775
0.81077
0.810774
0.810774
0.810754
0.810735
0.810741
0.810784
0.810773
0.810715
0.810697
0.810739
0.810857
0.810974
0.811087
0.811215
0.811372
0.811591
0.811875
0.812112
0.812209
0.81221
0.812136
0.81197
0.811781
0.811547
0.811222
0.810905
0.81062
0.810407
0.810296
0.810279
0.810412
0.810787
0.811216
0.811589
0.811869
0.81192
0.81183
0.811625
0.811418
0.811455
0.811647
0.811851
0.812096
0.812458
0.812453
0.812308
0.812383
0.812773
0.812866
0.812794
0.812658
0.812689
0.812869
0.813034
0.81331
0.813403
0.813617
0.814558
0.817659
0.825277
0.840494
0.864248
0.894854
0.924556
0.954091
0.971043
0.978946
0.979695
0.974738
0.975855
0.978798
0.98173
0.982528
0.982322
0.981544
0.981801
0.9827
0.983129
0.983048
0.983175
0.983676
0.984369
0.812788
0.812735
0.812676
0.812611
0.812545
0.812475
0.812396
0.812316
0.812241
0.812174
0.812111
0.81203
0.811906
0.811784
0.811723
0.811695
0.811651
0.811566
0.81151
0.811518
0.811545
0.811549
0.811581
0.811623
0.811619
0.811601
0.811617
0.811673
0.811745
0.811843
0.81194
0.812017
0.812121
0.812353
0.812722
0.813053
0.81332
0.813531
0.813595
0.81361
0.813616
0.81356
0.81333
0.812945
0.812461
0.811935
0.811498
0.811363
0.811424
0.811571
0.811688
0.811857
0.81205
0.812042
0.811874
0.811582
0.811338
0.81125
0.811329
0.811598
0.811808
0.811648
0.811344
0.811224
0.811378
0.811876
0.812039
0.812018
0.811908
0.811878
0.812079
0.81255
0.81296
0.813275
0.813546
0.813562
0.813686
0.81445
0.816949
0.824011
0.838068
0.862548
0.892479
0.922564
0.944251
0.959514
0.965812
0.977208
0.982034
0.981969
0.981355
0.980046
0.980486
0.98221
0.9835
0.983235
0.98269
0.982802
0.983589
0.984455
0.813371
0.813378
0.813386
0.813387
0.813387
0.813376
0.813358
0.813332
0.81329
0.813238
0.813185
0.813135
0.813082
0.813013
0.812928
0.812818
0.812672
0.812557
0.812499
0.812504
0.812538
0.812549
0.81254
0.81248
0.812438
0.812449
0.81246
0.812428
0.812385
0.812363
0.81235
0.812385
0.81253
0.812823
0.813225
0.813616
0.813975
0.814386
0.814616
0.814643
0.814634
0.814603
0.814498
0.81423
0.813769
0.813151
0.812687
0.81261
0.812691
0.812746
0.812695
0.812682
0.812696
0.81262
0.812326
0.811852
0.811456
0.811262
0.811299
0.811599
0.811889
0.811775
0.811243
0.810855
0.8109
0.811255
0.811708
0.811933
0.812022
0.812079
0.812235
0.81244
0.81259
0.812747
0.812961
0.813104
0.813202
0.813314
0.813604
0.814398
0.81688
0.82355
0.838439
0.863516
0.894803
0.928555
0.958156
0.973382
0.979277
0.978029
0.974416
0.97663
0.980755
0.982953
0.982786
0.982125
0.982366
0.983261
0.983757
0.984142
0.813188
0.813244
0.813345
0.813543
0.813632
0.813639
0.81365
0.813701
0.813736
0.81374
0.813721
0.813743
0.813942
0.814126
0.814166
0.814205
0.814224
0.814208
0.814107
0.814
0.813926
0.813872
0.813777
0.813575
0.813466
0.813464
0.813439
0.81325
0.812894
0.812805
0.812791
0.812793
0.812846
0.812985
0.813139
0.813301
0.813514
0.813842
0.814158
0.814206
0.814186
0.814166
0.81414
0.814045
0.813763
0.813273
0.813006
0.812992
0.813081
0.813258
0.813359
0.813364
0.813331
0.813208
0.812799
0.812213
0.811803
0.811669
0.811716
0.812092
0.812568
0.812552
0.81215
0.811793
0.811751
0.811823
0.811855
0.811859
0.811975
0.812158
0.812288
0.812271
0.812154
0.812089
0.812222
0.812413
0.812522
0.812604
0.81275
0.813011
0.813414
0.814306
0.817133
0.82445
0.840765
0.866649
0.898811
0.929522
0.948316
0.962097
0.969103
0.980588
0.982406
0.982036
0.980332
0.980786
0.982646
0.984187
0.983869
0.983814
0.813442
0.813503
0.813606
0.813785
0.813947
0.814001
0.814034
0.814155
0.814309
0.814329
0.81432
0.814312
0.814382
0.81473
0.814977
0.814997
0.815007
0.81502
0.814981
0.814924
0.814784
0.814496
0.814222
0.814011
0.813799
0.813705
0.813615
0.813298
0.812773
0.812673
0.812674
0.812639
0.812611
0.812664
0.812689
0.812696
0.812779
0.813042
0.813164
0.813147
0.813049
0.81282
0.812781
0.81281
0.812738
0.812428
0.812252
0.812242
0.812336
0.81267
0.81315
0.813397
0.813386
0.813177
0.812591
0.812027
0.811867
0.811897
0.812182
0.813005
0.813578
0.813665
0.813516
0.813414
0.813308
0.813082
0.812696
0.812264
0.812173
0.812247
0.812296
0.812187
0.81189
0.811627
0.81157
0.811615
0.811681
0.811776
0.811944
0.812199
0.812439
0.812656
0.812948
0.813876
0.817313
0.825092
0.844059
0.871603
0.903493
0.943693
0.963977
0.977891
0.978329
0.975206
0.976238
0.979552
0.982907
0.983547
0.983497
0.983779
0.813697
0.813803
0.813868
0.813924
0.81399
0.814153
0.814469
0.814652
0.814724
0.81479
0.814809
0.814807
0.814848
0.815126
0.81548
0.815549
0.815572
0.815586
0.815568
0.815524
0.81538
0.814993
0.814528
0.814202
0.813848
0.813679
0.813556
0.813195
0.812721
0.812635
0.812643
0.812572
0.812381
0.81227
0.812164
0.812076
0.812139
0.812444
0.812597
0.812597
0.812531
0.812207
0.811719
0.811655
0.811621
0.811503
0.811461
0.81147
0.811628
0.812157
0.812951
0.813557
0.813688
0.813536
0.813146
0.812758
0.812473
0.812434
0.812764
0.813496
0.8138
0.813948
0.81412
0.814301
0.814298
0.814095
0.813492
0.812964
0.812747
0.812694
0.812693
0.812597
0.812271
0.811674
0.811218
0.811214
0.811378
0.811687
0.811999
0.812258
0.812472
0.812637
0.812754
0.812902
0.813217
0.814183
0.818145
0.826605
0.848727
0.877105
0.909947
0.943758
0.954537
0.965815
0.975914
0.982874
0.982493
0.981673
0.982418
0.983655
0.811464
0.811387
0.811239
0.811027
0.810961
0.811037
0.811276
0.811515
0.811757
0.812034
0.812108
0.812074
0.811962
0.812037
0.812615
0.813219
0.81348
0.813581
0.813605
0.813651
0.813751
0.813705
0.813469
0.813176
0.812862
0.812568
0.812396
0.812122
0.811824
0.811743
0.811697
0.811623
0.811344
0.810953
0.810952
0.811236
0.812043
0.812737
0.812851
0.812864
0.812835
0.812498
0.811561
0.811051
0.810997
0.811109
0.811451
0.811786
0.812167
0.812702
0.813188
0.81352
0.813756
0.813772
0.813606
0.81336
0.813124
0.812961
0.813069
0.813309
0.813263
0.813224
0.813409
0.813875
0.814066
0.814024
0.813541
0.812707
0.812508
0.812607
0.812881
0.813164
0.813154
0.812766
0.812065
0.811833
0.811886
0.812082
0.812207
0.812235
0.812263
0.812241
0.812283
0.81236
0.812451
0.812558
0.812873
0.814115
0.819174
0.829997
0.856352
0.887582
0.923334
0.959981
0.972462
0.980734
0.975929
0.977061
0.980077
0.983255
0.808693
0.808721
0.80873
0.808614
0.808187
0.807925
0.80797
0.80824
0.808929
0.809826
0.81002
0.810008
0.809863
0.809872
0.810498
0.81135
0.81147
0.811624
0.81173
0.811434
0.811142
0.811163
0.811376
0.811312
0.810916
0.810344
0.810101
0.809983
0.80994
0.809966
0.810115
0.810175
0.810102
0.810136
0.810569
0.811698
0.813052
0.814125
0.814544
0.81449
0.814337
0.814217
0.813807
0.812935
0.812155
0.812074
0.812425
0.813212
0.813485
0.813527
0.813399
0.813299
0.813339
0.813491
0.813545
0.81354
0.813485
0.813474
0.813417
0.81319
0.812621
0.812229
0.812213
0.812894
0.81381
0.813876
0.81354
0.812719
0.812272
0.812302
0.812635
0.81334
0.813812
0.813758
0.81333
0.812808
0.812685
0.812671
0.812633
0.812514
0.812302
0.811993
0.811972
0.812006
0.812044
0.812046
0.811999
0.812035
0.812488
0.814414
0.821242
0.835578
0.865772
0.900269
0.929796
0.955584
0.963844
0.977949
0.9811
0.982869
0.805696
0.806086
0.806154
0.806157
0.806159
0.806152
0.806054
0.806067
0.806295
0.806413
0.806403
0.806517
0.80716
0.8083
0.8087
0.80869
0.808635
0.808453
0.80789
0.807526
0.807728
0.808634
0.809072
0.809014
0.808915
0.808732
0.808579
0.808589
0.808663
0.808732
0.808756
0.808585
0.808524
0.808939
0.810186
0.811735
0.81285
0.81363
0.814042
0.813935
0.813727
0.813693
0.813451
0.812699
0.81186
0.811611
0.811996
0.812934
0.81312
0.812696
0.811575
0.811261
0.811315
0.81177
0.812571
0.812927
0.812993
0.812996
0.812883
0.812797
0.812424
0.811658
0.811384
0.811577
0.812546
0.813377
0.81347
0.813292
0.812864
0.812675
0.812719
0.813115
0.813744
0.813905
0.813802
0.813456
0.813157
0.813137
0.813123
0.81295
0.812611
0.812231
0.812023
0.812024
0.812055
0.812088
0.812104
0.812147
0.812108
0.812191
0.812888
0.815682
0.825015
0.844111
0.878239
0.914764
0.950245
0.974274
0.978834
0.976822
0.80249
0.803192
0.803761
0.803725
0.803616
0.803681
0.804424
0.806742
0.807827
0.807853
0.807491
0.807301
0.807269
0.806848
0.805354
0.804606
0.804439
0.804231
0.803891
0.803705
0.803988
0.804723
0.805048
0.805098
0.805247
0.805949
0.806985
0.807376
0.807289
0.806773
0.805583
0.803996
0.803312
0.803622
0.804982
0.805634
0.80551
0.805303
0.805239
0.805497
0.806962
0.80953
0.810583
0.810586
0.810265
0.809149
0.8087
0.809066
0.809202
0.808764
0.808226
0.808305
0.808749
0.808985
0.809318
0.810164
0.810481
0.810688
0.811451
0.81288
0.813234
0.81298
0.812085
0.811569
0.811875
0.812886
0.813407
0.813538
0.813567
0.813467
0.813203
0.813188
0.813483
0.813837
0.813834
0.813625
0.813207
0.812856
0.812811
0.812884
0.812857
0.81276
0.812602
0.812484
0.812492
0.812465
0.812381
0.812319
0.812299
0.812349
0.812465
0.81274
0.813841
0.818226
0.830844
0.855374
0.892396
0.926495
0.949675
0.967941
0.800229
0.799884
0.799785
0.800021
0.800089
0.800939
0.802989
0.803548
0.804053
0.804296
0.804102
0.803429
0.802203
0.799953
0.798231
0.797911
0.79802
0.798628
0.798918
0.798846
0.798435
0.798621
0.799547
0.800478
0.801082
0.801893
0.802566
0.802862
0.803193
0.803835
0.804174
0.803867
0.802485
0.801238
0.800853
0.800329
0.798028
0.794994
0.794441
0.794587
0.796039
0.800091
0.804062
0.804874
0.804709
0.804356
0.804502
0.804732
0.804396
0.803737
0.803585
0.803912
0.804932
0.805721
0.805763
0.805856
0.806269
0.807169
0.80929
0.812072
0.812807
0.81272
0.812206
0.811553
0.81137
0.811598
0.812378
0.813175
0.813352
0.813292
0.813082
0.812986
0.813037
0.813356
0.813519
0.813397
0.812901
0.81246
0.812456
0.812574
0.812718
0.812821
0.81293
0.812978
0.813044
0.813052
0.812942
0.812758
0.812558
0.812508
0.812477
0.812488
0.812564
0.812989
0.815027
0.821714
0.840113
0.869398
0.908828
0.957445
0.800195
0.799344
0.799261
0.7991
0.798982
0.799527
0.801601
0.803007
0.803538
0.803647
0.803453
0.802677
0.800877
0.799549
0.799314
0.799478
0.800199
0.800849
0.800972
0.800936
0.800653
0.800405
0.800656
0.801617
0.803043
0.80439
0.805518
0.806616
0.807873
0.809174
0.809865
0.809752
0.808559
0.806623
0.804959
0.802569
0.798461
0.795111
0.794537
0.794773
0.796266
0.798925
0.801962
0.804434
0.805002
0.804855
0.804898
0.805262
0.805174
0.804996
0.805457
0.806097
0.806171
0.805526
0.803761
0.802613
0.802364
0.802416
0.803127
0.80517
0.807424
0.808273
0.808612
0.808697
0.808448
0.808273
0.808519
0.809329
0.810465
0.811143
0.811255
0.811224
0.811264
0.81151
0.811951
0.812324
0.81238
0.812468
0.812713
0.812904
0.813041
0.813139
0.813132
0.813151
0.81332
0.813409
0.813388
0.813284
0.813081
0.81286
0.812649
0.812616
0.812656
0.812754
0.812922
0.813684
0.816984
0.827873
0.849926
0.90232
0.822338
0.822294
0.822219
0.822091
0.822039
0.821737
0.821103
0.821058
0.821436
0.821664
0.820946
0.817
0.813992
0.813898
0.814761
0.815935
0.816234
0.815783
0.814512
0.813043
0.811823
0.810874
0.810805
0.811984
0.814715
0.815512
0.815448
0.815624
0.817426
0.81958
0.82018
0.820153
0.819763
0.818863
0.817551
0.81542
0.811935
0.80897
0.808056
0.807491
0.80631
0.805093
0.805326
0.806408
0.806615
0.806226
0.805962
0.805391
0.805056
0.805582
0.806403
0.806449
0.805742
0.805006
0.804976
0.804833
0.803341
0.802003
0.801896
0.801899
0.801984
0.802531
0.803862
0.804998
0.805057
0.804779
0.80448
0.804693
0.805346
0.806188
0.807027
0.807817
0.808561
0.80908
0.809606
0.810391
0.811527
0.812389
0.812735
0.812938
0.813123
0.813246
0.813221
0.813126
0.813137
0.813291
0.813334
0.813268
0.813145
0.812913
0.812868
0.812823
0.812832
0.812945
0.813072
0.813104
0.813231
0.81457
0.819599
0.851553
0.866622
0.866527
0.865544
0.863205
0.862498
0.862513
0.863295
0.864704
0.864906
0.864952
0.864849
0.861967
0.855216
0.853621
0.853743
0.853287
0.850468
0.845017
0.840281
0.837869
0.83613
0.834559
0.833921
0.833679
0.832302
0.828767
0.827758
0.827522
0.827727
0.82806
0.828002
0.826083
0.82449
0.824971
0.824341
0.821466
0.820944
0.822132
0.822461
0.823031
0.8245
0.824127
0.821473
0.817486
0.814344
0.813645
0.813599
0.812563
0.808601
0.805752
0.805516
0.805905
0.805931
0.80621
0.807705
0.810212
0.810978
0.80974
0.80654
0.80367
0.803156
0.803772
0.804863
0.806027
0.80719
0.807189
0.806679
0.805517
0.804617
0.804599
0.805238
0.806233
0.806279
0.805708
0.805196
0.805439
0.80653
0.80805
0.809105
0.809961
0.810892
0.811687
0.812206
0.812386
0.812567
0.81298
0.813352
0.81339
0.813378
0.813252
0.813104
0.813102
0.813238
0.813357
0.813277
0.813087
0.812934
0.812894
0.813296
0.822916
0.916621
0.916467
0.915534
0.915437
0.914544
0.909052
0.906405
0.906286
0.907383
0.910335
0.910618
0.909857
0.906353
0.900729
0.897494
0.89699
0.896571
0.894347
0.892572
0.892575
0.893986
0.894707
0.89395
0.89054
0.888059
0.888572
0.889621
0.888885
0.885805
0.8826
0.881323
0.879892
0.87702
0.871469
0.866351
0.862976
0.857996
0.851203
0.849022
0.849666
0.8514
0.850424
0.84872
0.849856
0.850152
0.849073
0.848532
0.847586
0.843184
0.83656
0.830821
0.823833
0.819195
0.81866
0.820703
0.824157
0.8248
0.824224
0.82217
0.818386
0.814466
0.811884
0.810947
0.810788
0.810943
0.810767
0.810324
0.808828
0.806323
0.805555
0.805581
0.805865
0.805984
0.805408
0.804147
0.80388
0.80413
0.804896
0.805947
0.807114
0.808038
0.80891
0.809831
0.810936
0.811673
0.812195
0.812819
0.813155
0.81328
0.813301
0.813341
0.813412
0.813524
0.813537
0.813476
0.813145
0.812826
0.812744
0.812812
0.814716
0.993103
0.993047
0.99063
0.988635
0.988818
0.988761
0.988018
0.986171
0.981003
0.978195
0.978488
0.978628
0.975345
0.972259
0.970678
0.965673
0.960395
0.959348
0.95853
0.956983
0.955945
0.953899
0.949974
0.946833
0.942406
0.939827
0.940123
0.940283
0.938493
0.933228
0.93103
0.930541
0.929027
0.925306
0.924809
0.925501
0.923329
0.917226
0.914105
0.912588
0.909903
0.903913
0.895133
0.889287
0.886801
0.882278
0.877652
0.877335
0.876754
0.874948
0.872612
0.86625
0.857673
0.856679
0.85616
0.850607
0.838267
0.83512
0.835165
0.832956
0.83109
0.831061
0.830316
0.824887
0.816039
0.813124
0.813584
0.814652
0.814205
0.811645
0.808351
0.807574
0.807655
0.807277
0.807181
0.807363
0.807725
0.808303
0.809108
0.80919
0.809034
0.808466
0.807788
0.807881
0.808308
0.808628
0.809236
0.810354
0.811458
0.812769
0.813013
0.812954
0.812971
0.812945
0.812887
0.812877
0.812995
0.813256
0.813342
0.813483
1.0616
1.06164
1.06246
1.06374
1.06393
1.06265
1.06039
1.0582
1.05443
1.05027
1.0482
1.04837
1.04879
1.04883
1.0466
1.04123
1.04028
1.04089
1.04042
1.03875
1.03666
1.03233
1.02944
1.02897
1.02795
1.02521
1.02164
1.01868
1.01555
1.0118
1.00782
1.00512
1.00258
0.998938
0.995048
0.991839
0.985943
0.97859
0.977237
0.976591
0.975213
0.971581
0.962576
0.958061
0.957375
0.955378
0.949734
0.945804
0.94153
0.934123
0.926774
0.918687
0.90864
0.906598
0.908126
0.907232
0.900301
0.892812
0.885372
0.874577
0.86787
0.867971
0.86866
0.867121
0.859896
0.847293
0.837798
0.836425
0.837308
0.836301
0.831284
0.825131
0.822306
0.820133
0.818747
0.816707
0.814568
0.812437
0.810226
0.80862
0.807035
0.805676
0.805533
0.805759
0.806224
0.806584
0.807233
0.808159
0.809059
0.810139
0.810899
0.810793
0.810808
0.81121
0.811922
0.812593
0.813512
0.813967
0.813905
0.813706
1.15219
1.15177
1.15124
1.14984
1.14938
1.14922
1.14808
1.14389
1.14195
1.14221
1.14183
1.13963
1.13784
1.13521
1.13227
1.12964
1.12788
1.12464
1.12046
1.11958
1.11906
1.11721
1.11234
1.10876
1.10756
1.10638
1.10282
1.09795
1.09437
1.09182
1.0884
1.08517
1.08295
1.08095
1.07743
1.0729
1.06966
1.06653
1.06274
1.05792
1.05244
1.04679
1.04056
1.03414
1.02886
1.02301
1.01484
1.01208
1.01049
1.00668
1.00094
0.994069
0.986236
0.979421
0.969176
0.956558
0.953794
0.952876
0.947919
0.936143
0.928761
0.923653
0.912843
0.904224
0.898498
0.892579
0.886183
0.875326
0.86658
0.862966
0.859122
0.852015
0.844991
0.83963
0.834514
0.828672
0.822442
0.817205
0.813631
0.811542
0.809407
0.807998
0.808241
0.809001
0.81026
0.811423
0.811349
0.810805
0.810073
0.809258
0.808318
0.808322
0.808528
0.809224
0.810522
0.81245
0.813298
0.813692
0.813587
0.813197
1.24434
1.24409
1.24369
1.24291
1.24077
1.23987
1.23952
1.23763
1.2325