/*--------------------------------*- C++ -*----------------------------------*\
  =========                 |
  \\      /  F ield         | OpenFOAM: The Open Source CFD Toolbox
   \\    /   O peration     | Website:  https://openfoam.org
    \\  /    A nd           | Version:  7
     \\/     M anipulation  |
\*---------------------------------------------------------------------------*/
FoamFile
{
    version     2.0;
    format      ascii;
    class       volScalarField;
    location    "6.3";
    object      p;
}
// * * * * * * * * * * * * * * * * * * * * * * * * * * * * * * * * * * * * * //

dimensions      [1 -1 -2 0 0 0 0];

internalField   nonuniform List<scalar> 
8400
(
0.15956
0.267818
0.377567
0.468868
0.562234
0.625173
0.691203
0.736154
0.761109
0.772461
0.785031
0.78757
0.79952
0.824419
0.853911
0.882341
0.90224
0.910064
0.900189
0.880351
0.866117
0.860428
0.867492
0.881
0.892955
0.90326
0.91301
0.929942
0.938489
0.928328
0.0546521
0.0557876
0.0657067
0.0911421
0.136259
0.21399
0.302131
0.413914
0.53826
0.653872
0.765745
0.845497
0.910437
0.940084
0.968846
0.962087
0.941653
0.897034
0.84745
0.824247
0.823405
0.848301
0.884665
0.915424
0.92708
0.931277
0.925903
0.915604
0.919771
0.927707
0.0584698
0.0578252
0.057539
0.0582408
0.057367
0.0567797
0.0558612
0.0616315
0.08512
0.139215
0.219208
0.342818
0.489364
0.606202
0.717779
0.797785
0.860498
0.864028
0.859976
0.86847
0.87453
0.869634
0.874788
0.885379
0.907686
0.937887
0.955002
0.942832
0.933823
0.933325
0.0545292
0.0541961
0.0543425
0.0541761
0.0537044
0.053227
0.0530238
0.0529517
0.0526756
0.0516512
0.0513092
0.0515701
0.0617134
0.0972777
0.161267
0.276636
0.432111
0.614288
0.785548
0.878393
0.918738
0.912156
0.90091
0.884678
0.894851
0.920757
0.939587
0.939781
0.93977
0.941002
0.0520763
0.0523461
0.0523409
0.0521208
0.0517967
0.0518122
0.0520706
0.0522664
0.052146
0.0512746
0.0511928
0.0522069
0.0563701
0.0605919
0.0613744
0.0615185
0.0665845
0.111819
0.226486
0.405114
0.591227
0.731489
0.812125
0.851289
0.89658
0.937237
0.929544
0.936611
0.960545
0.96055
0.0522314
0.051963
0.0515855
0.0514238
0.051509
0.0520007
0.0531394
0.0554821
0.0574659
0.0574098
0.0578466
0.0606718
0.0659977
0.0733715
0.0762867
0.0763073
0.0763387
0.0778477
0.0798908
0.0839733
0.116767
0.214123
0.371006
0.558466
0.694522
0.768098
0.837533
0.899178
0.977478
0.960951
0.056243
0.0571549
0.0583762
0.0599231
0.0619135
0.0646485
0.0681342
0.0722612
0.0758573
0.0776854
0.0791711
0.0801783
0.0807833
0.0832544
0.0852623
0.0854868
0.0860501
0.0889065
0.0946842
0.101117
0.106931
0.110005
0.112426
0.141702
0.21679
0.34529
0.526077
0.683311
0.777149
0.875728
0.0761233
0.0783247
0.0805324
0.0823284
0.0828943
0.0834094
0.0847165
0.0865356
0.0895106
0.0926771
0.0932867
0.0915074
0.0916373
0.0939774
0.0984865
0.1032
0.108369
0.115225
0.123168
0.12883
0.130566
0.131471
0.132238
0.134119
0.134042
0.134792
0.155095
0.234043
0.34966
0.623743
0.0967978
0.0990876
0.101485
0.102137
0.100763
0.100128
0.100614
0.10224
0.10664
0.112925
0.117166
0.120945
0.125112
0.129944
0.135279
0.138988
0.141376
0.144954
0.148023
0.147289
0.145997
0.144684
0.144596
0.146246
0.151269
0.159485
0.16592
0.169621
0.170459
0.232187
0.1285
0.132784
0.136814
0.138528
0.138206
0.137276
0.13736
0.138991
0.14358
0.150671
0.156675
0.158978
0.15855
0.15841
0.159743
0.159585
0.157986
0.158088
0.159223
0.159349
0.160849
0.164902
0.173251
0.182123
0.189045
0.192688
0.194407
0.193326
0.192234
0.19319
0.169678
0.17449
0.18052
0.182853
0.182651
0.179682
0.176255
0.175901
0.177414
0.182567
0.186755
0.187518
0.186234
0.184808
0.185396
0.187192
0.189564
0.19316
0.198461
0.204871
0.209898
0.213116
0.216649
0.217981
0.217062
0.214672
0.212564
0.210371
0.212663
0.220598
0.220735
0.224856
0.232736
0.238113
0.23868
0.236775
0.230414
0.225886
0.226334
0.230006
0.235232
0.237843
0.238891
0.240067
0.242656
0.24488
0.245046
0.245328
0.247318
0.248593
0.247772
0.245603
0.242387
0.239569
0.236147
0.236965
0.240153
0.246407
0.252647
0.256198
0.289303
0.290585
0.294328
0.301087
0.30558
0.306453
0.30353
0.294357
0.288895
0.289285
0.293052
0.295015
0.293531
0.290866
0.290707
0.290544
0.288321
0.283812
0.282241
0.282147
0.281758
0.281094
0.281879
0.284014
0.287815
0.291627
0.294251
0.294106
0.291917
0.28595
0.377215
0.374714
0.375662
0.379753
0.386499
0.389517
0.388593
0.381013
0.369661
0.364338
0.365792
0.366887
0.364776
0.359109
0.358534
0.359316
0.358557
0.353567
0.35017
0.349971
0.34964
0.348238
0.346437
0.34396
0.341021
0.336906
0.331758
0.326557
0.321963
0.319773
0.505054
0.487696
0.481563
0.481036
0.486211
0.49051
0.4901
0.485399
0.472593
0.460362
0.457326
0.457706
0.455779
0.444207
0.437426
0.43762
0.436559
0.430416
0.421272
0.416059
0.412531
0.408531
0.402553
0.396078
0.390423
0.385313
0.382197
0.377448
0.376318
0.374268
0.665605
0.650249
0.619485
0.606478
0.60931
0.616562
0.616626
0.608756
0.596072
0.580009
0.567389
0.566961
0.5657
0.554436
0.535502
0.531589
0.529592
0.523233
0.512485
0.501723
0.494352
0.48867
0.481877
0.474575
0.467022
0.460464
0.453955
0.447062
0.440212
0.42737
0.838174
0.829089
0.810522
0.784395
0.766358
0.756208
0.751207
0.75261
0.747428
0.727226
0.70112
0.696455
0.696317
0.68659
0.657616
0.645579
0.641478
0.633552
0.620246
0.605216
0.592467
0.581121
0.571041
0.559143
0.546703
0.53469
0.522888
0.510989
0.500362
0.484211
1.03784
1.02866
1.014
0.990796
0.959111
0.931819
0.922116
0.926222
0.922179
0.899615
0.861506
0.848108
0.847898
0.838856
0.806394
0.782622
0.773131
0.762256
0.745671
0.726792
0.708012
0.690768
0.674937
0.658831
0.642489
0.626383
0.611378
0.595783
0.582473
0.561156
1.27864
1.26779
1.25257
1.22997
1.19488
1.15159
1.12952
1.13093
1.12612
1.10088
1.05056
1.03122
1.02727
1.01248
0.977048
0.945274
0.926496
0.908387
0.888189
0.865496
0.839812
0.816849
0.795526
0.774362
0.752476
0.730577
0.709787
0.689138
0.671325
0.642027
1.55312
1.5388
1.52481
1.50597
1.46505
1.432
1.41019
1.38803
1.36592
1.33961
1.2914
1.25643
1.23916
1.21397
1.17416
1.13913
1.10987
1.08073
1.05203
1.02274
0.991357
0.960157
0.933225
0.906147
0.877867
0.850251
0.82391
0.797781
0.775007
0.738047
1.73265
1.72498
1.71988
1.71463
1.70286
1.68547
1.66584
1.64317
1.61966
1.5972
1.56674
1.52923
1.49797
1.46522
1.42237
1.37883
1.3373
1.2952
1.25456
1.21402
1.17324
1.13262
1.09441
1.05833
1.02245
0.987588
0.954916
0.921803
0.893067
0.846561
1.72999
1.73267
1.73174
1.73125
1.73134
1.73001
1.72923
1.72948
1.72791
1.72076
1.71203
1.70355
1.69188
1.67387
1.64998
1.62295
1.59027
1.54951
1.50359
1.45576
1.40444
1.35248
1.30058
1.24937
1.20041
1.15294
1.10874
1.06573
1.02863
0.969798
1.60505
1.61409
1.6263
1.63994
1.65304
1.67205
1.69062
1.69113
1.68974
1.69966
1.70485
1.70276
1.69928
1.69901
1.70142
1.70065
1.69527
1.68429
1.67124
1.65406
1.62851
1.59181
1.54458
1.49024
1.43172
1.37118
1.31023
1.24932
1.19772
1.11824
1.2664
1.28358
1.30402
1.33799
1.36312
1.38888
1.42623
1.45557
1.47846
1.50627
1.54627
1.58327
1.5933
1.60782
1.63861
1.65944
1.66654
1.67001
1.67126
1.67213
1.67143
1.66826
1.6602
1.64609
1.62391
1.58986
1.54187
1.48104
1.4196
1.31393
1.03496
1.04057
1.04664
1.05555
1.06701
1.07993
1.09695
1.11673
1.13858
1.16267
1.19265
1.23104
1.2723
1.30953
1.35639
1.40505
1.45296
1.4964
1.53615
1.57624
1.60086
1.62302
1.63684
1.64273
1.64241
1.64026
1.63458
1.62182
1.60025
1.52762
1.00097
1.00121
1.00154
1.00199
1.00266
1.00355
1.00489
1.00675
1.00935
1.01271
1.01751
1.02447
1.03502
1.04817
1.06538
1.09009
1.12027
1.16
1.20479
1.26008
1.31883
1.38033
1.44132
1.49375
1.54553
1.57699
1.5977
1.61335
1.61367
1.6052
1.00001
1.00001
1.00001
1.00002
1.00003
1.00004
1.00006
1.00008
1.00013
1.0002
1.00032
1.00052
1.00089
1.0015
1.00248
1.0043
1.00724
1.01234
1.02039
1.03336
1.05365
1.08196
1.12304
1.17542
1.23808
1.31158
1.38431
1.45325
1.50844
1.56076
1
1
1
1
1
1
1
1
1
1
1
1
1.00001
1.00001
1.00002
1.00004
1.00009
1.00019
1.0004
1.00086
1.00183
1.00387
1.00792
1.0158
1.02996
1.05423
1.09209
1.14774
1.21249
1.3363
1
1
1
1
1
1
1
1
1
1
1
1
1
1
1
1
1
1
1
1.00001
1.00002
1.00004
1.00011
1.00029
1.00077
1.00204
1.00504
1.01226
1.02491
1.07789
1
1
1
1
1
1
1
1
1
1
1
1
1
1
1
1
1
1
1
1
1
1
1
1
1.00001
1.00002
1.00006
1.00023
1.00065
1.00526
0.0539377
0.0551089
0.0591621
0.0551518
0.051752
0.0524431
0.0556488
0.0739766
0.094658
0.124878
0.166672
0.218776
0.290756
0.394808
0.526
0.673567
0.84328
1.04697
1.29594
1.58112
1.74065
1.72745
1.58774
1.23585
1.02729
1.00075
1.00001
1
1
1
0.0544907
0.0559416
0.0596858
0.0546011
0.0511986
0.0529496
0.0585599
0.0768642
0.0983946
0.129856
0.175903
0.239575
0.32815
0.435693
0.55663
0.700231
0.872691
1.08969
1.36232
1.64814
1.7526
1.72892
1.53643
1.17489
1.01483
1.00028
1
1
1
1
0.0554149
0.0564092
0.0598799
0.0539979
0.0508229
0.0532118
0.0607003
0.0795978
0.103265
0.140221
0.194848
0.266061
0.349898
0.449764
0.570381
0.721939
0.920462
1.16067
1.44597
1.70111
1.75827
1.72762
1.47267
1.12642
1.00846
1.00013
1
1
1
1
0.0559959
0.0566875
0.0596745
0.052879
0.0504283
0.0538066
0.0634632
0.0862275
0.115256
0.156807
0.209382
0.277267
0.357442
0.458609
0.593384
0.781096
1.00266
1.24535
1.51861
1.73319
1.76013
1.69115
1.40452
1.08885
1.00459
1.00006
1
1
1
1
0.0560936
0.0566665
0.059474
0.0523865
0.050339
0.0552215
0.0665459
0.0918421
0.121189
0.161491
0.213184
0.280315
0.364646
0.479077
0.653259
0.845463
1.05298
1.29493
1.56698
1.74956
1.75875
1.65185
1.34081
1.05998
1.00239
1.00003
1
1
1
1
0.0560692
0.0565087
0.0596085
0.0523382
0.0505521
0.0562517
0.0675394
0.0935918
0.122629
0.161805
0.215575
0.282081
0.386771
0.540181
0.703779
0.879586
1.08889
1.34762
1.62274
1.76443
1.75377
1.6219
1.27794
1.03798
1.00116
1.00001
1
1
1
1
0.0562838
0.0567201
0.059721
0.0522631
0.0503745
0.0567272
0.067192
0.093457
0.123169
0.160916
0.221937
0.315405
0.441724
0.578888
0.728954
0.910089
1.14452
1.4318
1.68966
1.77593
1.74832
1.58203
1.21304
1.02259
1.00054
1
1
1
1
1
0.0569496
0.0574154
0.059471
0.0514364
0.0487479
0.0572641
0.0667219
0.0929316
0.124899
0.178243
0.257104
0.357992
0.469689
0.597489
0.757398
0.982809
1.2433
1.52142
1.73774
1.78078
1.74904
1.5092
1.1535
1.01229
1.00023
1
1
1
1
1
0.0579658
0.0580909
0.056947
0.0493756
0.0464405
0.057364
0.0700136
0.101727
0.145858
0.205854
0.280422
0.372622
0.481397
0.619611
0.828255
1.06656
1.31562
1.58027
1.7667
1.78385
1.72294
1.43438
1.1051
1.00632
1.0001
1
1
1
1
1
0.0589675
0.0585292
0.0543698
0.0471932
0.0453773
0.0577266
0.078704
0.115424
0.161709
0.217613
0.287305
0.377629
0.497208
0.682234
0.899138
1.12187
1.37408
1.63899
1.78424
1.78579
1.67324
1.36276
1.06873
1.00316
1.00004
1
1
1
1
1
0.0597143
0.0583143
0.0534875
0.0464736
0.0457972
0.0623204
0.0866378
0.121389
0.165163
0.219738
0.291169
0.388668
0.557207
0.753968
0.947121
1.17748
1.45443
1.70501
1.79262
1.77831
1.63564
1.2873
1.04172
1.00144
1.00002
1
1
1
1
1
0.0599197
0.0581564
0.0534575
0.046489
0.0478565
0.0650664
0.0904052
0.123547
0.165859
0.219693
0.308592
0.456275
0.626948
0.797479
0.998241
1.26986
1.54728
1.75118
1.79729
1.76092
1.58471
1.21578
1.02424
1.00063
1.00001
1
1
1
1
1
0.060042
0.0584513
0.0539682
0.0469446
0.0492739
0.066096
0.0918811
0.125669
0.170636
0.249011
0.371389
0.512102
0.661178
0.841321
1.0918
1.36063
1.6173
1.78061
1.80037
1.74991
1.50646
1.15383
1.01282
1.00026
1
1
1
1
1
1
0.0598553
0.0587353
0.0550708
0.0474752
0.0493599
0.0675461
0.0947463
0.137943
0.206638
0.295289
0.40582
0.53455
0.692181
0.920967
1.17706
1.43166
1.68188
1.79999
1.80247
1.7344
1.42552
1.10003
1.00599
1.0001
1
1
1
1
1
1
0.0584293
0.0579138
0.0552254
0.0474277
0.0489754
0.0719273
0.108405
0.163933
0.233247
0.314017
0.418713
0.553719
0.757521
1.00886
1.24925
1.51424
1.74377
1.80754
1.80235
1.67107
1.33921
1.05933
1.00265
1.00003
1
1
1
1
1
1
0.0566457
0.0561688
0.0530957
0.0464482
0.0514705
0.080472
0.11936
0.174083
0.241217
0.323071
0.432694
0.612674
0.854383
1.08088
1.33887
1.6097
1.78162
1.81062
1.78323
1.60522
1.24946
1.03341
1.00111
1.00001
1
1
1
1
1
1
0.0557238
0.0542777
0.0508973
0.0453995
0.0556603
0.0848327
0.121577
0.176692
0.243222
0.337123
0.496259
0.71411
0.923452
1.16093
1.449
1.68034
1.8033
1.81201
1.75726
1.53962
1.18106
1.01843
1.00045
1
1
1
1
1
1
1
0.0553467
0.0520903
0.0495956
0.0463405
0.0579501
0.0850698
0.120557
0.178406
0.263716
0.40361
0.585811
0.773738
0.987449
1.27111
1.53838
1.7362
1.81839
1.80986
1.7321
1.45854
1.12163
1.00878
1.00017
1
1
1
1
1
1
1
0.0551023
0.0503156
0.0489187
0.0481567
0.058783
0.0840669
0.130291
0.209976
0.329788
0.469076
0.6308
0.821728
1.08576
1.37176
1.62121
1.7871
1.82492
1.81493
1.7088
1.36417
1.0707
1.00355
1.00005
1
1
1
1
1
1
1
0.0560104
0.0493139
0.0484982
0.0485085
0.0602299
0.0936433
0.163708
0.260677
0.370874
0.499896
0.665394
0.906679
1.20691
1.46988
1.70538
1.81923
1.82844
1.81345
1.631
1.26284
1.03618
1.00134
1.00002
1
1
1
1
1
1
1
0.0599117
0.0484953
0.0472023
0.0478197
0.0656557
0.118772
0.194445
0.282242
0.390815
0.532702
0.745081
1.04401
1.3149
1.57209
1.76563
1.83043
1.82941
1.76994
1.52321
1.17344
1.01783
1.00048
1
1
1
1
1
1
1
1
0.0627556
0.0466029
0.0424299
0.0472065
0.0768329
0.139508
0.205933
0.293063
0.414846
0.612428
0.88756
1.15454
1.41955
1.66126
1.8002
1.83157
1.81868
1.71419
1.43603
1.11459
1.00863
1.00017
1
1
1
1
1
1
1
1
0.0633708
0.0441129
0.0393338
0.05117
0.0908482
0.146451
0.208163
0.315644
0.507664
0.742316
0.988477
1.25094
1.53281
1.73135
1.82027
1.82779
1.79804
1.66966
1.34762
1.06598
1.00334
1.00005
1
1
1
1
1
1
1
1
0.0618187
0.0419186
0.0385847
0.060958
0.0967816
0.147147
0.22694
0.407751
0.615031
0.829251
1.07475
1.37573
1.6376
1.78641
1.83104
1.82728
1.78752
1.61555
1.24127
1.03191
1.00113
1.00001
1
1
1
1
1
1
1
1
0.0602799
0.0404537
0.0411586
0.0675841
0.0992575
0.154807
0.310002
0.494706
0.685018
0.908499
1.20525
1.51506
1.72596
1.8214
1.83534
1.8343
1.78584
1.50165
1.14573
1.01332
1.00035
1
1
1
1
1
1
1
1
1
0.0585522
0.0394858
0.0443891
0.0694983
0.112661
0.221217
0.379087
0.550394
0.758126
1.04524
1.37319
1.62911
1.78631
1.83729
1.83956
1.82984
1.70411
1.36924
1.08026
1.00495
1.00009
1
1
1
1
1
1
1
1
1
0.0562174
0.0382288
0.0445836
0.071288
0.142273
0.281319
0.424914
0.616117
0.900602
1.22204
1.5078
1.71612
1.82127
1.84243
1.84108
1.79653
1.59947
1.26621
1.04241
1.00184
1.00003
1
1
1
1
1
1
1
1
1
0.0544047
0.037676
0.0446722
0.089526
0.191339
0.318899
0.475772
0.75848
1.07757
1.36682
1.62055
1.78246
1.84005
1.84331
1.83171
1.75578
1.52371
1.1802
1.01918
1.00057
1.00001
1
1
1
1
1
1
1
1
1
0.0519582
0.0375856
0.0497429
0.118253
0.224928
0.360092
0.610469
0.930926
1.2307
1.50438
1.72052
1.82571
1.84828
1.84256
1.81672
1.71751
1.42494
1.09807
1.00695
1.00015
1
1
1
1
1
1
1
1
1
1
0.0448562
0.0363057
0.0645023
0.14629
0.268051
0.464475
0.777653
1.08822
1.3907
1.64294
1.78585
1.84557
1.851
1.84511
1.81646
1.656
1.27181
1.04197
1.00196
1.00003
1
1
1
1
1
1
1
1
1
1
0.0374521
0.0370912
0.0830664
0.176433
0.338599
0.631166
0.940478
1.26097
1.56329
1.74286
1.81991
1.84958
1.85234
1.8461
1.78634
1.49716
1.15257
1.01608
1.00049
1.00001
1
1
1
1
1
1
1
1
1
1
0.0296328
0.0457799
0.106882
0.242041
0.483579
0.791246
1.12282
1.45956
1.70088
1.7992
1.83586
1.84835
1.84735
1.82568
1.6749
1.35837
1.0835
1.00568
1.00012
1
1
1
1
1
1
1
1
1
1
1
0.0194938
0.0542734
0.140025
0.346342
0.652722
0.98185
1.35132
1.62805
1.79115
1.82245
1.84368
1.8468
1.834
1.78261
1.58922
1.2554
1.03864
1.00168
1.00003
1
1
1
1
1
1
1
1
1
1
1
0.00841134
0.0606022
0.224361
0.503464
0.849873
1.23317
1.55521
1.74838
1.83724
1.82767
1.84693
1.85126
1.82263
1.74111
1.49382
1.1423
1.01291
1.00037
1
1
1
1
1
1
1
1
1
1
1
1
0.00370018
0.0932393
0.358969
0.706541
1.1026
1.47378
1.70872
1.81924
1.84945
1.82845
1.84797
1.85444
1.82582
1.69213
1.32162
1.05576
1.00317
1.00006
1
1
1
1
1
1
1
1
1
1
1
1
0.0102806
0.186741
0.521281
0.974308
1.39346
1.66521
1.80126
1.84747
1.85177
1.82557
1.84585
1.85085
1.81572
1.53393
1.16154
1.01768
1.00062
1.00001
1
1
1
1
1
1
1
1
1
1
1
1
0.0230885
0.307624
0.805005
1.3011
1.62678
1.78552
1.83964
1.85383
1.84933
1.82357
1.84133
1.82068
1.69255
1.34813
1.0741
1.00484
1.0001
1
1
1
1
1
1
1
1
1
1
1
1
1
0.110164
0.546206
1.18513
1.59509
1.77311
1.83362
1.84833
1.85317
1.84687
1.82224
1.8494
1.78058
1.56112
1.2134
1.02739
1.001
1.00001
1
1
1
1
1
1
1
1
1
1
1
1
1
0.379236
1.01845
1.55407
1.77433
1.83303
1.84422
1.84745
1.85221
1.84604
1.82215
1.85312
1.73624
1.41453
1.09182
1.00584
1.00013
1
1
1
1
1
1
1
1
1
1
1
1
1
1
0.996003
1.53285
1.78739
1.8416
1.84497
1.84503
1.84586
1.85196
1.84583
1.8226
1.83363
1.62799
1.20773
1.01957
1.00052
1.00001
1
1
1
1
1
1
1
1
1
1
1
1
1
1
1.8452
1.85015
1.85252
1.85101
1.84457
1.84204
1.84576
1.85643
1.84734
1.82011
1.74968
1.39791
1.05928
0.999699
0.99996
0.999999
1
1
1
1
1
1
1
1
1
1
1
1
1
1
1.84437
1.84965
1.85283
1.85223
1.843
1.8382
1.84502
1.86127
1.85697
1.80888
1.71385
1.36948
1.06502
1.00257
1.00003
1
1
1
1
1
1
1
1
1
1
1
1
1
1
1
1.84438
1.84947
1.85302
1.85253
1.84328
1.83692
1.84356
1.86344
1.86057
1.80983
1.66055
1.25453
1.022
1.00035
1
1
1
1
1
1
1
1
1
1
1
1
1
1
1
1
1.84571
1.84921
1.85291
1.85251
1.84445
1.83772
1.84306
1.86387
1.8614
1.8024
1.57801
1.15883
1.00962
1.00012
1
1
1
1
1
1
1
1
1
1
1
1
1
1
1
1
1.84779
1.84781
1.85062
1.85094
1.84627
1.84039
1.84285
1.86131
1.85885
1.75181
1.46337
1.09441
1.00371
1.00003
1
1
1
1
1
1
1
1
1
1
1
1
1
1
1
1
1.84918
1.84656
1.84727
1.84948
1.8488
1.84496
1.8412
1.85216
1.84944
1.70661
1.36403
1.05083
1.00129
1.00001
1
1
1
1
1
1
1
1
1
1
1
1
1
1
1
1
1.8504
1.84607
1.84385
1.84708
1.8512
1.85345
1.83868
1.84192
1.83699
1.66609
1.25459
1.02243
1.00038
1
1
1
1
1
1
1
1
1
1
1
1
1
1
1
1
1
1.85179
1.84572
1.84115
1.84304
1.85177
1.85917
1.84028
1.82587
1.8217
1.58951
1.16042
1.00948
1.00011
1
1
1
1
1
1
1
1
1
1
1
1
1
1
1
1
1
1.85254
1.84598
1.8402
1.84017
1.85121
1.86261
1.84999
1.81448
1.78826
1.47371
1.09278
1.00349
1.00003
1
1
1
1
1
1
1
1
1
1
1
1
1
1
1
1
1
1.85269
1.84685
1.84094
1.83901
1.84885
1.8637
1.85723
1.81141
1.74583
1.35729
1.04834
1.00114
1.00001
1
1
1
1
1
1
1
1
1
1
1
1
1
1
1
1
1
1.85067
1.84757
1.84257
1.839
1.84612
1.86438
1.86364
1.80742
1.67723
1.24008
1.02014
1.00032
1
1
1
1
1
1
1
1
1
1
1
1
1
1
1
1
1
1
1.84704
1.84749
1.84457
1.83961
1.84017
1.8641
1.86775
1.79442
1.5618
1.14805
1.00793
1.00008
1
1
1
1
1
1
1
1
1
1
1
1
1
1
1
1
1
1
1.84542
1.84643
1.84807
1.84164
1.83284
1.85729
1.87032
1.78573
1.44991
1.08083
1.00264
1.00002
1
1
1
1
1
1
1
1
1
1
1
1
1
1
1
1
1
1
1.84407
1.84462
1.84923
1.84461
1.82825
1.8477
1.86806
1.73585
1.32464
1.0368
1.00077
1
1
1
1
1
1
1
1
1
1
1
1
1
1
1
1
1
1
1
1.84325
1.84268
1.8493
1.84938
1.82815
1.84151
1.84925
1.63849
1.2147
1.01527
1.0002
1
1
1
1
1
1
1
1
1
1
1
1
1
1
1
1
1
1
1
1.84397
1.83971
1.84484
1.85812
1.84534
1.8433
1.83774
1.5428
1.12537
1.00552
1.00005
1
1
1
1
1
1
1
1
1
1
1
1
1
1
1
1
1
1
1
1.84674
1.83779
1.83648
1.86384
1.86899
1.84551
1.80741
1.40097
1.05695
1.00152
1.00001
1
1
1
1
1
1
1
1
1
1
1
1
1
1
1
1
1
1
1
1.84699
1.83452
1.82954
1.86646
1.88727
1.83839
1.69897
1.26892
1.02514
1.00042
1
1
1
1
1
1
1
1
1
1
1
1
1
1
1
1
1
1
1
1
1.84486
1.83338
1.82476
1.87251
1.89377
1.82591
1.59898
1.16776
1.00899
1.0001
1
1
1
1
1
1
1
1
1
1
1
1
1
1
1
1
1
1
1
1
1.83923
1.83299
1.82274
1.87662
1.8986
1.82354
1.47019
1.08012
1.00256
1.00002
1
1
1
1
1
1
1
1
1
1
1
1
1
1
1
1
1
1
1
1
1.82952
1.83558
1.83095
1.87984
1.89845
1.74224
1.32366
1.03493
1.00069
1
1
1
1
1
1
1
1
1
1
1
1
1
1
1
1
1
1
1
1
1
1.82276
1.84195
1.85744
1.87966
1.88752
1.64642
1.20509
1.01314
1.00016
1
1
1
1
1
1
1
1
1
1
1
1
1
1
1
1
1
1
1
1
1
1.81881
1.85677
1.88975
1.88082
1.87452
1.52271
1.10029
1.00365
1.00003
1
1
1
1
1
1
1
1
1
1
1
1
1
1
1
1
1
1
1
1
1
1.81451
1.86914
1.90959
1.87322
1.79878
1.35323
1.04149
1.0009
1.00001
1
1
1
1
1
1
1
1
1
1
1
1
1
1
1
1
1
1
1
1
1
1.81196
1.87891
1.92448
1.86069
1.67651
1.2257
1.016
1.0002
1
1
1
1
1
1
1
1
1
1
1
1
1
1
1
1
1
1
1
1
1
1
1.81195
1.88768
1.93319
1.85236
1.54699
1.1138
1.00433
1.00004
1
1
1
1
1
1
1
1
1
1
1
1
1
1
1
1
1
1
1
1
1
1
1.82192
1.90598
1.93635
1.80422
1.37629
1.04444
1.00101
1.00001
1
1
1
1
1
1
1
1
1
1
1
1
1
1
1
1
1
1
1
1
1
1
1.86304
1.92057
1.92292
1.67684
1.22873
1.01635
1.00022
1
1
1
1
1
1
1
1
1
1
1
1
1
1
1
1
1
1
1
1
1
1
1
1.91516
1.92264
1.90225
1.54717
1.11294
1.0044
1.00004
1
1
1
1
1
1
1
1
1
1
1
1
1
1
1
1
1
1
1
1
1
1
1
1.99709
1.90954
1.82465
1.35574
1.04113
1.00096
1.00001
1
1
1
1
1
1
1
1
1
1
1
1
1
1
1
1
1
1
1
1
1
1
1
2.07499
1.83255
1.68838
1.21021
1.01504
1.00021
1
1
1
1
1
1
1
1
1
1
1
1
1
1
1
1
1
1
1
1
1
1
1
1
2.1393
1.78179
1.51406
1.10101
1.00414
1.00004
1
1
1
1
1
1
1
1
1
1
1
1
1
1
1
1
1
1
1
1
1
1
1
1
2.16977
1.70943
1.32569
1.0386
1.00102
1.00001
1
1
1
1
1
1
1
1
1
1
1
1
1
1
1
1
1
1
1
1
1
1
1
1
2.14265
1.58453
1.19761
1.01549
1.00026
1
1
1
1
1
1
1
1
1
1
1
1
1
1
1
1
1
1
1
1
1
1
1
1
1
2.08545
1.46422
1.09908
1.00451
1.00005
1
1
1
1
1
1
1
1
1
1
1
1
1
1
1
1
1
1
1
1
1
1
1
1
1
1.97995
1.31771
1.04337
1.00119
1.00001
1
1
1
1
1
1
1
1
1
1
1
1
1
1
1
1
1
1
1
1
1
1
1
1
1
1.7749
1.20392
1.01692
1.00027
1
1
1
1
1
1
1
1
1
1
1
1
1
1
1
1
1
1
1
1
1
1
1
1
1
1
1.58317
1.11387
1.00517
1.00005
1
1
1
1
1
1
1
1
1
1
1
1
1
1
1
1
1
1
1
1
1
1
1
1
1
1
1.37381
1.04021
1.00089
1.00001
1
1
1
1
1
1
1
1
1
1
1
1
1
1
1
1
1
1
1
1
1
1
1
1
1
1
1.13572
1.00792
1.00006
1
1
1
1
1
1
1
1
1
1
1
1
1
1
1
1
1
1
1
1
1
1
1
1
1
1
1
1
1
1
1
1
1
1
1
1
1
1
1
1
1
1
1
1
1
1
1
1
1
1
1
1
1
1
1
1
1
1
1
1
1
1
1
1
1
1
1
1
1
1
1
1
1
1
1
1
1
1
1
1
1
1
1
1
1
1
1
1
1
1
1
1
1
1
1
1
1
1
1
1
1
1
1
1
1
1
1
1
1
1
1
1
1
1
1
1
1
1
1
1
1
1
1
1
1
1
1
1
1
1
1
1
1
1
1
1
1
1
1
1
1
1
1
1
1
1
1
1
1
1
1
1
1
1
1
1
1
1
1
1
1
1
1
1
1
1
1
1
1
1
1
1
1
1
1
1
1
1
1
1
1
1
1
1
1
1
1
1
1
1
1
1
1
1
1
1
1
1
1
1
1
1
1
1
1
1
1
1
1
1
1
1
1
1
1
1
1
1
1
1
1
1
1
1
1
1
1
1
1
1
1
1
1
1
1
1
1
1
1
1
1
1
1
1
1
1
1
1
1
1
1
1
1
1
1
1
1
1
1
1
1
1
1
1
1
1
1
1
1
1
1
1
1
1
1
1
1
1
1
1
1
1
1
1
1
1
1
1
1
1
1
1
1
1
1
1
1
1
1
1
1
1
1
1
1
1
1
1
1
1
1
1
1
1
1
1
1
1
1
1
1
1
1
1
1
1
1
1
1
1
1
1
1
1
1
1
1
1
1
1
1
1
1
1
1
1
1
1
1
1
1
1
1
1
1
1
1
1
1
1
1
1
1
1
1
1
1
1
1
1
1
1
1
1
1
1
1
1
1
1
1
1
1
1
1
1
1
1
1
1
1
1
1
1
1
1
1
1
1
1
1
1
1
1
1
1
1
1
1
1
1
1
1
1
1
1
1
1
1
1
1
1
1
1
1
1
1
1
1
1
1
1
1
1
1
1
1
1
1
1
1
1
1
1
1
1
1
1
1
1
1
1
1
1
1
1
1
1
1
1
1
1
1
1
1
1
1
1
1
1
1
1
1
1
1
1
1
1
1
1
1
1
1
1
1
1
1
1
1
1
1
1
1
1
1
1
1
1
1
1
1
1
1
1
1
1
1
1
1
1
1
1
1
1
1
1
1
1
1
1
1
1
1
1
1
1
1
1
1
1
1
1
1
1
1
1
1
1
1
1
1
1
1
1
1
1
1
1
1
1
1
1
1
1
1
1
1
1
1
1
1
1
1
1
1
1
1
1
1
1
1
1
1
1
1
1
1
1
1
1
1
1
1
1
1
1
1
1
1
1
1
1
1
1
1
1
1
1
1
1
1
1
1
1
1
1
1
1
1
1
1
1
1
1
1
1
1
1
1
1
1
1
1
1
1
1
1
1
1
1
1
1
1
1
1
1
1
1
1
1
1
1
1
1
1
1
1
1
1
1
1
1
1
1
1
1
1
1
1
1
1
1
1
1
1
1
1
1
1
1
1
1
1
1
1
1
1
1
1
1
1
1
1
1
1
1
1
1
1
1
1
1
1
1
1
1
1
1
1
1
1
1
1
1
1
1
1
1
1
1
1
1
1
1
1
1
1
1
1
1
1
1
1
1
1
1
1
1
1
1
1
1
1
1
1
1
1
1
1
1
1
1
1
1
1
1
1
1
1
1
1
1
1
1
1
1
1
1
1
1
1
1
1
1
1
1
1
1
1
1
1
1
1
1
1
1
1
1
1
1
1
1
1
1
1
1
1
1
1
1
1
1
1
1
1
1
1
1
1
1
1
1
1
1
1
1
1
1
1
1
1
1
1
1
1
1
1
1
1
1
1
1
1
1
1
1
1
1
1
1
1
1
1
1
1
1
1
1
1
1
1
1
1
1
1
1
1
1
1
1
1
1
1
1
1
1
1
1
1
1
1
1
1
1
1
1
1
1
1
1
1
1
1
1
1
1
1
1
1
1
1
1
1
1
1
1
1
1
1
1
1
1
1
1
1
1
1
1
1
1
1
1
1
1
1
1
1
1
1
1
1
1
1
1
1
1
1
1
1
1
1
1
1
1
1
1
1
1
1
1
1
1
1
1
1
1
1
1
1
1
1
1
1
1
1
1
1
1
1
1
1
1
1
1
1
1
1
1
1
1
1
1
1
1
1
1
1
1
1
1
1
1
1
1
1
1
1
1
1
1
1
1
1
1
1
1
1
1
1
1
1
1
1
1
1
1
1
1
1
1
1
1
1
1
1
1
1
1
1
1
1
1
1
1
1
1
1
1
1
1
1
1
1
1
1
1
1
1
1
1
1
1
1
1
1
1
1
1
1
1
1
1
1
1
1
1
1
1
1
1
1
1
1
1
1
1
1
1
1
1
1
1
1
1
1
1
1
1
1
1
1
1
1
1
1
1
1
1
1
1
1
1
1
1
1
1
1
1
1
1
1
1
1
1
1
1
1
1
1
1
1
1
1
1
1
1
1
1
1
1
1
1
1
1
1
1
1
1
1
1
1
1
1
1
1
1
1
1
1
1
1
1
1
1
1
1
1
1
1
1
1
1
1
1
1
1
1
1
1
1
1
1
1
1
1
1
1
1
1
1
1
1
1
1
1
1
1
1
1
1
1
1
1
1
1
1
1
1
1
1
1
1
1
1
1
1
1
1
1
1
1
1
1
1
1
1
1
1
1
1
1
1
1
1
1
1
1
1
1
1
1
1
1
1
1
1
1
1
1
1
1
1
1
1
1
1
1
1
1
1
1
1
1
1
1
1
1
1
1
1
1
1
1
1
1
1
1
1
1
1
1
1
1
1
1
1
1
1
1
1
1
1
1
1
1
1
1
1
1
1
1
1
1
1
1
1
1
1
1
1
1
1
1
1
1
1
1
1
1
1
1
1
1
1
1
1
1
1
1
1
1
1
1
1
1
1
1
1
1
1
1
1
1
1
1
1
1
1
1
1
1
1
1
1
1
1
1
1
1
1
1
1
1
1
1
1
1
1
1
1
1
1
1
1
1
1
1
1
1
1
1
1
1
1
1
1
1
1
1
1
1
1
1
1
1
1
1
1
1
1
1
1
1
1
1
1
1
1
1
1
1
1
1
1
1
1
1
1
1
1
1
1
1
1
1
1
1
1
1
1
1
1
1
1
1
1
1
1
1
1
1
1
1
1
1
1
1
1
1
1
1
1
1
1
1
1
1
1
1
1
1
1
1
1
1
1
1
1
1
1
1
1
1
1
1
1
1
1
1
1
1
1
1
1
1
1
1
1
1
1
1
1
1
1
1
1
1
1
1
1
1
1
1
1
1
1
1
1
1
1
1
1
1
1
1
1
1
1
1
1
1
1
1
1
1
1
1
1
1
1
1
1
1
1
1
1
1
1
1
1
1
1
1
1
1
1
1
1
1
1
1
1
1
1
1
1
1
1
1
1
1
1
1
1
1
1
1
1
1
1
1
1
1
1
1
1
1
1
1
1
1
1
1
1
1
1
1
1
1
1
1
1
1
1
1
1
1
1
1
1
1
1
1
1
1
1
1
1
1
1
1
1
1
1
1
1
1
1
1
1
1
1
1
1
1
1
1
1
1
1
1
1
1
1
1
1
1
1
1
1
1
1
1
1
1
1
1
1
1
1
1
1
1
1
1
1
1
1
1
1
1
1
1
1
1
1
1
1
1
1
1
1
1
1
1
1
1
1
1
1
1
1
1
1
1
1
1
1
1
1
1
1
1
1
1
1
1
1
1
1
1
1
1
1
1
1
1
1
1
1
1
1
1
1
1
1
1
1
1
1
1
1
1
1
1
1
1
1
1
1
1
1
1
1
1
1
1
1
1
1
1
1
1
1
1
1
1
1
1
1
1
1
1
1
1
1
1
1
1
1
1
1
1
1
1
1
1
1
1
1
1
1
1
1
1
1
1
1
1
1
1
1
1
1
1
1
1
1
1
1
1
1
1
1
1
1
1
1
1
1
1
1
1
1
1
1
1
1
1
1
1
1
1
1
1
1
1
1
1
1
1
1
1
1
1
1
1
1
1
1
1
1
1
1
1
1
1
1
1
1
1
1
1
1
1
1
1
1
1
1
1
1
1
1
1
1
1
1.42116
1
1
1
1
1
1
1
1
1
1
1
1
1
1
1
1
1
1
1
1
1
1
1
1
1
1
1
1
1
2.36516
0.998516
1
1
1
1
1
1
1
1
1
1
1
1
1
1
1
1
1
1
1
1
1
1
1
1
1
1
1
1
3.60449
1.07694
1
1
1
1
1
1
1
1
1
1
1
1
1
1
1
1
1
1
1
1
1
1
1
1
1
1
1
1
5.2223
1.36386
1
1
1
1
1
1
1
1
1
1
1
1
1
1
1
1
1
1
1
1
1
1
1
1
1
1
1
1
6.8846
2.16789
0.998804
1
1
1
1
1
1
1
1
1
1
1
1
1
1
1
1
1
1
1
1
1
1
1
1
1
1
1
8.61461
3.85185
1.11426
0.999852
1
1
1
1
1
1
1
1
1
1
1
1
1
1
1
1
1
1
1
1
1
1
1
1
1
1
9.50267
6.3285
2.61687
1.00598
1
1
1
1
1
1
1
1
1
1
1
1
1
1
1
1
1
1
1
1
1
1
1
1
1
1
8.53971
6.68298
5.71292
1.76283
0.999297
1
1
1
1
1
1
1
1
1
1
1
1
1
1
1
1
1
1
1
1
1
1
1
1
1
7.05351
6.34441
6.94762
4.55003
1.25901
0.999669
1
1
1
1
1
1
1
1
1
1
1
1
1
1
1
1
1
1
1
1
1
1
1
1
6.16711
5.98292
6.68086
6.22296
2.69738
1.00969
1
1
1
1
1
1
1
1
1
1
1
1
1
1
1
1
1
1
1
1
1
1
1
1
5.78598
5.86344
6.36407
6.23741
4.74007
1.43673
0.999451
1
1
1
1
1
1
1
1
1
1
1
1
1
1
1
1
1
1
1
1
1
1
1
5.63965
5.80284
6.03131
5.94546
5.98586
2.83024
1.02409
1
1
1
1
1
1
1
1
1
1
1
1
1
1
1
1
1
1
1
1
1
1
1
5.59261
5.68679
5.76532
5.83932
6.11066
4.81904
1.48185
0.999384
1
1
1
1
1
1
1
1
1
1
1
1
1
1
1
1
1
1
1
1
1
1
5.57589
5.6551
5.66206
5.82756
6.03209
5.60786
2.67861
1.01619
1
1
1
1
1
1
1
1
1
1
1
1
1
1
1
1
1
1
1
1
1
1
5.59756
5.6756
5.69087
5.78723
5.92048
5.70525
4.10091
1.27475
0.999909
1
1
1
1
1
1
1
1
1
1
1
1
1
1
1
1
1
1
1
1
1
5.6481
5.72177
5.73155
5.76147
5.79446
5.67959
5.22275
2.1163
0.999548
1
1
1
1
1
1
1
1
1
1
1
1
1
1
1
1
1
1
1
1
1
5.71727
5.77578
5.76708
5.75608
5.71265
5.70648
5.7085
3.6631
1.13804
1
1
1
1
1
1
1
1
1
1
1
1
1
1
1
1
1
1
1
1
1
5.78447
5.82599
5.78813
5.75978
5.70769
5.71197
5.72745
4.7818
1.73597
0.999075
1
1
1
1
1
1
1
1
1
1
1
1
1
1
1
1
1
1
1
1
5.83705
5.86188
5.80422
5.77923
5.73838
5.73963
5.73594
5.3113
2.72045
1.02847
1
1
1
1
1
1
1
1
1
1
1
1
1
1
1
1
1
1
1
1
5.86971
5.88404
5.81171
5.81135
5.79095
5.75826
5.76233
5.68391
4.20777
1.30504
0.999583
1
1
1
1
1
1
1
1
1
1
1
1
1
1
1
1
1
1
1
5.89453
5.89243
5.82249
5.83833
5.83683
5.78398
5.77922
5.78542
5.16505
2.15855
1.00239
1
1
1
1
1
1
1
1
1
1
1
1
1
1
1
1
1
1
1
5.90809
5.88943
5.84409
5.85845
5.86961
5.82113
5.8038
5.80889
5.48487
3.25322
1.09036
1
1
1
1
1
1
1
1
1
1
1
1
1
1
1
1
1
1
1
5.91194
5.88541
5.86441
5.87161
5.88244
5.85745
5.84619
5.84136
5.74459
4.62726
1.51227
0.999265
1
1
1
1
1
1
1
1
1
1
1
1
1
1
1
1
1
1
5.90497
5.87919
5.87538
5.88111
5.89076
5.87559
5.87112
5.85563
5.85525
5.49015
2.58291
1.01938
1
1
1
1
1
1
1
1
1
1
1
1
1
1
1
1
1
1
5.89116
5.87047
5.87665
5.87713
5.88818
5.88092
5.87912
5.86986
5.89801
5.64529
3.73622
1.19514
1
1
1
1
1
1
1
1
1
1
1
1
1
1
1
1
1
1
5.87332
5.86186
5.87227
5.86737
5.87808
5.87732
5.88059
5.88069
5.9037
5.77439
5.00377
1.7911
0.998967
1
1
1
1
1
1
1
1
1
1
1
1
1
1
1
1
1
5.85293
5.85192
5.86201
5.8563
5.86349
5.8695
5.87771
5.88375
5.89211
5.8337
5.72118
3.07794
1.05643
1
1
1
1
1
1
1
1
1
1
1
1
1
1
1
1
1
5.83272
5.84375
5.85169
5.84729
5.85019
5.86032
5.86742
5.87694
5.88271
5.86828
5.77503
4.18306
1.35494
0.9995
1
1
1
1
1
1
1
1
1
1
1
1
1
1
1
1
5.82366
5.84341
5.8472
5.84639
5.8392
5.85148
5.86027
5.87205
5.88055
5.89024
5.80743
5.2608
2.1122
1.00395
1
1
1
1
1
1
1
1
1
1
1
1
1
1
1
1
5.82607
5.84738
5.84793
5.8471
5.83984
5.84426
5.85214
5.86639
5.88101
5.88193
5.83144
5.84766
3.55052
1.11944
1
1
1
1
1
1
1
1
1
1
1
1
1
1
1
1
5.83275
5.8551
5.85279
5.84806
5.84509
5.84252
5.84543
5.85712
5.87951
5.87276
5.82217
5.88139
4.5526
1.56026
0.99923
1
1
1
1
1
1
1
1
1
1
1
1
1
1
1
5.84219
5.86195
5.85944
5.85092
5.85217
5.8466
5.84363
5.84896
5.87789
5.87716
5.82054
5.8294
5.34982
2.41095
1.01506
1
1
1
1
1
1
1
1
1
1
1
1
1
1
1
5.85126
5.86373
5.86365
5.8563
5.85966
5.85331
5.84673
5.84226
5.87357
5.8764
5.83163
5.82201
5.88874
3.92951
1.19781
0.999726
1
1
1
1
1
1
1
1
1
1
1
1
1
1
5.85543
5.86243
5.86326
5.85893
5.86303
5.857
5.85086
5.83649
5.86661
5.8732
5.84673
5.82314
5.94855
4.83278
1.77027
1.00086
1
1
1
1
1
1
1
1
1
1
1
1
1
1
5.85668
5.85836
5.8598
5.85701
5.86179
5.8575
5.8532
5.83283
5.85769
5.87135
5.85614
5.8132
5.89233
5.38273
2.66569
1.03333
1
1
1
1
1
1
1
1
1
1
1
1
1
1
5.85334
5.85118
5.85337
5.85488
5.8601
5.85677
5.85467
5.83236
5.84979
5.87108
5.86626
5.80918
5.83584
5.84963
4.19322
1.28303
0.999585
0.999998
1
1
1
1
1
1
1
1
1
1
1
1
5.8463
5.84424
5.84742
5.85273
5.85925
5.85682
5.85661
5.83419
5.84422
5.86916
5.87556
5.8241
5.83782
5.95334
5.02747
1.95385
1.00449
0.999999
1
1
1
1
1
1
1
1
1
1
1
1
5.84327
5.8414
5.84608
5.85234
5.85802
5.85708
5.85955
5.83847
5.84335
5.86815
5.87916
5.84021
5.8344
5.94837
5.43933
2.88717
1.05416
0.999909
0.999999
1
1
1
1
1
1
1
1
1
1
1
5.8461
5.84275
5.84689
5.85326
5.85605
5.85492
5.86253
5.84569
5.84626
5.86478
5.87763
5.84719
5.82202
5.87864
5.78525
4.41101
1.39911
1.00113
0.999999
1
1
1
1
1
1
1
1
1
1
1
5.85885
5.85992
5.86278
5.86838
5.86502
5.86001
5.86936
5.8601
5.85174
5.86753
5.87481
5.84865
5.81753
5.87393
5.91426
5.04648
1.91179
0.972815
0.999653
1
1
1
1
1
1
1
1
1
1
1
2.78023
4.29432
5.02175
5.44947
5.63633
5.75149
5.81695
5.84205
5.85208
5.8619
5.87341
5.87038
5.8309
5.84034
5.9268
5.59237
3.72956
1.28139
1.00398
1.00002
1
1
1
1
1
1
1
1
1
1
1.04316
2.65774
3.72598
4.52444
5.0076
5.3493
5.55289
5.70047
5.77422
5.81082
5.84064
5.86833
5.85963
5.83063
5.89917
5.88501
5.12891
2.36091
1.07695
1.00082
1
1
1
1
1
1
1
1
1
1
0.444702
1.70921
2.6418
3.44534
4.17226
4.66497
5.06181
5.3335
5.54751
5.66559
5.74359
5.8149
5.85515
5.8268
5.84586
5.9476
5.8313
4.0877