/*--------------------------------*- C++ -*----------------------------------*\
  =========                 |
  \\      /  F ield         | OpenFOAM: The Open Source CFD Toolbox
   \\    /   O peration     | Website:  https://openfoam.org
    \\  /    A nd           | Version:  7
     \\/     M anipulation  |
\*---------------------------------------------------------------------------*/
FoamFile
{
    version     2.0;
    format      ascii;
    class       volVectorField;
    location    "6.5";
    object      U;
}
// * * * * * * * * * * * * * * * * * * * * * * * * * * * * * * * * * * * * * //

dimensions      [0 1 -1 0 0 0 0];

internalField   nonuniform List<vector> 
90000
(
(2.96403 -1.29663 0)
(2.8844 -1.13007 0)
(2.85224 -1.06224 0)
(2.80316 -0.847766 0)
(2.81098 -0.684322 0)
(2.82904 -0.692523 0)
(2.82239 -0.604806 0)
(2.81534 -0.477203 0)
(2.82793 -0.396267 0)
(2.84792 -0.372407 0)
(2.83844 -0.269003 0)
(2.84729 -0.223802 0)
(2.8437 -0.137467 0)
(2.85447 -0.109607 0)
(2.8424 -0.0204351 0)
(2.85289 0.0028038 0)
(2.84273 0.0760495 0)
(2.85006 0.0967489 0)
(2.84393 0.150526 0)
(2.8451 0.152471 0)
(2.83924 0.180653 0)
(2.83733 0.179839 0)
(2.84202 0.182165 0)
(2.83718 0.173246 0)
(2.83591 0.169611 0)
(2.83733 0.163078 0)
(2.83747 0.162312 0)
(2.84065 0.154564 0)
(2.84139 0.145011 0)
(2.8388 0.13582 0)
(2.83758 0.130919 0)
(2.83355 0.123357 0)
(2.83005 0.116498 0)
(2.82519 0.109922 0)
(2.82389 0.108182 0)
(2.82319 0.109363 0)
(2.82419 0.110741 0)
(2.82895 0.114755 0)
(2.83192 0.118668 0)
(2.83072 0.118446 0)
(2.82922 0.116086 0)
(2.82903 0.113797 0)
(2.82819 0.112882 0)
(2.82656 0.1055 0)
(2.8271 0.101091 0)
(2.82974 0.0925057 0)
(2.83185 0.0940047 0)
(2.83515 0.0980092 0)
(2.84046 0.107608 0)
(2.84296 0.115308 0)
(2.8512 0.1268 0)
(2.85258 0.128517 0)
(2.85311 0.125523 0)
(2.85238 0.119996 0)
(2.85267 0.113783 0)
(2.8518 0.101851 0)
(2.85443 0.0997044 0)
(2.85665 0.103737 0)
(2.86062 0.112675 0)
(2.86775 0.126135 0)
(2.87033 0.129508 0)
(2.87197 0.127582 0)
(2.87267 0.121953 0)
(2.87309 0.113654 0)
(2.87514 0.106826 0)
(2.87717 0.111459 0)
(2.88037 0.121734 0)
(2.88528 0.133019 0)
(2.88654 0.132598 0)
(2.88734 0.127569 0)
(2.88793 0.110131 0)
(2.88972 0.112142 0)
(2.89246 0.118064 0)
(2.89788 0.127805 0)
(2.89901 0.126292 0)
(2.89957 0.121706 0)
(2.90171 0.115222 0)
(2.90411 0.118184 0)
(2.90726 0.122892 0)
(2.90861 0.121077 0)
(2.90985 0.116056 0)
(2.91139 0.111296 0)
(2.91323 0.114332 0)
(2.91613 0.117511 0)
(2.91689 0.11555 0)
(2.9185 0.111833 0)
(2.92066 0.107488 0)
(2.92213 0.108008 0)
(2.92409 0.108383 0)
(2.92483 0.106575 0)
(2.92524 0.101516 0)
(2.92558 0.0956691 0)
(2.92642 0.0905593 0)
(2.92805 0.0886672 0)
(2.92736 0.0828979 0)
(2.92851 0.0789021 0)
(2.92882 0.0744548 0)
(2.92963 0.0700889 0)
(2.9308 0.0667549 0)
(2.93184 0.0583048 0)
(3.07338 -1.4787 0)
(3.07329 -1.47858 0)
(3.07316 -1.4785 0)
(3.07303 -1.47834 0)
(3.07284 -1.4783 0)
(3.0727 -1.47809 0)
(3.07242 -1.47812 0)
(3.07225 -1.4778 0)
(3.07192 -1.47798 0)
(3.07092 -1.47625 0)
(3.06597 -1.46542 0)
(3.05729 -1.44506 0)
(3.04334 -1.40431 0)
(3.02498 -1.35571 0)
(2.99825 -1.26262 0)
(2.97289 -1.1778 0)
(2.9388 -1.03799 0)
(2.91237 -0.926065 0)
(2.87486 -0.75018 0)
(2.85514 -0.645388 0)
(2.81486 -0.457513 0)
(2.80996 -0.382791 0)
(2.77463 -0.226078 0)
(2.77607 -0.171415 0)
(2.74636 -0.0498688 0)
(2.75252 -0.0220878 0)
(2.73115 0.0609455 0)
(2.73811 0.07737 0)
(2.72581 0.129234 0)
(2.73113 0.135056 0)
(2.7247 0.165335 0)
(2.72954 0.173833 0)
(2.72762 0.194342 0)
(2.73213 0.203449 0)
(2.73656 0.220656 0)
(2.74281 0.222475 0)
(2.7482 0.215491 0)
(2.75362 0.198701 0)
(2.75356 0.172044 0)
(2.74815 0.138277 0)
(2.75248 0.121369 0)
(2.75541 0.0984506 0)
(2.7596 0.0818269 0)
(2.76578 0.0723288 0)
(2.77239 0.084604 0)
(2.77619 0.103024 0)
(2.78402 0.127069 0)
(2.7796 0.148858 0)
(2.78415 0.165478 0)
(2.78461 0.164198 0)
(2.78394 0.157427 0)
(2.78075 0.140727 0)
(2.7829 0.127202 0)
(2.78344 0.109848 0)
(2.7887 0.103959 0)
(2.79362 0.111391 0)
(2.80241 0.123608 0)
(2.80757 0.136962 0)
(2.81404 0.146416 0)
(2.8177 0.145161 0)
(2.81946 0.139092 0)
(2.8193 0.126499 0)
(2.82157 0.118152 0)
(2.82725 0.116672 0)
(2.83261 0.124431 0)
(2.83913 0.133178 0)
(2.84378 0.131264 0)
(2.84725 0.124461 0)
(2.84929 0.118225 0)
(2.85276 0.108085 0)
(2.85707 0.116088 0)
(2.86114 0.12544 0)
(2.86591 0.127491 0)
(2.87086 0.123555 0)
(2.87427 0.1198 0)
(2.87689 0.11276 0)
(2.88112 0.116923 0)
(2.88569 0.119625 0)
(2.89 0.11717 0)
(2.89297 0.115474 0)
(2.89503 0.111267 0)
(2.89803 0.115955 0)
(2.90129 0.11692 0)
(2.90493 0.114768 0)
(2.90764 0.113436 0)
(2.90924 0.109614 0)
(2.91214 0.112019 0)
(2.91447 0.111534 0)
(2.91667 0.108423 0)
(2.9184 0.102772 0)
(2.91919 0.0959196 0)
(2.92056 0.0949528 0)
(2.92178 0.093512 0)
(2.92288 0.0905631 0)
(2.92252 0.0821545 0)
(2.92424 0.078302 0)
(2.92474 0.0746843 0)
(2.92623 0.0708253 0)
(2.92733 0.0677619 0)
(2.9286 0.0608107 0)
(3.06991 -1.47756 0)
(3.06952 -1.47754 0)
(3.06923 -1.47729 0)
(3.06876 -1.47732 0)
(3.06844 -1.47702 0)
(3.06791 -1.47708 0)
(3.0676 -1.47671 0)
(3.06701 -1.47681 0)
(3.06672 -1.47635 0)
(3.06603 -1.47655 0)
(3.06581 -1.47618 0)
(3.0656 -1.47596 0)
(3.0654 -1.47567 0)
(3.06512 -1.47555 0)
(3.06491 -1.47524 0)
(3.06451 -1.47532 0)
(3.06434 -1.4749 0)
(3.06386 -1.47511 0)
(3.06374 -1.47455 0)
(3.06332 -1.4751 0)
(3.0598 -1.46764 0)
(3.04918 -1.44409 0)
(3.02416 -1.38349 0)
(2.99117 -1.30107 0)
(2.94497 -1.15789 0)
(2.90702 -1.03571 0)
(2.8571 -0.848156 0)
(2.82868 -0.725297 0)
(2.78311 -0.53033 0)
(2.77689 -0.445582 0)
(2.73611 -0.274996 0)
(2.73869 -0.214555 0)
(2.70556 -0.0825669 0)
(2.70527 -0.0462167 0)
(2.68895 0.0313684 0)
(2.68803 0.047611 0)
(2.68622 0.0796815 0)
(2.68865 0.0882057 0)
(2.69061 0.0871249 0)
(2.70471 0.0975918 0)
(2.70778 0.0943747 0)
(2.7092 0.0937746 0)
(2.70977 0.0974081 0)
(2.70971 0.104478 0)
(2.70817 0.114172 0)
(2.71142 0.119984 0)
(2.71415 0.113655 0)
(2.71384 0.112369 0)
(2.71085 0.110816 0)
(2.70466 0.110084 0)
(2.70268 0.106543 0)
(2.70126 0.107857 0)
(2.71094 0.106085 0)
(2.71578 0.107283 0)
(2.7243 0.11001 0)
(2.72949 0.114705 0)
(2.74062 0.110034 0)
(2.74275 0.106759 0)
(2.74554 0.105662 0)
(2.7472 0.105967 0)
(2.7485 0.104803 0)
(2.74922 0.104662 0)
(2.75779 0.108402 0)
(2.76407 0.115466 0)
(2.77114 0.119628 0)
(2.77856 0.122933 0)
(2.78358 0.122282 0)
(2.78767 0.117715 0)
(2.79034 0.110748 0)
(2.79848 0.11043 0)
(2.80534 0.114723 0)
(2.81227 0.118573 0)
(2.81916 0.118779 0)
(2.82499 0.115774 0)
(2.83046 0.113447 0)
(2.83665 0.117058 0)
(2.84308 0.12052 0)
(2.84977 0.121036 0)
(2.85574 0.120108 0)
(2.86087 0.116054 0)
(2.86579 0.116784 0)
(2.87106 0.115973 0)
(2.87674 0.11421 0)
(2.88187 0.1146 0)
(2.88642 0.11319 0)
(2.89009 0.112831 0)
(2.89396 0.109293 0)
(2.89798 0.10669 0)
(2.90125 0.104421 0)
(2.90382 0.101076 0)
(2.90594 0.100816 0)
(2.90767 0.095611 0)
(2.91019 0.0883306 0)
(2.9124 0.0811408 0)
(2.91354 0.0734768 0)
(2.91512 0.069899 0)
(2.91665 0.0649026 0)
(2.91826 0.0617324 0)
(2.91889 0.0593517 0)
(2.9205 0.0554851 0)
(3.06531 -1.47625 0)
(3.06508 -1.47603 0)
(3.06474 -1.47599 0)
(3.06448 -1.47578 0)
(3.06414 -1.47574 0)
(3.06389 -1.4755 0)
(3.06355 -1.47545 0)
(3.06331 -1.4752 0)
(3.06298 -1.47515 0)
(3.06275 -1.47491 0)
(3.06244 -1.47488 0)
(3.06225 -1.47466 0)
(3.06194 -1.47469 0)
(3.06176 -1.4745 0)
(3.06152 -1.47448 0)
(3.0613 -1.47448 0)
(3.06119 -1.4743 0)
(3.06102 -1.47429 0)
(3.06087 -1.47431 0)
(3.06082 -1.47412 0)
(3.06083 -1.47402 0)
(3.06079 -1.4741 0)
(3.06082 -1.47391 0)
(3.06079 -1.47389 0)
(3.06086 -1.47367 0)
(3.0608 -1.4738 0)
(3.06093 -1.47351 0)
(3.06085 -1.47386 0)
(3.05933 -1.46972 0)
(3.05007 -1.44806 0)
(3.02284 -1.37812 0)
(2.98781 -1.28712 0)
(2.93484 -1.11375 0)
(2.89284 -0.974318 0)
(2.82862 -0.737152 0)
(2.7941 -0.590085 0)
(2.7411 -0.389349 0)
(2.70004 -0.220157 0)
(2.69801 -0.117633 0)
(2.64856 0.0576868 0)
(2.66214 0.0985392 0)
(2.63715 0.167125 0)
(2.62233 0.209101 0)
(2.6279 0.213732 0)
(2.63457 0.207237 0)
(2.63985 0.191982 0)
(2.64472 0.159247 0)
(2.65722 0.12565 0)
(2.66181 0.100635 0)
(2.66232 0.0839859 0)
(2.6637 0.0818622 0)
(2.66473 0.0860604 0)
(2.6703 0.105935 0)
(2.67153 0.123356 0)
(2.67374 0.143968 0)
(2.67632 0.148905 0)
(2.6747 0.14387 0)
(2.67471 0.136753 0)
(2.67306 0.122462 0)
(2.67592 0.112209 0)
(2.67896 0.108195 0)
(2.68733 0.115398 0)
(2.69385 0.123763 0)
(2.7002 0.126445 0)
(2.70664 0.124386 0)
(2.7103 0.113072 0)
(2.71433 0.108596 0)
(2.71895 0.110691 0)
(2.72371 0.114936 0)
(2.73221 0.122468 0)
(2.74079 0.121644 0)
(2.74917 0.120355 0)
(2.75633 0.119037 0)
(2.76299 0.117532 0)
(2.77085 0.115276 0)
(2.77946 0.115348 0)
(2.78789 0.114502 0)
(2.79596 0.115578 0)
(2.80307 0.111972 0)
(2.81026 0.1103 0)
(2.81876 0.10936 0)
(2.82686 0.113856 0)
(2.83486 0.117324 0)
(2.84183 0.11582 0)
(2.84829 0.112959 0)
(2.85502 0.109422 0)
(2.86143 0.110633 0)
(2.86727 0.110154 0)
(2.87195 0.106618 0)
(2.8759 0.100659 0)
(2.88003 0.0953614 0)
(2.88386 0.0887522 0)
(2.88749 0.0866997 0)
(2.89042 0.0862824 0)
(2.8933 0.0832195 0)
(2.89509 0.078067 0)
(2.89745 0.0696985 0)
(2.89972 0.0622336 0)
(2.90121 0.0565674 0)
(2.90433 0.0486776 0)
(3.06239 -1.47422 0)
(3.06221 -1.47423 0)
(3.0621 -1.47408 0)
(3.06191 -1.4741 0)
(3.0618 -1.47399 0)
(3.06164 -1.47397 0)
(3.06152 -1.47391 0)
(3.06141 -1.47384 0)
(3.0613 -1.4738 0)
(3.06122 -1.47372 0)
(3.06114 -1.47368 0)
(3.06104 -1.47372 0)
(3.06104 -1.47358 0)
(3.06095 -1.47366 0)
(3.06095 -1.47356 0)
(3.06091 -1.47356 0)
(3.06088 -1.47362 0)
(3.06093 -1.47349 0)
(3.06094 -1.47345 0)
(3.06092 -1.47352 0)
(3.06097 -1.47345 0)
(3.06101 -1.47338 0)
(3.06101 -1.47341 0)
(3.06101 -1.47347 0)
(3.06104 -1.47345 0)
(3.06107 -1.47343 0)
(3.06115 -1.47333 0)
(3.06114 -1.47353 0)
(3.0612 -1.47342 0)
(3.06128 -1.47335 0)
(3.06134 -1.47334 0)
(3.06141 -1.47332 0)
(3.0614 -1.47345 0)
(3.06149 -1.47338 0)
(3.0614 -1.47367 0)
(3.06104 -1.47285 0)
(3.04491 -1.43695 0)
(3.00636 -1.33732 0)
(2.95271 -1.18581 0)
(2.88218 -0.942857 0)
(2.84106 -0.747077 0)
(2.78399 -0.500882 0)
(2.74802 -0.312361 0)
(2.73902 -0.195509 0)
(2.69372 -0.0255834 0)
(2.6896 -0.0163823 0)
(2.65896 0.0377905 0)
(2.65674 0.0587262 0)
(2.65889 0.0756499 0)
(2.66049 0.0795998 0)
(2.65973 0.0852182 0)
(2.65435 0.0977114 0)
(2.64505 0.109772 0)
(2.6449 0.123419 0)
(2.64165 0.125601 0)
(2.63692 0.124101 0)
(2.63473 0.119517 0)
(2.63554 0.110116 0)
(2.63596 0.108025 0)
(2.64152 0.101819 0)
(2.64699 0.103017 0)
(2.65658 0.112449 0)
(2.65825 0.120684 0)
(2.66006 0.123192 0)
(2.65989 0.122662 0)
(2.65745 0.117671 0)
(2.6626 0.108318 0)
(2.66924 0.100152 0)
(2.67373 0.103161 0)
(2.67963 0.109658 0)
(2.68636 0.116343 0)
(2.69138 0.113675 0)
(2.69682 0.111002 0)
(2.70418 0.108005 0)
(2.71207 0.113223 0)
(2.72023 0.11665 0)
(2.72789 0.12083 0)
(2.73483 0.117882 0)
(2.7417 0.114101 0)
(2.75033 0.111222 0)
(2.76068 0.112572 0)
(2.77039 0.112107 0)
(2.77911 0.111336 0)
(2.78722 0.109111 0)
(2.79567 0.107805 0)
(2.80461 0.109453 0)
(2.81308 0.108136 0)
(2.82059 0.104918 0)
(2.82694 0.0993082 0)
(2.83279 0.0958363 0)
(2.83897 0.0940819 0)
(2.84466 0.0941032 0)
(2.84971 0.0907755 0)
(2.85359 0.0803708 0)
(2.85795 0.0742932 0)
(2.8614 0.0713383 0)
(2.86536 0.0687857 0)
(2.86865 0.067599 0)
(2.87143 0.0651267 0)
(2.87552 0.0575138 0)
(3.06089 -1.47377 0)
(3.06086 -1.47377 0)
(3.06082 -1.47378 0)
(3.06082 -1.47372 0)
(3.06076 -1.47379 0)
(3.06077 -1.47371 0)
(3.06072 -1.47376 0)
(3.06071 -1.47378 0)
(3.06074 -1.47372 0)
(3.06072 -1.47376 0)
(3.06076 -1.4737 0)
(3.06077 -1.47372 0)
(3.06079 -1.47373 0)
(3.06086 -1.47366 0)
(3.06087 -1.47371 0)
(3.06093 -1.47367 0)
(3.06098 -1.47363 0)
(3.06102 -1.47363 0)
(3.06106 -1.47361 0)
(3.06114 -1.47353 0)
(3.06114 -1.4736 0)
(3.06119 -1.47356 0)
(3.06124 -1.47351 0)
(3.06125 -1.47355 0)
(3.06127 -1.47354 0)
(3.06131 -1.47349 0)
(3.06134 -1.47346 0)
(3.06135 -1.47351 0)
(3.06141 -1.47348 0)
(3.06142 -1.47355 0)
(3.06148 -1.47351 0)
(3.06147 -1.47358 0)
(3.06146 -1.47362 0)
(3.06141 -1.47369 0)
(3.0613 -1.47383 0)
(3.0612 -1.47395 0)
(3.06112 -1.47392 0)
(3.06106 -1.47384 0)
(3.06094 -1.47407 0)
(3.06099 -1.47411 0)
(3.06107 -1.47419 0)
(3.05478 -1.45759 0)
(3.02516 -1.37018 0)
(2.96969 -1.18971 0)
(2.8786 -0.867049 0)
(2.83626 -0.646363 0)
(2.7326 -0.286247 0)
(2.75331 -0.182718 0)
(2.67563 0.0234252 0)
(2.67634 0.0811426 0)
(2.64016 0.161432 0)
(2.6288 0.176573 0)
(2.62785 0.173232 0)
(2.62691 0.150084 0)
(2.62815 0.121757 0)
(2.63248 0.109394 0)
(2.63358 0.107268 0)
(2.63447 0.103893 0)
(2.63495 0.104325 0)
(2.63832 0.109068 0)
(2.64349 0.119453 0)
(2.64856 0.119977 0)
(2.64798 0.11922 0)
(2.64522 0.115455 0)
(2.64216 0.108076 0)
(2.63591 0.104263 0)
(2.64088 0.111656 0)
(2.64489 0.115188 0)
(2.64983 0.116089 0)
(2.65522 0.114527 0)
(2.65632 0.111508 0)
(2.65668 0.111621 0)
(2.66034 0.109337 0)
(2.66621 0.109734 0)
(2.67356 0.111402 0)
(2.67804 0.112756 0)
(2.68261 0.108596 0)
(2.68594 0.109805 0)
(2.69188 0.108002 0)
(2.70005 0.11091 0)
(2.70878 0.11241 0)
(2.71699 0.115459 0)
(2.7241 0.111764 0)
(2.73153 0.109268 0)
(2.74019 0.107577 0)
(2.74916 0.107653 0)
(2.75753 0.108424 0)
(2.76499 0.104337 0)
(2.77201 0.10082 0)
(2.77932 0.0955767 0)
(2.78691 0.0941791 0)
(2.7936 0.0850399 0)
(2.79958 0.081401 0)
(2.80464 0.076949 0)
(2.81001 0.073376 0)
(2.81479 0.0708428 0)
(2.82015 0.0686135 0)
(2.82464 0.0610997 0)
(2.8286 0.0579908 0)
(2.83408 0.0533943 0)
(3.06077 -1.47359 0)
(3.06081 -1.47355 0)
(3.06081 -1.47359 0)
(3.06085 -1.47357 0)
(3.06088 -1.47356 0)
(3.06089 -1.47358 0)
(3.06093 -1.47354 0)
(3.06094 -1.4736 0)
(3.06099 -1.47355 0)
(3.06103 -1.47355 0)
(3.06106 -1.47361 0)
(3.06114 -1.47354 0)
(3.06118 -1.47356 0)
(3.06123 -1.47357 0)
(3.0613 -1.4735 0)
(3.06133 -1.47355 0)
(3.06138 -1.47352 0)
(3.06144 -1.47344 0)
(3.06145 -1.47348 0)
(3.0615 -1.4734 0)
(3.06153 -1.47338 0)
(3.06154 -1.47338 0)
(3.06155 -1.47339 0)
(3.06159 -1.47332 0)
(3.06153 -1.47344 0)
(3.06155 -1.47339 0)
(3.06155 -1.47339 0)
(3.06155 -1.47339 0)
(3.06153 -1.47347 0)
(3.06153 -1.47352 0)
(3.0615 -1.47358 0)
(3.06146 -1.47365 0)
(3.06144 -1.47365 0)
(3.06135 -1.47374 0)
(3.06126 -1.47385 0)
(3.06115 -1.47393 0)
(3.06104 -1.47393 0)
(3.06098 -1.47393 0)
(3.06102 -1.47412 0)
(3.06108 -1.47421 0)
(3.06132 -1.47416 0)
(3.0614 -1.47411 0)
(3.06154 -1.47399 0)
(3.06166 -1.47393 0)
(3.06184 -1.47387 0)
(3.06183 -1.47411 0)
(3.03637 -1.40831 0)
(2.99435 -1.25964 0)
(2.91163 -0.958274 0)
(2.86936 -0.723841 0)
(2.79335 -0.399222 0)
(2.79428 -0.266268 0)
(2.72549 -0.0625346 0)
(2.72295 -0.0185631 0)
(2.67669 0.0471187 0)
(2.67348 0.059818 0)
(2.65919 0.0837232 0)
(2.65167 0.100824 0)
(2.64763 0.115152 0)
(2.63975 0.125611 0)
(2.63999 0.133774 0)
(2.63743 0.127384 0)
(2.63601 0.113647 0)
(2.63274 0.099206 0)
(2.63636 0.0947901 0)
(2.63799 0.0979529 0)
(2.64213 0.10618 0)
(2.64354 0.113685 0)
(2.64752 0.117254 0)
(2.64766 0.11499 0)
(2.64604 0.108847 0)
(2.6476 0.104231 0)
(2.64922 0.108948 0)
(2.65113 0.112864 0)
(2.65725 0.1169 0)
(2.65827 0.115624 0)
(2.66018 0.113746 0)
(2.66097 0.10682 0)
(2.66572 0.105437 0)
(2.6722 0.107594 0)
(2.67725 0.109152 0)
(2.68194 0.10489 0)
(2.68659 0.10572 0)
(2.69185 0.106783 0)
(2.6983 0.109565 0)
(2.70502 0.109489 0)
(2.71071 0.102704 0)
(2.71607 0.0979983 0)
(2.72232 0.0932812 0)
(2.72936 0.0927524 0)
(2.73636 0.0894299 0)
(2.74231 0.0899452 0)
(2.74738 0.083561 0)
(2.75238 0.0785718 0)
(2.75869 0.0757646 0)
(2.76379 0.0660209 0)
(2.76974 0.0622195 0)
(2.77487 0.0617861 0)
(2.77927 0.0575324 0)
(2.78593 0.0522428 0)
(3.06097 -1.47387 0)
(3.06099 -1.47389 0)
(3.06103 -1.47389 0)
(3.06106 -1.47389 0)
(3.06109 -1.47386 0)
(3.06111 -1.47388 0)
(3.06114 -1.47387 0)
(3.06117 -1.47384 0)
(3.0612 -1.47382 0)
(3.06123 -1.47386 0)
(3.06129 -1.47385 0)
(3.06136 -1.47378 0)
(3.06143 -1.47372 0)
(3.06149 -1.47372 0)
(3.06155 -1.47368 0)
(3.06158 -1.47367 0)
(3.06159 -1.47367 0)
(3.06162 -1.47361 0)
(3.06161 -1.47361 0)
(3.06161 -1.47359 0)
(3.06163 -1.47354 0)
(3.06159 -1.47358 0)
(3.06158 -1.47355 0)
(3.06156 -1.47357 0)
(3.0615 -1.47364 0)
(3.06144 -1.47373 0)
(3.06145 -1.4737 0)
(3.06141 -1.47376 0)
(3.06142 -1.47376 0)
(3.06142 -1.47377 0)
(3.06137 -1.47387 0)
(3.06135 -1.47389 0)
(3.06132 -1.47392 0)
(3.06131 -1.47392 0)
(3.06124 -1.47404 0)
(3.0612 -1.47401 0)
(3.06114 -1.47399 0)
(3.06114 -1.47408 0)
(3.06133 -1.47403 0)
(3.06139 -1.47401 0)
(3.06152 -1.47401 0)
(3.06173 -1.47398 0)
(3.06183 -1.47392 0)
(3.06193 -1.4739 0)
(3.06196 -1.47394 0)
(3.0619 -1.47401 0)
(3.06188 -1.47408 0)
(3.06201 -1.47417 0)
(3.06227 -1.47426 0)
(3.06245 -1.47428 0)
(3.04482 -1.41969 0)
(3.00615 -1.26342 0)
(2.90864 -0.882312 0)
(2.88439 -0.639971 0)
(2.77181 -0.257399 0)
(2.78682 -0.14687 0)
(2.6989 0.0656762 0)
(2.68051 0.100544 0)
(2.66061 0.165204 0)
(2.64588 0.161851 0)
(2.63483 0.140959 0)
(2.6381 0.123365 0)
(2.63777 0.1071 0)
(2.64028 0.104434 0)
(2.64478 0.101902 0)
(2.6511 0.106397 0)
(2.65147 0.113941 0)
(2.65101 0.119719 0)
(2.64946 0.118268 0)
(2.64646 0.112447 0)
(2.64448 0.104218 0)
(2.64698 0.104298 0)
(2.65078 0.108768 0)
(2.65273 0.114754 0)
(2.65333 0.115425 0)
(2.65295 0.112654 0)
(2.65366 0.10771 0)
(2.65529 0.107232 0)
(2.65686 0.109264 0)
(2.66389 0.112609 0)
(2.66514 0.11174 0)
(2.66642 0.109876 0)
(2.67078 0.104364 0)
(2.67375 0.104365 0)
(2.67771 0.103705 0)
(2.68024 0.103632 0)
(2.68261 0.103291 0)
(2.68521 0.096108 0)
(2.6902 0.0934772 0)
(2.69555 0.0919676 0)
(2.69996 0.0877268 0)
(2.70346 0.0804085 0)
(2.70698 0.0781554 0)
(2.71138 0.0705124 0)
(2.71579 0.0707813 0)
(2.72058 0.0709115 0)
(2.72551 0.0652848 0)
(2.73061 0.0594463 0)
(2.73468 0.0598767 0)
(2.74134 0.051757 0)
(3.06137 -1.47375 0)
(3.0614 -1.47374 0)
(3.06142 -1.47373 0)
(3.06146 -1.47369 0)
(3.06148 -1.47366 0)
(3.0615 -1.47366 0)
(3.06153 -1.4736 0)
(3.06155 -1.47357 0)
(3.06156 -1.47356 0)
(3.06159 -1.47356 0)
(3.06163 -1.47354 0)
(3.06169 -1.47346 0)
(3.06175 -1.47343 0)
(3.06178 -1.47345 0)
(3.06181 -1.47342 0)
(3.0618 -1.47344 0)
(3.06176 -1.47344 0)
(3.06175 -1.47338 0)
(3.06167 -1.47344 0)
(3.06162 -1.47349 0)
(3.0616 -1.47346 0)
(3.06152 -1.47355 0)
(3.06149 -1.47358 0)
(3.06147 -1.47358 0)
(3.06144 -1.47363 0)
(3.06139 -1.47373 0)
(3.06141 -1.47374 0)
(3.06143 -1.47376 0)
(3.06145 -1.47379 0)
(3.0615 -1.47375 0)
(3.06151 -1.47378 0)
(3.06155 -1.47375 0)
(3.06157 -1.47375 0)
(3.06156 -1.47381 0)
(3.06159 -1.47377 0)
(3.06153 -1.47383 0)
(3.06151 -1.47388 0)
(3.0616 -1.47385 0)
(3.06168 -1.47385 0)
(3.06171 -1.47387 0)
(3.06189 -1.47384 0)
(3.06206 -1.47385 0)
(3.06209 -1.47385 0)
(3.06212 -1.47383 0)
(3.06205 -1.47382 0)
(3.06182 -1.47396 0)
(3.06182 -1.47418 0)
(3.06205 -1.47435 0)
(3.06243 -1.47449 0)
(3.06261 -1.47451 0)
(3.06299 -1.47454 0)
(3.06324 -1.47438 0)
(3.06332 -1.47399 0)
(3.06303 -1.47366 0)
(3.02818 -1.36937 0)
(2.98019 -1.1524 0)
(2.88593 -0.749191 0)
(2.86983 -0.531866 0)
(2.77338 -0.181906 0)
(2.76355 -0.0925914 0)
(2.69761 0.0227912 0)
(2.68833 0.0586826 0)
(2.66971 0.0832052 0)
(2.66625 0.100196 0)
(2.66113 0.109399 0)
(2.66496 0.127811 0)
(2.65153 0.123335 0)
(2.64732 0.117465 0)
(2.64443 0.108243 0)
(2.64398 0.0974517 0)
(2.64716 0.100208 0)
(2.65268 0.108814 0)
(2.65446 0.115968 0)
(2.65471 0.118439 0)
(2.65308 0.114953 0)
(2.65051 0.108227 0)
(2.65401 0.103007 0)
(2.65678 0.105844 0)
(2.65896 0.111024 0)
(2.66279 0.111364 0)
(2.66281 0.108657 0)
(2.66334 0.104007 0)
(2.66616 0.104758 0)
(2.66963 0.10595 0)
(2.67159 0.105619 0)
(2.67225 0.101888 0)
(2.67342 0.0957676 0)
(2.67386 0.094015 0)
(2.67715 0.0894972 0)
(2.6795 0.089181 0)
(2.68062 0.0867877 0)
(2.68186 0.0829371 0)
(2.68412 0.0775815 0)
(2.68752 0.0729418 0)
(2.68949 0.0654153 0)
(2.69295 0.0618199 0)
(2.69585 0.062112 0)
(2.70015 0.0557473 0)
(2.70395 0.0533971 0)
(2.70923 0.0512272 0)
(3.06152 -1.47369 0)
(3.06155 -1.47369 0)
(3.06156 -1.47369 0)
(3.06157 -1.4737 0)
(3.06158 -1.47369 0)
(3.06159 -1.47368 0)
(3.0616 -1.47366 0)
(3.0616 -1.47367 0)
(3.06162 -1.47361 0)
(3.06166 -1.47355 0)
(3.06167 -1.47356 0)
(3.0617 -1.47356 0)
(3.06173 -1.47356 0)
(3.06169 -1.47364 0)
(3.06166 -1.47365 0)
(3.06159 -1.47367 0)
(3.06147 -1.47376 0)
(3.06143 -1.47373 0)
(3.06134 -1.47382 0)
(3.06128 -1.47386 0)
(3.06122 -1.47391 0)
(3.06121 -1.4739 0)
(3.06119 -1.47395 0)
(3.06116 -1.47408 0)
(3.06123 -1.47405 0)
(3.06129 -1.47406 0)
(3.06137 -1.47408 0)
(3.06148 -1.474 0)
(3.06155 -1.47397 0)
(3.06161 -1.47393 0)
(3.06167 -1.47388 0)
(3.06171 -1.47393 0)
(3.06175 -1.4739 0)
(3.0618 -1.47383 0)
(3.06182 -1.47383 0)
(3.06181 -1.47384 0)
(3.06183 -1.47382 0)
(3.06191 -1.4738 0)
(3.06195 -1.47381 0)
(3.06204 -1.47383 0)
(3.06218 -1.47382 0)
(3.06228 -1.47384 0)
(3.06228 -1.47384 0)
(3.06226 -1.47379 0)
(3.06208 -1.47374 0)
(3.06169 -1.47402 0)
(3.06178 -1.4743 0)
(3.06206 -1.4745 0)
(3.06246 -1.4747 0)
(3.06262 -1.47474 0)
(3.06307 -1.4748 0)
(3.06341 -1.47463 0)
(3.06379 -1.47412 0)
(3.06363 -1.47333 0)
(3.06324 -1.47317 0)
(3.0626 -1.4735 0)
(3.06229 -1.47454 0)
(3.05553 -1.45036 0)
(2.9899 -1.222 0)
(2.93403 -0.899278 0)
(2.80918 -0.412986 0)
(2.82232 -0.239049 0)
(2.70677 0.0523491 0)
(2.68156 0.0956598 0)
(2.66146 0.163964 0)
(2.65153 0.157598 0)
(2.64911 0.125091 0)
(2.6492 0.112336 0)
(2.64897 0.104167 0)
(2.6494 0.103017 0)
(2.6557 0.109142 0)
(2.66347 0.121982 0)
(2.65669 0.120978 0)
(2.65271 0.115863 0)
(2.65023 0.108387 0)
(2.65155 0.103945 0)
(2.65502 0.106215 0)
(2.6606 0.111519 0)
(2.66275 0.114653 0)
(2.662 0.11041 0)
(2.66223 0.104778 0)
(2.6632 0.100747 0)
(2.66618 0.103344 0)
(2.6701 0.106334 0)
(2.67044 0.105227 0)
(2.66955 0.0988877 0)
(2.67175 0.0938731 0)
(2.67282 0.0911618 0)
(2.67392 0.0908951 0)
(2.67418 0.0882258 0)
(2.6743 0.0834928 0)
(2.67495 0.0783941 0)
(2.67596 0.0727539 0)
(2.67709 0.0724997 0)
(2.67789 0.0687977 0)
(2.6797 0.0628509 0)
(2.6818 0.0606529 0)
(2.68471 0.0590314 0)
(2.6873 0.0532951 0)
(2.69112 0.046372 0)
(3.06169 -1.47337 0)
(3.0617 -1.47338 0)
(3.06171 -1.47337 0)
(3.0617 -1.47337 0)
(3.06169 -1.47337 0)
(3.06169 -1.47335 0)
(3.06169 -1.47335 0)
(3.06166 -1.47339 0)
(3.06167 -1.47336 0)
(3.06169 -1.47334 0)
(3.06167 -1.47341 0)
(3.06167 -1.47345 0)
(3.06166 -1.4735 0)
(3.06163 -1.47351 0)
(3.06152 -1.47358 0)
(3.06142 -1.47362 0)
(3.0613 -1.47375 0)
(3.06122 -1.47391 0)
(3.06123 -1.47394 0)
(3.06119 -1.47405 0)
(3.06117 -1.47405 0)
(3.06123 -1.47396 0)
(3.06126 -1.47402 0)
(3.06132 -1.47406 0)
(3.06145 -1.47406 0)
(3.0615 -1.47404 0)
(3.06168 -1.474 0)
(3.06179 -1.47396 0)
(3.06184 -1.47387 0)
(3.06193 -1.47379 0)
(3.06199 -1.47377 0)
(3.06204 -1.47376 0)
(3.06206 -1.47374 0)
(3.06207 -1.47373 0)
(3.06208 -1.47373 0)
(3.06209 -1.47374 0)
(3.0621 -1.47376 0)
(3.06213 -1.47378 0)
(3.06218 -1.4738 0)
(3.0623 -1.47379 0)
(3.06242 -1.47383 0)
(3.06245 -1.47385 0)
(3.06244 -1.47383 0)
(3.06241 -1.4737 0)
(3.06212 -1.47367 0)
(3.06175 -1.474 0)
(3.06175 -1.47434 0)
(3.06203 -1.4746 0)
(3.06247 -1.47489 0)
(3.06269 -1.47499 0)
(3.06305 -1.47499 0)
(3.06343 -1.47484 0)
(3.06395 -1.47432 0)
(3.06381 -1.47335 0)
(3.06359 -1.47318 0)
(3.06307 -1.47356 0)
(3.06254 -1.47404 0)
(3.06137 -1.47584 0)
(3.06149 -1.47684 0)
(3.0618 -1.47681 0)
(3.05269 -1.44812 0)
(3.01296 -1.27236 0)
(2.90712 -0.841899 0)
(2.87012 -0.549249 0)
(2.76087 -0.160454 0)
(2.72959 -0.0505279 0)
(2.70117 0.0295755 0)
(2.67378 0.0739026 0)
(2.66989 0.0988323 0)
(2.66305 0.11522 0)
(2.65864 0.130111 0)
(2.65512 0.127864 0)
(2.65009 0.115211 0)
(2.64235 0.0995012 0)
(2.64761 0.0942128 0)
(2.65251 0.101105 0)
(2.6592 0.111785 0)
(2.66389 0.117363 0)
(2.66291 0.112662 0)
(2.66029 0.104096 0)
(2.66056 0.0983929 0)
(2.66322 0.10168 0)
(2.66667 0.106287 0)
(2.66987 0.106551 0)
(2.66858 0.101496 0)
(2.66709 0.0946761 0)
(2.66971 0.0903812 0)
(2.67175 0.0902555 0)
(2.67212 0.0897147 0)
(2.67202 0.0861377 0)
(2.67138 0.0801459 0)
(2.67231 0.0760629 0)
(2.67349 0.0721223 0)
(2.67452 0.0693311 0)
(2.67467 0.065258 0)
(2.67619 0.060635 0)
(2.67808 0.0569522 0)
(2.67914 0.0559845 0)
(2.6809 0.0552582 0)
(2.68273 0.0485533 0)
(3.06172 -1.47331 0)
(3.0617 -1.47336 0)
(3.0617 -1.47337 0)
(3.0617 -1.47339 0)
(3.06165 -1.47348 0)
(3.06166 -1.47348 0)
(3.06165 -1.47348 0)
(3.06157 -1.47357 0)
(3.06154 -1.47358 0)
(3.06155 -1.47357 0)
(3.06153 -1.47363 0)
(3.06148 -1.47377 0)
(3.06148 -1.47385 0)
(3.0615 -1.47384 0)
(3.06147 -1.47378 0)
(3.06139 -1.47378 0)
(3.06131 -1.47395 0)
(3.06128 -1.47416 0)
(3.0613 -1.47427 0)
(3.06135 -1.47429 0)
(3.06136 -1.47425 0)
(3.06141 -1.47421 0)
(3.06148 -1.47417 0)
(3.06155 -1.47416 0)
(3.06157 -1.47417 0)
(3.06162 -1.47416 0)
(3.06186 -1.47405 0)
(3.06192 -1.474 0)
(3.06201 -1.47393 0)
(3.06209 -1.47387 0)
(3.06215 -1.47385 0)
(3.06218 -1.47384 0)
(3.06218 -1.47383 0)
(3.06218 -1.47385 0)
(3.06221 -1.4739 0)
(3.06227 -1.47395 0)
(3.06235 -1.47401 0)
(3.06237 -1.47402 0)
(3.06245 -1.47402 0)
(3.06262 -1.47398 0)
(3.06274 -1.47399 0)
(3.06275 -1.47389 0)
(3.06272 -1.47372 0)
(3.0626 -1.47355 0)
(3.06213 -1.47367 0)
(3.06191 -1.47391 0)
(3.06182 -1.47418 0)
(3.06209 -1.47461 0)
(3.06228 -1.47485 0)
(3.06264 -1.47509 0)
(3.06298 -1.47507 0)
(3.06339 -1.47493 0)
(3.06394 -1.47449 0)
(3.06398 -1.47358 0)
(3.06393 -1.47336 0)
(3.0638 -1.47316 0)
(3.06255 -1.47375 0)
(3.06087 -1.47603 0)
(3.06075 -1.47776 0)
(3.0613 -1.47766 0)
(3.0623 -1.47633 0)
(3.06285 -1.47525 0)
(3.06315 -1.47462 0)
(3.05797 -1.45257 0)
(2.98113 -1.19406 0)
(2.88305 -0.745238 0)
(2.80862 -0.348668 0)
(2.72464 -0.0412416 0)
(2.68951 0.0976362 0)
(2.65919 0.166334 0)
(2.65341 0.160217 0)
(2.65511 0.128966 0)
(2.64946 0.106776 0)
(2.6496 0.103199 0)
(2.65158 0.100456 0)
(2.6622 0.114691 0)
(2.66541 0.120848 0)
(2.66347 0.117038 0)
(2.66065 0.109665 0)
(2.65748 0.101154 0)
(2.65917 0.101948 0)
(2.66401 0.106243 0)
(2.66758 0.107804 0)
(2.667 0.102859 0)
(2.6658 0.0965087 0)
(2.66638 0.0924737 0)
(2.6677 0.0923797 0)
(2.66988 0.0905059 0)
(2.66968 0.0875041 0)
(2.66884 0.0824722 0)
(2.6677 0.0765544 0)
(2.66814 0.0737276 0)
(2.6705 0.0703505 0)
(2.67217 0.066428 0)
(2.67278 0.0621404 0)
(2.67435 0.0586836 0)
(2.67701 0.0557907 0)
(2.67765 0.0534845 0)
(2.67905 0.0522603 0)
(2.68073 0.0459292 0)
(3.06165 -1.47353 0)
(3.06164 -1.47359 0)
(3.06167 -1.47359 0)
(3.06168 -1.47361 0)
(3.06166 -1.47371 0)
(3.06167 -1.4737 0)
(3.06171 -1.47364 0)
(3.06165 -1.47369 0)
(3.0616 -1.47376 0)
(3.06165 -1.47375 0)
(3.06166 -1.4738 0)
(3.06159 -1.47396 0)
(3.06159 -1.4741 0)
(3.06163 -1.47412 0)
(3.06167 -1.47406 0)
(3.06162 -1.47409 0)
(3.06155 -1.4742 0)
(3.06153 -1.47424 0)
(3.06152 -1.47435 0)
(3.06153 -1.47442 0)
(3.06155 -1.47439 0)
(3.06159 -1.47432 0)
(3.06162 -1.47427 0)
(3.06169 -1.47422 0)
(3.06175 -1.47427 0)
(3.0619 -1.47428 0)
(3.06219 -1.47418 0)
(3.06228 -1.47408 0)
(3.06231 -1.47399 0)
(3.06232 -1.47395 0)
(3.06232 -1.47392 0)
(3.06232 -1.47391 0)
(3.0623 -1.47392 0)
(3.06226 -1.47403 0)
(3.06228 -1.47424 0)
(3.06243 -1.47442 0)
(3.06259 -1.47452 0)
(3.06264 -1.47455 0)
(3.06283 -1.47451 0)
(3.06307 -1.47434 0)
(3.06309 -1.47427 0)
(3.06315 -1.47393 0)
(3.0632 -1.47359 0)
(3.06291 -1.47345 0)
(3.06246 -1.4733 0)
(3.06224 -1.47334 0)
(3.06214 -1.47377 0)
(3.06217 -1.47418 0)
(3.06224 -1.47461 0)
(3.06247 -1.47506 0)
(3.06283 -1.47537 0)
(3.06329 -1.47521 0)
(3.06364 -1.47478 0)
(3.06388 -1.47399 0)
(3.06411 -1.47342 0)
(3.06401 -1.47295 0)
(3.06221 -1.47385 0)
(3.06133 -1.47638 0)
(3.06068 -1.47719 0)
(3.06132 -1.47744 0)
(3.06232 -1.47687 0)
(3.06305 -1.47562 0)
(3.06402 -1.47241 0)
(3.0639 -1.47279 0)
(3.0634 -1.47491 0)
(3.06362 -1.47476 0)
(3.03781 -1.39266 0)
(2.95194 -1.06089 0)
(2.84756 -0.586181 0)
(2.81704 -0.282691 0)
(2.70563 -0.0207152 0)
(2.70649 0.0329493 0)
(2.67698 0.0788341 0)
(2.66912 0.10088 0)
(2.66337 0.119223 0)
(2.66272 0.125692 0)
(2.65824 0.119331 0)
(2.6529 0.105044 0)
(2.65174 0.0954406 0)
(2.65455 0.0998409 0)
(2.65997 0.106879 0)
(2.66495 0.109243 0)
(2.66484 0.103437 0)
(2.66355 0.0953065 0)
(2.66261 0.0897827 0)
(2.66415 0.0907038 0)
(2.66669 0.0916113 0)
(2.66715 0.0888301 0)
(2.66721 0.0824408 0)
(2.66572 0.0770602 0)
(2.66518 0.0739584 0)
(2.66539 0.0719174 0)
(2.6667 0.0685796 0)
(2.6682 0.0637122 0)
(2.66903 0.0586229 0)
(2.67019 0.0556313 0)
(2.67359 0.0539338 0)
(2.6751 0.0506434 0)
(2.67695 0.0485234 0)
(2.67907 0.0428063 0)
(3.06167 -1.47397 0)
(3.06169 -1.474 0)
(3.06172 -1.474 0)
(3.06174 -1.47403 0)
(3.06176 -1.47407 0)
(3.06179 -1.47408 0)
(3.06182 -1.47408 0)
(3.06184 -1.47409 0)
(3.06187 -1.47408 0)
(3.06189 -1.47405 0)
(3.06189 -1.47405 0)
(3.06188 -1.47413 0)
(3.06189 -1.4742 0)
(3.06191 -1.47421 0)
(3.06191 -1.47422 0)
(3.06187 -1.47424 0)
(3.06188 -1.47425 0)
(3.06189 -1.47426 0)
(3.06195 -1.47425 0)
(3.06204 -1.47425 0)
(3.06205 -1.47426 0)
(3.06205 -1.47427 0)
(3.06214 -1.47422 0)
(3.06224 -1.47412 0)
(3.06227 -1.47414 0)
(3.06228 -1.4742 0)
(3.0624 -1.47415 0)
(3.06246 -1.47406 0)
(3.06251 -1.47401 0)
(3.06252 -1.47398 0)
(3.06246 -1.47402 0)
(3.06236 -1.47408 0)
(3.06226 -1.47415 0)
(3.06212 -1.47447 0)
(3.06221 -1.47485 0)
(3.06251 -1.475 0)
(3.06263 -1.47501 0)
(3.06279 -1.47504 0)
(3.06317 -1.47492 0)
(3.06337 -1.4747 0)
(3.06334 -1.47451 0)
(3.06345 -1.47413 0)
(3.06357 -1.4736 0)
(3.06349 -1.47312 0)
(3.06325 -1.47268 0)
(3.06294 -1.47269 0)
(3.06266 -1.47328 0)
(3.06252 -1.47357 0)
(3.06227 -1.47421 0)
(3.06218 -1.47496 0)
(3.06248 -1.47547 0)
(3.06294 -1.47574 0)
(3.0632 -1.47527 0)
(3.06336 -1.47485 0)
(3.06365 -1.47414 0)
(3.06366 -1.47335 0)
(3.06236 -1.47413 0)
(3.06157 -1.47616 0)
(3.0608 -1.47696 0)
(3.06115 -1.47724 0)
(3.06178 -1.47737 0)
(3.06327 -1.47604 0)
(3.06438 -1.47303 0)
(3.0644 -1.47188 0)
(3.06388 -1.47315 0)
(3.06347 -1.47364 0)
(3.0635 -1.47363 0)
(3.06316 -1.47394 0)
(3.06085 -1.47188 0)
(3.01253 -1.28328 0)
(2.84578 -0.694511 0)
(2.83977 -0.35666 0)
(2.70831 0.0479296 0)
(2.67696 0.120238 0)
(2.66079 0.179316 0)
(2.6543 0.141742 0)
(2.65205 0.112775 0)
(2.65092 0.100726 0)
(2.65217 0.0994112 0)
(2.66126 0.112508 0)
(2.66382 0.112413 0)
(2.66246 0.107614 0)
(2.66065 0.0995827 0)
(2.66021 0.092528 0)
(2.66096 0.0921755 0)
(2.66328 0.0923432 0)
(2.66507 0.0909893 0)
(2.66534 0.0851193 0)
(2.66631 0.0795337 0)
(2.66456 0.0749815 0)
(2.66466 0.0734639 0)
(2.66451 0.0708545 0)
(2.66469 0.0664884 0)
(2.66539 0.0617298 0)