/*--------------------------------*- C++ -*----------------------------------*\
  =========                 |
  \\      /  F ield         | OpenFOAM: The Open Source CFD Toolbox
   \\    /   O peration     | Website:  https://openfoam.org
    \\  /    A nd           | Version:  7
     \\/     M anipulation  |
\*---------------------------------------------------------------------------*/
FoamFile
{
    version     2.0;
    format      ascii;
    class       volScalarField;
    location    "1.5";
    object      T;
}
// * * * * * * * * * * * * * * * * * * * * * * * * * * * * * * * * * * * * * //

dimensions      [0 0 0 1 0 0 0];

internalField   nonuniform List<scalar> 
1750
(
1.29538
1.33665
1.43953
1.45449
1.39822
1.28788
1.21805
1.16753
1.10581
1.03478
0.477592
1.0114
1.3012
1.35596
1.42738
1.41555
1.37197
1.28282
1.17497
1.05536
0.330968
0.355834
0.38952
0.420879
0.774086
1.14854
1.22677
1.20263
1.13524
1.03128
0.353992
0.380753
0.39175
0.424005
0.515224
0.631685
0.803147
0.939853
0.974944
0.954807
0.441579
0.454142
0.473271
0.513567
0.596185
0.656524
0.673959
0.683921
0.718148
0.806251
0.551528
0.572819
0.590235
0.606377
0.643525
0.707881
0.722511
0.726843
0.730538
0.783151
0.685623
0.689727
0.69345
0.700954
0.721301
0.761997
0.786528
0.793877
0.79769
0.831417
0.832491
0.823218
0.812075
0.810374
0.814278
0.825712
0.836554
0.843835
0.851692
0.887225
0.946313
0.933955
0.91848
0.908648
0.903365
0.89895
0.901391
0.908739
0.917957
0.945624
0.995339
0.98952
0.98151
0.973218
0.966684
0.96092
0.960285
0.963597
0.970017
0.984
1.00258
1.00106
0.99915
0.996726
0.994305
0.992419
0.992238
0.993099
0.994988
0.998019
1.00117
1.00067
1.0003
0.999965
0.999644
0.99946
0.999462
0.999548
0.999721
0.999921
1.00011
1.00008
1.00004
1.00001
0.999994
0.999987
0.999987
0.99999
0.999995
0.999999
1
1
1
1
1
1
1
1
1
1
1
1
1
1
1
1
1
1
1
1
0.530284
0.439396
0.330061
0.3204
0.420397
0.534881
0.680965
0.840138
0.956721
0.999719
1.00403
1.00159
1.00013
1
1
0.504587
0.373643
0.308439
0.339243
0.452829
0.577116
0.732352
0.887074
0.982465
1.00615
1.00544
1.00154
1.00008
1
1
0.479337
0.348082
0.331434
0.375719
0.476593
0.619415
0.778872
0.921167
0.995755
1.00873
1.00626
1.00134
1.00005
1
1
0.470214
0.349205
0.353382
0.42527
0.541768
0.677995
0.827516
0.951296
1.00545
1.01084
1.00655
1.00102
1.00003
1
1
0.480021
0.348725
0.377629
0.47692
0.586344
0.723734
0.871964
0.978237
1.01245
1.01239
1.00605
1.00066
1.00002
1
1
0.470113
0.370142
0.413915
0.508954
0.626848
0.774757
0.920767
0.999909
1.01611
1.01327
1.00458
1.00035
1.00001
1
1
0.461088
0.403235
0.438639
0.53414
0.680068
0.844115
0.962653
1.01273
1.01831
1.01311
1.0032
1.00017
1
1
1
0.433139
0.426869
0.448737
0.591771
0.765587
0.903822
0.992179
1.02009
1.01969
1.01134
1.00182
1.00007
1
1
1
0.381906
0.406628
0.5091
0.687679
0.840274
0.952768
1.01287
1.02368
1.02036
1.00802
1.00085
1.00002
1
1
1
0.310211
0.383178
0.587495
0.774318
0.904159
0.992205
1.02444
1.02555
1.01791
1.00471
1.00033
1.00001
1
1
1
0.383678
0.486096
0.700341
0.854208
0.963401
1.0184
1.02884
1.02642
1.01339
1.00221
1.0001
1
1
1
1
0.0911143
0.58186
0.795125
0.930478
1.00659
1.03072
1.03055
1.02319
1.00778
1.0008
1.00003
1
1
1
1
0.215217
0.657049
0.886393
0.992283
1.02953
1.0345
1.03129
1.01685
1.00347
1.00022
1.00001
1
1
1
1
0.469604
0.819531
0.977914
1.02554
1.03758
1.03563
1.02578
1.00897
1.00108
1.00005
1
1
1
1
1
0.808758
0.970919
1.02733
1.03829
1.03944
1.03329
1.01706
1.00341
1.00022
1.00001
1
1
1
1
1
1.03983
1.04073
1.04137
1.04036
1.03973
1.02468
1.00673
1.0004
1
1
1
1
1
1
1
1.04049
1.04172
1.04241
1.04084
1.03784
1.022
1.00584
1.00061
1.00002
1
1
1
1
1
1
1.04117
1.0428
1.04334
1.04102
1.03327
1.01441
1.00224
1.00011
1
1
1
1
1
1
1
1.04145
1.04366
1.0436
1.03952
1.02761
1.00892
1.00095
1.00004
1
1
1
1
1
1
1
1.04137
1.04448
1.04384
1.0366
1.0206
1.00445
1.00033
1.00001
1
1
1
1
1
1
1
1.04219
1.04492
1.04398
1.03182
1.01311
1.00201
1.0001
1
1
1
1
1
1
1
1
1.04431
1.04393
1.04182
1.0248
1.00712
1.00072
1.00003
1
1
1
1
1
1
1
1
1.04817
1.04076
1.03625
1.01692
1.00344
1.00023
1.00001
1
1
1
1
1
1
1
1
1.05167
1.03823
1.02877
1.00984
1.0013
1.00006
1
1
1
1
1
1
1
1
1
1.05337
1.03455
1.01951
1.00465
1.00042
1.00001
1
1
1
1
1
1
1
1
1
1.05295
1.02809
1.01192
1.00194
1.00012
1
1
1
1
1
1
1
1
1
1
1.04716
1.02085
1.00582
1.00059
1.00002
1
1
1
1
1
1
1
1
1
1
1.03893
1.01315
1.0023
1.00014
1
1
1
1
1
1
1
1
1
1
1
1.02714
1.00611
1.00058
1.00002
1
1
1
1
1
1
1
1
1
1
1
1.01219
1.00178
1.00009
1
1
1
1
1
1
1
1
1
1
1
1
1
1
1
1
1
1
1
1
1
1
1
1
1
1
1
1
1
1
1
1
1
1
1
1
1
1
1
1
1
1
1
1
1
1
1
1
1
1
1
1
1
1
1
1
1
1
1
1
1
1
1
1
1
1
1
1
1
1
1
1
1
1
1
1
1
1
1
1
1
1
1
1
1
1
1
1
1
1
1
1
1
1
1
1
1
1
1
1
1
1
1
1
1
1
1
1
1
1
1
1
1
1
1
1
1
1
1
1
1
1
1
1
1
1
1
1
1
1
1
1
1
1
1
1
1
1
1
1
1
1
1
1
1
1
1
1
1
1
1
1
1
1
1
1
1
1
1
1
1
1
1
1
1
1
1
1
1
1
1
1
1
1
1
1
1
1
1
1
1
1
1
1
1
1
1
1
1
1
1
1
1
1
1
1
1
1
1
1
1
1
1
1
1
1
1
1
1
1
1
1
1
1
1
1
1
1
1
1
1
1
1
1
1
1
1
1
1
1
1
1
1
1
1
1
1
1
1
1
1
1
1
1
1
1
1
1
1
1
1
1
1
1
1
1
1
1
1
1
1
1
1
1
1
1
1
1
1
1
1
1
1
1
1
1
1
1
1
1
1
1
1
1
1
1
1
1
1
1
1
1
1
1
1
1
1
1
1
1
1
1
1
1
1
1
1
1
1
1
1
1
1
1
1
1
1
1
1
1
1
1
1
1
1
1
1
1
1
1
1
1
1
1
1
1
1
1
1
1
1
1
1
1
1
1
1
1
1
1
1
1
1
1
1
1
1
1
1
1
1
1
1.26783
0.999948
1
1
1
1
1
1
1
1
1
1
1
1
1
1
1
1
1
1
2.0812
1.61542
1.00195
1
1
1
1
1
1
1
1
1
1
1
1
1
1
1
1
1
2.4226
2.26156
2.33545
1.42248
0.999529
1
1
1
1
1
1
1
1
1
1
1
1
1
1
1
2.28906
2.20964
2.31104
2.23887
1.4734
0.99877
1
1
1
1
1
1
1
1
1
1
1
1
1
1
2.21306
2.18652
2.22301
2.2218
2.02451
1.25026
0.999213
1
1
1
1
1
1
1
1
1
1
1
1
1
2.18105
2.16957
2.17686
2.17425
2.11146
1.67396
1.01948
1
1
1
1
1
1
1
1
1
1
1
1
1
2.15788
2.15138
2.16255
2.15511
2.13507
1.94797
1.2756
0.999207
1
1
1
1
1
1
1
1
1
1
1
1
2.13102
2.12951
2.14489
2.14428
2.12662
2.03153
1.6111
1.01308
1
1
1
1
1
1
1
1
1
1
1
1
2.10159
2.10257
2.12232
2.13068
2.12757
2.07092
1.8228
1.14904
0.999999
1
1
1
1
1
1
1
1
1
1
1
2.07734
2.07883
2.09968
2.11273
2.11146
2.06686
1.93226
1.42266
0.998592
1
1
1
1
1
1
1
1
1
1
1
2.06189
2.06501
2.08737
2.10115
2.09874
2.07162
1.98954
1.64233
1.02444
1
1
1
1
1
1
1
1
1
1
1
2.05401
2.05877
2.07996
2.09254
2.0879
2.07037
2.00857
1.79111
1.17631
0.999999
1
1
1
1
1
1
1
1
1
1
2.04931
2.05391
2.07359
2.08652
2.08548
2.07197
2.02351
1.89679
1.38339
0.998474
1
1
1
1
1
1
1
1
1
1
2.04915
2.05129
2.0688
2.08072
2.08309
2.07032
2.02883
1.95683
1.64129
1.05013
1
1
1
1
1
1
1
1
1
1
2.05184
2.05617
2.07388
2.0807
2.08238
2.07091
2.03941
1.9705
1.71198
1.04157
0.9986
1
1
1
1
1
1
1
1
1
1.5448
1.77709
1.88492
1.95638
2.00473
2.0309
2.02928
2.01245
1.96408
1.6059
1.09568
1.00144
1.00001
1
1
1
1
1
1
1
1.11683
1.51975
1.64322
1.74547
1.84614
1.92047
1.96096
1.98796
1.98529
1.89344
1.48985
1.055
1.00069
1
1
1
1
1
1
1
1.06162
1.30561
1.44449
1.56111
1.67077
1.78589
1.8605
1.909
1.94313
1.9361
1.81139
1.33035
1.01889
1.00015
1
1
1
1
1
1
1.08786
1.15767
1.25221
1.4032
1.52006
1.63997
1.74994
1.80993
1.86186
1.90255
1.87451
1.63516
1.1419
1.00292
1.00001
1
1
1
1
1
1.18068
1.13763
1.11369
1.22464
1.38128
1.50211
1.61427
1.69122
1.76625
1.84318
1.83792
1.71627
1.33579
1.02323
1.00019
1
1
1
1
1
1.29891
1.14403
1.07539
1.15956
1.28341
1.41014
1.49961
1.58103
1.66406
1.76452
1.78207
1.73107
1.48435
1.09343
1.00161
1.00001
1
1
1
1
1.31799
1.16738
1.07722
1.12947
1.20495
1.32667
1.42766
1.51693
1.59749
1.68638
1.74198
1.71387
1.5483
1.18624
1.0072
1.00004
1
1
1
1
1.30374
1.17513
1.08086
1.09187
1.12163
1.2369
1.34642
1.4485
1.54254
1.62966
1.7027
1.68566
1.56859
1.27468
1.02201
1.00018
1
1
1
1
1.26917
1.17354
1.09877
1.06922
1.05809
1.13834
1.25156
1.34443
1.45679
1.56063
1.65232
1.6484
1.55622
1.32517
1.04524
1.00058
1
1
1
1
1.23263
1.17054
1.10537
1.05793
1.04902
1.10858
1.20362
1.29583
1.38941
1.48085
1.57627
1.595
1.5186
1.3251
1.07008
1.00146
1.00001
1
1
1
1.19983
1.16301
1.11003
1.05845
1.04159
1.08132
1.16522
1.27335
1.36336
1.44403
1.51297
1.53971
1.47497
1.315
1.08394
1.00245
1.00001
1
1
1
1.18456
1.16204
1.11421
1.06426
1.04524
1.07842
1.12523
1.2428
1.33744
1.4116
1.47296
1.50156
1.4399
1.29614
1.08356
1.00293
1.00002
1
1
1
1.18973
1.16965
1.12413
1.07509
1.05989
1.08821
1.12623
1.20869
1.29567
1.35783
1.42044
1.45514
1.39654
1.26863
1.07962
1.00294
1.00002
1
1
1
1.22653
1.20528
1.15666
1.10515
1.08851
1.11557
1.14608
1.20148
1.27016
1.30502
1.35709
1.39169
1.34213
1.23466
1.07023
1.00265
1.00002
1
1
1
1.25569
1.24934
1.2092
1.16157
1.14127
1.14621
1.16477
1.19492
1.23352
1.24593
1.28678
1.32823
1.29027
1.1997
1.05636
1.00202
1.00001
1
1
1
1.27445
1.25042
1.24002
1.201
1.17175
1.14918
1.16077
1.16517
1.16346
1.17504
1.2296
1.27679
1.24708
1.16449
1.03877
1.00111
1.00001
1
1
1
1.23816
1.23842
1.23878
1.20506
1.16968
1.13371
1.129
1.10452
1.07496
1.11671
1.19312
1.23533
1.21104
1.12849
1.02189
1.00044
1
1
1
1
1.25593
1.21267
1.21958
1.19094
1.14495
1.0857
1.06447
1.03288
1.00586
1.07548
1.1686
1.19893
1.17571
1.08843
1.00889
1.00011
1
1
1
1
1.27352
1.1736
1.15116
1.12801
1.08167
1.0176
1.00051
0.986305
0.983803
1.0653
1.15146
1.16614
1.1356
1.04548
1.00203
1.00001
1
1
1
1
1.21367
1.08345
1.0412
1.02544
1.00516
0.972098
0.964215
0.976501
0.990679
1.07067
1.13378
1.13233
1.08277
1.01216
1.00019
1
1
1
1
1
1.07536
0.964594
0.940324
0.950912
0.96087
0.960748
0.962845
0.984545
1.01896
1.0778
1.10576
1.0859
1.02646
1.00108
1
1
1
1
1
1
0.997818
0.908836
0.893209
0.917241
0.945537
0.965312
0.979441
1.00322
1.034
1.06976
1.06186
1.0271
1.00225
1
0.999996
1
1
1
1
1
1.00018
0.923069
0.896851
0.909571
0.93289
0.96248
0.984356
1.00705
1.02971
1.03097
1.01223
1.00078
0.999858
0.999981
0.999999
1
1
1
1
1
0.998341
0.935125
0.912825
0.91378
0.922398
0.94771
0.972143
0.992807
0.99596
0.991583
0.994465
0.998966
0.999903
0.999995
1
1
1
1
1
1
0.988437
0.955107
0.938539
0.928928
0.926209
0.933334
0.944157
0.95356
0.965623
0.982202
0.995151
0.999443
0.99998
1
1
1
1
1
1
1
)
;

boundaryField
{
    inlet
    {
        type            fixedValue;
        value           uniform 1;
    }
    outlet
    {
        type            inletOutlet;
        inletValue      uniform 1;
        value           nonuniform List<scalar> 
35
(
0.987999
0.955247
0.938681
0.92909
0.926094
0.932779
0.943383
0.95244
0.965349
0.982612
0.995398
0.999499
0.999983
1
1
1
1
1
1
1
1.03346
1.0533
1.02892
0.952063
0.80589
0.784286
0.832849
0.888944
0.947016
0.984713
0.998163
0.999929
0.999999
1
1
)
;
    }
    airfoil
    {
        type            zeroGradient;
    }
    top
    {
        type            symmetryPlane;
    }
    bottom
    {
        type            symmetryPlane;
    }
    defaultFaces
    {
        type            empty;
    }
}


// ************************************************************************* //
