/*--------------------------------*- C++ -*----------------------------------*\
  =========                 |
  \\      /  F ield         | OpenFOAM: The Open Source CFD Toolbox
   \\    /   O peration     | Website:  https://openfoam.org
    \\  /    A nd           | Version:  7
     \\/     M anipulation  |
\*---------------------------------------------------------------------------*/
FoamFile
{
    version     2.0;
    format      ascii;
    class       volVectorField;
    location    "6";
    object      U;
}
// * * * * * * * * * * * * * * * * * * * * * * * * * * * * * * * * * * * * * //

dimensions      [0 1 -1 0 0 0 0];

internalField   nonuniform List<vector> 
60000
(
(2.19771 -1.19494 0)
(2.16656 -0.668145 0)
(2.20125 -0.278118 0)
(2.28131 -0.153759 0)
(2.28151 0.22392 0)
(1.99055 0.204451 0)
(1.47313 0.215362 0)
(1.52897 0.283074 0)
(1.69951 0.323861 0)
(1.86757 0.359141 0)
(2.0077 0.393104 0)
(2.11771 0.420398 0)
(2.20899 0.439229 0)
(2.29554 0.452017 0)
(2.37273 0.467041 0)
(2.44515 0.483034 0)
(2.50026 0.482278 0)
(2.54552 0.483191 0)
(2.58494 0.482586 0)
(2.62143 0.483276 0)
(2.65649 0.480497 0)
(2.68751 0.484424 0)
(2.71517 0.482433 0)
(2.73952 0.484153 0)
(2.76384 0.480293 0)
(2.78896 0.478296 0)
(2.81364 0.469612 0)
(2.83717 0.459709 0)
(2.85774 0.446294 0)
(2.87143 0.433437 0)
(2.87997 0.423459 0)
(2.88612 0.416007 0)
(2.89067 0.409761 0)
(2.89433 0.410699 0)
(2.89785 0.412684 0)
(2.9008 0.41588 0)
(2.90418 0.417668 0)
(2.90783 0.420322 0)
(2.91054 0.422286 0)
(2.91151 0.425208 0)
(2.91134 0.427446 0)
(2.90928 0.432109 0)
(2.90731 0.435685 0)
(2.90517 0.439773 0)
(2.90424 0.442691 0)
(2.90341 0.443444 0)
(2.90314 0.443597 0)
(2.90192 0.443164 0)
(2.90186 0.443165 0)
(2.90026 0.442321 0)
(2.89833 0.437469 0)
(2.8968 0.428264 0)
(2.89605 0.41933 0)
(2.89483 0.411701 0)
(2.89482 0.406465 0)
(2.89468 0.399654 0)
(2.89819 0.391857 0)
(2.89837 0.385083 0)
(2.89863 0.384614 0)
(2.899 0.386568 0)
(2.89993 0.385284 0)
(2.90108 0.38358 0)
(2.90112 0.378437 0)
(2.90086 0.372636 0)
(2.8993 0.365024 0)
(2.89645 0.350655 0)
(2.89724 0.345438 0)
(2.89709 0.337812 0)
(2.89611 0.339058 0)
(2.89708 0.340702 0)
(2.8982 0.341361 0)
(2.89857 0.33872 0)
(2.89833 0.333533 0)
(2.8963 0.324331 0)
(2.89399 0.310637 0)
(2.8931 0.30091 0)
(2.89199 0.29029 0)
(2.89129 0.29025 0)
(2.89397 0.289358 0)
(2.89307 0.285234 0)
(2.89202 0.27799 0)
(2.8901 0.268132 0)
(2.88586 0.255832 0)
(2.88206 0.241258 0)
(2.8808 0.220076 0)
(2.87999 0.206657 0)
(2.87874 0.203363 0)
(2.87806 0.199422 0)
(2.87841 0.192848 0)
(2.87804 0.182492 0)
(2.87515 0.166769 0)
(2.87594 0.157837 0)
(2.87626 0.15232 0)
(2.87696 0.138253 0)
(2.87915 0.133498 0)
(2.87827 0.125939 0)
(2.88049 0.120277 0)
(2.88315 0.116237 0)
(2.88602 0.110347 0)
(2.88958 0.0984011 0)
(2.64011 -1.90687 0)
(2.64019 -1.90667 0)
(2.63986 -1.90696 0)
(2.63983 -1.90686 0)
(2.60075 -1.9589 0)
(0.708994 -1.44632 0)
(0.361408 -0.460271 0)
(0.438716 -0.0161246 0)
(0.614108 0.152547 0)
(0.780888 0.319644 0)
(0.940935 0.362467 0)
(1.08862 0.39331 0)
(1.25162 0.406559 0)
(1.40481 0.424323 0)
(1.53416 0.426328 0)
(1.63615 0.427601 0)
(1.71842 0.431456 0)
(1.80252 0.42796 0)
(1.88257 0.428458 0)
(1.95701 0.421878 0)
(2.02776 0.409605 0)
(2.09448 0.397529 0)
(2.15914 0.387813 0)
(2.2217 0.388763 0)
(2.28274 0.39745 0)
(2.34113 0.408539 0)
(2.39692 0.423263 0)
(2.45125 0.433826 0)
(2.50014 0.446785 0)
(2.55781 0.456413 0)
(2.61512 0.46319 0)
(2.66427 0.469031 0)
(2.70327 0.471314 0)
(2.73536 0.475184 0)
(2.76302 0.480483 0)
(2.78732 0.485547 0)
(2.80854 0.48945 0)
(2.82631 0.493311 0)
(2.84217 0.493454 0)
(2.85538 0.49399 0)
(2.86566 0.49237 0)
(2.87209 0.491732 0)
(2.87625 0.489451 0)
(2.87786 0.488256 0)
(2.87821 0.483459 0)
(2.87897 0.477079 0)
(2.87899 0.464596 0)
(2.87905 0.451365 0)
(2.8804 0.43746 0)
(2.88223 0.424981 0)
(2.88323 0.414982 0)
(2.88309 0.405271 0)
(2.88308 0.398129 0)
(2.8833 0.392975 0)
(2.88358 0.389418 0)
(2.88364 0.388848 0)
(2.88626 0.386181 0)
(2.88854 0.3849 0)
(2.89274 0.38391 0)
(2.89417 0.384154 0)
(2.89551 0.384822 0)
(2.89631 0.381968 0)
(2.89632 0.373544 0)
(2.89594 0.360742 0)
(2.89482 0.352187 0)
(2.89345 0.347008 0)
(2.89463 0.340257 0)
(2.89532 0.338511 0)
(2.89683 0.339952 0)
(2.89811 0.343034 0)
(2.89829 0.341935 0)
(2.89786 0.336336 0)
(2.89689 0.327112 0)
(2.89399 0.313372 0)
(2.89314 0.304189 0)
(2.89134 0.294101 0)
(2.89252 0.288923 0)
(2.89331 0.287668 0)
(2.89401 0.288593 0)
(2.89306 0.284199 0)
(2.89074 0.273802 0)
(2.88717 0.258911 0)
(2.88297 0.246507 0)
(2.87775 0.230386 0)
(2.87843 0.216019 0)
(2.87913 0.203386 0)
(2.8787 0.202055 0)
(2.87752 0.195668 0)
(2.87681 0.188947 0)
(2.87486 0.178156 0)
(2.87345 0.163297 0)
(2.87529 0.155793 0)
(2.87686 0.148143 0)
(2.87674 0.136288 0)
(2.87727 0.133089 0)
(2.8772 0.128365 0)
(2.87875 0.121429 0)
(2.88098 0.115511 0)
(2.88386 0.108647 0)
(2.88766 0.0964006 0)
(2.63878 -1.90724 0)
(2.63798 -1.90821 0)
(2.63827 -1.90796 0)
(2.63742 -1.90926 0)
(2.63784 -1.90832 0)
(2.63769 -1.90864 0)
(2.56834 -1.8077 0)
(1.11513 -1.2867 0)
(0.570323 -0.618989 0)
(0.502849 -0.17105 0)
(0.511009 0.00135636 0)
(0.604759 0.00254448 0)
(0.716768 0.0806896 0)
(0.767077 0.18561 0)
(0.83869 0.227437 0)
(0.913944 0.223861 0)
(0.998368 0.222396 0)
(1.08131 0.230344 0)
(1.15065 0.237278 0)
(1.19687 0.262661 0)
(1.25242 0.280039 0)
(1.31351 0.292438 0)
(1.39089 0.291984 0)
(1.47465 0.288114 0)
(1.55112 0.288268 0)
(1.62669 0.284997 0)
(1.70197 0.289723 0)
(1.779 0.294597 0)
(1.85458 0.305649 0)
(1.93752 0.314296 0)
(2.02737 0.322268 0)
(2.11745 0.340206 0)
(2.20239 0.356693 0)
(2.27895 0.372557 0)
(2.34935 0.381713 0)
(2.41436 0.388324 0)
(2.47528 0.391064 0)
(2.53134 0.39172 0)
(2.58244 0.387948 0)
(2.62907 0.383455 0)
(2.67194 0.376051 0)
(2.71076 0.369442 0)
(2.74502 0.363489 0)
(2.77389 0.361651 0)
(2.79733 0.359324 0)
(2.81639 0.358282 0)
(2.8316 0.352481 0)
(2.84406 0.348784 0)
(2.85246 0.344972 0)
(2.85977 0.346635 0)
(2.86561 0.349717 0)
(2.86973 0.354803 0)
(2.87256 0.359846 0)
(2.87468 0.363442 0)
(2.87608 0.368749 0)
(2.87691 0.37508 0)
(2.87947 0.378536 0)
(2.88202 0.381744 0)
(2.88471 0.381698 0)
(2.88679 0.381427 0)
(2.88718 0.379077 0)
(2.88577 0.371888 0)
(2.88567 0.36203 0)
(2.8851 0.349303 0)
(2.88676 0.341089 0)
(2.8869 0.340077 0)
(2.89001 0.33877 0)
(2.89343 0.340383 0)
(2.89773 0.34434 0)
(2.89747 0.343591 0)
(2.89609 0.33873 0)
(2.89439 0.327455 0)
(2.89194 0.311202 0)
(2.89042 0.301587 0)
(2.89003 0.298626 0)
(2.89016 0.291723 0)
(2.89205 0.288386 0)
(2.89337 0.286996 0)
(2.8938 0.28607 0)
(2.89232 0.280335 0)
(2.88896 0.266774 0)
(2.88558 0.252027 0)
(2.88109 0.238732 0)
(2.87631 0.221642 0)
(2.87544 0.211003 0)
(2.87802 0.203162 0)
(2.87814 0.200633 0)
(2.87731 0.192139 0)
(2.87602 0.183553 0)
(2.87412 0.174983 0)
(2.87206 0.160326 0)
(2.87352 0.152191 0)
(2.8748 0.143198 0)
(2.87557 0.135618 0)
(2.87572 0.135009 0)
(2.87565 0.130041 0)
(2.87692 0.121356 0)
(2.87882 0.114511 0)
(2.88172 0.106921 0)
(2.88582 0.0944564 0)
(2.63636 -1.91113 0)
(2.63718 -1.91052 0)
(2.63686 -1.91153 0)
(2.63778 -1.9111 0)
(2.6379 -1.91207 0)
(2.63901 -1.91172 0)
(2.63976 -1.91269 0)
(2.64193 -1.91113 0)
(2.50732 -1.84695 0)
(2.24407 -1.50883 0)
(1.38804 -1.02394 0)
(0.845466 -0.536827 0)
(0.767521 -0.233199 0)
(0.702289 -0.0580461 0)
(0.731984 -0.0110253 0)
(0.779444 -0.00921264 0)
(0.840298 0.0362517 0)
(0.867644 0.0881378 0)
(0.893963 0.117615 0)
(0.919776 0.114077 0)
(0.943105 0.110053 0)
(0.969318 0.116937 0)
(0.99655 0.145064 0)
(1.03813 0.16464 0)
(1.07362 0.187388 0)
(1.11518 0.205422 0)
(1.15937 0.220765 0)
(1.20512 0.23512 0)
(1.25261 0.250013 0)
(1.30565 0.270874 0)
(1.37743 0.272326 0)
(1.46175 0.263421 0)
(1.54224 0.258739 0)
(1.62119 0.257542 0)
(1.70137 0.262836 0)
(1.78378 0.268866 0)
(1.86463 0.282802 0)
(1.94823 0.287512 0)
(2.03322 0.298214 0)
(2.12012 0.31935 0)
(2.20496 0.348215 0)
(2.28608 0.372866 0)
(2.36244 0.38936 0)
(2.43246 0.399808 0)
(2.49695 0.407003 0)
(2.55544 0.417314 0)
(2.61027 0.425031 0)
(2.66154 0.432038 0)
(2.70478 0.437352 0)
(2.73958 0.441065 0)
(2.76648 0.443207 0)
(2.78782 0.443591 0)
(2.80442 0.441002 0)
(2.81758 0.437723 0)
(2.82735 0.432375 0)
(2.83427 0.426816 0)
(2.8402 0.417186 0)
(2.84566 0.405109 0)
(2.85138 0.390795 0)
(2.8573 0.37476 0)
(2.86333 0.359034 0)
(2.86539 0.34368 0)
(2.86729 0.33619 0)
(2.86615 0.330903 0)
(2.87666 0.330059 0)
(2.88151 0.334214 0)
(2.88567 0.339449 0)
(2.88972 0.345887 0)
(2.89086 0.345752 0)
(2.88875 0.338726 0)
(2.88622 0.328237 0)
(2.88569 0.317993 0)
(2.88509 0.305198 0)
(2.88504 0.296371 0)
(2.88573 0.293714 0)
(2.88805 0.289168 0)
(2.89106 0.288426 0)
(2.8918 0.285927 0)
(2.89152 0.280612 0)
(2.88928 0.271276 0)
(2.88527 0.256062 0)
(2.88172 0.240884 0)
(2.87804 0.229746 0)
(2.8741 0.213793 0)
(2.87394 0.20784 0)
(2.87677 0.202777 0)
(2.87783 0.198561 0)
(2.87644 0.187765 0)
(2.87256 0.17745 0)
(2.87145 0.171136 0)
(2.87148 0.157586 0)
(2.87253 0.14962 0)
(2.87282 0.138659 0)
(2.87416 0.137021 0)
(2.87446 0.135575 0)
(2.87363 0.129496 0)
(2.875 0.120816 0)
(2.87667 0.112754 0)
(2.87963 0.105676 0)
(2.88371 0.0934378 0)
(2.64525 -1.90701 0)
(2.6466 -1.90693 0)
(2.6472 -1.90835 0)
(2.64898 -1.9085 0)
(2.6498 -1.91027 0)
(2.65192 -1.91048 0)
(2.65287 -1.91281 0)
(2.65594 -1.91308 0)
(2.65676 -1.91504 0)
(2.65874 -1.91533 0)
(2.66022 -1.91609 0)
(2.5328 -1.82073 0)
(2.27089 -1.58969 0)
(1.93316 -1.22726 0)
(1.59097 -0.758639 0)
(1.1376 -0.377972 0)
(0.997634 -0.140207 0)
(0.926825 -0.0241562 0)
(0.926017 -0.016494 0)
(0.94976 0.00592161 0)
(0.977308 0.0288125 0)
(1.00411 0.0552235 0)
(1.01572 0.0760499 0)
(1.01457 0.0898953 0)
(1.0225 0.0943631 0)
(1.03546 0.0992308 0)
(1.04639 0.109565 0)
(1.05918 0.117011 0)
(1.07512 0.123934 0)
(1.09214 0.132312 0)
(1.10531 0.160757 0)
(1.13716 0.177586 0)
(1.17312 0.189027 0)
(1.21114 0.197471 0)
(1.25088 0.207847 0)
(1.29324 0.217754 0)
(1.33599 0.226631 0)
(1.38311 0.24672 0)
(1.45013 0.246853 0)
(1.53372 0.242603 0)
(1.61959 0.235815 0)
(1.69972 0.242709 0)
(1.77936 0.25229 0)
(1.86142 0.260509 0)
(1.94938 0.263968 0)
(2.04542 0.268946 0)
(2.13863 0.296436 0)
(2.22715 0.32205 0)
(2.30998 0.330371 0)
(2.38675 0.332649 0)
(2.45953 0.325568 0)
(2.52505 0.326141 0)
(2.58343 0.320778 0)
(2.63509 0.31466 0)
(2.67905 0.307468 0)
(2.716 0.302064 0)
(2.74639 0.299597 0)
(2.77053 0.296769 0)
(2.79018 0.29749 0)
(2.80457 0.297641 0)
(2.81741 0.3005 0)
(2.83228 0.3055 0)
(2.84339 0.323229 0)
(2.85194 0.336326 0)
(2.85917 0.349792 0)
(2.86566 0.357442 0)
(2.87011 0.363644 0)
(2.87105 0.356463 0)
(2.87062 0.338985 0)
(2.87351 0.323394 0)
(2.87504 0.310564 0)
(2.87464 0.30038 0)
(2.87564 0.294624 0)
(2.87714 0.289427 0)
(2.88169 0.287101 0)
(2.88498 0.288476 0)
(2.88707 0.287813 0)
(2.88768 0.281733 0)
(2.88624 0.272323 0)
(2.88384 0.26278 0)
(2.88046 0.249548 0)
(2.8787 0.235539 0)
(2.87362 0.22055 0)
(2.8718 0.209528 0)
(2.87292 0.205223 0)
(2.87596 0.201312 0)
(2.87697 0.194691 0)
(2.87337 0.180545 0)
(2.86987 0.172661 0)
(2.86837 0.16731 0)
(2.86872 0.153741 0)
(2.86906 0.14518 0)
(2.87221 0.13532 0)
(2.87291 0.13715 0)
(2.87289 0.135163 0)
(2.87217 0.126155 0)
(2.87369 0.117833 0)
(2.87454 0.110624 0)
(2.87821 0.104193 0)
(2.88208 0.0944067 0)
(2.65282 -1.91903 0)
(2.65498 -1.91904 0)
(2.65641 -1.92074 0)
(2.65897 -1.92118 0)
(2.66068 -1.92325 0)
(2.66381 -1.92323 0)
(2.66561 -1.92573 0)
(2.66952 -1.92516 0)
(2.67159 -1.92814 0)
(2.67605 -1.92745 0)
(2.67878 -1.93172 0)
(2.6824 -1.92976 0)
(2.68528 -1.93004 0)
(2.68881 -1.92999 0)
(2.6914 -1.93013 0)
(2.5647 -1.80381 0)
(2.29104 -1.53175 0)
(1.9613 -1.11086 0)
(1.70605 -0.696629 0)
(1.45381 -0.346952 0)
(1.26597 -0.084856 0)
(1.13195 0.0507137 0)
(1.09118 0.0727292 0)
(1.08042 0.0717362 0)
(1.09673 0.0728767 0)
(1.10026 0.0859996 0)
(1.10232 0.0953106 0)
(1.09757 0.0930664 0)
(1.1036 0.0893711 0)
(1.1184 0.0939112 0)
(1.13291 0.10237 0)
(1.1317 0.111922 0)
(1.1397 0.117032 0)
(1.15185 0.120257 0)
(1.1652 0.124356 0)
(1.1751 0.131688 0)
(1.18647 0.134154 0)
(1.20235 0.136662 0)
(1.21684 0.165446 0)
(1.25037 0.189386 0)
(1.28922 0.204242 0)
(1.32736 0.203339 0)
(1.36319 0.208337 0)
(1.40602 0.219455 0)
(1.45684 0.244851 0)
(1.5292 0.251068 0)
(1.6126 0.232444 0)
(1.68369 0.240261 0)
(1.75789 0.246855 0)
(1.84223 0.259282 0)
(1.93808 0.26797 0)
(2.0376 0.270715 0)
(2.13088 0.29839 0)
(2.21935 0.324706 0)
(2.30304 0.343167 0)
(2.38326 0.352802 0)
(2.45693 0.360223 0)
(2.52091 0.371036 0)
(2.57913 0.374145 0)
(2.62946 0.376975 0)
(2.67244 0.37554 0)
(2.70965 0.377964 0)
(2.74034 0.371082 0)
(2.76569 0.363133 0)
(2.78594 0.351429 0)
(2.80368 0.33656 0)
(2.82098 0.31633 0)
(2.83709 0.296278 0)
(2.84624 0.278906 0)
(2.85418 0.272751 0)
(2.8598 0.271925 0)
(2.86186 0.278089 0)
(2.86568 0.282424 0)
(2.8681 0.288869 0)
(2.87135 0.290867 0)
(2.87501 0.29288 0)
(2.87544 0.285357 0)
(2.87715 0.270752 0)
(2.87889 0.259142 0)
(2.87857 0.250894 0)
(2.87545 0.239201 0)
(2.87331 0.228746 0)
(2.86851 0.212781 0)
(2.86851 0.203548 0)
(2.87161 0.201575 0)
(2.87421 0.198847 0)
(2.8734 0.189924 0)
(2.86942 0.175709 0)
(2.86809 0.169872 0)
(2.86768 0.16243 0)
(2.86744 0.150868 0)
(2.86858 0.140702 0)
(2.87132 0.135612 0)
(2.8725 0.135996 0)
(2.87203 0.131677 0)
(2.87034 0.120086 0)
(2.87217 0.112985 0)
(2.87426 0.106893 0)
(2.87783 0.103994 0)
(2.88168 0.0980607 0)
(2.67783 -1.91744 0)
(2.67974 -1.91881 0)
(2.68256 -1.91909 0)
(2.68473 -1.92078 0)
(2.6878 -1.92129 0)
(2.69037 -1.92292 0)
(2.69341 -1.92417 0)
(2.69657 -1.92559 0)
(2.69991 -1.92694 0)
(2.70331 -1.92848 0)
(2.70653 -1.93072 0)
(2.71089 -1.93147 0)
(2.71437 -1.93395 0)
(2.71828 -1.9359 0)
(2.7225 -1.93888 0)
(2.72534 -1.93982 0)
(2.72827 -1.94045 0)
(2.73038 -1.94306 0)
(2.73075 -1.93884 0)
(2.66043 -1.83642 0)
(2.437 -1.56752 0)
(2.13868 -1.14371 0)
(1.89825 -0.727623 0)
(1.66258 -0.379751 0)
(1.51328 -0.109159 0)
(1.29875 0.0533874 0)
(1.21843 0.0975957 0)
(1.20507 0.0903872 0)
(1.21378 0.100085 0)
(1.2306 0.114696 0)
(1.22908 0.125699 0)
(1.20547 0.116112 0)
(1.20186 0.101005 0)
(1.21063 0.0844787 0)
(1.22454 0.0859484 0)
(1.2192 0.0955709 0)
(1.21352 0.0980065 0)
(1.22054 0.107649 0)
(1.2423 0.112802 0)
(1.25185 0.122672 0)
(1.25343 0.134689 0)
(1.25656 0.141678 0)
(1.26598 0.140126 0)
(1.2851 0.139017 0)
(1.30966 0.146395 0)
(1.32184 0.182382 0)
(1.35048 0.193022 0)
(1.37809 0.185529 0)
(1.40464 0.190112 0)
(1.44613 0.204435 0)
(1.49688 0.234232 0)
(1.56325 0.242151 0)
(1.64353 0.221273 0)
(1.7209 0.217498 0)
(1.80255 0.219185 0)
(1.88859 0.232613 0)
(1.97943 0.232022 0)
(2.07125 0.234548 0)
(2.16017 0.263018 0)
(2.24948 0.282296 0)
(2.33354 0.295546 0)
(2.41303 0.289556 0)
(2.48111 0.293103 0)
(2.54209 0.282384 0)
(2.5964 0.281278 0)
(2.64387 0.279905 0)
(2.68317 0.288825 0)
(2.71835 0.298742 0)
(2.74916 0.311645 0)
(2.77452 0.319766 0)
(2.79342 0.329967 0)
(2.80679 0.328232 0)
(2.81826 0.326866 0)
(2.82733 0.316544 0)
(2.83489 0.29837 0)
(2.84408 0.279796 0)
(2.85348 0.253188 0)
(2.86005 0.23996 0)
(2.86502 0.233976 0)
(2.86663 0.228439 0)
(2.86484 0.220099 0)
(2.86254 0.214427 0)
(2.85901 0.20055 0)
(2.86401 0.199433 0)
(2.86764 0.198189 0)
(2.86914 0.192945 0)
(2.86845 0.181375 0)
(2.86533 0.168715 0)
(2.86582 0.164481 0)
(2.86587 0.155239 0)
(2.86551 0.145216 0)
(2.86763 0.135094 0)
(2.87095 0.134432 0)
(2.87106 0.132984 0)
(2.87076 0.126082 0)
(2.86902 0.114941 0)
(2.87186 0.10915 0)
(2.8735 0.104247 0)
(2.87757 0.103961 0)
(2.88121 0.100507 0)
(2.69756 -1.93406 0)
(2.69974 -1.93556 0)
(2.70265 -1.93623 0)
(2.70486 -1.9383 0)
(2.70815 -1.9389 0)
(2.71065 -1.94107 0)
(2.7142 -1.94181 0)
(2.71699 -1.9439 0)
(2.72049 -1.94496 0)
(2.72335 -1.94703 0)
(2.72665 -1.94873 0)
(2.73033 -1.94996 0)
(2.73339 -1.95242 0)
(2.73764 -1.9531 0)
(2.74023 -1.95651 0)
(2.74515 -1.95647 0)
(2.74761 -1.96052 0)
(2.75298 -1.96035 0)
(2.75568 -1.96645 0)
(2.75957 -1.96492 0)
(2.76164 -1.96679 0)
(2.76631 -1.96581 0)
(2.76692 -1.97023 0)
(2.71532 -1.87471 0)
(2.55455 -1.61805 0)
(2.28143 -1.22398 0)
(2.01042 -0.79463 0)
(1.80277 -0.43421 0)
(1.66443 -0.16725 0)
(1.54998 0.0204494 0)
(1.39169 0.116069 0)
(1.32144 0.107191 0)
(1.32384 0.110286 0)
(1.34924 0.118409 0)
(1.37159 0.141483 0)
(1.35904 0.158868 0)
(1.31998 0.144875 0)
(1.31506 0.12476 0)
(1.33256 0.103886 0)
(1.34262 0.110646 0)
(1.32475 0.120919 0)
(1.30068 0.113393 0)
(1.29509 0.0987543 0)
(1.31501 0.0987948 0)
(1.33614 0.114373 0)
(1.34745 0.132848 0)
(1.33032 0.147514 0)
(1.32528 0.149067 0)
(1.3302 0.144985 0)
(1.34726 0.14746 0)
(1.37032 0.152313 0)
(1.38081 0.183032 0)
(1.41044 0.192262 0)
(1.44783 0.191695 0)
(1.48795 0.199284 0)
(1.53181 0.208675 0)
(1.57781 0.231347 0)
(1.64071 0.224633 0)
(1.71769 0.211074 0)
(1.79749 0.217781 0)
(1.87961 0.232757 0)
(1.96687 0.246951 0)
(2.05776 0.237862 0)
(2.14349 0.270238 0)
(2.22938 0.295506 0)
(2.30892 0.311335 0)
(2.38212 0.296125 0)
(2.44547 0.29651 0)
(2.50633 0.284839 0)
(2.56322 0.266067 0)
(2.61569 0.244011 0)
(2.66242 0.235757 0)
(2.70162 0.233448 0)
(2.73367 0.231707 0)
(2.75848 0.233671 0)
(2.77785 0.234577 0)
(2.7947 0.243363 0)
(2.81129 0.253192 0)
(2.82085 0.253351 0)
(2.82603 0.241683 0)
(2.83026 0.230132 0)
(2.83575 0.210514 0)
(2.84302 0.213792 0)
(2.84784 0.20895 0)
(2.85066 0.195335 0)
(2.85419 0.173145 0)
(2.85688 0.160644 0)
(2.85923 0.162349 0)
(2.85929 0.160779 0)
(2.85763 0.148976 0)
(2.85833 0.132918 0)
(2.86312 0.136622 0)
(2.86655 0.133935 0)
(2.86796 0.124541 0)
(2.86701 0.114799 0)
(2.86613 0.107148 0)
(2.8696 0.102554 0)
(2.87166 0.100567 0)
(2.87477 0.100265 0)
(2.87706 0.0971803 0)
(2.7265 -1.94299 0)
(2.72881 -1.94408 0)
(2.73111 -1.94541 0)
(2.73339 -1.94691 0)
(2.73588 -1.9483 0)
(2.73838 -1.94994 0)
(2.74135 -1.95102 0)
(2.74384 -1.95289 0)
(2.74701 -1.95372 0)
(2.74909 -1.95623 0)
(2.75258 -1.95669 0)
(2.75472 -1.95944 0)
(2.75851 -1.95995 0)
(2.76072 -1.96301 0)
(2.76441 -1.96401 0)
(2.76693 -1.96692 0)
(2.77073 -1.96792 0)
(2.77362 -1.97046 0)
(2.77706 -1.97225 0)
(2.77983 -1.97536 0)
(2.78286 -1.97813 0)
(2.78629 -1.98029 0)
(2.78809 -1.98524 0)
(2.79136 -1.98481 0)
(2.79176 -1.98816 0)
(2.79585 -1.98717 0)
(2.79542 -1.99451 0)
(2.75846 -1.90537 0)
(2.62621 -1.68554 0)
(2.44667 -1.34541 0)
(2.18321 -0.928746 0)
(1.97752 -0.55118 0)
(1.82273 -0.251893 0)
(1.72946 -0.0408028 0)
(1.62653 0.0977928 0)
(1.51941 0.140886 0)
(1.44502 0.130412 0)
(1.45414 0.13813 0)
(1.4873 0.151827 0)
(1.52694 0.170528 0)
(1.49544 0.175413 0)
(1.44033 0.158791 0)
(1.42374 0.126289 0)
(1.44716 0.122439 0)
(1.4666 0.139069 0)
(1.4412 0.159956 0)
(1.38845 0.149903 0)
(1.36821 0.129718 0)
(1.37287 0.11394 0)
(1.38784 0.11946 0)
(1.39739 0.128208 0)
(1.40148 0.143812 0)
(1.39839 0.14904 0)
(1.41017 0.147181 0)
(1.42725 0.147129 0)
(1.44215 0.152061 0)
(1.45961 0.152461 0)
(1.47419 0.17931 0)
(1.50637 0.195364 0)
(1.54514 0.201519 0)
(1.58285 0.205703 0)
(1.62314 0.221375 0)
(1.6794 0.228169 0)
(1.7554 0.198819 0)
(1.82729 0.199881 0)
(1.89681 0.202958 0)
(1.97038 0.218687 0)
(2.04982 0.19906 0)
(2.12532 0.216444 0)
(2.20237 0.238319 0)
(2.28123 0.264562 0)
(2.363 0.268197 0)
(2.43425 0.286845 0)
(2.49891 0.292561 0)
(2.55638 0.284599 0)
(2.60396 0.274482 0)
(2.64038 0.259687 0)
(2.67127 0.233796 0)
(2.69894 0.196247 0)
(2.72463 0.184493 0)
(2.75215 0.168799 0)
(2.76798 0.197424 0)
(2.78386 0.197774 0)
(2.79469 0.184311 0)
(2.80353 0.165286 0)
(2.81541 0.160942 0)
(2.82277 0.18154 0)
(2.82872 0.18165 0)
(2.83003 0.163343 0)
(2.83344 0.128213 0)
(2.83885 0.137842 0)
(2.844 0.139345 0)
(2.84794 0.13039 0)
(2.85083 0.116492 0)
(2.85407 0.111539 0)
(2.85678 0.114716 0)
(2.85905 0.113038 0)
(2.86031 0.0988523 0)
(2.86344 0.0872155 0)
(2.86897 0.0797048 0)
(2.74549 -1.96711 0)
(2.74774 -1.96751 0)
(2.7493 -1.96909 0)
(2.75185 -1.96946 0)
(2.7535 -1.97146 0)
(2.75632 -1.97195 0)
(2.7582 -1.97402 0)
(2.76108 -1.97468 0)
(2.76312 -1.9766 0)
(2.76594 -1.97732 0)
(2.76808 -1.97897 0)
(2.77082 -1.97985 0)
(2.77324 -1.98128 0)
(2.77554 -1.98329 0)
(2.77875 -1.98413 0)
(2.78033 -1.98736 0)
(2.78399 -1.9874 0)
(2.78549 -1.99045 0)
(2.78913 -1.99064 0)
(2.79001 -1.99499 0)
(2.79465 -1.99387 0)
(2.79488 -1.99884 0)
(2.79985 -1.99664 0)
(2.79982 -2.00156 0)
(2.80523 -1.99896 0)
(2.80444 -2.00544 0)
(2.81124 -2.00132 0)
(2.8095 -2.00723 0)
(2.81181 -2.00842 0)
(2.81614 -2.0059 0)
(2.81665 -2.01101 0)
(2.8023 -1.96111 0)
(2.71128 -1.77737 0)
(2.56336 -1.46695 0)
(2.388 -1.08994 0)
(2.19249 -0.7201 0)
(2.03533 -0.391477 0)
(1.88867 -0.127565 0)
(1.80304 0.0429149 0)
(1.71766 0.146941 0)
(1.64976 0.153466 0)
(1.56724 0.162713 0)
(1.55785 0.169094 0)
(1.60722 0.181689 0)
(1.64828 0.18611 0)
(1.62156 0.170385 0)
(1.54588 0.154409 0)
(1.51863 0.125342 0)
(1.52355 0.123476 0)
(1.54305 0.14723 0)
(1.51404 0.169137 0)
(1.48042 0.158662 0)
(1.45856 0.138873 0)
(1.46578 0.12748 0)
(1.47405 0.125601 0)
(1.47485 0.121062 0)
(1.47968 0.124743 0)
(1.49517 0.138978 0)
(1.49821 0.150396 0)
(1.5073 0.156355 0)
(1.51453 0.161851 0)
(1.53023 0.162195 0)
(1.54571 0.183619 0)
(1.57762 0.198801 0)
(1.60988 0.191169 0)
(1.63846 0.189124 0)
(1.67472 0.195736 0)
(1.71979 0.22015 0)
(1.77525 0.193488 0)
(1.83981 0.179481 0)
(1.91096 0.179378 0)
(1.98607 0.197692 0)
(2.06549 0.182132 0)
(2.13932 0.196367 0)
(2.21368 0.214913 0)
(2.28424 0.214871 0)
(2.34503 0.194195 0)
(2.39905 0.18291 0)
(2.45244 0.191499 0)
(2.50931 0.191512 0)
(2.56119 0.214985 0)
(2.59846 0.210173 0)
(2.62848 0.19774 0)
(2.65512 0.176784 0)
(2.68356 0.169346 0)
(2.70829 0.187381 0)
(2.72588 0.174849 0)
(2.7388 0.147094 0)
(2.75694 0.122939 0)
(2.76668 0.145284 0)
(2.77771 0.149264 0)
(2.78496 0.134414 0)
(2.79428 0.107934 0)
(2.80728 0.115631 0)
(2.81427 0.132933 0)
(2.81983 0.136238 0)
(2.82235 0.121531 0)
(2.82434 0.09394 0)
(2.82982 0.0819511 0)
(2.84002 0.077314 0)
(2.77479 -1.97149 0)
(2.77644 -1.97251 0)
(2.7784 -1.97321 0)
(2.78038 -1.97392 0)
(2.78225 -1.97481 0)
(2.78433 -1.97538 0)
(2.78612 -1.97639 0)
(2.78815 -1.97716 0)
(2.78985 -1.97859 0)
(2.79231 -1.97888 0)
(2.79356 -1.98095 0)
(2.79657 -1.98019 0)
(2.7974 -1.98258 0)
(2.80034 -1.98218 0)
(2.80135 -1.98482 0)
(2.8044 -1.98466 0)
(2.80497 -1.98814 0)
(2.80865 -1.98691 0)
(2.80906 -1.99015 0)
(2.81174 -1.99039 0)
(2.81286 -1.993 0)
(2.81551 -1.99333 0)
(2.81623 -1.99636 0)
(2.8189 -1.99646 0)
(2.82025 -1.99853 0)
(2.82155 -2.00094 0)
(2.82514 -2.00012 0)
(2.82561 -2.00367 0)
(2.82976 -2.0019 0)
(2.82954 -2.00633 0)
(2.83401 -2.00355 0)
(2.83381 -2.01236 0)
(2.83597 -2.0106 0)
(2.83689 -2.01163 0)
(2.84021 -2.00929 0)
(2.8406 -2.01288 0)
(2.80474 -1.90263 0)
(2.67994 -1.62257 0)
(2.5223 -1.25453 0)
(2.33156 -0.8489 0)
(2.19941 -0.531074 0)
(2.03741 -0.229404 0)
(1.92291 4.45035e-05 0)
(1.81472 0.148434 0)
(1.77401 0.157304 0)
(1.72793 0.173883 0)
(1.68175 0.181239 0)
(1.6505 0.19927 0)
(1.68682 0.20926 0)
(1.7163 0.198751 0)
(1.68809 0.170819 0)
(1.64459 0.138273 0)
(1.61778 0.119103 0)
(1.6245 0.125308 0)
(1.62086 0.14041 0)
(1.59734 0.152173 0)
(1.57733 0.159301 0)
(1.57046 0.153573 0)
(1.55707 0.15117 0)
(1.55052 0.146335 0)
(1.54292 0.135294 0)
(1.5526 0.134885 0)
(1.56624 0.151314 0)
(1.57086 0.161433 0)
(1.57439 0.160461 0)
(1.58062 0.154098 0)
(1.59537 0.153563 0)
(1.61396 0.15138 0)
(1.62499 0.175323 0)
(1.65722 0.179581 0)
(1.69558 0.185414 0)
(1.73447 0.186095 0)
(1.77648 0.201983 0)
(1.82608 0.174749 0)
(1.87998 0.168219 0)
(1.93094 0.164471 0)
(1.98266 0.161089 0)
(2.04308 0.141321 0)
(2.10924 0.160167 0)
(2.17997 0.193235 0)
(2.24542 0.188483 0)
(2.30089 0.181843 0)
(2.35494 0.165195 0)
(2.40233 0.174098 0)
(2.44989 0.167034 0)
(2.4922 0.141838 0)
(2.52827 0.129258 0)
(2.558 0.122455 0)
(2.59074 0.148079 0)
(2.61538 0.139879 0)
(2.63586 0.120626 0)
(2.65457 0.103551 0)
(2.67608 0.114543 0)
(2.69856 0.131054 0)
(2.71559 0.125236 0)
(2.72692 0.104448 0)
(2.73616 0.0903861 0)
(2.74478 0.0922706 0)
(2.75484 0.103071 0)
(2.77038 0.103344 0)
(2.79197 -1.98775 0)
(2.79296 -1.98881 0)
(2.79443 -1.98925 0)
(2.7955 -1.99027 0)
(2.79704 -1.99068 0)
(2.79801 -1.99205 0)
(2.79996 -1.99202 0)
(2.80076 -1.99357 0)
(2.80257 -1.99366 0)
(2.80343 -1.99509 0)
(2.80489 -1.99588 0)
(2.80618 -1.99697 0)
(2.80793 -1.99748 0)
(2.80853 -1.99964 0)
(2.81102 -1.99917 0)
(2.81175 -2.00111 0)
(2.81326 -2.00235 0)
(2.81522 -2.00299 0)
(2.81637 -2.00481 0)
(2.81828 -2.00549 0)
(2.81962 -2.00691 0)
(2.82148 -2.00746 0)
(2.82236 -2.00953 0)
(2.82518 -2.00873 0)
(2.82552 -2.01155 0)
(2.82821 -2.01106 0)
(2.82899 -2.01345 0)
(2.83215 -2.01208 0)
(2.83258 -2.01502 0)
(2.83655 -2.01217 0)
(2.83706 -2.01472 0)
(2.84012 -2.0134 0)
(2.84209 -2.01474 0)
(2.8455 -2.01361 0)
(2.84839 -2.01339 0)
(2.85141 -2.01373 0)
(2.85397 -2.01258 0)
(2.85596 -2.01263 0)
(2.85925 -2.01045 0)
(2.85986 -2.01247 0)
(2.8462 -1.95775 0)
(2.75834 -1.74053 0)
(2.61188 -1.36702 0)
(2.4097 -0.918565 0)
(2.27466 -0.592653 0)
(2.12032 -0.286307 0)
(2.04391 -0.0659209 0)
(1.88682 0.129211 0)
(1.83646 0.152118 0)
(1.80227 0.19218 0)
(1.78393 0.193537 0)
(1.75556 0.2016 0)
(1.75868 0.210229 0)
(1.77752 0.194786 0)
(1.78337 0.181186 0)
(1.75967 0.154516 0)
(1.73675 0.130267 0)
(1.72632 0.126336 0)
(1.70505 0.135203 0)
(1.68053 0.148994 0)
(1.65635 0.157035 0)
(1.64587 0.171955 0)
(1.63409 0.166068 0)
(1.61658 0.154939 0)
(1.60634 0.13721 0)
(1.6064 0.12291 0)
(1.61471 0.121488 0)
(1.62046 0.129167 0)
(1.62753 0.139529 0)
(1.63433 0.145372 0)
(1.65116 0.150331 0)
(1.66682 0.153268 0)
(1.6851 0.145042 0)
(1.69624 0.161579 0)
(1.71627 0.161043 0)
(1.72793 0.147569 0)
(1.74614 0.138008 0)
(1.78042 0.153798 0)
(1.834 0.139936 0)
(1.88878 0.13457 0)
(1.93705 0.134354 0)
(1.98497 0.128341 0)
(2.03793 0.139961 0)
(2.09311 0.122716 0)
(2.14115 0.136102 0)
(2.18756 0.147762 0)
(2.23354 0.14847 0)
(2.28025 0.152874 0)
(2.32581 0.144886 0)
(2.36743 0.135317 0)
(2.39963 0.132022 0)
(2.43229 0.128827 0)
(2.46713 0.112142 0)
(2.50351 0.0994933 0)
(2.53511 0.0977196 0)
(2.55566 0.0955732 0)
(2.57349 0.0881053 0)
(2.59124 0.0797524 0)
(2.60828 0.0813183 0)
(2.63455 0.0765452 0)
(2.81504 -1.98742 0)
(2.81586 -1.98822 0)
(2.81665 -1.98903 0)
(2.81764 -1.98952 0)
(2.81833 -1.99051 0)
(2.81918 -1.99147 0)
(2.82046 -1.99187 0)
(2.82086 -1.99342 0)
(2.82205 -1.99383 0)
(2.82275 -1.99492 0)
(2.82351 -1.99612 0)
(2.82459 -1.99699 0)
(2.8255 -1.99805 0)
(2.82606 -1.99957 0)
(2.82762 -1.99966 0)
(2.82816 -2.0013 0)
(2.82997 -2.00137 0)
(2.83077 -2.003 0)
(2.83265 -2.00321 0)
(2.8332 -2.00524 0)
(2.83543 -2.00469 0)
(2.83551 -2.00724 0)
(2.8378 -2.00622 0)
(2.83889 -2.00724 0)
(2.84125 -2.0064 0)
(2.84201 -2.00838 0)
(2.84441 -2.00761 0)
(2.84549 -2.00894 0)
(2.8474 -2.00861 0)
(2.849 -2.00902 0)
(2.85123 -2.00828 0)
(2.85294 -2.0087 0)
(2.85458 -2.00958 0)
(2.85692 -2.00911 0)
(2.85868 -2.00968 0)
(2.86151 -2.00756 0)
(2.8628 -2.00823 0)
(2.86472 -2.00774 0)
(2.86603 -2.0081 0)
(2.86765 -2.00761 0)
(2.86859 -2.00753 0)
(2.8679 -2.0095 0)
(2.87005 -2.00808 0)
(2.86716 -2.01612 0)
(2.85503 -1.97323 0)
(2.76938 -1.78226 0)
(2.6458 -1.44098 0)
(2.46838 -0.968894 0)
(2.33918 -0.641792 0)
(2.14668 -0.284463 0)
(2.08262 -0.0624004 0)
(1.96363 0.104317 0)
(1.90236 0.163058 0)
(1.86649 0.177274 0)
(1.85875 0.191354 0)
(1.84579 0.208596 0)
(1.85616 0.209554 0)
(1.86284 0.202151 0)
(1.85376 0.185016 0)
(1.82944 0.166305 0)
(1.80792 0.155436 0)
(1.79323 0.150247 0)
(1.77658 0.15028 0)
(1.74227 0.142887 0)
(1.71844 0.147392 0)
(1.70728 0.152605 0)
(1.69674 0.159959 0)
(1.68116 0.150361 0)
(1.67309 0.136945 0)
(1.67164 0.131448 0)
(1.67794 0.132144 0)
(1.67883 0.124975 0)
(1.68616 0.123298 0)
(1.69422 0.130807 0)
(1.69224 0.131195 0)
(1.68317 0.118128 0)
(1.68479 0.107951 0)
(1.70618 0.109934 0)
(1.72776 0.135581 0)
(1.75168 0.140814 0)
(1.76948 0.132231 0)
(1.79438 0.134488 0)
(1.82723 0.136935 0)
(1.86522 0.14694 0)
(1.89703 0.113901 0)
(1.92913 0.0971104 0)
(1.96518 0.0955823 0)
(2.01159 0.0958776 0)
(2.0569 0.0960919 0)
(2.09667 0.0993044 0)
(2.13042 0.0800012 0)
(2.16831 0.0887472 0)
(2.20736 0.118203 0)
(2.25223 0.130291 0)
(2.29151 0.120223 0)
(2.32037 0.110014 0)
(2.34685 0.110721 0)
(2.37477 0.109247 0)
(2.39891 0.101693 0)
(2.43436 0.0867636 0)
(2.8239 -2.00331 0)
(2.82456 -2.00391 0)
(2.82498 -2.00489 0)
(2.82621 -2.00473 0)
(2.82604 -2.00641 0)
(2.82713 -2.00646 0)
(2.82754 -2.00739 0)
(2.82799 -2.00821 0)
(2.82864 -2.00872 0)
(2.82947 -2.0091 0)
(2.82947 -2.01086 0)
(2.83114 -2.01039 0)
(2.8308 -2.01259 0)
(2.83235 -2.012 0)
(2.83263 -2.0132 0)
(2.83392 -2.01325 0)
(2.83458 -2.01463 0)
(2.83644 -2.0143 0)
(2.83734 -2.01544 0)
(2.83931 -2.01477 0)
(2.83983 -2.01631 0)
(2.84135 -2.01659 0)
(2.8429 -2.01649 0)
(2.84522 -2.01443 0)
(2.84693 -2.0142 0)
(2.84868 -2.01434 0)
(2.85034 -2.0146 0)
(2.8518 -2.01517 0)
(2.85386 -2.01407 0)
(2.85492 -2.01477 0)
(2.85706 -2.01311 0)
(2.85832 -2.01328 0)
(2.86021 -2.01242 0)
(2.86027 -2.01464 0)
(2.86206 -2.01313 0)
(2.86314 -2.01296 0)
(2.86522 -2.01098 0)
(2.86633 -2.01012 0)
(2.8658 -2.01186 0)
(2.86806 -2.0093 0)
(2.86677 -2.01186 0)
(2.86999 -2.00864 0)
(2.86564 -2.01603 0)
(2.86991 -2.00992 0)
(2.8668 -2.01808 0)
(2.86738 -2.0162 0)
(2.86895 -2.01171 0)
(2.86863 -2.01389 0)
(2.86507 -1.99038 0)
(2.777 -1.78803 0)
(2.64057 -1.40932 0)
(2.47472 -0.93597 0)
(2.33344 -0.571285 0)
(2.21804 -0.28239 0)
(2.08503 -0.0410123 0)
(2.00046 0.115777 0)
(1.97455 0.153057 0)
(1.9364 0.202673 0)
(1.92133 0.204867 0)
(1.91551 0.208946 0)
(1.9162 0.210464 0)
(1.91466 0.192163 0)
(1.90867 0.182129 0)
(1.88386 0.161706 0)
(1.86249 0.144901 0)
(1.84938 0.14579 0)
(1.83275 0.141948 0)
(1.80941 0.132 0)
(1.79677 0.136479 0)
(1.7849 0.14391 0)
(1.77256 0.148612 0)
(1.75301 0.147714 0)
(1.73783 0.140403 0)
(1.72878 0.126482 0)
(1.71332 0.105334 0)
(1.70123 0.0809542 0)
(1.70371 0.079839 0)
(1.71689 0.0959952 0)
(1.72852 0.113603 0)
(1.73172 0.115686 0)
(1.73295 0.107016 0)
(1.74856 0.105562 0)
(1.76879 0.10857 0)
(1.78961 0.104063 0)
(1.7995 0.109251 0)
(1.81255 0.101041 0)
(1.83298 0.108222 0)
(1.86276 0.117614 0)
(1.89208 0.121714 0)
(1.91723 0.113371 0)
(1.94424 0.111235 0)
(1.97705 0.0882648 0)
(2.01297 0.0749042 0)
(2.04675 0.0778228 0)
(2.07716 0.0779418 0)
(2.10687 0.0678448 0)
(2.13862 0.0633012 0)
(2.16886 0.0700435 0)
(2.19347 0.0733685 0)
(2.23014 0.0638164 0)
(2.83868 -2.00476 0)