/*--------------------------------*- C++ -*----------------------------------*\
  =========                 |
  \\      /  F ield         | OpenFOAM: The Open Source CFD Toolbox
   \\    /   O peration     | Website:  https://openfoam.org
    \\  /    A nd           | Version:  7
     \\/     M anipulation  |
\*---------------------------------------------------------------------------*/
FoamFile
{
    version     2.0;
    format      ascii;
    class       volScalarField;
    location    "3.5";
    object      p;
}
// * * * * * * * * * * * * * * * * * * * * * * * * * * * * * * * * * * * * * //

dimensions      [1 -1 -2 0 0 0 0];

internalField   nonuniform List<scalar> 
90000
(
0.0816903
0.123206
0.14957
0.186152
0.217836
0.22884
0.253972
0.291117
0.319292
0.350529
0.395145
0.439187
0.484304
0.531992
0.579682
0.627013
0.671087
0.709985
0.740105
0.767981
0.779569
0.790429
0.791276
0.78909
0.781894
0.773833
0.764185
0.758634
0.751422
0.750879
0.751937
0.75362
0.755554
0.751994
0.743642
0.731449
0.71831
0.707694
0.704458
0.710318
0.721397
0.739829
0.762755
0.779879
0.792121
0.789411
0.779809
0.763427
0.748799
0.740515
0.740252
0.745317
0.756993
0.766346
0.773422
0.76915
0.759182
0.747536
0.74074
0.739478
0.745019
0.753822
0.764103
0.761197
0.7533
0.744487
0.741825
0.744734
0.751622
0.755837
0.750572
0.744658
0.742595
0.744835
0.749614
0.745962
0.741034
0.738748
0.738023
0.739728
0.741303
0.740594
0.745423
0.752242
0.764637
0.782808
0.781591
0.790279
0.801001
0.805579
0.806124
0.811227
0.819765
0.852528
0.908269
0.957729
1.02742
1.06527
1.05678
1.04543
0.0438371
0.043822
0.0438038
0.0437834
0.0437643
0.0437455
0.0437314
0.0437159
0.043711
0.0436728
0.0451485
0.0491241
0.0572754
0.0696268
0.0891319
0.11427
0.149929
0.191683
0.244294
0.303898
0.371439
0.438258
0.504405
0.566468
0.622209
0.673515
0.710701
0.742715
0.760313
0.777915
0.782128
0.785643
0.779336
0.773882
0.766845
0.761395
0.758586
0.757052
0.760216
0.761237
0.760341
0.764692
0.766114
0.763052
0.755162
0.7491
0.746124
0.747051
0.755251
0.761407
0.768259
0.768896
0.767135
0.761119
0.752768
0.74778
0.745167
0.746221
0.750955
0.754886
0.757304
0.759029
0.7565
0.752749
0.749429
0.747127
0.747951
0.750985
0.753284
0.751435
0.747476
0.745719
0.746864
0.74986
0.748763
0.744577
0.74134
0.740008
0.740826
0.743429
0.745524
0.746825
0.75443
0.759917
0.767758
0.775127
0.782202
0.79609
0.806427
0.816085
0.8162
0.819096
0.826062
0.851096
0.906722
0.960641
1.02961
1.05861
1.04892
1.04484
0.0438582
0.0438575
0.0438568
0.0438575
0.043859
0.0438615
0.0438646
0.0438672
0.0438702
0.0438717
0.0438743
0.0438405
0.0438031
0.0437684
0.0437439
0.043724
0.0437131
0.0437004
0.0437024
0.0436743
0.0452864
0.0512219
0.0661832
0.0894387
0.125216
0.168962
0.225658
0.287411
0.359699
0.431193
0.502159
0.570499
0.632195
0.693008
0.742181
0.786861
0.816236
0.832201
0.83537
0.828176
0.812575
0.790682
0.762466
0.734148
0.705532
0.69866
0.708241
0.729161
0.75533
0.779248
0.791524
0.786816
0.772695
0.753904
0.736947
0.730287
0.730413
0.739448
0.752594
0.762302
0.763926
0.757446
0.749657
0.745334
0.747687
0.752014
0.753583
0.753308
0.747808
0.746311
0.746934
0.747644
0.748941
0.749166
0.748253
0.744176
0.740418
0.740657
0.743469
0.746467
0.748421
0.74976
0.757299
0.76346
0.774531
0.78542
0.789796
0.798293
0.807189
0.816976
0.816651
0.817533
0.823657
0.847304
0.90247
0.963059
1.0295
1.05306
1.04365
1.04456
0.0438697
0.0438705
0.0438698
0.0438695
0.0438667
0.0438645
0.0438596
0.0438557
0.0438495
0.0438459
0.0438384
0.0438328
0.0438272
0.0438232
0.0438194
0.0438162
0.0438152
0.0438138
0.043815
0.0438183
0.0438067
0.0437929
0.0437846
0.0437798
0.0437797
0.043778
0.0437878
0.0437808
0.0451137
0.0516813
0.0699032
0.0989743
0.146833
0.207963
0.28844
0.379834
0.476008
0.564951
0.636956
0.699974
0.730815
0.755967
0.750815
0.743495
0.733201
0.739919
0.748209
0.749656
0.749612
0.753701
0.758988
0.756609
0.750624
0.751218
0.751025
0.753863
0.755062
0.752727
0.750531
0.751521
0.752924
0.753886
0.753828
0.749871
0.748775
0.749638
0.751654
0.754423
0.750969
0.744126
0.744345
0.749046
0.751799
0.749394
0.743781
0.740707
0.742458
0.746282
0.748753
0.750052
0.747701
0.750287
0.760599
0.767745
0.780239
0.788886
0.792877
0.801151
0.811026
0.820461
0.819698
0.819213
0.824876
0.847247
0.898843
0.964821
1.02632
1.04868
1.04167
1.04461
0.0438537
0.0438483
0.0438432
0.0438379
0.0438322
0.0438257
0.043819
0.0438118
0.0438059
0.0438009
0.0437966
0.0437936
0.0437896
0.0437867
0.0437838
0.0437829
0.0437825
0.0437845
0.0437861
0.043789
0.0437958
0.0438029
0.0438124
0.0438255
0.0438366
0.0438433
0.0438519
0.0438606
0.043849
0.0438373
0.0438269
0.0438181
0.0438059
0.043796
0.0437758
0.0458975
0.0604899
0.0923157
0.149833
0.230324
0.337914
0.457404
0.567411
0.66863
0.732141
0.776297
0.775245
0.76913
0.757578
0.747192
0.734621
0.71978
0.719278
0.730073
0.744741
0.756979
0.768648
0.764831
0.75659
0.745744
0.738643
0.740576
0.74864
0.758966
0.761419
0.754528
0.744993
0.742813
0.745469
0.749405
0.749858
0.750369
0.750676
0.747957
0.744021
0.741131
0.74198
0.746201
0.748388
0.749686
0.750442
0.756264
0.766634
0.772977
0.78292
0.788118
0.791677
0.800534
0.813078
0.824782
0.825504
0.82288
0.827082
0.848283
0.895373
0.963139
1.02058
1.04261
1.03948
1.0458
0.0437876
0.0437848
0.0437821
0.04378
0.0437775
0.0437745
0.043772
0.0437694
0.0437684
0.0437673
0.0437671
0.0437674
0.0437692
0.0437719
0.0437751
0.0437773
0.0437816
0.0437878
0.0437933
0.0438003
0.0438101
0.0438193
0.0438294
0.0438425
0.0438516
0.0438543
0.0438559
0.0438543
0.0438501
0.0438449
0.0438382
0.0438284
0.0438161
0.0438033
0.0437921
0.0437761
0.0437667
0.0437678
0.0437769
0.0437774
0.0442139
0.0561212
0.0987608
0.175928
0.291752
0.418708
0.51854
0.60647
0.650416
0.691528
0.699791
0.712994
0.722815
0.744643
0.761292
0.770533
0.768055
0.763961
0.758019
0.749345
0.742759
0.741145
0.744306
0.750504
0.759028
0.759355
0.751213
0.741799
0.739384
0.746358
0.755582
0.754061
0.748945
0.742777
0.741691
0.744268
0.749088
0.749676
0.7478
0.747757
0.749793
0.75941
0.768224
0.774011
0.783828
0.791304
0.79632
0.803251
0.814164
0.823706
0.826221
0.823614
0.828705
0.85124
0.895872
0.960034
1.01512
1.03164
1.03806
1.04793
0.0437639
0.0437639
0.0437637
0.0437645
0.0437649
0.0437663
0.0437682
0.0437705
0.0437736
0.0437763
0.0437788
0.0437828
0.0437873
0.0437926
0.0437974
0.0438007
0.0438053
0.0438105
0.0438146
0.0438205
0.0438287
0.0438356
0.0438407
0.043847
0.0438507
0.0438495
0.0438455
0.0438388
0.0438308
0.0438218
0.0438106
0.0437984
0.0437865
0.0437758
0.0437673
0.0437643
0.0437696
0.0437838
0.043797
0.0438078
0.0438055
0.0437989
0.0437863
0.0437708
0.0437425
0.0514564
0.0867583
0.151351
0.253549
0.375041
0.497463
0.611689
0.684522
0.725888
0.740486
0.752653
0.75372
0.755765
0.751219
0.74584
0.74527
0.750352
0.75379
0.754338
0.752482
0.750528
0.747698
0.744943
0.745386
0.749031
0.753078
0.752333
0.745955
0.73988
0.739302
0.743899
0.748869
0.750048
0.750138
0.749936
0.753188
0.765584
0.772426
0.777818
0.785169
0.790331
0.797205
0.804831
0.817099
0.826991
0.830854
0.826682
0.830925
0.854686
0.897503
0.956617
1.00856
1.01618
1.03765
1.05094
0.0437716
0.0437732
0.043775
0.0437776
0.0437806
0.0437845
0.0437886
0.0437927
0.0437975
0.0438016
0.043805
0.0438086
0.043812
0.0438152
0.0438166
0.0438173
0.0438192
0.0438204
0.043821
0.0438239
0.0438298
0.0438338
0.0438349
0.0438352
0.0438345
0.0438322
0.0438267
0.0438194
0.0438122
0.0438037
0.0437918
0.0437807
0.0437712
0.0437639
0.0437604
0.0437657
0.0437803
0.0437977
0.0438114
0.0438187
0.0438163
0.0438062
0.0437924
0.0437753
0.0437454
0.0437164
0.0437115
0.0437157
0.0437214
0.0477041
0.0803213
0.149403
0.266894
0.399078
0.510736
0.617045
0.674208
0.72692
0.734923
0.745438
0.75603
0.766886
0.761681
0.753876
0.746648
0.740034
0.741378
0.746045
0.755829
0.757895
0.754503
0.747713
0.741466
0.739396
0.743746
0.75149
0.752578
0.74948
0.748929
0.749358
0.754999
0.766426
0.772551
0.781144
0.787429
0.792478
0.798468
0.806701
0.819226
0.827623
0.832505
0.831568
0.833769
0.858671
0.899397
0.95458
0.999352
1.00497
1.04091
1.05382
0.0437959
0.0437989
0.0438021
0.0438056
0.0438096
0.0438141
0.0438175
0.0438206
0.0438244
0.0438268
0.0438271
0.0438263
0.043825
0.0438229
0.0438202
0.0438185
0.0438177
0.0438162
0.0438147
0.0438159
0.0438205
0.043823
0.0438212
0.0438182
0.043816
0.0438135
0.0438093
0.0438044
0.0438
0.0437922
0.0437782
0.0437674
0.0437604
0.0437548
0.0437566
0.0437698
0.0437904
0.0438078
0.0438187
0.0438199
0.0438142
0.043796
0.0437808
0.0437661
0.0437372
0.043714
0.0437127
0.0437191
0.0437311
0.0437529
0.0437977
0.0438839
0.0439166
0.0514298
0.0940131
0.173312
0.306583
0.462027
0.589037
0.698125
0.738113
0.753952
0.75412
0.753328
0.747133
0.733564
0.739996
0.754578
0.76343
0.758112
0.750839
0.739173
0.737478
0.742441
0.752379
0.755031
0.751834
0.748352
0.748098
0.754041
0.763738
0.772836
0.77552
0.7804
0.786798
0.793053
0.799008
0.807021
0.820239
0.82799
0.834331
0.835624
0.836537
0.862837
0.89873
0.953838
0.98273
0.999276
1.04119
1.05218
0.0438326
0.0438341
0.0438364
0.0438389
0.0438413
0.0438424
0.0438413
0.0438401
0.0438395
0.0438383
0.0438333
0.0438264
0.0438202
0.0438151
0.0438109
0.0438076
0.0438057
0.0438043
0.043803
0.0438038
0.0438076
0.0438093
0.0438076
0.043805
0.0438026
0.0438003
0.0437976
0.0437948
0.0437901
0.043782
0.0437674
0.0437558
0.0437502
0.0437486
0.0437544
0.0437756
0.043798
0.0438117
0.0438154
0.0438115
0.0437948
0.0437714
0.0437648
0.0437575
0.0437377
0.0437261
0.0437335
0.0437584
0.0437919
0.0438372
0.0439155
0.0439747
0.0439862
0.0439835
0.0439772
0.0439576
0.0438771
0.0627129
0.139935
0.270732
0.427343
0.575892
0.659075
0.72006
0.721884
0.733056
0.750179
0.769337
0.765102
0.755609
0.739472
0.733878
0.739943
0.753328
0.759973
0.755898
0.749163
0.747635
0.752311
0.761399
0.770898
0.775068
0.77684
0.782387
0.78981
0.795713
0.801156
0.809485
0.820056
0.828116
0.835559
0.838067
0.839991
0.865339
0.900962
0.950884
0.970562
0.996277
1.04116
1.04869
0.0438612
0.0438609
0.0438604
0.0438583
0.0438557
0.0438503
0.0438429
0.0438369
0.0438324
0.043828
0.0438171
0.0438034
0.0437964
0.0437915
0.0437899
0.0437878
0.0437856
0.0437843
0.0437845
0.0437871
0.0437913
0.0437941
0.0437944
0.0437938
0.0437929
0.0437914
0.0437896
0.0437875
0.0437842
0.0437776
0.043765
0.0437544
0.0437494
0.0437493
0.0437614
0.0437841
0.0438019
0.0437981
0.0437902
0.0437811
0.0437646
0.0437579
0.0437588
0.0437588
0.0437637
0.0437806
0.0438117
0.0438495
0.0438795
0.0439215
0.0439796
0.0439937
0.0439887
0.043973
0.0439531
0.0439002
0.0437981
0.0437485
0.0437394
0.0437183
0.0615714
0.125456
0.261239
0.444716
0.597004
0.714062
0.742537
0.75596
0.757948
0.735966
0.732253
0.738409
0.752952
0.760756
0.758154
0.752057
0.747776
0.751123
0.759734
0.766982
0.773474
0.775646
0.779205
0.785492
0.792287
0.796906
0.802072
0.81129
0.820282
0.828261
0.836852
0.840026
0.842987
0.866669
0.902815
0.936916
0.95273
0.988988
1.04272
1.04859
0.0438494
0.0438449
0.0438394
0.0438351
0.0438297
0.0438197
0.0438112
0.0438077
0.0438052
0.0437994
0.0437814
0.0437666
0.0437618
0.04376
0.0437622
0.0437642
0.043764
0.0437657
0.0437707
0.0437783
0.0437842
0.0437899
0.0437952
0.0437983
0.0437997
0.0437991
0.0437977
0.0437974
0.043798
0.0437958
0.0437924
0.0437871
0.0437797
0.0437757
0.0437822
0.043786
0.0437803
0.0437689
0.0437624
0.0437599
0.0437571
0.043758
0.043761
0.0437827
0.0438304
0.0438806
0.0439154
0.0439301
0.0439399
0.043965
0.0439898
0.0439827
0.0439572
0.0439261
0.043889
0.0438076
0.043705
0.0436845
0.0436932
0.0437202
0.0437178
0.0437318
0.0438085
0.060924
0.147794
0.311015
0.477256
0.60867
0.696206
0.71299
0.737061
0.755901
0.769312
0.761909
0.751703
0.74706
0.752209
0.759828
0.767738
0.770249
0.772821
0.775892
0.782228
0.789482
0.795576
0.799395
0.805165
0.815264
0.822433
0.829402
0.837973
0.842607
0.845505
0.867457
0.904123
0.935706
0.951158
0.988197
1.045
1.04956
0.0438178
0.0438013
0.0437895
0.0437871
0.0437858
0.0437821
0.0437797
0.0437792
0.043777
0.0437672
0.0437476
0.0437389
0.0437385
0.0437402
0.0437445
0.0437527
0.0437634
0.0437755
0.0437911
0.0438052
0.0438149
0.0438249
0.0438318
0.0438354
0.0438354
0.043832
0.0438287
0.0438285
0.043831
0.043833
0.0438309
0.0438217
0.0438061
0.0437864
0.0437649
0.043754
0.0437477
0.0437503
0.0437532
0.0437578
0.0437625
0.043767
0.0437891
0.0438587
0.0439316
0.0439728
0.0439776
0.043968
0.0439624
0.0439727
0.0439698
0.0439427
0.0439004
0.043864
0.0438118
0.0437159
0.0436584
0.0436595
0.0436773
0.0437366
0.0438006
0.0439236
0.044103
0.0442312
0.0442268
0.0441331
0.077717
0.17475
0.358099
0.556799
0.702273
0.740595
0.756651
0.756719
0.745494
0.749473
0.765049
0.765542
0.769543
0.769898
0.772521
0.778647
0.785934
0.792613
0.797055
0.800065
0.806487
0.816252
0.824252
0.831913
0.8408
0.847561
0.850376
0.871435
0.904614
0.928318
0.943768
0.990953
1.04527
1.04965
0.0438138
0.0438022
0.0437854
0.0437776
0.0437754
0.0437747
0.0437743
0.0437734
0.0437678
0.0437565
0.043752
0.0437523
0.0437554
0.0437619
0.0437713
0.0437853
0.0438059
0.0438284
0.0438484
0.0438622
0.0438709
0.043874
0.0438734
0.0438717
0.0438654
0.0438524
0.0438439
0.0438424
0.0438415
0.0438404
0.043835
0.0438181
0.0437881
0.0437449
0.0437252
0.0437261
0.0437343
0.0437482
0.0437553
0.0437654
0.0437874
0.0438182
0.0438857
0.0439699
0.0440074
0.0440072
0.0440001
0.0439757
0.0439612
0.0439506
0.0439272
0.0438795
0.043841
0.0438076
0.0437511
0.0436737
0.0436517
0.0436534
0.0436865
0.0438165
0.044
0.0442488
0.0443667
0.0443137
0.0442001
0.0441073
0.0440562
0.0442082
0.0478924
0.116066
0.269548
0.457404
0.618461
0.698948
0.733494
0.752022
0.777931
0.76671
0.768874
0.766879
0.773887
0.782704
0.788508
0.794441
0.797102
0.800725
0.808911
0.817384
0.825289
0.832868
0.841439
0.850626
0.854788
0.874076
0.902681
0.92142
0.937382
0.995773
1.04581
1.05162
0.0438116
0.0438045
0.0437895
0.0437799
0.0437782
0.0437783
0.0437794
0.04378
0.0437798
0.0437801
0.0437837
0.0437886
0.0437955
0.0438066
0.0438185
0.0438316
0.043847
0.043864
0.0438794
0.0438879
0.0438889
0.0438878
0.0438846
0.0438796
0.043866
0.0438419
0.043829
0.0438185
0.0438083
0.0438018
0.0437942
0.0437777
0.0437459
0.043722
0.0437185
0.0437203
0.0437343
0.0437528
0.0437725
0.0438153
0.0438657
0.0439224
0.0440022
0.0440295
0.044026
0.0440168
0.0440029
0.043956
0.0438997
0.0438826
0.0438529
0.0438117
0.0437911
0.0437686
0.0437247
0.0436692
0.0436548
0.0436716
0.0437839
0.044026
0.0443469
0.0446013
0.0445734
0.0443377
0.0441721
0.0442157
0.0445412
0.0455959
0.0463267
0.0463725
0.0466703
0.0767814
0.177186
0.379019
0.593614
0.702479
0.752308
0.756672
0.778021
0.767582
0.78513
0.783858
0.78858
0.795674
0.799835
0.804895
0.812229
0.818001
0.82515
0.832933
0.840985
0.850994
0.855689
0.872904
0.895895
0.914191
0.931898
1.00296
1.04737
1.0545
0.0438259
0.0438259
0.0438226
0.043818
0.0438173
0.0438183
0.0438214
0.0438259
0.0438295
0.0438343
0.0438373
0.0438381
0.0438406
0.0438456
0.0438503
0.0438565
0.0438639
0.0438747
0.0438804
0.0438802
0.0438788
0.0438707
0.0438573
0.0438412
0.0438122
0.0437816
0.0437647
0.0437548
0.0437557
0.0437611
0.0437626
0.0437533
0.0437306
0.0437292
0.043734
0.0437541
0.0437888
0.043815
0.0438576
0.0439197
0.0439669
0.0440154
0.0440395
0.0440373
0.0440206
0.0439908
0.0439477
0.0438597
0.0438137
0.04381
0.0437836
0.0437608
0.0437606
0.0437517
0.0437237
0.043692
0.0437077
0.043826
0.0440885
0.0444264
0.0447481
0.0448531
0.0447355
0.0445248
0.0446278
0.0450784
0.046039
0.0470825
0.0476743
0.0480776
0.0487972
0.0496339
0.0503239
0.0580377
0.136295
0.308568
0.501485
0.656466
0.723817
0.751023
0.802769
0.784063
0.793379
0.793825
0.797759
0.805829
0.81527
0.820991
0.825684
0.832759
0.841752
0.852524
0.858797
0.876252
0.894707
0.909244
0.930252
1.01029
1.04888
1.05807
0.0438868
0.0438865
0.0438847
0.0438813
0.0438766
0.043871
0.0438693
0.0438696
0.0438695
0.0438663
0.0438576
0.0438521
0.0438502
0.0438479
0.0438426
0.0438342
0.0438283
0.0438231
0.043818
0.0438146
0.0438102
0.0437987
0.0437812
0.0437613
0.0437386
0.0437197
0.0437101
0.0437122
0.0437241
0.0437458
0.0437558
0.0437652
0.0437863
0.0438108
0.0438387
0.0438754
0.0439031
0.0439253
0.0439628
0.0439994
0.0440253
0.0440313
0.0440261
0.0440038
0.0439549
0.0439078
0.0438586
0.0437896
0.0437728
0.0437717
0.0437489
0.0437428
0.0437519
0.0437586
0.0438006
0.0438842
0.0440607
0.0443497
0.0447093
0.0449471
0.0450928
0.0451249
0.045064
0.0452531
0.045708
0.0465659
0.0478245
0.0485334
0.0495317
0.0506387
0.0514239
0.0524212
0.0539149
0.0550555
0.0562725
0.0570852
0.0928835
0.224762
0.417642
0.608316
0.715709
0.751641
0.798311
0.801859
0.813262
0.810975
0.814002
0.820892
0.826606
0.835556
0.844002
0.852496
0.857356
0.873514
0.889207
0.90458
0.933072
1.01909
1.05082
1.06252
0.0439085
0.0439064
0.0439015
0.0438951
0.0438868
0.0438725
0.0438602
0.0438517
0.0438415
0.043828
0.0438065
0.0437791
0.0437598
0.0437464
0.0437354
0.0437275
0.0437239
0.0437255
0.0437319
0.043735
0.043737
0.0437368
0.0437319
0.043721
0.043704
0.043693
0.0436934
0.043702
0.0437358
0.0438053
0.0438598
0.043897
0.0439245
0.0439492
0.0439727
0.0439882
0.0439931
0.0440001
0.0440183
0.044032
0.0440257
0.0440097
0.0439906
0.0439529
0.0438972
0.0438555
0.0438232
0.0437724
0.0437666
0.0437613
0.0437483
0.0437581
0.0438037
0.0439548
0.0442215
0.044591
0.0449406
0.045257
0.0454863
0.0454882
0.0455153
0.0455929
0.0459665
0.0466679
0.0475766
0.0489403
0.0499365
0.0507178
0.0516115
0.0527966
0.0538778
0.0552505
0.0571648
0.0579083
0.0589092
0.0606088
0.0614478
0.0622909
0.0751211
0.162333
0.320925
0.535874
0.69734
0.74924
0.80494
0.822914
0.826846
0.82441
0.822423
0.832978
0.848793
0.855366
0.858213
0.870684
0.882441
0.89736
0.935082
1.02601
1.05275
1.0675
0.0438012
0.0437769
0.0437488
0.0437289
0.0437179
0.0437094
0.0436997
0.0436884
0.043677
0.0436651
0.0436501
0.0436348
0.0436309
0.0436325
0.0436392
0.0436486
0.0436541
0.043667
0.0436885
0.0436984
0.0437044
0.0437136
0.0437222
0.0437278
0.043732
0.0437508
0.0437908
0.0438394
0.0439121
0.0439983
0.0440405
0.0440446
0.0440449
0.0440491
0.0440595
0.0440589
0.0440459
0.0440368
0.0440414
0.0440414
0.0440174
0.0440011
0.0439804
0.0439387
0.0438858
0.0438413
0.0438396
0.043854
0.0438618
0.0438647
0.0439194
0.0440775
0.0443728
0.0447613
0.0452323
0.0456468
0.0459742
0.0462031
0.04622
0.0462845
0.046491
0.0471374
0.0481748
0.0492217
0.0505472
0.0516895
0.0523445
0.0531011
0.0539265
0.0550915
0.0568085
0.0584264
0.0599623
0.0611435
0.0617999
0.0631237
0.0646548
0.0663443
0.0682626
0.0694975
0.0696897
0.11946
0.257273
0.4834
0.682945
0.753807
0.810684
0.838633
0.829765
0.836051
0.846158
0.847841
0.850264
0.866026
0.880512
0.896511
0.944805
1.03355
1.05579
1.07316
0.0435545
0.0435633
0.0435658
0.0435624
0.0435611
0.0435623
0.0435629
0.0435643
0.0435674
0.0435722
0.0435791
0.0435871
0.0435972
0.0436128
0.0436335
0.0436526
0.0436736
0.0437057
0.0437609
0.0438068
0.0438377
0.0438801
0.0439269
0.0439528
0.0439765
0.0440183
0.0440594
0.0440936
0.0441424
0.0441663
0.0441621
0.0441478
0.0441311
0.0441252
0.0441273
0.0441109
0.0440864
0.0440854
0.0440988
0.0441005
0.0440985
0.0440751
0.0439907
0.0439515
0.0439683
0.0440151
0.0440973
0.0442097
0.04434
0.0445677
0.0448972
0.0453482
0.0457838
0.0462137
0.0465773
0.0468593
0.0471573
0.0472703
0.0474654
0.04793
0.0488213
0.0500964
0.0512935
0.0526214
0.0537298
0.0544312
0.0552997
0.0563059
0.0572279
0.0583381
0.0601287
0.0616063
0.0624057
0.0633857
0.0645885
0.0663246
0.0687746
0.0697199
0.0704591
0.0724155
0.0743302
0.0747017
0.0753162
0.104939
0.220145
0.447164
0.671577
0.767117
0.816913
0.853328
0.853458
0.848662
0.840038
0.851774
0.867184
0.888903
0.956197
1.03986
1.06194
1.07916
0.0435591
0.0435774
0.043597
0.0436164
0.0436376
0.0436634
0.0436919
0.0437243
0.0437585
0.0437958
0.0438369
0.0438834
0.0439407
0.0439992
0.0440472
0.0440776
0.0441014
0.0441279
0.0441508
0.0441752
0.0442095
0.0442373
0.0442458
0.0442479
0.0442551
0.0442676
0.0442776
0.0442891
0.0442907
0.0442861
0.0442592
0.0442283
0.0442248
0.0442317
0.0442336
0.0442076
0.0441893
0.0441976
0.044167
0.0441296
0.0441263
0.0441251
0.0441299
0.0441715
0.0442752
0.0444438
0.0447188
0.0450854
0.0456213
0.046179
0.0467597
0.0472332
0.0476489
0.0480149
0.0482419
0.0485263
0.048808
0.0492712
0.0500378
0.0510618
0.0524147
0.0536435
0.0549058
0.0559803
0.0566555
0.0574963
0.0584758
0.0595519
0.0606738
0.0619925
0.0634079
0.0648215
0.0657691
0.0666636
0.0679041
0.0696608
0.0723489
0.0734713
0.0734948
0.0744759
0.0769382
0.0793302
0.0803926
0.0813697
0.0825979
0.100796
0.204604
0.434892
0.684749
0.782066
0.838535
0.862683
0.849346
0.847464
0.857012
0.879248
0.964879
1.04471
1.07082
1.08664
0.0440111
0.0440591
0.0441109
0.0441596
0.0442077
0.0442563
0.0442968
0.0443235
0.0443497
0.044376
0.0444
0.0444173
0.0444341
0.0444597
0.0444819
0.0444835
0.044475
0.0444541
0.0444439
0.0444433
0.0444431
0.0444399
0.0444203
0.0444085
0.0444088
0.0443977
0.0443751
0.0443697
0.0443637
0.0443482
0.0443197
0.0443001
0.0443016
0.0443094
0.0443092
0.0442717
0.0442657
0.0443217
0.0444153
0.0445284
0.0446904
0.0449814
0.0453657
0.0458084
0.0462305
0.0467478
0.0472752
0.0478258
0.0482975
0.0486632
0.0489952
0.0492266
0.0495698
0.0498768
0.0502803
0.0508306
0.0516497
0.0528648
0.0541493
0.055554
0.0567067
0.0576899
0.0585627
0.0590279
0.0596364
0.0604364
0.0615968
0.0629484
0.0645479
0.066028
0.0669725
0.0680762
0.0694677
0.0706613
0.0715918
0.0726893
0.0747422
0.0772304
0.0775118
0.0776643
0.079331
0.0830015
0.0846791
0.0850531
0.0867416
0.0883497
0.0897381
0.104185
0.212015
0.450797
0.71172
0.818188
0.821718
0.84311
0.86396
0.89873
0.990058
1.0585
1.08348
1.09405
0.0448072
0.0447991
0.0447899
0.0447921
0.044793
0.0447901
0.0447832
0.0447524
0.0447136
0.0447054
0.0446979
0.0446623
0.0446294
0.0446324
0.0446322
0.0446292
0.0446168
0.0445927
0.0445612
0.0445497
0.0445474
0.044539
0.0445033
0.0444941
0.0444984
0.0444738
0.0444366
0.0444479
0.0444599
0.0444841
0.0445415
0.04462
0.0447296
0.0448791
0.0451026
0.0453873
0.0457416
0.046126
0.0465817
0.0470543
0.0475491
0.0479837
0.0484236
0.0488634
0.0493202
0.0497669
0.0501065
0.0504138
0.0506227
0.0508981
0.0511783
0.0515926
0.052146
0.0529418
0.0540643
0.0553065
0.0567368
0.0579744
0.0591027
0.0599615
0.0605604
0.0611331
0.0614906
0.0620738
0.06289
0.0640858
0.0656999
0.0673467
0.0689168
0.0699746
0.0704239
0.0709633
0.0722097
0.0743186
0.0764023
0.0772075
0.0780624
0.0800069
0.0815829
0.0826233
0.0838104
0.0859346
0.0884287
0.089115
0.0900496
0.0921136
0.0951904
0.0970007
0.0975654
0.1139
0.235394
0.492642
0.722554
0.791935
0.812678
0.86207
0.992044
1.08498
1.10657
1.10363
0.0445826
0.0445618
0.0445595
0.0445613
0.0445794
0.044617
0.0446212
0.0445907
0.044554
0.0445564
0.0445657
0.0445644
0.044568
0.0445914
0.0446311
0.0446661
0.0447102
0.0447316
0.0447581
0.0448108
0.0448959
0.0450165
0.045151
0.0453052
0.0454774
0.0456748
0.0458749
0.0460908
0.046344
0.0466661
0.0470256
0.0474176
0.0478167
0.0482416
0.0486532
0.0490643
0.0494561
0.049842
0.0502065
0.0505348
0.0508408
0.051115
0.0514162
0.0516992
0.0520287
0.0523386
0.052727
0.0531711
0.0537662
0.0545135
0.055382
0.0564615
0.0575959
0.0588197
0.0598856
0.0608566
0.0616284
0.0622061
0.0627253
0.0630488
0.0634883
0.0639351
0.0647641
0.0660095
0.0676014
0.0693216
0.0707234
0.0719456
0.0726715
0.0733198
0.0739507
0.07468
0.0760395
0.0784146
0.0812182
0.0820754
0.0820093
0.0828002
0.0850043
0.0872804
0.0889482
0.0895711
0.0912572
0.093168
0.0946826
0.0965553
0.0985422
0.101085
0.103067
0.103704
0.104724
0.130539
0.290271
0.497761
0.630307
0.725149
0.89924
1.03414
1.11097
1.11987
0.0454533
0.0455383
0.0456359
0.0457443
0.0458548
0.0459699
0.0460926
0.0462174
0.0463617
0.0465186
0.0466685
0.0468193
0.0470053
0.0472155
0.0474073
0.0475815
0.0477722
0.0479939
0.0482433
0.0484921
0.0487267
0.0489542
0.0492002
0.0494596
0.0497249
0.0499871
0.050251
0.0505109
0.0507737
0.0510466
0.0513227
0.0515991
0.0518648
0.0521295
0.0523804
0.0526461
0.0529078
0.0531947
0.0534743
0.0537934
0.0541364
0.0545435
0.054997
0.0555351
0.0561699
0.056924
0.0578358
0.0587881
0.0597617
0.0606458
0.0615428
0.0623408
0.0630424
0.0636111
0.0640543
0.0644787
0.0647907
0.0651891
0.065651
0.0664413
0.0674355
0.068794
0.0704337
0.0718522
0.0731722
0.0742863
0.0748281
0.0753296
0.0758343
0.0767892
0.0785437
0.0805925
0.0818573
0.0827919
0.0846052
0.0860765
0.0864445
0.0870577
0.0893225
0.0919793
0.0936711
0.0946109
0.0954091
0.0972929
0.0998627
0.102394
0.10327
0.104593
0.107163
0.109238
0.111365
0.112836
0.114112
0.136439
0.193604
0.273207
0.421941
0.672137
0.971012
1.09147
0.050321
0.0503935
0.0504792
0.0505704
0.050665
0.05076
0.0508481
0.0509383
0.0510479
0.0511696
0.0512882
0.0514029
0.0515201
0.0516435
0.0517745
0.0519158
0.0520665
0.0522224
0.0523824
0.0525475
0.0527227
0.052907
0.0531019
0.0533013
0.0535114
0.0537326
0.0539734
0.0542283
0.054502
0.0547861
0.0550845
0.0553943
0.0557403
0.056122
0.056552
0.0570162
0.0575081
0.0580259
0.0585818
0.0591843
0.0598119
0.0604845
0.0611703
0.0618893
0.062593
0.0632977
0.0639189
0.0644846
0.0650129
0.0655162
0.065976
0.0663371
0.0666947
0.0670294
0.0675046
0.0680318
0.068808
0.0697274
0.0709676
0.0723371
0.0737272
0.075049
0.0761224
0.0769537
0.0774997
0.0780597
0.0783369
0.0788084
0.0800277
0.0820025
0.084153
0.086503
0.0876123
0.0875291
0.0879277
0.0897938
0.091962
0.0933071
0.0949388
0.0968159
0.0978204
0.0991692
0.100525
0.102398
0.104796
0.107307
0.108969
0.109959
0.111887
0.114549
0.116438
0.118156
0.120252
0.122661
0.126444
0.135611
0.147878
0.208489
0.414348
0.889596
0.0545685
0.0546638
0.0547733
0.0548911
0.0550166
0.0551477
0.0552775
0.0554117
0.0555688
0.0557404
0.0559121
0.0560904
0.0562838
0.0564835
0.0566879
0.056906
0.0571423
0.057389
0.0576446
0.0579159
0.0582063
0.0585121
0.0588267
0.0591494
0.0594874
0.0598423
0.0602042
0.0605706
0.0609571
0.0613552
0.0617626
0.0621856
0.0626295
0.0630729
0.0635127
0.0639346
0.0643568
0.0647733
0.0651843
0.0655727
0.065961
0.0663524
0.0667468
0.0671356
0.0675003
0.0678516
0.0681673
0.0685124
0.0688849
0.0693498
0.0698101
0.0704194
0.0711122
0.0720463
0.0730615
0.0743204
0.0755135
0.0767164
0.0777147
0.078493
0.0791905
0.0797019
0.0801975
0.0807893
0.0814048
0.0823467
0.0837544
0.0853254
0.087016
0.0885011
0.089425
0.0907864
0.0923281
0.0926907
0.0930284
0.0943887
0.0973911
0.0996232
0.100453
0.101802
0.103044
0.10424
0.106069
0.108508
0.110252
0.111762
0.113949
0.115594
0.117111
0.119292
0.121315
0.122926
0.124766
0.127385
0.132214
0.140985
0.157529
0.17959
0.186807
0.469057
0.0615456
0.0616565
0.0617846
0.0619141
0.0620436
0.0621744
0.0623084
0.0624628
0.0626325
0.0627865
0.0629283
0.0630856
0.0632569
0.0634303
0.0636062
0.0637911
0.0639773
0.0641623
0.0643562
0.0645622
0.0647725
0.0649867
0.0652077
0.0654401
0.0656769
0.0659154
0.0661532
0.0663912
0.0666288
0.0668747
0.0671316
0.0673921
0.0676496
0.0679098
0.0681777
0.0684617
0.0687652
0.0690804
0.0694191
0.069775
0.0701737
0.0705676
0.0710016
0.0714469
0.0719733
0.0725356
0.0732145
0.0739164
0.0747397
0.0755597
0.076507
0.07741
0.0783802
0.0792721
0.0801667
0.0809569
0.0816797
0.0823516
0.0828877
0.0833048
0.0837166
0.0841348
0.0848001
0.0857667
0.0872512
0.0889946
0.0908352
0.0924407
0.0936948
0.0944345
0.094633
0.0950104
0.0965247
0.0987023
0.10032
0.101562
0.10354
0.105737
0.10621
0.106821
0.10852
0.110429
0.112677
0.114665
0.116086
0.117331
0.119259
0.12158
0.12347
0.125342
0.127386
0.129407
0.131359
0.133735
0.138187
0.147572
0.163287
0.186309
0.200126
0.211354
0.0674519
0.0675549
0.0676587
0.0677565
0.0678507
0.0679514
0.0680702
0.0682045
0.0683372
0.0684608
0.0685843
0.0687161
0.0688569
0.0690033
0.0691556
0.0693139
0.0694742
0.0696413
0.0698199
0.0700124
0.0702124
0.0704166
0.0706342
0.0708677
0.0711169
0.0713807
0.0716596
0.071959
0.072281
0.0726222
0.0729717
0.0733356
0.0737
0.0740818
0.0744754
0.0749075
0.0753706
0.0758868
0.0764306
0.0770262
0.0776178
0.0782468
0.0788526
0.0794803
0.0800768
0.0807125
0.0813298
0.0819826
0.0825878
0.0831701
0.0837069
0.0842162
0.0847215
0.0851787
0.0856245
0.0859834
0.0864529
0.0869877
0.0877226
0.0886057
0.0896599
0.0910465
0.092462
0.0939866
0.0953841
0.0964639
0.0973911
0.0983489
0.099169
0.100134
0.100947
0.101651
0.102876
0.105378
0.107961
0.109034
0.109781
0.111232
0.112356
0.113311
0.114889
0.117314
0.119441
0.120991
0.122753
0.124402
0.126079
0.128322
0.130061
0.13172
0.133575
0.135735
0.138182
0.140255
0.143316
0.150878
0.164863
0.18693
0.208462
0.211674
0.0746835
0.0747913
0.0749091
0.0750316
0.0751589
0.0752938
0.0754441
0.0756017
0.0757524
0.0759011
0.0760622
0.0762343
0.076414
0.0766067
0.0768022
0.076993
0.0771897
0.0774013
0.0776266
0.0778535
0.0780887
0.0783325
0.0785875
0.0788519
0.0791232
0.0793989
0.0796927
0.0800059
0.0803278
0.0806444
0.0809673
0.0812968
0.0816497
0.0820085
0.0823805
0.0827576
0.083146
0.0835211
0.0838984
0.0842613
0.0846349
0.0850054
0.0853851
0.0857583
0.0861236
0.0864965
0.0868842
0.0873252
0.0877633
0.0882408
0.0887498
0.0893613
0.090021
0.0907977
0.0916711
0.0926326
0.0936716
0.094799
0.0960124
0.0972612
0.0985313
0.0997793
0.100985
0.101957
0.102718
0.103192
0.103494
0.104009
0.105003
0.106542
0.108513
0.110328
0.111542
0.112871
0.115005
0.116039
0.116392
0.117368
0.119439
0.121581
0.123347
0.125098
0.126461
0.12791
0.129721
0.131618
0.133154
0.134898
0.136865
0.138545
0.140361
0.142137
0.144046
0.146184
0.149213
0.155496
0.17028
0.193829
0.214795
0.221039
0.0824673
0.082561
0.0826629
0.0827696
0.0828791
0.0829944
0.0831168
0.0832425
0.0833748
0.0835236
0.0836805
0.083836
0.0839908
0.0841514
0.0843188
0.0844992
0.0846883
0.0848803
0.0850686
0.0852614
0.0854636
0.0856736
0.0858829
0.0860968
0.0863171
0.0865492
0.0867858
0.0870286
0.0872851
0.087562
0.0878459
0.0881431
0.0884573
0.0887909
0.0891374
0.089505
0.0898761
0.0902598
0.0906622
0.091089
0.0915511
0.092052
0.0926011
0.0931985
0.0938237
0.0944743
0.0951222
0.0957913
0.0965225
0.0973408
0.0982418
0.0991825
0.100157
0.101118
0.102076
0.103027
0.103915
0.104716
0.105364
0.10587
0.106343
0.106784
0.107434
0.108088
0.10886
0.10985
0.110941
0.112192
0.113739
0.115472
0.117452
0.119758
0.120873
0.121046
0.121833
0.123436
0.124606
0.125725
0.127605
0.129686
0.131463
0.132751
0.134212