/*--------------------------------*- C++ -*----------------------------------*\
  =========                 |
  \\      /  F ield         | OpenFOAM: The Open Source CFD Toolbox
   \\    /   O peration     | Website:  https://openfoam.org
    \\  /    A nd           | Version:  7
     \\/     M anipulation  |
\*---------------------------------------------------------------------------*/
FoamFile
{
    version     2.0;
    format      ascii;
    class       volVectorField;
    location    "3.5";
    object      U;
}
// * * * * * * * * * * * * * * * * * * * * * * * * * * * * * * * * * * * * * //

dimensions      [0 1 -1 0 0 0 0];

internalField   nonuniform List<vector> 
90000
(
(5.04876 -0.396202 0)
(5.04631 -0.380428 0)
(5.04246 -0.36362 0)
(5.0358 -0.33503 0)
(5.03207 -0.325371 0)
(5.02916 -0.320658 0)
(5.02298 -0.302456 0)
(5.01834 -0.289209 0)
(5.01499 -0.280603 0)
(5.01174 -0.27162 0)
(5.00793 -0.256441 0)
(5.00564 -0.245807 0)
(5.00379 -0.231664 0)
(5.00288 -0.222359 0)
(5.00132 -0.206839 0)
(5.00059 -0.199323 0)
(4.9989 -0.183538 0)
(4.99832 -0.17768 0)
(4.99659 -0.161728 0)
(4.99616 -0.157782 0)
(4.99422 -0.141593 0)
(4.99389 -0.138913 0)
(4.99179 -0.122314 0)
(4.99159 -0.12078 0)
(4.98927 -0.103793 0)
(4.98928 -0.103631 0)
(4.98668 -0.086109 0)
(4.98699 -0.0868348 0)
(4.98411 -0.0691261 0)
(4.98474 -0.0703267 0)
(4.9815 -0.0527248 0)
(4.98265 -0.0541476 0)
(4.97894 -0.037362 0)
(4.98004 -0.0372029 0)
(4.97656 -0.0246693 0)
(4.97509 -0.0178516 0)
(4.97525 -0.0138666 0)
(4.97459 -0.00755216 0)
(4.97178 -0.00204575 0)
(4.97272 0.00207058 0)
(4.97213 0.00365146 0)
(4.97232 0.00623003 0)
(4.9714 0.00810862 0)
(4.96987 0.0102276 0)
(4.97008 0.00938021 0)
(4.97067 0.00277357 0)
(4.97047 4.47612e-05 0)
(4.96868 -0.00605214 0)
(4.96815 -0.00900644 0)
(4.96664 -0.0118407 0)
(4.9652 -0.0137434 0)
(4.96409 -0.0140709 0)
(4.96367 -0.0146137 0)
(4.96357 -0.012983 0)
(4.96436 -0.00848545 0)
(4.96502 -0.00523015 0)
(4.96596 -0.00255387 0)
(4.9675 0.00039464 0)
(4.96777 0.00187458 0)
(4.96784 0.00178906 0)
(4.96817 0.0028193 0)
(4.96903 0.00177776 0)
(4.96887 -0.00113192 0)
(4.96925 -0.00348813 0)
(4.96898 -0.00724535 0)
(4.9686 -0.00968977 0)
(4.9673 -0.0109862 0)
(4.96855 -0.00944749 0)
(4.96861 -0.00376819 0)
(4.96923 -0.00130437 0)
(4.96957 0.000940997 0)
(4.97028 0.00156298 0)
(4.97005 0.00305847 0)
(4.97172 -0.0013739 0)
(4.97161 -0.00299967 0)
(4.97166 -0.00457969 0)
(4.97244 -0.00510691 0)
(4.97184 -0.00302829 0)
(4.9722 -0.000196796 0)
(4.97165 0.00170109 0)
(4.97253 -0.000496429 0)
(4.9726 -0.00224927 0)
(4.9734 -0.00550641 0)
(4.9728 -0.00399779 0)
(4.97254 -0.00227288 0)
(4.97258 -0.000362765 0)
(4.9725 -0.00161844 0)
(4.97262 -0.00407989 0)
(4.97322 -0.00431169 0)
(4.97335 -0.00297259 0)
(4.9739 -0.0016766 0)
(4.974 -0.001407 0)
(4.97405 -0.00183576 0)
(4.9744 -0.0028846 0)
(4.97408 -0.00174722 0)
(4.97441 -0.000770272 0)
(4.97429 -0.0012019 0)
(4.97448 -0.00156712 0)
(4.9747 -0.00219875 0)
(4.97506 -0.00274607 0)
(5.05087 -0.413027 0)
(5.05074 -0.412502 0)
(5.05049 -0.411742 0)
(5.05002 -0.410106 0)
(5.04943 -0.407987 0)
(5.04881 -0.406259 0)
(5.04787 -0.403741 0)
(5.04675 -0.400335 0)
(5.04569 -0.39618 0)
(5.04474 -0.3927 0)
(5.04318 -0.387846 0)
(5.04096 -0.383112 0)
(5.03816 -0.376696 0)
(5.03533 -0.371153 0)
(5.03206 -0.362974 0)
(5.02901 -0.356068 0)
(5.0255 -0.345252 0)
(5.02256 -0.336863 0)
(5.01903 -0.323241 0)
(5.01639 -0.314012 0)
(5.01274 -0.29742 0)
(5.01039 -0.287402 0)
(5.0066 -0.26745 0)
(5.00473 -0.257371 0)
(5.00072 -0.234005 0)
(4.99948 -0.225007 0)
(4.99509 -0.198253 0)
(4.99467 -0.190681 0)
(4.98988 -0.16055 0)
(4.99026 -0.15456 0)
(4.98525 -0.122827 0)
(4.98647 -0.118751 0)
(4.98124 -0.0863819 0)
(4.98313 -0.0837722 0)
(4.97789 -0.051234 0)
(4.98049 -0.0525237 0)
(4.97469 -0.0218865 0)
(4.97662 -0.0225163 0)
(4.97129 0.00140241 0)
(4.97323 0.00157637 0)
(4.96834 0.0187998 0)
(4.96836 0.0207284 0)
(4.96562 0.0313926 0)
(4.96381 0.0299077 0)
(4.96206 0.0245582 0)
(4.96405 0.0204902 0)
(4.96486 0.0107907 0)
(4.96485 0.00742281 0)
(4.96827 0.000601625 0)
(4.96902 -0.00247905 0)
(4.96992 -0.00481311 0)
(4.97082 -0.00602417 0)
(4.9714 -0.00758847 0)
(4.97196 -0.0060495 0)
(4.97165 -0.00411252 0)
(4.97203 -0.00138795 0)
(4.97225 0.000856942 0)
(4.97231 0.00310221 0)
(4.97202 0.00557178 0)
(4.97114 0.00518467 0)
(4.9707 0.0042477 0)
(4.9698 -0.00043864 0)
(4.96978 -0.00434643 0)
(4.96944 -0.0107064 0)
(4.96979 -0.0123207 0)
(4.97018 -0.0127735 0)
(4.97071 -0.0112779 0)
(4.97137 -0.00763104 0)
(4.97078 -0.00317266 0)
(4.97199 0.00108367 0)
(4.97135 0.00479106 0)
(4.97117 0.00433475 0)
(4.97034 0.000529256 0)
(4.97094 -0.00293172 0)
(4.97105 -0.00563074 0)
(4.97168 -0.00626511 0)
(4.97214 -0.00552988 0)
(4.97316 -0.00050247 0)
(4.97302 0.00138533 0)
(4.97212 0.00130481 0)
(4.97209 -0.000636729 0)
(4.97163 -0.00442289 0)
(4.97204 -0.0048394 0)
(4.9729 -0.00348198 0)
(4.97282 -0.00291948 0)
(4.97273 -0.0022809 0)
(4.97211 -0.0030034 0)
(4.97218 -0.00266013 0)
(4.97224 -0.00202226 0)
(4.97282 -0.00132679 0)
(4.97288 -0.00137366 0)
(4.9728 -0.00200543 0)
(4.97294 -0.00297268 0)
(4.97331 -0.00224957 0)
(4.97331 -0.00175785 0)
(4.97333 -0.00151712 0)
(4.97317 -0.0014917 0)
(4.97321 -0.00178627 0)
(4.97329 -0.00212075 0)
(4.97366 -0.00281525 0)
(5.04892 -0.413556 0)
(5.0489 -0.413552 0)
(5.04888 -0.413498 0)
(5.04881 -0.413546 0)
(5.04878 -0.413388 0)
(5.0488 -0.413336 0)
(5.0488 -0.413346 0)
(5.04889 -0.413266 0)
(5.04886 -0.412937 0)
(5.04894 -0.412599 0)
(5.04899 -0.412426 0)
(5.04896 -0.412209 0)
(5.04876 -0.411486 0)
(5.04859 -0.410806 0)
(5.04845 -0.410157 0)
(5.04829 -0.409674 0)
(5.04801 -0.408642 0)
(5.04764 -0.407515 0)
(5.04717 -0.40611 0)
(5.04662 -0.404385 0)
(5.04592 -0.402333 0)
(5.04506 -0.399506 0)
(5.04405 -0.395937 0)
(5.04299 -0.391746 0)
(5.04168 -0.386413 0)
(5.04026 -0.380488 0)
(5.0384 -0.372509 0)
(5.03655 -0.364301 0)
(5.03411 -0.352309 0)
(5.03212 -0.342048 0)
(5.02908 -0.325009 0)
(5.0271 -0.314324 0)
(5.0231 -0.290074 0)
(5.02126 -0.279496 0)
(5.01643 -0.248496 0)
(5.0151 -0.239185 0)
(5.00958 -0.202064 0)
(5.00927 -0.197585 0)
(5.00309 -0.154224 0)
(5.00333 -0.154731 0)
(4.99781 -0.113435 0)
(4.99858 -0.118859 0)
(4.99414 -0.0828948 0)
(4.99903 -0.0915821 0)
(4.98889 -0.0618971 0)
(4.99213 -0.0554371 0)
(4.98412 -0.0370774 0)
(4.98465 -0.0284131 0)
(4.98108 -0.0210119 0)
(4.98259 -0.0152531 0)
(4.98087 -0.0107153 0)
(4.98192 -0.00657944 0)
(4.9812 -0.00377866 0)
(4.98064 -0.000523654 0)
(4.98053 1.48087e-05 0)
(4.97916 0.00197062 0)
(4.97775 0.00181803 0)
(4.976 0.000327617 0)
(4.97522 -0.00204345 0)
(4.9746 -0.00472079 0)
(4.97423 -0.0064599 0)
(4.97369 -0.00940855 0)
(4.97378 -0.00997844 0)
(4.97404 -0.0100075 0)
(4.97481 -0.0084968 0)
(4.97541 -0.00678951 0)
(4.97589 -0.00377945 0)
(4.97659 -0.00189376 0)
(4.97547 0.00182253 0)
(4.97488 0.00119769 0)
(4.9739 0.000256588 0)
(4.97306 -0.00408508 0)
(4.97284 -0.00198743 0)
(4.97319 -0.000792417 0)
(4.9739 0.000249888 0)
(4.97439 0.00160536 0)
(4.97436 0.00143218 0)
(4.97436 -0.000771774 0)
(4.9742 -0.00243543 0)
(4.97362 -0.00452631 0)
(4.97329 -0.0032921 0)
(4.97343 -0.00318132 0)
(4.9729 -0.00138856 0)
(4.97426 -0.00361742 0)
(4.97406 -0.00418933 0)
(4.97407 -0.00521409 0)
(4.97347 -0.00289668 0)
(4.97343 -0.00251287 0)
(4.97318 -0.00259659 0)
(4.97329 -0.00324675 0)
(4.97332 -0.00342049 0)
(4.97329 -0.00295262 0)
(4.97338 -0.00237374 0)
(4.97348 -0.00242691 0)
(4.9735 -0.00226578 0)
(4.97347 -0.0016022 0)
(4.97332 -0.00103441 0)
(4.97323 -0.00111162 0)
(4.97319 -0.00146347 0)
(4.97334 -0.00206717 0)
(5.04794 -0.412195 0)
(5.04793 -0.412173 0)
(5.04796 -0.412099 0)
(5.04799 -0.412115 0)
(5.04804 -0.412298 0)
(5.04803 -0.412481 0)
(5.04805 -0.412576 0)
(5.04829 -0.412367 0)
(5.04833 -0.412315 0)
(5.04833 -0.412288 0)
(5.04831 -0.412215 0)
(5.04827 -0.412124 0)
(5.04825 -0.412098 0)
(5.04827 -0.412183 0)
(5.04833 -0.412252 0)
(5.04837 -0.412231 0)
(5.04834 -0.412264 0)
(5.04838 -0.411973 0)
(5.04837 -0.411847 0)
(5.0484 -0.411707 0)
(5.04842 -0.411678 0)
(5.04842 -0.41164 0)
(5.04842 -0.411584 0)
(5.04843 -0.411519 0)
(5.04844 -0.411453 0)
(5.04839 -0.411169 0)
(5.0483 -0.410875 0)
(5.04816 -0.410297 0)
(5.04805 -0.409575 0)
(5.04794 -0.408476 0)
(5.0478 -0.407265 0)
(5.04751 -0.405395 0)
(5.04695 -0.402426 0)
(5.04619 -0.398331 0)
(5.04505 -0.392426 0)
(5.04381 -0.385575 0)
(5.0418 -0.374451 0)
(5.03993 -0.363733 0)
(5.03655 -0.343613 0)
(5.03433 -0.329477 0)
(5.02905 -0.295614 0)
(5.02756 -0.281375 0)
(5.0197 -0.230543 0)
(5.02113 -0.220122 0)
(5.01183 -0.154327 0)
(5.01446 -0.153304 0)
(5.00387 -0.0885938 0)
(5.00671 -0.0948459 0)
(4.99711 -0.0432277 0)
(4.99771 -0.0502657 0)
(4.99045 -0.0168198 0)
(4.98961 -0.0218167 0)
(4.98573 -0.0039838 0)
(4.98365 -0.00677908 0)
(4.98299 -0.000775427 0)
(4.98197 -0.00263363 0)
(4.98128 -0.00383952 0)
(4.98069 -0.00751831 0)
(4.9794 -0.00839355 0)
(4.97877 -0.0107612 0)
(4.97742 -0.00942935 0)
(4.97724 -0.00848324 0)
(4.97741 -0.00617759 0)
(4.97721 -0.00356987 0)
(4.97764 0.00267925 0)
(4.97815 0.00318566 0)
(4.97644 0.00582809 0)
(4.97878 0.00120757 0)
(4.97839 -0.00197196 0)
(4.97738 -0.00536892 0)
(4.97626 -0.00711843 0)
(4.97597 -0.00681634 0)
(4.97656 -0.00373418 0)
(4.97676 -0.00157848 0)
(4.97752 0.0026698 0)
(4.97705 0.00375352 0)
(4.97663 0.00104884 0)
(4.97678 -0.00131676 0)
(4.97606 -0.00467763 0)
(4.9761 -0.0041383 0)
(4.97626 -0.00243565 0)
(4.97601 4.72618e-05 0)
(4.97626 -0.00077604 0)
(4.97631 -0.00205182 0)
(4.97606 -0.00427562 0)
(4.97644 -0.00457504 0)
(4.97626 -0.00323567 0)
(4.976 -0.00116149 0)
(4.97571 -0.000977902 0)
(4.97563 -0.00232592 0)
(4.97561 -0.00266935 0)
(4.97555 -0.002155 0)
(4.97557 -0.00169008 0)
(4.97551 -0.00168667 0)
(4.97542 -0.00202626 0)
(4.97532 -0.0020139 0)
(4.97519 -0.00167274 0)
(4.97494 -0.00130223 0)
(4.97495 -0.00141307 0)
(4.97507 -0.00228304 0)
(5.04895 -0.410987 0)
(5.04899 -0.41102 0)
(5.04905 -0.411043 0)
(5.04913 -0.411134 0)
(5.04915 -0.411236 0)
(5.04916 -0.411312 0)
(5.04924 -0.411353 0)
(5.04933 -0.411285 0)
(5.04934 -0.411236 0)
(5.04933 -0.411232 0)
(5.04932 -0.411228 0)
(5.0493 -0.411229 0)
(5.04936 -0.411232 0)
(5.04941 -0.41123 0)
(5.04946 -0.411238 0)
(5.04951 -0.411234 0)
(5.04954 -0.4112 0)
(5.04958 -0.411155 0)
(5.04961 -0.41112 0)
(5.04961 -0.411111 0)
(5.04972 -0.411282 0)
(5.04975 -0.411579 0)
(5.04982 -0.411678 0)
(5.0498 -0.411817 0)
(5.0498 -0.411959 0)
(5.04979 -0.411968 0)
(5.04974 -0.411989 0)
(5.04966 -0.412105 0)
(5.04966 -0.412083 0)
(5.04961 -0.412286 0)
(5.0497 -0.41247 0)
(5.04976 -0.412549 0)
(5.04979 -0.412473 0)
(5.0498 -0.412473 0)
(5.04981 -0.41243 0)
(5.04978 -0.412414 0)
(5.04967 -0.412182 0)
(5.04949 -0.411807 0)
(5.04923 -0.410928 0)
(5.04893 -0.4095 0)
(5.04842 -0.407005 0)
(5.04766 -0.402571 0)
(5.04627 -0.395537 0)
(5.04454 -0.385583 0)
(5.04163 -0.368589 0)
(5.03917 -0.351912 0)
(5.03403 -0.317643 0)
(5.03175 -0.298437 0)
(5.02405 -0.244361 0)
(5.02289 -0.230272 0)
(5.01351 -0.16544 0)
(5.01338 -0.16157 0)
(5.00451 -0.101213 0)
(5.00453 -0.108309 0)
(4.99711 -0.0626524 0)
(5.00007 -0.0763099 0)
(4.9918 -0.0504555 0)
(4.99371 -0.0502807 0)
(4.98788 -0.0366735 0)
(4.98833 -0.0309615 0)
(4.98561 -0.0223009 0)
(4.98496 -0.0140688 0)
(4.9822 -0.00604394 0)
(4.97824 0.00283413 0)
(4.97814 0.00487088 0)
(4.97761 0.00438045 0)
(4.97579 -0.00201395 0)
(4.9766 -0.00311619 0)
(4.97659 -0.00823233 0)
(4.9767 -0.00948226 0)
(4.97703 -0.00711153 0)
(4.97736 -0.00386214 0)
(4.97837 -0.000847347 0)
(4.97862 0.002989 0)
(4.97864 0.00333758 0)
(4.97809 0.00124117 0)
(4.97776 -0.0009604 0)
(4.97793 -0.00408005 0)
(4.97824 -0.00433903 0)
(4.97882 -0.00509255 0)
(4.97923 -0.0028782 0)
(4.97898 -0.00264586 0)
(4.97891 -0.00158359 0)
(4.97827 -0.00407647 0)
(4.97858 -0.0049174 0)
(4.97899 -0.00595264 0)
(4.97908 -0.00445015 0)
(4.97889 -0.00347434 0)
(4.97869 -0.00138662 0)
(4.97841 -0.00207851 0)
(4.9787 -0.00272679 0)
(4.97859 -0.00367138 0)
(4.97855 -0.00280908 0)
(4.97857 -0.00230827 0)
(4.97846 -0.00184007 0)
(4.97835 -0.00171916 0)
(4.97822 -0.00149368 0)
(4.97813 -0.00120868 0)
(4.97822 -0.000981621 0)
(4.97833 -0.00131618 0)
(5.05055 -0.411646 0)
(5.05059 -0.411666 0)
(5.05067 -0.411674 0)
(5.05071 -0.411663 0)
(5.05074 -0.411665 0)
(5.0508 -0.411695 0)
(5.05081 -0.41172 0)
(5.05083 -0.411742 0)
(5.05085 -0.411685 0)
(5.0509 -0.411651 0)
(5.05092 -0.411696 0)
(5.05093 -0.411769 0)
(5.05095 -0.411775 0)
(5.0509 -0.411604 0)
(5.05085 -0.411495 0)
(5.05082 -0.411401 0)
(5.05089 -0.411268 0)
(5.05099 -0.411204 0)
(5.05098 -0.411372 0)
(5.05101 -0.411534 0)
(5.05113 -0.411668 0)
(5.05097 -0.411898 0)
(5.05092 -0.412213 0)
(5.05098 -0.412361 0)
(5.051 -0.412324 0)
(5.05095 -0.412316 0)
(5.05079 -0.41261 0)
(5.0507 -0.412915 0)
(5.05065 -0.413053 0)
(5.05057 -0.413188 0)
(5.05047 -0.413104 0)
(5.0504 -0.413315 0)
(5.05043 -0.413246 0)
(5.05051 -0.413279 0)
(5.05059 -0.413293 0)
(5.0506 -0.41354 0)
(5.05059 -0.413562 0)
(5.05062 -0.413723 0)
(5.05069 -0.413782 0)
(5.05074 -0.414412 0)
(5.05088 -0.414793 0)
(5.05101 -0.414989 0)
(5.0511 -0.415137 0)
(5.05109 -0.414681 0)
(5.05103 -0.41399 0)
(5.05082 -0.412525 0)
(5.05035 -0.410177 0)
(5.04943 -0.40505 0)
(5.04779 -0.397174 0)
(5.04545 -0.383056 0)
(5.04169 -0.362368 0)
(5.03779 -0.335559 0)
(5.03102 -0.293153 0)
(5.02786 -0.262092 0)
(5.0168 -0.191388 0)
(5.01966 -0.176033 0)
(5.00558 -0.0934587 0)
(5.01039 -0.0910812 0)
(4.99814 -0.0347825 0)
(5.00023 -0.0284105 0)
(4.99267 0.000930161 0)
(4.99328 0.00850214 0)
(4.98842 0.0285763 0)
(4.98282 0.0211484 0)
(4.97922 0.00596526 0)
(4.97823 -7.20329e-05 0)
(4.97645 -0.00843854 0)
(4.97723 -0.00884049 0)
(4.97775 -0.00857762 0)
(4.97832 -0.00438058 0)
(4.97889 -0.000795981 0)
(4.98055 0.00553887 0)
(4.9805 0.00438694 0)
(4.9805 0.00268672 0)
(4.97987 -0.00144658 0)
(4.98032 -0.00234921 0)
(4.97908 -0.00277704 0)
(4.97916 -0.00262419 0)
(4.97966 -0.00104954 0)
(4.98035 0.000881935 0)
(4.98097 -0.00100395 0)
(4.98081 -0.00209841 0)
(4.98059 -0.00409892 0)
(4.98052 -0.00374258 0)
(4.98057 -0.00346324 0)
(4.98081 -0.00297595 0)
(4.98078 -0.002056 0)
(4.98123 -0.00340281 0)
(4.98108 -0.00380585 0)
(4.98144 -0.003101 0)
(4.98096 -0.00172664 0)
(4.98146 -0.00152407 0)
(4.98136 -0.00165319 0)
(4.98166 -0.0025103 0)
(4.98164 -0.00236664 0)
(4.98156 -0.00217838 0)
(4.98146 -0.00183011 0)
(4.98158 -0.00151404 0)
(4.98171 -0.00154523 0)
(4.98168 -0.00183239 0)
(5.0519 -0.413268 0)
(5.05194 -0.413229 0)
(5.05197 -0.413173 0)
(5.05196 -0.41319 0)
(5.05195 -0.413205 0)
(5.05195 -0.413184 0)
(5.05197 -0.413175 0)
(5.05197 -0.413285 0)
(5.05189 -0.413433 0)
(5.05184 -0.41347 0)
(5.05181 -0.413551 0)
(5.05183 -0.41364 0)
(5.05184 -0.413601 0)
(5.0518 -0.413591 0)
(5.05169 -0.413774 0)
(5.05165 -0.413771 0)
(5.05163 -0.413775 0)
(5.05163 -0.413917 0)
(5.05169 -0.413951 0)
(5.05179 -0.413867 0)
(5.05194 -0.413834 0)
(5.05178 -0.414124 0)
(5.05156 -0.414601 0)
(5.05154 -0.414775 0)
(5.05155 -0.414634 0)
(5.05144 -0.414782 0)
(5.05116 -0.415498 0)
(5.05107 -0.41562 0)
(5.051 -0.415546 0)
(5.0509 -0.415615 0)
(5.0509 -0.415517 0)
(5.05097 -0.415558 0)
(5.05104 -0.415836 0)
(5.05114 -0.415874 0)
(5.05125 -0.41572 0)
(5.05135 -0.415775 0)
(5.05148 -0.416134 0)
(5.05167 -0.416015 0)
(5.05186 -0.415904 0)
(5.05194 -0.416178 0)
(5.05198 -0.416456 0)
(5.05202 -0.416658 0)
(5.05201 -0.416494 0)
(5.0522 -0.416451 0)
(5.05242 -0.416349 0)
(5.05262 -0.416347 0)
(5.05282 -0.41627 0)
(5.05297 -0.416191 0)
(5.05307 -0.416014 0)
(5.05306 -0.415527 0)
(5.0529 -0.414528 0)
(5.05242 -0.412005 0)
(5.0516 -0.40771 0)
(5.05012 -0.397667 0)
(5.04776 -0.384255 0)
(5.04409 -0.357253 0)
(5.03936 -0.32749 0)
(5.0335 -0.280833 0)
(5.02799 -0.24114 0)
(5.02098 -0.186013 0)
(5.01719 -0.154308 0)
(5.01355 -0.120471 0)
(5.01117 -0.0856609 0)
(5.01807 -0.0920057 0)
(5.0027 -0.055429 0)
(5.00024 -0.0428228 0)
(4.99699 -0.034 0)
(4.99552 -0.0196996 0)
(4.99146 -0.00992175 0)
(4.98265 0.00465726 0)
(4.98263 0.0058514 0)
(4.98287 0.00403345 0)
(4.98261 -0.00256946 0)
(4.98294 -0.00431635 0)
(4.98357 -0.0107201 0)
(4.9821 -0.00974525 0)
(4.98224 -0.00584809 0)
(4.98241 -0.00164006 0)
(4.98293 0.00139489 0)
(4.98263 0.00148296 0)
(4.9823 -0.000147349 0)
(4.98218 -0.00488906 0)
(4.98236 -0.00597125 0)
(4.98272 -0.00503548 0)
(4.98278 -0.00288696 0)
(4.98307 -0.0018267 0)
(4.98308 -0.00204598 0)
(4.98307 -0.00313046 0)
(4.98351 -0.00468521 0)
(4.98364 -0.00441799 0)
(4.98338 -0.00299319 0)
(4.9836 -0.0017645 0)
(4.98397 -0.00165172 0)
(4.98418 -0.00203568 0)
(4.98412 -0.00268334 0)
(4.98411 -0.00224066 0)
(4.98416 -0.00188958 0)
(4.98421 -0.0015008 0)
(4.98397 -0.000821538 0)
(4.98407 -0.00105302 0)
(5.05277 -0.414458 0)
(5.05277 -0.414375 0)
(5.05281 -0.41427 0)
(5.0527 -0.414559 0)
(5.05262 -0.414833 0)
(5.05264 -0.414728 0)
(5.05254 -0.414971 0)
(5.0525 -0.415379 0)
(5.05257 -0.415365 0)
(5.05267 -0.415353 0)
(5.05277 -0.415356 0)
(5.05285 -0.415351 0)
(5.05287 -0.415492 0)
(5.05286 -0.415654 0)
(5.05289 -0.4156 0)
(5.05298 -0.415561 0)
(5.05287 -0.415847 0)
(5.05281 -0.416229 0)
(5.05287 -0.416354 0)
(5.05287 -0.416213 0)
(5.05301 -0.416019 0)
(5.05298 -0.416205 0)
(5.05278 -0.416866 0)
(5.05271 -0.416934 0)
(5.05273 -0.416779 0)
(5.05268 -0.416923 0)
(5.05266 -0.417201 0)
(5.0526 -0.417121 0)
(5.05256 -0.417019 0)
(5.05257 -0.417101 0)
(5.05266 -0.417152 0)
(5.05275 -0.417218 0)
(5.05281 -0.417347 0)
(5.05288 -0.417364 0)
(5.05299 -0.417206 0)
(5.05298 -0.417453 0)
(5.05298 -0.417844 0)
(5.05299 -0.4178 0)
(5.05307 -0.417606 0)
(5.05316 -0.417672 0)
(5.05326 -0.41791 0)
(5.05337 -0.418155 0)
(5.0535 -0.418209 0)
(5.05385 -0.418047 0)
(5.05421 -0.417917 0)
(5.05432 -0.417911 0)
(5.05446 -0.417912 0)
(5.05458 -0.417851 0)
(5.05467 -0.417783 0)
(5.0547 -0.417632 0)
(5.05474 -0.417251 0)
(5.05474 -0.417216 0)
(5.05488 -0.416906 0)
(5.055 -0.415971 0)
(5.05536 -0.414616 0)
(5.05564 -0.412985 0)
(5.05534 -0.409561 0)
(5.05406 -0.401844 0)
(5.05177 -0.389121 0)
(5.04727 -0.363525 0)
(5.04204 -0.329567 0)
(5.03465 -0.279623 0)
(5.02667 -0.221628 0)
(5.0246 -0.160608 0)
(5.01626 -0.0977535 0)
(5.01409 -0.050605 0)
(5.00808 -0.00860368 0)
(5.01188 0.00423671 0)
(5.00132 0.0427463 0)
(4.99389 0.035897 0)
(4.99143 0.0128706 0)
(4.98825 -0.00159231 0)
(4.98823 -0.0075489 0)
(4.98625 -0.00979436 0)
(4.98661 -0.00979902 0)
(4.98695 -0.00549322 0)
(4.98816 0.00465942 0)
(4.98766 0.00629515 0)
(4.98694 0.0043423 0)
(4.98507 -0.000302846 0)
(4.98438 -0.00348677 0)
(4.98429 -0.00431065 0)
(4.98455 -0.00379241 0)
(4.98503 -0.00219291 0)
(4.98576 -0.00119869 0)
(4.98564 -0.00144326 0)
(4.98543 -0.00258959 0)
(4.98543 -0.00395604 0)
(4.98552 -0.00422406 0)
(4.98551 -0.00395029 0)
(4.98614 -0.00242241 0)
(4.98583 -0.0021018 0)
(4.98597 -0.00226251 0)
(4.98565 -0.00206759 0)
(4.98568 -0.00213539 0)
(4.98575 -0.00216155 0)
(4.98594 -0.00204036 0)
(4.98581 -0.00183521 0)
(4.98547 -0.00130839 0)
(4.98555 -0.00110812 0)
(5.05356 -0.416492 0)
(5.05352 -0.416435 0)
(5.05348 -0.416169 0)
(5.05354 -0.416049 0)
(5.0536 -0.416054 0)
(5.05368 -0.416057 0)
(5.0538 -0.41615 0)
(5.05396 -0.416512 0)
(5.05396 -0.416881 0)
(5.05388 -0.417119 0)
(5.05393 -0.417381 0)
(5.05401 -0.417443 0)
(5.05401 -0.417363 0)
(5.05392 -0.417551 0)
(5.05398 -0.417657 0)
(5.05417 -0.417564 0)
(5.05442 -0.417546 0)
(5.05439 -0.417713 0)
(5.05431 -0.417947 0)
(5.05438 -0.418175 0)
(5.05445 -0.418191 0)
(5.05457 -0.418127 0)
(5.05456 -0.418287 0)
(5.05442 -0.418461 0)
(5.0544 -0.418682 0)
(5.05445 -0.418768 0)
(5.0544 -0.41864 0)
(5.05441 -0.418452 0)
(5.05442 -0.418361 0)
(5.0545 -0.418444 0)
(5.05459 -0.418506 0)
(5.05467 -0.418427 0)
(5.05467 -0.418416 0)
(5.05463 -0.418419 0)
(5.05457 -0.418355 0)
(5.0545 -0.418377 0)
(5.05449 -0.41841 0)
(5.05448 -0.418485 0)
(5.05447 -0.418598 0)
(5.05448 -0.418594 0)
(5.05457 -0.418582 0)
(5.05472 -0.418625 0)
(5.05502 -0.418586 0)
(5.05522 -0.418497 0)
(5.05548 -0.418409 0)
(5.05575 -0.418225 0)
(5.05581 -0.418085 0)
(5.05582 -0.41811 0)
(5.0559 -0.417926 0)
(5.05596 -0.41768 0)
(5.05595 -0.417659 0)
(5.0561 -0.417133 0)
(5.05622 -0.416745 0)
(5.05623 -0.416596 0)
(5.05672 -0.415396 0)
(5.05714 -0.414243 0)
(5.05717 -0.414051 0)
(5.05719 -0.413981 0)
(5.0571 -0.413769 0)
(5.05673 -0.412699 0)
(5.05607 -0.409636 0)
(5.05452 -0.400859 0)
(5.05236 -0.388737 0)
(5.04736 -0.35364 0)
(5.04425 -0.330542 0)
(5.03409 -0.252638 0)
(5.03319 -0.230608 0)
(5.02244 -0.144176 0)
(5.0259 -0.135975 0)
(5.01801 -0.0882996 0)
(5.02759 -0.0758793 0)
(5.00993 -0.0435684 0)
(5.00344 -0.0283486 0)
(5.00137 -0.0194345 0)
(4.99418 -0.00742555 0)
(4.98971 0.00225657 0)
(4.98891 0.00198458 0)
(4.98824 -0.0016334 0)
(4.98639 -0.00767272 0)
(4.98591 -0.00758061 0)
(4.98613 -0.00702165 0)
(4.98656 -0.00427447 0)
(4.98738 0.000275667 0)
(4.98796 0.000656955 0)
(4.9879 -0.000399757 0)
(4.98735 -0.0024431 0)
(4.98734 -0.00551516 0)
(4.98745 -0.00519051 0)
(4.98764 -0.00372693 0)
(4.9878 -0.00277539 0)
(4.98774 -0.00261634 0)
(4.98758 -0.00281204 0)
(4.98728 -0.00294184 0)
(4.98677 -0.00219374 0)
(4.98685 -0.00202924 0)
(4.98705 -0.00200426 0)
(4.98706 -0.00211632 0)
(4.98706 -0.00180446 0)
(4.98696 -0.00151993 0)
(4.98681 -0.00128831 0)
(5.05482 -0.417429 0)
(5.05452 -0.417891 0)
(5.05446 -0.418019 0)
(5.05438 -0.418053 0)
(5.05446 -0.418335 0)
(5.05463 -0.418613 0)
(5.05473 -0.41889 0)
(5.05489 -0.419083 0)
(5.05501 -0.418988 0)
(5.05504 -0.41852 0)
(5.05502 -0.418343 0)
(5.05483 -0.418651 0)
(5.05485 -0.418883 0)
(5.05496 -0.418996 0)
(5.05516 -0.419114 0)
(5.0553 -0.419309 0)
(5.05533 -0.419527 0)
(5.05544 -0.419679 0)
(5.05557 -0.419626 0)
(5.05569 -0.419517 0)
(5.05556 -0.419851 0)
(5.05562 -0.420217 0)
(5.05578 -0.420321 0)
(5.05583 -0.420203 0)
(5.05576 -0.41994 0)
(5.05575 -0.419761 0)
(5.05576 -0.419744 0)
(5.05583 -0.419741 0)
(5.05601 -0.41955 0)
(5.0561 -0.419405 0)
(5.0561 -0.419366 0)
(5.05605 -0.419291 0)
(5.05593 -0.419228 0)
(5.05579 -0.419218 0)
(5.05565 -0.419202 0)
(5.05556 -0.419125 0)
(5.05545 -0.418986 0)
(5.05537 -0.419018 0)
(5.0553 -0.419092 0)
(5.05526 -0.419049 0)
(5.05529 -0.418964 0)
(5.05542 -0.418895 0)
(5.05555 -0.418899 0)
(5.05579 -0.41877 0)
(5.05638 -0.418249 0)
(5.05656 -0.418083 0)
(5.0567 -0.41787 0)
(5.05674 -0.417778 0)
(5.05688 -0.417494 0)
(5.05695 -0.41726 0)
(5.05697 -0.416967 0)
(5.05696 -0.416747 0)
(5.05694 -0.416783 0)
(5.05694 -0.416751 0)
(5.05723 -0.415882 0)
(5.05741 -0.414903 0)
(5.05743 -0.414565 0)
(5.05746 -0.414455 0)
(5.05746 -0.414408 0)
(5.05725 -0.414857 0)
(5.05724 -0.415147 0)
(5.05727 -0.415071 0)
(5.05717 -0.414225 0)
(5.05686 -0.412301 0)
(5.05607 -0.407138 0)
(5.05369 -0.395192 0)
(5.0507 -0.376908 0)
(5.04149 -0.324129 0)
(5.04047 -0.293784 0)
(5.02358 -0.166817 0)
(5.03594 -0.15567 0)
(5.01591 -0.0349598 0)
(5.01667 -0.0319599 0)
(5.00498 0.0205285 0)
(4.99941 0.0394787 0)
(4.99329 0.0243127 0)
(4.99106 0.00399319 0)
(4.99023 -0.00991237 0)
(4.98804 -0.0116318 0)
(4.98844 -0.0103852 0)
(4.98963 -0.0050538 0)
(4.99124 0.00427439 0)
(4.99092 0.00412475 0)
(4.99012 0.00173711 0)
(4.98895 -0.00208774 0)
(4.98884 -0.0049495 0)
(4.98896 -0.00498238 0)
(4.9896 -0.00358192 0)
(4.99007 -0.000841893 0)
(4.98967 -0.00180034 0)
(4.98923 -0.00252845 0)
(4.98879 -0.00356708 0)
(4.98856 -0.00300873 0)
(4.98848 -0.00233837 0)
(4.98834 -0.0018707 0)
(4.98814 -0.00193984 0)
(4.9881 -0.00209175 0)
(4.98816 -0.00184202 0)
(4.98814 -0.0016495 0)
(4.98797 -0.00158795 0)
(5.05545 -0.417653 0)
(5.05547 -0.417673 0)
(5.05547 -0.417661 0)
(5.05543 -0.417627 0)
(5.05551 -0.417859 0)
(5.05565 -0.418152 0)
(5.05566 -0.418191 0)
(5.05566 -0.41813 0)
(5.05562 -0.418034 0)
(5.05549 -0.418206 0)
(5.05547 -0.418465 0)
(5.05548 -0.418489 0)
(5.05553 -0.418647 0)
(5.05563 -0.418954 0)
(5.05569 -0.419068 0)
(5.05577 -0.419083 0)
(5.05583 -0.419067 0)
(5.05588 -0.419136 0)
(5.05594 -0.419212 0)
(5.05603 -0.41919 0)
(5.05613 -0.419273 0)
(5.05626 -0.419461 0)
(5.05639 -0.419524 0)
(5.05642 -0.41938 0)
(5.05642 -0.419284 0)
(5.05643 -0.419288 0)
(5.05648 -0.419244 0)
(5.05664 -0.419065 0)
(5.05685 -0.418973 0)
(5.05696 -0.419059 0)
(5.05698 -0.419111 0)
(5.05697 -0.418949 0)
(5.05689 -0.418716 0)
(5.05671 -0.418641 0)
(5.05649 -0.418691 0)
(5.05639 -0.41865 0)
(5.05628 -0.418532 0)
(5.05616 -0.418383 0)
(5.05602 -0.418395 0)
(5.05584 -0.418346 0)
(5.05578 -0.417964 0)
(5.05579 -0.417827 0)
(5.05579 -0.417951 0)
(5.05611 -0.41741 0)
(5.0569 -0.416575 0)
(5.05704 -0.41644 0)
(5.05725 -0.416409 0)
(5.05736 -0.416357 0)
(5.05749 -0.416187 0)
(5.05764 -0.416035 0)
(5.05758 -0.416007 0)
(5.05745 -0.416056 0)
(5.05737 -0.416199 0)
(5.05724 -0.416361 0)
(5.05735 -0.415884 0)
(5.05742 -0.415174 0)
(5.05737 -0.414829 0)
(5.05736 -0.414746 0)
(5.05735 -0.414644 0)
(5.05723 -0.414858 0)
(5.05717 -0.415222 0)
(5.05723 -0.415531 0)
(5.05734 -0.415594 0)
(5.05737 -0.415475 0)
(5.05723 -0.414896 0)
(5.05711 -0.414283 0)
(5.05668 -0.413364 0)
(5.05566 -0.410588 0)
(5.05397 -0.402131 0)
(5.04994 -0.38026 0)
(5.04654 -0.348584 0)
(5.03613 -0.268686 0)
(5.03748 -0.245926 0)
(5.02227 -0.128688 0)
(5.03279 -0.141707 0)
(5.01732 -0.0798321 0)
(5.01629 -0.0613173 0)
(5.01058 -0.0379637 0)
(5.00199 -0.0194931 0)
(4.99717 -0.00969385 0)
(4.99507 0.0028279 0)
(4.99376 0.00220865 0)
(4.99084 -0.00106879 0)
(4.98937 -0.00554056 0)
(4.9897 -0.00628867 0)
(4.98987 -0.00591415 0)
(4.99034 -0.00290282 0)
(4.99039 -0.0013427 0)
(4.99027 -0.00122558 0)
(4.98975 -0.00228806 0)
(4.98935 -0.00411856 0)
(4.98932 -0.0038547 0)
(4.98942 -0.00295253 0)
(4.98937 -0.00209937 0)
(4.98915 -0.00206237 0)
(4.98882 -0.00209302 0)
(4.9888 -0.00201734 0)
(4.98875 -0.00178847 0)
(4.98867 -0.00175661 0)
(4.98845 -0.00189791 0)
(5.05535 -0.418803 0)
(5.05534 -0.41883 0)
(5.05534 -0.418821 0)
(5.05535 -0.418846 0)
(5.05537 -0.418988 0)
(5.05532 -0.4191 0)
(5.05529 -0.419018 0)
(5.05529 -0.418869 0)
(5.05529 -0.418832 0)
(5.05522 -0.41889 0)
(5.0551 -0.418937 0)
(5.05507 -0.418917 0)
(5.05508 -0.41901 0)
(5.05519 -0.419279 0)
(5.05521 -0.419445 0)
(5.05525 -0.419529 0)
(5.0553 -0.419633 0)
(5.05535 -0.41971 0)
(5.05547 -0.419745 0)
(5.05561 -0.419746 0)
(5.05576 -0.419804 0)
(5.05593 -0.419872 0)
(5.05604 -0.419794 0)
(5.05614 -0.419709 0)
(5.05628 -0.419632 0)
(5.05636 -0.419602 0)
(5.0564 -0.419626 0)
(5.05659 -0.419393 0)
(5.05701 -0.419078 0)
(5.05724 -0.418921 0)
(5.05734 -0.418763 0)
(5.05732 -0.418649 0)
(5.0573 -0.418428 0)
(5.05725 -0.41821 0)
(5.05714 -0.418143 0)
(5.05702 -0.417924 0)
(5.05697 -0.417327 0)
(5.05684 -0.417164 0)
(5.05652 -0.417274 0)
(5.05619 -0.417084 0)
(5.05595 -0.417 0)
(5.05581 -0.41723 0)
(5.05576 -0.417305 0)
(5.05626 -0.416447 0)
(5.05664 -0.415913 0)
(5.05676 -0.41584 0)
(5.05699 -0.415904 0)
(5.05725 -0.415755 0)
(5.05741 -0.415344 0)
(5.05762 -0.415136 0)
(5.05766 -0.415183 0)
(5.05746 -0.415487 0)
(5.05741 -0.415638 0)
(5.05732 -0.415909 0)
(5.05731 -0.415967 0)
(5.05732 -0.415629 0)
(5.05726 -0.415297 0)
(5.05723 -0.41512 0)
(5.05723 -0.414976 0)
(5.05719 -0.414944 0)
(5.05714 -0.415162 0)
(5.05712 -0.415491 0)
(5.05711 -0.415929 0)
(5.05716 -0.416009 0)
(5.05718 -0.415795 0)
(5.05714 -0.415602 0)
(5.05687 -0.415376 0)
(5.05664 -0.415399 0)
(5.05636 -0.415749 0)
(5.05611 -0.415502 0)
(5.05573 -0.412473 0)
(5.05393 -0.402099 0)
(5.05102 -0.38012 0)
(5.04088 -0.322257 0)
(5.04203 -0.279979 0)
(5.02216 -0.130946 0)
(5.03548 -0.125572 0)
(5.014 -0.00449233 0)
(5.01164 -0.0030475 0)
(5.0053 0.0435324 0)
(4.99417 0.0197618 0)
(4.9904 -0.000200695 0)
(4.98994 -0.0059165 0)
(4.99039 -0.0078863 0)
(4.99065 -0.00639584 0)
(4.99071 -0.00215459 0)
(4.99014 0.00322733 0)
(4.98956 0.00201905 0)
(4.98884 -0.0010713 0)
(4.98852 -0.00405803 0)
(4.98864 -0.00399373 0)
(4.98901 -0.00263208 0)
(4.98941 -0.00212396 0)
(4.98924 -0.0022933 0)
(4.98904 -0.00278601 0)
(4.9888 -0.00245795 0)
(4.989 -0.00203422 0)
(4.98863 -0.00156121 0)
(4.98852 -0.00199157 0)
(4.98832 -0.00221738 0)
(5.0555 -0.417676 0)
(5.05546 -0.417602 0)
(5.05542 -0.417533 0)
(5.05538 -0.417433 0)
(5.05533 -0.417406 0)
(5.05528 -0.417528 0)
(5.0552 -0.417612 0)
(5.05512 -0.417599 0)
(5.05496 -0.417526 0)
(5.05486 -0.417492 0)
(5.05478 -0.417554 0)
(5.05467 -0.417891 0)
(5.05467 -0.418031 0)
(5.05478 -0.418249 0)
(5.05491 -0.418431 0)
(5.05494 -0.418447 0)
(5.05498 -0.41845 0)
(5.05509 -0.418502 0)
(5.05521 -0.418574 0)
(5.05528 -0.418579 0)
(5.05543 -0.418579 0)
(5.0556 -0.41854 0)
(5.05571 -0.418484 0)
(5.05586 -0.418374 0)
(5.05601 -0.418283 0)
(5.05625 -0.418224 0)
(5.05642 -0.418113 0)
(5.05659 -0.418029 0)
(5.05696 -0.417743 0)
(5.05725 -0.417714 0)
(5.05753 -0.417602 0)
(5.05787 -0.417287 0)
(5.05796 -0.416905 0)
(5.0577 -0.416694 0)
(5.0575 -0.416728 0)
(5.0573 -0.416469 0)
(5.05723 -0.415676 0)
(5.05706 -0.415386 0)
(5.05673 -0.415693 0)
(5.05635 -0.41591 0)
(5.05606 -0.416158 0)
(5.05586 -0.416494 0)
(5.05592 -0.416265 0)
(5.0564 -0.415416 0)
(5.05655 -0.415243 0)
(5.0566 -0.415289 0)
(5.0568 -0.415425 0)
(5.05706 -0.415264 0)
(5.05713 -0.414751 0)
(5.05734 -0.414376 0)
(5.05746 -0.414313 0)
(5.05738 -0.414527 0)
(5.0575 -0.414807 0)
(5.05743 -0.415226 0)
(5.0574 -0.415771 0)
(5.05706 -0.416141 0)
(5.05695 -0.416125 0)
(5.0569 -0.415837 0)
(5.05702 -0.41528 0)
(5.05714 -0.414919 0)
(5.05717 -0.414901 0)
(5.05715 -0.415103 0)
(5.05699 -0.415751 0)
(5.0569 -0.416365 0)
(5.05696 -0.416395 0)
(5.05699 -0.416261 0)
(5.05685 -0.416027 0)
(5.0565 -0.416098 0)
(5.05634 -0.416245 0)
(5.0562 -0.416556 0)
(5.05643 -0.416813 0)
(5.05659 -0.416302 0)
(5.05651 -0.414967 0)
(5.05573 -0.411178 0)
(5.05363 -0.398039 0)
(5.04869 -0.370145 0)
(5.04288 -0.3163 0)
(5.03237 -0.230484 0)
(5.02891 -0.187313 0)
(5.02072 -0.104643 0)
(5.03418 -0.0982156 0)
(5.00898 -0.0436001 0)
(5.0017 -0.0285206 0)
(5.00036 -0.0162288 0)
(4.99147 -0.00552974 0)
(4.98898 0.00348322 0)
(4.98711 0.00121434 0)
(4.98617 -0.00359951 0)
(4.98696 -0.00538328 0)
(4.9874 -0.00479258 0)
(4.98801 -0.00285817 0)
(4.98874 -0.00111944 0)
(4.98855 -0.00180626 0)
(4.98807 -0.00342715 0)
(4.98838 -0.00317959 0)
(4.98836 -0.00255019 0)
(4.98828 -0.00152626 0)
(4.98812 -0.0017002 0)
(4.98789 -0.0025737 0)
(4.98783 -0.00242874 0)
(5.05592 -0.416162 0)
(5.05583 -0.416019 0)
(5.05572 -0.416007 0)
(5.05563 -0.415875 0)