/*--------------------------------*- C++ -*----------------------------------*\
  =========                 |
  \\      /  F ield         | OpenFOAM: The Open Source CFD Toolbox
   \\    /   O peration     | Website:  https://openfoam.org
    \\  /    A nd           | Version:  7
     \\/     M anipulation  |
\*---------------------------------------------------------------------------*/
FoamFile
{
    version     2.0;
    format      ascii;
    class       volScalarField;
    location    "12";
    object      rho;
}
// * * * * * * * * * * * * * * * * * * * * * * * * * * * * * * * * * * * * * //

dimensions      [1 -3 0 0 0 0 0];

internalField   nonuniform List<scalar> 
90000
(
0.354657
0.411825
0.457356
0.496352
0.513551
0.527735
0.544051
0.5518
0.555672
0.559398
0.562053
0.561745
0.561995
0.561798
0.562085
0.562701
0.565367
0.568632
0.571986
0.576595
0.582235
0.589252
0.59743
0.606839
0.617202
0.628786
0.64121
0.655021
0.668846
0.682946
0.696545
0.709706
0.722431
0.734612
0.745541
0.755258
0.764313
0.773133
0.781033
0.787708
0.79301
0.796577
0.799519
0.801775
0.804365
0.8048
0.803726
0.801356
0.79739
0.793398
0.789494
0.789843
0.791977
0.794313
0.798842
0.805068
0.811181
0.815863
0.817648
0.818177
0.817608
0.816349
0.812567
0.80886
0.807059
0.80707
0.808592
0.813523
0.820683
0.828137
0.8325
0.834979
0.835174
0.836193
0.839645
0.846289
0.856053
0.866411
0.872107
0.877474
0.883056
0.890859
0.901326
0.913322
0.915564
0.923392
0.928992
0.939759
0.943309
0.950305
0.954732
0.958339
0.966577
0.969948
0.976624
0.98265
0.984899
0.989811
0.992676
0.998322
0.351684
0.356493
0.361564
0.366951
0.373458
0.37984
0.38668
0.39334
0.399524
0.404715
0.409073
0.411979
0.414588
0.416899
0.419613
0.422977
0.42704
0.431752
0.437237
0.443768
0.451156
0.45922
0.468272
0.477918
0.488161
0.499011
0.510607
0.522978
0.535767
0.548879
0.562352
0.575759
0.589273
0.602584
0.614088
0.625049
0.636129
0.647323
0.658674
0.670486
0.682432
0.694033
0.704971
0.71598
0.72707
0.738016
0.748372
0.757855
0.766404
0.773209
0.779354
0.786039
0.794528
0.803101
0.809582
0.814913
0.818939
0.822495
0.822188
0.820892
0.817521
0.812921
0.807497
0.807215
0.807837
0.811361
0.817568
0.825018
0.832663
0.8365
0.836169
0.835525
0.835827
0.838281
0.844816
0.85491
0.864705
0.870524
0.874842
0.878562
0.885639
0.895368
0.908638
0.914352
0.918007
0.925189
0.932869
0.941895
0.944415
0.951514
0.953894
0.959662
0.967113
0.970726
0.978381
0.983114
0.986464
0.990528
0.992341
0.997661
0.349022
0.348454
0.351167
0.353109
0.354862
0.357252
0.359457
0.361737
0.363861
0.366059
0.369
0.372537
0.375613
0.378562
0.38108
0.383455
0.385551
0.387322
0.388756
0.389939
0.391267
0.392924
0.395353
0.398491
0.402615
0.407535
0.413422
0.420341
0.428512
0.438055
0.448794
0.460083
0.471622
0.483549
0.495005
0.506693
0.519117
0.532275
0.545907
0.560444
0.576012
0.592751
0.610535
0.629144
0.648597
0.668762
0.689333
0.709537
0.729076
0.747146
0.76328
0.776543
0.787199
0.796789
0.80263
0.807096
0.808922
0.808486
0.806323
0.804192
0.801367
0.801539
0.803941
0.808408
0.81653
0.82514
0.832146
0.83614
0.838612
0.838489
0.837435
0.837145
0.839785
0.846492
0.854872
0.863512
0.86942
0.873203
0.876627
0.881163
0.891329
0.901965
0.912237
0.913651
0.919526
0.926951
0.936656
0.942335
0.945519
0.952232
0.955268
0.961143
0.966538
0.971007
0.979389
0.983397
0.987431
0.990715
0.992032
0.997059
0.323067
0.327207
0.344467
0.352656
0.354997
0.356721
0.358366
0.360403
0.361168
0.361772
0.362568
0.362968
0.363703
0.36461
0.365459
0.366358
0.3673
0.368495
0.369919
0.371437
0.37305
0.374747
0.376539
0.378257
0.3801
0.381963
0.383902
0.385661
0.387143
0.388777
0.390961
0.394
0.397975
0.402973
0.408647
0.415217
0.423358
0.433343
0.44416
0.455483
0.467494
0.479932
0.493937
0.509203
0.524829
0.541258
0.558702
0.577733
0.597793
0.618931
0.640116
0.660289
0.678411
0.695965
0.712272
0.727455
0.741106
0.754294
0.766237
0.777965
0.788405
0.798769
0.809244
0.818135
0.825877
0.83241
0.838275
0.840835
0.840168
0.837249
0.837849
0.841672
0.850334
0.859097
0.866925
0.870097
0.872248
0.874759
0.879214
0.888049
0.898036
0.90891
0.912512
0.914107
0.92169
0.929146
0.938674
0.941834
0.946547
0.951829
0.95555
0.961761
0.964996
0.970678
0.979105
0.982966
0.98775
0.990286
0.991813
0.996926
0.103628
0.122289
0.21787
0.284528
0.304108
0.323872
0.33454
0.350294
0.356871
0.358998
0.35993
0.361164
0.362927
0.363569
0.363772
0.364377
0.364924
0.365351
0.365419
0.365439
0.365513
0.365663
0.366115
0.366666
0.367271
0.367993
0.369007
0.370382
0.37219
0.374038
0.375986
0.377879
0.379861
0.381993
0.384251
0.38641
0.387894
0.389657
0.392508
0.396691
0.402053
0.408446
0.415845
0.425796
0.437499
0.450103
0.46356
0.477766
0.494449
0.512442
0.531007
0.550376
0.571166
0.593687
0.617846
0.643079
0.668765
0.694306
0.718917
0.742741
0.764095
0.782861
0.796713
0.807091
0.814532
0.818542
0.822082
0.824722
0.827821
0.831591
0.839887
0.851736
0.862366
0.867041
0.871901
0.872419
0.874036
0.877868
0.885555
0.898217
0.905808
0.911765
0.912617
0.916066
0.924396
0.932313
0.939101
0.941368
0.947601
0.953489
0.956882
0.96158
0.963599
0.970352
0.977217
0.981163
0.986711
0.989437
0.991761
0.997214
0.0740205
0.0740304
0.0740434
0.0773097
0.0871463
0.106197
0.133713
0.216387
0.274028
0.298777
0.321229
0.335142
0.349269
0.356664
0.358615
0.359854
0.360961
0.362215
0.362388
0.363031
0.364385
0.365745
0.366649
0.367126
0.367615
0.368136
0.368589
0.3688
0.368815
0.368943
0.369227
0.369757
0.370212
0.370749
0.371572
0.373053
0.375125
0.376966
0.378766
0.380795
0.383068
0.385695
0.388601
0.390997
0.393878
0.398185
0.40396
0.410748
0.418991
0.430529
0.443384
0.457197
0.471703
0.488862
0.507306
0.526836
0.547867
0.571134
0.596084
0.622124
0.648997
0.674813
0.698039
0.720586
0.74039
0.759622
0.777891
0.796591
0.813292
0.830528
0.846337
0.858251
0.866025
0.868854
0.871264
0.871126
0.874353
0.883263
0.89572
0.905699
0.910286
0.912494
0.913408
0.92024
0.928375
0.935344
0.938186
0.940557
0.949552
0.954188
0.957192
0.960901
0.963044
0.970685
0.974838
0.979196
0.985245
0.988691
0.991836
0.99766
0.0744045
0.0744606
0.0745314
0.0745651
0.0745938
0.0746255
0.074663
0.0746964
0.0789637
0.0909322
0.113498
0.145144
0.212741
0.271903
0.300112
0.323297
0.339059
0.351695
0.360462
0.362633
0.362866
0.363785
0.364684
0.364624
0.364993
0.366026
0.367013
0.367709
0.368468
0.369368
0.370133
0.370678
0.37107
0.371399
0.371618
0.371644
0.371677
0.371967
0.372718
0.373353
0.374136
0.37509
0.37668
0.379223
0.381608
0.384038
0.386914
0.390146
0.393805
0.396517
0.399999
0.405451
0.41247
0.421294
0.433724
0.44769
0.463058
0.479745
0.500629
0.521655
0.544109
0.569916
0.597268
0.62669
0.657664
0.688393
0.719171
0.74881
0.775688
0.798727
0.812504
0.823431
0.830885
0.839619
0.849297
0.860561
0.8741
0.889537
0.90182
0.908401
0.911163
0.909857
0.913325
0.926325
0.932214
0.93642
0.936489
0.942133
0.952208
0.954351
0.957426
0.960025
0.965613
0.971838
0.973489
0.978428
0.98387
0.987131
0.990774
0.997688
0.0750416
0.075091
0.0751441
0.0751992
0.0752613
0.0753274
0.0754016
0.0754944
0.075544
0.0755898
0.0756535
0.0757049
0.0761256
0.0829527
0.0990732
0.126075
0.163067
0.217802
0.280372
0.312983
0.333933
0.348687
0.358821
0.366261
0.367243
0.367485
0.368687
0.368886
0.368742
0.369306
0.369978
0.370317
0.370691
0.37122
0.37165
0.372092
0.372687
0.373415
0.37402
0.374585
0.375164
0.375758
0.376286
0.376715
0.377771
0.378911
0.380022
0.381255
0.38323
0.386155
0.388747
0.391637
0.395038
0.399007
0.402416
0.407148
0.414026
0.42214
0.432283
0.446525
0.461611
0.478528
0.499161
0.520303
0.543429
0.570306
0.599078
0.62995
0.66162
0.69173
0.719346
0.744692
0.769297
0.79449
0.819896
0.847479
0.870949
0.885333
0.891226
0.890567
0.895168
0.903579
0.918622
0.930233
0.933307
0.931875
0.934867
0.946699
0.953508
0.954075
0.957669
0.962831
0.969216
0.972272
0.973802
0.978615
0.983472
0.987529
0.990626
0.997056
0.0758099
0.0758749
0.0759439
0.0760182
0.0760984
0.0761835
0.0762749
0.0763712
0.0764735
0.0765895
0.0767118
0.0768424
0.0769876
0.0770921
0.0771777
0.0772978
0.077375
0.0789352
0.0898632
0.113387
0.148095
0.191962
0.243581
0.304965
0.336552
0.355371
0.365179
0.371391
0.37337
0.373066
0.373793
0.373999
0.373455
0.374054
0.374579
0.375197
0.37551
0.375666
0.375769
0.375795
0.375965
0.376391
0.377098
0.378101
0.379321
0.380305
0.381236
0.382021
0.382879
0.383519
0.384932
0.386191
0.387545
0.389619
0.393093
0.395794
0.399344
0.403378
0.408306
0.412203
0.418654
0.426886
0.437436
0.452515
0.468802
0.487398
0.51002
0.533364
0.559398
0.58818
0.617236
0.646894
0.676753
0.70829
0.739102
0.769321
0.79568
0.816116
0.836369
0.856954
0.877805
0.900047
0.920687
0.919674
0.917442
0.923212
0.936517
0.950834
0.949986
0.950785
0.957945
0.964471
0.970183
0.97199
0.975356
0.981173
0.984412
0.987368
0.989846
0.995018
0.0767197
0.0767926
0.0768697
0.0769502
0.0770368
0.0771279
0.0772258
0.0773266
0.0774338
0.0775465
0.0776634
0.0777824
0.0779056
0.078038
0.0781768
0.0783242
0.0784665
0.0786145
0.0786848
0.0787576
0.078836
0.0789393
0.0840483
0.103967
0.140246
0.190192
0.244259
0.299684
0.340693
0.363692
0.374625
0.380766
0.381857
0.380608
0.380928
0.380148
0.37934
0.379486
0.38009
0.380808
0.381668
0.382153
0.38242
0.382248
0.381979
0.382016
0.382387
0.383017
0.383915
0.385348
0.386622
0.387696
0.388584
0.389356
0.390026
0.391661
0.393355
0.395285
0.398281
0.402331
0.405484
0.409829
0.415344
0.420025
0.428176
0.438322
0.449867
0.46519
0.481431
0.499499
0.520164
0.541189
0.566408
0.595528
0.628064
0.663255
0.699026
0.73436
0.770595
0.804174
0.831542
0.851937
0.859781
0.87142
0.889472
0.913452
0.936481
0.936422
0.935922
0.944206
0.957187
0.963318
0.965957
0.969922
0.976312
0.981914
0.984226
0.984572
0.985419
0.989419
0.0776757
0.0777539
0.0778343
0.0779151
0.0780006
0.0780899
0.0781866
0.0782837
0.0783859
0.0784898
0.0785991
0.0787038
0.0788217
0.0789365
0.0790642
0.0791848
0.079311
0.0794159
0.0795298
0.0796408
0.0797525
0.079877
0.0799463
0.0799982
0.0800449
0.0800804
0.0847612
0.103302
0.141653
0.197859
0.259097
0.313355
0.351742
0.375882
0.387058
0.389965
0.390082
0.388727
0.389128
0.387765
0.387719
0.387284
0.388018
0.388473
0.388662
0.388633
0.388809
0.388824
0.389082
0.389157
0.389016
0.389304
0.389791
0.390384
0.391766
0.393098
0.394663
0.396274
0.398274
0.400232
0.402791
0.404965
0.407874
0.412005
0.415567
0.421245
0.42789
0.434561
0.443624
0.453486
0.464637
0.477221
0.491464
0.510306
0.534643
0.56411
0.593967
0.623152
0.653294
0.685674
0.71955
0.748694
0.778076
0.808292
0.83922
0.865656
0.880159
0.894931
0.913856
0.932447
0.938306
0.941409
0.951499
0.962299
0.971936
0.97732
0.976595
0.977687
0.979341
0.982403
0.0786515
0.0787164
0.0787771
0.0788433
0.0789185
0.0790038
0.0790916
0.0791824
0.0792703
0.0793608
0.0794487
0.0795441
0.0796404
0.0797402
0.0798429
0.0799412
0.0800357
0.0801303
0.0802254
0.0803083
0.0803985
0.0804815
0.0805757
0.0806717
0.0807687
0.0808715
0.0809207
0.0809829
0.0810923
0.0811961
0.0878103
0.110759
0.156208
0.219996
0.288352
0.339146
0.375478
0.391049
0.398337
0.398516
0.397288
0.397204
0.396929
0.396152
0.395727
0.395908
0.396365
0.396504
0.396284
0.395839
0.395439
0.39578
0.396426
0.39669
0.396521
0.396132
0.396296
0.39741
0.399338
0.402161
0.404924
0.406751
0.408691
0.410507
0.413038
0.415635
0.419291
0.424017
0.428551
0.434908
0.441697
0.450382
0.459911
0.468421
0.477937
0.492061
0.513117
0.538402
0.561612
0.585449
0.611351
0.64153
0.673274
0.703124
0.734634
0.764254
0.802247
0.83652
0.863767
0.877352
0.889294
0.910724
0.930706
0.942851
0.951991
0.959368
0.965662
0.973275
0.976431
0.979021
0.0796165
0.0796446
0.079675
0.0797199
0.0797899
0.0798653
0.0799389
0.080015
0.0800901
0.0801643
0.0802369
0.0803123
0.0803897
0.0804733
0.0805565
0.0806385
0.0807207
0.0808085
0.0808907
0.0809733
0.0810635
0.0811613
0.0812657
0.0813807
0.0814979
0.0816187
0.0817676
0.0819411
0.0821177
0.0823579
0.0824973
0.0826557
0.0827598
0.0836247
0.0957894
0.129303
0.190349
0.264343
0.332724
0.371737
0.397661
0.405677
0.408624
0.407096
0.40512
0.403847
0.40372
0.402951
0.403743
0.404573
0.404643
0.40508
0.404821
0.40414
0.403788
0.40359
0.403897
0.404615
0.405435
0.406532
0.40778
0.409243
0.410976
0.413088
0.415191
0.4173
0.420084
0.423262
0.426503
0.429512
0.433545
0.437591
0.443893
0.452328
0.459338
0.461775
0.465347
0.477304
0.498008
0.520655
0.537487
0.551799
0.570118
0.596533
0.629639
0.667563
0.703958
0.732766
0.756978
0.784856
0.817823
0.848965
0.872024
0.896137
0.918382
0.935815
0.950773
0.962696
0.968198
0.976118
0.0804046
0.0804073
0.0804212
0.0804572
0.0805216
0.0805948
0.0806673
0.0807378
0.0808068
0.0808769
0.0809458
0.0810125
0.0810831
0.0811562
0.0812359
0.0813186
0.0814051
0.0814998
0.0815975
0.0816994
0.0818186
0.0819482
0.0820846
0.082229
0.0823805
0.0825394
0.0827212
0.0828957
0.0830575
0.0832191
0.0833857
0.0835411
0.083679
0.0838414
0.0839267
0.0840089
0.0840554
0.0902027
0.117472
0.172794
0.252643
0.327272
0.380539
0.405598
0.413486
0.413481
0.412349
0.411225
0.411131
0.411793
0.411662
0.413244
0.413803
0.414239
0.414555
0.413567
0.413052
0.412948
0.412841
0.413926
0.415292
0.416953
0.418255
0.418577
0.418969
0.419795
0.421844
0.425405
0.428705
0.431262
0.433478
0.435639
0.437709
0.442035
0.449648
0.456746
0.46129
0.459939
0.461985
0.474507
0.492908
0.509283
0.519072
0.528123
0.544697
0.570762
0.60189
0.629222
0.65484
0.680828
0.70958
0.743088
0.780676
0.817202
0.845157
0.86766
0.886818
0.901638
0.916613
0.945172
0.081166
0.0811673
0.081174
0.0811939
0.0812395
0.0813113
0.0813937
0.0814717
0.0815475
0.0816294
0.0817074
0.0817873
0.0818717
0.0819595
0.082056
0.0821595
0.0822634
0.0823759
0.0824968
0.0826247
0.0827619
0.0829178
0.0830794
0.0832313
0.0833756
0.0835401
0.0837163
0.0838637
0.0839852
0.0840974
0.0842106
0.0842945
0.0843799
0.0844497
0.0845311
0.0846211
0.0847438
0.0848185
0.0849299
0.0850326
0.0887527
0.112377
0.168196
0.254768
0.335312
0.388795
0.407626
0.419067
0.420285
0.421527
0.420672
0.4208
0.420831
0.421696
0.423648
0.423111
0.423298
0.422628
0.421799
0.423381
0.424686
0.426222
0.426656
0.426584
0.42733
0.428202
0.429516
0.431082
0.432136
0.433771
0.436232
0.437821
0.439362
0.442265
0.444843
0.450659
0.457369
0.461373
0.463136
0.463567
0.468908
0.480072
0.493532
0.502897
0.507697
0.514815
0.529469
0.549019
0.57208
0.593061
0.614548
0.64195
0.674182
0.707965
0.739431
0.767351
0.791801
0.817123
0.839547
0.878436
0.0819619
0.0819664
0.0819725
0.0819862
0.0820248
0.0820994
0.0821989
0.0823025
0.0824072
0.0825137
0.0826174
0.0827242
0.082839
0.0829554
0.0830789
0.0832046
0.0833259
0.0834444
0.0835671
0.0836854
0.0838012
0.0839426
0.0840948
0.0842199
0.0843247
0.0844411
0.0845667
0.084669
0.0847493
0.0848223
0.0848828
0.0849422
0.0849987
0.0850481
0.0851171
0.0852124
0.0853397
0.0855049
0.0857289
0.0860406
0.0862898
0.0866239
0.0868701
0.0904904
0.116432
0.180343
0.266123
0.350234
0.396375
0.422541
0.42891
0.429353
0.429015
0.429098
0.431663
0.429173
0.430793
0.430552
0.430307
0.432765
0.433756
0.43598
0.436674
0.437088
0.438426
0.438345
0.438797
0.439881
0.440779
0.442179
0.443339
0.443555
0.443792
0.445286
0.447434
0.451828
0.457681
0.462472
0.465072
0.466418
0.46743
0.469036
0.475293
0.485085
0.495173
0.50113
0.503022
0.504081
0.513831
0.532468
0.554842
0.576692
0.595064
0.614169
0.636218
0.659814
0.685735
0.714358
0.743273
0.79327
0.0828553
0.0829146
0.082968
0.0830249
0.0831028
0.083207
0.0833241
0.0834413
0.0835558
0.0836641
0.083769
0.0838857
0.0840056
0.0841148
0.0842231
0.0843366
0.0844431
0.0845396
0.0846306
0.0847066
0.0847789
0.0848738
0.0849773
0.0850681
0.0851477
0.0852202
0.0852859
0.0853404
0.0853961
0.085449
0.0855206
0.0856025
0.0856947
0.0858006
0.085923
0.0860788
0.0862787
0.086553
0.0868802
0.0872447
0.0875914
0.0880116
0.0883947
0.0885392
0.088677
0.0887929
0.0941341
0.126195
0.196818
0.291763
0.376643
0.413695
0.434029
0.43759
0.440942
0.43746
0.437497
0.436435
0.436118
0.441157
0.442859
0.446837
0.446389
0.44657
0.448211
0.448471
0.450401
0.452145
0.451592
0.452226
0.452727
0.452462
0.453065
0.453993
0.453789
0.455019
0.458545
0.463532
0.467799
0.469496
0.469325
0.470133
0.472294
0.475494
0.48241
0.492441
0.499585
0.503785
0.50195
0.501451
0.50859
0.524441
0.545112
0.56318
0.575837
0.590349
0.605129
0.623056
0.643448
0.690237
0.0841449
0.0842238
0.0843037
0.0843789
0.0844486
0.0845283
0.0846198
0.0847165
0.0848127
0.0848918
0.0849623
0.0850466
0.0851274
0.0851888
0.0852462
0.0853159
0.0853812
0.0854422
0.0854871
0.0855195
0.0855543
0.0856081
0.0856763
0.0857531
0.0858241
0.0858915
0.0859462
0.0860075
0.0860773
0.0861695
0.0863031
0.0864828
0.0866876
0.0869034
0.0871377
0.0873802
0.0876461
0.0879634
0.0883038
0.0885743
0.0888116
0.0890586
0.0892417
0.089385
0.0895628
0.08981
0.0899671
0.0901507
0.0903032
0.0999308
0.144869
0.228024
0.332411
0.39709
0.435793
0.447182
0.446695
0.443769
0.443586
0.449302
0.450209
0.456157
0.455268
0.456986
0.459247
0.458266
0.461519
0.463283
0.462142
0.464105
0.465305
0.464429
0.465177
0.465703
0.464546
0.463771
0.465984
0.467646
0.470278
0.472
0.474109
0.474524
0.47453
0.47691
0.480376
0.484355
0.491616
0.499907
0.502582
0.504456
0.50559
0.507653
0.514959
0.526853
0.539236
0.550346
0.562664
0.575397
0.587974
0.617757
0.0854468
0.0855004
0.0855582
0.0856117
0.0856597
0.0857095
0.0857581
0.0858043
0.0858512
0.0858909
0.0859277
0.0859713
0.0860136
0.0860418
0.0860657
0.0861005
0.0861282
0.0861646
0.0861999
0.0862169
0.0862473
0.0862933
0.0863681
0.0864614
0.0865674
0.0866845
0.0868154
0.0869684
0.0871477
0.0873442
0.0875712
0.0878517
0.0881497
0.0884299
0.088706
0.088927
0.0891212
0.0893486
0.0895548
0.0897081
0.0898402
0.08994
0.0900566
0.0901969
0.0903832
0.090618
0.0909777
0.0914127
0.0919984
0.0923494
0.0928449
0.0932509
0.113482
0.17556
0.275777
0.37765
0.422317
0.446857
0.452557
0.460243
0.461364
0.466221
0.46274
0.46716
0.470175
0.468661
0.474082
0.475107
0.472682
0.47644
0.476975
0.475347
0.478117
0.480688
0.479124
0.477582
0.477408
0.476296
0.478131
0.482309
0.484487
0.483721
0.482846
0.483223
0.484202
0.487708
0.492795
0.497515
0.502636
0.505035
0.507471
0.509202
0.510869
0.513677
0.519494
0.526401
0.534489
0.54376
0.552744
0.570937
0.0864666
0.0864997
0.0865348
0.0865671
0.0865972
0.0866299
0.0866577
0.0866889
0.0867023
0.0867148
0.0867284
0.0867498
0.0867673
0.086783
0.086803
0.0868317
0.086864
0.0869025
0.0869533
0.0870165
0.0871002
0.0871984
0.0873342
0.0875211
0.0877309
0.087954
0.0882009
0.0884773
0.088778
0.0890389
0.089275
0.0895195
0.0897459
0.0899586
0.0901207
0.0902243
0.0903172
0.0904002
0.0904833
0.0905626
0.0906234
0.0906964
0.0908245
0.0910455
0.0913557
0.0918042
0.092394
0.0930365
0.0937438
0.0944386
0.0951841
0.0958761
0.0961586
0.0963912
0.100585
0.138671
0.221033
0.330073
0.406034
0.447895
0.473691
0.481102
0.474399
0.48211
0.481856
0.478232
0.486878
0.487765
0.485335
0.49156
0.490563
0.486802
0.491323
0.49411
0.492628
0.493392
0.494919
0.491812
0.490627
0.493143
0.494844
0.495652
0.496601
0.495869
0.493807
0.493598
0.495941
0.49808
0.502902
0.507991
0.510861
0.512635
0.514157
0.515107
0.51834
0.522106
0.524833
0.527493
0.531958
0.544041
0.0874336
0.0874414
0.0874466
0.0874529
0.0874653
0.0874847
0.0875069
0.0875395
0.0875546
0.0875623
0.0875761
0.0875986
0.0876371
0.0876939
0.0877649
0.0878338
0.0879065
0.088011
0.088135
0.0882668
0.0884276
0.0886174
0.0888304
0.0891028
0.0893886
0.0896524
0.0899043
0.090161
0.0904053
0.090596
0.0907528
0.0908826
0.0909862
0.0911261
0.0911746
0.0911942
0.0912106
0.0912363
0.0912952
0.0913807
0.0915128
0.0917321
0.092087
0.0925876
0.0932378
0.0939551
0.0946722
0.0953753
0.0960173
0.0966244
0.0970905
0.0974831
0.0977842
0.0981318
0.0983204
0.0983861
0.0984526
0.114809
0.174543
0.27838
0.38898
0.451345
0.478866
0.502647
0.500284
0.498241
0.503786
0.500638
0.500459
0.509616
0.507953
0.503585
0.508651
0.509808
0.506814
0.509943
0.513343
0.510044
0.509229
0.511111
0.510811
0.510606
0.512509
0.51224
0.510654
0.509884
0.508698
0.507089
0.507442
0.510252
0.512434
0.515045
0.517477
0.519196
0.521059
0.523905
0.526307
0.528024
0.531127
0.539081
0.0881515
0.0881495
0.0881551
0.0881752
0.0882123
0.0882763
0.0883633
0.0884449
0.0885252
0.0886179
0.0887194
0.0888357
0.0889621
0.0890915
0.0892355
0.089384
0.0895457
0.089747
0.0899588
0.0901424
0.0903234
0.0905034
0.0906894
0.0909128
0.0911458
0.0913359
0.0914762
0.0915971
0.0916895
0.0917588
0.0918358
0.091888
0.0919194
0.0920018
0.092049
0.0920552
0.0920921
0.0922199
0.0924537
0.0928072
0.0932542
0.0938244
0.094498
0.0952334
0.0960151
0.0966907
0.097274
0.0977519
0.0981309
0.0984784
0.0987073
0.0988974
0.0990298
0.0991775
0.099469
0.0999668
0.100869
0.102033
0.103393
0.107369
0.144271
0.234143
0.350464
0.44061
0.488094
0.519151
0.532242
0.52143
0.528964
0.5329
0.526221
0.524438
0.532425
0.532582
0.529231
0.532252
0.534012
0.53005
0.531181
0.534728
0.532807
0.530329
0.533015
0.533955
0.533139
0.533259
0.531842
0.528324
0.526333
0.5268
0.52729
0.527272
0.528241
0.527569
0.526089
0.52657
0.52852
0.530682
0.534645
0.542142
0.0893494
0.0894697
0.0896024
0.0897574
0.08991
0.0900665
0.0902314
0.0903995
0.0905818
0.0907694
0.0909527
0.0911147
0.0912441
0.0913577
0.0914576
0.0915479
0.0916506
0.0917861
0.0919296
0.0920527
0.0921531
0.0922397
0.0923375
0.0924605
0.0926038
0.0926967
0.0927348
0.0927535
0.0927651
0.0927742
0.092819
0.0928664
0.0929108
0.0929835
0.0931259
0.0933585
0.0937001
0.094185
0.0947851
0.0954718
0.096177
0.0969018
0.0975348
0.0981615
0.0986399
0.0990565
0.0993539
0.0995975
0.0998
0.100008
0.100168
0.100266
0.100541
0.101128
0.102285
0.104063
0.106399
0.108971
0.1116
0.113987
0.114585
0.11517
0.130901
0.190724
0.307156
0.421798
0.489013
0.529511
0.567412
0.574028
0.559105
0.562659
0.563987
0.557228
0.558325
0.564376
0.565023
0.560343
0.560846
0.563257
0.560512
0.557793
0.560532
0.560313
0.558657
0.560709
0.561541
0.558982
0.556117
0.553762
0.551006
0.548946
0.549927
0.551349
0.551026
0.549576
0.548218
0.545776
0.54318
0.546241
0.0921432
0.0922649
0.0923939
0.0925187
0.0926419
0.0927731
0.0928967
0.0930047
0.0930939
0.0931723
0.0932626
0.0933315
0.0933248
0.0932882
0.0932549
0.0932338
0.0932288
0.093244
0.0932954
0.0933737
0.0934639
0.0935569
0.0936474
0.0937521
0.0938538
0.0938811
0.0938797
0.0938961
0.0939512
0.0940281
0.0941426
0.0943081
0.094569
0.0949403
0.0954589
0.0960856
0.0968048
0.0975105
0.0981931
0.0987749
0.0993229
0.0997657
0.10017
0.100476
0.100665
0.100842
0.100962
0.10113
0.101345
0.101654
0.102271
0.103289
0.104849
0.10699
0.109508
0.112043
0.11443
0.116285
0.117975
0.119178
0.120318
0.122154
0.123752
0.125781
0.128434
0.163142
0.249595
0.37804
0.484711
0.540897
0.581973
0.615332
0.614906
0.603154
0.608554
0.607093
0.598887
0.59511
0.601029
0.603243
0.60116
0.598907
0.598887
0.595807
0.592289
0.59451
0.596361
0.595185
0.594175
0.592446
0.58875
0.585076
0.58305
0.581529
0.58101
0.578557
0.576949
0.576064
0.573426
0.570074
0.0945901
0.0945321
0.0945228
0.0945255
0.0945323
0.0945173
0.0944995
0.094485
0.0944492
0.0943951
0.0943774
0.0943616
0.0943085
0.0942991
0.0943152
0.0942854
0.0942683
0.0942964
0.0943909
0.0945451
0.0947286
0.0949235
0.0951247
0.0953329
0.0955213
0.0956983
0.0958791
0.0961056
0.0963684
0.0966873
0.0970689
0.0975325
0.098033
0.0985929
0.099156
0.0997389
0.100253
0.100704
0.10109
0.101426
0.101741
0.102006
0.102274
0.102411
0.102601
0.102831
0.103218
0.103832
0.104819
0.106477
0.108607
0.111221
0.113845
0.116342
0.118568
0.120318
0.121754
0.122865
0.123917
0.125358
0.127305
0.12959
0.132475
0.135507
0.138595
0.140649
0.141791
0.152559
0.203314
0.310036
0.447373
0.544825
0.597181
0.639555
0.680098
0.669391
0.65905
0.655764
0.652739
0.643087
0.644614
0.650366
0.652868
0.648544
0.643171
0.640541
0.638965
0.638474
0.640033
0.640834
0.63745
0.632554
0.628247
0.624924
0.622624
0.619675
0.616719
0.613156
0.609773
0.604912
0.0944977
0.0944482
0.0944363
0.0944402
0.0944526
0.0944525
0.0944592
0.0944995
0.0945015
0.0945005
0.0945309
0.0946269
0.094802
0.0950375
0.0953047
0.0956141
0.0960007
0.0964187
0.0968318
0.0972439
0.0976843
0.0981043
0.0984977
0.098857
0.0992021
0.09951
0.0998139
0.100162
0.100568
0.100964
0.101353
0.101748
0.102082
0.102373
0.102608
0.10284
0.10303
0.103276
0.103532
0.103883
0.104269
0.104763
0.105365
0.106202
0.107371
0.108857
0.110742
0.112802
0.115158
0.11739
0.119577
0.121468
0.123098
0.124606
0.125837
0.126899
0.127973
0.129288
0.130793
0.132928
0.135673
0.138656
0.141923
0.144363
0.147033
0.149413
0.152042
0.154728
0.155629
0.156647
0.177188
0.246803
0.372434
0.514143
0.614774
0.65809
0.700765
0.735517
0.728265
0.711362
0.714027
0.711272
0.703804
0.697942
0.702934
0.702719
0.699986
0.699034
0.696852
0.69327
0.689643
0.68809
0.686746
0.684704
0.681289
0.675588
0.670725
0.665544
0.661873
0.656828
0.0965564
0.0967417
0.096921
0.0971013
0.0973013
0.097494
0.0977091
0.0979507
0.0981728
0.098424
0.0987836
0.0992203
0.0995684
0.0998811
0.100201
0.100575
0.100966
0.101307
0.101623
0.101969
0.102302
0.102568
0.102803
0.103042
0.103305
0.103556
0.103823
0.104089
0.104427
0.104768
0.105098
0.105336
0.105571
0.105824
0.106128
0.106481
0.106985
0.107678
0.108601
0.109791
0.111201
0.112865
0.114673
0.116707
0.118713
0.120762
0.122619
0.12438
0.125892
0.127163
0.128276
0.129207
0.130183
0.131153
0.132351
0.133828
0.135705
0.138023
0.140676
0.143612
0.146332
0.149388
0.151818
0.154033
0.155952
0.157691
0.159917
0.162082
0.164805
0.169571
0.172498
0.174746
0.176247
0.204208
0.28691
0.438202
0.580105
0.679554
0.722944
0.758288
0.803678
0.792096
0.781293
0.7666
0.766149
0.756579
0.758562
0.765524
0.767512
0.76247
0.756885
0.751961
0.748111
0.74704
0.745411
0.741687
0.738284
0.734126
0.728429
0.720913
0.102755
0.102924
0.103092
0.103241
0.103365
0.103492
0.103649
0.10383
0.104025
0.104226
0.104429
0.104624
0.10483
0.105043
0.105257
0.105474
0.105682
0.105906
0.106139
0.106371
0.106587
0.106847
0.107164
0.107538
0.107978
0.108496
0.109076
0.109706
0.110365
0.111057
0.111836
0.112728
0.113757
0.114897
0.116158
0.117475
0.118886
0.120272
0.121704
0.123074
0.124451
0.125772
0.127065
0.128276
0.129444
0.130538
0.131506
0.132467
0.133299
0.134222
0.135078
0.136207
0.137506
0.139296
0.14159
0.144146
0.147062
0.149707
0.152423
0.154681
0.156822
0.158749
0.160608
0.162646
0.164399
0.166382
0.169041
0.172556
0.176947
0.181258
0.183864
0.185923
0.189255
0.191855
0.194562
0.197952
0.232986
0.335197
0.49671
0.650526
0.754271
0.789117
0.828443
0.848695
0.851909
0.832774
0.834394
0.832181
0.825271
0.820588
0.824205
0.823046
0.820071
0.817235
0.812742
0.807074
0.803892
0.801399
0.798683
0.79306
0.109126
0.109367
0.109647
0.109949
0.110258
0.110573
0.110908
0.111276
0.111671
0.112075
0.112494
0.112935
0.113388
0.113866
0.114368
0.114891
0.115421
0.115958
0.116503
0.117079
0.117671
0.118288
0.118959
0.119663
0.120358
0.12108
0.12184
0.122662
0.123516
0.124396
0.12529
0.126235
0.127143
0.128051
0.12892
0.129732
0.130518
0.131288
0.132057
0.132811
0.13358
0.134354
0.135164
0.13595
0.136849
0.137802
0.13894
0.140143
0.14162
0.143272
0.145187
0.147298
0.14959
0.152161
0.154585
0.157206
0.159403
0.16141
0.163207
0.164774
0.166266
0.167819
0.169941
0.172454
0.175285
0.17847
0.181802
0.185349
0.188865
0.191331
0.194101
0.197241
0.200637
0.204293
0.20778
0.211232
0.213378
0.215557
0.221461
0.270818
0.385452
0.566678
0.726604
0.819068
0.857611
0.878084
0.923593
0.916225
0.900519
0.887704
0.883033
0.875621
0.878848
0.883953
0.881677
0.877796
0.872513
0.867118
0.863859
0.860359
0.121778
0.122036
0.122309
0.1226
0.122902
0.123204
0.123515
0.123834
0.124174
0.124536
0.1249
0.125267
0.125654
0.126048
0.126452
0.12686
0.127281
0.127714
0.128165
0.12863
0.129119
0.129621
0.130121
0.13064
0.131176
0.131731
0.132287
0.132849
0.133436
0.134057
0.134696
0.13536
0.136021
0.136698
0.137379
0.138118
0.138882
0.13975
0.140646
0.141661
0.142703
0.143862
0.145066
0.146467
0.148072
0.149968
0.15191
0.15396
0.156054
0.158045
0.15997
0.161727
0.163473
0.165061
0.166686
0.168303
0.169774
0.171364
0.172941
0.174777
0.176715
0.17902
0.182046
0.185448
0.18891
0.192088
0.19497
0.19803
0.20048
0.203191
0.206338
0.209445
0.212519
0.215658
0.218717
0.222084
0.226282
0.229797
0.233122
0.235027
0.236501
0.25213
0.314441
0.467365
0.649608
0.799208
0.893127
0.918013
0.939796
0.961445
0.956582
0.937314
0.935765
0.93138
0.926976
0.930691
0.933221
0.931361
0.925821
0.91917
0.132824
0.1331
0.133385
0.13366
0.133915
0.134167
0.134474
0.134831
0.135182
0.135507
0.135838
0.136197
0.136587
0.136997
0.137408
0.137825
0.138261
0.138724
0.139216
0.139727
0.140254
0.140805
0.141384
0.141987
0.142633
0.14331
0.144028
0.144772
0.145549
0.146375
0.147239
0.148143
0.149077
0.150069
0.151152
0.152272
0.153478
0.154702
0.15594
0.157166
0.15843
0.159672
0.160956
0.162192
0.163596
0.165036
0.166467
0.167866
0.16923
0.170553
0.171854
0.173053
0.174251
0.175522
0.176984
0.178639
0.180723
0.183084
0.185723
0.188636
0.191578
0.19477
0.198013
0.201115
0.203751
0.205953
0.20833
0.210564
0.213107
0.21598
0.218705
0.221866
0.225417
0.228814
0.23187
0.235204
0.238251
0.240538
0.243106
0.245834
0.249376
0.252976
0.254083
0.25515
0.277889
0.369224
0.530493
0.728579
0.880092
0.945019
0.97562
0.977972
0.995862
0.987002
0.972661
0.97282
0.970452
0.970024
0.970751
0.968266
0.147154
0.147424
0.147732
0.148047
0.148373
0.148692
0.149002
0.149345
0.149732
0.150122
0.150506
0.1509
0.151313
0.151752
0.15221
0.152681
0.153164
0.153668
0.154197
0.154748
0.155313
0.155897
0.156501
0.157131
0.157776
0.158439
0.159126
0.159821
0.160546
0.161289
0.162057
0.16288
0.163725
0.164592
0.165515
0.166463
0.167405
0.16836
0.169302
0.170279
0.171253
0.172283
0.173302
0.174317
0.175391
0.176598
0.177966
0.179279
0.180731
0.182381
0.18421
0.186074
0.18804
0.190178
0.192612
0.195223
0.19805
0.200887
0.203735
0.206177
0.208423
0.210689
0.212908
0.215145
0.217015
0.218925
0.220845
0.223381
0.22635
0.229459
0.23256
0.235731
0.238628
0.241392
0.244064
0.246305
0.248232
0.25083
0.253662
0.256442
0.258726
0.259885
0.261642
0.264228
0.265744
0.267078
0.267725
0.312295
0.43464
0.635216
0.828595
0.942748
0.998331
0.999528
1.01194
1.02033
1.01139
1.00204
0.995424
0.996744
0.161879
0.162116
0.162375
0.162669
0.16299
0.163331
0.163677
0.164012