/*--------------------------------*- C++ -*----------------------------------*\
  =========                 |
  \\      /  F ield         | OpenFOAM: The Open Source CFD Toolbox
   \\    /   O peration     | Website:  https://openfoam.org
    \\  /    A nd           | Version:  7
     \\/     M anipulation  |
\*---------------------------------------------------------------------------*/
FoamFile
{
    version     2.0;
    format      ascii;
    class       volScalarField;
    location    "3.5";
    object      p;
}
// * * * * * * * * * * * * * * * * * * * * * * * * * * * * * * * * * * * * * //

dimensions      [1 -1 -2 0 0 0 0];

internalField   nonuniform List<scalar> 
90000
(
0.185049
0.217367
0.252184
0.281566
0.307413
0.336156
0.362746
0.384637
0.408248
0.432731
0.457512
0.481124
0.506237
0.532944
0.559605
0.587104
0.617158
0.646817
0.677885
0.711278
0.74463
0.77932
0.81384
0.850742
0.886398
0.92205
0.950806
0.976917
0.98452
0.991297
0.992932
0.992174
0.989215
0.986496
0.982542
0.978166
0.971637
0.965668
0.958913
0.954805
0.949554
0.945873
0.941476
0.934772
0.926473
0.921871
0.925235
0.932014
0.939432
0.947038
0.955634
0.966114
0.976719
0.985478
0.990406
0.985968
0.975081
0.961565
0.950117
0.942781
0.940401
0.945052
0.952937
0.964536
0.973856
0.976955
0.972169
0.964907
0.956765
0.951014
0.952408
0.955947
0.962612
0.969852
0.969727
0.96686
0.961112
0.959202
0.959545
0.963918
0.967176
0.967375
0.963696
0.959767
0.959009
0.962356
0.966964
0.968311
0.966393
0.963527
0.962452
0.962786
0.96233
0.961488
0.961235
0.962468
0.963587
0.962383
0.961272
0.95858
0.157719
0.157698
0.157673
0.157649
0.157623
0.157597
0.157572
0.157548
0.157533
0.157478
0.157719
0.158333
0.159758
0.162044
0.165728
0.170731
0.178176
0.187398
0.200237
0.215613
0.236056
0.25964
0.290225
0.323763
0.365731
0.411379
0.465267
0.521305
0.578132
0.63342
0.683525
0.731009
0.770808
0.809904
0.83858
0.867928
0.884145
0.902462
0.910298
0.92048
0.924188
0.929441
0.931105
0.931517
0.934845
0.949508
0.960171
0.969928
0.975616
0.979819
0.982325
0.98417
0.986643
0.983976
0.972108
0.958248
0.947769
0.946986
0.949971
0.955249
0.96088
0.964547
0.96849
0.971075
0.972112
0.969086
0.960817
0.95249
0.948919
0.951193
0.957237
0.966487
0.971501
0.970354
0.966794
0.959856
0.956183
0.957678
0.96128
0.967216
0.969188
0.966686
0.961335
0.959677
0.961144
0.966602
0.969431
0.967772
0.963865
0.962241
0.962319
0.962238
0.96114
0.96038
0.961025
0.962772
0.963796
0.962628
0.961406
0.958686
0.15775
0.157754
0.15776
0.157765
0.157769
0.157771
0.157776
0.15778
0.157785
0.157789
0.157792
0.157814
0.157781
0.157737
0.157693
0.157651
0.157618
0.157592
0.157572
0.157553
0.157539
0.157523
0.157519
0.15751
0.157519
0.157482
0.158613
0.161626
0.169271
0.181011
0.200916
0.225663
0.261075
0.300877
0.352177
0.407145
0.471321
0.535871
0.602821
0.66811
0.729014
0.789596
0.840494
0.894497
0.934534
0.962862
0.973771
0.982661
0.986867
0.989922
0.988667
0.983406
0.971517
0.951173
0.91864
0.918268
0.925057
0.936757
0.949058
0.961485
0.972555
0.977288
0.978496
0.975752
0.967344
0.955425
0.948654
0.947542
0.948932
0.954148
0.962235
0.971433
0.972148
0.968343
0.960704
0.954703
0.956476
0.962773
0.969094
0.968686
0.965811
0.959435
0.956068
0.959667
0.965286
0.969468
0.969027
0.965504
0.962727
0.961985
0.963017
0.962692
0.961571
0.961423
0.962266
0.963158
0.962372
0.961108
0.960495
0.958566
0.157784
0.157789
0.157795
0.157799
0.157801
0.157801
0.157802
0.157802
0.157801
0.157798
0.157796
0.157792
0.157789
0.157788
0.157788
0.157788
0.15779
0.157795
0.157802
0.157809
0.157814
0.157821
0.157829
0.157831
0.157824
0.157815
0.157808
0.157792
0.157773
0.157756
0.157751
0.157758
0.157768
0.157779
0.157792
0.157788
0.159991
0.165703
0.179991
0.201009
0.236652
0.280207
0.340899
0.411069
0.494199
0.574709
0.650978
0.722029
0.775364
0.826692
0.855868
0.882637
0.89221
0.899538
0.909284
0.938646
0.953251
0.970177
0.977148
0.984798
0.985146
0.984639
0.980863
0.96531
0.950787
0.942905
0.943995
0.948141
0.959841
0.971701
0.976599
0.973668
0.966646
0.956125
0.952345
0.953411
0.959291
0.965323
0.972561
0.969498
0.961813
0.956602
0.958417
0.961555
0.969675
0.970123
0.967542
0.9621
0.961145
0.962215
0.962496
0.960894
0.9602
0.960322
0.962938
0.964014
0.962766
0.9616
0.961134
0.958574
0.15777
0.15777
0.157768
0.157764
0.157759
0.157757
0.157758
0.15776
0.15776
0.157757
0.157755
0.157753
0.157752
0.157755
0.157759
0.157762
0.157767
0.157772
0.157775
0.157776
0.15778
0.157787
0.157796
0.157795
0.157785
0.157769
0.157752
0.15774
0.157729
0.157718
0.157713
0.157719
0.157735
0.157755
0.157764
0.157766
0.157761
0.157752
0.157739
0.15772
0.157703
0.157686
0.157678
0.157693
0.16207
0.173126
0.200527
0.239481
0.301334
0.375047
0.468456
0.5683
0.66916
0.775242
0.862777
0.917754
0.93731
0.95663
0.963975
0.97228
0.973348
0.969753
0.955547
0.934187
0.936639
0.944194
0.956246
0.96988
0.977554
0.978841
0.976995
0.963648
0.950595
0.947922
0.950027
0.960315
0.973234
0.973178
0.970853
0.961594
0.954252
0.954967
0.959694
0.969618
0.972483
0.969412
0.96264
0.961064
0.961353
0.96361
0.962839
0.960808
0.960431
0.962282
0.962621
0.962244
0.960852
0.960173
0.960747
0.958882
0.157621
0.157622
0.157623
0.157625
0.15763
0.157639
0.157648
0.157655
0.15766
0.157665
0.157672
0.157679
0.157688
0.157699
0.157711
0.157721
0.157733
0.157743
0.157748
0.15775
0.157756
0.15776
0.157756
0.157751
0.157741
0.157721
0.157696
0.157684
0.15768
0.157678
0.157681
0.157689
0.157716
0.15775
0.157754
0.157752
0.157747
0.157738
0.157721
0.157698
0.157677
0.157664
0.15767
0.1577
0.157765
0.157795
0.157791
0.157776
0.15775
0.157721
0.160953
0.17292
0.206071
0.261666
0.354175
0.458588
0.570474
0.675557
0.749733
0.827291
0.860116
0.896747
0.901601
0.926405
0.947024
0.976509
0.98945
0.992789
0.986279
0.98091
0.959512
0.942005
0.942563
0.946727
0.960763
0.977564
0.979001
0.975196
0.960752
0.951063
0.951868
0.958686
0.971171
0.975972
0.972433
0.96313
0.958842
0.959916
0.963603
0.964178
0.961472
0.959269
0.960167
0.962771
0.963378
0.961675
0.960656
0.960545
0.960532
0.958792
0.157635
0.157639
0.157642
0.157648
0.157659
0.157674
0.157684
0.157689
0.157694
0.157703
0.157715
0.157729
0.157744
0.157759
0.157771
0.157781
0.157793
0.157804
0.157807
0.157806
0.157804
0.157798
0.15779
0.157785
0.157778
0.157774
0.157771
0.157772
0.157777
0.157784
0.157794
0.157819
0.15787
0.157882
0.157881
0.157874
0.157862
0.157842
0.157805
0.157762
0.157727
0.157696
0.157699
0.157744
0.157829
0.157846
0.157838
0.157819
0.157796
0.157783
0.157768
0.157771
0.157813
0.157864
0.157868
0.159791
0.17872
0.2144
0.289872
0.384995
0.511155
0.648507
0.768935
0.887116
0.929602
0.9619
0.974194
0.978854
0.97633
0.957355
0.930261
0.93736
0.950966
0.968285
0.978951
0.979309
0.975366
0.958956
0.946502
0.948196
0.95733
0.971861
0.977027
0.974784
0.963804
0.957597
0.957955
0.962853
0.965596
0.963338
0.958711
0.958877
0.961803
0.96381
0.962925
0.959915
0.959602
0.960575
0.960486
0.958972
0.157744
0.15775
0.157758
0.157768
0.157789
0.157806
0.157807
0.157808
0.157814
0.157831
0.157855
0.157878
0.15789
0.157893
0.157893
0.157893
0.157889
0.157885
0.157885
0.157886
0.157885
0.157873
0.157842
0.157832
0.157832
0.157846
0.157873
0.15788
0.157878
0.157868
0.15787
0.157889
0.157911
0.157912
0.157907
0.157898
0.157881
0.15785
0.157804
0.15777
0.157745
0.157712
0.157707
0.157749
0.157822
0.157832
0.157823
0.157801
0.157771
0.157751
0.15775
0.15777
0.157819
0.157866
0.157876
0.157864
0.157834
0.157796
0.15778
0.157759
0.167487
0.195264
0.274222
0.383484
0.528953
0.667577
0.761748
0.852466
0.889734
0.908849
0.922221
0.967204
0.987224
0.994594
0.991705
0.979789
0.95029
0.939039
0.942491
0.957719
0.977243
0.983251
0.979145
0.963546
0.954081
0.955264
0.962409
0.967189
0.965478
0.958644
0.956798
0.959783
0.964484
0.963734
0.960038
0.958862
0.959368
0.960947
0.960528
0.959021
0.157778
0.157786
0.157797
0.157813
0.157833
0.157842
0.157846
0.157857
0.157885
0.157913
0.157917
0.157917
0.157914
0.157909
0.15791
0.157912
0.157911
0.1579
0.157873
0.157859
0.157852
0.157843
0.157831
0.157815
0.157797
0.157796
0.157809
0.157846
0.157868
0.15787
0.15788
0.157894
0.157893
0.157882
0.157857
0.157843
0.157829
0.1578
0.157767
0.157746
0.157745
0.157739
0.157733
0.157754
0.157804
0.157812
0.157803
0.157778
0.157741
0.157723
0.157719
0.157732
0.157772
0.157812
0.157833
0.157827
0.157809
0.157798
0.157808
0.157824
0.157809
0.157763
0.157743
0.157735
0.171978
0.209683
0.304583
0.436435
0.596216
0.772094
0.892971
0.956243
0.974591
0.983237
0.973497
0.939304
0.924771
0.936976
0.962684
0.978689
0.984723
0.980563
0.963148
0.950861
0.951713
0.961675
0.968919
0.967397
0.958447
0.954316
0.956753
0.963605
0.964761
0.962112
0.957572
0.957992
0.960772
0.961235
0.96038
0.959002
0.157778
0.157796
0.157825
0.157842
0.157861
0.157873
0.157878
0.157896
0.157912
0.157911
0.157909
0.157905
0.157893
0.157875
0.157874
0.157875
0.157872
0.157856
0.157826
0.157797
0.157774
0.157757
0.15774
0.157729
0.157724
0.15773
0.157748
0.157787
0.157806
0.157808
0.157813
0.157826
0.157828
0.15782
0.157812
0.157805
0.157793
0.157768
0.157742
0.157735
0.157751
0.157772
0.157782
0.157789
0.157798
0.157798
0.157791
0.15776
0.157705
0.157684
0.157682
0.157692
0.157725
0.15776
0.157783
0.157789
0.15778
0.157782
0.157808
0.157879
0.157924
0.157919
0.157889
0.15787
0.157877
0.157983
0.158087
0.1592
0.186034
0.257278
0.4101
0.575804
0.705059
0.840295
0.874609
0.903421
0.925771
0.975065
0.998072
0.99517
0.987956
0.958626
0.942421
0.945292
0.959538
0.97413
0.972193
0.959707
0.951427
0.952826
0.96208
0.96695
0.964382
0.956666
0.956072
0.960086
0.962902
0.961425
0.960175
0.959825
0.157815
0.157836
0.157885
0.157899
0.1579
0.157895
0.157888
0.157884
0.157875
0.157852
0.157841
0.157839
0.157836
0.157822
0.157806
0.1578
0.157794
0.157779
0.157758
0.157727
0.15769
0.157672
0.157664
0.157667
0.157678
0.157696
0.157728
0.157768
0.157776
0.157773
0.157768
0.157765
0.157774
0.157796
0.157799
0.157793
0.157779
0.157772
0.157765
0.157764
0.157773
0.157799
0.157842
0.157858
0.157863
0.157863
0.157851
0.157806
0.157722
0.157683
0.157682
0.157692
0.157718
0.157748
0.157769
0.157782
0.15779
0.157795
0.157832
0.157975
0.158086
0.15809
0.158052
0.157988
0.157985
0.15804
0.158167
0.158188
0.158127
0.157906
0.159037
0.175645
0.253349
0.386894
0.577474
0.795532
0.911413
0.967428
0.987234
0.985322
0.954578
0.932808
0.940877
0.959313
0.97394
0.974174
0.962149
0.946415
0.94797
0.960041
0.967832
0.966289
0.956467
0.953153
0.956844
0.964225
0.963595
0.961008
0.96024
0.961432
0.157795
0.157828
0.157859
0.157862
0.157864
0.157864
0.157862
0.157859
0.157847
0.157827
0.15782
0.157818
0.157812
0.157796
0.157777
0.157768
0.157759
0.157732
0.157701
0.157682
0.157665
0.157662
0.15767
0.15767
0.15767
0.157679
0.157709
0.157752
0.157764
0.157761
0.157759
0.157763
0.157772
0.157781
0.157789
0.157792
0.157792
0.157789
0.157787
0.157795
0.157817
0.157846
0.157877
0.157919
0.157951
0.157954
0.157939
0.157875
0.157774
0.157721
0.157722
0.157742
0.157775
0.157796
0.157805
0.157805
0.157802
0.157803
0.157844
0.15805
0.158241
0.15825
0.158201
0.158066
0.158014
0.158051
0.158116
0.158093
0.157959
0.157795
0.157688
0.157646
0.15768
0.157767
0.184193
0.269819
0.45328
0.63746
0.764472
0.877655
0.88807
0.93816
0.964282
0.988251
0.985697
0.963683
0.943926
0.944401
0.956548
0.971461
0.970135
0.957992
0.950711
0.95303
0.96367
0.967364
0.964358
0.960764
0.961452
0.964128
0.157802
0.157814
0.157835
0.157838
0.157833
0.15783
0.157838
0.157843
0.157838
0.157827
0.157822
0.157824
0.157825
0.157816
0.157793
0.157773
0.157753
0.157733
0.157728
0.157735
0.15774
0.157738
0.157725
0.157718
0.157724
0.157744
0.157766
0.157767
0.15776
0.157756
0.157765
0.157783
0.1578
0.157815
0.157826
0.157815
0.157795
0.157788
0.157787
0.157799
0.157838
0.157891
0.157937
0.157982
0.158014
0.158016
0.157999
0.157929
0.157811
0.157749
0.157748
0.157779
0.157848
0.157856
0.157844
0.15782
0.157811
0.157807
0.157837
0.158056
0.158302
0.158321
0.158268
0.158104
0.157991
0.157964
0.157935
0.157833
0.157691
0.157642
0.157648
0.1577
0.157834
0.15803
0.158235
0.158287
0.163541
0.198607
0.316992
0.513716
0.731032
0.912884
0.955405
0.982718
0.971762
0.931057
0.934872
0.955952
0.971821
0.973605
0.961834
0.945941
0.94788
0.961546
0.969003
0.967738
0.96146
0.960737
0.965683
0.966336
0.157876
0.157877
0.157873
0.15786
0.157853
0.15785
0.157851
0.157857
0.157865
0.157868
0.157872
0.157884
0.157896
0.157893
0.157882
0.157856
0.157822
0.15781
0.157812
0.157828
0.157855
0.157865
0.157866
0.157862
0.157861
0.157878
0.157888
0.157887
0.157873
0.157849
0.157844
0.157841
0.157837
0.157838
0.157834
0.157804
0.157777
0.157771
0.15777
0.157781
0.157818
0.157879
0.157937
0.15799
0.158025
0.158027
0.158002
0.157911
0.157789
0.15776
0.157763
0.157816
0.157936
0.157962
0.157948
0.157865
0.15782
0.1578
0.157819
0.158033
0.158306
0.15833
0.158277
0.158081
0.157852
0.15776
0.157684
0.157525
0.157482
0.15754
0.157684
0.157837
0.158
0.158198
0.158322
0.158356
0.158255
0.158004
0.157391
0.166092
0.252102
0.422351
0.624128
0.827149
0.863291
0.918018
0.944795
0.985658
0.98341
0.96661
0.945806
0.945273
0.958958
0.971951
0.970903
0.96326
0.959569
0.964645
0.970496
0.968142
0.157859
0.157858
0.157846
0.157832
0.157827
0.157827
0.157829
0.157834
0.157841
0.157849
0.157858
0.157872
0.157874
0.157867
0.157863
0.157863
0.157849
0.157828
0.157827
0.157846
0.15789
0.15792
0.157926
0.157927
0.157932
0.157949
0.157956
0.157955
0.157946
0.157928
0.157903
0.157861
0.157846
0.157838
0.1578
0.157693
0.157655
0.157653
0.157659
0.157695
0.157765
0.157849
0.157917
0.157959
0.157972
0.157969
0.157935
0.157814
0.157766
0.157771
0.157796
0.157896
0.158069
0.158111
0.158107
0.157961
0.157789
0.157757
0.157773
0.157974
0.158272
0.158306
0.15824
0.157918
0.157624
0.15754
0.15746
0.157366
0.157391
0.157548
0.157792
0.15796
0.158101
0.158241
0.158339
0.158206
0.15782
0.157164
0.156731
0.156548
0.156515
0.156792
0.208344
0.342401
0.572567
0.84939
0.935873
0.982
0.975051
0.933465
0.935256
0.95846
0.975229
0.973943
0.963859
0.95668
0.961446
0.972083
0.971849
0.968839
0.15783
0.157827
0.157811
0.157804
0.157802
0.157802
0.157803
0.15781
0.157817
0.157818
0.157821
0.157834
0.157846
0.157845
0.157814
0.157763
0.15776
0.157768
0.157803
0.157866
0.15791
0.157923
0.157928
0.157935
0.15796
0.158015
0.158029
0.15803
0.158027
0.158013
0.157974
0.157926
0.157915
0.157887
0.157737
0.157484
0.157432
0.157434
0.157453
0.157501
0.157565
0.157703
0.157811
0.157817
0.157807
0.157812
0.157817
0.157758
0.157741
0.157751
0.157791
0.157953
0.158149
0.158184
0.158185
0.158097
0.157846
0.157711
0.157692
0.157757
0.157977
0.158029
0.157871
0.157483
0.157355
0.157346
0.157318
0.15733
0.157458
0.15767
0.157865
0.158006
0.158137
0.158041
0.157692
0.157159
0.15663
0.156154
0.156065
0.155936
0.155954
0.156116
0.156111
0.155893
0.186969
0.305948
0.529517
0.773989
0.840125
0.905714
0.939979
0.989893
0.985984
0.964121
0.951679
0.956235
0.973224
0.976943
0.972349
0.967388
0.157748
0.157742
0.157734
0.157722
0.157718
0.157716
0.157714
0.157714
0.157725
0.157726
0.157693
0.157668
0.157662
0.157641
0.157601
0.157603
0.157624
0.15766
0.157736
0.157839
0.157888
0.157885
0.157887
0.157906
0.157958
0.158076
0.158135
0.158138
0.158137
0.158121
0.158028
0.15796
0.157961
0.157936
0.157775
0.15742
0.157302
0.157298
0.157314
0.157341
0.157393
0.157506
0.157659
0.157721
0.157723
0.157712
0.15774
0.157742
0.157723
0.15772
0.157767
0.157964
0.158161
0.15818
0.158177
0.158101
0.157834
0.157618
0.157474
0.157392
0.157355
0.157307
0.157075
0.156964
0.157025
0.157112
0.157177
0.157271
0.157452
0.157513
0.157441
0.157283
0.157015
0.156653
0.156274
0.155941
0.155662
0.15549
0.155329
0.15537
0.155641
0.156061
0.156006
0.155529
0.155087
0.154968
0.178371
0.276239
0.506705
0.80871
0.924548
0.983745
0.973942
0.936094
0.945293
0.970894
0.983173
0.97725
0.965607
0.966408
0.157477
0.15747
0.157461
0.157445
0.157435
0.15743
0.157429
0.157443
0.157448
0.157429
0.157364
0.15725
0.157206
0.157214
0.157259
0.157392
0.15753
0.157534
0.15753
0.157584
0.157771
0.157838
0.157851
0.157877
0.157943
0.158079
0.158164
0.158171
0.158171
0.158151
0.158022
0.157947
0.157951
0.157919
0.157752
0.157436
0.15734
0.157321
0.157276
0.157234
0.157291
0.157434
0.157579
0.157736
0.157804
0.15776
0.157727
0.157691
0.15765
0.157634
0.157681
0.157798
0.157859
0.157913
0.157955
0.157898
0.157582
0.157114
0.156857
0.156688
0.156535
0.156347
0.156326
0.156376
0.15644
0.156461
0.156392
0.156398
0.156551
0.1566
0.156561
0.156391
0.156057
0.155719
0.155422
0.155258
0.155115
0.155061
0.155101
0.155522
0.155939
0.155908
0.155653
0.155147
0.154923
0.154981
0.155544
0.155695
0.171939
0.274387
0.505471
0.772693
0.840709
0.918217
0.958752
0.992708
0.989013
0.962993
0.960678
0.971703
0.157429
0.157419
0.157412
0.157398
0.157371
0.157345
0.157332
0.157312
0.15727
0.157203
0.157098
0.156873
0.156753
0.15678
0.15701
0.157199
0.157197
0.157147
0.157069
0.157085
0.157212
0.157291
0.157306
0.157324
0.157379
0.157477
0.157549
0.15759
0.157646
0.157761
0.15782
0.157841
0.157843
0.157774
0.157577
0.15736
0.157298
0.157255
0.157143
0.157118
0.157227
0.157429
0.15754
0.157599
0.157654
0.15767
0.157565
0.157345
0.157077
0.156907
0.156803
0.156603
0.156325
0.156276
0.156308
0.156285
0.156111
0.155997
0.155938
0.155755
0.155507
0.155476
0.155589
0.155741
0.155764
0.155721
0.155717
0.155895
0.156244
0.156341
0.156248
0.155932
0.155423
0.155091
0.154928
0.154896
0.154907
0.15498
0.155497
0.156251
0.15615
0.155891
0.155369
0.155066
0.155134
0.156352
0.158089
0.158144
0.158251
0.158598
0.177933
0.277749
0.527529
0.834667
0.929984
0.978379
0.967809
0.94941
0.966654
0.979825
0.157247
0.157233
0.15722
0.157176
0.157084
0.157022
0.156994
0.15695
0.156808
0.156615
0.156501
0.156412
0.156231
0.156106
0.156059
0.155985
0.155804
0.155613
0.155593
0.155664
0.155811
0.155848
0.15584
0.155872
0.155965
0.156095
0.156233
0.156322
0.156457
0.156705
0.156929
0.157054
0.157047
0.156967
0.156812
0.156665
0.156521
0.156305
0.156135
0.15615
0.156267
0.156297
0.156277
0.156264
0.15637
0.156673
0.156713
0.156555
0.15612
0.155884
0.15569
0.155246
0.154905
0.154879
0.154942
0.155138
0.155236
0.15528
0.155296
0.155155
0.154914
0.15491
0.155095
0.155528
0.155639
0.155624
0.155689
0.155957
0.156126
0.156004
0.155726
0.155345
0.154924
0.154908
0.154868
0.154887
0.155182
0.156
0.157152
0.157201
0.156836
0.156017
0.155891
0.15706
0.159172
0.161031
0.161405
0.161738
0.162885
0.164435
0.165369
0.166024
0.188107
0.310866
0.555025
0.828359
0.885285
0.936932
0.998174
0.988622
0.156122
0.156137
0.15613
0.155905
0.155523
0.155431
0.155384
0.155286
0.155238
0.15519
0.155111
0.154884
0.154528
0.154413
0.154435
0.15448
0.154495
0.154539
0.154678
0.154835
0.15485
0.154842
0.154852
0.155056
0.155314
0.155379
0.155461
0.155637
0.156045
0.156502
0.156562
0.156546
0.15651
0.156415
0.156191
0.155911
0.155761
0.15568
0.155554
0.155263
0.155096
0.155037
0.154964
0.154938
0.155045
0.155467
0.155601
0.155533
0.155343
0.155358
0.155307
0.154888
0.154418
0.154371
0.154469
0.154779
0.155082
0.155202
0.155224
0.155083
0.154839
0.154895
0.155494
0.156438
0.156642
0.156538
0.156357
0.156147
0.155921
0.155627
0.155387
0.155138
0.154807
0.155064
0.155653
0.156912
0.158222
0.159702
0.159661
0.159306
0.159067
0.159518
0.161708
0.164156
0.165703
0.165245
0.165303
0.166324
0.168691
0.170614
0.171736
0.173213
0.173899
0.174617
0.207667
0.350905
0.639229
0.880697
0.964737
0.972335
0.155107
0.155118
0.155133
0.155167
0.155203
0.15521
0.155183
0.155001
0.15478
0.154749
0.154778
0.154807
0.154891
0.15502
0.15501
0.15495
0.154956
0.15514
0.155646
0.155833
0.155806
0.155639
0.155551
0.155468
0.15531
0.155214
0.155223
0.155227
0.155231
0.155315
0.155665
0.155859
0.1559
0.155918
0.155938
0.155945
0.155864
0.15571
0.155525
0.155112
0.154585
0.154443
0.154409
0.154403
0.154527
0.155052
0.155255
0.15521
0.155103
0.155125
0.155115
0.154845
0.154401
0.15432
0.154404
0.154803
0.155456
0.156159
0.156356
0.156328
0.156295
0.156442
0.157056
0.157721
0.157752
0.157527
0.156835
0.156181
0.155974
0.155716
0.155973
0.15696
0.159147
0.161253
0.162781
0.163573
0.163978
0.163804
0.163237
0.163439
0.16453
0.166859
0.168829
0.170112
0.170468
0.171167
0.172562
0.174504
0.175609
0.176994
0.178472
0.180025
0.181183
0.182527
0.183825
0.184544
0.237073
0.426271
0.696189
0.892185
0.156898
0.156969
0.156987
0.156977
0.15693
0.156873
0.156849
0.156844
0.156818
0.156736
0.156711
0.156777
0.156962
0.156984
0.156694
0.156487
0.156481
0.156684
0.156922
0.156929
0.156871
0.156701
0.156417
0.156021
0.155658
0.155565
0.155514
0.155277
0.154877
0.154846
0.155118
0.155858
0.156107
0.156122
0.156112
0.156084
0.156103
0.156122
0.155981
0.155343
0.154666
0.154534
0.154491
0.154462
0.154546
0.155041
0.15542
0.155474
0.155559
0.155875
0.156433
0.156815
0.156749
0.156683
0.156728
0.157139
0.158322
0.159504
0.159943
0.160087
0.16033
0.160571
0.160473
0.160349
0.160283
0.160395
0.160889
0.161863
0.162911
0.164225
0.165499
0.166647
0.168178
0.16896
0.168834
0.16834
0.167639
0.167798
0.168888
0.171209
0.174007
0.176964
0.176902
0.176964
0.177905
0.17949
0.181448
0.182907
0.18338
0.184942
0.18683
0.187555
0.18845
0.189622
0.191453
0.193498
0.194032
0.198292
0.261239
0.625508
0.157937
0.157795
0.157519
0.157031
0.156769
0.156746
0.156808
0.156925
0.156959
0.156956
0.15698
0.157172
0.157299
0.157229
0.156994
0.156871
0.156671
0.156234
0.155978
0.155955
0.155969
0.155994
0.155952
0.155685
0.155242
0.154953
0.154742
0.154307
0.153976
0.154013
0.1543
0.155117
0.156251
0.156451
0.156487
0.156717
0.157046
0.157092
0.157117
0.157335
0.157863
0.157981
0.157897
0.157722
0.157682
0.157885
0.158797
0.160317
0.16179
0.162857
0.163604
0.164375
0.165038
0.165226
0.165273
0.165473
0.166098
0.166456
0.16645
0.166493
0.166573
0.166576
0.166659
0.166878
0.167444
0.168426
0.169591
0.170643
0.171643
0.173093
0.174127
0.174113
0.173847
0.174153
0.1746
0.175447
0.176907
0.179273
0.182074
0.183581
0.184871
0.184849
0.184942
0.185385
0.186109
0.187348
0.188655
0.190213
0.19238
0.194089
0.195378
0.196028
0.196911
0.198285
0.200143
0.201972
0.202451
0.203118
0.203821
0.279107
0.159724
0.159724
0.159891
0.159942
0.159759
0.15945
0.159422
0.159491
0.159574
0.159656
0.159798
0.160066
0.1605
0.160859
0.161113
0.161233
0.161272
0.161436
0.16168
0.161811
0.162063
0.162512
0.162717
0.162997
0.16366
0.164143
0.16423
0.164432
0.164763
0.165142
0.165591
0.166005
0.166455
0.167042
0.168077
0.169315
0.169862
0.170102
0.170361
0.170912
0.171644
0.171796
0.17167
0.171583
0.171636
0.172011
0.172685
0.17299
0.173094
0.173274
0.173395
0.173438
0.173528
0.173529
0.173462
0.173347
0.173302
0.173567
0.173799
0.174038
0.174498
0.175233
0.17598
0.176721
0.17778
0.179383
0.181252
0.182655
0.183278
0.183404
0.183937
0.184843
0.185479
0.186057
0.187087
0.188556
0.190041
0.190954
0.191846
0.191818
0.191648
0.191935
0.193185
0.195029
0.19713
0.199083
0.199905
0.201004
0.202285
0.202353
0.202834
0.204362
0.205909
0.207267
0.208371
0.209997
0.21047
0.210607
0.211679
0.213664
0.175133
0.175181
0.175216
0.175341
0.175495
0.175681
0.176025
0.176381
0.176386
0.176201
0.176147
0.176136
0.176167
0.17657
0.177399
0.177515
0.177548
0.177714
0.177991
0.178055
0.177995
0.177965
0.17827
0.17892
0.178995
0.17884
0.178351
0.178191
0.178251
0.178272
0.178062
0.177876
0.177903
0.178018
0.17817
0.178201
0.178249
0.178591
0.179155
0.179668
0.17993
0.179954
0.179784
0.179705
0.179879
0.17994
0.179571
0.17886
0.178786
0.178978
0.179459
0.179892
0.180341
0.180852
0.181389
0.18197
0.182871
0.184244
0.186
0.187793
0.189391
0.190753
0.191813
0.192591
0.193227
0.193904
0.194437
0.194834
0.195255
0.195263
0.195192
0.195574
0.196465
0.197336
0.1981
0.198936
0.199862
0.20078
0.201525
0.202517
0.203686
0.20525
0.206604
0.207515
0.208263
0.208849
0.209762
0.210398
0.21081
0.211611
0.212431
0.213349
0.21462
0.216127
0.217391
0.218186
0.219202
0.220251
0.221047
0.222596
0.187453
0.18787
0.188287
0.188622
0.188944
0.189141
0.189267
0.189359
0.189314
0.188906
0.18861
0.18859
0.188688
0.189233
0.189424
0.189366
0.189428
0.189752
0.189947
0.189939
0.189933
0.190094
0.190498
0.190659
0.190555
0.190202
0.190164
0.190302
0.190783
0.191355
0.191481
0.191243
0.191091
0.191044
0.190959
0.190905
0.190923
0.191024
0.19147
0.191829
0.192041
0.192521
0.193628
0.195226
0.196646
0.197695
0.198671
0.19961
0.200313
0.200739
0.201202
0.201818
0.202548
0.203378
0.204163
0.204939
0.205683
0.206145
0.206259
0.206344
0.206618
0.206758
0.206664
0.2064
0.206344
0.206305
0.206076
0.205606
0.205709
0.206265
0.207484
0.208478
0.209635
0.210888
0.212203
0.213292
0.214123
0.214694
0.215039
0.215471
0.215661
0.215997
0.216226
0.216808
0.217255
0.21812
0.219436
0.22073
0.221899
0.222959
0.223708
0.22442
0.225271
0.226184
0.227014
0.227307
0.227911
0.228993
0.230052
0.231411
0.207105
0.207209
0.207307
0.207378
0.207441
0.207551
0.207749
0.207879
0.207904
0.20797
0.208193
0.208263
0.208221
0.2082
0.208244
0.208461
0.208812
0.209009
0.209095
0.209348
0.209842
0.210023
0.210112
0.210257
0.21054
0.21104
0.21179
0.21236
0.212555
0.212679
0.212832
0.21297
0.21315
0.213553
0.213691
0.213726
0.213844
0.214097
0.214502
0.214846
0.214882
0.214849
0.214847
0.21507
0.215255
0.215197
0.215189
0.215303
0.215526
0.215711
0.2158
0.215832
0.215923
0.215898
0.215643
0.215277
0.214878
0.214403
0.213931
0.213818
0.213967
0.213914
0.213765
0.21403
0.214798
0.21594
0.217203
0.21869
0.220057
0.221415
0.222914
0.224067
0.225163
0.225218
0.225169
0.224995
0.224911
0.224535
0.224333
0.224597
0.225288
0.22652
0.228306
0.230012
0.231896
0.232831
0.233454
0.233286
0.233021
0.233108
0.233572
0.234865
0.236184
0.237319
0.23725
0.237529
0.23824
0.239447
0.240457
0.24156
0.226758
0.226821
0.226846
0.226845
0.226874
0.226948
0.227052
0.22715
0.227209
0.227419
0.227844
0.227897
0.227653
0.22732
0.227291
0.227491
0.227612
0.227446
0.227225
0.227241
0.227252
0.227181
0.227083
0.2271
0.227107
0.22702
0.226845
0.226665
0.226485
0.226327
0.226306
0.22641
0.226623
0.226766
0.227075
0.227446
0.22763
0.227796
0.227877
0.227887
0.227963
0.227964
0.227862
0.22774
0.227533
0.227165
0.22711
0.227161
0.227129
0.227046
0.227071
0.227318
0.227927
0.228756
0.229754
0.230823
0.231816
0.232612
0.233256
0.233989
0.234857
0.23592
0.23733
0.238704
0.239538
0.240108
0.240375
0.240613
0.240776
0.240771
0.24046
0.239973
0.239409
0.239
0.238384
0.238405
0.238749
0.239585
0.241045
0.242568
0.244052
0.245079
0.245714
0.245561
0.245105
0.244333
0.243639
0.243288
0.243987
0.245395
0.247182
0.248153
0.24866
0.248311
0.248148
0.248369
0.249207
0.250399
0.250355
0.250318
0.247641
0.247671
0.247673
0.247658
0.247684
0.24789
0.247973
0.247911
0.24785
0.247811
0.247802
0.247913
0.248355
0.248907
0.249011
0.248954
0.248778
0.24874
0.248814
0.248989
0.248992
0.248966
0.248966
0.249077
0.249261
0.249319
0.249369
0.249541
0.249753
0.249811
0.249873
0.249956
0.249957
0.249899
0.249855
0.249887
0.25001
0.250166
0.250321
0.250535
0.2508
0.251074
0.251561
0.252046
0.252323
0.252746
0.253377
0.253683
0.253672
0.25366
0.253771
0.254148
0.254534
0.254541
0.254479
0.254512
0.254707
0.25499
0.255108
0.25507
0.254844
0.254489
0.254184
0.253821
0.253378
0.252816
0.251988
0.251086
0.250425
0.250002
0.249477
0.249589
0.250075
0.251046
0.252388
0.253973
0.255533
0.256589
0.257651
0.25763
0.257342
0.256502
0.255374
0.254382
0.253479
0.253982
0.255331
0.257502
0.259452
0.260689
0.260544
0.259703
0.258643
0.257672
0.258185
0.259504
0.260702
0.261168
0.260976
0.261215
0.270902
0.27092
0.27093
0.270926
0.270924
0.270937
0.270913
0.270895
0.270991
0.271022
0.270849
0.270714
0.270731
0.270778
0.270951
0.271161
0.271189
0.271101
0.271045
0.271047
0.271023
0.271015
0.271052
0.271055
0.271005
0.270941
0.270944
0.271001
0.271055
0.271097
0.271165
0.271196
0.271185
0.271118
0.271072
0.271082
0.271133
0.271162
0.27115
0.27109
0.270905
0.270544
0.270253
0.270017
0.269724
0.269423
0.269349
0.269411
0.269458
0.269455
0.269425
0.269282
0.268813
0.268352
0.268075
0.26767
0.267044
0.266613
0.26627
0.266195
0.266264
0.266542
0.266932
0.267206
0.267425
0.26773
0.268358
0.269414
0.27072
0.271969
0.2731
0.274128
0.274931
0.275468
0.275597
0.27543
0.274988
0.274306
0.273417
0.272465
0.271574
0.270856
0.271132
0.272034
0.273448
0.27483
0.275856
0.275757
0.274989
0.273727
0.272289
0.271101
0.271409
0.272787
0.274236
0.275174
0.274719
0.273978
0.273125
0.273264
0.297188
0.29713
0.296874
0.296693
0.29668
0.29669
0.29678
0.296841
0.296834
0.296705
0.296637
0.296636
0.296773
0.296897
0.296837
0.296575
0.296511
0.296611
0.296736
0.296736
0.296675
0.296521
0.296383
0.296322
0.296274
0.296189
0.296097
0.296082
0.296084
0.296066
0.295971
0.295811
0.295773
0.295803
0.295827
0.295809
0.295794
0.295773
0.295696
0.295661
0.295694
0.295745
0.295751
0.295694
0.295543
0.295502
0.29553
0.295517
0.295379
0.295234
0.295221
0.295243
0.295334
0.295586
0.295941
0.296174
0.296194
0.296202
0.296257
0.296433
0.296466
0.296338
0.296267
0.296331
0.296317
0.296151
0.295843
0.295391
0.294877
0.294251
0.293506
0.292603
0.29149
0.290274
0.288983
0.287736
0.286521
0.28546
0.285558
0.286184
0.287242
0.28864
0.289751
0.290836
0.290614
0.28996
0.288585
0.287024
0.285666
0.284729
0.285363
0.28677
0.288254
0.28884
0.288256
0.286879
0.285544
0.284187
0.284698
0.285631
0.326385
0.32642
0.326391
0.325882
0.325521
0.325411
0.325339
0.325413
0.325567
0.325578
0.325485
0.325301
0.325278
0.325236
0.325137
0.325121
0.325141
0.325146
0.325038
0.324824
0.324711
0.324708
0.324753
0.324747
0.324565
0.324177
0.323999
0.323995
0.32399
0.323923
0.323668
0.323252
0.323119
0.32309
0.323046
0.322937
0.322715
0.322481
0.322164
0.321997
0.321963
0.321905
0.321774
0.321539
0.321196
0.320756
0.320228
0.319991
0.31998
0.319931
0.31972
0.319352
0.318989
0.318582
0.318051
0.317459
0.316772
0.316302
0.316052
0.315745
0.315204
0.314504
0.31379
0.313034
0.31214
0.311237
0.310828
0.310682
0.310316
0.309669
0.309282
0.309352
0.309595
0.310007
0.310748
0.311505
0.312326
0.313024
0.313642
0.31361
0.313299
0.312573
0.311546
0.310154
0.308581
0.306857
0.305725
0.305101
0.305433
0.306187
0.306594
0.306172
0.305114
0.303245
0.301616
0.300029
0.300207
0.301101
0.301624