/*--------------------------------*- C++ -*----------------------------------*\
  =========                 |
  \\      /  F ield         | OpenFOAM: The Open Source CFD Toolbox
   \\    /   O peration     | Website:  https://openfoam.org
    \\  /    A nd           | Version:  7
     \\/     M anipulation  |
\*---------------------------------------------------------------------------*/
FoamFile
{
    version     2.0;
    format      ascii;
    class       volScalarField;
    location    "7";
    object      T;
}
// * * * * * * * * * * * * * * * * * * * * * * * * * * * * * * * * * * * * * //

dimensions      [0 0 0 1 0 0 0];

internalField   nonuniform List<scalar> 
90000
(
0.982652
0.984491
0.986593
0.989008
0.991322
0.993732
0.995884
0.998037
0.999876
1.00169
1.00318
1.00467
1.00585
1.00715
1.00831
1.00956
1.0108
1.01245
1.01425
1.01656
1.01895
1.02176
1.02439
1.02713
1.02946
1.03154
1.03334
1.03478
1.03549
1.03609
1.03644
1.03637
1.03603
1.03539
1.03405
1.03157
1.02895
1.0271
1.02563
1.02566
1.02596
1.02638
1.0269
1.02745
1.02794
1.02832
1.02835
1.02816
1.02766
1.02683
1.02613
1.02576
1.0256
1.02579
1.02626
1.02712
1.02782
1.02806
1.02778
1.02734
1.0267
1.02631
1.02636
1.02665
1.02717
1.02715
1.02694
1.02648
1.02612
1.02589
1.02597
1.02624
1.0262
1.02606
1.02584
1.02563
1.02569
1.02571
1.02563
1.02543
1.02527
1.02513
1.02504
1.02498
1.02492
1.02494
1.0249
1.02486
1.02482
1.02477
1.02472
1.02462
1.02449
1.02433
1.0242
1.02412
1.02405
1.02397
1.02386
1.02372
0.981268
0.981398
0.981706
0.982192
0.982851
0.983676
0.984656
0.985777
0.987019
0.988368
0.989804
0.991292
0.992851
0.994295
0.995718
0.997127
0.998467
0.999722
1.00099
1.00232
1.00377
1.00539
1.00721
1.00913
1.01129
1.01345
1.01562
1.01788
1.01985
1.02198
1.02343
1.02479
1.02629
1.0272
1.02761
1.02792
1.02786
1.02735
1.02617
1.02459
1.02306
1.02195
1.02144
1.02159
1.02192
1.02237
1.02298
1.02362
1.02432
1.02432
1.02408
1.0235
1.02282
1.02226
1.02227
1.02258
1.02315
1.0239
1.02461
1.02485
1.02459
1.02401
1.02354
1.02349
1.02368
1.02409
1.02445
1.02433
1.02399
1.02358
1.02349
1.02364
1.02394
1.02401
1.02389
1.02368
1.02365
1.0238
1.02387
1.02381
1.02362
1.02347
1.02346
1.02348
1.02347
1.02345
1.02353
1.02354
1.02351
1.0235
1.0235
1.02344
1.02333
1.02321
1.02312
1.02308
1.02305
1.02299
1.02292
1.02283
0.980645
0.98063
0.980619
0.98061
0.980614
0.980633
0.98068
0.980763
0.980898
0.98109
0.981363
0.981718
0.982185
0.982752
0.983423
0.98419
0.985064
0.986012
0.98706
0.988155
0.989368
0.990627
0.992054
0.993538
0.995265
0.997113
0.999143
1.00147
1.00383
1.00632
1.00897
1.01162
1.01392
1.01628
1.01826
1.02006
1.02097
1.02161
1.02217
1.02212
1.02202
1.02156
1.02074
1.01973
1.01893
1.01852
1.0186
1.0188
1.0191
1.01942
1.01975
1.02013
1.02012
1.01982
1.01936
1.01887
1.01895
1.01926
1.0199
1.02053
1.02126
1.02124
1.02081
1.02027
1.02011
1.02029
1.02062
1.02097
1.02091
1.02062
1.02034
1.02042
1.02064
1.02088
1.02091
1.02083
1.02079
1.02087
1.021
1.02106
1.02101
1.02092
1.02092
1.02093
1.02096
1.02103
1.02112
1.02119
1.02125
1.02129
1.02133
1.02135
1.02132
1.02126
1.0212
1.02118
1.02118
1.02118
1.02116
1.02113
0.979628
0.979619
0.979602
0.979581
0.979556
0.979533
0.97951
0.979491
0.979476
0.979462
0.979452
0.97944
0.979447
0.979472
0.979526
0.979619
0.979761
0.979957
0.980228
0.980581
0.981044
0.981616
0.982319
0.983153
0.984162
0.985318
0.98675
0.988305
0.990227
0.992324
0.994761
0.997342
1.00033
1.00331
1.00631
1.0094
1.01188
1.01411
1.01567
1.01711
1.01764
1.0181
1.01825
1.01807
1.01783
1.01733
1.0167
1.01618
1.01585
1.01593
1.01615
1.0165
1.01674
1.01684
1.01678
1.01652
1.01625
1.01607
1.01621
1.01655
1.01712
1.01761
1.018
1.01786
1.01751
1.01715
1.01718
1.0174
1.0177
1.01783
1.01766
1.01741
1.01743
1.01762
1.01789
1.01792
1.01786
1.01786
1.01798
1.01814
1.0182
1.01813
1.01808
1.01812
1.01819
1.01827
1.01838
1.01851
1.01862
1.01868
1.01877
1.01883
1.01884
1.01883
1.0188
1.01882
1.01885
1.0189
1.01892
1.01897
0.978426
0.978421
0.978414
0.978404
0.978389
0.978371
0.978351
0.97833
0.97831
0.97829
0.97827
0.978251
0.978227
0.978203
0.978183
0.978169
0.978158
0.978145
0.978131
0.978134
0.97815
0.978187
0.978283
0.978436
0.97866
0.978971
0.979402
0.979976
0.980756
0.981716
0.983044
0.984571
0.98659
0.988867
0.991747
0.994773
0.998289
1.00186
1.00514
1.00857
1.01072
1.01283
1.01403
1.01496
1.01541
1.01566
1.01561
1.01575
1.01574
1.01556
1.0152
1.01488
1.0147
1.0146
1.01463
1.01462
1.01461
1.01457
1.01448
1.01441
1.01446
1.0147
1.01511
1.01543
1.01576
1.01563
1.01536
1.01514
1.01524
1.01543
1.01566
1.01555
1.01538
1.01533
1.01546
1.01565
1.01571
1.01566
1.01568
1.01578
1.01592
1.01591
1.01583
1.01582
1.01587
1.01595
1.01605
1.01617
1.0163
1.01638
1.01646
1.01654
1.0166
1.01662
1.01661
1.01662
1.01666
1.01672
1.01676
1.01685
0.977349
0.977345
0.977343
0.97734
0.977334
0.977324
0.977311
0.977298
0.977287
0.977277
0.977269
0.977258
0.977244
0.977229
0.977212
0.977193
0.977175
0.977157
0.977144
0.977132
0.97713
0.977136
0.977125
0.977114
0.977102
0.977105
0.977121
0.977159
0.977232
0.977352
0.977607
0.978002
0.978601
0.979433
0.980647
0.982252
0.984447
0.98714
0.990527
0.994234
0.998372
1.00234
1.00586
1.00895
1.01119
1.01305
1.01386
1.01428
1.01445
1.01455
1.01447
1.0143
1.01406
1.01379
1.01367
1.01369
1.01369
1.01363
1.0135
1.0133
1.01312
1.01313
1.01331
1.0138
1.01418
1.01438
1.01435
1.01416
1.01397
1.01402
1.01417
1.01431
1.01425
1.01412
1.01405
1.01413
1.01425
1.01432
1.01431
1.01432
1.01439
1.01448
1.01445
1.01437
1.01435
1.0144
1.01448
1.01459
1.01469
1.01478
1.01486
1.01491
1.01497
1.01501
1.01499
1.01498
1.015
1.01505
1.0151
1.01519
0.976603
0.9766
0.976597
0.976594
0.976592
0.976589
0.976583
0.976575
0.976569
0.976564
0.976558
0.976556
0.976553
0.976546
0.976539
0.976532
0.976524
0.976515
0.976508
0.976501
0.976493
0.976487
0.976482
0.976478
0.976473
0.976472
0.976478
0.976495
0.976523
0.976592
0.976586
0.976592
0.976619
0.976682
0.976804
0.977064
0.977544
0.978312
0.979594
0.981345
0.984069
0.987239
0.991297
0.995919
1.00003
1.00432
1.00746
1.01034
1.01134
1.01232
1.01266
1.01296
1.01337
1.01377
1.01392
1.01387
1.01367
1.01332
1.01303
1.01284
1.01266
1.01266
1.01279
1.0129
1.01311
1.01337
1.01342
1.01349
1.01352
1.01346
1.01342
1.01347
1.01352
1.0135
1.01343
1.01337
1.01341
1.0135
1.0136
1.01359
1.01358
1.01361
1.01365
1.01362
1.01354
1.01354
1.01358
1.01366
1.01375
1.01381
1.01388
1.01394
1.01398
1.01402
1.01401
1.01397
1.01396
1.01398
1.01403
1.0141
0.976158
0.976156
0.976155
0.976154
0.976152
0.97615
0.97615
0.976149
0.976145
0.976142
0.976142
0.976141
0.97614
0.976139
0.976139
0.976139
0.976138
0.976138
0.976139
0.97614
0.976142
0.976146
0.976152
0.976158
0.976163
0.976166
0.97617
0.976177
0.976187
0.976205
0.976226
0.976249
0.976278
0.976312
0.976392
0.97639
0.976403
0.976445
0.97655
0.976748
0.977241
0.978097
0.9797
0.98193
0.985422
0.989428
0.994282
0.999108
1.00322
1.00726
1.00941
1.01131
1.0124
1.01305
1.01325
1.01325
1.01314
1.01293
1.01284
1.01293
1.01289
1.01273
1.01254
1.01241
1.01239
1.01248
1.01266
1.01298
1.01313
1.01314
1.01308
1.01305
1.0131
1.01316
1.01313
1.01304
1.01302
1.01306
1.01314
1.01322
1.01321
1.0132
1.01322
1.01322
1.01318
1.01312
1.01313
1.01316
1.01323
1.01331
1.01335
1.0134
1.01345
1.01348
1.01347
1.01342
1.01337
1.01339
1.01342
1.01347
0.975906
0.975906
0.975908
0.975911
0.975913
0.975914
0.975914
0.975915
0.975915
0.975917
0.97592
0.975923
0.975926
0.975929
0.975932
0.975937
0.975942
0.975947
0.975953
0.975959
0.975969
0.975979
0.97599
0.976002
0.976015
0.976027
0.976037
0.976051
0.976065
0.976076
0.97609
0.976106
0.976125
0.976141
0.976159
0.976189
0.976223
0.976258
0.976298
0.976378
0.976391
0.976428
0.976539
0.976837
0.977562
0.978813
0.981207
0.984386
0.988903
0.99371
0.998803
1.00367
1.00646
1.0093
1.01046
1.01147
1.01176
1.01242
1.01293
1.01319
1.01312
1.01291
1.01245
1.01208
1.01204
1.01219
1.01246
1.01268
1.01273
1.01275
1.01277
1.01287
1.01295
1.01296
1.01294
1.01289
1.01285
1.01286
1.01288
1.01293
1.01297
1.01299
1.013
1.01299
1.01298
1.01294
1.01291
1.0129
1.01292
1.01299
1.01307
1.01312
1.01316
1.01318
1.01318
1.01314
1.01307
1.01307
1.01308
1.01312
0.975776
0.97578
0.975784
0.975789
0.975794
0.975798
0.975801
0.975805
0.975809
0.975814
0.97582
0.975826
0.975832
0.975839
0.975845
0.975853
0.975861
0.975869
0.975879
0.975889
0.975899
0.975909
0.975921
0.975935
0.975947
0.975958
0.975969
0.975981
0.975992
0.976002
0.976012
0.976025
0.976034
0.976042
0.976052
0.976067
0.976083
0.976098
0.976116
0.976139
0.976172
0.976206
0.976269
0.976275
0.9763
0.976387
0.976665
0.977271
0.978687
0.98089
0.984677
0.989128
0.994489
0.999803
1.00393
1.00775
1.00994
1.01168
1.01221
1.01261
1.01257
1.0123
1.0122
1.01223
1.01227
1.01234
1.01232
1.01231
1.01228
1.01235
1.01251
1.01269
1.01283
1.0128
1.01277
1.01279
1.01279
1.01277
1.01273
1.01274
1.01278
1.01283
1.01286
1.01285
1.01285
1.01283
1.01278
1.01274
1.01273
1.01277
1.01285
1.01293
1.01297
1.013
1.01299
1.01296
1.0129
1.01287
1.01288
1.01291
0.975716
0.975721
0.975726
0.975732
0.97574
0.975745
0.975749
0.975755
0.975761
0.975768
0.975775
0.975783
0.975791
0.975799
0.975806
0.975814
0.975824
0.975831
0.975839
0.975847
0.975856
0.975866
0.975875
0.975884
0.975893
0.975901
0.975908
0.975914
0.975919
0.975923
0.975928
0.975933
0.975937
0.975941
0.975949
0.975958
0.975965
0.975973
0.975982
0.975992
0.976002
0.976012
0.976028
0.976049
0.976078
0.976099
0.976098
0.976104
0.976183
0.976446
0.977222
0.978669
0.981576
0.985426
0.990726
0.99625
1.00105
1.00572
1.00782
1.01005
1.01063
1.0114
1.01202
1.01267
1.01265
1.01254
1.01231
1.01199
1.01202
1.01214
1.01233
1.01245
1.01258
1.0126
1.01266
1.01273
1.01272
1.01267
1.0126
1.01261
1.01263
1.01266
1.0127
1.01271
1.01273
1.01272
1.01268
1.01262
1.01258
1.0126
1.01266
1.01275
1.01281
1.01284
1.01283
1.01282
1.01278
1.01273
1.01273
1.01274
0.975651
0.975656
0.975661
0.975666
0.975671
0.975676
0.975682
0.97569
0.975697
0.975702
0.975707
0.975713
0.97572
0.975726
0.975734
0.975743
0.975752
0.975758
0.975763
0.975769
0.975775
0.975782
0.975788
0.975792
0.975796
0.975801
0.975804
0.975804
0.975802
0.9758
0.975798
0.975796
0.975793
0.975792
0.975793
0.975795
0.975797
0.9758
0.975804
0.975808
0.975812
0.975816
0.97582
0.975825
0.975836
0.975849
0.975857
0.975868
0.975856
0.975821
0.97583
0.975938
0.976349
0.977277
0.979461
0.982623
0.987633
0.993086
0.99861
1.00388
1.00708
1.01024
1.01122
1.01207
1.01204
1.01172
1.01171
1.0118
1.01201
1.01217
1.01214
1.01209
1.01213
1.01231
1.01252
1.01263
1.01259
1.01252
1.01248
1.01248
1.01249
1.01248
1.0125
1.01254
1.01259
1.01258
1.01254
1.01248
1.01242
1.01243
1.01247
1.01255
1.01261
1.01267
1.01266
1.01266
1.01265
1.01259
1.01258
1.01258
0.975546
0.975546
0.975546
0.975547
0.975549
0.975554
0.97556
0.975566
0.97557
0.975574
0.975579
0.975587
0.97559
0.975593
0.975598
0.975604
0.975611
0.975617
0.97562
0.975621
0.975625
0.975631
0.975637
0.975638
0.975638
0.97564
0.975641
0.97564
0.975638
0.975631
0.975623
0.975616
0.975609
0.975601
0.975594
0.975588
0.975582
0.975576
0.975572
0.975569
0.975568
0.975569
0.97557
0.975573
0.975576
0.975581
0.975588
0.975604
0.975612
0.975609
0.9756
0.975562
0.975518
0.975555
0.975763
0.976369
0.977975
0.98057
0.985209
0.990483
0.996339
1.00207
1.00522
1.00843
1.00926
1.01027
1.01116
1.01212
1.01223
1.01215
1.01189
1.0117
1.01179
1.01205
1.01223
1.01232
1.0123
1.01231
1.01234
1.01233
1.01229
1.01226
1.01228
1.01234
1.01239
1.01238
1.01234
1.01231
1.01226
1.01225
1.01226
1.01231
1.01237
1.01244
1.01246
1.01247
1.01248
1.01244
1.01241
1.0124
0.975368
0.975368
0.975369
0.97537
0.975373
0.975377
0.975378
0.975376
0.975375
0.975379
0.975384
0.97539
0.975392
0.975392
0.975392
0.975395
0.975401
0.975405
0.975406
0.975408
0.97541
0.975414
0.975418
0.975419
0.975421
0.975423
0.975424
0.975424
0.975422
0.975416
0.975409
0.975401
0.975391
0.975378
0.975364
0.97535
0.975335
0.975319
0.975303
0.975289
0.975278
0.975272
0.975271
0.975271
0.975272
0.975275
0.975281
0.975291
0.975306
0.975317
0.975316
0.975306
0.975291
0.975241
0.975171
0.975176
0.975297
0.975708
0.97693
0.979119
0.983365
0.98849
0.99467
1.00068
1.00478
1.00881
1.01013
1.01133
1.01142
1.01124
1.01119
1.0114
1.01166
1.01183
1.01186
1.01185
1.01188
1.01203
1.01214
1.01209
1.01204
1.01202
1.01205
1.01209
1.0121
1.01209
1.01209
1.01209
1.01207
1.01202
1.01202
1.01204
1.01209
1.01215
1.01221
1.01225
1.01226
1.01224
1.01221
1.01217
0.975155
0.975154
0.975155
0.975155
0.975155
0.975154
0.975153
0.97515
0.975148
0.975148
0.97515
0.975151
0.97515
0.975147
0.975146
0.975149
0.975152
0.975151
0.975152
0.975153
0.975156
0.975158
0.975158
0.97516
0.975163
0.975167
0.975171
0.975173
0.975173
0.975172
0.97517
0.975165
0.975154
0.97514
0.975124
0.975106
0.975085
0.97506
0.975036
0.975011
0.974987
0.974963
0.974948
0.974944
0.974942
0.974941
0.974941
0.974944
0.974958
0.974981
0.975
0.975001
0.974996
0.974977
0.974938
0.97487
0.974797
0.974798
0.974882
0.97519
0.976179
0.978101
0.982092
0.987046
0.993368
0.999664
1.00343
1.00721
1.00832
1.00963
1.01069
1.01165
1.01162
1.0115
1.01128
1.01132
1.01156
1.01173
1.01179
1.01178
1.01178
1.01182
1.01182
1.01181
1.01177
1.01177
1.0118
1.01183
1.01183
1.01179
1.01177
1.01177
1.01179
1.01184
1.01192
1.01199
1.01201
1.012
1.01198
1.01192
0.974915
0.974911
0.974909
0.974908
0.974906
0.974903
0.974899
0.974894
0.974891
0.974891
0.97489
0.974888
0.974885
0.974882
0.974883
0.974883
0.974881
0.974878
0.974878
0.97488
0.974883
0.974884
0.974884
0.974884
0.974888
0.974892
0.974897
0.974902
0.974908
0.974914
0.974918
0.974918
0.974913
0.974904
0.974892
0.974875
0.974851
0.974824
0.974795
0.974762
0.974726
0.974691
0.974655
0.974623
0.974603
0.974593
0.974588
0.974589
0.974595
0.974618
0.974654
0.974679
0.974685
0.974683
0.97467
0.97463
0.974553
0.974475
0.974457
0.97447
0.974552
0.974836
0.975725
0.97748
0.981253
0.986182
0.992701
0.999157
1.00376
1.00811
1.00958
1.01077
1.01072
1.01044
1.01062
1.011
1.01137
1.01135
1.01134
1.01138
1.01152
1.01159
1.01156
1.01149
1.01144
1.01147
1.01153
1.01156
1.01156
1.01155
1.01152
1.01148
1.01149
1.01152
1.0116
1.0117
1.01175
1.01175
1.01172
1.01167
0.974671
0.974667
0.974663
0.974659
0.974655
0.97465
0.974645
0.974641
0.974636
0.974632
0.974629
0.974626
0.974625
0.974624
0.974623
0.974622
0.974619
0.974616
0.974615
0.974617
0.974619
0.97462
0.974622
0.974624
0.974626
0.974628
0.974631
0.974637
0.974645
0.974653
0.974661
0.974667
0.974672
0.974672
0.974664
0.97465
0.974631
0.974606
0.974576
0.97454
0.974499
0.974452
0.974404
0.974353
0.974304
0.974276
0.974263
0.974255
0.974257
0.974272
0.974306
0.974352
0.974395
0.974415
0.974415
0.974405
0.974359
0.974274
0.974203
0.974196
0.974207
0.974258
0.974377
0.974658
0.975437
0.977054
0.980765
0.985751
0.992425
0.999034
1.00301
1.00687
1.00789
1.00926
1.01056
1.01107
1.01103
1.01082
1.01085
1.01105
1.01128
1.01135
1.0113
1.01119
1.01119
1.01123
1.01126
1.01129
1.01132
1.01131
1.01129
1.01124
1.01123
1.01125
1.01132
1.0114
1.01147
1.0115
1.01148
1.01143
0.974451
0.974447
0.974442
0.974437
0.974431
0.974426
0.97442
0.974414
0.974407
0.974401
0.974395
0.974389
0.974383
0.974379
0.974377
0.974374
0.974371
0.974371
0.974371
0.97437
0.97437
0.974372
0.974377
0.974378
0.974378
0.97438
0.974383
0.974389
0.974396
0.974404
0.974413
0.974422
0.97443
0.974436
0.974441
0.974441
0.97443
0.974414
0.974393
0.974364
0.974325
0.974278
0.974223
0.974163
0.974095
0.974029
0.973995
0.973988
0.973986
0.97399
0.974013
0.974061
0.974122
0.974183
0.974211
0.974211
0.974199
0.974145
0.974054
0.973991
0.973993
0.974009
0.97407
0.974182
0.974288
0.974484
0.975157
0.976752
0.980588
0.98587
0.992786
0.999579
1.00427
1.00821
1.00948
1.01036
1.00997
1.0101
1.01047
1.01086
1.01102
1.011
1.01092
1.01095
1.01103
1.01104
1.01102
1.01104
1.01108
1.0111
1.01108
1.01104
1.01102
1.01104
1.01108
1.01114
1.01123
1.01126
1.01125
1.01122
0.974271
0.974266
0.974262
0.974256
0.97425
0.974244
0.974237
0.974229
0.97422
0.97421
0.9742
0.97419
0.974178
0.974167
0.974155
0.974143
0.974132
0.974128
0.974127
0.974126
0.974128
0.974131
0.974135
0.974138
0.974138
0.974138
0.974141
0.974146
0.974153
0.974162
0.974173
0.974186
0.974202
0.97422
0.974238
0.974253
0.974258
0.974254
0.974239
0.97422
0.974194
0.974158
0.974113
0.974058
0.973992
0.973915
0.973842
0.973806
0.9738
0.9738
0.973807
0.973838
0.973897
0.97397
0.974035
0.974061
0.974063
0.974046
0.973986
0.973886
0.973826
0.973821
0.973843
0.97391
0.97404
0.974094
0.974098
0.97424
0.974937
0.976724
0.980954
0.986576
0.99357
1.00049
1.00372
1.00704
1.00816
1.00961
1.01071
1.01068
1.01058
1.01047
1.01056
1.01081
1.01092
1.01089
1.01084
1.01086
1.01089
1.01091
1.0109
1.01088
1.01089
1.0109
1.01091
1.01094
1.011
1.01108
1.01107
1.01105
0.974125
0.974122
0.974119
0.974115
0.974111
0.974106
0.9741
0.974092
0.974084
0.974074
0.974062
0.974049
0.974035
0.974019
0.974002
0.973982
0.973961
0.973939
0.973917
0.973899
0.973891
0.973891
0.973891
0.973889
0.973883
0.973876
0.973872
0.973871
0.97387
0.973872
0.973877
0.973886
0.973902
0.973925
0.973958
0.974
0.974044
0.974079
0.974098
0.974103
0.974096
0.974081
0.97406
0.974029
0.973984
0.973922
0.973844
0.973765
0.973717
0.973702
0.973702
0.973715
0.973756
0.973818
0.973882
0.973935
0.973959
0.973958
0.973935
0.973863
0.973755
0.973685
0.973679
0.9737
0.973792
0.9739
0.973957
0.973917
0.973895
0.974067
0.974977
0.97709
0.981783
0.987911
0.994873
1.00159
1.00592
1.00876
1.00991
1.00985
1.00969
1.01003
1.0105
1.01072
1.01072
1.01067
1.0107
1.01077
1.01077
1.01074
1.01075
1.01077
1.01082
1.01081
1.01079
1.0108
1.01083
1.0109
1.01095
1.01093
0.973996
0.973995
0.973995
0.973996
0.973995
0.973994
0.973991
0.973987
0.973982
0.973976
0.973969
0.973961
0.97395
0.973936
0.97392
0.9739
0.973879
0.973854
0.973825
0.973794
0.973763
0.973733
0.973708
0.973694
0.973689
0.973685
0.973682
0.973678
0.973674
0.973673
0.973673
0.973674
0.973677
0.973687
0.973707
0.973742
0.973789
0.973848
0.973908
0.973959
0.973992
0.974013
0.974021
0.974018
0.974005
0.973978
0.973927
0.973849
0.973757
0.973681
0.973651
0.973652
0.973671
0.973709
0.973772
0.973852
0.973898
0.973901
0.973893
0.973854
0.97376
0.973643
0.973594
0.973592
0.973625
0.973719
0.973818
0.973844
0.973838
0.973751
0.973786
0.974091
0.975283
0.977788
0.983033
0.989497
0.996249
1.0027
1.00523
1.0075
1.00885
1.0104
1.0106
1.01051
1.01037
1.01046
1.01066
1.01072
1.01067
1.0106
1.01065
1.01073
1.01076
1.01075
1.01073
1.01072
1.01073
1.01076
1.01082
1.01085
0.973887
0.973887
0.973887
0.973888
0.97389
0.973891
0.973891
0.973892
0.973894
0.973894
0.973893
0.973891
0.973887
0.97388
0.973872
0.973862
0.973849
0.973833
0.973811
0.973785
0.973751
0.973709
0.973664
0.973623
0.973593
0.973572
0.973557
0.973544
0.973534
0.973526
0.973523
0.973525
0.973529
0.973538
0.973553
0.973577
0.97361
0.973654
0.973712
0.973781
0.973853
0.973912
0.973957
0.97399
0.974003
0.974002
0.97399
0.973947
0.973865
0.973756
0.973659
0.973615
0.973612
0.97362
0.973637
0.973684
0.973776
0.973861
0.97387
0.973854
0.9738
0.973698
0.973599
0.973569
0.973578
0.973629
0.973721
0.973778
0.97378
0.973759
0.973682
0.973678
0.973804
0.974272
0.975825
0.978732
0.984658
0.99162
0.998296
1.0049
1.00775
1.00968
1.0099
1.00966
1.01
1.01048
1.01064
1.01061
1.01049
1.01053
1.01064
1.01072
1.01071
1.0107
1.0107
1.01069
1.01067
1.01068
1.01071
1.01078
0.973802
0.97381
0.973815
0.973819
0.973823
0.973826
0.97383
0.973834
0.973838
0.97384
0.97384
0.973841
0.973842
0.973844
0.973847
0.97385
0.973851
0.973849
0.973844
0.973832
0.973813
0.973786
0.97375
0.973709
0.973663
0.973616
0.973571
0.973534
0.973506
0.973486
0.973475
0.973475
0.973478
0.973483
0.97349
0.973503
0.973521
0.973543
0.973575
0.973622
0.973687
0.973767
0.97385
0.973924
0.973977
0.973994
0.973992
0.973977
0.973932
0.973854
0.973751
0.973643
0.97357
0.973546
0.973544
0.973555
0.97361
0.973717
0.973824
0.973853
0.973844
0.9738
0.973717
0.973637
0.973615
0.973625
0.973678
0.973739
0.973745
0.973731
0.973686
0.973642
0.97364
0.973693
0.97392
0.974533
0.976481
0.980061
0.986794
0.994178
1.00003
1.00524
1.0069
1.00863
1.01037
1.01054
1.01048
1.01028
1.01036
1.0106
1.01068
1.01067
1.01066
1.01068
1.0107
1.01069
1.01066
1.01064
1.01067
1.01073
0.973628
0.973643
0.973658
0.973674
0.973691
0.973708
0.973725
0.973743
0.97376
0.973777
0.973796
0.973815
0.973832
0.973844
0.973853
0.973861
0.973871
0.973881
0.973887
0.97389
0.97389
0.973888
0.97388
0.973864
0.973841
0.973813
0.973782
0.973745
0.973704
0.973663
0.973627
0.973596
0.973567
0.973544
0.97353
0.97352
0.973514
0.973513
0.97352
0.973538
0.973568
0.973615
0.973685
0.973771
0.973858
0.973921
0.973936
0.973927
0.973905
0.973876
0.973829
0.973743
0.973621
0.973516
0.973488
0.973493
0.973526
0.973598
0.973701
0.973804
0.973857
0.973864
0.973851
0.973796
0.973722
0.973688
0.973688
0.973712
0.973738
0.973723
0.973679
0.973634
0.97362
0.973628
0.973669
0.973756
0.974021
0.974854
0.977498
0.982053
0.98946
0.997113
1.003
1.00776
1.00954
1.00993
1.00959
1.00991
1.01042
1.01068
1.01065
1.01057
1.01061
1.01068
1.01069
1.01068
1.01065
1.01063
1.01064
1.0107
0.97354
0.97355
0.973561
0.973576
0.973592
0.973606
0.973623
0.973644
0.973666
0.973689
0.973715
0.973744
0.973773
0.973801
0.973828
0.973851
0.973871
0.973888
0.973902
0.973913
0.973924
0.973936
0.973948
0.973957
0.973959
0.97396
0.973959
0.973951
0.973932
0.973905
0.973875
0.973843
0.973804
0.97376
0.97371
0.973654
0.973593
0.973547
0.973531
0.973529
0.973533
0.973549
0.973576
0.973609
0.97365
0.973702
0.973765
0.97382
0.973854
0.97386
0.973853
0.973822
0.973745
0.973629
0.973526
0.973493
0.973499
0.973538
0.973609
0.973706
0.973817
0.973884
0.973897
0.973895
0.973856
0.973772
0.973713
0.9737
0.973697
0.973698
0.973681
0.973651
0.973628
0.973627
0.973653
0.973696
0.973725
0.973802
0.974195
0.975484
0.979091
0.984752
0.992388
1.00015
1.00383
1.00697
1.00855
1.01036
1.01064
1.01058
1.01042
1.01049
1.01063
1.01068
1.01067
1.01066
1.01065
1.01064
1.01064
1.01068
0.973508
0.973515
0.973525
0.973534
0.973545
0.973558
0.973572
0.973586
0.9736
0.973614
0.97363
0.973649
0.973671
0.973694
0.973718
0.973744
0.973769
0.973795
0.97382
0.973846
0.973871
0.973896
0.97392
0.97394
0.973957
0.97397
0.97398
0.973984
0.973985
0.973985
0.973985
0.973979
0.97396
0.973928
0.973883
0.973825
0.973756
0.973687
0.97362
0.973568
0.973549
0.973549
0.973553
0.973559
0.973564
0.973572
0.973596
0.973644
0.97372
0.973805
0.973845
0.973846
0.973829
0.97378
0.973705
0.973632
0.973589
0.973581
0.973591
0.973639
0.973729
0.973835
0.973891
0.9739
0.973891
0.97384
0.973751
0.973698
0.973681
0.973674
0.973677
0.973682
0.973678
0.973675
0.97368
0.973705
0.973741
0.973741
0.973753
0.973877
0.974591
0.976524
0.981377
0.988151
0.995623
1.00334
1.00721
1.00982
1.00993
1.00983
1.01013
1.01052
1.01064
1.01063
1.0106
1.01065
1.01066
1.01065
1.01065
1.01068
0.973561
0.973557
0.973557
0.973559
0.973562
0.973563
0.973562
0.973563
0.973564
0.973568
0.973574
0.973581
0.973586
0.97359
0.973592
0.973594
0.973595
0.973598
0.973605
0.97362
0.973642
0.97367
0.973701
0.973735
0.97377
0.973805
0.973843
0.973891
0.973947
0.973988
0.974001
0.974001
0.973994
0.973976
0.973947
0.973911
0.973874
0.973838
0.973802
0.973759
0.973702
0.973642
0.973596
0.97357
0.973557
0.973552
0.973557
0.973585
0.973639
0.973711
0.973786
0.973836
0.973845
0.973843
0.973841
0.973828
0.973785
0.973718
0.973668
0.973664
0.973685
0.973733
0.973798
0.97385
0.97386
0.973841
0.973783
0.973706
0.973667
0.97366
0.973667
0.973695
0.973732
0.973752
0.973753
0.973755
0.973757
0.973755
0.973752
0.973747
0.973786
0.974061
0.975305
0.978154
0.984384
0.991945
0.998685
1.00506
1.00682
1.00888
1.01043
1.01059
1.01049
1.01045
1.01056
1.01065
1.01065
1.01065
1.01067
1.01068
0.973725
0.973709
0.973693
0.973675
0.973658
0.97364
0.973618
0.973594
0.973573
0.973559
0.97355
0.973542
0.973533
0.973522
0.973514
0.973507
0.9735
0.973491
0.973486
0.973486
0.973487
0.97349
0.973501
0.973522
0.97355
0.973584
0.973623
0.97367
0.973722
0.973768
0.973805
0.973835
0.973861
0.973884
0.973907
0.973924
0.973936
0.973949
0.973956
0.973958
0.973944
0.973903
0.973846
0.973786
0.973723
0.97366
0.973622
0.973625
0.973643
0.973669
0.973701
0.973742
0.973793
0.973854
0.973889
0.97389
0.973882
0.97385
0.973794
0.973735
0.973704
0.973703
0.97371
0.973738
0.973772
0.973789
0.973784
0.973751
0.973696
0.973664
0.973663
0.973684
0.973739
0.973796
0.973813
0.97381
0.973793
0.973766
0.97375
0.973741
0.973745
0.97376
0.973881
0.974423
0.976497
0.980593
0.988032
0.996177
1.00284
1.00786
1.0098
1.00985
1.00986
1.01023
1.01062
1.01064
1.01061
1.01064
1.01069
1.01067
0.973868
0.973855
0.973842
0.973829
0.973815
0.973799
0.973781
0.973759
0.973734
0.973708
0.973682
0.973657
0.973631
0.973606
0.973584
0.973564
0.973546
0.973533
0.973521
0.973506
0.973491
0.973491
0.9735
0.973509
0.973522
0.973539
0.973562
0.97359
0.973618
0.973638
0.973653
0.973677
0.973714
0.973758
0.973813
0.973893
0.973956
0.973996
0.974018
0.974025
0.974025
0.974014
0.973992
0.973967
0.97394
0.973905
0.973857
0.973797
0.973729
0.973665
0.973649
0.973648
0.973672
0.973739
0.97382
0.973881
0.973898
0.973892
0.973871
0.973834
0.973775
0.97372
0.973707
0.97371
0.973718
0.97374
0.973774
0.973785
0.973772
0.97373
0.973696
0.973697
0.973725
0.973786
0.973828
0.973828
0.973815
0.973784
0.973762
0.973758
0.973761
0.97377
0.973771
0.973797
0.974063
0.97512
0.978385
0.984012
0.992246
1.00012
1.00449
1.00732
1.00927
1.01058
1.01056
1.01047
1.01054
1.01069
1.0107
1.01065
0.973994
0.97399
0.973987
0.973981
0.973966
0.973958
0.973954
0.973943
0.973933
0.973933
0.97393
0.973922
0.973922
0.973922
0.973922
0.973923
0.973925
0.973926
0.973924
0.973915
0.973896
0.973868
0.973838
0.973811
0.973789
0.973769
0.973747
0.973722
0.973696
0.973677
0.973674
0.973681
0.973713
0.973761
0.973813
0.973863
0.973901
0.973943
0.973976
0.973987
0.973996
0.973986
0.973961
0.973945
0.973954
0.97397
0.973974
0.973957
0.973883
0.973748
0.973634
0.973621
0.973624
0.973644
0.973664
0.973684
0.973717
0.973782
0.973858
0.973882
0.97388
0.973855
0.973804
0.97375
0.973729
0.973734
0.973763
0.973799
0.973805
0.973793
0.973758
0.973723
0.973721
0.973745
0.973797
0.973818
0.973814
0.973789
0.973773
0.973777
0.973789
0.973806
0.973806
0.973813
0.973817
0.973909
0.974519
0.97637
0.981354
0.988459
0.996463
1.00456
1.00802
1.01004
1.00967
1.01003
1.01055
1.0107
1.01066
1.01058
0.973962
0.973975
0.973978
0.973971
0.973971
0.973978
0.973982
0.973987
0.974002
0.97401
0.974015
0.974026
0.974045
0.974068
0.974095
0.974128
0.97417
0.974216
0.97426
0.974286
0.974292
0.974295
0.974295
0.974281
0.974244
0.974194
0.97414
0.974088
0.974026
0.973945
0.973887
0.97386
0.973849
0.973851
0.973861
0.973896
0.973906
0.973879
0.97385
0.973833
0.9738
0.973769
0.973759
0.973776
0.973856
0.973965
0.973996
0.973994
0.973948
0.973843
0.973752
0.97371
0.973692
0.973676
0.973632
0.973603
0.973606
0.973638
0.973725
0.973852
0.97394
0.973961
0.973958
0.973917
0.973829
0.973757
0.973744
0.973752
0.973792
0.973809
0.973791
0.973749
0.973722
0.973726
0.973754
0.973795
0.973806
0.973799
0.973789
0.973796
0.973823
0.973845
0.973843
0.973831
0.973823
0.973818
0.973857
0.974117
0.9754
0.978481
0.985258
0.993661
1.00008
1.00597
1.00767
1.00985
1.01059
1.01054
1.01041
1.01052
0.973758
0.973734
0.973706
0.973702
0.973712
0.973738
0.97375
0.973766
0.973791
0.973808
0.973829
0.973861
0.973893
0.973934
0.973988
0.97405
0.974126
0.974193
0.97423
0.97425
0.974267
0.974281
0.974295
0.9743
0.974289
0.974271
0.97426
0.974235
0.97417
0.974134
0.974124
0.974104
0.974074
0.974041
0.974015
0.973983
0.973926
0.973851
0.973777
0.97369
0.973589
0.973524
0.973503
0.973507
0.973555
0.973654
0.973757
0.973841
0.9739
0.973912
0.973922
0.973938
0.973951
0.973932
0.973832
0.973684
0.973624
0.973633
0.973683
0.973776
0.973903
0.973999
0.974013
0.973997
0.973939
0.973833
0.97374
0.973708
0.973707
0.973739
0.973766
0.973762
0.97374
0.973735
0.973751
0.973789
0.973817
0.973828
0.97383
0.973837
0.973859
0.973862
0.973858
0.973847
0.973827
0.973818
0.973803
0.97381
0.973924
0.97455
0.976968
0.981871
0.989971
0.99867
1.00499
1.00903
1.00987
1.00965
1.01005
1.01058
0.973404
0.973386
0.97335
0.973329
0.973323
0.973311
0.9733
0.973301
0.973302
0.97329
0.973277
0.973281
0.973302
0.973335
0.97338
0.97343
0.973485
0.97354
0.973613
0.973677
0.973723
0.97378
0.973855
0.973908
0.973934
0.973956
0.973982
0.974003
0.974021
0.974043
0.974069
0.974079
0.974067
0.974042
0.97402
0.973995
0.973952
0.973864
0.973735
0.973599
0.973501
0.973443
0.973413
0.973421
0.973469
0.973534
0.973579
0.973613
0.973675
0.973801
0.973966
0.974062
0.974091
0.974092
0.974048
0.973956
0.973857
0.973796
0.973773
0.973777
0.973805
0.973878
0.973956
0.973982
0.973964
0.973892
0.973801
0.973713
0.973668
0.973664
0.973681
0.97373
0.973773
0.973787
0.973796
0.973813
0.973834
0.973854
0.973861
0.973871
0.973873
0.973869
0.973865
0.973857
0.973839
0.973811
0.973787
0.973765
0.973748
0.973791
0.974157
0.975584
0.979779
0.986492
0.995163
1.0029
1.00593
1.00839
1.01039
1.01057
0.973365
0.973348
0.973323
0.973303
0.973292
0.973274
0.973259
0.973259
0.973255
0.973236
0.973213
0.973208
0.973227
0.973263
0.973264
0.973225
0.973164
0.973143
0.973145
0.973158
0.973171
0.973203
0.973271
0.973349
0.973413
0.973467
0.973507
0.973539
0.973574
0.973615
0.973659
0.973701
0.973743
0.973794
0.97385
0.973888
0.973906
0.973914
0.973896
0.973868
0.973867
0.973863
0.973843
0.973786
0.973683
0.973548
0.973472
0.973471
0.973551
0.973656
0.973729
0.97384
0.973969
0.974011
0.973996
0.973994
0.974036
0.974048
0.974002
0.973877
0.973774
0.973741
0.973736
0.973766
0.973849
0.973909
0.973904
0.973855
0.973744
0.97365
0.973647
0.973691
0.973787
0.973862
0.973878
0.973873
0.973865
0.973867
0.973871
0.973876
0.973873
0.973862
0.973849
0.973833
0.973807
0.973773
0.973748
0.973729
0.97371
0.973706
0.973728
0.973913
0.974904
0.977608
0.984093
0.99213
1.00049
1.00707
1.00952
1.00989
0.974568
0.974543
0.974518
0.974508
0.974506
0.974504
0.974502
0.974497
0.974484
0.974447
0.974388
0.974324
0.974244
0.974122
0.973956
0.973746
0.973481
0.973305
0.973283
0.973286
0.973297
0.973329
0.973394
0.973482
0.973581
0.973613
0.97361
0.973612
0.97362
0.973577