/*--------------------------------*- C++ -*----------------------------------*\
  =========                 |
  \\      /  F ield         | OpenFOAM: The Open Source CFD Toolbox
   \\    /   O peration     | Website:  https://openfoam.org
    \\  /    A nd           | Version:  7
     \\/     M anipulation  |
\*---------------------------------------------------------------------------*/
FoamFile
{
    version     2.0;
    format      ascii;
    class       volVectorField;
    location    "0.1";
    object      U;
}
// * * * * * * * * * * * * * * * * * * * * * * * * * * * * * * * * * * * * * //

dimensions      [0 1 -1 0 0 0 0];

internalField   nonuniform List<vector> 
1750
(
(2.85169 -0.0316246 0)
(2.96101 -0.00638442 0)
(2.99792 -0.000285524 0)
(2.99998 -2.30841e-06 0)
(3 -1.03178e-08 0)
(3 -7.22337e-10 0)
(3 7.79954e-13 0)
(3 5.96659e-14 0)
(3 -6.7547e-15 0)
(3 -1.01416e-15 0)
(2.99834 -0.0725792 0)
(2.99788 -0.00788379 0)
(2.99991 -0.000176247 0)
(3 -9.34733e-07 0)
(3 4.50291e-08 0)
(3 1.30596e-08 0)
(3 4.09498e-10 0)
(3 8.82544e-13 0)
(3 4.0037e-14 0)
(3 2.33579e-16 0)
(3.00012 -0.00227337 0)
(2.99999 -0.000130823 0)
(3 -2.55615e-06 0)
(3 -4.39916e-08 0)
(3 -1.00113e-09 0)
(3 3.96296e-11 0)
(3 2.63285e-12 0)
(3 -2.86981e-14 0)
(3 -4.25212e-15 0)
(3 8.9798e-18 0)
(3 -2.31023e-05 0)
(3 -1.46082e-06 0)
(3 -4.92571e-08 0)
(3 -1.23186e-09 0)
(3 -1.0925e-10 0)
(3 -9.00095e-13 0)
(3 1.85671e-14 0)
(3 1.73567e-15 0)
(3 -8.05846e-20 0)
(3 -3.33011e-16 0)
(3 -1.55169e-07 0)
(3 -9.2793e-09 0)
(3 -3.1605e-10 0)
(3 -5.0964e-12 0)
(3 -2.62216e-13 0)
(3 -1.78077e-14 0)
(3 -6.77808e-17 0)
(3 1.70641e-16 0)
(3 2.29554e-16 0)
(3 1.17423e-16 0)
(3 -6.16915e-10 0)
(3 -2.75419e-11 0)
(3 -7.6926e-13 0)
(3 -8.6623e-15 0)
(3 -1.86281e-16 0)
(3 8.59198e-17 0)
(3 1.39209e-16 0)
(3 8.28923e-17 0)
(3 1.16142e-17 0)
(3 1.82351e-16 0)
(3 -1.43317e-12 0)
(3 -4.47304e-14 0)
(3 -7.15048e-16 0)
(3 1.11871e-16 0)
(3 -3.64462e-18 0)
(3 1.65312e-16 0)
(3 1.98583e-16 0)
(3 3.21979e-16 0)
(3 -1.40769e-16 0)
(3 -6.147e-17 0)
(3 -1.70186e-15 0)
(3 1.26421e-17 0)
(3 1.24695e-16 0)
(3 1.22486e-16 0)
(3 -1.9644e-17 0)
(3 -4.83855e-17 0)
(3 -1.4166e-16 0)
(3 1.03832e-16 0)
(3 1.11304e-16 0)
(3 7.53563e-18 0)
(3 -7.1829e-17 0)
(3 1.13354e-16 0)
(3 2.44284e-17 0)
(3 -1.58521e-16 0)
(3 2.23815e-16 0)
(3 1.42854e-16 0)
(3 6.4397e-17 0)
(3 -1.5683e-16 0)
(3 1.21589e-16 0)
(3 -3.67847e-17 0)
(3 -7.59705e-17 0)
(3 -5.98904e-17 0)
(3 -2.07947e-16 0)
(3 -1.20984e-16 0)
(3 4.68191e-17 0)
(3 -2.79054e-17 0)
(3 1.36863e-16 0)
(3 -6.70178e-17 0)
(3 -5.4639e-16 0)
(3 -1.35611e-16 0)
(3 9.07861e-17 0)
(3 3.51786e-17 0)
(3 -3.395e-16 0)
(3 -2.3853e-17 0)
(3 -1.61303e-16 0)
(3 -1.42249e-16 0)
(3 -2.05176e-16 0)
(3 -8.76508e-17 0)
(3 8.27203e-17 0)
(3 1.6354e-16 0)
(3 -2.90291e-17 0)
(3 -8.57171e-17 0)
(3 1.64254e-16 0)
(3 8.24101e-17 0)
(3 -4.37466e-17 0)
(3 4.65433e-17 0)
(3 -3.17318e-17 0)
(3 -6.54502e-17 0)
(3 2.61727e-16 0)
(3 1.45235e-17 0)
(3 -1.28506e-16 0)
(3 -1.77787e-17 0)
(3 1.83753e-16 0)
(3 1.26444e-16 0)
(3 1.42565e-16 0)
(3 1.6538e-16 0)
(3 8.4462e-17 0)
(3 1.66966e-17 0)
(3 -2.09515e-16 0)
(3 -2.2346e-16 0)
(3 -3.3487e-17 0)
(3 -2.21321e-17 0)
(3 -1.35705e-17 0)
(3 -8.94587e-17 0)
(3 6.46135e-18 0)
(3 4.15566e-17 0)
(3 -3.75214e-17 0)
(3 3.00691e-17 0)
(3 -3.3256e-17 0)
(3 9.10306e-17 0)
(3 3.91985e-18 0)
(3 -4.03981e-17 0)
(3 -3.57439e-17 0)
(3 -7.14688e-17 0)
(3 -3.54543e-17 0)
(3 1.6885e-18 0)
(3 -4.6018e-17 0)
(3 -8.75416e-18 0)
(3 7.98166e-17 0)
(3 7.0542e-17 0)
(2.72103 0.0138555 0)
(3.01682 -0.20464 0)
(3.00195 -0.0163405 0)
(3 -0.000318673 0)
(3 -3.07691e-06 0)
(3 -1.9896e-08 0)
(3 -7.97739e-11 0)
(3 -1.92997e-13 0)
(3 -3.94741e-16 0)
(3 6.06191e-18 0)
(3 -9.1155e-17 0)
(3 1.14165e-16 0)
(3 2.5831e-17 0)
(3 1.02968e-17 0)
(3 1.95668e-17 0)
(2.78969 0.0100952 0)
(3.02709 -0.170267 0)
(3.002 -0.0116203 0)
(3.00001 -0.000207114 0)
(3 -1.99674e-06 0)
(3 -1.31797e-08 0)
(3 -5.45325e-11 0)
(3 -1.37174e-13 0)
(3 -3.70459e-16 0)
(3 -1.12396e-17 0)
(3 4.70505e-17 0)
(3 -1.0044e-16 0)
(3 1.13295e-16 0)
(3 8.19845e-17 0)
(3 1.60648e-17 0)
(2.78737 0.0102907 0)
(3.02427 -0.175659 0)
(3.00186 -0.0124918 0)
(3.00001 -0.000231492 0)
(3 -2.28075e-06 0)
(3 -1.53458e-08 0)
(3 -6.45814e-11 0)
(3 -1.65053e-13 0)
(3 -3.31295e-16 0)
(3 2.61798e-16 0)
(3 1.00788e-17 0)
(3 -3.21367e-16 0)
(3 2.68674e-16 0)
(3 1.54023e-16 0)
(3 -3.76416e-17 0)
(2.78628 0.0104544 0)
(3.02261 -0.179648 0)
(3.00178 -0.0130921 0)
(3 -0.00024791 0)
(3 -2.4697e-06 0)
(3 -1.68251e-08 0)
(3 -7.18816e-11 0)
(3 -1.86391e-13 0)
(3 -4.42214e-16 0)
(3 1.05417e-16 0)
(3 1.21018e-16 0)
(3 -2.66317e-16 0)
(3 1.5123e-16 0)
(3 1.7987e-16 0)
(3 -4.55632e-17 0)
(2.78515 0.0106189 0)
(3.02059 -0.183992 0)
(3.00167 -0.0137974 0)
(3 -0.000268397 0)
(3 -2.71184e-06 0)
(3 -1.87229e-08 0)
(3 -8.11308e-11 0)
(3 -2.13337e-13 0)
(3 -3.72062e-16 0)
(3 1.65751e-16 0)
(3 1.0241e-16 0)
(3 -3.47725e-16 0)
(3 4.51012e-17 0)
(3 2.82203e-16 0)
(3 -8.10454e-17 0)
(2.7841 0.0107811 0)
(3.01851 -0.188463 0)
(3.00155 -0.0145397 0)
(3 -0.000290681 0)
(3 -2.97964e-06 0)
(3 -2.08501e-08 0)
(3 -9.16575e-11 0)
(3 -2.44105e-13 0)
(3 -4.67763e-16 0)
(3 -7.09591e-17 0)
(3 7.2313e-17 0)
(3 -4.03924e-17 0)
(3 -1.51336e-16 0)
(3 1.59115e-16 0)
(3 7.08459e-18 0)
(2.78311 0.0109401 0)
(3.01631 -0.19309 0)
(3.00141 -0.0153347 0)
(2.99999 -0.000315477 0)
(3 -3.28257e-06 0)
(3 -2.32767e-08 0)
(3 -1.03787e-10 0)
(3 -2.80519e-13 0)
(3 -7.19429e-16 0)
(3 -1.87376e-16 0)
(3 2.50898e-16 0)
(3 3.41866e-17 0)
(3 -1.05435e-16 0)
(3 1.02968e-16 0)
(3 -2.16961e-17 0)
(2.78222 0.0110847 0)
(3.01401 -0.197869 0)
(3.00125 -0.0161814 0)
(2.99999 -0.000342886 0)
(3 -3.62542e-06 0)
(3 -2.60717e-08 0)
(3 -1.17889e-10 0)
(3 -3.22953e-13 0)
(3 -7.18318e-16 0)
(3 -6.25091e-17 0)
(3 1.0084e-16 0)
(3 7.3563e-17 0)
(3 -4.64373e-18 0)
(3 -2.62134e-17 0)
(3 4.22998e-18 0)
(2.7815 0.0111821 0)
(3.01146 -0.202905 0)
(3.00111 -0.0170381 0)
(2.99999 -0.000368954 0)
(3 -3.91019e-06 0)
(3 -2.86071e-08 0)
(3 -1.33116e-10 0)
(3 -3.73382e-13 0)
(3 -6.93069e-16 0)
(3 3.38314e-17 0)
(3 1.52584e-16 0)
(3 9.24962e-17 0)
(3 4.28098e-17 0)
(3 -1.46218e-16 0)
(3 4.81151e-18 0)
(2.78088 0.0112708 0)
(3.00826 -0.208612 0)
(3.00094 -0.0178151 0)
(2.99999 -0.00037603 0)
(3 -3.75411e-06 0)
(3 -2.67587e-08 0)
(3 -1.27376e-10 0)
(3 -3.77431e-13 0)
(3 -6.69224e-16 0)
(3 -2.0614e-17 0)
(3 2.48733e-17 0)
(3 3.1601e-18 0)
(3 4.27721e-17 0)
(3 -9.157e-17 0)
(3 2.96274e-18 0)
(2.78064 0.0113785 0)
(3.0049 -0.215011 0)
(3.00059 -0.0186975 0)
(2.99999 -0.000383699 0)
(3 -3.53803e-06 0)
(3 -2.35333e-08 0)
(3 -1.08785e-10 0)
(3 -3.22545e-13 0)
(3 -4.74741e-16 0)
(3 2.05509e-17 0)
(3 -4.37431e-17 0)
(3 -1.462e-17 0)
(3 2.61595e-17 0)
(3 -4.79006e-17 0)
(3 6.80014e-17 0)
(2.78152 0.0115547 0)
(3.00483 -0.219095 0)
(3.00049 -0.019756 0)
(2.99998 -0.000417868 0)
(3 -3.75604e-06 0)
(3 -2.44237e-08 0)
(3 -1.14103e-10 0)
(3 -3.48833e-13 0)
(3 -5.62387e-16 0)
(3 2.95418e-17 0)
(3 -8.03743e-17 0)
(3 -5.82913e-17 0)
(3 1.27496e-16 0)
(3 -4.04575e-18 0)
(3 2.93769e-18 0)
(2.79026 0.012695 0)
(3.01961 -0.216736 0)
(3.00128 -0.0197258 0)
(2.99998 -0.000445163 0)
(3 -4.32414e-06 0)
(3 -2.87053e-08 0)
(3 -1.32319e-10 0)
(3 -4.02624e-13 0)
(3 -7.08176e-16 0)
(3 1.46124e-16 0)
(3 -4.90819e-17 0)
(3 -1.6244e-16 0)
(3 1.75424e-16 0)
(3 5.58066e-17 0)
(3 -1.49229e-18 0)
(2.93556 0.0337576 0)
(3.09899 -0.147239 0)
(3.00554 -0.0138226 0)
(2.99997 -0.000403641 0)
(3 -5.37464e-06 0)
(3 -4.36124e-08 0)
(3 -2.0539e-10 0)
(3 -5.83527e-13 0)
(3 -8.71949e-16 0)
(3 -9.8937e-18 0)
(3 -1.86945e-16 0)
(3 -3.96883e-18 0)
(3 1.43777e-16 0)
(3 -1.17262e-16 0)
(3 -1.03362e-16 0)
(3.08394 0.0701063 0)
(3.05107 -0.00432411 0)
(3.00489 -0.00429862 0)
(2.99969 -0.000485289 0)
(3 -6.82609e-06 0)
(3 -4.22233e-08 0)
(3 -2.33767e-10 0)
(3 -7.47951e-13 0)
(3 -1.87265e-15 0)
(3 -4.08059e-17 0)
(3 3.29834e-16 0)
(3 -3.00764e-17 0)
(3 2.79298e-17 0)
(3 -3.42502e-17 0)
(3 -1.49317e-16 0)
(2.97265 0.11432 0)
(2.99019 0.0415318 0)
(2.99997 0.000145 0)
(3 2.29985e-07 0)
(3 3.06339e-10 0)
(3 3.93373e-13 0)
(3 8.34517e-16 0)
(3 6.66835e-17 0)
(3 -3.56169e-16 0)
(3 4.07663e-17 0)
(3 7.71218e-17 0)
(3 -1.06751e-16 0)
(3 1.97058e-16 0)
(3 -5.50222e-17 0)
(3 -1.56609e-16 0)
(2.96852 0.111494 0)
(2.98993 0.0391126 0)
(2.99997 0.000126882 0)
(3 1.7343e-07 0)
(3 1.5838e-10 0)
(3 8.8264e-14 0)
(3 2.38118e-16 0)
(3 -1.85834e-17 0)
(3 -4.60358e-16 0)
(3 2.36305e-17 0)
(3 2.27227e-16 0)
(3 -1.48652e-16 0)
(3 1.57294e-16 0)
(3 5.18483e-17 0)
(3 -5.88048e-17 0)
(2.969 0.10966 0)
(2.99026 0.0387108 0)
(2.99997 0.000127973 0)
(3 1.85858e-07 0)
(3 2.01403e-10 0)
(3 1.70997e-13 0)
(3 4.19965e-16 0)
(3 7.83239e-16 0)
(3 -1.85645e-16 0)
(3 -1.76759e-16 0)
(3 -8.74949e-17 0)
(3 -2.20609e-16 0)
(3 6.69205e-17 0)
(3 1.76708e-16 0)
(3 3.03411e-17 0)
(2.96952 0.107821 0)
(2.99052 0.037497 0)
(2.99997 0.000120819 0)
(3 1.72866e-07 0)
(3 1.84622e-10 0)
(3 1.54452e-13 0)
(3 3.92982e-16 0)
(3 -1.08653e-16 0)
(3 9.40114e-17 0)
(3 2.32123e-18 0)
(3 8.52872e-17 0)
(3 -3.22229e-16 0)
(3 3.6696e-17 0)
(3 1.17084e-16 0)
(3 -1.89105e-17 0)
(2.97003 0.106048 0)
(2.99076 0.0365486 0)
(2.99997 0.000116163 0)
(3 1.64817e-07 0)
(3 1.74704e-10 0)
(3 1.45952e-13 0)
(3 2.35308e-16 0)
(3 -1.82871e-17 0)
(3 3.53268e-16 0)
(3 -9.3614e-17 0)
(3 -1.40138e-18 0)
(3 -6.26002e-17 0)
(3 -9.49336e-17 0)
(3 5.87346e-17 0)
(3 2.61266e-17 0)
(2.97054 0.104315 0)
(2.991 0.0356008 0)
(2.99997 0.00011138 0)
(3 1.56596e-07 0)
(3 1.64477e-10 0)
(3 1.35061e-13 0)
(3 2.19205e-16 0)
(3 9.3279e-17 0)
(3 3.03138e-16 0)
(3 -4.79663e-17 0)
(3 -2.22922e-16 0)
(3 -1.85132e-16 0)
(3 1.28092e-17 0)
(3 1.85864e-16 0)
(3 7.51772e-17 0)
(2.97097 0.10261 0)
(2.99123 0.0346903 0)
(2.99997 0.000106894 0)
(3 1.4894e-07 0)
(3 1.55056e-10 0)
(3 1.28458e-13 0)
(3 -9.82326e-17 0)
(3 -1.98973e-16 0)
(3 1.3587e-17 0)
(3 1.61525e-16 0)
(3 -1.31948e-16 0)
(3 -1.42282e-16 0)
(3 -1.58237e-17 0)
(3 7.2784e-17 0)
(3 7.78795e-17 0)
(2.97134 0.100928 0)
(2.99145 0.0338098 0)
(2.99998 0.000102641 0)
(3 1.41743e-07 0)
(3 1.46274e-10 0)
(3 1.18812e-13 0)
(3 3.32983e-16 0)
(3 1.11688e-16 0)
(3 -2.14679e-16 0)
(3 7.51306e-17 0)
(3 -1.20764e-16 0)
(3 -7.62316e-20 0)
(3 4.73659e-17 0)
(3 7.0772e-17 0)
(3 1.05181e-17 0)
(2.97188 0.0993236 0)
(2.99166 0.032962 0)
(2.99998 9.86009e-05 0)
(3 1.34974e-07 0)
(3 1.38086e-10 0)
(3 1.10678e-13 0)
(3 2.21163e-16 0)
(3 9.03544e-17 0)
(3 -1.53264e-16 0)
(3 2.73622e-17 0)
(3 5.47124e-17 0)
(3 -1.28903e-16 0)
(3 -4.6338e-17 0)
(3 -4.35291e-17 0)
(3 -3.79862e-17 0)
(2.97278 0.0978749 0)
(2.99188 0.032159 0)
(2.99998 9.47666e-05 0)
(3 1.28594e-07 0)
(3 1.30429e-10 0)
(3 1.04108e-13 0)
(3 4.39875e-17 0)
(3 5.78689e-17 0)
(3 -6.27475e-17 0)
(3 8.5693e-18 0)
(3 8.85328e-17 0)
(3 -5.74749e-17 0)
(3 -3.93554e-17 0)
(3 -1.11099e-16 0)
(3 -3.92306e-17 0)
(2.97369 0.0965654 0)
(2.9921 0.0314108 0)
(2.99998 9.11746e-05 0)
(3 1.22602e-07 0)
(3 1.2328e-10 0)
(3 9.67644e-14 0)
(3 2.72642e-17 0)
(3 2.73573e-16 0)
(3 1.07655e-16 0)
(3 -1.08706e-16 0)
(3 -6.2419e-17 0)
(3 2.56504e-17 0)
(3 9.43806e-17 0)
(3 2.59309e-18 0)
(3 -3.80388e-17 0)
(2.97381 0.0951358 0)
(2.99229 0.0306946 0)
(2.99998 8.78609e-05 0)
(3 1.17065e-07 0)
(3 1.16669e-10 0)
(3 9.05029e-14 0)
(3 -1.66536e-16 0)
(3 1.28691e-16 0)
(3 1.01286e-16 0)
(3 3.27914e-17 0)
(3 -5.78203e-17 0)
(3 1.10275e-16 0)
(3 -6.17018e-17 0)
(3 3.77459e-17 0)
(3 6.30028e-17 0)
(2.96953 0.0926075 0)
(2.99223 0.0296208 0)
(2.99998 8.42143e-05 0)
(3 1.11668e-07 0)
(3 1.10464e-10 0)
(3 8.61247e-14 0)
(3 1.56656e-16 0)
(3 -1.51396e-16 0)
(3 2.06381e-16 0)
(3 4.93119e-18 0)
(3 -4.983e-17 0)
(3 6.78519e-17 0)
(3 -6.69518e-17 0)
(3 1.07779e-17 0)
(3 3.64335e-17 0)
(2.94176 0.0802077 0)
(2.99129 0.0240003 0)
(2.99998 6.84947e-05 0)
(3 9.46827e-08 0)
(3 9.64455e-11 0)
(3 7.52963e-14 0)
(3 4.26566e-16 0)
(3 3.56407e-17 0)
(3 3.45908e-17 0)
(3 2.58459e-17 0)
(3 -1.9193e-17 0)
(3 -5.56611e-17 0)
(3 -3.06168e-17 0)
(3 1.58157e-16 0)
(3 6.08736e-17 0)
(2.93398 0.0350289 0)
(2.99516 0.00838417 0)
(2.99999 1.85837e-05 0)
(3 2.3471e-08 0)
(3 2.41851e-11 0)
(3 2.02221e-14 0)
(3 5.3483e-16 0)
(3 -1.58485e-16 0)
(3 1.05256e-16 0)
(3 -1.25671e-17 0)
(3 -9.19132e-17 0)
(3 -2.67667e-16 0)
(3 -9.57808e-18 0)
(3 2.07433e-16 0)
(3 5.59946e-17 0)
(3 -1.02116e-16 0)
(3 -5.35967e-16 0)
(3 -2.74034e-17 0)
(3 -1.55441e-16 0)
(3 -1.93149e-17 0)
(3 -2.90284e-16 0)
(3 1.51082e-16 0)
(3 2.35068e-16 0)
(3 -1.64205e-16 0)
(3 -2.66115e-16 0)
(3 -1.25774e-16 0)
(3 5.00718e-18 0)
(3 2.94232e-17 0)
(3 1.55716e-16 0)
(3 5.78124e-17 0)
(3 1.23794e-16 0)
(3 -2.36591e-16 0)
(3 -8.72074e-17 0)
(3 -1.47015e-16 0)
(3 1.64063e-16 0)
(3 1.80172e-16 0)
(3 7.86172e-17 0)
(3 -8.82521e-17 0)
(3 -1.47877e-16 0)
(3 -1.11448e-16 0)
(3 -1.01656e-16 0)
(3 2.57488e-17 0)
(3 -4.35923e-17 0)
(3 1.54814e-16 0)
(3 1.48978e-16 0)
(3 1.24824e-16 0)
(3 2.65857e-16 0)
(3 -1.3513e-16 0)
(3 -3.16339e-16 0)
(3 2.47873e-16 0)
(3 2.84239e-16 0)
(3 -7.50212e-17 0)
(3 -7.38887e-17 0)
(3 4.99485e-17 0)
(3 -1.03997e-16 0)
(3 -9.70141e-17 0)
(3 2.80243e-17 0)
(3 -9.26021e-18 0)
(3 8.38956e-17 0)
(3 2.216e-17 0)
(3 9.19964e-17 0)
(3 3.08788e-16 0)
(3 -2.0867e-16 0)
(3 4.385e-17 0)
(3 7.02792e-17 0)
(3 -1.96082e-16 0)
(3 -6.60072e-17 0)
(3 6.29165e-17 0)
(3 1.12251e-16 0)
(3 -1.41477e-16 0)
(3 -1.08939e-17 0)
(3 1.32681e-16 0)
(3 -1.49449e-16 0)
(3 -5.85727e-17 0)
(3 2.9377e-17 0)
(3 -1.91697e-16 0)
(3 1.11976e-16 0)
(3 5.14252e-17 0)
(3 3.90127e-16 0)
(3 -1.2478e-16 0)
(3 -1.04818e-16 0)
(3 8.20825e-17 0)
(3 -1.92997e-16 0)
(3 5.91651e-17 0)
(3 -4.4429e-17 0)
(3 -6.22691e-17 0)
(3 3.88234e-17 0)
(3 -5.51483e-17 0)
(3 -3.20843e-17 0)
(3 1.68931e-17 0)
(3 -4.10933e-16 0)
(3 3.53476e-16 0)
(3 1.63638e-16 0)
(3 8.3302e-17 0)
(3 -1.84613e-16 0)
(3 -1.51428e-16 0)
(3 -1.6716e-16 0)
(3 7.02693e-17 0)
(3 1.87901e-16 0)
(3 -1.40245e-16 0)
(3 -3.69768e-17 0)
(3 1.01799e-16 0)
(3 -2.00684e-18 0)
(3 6.32042e-18 0)
(3 1.49803e-17 0)
(3 -6.22799e-17 0)
(3 2.50062e-16 0)
(3 3.87993e-16 0)
(3 1.80474e-16 0)
(3 -5.20355e-16 0)
(3 9.87278e-17 0)
(3 4.73703e-17 0)
(3 -3.34843e-17 0)
(3 1.38416e-16 0)
(3 -1.88807e-16 0)
(3 -2.02282e-17 0)
(3 7.98589e-17 0)
(3 -4.30872e-17 0)
(3 4.11141e-18 0)
(3 -6.30886e-19 0)
(3 -3.88946e-16 0)
(3 3.67942e-17 0)
(3 2.47264e-16 0)
(3 3.78984e-16 0)
(3 -1.38969e-16 0)
(3 -2.54519e-16 0)
(3 1.00236e-16 0)
(3 -2.11533e-16 0)
(3 1.39457e-17 0)
(3 -1.56928e-17 0)
(3 -3.08781e-17 0)
(3 1.09799e-16 0)
(3 9.40095e-17 0)
(3 -3.11351e-18 0)
(3 -1.75093e-17 0)
(3 -1.07825e-15 0)
(3 2.05144e-16 0)
(3 4.02201e-16 0)
(3 2.2796e-16 0)
(3 1.10005e-17 0)
(3 -1.31129e-16 0)
(3 -2.88184e-16 0)
(3 -2.28462e-16 0)
(3 1.60907e-16 0)
(3 7.72257e-17 0)
(3 8.24829e-17 0)
(3 4.74059e-17 0)
(3 -1.62548e-16 0)
(3 4.72803e-17 0)
(3 5.64083e-17 0)
(3 -2.96524e-16 0)
(3 -1.71969e-16 0)
(3 -2.73529e-17 0)
(3 3.67443e-16 0)
(3 9.35372e-17 0)
(3 -1.38505e-16 0)
(3 -3.33266e-16 0)
(3 4.72458e-17 0)
(3 2.8926e-16 0)
(3 -3.14423e-17 0)
(3 5.06695e-18 0)
(3 -1.15875e-16 0)
(3 -1.01746e-16 0)
(3 2.25674e-16 0)
(3 3.71518e-17 0)
(3 5.64908e-16 0)
(3 3.07139e-16 0)
(3 -1.00893e-16 0)
(3 -2.15865e-16 0)
(3 -3.18111e-16 0)
(3 -3.55627e-16 0)
(3 -2.86084e-16 0)
(3 9.38597e-17 0)
(3 -2.86012e-16 0)
(3 -4.36995e-16 0)
(3 1.91276e-16 0)
(3 -5.19782e-17 0)
(3 -4.58738e-18 0)
(3 2.52388e-16 0)
(3 1.22837e-16 0)
(3 3.597e-16 0)
(3 6.695e-17 0)
(3 3.60852e-16 0)
(3 1.04725e-15 0)
(3 1.0623e-15 0)
(3 -9.05291e-17 0)
(3 7.81736e-17 0)
(3 -2.02625e-16 0)
(3 -2.6202e-16 0)
(3 -2.64345e-16 0)
(3 2.2726e-16 0)
(3 1.54318e-16 0)
(3 2.74169e-17 0)
(3 -9.3793e-17 0)
(3 1.62072e-16 0)
(3 -1.81814e-16 0)
(3 -3.26503e-16 0)
(3 5.70598e-17 0)
(3 -2.66424e-16 0)
(3 1.29097e-16 0)
(3 1.27394e-17 0)
(3 -2.18739e-16 0)
(3 -4.33932e-16 0)
(3 -2.31023e-16 0)
(3 -4.17432e-16 0)
(3 -2.97691e-16 0)
(3 -6.45528e-17 0)
(3 4.67019e-16 0)
(3 7.04027e-17 0)
(3 1.55154e-16 0)
(3 -2.27812e-16 0)
(3 -1.37009e-16 0)
(3 -4.23578e-16 0)
(3 3.80564e-16 0)
(3 -7.62768e-17 0)
(3 1.24721e-16 0)
(3 4.27553e-16 0)
(3 -6.55272e-17 0)
(3 3.00002e-16 0)
(3 -1.54698e-16 0)
(3 -5.47918e-17 0)
(3 -1.18237e-16 0)
(3 -3.36032e-17 0)
(3 -2.20797e-17 0)
(3 7.98183e-17 0)
(3 2.15423e-16 0)
(3 2.71699e-16 0)
(3 1.38868e-16 0)
(3 4.11506e-16 0)
(3 2.19331e-16 0)
(3 2.40604e-16 0)
(3 -3.75585e-17 0)
(3 9.81215e-18 0)
(3 8.20806e-17 0)
(3 2.59959e-16 0)
(3 -5.93043e-17 0)
(3 -7.18607e-17 0)
(3 -1.28809e-16 0)
(3 -2.94562e-16 0)
(3 -1.62522e-16 0)
(3 -5.23743e-16 0)
(3 -1.03002e-16 0)
(3 -8.96303e-17 0)
(3 -8.32447e-17 0)
(3 -1.47986e-16 0)
(3 3.7856e-17 0)
(3 -7.53996e-17 0)
(3 -1.18288e-16 0)
(3 -2.23736e-16 0)
(3 -3.41085e-16 0)
(3 -1.75356e-16 0)
(3 -9.38929e-17 0)
(3 3.536e-16 0)
(3 1.49466e-16 0)
(3 -2.4504e-17 0)
(3 8.29139e-17 0)
(3 2.04294e-16 0)
(3 -5.22282e-17 0)
(3 7.14839e-17 0)
(3 2.40409e-16 0)
(3 6.71832e-16 0)
(3 2.96938e-16 0)
(3 4.00471e-16 0)
(3 1.18165e-16 0)
(3 9.64192e-17 0)
(3 1.04535e-16 0)
(3 -2.64935e-16 0)
(3 -1.60389e-16 0)
(3 -1.81399e-16 0)
(3 1.75536e-16 0)
(3 1.29238e-16 0)
(3 -7.55646e-17 0)
(3 -2.93376e-16 0)
(3 -5.21059e-16 0)
(3 -5.18282e-17 0)
(3 -3.01856e-16 0)
(3 -2.49097e-16 0)
(3 7.95533e-17 0)
(3 -1.61442e-17 0)
(3 9.64444e-17 0)
(3 -1.85875e-16 0)
(3 -3.54013e-17 0)
(3 -2.51729e-16 0)
(3 -1.14305e-16 0)
(3 -2.1914e-16 0)
(3 -6.70188e-17 0)
(3 -1.13562e-17 0)
(3 1.15915e-16 0)
(3 2.2063e-16 0)
(3 -1.27807e-16 0)
(3 -1.05961e-16 0)
(3 1.16724e-16 0)
(3 1.52151e-16 0)
(3 3.57895e-17 0)
(3 -5.06076e-18 0)
(3 1.65358e-16 0)
(3 8.13404e-17 0)
(3 -4.31053e-17 0)
(3 2.0554e-17 0)
(3 -2.49113e-17 0)
(3 -4.00335e-17 0)
(3 2.7562e-17 0)
(3 2.12926e-16 0)
(3 1.80516e-16 0)
(3 1.38511e-16 0)
(3 4.45095e-17 0)
(3 1.92769e-17 0)
(3 5.90213e-17 0)
(3 2.49482e-17 0)
(3 2.61008e-16 0)
(3 -1.49729e-16 0)
(3 3.5711e-17 0)
(3 1.065e-16 0)
(3 3.70307e-17 0)
(3 1.70648e-17 0)
(3 -1.62214e-17 0)
(3 3.0231e-19 0)
(3 -9.04795e-17 0)
(3 -4.99998e-17 0)
(3 6.31048e-17 0)
(3 -1.85351e-17 0)
(3 -1.72957e-16 0)
(3 4.63692e-17 0)
(3 -1.75026e-17 0)
(3 3.11822e-17 0)
(3 5.51323e-17 0)
(3 2.48398e-16 0)
(3 1.00914e-17 0)
(3 -7.48393e-17 0)
(3 3.28235e-17 0)
(3 4.35222e-16 0)
(3 8.62467e-17 0)
(3 -2.08456e-16 0)
(3 1.44395e-16 0)
(3 -1.62354e-16 0)
(3 5.78822e-18 0)
(3 -8.37831e-18 0)
(3 -4.41064e-17 0)
(3 -5.02518e-18 0)
(3 -3.09986e-18 0)
(3 6.09171e-17 0)
(3 6.73761e-17 0)
(3 -9.41833e-17 0)
(3 -1.0556e-16 0)
(3 -4.66807e-17 0)
(3 -1.57197e-17 0)
(3 -1.34068e-16 0)
(3 -8.932e-17 0)
(3 -5.48908e-17 0)
(3 -1.86504e-16 0)
(3 -1.4191e-16 0)
(3 -8.51002e-17 0)
(3 1.62697e-16 0)
(3 6.78405e-17 0)
(3 2.42346e-16 0)
(3 1.02679e-16 0)
(3 1.85367e-17 0)
(3 7.60614e-17 0)
(3 2.02922e-17 0)
(3 -7.73346e-17 0)
(3 -3.6326e-17 0)
(3 2.48213e-17 0)
(3 4.08831e-17 0)
(3 1.57592e-16 0)
(3 2.18709e-16 0)
(2.87199 -0.0825353 0)
(2.9963 -0.00539896 0)
(3 -3.52209e-10 0)
(3 8.45204e-16 0)
(3 3.43719e-17 0)
(3 -6.61681e-17 0)
(3 -5.23383e-17 0)
(3 2.34813e-16 0)
(3 -5.34692e-16 0)
(3 1.32407e-16 0)
(3 2.50037e-16 0)
(3 -2.22472e-16 0)
(3 -1.27147e-16 0)
(3 8.97203e-17 0)
(3 2.7924e-16 0)
(3 6.38183e-17 0)
(3 -1.41344e-16 0)
(3 -1.07781e-16 0)
(3 5.51745e-17 0)
(3 6.53471e-17 0)
(2.87311 -0.174341 0)
(2.98801 -0.0250749 0)
(3 5.19779e-09 0)
(3 -3.76226e-15 0)
(3 -3.75745e-16 0)
(3 1.1928e-16 0)
(3 3.49148e-17 0)
(3 4.46862e-17 0)
(3 -3.15216e-16 0)
(3 2.33928e-17 0)
(3 3.07344e-16 0)
(3 -1.50221e-16 0)
(3 -4.81457e-17 0)
(3 4.51731e-17 0)
(3 -2.32641e-17 0)
(3 1.79565e-17 0)
(3 -9.73819e-17 0)
(3 -7.99694e-17 0)
(3 1.13602e-16 0)
(3 7.59902e-17 0)
(2.91318 -0.199828 0)
(2.98747 -0.0332302 0)
(3 7.69558e-09 0)
(3 -5.98225e-15 0)
(3 -6.21454e-16 0)
(3 -1.88388e-16 0)
(3 5.22474e-16 0)
(3 1.01097e-16 0)
(3 -3.54281e-16 0)
(3 -3.74855e-17 0)
(3 1.64805e-16 0)
(3 -6.99401e-17 0)
(3 -1.94945e-16 0)
(3 1.64171e-16 0)
(3 8.28937e-17 0)
(3 1.12783e-16 0)
(3 1.15201e-16 0)
(3 -8.68196e-17 0)
(3 5.0392e-17 0)
(3 6.14792e-17 0)
(2.91976 -0.206107 0)
(2.98706 -0.0354059 0)
(3 8.68719e-09 0)
(3 -6.42749e-15 0)
(3 -2.62645e-16 0)
(3 -3.79569e-16 0)
(3 -1.4837e-17 0)
(3 8.69323e-17 0)
(3 1.663e-16 0)
(3 -1.90261e-16 0)
(3 4.24586e-17 0)
(3 -9.90407e-17 0)
(3 -1.62134e-16 0)
(3 1.31191e-16 0)
(3 -1.63889e-17 0)
(3 -2.01495e-16 0)
(3 1.42435e-16 0)
(3 3.6892e-17 0)
(3 5.88366e-17 0)
(3 9.99534e-17 0)
(2.91883 -0.20986 0)
(2.98644 -0.037105 0)
(3 9.60385e-09 0)
(3 -7.85707e-15 0)
(3 -5.13751e-16 0)
(3 -1.15949e-16 0)
(3 -1.74901e-16 0)
(3 3.64316e-16 0)
(3 1.31804e-16 0)
(3 -3.95244e-16 0)
(3 3.45824e-16 0)
(3 4.45377e-17 0)
(3 -1.73773e-16 0)
(3 -7.74134e-17 0)
(3 1.32196e-16 0)
(3 -4.45604e-17 0)
(3 1.82712e-16 0)
(3 2.34575e-17 0)
(3 -5.67787e-17 0)
(3 -5.43558e-18 0)
(2.91642 -0.213285 0)
(2.98572 -0.0389209 0)
(3 1.06455e-08 0)
(3 -9.49614e-15 0)
(3 -6.13144e-16 0)
(3 -2.61256e-16 0)
(3 1.31181e-16 0)
(3 5.46674e-16 0)
(3 -1.60965e-17 0)
(3 -3.07935e-16 0)
(3 2.62915e-16 0)
(3 9.10226e-17 0)
(3 -9.59375e-17 0)
(3 -2.76214e-16 0)
(3 5.32219e-17 0)
(3 5.57427e-17 0)
(3 5.16362e-17 0)
(3 1.78585e-19 0)
(3 -6.89889e-17 0)
(3 -4.0884e-17 0)
(2.91391 -0.21707 0)
(2.98495 -0.0409232 0)
(3 1.18546e-08 0)
(3 -1.12603e-14 0)
(3 -3.78142e-16 0)
(3 -1.98238e-16 0)
(3 -2.22123e-16 0)
(3 6.14897e-16 0)
(3 1.07431e-16 0)
(3 -1.42925e-16 0)
(3 -1.58503e-16 0)
(3 2.9797e-16 0)
(3 -5.02816e-17 0)
(3 -2.84451e-16 0)
(3 -1.88913e-16 0)
(3 1.5103e-16 0)
(3 -1.17247e-16 0)
(3 4.82102e-17 0)
(3 -9.37604e-18 0)
(3 -5.55594e-17 0)
(2.91202 -0.221303 0)
(2.98416 -0.0430809 0)
(3 1.32176e-08 0)
(3 -1.29989e-14 0)
(3 -1.42397e-16 0)
(3 -3.11789e-16 0)
(3 4.93342e-17 0)
(3 -2.08848e-16 0)
(3 -4.16589e-17 0)
(3 9.38864e-17 0)
(3 7.46847e-17 0)
(3 1.50806e-16 0)
(3 4.32663e-16 0)
(3 -4.94994e-16 0)
(3 -9.94713e-17 0)
(3 1.36325e-16 0)
(3 1.20093e-16 0)
(3 4.22138e-17 0)
(3 -3.58606e-17 0)
(3 -2.96786e-17 0)
(2.91044 -0.225775 0)
(2.98333 -0.0453716 0)
(3 1.47505e-08 0)
(3 -1.64235e-14 0)
(3 9.73657e-17 0)
(3 -1.20694e-16 0)
(3 -2.27315e-16 0)
(3 -1.34912e-16 0)
(3 -3.35932e-16 0)
(3 2.74392e-16 0)
(3 9.42066e-17 0)
(3 2.94444e-17 0)
(3 -1.20572e-16 0)
(3 2.86481e-17 0)
(3 -1.68364e-16 0)
(3 4.68673e-17 0)
(3 1.47329e-16 0)
(3 5.92576e-17 0)
(3 -1.29314e-16 0)
(3 -5.68169e-17 0)
(2.90871 -0.230329 0)
(2.98244 -0.047807 0)
(3 1.65082e-08 0)
(3 -1.98735e-14 0)
(3 5.42367e-16 0)
(3 -1.2293e-16 0)
(3 -3.74299e-16 0)
(3 -5.21184e-17 0)
(3 -3.1916e-16 0)
(3 2.04235e-16 0)
(3 2.73689e-16 0)
(3 -5.20311e-17 0)
(3 -4.51895e-17 0)
(3 -1.31809e-16 0)
(3 9.48868e-17 0)
(3 -7.81467e-17 0)
(3 2.44062e-16 0)
(3 -4.88394e-17 0)
(3 -1.21726e-16 0)
(3 1.94903e-17 0)
(2.90683 -0.234979 0)
(2.98149 -0.0503917 0)
(3 1.85002e-08 0)
(3 -2.26043e-14 0)
(3 -1.08513e-16 0)
(3 4.63567e-16 0)
(3 -9.0321e-16 0)
(3 -1.3535e-16 0)
(3 -1.21479e-16 0)
(3 3.33556e-16 0)
(3 4.08059e-17 0)
(3 -2.50661e-17 0)
(3 3.48272e-17 0)
(3 6.59894e-17 0)
(3 -1.375e-16 0)
(3 -2.44473e-16 0)
(3 3.12481e-16 0)
(3 4.34286e-17 0)
(3 3.80406e-17 0)
(3 9.01017e-17 0)
(2.90489 -0.239772 0)
(2.98048 -0.0531504 0)
(3 2.07127e-08 0)
(3 -2.66911e-14 0)
(3 -5.81054e-16 0)
(3 1.37567e-16 0)
(3 -7.18376e-16 0)
(3 3.64853e-16 0)
(3 1.336e-16 0)
(3 -2.76954e-16 0)
(3 7.63174e-17 0)
(3 2.66329e-16 0)
(3 1.22239e-17 0)
(3 -3.86614e-16 0)
(3 -1.70344e-16 0)
(3 1.10727e-16 0)
(3 3.24625e-16 0)
(3 1.03693e-16 0)
(3 3.85587e-17 0)
(3 3.75032e-17 0)
(2.90289 -0.244721 0)
(2.97943 -0.0560039 0)
(3 2.36435e-08 0)
(3 1.87194e-13 0)
(3 -6.78752e-17 0)
(3 1.04e-16 0)
(3 -3.78861e-16 0)
(3 1.2966e-17 0)
(3 2.95933e-16 0)
(3 -3.11465e-16 0)
(3 4.65956e-16 0)
(3 8.32445e-17 0)
(3 -4.25036e-16 0)
(3 9.38095e-17 0)
(3 -1.47616e-16 0)
(3 1.2379e-16 0)
(3 1.99679e-16 0)
(3 -7.41692e-17 0)
(3 6.14335e-17 0)
(3 9.38821e-17 0)
(2.90113 -0.249955 0)
(2.97811 -0.0592733 0)
(3 8.84087e-07 0)
(3 -1.08779e-12 0)
(3 1.84879e-16 0)
(3 -1.9434e-16 0)
(3 -2.05778e-17 0)
(3 2.12519e-16 0)
(3 -1.68494e-16 0)
(3 -9.0741e-17 0)
(3 4.48882e-16 0)
(3 -3.25831e-16 0)
(3 -2.73089e-16 0)
(3 4.93305e-17 0)
(3 3.17428e-16 0)
(3 1.09045e-16 0)
(3 -1.42088e-16 0)
(3 -4.99594e-17 0)
(3 -7.3581e-17 0)
(3 -6.87663e-17 0)
(2.90657 -0.257402 0)
(2.97465 -0.0647913 0)
(3 -8.6385e-07 0)
(3 1.00851e-12 0)
(3 -4.7183e-16 0)
(3 -1.33582e-16 0)
(3 3.21535e-18 0)
(3 6.78705e-17 0)
(3 -7.10529e-17 0)
(3 -2.19469e-16 0)
(3 5.45762e-16 0)
(3 -3.78196e-16 0)
(3 -2.11987e-16 0)
(3 1.42014e-16 0)
(3 1.43111e-16 0)
(3 8.99773e-17 0)
(3 -6.0223e-17 0)
(3 2.88252e-17 0)
(3 9.28242e-17 0)
(3 -2.0936e-17 0)
(3.1155 -0.15101 0)
(3.03743 -0.0575726 0)
(3.00324 0.000597427 0)
(3.0003 0.000949169 0)
(2.99994 8.96592e-05 0)
(3 3.06483e-07 0)
(3 2.60147e-10 0)
(3 2.07739e-13 0)
(3 3.96374e-16 0)
(3 -4.35117e-16 0)
(3 2.59704e-16 0)
(3 -9.04029e-17 0)
(3 -7.65935e-17 0)
(3 1.92615e-17 0)
(3 9.8514e-17 0)
(3 2.99834e-17 0)
(3 -7.53789e-17 0)
(3 -1.12414e-16 0)
(3 1.41463e-16 0)
(3 8.41463e-17 0)
(3.08751 -0.0193751 0)
(3.0646 0.121966 0)
(3.00261 0.0180674 0)
(2.99981 0.00099044 0)
(2.99999 1.42722e-05 0)
(3 4.67198e-08 0)
(3 1.19124e-10 0)
(3 3.16128e-13 0)
(3 7.97839e-16 0)
(3 1.88961e-17 0)
(3 1.81172e-16 0)
(3 -1.14149e-16 0)
(3 1.43697e-16 0)
(3 -2.23712e-16 0)
(3 1.72946e-16 0)
(3 -9.7223e-17 0)
(3 -3.94261e-17 0)
(3 -1.55294e-16 0)
(3 1.15221e-16 0)
(3 3.14454e-17 0)
(2.96461 0.0456013 0)
(2.97119 0.23061 0)
(2.99235 0.0311759 0)
(2.99972 0.00110698 0)
(3 9.18052e-06 0)
(3 3.93521e-08 0)
(3 1.35401e-10 0)
(3 4.05609e-13 0)
(3 9.8626e-16 0)
(3 -1.3352e-16 0)
(3 -5.29939e-17 0)
(3 -1.73267e-16 0)
(3 7.54695e-17 0)
(3 -2.16182e-16 0)
(3 2.26572e-16 0)
(3 -1.32136e-16 0)
(3 -6.70755e-17 0)
(3 -1.69035e-16 0)
(3 1.3881e-16 0)
(3 1.36221e-16 0)
(2.95352 0.0470318 0)
(2.95496 0.236142 0)
(2.99076 0.0317906 0)
(2.99972 0.00108603 0)
(3 8.78103e-06 0)
(3 3.86012e-08 0)
(3 1.38885e-10 0)
(3 4.29183e-13 0)
(3 1.05647e-15 0)
(3 -1.0539e-16 0)
(3 9.30991e-17 0)
(3 -1.25101e-16 0)
(3 4.2232e-17 0)
(3 4.18398e-18 0)
(3 7.05031e-17 0)
(3 -8.49847e-17 0)
(3 -5.98961e-17 0)
(3 -7.72638e-17 0)
(3 1.38502e-16 0)
(3 7.58611e-17 0)
(2.95226 0.0462591 0)
(2.95488 0.233346 0)
(2.99096 0.0307683 0)
(2.99974 0.00101077 0)
(3 7.98943e-06 0)
(3 3.50681e-08 0)
(3 1.26804e-10 0)
(3 3.91139e-13 0)
(3 1.09908e-15 0)
(3 -5.49161e-18 0)
(3 1.19541e-16 0)
(3 -9.25182e-18 0)
(3 -2.49566e-16 0)
(3 1.51835e-16 0)
(3 1.1256e-17 0)
(3 -1.78348e-16 0)
(3 -9.56048e-17 0)
(3 2.33683e-17 0)
(3 1.54923e-16 0)
(3 1.15691e-16 0)
(2.95158 0.045117 0)
(2.95647 0.228744 0)
(2.99157 0.0294841 0)
(2.99976 0.000940083 0)
(3 7.3064e-06 0)
(3 3.18894e-08 0)
(3 1.14816e-10 0)
(3 3.5147e-13 0)
(3 1.18246e-15 0)
(3 -1.99425e-17 0)
(3 -1.57764e-16 0)
(3 2.87893e-16 0)
(3 -7.08744e-18 0)
(3 -7.03524e-17 0)
(3 -8.95657e-17 0)
(3 -1.1683e-16 0)
(3 -4.73172e-17 0)
(3 -9.09075e-18 0)
(3 1.13675e-16 0)
(3 1.94665e-16 0)
(2.95116 0.0439701 0)
(2.95815 0.22451 0)
(2.99207 0.0283537 0)
(2.99978 0.000877696 0)
(3 6.69778e-06 0)
(3 2.90426e-08 0)
(3 1.04116e-10 0)
(3 3.1729e-13 0)
(3 1.02491e-15 0)
(3 -2.99121e-17 0)
(3 -5.96444e-17 0)
(3 2.83997e-16 0)
(3 -1.35506e-16 0)
(3 -5.81195e-16 0)
(3 1.43844e-16 0)
(3 2.55752e-16 0)
(3 4.24481e-17 0)
(3 -6.17903e-17 0)
(3 -2.22461e-16 0)
(3 2.71228e-17 0)
(2.95065 0.0429296 0)
(2.95953 0.220567 0)
(2.99251 0.0272951 0)
(2.9998 0.000820117 0)
(3 6.14625e-06 0)
(3 2.64851e-08 0)
(3 9.45414e-11 0)
(3 2.86111e-13 0)
(3 1.03201e-15 0)
(3 -1.15638e-16 0)
(3 -9.3197e-17 0)
(3 3.01135e-16 0)
(3 -1.15841e-16 0)
(3 -2.9382e-16 0)
(3 5.07558e-17 0)
(3 1.79262e-16 0)
(3 2.17416e-17 0)
(3 7.14253e-17 0)
(3 -1.1072e-16 0)
(3 -1.26746e-16 0)
(2.95006 0.0419225 0)
(2.96091 0.216745 0)
(2.99293 0.0262801 0)
(2.99982 0.000766709 0)
(3 5.64711e-06 0)
(3 2.41875e-08 0)
(3 8.59783e-11 0)
(3 2.58369e-13 0)
(3 6.21793e-16 0)
(3 1.90367e-17 0)
(3 -4.56102e-17 0)
(3 3.0874e-16 0)
(3 -1.79759e-16 0)
(3 -9.64095e-17 0)
(3 9.32973e-17 0)
(3 5.31682e-17 0)
(3 -5.28895e-18 0)
(3 5.29638e-17 0)
(3 -1.55447e-16 0)
(3 -7.89975e-17 0)
(2.94941 0.0409382 0)
(2.96233 0.213013 0)
(2.99334 0.0253066 0)
(2.99983 0.000717232 0)
(3 5.19489e-06 0)
(3 2.21193e-08 0)
(3 7.82898e-11 0)
(3 2.3411e-13 0)
(3 5.23627e-16 0)
(3 2.38791e-16 0)
(3 1.98479e-16 0)
(3 -6.00631e-17 0)
(3 2.10276e-16 0)
(3 -2.58628e-16 0)
(3 2.06427e-18 0)
(3 2.09167e-17 0)
(3 5.23212e-18 0)
(3 -5.03316e-17 0)
(3 7.85456e-18 0)
(3 -1.18231e-17 0)
(2.94877 0.0399876 0)
(2.96372 0.209371 0)
(2.99373 0.0243755 0)
(2.99985 0.000671459 0)
(3 4.78494e-06 0)
(3 2.02557e-08 0)
(3 7.13857e-11 0)
(3 2.12833e-13 0)
(3 5.69862e-16 0)
(3 2.55907e-16 0)
(3 2.35899e-16 0)
(3 -2.4658e-16 0)
(3 2.45809e-16 0)
(3 -3.34453e-16 0)
(3 1.04746e-17 0)
(3 9.4806e-17 0)
(3 9.69103e-17 0)
(3 5.7514e-18 0)
(3 -8.5168e-17 0)
(3 -9.46104e-17 0)
(2.94817 0.0390721 0)
(2.96508 0.20581 0)
(2.9941 0.0234786 0)
(2.99986 0.000628518 0)
(3 4.40649e-06 0)
(3 1.85458e-08 0)
(3 6.50955e-11 0)
(3 1.9317e-13 0)
(3 6.03601e-16 0)
(3 3.82828e-17 0)
(3 1.35551e-16 0)
(3 -6.85273e-17 0)
(3 1.02394e-16 0)
(3 -2.82192e-16 0)
(3 1.16608e-16 0)
(3 -6.45336e-17 0)
(3 -3.77956e-17 0)
(3 1.39123e-16 0)
(3 -6.08135e-17 0)
(3 -1.00198e-16 0)
(2.94746 0.0381671 0)
(2.96638 0.202444 0)
(2.99443 0.0226714 0)
(2.99987 0.000592293 0)
(3 4.10174e-06 0)
(3 1.71924e-08 0)
(3 6.01136e-11 0)
(3 1.77303e-13 0)
(3 6.2075e-16 0)
(3 -1.89629e-16 0)
(3 1.0408e-16 0)
(3 3.87892e-16 0)
(3 6.51394e-18 0)
(3 -3.67336e-16 0)
(3 4.39827e-17 0)
(3 -6.04496e-17 0)
(3 4.00041e-17 0)
(3 1.45459e-16 0)
(3 5.13187e-17 0)
(3 -5.77462e-18 0)
(2.94689 0.0371541 0)
(2.96843 0.19814 0)
(2.99493 0.0215561 0)
(2.99989 0.000540487 0)
(3 3.65292e-06 0)
(3 1.51629e-08 0)
(3 5.26728e-11 0)
(3 1.54193e-13 0)
(3 1.45496e-16 0)
(3 -4.92797e-16 0)
(3 2.25467e-16 0)
(3 3.8239e-16 0)
(3 -1.41926e-16 0)
(3 -2.24904e-16 0)
(3 -1.14728e-16 0)
(3 2.70816e-16 0)
(3 -9.60874e-17 0)
(3 -9.68456e-17 0)
(3 4.94619e-17 0)
(3 8.21801e-18 0)
(2.92608 0.0382909 0)
(2.9611 0.229481 0)
(2.99246 0.0286271 0)
(2.99979 0.00084292 0)
(3 5.98309e-06 0)
(3 2.44392e-08 0)
(3 8.30155e-11 0)
(3 2.36209e-13 0)
(3 5.26909e-16 0)
(3 -5.54602e-17 0)
(3 1.1151e-16 0)
(3 3.63318e-16 0)
(3 -3.73376e-16 0)
(3 -7.42952e-17 0)
(3 6.37882e-18 0)
(3 1.06824e-16 0)
(3 -3.24842e-17 0)
(3 -8.03558e-17 0)
(3 4.45195e-17 0)
(3 -3.61304e-17 0)
(2.89123 0.0559578 0)