/*--------------------------------*- C++ -*----------------------------------*\
  =========                 |
  \\      /  F ield         | OpenFOAM: The Open Source CFD Toolbox
   \\    /   O peration     | Website:  https://openfoam.org
    \\  /    A nd           | Version:  7
     \\/     M anipulation  |
\*---------------------------------------------------------------------------*/
FoamFile
{
    version     2.0;
    format      ascii;
    class       volScalarField;
    location    "14.5";
    object      T;
}
// * * * * * * * * * * * * * * * * * * * * * * * * * * * * * * * * * * * * * //

dimensions      [0 0 0 1 0 0 0];

internalField   nonuniform List<scalar> 
90000
(
0.739384
0.943112
1.09221
1.12386
1.15282
1.21361
1.23744
1.2536
1.28886
1.32318
1.35216
1.38014
1.40485
1.42328
1.44253
1.45827
1.4651
1.47301
1.47051
1.46407
1.45322
1.4424
1.4282
1.41496
1.40815
1.39791
1.38625
1.38509
1.38326
1.3754
1.36464
1.35485
1.34518
1.33292
1.32217
1.31306
1.30349
1.29439
1.28583
1.27679
1.26757
1.25897
1.25086
1.24326
1.23608
1.22926
1.22334
1.21814
1.21443
1.21168
1.20892
1.20516
1.20111
1.19559
1.18889
1.18169
1.17494
1.1687
1.16302
1.15958
1.15752
1.15668
1.15645
1.15596
1.1556
1.15493
1.15368
1.15148
1.14877
1.14669
1.14698
1.14815
1.1493
1.14979
1.14973
1.14862
1.14794
1.14859
1.15028
1.15159
1.15223
1.15322
1.15586
1.15996
1.16352
1.16583
1.16818
1.17144
1.1747
1.1771
1.17924
1.18193
1.18478
1.18737
1.18973
1.19186
1.19382
1.19577
1.19764
1.20078
0.424527
0.424276
0.424003
0.423717
0.42341
0.423092
0.422756
0.422243
0.431774
0.460232
0.517543
0.597637
0.711705
0.836008
0.965381
1.09812
1.21513
1.31619
1.40403
1.4724
1.5294
1.57454
1.60952
1.63138
1.64938
1.64688
1.63802
1.62119
1.60486
1.58418
1.56717
1.55529
1.54189
1.53031
1.51973
1.50566
1.48925
1.47276
1.45943
1.44919
1.44213
1.43493
1.42597
1.41526
1.40346
1.39088
1.37726
1.36176
1.34496
1.329
1.31288
1.29737
1.2815
1.26744
1.25509
1.24504
1.23659
1.22818
1.21939
1.21084
1.20336
1.19738
1.19078
1.18368
1.17616
1.16941
1.16369
1.15996
1.15709
1.15496
1.15493
1.15501
1.15445
1.15294
1.1505
1.14849
1.14873
1.15029
1.15165
1.15219
1.15277
1.15446
1.158
1.16191
1.16442
1.1663
1.16923
1.17267
1.17541
1.17757
1.17999
1.18295
1.18564
1.18802
1.19026
1.19233
1.19432
1.1964
1.19834
1.20143
0.422562
0.422305
0.422025
0.421729
0.421416
0.42109
0.420745
0.420401
0.419984
0.419462
0.418926
0.418403
0.417902
0.417433
0.416981
0.416593
0.416011
0.416902
0.450132
0.53266
0.679255
0.850333
1.03862
1.20265
1.33832
1.4415
1.52461
1.58017
1.63018
1.6717
1.70091
1.72835
1.72638
1.72078
1.70458
1.68702
1.67157
1.65066
1.63127
1.61426
1.59694
1.58224
1.57085
1.56714
1.56573
1.56042
1.55051
1.53508
1.51587
1.49518
1.47473
1.45393
1.43453
1.41715
1.40064
1.38506
1.3693
1.35196
1.33292
1.31306
1.29415
1.27668
1.26086
1.24612
1.2326
1.22039
1.20946
1.20063
1.19322
1.18672
1.18026
1.17243
1.16489
1.16005
1.15724
1.15583
1.1559
1.15579
1.15542
1.15456
1.15511
1.1581
1.16178
1.16405
1.16556
1.16747
1.17096
1.17408
1.17607
1.17787
1.18061
1.18358
1.18603
1.18837
1.19055
1.19261
1.19472
1.19692
1.19887
1.20183
0.419546
0.419269
0.418973
0.418671
0.418359
0.418045
0.417723
0.417402
0.417075
0.416756
0.416439
0.416126
0.415819
0.415517
0.415232
0.414948
0.414682
0.4144
0.414072
0.413761
0.413488
0.413246
0.413025
0.412813
0.412557
0.451625
0.560191
0.748315
0.946121
1.1499
1.30762
1.44014
1.54026
1.62558
1.68497
1.7288
1.76854
1.76487
1.75742
1.73697
1.71974
1.70804
1.69572
1.68634
1.67524
1.66416
1.66519
1.66587
1.6632
1.65576
1.64333
1.6246
1.60363
1.58409
1.5662
1.54797
1.52719
1.50399
1.47968
1.45608
1.43424
1.41296
1.39112
1.36907
1.34716
1.32566
1.30491
1.2848
1.26529
1.24707
1.22991
1.21508
1.20334
1.19445
1.1877
1.18273
1.17692
1.16945
1.16298
1.16195
1.16394
1.16714
1.16874
1.16859
1.16883
1.17071
1.1743
1.17622
1.1775
1.17933
1.18222
1.18479
1.18679
1.18885
1.19087
1.19283
1.1949
1.19711
1.19897
1.20187
0.416615
0.416395
0.416165
0.415934
0.415705
0.415477
0.415253
0.415031
0.414813
0.414595
0.41438
0.414173
0.413968
0.413773
0.413583
0.413399
0.413221
0.413049
0.412882
0.412729
0.412587
0.412452
0.412311
0.412174
0.412037
0.411843
0.411642
0.411456
0.411279
0.411129
0.410907
0.450211
0.593716
0.804698
1.07989
1.28781
1.46697
1.5856
1.68923
1.74175
1.78166
1.78625
1.77595
1.7648
1.74887
1.73503
1.72812
1.72182
1.72014
1.72437
1.73394
1.73361
1.72712
1.71098
1.69095
1.67081
1.65522
1.64333
1.63107
1.61474
1.59385
1.57081
1.54773
1.52399
1.49836
1.4711
1.44284
1.41613
1.38953
1.36342
1.33877
1.31556
1.29348
1.27236
1.25144
1.23207
1.21618
1.2046
1.19578
1.1917
1.19018
1.18787
1.18301
1.17767
1.17783
1.18031
1.18188
1.18146
1.18161
1.18319
1.18573
1.18722
1.18863
1.19033
1.19198
1.19367
1.19561
1.1977
1.19935
1.20202
0.414354
0.414218
0.414078
0.413939
0.413801
0.413665
0.41353
0.413397
0.413268
0.413136
0.413006
0.412882
0.41276
0.412641
0.412527
0.41241
0.412296
0.412187
0.412077
0.41197
0.411864
0.411758
0.411643
0.411521
0.411394
0.411263
0.411126
0.410987
0.410851
0.410714
0.410581
0.410399
0.410235
0.410096
0.409983
0.409823
0.466698
0.671462
0.952374
1.26418
1.45956
1.6064
1.68498
1.74375
1.77489
1.77453
1.76932
1.75891
1.75324
1.7545
1.76178
1.77428
1.77667
1.77284
1.76114
1.74586
1.73191
1.72158
1.72013
1.71656
1.70754
1.69311
1.67328
1.65233
1.63566
1.61719
1.59447
1.56651
1.53977
1.5129
1.484
1.45345
1.42185
1.39013
1.35988
1.33293
1.31017
1.29066
1.27276
1.25569
1.23781
1.22222
1.21425
1.20807
1.20596
1.2032
1.19671
1.19189
1.19224
1.19398
1.19397
1.19331
1.19363
1.19435
1.195
1.196
1.19758
1.19924
1.20046
1.20266
0.412967
0.412884
0.412799
0.412715
0.41263
0.412548
0.412466
0.41238
0.412297
0.412214
0.412129
0.412049
0.411967
0.411884
0.411803
0.411717
0.41163
0.411545
0.411458
0.411365
0.411273
0.411172
0.411064
0.410948
0.410829
0.410704
0.410571
0.410439
0.410316
0.410195
0.410073
0.409959
0.409867
0.409796
0.409728
0.40966
0.409581
0.409504
0.409416
0.409283
0.462328
0.68293
1.01439
1.26807
1.48552
1.61746
1.70032
1.76324
1.77336
1.77218
1.77536
1.77489
1.77569
1.77358
1.77442
1.7739
1.76925
1.76263
1.75828
1.75409
1.75495
1.75399
1.74832
1.73786
1.7235
1.71061
1.69905
1.68414
1.66406
1.64431
1.62318
1.59774
1.56899
1.53877
1.50717
1.47661
1.44619
1.41595
1.38605
1.35893
1.33398
1.31188
1.2939
1.27791
1.26202
1.24453
1.23369
1.22684
1.22286
1.21676
1.20922
1.20659
1.2054
1.20403
1.20271
1.20272
1.20313
1.20351
1.20377
1.20491
0.412043
0.411988
0.411935
0.41188
0.411824
0.411769
0.411709
0.411648
0.411586
0.411522
0.411462
0.411402
0.411334
0.411262
0.411188
0.411112
0.411034
0.41096
0.410881
0.410799
0.410708
0.410612
0.410509
0.410403
0.410298
0.410194
0.410084
0.409976
0.409881
0.409798
0.409711
0.409634
0.409592
0.409569
0.409543
0.409511
0.40947
0.409418
0.409342
0.409255
0.409173
0.40913
0.40911
0.409065
0.525501
0.808191
1.11998
1.37339
1.55144
1.64457
1.71917
1.73434
1.74969
1.76294
1.77345
1.78358
1.7838
1.7793
1.77278
1.76687
1.76371
1.76463
1.76532
1.76424
1.76112
1.75468
1.74753
1.74338
1.73758
1.72646
1.71447
1.70099
1.68282
1.66153
1.64018
1.61656
1.59113
1.56286
1.53324
1.5033
1.47338
1.44291
1.4123
1.38386
1.35797
1.33592
1.31616
1.29763
1.27839
1.26385
1.25357
1.24552
1.23772
1.23014
1.22428
1.22
1.21591
1.21342
1.21206
1.21085
0.411341
0.411302
0.411264
0.411223
0.41118
0.411134
0.411082
0.411029
0.410974
0.410921
0.410872
0.41082
0.41076
0.410694
0.410628
0.410561
0.410492
0.410423
0.410356
0.410285
0.410208
0.410127
0.41004
0.409951
0.409871
0.409795
0.40971
0.409626
0.409557
0.409504
0.409451
0.409422
0.409433
0.40945
0.409445
0.40943
0.409402
0.409354
0.409277
0.409199
0.409142
0.409102
0.409067
0.409019
0.408963
0.408949
0.408955
0.442168
0.6684
0.983225
1.24848
1.4481
1.59255
1.69345
1.74205
1.76868
1.7763
1.77834
1.77271
1.76474
1.76131
1.76326
1.76675
1.76976
1.76891
1.76696
1.76418
1.76092
1.76116
1.75912
1.75313
1.7472
1.74204
1.73418
1.72362
1.71208
1.69707
1.68062
1.66125
1.6397
1.61453
1.5857
1.55618
1.52644
1.49715
1.46747
1.43664
1.40789
1.38266
1.36018
1.33824
1.31623
1.29732
1.28253
1.26979
1.25868
1.25014
1.24304
1.23713
1.22932
0.410765
0.41073
0.410695
0.410659
0.410622
0.410581
0.410536
0.410487
0.410437
0.41039
0.410349
0.410304
0.410253
0.410198
0.410143
0.410091
0.410037
0.409983
0.409926
0.409868
0.409815
0.409758
0.409686
0.40962
0.409563
0.4095
0.409437
0.409376
0.409329
0.409294
0.409292
0.409304
0.409353
0.409384
0.40938
0.409371
0.40935
0.409304
0.409224
0.409157
0.409113
0.409081
0.409047
0.408997
0.408949
0.408942
0.408953
0.409001
0.409134
0.40935
0.409427
0.57128
0.880504
1.20736
1.4278
1.60702
1.70406
1.73449
1.75649
1.75736
1.75845
1.75915
1.76189
1.7655
1.7669
1.7678
1.76774
1.76693
1.76533
1.76433
1.76274
1.7611
1.75974
1.76227
1.7617
1.75909
1.75487
1.7483
1.73966
1.72786
1.71547
1.70039
1.6809
1.65953
1.6342
1.60602
1.5769
1.54738
1.51808
1.48824
1.45778
1.43013
1.40426
1.37961
1.3566
1.33598
1.3171
1.29924
1.28523
1.2675
0.41027
0.410241
0.410208
0.410174
0.410137
0.4101
0.410062
0.410023
0.409985
0.409949
0.409912
0.409871
0.409827
0.40978
0.409736
0.409701
0.409667
0.409632
0.409593
0.409556
0.409524
0.409482
0.40943
0.409389
0.409341
0.409281
0.409236
0.409197
0.409172
0.409175
0.409201
0.409254
0.409318
0.409333
0.409332
0.409325
0.409304
0.409252
0.409155
0.409077
0.409054
0.409053
0.409036
0.408994
0.408952
0.40895
0.408978
0.409118
0.409432
0.409616
0.409667
0.409649
0.409608
0.409548
0.543266
0.899181
1.26346
1.4814
1.65729
1.72753
1.74491
1.74753
1.75327
1.75794
1.7599
1.76351
1.76631
1.76665
1.76499
1.7633
1.76307
1.76366
1.76565
1.76886
1.77181
1.77328
1.77387
1.77517
1.77488
1.77299
1.7692
1.76328
1.75534
1.74387
1.73167
1.7172
1.69851
1.67702
1.65151
1.62386
1.59631
1.56626
1.53622
1.5062
1.47691
1.44839
1.42195
1.39608
1.37517
1.34271
0.409836
0.409808
0.409777
0.409746
0.40972
0.409697
0.409671
0.409642
0.409612
0.409582
0.409549
0.409516
0.409482
0.409448
0.409424
0.409411
0.409403
0.409391
0.409376
0.40936
0.409344
0.409317
0.409287
0.409257
0.409212
0.40916
0.409124
0.409111
0.409112
0.409122
0.409175
0.409254
0.40929
0.409289
0.409278
0.409255
0.409222
0.409161
0.409063
0.40902
0.409025
0.40904
0.409051
0.409055
0.409062
0.40908
0.409131
0.409325
0.40963
0.409722
0.409715
0.409669
0.409544
0.409434
0.409283
0.408961
0.411942
0.632104
1.03888
1.37926
1.59932
1.68939
1.7349
1.7371
1.74631
1.75661
1.76382
1.76281
1.76106
1.75914
1.76126
1.76535
1.7695
1.77265
1.77548
1.77771
1.77986
1.78185
1.7843
1.78617
1.78859
1.78922
1.78852
1.78643
1.78155
1.77509
1.76811
1.75769
1.74636
1.73039
1.71074
1.68993
1.66455
1.63878
1.61214
1.584
1.55447
1.52327
1.49615
1.45177
0.409461
0.409443
0.409424
0.409406
0.409391
0.409379
0.409366
0.409353
0.409341
0.409329
0.409319
0.40931
0.409297
0.409293
0.409297
0.409304
0.409318
0.409321
0.409317
0.409309
0.409294
0.409274
0.409252
0.409225
0.409174
0.409119
0.409093
0.409092
0.4091
0.40913
0.409227
0.409261
0.409247
0.40922
0.409183
0.409145
0.409112
0.409062
0.409017
0.40901
0.409025
0.409093
0.409213
0.409284
0.409295
0.409291
0.409321
0.409473
0.409697
0.409736
0.409722
0.409604
0.409356
0.409189
0.408981
0.408745
0.408724
0.408757
0.408813
0.489709
0.850465
1.23719
1.51066
1.65404
1.73275
1.74395
1.75451
1.75576
1.75091
1.75314
1.75972
1.76523
1.76858
1.77052
1.77311
1.77636
1.78006
1.78409
1.78767
1.7903
1.79174
1.79452
1.79722
1.79881
1.80048
1.8001
1.79986
1.79836
1.7936
1.78824
1.78052
1.76896
1.75752
1.74062
1.72167
1.70052
1.67872
1.65192
1.62592
1.58006
0.409263
0.409256
0.409252
0.409246
0.409235
0.409235
0.409239
0.409248
0.409252
0.409258
0.409266
0.40927
0.409274
0.409283
0.409298
0.409309
0.409327
0.409334
0.40933
0.409327
0.409321
0.409306
0.409288
0.409265
0.40922
0.409149
0.409115
0.409108
0.409111
0.40914
0.409139
0.409124
0.40911
0.409107
0.409098
0.409083
0.409061
0.409028
0.409015
0.40904
0.409145
0.409356
0.409517
0.409526
0.409495
0.409413
0.409407
0.409507
0.409606
0.409595
0.409557
0.409384
0.409127
0.408945
0.408752
0.40868
0.40869
0.408726
0.40885
0.409058
0.409532
0.409859
0.653254
1.11292
1.44986
1.61018
1.71632
1.72436
1.73887
1.75166
1.76127
1.76258
1.76516
1.76691
1.7696
1.77402
1.77856
1.78205
1.78524
1.78835
1.79222
1.79659
1.80004
1.80211
1.80328
1.80558
1.80832
1.81035
1.81111
1.81021
1.80949
1.80717
1.80176
1.79718
1.78912
1.7776
1.76292
1.74894
1.73444
1.69873
0.409187
0.40919
0.409194
0.409198
0.409204
0.409216
0.409237
0.409264
0.409279
0.409292
0.409308
0.409323
0.409324
0.409321
0.409323
0.409329
0.409346
0.409349
0.409345
0.409339
0.409337
0.409327
0.409307
0.409275
0.409224
0.409139
0.409028
0.408967
0.408955
0.408946
0.408946
0.408955
0.408991
0.409043
0.409067
0.409069
0.409059
0.409079
0.409128
0.409232
0.409457
0.409679
0.409692
0.409677
0.409592
0.409445
0.409401
0.409394
0.409374
0.409334
0.409277
0.40914
0.408945
0.408765
0.408671
0.408669
0.408695
0.408788
0.409008
0.409533
0.410387
0.411023
0.410947
0.410627
0.551436
0.992792
1.36879
1.58299
1.71266
1.7339
1.75202
1.752
1.75757
1.7593
1.76394
1.7682
1.77218
1.77555
1.77892
1.78339
1.78788
1.79214
1.79595
1.79907
1.80278
1.80699
1.81057
1.813
1.81371
1.8146
1.8157
1.81697
1.8171
1.81684
1.81642
1.81423
1.80874
1.7987
1.79009
1.77368
0.409285
0.409306
0.409318
0.409322
0.40933
0.409349
0.409372
0.409404
0.409423
0.409423
0.409419
0.409404
0.409368
0.409341
0.409332
0.409333
0.409345
0.409347
0.409342
0.409327
0.409314
0.409297
0.409245
0.409162
0.409083
0.408998
0.408896
0.408817
0.408799
0.408802
0.408817
0.408863
0.408954
0.409041
0.409071
0.40911
0.409218
0.409343
0.409411
0.409524
0.409726
0.409761
0.409756
0.409718
0.409615
0.409435
0.40919
0.409089
0.40911
0.409129
0.409104
0.409024
0.408864
0.408694
0.408667
0.408708
0.408929
0.409448
0.409928
0.410448
0.410991
0.411474
0.41132
0.410892
0.411222
0.411829
0.476218
0.913013
1.32532
1.54667
1.67902
1.70716
1.7372
1.73951
1.74819
1.75037
1.75508
1.75977
1.76444
1.77047
1.77502
1.78008
1.7851
1.79003
1.79488
1.79961
1.80407
1.80784
1.81164
1.81431
1.81623
1.81835
1.81926
1.82033
1.82125
1.82127
1.82289
1.82082
1.81676
1.80984
0.409465
0.409475
0.409476
0.409476
0.409473
0.409475
0.409485
0.409488
0.409487
0.409484
0.409469
0.409429
0.409366
0.409298
0.40924
0.409215
0.409207
0.409202
0.409191
0.40917
0.409142
0.409091
0.408986
0.40889
0.408859
0.408846
0.408822
0.408782
0.408765
0.408767
0.408785
0.408856
0.40902
0.409144
0.409205
0.409316
0.409533
0.409604
0.409612
0.409671
0.409757
0.409756
0.409714
0.409647
0.409546
0.409326
0.409015
0.408879
0.408887
0.408996
0.409029
0.409002
0.408862
0.408765
0.408819
0.409119
0.40993
0.411004
0.411988
0.412187
0.411957
0.412151
0.412473
0.413288
0.414481
0.416454
0.418335
0.419652
0.455659
0.848974
1.22842
1.4937
1.63114
1.67309
1.7149
1.71427
1.72158
1.72647
1.7345
1.74207
1.74816
1.75472
1.76018
1.76657
1.77343
1.78074
1.78757
1.79323
1.7983
1.80269
1.80657
1.81083
1.8159
1.81869
1.82009
1.8211
1.82138
1.8225
1.82296
1.82101
0.409556
0.409548
0.409539
0.40953
0.409514
0.409499
0.409482
0.409468
0.409454
0.409432
0.409369
0.409264
0.409141
0.409015
0.408931
0.408895
0.40888
0.408883
0.40889
0.408893
0.408888
0.408847
0.408762
0.408724
0.408729
0.408762
0.40884
0.408873
0.408875
0.408879
0.40892
0.409101
0.409427
0.409506
0.409522
0.409612
0.409718
0.409711
0.409657
0.409592
0.409589
0.409592
0.409536
0.409453
0.409378
0.409226
0.408975
0.408835
0.408829
0.408921
0.409023
0.409094
0.409288
0.409544
0.40992
0.41073
0.411938
0.41284
0.413811
0.414273
0.413765
0.41361
0.414547
0.416876
0.419686
0.422448
0.424837
0.427358
0.428762
0.42984
0.441341
0.784599
1.15483
1.42357
1.56688
1.62192
1.67047
1.67297
1.68374
1.69028
1.699
1.70833
1.71681
1.72658
1.73508
1.74316
1.75079
1.75862
1.76683
1.77583
1.78362
1.79092
1.79721
1.80205
1.80592
1.80995
1.81393
1.81842
1.82135
1.82167
0.409177
0.409153
0.409139
0.409129
0.409109
0.409091
0.409067
0.409043
0.409046
0.409042
0.409011
0.408931
0.408805
0.408694
0.408625
0.408596
0.408601
0.408626
0.408683
0.408729
0.408748
0.408753
0.408766
0.408815
0.408932
0.409127
0.409355
0.409389
0.409372
0.409358
0.409378
0.409533
0.409817
0.409914
0.409893
0.409865
0.409845
0.409781
0.409577
0.409452
0.409454
0.409489
0.409462
0.409404
0.40933
0.409209
0.409058
0.408937
0.408936
0.409045
0.4094
0.410131
0.41115
0.4122
0.412996
0.413775
0.414544
0.414906
0.415498
0.416619
0.417459
0.418433
0.419922
0.422328
0.425662
0.428385
0.43098
0.433234
0.434458
0.437188
0.439265
0.442621
0.444475
0.726173
1.08088
1.35618
1.50313
1.56507
1.61978
1.62597
1.63631
1.64252
1.65278
1.66525
1.67671
1.68679
1.6954
1.70577
1.71672
1.72733
1.73703
1.74621
1.75589
1.76653
1.77582
1.78375
1.7901
1.79644
1.80242
1.8086
0.408685
0.408702
0.408724
0.408759
0.40878
0.408788
0.408789
0.408796
0.408827
0.408838
0.408829
0.408788
0.408705
0.408642
0.408606
0.408591
0.408608
0.408683
0.408773
0.40889
0.40905
0.409165
0.409265
0.409412
0.409587
0.40984
0.409987
0.40998
0.409914
0.409887
0.409898
0.409955
0.410089
0.410199
0.410215
0.410196
0.410112
0.409876
0.409523
0.409447
0.409448
0.409458
0.409532
0.409666
0.409762
0.409874
0.410081
0.410303
0.41061
0.411009
0.411656
0.412767
0.414134
0.415381
0.416562
0.41724
0.417641
0.418
0.41859
0.41998
0.422639
0.425596
0.428121
0.430416
0.432545
0.435021
0.437193
0.439179
0.44185
0.444674
0.448403
0.451138
0.452902
0.45447
0.45594
0.681036
1.0199
1.29541
1.44496
1.50787
1.56017
1.57432
1.58578
1.59144
1.60132
1.61348
1.62638
1.63849
1.64842
1.65944
1.6716
1.68462
1.69716
1.70817
1.71893
1.72978
1.74018
1.7512
1.76173
1.77602
0.408694
0.408736
0.408787
0.40885
0.408923
0.408989
0.40905
0.409121
0.409231
0.409434
0.409587
0.409619
0.409639
0.409648
0.409648
0.409629
0.409663
0.409777
0.409771
0.409759
0.40981
0.40989
0.409963
0.410058
0.410149
0.410255
0.410335
0.410332
0.410302
0.410307
0.410344
0.410376
0.410401
0.41039
0.410374
0.410347
0.410232
0.409893
0.4097
0.409707
0.409656
0.409627
0.409689
0.409921
0.410515
0.41149
0.412645
0.413879
0.415142
0.41621
0.417145
0.417963
0.418652
0.419184
0.420252
0.421266
0.421952
0.422928
0.424355
0.426642
0.42996
0.433324
0.436607
0.43893
0.440898
0.442693
0.443824
0.445844
0.448763
0.45163
0.454623
0.457457
0.459404
0.461414
0.464177
0.466515
0.468327
0.651024
0.970565
1.23837
1.39148
1.45502
1.50739
1.52602
1.5345
1.53877
1.54868
1.56096
1.57448
1.58664
1.59733
1.60854
1.62057
1.63359
1.64716
1.66061
1.67336
1.68602
1.69728
1.71662
0.409845
0.409989
0.410128
0.410266
0.410387
0.410484
0.410574
0.410698
0.410881
0.411021
0.411034
0.410999
0.410863
0.410795
0.410777
0.410712
0.410617
0.410608
0.410597
0.410539
0.410445
0.410368
0.410347
0.410389
0.410396
0.410384
0.410412
0.410542
0.410587
0.410603
0.410648
0.410628
0.410499
0.410345
0.410325
0.410351
0.410446
0.410512
0.410675
0.411008
0.411527
0.412208
0.412922
0.413819
0.414913
0.416266
0.417723
0.41927
0.42056
0.421746
0.422947
0.423599
0.42383
0.424034
0.424762
0.426715
0.429202
0.431762
0.43438
0.43743
0.439976
0.442505
0.444437
0.446026
0.447601
0.448956
0.450998
0.45348
0.456959
0.460251
0.462095
0.464471
0.466484
0.46802
0.470258
0.473547
0.477838
0.479455
0.480088
0.630764
0.936056
1.19502
1.34913
1.40983
1.45813
1.4775
1.48614
1.48965
1.4987
1.51042
1.52312
1.53412
1.54423
1.55566
1.56827
1.58134
1.59379
1.60659
1.61895
1.64109
0.4119
0.411884
0.411821
0.411776
0.411762
0.411723
0.411677
0.411662
0.411647
0.411625
0.411568
0.411437
0.411226
0.411132
0.411153
0.411148
0.411107
0.411017
0.410891
0.410812
0.410756
0.410666
0.410515
0.410478
0.410464
0.410462
0.410493
0.410634
0.410925
0.41121
0.411518
0.411935
0.412131
0.412273
0.412605
0.413199
0.41413
0.415274
0.416415
0.417503
0.418729
0.419983
0.421328
0.42255
0.423372
0.423949
0.424487
0.42517
0.425901
0.426857
0.428273
0.429224
0.430183
0.431672
0.434064
0.436955
0.440407
0.443332
0.44592
0.447651
0.448896
0.450029
0.450794
0.451966
0.453521
0.456247
0.459698
0.462798
0.465269
0.467673
0.468828
0.46981
0.471761
0.474788
0.478316
0.481924
0.484352
0.485909
0.487471
0.489635
0.491472
0.621226
0.911106
1.15891
1.31268
1.3701
1.4154
1.43561
1.44188
1.44482
1.45273
1.46346
1.47479
1.48473
1.4939
1.50419
1.51561
1.5287
1.54
1.55967
0.411362
0.411301
0.411179
0.410998
0.410856
0.410811
0.410792
0.410796
0.410836
0.410888
0.410851
0.410791
0.410818
0.410956
0.411096
0.411216
0.411453
0.411649
0.411622
0.411637
0.411792
0.412128
0.412478
0.412802
0.413161
0.413631
0.414212
0.415066
0.416177
0.417192
0.418033
0.418839
0.41967
0.420636
0.421676
0.422683
0.423654
0.424487
0.425144
0.425781
0.426691
0.427602
0.428496
0.429325
0.429956
0.430606
0.431263
0.432115
0.433264
0.434875
0.437003
0.439773
0.442433
0.445106
0.447307
0.449253
0.450781
0.452078
0.453245
0.453924
0.454733
0.45573
0.4575
0.45977
0.463125
0.466282
0.469235
0.471584
0.472273
0.473355
0.474896
0.476951
0.480388
0.484004
0.486982
0.488918
0.489408
0.490694
0.493693
0.498155
0.501254
0.502559
0.503705
0.621039
0.897698
1.1382
1.28507
1.33766
1.38026
1.39638
1.40173
1.40436
1.4114
1.42095
1.43096
1.43956
1.4475
1.45703
1.46661
1.48401
0.413678
0.413858
0.413988
0.414137
0.414375
0.414689
0.415034
0.415381
0.41568
0.415986
0.416368
0.416824
0.417372
0.418003
0.418661
0.41929
0.419832
0.420335
0.420843
0.421385
0.42203
0.422603
0.423114
0.42372
0.424398
0.425016
0.425588
0.426183
0.426702
0.427145
0.427611
0.428195
0.428932
0.429785
0.430576
0.431284
0.431874
0.432368
0.432851
0.433561
0.434451
0.435284
0.436227
0.437649
0.439521
0.441435
0.443346
0.445046
0.446859
0.448684
0.450548
0.452124
0.4537
0.455167
0.456167
0.456896
0.457452
0.45826
0.459264
0.46085
0.462702
0.465354
0.468394
0.471515
0.47398
0.475804
0.476969
0.478023
0.478909
0.480231
0.482698
0.486255
0.48971
0.492144
0.493391
0.494257
0.496039
0.498866
0.503125
0.506227
0.507862
0.509829
0.512434
0.514076
0.515307
0.6329
0.897015
1.12366
1.26343
1.3091
1.34845
1.36137
1.36643
1.36873
1.37487
1.38272
1.39115
1.39901
1.40585
1.41933
0.425047
0.42526
0.425485
0.425716
0.425959
0.426207
0.426463
0.426741
0.42703
0.427309
0.427585
0.427864
0.428153
0.428449
0.42876
0.42911
0.429502
0.429907
0.430346
0.430813
0.431305
0.431847
0.432406
0.432964
0.433461
0.433922
0.434385
0.434938
0.435373
0.435819
0.436424
0.437245
0.438176
0.439066
0.439956
0.440893
0.441952
0.443191
0.444538
0.445883
0.447023
0.448252
0.449708
0.451324
0.452807
0.454302
0.455731
0.457128
0.458272
0.459053
0.459667
0.460225
0.461066
0.462152
0.463216
0.464033
0.465277
0.46705
0.46958
0.472301
0.475239
0.477343
0.479144
0.480899
0.481561
0.482322
0.483025
0.484365
0.487073
0.490185
0.49357
0.495743
0.497541
0.499299
0.50046
0.502256
0.504802
0.508465
0.511291
0.512742
0.514803
0.517256
0.519477
0.521646
0.524766
0.527141
0.528446
0.649988
0.904618
1.11831
1.24551
1.28461
1.32043
1.33097
1.33534
1.33742
1.3431
1.35024
1.35619
1.36637
0.435568
0.435773
0.435996
0.43623
0.436468
0.436727
0.437014
0.437315
0.43762
0.437925
0.43823
0.438582
0.438986
0.439389
0.439816
0.440314
0.440884
0.441493
0.442101
0.442736
0.443399
0.44407
0.444766
0.445518
0.446296
0.447041
0.447817
0.448671
0.449508
0.450322
0.451176
0.451992
0.452789
0.453578
0.454439
0.455403
0.45646
0.457459
0.458367
0.459163
0.459938
0.460717
0.461393
0.46194
0.462519
0.463273
0.464132
0.465122
0.465988
0.466705
0.467358
0.468331
0.469673
0.471566
0.473656
0.475927
0.47791
0.479879
0.48171
0.483164
0.484703
0.48578
0.486612
0.487725
0.488589
0.489674
0.491627
0.494724
0.497835
0.500427
0.502837
0.504192
0.504825
0.505899
0.508273
0.51075
0.513744
0.516507
0.518455
0.520602
0.522699
0.52468
0.526536
0.529279
0.532899
0.535413
0.537644
0.53926
0.540516
0.677521
0.921339
1.11932
1.23125
1.26469
1.29728
1.30285
1.30785
1.3101
1.31441
1.32319
0.450743
0.450964
0.45117
0.451379
0.451619
0.451914
0.452274
0.452632
0.452971
0.45332
0.45366
0.454014
0.454384
0.454735
0.455077
0.455441
0.455818
0.456179
0.456557
0.456964
0.457356
0.457749
0.458173
0.458621
0.459069
0.459543
0.460042
0.460559
0.461074
0.461597
0.462108
0.462619
0.463126
0.463611
0.464164
0.464776
0.465384
0.466
0.466661
0.467424
0.468273
0.469081
0.469822
0.470559
0.471484
0.472454
0.473553
0.474799
0.476344
0.478026
0.479829
0.481564
0.483253
0.484742
0.486239
0.487719
0.489019
0.490049
0.490868
0.491504
0.492118
0.493241
0.494539
0.496159
0.498666
0.501494
0.504219
0.506215
0.50797
0.509265
0.510296
0.51191
0.513238
0.515193
0.517575
0.520823
0.523641
0.525217
0.52705
0.528591
0.530165
0.532135
0.534782
0.538586
0.541283
0.542753
0.544683
0.547387
0.550252
0.55209
0.553247
0.713026
0.94721
1.12743
1.22105
1.24818
1.27795
1.27734
1.28062
1.28583
0.462646
0.462801
0.463008
0.463238
0.463465
0.463688
0.463881
0.464077
0.464299
0.464566
0.464875
0.46518
0.465458
0.465728
0.466014
0.466338
0.466686
0.46703
0.467366
0.467706
0.468046
0.468379
0.468751
0.469162
0.469594
0.470042
0.470534
0.471077
0.471675
0.472326
0.473027
0.473754
0.47451
0.475287
0.47603
0.476758
0.477472
0.478245
0.479128
0.480204
0.481386
0.482654
0.483988
0.485306
0.486449
0.487433
0.488346
0.489296
0.490189
0.491193
0.492263
0.493285
0.494131
0.494728
0.495351
0.496085
0.497029
0.497984
0.499125
0.500601
0.502201
0.504238
0.506533
0.50898
0.511015
0.512929
0.514749
0.515935
0.516904
0.51782
0.519006
0.520624
0.523489
0.526117
0.528526
0.530706
0.532033
0.533517
0.534764
0.536521
0.539215
0.542213
0.545655
0.548029
0.549203
0.550943
0.553342
0.555811
0.558087
0.560181
0.562752
0.564143
0.575242
0.755437
0.977474
1.13899
1.21105
1.23294
1.25727
1.25649
0.476459
0.476644
0.476846
0.477031
0.477244
0.477498
0.477753
0.477992
0.478222
0.478485
0.478808
0.479147
0.479478
0.47981
0.480138
0.480474
0.480839
0.481238
0.481662
0.482093
0.482539
0.483017
0.483503
0.483968
0.484426
0.484895
0.485386
0.485923
0.486515
0.487082
0.487623
0.488205
0.488839
0.489479
0.490118
0.490726
0.491336
0.491964
0.492616
0.493222
0.493789
0.494369
0.494989
0.495675
0.496393
0.497143
0.497853
0.498504
0.499195
0.499987
0.500859
0.501838
0.502975
0.503949
0.505039
0.506429
0.50818
0.510078
0.512124
0.514153
0.516265
0.518028
0.519589
0.52085
0.521662
0.522324
0.523257
0.524661
0.525799
0.527486
0.529453
0.532052
0.534501
0.536761
0.538868
0.539787
0.541077
0.542646
0.544703
0.547567
0.550271
0.552774
0.554791
0.555673
0.557281
0.55976
0.562167
0.564165
0.566256
0.568518
0.570687
0.573406
0.573896
0.575112
0.603893
0.803515
1.01038
1.15114
1.19904
1.22602
0.490177
0.490373
0.490582
0.490784
0.49098
0.491168
0.491338
0.491538
0.491809
0.49206
0.492255
0.492447
0.49269
0.49298
0.493274
0.493545
0.493793
0.494074
0.494399
0.494753
0.495117
0.495477
0.495839
0.496222
0.496622
0.49704
0.497452
0.497866
0.498244
0.498615
0.499059
0.499549
0.500024
0.500531
0.501103
0.501724
0.502418
0.50315
0.503833
0.504496
0.505166
0.505875
0.506597
0.507335
0.50815
0.509111
0.510291
0.511629
0.51297
0.51426
0.515516
0.516812
0.518164
0.519696
0.521159
0.522478
0.523566
0.52463
0.525594
0.52652
0.527424
0.528227
0.52914
0.52992
0.530861
0.531773
0.533242
0.535118
0.537826
0.540248
0.542622
0.544642
0.546114
0.547648
0.548536
0.549705
0.551204
0.553074
0.55562
0.557816
0.559755
0.56142
0.562663
0.564704
0.567204
0.569442
0.571322
0.573081
0.574977
0.576945
0.578964
0.580778
0.582565
0.584633
0.585874
0.586657
0.644235
0.866324
1.04276
1.18296
0.504848
0.505018
0.505207
0.505406
0.505615
0.505831
0.506062
0.50629
0.50651
0.506727
0.506992
0.50727
0.507531
0.507779
0.508043
0.508326
0.508648
0.508975
0.509276
0.509589
0.50994
0.510322
0.510722
0.511127
0.511545
0.511986
0.512441
0.512904
0.513394
0.513906
0.514428
0.514941
0.515526
0.516148
0.516752
0.517363
0.518025
0.518734
0.519465
0.520218
0.52098
0.52174
0.52251
0.523297
0.524139
0.525009
0.525863
0.526647
0.527436
0.528195
0.528928
0.529615
0.530294
0.531002
0.531796
0.532579
0.533353
0.534277
0.535025
0.535924
0.536961
0.538377
0.53981
0.541743
0.543785
0.546239
0.548371
0.55034
0.552019
0.553465
0.554838
0.555565
0.556468
0.557312
0.558549
0.560332
0.56222
0.564452
0.566449
0.568208
0.569961
0.571425
0.573269
0.575235
0.576972
0.57835
0.579764
0.581486
0.583191
0.584872
0.586569
0.588204
0.589881
0.591347
0.59254
0.593862
0.594787
0.595448
0.686359
1.04137
0.520578
0.520708
0.520847
0.521
0.521177
0.521388
0.52161
0.521816
0.522024
0.522249
0.522478
0.522709
0.522969
0.523248
0.52353
0.523803
0.524073
0.524354
0.524656
0.52497
0.525282
0.525598
0.525933
0.526287
0.526653
0.527027
0.527415
0.52783
0.52827
0.528738
0.529203
0.529674
0.530141
0.530596
0.531043
0.531527
0.532011
0.5325
0.53301
0.53355
0.534128
0.534746
0.535396
0.536093
0.536792
0.537491
0.538133
0.538797
0.539552
0.540382
0.541316
0.542278
0.543253
0.544155
0.545194
0.546372
0.547833
0.549341
0.551067
0.5527
0.554376
0.555828
0.557247
0.558427
0.559539
0.560681
0.561676
0.562598
0.562995
0.563562
0.564314
0.565461
0.566873
0.568556
0.570728
0.572771
0.574736
0.576369
0.577621
0.578936
0.580089
0.581459
0.582877
0.584218
0.585559
0.587024
0.588587
0.590033
0.59141
0.592691
0.593844
0.594954
0.595886
0.596754
0.597627
0.598564
0.599424
0.600644
0.601066
0.702251
0.537482
0.537627
0.537803
0.537981
0.538147
0.538307
0.538466
0.53863
0.538831
0.539052
0.539271
0.539487
0.539702
0.539931
0.54018
0.540445
0.540725
0.54101
0.541298
0.541595
0.541912
0.54224
0.542569
0.542902
0.543244
0.543598
0.543964
0.544338
0.544719
0.545115
0.545521
0.545971
0.546464
0.54697
0.547496
0.548052
0.548642
0.549234
0.549826
0.55042
0.551014
0.551627
0.552255
0.552941
0.553666
0.554453
0.555284
0.556168
0.55706
0.55797
0.558812
0.559647
0.560485
0.561397
0.562294
0.563226
0.564083
0.564898
0.565647
0.566421
0.567185
0.567884
0.568623
0.569162
0.569718
0.570329
0.571254
0.572387
0.573717
0.575209
0.576861
0.578808
0.580644
0.582345
0.583672
0.584697
0.585624
0.586332
0.5872
0.588086
0.589209
0.590434
0.591663
0.592832
0.593928
0.594986
0.595884
0.596655
0.597399
0.598131
0.598915
0.599636
0.600259
0.600834
0.601406
0.601958
0.602511
0.603119
0.603625
0.603894
0.555666
0.555789
0.555916
0.556038
0.556178
0.556345
0.55654
0.556721
0.556886
0.557053
0.557244
0.557448
0.557654
0.557864
0.558082
0.55831
0.558538
0.558771
0.559019
0.559284
0.559554
0.559828
0.560117
0.56042
0.560739
0.561069