/*--------------------------------*- C++ -*----------------------------------*\
  =========                 |
  \\      /  F ield         | OpenFOAM: The Open Source CFD Toolbox
   \\    /   O peration     | Website:  https://openfoam.org
    \\  /    A nd           | Version:  7
     \\/     M anipulation  |
\*---------------------------------------------------------------------------*/
FoamFile
{
    version     2.0;
    format      ascii;
    class       volScalarField;
    location    "1.5";
    object      p;
}
// * * * * * * * * * * * * * * * * * * * * * * * * * * * * * * * * * * * * * //

dimensions      [1 -1 -2 0 0 0 0];

internalField   nonuniform List<scalar> 
90000
(
0.807769
0.812744
0.818656
0.82472
0.831212
0.837217
0.843648
0.849367
0.85532
0.860617
0.865939
0.870749
0.875575
0.879753
0.884583
0.889208
0.894458
0.899784
0.905909
0.912343
0.919853
0.927944
0.937268
0.945952
0.955011
0.962562
0.970065
0.975642
0.979923
0.983584
0.98633
0.988619
0.991775
0.99436
0.992092
0.984987
0.977117
0.970706
0.966365
0.966025
0.96854
0.972987
0.979748
0.986937
0.994842
1.0015
1.00743
1.01353
1.01923
1.02365
1.02767
1.03307
1.04098
1.05144
1.05887
1.06675
1.07347
1.07326
1.07186
1.07091
1.0716
1.07376
1.07661
1.07989
1.08297
1.0837
1.08334
1.08321
1.08434
1.08652
1.08929
1.09046
1.09041
1.08999
1.0902
1.09063
1.09131
1.09177
1.0917
1.09237
1.09353
1.09401
1.09357
1.09291
1.09197
1.09085
1.09032
1.08964
1.08843
1.08564
1.08144
1.07919
1.07752
1.07475
1.07093
1.0658
1.05626
1.04
1.02054
0.990431
0.8045
0.805255
0.806583
0.808457
0.810905
0.813808
0.817271
0.82121
0.825533
0.830271
0.835249
0.84055
0.845995
0.851644
0.856853
0.862053
0.866996
0.872053
0.877106
0.88247
0.888085
0.893679
0.900101
0.906762
0.914248
0.922582
0.930507
0.939644
0.9477
0.955941
0.96412
0.969749
0.974999
0.979204
0.981109
0.982491
0.984931
0.986801
0.985862
0.983261
0.981172
0.980286
0.980961
0.983797
0.988748
0.995271
1.00269
1.01035
1.01804
1.02604
1.03233
1.03783
1.04436
1.05014
1.05474
1.05914
1.06618
1.07032
1.07286
1.07327
1.07351
1.07434
1.076
1.078
1.08059
1.08353
1.08454
1.08453
1.08459
1.08584
1.08806
1.08974
1.09043
1.09049
1.09062
1.09052
1.09087
1.09158
1.09162
1.09227
1.09335
1.09394
1.09343
1.09256
1.09174
1.09062
1.09018
1.08962
1.0884
1.0846
1.08094
1.07914
1.07714
1.07447
1.07079
1.06581
1.05653
1.04036
1.0209
0.990794
0.804409
0.804571
0.804748
0.804947
0.805187
0.80548
0.805856
0.806435
0.807227
0.808262
0.809561
0.811231
0.813265
0.815781
0.81869
0.822079
0.825803
0.829847
0.8343
0.838948
0.844166
0.84941
0.855148
0.861137
0.867576
0.874806
0.882363
0.890961
0.900256
0.90969
0.920752
0.931206
0.940997
0.950472
0.959299
0.967443
0.973031
0.977691
0.981641
0.985393
0.990807
0.995377
0.997146
0.999531
1.00174
1.00299
1.00568
1.01043
1.01681
1.0239
1.03042
1.03725
1.04578
1.05302
1.05584
1.05788
1.06117
1.06529
1.06948
1.0732
1.07686
1.0772
1.0766
1.0771
1.07857
1.0818
1.08488
1.08589
1.08567
1.0857
1.08706
1.08925
1.09069
1.09103
1.09087
1.09056
1.09079
1.09166
1.09178
1.0924
1.09335
1.09378
1.09317
1.09229
1.0918
1.09094
1.09031
1.08985
1.08839
1.08382
1.08094
1.07896
1.07687
1.0747
1.07128
1.06614
1.05663
1.04046
1.02125
0.991126
0.804574
0.804728
0.804865
0.805016
0.805166
0.805324
0.805541
0.805748
0.805978
0.806219
0.80648
0.806775
0.807107
0.807493
0.807967
0.808545
0.809425
0.810548
0.811987
0.813752
0.815943
0.81855
0.821691
0.825323
0.829687
0.834537
0.84035
0.846654
0.854142
0.862336
0.871646
0.882289
0.893459
0.906141
0.918596
0.932658
0.944998
0.956894
0.967986
0.97636
0.983831
0.989878
0.995655
1.00219
1.00828
1.01259
1.0146
1.01751
1.02104
1.02492
1.02912
1.0344
1.04195
1.04988
1.05561
1.0595
1.06111
1.06271
1.06516
1.06952
1.07427
1.0777
1.07766
1.07727
1.07769
1.07964
1.08302
1.08606
1.08696
1.08686
1.08703
1.08846
1.09032
1.09115
1.09106
1.0907
1.09085
1.09154
1.09156
1.0921
1.09309
1.09363
1.09309
1.09217
1.09193
1.09101
1.09009
1.09007
1.08761
1.08382
1.08162
1.07919
1.07657
1.07407
1.07053
1.06572
1.05682
1.04081
1.02172
0.99158
0.804809
0.804973
0.80511
0.805262
0.805431
0.805607
0.80579
0.80598
0.806157
0.806352
0.806554
0.806778
0.807018
0.807291
0.807603
0.807981
0.808308
0.808646
0.809019
0.809451
0.80995
0.810537
0.811237
0.812075
0.813319
0.814914
0.816978
0.819546
0.822813
0.82686
0.831817
0.8381
0.845417
0.854512
0.865304
0.877344
0.892196
0.906946
0.924066
0.940219
0.955494
0.969429
0.981587
0.992673
1.00284
1.00992
1.01768
1.02606
1.03115
1.03336
1.03494
1.03676
1.04105
1.04683
1.05249
1.05888
1.06305
1.06419
1.06466
1.06712
1.07089
1.07402
1.07642
1.07959
1.07979
1.08033
1.08184
1.08423
1.0865
1.08786
1.08827
1.08861
1.08964
1.09084
1.09127
1.09117
1.09118
1.09146
1.09143
1.09203
1.093
1.0936
1.09313
1.09225
1.09212
1.09086
1.09023
1.0898
1.08652
1.08312
1.08095
1.07875
1.07648
1.07423
1.0706
1.06546
1.05665
1.04097
1.02201
0.992027
0.805025
0.805185
0.805307
0.805444
0.805625
0.805818
0.805996
0.806176
0.806381
0.806599
0.806811
0.807029
0.807259
0.807508
0.807775
0.808053
0.80835
0.808642
0.80897
0.809335
0.80973
0.81019
0.810694
0.811315
0.811858
0.812418
0.813048
0.813773
0.814625
0.815663
0.81692
0.818715
0.821241
0.824539
0.829258
0.835357
0.843859
0.854582
0.867843
0.885198
0.903208
0.924195
0.947032
0.96551
0.985593
1.00109
1.01478
1.02518
1.02975
1.03298
1.03511
1.03656
1.03958
1.04431
1.05048
1.05769
1.063
1.06472
1.0644
1.06539
1.06816
1.07123
1.07425
1.07807
1.08201
1.08224
1.08269
1.08349
1.08511
1.08725
1.08916
1.08953
1.08971
1.09029
1.09104
1.09145
1.09169
1.09184
1.09136
1.09172
1.09267
1.09337
1.09288
1.0919
1.09119
1.09
1.09014
1.09008
1.08733
1.08379
1.08097
1.07825
1.07586
1.07366
1.07016
1.06545
1.0569
1.04125
1.02247
0.99265
0.805282
0.805421
0.805552
0.805708
0.805888
0.80607
0.806239
0.806422
0.806623
0.806827
0.807035
0.80726
0.807501
0.807756
0.808019
0.808289
0.808588
0.808903
0.809247
0.809595
0.809955
0.81035
0.81078
0.811236
0.811732
0.812253
0.812846
0.813484
0.814188
0.814969
0.815912
0.816703
0.817569
0.818565
0.819859
0.821583
0.824193
0.828075
0.83385
0.842175
0.853543
0.868976
0.888498
0.911382
0.93596
0.96195
0.984826
1.00448
1.01389
1.0227
1.02677
1.02958
1.0356
1.04335
1.05023
1.05746
1.06358
1.06485
1.06414
1.06485
1.06755
1.07007
1.07271
1.07618
1.08035
1.0828
1.08352
1.08418
1.08536
1.08706
1.08854
1.08993
1.09019
1.09039
1.09085
1.09137
1.09187
1.09226
1.0915
1.09161
1.09267
1.09339
1.0929
1.09225
1.09151
1.0901
1.0901
1.08946
1.08691
1.0841
1.08157
1.07865
1.07596
1.07341
1.06974
1.06487
1.05664
1.04144
1.02303
0.993337
0.8055
0.805624
0.805772
0.805938
0.806104
0.806264
0.806449
0.806646
0.806836
0.807023
0.807226
0.807452
0.807692
0.807941
0.808197
0.808464
0.80875
0.809062
0.809407
0.809755
0.81011
0.8105
0.810924
0.811365
0.811834
0.812325
0.812866
0.81344
0.814056
0.814705
0.815421
0.816207
0.8171
0.818045
0.819167
0.820607
0.822126
0.824027
0.826604
0.829974
0.834968
0.841909
0.851828
0.86581
0.883007
0.907319
0.932534
0.958696
0.979855
0.996391
1.00956
1.02015
1.03019
1.03972
1.0461
1.05315
1.06206
1.06389
1.06407
1.06589
1.06951
1.07073
1.07177
1.07415
1.07773
1.08085
1.08302
1.08546
1.08693
1.08766
1.0883
1.08935
1.09036
1.09072
1.09088
1.09124
1.09181
1.09223
1.09144
1.09154
1.09264
1.09332
1.09306
1.09298
1.09175
1.09004
1.08971
1.08887
1.08635
1.08371
1.0813
1.07855
1.07553
1.07278
1.06897
1.06428
1.05632
1.04181
1.02387
0.994247
0.805665
0.805801
0.805965
0.806117
0.806272
0.806434
0.806633
0.806821
0.807001
0.807195
0.807409
0.807632
0.807864
0.808107
0.808362
0.808633
0.808917
0.809222
0.809555
0.809896
0.810252
0.810639
0.811054
0.811484
0.811939
0.81242
0.812934
0.813482
0.814064
0.814683
0.815336
0.81604
0.816846
0.817739
0.818769
0.820052
0.821583
0.823433
0.825896
0.828943
0.832523
0.837397
0.843498
0.851136
0.860935
0.874707
0.891208
0.908866
0.928703
0.945934
0.96402
0.982895
0.998007
1.01664
1.02959
1.04042
1.05293
1.06215
1.06551
1.06952
1.07211
1.07114
1.07111
1.07288
1.07632
1.07913
1.08207
1.08496
1.08707
1.08788
1.08832
1.08915
1.09024
1.09092
1.0911
1.09134
1.09184
1.09206
1.0913
1.09158
1.09262
1.0932
1.0932
1.09325
1.0914
1.08981
1.0895
1.08844
1.08592
1.08337
1.08104
1.0783
1.07532
1.07242
1.06847
1.06381
1.05657
1.04245
1.02476
0.995137
0.805757
0.805912
0.806069
0.806237
0.806395
0.806571
0.806763
0.806943
0.80713
0.807345
0.807575
0.807802
0.808034
0.808278
0.808539
0.808821
0.809115
0.809414
0.809724
0.810054
0.810412
0.810792
0.811186
0.811594
0.812027
0.812483
0.812961
0.81347
0.814013
0.814596
0.815223
0.815897
0.816659
0.817507
0.818478
0.819668
0.821104
0.822869
0.825213
0.828161
0.831667
0.836318
0.842145
0.848916
0.857138
0.868004
0.88013
0.890048
0.898909
0.907899
0.919489
0.933853
0.95091
0.97257
0.997183
1.01863
1.03698
1.05694
1.06282
1.06747
1.07034
1.07124
1.07297
1.07541
1.07771
1.07962
1.08147
1.08385
1.08561
1.08705
1.08861
1.0896
1.0902
1.09064
1.09097
1.09137
1.09206
1.09192
1.09123
1.09165
1.09258
1.09302
1.09319
1.09317
1.09107
1.08971
1.08935
1.08809
1.08552
1.08309
1.08073
1.07805
1.07512
1.07222
1.06817
1.06356
1.05649
1.0429
1.0255
0.99595
0.806062
0.806215
0.806363
0.80653
0.806694
0.806878
0.807057
0.807225
0.807407
0.807617
0.80784
0.80806
0.808284
0.808521
0.808761
0.809019
0.809306
0.809591
0.809866
0.810156
0.810483
0.810828
0.811179
0.81155
0.811951
0.812376
0.812824
0.813304
0.813827
0.814393
0.815003
0.815663
0.816396
0.817212
0.818148
0.819281
0.820658
0.822376
0.824601
0.827446
0.830905
0.83543
0.841194
0.847826
0.855973
0.866533
0.878128
0.887724
0.894126
0.898039
0.901744
0.906035
0.91385
0.925394
0.943691
0.968473
0.994986
1.02452
1.04209
1.0567
1.06257
1.0697
1.0761
1.08073
1.08169
1.08189
1.08191
1.08258
1.0843
1.08681
1.08882
1.09024
1.09058
1.09075
1.0909
1.09178
1.09278
1.09238
1.09137
1.09178
1.09264
1.09298
1.0933
1.09308
1.09084
1.0897
1.08938
1.08813
1.0857
1.08315
1.08077
1.07805
1.0751
1.07212
1.06801
1.06342
1.05655
1.0437
1.02639
0.996694
0.806112
0.806252
0.806386
0.806538
0.806691
0.806859
0.807028
0.807202
0.807382
0.807572
0.807774
0.807985
0.808206
0.808441
0.808679
0.808926
0.809192
0.80947
0.809746
0.810031
0.810341
0.810669
0.811003
0.811356
0.811739
0.812158
0.812607
0.81309
0.813611
0.81417
0.814774
0.815424
0.81614
0.816937
0.817845
0.818928
0.820263
0.821937
0.824047
0.826773
0.830194
0.83458
0.840126
0.8467
0.854941
0.865362
0.876917
0.886615
0.893303
0.897301
0.899414
0.900745
0.90228
0.904984
0.911187
0.922203
0.94148
0.968044
1.00023
1.02904
1.04873
1.06585
1.07387
1.07938
1.07996
1.07891
1.08016
1.08202
1.08545
1.08726
1.08832
1.0891
1.08972
1.09037
1.09101
1.09186
1.09247
1.09181
1.09129
1.09203
1.09299
1.09335
1.09388
1.09309
1.09083
1.08987
1.08942
1.0881
1.0858
1.08342
1.08107
1.07826
1.07514
1.07202
1.06793
1.06331
1.05648
1.04363
1.02706
0.997351
0.805887
0.806028
0.806156
0.806313
0.806465
0.806623
0.806791
0.806976
0.807159
0.807341
0.807535
0.807743
0.807966
0.808199
0.80844
0.80869
0.808945
0.809219
0.809513
0.809815
0.810127
0.810457
0.8108
0.811151
0.811524
0.811939
0.812401
0.812901
0.81343
0.813983
0.814575
0.815209
0.815899
0.816674
0.817556
0.818604
0.819901
0.821515
0.823524
0.826152
0.829487
0.833702
0.839016
0.845463
0.85361
0.863809
0.875357
0.885525
0.892875
0.897189
0.899219
0.90041
0.901288
0.902037
0.903148
0.905524
0.911255
0.922022
0.944525
0.971701
1.00219
1.03124
1.04995
1.06486
1.07014
1.07579
1.08056
1.08437
1.08775
1.08781
1.08687
1.08777
1.08928
1.09049
1.09149
1.09228
1.09237
1.09149
1.09155
1.09273
1.09352
1.09373
1.0944
1.093
1.09092
1.09006
1.08943
1.08803
1.08588
1.0837
1.08136
1.07845
1.07512
1.07191
1.06791
1.06322
1.05644
1.04387
1.02714
0.997722
0.805542
0.805688
0.805812
0.805965
0.80612
0.806252
0.806385
0.806552
0.806727
0.806904
0.807099
0.807313
0.807544
0.807783
0.808031
0.808296
0.808574
0.808863
0.809169
0.809496
0.809829
0.810172
0.810549
0.81096
0.811392
0.811836
0.812297
0.81279
0.813314
0.813858
0.814435
0.815046
0.815688
0.816406
0.81725
0.818251
0.81951
0.82108
0.823018
0.825559
0.828788
0.832828
0.837919
0.844176
0.852137
0.861985
0.873376
0.884248
0.892902
0.897719
0.899399
0.900239
0.900939
0.901637
0.902401
0.903376
0.904882
0.907203
0.913203
0.92464
0.946246
0.972224
1.00315
1.03076
1.05369
1.07071
1.07805
1.08289
1.08434
1.08389
1.08546
1.0877
1.09
1.0912
1.09151
1.09166
1.09172
1.09135
1.0922
1.09346
1.09362
1.09373
1.09445
1.09262
1.09093
1.09008
1.08931
1.08795
1.08584
1.08379
1.08157
1.07863
1.0751
1.07179
1.06781
1.0629
1.05611
1.04373
1.02722
0.99808
0.805101
0.805252
0.805389
0.805517
0.805706
0.805901
0.806081
0.80628
0.80652
0.806758
0.806981
0.807207
0.807444
0.807689
0.807945
0.808217
0.808507
0.808812
0.809124
0.809458
0.809808
0.810159
0.810525
0.81092
0.811349
0.811802
0.812271
0.812769
0.813293
0.81383
0.814387
0.814965
0.815566
0.816232
0.817014
0.817963
0.819166
0.820696
0.82256
0.824997
0.828157
0.832019
0.836835
0.842952
0.850702
0.86003
0.871106
0.88284
0.892936
0.898045
0.899676
0.90034
0.900835
0.90143
0.902122
0.903045
0.904252
0.905535
0.907326
0.910218
0.916322
0.927206
0.946159
0.97048
1.00223
1.02924
1.05328
1.06727
1.0749
1.08048
1.08724
1.09061
1.09131
1.09104
1.09076
1.09135
1.09142
1.09181
1.09302
1.09365
1.09328
1.09383
1.09426
1.09221
1.09074
1.08988
1.08925
1.08787
1.08563
1.08358
1.08155
1.07869
1.0751
1.07177
1.0678
1.06263
1.05573
1.04354
1.02727
0.998589
0.804783
0.804934
0.805094
0.805262
0.805446
0.80565
0.805847
0.806034
0.806238
0.806468
0.806712
0.806965
0.807233
0.807516
0.807809
0.808103
0.808409
0.808744
0.809088
0.809442
0.809818
0.810208
0.810607
0.811017
0.811456
0.811921
0.812398
0.812905
0.813429
0.813955
0.814482
0.815007
0.815544
0.816151
0.816882
0.817763
0.818908
0.820393
0.822214
0.824569
0.827618
0.831288
0.835853
0.841789
0.849189
0.85798
0.86894
0.881354
0.892049
0.897919
0.900059
0.900536
0.900819
0.901268
0.901952
0.902836
0.903912
0.905271
0.906967
0.90914
0.911426
0.914459
0.919472
0.928968
0.945963
0.972339
1.00589
1.03357
1.06054
1.07551
1.08556
1.08894
1.087
1.0882
1.09065
1.09198
1.09178
1.09219
1.09277
1.09298
1.09323
1.09469
1.094
1.09187
1.09048
1.08974
1.08918
1.08768
1.0853
1.08334
1.0814
1.07863
1.07515
1.07188
1.06792
1.06248
1.05541
1.04335
1.02733
0.999258
0.804725
0.804876
0.805052
0.805211
0.805384
0.805593
0.805824
0.806034
0.80624
0.806476
0.806742
0.807016
0.807302
0.807602
0.807921
0.808253
0.808588
0.808947
0.809315
0.809699
0.810104
0.810523
0.810951
0.81138
0.81183
0.812307
0.812797
0.813313
0.813828
0.814307
0.814763
0.815206
0.815676
0.816236
0.816928
0.817782
0.818876
0.820295
0.82205
0.82428
0.827132
0.830591
0.834879
0.840473
0.847467
0.855865
0.866561
0.879076
0.890579
0.898233
0.900209
0.900399
0.900601
0.901044
0.901796
0.902686
0.903691
0.905037
0.906837
0.908925
0.911047
0.913407
0.915409
0.917498
0.921074
0.93101
0.948474
0.976907
1.01039
1.03663
1.06232
1.07341
1.07859
1.08663
1.09221
1.09293
1.09226
1.09152
1.09183
1.0926
1.09472
1.09554
1.09358
1.0916
1.09037
1.08973
1.08906
1.08739
1.08502
1.08315
1.08128
1.07862
1.07528
1.07204
1.06808
1.06232
1.05515
1.04325
1.02754
1.00011
0.804971
0.805123
0.805293
0.805483
0.805678
0.80588
0.806103
0.806347
0.806595
0.80685
0.807126
0.807423
0.807737
0.808064
0.808412
0.808778
0.809147
0.809536
0.809934
0.810344
0.81077
0.811207
0.811658
0.812108
0.81257
0.813058
0.813542
0.814021
0.814453
0.814809
0.815153
0.815506
0.815913
0.81644
0.817084
0.817892
0.81893
0.82022
0.821846
0.823908
0.826509
0.829757
0.833806
0.838963
0.845544
0.853608
0.863694
0.875865
0.888221
0.897706
0.900118
0.900324
0.900508
0.900905
0.901583
0.90245
0.903454
0.904831
0.906802
0.909041
0.911132
0.913126
0.914888
0.916227
0.91726
0.918974
0.923118
0.934429
0.952319
0.981997
1.0143
1.04478
1.06824
1.08393
1.08991
1.08984
1.08855
1.08979
1.09205
1.09476
1.09658
1.0951
1.09295
1.09162
1.09059
1.08992
1.08895
1.08714
1.08486
1.08301
1.08115
1.07861
1.07536
1.07198
1.06789
1.06209
1.05489
1.04319
1.02808
1.00099
0.805723
0.805888
0.806052
0.806251
0.806454
0.806655
0.806868
0.807107
0.807364
0.807627
0.8079
0.808191
0.808503
0.808829
0.809166
0.809517
0.809876
0.810261
0.810661
0.811068
0.811484
0.811903
0.812337
0.812782
0.813244
0.81371
0.814116
0.814437
0.814696
0.814935
0.815209
0.815537
0.815928
0.816427
0.817031
0.817764
0.818733
0.819932
0.821442
0.823409
0.825798
0.82876
0.832545
0.837277
0.843345
0.851025
0.860429
0.871947
0.884722
0.895671
0.899906
0.900373
0.900555
0.900861
0.901384
0.902172
0.903178
0.904589
0.906671
0.909298
0.911651
0.913416
0.914677
0.915775
0.916928
0.918138
0.919464
0.921677
0.926411
0.938287
0.957353
0.989676
1.02154
1.05518
1.0683
1.07806
1.08386
1.08995
1.09419
1.09701
1.09586
1.09405
1.09326
1.09229
1.09108
1.0896
1.08843
1.08696
1.085
1.08284
1.08075
1.0784
1.07527
1.0717
1.06754
1.06178
1.0546
1.04309
1.02802
1.00137
0.806288
0.806445
0.806606
0.806779
0.806972
0.807169
0.807375
0.807599
0.807843
0.808099
0.808365
0.808645
0.808942
0.809254
0.809578
0.809921
0.810276
0.810652
0.811047
0.81145
0.81186
0.812272
0.812702
0.813154
0.813605
0.813985
0.814235
0.814412
0.81459
0.814796
0.815053
0.815371
0.815752
0.816228
0.816812
0.81751
0.818398
0.819509
0.820868
0.82262
0.82478
0.827457
0.830926
0.835286
0.840874
0.848084
0.856908
0.867666
0.880455
0.892084
0.898995
0.900601
0.900848
0.90105
0.901402
0.902078
0.903104
0.904542
0.906584
0.909426
0.912262
0.913883
0.914808
0.915731
0.916913
0.918248
0.919426
0.920728
0.922262
0.924933
0.930732
0.943728
0.967696
0.999298
1.03329
1.06439
1.079
1.08673
1.09053
1.09168
1.09337
1.09526
1.09478
1.09313
1.09101
1.08915
1.08814
1.08713
1.08511
1.08246
1.08029
1.07816
1.07503
1.07119
1.06708
1.0615
1.05434
1.04292
1.02804
1.00161
0.806445
0.806598
0.806765
0.806934
0.807118
0.807312
0.80752
0.807738
0.807973
0.808224
0.808489
0.808765
0.809056
0.809365
0.80969
0.810034
0.810389
0.810761
0.811154
0.811561
0.811978
0.812407
0.812861
0.813313
0.813679
0.813927
0.814101
0.814248
0.814401
0.814581
0.814802
0.815073
0.815408
0.815822
0.816339
0.816982
0.817773
0.818778
0.820026
0.821555
0.823496
0.825969
0.829127
0.833196
0.838493
0.84513
0.853382
0.863621
0.875808
0.887992
0.896649
0.900832
0.901574
0.901693
0.901872
0.902386
0.903391
0.904854
0.906856
0.909575
0.912514
0.914131
0.915002
0.916018
0.917272
0.918598
0.919634
0.920628
0.921838
0.923583
0.925729
0.928693
0.935983
0.949882
0.978291
1.01225
1.04156
1.06653
1.07465
1.08338
1.09384
1.09677
1.0954
1.09315
1.09111
1.08928
1.08842
1.0874
1.08486
1.08194
1.08009
1.07806
1.07475
1.0707
1.06678
1.06141
1.05418
1.04274
1.02796
1.0019
0.806605
0.806763
0.806931
0.807096
0.80727
0.807462
0.807668
0.807882
0.80811
0.808355
0.808615
0.808882
0.809162
0.809463
0.809784
0.810122
0.810475
0.810841
0.811227
0.811624
0.812035
0.812466
0.812912
0.813297
0.813524
0.81364
0.813728
0.813825
0.813948
0.814108
0.814317
0.814584
0.814918
0.815338
0.815856
0.816477
0.817238
0.81816
0.819272
0.820697
0.822507
0.82478
0.827732
0.831562
0.836412
0.84253
0.85026
0.859759
0.871041
0.8834
0.893958
0.900684
0.902605
0.902852
0.902978
0.903358
0.90424
0.905562
0.907228
0.909631
0.912321
0.913738
0.914845
0.916163
0.917733
0.919057
0.919904
0.9208
0.921989
0.923553
0.925336
0.926627
0.928178
0.931446
0.940864
0.959464
0.991117
1.02448
1.05237
1.07603
1.0901
1.09373
1.09147
1.09045
1.09076
1.09026
1.089
1.08747
1.08436
1.08162
1.07997
1.07793
1.07455
1.07056
1.06658
1.06115
1.05381
1.04243
1.02783
1.0023
0.806787
0.806941
0.807105
0.807278
0.807462
0.807651
0.807846
0.808052
0.808277
0.808518
0.808773
0.809042
0.80932
0.809613
0.809924
0.810256
0.810612
0.810982
0.811366
0.81176
0.812173
0.812602
0.812997
0.813268
0.813395
0.813472
0.81355
0.813649
0.81378
0.813944
0.814162
0.81445
0.8148
0.815243
0.815778
0.816373
0.817112
0.817968
0.818946
0.820253
0.821933
0.823984
0.826743
0.830302
0.834587
0.840176
0.847391
0.85586
0.866164
0.878667
0.890552
0.898767
0.902787
0.904014
0.904301
0.90465
0.905333
0.906336
0.907553
0.909094
0.911371
0.913317
0.915035
0.91636
0.917444
0.919014
0.920534
0.921349
0.922401
0.923936
0.925319
0.926326
0.927467
0.928829
0.930707
0.935245
0.948055
0.969361
1.00327
1.03477
1.0623
1.07589
1.08306
1.0899
1.09218
1.09116
1.08892
1.08643
1.08399
1.08173
1.08009
1.07782
1.07463
1.07078
1.06655
1.06071
1.05323
1.04204
1.02774
1.00298
0.807072
0.807236
0.807402
0.807581
0.807778
0.807987
0.808187
0.808395
0.808617
0.808848
0.809092
0.809356
0.809637
0.809938
0.810252
0.810578
0.810931
0.811308
0.811705
0.812115
0.812532
0.812909
0.813167
0.813307
0.813396
0.813479
0.813581
0.813707
0.813871
0.814071
0.814308
0.814612
0.814974
0.815391
0.815902
0.816472
0.817142
0.817958
0.818859
0.820004
0.821563
0.823402
0.825817
0.829083
0.832939
0.837778
0.844333
0.852055
0.861099
0.872766
0.885789
0.895964
0.902311
0.904794
0.90519
0.905533
0.90613
0.906738
0.907387
0.908595
0.910734
0.912935
0.914897
0.916385
0.917437
0.918761
0.920165
0.921286
0.922582
0.924235
0.925515
0.92645
0.927364
0.928428
0.929685
0.931049
0.932849
0.939085
0.955035
0.980295
1.01344
1.0468
1.07355
1.08622
1.09031
1.08859
1.08507
1.08483
1.08418
1.08227
1.08013
1.07746
1.07465
1.0709
1.06615
1.05993
1.05252
1.04151
1.02758
1.00377
0.807669
0.80783
0.807996
0.808173
0.808352
0.808554
0.808764
0.808975
0.809196
0.809425
0.809664
0.809918
0.810189
0.810478
0.810796
0.811137
0.811501
0.811899
0.812328
0.812752
0.813084
0.813283
0.813387
0.813471
0.813572
0.813692
0.813838
0.814006
0.814195
0.81442
0.814657
0.81493
0.815253
0.815616
0.816061
0.816556
0.81711
0.817829
0.818667
0.819689
0.821085
0.822797
0.824868
0.827685
0.831154
0.835234
0.840694
0.847766
0.856009
0.866101
0.878882
0.891603
0.900923
0.905031
0.905803
0.906055
0.906216
0.906545
0.907207
0.908423
0.910493
0.912922
0.914975
0.916654
0.917732
0.918789
0.920077
0.921436
0.922969
0.924666
0.925938
0.926904
0.927711
0.928613
0.929675
0.93094
0.93207
0.932811
0.935365
0.944708
0.96215
0.993769
1.02735
1.05328
1.07458
1.07846
1.08278
1.08562
1.08474
1.0823
1.07894
1.07652
1.07446
1.07044
1.0649
1.05887
1.05182
1.04089
1.02728
1.00445
0.80848
0.808622
0.808778
0.808935
0.809099
0.809281
0.809479
0.809688
0.809905
0.81013
0.810364
0.810622
0.810896
0.811189
0.811505
0.811853
0.81225
0.812704
0.813171
0.813479
0.813542
0.813555
0.813591
0.813663
0.813764
0.813896
0.814057
0.814232
0.814412
0.814603
0.81481
0.815042
0.815317
0.815635
0.816016
0.816469
0.81699
0.817612
0.818373
0.819283
0.820429
0.821924
0.823726
0.825981
0.828921
0.832467
0.836928
0.842972
0.850581
0.859766
0.871421
0.885131
0.897997
0.905078
0.906161
0.906401
0.90648
0.906711
0.907373
0.908615
0.910565
0.913078
0.915691
0.917607
0.918389
0.919157
0.920343
0.921874
0.923589
0.925194
0.926417
0.927326
0.928219
0.929136
0.930173
0.931202
0.932144
0.932661
0.933513
0.935027
0.939993
0.952017
0.974903
1.00626
1.04212
1.06553
1.08007
1.08419
1.08288
1.07901
1.07711
1.07601
1.07416
1.0694
1.06377
1.05838
1.05134
1.04019
1.02679
1.00496
0.809572
0.809695
0.809827
0.809967
0.810109
0.810259
0.810422
0.810597
0.810779
0.81098
0.811205
0.811457
0.811732
0.812021
0.812316
0.812637
0.812999
0.813372
0.81359
0.813652
0.813682
0.813735
0.813797
0.813854
0.813914
0.813991
0.814082
0.814185
0.814316
0.814484
0.814689
0.814917
0.815177
0.815481
0.815836
0.816272
0.816784
0.817375
0.818065
0.818845
0.819772
0.820946
0.822376
0.824178
0.82651
0.829488
0.8334
0.838555
0.845189
0.853746
0.86469
0.877954
0.891995
0.902813
0.906453
0.906828
0.907074
0.907507
0.90834
0.9096
0.911294
0.913316
0.915633
0.917961
0.91889
0.919614
0.920735
0.922372
0.92419
0.925667
0.926745
0.92761
0.928692
0.929826
0.930952
0.931996
0.932866
0.933178
0.933607
0.934708
0.936331
0.939057
0.945784
0.961642
0.987648
1.02259
1.0517
1.06811
1.07356
1.07539
1.07695
1.07618
1.07352
1.06814
1.06346
1.05858
1.0511
1.03943
1.0261
1.00532
0.810569
0.810679
0.810794
0.810916
0.811042
0.811172
0.811313
0.811468
0.811641
0.811845
0.812089
0.812372
0.812669
0.812955
0.813233
0.813478
0.813606
0.813642
0.813669
0.813698
0.813723
0.813766
0.813808
0.813836
0.813873
0.813937
0.813979
0.814015
0.814088
0.814225
0.814433
0.814678
0.814968
0.815312
0.815703
0.816172
0.816707
0.81727
0.817864
0.818512
0.819269
0.820189
0.821266
0.822675
0.824567
0.827031
0.830417
0.834944
0.840698
0.848317
0.858282
0.870539
0.884638
0.897634
0.90531
0.907382
0.907946
0.908628
0.90958
0.91073
0.912053
0.913674
0.915739
0.918048
0.919341
0.9201
0.921164
0.922823
0.924697
0.926037
0.926874
0.927741
0.928902
0.930252
0.931523
0.932574
0.93343
0.934004
0.934177
0.934716
0.936027
0.937813
0.93929
0.942952
0.952143
0.974467
1.0045
1.03464
1.06125
1.07319
1.07399
1.07304
1.07065
1.06709
1.06358
1.05858
1.04997
1.03807
1.02505
1.00542
0.811375
0.811502
0.811639
0.811786
0.811947
0.812121
0.812305
0.81249
0.81266
0.812822
0.813003
0.813208
0.813395
0.813514
0.813589
0.813639
0.813627
0.8136
0.813603
0.813618
0.813613
0.813598
0.813601
0.813607
0.813629
0.81368
0.813752
0.813834
0.813942
0.814097
0.814309
0.814584
0.81493
0.815345
0.815798
0.816297
0.816874
0.817484
0.818076
0.818616
0.819148
0.819812
0.820668
0.82179
0.823325
0.825426
0.828251
0.832012
0.836977
0.843518
0.851918
0.862509
0.87585
0.890042
0.900549
0.906082
0.908629
0.909951
0.910768
0.911427
0.912246
0.913546
0.915527
0.918342
0.920247
0.920892
0.921701
0.923163
0.924942
0.926304
0.927334
0.928397
0.929601
0.930842
0.931921
0.932872
0.933748
0.934645
0.935167
0.935406
0.936206
0.937359
0.938517
0.939614
0.94171
0.94768
0.96234
0.987895
1.01755
1.04774
1.05509
1.06328
1.06678
1.0667
1.06367
1.05624
1.04721
1.03637
1.02396
1.00552
0.812001
0.812166
0.812342
0.812525
0.812708
0.812893
0.813104
0.813293
0.813313
0.813255
0.813228
0.813226
0.813231
0.813241
0.813262
0.813305
0.813366
0.813414
0.813432
0.813455
0.813494
0.813516
0.813521
0.813557
0.813641
0.813738
0.813853
0.813983
0.814131
0.814316
0.814549
0.814861
0.815268
0.815752
0.816288
0.816877
0.817572
0.818221
0.818779
0.819232
0.819578
0.819972
0.82056
0.821435
0.822685
0.82443
0.826746
0.829791
0.833806
0.839059
0.845894
0.85455
0.865833
0.879482
0.892005
0.901581
0.908468
0.910872
0.911178
0.911362
0.911983
0.913348
0.915473
0.918049
0.920339
0.92132
0.922144
0.923451
0.925113
0.9266
0.928032
0.929592
0.931133
0.932315
0.933104
0.93376
0.934375
0.935326
0.936395
0.937253
0.937615
0.937694
0.938156
0.938966
0.939999
0.941489
0.945055
0.954313
0.972344
1.00243
1.03039
1.05225
1.06463
1.06409
1.05932
1.05266
1.04518
1.03545
1.02311
1.00582
0.812711
0.812889
0.813073
0.813267
0.813312
0.81329
0.813273
0.813275
0.813295
0.813359
0.813465
0.813517
0.813534
0.813567
0.813649
0.813742
0.813789
0.813832
0.813873
0.813895
0.813916
0.813925
0.813906
0.813947
0.814132
0.81432
0.814386
0.814434
0.814575
0.814827
0.815145
0.81554
0.815981
0.816397
0.816822
0.81732
0.817878
0.818466
0.819116
0.819513
0.819651
0.819846
0.820266
0.821037
0.822204
0.82369
0.825532
0.827978
0.8311
0.83501
0.840382
0.847313
0.855961
0.867579
0.881217
0.894286
0.905552
0.911338
0.911761
0.911716
0.912185
0.913623
0.915873
0.918242
0.920576
0.922129
0.923181
0.924407
0.925794
0.927193
0.928857
0.93074
0.932376
0.933458
0.934175
0.934767
0.935342
0.936201
0.937598
0.939161
0.939526
0.939322
0.939139
0.939272
0.939906
0.940808
0.941731
0.943674
0.948797
0.961614
0.987917
1.01288
1.04152
1.0524
1.05274
1.05133
1.04564
1.03545
1.02261
1.0063
0.813903
0.814114
0.814248
0.814368
0.814471
0.814465
0.814393
0.814316
0.814268
0.814264
0.814319
0.814456
0.81458
0.814655
0.814721
0.814789
0.814836
0.814896
0.814972
0.815011
0.815019
0.814991
0.814904
0.814802
0.814833
0.814995
0.815075
0.81503
0.815046
0.815269
0.815616
0.815986
0.816395
0.816685
0.816904
0.817146
0.817409
0.817675
0.818012
0.818446
0.818718
0.818974
0.819426
0.820207
0.821359
0.822713
0.824342
0.826558
0.829184
0.832224
0.836248
0.841417
0.847901
0.857016
0.869702
0.883692
0.896666
0.907518
0.912289
0.913296
0.914136
0.915478
0.917206
0.918985
0.920845
0.922698
0.924296
0.925837
0.92721
0.928513
0.930085
0.931788
0.933078
0.933988
0.934857
0.935722
0.936498
0.937219
0.938423
0.940002
0.940987
0.941329
0.941343
0.94128
0.941247
0.941146
0.941597
0.94221
0.943168
0.946186
0.955305
0.973894
1.00105
1.03523
1.04899
1.04771
1.04191
1.03049
1.02067
1.00696
0.814261
0.814252
0.81426
0.814328
0.814467
0.814581
0.814569
0.814491
0.814435
0.81442
0.814431
0.81449
0.81458
0.81471
0.81483
0.814884
0.814955
0.815107
0.815279
0.815379
0.815436
0.815431
0.815363
0.815354
0.815339
0.81521
0.815213
0.815385
0.815468
0.815437
0.815524
0.815864
0.816428
0.816674
0.816706
0.816681
0.816583
0.816549
0.816635
0.816936
0.817439
0.818112
0.818911
0.819818
0.820848
0.822101
0.823675
0.825819
0.82835
0.830907
0.833975
0.837602
0.842179
0.848758
0.858556
0.871167
0.884683
0.897479
0.906947
0.912909
0.917094
0.918476
0.919137
0.920026
0.921206
0.922672
0.92449
0.926465
0.928126
0.929636
0.931294
0.932746
0.933629
0.934378
0.935426
0.93672
0.938008
0.939047
0.93984
0.940476
0.941372
0.942365
0.942846
0.943119
0.943213
0.943168
0.942734
0.942369
0.94271
0.942962
0.944198
0.949719
0.963844
0.99125
1.0211
1.02687
1.0236
1.02067
1.01812
1.00783
0.813159
0.813166
0.813214
0.813306
0.813429
0.813481
0.813454
0.81338
0.8133
0.813229
0.813216
0.813249
0.813271
0.813265
0.813251
0.813293
0.813407
0.813574
0.813781
0.81401
0.814135
0.814205
0.814268
0.814282
0.814321
0.814429
0.814645
0.814928
0.815194
0.81546
0.81574
0.816162
0.816747
0.816943
0.816961
0.816946
0.81685
0.816774
0.816857
0.817178
0.817764
0.818631
0.819694
0.820617
0.821428
0.822545
0.824066
0.826023
0.828485
0.830854
0.833226
0.835679
0.838508
0.842543
0.84889
0.858017
0.869822
0.883126
0.896
0.907076
0.915679
0.919886
0.920663
0.920979
0.92185
0.923117
0.924761
0.926675
0.92863
0.930613
0.932515
0.933826
0.934631
0.935497
0.936678
0.938061
0.93971
0.941609
0.942284
0.942147
0.942132
0.942416
0.94313
0.943773
0.944229
0.944655
0.944684
0.944064
0.943292
0.94285
0.943064
0.942505
0.944895
0.95615
0.97993
0.998093
1.00535
1.01306
1.01326
1.00631
0.816055
0.816236
0.816452
0.816536
0.816606
0.816628
0.816611
0.81653
0.81637
0.816228
0.816217
0.816228
0.816175
0.816085
0.816092
0.816123
0.816103
0.816123
0.816212