/*--------------------------------*- C++ -*----------------------------------*\
  =========                 |
  \\      /  F ield         | OpenFOAM: The Open Source CFD Toolbox
   \\    /   O peration     | Website:  https://openfoam.org
    \\  /    A nd           | Version:  7
     \\/     M anipulation  |
\*---------------------------------------------------------------------------*/
FoamFile
{
    version     2.0;
    format      ascii;
    class       volScalarField;
    location    "1.5";
    object      rho;
}
// * * * * * * * * * * * * * * * * * * * * * * * * * * * * * * * * * * * * * //

dimensions      [1 -3 0 0 0 0 0];

internalField   nonuniform List<scalar> 
90000
(
0.220931
0.245861
0.273918
0.297492
0.316887
0.34031
0.366315
0.389348
0.419008
0.453738
0.488893
0.526803
0.566929
0.6108
0.652772
0.696532
0.736837
0.774451
0.805197
0.834527
0.852927
0.865974
0.880487
0.877277
0.874721
0.871981
0.865437
0.857312
0.844378
0.833537
0.826956
0.822986
0.822555
0.823872
0.827938
0.836011
0.846511
0.857026
0.865678
0.873421
0.882864
0.894746
0.911637
0.930651
0.941033
0.951632
0.96531
0.973676
0.976595
0.974422
0.968106
0.966335
0.964929
0.962391
0.961938
0.96221
0.961229
0.960644
0.960679
0.961133
0.962769
0.965246
0.968433
0.972014
0.976832
0.983301
0.993615
1.01705
1.05301
1.07126
1.07542
1.07526
1.06776
1.05412
1.0311
1.00701
0.986463
0.965419
0.94292
0.90286
0.853645
0.821204
0.810353
0.814936
0.850302
0.913006
0.975152
1.00756
1.01769
1.02375
1.02565
1.03053
1.04021
1.0489
1.06106
1.06957
1.08001
1.09585
1.10732
1.12936
0.198829
0.198857
0.198895
0.198942
0.199001
0.199068
0.199149
0.199237
0.199345
0.199448
0.199669
0.201766
0.206554
0.215907
0.230364
0.250932
0.27977
0.315013
0.361523
0.415181
0.480236
0.541443
0.604732
0.655187
0.69898
0.740114
0.76986
0.802662
0.817913
0.835303
0.838425
0.837785
0.833489
0.83168
0.836861
0.844601
0.848444
0.84747
0.842795
0.835841
0.835457
0.836347
0.844512
0.86534
0.895736
0.933766
0.962426
0.975548
0.9741
0.964541
0.95176
0.946313
0.946261
0.947973
0.951114
0.952295
0.952167
0.951686
0.950991
0.951603
0.952686
0.953339
0.955208
0.958831
0.962274
0.965595
0.97456
0.99677
1.02845
1.05007
1.05406
1.05413
1.04895
1.03899
1.0196
0.99725
0.975433
0.952389
0.926612
0.89113
0.842728
0.805123
0.78955
0.78896
0.81461
0.878326
0.947361
0.988976
1.00949
1.02328
1.0242
1.02915
1.03821
1.04384
1.05317
1.06388
1.07866
1.09401
1.09889
1.11716
0.199664
0.199769
0.199887
0.200015
0.200153
0.200301
0.20046
0.200625
0.200804
0.200985
0.201209
0.201316
0.201424
0.201545
0.201692
0.201852
0.202045
0.202236
0.202481
0.202649
0.204016
0.21026
0.224024
0.249556
0.281426
0.326736
0.381829
0.448422
0.524728
0.597959
0.666692
0.726233
0.77544
0.821325
0.865706
0.877211
0.875009
0.86369
0.849482
0.833274
0.821503
0.808513
0.8113
0.830025
0.867424
0.91663
0.954371
0.975291
0.975246
0.968181
0.956488
0.945177
0.944344
0.947329
0.951815
0.952592
0.951973
0.951227
0.951357
0.951999
0.952624
0.953716
0.95675
0.960292
0.963524
0.965224
0.97174
0.992505
1.021
1.04087
1.04461
1.04458
1.0402
1.03127
1.01669
0.995346
0.971591
0.946751
0.918318
0.885614
0.844744
0.801547
0.777628
0.772014
0.78549
0.840601
0.915282
0.964325
0.989388
1.00648
1.00744
1.0145
1.02392
1.03018
1.04198
1.05768
1.07793
1.08639
1.08205
1.09759
0.200903
0.201032
0.201167
0.201313
0.201462
0.201621
0.201781
0.201952
0.202123
0.202305
0.202482
0.202669
0.20286
0.203061
0.203262
0.203465
0.203659
0.203848
0.204034
0.204205
0.204396
0.204483
0.204572
0.204665
0.204769
0.20487
0.204998
0.205078
0.20986
0.22357
0.254942
0.302284
0.372545
0.462804
0.57184
0.655888
0.733641
0.782151
0.816269
0.824887
0.819882
0.809294
0.815469
0.833428
0.864615
0.89464
0.925355
0.95993
0.97182
0.969463
0.958608
0.949456
0.949741
0.952481
0.955155
0.955041
0.954095
0.954172
0.954632
0.954866
0.955665
0.958283
0.961806
0.965505
0.966914
0.968076
0.976576
0.998164
1.02165
1.03569
1.04001
1.04164
1.03806
1.02765
1.01607
0.996857
0.972366
0.945304
0.914926
0.881631
0.846401
0.805198
0.773939
0.76251
0.765143
0.799763
0.867502
0.922239
0.952523
0.965973
0.97354
0.99105
1.00536
1.01445
1.02827
1.04321
1.05063
1.0507
1.05169
1.06756
0.202358
0.202482
0.202616
0.202752
0.202893
0.203034
0.203178
0.203322
0.203467
0.20361
0.20375
0.203889
0.204024
0.204156
0.204282
0.204412
0.204531
0.204646
0.204753
0.204866
0.204962
0.205055
0.20515
0.205241
0.20532
0.205394
0.20547
0.205538
0.205579
0.205615
0.205657
0.205697
0.205751
0.205793
0.214623
0.245647
0.303794
0.399989
0.515509
0.631079
0.716626
0.767602
0.805265
0.823265
0.844744
0.868098
0.906829
0.952617
0.963978
0.965859
0.959301
0.960732
0.965143
0.964019
0.960025
0.957739
0.958359
0.959104
0.959952
0.961433
0.964088
0.968261
0.9731
0.976049
0.975995
0.978804
0.987101
1.00274
1.02176
1.03247
1.03584
1.03918
1.03597
1.02581
1.01626
0.997922
0.972126
0.94626
0.916821
0.883336
0.848399
0.812361
0.774499
0.756971
0.754875
0.770758
0.816221
0.865123
0.90006
0.918292
0.930288
0.950046
0.959226
0.970447
0.983395
0.993902
0.997626
0.996905
1.00226
1.02662
0.203686
0.20378
0.203877
0.203975
0.204073
0.204168
0.204264
0.204356
0.204449
0.204539
0.204626
0.20471
0.204794
0.204871
0.204947
0.205024
0.2051
0.205166
0.205231
0.205292
0.20535
0.205403
0.205451
0.205495
0.205533
0.205571
0.205614
0.205651
0.205682
0.205708
0.205734
0.205759
0.205791
0.205826
0.205876
0.205938
0.20604
0.206117
0.209108
0.236136
0.298375
0.401681
0.518136
0.615478
0.690557
0.740689
0.795027
0.858841
0.911819
0.948845
0.961276
0.97424
0.979257
0.970463
0.964256
0.965225
0.967204
0.967039
0.968426
0.971057
0.976114
0.982075
0.985081
0.984539
0.984104
0.988645
1.00089
1.01417
1.02561
1.03014
1.03285
1.03739
1.03452
1.02605
1.02101
1.007
0.980834
0.951967
0.92148
0.887237
0.853235
0.817868
0.780842
0.759073
0.75099
0.756723
0.783731
0.817375
0.8454
0.85986
0.872627
0.890684
0.896254
0.907823
0.924956
0.939443
0.947358
0.950736
0.963858
0.998997
0.204599
0.204657
0.204714
0.204774
0.204833
0.20489
0.204946
0.205001
0.205054
0.205109
0.205159
0.205206
0.205253
0.205298
0.205339
0.205382
0.205423
0.205458
0.205489
0.205521
0.205549
0.205575
0.205598
0.205619
0.205639
0.205662
0.205689
0.205712
0.20573
0.205745
0.205761
0.205781
0.205802
0.205829
0.205883
0.205964
0.20608
0.20618
0.206261
0.206323
0.206432
0.20651
0.212324
0.241533
0.294268
0.366118
0.449215
0.557572
0.680003
0.802043
0.90607
0.951534
0.972065
0.972553
0.974837
0.976967
0.975946
0.974474
0.978085
0.982152
0.988004
0.994118
0.995948
0.993955
0.996482
1.00334
1.01286
1.02098
1.02625
1.02807
1.03324
1.03994
1.03713
1.02725
1.02445
1.01429
0.989001
0.95652
0.924553
0.892534
0.860092
0.82507
0.789472
0.765032
0.757302
0.75933
0.769895
0.791878
0.810761
0.82129
0.831209
0.845374
0.852325
0.866976
0.886308
0.902471
0.914772
0.9229
0.94496
0.98979
0.205146
0.205179
0.205212
0.205245
0.205277
0.20531
0.205342
0.205373
0.205404
0.205433
0.205461
0.205487
0.205512
0.205536
0.205559
0.20558
0.205599
0.205615
0.20563
0.205646
0.20566
0.205674
0.205687
0.205698
0.20571
0.205726
0.205745
0.205761
0.205772
0.205783
0.205795
0.205812
0.205837
0.205876
0.205941
0.206034
0.20614
0.206214
0.206265
0.206313
0.206366
0.206422
0.206525
0.206719
0.206974
0.207439
0.208087
0.215477
0.24862
0.318826
0.460232
0.625685
0.789731
0.879524
0.949868
0.964176
0.976624
0.982135
0.991729
0.996813
1.00151
1.00468
1.00328
1.00053
1.00456
1.01241
1.01911
1.02364
1.02293
1.02608
1.03582
1.04287
1.03949
1.02906
1.02595
1.01954
0.996295
0.964154
0.931243
0.898686
0.866776
0.832812
0.796095
0.771427
0.765252
0.766719
0.776302
0.786948
0.796431
0.802322
0.810951
0.823277
0.832068
0.85033
0.870236
0.890222
0.907671
0.921106
0.947695
0.997021
0.205479
0.2055
0.20552
0.20554
0.205558
0.205576
0.205592
0.205608
0.205623
0.205638
0.205651
0.205664
0.205676
0.205686
0.205697
0.205707
0.205715
0.205722
0.205729
0.205736
0.205744
0.205752
0.205759
0.205766
0.205775
0.205789
0.205804
0.205817
0.205828
0.205841
0.205855
0.205876
0.205908
0.205949
0.206015
0.206093
0.206167
0.206215
0.206237
0.206252
0.206274
0.206333
0.206424
0.206569
0.206752
0.207075
0.207618
0.208597
0.210272
0.214275
0.219517
0.24004
0.307359
0.445532
0.618177
0.767341
0.87911
0.944289
0.981623
0.991529
1.00207
1.01191
1.01088
1.00927
1.01569
1.01935
1.0225
1.01529
1.01647
1.02561
1.042
1.04548
1.04137
1.02918
1.02535
1.02246
1.00239
0.970058
0.936183
0.903702
0.872261
0.838688
0.803477
0.782382
0.7777
0.780795
0.786649
0.790483
0.795517
0.799948
0.808073
0.818337
0.829526
0.852452
0.874581
0.896087
0.910494
0.927476
0.959883
1.01645
0.20572
0.205729
0.205737
0.205745
0.205752
0.205757
0.205762
0.205767
0.205772
0.205776
0.20578
0.205784
0.205787
0.205787
0.205787
0.205789
0.205789
0.20579
0.205793
0.205797
0.205804
0.205814
0.205825
0.205835
0.205848
0.205868
0.205884
0.205897
0.205909
0.205921
0.205934
0.20595
0.205974
0.206012
0.206065
0.206121
0.206169
0.206166
0.206159
0.206165
0.206197
0.20627
0.206375
0.206504
0.206674
0.206923
0.207336
0.208081
0.209344
0.211465
0.214924
0.221811
0.233889
0.247664
0.261834
0.319609
0.424366
0.592475
0.768679
0.880601
0.959131
1.00673
1.00832
1.01442
1.02662
1.02546
1.0134
1.00454
1.01187
1.02911
1.04666
1.04611
1.04044
1.02898
1.02442
1.02365
1.00727
0.975414
0.940605
0.908662
0.877326
0.842173
0.80952
0.792853
0.790957
0.795753
0.802199
0.804695
0.803544
0.805391
0.810863
0.816392
0.828707
0.857059
0.882036
0.908072
0.941969
0.965575
1.00067
1.05906
0.205839
0.205838
0.205836
0.205837
0.205836
0.205835
0.205834
0.205833
0.205833
0.205833
0.205832
0.20583
0.205828
0.205825
0.205822
0.20582
0.205821
0.205825
0.205833
0.205847
0.205868
0.205898
0.205924
0.205945
0.205966
0.205986
0.205996
0.206003
0.206003
0.206003
0.206007
0.206015
0.206032
0.206054
0.206083
0.206106
0.206103
0.206094
0.206096
0.20611
0.206157
0.206244
0.206366
0.206505
0.206654
0.20685
0.207205
0.207708
0.208547
0.209988
0.212647
0.216948
0.224515
0.23663
0.252416
0.264919
0.267548
0.271114
0.312466
0.437276
0.625599
0.820825
0.935468
1.00923
1.02345
1.01813
0.994757
0.996353
1.01165
1.03815
1.04571
1.04271
1.03736
1.02811
1.0238
1.02413
1.01059
0.979498
0.944416
0.910611
0.876963
0.842505
0.813575
0.803208
0.804667
0.810616
0.818084
0.816178
0.809041
0.80865
0.810375
0.82178
0.848321
0.886915
0.917479
0.948241
0.982851
1.00884
1.04289
1.09598
0.205869
0.205867
0.205866
0.205865
0.20586
0.205857
0.205858
0.205857
0.205857
0.205857
0.205858
0.205858
0.205859
0.205861
0.205865
0.205872
0.205885
0.205904
0.205933
0.20597
0.206016
0.206059
0.206084
0.206099
0.206107
0.206105
0.2061
0.206088
0.206068
0.206052
0.206047
0.206048
0.206053
0.206066
0.206065
0.206058
0.206044
0.206043
0.206053
0.206086
0.20615
0.20625
0.206374
0.206525
0.206691
0.206874
0.207127
0.207483
0.208059
0.209167
0.210919
0.213638
0.218522
0.227076
0.240061
0.256141
0.266504
0.267182
0.266373
0.266201
0.273663
0.344617
0.53345
0.756311
0.903424
0.962033
0.982936
0.997954
1.02244
1.04537
1.0435
1.03566
1.03472
1.02768
1.02368
1.02348
1.01174
0.982103
0.947211
0.912694
0.877939
0.841439
0.815579
0.811492
0.816785
0.826698
0.834013
0.827401
0.822163
0.823247
0.827703
0.843238
0.871851
0.913251
0.949396
0.986618
1.02349
1.04965
1.07945
1.12298
0.205912
0.205911
0.205909
0.205909
0.205909
0.205911
0.205915
0.20592
0.205925
0.205934
0.205943
0.205955
0.205969
0.205983
0.205996
0.206013
0.206039
0.206068
0.206103
0.206143
0.206179
0.206195
0.206195
0.206191
0.206179
0.20616
0.20614
0.206114
0.20608
0.20606
0.206049
0.206044
0.206043
0.206043
0.206039
0.206025
0.206024
0.206026
0.206044
0.206086
0.20616
0.206286
0.206437
0.20661
0.206807
0.206939
0.207087
0.207336
0.20772
0.208427
0.209735
0.211857
0.215183
0.220784
0.228996
0.239797
0.254521
0.26288
0.264222
0.265309
0.266741
0.268506
0.26924
0.311469
0.45331
0.681624
0.888505
0.981578
1.01401
1.03934
1.03429
1.02772
1.03574
1.0312
1.02119
1.01516
1.00763
0.983377
0.949744
0.914196
0.87686
0.840431
0.819806
0.820335
0.829539
0.843276
0.846807
0.836825
0.83451
0.836867
0.845561
0.868937
0.903526
0.943093
0.978525
1.01458
1.04999
1.07248
1.09342
1.13074
0.205972
0.205979
0.205985
0.205993
0.206003
0.206012
0.206023
0.206035
0.206048
0.206062
0.206075
0.206086
0.2061
0.206115
0.206124
0.206136
0.206155
0.206176
0.206204
0.206231
0.206235
0.206234
0.206229
0.206216
0.206191
0.20616
0.206125
0.206085
0.20605
0.206036
0.206033
0.206031
0.206033
0.206036
0.206031
0.206025
0.206027
0.206038
0.206071
0.206134
0.206217
0.206338
0.206492
0.206684
0.206883
0.206972
0.207043
0.207158
0.207392
0.207907
0.208917
0.210557
0.213094
0.217182
0.222863
0.229971
0.239265
0.250966
0.259375
0.264042
0.266842
0.268642
0.269624
0.269723
0.26987
0.290273
0.412864
0.643385
0.834395
0.961341
1.00075
1.03421
1.04433
1.03564
1.01381
1.0038
1.00166
0.983585
0.951546
0.915373
0.876264
0.841912
0.827607
0.829671
0.843194
0.857448
0.857756
0.852815
0.853977
0.859333
0.870211
0.895118
0.93158
0.965498
0.996834
1.02646
1.0538
1.07775
1.09322
1.12943
0.206104
0.206115
0.206122
0.206129
0.20614
0.206147
0.206151
0.206159
0.206167
0.206168
0.206167
0.206166
0.20617
0.206175
0.206177
0.206182
0.20619
0.206206
0.206229
0.206232
0.206227
0.206216
0.206194
0.206157
0.206121
0.206096
0.206075
0.20605
0.206038
0.206036
0.206033
0.206036
0.206043
0.206052
0.206065
0.206086
0.206111
0.206139
0.206178
0.206221
0.206277
0.20636
0.206508
0.206718
0.206845
0.206866
0.206881
0.20694
0.207108
0.207526
0.208348
0.209708
0.211713
0.214812
0.219159
0.224327
0.23053
0.23927
0.250441
0.259745
0.26547
0.268464
0.268701
0.268806
0.26919
0.269763
0.270434
0.284786
0.378782
0.593048
0.824998
0.99946
1.03164
1.03046
1.00211
1.00188
1.00121
0.989357
0.959438
0.920068
0.878678
0.846237
0.838988
0.842029
0.857977
0.870845
0.870453
0.87015
0.87378
0.881998
0.896126
0.92239
0.95581
0.978002
1.00205
1.02873
1.05188
1.07697
1.09302
1.12943
0.206207
0.206207
0.206207
0.206209
0.206209
0.206208
0.206203
0.206201
0.2062
0.206197
0.206188
0.20618
0.206178
0.206177
0.206174
0.206171
0.206166
0.20616
0.206151
0.20613
0.206104
0.20609
0.206074
0.206048
0.206048
0.206055
0.206057
0.206054
0.206049
0.206046
0.206046
0.206057
0.206091
0.206162
0.20621
0.206221
0.206232
0.206247
0.206262
0.206275
0.206303
0.20636
0.206489
0.206664
0.206727
0.20675
0.206747
0.20678
0.206927
0.207294
0.207998
0.209128
0.210789
0.213267
0.21658
0.220537
0.225317
0.231237
0.239374
0.2494
0.257478
0.262943
0.265824
0.267252
0.26855
0.269267
0.270322
0.271656
0.273597
0.275614
0.357304
0.588443
0.834662
0.958653
0.989166
1.00824
1.00704
0.99913
0.969331
0.928782
0.88325
0.854351
0.85154
0.857842
0.874242
0.886531
0.890611
0.894591
0.901089
0.909614
0.923692
0.945779
0.96944
0.982825
1.00448
1.03113
1.05044
1.0745
1.09377
1.13173
0.206221
0.206218
0.206218
0.206217
0.206217
0.206215
0.206209
0.206201
0.206191
0.206184
0.206171
0.206136
0.206104
0.206081
0.206051
0.20602
0.205998
0.205995
0.20599
0.205975
0.205975
0.205982
0.205995
0.20601
0.206027
0.206046
0.20606
0.206076
0.206092
0.206111
0.206133
0.206161
0.206221
0.206313
0.206332
0.206312
0.206289
0.206285
0.206285
0.20629
0.206303
0.206333
0.206406
0.206473
0.206555
0.206636
0.206681
0.206743
0.206877
0.207212
0.20782
0.208748
0.210159
0.212254
0.214882
0.217912
0.221581
0.225984
0.231289
0.238514
0.246632
0.253709
0.259421
0.263322
0.266286
0.268548
0.269956
0.271386
0.273169
0.275685
0.278306
0.279475
0.374263
0.630856
0.875885
0.995679
1.01848
1.01405
0.982653
0.941384
0.892107
0.869839
0.869423
0.88046
0.895638
0.9038
0.910197
0.917258
0.924991
0.932159
0.945889
0.964152
0.980428
0.99119
1.01305
1.0349
1.04868
1.07209
1.09608
1.13492
0.206201
0.206189
0.206185
0.206176
0.206159
0.206141
0.206118
0.206083
0.206064
0.206055
0.206029
0.205967
0.205941
0.205928
0.205901
0.20588
0.205879
0.205883
0.205893
0.205909
0.205927
0.20595
0.205974
0.206004
0.206043
0.206082
0.206142
0.206211
0.20624
0.206268
0.206297
0.206319
0.206358
0.206372
0.206368
0.206336
0.206298
0.206289
0.206283
0.206282
0.206272
0.206263
0.206305
0.206336
0.206376
0.206474
0.206621
0.20675
0.206893
0.20719
0.20778
0.208551
0.209729
0.211434
0.213774
0.216255
0.219013
0.222519
0.22674
0.231934
0.238473
0.245087
0.251329
0.256643
0.260633
0.264621
0.2683
0.270737
0.272629
0.275082
0.278108
0.280526
0.281581
0.289643
0.423516
0.696249
0.936455
1.00112
0.991204
0.955777
0.902167
0.891324
0.897175
0.911505
0.924489
0.931672
0.936787
0.9428
0.944888
0.947331
0.959709
0.97556
0.988546
1.00217
1.02641
1.04068
1.05174
1.07471
1.10072
1.13675
0.206062
0.206055
0.206051
0.206039
0.206012
0.205985
0.205957
0.205943
0.205945
0.205944
0.205926
0.205888
0.205883
0.205881
0.205869
0.205865
0.205866
0.205871
0.205885
0.205914
0.205957
0.206004
0.206061
0.206134
0.206204
0.206272
0.206356
0.206397
0.206398
0.206397
0.206402
0.2064
0.206394
0.206378
0.206332
0.206252
0.206182
0.206167
0.206172
0.20619
0.206178
0.206161
0.206172
0.206194
0.206244
0.206352
0.206549
0.206781
0.206975
0.207246
0.207758
0.208516
0.209454
0.210837
0.21279
0.215104
0.217536
0.220484
0.224043
0.228253
0.233509
0.239122
0.244357
0.249466
0.254092
0.258371
0.263095
0.268079
0.271543
0.273915
0.277054
0.280647
0.28178
0.28319
0.285917
0.312782
0.491227
0.796437
0.973024
0.963846
0.925258
0.919862
0.925623
0.935022
0.946821
0.955644
0.960618
0.965993
0.9652
0.96585
0.977332
0.987195
0.99655
1.01163
1.03605
1.0464
1.05923
1.08553
1.10677
1.13621
0.205968
0.205967
0.205965
0.205963
0.205956
0.205938
0.205923
0.205922
0.205925
0.205924
0.205913
0.205913
0.20592
0.205936
0.205957
0.20598
0.206011
0.206043
0.206086
0.206153
0.20622
0.206279
0.206335
0.206374
0.206402
0.206441
0.20645
0.206451
0.206449
0.206438
0.206421
0.206397
0.206352
0.206265
0.206114
0.205959
0.205908
0.205917
0.205988
0.206068
0.206067
0.206063
0.206079
0.206102
0.206156
0.206281
0.206541
0.206901
0.207212
0.207561
0.207998
0.208559
0.209356
0.21044
0.212028
0.214122
0.216557
0.21936
0.222542
0.226194
0.230575
0.23546
0.240139
0.244853
0.249811
0.25454
0.259405
0.265079
0.270392
0.273045
0.275316
0.279592
0.282637
0.28338
0.285858
0.290636
0.293464
0.362752
0.651703
0.902716
0.937129
0.952616
0.961179
0.966687
0.975301
0.978369
0.977278
0.974188
0.973366
0.97636
0.988753
0.994004
1.00209
1.01753
1.03928
1.05042
1.06837
1.09874
1.10846
1.13182
0.205967
0.205974
0.205974
0.205977
0.205992
0.206021
0.20604
0.206056
0.206078
0.206106
0.206146
0.206199
0.206251
0.206295
0.206328
0.206352
0.206378
0.206404
0.206433
0.206473
0.20652
0.206526
0.206521
0.206502
0.206471
0.206454
0.206437
0.206413
0.206384
0.206353
0.2063
0.206217
0.206125
0.206022
0.205887
0.205764
0.205733
0.205761
0.205904
0.206046
0.206048
0.206042
0.206069
0.206112
0.206179
0.206365
0.206829
0.207348
0.207709
0.208069
0.208542
0.209035
0.209524
0.210306
0.21158
0.213429
0.215824
0.218604
0.221708
0.225176
0.228949
0.233238
0.23761
0.242113
0.247083
0.25238
0.257508
0.262642
0.268883
0.272864
0.274708
0.277943
0.283336
0.286044
0.287848
0.292051
0.297945
0.301201
0.318462
0.509947
0.816025
0.93651
0.964537
0.987717
1.01067
1.00906
0.99958
0.990067
0.985451
0.987472
0.994119
0.994923
1.00287
1.0176
1.036
1.05177
1.07439
1.10487
1.10535
1.12497
0.206074
0.206101
0.206117
0.20615
0.206259
0.20638
0.206385
0.206382
0.206391
0.206413
0.206446
0.206492
0.206525
0.206533
0.206544
0.206541
0.206539
0.206542
0.206536
0.206546
0.206565
0.206559
0.206537
0.206464
0.206335
0.206273
0.206233
0.206178
0.206095
0.206049
0.206018
0.205962
0.205883
0.205835
0.205795
0.205726
0.205693
0.205727
0.205889
0.206129
0.206252
0.206364
0.206555
0.206772
0.206956
0.207262
0.2078
0.208148
0.208349
0.208583
0.208993
0.209621
0.210147
0.210633
0.211547
0.213185
0.215446
0.218097
0.221127
0.224611
0.228225
0.23225
0.236493
0.240913
0.245671
0.251383
0.256763
0.261279
0.266517
0.272651
0.275746
0.27793
0.283246
0.288913
0.293167
0.298083
0.302436
0.306801
0.310954
0.314522
0.406564
0.655383
0.862537
0.969071
1.00333
1.00446
1.00021
1.00253
1.00182
1.00393
1.00378
0.997347
1.00475
1.01643
1.03028
1.04787
1.07629
1.09925
1.09987
1.11835
0.206497
0.206487
0.206482
0.206507
0.206594
0.206629
0.206626
0.206605
0.206571
0.206551
0.206545
0.206552
0.206563
0.206551
0.206549
0.206538
0.206533
0.206538
0.206497
0.206483
0.20646
0.206403
0.206382
0.206304
0.206131
0.206104
0.20611
0.206098
0.206
0.20595
0.205946
0.205918
0.205844
0.205823
0.205835
0.205849
0.205844
0.205923
0.206301
0.207099
0.207752
0.208086
0.208392
0.208639
0.208757
0.208979
0.209118
0.208988
0.208945
0.209035
0.209323
0.209852
0.210494
0.211077
0.211821
0.213246
0.215476
0.217985
0.22083
0.224205
0.228073
0.232281
0.236613
0.241148
0.245964
0.251801
0.258536
0.262488
0.265997
0.27239
0.278491
0.281085
0.284335
0.291291
0.297737
0.303143
0.307806
0.311191
0.315622
0.319973
0.32283
0.338301
0.443683
0.637119
0.803528
0.908327
0.967049
0.996094
0.998815
1.00485
1.00162
0.997169
1.01052
1.01727
1.02418
1.04117
1.07496
1.08724
1.09025
1.11101
0.206602
0.206598
0.20661
0.206604
0.206585
0.206563
0.206532
0.206507
0.206492
0.206478
0.206469
0.206475
0.206458
0.206421
0.206421
0.206415
0.206419
0.206422
0.206394
0.206404
0.206364
0.206283
0.2063
0.206288
0.206138
0.206095
0.206107
0.206122
0.206156
0.206242
0.20631
0.206437
0.206647
0.20687
0.2071
0.207326
0.207616
0.208104
0.208908
0.209757
0.210044
0.210125
0.210304
0.210375
0.210351
0.210304
0.209984
0.209261
0.20913
0.209254
0.20944
0.209813
0.210535
0.211927
0.213757
0.215386
0.217275
0.219818
0.223387
0.227671
0.232718
0.237748
0.242748
0.248031
0.253189
0.257454
0.262498
0.26634
0.26866
0.272568
0.280676
0.286547
0.289758
0.29501
0.301821
0.307306
0.313736
0.319906
0.322232
0.326521
0.33158
0.334613
0.337652
0.343398
0.389792
0.494504
0.639611
0.774258
0.874092
0.950756
0.98101
0.994112
1.01572
1.01057
1.01467
1.03548
1.06843
1.06799
1.08077
1.1148
0.207045
0.206991
0.206915
0.206897
0.206888
0.206891
0.206932
0.206964
0.206974
0.206998
0.207036
0.207049
0.207052
0.207056
0.207059
0.207024
0.206935
0.206943
0.207021
0.207126
0.207245
0.207289
0.207268
0.207327
0.207497
0.207681
0.207903
0.208264
0.208594
0.208791
0.209083
0.20962
0.209909
0.210009
0.210199
0.210506
0.2107
0.210917
0.211218
0.211345
0.211226
0.211023
0.211042
0.211062
0.211059
0.210936
0.210205
0.209473
0.209521
0.210093
0.211392
0.212911
0.214657
0.217136
0.220245
0.223295
0.226041
0.229008
0.232051
0.235223
0.239008
0.242876
0.247117
0.251633
0.255848
0.258559
0.262464
0.268843
0.274871
0.278399
0.283406
0.291821
0.298289
0.303229
0.309856
0.316258
0.320373
0.326609
0.331213
0.334652
0.339108
0.342931
0.346816
0.353299
0.356581
0.35949
0.36377
0.398449
0.479888
0.597153
0.736211
0.867611
0.960685
0.981468
1.01247
1.03418
1.05492
1.05478
1.07554
1.11807
0.207338
0.207349
0.207369
0.207379
0.207348
0.207326
0.20734
0.207393
0.207487
0.207627
0.207808
0.208024
0.208207
0.208315
0.208403
0.208535
0.208743
0.208998
0.209289
0.209563
0.209836
0.210149
0.210397
0.21059
0.210744
0.210879
0.211069
0.211372
0.211568
0.211642
0.211763
0.212139
0.212273
0.212186
0.212227
0.212455
0.212454
0.212223
0.212212
0.21217
0.211544
0.211027
0.211075
0.211318
0.211699
0.212371
0.213559
0.215283
0.217307
0.219745
0.222238
0.224542
0.226918
0.229415
0.231224
0.232779
0.234533
0.236737
0.238827
0.240804
0.242948
0.246157
0.249946
0.253587
0.25774
0.263361
0.270133
0.27811
0.286916
0.293179
0.296508
0.301663
0.30873
0.314435
0.319169
0.325148
0.328716
0.331942
0.337285
0.340498
0.34459
0.350375
0.356036
0.361072
0.366484
0.370841
0.375527
0.380014
0.385936
0.39084
0.41468
0.484756
0.599603
0.75443
0.907085
0.983214
1.02608
1.04501
1.09245
1.12476
0.21029
0.210425
0.210555
0.210701
0.210774
0.21084
0.210997
0.211191
0.211382
0.211619
0.211864
0.212185
0.212474
0.212537
0.212602
0.212797
0.21298
0.213164
0.213329
0.213392
0.213536
0.213785
0.213839
0.213809
0.213749
0.213797
0.213958
0.213966
0.213868
0.213842
0.213876
0.213714
0.213383
0.213322
0.213515
0.214057
0.214698
0.215207
0.215807
0.216778
0.217282
0.217866
0.219005
0.220746
0.223007
0.225352
0.227642
0.229964
0.232025
0.23337
0.234192
0.234935
0.235925
0.237466
0.238897
0.240455
0.242416
0.245082
0.248749
0.252818
0.257333
0.262388
0.267305
0.272273
0.27769
0.283915
0.289755
0.293018
0.296509
0.301756
0.306536
0.311414
0.317311
0.32242
0.325368
0.329545
0.334199
0.336855
0.341795
0.347233
0.352509
0.35907
0.366514
0.370527
0.375404
0.38075
0.385836
0.389282
0.395516
0.403085
0.412332
0.419162
0.425619
0.455973
0.534753
0.685077
0.844467
0.991322
1.07074
1.11021
0.214853
0.214937
0.215066
0.215217
0.215351
0.215467
0.215566
0.215657
0.215753
0.21584
0.215928
0.216081
0.216158
0.216226
0.216442
0.216556
0.216511
0.216587
0.216706
0.216712
0.216797
0.21703
0.217261
0.217469
0.217714
0.217995
0.218394
0.218908
0.21929
0.21973
0.220673
0.221365
0.222004
0.222871
0.224101
0.225629
0.227237
0.228861
0.230383
0.231805
0.233318
0.234878
0.236282
0.237449
0.238469
0.239225
0.239736
0.240394
0.241593
0.242058
0.242105
0.24238
0.243173
0.244892
0.247537
0.250379
0.253922
0.258261
0.262945
0.267768
0.272585
0.276966
0.28107
0.285443
0.28994
0.293727
0.297361
0.299934
0.302764
0.307999
0.313999
0.318276
0.323092
0.328374
0.331338
0.333791
0.33941
0.345996
0.351658
0.358869
0.366132
0.370445
0.3751
0.380862
0.385436
0.389936
0.395006
0.400458
0.406615
0.414414
0.421548
0.430811
0.439848
0.450036
0.460807
0.478737
0.533906
0.680017
0.842064
1.01344
0.22189
0.222194
0.222579
0.223023
0.223466
0.22392
0.22442
0.224908
0.225378
0.225878
0.226392
0.226904
0.227449
0.228013
0.22855
0.229044
0.22951
0.229958
0.230419
0.230913
0.231361
0.231801
0.232319
0.232885
0.233509
0.234203
0.235033
0.235898
0.23671
0.237558
0.23847
0.239404
0.240324
0.241145
0.241805
0.242454
0.243208
0.243949
0.244475
0.24492
0.245462
0.246016
0.246529
0.247328
0.247859
0.247798
0.248024
0.248868
0.250507
0.252719
0.254786
0.256642
0.258687
0.261179
0.264031
0.267199
0.27037
0.272965
0.274983
0.277268
0.279918
0.28286
0.286176
0.289626
0.293205
0.296799
0.301548
0.308083
0.31357
0.317492
0.322586
0.326076
0.330099
0.335449
0.341596
0.34755
0.353693
0.360999
0.367376
0.372316
0.377268
0.382697
0.386456
0.390892
0.39535
0.399776
0.404948
0.41131
0.417961
0.425663
0.434452
0.443557
0.453385
0.462838
0.474676
0.489101
0.505709
0.529914
0.584359
0.815072
0.238768
0.239053
0.239397
0.239767
0.240119
0.240466
0.240851
0.241245
0.241626
0.241996
0.242369
0.242757
0.243142
0.243545
0.243949
0.244348
0.244758
0.245178
0.245605
0.246036
0.246448
0.246826
0.247175
0.247492
0.247787
0.248069
0.248331
0.248582
0.248914
0.249377
0.249904
0.250442
0.251089
0.251523
0.251887
0.252623
0.253274
0.253699
0.254177
0.255008
0.256111
0.257224
0.258346
0.259666
0.261222
0.262866
0.264467
0.266227
0.26825
0.270413
0.272348
0.274057
0.275758
0.27748
0.279128
0.280803
0.282745
0.284458
0.285749
0.287122
0.28924
0.292478
0.296368
0.300313
0.306014
0.313159
0.317969
0.322019
0.326158
0.328447
0.331705
0.336995
0.342335
0.348893
0.356503
0.363936
0.369372
0.374349
0.378657
0.383736
0.388037
0.3929
0.397786
0.40207
0.406927
0.411971
0.416838
0.422673
0.429543
0.437684
0.447272
0.457054
0.466322
0.476894
0.488925
0.503659
0.52067
0.541973
0.561403
0.642399
0.253108
0.253401
0.25372
0.254032
0.254339
0.25465
0.254955
0.255265
0.255606
0.255965
0.256356
0.256747
0.257124
0.257507
0.257895
0.258338
0.258819
0.259298
0.259776
0.260272
0.260786
0.261321
0.261885
0.262447
0.263023
0.263624
0.264241
0.264887
0.265598
0.266289
0.266961
0.267686
0.268434
0.269275
0.270266
0.271334
0.272446
0.273605
0.274801
0.275943
0.276923
0.277824
0.278813
0.279875
0.280818
0.281565
0.282417
0.283607
0.284653
0.285158
0.285498
0.286077
0.287307
0.288687
0.289788
0.290812
0.292516
0.295059
0.298212
0.302231
0.306862
0.311874
0.31703
0.321976
0.326698
0.330758
0.331769
0.332595
0.335642
0.341147
0.347114
0.35405
0.36111
0.366625
0.371183
0.375114
0.379089
0.383929
0.388555
0.392985
0.39783
0.401433
0.405813
0.410566
0.416192
0.422237
0.428558
0.435693
0.443414
0.452375
0.461753
0.47179
0.481967
0.49275
0.504775
0.518649
0.53693
0.558241
0.577909
0.624456
0.271987
0.272296
0.272627
0.272958
0.273291
0.273629
0.273978
0.274352
0.274752
0.275143
0.275539
0.275957
0.276386
0.276866
0.277373
0.277854
0.278338
0.278836
0.279341
0.27985
0.28039
0.280906
0.281394
0.281902
0.282403
0.282892
0.283384
0.283834
0.284218
0.284566
0.284917
0.285266
0.285652
0.286111
0.286639
0.287136
0.287632
0.288144
0.288685
0.289266
0.289908
0.290533
0.291398
0.292022
0.292323
0.292781
0.293477
0.294829
0.296072
0.296527
0.297172
0.298451
0.300471
0.302908
0.305063
0.307358
0.30991
0.312928
0.316713
0.320354
0.323383
0.326343
0.329294
0.331854
0.33437
0.337351
0.340818
0.345113
0.350637
0.357729
0.364215
0.368443
0.373116
0.377072
0.380227
0.38329
0.387028
0.390961
0.396805
0.401134
0.406279
0.41248
0.418544
0.42436
0.429584
0.435357
0.442033
0.448889
0.457314
0.466365
0.476491
0.486729
0.497852
0.508922
0.521115
0.536403
0.553085
0.575187
0.597164
0.639337
0.288958
0.289278
0.289601
0.289907
0.290209
0.290521
0.290847
0.291197
0.291568
0.291947
0.29231
0.29264
0.292985
0.293395
0.293833
0.294234
0.294626
0.295005
0.29537
0.295722
0.296085
0.296458
0.296821
0.297219
0.297584
0.297915
0.298304
0.298729
0.299169
0.299614
0.300111
0.300686
0.301311
0.301971
0.302636
0.30332
0.304012
0.30471
0.30544
0.306238
0.307086
0.30801
0.309079
0.310325
0.311703
0.31313
0.31458
0.316074
0.317388
0.318599
0.319988
0.321644
0.32312
0.324369
0.326003
0.327832
0.329488
0.331087
0.332455
0.33365
0.33511
0.3366
0.338291
0.341324
0.346051
0.352042
0.358423
0.364781
0.368806
0.371793
0.375637
0.377617
0.380154
0.384907
0.388674
0.392834
0.39814
0.403147
0.408607
0.41547
0.421608
0.427196
0.432379
0.438027
0.443972
0.450098
0.456667
0.463952
0.472441
0.481622
0.491748
0.502806
0.513907
0.525604
0.538646
0.553392
0.571795
0.59407
0.615525
0.657896
0.309488
0.309773
0.310081
0.310408
0.310738
0.311074
0.311442
0.311822
0.312207
0.312597
0.312994
0.313398
0.313802
0.314216
0.314646
0.315095
0.315558
0.316013
0.316471
0.316939
0.317404
0.317869
0.318389
0.318901
0.319381
0.319891
0.320419
0.320949
0.321487
0.322021
0.322562
0.323112