/*--------------------------------*- C++ -*----------------------------------*\
  =========                 |
  \\      /  F ield         | OpenFOAM: The Open Source CFD Toolbox
   \\    /   O peration     | Website:  https://openfoam.org
    \\  /    A nd           | Version:  7
     \\/     M anipulation  |
\*---------------------------------------------------------------------------*/
FoamFile
{
    version     2.0;
    format      ascii;
    class       volVectorField;
    location    "2.3";
    object      U;
}
// * * * * * * * * * * * * * * * * * * * * * * * * * * * * * * * * * * * * * //

dimensions      [0 1 -1 0 0 0 0];

internalField   nonuniform List<vector> 
11200
(
(2.63423 -0.762975 0)
(2.63775 -0.353891 0)
(2.66866 -0.185788 0)
(2.67269 -0.0335233 0)
(2.68587 0.107366 0)
(2.73088 0.114507 0)
(2.75129 0.221913 0)
(2.7657 0.196656 0)
(2.78752 0.225857 0)
(2.79626 0.221262 0)
(2.82274 0.224419 0)
(2.84172 0.185846 0)
(2.85001 0.121838 0)
(2.85484 0.0545399 0)
(2.85942 0.00713668 0)
(2.86796 0.0114397 0)
(2.8827 0.0454923 0)
(2.89194 0.0925963 0)
(2.90249 0.0900364 0)
(2.89706 0.0578741 0)
(2.89166 0.0326542 0)
(2.87021 0.00585444 0)
(2.76771 -0.044117 0)
(2.72288 -0.0659252 0)
(2.71707 -0.0531263 0)
(2.71518 -0.0104372 0)
(2.70057 0.109237 0)
(2.51297 0.158873 0)
(2.32779 0.0996752 0)
(2.34076 -0.0202163 0)
(2.70852 -1.46217 0)
(2.73395 -1.47212 0)
(2.73154 -1.39093 0)
(2.73199 -1.23729 0)
(2.71161 -1.01997 0)
(2.68948 -0.800406 0)
(2.66322 -0.522255 0)
(2.67304 -0.396261 0)
(2.6499 -0.17816 0)
(2.66168 -0.166137 0)
(2.64944 -0.0518266 0)
(2.66387 -0.0279003 0)
(2.68634 -0.0130963 0)
(2.71461 -0.0203515 0)
(2.72307 -0.00502656 0)
(2.72978 0.0226678 0)
(2.73597 0.0286318 0)
(2.73328 0.0282744 0)
(2.72117 0.0285967 0)
(2.70748 0.0461385 0)
(2.70408 0.060857 0)
(2.68022 0.0424649 0)
(2.59239 -0.00435455 0)
(2.53419 -0.0543821 0)
(2.51376 -0.0498799 0)
(2.49935 -0.0212272 0)
(2.45885 0.105935 0)
(2.32623 0.184255 0)
(2.16626 0.126398 0)
(2.22822 -0.0224878 0)
(2.87442 -1.56034 0)
(2.92109 -1.56805 0)
(2.96947 -1.611 0)
(2.99947 -1.62521 0)
(3.02672 -1.62983 0)
(3.0483 -1.63845 0)
(3.05641 -1.62822 0)
(3.03614 -1.53333 0)
(2.96447 -1.33452 0)
(2.89149 -1.13142 0)
(2.77339 -0.780612 0)
(2.72018 -0.500772 0)
(2.66106 -0.198428 0)
(2.67279 -0.0254394 0)
(2.63903 0.117224 0)
(2.63942 0.146594 0)
(2.63912 0.101175 0)
(2.64542 0.0544393 0)
(2.6413 0.0356185 0)
(2.64036 0.0369599 0)
(2.63309 0.0428013 0)
(2.6004 0.0158888 0)
(2.49926 -0.0212798 0)
(2.42782 -0.068349 0)
(2.36526 -0.0505687 0)
(2.3241 -0.00188032 0)
(2.23911 0.142974 0)
(2.15588 0.221704 0)
(2.04947 0.149283 0)
(2.16587 -0.0344566 0)
(3.01029 -1.63163 0)
(3.02913 -1.64996 0)
(3.05086 -1.65446 0)
(3.06625 -1.66197 0)
(3.08185 -1.65663 0)
(3.09184 -1.6547 0)
(3.1017 -1.64391 0)
(3.10287 -1.64292 0)
(3.10735 -1.64809 0)
(3.11055 -1.65183 0)
(3.11194 -1.66057 0)
(3.09909 -1.62445 0)
(3.02603 -1.44245 0)
(2.95359 -1.12532 0)
(2.90247 -0.792367 0)
(2.83944 -0.431257 0)
(2.78146 -0.212836 0)
(2.71284 -0.0513631 0)
(2.6946 0.0111866 0)
(2.6902 0.0346258 0)
(2.66935 0.0326782 0)
(2.58493 0.00881606 0)
(2.46639 0.00189593 0)
(2.38761 -0.0518622 0)
(2.29562 -0.0500459 0)
(2.21958 0.0181351 0)
(2.10581 0.154494 0)
(2.04674 0.241981 0)
(2.00247 0.15694 0)
(2.1525 -0.0505427 0)
(3.0794 -1.65305 0)
(3.08933 -1.64805 0)
(3.09544 -1.64638 0)
(3.09941 -1.64419 0)
(3.10319 -1.63976 0)
(3.1042 -1.63788 0)
(3.10542 -1.63576 0)
(3.10475 -1.63932 0)
(3.10679 -1.64869 0)
(3.10949 -1.65502 0)
(3.11009 -1.66222 0)
(3.11238 -1.66945 0)
(3.11244 -1.68123 0)
(3.109 -1.69035 0)
(3.10676 -1.69474 0)
(3.07696 -1.56845 0)
(2.97303 -1.09787 0)
(2.85581 -0.551019 0)
(2.83051 -0.232307 0)
(2.77859 -0.0232709 0)
(2.7659 -0.00195432 0)
(2.57999 0.0237349 0)
(2.46179 0.0324711 0)
(2.36895 -0.0207153 0)
(2.26968 -0.0270808 0)
(2.1808 0.0646163 0)
(2.08008 0.19781 0)
(2.03107 0.268434 0)
(2.02563 0.160786 0)
(2.18403 -0.0694586 0)
(3.09973 -1.65079 0)
(3.10189 -1.64536 0)
(3.10255 -1.64381 0)
(3.10217 -1.64426 0)
(3.10091 -1.6454 0)
(3.10006 -1.64433 0)
(3.09749 -1.65319 0)
(3.09513 -1.66829 0)
(3.09559 -1.67865 0)
(3.09728 -1.68495 0)
(3.10094 -1.68628 0)
(3.10621 -1.68636 0)
(3.1074 -1.69003 0)
(3.10431 -1.69487 0)
(3.10046 -1.69626 0)
(3.10203 -1.69014 0)
(3.10933 -1.68759 0)
(3.111 -1.66478 0)
(3.05904 -1.39225 0)
(2.98219 -0.906107 0)
(2.96318 -0.567548 0)
(2.71923 -0.047126 0)
(2.43678 0.0581554 0)
(2.34846 0.0187238 0)
(2.26883 -0.00398568 0)
(2.18694 0.101139 0)
(2.12844 0.238195 0)
(2.1082 0.27465 0)
(2.12633 0.138357 0)
(2.24601 -0.0867804 0)
(3.09796 -1.66188 0)
(3.09731 -1.6626 0)
(3.09491 -1.66296 0)
(3.0891 -1.66735 0)
(3.08442 -1.67162 0)
(3.08272 -1.6737 0)
(3.08325 -1.67801 0)
(3.0846 -1.68749 0)
(3.08555 -1.69023 0)
(3.08922 -1.6937 0)
(3.09772 -1.69153 0)
(3.10351 -1.68763 0)
(3.10386 -1.68519 0)
(3.10133 -1.68822 0)
(3.09928 -1.68992 0)
(3.09791 -1.67782 0)
(3.11361 -1.65731 0)
(3.12323 -1.6657 0)
(3.12988 -1.66603 0)
(3.13529 -1.62756 0)
(3.12337 -1.5278 0)
(2.98331 -0.913148 0)
(2.65824 -0.120974 0)
(2.36558 0.0322839 0)
(2.30793 0.00664615 0)
(2.23762 0.107653 0)
(2.21242 0.254396 0)
(2.24435 0.27042 0)
(2.27575 0.120406 0)
(2.34513 -0.0907827 0)
(3.10103 -1.67506 0)
(3.09714 -1.67248 0)
(3.09179 -1.66842 0)
(3.08349 -1.67134 0)
(3.07994 -1.67379 0)
(3.07767 -1.67667 0)
(3.0807 -1.68233 0)
(3.08319 -1.68424 0)
(3.08445 -1.68751 0)
(3.08978 -1.69144 0)
(3.10004 -1.68018 0)
(3.10346 -1.67421 0)
(3.11088 -1.66179 0)
(3.11176 -1.66236 0)
(3.11271 -1.66606 0)
(3.10706 -1.62755 0)
(3.12422 -1.58506 0)
(3.1445 -1.56395 0)
(3.14556 -1.58494 0)
(3.1513 -1.54738 0)
(3.17087 -1.5235 0)
(3.16605 -1.54218 0)
(3.05867 -1.13552 0)
(2.72571 -0.242056 0)
(2.36029 0.00930748 0)
(2.30654 0.140439 0)
(2.31973 0.232792 0)
(2.37272 0.227703 0)
(2.43262 0.117014 0)
(2.47629 -0.0846451 0)
(3.08269 -1.68859 0)
(3.08318 -1.68638 0)
(3.08158 -1.6813 0)
(3.07849 -1.67766 0)
(3.07636 -1.68463 0)
(3.07755 -1.68542 0)
(3.07896 -1.67906 0)
(3.08667 -1.6708 0)
(3.08996 -1.67375 0)
(3.09408 -1.67816 0)
(3.10794 -1.6574 0)
(3.11681 -1.62473 0)
(3.12884 -1.58777 0)
(3.13785 -1.57501 0)
(3.13786 -1.56277 0)
(3.13231 -1.56294 0)
(3.13904 -1.55715 0)
(3.15111 -1.55339 0)
(3.15417 -1.54445 0)
(3.14555 -1.54489 0)
(3.14823 -1.50546 0)
(3.16878 -1.45989 0)
(3.1737 -1.46228 0)
(3.13933 -1.21582 0)
(2.68261 -0.284786 0)
(2.37199 0.104853 0)
(2.4716 0.225796 0)
(2.55003 0.218804 0)
(2.61721 0.102644 0)
(2.61802 -0.0978484 0)
(3.0632 -1.69231 0)
(3.06257 -1.69241 0)
(3.07093 -1.68423 0)
(3.07538 -1.67913 0)
(3.07998 -1.66721 0)
(3.08331 -1.66102 0)
(3.08341 -1.64656 0)
(3.09465 -1.62689 0)
(3.10431 -1.61902 0)
(3.10275 -1.62799 0)
(3.10476 -1.64271 0)
(3.11858 -1.60262 0)
(3.1375 -1.55804 0)
(3.13899 -1.55765 0)
(3.13657 -1.55717 0)
(3.13808 -1.52627 0)
(3.14079 -1.51536 0)
(3.15703 -1.4971 0)
(3.16993 -1.45607 0)
(3.1742 -1.43662 0)
(3.16654 -1.4513 0)
(3.17044 -1.43667 0)
(3.18455 -1.40189 0)
(3.1882 -1.3964 0)
(3.13689 -1.18184 0)
(2.61888 -0.17103 0)
(2.60698 0.112929 0)
(2.72805 0.224707 0)
(2.8042 0.163051 0)
(2.74067 -0.0214593 0)
(3.11688 -1.59592 0)
(3.11623 -1.59721 0)
(3.11279 -1.5968 0)
(3.10489 -1.60439 0)
(3.10296 -1.60292 0)
(3.10004 -1.58766 0)
(3.10221 -1.56807 0)
(3.11732 -1.54547 0)
(3.13106 -1.53877 0)
(3.13048 -1.54706 0)
(3.12978 -1.55517 0)
(3.13464 -1.54919 0)
(3.14489 -1.51967 0)
(3.1497 -1.51447 0)
(3.1478 -1.50433 0)
(3.13964 -1.48674 0)
(3.14921 -1.44724 0)
(3.16311 -1.43874 0)
(3.17415 -1.41029 0)
(3.18092 -1.38425 0)
(3.18883 -1.39123 0)
(3.19589 -1.35141 0)
(3.20298 -1.33714 0)
(3.20886 -1.29148 0)
(3.19935 -1.30922 0)
(3.0579 -0.938024 0)
(2.97981 -0.42891 0)
(2.87986 0.0313888 0)
(2.90776 0.0880878 0)
(2.81501 0.023083 0)
(3.14214 -1.5516 0)
(3.14457 -1.55292 0)
(3.13651 -1.53667 0)
(3.13485 -1.52321 0)
(3.13712 -1.50717 0)
(3.13077 -1.4754 0)
(3.1367 -1.44351 0)
(3.14871 -1.41918 0)
(3.16183 -1.40125 0)
(3.16821 -1.39889 0)
(3.17293 -1.40801 0)
(3.17681 -1.40334 0)
(3.1789 -1.39283 0)
(3.18832 -1.3716 0)
(3.17918 -1.37397 0)
(3.17023 -1.36118 0)
(3.16969 -1.37653 0)
(3.18169 -1.34896 0)
(3.1858 -1.34973 0)
(3.18684 -1.32268 0)
(3.20167 -1.27948 0)
(3.20789 -1.28967 0)
(3.20795 -1.25759 0)
(3.20711 -1.24679 0)
(3.22106 -1.20806 0)
(3.21556 -1.22533 0)
(3.20087 -1.13345 0)
(3.07578 -0.56961 0)
(3.09038 -0.411657 0)
(2.92168 -0.142777 0)
(3.16894 -1.42223 0)
(3.16682 -1.42441 0)
(3.16434 -1.42202 0)
(3.1558 -1.42368 0)
(3.14584 -1.43076 0)
(3.14041 -1.42216 0)
(3.13509 -1.41039 0)
(3.14209 -1.3906 0)
(3.15548 -1.38003 0)
(3.16562 -1.37319 0)
(3.17047 -1.37183 0)
(3.17577 -1.34575 0)
(3.17956 -1.30676 0)
(3.18949 -1.2881 0)
(3.18725 -1.28781 0)
(3.18439 -1.28496 0)
(3.19132 -1.25957 0)
(3.1982 -1.25406 0)
(3.19831 -1.25208 0)
(3.19261 -1.25827 0)
(3.1949 -1.23552 0)
(3.20472 -1.20882 0)
(3.20146 -1.21528 0)
(3.2012 -1.20673 0)
(3.20668 -1.19764 0)
(3.22747 -1.1605 0)
(3.21267 -1.19851 0)
(3.20555 -1.15531 0)
(3.17906 -1.08763 0)
(3.03028 -0.731458 0)
(3.18567 -1.3004 0)
(3.18538 -1.30337 0)
(3.18224 -1.3057 0)
(3.17634 -1.31329 0)
(3.17133 -1.30603 0)
(3.16604 -1.28504 0)
(3.16122 -1.27128 0)
(3.17292 -1.23485 0)
(3.18597 -1.21745 0)
(3.19186 -1.21669 0)
(3.18324 -1.23899 0)
(3.17642 -1.26739 0)
(3.17771 -1.26967 0)
(3.1815 -1.26283 0)
(3.18263 -1.25534 0)
(3.1791 -1.23885 0)
(3.18492 -1.20035 0)
(3.19826 -1.18042 0)
(3.20154 -1.18485 0)
(3.2023 -1.16618 0)
(3.19928 -1.16601 0)
(3.20014 -1.15598 0)
(3.20261 -1.14449 0)
(3.20321 -1.14388 0)
(3.20836 -1.12158 0)
(3.21542 -1.11473 0)
(3.2189 -1.10098 0)
(3.21243 -1.0944 0)
(3.18896 -1.07875 0)
(3.0841 -1.0438 0)
(3.19484 -1.18659 0)
(3.19586 -1.19301 0)
(3.19482 -1.19881 0)
(3.18506 -1.21752 0)
(3.17861 -1.2222 0)
(3.16794 -1.19767 0)
(3.16553 -1.19061 0)
(3.17642 -1.168 0)
(3.1885 -1.15355 0)
(3.19404 -1.15517 0)
(3.19728 -1.14612 0)
(3.19704 -1.13475 0)
(3.19841 -1.12554 0)
(3.20822 -1.09945 0)
(3.20949 -1.09102 0)
(3.19856 -1.09852 0)
(3.19326 -1.11899 0)
(3.20291 -1.11392 0)
(3.20601 -1.10643 0)
(3.20857 -1.0908 0)
(3.21182 -1.08128 0)
(3.21079 -1.07327 0)
(3.21083 -1.06289 0)
(3.21489 -1.04332 0)
(3.21624 -1.05427 0)
(3.22218 -1.0232 0)
(3.22052 -1.0291 0)
(3.22215 -1.00499 0)
(3.18961 -1.02878 0)
(3.09247 -0.995892 0)
(3.20738 -1.05911 0)
(3.20468 -1.0604 0)
(3.20312 -1.06172 0)
(3.19618 -1.07699 0)
(3.19006 -1.08693 0)
(3.1812 -1.06281 0)
(3.18166 -1.05768 0)
(3.18937 -1.04202 0)
(3.20591 -1.01806 0)
(3.20577 -1.01535 0)
(3.19832 -1.02354 0)
(3.19512 -1.03685 0)
(3.19896 -1.03928 0)
(3.20172 -1.03498 0)
(3.20994 -1.02567 0)
(3.21208 -1.01155 0)
(3.21018 -0.989804 0)
(3.21126 -0.982853 0)
(3.21029 -0.981598 0)
(3.21337 -0.970292 0)
(3.21301 -0.970987 0)
(3.21852 -0.970622 0)
(3.22227 -0.966223 0)
(3.22643 -0.967989 0)
(3.22889 -0.957573 0)
(3.22914 -0.952698 0)
(3.22379 -0.969002 0)
(3.22121 -0.946362 0)
(3.19626 -0.945159 0)
(3.10056 -0.92896 0)
(3.21111 -0.923326 0)
(3.20523 -0.934429 0)
(3.20428 -0.935641 0)
(3.20015 -0.940347 0)
(3.19057 -0.956905 0)
(3.18548 -0.956703 0)
(3.19249 -0.936771 0)
(3.19993 -0.914028 0)
(3.20354 -0.901186 0)
(3.20673 -0.909916 0)
(3.20294 -0.920962 0)
(3.20163 -0.927443 0)
(3.2004 -0.918796 0)
(3.20695 -0.909011 0)
(3.20966 -0.909029 0)
(3.20835 -0.914785 0)
(3.20669 -0.913975 0)
(3.20568 -0.91442 0)
(3.20685 -0.916507 0)
(3.21157 -0.916881 0)
(3.21325 -0.916215 0)
(3.21673 -0.909827 0)
(3.2181 -0.906739 0)
(3.22235 -0.900378 0)
(3.22779 -0.89907 0)
(3.23223 -0.889649 0)
(3.22862 -0.891239 0)
(3.22038 -0.884226 0)
(3.19602 -0.898224 0)
(3.11857 -0.87261 0)
(3.19664 -0.7603 0)
(3.20253 -0.781174 0)
(3.20096 -0.78813 0)
(3.19989 -0.787962 0)
(3.18886 -0.799079 0)
(3.18386 -0.813842 0)
(3.19078 -0.807659 0)
(3.19651 -0.797207 0)
(3.20513 -0.784076 0)
(3.20893 -0.785153 0)
(3.20081 -0.789543 0)
(3.19546 -0.791949 0)
(3.19609 -0.796881 0)
(3.20349 -0.798092 0)
(3.20926 -0.797853 0)
(3.21114 -0.796705 0)
(3.21002 -0.796501 0)
(3.20954 -0.794215 0)
(3.215 -0.786746 0)
(3.21721 -0.784188 0)
(3.21837 -0.785083 0)
(3.21868 -0.787158 0)
(3.21843 -0.795351 0)
(3.22109 -0.807596 0)
(3.22466 -0.813161 0)
(3.22757 -0.810568 0)
(3.22194 -0.82208 0)
(3.21527 -0.816119 0)
(3.19943 -0.81908 0)
(3.1346 -0.793694 0)
(3.17115 -0.600353 0)
(3.19741 -0.621864 0)
(3.1949 -0.64547 0)
(3.19223 -0.656119 0)
(3.18899 -0.65948 0)
(3.17714 -0.67183 0)
(3.17573 -0.674169 0)
(3.18099 -0.665994 0)
(3.19162 -0.646215 0)
(3.20168 -0.648533 0)
(3.19479 -0.65888 0)
(3.19008 -0.669831 0)
(3.18593 -0.679205 0)
(3.19172 -0.680465 0)
(3.20204 -0.682387 0)
(3.20341 -0.684375 0)
(3.20397 -0.686612 0)
(3.2029 -0.69229 0)
(3.20505 -0.699501 0)
(3.20868 -0.705116 0)
(3.21231 -0.708399 0)
(3.21687 -0.711573 0)
(3.22131 -0.708592 0)
(3.22389 -0.703053 0)
(3.22598 -0.708903 0)
(3.22518 -0.711868 0)
(3.21887 -0.723433 0)
(3.21178 -0.731065 0)
(3.19609 -0.738585 0)
(3.13703 -0.72434 0)
(3.15059 -0.445679 0)
(3.17227 -0.457725 0)
(3.18363 -0.477844 0)
(3.17718 -0.494086 0)
(3.17515 -0.495013 0)
(3.16052 -0.511123 0)
(3.15106 -0.531015 0)
(3.15613 -0.532817 0)
(3.1769 -0.520698 0)
(3.19291 -0.517295 0)
(3.18584 -0.524275 0)
(3.18091 -0.537662 0)
(3.17502 -0.545031 0)
(3.17588 -0.549037 0)
(3.18832 -0.558162 0)
(3.1912 -0.562658 0)
(3.19336 -0.562856 0)
(3.19502 -0.574233 0)
(3.19551 -0.578279 0)
(3.1993 -0.584923 0)
(3.20432 -0.589557 0)
(3.207 -0.593482 0)
(3.21151 -0.613948 0)
(3.21367 -0.62444 0)
(3.22109 -0.62207 0)
(3.22288 -0.624614 0)
(3.21143 -0.63732 0)
(3.20672 -0.63776 0)
(3.19049 -0.647806 0)
(3.13639 -0.651903 0)
(3.12922 -0.289897 0)
(3.13098 -0.277285 0)
(3.15481 -0.304453 0)
(3.15364 -0.338727 0)
(3.15516 -0.346606 0)
(3.14729 -0.366013 0)
(3.1348 -0.394844 0)
(3.137 -0.399568 0)
(3.15573 -0.383044 0)
(3.1698 -0.369346 0)
(3.17003 -0.37979 0)
(3.16766 -0.401195 0)
(3.16009 -0.41466 0)
(3.15982 -0.41423 0)
(3.17186 -0.431246 0)
(3.17488 -0.44074 0)
(3.17661 -0.439079 0)
(3.18149 -0.453521 0)
(3.18305 -0.469705 0)
(3.18468 -0.474052 0)
(3.19098 -0.489518 0)
(3.19704 -0.49342 0)
(3.20119 -0.503713 0)
(3.2031 -0.51581 0)
(3.20662 -0.516821 0)
(3.20948 -0.525992 0)
(3.20043 -0.555759 0)
(3.19699 -0.568629 0)
(3.18641 -0.581653 0)
(3.14313 -0.580796 0)
(3.09443 -0.164129 0)
(3.10001 -0.148674 0)
(3.11118 -0.146969 0)
(3.12362 -0.183137 0)
(3.1213 -0.200856 0)
(3.12193 -0.209637 0)
(3.11194 -0.24162 0)
(3.10723 -0.255896 0)
(3.11977 -0.245452 0)
(3.13398 -0.230527 0)
(3.14517 -0.240735 0)
(3.14538 -0.264202 0)
(3.13738 -0.280082 0)
(3.1357 -0.279487 0)
(3.14721 -0.298486 0)
(3.15194 -0.315207 0)
(3.15466 -0.314757 0)
(3.16035 -0.32435 0)
(3.1645 -0.351158 0)
(3.16559 -0.357404 0)
(3.17171 -0.369072 0)
(3.17917 -0.381535 0)
(3.18489 -0.393452 0)
(3.18844 -0.412126 0)
(3.19124 -0.420608 0)
(3.19338 -0.422666 0)
(3.19151 -0.447399 0)
(3.18137 -0.46359 0)
(3.17429 -0.472277 0)
(3.14087 -0.478716 0)
(3.05046 -0.0355426 0)
(3.05564 -0.0284097 0)
(3.06289 -0.0152462 0)
(3.07413 -0.0168543 0)
(3.07859 -0.0466261 0)
(3.07717 -0.0595624 0)
(3.07896 -0.0846234 0)
(3.07278 -0.114095 0)
(3.0789 -0.113658 0)
(3.09 -0.0982105 0)
(3.10311 -0.103742 0)
(3.10833 -0.125559 0)
(3.10305 -0.143302 0)
(3.10162 -0.144695 0)
(3.11313 -0.169567 0)
(3.11873 -0.186433 0)
(3.12308 -0.193112 0)
(3.1301 -0.200309 0)
(3.13849 -0.2245 0)
(3.14136 -0.241117 0)
(3.14579 -0.248657 0)
(3.15504 -0.270235 0)
(3.16119 -0.282371 0)
(3.16651 -0.297942 0)
(3.17028 -0.312104 0)
(3.1732 -0.3235 0)
(3.17593 -0.356428 0)
(3.16893 -0.378772 0)
(3.164 -0.396064 0)
(3.13923 -0.409216 0)
(2.9969 0.113803 0)
(2.99881 0.11412 0)
(3.00343 0.11914 0)
(3.01198 0.124963 0)
(3.02014 0.111657 0)
(3.02549 0.0845738 0)
(3.0295 0.0587986 0)
(3.02426 0.0429881 0)
(3.0273 0.0412001 0)
(3.0331 0.0502646 0)
(3.04656 0.0369758 0)
(3.05873 0.0045426 0)
(3.05882 -0.00980719 0)
(3.05916 -0.00829165 0)
(3.07195 -0.0364698 0)
(3.07606 -0.04879 0)
(3.08316 -0.0652969 0)
(3.09303 -0.0852599 0)
(3.09962 -0.0915414 0)
(3.10892 -0.119088 0)
(3.11428 -0.129224 0)
(3.12242 -0.143857 0)
(3.13305 -0.172736 0)
(3.13897 -0.185856 0)
(3.14751 -0.211853 0)
(3.15253 -0.225327 0)
(3.15478 -0.251938 0)
(3.15739 -0.276165 0)
(3.14908 -0.293891 0)
(3.1319 -0.310908 0)
(2.9343 0.276285 0)
(2.93744 0.270053 0)
(2.9441 0.255636 0)
(2.94861 0.250409 0)
(2.95133 0.254663 0)
(2.96337 0.238823 0)
(2.96742 0.219456 0)
(2.96614 0.21316 0)
(2.9726 0.195509 0)
(2.97808 0.192937 0)
(2.98849 0.182369 0)
(2.99889 0.162362 0)
(3.00445 0.144989 0)
(3.01104 0.130199 0)
(3.01809 0.118881 0)
(3.03017 0.0885374 0)
(3.03563 0.0794071 0)
(3.04695 0.0590002 0)
(3.05882 0.0340194 0)
(3.06592 0.0223471 0)
(3.07942 -0.0119529 0)
(3.08628 -0.0200051 0)
(3.10144 -0.054102 0)
(3.10846 -0.0682424 0)
(3.11842 -0.0922579 0)
(3.12884 -0.121286 0)
(3.12894 -0.139186 0)
(3.14137 -0.169538 0)
(3.1386 -0.189283 0)
(3.12473 -0.21142 0)
(2.9039 0.341796 0)
(2.90609 0.338591 0)
(2.90781 0.335785 0)
(2.90954 0.336662 0)
(2.91272 0.335908 0)
(2.9178 0.330037 0)
(2.91985 0.325678 0)
(2.92284 0.319889 0)
(2.92762 0.311859 0)
(2.93188 0.310351 0)
(2.93796 0.306306 0)
(2.94736 0.291566 0)
(2.95234 0.282126 0)
(2.95861 0.272653 0)
(2.96789 0.257927 0)
(2.97657 0.24269 0)
(2.98733 0.223622 0)
(2.9974 0.20897 0)
(3.01046 0.186482 0)
(3.02195 0.165326 0)
(3.03427 0.142678 0)
(3.0473 0.118449 0)
(3.06147 0.0922052 0)
(3.07274 0.0689364 0)
(3.08781 0.036019 0)
(3.0942 0.0190111 0)
(3.11004 -0.0184293 0)
(3.11215 -0.0372449 0)
(3.12305 -0.0623725 0)
(3.11388 -0.0913165 0)
(2.90238 0.334268 0)
(2.90363 0.333848 0)
(2.90505 0.333622 0)
(2.90671 0.334583 0)
(2.90834 0.335287 0)
(2.90997 0.333565 0)
(2.91207 0.332019 0)
(2.91365 0.329029 0)
(2.91513 0.326541 0)
(2.91825 0.327849 0)
(2.92258 0.327467 0)
(2.92738 0.322923 0)
(2.93007 0.321215 0)
(2.93422 0.318959 0)
(2.93993 0.31436 0)
(2.94606 0.309442 0)
(2.95335 0.303614 0)
(2.9613 0.297134 0)
(2.9705 0.288072 0)
(2.98055 0.276146 0)
(2.99183 0.262252 0)
(3.0042 0.246959 0)
(3.01856 0.226903 0)
(3.03169 0.207164 0)
(3.04751 0.181142 0)
(3.05995 0.158665 0)
(3.07612 0.128112 0)
(3.08497 0.104267 0)
(3.09556 0.0765728 0)
(3.09502 0.0410942 0)
(2.9206 0.268106 0)
(2.91924 0.271767 0)
(2.91666 0.276953 0)
(2.91638 0.282131 0)
(2.91629 0.289199 0)
(2.91786 0.296707 0)
(2.92018 0.300317 0)
(2.91838 0.295639 0)
(2.91945 0.290933 0)
(2.92183 0.293161 0)
(2.92411 0.299407 0)
(2.92775 0.301514 0)
(2.92928 0.300699 0)
(2.93112 0.300133 0)
(2.93524 0.298287 0)
(2.93989 0.296415 0)
(2.94466 0.294153 0)
(2.95095 0.290479 0)
(2.95713 0.286929 0)
(2.96448 0.281737 0)
(2.97319 0.275286 0)
(2.98273 0.268868 0)
(2.99399 0.259985 0)
(3.00589 0.249692 0)
(3.02004 0.234992 0)
(3.03282 0.220614 0)
(3.04835 0.198298 0)
(3.05974 0.177392 0)
(3.07053 0.151749 0)
(3.07564 0.112226 0)
(2.96332 0.121391 0)
(2.96128 0.126767 0)
(2.96153 0.125426 0)
(2.95844 0.132324 0)
(2.95495 0.146377 0)
(2.95602 0.153204 0)
(2.95567 0.159091 0)
(2.95556 0.157232 0)
(2.95233 0.163038 0)
(2.94754 0.17778 0)
(2.94742 0.189306 0)
(2.94958 0.189798 0)
(2.94664 0.199443 0)
(2.94534 0.208857 0)
(2.9458 0.21486 0)
(2.94529 0.223619 0)
(2.94754 0.227881 0)
(2.95047 0.235154 0)
(2.9514 0.23813 0)
(2.95971 0.240685 0)
(2.9657 0.239072 0)
(2.97234 0.237617 0)
(2.98094 0.233719 0)
(2.99122 0.226564 0)
(3.0025 0.216627 0)
(3.01415 0.20348 0)
(3.02587 0.187483 0)
(3.03594 0.169462 0)
(3.04451 0.147982 0)
(3.04994 0.111275 0)
(2.99562 0.0139311 0)
(2.99516 0.0151213 0)
(2.99456 0.0165141 0)
(2.99386 0.0180782 0)
(2.99305 0.0206044 0)
(2.99269 0.0229206 0)
(2.99231 0.0251333 0)
(2.99147 0.027795 0)
(2.99028 0.0304658 0)
(2.98863 0.0347813 0)
(2.98735 0.0399613 0)
(2.98634 0.0447743 0)
(2.98471 0.050395 0)
(2.98277 0.0575418 0)
(2.98111 0.0649612 0)
(2.97915 0.0736555 0)
(2.97759 0.082257 0)
(2.97579 0.0929164 0)
(2.97458 0.102483 0)
(2.97437 0.112351 0)
(2.97436 0.12371 0)
(2.97722 0.12868 0)
(2.97784 0.138171 0)
(2.98426 0.142565 0)
(2.989 0.140178 0)
(2.99405 0.137809 0)
(3.00093 0.131257 0)
(3.00773 0.120093 0)
(3.01299 0.105689 0)
(3.01793 0.0771693 0)
(2.99989 0.000328702 0)
(2.99988 0.000366512 0)
(2.99985 0.000416339 0)
(2.99983 0.000479297 0)
(2.99979 0.000568343 0)
(2.99976 0.000674193 0)
(2.99973 0.000792991 0)
(2.99968 0.000935264 0)
(2.99961 0.00111046 0)
(2.99951 0.00137043 0)
(2.99939 0.00172007 0)
(2.99927 0.00212308 0)
(2.99911 0.00264396 0)
(2.99887 0.00336784 0)
(2.9986 0.00429637 0)
(2.99826 0.00547026 0)
(2.99783 0.00700555 0)
(2.99731 0.00895236 0)
(2.99675 0.011417 0)
(2.99608 0.0144623 0)
(2.99548 0.0179521 0)
(2.99497 0.0220528 0)
(2.99458 0.0263202 0)
(2.99488 0.030419 0)
(2.99525 0.0343512 0)
(2.99703 0.0360676 0)
(2.99786 0.0357782 0)
(2.99934 0.0342191 0)
(3.00089 0.0307659 0)
(3.00306 0.0217753 0)
(3 2.4865e-06 0)
(3 2.80364e-06 0)
(3 3.24989e-06 0)
(3 3.82137e-06 0)
(3 4.5863e-06 0)
(3 5.56924e-06 0)
(3 6.79446e-06 0)
(3 8.35906e-06 0)
(3 1.04012e-05 0)
(3 1.33595e-05 0)
(2.99999 1.76025e-05 0)
(2.99999 2.31696e-05 0)
(2.99999 3.09089e-05 0)
(2.99999 4.23622e-05 0)
(2.99998 5.88178e-05 0)
(2.99997 8.25609e-05 0)
(2.99996 0.00011725 0)
(2.99995 0.000168703 0)
(2.99993 0.000243553 0)
(2.9999 0.000351937 0)
(2.99986 0.000506373 0)
(2.99982 0.000714137 0)
(2.99978 0.000992766 0)
(2.99974 0.00132588 0)
(2.99972 0.00169587 0)
(2.99976 0.00204683 0)
(2.99986 0.00223318 0)
(2.9999 0.00222357 0)
(2.99999 0.00210492 0)
(3.00017 0.00153078 0)
(3 1.20193e-08 0)
(3 1.36671e-08 0)
(3 1.59744e-08 0)
(3 1.89505e-08 0)
(3 2.28282e-08 0)
(3 2.78584e-08 0)
(3 3.43519e-08 0)
(3 4.28671e-08 0)
(3 5.42217e-08 0)
(3 7.03618e-08 0)
(3 9.35125e-08 0)
(3 1.25429e-07 0)
(3 1.70982e-07 0)
(3 2.39137e-07 0)
(3 3.40984e-07 0)
(3 4.94579e-07 0)
(3 7.3135e-07 0)
(3 1.10001e-06 0)
(3 1.67535e-06 0)
(3 2.57291e-06 0)
(3 3.96182e-06 0)
(3 6.06424e-06 0)
(3 9.1537e-06 0)
(3 1.34178e-05 0)
(3 1.88592e-05 0)
(3 2.49979e-05 0)
(3 3.03987e-05 0)
(3 3.2237e-05 0)
(3 3.1675e-05 0)
(3 2.47037e-05 0)
(3 4.78055e-11 0)
(3 5.47826e-11 0)
(3 6.45757e-11 0)
(3 7.72849e-11 0)
(3 9.37735e-11 0)
(3 1.15248e-10 0)
(3 1.43387e-10 0)
(3 1.80776e-10 0)
(3 2.31128e-10 0)
(3 3.01632e-10 0)
(3 4.0189e-10 0)
(3 5.42584e-10 0)
(3 7.45357e-10 0)
(3 1.04824e-09 0)
(3 1.50504e-09 0)
(3 2.20351e-09 0)
(3 3.29141e-09 0)
(3 5.00736e-09 0)
(3 7.73066e-09 0)
(3 1.20645e-08 0)
(3 1.89282e-08 0)
(3 2.96091e-08 0)
(3 4.57966e-08 0)
(3 6.91577e-08 0)
(3 1.00235e-07 0)
(3 1.38253e-07 0)
(3 1.77981e-07 0)
(3 1.99937e-07 0)
(3 1.99642e-07 0)
(3 1.64989e-07 0)
(3 1.45617e-13 0)
(3 1.66537e-13 0)
(3 2.01357e-13 0)
(3 2.44969e-13 0)
(3 2.9602e-13 0)
(3 3.70677e-13 0)
(3 4.6758e-13 0)
(3 5.95812e-13 0)
(3 7.71805e-13 0)
(3 1.01557e-12 0)
(3 1.36316e-12 0)
(3 1.85634e-12 0)
(3 2.56642e-12 0)
(3 3.62909e-12 0)
(3 5.24078e-12 0)
(3 7.71447e-12 0)
(3 1.15877e-11 0)
(3 1.77232e-11 0)
(3 2.75352e-11 0)
(3 4.32831e-11 0)
(3 6.84298e-11 0)
(3 1.07945e-10 0)
(3 1.6855e-10 0)
(3 2.57756e-10 0)
(3 3.7836e-10 0)
(3 5.3137e-10 0)
(3 7.07665e-10 0)
(3 8.29134e-10 0)
(3 8.39432e-10 0)
(3 7.15805e-10 0)
(2.60724 -1.43406 0)
(2.67091 -1.44395 0)
(2.82703 -1.52484 0)
(2.97582 -1.6206 0)
(3.06707 -1.64976 0)
(3.09725 -1.65488 0)
(3.10276 -1.66563 0)
(3.10473 -1.67834 0)
(3.08739 -1.68922 0)
(3.06842 -1.68283 0)
(3.11355 -1.60061 0)
(3.13479 -1.54548 0)
(3.16776 -1.42349 0)
(3.18468 -1.29854 0)
(3.19357 -1.1808 0)
(3.19393 -1.03288 0)
(3.18748 -0.884962 0)
(3.18106 -0.74302 0)
(3.16387 -0.59626 0)
(3.14907 -0.46512 0)
(3.12485 -0.315511 0)
(3.08682 -0.179777 0)
(3.047 -0.0397549 0)
(2.99579 0.12156 0)
(2.9329 0.279913 0)
(2.90181 0.343758 0)
(2.90078 0.335014 0)
(2.91941 0.269769 0)
(2.96693 0.110791 0)
(2.99611 0.0124662 0)
(2.9999 0.000294791 0)
(3 2.25498e-06 0)
(3 1.08139e-08 0)
(3 4.27269e-11 0)
(3 1.28655e-13 0)
(2.60222 -1.40149 0)
(2.67728 -1.4535 0)
(2.84234 -1.53993 0)
(2.99031 -1.62339 0)
(3.07335 -1.64994 0)
(3.10108 -1.6552 0)
(3.10184 -1.67976 0)
(3.10503 -1.68408 0)
(3.08745 -1.69327 0)
(3.08954 -1.63985 0)
(3.11321 -1.58161 0)
(3.13502 -1.50394 0)
(3.16139 -1.37937 0)
(3.17623 -1.25283 0)
(3.18321 -1.13209 0)
(3.18651 -1.00983 0)
(3.18383 -0.876235 0)
(3.17875 -0.757626 0)
(3.16229 -0.611183 0)
(3.14187 -0.477798 0)
(3.11921 -0.324794 0)
(3.08558 -0.170657 0)
(3.046 -0.00775786 0)
(2.98527 0.163949 0)
(2.92332 0.30184 0)
(2.89774 0.348244 0)
(2.89785 0.33615 0)
(2.91992 0.265448 0)
(2.97051 0.0960286 0)
(2.99724 0.00853286 0)
(2.99995 0.000156637 0)
(3 1.13652e-06 0)
(3 5.88244e-09 0)
(3 2.41891e-11 0)
(3 7.4524e-14 0)
(2.58754 -1.40418 0)
(2.66874 -1.45293 0)
(2.83289 -1.53998 0)
(2.98899 -1.61993 0)
(3.07517 -1.64591 0)
(3.10317 -1.65435 0)
(3.09917 -1.68204 0)
(3.10216 -1.68885 0)
(3.08973 -1.69468 0)
(3.09355 -1.60585 0)
(3.08404 -1.62357 0)
(3.12016 -1.46044 0)
(3.14786 -1.39386 0)
(3.16631 -1.26063 0)
(3.17514 -1.16212 0)
(3.17859 -1.04029 0)
(3.17788 -0.903746 0)
(3.17261 -0.778605 0)
(3.16032 -0.621498 0)
(3.14909 -0.464926 0)
(3.1268 -0.309126 0)
(3.09055 -0.126194 0)
(3.03333 0.0510381 0)
(2.96663 0.207753 0)
(2.91163 0.322814 0)
(2.89346 0.35143 0)
(2.89718 0.337953 0)
(2.92263 0.2482 0)
(2.97405 0.0809045 0)
(2.99797 0.00604954 0)
(2.99997 9.75776e-05 0)
(3 6.72318e-07 0)
(3 3.42715e-09 0)
(3 1.39887e-11 0)
(3 4.3856e-14 0)
(2.58373 -1.39625 0)
(2.65905 -1.4522 0)
(2.82773 -1.53906 0)
(2.9918 -1.60798 0)
(3.08075 -1.63038 0)
(3.10291 -1.65441 0)
(3.09518 -1.68782 0)
(3.09433 -1.69797 0)
(3.08697 -1.69566 0)
(3.08755 -1.60137 0)
(3.05681 -1.63997 0)
(3.12221 -1.45884 0)
(3.1379 -1.40872 0)
(3.16183 -1.26782 0)
(3.17544 -1.16745 0)
(3.19346 -1.02973 0)
(3.1956 -0.884371 0)
(3.19895 -0.733866 0)
(3.18459 -0.558715 0)
(3.16382 -0.379346 0)
(3.13062 -0.217027 0)
(3.06344 -0.0414532 0)
(3.00819 0.099061 0)
(2.95047 0.232817 0)
(2.90211 0.335621 0)
(2.88988 0.352614 0)
(2.89436 0.331621 0)
(2.92975 0.22179 0)
(2.97999 0.062582 0)
(2.99866 0.00403607 0)
(2.99998 5.78584e-05 0)
(3 3.87172e-07 0)
(3 1.96078e-09 0)
(3 7.97408e-12 0)
(3 2.61646e-14 0)
(2.5809 -1.39515 0)
(2.65168 -1.45333 0)
(2.82451 -1.54034 0)
(2.99401 -1.59689 0)
(3.08052 -1.6172 0)
(3.09778 -1.65282 0)
(3.09289 -1.68806 0)
(3.08808 -1.7014 0)
(3.08452 -1.69768 0)
(3.08287 -1.59475 0)
(3.05915 -1.63627 0)
(3.12235 -1.45841 0)
(3.14708 -1.40062 0)
(3.17835 -1.24644 0)
(3.19979 -1.13435 0)
(3.21609 -0.970576 0)
(3.20765 -0.809616 0)
(3.18802 -0.634847 0)
(3.15626 -0.4657 0)
(3.12064 -0.29627 0)
(3.07787 -0.138895 0)
(3.0456 -0.0216958 0)
(3.00119 0.0988784 0)
(2.94083 0.24535 0)
(2.89565 0.343896 0)
(2.88737 0.353303 0)
(2.8963 0.319584 0)
(2.93515 0.204813 0)
(2.98382 0.0513019 0)
(2.99911 0.00271389 0)
(2.99999 3.43799e-05 0)
(3 2.21602e-07 0)
(3 1.10889e-09 0)
(3 4.48723e-12 0)
(3 1.61548e-14 0)
(2.5779 -1.39395 0)
(2.64585 -1.45675 0)
(2.81755 -1.54642 0)
(2.99191 -1.59145 0)
(3.07771 -1.60935 0)
(3.09738 -1.64701 0)
(3.09348 -1.67859 0)
(3.08506 -1.69883 0)
(3.08462 -1.69783 0)
(3.09071 -1.58526 0)
(3.07594 -1.62047 0)
(3.14112 -1.4232 0)
(3.16568 -1.34885 0)
(3.18339 -1.19478 0)
(3.19349 -1.07134 0)
(3.18527 -0.898199 0)
(3.17617 -0.74418 0)
(3.15745 -0.578649 0)
(3.14624 -0.462855 0)
(3.11968 -0.299863 0)
(3.08086 -0.154295 0)
(3.03788 -0.0318553 0)
(2.99139 0.116606 0)
(2.9304 0.270006 0)
(2.89014 0.35229 0)
(2.88505 0.355382 0)
(2.89644 0.319692 0)
(2.93875 0.19426 0)
(2.98705 0.0406682 0)
(2.9994 0.00178919 0)
(2.99999 2.01324e-05 0)
(3 1.25426e-07 0)
(3 6.19814e-10 0)
(3 2.49385e-12 0)
(3 1.06132e-14 0)
(2.57273 -1.39363 0)
(2.6429 -1.46329 0)
(2.81581 -1.54639 0)
(2.99059 -1.58865 0)
(3.07695 -1.60434 0)
(3.0995 -1.63885 0)
(3.09952 -1.67066 0)
(3.08538 -1.69257 0)
(3.08636 -1.69253 0)
(3.11422 -1.57882 0)
(3.1097 -1.56716 0)
(3.15961 -1.40165 0)
(3.17002 -1.28658 0)
(3.18347 -1.15501 0)
(3.18246 -1.02584 0)
(3.17929 -0.894139 0)
(3.17505 -0.768979 0)
(3.16387 -0.617343 0)
(3.1394 -0.490227 0)
(3.11427 -0.330815 0)
(3.07649 -0.180599 0)
(3.03316 -0.00923107 0)
(2.97273 0.172923 0)
(2.91424 0.303882 0)
(2.88418 0.360364 0)
(2.88222 0.357202 0)
(2.89518 0.322637 0)
(2.94312 0.175095 0)
(2.98982 0.0307677 0)
(2.99961 0.00112667 0)
(3 1.14645e-05 0)
(3 6.96942e-08 0)
(3 3.41513e-10 0)
(3 1.36873e-12 0)
(3 7.62355e-15 0)
(2.56941 -1.39533 0)
(2.64135 -1.46838 0)
(2.81591 -1.54048 0)
(2.98685 -1.57805 0)
(3.07849 -1.5974 0)
(3.09948 -1.63601 0)
(3.10174 -1.66929 0)
(3.08362 -1.69038 0)
(3.0818 -1.67381 0)
(3.12344 -1.58386 0)
(3.12317 -1.52924 0)
(3.15784 -1.40334 0)
(3.16978 -1.28801 0)
(3.17744 -1.15898 0)
(3.17884 -1.04501 0)
(3.17543 -0.921233 0)
(3.17081 -0.781227 0)
(3.15961 -0.637971 0)
(3.14705 -0.469514 0)
(3.11927 -0.316953 0)
(3.08298 -0.148806 0)
(3.02384 0.046326 0)
(2.96062 0.201117 0)
(2.90448 0.319461 0)
(2.88036 0.363962 0)
(2.88017 0.356994 0)
(2.89675 0.30116 0)
(2.95156 0.146397 0)
(2.9927 0.0219496 0)
(2.99977 0.000677879 0)
(3 6.36979e-06 0)
(3 3.80158e-08 0)
(3 1.85154e-10 0)
(3 7.41697e-13 0)
(3 6.03055e-15 0)
(2.5727 -1.39866 0)
(2.64034 -1.46746 0)
(2.81548 -1.52222 0)
(2.98209 -1.5711 0)
(3.07769 -1.59208 0)
(3.0988 -1.63533 0)
(3.09945 -1.6689 0)
(3.07908 -1.68954 0)
(3.07346 -1.64663 0)
(3.10102 -1.61091 0)
(3.11903 -1.52305 0)
(3.14793 -1.41041 0)
(3.16661 -1.29697 0)
(3.17517 -1.17236 0)
(3.18028 -1.05738 0)
(3.18621 -0.915832 0)
(3.1913 -0.745283 0)
(3.18113 -0.596811 0)
(3.15472 -0.379664 0)
(3.12636 -0.23016 0)
(3.06624 -0.0450226 0)
(3.0126 0.0825373 0)
(2.95302 0.212763 0)
(2.89658 0.333133 0)
(2.87725 0.366679 0)
(2.87893 0.355507 0)
(2.90811 0.278356 0)
(2.95952 0.1248 0)
(2.99483 0.0157493 0)
(2.99986 0.000405206 0)
(3 3.50382e-06 0)
(3 2.04686e-08 0)
(3 9.88671e-11 0)
(3 3.97682e-13 0)
(3 4.28362e-15 0)
(2.57859 -1.40078 0)
(2.64204 -1.46243 0)
(2.81935 -1.50797 0)
(2.98053 -1.57184 0)
(3.07355 -1.59298 0)
(3.09125 -1.64377 0)
(3.0843 -1.67249 0)
(3.06153 -1.68614 0)
(3.07121 -1.63495 0)
(3.07907 -1.62533 0)
(3.11814 -1.51422 0)
(3.14742 -1.40505 0)
(3.17448 -1.29139 0)
(3.1951 -1.15917 0)
(3.20727 -1.02704 0)
(3.21604 -0.843213 0)
(3.1917 -0.650749 0)
(3.16666 -0.48095 0)
(3.11365 -0.294284 0)
(3.07281 -0.134379 0)
(3.02761 0.0117108 0)
(2.99261 0.118519 0)
(2.93456 0.25524 0)
(2.88646 0.35159 0)
(2.87354 0.369238 0)
(2.87656 0.350925 0)
(2.90556 0.27896 0)
(2.96415 0.109531 0)
(2.99633 0.0110047 0)
(2.99992 0.000236647 0)