/*--------------------------------*- C++ -*----------------------------------*\
  =========                 |
  \\      /  F ield         | OpenFOAM: The Open Source CFD Toolbox
   \\    /   O peration     | Website:  https://openfoam.org
    \\  /    A nd           | Version:  7
     \\/     M anipulation  |
\*---------------------------------------------------------------------------*/
FoamFile
{
    version     2.0;
    format      ascii;
    class       volScalarField;
    location    "4.5";
    object      rho;
}
// * * * * * * * * * * * * * * * * * * * * * * * * * * * * * * * * * * * * * //

dimensions      [1 -3 0 0 0 0 0];

internalField   nonuniform List<scalar> 
90000
(
1.22413
1.21849
1.21407
1.21034
1.20604
1.20354
1.20252
1.20146
1.20079
1.20082
1.20167
1.20253
1.20367
1.20476
1.20681
1.20873
1.21106
1.21254
1.21455
1.21621
1.21835
1.21969
1.22124
1.22247
1.22414
1.22506
1.22608
1.22688
1.22817
1.22936
1.231
1.23257
1.23458
1.23654
1.23897
1.24138
1.24383
1.24646
1.25052
1.2542
1.25798
1.26167
1.26511
1.26853
1.27121
1.27435
1.27317
1.26897
1.25994
1.25196
1.24584
1.24357
1.24488
1.2481
1.25276
1.2575
1.26218
1.26563
1.26823
1.26995
1.27107
1.26945
1.26547
1.25799
1.25138
1.24648
1.24667
1.24946
1.25474
1.26082
1.26576
1.27019
1.26928
1.26483
1.25712
1.25314
1.25093
1.2545
1.26007
1.26592
1.26831
1.26616
1.26229
1.26083
1.2618
1.26459
1.26912
1.26957
1.26803
1.26561
1.2657
1.26768
1.27003
1.27089
1.26977
1.26771
1.26704
1.26743
1.26739
1.26746
1.23181
1.23183
1.23196
1.232
1.23201
1.23211
1.23236
1.23248
1.2325
1.23254
1.23274
1.23281
1.23285
1.23303
1.23334
1.23362
1.23429
1.2351
1.23557
1.23604
1.23675
1.23758
1.23845
1.23935
1.24031
1.24153
1.24272
1.24385
1.24497
1.24622
1.24745
1.24857
1.24964
1.25072
1.25187
1.25306
1.2543
1.2557
1.2576
1.25993
1.26257
1.26563
1.26903
1.27252
1.27662
1.28046
1.28483
1.28822
1.29159
1.29313
1.29192
1.28767
1.28193
1.27595
1.27152
1.2684
1.26818
1.26924
1.27136
1.27428
1.27864
1.28268
1.28732
1.28692
1.28412
1.27697
1.27029
1.26545
1.26404
1.26593
1.26967
1.27516
1.28135
1.28481
1.28234
1.27548
1.26895
1.26736
1.26934
1.27339
1.27851
1.28232
1.28056
1.27611
1.27298
1.2745
1.27878
1.28253
1.28154
1.27871
1.27696
1.27779
1.28032
1.28209
1.28184
1.28039
1.27906
1.27861
1.27832
1.27839
1.23567
1.23567
1.2357
1.23575
1.23582
1.23593
1.23615
1.23634
1.23644
1.23651
1.23661
1.23683
1.237
1.23715
1.23732
1.23762
1.23808
1.23861
1.23905
1.23948
1.24003
1.24062
1.2412
1.24181
1.24251
1.2434
1.24448
1.24568
1.24679
1.24795
1.24906
1.25005
1.25101
1.25205
1.25309
1.25425
1.25548
1.25686
1.25841
1.26042
1.26266
1.26545
1.26859
1.27197
1.27595
1.27993
1.28436
1.28857
1.2925
1.29476
1.29648
1.29712
1.29863
1.29953
1.29887
1.29658
1.29344
1.28989
1.28732
1.2871
1.28789
1.28956
1.29183
1.2938
1.29543
1.29624
1.2951
1.29026
1.28424
1.2786
1.27837
1.28032
1.28462
1.2899
1.29525
1.29725
1.29364
1.28694
1.28108
1.28139
1.28451
1.28928
1.29525
1.29395
1.28955
1.28576
1.28669
1.2896
1.29327
1.2923
1.28981
1.28847
1.28959
1.29216
1.29227
1.29153
1.29008
1.28902
1.28828
1.28791
1.2423
1.24226
1.24222
1.24223
1.24228
1.24244
1.24252
1.24251
1.2425
1.24251
1.24259
1.24283
1.24287
1.24289
1.24296
1.24322
1.24337
1.24344
1.24351
1.24369
1.24405
1.24425
1.24435
1.24451
1.24472
1.24495
1.24525
1.24542
1.24574
1.24622
1.24676
1.24731
1.24795
1.2487
1.24978
1.2513
1.25289
1.25457
1.25616
1.25789
1.25971
1.26179
1.26398
1.26651
1.26925
1.27263
1.27609
1.28049
1.28492
1.28887
1.29375
1.29676
1.29872
1.30012
1.30013
1.30012
1.30001
1.29942
1.29953
1.29915
1.2985
1.29776
1.29686
1.2972
1.29802
1.2991
1.30012
1.3016
1.30078
1.29681
1.29225
1.28861
1.28886
1.29091
1.2955
1.29838
1.3019
1.30188
1.29847
1.29404
1.2914
1.29271
1.29613
1.29928
1.30139
1.29863
1.29447
1.29469
1.29688
1.30063
1.29972
1.29714
1.29582
1.29726
1.29989
1.29941
1.29802
1.29631
1.29572
1.29499
1.24848
1.24847
1.24848
1.24858
1.24864
1.24863
1.24861
1.24853
1.2484
1.24838
1.2484
1.24846
1.24867
1.24886
1.24892
1.24891
1.24888
1.24887
1.24886
1.24889
1.24892
1.24889
1.24889
1.24894
1.24893
1.24883
1.24871
1.2487
1.24875
1.24882
1.24892
1.24909
1.24936
1.24974
1.25003
1.25013
1.25039
1.25085
1.25163
1.25261
1.25377
1.25506
1.2564
1.258
1.25963
1.26178
1.26411
1.26713
1.2704
1.27417
1.27826
1.28283
1.28708
1.29042
1.29422
1.29638
1.29844
1.29963
1.30042
1.30095
1.30123
1.30146
1.30145
1.30121
1.30074
1.30062
1.30085
1.30184
1.30287
1.30364
1.30306
1.30054
1.29744
1.29481
1.29559
1.29729
1.3017
1.30344
1.30506
1.30414
1.30086
1.29698
1.29727
1.29908
1.30151
1.30328
1.30204
1.29967
1.2997
1.30122
1.30354
1.30318
1.30146
1.30073
1.3018
1.3039
1.3034
1.30155
1.29993
1.29901
1.25281
1.2528
1.2528
1.2528
1.25282
1.25287
1.2529
1.25289
1.2527
1.25259
1.25259
1.25267
1.25291
1.253
1.25298
1.25281
1.25261
1.25259
1.25261
1.25263
1.25258
1.25241
1.25237
1.25241
1.25242
1.25236
1.25217
1.25202
1.25189
1.2517
1.25137
1.25127
1.25125
1.25123
1.2511
1.25092
1.25089
1.25099
1.25102
1.25105
1.25102
1.25104
1.25122
1.25163
1.2523
1.25332
1.25461
1.25635
1.25827
1.2608
1.26331
1.2669
1.27041
1.27475
1.27933
1.28368
1.28886
1.29239
1.29605
1.29783
1.30008
1.30114
1.30118
1.30105
1.30045
1.30044
1.30079
1.30154
1.30289
1.30391
1.30425
1.30416
1.30344
1.30148
1.29861
1.29902
1.30013
1.30278
1.30497
1.30571
1.30553
1.30327
1.30003
1.29991
1.30073
1.30306
1.30409
1.3035
1.30219
1.30218
1.30337
1.30484
1.30459
1.30334
1.30297
1.30396
1.30525
1.30467
1.30299
1.30114
1.25732
1.25729
1.25723
1.25705
1.25695
1.25694
1.25696
1.25702
1.25702
1.25699
1.25692
1.2568
1.25677
1.25677
1.25675
1.25664
1.25635
1.25598
1.25591
1.25588
1.25581
1.25557
1.25522
1.25513
1.25511
1.25507
1.2549
1.25461
1.25425
1.25396
1.25359
1.25324
1.25297
1.25278
1.25256
1.25221
1.25179
1.25141
1.25113
1.25089
1.25064
1.25047
1.25033
1.2501
1.24989
1.24989
1.24998
1.25026
1.25088
1.25178
1.2529
1.25441
1.2562
1.2587
1.26143
1.26565
1.26982
1.27502
1.28034
1.28489
1.28985
1.29277
1.29627
1.2976
1.29854
1.29954
1.30126
1.30225
1.30292
1.30347
1.30383
1.30394
1.30388
1.304
1.30338
1.30233
1.30129
1.3016
1.30274
1.30485
1.30533
1.30514
1.30363
1.30173
1.30142
1.302
1.30362
1.30424
1.304
1.30338
1.30361
1.30456
1.30512
1.30476
1.30396
1.30407
1.30496
1.30552
1.30488
1.30277
1.25957
1.25956
1.25954
1.2595
1.25948
1.25948
1.25954
1.25959
1.25959
1.25954
1.25946
1.25944
1.25941
1.25935
1.25928
1.25919
1.25906
1.2588
1.25847
1.25826
1.25814
1.258
1.25771
1.25733
1.25708
1.25693
1.25675
1.25645
1.25607
1.25574
1.25543
1.25504
1.2546
1.25423
1.25394
1.25355
1.25306
1.25255
1.25205
1.25159
1.25113
1.25059
1.25004
1.24961
1.2494
1.24938
1.24939
1.24934
1.24929
1.24924
1.2492
1.24911
1.24923
1.24956
1.25025
1.25173
1.25373
1.25707
1.2609
1.26655
1.27238
1.27875
1.28565
1.29049
1.296
1.29822
1.30019
1.30102
1.30186
1.30181
1.30195
1.30227
1.30299
1.30401
1.30478
1.30453
1.30329
1.3019
1.30192
1.30242
1.30378
1.30475
1.30454
1.30384
1.30266
1.30216
1.30258
1.30376
1.30401
1.30393
1.30384
1.30407
1.3048
1.30496
1.30466
1.30425
1.30451
1.3053
1.30547
1.30416
1.25923
1.25922
1.25921
1.2592
1.2592
1.25921
1.25926
1.25926
1.25925
1.25925
1.25927
1.25927
1.25927
1.25924
1.25918
1.25911
1.25899
1.2588
1.25862
1.25852
1.25843
1.2583
1.25808
1.25789
1.25782
1.25778
1.25771
1.25753
1.25732
1.25715
1.257
1.25678
1.25651
1.25623
1.25596
1.25564
1.25524
1.25481
1.2544
1.2539
1.25315
1.25222
1.25131
1.25053
1.24993
1.24951
1.24917
1.24896
1.24879
1.24865
1.24849
1.24824
1.24788
1.24776
1.24775
1.2477
1.24781
1.24822
1.24909
1.25129
1.25451
1.26021
1.26648
1.27391
1.28113
1.28651
1.29185
1.29365
1.29624
1.29767
1.29988
1.30169
1.30344
1.30399
1.30437
1.30421
1.30379
1.30301
1.3021
1.30217
1.30236
1.30314
1.30389
1.3038
1.30361
1.30298
1.30274
1.30292
1.30348
1.30367
1.30376
1.30388
1.30419
1.30469
1.3048
1.3045
1.30451
1.30482
1.30532
1.30482
1.2579
1.25787
1.25786
1.25786
1.25787
1.25788
1.25786
1.2578
1.25768
1.25759
1.25757
1.25758
1.25757
1.25748
1.25715
1.25705
1.25705
1.25701
1.25693
1.25681
1.25657
1.25629
1.25613
1.25608
1.25604
1.25596
1.25576
1.25547
1.25535
1.25529
1.25519
1.25502
1.25486
1.25471
1.25451
1.2543
1.25408
1.25388
1.25366
1.25344
1.25317
1.25281
1.25236
1.25187
1.25137
1.25085
1.25026
1.24972
1.24927
1.24883
1.24842
1.2481
1.24768
1.24746
1.24743
1.24736
1.24732
1.24722
1.24711
1.24721
1.24763
1.24914
1.25187
1.25687
1.26248
1.26987
1.27669
1.28302
1.28897
1.29327
1.29836
1.30029
1.30232
1.30244
1.30207
1.302
1.30256
1.303
1.30285
1.3025
1.30208
1.30213
1.3026
1.30325
1.30364
1.30357
1.30313
1.30275
1.30282
1.30314
1.30339
1.30357
1.30383
1.30425
1.30465
1.30455
1.30447
1.30469
1.30511
1.30515
1.25557
1.25556
1.25556
1.25555
1.25554
1.25554
1.25554
1.25547
1.25538
1.25538
1.25538
1.25536
1.25528
1.25509
1.25502
1.255
1.25499
1.255
1.255
1.25489
1.2546
1.25443
1.25439
1.25438
1.25432
1.2541
1.25377
1.25365
1.25365
1.25363
1.25353
1.25343
1.25343
1.25341
1.2533
1.25319
1.25318
1.25319
1.25324
1.25324
1.25319
1.25308
1.25297
1.25283
1.25259
1.25227
1.2519
1.25149
1.2511
1.25065
1.25012
1.24972
1.24933
1.24873
1.24846
1.24856
1.24867
1.24861
1.24825
1.24785
1.24789
1.24792
1.24825
1.24917
1.25102
1.25452
1.2586
1.26491
1.27158
1.27855
1.28557
1.28989
1.29527
1.29666
1.29853
1.30025
1.30278
1.30329
1.30324
1.3029
1.30241
1.302
1.30214
1.3026
1.3034
1.30348
1.30332
1.30296
1.30275
1.3028
1.30298
1.30328
1.30355
1.30387
1.30434
1.30441
1.30444
1.30463
1.30498
1.30522
1.25344
1.25346
1.25347
1.25348
1.25347
1.25342
1.25338
1.2534
1.25343
1.25341
1.2533
1.25328
1.25328
1.25322
1.2532
1.25326
1.25332
1.25331
1.25323
1.25298
1.25282
1.25283
1.25283
1.25282
1.25273
1.25251
1.2523
1.25225
1.25227
1.25226
1.25217
1.25209
1.2521
1.25211
1.25207
1.25205
1.25208
1.25218
1.25231
1.25239
1.25239
1.25239
1.25241
1.25253
1.25277
1.25285
1.25279
1.25268
1.25255
1.2523
1.25197
1.25167
1.25143
1.25107
1.25079
1.25083
1.251
1.25095
1.2505
1.24956
1.24879
1.2485
1.24852
1.2489
1.24954
1.25022
1.25097
1.25295
1.25577
1.26139
1.26775
1.27609
1.28423
1.29015
1.29694
1.29923
1.30181
1.3022
1.3019
1.30175
1.30221
1.30265
1.30286
1.30295
1.30306
1.30319
1.30324
1.30322
1.30309
1.30295
1.30301
1.30312
1.30335
1.30358
1.3039
1.30421
1.3045
1.30471
1.30497
1.30527
1.25117
1.25125
1.25132
1.25137
1.25139
1.2514
1.25142
1.25147
1.25148
1.25147
1.25144
1.25143
1.25146
1.25147
1.25145
1.25148
1.25154
1.25153
1.25147
1.25125
1.25118
1.2512
1.25118
1.25105
1.25087
1.25077
1.25074
1.25069
1.25071
1.25076
1.25076
1.25069
1.25067
1.25069
1.25074
1.25078
1.25086
1.25101
1.25118
1.25134
1.25153
1.25174
1.25199
1.25236
1.25276
1.25309
1.25329
1.25335
1.25333
1.25321
1.25297
1.25275
1.25272
1.25279
1.25311
1.25365
1.25408
1.25425
1.25416
1.25365
1.25258
1.2514
1.25073
1.25069
1.2507
1.25081
1.2512
1.25119
1.25116
1.25183
1.25385
1.25905
1.26535
1.27392
1.28178
1.28735
1.29363
1.29603
1.29891
1.30089
1.30341
1.3037
1.30359
1.30323
1.30297
1.30312
1.3035
1.30376
1.30361
1.30334
1.30317
1.30338
1.30372
1.30389
1.30408
1.3044
1.30482
1.30499
1.30516
1.3056
1.25073
1.25073
1.25075
1.25079
1.25085
1.25092
1.25098
1.25103
1.25108
1.25113
1.25118
1.2512
1.25126
1.25134
1.25136
1.25139
1.25141
1.25139
1.25134
1.25123
1.25116
1.25111
1.25102
1.25089
1.25076
1.25064
1.25053
1.25038
1.2502
1.25002
1.24984
1.24966
1.24959
1.24955
1.24951
1.2495
1.24952
1.24963
1.24982
1.25003
1.25027
1.25057
1.25093
1.2514
1.25197
1.25271
1.25357
1.25407
1.25413
1.2541
1.25389
1.25346
1.25326
1.25341
1.25393
1.25463
1.2552
1.25567
1.25605
1.25594
1.25552
1.25485
1.25392
1.25314
1.25264
1.25224
1.25191
1.2515
1.25119
1.25085
1.2509
1.25174
1.2539
1.25864
1.26423
1.27261
1.28085
1.28849
1.29734
1.30015
1.30285
1.30309
1.30265
1.30262
1.30321
1.30385
1.30408
1.30398
1.30388
1.30386
1.30396
1.30415
1.30421
1.30421
1.3043
1.30464
1.3051
1.30537
1.30563
1.30614
1.25092
1.25092
1.25093
1.25096
1.251
1.25105
1.2511
1.25115
1.2512
1.25126
1.25134
1.25141
1.25149
1.25156
1.25161
1.25164
1.25168
1.25176
1.25181
1.25179
1.25171
1.25167
1.25166
1.25165
1.25164
1.2516
1.25153
1.25144
1.25136
1.25127
1.25116
1.25103
1.25084
1.25061
1.25037
1.25025
1.25023
1.25022
1.25026
1.25039
1.25062
1.25092
1.2513
1.25179
1.25246
1.25332
1.2542
1.25493
1.25528
1.25526
1.2551
1.25474
1.25427
1.25409
1.25429
1.25478
1.25534
1.2558
1.25618
1.25673
1.25702
1.25698
1.25663
1.25579
1.25496
1.25447
1.25406
1.25357
1.25299
1.25216
1.25161
1.25167
1.25199
1.2527
1.25436
1.25824
1.26352
1.27234
1.28123
1.28847
1.29566
1.29796
1.30051
1.30243
1.30458
1.30477
1.30463
1.30429
1.30446
1.30488
1.30516
1.30505
1.3049
1.30491
1.30508
1.30532
1.30559
1.3059
1.30631
1.30697
1.25251
1.25251
1.25251
1.25252
1.25254
1.25254
1.25253
1.25253
1.25257
1.25268
1.25284
1.25297
1.25303
1.25306
1.25309
1.25311
1.25314
1.25318
1.25317
1.25315
1.25317
1.25326
1.25335
1.2534
1.2535
1.25359
1.2536
1.25363
1.25379
1.25386
1.25385
1.25375
1.25357
1.25337
1.25299
1.25252
1.25226
1.25208
1.25192
1.25184
1.2518
1.25182
1.25196
1.2523
1.25292
1.25366
1.25434
1.25497
1.25534
1.25532
1.25515
1.25492
1.25462
1.25429
1.25433
1.25466
1.25504
1.25538
1.25596
1.25681
1.25713
1.25712
1.257
1.25663
1.25616
1.25604
1.25595
1.25572
1.2554
1.25483
1.25393
1.25315
1.25315
1.25351
1.25364
1.25394
1.25516
1.25887
1.26434
1.27363
1.28245
1.29079
1.29906
1.30184
1.30424
1.30428
1.30409
1.3046
1.30554
1.30605
1.30589
1.30571
1.30573
1.30597
1.30622
1.30616
1.3062
1.30649
1.30707
1.30785
1.25459
1.25463
1.25473
1.25482
1.25482
1.25483
1.2549
1.25494
1.25491
1.2549
1.25495
1.25492
1.2549
1.2549
1.25491
1.25496
1.255
1.25497
1.25487
1.25483
1.25483
1.25492
1.2551
1.25522
1.25528
1.25545
1.25577
1.25609
1.25635
1.25651
1.2566
1.25663
1.25662
1.25652
1.25624
1.2558
1.25528
1.25479
1.25439
1.25406
1.25368
1.25338
1.25335
1.25351
1.25398
1.25441
1.25473
1.25514
1.25561
1.25574
1.25563
1.2554
1.25523
1.25506
1.25503
1.25509
1.25505
1.25505
1.25531
1.25608
1.25686
1.25702
1.25697
1.25674
1.25659
1.2566
1.25666
1.25682
1.25715
1.25733
1.25717
1.25664
1.25605
1.25565
1.25513
1.25483
1.25481
1.25509
1.25631
1.25994
1.2655
1.27473
1.28349
1.29133
1.29792
1.30015
1.30315
1.30566
1.30651
1.30645
1.30638
1.30661
1.30712
1.30742
1.30733
1.30703
1.307
1.30729
1.30787
1.30872
1.25712
1.25711
1.25714
1.25734
1.25743
1.25743
1.25745
1.25746
1.25739
1.25725
1.25724
1.25726
1.25723
1.25719
1.25718
1.25721
1.2572
1.25714
1.25713
1.25714
1.25716
1.2572
1.25725
1.25728
1.25732
1.25761
1.25839
1.25861
1.25862
1.25873
1.2591
1.25936
1.25938
1.25931
1.25912
1.25883
1.25841
1.25795
1.25751
1.25706
1.25652
1.25604
1.25591
1.25603
1.25621
1.25617
1.256
1.25595
1.25614
1.25629
1.25617
1.25583
1.2558
1.2559
1.25588
1.25559
1.25522
1.25516
1.25523
1.25565
1.25635
1.25669
1.25669
1.2567
1.25684
1.25702
1.2572
1.25746
1.2578
1.25828
1.25877
1.25872
1.25853
1.25818
1.2576
1.25683
1.25583
1.25577
1.25591
1.2563
1.25736
1.26089
1.26706
1.27656
1.2861
1.29475
1.3023
1.30505
1.30622
1.30564
1.30604
1.3076
1.30846
1.30848
1.30816
1.30788
1.30799
1.30832
1.30865
1.30937
1.25968
1.25967
1.25965
1.25966
1.25971
1.25979
1.25983
1.25982
1.25974
1.25951
1.2593
1.25924
1.25924
1.25924
1.25923
1.25913
1.25878
1.25857
1.25857
1.25864
1.25864
1.25847
1.2583
1.25824
1.25827
1.25866
1.25936
1.2595
1.25956
1.25973
1.26013
1.26063
1.26089
1.26094
1.26093
1.26083
1.26055
1.26011
1.25955
1.25903
1.2587
1.25858
1.25857
1.25852
1.25844
1.25825
1.25775
1.25745
1.25744
1.25735
1.25693
1.25675
1.25682
1.25706
1.25709
1.25678
1.25624
1.25605
1.25608
1.25632
1.25674
1.25695
1.25704
1.25721
1.25748
1.25789
1.25821
1.25835
1.25838
1.25849
1.25884
1.25901
1.25899
1.25895
1.25888
1.25872
1.25829
1.2579
1.25743
1.25735
1.25769
1.25794
1.25916
1.2628
1.26931
1.27897
1.28857
1.29559
1.30109
1.30348
1.30639
1.3089
1.30906
1.30892
1.30881
1.30908
1.30933
1.30934
1.30938
1.30991
1.26118
1.26114
1.26103
1.26089
1.26086
1.26088
1.26096
1.26096
1.26078
1.26031
1.26014
1.26012
1.26014
1.26023
1.26022
1.26001
1.25975
1.25954
1.25951
1.25956
1.25951
1.25932
1.25911
1.25897
1.25894
1.25905
1.25936
1.25942
1.25941
1.2594
1.2595
1.25979
1.26012
1.26026
1.26027
1.2602
1.26003
1.25973
1.25921
1.25902
1.25907
1.25927
1.25956
1.25969
1.25974
1.25969
1.25935
1.25869
1.25827
1.25813
1.25814
1.25839
1.25892
1.2592
1.25918
1.25894
1.25848
1.25821
1.25828
1.25857
1.25868
1.25861
1.25832
1.25821
1.25825
1.25848
1.25875
1.25876
1.25861
1.25849
1.25864
1.25897
1.25902
1.25904
1.25908
1.25922
1.25957
1.25976
1.25964
1.25927
1.25875
1.25849
1.25854
1.2589
1.26047
1.2649
1.27207
1.28229
1.29189
1.30113
1.30569
1.30821
1.30864
1.30842
1.30943
1.30994
1.31002
1.30985
1.30991
1.31057
1.26231
1.26222
1.26217
1.26207
1.26174
1.26156
1.26157
1.26161
1.26153
1.26114
1.26089
1.26088
1.26091
1.26091
1.26085
1.26056
1.26032
1.26035
1.26042
1.26034
1.26011
1.25999
1.25998
1.26002
1.25996
1.25973
1.25965
1.25965
1.25964
1.25957
1.25946
1.25946
1.2595
1.25942
1.25919
1.25887
1.25854
1.25848
1.2585
1.25861
1.25884
1.25937
1.26028
1.26089
1.26105
1.26104
1.26079
1.25998
1.25915
1.259
1.25912
1.25956
1.26039
1.26092
1.26099
1.26079
1.26043
1.26039
1.26058
1.26093
1.26086
1.26059
1.26008
1.2596
1.25946
1.25946
1.25951
1.25949
1.25924
1.25879
1.25869
1.25881
1.25909
1.25931
1.25943
1.25956
1.25983
1.2601
1.26028
1.26029
1.2602
1.25991
1.2595
1.25951
1.25959
1.26001
1.26197
1.26699
1.27559
1.28549
1.29491
1.30051
1.30513
1.30761
1.31038
1.31042
1.31021
1.31018
1.31058
1.31145
1.26134
1.26122
1.26088
1.26075
1.2607
1.26066
1.26064
1.2607
1.26088
1.26085
1.26049
1.26006
1.26
1.26007
1.26015
1.26016
1.26019
1.26027
1.26028
1.26014
1.25993
1.25999
1.26051
1.26108
1.26117
1.26118
1.26115
1.26106
1.2609
1.26045
1.25999
1.25993
1.25987
1.25962
1.25906
1.2585
1.25834
1.2583
1.25832
1.25856
1.25927
1.26069
1.26191
1.26209
1.26205
1.26193
1.26155
1.26073
1.26029
1.26034
1.26053
1.26093
1.26158
1.26196
1.26194
1.26149
1.26072
1.26044
1.26052
1.26098
1.26147
1.26153
1.26142
1.26097
1.26058
1.26051
1.26053
1.26062
1.26056
1.26028
1.25981
1.25955
1.25955
1.25962
1.25972
1.25978
1.25986
1.25998
1.26019
1.2603
1.26035
1.26044
1.26055
1.26052
1.26026
1.26029
1.26036
1.26096
1.26368
1.27009
1.27981
1.28978
1.30057
1.30659
1.30957
1.30954
1.30931
1.30997
1.31119
1.31195
1.25951
1.2594
1.259
1.25884
1.25881
1.25878
1.25879
1.25892
1.25893
1.25863
1.25824
1.25806
1.25801
1.25807
1.25834
1.2587
1.25896
1.25927
1.25942
1.25941
1.25939
1.25956
1.26023
1.26142
1.26256
1.26314
1.26341
1.26354
1.26352
1.26321
1.26233
1.26196
1.26193
1.26179
1.2612
1.26006
1.25952
1.25947
1.25951
1.25983
1.26094
1.26279
1.26331
1.26332
1.26311
1.26216
1.2612
1.261
1.26104
1.26118
1.26141
1.26212
1.26291
1.26315
1.26303
1.2622
1.26076
1.26014
1.26008
1.26048
1.26164
1.26228
1.26233
1.26209
1.26142
1.26099
1.26102
1.26129
1.26156
1.2615
1.26119
1.26074
1.26043
1.26029
1.26021
1.26013
1.26002
1.25998
1.26003
1.26015
1.26029
1.2605
1.26066
1.26077
1.26082
1.26079
1.26083
1.26117
1.26143
1.26284
1.26634
1.27444
1.28374
1.29391
1.30083
1.3045
1.3079
1.31108
1.31179
1.3118
1.25796
1.25815
1.25807
1.25755
1.25734
1.25735
1.25742
1.25738
1.25719
1.25705
1.25705
1.25705
1.25706
1.25703
1.25687
1.25685
1.25704
1.25757
1.25812
1.25834
1.25841
1.25854
1.25895
1.25988
1.26132
1.26259
1.26317
1.26334
1.26335
1.26309
1.26221
1.26181
1.26182
1.26188
1.2617
1.26109
1.26038
1.26
1.25998
1.26023
1.2614
1.26257
1.26272
1.26268
1.26217
1.26068
1.26003
1.26003
1.26033
1.26073
1.26105
1.26202
1.2632
1.26347
1.26333
1.26255
1.26094
1.25968
1.2595
1.25983
1.26136
1.26304
1.26347
1.26331
1.26258
1.26173
1.26154
1.26174
1.26208
1.26217
1.26204
1.26172
1.2614
1.2611
1.26087
1.26071
1.26051
1.26021
1.26015
1.26019
1.26027
1.26045
1.26062
1.26075
1.26091
1.26109
1.2613
1.26146
1.26164
1.26184
1.26254
1.26481
1.26982
1.27888
1.28832
1.29914
1.30641
1.31041
1.31052
1.31068
1.25657
1.25638
1.25598
1.25547
1.25501
1.2549
1.2549
1.2548
1.25443
1.25429
1.25438
1.25443
1.25425
1.25375
1.25291
1.25234
1.25202
1.2519
1.25229
1.25296
1.25302
1.25293
1.25315
1.25392
1.25461
1.25503
1.25543
1.25589
1.25643
1.25687
1.25716
1.25777
1.25911
1.26038
1.26071
1.26058
1.26008
1.25924
1.25878
1.25904
1.25954
1.25943
1.25963
1.2601
1.26014
1.25975
1.25903
1.25857
1.25844
1.25871
1.25913
1.2599
1.26141
1.26248
1.26286
1.26292
1.26263
1.26159
1.26027
1.26004
1.26072
1.26228
1.2634
1.26342
1.26306
1.26271
1.26237
1.26202
1.26176
1.26172
1.26185
1.26204
1.26202
1.26186
1.26163
1.26141
1.2612
1.26084
1.2605
1.26045
1.26051
1.26066
1.2608
1.26097
1.26115
1.26139
1.26164
1.26164
1.26163
1.26171
1.26185
1.26221
1.26358
1.26679
1.27375
1.28302
1.29292
1.30153
1.30554
1.30952
1.25114
1.25114
1.25114
1.25112
1.25091
1.25077
1.25087
1.25148
1.25177
1.25178
1.25164
1.25102
1.25067
1.25066
1.25096
1.2514
1.25137
1.25086
1.2501
1.24961
1.24928
1.24883
1.24788
1.24686
1.24648
1.24602
1.24539
1.24526
1.24526
1.24545
1.24638
1.24856
1.25143
1.2533
1.25388
1.25377
1.25315
1.25237
1.25202
1.25211
1.25261
1.25345
1.25463
1.256
1.25693
1.25727
1.2573
1.25676
1.25569
1.25546
1.25555
1.25593
1.25701
1.25907
1.26137
1.26246
1.2624
1.26185
1.26103
1.2604
1.26033
1.26089
1.26194
1.26276
1.2628
1.26264
1.26264
1.26243
1.26162
1.26101
1.26101
1.26124
1.26147
1.26151
1.26153
1.26157
1.26158
1.26154
1.26137
1.26134
1.26141
1.26147
1.26142
1.26135
1.2614
1.26154
1.26162
1.26157
1.26154
1.26156
1.2616
1.26172
1.26204
1.26297
1.26524
1.27005
1.27858
1.2885
1.2995
1.3085
1.25244
1.25321
1.25383
1.25432
1.25441
1.25433
1.2543
1.25449
1.25463
1.25462
1.25455
1.25383
1.25334
1.25331
1.25305
1.25259
1.25259
1.25307
1.25394
1.25393
1.25337
1.25242
1.25084
1.24823
1.24634
1.24578
1.24564
1.24564
1.24576
1.2462
1.24719
1.24882
1.25046
1.25124
1.25101
1.2504
1.25029
1.25049
1.25047
1.25051
1.25123
1.25246
1.25344
1.25472
1.25654
1.25705
1.25698
1.25616
1.25378
1.25224
1.2523
1.25227
1.2521
1.25261
1.25432
1.25656
1.2586
1.25961
1.25982
1.25982
1.25907
1.25868
1.25879
1.25891
1.25944
1.26089
1.2621
1.26214
1.2616
1.26078
1.26065
1.26086
1.26123
1.26151
1.26178
1.26192
1.26198
1.26204
1.26209
1.26224
1.26227
1.26224
1.26214
1.26197
1.26184
1.26178
1.26166
1.2615
1.26128
1.2612
1.26128
1.26144
1.26168
1.26207
1.26267
1.26408
1.26717
1.27416
1.28289
1.29667
1.25856
1.26082
1.26338
1.26377
1.26338
1.26235
1.26218
1.26306
1.26398
1.26426
1.26482
1.26583
1.26643
1.2664
1.26566
1.26421
1.26427
1.26531
1.2654
1.26385
1.26194
1.26153
1.26126
1.26068
1.26033
1.26024
1.26041
1.26059
1.26061
1.26061
1.26027
1.25843
1.25482
1.2511
1.24909
1.24876
1.24883
1.25016
1.25146
1.25168
1.2524
1.25348
1.25391
1.25427
1.25504
1.25544
1.25526
1.25475
1.25366
1.25247
1.25155
1.25039
1.2496
1.24962
1.24989
1.25033
1.25132
1.25279
1.2535
1.25373
1.25389
1.25416
1.25432
1.25439
1.25492
1.25623
1.25788
1.25943
1.26045
1.26055
1.26051
1.26064
1.26106
1.26149
1.26176
1.26188
1.26194
1.26202
1.26208
1.26224
1.26234
1.26228
1.26228
1.26234
1.26237
1.26232
1.26211
1.2618
1.26147
1.26121
1.26113
1.26121
1.26151
1.26189
1.26222
1.26239
1.26293
1.26492
1.26937
1.28304
1.27376
1.27337
1.27298
1.27296
1.2731
1.27351
1.27391
1.27384
1.27259
1.27126
1.27106
1.2714
1.27259
1.2724
1.27006
1.26819
1.2689
1.26955
1.2685
1.26563
1.26393
1.26343
1.26515
1.26936
1.2709
1.2703
1.27
1.27178
1.27533
1.27596
1.27557
1.27323
1.26835
1.26266
1.25829
1.25806
1.25948
1.26011
1.25983
1.25809
1.25738
1.25666
1.25392
1.25222
1.25202
1.25234
1.25409
1.25471
1.25486
1.25514
1.25589
1.25661
1.2559
1.25348
1.25152
1.25146
1.25243
1.25314
1.25303
1.25288
1.25289
1.2535
1.25479
1.25514
1.25465
1.25376
1.25368
1.25417
1.2553
1.25678
1.25777
1.25788
1.258
1.25843
1.25904
1.25975
1.26042
1.26122
1.2618
1.26191
1.26211
1.26229
1.26233
1.26246
1.26251
1.26237
1.26202
1.26174
1.26162
1.26147
1.26136
1.2614
1.26164
1.2618
1.26178
1.26169
1.26176
1.26213
1.26328
1.27053
1.33882
1.33738
1.33624
1.33513
1.33271
1.33127
1.33065
1.32797
1.32448
1.32424
1.32411
1.32276
1.32221
1.3219
1.32002
1.3152
1.31461
1.31408
1.30745
1.29988
1.29923
1.29838
1.29545
1.29412
1.29292
1.29002
1.28897
1.2901
1.29243
1.29182
1.28947
1.28984
1.28934
1.28598
1.28526
1.28704
1.2907
1.29208
1.29227
1.2915
1.28802
1.28215
1.27661
1.27101
1.26449
1.26243
1.26361
1.26439
1.26291
1.26236
1.26386
1.26452
1.2631
1.26141
1.26166
1.26245
1.26241
1.26001
1.25542
1.25405
1.25399
1.25444
1.25586
1.25695
1.25659
1.25513
1.2539
1.25321
1.25294
1.25302
1.25353
1.25424
1.25448
1.25466
1.25512
1.25637
1.2579
1.25915
1.26013
1.26087
1.26151
1.26218
1.26248
1.2625
1.26239
1.26218
1.26227
1.26231
1.26226
1.26204
1.2618
1.26178
1.26179
1.26173
1.26159
1.26142
1.26146
1.26157
1.26176
1.2642
1.38892
1.39043
1.39111
1.39045
1.38849
1.38592
1.37911
1.37139
1.37059
1.37129
1.37123
1.36969
1.36764
1.36747
1.36926
1.37093
1.37023
1.36501
1.36189
1.36201
1.36504
1.36681
1.36642
1.36229
1.35453
1.3532
1.35343
1.35338
1.3526
1.35065
1.34697
1.34244
1.33759
1.32987
1.32144
1.31934
1.31919
1.31787
1.3152
1.31384
1.30991
1.30536
1.30629
1.30719
1.30464
1.30157
1.30142
1.30036
1.29677
1.29202
1.28464
1.27379
1.26686
1.26603
1.26785
1.27267
1.27516
1.27521
1.27347
1.26741
1.25995
1.25756
1.25764
1.25837
1.26018
1.26061
1.2594
1.25644
1.25425
1.25415
1.25455
1.25508
1.25544
1.25587
1.25634
1.25654
1.25699
1.25719
1.2571
1.2572
1.25751
1.25812
1.25911
1.2601
1.26095
1.26181
1.26269
1.26273
1.26263
1.26236
1.26211
1.26205
1.26198
1.26188
1.26177
1.26157
1.26154
1.26159
1.26154
1.26185
1.47755
1.47653
1.46983
1.46586
1.46622
1.46651
1.46541
1.46297
1.459
1.45218
1.44934
1.44832
1.44688
1.44402
1.44304
1.44344
1.44272
1.43643
1.43288
1.43263
1.43075
1.42791
1.4276
1.42661
1.42229
1.4174
1.41426
1.41135
1.41105
1.41149
1.40967
1.40508
1.40511
1.40452
1.39955
1.39339
1.39054
1.38862
1.38585
1.38225
1.37754
1.36959
1.35935
1.35328
1.35079
1.34649
1.3413
1.34031
1.34312
1.34516
1.3422
1.32865
1.31821
1.31512
1.31082
1.3024
1.29684
1.29701
1.2979
1.29466
1.28867
1.28447
1.27821
1.27178
1.27082
1.27202
1.27221
1.26982
1.26372
1.26009
1.26028
1.26052
1.25998
1.25891
1.25745
1.25634
1.25584
1.25514
1.25458
1.25452
1.25462
1.25507
1.25623
1.25745
1.25853
1.2596
1.26073
1.2612
1.26134
1.26145
1.26155
1.26186
1.26197
1.26188
1.26182
1.26183
1.26196
1.26212
1.26208
1.26209
1.55227
1.5503
1.54764
1.54433
1.54246
1.5424
1.54246
1.54113
1.5351
1.53131
1.53143
1.53187
1.53154
1.52869
1.52758
1.52734
1.52639
1.52427
1.51891
1.51641
1.51654
1.51617
1.51429
1.50876
1.50383
1.50183
1.50039
1.49766
1.49224
1.48734
1.48489
1.48329
1.48198
1.47887
1.46847
1.46068
1.45884
1.45717
1.45248
1.44864
1.44624
1.44267
1.43275
1.42696
1.42594
1.4218
1.41629
1.41236
1.40598
1.39837
1.39145
1.37946
1.37122
1.37075
1.3692
1.36154
1.35428
1.35034
1.34067
1.32358
1.32012
1.32044
1.31787
1.31247
1.3024
1.29023
1.28756
1.28659
1.28361
1.27535
1.26956
1.2683
1.26665
1.26335
1.2597
1.25743
1.25647
1.25584
1.25541
1.25558
1.25654
1.25821
1.25972
1.2594
1.25887
1.25868
1.25865
1.25878
1.25894
1.25915
1.25966
1.26084
1.26183
1.26193
1.26195
1.26211
1.26225
1.2624
1.26255
1.26251
1.64102
1.64002
1.63818
1.63337
1.62993
1.62999
1.63014
1.62871
1.62513
1.62451
1.62366
1.6187
1.6161
1.61556
1.61487
1.61292
1.60782
1.60622
1.60596
1.60512
1.60089
1.59529
1.59388
1.59278
1.59046
1.58599
1.58084
1.5767
1.57325
1.57011
1.56594
1.56251
1.56143
1.55974
1.55546
1.54935
1.5442
1.5402
1.53563
1.53032
1.52505
1.51893
1.51177
1.50595
1.50112
1.49106
1.48528
1.48426
1.48148
1.47501
1.46709
1.45922
1.45126
1.44425
1.434
1.41793
1.4137
1.41388
1.40966
1.39802
1.38791
1.37504
1.36411
1.36174
1.35797
1.35033
1.33557
1.32382
1.32089
1.31809
1.31006
1.30194
1.29657
1.29121
1.28651
1.28146
1.27573
1.27242
1.27014
1.26754
1.26535
1.26333
1.25985
1.25678
1.25665
1.25652
1.25641
1.25657
1.2566
1.25684
1.25776
1.25905
1.26087
1.26128
1.26125
1.26137
1.2616
1.26217
1.2629
1.26316
1.72975
1.73036
1.73029
1.72807
1.72573
1.72334
1.71891
1.7147
1.71403
1.7149
1.71546
1.71473
1.71144
1.7048
1.70334
1.70325
1.70251
1.69819
1.69406
1.69291
1.69168
1.68873
1.6847
1.68146
1.67874
1.67574
1.67217
1.6675
1.66249
1.65926
1.65657
1.65313
1.64861
1.64414
1.63958
1.63382
1.62799
1.62348
1.61911
1.61399
1.60915
1.60419
1.59824
1.5918
1.58632
1.58023
1.57374
1.5674
1.55928
1.55102
1.5439
1.53663
1.52867
1.52161
1.51475
1.50562
1.4961
1.48743
1.47845
1.46806
1.45891
1.4493
1.43855
1.43085
1.42082
1.40918
1.39793
1.38804
1.37757
1.36848
1.35941
1.34881
1.33789
1.32776
1.31848
1.30932
1.30212
1.29413
1.28608
1.27948
1.27287
1.26653
1.26173
1.25887
1.25823
1.25762
1.25692
1.25698
1.2575
1.25937
1.26045
1.26025
1.25977
1.25921
1.25915
1.25945
1.26032
1.26152
1.26258
1.26291
1.82177
1.82157
1.82205
1.82236
1.82181
1.82032
1.8179
1.81291
1.80987
1.81008
1.81009
1.80901
1.80617
1.79977
1.79619
1.7961
1.79571
1.79402
1.78795
1.78397
1.78304
1.78176
1.77773
1.77313
1.77028
1.76732
1.76391
1.76053
1.75632
1.75064
1.74616
1.74315
1.73969
1.73485
1.72988
1.72483
1.71917
1.71376
1.70865
1.70297
1.69694
1.69143
1.68559
1.67875
1.67231
1.66579
1.65749
1.65086
1.64487
1.63715
1.62858
1.62118
1.6135
1.6042
1.59497
1.58604
1.57621
1.56648
1.5579
1.54933
1.53879
1.52659
1.51341
1.50429
1.4958
1.48519
1.4697
1.45638
1.44682
1.43603
1.42315
1.41033
1.39758
1.38497
1.37375
1.36149
1.34902
1.33866
1.32744
1.31831
1.30945
1.30165
1.29362
1.28689
1.28065
1.2751
1.27056
1.26831
1.26544
1.26314
1.26085
1.25906
1.25726
1.25689
1.25704
1.25787
1.25919
1.26038
1.26185
1.26234
1.92434
1.92105
1.92097
1.92169
1.92164
1.91952
1.91826
1.91679
1.91248
1.90742
1.9068
1.90729
1.90687
1.90442
1.89765
1.89321
1.89314
1.89283
1.89012
1.88288
1.88006
1.8793
1.87718
1.87133
1.86688
1.86452
1.86161
1.85787
1.85371
1.8485
1.84208
1.83716
1.8336
1.82929
1.82314
1.81734
1.81203
1.80645
1.80123
1.79616
1.78987
1.78311
1.77696
1.76971
1.76245
1.75657
1.74947
1.74057
1.73266
1.72496
1.71622
1.70766
1.6998
1.69037
1.68031
1.67198
1.66265
1.65173
1.64059
1.6297
1.61933
1.60881
1.59739
1.58583
1.57272
1.56139
1.55036
1.53694
1.5225
1.50957
1.49649
1.4821
1.46847
1.4541
1.43874
1.42581
1.4104
1.39588
1.38213
1.36892
1.35541
1.34193
1.33087
1.31795
1.30513
1.29477
1.28757
1.28175
1.27364
1.2666
1.26279
1.26095
1.2587
1.25865
1.25962
1.26086
1.26034
1.25916
1.25919
1.25997
2.03612
2.0293
2.02585
2.02615
2.02609
2.02518
2.02386
2.02261
2.0196
2.01282
2.01061
2.01072
2.01059
2.00928
2.00201