/*--------------------------------*- C++ -*----------------------------------*\
  =========                 |
  \\      /  F ield         | OpenFOAM: The Open Source CFD Toolbox
   \\    /   O peration     | Website:  https://openfoam.org
    \\  /    A nd           | Version:  7
     \\/     M anipulation  |
\*---------------------------------------------------------------------------*/
FoamFile
{
    version     2.0;
    format      ascii;
    class       volVectorField;
    location    "4.5";
    object      U;
}
// * * * * * * * * * * * * * * * * * * * * * * * * * * * * * * * * * * * * * //

dimensions      [0 1 -1 0 0 0 0];

internalField   nonuniform List<vector> 
90000
(
(4.98718 -0.0584304 0)
(4.98792 -0.0578427 0)
(4.98887 -0.0463576 0)
(4.98996 -0.0494337 0)
(4.98871 -0.0547407 0)
(4.99011 -0.0487465 0)
(4.9886 -0.0445622 0)
(4.98951 -0.0469867 0)
(4.98821 -0.0492061 0)
(4.98755 -0.0498689 0)
(4.98696 -0.0489033 0)
(4.98575 -0.0498158 0)
(4.98486 -0.0493966 0)
(4.98407 -0.0518905 0)
(4.98349 -0.0505961 0)
(4.98232 -0.0531912 0)
(4.98145 -0.0519867 0)
(4.98026 -0.0547714 0)
(4.97945 -0.0536161 0)
(4.97869 -0.0559554 0)
(4.97826 -0.0546889 0)
(4.97744 -0.0569818 0)
(4.97687 -0.0570908 0)
(4.97663 -0.0572444 0)
(4.97614 -0.0581346 0)
(4.97577 -0.0590888 0)
(4.9754 -0.0594187 0)
(4.97498 -0.058425 0)
(4.97449 -0.0585228 0)
(4.97392 -0.0573357 0)
(4.97325 -0.0568825 0)
(4.97246 -0.0550278 0)
(4.97158 -0.0532658 0)
(4.97088 -0.0512996 0)
(4.96991 -0.0489056 0)
(4.96905 -0.0463033 0)
(4.96839 -0.042474 0)
(4.96737 -0.0365777 0)
(4.96667 -0.0315197 0)
(4.96551 -0.0256877 0)
(4.96486 -0.0231151 0)
(4.96391 -0.0188998 0)
(4.96361 -0.0156767 0)
(4.96364 -0.0125647 0)
(4.96324 -0.00834875 0)
(4.96316 -0.00576789 0)
(4.96323 -0.00676757 0)
(4.96366 -0.0129133 0)
(4.96327 -0.0180817 0)
(4.96478 -0.0321998 0)
(4.96307 -0.0337682 0)
(4.96304 -0.0428384 0)
(4.9619 -0.0441112 0)
(4.96014 -0.0439417 0)
(4.95818 -0.0419235 0)
(4.95595 -0.037545 0)
(4.95435 -0.0336848 0)
(4.95241 -0.0273017 0)
(4.9517 -0.0219087 0)
(4.9528 -0.0185863 0)
(4.95322 -0.0118766 0)
(4.95379 -0.0109262 0)
(4.9553 -0.0149016 0)
(4.95715 -0.0202488 0)
(4.95841 -0.025472 0)
(4.96027 -0.031319 0)
(4.95989 -0.0318769 0)
(4.95885 -0.0313409 0)
(4.95713 -0.0284576 0)
(4.95508 -0.0220214 0)
(4.95428 -0.01627 0)
(4.95459 -0.00901403 0)
(4.95511 -0.0101043 0)
(4.95647 -0.0157542 0)
(4.9573 -0.0181482 0)
(4.95746 -0.0284911 0)
(4.95929 -0.0245582 0)
(4.9583 -0.023336 0)
(4.95753 -0.0206592 0)
(4.95703 -0.0169228 0)
(4.95683 -0.0143592 0)
(4.95719 -0.0167087 0)
(4.95712 -0.0202258 0)
(4.95873 -0.0257098 0)
(4.95856 -0.0242104 0)
(4.95805 -0.020865 0)
(4.95833 -0.0165417 0)
(4.95763 -0.0186949 0)
(4.95799 -0.02003 0)
(4.95869 -0.0229746 0)
(4.95885 -0.0227523 0)
(4.95875 -0.0215141 0)
(4.95844 -0.0189083 0)
(4.95856 -0.0183426 0)
(4.95876 -0.0193619 0)
(4.95933 -0.020811 0)
(4.95963 -0.0209888 0)
(4.9599 -0.0209353 0)
(4.96018 -0.0210291 0)
(4.96039 -0.0214259 0)
(4.98518 -0.0634584 0)
(4.9852 -0.0635803 0)
(4.98521 -0.0636604 0)
(4.98517 -0.0635256 0)
(4.98518 -0.0634242 0)
(4.98512 -0.0634302 0)
(4.98499 -0.0634664 0)
(4.98489 -0.0633049 0)
(4.98487 -0.0631474 0)
(4.98494 -0.0630952 0)
(4.98483 -0.0627701 0)
(4.98455 -0.0621194 0)
(4.98463 -0.0618035 0)
(4.98471 -0.0614011 0)
(4.98441 -0.0601965 0)
(4.98431 -0.0597763 0)
(4.98433 -0.0595215 0)
(4.98337 -0.0574588 0)
(4.98326 -0.0561776 0)
(4.9833 -0.0552401 0)
(4.98321 -0.0541782 0)
(4.98307 -0.0531491 0)
(4.98267 -0.0515501 0)
(4.98238 -0.0499586 0)
(4.98229 -0.0495887 0)
(4.98193 -0.0485853 0)
(4.98133 -0.047012 0)
(4.9808 -0.0460855 0)
(4.98035 -0.0459868 0)
(4.9797 -0.0449539 0)
(4.97907 -0.044235 0)
(4.97856 -0.0435804 0)
(4.97811 -0.0430887 0)
(4.97759 -0.0422095 0)
(4.97708 -0.0417898 0)
(4.97641 -0.040597 0)
(4.97589 -0.0397267 0)
(4.9753 -0.0377063 0)
(4.97502 -0.0364275 0)
(4.97455 -0.0331817 0)
(4.97451 -0.0316533 0)
(4.97385 -0.0279432 0)
(4.97338 -0.025405 0)
(4.97287 -0.0223621 0)
(4.97225 -0.0187993 0)
(4.97189 -0.0153681 0)
(4.97181 -0.0132918 0)
(4.97085 -0.00896129 0)
(4.97131 -0.0049738 0)
(4.97058 -0.00795965 0)
(4.97059 -0.00938357 0)
(4.97079 -0.0128291 0)
(4.97086 -0.0165559 0)
(4.97123 -0.0219313 0)
(4.97088 -0.0247728 0)
(4.96978 -0.0271592 0)
(4.96875 -0.0256662 0)
(4.96858 -0.0250533 0)
(4.96812 -0.0231582 0)
(4.96772 -0.0204736 0)
(4.9671 -0.0177045 0)
(4.96641 -0.0145123 0)
(4.96591 -0.0096119 0)
(4.96587 -0.00988696 0)
(4.96603 -0.0124608 0)
(4.96739 -0.0198899 0)
(4.96766 -0.0226775 0)
(4.96878 -0.0307731 0)
(4.9681 -0.0285989 0)
(4.96724 -0.0263894 0)
(4.96588 -0.0217315 0)
(4.96478 -0.0174859 0)
(4.9643 -0.0105715 0)
(4.96339 -0.00789601 0)
(4.96373 -0.0112714 0)
(4.96432 -0.017896 0)
(4.96471 -0.0231223 0)
(4.96605 -0.0291624 0)
(4.96547 -0.0275775 0)
(4.96449 -0.0238527 0)
(4.96355 -0.017865 0)
(4.96312 -0.0143878 0)
(4.9634 -0.017442 0)
(4.9642 -0.0211163 0)
(4.96459 -0.0234611 0)
(4.96435 -0.0220103 0)
(4.96399 -0.0197581 0)
(4.96322 -0.0152789 0)
(4.96315 -0.0166742 0)
(4.96335 -0.0180615 0)
(4.96381 -0.0198034 0)
(4.96379 -0.0191723 0)
(4.96347 -0.0174851 0)
(4.96327 -0.0173057 0)
(4.96324 -0.0173547 0)
(4.96352 -0.0187837 0)
(4.96364 -0.0199807 0)
(4.96408 -0.0214042 0)
(4.96424 -0.0217317 0)
(4.96433 -0.0219519 0)
(4.9831 -0.0624685 0)
(4.98311 -0.0625587 0)
(4.98314 -0.0626752 0)
(4.98316 -0.0628173 0)
(4.98316 -0.0628043 0)
(4.98317 -0.062692 0)
(4.98317 -0.0627219 0)
(4.98302 -0.0630888 0)
(4.983 -0.0634013 0)
(4.983 -0.0634311 0)
(4.98299 -0.0632996 0)
(4.98294 -0.0633171 0)
(4.9828 -0.0637165 0)
(4.98279 -0.0639198 0)
(4.98273 -0.0637074 0)
(4.98265 -0.0636228 0)
(4.98241 -0.0639464 0)
(4.98217 -0.0641187 0)
(4.98205 -0.0641164 0)
(4.98196 -0.0641001 0)
(4.98176 -0.0642391 0)
(4.98147 -0.0643374 0)
(4.98114 -0.0640854 0)
(4.98079 -0.063963 0)
(4.98047 -0.063955 0)
(4.98006 -0.0635324 0)
(4.97958 -0.0624364 0)
(4.97923 -0.0616624 0)
(4.97899 -0.0610774 0)
(4.97864 -0.0600232 0)
(4.97838 -0.0589799 0)
(4.97826 -0.0581681 0)
(4.97816 -0.057447 0)
(4.97788 -0.0564199 0)
(4.9777 -0.0556752 0)
(4.97739 -0.0543538 0)
(4.97715 -0.0535146 0)
(4.97675 -0.0518407 0)
(4.97653 -0.0510567 0)
(4.97618 -0.0492808 0)
(4.97607 -0.048515 0)
(4.97574 -0.0462931 0)
(4.97558 -0.0452194 0)
(4.97514 -0.0422506 0)
(4.97503 -0.0412812 0)
(4.97443 -0.0368792 0)
(4.97478 -0.0367664 0)
(4.97336 -0.0305045 0)
(4.97343 -0.0282726 0)
(4.97308 -0.0255256 0)
(4.97139 -0.022045 0)
(4.97041 -0.0183561 0)
(4.97073 -0.0173377 0)
(4.97071 -0.0171036 0)
(4.97077 -0.0172544 0)
(4.97125 -0.0188509 0)
(4.97192 -0.0205207 0)
(4.97307 -0.0230107 0)
(4.97392 -0.0243583 0)
(4.9745 -0.026444 0)
(4.97409 -0.0264127 0)
(4.97312 -0.0252338 0)
(4.97194 -0.0234428 0)
(4.97059 -0.0199313 0)
(4.97015 -0.017015 0)
(4.96959 -0.0134214 0)
(4.9698 -0.0141655 0)
(4.97075 -0.0173376 0)
(4.97182 -0.0214922 0)
(4.973 -0.0264653 0)
(4.97241 -0.0266085 0)
(4.97174 -0.024779 0)
(4.9703 -0.0226145 0)
(4.96935 -0.016846 0)
(4.9685 -0.0105811 0)
(4.96824 -0.0100508 0)
(4.96867 -0.0134924 0)
(4.96941 -0.0181368 0)
(4.9703 -0.0252923 0)
(4.97011 -0.0255652 0)
(4.96922 -0.0238269 0)
(4.96836 -0.019914 0)
(4.96782 -0.0135986 0)
(4.96787 -0.0150878 0)
(4.96828 -0.0190167 0)
(4.96881 -0.0246573 0)
(4.96842 -0.023443 0)
(4.96768 -0.0213825 0)
(4.96709 -0.0162075 0)
(4.96727 -0.0180864 0)
(4.96765 -0.0207787 0)
(4.96772 -0.0225015 0)
(4.96741 -0.0213083 0)
(4.9672 -0.0179893 0)
(4.9668 -0.0185467 0)
(4.96687 -0.0190094 0)
(4.96701 -0.0200925 0)
(4.96732 -0.0203714 0)
(4.96747 -0.0208256 0)
(4.9676 -0.0215913 0)
(4.98004 -0.0627349 0)
(4.98003 -0.0628506 0)
(4.98007 -0.0631075 0)
(4.98011 -0.0631952 0)
(4.98015 -0.063244 0)
(4.98016 -0.0635043 0)
(4.98016 -0.0637233 0)
(4.98015 -0.063774 0)
(4.98017 -0.0639035 0)
(4.9802 -0.0639327 0)
(4.98028 -0.0638904 0)
(4.98018 -0.0641373 0)
(4.97998 -0.0645636 0)
(4.98003 -0.0649654 0)
(4.98009 -0.0649409 0)
(4.98012 -0.0649744 0)
(4.97983 -0.0654367 0)
(4.97985 -0.0657174 0)
(4.97987 -0.0656575 0)
(4.97997 -0.0654089 0)
(4.97989 -0.0656024 0)
(4.97973 -0.0659355 0)
(4.9797 -0.0659457 0)
(4.97969 -0.0659607 0)
(4.97962 -0.0663896 0)
(4.97955 -0.066387 0)
(4.97941 -0.0664651 0)
(4.97929 -0.0662816 0)
(4.97907 -0.0660078 0)
(4.97873 -0.0654346 0)
(4.97844 -0.064874 0)
(4.97824 -0.0643429 0)
(4.97807 -0.063934 0)
(4.97785 -0.0632015 0)
(4.97751 -0.0624733 0)
(4.97705 -0.0615407 0)
(4.97667 -0.0608171 0)
(4.97628 -0.0598562 0)
(4.97591 -0.0591154 0)
(4.97552 -0.0584359 0)
(4.97508 -0.0575343 0)
(4.97462 -0.0564258 0)
(4.97429 -0.0555101 0)
(4.97381 -0.0530797 0)
(4.97371 -0.0524822 0)
(4.97308 -0.0488846 0)
(4.97296 -0.0476497 0)
(4.97208 -0.0435713 0)
(4.97173 -0.0412203 0)
(4.97118 -0.0362242 0)
(4.97147 -0.036455 0)
(4.97002 -0.0312479 0)
(4.97143 -0.0302892 0)
(4.96972 -0.0263026 0)
(4.96891 -0.0237153 0)
(4.96939 -0.0217719 0)
(4.9692 -0.0206217 0)
(4.96934 -0.0197974 0)
(4.97004 -0.0197726 0)
(4.97056 -0.0201127 0)
(4.97113 -0.0203327 0)
(4.97161 -0.0209631 0)
(4.97163 -0.0211707 0)
(4.97135 -0.0209168 0)
(4.97085 -0.020191 0)
(4.97008 -0.0186589 0)
(4.9698 -0.0168805 0)
(4.96983 -0.0142045 0)
(4.9701 -0.0142989 0)
(4.97125 -0.0172525 0)
(4.97185 -0.0195778 0)
(4.97275 -0.0246607 0)
(4.97257 -0.0249937 0)
(4.97169 -0.0242423 0)
(4.97036 -0.0209681 0)
(4.97018 -0.0175409 0)
(4.96966 -0.01369 0)
(4.96972 -0.0142355 0)
(4.97039 -0.0178538 0)
(4.97107 -0.0214863 0)
(4.97151 -0.0255422 0)
(4.97105 -0.0246878 0)
(4.96977 -0.0220852 0)
(4.96929 -0.0173595 0)
(4.96958 -0.0153765 0)
(4.97004 -0.0176689 0)
(4.97047 -0.0217239 0)
(4.97027 -0.0214384 0)
(4.9697 -0.020611 0)
(4.96934 -0.0162348 0)
(4.96948 -0.0173365 0)
(4.96973 -0.0193045 0)
(4.96975 -0.02072 0)
(4.96953 -0.0199358 0)
(4.96912 -0.0167893 0)
(4.96903 -0.0176927 0)
(4.96915 -0.0188167 0)
(4.96949 -0.0207714 0)
(4.96968 -0.0209041 0)
(4.96985 -0.0215242 0)
(4.97777 -0.0633839 0)
(4.9778 -0.0633768 0)
(4.97785 -0.063344 0)
(4.97789 -0.0634493 0)
(4.97782 -0.0637559 0)
(4.97777 -0.063874 0)
(4.97776 -0.0638499 0)
(4.97774 -0.0638255 0)
(4.97783 -0.0640991 0)
(4.97793 -0.0644573 0)
(4.97801 -0.0645457 0)
(4.97802 -0.0644163 0)
(4.97802 -0.0643143 0)
(4.97781 -0.0646051 0)
(4.97782 -0.0649263 0)
(4.97782 -0.0650103 0)
(4.97791 -0.0650897 0)
(4.9779 -0.0652135 0)
(4.97789 -0.065415 0)
(4.97801 -0.0655887 0)
(4.97805 -0.0657979 0)
(4.97802 -0.0659616 0)
(4.97807 -0.0660776 0)
(4.97809 -0.0663408 0)
(4.97806 -0.0664616 0)
(4.97802 -0.0665287 0)
(4.9781 -0.0668145 0)
(4.97812 -0.067065 0)
(4.97814 -0.0671304 0)
(4.9781 -0.0670958 0)
(4.97804 -0.0670317 0)
(4.97796 -0.0669747 0)
(4.97784 -0.0670298 0)
(4.97766 -0.0668631 0)
(4.97759 -0.0666292 0)
(4.97742 -0.0661291 0)
(4.9773 -0.0657104 0)
(4.97711 -0.065279 0)
(4.97683 -0.0646409 0)
(4.97654 -0.0640723 0)
(4.9762 -0.0633743 0)
(4.97585 -0.0623469 0)
(4.97559 -0.0612443 0)
(4.97537 -0.0600259 0)
(4.97519 -0.0586005 0)
(4.97491 -0.057023 0)
(4.97469 -0.0555838 0)
(4.97404 -0.0523931 0)
(4.97379 -0.0509479 0)
(4.9728 -0.0459966 0)
(4.97291 -0.0451773 0)
(4.97115 -0.0378113 0)
(4.97157 -0.0371576 0)
(4.97011 -0.0296701 0)
(4.97005 -0.0291708 0)
(4.96949 -0.0255284 0)
(4.96909 -0.0235381 0)
(4.96884 -0.0225174 0)
(4.9691 -0.0226512 0)
(4.96921 -0.0217065 0)
(4.96929 -0.0211319 0)
(4.96959 -0.0211557 0)
(4.9699 -0.020836 0)
(4.97014 -0.0206408 0)
(4.97029 -0.0201969 0)
(4.96988 -0.0187242 0)
(4.96991 -0.0177556 0)
(4.97003 -0.0174252 0)
(4.96987 -0.0161821 0)
(4.96979 -0.015478 0)
(4.96992 -0.0161447 0)
(4.97048 -0.0184614 0)
(4.97088 -0.0208628 0)
(4.97155 -0.0243264 0)
(4.97156 -0.0245714 0)
(4.97076 -0.0218578 0)
(4.97052 -0.0201674 0)
(4.96957 -0.0172074 0)
(4.96958 -0.0168293 0)
(4.97 -0.0177051 0)
(4.97071 -0.019893 0)
(4.97139 -0.0235754 0)
(4.97134 -0.0235199 0)
(4.97051 -0.0217416 0)
(4.97063 -0.0198456 0)
(4.97039 -0.0179592 0)
(4.97068 -0.0189059 0)
(4.97098 -0.0214347 0)
(4.9709 -0.021438 0)
(4.97026 -0.0206781 0)
(4.97018 -0.0177797 0)
(4.97043 -0.0182297 0)
(4.97075 -0.0197305 0)
(4.97076 -0.0204871 0)
(4.97049 -0.0198298 0)
(4.97033 -0.0169923 0)
(4.97054 -0.0177102 0)
(4.97081 -0.0191517 0)
(4.97112 -0.0209001 0)
(4.97132 -0.0214429 0)
(4.97722 -0.0634588 0)
(4.97723 -0.0634786 0)
(4.97724 -0.0634737 0)
(4.97724 -0.063477 0)
(4.97724 -0.0635416 0)
(4.97726 -0.0635938 0)
(4.97725 -0.0635511 0)
(4.97723 -0.0635012 0)
(4.97729 -0.0636774 0)
(4.97752 -0.0641602 0)
(4.97756 -0.0642693 0)
(4.97758 -0.064169 0)
(4.97747 -0.0643664 0)
(4.97735 -0.0648632 0)
(4.97733 -0.0649861 0)
(4.97737 -0.0650734 0)
(4.97757 -0.0652677 0)
(4.97763 -0.0652995 0)
(4.97765 -0.065366 0)
(4.97764 -0.0654882 0)
(4.97763 -0.0655312 0)
(4.97772 -0.0656964 0)
(4.9778 -0.0657673 0)
(4.97782 -0.0659022 0)
(4.97779 -0.0660216 0)
(4.97776 -0.0659832 0)
(4.97784 -0.0661845 0)
(4.97793 -0.0666156 0)
(4.97795 -0.0667213 0)
(4.97798 -0.0665972 0)
(4.978 -0.0665905 0)
(4.97802 -0.0669733 0)
(4.9779 -0.0671567 0)
(4.97787 -0.0670852 0)
(4.97788 -0.0670215 0)
(4.97786 -0.0669751 0)
(4.97777 -0.0668724 0)
(4.97771 -0.0667952 0)
(4.97759 -0.0666503 0)
(4.97759 -0.0665367 0)
(4.97764 -0.0663223 0)
(4.97771 -0.0659885 0)
(4.97778 -0.0656131 0)
(4.97775 -0.0652268 0)
(4.97764 -0.0645927 0)
(4.9775 -0.0638125 0)
(4.97733 -0.0626734 0)
(4.97718 -0.0614682 0)
(4.97695 -0.0595782 0)
(4.9767 -0.0577218 0)
(4.97645 -0.055675 0)
(4.9758 -0.0525446 0)
(4.97533 -0.0496322 0)
(4.97432 -0.0438361 0)
(4.97457 -0.0430454 0)
(4.97311 -0.0345565 0)
(4.97324 -0.0359591 0)
(4.97141 -0.0287172 0)
(4.97126 -0.0288829 0)
(4.97058 -0.0243781 0)
(4.97079 -0.0251822 0)
(4.97053 -0.0237299 0)
(4.97108 -0.0221363 0)
(4.9708 -0.0211589 0)
(4.97006 -0.0202581 0)
(4.96984 -0.0188912 0)
(4.96989 -0.0185735 0)
(4.9698 -0.0187977 0)
(4.96959 -0.0187444 0)
(4.96958 -0.0184583 0)
(4.96943 -0.0177643 0)
(4.96953 -0.0179289 0)
(4.96993 -0.0183925 0)
(4.97038 -0.0198138 0)
(4.97117 -0.0225575 0)
(4.97115 -0.0234331 0)
(4.97059 -0.0225477 0)
(4.97021 -0.0210431 0)
(4.97015 -0.0198972 0)
(4.97002 -0.018187 0)
(4.97018 -0.0182519 0)
(4.97086 -0.0197501 0)
(4.97153 -0.0222478 0)
(4.97168 -0.0228879 0)
(4.97122 -0.0218234 0)
(4.97118 -0.0205629 0)
(4.97087 -0.0190855 0)
(4.97114 -0.0194689 0)
(4.9713 -0.0207755 0)
(4.97135 -0.020775 0)
(4.971 -0.0198895 0)
(4.971 -0.0184437 0)
(4.97128 -0.0185652 0)
(4.97153 -0.019586 0)
(4.97158 -0.0195747 0)
(4.97139 -0.0190659 0)
(4.9714 -0.0177351 0)
(4.97173 -0.0182874 0)
(4.97201 -0.0195896 0)
(4.97235 -0.0213687 0)
(4.97819 -0.0613217 0)
(4.97819 -0.0612462 0)
(4.97814 -0.0611499 0)
(4.97822 -0.0612745 0)
(4.97839 -0.0616693 0)
(4.97839 -0.0619099 0)
(4.97843 -0.061955 0)
(4.97839 -0.06215 0)
(4.97834 -0.0622876 0)
(4.9783 -0.0623159 0)
(4.97826 -0.0623594 0)
(4.97828 -0.0624956 0)
(4.97833 -0.0626131 0)
(4.97834 -0.0627713 0)
(4.97828 -0.0628774 0)
(4.97829 -0.0629103 0)
(4.97835 -0.062797 0)
(4.97852 -0.0630091 0)
(4.97873 -0.063453 0)
(4.97865 -0.0638565 0)
(4.97854 -0.0639064 0)
(4.97837 -0.0638134 0)
(4.97859 -0.064085 0)
(4.97881 -0.0644386 0)
(4.97883 -0.0645033 0)
(4.97882 -0.0644235 0)
(4.97883 -0.0644953 0)
(4.97892 -0.0650432 0)
(4.97895 -0.0653303 0)
(4.97902 -0.0649408 0)
(4.97892 -0.0646327 0)
(4.9791 -0.0651568 0)
(4.97912 -0.0656918 0)
(4.97909 -0.0656505 0)
(4.97904 -0.0654916 0)
(4.97905 -0.0656862 0)
(4.97908 -0.0656379 0)
(4.97902 -0.0654417 0)
(4.97895 -0.0656137 0)
(4.97892 -0.0656684 0)
(4.97901 -0.0657508 0)
(4.97908 -0.0658357 0)
(4.97926 -0.0657052 0)
(4.97942 -0.0656294 0)
(4.9796 -0.0653913 0)
(4.97963 -0.0653055 0)
(4.97968 -0.0651569 0)
(4.97979 -0.0649328 0)
(4.97983 -0.0641542 0)
(4.97991 -0.0636497 0)
(4.97981 -0.0624228 0)
(4.97972 -0.060972 0)
(4.97942 -0.0586894 0)
(4.97904 -0.0560292 0)
(4.97865 -0.053025 0)
(4.97782 -0.0488169 0)
(4.97751 -0.0461826 0)
(4.97588 -0.0384347 0)
(4.97579 -0.0377838 0)
(4.97406 -0.0295289 0)
(4.9743 -0.0297697 0)
(4.97318 -0.0232603 0)
(4.97357 -0.0229298 0)
(4.97249 -0.0194982 0)
(4.97177 -0.0186442 0)
(4.97129 -0.0186786 0)
(4.9711 -0.0192012 0)
(4.9707 -0.019945 0)
(4.97074 -0.0203818 0)
(4.97055 -0.0199453 0)
(4.9707 -0.0195708 0)
(4.97045 -0.0190615 0)
(4.97101 -0.0184882 0)
(4.97132 -0.0186722 0)
(4.97158 -0.0199637 0)
(4.97172 -0.0212536 0)
(4.97159 -0.0225716 0)
(4.9714 -0.0224297 0)
(4.97127 -0.0210961 0)
(4.97139 -0.0204522 0)
(4.9712 -0.0190375 0)
(4.97125 -0.019095 0)
(4.97183 -0.0203755 0)
(4.972 -0.0210575 0)
(4.9722 -0.0223383 0)
(4.97201 -0.0216992 0)
(4.97202 -0.0207019 0)
(4.97187 -0.0198258 0)
(4.97211 -0.0198798 0)
(4.97245 -0.0204145 0)
(4.97235 -0.020323 0)
(4.97215 -0.019539 0)
(4.97209 -0.0188752 0)
(4.97234 -0.0189026 0)
(4.97254 -0.0196475 0)
(4.97257 -0.0195656 0)
(4.97259 -0.0187773 0)
(4.97255 -0.0182275 0)
(4.97275 -0.0187539 0)
(4.9731 -0.020455 0)
(4.97938 -0.0605256 0)
(4.97939 -0.0605319 0)
(4.97942 -0.0605609 0)
(4.97945 -0.0606136 0)
(4.97946 -0.0606363 0)
(4.97947 -0.0606244 0)
(4.97947 -0.0606564 0)
(4.97936 -0.0607846 0)
(4.97932 -0.0608172 0)
(4.97926 -0.0608517 0)
(4.97932 -0.0610056 0)
(4.97935 -0.061089 0)
(4.97936 -0.0611241 0)
(4.97938 -0.0611899 0)
(4.9794 -0.0612646 0)
(4.97941 -0.0612826 0)
(4.97945 -0.0611801 0)
(4.97955 -0.0610868 0)
(4.97982 -0.0613658 0)
(4.9799 -0.0616772 0)
(4.97985 -0.0617239 0)
(4.97979 -0.0616997 0)
(4.97985 -0.0617331 0)
(4.98006 -0.0619144 0)
(4.98023 -0.0621093 0)
(4.98028 -0.0621674 0)
(4.98035 -0.0624112 0)
(4.98043 -0.0627798 0)
(4.98052 -0.0627762 0)
(4.98054 -0.0626759 0)
(4.98059 -0.0628364 0)
(4.98069 -0.0632205 0)
(4.98076 -0.0631004 0)
(4.98078 -0.0632435 0)
(4.98078 -0.0636682 0)
(4.9808 -0.0636851 0)
(4.98089 -0.0638657 0)
(4.98098 -0.0640084 0)
(4.98104 -0.0639273 0)
(4.98109 -0.0640492 0)
(4.98106 -0.0644603 0)
(4.98109 -0.0644794 0)
(4.98117 -0.0642429 0)
(4.98116 -0.0641037 0)
(4.98112 -0.0640104 0)
(4.98107 -0.0639863 0)
(4.98109 -0.0639889 0)
(4.98131 -0.0639363 0)
(4.98163 -0.0638122 0)
(4.98186 -0.0638109 0)
(4.98214 -0.0637323 0)
(4.98252 -0.0634922 0)
(4.98255 -0.0629094 0)
(4.98251 -0.0619801 0)
(4.9824 -0.0609341 0)
(4.98206 -0.0595434 0)
(4.98148 -0.0573054 0)
(4.98069 -0.054027 0)
(4.98018 -0.0514172 0)
(4.97883 -0.0446679 0)
(4.9788 -0.0436906 0)
(4.97747 -0.0348703 0)
(4.97773 -0.0351989 0)
(4.97686 -0.0282142 0)
(4.97742 -0.0296437 0)
(4.97614 -0.0250248 0)
(4.97569 -0.024829 0)
(4.97466 -0.0233749 0)
(4.97385 -0.0222333 0)
(4.97355 -0.021592 0)
(4.97314 -0.020455 0)
(4.97302 -0.019774 0)
(4.97288 -0.0194836 0)
(4.97309 -0.0192232 0)
(4.9727 -0.0199898 0)
(4.97273 -0.0204454 0)
(4.97311 -0.0210818 0)
(4.97301 -0.0218771 0)
(4.97303 -0.021821 0)
(4.97306 -0.0212811 0)
(4.97298 -0.0204882 0)
(4.97274 -0.0196625 0)
(4.9728 -0.0197177 0)
(4.97319 -0.0201991 0)
(4.97355 -0.0211793 0)
(4.97351 -0.0216064 0)
(4.9734 -0.0213071 0)
(4.97307 -0.0207493 0)
(4.97333 -0.0202026 0)
(4.97333 -0.0201673 0)
(4.97353 -0.0201583 0)
(4.97345 -0.0198844 0)
(4.97315 -0.0194544 0)
(4.97332 -0.0189358 0)
(4.97348 -0.019083 0)
(4.97365 -0.0194081 0)
(4.9736 -0.0192129 0)
(4.97341 -0.0186983 0)
(4.97361 -0.0184882 0)
(4.97384 -0.0196274 0)
(4.98089 -0.0609523 0)
(4.9809 -0.0609503 0)
(4.98091 -0.0609362 0)
(4.98091 -0.0609243 0)
(4.9809 -0.0609261 0)
(4.9809 -0.0609351 0)
(4.98085 -0.0608835 0)
(4.98083 -0.0608593 0)
(4.98083 -0.0608672 0)
(4.98083 -0.0608881 0)
(4.98082 -0.060895 0)
(4.9808 -0.0608968 0)
(4.9808 -0.0608849 0)
(4.98081 -0.0608499 0)
(4.98086 -0.0607468 0)
(4.98093 -0.0605719 0)
(4.98098 -0.06041 0)
(4.98104 -0.0603684 0)
(4.98109 -0.0604317 0)
(4.98115 -0.0603881 0)
(4.98123 -0.0603149 0)
(4.98131 -0.0602339 0)
(4.98137 -0.0602092 0)
(4.9814 -0.0602971 0)
(4.98141 -0.0603376 0)
(4.98143 -0.0603626 0)
(4.98147 -0.0604709 0)
(4.98154 -0.0606048 0)
(4.98165 -0.0604414 0)
(4.98168 -0.0603121 0)
(4.9817 -0.0603745 0)
(4.98173 -0.0604541 0)
(4.98178 -0.0603019 0)
(4.98181 -0.0603761 0)
(4.98184 -0.0606952 0)
(4.9819 -0.0606883 0)
(4.98199 -0.0606881 0)
(4.98208 -0.0606867 0)
(4.98217 -0.0607172 0)
(4.98236 -0.0610815 0)
(4.98262 -0.0613951 0)
(4.98292 -0.0615598 0)
(4.98312 -0.0617973 0)
(4.98317 -0.0620621 0)
(4.98307 -0.0621399 0)
(4.98292 -0.0622808 0)
(4.98281 -0.0624671 0)
(4.9829 -0.0622218 0)
(4.98299 -0.0619522 0)
(4.98323 -0.0621754 0)
(4.98343 -0.0622881 0)
(4.98369 -0.0622218 0)
(4.98386 -0.0621196 0)
(4.98424 -0.0618018 0)
(4.98434 -0.0616142 0)
(4.98432 -0.0615104 0)
(4.98414 -0.0611204 0)
(4.9839 -0.0604473 0)
(4.98359 -0.0594438 0)
(4.98307 -0.0576947 0)
(4.98257 -0.0553052 0)
(4.98156 -0.0502365 0)
(4.98157 -0.0480585 0)
(4.9802 -0.038567 0)
(4.98108 -0.0380285 0)
(4.97927 -0.02771 0)
(4.9796 -0.028205 0)
(4.97793 -0.0211807 0)
(4.97712 -0.0215739 0)
(4.9766 -0.018551 0)
(4.97578 -0.0200034 0)
(4.97566 -0.0208537 0)
(4.97509 -0.020664 0)
(4.97487 -0.0207635 0)
(4.97442 -0.0204119 0)
(4.97439 -0.0202307 0)
(4.97452 -0.0199112 0)
(4.97472 -0.0205036 0)
(4.97466 -0.0212107 0)
(4.97473 -0.0214221 0)
(4.97479 -0.0211638 0)
(4.97489 -0.0206678 0)
(4.97435 -0.0198941 0)
(4.97483 -0.02009 0)
(4.9751 -0.0203977 0)
(4.97538 -0.0210486 0)
(4.97497 -0.0215192 0)
(4.97484 -0.0211515 0)
(4.97478 -0.0207735 0)
(4.97453 -0.0201809 0)
(4.97464 -0.0201914 0)
(4.9747 -0.0199965 0)
(4.97467 -0.0196159 0)
(4.97446 -0.0192212 0)
(4.97456 -0.0191927 0)
(4.97474 -0.0193254 0)
(4.97464 -0.0192752 0)
(4.97457 -0.0190112 0)
(4.9746 -0.0187142 0)
(4.97473 -0.0192309 0)
(4.9835 -0.0611234 0)
(4.98349 -0.0610711 0)
(4.9835 -0.0610274 0)
(4.98351 -0.0610101 0)
(4.98349 -0.0609576 0)
(4.98347 -0.0609286 0)
(4.98346 -0.0609031 0)
(4.98348 -0.0608305 0)
(4.9835 -0.0607104 0)
(4.98343 -0.0606093 0)
(4.98338 -0.0605228 0)
(4.98333 -0.0604397 0)
(4.98329 -0.0604429 0)
(4.98319 -0.0605046 0)
(4.9833 -0.0602451 0)
(4.9836 -0.0599265 0)
(4.98365 -0.0596003 0)
(4.98355 -0.0593479 0)
(4.98348 -0.0592982 0)
(4.98345 -0.0593548 0)
(4.98349 -0.0593613 0)
(4.98358 -0.0592428 0)
(4.98362 -0.0590142 0)
(4.9836 -0.058816 0)
(4.98354 -0.0586731 0)
(4.9835 -0.0586258 0)
(4.9835 -0.0587452 0)
(4.98356 -0.0586607 0)
(4.98361 -0.0583249 0)
(4.98356 -0.0582539 0)
(4.98353 -0.0583086 0)
(4.98353 -0.0582536 0)
(4.98351 -0.0579979 0)
(4.98352 -0.058054 0)
(4.98354 -0.0583068 0)
(4.98355 -0.0584242 0)
(4.98358 -0.0583825 0)
(4.98359 -0.0583899 0)
(4.9836 -0.0584824 0)
(4.98362 -0.0587348 0)
(4.98379 -0.058725 0)
(4.98403 -0.0586294 0)
(4.98427 -0.0586176 0)
(4.98443 -0.0586529 0)
(4.98449 -0.0589069 0)
(4.98449 -0.0592209 0)
(4.98442 -0.0593011 0)
(4.98436 -0.0595306 0)
(4.98435 -0.0593807 0)
(4.98445 -0.0595369 0)
(4.98464 -0.0599146 0)
(4.98483 -0.0598475 0)
(4.98493 -0.0598956 0)
(4.98539 -0.0604686 0)
(4.98557 -0.0609883 0)
(4.98565 -0.0610897 0)
(4.98557 -0.0611256 0)
(4.98532 -0.0611109 0)
(4.98499 -0.0610068 0)
(4.98487 -0.0609096 0)
(4.98472 -0.0607258 0)
(4.9845 -0.0600356 0)
(4.98433 -0.0584574 0)
(4.98396 -0.0554322 0)
(4.98377 -0.0520233 0)
(4.98258 -0.0445747 0)
(4.98236 -0.0428483 0)
(4.98077 -0.0349735 0)
(4.98012 -0.0339873 0)
(4.97939 -0.0289016 0)
(4.98056 -0.0301523 0)
(4.97958 -0.026224 0)
(4.97904 -0.0243656 0)
(4.97843 -0.0226264 0)
(4.97709 -0.02152 0)
(4.97643 -0.0198153 0)
(4.97592 -0.0197877 0)
(4.97603 -0.0202084 0)
(4.97621 -0.020626 0)
(4.97635 -0.0210384 0)
(4.97654 -0.021194 0)
(4.97651 -0.0210904 0)
(4.97641 -0.0207438 0)
(4.97627 -0.0202486 0)
(4.97629 -0.0204514 0)
(4.97636 -0.0206028 0)
(4.97645 -0.0209011 0)
(4.97627 -0.0210732 0)
(4.97614 -0.0209016 0)
(4.97607 -0.0205527 0)
(4.97606 -0.0203767 0)
(4.97605 -0.0201394 0)
(4.97604 -0.0199263 0)
(4.97598 -0.01964 0)
(4.97562 -0.0193091 0)
(4.97572 -0.0192812 0)
(4.97579 -0.0192193 0)
(4.97573 -0.0191917 0)
(4.97582 -0.0188709 0)
(4.97569 -0.0190045 0)
(4.98569 -0.0603967 0)
(4.98566 -0.0603777 0)
(4.98564 -0.0603418 0)
(4.98559 -0.0603181 0)
(4.98556 -0.0603373 0)
(4.98554 -0.0603895 0)
(4.9855 -0.060424 0)
(4.98545 -0.0603843 0)
(4.98546 -0.060188 0)
(4.98549 -0.0600232 0)
(4.98546 -0.0598943 0)
(4.98543 -0.0598836 0)
(4.98543 -0.0599458 0)
(4.98552 -0.0598443 0)
(4.98555 -0.0596977 0)
(4.9855 -0.0596332 0)
(4.98551 -0.0595467 0)
(4.98552 -0.0593209 0)
(4.98545 -0.0591874 0)
(4.98541 -0.0592218 0)
(4.9855 -0.0591333 0)
(4.98565 -0.058766 0)
(4.98557 -0.0585315 0)
(4.98549 -0.0584931 0)
(4.98544 -0.0585455 0)
(4.98543 -0.0586021 0)
(4.98547 -0.058401 0)
(4.98549 -0.0580819 0)
(4.98544 -0.0579676 0)
(4.98539 -0.057937 0)
(4.98535 -0.0578345 0)
(4.98533 -0.0576693 0)
(4.98534 -0.0575411 0)
(4.98533 -0.0574891 0)
(4.98533 -0.0574061 0)
(4.98542 -0.0572576 0)
(4.98546 -0.0572217 0)
(4.98551 -0.0571871 0)
(4.98557 -0.0572518 0)
(4.98561 -0.0574194 0)
(4.98563 -0.0575654 0)
(4.98574 -0.0575857 0)
(4.98581 -0.0574756 0)
(4.98581 -0.0574008 0)
(4.98581 -0.0574696 0)
(4.9858 -0.0577252 0)
(4.98574 -0.05776 0)
(4.98571 -0.0578361 0)
(4.98573 -0.058022 0)
(4.98584 -0.058253 0)
(4.98593 -0.0583854 0)
(4.98615 -0.0590946 0)
(4.98625 -0.059411 0)
(4.9863 -0.0596676 0)
(4.98653 -0.0604953 0)
(4.98666 -0.0611563 0)
(4.98649 -0.0616744 0)
(4.98635 -0.0617586 0)
(4.98612 -0.0618644 0)
(4.98576 -0.0619296 0)
(4.98562 -0.0618052 0)
(4.98561 -0.0617438 0)
(4.98569 -0.0619949 0)
(4.98584 -0.0616936 0)
(4.98587 -0.060888 0)
(4.98545 -0.0584018 0)
(4.98492 -0.0555334 0)
(4.98332 -0.0487541 0)
(4.98296 -0.0469707 0)
(4.98053 -0.0352676 0)
(4.98198 -0.0351957 0)
(4.98087 -0.0245601 0)
(4.98171 -0.0248221 0)
(4.98063 -0.0186114 0)
(4.9792 -0.01948 0)
(4.97813 -0.019542 0)
(4.97714 -0.0206657 0)
(4.97719 -0.0206858 0)
(4.97724 -0.0206731 0)
(4.97734 -0.0205131 0)
(4.97739 -0.020479 0)
(4.97736 -0.0208115 0)
(4.97734 -0.0210224 0)
(4.97734 -0.020998 0)
(4.97714 -0.0208453 0)
(4.97715 -0.0206296 0)
(4.97718 -0.0206323 0)
(4.97718 -0.02084 0)
(4.97696 -0.0208098 0)
(4.97694 -0.0207301 0)
(4.97696 -0.020591 0)
(4.977 -0.0203732 0)
(4.97704 -0.0202371 0)
(4.977 -0.0199686 0)
(4.97684 -0.019689 0)
(4.97664 -0.019345 0)
(4.97664 -0.0192293 0)
(4.97666 -0.0193231 0)
(4.97663 -0.0190878 0)
(4.97648 -0.0191738 0)
(4.98642 -0.0602027 0)
(4.98637 -0.0600964 0)
(4.98637 -0.0600291 0)
(4.98635 -0.0599766 0)
(4.98634 -0.0599605 0)
(4.98633 -0.0600141 0)
(4.98635 -0.0600962 0)
(4.98636 -0.0601256 0)
(4.98631 -0.0602928 0)
(4.98627 -0.0603906 0)
(4.98636 -0.0603352 0)
(4.98644 -0.060208 0)
(4.98641 -0.0600934 0)
(4.98635 -0.059988 0)
(4.98637 -0.0599327 0)
(4.98638 -0.0598048 0)
(4.98626 -0.0594037 0)
(4.98616 -0.0592295 0)
(4.98614 -0.0593023 0)
(4.98618 -0.059335 0)
(4.98638 -0.0590586 0)
(4.98638 -0.0587059 0)
(4.98626 -0.058476 0)
(4.98619 -0.0584792 0)
(4.98614 -0.0584991 0)
(4.98618 -0.0582937 0)
(4.98614 -0.0579061 0)
(4.98608 -0.0576723 0)
(4.98605 -0.0575291 0)
(4.98597 -0.0574622 0)
(4.98589 -0.0572938 0)
(4.98594 -0.0571067 0)
(4.98595 -0.057063 0)
(4.98594 -0.0569597 0)
(4.98595 -0.0567703 0)
(4.98606 -0.0566623 0)
(4.98618 -0.0565937 0)
(4.98629 -0.0564747 0)
(4.98638 -0.0565386 0)
(4.98647 -0.0567086 0)
(4.98647 -0.0567385 0)
(4.98646 -0.056694 0)
(4.98645 -0.0566318 0)
(4.98637 -0.0566339 0)
(4.98618 -0.056838 0)
(4.98606 -0.0569983 0)
(4.98607 -0.0569864 0)
(4.98607 -0.0568706 0)
(4.98606 -0.0567878 0)
(4.98604 -0.0566726 0)
(4.98607 -0.0567563 0)
(4.98614 -0.0569809 0)
(4.98618 -0.0571471 0)
(4.98624 -0.0575316 0)
(4.98638 -0.0584491 0)
(4.98656 -0.0591106 0)
(4.98663 -0.0600644 0)
(4.98655 -0.060549 0)
(4.98659 -0.0605419 0)
(4.98659 -0.0605018 0)
(4.98647 -0.0611899 0)
(4.9862 -0.0615398 0)
(4.9862 -0.0616095 0)
(4.98629 -0.0617248 0)
(4.98649 -0.0623429 0)
(4.98666 -0.0624393 0)
(4.98654 -0.0618948 0)
(4.98599 -0.0606506 0)
(4.98514 -0.0578014 0)
(4.9839 -0.0531907 0)
(4.9834 -0.049078 0)
(4.98231 -0.0397929 0)
(4.98307 -0.0394435 0)
(4.98193 -0.0299494 0)
(4.98286 -0.0321865 0)
(4.98098 -0.026488 0)
(4.98069 -0.0254012 0)
(4.97956 -0.0224762 0)
(4.97817 -0.0212647 0)
(4.97784 -0.0198009 0)
(4.97758 -0.0200991 0)
(4.97768 -0.0206167 0)
(4.97766 -0.0214502 0)
(4.9778 -0.0215568 0)
(4.97774 -0.0211049 0)
(4.9778 -0.0207849 0)
(4.97759 -0.0204702 0)
(4.97757 -0.0205475 0)
(4.97754 -0.0207262 0)
(4.97745 -0.0207867 0)
(4.97742 -0.0207554 0)
(4.97741 -0.0205237 0)
(4.97743 -0.0204654 0)
(4.97738 -0.0202786 0)
(4.97736 -0.0199823 0)
(4.97717 -0.0195536 0)
(4.97714 -0.0193084 0)
(4.97723 -0.0195194 0)
(4.97717 -0.0192823 0)
(4.9771 -0.0191547 0)
(4.98627 -0.06043 0)
(4.98627 -0.0603354 0)
(4.98629 -0.0602968 0)
(4.98631 -0.0603554 0)
(4.98635 -0.0604037 0)
(4.98638 -0.0604011 0)
(4.98642 -0.0604077 0)
(4.98642 -0.0605147 0)
(4.98642 -0.0606314 0)
(4.98641 -0.060661 0)
(4.9864 -0.0606632 0)
(4.98639 -0.0606554 0)
(4.98636 -0.0606256 0)
(4.98631 -0.0605829 0)
(4.98628 -0.0604822 0)
(4.98633 -0.0603706 0)
(4.98626 -0.060038 0)
(4.98622 -0.0599295 0)
(4.98622 -0.0600111 0)
(4.98626 -0.0599766 0)
(4.9864 -0.0598114 0)
(4.9864 -0.0595338 0)
(4.9863 -0.059375 0)
(4.98631 -0.0594664 0)
(4.98632 -0.0596943 0)
(4.98623 -0.0596167 0)
(4.98605 -0.0593442 0)
(4.98584 -0.0590053 0)
(4.98582 -0.0588744 0)
(4.98572 -0.0586637 0)
(4.9856 -0.0584835 0)
(4.98555 -0.0582277 0)
(4.9856 -0.0581055 0)
(4.98564 -0.0579895 0)
(4.98564 -0.0577075 0)
(4.98575 -0.057412 0)
(4.98592 -0.0572854 0)
(4.98606 -0.0572539 0)
(4.98616 -0.0573104 0)
(4.98623 -0.0574571 0)
(4.98627 -0.0574132 0)
(4.98628 -0.0572073 0)
(4.98627 -0.0571565 0)
(4.98621 -0.0572852 0)
(4.98608 -0.0576115 0)
(4.98595 -0.0576766 0)
(4.98595 -0.0573534 0)
(4.98598 -0.057061 0)
(4.98597 -0.0569654 0)
(4.98597 -0.0567654 0)
(4.98596 -0.0565752 0)
(4.98591 -0.0565471 0)
(4.98586 -0.0566183 0)
(4.98577 -0.0567178 0)
(4.98555 -0.0569516 0)
(4.98534 -0.0575806 0)
(4.98547 -0.0586168 0)
(4.98587 -0.0595119 0)
(4.98606 -0.0597702 0)
(4.9864 -0.0600363 0)
(4.98658 -0.0603404 0)
(4.9862 -0.0608147 0)
(4.98619 -0.0620282 0)
(4.98627 -0.0622845 0)
(4.98639 -0.0625077 0)
(4.98656 -0.0627976 0)
(4.98662 -0.0629762 0)
(4.98645 -0.0630275 0)
(4.9862 -0.062131 0)
(4.98584 -0.0610279 0)
(4.98532 -0.0591087 0)
(4.98441 -0.0546395 0)
(4.9841 -0.0506155 0)
(4.98223 -0.040565 0)
(4.98328 -0.0387992 0)
(4.98113 -0.0258566 0)
(4.98173 -0.0267989 0)
(4.98038 -0.0183943 0)
(4.9791 -0.0196429 0)
(4.9784 -0.0198871 0)
(4.97792 -0.0208842 0)
(4.978 -0.0212941 0)
(4.97801 -0.0213144 0)
(4.97811 -0.0210431 0)
(4.97808 -0.0207552 0)
(4.97801 -0.0207169 0)