/*--------------------------------*- C++ -*----------------------------------*\
  =========                 |
  \\      /  F ield         | OpenFOAM: The Open Source CFD Toolbox
   \\    /   O peration     | Website:  https://openfoam.org
    \\  /    A nd           | Version:  7
     \\/     M anipulation  |
\*---------------------------------------------------------------------------*/
FoamFile
{
    version     2.0;
    format      ascii;
    class       volScalarField;
    location    "0.48";
    object      p;
}
// * * * * * * * * * * * * * * * * * * * * * * * * * * * * * * * * * * * * * //

dimensions      [1 -1 -2 0 0 0 0];

internalField   nonuniform List<scalar> 
324000
(
0.257814
0.427735
0.620484
0.842997
0.879147
0.907122
0.884133
0.841814
0.806562
0.809542
0.822081
0.845003
0.856843
0.860258
0.855809
0.850193
0.847653
0.84471
0.84225
0.843005
0.843703
0.842665
0.841103
0.839763
0.839894
0.843348
0.846498
0.847509
0.847397
0.846054
0.846413
0.848067
0.845081
0.832295
0.820439
0.813006
0.808207
0.805988
0.80431
0.802093
0.799878
0.798087
0.799098
0.799645
0.801275
0.803677
0.813519
0.829321
0.849463
0.863448
0.864277
0.857404
0.844586
0.854036
0.907613
0.942313
0.95715
0.957959
0.957493
0.96036
0.964222
0.970881
0.980634
0.9912
0.998158
1.00005
1.00012
1.00007
1.00001
1
1
1
1
1
1
1
1
1
1
1
0.131397
0.133509
0.174067
0.340512
0.610162
0.812265
0.891819
0.880436
0.873108
0.865332
0.845777
0.837649
0.843004
0.851172
0.853033
0.849035
0.846732
0.84517
0.84158
0.839595
0.840626
0.842383
0.842664
0.841665
0.841629
0.843259
0.844543
0.845291
0.844538
0.843558
0.843223
0.843624
0.839448
0.827368
0.81596
0.809226
0.805
0.803569
0.802728
0.800578
0.798019
0.796599
0.797863
0.799321
0.802899
0.807442
0.818681
0.833273
0.849229
0.862601
0.860242
0.850522
0.844594
0.854631
0.904077
0.940254
0.956558
0.956584
0.956231
0.958959
0.962801
0.969653
0.979698
0.990602
0.997909
0.999998
1.00011
1.00006
1.00001
1
1
1
1
1
1
1
1
1
1
1
0.131712
0.131613
0.131659
0.131525
0.182853
0.33159
0.584131
0.787731
0.911428
0.894557
0.847312
0.843444
0.848356
0.843844
0.843616
0.844518
0.845306
0.84355
0.839361
0.836709
0.838024
0.839855
0.83947
0.838947
0.839882
0.84143
0.843453
0.843693
0.842516
0.841934
0.841668
0.843017
0.839133
0.826688
0.815781
0.809506
0.806817
0.806787
0.806043
0.801975
0.79803
0.795578
0.794978
0.797196
0.803936
0.810886
0.819393
0.833297
0.84884
0.860702
0.858669
0.846449
0.843097
0.85713
0.899867
0.937229
0.955505
0.955151
0.954903
0.9575
0.961357
0.96843
0.978768
0.990011
0.997668
0.999944
1.00009
1.00005
1.00001
1
1
1
1
1
1
1
1
1
1
1
0.131701
0.131665
0.131686
0.131642
0.13164
0.131592
0.174181
0.334276
0.583617
0.754521
0.812109
0.850932
0.836222
0.82756
0.829181
0.838066
0.844253
0.844938
0.841918
0.838219
0.83675
0.837714
0.838873
0.838468
0.837709
0.837414
0.838125
0.838373
0.83942
0.841877
0.8439
0.846722
0.841287
0.828672
0.817964
0.811774
0.808967
0.807213
0.803368
0.796322
0.792115
0.791823
0.795045
0.800565
0.807175
0.814515
0.822167
0.834368
0.850721
0.857706
0.858204
0.84806
0.843372
0.860362
0.897331
0.935288
0.954154
0.953445
0.953368
0.955896
0.959858
0.967211
0.97785
0.989432
0.997436
0.999894
1.00008
1.00005
1.00001
1
1
1
1
1
1
1
1
1
1
1
0.131688
0.131662
0.13164
0.131632
0.131602
0.131603
0.13169
0.131589
0.170505
0.342228
0.60193
0.791238
0.808388
0.838168
0.832604
0.834178
0.83774
0.842117
0.842488
0.840398
0.83864
0.839024
0.840308
0.838898
0.837241
0.83654
0.837412
0.839261
0.843317
0.847784
0.850238
0.850577
0.84168
0.827608
0.816975
0.809043
0.804017
0.800437
0.796262
0.792843
0.79379
0.797669
0.804445
0.812097
0.817589
0.82071
0.824296
0.836363
0.846244
0.847223
0.854922
0.850681
0.846339
0.861354
0.895915
0.934158
0.951936
0.951206
0.951504
0.954061
0.95827
0.96598
0.976936
0.988868
0.997218
0.999848
1.00006
1.00004
1.00001
1
1
1
1
1
1
1
1
1
1
1
0.131652
0.131643
0.131636
0.131636
0.131634
0.131701
0.131639
0.131628
0.131674
0.131638
0.183564
0.34371
0.588367
0.791398
0.81064
0.842044
0.841795
0.842944
0.844816
0.844449
0.845722
0.846321
0.844864
0.840688
0.838034
0.837763
0.83987
0.84334
0.848135
0.850646
0.851075
0.847938
0.837692
0.82387
0.812077
0.802609
0.798661
0.798295
0.798366
0.799704
0.80298
0.806925
0.811544
0.815021
0.815626
0.81614
0.820841
0.830837
0.850531
0.851845
0.848501
0.847096
0.843624
0.864426
0.896815
0.932789
0.948956
0.948553
0.949365
0.95202
0.956607
0.964723
0.976015
0.98832
0.997015
0.999806
1.00005
1.00004
1.00001
1
1
1
1
1
1
1
1
1
1
1
0.131644
0.131631
0.131643
0.131648
0.131679
0.13166
0.131657
0.131666
0.131632
0.131613
0.131617
0.131624
0.186384
0.369785
0.594373
0.782432
0.810668
0.83681
0.843133
0.842216
0.850844
0.849205
0.843533
0.839644
0.840116
0.843252
0.847628
0.852409
0.856395
0.855082
0.851269
0.843848
0.832407
0.819647
0.809934
0.80418
0.802611
0.803775
0.804697
0.804715
0.804384
0.805283
0.805397
0.805138
0.808045
0.814115
0.822429
0.834815
0.846399
0.846322
0.851941
0.853927
0.852854
0.869232
0.898033
0.931898
0.946242
0.946017
0.947103
0.949872
0.954907
0.963434
0.975082
0.98779
0.996829
0.999769
1.00004
1.00003
1.00001
1
1
1
1
1
1
1
1
1
1
1
0.131636
0.131658
0.131669
0.131682
0.13168
0.131662
0.131655
0.131631
0.131603
0.131605
0.13163
0.131648
0.131651
0.132142
0.197686
0.388326
0.610517
0.793175
0.814857
0.832873
0.854464
0.848836
0.838327
0.837595
0.842189
0.84993
0.854412
0.856814
0.857429
0.853272
0.845908
0.838615
0.829185
0.819421
0.811431
0.807447
0.807327
0.806285
0.805098
0.802241
0.803768
0.806455
0.807159
0.804817
0.802053
0.804303
0.81464
0.833401
0.845828
0.847394
0.853236
0.856051
0.856599
0.863882
0.888181
0.922214
0.942103
0.943702
0.944647
0.947673
0.953207
0.962121
0.974142
0.987282
0.996661
0.999736
1.00003
1.00003
1.00001
1
1
1
1
1
1
1
1
1
1
1
0.131669
0.13168
0.131679
0.131666
0.131645
0.13162
0.131605
0.131605
0.131613
0.131628
0.131645
0.131652
0.131651
0.131638
0.131634
0.134206
0.221334
0.443635
0.658686
0.792984
0.844125
0.83759
0.836219
0.83791
0.844954
0.851157
0.851967
0.852928
0.852084
0.84817
0.841867
0.835661
0.828685
0.821227
0.815003
0.811667
0.808269
0.804162
0.800242
0.799905
0.802209
0.802183
0.801434
0.801419
0.802111
0.80728
0.819501
0.836704
0.841881
0.844315
0.8526
0.857451
0.8609
0.872844
0.897964
0.925512
0.940293
0.94079
0.942169
0.945598
0.951552
0.960801
0.973209
0.986802
0.996514
0.999709
1.00003
1.00002
1.00001
1
1
1
1
1
1
1
1
1
1
1
0.131691
0.131671
0.131643
0.131612
0.131596
0.131594
0.131609
0.13163
0.131643
0.131653
0.131653
0.131648
0.131642
0.131639
0.131652
0.131672
0.131675
0.141056
0.258371
0.477208
0.731878
0.787472
0.835871
0.84046
0.850381
0.851875
0.848384
0.844514
0.839252
0.837637
0.837203
0.834203
0.828927
0.822152
0.816079
0.812443
0.806418
0.799741
0.79622
0.795756
0.796765
0.797704
0.799586
0.799973
0.801752
0.808494
0.821613
0.832592
0.832809
0.838878
0.8492
0.857836
0.8655
0.876636
0.899132
0.924676
0.936301
0.937576
0.939745
0.943486
0.949868
0.959475
0.972293
0.986353
0.996388
0.999686
1.00002
1.00002
1.00001
1
1
1
1
1
1
1
1
1
1
1
0.131632
0.131601
0.131579
0.131579
0.131603
0.131631
0.131646
0.131654
0.131656
0.131655
0.131646
0.131643
0.131651
0.131666
0.131689
0.131725
0.131776
0.131788
0.131766
0.152124
0.285607
0.548408
0.785134
0.821066
0.846764
0.839535
0.832545
0.829501
0.832026
0.836878
0.84038
0.837532
0.830141
0.821051
0.815751
0.811198
0.803512
0.796633
0.794282
0.794124
0.793787
0.794751
0.797575
0.799325
0.805003
0.814769
0.826073
0.829782
0.829446
0.837859
0.849396
0.858669
0.867748
0.878959
0.899687
0.922744
0.932024
0.934281
0.936907
0.941246
0.948139
0.958129
0.971396
0.985964
0.996295
0.999671
1.00001
1.00002
1.00001
1
1
1
1
1
1
1
1
1
1
1
0.131575
0.131597
0.131626
0.131639
0.131648
0.131653
0.131654
0.131653
0.131645
0.13164
0.131644
0.131657
0.131679
0.1317
0.131723
0.131767
0.131838
0.131912
0.131942
0.131907
0.13187
0.182339
0.375303
0.610203
0.796326
0.80592
0.829788
0.831489
0.836667
0.848436
0.85019
0.842686
0.83045
0.819445
0.814254
0.808759
0.801627
0.797527
0.795517
0.79285
0.789599
0.792155
0.797032
0.801627
0.809418
0.820239
0.830379
0.830319
0.830746
0.838992
0.84978
0.8592
0.868334
0.880792
0.900568
0.919948
0.928018
0.930952
0.934159
0.938971
0.946309
0.956724
0.970492
0.985596
0.996231
0.999663
1.00001
1.00001
1.00001
1
1
1
1
1
1
1
1
1
1
1
0.131623
0.13164
0.131654
0.13166
0.13166
0.131649
0.131638
0.131638
0.131645
0.131657
0.131673
0.13169
0.131701
0.131716
0.131745
0.131798
0.131873
0.131961
0.132044
0.132075
0.132098
0.132054
0.132822
0.228235
0.475707
0.714477
0.837111
0.839872
0.853473
0.863164
0.856623
0.842911
0.826758
0.81764
0.812068
0.807434
0.802063
0.79967
0.798056
0.792355
0.788141
0.79154
0.796852
0.803637
0.813295
0.823305
0.828393
0.827453
0.830613
0.839424
0.848958
0.858295
0.869083
0.882664
0.900558
0.916771
0.924088
0.927875
0.931473
0.936689
0.9444
0.955268
0.969665
0.98524
0.996133
0.999651
1.00001
1.00001
1.00001
1
1
1
1
1
1
1
1
1
1
1
0.131652
0.131656
0.131656
0.13165
0.131641
0.131639
0.131643
0.131653
0.131666
0.131682
0.131695
0.131695
0.131702
0.131723
0.131757
0.131811
0.131889
0.131986
0.132096
0.13215
0.13215
0.132148
0.132157
0.132041
0.148245
0.310751
0.611979
0.7951
0.856692
0.867114
0.852379
0.836392
0.821697
0.815538
0.812803
0.806416
0.80196
0.801853
0.79775
0.791187
0.791349
0.797516
0.799695
0.804322
0.811988
0.819128
0.821612
0.822591
0.828212
0.837519
0.847104
0.856764
0.868618
0.88274
0.899512
0.913059
0.920062
0.924431
0.928687
0.934441
0.942508
0.953783
0.96877
0.985006
0.996191
0.999665
1
1.00001
1
1
1
1
1
1
1
1
1
1
1
1
0.131654
0.131648
0.131645
0.131642
0.131641
0.131646
0.131657
0.131675
0.131696
0.131703
0.131696
0.131687
0.13168
0.131684
0.131715
0.13178
0.131879
0.131991
0.132111
0.132164
0.132154
0.132149
0.132143
0.132095
0.131907
0.131232
0.195292
0.437071
0.721673
0.842168
0.826088
0.833052
0.817539
0.813101
0.812198
0.807117
0.805897
0.805705
0.796981
0.791786
0.798654
0.803945
0.803029
0.806735
0.811533
0.81333
0.814127
0.818784
0.825882
0.83453
0.844557
0.855351
0.86733
0.881569
0.897355
0.9093
0.916355
0.921194
0.926078
0.932204
0.940569
0.952401
0.967956
0.984661
0.996195
0.999674
1
1.00001
1
1
1
1
1
1
1
1
1
1
1
1
0.131643
0.131638
0.131641
0.131647
0.131654
0.131665
0.131681
0.131699
0.131706
0.131702
0.131687
0.131662
0.131639
0.131639
0.131659
0.131702
0.1318
0.131921
0.13205
0.132057
0.132008
0.132042
0.13203
0.131962
0.131599
0.130752
0.128403
0.141074
0.294025
0.628862
0.774851
0.834701
0.811611
0.819225
0.810971
0.804513
0.806997
0.804351
0.797543
0.798914
0.806837
0.802012
0.797499
0.800277
0.804283
0.804858
0.808766
0.817104
0.824203
0.831953
0.842118
0.854043
0.866187
0.880005
0.894427
0.905233
0.912212
0.917352
0.922873
0.929742
0.938645
0.950912
0.96721
0.984756
0.996302
0.999691
1
1.00001
1
1
1
1
1
1
1
1
1
1
1
1
0.13164
0.131644
0.131651
0.131664
0.131683
0.131694
0.131701
0.131703
0.131698
0.131681
0.131655
0.131633
0.131619
0.131624
0.131629
0.131632
0.131682
0.131706
0.131694
0.131606
0.131399
0.131402
0.131272
0.130802
0.129992
0.12848
0.12628
0.124316
0.123262
0.201642
0.513202
0.781107
0.793974
0.825076
0.810571
0.805212
0.808886
0.79507
0.790661
0.799798
0.808991
0.796209
0.791208
0.793342
0.794875
0.79759
0.807392
0.817021
0.82272
0.829682
0.839884
0.85224
0.864849
0.877883
0.890936
0.901197
0.908104
0.913479
0.919247
0.926569
0.936363
0.94948
0.966297
0.984557
0.996401
0.999713
1
1
1
1
1
1
1
1
1
1
1
1
1
1
0.131651
0.131663
0.131685
0.131702
0.131707
0.131704
0.131703
0.131694
0.13167
0.131651
0.131642
0.131636
0.131628
0.131635
0.131633
0.131621
0.1316
0.131491
0.131299
0.131097
0.130769
0.13048
0.130096
0.129304
0.12815
0.126381
0.124341
0.123283
0.123228
0.123384
0.163119
0.378634
0.646756
0.78243
0.784609
0.810442
0.814571
0.79145
0.789547
0.801774
0.798234
0.786438
0.785736
0.79041
0.791962
0.797974
0.810242
0.815553
0.819681
0.827279
0.837601
0.849352
0.862283
0.875267
0.886766
0.896569
0.904274
0.910505
0.916565
0.923934
0.933965
0.947845
0.965996
0.984824
0.996565
0.999738
1
1
1
1
1
1
1
1
1
1
1
1
1
1
0.13169
0.131702
0.131709
0.131709
0.131707
0.131698
0.131689
0.131678
0.131662
0.131659
0.131663
0.131681
0.131692
0.131693
0.131678
0.131629
0.131543
0.131383
0.131079
0.130768
0.1304
0.129808
0.129176
0.128154
0.126341
0.124322
0.12333
0.12322
0.123757
0.125439
0.127238
0.132867
0.264838
0.500597
0.693407
0.784558
0.785516
0.776992
0.792264
0.802397
0.783011
0.772968
0.785214
0.794136
0.798045
0.806117
0.812538
0.811507
0.815507
0.824899
0.834886
0.845451
0.857796
0.871328
0.88246
0.890924
0.898332
0.905729
0.913379
0.921783
0.932237
0.946293
0.96519
0.984933
0.996757
0.999767
0.999999
1
1
1
1
1
1
1
1
1
1
1
1
1
0.131711
0.131706
0.131698
0.131689
0.131683
0.131679
0.131682
0.13169
0.131694
0.131704
0.131739
0.131819
0.131864
0.131853
0.131824
0.131752
0.131569
0.131403
0.13107
0.130623
0.130208
0.129447
0.128215
0.12637
0.124469
0.123378
0.123542
0.123971
0.125614
0.128528
0.131622
0.135893
0.13971
0.172626
0.342126
0.556534
0.686884
0.758405
0.782248
0.788049
0.769578
0.772461
0.79752
0.798766
0.8022
0.813077
0.809498
0.805808
0.811837
0.822265
0.83106
0.840565
0.85193
0.865256
0.877766
0.886432
0.892815
0.90024
0.908781
0.918209
0.929593
0.945043
0.965421
0.985359
0.996984
0.999797
0.999999
1
1
1
1
1
1
1
1
1
1
1
1
1
0.131694
0.13168
0.131673
0.131669
0.131676
0.13169
0.131706
0.131725
0.131767
0.131815
0.13185
0.131923
0.131991
0.131977
0.131941
0.131887
0.131743
0.131535
0.131264
0.130718
0.129862
0.128501
0.126177
0.124548
0.123801
0.123933
0.124896
0.126299
0.127784
0.130476
0.134521
0.139599
0.145644
0.151655
0.155823
0.206675
0.357863
0.571749
0.68964
0.749324
0.755855
0.79211
0.810811
0.799582
0.804002
0.809418
0.802848
0.799403
0.810622
0.818412
0.825227
0.834742
0.846087
0.858229
0.870509
0.881181
0.89014
0.897459
0.905097
0.914816
0.927072
0.943385
0.964939
0.98579
0.997253
0.99983
0.999999
1
1
1
1
1
1
1
1
1
1
1
1
1
0.13166
0.131665
0.131676
0.131691
0.131705
0.131724
0.131752
0.131778
0.131823
0.131875
0.131897
0.131949
0.132018
0.132003
0.13195
0.131877
0.131771
0.131531
0.131103
0.130054
0.127983
0.125916
0.124499
0.124055
0.124636
0.12516
0.126053
0.128317
0.130982
0.134625
0.140083
0.145996
0.151915
0.157979
0.16432
0.17039
0.175408
0.224241
0.359166
0.532532
0.688684
0.773998
0.789117
0.784272
0.801641
0.804391
0.78984
0.795547
0.809392
0.812913
0.817736
0.828511
0.841586
0.852767
0.863249
0.873881
0.883948
0.893164
0.902218
0.911934
0.924724
0.942839
0.96539
0.986431
0.997541
0.999861
1
1
1
1
1
1
1
1
1
1
1
1
1
1
0.131682
0.131701
0.131721
0.131745
0.13176
0.131774
0.131787
0.131796
0.131826
0.131882
0.131909
0.131927
0.131979
0.131955
0.131846
0.131672
0.131412
0.130603
0.129005
0.127117
0.125466
0.124302
0.124402
0.124409
0.125066
0.126575
0.127248
0.129956
0.135259
0.140533
0.146335
0.151648
0.157087
0.163282
0.169696
0.175875
0.182858
0.189912
0.195888
0.233382
0.353852
0.509609
0.63572
0.721652
0.787926
0.778519
0.773864
0.801801
0.805584
0.804
0.808587
0.824219
0.838475
0.850103
0.858747
0.867243
0.876612
0.886522
0.89704
0.90848
0.922233
0.941271
0.965512
0.9872
0.997862
0.999891
1
1
1
1
1
1
1
1
1
1
1
1
1
1
0.13175
0.131772
0.131781
0.131793
0.131784
0.131742
0.131739
0.13172
0.131649
0.131681
0.131677
0.131575
0.131493
0.131363
0.131018
0.130168
0.12891
0.127553
0.125937
0.124724
0.124127
0.123775
0.124351
0.124683
0.124985
0.127548
0.131511
0.135513
0.140327
0.145906
0.151566
0.157618
0.163419
0.168945
0.174875
0.181598
0.188076
0.195556
0.203543
0.211584
0.219212
0.250853
0.347815
0.526618
0.670856
0.724797
0.768999
0.813755
0.803602
0.796375
0.807884
0.819672
0.830888
0.842087
0.8534
0.862989
0.871565
0.88117
0.891803
0.904194
0.920027
0.941428
0.966358
0.988128
0.998187
0.999918
1
1
1
1
1
1
1
1
1
1
1
1
1
1
0.131812
0.131812
0.131797
0.131762
0.131698
0.131575
0.131454
0.131337
0.131144
0.131046
0.130985
0.130869
0.130583
0.129979
0.1291
0.127974
0.126449
0.125138
0.124012
0.123506
0.123742
0.123648
0.123908
0.12603
0.128033
0.13067
0.136489
0.142251
0.14738
0.152961
0.157498
0.163071
0.169246
0.175189
0.181138
0.187987
0.194816
0.201777
0.209785
0.218605
0.227409
0.236751
0.246426
0.28253
0.382719
0.569261
0.728659
0.794451
0.782123
0.788394
0.806252
0.813931
0.820384
0.83065
0.843692
0.855911
0.866203
0.876165
0.887729
0.900802
0.917138
0.940251
0.967237
0.989235
0.998521
0.999941
1
1
1
1
1
1
1
1
1
1
1
1
1
1
0.131766
0.131722
0.131661
0.131573
0.131467
0.131335
0.131148
0.130996
0.130853
0.130632
0.130379
0.130022
0.129403
0.128457
0.127137
0.125793
0.124402
0.123553
0.123452
0.123333
0.12364
0.12461
0.125628
0.12838
0.134004
0.139011
0.143023
0.147927
0.152883
0.158171
0.163599
0.168434
0.173577
0.179737
0.186579
0.193186
0.201093
0.209374
0.217332
0.225844
0.235646
0.245253
0.255111
0.266137
0.278978
0.329153
0.465969
0.634826
0.72285
0.789886
0.801002
0.800674
0.808122
0.820464
0.832415
0.844482
0.857355
0.86971
0.882009
0.896611
0.915932
0.940844
0.968671
0.990453
0.998838
0.99996
1
1
1
1
1
1
1
1
1
1
1
1
1
1
0.131622
0.131566
0.131496
0.131429
0.13134
0.131257
0.131129
0.131039
0.130917
0.130526
0.129948
0.129076
0.127758
0.126312
0.124906
0.123973
0.123438
0.123298
0.123448
0.123871
0.124719
0.127817
0.132472
0.135753
0.139548
0.144535
0.148963
0.15377
0.158294
0.16267
0.168778
0.174824
0.181022
0.187589
0.194425
0.201536
0.208916
0.216782
0.225551
0.2344
0.243547
0.253672
0.264993
0.276079
0.287295
0.300079
0.324089
0.409786
0.59943
0.751
0.775518
0.781894
0.797567
0.813379
0.824486
0.83422
0.846894
0.861928
0.876782
0.892304
0.913155
0.940861
0.970474
0.991812
0.999133
0.999975
1
1
1
1
1
1
1
1
1
1
1
1
1
1
0.131471
0.131449
0.131384
0.131387
0.131365
0.131324
0.131255
0.131078
0.130726
0.129966
0.128499
0.12675
0.125237
0.124305
0.123752
0.123575
0.123769
0.124144
0.125039
0.127672
0.131011
0.133418
0.137265
0.141654
0.145328
0.149378
0.153916
0.158585
0.164395
0.169748
0.175153
0.181464
0.187901
0.194719
0.201526
0.20878
0.216457
0.224372
0.232782
0.241977
0.251533
0.261414
0.27246
0.284581
0.297433
0.30994
0.324323
0.341953
0.405535
0.548128
0.683994
0.761175
0.794554
0.804952
0.815271
0.828181
0.840685
0.853835
0.869957
0.88895
0.913144
0.942164
0.972729
0.993217
0.999389
0.999986
1
1
1
1
1
1
1
1
1
1
1
1
1
1
0.131508
0.131462
0.131363
0.131306
0.131256
0.131019
0.13052
0.129605
0.128205
0.126791
0.125582
0.12469
0.124077
0.123927
0.124183
0.124699
0.125597
0.127789
0.129925
0.132034
0.135427
0.138818
0.141703
0.145871
0.150523
0.155076
0.160519
0.1655
0.170839
0.177298
0.182843
0.188778
0.19505
0.201214
0.208141
0.215372
0.222886
0.231125
0.24004
0.249325
0.259177
0.27011
0.280898
0.293089
0.306463
0.321015
0.334978
0.349304
0.367834
0.413245
0.541718
0.692558
0.763123
0.781785
0.795089
0.811416
0.829717
0.84732
0.86396
0.884095
0.911248
0.943784
0.975533
0.994658
0.999601
0.999992
1
1
1
1
1
1
1
1
1
1
1
1
1
1
0.131116
0.13083
0.13047
0.129882
0.129076
0.128131
0.127033
0.126093
0.125355
0.124791
0.124502
0.124221
0.124406
0.12488
0.125465
0.126934
0.128428
0.130484
0.133377
0.135776
0.138733
0.143428
0.147912
0.15247
0.157447
0.162635
0.167753
0.173436
0.178434
0.183684
0.189606
0.195276
0.201707
0.208534
0.215509
0.223259
0.231425
0.24018
0.249057
0.25875
0.26921
0.28018
0.291716
0.303597
0.316533
0.330803
0.347043
0.362923
0.377534
0.397701
0.438986
0.545412
0.670366
0.744584
0.77644
0.795878
0.815729
0.836628
0.857399
0.881868
0.911882
0.946521
0.97877
0.996034
0.999761
0.999996
1
1
1
1
1
1
1
1
1
1
1
1
1
1
0.12999
0.129491
0.128816
0.12791
0.126815
0.125886
0.125069
0.124531
0.124406
0.124329
0.124588
0.12494
0.125201
0.126166
0.12717
0.128868
0.131341
0.133454
0.137141
0.14204
0.146388
0.150642
0.155682
0.160391
0.165151
0.169916
0.174491
0.179366
0.18481
0.189829
0.19576
0.202407
0.208711
0.21584
0.223451
0.231264
0.239909
0.249064
0.258648
0.268577
0.279136
0.290319
0.303224
0.316219
0.329178
0.342925
0.358197
0.375371
0.393081
0.409222
0.433091
0.474429
0.570159
0.685345
0.754406
0.78576
0.806438
0.825902
0.847869
0.876972
0.912159
0.950371
0.982469
0.997275
0.999872
0.999998
1
1
1
1
1
1
1
1
1
1
1
1
1
1
0.128461
0.127368
0.12617
0.125301
0.124619
0.124198
0.124049
0.123987
0.124148
0.124251
0.124399
0.125521
0.1266
0.127892
0.130787
0.133517
0.137338
0.141754
0.145639
0.149986
0.154408
0.158538
0.162786
0.166811
0.171259
0.175793
0.180793
0.185623
0.191181
0.197419
0.203421
0.209929
0.217276
0.224785
0.232499
0.24055
0.249045
0.257645
0.26735
0.277551
0.288243
0.29967
0.311527
0.325426
0.340747
0.356085
0.371831
0.388499
0.407571
0.42509
0.443001
0.472674
0.518777
0.602265
0.693786
0.754393
0.789882
0.816223
0.84487
0.877713
0.915037
0.955518
0.986363
0.998299
0.99994
0.999999
1
1
1
1
1
1
1
1
1
1
1
1
1
1
0.125254
0.124643
0.124233
0.124118
0.124093
0.124046
0.124077
0.124078
0.124181
0.125238
0.126555
0.128187
0.131586
0.135005
0.138045
0.141832
0.145382
0.14941
0.153045
0.156555
0.160487
0.164401
0.168401
0.173125
0.177506
0.182444
0.187765
0.193685
0.199379
0.205663
0.21247
0.219224
0.226199
0.233243
0.241238
0.249816
0.258559
0.268252
0.277846
0.288288
0.299483
0.311638
0.323722
0.336528
0.350843
0.367161
0.384421
0.402696
0.420898
0.441534
0.461504
0.483958
0.51988
0.570878
0.642108
0.710951
0.760967
0.799796
0.838547
0.877832
0.920037
0.962021
0.990184
0.999058
0.999976
1
1
1
1
1
1
1
1
1
1
1
1
1
1
1
0.12403
0.124111
0.124229
0.124398
0.124833
0.125066
0.125505
0.126979
0.128718
0.130433
0.133357
0.136177
0.138642
0.142125
0.145215
0.148492
0.151641
0.155053
0.158853
0.162573
0.166515
0.171091
0.175418
0.180157
0.185409
0.19076
0.196163
0.201836
0.207893
0.213985
0.220235
0.2272
0.234415
0.24227
0.249908
0.258265
0.267344
0.276876
0.287287
0.298273
0.310001
0.322356
0.336497
0.3506
0.364829
0.380251
0.397503
0.41626
0.43623
0.456805
0.477974
0.499618
0.527395
0.570177
0.625067
0.685689
0.746366
0.797201
0.83948
0.881638
0.927479
0.969535
0.993632
0.999553
0.999992
1
1
1
1
1
1
1
1
1
1
1
1
1
1
1
0.124921
0.125248
0.125875
0.126489
0.127162
0.128568
0.130223
0.13184
0.134153
0.136242
0.138747
0.141989
0.144561
0.147239
0.15094
0.154358
0.158064
0.161678
0.165909
0.170365
0.174739
0.179198
0.184216
0.188893
0.193958
0.199169
0.2046
0.210124
0.21608
0.222262
0.229006
0.235731
0.24313
0.251049
0.25991
0.268816
0.278344
0.288213
0.298799
0.30996
0.321843
0.334556
0.347863
0.36306
0.379391
0.395549
0.412588
0.431115
0.451983
0.473782
0.496188
0.519555
0.545313
0.579479
0.626996
0.684596
0.740176
0.792524
0.839836
0.88763
0.936912
0.977461
0.996407
0.999827
0.999998
1
1
1
1
1
1
1
1
1
1
1
1
1
1
1
0.126029
0.12633
0.127111
0.128249
0.129154
0.130854
0.133427
0.135138
0.137625
0.141275
0.143854
0.146975
0.151215
0.154713
0.158226
0.162144
0.166369
0.170388
0.174235
0.178503
0.182773
0.187052
0.191388
0.196304
0.201099
0.206182
0.211724
0.217691
0.223809
0.230563
0.237675
0.245424
0.253413
0.26156
0.27005
0.279432
0.289177
0.299776
0.310661
0.322254
0.33469
0.348041
0.361786
0.376153
0.391893
0.409755
0.428323
0.447896
0.468282
0.491188
0.515319
0.539268
0.564601
0.595517
0.636882
0.688454
0.743953
0.796216
0.846261
0.898001
0.948824
0.985225
0.998332
0.999949
1
1
1
1
1
1
1
1
1
1
1
1
1
1
1
1
0.127824
0.129551
0.131053
0.133325
0.136737
0.139023
0.141385
0.145076
0.148042
0.151067
0.154521
0.157435
0.160619
0.164333
0.167546
0.170941
0.174317
0.178262
0.181963
0.185878
0.190032
0.194529
0.199233
0.204097
0.209477
0.215337
0.22125
0.227454
0.234267
0.241297
0.248525
0.256048
0.264026
0.272703
0.281589
0.29095
0.300851
0.311142
0.322391
0.334492
0.347402
0.360852
0.375682
0.391267
0.407677
0.424938
0.443897
0.4639
0.485336
0.508301
0.534065
0.56156
0.588063
0.614487
0.647771
0.69397
0.747872
0.802518
0.857012
0.912463
0.962518
0.991877
0.999408
0.999989
1
1
1
1
1
1
1
1
1
1
1
1
1
1
1
1
0.134621
0.136962
0.139341
0.141267
0.143968
0.147002
0.149131
0.151826
0.154925
0.157332
0.160489
0.163582
0.166281
0.169551
0.173217
0.176662
0.180291
0.184207
0.188727
0.192916
0.197776
0.202651
0.207862
0.21339
0.219109
0.224829
0.231144
0.237602
0.244119
0.250957
0.258406
0.266152
0.274221
0.282625
0.292027
0.30176
0.312228
0.323415
0.335175
0.347467
0.360582
0.375006
0.389998
0.406073
0.423082
0.441213
0.460577
0.481753
0.504041
0.527456
0.552581
0.580302
0.610387
0.641545
0.674588
0.712862
0.758298
0.811221
0.870412
0.929927
0.976274
0.996532
0.999855
0.999999
1
1
1
1
1
1
1
1
1
1
1
1
1
1
1
1
0.14096
0.142943
0.145798
0.148309
0.150049
0.153027
0.15645
0.158789
0.161666
0.164982
0.16788
0.171575
0.175339
0.178539
0.182224
0.186356
0.190652
0.194639
0.198903
0.203697
0.208086
0.213086
0.218093
0.223229
0.228803
0.234627
0.240433
0.246934
0.253865
0.261159
0.268649
0.276857
0.28556
0.294845
0.304285
0.314685
0.325477
0.336837
0.349024
0.362189
0.376026
0.390277
0.405692
0.422251
0.440159
0.459039
0.478838
0.499974
0.523205
0.548468
0.575285
0.602818
0.630863
0.661337
0.696713
0.737859
0.784799
0.837781
0.896137
0.952102
0.988209
0.998976
0.999978
1
1
1
1
1
1
1
1
1
1
1
1
1
1
1
1
1
0.149654
0.151984
0.154326
0.15747
0.160191
0.162333
0.165371
0.168428
0.171187
0.174374
0.177397
0.18038
0.183985
0.187619
0.190917
0.194692
0.198624
0.202904
0.206892
0.21134
0.216298
0.220944
0.226369
0.232105
0.237702
0.243968
0.25075
0.257487
0.264673
0.272512
0.280762
0.289055
0.297968
0.307505
0.31766
0.327891
0.339121
0.351103
0.363546
0.376564
0.390725
0.40627
0.422441
0.439204
0.457073
0.476628
0.497804
0.520188
0.543498
0.568438
0.59606
0.626423
0.658258
0.690663
0.724656
0.762764
0.808589
0.863978
0.924001
0.973267
0.995905
0.999821
0.999998
1
1
1
1
1
1
1
1
1
1
1
1
1
1
1
1
1
0.1575
0.160073
0.162137
0.164327
0.167521
0.170131
0.172291
0.175243
0.178173
0.181109
0.184598
0.187698
0.190778
0.194656
0.198846
0.202622
0.206707
0.211119
0.216067
0.220811
0.225824
0.231416
0.236957
0.24283
0.2493
0.255726
0.262413
0.269704
0.277235
0.284808
0.292943
0.301859
0.310953
0.320367
0.33062
0.341832
0.353201
0.365164
0.378275
0.392446
0.407058
0.422286
0.438917
0.456935
0.475997
0.495873
0.517072
0.540279
0.565435
0.592005
0.619896
0.649597
0.682083
0.717886
0.756705
0.7991
0.84732
0.902221
0.955794
0.989692
0.99919
0.999985
1
1
1
1
1
1
1
1
1
1
1
1
1
1
1
1
1
1
0.165893
0.168312
0.171187
0.173409
0.175732
0.178987
0.181897
0.184669
0.187829
0.19097
0.194322
0.198215
0.201863
0.205378
0.2095
0.213911
0.218192
0.222653
0.227312
0.232439
0.237583
0.242876
0.248595
0.254477
0.260399
0.266938
0.273806
0.280773
0.288324
0.296665
0.305202
0.31388
0.323618
0.334148
0.344807
0.355839
0.368037
0.381092
0.394474
0.408613
0.423963
0.440364
0.45752
0.475617
0.495174
0.516206
0.538373
0.561817
0.587121
0.61473
0.644498
0.67606
0.709486
0.74562
0.785819
0.831886
0.884718
0.939631
0.981364
0.997721
0.999927
0.999999
1
1
1
1
1
1
1
1
1
1
1
1
1
1
1
1
1
1
0.174589
0.176751
0.179243
0.18235
0.184756
0.187155
0.190317
0.19335
0.196495
0.199779
0.202974
0.206379
0.210405
0.214469
0.218096
0.222259
0.226868
0.231465
0.236295
0.24126
0.246685
0.252456
0.25841
0.264657
0.271418
0.278364
0.285612
0.293479
0.301761
0.310135
0.31913
0.328892
0.338834
0.349181
0.360348
0.372299
0.38461
0.397679
0.411698
0.426584
0.442296
0.459078
0.477078
0.496022
0.515992
0.537448
0.560801
0.585954
0.612567
0.640579
0.670292
0.702496
0.738197
0.777923
0.822277
0.87226
0.926051
0.972301
0.995331
0.99977
0.999997
1
1
1
1
1
1
1
1
1
1
1
1
1
1
1
1
1
1
1
0.183408
0.186071
0.18836
0.190888
0.1942
0.196983
0.199711
0.202928
0.206187
0.209812
0.213552
0.217221
0.220967
0.22516
0.229833
0.234154
0.238706
0.243802
0.248948
0.254343
0.260006
0.265821
0.271956
0.27848
0.285139
0.292227
0.299758
0.30756
0.315806
0.324575
0.333728
0.343394
0.353719
0.364585
0.376012
0.388224
0.401096
0.414631
0.429165
0.444822
0.461238
0.478284
0.496576
0.516575
0.538004
0.560358
0.58377
0.609025
0.636795
0.667004
0.699124
0.733154
0.770136
0.811797
0.859632
0.912696
0.96227
0.991827
0.999425
0.999991
1
1
1
1
1
1
1
1
1
1
1
1
1
1
1
1
1
1
1
1
0.192706
0.195244
0.198258
0.200796
0.203312
0.206702
0.209896
0.213059
0.216493
0.219848
0.223664
0.227766
0.231813
0.235891
0.2401
0.244927
0.249803
0.254645
0.259911
0.265442
0.271215
0.277286
0.283646
0.290334
0.29737
0.304762
0.312644
0.320902
0.32956
0.338779
0.34854
0.358656
0.369395
0.380952
0.392929
0.405399
0.418884
0.433427
0.448491
0.464158
0.481127
0.49957
0.518964
0.539063
0.560414
0.583737
0.609116
0.636072
0.664399
0.694424
0.726823
0.762624
0.80301
0.849037
0.900524
0.951604
0.986975
0.998727
0.99997
1
1
1
1
1
1
1
1
1
1
1
1
1
1
1
1
1
1
1
1
1
0.202713
0.205263
0.207875
0.211195
0.214169
0.216844
0.220264
0.22381
0.227369
0.231248
0.234969
0.238877
0.243236
0.247769
0.252381
0.257046
0.262103
0.267472
0.273009
0.27875
0.284798
0.291261
0.297935
0.304859
0.312322
0.320142
0.328149
0.336804
0.346021
0.355315
0.365242
0.376081
0.387234
0.398672
0.411155
0.424622
0.438429
0.452833
0.468605
0.48561
0.503206
0.521517
0.541346
0.562994
0.585987
0.610009
0.635489
0.663135
0.693276
0.725776
0.760655
0.798768
0.841738
0.890523
0.941407
0.981089
0.997514
0.999913
0.999999
1
1
1
1
1
1
1
1
1
1
1
1
1
1
1
1
1
1
1
1
1
0.213102
0.216034
0.21884
0.221473
0.22494
0.228467
0.231597
0.235097
0.238874
0.242679
0.246846
0.251154
0.255348
0.259855
0.264798
0.269798
0.274952
0.280472
0.286112
0.292132
0.298584
0.30503
0.311933
0.319405
0.326885
0.334849
0.343577
0.352399
0.361549
0.371635
0.382194
0.392901
0.404466
0.416995
0.42987
0.443252
0.457843
0.473524
0.489754
0.506732
0.52508
0.544856
0.565665
0.587516
0.610917
0.636275
0.663526
0.69247
0.723282
0.756625
0.793538
0.835251
0.882478
0.932684
0.975027
0.995805
0.999792
0.999998
1
1
1
1
1
1
1
1
1
1
1
1
1
1
1
1
1
1
1
1
1
1
0.22428
0.227052
0.230307
0.233509
0.236406
0.239868
0.243698
0.247348
0.251161
0.255215
0.259352
0.263658
0.268381
0.273214
0.277991
0.283261
0.288837
0.294421
0.300508
0.306815
0.313257
0.320335
0.3276
0.334998
0.343154
0.351671
0.360276
0.369647
0.379644
0.389767
0.40054
0.412233
0.424315
0.436804
0.450316
0.464805
0.479844
0.495631
0.512637
0.5308
0.549848
0.569953
0.591543
0.614759
0.639469
0.665703
0.693779
0.724067
0.756876
0.79271
0.832569
0.877512
0.926143
0.969612
0.993836
0.999594
0.999994
1
1
1
1
1
1
1
1
1
1
1
1
1
1
1
1
1