/*--------------------------------*- C++ -*----------------------------------*\
  =========                 |
  \\      /  F ield         | OpenFOAM: The Open Source CFD Toolbox
   \\    /   O peration     | Website:  https://openfoam.org
    \\  /    A nd           | Version:  7
     \\/     M anipulation  |
\*---------------------------------------------------------------------------*/
FoamFile
{
    version     2.0;
    format      ascii;
    class       volScalarField;
    location    "0.48";
    object      rho;
}
// * * * * * * * * * * * * * * * * * * * * * * * * * * * * * * * * * * * * * //

dimensions      [1 -3 0 0 0 0 0];

internalField   nonuniform List<scalar> 
324000
(
0.451344
0.638933
0.839172
1.04671
1.08558
1.10788
1.08694
1.05082
1.02127
1.02464
1.03687
1.05782
1.07133
1.07591
1.07315
1.06935
1.06748
1.06472
1.06253
1.06369
1.06526
1.06545
1.0654
1.06583
1.067
1.07117
1.07485
1.07621
1.077
1.07781
1.0805
1.08332
1.08109
1.0699
1.05977
1.0557
1.05571
1.05835
1.06115
1.06259
1.06399
1.06679
1.07291
1.07818
1.08417
1.08944
1.10067
1.1155
1.13219
1.14822
1.1538
1.15894
1.16663
1.18621
1.2524
1.30281
1.33371
1.34939
1.35613
1.36066
1.36533
1.37189
1.38097
1.39113
1.39811
1.40005
1.40013
1.40007
1.40002
1.40001
1.40001
1.40001
1.40001
1.40001
1.40001
1.40001
1.40001
1.40001
1.40001
1.40001
0.328845
0.332176
0.380033
0.558151
0.825396
1.00264
1.07589
1.06747
1.06023
1.0534
1.03768
1.03184
1.03747
1.04589
1.0479
1.04437
1.0419
1.04025
1.03737
1.03647
1.03808
1.04052
1.04149
1.04128
1.04149
1.04349
1.04538
1.04656
1.0466
1.04711
1.04835
1.04969
1.04659
1.03639
1.02687
1.02309
1.02269
1.02474
1.02719
1.02796
1.02834
1.03037
1.03547
1.04045
1.0475
1.05462
1.0675
1.08312
1.10234
1.12293
1.12997
1.13577
1.15223
1.17764
1.24229
1.29601
1.33115
1.34793
1.35508
1.35939
1.36397
1.37063
1.37997
1.3905
1.39785
1.4
1.40011
1.40006
1.40002
1.40001
1.40001
1.40001
1.40001
1.40001
1.40001
1.40001
1.40001
1.40001
1.40001
1.40001
0.330409
0.331048
0.331809
0.331975
0.391946
0.552548
0.804585
0.986994
1.08992
1.0754
1.03485
1.03272
1.03712
1.0331
1.03272
1.03331
1.03349
1.03159
1.02812
1.02664
1.0282
1.03007
1.0297
1.02915
1.02996
1.03172
1.03397
1.03438
1.03365
1.03375
1.03424
1.03596
1.03277
1.02216
1.01311
1.00891
1.0083
1.00963
1.01015
1.00732
1.00419
1.00292
1.00404
1.00811
1.01684
1.02668
1.03921
1.05985
1.08709
1.11204
1.1229
1.12704
1.1423
1.1707
1.22991
1.2874
1.32841
1.34678
1.35404
1.35808
1.36256
1.36934
1.37896
1.38988
1.39761
1.39994
1.40009
1.40006
1.40002
1.40001
1.40001
1.40001
1.40001
1.40001
1.40001
1.40001
1.40001
1.40001
1.40001
1.40001
0.331686
0.332101
0.332401
0.332393
0.332365
0.332171
0.384006
0.557889
0.80913
0.959193
1.00807
1.04103
1.02783
1.01857
1.01944
1.02666
1.03151
1.03223
1.02996
1.02745
1.02662
1.02737
1.02804
1.02737
1.02677
1.0269
1.0278
1.02811
1.02898
1.03112
1.03325
1.03613
1.0314
1.02039
1.01142
1.00671
1.00468
1.00296
0.998917
0.991292
0.985954
0.984888
0.987771
0.994117
1.00306
1.01502
1.03035
1.05409
1.08791
1.11235
1.12767
1.1322
1.14125
1.16768
1.22047
1.28107
1.32611
1.34564
1.35278
1.35658
1.36106
1.36802
1.37795
1.38927
1.39737
1.39989
1.40008
1.40005
1.40002
1.40001
1.40001
1.40001
1.40001
1.40001
1.40001
1.40001
1.40001
1.40001
1.40001
1.40001
0.332381
0.332448
0.332434
0.33238
0.332162
0.33184
0.331613
0.331119
0.379453
0.56832
0.823549
0.995898
1.00884
1.0303
1.02386
1.02466
1.02698
1.03094
1.032
1.03077
1.02942
1.0296
1.03031
1.02879
1.02725
1.027
1.02796
1.02969
1.03317
1.03695
1.03919
1.03967
1.032
1.01959
1.01064
1.00406
0.999303
0.995066
0.989525
0.98356
0.98194
0.984035
0.99031
0.999253
1.00811
1.01807
1.03223
1.05913
1.09196
1.11842
1.14189
1.14624
1.1475
1.16755
1.21622
1.2782
1.3239
1.34408
1.35107
1.35477
1.3594
1.36666
1.37696
1.38869
1.39716
1.39985
1.40007
1.40005
1.40002
1.40001
1.40001
1.40001
1.40001
1.40001
1.40001
1.40001
1.40001
1.40001
1.40001
1.40001
0.332495
0.332449
0.332311
0.332048
0.331681
0.331423
0.330995
0.330729
0.330663
0.330526
0.392714
0.571585
0.816034
0.995392
1.0106
1.03564
1.03374
1.03486
1.03735
1.0373
1.03846
1.03862
1.03709
1.03289
1.03045
1.03042
1.03245
1.03566
1.03996
1.0421
1.04229
1.03941
1.03043
1.01831
1.00801
0.99913
0.994612
0.992875
0.990192
0.987701
0.988006
0.990579
0.995865
1.00219
1.0087
1.01855
1.03629
1.06674
1.11783
1.15341
1.16363
1.16198
1.15503
1.1742
1.21918
1.27806
1.32224
1.34216
1.34891
1.35265
1.3576
1.36526
1.37598
1.38814
1.39696
1.39981
1.40006
1.40004
1.40002
1.40001
1.40001
1.40001
1.40001
1.40001
1.40001
1.40001
1.40001
1.40001
1.40001
1.40001
0.332359
0.332119
0.331827
0.331479
0.331201
0.330902
0.330708
0.330609
0.330485
0.330416
0.330411
0.33042
0.397022
0.601469
0.826742
0.992862
1.01366
1.03563
1.04092
1.03972
1.04729
1.0456
1.04003
1.0359
1.03624
1.03913
1.04331
1.04769
1.05084
1.04949
1.04584
1.03917
1.02918
1.01793
1.00852
1.00157
0.998844
0.997533
0.995048
0.991507
0.989154
0.990048
0.99208
0.997445
1.01025
1.02984
1.05608
1.09466
1.14428
1.18087
1.19521
1.19353
1.18232
1.19021
1.22758
1.28187
1.32237
1.34044
1.34652
1.35032
1.35568
1.3638
1.37499
1.38762
1.39678
1.39977
1.40005
1.40004
1.40002
1.40001
1.40001
1.40001
1.40001
1.40001
1.40001
1.40001
1.40001
1.40001
1.40001
1.40001
0.331917
0.331616
0.3313
0.331037
0.330823
0.330653
0.330554
0.330467
0.330394
0.330389
0.330429
0.330467
0.330474
0.331131
0.410984
0.626687
0.844866
1.00687
1.02298
1.03745
1.05543
1.05025
1.04012
1.03888
1.04268
1.04968
1.05381
1.05594
1.0556
1.05164
1.04483
1.03828
1.02991
1.02072
1.0116
1.00591
1.00344
0.999477
0.994839
0.989358
0.989489
0.993212
0.998807
1.00759
1.02153
1.04343
1.07604
1.12287
1.17022
1.20236
1.21753
1.21793
1.20845
1.20412
1.22988
1.28092
1.3228
1.33907
1.34391
1.34789
1.3537
1.36229
1.374
1.38714
1.39663
1.39974
1.40004
1.40003
1.40002
1.40001
1.40001
1.40001
1.40001
1.40001
1.40001
1.40001
1.40001
1.40001
1.40001
1.40001
0.331374
0.331104
0.330878
0.3307
0.330563
0.330465
0.330409
0.330394
0.330402
0.330431
0.330464
0.330479
0.330474
0.330444
0.330428
0.334081
0.439631
0.684863
0.889317
1.0094
1.05217
1.04563
1.04316
1.04352
1.04922
1.05495
1.05543
1.05618
1.05496
1.05102
1.04504
1.03901
1.03213
1.02377
1.01562
1.01005
1.00398
0.996967
0.990079
0.988251
0.990854
0.994566
1.004
1.02158
1.04467
1.07317
1.10881
1.15132
1.18277
1.20753
1.22751
1.2338
1.23257
1.23487
1.25663
1.29681
1.32699
1.33736
1.34132
1.34557
1.35171
1.36075
1.37303
1.38669
1.39649
1.39971
1.40003
1.40003
1.40001
1.40001
1.40001
1.40001
1.40001
1.40001
1.40001
1.40001
1.40001
1.40001
1.40001
1.40001
0.330928
0.330736
0.330582
0.330467
0.330401
0.330379
0.330397
0.330437
0.330465
0.330483
0.330484
0.330472
0.330455
0.330433
0.33043
0.330443
0.330424
0.343189
0.481248
0.719133
0.957671
1.00645
1.0473
1.04894
1.05642
1.058
1.05502
1.05172
1.04679
1.04452
1.04309
1.03939
1.03323
1.02473
1.01634
1.00982
1.00135
0.992127
0.987061
0.986966
0.990995
1.0003
1.018
1.04114
1.06817
1.09831
1.13267
1.16359
1.18227
1.20461
1.22703
1.24093
1.24952
1.25724
1.2771
1.30982
1.32937
1.33544
1.33891
1.34321
1.34966
1.35921
1.37209
1.38628
1.39638
1.39969
1.40003
1.40002
1.40001
1.40001
1.40001
1.40001
1.40001
1.40001
1.40001
1.40001
1.40001
1.40001
1.40001
1.40001
0.330566
0.330453
0.330375
0.33036
0.330392
0.330443
0.330473
0.330486
0.330491
0.330488
0.330469
0.330456
0.33045
0.33045
0.330461
0.330492
0.330546
0.33054
0.330468
0.357435
0.51294
0.786617
1.00076
1.03267
1.05454
1.048
1.04183
1.03939
1.04128
1.0448
1.04612
1.04217
1.03357
1.02239
1.01425
1.00661
0.997283
0.989137
0.987322
0.989944
0.99692
1.0117
1.03503
1.06143
1.09127
1.12161
1.15081
1.16984
1.18333
1.20455
1.22743
1.24423
1.25709
1.27029
1.29193
1.31767
1.32989
1.33327
1.33626
1.34067
1.34759
1.35771
1.37119
1.38591
1.39629
1.39968
1.40002
1.40002
1.40001
1.40001
1.40001
1.40001
1.40001
1.40001
1.40001
1.40001
1.40001
1.40001
1.40001
1.40001
0.330369
0.33039
0.330438
0.330463
0.33048
0.330489
0.330491
0.330489
0.330474
0.330458
0.330454
0.330453
0.330461
0.330468
0.330478
0.330521
0.330612
0.330701
0.330705
0.330623
0.330517
0.394216
0.612745
0.845988
1.01087
1.01854
1.03859
1.03996
1.04466
1.05406
1.05276
1.0445
1.03109
1.01738
1.00926
1.00213
0.994517
0.991166
0.992369
0.996726
1.00606
1.02672
1.05394
1.08177
1.11025
1.13832
1.16295
1.17528
1.1873
1.20655
1.22787
1.24516
1.25937
1.27624
1.29932
1.32009
1.3282
1.33063
1.33349
1.33814
1.34556
1.35624
1.37028
1.38555
1.39623
1.39967
1.40002
1.40002
1.40001
1.40001
1.40001
1.40001
1.40001
1.40001
1.40001
1.40001
1.40001
1.40001
1.40001
1.40001
0.330435
0.330467
0.330493
0.330505
0.330505
0.330486
0.330464
0.330462
0.330464
0.330465
0.330466
0.330469
0.330458
0.33045
0.330465
0.330521
0.330617
0.330732
0.330836
0.330846
0.330852
0.330756
0.331813
0.446958
0.715338
0.938527
1.04281
1.04546
1.05699
1.06182
1.05437
1.04007
1.02284
1.011
1.00407
0.999421
0.995354
0.996673
1.00209
1.00845
1.02114
1.04458
1.07119
1.09791
1.12437
1.14865
1.16572
1.17577
1.18917
1.20793
1.22709
1.24413
1.26041
1.27915
1.30108
1.31853
1.32484
1.32768
1.33073
1.33576
1.34361
1.35478
1.36945
1.38519
1.39613
1.39966
1.40001
1.40002
1.40001
1.40001
1.40001
1.40001
1.40001
1.40001
1.40001
1.40001
1.40001
1.40001
1.40001
1.40001
0.33049
0.330501
0.330503
0.330493
0.330474
0.330468
0.330467
0.330468
0.330468
0.330471
0.330467
0.330434
0.330408
0.330412
0.330435
0.330493
0.330592
0.330727
0.330889
0.33095
0.330928
0.330893
0.330884
0.330644
0.352314
0.54141
0.837481
0.999413
1.0555
1.06017
1.04601
1.02926
1.01301
1.00569
1.00326
0.998828
0.998859
1.00596
1.01355
1.02314
1.04183
1.06725
1.08801
1.10899
1.13049
1.14948
1.16248
1.1736
1.18857
1.20709
1.22546
1.24229
1.25973
1.27923
1.30001
1.31445
1.32053
1.32408
1.32789
1.33354
1.34176
1.3533
1.36855
1.38494
1.39618
1.39967
1.40001
1.40001
1.40001
1.40001
1.40001
1.40001
1.40001
1.40001
1.40001
1.40001
1.40001
1.40001
1.40001
1.40001
0.330504
0.330494
0.330484
0.330477
0.330468
0.330462
0.330461
0.330468
0.33048
0.330466
0.330419
0.330366
0.330317
0.330295
0.330318
0.330401
0.330544
0.330714
0.330899
0.330965
0.330929
0.330891
0.330848
0.330738
0.330356
0.329091
0.406764
0.670817
0.934112
1.03305
1.01762
1.02104
1.00563
1.00238
1.0037
1.00358
1.01006
1.02152
1.02827
1.04082
1.06535
1.08746
1.10168
1.11839
1.13517
1.1474
1.15795
1.17197
1.18794
1.20528
1.2234
1.24062
1.25812
1.27769
1.297
1.30971
1.31628
1.32062
1.32525
1.33134
1.33986
1.35192
1.36771
1.38458
1.39619
1.39968
1.40001
1.40001
1.40001
1.40001
1.40001
1.40001
1.40001
1.40001
1.40001
1.40001
1.40001
1.40001
1.40001
1.40001
0.330484
0.330473
0.330471
0.33047
0.330463
0.33046
0.330462
0.330467
0.33045
0.33041
0.330349
0.330269
0.330198
0.330174
0.330182
0.330231
0.33038
0.33057
0.330772
0.330763
0.330646
0.330672
0.330618
0.330457
0.329761
0.328208
0.323952
0.34086
0.517144
0.843408
0.968629
1.01833
0.998643
1.01055
1.00778
1.01022
1.02365
1.03575
1.04553
1.06328
1.08746
1.09618
1.10388
1.1173
1.13169
1.14202
1.15531
1.17246
1.18792
1.20392
1.22156
1.2393
1.25682
1.27559
1.29308
1.30477
1.31166
1.31658
1.32198
1.32888
1.33793
1.35042
1.36695
1.38467
1.39629
1.39969
1.40001
1.40001
1.40001
1.40001
1.40001
1.40001
1.40001
1.40001
1.40001
1.40001
1.40001
1.40001
1.40001
1.40001
0.330469
0.330464
0.330459
0.33046
0.33047
0.330466
0.330451
0.330423
0.33038
0.330317
0.330241
0.330174
0.330125
0.330111
0.330093
0.330071
0.330126
0.330149
0.330097
0.329922
0.329508
0.329473
0.329206
0.328311
0.326821
0.324081
0.320091
0.316516
0.314572
0.410573
0.73299
0.969924
0.987966
1.02589
1.01822
1.0241
1.04136
1.04353
1.05409
1.07695
1.09992
1.09821
1.10365
1.11531
1.12595
1.13798
1.15637
1.17444
1.18813
1.2029
1.21983
1.23769
1.25556
1.27312
1.28899
1.30025
1.30727
1.31255
1.31827
1.32565
1.33561
1.34896
1.36602
1.38447
1.39639
1.39972
1.40001
1.40001
1.40001
1.40001
1.40001
1.40001
1.40001
1.40001
1.40001
1.40001
1.40001
1.40001
1.40001
1.40001
0.330459
0.330459
0.330474
0.330479
0.330464
0.330432
0.3304
0.33035
0.330277
0.330218
0.330177
0.330143
0.330104
0.330084
0.330049
0.329996
0.329917
0.329696
0.329333
0.32895
0.328331
0.327776
0.327048
0.325591
0.32349
0.320277
0.31656
0.314621
0.314504
0.314773
0.367018
0.610607
0.869554
1.00497
1.01381
1.04514
1.0615
1.05454
1.0653
1.08901
1.0953
1.09487
1.10348
1.11663
1.12645
1.14082
1.16158
1.1748
1.18675
1.20165
1.21796
1.23504
1.25316
1.2704
1.28452
1.29539
1.30329
1.30947
1.3155
1.32294
1.33316
1.34729
1.36571
1.38473
1.39655
1.39974
1.4
1.40001
1.40001
1.40001
1.40001
1.40001
1.40001
1.40001
1.40001
1.40001
1.40001
1.40001
1.40001
1.40001
0.330482
0.330481
0.330468
0.330441
0.330409
0.330366
0.330319
0.330271
0.330218
0.330192
0.330171
0.33017
0.330158
0.330125
0.330063
0.32995
0.329764
0.32945
0.328886
0.328313
0.327633
0.32654
0.325376
0.323507
0.320207
0.316529
0.314713
0.314497
0.315448
0.318463
0.321749
0.330517
0.489837
0.755484
0.950567
1.04094
1.05058
1.0555
1.07823
1.09717
1.08461
1.08735
1.10739
1.12412
1.13573
1.1516
1.1659
1.17245
1.18409
1.20006
1.21567
1.23139
1.24876
1.26639
1.27998
1.28948
1.29714
1.30453
1.31221
1.32072
1.33138
1.34571
1.36489
1.38484
1.39675
1.39977
1.4
1.40001
1.40001
1.40001
1.40001
1.40001
1.40001
1.40001
1.40001
1.40001
1.40001
1.40001
1.40001
1.40001
0.330465
0.330432
0.33039
0.330346
0.330309
0.330278
0.330258
0.330244
0.330225
0.330219
0.330253
0.33036
0.330406
0.330365
0.330285
0.330125
0.329777
0.329463
0.328849
0.32803
0.327265
0.325873
0.323625
0.320268
0.316799
0.314802
0.315084
0.315836
0.318793
0.324056
0.329588
0.337395
0.344068
0.390333
0.596188
0.833545
0.972367
1.05092
1.08005
1.09084
1.07739
1.09072
1.12538
1.1327
1.14315
1.16176
1.16443
1.16864
1.18155
1.19796
1.2123
1.22677
1.24285
1.26011
1.27502
1.28472
1.29138
1.29886
1.30747
1.31706
1.32868
1.34444
1.36512
1.38527
1.39697
1.3998
1.4
1.40001
1.40001
1.40001
1.40001
1.40001
1.40001
1.40001
1.40001
1.40001
1.40001
1.40001
1.40001
1.40001
0.330376
0.330326
0.33029
0.33026
0.33025
0.330248
0.330244
0.330254
0.330304
0.330368
0.330406
0.330506
0.330602
0.330565
0.330477
0.330354
0.330071
0.329678
0.32918
0.328179
0.326616
0.324144
0.319917
0.316946
0.315573
0.315797
0.317516
0.320035
0.322709
0.32755
0.334759
0.343688
0.35423
0.364582
0.371756
0.440521
0.627831
0.866446
0.995556
1.05978
1.07213
1.11335
1.14278
1.13738
1.14768
1.16042
1.15996
1.16442
1.18113
1.19457
1.20701
1.22116
1.237
1.25276
1.26737
1.27916
1.28852
1.29594
1.30367
1.31358
1.3261
1.34274
1.36463
1.3857
1.39724
1.39983
1.4
1.40001
1.40001
1.40001
1.40001
1.40001
1.40001
1.40001
1.40001
1.40001
1.40001
1.40001
1.40001
1.40001
0.330262
0.330251
0.330247
0.330247
0.330244
0.330248
0.330272
0.330299
0.33036
0.330435
0.330459
0.330537
0.330642
0.330604
0.330487
0.330329
0.330116
0.32966
0.328859
0.326944
0.323198
0.31944
0.316857
0.316036
0.317073
0.317996
0.319596
0.323677
0.328452
0.334946
0.344567
0.35487
0.365066
0.375394
0.386062
0.396155
0.404331
0.469693
0.638083
0.840685
1.00969
1.09418
1.12092
1.12495
1.14867
1.15719
1.14913
1.16125
1.18135
1.18997
1.19994
1.21508
1.2325
1.24703
1.25971
1.27149
1.28202
1.29146
1.3007
1.31062
1.3237
1.34218
1.36508
1.38634
1.39753
1.39987
1.4
1.40001
1.40001
1.40001
1.40001
1.40001
1.40001
1.40001
1.40001
1.40001
1.40001
1.40001
1.40001
1.40001
0.330247
0.330255
0.330267
0.330284
0.33029
0.330301
0.330309
0.33031
0.330344
0.330429
0.330467
0.330477
0.330543
0.330489
0.330265
0.329917
0.329421
0.327942
0.325051
0.32163
0.31862
0.316483
0.316659
0.316657
0.317828
0.32055
0.321755
0.326617
0.336061
0.345353
0.355462
0.364608
0.373874
0.38432
0.395022
0.405226
0.416626
0.428
0.437481
0.489046
0.640003
0.823399
0.969204
1.06458
1.13949
1.13262
1.13516
1.16907
1.17797
1.1821
1.19046
1.21067
1.22932
1.2443
1.25497
1.26451
1.27435
1.28455
1.29534
1.30707
1.32115
1.34058
1.3652
1.38712
1.39786
1.3999
1.4
1.40001
1.40001
1.40001
1.40001
1.40001
1.40001
1.40001
1.40001
1.40001
1.40001
1.40001
1.40001
1.40001
0.330313
0.33033
0.330324
0.33033
0.330308
0.330215
0.330194
0.330135
0.329967
0.329993
0.329974
0.329779
0.329606
0.329349
0.328707
0.327168
0.324893
0.322432
0.319486
0.317268
0.316166
0.315503
0.316547
0.317127
0.317664
0.322303
0.3294
0.336521
0.345004
0.354713
0.364474
0.374782
0.384559
0.39378
0.40358
0.41457
0.425058
0.437045
0.44967
0.462254
0.474028
0.518085
0.643213
0.855695
1.02061
1.08185
1.13167
1.18411
1.17614
1.17457
1.1893
1.20576
1.22138
1.23602
1.24943
1.26
1.26904
1.27898
1.28993
1.30266
1.31888
1.34073
1.36605
1.38805
1.39818
1.39992
1.4
1.40001
1.40001
1.40001
1.40001
1.40001
1.40001
1.40001
1.40001
1.40001
1.40001
1.40001
1.40001
1.40001
0.330374
0.330364
0.330327
0.330245
0.330104
0.329855
0.329616
0.329381
0.329011
0.328807
0.328677
0.328449
0.327922
0.32683
0.325243
0.32321
0.320438
0.318036
0.315969
0.31503
0.315448
0.315262
0.315727
0.319568
0.323173
0.327902
0.338251
0.348371
0.357277
0.366869
0.374581
0.383978
0.394283
0.404097
0.413825
0.424923
0.435861
0.446896
0.459465
0.473142
0.486604
0.500817
0.515372
0.564865
0.693361
0.914643
1.08681
1.16413
1.15492
1.16526
1.18811
1.20053
1.21068
1.2242
1.2393
1.25254
1.26339
1.27375
1.2857
1.29916
1.31591
1.33952
1.36693
1.38916
1.39852
1.39995
1.4
1.40001
1.40001
1.40001
1.40001
1.40001
1.40001
1.40001
1.40001
1.40001
1.40001
1.40001
1.40001
1.40001
0.330249
0.330148
0.330019
0.329842
0.329629
0.329371
0.329017
0.328733
0.328462
0.328049
0.327576
0.326917
0.325793
0.324084
0.321691
0.319244
0.316696
0.315132
0.314939
0.31471
0.315257
0.316995
0.318824
0.323791
0.333852
0.342696
0.349724
0.358224
0.36673
0.375734
0.384865
0.392932
0.401441
0.411538
0.422638
0.433254
0.445824
0.458832
0.471182
0.484251
0.499146
0.513565
0.528198
0.544445
0.563008
0.629894
0.79795
0.995434
1.09511
1.16725
1.18473
1.18774
1.19824
1.21366
1.2274
1.2405
1.25411
1.26702
1.27977
1.29483
1.31467
1.34012
1.36838
1.39039
1.39884
1.39997
1.40001
1.40001
1.40001
1.40001
1.40001
1.40001
1.40001
1.40001
1.40001
1.40001
1.40001
1.40001
1.40001
1.40001
0.329941
0.329821
0.329682
0.329548
0.329373
0.329206
0.328962
0.328782
0.328553
0.327836
0.326785
0.325211
0.322824
0.32019
0.317624
0.315907
0.314924
0.314657
0.314914
0.31565
0.317165
0.322779
0.331124
0.33695
0.343646
0.352357
0.360009
0.368256
0.375933
0.383303
0.393504
0.403498
0.413638
0.424276
0.435246
0.44653
0.45812
0.470348
0.483823
0.497263
0.511014
0.526086
0.542766
0.558909
0.575052
0.593263
0.625986
0.736043
0.959563
1.1252
1.15807
1.16825
1.18778
1.20632
1.21895
1.22964
1.24313
1.2589
1.27434
1.29037
1.31181
1.34013
1.3702
1.39176
1.39913
1.39998
1.40001
1.40001
1.40001
1.40001
1.40001
1.40001
1.40001
1.40001
1.40001
1.40001
1.40001
1.40001
1.40001
1.40001
0.329627
0.329581
0.329453
0.329446
0.329396
0.329306
0.329164
0.328827
0.328168
0.326792
0.324148
0.320987
0.318233
0.31651
0.315509
0.315159
0.315493
0.316143
0.317749
0.322524
0.328523
0.332813
0.339637
0.347336
0.35373
0.360729
0.368494
0.376423
0.386202
0.395113
0.40404
0.414359
0.424785
0.435717
0.446518
0.457915
0.469854
0.482023
0.494823
0.508669
0.522907
0.537482
0.553626
0.571143
0.589484
0.607061
0.627232
0.651294
0.732974
0.904769
1.06056
1.14648
1.18443
1.19721
1.20908
1.22323
1.2366
1.25044
1.26723
1.28689
1.31179
1.34145
1.37248
1.39318
1.39939
1.39999
1.40001
1.40001
1.40001
1.40001
1.40001
1.40001
1.40001
1.40001
1.40001
1.40001
1.40001
1.40001
1.40001
1.40001
0.329669
0.329575
0.329383
0.329254
0.329144
0.328697
0.327785
0.326136
0.323616
0.321063
0.318861
0.317219
0.316105
0.315801
0.316245
0.317149
0.318758
0.322728
0.326575
0.330353
0.336396
0.342365
0.347421
0.35467
0.362689
0.370472
0.379693
0.388045
0.39693
0.407566
0.416611
0.426206
0.436244
0.446023
0.456915
0.468171
0.479751
0.492317
0.505764
0.519623
0.534184
0.550177
0.565805
0.583267
0.602189
0.622485
0.641696
0.661114
0.685937
0.744683
0.900747
1.07194
1.15034
1.17234
1.18755
1.20543
1.22502
1.2436
1.26098
1.28186
1.30983
1.3431
1.37532
1.39463
1.3996
1.4
1.40001
1.40001
1.40001
1.40001
1.40001
1.40001
1.40001
1.40001
1.40001
1.40001
1.40001
1.40001
1.40001
1.40001
0.328913
0.328379
0.327716
0.326648
0.325192
0.323488
0.321505
0.3198
0.318452
0.317418
0.316887
0.316347
0.316662
0.317494
0.318535
0.321194
0.323888
0.327588
0.332752
0.336997
0.342212
0.35043
0.358195
0.366029
0.374505
0.383255
0.391817
0.40123
0.409429
0.417983
0.427535
0.436602
0.446806
0.457528
0.468382
0.480327
0.49278
0.505986
0.519239
0.533558
0.548851
0.564746
0.581276
0.59812
0.616233
0.635958
0.658073
0.679389
0.698738
0.725185
0.777869
0.906549
1.0499
1.13256
1.16773
1.18892
1.21021
1.23234
1.25411
1.27954
1.31048
1.34588
1.37859
1.39602
1.39977
1.4
1.40001
1.40001
1.40001
1.40001
1.40001
1.40001
1.40001
1.40001
1.40001
1.40001
1.40001
1.40001
1.40001
1.40001
0.326859
0.325954
0.324731
0.32309
0.321106
0.319415
0.317922
0.31694
0.316699
0.316547
0.317011
0.317629
0.318083
0.319819
0.321627
0.324693
0.329117
0.332879
0.339411
0.348006
0.355565
0.362902
0.371515
0.37949
0.387481
0.395415
0.402964
0.410957
0.419803
0.427889
0.437377
0.447907
0.457801
0.468896
0.480622
0.492539
0.505586
0.519262
0.533412
0.547928
0.563219
0.579253
0.597565
0.61578
0.633713
0.652484
0.673078
0.695929
0.719143
0.740049
0.770628
0.822324
0.936859
1.06782
1.14394
1.17809
1.20035
1.22103
1.24413
1.27445
1.31076
1.34979
1.38233
1.39727
1.39988
1.4
1.40001
1.40001
1.40001
1.40001
1.40001
1.40001
1.40001
1.40001
1.40001
1.40001
1.40001
1.40001
1.40001
1.40001
0.324084
0.322104
0.319929
0.318348
0.317105
0.31633
0.316056
0.315932
0.316218
0.31638
0.316628
0.318653
0.320601
0.322933
0.328128
0.332988
0.339761
0.347508
0.354273
0.361782
0.369354
0.376363
0.383524
0.39025
0.397635
0.405104
0.413282
0.421112
0.430063
0.440016
0.449504
0.459711
0.471122
0.482671
0.494421
0.506561
0.519246
0.531944
0.546147
0.560922
0.576263
0.592503
0.609192
0.628521
0.649528
0.670266
0.691254
0.713185
0.737966
0.760415
0.783099
0.820188
0.876521
0.974525
1.07778
1.14434
1.18268
1.21078
1.24098
1.27522
1.31371
1.35502
1.38626
1.3983
1.39994
1.4
1.40001
1.40001
1.40001
1.40001
1.40001
1.40001
1.40001
1.40001
1.40001
1.40001
1.40001
1.40001
1.40001
1.40001
0.318261
0.317142
0.316397
0.316188
0.316135
0.316041
0.316082
0.316055
0.316211
0.318105
0.320484
0.323436
0.32955
0.335627
0.341008
0.34765
0.353832
0.360798
0.367028
0.373005
0.379653
0.386223
0.392897
0.400714
0.407914
0.415964
0.424573
0.434071
0.443127
0.453038
0.463681
0.474134
0.484837
0.495552
0.507598
0.520396
0.533306
0.547473
0.561349
0.576315
0.592216
0.609311
0.626119
0.643734
0.663188
0.685051
0.707867
0.731679
0.755094
0.781275
0.806278
0.834079
0.877815
0.938426
1.02032
1.09708
1.15163
1.19331
1.23432
1.27533
1.31883
1.36163
1.39012
1.39906
1.39998
1.4
1.40001
1.40001
1.40001
1.40001
1.40001
1.40001
1.40001
1.40001
1.40001
1.40001
1.40001
1.40001
1.40001
1.40001
0.316021
0.316164
0.316365
0.316655
0.317429
0.317825
0.318596
0.321257
0.324397
0.327485
0.332721
0.337715
0.342063
0.348176
0.353547
0.359216
0.364623
0.370451
0.376894
0.383159
0.389756
0.397359
0.404487
0.412251
0.420774
0.429395
0.438027
0.44702
0.456538
0.466033
0.475691
0.486368
0.497327
0.509143
0.520535
0.532878
0.54615
0.559952
0.574878
0.590483
0.606978
0.624194
0.643671
0.66285
0.681933
0.702374
0.724938
0.749169
0.774599
0.800463
0.826723
0.853238
0.886834
0.937597
1.00109
1.0693
1.1359
1.19058
1.23531
1.27927
1.32644
1.36924
1.3936
1.39956
1.4
1.4
1.40001
1.40001
1.40001
1.40001
1.40001
1.40001
1.40001
1.40001
1.40001
1.40001
1.40001
1.40001
1.40001
1.40001
0.317612
0.318195
0.319323
0.320425
0.321633
0.324161
0.327129
0.330025
0.334144
0.337834
0.342255
0.34794
0.352406
0.357048
0.363418
0.369265
0.375559
0.381655
0.388748
0.396163
0.403378
0.410692
0.418855
0.426401
0.434522
0.442806
0.451375
0.460026
0.46928
0.478809
0.489119
0.499311
0.510427
0.522231
0.535296
0.548304
0.562081
0.576203
0.591213
0.606896
0.623446
0.640962
0.65911
0.679566
0.701254
0.72241
0.744456
0.76812
0.794454
0.82156
0.849047
0.87736
0.908166
0.948422
1.00327
1.06812
1.12922
1.18561
1.23569
1.28546
1.33608
1.37727
1.39639
1.39983
1.4
1.40001
1.40001
1.40001
1.40001
1.40001
1.40001
1.40001
1.40001
1.40001
1.40001
1.40001
1.40001
1.40001
1.40001
1.40001
0.319608
0.320137
0.321541
0.323591
0.325199
0.328244
0.332842
0.335867
0.34026
0.346669
0.351168
0.356586
0.363891
0.369863
0.375835
0.382443
0.389524
0.396203
0.402557
0.40956
0.416518
0.423438
0.430409
0.438257
0.445855
0.453855
0.462516
0.471767
0.481179
0.491482
0.502243
0.513863
0.525738
0.537719
0.550111
0.563654
0.577588
0.592596
0.607868
0.623987
0.641109
0.659318
0.677832
0.696961
0.717648
0.740823
0.764585
0.789329
0.81477
0.842993
0.872303
0.900997
0.930996
0.967109
1.01456
1.07243
1.13334
1.18956
1.24242
1.29616
1.34822
1.38512
1.39833
1.39995
1.4
1.40001
1.40001
1.40001
1.40001
1.40001
1.40001
1.40001
1.40001
1.40001
1.40001
1.40001
1.40001
1.40001
1.40001
1.40001
0.322807
0.325914
0.328613
0.332678
0.338719
0.342754
0.346904
0.353326
0.358451
0.363665
0.369566
0.374514
0.379896
0.386134
0.391495
0.397128
0.402698
0.409171
0.4152
0.421549
0.428232
0.435434
0.442905
0.450583
0.459016
0.46813
0.477257
0.486761
0.497107
0.5077
0.518491
0.52963
0.541339
0.55397
0.566762
0.580125
0.594117
0.608533
0.624149
0.640802
0.658407
0.676547
0.696322
0.716821
0.738134
0.760278
0.784312
0.809342
0.835825
0.86382
0.894802
0.927396
0.958378
0.988894
1.02683
1.07857
1.13766
1.19633
1.25369
1.31106
1.36214
1.39183
1.39941
1.39999
1.4
1.40001
1.40001
1.40001
1.40001
1.40001
1.40001
1.40001
1.40001
1.40001
1.40001
1.40001
1.40001
1.40001
1.40001
1.40001
0.334988
0.339139
0.343317
0.346676
0.351404
0.356663
0.360319
0.364955
0.370243
0.374324
0.379669
0.384862
0.389369
0.394813
0.400874
0.406541
0.412468
0.418836
0.426132
0.432849
0.440598
0.448305
0.456497
0.465115
0.473964
0.482755
0.492381
0.502145
0.511927
0.522103
0.533103
0.544445
0.556162
0.568248
0.581662
0.595401
0.610045
0.62555
0.641713
0.658455
0.67614
0.695385
0.715144
0.736074
0.757929
0.780932
0.8052
0.831422
0.858669
0.886918
0.916834
0.949413
0.984281
1.01984
1.05698
1.09936
1.14887
1.2055
1.26763
1.32896
1.37608
1.39652
1.39986
1.4
1.40001
1.40001
1.40001
1.40001
1.40001
1.40001
1.40001
1.40001
1.40001
1.40001
1.40001
1.40001
1.40001
1.40001
1.40001
1.40001
0.346139
0.349609
0.354583
0.358917
0.361915
0.367027
0.372842
0.37681
0.381669
0.387217
0.392053
0.398186
0.404383
0.409628
0.415638
0.422327
0.429245
0.435618
0.442401
0.449969
0.456855
0.464655
0.472404
0.480305
0.488825
0.497654
0.506402
0.516125
0.526406
0.537144
0.548079
0.559965
0.572455
0.585665
0.598955
0.613472
0.628392
0.643966
0.660525
0.678249
0.696698
0.715487
0.735567
0.756857
0.779599
0.803293
0.827846
0.853738
0.881835
0.911972
0.943523
0.975491
1.00765
1.04215
1.08164
1.12685
1.17751
1.23363
1.29431
1.35158
1.38814
1.39898
1.39998
1.4
1.40001
1.40001
1.40001
1.40001
1.40001
1.40001
1.40001
1.40001
1.40001
1.40001
1.40001
1.40001
1.40001
1.40001
1.40001
1.40001
0.361238
0.365229
0.369232
0.374589
0.379178
0.382778
0.387878
0.392967
0.397539
0.402805
0.407761
0.412633
0.418498
0.424368
0.429665
0.435701
0.441952
0.448719
0.454979
0.461934
0.469625
0.476791
0.485109
0.493835
0.502292
0.511702
0.521795
0.531751
0.542292
0.553691
0.565589
0.57745
0.590088
0.60348
0.617618
0.631724
0.647073
0.663308
0.680035
0.697377
0.716041
0.736289
0.757101
0.778416
0.800864
0.825134
0.851093
0.878198
0.906082
0.935544
0.967752
1.00267
1.03874
1.07491
1.11234
1.15374
1.20277
1.26099
1.32295
1.37305
1.39589
1.39983
1.4
1.40001
1.40001
1.40001
1.40001
1.40001
1.40001
1.40001
1.40001
1.40001
1.40001
1.40001
1.40001
1.40001
1.40001
1.40001
1.40001
1.40001
0.374631
0.378982
0.38245
0.386127
0.391466
0.395791
0.399367
0.40423
0.409031
0.413822
0.419489
0.424493
0.429443
0.435648
0.442305
0.448274
0.454694
0.461591
0.469274
0.476589
0.484286
0.492795
0.501174
0.510006
0.519655
0.529161
0.538996
0.549629
0.56052
0.571393
0.582982
0.595573
0.608304
0.621374
0.635471
0.650751
0.666121
0.682167
0.699593
0.718239
0.737274
0.756892
0.778054
0.800684
0.824339
0.848735
0.874464
0.902285
0.932036
0.963028
0.995143
1.02892
1.06538
1.105
1.14729
1.19276
1.24364
1.30061
1.35536
1.38964
1.39919
1.39999
1.4
1.40001
1.40001
1.40001
1.40001
1.40001
1.40001
1.40001
1.40001
1.40001
1.40001
1.40001
1.40001
1.40001
1.40001
1.40001
1.40001
1.40001
0.388745
0.392782
0.397551
0.401213
0.405036
0.410371
0.415108
0.419607
0.424711
0.429756
0.43512
0.441317
0.447087
0.452617
0.459077
0.465942
0.472569
0.479431
0.486561
0.494361
0.502125
0.510078
0.518611
0.527322
0.536043
0.545609
0.555569
0.56561
0.576416
0.588249
0.600265
0.612387
0.625867
0.640301
0.654794
0.669668
0.685969
0.703265
0.720855
0.739266
0.759017
0.779859
0.801413
0.8239
0.847921
0.873434
0.899993
0.927758
0.957375
0.989285
1.02323
1.05872
1.09577
1.13525
1.17856
1.22742
1.28255
1.33893
1.38124
1.39772
1.39993
1.4
1.40001
1.40001
1.40001
1.40001
1.40001
1.40001
1.40001
1.40001
1.40001
1.40001
1.40001
1.40001
1.40001
1.40001
1.40001
1.40001
1.40001
1.40001
0.403161
0.406707
0.410791
0.415853
0.419748
0.423625
0.428713
0.433566
0.438584
0.443793
0.448835
0.454189
0.460486
0.466804
0.472414
0.478825
0.485878
0.492877
0.500183
0.507648
0.515768
0.524329
0.533115
0.542281
0.552112
0.562143
0.572552
0.583744
0.595432
0.607175
0.619684
0.633121
0.646701
0.660724
0.675709
0.691604
0.70787
0.725008
0.743202
0.762311
0.782279
0.803375
0.825721
0.848941
0.873148
0.898889
0.926592
0.956051
0.986799
1.01874
1.0522
1.08802
1.12719
1.17013
1.21732
1.26965
1.32506
1.37208
1.39531
1.39977
1.4
1.40001
1.40001
1.40001
1.40001
1.40001
1.40001
1.40001
1.40001
1.40001
1.40001
1.40001
1.40001
1.40001
1.40001
1.40001
1.40001
1.40001
1.40001
1.40001
0.417573
0.421883
0.425568
0.429634
0.434933
0.439361
0.443689
0.44877
0.453891
0.459566
0.46539
0.47107
0.476844
0.483279
0.490403
0.496955
0.503826
0.511465
0.519142
0.527137
0.53547
0.543988
0.552909
0.562323
0.571882
0.581985
0.592623
0.603582
0.615086
0.627201
0.639755
0.652919
0.666845
0.681361
0.696523
0.712612
0.729414
0.746928
0.765579
0.785468
0.806064
0.82719
0.849621
0.87389
0.899596
0.926083
0.953492
0.982724
1.01449
1.0486
1.08437
1.12175
1.16179
1.20625
1.25651
1.31139
1.36193
1.39179
1.39943
1.4
1.4
1.40001
1.40001
1.40001