/*--------------------------------*- C++ -*----------------------------------*\
  =========                 |
  \\      /  F ield         | OpenFOAM: The Open Source CFD Toolbox
   \\    /   O peration     | Website:  https://openfoam.org
    \\  /    A nd           | Version:  7
     \\/     M anipulation  |
\*---------------------------------------------------------------------------*/
FoamFile
{
    version     2.0;
    format      ascii;
    class       volScalarField;
    location    "0.48";
    object      T;
}
// * * * * * * * * * * * * * * * * * * * * * * * * * * * * * * * * * * * * * //

dimensions      [0 0 0 1 0 0 0];

internalField   nonuniform List<scalar> 
324000
(
0.799701
0.937236
1.03516
1.12753
1.13379
1.14631
1.13879
1.12154
1.10568
1.10611
1.10999
1.11835
1.11971
1.11939
1.11647
1.11308
1.1117
1.11071
1.10976
1.10954
1.10882
1.10726
1.10526
1.10306
1.10202
1.10225
1.10257
1.10249
1.10155
1.09897
1.09669
1.09598
1.09437
1.08909
1.08383
1.07816
1.07179
1.06618
1.06115
1.05679
1.05249
1.04737
1.04272
1.03833
1.0347
1.03278
1.03476
1.04084
1.0504
1.05279
1.0487
1.03575
1.01354
1.00796
1.01458
1.01262
1.00473
0.993889
0.988469
0.988134
0.988709
0.99078
0.994153
0.997521
0.999511
1.00002
1.00004
1.00002
1
1
1
1
1
1
1
1
1
1
1
1
0.5594
0.562696
0.641246
0.854104
1.03493
1.13418
1.16048
1.15471
1.15292
1.15006
1.14109
1.13653
1.13759
1.13936
1.13966
1.13815
1.13776
1.13746
1.13577
1.13408
1.13371
1.13341
1.13274
1.13162
1.13134
1.13136
1.13104
1.13077
1.12972
1.12786
1.12607
1.12517
1.12291
1.11765
1.11246
1.10735
1.102
1.09784
1.09407
1.09033
1.08644
1.08237
1.07875
1.07555
1.07309
1.07188
1.07369
1.07706
1.07854
1.07544
1.06582
1.0484
1.02621
1.01601
1.01885
1.0157
1.00604
0.993537
0.987934
0.987608
0.988238
0.990437
0.993923
0.997371
0.999445
1
1.00003
1.00002
1
1
1
1
1
1
1
1
1
1
1
1
0.558088
0.556594
0.555508
0.554666
0.653137
0.840158
1.01641
1.11736
1.17073
1.16457
1.1463
1.14341
1.1452
1.14353
1.14364
1.14421
1.14509
1.14481
1.14297
1.141
1.14106
1.14147
1.14136
1.14126
1.14164
1.14179
1.14205
1.14192
1.14112
1.14023
1.13932
1.13926
1.13752
1.13227
1.12732
1.1233
1.12025
1.11873
1.11712
1.11462
1.11259
1.11057
1.1085
1.1071
1.10687
1.10574
1.10387
1.10074
1.09318
1.08358
1.07057
1.05146
1.0333
1.02502
1.02432
1.01921
1.00701
0.992896
0.987315
0.987058
0.987775
0.99012
0.993708
0.997224
0.99938
0.999988
1.00003
1.00002
1
1
1
1
1
1
1
1
1
1
1
1
0.555894
0.555047
0.554635
0.55446
0.554503
0.554625
0.635028
0.838856
1.00981
1.10127
1.12785
1.14435
1.13902
1.13746
1.13872
1.14283
1.14585
1.14598
1.1444
1.14216
1.14108
1.14156
1.1424
1.14259
1.14222
1.14167
1.14164
1.14163
1.1421
1.14307
1.14344
1.14408
1.14195
1.13696
1.13223
1.12891
1.12728
1.12677
1.12594
1.12465
1.12476
1.12557
1.12685
1.12743
1.1266
1.12345
1.11714
1.10818
1.09477
1.07951
1.06546
1.04866
1.03459
1.03154
1.02933
1.02212
1.00733
0.991968
0.986648
0.986492
0.987326
0.989827
0.993498
0.997076
0.999316
0.999974
1.00002
1.00001
1
1
1
1
1
1
1
1
1
1
1
1
0.554674
0.554457
0.554386
0.554443
0.554681
0.555223
0.555968
0.556371
0.629082
0.843046
1.02326
1.1123
1.12183
1.13893
1.13849
1.13975
1.14202
1.14358
1.14291
1.14144
1.14054
1.14087
1.14182
1.1416
1.14105
1.14037
1.14049
1.1411
1.14274
1.14461
1.14544
1.14538
1.14181
1.13639
1.13173
1.12809
1.12641
1.12617
1.12657
1.12854
1.13175
1.13486
1.13725
1.13779
1.13542
1.12861
1.11798
1.10555
1.08497
1.06052
1.04817
1.03901
1.03257
1.03285
1.0313
1.02318
1.00666
0.990786
0.98597
0.985916
0.986894
0.989547
0.993284
0.996924
0.999252
0.999961
1.00002
1.00001
1
1
1
1
1
1
1
1
1
1
1
1
0.554336
0.554373
0.554574
0.555013
0.555618
0.556334
0.556792
0.557192
0.557498
0.557576
0.654395
0.841861
1.00941
1.11309
1.12299
1.13829
1.14005
1.14038
1.14016
1.13972
1.14017
1.1408
1.14051
1.13949
1.13858
1.13825
1.13887
1.14003
1.14177
1.1428
1.14316
1.14211
1.13813
1.13268
1.12788
1.12464
1.12419
1.12564
1.12879
1.13353
1.13782
1.14044
1.14088
1.13854
1.13203
1.1218
1.10894
1.0904
1.06524
1.03396
1.02086
1.02062
1.02255
1.03066
1.02983
1.02179
1.00476
0.989433
0.985324
0.985351
0.98649
0.989274
0.993059
0.996766
0.99919
0.999948
1.00001
1.00001
1
1
1
1
1
1
1
1
1
1
1
1
0.554528
0.554874
0.555413
0.556018
0.556616
0.557036
0.557353
0.557554
0.55762
0.557658
0.557683
0.557695
0.657241
0.860727
1.00651
1.10328
1.11964
1.13123
1.13399
1.13406
1.13739
1.13704
1.1355
1.13476
1.13503
1.1361
1.13742
1.13905
1.14095
1.14067
1.13955
1.13686
1.13234
1.12729
1.12433
1.1241
1.12496
1.12807
1.13219
1.13626
1.13849
1.13873
1.13656
1.13008
1.11979
1.10674
1.09027
1.06768
1.03555
1.00338
0.997921
1.00166
1.00988
1.02245
1.02417
1.01778
1.00179
0.988057
0.984719
0.984823
0.986128
0.989009
0.992822
0.996603
0.99913
0.999937
1.00001
1.00001
1
1
1
1
1
1
1
1
1
1
1
1
0.555232
0.555827
0.556406
0.5569
0.557256
0.557466
0.557601
0.557647
0.557652
0.557669
0.557706
0.557719
0.557722
0.558688
0.673412
0.867513
1.01167
1.10287
1.11517
1.12393
1.13343
1.13151
1.12839
1.12875
1.1308
1.13359
1.1351
1.136
1.13718
1.13593
1.13346
1.13078
1.12715
1.1239
1.12298
1.12378
1.12639
1.12939
1.13299
1.13522
1.13723
1.13676
1.13138
1.11826
1.09921
1.07916
1.0599
1.03909
1.01191
0.986691
0.981115
0.984031
0.992378
1.00442
1.01104
1.00795
0.997086
0.986648
0.984074
0.984317
0.985815
0.988759
0.992576
0.996438
0.999072
0.999926
1.00001
1.00001
1
1
1
1
1
1
1
1
1
1
1
1
0.556282
0.556783
0.55716
0.557402
0.557544
0.557606
0.557636
0.55766
0.557679
0.557696
0.557713
0.557719
0.557719
0.557714
0.557724
0.562408
0.704838
0.906885
1.03693
1.09984
1.12318
1.12145
1.12228
1.12415
1.12745
1.12956
1.13012
1.13059
1.13077
1.12981
1.12782
1.12601
1.12405
1.12303
1.12346
1.12503
1.12709
1.12926
1.13157
1.13319
1.13346
1.1292
1.11754
1.09829
1.07494
1.05314
1.03471
1.01744
0.996509
0.978899
0.972409
0.972961
0.977845
0.989565
1.00042
0.99916
0.992031
0.98486
0.983391
0.983852
0.985553
0.988521
0.992327
0.996275
0.99902
0.999918
1.00001
1.00001
1
1
1
1
1
1
1
1
1
1
1
1
0.557124
0.557363
0.557506
0.55757
0.557609
0.557636
0.557671
0.557694
0.557704
0.557714
0.557713
0.557713
0.557715
0.557738
0.557798
0.557863
0.557908
0.575425
0.751631
0.929027
1.06992
1.0954
1.11737
1.12175
1.12695
1.12725
1.1258
1.12418
1.12244
1.12271
1.12367
1.12363
1.12318
1.12324
1.12415
1.12637
1.12747
1.12853
1.12932
1.12877
1.12561
1.11646
1.09963
1.07571
1.05082
1.03058
1.01553
1.00175
0.986184
0.974949
0.968911
0.967801
0.969739
0.976183
0.98566
0.988345
0.98605
0.982907
0.982625
0.983379
0.985304
0.988272
0.992072
0.996122
0.998976
0.999911
1.00001
1.00001
1
1
1
1
1
1
1
1
1
1
1
1
0.557484
0.557545
0.557581
0.557606
0.557658
0.557689
0.557702
0.557712
0.557712
0.557712
0.557707
0.557717
0.55776
0.557826
0.557905
0.558004
0.558129
0.558188
0.558217
0.595842
0.77953
0.976046
1.09835
1.11314
1.12416
1.12151
1.11877
1.11729
1.11866
1.1214
1.12467
1.12511
1.12445
1.1243
1.126
1.12823
1.12799
1.12754
1.12628
1.12307
1.11474
1.09979
1.07882
1.05429
1.03275
1.017
1.00495
0.993038
0.981321
0.973816
0.968819
0.96617
0.966399
0.96871
0.974949
0.980401
0.981162
0.981044
0.981598
0.982906
0.98502
0.987974
0.99181
0.995993
0.998945
0.999906
1
1
1
1
1
1
1
1
1
1
1
1
1
1
0.557574
0.557632
0.557677
0.557688
0.557697
0.557705
0.557706
0.557704
0.557696
0.557699
0.557725
0.557782
0.55786
0.557938
0.558018
0.558132
0.558282
0.558442
0.558566
0.558552
0.558574
0.647553
0.857496
1.00981
1.10288
1.10775
1.11854
1.11936
1.12126
1.12689
1.13062
1.1295
1.12758
1.12763
1.1295
1.12986
1.12847
1.12649
1.12229
1.11364
1.09879
1.08016
1.05874
1.03745
1.02066
1.0088
0.999646
0.989083
0.979577
0.973511
0.96891
0.966046
0.965301
0.966208
0.970354
0.975636
0.978188
0.979492
0.980756
0.982385
0.984602
0.987598
0.991541
0.995881
0.998926
0.999904
1
1
1
1
1
1
1
1
1
1
1
1
1
1
0.557666
0.557684
0.557703
0.557707
0.557705
0.55769
0.55768
0.557686
0.557713
0.557762
0.557825
0.557893
0.557961
0.558038
0.558134
0.558261
0.558421
0.558598
0.558775
0.558886
0.558975
0.55895
0.56041
0.7149
0.931017
1.06579
1.12385
1.1247
1.13044
1.13807
1.13743
1.13462
1.13162
1.13224
1.13229
1.13107
1.12813
1.12328
1.11495
1.10001
1.08055
1.06086
1.04145
1.02476
1.01267
1.00346
0.994882
0.985259
0.977874
0.972905
0.968591
0.965828
0.96534
0.966062
0.969027
0.973419
0.976516
0.978422
0.979962
0.981739
0.984041
0.98716
0.991297
0.995781
0.998899
0.999901
1
1
1
1
1
1
1
1
1
1
1
1
1
1
0.557695
0.557696
0.557693
0.557686
0.557677
0.557681
0.557699
0.557739
0.557793
0.557857
0.55792
0.557976
0.558049
0.558132
0.558235
0.558367
0.558529
0.55871
0.558904
0.559028
0.559067
0.559114
0.55917
0.559084
0.589088
0.803555
1.02304
1.1138
1.13631
1.14507
1.14085
1.13767
1.13561
1.1353
1.13423
1.13031
1.12403
1.11595
1.10193
1.08262
1.06341
1.04617
1.02902
1.01539
1.00557
0.997656
0.989485
0.981278
0.97554
0.971368
0.96776
0.965536
0.965344
0.966083
0.968698
0.972487
0.975436
0.977439
0.979122
0.981016
0.983424
0.986697
0.991039
0.995722
0.998918
0.999905
1
1
1
1
1
1
1
1
1
1
1
1
1
1
0.557684
0.557676
0.557675
0.557678
0.557689
0.557719
0.557767
0.557832
0.557901
0.557956
0.558004
0.558055
0.558107
0.558163
0.558257
0.558391
0.558568
0.558756
0.55895
0.559062
0.559081
0.559123
0.559171
0.559155
0.559005
0.558283
0.672156
0.912173
1.08161
1.14131
1.13651
1.14224
1.13815
1.13565
1.13289
1.12593
1.11703
1.10423
1.0851
1.06503
1.04953
1.03501
1.02048
1.00988
1.00087
0.992385
0.984307
0.978101
0.973316
0.969354
0.966474
0.965239
0.965147
0.965965
0.968622
0.971993
0.974642
0.976567
0.978319
0.98028
0.982793
0.986273
0.990808
0.995629
0.998921
0.999908
1
1
1
1
1
1
1
1
1
1
1
1
1
1
0.557667
0.557669
0.557682
0.557711
0.557753
0.557805
0.557866
0.557934
0.557993
0.558044
0.558084
0.558113
0.558137
0.558175
0.558248
0.558345
0.558511
0.558701
0.558908
0.558952
0.558944
0.55904
0.559084
0.559068
0.558707
0.557737
0.554914
0.579428
0.795981
1.04387
1.11993
1.14755
1.1378
1.13494
1.1266
1.11493
1.10369
1.08723
1.06794
1.05192
1.03873
1.02431
1.01143
1.00277
0.994975
0.986676
0.980063
0.975684
0.971353
0.967458
0.965135
0.964793
0.964865
0.965834
0.968387
0.971305
0.973649
0.97548
0.977339
0.979503
0.982194
0.985828
0.990597
0.995661
0.998952
0.999912
1
1
1
1
1
1
1
1
1
1
1
1
1
1
0.557682
0.557708
0.557747
0.557799
0.557862
0.557917
0.557972
0.558026
0.558076
0.558111
0.558132
0.55815
0.558175
0.55822
0.558269
0.558322
0.558441
0.558503
0.558538
0.558462
0.558285
0.558355
0.558257
0.557773
0.556845
0.555022
0.55232
0.549871
0.54858
0.687574
0.980211
1.12746
1.12511
1.12596
1.1145
1.10078
1.08747
1.06667
1.05013
1.03972
1.0297
1.01501
1.00367
0.995853
0.988349
0.981242
0.977501
0.97394
0.969434
0.96563
0.963938
0.964006
0.964345
0.965374
0.967667
0.970334
0.972524
0.974344
0.976244
0.978541
0.98151
0.985407
0.990334
0.995606
0.998981
0.999919
1
1
1
1
1
1
1
1
1
1
1
1
1
1
0.557746
0.557796
0.557862
0.557925
0.557973
0.558017
0.558068
0.55811
0.558133
0.558155
0.558183
0.558214
0.558249
0.55831
0.55836
0.558403
0.558444
0.558358
0.558155
0.557945
0.557598
0.55731
0.556906
0.555993
0.554611
0.55244
0.549908
0.548587
0.548547
0.548771
0.622223
0.868135
1.0413
1.08999
1.08349
1.08562
1.07433
1.05073
1.03762
1.03074
1.0203
1.00562
0.996881
0.990995
0.98429
0.979265
0.976554
0.971893
0.966972
0.963837
0.962796
0.962798
0.963321
0.964562
0.966489
0.968976
0.971381
0.973458
0.975445
0.977756
0.980798
0.984928
0.990251
0.995685
0.999028
0.999926
1
1
1
1
1
1
1
1
1
1
1
1
1
1
0.557872
0.557927
0.557975
0.558022
0.558067
0.558104
0.558143
0.558177
0.558198
0.558233
0.558285
0.558361
0.558427
0.558488
0.558527
0.558513
0.558463
0.558314
0.55798
0.557628
0.557213
0.556535
0.555809
0.554598
0.552385
0.549877
0.548637
0.548522
0.549251
0.551448
0.553644
0.562799
0.756933
0.927669
1.02126
1.05519
1.04678
1.03059
1.0287
1.02387
1.01071
0.995231
0.992697
0.989034
0.983747
0.980004
0.975688
0.969009
0.964209
0.962336
0.961482
0.961219
0.961693
0.963262
0.96521
0.967285
0.96957
0.972014
0.974493
0.977116
0.980285
0.984472
0.990019
0.995719
0.999083
0.999934
1
1
1
1
1
1
1
1
1
1
1
1
1
1
0.557988
0.558025
0.55806
0.558097
0.558133
0.558172
0.558218
0.558273
0.558323
0.558375
0.558464
0.558624
0.558736
0.55876
0.558772
0.558737
0.558553
0.558378
0.558003
0.557491
0.557016
0.556125
0.55466
0.552406
0.550057
0.548695
0.54893
0.549528
0.551643
0.555272
0.559096
0.563884
0.568476
0.619155
0.8034
0.934743
0.988969
1.01032
1.01398
1.0114
1.00003
0.991498
0.992138
0.98727
0.982447
0.979815
0.973265
0.965339
0.961936
0.960944
0.95974
0.959266
0.959653
0.961318
0.963807
0.965979
0.967915
0.970346
0.973101
0.976038
0.979494
0.984105
0.99009
0.995842
0.999147
0.999943
1
1
1
1
1
1
1
1
1
1
1
1
1
1
0.558068
0.558094
0.558125
0.558159
0.558205
0.558269
0.558339
0.558407
0.558499
0.558594
0.558677
0.558818
0.558943
0.558945
0.558944
0.558924
0.558793
0.558575
0.558267
0.557639
0.55664
0.555008
0.55217
0.550151
0.549231
0.549427
0.550696
0.552497
0.554365
0.557677
0.562584
0.568655
0.575621
0.582359
0.586818
0.656826
0.798002
0.923833
0.969809
0.989881
0.98701
0.996058
0.993311
0.984211
0.980764
0.976534
0.968994
0.961142
0.960834
0.959154
0.957174
0.956994
0.957583
0.959101
0.961612
0.964428
0.967156
0.969523
0.971979
0.975008
0.978736
0.983616
0.989954
0.995968
0.999223
0.999952
1
1
1
1
1
1
1
1
1
1
1
1
1
1
0.558117
0.558157
0.558211
0.558275
0.55834
0.558412
0.558488
0.558552
0.55864
0.558735
0.558788
0.558877
0.558992
0.55899
0.558966
0.558923
0.558834
0.558588
0.558128
0.556902
0.554389
0.551848
0.550087
0.549551
0.550317
0.551028
0.552182
0.555014
0.558301
0.562705
0.56917
0.575971
0.582583
0.589171
0.595884
0.602154
0.607354
0.66839
0.788039
0.886834
0.954912
0.990335
0.98559
0.976033
0.977047
0.973177
0.96228
0.95911
0.959202
0.956395
0.954073
0.954606
0.955964
0.957373
0.959388
0.96221
0.965297
0.968233
0.971104
0.974128
0.97803
0.98346
0.990089
0.996152
0.999305
0.999961
1
1
1
1
1
1
1
1
1
1
1
1
1
1
0.558233
0.5583
0.558367
0.55844
0.558494
0.558533
0.558575
0.558611
0.55868
0.558775
0.558827
0.558883
0.55899
0.558983
0.558899
0.558749
0.558489
0.557552
0.555631
0.553322
0.551291
0.549865
0.550004
0.55004
0.550903
0.552818
0.553676
0.557041
0.563477
0.569697
0.576346
0.582289
0.588227
0.594807
0.601423
0.607628
0.614466
0.62121
0.626872
0.66811
0.774051
0.866475
0.918291
0.949031
0.968065
0.962307
0.954415
0.960182
0.957429
0.952206
0.950915
0.953121
0.954894
0.956479
0.957994
0.960173
0.963048
0.966201
0.969521
0.973075
0.97728
0.982998
0.99013
0.996373
0.999396
0.999969
1
1
1
1
1
1
1
1
1
1
1
1
1
1
0.55841
0.558479
0.558523
0.558566
0.558563
0.558546
0.558568
0.558587
0.558569
0.55866
0.558677
0.558574
0.558516
0.558403
0.558021
0.557012
0.55549
0.553838
0.551862
0.55037
0.549645
0.549234
0.549971
0.550432
0.550833
0.554038
0.558944
0.563768
0.569441
0.575873
0.582191
0.588786
0.594935
0.600647
0.606635
0.613257
0.619461
0.626433
0.633711
0.640814
0.647425
0.677873
0.757048
0.861601
0.920234
0.937951
0.951338
0.962124
0.956562
0.949222
0.951014
0.951718
0.952402
0.953811
0.956245
0.958883
0.961512
0.964553
0.967907
0.971765
0.976617
0.98305
0.990379
0.996639
0.999488
0.999977
1
1
1
1
1
1
1
1
1
1
1
1
1
1
0.558571
0.558589
0.558586
0.558577
0.558545
0.558443
0.558337
0.558234
0.558041
0.557972
0.557934
0.557827
0.557503
0.556778
0.55571
0.554328
0.552461
0.55086
0.549477
0.548864
0.549184
0.549093
0.549436
0.552128
0.554644
0.557906
0.564922
0.571667
0.577517
0.583712
0.588652
0.594567
0.600951
0.606948
0.612807
0.619365
0.625759
0.632113
0.639223
0.646841
0.654277
0.661824
0.669416
0.700245
0.772769
0.871343
0.93864
0.955423
0.948096
0.947219
0.95004
0.949173
0.948675
0.949936
0.953095
0.956676
0.959865
0.963009
0.966651
0.970727
0.975746
0.982704
0.990639
0.996955
0.999582
0.999983
1
1
1
1
1
1
1
1
1
1
1
1
1
1
0.558589
0.558571
0.558534
0.558458
0.55837
0.558245
0.55805
0.557886
0.557733
0.557493
0.557219
0.556812
0.556074
0.55492
0.553303
0.551649
0.549939
0.548895
0.548782
0.548654
0.549063
0.55034
0.551653
0.55509
0.561947
0.567898
0.572548
0.578125
0.583637
0.589356
0.595115
0.600123
0.605341
0.611445
0.618049
0.624256
0.631486
0.638851
0.645751
0.652932
0.660942
0.668573
0.67618
0.684354
0.693722
0.731576
0.817544
0.892837
0.924101
0.947394
0.946549
0.943764
0.944196
0.946436
0.949473
0.953067
0.957094
0.960994
0.964875
0.969442
0.975388
0.982886
0.991057
0.997301
0.999672
0.999989
1
1
1
1
1
1
1
1
1
1
1
1
1
1
0.558499
0.558465
0.558401
0.558345
0.558265
0.558192
0.558064
0.557986
0.557854
0.557404
0.556721
0.555662
0.554055
0.552287
0.550552
0.549413
0.548749
0.548591
0.548812
0.549407
0.550525
0.554388
0.560098
0.564043
0.568515
0.574274
0.579288
0.58459
0.5895
0.59415
0.600477
0.606581
0.612689
0.618997
0.625385
0.631875
0.638442
0.645257
0.652662
0.659935
0.667236
0.675064
0.68352
0.691547
0.699439
0.708139
0.724819
0.779442
0.87457
0.934415
0.93753
0.937007
0.94007
0.943976
0.946952
0.949803
0.953766
0.958541
0.963244
0.968116
0.97455
0.982897
0.991582
0.997687
0.999755
0.999993
1
1
1
1
1
1
1
1
1
1
1
1
1
1
0.55839
0.558375
0.558315
0.558338
0.558328
0.558306
0.558254
0.558077
0.557694
0.556783
0.554991
0.552829
0.550958
0.549831
0.549124
0.548947
0.549228
0.549759
0.550922
0.554197
0.558305
0.561232
0.565812
0.570962
0.575186
0.579741
0.58477
0.589814
0.595941
0.601469
0.606908
0.613118
0.619285
0.625652
0.631863
0.638313
0.644969
0.651673
0.658611
0.665992
0.673443
0.680916
0.688994
0.697575
0.706394
0.714785
0.7239
0.735054
0.774586
0.848153
0.902918
0.929495
0.939168
0.941306
0.944008
0.94787
0.951775
0.955966
0.961104
0.967085
0.974552
0.983288
0.992235
0.998085
0.999827
0.999996
1
1
1
1
1
1
1
1
1
1
1
1
1
1
0.558476
0.558439
0.558344
0.55832
0.558296
0.558046
0.557464
0.556354
0.554632
0.552877
0.551388
0.550303
0.549527
0.549394
0.549755
0.550465
0.55163
0.554354
0.55698
0.559547
0.563615
0.567657
0.571021
0.575802
0.581031
0.586029
0.591865
0.597097
0.602564
0.609023
0.614438
0.620098
0.625961
0.631582
0.63775
0.644041
0.650424
0.657252
0.664455
0.671749
0.679259
0.687333
0.695043
0.703496
0.712485
0.721982
0.730829
0.739703
0.750754
0.7769
0.841977
0.904518
0.928751
0.933608
0.937334
0.94239
0.948237
0.953888
0.959214
0.965582
0.973981
0.983773
0.993044
0.998492
0.999887
0.999998
1
1
1
1
1
1
1
1
1
1
1
1
1
1
0.558093
0.557779
0.557369
0.556671
0.555693
0.55453
0.553173
0.552002
0.551097
0.550404
0.550048
0.549744
0.550015
0.550666
0.551435
0.553274
0.55513
0.557645
0.561164
0.56406
0.567563
0.57301
0.578114
0.583174
0.58858
0.594096
0.5994
0.605168
0.610139
0.615238
0.620885
0.626169
0.63202
0.638099
0.644162
0.650732
0.657485
0.66455
0.671522
0.678935
0.686699
0.694567
0.7026
0.710623
0.719123
0.728234
0.738311
0.74787
0.756434
0.767781
0.790085
0.842292
0.893913
0.920416
0.930883
0.937178
0.943657
0.950453
0.95714
0.964893
0.974177
0.984586
0.993974
0.998881
0.999932
0.999999
1
1
1
1
1
1
1
1
1
1
1
1
1
1
0.556775
0.556179
0.555363
0.554256
0.552908
0.551763
0.550754
0.550087
0.54995
0.549873
0.550214
0.550693
0.551059
0.552292
0.553557
0.555652
0.558701
0.561273
0.56568
0.571415
0.57639
0.581148
0.586666
0.59171
0.596708
0.601604
0.606228
0.611047
0.616325
0.621101
0.626611
0.632655
0.638259
0.644444
0.650891
0.657351
0.664326
0.671513
0.678854
0.686239
0.693853
0.701675
0.710407
0.718938
0.727223
0.735799
0.74505
0.755136
0.765237
0.774156
0.786798
0.807714
0.852024
0.898551
0.923277
0.93377
0.940576
0.946958
0.954096
0.963367
0.974267
0.985723
0.995032
0.999231
0.999964
1
1
1
1
1
1
1
1
1
1
1
1
1
1
1
0.554937
0.553596
0.552117
0.551038
0.550187
0.549672
0.549488
0.54943
0.549647
0.54982
0.550046
0.55148
0.552837
0.554446
0.558024
0.561354
0.565909
0.571085
0.575531
0.580407
0.585271
0.589732
0.59423
0.598427
0.602972
0.607524
0.612441
0.617111
0.622363
0.62813
0.633567
0.639318
0.645667
0.651998
0.658343
0.664818
0.671484
0.678087
0.685332
0.692739
0.700274
0.70808
0.71593
0.724874
0.734453
0.743765
0.753075
0.762635
0.773208
0.782636
0.791986
0.806822
0.828606
0.865215
0.901208
0.922938
0.935026
0.943787
0.953138
0.9636
0.975147
0.987237
0.996142
0.99952
0.999983
1
1
1
1
1
1
1
1
1
1
1
1
1
1
1
0.550981
0.550228
0.54971
0.549567
0.549545
0.549501
0.549565
0.549618
0.549802
0.551182
0.552845
0.554863
0.55901
0.563148
0.566744
0.571165
0.575231
0.579757
0.583782
0.5876
0.591808
0.59593
0.60006
0.604859
0.60922
0.61405
0.619145
0.624689
0.629914
0.635552
0.641517
0.647316
0.653166
0.658945
0.665359
0.672073
0.678755
0.685979
0.692948
0.70032
0.707982
0.716046
0.723844
0.731888
0.740638
0.750349
0.760301
0.770523
0.780379
0.791206
0.801347
0.812326
0.829143
0.851674
0.881049
0.907255
0.925083
0.938331
0.951107
0.963645
0.976666
0.989137
0.997226
0.999734
0.999993
1
1
1
1
1
1
1
1
1
1
1
1
1
1
1
0.549468
0.549575
0.549749
0.549993
0.550568
0.55091
0.551505
0.55336
0.555511
0.557602
0.561133
0.564526
0.567437
0.571479
0.575037
0.578731
0.582242
0.585976
0.590072
0.59402
0.598121
0.602802
0.607153
0.611812
0.616896
0.621957
0.626969
0.632124
0.637517
0.642829
0.648174
0.653994
0.659893
0.666176
0.672141
0.678529
0.685312
0.692252
0.699632
0.707191
0.715021
0.723012
0.731891
0.740502
0.748991
0.757933
0.76766
0.777884
0.78844
0.798949
0.80942
0.819781
0.832575
0.85138
0.874143
0.897753
0.9199
0.937431
0.951402
0.964844
0.978916
0.991316
0.998202
0.999874
0.999998
1
1
1
1
1
1
1
1
1
1
1
1
1
1
1
0.550643
0.551069
0.551872
0.552656
0.553511
0.555268
0.557312
0.559279
0.562079
0.564598
0.567549
0.571319
0.574298
0.577333
0.581469
0.585221
0.589231
0.593074
0.597491
0.602057
0.606467
0.610865
0.615733
0.620195
0.624923
0.629705
0.634595
0.639475
0.644631
0.649879
0.655483
0.66096
0.666858
0.673015
0.679765
0.686378
0.693286
0.700272
0.707562
0.715026
0.722728
0.730745
0.738889
0.747957
0.757428
0.766561
0.775902
0.785767
0.796495
0.807364
0.818171
0.829055
0.840641
0.855392
0.87494
0.897312
0.917671
0.935835
0.951515
0.966721
0.981742
0.993597
0.998985
0.999951
0.999999
1
1
1
1
1
1
1
1
1
1
1
1
1
1
1
0.552054
0.552457
0.553446
0.554866
0.556017
0.558112
0.561222
0.5633
0.566259
0.570534
0.573505
0.577046
0.581772
0.585619
0.589401
0.593559
0.597953
0.602075
0.605951
0.610181
0.614337
0.618448
0.622534
0.62709
0.63146
0.636008
0.640875
0.646014
0.651178
0.656767
0.662519
0.668651
0.674822
0.680997
0.687263
0.694053
0.700932
0.708219
0.715495
0.723024
0.73087
0.739036
0.747238
0.755589
0.764515
0.774354
0.784288
0.794418
0.804641
0.815743
0.827063
0.837936
0.849032
0.862082
0.878842
0.898743
0.919001
0.937078
0.953601
0.969943
0.985272
0.995815
0.999529
0.999986
1
1
1
1
1
1
1
1
1
1
1
1
1
1
1
1
0.554371
0.556503
0.558329
0.561069
0.565165
0.567851
0.570587
0.574844
0.578208
0.581563
0.585362
0.588523
0.591919
0.595822
0.599154
0.602623
0.606023
0.609936
0.613557
0.61732
0.621265
0.625449
0.629768
0.634149
0.638906
0.643992
0.649023
0.654196
0.659767
0.665387
0.671055
0.676827
0.682822
0.68918
0.695577
0.702144
0.708939
0.715822
0.723144
0.730788
0.738698
0.746725
0.755336
0.764174
0.773234
0.782497
0.792361
0.802457
0.812937
0.82381
0.835596
0.847736
0.859047
0.869946
0.883185
0.90079
0.920329
0.939149
0.957034
0.974368
0.989277
0.997703
0.999832
0.999997
1
1
1
1
1
1
1
1
1
1
1
1
1
1
1
1
0.562619
0.565396
0.568218
0.570488
0.573574
0.577025
0.579442
0.582421
0.585819
0.588435
0.591794
0.595061
0.597876
0.601227
0.604938
0.60837
0.611948
0.615731
0.620039
0.623966
0.628436
0.632857
0.63748
0.642308
0.64721
0.652013
0.657221
0.662447
0.66761
0.672935
0.678611
0.684392
0.690286
0.69631
0.702881
0.709547
0.716538
0.723815
0.731241
0.738782
0.746614
0.754992
0.763481
0.772348
0.781494
0.790979
0.800808
0.811209
0.821807
0.832592
0.843791
0.855714
0.868193
0.88069
0.893516
0.907813
0.924059
0.942107
0.961309
0.97964
0.993249
0.99902
0.999959
1
1
1
1
1
1
1
1
1
1
1
1
1
1
1
1
1
0.570133
0.572413
0.575655
0.5785
0.580437
0.583713
0.587461
0.589968
0.593011
0.596501
0.599494
0.603252
0.607037
0.610202
0.613791
0.617767
0.621822
0.625539
0.629441
0.63377
0.637666
0.642027
0.646336
0.650674
0.655297
0.660055
0.664704
0.669815
0.675167
0.680681
0.686233
0.692189
0.698371
0.704812
0.711239
0.718144
0.725136
0.732296
0.739768
0.747611
0.755619
0.763662
0.772155
0.781064
0.790438
0.800028
0.809783
0.819884
0.830643
0.841975
0.853612
0.865152
0.876505
0.888426
0.901777
0.916723
0.933092
0.950773
0.969319
0.986214
0.996659
0.99971
0.999994
1
1
1
1
1
1
1
1
1
1
1
1
1
1
1
1
1
0.579997
0.582591
0.585152
0.588536
0.591459
0.59373
0.596891
0.600051
0.602864
0.60606
0.609073
0.612004
0.615487
0.618962
0.622078
0.625588
0.629195
0.633062
0.636623
0.640518
0.644809
0.64876
0.653291
0.658011
0.662532
0.667491
0.672775
0.677917
0.683291
0.689044
0.694971
0.700802
0.70694
0.713375
0.720066
0.72666
0.733721
0.741052
0.748442
0.755963
0.763947
0.772495
0.781164
0.789921
0.799017
0.808695
0.818863
0.829272
0.839769
0.850645
0.862293
0.87466
0.887197
0.899549
0.912063
0.925577
0.941185
0.959222
0.977822
0.992371
0.998841
0.999949
0.999999
1
1
1
1
1
1
1
1
1
1
1
1
1
1
1
1
1
0.588581
0.591327
0.59352
0.595812
0.599109
0.601792
0.603977
0.606934
0.609841
0.612711
0.616078
0.619041
0.621945
0.625548
0.629396
0.632809
0.636452
0.640323
0.6446
0.648645
0.652827
0.65744
0.661928
0.666587
0.671641
0.676576
0.6816
0.686986
0.692449
0.697825
0.703489
0.709576
0.715654
0.721813
0.728387
0.735406
0.742334
0.749423
0.756994
0.764964
0.77296
0.781092
0.789773
0.798956
0.808403
0.817952
0.827825
0.83831
0.849337
0.86063
0.872094
0.883876
0.896314
0.909545
0.923382
0.937943
0.953853
0.971169
0.987279
0.997077
0.99977
0.999996
1
1
1
1
1
1
1
1
1
1
1
1
1
1
1
1
1
1
0.597437
0.599919
0.602847
0.605099
0.607417
0.610623
0.613471
0.61614
0.619154
0.622116
0.625233
0.628804
0.632113
0.635261
0.638894
0.642733
0.646403
0.650177
0.654056
0.658255
0.662418
0.666619
0.671089
0.675619
0.680094
0.68495
0.689977
0.694972
0.700283
0.706049
0.711826
0.717574
0.723902
0.730607
0.737228
0.743916
0.751133
0.758649
0.766125
0.773822
0.781999
0.790543
0.799251
0.808188
0.817584
0.827413
0.837478
0.847793
0.858568
0.869946
0.881815
0.893992
0.906472
0.919504
0.933473
0.948853
0.965741
0.982496
0.994696
0.999355
0.999979
1
1
1
1
1
1
1
1
1
1
1
1
1
1
1
1
1
1
1
0.606272
0.608428
0.610872
0.613897
0.616226
0.618514
0.621498
0.624335
0.627233
0.63023
0.633117
0.636148
0.639689
0.643219
0.64633
0.649848
0.653697
0.65747
0.661388
0.665353
0.669604
0.674079
0.678608
0.683265
0.688243
0.69326
0.69838
0.703856
0.709514
0.7151
0.720987
0.72727
0.733521
0.739879
0.746608
0.75364
0.76067
0.767926
0.775535
0.783432
0.791554
0.800014
0.808882
0.817999
0.827341
0.837066
0.847325
0.858049
0.869068
0.880315
0.891853
0.903934
0.916866
0.930748
0.945675
0.961818
0.978426
0.992087
0.998678
0.999935
0.999999
1
1
1
1
1
1
1
1
1
1
1
1
1
1
1
1
1
1
1
0.614917
0.617471
0.619655
0.622028
0.625109
0.62768
0.630164
0.633065
0.635975
0.639164
0.642415
0.645576
0.648754
0.652262
0.656127
0.659649
0.663303
0.667346
0.671356
0.6755
0.679794
0.684116
0.688612
0.693327
0.698038
0.702972
0.708143
0.713382
0.718809
0.724499
0.730313
0.736314
0.742614
0.749119
0.755781
0.76271
0.769845
0.777164
0.784809
0.792843
0.801097
0.809488
0.818258
0.827573
0.837274
0.847121
0.857145
0.867628
0.878786
0.890533
0.902622
0.915018
0.928043
0.942192
0.9578
0.974372
0.989173
0.997684
0.999837
0.999997
1
1
1
1
1
1
1
1
1
1
1
1
1
1
1
1
1
1
1
1
0.623728
0.62607
0.628828
0.631144
0.633404
0.636421
0.639236
0.641988
0.644947
0.647805
0.651018
0.65442
0.657744
0.661054
0.664412
0.668225
0.672026
0.675731
0.679724
0.683847
0.688072
0.692474
0.696999
0.701662
0.706518
0.711522
0.71674
0.722133
0.727688
0.73346
0.739461
0.745587
0.751939
0.758605
0.765371
0.772249
0.779473
0.787058
0.794753
0.802591
0.810876
0.819654
0.828662
0.837769
0.847172
0.857135
0.867652
0.878495
0.889556
0.90092
0.912787
0.92546
0.939258
0.954393
0.970631
0.986041
0.996303
0.99964
0.999991
1
1
1
1
1
1
1
1
1
1
1
1
1
1
1
1
1
1
1
1
1
0.63286
0.635145
0.637454
0.640352
0.642946
0.645242
0.64815
0.651135
0.654089
0.65728
0.660299
0.66344
0.666893
0.670431
0.674005
0.677556
0.681348
0.68534
0.689375
0.693504
0.697804
0.702302
0.706884
0.711577
0.716525
0.721623
0.726777
0.732224
0.737906
0.743558
0.749475
0.755787
0.762163
0.768571
0.775377
0.782522
0.789681
0.796984
0.804792
0.813018
0.821352
0.829831
0.838771
0.848256
0.85805
0.868003
0.87826
0.889054
0.900456
0.912363
0.924733
0.937804
0.952019
0.967526
0.983017
0.994618
0.999296
0.999975
1
1
1
1
1
1
1
1
1
1
1
1
1
1
1
1
1
1
1
1
1
1
0.642016
0.644533
0.64694
0.649169
0.652057
0.654995
0.657559
0.660397
0.663434
0.666446
0.669718
0.673052
0.676263
0.679675
0.683348
0.687037
0.690787
0.694727
0.698718
0.702911
0.707321
0.711684
0.716273
0.721144
0.725963
0.731004
0.73641
0.741794
0.747284
0.753205
0.759289
0.765357
0.771762
0.778526
0.785315
0.792207
0.799534
0.807226
0.815027
0.823021
0.831457
0.840322
0.849412
0.858708
0.868387
0.878574
0.889203
0.900162
0.911479
0.923343
0.936049
0.949908
0.965008
0.980405
0.992872
0.998813
0.999941
0.999999
1
1
1
1
1
1
1
1
1
1
1
1
1
1
1
1
1
1
1
1
1
1
0.651515
0.653821
0.656486
0.659107
0.661453
0.664207
0.667248
0.670105
0.673048
0.676162
0.679287
0.682507
0.685996
0.689515
0.692965
0.696707
0.70061
0.704484
0.70863
0.712866
0.71714
0.721747
0.726407
0.731089
0.736149
0.741344
0.746516
0.752037
0.757815
0.763574
0.769586
0.775969
0.782422
0.788944
0.795821
0.803016
0.810322
0.817836
0.825757
0.834032
0.842513
0.851247
0.86038
0.869933
0.879822
0.890029
0.900639
0.911746
0.923411
0.935749
0.949018
0.96344
0.978432
0.991303
0.998254
0.999885
0.999998
1
1
1
1
1
1
1
1
1
1
1
1
1
1
1
1
1
1
1
1
1
1
1
0.661284
0.663713
0.665997
0.668644
0.671544
0.674172
0.676888
0.679884
0.682897
0.686008
0.689187
0.692503
0.695835
0.69931
0.703058
0.706733
0.710525
0.714612
0.718679
0.722923
0.727406
0.731849
0.736503
0.741428
0.746357
0.751483
0.756916
0.762401
0.768023
0.773987
0.780121
0.786325
0.792788
0.799533
0.806418
0.813494
0.820909
0.828637
0.83659
0.844811
0.85339
0.862321
0.871558
0.881125
0.89109
0.901485
0.912306
0.923602
0.935545
0.948412
0.962405
0.977051
0.990053
0.997709
0.999812
0.999996
1
1
1
1
1
1
1
1
1
1
1
1
1
1
1
1
1
1
1
1
1
1
1
1
0.67119
0.673609
0.676263
0.678742
0.681287
0.684283
0.687124
0.689957
0.692996
0.696067
0.699317
0.702646
0.706071
0.709614
0.713183
0.717003
0.720948
0.724893
0.72908
0.733386
0.737748