/*--------------------------------*- C++ -*----------------------------------*\
  =========                 |
  \\      /  F ield         | OpenFOAM: The Open Source CFD Toolbox
   \\    /   O peration     | Website:  https://openfoam.org
    \\  /    A nd           | Version:  7
     \\/     M anipulation  |
\*---------------------------------------------------------------------------*/
FoamFile
{
    version     2.0;
    format      ascii;
    class       volVectorField;
    location    "10.5";
    object      U;
}
// * * * * * * * * * * * * * * * * * * * * * * * * * * * * * * * * * * * * * //

dimensions      [0 1 -1 0 0 0 0];

internalField   nonuniform List<vector> 
90000
(
(2.96387 -1.30759 0)
(2.88312 -1.1063 0)
(2.85128 -1.05575 0)
(2.80987 -0.885519 0)
(2.80598 -0.676754 0)
(2.82233 -0.666159 0)
(2.82868 -0.613676 0)
(2.81649 -0.491332 0)
(2.82474 -0.387359 0)
(2.84618 -0.368279 0)
(2.83937 -0.271744 0)
(2.84709 -0.22501 0)
(2.84275 -0.136886 0)
(2.85355 -0.107529 0)
(2.84269 -0.0232081 0)
(2.85186 0.00395762 0)
(2.84168 0.0791647 0)
(2.85193 0.093177 0)
(2.84228 0.15104 0)
(2.84292 0.158315 0)
(2.84057 0.17888 0)
(2.83681 0.174811 0)
(2.83869 0.181535 0)
(2.83782 0.175433 0)
(2.83728 0.171054 0)
(2.83583 0.168138 0)
(2.83807 0.156238 0)
(2.83752 0.153979 0)
(2.84133 0.147898 0)
(2.83973 0.13872 0)
(2.83682 0.128295 0)
(2.83378 0.121516 0)
(2.83054 0.118047 0)
(2.82475 0.110733 0)
(2.82379 0.108152 0)
(2.82309 0.109371 0)
(2.82395 0.11127 0)
(2.82824 0.115935 0)
(2.83185 0.118956 0)
(2.8306 0.118267 0)
(2.82905 0.116495 0)
(2.82961 0.11399 0)
(2.82846 0.113037 0)
(2.82647 0.103841 0)
(2.82762 0.102112 0)
(2.82921 0.091124 0)
(2.8317 0.0931036 0)
(2.83524 0.097674 0)
(2.84064 0.107854 0)
(2.84362 0.115413 0)
(2.85151 0.126994 0)
(2.85293 0.128732 0)
(2.85331 0.125858 0)
(2.85211 0.120596 0)
(2.85203 0.114249 0)
(2.85096 0.102304 0)
(2.85378 0.099849 0)
(2.8561 0.103712 0)
(2.86048 0.112739 0)
(2.86719 0.125208 0)
(2.87014 0.129647 0)
(2.87208 0.128053 0)
(2.87253 0.122271 0)
(2.87264 0.113344 0)
(2.87448 0.106534 0)
(2.87632 0.111266 0)
(2.87967 0.121596 0)
(2.88441 0.132948 0)
(2.88574 0.132553 0)
(2.88666 0.127479 0)
(2.88621 0.10747 0)
(2.88938 0.111962 0)
(2.89098 0.117834 0)
(2.89555 0.128888 0)
(2.89643 0.128238 0)
(2.89671 0.123733 0)
(2.8981 0.118408 0)
(2.89988 0.121865 0)
(2.90215 0.126747 0)
(2.90259 0.125282 0)
(2.90287 0.117911 0)
(2.90425 0.120413 0)
(2.90548 0.124355 0)
(2.90679 0.126278 0)
(2.90761 0.124802 0)
(2.90784 0.121861 0)
(2.90823 0.119898 0)
(2.90873 0.118796 0)
(2.9091 0.117926 0)
(2.90903 0.116416 0)
(2.90869 0.114297 0)
(2.90789 0.113803 0)
(2.90724 0.114119 0)
(2.90672 0.11266 0)
(2.90554 0.10793 0)
(2.904 0.102001 0)
(2.90272 0.0967109 0)
(2.90139 0.0921355 0)
(2.90012 0.0895922 0)
(2.89819 0.087 0)
(3.07342 -1.4787 0)
(3.07332 -1.47858 0)
(3.07317 -1.47851 0)
(3.07303 -1.47836 0)
(3.07282 -1.47831 0)
(3.07267 -1.4781 0)
(3.07239 -1.47811 0)
(3.07222 -1.47779 0)
(3.0719 -1.47796 0)
(3.07092 -1.47625 0)
(3.06598 -1.46563 0)
(3.05715 -1.44512 0)
(3.0431 -1.404 0)
(3.02478 -1.3543 0)
(2.99851 -1.26454 0)
(2.97231 -1.17696 0)
(2.93831 -1.03481 0)
(2.91359 -0.930434 0)
(2.87354 -0.746412 0)
(2.85487 -0.64133 0)
(2.81666 -0.465506 0)
(2.80587 -0.376395 0)
(2.77499 -0.23022 0)
(2.76951 -0.159673 0)
(2.75417 -0.0757795 0)
(2.73834 0.0104669 0)
(2.74615 0.0292338 0)
(2.7266 0.104882 0)
(2.73371 0.110889 0)
(2.72502 0.147314 0)
(2.72758 0.158237 0)
(2.72728 0.175081 0)
(2.72718 0.194876 0)
(2.73275 0.20309 0)
(2.73805 0.221125 0)
(2.74197 0.222441 0)
(2.7489 0.215348 0)
(2.7521 0.197164 0)
(2.75476 0.17259 0)
(2.75027 0.140454 0)
(2.75139 0.11943 0)
(2.75672 0.100024 0)
(2.75953 0.0828939 0)
(2.7661 0.0724781 0)
(2.77248 0.0841858 0)
(2.77601 0.101769 0)
(2.78351 0.125652 0)
(2.78113 0.147167 0)
(2.78442 0.163784 0)
(2.78528 0.163379 0)
(2.78594 0.158375 0)
(2.78291 0.142578 0)
(2.78359 0.127872 0)
(2.78315 0.109979 0)
(2.78855 0.104865 0)
(2.79281 0.111644 0)
(2.8022 0.124105 0)
(2.80761 0.138143 0)
(2.81425 0.147577 0)
(2.81784 0.146745 0)
(2.81958 0.139583 0)
(2.8195 0.127193 0)
(2.82146 0.118269 0)
(2.82708 0.116633 0)
(2.8322 0.124349 0)
(2.83796 0.132656 0)
(2.84267 0.131514 0)
(2.84617 0.12504 0)
(2.84813 0.119337 0)
(2.85152 0.108147 0)
(2.85508 0.115669 0)
(2.86005 0.125498 0)
(2.86477 0.128232 0)
(2.8688 0.124209 0)
(2.87185 0.12151 0)
(2.8748 0.116122 0)
(2.87801 0.121229 0)
(2.88171 0.122306 0)
(2.8851 0.12139 0)
(2.88826 0.114464 0)
(2.88895 0.120243 0)
(2.89199 0.123909 0)
(2.89479 0.125344 0)
(2.89723 0.125411 0)
(2.89911 0.125026 0)
(2.90047 0.126063 0)
(2.90191 0.126933 0)
(2.903 0.125805 0)
(2.90376 0.122174 0)
(2.90416 0.114192 0)
(2.90468 0.108481 0)
(2.90489 0.108452 0)
(2.90491 0.109841 0)
(2.90401 0.109742 0)
(2.90304 0.107427 0)
(2.90205 0.101922 0)
(2.90109 0.0959515 0)
(2.90017 0.0899887 0)
(2.89942 0.0866047 0)
(2.89768 0.0846792 0)
(3.0699 -1.47754 0)
(3.0695 -1.47754 0)
(3.0692 -1.47727 0)
(3.06872 -1.47729 0)
(3.06842 -1.47696 0)
(3.06788 -1.47702 0)
(3.06757 -1.47665 0)
(3.06699 -1.47674 0)
(3.06667 -1.47633 0)
(3.06601 -1.47645 0)
(3.0658 -1.47613 0)
(3.06556 -1.47598 0)
(3.06538 -1.47566 0)
(3.06509 -1.47556 0)
(3.0649 -1.4752 0)
(3.06453 -1.47522 0)
(3.06434 -1.47486 0)
(3.06388 -1.47504 0)
(3.06377 -1.47447 0)
(3.06333 -1.47508 0)
(3.05993 -1.46789 0)
(3.04896 -1.44339 0)
(3.0238 -1.38407 0)
(2.99059 -1.29371 0)
(2.94789 -1.17774 0)
(2.8995 -1.00665 0)
(2.86635 -0.884515 0)
(2.81604 -0.676873 0)
(2.80095 -0.581902 0)
(2.75677 -0.399728 0)
(2.7477 -0.306932 0)
(2.72771 -0.197284 0)
(2.70554 -0.084326 0)
(2.70894 -0.0535884 0)
(2.68851 0.0433881 0)
(2.68972 0.0435268 0)
(2.68669 0.0809716 0)
(2.69038 0.0832213 0)
(2.69094 0.0949006 0)
(2.70521 0.0967482 0)
(2.70756 0.0960856 0)
(2.70798 0.0934925 0)
(2.70893 0.0974052 0)
(2.70917 0.104091 0)
(2.70761 0.114782 0)
(2.70918 0.120766 0)
(2.71387 0.113162 0)
(2.7137 0.111932 0)
(2.71004 0.109983 0)
(2.70484 0.107417 0)
(2.70498 0.106591 0)
(2.70285 0.109236 0)
(2.71152 0.107127 0)
(2.71598 0.108107 0)
(2.72449 0.11115 0)
(2.73046 0.116079 0)
(2.74201 0.110248 0)
(2.74398 0.106934 0)
(2.74632 0.105221 0)
(2.74758 0.103832 0)
(2.74867 0.104701 0)
(2.74884 0.105064 0)
(2.75795 0.10878 0)
(2.76414 0.116395 0)
(2.77109 0.121123 0)
(2.77785 0.124338 0)
(2.78252 0.122262 0)
(2.78672 0.119768 0)
(2.78959 0.112279 0)
(2.79691 0.111709 0)
(2.80383 0.114812 0)
(2.81043 0.120267 0)
(2.81702 0.120608 0)
(2.82258 0.118466 0)
(2.82819 0.116627 0)
(2.83432 0.120669 0)
(2.84025 0.123773 0)
(2.84601 0.124619 0)
(2.8511 0.121116 0)
(2.85657 0.122122 0)
(2.8609 0.120769 0)
(2.86643 0.120206 0)
(2.87181 0.121638 0)
(2.87635 0.121677 0)
(2.88003 0.12085 0)
(2.88363 0.117856 0)
(2.88749 0.116055 0)
(2.89021 0.117319 0)
(2.89203 0.118036 0)
(2.89319 0.118341 0)
(2.89455 0.115543 0)
(2.89614 0.109794 0)
(2.89791 0.103869 0)
(2.89901 0.0998455 0)
(2.89855 0.100222 0)
(2.89758 0.101177 0)
(2.89716 0.0987773 0)
(2.89672 0.092699 0)
(2.89667 0.0848196 0)
(2.89597 0.0804334 0)
(3.0653 -1.47625 0)
(3.06506 -1.47603 0)
(3.06472 -1.47598 0)
(3.06447 -1.47573 0)
(3.06413 -1.47567 0)
(3.06389 -1.47542 0)
(3.06354 -1.4754 0)
(3.06332 -1.47512 0)
(3.06298 -1.47511 0)
(3.06275 -1.47489 0)
(3.06248 -1.4748 0)
(3.06223 -1.47468 0)
(3.06197 -1.47461 0)
(3.06174 -1.47453 0)
(3.06152 -1.47447 0)
(3.06139 -1.4743 0)
(3.06116 -1.47438 0)
(3.06105 -1.47427 0)
(3.06098 -1.47412 0)
(3.06078 -1.47432 0)
(3.0608 -1.4741 0)
(3.06085 -1.4739 0)
(3.06089 -1.47377 0)
(3.06086 -1.47383 0)
(3.06092 -1.47365 0)
(3.0609 -1.47368 0)
(3.06099 -1.47349 0)
(3.06096 -1.47374 0)
(3.06032 -1.47196 0)
(3.04834 -1.44523 0)
(3.02447 -1.38236 0)
(2.98534 -1.28289 0)
(2.93474 -1.11184 0)
(2.89497 -0.982779 0)
(2.82494 -0.722237 0)
(2.80425 -0.605498 0)
(2.73229 -0.363569 0)
(2.72633 -0.257603 0)
(2.66415 -0.0576927 0)
(2.68183 0.0057465 0)
(2.64162 0.129083 0)
(2.63881 0.15955 0)
(2.62876 0.213577 0)
(2.62625 0.212203 0)
(2.63205 0.20483 0)
(2.63624 0.19102 0)
(2.64265 0.154012 0)
(2.65731 0.124755 0)
(2.65822 0.0981823 0)
(2.6601 0.0827781 0)
(2.66277 0.0827489 0)
(2.66303 0.0877223 0)
(2.67113 0.108122 0)
(2.67273 0.125034 0)
(2.67467 0.141556 0)
(2.67778 0.148461 0)
(2.67667 0.144776 0)
(2.6758 0.137513 0)
(2.67391 0.124104 0)
(2.67621 0.114388 0)
(2.67916 0.109854 0)
(2.68729 0.116785 0)
(2.69406 0.124799 0)
(2.70091 0.126866 0)
(2.707 0.12456 0)
(2.71066 0.113818 0)
(2.71393 0.109715 0)
(2.71839 0.112112 0)
(2.72355 0.116668 0)
(2.73094 0.122695 0)
(2.73945 0.124243 0)
(2.74713 0.120714 0)
(2.75373 0.119531 0)
(2.76008 0.118189 0)
(2.76763 0.117897 0)
(2.77595 0.117179 0)
(2.78398 0.117634 0)
(2.79146 0.11721 0)
(2.79833 0.116324 0)
(2.80603 0.114576 0)
(2.81456 0.116775 0)
(2.82292 0.121908 0)
(2.83081 0.1253 0)
(2.83778 0.124884 0)
(2.84419 0.121351 0)
(2.85096 0.120568 0)
(2.8575 0.121611 0)
(2.86291 0.119603 0)
(2.86728 0.116136 0)
(2.87119 0.114055 0)
(2.87522 0.114859 0)
(2.87915 0.115489 0)
(2.88228 0.111575 0)
(2.88421 0.103395 0)
(2.88592 0.0942608 0)
(2.88769 0.091096 0)
(2.88819 0.0934836 0)
(2.88901 0.0948474 0)
(2.88965 0.0911378 0)
(2.89037 0.0822255 0)
(3.06239 -1.47416 0)
(3.06221 -1.47415 0)
(3.06209 -1.47403 0)
(3.06192 -1.47403 0)
(3.0618 -1.47392 0)
(3.06166 -1.4739 0)
(3.06154 -1.47383 0)
(3.06143 -1.47377 0)
(3.06133 -1.47372 0)
(3.06122 -1.47371 0)
(3.06118 -1.47362 0)
(3.06109 -1.47363 0)
(3.06102 -1.47363 0)
(3.061 -1.47356 0)
(3.06095 -1.47359 0)
(3.06094 -1.47354 0)
(3.06096 -1.47347 0)
(3.06091 -1.47357 0)
(3.06094 -1.47348 0)
(3.06097 -1.47343 0)
(3.06097 -1.47343 0)
(3.061 -1.47339 0)
(3.06104 -1.47338 0)
(3.06109 -1.47334 0)
(3.06109 -1.47343 0)
(3.06121 -1.47326 0)
(3.06118 -1.47347 0)
(3.06132 -1.47328 0)
(3.06132 -1.47353 0)
(3.06142 -1.47337 0)
(3.06146 -1.47338 0)
(3.06152 -1.4733 0)
(3.06151 -1.47333 0)
(3.06149 -1.4734 0)
(3.06161 -1.47324 0)
(3.06137 -1.47357 0)
(3.04395 -1.43409 0)
(3.00887 -1.34575 0)
(2.94549 -1.15866 0)
(2.8953 -0.979558 0)
(2.82367 -0.690607 0)
(2.8075 -0.545563 0)
(2.74207 -0.282651 0)
(2.74294 -0.196263 0)
(2.69911 -0.0391315 0)
(2.68217 -0.00611718 0)
(2.66842 0.030231 0)
(2.64925 0.0621249 0)
(2.65625 0.0763335 0)
(2.65804 0.0788997 0)
(2.65711 0.0831197 0)
(2.65177 0.0967377 0)
(2.644 0.111011 0)
(2.64689 0.124984 0)
(2.64315 0.124728 0)
(2.63894 0.123936 0)
(2.63547 0.119132 0)
(2.63584 0.110505 0)
(2.63684 0.106943 0)
(2.64404 0.101159 0)
(2.64846 0.103075 0)
(2.65709 0.109415 0)
(2.65859 0.115726 0)
(2.66095 0.120447 0)
(2.66099 0.122474 0)
(2.65918 0.116803 0)
(2.66209 0.108463 0)
(2.66946 0.10079 0)
(2.67368 0.103472 0)
(2.67912 0.109774 0)
(2.68472 0.115556 0)
(2.6895 0.117748 0)
(2.69417 0.112544 0)
(2.70071 0.110264 0)
(2.70698 0.114583 0)
(2.71459 0.118017 0)
(2.72191 0.121155 0)
(2.72885 0.119769 0)
(2.73604 0.116456 0)
(2.74573 0.115259 0)
(2.75564 0.118857 0)
(2.76532 0.120164 0)
(2.77447 0.117533 0)
(2.78333 0.115382 0)
(2.79219 0.116875 0)
(2.80162 0.118409 0)
(2.81064 0.118468 0)
(2.81883 0.115867 0)
(2.82634 0.111158 0)
(2.83406 0.107234 0)
(2.84158 0.105734 0)
(2.8481 0.105671 0)
(2.8533 0.106357 0)
(2.85766 0.105144 0)
(2.86155 0.0998787 0)
(2.86546 0.0918264 0)
(2.8695 0.0840972 0)
(2.87283 0.0828548 0)
(2.87457 0.0873149 0)
(2.87763 0.0865326 0)
(3.06087 -1.47377 0)
(3.06087 -1.4737 0)
(3.06082 -1.47374 0)
(3.06081 -1.4737 0)
(3.06079 -1.47368 0)
(3.06076 -1.4737 0)
(3.06077 -1.47366 0)
(3.06074 -1.47372 0)
(3.06077 -1.47364 0)
(3.06076 -1.47366 0)
(3.06077 -1.47368 0)
(3.06081 -1.47364 0)
(3.06083 -1.47367 0)
(3.06087 -1.47367 0)
(3.06094 -1.47359 0)
(3.06097 -1.4736 0)
(3.06103 -1.47356 0)
(3.06109 -1.4735 0)
(3.0611 -1.47355 0)
(3.06114 -1.47352 0)
(3.06118 -1.47349 0)
(3.06122 -1.47347 0)
(3.06124 -1.47351 0)
(3.06128 -1.47348 0)
(3.06135 -1.4734 0)
(3.06135 -1.47351 0)
(3.06145 -1.47337 0)
(3.06146 -1.47347 0)
(3.06154 -1.4734 0)
(3.06158 -1.47337 0)
(3.06161 -1.47336 0)
(3.06156 -1.47345 0)
(3.06154 -1.47348 0)
(3.06145 -1.4736 0)
(3.06133 -1.47374 0)
(3.06129 -1.47366 0)
(3.06112 -1.4738 0)
(3.06105 -1.47382 0)
(3.061 -1.47403 0)
(3.0611 -1.47391 0)
(3.06117 -1.47402 0)
(3.05703 -1.46163 0)
(3.02161 -1.36231 0)
(2.97165 -1.18969 0)
(2.88677 -0.885966 0)
(2.81098 -0.589611 0)
(2.78414 -0.384407 0)
(2.6972 -0.0966227 0)
(2.71827 -0.032225 0)
(2.65623 0.105415 0)
(2.63738 0.150211 0)
(2.62889 0.180345 0)
(2.62826 0.179486 0)
(2.62781 0.153402 0)
(2.62951 0.12108 0)
(2.63381 0.110385 0)
(2.63289 0.105318 0)
(2.63441 0.102694 0)
(2.636 0.10377 0)
(2.64144 0.109775 0)
(2.64499 0.119275 0)
(2.64934 0.1182 0)
(2.64904 0.116433 0)
(2.64725 0.113651 0)
(2.64374 0.108141 0)
(2.63701 0.105261 0)
(2.64095 0.112287 0)
(2.64532 0.115582 0)
(2.64963 0.117022 0)
(2.65451 0.116111 0)
(2.65483 0.114291 0)
(2.65512 0.114003 0)
(2.65736 0.112734 0)
(2.66247 0.111919 0)
(2.66667 0.113174 0)
(2.67152 0.114575 0)
(2.67553 0.110791 0)
(2.6798 0.110436 0)
(2.68521 0.112748 0)
(2.69336 0.116878 0)
(2.70191 0.118337 0)
(2.7096 0.119741 0)
(2.71695 0.119517 0)
(2.72527 0.115571 0)
(2.73462 0.113456 0)
(2.74437 0.113552 0)
(2.75399 0.111898 0)
(2.76303 0.110753 0)
(2.77206 0.109999 0)
(2.78207 0.109922 0)
(2.79158 0.110346 0)
(2.80037 0.107026 0)
(2.80844 0.100794 0)
(2.81584 0.0975193 0)
(2.82264 0.0971567 0)
(2.82933 0.0956428 0)
(2.83553 0.0921192 0)
(2.8413 0.0849422 0)
(2.84646 0.0799999 0)
(2.8536 0.0795791 0)
(3.06084 -1.47342 0)
(3.06085 -1.47346 0)
(3.06089 -1.47343 0)
(3.0609 -1.47348 0)
(3.06092 -1.47347 0)
(3.06095 -1.47347 0)
(3.06096 -1.47352 0)
(3.06101 -1.47348 0)
(3.06104 -1.47349 0)
(3.0611 -1.47345 0)
(3.06112 -1.47347 0)
(3.06115 -1.47352 0)
(3.06121 -1.47346 0)
(3.06128 -1.47344 0)
(3.06133 -1.47344 0)
(3.0614 -1.47341 0)
(3.06143 -1.47343 0)
(3.06147 -1.4734 0)
(3.06149 -1.47337 0)
(3.06151 -1.47335 0)
(3.06152 -1.47336 0)
(3.06159 -1.47326 0)
(3.06157 -1.47332 0)
(3.0616 -1.47328 0)
(3.06161 -1.47331 0)
(3.06164 -1.47328 0)
(3.06162 -1.47336 0)
(3.06167 -1.47332 0)
(3.06169 -1.47332 0)
(3.06165 -1.47342 0)
(3.06167 -1.47338 0)
(3.06158 -1.4735 0)
(3.06149 -1.4736 0)
(3.06143 -1.47365 0)
(3.0613 -1.47376 0)
(3.06114 -1.47388 0)
(3.0611 -1.47379 0)
(3.06104 -1.47391 0)
(3.06108 -1.47413 0)
(3.06118 -1.4741 0)
(3.06138 -1.47408 0)
(3.06147 -1.47398 0)
(3.06162 -1.47388 0)
(3.06175 -1.47388 0)
(3.06189 -1.47383 0)
(3.06186 -1.47405 0)
(3.04196 -1.42046 0)
(2.98257 -1.23848 0)
(2.92934 -1.00611 0)
(2.84367 -0.653094 0)
(2.81363 -0.448067 0)
(2.7909 -0.261091 0)
(2.7268 -0.0656927 0)
(2.72282 -0.0217012 0)
(2.67395 0.0449439 0)
(2.67128 0.0595551 0)
(2.65812 0.080375 0)
(2.6523 0.097649 0)
(2.64857 0.111936 0)
(2.64231 0.130188 0)
(2.64247 0.135566 0)
(2.63784 0.125922 0)
(2.63755 0.109633 0)
(2.63574 0.0996725 0)
(2.63723 0.0970743 0)
(2.63788 0.0990032 0)
(2.64266 0.106486 0)
(2.64506 0.113024 0)
(2.647 0.118426 0)
(2.64645 0.116709 0)
(2.64457 0.111858 0)
(2.64609 0.106432 0)
(2.64602 0.111091 0)
(2.64812 0.114053 0)
(2.65134 0.114846 0)
(2.65261 0.113011 0)
(2.65335 0.112008 0)
(2.65643 0.108648 0)
(2.65949 0.110634 0)
(2.66357 0.113903 0)
(2.66871 0.11521 0)
(2.67248 0.110833 0)
(2.67646 0.109898 0)
(2.68128 0.113707 0)
(2.68825 0.116255 0)
(2.69532 0.116697 0)
(2.70226 0.114372 0)
(2.7094 0.108372 0)
(2.71726 0.107102 0)
(2.72661 0.105933 0)
(2.7362 0.101484 0)
(2.74529 0.100164 0)
(2.75365 0.095284 0)
(2.76249 0.0915045 0)
(2.77115 0.0895648 0)
(2.77943 0.0877792 0)
(2.78756 0.0855054 0)
(2.79603 0.0861442 0)
(2.80339 0.0832722 0)
(2.81482 0.0779516 0)
(3.06101 -1.47378 0)
(3.06105 -1.47378 0)
(3.06108 -1.47378 0)
(3.06111 -1.47376 0)
(3.06114 -1.47375 0)
(3.06116 -1.47377 0)
(3.0612 -1.47376 0)
(3.06124 -1.47377 0)
(3.0613 -1.47372 0)
(3.06134 -1.47372 0)
(3.06136 -1.47372 0)
(3.0614 -1.47372 0)
(3.06145 -1.47367 0)
(3.06151 -1.4736 0)
(3.06158 -1.47354 0)
(3.06162 -1.47355 0)
(3.06166 -1.47352 0)
(3.06167 -1.4735 0)
(3.06163 -1.47353 0)
(3.06162 -1.4735 0)
(3.0616 -1.47351 0)
(3.0616 -1.47351 0)
(3.0616 -1.47349 0)
(3.06156 -1.47355 0)
(3.06158 -1.47352 0)
(3.06154 -1.47359 0)
(3.06151 -1.47368 0)
(3.06153 -1.47366 0)
(3.06149 -1.47374 0)
(3.06152 -1.47372 0)
(3.06148 -1.47379 0)
(3.0615 -1.47376 0)
(3.06143 -1.47385 0)
(3.06135 -1.47398 0)
(3.06131 -1.47397 0)
(3.06127 -1.4739 0)
(3.06115 -1.47403 0)
(3.06127 -1.47408 0)
(3.06137 -1.47406 0)
(3.06144 -1.47405 0)
(3.06161 -1.47399 0)
(3.06173 -1.47392 0)
(3.06186 -1.47389 0)
(3.06195 -1.47388 0)
(3.06196 -1.47394 0)
(3.06195 -1.474 0)
(3.06201 -1.47406 0)
(3.0622 -1.4742 0)
(3.06227 -1.47422 0)
(3.06256 -1.47426 0)
(3.05036 -1.42958 0)
(3.00284 -1.25807 0)
(2.90733 -0.887524 0)
(2.88453 -0.648962 0)
(2.76068 -0.244456 0)
(2.7726 -0.131498 0)
(2.69776 0.0528365 0)
(2.68451 0.113101 0)
(2.65028 0.147114 0)
(2.64651 0.166495 0)
(2.64214 0.146718 0)
(2.63996 0.125245 0)
(2.63598 0.106684 0)
(2.6385 0.105914 0)
(2.64297 0.103584 0)
(2.64845 0.105961 0)
(2.65235 0.112152 0)
(2.65208 0.119959 0)
(2.65008 0.120075 0)
(2.64494 0.115063 0)
(2.64296 0.107736 0)
(2.6451 0.106492 0)
(2.64854 0.109967 0)
(2.65044 0.114312 0)
(2.65031 0.114168 0)
(2.64888 0.110133 0)
(2.64905 0.107887 0)
(2.65043 0.109643 0)
(2.65307 0.114036 0)
(2.65496 0.11708 0)
(2.65534 0.116286 0)
(2.65553 0.114443 0)
(2.65747 0.111593 0)
(2.66015 0.109256 0)
(2.6631 0.110003 0)
(2.66589 0.107247 0)
(2.66838 0.104414 0)
(2.67194 0.103083 0)
(2.67777 0.0998779 0)
(2.68338 0.103188 0)
(2.68985 0.106145 0)
(2.69616 0.0999835 0)
(2.70179 0.099193 0)
(2.70923 0.0948403 0)
(2.7172 0.0890666 0)
(2.72511 0.0864766 0)
(2.73349 0.0837914 0)
(2.74305 0.0801323 0)
(2.75094 0.0812349 0)
(2.76471 0.0795762 0)
(3.06142 -1.47364 0)
(3.06145 -1.47364 0)
(3.06147 -1.47361 0)
(3.0615 -1.47358 0)
(3.06152 -1.47354 0)
(3.06152 -1.47358 0)
(3.06155 -1.47357 0)
(3.06159 -1.4735 0)
(3.06162 -1.4735 0)
(3.06166 -1.47348 0)
(3.06168 -1.4735 0)
(3.06171 -1.47344 0)
(3.06174 -1.47337 0)
(3.06177 -1.47335 0)
(3.0618 -1.47331 0)
(3.06181 -1.47332 0)
(3.06176 -1.47339 0)
(3.06175 -1.47335 0)
(3.06168 -1.47336 0)
(3.0616 -1.47343 0)
(3.06159 -1.4734 0)
(3.06156 -1.47342 0)
(3.06154 -1.47344 0)
(3.06149 -1.47354 0)
(3.06151 -1.47352 0)
(3.06152 -1.47353 0)
(3.0615 -1.47362 0)
(3.06151 -1.47367 0)
(3.06154 -1.4737 0)
(3.06155 -1.47378 0)
(3.06159 -1.47378 0)
(3.06166 -1.47374 0)
(3.06163 -1.47383 0)
(3.06162 -1.47389 0)
(3.06163 -1.47383 0)
(3.06157 -1.47388 0)
(3.06162 -1.47389 0)
(3.0617 -1.47388 0)
(3.06171 -1.4739 0)
(3.06183 -1.47387 0)
(3.062 -1.47386 0)
(3.06205 -1.47384 0)
(3.0621 -1.47381 0)
(3.0621 -1.47379 0)
(3.06197 -1.47387 0)
(3.06188 -1.47404 0)
(3.06203 -1.4742 0)
(3.06235 -1.47441 0)
(3.06247 -1.47448 0)
(3.06278 -1.47451 0)
(3.06311 -1.47451 0)
(3.06332 -1.47428 0)
(3.06328 -1.47388 0)
(3.06287 -1.47367 0)
(3.02613 -1.36885 0)
(2.97466 -1.13649 0)
(2.89813 -0.797008 0)
(2.82807 -0.450929 0)
(2.82348 -0.286203 0)
(2.72811 -0.0401745 0)
(2.70769 0.00845489 0)
(2.68723 0.0666097 0)
(2.66525 0.0958345 0)
(2.66108 0.110954 0)
(2.65875 0.111026 0)
(2.66264 0.120834 0)
(2.65391 0.123716 0)
(2.65149 0.120196 0)
(2.64736 0.112767 0)
(2.64326 0.102644 0)
(2.64639 0.103866 0)
(2.65134 0.10985 0)
(2.6539 0.115634 0)
(2.65349 0.116132 0)
(2.65057 0.112073 0)
(2.64837 0.105278 0)
(2.64963 0.106343 0)
(2.65222 0.110041 0)
(2.65416 0.115798 0)
(2.65398 0.11634 0)
(2.65242 0.112912 0)
(2.6519 0.109596 0)
(2.65254 0.110226 0)
(2.6533 0.111447 0)
(2.65363 0.110835 0)
(2.65312 0.108641 0)
(2.65291 0.10456 0)
(2.65421 0.103702 0)
(2.65736 0.10386 0)
(2.65937 0.09885 0)
(2.66164 0.0960354 0)
(2.66336 0.0938213 0)
(2.6666 0.0862559 0)
(2.66934 0.0867519 0)
(2.67441 0.085514 0)
(2.68027 0.0808298 0)
(2.68641 0.0811014 0)
(2.69412 0.0807221 0)
(2.70079 0.0737557 0)
(2.71322 0.0719876 0)
(3.06155 -1.47364 0)
(3.06157 -1.47363 0)
(3.06158 -1.47363 0)
(3.0616 -1.47361 0)
(3.06161 -1.47357 0)
(3.06162 -1.47356 0)
(3.06163 -1.47357 0)
(3.06165 -1.47353 0)
(3.06166 -1.47353 0)
(3.06166 -1.47354 0)
(3.06167 -1.47353 0)
(3.06168 -1.47352 0)
(3.06171 -1.47347 0)
(3.06167 -1.4735 0)
(3.06165 -1.47351 0)
(3.06161 -1.47352 0)
(3.06147 -1.47366 0)
(3.06139 -1.47369 0)
(3.06134 -1.4737 0)
(3.06123 -1.47385 0)
(3.06122 -1.47387 0)
(3.06125 -1.47385 0)
(3.06122 -1.47394 0)
(3.06125 -1.47393 0)
(3.0613 -1.47393 0)
(3.06135 -1.47397 0)
(3.06144 -1.47394 0)
(3.06152 -1.47391 0)
(3.06158 -1.474 0)
(3.06165 -1.474 0)
(3.06173 -1.47397 0)
(3.06179 -1.47399 0)
(3.06185 -1.47394 0)
(3.0619 -1.4739 0)
(3.06188 -1.47395 0)
(3.06188 -1.47392 0)
(3.06195 -1.47387 0)
(3.06198 -1.47387 0)
(3.06202 -1.47389 0)
(3.06215 -1.47383 0)
(3.06228 -1.47382 0)
(3.06229 -1.47383 0)
(3.06228 -1.47381 0)
(3.06223 -1.47373 0)
(3.06187 -1.47384 0)
(3.06178 -1.47419 0)
(3.06202 -1.47437 0)
(3.06237 -1.47458 0)
(3.06251 -1.47468 0)
(3.0628 -1.47474 0)
(3.06328 -1.47478 0)
(3.06358 -1.4745 0)
(3.0638 -1.47385 0)
(3.06351 -1.47324 0)
(3.06298 -1.47323 0)
(3.06242 -1.47387 0)
(3.06223 -1.47483 0)
(3.05202 -1.44098 0)
(3.01543 -1.27785 0)
(2.89411 -0.822948 0)
(2.84918 -0.521465 0)
(2.7828 -0.201201 0)
(2.6997 0.0487613 0)
(2.70001 0.0915309 0)
(2.6621 0.139369 0)
(2.65629 0.144823 0)
(2.65677 0.128075 0)
(2.65526 0.116122 0)
(2.65328 0.108211 0)
(2.65466 0.107012 0)
(2.65731 0.111565 0)
(2.66096 0.118566 0)
(2.65583 0.118231 0)
(2.65226 0.11386 0)
(2.64908 0.106731 0)
(2.64922 0.106299 0)
(2.65175 0.110194 0)
(2.6545 0.11582 0)
(2.65518 0.119211 0)
(2.65332 0.114822 0)
(2.65128 0.10843 0)
(2.65125 0.107769 0)
(2.65211 0.109781 0)
(2.65224 0.11061 0)
(2.6515 0.109418 0)
(2.64997 0.105415 0)
(2.64952 0.102214 0)
(2.6495 0.100868 0)
(2.64955 0.102057 0)
(2.64925 0.100569 0)
(2.64823 0.0955843 0)
(2.64688 0.0926815 0)
(2.64827 0.089803 0)
(2.64841 0.085406 0)
(2.64993 0.0853063 0)
(2.65226 0.0824418 0)
(2.65565 0.075858 0)
(2.65963 0.077598 0)
(2.66355 0.0801666 0)
(2.67157 0.0745357 0)
(3.0617 -1.4733 0)
(3.06169 -1.47332 0)
(3.0617 -1.47331 0)
(3.0617 -1.47331 0)
(3.0617 -1.47333 0)
(3.0617 -1.47334 0)
(3.06171 -1.47333 0)
(3.06168 -1.47337 0)
(3.06168 -1.47336 0)
(3.06166 -1.47336 0)
(3.06165 -1.47337 0)
(3.06164 -1.47339 0)
(3.06163 -1.4734 0)
(3.06156 -1.47347 0)
(3.06147 -1.47356 0)
(3.06142 -1.47358 0)
(3.0613 -1.47373 0)
(3.06124 -1.47376 0)
(3.06122 -1.47379 0)
(3.0612 -1.47391 0)
(3.06124 -1.47394 0)
(3.06128 -1.47398 0)
(3.06135 -1.47399 0)
(3.0614 -1.47399 0)
(3.06149 -1.47396 0)
(3.06163 -1.47393 0)
(3.06169 -1.47391 0)
(3.06177 -1.4739 0)
(3.06193 -1.47391 0)
(3.06199 -1.47392 0)
(3.06204 -1.47391 0)
(3.0621 -1.47389 0)
(3.06215 -1.47385 0)
(3.06217 -1.47383 0)
(3.06217 -1.47383 0)
(3.06216 -1.47382 0)
(3.06217 -1.47383 0)
(3.0622 -1.47385 0)
(3.06227 -1.47387 0)
(3.06242 -1.47383 0)
(3.06247 -1.47382 0)
(3.06246 -1.47382 0)
(3.06244 -1.47377 0)
(3.06235 -1.47359 0)
(3.06186 -1.47376 0)
(3.06177 -1.47422 0)
(3.06201 -1.47448 0)
(3.06241 -1.47473 0)
(3.06259 -1.47488 0)
(3.06278 -1.47498 0)
(3.0633 -1.47496 0)
(3.06365 -1.47473 0)
(3.06403 -1.47398 0)
(3.06374 -1.47325 0)
(3.06343 -1.47325 0)
(3.06279 -1.47376 0)
(3.06215 -1.47462 0)
(3.06145 -1.47644 0)
(3.0618 -1.47693 0)
(3.06216 -1.47641 0)
(3.05771 -1.45866 0)
(2.99786 -1.25198 0)
(2.91958 -0.905156 0)
(2.83165 -0.474181 0)
(2.79262 -0.226139 0)
(2.7046 -0.00491943 0)
(2.70078 0.0410293 0)
(2.67834 0.0796678 0)
(2.67253 0.096961 0)
(2.66935 0.111998 0)
(2.6614 0.127491 0)
(2.6562 0.123431 0)
(2.64911 0.114268 0)
(2.64283 0.0992336 0)
(2.64632 0.100691 0)
(2.64992 0.10735 0)
(2.65439 0.117291 0)
(2.65525 0.122349 0)
(2.65337 0.117124 0)
(2.65022 0.107097 0)
(2.64881 0.105363 0)
(2.65031 0.108888 0)
(2.65166 0.112223 0)
(2.6512 0.111229 0)
(2.64961 0.106327 0)
(2.64791 0.100938 0)
(2.64812 0.100357 0)
(2.6481 0.100373 0)
(2.64768 0.100289 0)
(2.64624 0.0979849 0)
(2.64456 0.0934691 0)
(2.64284 0.0883325 0)
(2.64155 0.0878037 0)
(2.64142 0.0831874 0)
(2.64086 0.0791742 0)
(2.63958 0.0799899 0)
(2.64044 0.0785029 0)
(2.64156 0.073156 0)
(2.64297 0.0720582 0)
(2.64556 0.0715333 0)
(3.06175 -1.47319 0)
(3.06175 -1.47321 0)
(3.06173 -1.47327 0)
(3.06173 -1.47331 0)
(3.06172 -1.47332 0)
(3.06167 -1.47338 0)
(3.06164 -1.4734 0)
(3.06157 -1.47349 0)
(3.06157 -1.47352 0)
(3.06159 -1.47353 0)
(3.06155 -1.47362 0)
(3.06155 -1.47367 0)
(3.06156 -1.47366 0)
(3.06151 -1.47371 0)
(3.06142 -1.47381 0)
(3.06136 -1.47391 0)
(3.06135 -1.47393 0)
(3.06134 -1.47398 0)
(3.06133 -1.47406 0)
(3.06138 -1.47415 0)
(3.06142 -1.47417 0)
(3.06148 -1.47418 0)
(3.06156 -1.47419 0)
(3.06162 -1.47416 0)
(3.06167 -1.47411 0)
(3.06174 -1.47405 0)
(3.06178 -1.47406 0)
(3.06192 -1.474 0)
(3.0621 -1.47404 0)
(3.06216 -1.47403 0)
(3.06222 -1.47402 0)
(3.06225 -1.47401 0)
(3.06227 -1.47401 0)
(3.06229 -1.47401 0)
(3.06232 -1.47402 0)
(3.06235 -1.47402 0)
(3.06239 -1.47402 0)
(3.06243 -1.47403 0)
(3.06256 -1.47403 0)
(3.06274 -1.47397 0)
(3.06274 -1.47391 0)
(3.06264 -1.47382 0)
(3.0626 -1.47374 0)
(3.06243 -1.47351 0)
(3.06199 -1.47378 0)
(3.06182 -1.47415 0)
(3.06201 -1.47455 0)
(3.06229 -1.47474 0)
(3.06255 -1.47496 0)
(3.06278 -1.47507 0)
(3.06322 -1.47507 0)
(3.06363 -1.47487 0)
(3.06406 -1.4741 0)
(3.06392 -1.47342 0)
(3.06386 -1.47329 0)
(3.06362 -1.47331 0)
(3.06177 -1.47443 0)
(3.06067 -1.47677 0)
(3.06101 -1.47812 0)
(3.06171 -1.47738 0)
(3.0626 -1.47562 0)
(3.06292 -1.47512 0)
(3.06315 -1.47481 0)
(3.05447 -1.4476 0)
(3.00232 -1.24259 0)
(2.85322 -0.693279 0)
(2.85927 -0.409358 0)
(2.71376 0.0185767 0)
(2.69358 0.0611759 0)
(2.67395 0.162422 0)
(2.65138 0.15187 0)
(2.64478 0.123985 0)
(2.64518 0.106271 0)
(2.64572 0.103639 0)
(2.64822 0.106123 0)
(2.65522 0.122906 0)
(2.65421 0.127545 0)
(2.65056 0.121329 0)
(2.64739 0.111933 0)
(2.6444 0.103811 0)
(2.64648 0.107755 0)
(2.64942 0.112906 0)
(2.64953 0.112549 0)
(2.64712 0.108068 0)
(2.64535 0.102506 0)
(2.64435 0.100527 0)
(2.64461 0.100893 0)
(2.64583 0.100353 0)
(2.64514 0.0984302 0)
(2.64337 0.0943518 0)
(2.64219 0.0905766 0)
(2.64074 0.0863517 0)
(2.63927 0.0846476 0)
(2.63923 0.0826112 0)
(2.63747 0.0793598 0)
(2.63634 0.0767365 0)
(2.63476 0.0773312 0)
(2.63402 0.0742501 0)
(2.63363 0.0710137 0)
(2.63319 0.0690692 0)
(3.06169 -1.47347 0)
(3.0617 -1.4735 0)
(3.0617 -1.47354 0)
(3.0617 -1.47355 0)
(3.0617 -1.47356 0)
(3.06169 -1.47354 0)
(3.06169 -1.47352 0)
(3.06163 -1.47364 0)
(3.06165 -1.47374 0)
(3.06169 -1.47381 0)
(3.06165 -1.47392 0)
(3.06165 -1.47403 0)
(3.06168 -1.47404 0)
(3.06168 -1.47406 0)
(3.0616 -1.47416 0)
(3.06155 -1.47416 0)
(3.06151 -1.47414 0)
(3.0615 -1.4742 0)
(3.06151 -1.47425 0)
(3.06152 -1.47427 0)
(3.06154 -1.4743 0)
(3.06163 -1.4743 0)
(3.06171 -1.47429 0)
(3.06177 -1.4743 0)
(3.06189 -1.47425 0)
(3.06198 -1.47423 0)
(3.06208 -1.47422 0)
(3.06226 -1.47417 0)
(3.06232 -1.47414 0)
(3.06236 -1.47413 0)
(3.06237 -1.47411 0)
(3.06237 -1.47413 0)
(3.06236 -1.4742 0)
(3.06236 -1.47431 0)
(3.06245 -1.47444 0)
(3.06258 -1.47451 0)
(3.06263 -1.47452 0)
(3.06273 -1.47455 0)
(3.06295 -1.47444 0)
(3.06309 -1.47424 0)
(3.06307 -1.47407 0)
(3.06301 -1.47372 0)
(3.06291 -1.47357 0)
(3.06262 -1.47332 0)
(3.06222 -1.47356 0)
(3.06213 -1.47372 0)
(3.06221 -1.4741 0)
(3.06226 -1.47438 0)
(3.06241 -1.47479 0)
(3.06274 -1.47512 0)
(3.06314 -1.47528 0)
(3.06343 -1.4751 0)
(3.06374 -1.47446 0)
(3.06415 -1.47359 0)
(3.06436 -1.47309 0)
(3.06361 -1.47327 0)
(3.06132 -1.47452 0)
(3.06082 -1.47679 0)
(3.06116 -1.47782 0)
(3.06168 -1.47754 0)
(3.06269 -1.47628 0)
(3.06327 -1.47493 0)
(3.06405 -1.47203 0)
(3.06395 -1.47339 0)
(3.0635 -1.47524 0)
(3.06372 -1.47472 0)
(3.04499 -1.39861 0)
(2.93805 -0.995541 0)
(2.88959 -0.641906 0)
(2.75534 -0.16033 0)
(2.74503 -0.0694279 0)
(2.68143 0.0360502 0)
(2.67202 0.0735929 0)
(2.66597 0.100999 0)
(2.65058 0.127104 0)
(2.64817 0.132975 0)
(2.64123 0.125407 0)
(2.63144 0.103008 0)
(2.63544 0.0957121 0)
(2.63997 0.102391 0)
(2.64636 0.113976 0)
(2.64725 0.115014 0)
(2.64422 0.110208 0)
(2.6395 0.100296 0)
(2.63909 0.0991489 0)
(2.64042 0.100367 0)
(2.64146 0.10103 0)
(2.64142 0.0995396 0)
(2.64022 0.0953257 0)
(2.63817 0.0902098 0)
(2.63733 0.0883916 0)
(2.63649 0.0852198 0)
(2.63579 0.0826916 0)
(2.63469 0.0805784 0)
(2.63409 0.0777493 0)
(2.63416 0.0753979 0)
(2.63285 0.0745019 0)
(2.631 0.0741983 0)
(2.63039 0.0717045 0)
(2.62948 0.0681545 0)
(3.06173 -1.47389 0)
(3.06173 -1.47394 0)
(3.06174 -1.47399 0)
(3.06177 -1.47399 0)
(3.06179 -1.474 0)
(3.0618 -1.47402 0)
(3.06184 -1.474 0)
(3.06185 -1.47398 0)
(3.06185 -1.47404 0)
(3.06184 -1.47408 0)
(3.06187 -1.47411 0)
(3.0619 -1.47412 0)
(3.06187 -1.4742 0)
(3.06183 -1.47427 0)
(3.06182 -1.4743 0)
(3.06182 -1.47431 0)
(3.06187 -1.47426 0)
(3.0619 -1.47424 0)
(3.06195 -1.47422 0)
(3.06201 -1.47426 0)
(3.06205 -1.47429 0)
(3.06216 -1.47426 0)
(3.0622 -1.47425 0)
(3.06222 -1.47425 0)
(3.06225 -1.47425 0)
(3.06225 -1.47427 0)
(3.0624 -1.47421 0)
(3.06247 -1.47419 0)
(3.06249 -1.47419 0)
(3.06248 -1.47422 0)
(3.06245 -1.47428 0)
(3.06239 -1.47439 0)
(3.06229 -1.47458 0)
(3.06228 -1.47481 0)
(3.06247 -1.47504 0)
(3.06257 -1.47511 0)
(3.06277 -1.47511 0)
(3.06306 -1.47497 0)
(3.06317 -1.47484 0)
(3.06325 -1.47467 0)
(3.0634 -1.47423 0)
(3.06345 -1.47356 0)
(3.06337 -1.4732 0)
(3.06322 -1.47302 0)
(3.06295 -1.47282 0)
(3.0627 -1.47308 0)
(3.06253 -1.47347 0)
(3.06243 -1.47397 0)
(3.06228 -1.47469 0)
(3.06247 -1.47512 0)
(3.06295 -1.47541 0)
(3.06327 -1.47535 0)
(3.06343 -1.47488 0)
(3.0638 -1.47438 0)
(3.0642 -1.47359 0)
(3.0633 -1.47356 0)
(3.06171 -1.47463 0)
(3.06143 -1.4766 0)
(3.06107 -1.47733 0)
(3.06155 -1.47746 0)
(3.06226 -1.4773 0)
(3.06375 -1.47534 0)
(3.06457 -1.47232 0)
(3.06452 -1.47228 0)
(3.06406 -1.47353 0)
(3.06357 -1.47362 0)
(3.06344 -1.4736 0)
(3.06322 -1.47347 0)
(3.06181 -1.47512 0)
(2.98038 -1.2224 0)
(2.90962 -0.792018 0)
(2.75111 -0.237197 0)
(2.75262 -0.0396004 0)
(2.6584 0.164355 0)
(2.65037 0.176781 0)
(2.63807 0.14146 0)
(2.64389 0.117687 0)
(2.63788 0.100077 0)
(2.63944 0.100449 0)
(2.64756 0.118609 0)
(2.64697 0.118623 0)
(2.64252 0.113058 0)
(2.6359 0.103698 0)
(2.63658 0.0992456 0)
(2.63776 0.0999324 0)
(2.63899 0.101311 0)
(2.63892 0.100489 0)
(2.63763 0.0972921 0)
(2.6355 0.0922565 0)
(2.63376 0.087218 0)
(2.63294 0.0856664 0)
(2.63279 0.0842454 0)
(2.63162 0.0804144 0)
(2.63008 0.0783298 0)
(2.62983 0.0766395 0)
(2.62986 0.0741441 0)
(2.63019 0.0726249 0)