/*--------------------------------*- C++ -*----------------------------------*\
  =========                 |
  \\      /  F ield         | OpenFOAM: The Open Source CFD Toolbox
   \\    /   O peration     | Website:  https://openfoam.org
    \\  /    A nd           | Version:  7
     \\/     M anipulation  |
\*---------------------------------------------------------------------------*/
FoamFile
{
    version     2.0;
    format      ascii;
    class       volScalarField;
    location    "5.5";
    object      rho;
}
// * * * * * * * * * * * * * * * * * * * * * * * * * * * * * * * * * * * * * //

dimensions      [1 -3 0 0 0 0 0];

internalField   nonuniform List<scalar> 
90000
(
1.27937
1.27475
1.26992
1.26713
1.26592
1.26492
1.26421
1.26454
1.26534
1.26738
1.26904
1.27111
1.2729
1.27524
1.2773
1.27974
1.2819
1.28401
1.28595
1.28782
1.28981
1.29113
1.29271
1.29415
1.29562
1.29715
1.29883
1.3006
1.30233
1.30443
1.30652
1.30877
1.31093
1.31323
1.31541
1.31757
1.31912
1.32038
1.31994
1.31827
1.31519
1.311
1.30619
1.30199
1.29967
1.29809
1.29844
1.29945
1.30198
1.30538
1.30924
1.31311
1.31644
1.31886
1.3206
1.32153
1.31953
1.31556
1.31065
1.30644
1.30524
1.30613
1.30896
1.31281
1.31575
1.31851
1.31774
1.31517
1.31051
1.30654
1.30617
1.30876
1.31376
1.31864
1.31842
1.31708
1.31409
1.31184
1.31317
1.31535
1.31786
1.31759
1.31578
1.31424
1.31468
1.31606
1.31833
1.31819
1.31672
1.31604
1.31638
1.31728
1.31747
1.31741
1.31745
1.31758
1.31753
1.31744
1.3175
1.31789
1.28356
1.28364
1.28371
1.28382
1.28394
1.28406
1.2842
1.28435
1.28449
1.28479
1.28511
1.28533
1.2857
1.28617
1.28654
1.287
1.28759
1.28824
1.28893
1.28973
1.29071
1.29169
1.29279
1.29402
1.29532
1.29669
1.29824
1.2999
1.3018
1.30389
1.30623
1.30867
1.31131
1.31393
1.31667
1.31922
1.32141
1.32362
1.32518
1.32707
1.32856
1.3299
1.33037
1.32954
1.32739
1.32391
1.32008
1.31662
1.31438
1.3136
1.31456
1.31606
1.31856
1.32104
1.32423
1.32739
1.32981
1.33213
1.33045
1.32636
1.32157
1.31764
1.31634
1.31711
1.3193
1.32267
1.32609
1.32821
1.32607
1.32171
1.31761
1.31683
1.31844
1.32195
1.32571
1.32662
1.32464
1.32202
1.32116
1.32175
1.3234
1.32477
1.3242
1.32259
1.32215
1.32269
1.32402
1.32466
1.32406
1.32279
1.32247
1.32286
1.32348
1.32346
1.32338
1.32337
1.32335
1.32322
1.32308
1.32329
1.28475
1.2848
1.28487
1.28494
1.28501
1.28509
1.28518
1.28526
1.28536
1.28548
1.28563
1.28581
1.28606
1.28635
1.28665
1.287
1.28743
1.28793
1.28847
1.28905
1.28973
1.29053
1.29145
1.29248
1.2936
1.29476
1.29606
1.29744
1.29901
1.30068
1.30262
1.30471
1.30714
1.30965
1.31246
1.31538
1.31832
1.32142
1.32423
1.3269
1.3291
1.33088
1.33193
1.33242
1.3324
1.33284
1.33375
1.33362
1.33259
1.33051
1.32808
1.32613
1.32532
1.32571
1.32709
1.32869
1.33116
1.33369
1.33536
1.33801
1.33791
1.33595
1.33211
1.32841
1.32687
1.32754
1.32975
1.33246
1.33599
1.33583
1.33322
1.32905
1.32608
1.32666
1.32978
1.33316
1.33564
1.33398
1.33084
1.32861
1.32944
1.3315
1.33312
1.33205
1.33005
1.32999
1.33074
1.33218
1.33212
1.33111
1.33016
1.33023
1.33044
1.33059
1.33048
1.33032
1.33019
1.33002
1.32976
1.32967
1.28626
1.28627
1.2863
1.28633
1.28636
1.2864
1.28645
1.2865
1.28654
1.28657
1.28661
1.28667
1.28674
1.28685
1.28694
1.287
1.28709
1.28724
1.28744
1.28761
1.28782
1.28815
1.28859
1.28912
1.28971
1.29033
1.29106
1.29187
1.2928
1.29383
1.29506
1.29639
1.29798
1.29969
1.30176
1.30399
1.30664
1.3094
1.31261
1.31585
1.31921
1.32277
1.32567
1.32893
1.33113
1.33371
1.33518
1.3358
1.33586
1.33612
1.33652
1.3364
1.33576
1.33468
1.33347
1.33234
1.33276
1.33351
1.33584
1.339
1.34041
1.34181
1.34253
1.34142
1.33862
1.33567
1.33446
1.33515
1.33736
1.33965
1.34129
1.3406
1.33747
1.33416
1.33422
1.33555
1.3379
1.34055
1.33991
1.33758
1.33559
1.33611
1.33751
1.3391
1.33801
1.3366
1.33669
1.33756
1.33818
1.33794
1.33683
1.33628
1.33608
1.33628
1.33648
1.33637
1.33614
1.33591
1.33565
1.33536
1.28794
1.28794
1.28794
1.28794
1.28794
1.28796
1.28797
1.28799
1.28801
1.28805
1.28808
1.28811
1.28813
1.28817
1.28821
1.28821
1.2882
1.2882
1.28822
1.28827
1.28831
1.28837
1.28847
1.28859
1.28873
1.28885
1.28898
1.2892
1.28951
1.28989
1.29035
1.29093
1.29163
1.29247
1.29352
1.29477
1.29636
1.2981
1.30033
1.30274
1.30581
1.3091
1.31291
1.31688
1.32102
1.3254
1.3288
1.33221
1.33421
1.33626
1.33709
1.33729
1.3372
1.33709
1.3368
1.33632
1.33582
1.33598
1.33671
1.33799
1.34002
1.34225
1.34334
1.34365
1.34417
1.34356
1.34188
1.3401
1.33999
1.34063
1.34202
1.34303
1.3434
1.34221
1.34006
1.33839
1.33898
1.341
1.34234
1.34319
1.34184
1.33991
1.34012
1.34125
1.34271
1.34193
1.34069
1.3409
1.34195
1.34204
1.34152
1.34047
1.34031
1.34037
1.34044
1.34047
1.3404
1.34019
1.33984
1.33942
1.28929
1.28927
1.28924
1.28922
1.2892
1.28918
1.28917
1.28916
1.28916
1.28916
1.28916
1.28916
1.28917
1.28916
1.28915
1.28915
1.28914
1.28908
1.28905
1.28906
1.28907
1.28909
1.2891
1.28913
1.28918
1.28925
1.28931
1.28931
1.28934
1.2894
1.28944
1.28948
1.28959
1.28971
1.28989
1.29017
1.29064
1.2913
1.29216
1.29319
1.29465
1.2964
1.29883
1.30148
1.30502
1.30874
1.31321
1.31778
1.32215
1.32672
1.32968
1.33293
1.33424
1.33585
1.33631
1.33711
1.33766
1.33832
1.33847
1.33874
1.33931
1.34056
1.34203
1.34357
1.3445
1.34468
1.34505
1.34481
1.34397
1.34266
1.34269
1.34308
1.3439
1.34456
1.34417
1.34266
1.34086
1.341
1.34238
1.34356
1.34426
1.34363
1.34253
1.34261
1.34334
1.34431
1.34383
1.34311
1.34346
1.34418
1.34405
1.3432
1.34241
1.34246
1.34274
1.34272
1.34268
1.3426
1.34238
1.34188
1.29002
1.28998
1.28994
1.28989
1.28985
1.28981
1.28978
1.28974
1.28972
1.28971
1.28968
1.28966
1.28964
1.28963
1.28962
1.28961
1.2896
1.28954
1.28944
1.28942
1.28942
1.28941
1.28939
1.28939
1.28939
1.28942
1.28941
1.28938
1.28937
1.28937
1.28938
1.28939
1.28944
1.28949
1.28946
1.28941
1.28941
1.28939
1.2894
1.28949
1.28975
1.29023
1.29098
1.292
1.29357
1.29549
1.29831
1.3015
1.30589
1.31052
1.31581
1.32111
1.32563
1.33023
1.3332
1.33618
1.33709
1.3379
1.33805
1.33832
1.33839
1.33884
1.33965
1.34104
1.34275
1.34462
1.34523
1.34546
1.34544
1.34491
1.34416
1.34381
1.34401
1.34448
1.34492
1.34473
1.34364
1.34221
1.34231
1.34299
1.34422
1.34469
1.34436
1.34377
1.34386
1.3444
1.34504
1.34473
1.34433
1.34459
1.34504
1.3448
1.34399
1.34337
1.34354
1.34395
1.34392
1.34382
1.34363
1.34317
1.29034
1.29031
1.29028
1.29023
1.29017
1.29011
1.29006
1.29001
1.28997
1.28994
1.28992
1.28988
1.28985
1.28981
1.28977
1.28977
1.28976
1.28974
1.28968
1.28961
1.28955
1.2895
1.28947
1.28944
1.28943
1.28941
1.28939
1.28937
1.28933
1.28927
1.28926
1.28925
1.28924
1.28922
1.28918
1.28914
1.2891
1.28905
1.28901
1.28895
1.28889
1.28883
1.28879
1.28882
1.28903
1.2895
1.29036
1.29159
1.29356
1.29606
1.29981
1.30398
1.3094
1.31485
1.32029
1.32568
1.32913
1.3325
1.334
1.33554
1.33647
1.33814
1.33962
1.34111
1.34198
1.34326
1.34403
1.34446
1.34483
1.34505
1.34527
1.34504
1.34454
1.34452
1.34469
1.34481
1.34478
1.34408
1.34311
1.34326
1.34367
1.34451
1.34479
1.34465
1.34441
1.34453
1.34495
1.34535
1.34513
1.34489
1.34507
1.3452
1.34494
1.3442
1.34392
1.34414
1.34444
1.34444
1.34428
1.34383
1.29045
1.29043
1.2904
1.29036
1.29032
1.29026
1.29021
1.29018
1.29011
1.29006
1.29002
1.28997
1.28991
1.28987
1.28983
1.28978
1.28974
1.28972
1.28968
1.28963
1.28957
1.2895
1.28943
1.28936
1.28934
1.28932
1.28931
1.2893
1.28926
1.2892
1.28916
1.28914
1.28911
1.28907
1.28901
1.28896
1.28892
1.28886
1.2888
1.28879
1.28878
1.28875
1.28871
1.28869
1.28856
1.28844
1.28845
1.28854
1.28876
1.28932
1.29042
1.29209
1.29493
1.29845
1.30361
1.30902
1.31519
1.3212
1.32614
1.33083
1.33409
1.3369
1.33834
1.3398
1.34026
1.34024
1.34074
1.34164
1.34276
1.34419
1.34538
1.34551
1.34526
1.34464
1.3445
1.34467
1.34499
1.34493
1.34433
1.34356
1.34368
1.34398
1.34452
1.34492
1.34478
1.34474
1.34494
1.34527
1.34543
1.34525
1.34513
1.34527
1.34524
1.34493
1.34429
1.34431
1.34453
1.34473
1.34466
1.34425
1.29066
1.29062
1.29058
1.29054
1.29049
1.29044
1.2904
1.29036
1.2903
1.29024
1.29017
1.29009
1.29001
1.28994
1.28987
1.2898
1.28974
1.28971
1.28968
1.28964
1.28958
1.2895
1.28944
1.28936
1.2893
1.28928
1.28928
1.28928
1.28925
1.28921
1.28918
1.28915
1.28914
1.28915
1.28918
1.28916
1.28909
1.28907
1.28907
1.28907
1.28907
1.28904
1.289
1.28895
1.28886
1.28872
1.28858
1.28856
1.28863
1.28866
1.28878
1.28904
1.28953
1.29048
1.29233
1.29493
1.29917
1.30402
1.31011
1.31626
1.32199
1.32733
1.33041
1.3339
1.33564
1.33744
1.33895
1.34053
1.34176
1.34331
1.3447
1.34483
1.34456
1.3446
1.34484
1.34511
1.34523
1.34515
1.34492
1.34438
1.34395
1.34407
1.34431
1.34461
1.34487
1.34501
1.34507
1.34517
1.34533
1.34536
1.34532
1.34536
1.34539
1.34529
1.34486
1.34459
1.34466
1.34485
1.34486
1.34458
1.29107
1.29105
1.29103
1.291
1.29096
1.29093
1.2909
1.29086
1.29081
1.29076
1.29071
1.29065
1.29059
1.29052
1.29044
1.29037
1.29031
1.29025
1.29019
1.29012
1.29004
1.28996
1.2899
1.28983
1.28976
1.28974
1.28974
1.28975
1.28974
1.2897
1.28968
1.28969
1.28971
1.28971
1.28972
1.2897
1.28964
1.28961
1.28961
1.28964
1.28966
1.28967
1.28966
1.28962
1.28953
1.28938
1.28917
1.28893
1.28884
1.28885
1.28891
1.28905
1.28936
1.28967
1.29002
1.29049
1.29147
1.29301
1.29597
1.29984
1.30564
1.31173
1.31836
1.32476
1.32976
1.33483
1.3373
1.33905
1.33973
1.34026
1.34096
1.34233
1.34326
1.34452
1.34554
1.34557
1.34536
1.34517
1.34519
1.34506
1.34469
1.3443
1.34424
1.34438
1.34477
1.34522
1.34521
1.34517
1.34523
1.34541
1.34548
1.34549
1.34553
1.34553
1.34541
1.34505
1.34487
1.34499
1.34504
1.34486
1.29174
1.29173
1.29172
1.29172
1.29171
1.2917
1.29167
1.29165
1.29162
1.2916
1.29156
1.29152
1.29149
1.29144
1.29138
1.29131
1.29125
1.29118
1.2911
1.29102
1.29092
1.29082
1.29074
1.29067
1.2906
1.29053
1.2905
1.29049
1.29047
1.29042
1.29035
1.29034
1.29034
1.29032
1.2903
1.29031
1.2903
1.29026
1.29022
1.29022
1.29025
1.29032
1.29036
1.29036
1.29029
1.29017
1.28997
1.28968
1.2894
1.28926
1.28926
1.2893
1.28947
1.28974
1.29007
1.29051
1.29095
1.29118
1.29142
1.29216
1.29398
1.29684
1.30198
1.30789
1.31511
1.32204
1.32691
1.33221
1.33411
1.33574
1.33791
1.34092
1.34354
1.34456
1.34523
1.34517
1.34523
1.34548
1.34575
1.34568
1.34539
1.34482
1.34448
1.34459
1.34487
1.34517
1.34535
1.3453
1.34535
1.34553
1.3457
1.34573
1.34578
1.34583
1.34582
1.34567
1.34529
1.3453
1.34527
1.34516
1.29227
1.2923
1.29232
1.29234
1.29237
1.29241
1.29242
1.29243
1.29244
1.29245
1.29246
1.29246
1.29246
1.29245
1.29244
1.29242
1.29239
1.29236
1.2923
1.29223
1.29215
1.29206
1.29198
1.29191
1.29184
1.29176
1.29168
1.29161
1.29151
1.29141
1.29135
1.2913
1.29124
1.29121
1.2912
1.29117
1.29115
1.29117
1.29117
1.29114
1.29114
1.2912
1.29133
1.29142
1.29142
1.29137
1.29125
1.29104
1.29074
1.29041
1.29019
1.29011
1.29012
1.2902
1.29035
1.29061
1.29094
1.29127
1.29158
1.29154
1.29147
1.29166
1.29274
1.29499
1.29963
1.3055
1.31293
1.32035
1.32648
1.33232
1.33612
1.33946
1.34194
1.34336
1.34316
1.34368
1.34466
1.3458
1.34625
1.34616
1.3458
1.34547
1.34519
1.34519
1.3453
1.34528
1.34538
1.34549
1.34567
1.34582
1.34596
1.34605
1.34616
1.34625
1.34629
1.34622
1.34597
1.34578
1.34561
1.34559
1.29258
1.29261
1.29265
1.2927
1.29275
1.29279
1.29284
1.29288
1.29293
1.29298
1.29303
1.29308
1.29313
1.29317
1.2932
1.29324
1.29329
1.29333
1.29334
1.29334
1.29334
1.29331
1.29327
1.29323
1.29319
1.29314
1.29309
1.29302
1.29293
1.29282
1.29272
1.29263
1.29254
1.29248
1.2924
1.29229
1.29226
1.29225
1.29221
1.29215
1.29213
1.29216
1.29225
1.29236
1.29248
1.29251
1.29247
1.29236
1.29217
1.29189
1.29154
1.29122
1.29102
1.29095
1.29094
1.29096
1.29109
1.29137
1.29172
1.29181
1.29186
1.29178
1.29137
1.29138
1.29221
1.29423
1.29858
1.30399
1.31106
1.31861
1.32457
1.33013
1.33385
1.33812
1.34059
1.34327
1.34549
1.346
1.34613
1.34602
1.34604
1.34654
1.34651
1.34627
1.34589
1.34562
1.34565
1.34586
1.34612
1.34624
1.34638
1.34657
1.34673
1.34685
1.34687
1.34686
1.34675
1.34644
1.3462
1.34621
1.29282
1.29286
1.29291
1.29297
1.29302
1.29307
1.29312
1.29317
1.29322
1.29328
1.29334
1.29342
1.29349
1.29356
1.29364
1.29372
1.29378
1.29386
1.29394
1.29402
1.29408
1.29411
1.29412
1.29412
1.29411
1.2941
1.29409
1.29406
1.294
1.29391
1.29383
1.29375
1.29368
1.29359
1.29349
1.29339
1.29334
1.29334
1.29334
1.29331
1.29331
1.29334
1.2934
1.29346
1.29353
1.29365
1.29373
1.29374
1.29369
1.29354
1.29325
1.29285
1.29244
1.29209
1.29188
1.29181
1.2918
1.2919
1.29219
1.29244
1.29248
1.29236
1.29209
1.29178
1.29156
1.29167
1.29248
1.29431
1.29804
1.3029
1.31016
1.31771
1.32476
1.33246
1.33832
1.34226
1.34426
1.34523
1.3449
1.34528
1.34648
1.34726
1.34737
1.3471
1.34659
1.34633
1.34637
1.34643
1.34653
1.34671
1.34698
1.34728
1.34738
1.34746
1.34758
1.34757
1.34751
1.34728
1.34707
1.34695
1.29305
1.29309
1.29313
1.29317
1.29322
1.29326
1.2933
1.29334
1.29339
1.29343
1.29349
1.29355
1.29362
1.29371
1.29378
1.29385
1.29393
1.29404
1.29415
1.29427
1.29439
1.29452
1.29462
1.29466
1.29469
1.29473
1.29474
1.29474
1.29473
1.29471
1.2947
1.29468
1.29463
1.29456
1.29445
1.29434
1.29425
1.29419
1.29413
1.29407
1.29405
1.29404
1.29406
1.29411
1.29422
1.29442
1.29466
1.29486
1.29493
1.29491
1.29479
1.29454
1.29419
1.29377
1.29333
1.29304
1.29295
1.29294
1.29304
1.29331
1.29343
1.29335
1.29308
1.29266
1.2922
1.29212
1.29218
1.29254
1.29333
1.29486
1.29802
1.30269
1.31
1.31784
1.32528
1.33303
1.33649
1.34064
1.34283
1.34579
1.34724
1.34745
1.34736
1.34739
1.34767
1.34769
1.34753
1.34716
1.3471
1.3473
1.3477
1.34798
1.34808
1.34815
1.34831
1.34837
1.34832
1.34819
1.34808
1.34784
1.29347
1.2935
1.29353
1.29355
1.29358
1.29361
1.29364
1.29367
1.29371
1.29376
1.29381
1.29387
1.29394
1.29401
1.29408
1.29415
1.29425
1.29436
1.29447
1.2946
1.29473
1.29488
1.29502
1.29514
1.29525
1.29533
1.29536
1.29538
1.2954
1.29542
1.29544
1.29545
1.29544
1.29539
1.29531
1.29521
1.29509
1.29495
1.29479
1.29463
1.29449
1.29444
1.29444
1.29448
1.29462
1.29486
1.29519
1.29555
1.29585
1.29601
1.29602
1.29598
1.29585
1.29558
1.29517
1.29468
1.29434
1.29426
1.29427
1.29441
1.29461
1.2946
1.29443
1.29404
1.29347
1.29296
1.29283
1.29292
1.29342
1.29381
1.29424
1.29532
1.29837
1.303
1.31071
1.31911
1.32701
1.33545
1.34083
1.34496
1.34629
1.34697
1.34677
1.34735
1.34825
1.34868
1.3484
1.34788
1.34789
1.34815
1.34845
1.3486
1.34873
1.3489
1.34901
1.34902
1.34904
1.34903
1.34904
1.34881
1.29435
1.29436
1.29436
1.29437
1.29438
1.2944
1.29441
1.29442
1.29445
1.29447
1.29451
1.29454
1.29457
1.2946
1.29463
1.29467
1.29472
1.29478
1.29485
1.29493
1.29503
1.29515
1.29526
1.29538
1.2955
1.29562
1.29571
1.29577
1.29582
1.29588
1.29592
1.29594
1.29596
1.29596
1.29594
1.29589
1.29579
1.29565
1.29546
1.2952
1.29496
1.2948
1.29476
1.29478
1.29489
1.29509
1.29537
1.29569
1.296
1.29628
1.29653
1.29668
1.2967
1.29668
1.29655
1.29628
1.2959
1.29575
1.29578
1.29584
1.29593
1.29596
1.29585
1.29556
1.29507
1.29435
1.29379
1.29369
1.29377
1.29405
1.29454
1.29459
1.29483
1.29594
1.29917
1.30401
1.31203
1.32034
1.32799
1.33617
1.33937
1.34345
1.34554
1.34835
1.34905
1.34897
1.34873
1.34877
1.34904
1.34915
1.34907
1.34913
1.3493
1.3495
1.3496
1.34965
1.34967
1.34978
1.3499
1.34974
1.29551
1.29548
1.29545
1.29543
1.29543
1.29542
1.2954
1.29539
1.29538
1.29537
1.29536
1.29535
1.29533
1.2953
1.29527
1.29525
1.29525
1.29524
1.29524
1.29525
1.29528
1.29533
1.2954
1.29549
1.2956
1.29575
1.29593
1.29609
1.2962
1.29631
1.29638
1.29642
1.29646
1.2965
1.2965
1.29649
1.29643
1.2963
1.2961
1.29585
1.29562
1.29543
1.29528
1.29523
1.29526
1.29534
1.29547
1.2957
1.29603
1.29635
1.2966
1.29677
1.29694
1.29711
1.29718
1.29717
1.29703
1.29684
1.2968
1.29685
1.29694
1.29703
1.297
1.29687
1.2966
1.2961
1.2954
1.29483
1.29469
1.29473
1.29497
1.29511
1.29524
1.29527
1.29559
1.29686
1.3003
1.30517
1.31352
1.32233
1.33071
1.3398
1.34413
1.34734
1.34824
1.3481
1.34842
1.34937
1.34998
1.34988
1.34967
1.34977
1.34989
1.34992
1.3499
1.35002
1.35028
1.3505
1.35052
1.35042
1.29691
1.29687
1.29682
1.29675
1.29669
1.29665
1.29661
1.29658
1.29655
1.29652
1.29647
1.29642
1.29636
1.29629
1.29622
1.29616
1.29609
1.29602
1.29596
1.29593
1.29592
1.29591
1.29591
1.29593
1.29603
1.2962
1.2964
1.29657
1.29675
1.29696
1.29703
1.29703
1.29704
1.2971
1.29716
1.29715
1.29709
1.29699
1.29687
1.29675
1.29664
1.29652
1.29637
1.2962
1.29606
1.296
1.296
1.29603
1.29611
1.29627
1.29648
1.2967
1.29692
1.2971
1.29724
1.29735
1.29737
1.29735
1.29729
1.29726
1.29725
1.29725
1.29727
1.29736
1.29745
1.2974
1.29713
1.2966
1.29609
1.2959
1.2959
1.29596
1.29588
1.29579
1.29587
1.29595
1.2964
1.29768
1.30118
1.30644
1.3155
1.32441
1.33235
1.3397
1.34285
1.34614
1.34881
1.35
1.35006
1.35001
1.3502
1.35053
1.35048
1.35023
1.35012
1.35028
1.35067
1.35106
1.35108
1.35098
1.29792
1.29789
1.29785
1.2978
1.29773
1.29765
1.29757
1.29751
1.29746
1.29742
1.29738
1.29732
1.29721
1.29711
1.2971
1.29708
1.29704
1.29695
1.29686
1.29683
1.29682
1.29682
1.29683
1.29686
1.29693
1.29703
1.29713
1.29725
1.29747
1.29765
1.29771
1.29778
1.29787
1.29796
1.29798
1.29796
1.29794
1.29796
1.29794
1.29789
1.29785
1.29778
1.29765
1.29746
1.29727
1.29706
1.29681
1.29657
1.29646
1.29645
1.29648
1.29654
1.29667
1.29685
1.29708
1.2973
1.29746
1.29755
1.29756
1.29747
1.29725
1.29719
1.29719
1.29727
1.29745
1.29773
1.29788
1.2978
1.29756
1.29729
1.29717
1.2971
1.29697
1.29673
1.2964
1.29625
1.29622
1.29629
1.29678
1.29826
1.30238
1.30842
1.3181
1.3279
1.33621
1.34445
1.34761
1.34937
1.34883
1.34933
1.35033
1.35081
1.35072
1.3504
1.35042
1.35066
1.35088
1.3511
1.35142
1.35143
1.298
1.29798
1.29797
1.29797
1.29797
1.29796
1.29794
1.2979
1.29786
1.29784
1.29781
1.29771
1.29766
1.29766
1.29766
1.29761
1.29759
1.29762
1.29762
1.29757
1.29753
1.29755
1.29756
1.29754
1.29756
1.29764
1.29777
1.2979
1.29802
1.29812
1.29823
1.2984
1.29855
1.29862
1.2986
1.29851
1.29851
1.29855
1.29853
1.29852
1.29854
1.29853
1.29846
1.29839
1.29828
1.29814
1.2979
1.29755
1.29712
1.29681
1.29671
1.2967
1.29672
1.29681
1.29699
1.29721
1.29745
1.29766
1.29776
1.29776
1.2976
1.29718
1.29695
1.29698
1.29718
1.29757
1.29796
1.29816
1.29818
1.29806
1.29787
1.29785
1.29782
1.29771
1.29746
1.2971
1.29668
1.29654
1.29648
1.29656
1.29718
1.29908
1.30403
1.31106
1.32099
1.33117
1.33722
1.34377
1.34608
1.34966
1.35068
1.35068
1.35037
1.35041
1.35076
1.351
1.35104
1.35115
1.35145
1.35165
1.29799
1.29799
1.29801
1.29806
1.29813
1.29821
1.29826
1.29828
1.29828
1.29828
1.29826
1.29824
1.29824
1.29825
1.29825
1.29827
1.29826
1.29824
1.29824
1.29822
1.2982
1.29821
1.2983
1.29834
1.2983
1.29828
1.29833
1.29844
1.29846
1.29846
1.2985
1.29858
1.29862
1.29865
1.29866
1.29857
1.2984
1.29833
1.29831
1.29835
1.29847
1.29863
1.29866
1.29865
1.29868
1.29866
1.29851
1.29827
1.298
1.29767
1.29744
1.29732
1.29724
1.29721
1.29721
1.29727
1.29745
1.29773
1.29807
1.29822
1.29817
1.29785
1.29728
1.29701
1.29704
1.29728
1.29773
1.29815
1.29828
1.29826
1.29806
1.29791
1.29794
1.29807
1.29812
1.29797
1.29769
1.2973
1.2969
1.29675
1.29676
1.2969
1.29783
1.3003
1.30625
1.31426
1.3246
1.33539
1.34296
1.34849
1.3498
1.34921
1.34948
1.35054
1.35111
1.35103
1.35101
1.35118
1.35145
1.35171
1.29796
1.29804
1.29814
1.29826
1.29835
1.29842
1.29848
1.29854
1.2986
1.29865
1.29867
1.29866
1.29864
1.29864
1.29864
1.2986
1.29848
1.29833
1.29831
1.29831
1.29831
1.29834
1.29844
1.29853
1.29853
1.29839
1.29834
1.29842
1.29858
1.29864
1.29867
1.29868
1.2986
1.2985
1.29849
1.29844
1.29825
1.29794
1.29781
1.2978
1.29786
1.29805
1.29826
1.29831
1.29831
1.29836
1.29844
1.29843
1.29834
1.29822
1.29819
1.29818
1.29807
1.29792
1.2978
1.29775
1.29778
1.29796
1.29834
1.29869
1.29872
1.29854
1.29806
1.29746
1.29721
1.29726
1.2975
1.2979
1.29818
1.2982
1.29808
1.29781
1.29781
1.29793
1.29813
1.29827
1.29825
1.29807
1.29776
1.29743
1.2972
1.29711
1.29715
1.29735
1.29855
1.30174
1.30901
1.31826
1.32856
1.33829
1.34286
1.3464
1.34957
1.35092
1.35092
1.35068
1.35083
1.35124
1.35143
1.35165
1.29793
1.29798
1.29804
1.29812
1.29827
1.29842
1.29852
1.29864
1.29881
1.29891
1.2989
1.29887
1.29887
1.29889
1.29886
1.2987
1.29842
1.29836
1.29836
1.29836
1.29837
1.29841
1.29855
1.29867
1.29864
1.29846
1.29836
1.29842
1.29858
1.29864
1.29871
1.29878
1.29878
1.29872
1.29862
1.29847
1.29822
1.29784
1.29753
1.29744
1.29744
1.29753
1.29783
1.29797
1.29803
1.29817
1.29836
1.29838
1.29833
1.29831
1.2984
1.29872
1.29887
1.29886
1.29874
1.29838
1.29815
1.29818
1.29849
1.29889
1.299
1.29891
1.29863
1.29822
1.2978
1.29754
1.29754
1.29772
1.29802
1.29814
1.29809
1.29788
1.29768
1.2977
1.29789
1.29819
1.29831
1.29826
1.29813
1.29798
1.29786
1.29769
1.29748
1.29732
1.29732
1.29767
1.29969
1.30404
1.31308
1.32324
1.33361
1.344
1.34814
1.35017
1.34909
1.34964
1.3505
1.35114
1.35133
1.35151
1.29719
1.29726
1.29736
1.29747
1.29773
1.29788
1.29789
1.29795
1.29811
1.29814
1.29809
1.29806
1.29809
1.29816
1.29819
1.29816
1.298
1.29792
1.29791
1.29794
1.29798
1.29801
1.29808
1.29808
1.29798
1.29783
1.29777
1.29782
1.29804
1.29837
1.2989
1.29917
1.29917
1.29918
1.29921
1.29917
1.299
1.2987
1.29836
1.29807
1.29793
1.29794
1.29814
1.29826
1.29829
1.29843
1.29848
1.29844
1.29837
1.29835
1.29838
1.29863
1.29905
1.29918
1.29917
1.29898
1.29856
1.29835
1.29834
1.29832
1.29834
1.29837
1.29842
1.29846
1.29838
1.29811
1.29788
1.29789
1.29804
1.29822
1.29821
1.29806
1.29782
1.29773
1.29778
1.29802
1.29826
1.29827
1.29821
1.2981
1.29809
1.29808
1.29797
1.29772
1.29745
1.29739
1.29751
1.29837
1.30157
1.3074
1.31767
1.32892
1.33662
1.34403
1.34631
1.35
1.35093
1.35087
1.35078
1.35123
1.29752
1.29765
1.29799
1.29831
1.29838
1.29841
1.2984
1.29834
1.29822
1.2981
1.29802
1.298
1.29801
1.29805
1.29808
1.29809
1.29803
1.29791
1.29788
1.2979
1.29796
1.29798
1.29797
1.29785
1.29766
1.29762
1.29766
1.29778
1.29798
1.29825
1.29867
1.29911
1.2993
1.29936
1.29939
1.29948
1.29957
1.29948
1.29943
1.29942
1.29941
1.29935
1.29931
1.29933
1.29936
1.29937
1.29926
1.29886
1.29838
1.29814
1.2981
1.29824
1.29874
1.29931
1.29938
1.29928
1.29906
1.29873
1.29839
1.29805
1.29777
1.29771
1.29781
1.2982
1.29855
1.29858
1.29848
1.29834
1.29831
1.29833
1.29834
1.29828
1.29817
1.29802
1.29799
1.29804
1.29819
1.29825
1.29822
1.29815
1.29813
1.29814
1.29813
1.29805
1.29787
1.29765
1.29765
1.29768
1.29809
1.29966
1.30429
1.31191
1.32292
1.3345
1.34311
1.34882
1.34993
1.34925
1.34987
1.35092
1.29834
1.29846
1.29873
1.2989
1.29894
1.29896
1.29897
1.29896
1.29891
1.29882
1.2987
1.29856
1.29841
1.29834
1.29832
1.29827
1.29814
1.29804
1.29796
1.29786
1.29773
1.29768
1.29768
1.29767
1.29763
1.29754
1.29758
1.29782
1.29792
1.29787
1.29793
1.29814
1.29828
1.29841
1.29859
1.29888
1.29916
1.29921
1.29923
1.29937
1.29948
1.29956
1.29958
1.2994
1.29924
1.29928
1.29927
1.29895
1.29819
1.29753
1.29735
1.29741
1.29776
1.29851
1.29924
1.29944
1.29935
1.29908
1.29874
1.2983
1.29784
1.29769
1.29774
1.29804
1.29854
1.29878
1.29882
1.29881
1.29868
1.29851
1.29845
1.29845
1.2984
1.29833
1.29824
1.29822
1.29823
1.29826
1.29825
1.29819
1.29815
1.29816
1.29819
1.29818
1.29814
1.29803
1.29791
1.29787
1.29791
1.29807
1.29892
1.30151
1.30793
1.31715
1.32848
1.33852
1.34328
1.34697
1.3503
1.35111
1.29691
1.29692
1.29699
1.29712
1.29725
1.29754
1.29787
1.29792
1.29785
1.29783
1.29795
1.29818
1.29827
1.2983
1.29831
1.29822
1.29801
1.29794
1.29789
1.29773
1.29745
1.29695
1.29657
1.29635
1.29611
1.29582
1.2955
1.29537
1.29537
1.29522
1.29494
1.29492
1.29511
1.29546
1.29573
1.29597
1.29625
1.29659
1.29699
1.29738
1.29755
1.29765
1.29773
1.29784
1.29807
1.29836
1.29841
1.29826
1.29775
1.29719
1.297
1.29704
1.29731
1.29773
1.29814
1.29853
1.29884
1.29889
1.29884
1.29877
1.29861
1.29835
1.29822
1.29823
1.29839
1.29878
1.29904
1.29907
1.29902
1.29883
1.29854
1.29841
1.29843
1.29845
1.29846
1.29844
1.29839
1.29837
1.29836
1.29831
1.29823
1.29821
1.29823
1.29822
1.29817
1.29814
1.29813
1.29812
1.2981
1.29815
1.29824
1.29859
1.30019
1.30408
1.31291
1.32332
1.33484
1.34513
1.34915
1.34976
1.29181
1.29189
1.29208
1.29225
1.29245
1.29327
1.29402
1.29415
1.29442
1.29473
1.29475
1.29462
1.29465
1.29501
1.29526
1.29528
1.29527
1.29526
1.29527
1.29531
1.29539
1.2954
1.29516
1.29456
1.29423
1.29414
1.29385
1.29366
1.29363
1.29343
1.29306
1.29303
1.2932
1.29332
1.29328
1.29335
1.29355
1.29382
1.29418
1.29425
1.29402
1.29391
1.294
1.2944
1.29514
1.29589
1.29637
1.29679
1.29723
1.29748
1.29749
1.29732
1.297
1.29694
1.29715
1.29732
1.29751
1.29788
1.2984
1.29862
1.29866
1.29872
1.29869
1.29849
1.29828
1.29829
1.29853
1.29893
1.29908
1.29902
1.29879
1.2985
1.2984
1.29846
1.29865
1.29874
1.2987
1.29862
1.29856
1.29852
1.29843
1.29834
1.29831
1.29827
1.2982
1.2982
1.29822
1.29827
1.29832
1.29833
1.29833
1.29827
1.29836
1.29905
1.30185
1.30798
1.31888
1.33044
1.33866
1.34568
1.2926
1.29284
1.29312
1.29336
1.2938
1.29475
1.29529
1.29553
1.29565
1.29559
1.29545
1.29558
1.29611
1.29635
1.2964
1.29639
1.29634
1.29627
1.2962
1.29613
1.2961
1.29636
1.29648
1.29598
1.29505
1.29462
1.29456
1.29485
1.2957
1.29685
1.2976
1.29773
1.29772
1.29766
1.29754
1.29709
1.2959
1.29507
1.2949
1.29429
1.29347
1.29339
1.29371
1.294
1.29423
1.29491
1.29575
1.2962
1.29653
1.29701
1.29771
1.29823
1.29834
1.29804
1.29677
1.29552
1.29522
1.29528
1.29565
1.2964
1.29731
1.29809
1.29833
1.29827
1.29793
1.29754
1.29753
1.29781
1.29837
1.29879
1.29883
1.29871
1.2985
1.2985
1.29865
1.29889
1.29896
1.29894
1.29884
1.29879
1.29875
1.29866
1.29855
1.2984
1.29829
1.29829
1.29834
1.29843
1.29849
1.29847
1.2984
1.29828
1.29818
1.29823
1.29861
1.30028
1.30521
1.31398
1.32546
1.34055
1.3078
1.3078
1.30739
1.30713
1.30764
1.30849
1.30854
1.3083
1.30722
1.30487
1.30325
1.30309
1.30353
1.30376
1.30338
1.30261
1.30244
1.30239
1.30219
1.30167
1.30128
1.30117
1.30181
1.30204
1.30143
1.30119
1.30123
1.30121
1.30191
1.30427
1.30543
1.30592
1.30596
1.30567
1.30525
1.30471
1.30373
1.30233
1.30074
1.29846
1.29607
1.29517
1.29517
1.2954
1.29638
1.29698
1.29684
1.29605
1.2959
1.29604
1.29674
1.29794
1.29861
1.29855
1.29792
1.29659
1.29528
1.29472
1.29472
1.29486
1.29507
1.29555
1.29629
1.29684
1.29688
1.29674
1.29654
1.29665
1.29696
1.29757
1.29835
1.29858
1.29857
1.29848
1.29852
1.29879
1.29907
1.29908
1.29901
1.29889
1.29881
1.29875
1.29864
1.29859
1.29853
1.29852
1.2986
1.29862
1.29861
1.29854
1.29839
1.29826
1.29817
1.29812
1.29812
1.29833
1.29945
1.303
1.30994
1.32578
1.33794
1.33828
1.33824
1.33736
1.33558
1.3344
1.33433
1.33465
1.33469
1.33227
1.32663
1.32531
1.32498
1.32434
1.32331
1.3225
1.32165
1.32031
1.31859
1.31686
1.31483
1.31275
1.31223
1.3119
1.31104
1.30929
1.30753
1.30713
1.30834
1.3093
1.3081
1.3061
1.3057
1.30584
1.30621
1.30633
1.30698
1.30788
1.30795
1.30724
1.30506
1.30326
1.30315
1.30353
1.30412
1.30395
1.30158
1.29791
1.2969
1.29681
1.2969
1.29752
1.29865
1.29983
1.30024
1.29977
1.29909
1.29846
1.2974
1.29602
1.29553
1.29539
1.29539
1.29601
1.29724
1.29758
1.29749
1.29669
1.29598
1.29605
1.2966
1.29743
1.29784
1.29789
1.29793
1.29813
1.29855
1.29889
1.29889
1.29872
1.29863
1.29866
1.29871
1.29869
1.29862
1.29863
1.2987
1.29872
1.2987
1.29861
1.29847
1.29838
1.29829
1.29818
1.29813
1.29815
1.29836
1.29916
1.3013
1.31183
1.36373
1.36289
1.36161
1.36078
1.36032
1.36022
1.36085
1.3634
1.36419
1.36283
1.35712
1.35458
1.35473
1.35464
1.35471
1.35661
1.35726
1.35689
1.35725
1.35728
1.35667
1.35646
1.35611
1.35441
1.35376
1.35271
1.3501
1.3461
1.34236
1.34044
1.33902
1.337
1.33393
1.32884
1.32297
1.31967
1.3198
1.32139
1.32183
1.3193
1.31685
1.31724
1.31999
1.32141
1.32139
1.32055
1.31728
1.31389
1.31271
1.31169
1.30944
1.30504
1.30202
1.30154
1.30181
1.30301
1.30433
1.3051
1.30512
1.30387
1.30025
1.29706
1.2964
1.2967
1.29766
1.2987
1.29879
1.29812
1.29688
1.29633
1.29635
1.29671
1.29735
1.2975
1.29738
1.29739
1.29772
1.29816
1.29823
1.29818
1.2982
1.29837
1.29867
1.29872
1.29865
1.29865
1.2987
1.29875
1.29872
1.29862
1.29855
1.29851
1.29843
1.29831
1.29827
1.2983
1.2984
1.29852
1.29885
1.3029
1.42724
1.42611
1.425
1.42399
1.42304
1.4218
1.42054
1.41925
1.41649
1.41416
1.41362
1.41223
1.40756
1.4034
1.40329
1.40375
1.40312
1.40123
1.40009
1.39945
1.39858
1.39699
1.39317
1.38847
1.38804
1.38809
1.38631
1.38028
1.37605
1.3759
1.37787
1.37887
1.37845
1.37631
1.37231
1.36907
1.36796
1.3672
1.36565
1.36259
1.35716
1.35098
1.34609
1.34041
1.33525
1.33208
1.32992
1.32981
1.33268
1.33423
1.33334
1.32902
1.32549
1.32245
1.3175
1.31127
1.30809
1.30795
1.30946
1.31009
1.30925
1.30801
1.30565
1.30215
1.30049
1.30044
1.30098
1.30141
1.30076
1.29909
1.2978
1.29775
1.29802
1.29826
1.29817
1.29797
1.29784
1.29767
1.29746
1.29745
1.29751
1.29769
1.29796
1.29803
1.29808
1.29822
1.29852
1.29878
1.29873
1.2986
1.29854
1.29856
1.29851
1.2985
1.29856
1.29862
1.29859
1.29857
1.2985
1.29946
1.493
1.49235
1.49153
1.48941
1.48658
1.48539
1.48536
1.48642
1.48709
1.48644
1.48446
1.47964
1.47631
1.47628
1.47615
1.47511
1.47288
1.46942
1.4678
1.46831
1.46868
1.46629
1.46198
1.46112
1.46002
1.45687
1.45161
1.44581
1.44137
1.43936
1.43689
1.43321
1.42976
1.42554
1.41775
1.41496
1.41505
1.41375
1.40984
1.40942
1.40975
1.40758
1.40263
1.396
1.39066
1.38701
1.38287
1.37801
1.3724
1.36398
1.35517
1.35289
1.35449
1.35639
1.35397
1.34685
1.34213
1.33738
1.32871
1.32231
1.32211
1.32363
1.32344
1.32146
1.31618
1.30966
1.30749
1.3078
1.30789
1.30634
1.30316
1.30123
1.30098
1.30105
1.30068
1.29968
1.29858
1.29784
1.29757
1.29761
1.29768
1.29768
1.29755
1.29734
1.29739
1.29746
1.29776
1.29807
1.29825
1.29827
1.29836
1.29846
1.29862
1.29883
1.29892
1.29884
1.29862
1.29841
1.29833
1.29852
1.56784
1.56753
1.56702
1.56583
1.56459
1.56296
1.55997
1.55719
1.5569
1.5573
1.55693
1.55508
1.55066
1.5467
1.5466
1.5465
1.54498
1.54101
1.53767
1.53655
1.53494
1.53148
1.52947
1.52812
1.52593
1.5233
1.52008
1.51434
1.51064
1.51083
1.51074
1.50862
1.50418
1.49971
1.49528
1.49025
1.48555
1.48101
1.47619
1.47193
1.46826
1.46435
1.45809
1.44736
1.44217
1.44235
1.44164
1.43782
1.43162
1.42453
1.41722
1.41241
1.40744
1.39936
1.38757
1.38345
1.38295
1.37939
1.37149
1.36582
1.35941
1.34885
1.34539
1.34398
1.34062
1.33581
1.3275
1.31997
1.31925
1.3184
1.31456
1.30989
1.30756
1.30705
1.3061
1.30396
1.30182
1.30047
1.30005
1.30025
1.30008
1.29916
1.29847
1.29844
1.29823
1.29776
1.29758
1.29743
1.29752
1.29779
1.29807
1.29843
1.29891
1.29909
1.29898
1.29875
1.29846
1.29824
1.29825
1.29859
1.64772
1.64645
1.64578
1.64508
1.64432
1.64348
1.64221
1.63884
1.63662
1.63679
1.63665
1.63488
1.632
1.6278
1.62406