/*--------------------------------*- C++ -*----------------------------------*\
  =========                 |
  \\      /  F ield         | OpenFOAM: The Open Source CFD Toolbox
   \\    /   O peration     | Website:  https://openfoam.org
    \\  /    A nd           | Version:  7
     \\/     M anipulation  |
\*---------------------------------------------------------------------------*/
FoamFile
{
    version     2.0;
    format      ascii;
    class       volScalarField;
    location    "4";
    object      rho;
}
// * * * * * * * * * * * * * * * * * * * * * * * * * * * * * * * * * * * * * //

dimensions      [1 -3 0 0 0 0 0];

internalField   nonuniform List<scalar> 
1750
(
0.22048
0.373453
0.501325
0.544615
0.595394
0.624668
0.678635
0.708008
0.723739
0.74225
0.0786648
0.129819
0.260327
0.400792
0.539645
0.608688
0.686108
0.675198
0.68273
0.709987
0.091868
0.107083
0.113761
0.162321
0.2694
0.444529
0.572718
0.649853
0.690063
0.747125
0.112998
0.142518
0.17515
0.206065
0.209364
0.22876
0.280761
0.397627
0.525054
0.694425
0.20066
0.22106
0.258658
0.283436
0.284907
0.289307
0.306654
0.324868
0.33469
0.423939
0.341963
0.344014
0.357276
0.378023
0.384545
0.392948
0.416273
0.437458
0.442298
0.453298
0.539297
0.536662
0.533283
0.534537
0.543405
0.555332
0.554514
0.547814
0.538472
0.521257
0.822308
0.794382
0.775488
0.755282
0.732221
0.713641
0.698319
0.68387
0.672278
0.654256
1.20049
1.15218
1.10301
1.06046
1.01709
0.97376
0.936339
0.899488
0.872299
0.829474
1.4836
1.45774
1.4215
1.38175
1.33517
1.28209
1.22777
1.17096
1.11783
1.0339
1.52875
1.52624
1.5222
1.51691
1.5074
1.48957
1.463
1.42607
1.38331
1.29458
1.48856
1.49628
1.5032
1.5096
1.50903
1.50801
1.50672
1.50289
1.49479
1.46264
1.42028
1.42769
1.43662
1.44741
1.45936
1.46997
1.47994
1.48745
1.48945
1.4838
1.40101
1.40176
1.40306
1.40522
1.40884
1.41436
1.42185
1.43173
1.44225
1.45479
1.40002
1.40004
1.40007
1.40014
1.40031
1.40067
1.40143
1.40301
1.40561
1.41349
0.0860359
0.0752059
0.0844696
0.0996403
0.195173
0.342679
0.54456
0.844665
1.2384
1.50048
1.52918
1.47916
1.41432
1.40064
1.40001
0.0898595
0.070799
0.0854127
0.126483
0.249634
0.413022
0.637137
0.978373
1.36944
1.53516
1.52858
1.46034
1.4076
1.40023
1.40001
0.0845716
0.0622705
0.0813179
0.154579
0.280187
0.443753
0.710527
1.10169
1.45561
1.54564
1.52072
1.44492
1.40412
1.40011
1.40001
0.0761173
0.0580435
0.0837452
0.177949
0.303215
0.496248
0.842599
1.24357
1.51449
1.54993
1.51047
1.4297
1.40184
1.40004
1.40001
0.0701812
0.0561516
0.0958513
0.194075
0.337501
0.623231
0.983139
1.35581
1.54808
1.55128
1.49196
1.41649
1.40077
1.40002
1.40001
0.063054
0.062325
0.113129
0.223747
0.427026
0.752772
1.11895
1.45717
1.56529
1.55159
1.46557
1.40851
1.4003
1.40001
1.40001
0.0523667
0.0714372
0.127853
0.270946
0.553063
0.883543
1.27525
1.53797
1.57302
1.53238
1.44231
1.4038
1.40011
1.40001
1.40001
0.0332993
0.0711474
0.164988
0.360874
0.685326
1.05737
1.4277
1.57768
1.57514
1.50639
1.42302
1.40132
1.40004
1.40001
1.40001
0.0207489
0.0651067
0.226389
0.496064
0.846317
1.25772
1.53279
1.59037
1.5683
1.47268
1.41
1.40043
1.40001
1.40001
1.40001
0.0150158
0.09935
0.317862
0.665593
1.07265
1.42622
1.58972
1.59345
1.53647
1.44094
1.40364
1.40012
1.40001
1.40001
1.40001
0.017142
0.184443
0.476267
0.881919
1.30102
1.55112
1.60862
1.59105
1.49837
1.41895
1.40116
1.40003
1.40001
1.40001
1.40001
0.0452916
0.295294
0.726334
1.17224
1.48611
1.61182
1.61218
1.55629
1.45446
1.40621
1.40026
1.40001
1.40001
1.40001
1.40001
0.189895
0.543194
1.05274
1.41775
1.59954
1.62674
1.60315
1.5082
1.42256
1.40165
1.40006
1.40001
1.40001
1.40001
1.40001
0.456701
0.943473
1.36554
1.57041
1.64087
1.62974
1.56023
1.45348
1.40649
1.40032
1.40001
1.40001
1.40001
1.40001
1.40001
0.966594
1.3561
1.57558
1.63569
1.64857
1.60414
1.49617
1.41746
1.40121
1.40004
1.40001
1.40001
1.40001
1.40001
1.40001
1.63693
1.64292
1.64757
1.64438
1.63675
1.53965
1.43196
1.40152
1.40003
1.40001
1.40001
1.40001
1.40001
1.40001
1.40001
1.63595
1.64434
1.64981
1.63796
1.62007
1.51982
1.43078
1.4029
1.40011
1.40001
1.40001
1.40001
1.40001
1.40001
1.40001
1.63705
1.65086
1.65563
1.63866
1.59397
1.47598
1.40999
1.40039
1.40001
1.40001
1.40001
1.40001
1.40001
1.40001
1.40001
1.63921
1.65506
1.65711
1.63076
1.55487
1.44468
1.40396
1.40013
1.40001
1.40001
1.40001
1.40001
1.40001
1.40001
1.40001
1.63858
1.65611
1.6572
1.61726
1.5102
1.42136
1.40131
1.40003
1.40001
1.40001
1.40001
1.40001
1.40001
1.40001
1.40001
1.63852
1.65597
1.65184
1.57945
1.47037
1.40916
1.40038
1.40001
1.40001
1.40001
1.40001
1.40001
1.40001
1.40001
1.40001
1.65421
1.65474
1.64191
1.54155
1.4364
1.403
1.4001
1.40001
1.40001
1.40001
1.40001
1.40001
1.40001
1.40001
1.40001
1.68182
1.64348
1.61411
1.48977
1.4156
1.40093
1.40003
1.40001
1.40001
1.40001
1.40001
1.40001
1.40001
1.40001
1.40001
1.70214
1.6238
1.56193
1.45047
1.40569
1.40023
1.40001
1.40001
1.40001
1.40001
1.40001
1.40001
1.40001
1.40001
1.40001
1.71284
1.60029
1.50815
1.42312
1.40177
1.40006
1.40001
1.40001
1.40001
1.40001
1.40001
1.40001
1.40001
1.40001
1.40001
1.71311
1.56202
1.46223
1.40853
1.40043
1.40001
1.40001
1.40001
1.40001
1.40001
1.40001
1.40001
1.40001
1.40001
1.40001
1.67178
1.5161
1.4303
1.40272
1.4001
1.40001
1.40001
1.40001
1.40001
1.40001
1.40001
1.40001
1.40001
1.40001
1.40001
1.62335
1.4728
1.41143
1.4006
1.40002
1.40001
1.40001
1.40001
1.40001
1.40001
1.40001
1.40001
1.40001
1.40001
1.40001
1.55537
1.43231
1.40273
1.40009
1.40001
1.40001
1.40001
1.40001
1.40001
1.40001
1.40001
1.40001
1.40001
1.40001
1.40001
1.4687
1.40903
1.4004
1.40001
1.40001
1.40001
1.40001
1.40001
1.40001
1.40001
1.40001
1.40001
1.40001
1.40001
1.40001
1.40001
1.40001
1.40001
1.40001
1.40001
1.40001
1.40001
1.40001
1.40001
1.40001
1.40001
1.40001
1.40001
1.40001
1.40001
1.40001
1.40001
1.40001
1.40001
1.40001
1.40001
1.40001
1.40001
1.40001
1.40001
1.40001
1.40001
1.40001
1.40001
1.40001
1.40001
1.40001
1.40001
1.40001
1.40001
1.40001
1.40001
1.40001
1.40001
1.40001
1.40001
1.40001
1.40001
1.40001
1.40001
1.40001
1.40001
1.40001
1.40001
1.40001
1.40001
1.40001
1.40001
1.40001
1.40001
1.40001
1.40001
1.40001
1.40001
1.40001
1.40001
1.40001
1.40001
1.40001
1.40001
1.40001
1.40001
1.40001
1.40001
1.40001
1.40001
1.40001
1.40001
1.40001
1.40001
1.40001
1.40001
1.40001
1.40001
1.40001
1.40001
1.40001
1.40001
1.40001
1.40001
1.40001
1.40001
1.40001
1.40001
1.40001
1.40001
1.40001
1.40001
1.40001
1.40001
1.40001
1.40001
1.40001
1.40001
1.40001
1.40001
1.40001
1.40001
1.40001
1.40001
1.40001
1.40001
1.40001
1.40001
1.40001
1.40001
1.40001
1.40001
1.40001
1.40001
1.40001
1.40001
1.40001
1.40001
1.40001
1.40001
1.40001
1.40001
1.40001
1.40001
1.40001
1.40001
1.40001
1.40001
1.40001
1.40001
1.40001
1.40001
1.40001
1.40001
1.40001
1.40001
1.40001
1.40001
1.40001
1.40001
1.40001
1.40001
1.40001
1.40001
1.40001
1.40001
1.40001
1.40001
1.40001
1.40001
1.40001
1.40001
1.40001
1.40001
1.40001
1.40001
1.40001
1.40001
1.40001
1.40001
1.40001
1.40001
1.40001
1.40001
1.40001
1.40001
1.40001
1.40001
1.40001
1.40001
1.40001
1.40001
1.40001
1.40001
1.40001
1.40001
1.40001
1.40001
1.40001
1.40001
1.40001
1.40001
1.40001
1.40001
1.40001
1.40001
1.40001
1.40001
1.40001
1.40001
1.40001
1.40001
1.40001
1.40001
1.40001
1.40001
1.40001
1.40001
1.40001
1.40001
1.40001
1.40001
1.40001
1.40001
1.40001
1.40001
1.40001
1.40001
1.40001
1.40001
1.40001
1.40001
1.40001
1.40001
1.40001
1.40001
1.40001
1.40001
1.40001
1.40001
1.40001
1.40001
1.40001
1.40001
1.40001
1.40001
1.40001
1.40001
1.40001
1.40001
1.40001
1.40001
1.40001
1.40001
1.40001
1.40001
1.40001
1.40001
1.40001
1.40001
1.40001
1.40001
1.40001
1.40001
1.40001
1.40001
1.40001
1.40001
1.40001
1.40001
1.40001
1.40001
1.40001
1.40001
1.40001
1.40001
1.40001
1.40001
1.40001
1.40001
1.40001
1.40001
1.40001
1.40001
1.40001
1.40001
1.40001
1.40001
1.40001
1.40001
1.40001
1.40001
1.40001
1.40001
1.40001
1.40001
1.40001
1.40001
1.40001
1.40001
1.40001
1.40001
1.40001
1.40001
1.40001
1.40001
1.40001
1.40001
1.40001
1.40001
1.40001
1.40001
1.40001
1.40001
1.40001
1.40001
1.40001
1.40001
1.40001
1.40001
1.40001
1.40001
1.40001
1.40001
1.40001
1.40001
1.40001
1.40001
1.40001
1.40001
1.40001
1.40001
1.40001
1.40001
1.40001
1.40001
1.40001
1.40001
1.40001
1.40001
1.40001
1.40001
1.40001
1.40001
1.40001
1.40001
1.40001
1.40001
1.40001
1.40001
1.40001
1.40001
1.40001
1.40001
1.40001
1.40001
1.40001
1.40001
1.40001
1.40001
1.40001
1.40001
1.40001
1.40001
1.40001
1.40001
1.40001
1.40001
1.40001
2.36403
1.4
1.40001
1.40001
1.40001
1.40001
1.40001
1.40001
1.40001
1.40001
1.40001
1.40001
1.40001
1.40001
1.40001
1.40001
1.40001
1.40001
1.40001
1.40001
5.74145
3.10152
1.56785
1.4
1.40001
1.40001
1.40001
1.40001
1.40001
1.40001
1.40001
1.40001
1.40001
1.40001
1.40001
1.40001
1.40001
1.40001
1.40001
1.40001
6.57963
5.3484
4.50964
2.68656
1.41616
1.4
1.40001
1.40001
1.40001
1.40001
1.40001
1.40001
1.40001
1.40001
1.40001
1.40001
1.40001
1.40001
1.40001
1.40001
5.61223
5.00949
5.02197
4.69758
3.28773
1.55849
1.39986
1.40001
1.40001
1.40001
1.40001
1.40001
1.40001
1.40001
1.40001
1.40001
1.40001
1.40001
1.40001
1.40001
5.08298
4.87036
4.78268
4.67389
4.66115
3.4517
1.60025
1.39945
1.40001
1.40001
1.40001
1.40001
1.40001
1.40001
1.40001
1.40001
1.40001
1.40001
1.40001
1.40001
4.79628
4.72305
4.70067
4.6278
4.65141
4.55779
3.19821
1.5116
1.3996
1.40001
1.40001
1.40001
1.40001
1.40001
1.40001
1.40001
1.40001
1.40001
1.40001
1.40001
4.72046
4.71211
4.6963
4.60967
4.56372
4.53281
4.41257
2.66549
1.41946
1.4
1.40001
1.40001
1.40001
1.40001
1.40001
1.40001
1.40001
1.40001
1.40001
1.40001
4.73108
4.71797
4.67314
4.5867
4.51518
4.49564
4.58893
4.34065
2.2585
1.39683
1.40002
1.40001
1.40001
1.40001
1.40001
1.40001
1.40001
1.40001
1.40001
1.40001
4.7307
4.69313
4.63127
4.55738
4.4985
4.48937
4.52667
4.52492
3.68094
1.71959
1.39874
1.40001
1.40001
1.40001
1.40001
1.40001
1.40001
1.40001
1.40001
1.40001
4.69064
4.64175
4.58551
4.53076
4.48268
4.46417
4.46185
4.4821
4.40885
2.81651
1.4392
1.4
1.40001
1.40001
1.40001
1.40001
1.40001
1.40001
1.40001
1.40001
4.62381
4.58047
4.53735
4.49388
4.45893
4.43527
4.41825
4.43358
4.51368
4.07372
2.02405
1.39727
1.40001
1.40001
1.40001
1.40001
1.40001
1.40001
1.40001
1.40001
4.55372
4.52553
4.49667
4.46111
4.43305
4.40308
4.39664
4.42866
4.4997
4.36122
3.07866
1.50041
1.39996
1.40001
1.40001
1.40001
1.40001
1.40001
1.40001
1.40001
4.49802
4.48423
4.46243
4.42727
4.39924
4.37675
4.37903
4.41476
4.45703
4.45378
4.15082
2.14059
1.40036
1.40001
1.40001
1.40001
1.40001
1.40001
1.40001
1.40001
4.46643
4.45648
4.43896
4.39836
4.36736
4.34562
4.34696
4.38034
4.4208
4.45581
4.39314
3.16574
1.54488
1.40001
1.40001
1.40001
1.40001
1.40001
1.40001
1.40001
4.43459
4.42065
4.39679
4.35704
4.33605
4.31561
4.32377
4.36017
4.40003
4.42908
4.40313
4.00136
1.95253
1.371
1.39957
1.4
1.40001
1.40001
1.40001
1.40001
1.98414
2.81485
3.22318
3.49706
3.70071
3.82304
3.94411
4.05908
4.1713
4.26356
4.32182
4.35359
3.50866
1.831
1.41466
1.40013
1.40001
1.40001
1.40001
1.40001
0.750531
1.72473
2.22221
2.59562
2.91955
3.1812
3.38691
3.58286
3.75864
3.92773
4.1146
4.2759
4.16798
3.10507
1.68064
1.40737
1.40006
1.40001
1.40001
1.40001
0.588419
1.16279
1.59906
1.98941
2.28843
2.60608
2.8548
3.10603
3.31557
3.54696
3.77883
4.08001
4.08864
3.79775
2.49976
1.50918
1.40165
1.40001
1.40001
1.40001
0.655563
0.939076
1.14352
1.51705
1.8662
2.14583
2.42886
2.6604
2.9196
3.17616
3.45036
3.7329
3.91235
3.88025
3.37658
1.96528
1.42741
1.40027
1.40001
1.40001
0.815636
0.860089
0.910388
1.17137
1.48338
1.76202
2.0643
2.29445
2.55719
2.81402
3.12056
3.36556
3.61924
3.7959
3.73322
2.76381
1.59651
1.40391
1.40003
1.40001
0.899869
0.855017
0.875208
1.05284
1.24826
1.48556
1.73654
2.01394
2.22717
2.50254
2.78762
3.05211
3.2821
3.59782
3.67638
3.38211
2.07868
1.4409
1.40042
1.40001
0.886199
0.84336
0.874279
0.97344
1.09732
1.31993
1.52389
1.79151
2.01072
2.26767
2.52527
2.81137
3.00066
3.29635
3.54684
3.49041
2.70317
1.59863
1.40403
1.40003
0.863887
0.849057
0.880611
0.911843
0.949885
1.13309
1.34352
1.58787
1.83264
2.05582
2.31477
2.57506
2.81138
3.05459
3.36037
3.43702
3.14779
1.97942
1.42965
1.40025
0.873493
0.880593
0.906596
0.903592
0.902992
1.00647
1.17645
1.36305
1.63402
1.84556
2.09917
2.31751
2.58901
2.85393
3.15149
3.35416
3.29502
2.41837
1.52145
1.40191
0.89866
0.908927
0.922312
0.912259
0.912862
0.993509
1.09618
1.24112
1.46158
1.68551
1.89317
2.12583
2.34866
2.61743
2.89831
3.23408
3.26573
2.83073
1.72533
1.41022
0.906302
0.911235
0.919333
0.909173
0.913009
0.958784
1.03557
1.18221
1.34663
1.57088
1.77378
2.00518
2.21839
2.45634
2.70871
3.04917
3.21328
3.08291
2.0774
1.44551
0.897643
0.897813
0.90431
0.906483
0.912496
0.929105
0.959706
1.10003
1.2308
1.44777
1.65544
1.8755
2.10156
2.32856
2.55425
2.86822
3.13434
3.09148
2.39286
1.54142
0.876718
0.877688
0.898834
0.916852
0.922064
0.917853
0.920488
1.014
1.13231
1.28242
1.49096
1.70241
1.92678
2.16651
2.37251
2.66227
3.02154
3.0485
2.65576
1.71495
0.85161
0.862323
0.904142
0.933271
0.930681
0.92111
0.923004
1.00125
1.09455
1.20706
1.38741
1.57553
1.79828
2.03269
2.24481
2.49958
2.87321
3.00333
2.83425
1.99004
0.838898
0.857566
0.904603
0.935307
0.93086
0.92001
0.922895
0.979388
1.05928
1.1683
1.32273
1.50502
1.7094
1.9304
2.14098
2.37035
2.71936
2.94914
2.84962
2.30446
0.75311
0.851294
0.902505
0.933237
0.929917
0.913797
0.912386
0.941341
1.00078
1.1107
1.24363
1.42941
1.61219
1.81981
2.01956
2.2157
2.53739
2.8677
2.82442
2.6197
0.666244
0.815654
0.893105
0.930102
0.928424
0.915666
0.91118
0.911364
0.934524
1.0406
1.14462
1.33017
1.51743
1.70726
1.90593
2.10041
2.38581
2.76131
2.80687
2.94055
0.62929
0.77217
0.871325
0.923497
0.929915
0.925429
0.915038
0.908043
0.914608
0.990808
1.09509
1.24128
1.43974
1.62051
1.80928
2.0027
2.25126
2.62671
2.81945
3.22668
0.613865
0.735895
0.834305
0.90387
0.927315
0.926095
0.914411
0.899915
0.903487
0.956781
1.05758
1.18617
1.36013
1.5382
1.71351
1.895
2.11003
2.45838
2.79882
3.46869
0.627893
0.701865
0.774489
0.860463
0.910744
0.912742
0.900797
0.879442
0.88555
0.920445
1.00083
1.1302
1.27386
1.44213
1.61833
1.79107
1.98812
2.30663
2.7833
3.6578
0.654031
0.673988
0.717142
0.805902
0.873369
0.891624
0.885777
0.872601
0.87998
0.90753
0.942963
1.057
1.19675
1.3383
1.5116
1.68421
1.86824
2.16389
2.75316
3.82107
0.686915
0.677156
0.68945
0.755078
0.823804
0.865653
0.87145
0.866143
0.877036
0.89337
0.914105
1.00846
1.1234
1.25161
1.41469
1.57643
1.74965
2.03555
2.68057
3.91433
0.758216
0.730576
0.704407
0.728602
0.766052
0.827169
0.851165
0.85423
0.862094
0.864799
0.879833
0.964461
1.06032
1.17475
1.32714
1.47643
1.63704
1.91606
2.60233
3.94442
0.808176
0.789743
0.737131
0.707489
0.71335
0.770363
0.820778
0.835138
0.838742
0.833231
0.842909
0.91369
1.00328
1.1146
1.24594
1.39214
1.54451
1.82703
2.5575
3.90222
0.824131
0.854536
0.833869
0.767995
0.723321
0.738483
0.769754
0.797042
0.802209
0.798321
0.805545
0.845925
0.907981
1.01348
1.11825
1.25722
1.41136
1.71827
2.45372
3.73596
)
;

boundaryField
{
    inlet
    {
        type            calculated;
        value           uniform 1.40001;
    }
    outlet
    {
        type            calculated;
        value           nonuniform List<scalar> 
35
(
0.823808
0.854501
0.834017
0.768178
0.723492
0.738675
0.770029
0.797414
0.802596
0.798658
0.80584
0.84623
0.908276
1.01359
1.11838
1.2574
1.4117
1.71924
2.4555
3.74027
0.742
0.709985
0.747402
0.694759
0.424083
0.453314
0.521285
0.654385
0.829508
1.03395
1.29464
1.46271
1.48386
1.45482
1.4135
)
;
    }
    airfoil
    {
        type            calculated;
        value           nonuniform List<scalar> 
60
(
0.0860359
0.0898595
0.0845716
0.0761173
0.0701812
0.063054
0.0523667
0.0332993
0.0207489
0.0150158
0.017142
0.0452916
0.189895
0.456701
0.966594
1.63693
1.63595
1.63705
1.63921
1.63858
1.63852
1.65421
1.68182
1.70214
1.71284
1.71311
1.67178
1.62335
1.55537
1.4687
2.36403
5.74145
6.57963
5.61223
5.08298
4.79628
4.72046
4.73108
4.7307
4.69064
4.62381
4.55372
4.49802
4.46643
4.43459
1.98414
0.750531
0.588419
0.655563
0.815636
0.899869
0.886199
0.863887
0.873493
0.89866
0.906302
0.897643
0.876718
0.85161
0.838898
)
;
    }
    top
    {
        type            symmetryPlane;
    }
    bottom
    {
        type            symmetryPlane;
    }
    defaultFaces
    {
        type            empty;
    }
}


// ************************************************************************* //
