/*--------------------------------*- C++ -*----------------------------------*\
  =========                 |
  \\      /  F ield         | OpenFOAM: The Open Source CFD Toolbox
   \\    /   O peration     | Website:  https://openfoam.org
    \\  /    A nd           | Version:  7
     \\/     M anipulation  |
\*---------------------------------------------------------------------------*/
FoamFile
{
    version     2.0;
    format      ascii;
    class       volScalarField;
    location    "2";
    object      p;
}
// * * * * * * * * * * * * * * * * * * * * * * * * * * * * * * * * * * * * * //

dimensions      [1 -1 -2 0 0 0 0];

internalField   nonuniform List<scalar> 
90000
(
0.210306
0.241567
0.268327
0.294508
0.321698
0.341337
0.360537
0.383743
0.404889
0.426907
0.451118
0.477973
0.507603
0.538132
0.571497
0.608656
0.647791
0.689364
0.733543
0.777789
0.821722
0.861282
0.89621
0.922553
0.942249
0.955758
0.965855
0.967174
0.970692
0.970163
0.967171
0.961111
0.953854
0.942504
0.93234
0.919669
0.906266
0.891406
0.876436
0.864218
0.865663
0.874086
0.884974
0.89624
0.909285
0.921703
0.934592
0.940973
0.946522
0.94776
0.945799
0.938646
0.924172
0.910994
0.901375
0.902138
0.909083
0.921393
0.933194
0.938363
0.937741
0.932342
0.924176
0.913602
0.910498
0.913376
0.922795
0.937455
0.94769
0.94808
0.943139
0.94131
0.945093
0.949891
0.951561
0.951355
0.952087
0.956103
0.962488
0.969463
0.973503
0.978326
0.985668
0.983969
0.98651
0.999737
1.01441
1.0259
1.03128
1.02969
1.02723
1.02961
1.03313
1.03471
1.03592
1.03549
1.03522
1.02941
1.0189
0.976178
0.184441
0.184428
0.184414
0.184401
0.184391
0.184386
0.184382
0.184381
0.184381
0.184386
0.184364
0.184824
0.18607
0.188669
0.192912
0.199944
0.209578
0.224022
0.242751
0.268869
0.300291
0.339974
0.384447
0.434843
0.482989
0.530947
0.575814
0.617419
0.657392
0.692692
0.72612
0.7545
0.781689
0.801775
0.823279
0.839099
0.856097
0.867845
0.879254
0.88573
0.893133
0.905942
0.915016
0.928913
0.940293
0.94932
0.957694
0.956433
0.956733
0.95376
0.940163
0.919699
0.902392
0.898248
0.903035
0.908847
0.91911
0.933603
0.943029
0.940748
0.933404
0.923794
0.912481
0.906806
0.908632
0.915944
0.929798
0.944809
0.94751
0.942697
0.937407
0.940339
0.948515
0.953581
0.953108
0.951079
0.952895
0.958632
0.96598
0.97225
0.975317
0.980504
0.987751
0.985544
0.986241
0.99985
1.01479
1.02422
1.02953
1.02932
1.02793
1.03025
1.03348
1.03522
1.03647
1.03563
1.03531
1.02903
1.01682
0.975811
0.184368
0.184379
0.184389
0.1844
0.184412
0.184429
0.18445
0.184472
0.184495
0.18452
0.184543
0.184581
0.184575
0.184562
0.184551
0.184545
0.184549
0.184554
0.184565
0.184579
0.184599
0.184617
0.184657
0.18464
0.185608
0.189214
0.195937
0.208025
0.224471
0.248278
0.276911
0.314715
0.357757
0.411585
0.469979
0.53683
0.606415
0.679395
0.75351
0.817182
0.862704
0.896034
0.912337
0.92669
0.937124
0.945061
0.948569
0.947613
0.940986
0.923404
0.88887
0.884463
0.890527
0.902545
0.915611
0.934225
0.945724
0.94345
0.937974
0.929941
0.921081
0.911335
0.906997
0.907319
0.915836
0.933473
0.945805
0.947618
0.943005
0.934111
0.93539
0.94417
0.952741
0.955495
0.952067
0.951132
0.955298
0.961361
0.968501
0.973295
0.975621
0.983145
0.990746
0.987398
0.988686
1.00233
1.01531
1.02186
1.02655
1.02858
1.0284
1.03074
1.03361
1.03561
1.03672
1.03574
1.03532
1.02857
1.0152
0.975394
0.184317
0.18433
0.184343
0.184357
0.184371
0.184385
0.184404
0.184426
0.184449
0.184465
0.184481
0.184495
0.184518
0.184549
0.184581
0.184621
0.184669
0.184709
0.18475
0.184792
0.184837
0.184885
0.184934
0.184985
0.185013
0.184995
0.184962
0.184935
0.184923
0.184927
0.184951
0.184979
0.185018
0.185029
0.186055
0.191541
0.203444
0.227431
0.264028
0.31772
0.383925
0.455969
0.532435
0.600036
0.660705
0.714715
0.75449
0.796422
0.820872
0.846357
0.861151
0.886487
0.90511
0.934731
0.950629
0.962968
0.958085
0.941856
0.930299
0.91971
0.909418
0.903813
0.905644
0.916263
0.934036
0.949077
0.949828
0.942137
0.929655
0.929239
0.935447
0.953472
0.959054
0.955423
0.949274
0.951608
0.959372
0.965961
0.971011
0.974257
0.977342
0.986726
0.992765
0.98865
0.990673
1.00354
1.01525
1.01931
1.02369
1.02837
1.02935
1.03164
1.03419
1.03633
1.0369
1.03599
1.03517
1.02782
1.01369
0.975358
0.184299
0.184313
0.184326
0.184337
0.184347
0.18436
0.184377
0.184397
0.184416
0.184432
0.18445
0.184467
0.184491
0.18452
0.184549
0.184586
0.184628
0.184665
0.184698
0.184736
0.184783
0.184836
0.184889
0.184945
0.184997
0.185032
0.185036
0.185028
0.18502
0.185022
0.185039
0.185065
0.185096
0.185135
0.185152
0.185167
0.185208
0.185318
0.185465
0.185485
0.185452
0.186244
0.193495
0.208992
0.240653
0.283846
0.346441
0.423199
0.516943
0.622649
0.731169
0.82039
0.870029
0.90626
0.922698
0.935303
0.934624
0.93204
0.927756
0.916584
0.900854
0.905852
0.918464
0.937563
0.948159
0.949321
0.944399
0.925778
0.919015
0.926335
0.948014
0.961752
0.960104
0.948257
0.946373
0.953753
0.963694
0.968933
0.972422
0.975264
0.97931
0.989777
0.994685
0.990757
0.993019
1.00506
1.01501
1.01749
1.02225
1.02852
1.03033
1.03246
1.03471
1.03681
1.03669
1.03585
1.03565
1.02787
1.01258
0.975315
0.184294
0.184309
0.184323
0.184336
0.184348
0.184361
0.184378
0.184397
0.184415
0.18443
0.184448
0.184473
0.184504
0.184531
0.184556
0.184591
0.184637
0.184673
0.184701
0.184737
0.184789
0.184849
0.184909
0.184969
0.18502
0.185069
0.185099
0.185091
0.185071
0.185056
0.185055
0.185069
0.185093
0.185125
0.185166
0.185207
0.185257
0.185337
0.185502
0.185584
0.18558
0.185529
0.185523
0.185623
0.185687
0.185676
0.185651
0.185645
0.191311
0.209365
0.25851
0.32827
0.429492
0.53027
0.625059
0.713537
0.780821
0.839411
0.879825
0.883026
0.905037
0.922746
0.946339
0.958984
0.957739
0.950085
0.919009
0.905372
0.914026
0.938943
0.964648
0.967716
0.954743
0.941424
0.943676
0.957971
0.967954
0.970175
0.973724
0.977301
0.984048
0.992388
0.996098
0.993225
0.995155
1.00575
1.01415
1.01596
1.02176
1.02948
1.03169
1.03368
1.03576
1.03739
1.03689
1.0361
1.03568
1.02715
1.01131
0.975559
0.184324
0.184333
0.184344
0.184356
0.184369
0.184381
0.184396
0.184413
0.184425
0.184437
0.184455
0.184481
0.184518
0.184549
0.184569
0.184594
0.184636
0.184676
0.184704
0.184737
0.184781
0.184841
0.184909
0.184974
0.185019
0.185059
0.185108
0.185135
0.185129
0.185111
0.185095
0.185094
0.18511
0.18514
0.185186
0.185238
0.185285
0.185335
0.185426
0.185558
0.185598
0.185588
0.185585
0.185638
0.185731
0.185749
0.185714
0.185684
0.185697
0.185697
0.185687
0.185686
0.186185
0.193565
0.223729
0.276355
0.367947
0.489359
0.631135
0.755067
0.866629
0.908937
0.938189
0.943234
0.93762
0.91694
0.889642
0.9015
0.931394
0.961072
0.97003
0.962402
0.941358
0.938846
0.947128
0.964023
0.971119
0.972304
0.974966
0.980518
0.986953
0.993303
0.99685
0.99662
0.997175
1.00517
1.01258
1.0153
1.02196
1.03046
1.03291
1.03474
1.03668
1.03768
1.03698
1.03614
1.03584
1.02781
1.01082
0.975946
0.184305
0.184314
0.18432
0.184327
0.184332
0.184339
0.184349
0.184365
0.18438
0.184397
0.18442
0.184448
0.184484
0.184519
0.18454
0.184561
0.184592
0.184634
0.18467
0.184703
0.184749
0.184812
0.184886
0.184945
0.184981
0.185005
0.185038
0.185092
0.18515
0.185162
0.185151
0.185119
0.185105
0.18513
0.185182
0.185245
0.185298
0.185329
0.185363
0.185436
0.185532
0.185604
0.185655
0.185674
0.1857
0.185735
0.185737
0.185719
0.185717
0.18571
0.185706
0.18572
0.185751
0.185783
0.185787
0.18578
0.185777
0.189853
0.213541
0.287566
0.396858
0.535611
0.663054
0.754018
0.826631
0.864903
0.888793
0.92311
0.967465
0.980209
0.975568
0.943886
0.931945
0.939256
0.959459
0.970826
0.967925
0.970397
0.977406
0.984716
0.988362
0.993763
0.997877
0.999323
0.999788
1.00547
1.01136
1.01649
1.02365
1.03155
1.03419
1.03582
1.03759
1.03793
1.03705
1.0362
1.03602
1.02802
1.01086
0.976522
0.184231
0.184247
0.184256
0.184259
0.184261
0.184264
0.184273
0.184292
0.184311
0.184331
0.184356
0.184385
0.184415
0.184444
0.184472
0.1845
0.184533
0.184574
0.184609
0.184645
0.184704
0.184771
0.184847
0.184933
0.184952
0.184954
0.184971
0.185009
0.185089
0.185193
0.185222
0.185215
0.185201
0.185207
0.18524
0.185289
0.185361
0.185384
0.185373
0.185387
0.185433
0.185502
0.185622
0.185707
0.185719
0.185723
0.185706
0.185703
0.185735
0.185744
0.185731
0.185739
0.185781
0.185821
0.185825
0.185827
0.185841
0.18586
0.18588
0.185883
0.185868
0.19837
0.237449
0.329956
0.467348
0.64148
0.807604
0.904842
0.957489
0.965603
0.946931
0.918448
0.931515
0.95865
0.971764
0.969437
0.964151
0.970134
0.98267
0.988417
0.991587
0.995216
0.99979
1.00382
1.00081
1.00416
1.0109
1.01955
1.02498
1.03195
1.03536
1.03693
1.03846
1.03845
1.03713
1.03612
1.03597
1.02815
1.01111
0.977113
0.184123
0.184135
0.184151
0.184171
0.184191
0.184202
0.18421
0.184225
0.184249
0.184279
0.184311
0.18434
0.184366
0.184396
0.18443
0.184464
0.184505
0.184551
0.184591
0.184637
0.184699
0.184765
0.184834
0.184916
0.184967
0.184977
0.184985
0.185016
0.18508
0.185171
0.185259
0.185287
0.185284
0.185273
0.185279
0.185305
0.185384
0.185426
0.185414
0.185405
0.185434
0.185488
0.185564
0.185661
0.185704
0.185707
0.185697
0.185688
0.185711
0.185776
0.185818
0.185832
0.185858
0.185908
0.185928
0.185925
0.185919
0.185889
0.185851
0.185861
0.185881
0.185903
0.185906
0.18593
0.188402
0.219223
0.318766
0.471346
0.629937
0.781089
0.851347
0.912435
0.94873
0.985069
0.978181
0.958018
0.959359
0.977236
0.990245
0.990777
0.990291
0.996638
1.00218
1.00738
1.00191
1.00383
1.01358
1.0215
1.02211
1.03076
1.03629
1.03789
1.0392
1.03917
1.03752
1.03641
1.03602
1.02824
1.0115
0.977497
0.18407
0.18409
0.184118
0.184144
0.184165
0.184181
0.184195
0.184214
0.184247
0.184291
0.184334
0.184364
0.184385
0.184405
0.184436
0.184484
0.184534
0.18458
0.184625
0.184669
0.184721
0.184784
0.184849
0.184909
0.184965
0.185006
0.185031
0.185054
0.18509
0.185152
0.185264
0.185319
0.185318
0.185299
0.185274
0.185282
0.185339
0.185426
0.185434
0.185425
0.18544
0.185497
0.185581
0.185662
0.185715
0.185728
0.185732
0.18572
0.185722
0.185761
0.185838
0.185888
0.185916
0.185928
0.185922
0.185917
0.18591
0.185893
0.185849
0.185858
0.185933
0.186006
0.186036
0.186055
0.186051
0.186041
0.186037
0.189207
0.227856
0.333329
0.54194
0.795539
0.927465
0.973184
0.968365
0.942214
0.962152
0.989887
0.995524
0.987937
0.992287
1.00013
1.00844
1.0056
1.003
1.00679
1.01752
1.02067
1.01656
1.02766
1.03678
1.03844
1.0398
1.0401
1.03795
1.03587
1.03544
1.02828
1.01211
0.977573
0.184065
0.184093
0.184125
0.184155
0.184177
0.184191
0.184206
0.184232
0.184271
0.184317
0.184357
0.184388
0.184417
0.184439
0.184463
0.184498
0.184544
0.184591
0.184638
0.18468
0.184719
0.184764
0.184818
0.184875
0.184933
0.185
0.185066
0.1851
0.185117
0.18514
0.185201
0.185293
0.18532
0.185317
0.185292
0.185277
0.185301
0.185395
0.185444
0.185445
0.185462
0.185515
0.185638
0.185733
0.185744
0.185745
0.18574
0.185734
0.185744
0.185776
0.185845
0.185938
0.185962
0.18595
0.185962
0.185985
0.185999
0.186009
0.185988
0.18591
0.185921
0.186018
0.186088
0.186108
0.186099
0.186071
0.186076
0.186063
0.186048
0.18608
0.201036
0.289606
0.487842
0.718439
0.84323
0.903638
0.983159
1.005
0.990761
0.986093
0.99706
1.00668
1.00982
1.00406
1.00689
1.01293
1.02126
1.01185
1.01075
1.02787
1.03746
1.03899
1.04059
1.04125
1.03867
1.03577
1.03485
1.02799
1.0118
0.977687
0.184059
0.18409
0.184122
0.184158
0.184182
0.184202
0.184224
0.18425
0.184278
0.184311
0.184344
0.184375
0.184412
0.184443
0.184468
0.184499
0.184538
0.184581
0.184626
0.184667
0.184695
0.184727
0.184767
0.184814
0.184875
0.184958
0.185068
0.18514
0.18515
0.185157
0.185177
0.185233
0.185304
0.185332
0.18533
0.185327
0.185346
0.185421
0.185453
0.18545
0.185463
0.185509
0.185612
0.185746
0.185778
0.185782
0.185772
0.185774
0.185803
0.185856
0.185922
0.186
0.18602
0.18602
0.186043
0.186078
0.186095
0.186101
0.186096
0.186079
0.186073
0.186115
0.186187
0.186203
0.186171
0.186188
0.186177
0.186128
0.186168
0.186359
0.186421
0.186423
0.195163
0.262658
0.467121
0.738173
0.958785
0.991856
0.969335
0.989888
1.00799
1.01364
1.00366
1.00525
1.01251
1.01778
1.01359
1.0022
1.01088
1.02971
1.03838
1.03972
1.04151
1.04221
1.03905
1.03631
1.03455
1.02781
1.01167
0.97708
0.184061
0.184084
0.184108
0.184133
0.184169
0.184213
0.18424
0.184255
0.184269
0.184285
0.184305
0.184333
0.184378
0.184406
0.184422
0.184445
0.184482
0.184528
0.184575
0.18461
0.184636
0.184664
0.184704
0.184766
0.184846
0.184927
0.185005
0.185096
0.185155
0.185164
0.185173
0.185196
0.18525
0.185315
0.185337
0.185355
0.185391
0.185477
0.185513
0.185505
0.185504
0.185537
0.185616
0.185721
0.185776
0.185785
0.185787
0.185779
0.185798
0.185853
0.185954
0.186013
0.186016
0.186019
0.186047
0.186081
0.186108
0.186129
0.186161
0.186221
0.186271
0.186302
0.186336
0.186336
0.186321
0.186321
0.186321
0.186369
0.186479
0.186642
0.186743
0.186734
0.18661
0.186118
0.190609
0.275837
0.50399
0.779807
0.906941
1.00369
1.02275
1.00821
1.0004
1.01302
1.01944
1.01405
1.00225
0.997479
1.01494
1.03439
1.0398
1.0411
1.0428
1.04331
1.03996
1.03537
1.03379
1.02754
1.0115
0.976938
0.184119
0.184122
0.184134
0.184162
0.184199
0.184246
0.184279
0.184284
0.184287
0.184293
0.184303
0.184315
0.184329
0.184347
0.184372
0.184402
0.184438
0.184474
0.184513
0.184552
0.184589
0.18464
0.184672
0.184692
0.184729
0.184801
0.1849
0.185033
0.185123
0.185131
0.185137
0.185154
0.185195
0.185258
0.185303
0.18534
0.185392
0.185507
0.185592
0.185593
0.185596
0.185629
0.185737
0.185883
0.185906
0.185904
0.185911
0.185904
0.185847
0.185874
0.185976
0.186002
0.185997
0.186003
0.186036
0.186101
0.186159
0.186203
0.186255
0.186314
0.186332
0.186341
0.186365
0.186355
0.186353
0.18638
0.186476
0.186647
0.186808
0.186927
0.18694
0.186865
0.186537
0.186122
0.185664
0.185182
0.194162
0.32019
0.648398
0.956372
1.0093
0.985102
1.00406
1.02073
1.02031
1.00604
0.993428
0.998807
1.02695
1.04035
1.04134
1.04317
1.04423
1.04462
1.04203
1.03581
1.03354
1.02754
1.01145
0.976104
0.184156
0.18416
0.184171
0.184187
0.184211
0.184241
0.184252
0.184255
0.184253
0.184246
0.184244
0.184247
0.184258
0.184281
0.184313
0.184353
0.184389
0.184418
0.184444
0.184467
0.184494
0.184519
0.184538
0.184567
0.184626
0.184725
0.184843
0.18497
0.18506
0.185107
0.18513
0.185153
0.185186
0.185218
0.185248
0.185297
0.185364
0.185491
0.185582
0.185584
0.185589
0.185628
0.185757
0.185928
0.185957
0.185949
0.185968
0.185995
0.18599
0.185991
0.186067
0.186141
0.186159
0.186177
0.186218
0.186319
0.186407
0.186423
0.186435
0.186448
0.186446
0.186442
0.18644
0.186424
0.18641
0.186511
0.186763
0.187007
0.18711
0.187131
0.187081
0.186833
0.186376
0.186021
0.185574
0.185377
0.185429
0.185544
0.237118
0.47177
0.794909
0.931197
1.0202
1.0304
1.0165
0.997146
0.991537
1.01617
1.03976
1.03656
1.04156
1.04517
1.04518
1.04478
1.04148
1.03582
1.03353
1.0278
1.01145
0.975952
0.184168
0.184172
0.184178
0.184191
0.184195
0.184195
0.184198
0.184201
0.184197
0.184195
0.184202
0.184218
0.184236
0.184261
0.184295
0.184334
0.184383
0.184431
0.18448
0.184526
0.184533
0.184529
0.184528
0.184543
0.184598
0.184714
0.18486
0.185036
0.185157
0.185165
0.185157
0.185154
0.185164
0.185192
0.185236
0.18529
0.185334
0.185406
0.185508
0.185519
0.185524
0.185559
0.185681
0.185878
0.185921
0.185915
0.185929
0.185957
0.185985
0.186029
0.186109
0.186229
0.186278
0.186284
0.186308
0.186392
0.186449
0.186464
0.186459
0.186444
0.186463
0.186511
0.186568
0.186631
0.186715
0.18686
0.187092
0.187266
0.187305
0.187274
0.187062
0.186682
0.186287
0.185964
0.185737
0.185792
0.185974
0.186026
0.185941
0.191835
0.344116
0.711048
0.984941
1.01439
1.00357
0.991524
1.00373
1.02937
1.03153
1.02631
1.04244
1.04717
1.04583
1.04504
1.04213
1.03649
1.03394
1.0283
1.01169
0.976878
0.184164
0.184165
0.184164
0.184163
0.184161
0.184163
0.18417
0.184174
0.184172
0.184176
0.184191
0.184216
0.184251
0.184297
0.184341
0.184382
0.184456
0.184492
0.184494
0.184502
0.184524
0.18453
0.184528
0.184538
0.18459
0.184697
0.184829
0.184986
0.185084
0.185099
0.185094
0.185089
0.185098
0.185124
0.185165
0.185228
0.185298
0.185365
0.185455
0.185511
0.185543
0.185586
0.185678
0.185879
0.186029
0.186066
0.186079
0.186074
0.186054
0.186083
0.18614
0.186233
0.186279
0.186288
0.186311
0.186397
0.186467
0.186486
0.18648
0.186448
0.186475
0.186568
0.186704
0.186882
0.187098
0.187297
0.187476
0.187521
0.187486
0.187302
0.186906
0.186548
0.186278
0.186037
0.186066
0.186251
0.18644
0.186439
0.186236
0.185393
0.184763
0.262398
0.55944
0.834824
0.972894
0.996147
1.0264
1.03985
1.01275
1.02238
1.0494
1.05156
1.04798
1.04575
1.04333
1.03809
1.03528
1.02944
1.01259
0.978729
0.184116
0.184122
0.184124
0.184123
0.184126
0.184133
0.184146
0.18415
0.18415
0.184154
0.184169
0.184199
0.184248
0.184303
0.184346
0.184407
0.184447
0.184448
0.184446
0.184455
0.184464
0.184466
0.184459
0.184458
0.184486
0.184565
0.184678
0.184808
0.184928
0.185017
0.18507
0.185076
0.185081
0.185101
0.185149
0.185225
0.185295
0.185371
0.18546
0.185504
0.185523
0.18556
0.185639
0.185807
0.186038
0.1861
0.186111
0.18616
0.186235
0.186262
0.186257
0.186307
0.18644
0.186491
0.18652
0.186612
0.18668
0.186698
0.186683
0.186594
0.186591
0.186686
0.186885
0.187212
0.187446
0.187653
0.187705
0.187674
0.187472
0.187101
0.186733
0.186523
0.18641
0.186331
0.186468
0.186798
0.186853
0.186708
0.186199
0.18523
0.184144
0.183252
0.202159
0.412148
0.792514
0.969081
1.02504
1.00413
0.986304
1.03425
1.06009
1.05311
1.0483
1.04689
1.04599
1.04149
1.03688
1.03032
1.0139
0.980803
0.184109
0.18413
0.184148
0.184166
0.184184
0.184203
0.184225
0.184247
0.184265
0.184277
0.184284
0.184301
0.184342
0.184398
0.184464
0.184494
0.184495
0.184479
0.184479
0.184483
0.184488
0.184494
0.184479
0.184478
0.184505
0.184564
0.184633
0.184692
0.184779
0.184889
0.184921
0.184942
0.184978
0.185017
0.185054
0.185099
0.185166
0.185272
0.185394
0.185455
0.185489
0.185542
0.185625
0.185767
0.186022
0.186124
0.186165
0.186242
0.18637
0.186435
0.186445
0.186488
0.186582
0.186596
0.18659
0.186647
0.186746
0.18678
0.186791
0.186793
0.186834
0.186979
0.187314
0.187648
0.187786
0.187848
0.187803
0.187549
0.187202
0.186859
0.186666
0.18663
0.186614
0.186703
0.18709
0.1873
0.187188
0.186794
0.185879
0.184735
0.18391
0.183735
0.183297
0.184629
0.28166
0.568613
0.870839
0.928998
0.988431
1.07747
1.07507
1.05778
1.04995
1.04876
1.04796
1.04372
1.03671
1.03015
1.01533
0.982698
0.184235
0.184249
0.18428
0.184312
0.184316
0.18432
0.184332
0.184353
0.18437
0.184377
0.184382
0.184395
0.184419
0.184462
0.184513
0.184529
0.184525
0.184495
0.184491
0.184484
0.184434
0.184411
0.184433
0.184465
0.18446
0.184455
0.184477
0.184529
0.184588
0.184655
0.184733
0.184833
0.184982
0.185085
0.185105
0.185124
0.185172
0.185265
0.185393
0.185504
0.185576
0.185651
0.185747
0.185889
0.186106
0.186181
0.186253
0.186399
0.186492
0.186503
0.186495
0.186515
0.186534
0.186565
0.186591
0.186663
0.1868
0.186845
0.186885
0.186992
0.187155
0.187423
0.18773
0.187906
0.187875
0.187754
0.187527
0.187231
0.186964
0.186732
0.186737
0.18678
0.186869
0.187248
0.187674
0.187659
0.187329
0.186438
0.185387
0.184511
0.184101
0.184102
0.183883
0.182917
0.180236
0.208811
0.3709
0.680744
0.952147
1.06365
1.04739
1.04687
1.05393
1.05198
1.04908
1.0441
1.03557
1.0296
1.01728
0.984746
0.184319
0.184324
0.184329
0.184331
0.184332
0.184322
0.184316
0.184331
0.184344
0.184341
0.184319
0.184313
0.18432
0.184353
0.184401
0.184407
0.184389
0.184371
0.184349
0.184308
0.184278
0.184276
0.184293
0.184355
0.18437
0.184373
0.184394
0.18445
0.184517
0.184588
0.184665
0.184765
0.184945
0.185136
0.185177
0.185193
0.185237
0.185335
0.185486
0.185613
0.185666
0.185702
0.185787
0.185948
0.185977
0.185952
0.186004
0.186175
0.186256
0.186288
0.18633
0.186376
0.18643
0.186511
0.186625
0.186746
0.186859
0.18699
0.187195
0.187403
0.187587
0.187756
0.187871
0.187797
0.18757
0.187386
0.187168
0.187
0.186814
0.186807
0.186863
0.187014
0.187445
0.187992
0.188023
0.18783
0.186999
0.185987
0.185124
0.184454
0.184594
0.184578
0.184091
0.182624
0.180562
0.178593
0.177267
0.237625
0.459813
0.77493
0.918567
1.0384
1.05137
1.05029
1.04945
1.04325
1.03481
1.0303
1.02
0.986965
0.183831
0.18385
0.183857
0.183857
0.183853
0.18384
0.183823
0.183814
0.183822
0.18385
0.18387
0.183882
0.183906
0.183962
0.184049
0.184106
0.184126
0.184132
0.184135
0.18414
0.184135
0.184135
0.184152
0.184202
0.184268
0.184305
0.184334
0.184397
0.184487
0.184576
0.184646
0.184721
0.184837
0.184994
0.185054
0.185075
0.185096
0.185176
0.185353
0.185522
0.185564
0.185571
0.18562
0.185725
0.185741
0.185689
0.185715
0.185844
0.18597
0.186025
0.186095
0.186238
0.186391
0.186529
0.186663
0.186817
0.186985
0.187212
0.187519
0.187757
0.187894
0.187862
0.187753
0.187479
0.187266
0.187142
0.187025
0.18688
0.186889
0.186989
0.187255
0.187762
0.188402
0.188438
0.188242
0.187537
0.186562
0.185777
0.185067
0.185332
0.185448
0.185194
0.184085
0.18243
0.180622
0.178787
0.178139
0.17993
0.186775
0.267827
0.555507
0.944257
1.01131
1.03927
1.05373
1.04665
1.03828
1.03438
1.02384
0.988723
0.183349
0.183444
0.183479
0.183484
0.183483
0.183474
0.183475
0.183481
0.183463
0.183471
0.183514
0.183557
0.18361
0.183725
0.183864
0.183932
0.183959
0.183982
0.184015
0.184055
0.184076
0.184087
0.184115
0.184216
0.184265
0.184256
0.18425
0.184282
0.184367
0.18447
0.184544
0.18461
0.184698
0.184771
0.184794
0.184829
0.184887
0.18491
0.184972
0.185141
0.185297
0.185335
0.185385
0.185472
0.18548
0.185469
0.185535
0.185705
0.185804
0.185864
0.185967
0.18614
0.186347
0.186571
0.186855
0.18715
0.187387
0.187558
0.187826
0.18793
0.18787
0.187732
0.187533
0.187188
0.187118
0.187107
0.187015
0.186979
0.187186
0.187768
0.188437
0.189067
0.189048
0.188765
0.188058
0.186988
0.186386
0.18574
0.186076
0.186577
0.186493
0.185766
0.184011
0.182552
0.182098
0.181787
0.182231
0.183597
0.187305
0.190273
0.213878
0.394184
0.729728
0.966736
1.05765
1.05259
1.05014
1.04277
1.0268
0.988886
0.183297
0.18341
0.183447
0.183456
0.183458
0.183452
0.183436
0.183434
0.183477
0.183593
0.18362
0.183622
0.18366
0.183743
0.183823
0.183894
0.184001
0.184059
0.18406
0.184086
0.184149
0.184158
0.184167
0.184213
0.18434
0.184417
0.184419
0.184372
0.184355
0.1844
0.184481
0.184554
0.184633
0.184643
0.184634
0.184636
0.184698
0.184764
0.184823
0.184955
0.185086
0.185157
0.185263
0.185356
0.185387
0.185407
0.185501
0.185704
0.185818
0.185886
0.186008
0.186232
0.186609
0.187128
0.187555
0.1878
0.187851
0.1878
0.187711
0.187687
0.187621
0.187588
0.187414
0.18713
0.187124
0.18722
0.187347
0.187854
0.188801
0.189567
0.190076
0.189945
0.189505
0.188628
0.18757
0.186877
0.186699
0.187347
0.188481
0.188455
0.188009
0.186631
0.185295
0.186237
0.186813
0.186192
0.186126
0.186929
0.189446
0.193141
0.198137
0.203193
0.311102
0.633151
0.984445
1.03033
1.05803
1.05282
1.02846
0.988893
0.183752
0.183896
0.183974
0.183973
0.18396
0.18398
0.184077
0.184098
0.184114
0.184196
0.184246
0.18426
0.184303
0.184393
0.184407
0.184402
0.18441
0.18445
0.184456
0.184473
0.184543
0.184569
0.184563
0.184535
0.18457
0.184587
0.184576
0.184603
0.184587
0.184533
0.184542
0.1846
0.184616
0.184599
0.184601
0.184654
0.184754
0.18481
0.184897
0.185045
0.185116
0.185161
0.185256
0.185378
0.185527
0.185778
0.186128
0.186516
0.186761
0.186852
0.186971
0.187191
0.187539
0.187969
0.188129
0.188118
0.188038
0.187709
0.187472
0.187487
0.187521
0.187555
0.187413
0.187558
0.188046
0.188891
0.189901
0.190731
0.191403
0.191361
0.191104
0.190555
0.189428
0.188494
0.187781
0.188346
0.18979
0.191689
0.191751
0.191393
0.190533
0.189829
0.190741
0.191406
0.191194
0.189941
0.188992
0.190071
0.191304
0.195088
0.200109
0.209114
0.215406
0.258441
0.510796
0.843597
1.0441
1.04289
1.02764
0.991306
0.185087
0.185106
0.185106
0.185096
0.185077
0.185049
0.185006
0.184959
0.184928
0.184914
0.184907
0.184897
0.184878
0.184849
0.184821
0.1848
0.18478
0.184756
0.184739
0.184754
0.184801
0.18481
0.184813
0.184778
0.184779
0.184813
0.184808
0.184809
0.184873
0.184965
0.184964
0.184976
0.185029
0.185102
0.185225
0.185413
0.18547
0.185472
0.185499
0.18564
0.185898
0.186051
0.186192
0.186433
0.186795
0.187223
0.187578
0.187861
0.188236
0.188447
0.18843
0.188374
0.188335
0.188189
0.187959
0.187929
0.187897
0.187679
0.187586
0.18772
0.188273
0.189064
0.189985
0.191126
0.192303
0.193126
0.193748
0.193666
0.193362
0.192725
0.191892
0.190996
0.190649
0.191279
0.193143
0.195092
0.196634
0.196418
0.195849
0.194893
0.195171
0.196135
0.196871
0.196794
0.196372
0.194574
0.192533
0.193959
0.197362
0.201714
0.208221
0.216209
0.223473
0.228566
0.244664
0.442052
0.848313
0.964105
1.00831
0.994853
0.184663
0.184617
0.184577
0.184549
0.184524
0.184492
0.184427
0.184355
0.184341
0.184361
0.184385
0.184387
0.184403
0.184451
0.184487
0.184514
0.184532
0.184541
0.184563
0.184646
0.18482
0.184922
0.184941
0.18492
0.184973
0.185139
0.185218
0.185285
0.185392
0.185535
0.185702
0.185865
0.186027
0.186208
0.186437
0.18671
0.186975
0.187217
0.18745
0.187678
0.187947
0.188115
0.188254
0.188437
0.18866
0.188909
0.189146
0.189346
0.189658
0.190188
0.190368
0.190413
0.190521
0.190449
0.190273
0.190329
0.190635
0.191339
0.192321
0.193377
0.194373
0.195211
0.196084
0.196652
0.197036
0.196957
0.196684
0.196281
0.195476
0.195425
0.195949
0.197318
0.199601
0.201592
0.203434
0.203481
0.202992
0.202209
0.20182
0.20241
0.203848
0.205067
0.205091
0.204863
0.204375
0.203681
0.202956
0.203902
0.207314
0.212326
0.217291
0.221132
0.228222
0.233952
0.239528
0.250654
0.37946
0.727392
0.983869
0.986248
0.18677
0.186815
0.186918
0.187095
0.187303
0.187504
0.187677
0.187842
0.187975
0.188068
0.188179
0.188332
0.188502
0.188718
0.189009
0.189272
0.189487
0.189706
0.189946
0.190236
0.190606
0.190881
0.191062
0.191218
0.191506
0.191905
0.192219
0.192415
0.192593
0.192794
0.192994
0.193182
0.193378
0.193519
0.193637
0.193807
0.193915
0.19402
0.194155
0.194386
0.194578
0.194674
0.194764
0.194899
0.19506
0.195158
0.195156
0.195041
0.195012
0.195127
0.195427
0.195821
0.196298
0.196935
0.197643
0.198355
0.199041
0.199637
0.200293
0.20089
0.201306
0.201567
0.201946
0.20214
0.202073
0.202218
0.202759
0.203685
0.204953
0.206706
0.20855
0.209909
0.210808
0.211175
0.210964
0.21055
0.209995
0.210336
0.211582
0.213343
0.214758
0.21486
0.214705
0.214468
0.214414
0.21384
0.213199
0.214369
0.217152
0.22146
0.227105
0.230026
0.234186
0.241077
0.247548
0.252865
0.258671
0.360813
0.668278
0.931082
0.198322
0.198344
0.198371
0.198406
0.198443
0.1985
0.19857
0.198676
0.198725
0.198711
0.198707
0.198756
0.198827
0.198898
0.198954
0.198988
0.199022
0.199109
0.199203
0.199219
0.199241
0.199315
0.199384
0.19945
0.199514
0.199503
0.199415
0.199369
0.199414
0.199473
0.199389
0.199313
0.199326
0.199222
0.19922
0.19926
0.199139
0.199135
0.19933
0.199659
0.199686
0.199675
0.199733
0.199901
0.200322
0.200753
0.201143
0.201684
0.202385
0.203133
0.203882
0.20475
0.205781
0.206886
0.208067
0.209234
0.21021
0.211107
0.211944
0.21262
0.213074
0.213508
0.213926
0.214375
0.215067
0.216086
0.217295
0.218203
0.218807
0.219255
0.219901
0.219956
0.219475
0.218907
0.219126
0.219844
0.221274
0.222773
0.224282
0.224719
0.224666
0.224419
0.224147
0.224171
0.22403
0.222638
0.220367
0.221121
0.223662
0.227193
0.232622
0.238906
0.243184
0.248973
0.256448
0.261868
0.266016
0.269844
0.319557
0.678606
0.209759
0.209756
0.209838
0.209888
0.209862
0.209892
0.209936
0.209958
0.20998
0.210018
0.210078
0.210215
0.210321
0.21037
0.21042
0.210501
0.210636
0.210769
0.210865
0.210956
0.211045
0.211133
0.211262
0.211431
0.211635
0.211854
0.212066
0.212297
0.212636
0.212999
0.213337
0.213746
0.214293
0.214897
0.215454
0.216004
0.216663
0.217406
0.218048
0.218637
0.219344
0.220105
0.220722
0.221265
0.221851
0.222478
0.223012
0.223486
0.224019
0.224539
0.225076
0.22551
0.225882
0.226063
0.226077
0.226051
0.225919
0.225854
0.225943
0.226147
0.226427
0.22668
0.226802
0.226848
0.227091
0.227648
0.228545
0.229245
0.229447
0.229552
0.230008
0.230732
0.231211
0.231667
0.232474
0.233568
0.234744
0.235257
0.235096
0.234876
0.234592
0.234506
0.234766
0.234969
0.234571
0.232708
0.229689
0.229137
0.230625
0.233044
0.236343
0.243075
0.251329
0.257814
0.262023
0.267127
0.273888
0.277808
0.280846
0.406664
0.229184
0.229337
0.229451
0.229573
0.229682
0.229721
0.229797
0.229922
0.230059
0.230182
0.230314
0.230518
0.230747
0.230914
0.23105
0.231226
0.231416
0.231566
0.231688
0.231798
0.23197
0.232164
0.232332
0.232571
0.232822
0.232969
0.233086
0.233242
0.233431
0.233503
0.233514
0.233573
0.233735
0.233899
0.233962
0.234052
0.234157
0.234166
0.234198
0.234314
0.234513
0.234624
0.23462
0.234576
0.234586
0.234611
0.23436
0.23411
0.234045
0.233872
0.233857
0.23371
0.233644
0.233537
0.233271
0.233377
0.233503
0.233697
0.234155
0.234906
0.23597
0.237279
0.23867
0.239975
0.241124
0.242151
0.242862
0.243514
0.244249
0.244753
0.245164
0.245746
0.246319
0.246559
0.246841
0.247014
0.246936
0.246766
0.246665
0.246718
0.246906
0.247353
0.247513
0.247297
0.246435
0.244223
0.240631
0.240048
0.242283
0.247128
0.251827
0.255339
0.259382
0.266281
0.27359
0.277617
0.280169
0.28677
0.291082
0.303864
0.247367
0.247358
0.247371
0.24745
0.247483
0.247439
0.247302
0.247157
0.247147
0.247348
0.24748
0.247392
0.247209
0.247153
0.247189
0.247289
0.247322
0.24733
0.247319
0.247263
0.24729
0.247378
0.247483
0.247568
0.247576
0.247493
0.247492
0.24765
0.247736
0.247684
0.247578
0.247613
0.247843
0.247988
0.247958
0.247971
0.248046
0.24804
0.248098
0.248269
0.248298
0.248283
0.248427
0.248818
0.249314
0.249843
0.250498
0.251259
0.252015
0.252825
0.253652
0.254476
0.255278
0.256019
0.256792
0.257618
0.258537
0.259453
0.260183
0.260686
0.261139
0.261305
0.261241
0.261182
0.261255
0.261201
0.260845
0.260458
0.260204
0.260055
0.259834
0.259622
0.259672
0.260072
0.260334
0.260557
0.260886
0.261101
0.261229
0.261381
0.261397
0.261215
0.260651
0.25972
0.25827
0.255847
0.252362
0.251679
0.253841
0.257787
0.262915
0.268463
0.272658
0.276863
0.283382
0.290156
0.29411
0.29786
0.301226
0.307155
0.269195
0.26925
0.269329
0.26935
0.269343
0.269374
0.269448
0.269493
0.269608
0.269713
0.269756
0.269832
0.269854
0.269778
0.269774
0.26998
0.270259
0.270294
0.270283
0.270288
0.270469
0.270582
0.270523
0.270526
0.270679
0.270917
0.271117
0.271338
0.271519
0.271586
0.271674
0.271879
0.27218
0.272488