/*--------------------------------*- C++ -*----------------------------------*\
  =========                 |
  \\      /  F ield         | OpenFOAM: The Open Source CFD Toolbox
   \\    /   O peration     | Website:  https://openfoam.org
    \\  /    A nd           | Version:  7
     \\/     M anipulation  |
\*---------------------------------------------------------------------------*/
FoamFile
{
    version     2.0;
    format      ascii;
    class       volScalarField;
    location    "0.69";
    object      T;
}
// * * * * * * * * * * * * * * * * * * * * * * * * * * * * * * * * * * * * * //

dimensions      [0 0 0 1 0 0 0];

internalField   nonuniform List<scalar> 
324000
(
0.840199
0.90275
1.017
1.1149
1.15828
1.15399
1.13188
1.11512
1.1099
1.10828
1.11178
1.11333
1.11351
1.1128
1.11163
1.11176
1.11299
1.1138
1.11302
1.1111
1.10871
1.10658
1.10499
1.10346
1.10215
1.10146
1.10089
1.0997
1.09851
1.09779
1.09737
1.09693
1.09574
1.09355
1.09082
1.08902
1.08894
1.08856
1.08761
1.0854
1.08247
1.07736
1.07116
1.06564
1.06028
1.05486
1.04976
1.0453
1.04072
1.03626
1.03194
1.02721
1.02352
1.02041
1.01748
1.01396
1.01381
1.01577
1.02176
1.02417
1.0217
1.01453
1.00163
0.999799
1.00678
1.01056
1.00674
0.995741
0.990554
0.989143
0.988909
0.98981
0.992079
0.995119
0.997938
0.999583
1.00001
1.00003
1.00001
1
0.558269
0.558659
0.635218
0.875748
1.04222
1.13597
1.14732
1.15413
1.15038
1.1449
1.13944
1.13451
1.13569
1.13579
1.13626
1.13789
1.13858
1.13794
1.13724
1.13614
1.13428
1.13259
1.13107
1.12982
1.12959
1.12965
1.12926
1.12859
1.12823
1.12819
1.12772
1.12658
1.12467
1.1224
1.12039
1.12032
1.12074
1.12059
1.11975
1.1173
1.1144
1.10985
1.10409
1.09862
1.09351
1.08824
1.0834
1.07914
1.07439
1.06887
1.06337
1.05777
1.0528
1.04899
1.04668
1.04382
1.04202
1.04369
1.04889
1.04979
1.04399
1.032
1.01179
1.00287
1.0077
1.01253
1.00749
0.995851
0.990519
0.988637
0.988536
0.989542
0.991883
0.994967
0.997837
0.999542
0.999998
1.00002
1.00001
1
0.55753
0.556762
0.556045
0.555421
0.639365
0.835933
1.02695
1.13421
1.15639
1.16075
1.1575
1.15177
1.14799
1.14464
1.14539
1.1466
1.146
1.14449
1.1437
1.14241
1.14127
1.14069
1.14034
1.14001
1.14009
1.14015
1.14002
1.1395
1.13965
1.14024
1.14023
1.13952
1.13832
1.13724
1.13707
1.13751
1.13809
1.13799
1.13747
1.13555
1.13305
1.12951
1.12477
1.12048
1.11659
1.11265
1.10875
1.10529
1.10117
1.09619
1.09151
1.08676
1.08416
1.08271
1.08193
1.08007
1.07755
1.07701
1.07656
1.07287
1.06315
1.04606
1.02524
1.00777
1.00978
1.01347
1.00818
0.996338
0.990283
0.988114
0.988148
0.989279
0.991694
0.99482
0.997738
0.999501
0.99999
1.00002
1.00001
1
0.556275
0.555726
0.55541
0.555241
0.555192
0.555221
0.647477
0.838852
1.00509
1.10455
1.14303
1.15326
1.15219
1.14882
1.14882
1.14701
1.14543
1.14384
1.14261
1.14167
1.1412
1.14091
1.14108
1.14146
1.14177
1.14222
1.14254
1.14232
1.14205
1.14196
1.14193
1.14145
1.14094
1.14115
1.14186
1.14296
1.14306
1.14291
1.14222
1.14048
1.1385
1.13571
1.1318
1.12847
1.12591
1.12349
1.12107
1.11862
1.11572
1.11232
1.10954
1.10874
1.10916
1.11068
1.11167
1.11029
1.10566
1.10017
1.09305
1.08298
1.07037
1.05245
1.03505
1.0148
1.01229
1.01494
1.00896
0.996836
0.989831
0.987602
0.987766
0.989015
0.991504
0.994674
0.997638
0.999461
0.999982
1.00002
1.00001
1
0.555459
0.555252
0.55515
0.555156
0.555233
0.555474
0.55593
0.556207
0.641427
0.832635
0.994043
1.0885
1.13781
1.13986
1.14377
1.13991
1.13924
1.13953
1.14015
1.14097
1.1408
1.14063
1.14042
1.14049
1.14127
1.14245
1.14329
1.1434
1.14209
1.14112
1.14085
1.14095
1.14138
1.14193
1.14247
1.14343
1.14333
1.14317
1.14243
1.14085
1.13865
1.136
1.13234
1.12923
1.12714
1.12541
1.12388
1.12205
1.1204
1.11942
1.1197
1.12186
1.12545
1.12689
1.12668
1.12431
1.11799
1.10855
1.09648
1.08226
1.06852
1.05191
1.03824
1.02208
1.01593
1.01787
1.01017
0.997114
0.989227
0.987143
0.987408
0.988748
0.991309
0.994521
0.997537
0.999421
0.999974
1.00002
1.00001
1
0.555115
0.555121
0.555178
0.55535
0.55566
0.556123
0.55648
0.556864
0.557196
0.55729
0.638558
0.82631
1.00504
1.07954
1.11917
1.12699
1.13425
1.13536
1.13723
1.13863
1.13869
1.13938
1.13932
1.13892
1.13894
1.14005
1.14126
1.14116
1.13979
1.13882
1.13852
1.13883
1.1395
1.14004
1.14078
1.14153
1.14159
1.14174
1.14126
1.13975
1.13754
1.13477
1.13122
1.12827
1.12612
1.12429
1.1226
1.12172
1.12163
1.12205
1.12381
1.12748
1.13203
1.13263
1.13096
1.12707
1.11944
1.10739
1.09238
1.07171
1.05671
1.04608
1.03718
1.02638
1.02106
1.02136
1.01131
0.997131
0.988569
0.986747
0.987076
0.988485
0.991108
0.994361
0.997433
0.999382
0.999966
1.00001
1.00001
1
0.555164
0.5553
0.555554
0.555904
0.556332
0.556703
0.557006
0.55727
0.557395
0.557476
0.557531
0.557577
0.642033
0.855968
1.009
1.09388
1.12623
1.12858
1.13474
1.13627
1.13539
1.13645
1.13584
1.13476
1.13517
1.13648
1.13729
1.13658
1.13547
1.1355
1.13624
1.13732
1.13782
1.13747
1.13724
1.13759
1.13819
1.13875
1.13843
1.13708
1.13503
1.13231
1.12921
1.12632
1.12415
1.12246
1.12111
1.12073
1.1212
1.12331
1.12674
1.13105
1.13423
1.13427
1.13089
1.12445
1.11384
1.09776
1.0749
1.05149
1.03907
1.03403
1.03196
1.0277
1.02607
1.02439
1.01189
0.996828
0.98793
0.986398
0.986764
0.988231
0.990902
0.994192
0.997327
0.999344
0.999959
1.00001
1.00001
1
0.555466
0.555792
0.556172
0.556559
0.556905
0.557154
0.557328
0.557426
0.557494
0.557552
0.557611
0.557665
0.557683
0.561669
0.659016
0.868173
1.03531
1.09971
1.12289
1.12751
1.12914
1.13172
1.13088
1.13018
1.13067
1.13166
1.13141
1.12998
1.1301
1.1312
1.13245
1.13343
1.13327
1.13248
1.13211
1.13254
1.13337
1.13408
1.13394
1.13283
1.13105
1.12851
1.12551
1.12275
1.12098
1.11992
1.11943
1.11977
1.12138
1.12524
1.12927
1.13346
1.13431
1.13235
1.12563
1.11411
1.09933
1.07989
1.05093
1.02162
1.0138
1.01518
1.02068
1.02514
1.0287
1.02537
1.01162
0.996185
0.987335
0.986061
0.98646
0.987987
0.990694
0.994016
0.99722
0.999307
0.999952
1.00001
1.00001
1
0.556071
0.556457
0.55679
0.557073
0.557274
0.557397
0.557459
0.5575
0.557553
0.557612
0.557662
0.557693
0.557701
0.557717
0.557718
0.567689
0.703559
0.901399
1.04596
1.10563
1.1164
1.12562
1.12677
1.12669
1.12752
1.12734
1.12562
1.12464
1.1256
1.12689
1.12764
1.12803
1.12791
1.12753
1.12756
1.12819
1.12905
1.12945
1.12946
1.12859
1.12708
1.12491
1.12242
1.11972
1.11832
1.11794
1.11832
1.11976
1.12297
1.12676
1.12958
1.13237
1.13111
1.12528
1.11509
1.09837
1.07729
1.05315
1.02444
0.997333
0.993563
0.99882
1.0084
1.01907
1.02779
1.02381
1.01046
0.995268
0.986733
0.985699
0.986154
0.987752
0.990487
0.993837
0.997111
0.999271
0.999946
1.00001
1.00001
1
0.556757
0.557039
0.557225
0.557354
0.557439
0.557489
0.55753
0.557577
0.557617
0.55766
0.557685
0.557702
0.557708
0.557712
0.557743
0.557801
0.557855
0.580125
0.732895
0.935821
1.05221
1.11256
1.11824
1.12383
1.12662
1.12492
1.12198
1.122
1.12329
1.12406
1.12283
1.12313
1.12362
1.12427
1.12512
1.1261
1.12643
1.12632
1.12626
1.12541
1.12377
1.12156
1.11915
1.11664
1.11635
1.11688
1.11805
1.1204
1.12437
1.1281
1.13046
1.13082
1.12698
1.11537
1.09746
1.07572
1.05289
1.02997
1.00707
0.985618
0.980649
0.984915
0.993314
1.0078
1.02069
1.01823
1.00825
0.993968
0.986045
0.985309
0.985839
0.987522
0.990283
0.993657
0.997004
0.999237
0.999941
1.00001
1.00001
1
0.55722
0.557333
0.557396
0.557444
0.557495
0.557556
0.557604
0.55764
0.557671
0.557687
0.557699
0.557706
0.557719
0.557765
0.557842
0.557925
0.558005
0.558068
0.558114
0.597641
0.782537
0.982093
1.06654
1.12024
1.1203
1.12147
1.12254
1.12286
1.12354
1.1221
1.11924
1.11931
1.12036
1.12271
1.12498
1.12563
1.12526
1.12478
1.12469
1.12372
1.12161
1.11928
1.11697
1.11512
1.11543
1.1166
1.11851
1.12152
1.12503
1.1274
1.12805
1.12615
1.11856
1.1029
1.07974
1.05432
1.03129
1.013
0.99603
0.979645
0.973536
0.975229
0.982541
0.997909
1.01294
1.01188
1.00416
0.991797
0.985288
0.984893
0.985518
0.9873
0.99008
0.993475
0.996898
0.999206
0.999936
1.00001
1.00001
1
0.55736
0.557404
0.557458
0.557535
0.557591
0.557629
0.557663
0.557682
0.557694
0.557697
0.557698
0.55772
0.557784
0.557867
0.557947
0.558019
0.558089
0.558154
0.558212
0.558265
0.558315
0.632241
0.849317
1.04432
1.08688
1.11409
1.12626
1.12513
1.12482
1.12145
1.1188
1.11945
1.12136
1.12457
1.12609
1.12578
1.12504
1.12461
1.12458
1.12348
1.12091
1.11846
1.11625
1.11502
1.11558
1.11722
1.11973
1.1223
1.12439
1.12503
1.12375
1.11909
1.10767
1.08769
1.06232
1.03715
1.01621
1.00179
0.988797
0.977301
0.97067
0.969917
0.973538
0.985261
0.998902
1.00092
0.996856
0.988995
0.984493
0.984406
0.985197
0.987092
0.989877
0.993292
0.996796
0.999177
0.999931
1.00001
1
1
0.557472
0.557539
0.557585
0.557624
0.557658
0.557675
0.557686
0.557692
0.55769
0.5577
0.557747
0.557822
0.5579
0.557968
0.558036
0.558104
0.558166
0.558225
0.558285
0.558348
0.558423
0.558476
0.562305
0.705689
0.924593
1.07732
1.12728
1.12571
1.12591
1.1219
1.12241
1.12395
1.12536
1.12681
1.12671
1.12602
1.12534
1.12565
1.12533
1.12361
1.12008
1.11737
1.11527
1.11486
1.11594
1.11805
1.12027
1.12229
1.12323
1.12199
1.1181
1.11015
1.09521
1.0728
1.04751
1.02452
1.00794
0.99684
0.985952
0.977024
0.971002
0.968017
0.968842
0.974908
0.986893
0.99198
0.990387
0.986002
0.98361
0.983851
0.984911
0.986894
0.989663
0.993107
0.9967
0.999153
0.999928
1
1
1
0.557567
0.557608
0.557649
0.557676
0.557686
0.557691
0.557688
0.557692
0.557722
0.557785
0.557856
0.557928
0.557994
0.558057
0.55812
0.558179
0.558241
0.558304
0.558361
0.558421
0.558479
0.558524
0.558573
0.558626
0.596209
0.790224
1.00032
1.0854
1.12298
1.12269
1.12886
1.12932
1.12761
1.12735
1.12615
1.12479
1.12591
1.12737
1.12669
1.12349
1.11988
1.11798
1.11682
1.11731
1.11873
1.12036
1.12154
1.12254
1.12173
1.11767
1.11034
1.09939
1.08135
1.05773
1.0343
1.01556
1.00361
0.994065
0.984283
0.976553
0.971199
0.967927
0.967582
0.969931
0.97634
0.982853
0.984413
0.983088
0.982665
0.983292
0.984635
0.986678
0.98943
0.992921
0.996614
0.999134
0.999925
1
1
1
0.557635
0.557657
0.557672
0.557685
0.55769
0.557694
0.557712
0.557759
0.557824
0.557891
0.557955
0.55802
0.558082
0.55814
0.558197
0.558259
0.558325
0.558379
0.558427
0.558477
0.558519
0.558551
0.558588
0.558641
0.558711
0.558731
0.663746
0.901709
1.0727
1.1164
1.1331
1.13114
1.12811
1.12505
1.12191
1.12385
1.12768
1.12943
1.12721
1.12332
1.12076
1.12037
1.12062
1.12188
1.12318
1.12313
1.12325
1.12266
1.11905
1.1115
1.10148
1.08703
1.06661
1.04412
1.0235
1.0082
0.998759
0.990458
0.981952
0.975331
0.970697
0.967556
0.966741
0.96765
0.971071
0.976937
0.980433
0.980977
0.981692
0.982792
0.98433
0.986403
0.989167
0.992741
0.996546
0.999119
0.999923
1
1
1
0.557662
0.557678
0.557685
0.557688
0.557706
0.557747
0.557803
0.557863
0.557927
0.557988
0.558049
0.558109
0.558165
0.558219
0.55828
0.558347
0.558403
0.558441
0.55848
0.558519
0.558552
0.558586
0.558631
0.558685
0.558708
0.558714
0.558712
0.582552
0.769883
0.981397
1.11604
1.11715
1.12161
1.11773
1.11911
1.12458
1.13131
1.13054
1.12689
1.12453
1.12397
1.12415
1.12533
1.12702
1.12687
1.12561
1.12415
1.12128
1.11495
1.10527
1.09181
1.07373
1.05194
1.03086
1.01388
1.00216
0.994388
0.987003
0.97958
0.973752
0.969764
0.966989
0.965919
0.966392
0.969128
0.974142
0.977974
0.9796
0.980927
0.982276
0.983929
0.986047
0.988882
0.992567
0.996484
0.999112
0.999923
1
1
1
0.557683
0.557688
0.557704
0.557742
0.557798
0.557855
0.55791
0.557966
0.558023
0.558082
0.55814
0.558196
0.558249
0.558305
0.558368
0.558428
0.558466
0.558493
0.558522
0.558556
0.558588
0.558627
0.558677
0.558731
0.558743
0.558726
0.558711
0.558699
0.558631
0.663573
0.902894
1.04911
1.11574
1.11299
1.1218
1.13057
1.13345
1.13044
1.12662
1.1273
1.12833
1.12837
1.12967
1.13038
1.12872
1.12625
1.12305
1.11827
1.10987
1.09709
1.0804
1.06006
1.03905
1.02081
1.00717
0.998281
0.991516
0.98456
0.977657
0.972318
0.968816
0.966516
0.965824
0.966309
0.968667
0.973097
0.976741
0.978745
0.980235
0.981693
0.983432
0.985631
0.988582
0.992414
0.996426
0.999099
0.999921
1
1
1
0.557709
0.557739
0.557791
0.557848
0.557901
0.557955
0.558012
0.558067
0.55812
0.558172
0.558227
0.558283
0.558337
0.558392
0.558446
0.558493
0.558518
0.558539
0.558565
0.558598
0.55864
0.558685
0.558735
0.55878
0.558781
0.558759
0.558728
0.558688
0.558665
0.558588
0.575277
0.792774
1.0284
1.10151
1.13154
1.13588
1.13303
1.12943
1.12966
1.13138
1.13208
1.13229
1.13242
1.13161
1.12897
1.12521
1.12056
1.11249
1.10086
1.08591
1.06697
1.04607
1.02764
1.01239
1.00203
0.995305
0.989329
0.982579
0.976029
0.971146
0.968062
0.966197
0.965864
0.96639
0.968577
0.972662
0.976087
0.978215
0.979689
0.981144
0.982911
0.985197
0.988278
0.992251
0.996387
0.99911
0.999924
1
1
1
0.557789
0.557835
0.557888
0.557946
0.558004
0.558061
0.558115
0.558164
0.55821
0.558259
0.558314
0.558371
0.558423
0.558467
0.558509
0.558543
0.558561
0.558586
0.558617
0.558668
0.558732
0.55879
0.558841
0.558873
0.55888
0.558861
0.558828
0.558784
0.558712
0.55867
0.558609
0.558514
0.679012
0.936337
1.09467
1.12655
1.12562
1.13255
1.13487
1.13654
1.13585
1.13479
1.13337
1.13094
1.12693
1.12205
1.11405
1.1016
1.08722
1.07144
1.05381
1.03585
1.01902
1.00529
0.997446
0.992717
0.987221
0.980545
0.974253
0.969792
0.967251
0.965891
0.96568
0.966236
0.968642
0.972395
0.975333
0.977369
0.978944
0.980546
0.982403
0.984774
0.987993
0.992106
0.996328
0.999111
0.999925
1
1
1
0.557893
0.557944
0.557998
0.558055
0.558111
0.558165
0.558211
0.558255
0.5583
0.558349
0.5584
0.55845
0.558493
0.558526
0.558558
0.558584
0.558604
0.558638
0.558693
0.558767
0.558848
0.558929
0.558997
0.559032
0.559059
0.559064
0.55907
0.559064
0.559027
0.559003
0.558941
0.558882
0.558866
0.605486
0.821637
1.03104
1.1112
1.13999
1.14074
1.14053
1.13794
1.13636
1.13347
1.12856
1.12219
1.11487
1.10248
1.08703
1.07314
1.05704
1.04043
1.02557
1.01129
1.00102
0.995662
0.99127
0.985136
0.978101
0.972045
0.968199
0.966423
0.9657
0.96553
0.966151
0.968643
0.972064
0.97465
0.976489
0.978112
0.979858
0.981858
0.984356
0.987695
0.991954
0.996339
0.999128
0.999928
1
1
1
0.55801
0.55806
0.558111
0.558161
0.558212
0.558262
0.558307
0.558349
0.558392
0.558434
0.558473
0.558512
0.558546
0.558575
0.558603
0.558628
0.558662
0.558711
0.558775
0.558862
0.558957
0.559054
0.55914
0.559192
0.559233
0.55928
0.559318
0.559367
0.559405
0.559385
0.559401
0.559349
0.559312
0.559185
0.55842
0.732559
1.01746
1.14118
1.14298
1.14275
1.13716
1.13569
1.13131
1.12384
1.1156
1.10332
1.08631
1.07067
1.05702
1.04337
1.02924
1.01682
1.00606
0.999652
0.995358
0.98976
0.982707
0.975345
0.969824
0.96684
0.965716
0.965436
0.965361
0.965968
0.968351
0.971428
0.973984
0.975887
0.977534
0.97929
0.981328
0.98393
0.987421
0.991803
0.9963
0.999142
0.999931
1
1
1
0.558125
0.558169
0.558215
0.55826
0.558306
0.558354
0.558398
0.558436
0.558472
0.558502
0.558531
0.558562
0.558593
0.558624
0.558655
0.558689
0.558735
0.558787
0.558856
0.558949
0.559048
0.559147
0.559236
0.559304
0.55935
0.559422
0.559473
0.559532
0.559598
0.559578
0.55958
0.559522
0.559389
0.559097
0.558402
0.5558
0.676227
0.97286
1.091
1.13598
1.13274
1.13461
1.12688
1.11577
1.1044
1.08881
1.07046
1.05595
1.04305
1.03119
1.02109
1.01187
1.0042
0.998751
0.993613
0.987421
0.979894
0.972715
0.968055
0.965943
0.965137
0.964929
0.964965
0.965617
0.967732
0.970566
0.973023
0.974913
0.976642
0.978547
0.980763
0.983504
0.987116
0.9917
0.996334
0.999166
0.999935
1
1
1
0.558234
0.558273
0.558312
0.558352
0.558393
0.558434
0.558472
0.558506
0.558534
0.558559
0.558585
0.558614
0.558646
0.55868
0.558712
0.558746
0.558787
0.558839
0.558913
0.559008
0.559106
0.559198
0.559282
0.559353
0.559404
0.559479
0.559531
0.559573
0.55963
0.559609
0.559589
0.559523
0.559181
0.558179
0.556277
0.55381
0.552113
0.61164
0.908375
1.09305
1.11868
1.12838
1.11593
1.10437
1.08976
1.07305
1.05803
1.04599
1.03304
1.02102
1.01485
1.00865
1.00223
0.996699
0.990689
0.98386
0.976732
0.970472
0.966874
0.965356
0.964525
0.964136
0.964246
0.965063
0.966924
0.969581
0.972139
0.974122
0.975875
0.977789
0.980087
0.983017
0.986828
0.991548
0.996334
0.999194
0.99994
1
1
1
0.558332
0.558363
0.558395
0.558429
0.558464
0.558498
0.558531
0.558562
0.558588
0.558609
0.558634
0.558667
0.558701
0.55873
0.558754
0.558781
0.558811
0.558854
0.558922
0.559012
0.559109
0.559199
0.559279
0.55935
0.559401
0.559476
0.559532
0.559565
0.559616
0.559597
0.559532
0.559105
0.557795
0.556075
0.553854
0.552118
0.551792
0.551816
0.579289
0.813012
1.03502
1.10369
1.09398
1.09352
1.0781
1.06009
1.04968
1.03873
1.02415
1.01406
1.01131
1.00561
0.998681
0.992152
0.985936
0.979564
0.97365
0.968973
0.96629
0.964771
0.963648
0.963027
0.963159
0.964162
0.966072
0.968474
0.970921
0.973156
0.97527
0.977338
0.979618
0.982551
0.986522
0.991529
0.996388
0.999228
0.999944
1
1
1
0.558412
0.558439
0.558466
0.558494
0.558525
0.558555
0.558585
0.558616
0.558641
0.558663
0.55869
0.558723
0.558748
0.558767
0.558787
0.558812
0.558835
0.558864
0.558922
0.558975
0.559025
0.559083
0.559136
0.559192
0.559199
0.559251
0.559324
0.559299
0.559311
0.559174
0.558571
0.557462
0.555889
0.553825
0.552101
0.551729
0.551785
0.552649
0.554454
0.556368
0.742046
0.95151
1.04861
1.06667
1.05812
1.04961
1.04496
1.03384
1.01987
1.01272
1.00923
1.00252
0.995086
0.987389
0.980222
0.974772
0.971071
0.967994
0.965442
0.963606
0.962288
0.961658
0.961799
0.962931
0.965121
0.967503
0.96967
0.971832
0.974088
0.976432
0.979019
0.982168
0.986237
0.991397
0.996431
0.999268
0.99995
1
1
1
0.558484
0.55851
0.558536
0.55856
0.558584
0.55861
0.558638
0.558669
0.558697
0.558719
0.558746
0.55877
0.558781
0.558799
0.558823
0.55885
0.558871
0.558892
0.558937
0.558962
0.558961
0.558966
0.558944
0.558931
0.558863
0.5588
0.558753
0.558603
0.55836
0.557845
0.556909
0.55563
0.553897
0.55216
0.551694
0.551815
0.552592
0.554565
0.557689
0.562338
0.56563
0.634494
0.856809
0.989921
1.02541
1.0384
1.04084
1.03136
1.0194
1.01186
1.0045
0.996455
0.989766
0.981853
0.975088
0.971365
0.969911
0.96715
0.963907
0.961623
0.960394
0.960271
0.960482
0.96156
0.963865
0.966606
0.968969
0.970945
0.973028
0.975433
0.978214
0.981595
0.985987
0.99145
0.996521
0.999312
0.999955
1
1
1
0.558555
0.558579
0.558602
0.558621
0.55864
0.558666
0.558697
0.558728
0.558752
0.558774
0.558803
0.558814
0.558817
0.558833
0.558865
0.558898
0.558922
0.558943
0.558983
0.558982
0.55897
0.558952
0.558877
0.558792
0.558668
0.55847
0.558263
0.557929
0.557419
0.556691
0.555544
0.553832
0.55236
0.551745
0.552073
0.553111
0.554692
0.5567
0.560188
0.565323
0.571165
0.576045
0.592085
0.71888
0.907539
1.00221
1.02433
1.01846
1.01758
1.01234
1.00067
0.987655
0.983428
0.976729
0.973317
0.972346
0.969699
0.965506
0.961642
0.959107
0.958543
0.958971
0.959553
0.960487
0.962463
0.965164
0.967781
0.97018
0.972475
0.974839
0.977627
0.981119
0.985678
0.991382
0.996613
0.999362
0.999961
1
1
1
0.55862
0.558641
0.55866
0.558678
0.558694
0.558719
0.55875
0.558781
0.558805
0.558832
0.558861
0.55886
0.558863
0.558882
0.55893
0.558996
0.559047
0.559068
0.559083
0.559074
0.559035
0.558975
0.558873
0.558742
0.558586
0.558342
0.558005
0.557534
0.556811
0.555593
0.553798
0.552538
0.552
0.552559
0.55331
0.554731
0.557093
0.560652
0.564855
0.569835
0.575897
0.581826
0.587398
0.591886
0.639005
0.789228
0.902017
0.977879
1.00838
1.00374
0.989321
0.979564
0.981248
0.975686
0.974701
0.972545
0.96841
0.962904
0.957828
0.95626
0.956931
0.957725
0.958528
0.95968
0.961294
0.963547
0.966141
0.968781
0.971402
0.974088
0.977002
0.980639
0.985566
0.991462
0.996735
0.999416
0.999967
1
1
1
0.558671
0.558691
0.558711
0.558728
0.558745
0.558769
0.5588
0.558833
0.558863
0.558895
0.558923
0.558932
0.558949
0.558984
0.559058
0.559159
0.559255
0.559271
0.559277
0.559273
0.559218
0.559139
0.559035
0.558871
0.558713
0.558429
0.55803
0.557225
0.555875
0.553966
0.552467
0.55245
0.552848
0.553886
0.554914
0.556184
0.559385
0.564276
0.56985
0.575165
0.58061
0.586622
0.592672
0.598505
0.604196
0.608436
0.66561
0.809964
0.906197
0.961951
0.970497
0.980185
0.983866
0.977411
0.975525
0.971471
0.966011
0.958631
0.953904
0.954003
0.955589
0.95629
0.956949
0.958249
0.960171
0.962314
0.964713
0.967315
0.970035
0.972964
0.976226
0.980142
0.985266
0.991497
0.996878
0.999474
0.999972
1
1
1
0.558721
0.55874
0.55876
0.558779
0.558801
0.558827
0.558858
0.558891
0.558929
0.558969
0.559005
0.559034
0.559073
0.559122
0.559192
0.559293
0.559393
0.55942
0.559417
0.559412
0.559376
0.559297
0.5592
0.559038
0.558805
0.558356
0.557485
0.555753
0.554092
0.552913
0.552869
0.55349
0.553877
0.554443
0.556565
0.559627
0.563015
0.567896
0.574044
0.580446
0.586353
0.591884
0.597539
0.603206
0.608726
0.614818
0.620664
0.628947
0.69407
0.803609
0.91089
0.971775
0.974377
0.972249
0.971507
0.968399
0.962271
0.954802
0.95189
0.954869
0.954521
0.954342
0.954673
0.955969
0.958266
0.960943
0.963573
0.966215
0.969034
0.972016
0.975401
0.979674
0.98528
0.991645
0.997044
0.999533
0.999978
1
1
1
0.55877
0.558793
0.558816
0.558839
0.558867
0.558899
0.558932
0.558965
0.559002
0.559045
0.55908
0.559113
0.559165
0.559218
0.559267
0.559349
0.559434
0.559455
0.559447
0.559435
0.559398
0.559314
0.559212
0.559011
0.558387
0.557042
0.555257
0.553946
0.553045
0.553294
0.553405
0.553847
0.554593
0.555418
0.558316
0.56379
0.569638
0.574885
0.580084
0.585766
0.591484
0.596619
0.602052
0.607717
0.613331
0.618773
0.625133
0.631705
0.637972
0.647373
0.71183
0.823113
0.895754
0.948465
0.9641
0.95984
0.958013
0.952151
0.954479
0.954271
0.952556
0.951786
0.952377
0.953717
0.95596
0.958972
0.96207
0.965005
0.967945
0.971149
0.974745
0.979131
0.985021
0.991783
0.997239
0.999595
0.999982
1
1
1
0.558832
0.55886
0.558889
0.558921
0.558954
0.558989
0.559013
0.559031
0.559052
0.559084
0.559111
0.559142
0.559201
0.559256
0.559288
0.559358
0.559436
0.559451
0.559437
0.559413
0.559349
0.559185
0.558699
0.557605
0.55609
0.554573
0.55334
0.553046
0.552843
0.553209
0.553596
0.553656
0.556025
0.559991
0.563762
0.568453
0.574795
0.58073
0.585967
0.590567
0.595489
0.600895
0.60596
0.611703
0.618135
0.623897
0.629757
0.636248
0.643019
0.6497
0.656117
0.670446
0.734627
0.8392
0.910406
0.939003
0.957227
0.95415
0.955064
0.952209
0.949005
0.949499
0.950758
0.95215
0.954143
0.956984
0.960138
0.963345
0.96659
0.969978
0.973853
0.97879
0.985109
0.99202
0.997452
0.999657
0.999987
1
1
1
0.558919
0.558953
0.558985
0.559013
0.559037
0.559059
0.559058
0.559048
0.55905
0.559069
0.559097
0.559124
0.559184
0.559255
0.559246
0.55921
0.559184
0.559127
0.558959
0.558695
0.558175
0.557282
0.556223
0.554833
0.553632
0.552839
0.552263
0.552461
0.552446
0.552586
0.553956
0.555943
0.558988
0.564627
0.570767
0.575834
0.580124
0.585153
0.590128
0.595296
0.600404
0.606063
0.611704
0.616927
0.622301
0.628775
0.634959
0.640984
0.647781
0.6547
0.661854
0.668844
0.675719
0.697145
0.772228
0.880942
0.943109
0.951339
0.952859
0.947456
0.945446
0.947667
0.949166
0.950925
0.953115
0.955443
0.958284
0.961546
0.965119
0.968912
0.973035
0.978204
0.985024
0.992298
0.997691
0.999717
0.99999
1
1
1
0.559011
0.559033
0.559054
0.559063
0.559069
0.559068
0.559059
0.559031
0.559002
0.558989
0.558988
0.558982
0.558969
0.558943
0.558896
0.558739
0.558517
0.558283
0.557828
0.557093
0.556213
0.555048
0.553954
0.552858
0.552094
0.552093
0.551947
0.552057
0.552645
0.553558
0.556419
0.56208
0.566663
0.57078
0.575637
0.580946
0.585553
0.589896
0.594871
0.600194
0.6051
0.61027
0.616039
0.622021
0.627744
0.633659
0.639919
0.646446
0.652982
0.659671
0.66681
0.674095
0.681374
0.689218
0.698054
0.741706
0.832634
0.911887
0.940328
0.938059
0.941763
0.945554
0.946756
0.948312
0.95078
0.953599
0.956567
0.960007
0.963726
0.967656
0.972226
0.978106
0.985189
0.99265
0.997943
0.999773
0.999993
1
1
1
0.559062
0.559061
0.559068
0.559071
0.559067
0.559057
0.559039
0.559004
0.558944
0.558883
0.558831
0.558778
0.558693
0.558546
0.558433
0.55828
0.557922
0.557397
0.556645
0.555594
0.554492
0.553305
0.552328
0.551964
0.551819
0.551982
0.552148
0.552618
0.554925
0.559626
0.563425
0.567385
0.572498
0.576882
0.580703
0.585096
0.590325
0.59509
0.600072
0.605201
0.610831
0.616162
0.621514
0.626973
0.632988
0.638987
0.645253
0.651637
0.65812
0.665125
0.672112
0.679348
0.686879
0.694172
0.70186
0.710149
0.732114
0.813481
0.892002
0.928896
0.944866
0.94278
0.942244
0.943292
0.94626
0.950435
0.954403
0.958133
0.962155
0.96649
0.971327
0.977593
0.985325
0.993079
0.998214
0.999825
0.999995
1
1
1
0.559039
0.559058
0.559077
0.559075
0.559059
0.559024
0.558997
0.558957
0.558879
0.558817
0.558789
0.558738
0.558648
0.558423
0.558137
0.557824
0.557198
0.556212
0.555062
0.553821
0.55284
0.552168
0.551897
0.55193
0.552046
0.552524
0.554569
0.558311
0.561247
0.565088
0.569531
0.572778
0.576676
0.581398
0.586253
0.590508
0.595406
0.600819
0.605612
0.610554
0.61592
0.621268
0.626916
0.632716
0.638204
0.643905
0.65004
0.656576
0.663005
0.669708
0.676696
0.684165
0.691908
0.700004
0.708176
0.715511
0.724267
0.739915
0.799325
0.890517
0.936212
0.935789
0.936735
0.938753
0.942412
0.946832
0.951459
0.956001
0.960354
0.965061
0.970675
0.977626
0.985663
0.993578
0.998489
0.99987
0.999997
1
1
1
0.559079
0.559099
0.55911
0.559098
0.559063
0.559006
0.558984
0.558981
0.558967
0.558943
0.558933
0.558884
0.558753
0.558436
0.557664
0.556492
0.555259
0.55409
0.553253
0.552719
0.55229
0.552271
0.552508
0.553038
0.554642
0.557384
0.559664
0.563189
0.56698
0.569381
0.573557
0.578049
0.581939
0.586428
0.591744
0.596863
0.60122
0.60611
0.611336
0.616309
0.621185
0.626503
0.631299
0.636859
0.643028
0.649072
0.655092
0.661562
0.668564
0.675354
0.682318
0.689528
0.696715
0.704669
0.713234
0.722068
0.729807
0.739221
0.752273
0.802022
0.876939
0.919247
0.934305
0.939072
0.941706
0.944704
0.948473
0.953437
0.95867
0.963764
0.969651
0.977331
0.98608
0.994165
0.998765
0.999909
0.999998
1
1
1
0.559074
0.559049
0.559038
0.55903
0.558987
0.558986
0.558993
0.558992
0.558995
0.55898
0.558877
0.558497
0.557666
0.556568
0.555335
0.554107
0.553421
0.553044
0.552756
0.553008
0.553392
0.553837
0.555146
0.556898
0.558543
0.561553
0.564443
0.566574
0.570861
0.574865
0.578441
0.583568
0.588788
0.593331
0.597455
0.602412
0.607239
0.611436
0.616147
0.621223
0.626109
0.631562
0.637399
0.642581
0.64818
0.654385
0.660918
0.667117
0.673842
0.680985
0.688237
0.695509
0.703157
0.710661
0.718411
0.727402
0.736218
0.744401
0.7535
0.767052
0.810883
0.883605
0.92468
0.934808
0.938015
0.941768
0.946498
0.951149
0.956408
0.962373
0.969331
0.977494
0.986675
0.994815
0.99903
0.99994
0.999999
1
1
1
0.559073
0.559045
0.559025
0.559018
0.558987
0.558909
0.558789
0.558599
0.558267
0.557639
0.556698
0.555688
0.554681
0.55397
0.553531
0.553062
0.552949
0.55319
0.553439
0.553861
0.555069
0.556161
0.557407
0.559892
0.561957
0.564168
0.568579
0.572253
0.575805
0.581557
0.586294
0.590285
0.594674
0.599277
0.60351
0.607334
0.611977
0.616836
0.621273
0.626226
0.631591
0.636351
0.642127
0.648424
0.654319
0.660394
0.666681
0.673388
0.679865
0.686596
0.693699
0.701097
0.708975
0.716951
0.724906
0.733007
0.742123
0.751351
0.759801
0.769698
0.783744
0.824318
0.883586
0.918042
0.930045
0.936206
0.942219
0.948493
0.95444
0.960702
0.968403
0.977613
0.987456
0.995539
0.999275
0.999963
1
1
1
1
0.558755
0.558619
0.558478
0.558308
0.558055
0.557644
0.557043
0.556321
0.55552
0.55471
0.553933
0.553375
0.553033
0.552874
0.552961
0.55308
0.553064
0.553393
0.554036
0.554448
0.555876
0.558028
0.559667
0.562372
0.567086
0.57084
0.574579
0.580212
0.584624
0.588042
0.592449
0.596454
0.600053
0.603944
0.608497
0.612894
0.616996
0.621854
0.62707
0.631909
0.637348
0.643107
0.648226
0.653719
0.659715
0.665835
0.672053
0.678634
0.685459
0.692302
0.699423
0.706788
0.714215
0.722294
0.730854
0.739284
0.748052
0.757684
0.766605
0.775049
0.785577
0.801932
0.841481
0.892328
0.920177
0.931059
0.937904
0.944905
0.952051
0.959513
0.96833
0.978124
0.988438
0.996301
0.999491
0.999979
1
1
1
1
0.558206
0.558022
0.557758
0.557342
0.556779
0.556087
0.555293
0.5545
0.553801
0.553238
0.552784
0.552593
0.552667
0.552683
0.552696
0.553098
0.553253
0.553481
0.555028
0.557128
0.558801
0.562188
0.56718
0.571025
0.574684
0.579531
0.583248
0.5863
0.590473
0.593857
0.597156
0.60126
0.605448
0.609426
0.613574
0.618432
0.623394
0.627979
0.632946
0.63825
0.643134
0.648563
0.654357
0.660078
0.665856
0.671764
0.678105
0.684459
0.691026
0.698063
0.705207
0.712689
0.720297
0.728198
0.736587
0.745263
0.754201
0.76303
0.773419
0.782685
0.791658
0.803478
0.822189
0.858821
0.899627
0.923434
0.934679
0.94199
0.948993
0.957548
0.96783
0.978882
0.989658
0.99708
0.999667
0.999989
1
1
1
1
0.557499
0.556875
0.55611
0.555238
0.554393
0.553764
0.553302
0.55294
0.55267
0.552546
0.552523
0.552523
0.552631
0.552862
0.553107
0.553982
0.556085
0.558329
0.560532
0.564091
0.568392
0.571454
0.574627
0.578506
0.581674
0.584666
0.588606
0.591622
0.594732
0.59917
0.60297
0.606685
0.611163
0.615827
0.620281
0.624606
0.62927
0.634125
0.638774
0.64374
0.649109
0.654177
0.659531
0.665161
0.671198
0.67754
0.683844
0.690395
0.697373
0.70431
0.711379
0.718786
0.726684
0.734603
0.742607
0.751508
0.760392
0.770145
0.779329
0.789178
0.798366
0.808675
0.823199
0.843985
0.875814
0.906662
0.926113
0.937724
0.947273
0.957544
0.968287
0.980082
0.991069
0.997827
0.999802
0.999995
1
1
1
1
0.55472
0.554091
0.553597
0.553307
0.553039
0.552949
0.552895
0.552885
0.552935
0.552952
0.553177
0.553634
0.554381
0.555877
0.55797
0.56017
0.562533
0.565459
0.568567
0.571093
0.574212
0.577572
0.580222
0.583238
0.586997
0.589936
0.593163
0.597809
0.601488
0.605037
0.60955
0.613837
0.617678
0.621886
0.626257
0.63071
0.635041
0.639657
0.64472
0.649549
0.654618
0.660186
0.665934
0.671599
0.677439
0.683582
0.689934
0.696551
0.70321
0.710195
0.717792
0.725227
0.732967
0.741035
0.749483
0.757943
0.76698
0.776115
0.785949
0.796182
0.80608
0.815588
0.827127
0.844297
0.866126
0.891827
0.914323
0.930785
0.944558
0.956988
0.96915
0.981751
0.992631
0.998498
0.999894
0.999998
1
1
1
1
0.553067
0.553022
0.553035
0.553191
0.553515
0.553691
0.553959
0.554255
0.554754
0.555564
0.556512
0.557913
0.559473
0.561266
0.563478
0.565795
0.568242
0.570696
0.573772
0.576763
0.579211
0.582541
0.586373
0.589557
0.592971
0.597292
0.600849
0.604101
0.608383
0.612157
0.615568
0.619595
0.6237
0.627588
0.631766
0.636095
0.640828
0.645467
0.65021
0.655579
0.66092
0.66624
0.671659
0.677847
0.683849
0.69
0.696502
0.703153