/*--------------------------------*- C++ -*----------------------------------*\
  =========                 |
  \\      /  F ield         | OpenFOAM: The Open Source CFD Toolbox
   \\    /   O peration     | Website:  https://openfoam.org
    \\  /    A nd           | Version:  7
     \\/     M anipulation  |
\*---------------------------------------------------------------------------*/
FoamFile
{
    version     2.0;
    format      ascii;
    class       volVectorField;
    location    "9";
    object      U;
}
// * * * * * * * * * * * * * * * * * * * * * * * * * * * * * * * * * * * * * //

dimensions      [0 1 -1 0 0 0 0];

internalField   nonuniform List<vector> 
90000
(
(0.884628 -0.502727 0)
(1.00264 -0.317276 0)
(1.071 -0.162117 0)
(1.13367 -0.0190694 0)
(1.22295 0.0914678 0)
(1.30102 0.190699 0)
(1.38195 0.267023 0)
(1.4765 0.342825 0)
(1.58154 0.394611 0)
(1.68201 0.434535 0)
(1.77775 0.465488 0)
(1.87249 0.490353 0)
(1.96219 0.50433 0)
(2.04662 0.517984 0)
(2.12488 0.52409 0)
(2.19455 0.532796 0)
(2.25898 0.533706 0)
(2.31686 0.533707 0)
(2.36924 0.53137 0)
(2.41846 0.532705 0)
(2.46365 0.525032 0)
(2.50547 0.522617 0)
(2.54269 0.515021 0)
(2.57644 0.512059 0)
(2.60822 0.504037 0)
(2.63846 0.501175 0)
(2.66711 0.494779 0)
(2.69354 0.490493 0)
(2.71765 0.485318 0)
(2.74033 0.479618 0)
(2.76178 0.471664 0)
(2.78185 0.465538 0)
(2.7984 0.453971 0)
(2.80997 0.443392 0)
(2.81762 0.435803 0)
(2.8232 0.428551 0)
(2.82698 0.426337 0)
(2.83106 0.426909 0)
(2.83562 0.428422 0)
(2.84009 0.431425 0)
(2.84361 0.433708 0)
(2.8447 0.43853 0)
(2.84536 0.441416 0)
(2.8444 0.445896 0)
(2.84336 0.449779 0)
(2.84147 0.455224 0)
(2.83945 0.460332 0)
(2.83926 0.46616 0)
(2.83839 0.471077 0)
(2.8385 0.475912 0)
(2.8376 0.477401 0)
(2.83965 0.483773 0)
(2.84031 0.485503 0)
(2.83804 0.483379 0)
(2.83634 0.477063 0)
(2.83501 0.469596 0)
(2.83413 0.462141 0)
(2.83314 0.455329 0)
(2.83404 0.448688 0)
(2.83408 0.441432 0)
(2.83435 0.435983 0)
(2.83601 0.433784 0)
(2.83678 0.434276 0)
(2.83866 0.434764 0)
(2.84023 0.435703 0)
(2.84014 0.435554 0)
(2.83997 0.434016 0)
(2.83957 0.429449 0)
(2.83901 0.422024 0)
(2.8379 0.411138 0)
(2.83598 0.398876 0)
(2.83633 0.39504 0)
(2.83705 0.393839 0)
(2.83625 0.39103 0)
(2.83474 0.389544 0)
(2.83252 0.384189 0)
(2.82943 0.371708 0)
(2.82599 0.356949 0)
(2.82152 0.342837 0)
(2.82084 0.336422 0)
(2.81872 0.327978 0)
(2.81764 0.321197 0)
(2.81407 0.309097 0)
(2.81001 0.289173 0)
(2.80917 0.282291 0)
(2.8076 0.267355 0)
(2.80505 0.264935 0)
(2.80225 0.249406 0)
(2.80159 0.241406 0)
(2.79969 0.229519 0)
(2.80018 0.223694 0)
(2.79879 0.217532 0)
(2.79747 0.207548 0)
(2.79517 0.202382 0)
(2.79248 0.190713 0)
(2.79345 0.181991 0)
(2.79651 0.177836 0)
(2.7971 0.171667 0)
(2.79596 0.167848 0)
(2.79297 0.157435 0)
(0.368571 -0.581692 0)
(0.374647 -0.509479 0)
(0.345058 -0.453448 0)
(0.350216 -0.412471 0)
(0.359078 -0.358264 0)
(0.380304 -0.287735 0)
(0.404226 -0.193309 0)
(0.448685 -0.0880323 0)
(0.50973 0.0187994 0)
(0.587284 0.111556 0)
(0.680475 0.182934 0)
(0.782256 0.238093 0)
(0.892524 0.269758 0)
(0.998772 0.306184 0)
(1.1061 0.318008 0)
(1.20787 0.336834 0)
(1.30848 0.340525 0)
(1.40359 0.350775 0)
(1.49571 0.354341 0)
(1.58349 0.36223 0)
(1.66665 0.366306 0)
(1.74589 0.376075 0)
(1.8212 0.381761 0)
(1.89327 0.392651 0)
(1.96275 0.400318 0)
(2.02992 0.410581 0)
(2.09501 0.418449 0)
(2.15777 0.428153 0)
(2.21905 0.436285 0)
(2.27909 0.446371 0)
(2.33759 0.45359 0)
(2.39452 0.462599 0)
(2.44779 0.468844 0)
(2.5022 0.47608 0)
(2.55642 0.480587 0)
(2.60449 0.484623 0)
(2.64412 0.48828 0)
(2.67698 0.494869 0)
(2.70499 0.500747 0)
(2.7288 0.508692 0)
(2.7502 0.514638 0)
(2.76805 0.522308 0)
(2.78347 0.526012 0)
(2.79513 0.531222 0)
(2.80411 0.533067 0)
(2.81019 0.534785 0)
(2.81346 0.533379 0)
(2.81533 0.53238 0)
(2.8148 0.526534 0)
(2.81561 0.520912 0)
(2.81374 0.506225 0)
(2.81324 0.489828 0)
(2.81285 0.474107 0)
(2.81623 0.463651 0)
(2.81864 0.452967 0)
(2.81998 0.443978 0)
(2.82102 0.439398 0)
(2.82144 0.434798 0)
(2.82016 0.433647 0)
(2.82227 0.432442 0)
(2.82368 0.432194 0)
(2.82781 0.432943 0)
(2.8341 0.436155 0)
(2.83567 0.437936 0)
(2.83581 0.436811 0)
(2.83615 0.433408 0)
(2.83579 0.426322 0)
(2.83581 0.415397 0)
(2.83524 0.404054 0)
(2.8359 0.401495 0)
(2.835 0.395108 0)
(2.83594 0.393169 0)
(2.83619 0.39234 0)
(2.83591 0.389978 0)
(2.83461 0.385421 0)
(2.83137 0.374621 0)
(2.82684 0.357473 0)
(2.82601 0.350058 0)
(2.822 0.334484 0)
(2.81975 0.331614 0)
(2.81733 0.32158 0)
(2.81542 0.314261 0)
(2.81051 0.297619 0)
(2.80806 0.281516 0)
(2.80649 0.273549 0)
(2.80564 0.263372 0)
(2.80476 0.258918 0)
(2.80065 0.243458 0)
(2.79913 0.238262 0)
(2.79841 0.226542 0)
(2.79833 0.222404 0)
(2.79771 0.213014 0)
(2.79593 0.204157 0)
(2.79306 0.199316 0)
(2.78977 0.186764 0)
(2.79099 0.179987 0)
(2.79475 0.175028 0)
(2.79667 0.168366 0)
(2.79527 0.165389 0)
(2.79131 0.15538 0)
(0.533951 -0.578899 0)
(0.483028 -0.412316 0)
(0.405953 -0.427848 0)
(0.410493 -0.438422 0)
(0.426972 -0.420436 0)
(0.419174 -0.364777 0)
(0.414579 -0.299788 0)
(0.402088 -0.259497 0)
(0.414857 -0.228978 0)
(0.420274 -0.191185 0)
(0.437405 -0.151457 0)
(0.451579 -0.0995666 0)
(0.471779 -0.0382685 0)
(0.505559 0.0206226 0)
(0.546504 0.0717531 0)
(0.596766 0.11136 0)
(0.652954 0.140333 0)
(0.71249 0.164533 0)
(0.775479 0.179644 0)
(0.839366 0.19361 0)
(0.905719 0.198188 0)
(0.973157 0.20361 0)
(1.0419 0.202586 0)
(1.11034 0.205989 0)
(1.17956 0.206877 0)
(1.24888 0.213309 0)
(1.32045 0.219287 0)
(1.39357 0.230223 0)
(1.46981 0.2432 0)
(1.54744 0.262973 0)
(1.62557 0.286182 0)
(1.70579 0.313461 0)
(1.78783 0.338776 0)
(1.87403 0.363899 0)
(1.96351 0.382365 0)
(2.05348 0.398157 0)
(2.13967 0.407342 0)
(2.21964 0.416632 0)
(2.29322 0.418396 0)
(2.36142 0.418944 0)
(2.42468 0.414826 0)
(2.48328 0.413012 0)
(2.53703 0.407134 0)
(2.5855 0.406722 0)
(2.62885 0.40244 0)
(2.66729 0.400924 0)
(2.70072 0.397192 0)
(2.72914 0.398088 0)
(2.75241 0.395471 0)
(2.77166 0.396242 0)
(2.7863 0.394337 0)
(2.79536 0.392444 0)
(2.79993 0.389661 0)
(2.80366 0.391631 0)
(2.80755 0.395152 0)
(2.8109 0.399712 0)
(2.81348 0.405357 0)
(2.8149 0.41154 0)
(2.81686 0.420492 0)
(2.8169 0.427361 0)
(2.81734 0.432486 0)
(2.81992 0.439407 0)
(2.82371 0.44042 0)
(2.82328 0.437806 0)
(2.82248 0.429437 0)
(2.82271 0.420569 0)
(2.82394 0.411729 0)
(2.82668 0.403592 0)
(2.82736 0.395272 0)
(2.82941 0.391648 0)
(2.83095 0.392022 0)
(2.83181 0.392384 0)
(2.83298 0.390416 0)
(2.83327 0.384735 0)
(2.83165 0.374934 0)
(2.82698 0.354589 0)
(2.82478 0.345316 0)
(2.82162 0.336161 0)
(2.8212 0.328238 0)
(2.81977 0.326835 0)
(2.81707 0.314128 0)
(2.81453 0.30592 0)
(2.80814 0.283698 0)
(2.8075 0.277255 0)
(2.80554 0.266475 0)
(2.80473 0.2606 0)
(2.80086 0.250275 0)
(2.79811 0.237396 0)
(2.79748 0.233426 0)
(2.79728 0.224048 0)
(2.79702 0.220229 0)
(2.79461 0.209201 0)
(2.79315 0.202443 0)
(2.79031 0.19629 0)
(2.78755 0.183708 0)
(2.7886 0.177652 0)
(2.79233 0.172224 0)
(2.79471 0.166167 0)
(2.79358 0.162956 0)
(2.78956 0.152711 0)
(2.27889 -1.63544 0)
(2.19099 -1.46014 0)
(1.32595 -1.29321 0)
(0.746464 -0.832224 0)
(0.661062 -0.572923 0)
(0.576589 -0.324913 0)
(0.501945 -0.252138 0)
(0.478581 -0.277795 0)
(0.506825 -0.284208 0)
(0.522087 -0.254238 0)
(0.508781 -0.202258 0)
(0.508748 -0.160206 0)
(0.508596 -0.134118 0)
(0.525868 -0.118353 0)
(0.538162 -0.0952654 0)
(0.551766 -0.0713567 0)
(0.56288 -0.0466619 0)
(0.575377 -0.0195352 0)
(0.591457 0.00773608 0)
(0.609385 0.0345534 0)
(0.631545 0.0583113 0)
(0.655837 0.0817214 0)
(0.683703 0.102382 0)
(0.713021 0.12162 0)
(0.744594 0.13795 0)
(0.777947 0.153113 0)
(0.814368 0.1666 0)
(0.854341 0.178803 0)
(0.899884 0.185918 0)
(0.949967 0.188267 0)
(1.00381 0.186944 0)
(1.06222 0.188885 0)
(1.12551 0.193168 0)
(1.19554 0.204461 0)
(1.27341 0.21462 0)
(1.35734 0.229717 0)
(1.44685 0.240741 0)
(1.53733 0.257505 0)
(1.62654 0.279998 0)
(1.71718 0.307364 0)
(1.81023 0.329948 0)
(1.90408 0.352363 0)
(1.99788 0.36733 0)
(2.08951 0.384072 0)
(2.17698 0.396339 0)
(2.26106 0.406297 0)
(2.34092 0.411245 0)
(2.41532 0.419368 0)
(2.48378 0.425913 0)
(2.54485 0.438088 0)
(2.59979 0.448396 0)
(2.64698 0.461295 0)
(2.68642 0.468907 0)
(2.71642 0.475155 0)
(2.73914 0.481052 0)
(2.75647 0.484612 0)
(2.76906 0.48765 0)
(2.77763 0.487202 0)
(2.78378 0.484748 0)
(2.78691 0.479173 0)
(2.78819 0.468031 0)
(2.78914 0.453359 0)
(2.78949 0.434797 0)
(2.79801 0.419126 0)
(2.80334 0.405737 0)
(2.80587 0.396559 0)
(2.80799 0.389048 0)
(2.80761 0.387552 0)
(2.81408 0.386359 0)
(2.81921 0.387136 0)
(2.82739 0.391452 0)
(2.82775 0.391519 0)
(2.82698 0.384146 0)
(2.82569 0.371005 0)
(2.82353 0.356977 0)
(2.82177 0.34565 0)
(2.82089 0.339742 0)
(2.81998 0.33027 0)
(2.82025 0.326552 0)
(2.81805 0.319662 0)
(2.81548 0.305128 0)
(2.81094 0.291599 0)
(2.80769 0.274937 0)
(2.80691 0.272616 0)
(2.80556 0.262126 0)
(2.80357 0.256197 0)
(2.80013 0.243296 0)
(2.79789 0.235591 0)
(2.79648 0.229273 0)
(2.7961 0.22245 0)
(2.79575 0.216435 0)
(2.79375 0.206049 0)
(2.79194 0.201602 0)
(2.78772 0.193085 0)
(2.7857 0.180698 0)
(2.78748 0.174373 0)
(2.79089 0.16803 0)
(2.79292 0.16494 0)
(2.79144 0.162698 0)
(2.78704 0.151236 0)
(2.60873 -1.86463 0)
(2.60909 -1.86476 0)
(2.60945 -1.8649 0)
(2.57756 -1.84145 0)
(2.42888 -1.76136 0)
(2.19105 -1.50383 0)
(1.7903 -1.3218 0)
(0.979827 -0.836104 0)
(0.815714 -0.565556 0)
(0.744211 -0.298515 0)
(0.647904 -0.135265 0)
(0.608536 -0.134813 0)
(0.610798 -0.155357 0)
(0.632652 -0.150704 0)
(0.636881 -0.129315 0)
(0.627883 -0.102659 0)
(0.622224 -0.0828606 0)
(0.628626 -0.0690282 0)
(0.640245 -0.0563827 0)
(0.650505 -0.040501 0)
(0.660015 -0.0233863 0)
(0.667837 -0.00648253 0)
(0.676489 0.00849415 0)
(0.685003 0.0215539 0)
(0.69517 0.0321893 0)
(0.706665 0.0413068 0)
(0.718993 0.0499096 0)
(0.730943 0.0602537 0)
(0.742372 0.0746365 0)
(0.753331 0.0944982 0)
(0.771486 0.110563 0)
(0.792935 0.125697 0)
(0.817813 0.138966 0)
(0.845688 0.153215 0)
(0.878533 0.166061 0)
(0.915876 0.179765 0)
(0.960096 0.190972 0)
(1.01239 0.19273 0)
(1.07086 0.185989 0)
(1.13337 0.185486 0)
(1.20224 0.189198 0)
(1.27839 0.197197 0)
(1.36161 0.208334 0)
(1.45234 0.219248 0)
(1.54605 0.232439 0)
(1.63977 0.261231 0)
(1.7382 0.285851 0)
(1.83947 0.310182 0)
(1.94391 0.326184 0)
(2.04657 0.343468 0)
(2.14607 0.357508 0)
(2.24432 0.365681 0)
(2.33916 0.368574 0)
(2.42588 0.368464 0)
(2.50137 0.368922 0)
(2.5654 0.368509 0)
(2.61895 0.367402 0)
(2.66317 0.367384 0)
(2.69908 0.365606 0)
(2.72784 0.364018 0)
(2.74983 0.361374 0)
(2.76547 0.358682 0)
(2.77058 0.35525 0)
(2.77756 0.353204 0)
(2.78509 0.356595 0)
(2.79101 0.361269 0)
(2.79596 0.368857 0)
(2.79906 0.377276 0)
(2.8028 0.38657 0)
(2.80682 0.391205 0)
(2.81221 0.39357 0)
(2.81322 0.382543 0)
(2.81317 0.367848 0)
(2.81354 0.354398 0)
(2.81226 0.341144 0)
(2.81199 0.337084 0)
(2.8131 0.332691 0)
(2.81534 0.325552 0)
(2.81573 0.32223 0)
(2.81206 0.306681 0)
(2.81009 0.293594 0)
(2.80623 0.278917 0)
(2.80489 0.273502 0)
(2.80473 0.268724 0)
(2.80413 0.258937 0)
(2.80136 0.250271 0)
(2.79826 0.234915 0)
(2.7979 0.232599 0)
(2.79621 0.225326 0)
(2.79579 0.219759 0)
(2.79353 0.212405 0)
(2.79218 0.204442 0)
(2.79105 0.200551 0)
(2.78583 0.189702 0)
(2.7832 0.178654 0)
(2.78503 0.170889 0)
(2.7892 0.165511 0)
(2.79148 0.165357 0)
(2.79013 0.163948 0)
(2.78507 0.150546 0)
(2.61589 -1.87232 0)
(2.61714 -1.8733 0)
(2.61882 -1.8741 0)
(2.62005 -1.87493 0)
(2.62155 -1.87499 0)
(2.62288 -1.8759 0)
(2.62446 -1.87588 0)
(2.61594 -1.8704 0)
(2.51126 -1.78226 0)
(2.26771 -1.61337 0)
(1.96676 -1.26904 0)
(1.49911 -0.923704 0)
(1.02633 -0.567238 0)
(0.92378 -0.320078 0)
(0.825332 -0.135338 0)
(0.767639 -0.0479737 0)
(0.748229 -0.0533057 0)
(0.755721 -0.0623053 0)
(0.766335 -0.0488035 0)
(0.762275 -0.032791 0)
(0.755054 -0.0192002 0)
(0.74685 -0.0138168 0)
(0.748032 -0.0117004 0)
(0.749873 -0.00617785 0)
(0.751175 0.00155119 0)
(0.752972 0.00989023 0)
(0.756304 0.0195128 0)
(0.760112 0.0309069 0)
(0.766472 0.0409682 0)
(0.77389 0.0492408 0)
(0.781001 0.0585715 0)
(0.784219 0.0681865 0)
(0.791419 0.0739103 0)
(0.799796 0.0798957 0)
(0.81054 0.0848121 0)
(0.82218 0.0908848 0)
(0.834956 0.0961641 0)
(0.844599 0.112258 0)
(0.862751 0.125359 0)
(0.885036 0.136832 0)
(0.910745 0.147613 0)
(0.940426 0.160776 0)
(0.976415 0.17207 0)
(1.01926 0.186717 0)
(1.07249 0.186569 0)
(1.13303 0.180091 0)
(1.19852 0.182368 0)
(1.27255 0.19003 0)
(1.35655 0.20297 0)
(1.45 0.213493 0)
(1.54794 0.232561 0)
(1.65178 0.26937 0)
(1.76602 0.303783 0)
(1.88661 0.332504 0)
(2.00716 0.353185 0)
(2.12069 0.374883 0)
(2.22776 0.384732 0)
(2.32743 0.387503 0)
(2.41601 0.392332 0)
(2.49357 0.400101 0)
(2.56059 0.408292 0)
(2.61731 0.418853 0)
(2.66025 0.42863 0)
(2.69188 0.436058 0)
(2.71565 0.438951 0)
(2.73364 0.439786 0)
(2.74757 0.433524 0)
(2.75746 0.427334 0)
(2.76372 0.411692 0)
(2.76957 0.39296 0)
(2.77991 0.367892 0)
(2.78838 0.348312 0)
(2.79131 0.335089 0)
(2.79402 0.328937 0)
(2.79711 0.325496 0)
(2.80079 0.325734 0)
(2.80488 0.323438 0)
(2.80576 0.318305 0)
(2.80234 0.309977 0)
(2.80065 0.294743 0)
(2.80052 0.282868 0)
(2.79925 0.270913 0)
(2.79942 0.270835 0)
(2.80073 0.264406 0)
(2.80083 0.254731 0)
(2.79683 0.243045 0)
(2.79603 0.232291 0)
(2.79685 0.229685 0)
(2.79564 0.222171 0)
(2.7943 0.215304 0)
(2.79325 0.208101 0)
(2.79231 0.202752 0)
(2.79008 0.199987 0)
(2.78463 0.187202 0)
(2.78099 0.176992 0)
(2.78386 0.167562 0)
(2.78814 0.164744 0)
(2.79009 0.166343 0)
(2.78893 0.164598 0)
(2.78347 0.150259 0)
(2.63361 -1.88004 0)
(2.63535 -1.88139 0)
(2.63757 -1.88232 0)
(2.63956 -1.88394 0)
(2.64212 -1.88499 0)
(2.6444 -1.88687 0)
(2.64702 -1.88791 0)
(2.65037 -1.89086 0)
(2.65268 -1.89114 0)
(2.65408 -1.89246 0)
(2.65633 -1.89296 0)
(2.65755 -1.89436 0)
(2.5846 -1.83147 0)
(2.39658 -1.66216 0)
(2.11762 -1.37136 0)
(1.82571 -1.02334 0)
(1.44718 -0.624262 0)
(1.12426 -0.334984 0)
(1.02396 -0.134314 0)
(0.932519 -0.0332989 0)
(0.902027 0.000280495 0)
(0.896913 0.00213736 0)
(0.901982 0.00842761 0)
(0.903212 0.0213905 0)
(0.89758 0.0345693 0)
(0.886782 0.0443724 0)
(0.880034 0.0498062 0)
(0.875693 0.0509054 0)
(0.868122 0.0543379 0)
(0.859019 0.0535885 0)
(0.85148 0.0527416 0)
(0.845621 0.0540557 0)
(0.843597 0.0567821 0)
(0.842394 0.0600554 0)
(0.843262 0.0635004 0)
(0.846815 0.067184 0)
(0.852022 0.0743133 0)
(0.859805 0.0800354 0)
(0.864113 0.0864852 0)
(0.868215 0.0920731 0)
(0.875672 0.09516 0)
(0.884988 0.0989522 0)
(0.896373 0.102544 0)
(0.908917 0.106771 0)
(0.920311 0.121473 0)
(0.938468 0.13557 0)
(0.962565 0.14468 0)
(0.989174 0.156786 0)
(1.02262 0.168764 0)
(1.06378 0.184715 0)
(1.11669 0.184413 0)
(1.1816 0.180772 0)
(1.25664 0.186469 0)
(1.34549 0.197183 0)
(1.44683 0.209626 0)
(1.55641 0.219706 0)
(1.66695 0.248682 0)
(1.78379 0.278667 0)
(1.90511 0.296487 0)
(2.02287 0.314806 0)
(2.13638 0.325413 0)
(2.246 0.327297 0)
(2.34893 0.325035 0)
(2.43927 0.326332 0)
(2.51471 0.322534 0)
(2.57758 0.318867 0)
(2.6289 0.3161 0)
(2.6703 0.312297 0)
(2.70116 0.309729 0)
(2.72265 0.306801 0)
(2.73448 0.301604 0)
(2.75144 0.307136 0)
(2.76543 0.316168 0)
(2.77386 0.326248 0)
(2.77886 0.332681 0)
(2.78263 0.336123 0)
(2.78374 0.330036 0)
(2.78321 0.311082 0)
(2.78457 0.289925 0)
(2.787 0.276169 0)
(2.7879 0.266167 0)
(2.79095 0.264468 0)
(2.79465 0.266995 0)
(2.7942 0.258807 0)
(2.79247 0.246996 0)
(2.79166 0.233952 0)
(2.79243 0.229181 0)
(2.79399 0.226747 0)
(2.79333 0.218462 0)
(2.79163 0.211014 0)
(2.79194 0.204026 0)
(2.7922 0.203121 0)
(2.78914 0.197856 0)
(2.78294 0.185799 0)
(2.77882 0.174174 0)
(2.78568 0.16427 0)
(2.78859 0.164288 0)
(2.78951 0.165881 0)
(2.78771 0.164092 0)
(2.78188 0.150464 0)
(2.65314 -1.89489 0)
(2.65531 -1.89603 0)
(2.65751 -1.8974 0)
(2.65989 -1.89875 0)
(2.66234 -1.90017 0)
(2.66485 -1.90171 0)
(2.66755 -1.90316 0)
(2.67019 -1.90488 0)
(2.67322 -1.90616 0)
(2.67584 -1.90847 0)
(2.67936 -1.90938 0)
(2.68225 -1.9127 0)
(2.6849 -1.91257 0)
(2.68674 -1.91382 0)
(2.68983 -1.91368 0)
(2.69092 -1.91656 0)
(2.67567 -1.88633 0)
(2.52501 -1.74036 0)
(2.27678 -1.46889 0)
(2.00067 -1.09384 0)
(1.75446 -0.722268 0)
(1.49329 -0.388656 0)
(1.2261 -0.138913 0)
(1.10075 -0.00396599 0)
(1.04962 0.039484 0)
(1.04008 0.0471872 0)
(1.04478 0.0544713 0)
(1.04364 0.0698846 0)
(1.03832 0.0802677 0)
(1.02268 0.0883438 0)
(1.01256 0.0862261 0)
(1.0064 0.0823843 0)
(0.996254 0.0855111 0)
(0.980653 0.0886443 0)
(0.966723 0.0895061 0)
(0.955135 0.0927105 0)
(0.944263 0.0932386 0)
(0.933847 0.0892781 0)
(0.925318 0.0830827 0)
(0.920957 0.0785882 0)
(0.920257 0.0775078 0)
(0.92015 0.0787365 0)
(0.921871 0.0815412 0)
(0.925184 0.088819 0)
(0.932798 0.0945122 0)
(0.934517 0.101627 0)
(0.938488 0.106652 0)
(0.945117 0.110168 0)
(0.955008 0.113322 0)
(0.96725 0.116896 0)
(0.978742 0.132731 0)
(0.99931 0.146422 0)
(1.02696 0.15746 0)
(1.06082 0.170704 0)
(1.10364 0.185155 0)
(1.15739 0.1916 0)
(1.22573 0.184672 0)
(1.30257 0.188851 0)
(1.39206 0.199636 0)
(1.49273 0.204812 0)
(1.59807 0.226369 0)
(1.71246 0.259716 0)
(1.83586 0.29121 0)
(1.96518 0.311408 0)
(2.08722 0.334845 0)
(2.20391 0.343963 0)
(2.31094 0.340718 0)
(2.40458 0.349298 0)
(2.48492 0.352194 0)
(2.55103 0.35738 0)
(2.59852 0.363371 0)
(2.63857 0.364905 0)
(2.6713 0.359328 0)
(2.69583 0.349072 0)
(2.71486 0.330569 0)
(2.73077 0.305409 0)
(2.74646 0.275039 0)
(2.75713 0.256302 0)
(2.76503 0.246356 0)
(2.77279 0.252064 0)
(2.77488 0.262534 0)
(2.77829 0.269034 0)
(2.78104 0.269641 0)
(2.77898 0.248754 0)
(2.7794 0.233046 0)
(2.78545 0.221406 0)
(2.7887 0.226464 0)
(2.78932 0.222354 0)
(2.7883 0.211828 0)
(2.78764 0.203548 0)
(2.78991 0.202423 0)
(2.79068 0.201352 0)
(2.7868 0.194486 0)
(2.78057 0.184488 0)
(2.77688 0.170903 0)
(2.78579 0.162468 0)
(2.78828 0.161533 0)
(2.78874 0.161981 0)
(2.78629 0.160218 0)
(2.78065 0.150415 0)
(2.67852 -1.90461 0)
(2.68084 -1.90536 0)
(2.68276 -1.90704 0)
(2.68545 -1.90767 0)
(2.6874 -1.90964 0)
(2.6904 -1.91011 0)
(2.69229 -1.91246 0)
(2.69555 -1.91283 0)
(2.69739 -1.91548 0)
(2.70086 -1.91583 0)
(2.70262 -1.91887 0)
(2.70639 -1.91908 0)
(2.708 -1.92259 0)
(2.71216 -1.9227 0)
(2.7135 -1.92703 0)
(2.71753 -1.92674 0)
(2.72083 -1.93335 0)
(2.72358 -1.93342 0)
(2.72449 -1.93537 0)
(2.7266 -1.93622 0)
(2.72673 -1.93713 0)
(2.6704 -1.83914 0)
(2.44549 -1.58767 0)
(2.15663 -1.20469 0)
(1.90811 -0.797621 0)
(1.68627 -0.451293 0)
(1.52078 -0.168081 0)
(1.28208 0.0139919 0)
(1.18724 0.0868312 0)
(1.16431 0.0821305 0)
(1.16454 0.0949123 0)
(1.17521 0.113016 0)
(1.17169 0.127039 0)
(1.15329 0.123424 0)
(1.14205 0.112658 0)
(1.13737 0.0977242 0)
(1.12393 0.0933235 0)
(1.10471 0.0931081 0)
(1.0855 0.0921474 0)
(1.07098 0.0987398 0)
(1.05535 0.106625 0)
(1.03868 0.112182 0)
(1.02254 0.113659 0)
(1.00933 0.110436 0)
(0.999344 0.102878 0)
(0.988197 0.098535 0)
(0.981932 0.0937237 0)
(0.979074 0.0930879 0)
(0.979708 0.0946792 0)
(0.982701 0.101421 0)
(0.989588 0.108483 0)
(0.992152 0.114237 0)
(0.9992 0.118937 0)
(1.00998 0.122209 0)
(1.02359 0.125017 0)
(1.03645 0.139152 0)
(1.05684 0.150546 0)
(1.08443 0.158233 0)
(1.11815 0.167912 0)
(1.16053 0.183259 0)
(1.2154 0.180701 0)
(1.28618 0.178201 0)
(1.3691 0.185448 0)
(1.46769 0.196244 0)
(1.57909 0.199741 0)
(1.69184 0.230544 0)
(1.81287 0.255137 0)
(1.93863 0.260369 0)
(2.05669 0.275311 0)
(2.17196 0.273938 0)
(2.27885 0.2653 0)
(2.3725 0.26534 0)
(2.45179 0.255154 0)
(2.51738 0.252838 0)
(2.56932 0.25663 0)
(2.61008 0.257775 0)
(2.64464 0.266445 0)
(2.67483 0.288896 0)
(2.70052 0.297396 0)
(2.71894 0.304796 0)
(2.72908 0.293779 0)
(2.73699 0.272651 0)
(2.74717 0.240214 0)
(2.75534 0.205035 0)
(2.76675 0.216381 0)
(2.77299 0.231133 0)
(2.77473 0.233584 0)
(2.77422 0.214874 0)
(2.77745 0.197017 0)
(2.7826 0.200607 0)
(2.78527 0.200811 0)
(2.78463 0.195484 0)
(2.78248 0.187597 0)
(2.77721 0.182223 0)
(2.7748 0.170494 0)
(2.78227 0.160973 0)
(2.78798 0.156445 0)
(2.78906 0.156198 0)
(2.78632 0.155994 0)
(2.77993 0.149261 0)
(2.69963 -1.92004 0)
(2.70102 -1.92182 0)
(2.70334 -1.92247 0)
(2.70492 -1.92434 0)
(2.70735 -1.92513 0)
(2.7092 -1.92683 0)
(2.71154 -1.92796 0)
(2.71355 -1.92967 0)
(2.71604 -1.93076 0)
(2.7181 -1.93259 0)
(2.72066 -1.93384 0)
(2.72304 -1.93544 0)
(2.7254 -1.93727 0)
(2.72824 -1.9384 0)
(2.73043 -1.94049 0)
(2.73347 -1.94146 0)
(2.73536 -1.94418 0)
(2.73898 -1.94454 0)
(2.74066 -1.94801 0)
(2.74476 -1.9479 0)
(2.74655 -1.95238 0)
(2.74951 -1.95141 0)
(2.75073 -1.95351 0)
(2.75422 -1.95249 0)
(2.75504 -1.95571 0)
(2.72449 -1.88818 0)
(2.59522 -1.67046 0)
(2.32638 -1.30449 0)
(2.03811 -0.865952 0)
(1.79671 -0.47737 0)
(1.63174 -0.187056 0)
(1.47809 0.0170941 0)
(1.3249 0.11608 0)
(1.27533 0.110578 0)
(1.27325 0.121012 0)
(1.28404 0.139741 0)
(1.28717 0.156642 0)
(1.27126 0.153681 0)
(1.25824 0.140925 0)
(1.25634 0.127163 0)
(1.24078 0.121599 0)
(1.21752 0.119748 0)
(1.19551 0.109319 0)
(1.1786 0.109933 0)
(1.16101 0.116762 0)
(1.13737 0.120507 0)
(1.1153 0.122055 0)
(1.09713 0.122543 0)
(1.08084 0.123437 0)
(1.06299 0.123941 0)
(1.04893 0.113916 0)
(1.04055 0.106879 0)
(1.03778 0.103157 0)
(1.03758 0.103705 0)
(1.04174 0.106939 0)
(1.04893 0.114933 0)
(1.04885 0.121814 0)
(1.05431 0.124826 0)
(1.06485 0.127074 0)
(1.07874 0.129041 0)
(1.09115 0.145367 0)
(1.11494 0.156024 0)
(1.14539 0.164807 0)
(1.1831 0.176762 0)
(1.23507 0.186562 0)
(1.29947 0.16835 0)
(1.37626 0.17016 0)
(1.46662 0.181335 0)
(1.56923 0.17815 0)
(1.67464 0.212378 0)
(1.79464 0.24121 0)
(1.92012 0.253944 0)
(2.03806 0.278512 0)
(2.15042 0.280573 0)
(2.25047 0.269679 0)
(2.33682 0.269994 0)
(2.41028 0.259314 0)
(2.47579 0.249284 0)
(2.53322 0.238591 0)
(2.58356 0.225696 0)
(2.62505 0.212772 0)
(2.6539 0.210088 0)
(2.67638 0.199499 0)
(2.69425 0.232786 0)
(2.71574 0.252165 0)
(2.72853 0.241176 0)
(2.73781 0.21307 0)
(2.74555 0.187191 0)
(2.75594 0.204262 0)
(2.76474 0.2071 0)
(2.76866 0.19585 0)
(2.77321 0.174208 0)
(2.77267 0.177216 0)
(2.76893 0.178397 0)
(2.7667 0.169022 0)
(2.77371 0.158597 0)
(2.78307 0.146055 0)
(2.78701 0.145509 0)
(2.7847 0.149453 0)
(2.77918 0.145175 0)
(2.72214 -1.93001 0)
(2.7236 -1.93129 0)
(2.72541 -1.93227 0)
(2.72707 -1.93359 0)
(2.72909 -1.93446 0)
(2.73084 -1.9358 0)
(2.73288 -1.93679 0)
(2.73449 -1.93851 0)
(2.73678 -1.93938 0)
(2.73848 -1.94118 0)
(2.74078 -1.94226 0)
(2.74259 -1.9442 0)
(2.74505 -1.94522 0)
(2.74686 -1.94722 0)
(2.74952 -1.94785 0)
(2.75153 -1.94948 0)
(2.75405 -1.95054 0)
(2.75635 -1.9522 0)
(2.75886 -1.95374 0)
(2.76164 -1.95491 0)
(2.76403 -1.95659 0)
(2.76732 -1.95694 0)
(2.76904 -1.95998 0)
(2.77277 -1.96003 0)
(2.77495 -1.96359 0)
(2.77774 -1.96272 0)
(2.77897 -1.96463 0)
(2.78212 -1.96413 0)
(2.78302 -1.9672 0)
(2.75726 -1.9013 0)
(2.6301 -1.68912 0)
(2.41362 -1.32166 0)
(2.12278 -0.870685 0)
(1.87587 -0.462806 0)
(1.69665 -0.163353 0)
(1.56982 0.0413171 0)
(1.44209 0.121724 0)
(1.37604 0.143879 0)
(1.37906 0.149871 0)
(1.38423 0.164935 0)
(1.39499 0.177395 0)
(1.37596 0.168651 0)
(1.36455 0.151413 0)
(1.36622 0.139025 0)
(1.3521 0.144302 0)
(1.32049 0.149084 0)
(1.29537 0.140183 0)
(1.27598 0.137289 0)
(1.25404 0.137845 0)
(1.22763 0.130612 0)
(1.20391 0.123007 0)
(1.18567 0.120777 0)
(1.16483 0.127344 0)
(1.1434 0.130769 0)
(1.12533 0.132329 0)
(1.10975 0.124114 0)
(1.09533 0.116558 0)
(1.09083 0.109531 0)
(1.09132 0.10949 0)
(1.0939 0.113881 0)
(1.10002 0.122519 0)
(1.10222 0.126893 0)
(1.10903 0.130216 0)
(1.11957 0.132384 0)
(1.13319 0.134848 0)
(1.14652 0.147614 0)
(1.17401 0.150399 0)
(1.20638 0.154971 0)
(1.24931 0.16854 0)
(1.3074 0.152181 0)
(1.38083 0.153413 0)
(1.4705 0.162346 0)
(1.57582 0.155696 0)
(1.67998 0.18417 0)
(1.79055 0.207546 0)
(1.90548 0.213504 0)
(2.01079 0.23034 0)
(2.11376 0.223922 0)
(2.2103 0.21199 0)
(2.29847 0.218683 0)
(2.37724 0.228336 0)
(2.44403 0.235219 0)
(2.4995 0.253996 0)
(2.54352 0.236971 0)
(2.58575 0.207955 0)
(2.62368 0.194122 0)
(2.65386 0.188863 0)
(2.6749 0.217706 0)
(2.69359 0.212028 0)
(2.71074 0.191529 0)
(2.72845 0.168086 0)
(2.74004 0.184124 0)
(2.74538 0.189295 0)
(2.74234 0.172433 0)
(2.74595 0.144262 0)
(2.75809 0.140885 0)
(2.76884 0.142433 0)
(2.77736 0.145922 0)
(2.77779 0.155065 0)
(2.77242 0.142978 0)
(2.73777 -1.94604 0)
(2.73904 -1.9471 0)
(2.74046 -1.94815 0)
(2.74208 -1.9491 0)
(2.74371 -1.95022 0)
(2.74558 -1.95103 0)
(2.74732 -1.95205 0)
(2.74904 -1.95315 0)
(2.75099 -1.95397 0)
(2.75288 -1.95501 0)
(2.75512 -1.95564 0)
(2.75681 -1.9572 0)
(2.75928 -1.95756 0)
(2.7608 -1.95936 0)
(2.76333 -1.9594 0)
(2.76515 -1.96067 0)
(2.76777 -1.96084 0)
(2.76954 -1.96264 0)
(2.77226 -1.96316 0)
(2.77429 -1.96492 0)
(2.77711 -1.96525 0)
(2.7795 -1.96615 0)
(2.78197 -1.96714 0)
(2.78473 -1.96784 0)
(2.78723 -1.96938 0)
(2.79046 -1.96968 0)
(2.79299 -1.97134 0)
(2.79657 -1.97115 0)
(2.79854 -1.97463 0)
(2.80163 -1.97281 0)
(2.80253 -1.97445 0)
(2.80578 -1.97323 0)
(2.80527 -1.97809 0)
(2.77461 -1.8988 0)
(2.62593 -1.6553 0)
(2.40177 -1.23327 0)
(2.16831 -0.804929 0)
(1.89291 -0.379681 0)
(1.7598 -0.0952963 0)
(1.60911 0.101984 0)
(1.53847 0.134176 0)
(1.46778 0.154987 0)
(1.46948 0.167496 0)
(1.49021 0.180936 0)
(1.49928 0.191147 0)
(1.46715 0.181445 0)
(1.45492 0.162268 0)
(1.45221 0.150223 0)
(1.43526 0.149027 0)
(1.40441 0.155121 0)
(1.38221 0.154616 0)
(1.36627 0.159892 0)
(1.3398 0.158544 0)
(1.31186 0.145696 0)
(1.28938 0.133048 0)
(1.26354 0.126145 0)
(1.23528 0.124559 0)
(1.21125 0.130412 0)
(1.19023 0.138138 0)
(1.16773 0.138548 0)
(1.15326 0.125473 0)
(1.14312 0.117644 0)
(1.13986 0.113752 0)
(1.13871 0.115508 0)
(1.13803 0.122646 0)
(1.13917 0.127641 0)
(1.14146 0.127013 0)
(1.14805 0.122462 0)
(1.16023 0.118435 0)
(1.17008 0.131485 0)
(1.19425 0.134843 0)
(1.22633 0.145282 0)
(1.27364 0.16249 0)
(1.33265 0.145205 0)
(1.4047 0.13923 0)
(1.48989 0.147902 0)
(1.58404 0.141161 0)
(1.67462 0.172993 0)
(1.77607 0.197685 0)
(1.88021 0.198843 0)
(1.97871 0.201984 0)
(2.07728 0.186752 0)
(2.17287 0.169557 0)
(2.25964 0.175449 0)
(2.33481 0.176933 0)
(2.4038 0.188381 0)
(2.46166 0.211124 0)
(2.50955 0.194954 0)
(2.55361 0.180477 0)
(2.59483 0.168819 0)
(2.63103 0.188534 0)
(2.65802 0.191802 0)
(2.6759 0.185319 0)
(2.68036 0.156007 0)
(2.69278 0.139906 0)
(2.71287 0.145466 0)
(2.7313 0.156006 0)
(2.74743 0.171003 0)
(2.75394 0.172578 0)
(2.75291 0.144754 0)
(2.75709 -1.95247 0)
(2.75842 -1.95302 0)
(2.75947 -1.95415 0)
(2.76108 -1.95459 0)
(2.76227 -1.95586 0)
(2.76414 -1.95618 0)
(2.76538 -1.95758 0)
(2.76723 -1.95813 0)
(2.76874 -1.95938 0)
(2.77076 -1.95981 0)
(2.77267 -1.96054 0)
(2.77455 -1.96138 0)
(2.77651 -1.96199 0)
(2.77814 -1.96298 0)
(2.78 -1.96344 0)
(2.78215 -1.96334 0)
(2.78409 -1.96386 0)
(2.78622 -1.96435 0)
(2.78825 -1.96523 0)
(2.79035 -1.96603 0)
(2.79266 -1.96638 0)
(2.79454 -1.96739 0)
(2.79679 -1.96794 0)
(2.7988 -1.96921 0)
(2.80157 -1.96941 0)
(2.80331 -1.97135 0)
(2.8061 -1.97151 0)
(2.80815 -1.97273 0)
(2.80987 -1.97433 0)
(2.81218 -1.97506 0)
(2.81388 -1.97645 0)
(2.81638 -1.97643 0)
(2.8166 -1.97974 0)
(2.81854 -1.9789 0)
(2.81851 -1.98083 0)
(2.82058 -1.97979 0)
(2.82023 -1.98386 0)
(2.76417 -1.86751 0)
(2.59165 -1.54657 0)
(2.34407 -1.0488 0)
(2.15966 -0.647615 0)
(1.90023 -0.255355 0)
(1.77052 -0.00692832 0)
(1.64257 0.145834 0)
(1.59761 0.164332 0)
(1.55474 0.177985 0)
(1.53611 0.198362 0)
(1.56957 0.197645 0)
(1.56507 0.190593 0)
(1.54121 0.179092 0)
(1.53057 0.167883 0)
(1.52917 0.160022 0)
(1.50502 0.164766 0)
(1.47559 0.160844 0)
(1.46131 0.166212 0)
(1.43803 0.173314 0)
(1.40613 0.169493 0)
(1.38131 0.155674 0)
(1.35271 0.145848 0)
(1.32162 0.131158 0)
(1.2945 0.126373 0)
(1.27037 0.131281 0)
(1.24544 0.139884 0)
(1.22077 0.145068 0)
(1.19598 0.138226 0)
(1.17883 0.123956 0)
(1.16949 0.112589 0)
(1.1656 0.105702 0)
(1.1655 0.105322 0)
(1.16567 0.111417 0)
(1.16563 0.112139 0)
(1.17361 0.111839 0)
(1.18894 0.111358 0)
(1.2003 0.125364 0)
(1.22726 0.130942 0)
(1.26423 0.13857 0)
(1.30969 0.14945 0)
(1.36415 0.130279 0)
(1.43146 0.129624 0)
(1.50612 0.1354 0)
(1.58549 0.130739 0)
(1.66662 0.157759 0)
(1.76338 0.175945 0)
(1.86507 0.180715 0)
(1.95883 0.190275 0)
(2.05251 0.183474 0)
(2.14084 0.153631 0)
(2.22043 0.150532 0)
(2.29501 0.150855 0)
(2.36515 0.168994 0)
(2.42987 0.168638 0)
(2.48658 0.166991 0)
(2.52931 0.171909 0)
(2.55302 0.184705 0)
(2.57756 0.167323 0)
(2.60851 0.144459 0)
(2.64194 0.134801 0)
(2.67325 0.137977 0)
(2.6929 0.140469 0)
(2.70667 0.142362 0)
(2.77042 -1.96434 0)
(2.77157 -1.96482 0)
(2.7727 -1.9655 0)
(2.77408 -1.9658 0)
(2.77542 -1.96626 0)
(2.77683 -1.96664 0)
(2.77807 -1.96746 0)
(2.77974 -1.96767 0)
(2.78135 -1.96829 0)
(2.78312 -1.96887 0)
(2.78502 -1.96939 0)
(2.78665 -1.97038 0)
(2.78839 -1.97099 0)
(2.79004 -1.97144 0)
(2.79126 -1.97245 0)
(2.79328 -1.97188 0)
(2.79478 -1.97258 0)
(2.79699 -1.97223 0)
(2.79851 -1.97314 0)
(2.80055 -1.97313 0)
(2.80217 -1.97373 0)
(2.80415 -1.97381 0)
(2.80552 -1.9749 0)
(2.80712 -1.97601 0)
(2.8092 -1.97658 0)
(2.81072 -1.97817 0)
(2.81308 -1.97831 0)
(2.81471 -1.9794 0)
(2.81649 -1.98005 0)
(2.81792 -1.98105 0)
(2.81982 -1.98107 0)
(2.82088 -1.98212 0)
(2.82255 -1.98225 0)
(2.82408 -1.98271 0)
(2.82627 -1.98242 0)
(2.82823 -1.98232 0)
(2.83032 -1.98443 0)
(2.83147 -1.98335 0)
(2.83362 -1.98174 0)
(2.83447 -1.98273 0)
(2.83079 -1.9629 0)
(2.72342 -1.76218 0)
(2.50451 -1.33229 0)
(2.25184 -0.810025 0)
(2.05277 -0.396419 0)
(1.88562 -0.0875326 0)
(1.72117 0.122832 0)
(1.67626 0.146518 0)
(1.63771 0.171435 0)
(1.61632 0.196772 0)
(1.61992 0.211478 0)
(1.63824 0.202748 0)
(1.62752 0.191155 0)
(1.60462 0.173637 0)
(1.59953 0.169164 0)
(1.5857 0.178155 0)
(1.5557 0.174237 0)
(1.5385 0.174604 0)
(1.51467 0.17507 0)
(1.4882 0.171094 0)
(1.46542 0.164114 0)
(1.44036 0.160248 0)
(1.40879 0.151087 0)
(1.37516 0.142008 0)
(1.33867 0.133976 0)
(1.30405 0.130017 0)
(1.2752 0.133234 0)
(1.24528 0.133632 0)
(1.22137 0.123925 0)
(1.20588 0.109606 0)
(1.19493 0.0970552 0)
(1.19235 0.0935689 0)
(1.19433 0.0974222 0)
(1.19485 0.105244 0)
(1.19988 0.106254 0)
(1.21449 0.108575 0)
(1.23117 0.10894 0)
(1.24736 0.118296 0)
(1.27635 0.118309 0)
(1.30859 0.121635 0)
(1.34548 0.133323 0)
(1.39347 0.121644 0)
(1.45408 0.114322 0)
(1.52382 0.111635 0)
(1.60348 0.103278 0)
(1.68374 0.124751 0)
(1.76557 0.15371 0)
(1.85078 0.163511 0)
(1.93911 0.166504 0)