/*--------------------------------*- C++ -*----------------------------------*\
  =========                 |
  \\      /  F ield         | OpenFOAM: The Open Source CFD Toolbox
   \\    /   O peration     | Website:  https://openfoam.org
    \\  /    A nd           | Version:  7
     \\/     M anipulation  |
\*---------------------------------------------------------------------------*/
FoamFile
{
    version     2.0;
    format      ascii;
    class       volVectorField;
    location    "9.6";
    object      U;
}
// * * * * * * * * * * * * * * * * * * * * * * * * * * * * * * * * * * * * * //

dimensions      [0 1 -1 0 0 0 0];

internalField   nonuniform List<vector> 
1750
(
(2.26146 0.212416 0)
(2.28219 0.826463 0)
(2.34855 0.878862 0)
(2.49171 0.706011 0)
(2.61763 0.537904 0)
(2.69473 0.382314 0)
(2.71474 0.277953 0)
(2.72335 0.192478 0)
(2.70501 0.11913 0)
(2.67285 0.104118 0)
(2.3764 -1.82158 0)
(2.33523 -0.997989 0)
(2.14324 0.019824 0)
(2.11351 0.330486 0)
(2.15958 0.293232 0)
(2.28918 0.310101 0)
(2.40152 0.304448 0)
(2.45341 0.222312 0)
(2.46392 0.146875 0)
(2.50824 0.151768 0)
(2.69356 -2.08136 0)
(2.76908 -1.96019 0)
(2.68473 -1.53185 0)
(2.4134 -0.866161 0)
(2.29633 -0.391246 0)
(2.19793 0.0363853 0)
(2.23066 0.128224 0)
(2.23912 0.11337 0)
(2.33696 0.122063 0)
(2.43067 0.107133 0)
(2.89235 -1.79381 0)
(2.99116 -1.67267 0)
(3.1338 -1.59458 0)
(3.0736 -1.69523 0)
(2.9397 -1.56576 0)
(2.72251 -0.972489 0)
(2.62565 -0.502168 0)
(2.59351 -0.195534 0)
(2.5217 0.0521187 0)
(2.5121 0.0976764 0)
(3.00512 -1.73278 0)
(3.04799 -1.56254 0)
(3.07243 -1.46711 0)
(3.10639 -1.43673 0)
(3.14253 -1.3665 0)
(3.11399 -1.37168 0)
(3.10095 -1.35288 0)
(3.01051 -0.995787 0)
(2.93239 -0.704936 0)
(2.82322 -0.250468 0)
(3.13748 -1.20945 0)
(3.11797 -1.26371 0)
(3.1197 -1.21782 0)
(3.13749 -1.11202 0)
(3.16843 -1.07434 0)
(3.15574 -1.07285 0)
(3.1399 -1.03555 0)
(3.12475 -1.06864 0)
(3.13342 -1.06913 0)
(3.07831 -0.839877 0)
(3.15749 -0.865867 0)
(3.15241 -0.865253 0)
(3.14192 -0.872948 0)
(3.1258 -0.897135 0)
(3.1312 -0.903704 0)
(3.1354 -0.900001 0)
(3.13411 -0.897942 0)
(3.13275 -0.890909 0)
(3.13363 -0.87774 0)
(3.13715 -0.885773 0)
(3.11818 -0.489818 0)
(3.12602 -0.553101 0)
(3.12421 -0.562476 0)
(3.12107 -0.570176 0)
(3.12175 -0.604505 0)
(3.12429 -0.618074 0)
(3.12895 -0.631632 0)
(3.13008 -0.641149 0)
(3.12863 -0.656424 0)
(3.13064 -0.665179 0)
(3.04487 -0.164046 0)
(3.05882 -0.203859 0)
(3.07024 -0.261766 0)
(3.07335 -0.283841 0)
(3.08012 -0.318542 0)
(3.08914 -0.370453 0)
(3.09302 -0.388179 0)
(3.10171 -0.430475 0)
(3.1063 -0.467485 0)
(3.11092 -0.509907 0)
(2.9924 0.0187859 0)
(2.99961 0.0037397 0)
(3.00879 -0.0199503 0)
(3.01701 -0.0468879 0)
(3.02663 -0.0780725 0)
(3.03543 -0.107829 0)
(3.04791 -0.155511 0)
(3.05649 -0.186959 0)
(3.06584 -0.225286 0)
(3.07755 -0.284694 0)
(2.98071 0.0540387 0)
(2.98174 0.053042 0)
(2.98354 0.0505133 0)
(2.98597 0.046273 0)
(2.98963 0.0394179 0)
(2.99493 0.028511 0)
(3.00175 0.0123131 0)
(3.00978 -0.009789 0)
(3.01881 -0.0366282 0)
(3.03395 -0.0894804 0)
(2.98555 0.0408975 0)
(2.98464 0.0436888 0)
(2.98458 0.0456583 0)
(2.98487 0.0456196 0)
(2.98542 0.0451454 0)
(2.98613 0.0445602 0)
(2.98728 0.0434204 0)
(2.9892 0.0408514 0)
(2.99154 0.0369298 0)
(2.99857 0.020865 0)
(2.99571 0.0111639 0)
(2.99407 0.0153078 0)
(2.99293 0.0181987 0)
(2.991 0.0235659 0)
(2.98999 0.0268146 0)
(2.98897 0.0305888 0)
(2.98833 0.0337011 0)
(2.98866 0.0354556 0)
(2.989 0.0351441 0)
(2.99008 0.0341339 0)
(2.99969 0.000704946 0)
(2.99948 0.00112611 0)
(2.99911 0.00190979 0)
(2.99858 0.00302887 0)
(2.99778 0.00485638 0)
(2.99677 0.00722135 0)
(2.99556 0.0103496 0)
(2.99425 0.0140891 0)
(2.993 0.0181014 0)
(2.99203 0.0231784 0)
(2.99999 9.81628e-06 0)
(2.99999 1.82338e-05 0)
(2.99997 3.7302e-05 0)
(2.99995 7.36939e-05 0)
(2.99989 0.000156309 0)
(2.99977 0.000302986 0)
(2.99954 0.000617733 0)
(2.99915 0.00110362 0)
(2.99853 0.00197407 0)
(2.99679 0.00415259 0)
(1.89478 -1.48857 0)
(2.2796 -1.76706 0)
(2.5009 -2.08939 0)
(2.78518 -1.85674 0)
(3.01756 -1.71697 0)
(3.14605 -1.20039 0)
(3.15847 -0.857926 0)
(3.1082 -0.465525 0)
(3.03905 -0.147803 0)
(2.98806 0.030382 0)
(2.98037 0.0542065 0)
(2.98602 0.0394588 0)
(2.9966 0.00907706 0)
(2.99981 0.000458813 0)
(3 6.30971e-06 0)
(1.86649 -1.47504 0)
(2.33762 -1.85701 0)
(2.53416 -2.059 0)
(2.87847 -1.69468 0)
(3.08722 -1.48662 0)
(3.15752 -1.07129 0)
(3.13589 -0.748163 0)
(3.09201 -0.388532 0)
(3.02122 -0.0680419 0)
(2.98182 0.0525579 0)
(2.98011 0.055104 0)
(2.98929 0.0304689 0)
(2.99822 0.00485227 0)
(2.99993 0.000181449 0)
(3 2.37127e-06 0)
(1.8779 -1.52346 0)
(2.22017 -1.82971 0)
(2.53709 -1.97962 0)
(2.90219 -1.66111 0)
(3.09629 -1.17906 0)
(3.11788 -1.12745 0)
(3.12713 -0.664699 0)
(3.07085 -0.237635 0)
(3.00219 -0.000175711 0)
(2.97834 0.0616477 0)
(2.97995 0.0560547 0)
(2.99127 0.0250664 0)
(2.99887 0.00310461 0)
(2.99996 8.78422e-05 0)
(3 1.03199e-06 0)
(1.84786 -1.50273 0)
(2.14947 -1.73748 0)
(2.57486 -1.81144 0)
(2.89858 -1.6514 0)
(3.09676 -1.35879 0)
(3.13208 -0.992775 0)
(3.1179 -0.460644 0)
(3.04725 -0.135733 0)
(2.98989 0.0310317 0)
(2.97638 0.064779 0)
(2.9805 0.0546808 0)
(2.99287 0.0200299 0)
(2.99938 0.00158362 0)
(2.99998 3.90247e-05 0)
(3 4.284e-07 0)
(1.73029 -1.48038 0)
(2.12814 -1.73368 0)
(2.61554 -1.74306 0)
(2.91618 -1.59844 0)
(3.04141 -1.39722 0)
(3.12465 -0.613076 0)
(3.09641 -0.31386 0)
(3.02519 -0.0731482 0)
(2.98006 0.0547677 0)
(2.97559 0.0650661 0)
(2.98193 0.0486642 0)
(2.99588 0.0109385 0)
(2.9997 0.000730884 0)
(2.99999 1.53327e-05 0)
(3 1.66127e-07 0)
(1.54406 -1.49162 0)
(2.15337 -1.7673 0)
(2.73819 -1.56956 0)
(2.96402 -1.52026 0)
(3.13649 -1.011 0)
(3.13717 -0.555447 0)
(3.07567 -0.268347 0)
(3.00476 -0.0119091 0)
(2.97594 0.0651391 0)
(2.97549 0.0640293 0)
(2.98839 0.0321048 0)
(2.99779 0.00621464 0)
(2.99989 0.000288423 0)
(3 5.6186e-06 0)
(3 5.97842e-08 0)
(1.44249 -1.34994 0)
(2.06456 -1.81399 0)
(2.68467 -1.64261 0)
(2.9437 -1.49449 0)
(3.10874 -0.635598 0)
(3.11644 -0.513236 0)
(3.04318 -0.123266 0)
(2.98674 0.043429 0)
(2.97392 0.0709706 0)
(2.97841 0.0580115 0)
(2.99064 0.0267896 0)
(2.99878 0.00358225 0)
(2.99995 0.000120307 0)
(3 2.07748e-06 0)
(3 2.09861e-08 0)
(1.3646 -1.31785 0)
(2.04343 -1.70106 0)
(2.55306 -1.75355 0)
(3.01854 -1.04587 0)
(3.14079 -0.72995 0)
(3.08834 -0.266809 0)
(3.0136 -0.0217989 0)
(2.97779 0.0659397 0)
(2.97345 0.0732188 0)
(2.97959 0.058667 0)
(2.99354 0.019064 0)
(2.99949 0.00146308 0)
(2.99998 4.31075e-05 0)
(3 7.06741e-07 0)
(3 6.94184e-09 0)
(1.07174 -1.22528 0)
(2.06843 -1.48905 0)
(2.68763 -1.46953 0)
(3.07788 -0.680863 0)
(3.12744 -0.522261 0)
(3.04986 -0.127836 0)
(2.99296 0.0319966 0)
(2.97302 0.0778476 0)
(2.97317 0.0748777 0)
(2.98383 0.0453172 0)
(2.99703 0.00885778 0)
(2.9998 0.000592359 0)
(2.99999 1.40626e-05 0)
(3 2.21786e-07 0)
(3 2.13894e-09 0)
(0.88504 -0.696943 0)
(2.03623 -1.30668 0)
(2.85332 -0.761902 0)
(3.1161 -0.757801 0)
(3.08417 -0.213867 0)
(3.02257 -0.0379553 0)
(2.9788 0.0665986 0)
(2.97154 0.0813557 0)
(2.97439 0.0723128 0)
(2.99041 0.027568 0)
(2.99853 0.00445368 0)
(2.99993 0.000200557 0)
(3 4.25958e-06 0)
(3 6.49738e-08 0)
(3 6.09403e-10 0)
(0.755067 -0.159212 0)
(2.24684 -1.10902 0)
(2.98325 -0.772219 0)
(3.12651 -0.430868 0)
(3.06075 -0.124835 0)
(2.99147 0.0445651 0)
(2.9717 0.0825254 0)
(2.97105 0.0821122 0)
(2.9799 0.0540617 0)
(2.99288 0.0200636 0)
(2.99931 0.00193008 0)
(2.99998 6.3622e-05 0)
(3 1.22535e-06 0)
(3 1.79166e-08 0)
(3 1.62362e-10 0)
(0.491636 0.493503 0)
(2.48439 -0.660255 0)
(3.09611 -0.586154 0)
(3.09033 -0.141298 0)
(3.01562 0.00592675 0)
(2.97574 0.0777623 0)
(2.97019 0.0853404 0)
(2.97171 0.0751487 0)
(2.98603 0.0374738 0)
(2.99749 0.0072572 0)
(2.99983 0.000492649 0)
(2.99999 1.4921e-05 0)
(3 2.80494e-07 0)
(3 4.11008e-09 0)
(3 3.76784e-11 0)
(1.08007 0.402713 0)
(2.88398 -0.174048 0)
(3.13779 -0.157669 0)
(3.04718 -0.0309876 0)
(2.98111 0.0716688 0)
(2.96974 0.0888767 0)
(2.97001 0.0856848 0)
(2.97928 0.0567762 0)
(2.99084 0.0257864 0)
(2.99884 0.00326355 0)
(2.99995 0.000150964 0)
(3 3.49936e-06 0)
(3 5.95952e-08 0)
(3 8.29513e-10 0)
(3 7.33709e-12 0)
(2.07765 0.261431 0)
(3.14499 -0.225063 0)
(3.0952 -0.0775281 0)
(2.992 0.0604337 0)
(2.97029 0.0886106 0)
(2.96964 0.0887673 0)
(2.97262 0.0775705 0)
(2.98233 0.0489185 0)
(2.99613 0.0102117 0)
(2.99965 0.000958617 0)
(2.99999 3.32067e-05 0)
(3 7.02439e-07 0)
(3 1.13208e-08 0)
(3 1.50969e-10 0)
(3 1.25944e-12 0)
(2.68377 0.108179 0)
(3.1248 0.00520123 0)
(3.00365 0.0695661 0)
(2.96634 0.0952862 0)
(2.96841 0.0923934 0)
(2.97015 0.0858983 0)
(2.97598 0.0682294 0)
(2.99055 0.0240936 0)
(2.99846 0.00375337 0)
(2.99993 0.000177325 0)
(3 4.89717e-06 0)
(3 9.3337e-08 0)
(3 1.45455e-09 0)
(3 1.95495e-11 0)
(3 1.57859e-13 0)
(2.94355 0.0940573 0)
(2.9499 0.0948842 0)
(2.95797 0.101532 0)
(2.96347 0.0977235 0)
(2.96908 0.091587 0)
(2.97687 0.0701725 0)
(2.98338 0.0443602 0)
(2.99649 0.00750374 0)
(2.99977 0.000430319 0)
(3 7.18077e-06 0)
(3 2.52575e-07 0)
(3 1.63244e-10 0)
(3 6.68703e-11 0)
(3 6.03023e-13 0)
(3 3.05769e-15 0)
(2.94108 0.0945863 0)
(2.94673 0.0935246 0)
(2.95702 0.0990856 0)
(2.96509 0.0963683 0)
(2.97097 0.0901144 0)
(2.97589 0.080329 0)
(2.98798 0.033507 0)
(2.99626 0.00972897 0)
(2.99966 0.000720968 0)
(2.99999 2.3806e-05 0)
(3 4.34939e-07 0)
(3 5.91609e-09 0)
(3 6.61726e-11 0)
(3 7.07599e-13 0)
(3 2.74127e-15 0)
(2.94046 0.0953825 0)
(2.94653 0.0951755 0)
(2.95669 0.0994758 0)
(2.96644 0.0943031 0)
(2.97285 0.0857123 0)
(2.97899 0.0619827 0)
(2.99052 0.0233384 0)
(2.99861 0.00294195 0)
(2.99994 0.000121872 0)
(3 2.14981e-06 0)
(3 2.52292e-08 0)
(3 2.36884e-10 0)
(3 1.87402e-12 0)
(3 8.96059e-15 0)
(3 -1.64864e-15 0)
(2.93989 0.0952184 0)
(2.94643 0.0955944 0)
(2.95594 0.0990844 0)
(2.96614 0.0919035 0)
(2.97464 0.0813957 0)
(2.98239 0.0512239 0)
(2.9931 0.0166836 0)
(2.99928 0.0014433 0)
(2.99998 4.7357e-05 0)
(3 7.37751e-07 0)
(3 8.33102e-09 0)
(3 7.63936e-11 0)
(3 5.91529e-13 0)
(3 2.92508e-15 0)
(3 -1.44661e-15 0)
(2.93865 0.0946875 0)
(2.94589 0.0962633 0)
(2.9559 0.0968999 0)
(2.96743 0.0889605 0)
(2.976 0.0819186 0)
(2.98598 0.0386842 0)
(2.99646 0.00782587 0)
(2.99972 0.000553887 0)
(2.99999 1.30659e-05 0)
(3 1.83615e-07 0)
(3 1.93858e-09 0)
(3 1.69001e-11 0)
(3 1.26098e-13 0)
(3 1.39409e-16 0)
(3 -8.70475e-16 0)
(2.93715 0.0938037 0)
(2.94497 0.0973512 0)
(2.95694 0.0945758 0)
(2.97323 0.0823826 0)
(2.98224 0.0629757 0)
(2.99002 0.0272726 0)
(2.99816 0.00408447 0)
(2.99991 0.00018695 0)
(3 3.61077e-06 0)
(3 4.62814e-08 0)
(3 4.6126e-10 0)
(3 3.90314e-12 0)
(3 3.048e-14 0)
(3 1.24818e-15 0)
(3 2.97736e-16 0)
(2.93488 0.0929248 0)
(2.9451 0.0982855 0)
(2.9596 0.0957804 0)
(2.97315 0.0804869 0)
(2.98272 0.0547291 0)
(2.99307 0.0176893 0)
(2.99916 0.00176547 0)
(2.99997 5.67058e-05 0)
(3 9.71872e-07 0)
(3 1.08049e-08 0)
(3 1.03234e-10 0)
(3 8.21739e-13 0)
(3 7.58893e-15 0)
(3 1.14036e-15 0)
(3 6.61645e-16 0)
(2.93253 0.0919549 0)
(2.9443 0.0972574 0)
(2.96295 0.0923899 0)
(2.97641 0.0780103 0)
(2.98526 0.0426635 0)
(2.99614 0.00852809 0)
(2.9997 0.000581885 0)
(2.99999 1.5856e-05 0)
(3 2.11907e-07 0)
(3 2.41191e-09 0)
(3 2.13662e-11 0)
(3 1.64407e-13 0)
(3 1.00807e-15 0)
(3 1.65368e-15 0)
(3 9.53742e-16 0)
(2.93179 0.0915648 0)
(2.94289 0.0960161 0)
(2.9682 0.085263 0)
(2.98499 0.0586194 0)
(2.99226 0.0237775 0)
(2.99834 0.00374694 0)
(2.99991 0.000178079 0)
(3 3.31373e-06 0)
(3 4.67295e-08 0)
(3 4.60999e-10 0)
(3 4.03279e-12 0)
(3 3.04089e-14 0)
(3 4.40492e-16 0)
(3 1.24073e-15 0)
(3 4.65695e-16 0)
(2.93174 0.0922814 0)
(2.94344 0.0951534 0)
(2.96921 0.0814988 0)
(2.98575 0.0522623 0)
(2.99431 0.0162295 0)
(2.99934 0.00138747 0)
(2.99998 4.29133e-05 0)
(3 7.69186e-07 0)
(3 8.63257e-09 0)
(3 8.62215e-11 0)
(3 7.0699e-13 0)
(3 7.58343e-15 0)
(3 1.20107e-15 0)
(3 8.08494e-16 0)
(3 -1.11026e-16 0)
(2.93127 0.0923181 0)
(2.947 0.0954431 0)
(2.9744 0.0705716 0)
(2.98861 0.0387865 0)
(2.99745 0.00620607 0)
(2.9998 0.0003877 0)
(2.99999 9.69416e-06 0)
(3 1.32305e-07 0)
(3 1.54073e-09 0)
(3 1.41699e-11 0)
(3 1.15287e-13 0)
(3 3.24135e-15 0)
(3 1.76986e-15 0)
(3 6.95725e-16 0)
(3 -2.78028e-16 0)
(2.92581 0.0899994 0)
(2.95304 0.0869407 0)
(2.98681 0.0501868 0)
(2.99536 0.0187899 0)
(2.99908 0.00225215 0)
(2.99996 8.55491e-05 0)
(3 1.52159e-06 0)
(3 2.12985e-08 0)
(3 2.26923e-10 0)
(3 2.12097e-12 0)
(3 1.92541e-14 0)
(3 3.37924e-15 0)
(3 3.02135e-15 0)
(3 1.08338e-15 0)
(3 4.45303e-17 0)
(2.9176 0.086946 0)
(2.95966 0.0771801 0)
(2.98877 0.0428056 0)
(2.99729 0.00959579 0)
(2.99974 0.000633162 0)
(2.99999 1.51813e-05 0)
(3 2.449e-07 0)
(3 2.91138e-09 0)
(3 3.10377e-11 0)
(3 2.95676e-13 0)
(3 4.87809e-15 0)
(3 2.92281e-15 0)
(3 3.88865e-15 0)
(3 1.99142e-15 0)
(3 1.72977e-16 0)
(2.9195 0.0880404 0)
(2.96637 0.0639117 0)
(2.99475 0.0213246 0)
(2.99914 0.00305609 0)
(2.99995 0.000122888 0)
(3 2.53641e-06 0)
(3 3.41529e-08 0)
(3 4.16917e-10 0)
(3 4.6012e-12 0)
(3 5.07337e-14 0)
(3 2.40541e-15 0)
(3 2.36808e-15 0)
(3 4.23491e-15 0)
(3 2.49187e-15 0)
(3 7.99319e-16 0)
(2.91752 0.0809948 0)
(2.98364 0.0353912 0)
(2.99927 0.00836948 0)
(2.99986 0.000571361 0)
(2.99999 1.66242e-05 0)
(3 3.04331e-07 0)
(3 4.9501e-09 0)
(3 7.08285e-11 0)
(3 9.01534e-13 0)
(3 1.13801e-14 0)
(3 1.02272e-15 0)
(3 1.96063e-15 0)
(3 4.4445e-15 0)
(3 3.57863e-15 0)
(3 7.66901e-16 0)
(2.91944 0.0762383 0)
(2.99611 0.0154084 0)
(3.00025 0.00176811 0)
(2.99999 7.76597e-05 0)
(3 2.26226e-06 0)
(3 5.36045e-08 0)
(3 1.05734e-09 0)
(3 1.71346e-11 0)
(3 2.31083e-13 0)
(3 4.56636e-15 0)
(3 4.41056e-16 0)
(3 7.49237e-16 0)
(3 4.23205e-15 0)
(3 3.30912e-15 0)
(3 7.2685e-16 0)
(3 1.91543e-15 0)
(3 2.0687e-15 0)
(3 9.03634e-16 0)
(3 -1.82746e-15 0)
(3 -3.87219e-15 0)
(3 -3.21514e-15 0)
(3 -6.07662e-16 0)
(3 2.57789e-15 0)
(3 2.37617e-15 0)
(3 1.1711e-15 0)
(3 1.05946e-16 0)
(3 1.84349e-16 0)
(3 3.80063e-15 0)
(3 3.45807e-15 0)
(3 8.15646e-16 0)
(3 3.08561e-15 0)
(3 3.32479e-15 0)
(3 2.66346e-16 0)
(3 -3.34419e-15 0)
(3 -3.95642e-15 0)
(3 -1.31135e-15 0)
(3 2.63363e-16 0)
(3 4.55812e-15 0)
(3 2.902e-15 0)
(3 4.47894e-16 0)
(3 -3.6356e-16 0)
(3 -1.55183e-16 0)
(3 2.33672e-15 0)
(3 3.91083e-15 0)
(3 1.29465e-15 0)
(3 4.46151e-15 0)
(3 2.62789e-15 0)
(3 -1.66249e-15 0)
(3 -4.09678e-15 0)
(3 -2.61969e-15 0)
(3 -3.53097e-16 0)
(3 1.37749e-16 0)
(3 4.62705e-15 0)
(3 3.01268e-15 0)
(3 -5.70208e-16 0)
(3 -7.63377e-16 0)
(3 -4.27881e-16 0)
(3 1.09999e-15 0)
(3 3.33239e-15 0)
(3 1.30458e-15 0)
(3 5.34876e-15 0)
(3 3.08817e-15 0)
(3 -2.46737e-15 0)
(3 -3.30358e-15 0)
(3 1.13243e-17 0)
(3 -6.13468e-16 0)
(3 -8.98019e-16 0)
(3 3.06655e-15 0)
(3 3.62915e-15 0)
(3 -6.86737e-16 0)
(3 -1.63197e-15 0)
(3 -6.02167e-16 0)
(3 3.49566e-16 0)
(3 2.76455e-15 0)
(3 1.2214e-15 0)
(3 3.21575e-15 0)
(3 3.62468e-15 0)
(3 -2.0129e-15 0)
(3 -3.07209e-15 0)
(3 -5.45151e-16 0)
(3 -9.27611e-16 0)
(3 -4.35722e-16 0)
(3 2.76288e-15 0)
(3 2.86252e-15 0)
(3 -1.50626e-15 0)
(3 -8.48176e-16 0)
(3 -1.94981e-16 0)
(3 -4.60546e-16 0)
(3 1.85303e-15 0)
(3 2.21586e-16 0)
(3 2.3543e-15 0)
(3 1.57092e-15 0)
(3 -2.61954e-15 0)
(3 -2.77241e-15 0)
(3 -1.33799e-15 0)
(3 -3.04802e-15 0)
(3 1.16733e-16 0)
(3 3.52995e-15 0)
(3 1.04588e-15 0)
(3 -1.57215e-15 0)
(3 -3.38543e-16 0)
(3 1.35456e-16 0)
(3 -3.06498e-16 0)
(3 6.47243e-16 0)
(3 -3.28548e-17 0)
(3 8.22411e-16 0)
(3 -1.04809e-16 0)
(3 -2.0156e-15 0)
(3 -2.44711e-15 0)
(3 -1.59115e-15 0)
(3 -3.21714e-15 0)
(3 2.41607e-16 0)
(3 3.48248e-15 0)
(3 7.22447e-16 0)
(3 -2.0134e-15 0)
(3 -4.6922e-17 0)
(3 1.08047e-15 0)
(3 -1.63473e-16 0)
(3 -9.80689e-18 0)
(3 -2.4945e-16 0)
(3 4.38008e-16 0)
(3 -1.20994e-16 0)
(3 -9.12603e-16 0)
(3 -2.37117e-15 0)
(3 -2.12167e-15 0)
(3 -1.68956e-15 0)
(3 7.53441e-16 0)
(3 2.32594e-15 0)
(3 8.76978e-16 0)
(3 -1.20876e-15 0)
(3 7.07993e-16 0)
(3 2.52293e-16 0)
(3 -1.99173e-16 0)
(3 4.2392e-16 0)
(3 -4.02361e-16 0)
(3 -9.94167e-16 0)
(3 -2.72472e-16 0)
(3 7.31269e-16 0)
(3 -6.86764e-16 0)
(3 -1.75696e-15 0)
(3 -4.06533e-16 0)
(3 1.63424e-16 0)
(3 7.41888e-16 0)
(3 1.28223e-15 0)
(3 -4.16362e-16 0)
(3 -3.28473e-17 0)
(3 9.04828e-17 0)
(3 -2.69874e-16 0)
(3 -1.25936e-17 0)
(3 2.70715e-16 0)
(2.72061 0.0154419 0)
(3 -2.79269e-16 0)
(3 -9.95391e-17 0)
(3 2.38796e-16 0)
(3 5.97228e-16 0)
(3 -3.63371e-16 0)
(3 7.59807e-16 0)
(3 4.40301e-16 0)
(3 6.66333e-16 0)
(3 3.48221e-16 0)
(2.91328 -0.0436654 0)
(3 -1.77094e-17 0)
(3 -3.62557e-16 0)
(3 -1.3193e-15 0)
(3 -1.51452e-15 0)
(3 -2.24666e-15 0)
(3 -1.12589e-15 0)
(3 2.91934e-16 0)
(3 5.81431e-18 0)
(3 3.76926e-16 0)
(2.98923 -0.0108369 0)
(3 1.47182e-15 0)
(3 1.3388e-16 0)
(3 -3.12561e-16 0)
(3 1.68957e-16 0)
(3 3.72682e-16 0)
(3 -2.33993e-17 0)
(3 1.33206e-15 0)
(3 1.60191e-15 0)
(3 7.98157e-16 0)
(2.99881 -0.00275633 0)
(3 1.87128e-15 0)
(3 1.7018e-15 0)
(3 2.20254e-15 0)
(3 2.03495e-15 0)
(3 2.13173e-15 0)
(3 1.29736e-15 0)
(3 1.29538e-15 0)
(3 6.03384e-16 0)
(3 -1.66295e-16 0)
(2.99984 -0.000463606 0)
(3 2.34387e-15 0)
(3 2.2665e-15 0)
(3 2.08497e-15 0)
(3 4.18527e-16 0)
(3 7.62226e-16 0)
(3 9.43837e-16 0)
(3 9.02996e-16 0)
(3 -2.97809e-17 0)
(3 -1.15668e-16 0)
(2.99997 -7.6019e-05 0)
(3 -6.72466e-16 0)
(3 -1.35259e-15 0)
(3 -4.21214e-16 0)
(3 -1.79054e-16 0)
(3 4.05686e-16 0)
(3 5.0823e-16 0)
(3 6.78466e-17 0)
(3 5.00621e-16 0)
(3 7.38828e-16 0)
(3 -6.1014e-06 0)
(3 -6.66428e-16 0)
(3 -1.61565e-15 0)
(3 -1.39392e-15 0)
(3 -8.45956e-16 0)
(3 5.11233e-16 0)
(3 9.54584e-16 0)
(3 -1.0188e-16 0)
(3 -4.48393e-17 0)
(3 7.64837e-17 0)
(3 -7.64404e-07 0)
(3 -3.5743e-16 0)
(3 -2.24062e-15 0)
(3 -3.11937e-15 0)
(3 -3.97405e-15 0)
(3 -2.57265e-15 0)
(3 -5.04768e-16 0)
(3 -2.74998e-16 0)
(3 -1.79778e-16 0)
(3 -9.79778e-16 0)
(3 -4.37376e-08 0)
(3 -3.37995e-15 0)
(3 -4.52771e-15 0)
(3 -4.42478e-15 0)
(3 -3.75161e-15 0)
(3 -3.36296e-15 0)
(3 -2.80047e-15 0)
(3 -1.72068e-15 0)
(3 -7.58679e-16 0)
(3 -1.06144e-16 0)
(3 -2.41036e-09 0)
(3 -2.92542e-15 0)
(3 -2.71973e-15 0)
(3 -2.20787e-15 0)
(3 -2.43357e-15 0)
(3 -2.08351e-15 0)
(3 -1.35615e-15 0)
(3 -1.11573e-15 0)
(3 -1.76926e-15 0)
(3 2.68644e-16 0)
(3 -9.60192e-11 0)
(3 -3.41253e-15 0)
(3 -2.62311e-15 0)
(3 -1.26048e-15 0)
(3 -1.29541e-15 0)
(3 -9.72717e-16 0)
(3 4.67869e-16 0)
(3 1.0671e-15 0)
(3 1.27555e-15 0)
(3 7.9085e-16 0)
(3 -1.76058e-12 0)
(3 -2.18181e-15 0)
(3 -1.13906e-15 0)
(3 -6.22718e-16 0)
(3 8.38194e-16 0)
(3 1.63041e-15 0)
(3 9.88092e-16 0)
(3 4.66319e-17 0)
(3 -6.68343e-17 0)
(3 1.95325e-16 0)
(3 -4.11819e-14 0)
(3 1.57545e-15 0)
(3 1.56729e-15 0)
(3 1.48222e-15 0)
(3 2.14886e-15 0)
(3 2.85447e-15 0)
(3 2.50182e-15 0)
(3 1.00356e-15 0)
(3 4.29889e-16 0)
(3 3.48516e-16 0)
(3 -3.08566e-16 0)
(3 1.2479e-16 0)
(3 -8.52162e-16 0)
(3 -2.88049e-16 0)
(3 -6.44291e-16 0)
(3 -9.57956e-16 0)
(3 -1.48263e-16 0)
(3 6.74273e-16 0)
(3 1.5302e-15 0)
(3 6.73956e-16 0)
(3 -1.3876e-16 0)
(3 -3.61127e-17 0)
(3 -8.86604e-17 0)
(3 -3.99876e-16 0)
(3 -3.59515e-16 0)
(3 -9.93271e-16 0)
(3 -9.552e-16 0)
(3 -1.24101e-15 0)
(3 -1.14571e-15 0)
(3 -2.14127e-15 0)
(3 1.00209e-15 0)
(3 1.72062e-15 0)
(3 1.90907e-15 0)
(3 1.96297e-15 0)
(3 1.52313e-15 0)
(3 1.44053e-15 0)
(3 7.45385e-16 0)
(3 2.03545e-16 0)
(3 -2.52256e-16 0)
(3 4.30381e-16 0)
(3 -8.52853e-17 0)
(3 5.44479e-16 0)
(3 4.03132e-16 0)
(3 1.81039e-16 0)
(3 -1.91874e-16 0)
(3 -4.58525e-16 0)
(3 -7.85643e-16 0)
(3 -5.09154e-16 0)
(3 -5.19085e-16 0)
(3 1.1988e-15 0)
(3 -9.98992e-18 0)
(3 9.3282e-16 0)
(3 1.42329e-15 0)
(3 1.35001e-15 0)
(3 8.75813e-16 0)
(3 7.18888e-16 0)
(3 5.98548e-16 0)
(3 1.77567e-16 0)
(3 -2.13879e-16 0)
(3 -1.66445e-16 0)
(3 9.1737e-16 0)
(3 1.05168e-15 0)
(3 1.27571e-15 0)
(3 1.26491e-15 0)
(3 1.16998e-15 0)
(3 1.1807e-15 0)
(3 1.06487e-15 0)
(3 5.80402e-16 0)
(3 4.40294e-16 0)
(3 2.12951e-16 0)
(3 1.26263e-16 0)
(3 2.48126e-16 0)
(3 2.6451e-16 0)
(3 2.96079e-16 0)
(3 4.00787e-16 0)
(3 2.36178e-17 0)
(3 -7.20182e-17 0)
(3 4.34722e-17 0)
(3 1.73055e-16 0)
(3 -4.17156e-18 0)
(1.11756 -0.397883 0)
(1.43431 -0.704195 0)
(2.75674 -0.350216 0)
(2.99983 -0.00125408 0)
(2.99992 -0.000257991 0)
(2.99999 -3.84899e-05 0)
(3 -5.05498e-06 0)
(3 -3.83364e-07 0)
(3 -2.97309e-08 0)
(3 -1.49514e-09 0)
(3 -4.37714e-11 0)
(3 -1.22398e-12 0)
(3 -4.7134e-14 0)
(3 -2.04731e-16 0)
(3 -4.73303e-16 0)
(3 6.17602e-16 0)
(3 -1.00626e-15 0)
(3 -8.32967e-16 0)
(3 7.93588e-16 0)
(3 5.4475e-17 0)
(1.05716 -0.647506 0)
(1.08915 -0.783955 0)
(1.30084 -0.786745 0)
(1.87386 -0.6982 0)
(2.95241 -0.0608306 0)
(2.99999 -2.70941e-05 0)
(3 -3.2351e-06 0)
(3 -2.88202e-07 0)
(3 -2.34539e-08 0)
(3 -1.17611e-09 0)
(3 -4.38195e-11 0)
(3 -1.50212e-12 0)
(3 -7.70014e-14 0)
(3 -9.40763e-16 0)
(3 -1.06582e-15 0)
(3 6.22133e-16 0)
(3 -1.82948e-15 0)
(3 -1.03227e-15 0)
(3 8.56152e-16 0)
(3 -2.56367e-16 0)
(1.11393 -0.741598 0)
(1.10742 -0.783073 0)
(1.18003 -0.802546 0)
(1.2252 -0.840173 0)
(1.57061 -0.790566 0)
(2.7663 -0.216321 0)
(2.99983 0.000132316 0)
(3 -2.17669e-07 0)
(3 -1.71006e-08 0)
(3 -1.01885e-09 0)
(3 -4.29739e-11 0)
(3 -2.04812e-12 0)
(3 -8.35611e-14 0)
(3 -1.61566e-15 0)
(3 -9.37792e-16 0)
(3 7.44274e-16 0)
(3 -2.16082e-15 0)
(3 -5.50511e-16 0)
(3 5.84718e-16 0)
(3 -5.8729e-16 0)
(1.13913 -0.781575 0)
(1.13551 -0.79626 0)
(1.18782 -0.800028 0)
(1.21826 -0.847178 0)
(1.24604 -0.86462 0)
(1.49005 -0.833824 0)
(2.59874 -0.339473 0)
(3.00057 0.000784482 0)
(3 -7.58327e-07 0)
(3 1.11461e-09 0)
(3 -5.05987e-11 0)
(3 -2.10752e-12 0)
(3 -8.09986e-14 0)
(3 -2.39659e-15 0)
(3 5.46018e-16 0)
(3 4.24254e-16 0)
(3 -2.43564e-15 0)
(3 -1.85442e-16 0)
(3 7.02039e-16 0)
(3 4.63561e-16 0)
(1.15706 -0.799776 0)
(1.15475 -0.811046 0)
(1.19047 -0.808865 0)
(1.21607 -0.849226 0)
(1.25304 -0.867212 0)
(1.27776 -0.883192 0)
(1.45052 -0.859015 0)
(2.50509 -0.383904 0)
(3.00121 0.000974371 0)
(3 -8.75051e-08 0)
(3 -4.50875e-11 0)
(3 -2.2273e-12 0)
(3 -7.24397e-14 0)
(3 -3.28876e-15 0)
(3 7.74874e-16 0)
(3 8.50923e-16 0)
(3 -1.48566e-15 0)
(3 5.6402e-17 0)
(3 1.60143e-15 0)
(3 8.42314e-16 0)
(1.17078 -0.812627 0)
(1.16863 -0.821262 0)
(1.19365 -0.817538 0)
(1.21839 -0.848173 0)
(1.25619 -0.868402 0)
(1.28526 -0.883453 0)
(1.30259 -0.891644 0)
(1.46309 -0.857808 0)
(2.50932 -0.396415 0)
(3.00158 0.0013946 0)
(3 -2.42908e-06 0)
(3 4.00079e-09 0)
(3 -1.88224e-11 0)
(3 -3.01027e-15 0)
(3 8.1979e-16 0)
(3 1.04731e-15 0)
(3 -8.97687e-16 0)
(3 7.57536e-17 0)
(3 2.33285e-15 0)
(3 1.41622e-15 0)
(1.18097 -0.821601 0)
(1.17953 -0.828219 0)
(1.20044 -0.823343 0)
(1.22544 -0.849154 0)
(1.26355 -0.866843 0)
(1.29074 -0.884998 0)
(1.30976 -0.892856 0)
(1.31769 -0.902163 0)
(1.44483 -0.853349 0)
(2.55881 -0.33578 0)
(3.00165 0.00131837 0)
(3 -2.93074e-06 0)
(3 3.72739e-09 0)
(3 -5.37239e-15 0)
(3 1.99882e-15 0)
(3 1.50617e-15 0)
(3 -4.66117e-16 0)
(3 2.80751e-17 0)
(3 2.59739e-15 0)
(3 1.70621e-15 0)
(1.19006 -0.827874 0)
(1.18951 -0.833974 0)
(1.20927 -0.828914 0)
(1.23303 -0.852372 0)
(1.27038 -0.867771 0)
(1.29747 -0.885543 0)
(1.31252 -0.896584 0)
(1.31935 -0.903532 0)
(1.32182 -0.90694 0)
(1.50641 -0.815634 0)
(2.66466 -0.223509 0)
(3.00143 0.000986051 0)
(3 -2.84547e-06 0)
(3 5.38002e-09 0)
(3 3.27286e-11 0)
(3 -1.10912e-13 0)
(3 -7.12376e-15 0)
(3 2.00403e-16 0)
(3 1.91118e-15 0)
(3 1.3208e-15 0)
(1.19911 -0.833684 0)
(1.19921 -0.839799 0)
(1.21833 -0.835123 0)
(1.24078 -0.857695 0)
(1.2763 -0.873633 0)
(1.30298 -0.889852 0)
(1.31657 -0.902817 0)
(1.32962 -0.903635 0)
(1.34393 -0.908226 0)
(1.37667 -0.911983 0)
(1.72144 -0.7659 0)
(2.80377 -0.130688 0)
(3.00097 0.00070027 0)
(3 -2.95283e-06 0)
(3 2.19576e-08 0)
(3 7.79766e-11 0)
(3 1.26949e-12 0)
(3 5.54717e-16 0)
(3 1.27285e-15 0)
(3 9.33044e-16 0)
(1.20853 -0.840303 0)
(1.20905 -0.846357 0)
(1.22721 -0.842093 0)
(1.24695 -0.864204 0)
(1.2812 -0.879188 0)
(1.308 -0.896105 0)
(1.32495 -0.910077 0)
(1.34206 -0.909478 0)
(1.35526 -0.91587 0)
(1.36016 -0.934428 0)
(1.39594 -0.954341 0)
(2.0534 -0.651707 0)
(2.94412 -0.0466156 0)
(3.00026 0.000237304 0)
(3 -8.85573e-07 0)
(3 -1.39309e-08 0)
(3 3.41476e-11 0)
(3 5.94629e-13 0)
(3 3.25977e-15 0)
(3 7.8897e-16 0)
(1.21868 -0.848002 0)
(1.21908 -0.853442 0)
(1.23527 -0.850291 0)
(1.2519 -0.871691 0)
(1.2855 -0.884067 0)
(1.31227 -0.903433 0)
(1.33315 -0.916874 0)
(1.35084 -0.918916 0)
(1.35995 -0.927688 0)
(1.36239 -0.936314 0)
(1.37493 -0.943449 0)
(1.49602 -0.91719 0)
(2.41975 -0.446251 0)
(2.99422 -0.00772138 0)
(3.00003 5.0331e-05 0)
(3 7.22665e-07 0)
(3 -2.74209e-09 0)
(3 -7.57687e-11 0)
(3 6.20904e-14 0)
(3 2.90981e-15 0)
(1.23018 -0.856901 0)
(1.23014 -0.860831 0)
(1.24318 -0.85911 0)
(1.25845 -0.877706 0)
(1.29009 -0.888888 0)
(1.31717 -0.908895 0)
(1.33923 -0.922772 0)
(1.35383 -0.928038 0)
(1.35951 -0.934262 0)
(1.36532 -0.936725 0)
(1.38425 -0.940461 0)
(1.40988 -0.943872 0)
(1.57777 -0.843335 0)
(2.62204 -0.247743 0)
(3.00035 -0.000740962 0)
(3 2.95614e-07 0)
(3 3.34195e-08 0)
(3 1.59012e-10 0)
(3 -2.48989e-12 0)
(3 -2.63329e-13 0)
(1.2442 -0.867086 0)
(1.24423 -0.870353 0)
(1.2554 -0.868374 0)
(1.26984 -0.883807 0)
(1.30078 -0.893819 0)
(1.32785 -0.914107 0)
(1.35028 -0.927333 0)
(1.36297 -0.934112 0)
(1.37056 -0.937796 0)
(1.38159 -0.9369 0)
(1.40598 -0.938097 0)
(1.42537 -0.945399 0)
(1.44424 -0.95658 0)
(1.9293 -0.726355 0)
(2.88535 -0.0908543 0)
(3.00054 0.000472232 0)
(3.00002 1.98136e-05 0)
(3 1.61556e-07 0)
(3 -4.74224e-10 0)
(3 -3.84838e-11 0)
(1.26898 -0.875856 0)
(1.27043 -0.880359 0)
(1.28207 -0.878806 0)
(1.30002 -0.892408 0)
(1.33306 -0.901313 0)
(1.36211 -0.920846 0)
(1.38592 -0.932231 0)
(1.39889 -0.939499 0)
(1.40832 -0.941207 0)
(1.4221 -0.937289 0)
(1.44515 -0.938811 0)
(1.46175 -0.949166 0)
(1.46231 -0.958842 0)
(1.51908 -0.93154 0)
(2.33028 -0.48248 0)
(2.98258 -0.0237062 0)
(2.99997 -4.66003e-05 0)
(3 4.54495e-08 0)
(3 4.71978e-09 0)
(3 3.18987e-11 0)
(1.36492 -0.894911 0)
(1.37176 -0.901761 0)
(1.39369 -0.895905 0)
(1.41774 -0.909585 0)
(1.44841 -0.913868 0)
(1.47029 -0.927974 0)
(1.4845 -0.934517 0)
(1.48935 -0.9397 0)
(1.4906 -0.94108 0)
(1.49922 -0.937177 0)
(1.51141 -0.942468 0)
(1.5196 -0.952225 0)
(1.51693 -0.961291 0)
(1.53033 -0.970526 0)
(1.82528 -0.828845 0)
(2.84962 -0.128511 0)
(3.00505 0.00482369 0)
(3.00029 0.00037244 0)
(3 3.48474e-06 0)
(3 1.64115e-08 0)
(2.01062 -0.789911 0)
(2.04739 -0.662726 0)
(1.86082 -0.776725 0)
(1.78562 -0.827598 0)
(1.75004 -0.847692 0)
(1.70359 -0.886271 0)
(1.68593 -0.896411 0)
(1.64863 -0.916735 0)
(1.63093 -0.920429 0)
(1.61592 -0.924808 0)
(1.60487 -0.936643 0)
(1.60282 -0.944683 0)
(1.58994 -0.952944 0)
(1.57613 -0.963092 0)
(1.62016 -0.937332 0)
(2.04971 -0.701161 0)
(2.88401 -0.116799 0)
(2.99913 -0.00228923 0)
(3 -7.04788e-06 0)
(3 -8.89085e-09 0)
(2.58687 -0.774981 0)
(2.4994 -0.280011 0)
(2.24233 -0.530778 0)
(2.12013 -0.658491 0)
(2.01539 -0.740914 0)
(1.96407 -0.770549 0)
(1.88519 -0.824382 0)
(1.83638 -0.852949 0)
(1.79563 -0.871003 0)
(1.74638 -0.898025 0)
(1.72747 -0.908402 0)
(1.70291 -0.926793 0)
(1.68101 -0.932915 0)
(1.6503 -0.941701 0)
(1.64313 -0.932942 0)
(1.6991 -0.920804 0)
(2.31858 -0.580539 0)
(2.94696 -0.0664485 0)
(2.99954 -0.00092456 0)
(3 -3.78663e-06 0)
(2.71015 -0.151454 0)
(2.70171 0.185991 0)
(2.49513 -0.180169 0)
(2.39328 -0.357087 0)
(2.26131 -0.539835 0)
(2.17418 -0.623506 0)
(2.06671 -0.724645 0)
(2.01731 -0.756983 0)
(1.93103 -0.820108 0)
(1.88938 -0.845528 0)
(1.83959 -0.875355 0)
(1.80384 -0.89885 0)
(1.76904 -0.908017 0)
(1.72825 -0.915875 0)
(1.70464 -0.922044 0)
(1.69932 -0.930052 0)
(1.91185 -0.855226 0)
(2.66228 -0.349385 0)
(2.99015 -0.017713 0)
(2.99993 -0.00012828 0)
(2.85359 0.0795992 0)
(2.78828 0.222194 0)
(2.59671 -0.121942 0)
(2.52245 -0.227248 0)
(2.4617 -0.312539 0)
(2.30737 -0.512438 0)
(2.24801 -0.580389 0)
(2.14221 -0.683069 0)
(2.06435 -0.74888 0)
(2.0241 -0.774175 0)
(1.94081 -0.835065 0)
(1.91313 -0.847647 0)
(1.85192 -0.876498 0)
(1.81592 -0.879923 0)
(1.78534 -0.896216 0)
(1.74249 -0.927397 0)
(1.78042 -0.939276 0)
(2.19276 -0.719883 0)
(2.87014 -0.154536 0)
(2.99815 -0.00269943 0)
(2.82168 0.128918 0)
(2.77863 0.167605 0)
(2.64141 0.0399471 0)
(2.61839 -0.0113469 0)
(2.5401 -0.234207 0)
(2.45124 -0.369085 0)
(2.3884 -0.447223 0)
(2.26672 -0.582307 0)
(2.22293 -0.619947 0)
(2.12367 -0.707091 0)
(2.06884 -0.749704 0)
(2.01302 -0.784982 0)
(1.94372 -0.828224 0)
(1.89984 -0.841158 0)
(1.86315 -0.868097 0)
(1.81258 -0.912155 0)
(1.79882 -0.937339 0)
(1.96158 -0.885752 0)
(2.60199 -0.434336 0)
(2.97582 -0.0327367 0)
(2.78245 0.143603 0)
(2.75911 0.147835 0)
(2.6743 0.151695 0)
(2.66305 0.18407 0)
(2.62768 -0.0111188 0)
(2.59424 -0.132926 0)
(2.48965 -0.313352 0)
(2.41064 -0.420397 0)
(2.332 -0.51082 0)
(2.22721 -0.627283 0)
(2.1782 -0.665662 0)
(2.08593 -0.747573 0)
(2.0386 -0.768728 0)
(1.96721 -0.813848 0)
(1.93484 -0.841369 0)
(1.88081 -0.884959 0)
(1.83671 -0.927527 0)
(1.90075 -0.93626 0)
(2.23124 -0.750605 0)
(2.85309 -0.134499 0)
(2.78248 0.111551 0)
(2.75886 0.119755 0)
(2.71615 0.168992 0)
(2.70142 0.198191 0)
(2.67415 0.0407573 0)
(2.65414 -0.0253897 0)
(2.56582 -0.20151 0)
(2.50923 -0.303084 0)
(2.38303 -0.475678 0)
(2.32381 -0.545501 0)
(2.24231 -0.632376 0)
(2.16794 -0.69748 0)
(2.11555 -0.719036 0)
(2.05131 -0.767132 0)
(2.00352 -0.807497 0)
(1.96028 -0.838979 0)
(1.8994 -0.899078 0)
(1.90861 -0.9321 0)
(2.08848 -0.875831 0)
(2.56904 -0.369095 0)
(2.7842 0.101775 0)
(2.76084 0.107068 0)
(2.71589 0.143827 0)
(2.70703 0.146267 0)
(2.67972 0.0536333 0)
(2.66557 -6.79099e-05 0)
(2.6196 -0.133154 0)
(2.55328 -0.257069 0)
(2.46755 -0.384619 0)
(2.41494 -0.451138 0)
(2.31693 -0.56555 0)
(2.27742 -0.59536 0)
(2.17743 -0.676778 0)
(2.13729 -0.696243 0)
(2.07452 -0.763541 0)
(2.01632 -0.811693 0)
(1.95679 -0.867947 0)
(1.93416 -0.916895 0)
(2.03616 -0.950353 0)
(2.30859 -0.505533 0)
(2.76452 0.103469 0)
(2.74392 0.0994825 0)
(2.71254 0.118085 0)
(2.69617 0.121353 0)
(2.69047 0.0989558 0)
(2.71031 0.116352 0)
(2.68258 0.00152745 0)
(2.62284 -0.141433 0)
(2.57264 -0.221613 0)
(2.48983 -0.337152 0)
(2.41521 -0.437097 0)
(2.34478 -0.507464 0)
(2.25524 -0.609056 0)
(2.19556 -0.663381 0)
(2.13484 -0.734166 0)
(2.06011 -0.796919 0)
(2.01304 -0.834235 0)
(1.98622 -0.887013 0)
(2.01601 -0.935511 0)
(2.03948 -0.620498 0)
(2.74876 0.0888246 0)
(2.73147 0.0833235 0)
(2.7085 0.0901669 0)
(2.69788 0.107131 0)
(2.70639 0.12895 0)
(2.72424 0.171405 0)
(2.70968 0.0720963 0)
(2.6818 -0.0121348 0)