/*--------------------------------*- C++ -*----------------------------------*\
  =========                 |
  \\      /  F ield         | OpenFOAM: The Open Source CFD Toolbox
   \\    /   O peration     | Website:  https://openfoam.org
    \\  /    A nd           | Version:  7
     \\/     M anipulation  |
\*---------------------------------------------------------------------------*/
FoamFile
{
    version     2.0;
    format      ascii;
    class       volScalarField;
    location    "9.5";
    object      p;
}
// * * * * * * * * * * * * * * * * * * * * * * * * * * * * * * * * * * * * * //

dimensions      [1 -1 -2 0 0 0 0];

internalField   nonuniform List<scalar> 
90000
(
0.877608
0.879923
0.882977
0.88706
0.891308
0.896168
0.900755
0.905692
0.910124
0.91477
0.91881
0.923052
0.926569
0.930762
0.93459
0.938997
0.94323
0.948447
0.953929
0.960649
0.967688
0.975848
0.983709
0.992003
0.998942
1.00628
1.01119
1.01525
1.01923
1.02054
1.02076
1.02089
1.02035
1.01861
1.01429
1.00588
0.996959
0.9906
0.986734
0.987112
0.988661
0.991026
0.993934
0.99634
0.998134
0.999379
0.999347
0.998728
0.997153
0.994344
0.991933
0.990514
0.990516
0.991573
0.993777
0.99714
0.999679
1.0008
1.00002
0.998678
0.996482
0.995499
0.995909
0.997201
0.999176
0.999511
0.999081
0.99779
0.996528
0.996259
0.996714
0.997932
0.998002
0.997719
0.997176
0.996933
0.997335
0.997885
0.997875
0.997413
0.99706
0.99695
0.996955
0.997057
0.997243
0.997606
0.99775
0.997932
0.998051
0.998191
0.998311
0.998276
0.998093
0.99782
0.997718
0.997724
0.997788
0.997864
0.99781
0.997775
0.876421
0.876721
0.877481
0.878689
0.880322
0.882395
0.884861
0.887721
0.890919
0.894454
0.898262
0.902289
0.906545
0.910515
0.914499
0.918434
0.922414
0.92637
0.930587
0.934991
0.939938
0.945282
0.951158
0.95769
0.964255
0.971457
0.978426
0.985361
0.991687
0.997396
1.00243
1.0074
1.00934
1.01093
1.01221
1.01241
1.01193
1.00977
1.00526
0.999832
0.994835
0.991293
0.989733
0.990215
0.991273
0.992814
0.994809
0.9968
0.999114
0.999082
0.998155
0.995912
0.993578
0.991728
0.991877
0.992971
0.994831
0.997339
0.999869
1.00048
0.999618
0.997677
0.996029
0.99592
0.996515
0.997935
0.999374
0.999005
0.997767
0.996365
0.99607
0.996559
0.997604
0.99793
0.997502
0.996915
0.996928
0.997494
0.997852
0.997682
0.997124
0.996794
0.996894
0.997144
0.99726
0.997373
0.997784
0.997997
0.998052
0.998182
0.998362
0.998274
0.998047
0.997787
0.997709
0.997725
0.997822
0.997895
0.997803
0.997802
0.876315
0.876308
0.876318
0.87635
0.876416
0.876539
0.876752
0.877085
0.877584
0.878261
0.879176
0.880339
0.881858
0.883642
0.885777
0.888125
0.890841
0.893779
0.897056
0.900542
0.904365
0.90847
0.913016
0.917969
0.92352
0.929522
0.936523
0.943693
0.951659
0.960596
0.96876
0.977471
0.985638
0.993677
0.999276
1.00439
1.0065
1.00778
1.00823
1.00754
1.00676
1.00452
1.00096
0.997189
0.994446
0.992935
0.993164
0.99377
0.994905
0.996145
0.997257
0.998302
0.998133
0.996846
0.995059
0.993008
0.993137
0.994162
0.996392
0.998473
1.00067
1.0005
0.99885
0.997014
0.996137
0.996709
0.99785
0.999046
0.998738
0.997511
0.996344
0.996463
0.997037
0.997729
0.997701
0.997326
0.997079
0.997275
0.997677
0.997727
0.997522
0.997141
0.997002
0.997059
0.997141
0.997363
0.997637
0.997869
0.998028
0.998147
0.998275
0.998271
0.998192
0.99797
0.997813
0.99775
0.997776
0.997836
0.99782
0.997832
0.876253
0.876242
0.876217
0.876188
0.876168
0.876152
0.876141
0.876142
0.876158
0.876177
0.876206
0.87625
0.876353
0.876521
0.876781
0.877166
0.8777
0.878414
0.879354
0.880556
0.88208
0.883925
0.886225
0.888866
0.892152
0.895917
0.900489
0.90564
0.911922
0.918637
0.926932
0.935655
0.94536
0.955616
0.966307
0.976955
0.98509
0.993097
0.998067
1.00249
1.00352
1.00399
1.00388
1.00284
1.00172
0.999631
0.99725
0.99514
0.994162
0.994504
0.995228
0.996124
0.996853
0.996958
0.996695
0.995593
0.994367
0.993792
0.994337
0.995532
0.997285
0.998674
0.999796
0.999271
0.997901
0.996476
0.996539
0.99726
0.998375
0.99843
0.997633
0.996547
0.996394
0.996881
0.997639
0.997621
0.997277
0.997053
0.997335
0.997712
0.997715
0.99738
0.997015
0.997052
0.997179
0.997311
0.997528
0.997867
0.998052
0.99815
0.998282
0.998289
0.998197
0.998011
0.99782
0.997766
0.997759
0.997842
0.997856
0.997862
0.876172
0.876172
0.876172
0.876167
0.876159
0.876146
0.876124
0.876089
0.876037
0.875985
0.875947
0.875937
0.875916
0.875903
0.875898
0.875913
0.87593
0.875958
0.876006
0.87608
0.876192
0.876362
0.876718
0.877276
0.878045
0.87908
0.880516
0.882337
0.884836
0.88794
0.892067
0.897004
0.903572
0.91095
0.920175
0.930553
0.942236
0.954595
0.9659
0.977728
0.985729
0.992308
0.9966
0.999529
1.00033
1.00084
1.00042
1.00037
0.99989
0.999053
0.997832
0.996619
0.995946
0.99579
0.995967
0.995992
0.995964
0.995687
0.995284
0.995085
0.995306
0.996101
0.99731
0.998238
0.999077
0.998459
0.997408
0.996655
0.9971
0.99766
0.998158
0.997649
0.996907
0.996524
0.996906
0.997525
0.997575
0.997316
0.997201
0.997448
0.997746
0.997626
0.99725
0.997045
0.997123
0.997267
0.997452
0.997713
0.997997
0.99809
0.998176
0.998222
0.998216
0.998127
0.997949
0.997794
0.99775
0.997812
0.997859
0.997887
0.876054
0.876054
0.876055
0.876055
0.876055
0.876052
0.876049
0.876041
0.876023
0.875999
0.875976
0.875959
0.875947
0.875934
0.875911
0.875871
0.875825
0.875792
0.87578
0.875783
0.875801
0.875862
0.875864
0.87588
0.875901
0.875947
0.876029
0.876181
0.876439
0.876851
0.877681
0.878942
0.880823
0.88348
0.887281
0.892326
0.899469
0.907873
0.919157
0.931122
0.944912
0.958516
0.970596
0.981901
0.988756
0.995454
0.99852
0.999619
0.999716
0.999669
0.99924
0.998357
0.997201
0.996648
0.996641
0.996707
0.996664
0.996351
0.995742
0.995026
0.994553
0.994671
0.995234
0.996754
0.997844
0.998241
0.998069
0.997362
0.996972
0.997134
0.997572
0.997776
0.997469
0.996908
0.996669
0.996979
0.99736
0.99755
0.997424
0.997342
0.997521
0.997712
0.997577
0.997268
0.997123
0.997219
0.9974
0.997657
0.997907
0.9981
0.998149
0.998198
0.998218
0.998184
0.998024
0.997843
0.997759
0.997807
0.99786
0.997925
0.875932
0.875933
0.875934
0.875935
0.875938
0.875943
0.875946
0.875946
0.875943
0.875939
0.875938
0.87594
0.875939
0.875937
0.875936
0.875936
0.875935
0.875926
0.875917
0.875911
0.875898
0.875877
0.875869
0.875853
0.875843
0.875852
0.87588
0.875938
0.876037
0.876273
0.876286
0.876322
0.876415
0.876619
0.877013
0.87783
0.879356
0.881712
0.885724
0.891236
0.899661
0.910283
0.923044
0.93801
0.952624
0.966694
0.976971
0.987332
0.991553
0.995246
0.995828
0.996151
0.997183
0.998654
0.999112
0.99892
0.998178
0.996945
0.995895
0.995085
0.994627
0.994734
0.995232
0.995629
0.996336
0.997166
0.997185
0.997416
0.997624
0.997463
0.99735
0.997395
0.997397
0.997309
0.997043
0.996885
0.997026
0.99731
0.997604
0.997519
0.997419
0.99752
0.99761
0.997533
0.997285
0.997224
0.997324
0.997535
0.997798
0.997989
0.998057
0.998159
0.998216
0.998235
0.998116
0.997916
0.997766
0.997805
0.997875
0.997954
0.875817
0.87582
0.875823
0.875828
0.875833
0.875841
0.875847
0.875853
0.875858
0.875863
0.875871
0.875879
0.87589
0.875902
0.875915
0.875928
0.875943
0.87596
0.875973
0.87599
0.87601
0.876032
0.876046
0.876056
0.87607
0.876089
0.876094
0.876103
0.876127
0.876167
0.876225
0.876293
0.876379
0.876487
0.876744
0.876745
0.876783
0.876903
0.8772
0.877795
0.8793
0.881945
0.887002
0.894039
0.905095
0.91794
0.933758
0.95012
0.963795
0.977105
0.985449
0.992417
0.995492
0.997524
0.997909
0.997976
0.997628
0.99665
0.996227
0.996497
0.996453
0.996101
0.99555
0.995112
0.995059
0.995387
0.995977
0.996954
0.99754
0.99763
0.997438
0.997291
0.997365
0.997419
0.997303
0.99704
0.996978
0.997123
0.997373
0.997594
0.997534
0.997481
0.997576
0.997628
0.997532
0.997317
0.997343
0.997445
0.997649
0.997893
0.998011
0.998086
0.998215
0.998263
0.998199
0.998003
0.997799
0.997813
0.997891
0.997982
0.87574
0.875748
0.875756
0.875764
0.875774
0.875784
0.875794
0.875805
0.875818
0.87583
0.875844
0.875861
0.87588
0.8759
0.875923
0.875946
0.87597
0.875991
0.876017
0.87605
0.876085
0.876119
0.876154
0.876191
0.876225
0.876257
0.876291
0.87633
0.876369
0.876403
0.876442
0.876483
0.876531
0.876581
0.876638
0.876721
0.87681
0.876907
0.877031
0.8773
0.877295
0.877372
0.87768
0.878569
0.880828
0.884771
0.892272
0.902335
0.917131
0.932706
0.948887
0.965906
0.97605
0.98555
0.989189
0.992759
0.993934
0.995979
0.99746
0.9984
0.998131
0.997435
0.995881
0.994592
0.994438
0.994942
0.995882
0.996525
0.996816
0.99701
0.997197
0.997485
0.997534
0.99749
0.997335
0.997169
0.997136
0.997185
0.997229
0.997357
0.997453
0.997513
0.997599
0.997639
0.99763
0.997526
0.997424
0.997432
0.997494
0.997691
0.997955
0.998068
0.998195
0.998251
0.998232
0.998109
0.997843
0.997846
0.997916
0.997999
0.875774
0.875783
0.875793
0.875805
0.875817
0.87583
0.875846
0.875862
0.875878
0.875894
0.875912
0.875933
0.875954
0.875973
0.875996
0.876024
0.876053
0.876085
0.876117
0.876147
0.876178
0.876215
0.876255
0.876292
0.876334
0.876379
0.876417
0.876452
0.876489
0.876531
0.876571
0.87661
0.876655
0.8767
0.876734
0.876772
0.876815
0.87686
0.876907
0.876963
0.877061
0.877151
0.877307
0.877272
0.877313
0.877505
0.878368
0.880318
0.884832
0.89185
0.903862
0.918193
0.935662
0.953445
0.967351
0.980158
0.987809
0.99377
0.995438
0.996773
0.99661
0.995581
0.995337
0.995497
0.995821
0.995956
0.995814
0.995616
0.995636
0.99606
0.996694
0.997402
0.99764
0.997434
0.997241
0.997283
0.997384
0.997339
0.997202
0.997214
0.997301
0.997454
0.997619
0.997645
0.997701
0.997694
0.997562
0.997441
0.997409
0.997511
0.99779
0.998034
0.998201
0.998238
0.998246
0.998181
0.997957
0.997888
0.997939
0.998012
0.875952
0.87596
0.875973
0.87599
0.876006
0.876021
0.876036
0.876052
0.876063
0.876077
0.876095
0.876115
0.876131
0.876144
0.876165
0.876189
0.876215
0.876246
0.876268
0.876283
0.876303
0.876331
0.87636
0.876393
0.876424
0.876451
0.876477
0.876503
0.87653
0.876556
0.876582
0.876615
0.876651
0.876685
0.876719
0.876753
0.876783
0.876811
0.876837
0.876862
0.876899
0.876943
0.876986
0.87705
0.877115
0.877145
0.877063
0.877079
0.877373
0.878282
0.880837
0.885496
0.89468
0.906813
0.924007
0.942172
0.957836
0.973672
0.980879
0.988479
0.990371
0.992887
0.995006
0.997438
0.997423
0.997083
0.996147
0.99499
0.995044
0.995427
0.996174
0.996913
0.99716
0.997131
0.997284
0.997563
0.997544
0.997399
0.997214
0.997191
0.99725
0.99736
0.997518
0.997638
0.997808
0.997801
0.997701
0.997491
0.997386
0.997442
0.99764
0.997924
0.998158
0.998246
0.998261
0.998232
0.998122
0.997959
0.997978
0.998022
0.876206
0.876216
0.876238
0.87626
0.876264
0.876265
0.87627
0.87628
0.876293
0.876309
0.876322
0.876335
0.87635
0.876353
0.876355
0.876364
0.876385
0.876407
0.87641
0.876412
0.876418
0.876432
0.876441
0.876449
0.876461
0.876478
0.876487
0.876493
0.876502
0.876511
0.876524
0.876541
0.876558
0.876577
0.876603
0.876632
0.876658
0.876682
0.876705
0.876731
0.876759
0.876785
0.876816
0.876864
0.87689
0.876903
0.876919
0.87692
0.876834
0.876768
0.876866
0.877291
0.878714
0.881707
0.888553
0.898522
0.914496
0.932329
0.950555
0.968136
0.978795
0.989435
0.992886
0.995938
0.995857
0.994967
0.994699
0.995039
0.995648
0.99617
0.996124
0.996076
0.996239
0.996745
0.997405
0.997777
0.997592
0.997372
0.997326
0.997287
0.997272
0.997284
0.997379
0.997609
0.997863
0.997849
0.997758
0.997553
0.997398
0.997426
0.99755
0.997795
0.998042
0.998223
0.998267
0.998261
0.998235
0.9981
0.998033
0.998028
0.876435
0.876447
0.876457
0.876463
0.876466
0.876469
0.876475
0.876484
0.876496
0.876507
0.876517
0.876526
0.876532
0.876532
0.876531
0.876538
0.87654
0.876539
0.876534
0.876528
0.876523
0.876516
0.876505
0.876498
0.876495
0.876489
0.876477
0.876463
0.876452
0.876447
0.876443
0.876439
0.87643
0.876432
0.87644
0.876451
0.876463
0.876479
0.876501
0.876531
0.876568
0.876611
0.876664
0.876719
0.876749
0.87676
0.876775
0.87677
0.876734
0.876685
0.876581
0.876501
0.876541
0.876762
0.877567
0.879543
0.88458
0.892782
0.907547
0.924559
0.943651
0.962625
0.973203
0.984109
0.987153
0.990697
0.993776
0.996861
0.997136
0.996785
0.995891
0.995442
0.9958
0.996637
0.997229
0.997393
0.99731
0.997397
0.99755
0.997487
0.997306
0.997236
0.997313
0.997586
0.997864
0.997863
0.997785
0.997666
0.997511
0.997464
0.997518
0.997671
0.997889
0.998133
0.998255
0.998296
0.998326
0.998251
0.998114
0.998035
0.876573
0.876581
0.876588
0.876594
0.8766
0.876606
0.876613
0.876621
0.876629
0.876638
0.876648
0.876659
0.876669
0.876674
0.876678
0.876679
0.876675
0.876666
0.876655
0.876642
0.876627
0.876609
0.876589
0.876567
0.876544
0.876518
0.87649
0.876464
0.876437
0.876409
0.876381
0.876353
0.876326
0.8763
0.876274
0.876257
0.876258
0.876267
0.876283
0.876311
0.876349
0.876395
0.876454
0.876513
0.876569
0.876626
0.876655
0.876651
0.876632
0.876592
0.876516
0.876403
0.876294
0.876238
0.87626
0.87638
0.87688
0.87828
0.882195
0.8891
0.902474
0.918853
0.938874
0.958748
0.972625
0.986417
0.991216
0.995334
0.995344
0.994512
0.994394
0.995223
0.996154
0.9968
0.996791
0.996673
0.996885
0.997414
0.997697
0.997565
0.99731
0.997244
0.997357
0.997534
0.997749
0.997757
0.997746
0.997747
0.997678
0.997527
0.997538
0.997585
0.997722
0.997965
0.998201
0.998322
0.998385
0.998346
0.998219
0.998061
0.876674
0.876677
0.876682
0.876687
0.876692
0.876698
0.876706
0.876713
0.876719
0.876727
0.876738
0.87675
0.87676
0.876768
0.876776
0.876784
0.876787
0.876783
0.876776
0.876766
0.876751
0.876732
0.876712
0.876689
0.876662
0.876628
0.87659
0.876551
0.87651
0.876466
0.876417
0.876368
0.876315
0.876259
0.876204
0.876154
0.876118
0.876103
0.876103
0.87611
0.876127
0.876163
0.876213
0.876275
0.876352
0.876437
0.876502
0.87653
0.876534
0.876515
0.876453
0.876342
0.876181
0.876026
0.875977
0.875981
0.876016
0.876149
0.876588
0.877705
0.880795
0.886707
0.899125
0.914924
0.935467
0.956371
0.969257
0.982597
0.986286
0.990556
0.993889
0.996879
0.996772
0.996511
0.995834
0.995972
0.99679
0.997395
0.997482
0.997408
0.997387
0.997471
0.997571
0.997545
0.997552
0.997593
0.997724
0.99782
0.997798
0.997686
0.997608
0.99756
0.997613
0.997795
0.998084
0.998348
0.998415
0.998392
0.998301
0.99811
0.876688
0.876691
0.876696
0.876702
0.876708
0.876714
0.876722
0.876729
0.876737
0.876747
0.876758
0.876769
0.876781
0.876793
0.876806
0.876818
0.876831
0.876849
0.876868
0.876868
0.876858
0.876851
0.876844
0.876831
0.87681
0.876781
0.876745
0.876706
0.876662
0.876612
0.876557
0.876496
0.876425
0.876344
0.876262
0.876182
0.876108
0.876042
0.876
0.875982
0.875977
0.875978
0.875992
0.876027
0.876092
0.87618
0.87627
0.87635
0.876397
0.876397
0.876365
0.87629
0.876153
0.875948
0.875758
0.875716
0.875745
0.875828
0.876015
0.876319
0.876706
0.877529
0.880033
0.885275
0.897061
0.91291
0.934246
0.955979
0.971694
0.986538
0.9912
0.99496
0.994747
0.993967
0.994646
0.996014
0.997088
0.997025
0.996963
0.997082
0.997522
0.997755
0.997639
0.997425
0.997363
0.997492
0.997715
0.997828
0.997835
0.997799
0.997689
0.997543
0.997553
0.997672
0.997945
0.99829
0.998428
0.99842
0.998355
0.998162
0.876648
0.876651
0.876658
0.876663
0.876666
0.876672
0.87668
0.876688
0.876696
0.876706
0.876717
0.876729
0.876741
0.876754
0.87677
0.876789
0.87681
0.87683
0.876852
0.876876
0.876904
0.876934
0.876954
0.876955
0.876946
0.876933
0.876915
0.876886
0.876847
0.876801
0.876748
0.876683
0.876606
0.876521
0.876428
0.876329
0.876222
0.876111
0.876006
0.875918
0.875857
0.875833
0.875823
0.875819
0.875835
0.875883
0.875979
0.876116
0.876231
0.876282
0.876281
0.876256
0.876185
0.876038
0.875812
0.875614
0.875589
0.875628
0.875768
0.875997
0.876394
0.876636
0.876768
0.877298
0.879394
0.884373
0.896297
0.912572
0.934497
0.956878
0.97018
0.982778
0.986259
0.990881
0.995327
0.996911
0.996732
0.996064
0.996264
0.996905
0.997668
0.997777
0.997625
0.99728
0.997348
0.997548
0.997674
0.997769
0.997875
0.997875
0.997791
0.997593
0.997547
0.997628
0.997842
0.998146
0.998384
0.998425
0.998377
0.998211
0.876556
0.876558
0.876562
0.876565
0.876568
0.876572
0.876577
0.876582
0.876588
0.876597
0.876605
0.876613
0.876623
0.876638
0.876656
0.876673
0.876693
0.876717
0.876744
0.876778
0.87682
0.876868
0.876916
0.876957
0.876987
0.877003
0.877003
0.876993
0.876976
0.876954
0.876922
0.876874
0.876811
0.876736
0.876651
0.876553
0.876438
0.876301
0.876151
0.875999
0.875854
0.875746
0.875708
0.875694
0.875685
0.87569
0.875736
0.875839
0.875991
0.876137
0.876234
0.876266
0.876259
0.876198
0.876047
0.875816
0.875635
0.875613
0.875681
0.875822
0.876096
0.876393
0.876655
0.876611
0.876565
0.876954
0.879023
0.884311
0.896866
0.914116
0.936677
0.95911
0.9746
0.987858
0.992437
0.995312
0.994035
0.994438
0.9957
0.996957
0.997421
0.997342
0.997082
0.997252
0.997647
0.997675
0.997602
0.997648
0.997806
0.997885
0.997812
0.997676
0.997591
0.997663
0.997798
0.998005
0.99828
0.998416
0.998373
0.998246
0.876401
0.876402
0.876402
0.876402
0.876402
0.876403
0.876404
0.876408
0.876415
0.876423
0.876432
0.876444
0.876458
0.876475
0.876492
0.87651
0.876532
0.876556
0.876585
0.876618
0.876658
0.876706
0.876763
0.876823
0.876876
0.876918
0.876948
0.876971
0.876995
0.877001
0.87699
0.876971
0.876944
0.876901
0.876844
0.876771
0.876675
0.87655
0.876394
0.876207
0.876
0.875805
0.875683
0.875647
0.875636
0.875632
0.875642
0.875702
0.875817
0.875975
0.876153
0.876323
0.876401
0.876405
0.876355
0.8762
0.875952
0.875748
0.875713
0.875751
0.875868
0.876087
0.87637
0.876491
0.876521
0.876343
0.876237
0.876732
0.879265
0.885312
0.898852
0.916881
0.939468
0.962013
0.97314
0.984767
0.988669
0.99369
0.996969
0.99688
0.996529
0.996134
0.99648
0.997457
0.997839
0.997739
0.997549
0.997612
0.997741
0.997837
0.997784
0.997724
0.99774
0.997757
0.997791
0.997888
0.998103
0.998339
0.998368
0.998297
0.876279
0.87626
0.876242
0.876225
0.876213
0.876204
0.876198
0.876194
0.876193
0.876194
0.876196
0.876196
0.876194
0.87619
0.87619
0.876192
0.876196
0.876204
0.876217
0.876235
0.876257
0.876287
0.87633
0.876387
0.876459
0.876548
0.876648
0.876743
0.876812
0.876865
0.876908
0.87692
0.876914
0.876914
0.876906
0.876883
0.876836
0.87676
0.876651
0.876498
0.876298
0.876071
0.875859
0.875701
0.875621
0.875603
0.875605
0.875628
0.875697
0.875841
0.876086
0.876346
0.876573
0.876678
0.876681
0.876628
0.876461
0.876174
0.875883
0.875758
0.875748
0.875801
0.876003
0.876254
0.876349
0.876341
0.876262
0.876056
0.876189
0.877074
0.880287
0.886991
0.901606
0.92105
0.943711
0.966402
0.981271
0.99117
0.994727
0.994668
0.994007
0.995044
0.996745
0.997606
0.997599
0.997407
0.997519
0.997751
0.997744
0.997685
0.997702
0.997787
0.997921
0.997889
0.997817
0.997838
0.997934
0.998126
0.998309
0.998302
0.876305
0.876273
0.87624
0.876208
0.876176
0.876142
0.87611
0.876081
0.876054
0.876026
0.875999
0.875981
0.875969
0.875958
0.875949
0.875943
0.875935
0.875934
0.875937
0.875944
0.87595
0.875958
0.87597
0.875987
0.876011
0.876048
0.876101
0.876172
0.87626
0.876365
0.876484
0.876609
0.87672
0.876787
0.87682
0.876838
0.876838
0.87682
0.876782
0.87671
0.876591
0.876417
0.876195
0.875955
0.875755
0.875645
0.875616
0.87562
0.875659
0.87577
0.875972
0.876296
0.876647
0.876887
0.876959
0.876955
0.876892
0.876688
0.876295
0.875877
0.875711
0.875688
0.875723
0.875926
0.876198
0.876293
0.876287
0.876199
0.8761
0.876151
0.87656
0.877793
0.881476
0.889096
0.9055
0.926432
0.948773
0.970628
0.979352
0.987062
0.99145
0.996573
0.997412
0.997173
0.996707
0.996998
0.997638
0.997849
0.997707
0.997514
0.997643
0.997929
0.998004
0.99797
0.997889
0.997852
0.997845
0.997913
0.998131
0.998302
0.876449
0.876417
0.876384
0.876349
0.87631
0.876265
0.87622
0.876177
0.876129
0.876076
0.87602
0.875966
0.875915
0.875871
0.875837
0.875811
0.875784
0.875771
0.875766
0.875758
0.875745
0.875738
0.875736
0.875735
0.875736
0.875742
0.87576
0.875795
0.875847
0.87592
0.876017
0.876141
0.876285
0.87643
0.87656
0.876665
0.876738
0.876782
0.876801
0.876802
0.876787
0.876732
0.876614
0.876421
0.876174
0.875933
0.875759
0.875689
0.875694
0.87575
0.875892
0.876105
0.876398
0.876754
0.877035
0.877103
0.877097
0.877021
0.876748
0.876243
0.875809
0.875685
0.875681
0.875754
0.876009
0.876295
0.876384
0.876372
0.876276
0.876226
0.87629
0.876498
0.877013
0.878278
0.88281
0.891883
0.910868
0.933693
0.956019
0.978197
0.987706
0.994259
0.994988
0.994296
0.995532
0.997195
0.997722
0.997621
0.99729
0.997405
0.997792
0.998072
0.998027
0.998006
0.997967
0.99788
0.99779
0.997818
0.997926
0.998207
0.876625
0.876608
0.87659
0.87657
0.876545
0.876518
0.876491
0.876459
0.876421
0.876378
0.87633
0.876274
0.876215
0.87615
0.876078
0.875997
0.875915
0.875841
0.875779
0.87573
0.875691
0.875664
0.875654
0.875652
0.875652
0.875658
0.875676
0.875702
0.875733
0.875773
0.875825
0.875895
0.875982
0.876091
0.876222
0.876373
0.876526
0.876656
0.876753
0.876836
0.876894
0.876911
0.876908
0.876846
0.876682
0.876439
0.876169
0.875927
0.875792
0.875787
0.875835
0.87594
0.876099
0.876343
0.876684
0.877004
0.87711
0.877098
0.876995
0.876691
0.876206
0.875844
0.875761
0.875779
0.875931
0.876252
0.876492
0.876539
0.876513
0.876407
0.876355
0.876383
0.876468
0.876599
0.87703
0.878709
0.884819
0.896343
0.918142
0.942334
0.96167
0.979314
0.984989
0.990875
0.996917
0.997504
0.997285
0.996633
0.996916
0.997687
0.998021
0.997988
0.997969
0.998034
0.998026
0.997924
0.997774
0.997751
0.997843
0.998116
0.876827
0.876837
0.876846
0.876856
0.876865
0.876868
0.87687
0.876872
0.876873
0.876867
0.876853
0.876829
0.876799
0.87676
0.87671
0.876649
0.876577
0.876495
0.876402
0.8763
0.876195
0.876098
0.876016
0.87595
0.875895
0.875845
0.875802
0.875788
0.875794
0.875808
0.875835
0.875875
0.875923
0.875971
0.876026
0.876102
0.876204
0.876333
0.876495
0.876687
0.876844
0.876909
0.876918
0.8769
0.876842
0.876733
0.876566
0.876351
0.876119
0.87593
0.875862
0.875868
0.875913
0.87603
0.876246
0.876567
0.876885
0.877004
0.876988
0.876908
0.876685
0.876313
0.876014
0.875947
0.875992
0.876193
0.876518
0.87666
0.876672
0.876619
0.876463
0.876371
0.876359
0.876373
0.876385
0.876476
0.877191
0.879873
0.888366
0.902953
0.926789
0.952035
0.971767
0.987833
0.994052
0.995455
0.994284
0.995426
0.997128
0.997993
0.997917
0.997739
0.997896
0.998058
0.998025
0.997904
0.997754
0.997739
0.997788
0.998048
0.876947
0.876979
0.877009
0.877036
0.877059
0.877082
0.877106
0.877134
0.877163
0.877191
0.877216
0.877237
0.877251
0.877256
0.877254
0.877248
0.877236
0.877214
0.877172
0.877106
0.877026
0.87694
0.876854
0.876768
0.87668
0.876587
0.876489
0.876385
0.876277
0.876169
0.876078
0.876019
0.875983
0.875964
0.875949
0.875945
0.875962
0.876012
0.876099
0.876229
0.876389
0.876566
0.876743
0.876847
0.876844
0.876799
0.876725
0.87665
0.876541
0.876375
0.876152
0.875966
0.875912
0.875926
0.876028
0.876231
0.876484
0.876739
0.876884
0.876891
0.87687
0.876742
0.876471
0.876209
0.876147
0.876201
0.876388
0.876685
0.876766
0.876741
0.876629
0.876421
0.876318
0.876311
0.876317
0.876325
0.876357
0.87659
0.877899
0.882034
0.893425
0.911489
0.936334
0.962075
0.974591
0.985363
0.990783
0.997012
0.997885
0.997676
0.997208
0.997485
0.997959
0.998042
0.99796
0.99787
0.997782
0.997751
0.99779
0.998036
0.876775
0.876833
0.87689
0.876944
0.876998
0.877052
0.877099
0.877139
0.877177
0.877216
0.877249
0.877274
0.877299
0.877326
0.877342
0.877347
0.87735
0.877354
0.877353
0.877351
0.87735
0.877348
0.877334
0.877305
0.877266
0.877217
0.877155
0.87707
0.87695
0.876793
0.876616
0.876438
0.876256
0.876065
0.875921
0.875871
0.875865
0.875867
0.875882
0.875911
0.875956
0.876025
0.876126
0.876253
0.876396
0.876551
0.876712
0.876806
0.876843
0.876836
0.87674
0.876539
0.876319
0.876187
0.876177
0.876213
0.876293
0.876423
0.876612
0.876789
0.876822
0.876807
0.876711
0.876503
0.876292
0.876251
0.876309
0.876471
0.876717
0.8768
0.876744
0.87659
0.876383
0.876291
0.876289
0.876345
0.87643
0.876436
0.876489
0.87692
0.879171
0.885198
0.900543
0.922474
0.947005
0.972908
0.986165
0.994997
0.995453
0.995135
0.996221
0.997675
0.99796
0.997884
0.99773
0.997829
0.997834
0.997798
0.997861
0.99808
0.876292
0.876322
0.876357
0.876398
0.876448
0.876504
0.876561
0.876619
0.876677
0.876734
0.876788
0.876841
0.876893
0.87694
0.876984
0.877026
0.87707
0.877125
0.877199
0.877281
0.877339
0.877369
0.877382
0.877385
0.877385
0.877376
0.877347
0.877292
0.877205
0.87709
0.876952
0.876795
0.876629
0.876456
0.876271
0.876084
0.875932
0.87586
0.87585
0.87584
0.875821
0.875807
0.875804
0.875828
0.875923
0.876127
0.876456
0.876811
0.877025
0.877097
0.877107
0.877088
0.877023
0.876923
0.876777
0.87656
0.876374
0.876332
0.876349
0.87646
0.876618
0.876692
0.876683
0.876602
0.87646
0.87632
0.876302
0.876354
0.876486
0.876642
0.876715
0.876695
0.876587
0.876449
0.87641
0.876427
0.876489
0.876511
0.876509
0.876445
0.876563
0.877389
0.881247
0.890299
0.910274
0.934965
0.957416
0.978742
0.98475
0.991924
0.997259
0.997798
0.997497
0.997227
0.997561
0.997871
0.997816
0.997822
0.997985
0.998142
0.875874
0.875859
0.875845
0.875826
0.875813
0.875806
0.875798
0.875792
0.875792
0.875807
0.875834
0.875866
0.875904
0.875951
0.876009
0.87608
0.876166
0.876273
0.876396
0.876529
0.876651
0.876748
0.876826
0.876897
0.876968
0.877035
0.877076
0.877083
0.877072
0.877045
0.877009
0.876984
0.876956
0.876917
0.876859
0.876764
0.876633
0.876496
0.876368
0.876229
0.876056
0.875882
0.875788
0.875788
0.875853
0.876041
0.87632
0.876594
0.876854
0.877094
0.877257
0.877326
0.877349
0.877361
0.877322
0.877114
0.87674
0.876418
0.876287
0.876244
0.876241
0.876311
0.876452
0.87654
0.876528
0.876485
0.876406
0.876384
0.8764
0.876493
0.876626
0.876705
0.876708
0.876654
0.876571
0.876552
0.876571
0.876596
0.876568
0.876472
0.876365
0.876384
0.876756
0.878524
0.885159
0.898273
0.922222
0.949012
0.971142
0.988415
0.995147
0.99507
0.995245
0.996478
0.997833
0.997824
0.997661
0.997863
0.998149
0.998132
0.875779
0.875741
0.875702
0.875656
0.875597
0.875536
0.875489
0.87547
0.875464
0.87546
0.875458
0.875461
0.875476
0.875507
0.875546
0.875595
0.875661
0.875747
0.875841
0.875927
0.876
0.876066
0.876132
0.876211
0.876316
0.876438
0.876554
0.876654
0.876745
0.876845
0.876986
0.877135
0.877189
0.8772
0.877251
0.877298
0.877307
0.877296
0.877231
0.877087
0.876886
0.876671
0.876448
0.876236
0.876184
0.876256
0.876371
0.876475
0.876594
0.876758
0.876951
0.877187
0.877409
0.877469
0.877447
0.877311
0.877053
0.876758
0.87644
0.876204
0.876139
0.876134
0.876166
0.876304
0.876508
0.876629
0.876661
0.876627
0.876543
0.876508
0.876539
0.876639
0.876718
0.876722
0.876683
0.876619
0.876616
0.876636
0.876623
0.876539
0.876414
0.876389
0.876414
0.87657
0.877514
0.880927
0.89127
0.909244
0.935903
0.962242
0.977107
0.986389
0.993208
0.997721
0.997692
0.997146
0.997382
0.998096
0.998236
0.998099
0.876631
0.876581
0.876526
0.876467
0.876401
0.876325
0.876241
0.876159
0.876085
0.876016
0.875951
0.875922
0.875933
0.87595
0.875952
0.87596
0.875977
0.875998
0.876023
0.876045
0.876059
0.876069
0.876084
0.87613
0.876224
0.87634
0.876458
0.876525
0.876551
0.876591
0.876717
0.876902
0.877077
0.877282
0.877447
0.877519
0.877537
0.877521
0.877463
0.877348
0.87725
0.877226
0.877198
0.877119
0.876985
0.876856
0.876719
0.876541
0.876455
0.876427
0.876449
0.876589
0.87679
0.87695
0.877039
0.87706
0.877026
0.876959
0.876799
0.87654
0.876281
0.87616
0.876166
0.876209
0.876343
0.876623
0.876852
0.876892
0.876844
0.876692
0.876585
0.876586
0.876644
0.876707
0.876698
0.876654
0.876616
0.876619
0.876622
0.876607
0.876548
0.876512
0.87653
0.876618
0.876713
0.87708
0.87905
0.884883
0.900703
0.923639
0.950016
0.977144
0.988764
0.996003
0.99461
0.995653
0.997448
0.998168
0.9981
0.997851
0.877505
0.877547
0.877595
0.877649
0.877708
0.877748
0.877757
0.877752
0.877745
0.877743
0.877723
0.87768
0.877633
0.877582
0.877488
0.877406
0.877373
0.877337
0.877257
0.877145
0.877038
0.876913
0.876752
0.876628
0.876575
0.876566
0.876603
0.876652
0.876673
0.876671
0.876691
0.876785
0.87693
0.877073
0.877162
0.877193
0.877187
0.877174
0.877176
0.877209
0.877269
0.87739
0.877507
0.877544
0.87751
0.877372
0.877169
0.876899
0.876621
0.876426
0.876325
0.876324
0.876331
0.876311
0.876305
0.876396
0.87667
0.876927
0.876993
0.876982
0.87689
0.876645
0.876348
0.876227
0.876266
0.87645
0.876787
0.877007
0.877004
0.876906
0.8767
0.876591
0.876589
0.876637
0.876697
0.876687
0.876642
0.876612
0.876629
0.87667
0.876691
0.876713
0.876711
0.876716
0.876753
0.876779
0.876918
0.877753
0.881813
0.891632
0.913299
0.940766
0.961843
0.98211
0.987788
0.995246
0.997718
0.997593
0.99722
0.997634
0.877417
0.877487
0.877555
0.877618
0.877675
0.877734
0.877828
0.877897
0.877914
0.877944
0.878017
0.878119
0.878187
0.878233
0.878233
0.878231
0.878239
0.878226
0.878113
0.878038
0.878002
0.877916
0.877753
0.877594
0.877481
0.877372
0.877254
0.877141
0.877044
0.87694
0.876808
0.876755
0.87676
0.876733
0.87662
0.876448
0.87625
0.876121
0.876078
0.876091
0.876243
0.876573
0.876955
0.877277
0.877486
0.87754
0.877503
0.877386
0.87724
0.877122
0.876992
0.876774
0.876487
0.876245
0.876178
0.876174
0.876281
0.876637
0.877066
0.877219
0.877223
0.87714
0.876867
0.876489
0.876328
0.876357
0.876511
0.876798
0.876976
0.876962
0.876853
0.876678
0.876612
0.87662
0.876663
0.876716
0.876724
0.876705
0.876701
0.87673
0.87679
0.876839
0.876838
0.87682
0.876793
0.876789
0.876766
0.876795
0.877209
0.879233
0.886868
0.902432
0.928482
0.957341
0.978609
0.992502
0.995304
0.994566
0.995953
0.997817
0.875686
0.875792
0.875909
0.876051
0.876193
0.876328
0.876479
0.876623
0.876776
0.876937
0.877141
0.877379
0.877435
0.877451
0.877507
0.877614
0.877728
0.877845
0.877927
0.877917
0.877871
0.877798
0.877694
0.877625
0.877602
0.877556
0.877448
0.877323
0.877273
0.877236
0.877116
0.876851
0.876488
0.876182
0.875968
0.87576
0.875537
0.875386
0.875346
0.87542
0.87568
0.876017
0.87632
0.876559
0.87673
0.876921
0.877203
0.877393
0.877477
0.877603
0.87767
0.877662
0.877449
0.876966
0.876534
0.876373
0.87636
0.87644
0.876714
0.877087
0.877296
0.877295
0.87717
0.876897
0.876605
0.876458
0.876448
0.876485
0.876647
0.876874
0.876952
0.876925
0.876809
0.876698
0.876689
0.876736
0.876819
0.876844
0.87684
0.876838
0.876868
0.876893
0.876886
0.876866
0.876841
0.876777
0.876714
0.876666
0.87668
0.876859
0.87805
0.882537
0.895756
0.917247
0.945671
0.971648
0.981873
0.990275
0.99709
0.997806
0.874999
0.874925
0.874857
0.874847
0.874891