/*--------------------------------*- C++ -*----------------------------------*\
  =========                 |
  \\      /  F ield         | OpenFOAM: The Open Source CFD Toolbox
   \\    /   O peration     | Website:  https://openfoam.org
    \\  /    A nd           | Version:  7
     \\/     M anipulation  |
\*---------------------------------------------------------------------------*/
FoamFile
{
    version     2.0;
    format      ascii;
    class       volScalarField;
    location    "9.5";
    object      T;
}
// * * * * * * * * * * * * * * * * * * * * * * * * * * * * * * * * * * * * * //

dimensions      [0 0 0 1 0 0 0];

internalField   nonuniform List<scalar> 
90000
(
0.982679
0.984518
0.986621
0.989034
0.991351
0.99376
0.995916
0.998069
0.999913
1.00172
1.00323
1.00471
1.00589
1.00721
1.00836
1.00962
1.01085
1.01249
1.01431
1.01659
1.01901
1.02177
1.02442
1.02716
1.02942
1.03176
1.03332
1.03462
1.03581
1.03621
1.03634
1.03626
1.03593
1.03534
1.03416
1.03178
1.02908
1.0271
1.0256
1.02562
1.02593
1.02639
1.02695
1.02749
1.02795
1.02835
1.02835
1.02817
1.02767
1.02684
1.02613
1.02571
1.02558
1.02577
1.02625
1.02711
1.02784
1.02809
1.02781
1.02736
1.02671
1.02631
1.02636
1.02662
1.02714
1.02712
1.02694
1.02653
1.02615
1.02591
1.02596
1.02621
1.02616
1.02602
1.0258
1.0256
1.02566
1.02572
1.02564
1.02544
1.02526
1.02512
1.02503
1.02498
1.02494
1.02496
1.02492
1.02489
1.02484
1.0248
1.02474
1.02464
1.0245
1.02434
1.02421
1.02411
1.02404
1.02397
1.02388
1.02373
0.981294
0.981425
0.981736
0.982226
0.982886
0.983716
0.984695
0.985818
0.987061
0.988413
0.989848
0.991343
0.992899
0.994343
0.995771
0.997179
0.998523
0.999771
1.00105
1.00237
1.00384
1.00545
1.00723
1.00923
1.01127
1.01351
1.01571
1.01791
1.01994
1.02181
1.0235
1.02517
1.02618
1.02698
1.02764
1.02798
1.02791
1.02738
1.02617
1.0246
1.02308
1.02197
1.02147
1.02162
1.02194
1.02239
1.023
1.02362
1.02434
1.02434
1.02409
1.02347
1.02278
1.02221
1.02226
1.02257
1.02314
1.02392
1.02467
1.02487
1.02461
1.02401
1.02356
1.02346
1.02365
1.02406
1.02447
1.02436
1.02402
1.02361
1.02348
1.02361
1.0239
1.02397
1.02386
1.02366
1.02364
1.02379
1.02384
1.02378
1.0236
1.02345
1.02346
1.0235
1.02348
1.02347
1.02355
1.02356
1.02354
1.02353
1.02353
1.02346
1.02334
1.02322
1.02313
1.02307
1.02305
1.023
1.02292
1.02283
0.980668
0.980655
0.980645
0.980641
0.980648
0.98067
0.98072
0.980806
0.980943
0.981138
0.981412
0.981768
0.982241
0.982804
0.983486
0.984247
0.985128
0.986076
0.987124
0.988226
0.989423
0.990697
0.992099
0.993616
0.995312
0.997138
0.999265
1.00143
1.00383
1.00652
1.00896
1.01155
1.01404
1.01647
1.01827
1.01995
1.02094
1.02164
1.02222
1.02215
1.02204
1.02157
1.02073
1.01974
1.01896
1.01855
1.01863
1.01878
1.01908
1.01942
1.01976
1.02012
1.0201
1.01979
1.01933
1.01884
1.01891
1.01925
1.01994
1.02059
1.0213
1.02126
1.0208
1.02026
1.02009
1.02027
1.02062
1.02102
1.02095
1.02063
1.02034
1.0204
1.02061
1.02084
1.02088
1.02081
1.02077
1.02086
1.02099
1.02104
1.02101
1.02091
1.02091
1.02093
1.02097
1.02105
1.02114
1.02122
1.02127
1.02131
1.02134
1.02135
1.02133
1.02126
1.02121
1.02118
1.02118
1.02118
1.02116
1.02114
0.979644
0.979634
0.97962
0.979603
0.979586
0.979567
0.979548
0.979531
0.979515
0.9795
0.979487
0.979478
0.979489
0.979519
0.979577
0.979672
0.979814
0.980013
0.980286
0.980644
0.981106
0.981671
0.982383
0.983202
0.984222
0.985384
0.986792
0.988369
0.990288
0.992319
0.994825
0.997429
1.0003
1.0033
1.00641
1.00943
1.01177
1.01411
1.0157
1.01714
1.01767
1.01811
1.01825
1.01807
1.01785
1.01735
1.0167
1.01612
1.01581
1.01591
1.01616
1.01649
1.01673
1.01684
1.01678
1.01649
1.01617
1.01605
1.01622
1.0166
1.01718
1.01764
1.01801
1.01787
1.01749
1.01712
1.01716
1.01742
1.01777
1.01785
1.01766
1.01738
1.0174
1.01758
1.01785
1.0179
1.01784
1.01785
1.01797
1.01812
1.01818
1.01812
1.01807
1.01812
1.0182
1.01829
1.0184
1.01854
1.01864
1.01871
1.01878
1.01883
1.01884
1.01882
1.0188
1.01882
1.01885
1.0189
1.01893
1.01897
0.978432
0.978427
0.978422
0.978415
0.978408
0.978398
0.978385
0.978368
0.978346
0.978322
0.978302
0.978287
0.978268
0.97825
0.978232
0.978217
0.978201
0.978189
0.978183
0.978186
0.978201
0.978234
0.978326
0.97848
0.978702
0.979011
0.979449
0.980011
0.980789
0.981759
0.98305
0.984586
0.98662
0.988883
0.991695
0.994813
0.998285
1.00189
1.00516
1.00852
1.0108
1.01272
1.01403
1.01503
1.01535
1.01569
1.01566
1.01574
1.01569
1.01553
1.01523
1.01487
1.01467
1.0146
1.01464
1.01463
1.01461
1.01453
1.01445
1.01442
1.0145
1.01474
1.01514
1.01546
1.01576
1.0156
1.01532
1.01514
1.01529
1.01547
1.01566
1.01554
1.01534
1.01528
1.01542
1.01562
1.01569
1.01565
1.01566
1.01576
1.0159
1.01589
1.01582
1.01582
1.01588
1.01597
1.01607
1.01619
1.01632
1.0164
1.01647
1.01654
1.01659
1.01662
1.01661
1.01662
1.01666
1.01671
1.01677
1.01685
0.977357
0.977354
0.97735
0.977347
0.977344
0.977339
0.977335
0.977329
0.97732
0.977308
0.977296
0.977285
0.977276
0.977267
0.977256
0.977241
0.977223
0.97721
0.977197
0.97719
0.977184
0.977188
0.977175
0.977163
0.977148
0.977149
0.977159
0.977192
0.977258
0.977374
0.977622
0.97801
0.978598
0.979433
0.980634
0.982225
0.984469
0.98708
0.99056
0.994183
0.998314
1.00231
1.00582
1.00906
1.01102
1.01295
1.01396
1.01431
1.01447
1.01455
1.01447
1.01424
1.01394
1.01377
1.01372
1.01373
1.0137
1.01362
1.01347
1.01327
1.01315
1.01318
1.01336
1.01384
1.01419
1.01436
1.01432
1.01412
1.01402
1.01407
1.01421
1.01429
1.01421
1.01405
1.01401
1.01411
1.01424
1.01432
1.01429
1.0143
1.01437
1.01445
1.01443
1.01437
1.01437
1.01442
1.0145
1.01461
1.01471
1.0148
1.01486
1.01491
1.01496
1.015
1.01499
1.01497
1.015
1.01505
1.0151
1.01519
0.976606
0.976604
0.976602
0.976601
0.9766
0.9766
0.976599
0.976597
0.976595
0.976591
0.976589
0.976587
0.976583
0.976579
0.976576
0.976573
0.97657
0.976565
0.97656
0.976555
0.976548
0.976538
0.976533
0.976526
0.976518
0.976517
0.97652
0.97653
0.976552
0.97661
0.976598
0.976599
0.976619
0.976673
0.97679
0.977041
0.977521
0.978268
0.979548
0.9813
0.983964
0.987282
0.991221
0.995764
1.00014
1.00426
1.00722
1.01021
1.01143
1.01251
1.01274
1.01289
1.01325
1.0137
1.01393
1.01389
1.0137
1.01335
1.01303
1.01279
1.01265
1.01269
1.01284
1.01295
1.01313
1.01336
1.01338
1.01346
1.01353
1.01349
1.01346
1.01348
1.01348
1.01346
1.01339
1.01335
1.01339
1.01348
1.01358
1.01356
1.01354
1.01358
1.01363
1.01361
1.01355
1.01355
1.01359
1.01367
1.01377
1.01384
1.01388
1.01393
1.01397
1.01401
1.014
1.01396
1.01395
1.01398
1.01403
1.0141
0.976157
0.976157
0.976158
0.976158
0.976159
0.97616
0.976161
0.976162
0.976163
0.976163
0.976164
0.976166
0.976168
0.97617
0.976172
0.976174
0.976177
0.976181
0.976183
0.976187
0.976191
0.976196
0.976199
0.976201
0.976204
0.976207
0.976207
0.976208
0.976213
0.976224
0.97624
0.976259
0.976282
0.976312
0.976383
0.976373
0.97638
0.976412
0.976503
0.97669
0.977171
0.978018
0.979634
0.981868
0.985354
0.989343
0.994194
0.999114
1.00317
1.00706
1.00949
1.01151
1.01239
1.01298
1.01322
1.01329
1.0132
1.01296
1.01279
1.01287
1.01285
1.01275
1.01259
1.01245
1.01241
1.01249
1.01265
1.01295
1.01313
1.01318
1.01313
1.01308
1.0131
1.01312
1.01308
1.01301
1.013
1.01304
1.01312
1.01319
1.01317
1.01316
1.01319
1.01321
1.01319
1.01313
1.01314
1.01318
1.01324
1.01332
1.01336
1.01339
1.01344
1.01347
1.01346
1.01341
1.01337
1.01338
1.01342
1.01347
0.975909
0.975911
0.975913
0.975915
0.975918
0.97592
0.975923
0.975925
0.975929
0.975932
0.975936
0.97594
0.975946
0.975951
0.975957
0.975964
0.975971
0.975976
0.975984
0.975993
0.976003
0.976013
0.976022
0.976033
0.976043
0.976051
0.97606
0.976071
0.976081
0.976091
0.976102
0.976114
0.976128
0.976142
0.976158
0.976183
0.976209
0.976239
0.976274
0.976351
0.976344
0.976366
0.97646
0.976742
0.977467
0.978728
0.981119
0.984294
0.98892
0.993696
0.998601
1.00367
1.00664
1.00938
1.01044
1.01148
1.01182
1.01244
1.01291
1.0132
1.01312
1.01293
1.01249
1.01212
1.01207
1.01222
1.01248
1.01265
1.01273
1.01279
1.01285
1.01294
1.01294
1.01293
1.01288
1.01283
1.01283
1.01285
1.01286
1.0129
1.01293
1.01295
1.01297
1.01298
1.01298
1.01295
1.01292
1.01292
1.01294
1.013
1.01308
1.01311
1.01315
1.01317
1.01316
1.01313
1.01306
1.01306
1.01308
1.01312
0.975788
0.975791
0.975793
0.975796
0.975799
0.975803
0.975807
0.975812
0.975816
0.975821
0.975826
0.975832
0.975838
0.975844
0.97585
0.975858
0.975866
0.975876
0.975885
0.975893
0.975902
0.975913
0.975925
0.975935
0.975947
0.97596
0.975971
0.97598
0.97599
0.976002
0.976013
0.976024
0.976037
0.976049
0.976059
0.97607
0.976082
0.976095
0.976108
0.976124
0.976151
0.976174
0.976216
0.9762
0.976209
0.976267
0.976541
0.977167
0.978613
0.980847
0.984644
0.989108
0.994484
0.999846
1.00399
1.00774
1.00999
1.01169
1.01219
1.01261
1.01257
1.01227
1.01222
1.01227
1.01236
1.01239
1.01234
1.01228
1.01227
1.01238
1.01256
1.01277
1.01284
1.01278
1.01272
1.01273
1.01276
1.01275
1.01271
1.01271
1.01274
1.01278
1.01283
1.01283
1.01284
1.01284
1.0128
1.01276
1.01275
1.01278
1.01286
1.01293
1.01298
1.01298
1.01298
1.01296
1.01289
1.01287
1.01288
1.0129
0.975736
0.975738
0.975742
0.975746
0.975751
0.975755
0.975759
0.975764
0.975766
0.97577
0.975775
0.97578
0.975784
0.975787
0.975793
0.975799
0.975806
0.975815
0.975821
0.975824
0.975829
0.975837
0.975845
0.975854
0.975862
0.97587
0.975877
0.975883
0.975891
0.975897
0.975904
0.975913
0.975923
0.975932
0.975942
0.975951
0.975958
0.975965
0.975971
0.975976
0.975984
0.975995
0.976004
0.976022
0.976033
0.976033
0.975999
0.976
0.976088
0.976376
0.977197
0.978688
0.98161
0.985422
0.990769
0.996306
1.00103
1.00572
1.00784
1.01006
1.01061
1.01135
1.01198
1.0127
1.0127
1.0126
1.01235
1.01199
1.01201
1.0121
1.01231
1.01251
1.01259
1.01258
1.01262
1.01268
1.01267
1.01263
1.01258
1.01257
1.01259
1.01262
1.01266
1.01269
1.01274
1.01273
1.0127
1.01263
1.0126
1.01261
1.01267
1.01275
1.01281
1.01283
1.01283
1.01281
1.01278
1.01272
1.01273
1.01273
0.975687
0.97569
0.975697
0.975703
0.975704
0.975704
0.975704
0.975706
0.975709
0.975714
0.975717
0.97572
0.975723
0.975722
0.975722
0.975723
0.975729
0.975734
0.975734
0.975733
0.975734
0.975737
0.975737
0.975738
0.975741
0.975745
0.975746
0.975746
0.975747
0.975748
0.975751
0.975754
0.975758
0.975762
0.975768
0.975775
0.975781
0.975787
0.975792
0.975797
0.975802
0.975805
0.97581
0.975822
0.975827
0.975826
0.975823
0.975814
0.975775
0.975736
0.975763
0.975893
0.976348
0.977304
0.979485
0.982635
0.98764
0.993127
0.998667
1.00392
1.00707
1.0102
1.01119
1.0121
1.01208
1.01182
1.01177
1.01185
1.01202
1.01214
1.01215
1.01213
1.01217
1.01231
1.01249
1.01259
1.01254
1.01248
1.01246
1.01244
1.01244
1.01244
1.01246
1.01253
1.01259
1.01258
1.01255
1.01249
1.01244
1.01245
1.01248
1.01255
1.01262
1.01267
1.01266
1.01266
1.01265
1.0126
1.01258
1.01257
0.97559
0.975594
0.975597
0.975598
0.975598
0.975599
0.9756
0.975601
0.975604
0.975607
0.975608
0.97561
0.975611
0.97561
0.975608
0.975609
0.975608
0.975607
0.975604
0.9756
0.975596
0.975592
0.975587
0.975583
0.97558
0.975576
0.97557
0.975562
0.975556
0.975552
0.975549
0.975545
0.975538
0.975537
0.975538
0.975538
0.975539
0.975541
0.975545
0.975551
0.97556
0.975569
0.975581
0.975594
0.9756
0.975601
0.9756
0.975593
0.975573
0.975546
0.975498
0.975453
0.975459
0.97552
0.975769
0.976395
0.978001
0.980601
0.985252
0.990515
0.996353
1.00205
1.00518
1.00838
1.00927
1.01033
1.01124
1.01217
1.01226
1.01215
1.01192
1.01173
1.01182
1.01205
1.01223
1.01229
1.01226
1.01228
1.01232
1.0123
1.01224
1.01222
1.01224
1.01232
1.01239
1.01239
1.01236
1.01232
1.01227
1.01226
1.01227
1.01231
1.01237
1.01244
1.01247
1.01247
1.01248
1.01245
1.01241
1.01238
0.975419
0.975421
0.975423
0.975425
0.975426
0.975427
0.975428
0.97543
0.975432
0.975433
0.975435
0.975438
0.975441
0.975441
0.975441
0.975441
0.975439
0.975434
0.975429
0.975424
0.975417
0.975409
0.975401
0.975392
0.975382
0.975371
0.97536
0.975348
0.975336
0.975324
0.975311
0.975298
0.975286
0.975274
0.975262
0.975252
0.97525
0.97525
0.975252
0.975257
0.975265
0.975277
0.975292
0.975306
0.975319
0.975331
0.975335
0.975331
0.975318
0.975298
0.975266
0.975221
0.975173
0.975133
0.975132
0.975157
0.975302
0.97574
0.976986
0.979179
0.983401
0.988484
0.994629
1.00061
1.00474
1.00881
1.01019
1.01141
1.01144
1.01122
1.01121
1.01141
1.01166
1.01187
1.01186
1.01182
1.01187
1.01201
1.0121
1.01206
1.01199
1.01197
1.012
1.01205
1.01211
1.01211
1.0121
1.0121
1.01208
1.01203
1.01204
1.01205
1.01209
1.01215
1.01222
1.01225
1.01226
1.01225
1.01221
1.01216
0.975202
0.975202
0.975203
0.975205
0.975206
0.975207
0.975209
0.975211
0.975212
0.975214
0.975216
0.975219
0.975221
0.975223
0.975224
0.975226
0.975226
0.975224
0.975221
0.975216
0.97521
0.975202
0.975194
0.975184
0.975173
0.97516
0.975144
0.975129
0.975112
0.975094
0.975074
0.975054
0.975033
0.97501
0.974988
0.974969
0.974952
0.974943
0.974941
0.974941
0.974943
0.97495
0.974962
0.974977
0.974997
0.975017
0.975032
0.975036
0.975034
0.975021
0.974993
0.974951
0.974894
0.974834
0.974803
0.974793
0.974791
0.974815
0.974938
0.975286
0.976268
0.978141
0.982063
0.986978
0.993302
0.999598
1.00342
1.00732
1.0084
1.00969
1.01069
1.01162
1.0116
1.01153
1.01129
1.01131
1.01154
1.01171
1.01176
1.01175
1.01173
1.01175
1.01178
1.01177
1.01177
1.01178
1.01182
1.01185
1.01184
1.01181
1.01179
1.01177
1.01178
1.01184
1.01192
1.01199
1.01201
1.012
1.01197
1.01191
0.974942
0.974942
0.974943
0.974944
0.974946
0.974947
0.974949
0.974951
0.974953
0.974956
0.974959
0.974961
0.974964
0.974966
0.974969
0.974971
0.974974
0.974979
0.974984
0.974983
0.974979
0.974975
0.97497
0.974964
0.974956
0.974944
0.97493
0.974914
0.974897
0.974877
0.974856
0.974833
0.974806
0.974776
0.974746
0.974716
0.974689
0.974664
0.974647
0.974638
0.974633
0.974631
0.974632
0.974637
0.974651
0.974672
0.974695
0.974714
0.974725
0.974722
0.974706
0.974675
0.974625
0.974552
0.974482
0.974462
0.974465
0.974478
0.974522
0.974604
0.974715
0.974968
0.975753
0.977409
0.981135
0.986078
0.99265
0.999191
1.00385
1.00824
1.00957
1.01071
1.01067
1.01046
1.01064
1.01101
1.01136
1.01135
1.01133
1.01137
1.01148
1.01155
1.01152
1.01146
1.01144
1.01147
1.01154
1.01157
1.01157
1.01156
1.01153
1.01149
1.01149
1.01152
1.0116
1.0117
1.01174
1.01173
1.01172
1.01166
0.97467
0.97467
0.974672
0.974672
0.974673
0.974674
0.974677
0.974679
0.974681
0.974684
0.974686
0.974689
0.974692
0.974695
0.974698
0.974703
0.974708
0.974713
0.974718
0.974725
0.974731
0.974738
0.974743
0.974742
0.974736
0.97473
0.974722
0.97471
0.974695
0.974678
0.974659
0.974635
0.974608
0.974579
0.974547
0.974513
0.974476
0.974438
0.974402
0.97437
0.974348
0.974336
0.974327
0.974322
0.974323
0.974331
0.974353
0.97439
0.974422
0.974435
0.974433
0.97442
0.974392
0.974339
0.97426
0.974189
0.974177
0.974186
0.974223
0.974287
0.974401
0.974469
0.974495
0.974648
0.975302
0.976883
0.980662
0.985738
0.992482
0.999209
1.00313
1.00681
1.00784
1.00922
1.01056
1.01108
1.01103
1.01083
1.01086
1.01104
1.01126
1.01132
1.01127
1.01116
1.01118
1.01123
1.01127
1.0113
1.01133
1.01132
1.0113
1.01124
1.01123
1.01125
1.01131
1.0114
1.01147
1.01148
1.01146
1.01142
0.974405
0.974405
0.974405
0.974406
0.974406
0.974407
0.974408
0.974409
0.97441
0.974413
0.974415
0.974416
0.974419
0.974423
0.974428
0.974433
0.974438
0.974444
0.974452
0.974461
0.974473
0.974486
0.974499
0.974508
0.974514
0.974516
0.974515
0.974508
0.9745
0.974492
0.97448
0.974463
0.974442
0.974418
0.974391
0.974359
0.974321
0.974275
0.974224
0.974172
0.974123
0.974086
0.97407
0.974062
0.974055
0.974054
0.974063
0.974088
0.974129
0.974171
0.974199
0.974207
0.974203
0.974181
0.974132
0.974055
0.973989
0.973976
0.973994
0.974031
0.97411
0.974202
0.974277
0.974256
0.974221
0.974335
0.974987
0.976669
0.980642
0.986007
0.992926
0.999647
1.00424
1.00814
1.00948
1.01037
1.00999
1.01011
1.01046
1.01083
1.011
1.01097
1.01088
1.01092
1.01103
1.01104
1.01102
1.01104
1.01108
1.0111
1.01108
1.01104
1.01102
1.01104
1.01108
1.01113
1.01121
1.01125
1.01124
1.01121
0.974152
0.974151
0.974151
0.974151
0.974151
0.974151
0.974151
0.974152
0.974153
0.974156
0.974158
0.974161
0.974165
0.974169
0.974174
0.974179
0.974185
0.974192
0.974201
0.974211
0.974223
0.974238
0.974255
0.974274
0.97429
0.974303
0.974311
0.974317
0.974322
0.974322
0.974316
0.974307
0.974295
0.974281
0.974262
0.974238
0.974207
0.974165
0.974112
0.974048
0.973979
0.973914
0.973872
0.973858
0.973853
0.973851
0.973854
0.97387
0.973902
0.973946
0.973997
0.974047
0.974072
0.974075
0.974062
0.974016
0.973936
0.973862
0.973841
0.973845
0.973873
0.973937
0.974028
0.974068
0.974073
0.974005
0.97395
0.974101
0.974906
0.976824
0.981098
0.98669
0.993605
1.00035
1.00364
1.00704
1.0082
1.00967
1.01068
1.01066
1.01056
1.01041
1.01051
1.01079
1.01092
1.01089
1.01083
1.01085
1.01088
1.01092
1.0109
1.01088
1.01089
1.01089
1.0109
1.01093
1.01099
1.01106
1.01107
1.01105
0.973951
0.973944
0.973938
0.973933
0.973928
0.973925
0.973922
0.973921
0.973921
0.973921
0.973922
0.973922
0.973921
0.973919
0.973919
0.973919
0.973919
0.973921
0.973924
0.973929
0.973935
0.973945
0.973959
0.973977
0.974001
0.97403
0.974063
0.974094
0.974116
0.974133
0.974147
0.974152
0.974149
0.974146
0.97414
0.974129
0.974111
0.974084
0.974046
0.973994
0.973926
0.973851
0.973779
0.973724
0.973698
0.973693
0.973694
0.973704
0.973728
0.973775
0.973849
0.973925
0.97399
0.974023
0.974026
0.974013
0.973964
0.973874
0.973775
0.97372
0.97371
0.973721
0.973782
0.973866
0.9739
0.973897
0.973864
0.973781
0.973814
0.974088
0.975109
0.977234
0.981839
0.987855
0.994771
1.00154
1.00595
1.0088
1.00989
1.00986
1.00967
1.00996
1.01046
1.01072
1.01072
1.01066
1.01069
1.01075
1.01076
1.01075
1.01075
1.01077
1.01081
1.0108
1.01078
1.01079
1.01082
1.01088
1.01093
1.01093
0.973851
0.973839
0.973828
0.973817
0.973805
0.973793
0.973781
0.973771
0.97376
0.97375
0.97374
0.973733
0.973729
0.973725
0.973722
0.97372
0.973718
0.973717
0.973718
0.973719
0.97372
0.973722
0.973726
0.973732
0.97374
0.973752
0.97377
0.973793
0.973823
0.973859
0.9739
0.973941
0.973977
0.973997
0.974006
0.97401
0.974009
0.973999
0.973983
0.973957
0.973917
0.973859
0.973785
0.973705
0.97364
0.973604
0.973594
0.973596
0.973611
0.97365
0.973718
0.973822
0.97393
0.973999
0.974015
0.974013
0.973993
0.973931
0.973809
0.973673
0.973608
0.973595
0.973604
0.973668
0.973759
0.973794
0.973794
0.973766
0.973721
0.973728
0.973846
0.974237
0.975411
0.977824
0.982981
0.989428
0.996227
1.00271
1.00527
1.00753
1.00881
1.01033
1.01058
1.01051
1.01036
1.01045
1.01064
1.01071
1.01067
1.01061
1.01065
1.01073
1.01076
1.01075
1.01072
1.01071
1.01071
1.01073
1.0108
1.01085
0.973822
0.973812
0.973801
0.97379
0.973776
0.973761
0.973746
0.973731
0.973714
0.973695
0.973676
0.973657
0.97364
0.973625
0.973612
0.973602
0.97359
0.973583
0.97358
0.973576
0.973571
0.973569
0.973569
0.97357
0.97357
0.973573
0.97358
0.973592
0.97361
0.973634
0.973667
0.973707
0.973754
0.973801
0.973844
0.973878
0.9739
0.973913
0.973916
0.973915
0.973907
0.973887
0.973848
0.973787
0.973708
0.973632
0.973576
0.973553
0.973554
0.973571
0.973618
0.973691
0.973789
0.973902
0.973986
0.974004
0.973999
0.97397
0.97388
0.973721
0.973582
0.973538
0.973535
0.973556
0.973636
0.97373
0.973763
0.973761
0.973732
0.973708
0.97372
0.97378
0.973945
0.974349
0.97579
0.978653
0.984598
0.991596
0.998336
1.00492
1.0077
1.00961
1.00984
1.00962
1.00998
1.01046
1.01062
1.01059
1.0105
1.01053
1.01065
1.01073
1.01072
1.01071
1.0107
1.01068
1.01065
1.01066
1.0107
1.01078
0.973815
0.973811
0.973805
0.973799
0.973791
0.973783
0.973774
0.973764
0.973752
0.973739
0.973724
0.973706
0.973686
0.973665
0.97364
0.973613
0.973586
0.973561
0.973541
0.973525
0.973513
0.973504
0.9735
0.973499
0.973499
0.973501
0.973506
0.973514
0.973524
0.973536
0.973553
0.973575
0.973604
0.973639
0.973681
0.973729
0.973778
0.973819
0.97385
0.973875
0.973892
0.973896
0.973895
0.973875
0.973824
0.973749
0.973665
0.973589
0.973546
0.973544
0.973557
0.97359
0.973644
0.973726
0.973839
0.97394
0.973969
0.973962
0.973923
0.973819
0.973665
0.973553
0.973527
0.973532
0.973578
0.973678
0.973753
0.97377
0.973763
0.973732
0.973713
0.973718
0.973745
0.973787
0.973924
0.974456
0.976394
0.980021
0.986818
0.994191
1
1.0052
1.00687
1.00859
1.01037
1.01053
1.01047
1.01028
1.01036
1.01059
1.01069
1.01069
1.01068
1.0107
1.01069
1.01067
1.01063
1.01062
1.01065
1.01073
0.973841
0.973844
0.973847
0.97385
0.973852
0.973853
0.973854
0.973854
0.973855
0.973853
0.973849
0.973842
0.973833
0.97382
0.973805
0.973787
0.973765
0.97374
0.973712
0.973679
0.973646
0.973615
0.973589
0.973568
0.973551
0.973535
0.973522
0.973518
0.97352
0.973525
0.973533
0.973545
0.97356
0.973574
0.97359
0.973613
0.973644
0.973685
0.973737
0.973799
0.973849
0.97387
0.973873
0.973867
0.97385
0.973817
0.973766
0.973699
0.973627
0.973568
0.973546
0.973548
0.973562
0.9736
0.973671
0.973775
0.973876
0.973912
0.973904
0.973872
0.973796
0.973677
0.973586
0.973566
0.97358
0.973641
0.973742
0.973787
0.973792
0.973776
0.973729
0.9737
0.973696
0.973701
0.973705
0.973732
0.973958
0.974807
0.9775
0.982074
0.989458
0.9971
1.00299
1.00772
1.00954
1.00993
1.00959
1.00992
1.01041
1.01067
1.01065
1.0106
1.01065
1.01069
1.01068
1.01065
1.01061
1.01061
1.01063
1.0107
0.973871
0.973881
0.97389
0.973898
0.973905
0.973912
0.97392
0.973928
0.973937
0.973946
0.973954
0.97396
0.973965
0.973967
0.973966
0.973964
0.97396
0.973953
0.97394
0.973919
0.973893
0.973866
0.97384
0.973813
0.973786
0.973758
0.973728
0.973696
0.973663
0.973629
0.973601
0.973582
0.97357
0.973563
0.973557
0.973554
0.973559
0.973573
0.9736
0.973642
0.973693
0.97375
0.973808
0.973842
0.973841
0.973828
0.973807
0.973784
0.973751
0.9737
0.973631
0.973573
0.973556
0.97356
0.973593
0.973658
0.973737
0.973817
0.973861
0.973862
0.973852
0.973808
0.973722
0.97364
0.973621
0.973638
0.973696
0.973789
0.973816
0.973808
0.973774
0.973711
0.973679
0.973677
0.973679
0.973679
0.973688
0.97376
0.974175
0.975487
0.979091
0.984725
0.992369
1.00011
1.00382
1.00698
1.00856
1.01037
1.01063
1.01058
1.01044
1.01053
1.01066
1.01068
1.01066
1.01064
1.01062
1.01061
1.01062
1.01069
0.97382
0.973838
0.973856
0.973873
0.97389
0.973907
0.973921
0.973934
0.973945
0.973958
0.973968
0.973975
0.973983
0.973991
0.973996
0.973998
0.973999
0.974
0.974
0.973999
0.973999
0.973999
0.973995
0.973986
0.973973
0.973958
0.973939
0.973912
0.973874
0.973825
0.973769
0.973713
0.973655
0.973595
0.973549
0.973533
0.97353
0.973531
0.973535
0.973544
0.973558
0.97358
0.973612
0.973653
0.973699
0.973749
0.973802
0.973835
0.973849
0.973848
0.973819
0.973757
0.973687
0.973645
0.973641
0.973651
0.973676
0.973716
0.973775
0.97383
0.973838
0.973833
0.973801
0.973733
0.973666
0.973653
0.973671
0.973722
0.973801
0.973828
0.973811
0.973765
0.973701
0.973671
0.97367
0.973686
0.973711
0.973711
0.973727
0.973863
0.974578
0.976489
0.981328
0.98812
0.995594
1.00333
1.00724
1.0098
1.00994
1.00984
1.01016
1.01058
1.01066
1.01064
1.0106
1.01062
1.01063
1.01062
1.01064
1.0107
0.973674
0.973683
0.973694
0.973707
0.973723
0.973741
0.973759
0.973777
0.973796
0.973813
0.97383
0.973847
0.973863
0.973878
0.973891
0.973905
0.973918
0.973936
0.973959
0.973985
0.974003
0.974012
0.974016
0.974016
0.974016
0.974013
0.974004
0.973986
0.973958
0.973922
0.973879
0.973829
0.973777
0.973723
0.973665
0.973606
0.973558
0.973535
0.973532
0.973528
0.973522
0.973518
0.973517
0.973524
0.973554
0.973619
0.973724
0.97384
0.973912
0.973937
0.973941
0.973936
0.973916
0.973882
0.973834
0.973763
0.973703
0.97369
0.973696
0.973731
0.97378
0.973802
0.973797
0.973769
0.973723
0.973678
0.973672
0.973688
0.97373
0.973781
0.973806
0.973801
0.973768
0.973723
0.973709
0.973714
0.973732
0.973738
0.973736
0.973714
0.973751
0.974013
0.97524
0.978103
0.984366
0.991943
0.998726
1.00504
1.00681
1.00891
1.01046
1.01062
1.01053
1.01045
1.01055
1.01064
1.01063
1.01063
1.01068
1.01072
0.973549
0.973544
0.97354
0.973535
0.97353
0.973528
0.973526
0.973524
0.973524
0.973529
0.973537
0.973547
0.973559
0.973573
0.973591
0.973613
0.973641
0.973674
0.973713
0.973754
0.973792
0.973822
0.973846
0.973868
0.973889
0.973909
0.973922
0.973923
0.973919
0.97391
0.973899
0.973892
0.973884
0.973873
0.973856
0.973827
0.973787
0.973744
0.973703
0.973659
0.973604
0.973548
0.973517
0.973517
0.973538
0.973596
0.973685
0.973774
0.97386
0.97394
0.973992
0.974014
0.974019
0.974022
0.974008
0.973939
0.973819
0.97372
0.973681
0.973668
0.973666
0.973687
0.973728
0.973753
0.973748
0.973733
0.973707
0.9737
0.973706
0.973737
0.973781
0.973806
0.973807
0.973789
0.973761
0.973754
0.97376
0.973767
0.973757
0.973725
0.973689
0.973694
0.973812
0.974374
0.976482
0.98061
0.988058
0.996196
1.00281
1.0079
1.00986
1.00983
1.00988
1.01024
1.01063
1.01063
1.01058
1.01064
1.01073
1.01072
0.973523
0.973512
0.9735
0.973485
0.973467
0.973448
0.973433
0.973427
0.973425
0.973423
0.973422
0.973423
0.973427
0.973437
0.973449
0.973464
0.973484
0.973511
0.97354
0.973567
0.973589
0.973609
0.973628
0.973652
0.973684
0.973722
0.973758
0.973788
0.973817
0.973848
0.973893
0.973942
0.973961
0.973966
0.973983
0.974
0.974005
0.974002
0.973982
0.973937
0.973873
0.973803
0.973731
0.973663
0.973646
0.973668
0.973705
0.973739
0.973779
0.973833
0.973895
0.973969
0.974036
0.974052
0.974044
0.974
0.973918
0.973828
0.973731
0.973658
0.973634
0.973631
0.973639
0.973679
0.973741
0.973777
0.973788
0.973777
0.973752
0.973742
0.973753
0.973785
0.973807
0.973808
0.973795
0.973775
0.973774
0.97378
0.973775
0.973747
0.973704
0.973694
0.973702
0.973751
0.974052
0.975138
0.978417
0.984034
0.99225
1.00016
1.00456
1.00728
1.00928
1.0106
1.01059
1.01043
1.0105
1.01071
1.01075
1.01071
0.973796
0.97378
0.973764
0.973745
0.973725
0.973701
0.973674
0.973648
0.973623
0.9736
0.973578
0.973569
0.973573
0.973577
0.973577
0.973579
0.973583
0.973588
0.973595
0.973601
0.973605
0.973607
0.973611
0.973625
0.973653
0.973689
0.973725
0.973746
0.973754
0.973767
0.973808
0.973868
0.973926
0.973993
0.974047
0.974072
0.974079
0.974074
0.974056
0.974019
0.973987
0.973979
0.973969
0.973944
0.973901
0.97386
0.973816
0.973761
0.973733
0.973722
0.973728
0.973771
0.973833
0.973881
0.973908
0.973914
0.973906
0.973889
0.973844
0.973764
0.973679
0.973636
0.973636
0.973646
0.973684
0.973771
0.973844
0.973858
0.973845
0.9738
0.973765
0.973764
0.973779
0.973798
0.973795
0.973783
0.973773
0.973774
0.973773
0.973767
0.973744
0.973731
0.973736
0.973763
0.973795
0.973914
0.974543
0.976394
0.981383
0.988476
0.996495
1.00458
1.008
1.0101
1.0097
1.01
1.01052
1.01072
1.0107
1.01063
0.974072
0.974086
0.974101
0.974119
0.974138
0.97415
0.974151
0.97415
0.974146
0.974144
0.974136
0.974122
0.974106
0.97409
0.974059
0.974031
0.974019
0.974007
0.97398
0.973944
0.973909
0.973869
0.973817
0.973777
0.973758
0.973755
0.973766
0.973782
0.97379
0.973791
0.973798
0.97383
0.973879
0.973927
0.973957
0.973968
0.973966
0.973962
0.973962
0.973972
0.97399
0.974027
0.974063
0.974074
0.974063
0.97402
0.973956
0.973872
0.973783
0.973715
0.973676
0.973675
0.973673
0.973664
0.973662
0.973693
0.973785
0.973874
0.973899
0.973897
0.973868
0.973787
0.973687
0.973644
0.973654
0.973708
0.973815
0.973889
0.97389
0.973862
0.973798
0.973759
0.973755
0.973768
0.973789
0.973789
0.973779
0.973769
0.973773
0.973783
0.973786
0.97379
0.973788
0.973788
0.973802
0.973813
0.97386
0.974127
0.975418
0.978516
0.985288
0.993693
1.00003
1.00602
1.00768
1.00986
1.01058
1.01055
1.01044
1.01056
0.97404
0.974062
0.974083
0.974103
0.97412
0.974139
0.974168
0.974187
0.974191
0.974199
0.974222
0.974254
0.974275
0.974286
0.974284
0.974282
0.974284
0.97428
0.974243
0.974218
0.974205
0.974177
0.974123
0.974071
0.974034
0.973999
0.973961
0.973926
0.973899
0.973871
0.973834
0.973818
0.973822
0.973814
0.97378
0.973725
0.973662
0.97362
0.973606
0.973609
0.973658
0.973762
0.973882
0.973983
0.97405
0.974068
0.974056
0.974018
0.973968
0.973924
0.973877
0.973802
0.973707
0.973629
0.973613
0.973613
0.973653
0.973775
0.973915
0.973962
0.973962
0.973933
0.973842
0.973718
0.973663
0.973671
0.973718
0.973813
0.973875
0.973873
0.97384
0.97378
0.973754
0.973756
0.973771
0.973794
0.9738
0.973794
0.973791
0.973796
0.973811
0.973821
0.973819
0.973813
0.973805
0.973809
0.973806
0.973816
0.973946
0.974584
0.977
0.981883
0.989944
0.998668
1.005
1.00907
1.00988
1.00966
1.01005
1.0106
0.97348
0.973512
0.973548
0.973593
0.973637
0.973679
0.973726
0.97377
0.973817
0.973867
0.973931
0.974005
0.974022
0.974026
0.974043
0.974077
0.974113
0.974149
0.974174
0.974171
0.974155
0.97413
0.974094
0.974071
0.974064
0.974049
0.974015
0.973977
0.973965
0.973957
0.973923
0.973843
0.973729
0.973631
0.973563
0.973496
0.973423
0.973375
0.973362
0.973386
0.973469
0.973575
0.973669
0.973744
0.9738
0.973862
0.973954
0.974011
0.974032
0.974064
0.974075
0.974069
0.973996
0.973841
0.973711
0.973669
0.973668
0.973701
0.973795
0.973912
0.973973
0.973971
0.973926
0.973834
0.973739
0.973692
0.973689
0.973704
0.973762
0.973838
0.97386
0.973848
0.973807
0.973772
0.973772
0.973792
0.973823
0.97383
0.973826
0.973821
0.973826
0.973828
0.973825
0.97382
0.973814
0.973798
0.973783
0.973768
0.973766
0.973816
0.974189
0.975611
0.979788
0.98647
0.995171
1.00292
1.00593
1.00839
1.01036
1.01058
0.97325
0.973224
0.973201
0.973198
0.973211
0.973233
0.973247
0.973255
0.973265
0.973285
0.973325
0.973379
0.973423
0.973459
0.973478
0.973484
0.973493
0.973506
0.973521
0.973535
0.973551
0.97357
0.973591
0.973631
0.973692
0.97375
0.9738
0.973851
0.973911
0.973961
0.973978
0.97397
0.973922
0.973826
0.973737
0.97366
0.973618
0.973626
0.973631
0.973601
0.97354
0.973524
0.973538
0.973549
0.973558
0.973577
0.973638
0.973713
0.973816
0.973949
0.974034
0.974066
0.974066
0.974042
0.97402
0.973972
0.973871
0.973728
0.973661
0.973671
0.973721
0.973796
0.973864
0.973886
0.97388
0.973845
0.97376
0.973711
0.973715
0.973767
0.973868
0.973905
0.973893
0.973845
0.973799
0.9738
0.973828
0.973853
0.973853
0.973842
0.973825
0.973819
0.973809
0.973797
0.97378
0.973762
0.973753
0.973744
0.973734
0.973739
0.973771
0.973956
0.974932
0.977611
0.984089
0.992121
1.00048
1.00706
1.0095
1.00989
0.973636
0.973573
0.973522
0.973469
0.973433
0.973433
0.973436
0.973435
0.973436
0.973446
0.973468
0.973498
0.973518
0.973527
0.973536
0.973537
0.973524
0.973502
0.973488
0.973486
0.97349
0.973506
0.973536
0.973587
0.973651
0.973674
0.973676
0.973704
0.973777