/*--------------------------------*- C++ -*----------------------------------*\
  =========                 |
  \\      /  F ield         | OpenFOAM: The Open Source CFD Toolbox
   \\    /   O peration     | Website:  https://openfoam.org
    \\  /    A nd           | Version:  7
     \\/     M anipulation  |
\*---------------------------------------------------------------------------*/
FoamFile
{
    version     2.0;
    format      ascii;
    class       volVectorField;
    location    "14";
    object      U;
}
// * * * * * * * * * * * * * * * * * * * * * * * * * * * * * * * * * * * * * //

dimensions      [0 1 -1 0 0 0 0];

internalField   nonuniform List<vector> 
90000
(
(2.14251 -0.379141 0)
(2.1175 -0.335413 0)
(2.09963 -0.303173 0)
(2.07884 -0.257145 0)
(2.06791 -0.230685 0)
(2.05169 -0.189317 0)
(2.04501 -0.168725 0)
(2.03195 -0.133224 0)
(2.02808 -0.118394 0)
(2.01793 -0.0897753 0)
(2.0156 -0.080046 0)
(2.00809 -0.0586617 0)
(2.00643 -0.0531516 0)
(2.00141 -0.0386151 0)
(2.00018 -0.0362369 0)
(1.99715 -0.0274227 0)
(1.99646 -0.0264077 0)
(1.99476 -0.0213718 0)
(1.99459 -0.0210612 0)
(1.99338 -0.018265 0)
(1.99325 -0.0177313 0)
(1.99212 -0.0158868 0)
(1.99063 -0.0139277 0)
(1.98998 -0.011191 0)
(1.98807 -0.00834682 0)
(1.98644 -0.00352749 0)
(1.98554 -0.000157912 0)
(1.98629 0.00469466 0)
(1.98714 0.00614931 0)
(1.98699 0.00613108 0)
(1.98623 0.00565433 0)
(1.98518 0.00463955 0)
(1.98432 0.00361216 0)
(1.98375 0.00203588 0)
(1.98384 0.00116869 0)
(1.98398 0.000181886 0)
(1.98427 0.00050507 0)
(1.98479 0.000879169 0)
(1.98594 0.00154762 0)
(1.98701 0.0029594 0)
(1.98725 0.00314517 0)
(1.9876 0.00295351 0)
(1.98755 0.00266752 0)
(1.9871 0.00200193 0)
(1.98646 0.00106247 0)
(1.9858 0.000143324 0)
(1.98576 0.000679527 0)
(1.98613 0.00113399 0)
(1.98675 0.00183016 0)
(1.9872 0.00274347 0)
(1.98708 0.00266952 0)
(1.987 0.00230781 0)
(1.98656 0.0014286 0)
(1.98596 0.000794186 0)
(1.98606 0.00113238 0)
(1.98634 0.00155761 0)
(1.98659 0.00199955 0)
(1.98667 0.00190254 0)
(1.98656 0.0017787 0)
(1.98624 0.0014914 0)
(1.98619 0.001381 0)
(1.98633 0.00153821 0)
(1.98659 0.00179903 0)
(1.98662 0.00170375 0)
(1.98654 0.00164828 0)
(1.98639 0.00141842 0)
(1.98636 0.00152892 0)
(1.98644 0.00154623 0)
(1.98645 0.00146848 0)
(1.98643 0.00139923 0)
(1.98632 0.00123 0)
(1.98639 0.00123045 0)
(1.98647 0.00128397 0)
(1.98651 0.00131008 0)
(1.98653 0.00131167 0)
(1.9865 0.00125336 0)
(1.98647 0.00118191 0)
(1.98638 0.00103791 0)
(1.98649 0.000985121 0)
(1.98658 0.00111305 0)
(1.98673 0.00128462 0)
(1.98681 0.00137122 0)
(1.98681 0.00133871 0)
(1.98676 0.0012812 0)
(1.98665 0.00114531 0)
(1.98657 0.00102408 0)
(1.98654 0.000897651 0)
(1.98656 0.000881069 0)
(1.98663 0.000878775 0)
(1.98668 0.000988295 0)
(1.98672 0.00112491 0)
(1.98677 0.00121992 0)
(1.98679 0.00121984 0)
(1.98681 0.00118557 0)
(1.98685 0.00120678 0)
(1.98687 0.00129259 0)
(1.9869 0.00138388 0)
(1.98693 0.00139109 0)
(1.98693 0.00137573 0)
(1.98689 0.00127929 0)
(2.16343 -0.409089 0)
(2.16301 -0.408669 0)
(2.16196 -0.407469 0)
(2.15982 -0.404775 0)
(2.1565 -0.400304 0)
(2.15124 -0.39247 0)
(2.14476 -0.38248 0)
(2.13555 -0.366454 0)
(2.12613 -0.349804 0)
(2.11303 -0.3239 0)
(2.10208 -0.30173 0)
(2.08611 -0.266776 0)
(2.07569 -0.242124 0)
(2.05834 -0.201651 0)
(2.05013 -0.178095 0)
(2.03307 -0.137287 0)
(2.02775 -0.117571 0)
(2.01255 -0.0816141 0)
(2.00973 -0.0664127 0)
(1.99758 -0.0385035 0)
(1.99651 -0.0269651 0)
(1.98817 -0.00769323 0)
(1.98739 0.00111477 0)
(1.98265 0.0132281 0)
(1.98099 0.0180947 0)
(1.98037 0.0222122 0)
(1.97962 0.0217289 0)
(1.97863 0.018885 0)
(1.97856 0.0138989 0)
(1.97943 0.0079835 0)
(1.98153 0.00411921 0)
(1.98278 0.00150603 0)
(1.98353 0.000301868 0)
(1.98384 -0.000782311 0)
(1.98399 -0.000819327 0)
(1.98431 -0.000601528 0)
(1.98527 0.00062314 0)
(1.98627 0.00297857 0)
(1.98651 0.0043409 0)
(1.9864 0.00451437 0)
(1.98598 0.00437638 0)
(1.98518 0.00326262 0)
(1.98446 0.00152315 0)
(1.98413 9.71037e-05 0)
(1.98423 -0.000882516 0)
(1.98454 -0.000728878 0)
(1.98515 0.000329318 0)
(1.98549 0.00142019 0)
(1.98607 0.00272188 0)
(1.98601 0.00284279 0)
(1.98547 0.00243974 0)
(1.98486 0.0013779 0)
(1.98449 0.000124255 0)
(1.98466 0.000211432 0)
(1.98501 0.000777259 0)
(1.9855 0.00164948 0)
(1.98563 0.00208388 0)
(1.98554 0.00199695 0)
(1.98523 0.0013243 0)
(1.98514 0.000813022 0)
(1.98528 0.000935411 0)
(1.98541 0.00132669 0)
(1.98581 0.00178237 0)
(1.98575 0.00175369 0)
(1.98558 0.00143711 0)
(1.98553 0.00128045 0)
(1.98564 0.00137666 0)
(1.98574 0.00149356 0)
(1.98574 0.0014582 0)
(1.98568 0.00122798 0)
(1.98566 0.00112783 0)
(1.98579 0.00121634 0)
(1.98592 0.00131624 0)
(1.98596 0.00133271 0)
(1.98596 0.00132969 0)
(1.98593 0.00125802 0)
(1.9859 0.00110715 0)
(1.98586 0.000976917 0)
(1.98599 0.00101319 0)
(1.98613 0.0011003 0)
(1.98635 0.00128414 0)
(1.9864 0.00133793 0)
(1.98639 0.00133082 0)
(1.98633 0.001231 0)
(1.98625 0.00105762 0)
(1.9862 0.000926164 0)
(1.98619 0.000851899 0)
(1.98624 0.000816411 0)
(1.98633 0.000879117 0)
(1.98639 0.000964654 0)
(1.98645 0.00109953 0)
(1.98649 0.00118893 0)
(1.98653 0.00121087 0)
(1.98655 0.00119385 0)
(1.98661 0.00119647 0)
(1.98664 0.00125579 0)
(1.98668 0.0013281 0)
(1.9867 0.0013587 0)
(1.9867 0.00135243 0)
(1.98667 0.00125709 0)
(2.16264 -0.409041 0)
(2.1626 -0.409018 0)
(2.16257 -0.408986 0)
(2.16253 -0.408935 0)
(2.16248 -0.40887 0)
(2.16239 -0.408754 0)
(2.16223 -0.408558 0)
(2.16188 -0.408237 0)
(2.16128 -0.407569 0)
(2.16031 -0.406352 0)
(2.15882 -0.404179 0)
(2.15645 -0.40056 0)
(2.1531 -0.394967 0)
(2.14799 -0.386068 0)
(2.14172 -0.374432 0)
(2.13248 -0.356303 0)
(2.12298 -0.336968 0)
(2.10909 -0.306835 0)
(2.09794 -0.281311 0)
(2.08072 -0.240591 0)
(2.0707 -0.213856 0)
(2.0531 -0.169272 0)
(2.04611 -0.147087 0)
(2.03149 -0.107508 0)
(2.02738 -0.0926827 0)
(2.01733 -0.063586 0)
(2.01496 -0.0553299 0)
(2.00687 -0.0397749 0)
(2.0048 -0.0313018 0)
(1.99667 -0.0205977 0)
(1.99543 -0.0157896 0)
(1.99217 -0.0114929 0)
(1.99153 -0.00805866 0)
(1.98953 -0.00464265 0)
(1.98816 -0.000467191 0)
(1.98636 0.00390231 0)
(1.98586 0.00771728 0)
(1.98523 0.00797616 0)
(1.98346 0.00721915 0)
(1.9822 0.00497375 0)
(1.98127 0.00172577 0)
(1.98071 -0.000282263 0)
(1.98103 -0.00265062 0)
(1.98162 -0.00242009 0)
(1.983 -0.00105448 0)
(1.98444 0.000822661 0)
(1.98497 0.00223957 0)
(1.98545 0.00367682 0)
(1.98519 0.0034948 0)
(1.98424 0.00224059 0)
(1.98315 0.0003563 0)
(1.98274 -0.000677524 0)
(1.98326 -5.47709e-05 0)
(1.98402 0.000997706 0)
(1.98472 0.00212659 0)
(1.98506 0.00255958 0)
(1.98481 0.00216739 0)
(1.98439 0.00136351 0)
(1.98398 0.000248069 0)
(1.98429 0.000476091 0)
(1.98481 0.00123204 0)
(1.98515 0.00209567 0)
(1.98511 0.00199603 0)
(1.98489 0.00152819 0)
(1.98476 0.000964029 0)
(1.98499 0.00112277 0)
(1.98522 0.00155664 0)
(1.98521 0.00158698 0)
(1.98507 0.00129849 0)
(1.98507 0.000928547 0)
(1.98522 0.00106462 0)
(1.98535 0.00131682 0)
(1.98547 0.00145637 0)
(1.98548 0.00141475 0)
(1.98548 0.00129938 0)
(1.98547 0.00111513 0)
(1.98544 0.000867089 0)
(1.98553 0.000894145 0)
(1.98565 0.00102331 0)
(1.98578 0.00124152 0)
(1.98597 0.00137931 0)
(1.986 0.00137191 0)
(1.986 0.00124851 0)
(1.98596 0.00107352 0)
(1.9859 0.00086302 0)
(1.98587 0.000764765 0)
(1.98592 0.000774846 0)
(1.98598 0.000784176 0)
(1.98606 0.000916453 0)
(1.98612 0.00102066 0)
(1.98619 0.00114877 0)
(1.98623 0.00121284 0)
(1.98627 0.00121486 0)
(1.98631 0.00119911 0)
(1.98637 0.00121631 0)
(1.98641 0.00127157 0)
(1.98645 0.00133811 0)
(1.98648 0.00135842 0)
(1.98649 0.00132053 0)
(1.98648 0.00119779 0)
(2.16123 -0.408735 0)
(2.1612 -0.408734 0)
(2.16116 -0.408737 0)
(2.16112 -0.408737 0)
(2.16108 -0.408746 0)
(2.16103 -0.408746 0)
(2.16098 -0.408749 0)
(2.16093 -0.408718 0)
(2.16087 -0.408676 0)
(2.16082 -0.408619 0)
(2.16076 -0.408556 0)
(2.16069 -0.408458 0)
(2.1606 -0.40834 0)
(2.16045 -0.408101 0)
(2.16014 -0.407764 0)
(2.15957 -0.407089 0)
(2.15867 -0.405767 0)
(2.15715 -0.403315 0)
(2.15482 -0.399191 0)
(2.15088 -0.391851 0)
(2.14563 -0.381578 0)
(2.13689 -0.363497 0)
(2.12765 -0.343728 0)
(2.11216 -0.308651 0)
(2.10059 -0.280086 0)
(2.07865 -0.227389 0)
(2.06864 -0.196177 0)
(2.04427 -0.136586 0)
(2.03899 -0.111444 0)
(2.01764 -0.0624129 0)
(2.01436 -0.0470484 0)
(1.99978 -0.0173576 0)
(1.99777 -0.00834537 0)
(1.99088 0.00605105 0)
(1.988 0.0104426 0)
(1.9868 0.014822 0)
(1.98459 0.0122556 0)
(1.98317 0.0072071 0)
(1.98236 0.00324852 0)
(1.98171 0.00180968 0)
(1.9809 -0.00031587 0)
(1.98149 -0.000192938 0)
(1.98184 -9.35882e-06 0)
(1.98299 0.0017867 0)
(1.9847 0.00323785 0)
(1.98515 0.00488864 0)
(1.98476 0.00449836 0)
(1.98388 0.0032523 0)
(1.98274 0.00138162 0)
(1.98172 -0.000828874 0)
(1.98236 -7.22387e-05 0)
(1.98309 0.000670616 0)
(1.98408 0.00166854 0)
(1.98482 0.00324762 0)
(1.98475 0.00310615 0)
(1.98416 0.00215623 0)
(1.98349 0.000861882 0)
(1.98332 0.000386963 0)
(1.98364 0.000845197 0)
(1.98414 0.00159898 0)
(1.9846 0.00248187 0)
(1.98451 0.00218529 0)
(1.98405 0.00148973 0)
(1.9839 0.00102441 0)
(1.98412 0.00126796 0)
(1.9844 0.00176602 0)
(1.98443 0.0016579 0)
(1.98429 0.00131777 0)
(1.98423 0.00105444 0)
(1.98434 0.00119236 0)
(1.98452 0.00147186 0)
(1.98463 0.00146668 0)
(1.98466 0.00138138 0)
(1.98468 0.00123811 0)
(1.98473 0.00117351 0)
(1.98474 0.00108966 0)
(1.98474 0.00106758 0)
(1.98481 0.00108066 0)
(1.98497 0.00119169 0)
(1.98518 0.00137141 0)
(1.98524 0.00134461 0)
(1.98529 0.00125896 0)
(1.98532 0.00120853 0)
(1.9853 0.0011192 0)
(1.98525 0.000981501 0)
(1.98523 0.000910583 0)
(1.98532 0.000883281 0)
(1.98542 0.00086738 0)
(1.98549 0.000945117 0)
(1.98556 0.00105844 0)
(1.98565 0.00117833 0)
(1.98567 0.00119567 0)
(1.98571 0.00118377 0)
(1.98579 0.00119186 0)
(1.98586 0.00120931 0)
(1.98591 0.00128018 0)
(1.98595 0.00133984 0)
(1.98599 0.00133852 0)
(1.98601 0.00133071 0)
(1.98603 0.00124142 0)
(2.15983 -0.408488 0)
(2.15979 -0.408487 0)
(2.15976 -0.408476 0)
(2.15973 -0.408476 0)
(2.15969 -0.408466 0)
(2.15966 -0.408468 0)
(2.15962 -0.408456 0)
(2.1596 -0.408464 0)
(2.15959 -0.40847 0)
(2.15957 -0.408483 0)
(2.15956 -0.408492 0)
(2.15953 -0.408514 0)
(2.1595 -0.408519 0)
(2.15946 -0.408553 0)
(2.15942 -0.408516 0)
(2.1594 -0.408466 0)
(2.15937 -0.408409 0)
(2.15934 -0.408336 0)
(2.15929 -0.408234 0)
(2.15921 -0.40808 0)
(2.15903 -0.407746 0)
(2.15863 -0.407161 0)
(2.15787 -0.405806 0)
(2.15636 -0.40317 0)
(2.15378 -0.398102 0)
(2.14897 -0.388916 0)
(2.14213 -0.374715 0)
(2.13037 -0.349869 0)
(2.11827 -0.322046 0)
(2.09807 -0.274394 0)
(2.08474 -0.238662 0)
(2.05991 -0.176828 0)
(2.05044 -0.147702 0)
(2.02971 -0.0943839 0)
(2.02479 -0.0793896 0)
(2.01226 -0.0487567 0)
(2.01189 -0.0420636 0)
(2.00052 -0.0264362 0)
(1.99819 -0.0191699 0)
(1.99392 -0.0110322 0)
(1.99053 -0.00514225 0)
(1.98944 0.00072844 0)
(1.98681 0.00569263 0)
(1.98544 0.009738 0)
(1.98436 0.00917707 0)
(1.98296 0.0066025 0)
(1.98151 0.0024154 0)
(1.98086 -0.000845812 0)
(1.98105 -0.00386412 0)
(1.98191 -0.00324644 0)
(1.98381 -0.00116284 0)
(1.98519 0.00174792 0)
(1.98542 0.00356043 0)
(1.98517 0.00322097 0)
(1.98417 0.00189328 0)
(1.98309 -0.000300456 0)
(1.98323 -0.000478547 0)
(1.98379 0.000198759 0)
(1.98459 0.00132801 0)
(1.98488 0.00251326 0)
(1.98459 0.00209114 0)
(1.98405 0.00118514 0)
(1.98373 0.000483323 0)
(1.98395 0.000773718 0)
(1.98434 0.0015943 0)
(1.98437 0.00156968 0)
(1.98417 0.00130629 0)
(1.98396 0.000790154 0)
(1.98402 0.000870067 0)
(1.98421 0.00111623 0)
(1.98433 0.00125889 0)
(1.98434 0.00123558 0)
(1.98436 0.00123575 0)
(1.98437 0.00124808 0)
(1.98436 0.00117153 0)
(1.98432 0.00102907 0)
(1.98432 0.00086777 0)
(1.98441 0.000934255 0)
(1.9846 0.00113388 0)
(1.98479 0.00128385 0)
(1.98484 0.00128783 0)
(1.98486 0.00125537 0)
(1.98485 0.00115225 0)
(1.98481 0.000969463 0)
(1.98476 0.000762916 0)
(1.98476 0.000651474 0)
(1.98484 0.000661089 0)
(1.98493 0.000735938 0)
(1.98504 0.000943807 0)
(1.98509 0.00110194 0)
(1.98518 0.00117987 0)
(1.9852 0.00119653 0)
(1.98523 0.0011976 0)
(1.98529 0.00117432 0)
(1.98537 0.00119965 0)
(1.98544 0.00126105 0)
(1.98548 0.00130848 0)
(1.9855 0.00130395 0)
(1.98551 0.00125506 0)
(1.98554 0.00112793 0)
(2.15907 -0.408341 0)
(2.15906 -0.408335 0)
(2.15905 -0.408339 0)
(2.15905 -0.408332 0)
(2.15904 -0.408336 0)
(2.15904 -0.408328 0)
(2.15904 -0.408333 0)
(2.15904 -0.408326 0)
(2.15904 -0.408333 0)
(2.15904 -0.408327 0)
(2.15904 -0.408336 0)
(2.15905 -0.408329 0)
(2.15906 -0.408339 0)
(2.15907 -0.408335 0)
(2.15908 -0.408347 0)
(2.15911 -0.40836 0)
(2.15913 -0.408387 0)
(2.15916 -0.408402 0)
(2.15918 -0.408438 0)
(2.15919 -0.408444 0)
(2.15917 -0.408487 0)
(2.15921 -0.40844 0)
(2.15924 -0.408396 0)
(2.15927 -0.408349 0)
(2.15927 -0.408259 0)
(2.15919 -0.40808 0)
(2.159 -0.407596 0)
(2.15842 -0.406465 0)
(2.15712 -0.403864 0)
(2.15413 -0.398097 0)
(2.14911 -0.38778 0)
(2.13902 -0.36688 0)
(2.12732 -0.340646 0)
(2.10554 -0.290754 0)
(2.09116 -0.251438 0)
(2.06037 -0.177876 0)
(2.05186 -0.141882 0)
(2.02369 -0.0743027 0)
(2.02054 -0.0546218 0)
(2.00353 -0.016655 0)
(2.00069 -0.00652958 0)
(1.99204 0.00960629 0)
(1.98939 0.0141879 0)
(1.98665 0.013094 0)
(1.98453 0.00678576 0)
(1.98337 0.00341285 0)
(1.98189 -0.000707496 0)
(1.98237 -0.00103601 0)
(1.98296 -0.0010346 0)
(1.98468 0.00127643 0)
(1.98758 0.00381706 0)
(1.98587 0.00364744 0)
(1.98522 0.0031635 0)
(1.98381 0.00114278 0)
(1.98312 -0.000242297 0)
(1.98332 7.24911e-05 0)
(1.98401 0.000935901 0)
(1.98523 0.00175309 0)
(1.98559 0.00287737 0)
(1.98531 0.00237197 0)
(1.98468 0.00120397 0)
(1.98437 0.00103209 0)
(1.98472 0.00130597 0)
(1.98509 0.00178863 0)
(1.98522 0.00188816 0)
(1.98491 0.00154535 0)
(1.98464 0.00104907 0)
(1.9846 0.00121169 0)
(1.98474 0.00143034 0)
(1.98489 0.00162617 0)
(1.98491 0.00146751 0)
(1.98486 0.00132921 0)
(1.98483 0.0013669 0)
(1.98479 0.00134253 0)
(1.98471 0.00120887 0)
(1.98463 0.00101552 0)
(1.98467 0.00100589 0)
(1.98481 0.00112145 0)
(1.98499 0.00134732 0)
(1.9851 0.00138338 0)
(1.98511 0.00136887 0)
(1.98508 0.00127828 0)
(1.98503 0.00112539 0)
(1.98495 0.000953444 0)
(1.98489 0.000887653 0)
(1.98489 0.000885863 0)
(1.98492 0.000873693 0)
(1.98496 0.000893673 0)
(1.98506 0.000944091 0)
(1.98512 0.00101994 0)
(1.98517 0.00113782 0)
(1.98517 0.00120294 0)
(1.98519 0.00119924 0)
(1.98523 0.00122188 0)
(1.9853 0.00126702 0)
(1.98536 0.00133311 0)
(1.98537 0.0013723 0)
(1.98536 0.00135621 0)
(1.98535 0.00132426 0)
(1.98535 0.00122808 0)
(2.15918 -0.408365 0)
(2.1592 -0.408368 0)
(2.15922 -0.408369 0)
(2.15924 -0.408373 0)
(2.15926 -0.408373 0)
(2.15928 -0.408379 0)
(2.1593 -0.408378 0)
(2.15932 -0.408384 0)
(2.15935 -0.408385 0)
(2.15938 -0.40839 0)
(2.15941 -0.408393 0)
(2.15944 -0.4084 0)
(2.15947 -0.408402 0)
(2.15951 -0.40841 0)
(2.15955 -0.408413 0)
(2.15959 -0.408422 0)
(2.15963 -0.408428 0)
(2.15967 -0.408439 0)
(2.15972 -0.408447 0)
(2.15977 -0.408459 0)
(2.15983 -0.408471 0)
(2.15988 -0.408482 0)
(2.15992 -0.408511 0)
(2.15997 -0.408523 0)
(2.16001 -0.40856 0)
(2.16005 -0.408555 0)
(2.16004 -0.408577 0)
(2.16012 -0.408531 0)
(2.16018 -0.408502 0)
(2.1602 -0.408437 0)
(2.16013 -0.408214 0)
(2.15985 -0.407538 0)
(2.15897 -0.405649 0)
(2.15656 -0.401107 0)
(2.15188 -0.391318 0)
(2.14197 -0.371381 0)
(2.12912 -0.342199 0)
(2.1065 -0.289904 0)
(2.09006 -0.245037 0)
(2.06066 -0.170839 0)
(2.04981 -0.136114 0)
(2.02705 -0.0784712 0)
(2.02102 -0.0614202 0)
(2.00842 -0.0383036 0)
(2.00662 -0.0277534 0)
(1.99806 -0.0155589 0)
(1.99361 -0.00803386 0)
(1.9921 -0.000488837 0)
(1.98867 0.006449 0)
(1.987 0.00990965 0)
(1.98562 0.00863649 0)
(1.98378 0.00467639 0)
(1.98278 0.000767029 0)
(1.98259 -0.00348684 0)
(1.98353 -0.0028288 0)
(1.98539 -0.000424014 0)
(1.98666 0.00212053 0)
(1.98639 0.00334754 0)
(1.98609 0.00267934 0)
(1.98532 0.00138187 0)
(1.98499 -0.000209009 0)
(1.98539 0.000146104 0)
(1.9861 0.00125088 0)
(1.98624 0.00215499 0)
(1.986 0.00190234 0)
(1.98532 0.00108865 0)
(1.98547 0.000407911 0)
(1.98571 0.000666434 0)
(1.98591 0.0011987 0)
(1.98591 0.00155538 0)
(1.98575 0.00143973 0)
(1.98572 0.0012787 0)
(1.9857 0.00111978 0)
(1.98565 0.00104852 0)
(1.98551 0.000886127 0)
(1.98551 0.000900586 0)
(1.98563 0.00108165 0)
(1.9858 0.0012902 0)
(1.98589 0.00133773 0)
(1.98592 0.00127759 0)
(1.98588 0.00116316 0)
(1.98582 0.00109263 0)
(1.98573 0.000969397 0)
(1.98559 0.000811363 0)
(1.98552 0.000719755 0)
(1.9855 0.000682951 0)
(1.98551 0.000732161 0)
(1.98554 0.000838109 0)
(1.98564 0.00109887 0)
(1.98569 0.00119027 0)
(1.98568 0.00119531 0)
(1.98566 0.00116871 0)
(1.98566 0.00116071 0)
(1.98568 0.00113144 0)
(1.98572 0.00117372 0)
(1.98577 0.00122743 0)
(1.98573 0.00125194 0)
(1.9857 0.00123602 0)
(1.98566 0.00119312 0)
(1.9856 0.00108587 0)
(2.15994 -0.408512 0)
(2.15996 -0.408514 0)
(2.15999 -0.408517 0)
(2.16002 -0.408521 0)
(2.16005 -0.408526 0)
(2.16008 -0.408529 0)
(2.16011 -0.408535 0)
(2.16014 -0.408538 0)
(2.16018 -0.408541 0)
(2.16021 -0.408545 0)
(2.16025 -0.40855 0)
(2.16029 -0.408555 0)
(2.16033 -0.408559 0)
(2.16037 -0.408565 0)
(2.16041 -0.408571 0)
(2.16045 -0.408579 0)
(2.1605 -0.408585 0)
(2.16054 -0.408592 0)
(2.16059 -0.408598 0)
(2.16064 -0.408606 0)
(2.16069 -0.408614 0)
(2.16074 -0.408626 0)
(2.16079 -0.408639 0)
(2.16084 -0.408651 0)
(2.16089 -0.408663 0)
(2.16095 -0.408679 0)
(2.161 -0.408696 0)
(2.16104 -0.4087 0)
(2.16107 -0.408723 0)
(2.1611 -0.408722 0)
(2.16109 -0.408742 0)
(2.16116 -0.408727 0)
(2.16121 -0.408722 0)
(2.16123 -0.40869 0)
(2.16118 -0.408509 0)
(2.16088 -0.407845 0)
(2.15993 -0.405908 0)
(2.15707 -0.400381 0)
(2.15152 -0.388855 0)
(2.13869 -0.361677 0)
(2.12429 -0.327444 0)
(2.0947 -0.257679 0)
(2.07994 -0.210589 0)
(2.04131 -0.11871 0)
(2.03598 -0.085305 0)
(2.01021 -0.026058 0)
(2.00694 -0.0110768 0)
(1.99521 0.0124207 0)
(1.99222 0.0176325 0)
(1.988 0.0136396 0)
(1.98619 0.00600994 0)
(1.98403 0.00133592 0)
(1.9842 -0.001265 0)
(1.98474 -0.00157687 0)
(1.98699 0.000537799 0)
(1.98889 0.00346474 0)
(1.98854 0.00343655 0)
(1.98741 0.00305607 0)
(1.98612 0.00126815 0)
(1.9854 0.00016398 0)
(1.98577 0.000307559 0)
(1.98673 0.00139932 0)
(1.98717 0.00227012 0)
(1.98695 0.00219605 0)
(1.98618 0.0011561 0)
(1.98595 0.000870578 0)
(1.98613 0.000952698 0)
(1.98666 0.00140492 0)
(1.98678 0.00153387 0)
(1.98662 0.00139209 0)
(1.98648 0.00135811 0)
(1.98656 0.0015431 0)
(1.98655 0.00145599 0)
(1.98645 0.00120277 0)
(1.98635 0.00100514 0)
(1.98644 0.00100371 0)
(1.98667 0.00111335 0)
(1.98678 0.00135862 0)
(1.98675 0.00146858 0)
(1.98673 0.00135871 0)
(1.98669 0.00128834 0)
(1.98659 0.00114457 0)
(1.98648 0.00100383 0)
(1.98633 0.000869121 0)
(1.98629 0.000839798 0)
(1.98628 0.000845443 0)
(1.9863 0.000848809 0)
(1.98637 0.000911955 0)
(1.98646 0.000952062 0)
(1.9865 0.00109338 0)
(1.98645 0.00116906 0)
(1.98641 0.00119378 0)
(1.98638 0.00120909 0)
(1.98639 0.00127597 0)
(1.98642 0.00132854 0)
(1.98646 0.00137751 0)
(1.98638 0.00137167 0)
(1.98632 0.00133119 0)
(1.98627 0.00127421 0)
(1.98615 0.00117008 0)
(2.16088 -0.408696 0)
(2.1609 -0.408698 0)
(2.16092 -0.408699 0)
(2.16095 -0.408701 0)
(2.16098 -0.408705 0)
(2.161 -0.408707 0)
(2.16103 -0.40871 0)
(2.16106 -0.408714 0)
(2.16108 -0.408717 0)
(2.16111 -0.40872 0)
(2.16114 -0.408724 0)
(2.16117 -0.408729 0)
(2.1612 -0.408732 0)
(2.16123 -0.408736 0)
(2.16126 -0.408738 0)
(2.1613 -0.408743 0)
(2.16133 -0.408747 0)
(2.16136 -0.408754 0)
(2.16139 -0.40876 0)
(2.16143 -0.408768 0)
(2.16146 -0.408775 0)
(2.16149 -0.408782 0)
(2.16153 -0.408788 0)
(2.16156 -0.408799 0)
(2.1616 -0.408808 0)
(2.16163 -0.408818 0)
(2.16167 -0.408827 0)
(2.1617 -0.408844 0)
(2.16173 -0.408855 0)
(2.16177 -0.408869 0)
(2.1618 -0.408877 0)
(2.16182 -0.408878 0)
(2.16183 -0.408891 0)
(2.16185 -0.408889 0)
(2.16185 -0.408889 0)
(2.1619 -0.408875 0)
(2.16194 -0.408862 0)
(2.16194 -0.408797 0)
(2.16183 -0.408507 0)
(2.16129 -0.407481 0)
(2.15968 -0.404158 0)
(2.15507 -0.395375 0)
(2.14641 -0.376102 0)
(2.1279 -0.335992 0)
(2.10896 -0.287405 0)
(2.07548 -0.204539 0)
(2.06127 -0.158125 0)
(2.03249 -0.0844016 0)
(2.02584 -0.064169 0)
(2.01037 -0.0370936 0)
(2.00746 -0.0243967 0)
(1.99852 -0.0117949 0)
(1.99464 -0.0031898 0)
(1.99201 0.00479281 0)
(1.98992 0.00908155 0)
(1.98855 0.00788751 0)
(1.98619 0.00395793 0)
(1.98518 -0.000423058 0)
(1.98544 -0.00268878 0)
(1.98616 -0.00148152 0)
(1.98778 0.00126455 0)
(1.98822 0.00317759 0)
(1.98793 0.00285598 0)
(1.98685 0.0013104 0)
(1.98635 -0.000150714 0)
(1.9866 0.000227301 0)
(1.98718 0.00141958 0)
(1.98723 0.00200998 0)
(1.98717 0.00171805 0)
(1.98704 0.00119458 0)
(1.98711 0.00120384 0)
(1.98722 0.00129792 0)
(1.98713 0.00125206 0)
(1.98694 0.000949779 0)
(1.98693 0.000820175 0)
(1.98704 0.00100726 0)
(1.98721 0.00137041 0)
(1.98729 0.00142841 0)
(1.98726 0.00138411 0)
(1.98725 0.00129169 0)
(1.98719 0.00114749 0)
(1.98712 0.00101942 0)
(1.98701 0.000872187 0)
(1.98693 0.000789226 0)
(1.98693 0.000783041 0)
(1.98693 0.000770346 0)
(1.987 0.000846613 0)
(1.98712 0.000982794 0)
(1.98721 0.00115553 0)
(1.98719 0.00115088 0)
(1.98713 0.00116695 0)
(1.98708 0.00116569 0)
(1.98706 0.00117105 0)
(1.98707 0.00116021 0)
(1.98712 0.00122005 0)
(1.98712 0.0012564 0)
(1.98703 0.00127882 0)
(1.98696 0.0012245 0)
(1.9869 0.00115974 0)
(1.98675 0.00110303 0)
(2.16165 -0.408855 0)
(2.16167 -0.408856 0)
(2.16168 -0.40886 0)
(2.1617 -0.408862 0)
(2.16171 -0.408865 0)
(2.16173 -0.408866 0)
(2.16175 -0.408869 0)
(2.16176 -0.408868 0)
(2.16178 -0.40887 0)
(2.1618 -0.408871 0)
(2.16182 -0.408873 0)
(2.16183 -0.408877 0)
(2.16185 -0.40888 0)
(2.16187 -0.408884 0)
(2.16189 -0.408888 0)
(2.1619 -0.408892 0)
(2.16192 -0.408896 0)
(2.16194 -0.408899 0)
(2.16196 -0.408903 0)
(2.16198 -0.408908 0)
(2.16199 -0.408913 0)
(2.16201 -0.408919 0)
(2.16203 -0.408927 0)
(2.16205 -0.408931 0)
(2.16206 -0.408938 0)
(2.16208 -0.408945 0)
(2.1621 -0.408956 0)
(2.16211 -0.40896 0)
(2.16213 -0.408967 0)
(2.16215 -0.408971 0)
(2.16217 -0.408984 0)
(2.16219 -0.408988 0)
(2.1622 -0.408993 0)
(2.16222 -0.408996 0)
(2.16224 -0.408995 0)
(2.16225 -0.408996 0)
(2.16226 -0.408987 0)
(2.16227 -0.408982 0)
(2.1623 -0.408968 0)
(2.16233 -0.408952 0)
(2.16233 -0.408906 0)
(2.16226 -0.408723 0)
(2.16192 -0.408042 0)
(2.16057 -0.40545 0)
(2.15705 -0.398192 0)
(2.14693 -0.377338 0)
(2.13267 -0.343717 0)
(2.10087 -0.269897 0)
(2.08361 -0.213912 0)
(2.03919 -0.107398 0)
(2.03314 -0.0708854 0)
(2.00844 -0.0112396 0)
(1.99916 0.00303199 0)
(1.99646 0.0206913 0)
(1.99036 0.0148238 0)
(1.98759 0.00655575 0)
(1.98581 0.000178803 0)
(1.98601 -0.000783642 0)
(1.98688 -0.000674561 0)
(1.99009 0.00322339 0)
(1.99007 0.00396221 0)
(1.98911 0.00350389 0)
(1.98746 0.00133388 0)
(1.98653 -0.000288111 0)
(1.98691 -8.08901e-05 0)
(1.98797 0.00140899 0)
(1.98835 0.00251289 0)
(1.98797 0.00223835 0)
(1.98736 0.00128392 0)
(1.98734 0.00111186 0)
(1.98755 0.00127678 0)
(1.98755 0.00140885 0)
(1.98737 0.00118861 0)
(1.98719 0.000897272 0)
(1.98724 0.00092633 0)
(1.98748 0.00132167 0)
(1.98749 0.00156131 0)
(1.98752 0.00151177 0)
(1.98751 0.00143639 0)
(1.98754 0.00132098 0)
(1.98748 0.0011528 0)
(1.98742 0.000983269 0)
(1.98736 0.000865282 0)
(1.98735 0.000814858 0)
(1.98736 0.000820663 0)
(1.98738 0.000847824 0)
(1.98747 0.000882254 0)
(1.98761 0.000982976 0)
(1.98767 0.00107555 0)
(1.98761 0.00115306 0)
(1.98757 0.00115367 0)
(1.98753 0.00117503 0)
(1.98753 0.00122716 0)
(1.98755 0.001305 0)
(1.9876 0.00135039 0)
(1.98757 0.0013608 0)
(1.98751 0.00134192 0)
(1.98743 0.00130559 0)
(1.98736 0.00124154 0)
(1.98723 0.00114061 0)
(2.16215 -0.408943 0)
(2.16215 -0.408943 0)
(2.16216 -0.408944 0)
(2.16217 -0.408945 0)
(2.16218 -0.408947 0)
(2.16219 -0.408949 0)
(2.16219 -0.408952 0)
(2.1622 -0.408955 0)
(2.16221 -0.408959 0)
(2.16222 -0.408962 0)
(2.16223 -0.408965 0)
(2.16224 -0.408967 0)
(2.16224 -0.408969 0)
(2.16225 -0.40897 0)
(2.16226 -0.408973 0)
(2.16227 -0.408976 0)
(2.16227 -0.408982 0)
(2.16228 -0.408989 0)
(2.16229 -0.408994 0)
(2.1623 -0.408998 0)
(2.1623 -0.409005 0)
(2.16231 -0.409008 0)
(2.16232 -0.40901 0)
(2.16232 -0.409019 0)
(2.16233 -0.409024 0)
(2.16233 -0.409025 0)
(2.16234 -0.409029 0)
(2.16234 -0.409036 0)
(2.16235 -0.409039 0)
(2.16236 -0.40904 0)
(2.16236 -0.40904 0)
(2.16237 -0.40904 0)
(2.16238 -0.409041 0)
(2.16239 -0.409038 0)
(2.1624 -0.409039 0)
(2.16241 -0.409036 0)
(2.16242 -0.409029 0)
(2.16243 -0.409024 0)
(2.16244 -0.40902 0)
(2.16246 -0.409011 0)
(2.16247 -0.409002 0)
(2.16249 -0.408993 0)
(2.1625 -0.408978 0)
(2.1625 -0.408941 0)
(2.16244 -0.408798 0)
(2.1621 -0.408165 0)
(2.16085 -0.405614 0)
(2.15648 -0.397311 0)
(2.14707 -0.376044 0)
(2.12517 -0.328079 0)
(2.10299 -0.269126 0)
(2.06474 -0.171888 0)
(2.05009 -0.126248 0)
(2.02351 -0.0578753 0)
(2.02233 -0.0436886 0)
(2.00423 -0.0204205 0)
(1.99764 -0.0113582 0)
(1.99597 -0.00184158 0)
(1.99146 0.00763383 0)
(1.99023 0.00826747 0)
(1.9877 0.00546339 0)
(1.98591 0.000782393 0)
(1.98574 -0.00286207 0)
(1.9865 -0.00192024 0)
(1.98846 0.00116399 0)
(1.98893 0.00278872 0)
(1.98853 0.00248343 0)
(1.98745 0.000957765 0)
(1.98731 0.000741099 0)
(1.98759 0.00115268 0)
(1.98784 0.00160845 0)
(1.98768 0.00143597 0)
(1.98725 0.00072779 0)
(1.98729 0.000752517 0)
(1.98755 0.0012341 0)
(1.98782 0.00164427 0)
(1.98776 0.0015992 0)
(1.9877 0.00147518 0)
(1.98769 0.00135511 0)
(1.98772 0.00129979 0)
(1.98764 0.0010851 0)
(1.9876 0.000894243 0)
(1.98758 0.00078315 0)
(1.98758 0.000779062 0)
(1.9876 0.000802454 0)
(1.98762 0.000840611 0)
(1.98769 0.000933848 0)
(1.98781 0.00106814 0)
(1.98785 0.00115314 0)
(1.98784 0.00116226 0)
(1.98779 0.00116742 0)
(1.98778 0.00117343 0)
(1.98779 0.00119728 0)
(1.98781 0.00125044 0)
(1.98786 0.00131021 0)
(1.98783 0.00130669 0)
(1.98779 0.00126567 0)
(1.98771 0.00119297 0)
(1.98763 0.00111555 0)
(1.98755 0.00108681 0)
(2.1624 -0.408987 0)
(2.1624 -0.40899 0)
(2.16241 -0.408992 0)
(2.16241 -0.408994 0)
(2.16241 -0.408997 0)
(2.16242 -0.408999 0)
(2.16242 -0.409002 0)
(2.16242 -0.409004 0)
(2.16242 -0.409006 0)
(2.16243 -0.40901 0)
(2.16243 -0.409012 0)
(2.16243 -0.409017 0)
(2.16243 -0.409021 0)
(2.16244 -0.409026 0)
(2.16244 -0.409031 0)
(2.16244 -0.409036 0)
(2.16244 -0.409038 0)
(2.16244 -0.409039 0)
(2.16244 -0.409046 0)
(2.16244 -0.40905 0)
(2.16245 -0.409051 0)
(2.16245 -0.409059 0)
(2.16245 -0.409061 0)
(2.16245 -0.409062 0)
(2.16245 -0.409064 0)
(2.16245 -0.409068 0)
(2.16245 -0.409069 0)
(2.16245 -0.409067 0)
(2.16245 -0.409067 0)
(2.16246 -0.409066 0)
(2.16246 -0.409065 0)
(2.16246 -0.409063 0)
(2.16247 -0.409059 0)
(2.16247 -0.409055 0)
(2.16248 -0.409051 0)
(2.16249 -0.409046 0)
(2.16249 -0.409041 0)
(2.1625 -0.409034 0)
(2.16251 -0.409027 0)
(2.16252 -0.40902 0)
(2.16253 -0.409015 0)
(2.16254 -0.40901 0)
(2.16255 -0.409005 0)
(2.16256 -0.409003 0)
(2.16256 -0.408998 0)
(2.16256 -0.408992 0)
(2.16255 -0.408972 0)
(2.16246 -0.408818 0)
(2.16206 -0.408062 0)
(2.16023 -0.404521 0)
(2.15512 -0.393705 0)
(2.1395 -0.360701 0)
(2.12057 -0.311851 0)
(2.07621 -0.209412 0)
(2.06272 -0.147195 0)
(2.02036 -0.0457073 0)
(2.0131 -0.0217486 0)
(1.99994 0.0162025 0)
(1.99435 0.0174822 0)
(1.98823 0.00826038 0)
(1.98628 0.002239 0)
(1.98595 -0.00128491 0)
(1.98673 -0.00114164 0)
(1.98971 0.00301956 0)
(1.99003 0.00399259 0)
(1.98876 0.00325732 0)
(1.98751 0.000961082 0)
(1.9869 6.91964e-06 0)
(1.98747 0.000670701 0)
(1.98821 0.00206616 0)
(1.98805 0.00186608 0)
(1.98749 0.00101874 0)
(1.98724 0.000523264 0)
(1.98755 0.000937477 0)
(1.98801 0.00172341 0)
(1.98801 0.00171714 0)
(1.98788 0.00153002 0)
(1.9878 0.00130398 0)
(1.98784 0.00129377 0)
(1.98781 0.00121069 0)
(1.98774 0.00100095 0)
(1.98773 0.000812405 0)
(1.98773 0.000790585 0)
(1.98774 0.000799904 0)
(1.98774 0.000827261 0)
(1.98777 0.000896279 0)
(1.98783 0.0010255 0)
(1.98792 0.00118421 0)
(1.98798 0.00116408 0)
(1.98797 0.00115945 0)
(1.98794 0.00115911 0)
(1.98792 0.00118155 0)
(1.98793 0.00122674 0)
(1.98795 0.00130692 0)
(1.98799 0.00134662 0)
(1.98798 0.00133847 0)
(1.98794 0.00129511 0)
(1.98787 0.00121842 0)
(1.9878 0.00114475 0)
(1.98775 0.0011076 0)
(2.1625 -0.409017 0)
(2.1625 -0.409018 0)
(2.1625 -0.409024 0)
(2.1625 -0.409026 0)
(2.1625 -0.409027 0)
(2.1625 -0.409031 0)
(2.1625 -0.409034 0)
(2.1625 -0.409036 0)
(2.1625 -0.409039 0)
(2.1625 -0.409042 0)
(2.1625 -0.409047 0)
(2.1625 -0.409049 0)
(2.1625 -0.409053 0)
(2.1625 -0.409057 0)
(2.1625 -0.409057 0)
(2.1625 -0.409057 0)
(2.1625 -0.409063 0)
(2.1625 -0.409067 0)
(2.1625 -0.409066 0)
(2.1625 -0.409068 0)
(2.1625 -0.409071 0)
(2.1625 -0.409071 0)
(2.16249 -0.409071 0)
(2.16249 -0.409071 0)
(2.16249 -0.40907 0)
(2.1625 -0.409069 0)
(2.1625 -0.409068 0)
(2.1625 -0.409065 0)
(2.1625 -0.409062 0)
(2.1625 -0.409059 0)
(2.1625 -0.409055 0)
(2.16251 -0.40905 0)
(2.16251 -0.409047 0)
(2.16252 -0.409044 0)
(2.16252 -0.409037 0)
(2.16253 -0.409029 0)
(2.16253 -0.409026 0)
(2.16254 -0.40902 0)
(2.16254 -0.409014 0)
(2.16255 -0.409008 0)
(2.16255 -0.409008 0)
(2.16256 -0.409007 0)
(2.16257 -0.409006 0)
(2.16257 -0.409008 0)
(2.16258 -0.409008 0)
(2.16258 -0.409018 0)
(2.16258 -0.409023 0)
(2.16258 -0.40903 0)
(2.16258 -0.409033 0)
(2.16256 -0.408997 0)
(2.16242 -0.40875 0)
(2.16163 -0.407321 0)
(2.1589 -0.401486 0)
(2.14902 -0.381881 0)
(2.13169 -0.340071 0)
(2.09483 -0.252644 0)
(2.0745 -0.187386 0)
(2.0343 -0.0836179 0)
(2.03139 -0.0660328 0)
(2.00803 -0.0302508 0)
(2.00223 -0.0172584 0)
(1.99768 -0.00407061 0)
(1.99114 0.00596296 0)
(1.98975 0.00935193 0)
(1.98692 0.00591019 0)
(1.98451 0.000135481 0)
(1.98577 -0.00248795 0)
(1.98724 -0.000694631 0)
(1.98863 0.00203682 0)
(1.98854 0.00215701 0)
(1.98745 0.000927449 0)
(1.98703 2.09735e-05 0)
(1.98737 0.000409237 0)
(1.98822 0.00169308 0)
(1.98838 0.00212715 0)
(1.98813 0.00177578 0)
(1.98792 0.00130972 0)
(1.98796 0.00130622 0)
(1.98797 0.00128263 0)
(1.98793 0.00115656 0)
(1.9878 0.00083342 0)
(1.98783 0.000791879 0)
(1.98787 0.00081862 0)
(1.98786 0.000842929 0)
(1.98785 0.000865012 0)
(1.98791 0.000968424 0)
(1.98801 0.00109962 0)
(1.98809 0.00119881 0)
(1.98812 0.00117539 0)
(1.98811 0.00115232 0)
(1.98806 0.0011588 0)
(1.98805 0.00118659 0)
(1.98806 0.00125187 0)
(1.98809 0.00133454 0)
(1.98811 0.00132568 0)
(1.98809 0.00131104 0)
(1.98805 0.00125424 0)
(1.98798 0.00116564 0)
(1.98793 0.00112658 0)