/*--------------------------------*- C++ -*----------------------------------*\
  =========                 |
  \\      /  F ield         | OpenFOAM: The Open Source CFD Toolbox
   \\    /   O peration     | Website:  https://openfoam.org
    \\  /    A nd           | Version:  7
     \\/     M anipulation  |
\*---------------------------------------------------------------------------*/
FoamFile
{
    version     2.0;
    format      ascii;
    class       volScalarField;
    location    "1.7";
    object      p;
}
// * * * * * * * * * * * * * * * * * * * * * * * * * * * * * * * * * * * * * //

dimensions      [1 -1 -2 0 0 0 0];

internalField   nonuniform List<scalar> 
1750
(
0.213717
0.419809
0.466515
0.618428
0.874304
1.00067
1.01576
0.969696
0.942228
0.890177
0.0150011
0.0592455
0.342045
0.632244
0.760775
0.95619
1.06177
1.03958
0.987926
0.910438
0.0177373
0.0192408
0.0532139
0.164722
0.167627
0.270912
0.661513
0.982411
1.01094
0.921171
0.0289968
0.0413811
0.0494936
0.0529501
0.060792
0.0782358
0.183224
0.494365
0.772587
0.839367
0.0671119
0.07967
0.0856498
0.0939673
0.110018
0.139243
0.199636
0.249204
0.318975
0.464491
0.128818
0.128742
0.137907
0.15684
0.171346
0.194813
0.25105
0.317018
0.329236
0.37824
0.255327
0.255792
0.256772
0.256616
0.260423
0.276223
0.321894
0.397824
0.428683
0.45909
0.487623
0.468425
0.455726
0.446271
0.444811
0.456191
0.482329
0.502779
0.518205
0.560554
0.825449
0.786637
0.756088
0.720595
0.686204
0.673339
0.66811
0.660022
0.668653
0.715756
1.03102
1.00879
0.984865
0.956384
0.918304
0.883387
0.856149
0.834186
0.834339
0.865299
1.0478
1.03722
1.02687
1.01644
1.00356
0.986691
0.969654
0.957701
0.957278
0.967777
1.02482
1.02147
1.01652
1.01084
1.00572
1.0019
0.998123
0.995981
0.995963
0.997226
1.00286
1.00281
1.00248
1.00185
1.00114
1.00042
1.00003
0.999879
0.999875
0.99992
1.00006
1.00006
1.00006
1.00005
1.00004
1.00002
1
0.999998
0.999998
0.999999
1
1
1
1
1
1
1
1
1
1
0.0308078
0.0183317
0.0193458
0.0262261
0.0624316
0.130176
0.259069
0.513122
0.859974
1.0458
1.05664
1.02624
1.00264
1.00005
1
0.0266996
0.0169473
0.0215502
0.0405622
0.0839552
0.170464
0.333344
0.627608
0.957153
1.07188
1.06272
1.02103
1.00143
1.00002
1
0.0252524
0.0169813
0.0238948
0.0511657
0.0980062
0.195121
0.391947
0.726225
1.02178
1.08471
1.0647
1.0166
1.00085
1.00001
1
0.0234947
0.0169139
0.0265547
0.0558981
0.111617
0.235464
0.493238
0.849751
1.07145
1.094
1.06119
1.0113
1.00044
1.00001
1
0.0226053
0.0174794
0.0279101
0.0571917
0.131573
0.316607
0.616845
0.953001
1.10151
1.10059
1.05141
1.00687
1.00021
1
1
0.0185591
0.0197139
0.0283786
0.0676728
0.196798
0.422666
0.739331
1.03685
1.12185
1.10419
1.03953
1.00373
1.00009
1
1
0.014733
0.0174156
0.0349915
0.105463
0.276109
0.529611
0.872695
1.1062
1.13584
1.09893
1.02624
1.00166
1.00003
1
1
0.0108471
0.0154007
0.0534752
0.166684
0.36355
0.673938
1.0124
1.14574
1.14172
1.08247
1.01464
1.00067
1.00001
1
1
0.00857887
0.0188846
0.0800373
0.235979
0.494819
0.856087
1.11339
1.16282
1.14228
1.05746
1.00674
1.00023
1
1
1
0.0076326
0.0378158
0.131325
0.345985
0.6976
1.01883
1.16845
1.17081
1.11974
1.03344
1.00262
1.00007
1
1
1
0.00467388
0.0578846
0.236487
0.550949
0.902621
1.13791
1.19059
1.17457
1.0904
1.01629
1.00086
1.00002
1
1
1
0.00274093
0.10301
0.415518
0.794138
1.08034
1.20232
1.20066
1.15133
1.05181
1.00566
1.00021
1
1
1
1
0.0318809
0.28831
0.681586
1.01252
1.19533
1.2241
1.20445
1.10955
1.02231
1.00152
1.00004
1
1
1
1
0.157749
0.546263
0.967982
1.17761
1.24152
1.23085
1.16447
1.05436
1.00651
1.00029
1.00001
1
1
1
1
0.577251
0.963783
1.18003
1.24158
1.25026
1.21257
1.10012
1.01836
1.0012
1.00004
1
1
1
1
1
1.24584
1.25107
1.25559
1.25175
1.24915
1.14455
1.03309
1.00141
1.00002
1
1
1
1
1
1
1.24633
1.25476
1.26042
1.24859
1.22767
1.12307
1.02967
1.00263
1.0001
1
1
1
1
1
1
1.24661
1.26098
1.26622
1.24704
1.1999
1.07901
1.01024
1.0004
1.00001
1
1
1
1
1
1
1.24861
1.26712
1.26803
1.23829
1.16088
1.04434
1.00395
1.00012
1
1
1
1
1
1
1
1.25036
1.27041
1.26848
1.22206
1.11323
1.02191
1.00132
1.00003
1
1
1
1
1
1
1
1.25281
1.27003
1.26566
1.18883
1.07001
1.00896
1.00036
1.00001
1
1
1
1
1
1
1
1.26486
1.26311
1.24854
1.14306
1.03721
1.00304
1.0001
1
1
1
1
1
1
1
1
1.29467
1.25073
1.22105
1.09304
1.0159
1.00092
1.00002
1
1
1
1
1
1
1
1
1.3179
1.23195
1.1666
1.05058
1.00565
1.00023
1
1
1
1
1
1
1
1
1
1.3285
1.20598
1.10997
1.02343
1.00179
1.00005
1
1
1
1
1
1
1
1
1
1.32661
1.16591
1.0636
1.00869
1.00043
1.00001
1
1
1
1
1
1
1
1
1
1.28678
1.1188
1.03016
1.00265
1.00009
1
1
1
1
1
1
1
1
1
1
1.23235
1.07311
1.01145
1.00059
1.00001
1
1
1
1
1
1
1
1
1
1
1.1577
1.03337
1.00283
1.00009
1
1
1
1
1
1
1
1
1
1
1
1.06965
1.00918
1.00041
1.00001
1
1
1
1
1
1
1
1
1
1
1
1
1
1
1
1
1
1
1
1
1
1
1
1
1
1
1
1
1
1
1
1
1
1
1
1
1
1
1
1
1
1
1
1
1
1
1
1
1
1
1
1
1
1
1
1
1
1
1
1
1
1
1
1
1
1
1
1
1
1
1
1
1
1
1
1
1
1
1
1
1
1
1
1
1
1
1
1
1
1
1
1
1
1
1
1
1
1
1
1
1
1
1
1
1
1
1
1
1
1
1
1
1
1
1
1
1
1
1
1
1
1
1
1
1
1
1
1
1
1
1
1
1
1
1
1
1
1
1
1
1
1
1
1
1
1
1
1
1
1
1
1
1
1
1
1
1
1
1
1
1
1
1
1
1
1
1
1
1
1
1
1
1
1
1
1
1
1
1
1
1
1
1
1
1
1
1
1
1
1
1
1
1
1
1
1
1
1
1
1
1
1
1
1
1
1
1
1
1
1
1
1
1
1
1
1
1
1
1
1
1
1
1
1
1
1
1
1
1
1
1
1
1
1
1
1
1
1
1
1
1
1
1
1
1
1
1
1
1
1
1
1
1
1
1
1
1
1
1
1
1
1
1
1
1
1
1
1
1
1
1
1
1
1
1
1
1
1
1
1
1
1
1
1
1
1
1
1
1
1
1
1
1
1
1
1
1
1
1
1
1
1
1
1
1
1
1
1
1
1
1
1
1
1
1
1
1
1
1
1
1
1
1
1
1
1
1
1
1
1
1
1
1
1
1
1
1
1
1
1
1
1
1
1
1
1
1
1
1
1
1
1
1
1
1
1
1
1
1
1
1
2.16508
0.99864
1
1
1
1
1
1
1
1
1
1
1
1
1
1
1
1
1
1
7.01154
2.39384
0.999994
1
1
1
1
1
1
1
1
1
1
1
1
1
1
1
1
1
11.776
8.05834
5.59176
1.5751
0.99989
1
1
1
1
1
1
1
1
1
1
1
1
1
1
1
9.1041
7.50753
7.87445
6.11567
1.92959
0.998113
1
1
1
1
1
1
1
1
1
1
1
1
1
1
7.57227
7.04221
7.29182
7.19855
5.27498
1.51146
0.998401
1
1
1
1
1
1
1
1
1
1
1
1
1
7.02643
6.85214
6.91212
6.85067
6.45367
3.61813
1.09068
1
1
1
1
1
1
1
1
1
1
1
1
1
6.7691
6.65699
6.65294
6.55556
6.52853
5.55433
1.92683
0.997159
1
1
1
1
1
1
1
1
1
1
1
1
6.59263
6.50377
6.50064
6.41236
6.42033
6.05225
3.62611
1.11418
0.999999
1
1
1
1
1
1
1
1
1
1
1
6.4762
6.39551
6.40193
6.33727
6.36793
6.25091
5.12727
1.72895
0.99814
1
1
1
1
1
1
1
1
1
1
1
6.42299
6.3473
6.33687
6.27837
6.26806
6.17416
5.7408
2.98666
1.02929
1
1
1
1
1
1
1
1
1
1
1
6.39272
6.31702
6.2909
6.2321
6.2388
6.19127
6.00795
4.31214
1.28575
1
1
1
1
1
1
1
1
1
1
1
6.34903
6.28141
6.26904
6.20511
6.20092
6.16587
6.01772
5.16187
2.04642
0.997522
1
1
1
1
1
1
1
1
1
1
6.31128
6.23984
6.20714
6.14784
6.16539
6.16534
6.09309
5.71829
3.08034
1.03159
1
1
1
1
1
1
1
1
1
1
6.2681
6.2179
6.16487
6.14507
6.16106
6.15701
6.14045
5.97554
4.28796
1.41379
0.999999
1
1
1
1
1
1
1
1
1
6.25587
6.2268
6.19891
6.19233
6.17357
6.16108
6.14488
6.02489
4.96726
1.6579
0.961293
1
1
1
1
1
1
1
1
1
2.16012
3.65633
4.4862
5.0741
5.47457
5.70722
5.86702
5.98704
5.91282
4.15168
1.59415
1.01925
1.00017
1
1
1
1
1
1
1
0.44743
1.79391
2.73651
3.54963
4.18258
4.69248
5.10518
5.58494
5.83043
5.36161
3.43742
1.37082
1.00922
1.00007
1
1
1
1
1
1
0.30144
0.898685
1.5153
2.26136
2.99475
3.54676
4.12003
4.72469
5.36788
5.09152
4.66229
2.54033
1.14691
1.00237
1.00001
1
1
1
1
1
0.379113
0.697609
0.977677
1.40579
2.05018
2.66764
3.17528
3.73882
4.39096
4.70807
4.76898
3.91952
1.78362
1.03717
1.00036
1
1
1
1
1
0.506825
0.58596
0.714755
1.05351
1.4457
2.01361
2.5356
3.00871
3.48676
4.0803
4.53451
4.35694
2.86051
1.25941
1.00542
1.00003
1
1
1
1
0.597278
0.496512
0.487518
0.776601
1.08347
1.50049
1.99793
2.43026
2.86973
3.42932
4.06729
4.14787
3.59174
1.78392
1.03975
1.00035
1
1
1
1
0.638541
0.496562
0.454489
0.604618
0.847672
1.1147
1.49322
1.85305
2.30404
2.84805
3.49411
3.79495
3.60488
2.39944
1.15982
1.00252
1.00001
1
1
1
0.637217
0.521824
0.494114
0.592354
0.732644
0.93281
1.1793
1.48291
1.81444
2.28005
2.89926
3.42103
3.40573
2.70771
1.38771
1.01231
1.00008
1
1
1
0.62545
0.566633
0.567888
0.571335
0.63452
0.828086
1.03274
1.3156
1.60328
1.94507
2.40156
3.00605
3.15696
2.82757
1.6483
1.03873
1.00034
1
1
1
0.604984
0.584123
0.577689
0.534794
0.539089
0.705846
0.879309
1.15224
1.44932
1.75508
2.12066
2.67788
2.99584
2.82249
1.89821
1.08988
1.00117
1
1
1
0.584742
0.580315
0.561821
0.50591
0.489732
0.580824
0.721602
0.901409
1.19538
1.50779
1.87187
2.41789
2.83454
2.75066
2.07126
1.16128
1.00309
1.00001
1
1
0.576606
0.574986
0.549722
0.503766
0.486663
0.538703
0.646828
0.787044
1.01218
1.22591
1.54974
2.10045
2.59824
2.572
2.08311
1.2323
1.00657
1.00004
1
1
0.573466
0.568563
0.547158
0.507586
0.492451
0.526755
0.614897
0.773118
0.952112
1.15362
1.38306
1.81166
2.35032
2.40293
2.05192
1.27674
1.01033
1.00006
1
1
0.56935
0.562699
0.549081
0.520915
0.510251
0.524715
0.566081
0.720758
0.892185
1.11579
1.34667
1.73425
2.25734
2.33567
2.02545
1.28514
1.0119
1.00008
1
1
0.577974
0.566063
0.55441
0.544643
0.535973
0.531391
0.549648
0.648588
0.781017
1.00788
1.25949
1.65843
2.18826
2.25968
1.97041
1.27904
1.01253
1.00009
1
1
0.602178
0.58114
0.574531
0.584373
0.573908
0.55429
0.562395
0.639997
0.756004
0.917141
1.15589
1.53566
2.05945
2.12952
1.8745
1.24953
1.0108
1.00008
1
1
0.572193
0.581795
0.616266
0.644656
0.628566
0.606274
0.606358
0.659748
0.769809
0.889556
1.09307
1.43902
1.91208
1.98851
1.75621
1.20228
1.00803
1.00006
1
1
0.484144
0.568377
0.642579
0.701347
0.687665
0.669213
0.648964
0.663485
0.757722
0.855783
1.03083
1.38512
1.82445
1.86948
1.62585
1.14215
1.00469
1.00003
1
1
0.527827
0.603259
0.69008
0.756797
0.744312
0.721622
0.671876
0.656462
0.717063
0.833261
0.9976
1.38925
1.75878
1.76402
1.48116
1.08076
1.00193
1.00001
1
1
0.758872
0.768222
0.806144
0.844167
0.827792
0.790512
0.7048
0.65876
0.67991
0.83432
1.01578
1.43734
1.69091
1.6495
1.31641
1.03266
1.00048
1
1
1
0.903661
0.910367
0.897682
0.882027
0.866189
0.826123
0.753045
0.685961
0.69372
0.865074
1.09782
1.48311
1.60532
1.49372
1.15126
1.0074
1.00006
1
1
1
0.95498
0.918103
0.845266
0.801936
0.7879
0.787381
0.796332
0.760168
0.762603
0.946381
1.20938
1.47193
1.47934
1.2752
1.03763
1.00068
1
1
1
1
0.939697
0.84641
0.778042
0.729092
0.727988
0.760602
0.817796
0.852217
0.88512
1.0496
1.25441
1.37328
1.27896
1.07433
1.00318
1.00002
0.999999
1
1
1
0.927445
0.844232
0.780641
0.722019
0.722733
0.767515
0.823723
0.886075
0.95509
1.07569
1.2078
1.17417
1.06636
1.00546
1.00005
0.999996
0.999999
1
1
1
0.895444
0.858853
0.824845
0.774823
0.762168
0.782622
0.815145
0.867155
0.927772
1.00817
1.02401
1.00927
1.00089
0.999923
0.999987
0.999998
1
1
1
1
)
;

boundaryField
{
    inlet
    {
        type            fixedValue;
        value           uniform 1;
    }
    outlet
    {
        type            zeroGradient;
    }
    airfoil
    {
        type            zeroGradient;
    }
    top
    {
        type            symmetryPlane;
    }
    bottom
    {
        type            symmetryPlane;
    }
    defaultFaces
    {
        type            empty;
    }
}


// ************************************************************************* //
