/*--------------------------------*- C++ -*----------------------------------*\
  =========                 |
  \\      /  F ield         | OpenFOAM: The Open Source CFD Toolbox
   \\    /   O peration     | Website:  https://openfoam.org
    \\  /    A nd           | Version:  7
     \\/     M anipulation  |
\*---------------------------------------------------------------------------*/
FoamFile
{
    version     2.0;
    format      ascii;
    class       volScalarField;
    location    "1";
    object      p;
}
// * * * * * * * * * * * * * * * * * * * * * * * * * * * * * * * * * * * * * //

dimensions      [1 -1 -2 0 0 0 0];

internalField   nonuniform List<scalar> 
1750
(
0.295195
0.522552
0.674926
0.711169
0.750524
0.778244
0.813857
0.853081
0.85195
0.884969
0.0492083
0.0959311
0.282622
0.544217
0.699089
0.794582
0.816835
0.810909
0.790008
0.844188
0.0724963
0.0846329
0.0807303
0.13214
0.239833
0.414072
0.553797
0.623074
0.649916
0.788578
0.114491
0.129667
0.129551
0.132634
0.154986
0.194632
0.29184
0.43821
0.595972
0.814689
0.172403
0.196181
0.198841
0.209016
0.231103
0.272763
0.348672
0.475633
0.638514
0.865764
0.263728
0.284647
0.283559
0.289235
0.314952
0.374168
0.477721
0.62225
0.789352
0.948234
0.399503
0.417038
0.425894
0.445016
0.484703
0.565084
0.691959
0.835665
0.945773
0.993699
0.602756
0.609103
0.62396
0.649526
0.69927
0.78781
0.89558
0.970815
0.996242
0.99984
0.828033
0.830213
0.84157
0.864249
0.903308
0.953111
0.988156
0.998747
0.999943
0.999999
0.965423
0.96636
0.970652
0.978798
0.989459
0.997273
0.999712
0.999987
1
1
0.997609
0.997791
0.998327
0.999108
0.999732
0.999964
0.999998
1
1
1
0.999939
0.999952
0.999971
0.999989
0.999998
1
1
1
1
1
0.999999
1
1
1
1
1
1
1
1
1
1
1
1
1
1
1
1
1
1
1
1
1
1
1
1
1
1
1
1
1
0.0593834
0.0520408
0.0513404
0.0732217
0.116029
0.201528
0.358276
0.595211
0.839068
0.969366
0.997723
0.999935
0.999999
1
1
0.0770659
0.0544072
0.0477746
0.0641046
0.100979
0.199601
0.392575
0.67525
0.904838
0.988159
0.999455
0.999989
1
1
1
0.0784752
0.0392226
0.0288734
0.0458265
0.0860144
0.190277
0.434939
0.755164
0.947789
0.9961
1.00002
1
1
1
1
0.0613051
0.0266417
0.0181042
0.04318
0.0941192
0.244371
0.546968
0.850217
0.982346
1.00111
1.0004
1.00002
1
1
1
0.0387549
0.0179969
0.0148005
0.0460425
0.136652
0.35266
0.67106
0.929246
1.00412
1.00414
1.00062
1.00002
1
1
1
0.0213991
0.0106655
0.0195585
0.0688597
0.199749
0.45223
0.786058
0.989913
1.01716
1.00672
1.00054
1.00001
1
1
1
0.0101218
0.00750041
0.0367263
0.106523
0.272199
0.578585
0.90828
1.03022
1.02674
1.00737
1.0004
1.00001
1
1
1
0.00403783
0.0116059
0.0552296
0.148369
0.373833
0.749848
1.01308
1.05384
1.03248
1.00581
1.00022
1
1
1
1
0.00226051
0.0167885
0.0756274
0.218563
0.545006
0.922703
1.07614
1.07003
1.0307
1.00352
1.0001
1
1
1
1
0.00386926
0.0299146
0.119662
0.364209
0.748428
1.04888
1.10583
1.07779
1.02161
1.00146
1.00003
1
1
1
1
0.00634441
0.054513
0.229677
0.575848
0.936379
1.12135
1.1207
1.0684
1.01148
1.00049
1.00001
1
1
1
1
0.00230589
0.107208
0.424056
0.813927
1.08751
1.15005
1.1263
1.0461
1.00436
1.00012
1
1
1
1
1
0.0320413
0.26362
0.674731
1.0357
1.16796
1.16042
1.09993
1.02177
1.00129
1.00003
1
1
1
1
1
0.154415
0.546021
0.962935
1.16569
1.19447
1.16202
1.06486
1.00792
1.00028
1
1
1
1
1
1
0.560066
0.943467
1.16089
1.20663
1.20141
1.12393
1.0283
1.00187
1.00004
1
1
1
1
1
1
1.21466
1.22119
1.21991
1.21242
1.16984
1.06191
1.00476
0.999996
1
1
1
1
1
1
1
1.21317
1.22036
1.21901
1.20649
1.17089
1.07263
1.00928
1.00028
1
1
1
1
1
1
1
1.21406
1.22362
1.22183
1.20549
1.15229
1.05023
1.00476
1.00012
1
1
1
1
1
1
1
1.21932
1.23591
1.23394
1.2053
1.13252
1.03408
1.00246
1.00005
1
1
1
1
1
1
1
1.23338
1.25021
1.24598
1.202
1.10332
1.01866
1.00097
1.00002
1
1
1
1
1
1
1
1.24753
1.25953
1.25145
1.18442
1.06849
1.00835
1.00032
1.00001
1
1
1
1
1
1
1
1.26422
1.26421
1.25119
1.14344
1.03691
1.00301
1.00009
1
1
1
1
1
1
1
1
1.2915
1.24953
1.22101
1.09442
1.01618
1.0009
1.00002
1
1
1
1
1
1
1
1
1.31651
1.23064
1.1682
1.05223
1.00583
1.00023
1
1
1
1
1
1
1
1
1
1.32949
1.20934
1.10975
1.02274
1.00173
1.00005
1
1
1
1
1
1
1
1
1
1.32701
1.16585
1.06411
1.00894
1.00044
1.00001
1
1
1
1
1
1
1
1
1
1.28619
1.11916
1.03002
1.00261
1.00009
1
1
1
1
1
1
1
1
1
1
1.23434
1.07233
1.01121
1.00058
1.00001
1
1
1
1
1
1
1
1
1
1
1.15742
1.03342
1.00286
1.00009
1
1
1
1
1
1
1
1
1
1
1
1.06928
1.00937
1.00041
1.00001
1
1
1
1
1
1
1
1
1
1
1
1
1
1
1
1
1
1
1
1
1
1
1
1
1
1
1
1
1
1
1
1
1
1
1
1
1
1
1
1
1
1
1
1
1
1
1
1
1
1
1
1
1
1
1
1
1
1
1
1
1
1
1
1
1
1
1
1
1
1
1
1
1
1
1
1
1
1
1
1
1
1
1
1
1
1
1
1
1
1
1
1
1
1
1
1
1
1
1
1
1
1
1
1
1
1
1
1
1
1
1
1
1
1
1
1
1
1
1
1
1
1
1
1
1
1
1
1
1
1
1
1
1
1
1
1
1
1
1
1
1
1
1
1
1
1
1
1
1
1
1
1
1
1
1
1
1
1
1
1
1
1
1
1
1
1
1
1
1
1
1
1
1
1
1
1
1
1
1
1
1
1
1
1
1
1
1
1
1
1
1
1
1
1
1
1
1
1
1
1
1
1
1
1
1
1
1
1
1
1
1
1
1
1
1
1
1
1
1
1
1
1
1
1
1
1
1
1
1
1
1
1
1
1
1
1
1
1
1
1
1
1
1
1
1
1
1
1
1
1
1
1
1
1
1
1
1
1
1
1
1
1
1
1
1
1
1
1
1
1
1
1
1
1
1
1
1
1
1
1
1
1
1
1
1
1
1
1
1
1
1
1
1
1
1
1
1
1
1
1
1
1
1
1
1
1
1
1
1
1
1
1
1
1
1
1
1
1
1
1
1
1
1
1
1
1
1
1
1
1
1
1
1
1
1
1
1
1
1
1
1
1
1
1
1
1
1
1
1
1
1
1
1
1
1
1
1
1
1
1
1
2.2117
0.997037
1.00001
1
1
1
1
1
1
1
1
1
1
1
1
1
1
1
1
1
5.92581
1.47553
0.999996
1
1
1
1
1
1
1
1
1
1
1
1
1
1
1
1
1
11.9612
6.87163
2.88388
0.998021
1
1
1
1
1
1
1
1
1
1
1
1
1
1
1
1
9.31101
7.58527
7.08675
2.92978
0.996338
1.00001
1
1
1
1
1
1
1
1
1
1
1
1
1
1
7.09767
6.63363
7.25523
5.85898
1.84902
0.997913
1
1
1
1
1
1
1
1
1
1
1
1
1
1
6.28621
6.21118
6.62132
6.50015
3.75168
1.07859
1
1
1
1
1
1
1
1
1
1
1
1
1
1
6.04512
6.01269
6.16542
6.2176
5.12222
1.68436
0.999998
1
1
1
1
1
1
1
1
1
1
1
1
1
6.04006
5.9938
5.95977
5.99848
5.76834
2.79911
1.00013
1
1
1
1
1
1
1
1
1
1
1
1
1
6.08207
6.02389
5.86859
5.88995
5.88498
3.97216
1.16226
1
1
1
1
1
1
1
1
1
1
1
1
1
6.14655
6.07711
5.89359
5.92171
5.95907
4.85055
1.61313
0.999998
1
1
1
1
1
1
1
1
1
1
1
1
6.17931
6.1381
5.97359
6.01102
6.01165
5.43469
2.3609
0.997408
1
1
1
1
1
1
1
1
1
1
1
1
6.18023
6.13495
6.08263
5.99471
5.9999
5.72532
3.31352
1.04804
1
1
1
1
1
1
1
1
1
1
1
1
6.17032
6.12122
6.14507
6.0049
5.9908
5.93812
4.17075
1.23675
0.999998
1
1
1
1
1
1
1
1
1
1
1
6.11626
6.11349
6.15302
6.02189
5.96533
5.9345
5.00011
1.90263
0.999998
1
1
1
1
1
1
1
1
1
1
1
6.14562
6.20815
6.23497
6.16486
6.12291
6.13905
5.19299
1.71855
0.961093
1
1
1
1
1
1
1
1
1
1
1
2.14236
3.71879
4.63406
5.2117
5.61121
5.90289
5.87572
4.05943
1.63056
1.02008
1.00014
1
1
1
1
1
1
1
1
1
0.378052
1.81486
2.8905
3.70087
4.31318
5.01044
5.35983
5.05714
3.22265
1.31385
1.00657
1.00004
1
1
1
1
1
1
1
1
0.240769
0.864294
1.63027
2.48717
3.18667
3.77842
4.44984
4.61393
4.12596
2.12399
1.07561
1.0008
1
1
1
1
1
1
1
1
0.304077
0.626276
0.963005
1.54165
2.17794
2.72046
3.42726
3.99422
3.91499
2.95114
1.34362
1.00801
1.00004
1
1
1
1
1
1
1
0.455174
0.593213
0.717426
1.05102
1.43012
1.9082
2.51973
3.29101
3.55918
3.11636
1.71538
1.03745
1.0003
1
1
1
1
1
1
1
0.572949
0.531865
0.525926
0.807949
1.08964
1.46269
1.95671
2.69707
3.07651
2.89904
1.93788
1.09529
1.00123
1
1
1
1
1
1
1
0.658245
0.478585
0.423354
0.601502
0.873795
1.14291
1.56936
2.25145
2.76359
2.683
2.00592
1.15401
1.00289
1.00001
1
1
1
1
1
1
0.72343
0.502733
0.432078
0.54101
0.731418
0.89727
1.21147
1.77315
2.42139
2.44184
1.9437
1.16745
1.00366
1.00002
1
1
1
1
1
1
0.726462
0.547355
0.496291
0.52373
0.61321
0.766768
1.00112
1.51868
2.15829
2.21597
1.82244
1.15072
1.00336
1.00002
1
1
1
1
1
1
0.711918
0.583888
0.530657
0.498785
0.530964
0.700112
0.916324
1.43897
2.0135
2.03447
1.66454
1.10882
1.00221
1.00001
1
1
1
1
1
1
0.695162
0.609086
0.552246
0.484247
0.495544
0.663614
0.885407
1.4425
1.88787
1.87065
1.48353
1.05963
1.00094
1
1
1
1
1
1
1
0.689008
0.638212
0.597103
0.510084
0.50325
0.670897
0.927077
1.47935
1.75704
1.69459
1.2975
1.02321
1.00025
1
1
1
1
1
1
1
0.682891
0.688488
0.674642
0.587874
0.569893
0.740692
1.02266
1.47432
1.61474
1.49627
1.13821
1.00545
1.00004
1
1
1
1
1
1
1
0.719591
0.747158
0.774188
0.71601
0.69263
0.858439
1.12317
1.4331
1.46066
1.2804
1.03807
1.0006
1
0.999999
1
1
1
1
1
1
0.841919
0.838676
0.87099
0.858976
0.846559
0.960608
1.15767
1.33627
1.2888
1.09328
1.0039
0.999956
0.99999
1
1
1
1
1
1
1
0.82847
0.892885
0.912006
0.913082
0.916676
0.990625
1.15567
1.18364
1.09381
1.00673
0.999397
0.999909
0.999996
1
1
1
1
1
1
1
0.789718
0.871075
0.903892
0.912406
0.921645
0.990638
1.06329
1.01843
0.986741
0.99441
0.999473
0.999972
1
1
1
1
1
1
1
1
0.685552
0.798058
0.879465
0.897704
0.912909
0.936738
0.920103
0.924614
0.971661
0.996123
0.999835
0.999998
1
1
1
1
1
1
1
1
0.639164
0.703861
0.799538
0.838098
0.859603
0.853676
0.853541
0.915055
0.975845
0.99799
0.999961
1
1
1
1
1
1
1
1
1
0.660735
0.646046
0.693996
0.742211
0.789744
0.824043
0.850921
0.921831
0.981617
0.998825
0.99998
1
1
1
1
1
1
1
1
1
0.71452
0.655431
0.648734
0.683475
0.742151
0.805076
0.855683
0.933602
0.986607
0.999228
0.999987
1
1
1
1
1
1
1
1
1
0.796181
0.715517
0.670859
0.685893
0.730381
0.786046
0.862652
0.94486
0.990621
0.999529
0.999992
1
1
1
1
1
1
1
1
1
0.862875
0.80512
0.743041
0.716987
0.740538
0.784253
0.870777
0.954546
0.993823
0.999756
0.999997
1
1
1
1
1
1
1
1
1
0.872435
0.852011
0.821745
0.782226
0.786069
0.803822
0.88635
0.96534
0.996419
0.999898
0.999999
1
1
1
1
1
1
1
1
1
0.897792
0.896792
0.891163
0.882015
0.883559
0.890186
0.939537
0.985039
0.998931
0.999979
1
1
1
1
1
1
1
1
1
1
)
;

boundaryField
{
    inlet
    {
        type            fixedValue;
        value           uniform 1;
    }
    outlet
    {
        type            zeroGradient;
    }
    airfoil
    {
        type            zeroGradient;
    }
    top
    {
        type            symmetryPlane;
    }
    bottom
    {
        type            symmetryPlane;
    }
    defaultFaces
    {
        type            empty;
    }
}


// ************************************************************************* //
