/*--------------------------------*- C++ -*----------------------------------*\
  =========                 |
  \\      /  F ield         | OpenFOAM: The Open Source CFD Toolbox
   \\    /   O peration     | Website:  https://openfoam.org
    \\  /    A nd           | Version:  7
     \\/     M anipulation  |
\*---------------------------------------------------------------------------*/
FoamFile
{
    version     2.0;
    format      ascii;
    class       volScalarField;
    location    "2";
    object      rho;
}
// * * * * * * * * * * * * * * * * * * * * * * * * * * * * * * * * * * * * * //

dimensions      [1 -3 0 0 0 0 0];

internalField   nonuniform List<scalar> 
90000
(
1.13394
1.13266
1.13261
1.13362
1.13408
1.13497
1.1378
1.14096
1.14262
1.14468
1.14727
1.15044
1.15317
1.15621
1.15922
1.16254
1.16571
1.16909
1.17258
1.17603
1.17983
1.18339
1.18755
1.19145
1.19617
1.20082
1.20629
1.21197
1.21881
1.22607
1.23433
1.24301
1.25143
1.26097
1.26826
1.27659
1.28289
1.28863
1.29345
1.29823
1.30119
1.3051
1.30833
1.3129
1.31238
1.3086
1.29712
1.28339
1.27146
1.26318
1.25998
1.2615
1.26565
1.27116
1.27704
1.28281
1.28733
1.29032
1.29293
1.29413
1.29356
1.29035
1.28391
1.27664
1.2714
1.27082
1.27226
1.27612
1.28174
1.28763
1.29245
1.29215
1.29022
1.28503
1.2792
1.27721
1.27853
1.28163
1.28534
1.28929
1.28932
1.28805
1.28459
1.28046
1.28017
1.28109
1.28033
1.27563
1.2704
1.26581
1.2654
1.26605
1.26466
1.26082
1.25436
1.25343
1.25319
1.2528
1.25042
1.24494
1.13671
1.13679
1.13692
1.13709
1.13733
1.13755
1.13781
1.13857
1.13964
1.1412
1.14328
1.14569
1.14812
1.15075
1.15364
1.15677
1.15982
1.16277
1.16587
1.16904
1.17224
1.17561
1.17906
1.18267
1.1866
1.19075
1.19519
1.19984
1.20508
1.21068
1.21703
1.22374
1.23143
1.23939
1.24817
1.2568
1.26575
1.27458
1.28273
1.29104
1.29814
1.30432
1.30915
1.31306
1.3147
1.3148
1.31532
1.31699
1.31576
1.3122
1.30568
1.29802
1.29193
1.28752
1.28534
1.28589
1.28722
1.28985
1.29277
1.29729
1.30164
1.3049
1.3068
1.30469
1.30024
1.29458
1.28961
1.28631
1.28676
1.28838
1.29225
1.29671
1.30284
1.30261
1.29997
1.29445
1.28988
1.28844
1.29059
1.29509
1.30053
1.30015
1.29713
1.2933
1.28984
1.28926
1.28723
1.28319
1.27889
1.27644
1.27428
1.27228
1.27007
1.2667
1.26304
1.25986
1.258
1.25729
1.25561
1.2507
1.14074
1.14074
1.14063
1.14049
1.14048
1.1405
1.14058
1.1407
1.14082
1.14084
1.14093
1.14114
1.14144
1.1418
1.14225
1.14287
1.1437
1.14463
1.14566
1.1468
1.14854
1.15064
1.15305
1.15565
1.15857
1.16174
1.16513
1.16857
1.17238
1.17644
1.18101
1.18566
1.19109
1.19677
1.20363
1.21071
1.21912
1.22782
1.23774
1.24782
1.25876
1.26955
1.28043
1.29004
1.30024
1.30702
1.3151
1.31901
1.31972
1.32151
1.32403
1.32819
1.32807
1.32643
1.32252
1.31687
1.31074
1.30652
1.30359
1.3044
1.30646
1.30955
1.31254
1.31542
1.31884
1.3185
1.31525
1.30817
1.30161
1.29726
1.29769
1.30077
1.30622
1.31149
1.31603
1.31474
1.30883
1.30341
1.30143
1.30292
1.30624
1.31063
1.31096
1.30762
1.30134
1.2972
1.29493
1.2925
1.29075
1.28757
1.28383
1.28094
1.2789
1.27635
1.27232
1.26838
1.26549
1.26533
1.26351
1.25799
1.14567
1.14575
1.14575
1.14578
1.14583
1.14584
1.14582
1.14579
1.14572
1.14563
1.14566
1.14583
1.14595
1.14598
1.146
1.14606
1.14622
1.14655
1.14698
1.14764
1.14778
1.14791
1.14819
1.14861
1.14909
1.14968
1.1504
1.15124
1.15224
1.15348
1.15498
1.15725
1.16008
1.16336
1.16734
1.17173
1.17699
1.18264
1.18974
1.19719
1.20656
1.21649
1.22831
1.24097
1.25449
1.26888
1.2835
1.29694
1.30835
1.31825
1.3233
1.32769
1.32805
1.32831
1.32832
1.3274
1.32549
1.32258
1.31933
1.31663
1.31615
1.31665
1.31744
1.31868
1.31992
1.31941
1.31915
1.3191
1.31792
1.31481
1.31133
1.30914
1.30984
1.31162
1.3155
1.31777
1.32093
1.32043
1.31712
1.31317
1.31132
1.31309
1.31529
1.31718
1.31408
1.30718
1.30113
1.29776
1.29778
1.29814
1.29532
1.29075
1.28696
1.28368
1.28124
1.2786
1.27553
1.27291
1.27101
1.26594
1.15125
1.15125
1.15126
1.15129
1.15144
1.15164
1.15166
1.15165
1.15166
1.15173
1.15193
1.15211
1.15213
1.15211
1.15211
1.15214
1.15213
1.15214
1.15223
1.15236
1.15241
1.1525
1.1528
1.15306
1.15318
1.15334
1.15368
1.15418
1.15468
1.15517
1.15605
1.15625
1.15634
1.15644
1.15666
1.15708
1.15779
1.15918
1.16128
1.16401
1.16754
1.17192
1.1775
1.18478
1.19301
1.20424
1.21599
1.2306
1.2471
1.26231
1.27777
1.29189
1.30114
1.31001
1.31702
1.31915
1.32296
1.32423
1.32586
1.32865
1.32908
1.32831
1.32663
1.32476
1.32214
1.31919
1.31895
1.31976
1.32196
1.32428
1.32393
1.32132
1.31735
1.31401
1.31467
1.31735
1.32127
1.32338
1.32497
1.32361
1.32031
1.31677
1.31698
1.31802
1.3176
1.315
1.30725
1.30142
1.30037
1.30072
1.30166
1.29898
1.29348
1.28911
1.28708
1.28499
1.28154
1.27916
1.27759
1.27202
1.15603
1.15608
1.15612
1.15613
1.15607
1.15597
1.15597
1.15605
1.15631
1.1565
1.15651
1.15648
1.15648
1.15651
1.15648
1.15645
1.15646
1.15657
1.1567
1.15668
1.1567
1.15685
1.15704
1.15703
1.157
1.15701
1.15716
1.15742
1.15751
1.15754
1.1576
1.15768
1.15771
1.15775
1.15791
1.15817
1.15863
1.15859
1.15858
1.15866
1.15885
1.15918
1.15979
1.16089
1.16264
1.16554
1.16969
1.17591
1.18404
1.1951
1.20911
1.22448
1.2428
1.25979
1.27782
1.29174
1.30555
1.31602
1.32424
1.32761
1.32809
1.32741
1.32615
1.32308
1.31906
1.3187
1.31939
1.32075
1.32276
1.32455
1.32475
1.32422
1.32266
1.31963
1.31783
1.3189
1.32043
1.32308
1.32499
1.32502
1.32477
1.3225
1.32
1.31815
1.31744
1.31503
1.31023
1.30558
1.30232
1.30113
1.30169
1.30114
1.29816
1.2927
1.28985
1.2886
1.28569
1.28243
1.2802
1.27563
1.15981
1.15984
1.15995
1.16
1.16002
1.16006
1.16017
1.1603
1.16041
1.16043
1.1604
1.16028
1.16017
1.16011
1.16011
1.16016
1.16021
1.16017
1.16017
1.16024
1.1605
1.16078
1.16083
1.16077
1.16068
1.16068
1.16072
1.16066
1.16061
1.16061
1.16056
1.16048
1.16023
1.16002
1.16002
1.16001
1.15991
1.15971
1.15945
1.15925
1.15907
1.15899
1.15889
1.1587
1.15859
1.15863
1.1587
1.15911
1.16011
1.16215
1.16555
1.171
1.17949
1.19075
1.20421
1.22342
1.24096
1.25971
1.27858
1.29111
1.30324
1.30835
1.31264
1.3145
1.31875
1.32285
1.32385
1.32375
1.32403
1.32391
1.32301
1.32227
1.32196
1.32277
1.32254
1.32209
1.32173
1.32196
1.32273
1.32411
1.32458
1.32438
1.32323
1.31999
1.31708
1.31441
1.30986
1.30671
1.30443
1.30222
1.30144
1.30093
1.2988
1.29517
1.29129
1.29008
1.28848
1.28465
1.28097
1.2771
1.16077
1.16072
1.16067
1.16064
1.16066
1.16077
1.16085
1.16086
1.16086
1.16086
1.16079
1.16073
1.16073
1.16074
1.1608
1.16086
1.16086
1.16087
1.16095
1.16111
1.16129
1.16139
1.16146
1.16156
1.16163
1.16163
1.1616
1.16156
1.16156
1.16166
1.16184
1.16197
1.16196
1.16186
1.16172
1.16158
1.16141
1.16124
1.16101
1.16064
1.16021
1.15987
1.15964
1.15944
1.15906
1.15836
1.15774
1.15718
1.157
1.15702
1.15715
1.1575
1.15823
1.15993
1.16289
1.16872
1.17757
1.19149
1.20796
1.22915
1.25055
1.27122
1.2894
1.30319
1.31508
1.3205
1.32175
1.3219
1.32073
1.31727
1.31787
1.31966
1.32248
1.32476
1.32466
1.32426
1.32325
1.32122
1.32144
1.32208
1.32363
1.32403
1.3235
1.32139
1.3175
1.31282
1.30893
1.30634
1.30421
1.3027
1.30128
1.30025
1.29853
1.29569
1.29243
1.29008
1.28853
1.28607
1.28193
1.27721
1.16036
1.1603
1.16025
1.16024
1.16024
1.16028
1.16035
1.16038
1.16039
1.16039
1.16038
1.16035
1.16035
1.16036
1.16042
1.16048
1.16049
1.16052
1.16062
1.16075
1.16089
1.16101
1.16109
1.16116
1.16122
1.16123
1.16119
1.16116
1.16116
1.16123
1.16131
1.16137
1.16144
1.16152
1.16154
1.16151
1.16149
1.16145
1.16136
1.16115
1.16081
1.16039
1.15983
1.15906
1.15823
1.15756
1.15705
1.1566
1.15631
1.15612
1.15603
1.15599
1.15592
1.15569
1.15568
1.15597
1.15694
1.15911
1.16326
1.1716
1.18347
1.20104
1.22265
1.2454
1.26553
1.28135
1.29581
1.3027
1.30796
1.31132
1.31896
1.32372
1.32495
1.32487
1.32408
1.3222
1.32117
1.32091
1.3215
1.32258
1.32299
1.32321
1.32273
1.32067
1.31732
1.3122
1.30781
1.30529
1.30321
1.30225
1.30101
1.29926
1.29774
1.29543
1.29278
1.29002
1.28834
1.2862
1.28279
1.27747
1.15952
1.15951
1.15951
1.15951
1.15955
1.15961
1.15963
1.15963
1.1596
1.15958
1.15958
1.15957
1.15953
1.15947
1.15946
1.15946
1.15946
1.15947
1.15953
1.15954
1.15951
1.15945
1.15935
1.15926
1.15926
1.15924
1.15919
1.15914
1.15913
1.1591
1.15903
1.15901
1.15903
1.15916
1.15939
1.15954
1.15957
1.15958
1.15954
1.1594
1.15914
1.15882
1.15848
1.15809
1.15768
1.15724
1.15688
1.15656
1.15627
1.15596
1.1556
1.15537
1.15519
1.15517
1.15523
1.15544
1.15565
1.15566
1.15556
1.15588
1.15723
1.16127
1.16848
1.18221
1.20057
1.22217
1.24837
1.26977
1.29197
1.30672
1.31692
1.32125
1.32324
1.32189
1.31763
1.31768
1.31912
1.32163
1.32317
1.32314
1.32251
1.32159
1.32068
1.31957
1.31705
1.31264
1.30783
1.30379
1.30172
1.3015
1.30063
1.29913
1.29702
1.29472
1.29254
1.29009
1.288
1.28599
1.28292
1.27783
1.15849
1.15849
1.15847
1.15846
1.15844
1.15841
1.15837
1.15832
1.15827
1.15821
1.15813
1.15799
1.15785
1.15777
1.15772
1.1577
1.15767
1.15759
1.15755
1.15754
1.15747
1.15721
1.1571
1.15715
1.15717
1.15707
1.15678
1.15663
1.15659
1.1565
1.15639
1.15636
1.15637
1.15645
1.15665
1.1569
1.15712
1.15729
1.15743
1.15749
1.15748
1.15743
1.15728
1.15701
1.15668
1.15645
1.15628
1.15607
1.15573
1.15532
1.15502
1.15488
1.15486
1.15496
1.15523
1.15542
1.15565
1.15568
1.15558
1.15523
1.1549
1.15495
1.15542
1.15749
1.16175
1.17155
1.18459
1.2058
1.22894
1.25226
1.27631
1.2886
1.30351
1.30686
1.31358
1.31766
1.3226
1.32396
1.32383
1.32221
1.32049
1.32027
1.31984
1.31895
1.3168
1.31246
1.30688
1.30222
1.30075
1.30056
1.30022
1.29886
1.2964
1.29401
1.29216
1.29027
1.28801
1.28578
1.28281
1.278
1.15692
1.15691
1.15687
1.15684
1.15686
1.15689
1.15686
1.15669
1.15666
1.15665
1.15659
1.15641
1.15634
1.15635
1.15632
1.15625
1.15607
1.15592
1.15591
1.1559
1.15579
1.1555
1.15544
1.15547
1.15546
1.15531
1.15511
1.15499
1.15488
1.15466
1.15451
1.15449
1.1545
1.15459
1.15475
1.15495
1.15515
1.15532
1.15548
1.15567
1.1559
1.15602
1.15594
1.15574
1.15573
1.15581
1.15583
1.15575
1.15544
1.15497
1.15462
1.15453
1.15455
1.15466
1.15498
1.15554
1.1562
1.15671
1.1568
1.15662
1.15617
1.15569
1.15562
1.15574
1.1563
1.15765
1.16012
1.16588
1.17455
1.19212
1.21287
1.24008
1.26753
1.2874
1.30966
1.31546
1.32131
1.32161
1.31927
1.31803
1.31934
1.32147
1.32152
1.31987
1.31639
1.31061
1.30511
1.3016
1.30123
1.30065
1.29986
1.29817
1.29602
1.29355
1.29214
1.29022
1.28809
1.28577
1.28295
1.27824
1.15557
1.15557
1.15558
1.15561
1.15562
1.15561
1.15552
1.15541
1.15535
1.15532
1.15533
1.15536
1.15541
1.15542
1.15542
1.1554
1.15533
1.15525
1.15519
1.15511
1.15494
1.15479
1.15468
1.15455
1.15435
1.15413
1.15395
1.15376
1.15355
1.15325
1.15292
1.15275
1.15273
1.15274
1.1528
1.15299
1.15325
1.15347
1.15363
1.15382
1.15404
1.15425
1.15435
1.1544
1.15459
1.1551
1.15542
1.15545
1.15538
1.15498
1.15441
1.15419
1.15421
1.15437
1.15477
1.15546
1.1563
1.15726
1.15808
1.15821
1.15803
1.15748
1.15684
1.15673
1.15692
1.15753
1.15822
1.15875
1.15962
1.16237
1.16826
1.18284
1.20128
1.22789
1.25458
1.27419
1.2958
1.30332
1.30963
1.31591
1.32299
1.32349
1.32254
1.31868
1.31394
1.30848
1.30479
1.30314
1.30139
1.30048
1.29908
1.29731
1.29566
1.29416
1.2922
1.29014
1.28836
1.28628
1.28333
1.27848
1.15482
1.15485
1.15488
1.15493
1.15496
1.15493
1.15489
1.15488
1.15488
1.15491
1.15494
1.15497
1.15501
1.15507
1.15508
1.15508
1.15509
1.15509
1.15507
1.15499
1.15488
1.1548
1.15471
1.15456
1.15436
1.15414
1.15395
1.15377
1.15355
1.15327
1.15296
1.15277
1.15272
1.15272
1.15272
1.15277
1.15287
1.15299
1.1531
1.15323
1.1534
1.15362
1.15384
1.15401
1.15424
1.15462
1.15483
1.15484
1.15471
1.15425
1.15367
1.15336
1.15334
1.15349
1.15397
1.15495
1.15618
1.15738
1.15824
1.15859
1.15859
1.15845
1.15808
1.15766
1.15762
1.15782
1.15826
1.15868
1.15869
1.15861
1.15887
1.16073
1.16532
1.17713
1.19296
1.21964
1.24811
1.27403
1.30358
1.31359
1.32058
1.32183
1.31878
1.31424
1.31109
1.30905
1.30639
1.30323
1.30122
1.29972
1.29827
1.29782
1.29656
1.29444
1.29216
1.29012
1.28898
1.28718
1.28369
1.27876
1.15508
1.15511
1.15512
1.15515
1.15519
1.15516
1.15513
1.15512
1.15513
1.15516
1.15516
1.15516
1.15519
1.15521
1.15521
1.15522
1.15526
1.15533
1.15537
1.15545
1.15559
1.15565
1.15564
1.15556
1.15536
1.15513
1.15494
1.15477
1.15458
1.15433
1.15402
1.15365
1.15331
1.15309
1.15304
1.15304
1.15305
1.15312
1.15322
1.15332
1.15347
1.15368
1.1539
1.15417
1.15454
1.15515
1.15577
1.15604
1.15605
1.15596
1.15569
1.15522
1.15469
1.15449
1.1546
1.15497
1.15579
1.15691
1.15792
1.15849
1.15854
1.15846
1.15829
1.15793
1.15772
1.15788
1.15827
1.15863
1.15861
1.15844
1.15832
1.15839
1.15875
1.16031
1.1639
1.1736
1.18821
1.21445
1.24426
1.26957
1.28979
1.30336
1.30869
1.3142
1.31388
1.31082
1.30657
1.30059
1.29959
1.29908
1.29928
1.29877
1.29699
1.29445
1.29198
1.29116
1.28996
1.28792
1.28391
1.27934
1.15564
1.15569
1.15575
1.15581
1.15591
1.156
1.15603
1.15605
1.15607
1.1561
1.15613
1.15621
1.15635
1.15645
1.15651
1.15656
1.15665
1.15677
1.15688
1.15701
1.15723
1.15737
1.15737
1.15732
1.15718
1.15705
1.15698
1.15695
1.15691
1.15686
1.15671
1.15643
1.15605
1.15562
1.1552
1.15496
1.15487
1.15478
1.15466
1.1546
1.15458
1.15459
1.15471
1.15494
1.15526
1.15583
1.15661
1.15723
1.15753
1.15758
1.15753
1.15727
1.15671
1.15607
1.15587
1.15596
1.15631
1.15678
1.15731
1.15785
1.15817
1.15825
1.1582
1.15791
1.15756
1.15767
1.15795
1.15825
1.15827
1.15826
1.15832
1.1585
1.15894
1.15928
1.15968
1.16089
1.16372
1.17221
1.18609
1.21228
1.24168
1.26916
1.29653
1.31223
1.31194
1.30852
1.29958
1.29663
1.29779
1.30041
1.30005
1.29881
1.29647
1.29418
1.29344
1.29237
1.29047
1.28805
1.28436
1.28023
1.1563
1.15635
1.15641
1.15644
1.15649
1.15663
1.15673
1.15673
1.15673
1.15676
1.15683
1.15697
1.15721
1.15733
1.15743
1.15757
1.15774
1.15792
1.15811
1.15831
1.15848
1.15862
1.15876
1.15888
1.15887
1.15884
1.15882
1.15878
1.15879
1.15888
1.15895
1.15895
1.1588
1.15848
1.15812
1.15786
1.15768
1.1575
1.1573
1.15707
1.15675
1.15645
1.15635
1.15633
1.15638
1.15678
1.15768
1.15848
1.15898
1.1592
1.1592
1.15905
1.15855
1.15783
1.15732
1.15719
1.15718
1.15721
1.15736
1.15767
1.15794
1.15795
1.15788
1.15778
1.15768
1.15759
1.15766
1.15776
1.1578
1.15788
1.15814
1.15875
1.15941
1.15977
1.16009
1.1603
1.16065
1.16162
1.16424
1.17158
1.1858
1.20972
1.23807
1.26493
1.28567
1.28843
1.29035
1.29605
1.30175
1.30125
1.29989
1.29773
1.29591
1.29571
1.29512
1.29327
1.29062
1.28768
1.28489
1.28132
1.15663
1.15669
1.15674
1.15679
1.15683
1.15691
1.15704
1.15715
1.15724
1.15731
1.15736
1.15742
1.15751
1.15767
1.15785
1.15815
1.15836
1.15847
1.15858
1.15869
1.15878
1.15897
1.15919
1.15941
1.15971
1.15996
1.16005
1.16007
1.16015
1.1604
1.16056
1.16061
1.16065
1.16064
1.16056
1.16047
1.16038
1.16024
1.16005
1.15981
1.15942
1.15899
1.15881
1.15871
1.15867
1.15889
1.15957
1.15983
1.16002
1.16021
1.16023
1.16008
1.15953
1.159
1.15874
1.15857
1.15834
1.15803
1.15787
1.15791
1.15804
1.15802
1.15785
1.15783
1.15791
1.15811
1.15823
1.15823
1.15822
1.15832
1.15864
1.15924
1.15985
1.16001
1.16012
1.16035
1.1607
1.16095
1.16119
1.16189
1.16428
1.17094
1.18469
1.20788
1.23539
1.26114
1.28483
1.29334
1.29954
1.29895
1.29359
1.29478
1.29699
1.29692
1.29576
1.29341
1.29056
1.28788
1.28562
1.28193
1.15845
1.15851
1.15861
1.15872
1.15878
1.15886
1.15894
1.159
1.15904
1.15909
1.15914
1.15916
1.15919
1.15922
1.15931
1.15948
1.15959
1.15962
1.15966
1.15969
1.15974
1.15987
1.15989
1.15987
1.15992
1.16011
1.1602
1.16028
1.16059
1.16078
1.1608
1.16089
1.16124
1.16148
1.16153
1.16156
1.16156
1.16154
1.16145
1.1613
1.16089
1.16027
1.16011
1.16007
1.16008
1.16018
1.16049
1.16089
1.16099
1.16099
1.16095
1.1607
1.16016
1.16001
1.16003
1.15998
1.15979
1.15943
1.15922
1.15925
1.15921
1.15891
1.15867
1.1587
1.15881
1.15908
1.1593
1.15929
1.15913
1.15901
1.15911
1.15946
1.15988
1.16007
1.16005
1.16017
1.16062
1.16076
1.16073
1.16081
1.16106
1.16158
1.16343
1.16951
1.1812
1.20257
1.22678
1.25158
1.26874
1.28165
1.2873
1.29866
1.29864
1.29702
1.29411
1.29253
1.29145
1.28931
1.28645
1.28193
1.16046
1.16057
1.16079
1.16082
1.16082
1.16082
1.16084
1.16084
1.16081
1.16075
1.16076
1.16078
1.16078
1.16078
1.16084
1.16096
1.16104
1.16106
1.16106
1.16104
1.16108
1.16105
1.1608
1.16059
1.16059
1.16064
1.16063
1.16071
1.16082
1.1608
1.1608
1.161
1.16145
1.16155
1.16156
1.16157
1.16157
1.16147
1.16135
1.16124
1.16084
1.16008
1.15987
1.15989
1.16005
1.16053
1.16091
1.16093
1.16088
1.16059
1.16012
1.15988
1.15986
1.15989
1.1601
1.16049
1.16079
1.16086
1.16083
1.16077
1.16083
1.16085
1.16079
1.1606
1.16058
1.16064
1.16066
1.16059
1.16038
1.16003
1.15978
1.1598
1.15996
1.1601
1.1601
1.16012
1.16032
1.16067
1.16094
1.16093
1.1607
1.16008
1.15883
1.15797
1.15879
1.1626
1.17439
1.197
1.22303
1.25753
1.28125
1.29645
1.29625
1.29064
1.29058
1.29182
1.29274
1.29045
1.28654
1.28172
1.16192
1.16193
1.16193
1.16193
1.1619
1.16186
1.16186
1.16187
1.16187
1.16188
1.16189
1.16186
1.16176
1.16174
1.16177
1.16183
1.16183
1.16178
1.16177
1.16183
1.16193
1.1619
1.16157
1.16123
1.16119
1.16124
1.16137
1.16142
1.16135
1.16109
1.16106
1.16123
1.16129
1.16128
1.16118
1.16118
1.16119
1.16106
1.16075
1.16059
1.16027
1.15974
1.15963
1.15969
1.16009
1.16098
1.16138
1.1614
1.16128
1.16074
1.16004
1.15987
1.15989
1.16004
1.16042
1.16097
1.16148
1.16176
1.16179
1.16178
1.16195
1.16247
1.16257
1.16244
1.16192
1.16168
1.1617
1.16168
1.1616
1.16141
1.16092
1.16052
1.16047
1.16048
1.16042
1.16043
1.16051
1.16073
1.16104
1.16112
1.16098
1.16028
1.15881
1.15616
1.15373
1.1493
1.14988
1.15395
1.16965
1.19477
1.22564
1.25947
1.27272
1.28102
1.29034
1.2951
1.29344
1.28939
1.28509
1.2819
1.16163
1.16164
1.16164
1.16153
1.16144
1.16143
1.16144
1.16145
1.16155
1.16162
1.16162
1.16156
1.16141
1.16136
1.16139
1.16142
1.16141
1.1614
1.16152
1.16189
1.16195
1.16188
1.16148
1.16077
1.16034
1.16032
1.16044
1.16049
1.16043
1.16023
1.16025
1.16048
1.16059
1.16057
1.16043
1.1604
1.16039
1.16024
1.15971
1.15924
1.15916
1.1592
1.15932
1.15951
1.16007
1.16135
1.16229
1.16245
1.16242
1.16208
1.16142
1.16122
1.16124
1.16141
1.16196
1.16218
1.16212
1.16188
1.16176
1.16168
1.1619
1.1629
1.16342
1.16336
1.16247
1.16154
1.16149
1.1618
1.16222
1.16221
1.16198
1.16161
1.16148
1.16143
1.16126
1.16122
1.16128
1.16136
1.16142
1.16136
1.16098
1.1601
1.15853
1.15596
1.15244
1.14883
1.14442
1.141
1.14301
1.14959
1.1711
1.20014
1.23534
1.2744
1.28685
1.29323
1.28942
1.28313
1.28257
1.28236
1.15922
1.1593
1.15931
1.15915
1.15873
1.15869
1.15932
1.15976
1.1599
1.16002
1.16
1.15971
1.15947
1.15943
1.15937
1.15923
1.15907
1.15906
1.15936
1.15979
1.1598
1.15954
1.15902
1.15896
1.15924
1.15963
1.15968
1.15977
1.16006
1.16068
1.16149
1.16198
1.16206
1.162
1.16179
1.16172
1.16163
1.16129
1.16026
1.15936
1.15919
1.15919
1.15941
1.16004
1.16089
1.1618
1.16243
1.16283
1.1632
1.16326
1.16295
1.16277
1.16286
1.1633
1.16352
1.16347
1.16301
1.16195
1.16152
1.16148
1.16194
1.16337
1.16406
1.16397
1.16295
1.16114
1.16066
1.16102
1.16197
1.16269
1.16269
1.16252
1.16233
1.1622
1.16214
1.16216
1.16223
1.16223
1.16213
1.16183
1.16111
1.16001
1.15834
1.1558
1.15219
1.14842
1.14429
1.14044
1.13572
1.13465
1.13765
1.14801
1.17517
1.21106
1.24111
1.26727
1.27235
1.28287
1.28432
1.28229
1.15366
1.15382
1.15383
1.15358
1.1533
1.15352
1.15536
1.15661
1.15652
1.15645
1.15667
1.15664
1.15666
1.15671
1.15668
1.1569
1.1571
1.15711
1.1571
1.15708
1.15685
1.15635
1.15624
1.1563
1.15668
1.15755
1.1586
1.1594
1.16004
1.16075
1.16147
1.16191
1.16206
1.16202
1.16186
1.16183
1.16186
1.16183
1.16151
1.16106
1.16074
1.16041
1.16024
1.16061
1.16132
1.16137
1.16121
1.16122
1.16168
1.16258
1.16273
1.16263
1.16274
1.1632
1.16338
1.16333
1.16268
1.16129
1.16054
1.16043
1.1608
1.16251
1.16394
1.16392
1.16317
1.16149
1.1607
1.161
1.16184
1.16269
1.1631
1.16311
1.16305
1.16287
1.16271
1.16273
1.16286
1.16295
1.16288
1.16254
1.16174
1.16033
1.15837
1.15577
1.15217
1.14835
1.14461
1.14089
1.13681
1.13267
1.12772
1.12828
1.13405
1.15035
1.18407
1.22029
1.25401
1.27943
1.28238
1.27774
1.15201
1.15201
1.1519
1.15181
1.1518
1.15204
1.15297
1.15331
1.15322
1.15316
1.15324
1.15369
1.15484
1.156
1.15656
1.15674
1.15677
1.15654
1.15575
1.15475
1.15378
1.15281
1.15209
1.15194
1.15215
1.15268
1.15333
1.15379
1.15404
1.15428
1.15442
1.15455
1.15495
1.15596
1.157
1.15756
1.15839
1.15989
1.16035
1.16033
1.16017
1.15976
1.15923
1.15859
1.15763
1.1563
1.15547
1.15538
1.15569
1.15669
1.15812
1.15942
1.16046
1.16137
1.16176
1.16185
1.16159
1.16108
1.16039
1.1595
1.15946
1.16042
1.16261
1.16365
1.1634
1.16266
1.162
1.16203
1.16229
1.16269
1.16317
1.16346
1.1635
1.16341
1.16301
1.16275
1.16275
1.16275
1.16265
1.16229
1.16152
1.16049
1.1588
1.15623
1.15268
1.14882
1.14517
1.14147
1.1375
1.13302
1.12875
1.12508
1.12198
1.12404
1.13359
1.15569
1.19113
1.22466
1.2477
1.26319
1.14813
1.14751
1.14683
1.14675
1.14696
1.14741
1.14752
1.14749
1.14719
1.14715
1.14749
1.1486
1.15075
1.1527
1.15379
1.15409
1.15393
1.1534
1.15326
1.15364
1.15409
1.15411
1.15331
1.15148
1.1512
1.1512
1.15099
1.15012
1.14767
1.14435
1.14309
1.14277
1.14274
1.14336
1.14577
1.14895
1.15165
1.15396
1.15476
1.15475
1.15459
1.15459
1.15491
1.15493
1.15433
1.15267
1.15048
1.14877
1.14865
1.14932
1.15044
1.15166
1.15316
1.15474
1.15609
1.15758
1.15954
1.16027
1.16002
1.15904
1.15826
1.15853
1.15997
1.16206
1.16282
1.16253
1.16201
1.16205
1.16221
1.16222
1.16254
1.16329
1.16353
1.16343
1.16285
1.16233
1.16233
1.16241
1.16238
1.16208
1.16137
1.16029
1.15871
1.1563
1.15303
1.14933
1.14573
1.14203
1.13825
1.13412
1.12986
1.1254
1.1217
1.11802
1.1177
1.12129
1.13534
1.16096
1.19638
1.2455
1.14996
1.1495
1.14921
1.14922
1.14937
1.14951
1.14951
1.14925
1.14892
1.14892
1.14929
1.15093
1.1544
1.15713
1.15882
1.15943
1.15984
1.16134
1.16267
1.16275
1.16238
1.16143
1.16062
1.15934
1.1561
1.15391
1.15314
1.15186
1.14812
1.14331
1.14216
1.14204
1.1421
1.14305
1.14585
1.14974
1.15174
1.15253
1.15343
1.1543
1.15438
1.1546
1.1557
1.15689
1.15684
1.15596
1.15455
1.15287
1.15099
1.15028
1.15032
1.15041
1.15111
1.15176
1.15175
1.15196
1.15343
1.15637
1.15773
1.1575
1.15628
1.15518
1.15543
1.15605
1.15687
1.15815
1.15957
1.16007
1.16003
1.15994
1.16016
1.16108
1.1622
1.16245
1.16239
1.16233
1.1625
1.16264
1.1626
1.16231
1.16159
1.16036
1.15863
1.15618
1.15305
1.14941
1.14583
1.14247
1.13899
1.13512
1.1309
1.12588
1.12185
1.11842
1.11569
1.11293
1.11378
1.11902
1.13471
1.18205
1.16771
1.16857
1.1698
1.17031
1.17035
1.1697
1.16685
1.16557
1.16538
1.16557
1.16588
1.16695
1.17011
1.17156
1.17206
1.17264
1.175
1.17763
1.17798
1.17759
1.17749
1.17775
1.17831
1.17833
1.17777
1.17627
1.17246
1.16771
1.16596
1.16497
1.16292
1.16079
1.15977
1.15908
1.1587
1.15812
1.15525
1.15208
1.15196
1.15374
1.15655
1.15878
1.1605
1.1607
1.16003
1.15988
1.16024
1.16075
1.16067
1.15974
1.15793
1.15551
1.15309
1.15183
1.15167
1.15181
1.15251
1.15345
1.15458
1.15546
1.15573
1.1556
1.1546
1.15341
1.15276
1.15281
1.15349
1.15488
1.15602
1.1565
1.1571
1.15792
1.15875
1.15971
1.16078
1.16171
1.16226
1.16252
1.16251
1.16227
1.16157
1.1603
1.15836
1.15581
1.1527
1.14917
1.14572
1.1425
1.13932
1.13605
1.13215
1.12724
1.12276
1.11928
1.11651
1.11383
1.11094
1.10627
1.10709
1.12828
1.198
1.19711
1.19706
1.19771
1.19951
1.2003
1.19946
1.19531
1.19259
1.19015
1.18626
1.18374
1.18321
1.18322
1.18426
1.18572
1.18567
1.18461
1.18417
1.18436
1.18656
1.18778
1.18667
1.18682
1.18775
1.18677
1.18757
1.19096
1.19134
1.18885
1.18608
1.18593
1.18659
1.18863
1.18958
1.18857
1.18311
1.17431
1.16792
1.16706
1.16802
1.16887
1.16883
1.16745
1.16326
1.16069
1.16083
1.16263
1.16541
1.16672
1.16665
1.16583
1.16504
1.16409
1.16103
1.15618
1.15381
1.15373
1.1542
1.15522
1.15718
1.15919
1.15919
1.15772
1.15506
1.15354
1.15373
1.15447
1.15577
1.15678
1.15673
1.15586
1.15483
1.15488
1.15558
1.1567
1.15774
1.1587
1.15952
1.15963
1.15944
1.15865
1.15708
1.15473
1.15162
1.14823
1.14505
1.14216
1.13943
1.13664
1.13318
1.12889
1.12472
1.12088
1.11755
1.1144
1.1109
1.10708
1.09963
1.10141
1.26513
1.26502
1.2655
1.26776
1.26834
1.26822
1.26722
1.26521
1.26154
1.25827
1.25789
1.25872
1.25911
1.25619
1.25151
1.25098
1.2508
1.24896
1.24758
1.24752
1.24711
1.24278
1.23904
1.2377
1.23521
1.23319
1.23241
1.23149
1.22887
1.2227
1.21603
1.21361
1.2137
1.21506
1.2149
1.2116
1.21069
1.21322
1.21335
1.21079
1.20982
1.21034
1.21035
1.20763
1.19982
1.19034
1.1857
1.18341
1.17937
1.17463
1.1726
1.17319
1.17832
1.18169
1.18091
1.17894
1.17618
1.16992
1.16171
1.15879
1.15903
1.16152
1.16477
1.16482
1.16299
1.15908
1.15602
1.1554
1.15556
1.15592
1.15591
1.1553
1.15391
1.15336
1.15339
1.1537
1.15456
1.15583
1.15698
1.15702
1.1565
1.15567
1.15434
1.15219
1.14934
1.14659
1.14391
1.14138
1.13907
1.1366
1.13378
1.13043
1.12648
1.12236
1.1186
1.11515
1.11116
1.10756
1.10224
1.09311
1.33416
1.33331
1.33181
1.32881
1.32646
1.32632
1.32607
1.32458
1.32305
1.32318
1.32317
1.32066
1.31551
1.31148
1.31097
1.31143
1.31133
1.30845
1.30541
1.30537
1.30526
1.30344
1.303
1.30249
1.30133
1.30187
1.30218
1.30064
1.29795
1.29436
1.29117
1.28749
1.28392
1.27987
1.2737
1.26637
1.26243
1.259
1.25553
1.25256
1.24796
1.24241
1.24107
1.24245
1.24388
1.2425
1.23931
1.237
1.2333
1.22586
1.21909
1.21503
1.20772
1.19682
1.19413
1.19695
1.19958
1.19797
1.19382
1.18998
1.18395
1.17524
1.17159
1.17183
1.17149
1.17006
1.16798
1.16411
1.1591
1.15789
1.15796
1.15753
1.1562
1.15611
1.15669
1.15779
1.15931
1.16013
1.16006
1.15907
1.15709
1.15456
1.15178
1.14855
1.1447
1.14168
1.14034
1.13949
1.13831
1.13652
1.13396
1.13059
1.12651
1.12235
1.11854
1.11473
1.11093
1.10818
1.10467
1.0951
1.41208
1.41065
1.40531
1.40314
1.40321
1.40233
1.40108
1.40121
1.4017
1.40141
1.39792
1.39627
1.39622
1.39459
1.39284
1.3911
1.38627
1.38421
1.38352
1.38076
1.37786
1.37682
1.37615
1.37456
1.37137
1.3675
1.36488
1.36375
1.36171
1.35779
1.35481
1.35264
1.35053
1.34803
1.34489
1.33892
1.33538
1.33462
1.33355
1.33083
1.32535
1.31884
1.31368
1.31001
1.30618
1.29699
1.28837
1.2871
1.28545
1.27819
1.27552
1.27604
1.27296
1.26467
1.25962
1.25345
1.24053
1.23004
1.22935
1.23009
1.22797
1.22302
1.21703
1.20598
1.19758
1.19701
1.19742
1.19623
1.18942
1.17989
1.17714
1.1769
1.17499
1.17144
1.16783
1.16564
1.16419
1.16238
1.16003
1.15702
1.15432
1.15207
1.14945
1.14638
1.14311
1.13997
1.13839
1.13767
1.1366
1.13534
1.13305
1.12968
1.12515
1.12113
1.11738
1.11412
1.11162
1.1091
1.10566
1.09629
1.49554
1.49451
1.49256
1.49123
1.48943
1.48727
1.48563
1.48457
1.48388
1.48268
1.48069
1.47866
1.47549
1.47407
1.47261
1.46839
1.46707
1.4667
1.46581
1.46263
1.45602
1.45419
1.4543
1.45404
1.45203
1.44791
1.44415
1.44259
1.44115
1.43858
1.43459
1.43008
1.42598
1.42339
1.42105
1.41731
1.41263
1.40829
1.4046
1.40037
1.39229
1.38652
1.38658
1.38666
1.38451
1.3777
1.36927
1.36316
1.35817
1.35154
1.34407
1.33617
1.32512
1.32045
1.31997
1.31764
1.30936
1.30059
1.29487
1.28335
1.27023
1.26858
1.2667
1.26009
1.25196
1.23977
1.22955
1.22633
1.2237
1.2176
1.20626
1.19805
1.19395
1.18915
1.18148
1.17392
1.16874
1.16553
1.16253
1.15952
1.15679
1.15461
1.15221
1.14933
1.14755
1.14551
1.14286
1.14007
1.13725
1.13428
1.13108
1.12701
1.12321
1.11983
1.1167
1.11525
1.11277
1.10927
1.10555
1.09613
1.57738
1.57693
1.57622
1.57412
1.57319
1.57281
1.57049
1.5652
1.56334
1.56382
1.56402
1.56356
1.56026
1.55621
1.55564
1.55523
1.55417
1.54956
1.54544
1.5454
1.54511
1.54337
1.53762
1.53349
1.53242
1.5314
1.52907
1.52553
1.52194
1.51827
1.51507
1.51214
1.50851
1.50444
1.50092
1.49783
1.49292
1.48761
1.48353
1.47968
1.47498
1.46952
1.4641
1.45997
1.45632
1.45089
1.44358
1.43746
1.43255
1.42675
1.42038
1.41398
1.40717
1.40029
1.39288
1.38297
1.37373
1.36783
1.36331
1.35615
1.34651
1.33991
1.32979
1.31621
1.31039
1.30418
1.2968
1.28619
1.27605
1.26959
1.26221
1.25017
1.2411
1.23546
1.22912
1.22045
1.21228
1.20516
1.1982
1.19131
1.1845
1.1769
1.16955
1.16214
1.15512
1.14677
1.14167
1.13738
1.13504
1.13239
1.1297
1.12654
1.12474
1.12241
1.11975
1.1166
1.11273
1.10801
1.10342
1.09441
1.66928
1.66674
1.66472
1.66458
1.66432
1.66294
1.66176
1.65996
1.65591
1.65198
1.65152
1.65217
1.65182
1.64991
1.64502
1.63963
1.63914
1.63885
1.63782
1.63314
1.62881
1.62803
1.62696
1.62415
1.6197
1.61609
1.61339
1.61105
1.60833
1.60475
1.6001
1.5964
1.59369
1.59054
1.58586
1.58189
1.57842
1.57366
1.56859
1.56375
1.55904
1.55442
1.54813
1.54153
1.53677
1.53224
1.52586
1.51863
1.51235
1.50619
1.49917
1.49145
1.48418
1.47781
1.47113
1.46301
1.45495
1.44748
1.43906
1.428
1.41669
1.41031
1.40366
1.39337
1.38367
1.3712
1.36064
1.35269
1.34325
1.3306
1.3208
1.31102
1.2994
1.28739
1.27703
1.26596
1.2545
1.24374
1.23342
1.22247
1.21032
1.19813
1.18573
1.17321
1.16196
1.15196
1.14545
1.14103
1.13906
1.13623
1.13482
1.13353
1.13155
1.12745
1.12289
1.11801
1.11204
1.10616
1.10125
1.09279
1.76519
1.76423
1.7617
1.75819
1.75759
1.75698
1.75488
1.75392
1.75341
1.75112
1.74575
1.74314
1.74363
1.74374
1.74238
1.73802
1.73086
1.72934
1.72943
1.72883
1.72563
1.72077
1.71757
1.71563
1.71316
1.70995
1.70505
1.70109
1.69836
1.69515
1.69086
1.68638
1.68234
1.67938
1.67594
1.67091
1.66589
1.66098
1.6556
1.65027
1.64468
1.63971
1.63504
1.62857
1.62147
1.61551
1.60943
1.6029
1.59579
1.58841
1.5815
1.57416
1.56608
1.55791
1.55031
1.54185
1.53242
1.52433
1.51657
1.50813
1.49838
1.4877
1.47713
1.46509
1.45599
1.44733
1.4361
1.42342
1.41323
1.40192
1.3888
1.37685
1.36569
1.3535
1.34135
1.32926
1.31656
1.3035
1.29002
1.27691
1.26407
1.25092
1.23647
1.2227
1.2095
1.19835
1.18639
1.17551
1.16594
1.15688
1.14886
1.14068
1.13328
1.12584
1.12085
1.11548
1.11115
1.10609
1.10238
1.09585
1.86675
1.8654
1.86293
1.86247
1.8623
1.85989
1.85319
1.85005
1.85019
1.85086
1.85039
1.8482
1.84207
1.8392
1.83919
1.83853
1.83546
1.82857
1.82531
1.82475
1.82362
1.82005
1.81553
1.81194
1.80889
1.80578
1.80179
1.79758
1.7943
1.79098
1.78691
1.78228
1.77735
1.77355
1.77013
1.76516
1.75959
1.75455
1.74874
1.74247
1.73646
1.72985
1.72403
1.7181
1.711
1.70442
1.69765
1.69019
1.68308
1.67484
1.66648
1.65935
1.65176
1.64304
1.63361
1.62486
1.6163
1.60734
1.59821
1.58841
1.57772
1.56686
1.55651
1.54657
1.53569
1.52325
1.5115
1.49989
1.48779
1.47603
1.46339
1.45012
1.43739
1.42449
1.41115
1.39717
1.38275
1.3689
1.35426
1.33852
1.32219
1.30503
1.28761
1.27047
1.25354
1.23759
1.22136
1.20635
1.19103
1.17652
1.16192
1.14876
1.13834
1.13072
1.12481
1.11956
1.11675
1.1135
1.11033
1.10154
1.9757
1.9716
1.97062
1.97103
1.9709
1.9677
1.96345
1.96287
1.96171
1.95706
1.95221
1.95202