/*--------------------------------*- C++ -*----------------------------------*\
  =========                 |
  \\      /  F ield         | OpenFOAM: The Open Source CFD Toolbox
   \\    /   O peration     | Website:  https://openfoam.org
    \\  /    A nd           | Version:  7
     \\/     M anipulation  |
\*---------------------------------------------------------------------------*/
FoamFile
{
    version     2.0;
    format      ascii;
    class       volScalarField;
    location    "9.4";
    object      p;
}
// * * * * * * * * * * * * * * * * * * * * * * * * * * * * * * * * * * * * * //

dimensions      [1 -1 -2 0 0 0 0];

internalField   nonuniform List<scalar> 
1750
(
0.247643
0.489468
0.603282
0.600644
0.623821
0.705412
0.767657
0.81291
0.902218
0.976727
0.0229711
0.110209
0.419855
0.674088
0.830872
0.883938
0.880003
0.906256
0.954242
0.979874
0.0213944
0.0221121
0.0488699
0.216593
0.521592
0.747935
0.893648
0.996174
0.972383
0.962131
0.0313446
0.0359643
0.0498481
0.0639875
0.0951012
0.211213
0.43662
0.677726
0.787346
0.923116
0.069565
0.0734193
0.0831655
0.0955436
0.102767
0.112833
0.119089
0.184768
0.330923
0.622364
0.136943
0.137326
0.136146
0.14059
0.155682
0.165951
0.174399
0.187787
0.189236
0.261895
0.251338
0.255514
0.256616
0.256342
0.256557
0.258585
0.263567
0.262786
0.262889
0.266972
0.459006
0.441795
0.424979
0.412911
0.401334
0.38584
0.372227
0.364042
0.356297
0.341437
0.766279
0.731596
0.69254
0.653287
0.621226
0.589282
0.556937
0.53029
0.509664
0.477721
1.02606
1.00077
0.969853
0.932634
0.890536
0.84755
0.802135
0.753527
0.713824
0.653212
1.08183
1.07923
1.07452
1.06738
1.05543
1.03766
1.01312
0.980787
0.945364
0.875762
1.06226
1.06535
1.06829
1.06789
1.06702
1.06537
1.06276
1.0583
1.05195
1.02799
1.01717
1.02225
1.02814
1.03464
1.04071
1.04581
1.04948
1.0527
1.05243
1.05047
1.00104
1.00175
1.00285
1.00467
1.00727
1.0109
1.0153
1.02087
1.02648
1.03416
1.00002
1.00003
1.00007
1.00014
1.00029
1.00059
1.00116
1.0022
1.0038
1.00893
0.0238042
0.01881
0.0199332
0.0310962
0.0630589
0.130063
0.24809
0.474748
0.804888
1.046
1.08323
1.05777
1.01304
1.00069
1.00001
0.0224423
0.0184906
0.0201634
0.0397978
0.0786614
0.157847
0.318031
0.594792
0.921337
1.08159
1.0851
1.04782
1.00766
1.00028
1
0.0209975
0.0159859
0.020208
0.0417693
0.0866218
0.179937
0.388097
0.693882
0.989126
1.09254
1.0856
1.03778
1.00439
1.00013
1
0.0208417
0.014329
0.023104
0.0413336
0.104164
0.246004
0.483388
0.793839
1.04313
1.09782
1.07936
1.02626
1.00217
1.00005
1
0.0227034
0.0133447
0.0279011
0.0510384
0.135257
0.317519
0.57603
0.893624
1.083
1.10003
1.06914
1.017
1.00107
1.00002
1
0.0250477
0.013617
0.0305445
0.0788
0.195742
0.395189
0.694763
0.993135
1.10405
1.10075
1.05585
1.01021
1.00047
1.00001
1
0.0193799
0.0153532
0.0289248
0.109476
0.25914
0.499957
0.834232
1.06339
1.11255
1.09674
1.04113
1.0051
1.00018
1
1
0.0134791
0.0171487
0.0462899
0.150387
0.347433
0.660431
0.95595
1.10283
1.11546
1.08594
1.02539
1.00212
1.00006
1
1
0.00821302
0.023128
0.085936
0.227606
0.486394
0.814047
1.04904
1.12117
1.11604
1.06532
1.0136
1.00085
1.00002
1
1
0.00402626
0.0311416
0.128947
0.344965
0.673188
0.958117
1.10667
1.12591
1.10427
1.04385
1.00636
1.00029
1.00001
1
1
0.000824446
0.0386148
0.220518
0.53239
0.855595
1.06785
1.12944
1.12646
1.08468
1.02557
1.00239
1.00008
1
1
1
0.00357533
0.12059
0.402056
0.748313
1.00851
1.12253
1.13483
1.11654
1.06046
1.01226
1.00083
1.00002
1
1
1
0.027117
0.251851
0.641763
0.953979
1.10756
1.14005
1.13565
1.09813
1.03584
1.00454
1.00021
1.00001
1
1
1
0.149105
0.504686
0.901862
1.09469
1.14307
1.14237
1.12399
1.06861
1.01562
1.00128
1.00004
1
1
1
1
0.530213
0.894712
1.09483
1.14418
1.14734
1.13626
1.09904
1.03635
1.00516
1.00026
1.00001
1
1
1
1
1.1485
1.15141
1.15585
1.15158
1.14418
1.11995
1.06147
1.01275
1.00066
1.00001
1
1
1
1
1
1.1483
1.15038
1.15404
1.14776
1.14054
1.11485
1.05491
1.01259
1.00103
1.00003
1
1
1
1
1
1.14951
1.15145
1.15584
1.14627
1.13328
1.09613
1.0359
1.00453
1.00018
1
1
1
1
1
1
1.1518
1.15183
1.15619
1.14451
1.12661
1.078
1.02217
1.00207
1.00007
1
1
1
1
1
1
1.15275
1.15105
1.15277
1.14037
1.11499
1.05895
1.0125
1.00084
1.00002
1
1
1
1
1
1
1.15289
1.15093
1.14931
1.13629
1.10114
1.04222
1.00613
1.00028
1.00001
1
1
1
1
1
1
1.15401
1.15254
1.14627
1.13104
1.08239
1.02385
1.00233
1.00008
1
1
1
1
1
1
1
1.15502
1.15302
1.13782
1.11573
1.05967
1.01287
1.00089
1.00002
1
1
1
1
1
1
1
1.15378
1.1524
1.13199
1.09906
1.04136
1.00594
1.00026
1.00001
1
1
1
1
1
1
1
1.15477
1.1506
1.12535
1.07704
1.02141
1.00196
1.00006
1
1
1
1
1
1
1
1
1.15486
1.1396
1.10866
1.05126
1.00971
1.0006
1.00001
1
1
1
1
1
1
1
1
1.15431
1.12996
1.09081
1.03092
1.00368
1.00014
1
1
1
1
1
1
1
1
1
1.1583
1.12069
1.06139
1.01264
1.00087
1.00002
1
1
1
1
1
1
1
1
1
1.1524
1.09688
1.03216
1.00391
1.00016
1
1
1
1
1
1
1
1
1
1
1.13522
1.06425
1.01335
1.00089
1.00002
1
1
1
1
1
1
1
1
1
1
1.11909
1.02461
1.00255
1.00012
1
1
1
1
1
1
1
1
1
1
1
1
1
1
1
1
1
1
1
1
1
1
1
1
1
1
1
1
1
1
1
1
1
1
1
1
1
1
1
1
1
1
1
1
1
1
1
1
1
1
1
1
1
1
1
1
1
1
1
1
1
1
1
1
1
1
1
1
1
1
1
1
1
1
1
1
1
1
1
1
1
1
1
1
1
1
1
1
1
1
1
1
1
1
1
1
1
1
1
1
1
1
1
1
1
1
1
1
1
1
1
1
1
1
1
1
1
1
1
1
1
1
1
1
1
1
1
1
1
1
1
1
1
1
1
1
1
1
1
1
1
1
1
1
1
1
1.4908
1
1
1
1
1
1
1
1
1
1.10779
1
1
1
1
1
1
1
1
1
1.02008
1
1
1
1
1
1
1
1
1
1.00408
1
1
1
1
1
1
1
1
1
1.00072
1
1
1
1
1
1
1
1
1
1.0001
1
1
1
1
1
1
1
1
1
1.00001
1
1
1
1
1
1
1
1
1
1
1
1
1
1
1
1
1
1
1
1
1
1
1
1
1
1
1
1
1
1
1
1
1
1
1
1
1
1
1
1
1
1
1
1
1
1
1
1
1
1
1
1
1
1
1
1
1
1
1
1
1
1
1
1
1
1
1
1
1
1
1
1
1
1
1
1
1
1
1
1
1
1
1
1
1
1
1
1
1
1
1
1
1
1
1
1
1
1
1
1
1
1
1
1
1
1
1
1
1
1
1
1
1
1
1
1
1
1
1
1
1
1
1
1
1
1
1
1
1
1
1
1
1
1
1
1
1
1
1
8.62655
5.64125
1.98117
1.00206
1.00035
1.00006
1.00001
1
1
1
1
1
1
1
1
1
1
1
1
1
8.98109
8.38939
7.64967
4.56675
1.23881
1.00003
1
1
1
1
1
1
1
1
1
1
1
1
1
1
8.69844
8.42281
8.54125
8.24369
6.11516
1.78348
0.999769
1
1
1
1
1
1
1
1
1
1
1
1
1
8.51322
8.36828
8.39638
8.30962
8.23639
6.74729
2.20045
0.998904
1
1
1
1
1
1
1
1
1
1
1
1
8.40242
8.3069
8.32434
8.26562
8.25525
8.21908
7.01108
2.41785
0.998217
1
1
1
1
1
1
1
1
1
1
1
8.30817
8.23974
8.25683
8.21278
8.2153
8.19572
8.1825
7.11521
2.45362
0.997542
1
1
1
1
1
1
1
1
1
1
8.23543
8.18447
8.20635
8.16072
8.1644
8.13328
8.10502
8.04743
6.8008
2.17627
0.997706
1
1
1
1
1
1
1
1
1
8.17953
8.13529
8.15422
8.10999
8.1017
8.07123
8.04667
8.03124
8.00679
6.42324
1.86238
0.997545
1.00001
1
1
1
1
1
1
1
8.13681
8.09155
8.105
8.0591
8.04142
8.00984
7.98827
7.95845
7.94153
7.78412
5.30461
1.40784
0.998476
1.00001
1
1
1
1
1
1
8.09821
8.05128
8.05756
8.01066
7.98864
7.96152
7.93146
7.88946
7.82147
7.74908
7.42812
3.72494
1.09385
0.999587
1
1
1
1
1
1
8.05021
8.00808
8.00577
7.96196
7.93948
7.91364
7.87807
7.83161
7.76819
7.70945
7.77228
7.15496
2.63427
1.01329
0.999984
1
1
1
1
1
7.98451
7.94484
7.94126
7.90621
7.88661
7.8621
7.83505
7.79146
7.74497
7.71489
7.77251
7.74598
6.19757
1.78566
0.999712
0.999995
1
1
1
1
7.9019
7.86617
7.86422
7.82883
7.80475
7.77528
7.74761
7.71268
7.68281
7.65327
7.64318
7.62706
7.43167
4.43095
1.21708
0.999313
0.999962
1
1
1
7.76817
7.70905
7.68061
7.61866
7.56809
7.51519
7.47492
7.44261
7.42804
7.40381
7.38495
7.35796
7.3288
6.68474
2.61014
1.02555
1.00004
1
1
1
7.34166
7.07389
6.99489
6.91135
6.86643
6.84284
6.85147
6.86722
6.90848
6.93417
6.94979
6.95139
6.96183
6.90471
5.10044
1.40623
0.990342
0.999436
0.999995
1
2.48195
3.70851
4.24248
4.68491
5.07866
5.39883
5.64215
5.85132
6.04401
6.18829
6.31814
6.39258
6.50263
6.64324
6.5278
3.78439
1.2676
1.00297
1.00001
1
0.749131
1.92178
2.63206
3.22262
3.6659
4.11711
4.48995
4.84008
5.12674
5.38955
5.59522
5.77191
5.9526
6.18378
6.37749
5.92726
2.78737
1.11466
1.00122
1.00001
0.736499
1.26576
1.63605
2.17094
2.72757
3.1671
3.59852
3.96619
4.31238
4.66343
4.91432
5.18587
5.42393
5.6984
5.98324
5.9594
4.85286
1.87167
1.02786
1.00018
0.873549
1.11928
1.24028
1.56567
1.99827
2.4417
2.89314
3.28522
3.66793
4.00719
4.35191
4.64838
4.95798
5.25254
5.50377
5.72869
5.52509
3.45992
1.2812
1.0045
1.01237
0.999836
1.03821
1.31634
1.59532
1.94944
2.33858
2.73418
3.12138
3.45296
3.83179
4.12607
4.50334
4.8066
5.04177
5.29331
5.42703
4.7633
2.13233
1.05222
1.0376
0.988666
0.994926
1.10375
1.3006
1.61651
1.94273
2.29374
2.6306
2.99507
3.33204
3.66702
4.04904
4.40655
4.6273
4.89911
5.21366
5.08675
3.35358
1.32622
1.06426
1.01789
1.02257
1.05581
1.10732
1.32068
1.6093
1.93793
2.26629
2.62029
2.952
3.32712
3.63788
4.03934
4.27753
4.52558
4.85496
5.02723
4.3513
2.09242
1.118
1.08348
1.06844
1.04172
1.05439
1.20672
1.401
1.66839
1.97942
2.31052
2.64797
3.01612
3.32625
3.65508
3.93719
4.15789
4.47567
4.8498
4.53896
3.39301
1.13763
1.11009
1.08093
1.03006
1.01653
1.1079
1.25491
1.46861
1.74278
2.03524
2.36933
2.67721
3.04168
3.309
3.61459
3.88947
4.18723
4.52656
4.63845
5.07577
1.13462
1.10993
1.07774
1.03201
1.02237
1.05102
1.11158
1.28571
1.52217
1.79314
2.10502
2.4113
2.75716
3.06969
3.34404
3.63899
3.92086
4.22662
4.89436
6.91051
1.12261
1.10289
1.08047
1.05941
1.05368
1.05797
1.0705
1.19245
1.37911
1.63152
1.91679
2.23168
2.50454
2.83593
3.10286
3.38073
3.61269
3.9845
5.18003
9.03973
1.10041
1.09373
1.09707
1.09257
1.0748
1.05373
1.04818
1.14431
1.27754
1.49923
1.75439
2.05801
2.30391
2.58736
2.8476
3.13983
3.38533
3.76826
5.6722
11.2554
1.08106
1.08424
1.1018
1.10219
1.07561
1.04317
1.02852
1.08438
1.17664
1.36089
1.59057
1.86071
2.12275
2.37403
2.65503
2.90251
3.21334
3.71264
6.39398
12.3006
1.06803
1.07873
1.09393
1.10038
1.07569
1.0458
1.03534
1.06535
1.10928
1.24019
1.45053
1.68807
1.9658
2.20142
2.50375
2.72125
3.02585
3.86159
7.02709
12.4881
1.06952
1.07891
1.08588
1.0937
1.08067
1.06045
1.05668
1.06942
1.09271
1.19343
1.3627
1.57326
1.82699
2.04789
2.31786
2.56624
2.86354
4.24367
7.47696
11.961
0.914118
1.04684
1.07409
1.08694
1.09035
1.0819
1.07139
1.05934
1.06566
1.15107
1.2747
1.46653
1.69136
1.92411
2.10152
2.39254
2.85761
4.83804
7.50952
11.0933
0.749588
0.939013
1.04
1.07881
1.09737
1.09001
1.0714
1.04817
1.04419
1.10955
1.19622
1.35514
1.52842
1.78366
1.98291
2.2396
3.01656
5.51798
7.45284
10.084
0.636706
0.816636
0.963606
1.04848
1.09022
1.08945
1.06902
1.04637
1.0475
1.08986
1.14182
1.27636
1.44167
1.62901
1.86338
2.17153
3.45122
6.06656
7.20396
9.03037
0.571252
0.699165
0.856576
0.980574
1.05731
1.07997
1.06776
1.05482
1.05823
1.07348
1.10011
1.20041
1.35277
1.51211
1.72974
2.2714
4.12722
6.38948
6.93355
7.92784
0.554761
0.617417
0.738934
0.880355
0.991493
1.05412
1.07023
1.06838
1.06492
1.05452
1.05928
1.1325
1.25207
1.41881
1.66812
2.62247
4.69953
6.29921
6.58603
6.95316
0.578571
0.57163
0.645933
0.776924
0.90016
1.00685
1.06247
1.06963
1.06093
1.04655
1.04488
1.09301
1.15454
1.3084
1.77941
3.18381
4.93039
6.08818
6.11525
6.08257
0.630273
0.578447
0.596982
0.686797
0.80584
0.93454
1.02824
1.05901
1.05347
1.03687
1.03028
1.04779
1.08965
1.34991
2.22797
3.81219
4.81804
5.63169
5.53846
5.38988
0.692445
0.622325
0.598386
0.630918
0.722107
0.844395
0.959486
1.0259
1.04089
1.02933
1.02323
1.03398
1.11266
1.65083
2.87491
4.08289
4.59531
5.0239
4.95244
4.80112
0.791651
0.707196
0.618738
0.622693
0.649178
0.749332
0.863875
0.965091
1.01773
1.02026
1.02256
1.06073
1.36467
2.3472
3.38239
3.96802
4.2017
4.45668
4.46888
4.36913
0.934746
0.86844
0.763711
0.663562
0.640258
0.665801
0.73395
0.84124
0.948559
1.05253
1.24923
1.65879
2.28002
2.85825
3.2157
3.50801
3.53427
3.66828
3.74446
3.71737
)
;

boundaryField
{
    inlet
    {
        type            fixedValue;
        value           uniform 1;
    }
    outlet
    {
        type            zeroGradient;
    }
    airfoil
    {
        type            zeroGradient;
    }
    top
    {
        type            symmetryPlane;
    }
    bottom
    {
        type            symmetryPlane;
    }
    defaultFaces
    {
        type            empty;
    }
}


// ************************************************************************* //
