/*--------------------------------*- C++ -*----------------------------------*\
  =========                 |
  \\      /  F ield         | OpenFOAM: The Open Source CFD Toolbox
   \\    /   O peration     | Website:  https://openfoam.org
    \\  /    A nd           | Version:  7
     \\/     M anipulation  |
\*---------------------------------------------------------------------------*/
FoamFile
{
    version     2.0;
    format      ascii;
    class       volScalarField;
    location    "1.7";
    object      p;
}
// * * * * * * * * * * * * * * * * * * * * * * * * * * * * * * * * * * * * * //

dimensions      [1 -1 -2 0 0 0 0];

internalField   nonuniform List<scalar> 
1750
(
0.200778
0.353407
0.569994
0.803688
1.02841
1.11173
1.13335
1.13819
1.12629
1.04399
0.0532407
0.0708518
0.213942
0.48767
0.600471
0.775774
1.02314
1.13746
1.1377
1.03337
0.0568468
0.0672025
0.0716673
0.102974
0.116575
0.195695
0.540061
0.99525
1.06691
1.00073
0.0943101
0.111305
0.124099
0.127048
0.131778
0.153734
0.203585
0.445298
0.733508
0.864023
0.146455
0.162884
0.171306
0.179617
0.200625
0.241011
0.305274
0.375611
0.433635
0.556049
0.239199
0.233095
0.239004
0.255678
0.277607
0.309417
0.383453
0.446418
0.461272
0.4894
0.389182
0.381593
0.387996
0.389881
0.392994
0.422222
0.494781
0.540227
0.547734
0.544483
0.684025
0.661031
0.65309
0.649716
0.664421
0.707647
0.742848
0.74825
0.739267
0.710598
1.20426
1.16643
1.12232
1.07638
1.05862
1.04996
1.02806
0.976527
0.888867
0.845833
1.49143
1.42899
1.36851
1.30427
1.23999
1.1799
1.12386
1.05487
0.975585
0.955574
1.45079
1.40656
1.35003
1.28272
1.2132
1.14728
1.08338
1.02589
0.997563
0.994795
1.17855
1.16485
1.14071
1.10893
1.07505
1.04334
1.01721
1.00302
0.999884
0.99979
1.01363
1.01288
1.01111
1.00842
1.0053
1.00246
1.00066
1.00006
0.999996
0.999996
1.00018
1.00018
1.00016
1.00013
1.00008
1.00003
1.00001
1
1
1
1
1
1
1
1
1
1
1
1
1
0.105162
0.0629451
0.0511659
0.0875572
0.142594
0.25103
0.416584
0.734438
1.26759
1.55255
1.48642
1.18385
1.01353
1.00017
1
0.113401
0.0681773
0.0569877
0.106526
0.182369
0.31319
0.50461
0.8815
1.43895
1.61607
1.50272
1.15059
1.00802
1.00009
1
0.124703
0.0788597
0.0700402
0.133296
0.220439
0.354926
0.574845
1.03127
1.57784
1.67075
1.5084
1.12014
1.00491
1.00005
1
0.13359
0.0857848
0.0780082
0.150636
0.248961
0.409187
0.700023
1.24176
1.72001
1.74187
1.46993
1.08322
1.00258
1.00002
1
0.137509
0.0865216
0.0757977
0.153893
0.290835
0.514445
0.878848
1.46394
1.84306
1.80407
1.40989
1.05036
1.00117
1.00001
1
0.119848
0.0771461
0.0708712
0.161613
0.379729
0.662917
1.08943
1.69542
1.93676
1.82096
1.31361
1.02518
1.00045
1
1
0.0900617
0.0689445
0.0923293
0.260528
0.499869
0.810312
1.33616
1.9151
1.99549
1.74412
1.19266
1.0103
1.00015
1
1
0.0593824
0.0700497
0.166977
0.361218
0.606385
1.00807
1.66627
2.09178
2.03615
1.60691
1.10148
1.00349
1.00004
1
1
0.039972
0.104812
0.230295
0.433019
0.788456
1.36614
1.98727
2.19323
2.06528
1.42695
1.04134
1.00097
1.00001
1
1
0.0345388
0.139221
0.29345
0.573385
1.14675
1.76719
2.21254
2.22981
1.90796
1.23821
1.01394
1.00024
1
1
1
0.0311015
0.169864
0.435326
0.95875
1.56104
2.12581
2.34821
2.24729
1.66242
1.10109
1.00356
1.00005
1
1
1
0.0238745
0.281105
0.78381
1.3908
1.97564
2.3967
2.42266
2.10805
1.36477
1.03043
1.00073
1.00001
1
1
1
0.0631228
0.585639
1.28244
1.85751
2.37415
2.51037
2.44843
1.81953
1.13714
1.00581
1.0001
1
1
1
1
0.359519
1.16646
1.86388
2.33089
2.61722
2.55469
2.17298
1.35848
1.02943
1.00075
1.00001
1
1
1
1
1.25471
2.02804
2.42022
2.61748
2.70911
2.51589
1.72742
1.09809
1.00307
1.00004
1
1
1
1
1
2.75358
2.69678
2.67223
2.72376
2.74668
2.24119
1.1991
0.992544
0.99929
0.999993
1
1
1
1
1
2.78345
2.75177
2.7126
2.75288
2.77074
2.0677
1.17231
1.00417
1.00003
1
1
1
1
1
1
2.73973
2.79472
2.86199
2.82045
2.69
1.63688
1.02946
1.00011
1
1
1
1
1
1
1
2.71806
2.8465
2.99918
2.87954
2.41546
1.28343
1.00527
1.00002
1
1
1
1
1
1
1
2.72542
2.90431
3.09911
2.89729
1.94366
1.07423
1.00049
1
1
1
1
1
1
1
1
2.79256
2.98031
3.14084
2.66125
1.42956
1.01178
1.00003
1
1
1
1
1
1
1
1
2.9232
3.00578
3.13814
2.14442
1.11344
1.00085
1
1
1
1
1
1
1
1
1
3.25798
3.01833
2.7644
1.48832
1.01474
1.00004
1
1
1
1
1
1
1
1
1
3.60908
2.85973
2.14614
1.13244
1.00115
1
1
1
1
1
1
1
1
1
1
3.77915
2.61164
1.49722
1.01567
1.00005
1
1
1
1
1
1
1
1
1
1
3.68573
2.11438
1.16024
1.00195
1
1
1
1
1
1
1
1
1
1
1
3.20229
1.64756
1.03867
1.0002
1
1
1
1
1
1
1
1
1
1
1
2.65266
1.29634
1.00718
1.00002
1
1
1
1
1
1
1
1
1
1
1
1.98418
1.0987
1.00095
1
1
1
1
1
1
1
1
1
1
1
1
1.39071
1.01672
1.00006
1
1
1
1
1
1
1
1
1
1
1
1
1
1
1
1
1
1
1
1
1
1
1
1
1
1
1
1
1
1
1
1
1
1
1
1
1
1
1
1
1
1
1
1
1
1
1
1
1
1
1
1
1
1
1
1
1
1
1
1
1
1
1
1
1
1
1
1
1
1
1
1
1
1
1
1
1
1
1
1
1
1
1
1
1
1
1
1
1
1
1
1
1
1
1
1
1
1
1
1
1
1
1
1
1
1
1
1
1
1
1
1
1
1
1
1
1
1
1
1
1
1
1
1
1
1
1
1
1
1
1
1
1
1
1
1
1
1
1
1
1
1
1
1
1
1
1
1
1
1
1
1
1
1
1
1
1
1
1
1
1
1
1
1
1
1
1
1
1
1
1
1
1
1
1
1
1
1
1
1
1
1
1
1
1
1
1
1
1
1
1
1
1
1
1
1
1
1
1
1
1
1
1
1
1
1
1
1
1
1
1
1
1
1
1
1
1
1
1
1
1
1
1
1
1
1
1
1
1
1
1
1
1
1
1
1
1
1
1
1
1
1
1
1
1
1
1
1
1
1
1
1
1
1
1
1
1
1
1
1
1
1
1
1
1
1
1
1
1
1
1
1
1
1
1
1
1
1
1
1
1
1
1
1
1
1
1
1
1
1
1
1
1
1
1
1
1
1
1
1
1
1
1
1
1
1
1
1
1
1
1
1
1
1
1
1
1
1
1
1
1
1
1
1
1
1
1
1
1
1
1
1
1
1
1
1
1
1
1
1
1
1
1
1
1
1
1
1
1
1
1
1
1
1
1
1
1
1
1
1
1
1
1.78947
1.0138
1
1
1
1
1
1
1
1
1
1
1
1
1
1
1
1
1
1
3.04876
1.2306
0.999365
1
1
1
1
1
1
1
1
1
1
1
1
1
1
1
1
1
4.69487
1.88435
1.01395
0.999958
1
1
1
1
1
1
1
1
1
1
1
1
1
1
1
1
5.56763
3.27334
1.45459
1.00078
1
1
1
1
1
1
1
1
1
1
1
1
1
1
1
1
5.27505
4.19283
3.04335
1.23454
0.999704
0.999999
1
1
1
1
1
1
1
1
1
1
1
1
1
1
4.54087
4.31897
4.22822
2.52665
1.11148
0.999773
0.999998
1
1
1
1
1
1
1
1
1
1
1
1
1
3.97027
4.16458
4.41187
4.03137
1.98377
1.02449
0.999936
0.999998
1
1
1
1
1
1
1
1
1
1
1
1
3.87529
4.01625
4.27458
4.14464
3.19629
1.40306
1.0016
1
1
1
1
1
1
1
1
1
1
1
1
1
3.91147
3.94847
4.02992
4.05737
4.04572
2.53273
1.09977
0.999893
0.999996
1
1
1
1
1
1
1
1
1
1
1
3.93259
3.90677
3.9033
3.98395
4.02684
3.36129
1.6645
1.01048
1.00001
1
1
1
1
1
1
1
1
1
1
1
3.898
3.86731
3.84138
3.89005
3.94338
3.74769
2.53044
1.11764
0.999995
0.999998
1
1
1
1
1
1
1
1
1
1
3.83503
3.80463
3.79876
3.79692
3.79969
3.67869
3.14379
1.5495
1.00708
1.00001
1
1
1
1
1
1
1
1
1
1
3.76025
3.73288
3.7426
3.74023
3.70902
3.64807
3.46511
2.15526
1.05749
0.999973
0.999998
1
1
1
1
1
1
1
1
1
3.73623
3.70751
3.70329
3.68913
3.64846
3.60335
3.5494
2.82772
1.38875
1.00642
1.00001
1
1
1
1
1
1
1
1
1
3.71867
3.68831
3.67539
3.65088
3.61906
3.62189
3.54058
2.96331
1.43919
0.973041
0.998612
0.999994
1
1
1
1
1
1
1
1
1.3874
2.46279
3.07637
3.36613
3.48872
3.57525
3.59217
3.40877
2.55277
1.34018
1.02015
1.00043
1.00001
1
1
1
1
1
1
1
0.272491
1.22727
2.05204
2.62515
3.0228
3.31723
3.52968
3.48833
3.21584
2.20071
1.21925
1.01101
1.0002
1
1
1
1
1
1
1
0.0437533
0.488605
1.21068
1.82079
2.3146
2.77717
3.21075
3.41734
3.34891
2.9366
1.81138
1.09885
1.0032
1.00004
1
1
1
1
1
1
0.0636188
0.245577
0.584534
1.11809
1.65628
2.17681
2.70163
3.11249
3.2766
3.20837
2.5213
1.43788
1.03233
1.00069
1.00001
1
1
1
1
1
0.132505
0.230172
0.339569
0.608765
1.04865
1.57608
2.15135
2.65029
3.05029
3.15271
3.01546
2.03567
1.16702
1.00613
1.00008
1
1
1
1
1
0.196294
0.212425
0.275235
0.457458
0.69086
1.06592
1.57131
2.1049
2.64363
3.01031
2.99939
2.5498
1.48665
1.03891
1.00079
1.00001
1
1
1
1
0.220166
0.175987
0.207168
0.372301
0.552185
0.823344
1.19012
1.60604
2.1162
2.6815
2.89068
2.78456
2.00518
1.15874
1.00532
1.00006
1
1
1
1
0.225223
0.151069
0.137435
0.252653
0.411827
0.660298
0.970834
1.30259
1.70992
2.24369
2.69615
2.71408
2.31655
1.39945
1.02691
1.00043
1
1
1
1
0.233333
0.149
0.124702
0.184702
0.29195
0.474685
0.745373
1.05567
1.42487
1.88262
2.42471
2.57331
2.42536
1.69193
1.08493
1.00209
1.00002
1
1
1
0.234665
0.163101
0.141658
0.187288
0.261905
0.374818
0.548707
0.809922
1.13115
1.54744
2.09865
2.41426
2.36796
1.90425
1.19968
1.00809
1.00008
1
1
1
0.232359
0.184545
0.17713
0.191403
0.234996
0.341341
0.488259
0.68111
0.92979
1.24933
1.71839
2.22659
2.30517
2.05266
1.3419
1.02229
1.00029
1
1
1
0.222882
0.194355
0.192043
0.180897
0.193361
0.301564
0.437404
0.608038
0.824788
1.08104
1.45774
1.99171
2.21706
2.08794
1.4894
1.04917
1.00085
1.00001
1
1
0.19909
0.191268
0.188116
0.166381
0.16369
0.240788
0.357314
0.506665
0.708503
0.938384
1.27341
1.7897
2.09343
2.04776
1.59337
1.0867
1.00208
1.00001
1
1
0.173897
0.187049
0.187221
0.16637
0.163355
0.214738
0.280668
0.412117
0.575754
0.788082
1.09532
1.5922
1.9588
1.95635
1.62837
1.12552
1.0041
1.00003
1
1
0.16413
0.177255
0.187567
0.17132
0.166405
0.203423
0.25153
0.361903
0.495114
0.67029
0.915624
1.34951
1.79242
1.85928
1.63863
1.17022
1.00807
1.00007
1
1
0.298347
0.191182
0.186129
0.169089
0.170793
0.211458
0.2669
0.367174
0.496216
0.654595
0.876928
1.26695
1.70912
1.77857
1.60378
1.16585
1.00776
1.00007
1
1
0.422403
0.248405
0.179775
0.160188
0.172736
0.224736
0.273109
0.370059
0.498022
0.637922
0.853892
1.2345
1.65113
1.70996
1.54756
1.15068
1.0069
1.00006
1
1
0.514301
0.31307
0.173076
0.156464
0.175508
0.239849
0.281166
0.375517
0.493613
0.617955
0.822446
1.18074
1.5754
1.63094
1.47468
1.12359
1.0053
1.00004
1
1
0.736289
0.455086
0.188233
0.160939
0.18151
0.24706
0.301362
0.374018
0.474457
0.601559
0.791294
1.14094
1.49554
1.53994
1.38623
1.08796
1.00326
1.00003
1
1
1.10794
0.815578
0.353346
0.178423
0.195515
0.244773
0.323434
0.36966
0.449933
0.595578
0.781063
1.13658
1.43057
1.44754
1.28376
1.05028
1.00143
1.00001
1
1
1.20608
1.10028
0.789203
0.27856
0.235778
0.254134
0.353042
0.382904
0.448077
0.630282
0.82977
1.17361
1.37054
1.35201
1.17314
1.01988
1.00037
1
1
1
1.17739
1.16506
1.03835
0.554245
0.291193
0.293919
0.399031
0.427611
0.48569
0.694327
0.907097
1.19009
1.29358
1.23509
1.07173
1.00404
1.00004
1
1
1
1.15033
1.16545
1.10867
0.868563
0.437883
0.360605
0.451442
0.490554
0.556399
0.745398
0.939272
1.17286
1.1782
1.09677
1.01323
1.00028
1
1
1
1
1.11864
1.13079
1.11039
1.03641
0.683702
0.424256
0.476737
0.520249
0.600975
0.756236
0.931724
1.06731
1.04635
1.01269
1.00062
1
0.999999
1
1
1
1.03928
1.04846
1.05807
1.01208
0.849262
0.555305
0.512926
0.531846
0.607318
0.74785
0.867192
0.950068
0.989726
0.999208
0.999969
0.999997
0.999999
1
1
1
)
;

boundaryField
{
    inlet
    {
        type            fixedValue;
        value           uniform 1;
    }
    outlet
    {
        type            zeroGradient;
    }
    airfoil
    {
        type            zeroGradient;
    }
    top
    {
        type            symmetryPlane;
    }
    bottom
    {
        type            symmetryPlane;
    }
    defaultFaces
    {
        type            empty;
    }
}


// ************************************************************************* //
