/*--------------------------------*- C++ -*----------------------------------*\
  =========                 |
  \\      /  F ield         | OpenFOAM: The Open Source CFD Toolbox
   \\    /   O peration     | Website:  https://openfoam.org
    \\  /    A nd           | Version:  7
     \\/     M anipulation  |
\*---------------------------------------------------------------------------*/
FoamFile
{
    version     2.0;
    format      ascii;
    class       volVectorField;
    location    "7.5";
    object      U;
}
// * * * * * * * * * * * * * * * * * * * * * * * * * * * * * * * * * * * * * //

dimensions      [0 1 -1 0 0 0 0];

internalField   nonuniform List<vector> 
90000
(
(4.01922 -0.114045 0)
(4.02036 -0.106506 0)
(4.01849 -0.0971634 0)
(4.02065 -0.0944238 0)
(4.02042 -0.08925 0)
(4.01777 -0.0820756 0)
(4.01706 -0.0803583 0)
(4.01578 -0.0771102 0)
(4.01439 -0.0740021 0)
(4.01267 -0.0708451 0)
(4.01096 -0.0688744 0)
(4.00916 -0.0666874 0)
(4.00762 -0.0644923 0)
(4.00604 -0.0626022 0)
(4.00447 -0.0607889 0)
(4.00303 -0.0592455 0)
(4.0017 -0.0570075 0)
(4.00056 -0.0556657 0)
(3.99942 -0.0533398 0)
(3.99859 -0.0519926 0)
(3.99759 -0.0484723 0)
(3.99702 -0.0467906 0)
(3.99621 -0.042599 0)
(3.99581 -0.0408651 0)
(3.99499 -0.036058 0)
(3.99463 -0.0334867 0)
(3.99376 -0.0281603 0)
(3.99319 -0.024133 0)
(3.99254 -0.0205015 0)
(3.99139 -0.0143925 0)
(3.99068 -0.011381 0)
(3.9897 -0.00735155 0)
(3.98807 -0.00171534 0)
(3.98762 0.000258259 0)
(3.98643 0.0033545 0)
(3.98446 0.00834228 0)
(3.98468 0.00939803 0)
(3.98437 0.0108156 0)
(3.98277 0.0115183 0)
(3.98236 0.0101639 0)
(3.98185 0.00689009 0)
(3.98226 -0.0012851 0)
(3.98247 -0.00759449 0)
(3.98256 -0.0162423 0)
(3.98289 -0.0190852 0)
(3.98022 -0.0229647 0)
(3.97902 -0.0230692 0)
(3.97684 -0.0215638 0)
(3.9745 -0.0187457 0)
(3.97211 -0.0154824 0)
(3.96985 -0.0117277 0)
(3.96875 -0.0081373 0)
(3.96738 -0.00517719 0)
(3.96813 -0.00182294 0)
(3.96839 -0.00132046 0)
(3.9693 -0.00261872 0)
(3.97004 -0.00491671 0)
(3.97143 -0.00948295 0)
(3.97134 -0.00941695 0)
(3.97291 -0.0118384 0)
(3.9729 -0.0119945 0)
(3.97239 -0.0114296 0)
(3.97132 -0.00956139 0)
(3.97039 -0.00675295 0)
(3.96859 -0.00391646 0)
(3.96952 -0.000802528 0)
(3.9697 -0.00110754 0)
(3.97034 -0.00477478 0)
(3.97023 -0.00625101 0)
(3.97251 -0.00915506 0)
(3.97259 -0.00935111 0)
(3.97224 -0.00797502 0)
(3.97213 -0.00686212 0)
(3.97195 -0.00377079 0)
(3.97223 -0.00409879 0)
(3.9723 -0.00497488 0)
(3.97341 -0.00775871 0)
(3.97362 -0.00805137 0)
(3.97352 -0.00747708 0)
(3.97317 -0.00636108 0)
(3.97321 -0.00460683 0)
(3.97321 -0.00504791 0)
(3.97353 -0.00573595 0)
(3.97402 -0.00615736 0)
(3.97408 -0.00641726 0)
(3.97413 -0.00633326 0)
(3.97408 -0.00644101 0)
(3.97414 -0.0064414 0)
(3.97443 -0.00605221 0)
(3.97439 -0.00604599 0)
(3.97435 -0.00576783 0)
(3.97439 -0.00476149 0)
(3.9745 -0.00504841 0)
(3.97476 -0.00570241 0)
(3.97493 -0.00621913 0)
(3.97509 -0.00663559 0)
(3.97515 -0.00664691 0)
(3.97513 -0.00636703 0)
(3.97519 -0.00633823 0)
(3.97528 -0.00661889 0)
(4.0174 -0.121002 0)
(4.01734 -0.120894 0)
(4.01723 -0.12072 0)
(4.01706 -0.12035 0)
(4.01687 -0.119145 0)
(4.01674 -0.118033 0)
(4.0164 -0.116954 0)
(4.0159 -0.115636 0)
(4.01553 -0.113638 0)
(4.01539 -0.112004 0)
(4.01488 -0.109833 0)
(4.01434 -0.108102 0)
(4.0138 -0.105577 0)
(4.01341 -0.103413 0)
(4.01284 -0.100776 0)
(4.01214 -0.0987936 0)
(4.01133 -0.0963811 0)
(4.01046 -0.0944633 0)
(4.00942 -0.0918054 0)
(4.00842 -0.0902613 0)
(4.00715 -0.0873007 0)
(4.00601 -0.0858369 0)
(4.00446 -0.0825306 0)
(4.00298 -0.0805073 0)
(4.00118 -0.0773098 0)
(3.99902 -0.0730547 0)
(3.99718 -0.0697941 0)
(3.99457 -0.0633671 0)
(3.99288 -0.0592941 0)
(3.99055 -0.05237 0)
(3.98882 -0.0453904 0)
(3.98711 -0.0379902 0)
(3.98669 -0.0340614 0)
(3.9844 -0.0225245 0)
(3.98416 -0.0189067 0)
(3.98405 -0.0150471 0)
(3.98246 -0.0055895 0)
(3.98267 -0.00457319 0)
(3.98248 -0.000258734 0)
(3.98132 0.00338101 0)
(3.98207 0.0064031 0)
(3.98171 0.00945665 0)
(3.98136 0.00950368 0)
(3.98166 0.00790338 0)
(3.98293 0.00383968 0)
(3.98359 0.00123542 0)
(3.98524 -0.00549172 0)
(3.98439 -0.00711798 0)
(3.98655 -0.0115013 0)
(3.98379 -0.0113978 0)
(3.98317 -0.0104514 0)
(3.98236 -0.00957008 0)
(3.9813 -0.00707219 0)
(3.98039 -0.00528756 0)
(3.9795 -0.00266456 0)
(3.97915 -0.000918543 0)
(3.97877 -0.000200051 0)
(3.97876 -0.00104201 0)
(3.97906 -0.00404043 0)
(3.97967 -0.00725701 0)
(3.98023 -0.0102161 0)
(3.98018 -0.0128185 0)
(3.97979 -0.0123101 0)
(3.9789 -0.0102049 0)
(3.97797 -0.00699509 0)
(3.97709 -0.00360445 0)
(3.97635 -0.000637623 0)
(3.97644 -0.00147077 0)
(3.97636 -0.00421637 0)
(3.97678 -0.00675408 0)
(3.97714 -0.00917328 0)
(3.97688 -0.00859317 0)
(3.97661 -0.00674818 0)
(3.97615 -0.00501168 0)
(3.97582 -0.00371214 0)
(3.97576 -0.00469946 0)
(3.97592 -0.00610905 0)
(3.97617 -0.00760305 0)
(3.97614 -0.00735405 0)
(3.97585 -0.00603106 0)
(3.97589 -0.00445757 0)
(3.97536 -0.00542983 0)
(3.9754 -0.00595382 0)
(3.97559 -0.0073639 0)
(3.97579 -0.00765279 0)
(3.97582 -0.00726392 0)
(3.97568 -0.00628003 0)
(3.97561 -0.00637342 0)
(3.97564 -0.00684606 0)
(3.97573 -0.00689016 0)
(3.97559 -0.00559023 0)
(3.97559 -0.00524609 0)
(3.97551 -0.00575596 0)
(3.97565 -0.00648548 0)
(3.97573 -0.00698843 0)
(3.97594 -0.00659542 0)
(3.97593 -0.00644266 0)
(3.97589 -0.00632199 0)
(3.97589 -0.0064513 0)
(3.97594 -0.00678293 0)
(4.01447 -0.120922 0)
(4.01446 -0.120951 0)
(4.01446 -0.121004 0)
(4.01443 -0.121052 0)
(4.01438 -0.121021 0)
(4.01433 -0.120989 0)
(4.01424 -0.120907 0)
(4.01412 -0.120764 0)
(4.01399 -0.120517 0)
(4.01387 -0.120222 0)
(4.01373 -0.119866 0)
(4.01351 -0.119322 0)
(4.01321 -0.118831 0)
(4.01285 -0.117966 0)
(4.01252 -0.117172 0)
(4.01211 -0.115997 0)
(4.01169 -0.11472 0)
(4.01123 -0.11318 0)
(4.01074 -0.111391 0)
(4.0102 -0.109431 0)
(4.00969 -0.107374 0)
(4.00909 -0.104663 0)
(4.00855 -0.102406 0)
(4.00776 -0.0992692 0)
(4.00699 -0.0965131 0)
(4.00601 -0.0932161 0)
(4.00485 -0.0892813 0)
(4.00366 -0.085722 0)
(4.00242 -0.0820739 0)
(4.00045 -0.0757731 0)
(3.99943 -0.0732383 0)
(3.9968 -0.0644192 0)
(3.99545 -0.0609149 0)
(3.99305 -0.0536305 0)
(3.99067 -0.0448396 0)
(3.98964 -0.0414738 0)
(3.986 -0.0275228 0)
(3.98596 -0.0276255 0)
(3.98254 -0.0138608 0)
(3.98215 -0.012784 0)
(3.9805 -0.00411881 0)
(3.98092 -0.0044068 0)
(3.97945 2.02752e-05 0)
(3.97973 0.0018547 0)
(3.97891 0.00410421 0)
(3.97918 0.00453572 0)
(3.97996 0.00289422 0)
(3.98073 0.00151754 0)
(3.9823 -0.00105275 0)
(3.9839 -0.00421922 0)
(3.9855 -0.00734015 0)
(3.98602 -0.0097082 0)
(3.98685 -0.0122918 0)
(3.98645 -0.0107396 0)
(3.98571 -0.00988482 0)
(3.9846 -0.00848339 0)
(3.98372 -0.00729629 0)
(3.98294 -0.00459994 0)
(3.98271 -0.00239707 0)
(3.98259 -0.00249127 0)
(3.98258 -0.00364883 0)
(3.98292 -0.00584937 0)
(3.98338 -0.00763393 0)
(3.98393 -0.00969662 0)
(3.98384 -0.00948626 0)
(3.98302 -0.00855188 0)
(3.98195 -0.0066729 0)
(3.98151 -0.00384737 0)
(3.98077 -0.000969903 0)
(3.98043 -0.00142028 0)
(3.98074 -0.00460743 0)
(3.98054 -0.00642039 0)
(3.98097 -0.00956636 0)
(3.98057 -0.00906152 0)
(3.97992 -0.00751581 0)
(3.97918 -0.00406461 0)
(3.97902 -0.00408598 0)
(3.9791 -0.00560831 0)
(3.97918 -0.00798982 0)
(3.97902 -0.00798105 0)
(3.97869 -0.00714243 0)
(3.9781 -0.00493369 0)
(3.978 -0.00515819 0)
(3.97795 -0.00552789 0)
(3.97811 -0.00656301 0)
(3.97806 -0.00638843 0)
(3.9779 -0.00621125 0)
(3.97766 -0.00629009 0)
(3.97761 -0.0063223 0)
(3.97755 -0.00619861 0)
(3.97743 -0.00613948 0)
(3.97724 -0.00523112 0)
(3.97712 -0.00508964 0)
(3.97712 -0.00513226 0)
(3.97707 -0.00535274 0)
(3.97725 -0.00610579 0)
(3.97716 -0.00647056 0)
(3.97709 -0.00647897 0)
(3.977 -0.00635562 0)
(3.97701 -0.0064843 0)
(4.0104 -0.121316 0)
(4.0104 -0.121297 0)
(4.01039 -0.121316 0)
(4.01037 -0.121313 0)
(4.01038 -0.121306 0)
(4.01036 -0.121342 0)
(4.01036 -0.121393 0)
(4.01038 -0.121428 0)
(4.01039 -0.121416 0)
(4.01039 -0.121423 0)
(4.01039 -0.121364 0)
(4.01036 -0.12128 0)
(4.01031 -0.121225 0)
(4.01024 -0.121169 0)
(4.01018 -0.121116 0)
(4.01012 -0.121015 0)
(4.01007 -0.120891 0)
(4.00999 -0.120658 0)
(4.00992 -0.12044 0)
(4.00981 -0.120072 0)
(4.00964 -0.119714 0)
(4.00936 -0.119148 0)
(4.00908 -0.118539 0)
(4.00875 -0.117659 0)
(4.00843 -0.116718 0)
(4.00798 -0.115211 0)
(4.00761 -0.113886 0)
(4.00707 -0.11174 0)
(4.00663 -0.110064 0)
(4.00591 -0.107308 0)
(4.0052 -0.10446 0)
(4.00436 -0.101256 0)
(4.0034 -0.0974469 0)
(4.00213 -0.0927962 0)
(4.00088 -0.0881771 0)
(3.99918 -0.0817014 0)
(3.9973 -0.0750815 0)
(3.99576 -0.0690542 0)
(3.9927 -0.0568504 0)
(3.99212 -0.0550127 0)
(3.98801 -0.0388048 0)
(3.98675 -0.0364247 0)
(3.9836 -0.0239281 0)
(3.98269 -0.0200951 0)
(3.98125 -0.014461 0)
(3.98117 -0.011799 0)
(3.98058 -0.0080009 0)
(3.98058 -0.0052119 0)
(3.9799 -0.00383591 0)
(3.98006 -0.00225047 0)
(3.98062 -0.00171719 0)
(3.98136 -0.00147364 0)
(3.9822 -0.00275324 0)
(3.98253 -0.00302922 0)
(3.9829 -0.0054644 0)
(3.98266 -0.00739909 0)
(3.98262 -0.00863016 0)
(3.98244 -0.00963903 0)
(3.98232 -0.00882247 0)
(3.98165 -0.00665849 0)
(3.9814 -0.00553723 0)
(3.98131 -0.00443287 0)
(3.98153 -0.00424986 0)
(3.98238 -0.00580427 0)
(3.9827 -0.00768959 0)
(3.9834 -0.00990638 0)
(3.98334 -0.0102421 0)
(3.98268 -0.00909204 0)
(3.98175 -0.0069661 0)
(3.98106 -0.00355065 0)
(3.98087 -0.00215596 0)
(3.98102 -0.00304526 0)
(3.98138 -0.00493174 0)
(3.98215 -0.0075662 0)
(3.98171 -0.00792166 0)
(3.98123 -0.00727143 0)
(3.98068 -0.00548482 0)
(3.9804 -0.00398598 0)
(3.98044 -0.00509596 0)
(3.98071 -0.00713442 0)
(3.9804 -0.00741029 0)
(3.98006 -0.00682739 0)
(3.97967 -0.00507843 0)
(3.97962 -0.00547265 0)
(3.97967 -0.00619955 0)
(3.97968 -0.007333 0)
(3.97952 -0.00701001 0)
(3.97937 -0.00654363 0)
(3.97927 -0.0065237 0)
(3.97913 -0.00668145 0)
(3.97902 -0.00645796 0)
(3.9788 -0.00590394 0)
(3.9786 -0.00535345 0)
(3.97856 -0.00564138 0)
(3.97852 -0.00633956 0)
(3.97858 -0.00661843 0)
(3.97849 -0.00664399 0)
(3.97842 -0.00655055 0)
(3.97832 -0.00654181 0)
(3.97831 -0.00677877 0)
(4.00731 -0.120909 0)
(4.00731 -0.120924 0)
(4.00731 -0.120927 0)
(4.00731 -0.12092 0)
(4.00731 -0.120931 0)
(4.00729 -0.12098 0)
(4.00728 -0.121019 0)
(4.00728 -0.121047 0)
(4.00729 -0.121069 0)
(4.00729 -0.121076 0)
(4.0073 -0.121092 0)
(4.00732 -0.121104 0)
(4.00735 -0.121126 0)
(4.00739 -0.121161 0)
(4.00745 -0.121227 0)
(4.00747 -0.121339 0)
(4.0075 -0.121373 0)
(4.00753 -0.121362 0)
(4.00756 -0.121335 0)
(4.00761 -0.121311 0)
(4.00756 -0.121269 0)
(4.00751 -0.121216 0)
(4.00747 -0.121144 0)
(4.00747 -0.121082 0)
(4.00742 -0.120907 0)
(4.00732 -0.120598 0)
(4.0073 -0.12034 0)
(4.00724 -0.119977 0)
(4.00713 -0.119576 0)
(4.00696 -0.119073 0)
(4.00671 -0.118225 0)
(4.00645 -0.11725 0)
(4.00613 -0.115946 0)
(4.00569 -0.114194 0)
(4.00514 -0.112056 0)
(4.00438 -0.109098 0)
(4.00356 -0.10568 0)
(4.00255 -0.101414 0)
(4.00109 -0.0955545 0)
(3.99989 -0.0901802 0)
(3.99734 -0.0800739 0)
(3.99589 -0.073677 0)
(3.99303 -0.0625692 0)
(3.98972 -0.0478946 0)
(3.98982 -0.0460918 0)
(3.98448 -0.023657 0)
(3.9846 -0.0235988 0)
(3.98179 -0.0130277 0)
(3.98025 -0.0060828 0)
(3.97937 -0.00370886 0)
(3.97984 -0.00241065 0)
(3.97903 0.000152804 0)
(3.97858 0.000154288 0)
(3.97842 -0.00121278 0)
(3.97918 -0.00283374 0)
(3.98004 -0.00482945 0)
(3.9805 -0.00576654 0)
(3.98086 -0.00669838 0)
(3.98112 -0.00641127 0)
(3.9812 -0.00661266 0)
(3.98118 -0.00553016 0)
(3.98093 -0.00539188 0)
(3.98056 -0.00566566 0)
(3.98032 -0.00533921 0)
(3.98053 -0.00632828 0)
(3.9808 -0.0069258 0)
(3.9814 -0.00814791 0)
(3.98179 -0.00842892 0)
(3.98173 -0.0080893 0)
(3.98131 -0.00704602 0)
(3.98104 -0.00611898 0)
(3.98045 -0.00447404 0)
(3.98049 -0.0040265 0)
(3.98086 -0.00475392 0)
(3.9812 -0.00581587 0)
(3.98142 -0.00746488 0)
(3.98115 -0.0074007 0)
(3.98068 -0.0070347 0)
(3.9805 -0.0050598 0)
(3.98057 -0.00514404 0)
(3.98069 -0.00599065 0)
(3.9807 -0.00710613 0)
(3.98049 -0.00692198 0)
(3.98027 -0.00533401 0)
(3.98023 -0.00540445 0)
(3.98027 -0.00585473 0)
(3.98033 -0.00669416 0)
(3.9803 -0.00655162 0)
(3.98022 -0.00628266 0)
(3.98017 -0.00625428 0)
(3.98006 -0.00629113 0)
(3.97995 -0.00601819 0)
(3.97981 -0.00539345 0)
(3.9796 -0.00466103 0)
(3.97961 -0.00500657 0)
(3.9797 -0.00585011 0)
(3.97973 -0.00635961 0)
(3.97972 -0.00647592 0)
(3.97969 -0.00637761 0)
(3.97968 -0.00640775 0)
(4.00654 -0.120583 0)
(4.00655 -0.120588 0)
(4.00656 -0.120604 0)
(4.00657 -0.12062 0)
(4.0066 -0.120625 0)
(4.0066 -0.120647 0)
(4.00661 -0.12068 0)
(4.00662 -0.120699 0)
(4.00664 -0.120701 0)
(4.00665 -0.120694 0)
(4.00667 -0.120699 0)
(4.00674 -0.120757 0)
(4.00677 -0.120794 0)
(4.00678 -0.120832 0)
(4.00679 -0.120837 0)
(4.00682 -0.120881 0)
(4.00684 -0.120951 0)
(4.00685 -0.120997 0)
(4.00687 -0.120953 0)
(4.00688 -0.120887 0)
(4.0069 -0.120885 0)
(4.00698 -0.120978 0)
(4.00701 -0.121118 0)
(4.00703 -0.121135 0)
(4.00708 -0.121045 0)
(4.00708 -0.120974 0)
(4.0071 -0.120867 0)
(4.0071 -0.120811 0)
(4.0071 -0.120768 0)
(4.00711 -0.120684 0)
(4.00714 -0.120571 0)
(4.00707 -0.120374 0)
(4.00706 -0.120196 0)
(4.00707 -0.119984 0)
(4.00703 -0.119533 0)
(4.00703 -0.119096 0)
(4.00694 -0.118392 0)
(4.00677 -0.117473 0)
(4.00642 -0.116044 0)
(4.00586 -0.113933 0)
(4.0052 -0.11149 0)
(4.00414 -0.107029 0)
(4.00298 -0.102449 0)
(4.00129 -0.0954922 0)
(3.99934 -0.0867722 0)
(3.99674 -0.0766494 0)
(3.99469 -0.066739 0)
(3.99125 -0.0524969 0)
(3.9886 -0.0412137 0)
(3.98829 -0.0383287 0)
(3.98422 -0.0201584 0)
(3.98262 -0.0187528 0)
(3.98271 -0.0180475 0)
(3.98126 -0.0123917 0)
(3.98072 -0.00996139 0)
(3.98182 -0.00831031 0)
(3.98152 -0.00695739 0)
(3.98035 -0.00581889 0)
(3.97936 -0.00329769 0)
(3.97947 -0.00427758 0)
(3.97971 -0.00513424 0)
(3.97986 -0.00637516 0)
(3.97975 -0.00740146 0)
(3.97958 -0.00779884 0)
(3.97966 -0.00776391 0)
(3.97992 -0.00718737 0)
(3.98038 -0.00718748 0)
(3.98046 -0.00715602 0)
(3.9811 -0.00874526 0)
(3.981 -0.00910249 0)
(3.98057 -0.00818325 0)
(3.98026 -0.00712895 0)
(3.98032 -0.00615977 0)
(3.98003 -0.00508498 0)
(3.98059 -0.00473855 0)
(3.9809 -0.00551335 0)
(3.98093 -0.00637541 0)
(3.98098 -0.00723716 0)
(3.98075 -0.00691323 0)
(3.98061 -0.00630784 0)
(3.98064 -0.0055162 0)
(3.98077 -0.00600421 0)
(3.9808 -0.00679791 0)
(3.98072 -0.00679352 0)
(3.98062 -0.00574438 0)
(3.98064 -0.00579011 0)
(3.98076 -0.00616588 0)
(3.9809 -0.00688826 0)
(3.98091 -0.00673491 0)
(3.98092 -0.00653633 0)
(3.98089 -0.0063168 0)
(3.98085 -0.00629407 0)
(3.98075 -0.00604452 0)
(3.98058 -0.00562157 0)
(3.98064 -0.00518094 0)
(3.98072 -0.0055362 0)
(3.98089 -0.00646008 0)
(3.98097 -0.00664183 0)
(3.98097 -0.00674263 0)
(3.98095 -0.00687545 0)
(4.00774 -0.120448 0)
(4.00774 -0.120448 0)
(4.00775 -0.120451 0)
(4.00776 -0.120455 0)
(4.00778 -0.120462 0)
(4.00779 -0.120463 0)
(4.00781 -0.120484 0)
(4.00784 -0.120504 0)
(4.00787 -0.120507 0)
(4.00789 -0.120496 0)
(4.00791 -0.120489 0)
(4.00797 -0.120521 0)
(4.00806 -0.12056 0)
(4.00808 -0.120602 0)
(4.0081 -0.120614 0)
(4.00814 -0.120599 0)
(4.00816 -0.120572 0)
(4.00817 -0.12049 0)
(4.00815 -0.120421 0)
(4.00823 -0.120487 0)
(4.00828 -0.120625 0)
(4.00831 -0.120634 0)
(4.00831 -0.120622 0)
(4.00831 -0.12059 0)
(4.00832 -0.1205 0)
(4.00831 -0.120383 0)
(4.00831 -0.12041 0)
(4.00832 -0.120406 0)
(4.00833 -0.12044 0)
(4.00831 -0.120442 0)
(4.00832 -0.120316 0)
(4.0083 -0.120198 0)
(4.00828 -0.120207 0)
(4.00826 -0.120199 0)
(4.00838 -0.120061 0)
(4.00845 -0.119935 0)
(4.00846 -0.11994 0)
(4.00851 -0.119832 0)
(4.00853 -0.119692 0)
(4.00859 -0.119464 0)
(4.00862 -0.119085 0)
(4.00857 -0.118522 0)
(4.00835 -0.117482 0)
(4.00802 -0.116148 0)
(4.00732 -0.113337 0)
(4.00655 -0.110323 0)
(4.00487 -0.103363 0)
(4.00352 -0.0980323 0)
(4.00028 -0.0844879 0)
(3.99872 -0.0768636 0)
(3.99398 -0.057599 0)
(3.99278 -0.0509101 0)
(3.98866 -0.032575 0)
(3.98605 -0.0214349 0)
(3.98403 -0.0111389 0)
(3.98491 -0.0108163 0)
(3.98201 -0.00348656 0)
(3.98073 0.00095334 0)
(3.9797 -0.00018697 0)
(3.97996 -0.00348417 0)
(3.97969 -0.00564443 0)
(3.97958 -0.00720014 0)
(3.97967 -0.0073063 0)
(3.97991 -0.00715035 0)
(3.98003 -0.0065455 0)
(3.98039 -0.00580282 0)
(3.98048 -0.00568001 0)
(3.98035 -0.00638773 0)
(3.98062 -0.00735202 0)
(3.98047 -0.00832831 0)
(3.9808 -0.00857776 0)
(3.98082 -0.00804 0)
(3.98087 -0.00702393 0)
(3.98085 -0.00629775 0)
(3.98117 -0.00576876 0)
(3.98118 -0.00574585 0)
(3.98123 -0.00586416 0)
(3.98139 -0.0063007 0)
(3.98127 -0.0066701 0)
(3.98122 -0.00660986 0)
(3.98111 -0.00655494 0)
(3.98124 -0.00606631 0)
(3.9813 -0.00614908 0)
(3.9813 -0.00637403 0)
(3.98134 -0.00630781 0)
(3.98142 -0.00571329 0)
(3.98147 -0.00583957 0)
(3.98154 -0.0061686 0)
(3.98168 -0.00667401 0)
(3.98171 -0.00657228 0)
(3.98178 -0.00642793 0)
(3.9818 -0.00612749 0)
(3.98176 -0.00584526 0)
(3.98168 -0.00535941 0)
(3.98173 -0.00535611 0)
(3.9818 -0.00539646 0)
(3.98192 -0.00571837 0)
(3.98206 -0.00650843 0)
(3.9821 -0.00644262 0)
(3.98206 -0.00650616 0)
(4.0095 -0.119976 0)
(4.00953 -0.120026 0)
(4.00955 -0.120083 0)
(4.00956 -0.120096 0)
(4.00956 -0.120105 0)
(4.00956 -0.120111 0)
(4.00957 -0.120108 0)
(4.00958 -0.120092 0)
(4.00961 -0.120109 0)
(4.00966 -0.120143 0)
(4.00969 -0.120165 0)
(4.00972 -0.120176 0)
(4.00977 -0.120153 0)
(4.0098 -0.12012 0)
(4.00981 -0.120114 0)
(4.00984 -0.120142 0)
(4.00986 -0.120176 0)
(4.00988 -0.120198 0)
(4.00994 -0.120165 0)
(4.00999 -0.120104 0)
(4.01002 -0.120095 0)
(4.01004 -0.120118 0)
(4.01004 -0.120161 0)
(4.01004 -0.120158 0)
(4.01012 -0.120063 0)
(4.01013 -0.119933 0)
(4.0101 -0.119841 0)
(4.01013 -0.119884 0)
(4.01014 -0.119999 0)
(4.01013 -0.119988 0)
(4.01015 -0.119866 0)
(4.01015 -0.119743 0)
(4.01015 -0.119722 0)
(4.01017 -0.119839 0)
(4.01019 -0.119768 0)
(4.01016 -0.119664 0)
(4.0101 -0.119736 0)
(4.01007 -0.119713 0)
(4.0101 -0.119695 0)
(4.01014 -0.119671 0)
(4.01025 -0.11955 0)
(4.01039 -0.119479 0)
(4.01045 -0.119403 0)
(4.01052 -0.119267 0)
(4.01056 -0.119065 0)
(4.01052 -0.118659 0)
(4.01036 -0.117866 0)
(4.01004 -0.116434 0)
(4.00938 -0.11376 0)
(4.00837 -0.109677 0)
(4.00636 -0.102161 0)
(4.00493 -0.0955664 0)
(4.00082 -0.0777128 0)
(3.99996 -0.073567 0)
(3.9949 -0.0522429 0)
(3.99269 -0.04328 0)
(3.98948 -0.0285948 0)
(3.98989 -0.0291837 0)
(3.98799 -0.0210942 0)
(3.98864 -0.0186781 0)
(3.98501 -0.0135578 0)
(3.98428 -0.0105298 0)
(3.98391 -0.00817284 0)
(3.98246 -0.00593177 0)
(3.98167 -0.00491629 0)
(3.98149 -0.00526003 0)
(3.98125 -0.00637739 0)
(3.98128 -0.00681308 0)
(3.98144 -0.00842462 0)
(3.98177 -0.0086519 0)
(3.98245 -0.00862757 0)
(3.9826 -0.00809199 0)
(3.98246 -0.00786874 0)
(3.98212 -0.00735233 0)
(3.98194 -0.00707257 0)
(3.98181 -0.00684598 0)
(3.98193 -0.00636079 0)
(3.9819 -0.00612318 0)
(3.98192 -0.00632299 0)
(3.98197 -0.00667369 0)
(3.9821 -0.00684501 0)
(3.98207 -0.00682388 0)
(3.98218 -0.00644521 0)
(3.98222 -0.00637452 0)
(3.98229 -0.0063165 0)
(3.98232 -0.00631927 0)
(3.98237 -0.0059854 0)
(3.98244 -0.00603666 0)
(3.9825 -0.0063033 0)
(3.98259 -0.00669287 0)
(3.98269 -0.00662684 0)
(3.98275 -0.00652967 0)
(3.98276 -0.006261 0)
(3.98273 -0.00595944 0)
(3.98266 -0.00525226 0)
(3.98284 -0.0055284 0)
(3.98284 -0.00573529 0)
(3.9829 -0.00622466 0)
(3.98296 -0.00682626 0)
(3.98297 -0.00680985 0)
(4.01113 -0.119567 0)
(4.01115 -0.119583 0)
(4.01116 -0.119561 0)
(4.01117 -0.119573 0)
(4.01118 -0.119635 0)
(4.01118 -0.119656 0)
(4.01119 -0.119627 0)
(4.0112 -0.11964 0)
(4.01122 -0.119648 0)
(4.01124 -0.119644 0)
(4.01126 -0.119678 0)
(4.01128 -0.119691 0)
(4.0113 -0.119685 0)
(4.01133 -0.119664 0)
(4.01135 -0.119636 0)
(4.01139 -0.119656 0)
(4.01141 -0.119699 0)
(4.01144 -0.119689 0)
(4.01148 -0.119633 0)
(4.01149 -0.119607 0)
(4.01153 -0.119635 0)
(4.01156 -0.119675 0)
(4.01156 -0.119719 0)
(4.01157 -0.119703 0)
(4.01163 -0.119567 0)
(4.01162 -0.11947 0)
(4.01163 -0.119402 0)
(4.01166 -0.119347 0)
(4.01168 -0.119408 0)
(4.01166 -0.119463 0)
(4.01169 -0.119371 0)
(4.0117 -0.119231 0)
(4.01171 -0.119223 0)
(4.01172 -0.119312 0)
(4.01173 -0.119244 0)
(4.01172 -0.119193 0)
(4.01171 -0.119241 0)
(4.01169 -0.119332 0)
(4.01169 -0.119337 0)
(4.01169 -0.119296 0)
(4.01168 -0.119279 0)
(4.01165 -0.119308 0)
(4.01165 -0.119276 0)
(4.01166 -0.119267 0)
(4.01168 -0.119266 0)
(4.01171 -0.119254 0)
(4.01175 -0.119235 0)
(4.0118 -0.119185 0)
(4.01182 -0.119055 0)
(4.01182 -0.118707 0)
(4.01167 -0.117942 0)
(4.01125 -0.116179 0)
(4.01032 -0.112883 0)
(4.00888 -0.107015 0)
(4.00596 -0.0956907 0)
(4.00449 -0.0888608 0)
(3.99911 -0.066809 0)
(3.9982 -0.0581213 0)
(3.99291 -0.0319922 0)
(3.99427 -0.0311866 0)
(3.98905 -0.0112503 0)
(3.98913 -0.0104853 0)
(3.98685 -0.00138533 0)
(3.98593 -0.000847669 0)
(3.98443 -0.00414659 0)
(3.98351 -0.00655718 0)
(3.98259 -0.00791687 0)
(3.98291 -0.00796949 0)
(3.98303 -0.00777911 0)
(3.9836 -0.0070195 0)
(3.98399 -0.00665828 0)
(3.98407 -0.00688474 0)
(3.98387 -0.00730149 0)
(3.98357 -0.00771051 0)
(3.98329 -0.00807374 0)
(3.98313 -0.00735577 0)
(3.98323 -0.00667999 0)
(3.9832 -0.00611684 0)
(3.98325 -0.00589372 0)
(3.98326 -0.00644468 0)
(3.98341 -0.00666749 0)
(3.98337 -0.00667782 0)
(3.98332 -0.00653945 0)
(3.98332 -0.00637759 0)
(3.98333 -0.00637436 0)
(3.98334 -0.00637775 0)
(3.98333 -0.00630441 0)
(3.98337 -0.00599472 0)
(3.98339 -0.00604514 0)
(3.98347 -0.00627773 0)
(3.98357 -0.0064805 0)
(3.98369 -0.00643509 0)
(3.98374 -0.00633447 0)
(3.98368 -0.00621764 0)
(3.9837 -0.0057655 0)
(3.98357 -0.00539215 0)
(3.98353 -0.0053722 0)
(3.98359 -0.00582656 0)
(3.98357 -0.00628875 0)
(3.98373 -0.00671781 0)
(4.01223 -0.118888 0)
(4.01225 -0.118887 0)
(4.01227 -0.118851 0)
(4.01229 -0.118844 0)
(4.01231 -0.118902 0)
(4.01233 -0.118911 0)
(4.01233 -0.118881 0)
(4.01234 -0.118904 0)
(4.01235 -0.118912 0)
(4.01237 -0.11893 0)
(4.0124 -0.118959 0)
(4.01242 -0.118952 0)
(4.01243 -0.118956 0)
(4.01246 -0.11894 0)
(4.01249 -0.118871 0)
(4.01252 -0.11885 0)
(4.01257 -0.118952 0)
(4.0126 -0.118984 0)
(4.01264 -0.118955 0)
(4.01267 -0.118952 0)
(4.01271 -0.118931 0)
(4.01274 -0.118964 0)
(4.01277 -0.11898 0)
(4.0128 -0.118898 0)
(4.0128 -0.11882 0)
(4.01278 -0.118761 0)
(4.01278 -0.118712 0)
(4.01279 -0.118673 0)
(4.01281 -0.118672 0)
(4.01282 -0.118735 0)
(4.01283 -0.118721 0)
(4.01286 -0.118623 0)
(4.01287 -0.118587 0)
(4.01289 -0.118664 0)
(4.01291 -0.118675 0)
(4.01291 -0.118614 0)
(4.01292 -0.118687 0)
(4.01291 -0.118815 0)
(4.01292 -0.118804 0)
(4.01291 -0.118674 0)
(4.01286 -0.118571 0)
(4.0128 -0.118624 0)
(4.01273 -0.118808 0)
(4.01268 -0.118915 0)
(4.01268 -0.118964 0)
(4.01267 -0.119047 0)
(4.01269 -0.119165 0)
(4.01274 -0.119227 0)
(4.01279 -0.119285 0)
(4.01284 -0.119242 0)
(4.01293 -0.119316 0)
(4.01298 -0.119378 0)
(4.01294 -0.119262 0)
(4.01277 -0.118713 0)
(4.01237 -0.117432 0)
(4.01146 -0.113897 0)
(4.00993 -0.108567 0)
(4.00773 -0.0993964 0)
(4.00451 -0.0862395 0)
(4.00157 -0.0721803 0)
(3.99754 -0.0528775 0)
(3.99679 -0.0476536 0)
(3.9939 -0.0312078 0)
(3.99341 -0.0276199 0)
(3.99269 -0.0222135 0)
(3.99018 -0.0170571 0)
(3.98817 -0.0122736 0)
(3.98727 -0.00907004 0)
(3.98513 -0.00566638 0)
(3.98525 -0.00550394 0)
(3.98507 -0.00620537 0)
(3.98512 -0.00713558 0)
(3.98504 -0.00880141 0)
(3.98518 -0.00893268 0)
(3.98521 -0.00830698 0)
(3.98523 -0.00742379 0)
(3.98505 -0.00701702 0)
(3.98483 -0.00676919 0)
(3.98467 -0.00692312 0)
(3.98437 -0.00674476 0)
(3.98438 -0.00664446 0)
(3.98452 -0.00667268 0)
(3.98441 -0.00650737 0)
(3.98439 -0.00646722 0)
(3.98437 -0.00664251 0)
(3.9844 -0.00648642 0)
(3.98436 -0.00633674 0)
(3.98427 -0.00620968 0)
(3.98427 -0.00611844 0)
(3.98435 -0.00617225 0)
(3.9845 -0.00635668 0)
(3.98463 -0.00653308 0)
(3.98465 -0.0065415 0)
(3.98462 -0.00650033 0)
(3.98447 -0.00614582 0)
(3.98418 -0.00577239 0)
(3.98421 -0.00551358 0)
(3.98422 -0.005665 0)
(3.98428 -0.00621793 0)
(3.98441 -0.00674813 0)
(4.01304 -0.118038 0)
(4.01306 -0.11801 0)
(4.01308 -0.118003 0)
(4.01309 -0.118006 0)
(4.0131 -0.118016 0)
(4.01313 -0.118 0)
(4.01315 -0.117967 0)
(4.01317 -0.117973 0)
(4.0132 -0.11801 0)
(4.01323 -0.118005 0)
(4.01324 -0.117986 0)
(4.01325 -0.117996 0)
(4.01324 -0.118009 0)
(4.01326 -0.117974 0)
(4.01328 -0.117907 0)
(4.01331 -0.117897 0)
(4.01335 -0.117963 0)
(4.01338 -0.118019 0)
(4.0134 -0.117997 0)
(4.01342 -0.117991 0)
(4.01344 -0.11801 0)
(4.01348 -0.118002 0)
(4.01351 -0.118031 0)
(4.01352 -0.118034 0)
(4.01353 -0.11798 0)
(4.01355 -0.117991 0)
(4.01356 -0.11803 0)
(4.01358 -0.117997 0)
(4.01359 -0.11797 0)
(4.01366 -0.118068 0)
(4.01369 -0.118141 0)
(4.0137 -0.118174 0)
(4.01373 -0.118246 0)
(4.01375 -0.118301 0)
(4.01377 -0.118263 0)
(4.01379 -0.11831 0)
(4.01381 -0.118508 0)
(4.0138 -0.118627 0)
(4.01379 -0.118553 0)
(4.01375 -0.118518 0)
(4.01372 -0.118624 0)
(4.01367 -0.118739 0)
(4.0136 -0.118834 0)
(4.01356 -0.118893 0)
(4.01353 -0.118967 0)
(4.01354 -0.119008 0)
(4.01356 -0.119066 0)
(4.01359 -0.119161 0)
(4.01365 -0.119285 0)
(4.01373 -0.119384 0)
(4.01376 -0.119458 0)
(4.01374 -0.11962 0)
(4.01366 -0.119724 0)
(4.0137 -0.119889 0)
(4.0137 -0.119865 0)
(4.01366 -0.11969 0)
(4.01351 -0.119158 0)
(4.01308 -0.117668 0)
(4.01207 -0.114155 0)
(4.01041 -0.108211 0)
(4.00752 -0.097351 0)
(4.00432 -0.0832279 0)
(4.00042 -0.0666214 0)
(3.99706 -0.0490105 0)
(3.99525 -0.0306418 0)
(3.99318 -0.0185427 0)
(3.99193 -0.00956348 0)
(3.98955 -0.00115244 0)
(3.98857 -0.000852398 0)
(3.98725 -0.00523173 0)
(3.98628 -0.00775029 0)
(3.98585 -0.00860975 0)
(3.98599 -0.00858847 0)
(3.98646 -0.00770751 0)
(3.9869 -0.00689737 0)
(3.98677 -0.00692962 0)
(3.98641 -0.00720353 0)
(3.98586 -0.00762224 0)
(3.9857 -0.00745851 0)
(3.98546 -0.00688204 0)
(3.98538 -0.00631582 0)
(3.98523 -0.00620439 0)
(3.98524 -0.00633636 0)
(3.98529 -0.0067337 0)
(3.98534 -0.0065991 0)
(3.98534 -0.00654799 0)
(3.98529 -0.00628423 0)
(3.98523 -0.00617606 0)
(3.98513 -0.00620086 0)
(3.98525 -0.00607923 0)
(3.98533 -0.00612385 0)
(3.98546 -0.00635665 0)
(3.98548 -0.00647106 0)
(3.98552 -0.00651984 0)
(3.98526 -0.00635796 0)
(3.98509 -0.00600923 0)
(3.98501 -0.00547476 0)
(3.9849 -0.00561909 0)
(3.98494 -0.0058397 0)
(3.98507 -0.0063939 0)
(4.01403 -0.117864 0)
(4.01402 -0.117859 0)
(4.01402 -0.117856 0)
(4.01402 -0.11785 0)
(4.01402 -0.117828 0)
(4.01402 -0.11781 0)
(4.01402 -0.117808 0)
(4.01404 -0.11778 0)
(4.01406 -0.117763 0)
(4.01406 -0.117763 0)
(4.01406 -0.117757 0)
(4.01407 -0.117755 0)
(4.01407 -0.117751 0)
(4.01408 -0.117731 0)
(4.01409 -0.117689 0)
(4.01408 -0.117664 0)
(4.01409 -0.117681 0)
(4.01411 -0.117688 0)
(4.01412 -0.117676 0)
(4.01413 -0.11768 0)
(4.01414 -0.117663 0)
(4.01415 -0.11763 0)
(4.01416 -0.117654 0)
(4.01416 -0.117688 0)
(4.01415 -0.117694 0)
(4.01415 -0.117708 0)
(4.01415 -0.117714 0)
(4.01416 -0.117691 0)
(4.01418 -0.117681 0)
(4.0142 -0.117721 0)
(4.01421 -0.117751 0)
(4.0142 -0.117744 0)
(4.01419 -0.117748 0)
(4.01419 -0.117768 0)
(4.01419 -0.117793 0)
(4.01421 -0.117854 0)
(4.01423 -0.117981 0)
(4.01422 -0.11814 0)
(4.01417 -0.118206 0)
(4.01414 -0.118217 0)
(4.01412 -0.118297 0)
(4.01408 -0.11845 0)
(4.01399 -0.118579 0)
(4.01391 -0.118688 0)
(4.01389 -0.118724 0)
(4.01388 -0.118748 0)
(4.01385 -0.11886 0)
(4.01383 -0.119029 0)
(4.01391 -0.11914 0)
(4.01401 -0.119239 0)
(4.01401 -0.119422 0)
(4.01406 -0.119571 0)
(4.01415 -0.119663 0)
(4.01415 -0.119999 0)
(4.01409 -0.120313 0)
(4.01408 -0.120298 0)
(4.01413 -0.120248 0)
(4.01414 -0.119908 0)
(4.01407 -0.119592 0)
(4.01383 -0.11901 0)
(4.01314 -0.117098 0)
(4.01212 -0.113917 0)
(4.00952 -0.104217 0)
(4.00779 -0.0965701 0)
(4.00305 -0.0739645 0)
(4.00185 -0.0663671 0)
(3.99731 -0.0438336 0)
(3.99642 -0.0382293 0)
(3.99472 -0.0271709 0)
(3.99428 -0.0232518 0)
(3.99217 -0.0166441 0)
(3.98961 -0.0110235 0)
(3.98841 -0.00827718 0)
(3.98758 -0.00606436 0)
(3.98728 -0.00663833 0)
(3.98676 -0.00726577 0)
(3.98669 -0.0089377 0)
(3.98629 -0.00843705 0)
(3.98628 -0.00779671 0)
(3.98644 -0.00665909 0)
(3.98634 -0.00639915 0)
(3.98601 -0.00662152 0)
(3.98592 -0.00692813 0)
(3.98596 -0.00692162 0)
(3.98601 -0.00677224 0)
(3.98601 -0.00633747 0)
(3.98599 -0.00627394 0)
(3.98597 -0.00642413 0)
(3.98595 -0.00641977 0)
(3.98595 -0.00615887 0)
(3.98597 -0.00611413 0)
(3.98605 -0.00628143 0)
(3.98613 -0.00657119 0)
(3.98615 -0.00671892 0)
(3.98607 -0.00651632 0)
(3.98594 -0.0062486 0)
(3.98572 -0.00587484 0)
(3.98562 -0.00570362 0)
(3.98561 -0.00582948 0)
(3.98568 -0.00627423 0)
(4.01449 -0.117942 0)
(4.01449 -0.117942 0)
(4.01449 -0.117938 0)
(4.01448 -0.117918 0)
(4.01448 -0.117874 0)
(4.01449 -0.117817 0)
(4.01449 -0.117803 0)
(4.01451 -0.11777 0)
(4.01452 -0.117748 0)
(4.01452 -0.117751 0)
(4.01453 -0.117754 0)
(4.01452 -0.117721 0)
(4.01452 -0.117662 0)
(4.01451 -0.117633 0)
(4.0145 -0.117586 0)
(4.0145 -0.117532 0)
(4.01452 -0.117494 0)
(4.01451 -0.117471 0)
(4.0145 -0.11746 0)
(4.0145 -0.11743 0)
(4.01448 -0.11739 0)
(4.01447 -0.117361 0)
(4.01446 -0.117341 0)
(4.01444 -0.117336 0)
(4.01442 -0.117325 0)
(4.01441 -0.117314 0)
(4.01439 -0.117299 0)
(4.01438 -0.117266 0)
(4.01438 -0.117251 0)
(4.01436 -0.117244 0)
(4.01433 -0.117253 0)
(4.01431 -0.117268 0)
(4.01428 -0.117278 0)
(4.01425 -0.11731 0)
(4.01423 -0.117362 0)
(4.01422 -0.11743 0)
(4.01419 -0.117513 0)
(4.01415 -0.117596 0)
(4.01414 -0.11775 0)
(4.01416 -0.117913 0)
(4.01412 -0.118029 0)
(4.01405 -0.118133 0)
(4.01398 -0.118355 0)
(4.01393 -0.118494 0)
(4.0139 -0.118565 0)
(4.01385 -0.118686 0)
(4.01382 -0.118733 0)
(4.01381 -0.118768 0)
(4.01386 -0.118869 0)
(4.0139 -0.119006 0)
(4.01393 -0.11921 0)
(4.01398 -0.119354 0)
(4.0141 -0.119495 0)
(4.01417 -0.11989 0)
(4.01418 -0.120265 0)
(4.01421 -0.120334 0)
(4.0143 -0.120355 0)
(4.01439 -0.120308 0)
(4.01432 -0.120116 0)
(4.0142 -0.119855 0)
(4.01412 -0.119742 0)
(4.01395 -0.119546 0)
(4.01358 -0.118727 0)
(4.01292 -0.116209 0)
(4.01135 -0.110092 0)
(4.00972 -0.102007 0)
(4.00474 -0.0812452 0)
(4.00381 -0.0732616 0)
(3.99634 -0.0399619 0)
(3.99792 -0.0354335 0)
(3.99294 -0.0104887 0)
(3.99196 -0.00892119 0)
(3.98987 0.000270429 0)
(3.98781 -0.00352953 0)
(3.98658 -0.00755229 0)
(3.98643 -0.00874016 0)
(3.98657 -0.0088099 0)
(3.98686 -0.00806454 0)
(3.98719 -0.00627462 0)
(3.98707 -0.00625341 0)
(3.98657 -0.00692216 0)
(3.98643 -0.00723684 0)
(3.98627 -0.00689085 0)
(3.9863 -0.00669072 0)
(3.98633 -0.00634746 0)
(3.98634 -0.00635482 0)
(3.9863 -0.0065664 0)