/*--------------------------------*- C++ -*----------------------------------*\
  =========                 |
  \\      /  F ield         | OpenFOAM: The Open Source CFD Toolbox
   \\    /   O peration     | Website:  https://openfoam.org
    \\  /    A nd           | Version:  7
     \\/     M anipulation  |
\*---------------------------------------------------------------------------*/
FoamFile
{
    version     2.0;
    format      ascii;
    class       volScalarField;
    location    "0.7401";
    object      rho;
}
// * * * * * * * * * * * * * * * * * * * * * * * * * * * * * * * * * * * * * //

dimensions      [1 -3 0 0 0 0 0];

internalField   nonuniform List<scalar> 
324000
(
0.465998
0.614104
0.835963
1.03119
1.10708
1.10207
1.07213
1.04952
1.03033
1.03776
1.0473
1.05276
1.05743
1.05994
1.06136
1.06555
1.06738
1.06489
1.06325
1.06303
1.06256
1.06304
1.06663
1.07015
1.07126
1.07074
1.06966
1.06964
1.0714
1.07413
1.07563
1.07607
1.07708
1.07909
1.08145
1.08375
1.0852
1.08649
1.08794
1.09019
1.09133
1.09115
1.0886
1.0839
1.07867
1.07557
1.07401
1.07483
1.07722
1.07999
1.08219
1.0857
1.09141
1.09801
1.10709
1.11697
1.12401
1.13173
1.14144
1.15159
1.16458
1.17936
1.19094
1.19722
1.19616
1.1994
1.23363
1.29963
1.32962
1.33537
1.35104
1.36045
1.36317
1.36783
1.37418
1.38225
1.39122
1.39778
1.39993
1.40008
0.330172
0.330939
0.376104
0.576671
0.825921
1.00962
1.06575
1.07108
1.04709
1.04031
1.02334
1.02157
1.02917
1.03587
1.03824
1.04127
1.04232
1.04155
1.04144
1.04043
1.0388
1.03784
1.03862
1.04226
1.04631
1.04717
1.04686
1.04654
1.04626
1.0463
1.04577
1.04623
1.04748
1.04955
1.05149
1.05278
1.05303
1.05359
1.05486
1.0573
1.05859
1.05838
1.05614
1.05157
1.04621
1.04285
1.0418
1.04156
1.04267
1.04612
1.04928
1.05347
1.05959
1.06766
1.07794
1.08587
1.0889
1.09444
1.10316
1.11557
1.13174
1.15162
1.16227
1.17993
1.18575
1.19045
1.22903
1.30034
1.32653
1.33397
1.35179
1.35955
1.36236
1.36708
1.37341
1.38161
1.39082
1.39761
1.39989
1.40007
0.330857
0.331271
0.331595
0.33166
0.380036
0.557225
0.818171
1.0138
1.06359
1.06858
1.05499
1.04493
1.04069
1.03964
1.03695
1.03406
1.03553
1.03895
1.03797
1.03288
1.029
1.02866
1.02992
1.03238
1.03551
1.03604
1.03523
1.0341
1.03384
1.03359
1.03333
1.03323
1.03384
1.03445
1.0351
1.03549
1.03604
1.03723
1.03897
1.04037
1.04037
1.03957
1.0365
1.03189
1.02649
1.02243
1.02025
1.01959
1.01944
1.0203
1.02281
1.02683
1.0326
1.03954
1.04643
1.05066
1.05486
1.06143
1.07122
1.08408
1.10115
1.12292
1.1353
1.15143
1.17228
1.18112
1.22483
1.29928
1.32289
1.33356
1.35244
1.35853
1.36153
1.36627
1.3726
1.38096
1.39042
1.39745
1.39986
1.40006
0.331492
0.331713
0.331893
0.332008
0.332058
0.332038
0.386289
0.554328
0.805875
0.973475
1.05828
1.06581
1.05285
1.0365
1.0279
1.027
1.03083
1.03694
1.03732
1.03352
1.03019
1.02965
1.02961
1.02989
1.03166
1.03149
1.03109
1.03062
1.03055
1.03061
1.03112
1.03161
1.03144
1.03072
1.02939
1.02899
1.03022
1.03306
1.03532
1.03563
1.03474
1.0327
1.02867
1.02306
1.01708
1.01211
1.00925
1.00784
1.00737
1.00755
1.00781
1.0097
1.01305
1.01723
1.02176
1.02422
1.02664
1.03162
1.04252
1.0579
1.08097
1.10769
1.12545
1.13289
1.15846
1.17384
1.21902
1.29503
1.31845
1.33373
1.35271
1.35743
1.36064
1.36539
1.37177
1.38032
1.39002
1.39728
1.39982
1.40006
0.331868
0.33198
0.332048
0.332103
0.332083
0.331978
0.33184
0.331428
0.392262
0.55506
0.796082
0.955669
1.02642
1.02878
1.01419
1.01804
1.02076
1.02959
1.03545
1.03422
1.03186
1.0307
1.02999
1.03074
1.03183
1.0315
1.03014
1.02976
1.02983
1.031
1.03266
1.03381
1.03299
1.03074
1.02815
1.02747
1.02891
1.03303
1.03623
1.03678
1.03529
1.03289
1.0282
1.02145
1.01474
1.0094
1.00624
1.00402
1.0025
1.00138
1.00063
1.00087
1.00185
1.0031
1.00497
1.00688
1.01028
1.01648
1.02785
1.04694
1.07365
1.10382
1.12546
1.12762
1.14685
1.16899
1.21393
1.28922
1.31371
1.33456
1.35253
1.35628
1.35967
1.36444
1.37093
1.37968
1.38963
1.39713
1.39979
1.40005
0.332092
0.332121
0.332113
0.332049
0.331865
0.331669
0.331302
0.331053
0.330971
0.330834
0.390576
0.56882
0.808876
0.962243
0.991117
1.0279
1.02494
1.03187
1.03412
1.03303
1.03483
1.03614
1.0343
1.03301
1.03342
1.03334
1.03232
1.03174
1.03168
1.0326
1.03436
1.03547
1.03466
1.03214
1.03022
1.03007
1.03236
1.03539
1.03782
1.03839
1.03693
1.03444
1.02888
1.02142
1.01438
1.00867
1.00548
1.00323
1.00171
1.00047
0.999143
0.998386
0.995999
0.995608
0.997249
0.999532
1.00494
1.01336
1.02623
1.04743
1.07735
1.1043
1.12446
1.13106
1.14394
1.16599
1.2092
1.28116
1.30866
1.3359
1.35193
1.35513
1.35863
1.36343
1.37007
1.37904
1.38924
1.39697
1.39976
1.40004
0.332115
0.332056
0.33193
0.331701
0.331472
0.331205
0.33099
0.330911
0.330789
0.330768
0.330782
0.330751
0.393679
0.606341
0.842689
0.988924
1.01246
1.03962
1.04005
1.03681
1.04062
1.04152
1.03902
1.03747
1.03764
1.03685
1.03488
1.03356
1.03443
1.0371
1.0386
1.03878
1.03842
1.03764
1.03786
1.03886
1.0387
1.03918
1.04001
1.04022
1.03935
1.03652
1.03063
1.02239
1.0148
1.00902
1.0057
1.00349
1.0011
0.999547
0.999033
0.996286
0.991675
0.991622
0.99396
0.999982
1.0076
1.01657
1.03057
1.05104
1.08595
1.12527
1.1438
1.14489
1.14831
1.16534
1.20535
1.27115
1.30428
1.33731
1.35098
1.35394
1.35753
1.36239
1.3692
1.3784
1.38887
1.39683
1.39972
1.40004
0.331972
0.331788
0.331564
0.331341
0.331127
0.330933
0.33084
0.330756
0.330749
0.330757
0.330741
0.330706
0.33065
0.332765
0.417058
0.634918
0.853288
1.00468
1.02215
1.04175
1.05055
1.0481
1.04318
1.03954
1.04014
1.04035
1.03973
1.03931
1.04134
1.04226
1.0408
1.04007
1.04081
1.04361
1.04604
1.04647
1.04504
1.04299
1.04334
1.04397
1.04345
1.03979
1.03281
1.02435
1.01651
1.01152
1.00869
1.00573
1.00315
1.00075
0.998321
0.993833
0.988906
0.989049
0.993104
1.0001
1.00808
1.01972
1.03564
1.06808
1.1142
1.15133
1.16416
1.15981
1.15826
1.16731
1.206
1.26242
1.30202
1.33813
1.34963
1.35269
1.35638
1.36134
1.36833
1.37776
1.3885
1.39669
1.3997
1.40003
0.33164
0.331414
0.3312
0.331026
0.330856
0.330784
0.330731
0.330741
0.330755
0.330745
0.330712
0.330661
0.330606
0.330579
0.330569
0.335861
0.441123
0.67459
0.877085
1.02533
1.04049
1.04623
1.04583
1.04131
1.04281
1.04406
1.04496
1.04625
1.04851
1.04681
1.04259
1.04136
1.04311
1.04746
1.05028
1.0499
1.04734
1.04497
1.04566
1.04674
1.04613
1.04196
1.03457
1.02616
1.01942
1.01589
1.0119
1.00892
1.00567
1.00174
0.996999
0.99118
0.985353
0.986365
0.991832
1.00283
1.01712
1.03444
1.05705
1.09148
1.14163
1.18008
1.19273
1.18943
1.17598
1.1752
1.20753
1.25636
1.30131
1.33789
1.34791
1.35133
1.35516
1.36025
1.36744
1.37713
1.38814
1.39656
1.39967
1.40003
0.33125
0.331047
0.330893
0.330787
0.330748
0.330731
0.330749
0.330764
0.330749
0.330699
0.330637
0.330591
0.33057
0.330566
0.330558
0.330544
0.330496
0.341435
0.467102
0.736675
0.910999
1.02732
1.04219
1.03885
1.04787
1.04997
1.05255
1.05472
1.05549
1.05103
1.04505
1.04326
1.04511
1.04886
1.0513
1.05
1.0477
1.04648
1.04852
1.04951
1.04791
1.04298
1.03558
1.02843
1.02341
1.01998
1.0153
1.01072
1.00631
1.00163
0.996648
0.988667
0.985589
0.987465
0.996891
1.00999
1.0255
1.04785
1.07929
1.11989
1.16718
1.19748
1.20935
1.21093
1.19131
1.18216
1.2143
1.25651
1.30251
1.33685
1.34598
1.34984
1.35386
1.35913
1.36654
1.3765
1.3878
1.39644
1.39965
1.40002
0.330899
0.330795
0.330732
0.330726
0.330742
0.33078
0.330786
0.330753
0.330678
0.330617
0.330581
0.330571
0.330562
0.330555
0.330548
0.330513
0.330459
0.330389
0.330304
0.354667
0.528752
0.796459
0.991101
1.02172
1.05146
1.05198
1.05746
1.05909
1.05806
1.05187
1.04607
1.04563
1.04766
1.04912
1.04792
1.04568
1.04519
1.04651
1.05042
1.05048
1.04785
1.04264
1.03559
1.03016
1.02647
1.02238
1.01658
1.01041
1.0056
1.00027
0.995258
0.988799
0.988345
0.993846
1.00375
1.01789
1.03964
1.06886
1.10255
1.1406
1.17636
1.19947
1.21608
1.22361
1.21481
1.20273
1.22458
1.26025
1.30595
1.33594
1.34416
1.34821
1.35243
1.35793
1.3656
1.37586
1.38747
1.39633
1.39962
1.40002
0.330728
0.330739
0.330756
0.330786
0.330798
0.330781
0.330705
0.330627
0.330587
0.330579
0.330571
0.330566
0.330564
0.330546
0.3305
0.330446
0.330385
0.330309
0.330266
0.330235
0.330182
0.380986
0.609104
0.873174
1.02952
1.04218
1.05629
1.05764
1.05401
1.04893
1.04764
1.04757
1.04718
1.04482
1.04314
1.04286
1.0444
1.04868
1.05296
1.0516
1.0478
1.04304
1.03663
1.0324
1.02897
1.02402
1.01728
1.01024
1.00415
0.998819
0.993523
0.993382
0.996542
1.00332
1.01273
1.02783
1.05261
1.08594
1.11947
1.15411
1.18189
1.20225
1.2215
1.23234
1.22963
1.22095
1.2284
1.26171
1.30883
1.33593
1.34243
1.34646
1.35092
1.35666
1.36463
1.37523
1.38716
1.39623
1.39961
1.40002
0.330776
0.330802
0.330809
0.330784
0.330706
0.33064
0.330597
0.330582
0.33058
0.330573
0.330575
0.330566
0.33053
0.330483
0.330422
0.330356
0.330295
0.330258
0.330234
0.330196
0.330153
0.330108
0.332101
0.447706
0.719259
0.909538
1.03096
1.02895
1.04148
1.04545
1.04915
1.04761
1.04418
1.04174
1.04111
1.04287
1.04834
1.05452
1.05509
1.05225
1.04786
1.04367
1.03864
1.03427
1.02944
1.02371
1.01652
1.00974
1.00334
0.998028
0.996993
0.999536
1.00398
1.01095
1.02149
1.03921
1.06776
1.10218
1.13525
1.16679
1.18713
1.20422
1.22493
1.23888
1.24228
1.24338
1.25177
1.27889
1.31769
1.33605
1.34079
1.34486
1.34937
1.35531
1.36362
1.3746
1.38686
1.39614
1.39959
1.40001
0.330801
0.33077
0.330712
0.330654
0.330612
0.330591
0.330583
0.330576
0.330577
0.330578
0.330558
0.330518
0.330474
0.330402
0.330325
0.330275
0.330245
0.330227
0.330201
0.33016
0.330111
0.330073
0.330068
0.330076
0.353438
0.5399
0.837116
0.961788
1.03764
1.04676
1.05218
1.04712
1.04184
1.04141
1.0424
1.0473
1.05482
1.0574
1.05581
1.0512
1.04786
1.04476
1.03973
1.03419
1.02847
1.02053
1.01288
1.00779
1.00239
0.999836
1.0004
1.00292
1.00723
1.01548
1.02946
1.05118
1.0824
1.11403
1.14443
1.1696
1.18595
1.20272
1.22379
1.23994
1.25019
1.25995
1.27017
1.29371
1.3254
1.33622
1.33961
1.34338
1.34777
1.35394
1.36261
1.37397
1.38657
1.39606
1.39958
1.40001
0.330726
0.330668
0.330622
0.330591
0.330584
0.330579
0.330574
0.330571
0.330563
0.330535
0.330503
0.330453
0.330378
0.330303
0.330254
0.330228
0.330213
0.330194
0.330164
0.33012
0.33006
0.330032
0.330031
0.330036
0.33004
0.330029
0.400366
0.663216
0.939567
1.02472
1.04863
1.04223
1.04467
1.04655
1.04534
1.04995
1.05713
1.05703
1.05212
1.04878
1.04816
1.04487
1.03941
1.03212
1.0237
1.01502
1.0098
1.00624
1.00195
1.00101
1.00092
1.00265
1.00856
1.02068
1.0389
1.06468
1.09645
1.1241
1.14878
1.16838
1.18303
1.20078
1.22222
1.23896
1.25125
1.26639
1.28177
1.30676
1.32994
1.33578
1.33834
1.34175
1.34617
1.35262
1.36163
1.37335
1.3863
1.396
1.39957
1.40001
0.330628
0.330596
0.330584
0.330579
0.330573
0.330569
0.330561
0.330541
0.330511
0.330476
0.330417
0.330345
0.330284
0.330241
0.330213
0.330195
0.33018
0.330158
0.330121
0.330073
0.330025
0.329993
0.329975
0.329964
0.329948
0.329917
0.329876
0.344315
0.499311
0.789702
0.99484
1.0228
1.05125
1.05329
1.04687
1.05044
1.05332
1.04977
1.04657
1.0477
1.04818
1.0446
1.03689
1.02776
1.01845
1.01075
1.00768
1.00415
1.0012
1.00026
0.999662
1.00179
1.01057
1.02788
1.05157
1.08114
1.11104
1.13468
1.15395
1.16893
1.18243
1.20039
1.2218
1.23956
1.25351
1.26932
1.28892
1.31422
1.33089
1.33422
1.33667
1.33993
1.34459
1.35137
1.36067
1.37273
1.38602
1.39594
1.39956
1.40001
0.330585
0.330578
0.330571
0.330568
0.330568
0.330553
0.330525
0.330492
0.33044
0.330374
0.330309
0.330261
0.33023
0.330204
0.330183
0.330164
0.330142
0.330112
0.330069
0.330027
0.329993
0.329961
0.329931
0.329908
0.329885
0.329846
0.329769
0.329685
0.32959
0.404613
0.671666
0.926224
1.04454
1.04768
1.0321
1.04283
1.04336
1.04215
1.04465
1.04968
1.04857
1.04234
1.03224
1.02278
1.01308
1.00804
1.00551
1.00208
0.999075
0.997903
0.998301
1.00251
1.01544
1.03836
1.067
1.09707
1.12239
1.14231
1.1581
1.17067
1.18415
1.20229
1.22279
1.24091
1.25678
1.27333
1.29389
1.31659
1.32951
1.3323
1.33477
1.33801
1.34303
1.35013
1.35971
1.37213
1.38579
1.39586
1.39955
1.4
0.330574
0.330568
0.330561
0.33055
0.330527
0.330499
0.33046
0.3304
0.330332
0.330275
0.330237
0.330216
0.330198
0.330176
0.33015
0.330124
0.330097
0.330066
0.330024
0.329988
0.32996
0.329928
0.329899
0.329875
0.329852
0.329811
0.329726
0.3296
0.329499
0.329378
0.344885
0.526957
0.842854
0.978671
1.01668
1.04341
1.03773
1.03929
1.04726
1.05303
1.04937
1.03849
1.02729
1.01738
1.00978
1.00662
1.00409
0.999524
0.996796
0.996383
0.998609
1.00716
1.02626
1.05484
1.08375
1.10815
1.12708
1.14373
1.1583
1.17164
1.18646
1.2045
1.22365
1.24129
1.25751
1.27503
1.29555
1.31643
1.3265
1.32959
1.33234
1.33602
1.34147
1.34886
1.35873
1.37151
1.38555
1.39587
1.39956
1.4
0.330568
0.330551
0.330524
0.330496
0.33046
0.330406
0.330344
0.330286
0.330245
0.330218
0.330201
0.330188
0.330171
0.330144
0.330111
0.330081
0.330056
0.330025
0.329987
0.329953
0.329925
0.329898
0.329876
0.329859
0.329841
0.329803
0.329711
0.329588
0.329464
0.32936
0.329244
0.329004
0.419759
0.722106
0.971857
1.04475
1.03478
1.04734
1.05556
1.05532
1.04761
1.03285
1.0218
1.01307
1.00803
1.00672
1.00231
0.997376
0.997684
1.00175
1.00802
1.02
1.04198
1.07068
1.09617
1.11322
1.12695
1.14171
1.1566
1.17152
1.18777
1.20537
1.2233
1.2402
1.25662
1.27453
1.29495
1.31416
1.3233
1.3273
1.33024
1.33418
1.33988
1.3475
1.35771
1.37094
1.38529
1.39583
1.39956
1.4
0.33052
0.330488
0.330447
0.330395
0.330341
0.330293
0.330253
0.330223
0.330204
0.330189
0.330175
0.330158
0.330137
0.330106
0.330071
0.330045
0.330021
0.329987
0.329954
0.329924
0.329899
0.329887
0.329894
0.329888
0.329874
0.329838
0.329744
0.329627
0.3295
0.32938
0.329246
0.329107
0.328915
0.362205
0.596026
0.901543
1.00643
1.05706
1.06066
1.05818
1.04269
1.02911
1.01997
1.00957
1.00628
1.00493
1.0004
0.999029
1.0049
1.0136
1.02382
1.03912
1.06053
1.08201
1.09875
1.11228
1.12525
1.1399
1.15592
1.17246
1.18861
1.2053
1.22228
1.23853
1.25485
1.2732
1.29375
1.31075
1.31953
1.32453
1.32824
1.33259
1.33839
1.34615
1.35666
1.37032
1.38516
1.39588
1.39957
1.4
0.330438
0.330386
0.330334
0.330291
0.330254
0.330227
0.330208
0.330192
0.330178
0.330162
0.330141
0.330115
0.330088
0.330062
0.330036
0.330014
0.329985
0.329948
0.329918
0.329901
0.329907
0.329936
0.329979
0.329992
0.329991
0.329971
0.329897
0.329827
0.329743
0.329638
0.329537
0.329385
0.329261
0.32918
0.330856
0.462225
0.778791
1.02524
1.03899
1.04819
1.03577
1.0267
1.01699
1.00989
1.00809
1.00392
1.00155
1.00609
1.01848
1.03032
1.04486
1.06079
1.07696
1.0913
1.10118
1.11094
1.12438
1.14078
1.15854
1.1742
1.18848
1.20416
1.22094
1.2372
1.25344
1.27193
1.29199
1.30737
1.31576
1.32091
1.3253
1.33042
1.3367
1.34476
1.35568
1.36977
1.38493
1.39589
1.39958
1.4
0.330325
0.330283
0.330248
0.330225
0.330209
0.330195
0.330181
0.330163
0.330142
0.330119
0.330092
0.330065
0.330043
0.330024
0.330004
0.329979
0.329945
0.329905
0.329882
0.329895
0.329933
0.329985
0.33004
0.330086
0.330107
0.330104
0.33008
0.330067
0.330059
0.330031
0.330001
0.329913
0.329829
0.32982
0.329671
0.329168
0.397979
0.715806
0.92519
1.03176
1.028
1.02871
1.01915
1.01059
1.00894
1.00553
1.00682
1.019
1.03454
1.04791
1.06356
1.07676
1.08592
1.09363
1.10111
1.11099
1.12635
1.14578
1.16299
1.1757
1.18772
1.20241
1.21946
1.23634
1.25264
1.27065
1.2897
1.30423
1.31301
1.31834
1.32299
1.32836
1.3349
1.3433
1.3546
1.3692
1.38498
1.39596
1.3996
1.4
0.330246
0.330223
0.330206
0.330193
0.330182
0.330168
0.330148
0.330124
0.330098
0.330073
0.33005
0.330028
0.330008
0.329988
0.329967
0.329939
0.329898
0.329863
0.329864
0.329885
0.329938
0.330002
0.330058
0.330116
0.330161
0.330172
0.330196
0.330216
0.330256
0.330267
0.330268
0.33022
0.330107
0.330007
0.329803
0.329391
0.327291
0.350977
0.621273
0.944481
0.99966
1.03049
1.01956
1.01059
1.01094
1.01058
1.01938
1.03715
1.0462
1.05553
1.0723
1.08353
1.09094
1.09398
1.10021
1.11335
1.13281
1.15282
1.16569
1.17491
1.18543
1.20013
1.21786
1.23556
1.25227
1.2696
1.28733
1.301
1.30962
1.31527
1.32051
1.32635
1.33317
1.34191
1.35365
1.36864
1.38482
1.39603
1.39962
1.4
0.330206
0.330191
0.330178
0.330164
0.330146
0.330126
0.330101
0.330074
0.33005
0.33003
0.330011
0.329993
0.329974
0.329952
0.329926
0.32989
0.329845
0.329834
0.329839
0.32987
0.329936
0.330004
0.330058
0.330116
0.330169
0.330193
0.330242
0.330273
0.330325
0.330337
0.330323
0.330273
0.330136
0.329996
0.329657
0.328479
0.325966
0.321398
0.327851
0.528874
0.84545
1.01393
1.0104
1.01633
1.01669
1.02045
1.03859
1.054
1.0555
1.06229
1.07679
1.08303
1.09049
1.09629
1.10482
1.12054
1.14113
1.15721
1.16564
1.17234
1.18236
1.19797
1.21626
1.23434
1.25163
1.26852
1.28469
1.29778
1.30629
1.31199
1.3174
1.32354
1.33095
1.34031
1.35255
1.36826
1.38494
1.39614
1.39964
1.4
0.330176
0.330157
0.330137
0.330117
0.330095
0.33007
0.330046
0.330027
0.330011
0.329993
0.329977
0.329962
0.329942
0.329914
0.329876
0.32983
0.32979
0.329782
0.32979
0.329828
0.329903
0.329983
0.330035
0.330088
0.330146
0.330186
0.330249
0.330284
0.330328
0.330337
0.330304
0.330235
0.330039
0.32944
0.327849
0.325231
0.322143
0.31978
0.319021
0.319046
0.471377
0.814572
0.959471
1.02503
1.02743
1.04004
1.06107
1.06097
1.05876
1.065
1.07511
1.08002
1.08925
1.10161
1.11367
1.129
1.14635
1.15726
1.16294
1.16936
1.18091
1.1974
1.21495
1.23247
1.24992
1.26687
1.28184
1.29396
1.30305
1.30999
1.31578
1.32157
1.32886
1.33863
1.3515
1.36771
1.38494
1.39626
1.39967
1.4
0.330129
0.330102
0.330079
0.330057
0.330038
0.33002
0.330003
0.329989
0.329976
0.32996
0.329943
0.329921
0.329892
0.329853
0.329807
0.329768
0.329744
0.329734
0.329738
0.329759
0.329799
0.329858
0.329881
0.329911
0.329949
0.329971
0.330035
0.330061
0.330108
0.330129
0.330027
0.3298
0.328886
0.327207
0.325099
0.322309
0.319834
0.319069
0.319069
0.319926
0.321686
0.403545
0.721162
0.973428
1.01489
1.05353
1.07729
1.06416
1.05866
1.0657
1.07151
1.07867
1.09596
1.11107
1.11996
1.13143
1.14499
1.15368
1.1588
1.16712
1.18312
1.19862
1.21379
1.22992
1.24704
1.26416
1.27899
1.29007
1.29857
1.30573
1.31246
1.31954
1.32748
1.33726
1.35047
1.36759
1.38512
1.39641
1.3997
1.4
0.330063
0.330041
0.330025
0.330012
0.329998
0.329984
0.32997
0.329956
0.329941
0.32992
0.329891
0.329859
0.329824
0.32978
0.329747
0.329732
0.329727
0.32972
0.329713
0.329712
0.329698
0.329697
0.329665
0.329631
0.329594
0.329513
0.329469
0.329383
0.329307
0.329183
0.328798
0.328015
0.326717
0.324823
0.322336
0.3199
0.319068
0.319279
0.320552
0.322927
0.326914
0.330812
0.374357
0.602304
0.874452
1.03505
1.06871
1.06361
1.06424
1.07447
1.07212
1.08428
1.11123
1.11858
1.12336
1.13051
1.14065
1.14657
1.15466
1.1711
1.18666
1.19894
1.21188
1.22696
1.24351
1.26035
1.27548
1.28694
1.29478
1.3014
1.30837
1.31612
1.32496
1.3357
1.34947
1.36709
1.38527
1.39659
1.39973
1.4
0.330011
0.330001
0.329993
0.329984
0.329973
0.329957
0.329939
0.329915
0.329888
0.32986
0.32983
0.329803
0.329773
0.329728
0.329718
0.329723
0.329725
0.329719
0.32971
0.329697
0.329656
0.329615
0.329548
0.329466
0.329355
0.329172
0.328954
0.328727
0.328408
0.328009
0.327324
0.326265
0.324769
0.322526
0.320012
0.319115
0.319379
0.320615
0.323012
0.326515
0.331111
0.337439
0.345697
0.352234
0.484581
0.7513
0.946534
1.05403
1.06503
1.08344
1.07872
1.09782
1.12094
1.11799
1.12069
1.1252
1.13231
1.14094
1.15534
1.17431
1.18691
1.19679
1.20887
1.22398
1.24037
1.2564
1.2711
1.28313
1.29224
1.29934
1.30593
1.31338
1.32237
1.3337
1.34851
1.36723
1.3856
1.39678
1.39976
1.4
0.329988
0.329981
0.329974
0.329963
0.329945
0.329918
0.329885
0.329853
0.329829
0.329809
0.329789
0.329776
0.329753
0.329715
0.329711
0.329721
0.329737
0.329739
0.32973
0.329707
0.329653
0.329598
0.329521
0.329411
0.329263
0.32903
0.328708
0.328356
0.327889
0.327227
0.326353
0.324887
0.322529
0.32045
0.319376
0.319834
0.321134
0.322758
0.324771
0.3298
0.337177
0.344996
0.352634
0.362653
0.369476
0.40791
0.599744
0.872486
1.03057
1.07974
1.08217
1.11532
1.12425
1.11273
1.11664
1.1192
1.12628
1.13858
1.15908
1.17512
1.18388
1.19268
1.20523
1.22145
1.23834
1.25347
1.26675
1.27821
1.2877
1.29579
1.30343
1.3114
1.32068
1.33224
1.34739
1.3669
1.38594
1.39701
1.39979
1.4
0.329969
0.329957
0.329937
0.329906
0.329872
0.329841
0.329813
0.329799
0.329793
0.329786
0.329779
0.329771
0.329748
0.329728
0.329732
0.329762
0.329825
0.329864
0.329861
0.329841
0.329778
0.329702
0.32961
0.329492
0.329317
0.329084
0.32876
0.328318
0.327822
0.326849
0.325299
0.322767
0.320803
0.319919
0.320644
0.321463
0.322881
0.325513
0.329113
0.334014
0.342049
0.351549
0.360497
0.369531
0.379078
0.387779
0.393929
0.470941
0.70423
0.915744
1.05405
1.10404
1.10602
1.08759
1.11302
1.12088
1.13483
1.14841
1.164
1.17219
1.17675
1.18638
1.20164
1.21857
1.23537
1.25083
1.26327
1.27346
1.28243
1.29079
1.2993
1.30833
1.31824
1.33044
1.34688
1.36716
1.3864
1.39724
1.39982
1.4
0.329903
0.329877
0.329848
0.32982
0.329803
0.329787
0.329778
0.329779
0.329782
0.329782
0.329779
0.329775
0.329769
0.329784
0.329812
0.329864
0.329949
0.330024
0.330038
0.330029
0.329999
0.329923
0.329835
0.32973
0.329572
0.329351
0.329029
0.328498
0.327482
0.325686
0.323055
0.320978
0.320755
0.320994
0.322019
0.322887
0.324314
0.328631
0.335837
0.342797
0.349879
0.358756
0.368307
0.376767
0.385879
0.395424
0.404532
0.413623
0.430178
0.534658
0.753187
0.937431
1.03673
1.07404
1.13362
1.13276
1.15327
1.15741
1.16413
1.16264
1.16731
1.17986
1.19875
1.21508
1.23035
1.24551
1.25899
1.26952
1.27816
1.28641
1.29503
1.30465
1.31558
1.32866
1.34579
1.36722
1.38693
1.3975
1.39985
1.4
0.32982
0.329804
0.329789
0.329782
0.329781
0.329778
0.329776
0.329777
0.32978
0.32978
0.329783
0.329788
0.3298
0.329832
0.329878
0.329939
0.330026
0.330096
0.330115
0.330109
0.330084
0.330001
0.32991
0.329783
0.329616
0.329343
0.328756
0.327545
0.325111
0.323016
0.321351
0.321034
0.321458
0.321575
0.322253
0.324603
0.328081
0.332686
0.340807
0.350942
0.359818
0.367821
0.376506
0.384737
0.392815
0.402309
0.411499
0.420989
0.431904
0.441489
0.467569
0.575947
0.787784
1.00203
1.10558
1.12335
1.15987
1.15726
1.15706
1.15293
1.16119
1.18305
1.19691
1.20958
1.22296
1.23766
1.25216
1.26422
1.27382
1.28261
1.29193
1.30186
1.31297
1.32702
1.34574
1.36769
1.38756
1.39776
1.39988
1.4
0.329776
0.329775
0.329776
0.329778
0.329781
0.329783
0.329785
0.329784
0.329781
0.329785
0.329793
0.3298
0.329813
0.329849
0.329898
0.329956
0.330038
0.3301
0.330112
0.330106
0.330079
0.329992
0.3299
0.329738
0.329351
0.328326
0.32642
0.324218
0.322194
0.321131
0.321208
0.321027
0.321466
0.321795
0.322506
0.327248
0.335158
0.343155
0.349599
0.357791
0.366504
0.374285
0.382536
0.39129
0.399904
0.408683
0.418817
0.428606
0.438518
0.449696
0.461821
0.472728
0.503469
0.637592
0.832323
1.01665
1.13246
1.13994
1.14293
1.14537
1.17045
1.18591
1.19289
1.20225
1.21608
1.23094
1.24476
1.25726
1.26823
1.27807
1.28787
1.29857
1.31061
1.32519
1.34477
1.3681
1.38829
1.39804
1.3999
1.4
0.32977
0.329779
0.329784
0.329791
0.329796
0.329799
0.329797
0.329791
0.329779
0.329779
0.329783
0.329782
0.329789
0.329835
0.329897
0.329948
0.330008
0.330002
0.329953
0.329873
0.32978
0.329572
0.329256
0.328383
0.326751
0.324864
0.322724
0.321252
0.320423
0.320028
0.320518
0.320446
0.320876
0.324053
0.329031
0.334157
0.341814
0.351202
0.359485
0.36605
0.373662
0.381983
0.389693
0.398721
0.408131
0.41654
0.42631
0.436938
0.447351
0.458342
0.469635
0.482078
0.495487
0.508123
0.553238
0.71875
0.922349
1.06287
1.12845
1.14764
1.18214
1.18347
1.18555
1.19535
1.2118
1.22702
1.23946
1.25081
1.26172
1.27253
1.28339
1.29466
1.30754
1.32385
1.34499
1.36888
1.38911
1.39832
1.39993
1.4
0.329798
0.329799
0.3298
0.329803
0.329808
0.329809
0.329802
0.329768
0.329712
0.329684
0.329668
0.329638
0.329619
0.329644
0.329695
0.329649
0.329475
0.329293
0.329081
0.32874
0.328301
0.327529
0.326411
0.325107
0.323344
0.321767
0.320171
0.319527
0.319602
0.319463
0.319854
0.321206
0.323774
0.328749
0.337321
0.345287
0.351288
0.357773
0.365969
0.373553
0.381273
0.389502
0.397857
0.405951
0.415131
0.425176
0.434599
0.444596
0.456095
0.467448
0.47943
0.491652
0.504575
0.518392
0.532369
0.551343
0.63015
0.845884
1.066
1.13756
1.17957
1.1707
1.17535
1.19174
1.20774
1.22223
1.23512
1.2457
1.25591
1.26682
1.27862
1.29121
1.30486
1.32179
1.34451
1.36979
1.39004
1.3986
1.39995
1.4
0.329805
0.329798
0.329787
0.329777
0.329776
0.32977
0.329741
0.329681
0.329604
0.329539
0.329488
0.329412
0.329326
0.329221
0.329102
0.328996
0.328768
0.328436
0.328073
0.327434
0.326484
0.325297
0.323762
0.322283
0.320788
0.319737
0.319351
0.319171
0.31947
0.319707
0.321033
0.325881
0.333175
0.339044
0.344455
0.352101
0.359833
0.365922
0.372938
0.380885
0.3886
0.396824
0.405757
0.414561
0.423297
0.433185
0.443499
0.454202
0.464883
0.475982
0.488173
0.500584
0.513469
0.527509
0.542342
0.557568
0.572614
0.615758
0.772771
0.99649
1.12936
1.13861
1.16202
1.18836
1.20165
1.21327
1.22645
1.23898
1.25023
1.2618
1.27397
1.28693
1.30194
1.32122
1.34497
1.37099
1.39103
1.39886
1.39996
1.4
0.329765
0.329744
0.32972
0.329712
0.329711
0.329693
0.329648
0.329586
0.329509
0.32941
0.329331
0.329235
0.329123
0.328973
0.328743
0.328513
0.328296
0.327867
0.327242
0.326205
0.324724
0.32311
0.321405
0.320137
0.319475
0.319343
0.319405
0.31958
0.320493
0.324269
0.329906
0.334728
0.340411
0.347639
0.352996
0.358594
0.366012
0.37376
0.381229
0.38929
0.397268
0.405622
0.414107
0.42348
0.433128
0.442511
0.452008
0.462228
0.473154
0.485045
0.496707
0.509423
0.523072
0.536571
0.551748
0.56782
0.58366
0.601051
0.627698
0.75676
0.964379
1.1046
1.16898
1.18119
1.18837
1.19867
1.21262
1.22819
1.24251
1.25541
1.26876
1.28305
1.29889
1.31935
1.34526
1.37246
1.3921
1.3991
1.39998
1.40001
0.329681
0.329681
0.329677
0.329669
0.329662
0.329632
0.329575
0.329519
0.329453
0.329332
0.329244
0.329245
0.329193
0.329084
0.328826
0.328353
0.327947
0.327145
0.325698
0.323957
0.322185
0.32082
0.3199
0.319557
0.319628
0.320005
0.32106
0.324132
0.328096
0.331973
0.337223
0.342729
0.347101
0.353076
0.360845
0.367293
0.374193
0.382599
0.389842
0.397733
0.406291
0.414481
0.423097
0.431341
0.440069
0.449945
0.460584
0.470914
0.481885
0.49369
0.506167
0.519187
0.532843
0.546854
0.561469
0.577347
0.595081
0.61121
0.629772
0.654681
0.75084
0.96925
1.12729
1.15409
1.17153
1.18637
1.20168
1.21728
1.23297
1.24825
1.26277
1.27819
1.29647
1.31936
1.34628
1.3742
1.39321
1.39932
1.39999
1.40001
0.329692
0.329695
0.32969
0.329679
0.329648
0.329602
0.329526
0.329491
0.32946
0.32937
0.329297
0.329301
0.329253
0.32909
0.328676
0.32766
0.325946
0.324148
0.3225
0.321433
0.320753
0.320195
0.320352
0.320869
0.321662
0.324028
0.326635
0.32969
0.334569
0.338555
0.342475
0.348825
0.355344
0.360986
0.368659
0.376929
0.38394
0.391181
0.399296
0.406467
0.414359
0.422323
0.430852
0.440393
0.449965
0.458966
0.469166
0.480712
0.49218
0.503903
0.516655
0.52978
0.543499
0.558913
0.573497
0.589117
0.605508
0.624003
0.642464
0.661026
0.684482
0.772652
0.957764
1.10051
1.16334
1.18654
1.19928
1.21156
1.22421
1.24001
1.25713
1.27391
1.293
1.31808
1.34751
1.37627
1.39435
1.39951
1.39999
1.40001
0.329706
0.329643
0.329559
0.329487
0.329454
0.32944
0.329432
0.329426
0.329406
0.329351
0.329221
0.328942
0.328315
0.327104
0.325577
0.324043
0.322525
0.321571
0.32106
0.320752
0.321089
0.321643
0.322204
0.323926
0.325617
0.327825
0.331642
0.334501
0.338687
0.344767
0.350463
0.356407
0.364702
0.37247
0.378523
0.385791
0.393276
0.399637
0.407125
0.414829
0.42241
0.431218
0.43932
0.448044
0.45817
0.469047
0.479341
0.490104
0.502114
0.514242
0.526946
0.540132
0.553768
0.568473
0.585151
0.601456
0.618435
0.636205
0.654464
0.673858
0.693081
0.720222
0.806238
0.988053
1.12322
1.16891
1.18555
1.20038
1.21713
1.23291
1.2498
1.26907
1.29162
1.31848
1.34938
1.37861
1.39546
1.39967
1.4
1.40001
0.329565
0.329465
0.329353
0.329285
0.329249
0.329174
0.329024
0.328764
0.328359
0.327749
0.326804
0.325539
0.32423
0.323048
0.322067
0.321524
0.321019
0.320791
0.320992
0.321248
0.321645
0.32306
0.324222
0.326058
0.329083
0.33122
0.335857
0.341842
0.346809
0.353468
0.361766
0.368555
0.374382
0.381444
0.388081
0.393786
0.400902
0.408283
0.414841
0.423138
0.431182
0.439708
0.44961
0.459073
0.468099
0.478286
0.48948
0.500678
0.512255
0.524815
0.537486
0.551049
0.565594
0.579854
0.595249
0.6126
0.629988
0.648591
0.668071
0.689159
0.708791
0.729222
0.759504
0.846945
1.00223
1.11406
1.15931
1.18199
1.2027
1.22367
1.24336
1.26361
1.28833
1.31852
1.35186
1.38127
1.39652
1.39979
1.4
1.40001
0.328925
0.328751
0.328566
0.328349
0.328087
0.327722
0.327168
0.326369
0.325387
0.324332
0.323261
0.322193
0.321314
0.320877
0.320527
0.32048
0.320633
0.320513
0.320715
0.321404
0.321817
0.323715
0.326713
0.329
0.333775
0.340558
0.345667
0.352356
0.359969
0.365742
0.371319
0.377822
0.383402
0.38877
0.395755
0.402549
0.408654
0.416587
0.424688
0.432502
0.441489
0.449923
0.458702
0.468549
0.479172
0.489283
0.499732
0.511217
0.522915
0.535234
0.548232
0.561948
0.576491
0.591909
0.607697
0.624195
0.64246
0.660779
0.681047
0.701487
0.723284
0.743721
0.766986
0.804061
0.896866
1.03833
1.12965
1.16736
1.18972
1.21205
1.23536
1.25939
1.28791
1.31993
1.35506
1.38413
1.39748
1.39988
1.4
1.40001
0.328377
0.32821
0.327964
0.327515
0.326841
0.326076
0.325201
0.324151
0.323023
0.322038
0.321283
0.320658
0.320297
0.320363
0.320381
0.32025
0.320404
0.320675
0.321063
0.323131
0.326782
0.329615
0.334416
0.341362
0.346385
0.352186
0.358483
0.363233
0.368651
0.374391
0.379235
0.3847
0.391383
0.397545
0.403638
0.411511
0.419293
0.426293
0.434609
0.442718
0.451037
0.460368
0.469503
0.478613
0.488223
0.499001
0.510255
0.521783
0.533921
0.546539
0.559962
0.573781
0.5882
0.603924
0.620574
0.637238
0.655375
0.674397
0.693974
0.715417
0.738484
0.761085
0.782621
0.810584
0.855481
0.94844
1.06516
1.14178
1.17954
1.20347
1.22581
1.25258
1.28558
1.32202
1.35915
1.38713
1.39829
1.39994
1.4
1.40001
0.327706
0.327067
0.326167
0.325045
0.323748
0.322695
0.322007
0.321451
0.320961
0.320567
0.320366
0.320283
0.32026
0.320306
0.320584
0.321118
0.32219
0.325074
0.329113
0.332378
0.336713
0.342452
0.3466
0.351359
0.356646
0.360686
0.366115
0.371381
0.375654
0.381654
0.388082
0.393863
0.400271
0.407842
0.414992
0.421406
0.429139
0.436954
0.444327
0.452597
0.460964
0.469366
0.478756
0.489044
0.49919
0.509391
0.520646
0.532275
0.544715
0.55764
0.571276
0.585737
0.600641
0.616713
0.632932
0.651111
0.668475
0.688146
0.708749
0.730356
0.752324
0.775916
0.799093
0.824083