/*--------------------------------*- C++ -*----------------------------------*\
  =========                 |
  \\      /  F ield         | OpenFOAM: The Open Source CFD Toolbox
   \\    /   O peration     | Website:  https://openfoam.org
    \\  /    A nd           | Version:  7
     \\/     M anipulation  |
\*---------------------------------------------------------------------------*/
FoamFile
{
    version     2.0;
    format      ascii;
    class       volScalarField;
    location    "7";
    object      T;
}
// * * * * * * * * * * * * * * * * * * * * * * * * * * * * * * * * * * * * * //

dimensions      [0 0 0 1 0 0 0];

internalField   nonuniform List<scalar> 
1750
(
1.14515
1.28993
1.34346
1.38563
1.42617
1.40869
1.37665
1.34645
1.34701
1.34283
0.692795
0.801705
0.985486
1.10176
1.19659
1.26949
1.30259
1.32612
1.3605
1.35571
0.611711
0.61947
0.607212
0.622784
0.699697
0.836827
1.01697
1.16067
1.22826
1.28781
0.594365
0.603368
0.611358
0.602278
0.589992
0.590247
0.614316
0.746274
0.88768
1.10007
0.621801
0.621281
0.637168
0.66425
0.677779
0.681368
0.684573
0.693224
0.692112
0.791763
0.754378
0.732683
0.732491
0.743738
0.749823
0.747848
0.745528
0.74086
0.727689
0.730451
0.859107
0.849439
0.827748
0.811667
0.808508
0.802424
0.794475
0.793073
0.794152
0.791412
0.944074
0.934257
0.928308
0.917512
0.905151
0.888471
0.869548
0.867434
0.865495
0.852994
1.07077
1.03481
1.02342
1.01253
0.994869
0.97643
0.956446
0.937213
0.925562
0.907546
1.21382
1.18146
1.14737
1.11908
1.09211
1.06384
1.04056
1.01834
0.999383
0.973588
1.3064
1.29178
1.26982
1.23865
1.20703
1.17564
1.14301
1.11097
1.08327
1.04454
1.29325
1.2951
1.29482
1.29033
1.2812
1.26776
1.24685
1.21835
1.18725
1.13707
1.19063
1.22287
1.2417
1.25475
1.2638
1.26469
1.26273
1.25786
1.25131
1.22472
1.03421
1.05616
1.08753
1.12024
1.15537
1.18705
1.20832
1.22622
1.22967
1.23515
1.00088
1.002
1.00514
1.01131
1.02408
1.04626
1.07894
1.12176
1.16479
1.2387
0.770183
0.671909
0.596291
0.593343
0.646182
0.763964
0.859678
0.966621
1.10604
1.24321
1.31598
1.29224
1.16516
1.02133
1.00044
0.809158
0.662064
0.562177
0.606206
0.687469
0.787498
0.886805
1.0197
1.15309
1.28475
1.32364
1.28148
1.12062
1.00871
1.00014
0.813655
0.640493
0.542765
0.620928
0.705272
0.800663
0.914428
1.05754
1.19521
1.31433
1.32572
1.25764
1.07133
1.00314
1.00004
0.800248
0.618164
0.531013
0.623262
0.714624
0.835799
0.988362
1.10785
1.25049
1.33027
1.32129
1.20584
1.03759
1.00111
1.00001
0.789177
0.61061
0.528332
0.661821
0.76045
0.913884
1.03711
1.15875
1.29554
1.34087
1.30877
1.1611
1.01854
1.00036
1
0.782325
0.611946
0.586394
0.721752
0.838018
0.968856
1.08186
1.22045
1.33167
1.35135
1.29105
1.10712
1.00651
1.0001
1
0.738748
0.606044
0.651444
0.754991
0.885585
1.00889
1.1371
1.28562
1.35581
1.3537
1.24637
1.04848
1.00164
1.00002
1
0.727361
0.62204
0.662763
0.782349
0.920488
1.0687
1.22663
1.33617
1.36501
1.33715
1.15992
1.01704
1.0004
1
1
0.72813
0.654202
0.672198
0.836978
1.01267
1.15924
1.29775
1.36806
1.36807
1.28243
1.08923
1.00534
1.00009
1
1
0.733496
0.662154
0.748658
0.974303
1.11904
1.24247
1.35068
1.38197
1.36635
1.22005
1.03688
1.00113
1.00002
1
1
0.618443
0.674421
0.892752
1.07886
1.20467
1.31376
1.38578
1.38545
1.32392
1.11877
1.0086
1.00018
1
1
1
0.436778
0.783421
1.03576
1.17694
1.29314
1.37409
1.39799
1.38456
1.23204
1.04261
1.00168
1.00003
1
1
1
0.399917
0.953099
1.15842
1.27363
1.36699
1.40522
1.40103
1.32321
1.10935
1.00832
1.0002
1
1
1
1
0.730066
1.10634
1.27907
1.35589
1.40836
1.41106
1.37887
1.19754
1.02878
1.00095
1.00002
1
1
1
1
1.11873
1.30267
1.36913
1.39943
1.42147
1.40107
1.28343
1.06289
1.00262
1.00005
1
1
1
1
1
1.40189
1.39935
1.40121
1.41588
1.42452
1.33353
1.10295
0.996164
0.999579
0.999993
1
1
1
1
1
1.40001
1.3993
1.39829
1.41401
1.42564
1.30532
1.06251
1.00213
1.00002
1
1
1
1
1
1
1.3881
1.40176
1.41451
1.4184
1.40222
1.19676
1.01042
1.00003
1
1
1
1
1
1
1
1.37993
1.40406
1.43088
1.42407
1.34518
1.10093
1.00217
1.00001
1
1
1
1
1
1
1
1.37663
1.40617
1.43808
1.42697
1.26145
1.0252
1.00013
1
1
1
1
1
1
1
1
1.37677
1.40757
1.44068
1.37901
1.1286
1.00323
1.00001
1
1
1
1
1
1
1
1
1.40292
1.40841
1.43757
1.2937
1.04331
1.00031
1
1
1
1
1
1
1
1
1
1.44905
1.41165
1.39512
1.15629
1.00474
1.00001
1
1
1
1
1
1
1
1
1
1.49284
1.37535
1.28232
1.04464
1.00035
1
1
1
1
1
1
1
1
1
1
1.51091
1.33814
1.14423
1.00553
1.00002
1
1
1
1
1
1
1
1
1
1
1.49511
1.26139
1.04922
1.00056
1
1
1
1
1
1
1
1
1
1
1
1.42849
1.17506
1.01268
1.00006
1
1
1
1
1
1
1
1
1
1
1
1.34633
1.09025
1.00224
1.00001
1
1
1
1
1
1
1
1
1
1
1
1.22833
1.03136
1.00029
1
1
1
1
1
1
1
1
1
1
1
1
1.10294
1.00533
1.00002
1
1
1
1
1
1
1
1
1
1
1
1
1
1
1
1
1
1
1
1
1
1
1
1
1
1
1
1
1
1
1
1
1
1
1
1
1
1
1
1
1
1
1
1
1
1
1
1
1
1
1
1
1
1
1
1
1
1
1
1
1
1
1
1
1
1
1
1
1
1
1
1
1
1
1
1
1
1
1
1
1
1
1
1
1
1
1
1
1
1
1
1
1
1
1
1
1
1
1
1
1
1
1
1
1
1
1
1
1
1
1
1
1
1
1
1
1
1
1
1
1
1
1
1
1
1
1
1
1
1
1
1
1
1
1
1
1
1
1
1
1
1
1
1
1
1
1
1
1
1
1
1
1
1
1
1
1
1
1
1
1
1
1
1
1
1
1
1
1
1
1
1
1
1
1
1
1
1
1
1
1
1
1
1
1
1
1
1
1
1
1
1
1
1
1
1
1
1
1
1
1
1
1
1
1
1
1
1
1
1
1
1
1
1
1
1
1
1
1
1
1
1
1
1
1
1
1
1
1
1
1
1
1
1
1
1
1
1
1
1
1
1
1
1
1
1
1
1
1
1
1
1
1
1
1
1
1
1
1
1
1
1
1
1
1
1
1
1
1
1
1
1
1
1
1
1
1
1
1
1
1
1
1
1
1
1
1
1
1
1
1
1
1
1
1
1
1
1
1
1
1
1
1
1
1
1
1
1
1
1
1
1
1
1
1
1
1
1
1
1
1
1
1
1
1
1
1
1
1
1
1
1
1
1
1
1
1
1
1
1
1
1
1
1
1
1
1
1
1
1
1
1
1
1
1
1
1
1
1
1
1
1
1.1954
1.00485
1
1
1
1
1
1
1
1
1
1
1
1
1
1
1
1
1
1
1.41564
1.07977
0.999777
1
1
1
1
1
1
1
1
1
1
1
1
1
1
1
1
1
1.62918
1.24281
1.00491
0.999986
1
1
1
1
1
1
1
1
1
1
1
1
1
1
1
1
1.74353
1.47941
1.152
1.00031
1
1
1
1
1
1
1
1
1
1
1
1
1
1
1
1
1.7195
1.5879
1.47821
1.08803
0.999883
1
1
1
1
1
1
1
1
1
1
1
1
1
1
1
1.64916
1.62918
1.65259
1.42813
1.0416
0.999908
0.999999
1
1
1
1
1
1
1
1
1
1
1
1
1
1.58223
1.61383
1.65927
1.61273
1.28945
1.00874
0.999978
0.999999
1
1
1
1
1
1
1
1
1
1
1
1
1.57932
1.60211
1.64726
1.65311
1.52605
1.12801
1.00029
1
1
1
1
1
1
1
1
1
1
1
1
1
1.58647
1.60109
1.62609
1.64743
1.65066
1.40632
1.04056
0.999952
0.999999
1
1
1
1
1
1
1
1
1
1
1
1.59759
1.60079
1.61117
1.63605
1.65029
1.56103
1.22986
1.00483
0.999992
1
1
1
1
1
1
1
1
1
1
1
1.59894
1.60196
1.61185
1.6297
1.64625
1.63923
1.45725
1.07347
1.00007
1
1
1
1
1
1
1
1
1
1
1
1.60034
1.60437
1.6152
1.63001
1.64339
1.64097
1.56555
1.27412
1.01093
0.999994
1
1
1
1
1
1
1
1
1
1
1.60537
1.61003
1.61862
1.62923
1.63696
1.63766
1.60113
1.44492
1.09235
1.00026
1
1
1
1
1
1
1
1
1
1
1.61132
1.61297
1.61856
1.62786
1.63376
1.63772
1.62833
1.58976
1.29861
1.0226
1.00023
1
1
1
1
1
1
1
1
1
1.61516
1.61618
1.62231
1.63115
1.63654
1.64017
1.63527
1.59806
1.43933
1.05821
0.994934
0.999705
0.999997
1
1
1
1
1
1
1
1.23921
1.45942
1.54011
1.58683
1.61652
1.63328
1.63452
1.61819
1.59379
1.40326
1.111
1.00611
1.00012
1
1
1
1
1
1
1
0.767768
1.2532
1.39494
1.47403
1.54368
1.59253
1.6187
1.61183
1.62829
1.59176
1.3875
1.09446
1.00505
1.0001
1
1
1
1
1
1
0.749868
1.05951
1.22822
1.33697
1.42452
1.50988
1.56252
1.59105
1.62033
1.61752
1.5628
1.3279
1.06048
1.00244
1.00004
1
1
1
1
1
0.805693
0.894397
1.03167
1.19157
1.29915
1.3981
1.4825
1.54036
1.58558
1.60854
1.60425
1.52966
1.25063
1.02967
1.00083
1.00001
1
1
1
1
0.974671
0.884658
0.894382
1.01011
1.16815
1.27919
1.38729
1.46239
1.52683
1.57026
1.59908
1.59276
1.46533
1.15647
1.01006
1.00017
1
1
1
1
1.04213
0.870833
0.831305
0.915815
1.05103
1.17048
1.28397
1.38479
1.44766
1.51232
1.56851
1.58963
1.56272
1.3645
1.07299
1.00261
1.00003
1
1
1
1.07763
0.870838
0.778582
0.879206
0.973089
1.08966
1.19292
1.30842
1.3758
1.45281
1.51983
1.57372
1.57236
1.49421
1.21959
1.01909
1.00036
1
1
1
1.06889
0.876251
0.763002
0.825701
0.896274
1.01774
1.11315
1.2158
1.31307
1.37587
1.45509
1.53136
1.56597
1.54956
1.38607
1.09166
1.00329
1.00004
1
1
1.0361
0.884669
0.785652
0.811278
0.847462
0.940723
1.0484
1.13781
1.25085
1.31361
1.39068
1.47118
1.54073
1.54816
1.47413
1.2232
1.02042
1.00034
1
1
0.985773
0.890525
0.824832
0.797988
0.823398
0.886348
0.996176
1.09232
1.18768
1.27191
1.3417
1.42016
1.50115
1.5418
1.52387
1.3493
1.07828
1.00249
1.00003
1
0.943978
0.897143
0.846326
0.786881
0.797005
0.856599
0.940425
1.04911
1.13029
1.2261
1.29418
1.36884
1.44663
1.52076
1.52759
1.44777
1.18052
1.01329
1.00019
1
0.942993
0.910279
0.855348
0.787293
0.775185
0.832704
0.889795
1.0034
1.08843
1.16612
1.24198
1.31078
1.38732
1.4748
1.52063
1.50268
1.31159
1.04904
1.00112
1.00001
0.952358
0.930924
0.862394
0.788605
0.766949
0.81965
0.855256
0.944538
1.04857
1.1138
1.20477
1.27502
1.35189
1.43151
1.50249
1.50237
1.41325
1.13691
1.0063
1.00007
0.9654
0.933015
0.859958
0.78898
0.765882
0.803826
0.842876
0.913716
1.01942
1.09085
1.17312
1.24383
1.31684
1.39448
1.47199
1.49466
1.44415
1.23397
1.02445
1.00036
0.963726
0.934668
0.865426
0.791194
0.766389
0.783667
0.826183
0.878904
0.973244
1.05539
1.12166
1.20439
1.26672
1.34407
1.42954
1.47988
1.45852
1.30561
1.05954
1.00157
1.04679
0.894365
0.83305
0.786122
0.771365
0.77724
0.813547
0.880039
0.944385
1.03588
1.09313
1.17539
1.2447
1.31001
1.39771
1.46747
1.46504
1.37827
1.11968
1.00512
1.14272
0.907639
0.825979
0.793053
0.781703
0.776346
0.795396
0.87984
0.927994
1.01316
1.07889
1.14251
1.2254
1.2881
1.36042
1.444
1.4647
1.41322
1.20366
1.01899
1.19512
0.941938
0.820494
0.794661
0.78165
0.775486
0.793054
0.875253
0.918603
0.985735
1.06633
1.1223
1.1934
1.26516
1.32768
1.40258
1.45704
1.42807
1.27906
1.05214
1.26502
1.02516
0.833002
0.793248
0.780043
0.773325
0.795963
0.863762
0.913045
0.965276
1.04102
1.1078
1.16423
1.2297
1.29867
1.36939
1.44032
1.43307
1.33734
1.11414
1.33214
1.09025
0.861129
0.78354
0.775165
0.769933
0.803215
0.850597
0.903148
0.959844
1.01379
1.08409
1.14736
1.20674
1.26746
1.3378
1.41477
1.4316
1.37668
1.20783
1.34619
1.16458
0.959995
0.788326
0.771692
0.773628
0.810871
0.84181
0.880779
0.951118
1.00202
1.05573
1.12258
1.18649
1.24207
1.30222
1.37627
1.42314
1.39143
1.31205
1.33756
1.22234
1.05887
0.837783
0.769593
0.779208
0.811834
0.836538
0.867648
0.933648
0.98909
1.04006
1.09421
1.15846
1.21708
1.27049
1.33198
1.40043
1.40008
1.41026
1.30768
1.23387
1.11077
0.963686
0.787417
0.776915
0.810237
0.83056
0.87034
0.923542
0.969236
1.02367
1.07419
1.13014
1.18792
1.24087
1.29645
1.36663
1.42245
1.48916
1.29565
1.23011
1.14773
1.05467
0.84896
0.774752
0.805298
0.827934
0.873991
0.91503
0.952909
1.00792
1.05817
1.11021
1.16379
1.21376
1.26313
1.33218
1.43292
1.56031
1.29934
1.23221
1.17642
1.11641
1.01952
0.838003
0.801382
0.824041
0.866633
0.896643
0.932165
0.982719
1.02858
1.07781
1.12689
1.17392
1.22009
1.30412
1.45468
1.63379
)
;

boundaryField
{
    inlet
    {
        type            fixedValue;
        value           uniform 1;
    }
    outlet
    {
        type            inletOutlet;
        inletValue      uniform 1;
        value           nonuniform List<scalar> 
35
(
1.29942
1.23224
1.17632
1.11631
1.01929
0.837761
0.801163
0.823986
0.866643
0.896635
0.932148
0.98264
1.02856
1.07786
1.12693
1.17394
1.22007
1.30409
1.45457
1.63357
1.34295
1.35586
1.28804
1.10025
0.791788
0.73035
0.79122
0.852868
0.907643
0.973594
1.04448
1.13704
1.22472
1.23515
1.23872
)
;
    }
    airfoil
    {
        type            zeroGradient;
    }
    top
    {
        type            symmetryPlane;
    }
    bottom
    {
        type            symmetryPlane;
    }
    defaultFaces
    {
        type            empty;
    }
}


// ************************************************************************* //
