/*--------------------------------*- C++ -*----------------------------------*\
  =========                 |
  \\      /  F ield         | OpenFOAM: The Open Source CFD Toolbox
   \\    /   O peration     | Website:  https://openfoam.org
    \\  /    A nd           | Version:  7
     \\/     M anipulation  |
\*---------------------------------------------------------------------------*/
FoamFile
{
    version     2.0;
    format      ascii;
    class       volScalarField;
    location    "15";
    object      T;
}
// * * * * * * * * * * * * * * * * * * * * * * * * * * * * * * * * * * * * * //

dimensions      [0 0 0 1 0 0 0];

internalField   nonuniform List<scalar> 
90000
(
0.725382
0.772401
0.810651
0.839543
0.866511
0.887365
0.902444
0.917617
0.932232
0.944844
0.956269
0.968464
0.980544
0.992047
1.00396
1.01607
1.02824
1.04014
1.05269
1.06423
1.0754
1.08393
1.09244
1.09489
1.09751
1.09855
1.09801
1.09679
1.09574
1.09437
1.09312
1.09135
1.08928
1.08714
1.08489
1.08259
1.08022
1.07779
1.07562
1.07526
1.07609
1.07754
1.07927
1.08108
1.08267
1.08406
1.08497
1.08563
1.08503
1.08328
1.0807
1.07842
1.0768
1.07643
1.07698
1.07837
1.0799
1.0811
1.08089
1.07978
1.07806
1.07621
1.07463
1.07481
1.07594
1.07733
1.07772
1.07735
1.07629
1.07477
1.07389
1.07414
1.07499
1.07536
1.07498
1.07401
1.07302
1.07302
1.07331
1.07348
1.07317
1.07263
1.0722
1.07211
1.07195
1.0717
1.07142
1.07115
1.07081
1.07043
1.07003
1.06976
1.06954
1.06921
1.06882
1.0685
1.06814
1.06768
1.06716
1.06651
0.680597
0.68053
0.680452
0.680375
0.680444
0.680725
0.681264
0.682379
0.684333
0.687471
0.691794
0.698386
0.706979
0.718799
0.733053
0.751641
0.772448
0.797917
0.824811
0.855897
0.885628
0.91625
0.944409
0.970036
0.992197
1.01123
1.02807
1.04132
1.05373
1.06234
1.07067
1.07491
1.0793
1.08058
1.08263
1.08269
1.0832
1.0831
1.08453
1.087
1.09026
1.09238
1.09383
1.09485
1.09466
1.09417
1.0935
1.09205
1.08874
1.08553
1.08342
1.08358
1.08357
1.08413
1.08545
1.08674
1.08815
1.08774
1.08661
1.08446
1.08273
1.08167
1.08203
1.08262
1.08359
1.0848
1.08429
1.08304
1.0815
1.08055
1.08089
1.08198
1.08193
1.08141
1.08032
1.07954
1.07929
1.07997
1.07996
1.07968
1.07886
1.07815
1.078
1.07829
1.07816
1.07776
1.07738
1.07711
1.07678
1.07639
1.07608
1.07587
1.07556
1.07518
1.07484
1.07454
1.07419
1.07374
1.07328
1.07261
0.679493
0.679424
0.679347
0.679269
0.679185
0.679104
0.679001
0.678879
0.678744
0.678604
0.678458
0.678303
0.678143
0.677984
0.677827
0.677671
0.677514
0.677355
0.677421
0.677908
0.679236
0.682641
0.688644
0.700184
0.71627
0.740237
0.767675
0.801537
0.834961
0.871054
0.903817
0.936063
0.964807
0.99114
1.01545
1.03591
1.05555
1.07002
1.08248
1.0885
1.0922
1.09339
1.09434
1.09472
1.09448
1.09337
1.0901
1.08476
1.08121
1.08184
1.08354
1.0854
1.0881
1.09017
1.09122
1.09097
1.09012
1.08793
1.08519
1.08334
1.08296
1.08351
1.08543
1.08827
1.08815
1.08743
1.08587
1.08371
1.08244
1.08279
1.08418
1.08548
1.08501
1.0837
1.08236
1.08176
1.08208
1.08306
1.08306
1.08242
1.08157
1.08112
1.0812
1.08114
1.08104
1.08084
1.08057
1.08027
1.07996
1.07965
1.07939
1.07924
1.07898
1.07864
1.0783
1.0781
1.07778
1.07741
1.07705
1.07667
0.677778
0.6777
0.677617
0.67753
0.677442
0.677351
0.677257
0.677161
0.677063
0.676963
0.676863
0.676759
0.676655
0.67655
0.676444
0.676338
0.67623
0.67612
0.67601
0.675904
0.675771
0.675629
0.675488
0.675354
0.675224
0.675117
0.674955
0.675011
0.675447
0.677385
0.681772
0.692198
0.708306
0.735526
0.767622
0.809437
0.850215
0.894642
0.933211
0.967248
0.995685
1.01738
1.03654
1.04803
1.05824
1.0629
1.06672
1.0695
1.07697
1.08268
1.08823
1.09102
1.09334
1.09303
1.09219
1.09054
1.08599
1.08248
1.08111
1.08158
1.0829
1.08576
1.0892
1.08927
1.08829
1.08556
1.08327
1.08219
1.0825
1.08453
1.0867
1.08647
1.08514
1.08289
1.08181
1.08212
1.08349
1.0841
1.08365
1.08234
1.08165
1.08179
1.08212
1.08202
1.0817
1.08151
1.0814
1.08117
1.08081
1.08052
1.08049
1.08039
1.08017
1.07993
1.07976
1.07965
1.07944
1.07914
1.07886
1.07857
0.676137
0.676077
0.676014
0.675951
0.675887
0.675821
0.675755
0.675687
0.675619
0.67555
0.675479
0.675407
0.675335
0.675263
0.675193
0.675123
0.675055
0.674986
0.674919
0.674851
0.674785
0.674721
0.674659
0.674601
0.674544
0.67449
0.674438
0.67439
0.674335
0.674279
0.674224
0.674175
0.674131
0.674097
0.674048
0.674346
0.675713
0.681258
0.692843
0.717952
0.751547
0.798281
0.844856
0.893459
0.936881
0.975362
1.01204
1.04095
1.06204
1.07133
1.07785
1.08079
1.08329
1.0843
1.08354
1.08
1.07639
1.07683
1.07817
1.08184
1.08479
1.08639
1.08601
1.08519
1.08226
1.07969
1.07929
1.08026
1.08319
1.08534
1.085
1.08376
1.08151
1.08023
1.08055
1.08242
1.08351
1.08316
1.08186
1.08115
1.08121
1.08183
1.08201
1.08171
1.08142
1.0813
1.08124
1.08107
1.08076
1.08054
1.0806
1.08054
1.08033
1.08008
1.08001
1.07993
1.07979
1.07947
1.07923
1.07918
0.674942
0.674908
0.674873
0.674838
0.674802
0.674767
0.674732
0.674697
0.674661
0.674625
0.674588
0.674551
0.674514
0.674478
0.674443
0.674408
0.674373
0.67434
0.674307
0.674275
0.674243
0.674211
0.674181
0.674151
0.674122
0.674093
0.674065
0.674039
0.674014
0.673991
0.67397
0.673952
0.673934
0.673917
0.673902
0.673884
0.673864
0.673849
0.673833
0.673818
0.673786
0.674018
0.675598
0.682948
0.699657
0.734927
0.782451
0.843918
0.898695
0.946984
0.985936
1.01204
1.03654
1.04727
1.05786
1.06092
1.06762
1.07536
1.08208
1.08653
1.0866
1.08591
1.08271
1.07636
1.07368
1.07454
1.07707
1.08071
1.08416
1.08384
1.08165
1.07819
1.07687
1.07789
1.08054
1.08224
1.08189
1.08002
1.0789
1.07917
1.08027
1.08087
1.08058
1.08019
1.08011
1.08033
1.08033
1.0801
1.07989
1.08007
1.08026
1.08011
1.07986
1.07969
1.07978
1.07971
1.07952
1.07928
1.0791
1.07914
0.674307
0.674292
0.674275
0.674258
0.674241
0.674224
0.674208
0.674191
0.674174
0.674156
0.674137
0.674119
0.674101
0.674083
0.674065
0.674047
0.67403
0.674013
0.673998
0.673982
0.673966
0.673951
0.673936
0.673921
0.673906
0.673891
0.673876
0.673863
0.67385
0.673838
0.673827
0.673815
0.673804
0.673795
0.673786
0.673777
0.673773
0.673768
0.673758
0.673741
0.673721
0.673693
0.673658
0.673614
0.673573
0.67352
0.673576
0.67556
0.683293
0.710341
0.751831
0.814513
0.873894
0.932618
0.983045
1.02265
1.05428
1.06791
1.07488
1.07896
1.07986
1.07734
1.07018
1.06795
1.06952
1.07502
1.07938
1.08031
1.08067
1.0779
1.07352
1.07337
1.07461
1.07795
1.07986
1.07969
1.07762
1.07605
1.07629
1.07759
1.07858
1.07846
1.07799
1.07798
1.0783
1.07855
1.07839
1.07815
1.07834
1.07883
1.07885
1.07866
1.07862
1.07873
1.07884
1.07875
1.07851
1.07846
1.0785
1.07875
0.674019
0.674011
0.674002
0.673992
0.673983
0.673973
0.673964
0.673954
0.673944
0.673933
0.673922
0.673912
0.673901
0.673891
0.67388
0.673869
0.673858
0.673849
0.673841
0.673833
0.673824
0.673816
0.673809
0.673801
0.673793
0.673783
0.673774
0.673765
0.673757
0.673749
0.673739
0.67373
0.67372
0.673711
0.673703
0.673696
0.673691
0.673682
0.673668
0.673647
0.673625
0.6736
0.673565
0.673523
0.673485
0.673453
0.673434
0.673407
0.673379
0.673353
0.67331
0.674148
0.679138
0.702798
0.745206
0.818698
0.888206
0.949628
0.993392
1.02392
1.04423
1.05171
1.05876
1.06691
1.07475
1.08216
1.08222
1.08082
1.07423
1.06904
1.06949
1.07184
1.07627
1.07953
1.07885
1.07552
1.07319
1.07349
1.07523
1.07697
1.07692
1.07608
1.0757
1.07602
1.07661
1.0765
1.07608
1.07612
1.07653
1.07705
1.07698
1.0768
1.07687
1.07713
1.07727
1.07715
1.07706
1.07713
1.0773
1.07771
0.673857
0.673851
0.673844
0.673837
0.67383
0.673823
0.673815
0.673807
0.6738
0.673792
0.673785
0.673778
0.67377
0.673763
0.673756
0.673748
0.673742
0.673738
0.673734
0.67373
0.673726
0.673721
0.673717
0.673711
0.673704
0.673696
0.673687
0.673678
0.673667
0.673655
0.673641
0.673629
0.673619
0.673608
0.673595
0.673588
0.673584
0.673574
0.673556
0.673534
0.673515
0.673492
0.673456
0.673419
0.673388
0.67337
0.67336
0.673349
0.673335
0.673316
0.673288
0.673261
0.673261
0.67327
0.67326
0.67429
0.681692
0.713863
0.771767
0.847605
0.919513
0.982463
1.03686
1.06412
1.07249
1.0789
1.07878
1.07376
1.06322
1.06545
1.07083
1.07618
1.07844
1.078
1.07457
1.07081
1.07108
1.07356
1.07566
1.07566
1.07509
1.07424
1.07443
1.07508
1.07537
1.07499
1.07441
1.07469
1.07532
1.07561
1.07522
1.07524
1.07546
1.07579
1.07574
1.07552
1.07554
1.07569
1.07596
1.07648
0.673709
0.673704
0.6737
0.673695
0.673691
0.673685
0.67368
0.673674
0.673669
0.673663
0.673658
0.673654
0.673648
0.673644
0.673639
0.673635
0.673631
0.67363
0.673629
0.673627
0.673622
0.673616
0.673609
0.673601
0.67359
0.673579
0.673566
0.673551
0.673536
0.67352
0.673503
0.673485
0.673468
0.673452
0.67344
0.673433
0.673425
0.673414
0.673398
0.673383
0.673369
0.673349
0.673324
0.673302
0.673298
0.673302
0.673306
0.673304
0.673298
0.673281
0.673249
0.673229
0.673232
0.673232
0.673218
0.673196
0.673193
0.673196
0.673259
0.676155
0.695087
0.750246
0.83418
0.920307
0.977306
1.02178
1.04338
1.05362
1.05915
1.07251
1.07923
1.08104
1.08006
1.07327
1.0691
1.06953
1.07253
1.07617
1.07609
1.07486
1.07288
1.07306
1.07423
1.075
1.07467
1.07353
1.0736
1.07431
1.07486
1.0747
1.07424
1.07433
1.07475
1.07498
1.07481
1.07459
1.07464
1.07483
1.07515
1.07562
0.673587
0.673583
0.67358
0.673577
0.673574
0.67357
0.673567
0.673563
0.67356
0.673556
0.673552
0.673548
0.673543
0.673539
0.673536
0.673534
0.673531
0.673527
0.673523
0.673519
0.673512
0.673502
0.67349
0.673478
0.673465
0.67345
0.673434
0.673415
0.673398
0.673382
0.673364
0.673343
0.673321
0.673305
0.673298
0.673294
0.67329
0.673283
0.673273
0.673263
0.673254
0.673244
0.67324
0.673242
0.673254
0.67327
0.673272
0.673271
0.673269
0.673251
0.673215
0.673199
0.673199
0.673193
0.673174
0.673158
0.673159
0.673166
0.673176
0.67319
0.673195
0.673177
0.674948
0.693987
0.747605
0.82882
0.917527
0.998776
1.05028
1.07087
1.07803
1.07954
1.07453
1.06583
1.06774
1.07294
1.07694
1.07694
1.07537
1.07224
1.07215
1.07353
1.07513
1.07497
1.07353
1.07295
1.07352
1.0748
1.07476
1.07394
1.07381
1.07416
1.0747
1.07464
1.07421
1.07422
1.07433
1.07456
1.07487
1.07526
0.673499
0.673495
0.673491
0.673487
0.673483
0.673479
0.673476
0.673472
0.673468
0.673464
0.67346
0.673456
0.673451
0.673445
0.673441
0.673438
0.673435
0.67343
0.673423
0.673415
0.673406
0.673394
0.673381
0.673367
0.673352
0.673337
0.67332
0.673298
0.67328
0.673268
0.673254
0.673239
0.673222
0.67321
0.67321
0.673214
0.673217
0.673217
0.673216
0.673212
0.673209
0.67321
0.673216
0.673228
0.67325
0.673257
0.673256
0.673257
0.673253
0.673233
0.673203
0.673188
0.67318
0.673171
0.673157
0.673145
0.673144
0.673149
0.673166
0.673185
0.673192
0.673184
0.673169
0.673156
0.673141
0.674876
0.696314
0.76176
0.869129
0.95116
1.00142
1.04556
1.05206
1.06492
1.0724
1.08052
1.08024
1.07781
1.07172
1.07147
1.07305
1.07609
1.07596
1.07418
1.07288
1.07335
1.07516
1.07557
1.07462
1.07367
1.07396
1.0748
1.07495
1.07445
1.07409
1.07421
1.07441
1.07462
1.07491
1.07521
0.673412
0.673408
0.673403
0.673398
0.673393
0.673389
0.673384
0.67338
0.673376
0.673372
0.673369
0.673365
0.67336
0.673356
0.673354
0.673352
0.673349
0.673344
0.67334
0.673335
0.673325
0.673314
0.673303
0.673289
0.673274
0.673259
0.673245
0.673229
0.67321
0.673198
0.673191
0.673186
0.673182
0.673183
0.673185
0.673192
0.673203
0.673208
0.673208
0.673205
0.673204
0.673206
0.673216
0.673241
0.67326
0.673261
0.673262
0.67326
0.673248
0.673225
0.673202
0.673184
0.67317
0.67316
0.673151
0.673142
0.673143
0.673152
0.673172
0.67319
0.673199
0.673194
0.673177
0.67316
0.673148
0.673138
0.673122
0.673107
0.679745
0.711229
0.800093
0.898548
0.984831
1.05545
1.07239
1.0811
1.07963
1.07059
1.06851
1.07225
1.07812
1.07796
1.07573
1.0727
1.073
1.0756
1.07682
1.076
1.07397
1.07391
1.07497
1.07556
1.07517
1.07431
1.07429
1.07446
1.07471
1.07486
1.07515
1.07533
0.673332
0.673326
0.67332
0.673315
0.673312
0.673309
0.673307
0.673305
0.673303
0.673299
0.673296
0.673294
0.673289
0.673286
0.673286
0.673285
0.673284
0.673282
0.673279
0.673275
0.673267
0.673258
0.67325
0.673241
0.673231
0.673219
0.673206
0.673191
0.673179
0.673174
0.673174
0.673175
0.67318
0.67319
0.673203
0.673214
0.673221
0.67322
0.673217
0.673212
0.673212
0.673215
0.673231
0.673256
0.673267
0.673267
0.673266
0.673258
0.67324
0.673218
0.673196
0.673182
0.673171
0.673162
0.673152
0.673143
0.673142
0.673152
0.673174
0.673192
0.673199
0.673194
0.673172
0.673137
0.673125
0.673133
0.673136
0.673143
0.673171
0.673218
0.673998
0.685968
0.758428
0.865539
0.956108
1.02793
1.04383
1.05932
1.06899
1.08104
1.08221
1.07921
1.07252
1.07261
1.07513
1.0783
1.07763
1.07476
1.07347
1.0747
1.07622
1.076
1.07487
1.0744
1.07465
1.07501
1.07509
1.0752
1.07549
1.0755
0.673241
0.673234
0.673229
0.673226
0.673223
0.673221
0.673218
0.673215
0.673211
0.67321
0.67321
0.67321
0.67321
0.673211
0.673213
0.673214
0.673213
0.673213
0.673213
0.673212
0.67321
0.673205
0.6732
0.673194
0.673189
0.673187
0.673184
0.673179
0.673173
0.673176
0.673185
0.673195
0.673208
0.673227
0.673232
0.673229
0.673226
0.67322
0.67321
0.673203
0.673202
0.673209
0.673233
0.673239
0.673234
0.673224
0.673214
0.673204
0.673192
0.673182
0.673175
0.673178
0.673183
0.673182
0.673175
0.673162
0.673154
0.673159
0.673174
0.673181
0.673184
0.673172
0.673128
0.673094
0.6731
0.673126
0.673176
0.673217
0.673293
0.673368
0.673367
0.673366
0.673363
0.678257
0.728699
0.825563
0.93465
1.02925
1.06461
1.07981
1.07885
1.06959
1.06964
1.07448
1.07897
1.0787
1.07511
1.07288
1.07366
1.07678
1.07671
1.07545
1.07435
1.07456
1.0753
1.07529
1.0753
1.07549
1.07575
1.07564
0.673153
0.673151
0.673149
0.673148
0.673145
0.673145
0.673145
0.673146
0.673148
0.673151
0.673153
0.673154
0.673156
0.67316
0.673164
0.673167
0.67317
0.673175
0.67318
0.673182
0.673182
0.673181
0.673178
0.673177
0.673181
0.673192
0.673195
0.673196
0.673205
0.673229
0.67325
0.673256
0.673255
0.67325
0.673243
0.673234
0.673223
0.673206
0.673188
0.673179
0.673174
0.673175
0.673173
0.67317
0.673173
0.673174
0.673171
0.673168
0.673167
0.673166
0.67317
0.673183
0.673203
0.673204
0.673199
0.673182
0.673159
0.673159
0.673166
0.673171
0.673169
0.673143
0.67309
0.67308
0.673092
0.673157
0.67324
0.673304
0.673381
0.673406
0.673397
0.673377
0.67336
0.673323
0.673224
0.674869
0.711196
0.806348
0.920721
1.00921
1.03819
1.05625
1.06797
1.08209
1.08161
1.07648
1.07099
1.07202
1.07634
1.07819
1.07672
1.07403
1.07413
1.07515
1.07564
1.07534
1.07539
1.07584
1.07591
1.07556
0.673107
0.673108
0.673109
0.67311
0.673111
0.673112
0.673116
0.673127
0.67314
0.673147
0.673152
0.673159
0.673165
0.67317
0.673173
0.673177
0.673181
0.673188
0.673194
0.673196
0.673198
0.673201
0.673207
0.673217
0.67324
0.673248
0.673247
0.673252
0.673275
0.67329
0.67329
0.673282
0.673266
0.67325
0.673238
0.673226
0.673207
0.67318
0.673154
0.673138
0.67313
0.673122
0.673114
0.673116
0.67313
0.673147
0.673149
0.67315
0.673161
0.673168
0.673169
0.673178
0.673199
0.67321
0.673204
0.67319
0.673157
0.673126
0.673125
0.673139
0.673143
0.673117
0.673078
0.673078
0.673119
0.673225
0.673311
0.673373
0.673413
0.673412
0.6734
0.673356
0.67329
0.673193
0.673109
0.673095
0.673075
0.673839
0.702685
0.787326
0.908019
1.01828
1.06209
1.07932
1.07771
1.06799
1.06986
1.07543
1.07876
1.07761
1.07325
1.07298
1.07458
1.07556
1.0753
1.07498
1.07538
1.07588
1.07576
1.07521
0.673136
0.673142
0.673147
0.673153
0.673159
0.673164
0.673175
0.673189
0.673194
0.673196
0.6732
0.673207
0.673217
0.673225
0.673233
0.673237
0.67324
0.673243
0.673246
0.673248
0.673252
0.673252
0.673252
0.673251
0.673251
0.673256
0.673267
0.673291
0.673301
0.673301
0.673297
0.673282
0.673254
0.673224
0.673206
0.673188
0.673166
0.673137
0.673104
0.673084
0.673071
0.673067
0.67307
0.673082
0.673111
0.673141
0.673148
0.673155
0.673174
0.67318
0.673169
0.67316
0.673169
0.673194
0.67319
0.673184
0.673157
0.673095
0.673087
0.673109
0.673128
0.67312
0.673121
0.673135
0.673219
0.673307
0.673355
0.6734
0.673414
0.673408
0.673371
0.673287
0.673175
0.673071
0.673041
0.673055
0.673081
0.673139
0.673181
0.673564
0.696831
0.790036
0.911253
1.00894
1.03654
1.05606
1.0727
1.08156
1.08045
1.07315
1.07047
1.07276
1.07608
1.07565
1.07434
1.07454
1.07563
1.07583
1.07521
1.07477
0.673211
0.673216
0.67322
0.673224
0.673231
0.673238
0.673238
0.673237
0.673237
0.673238
0.673239
0.673241
0.673244
0.673246
0.673248
0.673248
0.673246
0.673246
0.673245
0.673244
0.673244
0.673245
0.673237
0.673224
0.67322
0.673223
0.673239
0.67324
0.67324
0.673238
0.673224
0.673213
0.673203
0.673177
0.673161
0.673153
0.67314
0.673114
0.673074
0.673055
0.673051
0.673059
0.673084
0.673109
0.673144
0.673186
0.673206
0.673213
0.673209
0.67319
0.673163
0.67314
0.67313
0.67314
0.67315
0.673153
0.673141
0.673091
0.673085
0.673102
0.673156
0.67324
0.673257
0.673282
0.673347
0.673359
0.673371
0.673406
0.673411
0.673387
0.673308
0.673191
0.673081
0.673024
0.673027
0.673063
0.673156
0.673232
0.673276
0.673274
0.673202
0.673441
0.699204
0.788095
0.918871
1.02933
1.06743
1.07837
1.07467
1.06637
1.06996
1.07623
1.07598
1.07398
1.07362
1.07495
1.07588
1.07547
1.07447
1.0745
0.673264
0.673257
0.673253
0.673252
0.673253
0.673253
0.673249
0.673242
0.67324
0.673239
0.673236
0.673233
0.673229
0.673224
0.67322
0.673217
0.673209
0.673207
0.673206
0.673197
0.67319
0.673179
0.673149
0.673118
0.673114
0.67312
0.673117
0.673111
0.673124
0.67314
0.673149
0.673166
0.673173
0.673165
0.67315
0.673149
0.673145
0.673126
0.673113
0.673117
0.673118
0.673117
0.673136
0.673166
0.673201
0.673254
0.673266
0.673264
0.673254
0.673221
0.673143
0.673088
0.673058
0.673056
0.673065
0.6731
0.673115
0.673118
0.673125
0.673142
0.673213
0.673338
0.673395
0.673415
0.673408
0.673391
0.673393
0.673388
0.673357
0.673291
0.67319
0.6731
0.673051
0.673027
0.673048
0.673134
0.673246
0.673303
0.673296
0.673234
0.673048
0.672803
0.67265
0.673097
0.704083
0.812681
0.932395
1.02176
1.04774
1.06041
1.07796
1.07993
1.0764
1.0716
1.07329
1.07627
1.07605
1.07422
1.07406
1.07444
0.673238
0.673236
0.673234
0.673231
0.673223
0.673212
0.673192
0.673176
0.673173
0.673175
0.673175
0.673171
0.67316
0.67315
0.673142
0.673126
0.673097
0.673084
0.673078
0.673073
0.673074
0.673073
0.673053
0.673033
0.673033
0.673047
0.673049
0.673046
0.673055
0.673082
0.673116
0.673158
0.673181
0.673181
0.673186
0.673197
0.673201
0.673206
0.673189
0.673163
0.673152
0.673145
0.673154
0.673176
0.673202
0.67324
0.673269
0.673266
0.67323
0.673167
0.673075
0.672995
0.672971
0.672979
0.673009
0.67306
0.673136
0.673235
0.67328
0.673288
0.673302
0.673368
0.673459
0.67346
0.673439
0.673408
0.673372
0.673296
0.673197
0.673118
0.673058
0.673052
0.673054
0.673079
0.673143
0.673234
0.67332
0.673324
0.67329
0.673118
0.672837
0.672656
0.672628
0.672738
0.67293
0.674354
0.714491
0.825628
0.964863
1.04608
1.07819
1.07625
1.06838
1.07136
1.07666
1.07703
1.07476
1.07338
1.07408
1.07472
0.673098
0.673097
0.673099
0.673099
0.673099
0.673094
0.673092
0.673094
0.673098
0.673098
0.673097
0.673097
0.673096
0.67309
0.673084
0.673077
0.673057
0.673041
0.673035
0.673037
0.673045
0.673057
0.673067
0.673065
0.673064
0.673077
0.673083
0.673078
0.67308
0.673098
0.67315
0.673228
0.673247
0.673253
0.673275
0.673284
0.673269
0.673241
0.673225
0.673195
0.673161
0.673149
0.673151
0.673166
0.673183
0.67322
0.673244
0.673212
0.67317
0.673138
0.673068
0.672987
0.672945
0.672961
0.673041
0.673176
0.673322
0.67342
0.673437
0.673427
0.673376
0.673378
0.673452
0.673486
0.673475
0.673412
0.673297
0.673131
0.673038
0.672998
0.673018
0.673053
0.673116
0.673213
0.673277
0.673327
0.673353
0.673317
0.673162
0.672876
0.672678
0.672585
0.672643
0.673016
0.673327
0.673371
0.673246
0.675956
0.733334
0.867969
0.996587
1.03308
1.05825
1.07642
1.08033
1.07769
1.07219
1.07301
1.07534
1.07499
0.672982
0.673002
0.673006
0.673011
0.673019
0.673031
0.673053
0.673085
0.673109
0.673127
0.673138
0.67314
0.673141
0.673149
0.673154
0.673154
0.673156
0.673158
0.673162
0.673169
0.673187
0.673228
0.67325
0.673247
0.673241
0.673247
0.673246
0.67323
0.673206
0.673204
0.673218
0.673258
0.673281
0.673293
0.673306
0.673307
0.673289
0.67324
0.673184
0.673133
0.673087
0.673066
0.67306
0.673065
0.673065
0.673063
0.673078
0.673129
0.673149
0.673152
0.67314
0.673055
0.673028
0.673086
0.673186
0.673322
0.673482
0.673537
0.673532
0.673488
0.673391
0.673371
0.673405
0.67342
0.673391
0.673294
0.673145
0.673
0.672939
0.672958
0.673025
0.673121
0.673205
0.673304
0.673332
0.673364
0.673296
0.673118
0.672818
0.67261
0.672505
0.672542
0.672847
0.673279
0.673397
0.673336
0.673002
0.672656
0.672498
0.68355
0.761484
0.910161
1.03246
1.06995
1.07771
1.06962
1.07069
1.07538
1.07589
1.07416
0.672976
0.673009
0.67304
0.673079
0.673123
0.67316
0.673192
0.673221
0.673262
0.673285
0.673285
0.673292
0.673311
0.673325
0.67333
0.673336
0.673346
0.673355
0.673363
0.673375
0.67339
0.673392
0.673382
0.67337
0.673371
0.673367
0.673342
0.673303
0.673265
0.673234
0.673216
0.673204
0.673188
0.673164
0.673137
0.673112
0.673069
0.672984
0.672903
0.672891
0.672893
0.672898
0.672916
0.672949
0.672976
0.672956
0.672947
0.673006
0.673125
0.673174
0.673191
0.673179
0.673181
0.673233
0.673296
0.673408
0.673544
0.673567
0.673554
0.673498
0.673324
0.673125
0.673095
0.673115
0.673119
0.673063
0.672963
0.672871
0.672867
0.672967
0.673101
0.673173
0.673241
0.673333
0.673341
0.673203
0.67293
0.67263
0.672394
0.672337
0.672365
0.672627
0.673119
0.673335
0.673285
0.672951
0.672449
0.672242
0.67229
0.672714
0.672895
0.700751
0.814761
0.942419
1.03802
1.05251
1.07248
1.07892
1.0765
1.07232
0.673088
0.673126
0.673154
0.67318
0.673205
0.673227
0.673238
0.673241
0.67325
0.673259
0.673258
0.673264
0.673288
0.673295
0.67329
0.673287
0.673289
0.673297
0.673302
0.673291
0.673275
0.673271
0.673268
0.673257
0.673236
0.673217
0.673188
0.67312
0.673
0.672866
0.672748
0.672657
0.672597
0.672553
0.672526
0.672529
0.672544
0.672554
0.672567
0.672594
0.67263
0.672687
0.672793
0.672864
0.672862
0.672844
0.672831
0.672851
0.672933
0.673028
0.673133
0.673209
0.673238
0.673279
0.673333
0.673316
0.673312
0.673308
0.673225
0.673021
0.672776
0.672646
0.672645
0.672693
0.672745
0.672738
0.6727
0.672658
0.672699
0.672821
0.672924
0.672965
0.673004
0.672981
0.672885
0.672631
0.672355
0.672147
0.672089
0.672125
0.672406
0.672931
0.673259
0.67319
0.672851
0.67233
0.672064
0.672081
0.672425
0.67303
0.673056
0.672748
0.674144
0.726971
0.863124
0.998588
1.06831
1.07607
1.06854
1.0707
0.672879
0.672895
0.672903
0.672903
0.672905
0.672911
0.672912
0.672905
0.672902
0.672891
0.672857
0.672845
0.672837
0.67281
0.672792
0.672793
0.672795
0.672781
0.672738
0.672702
0.672646
0.672598
0.672578
0.672583
0.672599
0.672608
0.672598
0.672541
0.672452
0.672367
0.672299
0.672241
0.67219
0.672172
0.672195
0.672237
0.672281
0.67232
0.672369
0.672435
0.672501
0.672597
0.672764
0.672868
0.672884
0.672861
0.672802
0.672791
0.672856
0.673028
0.673158
0.673149
0.673144
0.673137
0.673034
0.672885
0.672884
0.672927
0.6729
0.672719
0.672481
0.672402
0.672413
0.672479
0.672567
0.672587
0.672598
0.672619
0.672733
0.672905
0.672967
0.672944
0.672907
0.672787
0.672581
0.672271
0.672093
0.672009
0.672073
0.672425
0.672994
0.673393
0.673312
0.672919
0.672398
0.672035
0.67204
0.672342
0.673026
0.673335
0.673152
0.672586
0.672293
0.67241
0.681314
0.784365
0.927214
1.01939
1.05194
1.07234
0.672714
0.672702
0.672689
0.67268
0.672667
0.67265
0.672643
0.672636
0.672619
0.672589
0.672559
0.672537
0.672518
0.672518
0.672535
0.672567
0.672571
0.672566
0.672565
0.672566
0.672537
0.672502
0.672502
0.67254
0.672602
0.672628
0.672618
0.672556
0.672507
0.672488
0.672462
0.672414
0.672377
0.672407
0.672541
0.672623
0.672657
0.672732
0.672892
0.6731
0.673281
0.673493
0.673749
0.673851
0.673872
0.673842
0.673693
0.673423
0.6732
0.673149
0.67311
0.67307
0.673072
0.673085
0.673022
0.672869
0.67287
0.672911
0.672883
0.672722
0.672548
0.672519
0.672539
0.672621
0.672808
0.673039
0.673209
0.673384
0.673579
0.673548
0.673354
0.673104
0.672869
0.672556
0.672341
0.67215
0.672072
0.672323
0.672926
0.673529
0.6739
0.673769
0.673342
0.672689
0.672291
0.672175
0.672645
0.673478
0.673994
0.673765
0.673169
0.672525
0.67282
0.673694
0.673731
0.67403
0.706678
0.843156
0.993011
1.07371
0.672688
0.672685
0.672681
0.672677
0.672669
0.67265
0.672642
0.672646
0.672644
0.672616
0.672587
0.672579
0.672571
0.672573
0.672588
0.672623
0.672679
0.672715
0.672735
0.672761
0.672772
0.672771
0.67282
0.672934
0.672976
0.673037
0.673159
0.673392
0.673563
0.673567
0.673571
0.673636
0.673741
0.673861
0.674105
0.674237
0.674189
0.674151
0.674173
0.674222
0.674305
0.674362
0.67435
0.674282
0.674222
0.674159
0.674062
0.673777
0.673281
0.673161
0.673118
0.673108
0.673174
0.673243
0.673217
0.673116
0.673077
0.673081
0.673149
0.673311
0.673486
0.673616
0.673705
0.673839
0.674075
0.674125
0.674134
0.6742
0.674169
0.673942
0.673471
0.673039
0.672772
0.672497
0.672517
0.672846
0.673669
0.674422
0.674917
0.674824
0.674585
0.673954
0.673334
0.67269
0.672849
0.673712
0.674758
0.675126
0.674885
0.674258
0.673329
0.673899
0.674672
0.675033
0.674738
0.673902
0.674109
0.680874
0.758758
0.983077
0.674337
0.674399
0.674511
0.674611
0.674635
0.67466
0.674782
0.674967
0.675018
0.675062
0.675141
0.675219
0.675295
0.675322
0.675346
0.67542
0.675495
0.675542
0.675612
0.675691
0.675708
0.675679
0.67564
0.675643
0.675684
0.675674
0.675633
0.6757
0.675825
0.675821
0.67584
0.675895
0.675941
0.675968
0.675914
0.67582
0.675683
0.675592
0.675576
0.67558
0.675576
0.675467
0.675378
0.675249
0.675143
0.675024
0.674941
0.674918
0.674919
0.674891
0.674872
0.674896
0.674994
0.675165
0.675216
0.675177
0.675124
0.675155
0.675318
0.675521
0.675624
0.675694
0.675763
0.675774
0.675694
0.675432
0.675192
0.675126
0.675043
0.674869
0.674538
0.674367
0.67444
0.674769
0.675318
0.675855
0.676426
0.676405
0.676174
0.675664
0.675011
0.674031
0.674103
0.674905
0.675923
0.676919
0.676772
0.676268
0.675339
0.674619
0.67537
0.676778
0.676663
0.676122
0.675327
0.675946
0.676971
0.677217
0.677202
0.786176
0.679074
0.679091
0.679108
0.679044
0.678886
0.678796
0.67879
0.678817
0.678828
0.678793
0.678731
0.678693
0.678633
0.678606
0.678652
0.678689
0.678631
0.678491
0.6783
0.678203
0.678196
0.67816
0.678003
0.677692
0.677495
0.677426
0.677345
0.677113
0.676903
0.676895
0.676906
0.676745
0.676359
0.675955
0.675747
0.675655
0.675601
0.675602
0.675657
0.675705
0.675692
0.675574
0.675396
0.675383
0.675366
0.675319
0.675289
0.675391
0.675617
0.675863
0.676132
0.676314
0.676324
0.676349
0.676515
0.676804
0.677089
0.67724
0.677262
0.677294
0.677295
0.677299
0.677248
0.677103
0.676705
0.676423
0.676245
0.675944
0.675925
0.676161
0.676878
0.6778
0.678522
0.678966
0.679056
0.678905
0.678448
0.677815
0.677208
0.676966
0.677271
0.678283
0.679527
0.680769
0.680689
0.680021
0.679043
0.678143
0.678773
0.680152
0.681526
0.681237
0.680513
0.680623
0.681293
0.682097
0.681937
0.681689
0.681719
0.683564
0.685152
0.685152
0.685133
0.685063
0.685027
0.685022
0.685041
0.685103
0.685114
0.685089
0.685041
0.685023
0.685053
0.685061
0.685019
0.685004
0.685053
0.685157
0.685157
0.685142
0.685169
0.685182
0.685122
0.685133
0.685236
0.685312
0.685378
0.685422
0.685408
0.685479
0.685823
0.686131
0.686321
0.68651
0.686647
0.686805
0.687182
0.687579
0.687783
0.688012
0.688192
0.688308
0.688476
0.688683
0.688882
0.689083
0.689408
0.689846
0.689975
0.690028
0.690205
0.690257
0.690249
0.690205
0.690105
0.689976
0.689775
0.689487
0.689404
0.689412
0.689379
0.689222
0.688923
0.688721
0.688762
0.688886
0.689012
0.689169
0.689312
0.689428
0.68956
0.68963
0.689594
0.689448
0.689196
0.688969
0.688735
0.688809
0.689051
0.689476
0.689909
0.690118
0.689912
0.689373
0.688758
0.688302
0.68855
0.689242
0.690071
0.689936
0.689461
0.688784
0.688937
0.689303
0.689429
0.689267
0.689201
0.689282
0.68942
0.689496
0.700161
0.700154
0.700096
0.700097
0.700213
0.700245
0.700246
0.700256
0.700278
0.700282
0.700218
0.700197
0.700238
0.700288
0.700291
0.700417
0.700656
0.700685
0.70065
0.700731
0.701028
0.701158
0.701155
0.701181
0.701189
0.701185
0.701233
0.701344
0.701376
0.701335
0.70124
0.701165
0.701075
0.700853
0.700562
0.700387
0.700266
0.700145
0.700044
0.699958
0.699834
0.6995
0.699241
0.699191
0.699125
0.698955
0.698657
0.698215
0.697681
0.697243
0.696981
0.696764
0.69646
0.696079
0.695825
0.695623
0.695274
0.694813
0.694535
0.694504
0.694527
0.69449
0.694536
0.694807
0.695382
0.69591
0.696243
0.696349
0.696407
0.69639
0.69633
0.696172
0.695912
0.695594
0.695403
0.695367
0.695462
0.695632
0.695868
0.695865
0.695741
0.695473
0.6951
0.69483
0.695028
0.695486
0.696134
0.696116
0.695697
0.695065
0.694882
0.695152
0.695582
0.695562
0.695393
0.69537
0.695257
0.695001
0.694651
0.694451
0.714421
0.714294
0.71422
0.714205
0.714173
0.714056
0.713832
0.713757
0.713786
0.713736
0.713418
0.713222
0.713244
0.713197
0.712933
0.712845
0.712785
0.712516
0.712209
0.712169
0.71216
0.71208
0.711939
0.711822
0.711655
0.711376
0.711119
0.711086
0.711073
0.710951
0.710929
0.710944
0.71088
0.710719
0.710683
0.710787
0.710834
0.710589
0.710179
0.71013
0.710139
0.710068
0.709852
0.709609
0.709581
0.709661
0.709703
0.709738
0.709808
0.709951
0.710013
0.709994
0.710078
0.710424
0.711051
0.711479
0.711538
0.711541
0.711646
0.711996
0.712239
0.712214
0.711967
0.711721
0.711548
0.711325
0.710957
0.71053
0.710097
0.709632
0.709163
0.708703
0.708282
0.707998
0.707883
0.707823
0.707788
0.707739
0.707509
0.707129
0.706695
0.706351
0.706192
0.705974
0.705832
0.705582
0.705196
0.704596
0.703854
0.70381
0.703714
0.703467
0.703191
0.702766
0.702449
0.702215
0.701847
0.701317
0.701435
0.701515
0.730723
0.730716
0.730728
0.730756
0.730749
0.730706
0.730657
0.730619
0.730617
0.730685
0.730702
0.730619
0.730556
0.730568
0.730553
0.730429
0.730398
0.730369
0.730234
0.730101
0.730108
0.730201
0.730244
0.730105
0.729931
0.729925
0.729908
0.729845
0.729723
0.729534
0.729367
0.72933
0.729462
0.729556
0.729424
0.729256
0.729172
0.729066
0.728949
0.728922
0.728981
0.729033
0.728997
0.728809
0.728648
0.72856
0.728437
0.72823
0.727941
0.727614
0.727268
0.726928
0.726652
0.726371
0.72598
0.725461
0.724928
0.724432
0.723972
0.723468
0.722908
0.722311
0.721691
0.721054
0.720339
0.71966
0.719163
0.718629
0.718311
0.7184
0.718466
0.718485
0.7186
0.718817
0.718818
0.718712
0.718427
0.718057
0.717544
0.717025
0.716548
0.716139
0.715827
0.715575
0.715285
0.714831
0.714501
0.714285