/*--------------------------------*- C++ -*----------------------------------*\
  =========                 |
  \\      /  F ield         | OpenFOAM: The Open Source CFD Toolbox
   \\    /   O peration     | Website:  https://openfoam.org
    \\  /    A nd           | Version:  7
     \\/     M anipulation  |
\*---------------------------------------------------------------------------*/
FoamFile
{
    version     2.0;
    format      ascii;
    class       volScalarField;
    location    "5";
    object      p;
}
// * * * * * * * * * * * * * * * * * * * * * * * * * * * * * * * * * * * * * //

dimensions      [1 -1 -2 0 0 0 0];

internalField   nonuniform List<scalar> 
1750
(
0.200847
0.424589
0.559107
0.575938
0.595683
0.661644
0.756973
0.810541
0.836184
0.835214
0.0236782
0.065942
0.264571
0.551505
0.726025
0.832372
0.871416
0.842918
0.839789
0.846252
0.0252156
0.0262573
0.0283621
0.10771
0.303094
0.501732
0.672425
0.77014
0.841393
0.878359
0.0400238
0.0463524
0.052136
0.0616588
0.0697497
0.0955113
0.187278
0.3564
0.537146
0.697555
0.0745405
0.0876942
0.0981756
0.0984066
0.105578
0.115161
0.127948
0.129877
0.159673
0.323891
0.134509
0.15179
0.158402
0.157874
0.1603
0.173241
0.182678
0.191405
0.199907
0.207142
0.258648
0.259588
0.263723
0.269558
0.272208
0.270129
0.270014
0.272944
0.272347
0.269818
0.480145
0.461439
0.444792
0.426075
0.413848
0.401866
0.390463
0.374538
0.359068
0.345038
0.820394
0.772074
0.731817
0.689467
0.648169
0.609193
0.576056
0.545704
0.523734
0.49095
1.09101
1.06309
1.03042
0.991221
0.94271
0.892979
0.83947
0.78581
0.73997
0.66865
1.13114
1.13007
1.1277
1.12152
1.11088
1.09371
1.0683
1.03257
0.992341
0.911772
1.09106
1.09908
1.1055
1.11199
1.11176
1.111
1.10982
1.10693
1.10124
1.07628
1.02064
1.02796
1.03694
1.04798
1.06013
1.07115
1.08112
1.08854
1.09471
1.09381
1.00101
1.00174
1.00307
1.00527
1.00892
1.01442
1.0219
1.03155
1.04249
1.05995
1.00002
1.00003
1.00006
1.00014
1.0003
1.00066
1.00142
1.00295
1.00544
1.01459
0.0257887
0.0206924
0.0224218
0.0332933
0.0654316
0.129109
0.262974
0.508508
0.869631
1.10993
1.13364
1.08166
1.01484
1.00065
1.00001
0.0244985
0.0198197
0.0238586
0.0377609
0.079284
0.173989
0.350117
0.63383
0.981136
1.14096
1.13514
1.06244
1.00763
1.00023
1
0.0244323
0.0184665
0.0246192
0.0390537
0.0923195
0.218044
0.412145
0.724526
1.05441
1.15133
1.12775
1.04482
1.00393
1.0001
1
0.0258834
0.017261
0.0249418
0.0517196
0.128591
0.263325
0.490513
0.845236
1.12109
1.15632
1.11037
1.02959
1.00191
1.00004
1
0.0279505
0.0160681
0.0253048
0.0654096
0.15647
0.309627
0.607101
0.976759
1.15969
1.15786
1.09367
1.0181
1.00084
1.00002
1
0.0239991
0.0163074
0.0315321
0.0825145
0.198979
0.412176
0.757242
1.07607
1.17521
1.15671
1.06963
1.0084
1.00028
1
1
0.0195411
0.0172136
0.0423383
0.108951
0.261463
0.55283
0.897461
1.14466
1.18091
1.13785
1.04166
1.00351
1.0001
1
1
0.0164791
0.0205411
0.0559534
0.165969
0.382217
0.698816
1.03278
1.1846
1.18165
1.10891
1.02302
1.0014
1.00003
1
1
0.0108428
0.0271293
0.0789703
0.242015
0.529545
0.867485
1.14171
1.19792
1.16885
1.07458
1.01076
1.00044
1.00001
1
1
0.00453921
0.0299602
0.145917
0.373986
0.704184
1.0406
1.19795
1.20049
1.14226
1.04343
1.00377
1.00012
1
1
1
0.00118649
0.0482609
0.256744
0.567858
0.912167
1.15813
1.21616
1.19569
1.10237
1.01834
1.00108
1.00003
1
1
1
0.00440731
0.139052
0.413749
0.791359
1.09906
1.22011
1.21995
1.16327
1.05532
1.00648
1.00027
1.00001
1
1
1
0.0295402
0.27389
0.68515
1.02675
1.21112
1.23839
1.21191
1.11315
1.02372
1.00178
1.00006
1
1
1
1
0.163835
0.550029
0.974388
1.18549
1.25327
1.24169
1.16805
1.05467
1.0066
1.0003
1.00001
1
1
1
1
0.57632
0.973155
1.18569
1.24458
1.25988
1.21227
1.09659
1.0172
1.00116
1.00004
1
1
1
1
1
1.24725
1.25337
1.25802
1.25422
1.24455
1.13987
1.03241
1.0016
1.00002
1
1
1
1
1
1
1.24654
1.25529
1.26072
1.24794
1.2276
1.1241
1.03235
1.00293
1.00011
1
1
1
1
1
1
1.24745
1.26158
1.26621
1.24945
1.20147
1.07726
1.00981
1.00038
1.00001
1
1
1
1
1
1
1.24784
1.26474
1.26711
1.24099
1.15792
1.04504
1.00399
1.00012
1
1
1
1
1
1
1
1.24657
1.2655
1.26558
1.22073
1.11349
1.02198
1.00133
1.00003
1
1
1
1
1
1
1
1.24957
1.26634
1.26078
1.18654
1.07256
1.00914
1.00037
1.00001
1
1
1
1
1
1
1
1.26798
1.26872
1.25511
1.14569
1.03603
1.003
1.00009
1
1
1
1
1
1
1
1
1.29501
1.25195
1.21969
1.09091
1.01584
1.00093
1.00002
1
1
1
1
1
1
1
1
1.31733
1.23019
1.16671
1.05198
1.00577
1.00023
1
1
1
1
1
1
1
1
1
1.32951
1.20718
1.10976
1.02285
1.00174
1.00005
1
1
1
1
1
1
1
1
1
1.32843
1.16552
1.06313
1.00863
1.00043
1.00001
1
1
1
1
1
1
1
1
1
1.28359
1.11898
1.03078
1.00273
1.00009
1
1
1
1
1
1
1
1
1
1
1.23238
1.07391
1.0114
1.00059
1.00001
1
1
1
1
1
1
1
1
1
1
1.1588
1.03285
1.00278
1.00009
1
1
1
1
1
1
1
1
1
1
1
1.06973
1.00909
1.00039
1.00001
1
1
1
1
1
1
1
1
1
1
1
1
1
1
1
1
1
1
1
1
1
1
1
1
1
1
1
1
1
1
1
1
1
1
1
1
1
1
1
1
1
1
1
1
1
1
1
1
1
1
1
1
1
1
1
1
1
1
1
1
1
1
1
1
1
1
1
1
1
1
1
1
1
1
1
1
1
1
1
1
1
1
1
1
1
1
1
1
1
1
1
1
1
1
1
1
1
1
1
1
1
1
1
1
1
1
1
1
1
1
1
1
1
1
1
1
1
1
1
1
1
1
1
1
1
1
1
1
1
1
1
1
1
1
1
1
1
1
1
1
1
1
1
1
1
1
1
1
1
1
1
1
1
1
1
1
1
1
1
1
1
1
1
1
1
1
1
1
1
1
1
1
1
1
1
1
1
1
1
1
1
1
1
1
1
1
1
1
1
1
1
1
1
1
1
1
1
1
1
1
1
1
1
1
1
1
1
1
1
1
1
1
1
1
1
1
1
1
1
1
1
1
1
1
1
1
1
1
1
1
1
1
1
1
1
1
1
1
1
1
1
1
1
1
1
1
1
1
1
1
1
1
1
1
1
1
1
1
1
1
1
1
1
1
1
1
1
1
1
1
1
1
1
1
1
1
1
1
1
1
1
1
1
1
1
1
1
1
1
1
1
1
1
1
1
1
1
1
1
1
1
1
1
1
1
1
1
1
1
1
1
1
1
1
1
1
1
1
1
1
1
1
1
1
1
1
1
1
1
1
1
1
1
1
1
1
1
1
1
1
1
1
1
1
1
1
1
1
1
1
1
1
1
1
1
1
1
1
1
1
1
2.0998
0.999992
1
1
1
1
1
1
1
1
1
1
1
1
1
1
1
1
1
1
9.76319
4.84536
1.53756
0.999997
1
1
1
1
1
1
1
1
1
1
1
1
1
1
1
1
10.6167
8.66229
7.98128
4.03291
1.11508
0.999999
1
1
1
1
1
1
1
1
1
1
1
1
1
1
8.92591
8.02505
8.35549
7.89918
5.3183
1.47163
0.99953
1
1
1
1
1
1
1
1
1
1
1
1
1
8.01914
7.70822
7.73914
7.57653
7.59784
5.37446
1.54317
0.99903
1
1
1
1
1
1
1
1
1
1
1
1
7.59637
7.51552
7.58951
7.54407
7.64817
7.51484
5.19037
1.44954
0.998697
1
1
1
1
1
1
1
1
1
1
1
7.53229
7.53898
7.60043
7.54974
7.54936
7.45837
7.06548
4.19795
1.19283
0.99928
1
1
1
1
1
1
1
1
1
1
7.56256
7.58897
7.57866
7.51793
7.49412
7.43126
7.43345
6.81652
3.01025
1.025
1
1
1
1
1
1
1
1
1
1
7.56326
7.55696
7.49423
7.43785
7.41357
7.34562
7.30376
7.33973
6.58463
2.35041
0.997393
1.00001
1
1
1
1
1
1
1
1
7.52728
7.46661
7.39445
7.36183
7.32395
7.30347
7.27626
7.29767
7.06257
5.10102
1.48713
0.998219
1.00001
1
1
1
1
1
1
1
7.4196
7.33763
7.2946
7.27731
7.24301
7.25136
7.22882
7.14477
7.03189
6.84031
3.52396
1.07873
0.999895
1
1
1
1
1
1
1
7.30009
7.23128
7.20749
7.19486
7.16693
7.17745
7.13657
7.0607
6.96331
7.02074
5.97879
2.1031
1.00063
1
1
1
1
1
1
1
7.2003
7.14554
7.13072
7.11415
7.08873
7.09346
7.05429
6.98601
6.92303
6.94652
6.62924
4.22021
1.22967
0.99895
0.999985
1
1
1
1
1
7.12102
7.07999
7.06815
7.04714
7.02708
7.00481
6.96729
6.91972
6.90067
6.88923
6.82835
6.25912
2.49508
1.01785
1
1
1
1
1
1
7.04835
7.02084
7.00974
6.98468
6.97047
6.91149
6.87647
6.84304
6.84097
6.84786
6.80344
6.58085
4.47552
1.21802
0.991132
0.999785
0.999999
1
1
1
2.32883
3.71028
4.45976
5.0005
5.38198
5.67612
5.89838
6.0798
6.2385
6.40228
6.48233
6.42462
6.33721
3.50842
1.25058
1.00366
1.00002
1
1
1
0.600247
1.83466
2.61929
3.32255
3.93963
4.34909
4.7597
5.06184
5.37096
5.63297
5.85698
6.09129
6.28664
5.77146
2.79213
1.13396
1.00179
1.00001
1
1
0.56959
1.1883
1.64113
2.12249
2.72195
3.2785
3.74001
4.15712
4.49638
4.84516
5.16933
5.5083
5.95339
5.79998
4.81805
1.9937
1.04181
1.00036
1
1
0.681846
0.937867
1.15949
1.57555
1.97978
2.48286
2.9147
3.41678
3.76802
4.17469
4.54822
4.94035
5.35916
5.52076
5.43808
3.72117
1.41358
1.00909
1.00006
1
0.786555
0.793036
0.841412
1.20023
1.55021
1.95644
2.36236
2.77733
3.20182
3.55213
3.99062
4.39439
4.78582
5.06609
5.29701
4.84629
2.43749
1.09802
1.00105
1
0.870429
0.795015
0.779157
0.929471
1.19015
1.51359
1.93034
2.25972
2.70241
3.01712
3.45914
3.84011
4.20917
4.55542
5.0175
4.92281
3.68108
1.48468
1.01264
1.00008
0.896686
0.822541
0.820916
0.892122
1.0063
1.22901
1.56622
1.91496
2.27093
2.65178
2.98983
3.41417
3.67831
4.04846
4.53566
4.80554
4.49997
2.40217
1.09199
1.00092
0.884405
0.845064
0.86405
0.853733
0.894065
1.09634
1.33709
1.66375
1.95971
2.36194
2.68144
3.08155
3.37723
3.69223
4.12472
4.5932
4.50204
3.27716
1.39433
1.00911
0.860513
0.852603
0.852391
0.811496
0.8055
0.943302
1.12504
1.42986
1.70631
2.05274
2.38987
2.72309
3.09034
3.34843
3.7358
4.24755
4.39898
3.82909
1.90398
1.04731
0.86247
0.860015
0.845426
0.809371
0.799382
0.865577
0.970562
1.18046
1.47504
1.73098
2.08182
2.35842
2.74323
3.01653
3.35496
3.83478
4.26129
4.13502
2.72317
1.20137
0.879543
0.872179
0.851396
0.818438
0.815231
0.865084
0.927018
1.07469
1.32745
1.57372
1.86981
2.14686
2.47475
2.79369
3.1312
3.53989
4.04626
4.11248
3.27556
1.57988
0.888036
0.874903
0.856451
0.835098
0.835703
0.842454
0.877717
1.00557
1.21679
1.45958
1.70614
1.97746
2.26975
2.59657
2.92126
3.25888
3.74623
4.00581
3.48943
2.10552
0.87883
0.866148
0.859861
0.844298
0.832815
0.818872
0.831899
0.917537
1.05743
1.30776
1.51737
1.79304
2.03543
2.3572
2.66824
2.95371
3.42977
3.85194
3.63722
2.80732
0.859828
0.849866
0.860324
0.850674
0.831329
0.817211
0.820361
0.871004
0.932853
1.13518
1.34693
1.58896
1.83909
2.1252
2.44928
2.76203
3.17001
3.67287
3.67842
3.59505
0.839931
0.847763
0.857485
0.857723
0.838098
0.8225
0.825406
0.875657
0.920156
1.05138
1.24863
1.45952
1.72621
1.9837
2.28931
2.60578
2.94017
3.43711
3.70657
4.32568
0.730548
0.828614
0.849227
0.857336
0.839895
0.822794
0.834702
0.864722
0.897009
0.997794
1.18426
1.37349
1.6198
1.87571
2.13751
2.41567
2.71885
3.16968
3.73649
4.9893
0.659446
0.772729
0.826534
0.849232
0.83445
0.819506
0.828954
0.831524
0.852418
0.925508
1.0801
1.27182
1.46063
1.72623
1.98514
2.24422
2.53987
2.9463
3.72024
5.58976
0.582916
0.689485
0.782173
0.834403
0.832348
0.823148
0.81946
0.819014
0.833383
0.893913
0.960938
1.15412
1.34566
1.57573
1.84102
2.09558
2.35727
2.75564
3.73283
6.17844
0.514536
0.616529
0.726492
0.808227
0.829538
0.823157
0.814249
0.808014
0.817273
0.871304
0.920455
1.05133
1.25454
1.4586
1.70085
1.95548
2.18229
2.56311
3.7075
6.59806
0.519126
0.573337
0.654461
0.759721
0.817519
0.818797
0.803986
0.784152
0.78988
0.828338
0.885292
0.980308
1.15141
1.35165
1.55438
1.78671
2.03206
2.44814
3.73326
6.91561
0.558098
0.551694
0.595517
0.698892
0.780204
0.807815
0.7946
0.77743
0.77508
0.782834
0.837503
0.937611
1.06634
1.24005
1.43351
1.64953
1.87995
2.33147
3.75764
7.03909
0.6138
0.556492
0.559398
0.631247
0.713816
0.777762
0.787621
0.778672
0.771477
0.77021
0.79405
0.886253
0.994921
1.14692
1.31941
1.52355
1.74226
2.2731
3.76222
6.86632
0.706059
0.613801
0.55963
0.575498
0.636098
0.726568
0.774209
0.774972
0.768634
0.759914
0.761143
0.820096
0.920506
1.05828
1.20096
1.39595
1.63371
2.25737
3.76784
6.62435
0.779076
0.686324
0.584937
0.55709
0.571578
0.656196
0.731834
0.759753
0.757997
0.748849
0.748813
0.790011
0.85506
0.97498
1.10368
1.27771
1.51935
2.30463
3.72932
6.26404
0.824994
0.765165
0.703118
0.617918
0.578241
0.59809
0.639584
0.695037
0.717576
0.717998
0.725968
0.74446
0.770175
0.85944
0.967027
1.13199
1.45983
2.40445
3.50081
5.44082
)
;

boundaryField
{
    inlet
    {
        type            fixedValue;
        value           uniform 1;
    }
    outlet
    {
        type            zeroGradient;
    }
    airfoil
    {
        type            zeroGradient;
    }
    top
    {
        type            symmetryPlane;
    }
    bottom
    {
        type            symmetryPlane;
    }
    defaultFaces
    {
        type            empty;
    }
}


// ************************************************************************* //
