/*--------------------------------*- C++ -*----------------------------------*\
  =========                 |
  \\      /  F ield         | OpenFOAM: The Open Source CFD Toolbox
   \\    /   O peration     | Website:  https://openfoam.org
    \\  /    A nd           | Version:  7
     \\/     M anipulation  |
\*---------------------------------------------------------------------------*/
FoamFile
{
    version     2.0;
    format      ascii;
    class       volScalarField;
    location    "6.5";
    object      T;
}
// * * * * * * * * * * * * * * * * * * * * * * * * * * * * * * * * * * * * * //

dimensions      [0 0 0 1 0 0 0];

internalField   nonuniform List<scalar> 
90000
(
0.721812
0.894475
1.01171
1.10556
1.11674
1.13943
1.19375
1.21875
1.23906
1.27477
1.30898
1.33832
1.36647
1.38946
1.4111
1.42866
1.44464
1.45357
1.45845
1.45695
1.45052
1.44162
1.43139
1.41823
1.40633
1.40162
1.39325
1.38538
1.38532
1.3829
1.37566
1.36638
1.35523
1.34202
1.32856
1.31473
1.30555
1.29868
1.29518
1.29239
1.28884
1.28414
1.27844
1.27145
1.26343
1.25556
1.24827
1.24165
1.23576
1.23136
1.22755
1.22301
1.21644
1.20756
1.19693
1.18647
1.17777
1.1716
1.16715
1.16539
1.16473
1.16403
1.16253
1.15914
1.1534
1.14677
1.14095
1.13796
1.1364
1.13677
1.13691
1.13652
1.13518
1.13302
1.13077
1.12991
1.1301
1.1301
1.12966
1.12903
1.12939
1.13051
1.13248
1.1349
1.13761
1.1411
1.14323
1.14554
1.14737
1.14991
1.15256
1.15367
1.156
1.15737
1.15889
1.16126
1.16257
1.16407
1.16481
1.16575
0.424553
0.424296
0.424019
0.423728
0.423426
0.423098
0.422786
0.42226
0.423621
0.438335
0.475997
0.538592
0.624298
0.736658
0.857758
0.984753
1.10443
1.21356
1.30533
1.38352
1.44176
1.49655
1.5353
1.56991
1.5902
1.60924
1.60931
1.60378
1.59386
1.57608
1.56049
1.54608
1.535
1.52946
1.52016
1.50954
1.50098
1.49097
1.48035
1.46905
1.45983
1.45309
1.44521
1.4362
1.42576
1.41548
1.40577
1.39544
1.38484
1.37351
1.36099
1.3463
1.33166
1.31642
1.30146
1.28759
1.27646
1.26756
1.25999
1.25193
1.24209
1.22902
1.21509
1.20316
1.19439
1.18722
1.18133
1.17609
1.17149
1.16622
1.15987
1.15328
1.14845
1.14511
1.14241
1.14089
1.13962
1.13791
1.13576
1.13429
1.13452
1.13541
1.13655
1.13829
1.14089
1.144
1.1455
1.14753
1.14889
1.15153
1.15336
1.15454
1.15675
1.15781
1.15962
1.16167
1.1631
1.1646
1.16506
1.16585
0.42258
0.422321
0.422041
0.421743
0.421431
0.421103
0.420761
0.420418
0.420031
0.419526
0.418995
0.418477
0.417985
0.417505
0.417052
0.416605
0.416224
0.415658
0.419066
0.453635
0.543025
0.673593
0.846906
1.00582
1.16383
1.28162
1.3828
1.45509
1.51818
1.56365
1.60804
1.64413
1.66868
1.69178
1.68862
1.68235
1.66576
1.64631
1.63157
1.6118
1.59226
1.57341
1.55727
1.54849
1.54456
1.54636
1.5533
1.55511
1.55007
1.53828
1.51996
1.49819
1.47657
1.45927
1.44846
1.43875
1.42699
1.4125
1.39501
1.37636
1.35829
1.34156
1.32554
1.31034
1.29611
1.28296
1.26976
1.25551
1.24087
1.22669
1.21425
1.20372
1.19444
1.18637
1.17841
1.17148
1.16321
1.15653
1.15238
1.15022
1.14964
1.1488
1.14772
1.1482
1.14965
1.15141
1.15167
1.15282
1.15363
1.15564
1.15654
1.15751
1.15919
1.16004
1.16182
1.16354
1.16498
1.16615
1.16661
1.16793
0.41957
0.419294
0.419
0.4187
0.418389
0.418076
0.417759
0.417437
0.41711
0.416789
0.416475
0.416166
0.415858
0.415551
0.415253
0.414961
0.414678
0.414414
0.414124
0.413797
0.413494
0.413218
0.412985
0.412767
0.412591
0.412346
0.439269
0.524566
0.66859
0.866884
1.03982
1.20882
1.33497
1.4436
1.52486
1.60004
1.64981
1.6781
1.70107
1.69466
1.68396
1.67
1.66214
1.65651
1.65253
1.65202
1.65224
1.65072
1.64516
1.63773
1.63045
1.62201
1.61218
1.59876
1.58641
1.57608
1.56575
1.55307
1.53752
1.51967
1.50204
1.48471
1.46929
1.45236
1.43271
1.41069
1.38892
1.36911
1.35212
1.33548
1.31827
1.30038
1.28178
1.26327
1.24675
1.23191
1.21928
1.20806
1.19807
1.189
1.181
1.17582
1.17329
1.17199
1.16964
1.16703
1.16521
1.16596
1.16587
1.16577
1.165
1.16547
1.16612
1.16621
1.16705
1.16747
1.16855
1.16967
1.17153
1.17354
0.416641
0.416423
0.416196
0.415966
0.415735
0.415507
0.415283
0.415059
0.414837
0.414619
0.414403
0.414197
0.41399
0.413786
0.413586
0.413391
0.413205
0.413026
0.412852
0.412689
0.412537
0.412386
0.412251
0.412114
0.411982
0.411869
0.411702
0.411526
0.41136
0.411188
0.411029
0.410795
0.421329
0.496123
0.676614
0.893565
1.1405
1.32303
1.46083
1.5689
1.65044
1.6956
1.73461
1.73218
1.72517
1.71779
1.70465
1.68704
1.67058
1.66238
1.66573
1.67576
1.68761
1.68964
1.68099
1.66702
1.65214
1.63857
1.63204
1.62724
1.6204
1.60904
1.5932
1.57721
1.5625
1.5468
1.52946
1.511
1.49169
1.47259
1.45125
1.42757
1.40389
1.38171
1.36066
1.34031
1.32077
1.30114
1.28316
1.26787
1.25502
1.24424
1.23454
1.22503
1.21556
1.20857
1.20382
1.20107
1.19713
1.19315
1.18997
1.18821
1.18613
1.18397
1.18322
1.18176
1.18065
1.1808
1.18261
1.18603
0.414386
0.414249
0.41411
0.413969
0.413829
0.41369
0.413552
0.413416
0.413282
0.413147
0.413013
0.412886
0.41276
0.412632
0.412506
0.412383
0.412261
0.412141
0.412022
0.411908
0.411793
0.411679
0.411568
0.411454
0.411337
0.411229
0.411127
0.411019
0.410896
0.410757
0.410611
0.410475
0.410291
0.41011
0.409946
0.409809
0.409658
0.416769
0.508393
0.753247
1.0413
1.28335
1.4479
1.55895
1.62475
1.67546
1.68585
1.68489
1.67953
1.68392
1.69205
1.69683
1.7012
1.71209
1.71162
1.70532
1.69459
1.68503
1.67583
1.67494
1.6762
1.67519
1.66945
1.65727
1.64339
1.6335
1.62773
1.61967
1.60627
1.58799
1.57082
1.55377
1.53468
1.51402
1.4921
1.46883
1.445
1.42275
1.40146
1.3827
1.36491
1.34781
1.3308
1.31385
1.29874
1.2858
1.27455
1.26438
1.25559
1.24795
1.2407
1.23419
1.22863
1.22472
1.2219
1.21851
1.2154
1.21228
1.20854
1.2058
0.412967
0.412885
0.4128
0.412715
0.412629
0.412542
0.412456
0.412371
0.412286
0.412198
0.41211
0.412024
0.411938
0.411847
0.411757
0.411665
0.411572
0.411475
0.411376
0.411277
0.411175
0.41107
0.410969
0.410868
0.410763
0.410664
0.410575
0.410476
0.410359
0.410233
0.410109
0.409988
0.409873
0.409764
0.409661
0.409566
0.409508
0.409476
0.409461
0.409443
0.409421
0.409374
0.493918
0.746008
1.02151
1.24901
1.41914
1.55384
1.63513
1.68831
1.70505
1.70773
1.70703
1.7097
1.70909
1.70539
1.70445
1.70359
1.70012
1.69673
1.69452
1.69248
1.69317
1.69193
1.68773
1.6813
1.67675
1.67322
1.6677
1.65877
1.64655
1.63659
1.62703
1.61371
1.59815
1.58183
1.56479
1.54653
1.52993
1.51174
1.49325
1.47444
1.45513
1.43684
1.41837
1.40037
1.38427
1.36966
1.35549
1.34058
1.32702
1.31584
1.30538
1.29552
1.28657
1.27948
1.27349
1.26852
1.26349
1.25626
0.412031
0.411977
0.411922
0.411865
0.411806
0.411744
0.411682
0.411621
0.411558
0.411491
0.411425
0.41136
0.411289
0.411211
0.411132
0.411053
0.410969
0.410879
0.410788
0.410695
0.410601
0.410507
0.410417
0.410329
0.41024
0.41016
0.410089
0.41001
0.40992
0.40983
0.409745
0.409661
0.409578
0.409498
0.409434
0.409386
0.409381
0.409392
0.409394
0.409389
0.409376
0.409345
0.409267
0.409186
0.409131
0.409067
0.523133
0.787377
1.10509
1.33097
1.4785
1.58185
1.63348
1.66575
1.67802
1.69222
1.70812
1.71289
1.70934
1.7033
1.69925
1.69435
1.69236
1.69336
1.69617
1.69598
1.69435
1.69092
1.68611
1.68418
1.68169
1.6779
1.67432
1.66944
1.66201
1.65229
1.64257
1.63332
1.62229
1.61246
1.60175
1.58886
1.57342
1.55615
1.54011
1.52259
1.50528
1.48941
1.47412
1.45732
1.44078
1.42648
1.41277
1.3995
1.38786
1.37672
1.36602
1.35599
1.34815
1.33792
0.411336
0.411295
0.411253
0.411208
0.411161
0.41111
0.411056
0.411006
0.410952
0.410895
0.41084
0.410781
0.410716
0.410645
0.410574
0.4105
0.410422
0.410343
0.410263
0.410179
0.410093
0.410014
0.409944
0.409876
0.409813
0.40976
0.409711
0.409657
0.4096
0.40955
0.409497
0.409439
0.409378
0.409329
0.409301
0.409302
0.409312
0.409331
0.409333
0.409331
0.409318
0.409265
0.409161
0.4091
0.409077
0.409059
0.409037
0.409002
0.408978
0.439515
0.656279
0.948627
1.20492
1.38137
1.52507
1.62257
1.67563
1.6924
1.70268
1.702
1.69671
1.69047
1.68902
1.69199
1.69786
1.69987
1.69743
1.69322
1.68883
1.6884
1.68942
1.6894
1.68823
1.6873
1.68632
1.68385
1.68049
1.67873
1.67613
1.67244
1.66628
1.6596
1.65204
1.64292
1.63152
1.62354
1.6126
1.59777
1.58396
1.57246
1.55832
1.54235
1.52787
1.51485
1.50183
1.49024
1.47894
1.46681
1.45531
1.44035
0.410764
0.410729
0.410695
0.41066
0.410621
0.410575
0.410527
0.410476
0.410423
0.410371
0.410323
0.410271
0.410214
0.410155
0.410092
0.410024
0.409961
0.409903
0.409834
0.40976
0.409692
0.409633
0.409584
0.409547
0.409515
0.409486
0.40946
0.409434
0.409408
0.409382
0.409345
0.409305
0.40926
0.409236
0.409238
0.409251
0.409266
0.409278
0.409275
0.409261
0.409232
0.409153
0.409064
0.409053
0.409062
0.409063
0.409064
0.409082
0.409111
0.409134
0.409226
0.409502
0.409613
0.526723
0.83812
1.14027
1.36005
1.50991
1.62744
1.66485
1.67858
1.68354
1.68646
1.69207
1.69701
1.69627
1.69377
1.69012
1.68798
1.68831
1.68992
1.68966
1.68904
1.68928
1.68989
1.69095
1.69203
1.69334
1.69497
1.69606
1.6956
1.69378
1.69106
1.68975
1.68603
1.67996
1.67702
1.67146
1.66214
1.65198
1.64644
1.63669
1.62453
1.61474
1.60518
1.59339
1.58048
1.56884
1.56177
1.54819
0.410295
0.410263
0.410231
0.410196
0.410157
0.410113
0.410067
0.410019
0.409974
0.409934
0.409893
0.409849
0.409803
0.409755
0.409695
0.409639
0.409596
0.409548
0.409487
0.409437
0.409402
0.409378
0.409357
0.409352
0.409353
0.409347
0.40934
0.409333
0.409321
0.409304
0.40928
0.409248
0.409212
0.4092
0.409206
0.409223
0.409232
0.409216
0.409178
0.409149
0.409117
0.409061
0.409044
0.409049
0.409081
0.409163
0.409275
0.409343
0.409345
0.409334
0.409385
0.409607
0.409717
0.409694
0.409616
0.4093
0.503932
0.823504
1.16003
1.39995
1.54807
1.65095
1.66871
1.68019
1.68905
1.68795
1.68316
1.68543
1.68849
1.68909
1.6887
1.68703
1.68592
1.68657
1.68939
1.69322
1.69609
1.69854
1.70137
1.70198
1.70327
1.70391
1.70398
1.7048
1.70777
1.7057
1.7016
1.7019
1.70223
1.69741
1.68973
1.68674
1.68355
1.67821
1.67395
1.66865
1.65934
1.647
1.63904
1.63157
0.40985
0.409821
0.409789
0.40976
0.409726
0.409687
0.409654
0.409622
0.409593
0.409567
0.409538
0.409506
0.409472
0.409426
0.409377
0.409349
0.409331
0.409303
0.409267
0.409255
0.409261
0.409274
0.409282
0.409292
0.409312
0.409318
0.409316
0.409311
0.409301
0.409288
0.409271
0.409244
0.409209
0.409199
0.409197
0.409186
0.409163
0.409113
0.409068
0.409055
0.409051
0.409049
0.40905
0.40909
0.409219
0.409412
0.409545
0.409549
0.409509
0.409411
0.409421
0.409528
0.409559
0.409552
0.409466
0.409194
0.408824
0.408627
0.408622
0.565048
0.926346
1.26417
1.4591
1.59629
1.65628
1.65828
1.66754
1.68289
1.68965
1.6876
1.68312
1.68149
1.68196
1.68416
1.68809
1.6915
1.69417
1.69688
1.70006
1.70308
1.70552
1.70687
1.70829
1.70858
1.7103
1.71213
1.71162
1.7117
1.71308
1.71506
1.71172
1.70715
1.70536
1.70318
1.69905
1.6961
1.69724
1.69457
1.68985
1.68178
0.409513
0.409497
0.409471
0.409433
0.409408
0.409389
0.409371
0.40936
0.409347
0.40933
0.409312
0.409289
0.409261
0.409229
0.409215
0.409217
0.409218
0.409213
0.40921
0.409216
0.409242
0.409271
0.409286
0.409309
0.409345
0.409352
0.409351
0.409344
0.409319
0.409306
0.409301
0.40928
0.409238
0.409167
0.409102
0.409071
0.409047
0.409016
0.409004
0.409014
0.409043
0.409069
0.409123
0.409263
0.409491
0.409659
0.409664
0.409649
0.409575
0.409422
0.409351
0.409306
0.409274
0.409262
0.409207
0.408985
0.408627
0.408562
0.408597
0.408712
0.40888
0.423625
0.710278
1.0796
1.36366
1.54637
1.63661
1.67166
1.67881
1.67963
1.67422
1.67577
1.67805
1.68127
1.68528
1.68854
1.69158
1.69444
1.69744
1.70039
1.70241
1.7044
1.70699
1.709
1.71108
1.71357
1.71507
1.71566
1.71615
1.71644
1.71744
1.71532
1.71393
1.71389
1.71248
1.71017
1.70862
1.70955
1.70984
1.70609
0.409354
0.409339
0.409323
0.409307
0.40929
0.409276
0.409266
0.409255
0.409244
0.409236
0.409223
0.409203
0.409192
0.409194
0.4092
0.409208
0.409219
0.409227
0.40924
0.40927
0.409315
0.409349
0.409366
0.409381
0.409386
0.409386
0.409384
0.40937
0.409329
0.409295
0.409258
0.409202
0.409116
0.40903
0.408992
0.408982
0.408982
0.408985
0.408991
0.409012
0.409091
0.4092
0.40932
0.409526
0.409714
0.409719
0.409705
0.409669
0.409587
0.409341
0.409114
0.409042
0.409014
0.409009
0.408992
0.408851
0.408589
0.408555
0.408619
0.408898
0.409534
0.409958
0.410413
0.410618
0.525611
0.929341
1.25751
1.48294
1.58911
1.64382
1.65259
1.67094
1.67684
1.67759
1.67899
1.68329
1.6873
1.6897
1.69174
1.69397
1.69581
1.69871
1.7021
1.705
1.70652
1.70951
1.71299
1.71444
1.71438
1.71503
1.71531
1.7163
1.71659
1.71698
1.71604
1.71445
1.71276
1.71132
1.71112
1.70952
0.409271
0.409273
0.409273
0.409272
0.409266
0.40926
0.409252
0.409245
0.409237
0.409226
0.409219
0.40922
0.409226
0.409231
0.409235
0.409241
0.409252
0.409268
0.409289
0.409317
0.409351
0.40938
0.409389
0.409386
0.409372
0.409355
0.409332
0.409284
0.409216
0.409145
0.409095
0.409044
0.408992
0.408967
0.408959
0.408961
0.408976
0.409005
0.409037
0.409124
0.409306
0.409424
0.409532
0.409695
0.409739
0.409727
0.409687
0.409633
0.409501
0.409111
0.408846
0.408819
0.408841
0.408876
0.408892
0.408814
0.408635
0.408637
0.408847
0.409426
0.410401
0.410917
0.410974
0.411118
0.411032
0.41084
0.439388
0.738698
1.14237
1.42296
1.5754
1.64126
1.65066
1.66384
1.66607
1.67372
1.67457
1.6765
1.67875
1.68052
1.68295
1.68616
1.6895
1.69325
1.69566
1.6989
1.7029
1.70528
1.70593
1.70641
1.70869
1.71163
1.71246
1.71308
1.71405
1.7141
1.71289
1.7112
1.71015
1.70815
0.409301
0.409324
0.409334
0.409341
0.40934
0.409337
0.409332
0.409326
0.409321
0.409313
0.409302
0.40929
0.40928
0.409267
0.409259
0.409259
0.40926
0.40927
0.409289
0.409317
0.409328
0.409325
0.409312
0.409274
0.409226
0.409185
0.409139
0.40909
0.409051
0.409017
0.408994
0.408979
0.40896
0.408963
0.408985
0.409033
0.409134
0.409215
0.409277
0.409404
0.409526
0.409561
0.409616
0.409678
0.409665
0.4096
0.409494
0.409387
0.409231
0.4089
0.408721
0.408704
0.408734
0.408829
0.408884
0.40891
0.409083
0.409413
0.409845
0.410479
0.411402
0.411698
0.411313
0.411094
0.411368
0.412574
0.41402
0.415798
0.416995
0.630647
1.0587
1.35638
1.51235
1.59684
1.62366
1.65167
1.6451
1.648
1.64956
1.65193
1.65767
1.6619
1.66564
1.66936
1.67209
1.67554
1.67944
1.68355
1.68651
1.68836
1.69068
1.69382
1.6956
1.69661
1.69875
1.7011
1.70127
1.70014
1.69903
1.69885
0.409483
0.409483
0.40948
0.409474
0.409463
0.409449
0.40943
0.40941
0.409388
0.409361
0.409334
0.409309
0.409282
0.409244
0.409196
0.409163
0.409154
0.409152
0.409148
0.409133
0.409119
0.409107
0.409081
0.409038
0.409012
0.408996
0.408982
0.408985
0.408983
0.408982
0.408988
0.409009
0.409052
0.409142
0.409242
0.409359
0.409474
0.409509
0.40954
0.409581
0.409596
0.409578
0.409536
0.409512
0.409481
0.409391
0.409254
0.409146
0.409038
0.408818
0.408704
0.408697
0.408718
0.408826
0.40906
0.409579
0.410291
0.411182
0.411965
0.412114
0.412304
0.412874
0.412783
0.412593
0.413298
0.41565
0.419448
0.422064
0.423254
0.424446
0.426004
0.557584
0.956383
1.25689
1.45275
1.53768
1.57276
1.60671
1.60502
1.60575
1.61271
1.6166
1.6232
1.62801
1.63274
1.63744
1.64106
1.64569
1.64961
1.65293
1.65536
1.65909
1.66287
1.66552
1.66775
1.67039
1.67278
1.67461
1.67606
1.67753
0.409566
0.409553
0.409535
0.409509
0.409482
0.409451
0.409413
0.409367
0.409309
0.409241
0.40918
0.409111
0.40904
0.408982
0.408928
0.408884
0.408857
0.408852
0.408847
0.408851
0.40886
0.408874
0.408887
0.408895
0.4089
0.408911
0.40894
0.408976
0.409025
0.409098
0.409205
0.409299
0.409401
0.40951
0.409605
0.409668
0.409689
0.409683
0.40966
0.409624
0.409589
0.409489
0.409358
0.40936
0.409357
0.409281
0.409149
0.409062
0.408977
0.408877
0.408934
0.409079
0.409075
0.409208
0.40989
0.411047
0.412075
0.412968
0.414019
0.413906
0.413838
0.414271
0.415393
0.41712
0.419037
0.421114
0.424532
0.427291
0.428626
0.430198
0.433107
0.43599
0.43808
0.510619
0.846221
1.13901
1.35695
1.46111
1.51089
1.54178
1.56028
1.55683
1.56347
1.56764
1.57593
1.58243
1.58723
1.59154
1.59542
1.60007
1.60495
1.60958
1.61349
1.61647
1.61875
1.62164
1.62538
1.62945
1.63204
1.63393
0.4092
0.409151
0.409095
0.409044
0.409004
0.408971
0.408942
0.408914
0.40888
0.408835
0.40878
0.408716
0.40868
0.408664
0.408661
0.40866
0.408648
0.408646
0.408666
0.408706
0.408751
0.408795
0.408846
0.408909
0.408972
0.40906
0.409175
0.409296
0.409413
0.409511
0.409605
0.409685
0.40975
0.409823
0.409828
0.409809
0.40978
0.409761
0.409681
0.409613
0.409569
0.40945
0.409318
0.409323
0.409325
0.409241
0.40911
0.40912
0.40926
0.409648
0.410328
0.411192
0.41159
0.411827
0.412386
0.413403
0.414353
0.414791
0.415626
0.416282
0.416778
0.41767
0.419904
0.423189
0.42671
0.429175
0.430404
0.432502
0.435328
0.437618
0.439913
0.443255
0.446814
0.448963
0.450561
0.473688
0.744899
1.04215
1.26988
1.39424
1.4492
1.4787
1.50988
1.50482
1.51096
1.51441
1.52103
1.52688
1.53177
1.53677
1.541
1.54475
1.54834
1.55239
1.55589
1.55892
1.56249
1.56714
1.57124
1.57595
0.408505
0.408517
0.408529
0.408543
0.408553
0.408563
0.408577
0.408595
0.408608
0.408605
0.408586
0.408584
0.408592
0.408615
0.408656
0.408669
0.408678
0.408713
0.408805
0.408965
0.40911
0.409234
0.409363
0.409481
0.409569
0.409639
0.40972
0.409799
0.409855
0.409899
0.409929
0.409953
0.409992
0.410011
0.409977
0.409913
0.409907
0.40988
0.409811
0.409778
0.40971
0.409599
0.409608
0.409605
0.409449
0.409397
0.409511
0.409802
0.410304
0.411122
0.412344
0.413632
0.414986
0.416113
0.416584
0.416915
0.417514
0.417807
0.418259
0.419736
0.421979
0.424704
0.427802
0.430519
0.433433
0.435992
0.436987
0.438387
0.44121
0.44464
0.447897
0.451467
0.453875
0.455505
0.458225
0.460144
0.462352
0.464229
0.664906
0.970797
1.1891
1.33421
1.39583
1.42323
1.45945
1.45165
1.45631
1.45796
1.46276
1.46858
1.47415
1.47842
1.48159
1.48488
1.48823
1.49156
1.495
1.49864
1.50232
1.5078
0.408496
0.408538
0.408581
0.408627
0.408691
0.408774
0.408846
0.408898
0.408959
0.409076
0.409251
0.409427
0.409618
0.409788
0.409814
0.409802
0.409792
0.409798
0.409872
0.409992
0.410063
0.410109
0.410153
0.410177
0.410172
0.410172
0.410193
0.410196
0.410182
0.410189
0.410186
0.41019
0.410234
0.410227
0.410165
0.41016
0.410148
0.410038
0.409959
0.409903
0.409866
0.409888
0.410038
0.410364
0.4107
0.411133
0.411748
0.412523
0.413478
0.414604
0.416008
0.417229
0.418553
0.42028
0.420863
0.421038
0.421529
0.422857
0.424758
0.427202
0.43041
0.433527
0.436304
0.438694
0.44018
0.442068
0.44408
0.446118
0.448429
0.451683
0.455318
0.458027
0.459886
0.4613
0.463596
0.467737
0.470858
0.473102
0.475001
0.476545
0.606102
0.908893
1.12414
1.27674
1.34407
1.36906
1.40692
1.40045
1.40391
1.40443
1.40788
1.41311
1.41867
1.42286
1.42483
1.42681
1.42941
1.43316
1.43665
1.44178
0.409639
0.409779
0.409916
0.41004
0.410165
0.410282
0.410377
0.41044
0.410495
0.410587
0.410745
0.410927
0.410997
0.41099
0.410948
0.410906
0.410865
0.410795
0.410738
0.410724
0.410711
0.410685
0.410651
0.41059
0.410498
0.410459
0.410462
0.410445
0.410369
0.410362
0.410376
0.41038
0.41037
0.410274
0.41022
0.410279
0.410365
0.410416
0.410518
0.410801
0.411369
0.412198
0.413187
0.414312
0.415583
0.417078
0.418544
0.419849
0.420898
0.421758
0.422327
0.422601
0.422951
0.424284
0.426004
0.427247
0.428735
0.431269
0.434689
0.437891
0.440834
0.44305
0.444231
0.445631
0.446929
0.448316
0.450621
0.453737
0.456556
0.459661
0.462163
0.463623
0.46568
0.468061
0.470756
0.47452
0.477733
0.479153
0.480665
0.483242
0.485877
0.488006
0.567902
0.848579
1.06182
1.22145
1.29848
1.32252
1.35912
1.35892
1.35879
1.35843
1.36262
1.36721
1.37113
1.37306
1.37395
1.37563
1.37813
1.38245
0.411616
0.411625
0.411636
0.411631
0.41163
0.411639
0.41163
0.411547
0.411429
0.411405
0.411424
0.411437
0.411424
0.41137
0.41128
0.41129
0.411302
0.411253
0.411178
0.411119
0.411043
0.410953
0.410891
0.410834
0.41071
0.4106
0.410622
0.410687
0.410725
0.410811
0.411033
0.411333
0.41164
0.412042
0.412643
0.413379
0.414183
0.415122
0.416253
0.417462
0.418744
0.419986
0.421089
0.421999
0.422968
0.42399
0.424917
0.425804
0.426508
0.427307
0.428034
0.428602
0.42964
0.431519
0.434582
0.437831
0.440812
0.443101
0.445454
0.447314
0.448647
0.450061
0.450685
0.451607
0.453568
0.456082
0.459412
0.462518
0.465647
0.467764
0.468941
0.470554
0.47288
0.475664
0.478365
0.480534
0.483794
0.48608
0.48707
0.488745
0.492512
0.497409
0.498524
0.499428
0.543007
0.798371
1.01558
1.17843
1.26496
1.28777
1.31441
1.32176
1.32541
1.32288
1.32428
1.32598
1.3278
1.32911
1.32991
1.33245
0.410926
0.410931
0.410914
0.410915
0.410962
0.411054
0.411037
0.410878
0.410814
0.410834
0.410906
0.410997
0.411029
0.411081
0.411187
0.411423
0.411585
0.41164
0.411744
0.411965
0.412134
0.412308
0.412544
0.412871
0.413289
0.413775
0.414323
0.415007
0.41581
0.416676
0.41756
0.418492
0.419445
0.420455
0.421493
0.422525
0.42352
0.424542
0.425529
0.426364
0.427124
0.427723
0.428251
0.428836
0.429585
0.430283
0.431034
0.432109
0.433599
0.435577
0.43781
0.440244
0.442644
0.445009
0.447007
0.449146
0.450904
0.452058
0.453156
0.453889
0.454451
0.45555
0.45747
0.460112
0.46292
0.466524
0.469367
0.471394
0.473103
0.474013
0.475465
0.477535
0.480179
0.483867
0.487095
0.488257
0.489797
0.492302
0.494914
0.498075
0.50127
0.503988
0.506088
0.507883
0.50968
0.511764
0.535167
0.764768
0.987112
1.14541
1.23449
1.25577
1.28493
1.29176
1.29122
1.2872
1.28767
1.28871
1.29039
1.29227
0.413339
0.413556
0.413814
0.414092
0.41435
0.414616
0.414921
0.415243
0.415614
0.416041
0.416461
0.416888
0.417375
0.417898
0.418439
0.418984
0.419553
0.420164
0.420762
0.421335
0.421908
0.422505
0.423081
0.423625
0.424213
0.424816
0.425411
0.425999
0.426591
0.427201
0.427793
0.4284
0.429036
0.429718
0.430378
0.431087
0.431818
0.432562
0.433244
0.433938
0.434715
0.435596
0.436722
0.43797
0.439249
0.440701
0.442567
0.444641
0.446801
0.448792
0.450588
0.452401
0.454096
0.455145
0.455756
0.456783
0.457661
0.458481
0.459267
0.460511
0.462619
0.465148
0.468571
0.471577
0.474012
0.475724
0.476868
0.477947
0.478771
0.480488
0.48328
0.486366
0.488991
0.492037
0.494723
0.495293
0.496003
0.498274
0.501938
0.506298
0.50852
0.509513
0.511945
0.514588
0.517059
0.521462
0.523054
0.523911
0.538733
0.752675
0.972279
1.12082
1.20709
1.22848
1.25673
1.25892
1.2582
1.25503
1.25543
1.25762
0.425042
0.42524
0.425466
0.425713
0.425964
0.426222
0.426475
0.426722
0.426984
0.427287
0.427607
0.427916
0.428214
0.428518
0.428838
0.429181
0.429564
0.429968
0.430395
0.430842
0.431318
0.431794
0.43228
0.432775
0.433279
0.433773
0.434283
0.434814
0.435373
0.435965
0.436623
0.437351
0.43814
0.438977
0.439901
0.440939
0.441995
0.443155
0.444413
0.445711
0.447081
0.448645
0.450131
0.451555
0.452951
0.454402
0.455798
0.456894
0.457866
0.458803
0.459618
0.460473
0.461636
0.462065
0.462594
0.463551
0.465302
0.467545
0.469655
0.472163
0.474646
0.477159
0.479161
0.480572
0.481809
0.482196
0.482996
0.484258
0.48658
0.489822
0.492889
0.496052
0.497778
0.498644
0.499984
0.501988
0.504383
0.507152
0.5104
0.513182
0.514935
0.516373
0.518488
0.521979
0.52466
0.527509
0.529379
0.531593
0.533079
0.535186
0.550938
0.746732
0.951264
1.09716
1.18619
1.20404
1.22785
1.23151
1.22995
1.22823
0.435677
0.435843
0.436049
0.436305
0.436585
0.436872
0.437148
0.437409
0.437689
0.438018
0.438381
0.438754
0.439149
0.43956
0.439985
0.440458
0.440982
0.441548
0.44213
0.442722
0.443353
0.444022
0.444724
0.44545
0.44622
0.446993
0.447795
0.448602
0.449415
0.450236
0.451082
0.451932
0.452791
0.453666
0.454591
0.455475
0.456361
0.457262
0.458139
0.458971
0.459805
0.460606
0.46133
0.462112
0.462908
0.46371
0.464334
0.464926
0.46566
0.466548
0.467358
0.468356
0.469897
0.4718
0.473738
0.475494
0.477645
0.479875
0.482004
0.483646
0.484745
0.485672
0.486328
0.487296
0.488403
0.490011
0.49219
0.494917
0.497893
0.50074
0.50269
0.504311
0.505566
0.506184
0.507739
0.510971
0.514238
0.517266
0.519625
0.520394
0.522167
0.524695
0.526901
0.530034
0.532654
0.53367
0.536526
0.539881
0.542734
0.545737
0.547029
0.548769
0.562008
0.743184
0.944498
1.08493
1.16678
1.18299
1.20268
1.20703
0.450619
0.45086
0.451115
0.451375
0.45164
0.451915
0.452217
0.452553
0.452884
0.453219
0.453556
0.453904
0.454282
0.454664
0.455023
0.45538
0.455788
0.456214
0.456618
0.457023
0.457439
0.457871
0.458314
0.458774
0.459247
0.459732
0.460223
0.460709
0.461204
0.461691
0.462183
0.462679
0.463191
0.463706
0.464229
0.464762
0.465347
0.465943
0.466579
0.467244
0.46799
0.46874
0.469555
0.470477
0.471445
0.472489
0.473719
0.47517
0.476631
0.478197
0.479834
0.481615
0.48311
0.484654
0.48631
0.487807
0.488879
0.489733
0.49067
0.491427
0.492379
0.493199
0.494339
0.496002
0.49833
0.501315
0.50403
0.506487
0.508265
0.509545
0.510648
0.511635
0.513319
0.515617
0.518246
0.520741
0.523405
0.525298
0.526675
0.528395
0.530268
0.533183
0.535855
0.538072
0.541137
0.543583
0.545477
0.548101
0.550632
0.552809
0.55472
0.557187
0.558564
0.560504
0.575753
0.753536
0.946849
1.0796
1.14409
1.17341
0.462578
0.462751
0.462965
0.463198
0.463422
0.463645
0.463869
0.464083
0.464308
0.464563
0.464837
0.465115
0.465398
0.465685
0.46597
0.46627
0.466591
0.466908
0.467222
0.467547
0.467904
0.468292
0.468704
0.469138
0.469604
0.470105
0.470638
0.471213
0.471829
0.472489
0.473176
0.47387
0.474571
0.475289
0.476024
0.476784
0.477603
0.478479
0.479453
0.480494
0.481579
0.482705
0.483843
0.484911
0.485993
0.487086
0.488198
0.489305
0.49036
0.491329
0.492381
0.493405
0.494044
0.494613
0.495414
0.496352
0.496961
0.497713
0.498686
0.500107
0.502032
0.504246
0.506697
0.508974
0.511115
0.512967
0.514543
0.515856
0.516898
0.517649
0.51874
0.520679
0.522975
0.525966
0.528426
0.530468
0.532577
0.533515
0.534962
0.5373
0.539635
0.542302
0.545141
0.54676
0.548829
0.551523
0.553503
0.555094
0.55709
0.559482
0.561918
0.564258
0.566992
0.570249
0.57129
0.572604
0.591694
0.774771
0.939303
1.1144
0.476444
0.476625
0.476816
0.476999
0.47719
0.477433
0.477713
0.477999
0.478258
0.478499
0.47876
0.479065
0.47939
0.479721
0.480069
0.480442
0.480837
0.481246
0.481664
0.482093
0.48254
0.483015
0.48351
0.484001
0.484479
0.484967
0.485471
0.485984
0.486512
0.487064
0.487617
0.488182
0.488763
0.489356
0.489973
0.490608
0.491251
0.491903
0.492554
0.493202
0.493861
0.494515
0.49518
0.495824
0.49649
0.497109
0.497736
0.498429
0.499166
0.499849
0.500778
0.501971
0.502794
0.503631
0.504885
0.506652
0.508525
0.510298
0.512052
0.514057
0.515946
0.517771
0.519393
0.520812
0.521924
0.522609
0.523434
0.524269
0.525691
0.527494
0.52987
0.532159
0.534636
0.536862
0.538575
0.539905
0.541007
0.542854
0.544704
0.546909
0.549499
0.551462
0.554045
0.556254
0.557417
0.559266
0.561565
0.563723
0.566124
0.568665
0.571424
0.573782
0.575478
0.57722
0.57898
0.581434
0.583019
0.583937
0.607972
0.912155
0.490158
0.490313
0.490472
0.490657
0.490863
0.491082
0.491303
0.491506
0.491701
0.49196
0.492248
0.492497
0.492732
0.493005
0.493301
0.493607
0.493915
0.494226
0.494545
0.494871
0.495209
0.495551
0.495899
0.496252
0.49661
0.496984
0.49737
0.497777
0.498198
0.498635
0.499096
0.499587
0.500106
0.500652
0.501207
0.501781
0.502352
0.502936
0.503521
0.504143
0.504821
0.505574
0.506436
0.507407
0.508447
0.509546
0.510679
0.511815
0.513013
0.514229
0.515451
0.516683
0.518191
0.519742
0.521084
0.522214
0.523405
0.524602
0.525689
0.526654
0.527351
0.528055
0.528753
0.529722
0.530709
0.531989
0.533333
0.5354
0.537579
0.540303
0.542781
0.544687
0.546221
0.547351
0.548746
0.549785
0.551159
0.553303
0.555668
0.557865
0.560401
0.562139
0.5632
0.565032
0.567024
0.568751
0.570804
0.573334
0.575521
0.577187
0.578802
0.580561
0.582327
0.583862
0.585747
0.587818
0.589209
0.591649
0.592444
0.6072
0.504864
0.50499
0.505163
0.505375
0.505601
0.505813
0.505999
0.506189
0.506409
0.506643
0.506873
0.507121
0.507387
0.507656
0.507931
0.508222
0.508524
0.508839
0.509173
0.509531
0.509909
0.510298
0.510707
0.511141
0.511596
0.512058
0.512529
0.51302
0.513526
0.514036
0.514553
0.51508
0.515625
0.516183
0.516766
0.517387
0.518043
0.518733
0.519457
0.520195
0.520955
0.521743
0.522524
0.523306
0.524099
0.524901
0.525723
0.526538
0.527352
0.528228
0.529045
0.529704
0.530431
0.531195
0.531836
0.532445
0.533219
0.533975
0.534828
0.53577
0.537021
0.538212
0.539831
0.541628
0.543937
0.546161
0.548439
0.550454
0.552119
0.553334
0.554384
0.555572
0.556227
0.557181
0.558423
0.560378
0.562499
0.564524
0.566877
0.568542
0.569865
0.57145
0.572777
0.574317
0.576415
0.578448
0.580373
0.581977
0.583397
0.584887
0.586269
0.587882
0.589771
0.591502
0.592993
0.594148
0.595674
0.596708
0.597732
0.598702
0.52054
0.520697
0.520873
0.521045
0.521217
0.521386
0.521566
0.521795
0.522044
0.522276
0.52249
0.522708
0.522953
0.523224
0.523504
0.523776
0.52405
0.524342
0.524649
0.524963
0.525278
0.525601
0.525933
0.526279
0.526634
0.527005
0.527394
0.527789
0.528194
0.528619
0.529058
0.529521
0.530001
0.530503
0.531018
0.531541
0.532078
0.532625
0.533177
0.533736
0.534303
0.534885
0.53544
0.536028
0.536649
0.537312
0.538047
0.538797
0.539498
0.540243
0.541286
0.542265
0.543098
0.544087
0.54532
0.546719
0.548008
0.549403
0.550818
0.552415
0.553966
0.555688
0.557247
0.558668
0.559753
0.560651
0.561542
0.562357
0.563286
0.563658
0.564274
0.565341
0.566952
0.568702
0.570635
0.57269
0.574799
0.576302
0.577598
0.578902
0.579915
0.581234
0.583047
0.584651
0.586047
0.587464
0.588651
0.58968
0.590922
0.592335
0.593727
0.594892
0.595906
0.596963
0.597941
0.598952
0.599713
0.60051
0.601183
0.601998
0.53747
0.537607
0.537749
0.537893
0.538046
0.538226
0.538438
0.538646
0.538828
0.539002
0.539199
0.539433
0.539681
0.539921
0.540152
0.540398
0.540669
0.540951
0.541243
0.541543
0.54185
0.542169
0.54251
0.542861
0.543218
0.543583
0.543963
0.544358
0.544767
0.54519
0.545633
0.546083
0.546541
0.547009
0.547492
0.547992
0.548515
0.54905
0.549621
0.550235
0.550891
0.551585
0.552313
0.553056
0.553829
0.554608
0.555369
0.556163
0.55698
0.557834
0.55866
0.559568
0.560518
0.561392
0.562262
0.563096
0.563962
0.564777
0.565603
0.566343
0.567011
0.567755
0.568447
0.56922
0.569874
0.57057
0.571285
0.572248
0.573551
0.575233
0.576956
0.578694
0.580517
0.582227
0.583621
0.584656
0.585624
0.586495
0.587209
0.588188
0.589424
0.590524
0.591566
0.592587
0.593578
0.594578
0.595582
0.596594
0.597484
0.598284
0.599088
0.599821
0.600458
0.601068
0.601689
0.602235
0.602727
0.603139
0.603458
0.603793
0.555572
0.555673
0.555803
0.555972
0.55616
0.556334
0.556485
0.556632
0.55679
0.557006
0.55723
0.55743
0.557616
0.557818
0.558048
0.558287
0.558521