/*--------------------------------*- C++ -*----------------------------------*\
  =========                 |
  \\      /  F ield         | OpenFOAM: The Open Source CFD Toolbox
   \\    /   O peration     | Website:  https://openfoam.org
    \\  /    A nd           | Version:  7
     \\/     M anipulation  |
\*---------------------------------------------------------------------------*/
FoamFile
{
    version     2.0;
    format      ascii;
    class       volScalarField;
    location    "1.1";
    object      T;
}
// * * * * * * * * * * * * * * * * * * * * * * * * * * * * * * * * * * * * * //

dimensions      [0 0 0 1 0 0 0];

internalField   nonuniform List<scalar> 
1750
(
1.09408
1.24556
1.28094
1.26947
1.23989
1.18601
1.12358
1.05465
0.986685
0.963864
0.671139
0.787118
0.924735
0.997087
1.06682
1.07855
1.06151
1.02452
0.974565
0.959505
0.654801
0.687366
0.676652
0.686468
0.745116
0.842261
0.915758
0.94646
0.942488
0.947126
0.679398
0.706514
0.706677
0.703019
0.69352
0.699852
0.738252
0.810077
0.865465
0.928408
0.718948
0.742667
0.745727
0.743133
0.732903
0.738202
0.756373
0.796328
0.847443
0.926301
0.825796
0.835103
0.836216
0.827386
0.819467
0.825426
0.842575
0.871601
0.905505
0.957389
0.924888
0.916117
0.898643
0.881902
0.88356
0.894141
0.915733
0.943077
0.96708
0.989167
0.994214
0.972881
0.952067
0.946837
0.950601
0.960747
0.975731
0.988867
0.996088
0.999285
1.0098
0.994559
0.986826
0.987027
0.989371
0.993594
0.997509
0.999381
0.999887
0.999989
1.00309
0.999326
0.998633
0.99879
0.999226
0.999705
0.999938
0.999991
0.999999
1
1.00014
0.999956
0.999951
0.999963
0.999984
0.999996
0.999999
1
1
1
0.999999
0.999998
0.999999
1
1
1
1
1
1
1
1
1
1
1
1
1
1
1
1
1
1
1
1
1
1
1
1
1
1
1
1
1
1
1
1
1
1
1
1
1
0.782634
0.629863
0.556013
0.609725
0.686537
0.808894
0.937991
1.01616
1.02489
1.0099
1.00077
1.00001
1
1
1
0.777333
0.547266
0.486052
0.58643
0.691316
0.836113
0.985644
1.04701
1.04157
1.01618
1.0013
1.00002
1
1
1
0.693497
0.469884
0.468422
0.574996
0.696107
0.873056
1.03144
1.07228
1.06077
1.02266
1.00172
1.00003
1
1
1
0.587685
0.426709
0.459399
0.570853
0.729723
0.9293
1.07612
1.09925
1.08038
1.02763
1.00189
1.00003
1
1
1
0.518549
0.41438
0.45624
0.572984
0.768362
0.985369
1.11727
1.12855
1.09779
1.02953
1.00173
1.00002
1
1
1
0.474007
0.423239
0.482213
0.622832
0.810739
1.04156
1.1587
1.15881
1.11027
1.02845
1.00132
1.00001
1
1
1
0.45863
0.441854
0.512909
0.651861
0.862292
1.10665
1.1979
1.18797
1.11595
1.02263
1.00076
1.00001
1
1
1
0.451009
0.451489
0.527512
0.682474
0.937237
1.17125
1.23271
1.21158
1.11092
1.01429
1.00034
1
1
1
1
0.450699
0.447851
0.568601
0.794514
1.0432
1.22912
1.26391
1.22218
1.09158
1.00717
1.00012
1
1
1
1
0.396075
0.509571
0.72657
0.919625
1.14191
1.27902
1.28709
1.22221
1.06057
1.00278
1.00004
1
1
1
1
0.294513
0.646581
0.845771
1.0376
1.23891
1.31367
1.30115
1.18619
1.02905
1.00078
1.00001
1
1
1
1
0.239475
0.767552
0.965066
1.16318
1.3104
1.33478
1.29541
1.12401
1.0101
1.00018
1
1
1
1
1
0.40703
0.885261
1.09929
1.27337
1.3448
1.34134
1.24132
1.05434
1.00218
1.00003
1
1
1
1
1
0.680016
1.04687
1.24801
1.33753
1.35169
1.3102
1.13472
1.01176
1.00025
1
1
1
1
1
1
1.07251
1.2561
1.3366
1.36121
1.35543
1.22546
1.04105
1.00134
1.00002
1
1
1
1
1
1
1.34871
1.35992
1.36907
1.36735
1.30831
1.088
0.996815
0.999821
0.999999
1
1
1
1
1
1
1.34556
1.35693
1.36769
1.36271
1.30485
1.10146
1.00266
1.00001
1
1
1
1
1
1
1
1.3452
1.36147
1.37307
1.36324
1.26661
1.04724
1.00045
1
1
1
1
1
1
1
1
1.3484
1.37092
1.38637
1.3654
1.22925
1.02361
1.00015
1
1
1
1
1
1
1
1
1.35477
1.38154
1.40048
1.36332
1.17314
1.0078
1.00003
1
1
1
1
1
1
1
1
1.36593
1.39019
1.41258
1.34281
1.0995
1.0017
1
1
1
1
1
1
1
1
1
1.39581
1.39766
1.41919
1.27732
1.03388
1.0002
1
1
1
1
1
1
1
1
1
1.44747
1.40373
1.38934
1.15475
1.00489
1.00001
1
1
1
1
1
1
1
1
1
1.49177
1.37779
1.28395
1.04641
1.00038
1
1
1
1
1
1
1
1
1
1
1.50971
1.34126
1.14697
1.0056
1.00002
1
1
1
1
1
1
1
1
1
1
1.50153
1.26363
1.05037
1.00059
1
1
1
1
1
1
1
1
1
1
1
1.42912
1.17315
1.01219
1.00006
1
1
1
1
1
1
1
1
1
1
1
1.34547
1.09097
1.00226
1.00001
1
1
1
1
1
1
1
1
1
1
1
1.22817
1.03097
1.00029
1
1
1
1
1
1
1
1
1
1
1
1
1.10228
1.00573
1.00002
1
1
1
1
1
1
1
1
1
1
1
1
1
1
1
1
1
1
1
1
1
1
1
1
1
1
1
1
1
1
1
1
1
1
1
1
1
1
1
1
1
1
1
1
1
1
1
1
1
1
1
1
1
1
1
1
1
1
1
1
1
1
1
1
1
1
1
1
1
1
1
1
1
1
1
1
1
1
1
1
1
1
1
1
1
1
1
1
1
1
1
1
1
1
1
1
1
1
1
1
1
1
1
1
1
1
1
1
1
1
1
1
1
1
1
1
1
1
1
1
1
1
1
1
1
1
1
1
1
1
1
1
1
1
1
1
1
1
1
1
1
1
1
1
1
1
1
1
1
1
1
1
1
1
1
1
1
1
1
1
1
1
1
1
1
1
1
1
1
1
1
1
1
1
1
1
1
1
1
1
1
1
1
1
1
1
1
1
1
1
1
1
1
1
1
1
1
1
1
1
1
1
1
1
1
1
1
1
1
1
1
1
1
1
1
1
1
1
1
1
1
1
1
1
1
1
1
1
1
1
1
1
1
1
1
1
1
1
1
1
1
1
1
1
1
1
1
1
1
1
1
1
1
1
1
1
1
1
1
1
1
1
1
1
1
1
1
1
1
1
1
1
1
1
1
1
1
1
1
1
1
1
1
1
1
1
1
1
1
1
1
1
1
1
1
1
1
1
1
1
1
1
1
1
1
1
1
1
1
1
1
1
1
1
1
1
1
1
1
1
1
1
1
1
1
1
1
1
1
1
1
1
1
1
1
1
1
1
1
1
1
1
1
1
1
1
1
1
1
1
1
1
1
1
1
1
1
1
1
1
1
1
1.1953
1.00548
1
1
1
1
1
1
1
1
1
1
1
1
1
1
1
1
1
1
1.4137
1.07785
0.999784
1
1
1
1
1
1
1
1
1
1
1
1
1
1
1
1
1
1.6308
1.24314
1.00514
0.999985
1
1
1
1
1
1
1
1
1
1
1
1
1
1
1
1
1.74667
1.48971
1.15546
1.00031
1
1
1
1
1
1
1
1
1
1
1
1
1
1
1
1
1.71738
1.58171
1.48444
1.09811
0.999871
1
1
1
1
1
1
1
1
1
1
1
1
1
1
1
1.64122
1.62368
1.64684
1.40583
1.03617
0.999918
0.999999
1
1
1
1
1
1
1
1
1
1
1
1
1
1.58072
1.60572
1.64663
1.60861
1.24466
1.00334
1
1
1
1
1
1
1
1
1
1
1
1
1
1
1.55718
1.58327
1.62571
1.61124
1.45496
1.07218
0.999951
1
1
1
1
1
1
1
1
1
1
1
1
1
1.55179
1.56466
1.59013
1.5934
1.55366
1.23694
1.00343
0.999996
1
1
1
1
1
1
1
1
1
1
1
1
1.55098
1.55288
1.56072
1.57486
1.57362
1.37078
1.03207
1.00002
1
1
1
1
1
1
1
1
1
1
1
1
1.54802
1.54404
1.54501
1.55896
1.56587
1.44369
1.10288
1.0002
1
1
1
1
1
1
1
1
1
1
1
1
1.54192
1.53977
1.53971
1.55213
1.55524
1.48671
1.19819
1.00253
1
1
1
1
1
1
1
1
1
1
1
1
1.54026
1.53858
1.54237
1.55226
1.55211
1.50645
1.28161
1.01191
0.99999
1
1
1
1
1
1
1
1
1
1
1
1.53734
1.53697
1.54618
1.55359
1.5534
1.52928
1.38994
1.07319
1.00029
1
1
1
1
1
1
1
1
1
1
1
1.53674
1.54118
1.553
1.55663
1.55673
1.52622
1.38641
1.04237
0.997725
0.999978
1
1
1
1
1
1
1
1
1
1
1.17271
1.38763
1.48496
1.52424
1.54877
1.54943
1.51382
1.32203
1.06094
1.00222
1.00003
1
1
1
1
1
1
1
1
1
0.742334
1.16929
1.33457
1.43388
1.49946
1.54051
1.54208
1.48687
1.26757
1.03755
1.00103
1.00001
1
1
1
1
1
1
1
1
0.435496
0.940849
1.16048
1.28665
1.3972
1.48498
1.53182
1.53111
1.43747
1.17178
1.01288
1.00021
1
1
1
1
1
1
1
1
0.676338
0.863128
1.0181
1.14612
1.25861
1.37527
1.48245
1.52073
1.50246
1.32373
1.06354
1.00201
1.00002
1
1
1
1
1
1
1
0.836713
0.802926
0.90158
1.04723
1.14833
1.25033
1.38745
1.48484
1.48362
1.39789
1.1554
1.01227
1.0002
1
1
1
1
1
1
1
0.918119
0.800081
0.769012
0.915188
1.03818
1.14446
1.27907
1.4139
1.45106
1.41953
1.25975
1.04729
1.00132
1.00001
1
1
1
1
1
1
0.909943
0.773426
0.723358
0.805404
0.906539
1.0321
1.1707
1.3244
1.41169
1.4011
1.30768
1.09839
1.00497
1.00005
1
1
1
1
1
1
0.894509
0.723693
0.66625
0.754283
0.853366
0.954247
1.07404
1.23676
1.35834
1.36195
1.30007
1.13364
1.01235
1.00019
1
1
1
1
1
1
0.865314
0.655823
0.580078
0.695182
0.805654
0.905818
1.01916
1.16535
1.29794
1.31485
1.27224
1.14602
1.02203
1.0005
1
1
1
1
1
1
0.821823
0.6313
0.560436
0.638466
0.740496
0.846243
0.973039
1.10807
1.23638
1.26721
1.23758
1.14289
1.02925
1.0009
1.00001
1
1
1
1
1
0.808729
0.642979
0.57653
0.644775
0.719375
0.814531
0.924362
1.04479
1.17233
1.21983
1.20291
1.13373
1.03132
1.00112
1.00001
1
1
1
1
1
0.814437
0.680384
0.624054
0.647834
0.709807
0.805689
0.885119
0.983416
1.10562
1.17329
1.16657
1.11713
1.02922
1.00111
1.00001
1
1
1
1
1
0.857593
0.739631
0.667201
0.652614
0.686597
0.773936
0.834834
0.928586
1.05592
1.13246
1.13121
1.09369
1.0229
1.00085
1.00001
1
1
1
1
1
0.888382
0.819153
0.720564
0.669684
0.687469
0.753812
0.808347
0.903189
1.02594
1.09791
1.09874
1.06784
1.01447
1.00046
1
1
1
1
1
1
0.88654
0.824658
0.771912
0.712084
0.707343
0.751378
0.794901
0.878756
0.993627
1.06755
1.07023
1.04335
1.00682
1.00015
0.999999
1
1
1
1
1
1.07136
0.840232
0.775314
0.752511
0.751727
0.778621
0.808301
0.889752
0.987262
1.04508
1.04057
1.01576
1.00097
0.999988
0.999997
1
1
1
1
1
1.1329
0.879211
0.773139
0.759994
0.766743
0.801063
0.828194
0.897988
0.97771
1.01325
1.00807
1.0006
0.999857
0.999981
0.999998
1
1
1
1
1
1.15
0.935248
0.766396
0.754384
0.765174
0.801481
0.833693
0.898997
0.94982
0.973225
0.990068
0.998528
0.999881
0.999993
1
1
1
1
1
1
1.15536
0.967858
0.780917
0.74023
0.763636
0.798202
0.829273
0.883094
0.91698
0.960191
0.989524
0.998816
0.999953
0.999999
1
1
1
1
1
1
1.15902
0.994192
0.811773
0.719005
0.753878
0.782114
0.810727
0.868044
0.914962
0.963239
0.99197
0.99944
0.999991
1
1
1
1
1
1
1
1.14937
1.02973
0.866915
0.725116
0.751162
0.780285
0.811328
0.872802
0.923785
0.97287
0.996057
0.999864
0.999999
1
1
1
1
1
1
1
1.11657
1.03381
0.929476
0.771543
0.760601
0.788007
0.822427
0.889003
0.943227
0.985346
0.998801
0.999978
1
1
1
1
1
1
1
1
1.0607
1.01808
0.962062
0.85346
0.796474
0.813294
0.844654
0.912788
0.965008
0.994159
0.999744
0.999997
1
1
1
1
1
1
1
1
0.995699
0.981602
0.95511
0.903608
0.851334
0.855232
0.875093
0.936226
0.981318
0.998179
0.999957
1
1
1
1
1
1
1
1
1
0.967893
0.964593
0.954581
0.941074
0.926272
0.928225
0.936083
0.970449
0.994172
0.9997
0.999996
1
1
1
1
1
1
1
1
1
)
;

boundaryField
{
    inlet
    {
        type            fixedValue;
        value           uniform 1;
    }
    outlet
    {
        type            inletOutlet;
        inletValue      uniform 1;
        value           nonuniform List<scalar> 
35
(
0.967665
0.96451
0.954567
0.941174
0.927548
0.930084
0.93873
0.972397
0.994845
0.999754
0.999997
1
1
1
1
1
1
1
1
1
0.963639
0.95911
0.946839
0.929832
0.928636
0.959564
0.990155
0.99939
0.999991
1
1
1
1
1
1
)
;
    }
    airfoil
    {
        type            zeroGradient;
    }
    top
    {
        type            symmetryPlane;
    }
    bottom
    {
        type            symmetryPlane;
    }
    defaultFaces
    {
        type            empty;
    }
}


// ************************************************************************* //
