/*--------------------------------*- C++ -*----------------------------------*\
  =========                 |
  \\      /  F ield         | OpenFOAM: The Open Source CFD Toolbox
   \\    /   O peration     | Website:  https://openfoam.org
    \\  /    A nd           | Version:  7
     \\/     M anipulation  |
\*---------------------------------------------------------------------------*/
FoamFile
{
    version     2.0;
    format      ascii;
    class       volScalarField;
    location    "4.5";
    object      T;
}
// * * * * * * * * * * * * * * * * * * * * * * * * * * * * * * * * * * * * * //

dimensions      [0 0 0 1 0 0 0];

internalField   nonuniform List<scalar> 
90000
(
1.02632
1.29927
1.33231
1.38027
1.44834
1.46438
1.46976
1.4884
1.51057
1.52742
1.54152
1.54583
1.54479
1.53995
1.53141
1.51696
1.49483
1.4715
1.4413
1.41793
1.38358
1.35358
1.3345
1.32222
1.31897
1.31561
1.31143
1.30657
1.3014
1.29463
1.28714
1.27839
1.26779
1.25609
1.2454
1.2358
1.22721
1.21943
1.21276
1.20735
1.20291
1.19835
1.19288
1.18703
1.18135
1.17583
1.17097
1.16722
1.16425
1.16111
1.15801
1.15492
1.15278
1.15311
1.1538
1.15398
1.15444
1.15608
1.15892
1.16228
1.1654
1.16681
1.16751
1.16848
1.16852
1.168
1.16732
1.16716
1.16758
1.16893
1.17157
1.17443
1.17604
1.17546
1.17414
1.1728
1.17218
1.17385
1.17709
1.18133
1.18197
1.18423
1.18499
1.18635
1.19111
1.19185
1.19316
1.19413
1.1952
1.19743
1.20094
1.2022
1.20427
1.20824
1.21535
1.22338
1.22996
1.2385
1.24115
1.24293
0.474994
0.474597
0.474158
0.473739
0.473012
0.474846
0.496964
0.559689
0.66636
0.813561
0.994105
1.18904
1.37
1.52792
1.66329
1.77054
1.84075
1.88996
1.90626
1.92462
1.97868
1.97418
1.93418
1.87305
1.81393
1.75829
1.71124
1.66664
1.62912
1.598
1.57108
1.54631
1.52095
1.49279
1.46426
1.43638
1.41086
1.38748
1.3653
1.3446
1.32649
1.31016
1.29476
1.2794
1.26446
1.25026
1.23759
1.22697
1.21798
1.21041
1.20302
1.19605
1.18969
1.18546
1.18257
1.18126
1.18033
1.17937
1.17849
1.17793
1.17796
1.17691
1.17499
1.17315
1.17147
1.1702
1.16899
1.16951
1.17167
1.17465
1.17727
1.17737
1.17752
1.1766
1.17498
1.17444
1.176
1.17918
1.18373
1.18538
1.18623
1.18737
1.18858
1.19063
1.19568
1.1951
1.196
1.19708
1.1985
1.20092
1.20447
1.206
1.20807
1.21157
1.21878
1.22592
1.23204
1.24089
1.24387
1.24675
0.472654
0.472227
0.471762
0.471255
0.470713
0.470049
0.469085
0.467976
0.466832
0.465681
0.464537
0.463468
0.461846
0.462669
0.502872
0.636471
0.873201
1.18791
1.44365
1.90649
2.41056
2.40998
2.34622
2.25525
2.17205
2.12305
2.05717
1.99673
1.94541
1.93186
1.92095
1.9064
1.882
1.85565
1.82886
1.80104
1.77129
1.73578
1.69899
1.66559
1.63475
1.60352
1.57137
1.53972
1.50958
1.48212
1.45632
1.43114
1.40668
1.38382
1.36206
1.34154
1.32133
1.30312
1.28689
1.27323
1.25999
1.24728
1.23385
1.22141
1.21014
1.20122
1.19378
1.18805
1.1848
1.18256
1.18266
1.1836
1.18494
1.18598
1.18583
1.18386
1.18079
1.1775
1.1764
1.1783
1.18256
1.18585
1.18884
1.18869
1.18978
1.19065
1.19294
1.1958
1.19903
1.19822
1.19881
1.19995
1.2019
1.20435
1.20777
1.20987
1.21229
1.21587
1.22315
1.22905
1.234
1.24389
1.2476
1.25842
0.468305
0.467645
0.466949
0.466219
0.465442
0.464624
0.463754
0.462855
0.461918
0.460976
0.459997
0.458989
0.457965
0.456846
0.455545
0.453892
0.452098
0.450541
0.44813
0.549624
1.13518
2.01011
2.31016
2.39948
2.44608
2.42562
2.36664
2.32738
2.29788
2.2749
2.24987
2.21735
2.18519
2.18777
2.18234
2.1706
2.15093
2.11789
2.08049
2.04369
2.0033
1.96038
1.91716
1.88116
1.84908
1.8168
1.77971
1.74084
1.70259
1.66421
1.62493
1.58438
1.54424
1.50841
1.47491
1.44267
1.41102
1.38111
1.35382
1.32952
1.30924
1.29228
1.27768
1.26427
1.25313
1.2441
1.23732
1.23032
1.22326
1.21427
1.20413
1.19422
1.18771
1.18682
1.18853
1.19196
1.19514
1.19653
1.19673
1.19543
1.19612
1.19689
1.19992
1.20321
1.20383
1.20288
1.20314
1.20432
1.20683
1.20919
1.21263
1.21522
1.21821
1.22256
1.23029
1.2341
1.24004
1.25096
1.26062
1.2889
0.462373
0.461714
0.461008
0.460264
0.459492
0.45868
0.457824
0.456916
0.455969
0.454976
0.453925
0.452839
0.451687
0.450517
0.449261
0.447976
0.446656
0.445292
0.443908
0.44227
0.439176
0.480878
0.77574
1.22855
1.70699
2.19111
2.39639
2.48795
2.48318
2.44482
2.4005
2.36258
2.34344
2.34554
2.33799
2.32306
2.30736
2.31897
2.31264
2.29183
2.2596
2.23153
2.2113
2.19167
2.17196
2.14501
2.10468
2.06306
2.02766
1.9959
1.96044
1.92258
1.88091
1.83894
1.79663
1.75357
1.70889
1.6635
1.61865
1.57891
1.54206
1.50612
1.47096
1.43606
1.40348
1.37218
1.34242
1.31617
1.29259
1.27315
1.2581
1.24698
1.23787
1.23366
1.23221
1.22966
1.22489
1.21894
1.21234
1.21102
1.21205
1.21394
1.21577
1.21697
1.21451
1.21257
1.21344
1.21496
1.21723
1.21859
1.22155
1.22514
1.2298
1.23604
1.24516
1.24952
1.26086
1.27802
1.30004
1.35059
0.456431
0.455723
0.454962
0.454166
0.45333
0.452446
0.451519
0.450534
0.449514
0.448431
0.447319
0.446162
0.44499
0.443744
0.442474
0.441148
0.439786
0.438307
0.436779
0.435088
0.433421
0.431339
0.42896
0.42682
0.423717
0.654759
1.17458
1.63064
1.93227
2.08217
2.17348
2.28517
2.35966
2.38106
2.37833
2.35825
2.3415
2.36706
2.37122
2.34911
2.32193
2.30683
2.31526
2.31003
2.29551
2.28487
2.27738
2.26347
2.24153
2.21666
2.195
2.17713
2.16059
2.12808
2.08067
2.03443
1.99759
1.9633
1.92274
1.87939
1.8372
1.79366
1.74784
1.69859
1.65341
1.6108
1.56733
1.52218
1.47971
1.44287
1.41292
1.38844
1.36507
1.34179
1.31738
1.29755
1.28361
1.27754
1.27107
1.26699
1.26309
1.25731
1.24782
1.24274
1.24267
1.24307
1.24466
1.24381
1.24087
1.23991
1.24236
1.24628
1.25201
1.26161
1.27462
1.28699
1.30589
1.33457
1.36955
1.45018
0.449395
0.448654
0.447854
0.447029
0.446162
0.445268
0.444323
0.443337
0.442302
0.441232
0.440107
0.438957
0.437765
0.436527
0.435224
0.433908
0.432527
0.431066
0.429522
0.427843
0.426087
0.424262
0.422488
0.420669
0.418991
0.416406
0.413989
0.410506
0.473556
0.72124
1.05883
1.45431
1.74804
1.94451
2.07155
2.16999
2.23973
2.3101
2.35317
2.32341
2.2987
2.31115
2.33803
2.33448
2.3152
2.29059
2.29942
2.30331
2.29593
2.28037
2.26887
2.26392
2.26569
2.25978
2.24119
2.21432
2.19075
2.17356
2.15946
2.13195
2.08906
2.0478
2.01721
1.98428
1.94163
1.89666
1.85215
1.80114
1.74521
1.69453
1.65021
1.60765
1.56532
1.52511
1.49247
1.46535
1.44263
1.42506
1.40581
1.38684
1.36708
1.34742
1.33403
1.32751
1.32311
1.31728
1.30885
1.30398
1.3016
1.30241
1.30667
1.31106
1.31674
1.32573
1.34173
1.36001
1.38613
1.42832
1.48486
1.5909
0.441774
0.44102
0.440207
0.439362
0.438507
0.437619
0.436704
0.43573
0.434708
0.43364
0.432514
0.431352
0.430146
0.428895
0.427591
0.426271
0.424878
0.423435
0.421879
0.420243
0.418508
0.416748
0.414951
0.413202
0.411376
0.409529
0.407644
0.405833
0.403877
0.401458
0.399437
0.396651
0.43133
0.645686
0.998648
1.36882
1.62738
1.824
1.97358
2.09257
2.17319
2.23125
2.28267
2.27822
2.26456
2.26138
2.27836
2.29045
2.28517
2.27712
2.2794
2.28088
2.27257
2.26155
2.25932
2.25521
2.24773
2.23865
2.23272
2.23278
2.22069
2.19774
2.17367
2.15956
2.14272
2.11007
2.06572
2.03102
1.9967
1.95485
1.91611
1.87996
1.8366
1.79181
1.75085
1.71565
1.6779
1.64184
1.60686
1.57803
1.55162
1.52692
1.50243
1.48112
1.46471
1.45144
1.438
1.42775
1.41961
1.41874
1.42342
1.42937
1.4377
1.45108
1.46505
1.4874
1.52431
1.58082
1.6497
1.75491
0.43376
0.433014
0.432216
0.431379
0.430518
0.429636
0.428739
0.427789
0.426774
0.425698
0.424593
0.423434
0.422252
0.42102
0.419761
0.418476
0.417149
0.41575
0.4143
0.412776
0.411201
0.409605
0.407948
0.406365
0.404704
0.403094
0.40135
0.399718
0.398036
0.396427
0.394886
0.393483
0.39184
0.38971
0.387807
0.385149
0.409799
0.599673
0.940442
1.3303
1.61172
1.80169
1.93486
2.04127
2.12369
2.1736
2.20751
2.2277
2.223
2.22565
2.23804
2.23833
2.23331
2.23126
2.24303
2.25649
2.25526
2.25145
2.24583
2.23571
2.23662
2.23147
2.21977
2.20871
2.20408
2.19684
2.17854
2.15522
2.14106
2.12766
2.10124
2.06859
2.04377
2.01628
1.9852
1.95069
1.92203
1.89381
1.86112
1.82845
1.7935
1.75932
1.72745
1.69925
1.67562
1.65885
1.64281
1.62687
1.60936
1.59859
1.6003
1.60836
1.61929
1.63017
1.64184
1.6628
1.69867
1.7519
1.81905
1.90335
0.4256
0.424877
0.424099
0.423279
0.422426
0.421553
0.420654
0.41973
0.418741
0.417709
0.416646
0.415539
0.414415
0.413254
0.412074
0.410881
0.40966
0.408372
0.40708
0.405696
0.404342
0.40292
0.401498
0.400054
0.398627
0.397164
0.395662
0.394189
0.392702
0.391302
0.38984
0.388473
0.386957
0.385464
0.383875
0.382423
0.38077
0.378837
0.377203
0.375069
0.412755
0.64196
0.992361
1.34457
1.6085
1.79846
1.91885
2.01578
2.08615
2.12912
2.16954
2.16652
2.16706
2.17271
2.18856
2.21006
2.21197
2.21171
2.21198
2.21376
2.22229
2.22517
2.22107
2.21386
2.20218
2.19738
2.19417
2.18699
2.17952
2.17569
2.1719
2.15964
2.14682
2.13863
2.12582
2.10877
2.08283
2.05889
2.0408
2.02165
1.99703
1.96492
1.93561
1.9199
1.90148
1.87861
1.8529
1.83757
1.82201
1.81281
1.80883
1.80881
1.814
1.82206
1.82987
1.84491
1.87249
1.9089
1.9487
1.9926
0.417414
0.416709
0.415958
0.415166
0.414336
0.413485
0.412596
0.411711
0.410787
0.40984
0.408859
0.407847
0.406814
0.405785
0.404712
0.403669
0.402579
0.401482
0.40035
0.399167
0.397962
0.396775
0.395553
0.394317
0.393073
0.39179
0.390498
0.389161
0.387889
0.386577
0.385266
0.383989
0.382659
0.381291
0.379813
0.378479
0.377023
0.375701
0.374395
0.373191
0.371955
0.370698
0.369621
0.368175
0.436881
0.73051
1.09401
1.40241
1.63908
1.81525
1.92863
2.00904
2.05207
2.08561
2.11028
2.13273
2.13282
2.13689
2.14473
2.15132
2.16401
2.17714
2.18127
2.17727
2.17312
2.1779
2.18636
2.18637
2.18384
2.17921
2.17184
2.16968
2.16659
2.16472
2.16017
2.15517
2.14695
2.13766
2.12908
2.11983
2.10953
2.09343
2.0698
2.048
2.03999
2.03268
2.01507
1.99308
1.97723
1.98013
1.98381
1.98031
1.97291
1.96941
1.97409
1.98527
2.00395
2.0268
2.04599
2.04983
0.409047
0.408385
0.407696
0.406967
0.406216
0.405454
0.404665
0.403868
0.403059
0.402213
0.401378
0.400505
0.399636
0.398753
0.397845
0.396947
0.396032
0.395123
0.3942
0.393195
0.392166
0.391166
0.390124
0.389086
0.387987
0.386882
0.385737
0.384576
0.383445
0.382255
0.381083
0.379895
0.378725
0.37745
0.376224
0.374988
0.373803
0.37268
0.371508
0.370461
0.369547
0.368735
0.368036
0.367306
0.36643
0.365557
0.364847
0.363722
0.513529
0.885714
1.24617
1.52528
1.71571
1.8632
1.94739
2.00728
2.03244
2.0573
2.07504
2.07384
2.07937
2.09223
2.10439
2.10966
2.11658
2.12827
2.14036
2.1476
2.14629
2.14653
2.151
2.15868
2.16427
2.16404
2.16147
2.15448
2.14931
2.14769
2.14492
2.13992
2.13358
2.13184
2.12639
2.11475
2.10341
2.09804
2.09575
2.08676
2.06711
2.05674
2.05643
2.06363
2.06485
2.05724
2.0481
2.04621
2.05416
2.06818
2.08327
2.07813
0.401224
0.400635
0.400024
0.399411
0.398785
0.398152
0.397481
0.396797
0.396105
0.395397
0.394707
0.393996
0.393286
0.392559
0.39182
0.391082
0.390325
0.38956
0.388797
0.387955
0.387097
0.386207
0.385305
0.384364
0.383392
0.382422
0.381416
0.380394
0.379395
0.378378
0.377299
0.376255
0.375222
0.374168
0.373126
0.372112
0.371183
0.370221
0.369326
0.368484
0.367702
0.367112
0.36656
0.3659
0.365233
0.364587
0.363984
0.363257
0.362417
0.361785
0.360952
0.419988
0.722553
1.13442
1.45145
1.64993
1.8135
1.90002
1.95874
1.9828
2.00948
2.02185
2.02329
2.02653
2.03509
2.04661
2.06161
2.07535
2.08569
2.09287
2.10038
2.1105
2.12183
2.12638
2.12908
2.13252
2.13762
2.14089
2.14106
2.13926
2.13525
2.12561
2.1252
2.12327
2.11854
2.11105
2.10765
2.10826
2.10212
2.09427
2.08544
2.08661
2.09089
2.09221
2.08805
2.08227
2.08082
2.08035
2.08438
2.07976
0.394359
0.393877
0.393384
0.392894
0.392389
0.39188
0.391339
0.390782
0.390213
0.389638
0.38907
0.388484
0.387874
0.387263
0.386653
0.38604
0.38538
0.384709
0.384018
0.383292
0.382527
0.381717
0.380877
0.380006
0.379116
0.378263
0.377412
0.376542
0.375718
0.374873
0.373964
0.37308
0.372242
0.37144
0.370634
0.369898
0.369158
0.368408
0.367717
0.366984
0.366303
0.365734
0.365174
0.364601
0.364099
0.36359
0.36306
0.362407
0.361856
0.361376
0.36087
0.360694
0.360657
0.360368
0.387749
0.626954
1.06898
1.37629
1.61453
1.78318
1.88336
1.92055
1.93806
1.9616
1.98033
1.98367
1.98747
1.99403
2.0071
2.018
2.028
2.04087
2.05555
2.06526
2.07431
2.08437
2.09133
2.09636
2.10288
2.10738
2.10782
2.10686
2.11205
2.11597
2.11341
2.1071
2.10367
2.09813
2.09739
2.09584
2.09133
2.08868
2.08922
2.09115
2.09306
2.09348
2.08919
2.08279
2.08171
2.07631
0.388807
0.388437
0.388051
0.387657
0.387244
0.386822
0.386389
0.385937
0.385463
0.384974
0.384491
0.383976
0.383429
0.382882
0.382345
0.381791
0.38119
0.380568
0.379931
0.379269
0.378561
0.377797
0.377017
0.376221
0.375423
0.374693
0.373998
0.3733
0.372665
0.372022
0.371326
0.370634
0.370037
0.369444
0.368845
0.368282
0.367693
0.367108
0.366491
0.365872
0.365257
0.364658
0.364115
0.363706
0.363292
0.362901
0.362453
0.361936
0.361489
0.361116
0.361045
0.361003
0.360885
0.360741
0.360575
0.359981
0.359299
0.359961
0.60594
1.08216
1.39526
1.61185
1.76298
1.86202
1.90093
1.92186
1.93784
1.93634
1.94298
1.94942
1.95842
1.97473
1.98622
1.99416
2.00273
2.00933
2.01605
2.0267
2.04006
2.04935
2.05528
2.05924
2.06349
2.06838
2.07264
2.07154
2.07017
2.06952
2.07475
2.07822
2.07396
2.06946
2.07138
2.07627
2.0824
2.08518
2.08078
2.07342
2.06817
2.06126
0.384343
0.384004
0.383641
0.383281
0.38294
0.382598
0.382238
0.381852
0.381433
0.380982
0.380528
0.380055
0.379556
0.379048
0.37854
0.378006
0.377434
0.376853
0.376285
0.375711
0.37509
0.374416
0.373738
0.373072
0.372426
0.371854
0.371325
0.3708
0.370346
0.369923
0.369435
0.368928
0.368503
0.368067
0.367587
0.367088
0.366577
0.366043
0.365492
0.364936
0.364327
0.363753
0.363289
0.362937
0.362647
0.362407
0.36202
0.361604
0.361179
0.361205
0.361258
0.361216
0.361173
0.360984
0.360492
0.360028
0.359513
0.359211
0.358824
0.357621
0.368847
0.668017
1.10964
1.4514
1.65169
1.78131
1.84457
1.86382
1.88787
1.8988
1.90308
1.9128
1.9151
1.92246
1.93165
1.93713
1.94443
1.95281
1.96011
1.96623
1.97395
1.98189
1.98586
1.99306
2.00311
2.00838
2.00865
2.00997
2.01258
2.01485
2.01662
2.01787
2.02213
2.02943
2.03841
2.04567
2.04597
2.03987
2.02802
2.01611
0.380325
0.380026
0.379712
0.379402
0.379093
0.378767
0.378425
0.378066
0.377691
0.377294
0.376886
0.376487
0.376075
0.375647
0.375201
0.374723
0.374222
0.373721
0.373243
0.37278
0.372293
0.371781
0.371278
0.370788
0.370302
0.369886
0.369495
0.369103
0.368764
0.368479
0.368128
0.367742
0.367405
0.367055
0.366619
0.366119
0.365616
0.365097
0.364597
0.364085
0.363574
0.363117
0.362782
0.362565
0.36244
0.362242
0.361935
0.361569
0.361594
0.361671
0.361672
0.361628
0.361485
0.361193
0.360818
0.360247
0.359696
0.35931
0.358557
0.357315
0.357526
0.358806
0.360009
0.420163
0.798134
1.18849
1.4803
1.65246
1.74936
1.79996
1.82826
1.85455
1.84722
1.85375
1.85347
1.85508
1.86353
1.87348
1.877
1.88084
1.88946
1.89493
1.8961
1.90123
1.90817
1.91289
1.91518
1.91644
1.91824
1.92044
1.92621
1.93319
1.93852
1.9459
1.95696
1.968
1.97279
1.96929
1.95828
1.94981
0.376436
0.376207
0.375966
0.375719
0.375463
0.375177
0.374887
0.374597
0.374296
0.37399
0.373684
0.373387
0.37308
0.372755
0.372404
0.372015
0.37163
0.371279
0.370946
0.37062
0.370287
0.369944
0.36961
0.369255
0.368894
0.368574
0.368275
0.367939
0.367629
0.36736
0.36705
0.366682
0.366323
0.365989
0.365589
0.365133
0.364663
0.364204
0.363782
0.363401
0.363044
0.362807
0.36263
0.362547
0.362559
0.362539
0.362476
0.362372
0.36229
0.362238
0.362128
0.361868
0.361528
0.361263
0.360671
0.359679
0.358812
0.358587
0.357987
0.358911
0.361256
0.364496
0.367669
0.367284
0.366941
0.367484
0.513376
0.92359
1.2268
1.47817
1.62945
1.70111
1.73928
1.77472
1.77498
1.77712
1.78084
1.78076
1.78213
1.78711
1.79716
1.79967
1.80112
1.80567
1.80524
1.80616
1.81052
1.81499
1.8159
1.81552
1.81773
1.82313
1.82913
1.83873
1.85144
1.86485
1.87034
1.86847
1.85981
1.85468
0.373441
0.373237
0.373018
0.3728
0.372594
0.372377
0.372155
0.371944
0.371734
0.371545
0.371363
0.371175
0.370963
0.370729
0.370469
0.37017
0.369863
0.369612
0.369376
0.369129
0.368902
0.368703
0.368459
0.368157
0.367817
0.3675
0.367217
0.366906
0.366562
0.366246
0.365932
0.365579
0.365209
0.364882
0.364628
0.364351
0.364014
0.363671
0.363373
0.363139
0.362915
0.362964
0.363158
0.363376
0.363503
0.363463
0.363248
0.363013
0.362822
0.362632
0.362321
0.36191
0.361446
0.360777
0.359599
0.358725
0.358143
0.35842
0.360604
0.364343
0.367421
0.369686
0.372031
0.371893
0.37191
0.373593
0.376647
0.38123
0.383689
0.614285
0.99728
1.24637
1.45074
1.55862
1.62174
1.66707
1.69816
1.69057
1.69238
1.69259
1.6937
1.69514
1.70097
1.70872
1.7071
1.70452
1.70692
1.70716
1.70588
1.70497
1.70616
1.70959
1.71597
1.72613
1.73637
1.74774
1.75555
1.75472
1.74849
1.74511
0.371111
0.370983
0.370848
0.370705
0.370563
0.37041
0.370244
0.370099
0.369965
0.369843
0.369764
0.369673
0.369529
0.369343
0.369147
0.368915
0.368642
0.368417
0.368198
0.367938
0.367759
0.367624
0.367411
0.367124
0.3668
0.366467
0.366136
0.365806
0.365448
0.365133
0.364892
0.364675
0.364435
0.364233
0.364206
0.364119
0.363909
0.36363
0.363665
0.363807
0.363979
0.364204
0.364441
0.364413
0.364239
0.363881
0.363431
0.363106
0.362867
0.362387
0.361649
0.360774
0.360122
0.359599
0.358758
0.359123
0.360913
0.364349
0.368081
0.371593
0.373025
0.373559
0.374671
0.376181
0.378911
0.382529
0.386196
0.389573
0.392733
0.39432
0.395435
0.419047
0.699073
1.00474
1.2481
1.40048
1.48664
1.53819
1.58021
1.60978
1.60774
1.60317
1.60603
1.60507
1.60306
1.60355
1.60749
1.60791
1.60742
1.60682
1.60459
1.60448
1.60846
1.61687
1.62628
1.63749
1.64568
1.64522
1.64206
1.63997
0.369887
0.369739
0.369601
0.369474
0.369354
0.369249
0.369138
0.369021
0.368893
0.368751
0.368641
0.368549
0.368438
0.368307
0.368148
0.367941
0.367685
0.367443
0.367223
0.367005
0.366855
0.366724
0.366537
0.366347
0.366145
0.365873
0.365532
0.365157
0.364853
0.364618
0.364477
0.364399
0.364318
0.364337
0.36454
0.364792
0.364797
0.364839
0.364984
0.365102
0.365057
0.364983
0.364934
0.364756
0.364369
0.363674
0.36284
0.362309
0.361865
0.361249
0.360507
0.359798
0.359627
0.360424
0.363322
0.367288
0.371507
0.374604
0.375829
0.377044
0.376968
0.376817
0.377718
0.381393
0.386493
0.391137
0.394886
0.396569
0.398087
0.400168
0.402685
0.404408
0.407938
0.411067
0.47755
0.728251
1.00024
1.21225
1.34682
1.42669
1.46841
1.49858
1.53311
1.52389
1.5184
1.51307
1.5116
1.51064
1.51332
1.51627
1.51569
1.51523
1.51696
1.52041
1.5263
1.53677
1.54626
1.54973
1.54847
1.54671
0.368987
0.368832
0.368705
0.368616
0.368535
0.368459
0.36838
0.368275
0.368141
0.367989
0.367835
0.367684
0.36756
0.367474
0.36737
0.367217
0.367017
0.366824
0.366667
0.366534
0.366436
0.366333
0.366202
0.36611
0.365987
0.365792
0.365515
0.36513
0.365
0.365047
0.365148
0.365336
0.36547
0.365607
0.365784
0.365744
0.365609
0.365493
0.36546
0.365375
0.36517
0.364873
0.364525
0.364007
0.363099
0.361993
0.361328
0.360974
0.360794
0.360729
0.361328
0.363479
0.366902
0.371183
0.374985
0.37742
0.37918
0.380429
0.380335
0.380346
0.380969
0.383076
0.386847
0.391257
0.395372
0.399048
0.401542
0.402714
0.403946
0.406023
0.408861
0.4134
0.417991
0.42215
0.422671
0.423709
0.425506
0.513089
0.756025
1.00878
1.18098
1.30261
1.37061
1.40582
1.43172
1.44758
1.44366
1.43329
1.43513
1.43243
1.43249
1.43393
1.4384
1.4428
1.44837
1.45475
1.45967
1.46479
1.46681
1.46815
0.369185
0.368934
0.368708
0.368514
0.368348
0.368176
0.367997
0.367818
0.367624
0.367435
0.367274
0.36714
0.367063
0.367047
0.367015
0.366921
0.366801
0.366741
0.366662
0.366644
0.366691
0.366729
0.366786
0.366793
0.366766
0.366723
0.366609
0.366356
0.366304
0.366402
0.366369
0.366235
0.366052
0.366003
0.365931
0.365691
0.3654
0.365137
0.364954
0.364656
0.364286
0.363976
0.363626
0.363023
0.361993
0.361335
0.361748
0.363093
0.365864
0.369455
0.373559
0.376783
0.379431
0.381276
0.382255
0.382711
0.382895
0.38353
0.384455
0.386153
0.38957
0.394405
0.398864
0.401687
0.403681
0.404983
0.406074
0.407769
0.410202
0.413343
0.41744
0.422006
0.425765
0.427331
0.428913
0.431299
0.435811
0.438605
0.441216
0.443343
0.544353
0.787888
0.993858
1.16866
1.26517
1.31047
1.33831
1.35425
1.38264
1.37172
1.36767
1.36384
1.36652
1.37013
1.37911
1.3885
1.3951
1.39837
1.39949
1.40289
0.36717
0.367009
0.3669
0.366858
0.36684
0.366772
0.366766
0.366837
0.366878
0.366861
0.366881
0.366974
0.367085
0.367337
0.367539
0.36747
0.367328
0.367316
0.367329
0.367353
0.367427
0.367486
0.367481
0.367389
0.367263
0.367299
0.367263
0.367042
0.366767
0.366719
0.366479
0.366001
0.365665
0.365307
0.36477
0.364206
0.364027
0.363958
0.363863
0.363823
0.363887
0.364128
0.364813
0.366378
0.368762
0.371856
0.374972
0.37824
0.380827
0.382897
0.384292
0.385115
0.385886
0.386027
0.386079
0.386278
0.387001
0.389072
0.392993
0.397454
0.401936
0.405015
0.407446
0.409061
0.409769
0.410476
0.412061
0.414773
0.418409
0.422268
0.426798
0.429842
0.431817
0.433269
0.435832
0.439381
0.443315
0.44708
0.450737
0.454223
0.456011
0.458346
0.460593
0.597345
0.809277
0.995845
1.13061
1.22829
1.26795
1.28372
1.30785
1.31858
1.31911
1.31462
1.32257
1.32934
1.33729
1.34486
1.34835
1.35407
0.367278
0.367399
0.36739
0.367368
0.36739
0.367407
0.367451
0.367762
0.367803
0.367669
0.367473
0.367426
0.367452
0.367676
0.367739
0.367647
0.36749
0.367392
0.367287
0.367155
0.367163
0.367225
0.367142
0.366965
0.366845
0.366778
0.366742
0.366647
0.366442
0.366102
0.365512
0.364951
0.365136
0.365044
0.36477
0.364974
0.365757
0.367155
0.369135
0.371283
0.373681
0.376063
0.378689
0.381109
0.383427
0.385272
0.38672
0.387782
0.388427
0.389013
0.38926
0.389654
0.39002
0.390858
0.392579
0.395229
0.398795
0.402942
0.406122
0.409004
0.410966
0.412121
0.413289
0.4144
0.415538
0.417477
0.420383
0.424259
0.427916
0.43182
0.434853
0.436682
0.4382
0.440969
0.444245
0.447621
0.451137
0.455033
0.458352
0.460926
0.463604
0.467201
0.471959
0.474103
0.476081
0.485657
0.619334
0.852349
0.992221
1.12105
1.20537
1.23439
1.25405
1.26538
1.28434
1.28861
1.29423
1.30243
1.30765
1.31656
0.368062
0.367993
0.36794
0.36787
0.367773
0.367677
0.367581
0.367459
0.367288
0.367135
0.366962
0.366919
0.366933
0.366821
0.366597
0.366556
0.366734
0.366711
0.366599
0.366575
0.366717
0.366942
0.367017
0.367109
0.367331
0.36789
0.368707
0.369622
0.370667
0.372026
0.373527
0.375048
0.376584
0.378395
0.380222
0.381914
0.383336
0.384756
0.386052
0.387258
0.388276
0.389144
0.389856
0.390407
0.391005
0.391431
0.391963
0.39234
0.392903
0.393618
0.394839
0.396722
0.399337
0.402612
0.40603
0.409128
0.412144
0.414202
0.415544
0.41679
0.417127
0.417641
0.418364
0.420219
0.423696
0.427669
0.432012
0.435341
0.438361
0.440614
0.441784
0.443442
0.446118
0.44927
0.452761
0.45676
0.460065
0.463112
0.465544
0.468051
0.471237
0.475077
0.478649
0.481641
0.484781
0.488397
0.491064
0.492815
0.510109
0.690991
0.881229
1.03371
1.13805
1.19636
1.22548
1.24139
1.26443
1.28258
1.28403
1.29149
0.370929
0.371083
0.371293
0.371538
0.371797
0.372069
0.372353
0.372645
0.372986
0.373375
0.373769
0.374173
0.374624
0.375103
0.375597
0.376085
0.376641
0.377275
0.377918
0.378566
0.379299
0.380019
0.380794
0.381724
0.382775
0.383747
0.384717
0.385673
0.386563
0.387296
0.388018
0.38882
0.389681
0.390486
0.391215
0.391897
0.392498
0.393065
0.393549
0.394068
0.394484
0.394929
0.39532
0.395916
0.39668
0.397809
0.39923
0.401043
0.403264
0.405774
0.408582
0.41126
0.41381
0.415963
0.417483
0.41887
0.420039
0.420733
0.42161
0.422381
0.42357
0.425291
0.427864
0.431725
0.435654
0.439812
0.442736
0.444761
0.446694
0.447426
0.448765
0.451126
0.454747
0.458724
0.462968
0.466326
0.468935
0.470961
0.473498
0.476691
0.480455
0.483551
0.486156
0.489312
0.492423
0.494901
0.49743
0.500088
0.501637
0.503531
0.504655
0.578898
0.749358
0.952928
1.08431
1.17137
1.22578
1.25231
1.26496
1.27953
0.384272
0.38454
0.384811
0.385097
0.385421
0.385743
0.386057
0.386361
0.386662
0.386996
0.38734
0.387667
0.387998
0.388348
0.388706
0.389082
0.38946
0.389867
0.390313
0.390759
0.391184
0.391639
0.392135
0.392634
0.393118
0.393605
0.394084
0.394507
0.394888
0.395267
0.395722
0.396214
0.39678
0.397363
0.398008
0.39862
0.399285
0.399998
0.400888
0.401948
0.403267
0.404825
0.406617
0.408574
0.410555
0.412578
0.414502
0.416371
0.418108
0.41966
0.420991
0.422109
0.423
0.423684
0.424219
0.424961
0.425669
0.426863
0.428667
0.431293
0.434876
0.438547
0.442519
0.445507
0.447881
0.449616
0.4507
0.452125
0.453353
0.455392
0.458399
0.462187
0.466264
0.47012
0.472948
0.474975
0.477089
0.479262
0.482043
0.485579
0.488575
0.491175
0.493756
0.496323
0.498602
0.500717
0.50284
0.504863
0.506506
0.507877
0.509108
0.509714
0.510151
0.523164
0.647044
0.896923
1.08204
1.18754
1.2406
1.27292
0.394406
0.394603
0.394816
0.395028
0.395233
0.395424
0.395619
0.395871
0.396162
0.396427
0.396669
0.396941
0.39725
0.39757
0.397901
0.398244
0.398625
0.399043
0.399477
0.399916
0.400359
0.400825
0.401332
0.4019
0.402504
0.403146
0.40383
0.404582
0.40543
0.406384
0.407424
0.408519
0.409622
0.410688
0.411704
0.412685
0.413708
0.414796
0.415986
0.417247
0.418548
0.419767
0.420918
0.421939
0.422918
0.423852
0.424739
0.425612
0.426435
0.427226
0.42793
0.428774
0.429657
0.430958
0.432578
0.434658
0.437196
0.440374
0.443529
0.446749
0.449378
0.451796
0.453903
0.455338
0.456651
0.457259
0.45844
0.460184
0.463107
0.467074
0.470915
0.474446
0.477107
0.479473
0.481089
0.482989
0.485385
0.488581
0.491906
0.494073
0.49575
0.497751
0.500051
0.502127
0.504057
0.505961
0.507511
0.508706
0.509724
0.51054
0.511188
0.511727
0.512299
0.512857
0.513281
0.513468
0.619794
0.903682
1.13271
1.27201
0.407221
0.407399
0.407633
0.407913
0.408225
0.408516
0.408761
0.409016
0.409329
0.409674
0.410023
0.410386
0.410761
0.411155
0.411565
0.412006
0.412463
0.412939
0.413422
0.413924
0.414453
0.415009
0.415599
0.416224
0.416904
0.417603
0.418278
0.418932
0.419581
0.420238
0.420886
0.421532
0.422157
0.422794
0.423453
0.424166
0.424926
0.425733
0.42655
0.427358
0.42814
0.428883
0.429652
0.430443
0.431349
0.432241
0.433279
0.434408
0.435745
0.4372
0.439051
0.441168
0.443721
0.44617
0.448749
0.451082
0.453389
0.455408
0.457115
0.458557
0.45953
0.460577
0.461494
0.462993
0.464751
0.467063
0.469981
0.47322
0.476869
0.480004
0.482664
0.484693
0.486304
0.487962
0.490227
0.492707
0.495314
0.497537
0.499341
0.500696
0.502191
0.5039
0.505648
0.507214
0.508531
0.509538
0.510428
0.511211
0.511918
0.512319
0.51257
0.512855
0.513321
0.513746
0.513982
0.514076
0.51402
0.51407
0.671967
1.15542
0.419764
0.419971
0.420183
0.420411
0.420664
0.420927
0.421222
0.421536
0.421836
0.422127
0.422472
0.422853
0.423227
0.423585
0.423963
0.424369
0.424787
0.425197
0.425617
0.426058
0.426514
0.426968
0.427414
0.427855
0.428295
0.428739
0.429203
0.429708
0.43026
0.430866
0.431517
0.43222
0.432965
0.433747
0.434546
0.435354
0.436164
0.437015
0.437891
0.438887
0.439977
0.441266
0.442682
0.444278
0.445868
0.447537
0.449146
0.450833
0.452403
0.454086
0.455706
0.457334
0.458819
0.460201
0.461415
0.462489
0.463619
0.46469
0.466006
0.467304
0.468793
0.470386
0.472613
0.475528
0.478669
0.48193
0.484576
0.48693
0.488848
0.490447
0.491942
0.493205
0.494765
0.496776
0.498889
0.500923
0.502535
0.503959
0.505283
0.50668
0.507859
0.508769
0.509651
0.510582
0.511385
0.51197
0.512379
0.512742
0.513045
0.513367
0.513567
0.513771
0.514088
0.514311
0.514445
0.514293
0.514115
0.514423
0.514757
0.709423
0.433861
0.434079
0.434336
0.434622
0.434883
0.435103
0.435362
0.435675
0.435984
0.436282
0.436579
0.436883
0.437204
0.43755
0.437915
0.43829
0.438678
0.43909
0.439534
0.440005
0.440508
0.441048
0.441643
0.442287
0.442978
0.443697
0.444455
0.44523
0.446007
0.446759
0.447495
0.448214
0.44894
0.449674
0.450457
0.451255
0.45214
0.453079
0.454116
0.455181
0.456307
0.45739
0.458483
0.459509
0.460537
0.461549
0.462654
0.463753
0.464877
0.466011
0.467134
0.468334
0.469498
0.470691
0.471805
0.473113
0.474602
0.476589
0.47885
0.48138
0.483956
0.486348
0.488704
0.490627
0.492277
0.493678
0.494797
0.495886
0.496931
0.498274
0.499733
0.501333
0.502959
0.504525
0.506024
0.507275
0.508303
0.509244
0.510163
0.510844
0.511323
0.51169
0.512147
0.512693
0.513059
0.513262
0.513443
0.513596
0.513722
0.513937
0.514227
0.514504
0.514629
0.514766
0.514666
0.514406
0.514626
0.515322
0.51595
0.516638
0.449206
0.449423
0.449684
0.449952
0.450195
0.450446
0.450721
0.451002
0.451305
0.451641
0.451978
0.45231
0.452663
0.453052
0.453456
0.453866
0.454288
0.454734
0.455193
0.455665
0.456144
0.456634
0.457124
0.457617
0.458112
0.458622
0.459137
0.459679
0.46024
0.460858
0.461525
0.462268
0.463057
0.463909
0.464764
0.465633
0.466488
0.467345
0.468149
0.468931
0.469705
0.470515
0.471395
0.472374
0.47347
0.47465
0.475865
0.477044
0.478261
0.479546
0.481071
0.482735
0.484519
0.486199
0.487845
0.489367
0.490956
0.492523
0.494131
0.495632
0.496904
0.498056
0.499087
0.499921
0.500721
0.501495
0.502434
0.503459
0.504708
0.50611
0.507497
0.508675
0.509478
0.51008
0.510679
0.511251
0.511699
0.512094
0.512535
0.513018
0.513349
0.513554
0.513748
0.513999
0.514087
0.514044
0.514011
0.514039
0.514109
0.514298
0.514774
0.515086
0.515127
0.515084
0.514687
0.514729
0.515551
0.516532
0.516893
0.517814
0.465981
0.466225
0.466484
0.466721
0.466947
0.467211
0.467519
0.467836
0.46814
0.468432
0.468742
0.469079
0.469433
0.46978
0.47013
0.470489
0.470869
0.471264
0.471676
0.472103
0.472552
0.473024
0.47353
0.474064
0.474631
0.475219
0.47584
0.476482
0.47714
0.477801
0.478479
0.479164
0.479859
0.480566
0.481277
0.481974
0.482675
0.4834
0.484173
0.485037
0.486004
0.48704
0.488097
0.489127
0.490072
0.490992
0.491887
0.492838
0.49382
0.494909
0.496029
0.497177
0.498212
0.499159
0.499967
0.500715
0.501417
0.502157
0.502955
0.503861
0.504768
0.505621
0.506353
0.50706
0.507787
0.50863
0.509504
0.510283
0.510951
0.511526
0.51205
0.512435
0.51261
0.512702
0.512828
0.513072
0.513337
0.513623
0.51402
0.514377
0.514523
0.514576
0.514639
0.514693
0.514645
0.514449
0.514242
0.51423
0.514286
0.51458
0.515221
0.515621
0.515665
0.515366
0.515113
0.515658
0.517229
0.518146
0.517974
0.51834
0.483797
0.483963
0.484147
0.484355
0.484613
0.484882
0.485118
0.485346
0.485597
0.485877
0.486166
0.48645
0.486731
0.487021
0.487326
0.487649
0.487981
0.488322
0.488676
0.489049
0.489436
0.489838
0.490256
0.490688
0.491127
0.491577
0.492044
0.492531
0.493021
0.493524
0.494063
0.494634
0.495233
0.495842
0.496437
0.496989
0.497511
0.498021
0.498546
0.499106