/*--------------------------------*- C++ -*----------------------------------*\
  =========                 |
  \\      /  F ield         | OpenFOAM: The Open Source CFD Toolbox
   \\    /   O peration     | Website:  https://openfoam.org
    \\  /    A nd           | Version:  7
     \\/     M anipulation  |
\*---------------------------------------------------------------------------*/
FoamFile
{
    version     2.0;
    format      ascii;
    class       volVectorField;
    location    "11.5";
    object      U;
}
// * * * * * * * * * * * * * * * * * * * * * * * * * * * * * * * * * * * * * //

dimensions      [0 1 -1 0 0 0 0];

internalField   nonuniform List<vector> 
90000
(
(3.12021 -0.825406 0)
(3.09033 -0.761275 0)
(3.0633 -0.676017 0)
(3.04628 -0.603278 0)
(3.04163 -0.585262 0)
(3.02374 -0.508038 0)
(3.01778 -0.450964 0)
(3.01542 -0.409899 0)
(3.01666 -0.385546 0)
(3.0073 -0.320175 0)
(3.00938 -0.298295 0)
(3.00517 -0.249591 0)
(3.00726 -0.230056 0)
(3.00143 -0.18083 0)
(3.00451 -0.167401 0)
(2.99883 -0.121153 0)
(3.00163 -0.113157 0)
(2.99636 -0.0711252 0)
(2.99968 -0.0676838 0)
(2.99632 -0.0311748 0)
(2.99715 -0.0334868 0)
(2.99196 -0.00770969 0)
(2.9916 -0.0152818 0)
(2.98459 -0.00188208 0)
(2.98324 0.00343427 0)
(2.97795 0.00790454 0)
(2.97514 0.00998179 0)
(2.97432 0.0115127 0)
(2.97397 0.0113977 0)
(2.97352 0.0115396 0)
(2.97274 0.0118903 0)
(2.97214 0.0127406 0)
(2.97198 0.0140477 0)
(2.97137 0.0172457 0)
(2.96997 0.020052 0)
(2.96838 0.0243436 0)
(2.96543 0.0273537 0)
(2.96161 0.0311647 0)
(2.95997 0.0357132 0)
(2.95846 0.0329685 0)
(2.95693 0.031136 0)
(2.95457 0.027999 0)
(2.95203 0.0227675 0)
(2.9511 0.018899 0)
(2.95009 0.0137236 0)
(2.9497 0.0119534 0)
(2.94903 0.00930649 0)
(2.94856 0.00799847 0)
(2.949 0.00921103 0)
(2.95033 0.0124006 0)
(2.95266 0.0183419 0)
(2.9548 0.0214703 0)
(2.95378 0.0242334 0)
(2.95283 0.0238042 0)
(2.95106 0.0224479 0)
(2.94868 0.0202718 0)
(2.94745 0.0173914 0)
(2.94658 0.014792 0)
(2.94682 0.0127614 0)
(2.94745 0.0141002 0)
(2.94864 0.0163303 0)
(2.94987 0.02089 0)
(2.95045 0.0205752 0)
(2.94951 0.0200463 0)
(2.94746 0.0187717 0)
(2.94642 0.0168389 0)
(2.94584 0.013613 0)
(2.94622 0.0141555 0)
(2.94722 0.0161855 0)
(2.94814 0.0186158 0)
(2.94812 0.0184525 0)
(2.94764 0.0167161 0)
(2.94699 0.0144548 0)
(2.94682 0.01464 0)
(2.94726 0.0158297 0)
(2.94828 0.0178141 0)
(2.94869 0.0192462 0)
(2.94828 0.0183339 0)
(2.94761 0.016658 0)
(2.94768 0.0163331 0)
(2.94797 0.0172494 0)
(2.94845 0.0185893 0)
(2.94909 0.0193391 0)
(2.94906 0.01878 0)
(2.94899 0.0175536 0)
(2.94921 0.0175736 0)
(2.94941 0.0178847 0)
(2.94957 0.0178663 0)
(2.94984 0.0177465 0)
(2.95009 0.0180812 0)
(2.9505 0.0182243 0)
(2.95081 0.0177927 0)
(2.95099 0.0176526 0)
(2.95121 0.0177649 0)
(2.95139 0.0179501 0)
(2.95158 0.0179322 0)
(2.95174 0.0177543 0)
(2.952 0.0178667 0)
(2.95229 0.0179271 0)
(2.9527 0.0181483 0)
(3.15013 -0.886027 0)
(3.15007 -0.885975 0)
(3.14999 -0.885903 0)
(3.1499 -0.885802 0)
(3.14973 -0.885613 0)
(3.14937 -0.884902 0)
(3.14857 -0.883578 0)
(3.14738 -0.881454 0)
(3.14562 -0.878341 0)
(3.14299 -0.872305 0)
(3.13994 -0.864751 0)
(3.13571 -0.852445 0)
(3.13074 -0.838582 0)
(3.12392 -0.815293 0)
(3.11672 -0.79258 0)
(3.10688 -0.754398 0)
(3.0977 -0.721963 0)
(3.08407 -0.664487 0)
(3.07403 -0.62359 0)
(3.05694 -0.545578 0)
(3.04831 -0.500699 0)
(3.02846 -0.408444 0)
(3.02301 -0.367001 0)
(3.00204 -0.269644 0)
(3.00255 -0.240229 0)
(2.98341 -0.15675 0)
(2.98616 -0.137457 0)
(2.969 -0.0705452 0)
(2.97231 -0.0589215 0)
(2.95849 -0.0110422 0)
(2.96137 -0.00395731 0)
(2.95273 0.0265984 0)
(2.95523 0.0317361 0)
(2.95013 0.0490377 0)
(2.95051 0.0527445 0)
(2.94726 0.0613137 0)
(2.94627 0.0637291 0)
(2.94527 0.0609436 0)
(2.94454 0.0554381 0)
(2.94405 0.0441333 0)
(2.94508 0.0307753 0)
(2.94642 0.0235704 0)
(2.9473 0.0178844 0)
(2.94758 0.0143508 0)
(2.9477 0.0114091 0)
(2.94798 0.0100398 0)
(2.94818 0.0100676 0)
(2.94876 0.0128355 0)
(2.9495 0.0194946 0)
(2.95052 0.0266285 0)
(2.94726 0.0305123 0)
(2.94616 0.0303366 0)
(2.94516 0.0279802 0)
(2.94334 0.0239107 0)
(2.9417 0.0193466 0)
(2.93985 0.0143658 0)
(2.93979 0.0109395 0)
(2.93889 0.0141126 0)
(2.93973 0.0166114 0)
(2.94202 0.0221385 0)
(2.94359 0.0248671 0)
(2.94298 0.027203 0)
(2.94236 0.0261071 0)
(2.94084 0.0214656 0)
(2.93969 0.0153678 0)
(2.9388 0.0134971 0)
(2.93941 0.0141989 0)
(2.9408 0.017431 0)
(2.942 0.0209664 0)
(2.9421 0.02324 0)
(2.94117 0.0217554 0)
(2.93992 0.0193557 0)
(2.94007 0.0150746 0)
(2.94058 0.0150536 0)
(2.94166 0.0164484 0)
(2.94296 0.0195562 0)
(2.9425 0.019697 0)
(2.94147 0.0190189 0)
(2.94093 0.0170223 0)
(2.94188 0.0159621 0)
(2.94214 0.0159289 0)
(2.94283 0.0167475 0)
(2.94299 0.0168172 0)
(2.94306 0.017048 0)
(2.94299 0.017278 0)
(2.94325 0.0170243 0)
(2.94342 0.0169138 0)
(2.94374 0.0169042 0)
(2.94399 0.0172277 0)
(2.94435 0.0173869 0)
(2.94472 0.0176842 0)
(2.94497 0.0177199 0)
(2.94511 0.0174332 0)
(2.94525 0.0177315 0)
(2.94543 0.0180329 0)
(2.94555 0.018111 0)
(2.94581 0.0182238 0)
(2.94611 0.0186426 0)
(2.94647 0.0193145 0)
(2.94697 0.0187894 0)
(3.14662 -0.885077 0)
(3.1464 -0.885041 0)
(3.14618 -0.884964 0)
(3.14592 -0.884935 0)
(3.14569 -0.884826 0)
(3.14538 -0.884859 0)
(3.14514 -0.884743 0)
(3.14495 -0.8846 0)
(3.14479 -0.884504 0)
(3.14463 -0.884437 0)
(3.14444 -0.884321 0)
(3.14424 -0.884187 0)
(3.14403 -0.884072 0)
(3.1438 -0.883958 0)
(3.14354 -0.883867 0)
(3.14327 -0.883755 0)
(3.143 -0.883693 0)
(3.14268 -0.883552 0)
(3.14225 -0.883133 0)
(3.14147 -0.88162 0)
(3.13978 -0.878781 0)
(3.13661 -0.871967 0)
(3.13212 -0.860949 0)
(3.12434 -0.838969 0)
(3.11511 -0.811452 0)
(3.10115 -0.762847 0)
(3.08849 -0.717635 0)
(3.06979 -0.639492 0)
(3.05767 -0.586314 0)
(3.03641 -0.486656 0)
(3.02914 -0.439473 0)
(3.00765 -0.333977 0)
(3.00633 -0.300962 0)
(2.98642 -0.205439 0)
(2.98741 -0.187163 0)
(2.97192 -0.113801 0)
(2.97231 -0.107944 0)
(2.96321 -0.0619715 0)
(2.96638 -0.0649665 0)
(2.95397 -0.0397829 0)
(2.955 -0.0312073 0)
(2.94969 -0.0175136 0)
(2.95093 -0.0132466 0)
(2.94821 -0.00659913 0)
(2.94765 0.00050218 0)
(2.94522 0.0057246 0)
(2.94096 0.016245 0)
(2.93575 0.0245891 0)
(2.9366 0.0350734 0)
(2.93486 0.0341957 0)
(2.93093 0.0314286 0)
(2.92854 0.0254186 0)
(2.92804 0.0184205 0)
(2.92792 0.0120314 0)
(2.92999 0.00751788 0)
(2.93095 0.00799348 0)
(2.93205 0.00829872 0)
(2.93514 0.014198 0)
(2.93624 0.0183107 0)
(2.93794 0.0247305 0)
(2.93828 0.0250796 0)
(2.93791 0.0243882 0)
(2.93602 0.019616 0)
(2.9347 0.0167681 0)
(2.93462 0.0118006 0)
(2.93488 0.0117849 0)
(2.9369 0.0157371 0)
(2.93814 0.0187027 0)
(2.93882 0.0210491 0)
(2.9385 0.020859 0)
(2.937 0.0170496 0)
(2.93572 0.0152501 0)
(2.93722 0.0146862 0)
(2.93785 0.0167011 0)
(2.93903 0.0191122 0)
(2.93904 0.0192199 0)
(2.93874 0.0182731 0)
(2.93799 0.0160293 0)
(2.93778 0.0159572 0)
(2.93811 0.0173313 0)
(2.93892 0.0194977 0)
(2.93893 0.0192058 0)
(2.93882 0.0179986 0)
(2.93899 0.016519 0)
(2.9388 0.0170236 0)
(2.93903 0.0178829 0)
(2.93914 0.0176635 0)
(2.93947 0.0174976 0)
(2.93966 0.017806 0)
(2.93997 0.0181757 0)
(2.94008 0.0177688 0)
(2.94019 0.017349 0)
(2.94029 0.0174497 0)
(2.94041 0.0176102 0)
(2.94058 0.0177069 0)
(2.94057 0.0176033 0)
(2.941 0.0176299 0)
(2.9413 0.0179304 0)
(2.94169 0.0181356 0)
(2.9422 0.0183695 0)
(3.14195 -0.883731 0)
(3.14175 -0.88369 0)
(3.14154 -0.883615 0)
(3.14131 -0.883596 0)
(3.1411 -0.883512 0)
(3.14087 -0.883475 0)
(3.14066 -0.883395 0)
(3.14042 -0.883374 0)
(3.14021 -0.883287 0)
(3.13997 -0.883271 0)
(3.13974 -0.88319 0)
(3.1395 -0.883184 0)
(3.13929 -0.883081 0)
(3.13904 -0.883085 0)
(3.13884 -0.882983 0)
(3.13861 -0.883015 0)
(3.13842 -0.88291 0)
(3.1382 -0.882943 0)
(3.13806 -0.88283 0)
(3.13775 -0.882877 0)
(3.13766 -0.882743 0)
(3.13761 -0.882635 0)
(3.13756 -0.882578 0)
(3.13751 -0.88246 0)
(3.13745 -0.882435 0)
(3.13741 -0.88231 0)
(3.13735 -0.882369 0)
(3.13721 -0.882098 0)
(3.13679 -0.880975 0)
(3.13531 -0.876844 0)
(3.13242 -0.868242 0)
(3.12576 -0.847545 0)
(3.11694 -0.818481 0)
(3.10131 -0.761315 0)
(3.08691 -0.705954 0)
(3.06273 -0.602702 0)
(3.04966 -0.53598 0)
(3.0189 -0.399531 0)
(3.01596 -0.342209 0)
(2.98343 -0.206093 0)
(2.98915 -0.169857 0)
(2.95968 -0.0667496 0)
(2.96524 -0.0443359 0)
(2.94307 0.0182428 0)
(2.94432 0.0366826 0)
(2.93133 0.0659153 0)
(2.92746 0.0798313 0)
(2.92404 0.0753146 0)
(2.92393 0.0562464 0)
(2.92345 0.0342847 0)
(2.92702 0.0244875 0)
(2.92699 0.0182661 0)
(2.92499 0.0136243 0)
(2.9253 0.0129069 0)
(2.92619 0.0123907 0)
(2.92772 0.0125016 0)
(2.93291 0.0213958 0)
(2.9346 0.0247327 0)
(2.9358 0.0284528 0)
(2.93494 0.0277493 0)
(2.93327 0.0232783 0)
(2.9317 0.0177264 0)
(2.93132 0.0104039 0)
(2.93109 0.0119302 0)
(2.93177 0.0126712 0)
(2.93495 0.0178926 0)
(2.93611 0.0201173 0)
(2.93729 0.0236588 0)
(2.93662 0.0222693 0)
(2.93516 0.0181061 0)
(2.93368 0.012142 0)
(2.93468 0.0135944 0)
(2.93582 0.0163194 0)
(2.93627 0.0187065 0)
(2.93781 0.0204345 0)
(2.9372 0.0194899 0)
(2.93646 0.016713 0)
(2.9359 0.0141652 0)
(2.93616 0.0154636 0)
(2.93626 0.0175106 0)
(2.93722 0.0182849 0)
(2.93717 0.0180885 0)
(2.93708 0.017247 0)
(2.93688 0.0168004 0)
(2.93715 0.0169554 0)
(2.93715 0.0172099 0)
(2.93694 0.0172707 0)
(2.93696 0.0173265 0)
(2.93721 0.0175416 0)
(2.93729 0.0177738 0)
(2.93725 0.0177531 0)
(2.93726 0.0173313 0)
(2.93744 0.0175594 0)
(2.9376 0.0178851 0)
(2.93773 0.0179357 0)
(2.93766 0.0179499 0)
(2.93817 0.0181744 0)
(2.93843 0.0186307 0)
(2.93879 0.0189886 0)
(2.93901 0.0182451 0)
(3.13837 -0.882729 0)
(3.13827 -0.882696 0)
(3.13816 -0.882685 0)
(3.13807 -0.882658 0)
(3.13797 -0.882639 0)
(3.13787 -0.882625 0)
(3.13777 -0.882613 0)
(3.13769 -0.882575 0)
(3.13759 -0.88258 0)
(3.13752 -0.882525 0)
(3.13743 -0.882528 0)
(3.13737 -0.882476 0)
(3.1373 -0.882468 0)
(3.13725 -0.882427 0)
(3.13719 -0.882421 0)
(3.13715 -0.882399 0)
(3.13711 -0.882398 0)
(3.13708 -0.882366 0)
(3.13706 -0.882362 0)
(3.13705 -0.882347 0)
(3.13705 -0.882326 0)
(3.13705 -0.882331 0)
(3.13707 -0.882328 0)
(3.13708 -0.882355 0)
(3.13711 -0.882373 0)
(3.13715 -0.882367 0)
(3.13721 -0.882375 0)
(3.13726 -0.882434 0)
(3.13731 -0.882444 0)
(3.13736 -0.882387 0)
(3.1374 -0.882407 0)
(3.13746 -0.882375 0)
(3.1375 -0.882437 0)
(3.13758 -0.882386 0)
(3.13762 -0.882491 0)
(3.13751 -0.88183 0)
(3.13668 -0.878931 0)
(3.13298 -0.868146 0)
(3.12624 -0.8457 0)
(3.11182 -0.796827 0)
(3.09646 -0.734631 0)
(3.07208 -0.629507 0)
(3.05698 -0.546842 0)
(3.03048 -0.411775 0)
(3.02403 -0.346723 0)
(3.00115 -0.22799 0)
(3.00085 -0.186639 0)
(2.98137 -0.115877 0)
(2.98842 -0.0905083 0)
(2.96205 -0.0425673 0)
(2.96252 -0.0291925 0)
(2.95173 -0.0101491 0)
(2.94703 0.000994613 0)
(2.94566 0.0121178 0)
(2.9423 0.022628 0)
(2.93677 0.0304812 0)
(2.93639 0.0396652 0)
(2.93391 0.0370676 0)
(2.93074 0.0296278 0)
(2.9283 0.0187188 0)
(2.92673 0.00985906 0)
(2.92677 0.00177173 0)
(2.92786 0.00347275 0)
(2.93105 0.0107758 0)
(2.93347 0.0181242 0)
(2.9354 0.0231535 0)
(2.93621 0.0256567 0)
(2.93526 0.0229952 0)
(2.93266 0.0168709 0)
(2.93034 0.00884182 0)
(2.93122 0.00970677 0)
(2.93369 0.0151418 0)
(2.93436 0.0194791 0)
(2.93631 0.022956 0)
(2.93591 0.0210534 0)
(2.93493 0.0168789 0)
(2.93355 0.0123822 0)
(2.93424 0.0142698 0)
(2.93475 0.0168436 0)
(2.93586 0.019759 0)
(2.93585 0.0190198 0)
(2.93534 0.0166492 0)
(2.93557 0.0160953 0)
(2.93594 0.0167078 0)
(2.93635 0.0173024 0)
(2.93621 0.0172793 0)
(2.93589 0.0172873 0)
(2.93594 0.0174591 0)
(2.9363 0.0178671 0)
(2.93632 0.0178458 0)
(2.9362 0.0175394 0)
(2.93628 0.0173746 0)
(2.93649 0.017586 0)
(2.93674 0.0177763 0)
(2.93678 0.0177542 0)
(2.9368 0.0177424 0)
(2.93703 0.0179081 0)
(2.93743 0.0183065 0)
(2.93753 0.0185536 0)
(2.93747 0.0183461 0)
(3.13691 -0.882526 0)
(3.1369 -0.882533 0)
(3.1369 -0.882501 0)
(3.13688 -0.882513 0)
(3.13688 -0.882498 0)
(3.13688 -0.882495 0)
(3.13688 -0.882498 0)
(3.13689 -0.882484 0)
(3.1369 -0.882492 0)
(3.13691 -0.882494 0)
(3.13693 -0.882503 0)
(3.13695 -0.882508 0)
(3.13697 -0.882513 0)
(3.137 -0.882519 0)
(3.13703 -0.882527 0)
(3.13707 -0.882531 0)
(3.13711 -0.882548 0)
(3.13716 -0.882551 0)
(3.13721 -0.882572 0)
(3.13727 -0.882576 0)
(3.13733 -0.882591 0)
(3.13739 -0.882594 0)
(3.13745 -0.882606 0)
(3.13752 -0.882598 0)
(3.13759 -0.882634 0)
(3.13766 -0.882649 0)
(3.13774 -0.882649 0)
(3.13782 -0.882654 0)
(3.13789 -0.882706 0)
(3.13796 -0.88272 0)
(3.13802 -0.882756 0)
(3.1381 -0.882762 0)
(3.13817 -0.882817 0)
(3.13824 -0.882835 0)
(3.13832 -0.882922 0)
(3.13838 -0.882877 0)
(3.13842 -0.882899 0)
(3.13848 -0.882892 0)
(3.13853 -0.882928 0)
(3.13861 -0.8829 0)
(3.13864 -0.882952 0)
(3.13854 -0.882384 0)
(3.13754 -0.879046 0)
(3.13293 -0.863604 0)
(3.12433 -0.832563 0)
(3.10502 -0.753314 0)
(3.089 -0.672862 0)
(3.05145 -0.497102 0)
(3.04947 -0.412085 0)
(3.00654 -0.219987 0)
(3.01624 -0.179957 0)
(2.97753 -0.0471224 0)
(2.97997 -0.027993 0)
(2.95672 0.0356499 0)
(2.94642 0.048701 0)
(2.94477 0.0653266 0)
(2.93659 0.0522852 0)
(2.93196 0.0330776 0)
(2.93396 0.0259996 0)
(2.92901 0.0117846 0)
(2.92918 0.0104512 0)
(2.9298 0.00902586 0)
(2.93296 0.0138592 0)
(2.93657 0.023292 0)
(2.93681 0.02865 0)
(2.93593 0.0271148 0)
(2.93408 0.0223148 0)
(2.93142 0.0161292 0)
(2.92899 0.0103978 0)
(2.92943 0.0109254 0)
(2.93185 0.0152512 0)
(2.93409 0.0206665 0)
(2.93536 0.0247867 0)
(2.93453 0.0221885 0)
(2.9329 0.0176823 0)
(2.93186 0.0123054 0)
(2.93238 0.0138491 0)
(2.93379 0.0167672 0)
(2.93489 0.0201924 0)
(2.93481 0.0198381 0)
(2.93399 0.0179815 0)
(2.93346 0.0161869 0)
(2.93382 0.0168428 0)
(2.9346 0.0176472 0)
(2.9348 0.0176298 0)
(2.93477 0.0170749 0)
(2.9349 0.0171243 0)
(2.93526 0.0177197 0)
(2.9357 0.0183652 0)
(2.93563 0.0177699 0)
(2.93565 0.0169929 0)
(2.93586 0.0172278 0)
(2.93616 0.0178798 0)
(2.93624 0.0179329 0)
(2.93625 0.0174755 0)
(2.93639 0.0176578 0)
(2.93658 0.0180529 0)
(2.93696 0.0185045 0)
(2.93698 0.0186115 0)
(2.93685 0.0181496 0)
(3.13713 -0.882532 0)
(3.13715 -0.882549 0)
(3.13718 -0.882555 0)
(3.13721 -0.882565 0)
(3.13725 -0.882574 0)
(3.13728 -0.88259 0)
(3.13732 -0.882592 0)
(3.13735 -0.882607 0)
(3.1374 -0.882602 0)
(3.13744 -0.882614 0)
(3.13749 -0.882621 0)
(3.13754 -0.882625 0)
(3.13759 -0.882632 0)
(3.13764 -0.882646 0)
(3.13769 -0.882637 0)
(3.13775 -0.88265 0)
(3.1378 -0.882659 0)
(3.13786 -0.882668 0)
(3.13792 -0.882674 0)
(3.13797 -0.882698 0)
(3.13804 -0.882697 0)
(3.13809 -0.882725 0)
(3.13814 -0.882736 0)
(3.1382 -0.882754 0)
(3.13826 -0.882745 0)
(3.13831 -0.882782 0)
(3.13837 -0.882797 0)
(3.13842 -0.882821 0)
(3.13848 -0.882827 0)
(3.13852 -0.882861 0)
(3.13857 -0.882886 0)
(3.1386 -0.882928 0)
(3.13865 -0.882926 0)
(3.1387 -0.882944 0)
(3.13874 -0.88297 0)
(3.13879 -0.88298 0)
(3.13883 -0.882999 0)
(3.13886 -0.883012 0)
(3.1389 -0.883019 0)
(3.13894 -0.883007 0)
(3.13897 -0.883022 0)
(3.13899 -0.88298 0)
(3.139 -0.882959 0)
(3.13899 -0.882934 0)
(3.139 -0.882913 0)
(3.139 -0.882938 0)
(3.13897 -0.882756 0)
(3.13761 -0.878707 0)
(3.13326 -0.863007 0)
(3.11865 -0.810845 0)
(3.10207 -0.730908 0)
(3.07185 -0.586007 0)
(3.05811 -0.480599 0)
(3.02357 -0.302051 0)
(3.02025 -0.245453 0)
(2.98979 -0.113658 0)
(2.99711 -0.102555 0)
(2.9631 -0.0470314 0)
(2.96638 -0.0292938 0)
(2.94985 -0.00919949 0)
(2.95052 0.00790464 0)
(2.94514 0.0209493 0)
(2.93786 0.0372341 0)
(2.93732 0.038035 0)
(2.93351 0.0321467 0)
(2.92955 0.0177179 0)
(2.92933 0.00977301 0)
(2.92731 0.00205201 0)
(2.92789 0.00491224 0)
(2.93223 0.0147792 0)
(2.93502 0.0215093 0)
(2.93569 0.0260536 0)
(2.93445 0.0234339 0)
(2.93136 0.0165134 0)
(2.93007 0.00952759 0)
(2.9309 0.0119808 0)
(2.93276 0.0164784 0)
(2.93453 0.0208577 0)
(2.93439 0.0200083 0)
(2.93343 0.0173904 0)
(2.93257 0.0148688 0)
(2.93308 0.0156583 0)
(2.9338 0.0176069 0)
(2.93402 0.0176584 0)
(2.93376 0.0169393 0)
(2.93398 0.0165609 0)
(2.93438 0.0171807 0)
(2.93488 0.0182187 0)
(2.93488 0.0178876 0)
(2.93481 0.0169327 0)
(2.93498 0.017085 0)
(2.93528 0.0177388 0)
(2.93562 0.0180096 0)
(2.93555 0.0176746 0)
(2.93559 0.0174165 0)
(2.93573 0.0176305 0)
(2.93598 0.0184486 0)
(2.93615 0.0186659 0)
(2.93623 0.0185575 0)
(2.93616 0.017784 0)
(3.13789 -0.882755 0)
(3.13792 -0.882762 0)
(3.13795 -0.882763 0)
(3.13799 -0.882768 0)
(3.13802 -0.882773 0)
(3.13805 -0.882778 0)
(3.13809 -0.882783 0)
(3.13812 -0.882779 0)
(3.13815 -0.882794 0)
(3.13819 -0.882792 0)
(3.13823 -0.882804 0)
(3.13827 -0.882807 0)
(3.1383 -0.882815 0)
(3.13834 -0.882832 0)
(3.13838 -0.882835 0)
(3.13842 -0.882838 0)
(3.13845 -0.882848 0)
(3.13849 -0.882852 0)
(3.13853 -0.882854 0)
(3.13857 -0.882853 0)
(3.1386 -0.882869 0)
(3.13864 -0.882881 0)
(3.13867 -0.882894 0)
(3.13871 -0.882906 0)
(3.13874 -0.882919 0)
(3.13877 -0.882916 0)
(3.13879 -0.882939 0)
(3.13882 -0.88295 0)
(3.13883 -0.882985 0)
(3.13885 -0.882994 0)
(3.13886 -0.883023 0)
(3.13887 -0.883031 0)
(3.13888 -0.883061 0)
(3.1389 -0.883087 0)
(3.13893 -0.883069 0)
(3.13894 -0.883086 0)
(3.13897 -0.883071 0)
(3.13899 -0.883058 0)
(3.13902 -0.883056 0)
(3.13905 -0.883032 0)
(3.13906 -0.882991 0)
(3.13909 -0.882965 0)
(3.13911 -0.882943 0)
(3.13912 -0.8829 0)
(3.13911 -0.882897 0)
(3.13913 -0.882894 0)
(3.13912 -0.882927 0)
(3.13914 -0.882912 0)
(3.13914 -0.882958 0)
(3.13917 -0.882941 0)
(3.13915 -0.883093 0)
(3.13861 -0.881345 0)
(3.13568 -0.870711 0)
(3.12297 -0.824323 0)
(3.10577 -0.743038 0)
(3.0638 -0.560742 0)
(3.05824 -0.441417 0)
(3.00172 -0.203986 0)
(3.01371 -0.148459 0)
(2.9688 -0.0119171 0)
(2.97108 0.0211302 0)
(2.94278 0.0697629 0)
(2.94028 0.070668 0)
(2.93401 0.0455932 0)
(2.93467 0.0254987 0)
(2.93029 0.00945957 0)
(2.93018 0.00915481 0)
(2.93022 0.00809224 0)
(2.93499 0.0170509 0)
(2.94073 0.0318332 0)
(2.93811 0.0285893 0)
(2.93565 0.0249999 0)
(2.93194 0.0171438 0)
(2.92994 0.0115561 0)
(2.93056 0.0120012 0)
(2.93373 0.0178585 0)
(2.93606 0.0230677 0)
(2.93552 0.021818 0)
(2.93413 0.0183344 0)
(2.93338 0.0159153 0)
(2.93377 0.0163671 0)
(2.93486 0.017397 0)
(2.93512 0.0185434 0)
(2.9349 0.0178617 0)
(2.93452 0.0168251 0)
(2.93475 0.0167996 0)
(2.93522 0.0177431 0)
(2.93525 0.0182911 0)
(2.93492 0.017636 0)
(2.93475 0.0169484 0)
(2.93494 0.0174244 0)
(2.93521 0.0178404 0)
(2.93536 0.0176356 0)
(2.93524 0.0172735 0)
(2.93521 0.0173421 0)
(2.93531 0.0178992 0)
(2.93547 0.0183482 0)
(2.93549 0.018427 0)
(2.9355 0.0183495 0)
(2.9354 0.0177493 0)
(3.13859 -0.882781 0)
(3.13861 -0.882786 0)
(3.13862 -0.882788 0)
(3.13864 -0.88279 0)
(3.13866 -0.882795 0)
(3.13868 -0.882797 0)
(3.1387 -0.882802 0)
(3.13872 -0.882801 0)
(3.13873 -0.882808 0)
(3.13875 -0.882812 0)
(3.13877 -0.882813 0)
(3.13879 -0.882813 0)
(3.13881 -0.882805 0)
(3.13883 -0.882816 0)
(3.13885 -0.882819 0)
(3.13887 -0.882838 0)
(3.13889 -0.882856 0)
(3.1389 -0.882859 0)
(3.13892 -0.882877 0)
(3.13893 -0.882878 0)
(3.13894 -0.882895 0)
(3.13895 -0.882911 0)
(3.13897 -0.88293 0)
(3.13898 -0.882943 0)
(3.13898 -0.882955 0)
(3.13899 -0.882958 0)
(3.13899 -0.882966 0)
(3.13898 -0.882993 0)
(3.13898 -0.882996 0)
(3.13897 -0.883011 0)
(3.13896 -0.883047 0)
(3.13896 -0.883034 0)
(3.13897 -0.883027 0)
(3.13899 -0.883039 0)
(3.13901 -0.883029 0)
(3.13902 -0.883013 0)
(3.13903 -0.883005 0)
(3.13907 -0.882976 0)
(3.13911 -0.882963 0)
(3.13913 -0.882946 0)
(3.13915 -0.882921 0)
(3.13917 -0.882897 0)
(3.1392 -0.882879 0)
(3.13921 -0.882872 0)
(3.13922 -0.882842 0)
(3.13924 -0.88283 0)
(3.13923 -0.882871 0)
(3.13925 -0.882898 0)
(3.13926 -0.882933 0)
(3.13926 -0.883019 0)
(3.13927 -0.883112 0)
(3.13927 -0.883162 0)
(3.13931 -0.883249 0)
(3.13936 -0.883241 0)
(3.1394 -0.883187 0)
(3.13879 -0.881076 0)
(3.13492 -0.866088 0)
(3.11752 -0.805342 0)
(3.09486 -0.686146 0)
(3.0647 -0.529396 0)
(3.033 -0.347002 0)
(3.01975 -0.237683 0)
(2.98968 -0.121102 0)
(2.9804 -0.0793956 0)
(2.97533 -0.0398319 0)
(2.95219 -0.0134737 0)
(2.95004 0.00658322 0)
(2.94284 0.0228901 0)
(2.9394 0.0362508 0)
(2.93637 0.0333193 0)
(2.93287 0.0214414 0)
(2.92958 0.0108793 0)
(2.92797 0.00187979 0)
(2.92973 0.00550648 0)
(2.93406 0.0155642 0)
(2.93752 0.023462 0)
(2.9374 0.0233723 0)
(2.93568 0.0190624 0)
(2.93387 0.0126745 0)
(2.93439 0.0130626 0)
(2.93583 0.0158906 0)
(2.93667 0.018762 0)
(2.93644 0.0180799 0)
(2.93575 0.0163225 0)
(2.93549 0.0160539 0)
(2.93576 0.0175174 0)
(2.93614 0.0184075 0)
(2.93581 0.017837 0)
(2.93507 0.0167357 0)
(2.935 0.0167435 0)
(2.93523 0.0173704 0)
(2.93538 0.0182304 0)
(2.93528 0.0179735 0)
(2.93497 0.017417 0)
(2.93497 0.0174282 0)
(2.93509 0.0178755 0)
(2.93525 0.0184323 0)
(2.9352 0.0184406 0)
(2.93506 0.018129 0)
(2.93477 0.017458 0)
(3.13896 -0.882908 0)
(3.13897 -0.882911 0)
(3.13897 -0.882912 0)
(3.13898 -0.882919 0)
(3.13899 -0.882918 0)
(3.139 -0.882919 0)
(3.139 -0.882923 0)
(3.13901 -0.882919 0)
(3.13902 -0.882928 0)
(3.13902 -0.882934 0)
(3.13903 -0.88294 0)
(3.13903 -0.882956 0)
(3.13904 -0.882956 0)
(3.13904 -0.882974 0)
(3.13904 -0.882986 0)
(3.13905 -0.882986 0)
(3.13904 -0.883009 0)
(3.13905 -0.883007 0)
(3.13904 -0.883016 0)
(3.13903 -0.883032 0)
(3.13903 -0.883042 0)
(3.13903 -0.883057 0)
(3.13903 -0.883062 0)
(3.13902 -0.883074 0)
(3.13902 -0.88308 0)
(3.13902 -0.883062 0)
(3.13901 -0.88306 0)
(3.139 -0.88307 0)
(3.13899 -0.883067 0)
(3.13898 -0.883077 0)
(3.13898 -0.883101 0)
(3.13898 -0.883107 0)
(3.139 -0.8831 0)
(3.13901 -0.883097 0)
(3.13903 -0.883086 0)
(3.13905 -0.88308 0)
(3.13907 -0.883073 0)
(3.13912 -0.883043 0)
(3.13918 -0.883035 0)
(3.1392 -0.883022 0)
(3.13923 -0.883014 0)
(3.13926 -0.883005 0)
(3.13929 -0.883006 0)
(3.13932 -0.883007 0)
(3.13935 -0.882985 0)
(3.13937 -0.882973 0)
(3.13937 -0.88302 0)
(3.13938 -0.883056 0)
(3.13938 -0.883113 0)
(3.13936 -0.883209 0)
(3.13936 -0.883283 0)
(3.13937 -0.883413 0)
(3.13945 -0.883455 0)
(3.13953 -0.883408 0)
(3.13956 -0.883382 0)
(3.13964 -0.883276 0)
(3.13979 -0.883212 0)
(3.13982 -0.883225 0)
(3.13983 -0.883182 0)
(3.13806 -0.877069 0)
(3.12752 -0.838052 0)
(3.10634 -0.740205 0)
(3.05802 -0.528197 0)
(3.02918 -0.333185 0)
(3.0158 -0.179036 0)
(2.96965 -0.0172527 0)
(2.96388 0.0391673 0)
(2.95247 0.0842053 0)
(2.94071 0.0672781 0)
(2.93897 0.0319941 0)
(2.93482 0.0160006 0)
(2.93056 0.00893624 0)
(2.93139 0.00778564 0)
(2.9397 0.0187571 0)
(2.9425 0.0297981 0)
(2.94148 0.0284222 0)
(2.93798 0.0216972 0)
(2.93506 0.0143309 0)
(2.93485 0.0134706 0)
(2.93656 0.0151245 0)
(2.93801 0.0195945 0)
(2.93753 0.0194597 0)
(2.93654 0.0180082 0)
(2.93526 0.0159901 0)
(2.93555 0.0166272 0)
(2.93643 0.0193728 0)
(2.9361 0.0187922 0)
(2.93552 0.0174743 0)
(2.93471 0.0162165 0)
(2.93498 0.0170009 0)
(2.93519 0.0184826 0)
(2.93521 0.0179236 0)
(2.93474 0.0171919 0)
(2.93457 0.0171234 0)
(2.93473 0.0177962 0)
(2.93493 0.018467 0)
(2.935 0.0184388 0)
(2.93486 0.0182464 0)
(2.93462 0.0179227 0)
(2.93422 0.017235 0)
(3.13911 -0.882929 0)
(3.1391 -0.882937 0)
(3.1391 -0.882938 0)
(3.1391 -0.882942 0)
(3.1391 -0.882946 0)
(3.1391 -0.882947 0)
(3.13909 -0.882959 0)
(3.13909 -0.882955 0)
(3.13909 -0.882955 0)
(3.13908 -0.882973 0)
(3.13908 -0.882972 0)
(3.13907 -0.882989 0)
(3.13906 -0.883011 0)
(3.13906 -0.883005 0)
(3.13905 -0.883012 0)
(3.13904 -0.883015 0)
(3.13903 -0.883028 0)
(3.13903 -0.883046 0)
(3.13903 -0.883034 0)
(3.13903 -0.883037 0)
(3.13903 -0.883059 0)
(3.13904 -0.883053 0)
(3.13904 -0.883043 0)
(3.13904 -0.883046 0)
(3.13905 -0.883053 0)
(3.13905 -0.883045 0)
(3.13906 -0.883019 0)
(3.13906 -0.883007 0)
(3.13906 -0.883017 0)
(3.13906 -0.883021 0)
(3.13908 -0.883018 0)
(3.1391 -0.883021 0)
(3.13911 -0.883023 0)
(3.13912 -0.88302 0)
(3.13915 -0.883016 0)
(3.13918 -0.88302 0)
(3.13921 -0.883003 0)
(3.13929 -0.883014 0)
(3.13931 -0.883014 0)
(3.13934 -0.883021 0)
(3.13937 -0.883048 0)
(3.13941 -0.883068 0)
(3.13944 -0.883091 0)
(3.13946 -0.883124 0)
(3.1395 -0.883083 0)
(3.13952 -0.883087 0)
(3.13956 -0.88309 0)
(3.13957 -0.883123 0)
(3.13957 -0.883168 0)
(3.13959 -0.883185 0)
(3.13953 -0.88332 0)
(3.13957 -0.883459 0)
(3.13963 -0.883466 0)
(3.13968 -0.883427 0)
(3.1397 -0.883401 0)
(3.13977 -0.883293 0)
(3.13988 -0.883171 0)
(3.1399 -0.883155 0)
(3.13992 -0.883184 0)
(3.13992 -0.883286 0)
(3.13994 -0.883389 0)
(3.13995 -0.883538 0)
(3.13857 -0.879035 0)
(3.12978 -0.847281 0)
(3.10365 -0.732318 0)
(3.07526 -0.578249 0)
(3.03238 -0.34392 0)
(3.02918 -0.223961 0)
(2.98718 -0.109076 0)
(2.98844 -0.0683303 0)
(2.96461 -0.0225372 0)
(2.95563 0.00474638 0)
(2.94997 0.0228502 0)
(2.94647 0.0324113 0)
(2.94205 0.0298144 0)
(2.93514 0.0198897 0)
(2.93211 0.00619554 0)
(2.93291 0.00778397 0)
(2.93551 0.0126761 0)
(2.93916 0.0196878 0)
(2.93728 0.0207927 0)
(2.93582 0.018053 0)
(2.93412 0.0149486 0)
(2.93427 0.0154491 0)
(2.93543 0.0183702 0)
(2.93567 0.020068 0)
(2.93506 0.018561 0)
(2.93407 0.0160069 0)
(2.93418 0.0161847 0)
(2.93496 0.0178641 0)
(2.93497 0.0191508 0)
(2.93457 0.0182281 0)
(2.93405 0.0170921 0)
(2.93417 0.0173112 0)
(2.93461 0.0181908 0)
(2.93473 0.0185225 0)
(2.93458 0.0183722 0)
(2.93435 0.0180527 0)
(2.93405 0.0175622 0)
(2.93372 0.0171008 0)
(3.13904 -0.883016 0)
(3.13904 -0.883023 0)
(3.13903 -0.883028 0)
(3.13903 -0.883033 0)
(3.13903 -0.883048 0)
(3.13902 -0.883049 0)
(3.13902 -0.883053 0)
(3.13901 -0.883054 0)
(3.13901 -0.883036 0)
(3.139 -0.883039 0)
(3.139 -0.883044 0)
(3.13901 -0.883041 0)
(3.139 -0.883061 0)
(3.139 -0.88307 0)
(3.139 -0.883063 0)
(3.13901 -0.883068 0)
(3.13902 -0.88306 0)
(3.13903 -0.883059 0)
(3.13905 -0.883063 0)
(3.13907 -0.883048 0)
(3.13909 -0.883031 0)
(3.13911 -0.883029 0)
(3.13913 -0.883019 0)
(3.13915 -0.883007 0)
(3.13917 -0.883011 0)
(3.13919 -0.883009 0)
(3.1392 -0.882981 0)
(3.13922 -0.882953 0)
(3.13923 -0.882944 0)
(3.13924 -0.882952 0)
(3.13925 -0.882962 0)
(3.13928 -0.882971 0)
(3.13929 -0.882977 0)
(3.13931 -0.882982 0)
(3.13933 -0.882979 0)
(3.13936 -0.882999 0)
(3.13941 -0.883027 0)
(3.13942 -0.883062 0)
(3.13945 -0.883091 0)
(3.13947 -0.883127 0)
(3.13949 -0.883157 0)
(3.13952 -0.883189 0)
(3.13953 -0.883229 0)
(3.13956 -0.883257 0)
(3.13959 -0.883257 0)
(3.13965 -0.883205 0)
(3.13969 -0.883202 0)
(3.13972 -0.883202 0)
(3.13975 -0.883176 0)
(3.13976 -0.883212 0)
(3.13973 -0.883348 0)
(3.13972 -0.88345 0)
(3.13973 -0.883468 0)
(3.13976 -0.883477 0)
(3.13982 -0.883459 0)
(3.13991 -0.883313 0)
(3.13998 -0.883148 0)
(3.13999 -0.883124 0)
(3.13998 -0.883152 0)
(3.13999 -0.883216 0)
(3.13996 -0.883381 0)
(3.13994 -0.883552 0)
(3.14001 -0.883564 0)
(3.14011 -0.883481 0)
(3.14014 -0.883442 0)
(3.1391 -0.879187 0)
(3.12715 -0.834126 0)
(3.10744 -0.726051 0)
(3.03937 -0.428587 0)
(3.04888 -0.297481 0)
(2.9828 -0.0263418 0)
(2.97287 0.000279677 0)
(2.96889 0.0815519 0)
(2.94194 0.0564491 0)
(2.93505 0.0270819 0)
(2.93385 0.012899 0)
(2.93362 0.0103651 0)
(2.93461 0.0113944 0)
(2.9425 0.0272 0)
(2.93635 0.0259075 0)
(2.93377 0.0210844 0)
(2.9319 0.0142805 0)
(2.93196 0.0141558 0)
(2.93386 0.017942 0)
(2.93518 0.0220448 0)
(2.93456 0.020351 0)
(2.93352 0.0168182 0)
(2.93287 0.0148838 0)
(2.93388 0.0169565 0)
(2.9347 0.0194112 0)
(2.93443 0.0188726 0)
(2.93368 0.0172689 0)
(2.9336 0.0167949 0)
(2.93407 0.0178601 0)
(2.93441 0.0188113 0)
(2.93427 0.0186828 0)
(2.93405 0.0182287 0)
(2.93389 0.0178036 0)
(2.93363 0.0173239 0)
(2.93342 0.0169616 0)
(3.13901 -0.883006 0)
(3.13901 -0.883009 0)
(3.13901 -0.88301 0)
(3.13901 -0.88301 0)
(3.13902 -0.88301 0)
(3.13902 -0.883014 0)
(3.13902 -0.883011 0)
(3.13902 -0.883014 0)
(3.13903 -0.883022 0)
(3.13904 -0.883013 0)
(3.13905 -0.883008 0)
(3.13906 -0.883 0)
(3.13907 -0.882984 0)
(3.13909 -0.882988 0)
(3.13911 -0.883002 0)
(3.13913 -0.883011 0)
(3.13916 -0.883014 0)
(3.13918 -0.883002 0)
(3.13919 -0.882997 0)
(3.13922 -0.882982 0)
(3.13926 -0.882969 0)
(3.13929 -0.882948 0)
(3.13932 -0.882937 0)
(3.13935 -0.882932 0)
(3.13937 -0.88293 0)
(3.13939 -0.882935 0)
(3.13941 -0.882918 0)
(3.13942 -0.882878 0)
(3.13944 -0.882856 0)
(3.13944 -0.882854 0)
(3.13945 -0.882858 0)
(3.13948 -0.882867 0)
(3.13949 -0.882878 0)
(3.13951 -0.882888 0)
(3.13953 -0.882908 0)
(3.13955 -0.882938 0)
(3.13958 -0.882962 0)
(3.13958 -0.883018 0)
(3.13958 -0.883089 0)
(3.1396 -0.883144 0)
(3.13962 -0.88321 0)
(3.13964 -0.883245 0)
(3.13965 -0.883275 0)
(3.13968 -0.8833 0)
(3.13974 -0.883289 0)
(3.13979 -0.883248 0)
(3.13983 -0.883189 0)
(3.13987 -0.883139 0)
(3.13988 -0.88311 0)
(3.13987 -0.883135 0)
(3.13988 -0.883228 0)
(3.13988 -0.883357 0)
(3.13988 -0.883402 0)
(3.1399 -0.883427 0)
(3.13993 -0.88341 0)
(3.13999 -0.883289 0)
(3.14003 -0.883172 0)
(3.14005 -0.883132 0)
(3.14006 -0.883139 0)
(3.14008 -0.883181 0)
(3.13999 -0.883328 0)
(3.13996 -0.883477 0)
(3.14 -0.883518 0)
(3.1401 -0.883458 0)
(3.14017 -0.883344 0)
(3.14018 -0.883285 0)
(3.14017 -0.883316 0)
(3.14016 -0.883406 0)
(3.13645 -0.872156 0)
(3.12272 -0.809641 0)
(3.0836 -0.619715 0)
(3.06217 -0.444572 0)
(3.01083 -0.175157 0)
(3.0187 -0.137026 0)
(2.96737 -0.0485229 0)
(2.95787 -0.0172673 0)
(2.95383 0.00375673 0)
(2.93713 0.0280405 0)
(2.93618 0.0309779 0)
(2.92992 0.0244874 0)
(2.92653 0.00898009 0)
(2.92779 0.00931001 0)
(2.93139 0.0145529 0)
(2.93444 0.0215484 0)
(2.9343 0.0215049 0)
(2.93213 0.0158551 0)
(2.93118 0.0131383 0)
(2.93222 0.0147831 0)
(2.93421 0.0198441 0)
(2.93423 0.019619 0)
(2.93336 0.0172749 0)
(2.93299 0.0161723 0)
(2.93339 0.017075 0)
(2.93401 0.0188151 0)
(2.93396 0.0188518 0)
(2.93378 0.01835 0)
(2.9337 0.0178935 0)
(2.9336 0.0174744 0)
(2.93343 0.0169126 0)
(2.93324 0.0167429 0)
(3.13916 -0.882977 0)
(3.13917 -0.88298 0)
(3.13917 -0.882981 0)
(3.13917 -0.882985 0)
(3.13918 -0.882994 0)
(3.13919 -0.883002 0)
(3.1392 -0.883006 0)
(3.1392 -0.88301 0)
(3.13921 -0.883011 0)
(3.13922 -0.883009 0)
(3.13923 -0.883009 0)
(3.13925 -0.883017 0)
(3.13927 -0.883024 0)
(3.13929 -0.883026 0)
(3.13931 -0.883022 0)
(3.13933 -0.883019 0)
(3.13936 -0.883019 0)
(3.13938 -0.883 0)
(3.13939 -0.882988 0)
(3.13943 -0.882957 0)
(3.13948 -0.882939 0)
(3.13951 -0.882928 0)
(3.13953 -0.8829 0)
(3.13955 -0.882882 0)
(3.13957 -0.882878 0)
(3.13959 -0.882883 0)
(3.1396 -0.882877 0)
(3.13961 -0.882859 0)
(3.13961 -0.88285 0)
(3.13962 -0.882851 0)
(3.13963 -0.882853 0)
(3.13964 -0.882879 0)
(3.13966 -0.882899 0)
(3.13968 -0.882913 0)
(3.13968 -0.882959 0)
(3.13969 -0.882998 0)
(3.13972 -0.88301 0)
(3.1397 -0.883084 0)
(3.13967 -0.883198 0)
(3.13969 -0.883261 0)
(3.13971 -0.883304 0)
(3.13972 -0.883338 0)