/*--------------------------------*- C++ -*----------------------------------*\
  =========                 |
  \\      /  F ield         | OpenFOAM: The Open Source CFD Toolbox
   \\    /   O peration     | Website:  https://openfoam.org
    \\  /    A nd           | Version:  7
     \\/     M anipulation  |
\*---------------------------------------------------------------------------*/
FoamFile
{
    version     2.0;
    format      ascii;
    class       volScalarField;
    location    "4.5";
    object      T;
}
// * * * * * * * * * * * * * * * * * * * * * * * * * * * * * * * * * * * * * //

dimensions      [0 0 0 1 0 0 0];

internalField   nonuniform List<scalar> 
24000
(
0.729726
0.77636
0.820298
0.854786
0.878103
0.901302
0.921961
0.938871
0.955376
0.972158
0.988555
1.00605
1.0234
1.04208
1.06079
1.07803
1.09162
1.09821
1.10035
1.09964
1.09713
1.09473
1.09118
1.08726
1.08337
1.07889
1.075
1.07668
1.08036
1.08381
1.08639
1.086
1.08309
1.07939
1.07709
1.07839
1.08076
1.08064
1.07806
1.07546
1.07435
1.07499
1.07359
1.06993
1.06773
1.06716
1.0666
1.06566
1.06455
1.06223
0.682187
0.682071
0.681928
0.681824
0.681926
0.682427
0.683895
0.686714
0.691847
0.700407
0.713949
0.733445
0.761192
0.795821
0.839882
0.886432
0.933116
0.973475
1.0073
1.03459
1.0528
1.06849
1.07569
1.08117
1.08229
1.08248
1.08501
1.09022
1.09514
1.09581
1.09503
1.09168
1.08717
1.08439
1.08457
1.08662
1.08848
1.0869
1.08406
1.08174
1.08192
1.08191
1.07942
1.07563
1.07262
1.07242
1.07113
1.06927
1.06778
1.06473
0.680601
0.680493
0.680367
0.680235
0.680095
0.679939
0.67974
0.679526
0.67928
0.678992
0.678665
0.678323
0.67804
0.677639
0.677878
0.679446
0.68604
0.701161
0.73361
0.777073
0.833696
0.888954
0.942671
0.989264
1.02854
1.06143
1.0838
1.0919
1.09563
1.09561
1.09361
1.08331
1.08364
1.0856
1.08986
1.09156
1.09044
1.08691
1.0848
1.085
1.08691
1.0853
1.08035
1.07726
1.07528
1.07465
1.0729
1.07064
1.06877
1.06525
0.678216
0.678116
0.678009
0.6779
0.677784
0.677661
0.67751
0.677333
0.677161
0.677008
0.676839
0.676647
0.676453
0.676262
0.676036
0.675811
0.675639
0.675461
0.675234
0.675004
0.675704
0.679963
0.696203
0.731842
0.791009
0.863652
0.933548
0.987001
1.02521
1.05064
1.06363
1.06898
1.08273
1.08912
1.09415
1.09214
1.08736
1.08366
1.08417
1.08761
1.08773
1.08448
1.07912
1.07638
1.07687
1.07541
1.0728
1.07043
1.06866
1.06485
0.676175
0.676133
0.676108
0.676087
0.676038
0.675952
0.675852
0.675757
0.675645
0.675531
0.67544
0.675351
0.675279
0.675191
0.675068
0.674979
0.674929
0.674852
0.674741
0.674742
0.674727
0.674728
0.674704
0.674586
0.674721
0.677463
0.69485
0.739474
0.814423
0.893873
0.971209
1.03234
1.07031
1.07922
1.08624
1.08554
1.07922
1.07984
1.08473
1.08734
1.08566
1.07928
1.07573
1.07629
1.07619
1.07349
1.0708
1.069
1.06714
1.0632
0.675052
0.675046
0.675049
0.675032
0.67496
0.674913
0.674908
0.674887
0.674844
0.674801
0.674785
0.674758
0.674688
0.674623
0.674602
0.674602
0.674577
0.67456
0.674579
0.674644
0.674847
0.675094
0.675131
0.675117
0.675006
0.674611
0.674337
0.674195
0.674797
0.685001
0.725805
0.819971
0.914259
0.981542
1.04115
1.05396
1.06707
1.07829
1.08828
1.08714
1.07948
1.0735
1.07401
1.07665
1.0748
1.07042
1.0672
1.06688
1.06484
1.06063
0.67429
0.674299
0.674321
0.674353
0.674379
0.674404
0.674457
0.674539
0.674603
0.674607
0.67458
0.674578
0.674538
0.674502
0.674501
0.67452
0.67461
0.674774
0.67493
0.675144
0.675424
0.675472
0.675457
0.675403
0.675209
0.674685
0.674346
0.674232
0.674041
0.673779
0.673747
0.675168
0.689157
0.757321
0.856755
0.955714
1.04042
1.06865
1.08201
1.07898
1.07011
1.07065
1.07519
1.07502
1.07138
1.06571
1.06505
1.06476
1.0625
1.0584
0.674068
0.674086
0.67415
0.674209
0.674216
0.674217
0.674218
0.674228
0.674263
0.674343
0.674423
0.674502
0.674603
0.674648
0.67466
0.674706
0.674846
0.675029
0.675234
0.675503
0.675585
0.675579
0.675544
0.675468
0.675242
0.67464
0.674192
0.674041
0.673875
0.673678
0.673711
0.673844
0.673997
0.674113
0.678231
0.72604
0.828416
0.932229
1.02171
1.04149
1.06076
1.07155
1.07874
1.07577
1.06533
1.06285
1.06583
1.06451
1.05999
1.05657
0.67405
0.674082
0.674161
0.674308
0.674328
0.674279
0.674254
0.674302
0.674356
0.674399
0.674425
0.67444
0.674493
0.674572
0.67466
0.674761
0.674903
0.675088
0.675341
0.675459
0.675448
0.675421
0.675354
0.675269
0.674981
0.67427
0.673896
0.673923
0.673919
0.673971
0.674246
0.67432
0.674221
0.674267
0.67471
0.67489
0.676418
0.710571
0.805971
0.930822
1.03605
1.06634
1.07581
1.06933
1.06005
1.06591
1.06699
1.06328
1.05784
1.05601
0.674627
0.674636
0.674643
0.674661
0.674646
0.674608
0.674596
0.674592
0.67457
0.6745
0.674446
0.67441
0.67436
0.674367
0.674464
0.674591
0.674585
0.674526
0.674476
0.674444
0.674413
0.674396
0.674367
0.674388
0.674309
0.673887
0.673838
0.674013
0.674346
0.674837
0.675117
0.675058
0.674637
0.674301
0.674239
0.674232
0.674191
0.673782
0.674462
0.710403
0.81985
0.939425
1.03048
1.04298
1.05774
1.07177
1.06935
1.05911
1.0557
1.05745
0.674957
0.674954
0.674876
0.674787
0.674782
0.674788
0.674763
0.674726
0.674679
0.674522
0.674412
0.674397
0.674232
0.673905
0.673831
0.673771
0.673571
0.673236
0.673132
0.673164
0.673225
0.673308
0.673611
0.673826
0.673799
0.673711
0.673809
0.674238
0.674868
0.675403
0.675544
0.675476
0.675038
0.674117
0.673505
0.673376
0.673336
0.673262
0.673242
0.67317
0.674769
0.719358
0.833873
0.962011
1.04775
1.06802
1.06359
1.05376
1.05658
1.06004
0.674547
0.674542
0.67446
0.674364
0.674338
0.674319
0.674226
0.674051
0.673817
0.673703
0.673691
0.673605
0.673124
0.672504
0.672433
0.672524
0.672479
0.672213
0.672195
0.6723
0.672345
0.672502
0.673094
0.673409
0.673227
0.673128
0.673458
0.674295
0.675013
0.675358
0.675384
0.67523
0.674559
0.673262
0.672509
0.672409
0.672499
0.672713
0.672904
0.672932
0.67348
0.673715
0.676659
0.738534
0.867448
0.979129
1.02365
1.04559
1.06497
1.06368
0.673421
0.67346
0.673515
0.673502
0.67344
0.673377
0.673157
0.672685
0.672399
0.672423
0.672579
0.672592
0.672365
0.67186
0.671658
0.671791
0.671856
0.67181
0.671902
0.672091
0.672239
0.67261
0.673443
0.673728
0.673539
0.673388
0.673603
0.673964
0.67404
0.674124
0.674287
0.67413
0.673539
0.67246
0.671697
0.671635
0.671817
0.67224
0.672505
0.673274
0.673893
0.673621
0.672961
0.671978
0.680687
0.758259
0.909768
1.02408
1.0619
1.06127
0.672281
0.672309
0.672324
0.67237
0.672521
0.672555
0.672498
0.672259
0.672045
0.672061
0.672268
0.672665
0.672694
0.672631
0.672904
0.673958
0.674777
0.674899
0.674784
0.674168
0.673121
0.67267
0.673002
0.673391
0.673363
0.673492
0.673608
0.673522
0.673108
0.67281
0.672824
0.672867
0.672729
0.672167
0.671432
0.671364
0.671634
0.672383
0.673541
0.674604
0.674412
0.673465
0.672281
0.671607
0.671775
0.672409
0.697972
0.819893
0.952069
1.03338
0.674151
0.674203
0.674105
0.674082
0.674344
0.674687
0.674782
0.67491
0.67527
0.675877
0.676585
0.677655
0.677828
0.677753
0.678357
0.679784
0.680346
0.680415
0.680024
0.678627
0.67646
0.67507
0.674836
0.67522
0.675415
0.675058
0.674726
0.674539
0.673883
0.673448
0.673252
0.673345
0.673452
0.673528
0.673799
0.674156
0.674776
0.675292
0.675814
0.676011
0.67552
0.674339
0.672167
0.672586
0.674727
0.676945
0.676396
0.678145
0.727824
0.95161
0.678468
0.678466
0.678572
0.678813
0.678969
0.679136
0.679362
0.679628
0.680172
0.68096
0.681328
0.681394
0.681
0.680258
0.680218
0.68049
0.681028
0.681368
0.681109
0.680113
0.678406
0.675798
0.674216
0.674272
0.674951
0.674919
0.674935
0.675039
0.674804
0.674725
0.674555
0.674786
0.676048
0.678481
0.680967
0.681458
0.681043
0.68006
0.678326
0.676649
0.675378
0.675377
0.677414
0.680357
0.682116
0.680836
0.677284
0.677266
0.678197
0.74972
0.689284
0.68906
0.689164
0.689534
0.690319
0.691081
0.691743
0.691988
0.69198
0.691832
0.69131
0.690596
0.688962
0.68594
0.68494
0.684698
0.684277
0.684414
0.686621
0.688349
0.688486
0.688865
0.690136
0.69188
0.69358
0.695391
0.697126
0.697575
0.697342
0.69613
0.695073
0.695219
0.696053
0.69723
0.697288
0.696448
0.694862
0.69367
0.692433
0.692085
0.692933
0.694855
0.696885
0.696382
0.694716
0.692172
0.692672
0.69437
0.695447
0.694901
0.717898
0.717837
0.717629
0.717579
0.717996
0.718132
0.718028
0.718128
0.718156
0.717896
0.71825
0.718747
0.718515
0.717619
0.716957
0.716754
0.716592
0.716773
0.718442
0.719636
0.719499
0.718432
0.717235
0.716333
0.715531
0.715189
0.715403
0.715831
0.715948
0.715471
0.714028
0.711877
0.710036
0.7088
0.70772
0.705576
0.705522
0.706159
0.707124
0.708127
0.709373
0.709104
0.707961
0.706174
0.70387
0.704366
0.705236
0.705576
0.704581
0.702293
0.743913
0.744406
0.744451
0.743909
0.743678
0.743604
0.742782
0.742072
0.742016
0.742439
0.742603
0.74229
0.742154
0.742278
0.742524
0.742649
0.742532
0.742133
0.741593
0.741099
0.740613
0.739738
0.738621
0.737664
0.736747
0.734865
0.732445
0.731529
0.730658
0.730483
0.730815
0.732066
0.732813
0.732209
0.730981
0.731033
0.731956
0.732773
0.732459
0.731811
0.730267
0.728179
0.725632
0.723639
0.722642
0.722627
0.722092
0.720972
0.71951
0.717554
0.779603
0.779178
0.779127
0.779295
0.779228
0.778565
0.778212
0.77818
0.777916
0.777281
0.776495
0.776301
0.77614
0.775768
0.775299
0.774666
0.773891
0.773269
0.772784
0.772252
0.772267
0.772151
0.771873
0.772182
0.772117
0.771053
0.769348
0.768602
0.767922
0.766182
0.765077
0.764814
0.764236
0.76291
0.76093
0.758902
0.757044
0.754737
0.751801
0.748762
0.745946
0.74377
0.741581
0.74138
0.741264
0.740611
0.738968
0.736829
0.734283
0.731095
0.815966
0.81548
0.815355
0.815242
0.814666
0.814081
0.814105
0.813905
0.813332
0.812792
0.812205
0.812113
0.811922
0.811221
0.810456
0.810006
0.809353
0.808728
0.808189
0.807462
0.806387
0.805085
0.803751
0.8024
0.80121
0.799571
0.797569
0.796984
0.796267
0.794531
0.792814
0.790877
0.788039
0.785203
0.783011
0.781339
0.779249
0.777045
0.774793
0.772967
0.772253
0.771095
0.76994
0.768551
0.766318
0.762854
0.75945
0.755379
0.752458
0.749392
0.853687
0.853118
0.853037
0.853078
0.85263
0.851592
0.851472
0.851399
0.851043
0.850259
0.849536
0.849143
0.848751
0.847929
0.847036
0.846546
0.845965
0.844982
0.843795
0.842803
0.841802
0.840728
0.839541
0.838185
0.836846
0.835392
0.833659
0.831759
0.829834
0.827498
0.825877
0.824407
0.822566
0.819929
0.817068
0.815033
0.812888
0.810251
0.807568
0.804782
0.80159
0.798286
0.79398
0.789706
0.784856
0.780135
0.77653
0.772431
0.771426
0.768521
0.885629
0.885453
0.884814
0.884352
0.884384
0.884404
0.884062
0.88355
0.882843
0.88265
0.882499
0.882036
0.881175
0.880575
0.880121
0.879537
0.878804
0.877978
0.877085
0.876206
0.875273
0.874208
0.873054
0.871796
0.870378
0.868876
0.867184
0.86536
0.863509
0.861398
0.859061
0.856349
0.853677
0.851257
0.848595
0.845218
0.84181
0.838016
0.834262
0.830152
0.826156
0.821808
0.817475
0.813271
0.809295
0.806235
0.803015
0.800573
0.797283
0.790299
0.902067
0.901988
0.901904
0.901825
0.901635
0.901582
0.901568
0.901461
0.901225
0.900908
0.900852
0.900807
0.900592
0.900202
0.899898
0.899626
0.899296
0.898907
0.898433
0.897933
0.897414
0.896801
0.896124
0.895447
0.894728
0.893901
0.892958
0.891832
0.890511
0.888941
0.887082
0.885153
0.883039
0.880705
0.878352
0.875745
0.872541
0.869088
0.865402
0.861594
0.857724
0.853553
0.849481
0.844816
0.840356
0.835419
0.83019
0.824363
0.818209
0.808785
0.906244
0.906218
0.906154
0.9061
0.906102
0.90613
0.906141
0.906124
0.906062
0.905973
0.90588
0.905825
0.905796
0.905763
0.905756
0.905758
0.905714
0.905636
0.905609
0.90556
0.905443
0.905253
0.905146
0.905045
0.904865
0.904581
0.904303
0.904075
0.903808
0.903439
0.902877
0.902079
0.901016
0.899738
0.898337
0.896909
0.895242
0.893202
0.890627
0.887591
0.884164
0.880382
0.876192
0.871407
0.866153
0.860406
0.854529
0.848021
0.842297
0.833439
0.907825
0.907794
0.907752
0.907731
0.907716
0.907723
0.907738
0.907772
0.90782
0.907815
0.907714
0.907523
0.907473
0.907447
0.907376
0.907359
0.907347
0.907212
0.907007
0.906809
0.906567
0.906431
0.906443
0.906463
0.906535
0.906698
0.906801
0.906872
0.906963
0.906893
0.906617
0.906406
0.906199
0.90578
0.905359
0.90493
0.904491
0.904017
0.903312
0.902134
0.900562
0.898729
0.896505
0.893708
0.890152
0.885901
0.881128
0.875556
0.870286
0.860477
0.90793
0.907738
0.907661
0.907577
0.907453
0.907396
0.907399
0.907603
0.90805
0.908101
0.908035
0.908005
0.908038
0.908214
0.908274
0.908236
0.908349
0.908724
0.908859
0.908705
0.908277
0.907907
0.907419
0.907078
0.907044
0.907125
0.907086
0.90694
0.907051
0.907288
0.907633
0.907861
0.907786
0.907573
0.90718
0.906862
0.906846
0.906893
0.906881
0.906724
0.906345
0.905836
0.905253
0.904412
0.903106
0.901218
0.898677
0.895276
0.891387
0.883074
0.911828
0.911744
0.911496
0.911259
0.911015
0.9109
0.910948
0.910983
0.910965
0.910868
0.910613
0.910318
0.910222
0.910216
0.910323
0.910759
0.910943
0.910965
0.911189
0.911215
0.911065
0.910867
0.910328
0.910097
0.910086
0.910232
0.910347
0.91021
0.909616
0.908978
0.90871
0.908472
0.908612
0.909251
0.909379
0.908975
0.908294
0.908143
0.908125
0.908079
0.907911
0.907586
0.907259
0.906907
0.90644
0.905737
0.904859
0.903611
0.902221
0.898425
0.923092
0.923202
0.92351
0.923553
0.92338
0.922878
0.922636
0.922588
0.922529
0.922559
0.922467
0.921963
0.921511
0.921417
0.921353
0.921239
0.920942
0.920501
0.920135
0.919763
0.919343
0.918704
0.917949
0.917568
0.917161
0.916779
0.916829
0.917008
0.916639
0.915635
0.914878
0.91398
0.912978
0.912883
0.91286
0.912395
0.911569
0.910998
0.910543
0.910069
0.909593
0.909203
0.908793
0.908439
0.9081
0.907704
0.907559
0.907287
0.906874
0.9058
0.945604
0.945612
0.945697
0.945599
0.945035
0.944734
0.94434
0.944117
0.944084
0.943866
0.943245
0.942614
0.942522
0.942359
0.941723
0.940805
0.940493
0.94027
0.9397
0.938956
0.938245
0.937686
0.937161
0.936481
0.935562
0.93453
0.933458
0.932355
0.931194
0.929875
0.928916
0.928119
0.926993
0.925824
0.923904
0.92259
0.921667
0.920384
0.918956
0.917734
0.916491
0.915473
0.914289
0.91339
0.912615
0.911721
0.911156
0.910642
0.909935
0.908453
0.97409
0.974095
0.973897
0.973566
0.973351
0.972891
0.97264
0.972606
0.972401
0.971828
0.97117
0.971089
0.970993
0.970459
0.96965
0.969157
0.968708
0.968143
0.967433
0.966608
0.965804
0.965011
0.964136
0.963142
0.962008
0.96079
0.959533
0.958161
0.95676
0.955257
0.953595
0.951812
0.949709
0.947795
0.945963
0.943707
0.941265
0.93897
0.936578
0.934058
0.931558
0.928997
0.926569
0.924111
0.921768
0.919679
0.917311
0.915253
0.913662
0.911231
0.993761
0.993711
0.993564
0.993488
0.993378
0.99313
0.993038
0.993028
0.992928
0.99264
0.992317
0.992256
0.992189
0.991949
0.991584
0.991279
0.990986
0.990627
0.990217
0.989773
0.9893
0.988776
0.988206
0.987546
0.98681
0.985999
0.985088
0.984054
0.982906
0.981659
0.980271
0.978703
0.977019
0.975084
0.972923
0.970672
0.968169
0.965383
0.962454
0.959242
0.955933
0.952272
0.948623
0.944843
0.940846
0.937034
0.933422
0.929552
0.926347
0.921858
0.999435
0.999423
0.999425
0.999421
0.999403
0.99938
0.999353
0.999328
0.999314
0.999294
0.999251
0.999212
0.999188
0.999151
0.999102
0.999052
0.998991
0.99892
0.99884
0.998748
0.998641
0.998525
0.998389
0.998228
0.998041
0.997827
0.997568
0.99726
0.996898
0.996474
0.995971
0.995376
0.994652
0.993802
0.992787
0.991576
0.990151
0.988464
0.986475
0.984179
0.981461
0.978436
0.974922
0.970998
0.96681
0.962062
0.957154
0.951951
0.947088
0.939092
0.999985
0.999984
0.999984
0.999984
0.999983
0.999982
0.999981
0.999981
0.99998
0.999978
0.999977
0.999976
0.999974
0.999972
0.99997
0.999968
0.999965
0.999961
0.999957
0.999952
0.999946
0.999939
0.99993
0.999919
0.999906
0.99989
0.999869
0.999843
0.99981
0.999768
0.999713
0.999641
0.999547
0.999423
0.999258
0.999039
0.998745
0.998355
0.997829
0.997134
0.996211
0.994998
0.99342
0.991412
0.98884
0.985724
0.981925
0.977338
0.972668
0.963782
1
1
1
1
1
1
1
1
1
1
1
1
1
1
1
1
1
0.999999
0.999999
0.999999
0.999999
0.999999
0.999999
0.999999
0.999998
0.999998
0.999998
0.999997
0.999996
0.999995
0.999993
0.999991
0.999988
0.999983
0.999976
0.999965
0.999948
0.999922
0.999883
0.99982
0.999722
0.999566
0.999323
0.998943
0.998361
0.99748
0.99619
0.994283
0.991976
0.986193
1
1
1
1
1
1
1
1
1
1
1
1
1
1
1
1
1
1
1
1
1
1
1
1
1
1
1
1
1
1
1
1
1
1
1
0.999999
0.999999
0.999999
0.999998
0.999996
0.999993
0.999988
0.999977
0.999957
0.999917
0.999842
0.999701
0.999426
0.999009
0.997371
1
1
1
1
1
1
1
1
1
1
1
1
1
1
1
1
1
1
1
1
1
1
1
1
1
1
1
1
1
1
1
1
1
1
1
1
1
1
1
1
1
1
1
0.999999
0.999998
0.999997
0.999992
0.99998
0.999958
0.999796
1
1
1
1
1
1
1
1
1
1
1
1
1
1
1
1
1
1
1
1
1
1
1
1
1
1
1
1
1
1
1
1
1
1
1
1
1
1
1
1
1
1
1
1
1
1
1
1
0.999999
0.999994
1
1
1
1
1
1
1
1
1
1
1
1
1
1
1
1
1
1
1
1
1
1
1
1
1
1
1
1
1
1
1
1
1
1
1
1
1
1
1
1
1
1
1
1
1
1
1
1
1
1
1
1
1
1
1
1
1
1
1
1
1
1
1
1
1
1
1
1
1
1
1
1
1
1
1
1
1
1
1
1
1
1
1
1
1
1
1
1
1
1
1
1
1
1
1
1
1
1
1
1
0.682414
0.682286
0.680701
0.678309
0.676216
0.675066
0.674284
0.674033
0.674005
0.674597
0.674949
0.674538
0.673434
0.672308
0.673656
0.678503
0.690132
0.718106
0.743951
0.780175
0.816269
0.854183
0.88575
0.902159
0.906251
0.90782
0.907971
0.91182
0.923095
0.945832
0.97407
0.993778
0.999462
0.999985
1
1
1
1
1
1
0.682417
0.682267
0.680657
0.678243
0.676157
0.675022
0.674263
0.67398
0.673957
0.674562
0.674955
0.674512
0.673377
0.672284
0.672811
0.67862
0.691854
0.719408
0.746136
0.781234
0.817155
0.855018
0.88644
0.902395
0.906295
0.907766
0.908002
0.911851
0.923449
0.946462
0.974486
0.993897
0.999491
0.999986
1
1
1
1
1
1
0.682416
0.682286
0.680657
0.678223
0.676128
0.67501
0.67426
0.673934
0.6739
0.674498
0.67497
0.674511
0.673121
0.671546
0.67211
0.678629
0.693114
0.720358
0.747682
0.782034
0.818354
0.855805
0.886991
0.9026
0.906357
0.907686
0.908206
0.911976
0.923998
0.94688
0.975125
0.994126
0.999513
0.999987
1
1
1
1
1
1
0.682407
0.682286
0.680648
0.678173
0.676091
0.675009
0.674261
0.67391
0.673856
0.674463
0.674983
0.674555
0.672817
0.671078
0.671859
0.678632
0.693308
0.72125
0.748252
0.782923
0.819512
0.856951
0.887604
0.902831
0.906445
0.907652
0.908384
0.912532
0.924365
0.947285
0.975617
0.994378
0.999533
0.999988
1
1
1
1
1
1
0.68241
0.682286
0.680632
0.678122
0.676053
0.675013
0.674265
0.673899
0.673828
0.674449
0.675023
0.67465
0.672795
0.670933
0.671784
0.678743
0.692689
0.721917
0.74919
0.783882
0.820397
0.857866
0.888357
0.903062
0.906521
0.907651
0.908413
0.912996
0.924605
0.947765
0.975985
0.994542
0.999555
0.999989
1
1
1
1
1
1
0.682426
0.682288
0.680609
0.678074
0.676013
0.675021
0.674272
0.673896
0.673812
0.674448
0.67509
0.674738
0.672813
0.670812
0.671775
0.679207
0.692303
0.722757
0.750705
0.785044
0.821445
0.858855
0.889023
0.903274
0.906589
0.907656
0.908415
0.913305
0.924868
0.948299
0.976396
0.994707
0.999579
0.99999
1
1
1
1
1
1
0.68244
0.682277
0.680559
0.678024
0.675974
0.675031
0.674281
0.673898
0.673801
0.674452
0.675138
0.674821
0.672826
0.670636
0.671785
0.68011
0.693011
0.724083
0.751849
0.785991
0.822434
0.859979
0.889674
0.903497
0.906642
0.907656
0.908351
0.913555
0.925144
0.948799
0.976819
0.994878
0.999603
0.99999
1
1
1
1
1
1
0.682466
0.682223
0.680512
0.677976
0.675937
0.675035
0.6743
0.673902
0.673789
0.674428
0.67517
0.674886
0.672818
0.670392
0.671791
0.681327
0.696019
0.725375
0.75288
0.786931
0.823679
0.861159
0.89037
0.903737
0.906674
0.907619
0.908306
0.913756
0.92549
0.949315
0.977304
0.995059
0.999626
0.999991
1
1
1
1
1
1
0.682483
0.682204
0.680496
0.677932
0.675898
0.675042
0.674336
0.673906
0.673783
0.674399
0.675208
0.674936
0.672824
0.67017
0.671813
0.682563
0.697981
0.726093
0.753847
0.787903
0.825103
0.86233
0.891111
0.903966
0.906691
0.907561
0.908325
0.91393
0.925945
0.949863
0.97784
0.995263
0.999649
0.999992
1
1
1
1
1
1
0.682483
0.682196
0.680494
0.67788
0.675855
0.675051
0.674365
0.673908
0.67379
0.674449
0.675278
0.675007
0.672838
0.670083
0.67214
0.683775
0.698577
0.7262
0.7548
0.788975
0.826474
0.863538
0.891866
0.904181
0.906709
0.907521
0.90839
0.914089
0.926353
0.950454
0.978383
0.995477
0.999672
0.999992
1
1
1
1
1
1
0.682475
0.682158
0.680492
0.677806
0.675802
0.675055
0.674387
0.673915
0.673855
0.67457
0.675379
0.675103
0.672801
0.670062
0.672414
0.685041
0.698927
0.725651
0.755773
0.790238
0.827912
0.864831
0.892623
0.904401
0.906729
0.907498
0.908396
0.914234
0.92673
0.951082
0.978914
0.995678
0.999694
0.999993
1
1
1
1
1
1
0.682477
0.682102
0.680401
0.677726
0.675737
0.675058
0.674424
0.673986
0.673955
0.674612
0.675436
0.67518
0.672784
0.670055
0.672378
0.686069
0.699413
0.724865
0.756775
0.79171
0.829471
0.866216
0.893391
0.904627
0.906722
0.907436
0.908351
0.914392
0.92711
0.951726
0.979462
0.995878
0.999717
0.999994
1
1
1
1
1
1
0.682504
0.682092
0.680328
0.67765
0.67569
0.675066
0.674519
0.674125
0.674045
0.674612
0.675437
0.675211
0.67277
0.67008
0.672015
0.686498
0.699942
0.724946
0.758043
0.7933
0.831125
0.867662
0.894167
0.904853
0.906674
0.907265
0.90825
0.914617
0.927525
0.952399
0.980069
0.996086
0.999738
0.999994
1
1
1
1
1
1
0.682536
0.682093
0.680294
0.677591
0.67568
0.675074
0.674668
0.674251
0.674127
0.674609
0.675425
0.675214
0.672867
0.670055
0.671995
0.686487
0.700508
0.726353
0.759721
0.794935
0.832857
0.869134
0.89495
0.90508
0.906638
0.907178
0.908149
0.914937
0.928044
0.95315
0.980721
0.9963
0.99976
0.999995
1
1
1
1
1
1
0.682574
0.682068
0.680256
0.677549
0.675681
0.675087
0.6748
0.674368
0.674221
0.674604
0.675409
0.675199
0.672987
0.669984
0.67224
0.686265
0.701181
0.728424
0.761605
0.796648
0.834638
0.870614
0.895744
0.905304
0.906609
0.907155
0.908117
0.915162
0.928689
0.954006
0.981359
0.996511
0.99978
0.999995
1
1
1
1
1
1
0.682594
0.681998
0.680187
0.677513
0.675707
0.675136
0.674906
0.674505
0.674337
0.674592
0.675388
0.675164
0.672969
0.669964
0.672272
0.686566
0.702123
0.730103
0.763384
0.79844
0.836446
0.872138
0.896552
0.905522
0.906575
0.907144
0.908208
0.915165
0.929349
0.954885
0.981993
0.996719
0.9998
0.999996
1
1
1
1
1
1
0.682603
0.681949
0.68008
0.677466
0.675734
0.675192
0.675026
0.674668
0.674468
0.674587
0.675356
0.675119
0.672842
0.669948
0.672134
0.687853
0.703462
0.731353
0.765008
0.800267
0.838338
0.873743
0.897364
0.905725
0.906537
0.907139
0.908386
0.914972
0.92999
0.955741
0.982655
0.996929
0.999819
0.999996
1
1
1
1
1
1
0.682616
0.681922
0.679971
0.677388
0.675734
0.675233
0.675172
0.674844
0.674597
0.674589
0.675277
0.675034
0.672804
0.670141
0.672322
0.68928
0.705062
0.732816
0.766621
0.80213
0.840381
0.875425
0.898174
0.905905
0.906514
0.907133
0.908613
0.914953
0.930684
0.956624
0.983357
0.997142
0.999838
0.999997
1
1
1
1
1
1
0.682638
0.681905
0.679863
0.67728
0.675717
0.67528
0.675325
0.675015
0.674699
0.674571
0.675016
0.67476
0.67304
0.671226
0.673716
0.691018
0.706886
0.734695
0.768355
0.804118
0.842594
0.877155
0.898974
0.906055
0.906509
0.907116
0.908926
0.915304
0.931481
0.957574
0.984078
0.997352
0.999855
0.999997
1
1
1
1
1
1
0.682677
0.681899
0.679755
0.677172
0.675708
0.675362
0.675453
0.675169
0.674767
0.674557
0.674733
0.674408
0.673279
0.671964
0.675307
0.692582
0.708783
0.736598
0.770231
0.806353
0.844937
0.878921
0.899759
0.906177
0.906507
0.907128
0.909194
0.916024
0.932358
0.958608
0.98481
0.997558
0.999872
0.999998
1
1
1
1
1
1
0.682738
0.68191
0.679651
0.677068
0.675706
0.675446
0.675546
0.675294
0.674811
0.674558
0.674525
0.674056
0.673242
0.672099
0.67619
0.693221
0.709981
0.738483
0.772235
0.80884
0.847382
0.880721
0.900524
0.906279
0.906503
0.907233
0.909359
0.916464
0.933252
0.959719
0.985559
0.99776
0.999887
0.999998
1
1
1
1
1
1
0.682826
0.681942
0.679557
0.676965
0.675688
0.675485
0.6756
0.675379
0.67487
0.674515
0.674288
0.673648
0.673046
0.671987
0.676763
0.693359
0.710152
0.740369
0.774401
0.81151
0.849903
0.882549
0.901261
0.906368
0.906495
0.907294
0.909517
0.916726
0.934149
0.960889
0.98632
0.997959
0.999902
0.999998
1
1
1
1
1
1
0.682921
0.681972
0.679482
0.676876
0.675638
0.675493
0.675617
0.675423
0.67496
0.674292
0.673961
0.673135
0.673028
0.671956
0.677503
0.693579
0.709411
0.742401
0.776794
0.814294
0.852473
0.884402
0.901962
0.906448
0.90649
0.907276
0.909841
0.917028
0.935093
0.962089
0.987091
0.998153
0.999915
0.999999
1
1
1
1
1
1
0.683031
0.681994
0.679429
0.67682
0.675615
0.675481
0.675619
0.675433
0.675022
0.674087
0.673613
0.6727
0.673191
0.67236
0.678077
0.694935
0.709286
0.744981
0.779378
0.817135
0.855131
0.886292
0.902621
0.906514
0.906547
0.907394
0.910383
0.917446
0.936106
0.963308
0.987881
0.998341
0.999927
0.999999
1
1
1
1
1
1
0.683158
0.682005
0.679391
0.676787
0.675628
0.675464
0.675609
0.675438
0.675041
0.673948
0.673313
0.672459
0.673565
0.672861
0.678104
0.696182
0.712309
0.748525
0.78211
0.820066
0.857956
0.888201
0.903229
0.906593
0.906626
0.907684
0.910891
0.918125
0.937197
0.964582
0.988688
0.998522
0.999938
0.999999
1
1
1
1
1
1
0.683295
0.682016
0.679362
0.676765
0.675636
0.675465
0.675593
0.675447
0.675008
0.673812
0.673051
0.672343
0.674138
0.673088
0.677677
0.697151
0.718411
0.752326
0.785015
0.823196
0.860961
0.890097
0.903784
0.906683
0.906713
0.907827
0.91132
0.918976
0.938356
0.965951
0.989505
0.998695
0.999948
0.999999
1
1
1
1
1
1
0.683419
0.682086
0.679349
0.67675
0.675635
0.675459
0.675569
0.675441
0.674934
0.67369
0.672818
0.672277
0.674567
0.673312
0.677516
0.698676
0.722215
0.755251
0.788181
0.826606
0.864091
0.891951
0.904286
0.906772
0.90678
0.907918
0.911754
0.919841
0.939584
0.967414
0.990319
0.998858
0.999957
0.999999
1
1
1
1
1
1
0.683534
0.682156
0.679404
0.676741
0.675575
0.675419
0.675479
0.675347
0.674902
0.673656
0.672627
0.672149
0.674735
0.67381
0.677783
0.700717
0.724554
0.757606
0.791637
0.830268
0.867279
0.893741
0.904737
0.90684
0.9068
0.908043
0.912062
0.920726
0.9409
0.968933
0.991128
0.999011
0.999965
1
1
1
1
1
1
1
0.683648
0.682256
0.67952
0.676792
0.67549
0.675262
0.675263
0.675199
0.674924
0.673667
0.672444
0.67185
0.674641
0.674837
0.678613
0.702335
0.72721
0.760183
0.795319
0.834073
0.870494
0.89546
0.905138
0.906878
0.906796
0.908185
0.912036
0.921602
0.942306
0.970482
0.991929
0.999153
0.999972
1
1
1
1
1
1
1
0.683765
0.682369
0.679621
0.676883
0.675419
0.675023
0.67502
0.675095
0.674972
0.673693
0.672243
0.671502
0.673959
0.676105
0.679483
0.703272
0.730437
0.763262
0.799186
0.838025
0.873778
0.897106
0.905484
0.906903
0.906807
0.908249
0.91159
0.922468
0.943806
0.972083
0.992725
0.999284
0.999978
1
1
1
1
1
1
1
0.683861
0.68253
0.679754
0.676978
0.67537
0.674847
0.674852
0.675045
0.675017
0.673772
0.67213
0.671225
0.673721
0.67734
0.680942
0.704054
0.73395
0.766664
0.803297
0.842219
0.877149
0.898645
0.905778
0.906957
0.906875
0.908264
0.911282
0.923388
0.94546
0.973774
0.993506
0.999402
0.999982
1
1
1
1
1
1
1
0.68391
0.682703
0.679933
0.677111
0.675333
0.674691
0.674716
0.675012
0.675136
0.67411
0.672262
0.67102
0.673674
0.678679
0.682768
0.706642
0.737859
0.770336
0.807726
0.846701
0.880547
0.900054
0.906027
0.907043
0.90693
0.908345
0.911275
0.924488
0.94732
0.975537
0.994262
0.999508
0.999986
1
1
1
1
1
1
1
0.683917
0.682814
0.680094
0.677284
0.67532
0.674509
0.674529
0.674972
0.67539
0.674553
0.672572
0.670986
0.67387
0.68007
0.684547
0.711556
0.741872
0.774455
0.812529
0.851431
0.883888
0.901329
0.906231
0.907077
0.906967
0.908739
0.911732
0.925863
0.949365
0.977328
0.994983
0.999602
0.99999
1
1
1
1
1
1
1
0.683788
0.682892
0.680257
0.677439
0.67531
0.674326
0.674266
0.674899
0.675488
0.674865
0.672729
0.670884
0.674136
0.680864
0.686108
0.715421
0.74544
0.779146
0.817662
0.856325
0.887143
0.902475
0.906381
0.907077
0.906981
0.909119
0.913103
0.927482
0.951528
0.979125
0.995669
0.999683
0.999992
1
1
1
1
1
1
1
0.683689
0.682942
0.680406
0.677538
0.675264
0.674202
0.674031
0.67473
0.675509
0.675044
0.672773
0.670371
0.674074
0.681006
0.687997
0.719335
0.748976
0.784298
0.823056
0.86136
0.890295
0.903476
0.906476
0.907063
0.906957
0.909193
0.914618
0.929124
0.953794
0.980957
0.996318
0.999753
0.999994
1
1
1
1
1
1
1
0.683595
0.682978
0.680539
0.677561
0.675232
0.67415
0.673919
0.674565
0.675554
0.675136
0.672749
0.669976
0.673274
0.680994
0.691765
0.72435
0.75319
0.789842
0.828747
0.86657
0.893297
0.904313
0.906525
0.907065
0.906949
0.908946
0.915571
0.930652
0.956201
0.982827
0.99692
0.999811
0.999996
1
1
1
1
1
1
1
0.683552
0.682994
0.68063
0.677564
0.675221
0.674144
0.673912
0.674529
0.67561
0.675309
0.672974
0.669968
0.672433
0.681936
0.697197
0.729147
0.758342
0.79593
0.834894
0.871877
0.896057
0.904985
0.906549
0.907154
0.907016
0.908794
0.91628
0.932225
0.958751
0.984693
0.997469
0.999859
0.999997
1
1
1
1
1
1
1
0.683612
0.68298
0.680657
0.677551
0.675287
0.67426
0.674052
0.674602
0.675702
0.675505
0.673683
0.670471
0.672263
0.683859
0.701785
0.732948
0.764263
0.802566
0.841501
0.877147
0.898524
0.905505
0.906562
0.907303
0.907307
0.908983
0.917415
0.934167
0.961425
0.986525
0.997961
0.999897
0.999998
1
1
1
1
1
1
1
0.68374
0.682932
0.680571
0.677524
0.675447
0.674528
0.674278
0.674631
0.675644
0.675438
0.67389
0.670831
0.672628
0.686323
0.706327
0.73661
0.770841
0.809624
0.848451
0.882287
0.900661
0.905895
0.906572
0.907383
0.907419
0.909624
0.918964
0.936646
0.964219
0.988309
0.998395
0.999927
0.999999
1
1
1
1
1
1
1
0.683876
0.682949
0.68042
0.677371
0.675518
0.674864
0.674571
0.67458
0.675188
0.674842
0.673482
0.670569
0.672699
0.690197
0.711865
0.7413
0.778049
0.817035
0.855696
0.887199
0.902431
0.90618
0.906561
0.907388
0.907378
0.910495
0.920125
0.939435
0.967154
0.990042
0.998769
0.99995
0.999999
1
1
1
1
1
1
1
0.684081
0.683007
0.680306
0.677257
0.675571
0.675037
0.674874
0.674535
0.674554
0.673763
0.672854
0.670229
0.673044
0.696169
0.717593
0.747823
0.785959
0.824966
0.863145
0.891718
0.903826
0.906379
0.9065
0.907311
0.907337
0.911385
0.921022
0.942414
0.970241
0.991688
0.999082
0.999967
1
1
1
1
1
1
1
1
0.684467
0.683063
0.680108
0.677105
0.675577
0.675124
0.675073
0.674455
0.673689
0.672201
0.672476
0.670957
0.675932
0.70164
0.722583
0.755833
0.794462
0.833554
0.870633
0.895727
0.904868
0.906503
0.906395
0.907231
0.907585
0.912408
0.922655
0.945655
0.973427
0.993216
0.999336
0.999979
1
1
1
1
1
1
1
1
0.684956
0.683242
0.679901
0.676902
0.675539
0.675163
0.675134
0.674358
0.672779
0.670897
0.672442
0.672809
0.679473
0.705389
0.727921
0.764649
0.803406
0.842822
0.878001
0.899111
0.905581
0.906556
0.906325
0.907202
0.908274
0.913685
0.925614
0.94912
0.976644
0.994603
0.999537
0.999987
1
1
1
1
1
1
1
1
0.685441
0.683432
0.679816
0.676704