/*--------------------------------*- C++ -*----------------------------------*\
  =========                 |
  \\      /  F ield         | OpenFOAM: The Open Source CFD Toolbox
   \\    /   O peration     | Website:  https://openfoam.org
    \\  /    A nd           | Version:  7
     \\/     M anipulation  |
\*---------------------------------------------------------------------------*/
FoamFile
{
    version     2.0;
    format      ascii;
    class       volScalarField;
    location    "8.8";
    object      rho;
}
// * * * * * * * * * * * * * * * * * * * * * * * * * * * * * * * * * * * * * //

dimensions      [1 -3 0 0 0 0 0];

internalField   nonuniform List<scalar> 
1750
(
0.245478
0.455305
0.594585
0.613733
0.631387
0.693008
0.773732
0.824587
0.893786
0.944798
0.0757937
0.135935
0.320276
0.512525
0.642783
0.695797
0.736022
0.767181
0.823346
0.857853
0.0937145
0.0939251
0.109917
0.222017
0.453568
0.601879
0.715767
0.786058
0.811837
0.821917
0.138057
0.149676
0.166592
0.176972
0.201976
0.306591
0.476894
0.664278
0.759039
0.847963
0.220585
0.244168
0.260097
0.266717
0.27457
0.29502
0.303236
0.360904
0.487535
0.748447
0.329455
0.355977
0.368895
0.375281
0.388004
0.398046
0.409277
0.428304
0.433833
0.495623
0.525353
0.528342
0.53679
0.543027
0.541802
0.543384
0.54497
0.544762
0.54167
0.542554
0.815131
0.790333
0.771492
0.75242
0.737236
0.719689
0.704489
0.689967
0.675751
0.656472
1.20047
1.14836
1.10314
1.05909
1.01593
0.974743
0.935884
0.899574
0.874076
0.833835
1.4854
1.45505
1.41981
1.38094
1.33387
1.28353
1.22911
1.17052
1.12118
1.0447
1.52726
1.52547
1.52219
1.51597
1.50649
1.48987
1.46397
1.42766
1.38691
1.30438
1.48854
1.49628
1.50205
1.5087
1.50908
1.50852
1.50681
1.50349
1.49791
1.47324
1.41992
1.42783
1.43656
1.44734
1.45945
1.47029
1.47953
1.48661
1.4927
1.49188
1.40099
1.40177
1.40311
1.40528
1.4089
1.41435
1.42177
1.43133
1.44213
1.45918
1.40002
1.40004
1.40007
1.40014
1.40031
1.40067
1.40143
1.40297
1.40545
1.41452
0.0738126
0.0695722
0.0860362
0.120268
0.193519
0.31837
0.532791
0.853017
1.2522
1.50456
1.52878
1.47847
1.41452
1.40065
1.40001
0.0749195
0.0723763
0.0931483
0.132509
0.222067
0.393969
0.656807
0.998158
1.36956
1.53537
1.52988
1.46223
1.40787
1.40024
1.40001
0.0781344
0.0718523
0.0937989
0.134884
0.25151
0.468875
0.736425
1.09538
1.44421
1.54565
1.52501
1.44551
1.40399
1.4001
1.40001
0.0809787
0.0639918
0.0917976
0.151089
0.321703
0.537698
0.826575
1.22266
1.5128
1.55116
1.51059
1.42872
1.40185
1.40004
1.40001
0.0754565
0.0584706
0.0927937
0.189948
0.373464
0.600796
0.958801
1.36143
1.55308
1.55278
1.48906
1.41716
1.40083
1.40002
1.40001
0.0643551
0.0582781
0.113484
0.23738
0.426655
0.71869
1.13111
1.46712
1.56767
1.5518
1.46631
1.40856
1.4003
1.40001
1.40001
0.0557428
0.061145
0.134034
0.279414
0.515394
0.900114
1.28484
1.53667
1.57251
1.52983
1.44137
1.40346
1.4001
1.40001
1.40001
0.042979
0.0744133
0.155624
0.352269
0.685783
1.07204
1.42246
1.57532
1.57234
1.50485
1.42289
1.4014
1.40004
1.40001
1.40001
0.0256547
0.0802424
0.21348
0.484968
0.86823
1.24545
1.53104
1.58831
1.56112
1.47299
1.41021
1.40044
1.40001
1.40001
1.40001
0.0135996
0.0798573
0.332624
0.67569
1.06839
1.42318
1.58821
1.59125
1.53844
1.4417
1.40374
1.40012
1.40001
1.40001
1.40001
0.0104734
0.159977
0.490464
0.895758
1.29522
1.55235
1.60825
1.59055
1.50136
1.41878
1.40115
1.40004
1.40001
1.40001
1.40001
0.0497089
0.319568
0.714624
1.16241
1.49124
1.61548
1.6129
1.56058
1.45537
1.40672
1.40028
1.40001
1.40001
1.40001
1.40001
0.184985
0.544886
1.05501
1.41603
1.60219
1.63174
1.60787
1.50916
1.42249
1.40164
1.40006
1.40001
1.40001
1.40001
1.40001
0.463154
0.93072
1.36324
1.57389
1.64308
1.63376
1.56201
1.4513
1.40613
1.40029
1.40001
1.40001
1.40001
1.40001
1.40001
0.964134
1.36109
1.57616
1.63502
1.6487
1.59985
1.49285
1.41752
1.40118
1.40004
1.40001
1.40001
1.40001
1.40001
1.40001
1.63765
1.64425
1.64895
1.6446
1.63107
1.53407
1.43464
1.40173
1.40002
1.40001
1.40001
1.40001
1.40001
1.40001
1.40001
1.63648
1.64562
1.65079
1.64082
1.61948
1.52397
1.43127
1.4029
1.40011
1.40001
1.40001
1.40001
1.40001
1.40001
1.40001
1.63557
1.64877
1.65333
1.6404
1.59289
1.47514
1.40958
1.40039
1.40001
1.40001
1.40001
1.40001
1.40001
1.40001
1.40001
1.63508
1.65108
1.65376
1.62642
1.55297
1.4456
1.40422
1.40013
1.40001
1.40001
1.40001
1.40001
1.40001
1.40001
1.40001
1.63673
1.6571
1.65525
1.61217
1.51436
1.42161
1.40131
1.40003
1.40001
1.40001
1.40001
1.40001
1.40001
1.40001
1.40001
1.64587
1.66122
1.65649
1.5846
1.46911
1.40888
1.40037
1.40001
1.40001
1.40001
1.40001
1.40001
1.40001
1.40001
1.40001
1.65762
1.65779
1.64508
1.53863
1.43505
1.403
1.4001
1.40001
1.40001
1.40001
1.40001
1.40001
1.40001
1.40001
1.40001
1.67912
1.6383
1.60903
1.49125
1.41637
1.40092
1.40003
1.40001
1.40001
1.40001
1.40001
1.40001
1.40001
1.40001
1.40001
1.70203
1.6236
1.5637
1.4508
1.40556
1.40023
1.40001
1.40001
1.40001
1.40001
1.40001
1.40001
1.40001
1.40001
1.40001
1.71318
1.60217
1.50698
1.42235
1.40174
1.40006
1.40001
1.40001
1.40001
1.40001
1.40001
1.40001
1.40001
1.40001
1.40001
1.70839
1.561
1.46389
1.40906
1.40045
1.40001
1.40001
1.40001
1.40001
1.40001
1.40001
1.40001
1.40001
1.40001
1.40001
1.67404
1.51792
1.42995
1.40263
1.4001
1.40001
1.40001
1.40001
1.40001
1.40001
1.40001
1.40001
1.40001
1.40001
1.40001
1.62652
1.47088
1.41107
1.40058
1.40002
1.40001
1.40001
1.40001
1.40001
1.40001
1.40001
1.40001
1.40001
1.40001
1.40001
1.55313
1.43294
1.40284
1.40009
1.40001
1.40001
1.40001
1.40001
1.40001
1.40001
1.40001
1.40001
1.40001
1.40001
1.40001
1.46873
1.40916
1.4004
1.40001
1.40001
1.40001
1.40001
1.40001
1.40001
1.40001
1.40001
1.40001
1.40001
1.40001
1.40001
1.40001
1.40001
1.40001
1.40001
1.40001
1.40001
1.40001
1.40001
1.40001
1.40001
1.40001
1.40001
1.40001
1.40001
1.40001
1.40001
1.40001
1.40001
1.40001
1.40001
1.40001
1.40001
1.40001
1.40001
1.40001
1.40001
1.40001
1.40001
1.40001
1.40001
1.40001
1.40001
1.40001
1.40001
1.40001
1.40001
1.40001
1.40001
1.40001
1.40001
1.40001
1.40001
1.40001
1.40001
1.40001
1.40001
1.40001
1.40001
1.40001
1.40001
1.40001
1.40001
1.40001
1.40001
1.40001
1.40001
1.40001
1.40001
1.40001
1.40001
1.40001
1.40001
1.40001
1.40001
1.40001
1.40001
1.40001
1.40001
1.40001
1.40001
1.40001
1.40001
1.40001
1.40001
1.40001
1.40001
1.40001
1.40001
1.40001
1.40001
1.40001
1.40001
1.40001
1.40001
1.40001
1.40001
1.40001
1.40001
1.40001
1.40001
1.40001
1.40001
1.40001
1.40001
1.40001
1.40001
1.40001
1.40001
1.40001
1.40001
1.40001
1.40001
1.40001
1.40001
1.40001
1.40001
1.40001
1.40001
1.40001
1.40001
1.40001
1.40001
1.40001
1.40001
1.40001
1.40001
1.40001
1.40001
1.40001
1.40001
1.40001
1.40001
1.40001
1.40001
1.40001
1.40001
1.40001
1.40001
1.40001
1.40001
1.40001
1.40001
1.40001
1.40001
1.40001
1.40001
1.40001
1.40001
1.40001
1.40001
1.40001
1.40001
1.40001
1.40001
1.40001
1.40001
1.40001
1.40001
1.40001
1.40001
1.40001
1.40001
1.40001
1.40001
1.40001
1.40001
1.40001
1.40001
1.40001
1.40001
1.40001
1.40001
1.40001
1.40001
1.40001
1.40001
1.40001
1.40001
1.40001
1.40001
1.40001
1.40001
1.40001
1.40001
1.40001
1.40001
1.40001
1.40001
1.40001
1.40001
1.40001
1.40001
1.40001
1.40001
1.40001
1.40001
1.40001
1.40001
1.40001
1.40001
1.40001
1.40001
1.40001
1.40001
1.40001
1.40001
1.40001
1.40001
1.40001
1.40001
1.40001
1.40001
1.40001
1.40001
1.40001
1.40001
1.40001
1.40001
1.40001
1.40001
1.40001
1.40001
1.40001
1.40001
1.40001
1.40001
1.40001
1.40001
1.40001
1.40001
1.40001
1.40001
1.40001
1.40001
1.40001
1.40001
1.40001
1.40001
1.40001
1.40001
1.40001
1.40001
1.40001
1.40001
1.40001
1.40001
1.40001
1.40001
1.40001
1.40001
1.40001
1.40001
1.40001
1.40001
1.40001
1.40001
1.40001
1.40001
1.40001
1.40001
1.40001
1.40001
1.40001
1.40001
1.40001
1.40001
1.40001
1.40001
1.40001
1.40001
1.40001
1.40001
1.40001
1.40001
1.40001
1.40001
1.40001
1.40001
1.40001
1.40001
1.40001
1.40001
1.40001
1.40001
1.40001
1.40001
1.40001
1.40001
1.40001
1.40001
1.40001
1.40001
1.40001
1.40001
1.40001
1.40001
1.40001
1.40001
1.40001
1.40001
1.40001
1.40001
1.40001
1.40001
1.40001
1.40001
1.40001
1.40001
1.40001
1.40001
1.40001
1.40001
1.40001
1.40001
1.40001
1.40001
1.40001
1.40001
1.40001
1.40001
1.40001
1.40001
1.40001
1.40001
1.40001
1.40001
1.40001
1.40001
1.40001
1.40001
1.40001
1.40001
1.40001
1.40001
1.40001
1.40001
1.40001
1.40001
1.40001
1.40001
1.40001
1.40001
1.40001
1.40001
1.40001
1.40001
1.40001
1.40001
1.40001
1.40001
1.40001
1.40001
1.40001
1.40001
1.40001
1.40001
1.40001
1.40001
1.40001
1.40001
3.47246
1.80974
1.4
1.40001
1.40001
1.40001
1.40001
1.40001
1.40001
1.40001
1.40001
1.40001
1.40001
1.40001
1.40001
1.40001
1.40001
1.40001
1.40001
1.40001
5.93333
4.51113
2.95603
1.48508
1.4
1.40001
1.40001
1.40001
1.40001
1.40001
1.40001
1.40001
1.40001
1.40001
1.40001
1.40001
1.40001
1.40001
1.40001
1.40001
5.14277
4.72547
4.79604
3.84108
1.81634
1.39997
1.40001
1.40001
1.40001
1.40001
1.40001
1.40001
1.40001
1.40001
1.40001
1.40001
1.40001
1.40001
1.40001
1.40001
4.80391
4.68401
4.79701
4.80083
4.14657
2.03848
1.39934
1.40001
1.40001
1.40001
1.40001
1.40001
1.40001
1.40001
1.40001
1.40001
1.40001
1.40001
1.40001
1.40001
4.70864
4.69633
4.76419
4.79492
4.77927
4.29913
2.16756
1.39859
1.40001
1.40001
1.40001
1.40001
1.40001
1.40001
1.40001
1.40001
1.40001
1.40001
1.40001
1.40001
4.72932
4.7438
4.77496
4.77221
4.78349
4.81659
4.27786
2.11093
1.39877
1.40001
1.40001
1.40001
1.40001
1.40001
1.40001
1.40001
1.40001
1.40001
1.40001
1.40001
4.75619
4.76657
4.76431
4.76174
4.78225
4.81772
4.85813
4.28725
2.07399
1.39834
1.40001
1.40001
1.40001
1.40001
1.40001
1.40001
1.40001
1.40001
1.40001
1.40001
4.75714
4.75416
4.74845
4.75026
4.77638
4.80566
4.84592
4.83141
4.1249
1.92994
1.39845
1.40001
1.40001
1.40001
1.40001
1.40001
1.40001
1.40001
1.40001
1.40001
4.74366
4.736
4.73076
4.74063
4.7647
4.78856
4.81148
4.80816
4.77862
3.79044
1.71831
1.39882
1.40001
1.40001
1.40001
1.40001
1.40001
1.40001
1.40001
1.40001
4.72083
4.71336
4.71774
4.7313
4.74702
4.76127
4.77349
4.77398
4.78593
4.66401
3.22205
1.52594
1.39944
1.40001
1.40001
1.40001
1.40001
1.40001
1.40001
1.40001
4.70147
4.69551
4.7034
4.71168
4.71907
4.72662
4.73653
4.73959
4.73948
4.70593
4.49972
2.53496
1.42034
1.39991
1.4
1.40001
1.40001
1.40001
1.40001
1.40001
4.68344
4.67687
4.68286
4.68478
4.68697
4.69342
4.70503
4.71089
4.71814
4.69876
4.75628
4.28629
2.06996
1.40146
1.4
1.40001
1.40001
1.40001
1.40001
1.40001
4.66324
4.65454
4.65664
4.65534
4.65757
4.66579
4.67947
4.69538
4.70679
4.70818
4.74333
4.68876
3.58159
1.65318
1.39929
1.39997
1.4
1.40001
1.40001
1.40001
4.64208
4.62995
4.62707
4.62255
4.62545
4.6361
4.65275
4.6708
4.68821
4.69562
4.6985
4.67885
4.59024
2.81636
1.46041
1.40017
1.40001
1.40001
1.40001
1.40001
4.54394
4.49387
4.48445
4.47697
4.48321
4.49755
4.52197
4.5484
4.57467
4.58224
4.5876
4.57913
4.6032
4.06696
1.9481
1.38342
1.39885
1.4
1.4
1.40001
2.05668
2.81352
3.16018
3.4173
3.61441
3.79222
3.93199
4.05252
4.16232
4.23946
4.29597
4.32685
4.39359
4.42922
3.63651
1.84786
1.41314
1.4001
1.40001
1.40001
0.724597
1.65115
2.18476
2.59792
2.88384
3.11223
3.31893
3.51919
3.68
3.83429
3.93899
4.00866
4.12311
4.28813
4.22001
3.16577
1.68082
1.40653
1.40005
1.40001
0.724343
1.21385
1.52844
1.89398
2.27895
2.56688
2.8198
3.03643
3.24054
3.43132
3.59913
3.70945
3.85975
4.02838
4.11525
3.93601
2.61027
1.52011
1.40181
1.40002
0.831647
1.06244
1.21916
1.50235
1.80597
2.10901
2.39053
2.63351
2.8739
3.06635
3.2807
3.4388
3.61185
3.7877
3.89673
3.90753
3.52617
2.04203
1.42997
1.40025
0.91905
0.935724
1.00459
1.27135
1.51969
1.78528
2.04273
2.29083
2.52737
2.74201
2.95822
3.16071
3.34261
3.54201
3.64195
3.78828
3.74836
2.85219
1.61555
1.40453
0.953439
0.933861
0.969724
1.09869
1.27934
1.52762
1.76839
2.00776
2.22468
2.46321
2.67761
2.91346
3.10616
3.29253
3.4251
3.59599
3.71716
3.49385
2.13419
1.44206
0.986689
0.963631
1.0047
1.07779
1.1539
1.33008
1.54267
1.7725
1.99775
2.23609
2.46328
2.70248
2.91093
3.07781
3.23005
3.39084
3.61416
3.59632
2.83708
1.6363
1.01658
1.01597
1.05158
1.05328
1.08211
1.22985
1.39341
1.58753
1.79759
2.02559
2.26565
2.48696
2.70178
2.8821
3.02882
3.18801
3.42422
3.56228
3.22595
2.0679
1.02824
1.03624
1.05263
1.03711
1.03933
1.1183
1.25795
1.43417
1.62931
1.81694
2.06042
2.28093
2.49535
2.70849
2.86114
3.03416
3.23929
3.48072
3.35651
2.76791
1.03459
1.03971
1.05091
1.0421
1.04532
1.09431
1.15969
1.29784
1.48298
1.67743
1.89457
2.13465
2.33176
2.54556
2.71824
2.89203
3.05987
3.31707
3.41206
3.59945
1.03282
1.03608
1.05117
1.05844
1.0665
1.09059
1.12115
1.23257
1.38016
1.57165
1.76336
1.99804
2.1969
2.38825
2.57544
2.73248
2.89263
3.14552
3.50693
4.39533
1.02164
1.02633
1.05142
1.0735
1.07939
1.07253
1.07943
1.17427
1.29283
1.46737
1.64226
1.847
2.05021
2.21738
2.42797
2.59312
2.77414
2.97648
3.57554
5.18519
1.00694
1.01746
1.05298
1.07876
1.07581
1.06088
1.05922
1.10767
1.19565
1.35436
1.52994
1.69608
1.9036
2.07983
2.29165
2.47354
2.65978
2.87027
3.68731
5.9584
1.00619
1.01845
1.05527
1.08136
1.0757
1.0628
1.06289
1.10058
1.15854
1.27643
1.45011
1.61243
1.80398
1.97898
2.16635
2.36445
2.51915
2.80945
3.91235
6.4596
1.01398
1.02758
1.05626
1.08061
1.07959
1.07046
1.07231
1.09982
1.13967
1.23077
1.37294
1.53029
1.71066
1.89506
2.04502
2.24771
2.38632
2.75578
4.11331
6.66105
0.898348
1.01891
1.05598
1.08146
1.08236
1.07641
1.07877
1.08178
1.10505
1.18626
1.30112
1.44942
1.59372
1.78661
1.95567
2.12271
2.32244
2.79855
4.3593
6.6271
0.799789
0.968892
1.04384
1.08017
1.08635
1.08354
1.07834
1.07372
1.08264
1.14473
1.2223
1.36927
1.51379
1.66741
1.86821
2.0321
2.25637
2.97814
4.51033
6.39975
0.731477
0.894406
1.00671
1.06906
1.09118
1.09214
1.08473
1.07619
1.08223
1.13034
1.18151
1.29252
1.45226
1.59832
1.76513
1.95065
2.2351
3.26877
4.56258
6.07611
0.67262
0.814734
0.94295
1.03636
1.08566
1.09118
1.08523
1.07483
1.07787
1.10758
1.14574
1.22278
1.37084
1.53347
1.66097
1.86047
2.31759
3.59051
4.55692
5.67782
0.673519
0.762524
0.874572
0.981761
1.06204
1.0859
1.08295
1.07577
1.07226
1.085
1.1113
1.18415
1.28605
1.4443
1.58652
1.81243
2.5468
3.83139
4.45055
5.20742
0.695001
0.723622
0.808451
0.918183
1.01609
1.07122
1.08058
1.07764
1.07069
1.07152
1.08158
1.1456
1.22698
1.35549
1.52037
1.89741
2.87287
3.94219
4.29931
4.69614
0.756557
0.734557
0.763618
0.852153
0.953774
1.03665
1.07255
1.07324
1.06372
1.05695
1.06361
1.11283
1.16915
1.27873
1.51555
2.14351
3.11904
3.88711
4.10285
4.21934
0.828791
0.788993
0.768503
0.79897
0.879548
0.980226
1.04462
1.06215
1.05143
1.04297
1.04834
1.08102
1.12366
1.25715
1.63783
2.45679
3.20629
3.76787
3.83107
3.79243
0.905462
0.861715
0.787602
0.788892
0.816445
0.90441
0.987988
1.03597
1.0428
1.0382
1.03957
1.05721
1.0999
1.33047
1.9408
2.73723
3.16274
3.55583
3.55993
3.49782
0.996188
0.975374
0.899064
0.822419
0.811388
0.833189
0.888066
0.959893
1.00631
1.02626
1.04773
1.11731
1.31894
1.75373
2.27865
2.70925
2.93297
3.12094
3.12373
3.07959
)
;

boundaryField
{
    inlet
    {
        type            calculated;
        value           uniform 1.40001;
    }
    outlet
    {
        type            calculated;
        value           nonuniform List<scalar> 
35
(
0.996326
0.975505
0.899092
0.822389
0.81138
0.833171
0.888093
0.959931
1.00636
1.0263
1.0479
1.11782
1.32004
1.75498
2.27945
2.70948
2.93288
3.1207
3.1236
3.07944
0.944957
0.858029
0.821905
0.848004
0.748577
0.495741
0.54253
0.656487
0.833834
1.04468
1.30436
1.47324
1.49188
1.45919
1.41452
)
;
    }
    airfoil
    {
        type            calculated;
        value           nonuniform List<scalar> 
60
(
0.0738126
0.0749195
0.0781344
0.0809787
0.0754565
0.0643551
0.0557428
0.042979
0.0256547
0.0135996
0.0104734
0.0497089
0.184985
0.463154
0.964134
1.63765
1.63648
1.63557
1.63508
1.63673
1.64587
1.65762
1.67912
1.70203
1.71318
1.70839
1.67404
1.62652
1.55313
1.46873
3.47246
5.93333
5.14277
4.80391
4.70864
4.72932
4.75619
4.75714
4.74366
4.72083
4.70147
4.68344
4.66324
4.64208
4.54394
2.05668
0.724597
0.724343
0.831647
0.91905
0.953439
0.986689
1.01658
1.02824
1.03459
1.03282
1.02164
1.00694
1.00619
1.01398
)
;
    }
    top
    {
        type            symmetryPlane;
    }
    bottom
    {
        type            symmetryPlane;
    }
    defaultFaces
    {
        type            empty;
    }
}


// ************************************************************************* //
