/*--------------------------------*- C++ -*----------------------------------*\
  =========                 |
  \\      /  F ield         | OpenFOAM: The Open Source CFD Toolbox
   \\    /   O peration     | Website:  https://openfoam.org
    \\  /    A nd           | Version:  7
     \\/     M anipulation  |
\*---------------------------------------------------------------------------*/
FoamFile
{
    version     2.0;
    format      ascii;
    class       volScalarField;
    location    "8.8";
    object      T;
}
// * * * * * * * * * * * * * * * * * * * * * * * * * * * * * * * * * * * * * //

dimensions      [0 0 0 1 0 0 0];

internalField   nonuniform List<scalar> 
1750
(
1.39142
1.53349
1.50066
1.43172
1.36852
1.38524
1.41186
1.40941
1.43097
1.44268
0.460112
1.00882
1.62594
1.83597
1.80536
1.75083
1.69873
1.64283
1.63671
1.60273
0.365991
0.369342
0.518184
1.08989
1.49843
1.66643
1.72404
1.72506
1.70049
1.64686
0.404878
0.417892
0.425876
0.440697
0.529353
0.849735
1.11559
1.34138
1.43565
1.50443
0.471747
0.497168
0.515647
0.527238
0.522469
0.532845
0.540842
0.662735
0.843582
1.11664
0.565959
0.580724
0.589637
0.594639
0.604968
0.612157
0.621705
0.624657
0.629048
0.708199
0.687135
0.688515
0.691472
0.693835
0.69398
0.696213
0.696596
0.696339
0.695005
0.690624
0.824304
0.81492
0.805053
0.794131
0.786864
0.779731
0.772765
0.765136
0.757897
0.748543
0.958577
0.942621
0.926683
0.909659
0.893228
0.877913
0.863044
0.848302
0.837342
0.821088
1.03009
1.02288
1.01386
1.00318
0.989747
0.974898
0.958237
0.9395
0.922634
0.897019
1.03766
1.03739
1.03666
1.03509
1.03273
1.02861
1.02205
1.01256
1.00129
0.978358
1.02596
1.02821
1.02988
1.03176
1.03189
1.03173
1.03131
1.03049
1.0291
1.0229
1.00586
1.00817
1.01071
1.01381
1.01723
1.02032
1.02297
1.02498
1.02676
1.02654
1.00028
1.00051
1.0009
1.00153
1.00258
1.00416
1.00631
1.00906
1.01214
1.01703
1
1.00001
1.00002
1.00004
1.00009
1.00019
1.00041
1.00086
1.00157
1.00421
0.488106
0.415388
0.363462
0.38059
0.451176
0.561255
0.689949
0.83672
0.972891
1.0343
1.03785
1.02309
1.00428
1.00019
1
0.473643
0.400259
0.352715
0.3878
0.482645
0.609193
0.746567
0.890129
1.00395
1.04092
1.03816
1.01834
1.00232
1.00007
1
0.471168
0.385829
0.349522
0.392979
0.516501
0.652442
0.786267
0.926397
1.02243
1.04319
1.03663
1.01352
1.00117
1.00003
1
0.496501
0.378369
0.347257
0.43388
0.570795
0.687873
0.828206
0.965596
1.03769
1.04455
1.03248
1.00855
1.00054
1.00001
1
0.514343
0.371937
0.370136
0.489387
0.594646
0.725729
0.878785
1.00197
1.04617
1.04507
1.02631
1.0051
1.00024
1
1
0.516315
0.366576
0.417335
0.518369
0.635959
0.786233
0.936924
1.02754
1.04921
1.04412
1.01972
1.00254
1.00008
1
1
0.528737
0.391365
0.452284
0.543184
0.695525
0.860434
0.981437
1.04299
1.05025
1.03794
1.01233
1.00102
1.00003
1
1
0.534019
0.432066
0.470817
0.616049
0.78456
0.918668
1.01678
1.05128
1.04976
1.0308
1.00685
1.00041
1.00001
1
1
0.482883
0.459716
0.525589
0.707163
0.853803
0.970699
1.04241
1.05403
1.04634
1.02168
1.00304
1.00013
1
1
1
0.325731
0.436942
0.633042
0.795034
0.923033
1.0176
1.055
1.0547
1.04026
1.01252
1.00111
1.00003
1
1
1
0.159191
0.518464
0.723491
0.872603
0.98603
1.04732
1.05929
1.05421
1.02986
1.00563
1.00034
1.00001
1
1
1
0.171115
0.61031
0.802567
0.950232
1.03432
1.06137
1.06039
1.04633
1.01659
1.00201
1.00008
1
1
1
1
0.219274
0.672615
0.911496
1.01703
1.0594
1.06493
1.05842
1.03194
1.00674
1.00048
1.00002
1
1
1
1
0.495931
0.836827
1.0008
1.0531
1.06797
1.06535
1.0464
1.01523
1.00182
1.00008
1
1
1
1
1
0.834664
0.999408
1.0544
1.06601
1.06908
1.05607
1.02695
1.00519
1.00034
1.00001
1
1
1
1
1
1.06654
1.06808
1.06909
1.06788
1.06437
1.03825
1.01012
1.00049
1
1
1
1
1
1
1
1.06633
1.06854
1.06961
1.06686
1.06133
1.03573
1.00921
1.00084
1.00003
1
1
1
1
1
1
1.06608
1.06926
1.07019
1.06668
1.05412
1.02175
1.00279
1.00011
1
1
1
1
1
1
1
1.06592
1.06978
1.07026
1.06295
1.04342
1.01332
1.00123
1.00004
1
1
1
1
1
1
1
1.06628
1.07126
1.07063
1.05921
1.03283
1.00631
1.00038
1.00001
1
1
1
1
1
1
1
1.06885
1.0723
1.07096
1.05197
1.02007
1.00258
1.0001
1
1
1
1
1
1
1
1
1.07211
1.07118
1.06792
1.03954
1.0102
1.00087
1.00003
1
1
1
1
1
1
1
1
1.07768
1.06556
1.05826
1.02633
1.00477
1.00026
1.00001
1
1
1
1
1
1
1
1
1.08356
1.06141
1.04592
1.01472
1.00161
1.00006
1
1
1
1
1
1
1
1
1
1.0863
1.05566
1.03031
1.00648
1.0005
1.00001
1
1
1
1
1
1
1
1
1
1.08496
1.04492
1.01834
1.00263
1.00013
1
1
1
1
1
1
1
1
1
1
1.07568
1.0334
1.00866
1.00076
1.00003
1
1
1
1
1
1
1
1
1
1
1.06303
1.02047
1.00322
1.00017
1
1
1
1
1
1
1
1
1
1
1
1.04301
1.00962
1.00082
1.00003
1
1
1
1
1
1
1
1
1
1
1
1.01961
1.00268
1.00012
1
1
1
1
1
1
1
1
1
1
1
1
1
1
1
1
1
1
1
1
1
1
1
1
1
1
1
1
1
1
1
1
1
1
1
1
1
1
1
1
1
1
1
1
1
1
1
1
1
1
1
1
1
1
1
1
1
1
1
1
1
1
1
1
1
1
1
1
1
1
1
1
1
1
1
1
1
1
1
1
1
1
1
1
1
1
1
1
1
1
1
1
1
1
1
1
1
1
1
1
1
1
1
1
1
1
1
1
1
1
1
1
1
1
1
1
1
1
1
1
1
1
1
1
1
1
1
1
1
1
1
1
1
1
1
1
1
1
1
1
1
1
1
1
1
1
1
1
1
1
1
1
1
1
1
1
1
1
1
1
1
1
1
1
1
1
1
1
1
1
1
1
1
1
1
1
1
1
1
1
1
1
1
1
1
1
1
1
1
1
1
1
1
1
1
1
1
1
1
1
1
1
1
1
1
1
1
1
1
1
1
1
1
1
1
1
1
1
1
1
1
1
1
1
1
1
1
1
1
1
1
1
1
1
1
1
1
1
1
1
1
1
1
1
1
1
1
1
1
1
1
1
1
1
1
1
1
1
1
1
1
1
1
1
1
1
1
1
1
1
1
1
1
1
1
1
1
1
1
1
1
1
1
1
1
1
1
1
1
1
1
1
1
1
1
1
1
1
1
1
1
1
1
1
1
1
1
1
1
1
1
1
1
1
1
1
1
1
1
1
1
1
1
1
1
1
1
1
1
1
1
1
1
1
1
1
1
1
1
1
1
1
1
1
1
1
1
1
1
1
1
1
1
1
1
1
1
1
1
1
1
1
1.82033
1.25315
0.999998
1
1
1
1
1
1
1
1
1
1
1
1
1
1
1
1
1
2.52139
2.23654
1.73825
1.05339
1
1
1
1
1
1
1
1
1
1
1
1
1
1
1
1
2.40881
2.30709
2.24572
2.04179
1.25673
0.999919
1
1
1
1
1
1
1
1
1
1
1
1
1
1
2.34017
2.30202
2.31209
2.30466
2.11152
1.36661
0.999597
1
1
1
1
1
1
1
1
1
1
1
1
1
2.31062
2.30366
2.30783
2.30444
2.27241
2.10806
1.41989
0.999317
1
1
1
1
1
1
1
1
1
1
1
1
2.31291
2.31121
2.31042
2.30186
2.28905
2.26366
2.11015
1.40822
0.99933
1
1
1
1
1
1
1
1
1
1
1
2.31437
2.31452
2.30906
2.30003
2.28896
2.27162
2.24853
2.11653
1.39376
0.999139
1
1
1
1
1
1
1
1
1
1
2.31398
2.31201
2.30635
2.29788
2.2875
2.27014
2.25685
2.23659
2.06471
1.32899
0.999099
1
1
1
1
1
1
1
1
1
2.31075
2.30819
2.30316
2.2962
2.28522
2.26866
2.2541
2.24178
2.23162
1.98473
1.20781
0.999251
1
1
1
1
1
1
1
1
2.30618
2.3035
2.30028
2.29432
2.28233
2.26537
2.24955
2.23954
2.23933
2.2162
1.81272
1.07953
0.999652
1
1
1
1
1
1
1
2.30229
2.29977
2.2971
2.29038
2.27781
2.26105
2.24598
2.23643
2.23134
2.21739
2.15894
1.57998
1.01177
0.999947
1
1
1
1
1
1
2.29882
2.29595
2.29272
2.28506
2.27263
2.25748
2.24377
2.23344
2.22682
2.21373
2.21054
2.10012
1.39907
1.00074
1
1
1
1
1
1
2.29518
2.29163
2.28735
2.27934
2.26793
2.25441
2.24127
2.23062
2.22157
2.21167
2.20765
2.18773
1.91452
1.1672
0.999484
0.999987
1
1
1
1
2.2914
2.28709
2.28171
2.27322
2.2625
2.24995
2.23697
2.22519
2.2157
2.20719
2.19969
2.19129
2.17138
1.68084
1.03625
1.00006
1
1
1
1
2.27284
2.25893
2.25006
2.24037
2.23024
2.2186
2.2073
2.19726
2.19011
2.183
2.1783
2.1728
2.17541
2.05151
1.34423
0.989579
0.999571
0.999997
1
1
1.68158
1.89634
1.96805
2.0184
2.05386
2.08199
2.09666
2.10571
2.11404
2.11894
2.12344
2.12542
2.13519
2.13682
1.94304
1.27713
1.007
1.00004
1
1
1.25708
1.60104
1.71936
1.81668
1.88222
1.93158
1.96909
2.00072
2.02101
2.0412
2.05386
2.06289
2.0822
2.10966
2.09441
1.78974
1.16582
1.00303
1.00002
1
1.2734
1.43771
1.50912
1.60865
1.71771
1.79347
1.85302
1.89659
1.93122
1.9609
1.98611
2.00209
2.0288
2.05791
2.07254
2.01981
1.59063
1.06617
1.00072
1
1.34607
1.37012
1.38959
1.47414
1.57434
1.66539
1.74347
1.80141
1.85134
1.8839
1.92025
1.9451
1.97631
2.00781
2.02723
2.01653
1.87197
1.33613
1.01421
1.00009
1.38867
1.33148
1.30588
1.38738
1.47252
1.56094
1.64217
1.70986
1.76712
1.80958
1.84884
1.88358
1.91659
1.95428
1.97197
1.99312
1.95906
1.64587
1.11627
1.00186
1.41547
1.33861
1.2948
1.31719
1.37361
1.46424
1.54825
1.62447
1.68425
1.74072
1.78291
1.82722
1.8623
1.89756
1.92351
1.95464
1.95334
1.83135
1.3612
1.01985
1.42553
1.36236
1.3135
1.3024
1.31563
1.3852
1.46701
1.54953
1.61858
1.6816
1.73054
1.77743
1.81597
1.84635
1.87766
1.91012
1.93486
1.89749
1.61426
1.12128
1.4232
1.38241
1.3304
1.28938
1.28521
1.34244
1.41068
1.48634
1.55544
1.62135
1.67809
1.72297
1.76386
1.79753
1.82888
1.86507
1.90041
1.89334
1.73942
1.31644
1.41279
1.381
1.3297
1.28223
1.26708
1.29622
1.35566
1.4263
1.49645
1.55327
1.61874
1.66728
1.71028
1.75379
1.7878
1.82983
1.86383
1.8799
1.79521
1.54938
1.40632
1.3787
1.32993
1.28538
1.26996
1.28489
1.31187
1.36862
1.44127
1.50553
1.56856
1.62772
1.66743
1.71285
1.75216
1.79549
1.82509
1.85075
1.81938
1.75648
1.40338
1.3771
1.33238
1.29428
1.28042
1.28142
1.29185
1.34047
1.40193
1.46939
1.52702
1.58859
1.63109
1.67238
1.71572
1.75538
1.78673
1.81852
1.85006
1.92101
1.39725
1.37436
1.33525
1.30169
1.28203
1.27068
1.27219
1.31479
1.36567
1.43133
1.48518
1.54185
1.5896
1.62566
1.6774
1.71975
1.75895
1.78299
1.87526
2.0685
1.38851
1.37005
1.33725
1.3043
1.27969
1.26451
1.26283
1.28598
1.32365
1.38627
1.44368
1.49098
1.54612
1.58744
1.64209
1.68871
1.73058
1.76172
1.91006
2.2034
1.38029
1.36484
1.336
1.30459
1.27939
1.26545
1.26447
1.28158
1.30609
1.35326
1.41482
1.46376
1.51674
1.55952
1.60821
1.65895
1.69348
1.74851
1.96476
2.30086
1.37796
1.36494
1.33516
1.30512
1.28125
1.26884
1.26847
1.28008
1.29662
1.33334
1.38605
1.43555
1.48776
1.53576
1.57292
1.62604
1.65631
1.7439
2.00422
2.34592
1.3643
1.35327
1.32895
1.30318
1.28079
1.26938
1.26891
1.27013
1.28007
1.31314
1.35698
1.40586
1.44811
1.50243
1.54532
1.58878
1.63929
1.761
2.04539
2.36675
1.32839
1.31827
1.31443
1.29962
1.28036
1.27022
1.2664
1.26395
1.26948
1.29487
1.32323
1.37556
1.42026
1.46267
1.5179
1.56005
1.61617
1.81586
2.0669
2.34673
1.27615
1.27043
1.28475
1.28812
1.27935
1.2707
1.26644
1.26325
1.26814
1.28839
1.30532
1.34518
1.39792
1.43759
1.48371
1.53411
1.62166
1.89489
2.06724
2.31038
1.21432
1.21378
1.24015
1.26421
1.2736
1.26927
1.26527
1.26057
1.26446
1.27755
1.28919
1.31476
1.36563
1.41271
1.44537
1.49871
1.66131
1.96878
2.06569
2.25541
1.17053
1.16205
1.19095
1.22985
1.25873
1.26532
1.26298
1.26065
1.26073
1.26627
1.2734
1.29648
1.32898
1.37806
1.4185
1.49789
1.75098
2.02247
2.0454
2.18068
1.15196
1.11549
1.14488
1.19193
1.23413
1.25735
1.26133
1.26151
1.25964
1.25928
1.25905
1.27804
1.3018
1.34198
1.39093
1.53753
1.84388
2.02738
2.01684
2.09157
1.17404
1.11635
1.11001
1.15208
1.20164
1.24031
1.25767
1.25965
1.25629
1.25152
1.24889
1.26169
1.27493
1.30686
1.39859
1.64248
1.90752
2.00787
1.98049
2.00167
1.20677
1.13675
1.11209
1.12149
1.16248
1.21291
1.24503
1.25471
1.2503
1.24356
1.23967
1.24572
1.25456
1.30789
1.46858
1.74392
1.89764
1.9708
1.9284
1.91525
1.24525
1.16936
1.11952
1.11547
1.12828
1.17508
1.21807
1.24226
1.24577
1.24032
1.23616
1.23698
1.24772
1.34794
1.59817
1.81307
1.86961
1.91609
1.87193
1.84919
1.30152
1.23186
1.1801
1.13539
1.12766
1.13985
1.1707
1.20726
1.22825
1.23447
1.24047
1.27124
1.38121
1.56268
1.71138
1.78668
1.79114
1.80871
1.77712
1.75488
)
;

boundaryField
{
    inlet
    {
        type            fixedValue;
        value           uniform 1;
    }
    outlet
    {
        type            inletOutlet;
        inletValue      uniform 1;
        value           nonuniform List<scalar> 
35
(
1.30134
1.23169
1.18007
1.13543
1.12767
1.13988
1.17066
1.20721
1.22819
1.23441
1.24027
1.27066
1.38007
1.56157
1.71078
1.78653
1.7912
1.80885
1.7772
1.75497
1.44244
1.6024
1.64689
1.50436
1.11645
0.70803
0.690653
0.748525
0.821089
0.897037
0.978368
1.0229
1.02654
1.01703
1.00421
)
;
    }
    airfoil
    {
        type            zeroGradient;
    }
    top
    {
        type            symmetryPlane;
    }
    bottom
    {
        type            symmetryPlane;
    }
    defaultFaces
    {
        type            empty;
    }
}


// ************************************************************************* //
