/*--------------------------------*- C++ -*----------------------------------*\
  =========                 |
  \\      /  F ield         | OpenFOAM: The Open Source CFD Toolbox
   \\    /   O peration     | Website:  https://openfoam.org
    \\  /    A nd           | Version:  7
     \\/     M anipulation  |
\*---------------------------------------------------------------------------*/
FoamFile
{
    version     2.0;
    format      ascii;
    class       volVectorField;
    location    "1.2";
    object      U;
}
// * * * * * * * * * * * * * * * * * * * * * * * * * * * * * * * * * * * * * //

dimensions      [0 1 -1 0 0 0 0];

internalField   nonuniform List<vector> 
11200
(
(2.08997 -0.531387 0)
(2.12071 -0.201551 0)
(2.1668 -0.0341505 0)
(2.19823 0.0373808 0)
(2.22475 0.0603591 0)
(2.25963 0.0448624 0)
(2.28261 -0.0611163 0)
(2.32907 -0.0664468 0)
(2.37813 -0.0992238 0)
(2.42814 -0.0732586 0)
(2.46045 0.0216057 0)
(2.51583 0.0595654 0)
(2.53737 0.0321692 0)
(2.50353 -0.0697141 0)
(2.51167 -0.102586 0)
(2.59296 -0.080586 0)
(2.68443 -0.0440012 0)
(2.78635 0.071695 0)
(2.81529 0.152843 0)
(2.82781 0.174953 0)
(2.82812 0.174667 0)
(2.82072 0.181905 0)
(2.80673 0.186164 0)
(2.79811 0.177507 0)
(2.78954 0.166442 0)
(2.78809 0.15245 0)
(2.79103 0.146152 0)
(2.79578 0.153901 0)
(2.79183 0.148294 0)
(2.77886 0.115109 0)
(2.1556 -1.13579 0)
(2.16375 -1.14658 0)
(2.1468 -1.08106 0)
(2.1183 -0.941863 0)
(2.0903 -0.783597 0)
(2.09234 -0.624157 0)
(2.13241 -0.585503 0)
(2.12878 -0.382978 0)
(2.17084 -0.224545 0)
(2.20466 -0.155182 0)
(2.20151 -0.0510556 0)
(2.23389 0.0374879 0)
(2.24881 -0.0090939 0)
(2.24399 -0.0889824 0)
(2.25919 -0.122813 0)
(2.29528 -0.137065 0)
(2.36404 -0.0919976 0)
(2.48027 -0.0187137 0)
(2.56253 0.0933363 0)
(2.60117 0.169059 0)
(2.6227 0.202676 0)
(2.62796 0.196003 0)
(2.62351 0.184809 0)
(2.6235 0.167837 0)
(2.62752 0.140174 0)
(2.64095 0.132587 0)
(2.65078 0.129786 0)
(2.66474 0.131553 0)
(2.67608 0.133053 0)
(2.7044 0.110249 0)
(2.33538 -1.15046 0)
(2.35408 -1.2119 0)
(2.33906 -1.2997 0)
(2.35635 -1.35422 0)
(2.37858 -1.44032 0)
(2.41348 -1.53975 0)
(2.45286 -1.61775 0)
(2.49136 -1.5292 0)
(2.49211 -1.38002 0)
(2.46185 -1.2123 0)
(2.39002 -0.934664 0)
(2.28269 -0.521428 0)
(2.21877 -0.190577 0)
(2.13044 -0.159713 0)
(2.06591 -0.191783 0)
(2.09166 -0.193332 0)
(2.12618 -0.144612 0)
(2.1984 -0.0534897 0)
(2.259 0.0788925 0)
(2.2849 0.162577 0)
(2.30146 0.164314 0)
(2.31997 0.137435 0)
(2.32763 0.13305 0)
(2.34465 0.1361 0)
(2.37087 0.140182 0)
(2.40919 0.147922 0)
(2.44472 0.152952 0)
(2.48328 0.156978 0)
(2.52658 0.150857 0)
(2.64581 0.0964818 0)
(2.53938 -1.20946 0)
(2.56634 -1.22783 0)
(2.58331 -1.27846 0)
(2.59746 -1.35375 0)
(2.59457 -1.47236 0)
(2.58451 -1.61798 0)
(2.60732 -1.71614 0)
(2.61288 -1.67463 0)
(2.61735 -1.60165 0)
(2.62234 -1.55718 0)
(2.62631 -1.51878 0)
(2.59545 -1.42828 0)
(2.51992 -1.1972 0)
(2.38492 -0.932306 0)
(2.10627 -0.538889 0)
(1.94821 -0.213401 0)
(2.00966 -0.093744 0)
(2.01722 -0.054921 0)
(2.02723 0.0533948 0)
(2.00318 0.172416 0)
(1.98949 0.194033 0)
(2.01121 0.185236 0)
(2.04066 0.175945 0)
(2.08753 0.164913 0)
(2.15026 0.150875 0)
(2.2222 0.145833 0)
(2.29774 0.128137 0)
(2.38137 0.12761 0)
(2.45658 0.119507 0)
(2.62111 0.0689398 0)
(2.78953 -1.28308 0)
(2.80483 -1.285 0)
(2.82123 -1.29632 0)
(2.75675 -1.38435 0)
(2.71554 -1.48897 0)
(2.69587 -1.59505 0)
(2.68647 -1.62431 0)
(2.66783 -1.60552 0)
(2.66828 -1.57288 0)
(2.65849 -1.53756 0)
(2.64749 -1.50808 0)
(2.63858 -1.48726 0)
(2.62 -1.46188 0)
(2.61365 -1.43377 0)
(2.54443 -1.39368 0)
(2.15106 -0.687549 0)
(1.95782 -0.170505 0)
(1.94443 -0.0227297 0)
(1.93171 0.0364787 0)
(1.88866 0.0931167 0)
(1.85948 0.116358 0)
(1.87994 0.120477 0)
(1.92196 0.120945 0)
(1.99428 0.116192 0)
(2.07803 0.105588 0)
(2.16246 0.111883 0)
(2.2501 0.0968296 0)
(2.35213 0.0975446 0)
(2.44554 0.0861279 0)
(2.62484 0.0475421 0)
(2.97889 -1.32953 0)
(2.97673 -1.3278 0)
(2.96459 -1.3152 0)
(2.89687 -1.36762 0)
(2.81887 -1.45851 0)
(2.74927 -1.5542 0)
(2.70428 -1.59297 0)
(2.69097 -1.57487 0)
(2.68589 -1.55759 0)
(2.67852 -1.54403 0)
(2.6622 -1.50792 0)
(2.65359 -1.49443 0)
(2.63157 -1.46743 0)
(2.61259 -1.42937 0)
(2.61315 -1.39993 0)
(2.56532 -1.36098 0)
(2.2812 -0.711129 0)
(2.05574 -0.164303 0)
(2.0003 -0.0649693 0)
(1.93185 0.0159917 0)
(1.88622 0.0725261 0)
(1.91014 0.0859308 0)
(1.94264 0.0774242 0)
(2.00865 0.0571683 0)
(2.08918 0.0370523 0)
(2.17389 0.0460628 0)
(2.25934 0.0454269 0)
(2.35673 0.0629016 0)
(2.45951 0.0567508 0)
(2.63627 0.0209726 0)
(3.07376 -1.38781 0)
(3.05363 -1.37755 0)
(3.03904 -1.35974 0)
(2.99021 -1.36587 0)
(2.89544 -1.41493 0)
(2.8018 -1.50887 0)
(2.72909 -1.56674 0)
(2.70494 -1.56703 0)
(2.69979 -1.5637 0)
(2.68835 -1.54655 0)
(2.67021 -1.50923 0)
(2.66109 -1.4941 0)
(2.63834 -1.46535 0)
(2.6249 -1.43699 0)
(2.62786 -1.3944 0)
(2.62439 -1.37762 0)
(2.60748 -1.35383 0)
(2.4261 -0.954204 0)
(2.25548 -0.475605 0)
(2.08654 -0.173489 0)
(2.00773 0.00475253 0)
(2.00959 0.0494831 0)
(2.03016 0.0634677 0)
(2.08375 0.0655901 0)
(2.1562 0.0608876 0)
(2.23161 0.0697174 0)
(2.31026 0.0517392 0)
(2.40175 0.057768 0)
(2.49512 0.0255826 0)
(2.64626 -0.00472905 0)
(3.11888 -1.54348 0)
(3.11361 -1.5043 0)
(3.10355 -1.46645 0)
(3.11379 -1.40289 0)
(3.06307 -1.41121 0)
(2.91799 -1.5047 0)
(2.86285 -1.5844 0)
(2.76789 -1.60106 0)
(2.72845 -1.58435 0)
(2.70437 -1.55367 0)
(2.68606 -1.51541 0)
(2.66794 -1.49804 0)
(2.64656 -1.46001 0)
(2.64334 -1.41588 0)
(2.65168 -1.38948 0)
(2.64084 -1.37023 0)
(2.62897 -1.36269 0)
(2.59096 -1.33523 0)
(2.53518 -1.21876 0)
(2.39093 -0.893453 0)
(2.27216 -0.47142 0)
(2.20854 -0.228745 0)
(2.18922 -0.0818382 0)
(2.20084 -0.00406702 0)
(2.23844 0.0125522 0)
(2.29588 0.0263551 0)
(2.36735 0.0163602 0)
(2.44582 0.0174286 0)
(2.52229 -0.0133305 0)
(2.65073 -0.027164 0)
(3.12358 -1.64462 0)
(3.11883 -1.61211 0)
(3.10437 -1.59594 0)
(3.07164 -1.58826 0)
(3.04764 -1.54854 0)
(2.94918 -1.589 0)
(2.84792 -1.66086 0)
(2.79991 -1.65422 0)
(2.72553 -1.5887 0)
(2.70337 -1.55658 0)
(2.69883 -1.51879 0)
(2.6777 -1.49569 0)
(2.66203 -1.45194 0)
(2.67031 -1.39891 0)
(2.67124 -1.36658 0)
(2.65795 -1.34299 0)
(2.63841 -1.32442 0)
(2.62284 -1.29036 0)
(2.60726 -1.28532 0)
(2.55942 -1.27093 0)
(2.47572 -1.07807 0)
(2.41316 -0.860885 0)
(2.36131 -0.570851 0)
(2.34856 -0.338503 0)
(2.35202 -0.190687 0)
(2.37367 -0.101831 0)
(2.42458 -0.0723404 0)
(2.4837 -0.0483871 0)
(2.54694 -0.0465136 0)
(2.65366 -0.0539359 0)
(3.13251 -1.68771 0)
(3.12466 -1.68238 0)
(3.1155 -1.65715 0)
(3.08244 -1.63773 0)
(3.05707 -1.58814 0)
(3.01476 -1.56047 0)
(2.88677 -1.62282 0)
(2.82702 -1.65687 0)
(2.78869 -1.58547 0)
(2.74156 -1.52289 0)
(2.73291 -1.47537 0)
(2.71729 -1.45854 0)
(2.70531 -1.44131 0)
(2.70967 -1.38507 0)
(2.69317 -1.33306 0)
(2.68098 -1.31879 0)
(2.66376 -1.29582 0)
(2.65033 -1.26008 0)
(2.63616 -1.20613 0)
(2.60048 -1.16168 0)
(2.54853 -1.11802 0)
(2.48788 -1.04387 0)
(2.47362 -1.01025 0)
(2.44618 -0.891256 0)
(2.45546 -0.680328 0)
(2.46611 -0.441948 0)
(2.49352 -0.273482 0)
(2.5262 -0.148903 0)
(2.57476 -0.14433 0)
(2.68322 -0.125653 0)
(3.13701 -1.67982 0)
(3.12793 -1.68213 0)
(3.11192 -1.68148 0)
(3.0958 -1.6606 0)
(3.07382 -1.626 0)
(3.04344 -1.56095 0)
(2.96458 -1.54007 0)
(2.87234 -1.59381 0)
(2.84702 -1.58064 0)
(2.79206 -1.5003 0)
(2.77881 -1.43795 0)
(2.77935 -1.40048 0)
(2.76609 -1.3906 0)
(2.75988 -1.3589 0)
(2.73267 -1.28692 0)
(2.71524 -1.26283 0)
(2.69849 -1.24191 0)
(2.67874 -1.19558 0)
(2.65826 -1.14627 0)
(2.6341 -1.11346 0)
(2.59394 -1.07151 0)
(2.53751 -0.993922 0)
(2.51813 -0.951066 0)
(2.51523 -0.91078 0)
(2.5229 -0.864059 0)
(2.54752 -0.800998 0)
(2.56475 -0.679705 0)
(2.59567 -0.498566 0)
(2.62328 -0.368859 0)
(2.69174 -0.204186 0)
(3.18696 -1.53719 0)
(3.17606 -1.51025 0)
(3.16762 -1.4766 0)
(3.13351 -1.49441 0)
(3.1241 -1.46102 0)
(3.10128 -1.44013 0)
(3.03777 -1.4724 0)
(2.97787 -1.50284 0)
(2.90882 -1.45902 0)
(2.85485 -1.36987 0)
(2.83712 -1.31923 0)
(2.82284 -1.29084 0)
(2.80806 -1.28856 0)
(2.7997 -1.26074 0)
(2.77725 -1.19687 0)
(2.75511 -1.17483 0)
(2.73194 -1.1658 0)
(2.71182 -1.13483 0)
(2.68891 -1.08655 0)
(2.66475 -1.06806 0)
(2.62968 -1.03792 0)
(2.56968 -0.971992 0)
(2.54593 -0.921555 0)
(2.53593 -0.886422 0)
(2.54977 -0.832894 0)
(2.58493 -0.774569 0)
(2.62751 -0.721175 0)
(2.65655 -0.629742 0)
(2.67906 -0.56268 0)
(2.71483 -0.354477 0)
(3.19587 -1.4668 0)
(3.17056 -1.49071 0)
(3.16153 -1.46808 0)
(3.15057 -1.45253 0)
(3.12159 -1.47449 0)
(3.10243 -1.45918 0)
(3.08217 -1.39252 0)
(3.02577 -1.33904 0)
(2.93997 -1.35091 0)
(2.89789 -1.3239 0)
(2.88212 -1.27236 0)
(2.86323 -1.2586 0)
(2.84487 -1.26214 0)
(2.83338 -1.22919 0)
(2.79843 -1.16167 0)
(2.77976 -1.13431 0)
(2.76328 -1.11868 0)
(2.74567 -1.07625 0)
(2.7272 -1.02689 0)
(2.7105 -0.996232 0)
(2.66972 -0.962417 0)
(2.61195 -0.896536 0)
(2.58421 -0.844633 0)
(2.57494 -0.815812 0)
(2.58248 -0.761696 0)
(2.61509 -0.707756 0)
(2.65577 -0.667057 0)
(2.68964 -0.595968 0)
(2.72203 -0.528536 0)
(2.77041 -0.360147 0)
(3.21881 -1.32833 0)
(3.20485 -1.32806 0)
(3.19146 -1.3283 0)
(3.18397 -1.31243 0)
(3.17015 -1.29957 0)
(3.14164 -1.30111 0)
(3.10331 -1.29997 0)
(3.06538 -1.2789 0)
(3.00745 -1.29045 0)
(2.96115 -1.29712 0)
(2.92757 -1.23729 0)
(2.91518 -1.18704 0)
(2.89489 -1.1788 0)
(2.87767 -1.16213 0)
(2.83934 -1.09559 0)
(2.81809 -1.06305 0)
(2.79904 -1.04774 0)
(2.78258 -1.01274 0)
(2.76257 -0.955726 0)
(2.7407 -0.921034 0)
(2.71132 -0.896878 0)
(2.65589 -0.841667 0)
(2.62389 -0.775759 0)
(2.61421 -0.748549 0)
(2.61856 -0.70428 0)
(2.64415 -0.634977 0)
(2.67665 -0.565393 0)
(2.71266 -0.509464 0)
(2.75238 -0.498627 0)
(2.81115 -0.36661 0)
(3.2345 -1.20753 0)
(3.22308 -1.20505 0)
(3.20641 -1.21471 0)
(3.19927 -1.19914 0)
(3.18018 -1.19904 0)
(3.15791 -1.22587 0)
(3.1321 -1.20221 0)
(3.10818 -1.14869 0)
(3.06473 -1.1172 0)
(3.01106 -1.1095 0)
(2.97224 -1.06553 0)
(2.94941 -1.02525 0)
(2.9291 -1.0221 0)
(2.91404 -1.00994 0)
(2.88168 -0.962551 0)
(2.85818 -0.937606 0)
(2.83644 -0.927963 0)
(2.81582 -0.90755 0)
(2.79907 -0.865674 0)
(2.77238 -0.838193 0)
(2.74833 -0.818583 0)
(2.69785 -0.775757 0)
(2.66271 -0.729866 0)
(2.65032 -0.700479 0)
(2.65145 -0.643029 0)
(2.67781 -0.59121 0)
(2.715 -0.541107 0)
(2.75155 -0.464912 0)
(2.7838 -0.393484 0)
(2.83926 -0.270675 0)
(3.24361 -1.0781 0)
(3.23568 -1.0704 0)
(3.22563 -1.06331 0)
(3.20722 -1.07392 0)
(3.19315 -1.07309 0)
(3.17342 -1.0707 0)
(3.15048 -1.06395 0)
(3.12914 -1.04173 0)
(3.09388 -1.03757 0)
(3.0476 -1.05882 0)
(3.0085 -1.026 0)
(2.98056 -0.985428 0)
(2.95792 -0.986412 0)
(2.94418 -0.973494 0)
(2.91154 -0.925194 0)
(2.88977 -0.898985 0)
(2.87087 -0.886523 0)
(2.85361 -0.861185 0)
(2.83392 -0.813581 0)
(2.81215 -0.781278 0)
(2.787 -0.762221 0)
(2.73659 -0.720691 0)
(2.7044 -0.66166 0)
(2.69249 -0.6376 0)
(2.69078 -0.596166 0)
(2.71606 -0.535422 0)
(2.75271 -0.46712 0)
(2.78917 -0.399338 0)
(2.82358 -0.345512 0)
(2.87958 -0.219702 0)
(3.24614 -0.940672 0)
(3.24128 -0.938423 0)
(3.2323 -0.934295 0)
(3.21362 -0.946071 0)
(3.19842 -0.942997 0)
(3.18496 -0.937256 0)
(3.16351 -0.924723 0)
(3.14857 -0.913068 0)
(3.12899 -0.905761 0)
(3.09717 -0.906972 0)
(3.05709 -0.881682 0)
(3.02069 -0.846117 0)
(2.99245 -0.840637 0)
(2.97091 -0.828199 0)
(2.94689 -0.794978 0)
(2.92629 -0.772392 0)
(2.90679 -0.761435 0)
(2.88885 -0.740678 0)
(2.87036 -0.6986 0)
(2.84414 -0.671134 0)
(2.82243 -0.654498 0)
(2.77741 -0.618117 0)
(2.74666 -0.574459 0)
(2.73345 -0.54704 0)
(2.72964 -0.491378 0)
(2.75197 -0.431264 0)
(2.78842 -0.37412 0)
(2.82576 -0.310519 0)
(2.86058 -0.250923 0)
(2.91602 -0.137987 0)
(3.23663 -0.78132 0)
(3.23546 -0.78301 0)
(3.23009 -0.788293 0)
(3.21747 -0.798234 0)
(3.20253 -0.805189 0)
(3.18848 -0.801491 0)
(3.16841 -0.793702 0)
(3.15722 -0.787573 0)
(3.14268 -0.783765 0)
(3.11956 -0.783786 0)
(3.0892 -0.76867 0)
(3.05571 -0.755531 0)
(3.02597 -0.757022 0)
(3.00045 -0.741371 0)
(2.9782 -0.715873 0)
(2.9604 -0.698548 0)
(2.94357 -0.686435 0)
(2.92769 -0.663361 0)
(2.90729 -0.621813 0)
(2.882 -0.59744 0)
(2.85907 -0.582438 0)
(2.81641 -0.549765 0)
(2.79106 -0.508673 0)
(2.77776 -0.482469 0)
(2.77465 -0.435682 0)
(2.79817 -0.377072 0)
(2.83472 -0.31131 0)
(2.8714 -0.24173 0)
(2.90552 -0.174501 0)
(2.95346 -0.0756573 0)
(3.21762 -0.621186 0)
(3.21632 -0.635649 0)
(3.21259 -0.640781 0)
(3.20956 -0.642089 0)
(3.20014 -0.646703 0)
(3.18706 -0.654975 0)
(3.17456 -0.662562 0)
(3.15609 -0.660051 0)
(3.14489 -0.655432 0)
(3.13187 -0.650567 0)
(3.11225 -0.642299 0)
(3.08653 -0.634907 0)
(3.05964 -0.630384 0)
(3.03287 -0.615479 0)
(3.00973 -0.596149 0)
(2.99194 -0.583651 0)
(2.97659 -0.572966 0)
(2.96197 -0.54835 0)
(2.93977 -0.510882 0)
(2.91578 -0.493607 0)
(2.89244 -0.479205 0)
(2.8524 -0.445889 0)
(2.83535 -0.417176 0)
(2.82009 -0.385843 0)
(2.81912 -0.335526 0)
(2.84364 -0.276414 0)
(2.87966 -0.214103 0)
(2.91543 -0.150387 0)
(2.94793 -0.089981 0)
(2.98194 -0.027109 0)
(3.18621 -0.473711 0)
(3.18674 -0.475882 0)
(3.19266 -0.486908 0)
(3.18908 -0.495798 0)
(3.18145 -0.500642 0)
(3.17742 -0.49954 0)
(3.16603 -0.501401 0)
(3.15143 -0.515354 0)
(3.14277 -0.523143 0)
(3.13383 -0.520787 0)
(3.12249 -0.514163 0)
(3.10675 -0.507024 0)
(3.08611 -0.500598 0)
(3.06302 -0.489735 0)
(3.04206 -0.477067 0)
(3.0251 -0.468852 0)
(3.00999 -0.457989 0)
(2.9942 -0.431496 0)
(2.96978 -0.403917 0)
(2.94944 -0.393223 0)
(2.92263 -0.377972 0)
(2.89109 -0.348166 0)
(2.87775 -0.32806 0)
(2.86293 -0.292731 0)
(2.86762 -0.243808 0)
(2.89424 -0.186122 0)
(2.92787 -0.126128 0)
(2.9583 -0.0710889 0)
(2.98181 -0.0292456 0)
(2.99646 -0.00489973 0)
(3.16658 -0.321975 0)
(3.16371 -0.321384 0)
(3.16115 -0.321049 0)
(3.16037 -0.326013 0)
(3.16019 -0.329402 0)
(3.15949 -0.335108 0)
(3.15187 -0.342947 0)
(3.1454 -0.348443 0)
(3.13906 -0.349755 0)
(3.12859 -0.356201 0)
(3.1199 -0.36038 0)
(3.11094 -0.359565 0)
(3.09945 -0.355972 0)
(3.08496 -0.348709 0)
(3.06888 -0.341221 0)
(3.0533 -0.335502 0)
(3.039 -0.322684 0)
(3.0183 -0.301757 0)
(2.99696 -0.29237 0)
(2.97815 -0.283536 0)
(2.94686 -0.26537 0)
(2.92979 -0.24661 0)
(2.91445 -0.226303 0)
(2.90546 -0.190435 0)
(2.917 -0.144136 0)
(2.94322 -0.0935623 0)
(2.96966 -0.0488516 0)
(2.98824 -0.0182531 0)
(2.99729 -0.00399292 0)
(2.99977 -0.000296194 0)
(3.14453 -0.103848 0)
(3.14365 -0.121938 0)
(3.13536 -0.132935 0)
(3.13223 -0.134952 0)
(3.1314 -0.133142 0)
(3.13288 -0.134542 0)
(3.13128 -0.143995 0)
(3.12438 -0.153229 0)
(3.12209 -0.158506 0)
(3.11517 -0.166512 0)
(3.1095 -0.172387 0)
(3.1047 -0.182353 0)
(3.09512 -0.188427 0)
(3.08591 -0.188152 0)
(3.08 -0.187389 0)
(3.06806 -0.186158 0)
(3.05076 -0.183385 0)
(3.03503 -0.181111 0)
(3.01946 -0.177359 0)
(2.99241 -0.168985 0)
(2.96991 -0.155886 0)
(2.95983 -0.147754 0)
(2.9477 -0.12616 0)
(2.94779 -0.0949042 0)
(2.96239 -0.0590779 0)
(2.98123 -0.027777 0)
(2.9939 -0.00887036 0)
(2.99885 -0.00166132 0)
(2.99989 -0.000153726 0)
(3 -4.99853e-06 0)
(3.10191 0.0652211 0)
(3.09957 0.0643373 0)
(3.0964 0.060864 0)
(3.09939 0.0466555 0)
(3.0976 0.0377222 0)
(3.09495 0.0366219 0)
(3.09572 0.0284633 0)
(3.09518 0.01568 0)
(3.09106 0.00780923 0)
(3.08678 0.00171519 0)
(3.08367 -0.00750692 0)
(3.07998 -0.0195744 0)
(3.07444 -0.0300115 0)
(3.06911 -0.0386011 0)
(3.06462 -0.0480866 0)
(3.05817 -0.0583407 0)
(3.04814 -0.0674543 0)
(3.03531 -0.0734392 0)
(3.01817 -0.0758279 0)
(2.99756 -0.0734835 0)
(2.98813 -0.0691649 0)
(2.98157 -0.0624731 0)
(2.97721 -0.047207 0)
(2.98172 -0.0284602 0)
(2.99106 -0.0121134 0)
(2.99759 -0.00317433 0)
(2.99966 -0.000466607 0)
(2.99998 -3.71393e-05 0)
(3 -1.63591e-06 0)
(3 -3.3607e-08 0)
(3.06431 0.116353 0)
(3.06598 0.107161 0)
(3.06562 0.104738 0)
(3.06558 0.102217 0)
(3.06708 0.0946444 0)
(3.06715 0.0868299 0)
(3.06708 0.0786711 0)
(3.06607 0.0729072 0)
(3.06546 0.0652994 0)
(3.06473 0.0548873 0)
(3.06196 0.0466313 0)
(3.05822 0.0383081 0)
(3.05364 0.0278902 0)
(3.0475 0.0185618 0)
(3.04068 0.011297 0)
(3.03396 0.00404539 0)
(3.02747 -0.00423602 0)
(3.0202 -0.0125767 0)
(3.00998 -0.0179833 0)
(2.99995 -0.0186219 0)
(2.99721 -0.0173234 0)
(2.9951 -0.0144371 0)
(2.99486 -0.00888641 0)
(2.99721 -0.00363329 0)
(2.9993 -0.000820208 0)
(2.99993 -9.2135e-05 0)
(3 -5.82846e-06 0)
(3 -2.57533e-07 0)
(3 -8.40231e-09 0)
(3 -1.09713e-10 0)
(3.03762 0.103344 0)
(3.03738 0.101266 0)
(3.03855 0.0948819 0)
(3.03879 0.0893816 0)
(3.0391 0.0839545 0)
(3.03946 0.0781858 0)
(3.03903 0.0739336 0)
(3.03912 0.0671984 0)
(3.03883 0.0600797 0)
(3.03757 0.0545985 0)
(3.03596 0.0473729 0)
(3.03375 0.0385914 0)
(3.03047 0.0311558 0)
(3.02643 0.0250985 0)
(3.02211 0.0185388 0)
(3.01771 0.0110009 0)
(3.01264 0.00422928 0)
(3.0066 0.00046239 0)
(3.00223 -0.00141293 0)
(3.00008 -0.00189221 0)
(2.99971 -0.00173788 0)
(2.9995 -0.00131669 0)
(2.99959 -0.000612446 0)
(2.99987 -0.000146464 0)
(2.99999 -1.49521e-05 0)
(3 -7.40596e-07 0)
(3 -2.87615e-08 0)
(3 -1.06918e-09 0)
(3 -1.93496e-11 0)
(3 1.47351e-11 0)
(3.00635 0.0533716 0)
(3.00696 0.0514841 0)
(3.00746 0.0493839 0)
(3.00788 0.0469559 0)
(3.00831 0.0442478 0)
(3.00874 0.0414411 0)
(3.00924 0.0380547 0)
(3.00963 0.0342306 0)
(3.00972 0.0304069 0)
(3.00961 0.0263449 0)
(3.00932 0.0220314 0)
(3.00866 0.0178545 0)
(3.00769 0.0138448 0)
(3.00654 0.00993586 0)
(3.00521 0.0064206 0)
(3.00367 0.00369783 0)
(3.00209 0.00182808 0)
(3.00105 0.000568021 0)
(3.00028 1.7283e-05 0)
(3.00001 -5.989e-05 0)
(2.99999 -5.5384e-05 0)
(2.99998 -3.90553e-05 0)
(2.99999 -1.40106e-05 0)
(3 -2.03914e-06 0)
(3 -1.08009e-07 0)
(3 -3.1597e-09 0)
(3 -1.00763e-10 0)
(3 -9.66029e-13 0)
(3 4.50749e-12 0)
(3 4.18774e-12 0)
(3.00001 0.00822596 0)
(3.0001 0.00796713 0)
(3.00021 0.00764361 0)
(3.00034 0.00727148 0)
(3.00048 0.00683505 0)
(3.00062 0.00632418 0)
(3.00075 0.00573741 0)
(3.00084 0.00508096 0)
(3.00089 0.00438824 0)
(3.00089 0.0036775 0)
(3.00087 0.00295634 0)
(3.0008 0.00226048 0)
(3.00069 0.00161991 0)
(3.00054 0.00105817 0)
(3.00038 0.000615979 0)
(3.00022 0.000314295 0)
(3.00011 0.000129415 0)
(3.00004 3.34578e-05 0)
(3.00001 3.86647e-06 0)
(3 -6.8375e-07 0)
(3 -6.89984e-07 0)
(3 -4.6445e-07 0)
(3 -1.4236e-07 0)
(3 -1.53195e-08 0)
(3 -5.3754e-10 0)
(3 -1.10373e-11 0)
(3 1.85654e-13 0)
(3 9.87892e-13 0)
(3 1.04278e-12 0)
(3 3.44418e-13 0)
(3 0.000263269 0)
(3 0.000253203 0)
(3 0.000242787 0)
(3.00001 0.000230704 0)
(3.00001 0.000216144 0)
(3.00002 0.000198974 0)
(3.00002 0.000179152 0)
(3.00002 0.000156944 0)
(3.00003 0.000133165 0)
(3.00003 0.000108485 0)
(3.00002 8.37957e-05 0)
(3.00002 6.06595e-05 0)
(3.00002 4.04292e-05 0)
(3.00001 2.41296e-05 0)
(3.00001 1.2574e-05 0)
(3 5.54027e-06 0)
(3 1.86133e-06 0)
(3 3.84414e-07 0)
(3 3.01039e-08 0)
(3 -6.23359e-09 0)
(3 -6.1358e-09 0)
(3 -3.77021e-09 0)
(3 -9.70138e-10 0)
(3 -7.82636e-11 0)
(3 -1.99694e-12 0)
(3 3.21149e-14 0)
(3 1.71039e-13 0)
(3 1.72647e-13 0)
(3 7.50784e-14 0)
(3 8.7149e-15 0)
(3 2.10433e-06 0)
(3 2.09269e-06 0)
(3 2.03624e-06 0)
(3 1.95293e-06 0)
(3 1.8407e-06 0)
(3 1.70093e-06 0)
(3 1.53368e-06 0)
(3 1.34139e-06 0)
(3 1.13114e-06 0)
(3 9.10399e-07 0)
(3 6.90069e-07 0)
(3 4.86304e-07 0)
(3 3.13212e-07 0)
(3 1.79494e-07 0)
(3 8.82685e-08 0)
(3 3.52928e-08 0)
(3 1.00647e-08 0)
(3 1.25138e-09 0)
(3 -4.21607e-10 0)
(3 -4.41949e-10 0)
(3 -2.71822e-10 0)
(3 -7.25215e-11 0)
(3 -6.58155e-12 0)
(3 -2.19905e-13 0)
(3 1.27516e-15 0)
(3 2.02441e-14 0)
(3 2.04508e-14 0)
(3 1.2326e-14 0)
(3 4.66871e-15 0)
(3 1.86602e-15 0)
(3 1.39205e-08 0)
(3 1.22106e-08 0)
(3 1.09653e-08 0)
(3 1.00058e-08 0)
(3 9.24872e-09 0)
(3 8.46861e-09 0)
(3 7.53558e-09 0)
(3 6.52818e-09 0)
(3 5.41038e-09 0)
(3 4.22119e-09 0)
(3 3.09895e-09 0)
(3 2.07431e-09 0)
(3 1.16875e-09 0)
(3 4.55836e-10 0)
(3 -1.08723e-11 0)
(3 -2.45698e-10 0)
(3 -3.19343e-10 0)
(3 -3.03931e-10 0)
(3 -2.71151e-10 0)
(3 -1.5637e-10 0)
(3 -3.96377e-11 0)
(3 -3.0888e-12 0)
(3 -6.55098e-14 0)
(3 -1.11328e-15 0)
(3 1.63324e-15 0)
(3 2.90791e-15 0)
(3 3.0449e-16 0)
(3 1.48118e-15 0)
(3 2.34902e-15 0)
(3 3.65116e-15 0)
(3 4.178e-11 0)
(3 3.54587e-11 0)
(3 2.74804e-11 0)
(3 2.81398e-11 0)
(3 3.4257e-11 0)
(3 2.47657e-11 0)
(3 7.81202e-12 0)
(3 -2.21918e-13 0)
(3 -1.61334e-11 0)
(3 -3.70567e-11 0)
(3 -6.0951e-11 0)
(3 -8.75753e-11 0)
(3 -1.09649e-10 0)
(3 -1.25749e-10 0)
(3 -1.37783e-10 0)
(3 -1.43017e-10 0)
(3 -1.37522e-10 0)
(3 -1.12964e-10 0)
(3 -5.60342e-11 0)
(3 -1.38593e-11 0)
(3 -1.18174e-12 0)
(3 -2.77409e-14 0)
(3 4.52079e-16 0)
(3 4.44213e-17 0)
(3 1.10376e-15 0)
(3 1.39031e-15 0)
(3 2.50517e-15 0)
(3 3.3457e-15 0)
(3 3.88484e-15 0)
(3 5.29274e-15 0)
(3 -1.11433e-12 0)
(3 -1.29136e-12 0)
(3 -1.11766e-12 0)
(3 -2.41981e-12 0)
(3 -4.31468e-12 0)
(3 -4.67572e-12 0)
(3 -6.7548e-12 0)
(3 -1.17652e-11 0)
(3 -1.71609e-11 0)
(3 -2.251e-11 0)
(3 -2.78071e-11 0)
(3 -3.25177e-11 0)
(3 -3.5883e-11 0)
(3 -3.71151e-11 0)
(3 -3.6339e-11 0)
(3 -3.11278e-11 0)
(3 -1.84317e-11 0)
(3 -7.16116e-12 0)
(3 -1.55276e-12 0)
(3 -1.41371e-13 0)
(3 -3.02665e-15 0)
(3 1.03074e-15 0)
(3 1.33416e-15 0)
(3 1.09322e-15 0)
(3 -7.50836e-16 0)
(3 -6.30415e-16 0)
(3 1.45889e-15 0)
(3 -4.71915e-16 0)
(3 -1.33077e-15 0)
(3 -1.42768e-15 0)
(3 -2.2694e-13 0)
(3 -3.02168e-13 0)
(3 -4.28866e-13 0)
(3 -5.80836e-13 0)
(3 -6.64685e-13 0)
(3 -6.81522e-13 0)
(3 -8.29119e-13 0)
(3 -1.1407e-12 0)
(3 -1.47582e-12 0)
(3 -1.84018e-12 0)
(3 -2.19628e-12 0)
(3 -2.42433e-12 0)
(3 -2.42929e-12 0)
(3 -2.18978e-12 0)
(3 -1.5408e-12 0)
(3 -7.97437e-13 0)
(3 -2.80155e-13 0)
(3 -5.97982e-14 0)
(3 -7.57545e-15 0)
(3 -1.07277e-15 0)
(3 -8.68622e-16 0)
(3 3.47895e-16 0)
(3 8.43666e-16 0)
(3 8.89847e-16 0)
(3 -5.8238e-16 0)
(3 -1.11348e-15 0)
(3 -3.06074e-15 0)
(3 -3.43421e-15 0)
(3 -2.40799e-15 0)
(3 -2.84013e-15 0)
(3 -4.27464e-16 0)
(3 -4.60372e-16 0)
(3 -1.44033e-15 0)
(3 -2.79271e-15 0)
(3 -3.89587e-15 0)
(3 -3.82656e-15 0)
(3 -5.69944e-15 0)
(3 -9.79111e-15 0)
(3 -1.26823e-14 0)
(3 -1.8483e-14 0)
(3 -2.19211e-14 0)
(3 -2.18623e-14 0)
(3 -2.12958e-14 0)
(3 -1.70555e-14 0)
(3 -9.77488e-15 0)
(3 -6.34854e-15 0)
(3 -4.56684e-15 0)
(3 -2.43732e-15 0)
(3 -2.37454e-15 0)
(3 -7.9635e-16 0)
(3 2.47371e-16 0)
(3 1.73935e-15 0)
(3 4.07075e-15 0)
(3 3.51921e-15 0)
(3 1.47048e-15 0)
(3 -1.31985e-15 0)
(3 -2.6693e-15 0)
(3 -1.1672e-15 0)
(3 -7.35488e-16 0)
(3 -9.39973e-16 0)
(3 3.17262e-15 0)
(3 3.32485e-15 0)
(3 3.29039e-15 0)
(3 3.09886e-15 0)
(3 2.99811e-15 0)
(3 2.43621e-15 0)
(3 2.19679e-15 0)
(3 1.94005e-15 0)
(3 1.41375e-15 0)
(3 7.33131e-16 0)
(3 2.34542e-16 0)
(3 -5.20997e-16 0)
(3 -1.20012e-15 0)
(3 -1.61047e-15 0)
(3 -2.00293e-15 0)
(3 -2.22886e-15 0)
(3 -2.14569e-15 0)
(3 -1.80111e-15 0)
(3 -1.56319e-15 0)
(3 -7.8237e-16 0)
(3 2.51712e-16 0)
(3 1.00907e-15 0)
(3 3.70946e-15 0)
(3 2.36745e-15 0)
(3 1.81051e-16 0)
(3 -8.85814e-16 0)
(3 -9.01235e-16 0)
(3 -4.22988e-16 0)
(3 -8.22088e-16 0)
(3 -2.34317e-16 0)
(2.09127 -1.17258 0)
(2.14107 -1.09242 0)
(2.3082 -1.11801 0)
(2.51129 -1.19213 0)
(2.78047 -1.27 0)
(2.98175 -1.31662 0)
(3.09308 -1.41235 0)
(3.12843 -1.57587 0)
(3.13785 -1.6618 0)
(3.1462 -1.68983 0)
(3.13938 -1.68782 0)
(3.20256 -1.54382 0)
(3.21165 -1.47237 0)
(3.23027 -1.34771 0)
(3.24514 -1.22048 0)
(3.25176 -1.08382 0)
(3.25006 -0.936843 0)
(3.23805 -0.766748 0)
(3.2131 -0.60865 0)
(3.1913 -0.486104 0)
(3.17167 -0.3207 0)
(3.13517 -0.0919873 0)
(3.10096 0.0787714 0)
(3.06171 0.125986 0)
(3.03597 0.108692 0)
(3.00529 0.0547833 0)
(2.99993 0.00842766 0)
(2.99999 0.000284619 0)
(3 2.99934e-06 0)
(3 1.4301e-08 0)
(3 7.76221e-11 0)
(3 -2.45624e-13 0)
(3 -1.55892e-13 0)
(3 3.8805e-16 0)
(3 3.04913e-15 0)
(2.11594 -1.11295 0)
(2.19943 -1.07664 0)
(2.38138 -1.11654 0)
(2.60271 -1.18159 0)
(2.87384 -1.26803 0)
(3.01786 -1.36594 0)
(3.11594 -1.57398 0)
(3.13612 -1.70287 0)
(3.14378 -1.70952 0)
(3.15521 -1.71038 0)
(3.17352 -1.63643 0)
(3.22261 -1.52993 0)
(3.24032 -1.44092 0)
(3.25338 -1.31876 0)
(3.26408 -1.18105 0)
(3.26339 -1.03137 0)
(3.24895 -0.860338 0)
(3.23148 -0.719168 0)
(3.21582 -0.611651 0)
(3.19891 -0.471504 0)
(3.173 -0.265118 0)
(3.13667 -0.0567004 0)
(3.09397 0.105422 0)
(3.05827 0.136122 0)
(3.02962 0.116408 0)
(3.00289 0.0539236 0)
(2.9997 0.00701116 0)
(2.99999 0.000186582 0)
(3 1.54547e-06 0)
(3 7.57626e-09 0)
(3 2.77708e-11 0)
(3 -8.88241e-14 0)
(3 -7.89177e-14 0)
(3 1.44153e-15 0)
(3 2.48718e-15 0)
(2.18314 -1.15698 0)
(2.26143 -1.10901 0)
(2.41913 -1.13356 0)
(2.68401 -1.22987 0)
(2.88515 -1.29192 0)
(3.04052 -1.48515 0)
(3.13799 -1.72596 0)
(3.13359 -1.70899 0)
(3.14965 -1.69895 0)
(3.16087 -1.70227 0)
(3.20919 -1.60347 0)
(3.2277 -1.53152 0)
(3.25404 -1.40766 0)
(3.26964 -1.28666 0)
(3.27285 -1.15194 0)
(3.263 -1.00878 0)
(3.24899 -0.872563 0)
(3.23481 -0.751232 0)
(3.22273 -0.613757 0)
(3.20799 -0.414807 0)
(3.16562 -0.214491 0)
(3.13238 -0.0278589 0)
(3.08597 0.129091 0)
(3.0535 0.147514 0)
(3.0247 0.12098 0)
(3.00103 0.0519344 0)
(2.99963 0.00600944 0)
(2.99999 0.000142283 0)
(3 1.10302e-06 0)
(3 5.33523e-09 0)
(3 1.9897e-11 0)
(3 -2.72517e-14 0)
(3 -3.56442e-14 0)
(3 1.379e-15 0)
(3 1.31377e-15 0)
(2.25389 -1.19366 0)
(2.3165 -1.14706 0)
(2.48926 -1.18812 0)
(2.73423 -1.2816 0)
(2.94036 -1.41483 0)
(3.10464 -1.62511 0)
(3.14416 -1.67248 0)
(3.13394 -1.69385 0)
(3.15291 -1.69289 0)
(3.15991 -1.69523 0)
(3.20429 -1.59483 0)
(3.22211 -1.52128 0)
(3.25298 -1.37844 0)
(3.26914 -1.26311 0)
(3.27128 -1.13588 0)
(3.26384 -1.00876 0)
(3.25392 -0.880519 0)
(3.25178 -0.741099 0)
(3.24761 -0.537312 0)
(3.1949 -0.342423 0)
(3.16883 -0.20762 0)
(3.1261 0.00460553 0)
(3.0794 0.14568 0)
(3.04815 0.158027 0)
(3.01876 0.126081 0)
(2.99934 0.0494156 0)
(2.9996 0.00494515 0)
(2.99999 0.0001025 0)
(3 7.55352e-07 0)
(3 3.6248e-09 0)
(3 1.35328e-11 0)
(3 8.01555e-17 0)
(3 -1.36388e-14 0)
(3 1.52035e-15 0)
(3 1.36124e-15 0)
(2.31753 -1.23667 0)
(2.38284 -1.19451 0)
(2.56156 -1.24744 0)
(2.82002 -1.36649 0)
(3.00789 -1.57046 0)
(3.1152 -1.64423 0)
(3.1423 -1.675 0)
(3.13767 -1.68844 0)
(3.15158 -1.69336 0)
(3.14816 -1.67255 0)
(3.18997 -1.5828 0)
(3.20481 -1.52686 0)
(3.24552 -1.38716 0)
(3.26147 -1.27394 0)
(3.26733 -1.1506 0)
(3.26755 -1.02186 0)
(3.27305 -0.868857 0)
(3.27877 -0.666748 0)
(3.22144 -0.452067 0)
(3.19846 -0.341402 0)
(3.16365 -0.174978 0)
(3.11505 0.0469831 0)
(3.07039 0.164877 0)
(3.04247 0.168214 0)
(3.01336 0.129388 0)
(2.9982 0.0451339 0)
(2.99962 0.00391958 0)
(2.99999 7.14248e-05 0)
(3 5.01442e-07 0)
(3 2.38749e-09 0)
(3 9.01641e-12 0)
(3 1.41492e-14 0)
(3 -5.81375e-15 0)
(3 1.85113e-15 0)
(3 1.41386e-15 0)
(2.42689 -1.312 0)
(2.51373 -1.30022 0)
(2.71906 -1.40472 0)
(2.92229 -1.5595 0)
(3.06047 -1.60411 0)
(3.12657 -1.63735 0)
(3.14335 -1.67766 0)
(3.1422 -1.68952 0)
(3.14405 -1.70615 0)
(3.14877 -1.6559 0)
(3.18115 -1.58005 0)
(3.20286 -1.51746 0)
(3.23464 -1.40175 0)
(3.25527 -1.28195 0)
(3.27246 -1.14818 0)
(3.29421 -0.988144 0)
(3.29886 -0.775826 0)
(3.24649 -0.565455 0)
(3.22258 -0.455731 0)
(3.19296 -0.331465 0)
(3.15481 -0.125296 0)
(3.11088 0.0706001 0)
(3.06252 0.180034 0)
(3.03704 0.177884 0)
(3.00944 0.130865 0)
(2.99713 0.040855 0)
(2.99966 0.00300044 0)
(3 4.8015e-05 0)
(3 3.22485e-07 0)
(3 1.52495e-09 0)
(3 5.79876e-12 0)
(3 1.0769e-14 0)
(3 -2.88696e-15 0)
(3 1.85943e-15 0)
(3 1.26781e-15 0)
(2.4877 -1.41652 0)
(2.57424 -1.41197 0)
(2.76086 -1.52941 0)
(2.9701 -1.5985 0)
(3.08307 -1.61281 0)
(3.1284 -1.64456 0)
(3.14452 -1.6864 0)
(3.14633 -1.7056 0)
(3.12163 -1.72644 0)
(3.15309 -1.62117 0)
(3.17174 -1.60864 0)
(3.21397 -1.49568 0)
(3.23739 -1.39136 0)
(3.27163 -1.24394 0)
(3.29533 -1.07607 0)
(3.29275 -0.872977 0)
(3.26127 -0.690739 0)
(3.24176 -0.576098 0)
(3.21582 -0.476544 0)
(3.19008 -0.292195 0)
(3.14903 -0.0852158 0)
(3.10098 0.108274 0)
(3.05325 0.197255 0)
(3.0321 0.18696 0)
(3.00066 0.128393 0)
(2.99654 0.0355808 0)
(2.99973 0.0022086 0)
(3 3.11351e-05 0)
(3 2.00919e-07 0)
(3 9.44982e-10 0)
(3 3.60024e-12 0)
(3 2.85035e-15 0)
(3 -1.5308e-15 0)
(3 2.12324e-15 0)
(3 1.34164e-15 0)
(2.51975 -1.43219 0)
(2.62895 -1.44307 0)
(2.79741 -1.55843 0)
(2.98738 -1.60125 0)
(3.08374 -1.61644 0)
(3.12973 -1.6574 0)
(3.1498 -1.69746 0)
(3.14843 -1.72129 0)
(3.11849 -1.74158 0)
(3.16275 -1.59299 0)
(3.16881 -1.61787 0)
(3.23695 -1.40706 0)
(3.26132 -1.31304 0)
(3.27558 -1.13654 0)
(3.27295 -0.970653 0)
(3.26744 -0.82871 0)
(3.25792 -0.724677 0)
(3.23616 -0.607368 0)
(3.21988 -0.451779 0)
(3.18719 -0.246775 0)
(3.14422 -0.055539 0)
(3.09154 0.139213 0)
(3.0473 0.209178 0)
(3.02594 0.195677 0)
(2.99773 0.125874 0)
(2.99677 0.0297777 0)
(2.99979 0.00156645 0)
(3 1.94934e-05 0)
(3 1.21405e-07 0)
(3 5.68445e-10 0)
(3 2.17403e-12 0)
(3 5.73224e-15 0)
(3 -1.41372e-15 0)
(3 2.18343e-15 0)
(3 1.33196e-15 0)
(2.54902 -1.41524 0)
(2.66161 -1.45238 0)
(2.81936 -1.5784 0)
(2.99199 -1.60814 0)
(3.07424 -1.62641 0)
(3.12411 -1.66858 0)
(3.14574 -1.7137 0)
(3.14724 -1.72777 0)
(3.13714 -1.7461 0)
(3.19445 -1.55108 0)
(3.19643 -1.5715 0)
(3.25112 -1.34912 0)
(3.26751 -1.23721 0)
(3.275 -1.10757 0)
(3.27601 -0.991549 0)
(3.26568 -0.876006 0)
(3.2495 -0.751247 0)
(3.24255 -0.59731 0)
(3.21924 -0.371537 0)
(3.18038 -0.202712 0)
(3.13045 -0.00914213 0)
(3.07581 0.178098 0)
(3.03932 0.225609 0)
(3.01764 0.204167 0)
(2.99479 0.119403 0)
(2.99691 0.0247179 0)
(2.99985 0.00106991 0)
(3 1.18255e-05 0)
(3 7.12807e-08 0)
(3 3.32262e-10 0)
(3 1.27416e-12 0)
(3 2.91591e-15 0)
(3 -2.02906e-15 0)
(3 7.8495e-16 0)
(3 1.24341e-15 0)
(2.56834 -1.41139 0)
(2.66099 -1.47312 0)
(2.82712 -1.58644 0)
(2.99532 -1.61328 0)
(3.06945 -1.63772 0)
(3.11487 -1.67443 0)
(3.13511 -1.71641 0)
(3.13801 -1.74208 0)
(3.14117 -1.74876 0)
(3.20868 -1.54206 0)
(3.20282 -1.53988 0)
(3.24989 -1.3865 0)
(3.27344 -1.26627 0)
(3.27494 -1.15621 0)
(3.26861 -1.03097 0)
(3.25831 -0.893898 0)
(3.26506 -0.72786 0)
(3.2563 -0.502133 0)
(3.20712 -0.311098 0)
(3.17092 -0.177436 0)
(3.11884 0.0233537 0)
(3.06638 0.197621 0)
(3.03004 0.239631 0)
(3.00878 0.209976 0)
(2.99138 0.114961 0)
(2.99737 0.0194887 0)
(2.9999 0.000698696 0)
(3 6.92711e-06 0)
(3 4.06289e-08 0)
(3 1.88654e-10 0)
(3 7.27187e-13 0)
(3 2.10683e-15 0)
(3 -2.65882e-15 0)
(3 -2.92394e-16 0)
(3 1.03113e-15 0)
(2.5736 -1.41415 0)
(2.65793 -1.49695 0)
(2.83522 -1.58419 0)
(3.00795 -1.6215 0)
(3.07732 -1.64815 0)
(3.11491 -1.68675 0)
(3.13006 -1.72325 0)
(3.12544 -1.75302 0)
(3.13872 -1.74675 0)
(3.20012 -1.56776 0)
(3.19984 -1.5364 0)