/*--------------------------------*- C++ -*----------------------------------*\
  =========                 |
  \\      /  F ield         | OpenFOAM: The Open Source CFD Toolbox
   \\    /   O peration     | Website:  https://openfoam.org
    \\  /    A nd           | Version:  7
     \\/     M anipulation  |
\*---------------------------------------------------------------------------*/
FoamFile
{
    version     2.0;
    format      ascii;
    class       volScalarField;
    location    "5.5";
    object      rho;
}
// * * * * * * * * * * * * * * * * * * * * * * * * * * * * * * * * * * * * * //

dimensions      [1 -3 0 0 0 0 0];

internalField   nonuniform List<scalar> 
90000
(
2.51227
2.2077
1.89036
1.68973
1.53471
1.35551
1.25958
1.20412
1.13158
1.0783
1.04966
1.02416
0.994573
0.973184
0.951139
0.931289
0.909992
0.892611
0.874651
0.856888
0.845325
0.83011
0.818781
0.816889
0.816067
0.818902
0.828899
0.846718
0.86793
0.889159
0.909546
0.922738
0.933368
0.938207
0.939381
0.939051
0.936458
0.931568
0.927071
0.928592
0.93157
0.935384
0.939665
0.943935
0.948599
0.954029
0.959468
0.964479
0.969804
0.975467
0.981669
0.987705
0.993736
0.999504
0.998566
0.994586
0.987521
0.980643
0.975884
0.976789
0.980369
0.988503
0.995924
1.00273
1.00547
1.00108
0.994319
0.987556
0.987516
0.991113
0.994502
0.998171
0.997118
0.994393
0.992429
0.993344
0.994497
0.993158
0.990331
0.989909
0.993593
0.998174
1.00098
1.00375
1.00877
1.01552
1.02155
1.0269
1.03207
1.0384
1.0406
1.04633
1.04918
1.05238
1.05692
1.05786
1.06081
1.06138
1.06269
1.06499
2.76542
2.73273
2.65029
2.51245
2.35174
2.17353
1.98765
1.82679
1.68318
1.5524
1.43876
1.34925
1.26697
1.19455
1.13252
1.07734
1.03031
0.995343
0.959072
0.937062
0.919832
0.900454
0.894888
0.897445
0.900283
0.906448
0.916133
0.927038
0.933202
0.936986
0.941337
0.941321
0.943185
0.946929
0.94959
0.952439
0.956839
0.964112
0.972252
0.978552
0.982061
0.982432
0.981711
0.980573
0.979549
0.980293
0.982202
0.984606
0.987551
0.990171
0.992864
0.99573
0.999847
1.00491
1.01004
1.01404
1.01268
1.00705
0.996207
0.987958
0.983918
0.98611
0.99304
1.00092
1.00546
1.00619
1.00442
0.997002
0.989777
0.990296
0.992949
0.997416
0.997035
0.995963
0.993504
0.992809
0.993822
0.993286
0.991174
0.989695
0.991201
0.995503
0.999287
1.00226
1.00621
1.01253
1.01818
1.0249
1.02923
1.0367
1.03904
1.04396
1.04754
1.05007
1.055
1.05638
1.05967
1.0608
1.06218
1.06406
2.77229
2.77148
2.76697
2.75048
2.71245
2.64041
2.53292
2.40309
2.2534
2.10363
1.96111
1.82595
1.70949
1.60178
1.50808
1.42843
1.35552
1.29887
1.2457
1.20045
1.16116
1.12633
1.09434
1.06712
1.03882
1.01601
0.994258
0.976561
0.959842
0.948368
0.938992
0.933453
0.93375
0.937005
0.941571
0.945847
0.954167
0.966426
0.976485
0.981814
0.984716
0.98575
0.986575
0.988285
0.990258
0.992766
0.995488
0.99684
0.997531
0.997969
0.997847
0.998084
0.999383
1.00308
1.00888
1.01366
1.0147
1.01402
1.0105
1.00302
0.993653
0.989317
0.989374
0.993076
0.999987
1.00558
1.00528
1.00269
0.995862
0.991442
0.991181
0.993686
0.995768
0.995542
0.993977
0.992428
0.992593
0.992725
0.991655
0.989819
0.989859
0.992563
0.996732
1.00042
1.00387
1.00913
1.01506
1.02213
1.0267
1.03397
1.03754
1.04145
1.04552
1.04778
1.05244
1.05477
1.05826
1.06007
1.06162
1.06297
2.77189
2.77164
2.77138
2.77077
2.76833
2.75972
2.73757
2.69236
2.62103
2.51909
2.40057
2.27026
2.13714
2.0088
1.8891
1.7772
1.67734
1.58661
1.50494
1.43047
1.36417
1.304
1.24885
1.19923
1.15326
1.11235
1.07483
1.04292
1.01394
0.992324
0.971731
0.960104
0.951178
0.95136
0.952376
0.956267
0.962149
0.966421
0.96858
0.97021
0.973327
0.977648
0.9817
0.985791
0.989394
0.99249
0.995401
0.996673
0.997059
0.997315
0.997268
0.997448
0.998375
1.00053
1.00386
1.0077
1.0116
1.01316
1.01267
1.01032
1.00442
0.995509
0.988768
0.989396
0.992686
0.999399
1.00357
1.00306
0.999796
0.993986
0.990645
0.990875
0.993113
0.994576
0.993826
0.992185
0.991574
0.991963
0.991493
0.989879
0.989217
0.990129
0.993564
0.997956
1.00163
1.00647
1.01205
1.01905
1.02445
1.03098
1.03609
1.0391
1.04379
1.04593
1.0502
1.05328
1.05672
1.05903
1.06083
1.06175
2.77141
2.77134
2.77124
2.77104
2.77081
2.77035
2.76899
2.76381
2.74952
2.7187
2.66519
2.58561
2.48742
2.37118
2.25079
2.13074
2.0133
1.90315
1.80247
1.70748
1.62218
1.54407
1.47352
1.40836
1.35088
1.29787
1.25048
1.20766
1.16877
1.13446
1.10136
1.07373
1.04573
1.02487
1.00454
0.990079
0.977248
0.968271
0.959928
0.957698
0.958716
0.961732
0.965745
0.973162
0.980931
0.98575
0.989258
0.990546
0.990912
0.992278
0.993856
0.995528
0.997521
0.998561
0.999106
1.00055
1.00336
1.00747
1.01075
1.01051
1.00921
1.00333
0.994773
0.99101
0.98986
0.991935
0.997477
1.00069
1.00043
0.997576
0.992534
0.990376
0.990613
0.992429
0.992734
0.991946
0.991002
0.990943
0.99094
0.990219
0.98912
0.988854
0.990928
0.995249
0.999476
1.00385
1.00929
1.01579
1.0224
1.02808
1.03475
1.03695
1.04182
1.04417
1.04807
1.05188
1.05512
1.05783
1.0597
1.06055
2.77064
2.77058
2.77052
2.77045
2.77033
2.77014
2.7697
2.76934
2.76842
2.765
2.75518
2.73201
2.69016
2.62518
2.53839
2.43698
2.32595
2.21144
2.10049
1.99292
1.89231
1.79759
1.71102
1.62972
1.55576
1.4868
1.42407
1.36493
1.31143
1.26086
1.21462
1.17139
1.13138
1.09498
1.06095
1.0332
1.00758
0.990258
0.976123
0.970548
0.966161
0.966908
0.969211
0.969929
0.970154
0.971034
0.972941
0.976122
0.979806
0.984561
0.989416
0.99308
0.995457
0.995244
0.994383
0.994666
0.996636
1.0007
1.00535
1.00877
1.00779
1.0064
1.00185
0.995152
0.989771
0.989995
0.991141
0.995508
0.999236
0.998655
0.995233
0.991125
0.989911
0.990099
0.991245
0.991326
0.990813
0.990477
0.990581
0.990049
0.989029
0.988351
0.989061
0.992067
0.996705
1.00109
1.00633
1.01201
1.01933
1.02495
1.03256
1.03499
1.03994
1.04274
1.04626
1.05053
1.05353
1.05645
1.05847
1.05945
2.76999
2.76991
2.76986
2.76979
2.76973
2.76966
2.76952
2.76931
2.769
2.76872
2.76804
2.76589
2.75842
2.74014
2.70466
2.6484
2.57152
2.47782
2.37492
2.26702
2.16023
2.05631
1.95763
1.86439
1.77773
1.696
1.6212
1.55046
1.48608
1.42518
1.37021
1.3179
1.2712
1.22672
1.18675
1.14965
1.11534
1.0852
1.05593
1.03385
1.01169
0.99679
0.982964
0.973993
0.966241
0.962875
0.963229
0.964659
0.967607
0.973045
0.979161
0.983551
0.986363
0.988048
0.989564
0.991609
0.99441
0.996787
0.999075
1.0023
1.0037
1.00493
1.00468
1.00175
0.995374
0.991359
0.989706
0.990788
0.994645
0.997017
0.996529
0.993895
0.990648
0.98955
0.989679
0.990511
0.99053
0.990304
0.99014
0.989835
0.989014
0.988205
0.988112
0.989739
0.993755
0.998415
1.00308
1.00835
1.01543
1.02162
1.02956
1.03304
1.03785
1.04123
1.04455
1.04898
1.05171
1.0544
1.05635
1.05804
2.76929
2.76922
2.76915
2.76908
2.76901
2.76895
2.76889
2.76882
2.76868
2.76845
2.76813
2.76744
2.76684
2.76515
2.75905
2.74342
2.71234
2.66133
2.59052
2.50337
2.40566
2.30324
2.20052
2.09991
2.00402
1.91246
1.82673
1.74572
1.67049
1.59927
1.53381
1.47135
1.41441
1.35963
1.30988
1.26156
1.21775
1.1752
1.13634
1.10013
1.06677
1.03871
1.01262
0.995103
0.980618
0.974454
0.969373
0.9698
0.971438
0.971635
0.971245
0.972017
0.974706
0.978938
0.984545
0.989258
0.992249
0.993094
0.993407
0.99476
0.998209
1.00232
1.00437
1.00374
1.00066
0.9949
0.990182
0.99038
0.991252
0.993842
0.996056
0.995312
0.992335
0.989983
0.989403
0.989618
0.990203
0.990047
0.989715
0.989581
0.989049
0.988151
0.987738
0.988279
0.990743
0.994793
0.999362
1.00432
1.01099
1.01797
1.02573
1.03106
1.03578
1.03991
1.04306
1.04722
1.05009
1.05233
1.05417
1.05654
2.76877
2.7687
2.76862
2.76854
2.76846
2.76839
2.76831
2.76824
2.76817
2.76807
2.76792
2.76764
2.7673
2.76663
2.76605
2.7645
2.75889
2.74444
2.71533
2.66734
2.60004
2.5168
2.42344
2.32484
2.22578
2.12854
2.03509
1.94576
1.86159
1.78154
1.70696
1.636
1.57029
1.50764
1.45015
1.39471
1.34458
1.29568
1.25203
1.20924
1.17126
1.13513
1.10235
1.0737
1.046
1.02549
1.00426
0.991638
0.979255
0.97249
0.967206
0.967249
0.968086
0.970294
0.975139
0.980025
0.983602
0.98595
0.988015
0.990913
0.994547
0.998223
1.00102
1.00212
1.00185
0.999907
0.995326
0.99243
0.99058
0.990804
0.99294
0.99434
0.993693
0.991543
0.989943
0.989543
0.989799
0.9897
0.989371
0.989338
0.989019
0.988219
0.987687
0.987778
0.988836
0.991678
0.995695
1.00063
1.00668
1.01411
1.02154
1.02881
1.03323
1.03842
1.04146
1.04505
1.04843
1.05026
1.05211
1.05505
2.7684
2.76832
2.76823
2.76815
2.76806
2.76797
2.76787
2.76778
2.76769
2.76759
2.76749
2.76737
2.76717
2.76684
2.76641
2.76569
2.76509
2.76353
2.75798
2.7437
2.71517
2.66805
2.60239
2.52143
2.43071
2.33528
2.23935
2.14494
2.05422
1.96707
1.8846
1.80607
1.7323
1.66204
1.59663
1.53393
1.47611
1.42016
1.36914
1.31897
1.27365
1.22859
1.18819
1.14831
1.11232
1.07893
1.04805
1.02379
1.00084
0.988204
0.977016
0.974718
0.972835
0.974112
0.973656
0.973075
0.974426
0.977728
0.982705
0.987332
0.990766
0.993172
0.995368
0.99844
1.00055
1.00047
0.999464
0.995816
0.991518
0.990752
0.991212
0.992539
0.993462
0.992819
0.990971
0.989871
0.989379
0.989149
0.988948
0.989029
0.988882
0.988303
0.98777
0.987721
0.988006
0.98944
0.992536
0.99728
1.00307
1.01046
1.01748
1.02616
1.03054
1.03678
1.0397
1.04285
1.04681
1.04875
1.05067
1.05378
2.7681
2.76802
2.76792
2.76784
2.76775
2.76765
2.76755
2.76745
2.76734
2.76723
2.76711
2.76699
2.76686
2.76669
2.76643
2.76606
2.76561
2.76487
2.76421
2.76223
2.75619
2.74136
2.71208
2.66452
2.59886
2.51886
2.43
2.33697
2.24363
2.15202
2.06365
1.97878
1.8981
1.8211
1.74849
1.67915
1.61424
1.55207
1.49438
1.43864
1.38753
1.33736
1.29232
1.24727
1.20779
1.16825
1.13381
1.10112
1.07122
1.04664
1.02117
1.00554
0.989606
0.981054
0.972749
0.97032
0.970564
0.971768
0.97456
0.978119
0.981517
0.984175
0.988277
0.992257
0.996641
1.00029
1.00007
0.998787
0.995131
0.992326
0.991373
0.9909
0.991737
0.992399
0.991868
0.990572
0.989532
0.988757
0.9885
0.988584
0.988639
0.988297
0.987892
0.987724
0.987733
0.988241
0.990335
0.994345
0.999695
1.00657
1.0135
1.02259
1.02783
1.03462
1.03771
1.04063
1.04484
1.0473
1.04934
1.05254
2.76794
2.76783
2.76773
2.76761
2.7675
2.76739
2.76727
2.76715
2.76702
2.76688
2.76674
2.76659
2.76644
2.76631
2.76617
2.76594
2.76563
2.76522
2.76473
2.76419
2.76332
2.7608
2.75381
2.73735
2.70609
2.65658
2.58998
2.51004
2.42245
2.33135
2.24043
2.15121
2.06521
1.98239
1.90361
1.82815
1.75678
1.68859
1.6244
1.56298
1.5056
1.45012
1.39904
1.34873
1.3032
1.25746
1.21676
1.17541
1.13893
1.10296
1.07058
1.04239
1.01633
0.999576
0.984165
0.979471
0.975009
0.975795
0.975383
0.973832
0.974197
0.976388
0.980875
0.98588
0.991566
0.996514
0.998567
0.997559
0.997104
0.99516
0.992346
0.991047
0.990881
0.991568
0.9918
0.991199
0.989765
0.988799
0.988367
0.988247
0.988365
0.988204
0.987914
0.987619
0.987477
0.987592
0.988803
0.991898
0.996693
1.00287
1.00976
1.01825
1.02454
1.03147
1.0355
1.03847
1.04295
1.04623
1.04855
1.05159
2.76792
2.76777
2.76762
2.76746
2.7673
2.76715
2.767
2.76685
2.7667
2.76655
2.76639
2.76622
2.76605
2.76588
2.76573
2.76559
2.76539
2.76509
2.76466
2.76422
2.76368
2.76315
2.7622
2.75917
2.7508
2.73189
2.6974
2.6449
2.57631
2.49588
2.40909
2.31958
2.23089
2.14383
2.06011
1.97935
1.90238
1.8286
1.7586
1.69161
1.62843
1.56777
1.51104
1.45618
1.40542
1.35567
1.31044
1.26514
1.22513
1.18442
1.14942
1.11457
1.0839
1.05723
1.0306
1.01286
0.994039
0.984691
0.975094
0.971831
0.971841
0.972445
0.974252
0.976995
0.981
0.986069
0.991977
0.995175
0.997469
0.997019
0.994603
0.992175
0.991339
0.991074
0.991212
0.990838
0.990034
0.989011
0.988343
0.988047
0.988068
0.987933
0.987719
0.987455
0.98715
0.986981
0.987592
0.989676
0.993713
0.99925
1.00584
1.0137
1.02117
1.02796
1.03287
1.03634
1.04107
1.04496
1.04771
1.05053
2.76826
2.76811
2.76795
2.76777
2.76758
2.76739
2.76719
2.76698
2.76678
2.76658
2.76636
2.76614
2.76592
2.7657
2.7655
2.76527
2.76503
2.76481
2.76459
2.76435
2.76402
2.76351
2.76274
2.76198
2.76056
2.75661
2.74628
2.72407
2.68552
2.62924
2.55825
2.47697
2.39079
2.30285
2.21604
2.13125
2.04961
1.97085
1.8957
1.82352
1.75501
1.68927
1.62715
1.56753
1.51144
1.4574
1.407
1.35767
1.3124
1.26714
1.2266
1.18529
1.14881
1.11229
1.07958
1.05002
1.02262
1.00377
0.986678
0.980638
0.97559
0.976067
0.975395
0.973637
0.974186
0.977318
0.983233
0.990509
0.995959
0.996215
0.99527
0.994002
0.992571
0.991554
0.990705
0.990123
0.989826
0.989268
0.988445
0.987918
0.987743
0.987581
0.987478
0.987168
0.986741
0.986282
0.986502
0.987511
0.990204
0.99485
1.00122
1.00851
1.01687
1.02408
1.0301
1.0343
1.03877
1.04285
1.04597
1.04898
2.76884
2.76864
2.76844
2.76822
2.76799
2.76774
2.76749
2.76723
2.76696
2.7667
2.76645
2.76619
2.76593
2.76566
2.76538
2.7651
2.7648
2.76456
2.76435
2.76413
2.76385
2.76348
2.76302
2.76248
2.76182
2.76083
2.75875
2.75331
2.74005
2.71353
2.66997
2.60959
2.5359
2.4539
2.36824
2.28171
2.19688
2.1141
2.03455
1.95772
1.88445
1.81393
1.7469
1.68258
1.6215
1.56305
1.50769
1.45456
1.40451
1.35603
1.3111
1.26673
1.22682
1.18649
1.15139
1.11623
1.08533
1.05788
1.03086
1.01273
0.993137
0.983977
0.975031
0.972512
0.972525
0.973216
0.975454
0.979791
0.985531
0.990301
0.993134
0.994832
0.994356
0.992888
0.99076
0.990055
0.989757
0.989336
0.988575
0.987959
0.98752
0.987288
0.986949
0.986717
0.986301
0.985659
0.985631
0.985935
0.987443
0.990996
0.996713
1.00375
1.01208
1.01972
1.02657
1.03178
1.03612
1.0405
1.04405
1.04714
2.76963
2.76942
2.76921
2.76899
2.76875
2.76851
2.76826
2.76799
2.76771
2.76742
2.76713
2.76682
2.76651
2.76619
2.76586
2.76552
2.76517
2.76481
2.76445
2.76408
2.76369
2.7633
2.76288
2.7624
2.76184
2.76124
2.76055
2.75932
2.75641
2.74885
2.73166
2.69982
2.6507
2.58594
2.50979
2.42706
2.34205
2.25705
2.1741
2.09341
2.01585
1.94109
1.86944
1.80076
1.73494
1.6722
1.61201
1.55488
1.50006
1.44805
1.39843
1.35083
1.30621
1.26233
1.22231
1.18185
1.14572
1.10958
1.077
1.04754
1.01989
1.00163
0.984849
0.980483
0.97599
0.976177
0.975413
0.974853
0.977019
0.982598
0.989548
0.994067
0.993831
0.992268
0.99127
0.990577
0.99002
0.989356
0.988716
0.988107
0.987613
0.987116
0.986447
0.986329
0.986013
0.985421
0.985363
0.985366
0.985912
0.988234
0.992828
0.999219
1.00707
1.01531
1.02262
1.02885
1.03314
1.03721
1.04083
1.04478
2.77041
2.7702
2.76997
2.76973
2.76949
2.76924
2.76898
2.7687
2.76842
2.76813
2.76783
2.76752
2.76719
2.76686
2.76653
2.76618
2.76582
2.76545
2.76506
2.76463
2.7642
2.76378
2.76335
2.76289
2.76238
2.76185
2.76125
2.76057
2.75957
2.75768
2.75325
2.74265
2.72042
2.68249
2.62748
2.55846
2.48015
2.39706
2.31291
2.22963
2.14853
2.06996
1.99423
1.92146
1.85127
1.7844
1.7197
1.65852
1.59922
1.54341
1.48939
1.43851
1.38956
1.34298
1.29897
1.25601
1.21676
1.17727
1.14277
1.108
1.07756
1.05079
1.02382
1.00708
0.989301
0.981788
0.974488
0.973375
0.973918
0.975908
0.98011
0.985776
0.989259
0.990971
0.991834
0.991502
0.990549
0.989497
0.989015
0.988463
0.987803
0.987017
0.98627
0.986143
0.985935
0.985508
0.985352
0.985278
0.9855
0.98695
0.990233
0.995369
1.00222
1.01076
1.01861
1.02579
1.03013
1.03408
1.03757
1.04221
2.77111
2.77091
2.7707
2.77048
2.77026
2.77002
2.76977
2.76951
2.76924
2.76896
2.76867
2.76836
2.76804
2.7677
2.76735
2.76699
2.76662
2.76623
2.76582
2.76539
2.76494
2.76448
2.76401
2.76353
2.76302
2.76249
2.7619
2.7613
2.76065
2.75986
2.75856
2.75586
2.74929
2.73452
2.70612
2.66125
2.6003
2.52744
2.44742
2.36439
2.28143
2.19982
2.12054
2.04409
1.96995
1.89915
1.83038
1.76516
1.70173
1.64197
1.58384
1.52928
1.47623
1.42646
1.37834
1.3326
1.28921
1.24665
1.20779
1.16813
1.13322
1.09756
1.06619
1.03761
1.01161
0.995958
0.982095
0.978844
0.977587
0.977132
0.975971
0.977564
0.982336
0.988072
0.991474
0.991129
0.990098
0.989863
0.989598
0.988893
0.987931
0.98698
0.986284
0.98618
0.986037
0.985658
0.985359
0.985133
0.985346
0.986275
0.988445
0.992095
0.997452
1.00497
1.01314
1.02148
1.027
1.03134
1.03515
1.04014
2.77136
2.77117
2.77099
2.77079
2.77059
2.77038
2.77016
2.76993
2.7697
2.76945
2.7692
2.76892
2.76863
2.76832
2.768
2.76765
2.76729
2.76691
2.76652
2.76611
2.76568
2.76523
2.76476
2.76428
2.76378
2.76326
2.76271
2.76213
2.76154
2.76095
2.76026
2.75933
2.75754
2.75353
2.74382
2.72361
2.68791
2.63583
2.56926
2.49318
2.41204
2.32962
2.24774
2.16817
2.09045
2.01605
1.94351
1.87449
1.80729
1.74356
1.68164
1.6232
1.56641
1.51296
1.46123
1.41228
1.36534
1.32023
1.27792
1.2361
1.19839
1.15965
1.12676
1.09267
1.06389
1.03854
1.01392
0.999421
0.985171
0.977932
0.974999
0.9751
0.976343
0.979927
0.985165
0.987798
0.989398
0.990489
0.990175
0.989346
0.988101
0.987068
0.986515
0.986407
0.986192
0.985768
0.985329
0.984897
0.985116
0.985579
0.986835
0.989135
0.993128
0.999616
1.00777
1.01638
1.02279
1.02778
1.03225
1.03794
2.77125
2.77107
2.77089
2.77071
2.77052
2.77034
2.77015
2.76995
2.76975
2.76954
2.76931
2.76907
2.76881
2.76855
2.76828
2.76798
2.76767
2.76734
2.76699
2.76662
2.76623
2.76583
2.76539
2.76494
2.76446
2.76396
2.76343
2.76288
2.76231
2.76174
2.76117
2.76057
2.7598
2.75856
2.75591
2.74975
2.73552
2.7085
2.66483
2.60578
2.53426
2.45609
2.37422
2.2931
2.21231
2.13481
2.05874
1.98622
1.91542
1.84807
1.78254
1.72024
1.65998
1.60257
1.54753
1.4948
1.44466
1.39633
1.35074
1.30613
1.26494
1.22324
1.1863
1.14746
1.11423
1.07979
1.04988
1.02432
1.00075
0.989036
0.979336
0.979077
0.977825
0.976907
0.978575
0.9831
0.987698
0.990147
0.989817
0.988847
0.988242
0.98753
0.986958
0.986697
0.98632
0.985846
0.985143
0.984616
0.984801
0.984918
0.985443
0.986664
0.989294
0.994343
1.00186
1.0112
1.01879
1.02496
1.02955
1.03537
2.77118
2.77102
2.77086
2.77069
2.77052
2.77036
2.7702
2.77005
2.76987
2.76967
2.76945
2.76923
2.76901
2.76878
2.76853
2.76828
2.768
2.76771
2.76739
2.76702
2.76663
2.76623
2.76581
2.76538
2.76495
2.76449
2.76403
2.76353
2.76302
2.76246
2.76191
2.76133
2.76077
2.76011
2.75919
2.75741
2.75331
2.74376
2.7234
2.68846
2.63649
2.57142
2.49579
2.41662
2.33482
2.25496
2.17585
2.1002
2.02594
1.95522
1.88618
1.82035
1.7566
1.69549
1.63703
1.58072
1.5272
1.47553
1.42677
1.37917
1.33494
1.29083
1.25087
1.20997
1.17443
1.13675
1.10564
1.0737
1.04605
1.02422
1.00047
0.990064
0.979955
0.976441
0.976727
0.978299
0.981702
0.985577
0.987257
0.988205
0.988508
0.988069
0.987511
0.987099
0.986519
0.985946
0.985046
0.984826
0.984648
0.984437
0.984543
0.985002
0.986469
0.990088
0.996546
1.00575
1.01431
1.02213
1.02685
1.03248
2.77104
2.77089
2.77074
2.77057
2.7704
2.7702
2.76997
2.76972
2.76949
2.76927
2.76905
2.76883
2.76861
2.76839
2.76816
2.76791
2.76766
2.76739
2.76711
2.76683
2.76652
2.76616
2.76579
2.76539
2.76498
2.76455
2.76412
2.76367
2.7632
2.76272
2.76223
2.76171
2.76118
2.76063
2.76007
2.7594
2.75823
2.75565
2.74914
2.73463
2.70656
2.66295
2.60323
2.53284
2.4549
2.37502
2.29427
2.21577
2.13862
2.06445
1.99246
1.92291
1.85621
1.79133
1.7297
1.66978
1.61301
1.5579
1.50591
1.45518
1.40769
1.36103
1.31766
1.27464
1.23535
1.19523
1.15979
1.12263
1.09033
1.05862
1.02944
1.00803
0.989136
0.983422
0.980289
0.980044
0.979046
0.980147
0.983484
0.9868
0.988116
0.987821
0.98789
0.98766
0.98689
0.986077
0.985286
0.985069
0.98489
0.98461
0.984322
0.98424
0.984821
0.987019
0.991762
0.999231
1.00766
1.01677
1.02291
1.02956
2.7705
2.77035
2.7702
2.77004
2.76987
2.7697
2.76952
2.76934
2.76913
2.76892
2.7687
2.76848
2.76825
2.76801
2.76776
2.7675
2.76723
2.76695
2.76667
2.76637
2.76607
2.76575
2.76542
2.76505
2.76467
2.76426
2.76385
2.76342
2.76299
2.76253
2.76206
2.76157
2.76106
2.76053
2.76001
2.75951
2.75889
2.75809
2.75644
2.75238
2.74205
2.7209
2.68402
2.63164
2.56531
2.49103
2.41171
2.33209
2.25276
2.17559
2.10075
2.02795
1.9582
1.89011
1.8252
1.76201
1.70191
1.64344
1.58821
1.53427
1.48355
1.434
1.38748
1.34209
1.29959
1.25786
1.21921
1.18047
1.14584
1.11063
1.08006
1.05167
1.02444
1.00752
0.991043
0.982511
0.977934
0.977988
0.979123
0.981437
0.984459
0.98644
0.988132
0.987851
0.987188
0.986274
0.985713
0.985483
0.985137
0.984752
0.984387
0.983867
0.984019
0.985052
0.987908
0.993386
1.00129
1.0105
1.01757
1.02592
2.76994
2.76979
2.76963
2.76946
2.76928
2.7691
2.76892
2.76873
2.76853
2.76832
2.7681
2.76787
2.76763
2.76738
2.76712
2.76685
2.76657
2.76629
2.766
2.7657
2.76539
2.76508
2.76475
2.76441
2.76406
2.76368
2.7633
2.7629
2.76249
2.76207
2.76162
2.76117
2.76068
2.7602
2.75969
2.7592
2.7587
2.75811
2.75739
2.75636
2.75385
2.74712
2.7312
2.70163
2.65545
2.59505
2.52343
2.44663
2.3671
2.28811
2.21066
2.13514
2.06222
1.99135
1.92315
1.85699
1.79358
1.73206
1.67339
1.61644
1.56233
1.50989
1.46009
1.41215
1.36639
1.32258
1.28061
1.23997
1.20183
1.16338
1.12907
1.09375
1.06225
1.03422
1.00804
0.994097
0.981916
0.981611
0.980764
0.979491
0.980653
0.984294
0.987482
0.987424
0.986798
0.986549
0.986374
0.985902
0.985286
0.984843
0.984398
0.983654
0.983548
0.983905
0.985205
0.988321
0.994168
1.00278
1.01057
1.02115
2.76927
2.76912
2.76896
2.76879
2.76861
2.76843
2.76824
2.76804
2.76783
2.76761
2.76738
2.76714
2.76689
2.76663
2.76637
2.76608
2.7658
2.76551
2.76521
2.76489
2.76458
2.76426
2.76393
2.7636
2.76325
2.76289
2.76253
2.76215
2.76177
2.76137
2.76096
2.76055
2.76011
2.75966
2.75921
2.75874
2.75831
2.75789
2.75739
2.75671
2.75579
2.7542
2.74975
2.73851
2.715
2.67592
2.62083
2.55356
2.47865
2.40026
2.32159
2.24371
2.16828
2.09435
2.02347
1.95417
1.88786
1.82318
1.7615
1.70136
1.64414
1.5886
1.53567
1.48488
1.43598
1.38985
1.3446
1.3023
1.26082
1.22116
1.18408
1.14655
1.11421
1.08083
1.05229
1.02905
1.00409
0.992617
0.983373
0.979102
0.979571
0.981301
0.98294
0.984535
0.985838
0.98686
0.986671
0.986165
0.985452
0.98495
0.984409
0.983463
0.983127
0.983102
0.983412
0.984731
0.988351
0.995634
1.00362
1.01594
2.76853
2.76837
2.7682
2.76802
2.76783
2.76764
2.76743
2.76722
2.767
2.76676
2.76652
2.76627
2.766
2.76573
2.76545
2.76517
2.76488
2.76459
2.76428
2.76396
2.76365
2.76332
2.763
2.76267
2.76233
2.76199
2.76164
2.76129
2.76093
2.76056
2.76018
2.7598
2.7594
2.75899
2.75858
2.75813
2.75771
2.75729
2.75687
2.75641
2.75582
2.75506
2.754
2.75123
2.74335
2.72532
2.69253
2.64347
2.58061
2.50831
2.43151
2.35282
2.27547
2.19904
2.12538
2.05334
1.98417
1.91665
1.85195
1.78892
1.72857
1.67008
1.61399
1.5604
1.50832
1.45955
1.41135
1.36659
1.32228
1.28058
1.24035
1.20099
1.16503
1.1277
1.09537
1.06243
1.03301
1.00928
0.992098
0.98403
0.983767
0.982606
0.980488
0.981433
0.98428
0.98662
0.986379
0.986068
0.98561
0.985158
0.984394
0.983601
0.982814
0.982454
0.982078
0.982349
0.98424
0.988952
0.995459
1.00881
2.76759
2.76743
2.76726
2.76708
2.7669
2.76672
2.76652
2.76632
2.76611
2.76589
2.76566
2.76541
2.76516
2.76489
2.76459
2.76428
2.76397
2.76365
2.76333
2.76301
2.76269
2.76237
2.76205
2.76174
2.76141
2.76109
2.76077
2.76043
2.76009
2.75975
2.7594
2.75903
2.75866
2.75828
2.75788
2.75746
2.75706
2.75661
2.7562
2.75589
2.75554
2.755
2.75424
2.75328
2.75145
2.7461
2.73271
2.70585
2.66295
2.60468
2.53573
2.46018
2.38266
2.30481
2.22867
2.1542
2.08208
2.01215
1.94436
1.87882
1.81527
1.75417
1.69477
1.63858
1.58329
1.53179
1.4808
1.43309
1.38651
1.34189
1.29952
1.25791
1.21964
1.18068
1.14658
1.11048
1.0803
1.05018
1.02495
1.00607
0.991798
0.982556
0.979802
0.980277
0.981774
0.983517
0.98451
0.985599
0.985585
0.985268
0.984474
0.983603
0.982913
0.982034
0.981062
0.98069
0.981504
0.984058
0.988542
1.00122
2.76667
2.76648
2.76627
2.76607
2.76588
2.76571
2.76554
2.76537
2.76518
2.76498
2.76477
2.76455
2.76432
2.76408
2.76383
2.76358
2.76331
2.76303
2.76274
2.76244
2.76212
2.7618
2.76146
2.76113
2.76078
2.76043
2.76008
2.75973
2.7594
2.75907
2.75873
2.75838
2.75802
2.75766
2.75727
2.75689
2.75649
2.75608
2.75569
2.75529
2.75493
2.75456
2.75406
2.75341
2.7525
2.75109
2.74743
2.73748
2.71632
2.67903
2.62644
2.56035
2.48752
2.41003
2.33305
2.25623
2.18183
2.10909
2.03884
1.97049
1.90421
1.84045
1.77793
1.71924
1.66067
1.60668
1.55251
1.50238
1.45275
1.40581
1.36065
1.31684
1.27604
1.23504
1.19835
1.15952
1.12597
1.09027
1.059
1.03109
1.00578
0.991554
0.984184
0.983995
0.982926
0.981538
0.982531
0.984141
0.985188
0.985089
0.984385
0.983635
0.982892
0.981703
0.980427
0.979576
0.979719
0.980674
0.982941
0.993123
2.76619
2.76609
2.76599
2.76587
2.76573
2.76557
2.76538
2.76518
2.76498
2.76477
2.76455
2.76433
2.7641
2.76386
2.76362
2.76336
2.76309
2.76281
2.76252
2.76221
2.76189
2.76156
2.76122
2.76086
2.7605
2.76014
2.75977
2.75939
2.759
2.7586
2.75821
2.75784
2.75748
2.7571
2.75672
2.75633
2.75593
2.75555
2.75515
2.75474
2.75435
2.75395
2.75351
2.75298
2.75231
2.75147
2.75037
2.74777
2.74075
2.72386
2.69292
2.64482
2.58378
2.51198
2.43682
2.35886
2.28296
2.20735
2.13492
2.06374
1.99497
1.92859
1.86324
1.8019
1.74053
1.68376
1.6268
1.57394
1.52146
1.47217
1.42389
1.37829
1.33432
1.29187
1.25221
1.21244
1.17634
1.13908
1.10655
1.07438
1.04511
1.02319
1.00189
0.98971
0.982329
0.980901
0.981361
0.98185
0.982947
0.984341
0.984072
0.983557
0.982822
0.981487
0.979959
0.978934
0.978412
0.978208
0.978889
0.985986
2.76603
2.76591
2.76578
2.76563
2.76548
2.76532
2.76514
2.76496
2.76478
2.7646
2.7644
2.76419
2.76397
2.76375
2.76351
2.76326
2.763
2.76273
2.76244
2.76214
2.76182
2.76149
2.76113
2.76075
2.76036
2.75996
2.75955
2.75913
2.75872
2.75831
2.75788
2.75745
2.75699
2.75656
2.75616
2.75576
2.75535
2.75495
2.75452
2.75409
2.75365
2.75318
2.75277
2.75236
2.75188
2.75123
2.75042
2.74944
2.74767
2.74257
2.72996
2.70368
2.66181
2.60369
2.53577
2.46051
2.38419
2.30713
2.23195
2.15877
2.087
2.01853
1.95046
1.8864
1.82273
1.76273
1.70378
1.64743
1.593
1.54037
1.49001
1.44149
1.39505
1.35061
1.30776
1.26709
1.22764
1.18929
1.1538
1.11731
1.08479
1.05337
1.02362
1.0035
0.987309
0.985738
0.984056
0.981921
0.981889
0.982956
0.983697
0.982981
0.982137
0.981201
0.980033
0.978393
0.977317
0.976217
0.975841
0.979816
2.76575
2.76563
2.7655
2.76536
2.76522
2.76507
2.76492
2.76475
2.76458
2.7644
2.76421
2.764
2.76379
2.76357
2.76333
2.76307
2.76281
2.76254
2.76225
2.76194
2.76163
2.7613
2.76096
2.7606
2.76023
2.75984
2.75943
2.75897
2.75847
2.75794
2.75745
2.757
2.75656
2.75611
2.75563
2.75515
2.75469
2.75425
2.75381
2.75337
2.7529
2.75241
2.75196
2.75147
2.75103
2.75063
2.75014
2.74946
2.74859
2.74721
2.74369
2.73393
2.71271
2.67544
2.62237
2.55659
2.48332
2.40726
2.3299
2.25512
2.18044
2.10988
2.03933
1.97267
1.90676
1.84388
1.78274
1.72338
1.66672
1.61097
1.55855
1.5069
1.45819
1.41125
1.36582
1.32346
1.28108
1.24195
1.20359
1.166
1.1324
1.09682
1.06711
1.04002
1.01273
0.999069
0.98778
0.981454
0.981872
0.982547
0.982146
0.981063
0.981216
0.980979
0.980046
0.978372
0.97631
0.974538
0.973361
0.975155
2.7654
2.76527
2.76513
2.765
2.76485
2.76469
2.76453
2.76437
2.7642
2.76401
2.76382
2.76362
2.7634
2.76318
2.76294
2.76268
2.76242
2.76214
2.76185
2.76153
2.7612
2.76086
2.76051
2.76015
2.75978
2.75938
2.75897
2.75855
2.75812
2.75766
2.75717
2.75662
2.75601
2.75544
2.75493
2.75445
2.75398
2.7535
2.75302
2.75255
2.75207
2.75161
2.75116
2.75071
2.75028
2.74991
2.74953
2.74902
2.74836
2.74744
2.74629
2.74367
2.73636
2.71907
2.68677
2.63826
2.5754
2.5045
2.42793
2.35231
2.27544
2.20256
2.12984
2.06068
1.99239
1.92703
1.86347
1.80159
1.7426
1.68398
1.62917
1.5748
1.52358
1.47393
1.42624
1.38158
1.33683
1.2961
1.25475
1.21656
1.17929
1.14213
1.10917
1.07409
1.04388
1.01653
0.99703
0.987241
0.985964
0.984117
0.980354
0.979574
0.980216
0.980328
0.979562
0.977943
0.975894
0.973176
0.971463
0.971499
2.76486
2.76472
2.76457
2.76441
2.76425
2.76408
2.7639
2.76372
2.76353
2.76333
2.76313
2.76292
2.76269
2.76246
2.76222
2.76197
2.76171
2.76144
2.76116
2.76087
2.76056
2.76023
2.75987
2.75949
2.75909
2.75866
2.75822
2.75779
2.75737
2.75693
2.75647
2.75597
2.75546
2.75493
2.75435
2.75371
2.75311
2.75261
2.75215
2.7517
2.75125
2.75082
2.75039
2.74995
2.74951
2.74907
2.74868
2.74827
2.74779
2.74713
2.74619
2.74488
2.74283
2.73725
2.7231
2.69573
2.65107
2.59294
2.52253
2.44891
2.3715
2.29674
2.22178
2.15037
2.07977
2.01198
1.94617
1.88177
1.82047
1.7594
1.70183
1.64506
1.59113
1.53907
1.489
1.44166
1.39531
1.35152
1.30874
1.26817
1.22873
1.19101
1.15524
1.11912
1.08787
1.05529
1.02954
1.00973
0.993178
0.983953
0.979722
0.980223
0.979709
0.978715
0.978197
0.977243
0.975527
0.972477
0.970431
0.968695
2.76412
2.76396
2.7638
2.76363
2.76346
2.76327
2.76308
2.76288
2.76268
2.76246
2.76224
2.76201
2.76176
2.76151
2.76125
2.76098
2.7607
2.76041
2.76011
2.75981
2.75949
2.75918
2.75885
2.75851
2.75816
2.7578
2.75742
2.75703
2.75662
2.75618
2.75572
2.75524
2.75475
2.75424
2.75372
2.75321
2.75266
2.75202
2.75141
2.75093
2.75048
2.75005
2.74962
2.74918
2.74875
2.74827
2.7478
2.74732
2.74682
2.74629
2.74565
2.7447
2.74324
2.74133
2.73682
2.72572
2.70187
2.66284
2.60705
2.54101
2.46675
2.39174
2.31552
2.24152
2.16906
2.0985
2.03087
1.96377
1.90029
1.83693
1.77651
1.71781
1.66064
1.60684
1.55379
1.50438
1.45562
1.40939
1.36473
1.32151
1.28028
1.24061
1.2025
1.16535
1.13063
1.09472
1.06316
1.03296
1.00647
0.992688
0.984718
0.983305
0.98041
0.977793
0.977091
0.976398
0.974721
0.971841
0.96946
0.966668
2.76317
2.763
2.76282
2.76263
2.76243
2.76222
2.76201
2.76179
2.76157
2.76134
2.7611
2.76085
2.76059
2.76032
2.76004
2.75976
2.7595
2.75924
2.75898
2.75871
2.75843
2.75814
2.75784
2.75753
2.75721
2.75689
2.75655
2.75619
2.75581
2.75541
2.75499
2.75456
2.75411
2.75365
2.75316
2.75266
2.75213
2.75158
2.75102
2.75048
2.74996
2.7494
2.74881
2.74828
2.74779
2.7473
2.7468
2.74628
2.74572
2.74515
2.74453
2.74383
2.74277
2.74128
2.73938
2.73584
2.72669
2.70725
2.67183
2.62115
2.55677
2.48516
2.41008
2.33419
2.26039
2.18675
2.1175
2.04753
1.98199
1.91622
1.85344
1.79239
1.73285
1.67657
1.62128
1.56934
1.51823
1.46964
1.42247
1.37724
1.3335
1.29219
1.25164
1.21386
1.17627
1.1405
1.1066
1.07268
1.04429
1.0203
0.999929
0.987619
0.979058
0.977756
0.977067
0.974722
0.973133
0.971359
0.969055
0.965309
2.76197
2.7618
2.76161
2.76142
2.76122
2.761
2.76077
2.76053
2.76028
2.76003
2.75977
2.7595
2.75923
2.75896
2.75866
2.75835
2.75815
2.75797
2.75777
2.75754
2.75729
2.75703
2.75677
2.75651
2.75625
2.75598
2.75568
2.75538
2.75505
2.75471
2.75434
2.75396
2.75355
2.7531
2.75262
2.75209
2.75152
2.7509
2.75026
2.74964
2.74914
2.74864
2.74812
2.74759
2.74702
2.74639
2.74566
2.745
2.74438
2.74372
2.74308
2.74244
2.74166
2.74056
2.73907
2.73715
2.73408
2.72693
2.71038
2.67998
2.63301
2.57223
2.50252
2.42759
2.35307
2.27725
2.20553
2.13352
2.06514
1.99757
1.93219
1.86921
1.80724
1.74864
1.69116
1.63654
1.58334
1.53196
1.48277
1.43471
1.38929
1.34511
1.30321
1.26302
1.22397
1.18659