/*--------------------------------*- C++ -*----------------------------------*\
  =========                 |
  \\      /  F ield         | OpenFOAM: The Open Source CFD Toolbox
   \\    /   O peration     | Website:  https://openfoam.org
    \\  /    A nd           | Version:  7
     \\/     M anipulation  |
\*---------------------------------------------------------------------------*/
FoamFile
{
    version     2.0;
    format      ascii;
    class       volScalarField;
    location    "7.8";
    object      rho;
}
// * * * * * * * * * * * * * * * * * * * * * * * * * * * * * * * * * * * * * //

dimensions      [1 -3 0 0 0 0 0];

internalField   nonuniform List<scalar> 
8400
(
0.233454
0.326751
0.430845
0.517474
0.594956
0.660821
0.707963
0.759618
0.77977
0.800167
0.829733
0.849095
0.860076
0.885466
0.906771
0.923782
0.94413
0.963663
0.972667
0.970794
0.974393
0.979964
0.99108
1.00919
1.02919
1.05178
1.06933
1.08131
1.09258
1.09503
0.15629
0.1593
0.170329
0.195878
0.236793
0.300249
0.385599
0.475052
0.573071
0.658828
0.73154
0.807854
0.846651
0.869858
0.8772
0.879405
0.873623
0.859008
0.838191
0.837642
0.853244
0.882899
0.91537
0.937501
0.954476
0.970733
0.975381
0.97531
0.980355
1.00078
0.174339
0.175586
0.176064
0.176722
0.177423
0.177768
0.177529
0.183025
0.208221
0.25479
0.316789
0.41203
0.532978
0.627446
0.694611
0.748521
0.783915
0.801149
0.799924
0.803027
0.804597
0.8136
0.827957
0.844354
0.871325
0.891944
0.901939
0.905117
0.909963
0.927282
0.173066
0.172209
0.171177
0.170808
0.171107
0.171775
0.172963
0.173156
0.172269
0.168801
0.165166
0.165051
0.18093
0.223124
0.29818
0.400648
0.524531
0.650169
0.749663
0.800798
0.809641
0.80906
0.807803
0.811919
0.83453
0.847019
0.858184
0.870154
0.880747
0.895352
0.167851
0.166839
0.166389
0.166294
0.167797
0.170569
0.171439
0.171547
0.170895
0.167572
0.164712
0.165119
0.170141
0.180202
0.18706
0.188438
0.205239
0.2626
0.385076
0.550115
0.677027
0.760706
0.795912
0.823367
0.865663
0.854638
0.870504
0.894571
0.90216
0.907332
0.16626
0.165008
0.165005
0.165164
0.165975
0.168899
0.172326
0.175119
0.179683
0.181171
0.180924
0.184218
0.194248
0.210495
0.2243
0.225427
0.225026
0.2247
0.226853
0.243219
0.31484
0.444761
0.616083
0.752807
0.821921
0.859507
0.914074
0.95579
0.947048
0.941279
0.174824
0.178113
0.182645
0.187641
0.192332
0.196504
0.201899
0.209048
0.216938
0.222917
0.22538
0.228498
0.230923
0.236048
0.243587
0.243985
0.243645
0.245941
0.256174
0.270161
0.276679
0.279649
0.301662
0.382238
0.511853
0.692713
0.829044
0.91054
0.973313
1.03119
0.220312
0.225636
0.230381
0.234069
0.23595
0.235823
0.236524
0.239037
0.243278
0.249784
0.253932
0.253645
0.253368
0.255466
0.262274
0.272117
0.282021
0.293218
0.308201
0.32021
0.32646
0.326848
0.328114
0.328519
0.329686
0.354588
0.42804
0.591917
0.791017
0.980937
0.259252
0.26419
0.269343
0.27348
0.274189
0.271899
0.270864
0.271397
0.274783
0.28426
0.296163
0.305417
0.314268
0.32105
0.327798
0.336218
0.341039
0.343314
0.348603
0.3526
0.352495
0.351212
0.350692
0.353199
0.361407
0.374798
0.38263
0.385825
0.408041
0.600056
0.313036
0.32014
0.329293
0.340026
0.346372
0.347107
0.34477
0.341388
0.341753
0.346702
0.357602
0.367659
0.373996
0.374787
0.375668
0.376643
0.375117
0.370083
0.369821
0.372594
0.377369
0.384033
0.39503
0.406581
0.416748
0.420896
0.422442
0.423608
0.42452
0.427779
0.3825
0.38615
0.393403
0.405954
0.415942
0.417382
0.415034
0.408167
0.403319
0.403545
0.408449
0.416573
0.419948
0.419128
0.419005
0.421351
0.42706
0.43324
0.438772
0.446316
0.454845
0.459833
0.462164
0.4644
0.463634
0.462054
0.458222
0.458191
0.461857
0.472019
0.476649
0.475634
0.475694
0.477712
0.484774
0.493978
0.497463
0.496544
0.491503
0.486856
0.487598
0.492864
0.498557
0.500917
0.501807
0.504731
0.510047
0.510636
0.51034
0.510923
0.510837
0.509756
0.507102
0.503725
0.501555
0.503159
0.507346
0.515024
0.522047
0.526432
0.595062
0.589717
0.583222
0.577913
0.57498
0.576845
0.583403
0.5885
0.588613
0.583645
0.575895
0.575445
0.578263
0.578522
0.576101
0.572753
0.57051
0.567807
0.563239
0.559882
0.559181
0.559776
0.561581
0.563769
0.566793
0.569756
0.572423
0.574784
0.573164
0.567641
0.715114
0.717013
0.716159
0.710411
0.696222
0.684745
0.682817
0.686659
0.690269
0.688858
0.68143
0.673683
0.672946
0.673386
0.67049
0.66235
0.660853
0.661167
0.660014
0.657132
0.654151
0.651583
0.649008
0.645685
0.642037
0.636696
0.631318
0.624517
0.617354
0.61135
0.845449
0.850678
0.85355
0.8523
0.84408
0.82553
0.811042
0.807656
0.810805
0.810215
0.800827
0.7855
0.783236
0.784167
0.78171
0.769058
0.758248
0.754841
0.75128
0.745465
0.737528
0.730287
0.724373
0.718274
0.711903
0.705248
0.6999
0.6951
0.693126
0.688831
1.00016
1.00534
1.00911
1.00773
1.0015
0.984138
0.961301
0.949297
0.950836
0.951325
0.942157
0.918707
0.906992
0.90689
0.903995
0.890501
0.874725
0.866264
0.860033
0.851875
0.841811
0.830825
0.821659
0.813574
0.803579
0.795084
0.786977
0.779343
0.771802
0.756415
1.17866
1.18325
1.19005
1.18803
1.17709
1.15709
1.13084
1.11075
1.10671
1.1079
1.10083
1.07259
1.04972
1.0476
1.04359
1.02758
1.00707
0.99339
0.98303
0.970908
0.957734
0.942171
0.927783
0.915524
0.902549
0.888344
0.874748
0.860654
0.84712
0.826057
1.37848
1.37562
1.38223
1.38572
1.37767
1.35313
1.32307
1.2936
1.27909
1.28003
1.27297
1.24238
1.21041
1.20482
1.19911
1.17996
1.15424
1.13504
1.11943
1.10334
1.08526
1.06552
1.04598
1.02818
1.01117
0.992613
0.974714
0.957188
0.942459
0.91762
1.61248
1.59946
1.60194
1.60104
1.58835
1.56572
1.53941
1.50034
1.47759
1.47508
1.46306
1.42768
1.38843
1.37749
1.36801
1.34574
1.31602
1.29076
1.2679
1.24609
1.224
1.20048
1.17533
1.15208
1.13015
1.1077
1.0851
1.06209
1.0421
1.00902
1.89046
1.86936
1.85845
1.8464
1.82591
1.80258
1.77892
1.74592
1.71218
1.69422
1.67606
1.64042
1.60049
1.57708
1.55478
1.5257
1.4937
1.4615
1.4316
1.40307
1.37509
1.34684
1.3175
1.28818
1.26081
1.23329
1.20576
1.17825
1.154
1.11386
2.05298
2.04545
2.03555
2.02628
2.01591
2.00596
1.99461
1.97757
1.95444
1.92937
1.90783
1.8818
1.84315
1.80856
1.77747
1.74152
1.70421
1.66533
1.62417
1.58623
1.54945
1.51231
1.47662
1.44034
1.4053
1.37182
1.33851
1.30475
1.27607
1.2282
2.05341
2.05054
2.04737
2.04677
2.04915
2.04963
2.04934
2.04599
2.03976
2.03602
2.03301
2.02676
2.01509
2.00068
1.98132
1.95452
1.92379
1.89042
1.85111
1.80765
1.76324
1.7163
1.6684
1.62155
1.5751
1.53083
1.48888
1.44642
1.41068
1.35311
1.96453
1.96413
1.9567
1.95839
1.97599
1.99408
2.00872
2.01916
2.01927
2.01933
2.02479
2.02441
2.02144
2.02184
2.02279
2.0217
2.01756
2.00982
1.99946
1.98324
1.95949
1.92791
1.88762
1.84037
1.78738
1.73165
1.6765
1.62054
1.57246
1.49722
1.65708
1.6776
1.69008
1.70315
1.72963
1.75875
1.78313
1.81441
1.83799
1.86263
1.89371
1.9145
1.93485
1.95699
1.96919
1.98221
1.99703
2.00176
2.00116
2.00095
2.00018
1.99743
1.9909
1.97905
1.95922
1.92832
1.88577
1.83201
1.77692
1.68042
1.43311
1.44026
1.44847
1.45597
1.46461
1.47674
1.49094
1.50949
1.5329
1.556
1.58287
1.61408
1.6501
1.68936
1.73069
1.76905
1.81281
1.85251
1.88893
1.92008
1.94216
1.96372
1.97383
1.978
1.97787
1.97647
1.9714
1.95943
1.93969
1.87486
1.40095
1.40123
1.40163
1.40212
1.40273
1.40358
1.40481
1.40652
1.40924
1.41273
1.41753
1.42403
1.4335
1.44636
1.46353
1.48584
1.51367
1.55076
1.59202
1.64315
1.69504
1.75124
1.80547
1.85293
1.89775
1.92362
1.94245
1.95473
1.95453
1.94656
1.40001
1.40002
1.40002
1.40003
1.40003
1.40004
1.40006
1.40009
1.40014
1.40021
1.40033
1.40054
1.40088
1.40149
1.40249
1.40424
1.40703
1.41201
1.41971
1.43213
1.45128
1.47802
1.51672
1.5653
1.62385
1.69105
1.75609
1.81767
1.86653
1.91098
1.40001
1.40001
1.40001
1.40001
1.40001
1.40001
1.40001
1.40001
1.40001
1.40001
1.40001
1.40001
1.40001
1.40002
1.40003
1.40005
1.4001
1.40019
1.4004
1.40085
1.40179
1.40376
1.40767
1.4153
1.42893
1.45226
1.48831
1.54055
1.60103
1.71312
1.40001
1.40001
1.40001
1.40001
1.40001
1.40001
1.40001
1.40001
1.40001
1.40001
1.40001
1.40001
1.40001
1.40001
1.40001
1.40001
1.40001
1.40001
1.40001
1.40001
1.40002
1.40004
1.40011
1.40029
1.40076
1.402
1.40495
1.412
1.42434
1.47478
1.40001
1.40001
1.40001
1.40001
1.40001
1.40001
1.40001
1.40001
1.40001
1.40001
1.40001
1.40001
1.40001
1.40001
1.40001
1.40001
1.40001
1.40001
1.40001
1.40001
1.40001
1.40001
1.40001
1.40001
1.40001
1.40002
1.40007
1.40023
1.40065
1.40519
0.148994
0.153932
0.172397
0.173486
0.168536
0.168533
0.172918
0.215196
0.254455
0.308771
0.381297
0.484002
0.597414
0.711371
0.842854
1.00545
1.19515
1.41782
1.67264
1.92943
2.0583
2.05429
1.93998
1.61509
1.42542
1.40073
1.40001
1.40001
1.40001
1.40001
0.150103
0.156076
0.172808
0.171145
0.16664
0.170298
0.179955
0.22091
0.26113
0.321832
0.413696
0.516299
0.618507
0.735522
0.892496
1.08116
1.28841
1.51148
1.75394
1.981
2.06573
2.04442
1.86721
1.55749
1.41428
1.40028
1.40001
1.40001
1.40001
1.40001
0.151344
0.156181
0.169707
0.168542
0.165617
0.170889
0.18784
0.22729
0.27341
0.345838
0.435487
0.525799
0.631581
0.776861
0.954363
1.1404
1.34033
1.5589
1.80074
2.01062
2.06906
2.02493
1.81873
1.52214
1.40882
1.40015
1.40001
1.40001
1.40001
1.40001
0.151812
0.155179
0.168799
0.167377
0.164511
0.17179
0.19835
0.242669
0.295596
0.361441
0.44187
0.534718
0.66462
0.829458
0.990425
1.16908
1.37015
1.59532
1.84692
2.03999
2.0726
2.01318
1.77991
1.49029
1.40487
1.40007
1.40001
1.40001
1.40001
1.40001
0.151236
0.154207
0.169006
0.166748
0.16403
0.174263
0.206042
0.251682
0.305477
0.365754
0.445534
0.556579
0.708449
0.852116
1.00681
1.1902
1.401
1.64423
1.90998
2.06829
2.07533
2.00863
1.72777
1.45773
1.40233
1.40003
1.40001
1.40001
1.40001
1.40001
0.150079
0.153724
0.169524
0.165181
0.162806
0.17496
0.208146
0.253897
0.308828
0.371104
0.458306
0.598537
0.731098
0.862524
1.02802
1.23873
1.48107
1.73559
1.97641
2.08342
2.07799
1.96543
1.64807
1.43437
1.40109
1.40002
1.40001
1.40001
1.40001
1.40001
0.149348
0.153141
0.16949
0.162742
0.160164
0.174738
0.206704
0.252776
0.310537
0.386897
0.503358
0.627108
0.746449
0.895078
1.10769
1.33271
1.5662
1.80481
2.01517
2.08807
2.06882
1.89836
1.59078
1.4217
1.40054
1.40001
1.40001
1.40001
1.40001
1.40001
0.148667
0.152572
0.167625
0.160579
0.157531
0.174249
0.204823
0.25295
0.32537
0.422807
0.534243
0.642206
0.775058
0.979355
1.17984
1.38714
1.61268
1.8509
2.04401
2.08944
2.04771
1.85583
1.54936
1.41277
1.40025
1.40001
1.40001
1.40001
1.40001
1.40001
0.148082
0.152457
0.163516
0.15911
0.156727
0.174635
0.210732
0.277041
0.357624
0.443164
0.542848
0.660961
0.842801
1.02802
1.21434
1.42267
1.65757
1.90957
2.07404
2.0903
2.03208
1.81155
1.50392
1.40638
1.4001
1.40001
1.40001
1.40001
1.40001
1.40001
0.147936
0.152881
0.161059
0.158814
0.15899
0.18192
0.229949
0.296159
0.369317
0.447808
0.550173
0.704864
0.886708
1.05351
1.24359
1.47369
1.73487
1.98351
2.09457
2.09287
2.02203
1.73724
1.46447
1.40303
1.40004
1.40001
1.40001
1.40001
1.40001
1.40001
0.148042
0.154007
0.160595
0.159251
0.165321
0.192786
0.241314
0.30055
0.370486
0.454531
0.575194
0.758151
0.914151
1.08291
1.31937
1.57733
1.82961
2.0355
2.10341
2.0962
1.97879
1.65863
1.43947
1.40142
1.40002
1.40001
1.40001
1.40001
1.40001
1.40001
0.148466
0.154865
0.160927
0.15901
0.168397
0.197867
0.244661
0.303769
0.370096
0.479165
0.642308
0.793093
0.945431
1.1759
1.42032
1.65861
1.89018
2.06596
2.10686
2.08401
1.90429
1.59681
1.42301
1.40061
1.40001
1.40001
1.40001
1.40001
1.40001
1.40001
0.149013
0.155165
0.161631
0.156349
0.167885
0.198617
0.245722
0.310599
0.406252
0.538022
0.682251
0.825763
1.03216
1.26029
1.48145
1.71499
1.94366
2.09085
2.10761
2.05649
1.85236
1.54407
1.41216
1.40025
1.40001
1.40001
1.40001
1.40001
1.40001
1.40001
0.148329
0.152994
0.161377
0.15313
0.161074
0.197596
0.251523
0.343103
0.458757
0.574795
0.704459
0.875614
1.10279
1.30915
1.53113
1.7837
2.00641
2.10966
2.10443
2.03435
1.79685
1.49572
1.40607
1.4001
1.40001
1.40001
1.40001
1.40001
1.40001
1.40001
0.14464
0.149404
0.15923
0.152013
0.158126
0.208932
0.283985
0.381045
0.483959
0.587182
0.729869
0.945926
1.14777
1.35642
1.61448
1.87619
2.06034
2.11773
2.10259
2.01178
1.71439
1.45824
1.4027
1.40004
1.40001
1.40001
1.40001
1.40001
1.40001
1.40001
0.140945
0.147185
0.157233
0.151765
0.163997
0.230318
0.30253
0.390461
0.488319
0.604544
0.789801
0.998001
1.19387
1.45761
1.72272
1.95214
2.09624
2.12105
2.10736
1.96168
1.63341
1.43258
1.40109
1.40002
1.40001
1.40001
1.40001
1.40001
1.40001
1.40001
0.139198
0.146493
0.156873
0.153242
0.173147
0.237186
0.305794
0.392307
0.488411
0.655437
0.865631
1.05284
1.29762
1.56669
1.80367
2.00918
2.11705
2.12237
2.08927
1.87548
1.56502
1.41675
1.40043
1.40001
1.40001
1.40001
1.40001
1.40001
1.40001
1.40001
0.138943
0.146783
0.158166
0.157564
0.176404
0.236098
0.304801
0.397075
0.546327
0.744187
0.920622
1.13234
1.40237
1.64469
1.87488
2.05935
2.12445
2.12069
2.03991
1.8025
1.50957
1.40801
1.40016
1.40001
1.40001
1.40001
1.40001
1.40001
1.40001
1.40001
0.14131
0.146928
0.158244
0.158988
0.180279
0.236212
0.32035
0.456088
0.634091
0.792929
0.975479
1.23322
1.47738
1.72051
1.95553
2.09621
2.1266
2.10771
2.00243
1.73161
1.4674
1.40364
1.40006
1.40001
1.40001
1.40001
1.40001
1.40001
1.40001
1.40001
0.148857
0.145835
0.154883
0.157377
0.192925
0.270329
0.384267
0.524408
0.6716
0.826272
1.05216
1.31379
1.55858
1.8249
2.02784
2.11942
2.12839
2.0954
1.96434
1.64896
1.43767
1.40144
1.40002
1.40001
1.40001
1.40001
1.40001
1.40001
1.40001
1.40001
0.154956
0.142876
0.149705
0.155654
0.212771
0.310942
0.421399
0.549483
0.69278
0.885743
1.15426
1.40205
1.68016
1.92036
2.08147
2.1332
2.13269
2.09562
1.89966
1.56927
1.41798
1.40049
1.40001
1.40001
1.40001
1.40001
1.40001
1.40001
1.40001
1.40001
0.15722
0.137825
0.144276
0.164624
0.232341
0.326756
0.431319
0.564716
0.741095
1.00747
1.25248
1.5183
1.78914
1.99408
2.1167
2.13907
2.13513
2.07121
1.79321
1.50197
1.40744
1.40016
1.40001
1.40001
1.40001
1.40001
1.40001
1.40001
1.40001
1.40001
0.155444
0.132244
0.142284
0.181487
0.241582
0.32698
0.433725
0.608974
0.871764
1.112
1.3517
1.63747
1.87822
2.05442
2.1332
2.14005
2.12283
1.98455
1.69855
1.45877
1.40308
1.40005
1.40001
1.40001
1.40001
1.40001
1.40001
1.40001
1.40001
1.40001
0.152062
0.127285
0.144573
0.193021
0.244619
0.32559
0.494546
0.735711
0.974741
1.19377
1.46718
1.74257
1.96554
2.09872
2.13935
2.13393
2.08989
1.92042
1.62153
1.43133
1.40117
1.40002
1.40001
1.40001
1.40001
1.40001
1.40001
1.40001
1.40001
1.40001
0.149121
0.123279
0.146964
0.197041
0.258978
0.403909
0.61038
0.825009
1.03679
1.28749
1.59151
1.85475
2.0448
2.12579
2.14164
2.12532
2.05908
1.85857
1.54691
1.41439
1.40038
1.40001
1.40001
1.40001
1.40001
1.40001
1.40001
1.40001
1.40001
1.40001
0.145117
0.120278
0.144519
0.202113
0.308663
0.496038
0.678324
0.880806
1.12182
1.43886
1.72392
1.96304
2.10006
2.14076
2.14288
2.12884
2.03973
1.76256
1.48094
1.40532
1.40011
1.40001
1.40001
1.40001
1.40001
1.40001
1.40001
1.40001
1.40001
1.40001
0.141822
0.119042
0.138951
0.224225
0.3763
0.541276
0.720427
0.965668
1.29393
1.59379
1.85185
2.04117
2.13249
2.14719
2.14476
2.12911
1.97895
1.64128
1.43735
1.40163
1.40003
1.40001
1.40001
1.40001
1.40001
1.40001
1.40001
1.40001
1.40001
1.40001
0.140776
0.119749
0.142477
0.262313
0.419207
0.574498
0.808243
1.14213
1.46287
1.73102
1.95879
2.09334
2.14543
2.14912
2.1406
2.07913
1.84644
1.55061
1.41662
1.40051
1.40001
1.40001
1.40001
1.40001
1.40001
1.40001
1.40001
1.40001
1.40001
1.40001
0.133124
0.119334
0.17607
0.303003
0.457663
0.662508
0.986287
1.31582
1.59941
1.85917
2.04265
2.12572
2.14852
2.14683
2.12613
2.01317
1.75545
1.4918
1.40673
1.40015
1.40001
1.40001
1.40001
1.40001
1.40001
1.40001
1.40001
1.40001
1.40001
1.40001
0.114119
0.117334
0.200518
0.339384
0.523154
0.833263
1.1507
1.45581
1.745
1.97599
2.10123
2.14315
2.14923
2.13897
2.10243
1.96172
1.67132
1.44619
1.40225
1.40004
1.40001
1.40001
1.40001
1.40001
1.40001
1.40001
1.40001
1.40001
1.40001
1.40001
0.094552
0.118641
0.216562
0.403691
0.66693
0.983723
1.2984
1.62342
1.90698
2.06087
2.1302
2.15146
2.15042
2.13875
2.08806
1.89024
1.55998
1.41718
1.40057
1.40001
1.40001
1.40001
1.40001
1.40001
1.40001
1.40001
1.40001
1.40001
1.40001
1.40001
0.0736091
0.14198
0.261321
0.497681
0.817206
1.13815
1.49666
1.81613
2.02761
2.10732
2.13996
2.15383
2.15373
2.14363
2.05449
1.74297
1.47377
1.40514
1.40012
1.40001
1.40001
1.40001
1.40001
1.40001
1.40001
1.40001
1.40001
1.40001
1.40001
1.40001
0.049769
0.160831
0.345221
0.636846
0.988352
1.35904
1.71649
1.96388
2.1019
2.12653
2.14294
2.15285
2.1524
2.11734
1.91843
1.60741
1.43182
1.40141
1.40003
1.40001
1.40001
1.40001
1.40001
1.40001
1.40001
1.40001
1.40001
1.40001
1.40001
1.40001
0.0292274
0.172208
0.46835
0.828673
1.21389
1.60533
1.89623
2.06436
2.13856
2.13219
2.14693
2.14885
2.1384
2.04744
1.80391
1.52558
1.41241
1.40036
1.40001
1.40001
1.40001
1.40001
1.40001
1.40001
1.40001
1.40001
1.40001
1.40001
1.40001
1.40001
0.0216254
0.252065
0.636602
1.06386
1.48363
1.81747
2.02824
2.12302
2.14798
2.13466
2.15336
2.14513
2.11201
1.98441
1.70544
1.46137
1.4036
1.40008
1.40001
1.40001
1.40001
1.40001
1.40001
1.40001
1.40001
1.40001
1.40001
1.40001
1.40001
1.40001
0.06125
0.426728
0.862603
1.33836
1.74114
1.99094
2.10688
2.14578
2.15054
2.13487
2.1558
2.14763
2.09017
1.90375
1.57505
1.42008
1.40075
1.40002
1.40001
1.40001
1.40001
1.40001
1.40001
1.40001
1.40001
1.40001
1.40001
1.40001
1.40001
1.40001
0.184694
0.614321
1.18138
1.66366
1.95933
2.09625
2.13819
2.15261
2.15213
2.13415
2.15613
2.14879
2.06305
1.73967
1.46747
1.40454
1.40011
1.40001
1.40001
1.40001
1.40001
1.40001
1.40001
1.40001
1.40001
1.40001
1.40001
1.40001
1.40001
1.40001
0.403821
0.939769
1.55472
1.92917
2.08821
2.13559
2.14699
2.15537
2.1543
2.13315
2.15269
2.11736
1.913
1.57502
1.4212
1.4008
1.40002
1.40001
1.40001
1.40001
1.40001
1.40001
1.40001
1.40001
1.40001
1.40001
1.40001
1.40001
1.40001
1.40001
0.770372
1.41328
1.89261
2.08456
2.13561
2.14478
2.15031
2.15806
2.15496
2.13066
2.13415
2.04425
1.75499
1.47998
1.40528
1.40011
1.40001
1.40001
1.40001
1.40001
1.40001
1.40001
1.40001
1.40001
1.40001
1.40001
1.40001
1.40001
1.40001
1.40001
1.40943
1.87243
2.09576
2.14229
2.14504
2.14649
2.15331
2.15992
2.15327
2.12687
2.11265
1.95768
1.60939
1.42298
1.40062
1.40001
1.40001
1.40001
1.40001
1.40001
1.40001
1.40001
1.40001
1.40001
1.40001
1.40001
1.40001
1.40001
1.40001
1.40001
2.15311
2.15347
2.15164
2.14939
2.14566
2.14802
2.15545
2.16059
2.14836
2.11737
2.09177
1.80254
1.45968
1.39931
1.39992
1.4
1.40001
1.40001
1.40001
1.40001
1.40001
1.40001
1.40001
1.40001
1.40001
1.40001
1.40001
1.40001
1.40001
1.40001
2.15248
2.15258
2.15163
2.15044
2.14662
2.14568
2.15229
2.16023
2.15468
2.12063
2.0676
1.72618
1.45802
1.40254
1.40003
1.40001
1.40001
1.40001
1.40001
1.40001
1.40001
1.40001
1.40001
1.40001
1.40001
1.40001
1.40001
1.40001
1.40001
1.40001
2.15117
2.15111
2.15238
2.15222
2.14834
2.14476
2.14782
2.15836
2.15542
2.10915
1.9888
1.63235
1.42193
1.40035
1.40001
1.40001
1.40001
1.40001
1.40001
1.40001
1.40001
1.40001
1.40001
1.40001
1.40001
1.40001
1.40001
1.40001
1.40001
1.40001
2.15052
2.15004
2.15282
2.15417
2.15088
2.14356
2.14311
2.15584
2.15583
2.10147
1.92392
1.55614
1.40952
1.40012
1.40001
1.40001
1.40001
1.40001
1.40001
1.40001
1.40001
1.40001
1.40001
1.40001
1.40001
1.40001
1.40001
1.40001
1.40001
1.40001
2.15027
2.14955
2.1526
2.15532
2.15288
2.14333
2.13791
2.15073
2.15805
2.10371
1.83141
1.48835
1.4035
1.40004
1.40001
1.40001
1.40001
1.40001
1.40001
1.40001
1.40001
1.40001
1.40001
1.40001
1.40001
1.40001
1.40001
1.40001
1.40001
1.40001
2.15043
2.14929
2.15167
2.15534
2.15327
2.14419
2.13368
2.14367
2.15427
2.05797
1.73179
1.44839
1.40127
1.40001
1.40001
1.40001
1.40001
1.40001
1.40001
1.40001
1.40001
1.40001
1.40001
1.40001
1.40001
1.40001
1.40001
1.40001
1.40001
1.40001
2.1507
2.14913
2.14975
2.15322
2.15311
2.14698
2.13293
2.14098
2.1407
1.99007
1.64252
1.42287
1.40039
1.40001
1.40001
1.40001
1.40001
1.40001
1.40001
1.40001
1.40001
1.40001
1.40001
1.40001
1.40001
1.40001
1.40001
1.40001
1.40001
1.40001
2.15113
2.14932
2.14857
2.15018
2.15182
2.15178
2.13897
2.14312
2.13519
1.92607
1.55882
1.40961
1.40012
1.40001
1.40001
1.40001
1.40001
1.40001
1.40001
1.40001
1.40001
1.40001
1.40001
1.40001
1.40001
1.40001
1.40001
1.40001
1.40001
1.40001
2.15262
2.15089
2.14765
2.14591
2.14912
2.15621
2.15021
2.14161
2.12002
1.83046
1.4865
1.40337
1.40003
1.40001
1.40001
1.40001
1.40001
1.40001
1.40001
1.40001
1.40001
1.40001
1.40001
1.40001
1.40001
1.40001
1.40001
1.40001
1.40001
1.40001
2.15381
2.15275
2.1472
2.14226
2.14565
2.15799
2.16018
2.13148
2.05122
1.72104
1.44455
1.40111
1.40001
1.40001
1.40001
1.40001
1.40001
1.40001
1.40001
1.40001
1.40001
1.40001
1.40001
1.40001
1.40001
1.40001
1.40001
1.40001
1.40001
1.40001
2.15422
2.15356
2.14883
2.14018
2.14061
2.15913
2.16639
2.12458
1.99077
1.63368
1.42048
1.40033
1.40001
1.40001
1.40001
1.40001
1.40001
1.40001
1.40001
1.40001
1.40001
1.40001
1.40001
1.40001
1.40001
1.40001
1.40001
1.40001
1.40001
1.40001
2.15409
2.15352
2.14953
2.13929
2.13643
2.15796
2.16866
2.12423
1.91981
1.54136
1.40763
1.40009
1.40001
1.40001
1.40001
1.40001
1.40001
1.40001
1.40001
1.40001
1.40001
1.40001
1.40001
1.40001
1.40001
1.40001
1.40001
1.40001
1.40001
1.40001
2.15317
2.15176
2.14941
2.14145
2.13462
2.15702
2.16744
2.08684
1.81335
1.47573
1.40262
1.40002
1.40001
1.40001
1.40001
1.40001
1.40001
1.40001
1.40001
1.40001
1.40001
1.40001
1.40001
1.40001
1.40001
1.40001
1.40001
1.40001
1.40001
1.40001
2.15208
2.14902
2.14817
2.14436
2.13522
2.15973
2.16574
2.03499
1.70711
1.43769
1.4008
1.40001
1.40001
1.40001
1.40001
1.40001
1.40001
1.40001
1.40001
1.40001
1.40001
1.40001
1.40001
1.40001
1.40001
1.40001
1.40001
1.40001
1.40001
1.40001
2.15163
2.14617
2.1477
2.1472
2.14335
2.16346
2.16683
1.98211
1.60099
1.41476
1.40021
1.40001
1.40001
1.40001
1.40001
1.40001
1.40001
1.40001
1.40001
1.40001
1.40001
1.40001
1.40001
1.40001
1.40001
1.40001
1.40001
1.40001
1.40001
1.40001
2.15104
2.14348
2.14403
2.15209
2.15342
2.15665
2.14251
1.88081
1.51018
1.40498
1.40005
1.40001
1.40001
1.40001
1.40001
1.40001
1.40001
1.40001
1.40001
1.40001
1.40001
1.40001
1.40001
1.40001
1.40001
1.40001
1.40001
1.40001
1.40001
1.40001
2.15112
2.14165
2.13902
2.15566
2.17193
2.14403
2.08265
1.76893
1.45805
1.40159
1.40002
1.40001
1.40001
1.40001
1.40001
1.40001
1.40001
1.40001
1.40001
1.40001
1.40001
1.40001
1.40001
1.40001
1.40001
1.40001
1.40001
1.40001
1.40001
1.40001
2.15035
2.14099
2.13652
2.16696
2.18258
2.14122
2.02885
1.66215
1.4244
1.40042
1.40001
1.40001
1.40001
1.40001
1.40001
1.40001
1.40001
1.40001
1.40001
1.40001
1.40001
1.40001
1.40001
1.40001
1.40001
1.40001
1.40001
1.40001
1.40001
1.40001
2.14655
2.1406
2.13579
2.17598
2.18874
2.13944
1.94802
1.54922
1.40835
1.4001
1.40001
1.40001
1.40001
1.40001
1.40001
1.40001
1.40001
1.40001
1.40001
1.40001
1.40001
1.40001
1.40001
1.40001
1.40001
1.40001
1.40001
1.40001
1.40001
1.40001
2.14017
2.13967
2.13653
2.18319
2.19255
2.09852
1.82481
1.47934
1.40273
1.40002
1.40001
1.40001
1.40001
1.40001
1.40001
1.40001
1.40001
1.40001
1.40001
1.40001
1.40001
1.40001
1.40001
1.40001
1.40001
1.40001
1.40001
1.40001
1.40001
1.40001
2.13374
2.14234
2.14467
2.18867
2.19496
2.0545
1.70694
1.43489
1.40069
1.40001
1.40001
1.40001
1.40001
1.40001
1.40001
1.40001
1.40001
1.40001
1.40001
1.40001
1.40001
1.40001
1.40001
1.40001
1.40001
1.40001
1.40001
1.40001
1.40001
1.40001
2.1263
2.14576
2.15434
2.18767
2.19469
1.99096
1.58069
1.41166
1.40015
1.40001
1.40001
1.40001
1.40001
1.40001
1.40001
1.40001
1.40001
1.40001
1.40001
1.40001
1.40001
1.40001
1.40001
1.40001
1.40001
1.40001
1.40001
1.40001
1.40001
1.40001
2.12183
2.15125
2.17258
2.17437
2.15252
1.85967
1.49487
1.40366
1.40003
1.40001
1.40001
1.40001
1.40001
1.40001
1.40001
1.40001
1.40001
1.40001
1.40001
1.40001
1.40001
1.40001
1.40001
1.40001
1.40001
1.40001
1.40001
1.40001
1.40001
1.40001
2.12075
2.16573
2.20091
2.16303
2.08999
1.74317
1.44422
1.40097
1.40001
1.40001
1.40001
1.40001
1.40001
1.40001
1.40001
1.40001
1.40001
1.40001
1.40001
1.40001
1.40001
1.40001
1.40001
1.40001
1.40001
1.40001
1.40001
1.40001
1.40001
1.40001
2.12403
2.18499
2.21552
2.16668
2.02016
1.60668
1.41439
1.4002
1.40001
1.40001
1.40001
1.40001
1.40001
1.40001
1.40001
1.40001
1.40001
1.40001
1.40001
1.40001
1.40001
1.40001
1.40001
1.40001
1.40001
1.40001
1.40001
1.40001
1.40001
1.40001
2.13509
2.19659
2.22233
2.14983
1.8915
1.50314
1.40424
1.40004
1.40001
1.40001
1.40001
1.40001
1.40001
1.40001
1.40001
1.40001
1.40001
1.40001
1.40001
1.40001
1.40001
1.40001
1.40001
1.40001
1.40001
1.40001
1.40001
1.40001
1.40001
1.40001
2.14853
2.20123
2.22593
2.0915
1.75052
1.44659
1.40108
1.40001
1.40001
1.40001
1.40001
1.40001
1.40001
1.40001
1.40001
1.40001
1.40001
1.40001
1.40001
1.40001
1.40001
1.40001
1.40001
1.40001
1.40001
1.40001
1.40001
1.40001
1.40001
1.40001
2.16643
2.20877
2.22964
2.02962
1.61114
1.415
1.40021
1.40001
1.40001
1.40001
1.40001
1.40001
1.40001
1.40001
1.40001
1.40001
1.40001
1.40001
1.40001
1.40001
1.40001
1.40001
1.40001
1.40001
1.40001
1.40001
1.40001
1.40001
1.40001
1.40001
2.19527
2.21569
2.20636
1.88943
1.49967
1.40402
1.40004
1.40001
1.40001
1.40001
1.40001
1.40001
1.40001
1.40001
1.40001
1.40001
1.40001
1.40001
1.40001
1.40001
1.40001
1.40001
1.40001
1.40001
1.40001
1.40001
1.40001
1.40001
1.40001
1.40001
2.25554
2.19294
2.12318
1.73294
1.44423
1.40104
1.40001
1.40001
1.40001
1.40001
1.40001
1.40001
1.40001
1.40001
1.40001
1.40001
1.40001
1.40001
1.40001
1.40001
1.40001
1.40001
1.40001
1.40001
1.40001
1.40001
1.40001
1.40001
1.40001
1.40001
2.32963
2.15146
2.03099
1.5995
1.4144
1.40022
1.40001
1.40001
1.40001
1.40001
1.40001
1.40001
1.40001
1.40001
1.40001
1.40001
1.40001
1.40001
1.40001
1.40001
1.40001
1.40001
1.40001
1.40001
1.40001
1.40001
1.40001
1.40001
1.40001
1.40001
2.38577
2.11843
1.86618
1.49131
1.4039
1.40005
1.40001
1.40001
1.40001
1.40001
1.40001
1.40001
1.40001
1.40001
1.40001
1.40001
1.40001
1.40001
1.40001
1.40001
1.40001
1.40001
1.40001
1.40001
1.40001
1.40001
1.40001
1.40001
1.40001
1.40001
2.41027
2.04271
1.7104
1.4399
1.40108
1.40001
1.40001
1.40001
1.40001
1.40001
1.40001
1.40001
1.40001
1.40001
1.40001
1.40001
1.40001
1.40001
1.40001
1.40001
1.40001
1.40001
1.40001
1.40001
1.40001
1.40001
1.40001
1.40001
1.40001
1.40001
2.41766
1.94398
1.58515
1.41422
1.40025
1.40001
1.40001
1.40001
1.40001
1.40001
1.40001
1.40001
1.40001
1.40001
1.40001
1.40001
1.40001
1.40001
1.40001
1.40001
1.40001
1.40001
1.40001
1.40001
1.40001
1.40001
1.40001
1.40001
1.40001
1.40001
2.35249
1.82298
1.49433
1.40442
1.40006
1.40001
1.40001
1.40001
1.40001
1.40001
1.40001
1.40001
1.40001
1.40001
1.40001
1.40001
1.40001
1.40001
1.40001
1.40001
1.40001
1.40001
1.40001
1.40001
1.40001
1.40001
1.40001
1.40001
1.40001
1.40001
2.22441
1.70784
1.44586
1.40131
1.40002
1.40001
1.40001
1.40001
1.40001
1.40001
1.40001
1.40001
1.40001
1.40001
1.40001
1.40001
1.40001
1.40001
1.40001
1.40001
1.40001
1.40001
1.40001
1.40001
1.40001
1.40001
1.40001
1.40001
1.40001
1.40001
2.11346
1.59813
1.41634
1.40028
1.40001
1.40001
1.40001
1.40001
1.40001
1.40001
1.40001
1.40001
1.40001
1.40001
1.40001
1.40001
1.40001
1.40001
1.40001
1.40001
1.40001
1.40001
1.40001
1.40001
1.40001
1.40001
1.40001
1.40001
1.40001
1.40001
1.95339
1.4993
1.40454
1.40005
1.40001
1.40001
1.40001
1.40001
1.40001
1.40001
1.40001
1.40001
1.40001
1.40001
1.40001
1.40001
1.40001
1.40001
1.40001
1.40001
1.40001
1.40001
1.40001
1.40001
1.40001
1.40001
1.40001
1.40001
1.40001
1.40001
1.74682
1.44054
1.40088
1.40001
1.40001
1.40001
1.40001
1.40001
1.40001
1.40001
1.40001
1.40001
1.40001
1.40001
1.40001
1.40001
1.40001
1.40001
1.40001
1.40001
1.40001
1.40001
1.40001
1.40001
1.40001
1.40001
1.40001
1.40001
1.40001
1.40001
1.53208
1.40885
1.40008
1.40001
1.40001
1.40001
1.40001
1.40001
1.40001
1.40001
1.40001
1.40001
1.40001
1.40001
1.40001
1.40001
1.40001
1.40001
1.40001
1.40001
1.40001
1.40001
1.40001
1.40001
1.40001
1.40001
1.40001
1.40001
1.40001
1.40001
1.40001
1.40001
1.40001
1.40001
1.40001
1.40001
1.40001
1.40001
1.40001
1.40001
1.40001
1.40001
1.40001
1.40001
1.40001
1.40001
1.40001
1.40001
1.40001
1.40001
1.40001
1.40001
1.40001
1.40001
1.40001
1.40001
1.40001
1.40001
1.40001
1.40001
1.40001
1.40001
1.40001
1.40001
1.40001
1.40001
1.40001
1.40001
1.40001
1.40001
1.40001
1.40001
1.40001
1.40001
1.40001
1.40001
1.40001
1.40001
1.40001
1.40001
1.40001
1.40001
1.40001
1.40001
1.40001
1.40001
1.40001
1.40001
1.40001
1.40001
1.40001
1.40001
1.40001
1.40001
1.40001
1.40001
1.40001
1.40001
1.40001
1.40001
1.40001
1.40001
1.40001
1.40001
1.40001
1.40001
1.40001
1.40001
1.40001
1.40001
1.40001
1.40001
1.40001
1.40001
1.40001
1.40001
1.40001
1.40001
1.40001
1.40001
1.40001
1.40001
1.40001
1.40001
1.40001
1.40001
1.40001
1.40001
1.40001
1.40001
1.40001
1.40001
1.40001
1.40001
1.40001
1.40001
1.40001
1.40001
1.40001
1.40001
1.40001
1.40001
1.40001
1.40001
1.40001
1.40001
1.40001
1.40001
1.40001
1.40001
1.40001
1.40001
1.40001
1.40001
1.40001
1.40001
1.40001
1.40001
1.40001
1.40001
1.40001
1.40001
1.40001
1.40001
1.40001
1.40001
1.40001
1.40001
1.40001
1.40001
1.40001
1.40001
1.40001
1.40001
1.40001
1.40001
1.40001
1.40001
1.40001
1.40001
1.40001
1.40001
1.40001
1.40001
1.40001
1.40001
1.40001
1.40001
1.40001
1.40001
1.40001
1.40001
1.40001
1.40001
1.40001
1.40001
1.40001
1.40001
1.40001
1.40001
1.40001
1.40001
1.40001
1.40001
1.40001
1.40001
1.40001
1.40001
1.40001
1.40001
1.40001
1.40001
1.40001
1.40001
1.40001
1.40001
1.40001
1.40001
1.40001
1.40001
1.40001
1.40001
1.40001
1.40001
1.40001
1.40001
1.40001
1.40001
1.40001
1.40001
1.40001
1.40001
1.40001
1.40001
1.40001
1.40001
1.40001
1.40001
1.40001
1.40001
1.40001
1.40001
1.40001
1.40001
1.40001
1.40001
1.40001
1.40001
1.40001
1.40001
1.40001
1.40001
1.40001
1.40001
1.40001
1.40001
1.40001
1.40001
1.40001
1.40001
1.40001
1.40001
1.40001
1.40001
1.40001
1.40001
1.40001
1.40001
1.40001
1.40001
1.40001
1.40001
1.40001
1.40001
1.40001
1.40001
1.40001
1.40001
1.40001
1.40001
1.40001
1.40001
1.40001
1.40001
1.40001
1.40001
1.40001
1.40001
1.40001
1.40001
1.40001
1.40001
1.40001
1.40001
1.40001
1.40001
1.40001
1.40001
1.40001
1.40001
1.40001
1.40001
1.40001
1.40001
1.40001
1.40001
1.40001
1.40001
1.40001
1.40001
1.40001
1.40001
1.40001
1.40001
1.40001
1.40001
1.40001