/*--------------------------------*- C++ -*----------------------------------*\
  =========                 |
  \\      /  F ield         | OpenFOAM: The Open Source CFD Toolbox
   \\    /   O peration     | Website:  https://openfoam.org
    \\  /    A nd           | Version:  7
     \\/     M anipulation  |
\*---------------------------------------------------------------------------*/
FoamFile
{
    version     2.0;
    format      ascii;
    class       volScalarField;
    location    "12.5";
    object      rho;
}
// * * * * * * * * * * * * * * * * * * * * * * * * * * * * * * * * * * * * * //

dimensions      [1 -3 0 0 0 0 0];

internalField   nonuniform List<scalar> 
90000
(
0.186029
0.229175
0.264
0.305086
0.337854
0.359019
0.39526
0.438289
0.471368
0.512652
0.558448
0.60189
0.646106
0.688082
0.730837
0.766786
0.796282
0.823657
0.8392
0.851696
0.856667
0.85492
0.85324
0.853274
0.847443
0.840237
0.84235
0.84858
0.851608
0.855512
0.86448
0.875533
0.88564
0.889611
0.89258
0.897822
0.906183
0.913849
0.919838
0.925148
0.931364
0.938171
0.945108
0.952689
0.960841
0.969257
0.979039
0.990183
1.00275
1.01575
1.02837
1.03693
1.04376
1.04523
1.0436
1.04083
1.03877
1.03701
1.03607
1.03754
1.04035
1.04555
1.05195
1.05572
1.05863
1.05993
1.05907
1.05624
1.05214
1.04856
1.04898
1.05188
1.05496
1.05631
1.05596
1.05339
1.05122
1.05197
1.05518
1.05809
1.05973
1.06185
1.06742
1.07614
1.08381
1.08885
1.09412
1.10177
1.10915
1.1147
1.11954
1.12588
1.13253
1.13838
1.14338
1.14804
1.15264
1.15751
1.16231
1.16949
0.144573
0.144603
0.144638
0.144673
0.144718
0.144767
0.144823
0.144954
0.145999
0.14932
0.156894
0.167664
0.184569
0.206971
0.237957
0.277197
0.324832
0.383362
0.446384
0.510776
0.575756
0.633493
0.686813
0.72555
0.758953
0.772717
0.785888
0.788745
0.784493
0.778117
0.773608
0.775461
0.774558
0.775887
0.775358
0.777792
0.78387
0.788531
0.794493
0.803584
0.818254
0.835539
0.85302
0.868504
0.881406
0.891693
0.901241
0.909396
0.915867
0.92351
0.930299
0.937924
0.943646
0.950524
0.957352
0.965425
0.976041
0.987
0.997736
1.00712
1.01501
1.02378
1.03133
1.03539
1.03517
1.03512
1.03523
1.03739
1.04065
1.04446
1.04854
1.05359
1.0555
1.05421
1.05187
1.04973
1.05095
1.05475
1.05779
1.05902
1.06072
1.06541
1.07427
1.0829
1.0883
1.09207
1.09872
1.10694
1.11318
1.11777
1.1228
1.12967
1.13579
1.14088
1.14557
1.15003
1.15444
1.15952
1.16439
1.17106
0.145306
0.145393
0.145487
0.14559
0.145698
0.145814
0.14594
0.146068
0.146224
0.1463
0.146372
0.146457
0.146553
0.146657
0.146755
0.146874
0.146974
0.147258
0.151157
0.161006
0.180855
0.210758
0.253987
0.308463
0.375372
0.445766
0.513763
0.573903
0.622259
0.667729
0.699001
0.730017
0.744745
0.759945
0.75716
0.752533
0.747826
0.737042
0.72804
0.718324
0.717766
0.720576
0.729384
0.744824
0.765095
0.783152
0.797847
0.807736
0.813681
0.817784
0.82403
0.832093
0.843262
0.858081
0.873808
0.888332
0.901396
0.912673
0.922969
0.932433
0.941571
0.950793
0.961128
0.97176
0.981345
0.990849
1.00072
1.01178
1.0228
1.03293
1.03915
1.03813
1.03545
1.03592
1.03928
1.04622
1.05231
1.05624
1.05807
1.05818
1.06106
1.07067
1.08125
1.08687
1.09051
1.0954
1.10431
1.11201
1.11656
1.12039
1.12627
1.13331
1.13866
1.14337
1.14803
1.1524
1.15683
1.16215
1.16691
1.17282
0.146377
0.146475
0.146573
0.146674
0.146772
0.146874
0.146974
0.14708
0.147175
0.147271
0.147369
0.147465
0.147561
0.147656
0.147752
0.147846
0.147933
0.148032
0.148085
0.148137
0.14819
0.148256
0.14832
0.148399
0.148456
0.153657
0.167429
0.195959
0.23616
0.292507
0.362733
0.441483
0.517755
0.589883
0.648156
0.687898
0.720486
0.729855
0.73034
0.721669
0.70879
0.702572
0.696101
0.690161
0.69014
0.69334
0.704923
0.721425
0.737399
0.750097
0.759116
0.761298
0.7637
0.769932
0.779641
0.790302
0.799555
0.80758
0.816741
0.828634
0.843277
0.85937
0.875033
0.889762
0.904337
0.918985
0.933555
0.94678
0.958329
0.969423
0.981437
0.991219
1.00155
1.01263
1.02395
1.03649
1.04454
1.04511
1.04591
1.05075
1.06086
1.07455
1.08331
1.08759
1.09085
1.09823
1.10865
1.11413
1.11797
1.12325
1.13051
1.1366
1.14112
1.14567
1.15036
1.15467
1.15925
1.16464
1.169
1.17443
0.147355
0.147414
0.147476
0.147535
0.147595
0.147657
0.147719
0.14778
0.147842
0.147904
0.147964
0.148025
0.148083
0.148146
0.148208
0.148271
0.148337
0.148404
0.148473
0.148546
0.148621
0.148699
0.148769
0.148842
0.148916
0.148959
0.149001
0.149054
0.149107
0.149168
0.149202
0.15405
0.174123
0.210126
0.274396
0.354214
0.454597
0.541645
0.618339
0.671098
0.694511
0.710148
0.702955
0.695088
0.685023
0.67402
0.66897
0.670123
0.675545
0.688051
0.70506
0.717987
0.724788
0.72085
0.715759
0.71585
0.720564
0.73119
0.744608
0.757044
0.767097
0.775854
0.787245
0.800601
0.81417
0.827437
0.840068
0.854928
0.871016
0.887882
0.90804
0.929113
0.947935
0.963578
0.974881
0.983224
0.994515
1.0088
1.02499
1.04285
1.05969
1.07201
1.07369
1.07763
1.08595
1.09984
1.10973
1.11389
1.11773
1.12444
1.13248
1.13754
1.14209
1.14723
1.15219
1.1569
1.16182
1.16703
1.17075
1.17585
0.147948
0.147989
0.148031
0.148073
0.148114
0.148157
0.1482
0.148244
0.14829
0.148334
0.148381
0.148429
0.148478
0.148529
0.148583
0.14864
0.148698
0.14876
0.148822
0.148886
0.14895
0.149011
0.149064
0.149115
0.149166
0.149222
0.149276
0.149331
0.149381
0.149422
0.149456
0.149468
0.149478
0.149483
0.149486
0.149489
0.156814
0.187231
0.242142
0.339444
0.440226
0.54663
0.607992
0.652127
0.675353
0.674108
0.67273
0.667187
0.667379
0.668546
0.6773
0.693105
0.70697
0.70639
0.700417
0.693687
0.688247
0.690049
0.697742
0.709007
0.717231
0.721085
0.723276
0.727173
0.737798
0.751627
0.764638
0.774099
0.786816
0.802436
0.819715
0.837954
0.856042
0.873114
0.890977
0.910594
0.934701
0.960438
0.983879
1.00425
1.01664
1.0266
1.04117
1.05847
1.07757
1.09407
1.09515
1.10067
1.11109
1.12387
1.13198
1.13582
1.14133
1.14738
1.15252
1.15754
1.16279
1.16774
1.17121
1.17665
0.148385
0.148416
0.148448
0.148481
0.148513
0.148548
0.148584
0.148624
0.148665
0.148706
0.148748
0.148794
0.148841
0.148889
0.148938
0.148985
0.149035
0.149088
0.149142
0.14919
0.149235
0.149275
0.149309
0.149338
0.149369
0.149403
0.149435
0.149468
0.149499
0.149525
0.149542
0.149557
0.14957
0.149578
0.149584
0.149591
0.149583
0.14958
0.149587
0.149607
0.1576
0.188664
0.260414
0.352861
0.473929
0.55589
0.614025
0.652719
0.672833
0.671596
0.673082
0.678544
0.68316
0.685434
0.688795
0.688928
0.687586
0.683472
0.68301
0.68451
0.690225
0.696592
0.699842
0.701383
0.702309
0.707235
0.715847
0.723007
0.727522
0.736439
0.748731
0.761633
0.776277
0.793462
0.811544
0.831606
0.853564
0.876385
0.898426
0.921835
0.946226
0.97186
0.997277
1.02006
1.03676
1.04662
1.06091
1.0802
1.09916
1.10835
1.11303
1.12268
1.13356
1.14188
1.14891
1.15612
1.162
1.16655
1.16994
1.17671
0.148727
0.148754
0.148784
0.148814
0.148845
0.14888
0.148916
0.148953
0.148995
0.149036
0.149075
0.149118
0.14916
0.149203
0.149243
0.149279
0.149314
0.149352
0.149386
0.149415
0.14944
0.14946
0.149477
0.149491
0.149507
0.149527
0.149548
0.14957
0.149591
0.149612
0.149629
0.149642
0.149652
0.149658
0.149664
0.149665
0.14966
0.149658
0.149663
0.149686
0.149722
0.149758
0.149775
0.149761
0.164181
0.215147
0.298508
0.413046
0.525582
0.591577
0.632572
0.657386
0.65944
0.671921
0.681976
0.689021
0.691899
0.688862
0.684623
0.681512
0.681365
0.68293
0.68643
0.690991
0.691931
0.69006
0.691259
0.696426
0.702359
0.70362
0.706997
0.714169
0.722162
0.732708
0.747406
0.763062
0.780761
0.799152
0.81967
0.841943
0.865712
0.889185
0.91215
0.935523
0.958379
0.984526
1.00957
1.03096
1.04545
1.06136
1.08132
1.09978
1.11366
1.12363
1.13389
1.14235
1.14823
1.1557
1.16274
1.17318
0.149033
0.149062
0.149092
0.14912
0.14915
0.149185
0.14922
0.149254
0.149289
0.149323
0.149354
0.149389
0.149423
0.149451
0.149476
0.149496
0.149515
0.149534
0.149549
0.149559
0.149567
0.149576
0.149584
0.149592
0.149601
0.149615
0.149633
0.14965
0.149666
0.149684
0.149702
0.14972
0.149735
0.149744
0.149745
0.14974
0.149726
0.149712
0.149705
0.149706
0.14971
0.149708
0.149702
0.149695
0.14969
0.149674
0.14967
0.155891
0.188424
0.26524
0.370567
0.490891
0.576853
0.641383
0.670307
0.68384
0.696343
0.695592
0.687371
0.681719
0.680182
0.680783
0.683832
0.686278
0.686931
0.687185
0.687241
0.688376
0.69084
0.693528
0.692426
0.693483
0.69859
0.704736
0.71159
0.721152
0.730957
0.743604
0.758394
0.775754
0.793562
0.810409
0.830135
0.852955
0.87803
0.902694
0.925592
0.947819
0.973412
0.999816
1.02183
1.03797
1.05525
1.07388
1.09191
1.10713
1.12257
1.13762
1.14874
1.16165
0.149333
0.149355
0.149377
0.149398
0.149423
0.149455
0.149485
0.14951
0.149532
0.14955
0.149567
0.149586
0.149603
0.149617
0.149628
0.149635
0.149644
0.149652
0.149647
0.149642
0.149642
0.149646
0.149651
0.149656
0.149662
0.149673
0.149688
0.149702
0.149717
0.149737
0.149761
0.149794
0.149819
0.149821
0.149819
0.149807
0.149787
0.14976
0.14973
0.149693
0.149657
0.149641
0.149645
0.149657
0.149664
0.149669
0.14969
0.149756
0.149905
0.150069
0.150105
0.171161
0.239583
0.353246
0.489974
0.583333
0.669711
0.684527
0.68601
0.686949
0.686632
0.68417
0.683361
0.683586
0.684134
0.68536
0.687071
0.689185
0.690783
0.690466
0.689101
0.688705
0.690042
0.696123
0.701896
0.706734
0.71217
0.717707
0.725718
0.734199
0.746444
0.759994
0.773031
0.78883
0.805801
0.82356
0.844374
0.866425
0.889941
0.912327
0.935476
0.959705
0.984193
1.00748
1.02963
1.05162
1.07087
1.08718
1.10131
1.1233
0.149576
0.149584
0.149594
0.149605
0.149619
0.149635
0.149649
0.149661
0.149671
0.14968
0.149687
0.149693
0.149698
0.1497
0.1497
0.149699
0.149702
0.149702
0.149689
0.149674
0.149671
0.149671
0.149673
0.149676
0.149684
0.149695
0.149713
0.149736
0.149765
0.149799
0.149834
0.149869
0.149888
0.14989
0.149885
0.149866
0.149834
0.14979
0.149726
0.149649
0.149611
0.149614
0.149631
0.149654
0.149672
0.149707
0.149788
0.149964
0.150221
0.150339
0.150337
0.150266
0.150174
0.15012
0.17286
0.242588
0.382003
0.52371
0.621761
0.673686
0.690425
0.689579
0.686533
0.684235
0.683467
0.685108
0.688648
0.690613
0.69019
0.689225
0.688781
0.689354
0.691614
0.694981
0.698811
0.701699
0.704648
0.70989
0.7155
0.720935
0.725865
0.732272
0.741203
0.749864
0.761136
0.774421
0.787747
0.804104
0.820341
0.837192
0.85565
0.876065
0.898802
0.921385
0.944549
0.967186
0.991402
1.01487
1.03504
1.06659
0.149673
0.149675
0.149678
0.149682
0.149687
0.149692
0.149696
0.1497
0.149704
0.149707
0.14971
0.149714
0.149717
0.149716
0.149716
0.149716
0.149718
0.149716
0.149701
0.149679
0.149674
0.149674
0.149676
0.149681
0.149693
0.149712
0.149747
0.149799
0.14985
0.14989
0.149913
0.149931
0.149933
0.149932
0.149921
0.149889
0.14984
0.14978
0.149701
0.149626
0.149607
0.149614
0.14964
0.149678
0.149748
0.149845
0.149969
0.150181
0.150385
0.150414
0.150403
0.150314
0.150115
0.149928
0.149921
0.149907
0.149832
0.188712
0.285792
0.438854
0.578911
0.650138
0.685245
0.684472
0.687499
0.69231
0.695306
0.69346
0.689763
0.687551
0.689029
0.692734
0.696914
0.699188
0.701439
0.703307
0.705582
0.708367
0.711972
0.715573
0.720367
0.725189
0.730126
0.736011
0.74031
0.746603
0.75573
0.76361
0.77546
0.788697
0.801745
0.814622
0.830327
0.849366
0.870283
0.890572
0.909667
0.932169
0.952266
0.985584
0.149684
0.149686
0.149686
0.149689
0.149694
0.149701
0.149706
0.14971
0.149712
0.149713
0.149715
0.149717
0.149721
0.149722
0.149723
0.149724
0.149725
0.149722
0.149705
0.149698
0.149699
0.1497
0.149704
0.149717
0.149744
0.149785
0.149848
0.149923
0.149952
0.14996
0.149959
0.149951
0.149934
0.149915
0.149883
0.149824
0.14978
0.149744
0.149685
0.149631
0.149621
0.149638
0.149691
0.149814
0.149966
0.150058
0.150151
0.15031
0.150425
0.150435
0.150422
0.15032
0.14999
0.149739
0.149712
0.149731
0.149718
0.149595
0.149521
0.161489
0.227561
0.373468
0.535969
0.628384
0.686039
0.692293
0.696969
0.695354
0.688283
0.689329
0.694235
0.698882
0.701539
0.702176
0.703425
0.705499
0.708555
0.711535
0.714394
0.716923
0.71943
0.723223
0.726814
0.730374
0.73463
0.739158
0.745629
0.752001
0.755017
0.75983
0.769654
0.780796
0.789344
0.798946
0.811689
0.82866
0.845258
0.859307
0.875289
0.90715
0.149741
0.149745
0.149749
0.149755
0.149763
0.149772
0.14978
0.149791
0.149799
0.149801
0.149803
0.149805
0.149808
0.149813
0.149817
0.149818
0.14982
0.149819
0.149811
0.149805
0.149805
0.149806
0.149811
0.149824
0.149843
0.149872
0.149929
0.149975
0.149974
0.149956
0.14991
0.149845
0.149814
0.149805
0.149792
0.149768
0.149753
0.149734
0.1497
0.149707
0.149739
0.149796
0.149901
0.150094
0.150188
0.150205
0.150231
0.150333
0.150375
0.150368
0.150338
0.150184
0.149808
0.149583
0.149585
0.149654
0.149676
0.149617
0.149621
0.149666
0.149967
0.150365
0.189889
0.313629
0.493142
0.600348
0.679808
0.681276
0.688025
0.696385
0.704571
0.703961
0.705003
0.705732
0.707003
0.710007
0.713296
0.71524
0.717073
0.719177
0.722444
0.72617
0.729017
0.731329
0.733675
0.73734
0.741712
0.747518
0.751152
0.754092
0.756907
0.763196
0.771502
0.777945
0.783712
0.78871
0.800522
0.815917
0.824292
0.844179
0.149765
0.149773
0.149782
0.1498
0.149836
0.149868
0.149888
0.149911
0.149926
0.149927
0.149927
0.149928
0.149934
0.149935
0.149933
0.149929
0.149923
0.149908
0.149869
0.149854
0.14985
0.149849
0.149847
0.149846
0.149851
0.149877
0.149896
0.149889
0.149865
0.149815
0.149741
0.149714
0.149719
0.149743
0.149764
0.149761
0.149766
0.149795
0.149878
0.14996
0.15001
0.150057
0.150154
0.15027
0.150281
0.150252
0.150246
0.150219
0.150198
0.150167
0.150103
0.149944
0.149666
0.149519
0.149528
0.149613
0.14972
0.149875
0.150099
0.150426
0.150899
0.151291
0.151574
0.151457
0.173822
0.27673
0.456995
0.590813
0.684831
0.6968
0.708134
0.705318
0.711459
0.711244
0.713899
0.716429
0.718533
0.719958
0.721563
0.724296
0.726879
0.729365
0.731674
0.733521
0.736648
0.740301
0.743795
0.746219
0.749305
0.75272
0.755855
0.75888
0.763914
0.770028
0.775073
0.779869
0.779628
0.784945
0.795865
0.809423
0.149882
0.149895
0.14991
0.14994
0.149988
0.150024
0.150051
0.150062
0.150062
0.15006
0.150052
0.15004
0.150031
0.15002
0.150001
0.149983
0.149966
0.149937
0.149874
0.14984
0.149832
0.149818
0.149784
0.149754
0.14975
0.149747
0.149738
0.149728
0.149709
0.149665
0.149653
0.149661
0.149683
0.149733
0.14979
0.14983
0.149895
0.150049
0.150218
0.150262
0.150254
0.150239
0.150259
0.150285
0.15028
0.15025
0.150148
0.150041
0.150015
0.149989
0.149921
0.149806
0.149633
0.149517
0.149527
0.149637
0.150004
0.150626
0.151084
0.151593
0.151996
0.151878
0.151841
0.151982
0.152255
0.152622
0.165197
0.258526
0.443083
0.585367
0.689528
0.70196
0.722046
0.719039
0.726528
0.7245
0.726507
0.72838
0.729875
0.733011
0.734284
0.736028
0.738132
0.74011
0.742043
0.744194
0.746598
0.748755
0.752204
0.755517
0.758232
0.760539
0.76319
0.766597
0.770475
0.775288
0.778895
0.781831
0.78547
0.794199
0.150038
0.150048
0.150068
0.1501
0.150134
0.150139
0.150139
0.150138
0.150134
0.150127
0.150108
0.150083
0.150063
0.150039
0.150004
0.149968
0.149932
0.149878
0.149783
0.149707
0.149668
0.149628
0.14959
0.149573
0.149577
0.149589
0.1496
0.149614
0.149618
0.149621
0.149631
0.149661
0.149723
0.149844
0.149981
0.150076
0.150216
0.150408
0.150444
0.150428
0.15036
0.15029
0.150234
0.150198
0.150179
0.150144
0.150037
0.149937
0.149911
0.1499
0.149849
0.149755
0.149776
0.14987
0.149803
0.149902
0.150504
0.151587
0.152272
0.152633
0.153014
0.152975
0.152733
0.153128
0.154246
0.156517
0.15858
0.159905
0.168402
0.25365
0.432568
0.600745
0.703924
0.724905
0.749742
0.740224
0.746547
0.743798
0.745898
0.748529
0.748577
0.7495
0.749749
0.750794
0.752411
0.754729
0.756639
0.757436
0.758575
0.759573
0.761572
0.763969
0.765949
0.768508
0.771917
0.775914
0.7797
0.782606
0.784442
0.788885
0.150132
0.150139
0.150156
0.150162
0.150161
0.150159
0.150146
0.150115
0.150079
0.15004
0.149989
0.149949
0.149917
0.149877
0.149832
0.149785
0.149732
0.149657
0.149571
0.149498
0.149458
0.149442
0.149442
0.149457
0.149479
0.149505
0.149537
0.149583
0.149647
0.149718
0.149805
0.149898
0.150016
0.15017
0.1503
0.150413
0.150554
0.150581
0.150565
0.150486
0.150369
0.150242
0.150105
0.150053
0.150054
0.150058
0.149993
0.149922
0.149899
0.149867
0.149844
0.149954
0.150482
0.151433
0.151771
0.151689
0.151897
0.15276
0.153588
0.1537
0.154073
0.154809
0.155499
0.156503
0.158575
0.162098
0.165023
0.167352
0.169232
0.16973
0.172782
0.251131
0.430296
0.61662
0.724235
0.751857
0.780363
0.76861
0.774722
0.771113
0.769547
0.770883
0.770964
0.772443
0.772863
0.772704
0.772052
0.771748
0.772053
0.77358
0.775209
0.776679
0.776988
0.776863
0.777551
0.779418
0.783768
0.78723
0.78765
0.790387
0.149865
0.149837
0.149806
0.149788
0.149779
0.149765
0.149741
0.149712
0.149677
0.149643
0.149627
0.149624
0.149621
0.149614
0.149606
0.149592
0.149565
0.149519
0.149462
0.149418
0.149391
0.149386
0.149405
0.149458
0.14955
0.149645
0.149776
0.149921
0.150042
0.150136
0.150207
0.150279
0.150366
0.150458
0.150585
0.150698
0.150699
0.150684
0.150629
0.150475
0.150319
0.150195
0.150062
0.150021
0.150019
0.150088
0.15016
0.15014
0.15004
0.15003
0.15018
0.150761
0.15181
0.153085
0.154383
0.154763
0.154683
0.154735
0.155488
0.156049
0.156554
0.157833
0.160437
0.163393
0.166358
0.168484
0.170673
0.17247
0.174025
0.17674
0.180468
0.183918
0.185362
0.254646
0.427719
0.631471
0.749571
0.78375
0.819564
0.805402
0.807098
0.802845
0.799914
0.802762
0.802884
0.801676
0.798964
0.797985
0.797697
0.797241
0.796237
0.7954
0.794938
0.795298
0.795015
0.794617
0.794509
0.794319
0.792995
0.793978
0.149326
0.14934
0.149359
0.149382
0.149406
0.149422
0.14943
0.149439
0.149448
0.149458
0.14947
0.149486
0.149501
0.14952
0.149555
0.149595
0.149635
0.149719
0.149819
0.149835
0.149839
0.149862
0.149929
0.150101
0.150241
0.150329
0.150407
0.15046
0.150509
0.150547
0.150571
0.150602
0.150656
0.15074
0.150824
0.150875
0.150867
0.15081
0.150701
0.150521
0.150452
0.150412
0.150289
0.150246
0.150281
0.150468
0.150696
0.150884
0.151299
0.151884
0.152287
0.152736
0.153718
0.154831
0.156176
0.157761
0.158035
0.158085
0.158449
0.159969
0.162152
0.164625
0.167309
0.170642
0.173279
0.175017
0.17688
0.178907
0.181494
0.184684
0.18828
0.191009
0.193491
0.195002
0.196242
0.259194
0.429826
0.648832
0.782794
0.816624
0.855213
0.84564
0.845747
0.841901
0.836006
0.836619
0.836539
0.835299
0.831897
0.829012
0.827721
0.827561
0.826506
0.82359
0.820057
0.817013
0.815049
0.81491
0.81494
0.813335
0.149377
0.149417
0.149458
0.1495
0.149555
0.149617
0.149684
0.149757
0.149824
0.149899
0.149988
0.150073
0.150156
0.150248
0.150346
0.15046
0.150626
0.150848
0.150935
0.150934
0.150923
0.150898
0.1509
0.150967
0.151025
0.151014
0.150948
0.150912
0.150912
0.15093
0.150917
0.150925
0.151013
0.151049
0.151007
0.151006
0.150984
0.150868
0.150697
0.1507
0.150768
0.150795
0.150723
0.15074
0.150946
0.151312
0.152029
0.153423
0.154958
0.156264
0.157415
0.158004
0.158373
0.158556
0.159019
0.160744
0.162445
0.163641
0.164909
0.166854
0.170142
0.173531
0.176401
0.178442
0.180343
0.18223
0.183757
0.186182
0.188948
0.192162
0.195202
0.197352
0.200148
0.203049
0.20559
0.207981
0.210116
0.267447
0.433434
0.661734
0.815276
0.851744
0.896489
0.891565
0.886276
0.878671
0.873156
0.874132
0.875366
0.873923
0.870105
0.866107
0.86325
0.861406
0.859397
0.856455
0.852251
0.84877
0.846021
0.840679
0.150586
0.150658
0.150723
0.150808
0.150914
0.151001
0.151054
0.151079
0.151104
0.151145
0.151196
0.151263
0.151342
0.151348
0.151356
0.151388
0.151463
0.151566
0.151598
0.151581
0.151556
0.151488
0.151427
0.151426
0.151428
0.151394
0.151284
0.151182
0.151186
0.151216
0.151209
0.151223
0.151257
0.151175
0.151074
0.151116
0.15118
0.151206
0.151219
0.151378
0.151764
0.152417
0.153394
0.154742
0.156069
0.157242
0.158338
0.159506
0.1605
0.161338
0.162635
0.164017
0.164256
0.164279
0.16467
0.165985
0.168781
0.172191
0.175019
0.177813
0.180179
0.182733
0.1847
0.185923
0.187302
0.188788
0.191132
0.193901
0.197302
0.200599
0.203473
0.205689
0.207352
0.209664
0.212758
0.216067
0.220712
0.222341
0.222894
0.275099
0.442571
0.681348
0.853105
0.888347
0.932888
0.929921
0.925585
0.917864
0.91347
0.914914
0.915977
0.913508
0.908918
0.905438
0.902877
0.900271
0.89577
0.890244
0.887203
0.881638
0.152461
0.152428
0.152387
0.152341
0.152293
0.152244
0.152158
0.15199
0.151901
0.151864
0.151848
0.15186
0.151857
0.151817
0.151801
0.151765
0.151752
0.15177
0.151823
0.151842
0.151833
0.151775
0.151676
0.151614
0.151556
0.151461
0.15135
0.151336
0.151403
0.151605
0.15184
0.152094
0.152484
0.153047
0.15361
0.154075
0.154603
0.155333
0.156353
0.15749
0.158599
0.159696
0.160949
0.162236
0.163353
0.164297
0.164996
0.165484
0.165874
0.166438
0.167417
0.169235
0.171134
0.172547
0.174472
0.176915
0.179993
0.182918
0.185573
0.187495
0.188788
0.190009
0.191102
0.192517
0.19404
0.196725
0.200079
0.20379
0.20714
0.208828
0.210663
0.212369
0.213818
0.216939
0.222413
0.225765
0.227934
0.230253
0.232535
0.234841
0.236884
0.288105
0.456742
0.701062
0.887959
0.923433
0.970679
0.969371
0.965086
0.95761
0.95391
0.955486
0.955875
0.953355
0.948908
0.945404
0.942453
0.939706
0.936197
0.92863
0.15188
0.151875
0.151842
0.151839
0.151863
0.151859
0.151775
0.151614
0.151579
0.151607
0.15172
0.151794
0.151811
0.151859
0.151906
0.151902
0.151926
0.15202
0.152178
0.152369
0.152578
0.152892
0.153225
0.153487
0.153771
0.154207
0.154824
0.155564
0.156301
0.157045
0.15788
0.158894
0.159918
0.160759
0.161535
0.162406
0.16335
0.164343
0.165319
0.166054
0.166659
0.1674
0.168187
0.168871
0.169642
0.170499
0.17139
0.17233
0.173358
0.174806
0.176786
0.179453
0.18235
0.185393
0.187784
0.189606
0.190971
0.19239
0.193657
0.194395
0.195264
0.196227
0.198254
0.200983
0.20437
0.208062
0.210976
0.213233
0.215248
0.216236
0.21737
0.220053
0.224126
0.227703
0.231791
0.234303
0.234488
0.235943
0.239987
0.245658
0.24883
0.25048
0.252093
0.302655
0.477158
0.730453
0.926057
0.961099
1.00865
1.00635
1.00245
0.995729
0.992447
0.993994
0.995273
0.993272
0.989113
0.985559
0.982633
0.976561
0.153973
0.154224
0.154503
0.154776
0.155019
0.155273
0.155568
0.155874
0.156205
0.156544
0.156879
0.157239
0.15764
0.158075
0.158523
0.158987
0.159458
0.159879
0.160312
0.160878
0.161518
0.162155
0.162792
0.163444
0.164146
0.164905
0.165677
0.166318
0.16686
0.16747
0.168052
0.168563
0.168993
0.16945
0.17005
0.170788
0.171547
0.172294
0.172967
0.173613
0.174476
0.175471
0.176414
0.177599
0.179229
0.181034
0.183007
0.185058
0.187228
0.189244
0.191122
0.192633
0.193873
0.195605
0.197102
0.197825
0.198191
0.19911
0.200262
0.20189
0.203997
0.206958
0.210177
0.213809
0.216509
0.218344
0.220073
0.220738
0.221853
0.223794
0.226423
0.230156
0.235225
0.237363
0.238327
0.240576
0.24326
0.246005
0.250166
0.255264
0.257123
0.259071
0.262512
0.265052
0.2668
0.322947
0.508976
0.767857
0.967157
0.997786
1.04407
1.04138
1.03834
1.03218
1.03025
1.03075
1.03167
1.03023
1.02728
1.02212
0.165654
0.165832
0.16604
0.16626
0.166483
0.166708
0.166922
0.167123
0.167343
0.167577
0.167828
0.168097
0.168377
0.168694
0.169036
0.169368
0.169676
0.169993
0.170344
0.17069
0.171042
0.171444
0.171901
0.172421
0.172988
0.173567
0.17416
0.174742
0.175348
0.175992
0.17659
0.17725
0.177981
0.178872
0.179816
0.18077
0.181797
0.18293
0.184262
0.185905
0.18754
0.189053
0.190565
0.192142
0.193565
0.19488
0.196225
0.197607
0.199015
0.200142
0.200889
0.201356
0.201849
0.202847
0.204737
0.205707
0.206731
0.208364
0.211247
0.214605
0.217729
0.220498
0.222191
0.22383
0.225203
0.225929
0.22717
0.228652
0.230771
0.234515
0.238905
0.24175
0.245114
0.246983
0.247517
0.2491
0.253092
0.258621
0.261123
0.262915
0.265972
0.268916
0.271588
0.274655
0.279117
0.282263
0.283909
0.347143
0.550211
0.81276
1.00954
1.03549
1.07891
1.07541
1.07296
1.06537
1.06626
1.06716
1.06645
1.06298
0.17545
0.175639
0.175863
0.176129
0.17643
0.176767
0.177098
0.17741
0.177745
0.178112
0.178499
0.178901
0.17933
0.179796
0.180287
0.180783
0.181279
0.181817
0.182425
0.183076
0.183717
0.184364
0.185096
0.185848
0.186613
0.187441
0.188286
0.189128
0.189983
0.190889
0.19186
0.192831
0.193788
0.194641
0.195446
0.196268
0.197118
0.198014
0.199
0.199948
0.200833
0.201739
0.202669
0.203517
0.204133
0.204781
0.205492
0.206239
0.207172
0.208415
0.209708
0.210666
0.211746
0.213464
0.215825
0.218622
0.221267
0.223483
0.225477
0.227531
0.228997
0.230342
0.231083
0.231683
0.233187
0.235189
0.237574
0.240948
0.24456
0.247895
0.251147
0.252374
0.253095
0.255389
0.258611
0.261195
0.263962
0.268462
0.271545
0.273129
0.275908
0.279541
0.282329
0.285833
0.290399
0.293845
0.296674
0.298726
0.300583
0.378546
0.607134
0.870552
1.05223
1.07373
1.11151
1.10466
1.1051
1.09838
1.09982
1.09972
0.191126
0.191376
0.191676
0.191968
0.192245
0.192549
0.192874
0.193204
0.193556
0.19393
0.194282
0.194609
0.194953
0.195391
0.195847
0.196255
0.19665
0.197065
0.197518
0.19799
0.19845
0.198913
0.199343
0.199752
0.200182
0.200649
0.20115
0.201655
0.202156
0.202694
0.20326
0.203866
0.20446
0.205061
0.205698
0.206327
0.206969
0.207606
0.208246
0.208901
0.209695
0.210598
0.211576
0.212652
0.213846
0.215051
0.21627
0.217643
0.219316
0.221161
0.223136
0.225326
0.227581
0.229558
0.230888
0.232198
0.233819
0.235099
0.235889
0.23693
0.237927
0.239025
0.240775
0.242924
0.245371
0.248642
0.251935
0.255092
0.257635
0.258832
0.260533
0.262102
0.263403
0.265816
0.269679
0.274759
0.277912
0.279504
0.282696
0.284915
0.286703
0.289514
0.293381
0.298638
0.302018
0.304194
0.307075
0.310595
0.314569
0.317215
0.318891
0.417378
0.670975
0.935928
1.09165
1.11181
1.14361
1.13077
1.13369
1.12996
0.203987
0.204173
0.204394
0.204626
0.204857
0.205108
0.20535
0.205575
0.205811
0.206124
0.206448
0.206737
0.207013
0.207343
0.207699
0.208067
0.208466
0.208872
0.20926
0.209647
0.21011
0.210612
0.211099
0.211609
0.212142
0.212694
0.213259
0.213822
0.214388
0.214979
0.215636
0.216358
0.21716
0.218086
0.219115
0.220219
0.221332
0.222423
0.223457
0.224507
0.225603
0.226694
0.227897
0.22927
0.230719
0.232191
0.233587
0.234849
0.2359
0.236771
0.23758
0.238729
0.240364
0.241462
0.241925
0.242438
0.243576
0.244865
0.246056
0.247475
0.249768
0.252445
0.255458
0.258571
0.26134
0.263801
0.265674
0.267072
0.268509
0.269533
0.270919
0.273502
0.277407
0.280985
0.283804
0.287134
0.289728
0.290848
0.292372
0.295515
0.29917
0.30268
0.30745
0.311293
0.313119
0.315429
0.318968
0.322703
0.325792
0.32879
0.332878
0.334711
0.343181
0.469933
0.7457
1.00925
1.12971
1.14475
1.17272
1.16232
0.219382
0.219563
0.219802
0.22008
0.220387
0.220688
0.220966
0.221271
0.221633
0.221974
0.222267
0.222642
0.223077
0.223464
0.22381
0.224184
0.224621
0.225102
0.225587
0.22605
0.226527
0.227034
0.22757
0.228113
0.22866
0.229222
0.229816
0.230441
0.231098
0.231772
0.232467
0.233178
0.233893
0.234615
0.235355
0.236086
0.236837
0.237589
0.238376
0.23916
0.239914
0.240636
0.241389
0.242096
0.242869
0.243738
0.244659
0.245695
0.246541
0.247216
0.248086
0.249135
0.250678
0.252594
0.25387
0.255299
0.257291
0.260129
0.262949
0.265568
0.267712
0.26996
0.271976
0.273664
0.275228
0.276298
0.277402
0.278447
0.279914
0.28261
0.285672
0.289435
0.292765
0.295876
0.298475
0.299408
0.301476
0.304076
0.306449
0.310034
0.314119
0.31798
0.32088
0.322098
0.324476
0.327972
0.331295
0.33467
0.338029
0.341297
0.344565
0.348099
0.35192
0.353231
0.375601
0.539719
0.834751
1.0787
1.16326
1.1822
0.235659
0.235876
0.236096
0.236306
0.236512
0.236738
0.237014
0.237297
0.237561
0.237824
0.238088
0.238376
0.238675
0.239001
0.239346
0.239688
0.240024
0.24038
0.240744
0.24112
0.241506
0.241927
0.242353
0.242792
0.24327
0.243784
0.244311
0.244848
0.24542
0.246016
0.246609
0.247192
0.247746
0.248326
0.248932
0.249589
0.250287
0.251064
0.251927
0.252877
0.253913
0.255005
0.256075
0.257111
0.258186
0.25927
0.260472
0.261916
0.263693
0.265664
0.267579
0.269236
0.270688
0.272089
0.273983
0.276024
0.277569
0.278851
0.280147
0.281635
0.282754
0.283824
0.284655
0.285553
0.286874
0.288434
0.29076
0.293466
0.296887
0.300212
0.303493
0.306586
0.308696
0.310381
0.312087
0.313744
0.315691
0.31861
0.322511
0.32547
0.328322
0.331048
0.332847
0.335633
0.339149
0.342673
0.345534
0.348114
0.351224
0.354346
0.357271
0.360039
0.362594
0.365811
0.367836
0.369119
0.414159
0.637003
0.940933
1.15472
0.253541
0.253721
0.253937
0.254179
0.254425
0.254669
0.254911
0.255171
0.255483
0.255819
0.256132
0.256432
0.256762
0.257145
0.257554
0.257952
0.258351
0.258767
0.259196
0.259632
0.260078
0.260545
0.261033
0.261523
0.262016
0.262527
0.263069
0.26366
0.264272
0.264891
0.265559
0.266288
0.267051
0.267833
0.268635
0.269459
0.270334
0.271238
0.272146
0.273082
0.274044
0.27506
0.276109
0.277192
0.278256
0.279332
0.280473
0.281528
0.282458
0.283399
0.284523
0.285683
0.286636
0.287451
0.288519
0.289822
0.290637
0.291424
0.292658
0.294036
0.295614
0.297476
0.299692
0.302512
0.305352
0.308675
0.311691
0.314587
0.31708
0.319081
0.3208
0.321811
0.323432
0.324703
0.326271
0.329081
0.332042
0.335365
0.338481
0.341242
0.343756
0.34582
0.348643
0.351676
0.35425
0.356378
0.358642
0.361071
0.363571
0.366427
0.369259
0.371815
0.374506
0.376858
0.378761
0.380829
0.382101
0.383053
0.456505
0.847879
0.273814
0.274006
0.274205
0.274399
0.274601
0.274835
0.275097
0.275371
0.275636
0.275883
0.276146
0.276459
0.276777
0.277069
0.2774
0.277759
0.278117
0.278474
0.278875
0.279315
0.279757
0.280194
0.280645
0.281123
0.281617
0.282123
0.28264
0.283165
0.283706
0.284292
0.284903
0.285512
0.286148
0.286823
0.287498
0.288208
0.288914
0.289622
0.290342
0.291086
0.291854
0.292669
0.29353
0.294407
0.295327
0.296289
0.297361
0.298392
0.299385
0.300434
0.301529
0.302786
0.304373
0.305985
0.307529
0.309188
0.311323
0.313537
0.315777
0.317876
0.32012
0.322265
0.324461
0.326519
0.328311
0.329825
0.330927
0.332069
0.332825
0.333932
0.335252
0.336754
0.338787
0.341483
0.344784
0.347646
0.350589
0.353098
0.355001
0.357029
0.358725
0.360795
0.362979
0.365144
0.36731
0.369527
0.372043
0.374555
0.376872
0.378937
0.380766
0.38258
0.384105
0.385469
0.386833
0.388264
0.38958
0.391483
0.392139
0.480076
0.296376
0.296571
0.296793
0.297021
0.297249
0.297482
0.29773
0.297995
0.298289
0.298567
0.298837
0.29912
0.299451
0.299787
0.300106
0.300418
0.300785
0.30117
0.301545
0.301917
0.302327
0.302772
0.303219
0.303666
0.304146
0.304659
0.305192
0.305735
0.306292
0.30686
0.307449
0.308071
0.30872
0.309389
0.310101
0.310884