/*--------------------------------*- C++ -*----------------------------------*\
  =========                 |
  \\      /  F ield         | OpenFOAM: The Open Source CFD Toolbox
   \\    /   O peration     | Website:  https://openfoam.org
    \\  /    A nd           | Version:  7
     \\/     M anipulation  |
\*---------------------------------------------------------------------------*/
FoamFile
{
    version     2.0;
    format      ascii;
    class       volVectorField;
    location    "0.05";
    object      U;
}
// * * * * * * * * * * * * * * * * * * * * * * * * * * * * * * * * * * * * * //

dimensions      [0 1 -1 0 0 0 0];

internalField   nonuniform List<vector> 
12750
(
(1.97439 0.339428 0)
(2.33975 0.238704 0)
(2.52037 0.0944082 0)
(2.67255 0.0232548 0)
(2.83216 0.0017103 0)
(2.95188 -0.000872234 0)
(2.9948 -0.000207166 0)
(2.99991 -1.88215e-05 0)
(3.00004 -1.73236e-06 0)
(3.00002 -1.90534e-09 0)
(3 3.83991e-08 0)
(3 8.77012e-10 0)
(3 5.06329e-12 0)
(3 7.05581e-14 0)
(3 2.43253e-15 0)
(3 1.45408e-16 0)
(3 2.86963e-18 0)
(3 -2.63332e-16 0)
(3 6.75026e-17 0)
(3 1.36855e-16 0)
(3 1.29393e-16 0)
(3 -1.25477e-16 0)
(3 -7.15223e-17 0)
(3 0 0)
(3 0 0)
(3 5.26137e-17 0)
(3 1.15796e-16 0)
(3 3.17727e-17 0)
(3 7.78846e-17 0)
(3 1.98584e-16 0)
(2.51519 -0.617049 0)
(2.67652 -0.583755 0)
(2.78715 -0.409512 0)
(2.87475 -0.189189 0)
(2.95161 -0.0549631 0)
(2.991 -0.00888233 0)
(2.99951 -0.000712811 0)
(3.00006 -6.59579e-05 0)
(3.00004 -1.72219e-05 0)
(3.00001 -1.565e-08 0)
(3 7.45054e-08 0)
(3 1.37405e-09 0)
(3 8.77709e-12 0)
(3 -6.24547e-13 0)
(3 -1.5834e-13 0)
(3 -2.7619e-15 0)
(3 -1.98735e-16 0)
(3 -2.07894e-18 0)
(3 2.17704e-16 0)
(3 1.46593e-16 0)
(3 3.80295e-17 0)
(3 -3.80244e-17 0)
(3 8.55152e-17 0)
(3 8.43032e-17 0)
(3 9.12652e-17 0)
(3 -5.61056e-17 0)
(3 0 0)
(3 -5.99843e-20 0)
(3 1.3037e-16 0)
(3 4.31419e-16 0)
(2.93063 -0.385452 0)
(2.95847 -0.245897 0)
(2.9761 -0.106178 0)
(2.99262 -0.0273266 0)
(3.00011 -0.00395341 0)
(3.00075 -0.000549871 0)
(3.00041 -0.000184641 0)
(3.00005 -1.43359e-05 0)
(3 7.62188e-07 0)
(3 4.91748e-08 0)
(3 1.17878e-09 0)
(3 7.17527e-11 0)
(3 1.10708e-11 0)
(3 7.94672e-14 0)
(3 -4.29246e-15 0)
(3 -1.51359e-16 0)
(3 -3.92925e-17 0)
(3 2.48783e-16 0)
(3 5.68155e-16 0)
(3 2.87654e-16 0)
(3 -1.46978e-16 0)
(3 -9.61329e-17 0)
(3 3.5532e-17 0)
(3 2.46771e-16 0)
(3 9.05766e-18 0)
(3 -2.19013e-20 0)
(3 7.10868e-17 0)
(3 2.77293e-17 0)
(3 8.70384e-17 0)
(3 5.87655e-17 0)
(2.99275 -0.0732591 0)
(2.99906 -0.0270415 0)
(3.00209 -0.00571391 0)
(3.00169 -0.000781741 0)
(3.00116 -0.000250202 0)
(3.0004 -1.47801e-05 0)
(3.00005 1.2499e-05 0)
(3 8.57541e-07 0)
(3 9.92117e-09 0)
(3 5.99997e-10 0)
(3 -1.46977e-11 0)
(3 -3.05812e-12 0)
(3 -2.65191e-13 0)
(3 -3.92508e-15 0)
(3 -1.65196e-17 0)
(3 1.25216e-16 0)
(3 1.42905e-16 0)
(3 1.21278e-16 0)
(3 5.73573e-17 0)
(3 2.67615e-17 0)
(3 1.80825e-17 0)
(3 -1.49027e-18 0)
(3 -3.32183e-17 0)
(3 4.94427e-17 0)
(3 -1.06627e-16 0)
(3 2.31279e-17 0)
(3 6.40878e-17 0)
(3 6.64253e-17 0)
(3 4.11163e-16 0)
(3 -3.07605e-16 0)
(3.00161 -0.00324107 0)
(3.00139 -0.000788165 0)
(3.001 -0.000283841 0)
(3.00059 -6.68984e-05 0)
(3.00013 2.51762e-05 0)
(3.00001 6.63455e-06 0)
(3 2.27438e-07 0)
(3 -3.75568e-09 0)
(3 -5.42452e-09 0)
(3 -9.93848e-10 0)
(3 -4.71895e-11 0)
(3 -3.69771e-13 0)
(3 -1.63167e-15 0)
(3 -3.88578e-17 0)
(3 3.07154e-17 0)
(3 2.40126e-17 0)
(3 -7.3672e-17 0)
(3 3.10461e-17 0)
(3 -2.90882e-16 0)
(3 -1.90171e-16 0)
(3 2.05541e-17 0)
(3 6.58242e-18 0)
(3 -6.96589e-18 0)
(3 -2.12687e-16 0)
(3 -7.14722e-16 0)
(3 -2.52974e-16 0)
(3 1.81635e-16 0)
(3 1.19142e-16 0)
(3 -2.81668e-16 0)
(3 -5.04303e-17 0)
(3.00057 -0.000269379 0)
(3.0004 -0.000130377 0)
(3.00015 -2.70357e-05 0)
(3.00001 3.51738e-06 0)
(3 7.24412e-07 0)
(3 -3.00891e-08 0)
(3 -4.13749e-08 0)
(3 -1.15768e-08 0)
(3 -9.11961e-10 0)
(3 -1.324e-11 0)
(3 -1.83621e-13 0)
(3 -2.32545e-14 0)
(3 -5.57524e-16 0)
(3 1.12266e-16 0)
(3 3.63671e-17 0)
(3 4.25476e-17 0)
(3 -2.67722e-17 0)
(3 -2.8018e-17 0)
(3 -1.11993e-16 0)
(3 -7.72239e-17 0)
(3 -3.59439e-17 0)
(3 -5.58291e-17 0)
(3 -8.77003e-17 0)
(3 4.73069e-17 0)
(3 8.44505e-17 0)
(3 4.05931e-17 0)
(3 -5.80168e-17 0)
(3 -4.71224e-17 0)
(3 -1.90935e-16 0)
(3 3.96361e-16 0)
(3.00011 -5.0516e-05 0)
(3.00001 -7.52936e-06 0)
(3 3.26773e-07 0)
(3 -4.8917e-08 0)
(3 -8.98131e-08 0)
(3 -4.30852e-08 0)
(3 -5.95949e-09 0)
(3 -1.66211e-10 0)
(3 -2.2694e-12 0)
(3 -4.72474e-14 0)
(3 -9.52207e-16 0)
(3 -1.24633e-16 0)
(3 2.55444e-17 0)
(3 3.06438e-17 0)
(3 2.71104e-17 0)
(3 1.84765e-20 0)
(3 2.71353e-17 0)
(3 -5.43056e-17 0)
(3 -7.27873e-17 0)
(3 -6.7218e-17 0)
(3 6.71805e-17 0)
(3 8.39915e-17 0)
(3 -6.94197e-18 0)
(3 4.72831e-17 0)
(3 4.17028e-16 0)
(3 1.90777e-16 0)
(3 -1.38383e-16 0)
(3 -1.06914e-16 0)
(3 3.47322e-16 0)
(3 -4.37232e-17 0)
(3 -5.5592e-08 0)
(3 -4.03946e-08 0)
(3 -7.98974e-08 0)
(3 -5.43561e-08 0)
(3 -1.46617e-08 0)
(3 -8.99078e-10 0)
(3 -2.01183e-11 0)
(3 -2.29119e-13 0)
(3 5.92616e-14 0)
(3 2.1041e-14 0)
(3 7.3619e-16 0)
(3 5.34798e-17 0)
(3 5.33527e-17 0)
(3 3.77647e-17 0)
(3 2.6171e-18 0)
(3 -2.53302e-17 0)
(3 -6.06211e-17 0)
(3 -1.25261e-16 0)
(3 -5.37066e-17 0)
(3 -5.39559e-17 0)
(3 -8.4351e-17 0)
(3 8.29309e-17 0)
(3 -8.4673e-17 0)
(3 2.10194e-16 0)
(3 1.29084e-16 0)
(3 3.6461e-16 0)
(3 1.1326e-16 0)
(3 2.95664e-17 0)
(3 -4.17026e-18 0)
(3 -4.6287e-16 0)
(3 -5.02882e-08 0)
(3 -3.87131e-08 0)
(3 -1.52353e-08 0)
(3 -1.93144e-09 0)
(3 -8.87573e-11 0)
(3 -1.51523e-12 0)
(3 7.46973e-14 0)
(3 1.09416e-13 0)
(3 1.51625e-14 0)
(3 5.78723e-16 0)
(3 1.572e-18 0)
(3 1.18378e-17 0)
(3 1.18351e-17 0)
(3 -3.55093e-17 0)
(3 -1.07961e-17 0)
(3 0 0)
(3 -1.49044e-20 0)
(3 0 0)
(3 0 0)
(3 1.22269e-17 0)
(3 3.85665e-16 0)
(3 1.58568e-16 0)
(3 8.94673e-17 0)
(3 -1.20717e-16 0)
(3 4.73493e-17 0)
(3 -6.63468e-17 0)
(3 -8.81645e-17 0)
(3 -2.94849e-17 0)
(3 -8.65888e-17 0)
(3 5.10725e-17 0)
(3 -1.01779e-08 0)
(3 -2.4005e-09 0)
(3 -1.86579e-10 0)
(3 -4.0741e-12 0)
(3 4.92034e-13 0)
(3 3.16011e-13 0)
(3 6.2452e-14 0)
(3 1.53866e-15 0)
(3 1.01273e-16 0)
(3 -1.38986e-16 0)
(3 -6.08484e-17 0)
(3 -3.92888e-17 0)
(3 -7.74881e-17 0)
(3 -4.6122e-17 0)
(3 4.48953e-18 0)
(3 9.50005e-19 0)
(3 1.61013e-17 0)
(3 9.5602e-17 0)
(3 7.93686e-17 0)
(3 9.81277e-17 0)
(3 9.28783e-17 0)
(3 -4.87146e-17 0)
(3 1.86766e-16 0)
(3 -3.25799e-16 0)
(3 -1.3682e-16 0)
(3 -5.70945e-17 0)
(3 0 0)
(3 -3.48934e-20 0)
(3 7.58373e-17 0)
(3 1.38793e-16 0)
(3 -1.02721e-10 0)
(3 -3.22673e-12 0)
(3 5.53231e-13 0)
(3 2.9458e-13 0)
(3 7.83854e-14 0)
(3 6.09741e-15 0)
(3 -1.44911e-16 0)
(3 -1.36217e-16 0)
(3 -7.6984e-17 0)
(3 -1.92625e-17 0)
(3 1.03332e-17 0)
(3 -5.90479e-18 0)
(3 -1.03449e-17 0)
(3 1.89619e-17 0)
(3 -6.20331e-17 0)
(3 -5.81296e-17 0)
(3 -2.35206e-17 0)
(3 0 0)
(3 1.17049e-17 0)
(3 1.71547e-16 0)
(3 8.64081e-17 0)
(3 9.8987e-17 0)
(3 2.88739e-17 0)
(3 1.53076e-16 0)
(3 6.32823e-17 0)
(3 -9.59336e-18 0)
(3 -8.11739e-17 0)
(3 1.90869e-17 0)
(3 5.26591e-17 0)
(3 1.84314e-17 0)
(3 6.26176e-13 0)
(3 3.00059e-13 0)
(3 9.76889e-14 0)
(3 1.1371e-14 0)
(3 4.51798e-16 0)
(3 4.35542e-17 0)
(3 -2.23349e-17 0)
(3 -3.56926e-17 0)
(3 -4.25792e-17 0)
(3 -4.98073e-18 0)
(3 1.54358e-16 0)
(3 1.18812e-16 0)
(3 1.50978e-16 0)
(3 -1.06429e-17 0)
(3 -2.96414e-17 0)
(3 -2.40076e-17 0)
(3 -7.11598e-18 0)
(3 1.93252e-17 0)
(3 1.93238e-17 0)
(3 -1.03719e-17 0)
(3 -1.93109e-17 0)
(3 -1.00021e-17 0)
(3 0 0)
(3 3.86414e-17 0)
(3 -5.14304e-18 0)
(3 -1.37097e-16 0)
(3 -1.11171e-16 0)
(3 1.04828e-17 0)
(3 -7.67108e-17 0)
(3 -9.05373e-17 0)
(3 1.36441e-14 0)
(3 4.8288e-15 0)
(3 5.86724e-16 0)
(3 6.37267e-17 0)
(3 -1.62926e-17 0)
(3 0 0)
(3 -4.51398e-17 0)
(3 -6.31918e-17 0)
(3 -7.01568e-17 0)
(3 -2.78247e-17 0)
(3 -2.38236e-17 0)
(3 -9.02864e-18 0)
(3 -9.03445e-18 0)
(3 -8.42419e-18 0)
(3 1.80673e-17 0)
(3 -1.67005e-17 0)
(3 -5.41664e-17 0)
(3 -2.88537e-17 0)
(3 -1.24732e-16 0)
(3 -4.39129e-17 0)
(3 -2.79054e-16 0)
(3 -2.32212e-16 0)
(3 -9.69333e-17 0)
(3 2.86776e-17 0)
(3 3.01386e-17 0)
(3 -9.67992e-18 0)
(3 0 0)
(3 -4.78144e-17 0)
(3 -1.11004e-16 0)
(3 -2.57447e-17 0)
(3 4.51152e-17 0)
(3 1.04949e-17 0)
(3 -8.85443e-18 0)
(3 -6.05901e-17 0)
(3 -1.32652e-16 0)
(3 -1.20192e-16 0)
(3 -1.07422e-16 0)
(3 4.44885e-17 0)
(3 -2.36463e-17 0)
(3 5.90568e-17 0)
(3 -2.03555e-16 0)
(3 -1.59529e-16 0)
(3 -1.12793e-16 0)
(3 3.02299e-17 0)
(3 2.71069e-17 0)
(3 1.68721e-17 0)
(3 6.59701e-18 0)
(3 0 0)
(3 -9.06338e-20 0)
(3 -6.9978e-17 0)
(3 -4.70605e-17 0)
(3 -1.57589e-16 0)
(3 -7.18236e-17 0)
(3 -1.99018e-17 0)
(3 0 0)
(3 -9.53476e-18 0)
(3 3.37489e-17 0)
(3 1.31469e-17 0)
(3 -1.59044e-17 0)
(3 -1.00998e-17 0)
(3 1.29089e-17 0)
(3 2.40089e-17 0)
(3 -1.18198e-17 0)
(3 -2.59668e-17 0)
(3 -2.28972e-17 0)
(3 7.88202e-18 0)
(3 5.55748e-17 0)
(3 7.09591e-17 0)
(3 1.07022e-16 0)
(3 6.02251e-17 0)
(3 7.69487e-17 0)
(3 3.73354e-17 0)
(3 1.71917e-17 0)
(3 1.16781e-17 0)
(3 0 0)
(3 1.57673e-17 0)
(3 -4.7305e-17 0)
(3 -3.62208e-17 0)
(3 1.57625e-17 0)
(3 -4.82938e-17 0)
(3 -1.27413e-16 0)
(3 -4.723e-17 0)
(3 -3.11651e-17 0)
(3 -7.27088e-17 0)
(3 -4.24794e-17 0)
(3 -1.45103e-16 0)
(3 -1.10036e-17 0)
(3 0 0)
(3 0 0)
(3 1.44655e-16 0)
(3 -6.95119e-19 0)
(3 -1.84226e-17 0)
(3 -1.84192e-17 0)
(3 -2.4566e-17 0)
(3 1.10478e-17 0)
(3 7.37701e-18 0)
(3 3.57803e-16 0)
(3 2.04796e-16 0)
(3 1.84832e-16 0)
(3 -4.58526e-18 0)
(3 2.1759e-17 0)
(3 -1.96635e-18 0)
(3 2.54914e-20 0)
(3 5.88641e-21 0)
(3 -1.47454e-17 0)
(3 -1.47449e-17 0)
(3 3.35661e-17 0)
(3 1.47393e-17 0)
(3 1.47383e-17 0)
(3 3.46693e-17 0)
(3 1.67179e-16 0)
(3 1.41207e-16 0)
(3 5.15539e-17 0)
(3 6.08486e-17 0)
(3 1.24114e-17 0)
(3 -2.71148e-17 0)
(3 -8.1141e-17 0)
(3 -3.33445e-17 0)
(3 -3.57799e-18 0)
(3 -1.17654e-18 0)
(3 5.87079e-17 0)
(3 7.22955e-17 0)
(3 6.66718e-17 0)
(3 4.53489e-17 0)
(3 2.53528e-17 0)
(3 7.71417e-18 0)
(3 -2.06472e-17 0)
(3 -1.84866e-17 0)
(3 -4.19533e-17 0)
(3 -2.06618e-17 0)
(3 -2.7552e-17 0)
(3 -6.89903e-18 0)
(3 2.39889e-17 0)
(3 2.75103e-17 0)
(3 4.12787e-17 0)
(3 2.75118e-17 0)
(3 1.85807e-16 0)
(3 8.32057e-17 0)
(3 5.94422e-17 0)
(3 -2.5191e-17 0)
(3 1.81816e-17 0)
(3 1.45962e-17 0)
(3 2.69212e-17 0)
(3 -1.81812e-16 0)
(3 -7.8873e-17 0)
(3 1.1698e-16 0)
(3 6.5638e-17 0)
(3 -1.45474e-16 0)
(3 -8.66218e-17 0)
(3 -1.41445e-16 0)
(3 -9.07393e-17 0)
(3 -7.93183e-17 0)
(3 -7.75733e-17 0)
(3 -6.45557e-17 0)
(3 -4.69705e-17 0)
(3 -1.62034e-17 0)
(3 -2.63528e-16 0)
(3 -2.01386e-16 0)
(3 -1.45708e-16 0)
(3 -8.50076e-17 0)
(3 -3.95449e-17 0)
(3 1.06531e-17 0)
(3 -2.38206e-18 0)
(3 1.93035e-17 0)
(3 3.86137e-17 0)
(3 1.64735e-17 0)
(3 -8.50742e-19 0)
(3 -3.8482e-17 0)
(3 -2.05858e-17 0)
(3 1.28658e-17 0)
(3 -1.61436e-16 0)
(3 -5.06723e-17 0)
(3 6.64683e-18 0)
(3 2.2829e-17 0)
(3 1.02093e-16 0)
(3 3.86447e-17 0)
(3 6.14059e-17 0)
(3 5.27608e-17 0)
(3 5.63392e-17 0)
(3 1.1055e-16 0)
(3 2.50582e-17 0)
(3 1.9931e-17 0)
(3 1.11033e-17 0)
(3 -3.56612e-18 0)
(3 1.96331e-20 0)
(3 0 0)
(3 -6.01338e-18 0)
(3 -9.46876e-18 0)
(3 -2.19207e-17 0)
(3 -1.96299e-17 0)
(3 6.01091e-18 0)
(3 -6.01947e-18 0)
(3 -1.80427e-17 0)
(3 5.32778e-18 0)
(3 -1.20343e-17 0)
(3 -1.20257e-17 0)
(3 -4.82169e-17 0)
(3 -3.48641e-17 0)
(3 1.0814e-17 0)
(3 1.14564e-17 0)
(3 1.52171e-17 0)
(3 -1.5089e-16 0)
(3 -9.26849e-17 0)
(3 1.36657e-16 0)
(3 5.6654e-17 0)
(3 1.76384e-17 0)
(3 -2.40547e-17 0)
(3 1.07085e-16 0)
(3 3.8394e-17 0)
(3 1.03043e-17 0)
(3 1.39895e-18 0)
(3 8.10225e-18 0)
(3 2.18923e-17 0)
(3 1.40486e-17 0)
(3 -3.04753e-17 0)
(3 -2.82169e-17 0)
(3 -2.82938e-17 0)
(3 -1.2073e-17 0)
(3 1.61793e-17 0)
(3 -5.61851e-18 0)
(3 -1.23342e-17 0)
(3 -2.57428e-17 0)
(3 -1.62051e-17 0)
(3 -5.62092e-18 0)
(3 1.12463e-17 0)
(3 8.77915e-18 0)
(3 -1.12437e-17 0)
(3 1.0392e-17 0)
(3 0 0)
(3 -2.14404e-17 0)
(3 -1.49418e-17 0)
(3 -6.76029e-18 0)
(3 -3.1094e-17 0)
(3 -2.2478e-17 0)
(3 -6.37491e-17 0)
(3 -2.42334e-17 0)
(3 0 0)
(3 7.51254e-17 0)
(3 -1.64554e-17 0)
(3 -1.1574e-16 0)
(3 2.23587e-17 0)
(3 8.38762e-18 0)
(3 -3.83803e-17 0)
(3 -3.85925e-17 0)
(3 -2.85097e-17 0)
(3 -1.40161e-17 0)
(3 -1.46578e-17 0)
(3 -1.57549e-17 0)
(3 -9.73329e-18 0)
(3 5.80714e-19 0)
(3 -5.24948e-18 0)
(3 5.25204e-18 0)
(3 2.99791e-19 0)
(3 -5.25286e-18 0)
(3 0 0)
(3 -6.81757e-17 0)
(3 -5.69544e-17 0)
(3 -5.97961e-17 0)
(3 -4.64986e-17 0)
(3 -1.9927e-17 0)
(3 -4.11536e-18 0)
(3 1.39766e-16 0)
(3 7.18686e-17 0)
(3 2.36386e-17 0)
(3 -4.31009e-17 0)
(3 -2.26466e-17 0)
(3 2.10076e-17 0)
(3 8.2001e-18 0)
(3 -5.35758e-16 0)
(3 -1.28188e-16 0)
(3 1.22832e-17 0)
(3 8.60292e-17 0)
(3 8.08571e-17 0)
(3 6.87829e-17 0)
(3 7.86989e-17 0)
(3 4.89225e-17 0)
(3 7.69042e-17 0)
(3 7.51191e-17 0)
(3 4.59429e-17 0)
(3 9.40401e-18 0)
(3 1.7504e-16 0)
(3 1.42924e-16 0)
(3 7.92683e-17 0)
(3 2.83595e-17 0)
(3 1.63695e-17 0)
(3 1.26848e-17 0)
(3 9.20762e-19 0)
(3 0 0)
(3 -4.27105e-17 0)
(3 7.44109e-17 0)
(3 7.16999e-17 0)
(3 2.95197e-17 0)
(3 4.23407e-17 0)
(3 1.96307e-17 0)
(3 -1.96253e-17 0)
(3 -1.14982e-17 0)
(3 1.39838e-17 0)
(3 -6.5609e-17 0)
(3 1.17446e-17 0)
(3 9.62996e-17 0)
(3 -6.50141e-18 0)
(3 -9.8666e-18 0)
(3 2.05262e-17 0)
(3 2.06333e-17 0)
(3 1.23537e-17 0)
(3 4.59196e-18 0)
(3 2.7282e-17 0)
(3 3.69292e-17 0)
(3 1.91038e-17 0)
(3 -8.47719e-19 0)
(3 -4.47292e-18 0)
(3 2.79499e-17 0)
(3 2.10483e-17 0)
(3 2.67626e-17 0)
(3 9.17857e-18 0)
(3 6.82114e-17 0)
(3 6.93978e-17 0)
(3 4.64606e-17 0)
(3 2.18415e-17 0)
(3 -9.17015e-18 0)
(3 -8.55427e-18 0)
(3 0 0)
(3 0 0)
(3 9.75431e-17 0)
(3 8.48472e-17 0)
(3 -7.97161e-17 0)
(3 1.56995e-17 0)
(3 0 0)
(3 3.81553e-16 0)
(3 7.03005e-17 0)
(3 -5.06556e-18 0)
(3 -5.72276e-17 0)
(3 -5.89282e-17 0)
(3 -5.56499e-17 0)
(3 -5.68632e-17 0)
(3 -3.77813e-17 0)
(3 -8.00207e-17 0)
(3 -9.13861e-17 0)
(3 -6.55589e-17 0)
(3 -2.29544e-17 0)
(3 -1.51289e-16 0)
(3 -1.31113e-16 0)
(3 -5.65339e-17 0)
(3 -7.30788e-17 0)
(3 -5.97898e-17 0)
(3 -2.55155e-17 0)
(3 8.57554e-18 0)
(3 1.68439e-17 0)
(3 4.47869e-17 0)
(3 -6.3203e-17 0)
(3 -2.80718e-17 0)
(3 -2.41294e-18 0)
(3 0 0)
(3 -1.54723e-17 0)
(3 1.7145e-17 0)
(3 1.0554e-17 0)
(3 6.00862e-17 0)
(3 -1.71389e-17 0)
(3 5.82361e-18 0)
(3 -1.0307e-16 0)
(3 -1.51514e-17 0)
(3 1.34831e-18 0)
(3 -2.00413e-18 0)
(3 -2.90239e-19 0)
(3 -9.808e-21 0)
(3 -4.01028e-18 0)
(3 -4.011e-18 0)
(3 -4.00886e-18 0)
(3 1.62689e-17 0)
(3 -2.86289e-18 0)
(3 3.60461e-17 0)
(3 -1.16646e-17 0)
(3 -1.32097e-17 0)
(3 -4.00635e-18 0)
(3 -8.01588e-18 0)
(3 -8.01558e-18 0)
(3 4.54045e-16 0)
(3 3.87198e-16 0)
(3 1.36208e-16 0)
(3 2.6148e-17 0)
(3 -7.62852e-18 0)
(3 -1.42858e-17 0)
(3 1.02074e-17 0)
(3 -5.56206e-17 0)
(3 -2.04154e-18 0)
(3 7.89036e-17 0)
(3 9.47033e-18 0)
(3 0 0)
(3 5.72976e-17 0)
(3 6.2076e-17 0)
(3 7.47788e-17 0)
(3 3.61181e-17 0)
(3 2.03405e-18 0)
(3 -1.24503e-17 0)
(3 -1.35287e-17 0)
(3 -7.32604e-18 0)
(3 -4.693e-17 0)
(3 -4.22933e-17 0)
(3 -3.89984e-17 0)
(3 -2.10181e-17 0)
(3 -9.98014e-18 0)
(3 -2.07851e-18 0)
(3 1.87195e-17 0)
(3 3.85391e-17 0)
(3 2.39148e-17 0)
(3 2.55133e-17 0)
(3 4.55482e-17 0)
(3 -4.37302e-17 0)
(3 4.52338e-17 0)
(3 2.42649e-17 0)
(3 1.36165e-17 0)
(3 -1.79198e-17 0)
(3 -1.04346e-17 0)
(3 1.24363e-17 0)
(3 4.99439e-21 0)
(3 -8.78025e-17 0)
(3 -1.05176e-16 0)
(3 7.75354e-19 0)
(3 3.63539e-21 0)
(3 1.49729e-17 0)
(3 2.37421e-17 0)
(3 3.62168e-17 0)
(3 3.72675e-17 0)
(3 3.38881e-17 0)
(3 3.00509e-17 0)
(3 2.4843e-17 0)
(3 3.93505e-17 0)
(3 1.6027e-17 0)
(3 -1.80713e-17 0)
(3 -3.61675e-17 0)
(3 -6.90915e-17 0)
(3 -4.03288e-17 0)
(3 -1.70883e-17 0)
(3 -2.51599e-17 0)
(3 -1.57149e-17 0)
(3 -6.99545e-18 0)
(3 -4.50014e-16 0)
(3 -3.47605e-16 0)
(3 -1.01048e-16 0)
(3 -5.81392e-18 0)
(3 -1.95217e-17 0)
(3 -6.99765e-18 0)
(3 -2.11959e-17 0)
(3 -6.84182e-18 0)
(3 -1.39927e-17 0)
(3 4.44e-17 0)
(3 7.80479e-19 0)
(3 0 0)
(3 -2.39784e-17 0)
(3 -7.85901e-18 0)
(3 3.25513e-18 0)
(3 6.54153e-18 0)
(3 5.60751e-18 0)
(3 3.30182e-18 0)
(3 6.24367e-18 0)
(3 1.26482e-17 0)
(3 4.37488e-17 0)
(3 4.40682e-17 0)
(3 4.1021e-17 0)
(3 2.8253e-17 0)
(3 1.19968e-18 0)
(3 -3.26617e-18 0)
(3 -2.28824e-17 0)
(3 -5.13496e-17 0)
(3 -5.43437e-17 0)
(3 -3.46789e-17 0)
(3 -8.40929e-18 0)
(3 4.81329e-18 0)
(3 -1.19087e-16 0)
(3 -7.20818e-17 0)
(3 -1.94209e-17 0)
(3 1.96128e-17 0)
(3 9.96661e-18 0)
(3 -3.01463e-17 0)
(3 -5.55641e-17 0)
(3 3.01475e-17 0)
(3 7.89508e-17 0)
(3 2.19331e-17 0)
(3 4.86709e-18 0)
(3 1.12223e-17 0)
(3 -7.39596e-17 0)
(3 -6.7745e-17 0)
(3 -4.79783e-17 0)
(3 -2.42718e-17 0)
(3 1.9998e-18 0)
(3 1.92823e-17 0)
(3 7.62456e-18 0)
(3 -4.20511e-19 0)
(3 -3.89595e-18 0)
(3 2.46384e-17 0)
(3 2.74923e-17 0)
(3 2.31511e-17 0)
(3 2.94166e-17 0)
(3 4.15879e-18 0)
(3 -3.05505e-17 0)
(3 -1.04654e-17 0)
(3 0 0)
(3 -6.11117e-18 0)
(3 1.83289e-17 0)
(3 2.04614e-17 0)
(3 2.48102e-17 0)
(3 1.01949e-17 0)
(3 3.33717e-17 0)
(3 -3.27221e-17 0)
(3 -1.22202e-17 0)
(3 -4.90503e-17 0)
(3 -1.57571e-17 0)
(3 -3.85204e-17 0)
(3 1.22181e-17 0)
(3 1.49528e-17 0)
(3 2.37609e-18 0)
(3 -4.87902e-18 0)
(3 -1.28479e-17 0)
(3 6.24848e-17 0)
(3 7.76925e-17 0)
(3 4.80496e-17 0)
(3 1.96741e-17 0)
(3 1.48376e-18 0)
(3 -2.69437e-18 0)
(3 -7.14025e-18 0)
(3 2.35591e-18 0)
(3 1.97826e-17 0)
(3 1.26748e-17 0)
(3 7.07091e-17 0)
(3 7.42865e-17 0)
(3 -3.44813e-18 0)
(3 -8.41528e-18 0)
(3 -7.73311e-18 0)
(3 3.20339e-17 0)
(3 1.32576e-17 0)
(3 -1.01602e-17 0)
(3 2.26751e-17 0)
(3 1.0336e-17 0)
(3 4.65846e-17 0)
(3 4.3067e-17 0)
(3 6.24315e-17 0)
(3 -2.09098e-17 0)
(3 3.24198e-18 0)
(3 -4.10444e-17 0)
(3 -1.60313e-17 0)
(3 4.13485e-17 0)
(3 4.13509e-17 0)
(3 3.94198e-17 0)
(3 -4.55725e-18 0)
(3 -1.81878e-17 0)
(3 -2.22384e-17 0)
(3 -3.54674e-17 0)
(3 -3.472e-17 0)
(3 -2.61231e-17 0)
(3 -9.83833e-18 0)
(3 -6.96465e-18 0)
(3 5.44023e-17 0)
(3 4.05165e-17 0)
(3 4.13521e-17 0)
(3 3.99381e-17 0)
(3 4.19705e-17 0)
(3 3.26865e-18 0)
(3 5.33705e-18 0)
(3 -9.85935e-18 0)
(3 -1.65458e-18 0)
(3 3.85935e-17 0)
(3 3.18916e-17 0)
(3 -1.8682e-17 0)
(3 4.65827e-17 0)
(3 6.78138e-18 0)
(3 -2.17736e-17 0)
(3 3.07475e-17 0)
(3 3.90859e-17 0)
(3 -3.02646e-18 0)
(3 -4.85836e-17 0)
(3 -1.22109e-17 0)
(3 -9.64788e-18 0)
(3 4.2339e-18 0)
(3 -4.26854e-17 0)
(3 -3.80861e-17 0)
(3 -3.30944e-17 0)
(3 -2.34081e-17 0)
(3 -1.59666e-17 0)
(3 -1.05102e-17 0)
(3 2.25776e-17 0)
(3 1.15006e-17 0)
(3 -2.4911e-18 0)
(3 -2.44976e-18 0)
(3 -2.26297e-17 0)
(3 -1.84131e-17 0)
(3 3.13948e-17 0)
(3 2.83015e-17 0)
(3 2.88757e-17 0)
(3 1.98444e-17 0)
(3 2.18205e-17 0)
(3 -1.75407e-17 0)
(3 -2.50141e-17 0)
(3 -3.90701e-18 0)
(3 -4.76418e-17 0)
(3 -1.13773e-17 0)
(3 -1.25676e-17 0)
(3 -1.06774e-17 0)
(3 -3.05257e-17 0)
(3 3.72811e-17 0)
(3 -2.35437e-17 0)
(3 1.07071e-17 0)
(3 9.40226e-18 0)
(3 7.40732e-18 0)
(3 4.23528e-18 0)
(3 2.01591e-18 0)
(3 2.09707e-17 0)
(3 3.49466e-17 0)
(3 3.39068e-17 0)
(3 6.53047e-18 0)
(3 -3.03238e-17 0)
(3 -2.90019e-17 0)
(3 -6.83166e-17 0)
(3 -6.87751e-17 0)
(3 -3.64229e-17 0)
(3 1.26648e-17 0)
(3 -1.51952e-17 0)
(3 1.19553e-17 0)
(3 -2.19148e-17 0)
(3 8.05225e-18 0)
(3 -1.65538e-18 0)
(3 -1.52774e-17 0)
(3 -1.37346e-17 0)
(3 -6.16182e-18 0)
(3 -1.00973e-20 0)
(3 1.39836e-17 0)
(3 1.61525e-17 0)
(3 -4.18491e-17 0)
(3 8.35422e-19 0)
(3 2.23576e-17 0)
(3 1.32299e-17 0)
(3 -1.41525e-17 0)
(3 2.27558e-18 0)
(3 -1.53111e-18 0)
(3 -1.9049e-18 0)
(3 5.63039e-18 0)
(3 -6.53033e-18 0)
(3 -1.02199e-18 0)
(3 6.52946e-18 0)
(3 -1.64437e-15 0)
(3 -1.51144e-15 0)
(3 -1.07498e-15 0)
(3 -3.99004e-16 0)
(3 -4.16776e-17 0)
(3 -1.63588e-17 0)
(3 -5.29272e-18 0)
(3 -1.45801e-17 0)
(3 -3.16173e-17 0)
(3 -1.62303e-17 0)
(3 2.39995e-18 0)
(3 -1.28296e-17 0)
(3 1.80608e-17 0)
(3 -1.94215e-17 0)
(3 -8.56429e-18 0)
(3 8.70951e-18 0)
(3 -7.78615e-19 0)
(3 2.36043e-17 0)
(3 -3.68011e-17 0)
(3 -3.31519e-18 0)
(3 -8.71062e-18 0)
(3 1.33153e-17 0)
(3 0 0)
(3 1.11914e-17 0)
(3 2.41317e-17 0)
(3 1.19648e-17 0)
(3 1.83927e-17 0)
(3 1.55866e-18 0)
(3 9.19079e-18 0)
(3 2.39391e-17 0)
(3 -1.56094e-15 0)
(3 -1.43894e-15 0)
(3 -8.20675e-16 0)
(3 -3.80893e-16 0)
(3 -1.41594e-16 0)
(3 -8.8354e-18 0)
(3 -1.46192e-17 0)
(3 -1.02468e-17 0)
(3 -1.17296e-17 0)
(3 3.7629e-18 0)
(3 0 0)
(3 0 0)
(3 -4.06942e-18 0)
(3 -4.0706e-18 0)
(3 -7.20792e-19 0)
(3 1.87651e-17 0)
(3 9.8203e-18 0)
(3 6.26199e-18 0)
(3 -4.93807e-17 0)
(3 -2.30967e-17 0)
(3 -5.67188e-18 0)
(3 0 0)
(0.914118 0.143451 0)
(2.20136 -0.626441 0)
(2.8661 -0.521205 0)
(2.98363 -0.146758 0)
(3.00089 -0.0162606 0)
(3.00092 -0.000828147 0)
(3.00026 -0.000148242 0)
(3.00001 -5.29938e-06 0)
(3 -5.8943e-08 0)
(3 -2.20883e-08 0)
(3 -1.34575e-09 0)
(3 -8.95835e-12 0)
(3 -2.57299e-14 0)
(3 1.99504e-17 0)
(3 1.77428e-17 0)
(3 4.16312e-18 0)
(3 6.81078e-17 0)
(3 -1.03345e-16 0)
(3 3.18901e-17 0)
(3 -2.52646e-17 0)
(3 2.83014e-17 0)
(3 1.51536e-17 0)
(3 -2.26062e-17 0)
(3 -7.51503e-18 0)
(3 -3.09961e-17 0)
(3 9.87382e-17 0)
(3 2.38577e-17 0)
(3 -9.22372e-19 0)
(3 -8.01246e-17 0)
(3 1.05589e-17 0)
(3 3.94053e-17 0)
(3 -1.76449e-17 0)
(3 1.29734e-17 0)
(3 -8.04914e-18 0)
(3 -1.47288e-18 0)
(1.21582 0.19314 0)
(2.38306 -0.617207 0)
(2.90234 -0.45461 0)
(2.98952 -0.108803 0)
(3.00131 -0.00896435 0)
(3.00071 -0.000526813 0)
(3.0002 -0.000114354 0)
(3 -2.75439e-06 0)
(3 -6.53794e-08 0)
(3 -2.09805e-08 0)
(3 -7.89856e-10 0)
(3 -3.38588e-12 0)
(3 -8.26814e-15 0)
(3 4.04658e-17 0)
(3 -9.80499e-18 0)
(3 5.65993e-17 0)
(3 -5.39809e-18 0)
(3 -5.71631e-17 0)
(3 3.95847e-17 0)
(3 -3.523e-17 0)
(3 3.10188e-17 0)
(3 2.18071e-17 0)
(3 -3.13146e-17 0)
(3 -5.56293e-18 0)
(3 -5.34394e-17 0)
(3 1.39626e-16 0)
(3 -8.02933e-18 0)
(3 1.68863e-17 0)
(3 -8.62729e-17 0)
(3 3.72977e-17 0)
(3 -1.11866e-17 0)
(3 -1.121e-17 0)
(3 8.67051e-18 0)
(3 -3.65777e-18 0)
(3 -4.77179e-18 0)
(1.21317 0.19461 0)
(2.37266 -0.618468 0)
(2.89651 -0.462571 0)
(2.98776 -0.113037 0)
(3.00111 -0.00960774 0)
(3.00071 -0.00054263 0)
(3.00021 -0.000119239 0)
(3 -3.09844e-06 0)
(3 -6.54321e-08 0)
(3 -2.17365e-08 0)
(3 -9.01593e-10 0)
(3 -4.20523e-12 0)
(3 -9.83447e-15 0)
(3 4.24244e-17 0)
(3 -5.57602e-17 0)
(3 1.44138e-16 0)
(3 -6.86994e-17 0)
(3 -1.06007e-17 0)
(3 5.33058e-18 0)
(3 -5.09039e-17 0)
(3 1.59823e-18 0)
(3 2.47869e-17 0)
(3 -3.63131e-17 0)
(3 2.23886e-17 0)
(3 -6.90665e-17 0)
(3 5.67212e-17 0)
(3 5.77078e-17 0)
(3 6.67296e-18 0)
(3 -4.63683e-17 0)
(3 8.65006e-18 0)
(3 -1.88588e-17 0)
(3 -1.33473e-17 0)
(3 1.64295e-17 0)
(3 -8.16192e-18 0)
(3 -6.16913e-18 0)
(1.21019 0.195719 0)
(2.36562 -0.619978 0)
(2.89297 -0.467843 0)
(2.98672 -0.115656 0)
(3.00099 -0.00998285 0)
(3.00071 -0.000553762 0)
(3.00021 -0.000123512 0)
(3 -3.40059e-06 0)
(3 -6.70384e-08 0)
(3 -2.24323e-08 0)
(3 -9.62456e-10 0)
(3 -4.57327e-12 0)
(3 -1.09073e-14 0)
(3 3.80915e-18 0)
(3 -6.43743e-17 0)
(3 1.92451e-16 0)
(3 -1.12134e-16 0)
(3 -4.17848e-17 0)
(3 -2.25827e-17 0)
(3 2.74343e-17 0)
(3 -2.38361e-17 0)
(3 -4.97913e-18 0)
(3 -1.75631e-17 0)
(3 3.61734e-17 0)
(3 -8.89427e-17 0)
(3 5.72484e-17 0)
(3 1.89244e-17 0)
(3 1.87192e-16 0)
(3 -9.98754e-17 0)
(3 -1.18512e-17 0)
(3 5.65923e-18 0)
(3 -2.8598e-18 0)
(3 1.84843e-17 0)
(3 -1.02411e-17 0)
(3 -1.23884e-17 0)
(1.20729 0.196896 0)
(2.35809 -0.621138 0)
(2.88892 -0.473611 0)
(2.98546 -0.118711 0)
(3.00083 -0.0104455 0)
(3.00071 -0.000561989 0)
(3.00022 -0.000126204 0)
(3 -3.6519e-06 0)
(3 -6.72173e-08 0)
(3 -2.29799e-08 0)
(3 -1.05333e-09 0)
(3 -5.28747e-12 0)
(3 -1.20689e-14 0)
(3 6.16281e-17 0)
(3 -4.61576e-17 0)
(3 2.91033e-16 0)
(3 -1.36712e-16 0)
(3 -7.94606e-17 0)
(3 -5.82877e-17 0)
(3 7.45697e-17 0)
(3 -3.22371e-17 0)
(3 1.67851e-19 0)
(3 -9.49786e-18 0)
(3 4.92436e-17 0)
(3 -1.05402e-16 0)
(3 -8.1699e-18 0)
(3 -2.60422e-16 0)
(3 4.02265e-16 0)
(3 -1.12512e-16 0)
(3 1.86944e-17 0)
(3 1.26371e-17 0)
(3 -1.14706e-17 0)
(3 2.00349e-17 0)
(3 -1.11143e-17 0)
(3 -7.63705e-18 0)
(1.20439 0.198068 0)
(2.3506 -0.622417 0)
(2.88492 -0.479344 0)
(2.98422 -0.121757 0)
(3.00068 -0.0109268 0)
(3.00071 -0.000576892 0)
(3.00022 -0.000130688 0)
(3 -4.0206e-06 0)
(3 -6.85114e-08 0)
(3 -2.36467e-08 0)
(3 -1.13544e-09 0)
(3 -5.9299e-12 0)
(3 -1.37307e-14 0)
(3 7.63694e-17 0)
(3 -2.42646e-17 0)
(3 3.25646e-16 0)
(3 -2.60977e-16 0)
(3 -1.42561e-17 0)
(3 -4.31905e-17 0)
(3 8.64863e-17 0)
(3 -4.27586e-17 0)
(3 4.84754e-18 0)
(3 7.68798e-19 0)
(3 4.83757e-17 0)
(3 -5.1486e-17 0)
(3 -4.22482e-17 0)
(3 6.33166e-17 0)
(3 -8.08487e-17 0)
(3 -1.53894e-17 0)
(3 1.35898e-17 0)
(3 1.73527e-17 0)
(3 -1.79054e-17 0)
(3 -5.15976e-18 0)
(3 -2.23378e-18 0)
(3 2.35581e-17 0)
(1.20149 0.199247 0)
(2.34306 -0.6236 0)
(2.88083 -0.485144 0)
(2.98291 -0.124882 0)
(3.00051 -0.0114216 0)
(3.00071 -0.000588482 0)
(3.00022 -0.000134281 0)
(3 -4.3829e-06 0)
(3 -6.96222e-08 0)
(3 -2.42742e-08 0)
(3 -1.23222e-09 0)
(3 -6.73393e-12 0)
(3 -1.61905e-14 0)
(3 9.17673e-17 0)
(3 -4.06573e-17 0)
(3 7.59225e-18 0)
(3 1.89717e-19 0)
(3 4.9279e-17 0)
(3 3.49315e-18 0)
(3 -1.9596e-17 0)
(3 5.41393e-18 0)
(3 -1.7953e-17 0)
(3 2.86416e-17 0)
(3 -3.47523e-18 0)
(3 -2.25064e-17 0)
(3 -4.02376e-17 0)
(3 4.68987e-17 0)
(3 9.80616e-18 0)
(3 -1.59418e-17 0)
(3 1.23285e-17 0)
(3 1.14918e-17 0)
(3 -1.61022e-18 0)
(3 -7.5173e-18 0)
(3 5.5384e-19 0)
(3 3.85029e-17 0)
(1.19859 0.200433 0)
(2.33547 -0.624773 0)
(2.87667 -0.491002 0)
(2.98157 -0.128092 0)
(3.00033 -0.0119494 0)
(3.00071 -0.000603925 0)
(3.00023 -0.000138155 0)
(3 -4.80426e-06 0)
(3 -7.097e-08 0)
(3 -2.49173e-08 0)
(3 -1.33161e-09 0)
(3 -7.61018e-12 0)
(3 -1.86631e-14 0)
(3 1.07552e-16 0)
(3 -3.52585e-17 0)
(3 -1.68389e-17 0)
(3 7.13295e-18 0)
(3 8.65495e-17 0)
(3 -1.26715e-17 0)
(3 -2.84192e-17 0)
(3 5.44236e-18 0)
(3 -2.72807e-17 0)
(3 3.74824e-17 0)
(3 -1.04788e-17 0)
(3 -2.90689e-17 0)
(3 1.10418e-17 0)
(3 1.07354e-17 0)
(3 1.01656e-17 0)
(3 -5.28033e-18 0)
(3 -2.67777e-17 0)
(3 2.24445e-17 0)
(3 7.94622e-18 0)
(3 -7.59453e-18 0)
(3 -3.31635e-18 0)
(3 4.4912e-17 0)
(1.19569 0.201625 0)
(2.32785 -0.625903 0)
(2.87245 -0.496911 0)
(2.98017 -0.131375 0)
(3.00013 -0.0124995 0)
(3.00071 -0.000622662 0)
(3.00023 -0.000139135 0)
(3.00001 -5.26968e-06 0)
(3 -7.25455e-08 0)
(3 -2.55682e-08 0)
(3 -1.43961e-09 0)
(3 -8.59737e-12 0)
(3 -2.10385e-14 0)
(3 1.298e-16 0)
(3 -3.72437e-17 0)
(3 -2.33257e-17 0)
(3 6.45187e-18 0)
(3 1.2074e-16 0)
(3 -2.81585e-17 0)
(3 -5.85666e-18 0)
(3 -1.64235e-17 0)
(3 -1.62446e-17 0)
(3 2.3902e-17 0)
(3 -2.03947e-17 0)
(3 1.04264e-19 0)
(3 6.5514e-17 0)
(3 -3.70481e-17 0)
(3 8.03479e-18 0)
(3 -3.26571e-17 0)
(3 -2.21068e-17 0)
(3 4.949e-17 0)
(3 -6.3923e-18 0)
(3 2.47104e-17 0)
(3 -2.49692e-17 0)
(3 2.84611e-17 0)
(1.1928 0.202823 0)
(2.32019 -0.626999 0)
(2.86815 -0.502876 0)
(2.97873 -0.13474 0)
(2.99992 -0.0130782 0)
(3.00071 -0.000643697 0)
(3.00023 -0.000139757 0)
(3.00001 -5.78186e-06 0)
(3 -7.43909e-08 0)
(3 -2.62249e-08 0)
(3 -1.5553e-09 0)
(3 -9.7156e-12 0)
(3 -2.30434e-14 0)
(3 -3.68092e-17 0)
(3 -6.95938e-17 0)
(3 -8.39123e-18 0)
(3 -2.07506e-17 0)
(3 1.69248e-16 0)
(3 -4.79719e-17 0)
(3 -8.09406e-18 0)
(3 6.44467e-18 0)
(3 -4.50556e-17 0)
(3 2.23186e-17 0)
(3 -2.77764e-17 0)
(3 4.88158e-18 0)
(3 9.1862e-17 0)
(3 -3.57724e-17 0)
(3 -2.23895e-17 0)
(3 -3.71795e-17 0)
(3 -2.34413e-17 0)
(3 5.98595e-17 0)
(3 -2.61012e-17 0)
(3 2.89606e-17 0)
(3 -3.06086e-18 0)
(3 2.72319e-17 0)
(1.1899 0.204028 0)
(2.31248 -0.628058 0)
(2.86379 -0.508895 0)
(2.97724 -0.138186 0)
(2.9997 -0.0136849 0)
(3.0007 -0.000666339 0)
(3.00023 -0.000140231 0)
(3.00001 -6.35541e-06 0)
(3 -7.66099e-08 0)
(3 -2.68945e-08 0)
(3 -1.68013e-09 0)
(3 -1.09925e-11 0)
(3 -2.58193e-14 0)
(3 -6.95997e-17 0)
(3 -2.44813e-17 0)
(3 -4.34549e-17 0)
(3 -4.82587e-17 0)
(3 1.91519e-16 0)
(3 -6.86997e-17 0)
(3 2.14217e-17 0)
(3 7.56931e-18 0)
(3 -1.29342e-17 0)
(3 -2.25518e-17 0)
(3 -3.07721e-17 0)
(3 1.83329e-17 0)
(3 1.1499e-16 0)
(3 -6.26501e-17 0)
(3 -3.63459e-17 0)
(3 -3.59849e-17 0)
(3 -2.28968e-17 0)
(3 7.83532e-17 0)
(3 -3.44514e-17 0)
(3 2.87897e-17 0)
(3 1.31507e-18 0)
(3 2.12674e-17 0)
(1.18701 0.205239 0)
(2.30474 -0.629079 0)
(2.85935 -0.514968 0)
(2.9757 -0.141716 0)
(2.99946 -0.0143216 0)
(3.0007 -0.0006909 0)
(3.00023 -0.000140624 0)
(3.00001 -7.0101e-06 0)
(3 -7.92544e-08 0)
(3 -2.75694e-08 0)
(3 -1.8145e-09 0)
(3 -1.24087e-11 0)
(3 -2.88487e-14 0)
(3 -8.77359e-17 0)
(3 5.85947e-17 0)
(3 -5.53971e-17 0)
(3 3.73708e-17 0)
(3 6.92777e-18 0)
(3 2.04238e-17 0)
(3 4.16638e-17 0)
(3 4.20915e-18 0)
(3 -2.11352e-17 0)
(3 -2.62151e-17 0)
(3 -1.5883e-17 0)
(3 -2.33265e-17 0)
(3 9.34267e-17 0)
(3 -4.59485e-17 0)
(3 -4.46001e-17 0)
(3 1.28863e-17 0)
(3 -2.87128e-18 0)
(3 5.32254e-17 0)
(3 -3.13029e-17 0)
(3 1.80816e-17 0)
(3 2.00676e-17 0)
(3 2.15349e-18 0)
(1.18412 0.206457 0)
(2.29695 -0.630064 0)
(2.85485 -0.521093 0)
(2.97412 -0.14533 0)
(2.9992 -0.0149898 0)
(3.0007 -0.000717519 0)
(3.00023 -0.00014095 0)
(3.00001 -7.78165e-06 0)
(3 -8.25007e-08 0)
(3 -2.8256e-08 0)
(3 -1.95991e-09 0)
(3 -1.40143e-11 0)
(3 -3.62971e-14 0)
(3 -1.6604e-16 0)
(3 1.14719e-16 0)
(3 -3.53222e-17 0)
(3 3.79852e-17 0)
(3 -2.51445e-17 0)
(3 4.4446e-18 0)
(3 2.02622e-17 0)
(3 1.0439e-17 0)
(3 -4.47915e-17 0)
(3 -2.11414e-17 0)
(3 2.33619e-17 0)
(3 -5.69781e-17 0)
(3 5.73903e-17 0)
(3 -1.86255e-17 0)
(3 -6.77793e-17 0)
(3 2.03591e-17 0)
(3 1.93943e-17 0)
(3 5.97365e-17 0)
(3 -1.84654e-17 0)
(3 -1.88653e-17 0)
(3 3.07887e-17 0)
(3 6.49847e-18 0)
(1.18123 0.207681 0)
(2.28913 -0.63101 0)
(2.85027 -0.527273 0)
(2.97247 -0.149031 0)
(2.99893 -0.0156904 0)
(3.0007 -0.000746158 0)
(3.00023 -0.000141094 0)
(3.00001 -8.71343e-06 0)
(3 -8.64207e-08 0)
(3 -2.89383e-08 0)
(3 -2.11854e-09 0)
(3 -1.58279e-11 0)
(3 -4.00918e-14 0)
(3 -1.79162e-16 0)
(3 1.10657e-16 0)
(3 5.80151e-17 0)
(3 -2.40797e-17 0)
(3 -1.71072e-17 0)
(3 -3.67627e-17 0)
(3 2.71458e-18 0)
(3 -4.7846e-17 0)
(3 -1.69498e-17 0)
(3 -2.43755e-17 0)
(3 5.35784e-17 0)
(3 -1.73464e-17 0)
(3 2.80595e-17 0)
(3 -3.00046e-17 0)
(3 -7.51807e-17 0)
(3 9.48501e-17 0)
(3 4.06613e-17 0)
(3 1.20778e-17 0)
(3 -2.60506e-17 0)
(3 -2.7702e-17 0)
(3 1.39238e-17 0)
(3 -6.5351e-18 0)
(1.17835 0.208912 0)
(2.28127 -0.631917 0)
(2.84562 -0.533505 0)
(2.97078 -0.15282 0)
(2.99864 -0.0164251 0)
(3.00069 -0.000777134 0)
(3.00024 -0.000141212 0)
(3.00001 -9.70731e-06 0)
(3 -9.13551e-08 0)
(3 -2.96373e-08 0)
(3 -2.29462e-09 0)
(3 -1.79077e-11 0)
(3 -4.70638e-14 0)
(3 -1.58124e-16 0)
(3 1.11093e-16 0)
(3 3.25929e-17 0)
(3 1.23879e-16 0)
(3 1.00894e-16 0)
(3 -1.81176e-16 0)
(3 3.56435e-17 0)
(3 -8.08918e-17 0)
(3 -9.84618e-18 0)
(3 1.32701e-17 0)
(3 5.05669e-17 0)
(3 -2.26894e-17 0)
(3 2.8287e-17 0)
(3 -2.43575e-17 0)