/*--------------------------------*- C++ -*----------------------------------*\
  =========                 |
  \\      /  F ield         | OpenFOAM: The Open Source CFD Toolbox
   \\    /   O peration     | Website:  https://openfoam.org
    \\  /    A nd           | Version:  7
     \\/     M anipulation  |
\*---------------------------------------------------------------------------*/
FoamFile
{
    version     2.0;
    format      ascii;
    class       volScalarField;
    location    "5";
    object      p;
}
// * * * * * * * * * * * * * * * * * * * * * * * * * * * * * * * * * * * * * //

dimensions      [1 -1 -2 0 0 0 0];

internalField   nonuniform List<scalar> 
90000
(
0.551811
0.563411
0.574829
0.586855
0.59835
0.608346
0.617783
0.627922
0.637794
0.647827
0.658642
0.671435
0.685371
0.700541
0.716134
0.732452
0.748445
0.764854
0.780662
0.797014
0.812549
0.828657
0.843597
0.859358
0.873669
0.888909
0.902305
0.916784
0.928834
0.942032
0.95248
0.96425
0.972695
0.982361
0.988186
0.995314
0.998845
1.0014
1.00361
1.00384
1.00298
1.0012
0.998382
0.993857
0.985794
0.977211
0.970573
0.968673
0.96983
0.973507
0.978858
0.984682
0.990047
0.993885
0.996961
0.996561
0.995698
0.994865
0.993218
0.990774
0.987136
0.984294
0.98402
0.986147
0.989769
0.993617
0.998334
0.998709
1.00008
0.999503
0.99777
0.994635
0.990954
0.988173
0.988007
0.989104
0.991312
0.991671
0.991393
0.990038
0.987871
0.98824
0.989754
0.990011
0.991133
0.992499
0.993313
0.993909
0.993194
0.992692
0.992446
0.992057
0.992418
0.993258
0.993536
0.993826
0.993563
0.992695
0.991848
0.990827
0.542046
0.542444
0.543064
0.544054
0.545798
0.547839
0.550073
0.552913
0.556428
0.560234
0.564466
0.569239
0.574771
0.580866
0.587888
0.595661
0.60455
0.614065
0.624776
0.636055
0.648759
0.661866
0.676384
0.691071
0.707221
0.723317
0.740767
0.757958
0.77621
0.794059
0.812377
0.830457
0.8481
0.865878
0.88182
0.898371
0.912179
0.92704
0.936869
0.948284
0.954676
0.962028
0.965061
0.969927
0.978359
0.988593
0.99463
0.999305
1.00007
0.999252
0.99722
0.994505
0.991406
0.988415
0.987095
0.985625
0.985276
0.985463
0.98628
0.987865
0.990636
0.993257
0.996161
0.99942
0.999075
0.997462
0.995367
0.991958
0.990806
0.991077
0.990987
0.992612
0.996566
0.995814
0.993736
0.990877
0.988513
0.986234
0.986853
0.989929
0.99196
0.992279
0.990441
0.988928
0.989774
0.99273
0.99481
0.994005
0.992161
0.990713
0.991693
0.99293
0.993491
0.992713
0.992854
0.993667
0.993846
0.993298
0.99255
0.991423
0.541958
0.54193
0.541925
0.541978
0.541976
0.54199
0.542
0.542003
0.541989
0.541946
0.541918
0.541942
0.541972
0.54207
0.542319
0.54276
0.543374
0.544234
0.545325
0.546677
0.548493
0.550785
0.553801
0.557431
0.562103
0.567563
0.574525
0.582439
0.592498
0.603599
0.617506
0.632308
0.6506
0.669596
0.69245
0.715656
0.742343
0.769305
0.798027
0.827171
0.855183
0.884521
0.909573
0.936447
0.951785
0.965139
0.970844
0.977071
0.97929
0.98138
0.982112
0.983065
0.98325
0.982516
0.98095
0.980839
0.981695
0.985027
0.989684
0.995162
0.999575
1.00205
1.0035
1.00235
0.998434
0.993328
0.987778
0.983463
0.981854
0.983995
0.990004
0.99615
0.999782
0.998986
0.995373
0.990197
0.984742
0.985441
0.98852
0.992164
0.993926
0.992413
0.989823
0.988861
0.989811
0.992048
0.993836
0.993436
0.99245
0.992169
0.992646
0.993208
0.99284
0.992378
0.9925
0.993029
0.993493
0.993363
0.992723
0.991453
0.541469
0.541445
0.541425
0.541408
0.541397
0.54139
0.541367
0.541325
0.541261
0.541157
0.541054
0.540989
0.540949
0.540931
0.540939
0.540974
0.541127
0.541136
0.541074
0.54099
0.54091
0.540861
0.540872
0.540944
0.541057
0.541192
0.541418
0.541759
0.542307
0.543093
0.544431
0.546249
0.548907
0.552418
0.557617
0.564104
0.573533
0.584683
0.600499
0.618113
0.642221
0.667746
0.700157
0.733013
0.768919
0.805031
0.836479
0.869447
0.892011
0.917242
0.930734
0.946957
0.954501
0.964333
0.966718
0.972283
0.979476
0.989879
0.995658
0.999977
1.00233
1.00247
1.00193
0.999005
0.994626
0.990648
0.987386
0.986326
0.988644
0.991654
0.995571
0.995228
0.994572
0.992595
0.990527
0.989544
0.989863
0.991418
0.992514
0.992464
0.992016
0.991608
0.991203
0.99144
0.991649
0.992056
0.992355
0.992517
0.992085
0.992254
0.992455
0.993112
0.992974
0.992619
0.992316
0.992599
0.993399
0.993549
0.993186
0.992006
0.541842
0.541842
0.54185
0.541842
0.54183
0.541827
0.541849
0.541848
0.541811
0.541774
0.541751
0.541722
0.541678
0.541625
0.54157
0.541514
0.541461
0.541417
0.541375
0.541322
0.541234
0.541149
0.541108
0.541099
0.541131
0.541175
0.541237
0.541345
0.541493
0.541764
0.541819
0.54188
0.541985
0.54216
0.542426
0.5428
0.543338
0.544081
0.545204
0.546871
0.549704
0.553757
0.560705
0.569797
0.584836
0.602904
0.630374
0.660186
0.699852
0.74
0.784705
0.828171
0.866832
0.905991
0.932444
0.95935
0.970152
0.979673
0.985466
0.989332
0.991802
0.991294
0.986992
0.976926
0.97824
0.981522
0.989075
0.994978
0.997975
0.995989
0.995095
0.992088
0.988293
0.986592
0.987681
0.991432
0.995072
0.995548
0.994031
0.990725
0.989036
0.989686
0.991588
0.993561
0.993096
0.991565
0.990422
0.990876
0.992398
0.993224
0.99297
0.992493
0.992045
0.992264
0.992477
0.992591
0.992904
0.993141
0.993182
0.992395
0.541287
0.541287
0.541269
0.5412
0.541171
0.541165
0.541167
0.54118
0.541205
0.541223
0.541258
0.541333
0.541394
0.541425
0.541454
0.5415
0.541529
0.541543
0.54157
0.541585
0.541584
0.54157
0.541552
0.541555
0.541581
0.541664
0.54183
0.541999
0.542099
0.542173
0.542286
0.542432
0.542627
0.542871
0.543139
0.543421
0.543756
0.544136
0.544519
0.54485
0.545211
0.545549
0.545843
0.546192
0.546836
0.547975
0.55031
0.554111
0.561651
0.572604
0.591975
0.616268
0.652754
0.692122
0.7424
0.789628
0.834145
0.871851
0.899954
0.922236
0.936823
0.948908
0.954042
0.967422
0.981073
0.991635
1.00081
1.00234
1.00163
0.99693
0.987464
0.980711
0.981001
0.983854
0.99052
0.997919
0.998285
0.997364
0.994647
0.991708
0.989251
0.990404
0.992627
0.994669
0.994168
0.991423
0.989516
0.989821
0.991623
0.993662
0.993885
0.992752
0.99197
0.991708
0.991997
0.992355
0.992789
0.99319
0.993133
0.992613
0.541018
0.541012
0.540998
0.540997
0.541001
0.54102
0.541055
0.541095
0.541128
0.541163
0.541227
0.541333
0.541437
0.541516
0.541592
0.541669
0.541731
0.541772
0.541807
0.541859
0.541917
0.541949
0.541958
0.54197
0.542024
0.542162
0.542349
0.542482
0.542573
0.542687
0.542846
0.543008
0.543181
0.543341
0.543514
0.543727
0.543949
0.544127
0.544319
0.544543
0.544797
0.54508
0.545404
0.545766
0.546064
0.546201
0.546241
0.546308
0.546472
0.546841
0.547692
0.549521
0.55349
0.560414
0.574363
0.594666
0.62874
0.668493
0.720453
0.772325
0.826514
0.875092
0.917735
0.95937
0.978259
0.987524
0.996111
0.997299
0.991383
0.971579
0.971251
0.974978
0.983651
0.992912
0.997567
0.997893
0.996576
0.992738
0.988372
0.989225
0.992079
0.994548
0.994256
0.993634
0.991995
0.990863
0.990019
0.990866
0.99169
0.992379
0.992255
0.992147
0.992365
0.992292
0.992013
0.992034
0.992308
0.992833
0.993423
0.992988
0.541392
0.541445
0.541504
0.541563
0.541616
0.541671
0.54174
0.541799
0.541815
0.541851
0.541982
0.542129
0.542209
0.542263
0.542323
0.542397
0.54247
0.542523
0.54257
0.54266
0.542757
0.542789
0.542797
0.542829
0.542946
0.543064
0.543073
0.543072
0.5431
0.543197
0.543344
0.543479
0.543578
0.543639
0.543706
0.543792
0.543871
0.543943
0.54404
0.544197
0.544409
0.544681
0.545003
0.545358
0.545649
0.545757
0.545756
0.545724
0.545634
0.545469
0.545301
0.545135
0.544776
0.544598
0.544729
0.545567
0.548207
0.554363
0.566252
0.587531
0.619433
0.662991
0.719856
0.773064
0.832827
0.873684
0.908757
0.93232
0.94746
0.956299
0.979875
0.990768
0.999186
1.00126
1.00035
0.992634
0.983974
0.98523
0.987383
0.993328
0.999044
0.99856
0.996274
0.991397
0.989011
0.989634
0.991339
0.993066
0.992665
0.991461
0.990738
0.99139
0.992335
0.992544
0.992173
0.991932
0.992019
0.992301
0.992736
0.992999
0.542207
0.542273
0.542323
0.542363
0.542404
0.542457
0.542545
0.542638
0.542694
0.542838
0.543068
0.543146
0.543179
0.543237
0.543321
0.54341
0.543466
0.543511
0.543586
0.543682
0.543721
0.543726
0.543732
0.543767
0.543822
0.543842
0.543833
0.543792
0.543775
0.543794
0.543847
0.54389
0.543902
0.543895
0.543869
0.543801
0.543763
0.543766
0.543793
0.543892
0.544046
0.544206
0.544346
0.544486
0.544654
0.54477
0.544776
0.544753
0.54467
0.544496
0.54428
0.544019
0.543642
0.543054
0.542472
0.542301
0.542301
0.542395
0.542799
0.544064
0.547001
0.553679
0.56697
0.590951
0.629277
0.684131
0.74924
0.81168
0.885586
0.942533
0.977186
0.985873
0.996387
0.996009
0.986434
0.969307
0.973309
0.981608
0.993075
1.0004
1.00005
0.997106
0.990975
0.988779
0.989072
0.991738
0.994178
0.993862
0.991871
0.989582
0.989867
0.991021
0.992178
0.992303
0.992145
0.99196
0.992038
0.992124
0.992334
0.99285
0.542886
0.542881
0.542877
0.542883
0.54293
0.542959
0.542998
0.543065
0.543304
0.543675
0.54371
0.543684
0.543701
0.543823
0.543942
0.543993
0.544023
0.544073
0.54416
0.544196
0.5442
0.544204
0.544222
0.544262
0.544269
0.544259
0.544231
0.5442
0.544167
0.544145
0.544139
0.544128
0.544078
0.543975
0.543842
0.543667
0.543479
0.543391
0.543342
0.543284
0.543245
0.54323
0.543211
0.543217
0.543293
0.543406
0.543443
0.543426
0.543374
0.543294
0.543172
0.542981
0.542646
0.542062
0.541537
0.54132
0.541173
0.541077
0.54108
0.541197
0.541487
0.541917
0.542508
0.543987
0.547293
0.557328
0.575154
0.612997
0.663554
0.735682
0.80891
0.859196
0.916296
0.933951
0.949508
0.965341
0.990001
1.00018
1.00066
1.00018
0.993273
0.986712
0.986868
0.988895
0.993385
0.996508
0.995924
0.992527
0.98979
0.989496
0.990453
0.992042
0.992052
0.99173
0.991798
0.992132
0.992148
0.992114
0.99217
0.992796
0.543602
0.543608
0.543642
0.543693
0.543779
0.543872
0.543958
0.544198
0.544471
0.544485
0.544442
0.54443
0.544473
0.544593
0.544659
0.544679
0.54471
0.544732
0.544732
0.544724
0.544722
0.544732
0.544764
0.544772
0.544756
0.544694
0.544618
0.544558
0.544514
0.544471
0.544416
0.544327
0.544155
0.543915
0.543789
0.543711
0.543578
0.543355
0.543086
0.542812
0.542604
0.542423
0.542159
0.542014
0.541992
0.542
0.54205
0.542069
0.542085
0.542134
0.54213
0.542055
0.541831
0.541398
0.541039
0.540902
0.540769
0.540623
0.540588
0.540623
0.540794
0.541109
0.541448
0.541551
0.541515
0.541614
0.542318
0.545396
0.552381
0.573824
0.606288
0.669383
0.743146
0.819385
0.90837
0.957661
0.985326
0.99446
0.996377
0.985724
0.975572
0.978793
0.987816
0.996019
0.998116
0.997332
0.993374
0.988546
0.988779
0.990465
0.992341
0.992234
0.991079
0.991
0.991564
0.992178
0.99224
0.991979
0.992111
0.992876
0.544243
0.544296
0.544468
0.544557
0.54456
0.544556
0.544528
0.544471
0.544454
0.544451
0.544455
0.544472
0.544487
0.544526
0.544608
0.544649
0.544643
0.544583
0.544532
0.54452
0.544516
0.544534
0.544585
0.544601
0.544547
0.544387
0.544311
0.544303
0.544309
0.54435
0.544364
0.544304
0.544087
0.543839
0.543593
0.543317
0.543048
0.542808
0.542573
0.542328
0.542111
0.541861
0.541443
0.54117
0.541127
0.541128
0.541195
0.541285
0.541358
0.541468
0.54152
0.541507
0.541404
0.541168
0.540892
0.540711
0.540525
0.54034
0.540304
0.540362
0.540602
0.541073
0.541651
0.541975
0.541958
0.541755
0.54132
0.541287
0.541514
0.542574
0.545273
0.554856
0.572865
0.619055
0.679724
0.762621
0.844688
0.889548
0.937018
0.945875
0.975685
0.986856
0.999785
1.00005
0.998371
0.991552
0.987595
0.98836
0.991189
0.993944
0.993567
0.99121
0.990126
0.990531
0.991285
0.992082
0.991799
0.991783
0.992393
0.993084
0.544861
0.544859
0.544853
0.544847
0.544807
0.544728
0.544625
0.544461
0.544293
0.544242
0.54424
0.544241
0.544258
0.544308
0.544343
0.544371
0.544425
0.544494
0.544502
0.54449
0.544485
0.544505
0.54454
0.544498
0.544327
0.54417
0.544134
0.54414
0.544203
0.544191
0.544053
0.543651
0.543202
0.542929
0.542735
0.542602
0.542503
0.542402
0.542255
0.542067
0.541873
0.541603
0.541175
0.540946
0.540918
0.54092
0.540989
0.541088
0.541132
0.541185
0.541267
0.541303
0.541236
0.541085
0.541103
0.541099
0.54097
0.54057
0.540353
0.540375
0.540627
0.541159
0.541657
0.541968
0.542003
0.541888
0.541707
0.541666
0.541782
0.541971
0.542168
0.542483
0.543283
0.546995
0.556406
0.587284
0.635746
0.718576
0.810364
0.891006
0.966435
0.980863
0.996641
0.99374
0.980281
0.979598
0.984244
0.992662
0.996195
0.995415
0.991731
0.989485
0.990111
0.991736
0.991788
0.991242
0.990928
0.991524
0.993114
0.993121
0.545336
0.545304
0.545245
0.545181
0.545087
0.544909
0.544808
0.544729
0.544559
0.544244
0.544103
0.544122
0.544132
0.544107
0.544013
0.543858
0.543686
0.543491
0.543282
0.543183
0.54316
0.543133
0.543022
0.542765
0.542671
0.542674
0.542674
0.542649
0.54267
0.542679
0.542605
0.542377
0.542294
0.542238
0.542174
0.542192
0.54222
0.542215
0.542163
0.542035
0.541825
0.541501
0.541167
0.540967
0.540909
0.54091
0.540976
0.541068
0.541097
0.541121
0.541192
0.541315
0.541376
0.541493
0.54182
0.541937
0.541874
0.541546
0.541398
0.541445
0.541629
0.54166
0.541687
0.541826
0.541945
0.541926
0.541866
0.54186
0.541938
0.54207
0.542187
0.542192
0.542132
0.542108
0.542323
0.543761
0.548897
0.568189
0.60516
0.68089
0.76948
0.842843
0.925386
0.935787
0.960259
0.976524
0.996231
0.998808
0.996561
0.990159
0.988062
0.989604
0.993355
0.993176
0.991486
0.98991
0.990413
0.992735
0.993462
0.992848
0.543946
0.543741
0.543504
0.543404
0.543355
0.543255
0.543174
0.543182
0.543173
0.542997
0.542669
0.542596
0.542584
0.542555
0.542483
0.542404
0.542324
0.542203
0.542021
0.541859
0.541781
0.541708
0.541543
0.541407
0.541393
0.54141
0.541486
0.54154
0.541584
0.541649
0.541695
0.541738
0.541786
0.54184
0.541978
0.542227
0.542441
0.542563
0.542622
0.542611
0.542483
0.542264
0.542079
0.541908
0.541728
0.541672
0.54173
0.541781
0.541719
0.541647
0.541684
0.541823
0.541924
0.542042
0.542383
0.542723
0.542751
0.542732
0.542732
0.542696
0.542529
0.542176
0.541898
0.541867
0.541966
0.542052
0.542074
0.542108
0.542182
0.542223
0.542217
0.54215
0.54204
0.542
0.541983
0.542005
0.542114
0.542843
0.545583
0.558705
0.585557
0.655248
0.744625
0.838023
0.943542
0.969346
0.99288
0.991672
0.978716
0.97939
0.985592
0.995255
0.995531
0.993568
0.988614
0.989056
0.991911
0.994134
0.993323
0.991727
0.542801
0.542751
0.542691
0.542612
0.542513
0.542424
0.54235
0.542311
0.542264
0.54218
0.542028
0.541837
0.54168
0.541565
0.541479
0.541405
0.541329
0.541251
0.541152
0.541032
0.540899
0.5407
0.540535
0.540504
0.540492
0.540499
0.540574
0.540731
0.540901
0.541061
0.541192
0.541268
0.541326
0.541418
0.541631
0.541986
0.54226
0.542334
0.542392
0.542473
0.542465
0.542374
0.542293
0.542246
0.542152
0.542074
0.542176
0.54228
0.542237
0.542133
0.542144
0.542195
0.542222
0.542281
0.542509
0.543129
0.543415
0.543439
0.543446
0.543387
0.54307
0.542568
0.542361
0.542328
0.542316
0.542289
0.542293
0.54239
0.542515
0.542541
0.542505
0.542398
0.542297
0.542245
0.54227
0.542367
0.542433
0.542395
0.542423
0.542742
0.54426
0.552843
0.573808
0.638137
0.722644
0.81187
0.912808
0.928035
0.95549
0.975382
0.99792
0.998794
0.994584
0.986807
0.987593
0.992289
0.99469
0.993956
0.990769
0.990822
0.542706
0.542686
0.54265
0.542595
0.542536
0.542416
0.542204
0.542153
0.542185
0.542192
0.542127
0.541995
0.541868
0.541738
0.541566
0.54138
0.5412
0.541102
0.541085
0.541074
0.541035
0.540931
0.540812
0.540776
0.540755
0.540735
0.54075
0.540833
0.541003
0.541289
0.541678
0.5418
0.541806
0.541843
0.541997
0.542207
0.54225
0.542224
0.542205
0.542293
0.542376
0.542284
0.54219
0.542177
0.542203
0.542353
0.54274
0.542852
0.54287
0.542859
0.542648
0.54236
0.542326
0.542347
0.542516
0.543133
0.543752
0.543828
0.543823
0.543715
0.543218
0.542564
0.542316
0.542303
0.542348
0.542452
0.5426
0.542737
0.542879
0.542982
0.542966
0.542866
0.542746
0.542712
0.542772
0.542804
0.542748
0.542662
0.542527
0.542426
0.542218
0.54221
0.542963
0.549506
0.567724
0.62826
0.715125
0.819714
0.936481
0.967504
0.993302
0.990774
0.972349
0.978369
0.990819
0.997756
0.996012
0.989787
0.9887
0.990952
0.542954
0.542973
0.542978
0.542974
0.54297
0.542954
0.542799
0.542635
0.542638
0.542662
0.542596
0.542561
0.54256
0.542513
0.542335
0.542037
0.54193
0.54192
0.541929
0.541987
0.541998
0.541929
0.541752
0.541638
0.541567
0.541474
0.541448
0.541465
0.541539
0.541691
0.541882
0.542163
0.542363
0.542388
0.542377
0.542318
0.542255
0.542173
0.542124
0.542164
0.542179
0.542
0.541853
0.541821
0.541873
0.542347
0.543234
0.543423
0.543466
0.543488
0.543349
0.54273
0.542428
0.542379
0.542388
0.542833
0.543594
0.543764
0.543756
0.543598
0.542963
0.542265
0.542131
0.542191
0.542298
0.542362
0.542426
0.542581
0.542918
0.543396
0.5436
0.543548
0.543421
0.543363
0.543303
0.543186
0.543062
0.542921
0.542666
0.542316
0.542072
0.541894
0.541825
0.54192
0.542745
0.548559
0.566066
0.627111
0.713372
0.812681
0.906896
0.932621
0.953278
0.990524
0.998245
0.996974
0.987042
0.985944
0.988465
0.994243
0.542842
0.542908
0.542962
0.542975
0.542973
0.54297
0.542863
0.542714
0.542692
0.54266
0.542644
0.542663
0.542697
0.54262
0.542419
0.542377
0.542405
0.542404
0.542419
0.542563
0.542609
0.542427
0.542125
0.542085
0.542123
0.54215
0.542131
0.542129
0.542198
0.542218
0.542199
0.542318
0.542606
0.542688
0.542689
0.542628
0.542623
0.542601
0.542454
0.542113
0.541827
0.541737
0.541691
0.541666
0.541751
0.542448
0.543705
0.543963
0.544019
0.54406
0.543974
0.543289
0.54266
0.542572
0.542602
0.543
0.54352
0.5435
0.543316
0.542897
0.542157
0.541988
0.542087
0.542569
0.542797
0.542757
0.542601
0.54263
0.543
0.543686
0.543992
0.543943
0.543813
0.543622
0.543404
0.54321
0.543071
0.542931
0.542727
0.542488
0.542227
0.54193
0.541889
0.541999
0.542282
0.542614
0.543487
0.548994
0.567207
0.628032
0.717637
0.836139
0.940344
0.981705
0.993289
0.977729
0.972317
0.982523
0.995923
0.995688
0.542069
0.542233
0.542398
0.542516
0.542529
0.542487
0.542252
0.542177
0.542176
0.542176
0.542247
0.542457
0.542578
0.54255
0.542426
0.54237
0.542367
0.542342
0.542363
0.542535
0.542552
0.542232
0.541811
0.541754
0.541822
0.541968
0.541948
0.541937
0.542137
0.542365
0.542403
0.542556
0.543086
0.543399
0.543452
0.543416
0.543372
0.54335
0.543006
0.541878
0.541272
0.541199
0.54129
0.541354
0.541474
0.542221
0.543781
0.544276
0.544332
0.544317
0.544096
0.543218
0.542394
0.542213
0.542292
0.542864
0.543135
0.543109
0.542631
0.541748
0.541563
0.541613
0.542055
0.543154
0.543739
0.543675
0.543262
0.543092
0.5433
0.543787
0.543973
0.543915
0.543766
0.54353
0.543077
0.542483
0.542219
0.542189
0.542246
0.542261
0.542204
0.542261
0.542407
0.542674
0.542934
0.542951
0.542909
0.542885
0.543428
0.548394
0.570015
0.632481
0.735921
0.83953
0.908838
0.941478
0.971641
1.0006
1.00034
0.991709
0.541444
0.541474
0.541476
0.541468
0.54134
0.54105
0.540978
0.541029
0.541101
0.541494
0.54224
0.542596
0.542565
0.542401
0.542386
0.542359
0.542187
0.542047
0.542049
0.542073
0.5419
0.540965
0.540471
0.540434
0.540481
0.540995
0.541209
0.541202
0.541436
0.541865
0.542345
0.542901
0.543828
0.54454
0.544645
0.544559
0.544062
0.543878
0.543742
0.543255
0.542065
0.540957
0.540627
0.540529
0.540656
0.541357
0.542666
0.543154
0.543262
0.543332
0.543408
0.543071
0.542087
0.541655
0.541667
0.542228
0.542819
0.542932
0.54264
0.541783
0.541353
0.541385
0.541976
0.543356
0.544145
0.544094
0.543626
0.54338
0.543467
0.543752
0.543809
0.543712
0.543478
0.543044
0.542306
0.541769
0.541769
0.541908
0.542198
0.542509
0.542756
0.542867
0.542986
0.543225
0.543218
0.543143
0.542936
0.542473
0.542035
0.542127
0.543161
0.549537
0.57858
0.646611
0.75367
0.896293
0.962714
0.995831
0.988633
0.975699
0.538626
0.53839
0.53833
0.538368
0.538469
0.538428
0.538293
0.538265
0.5385
0.539198
0.539347
0.539573
0.540401
0.540873
0.540881
0.540769
0.540326
0.539856
0.539732
0.539623
0.53909
0.53803
0.537552
0.537366
0.537296
0.537335
0.537266
0.536702
0.53646
0.536776
0.537791
0.538917
0.539828
0.540849
0.542051
0.542647
0.542687
0.542673
0.542564
0.542199
0.541564
0.540304
0.538521
0.537826
0.537998
0.538884
0.539997
0.540257
0.54026
0.540333
0.540884
0.54151
0.541262
0.540644
0.540552
0.541033
0.542188
0.542897
0.54288
0.542567
0.54201
0.541595
0.541937
0.543129
0.544015
0.544006
0.543547
0.543276
0.543181
0.542929
0.542608
0.54235
0.54216
0.54191
0.541618
0.541584
0.541774
0.542192
0.542673
0.543119
0.543278
0.543299
0.543329
0.543297
0.54313
0.542685
0.542097
0.541693
0.541786
0.542019
0.542389
0.542811
0.544529
0.552275
0.589397
0.66758
0.7816
0.886161
0.926905
0.970032
0.534725
0.534666
0.534582
0.534535
0.534522
0.534578
0.534999
0.535197
0.53521
0.535125
0.535093
0.535549
0.536554
0.53674
0.536741
0.536691
0.536726
0.536772
0.536738
0.536338
0.535339
0.534845
0.534616
0.534095
0.533707
0.53352
0.533115
0.531766
0.529936
0.529592
0.529673
0.529931
0.530233
0.530713
0.531611
0.53285
0.534645
0.537051
0.537789
0.537817
0.537704
0.536872
0.535109
0.534348
0.534514
0.535377
0.53678
0.537727
0.538131
0.538646
0.539453
0.539722
0.539658
0.539516
0.539446
0.539617
0.540454
0.541776
0.542426
0.542352
0.54204
0.541633
0.541027
0.540869
0.54114
0.541775
0.542207
0.54213
0.541496
0.540636
0.540321
0.54037
0.540574
0.540855
0.541263
0.541878
0.542405
0.542763
0.543122
0.543388
0.543391
0.543351
0.543287
0.543115
0.54248
0.541685
0.54135
0.541454
0.541853
0.542532
0.543261
0.543496
0.543465
0.543572
0.545448
0.557045
0.605627
0.696812
0.833844
0.960515
0.526907
0.52691
0.526894
0.526948
0.528019
0.529017
0.529294
0.529437
0.529481
0.529451
0.529581
0.530746
0.531862
0.531929
0.531902
0.531631
0.531492
0.531769
0.532115
0.532095
0.531916
0.531901
0.532186
0.533
0.533514
0.533605
0.53326
0.532005
0.529114
0.52554
0.524668
0.524555
0.524448
0.52448
0.524877
0.525749
0.526992
0.529043
0.532489
0.534224
0.534309
0.534062
0.533099
0.532744
0.532848
0.533356
0.53404
0.534223
0.534245
0.534542
0.535423
0.535929
0.535913
0.535691
0.535229
0.534826
0.534787
0.535265
0.536724
0.537764
0.537822
0.537523
0.536382
0.535739
0.53576
0.536156
0.536985
0.537792
0.538362
0.538735
0.539005
0.539418
0.539909
0.54052
0.541308
0.541983
0.542418
0.542711
0.543069
0.543305
0.543273
0.543127
0.542663
0.541876
0.540953
0.540861
0.541027
0.541697
0.542576
0.543106
0.54339
0.543422
0.54337
0.542882
0.542328
0.542666
0.54612
0.567429
0.623042
0.788198
0.52898
0.529185
0.529449
0.52985
0.530282
0.530541
0.530759
0.531163
0.531554
0.531603
0.531723
0.53248
0.534026
0.534769
0.534732
0.534458
0.534396
0.534626
0.534903
0.534989
0.535019
0.535078
0.53602
0.53785
0.538986
0.539482
0.539719
0.539807
0.539165
0.535832
0.532663
0.532094
0.532194
0.53289
0.533127
0.532662
0.532037
0.532051
0.533008
0.534938
0.536696
0.537321
0.537221
0.537018
0.537153
0.537585
0.537436
0.536356
0.535106
0.535004
0.53548
0.536511
0.536735
0.536681
0.536142
0.534118
0.531288
0.530844
0.53108
0.532405
0.5333
0.533284
0.532674
0.53202
0.53204
0.532408
0.533033
0.533975
0.535327
0.536406
0.537289
0.537947
0.538458
0.539033
0.539761
0.540692
0.540746
0.540431
0.540292
0.540436
0.540443
0.54022
0.539889
0.539932
0.540147
0.540874
0.541715
0.542425
0.543024
0.543208
0.543318
0.543239
0.542752
0.541841
0.541816
0.54205
0.542427
0.543769
0.549461
0.625717
0.547598
0.547775
0.54795
0.548043
0.548004
0.546589
0.544021
0.543298
0.543284
0.543863
0.544297
0.544644
0.54558
0.546617
0.546703
0.546524
0.546559
0.546688
0.546277
0.543867
0.541538
0.541373
0.541993
0.543909
0.545433
0.546712
0.548678
0.549913
0.54998
0.54956
0.547534
0.545813
0.54567
0.545671
0.545034
0.542654
0.5396
0.538008
0.537424
0.537605
0.538388
0.538696
0.538617
0.538142
0.538059
0.538172
0.537881
0.536096
0.533034
0.532294
0.532366
0.533089
0.53462
0.535382
0.53542
0.534203
0.530828
0.529561
0.529558
0.53028
0.532125
0.532765
0.532611
0.531776
0.531516
0.531863
0.533302
0.534595
0.534858
0.535035
0.535425
0.535725
0.535591
0.535337
0.53523
0.53538
0.535318
0.535104
0.535136
0.53538
0.535938
0.536567
0.53726
0.538267
0.539616
0.540706
0.541719
0.542262
0.542809
0.542696
0.542371
0.541815
0.541078
0.541098
0.541475
0.542258
0.542857
0.543222
0.543438
0.555095
0.574851
0.574907
0.575531
0.576292
0.576357
0.574899
0.570435
0.568604
0.568705
0.569366
0.569657
0.569228
0.567364
0.564926
0.563081
0.561904
0.561355
0.560445
0.559244
0.556827
0.551843
0.549582
0.549514
0.549809
0.550403
0.551125
0.553335
0.554612
0.554765
0.555638
0.555938
0.555405
0.555451
0.555434
0.553701
0.550397
0.550333
0.550766
0.55005
0.547976
0.546406
0.546436
0.547037
0.547162
0.546553
0.545132
0.542938
0.539684
0.536676
0.535919
0.535988
0.536677
0.538082
0.540008
0.542186
0.542926
0.542348
0.540499
0.537892
0.536269
0.536459
0.537911
0.539408
0.539775
0.540229
0.540759
0.540753
0.540082
0.539023
0.538895
0.538867
0.538463
0.53711
0.535011
0.534268
0.534128
0.533837
0.533549
0.533575
0.533702
0.533918
0.534227
0.534749
0.535692
0.536818
0.538205
0.539163
0.539518
0.539209
0.538683
0.538761
0.539052
0.539882
0.541072
0.541899
0.542453
0.542891
0.543142
0.542638
0.543244
0.613686
0.614901
0.61543
0.615443
0.615328
0.615025
0.61455
0.614278
0.614429
0.614984
0.615727
0.615939
0.615615
0.613609
0.61257
0.612572
0.612162
0.6109
0.609475
0.607091
0.604829
0.604812
0.604614
0.602189
0.5987
0.598191
0.59846
0.598422
0.597391
0.595721
0.594408
0.593415
0.592293
0.589846
0.588241
0.588074
0.587363
0.585156
0.58476
0.585049
0.584212
0.582613
0.582633
0.583374
0.583955
0.583529
0.580656
0.575944
0.573575
0.572358
0.57027
0.567318
0.565236
0.564806
0.564923
0.565016
0.564981
0.564071
0.561085
0.556861
0.55351
0.551608
0.549917
0.547979
0.546551
0.545123
0.544022
0.542342
0.539599
0.538389
0.538125
0.537718
0.536534
0.534822
0.534193
0.534139
0.53398
0.533715
0.533856
0.534749
0.535913
0.536673
0.53789
0.53841
0.538259
0.537578
0.536456
0.535609
0.53471
0.534713
0.535039
0.535776
0.537397
0.539282
0.540794
0.542111
0.541972
0.541461
0.540859
0.541451
0.659563
0.659544
0.659171
0.658393
0.658273
0.658924
0.659745
0.659161
0.655544
0.653022
0.651855
0.651704
0.651833
0.651638
0.651676
0.651991
0.651376
0.650334
0.650361
0.650354
0.64855
0.643527
0.640879
0.640926
0.64167
0.641432
0.641171
0.641526
0.641645
0.641013
0.639512
0.63925
0.639798
0.639733
0.636762
0.631506
0.630996
0.630757
0.629095
0.625144
0.620307
0.614894
0.609828
0.607955
0.608113
0.609282
0.60895
0.6061
0.604827
0.604752
0.604718
0.604427
0.601933
0.594836
0.585428
0.58221
0.582266
0.581388
0.578146
0.576639
0.576033
0.574731
0.571785
0.566571
0.558849
0.55554
0.556111
0.557194
0.556209
0.552292
0.547945
0.546931
0.547191
0.547072
0.547121
0.546949
0.545828
0.54537
0.545372
0.545612
0.545473
0.544695
0.543427
0.541159
0.539289
0.537065
0.53586
0.53517
0.534576
0.534676
0.535407
0.537123
0.539002
0.539575
0.539215
0.538578
0.538081
0.538212
0.53898
0.541015
0.719285
0.719308
0.719487
0.719668
0.72036
0.722011
0.722554
0.721911
0.718859
0.714695
0.71342
0.713965
0.714833
0.714137
0.711591
0.711229
0.710965
0.709702
0.7096
0.709756
0.708001
0.702958
0.70149
0.701747
0.701415
0.698181
0.694531
0.694321
0.6943
0.692666
0.689547
0.688443
0.688057
0.6877
0.686678
0.683834
0.681921
0.682061
0.682467
0.681787
0.67922
0.675935
0.672163
0.668878
0.668123
0.66654
0.661311
0.655853
0.652361
0.648852
0.647983
0.648953
0.649019
0.64675
0.641632
0.637737
0.634823
0.629112
0.622925
0.621739
0.62099
0.620129
0.618672
0.615398
0.608718
0.601747
0.59886
0.597852
0.596017
0.59112
0.58416
0.579463
0.576894
0.5742
0.570425
0.565935
0.560967
0.557056
0.553937
0.551202
0.549359
0.547089
0.543755
0.541097
0.539505
0.537912
0.537018
0.537342
0.53807
0.539399
0.540818
0.540914
0.540136
0.538775
0.537348
0.536313
0.536134
0.536316
0.537364
0.539517
0.781068
0.780225
0.780138
0.780514
0.781148
0.781053
0.779426
0.777251
0.77708
0.776832
0.775089
0.7727
0.772587
0.773267
0.773265
0.77226
0.770715
0.770022
0.769548
0.768947
0.766811
0.7628
0.762041
0.762113
0.761294
0.758731
0.756382
0.755445
0.755062
0.753467
0.749056
0.747225
0.747042
0.746545
0.745072
0.742431
0.739214
0.736154
0.733901
0.730957
0.725807
0.722777
0.720718
0.71817
0.717996
0.718246
0.717075
0.713604
0.708739
0.704664
0.702656
0.698578
0.689062
0.681706
0.680966
0.681331
0.680512
0.675938
0.6714
0.668448
0.662125
0.655557
0.651471
0.64739
0.644486
0.64123
0.63587
0.628391
0.622772
0.620098
0.617216
0.612303
0.606345
0.60156
0.596466
0.591483
0.586861
0.581825
0.577731
0.573285
0.569254
0.565351
0.560565
0.559758
0.558893
0.557495
0.555178
0.553633
0.552051
0.550229
0.547448
0.54424
0.539876
0.538059
0.537141
0.536445
0.537062
0.538761
0.540951
0.540275
0.849313
0.846886
0.84617
0.846296
0.847426
0.847709
0.84697
0.84482
0.844535
0.844291
0.842839
0.840424
0.837911
0.837222
0.837351
0.837104
0.834133
0.831759
0.831598
0.831616
0.830911
0.827416
0.826356
0.825684
0.824146
0.822376
0.819155
0.815799
0.815575
0.815422
0.814272
0.81153
0.808364
0.806039
0.804846
0.802686
0.799342
0.796999
0.795468
0.793958
0.791508
0.788271
0.784542
0.780649
0.776948
0.773133
0.770258
0.767485
0.76157
0.758709
0.758839
0.757969
0.754252
0.748051
0.742662
0.738702
0.732722
0.724785
0.723408
0.722985
0.719498
0.714249
0.71002
0.702504
0.696493
0.693764
0.691935
0.687748
0.678996
0.673185
0.670525
0.667129
0.660697
0.653365
0.646926
0.640763
0.634973
0.628455
0.622121
0.616279
0.60927
0.602768
0.596055
0.588946
0.582158
0.576798
0.571534
0.56461
0.559209
0.554386
0.550735
0.546956
0.544193
0.542541
0.543684
0.545578
0.545853
0.54535
0.54396
0.539807
0.924886
0.924458
0.923662
0.921024
0.918185
0.917754
0.918484
0.919157
0.918706
0.917434
0.916427
0.914392
0.911137
0.910436
0.910795
0.910271
0.907753
0.905136
0.902883
0.902339
0.902022
0.901058
0.897584
0.895571
0.894734
0.893669
0.890766
0.88657
0.884543
0.884021
0.883295
0.881358
0.87799
0.874336
0.871903
0.870005
0.867703
0.864639
0.861351
0.858035
0.85535
0.853068
0.850314
0.846623
0.842584
0.838927
0.835917
0.83349
0.830074
0.825342
0.819354
0.814549
0.810738
0.806044
0.8013
0.797937
0.794032
0.788476
0.783455
0.778983
0.769727
0.763326
0.76102
0.758194
0.753978
0.745041
0.735679
0.730194
0.726362
0.721091
0.713424
0.706242
0.700187
0.692503
0.684648
0.677816
0.671705
0.665121
0.657493
0.65012
0.643196
0.63571
0.628482
0.622299
0.615722
0.608757
0.601483
0.594725
0.588821
0.584213
0.580499
0.5774
0.574579
0.569564
0.564978
0.560034
0.554805
0.549029
0.543875
0.539852
1.00422
1.0029
1.00227
1.00235
1.0021
0.999565