/*--------------------------------*- C++ -*----------------------------------*\
  =========                 |
  \\      /  F ield         | OpenFOAM: The Open Source CFD Toolbox
   \\    /   O peration     | Website:  https://openfoam.org
    \\  /    A nd           | Version:  7
     \\/     M anipulation  |
\*---------------------------------------------------------------------------*/
FoamFile
{
    version     2.0;
    format      ascii;
    class       volScalarField;
    location    "0.6801";
    object      rho;
}
// * * * * * * * * * * * * * * * * * * * * * * * * * * * * * * * * * * * * * //

dimensions      [1 -3 0 0 0 0 0];

internalField   nonuniform List<scalar> 
324000
(
0.450798
0.637876
0.842983
1.01758
1.13926
1.12241
1.0645
1.04749
1.02562
1.03289
1.04893
1.05774
1.05891
1.0589
1.06074
1.06349
1.06241
1.06072
1.0607
1.06043
1.06083
1.06285
1.06608
1.06756
1.06808
1.06798
1.06809
1.06968
1.07384
1.07628
1.07719
1.07762
1.07765
1.07847
1.08082
1.08363
1.08621
1.08759
1.08839
1.0889
1.08702
1.08094
1.07537
1.07169
1.07046
1.07167
1.07604
1.08028
1.08251
1.08609
1.0923
1.10023
1.11035
1.11358
1.11699
1.12229
1.13401
1.14719
1.16286
1.17584
1.18812
1.19264
1.19069
1.20822
1.25708
1.31659
1.33718
1.34461
1.35712
1.36183
1.3654
1.37095
1.37841
1.38751
1.39568
1.39952
1.4001
1.40008
1.40003
1.40001
0.329917
0.333099
0.374833
0.563035
0.828456
1.0078
1.05433
1.07626
1.05455
1.03905
1.02327
1.02245
1.02729
1.03239
1.0387
1.04308
1.04074
1.03935
1.03884
1.03733
1.03622
1.03645
1.03757
1.0399
1.04065
1.04036
1.04065
1.04356
1.04848
1.05133
1.05097
1.05024
1.04954
1.04917
1.05017
1.05203
1.0543
1.05613
1.05599
1.05508
1.05364
1.04848
1.04284
1.03931
1.03839
1.03855
1.04107
1.0447
1.04818
1.05258
1.05874
1.06687
1.07505
1.07726
1.08128
1.08812
1.09931
1.11426
1.13265
1.14771
1.15837
1.1742
1.17995
1.19965
1.25491
1.31657
1.33371
1.34427
1.35693
1.36082
1.36453
1.37009
1.37764
1.38696
1.3954
1.39944
1.40008
1.40007
1.40003
1.40001
0.330775
0.33105
0.331476
0.331644
0.378642
0.561304
0.809275
1.01513
1.07273
1.06966
1.04589
1.03629
1.03019
1.03131
1.03806
1.04152
1.0419
1.03836
1.03353
1.03008
1.0289
1.02943
1.03095
1.0317
1.0315
1.03091
1.03107
1.03274
1.03572
1.03678
1.03586
1.03414
1.03358
1.03427
1.03568
1.0373
1.03873
1.03937
1.03909
1.0372
1.03494
1.02943
1.02369
1.02015
1.01889
1.01848
1.01854
1.0189
1.01963
1.02256
1.02786
1.03352
1.03938
1.04264
1.04743
1.0543
1.06492
1.08271
1.10515
1.12612
1.13564
1.15229
1.17085
1.19146
1.25509
1.31487
1.33008
1.34445
1.3564
1.35978
1.3636
1.36918
1.37686
1.38641
1.39512
1.39936
1.40007
1.40006
1.40003
1.40001
0.331486
0.331771
0.331957
0.331999
0.332025
0.332011
0.386507
0.558326
0.801179
0.981894
1.04517
1.05444
1.03845
1.02922
1.03019
1.03243
1.03661
1.03789
1.03474
1.03055
1.02841
1.02762
1.02861
1.03036
1.03078
1.03124
1.03164
1.03302
1.03302
1.03214
1.02999
1.02775
1.02736
1.02894
1.03166
1.03427
1.03508
1.03515
1.03379
1.03088
1.02757
1.0218
1.01493
1.01012
1.00772
1.0064
1.00568
1.00445
1.00357
1.0038
1.00596
1.01041
1.01365
1.01811
1.02414
1.03153
1.04249
1.06366
1.0919
1.11611
1.12651
1.13639
1.16144
1.18492
1.24807
1.30994
1.32686
1.34499
1.35553
1.35868
1.3626
1.36822
1.37607
1.38586
1.39485
1.39928
1.40005
1.40006
1.40003
1.40001
0.331882
0.331987
0.332038
0.332083
0.332062
0.331946
0.331808
0.33139
0.385559
0.554739
0.795346
0.976855
1.02858
1.02482
1.02602
1.02178
1.02713
1.03144
1.03246
1.0307
1.02891
1.02823
1.02872
1.0299
1.03256
1.03446
1.03535
1.03507
1.03262
1.03094
1.02817
1.02631
1.02654
1.02934
1.03288
1.03545
1.03583
1.03572
1.03372
1.03064
1.0265
1.02062
1.01333
1.00814
1.00474
1.00207
0.999966
0.997856
0.996151
0.994706
0.994204
0.996208
1.0005
1.00483
1.01085
1.02067
1.03514
1.05899
1.09028
1.11757
1.12852
1.13311
1.15397
1.18029
1.24348
1.30362
1.32473
1.34564
1.35445
1.35753
1.36152
1.36723
1.37527
1.38532
1.39459
1.39921
1.40004
1.40005
1.40003
1.40001
0.332046
0.332101
0.332101
0.332043
0.331858
0.331658
0.331274
0.331007
0.330883
0.330729
0.392841
0.574164
0.810476
0.942918
1.00518
1.00787
1.02481
1.02819
1.03009
1.03043
1.02972
1.03115
1.03234
1.03395
1.03466
1.03631
1.03708
1.03576
1.0336
1.03269
1.03096
1.02989
1.03002
1.03144
1.03508
1.03704
1.03767
1.0373
1.03525
1.03153
1.0268
1.02039
1.01322
1.00799
1.00429
1.00086
0.997803
0.995328
0.992925
0.98992
0.988503
0.99016
0.995056
1.00305
1.01178
1.0224
1.03741
1.06388
1.09375
1.12096
1.13202
1.13733
1.15285
1.17698
1.23755
1.29478
1.32328
1.346
1.35325
1.35634
1.36037
1.36621
1.37447
1.38479
1.39433
1.39914
1.40003
1.40005
1.40003
1.40001
0.332136
0.332079
0.33194
0.331704
0.331461
0.331181
0.330956
0.330857
0.330701
0.330671
0.330688
0.330688
0.402647
0.605603
0.85428
0.968843
1.02803
1.02519
1.0353
1.0343
1.03623
1.03991
1.0375
1.03724
1.0397
1.04269
1.04238
1.03912
1.03616
1.03632
1.03793
1.03956
1.03977
1.03844
1.03813
1.0393
1.04015
1.03995
1.03827
1.03455
1.0288
1.02128
1.01424
1.00895
1.00469
1.00123
0.997517
0.993294
0.990806
0.988933
0.988135
0.990258
0.996082
1.00524
1.0148
1.02496
1.04172
1.07256
1.11645
1.14719
1.15583
1.15192
1.15639
1.17675
1.23462
1.2869
1.32214
1.34567
1.35193
1.35507
1.35917
1.36517
1.37366
1.38427
1.39409
1.39908
1.40002
1.40004
1.40003
1.40001
0.331981
0.331789
0.331539
0.331302
0.331089
0.330894
0.330793
0.330703
0.330658
0.330672
0.330681
0.330685
0.330659
0.332876
0.410956
0.646467
0.886561
0.988734
1.03911
1.03776
1.04583
1.04886
1.04335
1.04052
1.04403
1.04663
1.04486
1.04002
1.03968
1.0422
1.046
1.04757
1.0464
1.04248
1.04012
1.04111
1.04293
1.04372
1.04215
1.03787
1.03099
1.02261
1.01576
1.01111
1.00745
1.00369
0.999332
0.996013
0.993439
0.98823
0.987598
0.990409
0.995616
1.00347
1.01318
1.03108
1.05963
1.09905
1.14604
1.17165
1.17737
1.16678
1.16577
1.18099
1.23443
1.2816
1.32141
1.3447
1.35047
1.35369
1.35792
1.36412
1.37286
1.38376
1.39386
1.39902
1.40001
1.40004
1.40002
1.40001
0.331607
0.331382
0.331157
0.330987
0.330812
0.330713
0.330665
0.330668
0.330686
0.330706
0.330713
0.330696
0.330631
0.330561
0.330513
0.340922
0.433892
0.668079
0.91324
1.00384
1.04328
1.05433
1.04848
1.04306
1.04827
1.04876
1.04507
1.04109
1.0429
1.04622
1.04946
1.0507
1.04842
1.0442
1.04202
1.04321
1.04582
1.04702
1.04553
1.04134
1.03446
1.02591
1.01936
1.01456
1.01063
1.00681
1.00306
0.999418
0.995406
0.987972
0.987299
0.99044
0.998954
1.00908
1.02392
1.04706
1.07968
1.12372
1.17305
1.19592
1.20456
1.19525
1.18261
1.19127
1.23505
1.27991
1.32183
1.34337
1.34872
1.35213
1.35661
1.36305
1.37205
1.38325
1.39364
1.39896
1.4
1.40003
1.40002
1.40001
0.331225
0.331033
0.33087
0.330756
0.330668
0.33064
0.330666
0.330702
0.330725
0.330725
0.33069
0.330604
0.330544
0.330511
0.330494
0.330474
0.330438
0.345161
0.461974
0.720686
0.935698
1.03982
1.03834
1.04858
1.05382
1.05003
1.04681
1.04502
1.04725
1.04926
1.0504
1.04989
1.04789
1.04505
1.04377
1.04597
1.04855
1.04908
1.0478
1.0438
1.03701
1.02921
1.02253
1.01736
1.01327
1.00943
1.0056
1.00078
0.995359
0.993295
0.994425
0.998072
1.00346
1.01449
1.03838
1.07131
1.10818
1.15127
1.18846
1.20859
1.22008
1.21664
1.198
1.19843
1.23166
1.2788
1.32354
1.34178
1.34668
1.35045
1.35523
1.36193
1.37122
1.38277
1.39344
1.39891
1.39999
1.40003
1.40002
1.40001
0.330865
0.330743
0.330665
0.330637
0.330652
0.330678
0.33071
0.330712
0.3307
0.330651
0.330583
0.330533
0.330508
0.330494
0.330478
0.330449
0.330411
0.330364
0.330292
0.361072
0.517788
0.792093
0.958897
1.05128
1.04678
1.05051
1.04698
1.04949
1.05127
1.04859
1.04411
1.04307
1.0434
1.04439
1.04611
1.04927
1.0497
1.04994
1.04936
1.04567
1.03874
1.03182
1.0251
1.01927
1.01459
1.01086
1.0063
1.00184
0.998678
0.998561
1.00073
1.0045
1.01183
1.02892
1.05793
1.09277
1.12808
1.16491
1.18883
1.20946
1.22548
1.22935
1.22284
1.2211
1.24462
1.28667
1.32567
1.34003
1.34465
1.34873
1.35376
1.36074
1.37039
1.3823
1.39326
1.39887
1.39998
1.40003
1.40002
1.40001
0.330609
0.330618
0.33067
0.330702
0.330729
0.330733
0.330713
0.330663
0.330599
0.330549
0.33052
0.330507
0.330493
0.330478
0.33045
0.330406
0.330356
0.330302
0.330252
0.330219
0.330176
0.382753
0.608873
0.888631
0.977212
1.04368
1.04867
1.05381
1.05278
1.04152
1.03772
1.0403
1.04264
1.04829
1.05264
1.05306
1.05161
1.05168
1.05135
1.04697
1.03996
1.03335
1.02645
1.01972
1.01493
1.01128
1.00543
1.00116
1.00009
1.00069
1.00328
1.00914
1.02113
1.04441
1.07847
1.11165
1.14262
1.17123
1.1902
1.21124
1.22898
1.2376
1.23902
1.24041
1.25618
1.29408
1.3278
1.33874
1.34278
1.34696
1.35219
1.3595
1.36954
1.38184
1.39309
1.39883
1.39997
1.40003
1.40002
1.40001
0.330675
0.330702
0.330739
0.330746
0.330733
0.330683
0.330617
0.330562
0.330532
0.330517
0.330507
0.330493
0.330471
0.330439
0.330396
0.330339
0.33029
0.33025
0.330217
0.330186
0.33016
0.330135
0.333482
0.433804
0.700964
0.962736
1.02948
1.05062
1.0503
1.03453
1.03511
1.04043
1.04804
1.056
1.0574
1.05519
1.05335
1.0541
1.0526
1.04693
1.03891
1.03155
1.02382
1.01735
1.01345
1.00901
1.00282
1.00085
0.999747
0.999787
1.00403
1.01477
1.03383
1.06317
1.09745
1.1275
1.15694
1.17833
1.19357
1.21295
1.23243
1.24484
1.25224
1.26077
1.2792
1.31034
1.33207
1.33777
1.34112
1.34521
1.35058
1.35824
1.3687
1.38139
1.39294
1.3988
1.39997
1.40002
1.40002
1.40001
0.330744
0.330752
0.330738
0.330687
0.330626
0.330576
0.330545
0.330524
0.330514
0.330501
0.330486
0.33046
0.330425
0.330378
0.330322
0.330276
0.330247
0.330218
0.330184
0.330148
0.330125
0.330109
0.330109
0.330123
0.35531
0.526212
0.804789
0.984682
1.04074
1.03117
1.04532
1.04903
1.05371
1.05847
1.05786
1.0538
1.05402
1.05538
1.05256
1.04384
1.03339
1.02552
1.01777
1.01286
1.00947
1.00436
1.00087
0.99978
0.997782
0.997614
1.00477
1.02283
1.04935
1.08238
1.11204
1.13738
1.16172
1.1788
1.19347
1.2123
1.23229
1.24733
1.26032
1.27482
1.29413
1.32027
1.33357
1.33643
1.33955
1.34345
1.349
1.357
1.36786
1.38095
1.39279
1.39878
1.39996
1.40002
1.40002
1.40001
0.33073
0.330698
0.330651
0.330597
0.330553
0.330529
0.330519
0.330508
0.330494
0.330474
0.330445
0.330406
0.330351
0.3303
0.330261
0.330238
0.330217
0.330184
0.330139
0.330093
0.330046
0.330038
0.330062
0.330092
0.330124
0.330161
0.413617
0.669879
0.943437
1.02048
1.05673
1.05369
1.05638
1.05849
1.05081
1.04935
1.05488
1.05498
1.04926
1.03737
1.02821
1.02106
1.01439
1.0098
1.0054
1.00047
0.998836
0.997802
0.995735
0.996972
1.00939
1.03431
1.06628
1.09857
1.1215
1.14123
1.16079
1.17635
1.19171
1.21085
1.23094
1.24687
1.26146
1.27964
1.30267
1.32447
1.33301
1.33487
1.33768
1.34161
1.34749
1.35583
1.36703
1.38053
1.39267
1.39875
1.39996
1.40002
1.40001
1.40001
0.330649
0.330603
0.330567
0.330537
0.330519
0.330509
0.330498
0.330483
0.330457
0.330422
0.330377
0.330324
0.330279
0.330248
0.330226
0.330209
0.33018
0.330133
0.330076
0.330007
0.329959
0.329959
0.329975
0.329993
0.330009
0.330046
0.330097
0.345802
0.501274
0.798641
1.01262
1.03363
1.05284
1.04616
1.03861
1.04681
1.05599
1.05371
1.04216
1.03333
1.02738
1.01929
1.01331
1.00794
1.00161
0.997169
0.996681
0.996211
0.996116
1.00258
1.02211
1.05091
1.0818
1.10725
1.12629
1.14415
1.16094
1.17538
1.191
1.21005
1.23015
1.2468
1.26149
1.28117
1.30533
1.32472
1.33073
1.3328
1.33558
1.33978
1.34604
1.35468
1.36622
1.3801
1.39256
1.39875
1.39996
1.40002
1.40001
1.40001
0.330563
0.330544
0.330531
0.330516
0.330498
0.330483
0.330462
0.330435
0.330398
0.330349
0.330299
0.330259
0.330232
0.330214
0.330198
0.330171
0.330119
0.330056
0.329989
0.329934
0.329902
0.329896
0.3299
0.32988
0.329836
0.329806
0.329816
0.329875
0.329947
0.413753
0.677231
0.904773
1.03015
1.02148
1.03453
1.05373
1.05591
1.04735
1.03424
1.03154
1.02745
1.01953
1.01157
1.00591
0.998578
0.995228
0.995447
0.998948
1.00486
1.01823
1.04172
1.06869
1.09409
1.11341
1.13006
1.14678
1.16222
1.17648
1.19236
1.21084
1.23004
1.24707
1.26298
1.28247
1.30545
1.3224
1.32739
1.33008
1.33318
1.3379
1.34454
1.35348
1.36541
1.37973
1.39241
1.39874
1.39995
1.40001
1.40001
1.40001
0.330528
0.330524
0.330511
0.330491
0.330466
0.330434
0.330398
0.330358
0.330317
0.330278
0.330245
0.330219
0.330203
0.330187
0.330163
0.330111
0.330036
0.329971
0.329924
0.329896
0.329878
0.32987
0.329855
0.329814
0.329729
0.329626
0.329559
0.329475
0.329447
0.329506
0.34254
0.524977
0.85275
0.977694
1.05045
1.06097
1.05428
1.03847
1.03194
1.03164
1.02717
1.01859
1.01232
1.0066
0.99785
0.99549
0.999696
1.00792
1.02142
1.04136
1.06278
1.08267
1.09945
1.1131
1.12902
1.14679
1.16333
1.17819
1.1942
1.21194
1.22989
1.24682
1.26348
1.28256
1.30392
1.31856
1.32442
1.32777
1.33117
1.33611
1.34298
1.35223
1.36456
1.37934
1.39242
1.39877
1.39996
1.40001
1.40001
1.40001
0.330506
0.330494
0.330472
0.33044
0.330401
0.330357
0.330317
0.330281
0.330253
0.330231
0.330211
0.330192
0.330174
0.330148
0.330104
0.33003
0.329956
0.329915
0.329898
0.329886
0.329874
0.329863
0.329844
0.329794
0.329694
0.329562
0.329446
0.329298
0.329169
0.329067
0.329016
0.328894
0.411407
0.710682
0.975646
1.0414
1.03962
1.03565
1.03177
1.0311
1.02465
1.01525
1.01104
1.00479
0.999445
1.00246
1.01057
1.02257
1.04141
1.06292
1.07999
1.09292
1.10132
1.11118
1.12702
1.14687
1.1645
1.1791
1.1946
1.21182
1.229
1.24553
1.26249
1.28181
1.30154
1.31408
1.32059
1.32495
1.32914
1.33441
1.34141
1.35095
1.36378
1.37895
1.39234
1.39878
1.39996
1.40001
1.40001
1.40001
0.330454
0.330431
0.3304
0.330364
0.330321
0.330277
0.330248
0.330229
0.330213
0.3302
0.330184
0.330159
0.330121
0.330077
0.330029
0.329954
0.329907
0.329894
0.329894
0.329894
0.329885
0.329872
0.329849
0.329795
0.329698
0.329559
0.329435
0.329271
0.329097
0.32893
0.328729
0.328628
0.328349
0.362529
0.571114
0.872794
1.01357
1.04019
1.03412
1.03183
1.02127
1.01435
1.0101
1.00355
1.0053
1.01528
1.0253
1.03903
1.06053
1.07676
1.08564
1.09336
1.10009
1.11118
1.12972
1.15095
1.16657
1.17922
1.19363
1.21049
1.22774
1.24433
1.2615
1.28065
1.29879
1.31027
1.31677
1.32154
1.32647
1.33237
1.33978
1.34968
1.36292
1.3787
1.39242
1.39881
1.39996
1.40001
1.40001
1.40001
0.33038
0.330353
0.330324
0.330293
0.33026
0.33023
0.330212
0.330198
0.330183
0.330165
0.330135
0.330091
0.330041
0.330001
0.329962
0.32991
0.329895
0.329903
0.329926
0.329963
0.329975
0.32997
0.329948
0.329897
0.329823
0.329696
0.329585
0.329404
0.32919
0.32898
0.328759
0.328605
0.328609
0.32835
0.326516
0.478519
0.829985
1.01657
1.02432
1.02909
1.01514
1.0146
1.01062
1.00977
1.01997
1.03221
1.03782
1.05013
1.0677
1.08237
1.0893
1.0935
1.10019
1.11581
1.13864
1.15753
1.16847
1.17881
1.19215
1.20874
1.22644
1.24354
1.26061
1.279
1.29573
1.30715
1.31429
1.31933
1.32441
1.33043
1.33806
1.34841
1.36215
1.37832
1.39243
1.39885
1.39996
1.40001
1.40001
1.40001
0.330302
0.330283
0.330265
0.330246
0.330227
0.330205
0.330184
0.330162
0.330134
0.330097
0.330057
0.330014
0.329976
0.329952
0.329923
0.3299
0.329907
0.329935
0.329995
0.330069
0.33012
0.330135
0.330124
0.3301
0.330074
0.330033
0.329971
0.329884
0.329715
0.329547
0.329343
0.329184
0.328984
0.328312
0.326699
0.322823
0.414222
0.745505
0.935848
1.01803
1.01037
1.02371
1.01486
1.01927
1.0351
1.04563
1.0494
1.05961
1.07249
1.08224
1.0918
1.09811
1.10896
1.1274
1.14771
1.16132
1.16885
1.17768
1.19083
1.20749
1.22529
1.24287
1.25991
1.27718
1.29279
1.30378
1.31079
1.31605
1.32164
1.32829
1.33644
1.34711
1.36135
1.37832
1.39255
1.3989
1.39996
1.40001
1.40001
1.40001
0.330251
0.33024
0.330229
0.330217
0.330202
0.330173
0.330136
0.330097
0.330059
0.330024
0.329994
0.329964
0.329942
0.329927
0.329908
0.329905
0.329914
0.329958
0.330039
0.330123
0.330198
0.330242
0.330243
0.330243
0.330257
0.330284
0.330256
0.330254
0.330161
0.329959
0.329745
0.329391
0.328801
0.326898
0.323977
0.320921
0.319155
0.366608
0.661323
0.952462
0.990128
1.03433
1.02006
1.03404
1.04542
1.05003
1.05607
1.06623
1.07258
1.07959
1.09227
1.10593
1.12039
1.13717
1.15137
1.1597
1.16674
1.17602
1.19015
1.20695
1.22419
1.24171
1.25898
1.27521
1.28962
1.30063
1.30764
1.31288
1.31856
1.3255
1.33431
1.34578
1.36056
1.37803
1.39266
1.39896
1.39997
1.40001
1.40001
1.40001
0.330214
0.330203
0.330191
0.330172
0.330142
0.330102
0.330059
0.33002
0.329987
0.329966
0.32995
0.329936
0.329924
0.329912
0.329904
0.329903
0.329916
0.329964
0.33005
0.330132
0.330212
0.330269
0.33029
0.330296
0.330318
0.330356
0.330331
0.330331
0.330258
0.33002
0.329774
0.328943
0.326862
0.323909
0.320587
0.318894
0.318676
0.318811
0.33952
0.547073
0.851128
1.01396
1.01769
1.05837
1.05289
1.05179
1.05866
1.06665
1.06938
1.07776
1.0985
1.11399
1.12667
1.13901
1.14803
1.15553
1.16369
1.17533
1.19057
1.20681
1.22274
1.23948
1.25689
1.27296
1.28612
1.29646
1.30427
1.31077
1.31686
1.32363
1.33239
1.34425
1.35993
1.37818
1.39286
1.39902
1.39997
1.40001
1.40001
1.40001
0.330166
0.330142
0.330116
0.33009
0.330059
0.330025
0.329992
0.329963
0.329944
0.329935
0.329928
0.32992
0.329907
0.329886
0.329878
0.32988
0.3299
0.329958
0.330049
0.33013
0.330209
0.33027
0.330296
0.330301
0.330319
0.330345
0.330316
0.330287
0.330207
0.329897
0.328973
0.326588
0.323436
0.320464
0.318542
0.318467
0.318664
0.319598
0.32298
0.327177
0.475816
0.767082
0.968305
1.05532
1.05032
1.05483
1.07142
1.0694
1.07145
1.08588
1.10981
1.1201
1.13006
1.1367
1.14295
1.15096
1.16198
1.17593
1.19076
1.20551
1.22026
1.23616
1.25355
1.27001
1.28281
1.29194
1.29929
1.3063
1.31359
1.32153
1.33096
1.34307
1.35906
1.37807
1.39307
1.3991
1.39997
1.40001
1.40001
1.40001
0.330093
0.330061
0.330033
0.330011
0.329989
0.329968
0.32995
0.329932
0.329923
0.329919
0.329912
0.329893
0.329866
0.329837
0.329815
0.329815
0.329829
0.32988
0.329968
0.33004
0.330124
0.330177
0.330192
0.330179
0.330162
0.330198
0.330128
0.329908
0.329444
0.328021
0.325746
0.323079
0.320074
0.318411
0.318266
0.318404
0.319945
0.324303
0.330057
0.337815
0.343663
0.396811
0.639607
0.903569
1.00244
1.05801
1.09092
1.07721
1.0834
1.10406
1.11457
1.1173
1.12618
1.12918
1.13552
1.14666
1.16283
1.17771
1.19022
1.20272
1.21681
1.23225
1.24911
1.26573
1.27933
1.28867
1.29526
1.30184
1.30959
1.3184
1.32861
1.34159
1.35888
1.37833
1.39335
1.39917
1.39998
1.40001
1.40001
1.40001
0.330014
0.329988
0.329969
0.329959
0.329952
0.329943
0.329934
0.329919
0.329905
0.329895
0.329877
0.329839
0.329808
0.329791
0.329771
0.329765
0.329756
0.329774
0.329801
0.329776
0.329795
0.329773
0.329702
0.32962
0.329428
0.329259
0.328895
0.328003
0.326729
0.324814
0.322378
0.319827
0.318275
0.318172
0.318466
0.319711
0.323114
0.328577
0.336144
0.344178
0.352443
0.360959
0.37161
0.476166
0.752189
0.963125
1.07162
1.07498
1.09787
1.12397
1.11685
1.11186
1.11838
1.12182
1.13084
1.14921
1.16653
1.1785
1.18798
1.1989
1.21286
1.22879
1.24495
1.26067
1.27427
1.28457
1.29257
1.29972
1.30708
1.31576
1.32647
1.34013
1.35814
1.37851
1.39367
1.39926
1.39998
1.40001
1.40001
1.40001
0.329959
0.329942
0.329937
0.329936
0.329936
0.329932
0.32992
0.329898
0.329872
0.329855
0.329824
0.329784
0.329771
0.329769
0.329758
0.329747
0.329727
0.329708
0.329666
0.329544
0.329415
0.32928
0.329058
0.328873
0.32849
0.327947
0.327145
0.325851
0.324128
0.321903
0.319586
0.318342
0.318148
0.318418
0.320619
0.324291
0.328661
0.334519
0.34204
0.351053
0.36
0.368525
0.37806
0.385357
0.420554
0.567893
0.799351
0.996669
1.08002
1.11018
1.09677
1.09594
1.1135
1.1205
1.14012
1.15829
1.16991
1.17594
1.18249
1.19297
1.2087
1.22618
1.24248
1.25646
1.26853
1.2788
1.28773
1.29604
1.30454
1.31366
1.32447
1.33899
1.35826
1.37894
1.39403
1.39935
1.39999
1.40001
1.40001
1.40001
0.329934
0.329929
0.32992
0.329912
0.329908
0.3299
0.329887
0.329866
0.329846
0.329831
0.329795
0.329761
0.329763
0.329767
0.329767
0.329756
0.329729
0.32968
0.329592
0.329432
0.329212
0.328978
0.328645
0.328302
0.327795
0.32695
0.325835
0.324102
0.321617
0.319258
0.318283
0.318347
0.319378
0.321547
0.323918
0.328687
0.335526
0.342723
0.349991
0.357832
0.366693
0.37587
0.385242
0.394897
0.404512
0.41228
0.459864
0.636379
0.837695
0.999597
1.05737
1.09053
1.12819
1.13136
1.1556
1.16372
1.1681
1.16819
1.17268
1.18605
1.20548
1.22307
1.23899
1.253
1.26388
1.27318
1.28217
1.29104
1.30029
1.31049
1.32239
1.33752
1.35767
1.37937
1.39445
1.39943
1.39999
1.40001
1.40001
1.40001
0.329924
0.329902
0.329876
0.329863
0.32986
0.329861
0.329857
0.32985
0.329841
0.329827
0.329795
0.32978
0.329794
0.329839
0.329897
0.3299
0.329877
0.329784
0.329652
0.329461
0.329206
0.328929
0.328546
0.328007
0.32734
0.326121
0.324204
0.321461
0.319449
0.318388
0.318833
0.320005
0.321995
0.325405
0.328897
0.333286
0.340213
0.348794
0.357544
0.365708
0.374441
0.38403
0.393306
0.402763
0.412704
0.423259
0.433011
0.442083
0.500428
0.652675
0.882499
1.05175
1.11028
1.12875
1.16217
1.16174
1.16065
1.15836
1.16467
1.18568
1.20303
1.21804
1.2325
1.24665
1.25902
1.26889
1.2776
1.28668
1.29639
1.30705
1.31991
1.3367
1.35799
1.38004
1.39491
1.39952
1.39999
1.40001
1.40001
1.40001
0.329868
0.329847
0.329833
0.329835
0.32984
0.329848
0.329851
0.329851
0.329858
0.329859
0.329866
0.329885
0.329904
0.329945
0.330037
0.330057
0.330036
0.329966
0.329838
0.329687
0.329448
0.329164
0.328731
0.327889
0.326297
0.323853
0.32145
0.319523
0.319428
0.319758
0.320878
0.323188
0.324468
0.327982
0.334633
0.341384
0.347801
0.355961
0.365227
0.375049
0.383972
0.392587
0.402015
0.410894
0.41983
0.430412
0.441467
0.452432
0.463929
0.475257
0.537519
0.708387
0.90563
1.06804
1.14574
1.14218
1.14702
1.15069
1.17079
1.18756
1.19852
1.21022
1.22361
1.23775
1.25156
1.2633
1.27332
1.28282
1.29305
1.30449
1.31773
1.3351
1.3579
1.38082
1.39541
1.39961
1.4
1.40001
1.40001
1.40001
0.329828
0.329825
0.329826
0.329831
0.32984
0.329848
0.329858
0.329879
0.329892
0.329897
0.32992
0.329968
0.329975
0.329987
0.330066
0.330095
0.33006
0.329992
0.329858
0.329709
0.329476
0.329013
0.327854
0.325823
0.32314
0.321072
0.320072
0.320086
0.320696
0.322152
0.322863
0.32544
0.329036
0.333
0.339564
0.348943
0.35833
0.366279
0.374461
0.382547
0.39101
0.399252
0.408354
0.418662
0.42881
0.438064
0.449363
0.461371
0.472999
0.485307
0.498138
0.515023
0.594381
0.785333
0.977389
1.08458
1.14003
1.15682
1.18347
1.18518
1.1904
1.20217
1.21603
1.22996
1.24386
1.25626
1.26728
1.27797
1.28892
1.30086
1.31547
1.33499
1.35848
1.38177
1.39593
1.39969
1.4
1.40001
1.40001
1.40001
0.329835
0.329845
0.329854
0.329864
0.329873
0.329876
0.32988
0.329894
0.329904
0.329904
0.329921
0.329971
0.329993
0.329991
0.330017
0.330046
0.329975
0.329866
0.329701
0.329231
0.328124
0.32642
0.324089
0.321994
0.320685
0.319952
0.32024
0.320898
0.321294
0.323632
0.324607
0.327106
0.33486
0.342667
0.349883
0.357591
0.366383
0.374814
0.38246
0.390382
0.399232
0.408306
0.416871
0.42609
0.436593
0.447296
0.458024
0.469499
0.482224
0.495095
0.508383
0.522299
0.536512
0.565811
0.681158
0.915863
1.1003
1.15047
1.18251
1.17567
1.18009
1.19643
1.21412
1.22826
1.23873
1.2493
1.26043
1.27201
1.28437
1.29754
1.31293
1.33366
1.35901
1.38291
1.39648
1.39976
1.4
1.40001
1.40001
1.40001
0.329889
0.329894
0.329892
0.329892
0.329889
0.329872
0.329822
0.329817
0.329838
0.329833
0.329817
0.329845
0.32985
0.329745
0.329501
0.329354
0.329143
0.328496
0.327333
0.325888
0.323971
0.32218
0.320875
0.319657
0.31982
0.319743
0.319724
0.321382
0.321526
0.323564
0.330032
0.336157
0.342392
0.351573
0.360238
0.367488
0.374247
0.382101
0.389993
0.398191
0.406177
0.415651
0.425441
0.435186
0.444926
0.456016
0.467149
0.478982
0.491479
0.504178
0.518131
0.532478
0.547172
0.564306
0.580983
0.647546
0.834986
1.04347
1.14761
1.14994
1.16633
1.18914
1.20749
1.22136
1.23297
1.24303
1.25422
1.26675
1.27961
1.29376
1.31131
1.33386
1.36004
1.38419
1.39703
1.39982
1.4
1.40001
1.40001
1.40001
0.32992
0.329913
0.329897
0.329861
0.329804
0.329714
0.329567
0.32944
0.329376
0.329307
0.3292
0.329069
0.32897
0.328844
0.328523
0.327813
0.32686
0.325642
0.32404
0.322447
0.32089
0.319479
0.319127
0.31877
0.318937
0.319595
0.319648
0.321435
0.326277
0.330872
0.337991
0.347203
0.3541
0.360385
0.367482
0.375311
0.382346
0.389574
0.398174
0.406682
0.415356
0.424324
0.43356
0.443669
0.454667
0.46574
0.477246
0.489164
0.501884
0.515284
0.529059
0.543252
0.558156
0.57354
0.590081
0.608365
0.649283
0.80814
1.0065
1.11849
1.17362
1.18604
1.1938
1.20465
1.22017
1.2352
1.24789
1.26074
1.27493
1.29019
1.3086
1.33322
1.36129
1.38567
1.39757
1.39987
1.4
1.40001
1.40001
1.40001
0.329836
0.329785
0.32971
0.329615
0.329502
0.32937
0.329219
0.329004
0.328856
0.328751
0.328626
0.328407
0.328038
0.327552
0.326946
0.325891
0.324456
0.322942
0.321274
0.319904
0.319076
0.318583
0.318663
0.318751
0.318883
0.320557
0.324136
0.327943
0.334933
0.343586
0.348844
0.355027
0.362406
0.368844
0.375149
0.382479
0.390861
0.39846
0.406348
0.41529
0.424784
0.434157
0.444548
0.45431
0.464222
0.475185
0.487066
0.499019
0.511103
0.524683
0.538804
0.55404
0.570125
0.586206
0.602998
0.619141
0.639278
0.672296
0.797479
1.01782
1.14456
1.16804
1.17547
1.18774
1.20458
1.22248
1.23931
1.2542
1.26912
1.2864
1.30787
1.33381
1.363
1.38727
1.39809
1.39992
1.4
1.40001
1.40001
1.40001
0.329617
0.329569
0.329496
0.329387
0.329279
0.329194
0.329085
0.328902
0.328777
0.328651
0.328408
0.328008
0.327298
0.326144
0.32478
0.323251
0.321632
0.320414
0.319469
0.318927
0.318792
0.318609
0.318722
0.320162
0.323108
0.326924
0.333283
0.340482
0.344833
0.350899
0.35747
0.362574
0.369083
0.376747
0.384503
0.391292
0.399379
0.408369
0.416537
0.425026
0.434064
0.442872
0.452174
0.463204
0.473903
0.484639
0.49615
0.509012
0.521789
0.534755
0.548747
0.563909
0.579726
0.597404
0.615532
0.633536
0.651007
0.672433
0.703069
0.813712
0.997411
1.11732
1.16466
1.18465
1.19683
1.21086
1.22834
1.24676
1.26412
1.2822
1.30543
1.33428
1.36517
1.38902
1.39856
1.39995
1.4
1.40001
1.40001
1.40001
0.329418
0.329409
0.329374
0.329272
0.329227
0.329227
0.329174
0.329082
0.328916
0.328676
0.328099
0.326935
0.32529
0.323377
0.321631
0.320515
0.319847
0.319461
0.319279
0.319365
0.319695
0.321321
0.323952
0.327088
0.332373
0.337756
0.341448
0.347384
0.352875
0.357177
0.364651
0.371819
0.378397
0.385675
0.393804
0.402139
0.409219
0.417093
0.425953
0.434361
0.44319
0.453313
0.462355
0.471748
0.482929
0.494458
0.506342
0.518485
0.532401
0.546437
0.560906
0.575832
0.591369
0.608146
0.6265
0.646568
0.665597
0.684246
0.7055
0.738973
0.844628
1.02307
1.13856
1.17496
1.19116
1.20644
1.22111
1.2379
1.25764
1.2793
1.30537
1.33573
1.36777
1.39083
1.39897
1.39997
1.4
1.40001
1.40001
1.40001
0.329488
0.329434
0.329366
0.329265
0.329179
0.329106
0.32891
0.328474
0.327592
0.326215
0.324627
0.323044
0.321693
0.320827
0.320113
0.319817
0.320011
0.320261
0.321031
0.322989
0.324846
0.327185
0.331378
0.335034
0.338449
0.344046
0.348585
0.352807
0.360843
0.367957
0.373722
0.381695
0.389469
0.396472
0.403121
0.410834
0.418955
0.426343
0.434349
0.443365
0.451933
0.461306
0.472605
0.483259
0.494072
0.505889
0.518224
0.530779
0.543776
0.557939
0.572805
0.588522
0.605375
0.621957
0.639227
0.658541
0.679381
0.700129
0.720118
0.744381
0.781434
0.883136
1.03363
1.13038
1.17023
1.19149
1.21115
1.23099
1.25081
1.27426
1.30397
1.33771
1.37096
1.39267
1.39931
1.39999
1.4
1.40001
1.40001
1.40001
0.329059
0.328773
0.328434
0.327963
0.327253
0.326281
0.325132
0.323878
0.322682
0.3217
0.321103
0.320725
0.320404
0.320323
0.320395
0.320583
0.321309
0.322568
0.323757
0.326059
0.329492
0.331937
0.335489
0.340765
0.345017
0.350001
0.358452
0.365369
0.370932
0.378829
0.385757
0.391639
0.398287
0.405542
0.412664
0.419306
0.426981
0.435611
0.443879
0.452779
0.462956
0.472294
0.482085
0.493183
0.504726
0.516683
0.528975
0.542342
0.555859
0.569775
0.584838
0.600591
0.617334
0.635147
0.653524
0.672421
0.693207
0.715994
0.736027
0.757065
0.784512
0.829297
0.930795
1.05872
1.13489
1.17123
1.19722
1.22101
1.24467
1.27287
1.30478
1.34075
1.37461
1.39444
1.39958
1.4
1.40001
1.40001
1.40001
1.40001
0.327522
0.327007
0.326265
0.325317
0.324196
0.323008
0.322015
0.321169
0.320471
0.320025
0.319968
0.320178
0.320342
0.320788
0.321378
0.32183
0.322628
0.324811
0.326796
0.328751
0.333407
0.33953
0.344176
0.350067
0.357902
0.364218
0.369467
0.37665
0.38271
0.387678
0.394412
0.400827
0.406922
0.413616
0.421213
0.42924
0.43707
0.445522
0.454838
0.463902
0.473337
0.484088
0.494583
0.505382
0.516474
0.528092
0.540702
0.553542
0.567013
0.581738
0.59712
0.613199
0.62978
0.647991
0.667304
0.686526
0.707184
0.728706
0.753957
0.775737
0.798516
0.830902
0.883286
0.978406
1.08357
1.1491
1.18404
1.2093
1.23584
1.26899
1.30588
1.34496
1.37869
1.39605
1.39976
1.4
1.40001
1.40001
1.40001
1.40001
0.325359
0.324216
0.322975
0.321835
0.321013
0.320383
0.319965
0.319759
0.319631
0.319653
0.319685
0.319966
0.320337
0.320735
0.322236
0.324367
0.326403
0.329463
0.335115
0.341042
0.345426
0.351147
0.358028
0.363409
0.368463
0.374642
0.379732
0.384299
0.390972
0.396758
0.402207
0.409336
0.416831
0.423986
0.431587
0.439708
0.448325
0.456689
0.465357
0.475068
0.484607
0.4942
0.504695
0.515921
0.527703
0.53995
0.552607
0.565934
0.580281
0.594772
0.60977
0.626433
0.64377
0.6616
0.680469
0.701306
0.722264
0.745171
0.768137
0.79247
0.815837
0.842923
0.884334
0.942845
1.02597
1.10641
1.16112
1.19913
1.23468
1.27013
1.30916
1.35033
1.38298
1.39741
1.39988
1.4
1.40001
1.40001
1.40001
1.40001
0.321233
0.320567
0.320214
0.319956
0.31989
0.319871
0.319827
0.31984
0.319725
0.31982
0.320249
0.321041
0.323261
0.325997
0.328957
0.332996
0.337963
0.342981
0.347429
0.352567
0.357969
0.362239
0.367001
0.372393
0.376991
0.381721
0.388313
0.393987
0.399129
0.406627
0.413703
0.420101
0.427449
0.435365
0.442978
0.450796
0.458811
0.46768
0.476678
0.485532
0.495528
0.506035
0.516818
0.527429
0.53939
0.551815
0.56459
0.57824
0.592637
0.607841
0.624393
0.640574
0.658338
0.676509
0.695792
0.716305
0.737758
0.760443
0.784425
0.810287
0.835422
0.861337
0.893982
0.943314
1.00463
1.07208
1.13406
1.18592
1.23038
1.27148
1.31437
1.35686
1.38725
1.39846
1.39995
1.4
1.40001
1.40001
1.40001
1.40001
0.319835
0.319901
0.320125
0.320354
0.320585
0.321113
0.321462
0.322034
0.323277
0.324918
0.327338
0.330016
0.332938
0.336676
0.340354
0.344275
0.348468
0.352772
0.357147
0.360964
0.365866
0.371053
0.375532
0.380713
0.386924
0.392515
0.397853
0.404957
0.411674
0.417411
0.424338
0.431718
0.438347
0.445475
0.453089
0.461095
0.469399
0.477702
0.487053
0.496976
0.506686
0.517011
0.528114
0.540376
0.552008
0.564827
0.578258
0.592145
0.60626
0.621627
0.637536
0.655125
0.672804
0.691891
0.711554