/*--------------------------------*- C++ -*----------------------------------*\
  =========                 |
  \\      /  F ield         | OpenFOAM: The Open Source CFD Toolbox
   \\    /   O peration     | Website:  https://openfoam.org
    \\  /    A nd           | Version:  7
     \\/     M anipulation  |
\*---------------------------------------------------------------------------*/
FoamFile
{
    version     2.0;
    format      ascii;
    class       volVectorField;
    location    "9";
    object      U;
}
// * * * * * * * * * * * * * * * * * * * * * * * * * * * * * * * * * * * * * //

dimensions      [0 1 -1 0 0 0 0];

internalField   nonuniform List<vector> 
90000
(
(4.07165 -1.06454 0)
(4.04388 -0.9884 0)
(4.02248 -0.919827 0)
(4.00098 -0.813115 0)
(3.98977 -0.721525 0)
(3.98838 -0.710712 0)
(3.97748 -0.639319 0)
(3.9721 -0.577896 0)
(3.96956 -0.517989 0)
(3.97295 -0.499325 0)
(3.96817 -0.434355 0)
(3.96932 -0.407089 0)
(3.96737 -0.352992 0)
(3.97132 -0.335798 0)
(3.96768 -0.281274 0)
(3.9716 -0.267527 0)
(3.9683 -0.211918 0)
(3.97218 -0.205 0)
(3.96813 -0.152363 0)
(3.97212 -0.146033 0)
(3.96809 -0.0961539 0)
(3.97216 -0.095552 0)
(3.9689 -0.0493565 0)
(3.97431 -0.051913 0)
(3.97422 -0.0083648 0)
(3.97767 -0.012851 0)
(3.97322 0.0165551 0)
(3.97548 0.00814649 0)
(3.96486 0.0261331 0)
(3.96329 0.0318712 0)
(3.95954 0.0363334 0)
(3.95797 0.0357252 0)
(3.95666 0.0374568 0)
(3.9569 0.0359882 0)
(3.95596 0.036141 0)
(3.95551 0.0336723 0)
(3.95507 0.0320383 0)
(3.9558 0.0364646 0)
(3.95554 0.0391009 0)
(3.95361 0.0423804 0)
(3.9513 0.0431942 0)
(3.94876 0.0464246 0)
(3.94585 0.0495395 0)
(3.9397 0.0521964 0)
(3.93602 0.0594272 0)
(3.93524 0.057564 0)
(3.9345 0.0566156 0)
(3.93164 0.0513508 0)
(3.93001 0.0476033 0)
(3.92821 0.0388712 0)
(3.92755 0.0373023 0)
(3.92617 0.0318135 0)
(3.92572 0.0315827 0)
(3.92462 0.0249624 0)
(3.92515 0.0238502 0)
(3.92635 0.0267232 0)
(3.92849 0.0343041 0)
(3.93058 0.0421616 0)
(3.93184 0.0467957 0)
(3.93131 0.0483692 0)
(3.93009 0.0438192 0)
(3.92947 0.0411634 0)
(3.92842 0.0389566 0)
(3.92679 0.0359613 0)
(3.92636 0.0351228 0)
(3.92483 0.0307472 0)
(3.9254 0.0325807 0)
(3.92704 0.0397801 0)
(3.92837 0.0457909 0)
(3.9297 0.0510262 0)
(3.92975 0.0507332 0)
(3.92873 0.0451287 0)
(3.92766 0.0408703 0)
(3.92714 0.0343866 0)
(3.92723 0.0380688 0)
(3.92797 0.0411996 0)
(3.92911 0.0460329 0)
(3.93133 0.0488457 0)
(3.93144 0.0480096 0)
(3.93095 0.0460187 0)
(3.93005 0.041389 0)
(3.93078 0.0414331 0)
(3.93153 0.0422962 0)
(3.9332 0.0457341 0)
(3.9337 0.0465352 0)
(3.93335 0.0441214 0)
(3.93262 0.0410365 0)
(3.933 0.0386968 0)
(3.93374 0.0407939 0)
(3.93511 0.0445832 0)
(3.93573 0.0451107 0)
(3.9363 0.0447853 0)
(3.93728 0.0450045 0)
(3.93794 0.0466198 0)
(3.93874 0.0472451 0)
(3.93935 0.0462259 0)
(3.93987 0.0447869 0)
(3.94055 0.04482 0)
(3.94111 0.0451366 0)
(3.94176 0.0440613 0)
(4.10067 -1.153 0)
(4.10063 -1.15297 0)
(4.1006 -1.15284 0)
(4.10053 -1.15287 0)
(4.10049 -1.1527 0)
(4.10041 -1.15273 0)
(4.10037 -1.15256 0)
(4.10027 -1.15266 0)
(4.10023 -1.15241 0)
(4.10012 -1.15258 0)
(4.09976 -1.15166 0)
(4.09903 -1.14933 0)
(4.0974 -1.14429 0)
(4.09512 -1.13768 0)
(4.09184 -1.12524 0)
(4.08783 -1.11165 0)
(4.08266 -1.08754 0)
(4.07713 -1.06577 0)
(4.06933 -1.02547 0)
(4.06186 -0.992792 0)
(4.05178 -0.932535 0)
(4.04316 -0.890109 0)
(4.02978 -0.805397 0)
(4.02172 -0.757287 0)
(4.00652 -0.649926 0)
(4.00111 -0.600274 0)
(3.98306 -0.474987 0)
(3.98251 -0.433709 0)
(3.96362 -0.307424 0)
(3.96831 -0.282105 0)
(3.95009 -0.172895 0)
(3.95684 -0.158805 0)
(3.93941 -0.0699091 0)
(3.94623 -0.0619625 0)
(3.93167 0.00555877 0)
(3.93603 0.00870363 0)
(3.92598 0.0540394 0)
(3.92955 0.0544419 0)
(3.9231 0.0808236 0)
(3.92527 0.0835368 0)
(3.92029 0.100078 0)
(3.9182 0.103246 0)
(3.91808 0.114204 0)
(3.91606 0.111081 0)
(3.91388 0.101825 0)
(3.91562 0.0846589 0)
(3.91557 0.0627123 0)
(3.91777 0.0465723 0)
(3.92053 0.0388397 0)
(3.92128 0.0305107 0)
(3.92287 0.0271635 0)
(3.92251 0.0202593 0)
(3.92186 0.0208042 0)
(3.92224 0.0254443 0)
(3.9246 0.0375625 0)
(3.92539 0.0526493 0)
(3.92261 0.0666713 0)
(3.92118 0.0735187 0)
(3.91825 0.0731921 0)
(3.91356 0.0681476 0)
(3.91153 0.0602691 0)
(3.9073 0.0469928 0)
(3.90631 0.0427574 0)
(3.90687 0.0334052 0)
(3.9083 0.0360732 0)
(3.90984 0.0404747 0)
(3.91269 0.0481907 0)
(3.91457 0.0500563 0)
(3.91565 0.0552126 0)
(3.91499 0.0547623 0)
(3.91309 0.0505421 0)
(3.9122 0.047953 0)
(3.91205 0.0395329 0)
(3.91285 0.0386909 0)
(3.91471 0.0407355 0)
(3.91607 0.0435151 0)
(3.91796 0.0483855 0)
(3.91786 0.0477839 0)
(3.91694 0.0430887 0)
(3.91668 0.0386462 0)
(3.91696 0.0404795 0)
(3.91779 0.0432266 0)
(3.92022 0.0493419 0)
(3.92075 0.0493034 0)
(3.92091 0.0463582 0)
(3.91963 0.0420735 0)
(3.92018 0.0397312 0)
(3.92096 0.0409822 0)
(3.92262 0.0434243 0)
(3.92396 0.0444271 0)
(3.9248 0.0446264 0)
(3.92552 0.0437587 0)
(3.92666 0.0444578 0)
(3.92764 0.0446925 0)
(3.92861 0.0447497 0)
(3.92933 0.0447931 0)
(3.93007 0.0460539 0)
(3.93108 0.0462081 0)
(3.93185 0.0466642 0)
(3.9329 0.0451857 0)
(4.0986 -1.15289 0)
(4.09847 -1.15288 0)
(4.09837 -1.15272 0)
(4.09818 -1.15286 0)
(4.09805 -1.15272 0)
(4.09788 -1.15274 0)
(4.09775 -1.15261 0)
(4.09754 -1.15276 0)
(4.09744 -1.15252 0)
(4.09722 -1.15272 0)
(4.09715 -1.15238 0)
(4.09687 -1.15276 0)
(4.09677 -1.15251 0)
(4.0967 -1.15226 0)
(4.09665 -1.15208 0)
(4.09658 -1.152 0)
(4.09653 -1.15178 0)
(4.09643 -1.15177 0)
(4.09636 -1.15152 0)
(4.09622 -1.15155 0)
(4.09614 -1.15136 0)
(4.09601 -1.15141 0)
(4.09597 -1.15115 0)
(4.09577 -1.15143 0)
(4.09575 -1.15103 0)
(4.09559 -1.15145 0)
(4.0942 -1.14737 0)
(4.09129 -1.1383 0)
(4.08468 -1.1135 0)
(4.07645 -1.08256 0)
(4.06336 -1.02241 0)
(4.05143 -0.968434 0)
(4.03417 -0.870013 0)
(4.02294 -0.805968 0)
(4.00435 -0.679769 0)
(3.99707 -0.621826 0)
(3.97819 -0.48482 0)
(3.97767 -0.445314 0)
(3.95898 -0.316206 0)
(3.96214 -0.292964 0)
(3.94555 -0.186238 0)
(3.94651 -0.17216 0)
(3.93654 -0.100997 0)
(3.93937 -0.0935104 0)
(3.93085 -0.0589301 0)
(3.93828 -0.0510456 0)
(3.92535 -0.0178146 0)
(3.92643 -0.0129779 0)
(3.92217 -0.00115264 0)
(3.92213 0.0050671 0)
(3.92119 0.0114462 0)
(3.91934 0.0177506 0)
(3.91589 0.0256861 0)
(3.90801 0.0402468 0)
(3.90481 0.0558424 0)
(3.9045 0.0608461 0)
(3.90142 0.0600116 0)
(3.89673 0.0544654 0)
(3.89503 0.0499122 0)
(3.89373 0.0431271 0)
(3.89491 0.0396627 0)
(3.89597 0.0387747 0)
(3.89701 0.0329529 0)
(3.89798 0.0332202 0)
(3.90108 0.0392532 0)
(3.90275 0.0434479 0)
(3.90565 0.0542613 0)
(3.90568 0.0551709 0)
(3.9056 0.0523732 0)
(3.90473 0.046507 0)
(3.90308 0.0390463 0)
(3.90409 0.0308192 0)
(3.90335 0.0357964 0)
(3.90435 0.0406928 0)
(3.90642 0.0462481 0)
(3.90748 0.0510352 0)
(3.90696 0.0499758 0)
(3.90534 0.046969 0)
(3.90393 0.0437064 0)
(3.90562 0.0373671 0)
(3.90677 0.0391479 0)
(3.90756 0.042698 0)
(3.91033 0.0457678 0)
(3.9093 0.0463723 0)
(3.90844 0.0434603 0)
(3.90719 0.0374973 0)
(3.90953 0.038921 0)
(3.91037 0.0412442 0)
(3.9125 0.0455849 0)
(3.91313 0.0459263 0)
(3.91395 0.0450942 0)
(3.91496 0.0459915 0)
(3.91589 0.0471616 0)
(3.91691 0.0482328 0)
(3.91788 0.0473006 0)
(3.91837 0.0443924 0)
(3.91943 0.0435612 0)
(3.92053 0.0447016 0)
(3.92137 0.0439727 0)
(3.92254 0.042996 0)
(4.09637 -1.15157 0)
(4.09628 -1.15149 0)
(4.09619 -1.15138 0)
(4.09608 -1.15133 0)
(4.09594 -1.15144 0)
(4.09586 -1.15126 0)
(4.09573 -1.1513 0)
(4.09562 -1.15125 0)
(4.0955 -1.15124 0)
(4.0954 -1.15118 0)
(4.0953 -1.15111 0)
(4.0952 -1.15106 0)
(4.09508 -1.15111 0)
(4.09502 -1.15095 0)
(4.0949 -1.15098 0)
(4.09481 -1.15097 0)
(4.09475 -1.15088 0)
(4.09466 -1.15091 0)
(4.09457 -1.15089 0)
(4.0945 -1.15086 0)
(4.09441 -1.15097 0)
(4.09438 -1.15083 0)
(4.09433 -1.15081 0)
(4.09425 -1.15092 0)
(4.09423 -1.15083 0)
(4.09416 -1.15084 0)
(4.09412 -1.15089 0)
(4.0941 -1.15089 0)
(4.09409 -1.15083 0)
(4.09402 -1.15084 0)
(4.09386 -1.15096 0)
(4.09375 -1.15102 0)
(4.09369 -1.15096 0)
(4.09349 -1.15111 0)
(4.09334 -1.15108 0)
(4.09321 -1.15116 0)
(4.09114 -1.14396 0)
(4.08675 -1.12741 0)
(4.07648 -1.08179 0)
(4.06509 -1.0307 0)
(4.04587 -0.924574 0)
(4.03203 -0.846648 0)
(4.00652 -0.683901 0)
(3.99889 -0.606811 0)
(3.9672 -0.411491 0)
(3.97468 -0.35948 0)
(3.94195 -0.185036 0)
(3.95535 -0.155746 0)
(3.92282 -0.026481 0)
(3.93231 -0.00351269 0)
(3.90588 0.0744736 0)
(3.91138 0.0975493 0)
(3.89236 0.137712 0)
(3.8889 0.142471 0)
(3.88305 0.127161 0)
(3.885 0.088225 0)
(3.88572 0.0576808 0)
(3.89001 0.0453047 0)
(3.89149 0.0388046 0)
(3.89065 0.0338535 0)
(3.89325 0.032708 0)
(3.89461 0.0344117 0)
(3.89617 0.0365425 0)
(3.89941 0.0435292 0)
(3.90193 0.0583219 0)
(3.90264 0.0577335 0)
(3.90182 0.0569711 0)
(3.90007 0.0533414 0)
(3.89669 0.0429716 0)
(3.89731 0.0392212 0)
(3.89687 0.0323322 0)
(3.8973 0.031878 0)
(3.89957 0.0407174 0)
(3.90011 0.0442345 0)
(3.90212 0.0523357 0)
(3.90208 0.0508528 0)
(3.90066 0.0461723 0)
(3.89969 0.0379608 0)
(3.89839 0.0384824 0)
(3.89964 0.0411265 0)
(3.90217 0.0469923 0)
(3.90311 0.0505138 0)
(3.90341 0.0506788 0)
(3.90228 0.0429154 0)
(3.90021 0.0400194 0)
(3.90157 0.0381139 0)
(3.9026 0.0419131 0)
(3.90418 0.0438917 0)
(3.90459 0.0450366 0)
(3.90505 0.0445663 0)
(3.90589 0.0433942 0)
(3.90673 0.0438307 0)
(3.90723 0.0448325 0)
(3.90778 0.0443172 0)
(3.90835 0.0449564 0)
(3.90882 0.0461557 0)
(3.90997 0.0466117 0)
(3.91094 0.0456025 0)
(3.91145 0.0456133 0)
(3.9123 0.0436367 0)
(4.09461 -1.15117 0)
(4.09456 -1.15123 0)
(4.09453 -1.15115 0)
(4.0945 -1.15111 0)
(4.09441 -1.15119 0)
(4.09436 -1.1512 0)
(4.09431 -1.1512 0)
(4.09424 -1.15119 0)
(4.09419 -1.15112 0)
(4.09413 -1.15114 0)
(4.09409 -1.15109 0)
(4.09405 -1.15107 0)
(4.09399 -1.15113 0)
(4.09397 -1.15109 0)
(4.09395 -1.15107 0)
(4.09391 -1.15113 0)
(4.09389 -1.1511 0)
(4.09386 -1.1511 0)
(4.09383 -1.15111 0)
(4.0938 -1.15113 0)
(4.09377 -1.15119 0)
(4.09377 -1.15117 0)
(4.09378 -1.15114 0)
(4.09373 -1.1512 0)
(4.09371 -1.15122 0)
(4.0937 -1.15121 0)
(4.09366 -1.15123 0)
(4.09362 -1.15124 0)
(4.09357 -1.15121 0)
(4.09348 -1.15118 0)
(4.09334 -1.15124 0)
(4.09322 -1.15126 0)
(4.09311 -1.15126 0)
(4.09295 -1.15128 0)
(4.09281 -1.1513 0)
(4.09273 -1.15134 0)
(4.09263 -1.15134 0)
(4.09256 -1.15133 0)
(4.09253 -1.15127 0)
(4.0925 -1.15123 0)
(4.09248 -1.15123 0)
(4.09249 -1.15124 0)
(4.0925 -1.1513 0)
(4.09241 -1.15138 0)
(4.0884 -1.13758 0)
(4.08076 -1.10545 0)
(4.06374 -1.02747 0)
(4.04875 -0.936106 0)
(4.02543 -0.789298 0)
(4.01292 -0.677372 0)
(3.99066 -0.507213 0)
(3.98822 -0.424359 0)
(3.96988 -0.280549 0)
(3.97654 -0.222198 0)
(3.95037 -0.139231 0)
(3.95784 -0.0958408 0)
(3.93149 -0.031522 0)
(3.93271 -0.0222701 0)
(3.91902 0.00230281 0)
(3.91567 0.012207 0)
(3.91271 0.0263512 0)
(3.90784 0.0391974 0)
(3.9007 0.0520602 0)
(3.89875 0.0681511 0)
(3.8973 0.0688046 0)
(3.89341 0.0629447 0)
(3.89031 0.0478143 0)
(3.89115 0.0371046 0)
(3.88731 0.0253226 0)
(3.88946 0.0245906 0)
(3.89127 0.0284677 0)
(3.89646 0.0405675 0)
(3.89693 0.0468957 0)
(3.89973 0.0534242 0)
(3.899 0.0525722 0)
(3.89673 0.043494 0)
(3.89498 0.0382943 0)
(3.89618 0.0321713 0)
(3.89679 0.0347087 0)
(3.89869 0.0417918 0)
(3.90018 0.0494474 0)
(3.90022 0.0493318 0)
(3.8997 0.0459638 0)
(3.89823 0.0374751 0)
(3.89865 0.0355264 0)
(3.89935 0.0387496 0)
(3.89957 0.0423668 0)
(3.9007 0.0475539 0)
(3.90083 0.0457942 0)
(3.90029 0.0442767 0)
(3.90072 0.0452726 0)
(3.9015 0.0473645 0)
(3.9016 0.0472622 0)
(3.90173 0.0468526 0)
(3.90177 0.043787 0)
(3.90244 0.0433653 0)
(3.90299 0.044441 0)
(3.90352 0.0445635 0)
(3.90346 0.0426208 0)
(3.90402 0.0426267 0)
(4.09367 -1.15162 0)
(4.09364 -1.15164 0)
(4.09362 -1.15165 0)
(4.09361 -1.15162 0)
(4.0936 -1.15161 0)
(4.09359 -1.1516 0)
(4.09356 -1.15163 0)
(4.09354 -1.15164 0)
(4.09351 -1.15163 0)
(4.09348 -1.15164 0)
(4.09346 -1.15165 0)
(4.09345 -1.15163 0)
(4.09344 -1.1516 0)
(4.09341 -1.15166 0)
(4.09339 -1.15172 0)
(4.09339 -1.15168 0)
(4.0934 -1.15166 0)
(4.09334 -1.15166 0)
(4.09331 -1.15166 0)
(4.09329 -1.15168 0)
(4.09327 -1.1517 0)
(4.09327 -1.15169 0)
(4.09327 -1.15167 0)
(4.09324 -1.15163 0)
(4.09323 -1.15161 0)
(4.09322 -1.1516 0)
(4.09316 -1.15156 0)
(4.0931 -1.15153 0)
(4.09302 -1.15146 0)
(4.093 -1.1514 0)
(4.09297 -1.15139 0)
(4.09284 -1.15142 0)
(4.09266 -1.15134 0)
(4.09253 -1.15129 0)
(4.09247 -1.15125 0)
(4.0924 -1.15122 0)
(4.09231 -1.15121 0)
(4.09229 -1.15118 0)
(4.09229 -1.15112 0)
(4.09227 -1.15109 0)
(4.09223 -1.15108 0)
(4.0921 -1.15109 0)
(4.09191 -1.15111 0)
(4.09125 -1.15096 0)
(4.09118 -1.15091 0)
(4.0911 -1.15089 0)
(4.09106 -1.15085 0)
(4.09126 -1.15063 0)
(4.09118 -1.15035 0)
(4.09089 -1.15028 0)
(4.08836 -1.13977 0)
(4.08116 -1.10662 0)
(4.06301 -0.999965 0)
(4.05029 -0.891543 0)
(4.01247 -0.624674 0)
(4.01965 -0.533818 0)
(3.9734 -0.257495 0)
(3.998 -0.232659 0)
(3.94883 -0.0349929 0)
(3.95855 -0.0220083 0)
(3.92406 0.0747464 0)
(3.91299 0.0987478 0)
(3.90303 0.126875 0)
(3.89464 0.104634 0)
(3.88973 0.0709936 0)
(3.89121 0.05419 0)
(3.88857 0.0416795 0)
(3.888 0.0325906 0)
(3.89013 0.032058 0)
(3.89103 0.0319175 0)
(3.89747 0.0464143 0)
(3.89833 0.0564919 0)
(3.89776 0.0568143 0)
(3.89617 0.0532573 0)
(3.89329 0.0428112 0)
(3.89214 0.0360375 0)
(3.89235 0.0339449 0)
(3.89359 0.0356779 0)
(3.89811 0.0451493 0)
(3.89959 0.0521156 0)
(3.89929 0.0522075 0)
(3.89748 0.0460315 0)
(3.89698 0.0404035 0)
(3.89468 0.0345128 0)
(3.89571 0.0361783 0)
(3.89736 0.0421854 0)
(3.89862 0.0463838 0)
(3.89842 0.0464397 0)
(3.89893 0.0449077 0)
(3.89754 0.0434093 0)
(3.89802 0.0446516 0)
(3.89884 0.0464451 0)
(3.8989 0.0465395 0)
(3.89896 0.0451159 0)
(3.89865 0.045182 0)
(3.89892 0.0455949 0)
(3.89892 0.0452023 0)
(3.89867 0.0444119 0)
(3.89844 0.0434032 0)
(3.89888 0.0419816 0)
(4.09336 -1.15132 0)
(4.09336 -1.15129 0)
(4.09336 -1.15129 0)
(4.09335 -1.15129 0)
(4.09336 -1.15127 0)
(4.09334 -1.15128 0)
(4.09334 -1.15131 0)
(4.09334 -1.15129 0)
(4.09334 -1.15127 0)
(4.09331 -1.15131 0)
(4.09328 -1.15135 0)
(4.09327 -1.15131 0)
(4.09327 -1.15128 0)
(4.0932 -1.15133 0)
(4.09318 -1.15137 0)
(4.09319 -1.15137 0)
(4.09318 -1.15133 0)
(4.09313 -1.15127 0)
(4.09311 -1.15124 0)
(4.09309 -1.15122 0)
(4.09308 -1.15121 0)
(4.09308 -1.15118 0)
(4.09307 -1.15115 0)
(4.09304 -1.15109 0)
(4.09299 -1.15102 0)
(4.09297 -1.15101 0)
(4.09292 -1.15096 0)
(4.09287 -1.1509 0)
(4.09279 -1.15088 0)
(4.09264 -1.15089 0)
(4.09249 -1.1509 0)
(4.09215 -1.15081 0)
(4.09203 -1.15077 0)
(4.09192 -1.15071 0)
(4.09176 -1.15064 0)
(4.09165 -1.1506 0)
(4.09163 -1.1506 0)
(4.09162 -1.15059 0)
(4.09158 -1.15057 0)
(4.09142 -1.15055 0)
(4.09135 -1.15055 0)
(4.09121 -1.15056 0)
(4.09101 -1.15056 0)
(4.09054 -1.15042 0)
(4.09033 -1.15036 0)
(4.09023 -1.15038 0)
(4.09014 -1.1503 0)
(4.09014 -1.15007 0)
(4.09003 -1.14983 0)
(4.08987 -1.14977 0)
(4.08975 -1.14979 0)
(4.08968 -1.1498 0)
(4.0893 -1.14988 0)
(4.08901 -1.14987 0)
(4.08893 -1.14985 0)
(4.08765 -1.14391 0)
(4.0757 -1.08576 0)
(4.06422 -0.997277 0)
(4.03622 -0.795691 0)
(4.03051 -0.676845 0)
(3.99504 -0.413117 0)
(4.00341 -0.361609 0)
(3.96838 -0.160015 0)
(3.98593 -0.14868 0)
(3.93623 -0.0435383 0)
(3.93615 -0.0291031 0)
(3.91883 0.00350703 0)
(3.91392 0.0244331 0)
(3.90958 0.0405769 0)
(3.90078 0.05371 0)
(3.89902 0.0700294 0)
(3.89417 0.0666344 0)
(3.89064 0.0507618 0)
(3.88851 0.0367297 0)
(3.88738 0.0198572 0)
(3.88818 0.0217928 0)
(3.89117 0.0310851 0)
(3.89581 0.0455703 0)
(3.89738 0.0552059 0)
(3.89694 0.054354 0)
(3.89518 0.0464387 0)
(3.89267 0.0354366 0)
(3.89082 0.0287123 0)
(3.89183 0.0333426 0)
(3.89362 0.0417631 0)
(3.89594 0.0485893 0)
(3.89623 0.0479134 0)
(3.89588 0.0446458 0)
(3.89523 0.0422434 0)
(3.89579 0.0441518 0)
(3.89685 0.0471645 0)
(3.89705 0.0474431 0)
(3.89701 0.0456393 0)
(3.8971 0.0436453 0)
(3.89695 0.0441312 0)
(3.89739 0.0453206 0)
(3.8973 0.0451595 0)
(3.89677 0.0436433 0)
(3.89688 0.0423605 0)
(3.89649 0.042123 0)
(4.09306 -1.15085 0)
(4.09304 -1.15087 0)
(4.09301 -1.1509 0)
(4.09298 -1.15086 0)
(4.09292 -1.15087 0)
(4.09284 -1.15092 0)
(4.09282 -1.15094 0)
(4.09278 -1.15095 0)
(4.09272 -1.15093 0)
(4.0927 -1.15094 0)
(4.09267 -1.15096 0)
(4.09265 -1.15097 0)
(4.09266 -1.15097 0)
(4.09259 -1.15103 0)
(4.09256 -1.15106 0)
(4.09255 -1.15105 0)
(4.09265 -1.15105 0)
(4.09269 -1.15105 0)
(4.09274 -1.15104 0)
(4.09267 -1.15101 0)
(4.09263 -1.15098 0)
(4.09256 -1.15092 0)
(4.09245 -1.15089 0)
(4.09242 -1.15085 0)
(4.09234 -1.15079 0)
(4.09224 -1.15076 0)
(4.09221 -1.15076 0)
(4.09215 -1.15076 0)
(4.09207 -1.15075 0)
(4.09177 -1.15069 0)
(4.09158 -1.15064 0)
(4.09151 -1.15061 0)
(4.09146 -1.15052 0)
(4.09139 -1.15042 0)
(4.09125 -1.15035 0)
(4.09116 -1.15028 0)
(4.09119 -1.15023 0)
(4.09109 -1.15018 0)
(4.09099 -1.15017 0)
(4.09082 -1.15017 0)
(4.09069 -1.15021 0)
(4.09051 -1.15023 0)
(4.09022 -1.15023 0)
(4.08985 -1.15014 0)
(4.08971 -1.1501 0)
(4.08965 -1.15009 0)
(4.0895 -1.15002 0)
(4.08942 -1.14985 0)
(4.08933 -1.14972 0)
(4.08926 -1.1497 0)
(4.0892 -1.14968 0)
(4.08913 -1.14965 0)
(4.08878 -1.14981 0)
(4.08852 -1.14991 0)
(4.08848 -1.14992 0)
(4.08849 -1.14991 0)
(4.08863 -1.14984 0)
(4.08873 -1.14973 0)
(4.08886 -1.1496 0)
(4.08895 -1.14961 0)
(4.08277 -1.11833 0)
(4.07303 -1.04458 0)
(4.03692 -0.813281 0)
(4.03943 -0.65597 0)
(3.9821 -0.306384 0)
(4.0095 -0.258945 0)
(3.9485 -0.0174088 0)
(3.94742 0.0117341 0)
(3.91876 0.0920677 0)
(3.91082 0.123253 0)
(3.89709 0.102009 0)
(3.89646 0.065356 0)
(3.89334 0.0430219 0)
(3.88999 0.0310814 0)
(3.89064 0.028559 0)
(3.89188 0.0323094 0)
(3.89691 0.0517401 0)
(3.89693 0.0611837 0)
(3.89517 0.0594233 0)
(3.89093 0.0473052 0)
(3.88979 0.0402402 0)
(3.88803 0.0311422 0)
(3.88883 0.0332554 0)
(3.89229 0.0421846 0)
(3.89405 0.0501625 0)
(3.89415 0.0496554 0)
(3.89296 0.04592 0)
(3.89204 0.040909 0)
(3.89251 0.0431524 0)
(3.89333 0.0461699 0)
(3.89526 0.0490059 0)
(3.89473 0.0471724 0)
(3.89435 0.0443683 0)
(3.89437 0.0441384 0)
(3.89497 0.0455089 0)
(3.89601 0.0459733 0)
(3.89584 0.044447 0)
(3.89531 0.0416297 0)
(3.89571 0.0412843 0)
(3.89543 0.0417981 0)
(4.09251 -1.1506 0)
(4.09247 -1.15058 0)
(4.09232 -1.15068 0)
(4.09223 -1.15077 0)
(4.09218 -1.15083 0)
(4.09213 -1.15086 0)
(4.0921 -1.15087 0)
(4.09208 -1.15086 0)
(4.09205 -1.15085 0)
(4.09199 -1.15087 0)
(4.09199 -1.15099 0)
(4.09202 -1.15105 0)
(4.09203 -1.15106 0)
(4.09205 -1.15107 0)
(4.09207 -1.1511 0)
(4.09208 -1.15111 0)
(4.09211 -1.15109 0)
(4.09211 -1.15101 0)
(4.0921 -1.15095 0)
(4.0921 -1.15092 0)
(4.09211 -1.15085 0)
(4.09207 -1.15078 0)
(4.09201 -1.15075 0)
(4.09191 -1.15071 0)
(4.09181 -1.15064 0)
(4.09168 -1.15062 0)
(4.09158 -1.15065 0)
(4.09149 -1.15066 0)
(4.0913 -1.15061 0)
(4.09097 -1.15048 0)
(4.09089 -1.15046 0)
(4.09081 -1.15044 0)
(4.09075 -1.15028 0)
(4.09069 -1.15007 0)
(4.09061 -1.15003 0)
(4.0906 -1.14998 0)
(4.09055 -1.14991 0)
(4.0904 -1.14988 0)
(4.09031 -1.14988 0)
(4.09013 -1.14994 0)
(4.08999 -1.15001 0)
(4.08977 -1.15005 0)
(4.08933 -1.15007 0)
(4.08895 -1.15 0)
(4.08886 -1.14999 0)
(4.08877 -1.14992 0)
(4.08878 -1.14988 0)
(4.08882 -1.14985 0)
(4.08891 -1.14976 0)
(4.08893 -1.14971 0)
(4.08895 -1.14963 0)
(4.08895 -1.14957 0)
(4.08874 -1.14973 0)
(4.08855 -1.14999 0)
(4.08856 -1.15003 0)
(4.0887 -1.1501 0)
(4.08877 -1.15014 0)
(4.08887 -1.15011 0)
(4.08895 -1.15002 0)
(4.08907 -1.14984 0)
(4.08917 -1.14978 0)
(4.0893 -1.14989 0)
(4.08945 -1.14989 0)
(4.0895 -1.15042 0)
(4.08094 -1.10875 0)
(4.06949 -1.01135 0)
(4.03619 -0.772232 0)
(4.02846 -0.612818 0)
(3.98237 -0.32085 0)
(3.99481 -0.238548 0)
(3.94649 -0.103405 0)
(3.95671 -0.0645765 0)
(3.93013 -0.0123392 0)
(3.9205 0.0196184 0)
(3.91516 0.039148 0)
(3.89594 0.0578521 0)
(3.89594 0.0731947 0)
(3.88914 0.0634907 0)
(3.88648 0.0463019 0)
(3.88245 0.0201902 0)
(3.88344 0.0195851 0)
(3.88592 0.0270642 0)
(3.89079 0.0422043 0)
(3.89367 0.0541592 0)
(3.89336 0.052779 0)
(3.89126 0.0461137 0)
(3.88953 0.0382463 0)
(3.8901 0.0406373 0)
(3.89134 0.0451636 0)
(3.89301 0.0498421 0)
(3.8927 0.0479303 0)
(3.89178 0.0436789 0)
(3.89188 0.0421915 0)
(3.89255 0.0448287 0)
(3.89355 0.0467947 0)
(3.89353 0.0454705 0)
(3.89327 0.0430054 0)
(3.89316 0.0418991 0)
(3.89335 0.0421706 0)
(3.89365 0.0416294 0)
(4.09163 -1.15064 0)
(4.09144 -1.15065 0)
(4.09139 -1.15065 0)
(4.09134 -1.15063 0)
(4.0913 -1.15067 0)
(4.09128 -1.15074 0)
(4.09123 -1.15078 0)
(4.09118 -1.15079 0)
(4.09116 -1.15081 0)
(4.09113 -1.15084 0)
(4.09109 -1.15089 0)
(4.09106 -1.1509 0)
(4.09103 -1.1509 0)
(4.091 -1.15091 0)
(4.09096 -1.15093 0)
(4.09089 -1.15093 0)
(4.09092 -1.15084 0)
(4.09095 -1.15072 0)
(4.09089 -1.15065 0)
(4.09086 -1.15062 0)
(4.09084 -1.15061 0)
(4.09084 -1.15061 0)
(4.09087 -1.1506 0)
(4.09072 -1.15052 0)
(4.0906 -1.15048 0)
(4.09055 -1.15048 0)
(4.09047 -1.15051 0)
(4.09038 -1.15054 0)
(4.09025 -1.15043 0)
(4.08997 -1.15031 0)
(4.08989 -1.15031 0)
(4.08977 -1.15027 0)
(4.08981 -1.15005 0)
(4.08982 -1.14993 0)
(4.08981 -1.14993 0)
(4.08983 -1.14985 0)
(4.0898 -1.14972 0)
(4.08969 -1.14967 0)
(4.08957 -1.14972 0)
(4.08946 -1.14981 0)
(4.08933 -1.1498 0)
(4.08914 -1.14984 0)
(4.08863 -1.14991 0)
(4.08842 -1.1499 0)
(4.08831 -1.14994 0)
(4.08822 -1.1499 0)
(4.08836 -1.14987 0)
(4.08848 -1.14988 0)
(4.08861 -1.14988 0)
(4.0887 -1.14977 0)
(4.08881 -1.14962 0)
(4.08894 -1.14956 0)
(4.08901 -1.14963 0)
(4.08902 -1.14984 0)
(4.08914 -1.15003 0)
(4.08923 -1.15015 0)
(4.08935 -1.15027 0)
(4.08949 -1.15031 0)
(4.08952 -1.15022 0)
(4.08955 -1.15016 0)
(4.08959 -1.15009 0)
(4.08966 -1.15016 0)
(4.08965 -1.15026 0)
(4.08974 -1.15033 0)
(4.08988 -1.15057 0)
(4.09003 -1.15091 0)
(4.0901 -1.1512 0)
(4.08969 -1.14803 0)
(4.07415 -1.06544 0)
(4.05991 -0.909912 0)
(3.99469 -0.495017 0)
(4.02978 -0.395008 0)
(3.95429 -0.0473697 0)
(3.97426 -0.018014 0)
(3.92458 0.121768 0)
(3.90647 0.121809 0)
(3.8926 0.084272 0)
(3.89103 0.0508561 0)
(3.88652 0.029383 0)
(3.88668 0.0262236 0)
(3.8879 0.026156 0)
(3.89446 0.0468029 0)
(3.89495 0.0565742 0)
(3.8938 0.0555052 0)
(3.89101 0.0478489 0)
(3.88872 0.0404055 0)
(3.88883 0.0400721 0)
(3.89109 0.046358 0)
(3.8929 0.0525603 0)
(3.89267 0.0506708 0)
(3.89128 0.0461632 0)
(3.89039 0.0431081 0)
(3.89082 0.0442032 0)
(3.8922 0.0474053 0)
(3.89221 0.0469616 0)
(3.89155 0.0440045 0)
(3.8909 0.0409434 0)
(3.89111 0.0413271 0)
(3.89155 0.0420923 0)
(3.89152 0.0410977 0)
(4.09058 -1.15033 0)
(4.09059 -1.15029 0)
(4.09055 -1.15022 0)
(4.09049 -1.15016 0)
(4.09044 -1.15021 0)
(4.09044 -1.15031 0)
(4.09039 -1.15036 0)
(4.09031 -1.15044 0)
(4.09031 -1.15048 0)
(4.09026 -1.15051 0)
(4.09018 -1.15053 0)
(4.09012 -1.15052 0)
(4.09007 -1.15042 0)
(4.08999 -1.15035 0)
(4.08994 -1.1504 0)
(4.08999 -1.15045 0)
(4.09011 -1.15042 0)
(4.09012 -1.15041 0)
(4.09012 -1.15041 0)
(4.09009 -1.15042 0)
(4.09004 -1.15046 0)
(4.08995 -1.15039 0)
(4.08981 -1.15029 0)
(4.08968 -1.15025 0)
(4.08959 -1.1502 0)
(4.0895 -1.15017 0)
(4.08932 -1.15024 0)
(4.08922 -1.15031 0)
(4.08911 -1.15028 0)
(4.08896 -1.15017 0)
(4.08891 -1.15015 0)
(4.08884 -1.15008 0)
(4.08882 -1.14994 0)
(4.08884 -1.14986 0)
(4.08884 -1.1498 0)
(4.08882 -1.14977 0)
(4.08886 -1.14962 0)
(4.08885 -1.14959 0)
(4.0888 -1.14964 0)
(4.08876 -1.14968 0)
(4.08861 -1.14973 0)
(4.08842 -1.14966 0)
(4.08824 -1.14965 0)
(4.08807 -1.14986 0)
(4.08803 -1.14996 0)
(4.08803 -1.14998 0)
(4.08819 -1.14994 0)
(4.08842 -1.14999 0)
(4.08856 -1.15006 0)
(4.08873 -1.14995 0)
(4.08886 -1.14964 0)
(4.08909 -1.14946 0)
(4.08929 -1.14946 0)
(4.08945 -1.14961 0)
(4.08965 -1.14982 0)
(4.08976 -1.15002 0)
(4.08987 -1.15023 0)
(4.09003 -1.15042 0)
(4.09009 -1.15036 0)
(4.08999 -1.15025 0)
(4.08995 -1.15023 0)
(4.08985 -1.15031 0)
(4.08987 -1.15048 0)
(4.08992 -1.15055 0)
(4.0901 -1.15061 0)
(4.09028 -1.15083 0)
(4.09039 -1.1511 0)
(4.09048 -1.15118 0)
(4.09096 -1.151 0)
(4.09155 -1.15056 0)
(4.09087 -1.14711 0)
(4.08407 -1.0982 0)
(4.05155 -0.892784 0)
(4.04179 -0.68254 0)
(3.98818 -0.326782 0)
(4.01239 -0.250753 0)
(3.94655 -0.0864665 0)
(3.95303 -0.0543663 0)
(3.9241 -0.00573874 0)
(3.91817 0.0251838 0)
(3.9016 0.0461197 0)
(3.8987 0.065603 0)
(3.89459 0.0611028 0)
(3.88907 0.0462224 0)
(3.88768 0.0290818 0)
(3.88724 0.0319974 0)
(3.88982 0.0420776 0)
(3.89271 0.0511565 0)
(3.89287 0.0514597 0)
(3.89136 0.0452679 0)
(3.88947 0.0392283 0)
(3.88992 0.0414627 0)
(3.89103 0.046987 0)
(3.89174 0.0483219 0)
(3.89106 0.0453632 0)
(3.88978 0.0416934 0)
(3.88986 0.0413907 0)
(3.89018 0.0425513 0)
(3.89055 0.0422197 0)
(3.88985 0.0399407 0)
(4.08955 -1.14977 0)
(4.08954 -1.14971 0)
(4.08948 -1.14961 0)
(4.08941 -1.14954 0)
(4.08936 -1.14957 0)
(4.08943 -1.14973 0)
(4.0894 -1.14983 0)
(4.08935 -1.14989 0)
(4.08933 -1.14992 0)
(4.08926 -1.14997 0)
(4.08922 -1.15 0)
(4.08921 -1.14999 0)
(4.08927 -1.14989 0)
(4.08936 -1.14982 0)
(4.0894 -1.14991 0)
(4.08939 -1.14995 0)
(4.08931 -1.15001 0)
(4.0892 -1.15001 0)
(4.08905 -1.15005 0)
(4.08899 -1.15011 0)
(4.08891 -1.15013 0)
(4.08883 -1.15005 0)
(4.08879 -1.14996 0)
(4.08871 -1.14993 0)
(4.0886 -1.14993 0)
(4.08852 -1.14991 0)
(4.0884 -1.14993 0)
(4.08826 -1.14992 0)
(4.0882 -1.15 0)
(4.08818 -1.15009 0)
(4.0882 -1.15008 0)
(4.08831 -1.14997 0)
(4.08836 -1.14993 0)
(4.08851 -1.14989 0)
(4.08869 -1.14977 0)
(4.08876 -1.14968 0)
(4.0889 -1.14967 0)
(4.08898 -1.14959 0)
(4.08906 -1.14952 0)
(4.08909 -1.1495 0)
(4.08902 -1.14952 0)
(4.08884 -1.14952 0)
(4.08879 -1.14951 0)
(4.08876 -1.14966 0)
(4.08873 -1.14983 0)
(4.08874 -1.14997 0)
(4.08893 -1.15008 0)
(4.089 -1.1501 0)
(4.08907 -1.15014 0)
(4.08917 -1.1501 0)
(4.08917 -1.1498 0)
(4.0893 -1.14951 0)
(4.08946 -1.14941 0)
(4.0896 -1.1495 0)
(4.08978 -1.14967 0)
(4.08993 -1.1499 0)
(4.09012 -1.15017 0)
(4.09043 -1.15047 0)
(4.0906 -1.15065 0)
(4.0902 -1.15055 0)
(4.09011 -1.15054 0)
(4.08994 -1.15061 0)
(4.08994 -1.15079 0)
(4.09016 -1.15081 0)
(4.09023 -1.15075 0)
(4.09037 -1.15079 0)
(4.09051 -1.151 0)
(4.0907 -1.15109 0)
(4.09159 -1.15052 0)
(4.09214 -1.14987 0)
(4.09179 -1.14982 0)
(4.09159 -1.14987 0)
(4.09165 -1.14967 0)
(4.09106 -1.15087 0)
(4.07488 -1.07486 0)
(4.06282 -0.87544 0)
(3.99033 -0.423522 0)
(4.02524 -0.298407 0)
(3.95051 0.0120405 0)
(3.94244 0.0739565 0)
(3.92102 0.147464 0)
(3.89566 0.0912819 0)
(3.89107 0.0557904 0)
(3.89043 0.0387851 0)
(3.8905 0.0350365 0)
(3.89369 0.0434476 0)
(3.89633 0.0609906 0)
(3.89538 0.0587709 0)
(3.89252 0.0495397 0)
(3.8893 0.0399903 0)
(3.88923 0.039976 0)
(3.891 0.0465329 0)
(3.89176 0.0525956 0)
(3.89088 0.0490962 0)
(3.8897 0.0437438 0)
(3.88853 0.0398299 0)
(3.88923 0.0415528 0)
(3.88974 0.0434952 0)
(3.88944 0.0424572 0)
(3.88836 0.0392316 0)
(4.08897 -1.14923 0)
(4.089 -1.14919 0)
(4.089 -1.1491 0)
(4.08898 -1.14903 0)
(4.08897 -1.14901 0)
(4.08901 -1.14914 0)
(4.08902 -1.14926 0)
(4.08899 -1.14931 0)
(4.08898 -1.14933 0)
(4.08892 -1.14942 0)
(4.08885 -1.1495 0)
(4.08887 -1.14948 0)
(4.08905 -1.14932 0)
(4.08907 -1.14917 0)
(4.08902 -1.14912 0)
(4.08896 -1.14913 0)
(4.08894 -1.14915 0)
(4.08887 -1.14923 0)
(4.08878 -1.14926 0)
(4.08869 -1.14927 0)
(4.0884 -1.14936 0)
(4.08823 -1.14938 0)
(4.0881 -1.14944 0)
(4.08806 -1.14948 0)
(4.08803 -1.14953 0)
(4.08806 -1.14952 0)
(4.08815 -1.14949 0)
(4.08817 -1.14963 0)
(4.0882 -1.14986 0)
(4.08827 -1.14997 0)
(4.08835 -1.14999 0)
(4.08844 -1.14998 0)
(4.08849 -1.14997 0)
(4.08856 -1.14995 0)
(4.08876 -1.14983 0)
(4.08891 -1.14968 0)
(4.089 -1.14966 0)
(4.08911 -1.14967 0)
(4.08921 -1.14957 0)
(4.08931 -1.1494 0)
(4.08939 -1.14929 0)
(4.08947 -1.14929 0)
(4.08952 -1.14942 0)
(4.08954 -1.14948 0)
(4.08955 -1.14958 0)
(4.08952 -1.14974 0)
(4.08967 -1.15 0)
(4.0898 -1.15007 0)
(4.08984 -1.15012 0)
(4.0899 -1.15012 0)
(4.0897 -1.14996 0)
(4.08966 -1.14972 0)
(4.08957 -1.14946 0)
(4.08967 -1.14946 0)
(4.08983 -1.14958 0)
(4.08995 -1.14986 0)
(4.09024 -1.15028 0)
(4.09072 -1.15069 0)
(4.09116 -1.15097 0)
(4.09044 -1.15082 0)
(4.09025 -1.15081 0)
(4.09003 -1.15093 0)
(4.09004 -1.15115 0)
(4.09029 -1.15102 0)
(4.09047 -1.15086 0)
(4.0908 -1.15059 0)
(4.09089 -1.15059 0)
(4.09136 -1.15066 0)
(4.09242 -1.15015 0)
(4.09231 -1.14988 0)
(4.09165 -1.14997 0)
(4.09123 -1.1502 0)
(4.09069 -1.15008 0)
(4.08946 -1.15087 0)
(4.08894 -1.1513 0)
(4.08813 -1.15197 0)
(4.08453 -1.13846 0)
(4.07296 -1.04118 0)
(4.03633 -0.762072 0)
(4.02359 -0.515367 0)
(3.98009 -0.201677 0)
(3.99866 -0.1297 0)
(3.93564 -0.0164234 0)
(3.91936 0.0107253 0)
(3.91507 0.0323808 0)
(3.89736 0.0589825 0)
(3.89589 0.0606633 0)
(3.88782 0.0485572 0)
(3.88597 0.0310731 0)
(3.8859 0.0335513 0)
(3.88878 0.0425111 0)
(3.89142 0.051798 0)
(3.89107 0.0511396 0)
(3.88837 0.043297 0)
(3.88733 0.0381916 0)
(3.8879 0.0397245 0)
(3.8887 0.0437046 0)
(3.88856 0.0438161 0)
(3.88763 0.0402292 0)
(3.88705 0.0372408 0)
(4.08893 -1.14924 0)
(4.08896 -1.14923 0)
(4.08899 -1.14916 0)
(4.08901 -1.14904 0)
(4.08903 -1.149 0)
(4.08905 -1.14901 0)
(4.08913 -1.14908 0)
(4.08917 -1.14912 0)
(4.08918 -1.14915 0)
(4.08919 -1.1492 0)
(4.08921 -1.14924 0)
(4.08928 -1.14918 0)
(4.08932 -1.14909 0)
(4.08936 -1.14905 0)
(4.08938 -1.14893 0)
(4.08935 -1.14887 0)
(4.08932 -1.14884 0)
(4.0893 -1.14881 0)
(4.08918 -1.14887 0)
(4.08883 -1.14901 0)
(4.08875 -1.14905 0)
(4.08866 -1.14911 0)
(4.08862 -1.14925 0)
(4.08862 -1.14934 0)
(4.08858 -1.14949 0)
(4.08856 -1.14961 0)
(4.0886 -1.14965 0)
(4.08856 -1.14977 0)
(4.08849 -1.14984 0)
(4.08841 -1.1499 0)
(4.08848 -1.15001 0)
(4.08854 -1.15005 0)
(4.08858 -1.15006 0)
(4.08858 -1.15004 0)
(4.08882 -1.14984 0)
(4.08899 -1.14971 0)
(4.08905 -1.14973 0)
(4.08912 -1.14991 0)
(4.0893 -1.14998 0)
(4.08938 -1.14959 0)
(4.08949 -1.14932 0)
(4.08963 -1.14927 0)
(4.08981 -1.14934 0)
(4.08988 -1.14939 0)
(4.08993 -1.14947 0)
(4.08996 -1.14966 0)
(4.09002 -1.15007 0)
(4.09031 -1.15031 0)
(4.09042 -1.15033 0)
(4.09052 -1.15033 0)
(4.09052 -1.15015 0)
(4.09009 -1.14989 0)
(4.08984 -1.14967 0)
(4.0895 -1.14952 0)
(4.08973 -1.1497 0)
(4.0899 -1.15005 0)
(4.09027 -1.15074 0)
(4.09096 -1.15121 0)
(4.09152 -1.15133 0)
(4.09069 -1.15096 0)
(4.0904 -1.15093 0)
(4.09019 -1.15111 0)
(4.09012 -1.15155 0)
(4.09082 -1.1517 0)
(4.09151 -1.15101 0)
(4.09157 -1.15014 0)
(4.09139 -1.14995 0)
(4.09169 -1.15007 0)
(4.09205 -1.15005 0)
(4.09196 -1.14994 0)
(4.09104 -1.15022 0)
(4.0898 -1.15093 0)
(4.08909 -1.15087 0)
(4.08854 -1.15136 0)
(4.08831 -1.15213 0)
(4.08692 -1.15227 0)
(4.08627 -1.15185 0)
(4.08528 -1.15217 0)
(4.0851 -1.15144 0)