/*--------------------------------*- C++ -*----------------------------------*\
  =========                 |
  \\      /  F ield         | OpenFOAM: The Open Source CFD Toolbox
   \\    /   O peration     | Website:  https://openfoam.org
    \\  /    A nd           | Version:  7
     \\/     M anipulation  |
\*---------------------------------------------------------------------------*/
FoamFile
{
    version     2.0;
    format      ascii;
    class       volScalarField;
    location    "8.5";
    object      p;
}
// * * * * * * * * * * * * * * * * * * * * * * * * * * * * * * * * * * * * * //

dimensions      [1 -1 -2 0 0 0 0];

internalField   nonuniform List<scalar> 
90000
(
0.0676794
0.107282
0.152728
0.177478
0.199724
0.238386
0.262994
0.276157
0.3043
0.338881
0.364487
0.39677
0.436059
0.475946
0.516699
0.561635
0.607221
0.64853
0.693965
0.731401
0.767581
0.800374
0.818296
0.835574
0.838665
0.839638
0.835608
0.825337
0.81017
0.808563
0.800238
0.79239
0.789007
0.784448
0.783987
0.786024
0.784444
0.786234
0.788953
0.792009
0.798486
0.796114
0.79023
0.789977
0.791741
0.787757
0.784579
0.782653
0.783524
0.783016
0.781804
0.780191
0.778462
0.77643
0.776203
0.778736
0.782864
0.78681
0.792749
0.800002
0.803751
0.807306
0.811511
0.813278
0.813267
0.812486
0.810301
0.806019
0.800662
0.795791
0.79131
0.790414
0.791459
0.793234
0.796549
0.797711
0.798422
0.798412
0.796941
0.796273
0.798205
0.803862
0.810893
0.817435
0.825549
0.832115
0.842299
0.851393
0.866717
0.872866
0.882437
0.886495
0.890689
0.901456
0.911119
0.914842
0.922639
0.933524
0.941414
0.953288
0.0334093
0.0333889
0.033366
0.0333434
0.0333227
0.0333057
0.0332894
0.0332761
0.0332613
0.0332601
0.0332257
0.0342437
0.0369762
0.0427778
0.0518237
0.0651224
0.0841309
0.10904
0.140657
0.183653
0.232083
0.293557
0.36432
0.438239
0.517799
0.59792
0.672058
0.740405
0.783331
0.822826
0.839593
0.85461
0.845087
0.83295
0.818192
0.802888
0.792782
0.781912
0.779009
0.780184
0.776101
0.77167
0.771064
0.772759
0.774547
0.77741
0.781607
0.787294
0.792356
0.795021
0.79636
0.796652
0.798382
0.799384
0.802288
0.807517
0.812693
0.815371
0.817945
0.818892
0.812893
0.807157
0.803275
0.799604
0.79715
0.795785
0.794994
0.793959
0.793475
0.792559
0.792601
0.793703
0.79816
0.800926
0.802746
0.801972
0.799861
0.795697
0.793067
0.795594
0.803565
0.813404
0.820429
0.826038
0.83166
0.838971
0.849423
0.862365
0.873557
0.879356
0.886562
0.889356
0.897052
0.909968
0.913623
0.91844
0.927579
0.936597
0.943056
0.954609
0.0334052
0.0334077
0.0334105
0.0334115
0.0334164
0.0334237
0.0334326
0.0334407
0.0334484
0.0334578
0.0334651
0.0334752
0.0334566
0.0334337
0.0334148
0.0333995
0.0333913
0.0333863
0.0333876
0.0333866
0.033394
0.0333802
0.0348781
0.0400415
0.0546887
0.0771651
0.116213
0.165562
0.232943
0.307249
0.394554
0.48144
0.562902
0.63574
0.702929
0.752168
0.803949
0.827914
0.852082
0.8588
0.860366
0.847328
0.839076
0.826992
0.809851
0.789827
0.771535
0.753813
0.741556
0.739001
0.74429
0.76212
0.786601
0.807123
0.818116
0.820333
0.812436
0.8017
0.791103
0.787544
0.789947
0.795545
0.800052
0.803099
0.804623
0.804208
0.802598
0.801427
0.802499
0.803216
0.804859
0.804537
0.806402
0.803638
0.797016
0.792104
0.790619
0.791274
0.795599
0.804161
0.813165
0.820831
0.826781
0.832623
0.839085
0.848237
0.860153
0.8742
0.879701
0.885193
0.888936
0.893059
0.905008
0.913575
0.916771
0.923848
0.93265
0.939882
0.94572
0.955452
0.0334324
0.0334404
0.0334457
0.0334472
0.03345
0.0334554
0.0334621
0.033466
0.0334687
0.0334719
0.033474
0.033472
0.0334687
0.033467
0.0334657
0.0334645
0.0334633
0.0334626
0.0334649
0.0334702
0.0334709
0.0334685
0.0334639
0.0334615
0.0334588
0.0334535
0.0334478
0.0334415
0.0334385
0.0334284
0.0369929
0.0479671
0.0747057
0.113918
0.170463
0.244082
0.329364
0.428252
0.521326
0.607047
0.694183
0.754492
0.811746
0.835033
0.847288
0.838077
0.82677
0.812804
0.793828
0.787084
0.779845
0.7761
0.777609
0.78448
0.7909
0.797861
0.802989
0.806859
0.810013
0.80836
0.809977
0.810232
0.810946
0.811294
0.807295
0.79952
0.79298
0.790896
0.792285
0.794242
0.794802
0.794263
0.792653
0.792551
0.79276
0.795765
0.799862
0.806337
0.815588
0.822006
0.826945
0.830827
0.835221
0.840545
0.846758
0.857355
0.870195
0.881289
0.884162
0.888419
0.891587
0.900951
0.912916
0.916698
0.921916
0.930273
0.938434
0.944011
0.94702
0.955583
0.033529
0.0335234
0.0335162
0.0335077
0.0334994
0.033494
0.0334906
0.033485
0.0334777
0.0334732
0.0334699
0.0334647
0.0334604
0.0334597
0.0334596
0.0334582
0.0334547
0.0334497
0.0334474
0.0334504
0.0334505
0.0334492
0.0334506
0.0334522
0.0334484
0.0334417
0.0334374
0.0334385
0.0334388
0.0334285
0.0334035
0.0333778
0.033367
0.0333848
0.03343
0.0334805
0.0334928
0.0416167
0.0602904
0.104248
0.166251
0.263577
0.370039
0.490641
0.606716
0.703812
0.779593
0.835768
0.84848
0.854479
0.845323
0.829014
0.802399
0.772932
0.741792
0.736607
0.74808
0.774315
0.805798
0.827469
0.835383
0.822491
0.800101
0.784027
0.778603
0.784046
0.794371
0.800844
0.801798
0.798803
0.797665
0.799571
0.80283
0.806667
0.810961
0.815528
0.818503
0.819327
0.81773
0.816437
0.820004
0.827999
0.840289
0.852522
0.862418
0.874209
0.884057
0.889512
0.890014
0.891349
0.897644
0.909944
0.918481
0.920545
0.926385
0.938011
0.945487
0.947341
0.948475
0.955986
0.0334486
0.0334416
0.033436
0.0334312
0.0334274
0.0334234
0.0334198
0.0334155
0.033411
0.0334088
0.0334099
0.0334112
0.0334151
0.0334209
0.0334268
0.0334296
0.033427
0.0334225
0.0334184
0.033417
0.0334189
0.0334225
0.0334294
0.0334259
0.0334165
0.0334086
0.0334096
0.033422
0.0334162
0.0333902
0.0333628
0.0333429
0.0333545
0.0334019
0.0334769
0.0335356
0.0335722
0.0335739
0.0335693
0.0335695
0.0335794
0.0335714
0.0354116
0.0539736
0.0966049
0.180531
0.297966
0.439566
0.568691
0.68587
0.747922
0.796664
0.793707
0.779578
0.773815
0.777898
0.780452
0.780344
0.783989
0.796741
0.80378
0.806148
0.806207
0.801056
0.790475
0.783468
0.789878
0.800801
0.806281
0.80261
0.794831
0.791097
0.795218
0.803653
0.809167
0.810879
0.811287
0.81396
0.819795
0.828059
0.839277
0.852724
0.866903
0.878163
0.886472
0.881974
0.875381
0.876039
0.886408
0.899197
0.91299
0.924243
0.920473
0.920531
0.934833
0.947525
0.952175
0.95196
0.953453
0.959532
0.0333864
0.0333854
0.0333851
0.0333861
0.0333877
0.0333872
0.0333853
0.0333837
0.0333859
0.0333923
0.033397
0.0334031
0.0334141
0.0334239
0.0334285
0.0334315
0.0334312
0.0334275
0.0334251
0.0334201
0.033418
0.0334207
0.0334291
0.0334306
0.0334228
0.03342
0.0334361
0.0334511
0.0334374
0.0334096
0.0333826
0.0333765
0.0334033
0.0334693
0.0335468
0.0335984
0.0336177
0.0336171
0.0336149
0.0336257
0.0336417
0.0336464
0.033637
0.033645
0.033656
0.0336507
0.0336345
0.0432287
0.0862877
0.161911
0.290753
0.441835
0.597638
0.691876
0.785462
0.805955
0.805886
0.800944
0.79118
0.773679
0.754824
0.75948
0.782075
0.806366
0.819244
0.809195
0.792678
0.780038
0.781753
0.791294
0.800869
0.805861
0.804975
0.803095
0.810764
0.82024
0.827351
0.831506
0.839789
0.848174
0.853122
0.855473
0.858444
0.863255
0.870065
0.878751
0.885005
0.893628
0.90614
0.919417
0.921866
0.911296
0.910583
0.926214
0.947071
0.95415
0.952139
0.957317
0.966552
0.970754
0.0333894
0.0333898
0.0333907
0.0333929
0.0333956
0.0333988
0.0334065
0.0334195
0.0334371
0.0334531
0.0334656
0.0334757
0.0334857
0.0334924
0.0334949
0.0334947
0.0334918
0.0334922
0.0334956
0.0334989
0.0335011
0.0335062
0.0335079
0.0335067
0.0335048
0.0335122
0.0335253
0.0335153
0.0334822
0.0334519
0.0334306
0.0334377
0.0334713
0.0335343
0.0335953
0.0336257
0.0336258
0.0336156
0.0336062
0.0336065
0.0336187
0.0336238
0.0336249
0.0336487
0.0336684
0.033667
0.0336583
0.0336305
0.0335966
0.0335868
0.0335914
0.0448815
0.096833
0.209451
0.363325
0.505383
0.628629
0.705693
0.745275
0.746168
0.747232
0.763244
0.778303
0.798117
0.818399
0.820077
0.810341
0.797954
0.784648
0.782454
0.793186
0.808633
0.816089
0.81236
0.803567
0.805536
0.820478
0.835782
0.8425
0.850793
0.859923
0.864513
0.868869
0.87827
0.888142
0.895893
0.900635
0.900599
0.903813
0.90813
0.912016
0.918212
0.929812
0.947697
0.942174
0.937992
0.950086
0.964831
0.974454
0.983022
0.0334262
0.0334298
0.0334332
0.0334394
0.0334513
0.0334704
0.0334912
0.0335159
0.0335481
0.0335657
0.0335696
0.0335705
0.0335732
0.0335783
0.0335852
0.0335904
0.0335941
0.033598
0.0335997
0.0335976
0.0335946
0.0335915
0.0335863
0.0335801
0.0335792
0.0335825
0.0335736
0.0335532
0.0335143
0.0334871
0.0334761
0.0334891
0.033521
0.0335672
0.0336054
0.0336284
0.0336247
0.0336021
0.033584
0.0335759
0.0335851
0.0335973
0.0336136
0.0336471
0.0336621
0.0336601
0.0336497
0.0336197
0.0335822
0.0335753
0.0335898
0.0336098
0.0336014
0.0335104
0.0354774
0.0711486
0.149623
0.28701
0.45361
0.612079
0.701405
0.770794
0.789757
0.786136
0.797894
0.804985
0.79778
0.801016
0.800448
0.795957
0.795936
0.800252
0.808527
0.816949
0.820383
0.820849
0.826136
0.841722
0.855029
0.856218
0.856335
0.863748
0.870773
0.876159
0.888635
0.895638
0.899622
0.906344
0.91135
0.914234
0.924845
0.934969
0.939002
0.93775
0.943196
0.95162
0.9603
0.961258
0.961723
0.97201
0.0335279
0.0335294
0.0335363
0.0335517
0.0335903
0.0336358
0.0336498
0.0336506
0.0336472
0.033643
0.0336433
0.0336462
0.0336497
0.0336545
0.0336574
0.0336603
0.0336651
0.0336651
0.0336596
0.0336527
0.0336454
0.0336376
0.0336289
0.0336221
0.0336176
0.0336086
0.0335987
0.0335836
0.033562
0.0335441
0.0335362
0.0335436
0.033562
0.0335851
0.0336046
0.0336213
0.0336171
0.0335802
0.0335472
0.0335343
0.0335336
0.0335469
0.0335855
0.0336174
0.0336147
0.0336025
0.0335795
0.0335381
0.0334923
0.033492
0.0335457
0.0335606
0.0334972
0.0333278
0.0332008
0.0331621
0.0330982
0.032888
0.0521138
0.127026
0.268486
0.439238
0.597108
0.666341
0.739246
0.757598
0.775072
0.806986
0.81864
0.812121
0.806633
0.803882
0.804355
0.809876
0.819803
0.828192
0.832714
0.8395
0.854965
0.865312
0.869728
0.87209
0.878578
0.88388
0.883261
0.891162
0.900739
0.908712
0.921172
0.924078
0.925968
0.934482
0.943391
0.948163
0.949191
0.952291
0.955662
0.961355
0.970965
0.980066
0.0335221
0.0335378
0.0335601
0.0335969
0.0336404
0.0336662
0.0336731
0.033672
0.0336687
0.0336666
0.0336681
0.0336727
0.0336756
0.0336749
0.0336741
0.0336778
0.0336791
0.0336755
0.033671
0.0336648
0.0336575
0.0336488
0.0336369
0.0336282
0.033624
0.0336191
0.033614
0.0336109
0.0336076
0.033601
0.0335918
0.033587
0.0335883
0.0335921
0.0335981
0.0336062
0.0335982
0.0335499
0.0334947
0.0334768
0.0334745
0.0334809
0.0335136
0.0335204
0.0335117
0.033493
0.033465
0.033413
0.0333152
0.0332144
0.0331683
0.0331095
0.0329444
0.0328378
0.032852
0.0328578
0.0328302
0.0327549
0.0326449
0.0325509
0.0325319
0.0481241
0.123093
0.264404
0.442248
0.612798
0.725543
0.802734
0.814758
0.817814
0.808876
0.805744
0.813418
0.821254
0.834154
0.843137
0.844548
0.846802
0.851622
0.860421
0.8698
0.874268
0.877451
0.887189
0.892378
0.894989
0.906647
0.914215
0.90905
0.916532
0.928973
0.941134
0.946365
0.950128
0.952869
0.957183
0.962636
0.969183
0.970437
0.977814
0.0335095
0.0335273
0.0335538
0.033596
0.033643
0.0336669
0.0336721
0.0336706
0.033667
0.0336648
0.0336647
0.0336653
0.0336659
0.0336655
0.0336649
0.0336648
0.033662
0.0336578
0.0336534
0.0336489
0.0336439
0.0336355
0.0336255
0.0336221
0.0336243
0.0336212
0.0336174
0.0336242
0.0336342
0.0336348
0.0336316
0.033624
0.0336046
0.0335889
0.0335869
0.0335849
0.0335597
0.0334893
0.0334296
0.0334187
0.0334202
0.0334268
0.0334242
0.0334042
0.0333667
0.0333271
0.0332799
0.0332118
0.0331118
0.0329784
0.0328634
0.0327491
0.0326225
0.0325859
0.0325943
0.0326313
0.0326505
0.0326382
0.0325806
0.0325268
0.0325424
0.0326225
0.0328702
0.0331426
0.0494797
0.138267
0.302236
0.505908
0.668243
0.746752
0.786906
0.807251
0.835442
0.832378
0.842048
0.843878
0.847797
0.850517
0.855488
0.865921
0.877831
0.88245
0.883682
0.884678
0.890113
0.896249
0.904341
0.917963
0.921223
0.920881
0.929623
0.9437
0.95135
0.954104
0.957795
0.964285
0.969939
0.969623
0.974397
0.982779
0.0335212
0.0335447
0.0335768
0.0336029
0.0336199
0.0336325
0.0336416
0.033648
0.0336524
0.0336544
0.0336517
0.0336476
0.0336451
0.0336469
0.0336495
0.0336455
0.0336385
0.0336301
0.0336235
0.0336202
0.0336178
0.0336128
0.0336098
0.0336128
0.033614
0.0336084
0.0336059
0.033617
0.0336363
0.0336411
0.0336407
0.0336334
0.0336026
0.0335659
0.0335379
0.0334883
0.0333908
0.0333045
0.0333039
0.0333357
0.0333778
0.0333825
0.0333537
0.0332577
0.0331438
0.033066
0.0330051
0.0329423
0.0328632
0.0327666
0.0326783
0.0325939
0.032523
0.032512
0.0325231
0.0325613
0.0326038
0.0325983
0.0325861
0.0326488
0.0328601
0.0333255
0.033919
0.034586
0.0349181
0.0352017
0.0354899
0.0664186
0.191336
0.402788
0.614124
0.746234
0.808349
0.822532
0.854899
0.845432
0.8586
0.859736
0.861555
0.86745
0.876052
0.879749
0.882595
0.88804
0.897339
0.905201
0.908445
0.911103
0.917009
0.923601
0.932076
0.940267
0.952346
0.954898
0.955323
0.959927
0.964498
0.971413
0.973111
0.975027
0.0335029
0.0335467
0.03359
0.0335939
0.0335864
0.0335783
0.0335779
0.0335897
0.0336091
0.0336151
0.0336084
0.0336001
0.0336005
0.0336037
0.0335898
0.0335545
0.0335198
0.0334925
0.0334852
0.0334868
0.0334964
0.0335249
0.0335502
0.0335512
0.0335357
0.0334903
0.0334813
0.0335142
0.0335669
0.0335732
0.0335691
0.0335533
0.0335166
0.0334543
0.0333646
0.0332486
0.0331468
0.03313
0.0331582
0.0331971
0.033189
0.033148
0.0330485
0.0328877
0.0327791
0.0327553
0.0327388
0.0327103
0.0326556
0.032596
0.0325616
0.0325331
0.0325003
0.0324978
0.0325102
0.032548
0.0326227
0.0327623
0.0330356
0.0335562
0.0342734
0.0351029
0.0355757
0.0359954
0.0363415
0.036634
0.0373472
0.0383078
0.0390693
0.0507757
0.124999
0.298372
0.514366
0.689689
0.782145
0.816667
0.877814
0.863701
0.869805
0.870684
0.875566
0.885328
0.892765
0.898226
0.903486
0.905225
0.900984
0.906617
0.920686
0.932775
0.937323
0.940452
0.945412
0.952385
0.958269
0.963843
0.968071
0.973604
0.975044
0.982954
0.033527
0.0335728
0.0335765
0.0335727
0.0335665
0.0335493
0.033487
0.0334489
0.0334458
0.0334435
0.0334325
0.0334157
0.0334004
0.0333756
0.0333082
0.0332401
0.0332256
0.0332247
0.0332252
0.0332278
0.0332337
0.0332545
0.0332945
0.0333026
0.033287
0.0332089
0.0331792
0.0331992
0.0332613
0.0332721
0.033268
0.0332426
0.0331824
0.0331112
0.0330387
0.0329651
0.0329271
0.0329224
0.0329166
0.0328903
0.0328426
0.0327763
0.0326864
0.032599
0.0325547
0.032563
0.0325832
0.0325898
0.0325726
0.0325451
0.0325368
0.0325239
0.0325206
0.0325408
0.0326257
0.0328437
0.0332422
0.0338941
0.0348262
0.0356538
0.0364845
0.0370877
0.0373064
0.0374425
0.0377303
0.0384242
0.0398198
0.0414439
0.0430633
0.0444506
0.044553
0.0446843
0.0802993
0.212444
0.414756
0.631849
0.761438
0.808942
0.87517
0.884723
0.892075
0.898978
0.892731
0.8901
0.902654
0.912327
0.920291
0.927141
0.933485
0.936014
0.930791
0.929144
0.936636
0.949254
0.961141
0.966611
0.97176
0.978116
0.98248
0.986819
0.0334288
0.0334136
0.0333936
0.0333685
0.0333379
0.0332977
0.033248
0.0332027
0.0331631
0.033116
0.0330644
0.0330285
0.033004
0.0329743
0.0329642
0.032972
0.0330019
0.033025
0.0330253
0.0330189
0.0329972
0.0329775
0.032979
0.0329855
0.03298
0.0329241
0.0328795
0.0328838
0.032887
0.0328788
0.0328772
0.0328725
0.0328488
0.0328047
0.0327565
0.0327229
0.0327091
0.032697
0.0326821
0.0326776
0.0326696
0.0326414
0.0325851
0.0325324
0.0325101
0.0325184
0.0325443
0.0325585
0.0325574
0.032564
0.0325975
0.0326924
0.0329737
0.0334727
0.0341023
0.0348182
0.0355531
0.036238
0.0369955
0.0376546
0.0380512
0.0383592
0.0387445
0.0392337
0.0402088
0.0420451
0.0437273
0.0449772
0.0460099
0.0460687
0.0462976
0.0471084
0.0484206
0.0495711
0.0608579
0.145178
0.309979
0.543543
0.729799
0.793418
0.857757
0.926249
0.911883
0.898563
0.909794
0.91008
0.922109
0.930596
0.936667
0.939383
0.943343
0.948527
0.95394
0.961875
0.962408
0.959057
0.962338
0.968213
0.979235
0.992178
0.0330195
0.0330108
0.033002
0.0329914
0.0329812
0.0329676
0.0329569
0.0329398
0.0329089
0.0328761
0.0328513
0.0328294
0.0328218
0.032821
0.0328272
0.0328787
0.0329273
0.0329258
0.0329089
0.0328686
0.0328154
0.0327843
0.0327811
0.0327814
0.0327784
0.0327326
0.0326481
0.0326385
0.0326293
0.0326124
0.0326183
0.0326476
0.032663
0.0326622
0.0326507
0.0326408
0.0326311
0.0326206
0.0326191
0.0326292
0.0326363
0.0326246
0.0325757
0.0325405
0.0325322
0.0325571
0.0326327
0.0327589
0.0329792
0.0333826
0.0340262
0.0348389
0.0357261
0.0365698
0.0373065
0.0377129
0.0380868
0.0384286
0.038654
0.0390718
0.0394213
0.0400719
0.0413537
0.0429772
0.0445805
0.0457871
0.0467279
0.0473938
0.0477014
0.0481757
0.049054
0.0506311
0.0520519
0.0531596
0.0543675
0.0556596
0.0558937
0.101767
0.23252
0.462288
0.673348
0.793656
0.855584
0.902982
0.935972
0.91772
0.924095
0.92271
0.935194
0.944004
0.949402
0.950304
0.949689
0.95526
0.964046
0.973453
0.980128
0.983917
0.984676
0.986872
0.0327327
0.0327464
0.03277
0.0327831
0.0327892
0.0327931
0.0327962
0.0327978
0.0328017
0.0328123
0.0328345
0.0328541
0.0328587
0.0328561
0.0328506
0.0328611
0.0328773
0.0328717
0.0328406
0.0327798
0.0327198
0.0326851
0.0326818
0.032684
0.0326831
0.0326377
0.0325636
0.0325512
0.0325352
0.0325247
0.0325332
0.0325692
0.0326151
0.0326268
0.0326264
0.0326284
0.0326264
0.032621
0.0326232
0.0326497
0.0327091
0.032826
0.0329699
0.0331739
0.0334581
0.0338766
0.0344181
0.0350974
0.0358578
0.0366821
0.037421
0.038182
0.0388331
0.0391715
0.0394695
0.0396797
0.0399389
0.0403599
0.0407316
0.0414432
0.0428262
0.0445578
0.0458572
0.0470998
0.047993
0.0481787
0.048497
0.0487928
0.0495236
0.0509578
0.052849
0.0548036
0.055907
0.0560058
0.0564665
0.0579923
0.0597566
0.0609873
0.0617295
0.083486
0.169009
0.362379
0.625982
0.777206
0.87283
0.899403
0.959588
0.942277
0.942572
0.932875
0.940832
0.951941
0.963541
0.96822
0.969591
0.971728
0.975831
0.981517
0.986026
0.989614
0.0331178
0.0330804
0.0330515
0.0330327
0.0330211
0.0330198
0.0330204
0.0330248
0.0330427
0.0330693
0.0330741
0.0330628
0.0330274
0.0330221
0.0330171
0.0329819
0.0329498
0.0329175
0.0328469
0.0327663
0.0327195
0.0327201
0.0327298
0.0327323
0.0327307
0.0326735
0.03259
0.0325862
0.0325802
0.0325794
0.0325939
0.0326382
0.0327143
0.0328263
0.0329742
0.0331453
0.0333506
0.0336003
0.0339461
0.0343942
0.0349336
0.0354829
0.0360606
0.0366211
0.0372175
0.0377611
0.0382392
0.0386894
0.0391137
0.039534
0.0399166
0.0403549
0.0407537
0.0410072
0.0413517
0.0420042
0.0428442
0.0438683
0.0452013
0.0464907
0.0476021
0.0487031
0.0492207
0.049657
0.049993
0.0500502
0.0502773
0.0512422
0.0529637
0.0550056
0.0569034
0.0582984
0.0592086
0.0591841
0.0591647
0.0598925
0.0623057
0.0652601
0.0668722
0.0671151
0.0675791
0.070605
0.137153
0.304136
0.546503
0.763462
0.873093
0.903986
0.970732
0.951136
0.951005
0.949875
0.956212
0.960769
0.972267
0.978315
0.97847
0.980615
0.986013
0.993002
0.0327219
0.0326989
0.0326888
0.0326912
0.0326964
0.0327032
0.0327133
0.0327317
0.0327687
0.0328341
0.0328694
0.0328658
0.0328509
0.0328508
0.0328632
0.0328853
0.0328909
0.0328811
0.0328639
0.0328533
0.0328754
0.0329731
0.0331768
0.0332608
0.0333191
0.0334207
0.033625
0.0339115
0.0341624
0.0343597
0.0345498
0.0348261
0.0352239
0.0357191
0.0362104
0.0366914
0.0371404
0.0375858
0.0380357
0.0384849
0.038893
0.0392401
0.0395834
0.0399485
0.0403198
0.0406375
0.0409284
0.0412051
0.041525
0.0418868
0.042349
0.0428872
0.0436433
0.0446953
0.0457583
0.0467861
0.047815
0.0487258
0.0494879
0.0501587
0.0505117
0.0508611
0.0511253
0.0513437
0.0519848
0.0532514
0.0549964
0.056659
0.0581219
0.0591651
0.0599155
0.0606301
0.0613562
0.062161
0.0631318
0.0643463
0.0668969
0.068949
0.0697019
0.0705268
0.0720488
0.0732217
0.0745227
0.0756168
0.104966
0.260204
0.493421
0.725501
0.871026
0.904061
0.971036
0.971234
0.96946
0.959145
0.96357
0.971567
0.98303
0.989823
0.988899
0.990743
0.0331461
0.0332342
0.0333238
0.0334173
0.0335316
0.0336474
0.0337332
0.0338101
0.0339175
0.0340743
0.0342459
0.0344175
0.0346106
0.0347979
0.0349656
0.0351299
0.0353253
0.0355499
0.0357952
0.0360546
0.0363151
0.0365722
0.036813
0.0370493
0.0372979
0.0375386
0.0377812
0.0380308
0.0382889
0.0385568
0.0388456
0.0391404
0.0394403
0.0397367
0.0400264
0.0403149
0.0405955
0.0409
0.0412118
0.0415292
0.0418166
0.0421396
0.0424904
0.042885
0.0432801
0.0437334
0.0442572
0.0448214
0.0455155
0.0462749
0.0471325
0.0479669
0.0488471
0.0496368
0.0504019
0.0509729
0.0513872
0.0517463
0.0520115
0.0523816
0.0525545
0.0528699
0.0536005
0.0549459
0.0566733
0.0586452
0.060227
0.0615608
0.0624744
0.0623878
0.0623291
0.0626803
0.0639653
0.0664935
0.068588
0.0700484
0.0715345
0.0722005
0.0727772
0.0739006
0.0754524
0.0773085
0.0796735
0.0812004
0.081957
0.0828083
0.0991249
0.22451
0.451285
0.700513
0.881844
0.912621
0.971026
0.986021
0.987315
0.975129
0.974469
0.981765
0.991841
1.00014
0.037618
0.0376843
0.037766
0.0378614
0.0379664
0.0380622
0.0381456
0.0382355
0.0383297
0.038443
0.0386081
0.038738
0.0388047
0.0388747
0.0389883
0.0391468
0.0393469
0.03953
0.0396813
0.0398343
0.0399987
0.0401477
0.0402873
0.0404479
0.0406372
0.0408409
0.0410495
0.0412518
0.0414744
0.0417276
0.0420272
0.0423424
0.0426494
0.0429384
0.0432441
0.0435692
0.0439362
0.0443601
0.0448301
0.0453551
0.0459043
0.0465029
0.0471041
0.0477501
0.048375
0.0490079
0.0495966
0.0501899
0.0507048
0.0511982
0.0516346
0.0520446
0.0524037
0.0527018
0.0530577
0.0533896
0.0537181
0.0541537
0.0547864
0.0556824
0.0569558
0.0584033
0.0599146
0.0611591
0.0621962
0.0632268
0.0637727
0.0643914
0.0649791
0.0653052
0.0659125
0.0669043
0.068733
0.0712232
0.073695
0.0745573
0.0746232
0.0754092
0.0768835
0.0783335
0.0797576
0.0825202
0.0844779
0.0852712
0.0863815
0.0883867
0.089948
0.0911695
0.0983769
0.206927
0.429953
0.679882
0.885248
0.919965
0.97966
0.999853
0.998198
0.985619
0.984259
0.996692
0.0413777
0.0414341
0.0415171
0.0416389
0.0417729
0.0419189
0.0420419
0.0421663
0.0422808
0.0423851
0.0426146
0.0428186
0.0428243
0.0428575
0.0429904
0.0432249
0.0434631
0.0436546
0.0438324
0.0440533
0.0442968
0.0445333
0.0447761
0.0450467
0.045342
0.0456449
0.0459477
0.0462555
0.0465937
0.046969
0.0473634
0.0477302
0.0480857
0.0484421
0.048793
0.0491401
0.0495224
0.049923
0.0503302
0.0507178
0.0511235
0.0515256
0.0519244
0.0522852
0.0526476
0.0530245
0.053396
0.0537517
0.0540648
0.0543742
0.0546821
0.055053
0.0553814
0.0558144
0.0563432
0.0571308
0.0581192
0.0593129
0.0605797
0.0619315
0.0633578
0.0643904
0.0652423
0.0659518
0.0660927
0.066206
0.0663909
0.0668628
0.0679131
0.0698674
0.0720752
0.0742348
0.0753846
0.075893
0.0774
0.0783992
0.0786809
0.079366
0.0813287
0.083385
0.0857434
0.0873983
0.0884075
0.0897224
0.0912893
0.0930673
0.0951363
0.0974929
0.0990053
0.0997328
0.102719
0.203562
0.425574
0.678667
0.891015
0.931656
0.990818
1.0072
1.00259
0.99778
0.0469432
0.0471069
0.0472072
0.0472534
0.0472992
0.047388
0.0475467
0.0477452
0.0478764
0.0479686
0.048093
0.0482597
0.0484229
0.0485626
0.0487088
0.0488725
0.0490586
0.0492672
0.0494649
0.0496437
0.0498611
0.0501051
0.050345
0.0505794
0.0508151
0.0510547
0.0513037
0.05158
0.0518601
0.0521136
0.052337
0.0525504
0.0527644
0.0529705
0.053177
0.0533949
0.0536342
0.0538618
0.0540732
0.05428
0.0545139
0.0547447
0.0549918
0.0552597
0.05563
0.0560466
0.0565646
0.057114
0.0577703
0.0584835
0.0593189
0.0602154
0.0612683
0.0622696
0.0632607
0.0641802
0.0650306
0.0657978
0.0664382
0.0669239
0.0674768
0.0679313
0.0683825
0.0691576
0.069584
0.070062
0.0710856
0.0726612
0.0746243
0.0764221
0.0779174
0.0798662
0.0805834
0.0803285
0.0804181
0.0817432
0.0837286
0.0856
0.0871264
0.0895053
0.0913954
0.0919339
0.0929643
0.0947411
0.0967809
0.0985547
0.100892
0.102578
0.103377
0.104879
0.107922
0.110162
0.111401
0.206221
0.423411
0.682173
0.903466
0.943553
1.00411
1.01408
0.0518685
0.0519401
0.0520178
0.0521047
0.0522036
0.0523053
0.0524018
0.0524938
0.0525518
0.0526293
0.0527436
0.0528904
0.053042
0.0531746
0.0533011
0.0534358
0.053579
0.0537382
0.0538947
0.0540445
0.0541993
0.0544014
0.0546047
0.0547918
0.0549933
0.0551955
0.0554028
0.0556193
0.0558435
0.0560773
0.0563256
0.0566066
0.0569298
0.0572981
0.0576934
0.058099
0.0585016
0.0589222
0.0593576
0.0597978
0.0602384
0.0606889
0.0611812
0.0617451
0.0623346
0.0629795
0.0636015
0.0642554
0.0648711
0.0655224
0.0661495
0.0668033
0.0674536
0.0681358
0.0687334
0.0692609
0.0697473
0.0701636
0.0706114
0.0708369
0.0711159
0.0717067
0.0725908
0.0737807
0.0754473
0.0774273
0.0792725
0.0805881
0.0816722
0.0823005
0.0826028
0.0833068
0.0844115
0.085249
0.0860305
0.0873324
0.090189
0.0927453
0.0942436
0.0954811
0.096121
0.0969499
0.0982262
0.100392
0.102595
0.104994
0.106614
0.107596
0.109382
0.111264
0.113591
0.116657
0.117824
0.118058
0.119577
0.21593
0.443866
0.71297
0.916297
0.98305
0.0577857
0.0578712
0.0579623
0.0580671
0.0581902
0.0583151
0.0584166
0.0584971
0.0585787
0.0587483
0.0589539
0.0590982
0.0592025
0.0593122
0.0594473
0.0595996
0.0597543
0.059909
0.0600712
0.0602399
0.0604141
0.060585
0.0607693
0.0609753
0.0611914
0.0614112
0.0616548
0.0619252
0.0622153
0.0625052
0.0628094
0.0631469
0.0635009
0.0638512
0.0642085
0.0645673
0.0649234
0.065285
0.0656836
0.0660955
0.0665278
0.0669853
0.0674882
0.0680248
0.0685508
0.0690262
0.0694706
0.0698719
0.0702567
0.070644
0.0710013
0.071351
0.0716612
0.0721229
0.0726509
0.0732836
0.0740831
0.0750667
0.0761791
0.0774118
0.0786077
0.0798049
0.0809381
0.0820299
0.0831272
0.084129
0.085193
0.0860544
0.0867344
0.0870975
0.0872784
0.0878127
0.0893184
0.0921082
0.0944945
0.0961588
0.0973443
0.0986378
0.0996642
0.100078
0.101089
0.102795
0.105308
0.107454
0.10956
0.111278
0.111908
0.113123
0.115416
0.118596
0.119884
0.121713
0.124516
0.125865
0.127585
0.128944
0.132766
0.241658
0.463016
0.834637
0.0638883
0.0639952
0.0641062
0.0641998
0.0642959
0.0644052
0.0645222
0.0646313
0.0647383
0.0648707
0.0650125
0.0651284
0.0652517
0.065389
0.0655402
0.0657019
0.0658685
0.0660374
0.0662282
0.0664242
0.0666186
0.0668162
0.0670334
0.0672926
0.0675598
0.0678203
0.0680752
0.0683483
0.068609
0.0688665
0.0691369
0.0694283
0.069706
0.0699865
0.070284
0.070593
0.0708968
0.0712299
0.071575
0.0719449
0.0723411
0.0727715
0.0732005
0.0736481
0.074135
0.074669
0.0752686
0.0759329
0.0766553
0.0773888
0.0781497
0.0788812
0.0795894
0.0802517
0.081015
0.0818616
0.0827104
0.0835856
0.0844686
0.0854564
0.0864251
0.0873081
0.0880353
0.088636
0.089124
0.0894422
0.0899026
0.0907548
0.0920301
0.0935004
0.0954018
0.0970099
0.0986486
0.100298
0.102055
0.103191
0.1036
0.10422
0.104986
0.106608
0.108547
0.111302
0.113471
0.115015
0.116248
0.116783
0.118188
0.120144
0.122331
0.125798
0.127886
0.128185
0.12989
0.132604
0.134642
0.136286
0.13848
0.139782
0.146353
0.402341
0.0712923
0.0713821
0.0714751
0.0715714
0.0716718
0.0717795
0.0718987
0.0720285
0.0721684
0.0723111
0.0724494
0.0725779
0.0727275
0.0728909
0.0730602
0.0732186
0.0734053
0.0736227
0.0738398
0.0740398
0.0742287
0.0744234
0.0746514
0.0749177
0.0751897
0.0754599
0.0757323
0.0759732
0.0762353
0.0765475
0.0769123
0.0772916
0.0776604
0.0780358
0.0784406
0.0788492
0.0792577
0.079674
0.0800746
0.0804805
0.0808946
0.0813188
0.0817485
0.0822006
0.0826679
0.0831562
0.0836733
0.0841927
0.0847066
0.0852072
0.0857611
0.086417
0.0871558
0.087873
0.0885558
0.0892245
0.0898481
0.0903291
0.0907661
0.091209
0.0917454
0.092462
0.0934522
0.094651
0.0958804
0.0973256
0.0985575
0.0999186
0.101346
0.103114
0.104856
0.106295
0.107038
0.10736
0.10802
0.10877
0.109886
0.110995
0.113173
0.115459
0.117823
0.119677
0.120755
0.121699
0.12248
0.124022
0.126243
0.129686
0.131422
0.132665
0.135061
0.135741
0.136206
0.138619
0.141917
0.144001
0.145766
0.148176
0.149535
0.153866
0.0798499
0.0799294
0.0800242
0.0801328
0.0802401
0.0803486
0.080485
0.0806482
0.0808035
0.0809571
0.0810925
0.0812266
0.0813652
0.0815457
0.0817258
0.0819021
0.0820822
0.0822677
0.0824516
0.0826228
0.08282
0.0830369
0.0832551
0.0834883
0.083726
0.0839538
0.0841373
0.0843554
0.0846084
0.0848981
0.0851746
0.0854508
0.0857493
0.0860691
0.0863892
0.0867116
0.0870556
0.087433
0.0878334
0.0882525
0.0886817
0.089119
0.0895876
0.0900467
0.0904662
0.0908976
0.0913594
0.0918168
0.0923006
0.0927875
0.0933178
0.0938882
0.0944792
0.0951691
0.0960032
0.0969778
0.0981062
0.0992257
0.100304
0.101222
0.102189
0.103124
0.104234
0.105426
0.106818
0.108146
0.109425
0.110324
0.110868
0.111303
0.111842
0.112847
0.113448
0.114216
0.115102
0.117115
0.119377
0.121929
0.123908
0.125487
0.126843
0.127465
0.128376
0.12932
0.131268
0.133667
0.135656
0.138107
0.139997
0.140127
0.141082
0.143981
0.146679
0.148364
0.150147
0.151829
0.15345
0.15529
0.157245
0.160459
0.0894422
0.0896498
0.0898952
0.0899507
0.0899456
0.0899427
0.0900643
0.0903479
0.0904347
0.0904736
0.0905769
0.0907699
0.0909813
0.0911086
0.0912354
0.0913858
0.0915569
0.0917242
0.0919
0.0921096
0.0923416
0.0925605
0.0927667
0.0929938
0.093258
0.0935247
0.093794
0.0940678
0.0943738
0.0946692
0.0949818
0.0953128
0.0956675
0.0960305
0.0963815
0.0967253
0.0970884
0.0974594
0.0978578
0.0982719
0.0987087
0.0991676
0.0996445
0.100165
0.100734
0.101328
0.10195
0.102601
0.103259
0.103961
0.104686
0.1054
0.10608
0.106853
0.107745
0.108608
0.109205
0.109853
0.110588
0.111451
0.112317
0.113224
0.114025
0.114564
0.114978
0.115414
0.116148
0.117002
0.118105
0.118933
0.120006
0.121262
0.123411
0.125615
0.127896
0.129628
0.131279
0.132764
0.133413
0.134142
0.134627
0.135583
0.136999
0.139137
0.141172
0.143684
0.145393
0.145869
0.147545
0.149601
0.150969
0.152769
0.155432
0.157016
0.15819
0.160015
0.162109
0.164085
0.165613
0.168198
0.100971
0.10089
0.100766
0.100767
0.100856
0.101177
0.101586
0.101709
0.101715
0.101739
0.101886
0.102134
0.102262
0.102361
0.102506
0.102697
0.102943
0.103085
0.103214
0.103435
0.103743
0.104012
0.104243
0.104434
0.104642
0.10489
0.10518
0.105479
0.105762
0.106048
0.106338
0.106656
0.106998
0.107365
0.107743
0.108127
0.108513
0.108922
0.109355
0.109823
0.110302
0.110758
0.1112
0.111619
0.112042
0.112466
0.112888
0.113305
0.113761
0.114294
0.114972
0.115709
0.116476
0.117205
0.117963
0.118653
0.119179
0.119703
0.120249
0.120821
0.121519
0.12255
0.123803
0.125178
0.126276
0.127344
0.128326
0.129687
0.131328
0.13349
0.135317
0.136517
0.137354
0.138435
0.139662
0.140134
0.140678
0.141093
0.141829
0.142687
0.14438
0.146476
0.148839
0.151279
0.152753
0.153874
0.155397
0.15637