/*--------------------------------*- C++ -*----------------------------------*\
  =========                 |
  \\      /  F ield         | OpenFOAM: The Open Source CFD Toolbox
   \\    /   O peration     | Website:  https://openfoam.org
    \\  /    A nd           | Version:  7
     \\/     M anipulation  |
\*---------------------------------------------------------------------------*/
FoamFile
{
    version     2.0;
    format      ascii;
    class       volScalarField;
    location    "8.5";
    object      rho;
}
// * * * * * * * * * * * * * * * * * * * * * * * * * * * * * * * * * * * * * //

dimensions      [1 -3 0 0 0 0 0];

internalField   nonuniform List<scalar> 
90000
(
0.542916
0.578413
0.617416
0.653088
0.683641
0.718388
0.752218
0.782072
0.813906
0.847376
0.880034
0.912918
0.946559
0.981138
1.01555
1.04936
1.08405
1.11715
1.15127
1.1824
1.21322
1.23848
1.26161
1.27197
1.28172
1.28395
1.28612
1.28625
1.28614
1.28506
1.28452
1.28252
1.27974
1.27669
1.27334
1.27
1.26568
1.26107
1.25548
1.25531
1.25809
1.26304
1.26866
1.27425
1.27933
1.284
1.28715
1.29136
1.29082
1.28734
1.28086
1.27482
1.27185
1.27282
1.27613
1.28174
1.28722
1.29146
1.29129
1.28901
1.28442
1.28002
1.2773
1.27895
1.28358
1.28851
1.29105
1.29043
1.28788
1.2839
1.28384
1.28528
1.28879
1.29149
1.29114
1.28897
1.2875
1.28827
1.29017
1.29185
1.29151
1.2908
1.2908
1.29154
1.29234
1.29271
1.29292
1.29323
1.29344
1.29346
1.29356
1.29405
1.29476
1.29511
1.29535
1.29588
1.29641
1.29673
1.29671
1.29729
0.513487
0.513508
0.513523
0.513562
0.513661
0.513962
0.514675
0.515895
0.517785
0.521003
0.525537
0.532147
0.540886
0.553202
0.56833
0.588484
0.61235
0.642849
0.67745
0.720019
0.766221
0.81931
0.875123
0.931557
0.986399
1.03491
1.08058
1.11726
1.15192
1.17627
1.19983
1.21289
1.22623
1.23168
1.23842
1.24083
1.24428
1.24584
1.25207
1.26066
1.27082
1.27763
1.28266
1.28614
1.28702
1.28693
1.28637
1.28313
1.27385
1.26555
1.2624
1.26404
1.26557
1.26872
1.27378
1.27814
1.284
1.28391
1.28162
1.27624
1.27073
1.2706
1.2733
1.2754
1.2786
1.28362
1.28313
1.2806
1.27642
1.27592
1.27825
1.28264
1.28358
1.28305
1.28084
1.27961
1.28038
1.28291
1.28459
1.28421
1.2824
1.28192
1.2826
1.28462
1.28561
1.28531
1.28541
1.28574
1.2859
1.28585
1.28617
1.28682
1.28727
1.28763
1.28812
1.28869
1.28923
1.28946
1.28953
1.28995
0.51441
0.514468
0.514531
0.514599
0.514672
0.514761
0.51482
0.514886
0.514932
0.514971
0.51502
0.515091
0.515175
0.51526
0.515342
0.515435
0.515532
0.515686
0.515995
0.516832
0.518634
0.522592
0.529217
0.541406
0.558697
0.585203
0.617952
0.661864
0.711228
0.77069
0.832636
0.898858
0.963926
1.025
1.08346
1.13151
1.17911
1.21401
1.24613
1.26209
1.27272
1.27762
1.2819
1.28454
1.28567
1.28371
1.27533
1.26022
1.24978
1.2525
1.25927
1.2662
1.27489
1.28106
1.28458
1.28411
1.2821
1.27558
1.26798
1.26414
1.26444
1.26653
1.27276
1.28137
1.28293
1.28164
1.27748
1.27169
1.27029
1.27181
1.27646
1.28196
1.28137
1.27832
1.27521
1.27557
1.27697
1.28007
1.28211
1.28051
1.27894
1.27915
1.28026
1.28111
1.28168
1.28193
1.28203
1.28205
1.28197
1.28208
1.28234
1.28306
1.28334
1.28334
1.28354
1.28421
1.28437
1.28438
1.2845
1.28523
0.515771
0.515837
0.515909
0.515983
0.516061
0.51614
0.516221
0.516305
0.516394
0.516485
0.516579
0.516676
0.516776
0.516875
0.516977
0.517079
0.517182
0.517281
0.517378
0.517507
0.517555
0.517594
0.517635
0.517686
0.51774
0.517806
0.517856
0.518055
0.518759
0.521211
0.526403
0.538149
0.556488
0.587989
0.628602
0.686434
0.752027
0.831343
0.911694
0.988207
1.05868
1.11212
1.16068
1.18858
1.2146
1.22571
1.23415
1.23939
1.25664
1.26956
1.28325
1.28982
1.29567
1.2947
1.29242
1.28784
1.27369
1.2627
1.26078
1.26264
1.26755
1.27679
1.28592
1.28748
1.28513
1.27754
1.27091
1.26927
1.27085
1.2774
1.28386
1.2836
1.28017
1.27406
1.27369
1.27498
1.2797
1.28214
1.28109
1.2776
1.27731
1.27821
1.28022
1.28073
1.28032
1.28054
1.28104
1.281
1.28058
1.28072
1.28129
1.28173
1.28173
1.28181
1.28204
1.28251
1.28266
1.28251
1.28256
1.28296
0.517174
0.517223
0.517275
0.517328
0.517382
0.517438
0.517494
0.51755
0.517607
0.517663
0.517719
0.517773
0.517829
0.517883
0.517937
0.51799
0.518043
0.518091
0.518141
0.518185
0.51823
0.518277
0.518324
0.518371
0.518414
0.518457
0.518495
0.518543
0.518561
0.518577
0.518596
0.518619
0.518644
0.518678
0.518705
0.519145
0.520891
0.527451
0.540932
0.569903
0.612046
0.677165
0.754529
0.847739
0.943842
1.03418
1.12227
1.19034
1.24036
1.25876
1.27381
1.27984
1.28665
1.28649
1.28342
1.27203
1.26086
1.26335
1.26856
1.27938
1.28827
1.29362
1.29112
1.28703
1.27669
1.27046
1.27022
1.27287
1.28164
1.28874
1.28725
1.28284
1.27554
1.27349
1.27463
1.28038
1.28453
1.28338
1.2792
1.27731
1.27783
1.28012
1.28147
1.28094
1.28054
1.28071
1.28115
1.28107
1.28057
1.28067
1.28128
1.28163
1.28135
1.28135
1.28162
1.28207
1.28208
1.28172
1.28183
1.28258
0.518057
0.518084
0.518113
0.518141
0.51817
0.518198
0.518226
0.518255
0.518284
0.518312
0.518339
0.518365
0.51839
0.518416
0.518441
0.518468
0.518493
0.518518
0.518542
0.518565
0.518587
0.518608
0.518629
0.518648
0.518666
0.518682
0.518699
0.518716
0.518733
0.518753
0.518775
0.5188
0.518826
0.51886
0.518899
0.518919
0.518935
0.51895
0.518959
0.518967
0.51897
0.519296
0.521293
0.530107
0.549819
0.592398
0.656076
0.751492
0.858049
0.965151
1.06391
1.12928
1.19294
1.21802
1.24554
1.24946
1.26404
1.28088
1.29748
1.30854
1.30784
1.30492
1.29395
1.27468
1.2677
1.26986
1.27674
1.28742
1.29724
1.29592
1.28918
1.27872
1.27458
1.27707
1.28404
1.28903
1.28766
1.2818
1.27874
1.27938
1.28217
1.28367
1.2828
1.28153
1.28152
1.28212
1.28228
1.28155
1.28093
1.28155
1.28237
1.28211
1.28151
1.28157
1.28211
1.28238
1.28217
1.28183
1.28191
1.28266
0.518538
0.51855
0.518562
0.518574
0.518585
0.518596
0.518608
0.518619
0.518632
0.518644
0.518656
0.518667
0.518679
0.51869
0.518701
0.518713
0.518724
0.518735
0.518747
0.518758
0.518768
0.518779
0.518789
0.518799
0.51881
0.518821
0.518833
0.518846
0.518861
0.518881
0.518903
0.51893
0.518958
0.518994
0.51903
0.519065
0.519093
0.51911
0.519117
0.519119
0.519117
0.5191
0.519078
0.519073
0.519079
0.51909
0.519204
0.521724
0.531077
0.56257
0.616001
0.708592
0.819268
0.944868
1.06807
1.1628
1.24204
1.27221
1.2884
1.29914
1.29895
1.29128
1.2694
1.26418
1.26979
1.28494
1.29635
1.30118
1.30013
1.2902
1.2783
1.27587
1.27899
1.28845
1.29365
1.29233
1.28516
1.28089
1.28119
1.28454
1.2869
1.28598
1.2842
1.28357
1.2844
1.28468
1.284
1.28284
1.28316
1.2841
1.28396
1.28312
1.28273
1.28313
1.2834
1.28321
1.28255
1.28249
1.28271
1.28364
0.51878
0.518784
0.518788
0.518792
0.518796
0.5188
0.518804
0.518807
0.518811
0.518815
0.51882
0.518826
0.518832
0.518839
0.518847
0.518854
0.518863
0.518872
0.518883
0.518893
0.518903
0.518914
0.518927
0.518941
0.518955
0.51897
0.518986
0.519001
0.519019
0.51904
0.519065
0.519092
0.519125
0.519161
0.519197
0.519224
0.519237
0.519236
0.519231
0.519221
0.519201
0.51917
0.519152
0.519153
0.519159
0.519177
0.519202
0.519217
0.519228
0.519242
0.519251
0.520371
0.526635
0.554507
0.607717
0.713118
0.841566
0.977335
1.08915
1.16841
1.21955
1.24173
1.25789
1.27515
1.29661
1.31535
1.31382
1.30898
1.28882
1.27333
1.27421
1.28026
1.29242
1.30144
1.29914
1.2888
1.28156
1.28175
1.28612
1.29067
1.29
1.28704
1.2857
1.28657
1.28769
1.28698
1.28537
1.28497
1.28602
1.28664
1.2861
1.2849
1.28483
1.28525
1.28521
1.28477
1.28409
1.28411
1.28437
1.2852
0.518891
0.518893
0.518895
0.518897
0.518899
0.518902
0.518905
0.518907
0.518911
0.518915
0.51892
0.518926
0.518934
0.518944
0.518955
0.518966
0.518978
0.518992
0.519005
0.519018
0.519032
0.519045
0.51906
0.519077
0.519093
0.519108
0.519121
0.519134
0.519149
0.519167
0.519187
0.519208
0.519236
0.51927
0.519302
0.519315
0.519316
0.519311
0.519303
0.51929
0.51926
0.51923
0.519225
0.519228
0.519239
0.519262
0.519284
0.519301
0.519313
0.519322
0.519331
0.519362
0.519413
0.519476
0.519508
0.520889
0.529856
0.568144
0.645493
0.769644
0.918625
1.06661
1.19983
1.26277
1.28505
1.30349
1.30329
1.28824
1.259
1.26653
1.2823
1.29804
1.30413
1.30192
1.29089
1.27967
1.28021
1.28674
1.29268
1.29207
1.28992
1.28736
1.28761
1.28955
1.28955
1.28839
1.28638
1.28684
1.28861
1.28851
1.28717
1.28656
1.28702
1.28727
1.28685
1.286
1.28556
1.28572
1.28614
1.28705
0.518944
0.518946
0.518949
0.518952
0.518957
0.518961
0.518966
0.518971
0.518977
0.518986
0.518996
0.519007
0.51902
0.519037
0.519054
0.519069
0.519083
0.519098
0.519113
0.519126
0.519137
0.519149
0.519162
0.519173
0.519183
0.519192
0.519202
0.519209
0.519216
0.519224
0.519236
0.519254
0.51928
0.519309
0.51933
0.519342
0.519345
0.519341
0.519331
0.519312
0.519278
0.519271
0.519275
0.519286
0.519309
0.519338
0.51936
0.519374
0.519375
0.519373
0.519374
0.519395
0.519431
0.519461
0.519497
0.519536
0.519541
0.5195
0.519559
0.523178
0.546562
0.613142
0.739462
0.903919
1.04306
1.15911
1.21448
1.24036
1.2551
1.2908
1.31051
1.31415
1.31048
1.28891
1.27634
1.27752
1.28582
1.29685
1.29638
1.29239
1.28635
1.28671
1.28985
1.29164
1.29062
1.28715
1.28684
1.28879
1.28998
1.28934
1.28775
1.28743
1.28836
1.28833
1.28778
1.2869
1.28667
1.28696
1.28763
1.28849
0.519037
0.519043
0.519049
0.519056
0.519063
0.51907
0.519078
0.519086
0.519095
0.519111
0.51913
0.519145
0.519157
0.519179
0.519195
0.519202
0.519208
0.519217
0.519227
0.519236
0.519242
0.519245
0.519247
0.51925
0.51925
0.519249
0.519254
0.519254
0.519251
0.519251
0.519259
0.519274
0.519295
0.519317
0.519334
0.519347
0.519356
0.519355
0.519342
0.519312
0.519309
0.519316
0.519334
0.519366
0.519402
0.519434
0.519452
0.519448
0.519427
0.519413
0.51941
0.519414
0.519424
0.519439
0.51947
0.519513
0.519527
0.519513
0.519521
0.519518
0.519515
0.519501
0.521881
0.544659
0.61118
0.739178
0.914725
1.09767
1.21913
1.27811
1.2966
1.30367
1.28941
1.26541
1.27176
1.28777
1.29925
1.29868
1.29323
1.28394
1.28413
1.28823
1.29273
1.29211
1.28791
1.28575
1.28742
1.29088
1.29051
1.28795
1.28707
1.28813
1.28913
1.28875
1.2874
1.28687
1.28708
1.28759
1.28835
1.28916
0.519221
0.519227
0.519233
0.519239
0.519247
0.519256
0.519264
0.519272
0.519283
0.519294
0.519308
0.519322
0.519331
0.519337
0.51934
0.51934
0.519338
0.519336
0.519336
0.519333
0.519326
0.519319
0.519317
0.519315
0.519304
0.519288
0.519284
0.519285
0.519282
0.519279
0.51928
0.519291
0.51931
0.519332
0.51935
0.519364
0.519376
0.519388
0.519383
0.519382
0.519387
0.519401
0.519435
0.519491
0.519531
0.519548
0.519549
0.519531
0.519481
0.519453
0.519443
0.519435
0.519429
0.519434
0.519456
0.519489
0.519507
0.519527
0.519561
0.519598
0.519615
0.51961
0.519578
0.519539
0.519531
0.521899
0.54853
0.629903
0.794414
0.978392
1.10213
1.21487
1.23087
1.26539
1.28688
1.30973
1.3085
1.29937
1.27961
1.27989
1.28502
1.29424
1.29382
1.28851
1.28391
1.28525
1.29091
1.2916
1.28878
1.28582
1.28663
1.2894
1.28936
1.28792
1.28676
1.28691
1.28736
1.28791
1.28874
1.28936
0.519396
0.519398
0.519401
0.519406
0.51941
0.519415
0.519421
0.519428
0.519435
0.519442
0.519452
0.519455
0.519454
0.519453
0.519448
0.519441
0.519432
0.519422
0.519412
0.519404
0.519392
0.519378
0.519372
0.519367
0.519357
0.519334
0.519324
0.519322
0.51932
0.51932
0.519326
0.519341
0.519358
0.519376
0.519392
0.519406
0.519419
0.51943
0.519442
0.519458
0.519478
0.519509
0.519563
0.519617
0.519642
0.519644
0.519634
0.5196
0.519532
0.51948
0.51946
0.519449
0.519444
0.519444
0.519457
0.519482
0.519522
0.519564
0.519605
0.51965
0.519672
0.51966
0.519625
0.519586
0.519576
0.519581
0.519582
0.51959
0.527808
0.566181
0.689575
0.873085
1.06293
1.23112
1.27388
1.30146
1.2983
1.27155
1.26861
1.2801
1.29739
1.29667
1.28981
1.28045
1.28138
1.28914
1.29284
1.29051
1.28448
1.28468
1.28809
1.28969
1.28875
1.28628
1.28633
1.28685
1.28754
1.28801
1.28892
1.28938
0.519497
0.519498
0.5195
0.5195
0.519502
0.519505
0.519508
0.519509
0.519513
0.519517
0.519518
0.519518
0.519518
0.519515
0.51951
0.519501
0.519489
0.519477
0.519463
0.519451
0.519442
0.519429
0.519413
0.519403
0.519395
0.51938
0.519373
0.519373
0.519375
0.51938
0.519391
0.519408
0.519432
0.519456
0.519472
0.519484
0.519495
0.519505
0.519519
0.51954
0.519572
0.519619
0.519666
0.519691
0.519696
0.519692
0.519675
0.519632
0.519565
0.519509
0.519481
0.519461
0.519449
0.519448
0.519466
0.51953
0.519583
0.519608
0.519634
0.519669
0.51968
0.519663
0.519633
0.519604
0.519584
0.519581
0.519599
0.519649
0.519768
0.519863
0.520963
0.536064
0.626059
0.795279
0.985841
1.16298
1.20378
1.24452
1.271
1.30565
1.3078
1.29778
1.27647
1.27703
1.28535
1.29537
1.29342
1.28479
1.28154
1.28542
1.29007
1.28955
1.28639
1.28521
1.28597
1.28715
1.28751
1.288
1.28892
1.28913
0.519499
0.519503
0.519505
0.519506
0.519508
0.519511
0.519514
0.519518
0.51952
0.519523
0.519525
0.519524
0.519523
0.519524
0.519523
0.519519
0.519511
0.519502
0.519491
0.519477
0.519462
0.519448
0.519437
0.51943
0.51942
0.51941
0.51941
0.519417
0.51943
0.519452
0.519483
0.519513
0.519532
0.519547
0.519558
0.519562
0.51956
0.519559
0.519564
0.519581
0.519615
0.51966
0.519691
0.519699
0.519698
0.519692
0.519669
0.519622
0.519565
0.519517
0.519515
0.519518
0.519509
0.519506
0.519542
0.519631
0.519648
0.519638
0.519647
0.519674
0.519668
0.519636
0.519624
0.519614
0.519591
0.519602
0.519673
0.519792
0.519997
0.52009
0.520099
0.520131
0.520151
0.526419
0.587946
0.731146
0.947128
1.16495
1.2492
1.29453
1.29322
1.26759
1.26834
1.28353
1.29732
1.29652
1.28543
1.27899
1.2815
1.29085
1.29075
1.28713
1.28404
1.28475
1.28697
1.28724
1.28736
1.28793
1.28888
1.28878
0.519473
0.519478
0.519482
0.519485
0.519488
0.519492
0.519494
0.519496
0.519498
0.519504
0.51951
0.519512
0.519515
0.519518
0.519517
0.519513
0.519503
0.51949
0.519478
0.519466
0.519456
0.519454
0.519456
0.519458
0.519465
0.519492
0.519535
0.519571
0.519591
0.519605
0.519621
0.519628
0.519623
0.519609
0.519604
0.519599
0.51958
0.519567
0.519566
0.519574
0.519603
0.519626
0.519632
0.519633
0.51963
0.519628
0.519626
0.519606
0.519563
0.519564
0.519576
0.519601
0.519616
0.519631
0.519673
0.519703
0.519691
0.519661
0.519649
0.519659
0.519649
0.519624
0.51962
0.519612
0.519618
0.519684
0.519811
0.520011
0.52017
0.520179
0.520155
0.520153
0.52017
0.520135
0.519957
0.522136
0.566679
0.696657
0.908319
1.11932
1.1935
1.24041
1.2711
1.3093
1.30729
1.29029
1.27389
1.27709
1.29008
1.29536
1.29089
1.28294
1.28333
1.28643
1.28797
1.28733
1.28755
1.28884
1.28927
1.28832
0.519451
0.519454
0.519459
0.519464
0.519466
0.519467
0.519469
0.519472
0.519477
0.519483
0.519491
0.519497
0.5195
0.519504
0.51951
0.519507
0.519505
0.519507
0.519518
0.519533
0.519559
0.519594
0.519603
0.519608
0.519631
0.519691
0.519731
0.519732
0.519727
0.519708
0.519688
0.519672
0.519649
0.519621
0.51961
0.519599
0.519568
0.519543
0.519537
0.519543
0.519545
0.519547
0.519566
0.519591
0.519595
0.519598
0.519609
0.519622
0.519614
0.519607
0.519608
0.519631
0.519669
0.519706
0.519746
0.519746
0.519711
0.519625
0.519581
0.519589
0.519604
0.519612
0.519635
0.519691
0.519752
0.519834
0.519979
0.520193
0.520256
0.520239
0.520173
0.520122
0.520074
0.519958
0.519809
0.519749
0.519701
0.520773
0.556854
0.673097
0.89687
1.14125
1.24739
1.29701
1.2933
1.26563
1.27241
1.28926
1.29937
1.29531
1.28122
1.28084
1.28528
1.28869
1.28785
1.28711
1.28835
1.28985
1.28947
1.28774
0.519506
0.519516
0.519525
0.519535
0.519548
0.519562
0.519573
0.51958
0.519588
0.519597
0.519613
0.519627
0.51964
0.519664
0.519693
0.519696
0.519698
0.519703
0.519706
0.51971
0.519726
0.519738
0.51974
0.519751
0.5198
0.519827
0.519827
0.519816
0.51979
0.519746
0.519695
0.519652
0.519622
0.519598
0.519575
0.519555
0.519522
0.519473
0.519457
0.519459
0.519484
0.519514
0.519555
0.519591
0.519598
0.519601
0.519611
0.519652
0.519659
0.519618
0.519613
0.51963
0.519667
0.519708
0.519746
0.519754
0.51971
0.519618
0.519546
0.519527
0.519546
0.519594
0.519695
0.519883
0.519984
0.520014
0.520115
0.520276
0.520301
0.520259
0.520135
0.51998
0.519845
0.519736
0.519721
0.519715
0.519745
0.519867
0.519989
0.5206
0.550362
0.67284
0.892375
1.12302
1.19255
1.2426
1.28597
1.30966
1.30584
1.28253
1.27478
1.28164
1.29154
1.29034
1.28644
1.28697
1.2904
1.29056
1.28877
1.28744
0.51969
0.5197
0.519709
0.519718
0.519726
0.519734
0.519742
0.519749
0.519756
0.519761
0.519763
0.519767
0.519772
0.519777
0.519779
0.519782
0.519789
0.519783
0.519771
0.51977
0.519778
0.519786
0.51979
0.519807
0.519841
0.519849
0.519847
0.519825
0.519769
0.519705
0.519638
0.519594
0.519579
0.519555
0.519516
0.519482
0.519444
0.519419
0.519418
0.519436
0.519504
0.519547
0.519588
0.519659
0.519689
0.519689
0.519694
0.519727
0.519727
0.519679
0.519615
0.519607
0.519626
0.519676
0.519723
0.519733
0.519704
0.519627
0.519562
0.519536
0.519609
0.519806
0.519973
0.520127
0.520169
0.520158
0.520202
0.520314
0.520323
0.52025
0.520036
0.51979
0.519631
0.51963
0.519686
0.519777
0.519924
0.520084
0.520219
0.520238
0.520102
0.520385
0.553159
0.676008
0.92037
1.16889
1.26194
1.2974
1.28749
1.26414
1.276
1.29449
1.29348
1.28678
1.28554
1.28925
1.2921
1.29074
1.28766
1.28748
0.519825
0.519824
0.519823
0.519829
0.519828
0.519814
0.5198
0.519795
0.519794
0.519795
0.519786
0.519774
0.51977
0.519765
0.519758
0.519757
0.519762
0.519743
0.519702
0.519698
0.519698
0.519681
0.519669
0.519674
0.519679
0.519675
0.519659
0.519646
0.519646
0.519646
0.519629
0.519589
0.519579
0.519573
0.519535
0.519501
0.519505
0.519531
0.519556
0.519589
0.519687
0.519744
0.519785
0.519871
0.519897
0.519893
0.519874
0.519847
0.519803
0.51968
0.519536
0.519501
0.519505
0.519533
0.519625
0.519721
0.519749
0.519719
0.519698
0.519695
0.519775
0.520072
0.520312
0.520325
0.520287
0.520245
0.520262
0.520323
0.520296
0.52015
0.519888
0.519671
0.519603
0.519632
0.519742
0.519957
0.520137
0.520236
0.520258
0.520152
0.519803
0.519299
0.518995
0.51964
0.559164
0.709569
0.941813
1.16025
1.22446
1.25621
1.30488
1.30661
1.29493
1.28008
1.28503
1.29383
1.29306
1.28768
1.28683
1.28781
0.519824
0.519821
0.51982
0.519823
0.519826
0.519813
0.519783
0.519774
0.519773
0.519777
0.519773
0.519757
0.519726
0.519659
0.519623
0.519626
0.519624
0.519586
0.519528
0.519495
0.519474
0.519456
0.519439
0.519446
0.519481
0.519503
0.519523
0.519568
0.519626
0.519643
0.519646
0.519627
0.519625
0.519662
0.519672
0.519673
0.519691
0.519721
0.519739
0.519747
0.519795
0.519849
0.519877
0.519931
0.51999
0.519994
0.519959
0.519845
0.519706
0.519524
0.519358
0.519302
0.519308
0.519357
0.519481
0.519674
0.519865
0.520032
0.520089
0.520044
0.520012
0.520223
0.52047
0.520485
0.520383
0.5203
0.520257
0.520182
0.520084
0.519931
0.519757
0.519659
0.51965
0.519745
0.519942
0.520166
0.520304
0.520301
0.520221
0.51989
0.519367
0.51897
0.518945
0.51913
0.519468
0.521569
0.572885
0.742212
1.01982
1.21201
1.29728
1.29211
1.26971
1.27899
1.29526
1.29581
1.28884
1.28476
1.28679
1.28871
0.519683
0.519694
0.519701
0.519707
0.51972
0.519726
0.519712
0.519696
0.519691
0.51969
0.519692
0.519675
0.519611
0.519531
0.51951
0.519514
0.519532
0.519523
0.519504
0.519493
0.519482
0.519484
0.519486
0.519468
0.519466
0.519488
0.519532
0.519624
0.519769
0.519822
0.519819
0.519823
0.519871
0.519878
0.519854
0.519859
0.519863
0.519859
0.519837
0.519813
0.519814
0.519844
0.519878
0.519924
0.520005
0.520033
0.51996
0.519804
0.519687
0.519525
0.519349
0.519243
0.519248
0.51935
0.519621
0.519931
0.520172
0.520363
0.520415
0.520352
0.520253
0.520339
0.520514
0.520552
0.520477
0.520297
0.52007
0.51984
0.519771
0.519747
0.519741
0.519755
0.519857
0.520025
0.520201
0.52034
0.520371
0.520292
0.519973
0.519389
0.519014
0.51884
0.518938
0.519585
0.520218
0.520328
0.520102
0.52395
0.595156
0.809049
1.08958
1.1815
1.24731
1.29611
1.30624
1.29748
1.28071
1.28328
1.29043
1.28934
0.519614
0.519645
0.519638
0.519634
0.519648
0.519684
0.519712
0.519721
0.519725
0.519735
0.51973
0.519703
0.519697
0.519701
0.519741
0.519798
0.519802
0.519803
0.519822
0.519825
0.519802
0.5198
0.519794
0.519752
0.519704
0.519697
0.519731
0.519843
0.519951
0.519975
0.519973
0.519961
0.519979
0.519981
0.519922
0.519905
0.519929
0.519917
0.519821
0.519711
0.519699
0.51971
0.519739
0.519811
0.519898
0.519876
0.519784
0.519772
0.519759
0.519695
0.519449
0.519381
0.519487
0.519658
0.519907
0.520187
0.520449
0.520555
0.520565
0.52051
0.520363
0.520387
0.52048
0.520517
0.520429
0.520133
0.519757
0.519545
0.519554
0.519657
0.519786
0.519915
0.52008
0.520217
0.520306
0.520389
0.520273
0.519934
0.519314
0.518879
0.51869
0.518755
0.519319
0.520128
0.52037
0.52025
0.519641
0.519071
0.518839
0.533996
0.636641
0.900743
1.17219
1.26721
1.29502
1.27245
1.27636
1.29095
1.29199
1.28672
0.519789
0.519832
0.519859
0.519898
0.519951
0.519998
0.520041
0.520088
0.520138
0.520186
0.52023
0.520275
0.520317
0.52035
0.520361
0.52035
0.52033
0.520317
0.520291
0.520209
0.520171
0.520154
0.520109
0.520064
0.520009
0.519919
0.51986
0.519894
0.519931
0.519925
0.519868
0.519735
0.519628
0.519594
0.519561
0.519539
0.519543
0.519553
0.519516
0.51938
0.519324
0.519325
0.519363
0.519543
0.519674
0.519663
0.519667
0.519677
0.519674
0.519613
0.51969
0.51992
0.520095
0.520142
0.520165
0.520285
0.520547
0.520621
0.520601
0.52047
0.520152
0.519986
0.520033
0.520091
0.520018
0.519718
0.519378
0.519292
0.51938
0.519643
0.519837
0.52
0.520147
0.520294
0.520237
0.51993
0.519487
0.518994
0.518506
0.518405
0.518443
0.518934
0.51982
0.520244
0.520152
0.5195
0.518651
0.518328
0.518453
0.519409
0.519679
0.555902
0.715034
0.966795
1.19618
1.23286
1.28434
1.30192
1.29366
1.2813
0.519895
0.519933
0.520013
0.520156
0.520229
0.520232
0.520203
0.520169
0.520172
0.520202
0.520245
0.520287
0.520334
0.520366
0.520365
0.520346
0.520324
0.520301
0.520253
0.520154
0.520038
0.520017
0.520009
0.519937
0.519727
0.519424
0.519192
0.519038
0.518915
0.518777
0.518665
0.518649
0.518661
0.518705
0.518779
0.518878
0.518997
0.519052
0.519017
0.518897
0.518851
0.518853
0.518876
0.519
0.519158
0.519213
0.519226
0.519227
0.519239
0.519462
0.519999
0.520273
0.520276
0.52023
0.520181
0.520186
0.520191
0.520079
0.51976
0.51941
0.519229
0.519221
0.519261
0.519319
0.519282
0.519106
0.518903
0.518904
0.519117
0.519375
0.519552
0.519744
0.519773
0.51968
0.519367
0.51882
0.518386
0.518141
0.517997
0.518046
0.518562
0.519534
0.520117
0.519998
0.519345
0.518357
0.517953
0.518019
0.518797
0.519572
0.519864
0.51923
0.521178
0.58984
0.810157
1.0944
1.26238
1.29097
1.26949
1.27772
0.519615
0.519589
0.519585
0.519601
0.519619
0.519614
0.519588
0.519512
0.519462
0.519469
0.519502
0.519501
0.519489
0.519491
0.519483
0.519432
0.519377
0.519326
0.519194
0.519102
0.519092
0.519054
0.518884
0.518751
0.518601
0.518311
0.518018
0.517872
0.517857
0.517889
0.517957
0.518028
0.518119
0.518272
0.518456
0.518604
0.51872
0.518756
0.518696
0.5186
0.518579
0.518586
0.518652
0.518791
0.518953
0.519022
0.519073
0.519169
0.519427
0.51987
0.520125
0.520162
0.520067
0.51985
0.51961
0.519491
0.5195
0.519452
0.519201
0.518829
0.518688
0.518714
0.518849
0.518959
0.51894
0.518841
0.518753
0.518825
0.519103
0.519391
0.519657
0.519666
0.519591
0.519316
0.518791
0.518143
0.517918
0.517873
0.518014
0.518731
0.51976
0.520437
0.520237
0.519505
0.518514
0.517873
0.51791
0.518559
0.519821
0.520284
0.51985
0.518804
0.518416
0.518561
0.530983
0.667229
0.93176
1.14973
1.23496
1.28461
0.518761
0.51872
0.51872
0.518765
0.5188
0.518799
0.518765
0.518726
0.51874
0.518832
0.518912
0.518918
0.518896
0.518885
0.518888
0.518878
0.518881
0.518887
0.518879
0.518855
0.518874
0.518893
0.518857
0.518755
0.518619
0.518373
0.5181
0.517993
0.518019
0.518117
0.518233
0.518339
0.518506
0.518786
0.519116
0.519534
0.519845
0.519939
0.520025
0.520153
0.520262
0.520478
0.520706
0.520755
0.52072
0.520563
0.520313
0.52012
0.520084
0.520132
0.520162
0.52016
0.520168
0.520051
0.519638
0.519449
0.519443
0.519391
0.519184
0.518913
0.518845
0.518882
0.519012
0.519181
0.519402
0.519733
0.520074
0.520446
0.52065
0.520494
0.520269
0.52008
0.519605
0.518991
0.518433
0.517967
0.517869
0.51828
0.519541
0.520872
0.52154
0.521216
0.520361
0.51911
0.518302
0.518194
0.519237
0.520754
0.521461
0.520951
0.51977
0.518706
0.519164
0.520632
0.520824
0.521345
0.563845
0.773115
1.09154
1.26369
0.518572
0.518552
0.518561
0.518609
0.518707
0.51877
0.518762
0.518721
0.518756
0.518899
0.518992
0.519007
0.518995
0.518967
0.518978
0.519037
0.519064
0.519078
0.519078
0.519087
0.519145
0.519249
0.519427
0.519609
0.519633
0.519643
0.519733
0.519912
0.520102
0.520247
0.520427
0.520723
0.521128
0.521722
0.522405
0.522716
0.522726
0.522644
0.522486
0.522279
0.522106
0.522062
0.522119
0.522087
0.521929
0.521822
0.521386
0.520501
0.520212
0.520205
0.520254
0.520323
0.520328
0.52022
0.519993
0.519814
0.519806
0.519904
0.520105
0.520367
0.520593
0.52076
0.520892
0.521097
0.521382
0.521687
0.522076
0.522281
0.522065
0.521365
0.520554
0.519879
0.519308
0.518892
0.519124
0.519813
0.521073
0.522271
0.523309
0.523217
0.52283
0.521715
0.520535
0.51926
0.519615
0.52137
0.523431
0.523726
0.52316
0.52196
0.520244
0.521373
0.522957
0.52375
0.523225
0.521521
0.52195
0.531781
0.634939
0.996728
0.52196
0.521995
0.522029
0.522101
0.522364
0.522705
0.522754
0.522708
0.522746
0.523107
0.523507
0.52353
0.523455
0.523476
0.523651
0.523794
0.523876
0.523979
0.524133
0.524274
0.524388
0.524482
0.52454
0.52466
0.524839
0.524954
0.525082
0.525191
0.525173
0.525075
0.525073
0.525161
0.525518
0.525885
0.525844
0.52571
0.525493
0.525285
0.525112
0.524797
0.524402
0.52433
0.524153
0.523537
0.523424
0.523618
0.523677
0.523501
0.523321
0.523255
0.523236
0.523348
0.52369
0.523805
0.523769
0.523736
0.523801
0.524057
0.52446
0.524712
0.524877
0.524987
0.524996
0.524922
0.524661
0.52442
0.524352
0.524288
0.523929
0.523315
0.522594
0.522581
0.522857
0.523549
0.524498
0.525388
0.526483
0.526421
0.52585
0.524777
0.523564
0.522112
0.522107
0.523498
0.525515
0.527509
0.527165
0.526134
0.523995
0.522853
0.524462
0.52737
0.527274
0.52652
0.525065
0.526261
0.528173
0.527988
0.527845
0.676917
0.531826
0.531897
0.531931
0.531726
0.531259
0.531085
0.531115
0.531172
0.531161
0.531078
0.530912
0.530736
0.530583
0.530444
0.53032
0.530219
0.530083
0.529851
0.529755
0.529784
0.529761
0.529599
0.529288
0.528849
0.528483
0.528452
0.528498
0.528348
0.527779
0.526904
0.526446
0.526448
0.526389
0.52608
0.525597
0.525183
0.525099
0.525105
0.525086
0.524891
0.52465
0.524449
0.524078
0.523733
0.523647
0.524114
0.524763
0.524875
0.524977
0.525386
0.52552
0.525567
0.525827
0.526179
0.526464
0.526865
0.527252
0.527695
0.528272
0.52841
0.528437
0.528348
0.528029
0.527263
0.526879
0.526722
0.526098
0.525503
0.525653
0.526462
0.527749
0.528757
0.529633
0.530389
0.531096
0.531071
0.530513
0.529465
0.528253
0.527398
0.527947
0.52986
0.532389
0.534821
0.534631
0.533269
0.531405
0.530132
0.531642
0.534417
0.536759
0.535973
0.534382
0.534537
0.535804
0.537316
0.536963
0.536473
0.536577
0.539503
0.543354
0.543362
0.54338
0.543371
0.543262
0.543076
0.543027
0.543077
0.543116
0.543105
0.543078
0.543085
0.543077
0.542987
0.542969
0.542979
0.542962
0.543004
0.543092
0.543074
0.543096
0.54324
0.543413
0.543612
0.543893
0.543996
0.544093
0.544274
0.544478
0.544722
0.545169
0.545382
0.545508
0.545801
0.54631
0.546712
0.546974
0.547301
0.547867
0.548662
0.549251
0.549602
0.550046
0.550626
0.551394
0.552587
0.553195
0.553083
0.553113
0.553474
0.553642
0.553819
0.553817
0.553595
0.55317
0.552885
0.552642
0.55244
0.552406
0.552326
0.552064
0.551541
0.550849
0.550638
0.550821
0.551024
0.551194
0.551469
0.551808
0.552153
0.552581
0.55296
0.552906
0.552515
0.551756
0.551219
0.550734
0.550858
0.551289
0.552139
0.552955
0.553294
0.552901
0.551896
0.550676
0.549844
0.550438
0.551779
0.553307
0.552952
0.55192
0.550399
0.55059
0.551268
0.551376
0.551066
0.55112
0.551407
0.55177
0.552084
0.573589
0.573687
0.573906
0.574185
0.574321
0.574324
0.574206
0.574046
0.574078
0.574329
0.574458
0.574563
0.574816
0.57515
0.575288
0.57536
0.575473
0.575782
0.576091
0.576095
0.576085
0.57621
0.576369
0.576432
0.576483
0.576579
0.576626
0.576558
0.576388
0.576063
0.575649
0.575592
0.575531
0.575229
0.574707
0.574284
0.574047
0.573845
0.573549
0.573135
0.572708
0.572543
0.572514
0.572429
0.57205
0.571255
0.570267
0.569411
0.568821
0.568391
0.568019
0.567465
0.566495
0.565753
0.565234
0.564599
0.563458
0.562408
0.562091
0.562148
0.562206
0.562309
0.562697
0.563779
0.564895
0.565269
0.565649
0.565915
0.56617
0.566052
0.565748
0.565336
0.564778
0.564202
0.564087
0.564142
0.564258
0.564492
0.564981
0.565112
0.564884
0.564202
0.563511
0.563207
0.563544
0.564342
0.565511
0.565375
0.564466
0.563121
0.562401
0.562922
0.563759
0.564023
0.563761
0.563886
0.563799
0.563486
0.563016
0.562524
0.603057
0.60251
0.60223
0.602252
0.602468
0.602456
0.602065
0.601492
0.601444
0.60147
0.601124
0.600595
0.600474
0.600394
0.600104
0.599567
0.599504
0.599473
0.599281
0.598635
0.598374
0.598367
0.598273
0.597982
0.597531
0.59734
0.597405
0.597394
0.596975
0.596891
0.596908
0.596765
0.596531
0.596163
0.595987
0.596034
0.596042
0.595829
0.595356
0.594932
0.594189
0.593695
0.593687
0.593627
0.593361
0.593141
0.593241
0.593565
0.593854
0.593925
0.593921
0.5941
0.594828
0.596018
0.597087
0.597368
0.597281
0.597293
0.597737
0.598592
0.598792
0.598633
0.598124
0.59786
0.597527
0.596951
0.59632
0.595608
0.594599
0.593452
0.592383
0.591312
0.590586
0.590019
0.589768
0.589863
0.589782
0.589448
0.58887
0.588175
0.587413
0.586525
0.5859
0.585587
0.585382
0.584892
0.583805
0.582804
0.581512
0.58173
0.58196
0.581571
0.581006
0.580065
0.579193
0.578495
0.577674
0.576616
0.576683
0.576832
0.639181
0.639117
0.639023
0.638899
0.638828
0.638859
0.638955
0.638936
0.638631
0.638107
0.637981
0.638194
0.638399
0.638339
0.638105
0.63787
0.637664
0.63745
0.637399
0.637366
0.637123
0.636663
0.636643
0.636911
0.636914
0.636568
0.636344
0.636199
0.636015
0.635955
0.635816
0.63568
0.635729
0.635558
0.63538
0.635585
0.63565
0.63551
0.635423
0.635402
0.635279
0.634843
0.634573
0.634574
0.634495
0.634165
0.633515
0.632935
0.632402
0.631832
0.631197
0.630498
0.629791
0.629087
0.628246
0.627257
0.62621
0.625164
0.624068
0.622819
0.621655
0.62053
0.619148
0.617573
0.61591
0.614402
0.613292
0.612487
0.612214
0.612063
0.611864
0.611929
0.612441
0.61272
0.612717
0.612561
0.612091
0.61124
0.610239
0.609169
0.607839
0.607169
0.606514
0.605615
0.605115
0.604601
0.603991
0.603661
0.602969
0.602298
0.601216