/*--------------------------------*- C++ -*----------------------------------*\
  =========                 |
  \\      /  F ield         | OpenFOAM: The Open Source CFD Toolbox
   \\    /   O peration     | Website:  https://openfoam.org
    \\  /    A nd           | Version:  7
     \\/     M anipulation  |
\*---------------------------------------------------------------------------*/
FoamFile
{
    version     2.0;
    format      ascii;
    class       volScalarField;
    location    "11.5";
    object      p;
}
// * * * * * * * * * * * * * * * * * * * * * * * * * * * * * * * * * * * * * //

dimensions      [1 -1 -2 0 0 0 0];

internalField   nonuniform List<scalar> 
90000
(
0.185502
0.225974
0.267168
0.307261
0.332871
0.358288
0.390183
0.419534
0.444834
0.474532
0.509454
0.545658
0.581298
0.622151
0.665932
0.710836
0.758031
0.805234
0.852886
0.893743
0.932717
0.959539
0.984731
0.990641
0.993379
0.992527
0.990759
0.986959
0.982631
0.977075
0.972006
0.966141
0.965203
0.965369
0.964354
0.962336
0.958895
0.953082
0.944752
0.934374
0.932449
0.936231
0.946548
0.958308
0.971412
0.983229
0.992479
0.995004
0.989169
0.978545
0.965849
0.955663
0.950619
0.950823
0.955912
0.962967
0.970694
0.977832
0.976797
0.973432
0.967627
0.962657
0.961812
0.963717
0.96831
0.973808
0.974983
0.972688
0.968052
0.964898
0.964668
0.967865
0.972407
0.974171
0.972017
0.969036
0.967681
0.969292
0.973708
0.974633
0.972346
0.96944
0.968641
0.970095
0.971321
0.97076
0.970224
0.969878
0.969508
0.968953
0.968581
0.968657
0.968655
0.968238
0.967627
0.967718
0.968508
0.969687
0.970411
0.972458
0.147747
0.147721
0.147695
0.147672
0.147645
0.147617
0.147592
0.14757
0.147554
0.148061
0.149634
0.152956
0.158053
0.166672
0.178762
0.196789
0.219841
0.252164
0.290309
0.338884
0.393453
0.456982
0.524406
0.589972
0.651627
0.706189
0.757443
0.798881
0.838056
0.864253
0.890079
0.906632
0.924611
0.935629
0.946266
0.951095
0.956714
0.956875
0.956466
0.96215
0.973704
0.982779
0.986079
0.987994
0.987902
0.988729
0.984927
0.976832
0.964327
0.953975
0.952048
0.955068
0.960167
0.965919
0.971017
0.97544
0.978178
0.976685
0.972166
0.965054
0.95916
0.958205
0.961718
0.967006
0.973667
0.976782
0.975018
0.969819
0.965365
0.965106
0.967503
0.97248
0.975216
0.973183
0.970042
0.968475
0.96985
0.974411
0.974722
0.972812
0.969488
0.9676
0.967944
0.970469
0.971312
0.970614
0.969981
0.969932
0.969707
0.969093
0.968874
0.968901
0.968629
0.967865
0.967524
0.967955
0.969014
0.970508
0.971703
0.973597
0.14772
0.147719
0.14772
0.147721
0.147724
0.147726
0.14773
0.147736
0.14774
0.14776
0.147735
0.147698
0.147659
0.147623
0.14759
0.147565
0.147543
0.147527
0.147511
0.147511
0.147465
0.148479
0.151961
0.16121
0.176308
0.201447
0.233419
0.277484
0.327541
0.38982
0.455553
0.527595
0.597975
0.666962
0.735831
0.796318
0.857341
0.905327
0.952406
0.982561
0.999425
1.00525
1.00381
1.00047
0.99428
0.982761
0.964509
0.940656
0.930195
0.934762
0.944252
0.954893
0.964937
0.973141
0.978069
0.981165
0.978968
0.971351
0.962482
0.958611
0.959445
0.964274
0.97239
0.976052
0.975852
0.972822
0.966245
0.962282
0.961232
0.966751
0.973695
0.976002
0.973918
0.968558
0.966272
0.967109
0.970886
0.976292
0.975583
0.97137
0.968658
0.968779
0.970486
0.971164
0.970582
0.970201
0.970052
0.969611
0.968669
0.968087
0.968562
0.968976
0.968648
0.967952
0.967734
0.968475
0.969487
0.970127
0.971192
0.973175
0.147752
0.147752
0.147753
0.147753
0.147753
0.147752
0.147752
0.14775
0.147749
0.147746
0.147742
0.147741
0.147739
0.147738
0.147738
0.147742
0.147745
0.14775
0.147752
0.147755
0.147761
0.147744
0.147719
0.147697
0.147682
0.147671
0.147668
0.147665
0.147675
0.14766
0.149012
0.155517
0.168277
0.193403
0.228065
0.280424
0.343891
0.426703
0.517711
0.608809
0.69549
0.764403
0.829648
0.867073
0.90305
0.912035
0.923042
0.927085
0.94273
0.955611
0.970448
0.979073
0.986297
0.986875
0.986015
0.981562
0.968042
0.956861
0.952651
0.954547
0.960731
0.969081
0.979227
0.981478
0.976867
0.967716
0.961103
0.960966
0.965931
0.970219
0.97736
0.976482
0.971232
0.966807
0.966499
0.971449
0.975922
0.975017
0.971882
0.96725
0.966378
0.967675
0.971241
0.97215
0.970699
0.969647
0.970036
0.970161
0.969378
0.968775
0.968621
0.968363
0.96762
0.967438
0.967772
0.968537
0.970179
0.971455
0.972175
0.97396
0.147783
0.14778
0.147776
0.147772
0.147768
0.147763
0.14776
0.147756
0.147752
0.147747
0.147744
0.147742
0.147739
0.147738
0.147739
0.147742
0.147745
0.147747
0.14775
0.147753
0.147755
0.147757
0.147762
0.147769
0.147778
0.147788
0.147796
0.147804
0.147811
0.147819
0.147808
0.147795
0.14778
0.147767
0.147754
0.147744
0.147717
0.148554
0.153814
0.172367
0.204708
0.261686
0.335642
0.434801
0.543849
0.654799
0.767155
0.855718
0.922992
0.946001
0.963288
0.969803
0.976857
0.97849
0.974736
0.958874
0.945639
0.949924
0.957065
0.96864
0.978561
0.981948
0.980547
0.975807
0.966487
0.958749
0.958588
0.961651
0.970367
0.979018
0.97771
0.971803
0.965046
0.964675
0.967115
0.973231
0.978773
0.975438
0.968685
0.966469
0.968263
0.971406
0.970995
0.97016
0.96968
0.969758
0.969195
0.968526
0.968098
0.968264
0.969138
0.968971
0.968289
0.967271
0.968446
0.969302
0.96926
0.970563
0.97234
0.974038
0.147746
0.147743
0.147738
0.147733
0.147728
0.147724
0.147722
0.14772
0.147719
0.147718
0.147719
0.147721
0.147722
0.147725
0.147729
0.147734
0.147741
0.147746
0.147751
0.147757
0.147761
0.147766
0.14777
0.147773
0.147776
0.147779
0.147781
0.147784
0.147785
0.147783
0.14778
0.147772
0.14776
0.147747
0.147737
0.147724
0.147708
0.147678
0.14765
0.147629
0.147614
0.147604
0.147588
0.149062
0.158162
0.189642
0.245529
0.342211
0.459005
0.581729
0.696224
0.775039
0.850787
0.884126
0.914768
0.921448
0.942534
0.962332
0.984285
0.995946
0.992583
0.983779
0.973354
0.957353
0.954038
0.95586
0.962308
0.974039
0.985575
0.983334
0.973881
0.963212
0.962177
0.965016
0.974861
0.980289
0.97825
0.970323
0.964725
0.965514
0.969172
0.972439
0.972194
0.970015
0.969252
0.970001
0.970017
0.969003
0.968429
0.968454
0.968303
0.967964
0.967689
0.96805
0.968097
0.969865
0.971025
0.971173
0.972289
0.974654
0.14768
0.147679
0.147678
0.147677
0.147677
0.147678
0.147679
0.14768
0.147683
0.147686
0.147691
0.147696
0.147702
0.147709
0.147715
0.147722
0.147729
0.147734
0.14774
0.147744
0.147746
0.147748
0.147751
0.147753
0.147754
0.147753
0.147752
0.147751
0.147749
0.147742
0.147738
0.147726
0.147707
0.147688
0.147678
0.147665
0.147648
0.147634
0.147627
0.147628
0.147633
0.147641
0.147654
0.147652
0.147663
0.147678
0.147702
0.147704
0.149836
0.170083
0.212762
0.297021
0.406994
0.541668
0.683126
0.802578
0.904534
0.942414
0.967458
0.975801
0.980471
0.977264
0.958843
0.945969
0.951588
0.967234
0.980162
0.986162
0.984756
0.972131
0.96093
0.95886
0.963139
0.975802
0.983377
0.980559
0.970318
0.963971
0.963762
0.96844
0.973729
0.973288
0.971051
0.969224
0.96912
0.969935
0.969651
0.968242
0.968101
0.969011
0.9688
0.967724
0.967219
0.967779
0.969367
0.969285
0.970676
0.972648
0.97332
0.974698
0.147663
0.147665
0.147667
0.147669
0.147673
0.147677
0.147681
0.147685
0.14769
0.147695
0.147702
0.147709
0.147715
0.147721
0.147725
0.14773
0.147734
0.147738
0.14774
0.147739
0.147738
0.147739
0.147739
0.147739
0.147738
0.147734
0.147729
0.147724
0.147719
0.14771
0.147702
0.147694
0.147683
0.147671
0.147663
0.14766
0.147664
0.147668
0.147671
0.147674
0.147684
0.147698
0.14771
0.147719
0.147743
0.147761
0.147769
0.147763
0.147748
0.147733
0.147719
0.147724
0.147731
0.16174
0.200468
0.294887
0.426296
0.574423
0.71719
0.804373
0.891645
0.912541
0.931077
0.946433
0.976991
0.996917
0.997002
0.993462
0.972271
0.95308
0.954145
0.962017
0.977421
0.989546
0.986582
0.970668
0.960893
0.960702
0.966802
0.975485
0.975359
0.972648
0.96852
0.968221
0.969926
0.970445
0.969052
0.967839
0.968262
0.969053
0.968762
0.96749
0.967268
0.967959
0.96953
0.970193
0.970625
0.972039
0.973733
0.975162
0.147714
0.147718
0.147721
0.147725
0.14773
0.147735
0.147739
0.147743
0.147745
0.147747
0.14775
0.147752
0.147754
0.147755
0.147756
0.147755
0.147755
0.147754
0.147751
0.147747
0.147743
0.14774
0.147738
0.147736
0.147732
0.147726
0.147719
0.14771
0.147703
0.147696
0.14769
0.147687
0.147687
0.147688
0.14769
0.147695
0.147706
0.147719
0.14773
0.14774
0.147754
0.147769
0.147773
0.147776
0.147792
0.147799
0.147788
0.147767
0.147744
0.147728
0.147714
0.147704
0.147709
0.147726
0.147764
0.147786
0.148396
0.170835
0.226561
0.343086
0.499506
0.666783
0.83139
0.92354
0.966459
0.980304
0.985392
0.974611
0.942788
0.947956
0.962488
0.9803
0.989373
0.987647
0.972622
0.957269
0.95746
0.96429
0.975749
0.977195
0.974473
0.967909
0.966367
0.969742
0.971521
0.969729
0.967117
0.967455
0.969405
0.969349
0.96794
0.966895
0.967403
0.969211
0.970154
0.970829
0.971496
0.972897
0.973593
0.975217
0.147785
0.147785
0.147785
0.147785
0.147786
0.147786
0.147786
0.147785
0.147783
0.14778
0.147776
0.147771
0.147766
0.14776
0.147755
0.14775
0.147745
0.14774
0.147735
0.14773
0.147725
0.14772
0.147718
0.147714
0.147707
0.147699
0.14769
0.14768
0.147671
0.147666
0.147668
0.147678
0.147691
0.147706
0.147718
0.14773
0.147747
0.147765
0.147778
0.147789
0.147806
0.14781
0.147804
0.147799
0.1478
0.147797
0.147785
0.14776
0.147729
0.147712
0.147697
0.147681
0.147678
0.147698
0.147731
0.147777
0.147823
0.147829
0.147821
0.147791
0.154077
0.202329
0.307304
0.480366
0.657276
0.777982
0.882265
0.911443
0.930833
0.962027
0.995167
1.00161
0.997067
0.97137
0.950688
0.952541
0.962866
0.978307
0.982402
0.977825
0.967065
0.964482
0.968733
0.973008
0.971078
0.96734
0.966388
0.968756
0.970337
0.968817
0.966507
0.966867
0.96856
0.970129
0.970091
0.970907
0.972226
0.97329
0.97391
0.975898
0.147797
0.147793
0.147789
0.147784
0.14778
0.147775
0.147769
0.147763
0.147758
0.147753
0.147745
0.147738
0.147731
0.147722
0.147711
0.147702
0.147694
0.147686
0.14768
0.147676
0.147672
0.14767
0.147668
0.147666
0.147662
0.147656
0.14765
0.147644
0.147639
0.147641
0.147655
0.147677
0.147703
0.147726
0.147741
0.147754
0.147772
0.147788
0.147799
0.147808
0.147818
0.147817
0.147806
0.147796
0.147788
0.147779
0.147766
0.147746
0.147718
0.147706
0.147702
0.147702
0.147712
0.147732
0.147759
0.147808
0.147856
0.14786
0.147849
0.147809
0.147763
0.147752
0.147752
0.155311
0.194686
0.306768
0.47846
0.681003
0.864514
0.949776
0.985921
0.987884
0.975067
0.937092
0.943988
0.963194
0.97894
0.984711
0.980078
0.966139
0.962199
0.965709
0.974018
0.973095
0.969623
0.965504
0.966856
0.970503
0.970085
0.96715
0.96611
0.967464
0.969796
0.970475
0.97054
0.971585
0.973148
0.973652
0.974006
0.976365
0.147741
0.147736
0.147729
0.147724
0.147719
0.147711
0.1477
0.147692
0.147687
0.147683
0.147678
0.147673
0.147668
0.147659
0.147645
0.147633
0.147626
0.147621
0.147617
0.147616
0.147616
0.147615
0.147617
0.147621
0.147625
0.147628
0.147628
0.147627
0.14763
0.147643
0.147665
0.147691
0.147723
0.147744
0.147756
0.147767
0.147775
0.147785
0.147796
0.147801
0.147804
0.147804
0.147794
0.147782
0.147774
0.147769
0.147762
0.147744
0.147734
0.147732
0.147736
0.147747
0.147761
0.147778
0.147817
0.147868
0.14788
0.147877
0.147861
0.14781
0.147761
0.147758
0.147774
0.147852
0.148052
0.148124
0.153631
0.206325
0.34866
0.545537
0.726547
0.845847
0.9097
0.92227
0.963473
0.993387
0.993172
0.988178
0.963652
0.956053
0.960691
0.974981
0.977569
0.97202
0.964268
0.964995
0.97023
0.97178
0.969472
0.965834
0.966232
0.968961
0.970252
0.970462
0.970862
0.972189
0.973841
0.974134
0.974454
0.977633
0.147684
0.14768
0.147674
0.147672
0.147669
0.14766
0.147649
0.147645
0.147642
0.147639
0.147637
0.147637
0.147637
0.147633
0.147622
0.14761
0.147605
0.147603
0.147606
0.147607
0.147605
0.147606
0.147613
0.147625
0.147639
0.147651
0.147658
0.147663
0.147673
0.147692
0.147714
0.14774
0.147765
0.147777
0.147784
0.147789
0.147788
0.147787
0.147799
0.147803
0.147796
0.14779
0.147783
0.14778
0.147783
0.147793
0.147803
0.14781
0.147826
0.147833
0.147823
0.147812
0.147806
0.147807
0.147836
0.147878
0.147877
0.147867
0.147844
0.147801
0.147785
0.147805
0.147877
0.148097
0.148299
0.148342
0.148366
0.148386
0.14835
0.164629
0.243156
0.410063
0.649152
0.846324
0.952615
0.981016
0.986476
0.965366
0.945834
0.956817
0.974351
0.982344
0.976392
0.960675
0.961281
0.968286
0.97393
0.972176
0.964777
0.964118
0.967587
0.970737
0.97052
0.970406
0.971273
0.97333
0.973831
0.97417
0.97478
0.978931
0.1477
0.147699
0.147698
0.147697
0.147696
0.147691
0.147684
0.147682
0.147681
0.14768
0.147681
0.147683
0.147685
0.147686
0.147686
0.147686
0.147687
0.14769
0.147694
0.147695
0.147696
0.147704
0.147717
0.147722
0.147727
0.147735
0.147741
0.147746
0.147752
0.147759
0.147769
0.147786
0.147799
0.147799
0.147801
0.147801
0.147794
0.147787
0.147792
0.147785
0.147772
0.147767
0.147768
0.147773
0.147782
0.147795
0.147809
0.147845
0.147903
0.147911
0.147897
0.147849
0.147816
0.147807
0.14782
0.14786
0.147866
0.147855
0.14783
0.147809
0.147838
0.147911
0.148051
0.148328
0.148428
0.148424
0.148417
0.148376
0.148251
0.148072
0.14774
0.148582
0.186678
0.344917
0.564834
0.737458
0.894347
0.908658
0.949072
0.982161
0.991504
0.986707
0.958294
0.954619
0.962605
0.976044
0.975315
0.966784
0.961405
0.964532
0.971377
0.971511
0.970223
0.970466
0.972394
0.974079
0.973905
0.974085
0.975515
0.980683
0.147737
0.147742
0.147748
0.147754
0.147759
0.147764
0.147767
0.147769
0.14777
0.147774
0.14778
0.147791
0.147807
0.147811
0.147811
0.147812
0.147813
0.147815
0.147816
0.147815
0.147816
0.147822
0.147823
0.147818
0.147809
0.1478
0.147793
0.14779
0.147792
0.14779
0.147793
0.147801
0.1478
0.14779
0.14778
0.147779
0.147779
0.147776
0.14778
0.147773
0.147763
0.147763
0.147773
0.147795
0.147812
0.14782
0.147845
0.147926
0.147975
0.147974
0.147949
0.147876
0.147807
0.147788
0.147792
0.147846
0.147873
0.147865
0.147846
0.147871
0.147961
0.14808
0.148274
0.148467
0.148488
0.14848
0.148445
0.148292
0.148057
0.147771
0.147561
0.147508
0.147528
0.14763
0.165899
0.274193
0.487176
0.7279
0.924037
0.971841
0.982927
0.964394
0.937424
0.955386
0.979165
0.979839
0.970287
0.95831
0.960206
0.971375
0.973411
0.971213
0.969411
0.970844
0.974077
0.97458
0.973798
0.974274
0.977064
0.982493
0.147823
0.147835
0.147845
0.147855
0.147866
0.14788
0.147892
0.147903
0.147912
0.14792
0.147928
0.147935
0.147939
0.147939
0.147936
0.14793
0.147925
0.147916
0.147904
0.1479
0.147895
0.147884
0.147868
0.147854
0.14784
0.147823
0.147806
0.147798
0.147793
0.147787
0.147783
0.14778
0.147772
0.147757
0.147756
0.147764
0.147775
0.147783
0.14779
0.147799
0.14781
0.147824
0.147841
0.147862
0.147885
0.147899
0.14794
0.148002
0.148016
0.148012
0.147982
0.147892
0.147785
0.147761
0.147762
0.14781
0.147897
0.147942
0.147982
0.148061
0.148145
0.148252
0.14841
0.148501
0.148505
0.148488
0.148375
0.148092
0.147783
0.147561
0.147489
0.147494
0.147621
0.14795
0.148323
0.148392
0.154288
0.246565
0.449373
0.669113
0.863809
0.902339
0.937063
0.990304
0.993284
0.982641
0.954101
0.955123
0.967757
0.977179
0.973273
0.968061
0.969063
0.97368
0.975385
0.974139
0.973516
0.974687
0.979648
0.983785
0.147909
0.147918
0.147925
0.147933
0.14794
0.147946
0.147953
0.147959
0.147963
0.147965
0.147969
0.147973
0.147972
0.147963
0.147959
0.14796
0.147957
0.147938
0.147918
0.147912
0.147903
0.147876
0.147852
0.147838
0.147821
0.147792
0.147771
0.147764
0.14776
0.147751
0.147745
0.14775
0.147756
0.147758
0.147761
0.147778
0.147824
0.147873
0.147895
0.147899
0.147902
0.147915
0.147915
0.147912
0.147928
0.147947
0.147981
0.148005
0.147994
0.147979
0.147959
0.147879
0.147777
0.147754
0.147758
0.147815
0.147968
0.148141
0.148293
0.148335
0.148321
0.148357
0.14844
0.148489
0.148441
0.148322
0.148066
0.147757
0.147545
0.147457
0.14747
0.147546
0.147854
0.148254
0.148456
0.148464
0.148245
0.147623
0.1499
0.222074
0.413213
0.687418
0.905141
0.981478
0.982052
0.950672
0.943689
0.963644
0.980681
0.978045
0.965745
0.966428
0.972096
0.97613
0.974975
0.973172
0.97354
0.977704
0.982338
0.984532
0.147974
0.147978
0.147983
0.147984
0.147984
0.14798
0.147977
0.147977
0.147976
0.147971
0.14797
0.147972
0.147966
0.147958
0.147956
0.14796
0.147959
0.147943
0.147923
0.147916
0.147902
0.147871
0.147841
0.147819
0.147794
0.147767
0.147756
0.147759
0.147764
0.147765
0.147758
0.14775
0.147759
0.147788
0.147822
0.147875
0.147978
0.148023
0.148011
0.147996
0.147994
0.147984
0.147943
0.147921
0.147927
0.147951
0.147948
0.147929
0.147881
0.147857
0.147868
0.147857
0.147788
0.147785
0.147831
0.147947
0.148142
0.148404
0.148511
0.148502
0.148431
0.148401
0.148427
0.148377
0.148206
0.147967
0.147629
0.147443
0.147404
0.147429
0.147475
0.147729
0.148185
0.148419
0.148479
0.148276
0.147724
0.147203
0.147026
0.147089
0.147765
0.218191
0.426254
0.6789
0.848545
0.906993
0.94602
0.995117
0.990874
0.968229
0.960136
0.967127
0.977725
0.977261
0.973166
0.972461
0.975369
0.981824
0.984463
0.98477
0.147865
0.147861
0.147858
0.147857
0.147857
0.147855
0.147844
0.147835
0.147829
0.147821
0.147819
0.147823
0.147841
0.147872
0.147899
0.147916
0.147918
0.147911
0.147901
0.147892
0.14787
0.147832
0.147823
0.147815
0.147803
0.147803
0.147806
0.147816
0.147822
0.147819
0.14781
0.147813
0.147835
0.147862
0.147888
0.147953
0.148039
0.148051
0.148037
0.148038
0.148032
0.147991
0.147921
0.147899
0.147903
0.147892
0.147862
0.147818
0.14778
0.147799
0.147849
0.147845
0.147855
0.147927
0.148044
0.148173
0.148361
0.148545
0.14857
0.14855
0.148464
0.148375
0.148283
0.148054
0.147803
0.147553
0.147296
0.147267
0.147317
0.147396
0.147681
0.148137
0.148398
0.148493
0.148258
0.147763
0.147164
0.146922
0.146959
0.147313
0.147961
0.147988
0.149884
0.215149
0.425606
0.739635
0.92026
0.985001
0.978265
0.949837
0.963291
0.979333
0.980376
0.975342
0.971069
0.972464
0.97961
0.984396
0.984891
0.984973
0.147696
0.147701
0.147704
0.147705
0.147702
0.147687
0.147679
0.147677
0.147678
0.147683
0.147701
0.147737
0.147788
0.147858
0.147932
0.147965
0.147972
0.147979
0.147992
0.148001
0.147996
0.147978
0.147964
0.147956
0.147955
0.147961
0.147954
0.147943
0.147945
0.147933
0.147895
0.147879
0.147884
0.147895
0.14792
0.148
0.148035
0.148026
0.14803
0.148048
0.148041
0.147988
0.147906
0.147886
0.147871
0.147828
0.147771
0.14773
0.147731
0.147788
0.147873
0.147934
0.148033
0.148166
0.148269
0.148361
0.14846
0.148568
0.148576
0.148533
0.148333
0.148094
0.1478
0.147523
0.147362
0.147226
0.147135
0.147164
0.147234
0.147565
0.148143
0.148454
0.14849
0.148234
0.147742
0.147244
0.146877
0.146877
0.147177
0.147855
0.148292
0.148149
0.147695
0.147425
0.149876
0.238482
0.475163
0.767363
0.863559
0.930047
0.989157
0.98746
0.978718
0.968062
0.969025
0.978138
0.985754
0.985104
0.984139
0.984863
0.147691
0.1477
0.147708
0.147707
0.147694
0.147691
0.147704
0.147713
0.147712
0.147726
0.147765
0.147819
0.147897
0.148014
0.148111
0.148138
0.148138
0.148126
0.148118
0.148122
0.148131
0.148124
0.14809
0.148064
0.148066
0.148061
0.148024
0.147999
0.148003
0.147988
0.147935
0.147872
0.147833
0.14783
0.147845
0.147846
0.147833
0.147823
0.147837
0.147902
0.14793
0.147906
0.147839
0.147815
0.14781
0.147795
0.147744
0.147711
0.14772
0.147809
0.14794
0.148157
0.148307
0.148369
0.148398
0.148431
0.14846
0.1484
0.148279
0.148036
0.147756
0.147525
0.147252
0.147112
0.147079
0.147064
0.147073
0.147176
0.147544
0.148141
0.148621
0.148582
0.148284
0.147668
0.147283
0.14696
0.146826
0.147122
0.147973
0.148681
0.148603
0.148025
0.147661
0.147944
0.148815
0.149005
0.160262
0.263234
0.538992
0.840472
0.957343
0.979589
0.974509
0.962193
0.975621
0.98581
0.985098
0.984361
0.984808
0.985826
0.147849
0.147857
0.147853
0.147845
0.147845
0.14787
0.147896
0.147892
0.147883
0.147894
0.147917
0.147943
0.147999
0.148094
0.148158
0.148175
0.148179
0.148177
0.148165
0.148163
0.148165
0.148158
0.148117
0.148089
0.148086
0.148065
0.147999
0.147987
0.147979
0.147927
0.147796
0.147635
0.147507
0.147433
0.147421
0.147429
0.147454
0.147471
0.147502
0.147608
0.147717
0.147725
0.147709
0.14771
0.147712
0.147706
0.147663
0.147664
0.147746
0.147897
0.148115
0.148396
0.148462
0.148453
0.148437
0.148364
0.148099
0.147817
0.147566
0.147352
0.147261
0.147172
0.147029
0.146986
0.146995
0.147068
0.14735
0.147889
0.148401
0.14882
0.148788
0.148469
0.147787
0.147295
0.147128
0.146873
0.14739
0.148534
0.149497
0.149425
0.148902
0.148037
0.148754
0.150543
0.151772
0.151619
0.151563
0.151972
0.176965
0.327126
0.603551
0.853693
0.927942
0.958873
0.995268
0.988875
0.982974
0.984406
0.985791
0.985979
0.147974
0.147978
0.147977
0.147971
0.147958
0.14793
0.147901
0.147887
0.147886
0.14789
0.147891
0.147889
0.147902
0.147953
0.147962
0.147958
0.14795
0.147936
0.147911
0.147896
0.147888
0.147871
0.147842
0.147798
0.14772
0.147585
0.147452
0.147431
0.147433
0.147408
0.147304
0.147139
0.147087
0.147086
0.147092
0.147128
0.147184
0.147238
0.14731
0.147445
0.147579
0.147617
0.147634
0.147658
0.147756
0.147894
0.147983
0.148068
0.14816
0.148232
0.148327
0.148452
0.148434
0.148349
0.148258
0.148052
0.147686
0.147383
0.147156
0.14712
0.147133
0.147115
0.14707
0.147098
0.147313
0.147759
0.148497
0.149037
0.149233
0.149083
0.148788
0.148091
0.147476
0.147252
0.147176
0.148189
0.149708
0.150836
0.150716
0.150183
0.149472
0.150445
0.15201
0.153819
0.154175
0.154757
0.155829
0.157254
0.158387
0.15915
0.203411
0.401639
0.731445
0.914856
0.987516
0.980258
0.982832
0.984653
0.985338
0.986571
0.147777
0.147774
0.147765
0.147751
0.147723
0.147675
0.147637
0.147597
0.147544
0.147499
0.147454
0.147426
0.147418
0.147417
0.147413
0.14738
0.147359
0.147336
0.147301
0.147279
0.147289
0.147312
0.147319
0.147319
0.147285
0.147209
0.14715
0.147132
0.147134
0.147145
0.147119
0.147037
0.147024
0.147032
0.147063
0.147126
0.147213
0.147323
0.147445
0.147571
0.147819
0.148102
0.148237
0.148355
0.148509
0.148548
0.148524
0.148487
0.148481
0.148464
0.148412
0.148322
0.148185
0.148067
0.147964
0.147772
0.14749
0.147213
0.147101
0.147114
0.1472
0.147334
0.147639
0.14818
0.148907
0.149562
0.150201
0.150121
0.149749
0.1491
0.14863
0.147867
0.147881
0.148618
0.15047
0.152193
0.153062
0.152762
0.151733
0.151784
0.153582
0.156198
0.157067
0.157281
0.158275
0.159833
0.161426
0.162782
0.163939
0.165285
0.166193
0.167768
0.254089
0.511015
0.829112
0.903255
0.979297
0.985637
0.984121
0.985853
0.147596
0.147599
0.147596
0.147578
0.147551
0.147526
0.147511
0.147478
0.147393
0.147365
0.147353
0.147331
0.147314
0.147328
0.147341
0.147313
0.147292
0.14729
0.147267
0.147245
0.147257
0.147301
0.147324
0.147328
0.147314
0.147264
0.147254
0.14728
0.147352
0.147456
0.147555
0.147642
0.14777
0.147983
0.148133
0.148194
0.148274
0.14842
0.148595
0.148763
0.149026
0.149211
0.149222
0.149189
0.149129
0.14903
0.148841
0.148711
0.148689
0.148642
0.148516
0.148239
0.148076
0.148044
0.147989
0.147804
0.147509
0.147435
0.147523
0.147876
0.148638
0.149498
0.15033
0.150949
0.151284
0.151463
0.151399
0.150894
0.150023
0.149087
0.149266
0.150236
0.152374
0.154386
0.156377
0.156299
0.155928
0.155513
0.156103
0.158297
0.160493
0.162232
0.162314
0.162782
0.163801
0.164985
0.166659
0.16862
0.170421
0.171663
0.172866
0.175051
0.175716
0.194635
0.338367
0.642678
0.911626
0.94969
0.98084
0.989825
0.147624
0.147635
0.147637
0.14763
0.147614
0.147605
0.147608
0.147604
0.147569
0.147565
0.147562
0.147509
0.147479
0.14747
0.1475
0.147542
0.14754
0.147571
0.147635
0.147645
0.147667
0.147754
0.147908
0.148088
0.148295
0.148495
0.148636
0.148767
0.148948
0.149172
0.149391
0.149562
0.149719
0.149867
0.149924
0.149903
0.149875
0.149876
0.149928
0.150007
0.150009
0.149967
0.149869
0.149751
0.149612
0.149316
0.148889
0.148848
0.14882
0.148718
0.148537
0.148324
0.148309
0.148382
0.148499
0.148749
0.149387
0.150287
0.151175
0.152134
0.152958
0.153457
0.153759
0.153786
0.153439
0.153006
0.15258
0.152342
0.152856
0.154377
0.156468
0.158726
0.16027
0.161125
0.16089
0.160469
0.160755
0.161976
0.164356
0.166476
0.167123
0.167595
0.168561
0.169863
0.171206
0.172888
0.174941
0.176324
0.177343
0.178288
0.17902
0.180479
0.182877
0.183672
0.184247
0.242579
0.470766
0.749113
0.932049
0.978843
0.149326
0.149406
0.149508
0.149588
0.149594
0.149588
0.149602
0.149723
0.149839
0.14986
0.149875
0.149892
0.149887
0.149894
0.149956
0.149991
0.150013
0.150114
0.150252
0.150266
0.150271
0.150325
0.150424
0.150568
0.150804
0.150913
0.150902
0.150901
0.150948
0.151061
0.151136
0.151179
0.151198
0.151134
0.151053
0.151014
0.150922
0.150799
0.150762
0.150699
0.150519
0.150175
0.149893
0.149772
0.149662
0.149485
0.14943
0.14952
0.149785
0.150258
0.150762
0.151347
0.152129
0.15307
0.154141
0.155362
0.15639
0.157157
0.157738
0.158311
0.158378
0.158118
0.157896
0.157926
0.158004
0.158389
0.159326
0.161039
0.163035
0.165006
0.166149
0.166955
0.166683
0.166389
0.16654
0.167436
0.169032
0.171182
0.173442
0.17382
0.174221
0.175211
0.176724
0.178017
0.179267
0.180872
0.182142
0.183076
0.183977
0.185396
0.187019
0.188166
0.190073
0.191473
0.192529
0.193176
0.200195
0.336273
0.612822
0.908992
0.153013
0.152971
0.15298
0.153097
0.153177
0.153152
0.153016
0.152943
0.152942
0.152944
0.152926
0.152843
0.152705
0.152645
0.152664
0.152686
0.152631
0.152442
0.152344
0.15227
0.152249
0.152259
0.152217
0.152118
0.152119
0.152081
0.151969
0.151987
0.15196
0.151994
0.152015
0.152011
0.152029
0.151901
0.15187
0.152066
0.15221
0.152325
0.152531
0.152886
0.153247
0.15359
0.154112
0.15495
0.155987
0.157054
0.158192
0.159243
0.160272
0.161308
0.162209
0.162963
0.16358
0.164114
0.164542
0.164877
0.164787
0.164774
0.164946
0.16514
0.165026
0.165023
0.165348
0.16618
0.167544
0.169079
0.170564
0.17197
0.172878
0.173287
0.173597
0.173622
0.173857
0.174544
0.176122
0.17807
0.179768
0.181238
0.181619
0.182226
0.18306
0.183955
0.185115
0.186272
0.187836
0.189469
0.190097
0.19116
0.192641
0.193787
0.195327
0.196531
0.197256
0.198464
0.199364
0.20078
0.202086
0.202671
0.237685
0.590439
0.158026
0.158094
0.158172
0.158258
0.158351
0.158452
0.158578
0.158716
0.158864
0.159027
0.159184
0.159401
0.159613
0.159749
0.159899
0.160038
0.160252
0.160537
0.160745
0.160913
0.16109
0.16126
0.161465
0.161797
0.162142
0.162457
0.16284
0.163315
0.163848
0.164355
0.164811
0.165281
0.165798
0.166387
0.166961
0.167441
0.167907
0.168397
0.168908
0.169377
0.169817
0.170267
0.170763
0.171104
0.171362
0.171635
0.171922
0.172166
0.172348
0.172393
0.172363
0.172358
0.172325
0.172337
0.172278
0.17198
0.171765
0.171855
0.172298
0.173175
0.17424
0.175455
0.176883
0.178307
0.179589
0.180732
0.181445
0.182215
0.182547
0.182431
0.182562
0.183339
0.184672
0.186264
0.18756
0.188544
0.189622
0.189875
0.190272
0.191054
0.19216
0.193403
0.194506
0.196032
0.197211
0.198347
0.199319
0.199711
0.20029
0.201039
0.202525
0.204432
0.2053
0.206353
0.2082
0.20931
0.209756
0.211094
0.211639
0.272087
0.17341
0.173483
0.173572
0.173678
0.173779
0.173883
0.17401
0.174137
0.17427
0.174421
0.174562
0.174753
0.174927
0.175069
0.175263
0.175389
0.175508
0.175749
0.175906
0.176008
0.176116
0.176238
0.176381
0.176568
0.176721
0.176808
0.17692
0.177076
0.177213
0.177276
0.177327
0.177404
0.177596
0.177708
0.177686
0.177692
0.177807
0.177844
0.177829
0.17785
0.177943
0.178113
0.178125
0.177838
0.177756
0.177892
0.177889
0.178045
0.178247
0.178234
0.178336
0.178861
0.179683
0.180609
0.181574
0.182657
0.183928
0.185342
0.186797
0.188181
0.189494
0.190621
0.191517
0.191948
0.192135
0.192391
0.192374
0.192429
0.192717
0.193207
0.194058
0.195023
0.196244
0.197416
0.198246
0.198953
0.199381
0.200013
0.200876
0.201698
0.202791
0.20392
0.204967
0.206401
0.206747
0.206971
0.207838
0.208919
0.210018
0.21154
0.212737
0.21352
0.214123
0.21472
0.215616
0.216507
0.217962
0.21893
0.219701
0.220699
0.186762
0.186804
0.18687
0.186938
0.186939
0.18695
0.187025
0.187032
0.187048
0.187097
0.187153
0.187207
0.187291
0.187474
0.187553
0.187542
0.187556
0.187647
0.187757
0.187841
0.188005
0.188093
0.188067
0.188106
0.188191
0.188232
0.1883
0.18849
0.188677
0.188766
0.1889
0.189154
0.189464
0.189747
0.190036
0.190378
0.190785
0.191236
0.191698
0.192218
0.192742
0.193268
0.193836
0.194507
0.195219
0.195909
0.196604
0.197323
0.198074
0.198889
0.199806
0.200613
0.201196
0.201672
0.202172
0.202696
0.202946
0.203162
0.203241
0.203172
0.203206
0.20328
0.203167
0.202752
0.202502
0.202652
0.202985
0.203661
0.204479
0.205641
0.206965
0.208017
0.208946
0.209435
0.210042
0.210381
0.210705
0.21122
0.211886
0.21275
0.213646
0.21452
0.215199
0.215722
0.216781
0.217359
0.217812
0.218833
0.220156
0.221553
0.221602
0.221647
0.222522
0.223767
0.224489
0.225756
0.226875
0.227501
0.228248
0.229743
0.204229
0.204306
0.204424
0.204564
0.204712
0.204808
0.204916
0.205038
0.205124
0.205148
0.205147
0.205207
0.205515
0.205702
0.205778
0.205937
0.206106
0.206295
0.206554
0.206689
0.206805
0.207006
0.207219
0.207405
0.20759
0.20781
0.208115
0.208409
0.208611
0.208788
0.209081
0.209424
0.209489
0.209514
0.209621
0.209864
0.210111
0.210275
0.210429
0.210635
0.210858
0.211061
0.211328
0.211523
0.211684
0.211852
0.211963
0.21194
0.211823
0.211753
0.211766
0.211686
0.211424
0.211164
0.211201
0.211223
0.210987
0.210624
0.210374
0.210368
0.210561
0.211137
0.212009
0.212999
0.214124
0.215389
0.21684
0.218321
0.21945
0.220402
0.220852
0.221282
0.22112
0.221066
0.221098
0.221343
0.221805
0.222468
0.223467
0.224621
0.225598
0.226565
0.227137
0.22727
0.227586
0.228511
0.229305
0.230037
0.23052
0.23115
0.231866
0.232894
0.233768
0.234527
0.235339
0.235503
0.235598
0.236345
0.237206
0.238328
0.222087
0.222155
0.222134
0.22212
0.222103
0.222115
0.222263
0.222363
0.222331
0.222245
0.22221
0.222253
0.222475
0.222561
0.222493
0.22241
0.222412
0.222478
0.222578
0.222696
0.222739
0.222742
0.222727
0.22273
0.222771
0.222801
0.22285
0.222924
0.222895
0.222897
0.222933
0.222877
0.222875
0.22299
0.223208
0.223305
0.223267
0.223124
0.223121
0.223257
0.223277
0.223264
0.223304
0.223344
0.223397
0.223603
0.223845
0.223977
0.224187
0.224577
0.22509
0.225664
0.22628
0.226902
0.227515
0.228167
0.228972
0.22994
0.231008
0.232093
0.232977
0.233686
0.234287
0.234797
0.235136
0.235349
0.235495
0.235365
0.234993
0.234517
0.234313
0.23398
0.233794
0.234001
0.23459
0.235587
0.236737
0.237706
0.238685
0.239117
0.239316
0.239189
0.239332
0.23949
0.239652
0.240065
0.241028
0.241945
0.242308
0.242552
0.242802
0.24327
0.243404
0.243746
0.244241
0.244773