/*--------------------------------*- C++ -*----------------------------------*\
  =========                 |
  \\      /  F ield         | OpenFOAM: The Open Source CFD Toolbox
   \\    /   O peration     | Website:  https://openfoam.org
    \\  /    A nd           | Version:  7
     \\/     M anipulation  |
\*---------------------------------------------------------------------------*/
FoamFile
{
    version     2.0;
    format      ascii;
    class       volScalarField;
    location    "11.5";
    object      T;
}
// * * * * * * * * * * * * * * * * * * * * * * * * * * * * * * * * * * * * * //

dimensions      [0 0 0 1 0 0 0];

internalField   nonuniform List<scalar> 
90000
(
0.67741
0.75357
0.815576
0.865782
0.889413
0.910125
0.933821
0.952631
0.965775
0.980469
0.997849
1.01531
1.03123
1.04962
1.06884
1.08816
1.10822
1.12783
1.14676
1.1621
1.17638
1.18535
1.19398
1.19503
1.19455
1.19299
1.1909
1.18783
1.18452
1.18079
1.17706
1.17337
1.17188
1.17068
1.16938
1.16783
1.16587
1.16319
1.15919
1.15497
1.1523
1.15314
1.15614
1.15953
1.1634
1.1666
1.16934
1.1692
1.16683
1.16239
1.15678
1.15205
1.14879
1.14726
1.14795
1.14921
1.15081
1.1517
1.15076
1.14856
1.14549
1.14249
1.14071
1.13995
1.14036
1.14087
1.14001
1.1382
1.13542
1.13295
1.13118
1.13094
1.13101
1.13013
1.12827
1.12588
1.12381
1.12281
1.12284
1.12176
1.11969
1.11717
1.11525
1.11411
1.11285
1.1111
1.10935
1.10768
1.10598
1.1042
1.10244
1.10082
1.09919
1.09744
1.09562
1.09404
1.09275
1.09161
1.09053
1.08911
0.589919
0.589795
0.58966
0.589522
0.589375
0.589219
0.589063
0.588904
0.58873
0.58971
0.592876
0.599709
0.610072
0.627289
0.650551
0.683497
0.722417
0.771977
0.822434
0.877278
0.927703
0.976578
1.01933
1.05478
1.08342
1.10673
1.1273
1.14325
1.15802
1.1676
1.1768
1.18234
1.18844
1.19126
1.19399
1.19416
1.19404
1.19266
1.1911
1.1927
1.19657
1.19932
1.19997
1.19984
1.19929
1.19858
1.1962
1.19235
1.18706
1.1831
1.18023
1.18035
1.18083
1.18154
1.1824
1.18313
1.18295
1.18173
1.17925
1.17561
1.17248
1.17025
1.17047
1.17104
1.17222
1.17171
1.17008
1.16698
1.16392
1.16219
1.16141
1.16157
1.16082
1.15886
1.1562
1.15377
1.15262
1.15225
1.15075
1.14855
1.14558
1.14294
1.14106
1.13991
1.13812
1.13586
1.13357
1.13147
1.12928
1.12688
1.12454
1.12226
1.11986
1.11728
1.11479
1.11256
1.11057
1.10872
1.10708
1.10437
0.588455
0.588337
0.588209
0.588074
0.587933
0.587785
0.587631
0.58747
0.587304
0.587132
0.586904
0.586644
0.586371
0.586097
0.585824
0.585559
0.585299
0.58505
0.584799
0.58458
0.584238
0.586152
0.593204
0.612082
0.641321
0.686101
0.735918
0.794842
0.850229
0.907064
0.956222
1.00278
1.04145
1.07662
1.10925
1.13703
1.16365
1.18347
1.2022
1.21315
1.22024
1.22016
1.21903
1.21704
1.21401
1.20908
1.20174
1.19245
1.18678
1.18812
1.19107
1.19441
1.19761
1.19993
1.2015
1.20141
1.20001
1.19666
1.19302
1.19062
1.18987
1.19057
1.19297
1.19311
1.19246
1.1905
1.18733
1.18495
1.18289
1.18384
1.18515
1.18459
1.18286
1.18007
1.17752
1.17623
1.17624
1.17631
1.17503
1.17221
1.16938
1.16766
1.16633
1.16464
1.16255
1.16043
1.15833
1.15604
1.15349
1.15093
1.14866
1.14628
1.14359
1.14069
1.13786
1.13529
1.13282
1.13014
1.12793
1.12425
0.586317
0.586188
0.58605
0.585906
0.585759
0.585607
0.585451
0.585291
0.585129
0.584962
0.584793
0.584625
0.584455
0.584286
0.584119
0.583956
0.583794
0.583636
0.583478
0.583322
0.583173
0.583002
0.582822
0.582648
0.582491
0.582346
0.582217
0.582092
0.581992
0.581842
0.58444
0.597357
0.621716
0.666232
0.719761
0.788073
0.854774
0.924654
0.985595
1.03739
1.07988
1.11202
1.14106
1.15793
1.17304
1.17775
1.18314
1.18547
1.19204
1.19724
1.2031
1.20642
1.20945
1.20937
1.20885
1.20695
1.20201
1.19762
1.19499
1.19533
1.19707
1.1996
1.20301
1.20268
1.20066
1.1971
1.19451
1.19345
1.19434
1.1954
1.19714
1.19631
1.1938
1.19181
1.19035
1.1913
1.1916
1.19072
1.18886
1.18626
1.18459
1.18376
1.18372
1.18274
1.18098
1.17911
1.17769
1.17602
1.17394
1.1718
1.16971
1.16748
1.16496
1.16248
1.16007
1.15765
1.15551
1.15306
1.15069
1.1467
0.584253
0.584153
0.584046
0.583937
0.583828
0.583717
0.583606
0.583494
0.583382
0.58327
0.583159
0.58305
0.582941
0.582835
0.582732
0.582632
0.582535
0.58244
0.582345
0.582255
0.582165
0.582076
0.581994
0.581916
0.581843
0.581774
0.581705
0.581638
0.581572
0.581509
0.581422
0.581327
0.581232
0.581142
0.581053
0.580971
0.580845
0.582399
0.592565
0.627554
0.681518
0.760811
0.840202
0.920702
0.989473
1.0501
1.10603
1.14853
1.17968
1.1911
1.19837
1.20078
1.20337
1.20394
1.2026
1.19713
1.19289
1.19408
1.19596
1.19978
1.20309
1.20462
1.20402
1.20226
1.19887
1.19577
1.19521
1.1962
1.19899
1.2015
1.20077
1.19852
1.19585
1.19488
1.19547
1.19737
1.19837
1.19682
1.19417
1.19255
1.19268
1.19294
1.1923
1.19136
1.19038
1.18954
1.18841
1.18717
1.1859
1.18478
1.1838
1.18235
1.18056
1.17846
1.17707
1.17539
1.17329
1.17146
1.16995
1.16664
0.582723
0.582662
0.582597
0.582531
0.582465
0.5824
0.582336
0.582274
0.582212
0.58215
0.582091
0.582033
0.581976
0.581919
0.581865
0.581814
0.581763
0.581712
0.581662
0.581613
0.581562
0.581512
0.581462
0.581411
0.58136
0.58131
0.581258
0.581206
0.581153
0.581096
0.581035
0.580971
0.580901
0.580828
0.580757
0.580683
0.580607
0.580502
0.580395
0.580301
0.580217
0.580145
0.580048
0.582759
0.600103
0.656438
0.739698
0.848538
0.939973
1.01476
1.07126
1.10892
1.14253
1.15749
1.17003
1.17401
1.18362
1.19244
1.20137
1.2064
1.20537
1.20262
1.19922
1.19445
1.19239
1.19297
1.19504
1.19913
1.20336
1.2024
1.19896
1.19554
1.1944
1.1952
1.19858
1.20046
1.19952
1.19657
1.19397
1.19402
1.19507
1.19567
1.19533
1.1943
1.1934
1.19326
1.19283
1.19203
1.19124
1.1907
1.19005
1.18923
1.18827
1.18743
1.18635
1.18596
1.18508
1.1837
1.18278
1.181
0.581771
0.581739
0.581705
0.581672
0.581638
0.581605
0.581572
0.58154
0.581508
0.581477
0.581448
0.581419
0.58139
0.581362
0.581332
0.581304
0.581274
0.581243
0.581211
0.581177
0.581139
0.581102
0.581064
0.581024
0.580983
0.580939
0.580892
0.580846
0.580797
0.580742
0.580686
0.580622
0.580549
0.580474
0.580406
0.580336
0.580263
0.580192
0.580128
0.580072
0.580021
0.579974
0.579932
0.579879
0.579849
0.579826
0.579809
0.579766
0.583762
0.621979
0.69135
0.797484
0.892647
0.980666
1.05473
1.11384
1.16021
1.17856
1.18953
1.19332
1.1963
1.19542
1.18938
1.1849
1.18658
1.19217
1.19674
1.19885
1.19885
1.19538
1.1914
1.19082
1.19248
1.19697
1.19945
1.1986
1.19531
1.1933
1.19274
1.19421
1.19618
1.19588
1.19493
1.19412
1.19374
1.19372
1.19346
1.19274
1.19232
1.19233
1.19201
1.19132
1.19067
1.19046
1.19052
1.19006
1.18995
1.18992
1.18958
1.18865
0.581242
0.581224
0.581206
0.581188
0.58117
0.581153
0.581135
0.581116
0.581097
0.581079
0.581061
0.581043
0.581023
0.581002
0.580979
0.580955
0.58093
0.580903
0.580873
0.580839
0.580804
0.58077
0.580734
0.580696
0.580656
0.580613
0.580567
0.58052
0.580471
0.580418
0.580363
0.580307
0.580245
0.580182
0.580124
0.580073
0.580029
0.579988
0.579946
0.579906
0.579874
0.579849
0.579819
0.579788
0.579779
0.579768
0.579749
0.579717
0.579668
0.579616
0.579562
0.579547
0.579541
0.606023
0.671646
0.795843
0.909392
1.00207
1.07225
1.11319
1.15117
1.16107
1.16996
1.17728
1.19049
1.19796
1.19883
1.19793
1.19128
1.18451
1.18508
1.18819
1.19392
1.19848
1.19759
1.19234
1.18866
1.18886
1.1912
1.1945
1.19471
1.19397
1.19258
1.19251
1.19315
1.19317
1.19264
1.1921
1.19215
1.1922
1.19198
1.1914
1.19104
1.19113
1.19147
1.19142
1.19135
1.19159
1.19189
1.19167
0.580935
0.580923
0.58091
0.580896
0.580884
0.58087
0.580855
0.580839
0.58082
0.580801
0.580781
0.580761
0.58074
0.580717
0.580692
0.580665
0.580637
0.580608
0.580575
0.58054
0.580504
0.580468
0.580433
0.580396
0.580357
0.580316
0.580272
0.580225
0.580178
0.580131
0.580085
0.580041
0.579999
0.57996
0.579923
0.579892
0.579871
0.579855
0.579836
0.579816
0.579801
0.579788
0.579765
0.57974
0.579731
0.579718
0.579688
0.579642
0.579594
0.57955
0.579507
0.579476
0.579476
0.579482
0.579508
0.579526
0.580619
0.622451
0.709228
0.838555
0.951743
1.04478
1.12377
1.16565
1.18448
1.18988
1.19237
1.18875
1.17778
1.17918
1.18438
1.1908
1.19402
1.19401
1.1895
1.18419
1.18437
1.18721
1.19089
1.19243
1.1916
1.18944
1.18916
1.1905
1.19149
1.19098
1.19024
1.19041
1.19125
1.19126
1.19084
1.19051
1.19063
1.19123
1.19146
1.19158
1.19172
1.19212
1.19214
1.19229
0.580685
0.580671
0.580655
0.58064
0.580624
0.580607
0.580588
0.580568
0.580547
0.580523
0.580498
0.580472
0.580444
0.580415
0.580386
0.580356
0.580326
0.580295
0.580263
0.58023
0.580196
0.580162
0.58013
0.580096
0.58006
0.580022
0.579982
0.57994
0.579897
0.579859
0.579834
0.579817
0.579805
0.579794
0.579782
0.579769
0.579767
0.579766
0.579761
0.579752
0.579748
0.579734
0.579709
0.579683
0.579665
0.579645
0.579615
0.579569
0.57952
0.579487
0.579457
0.579428
0.57942
0.579433
0.57946
0.579501
0.579532
0.57953
0.579514
0.579464
0.591137
0.674581
0.807683
0.948332
1.04343
1.1009
1.1457
1.1587
1.16731
1.18067
1.1927
1.19589
1.19455
1.18621
1.17911
1.1799
1.18399
1.18949
1.19121
1.18979
1.18619
1.18559
1.18734
1.1891
1.1887
1.18761
1.18755
1.18851
1.18943
1.18906
1.18855
1.18879
1.18954
1.19025
1.19036
1.19072
1.19121
1.19159
1.19179
1.19232
0.580383
0.580366
0.580348
0.580328
0.580309
0.580288
0.580265
0.580242
0.580219
0.580196
0.580169
0.580142
0.580116
0.580086
0.580053
0.580022
0.57999
0.579959
0.579931
0.579905
0.57988
0.579855
0.579832
0.579808
0.579783
0.579757
0.579729
0.5797
0.579671
0.579656
0.579659
0.579667
0.57968
0.579688
0.579686
0.579683
0.579685
0.579685
0.579683
0.57968
0.579677
0.579666
0.57964
0.579613
0.579589
0.579565
0.579538
0.579508
0.579475
0.579457
0.579442
0.579432
0.579437
0.579451
0.57947
0.579507
0.57953
0.579526
0.579507
0.579457
0.579394
0.579373
0.579374
0.593209
0.6607
0.803328
0.937507
1.05234
1.13991
1.17741
1.19186
1.19156
1.18683
1.17311
1.17533
1.18234
1.18771
1.18982
1.18861
1.18388
1.18264
1.18406
1.18728
1.18722
1.1862
1.18491
1.18559
1.18711
1.18724
1.18639
1.18635
1.18695
1.18793
1.18843
1.18867
1.18925
1.18998
1.19035
1.19059
1.1916
0.580033
0.580017
0.579998
0.57998
0.579963
0.579942
0.579917
0.579895
0.579875
0.579857
0.579839
0.57982
0.579801
0.579777
0.579746
0.579717
0.579691
0.579671
0.579654
0.579641
0.579626
0.579613
0.579604
0.579598
0.579592
0.579584
0.579573
0.579558
0.579554
0.579559
0.579571
0.579587
0.57961
0.579616
0.579614
0.579611
0.579607
0.579605
0.579605
0.579604
0.579601
0.579593
0.579569
0.579543
0.579527
0.579516
0.579503
0.579482
0.579463
0.579448
0.579444
0.579449
0.579456
0.579466
0.579499
0.579539
0.579541
0.579535
0.57951
0.579443
0.579378
0.579368
0.579381
0.579462
0.579679
0.579754
0.589654
0.679965
0.848238
0.98562
1.07909
1.1311
1.15787
1.16382
1.1807
1.19194
1.19191
1.19041
1.18199
1.17957
1.1813
1.18632
1.18762
1.1858
1.1832
1.18358
1.18559
1.18643
1.1856
1.18447
1.1848
1.18599
1.18653
1.1868
1.18714
1.18782
1.18859
1.18893
1.18921
1.19067
0.579747
0.579735
0.579723
0.579713
0.579703
0.579686
0.579668
0.579655
0.579644
0.579634
0.579624
0.579616
0.57961
0.579599
0.579579
0.57956
0.579546
0.579537
0.579534
0.579527
0.579517
0.579515
0.579518
0.579523
0.579527
0.579529
0.579527
0.579521
0.579523
0.579531
0.579543
0.579559
0.579579
0.579582
0.579581
0.579579
0.579571
0.579562
0.579567
0.579568
0.579555
0.579537
0.579518
0.579502
0.579502
0.579509
0.579515
0.579516
0.579524
0.579524
0.579509
0.579489
0.579472
0.579471
0.5795
0.579533
0.579526
0.579508
0.579474
0.57942
0.579387
0.579405
0.579481
0.579718
0.579929
0.579965
0.579996
0.580006
0.579958
0.609585
0.73038
0.888645
1.0364
1.13495
1.18036
1.19162
1.19137
1.18361
1.1761
1.17993
1.18622
1.18912
1.18728
1.1818
1.18202
1.18452
1.18657
1.18604
1.18332
1.18332
1.18458
1.1859
1.18593
1.18603
1.18647
1.18732
1.18761
1.18785
1.18824
1.19002
0.579618
0.579615
0.579609
0.579605
0.579601
0.579593
0.579584
0.579577
0.579572
0.579567
0.579565
0.579563
0.57956
0.579557
0.579551
0.579544
0.579536
0.579533
0.579532
0.579526
0.579524
0.579529
0.579537
0.579534
0.579532
0.579535
0.579534
0.579532
0.579532
0.579533
0.579539
0.579552
0.579566
0.579568
0.579568
0.579564
0.579549
0.579528
0.579528
0.579518
0.579494
0.579477
0.579473
0.579474
0.579479
0.57949
0.5795
0.579533
0.579583
0.579584
0.579564
0.579504
0.579461
0.579444
0.579455
0.57949
0.579491
0.579474
0.579442
0.579406
0.579437
0.579514
0.579666
0.579962
0.580051
0.580041
0.580029
0.579981
0.57984
0.57963
0.579246
0.580765
0.649442
0.847178
0.997583
1.08606
1.15463
1.16089
1.17695
1.1896
1.19269
1.19115
1.18196
1.18019
1.18296
1.18763
1.18739
1.18435
1.18254
1.18371
1.18594
1.18616
1.18581
1.18592
1.18664
1.1873
1.18731
1.18743
1.18802
1.18999
0.579576
0.57958
0.579583
0.579588
0.57959
0.579591
0.579591
0.579589
0.579588
0.579589
0.579593
0.579603
0.579616
0.579615
0.579614
0.579613
0.579612
0.57961
0.579607
0.579602
0.579601
0.5796
0.579597
0.579586
0.579571
0.579556
0.579543
0.579538
0.579538
0.579536
0.579539
0.579543
0.579538
0.57952
0.579498
0.579491
0.579485
0.579477
0.57948
0.579474
0.579461
0.579457
0.579463
0.579478
0.57949
0.579494
0.579515
0.579596
0.579632
0.579627
0.579594
0.57951
0.579428
0.579397
0.579398
0.579452
0.579478
0.579468
0.579438
0.579463
0.57956
0.579688
0.579902
0.580095
0.580102
0.58009
0.580049
0.579873
0.579607
0.579282
0.579037
0.578966
0.578988
0.579099
0.61215
0.767382
0.943434
1.08102
1.16923
1.1912
1.19154
1.18456
1.17475
1.18098
1.18924
1.18973
1.1864
1.18216
1.18279
1.18675
1.18723
1.18645
1.18579
1.18626
1.18736
1.18753
1.18729
1.18747
1.18845
1.19036
0.579618
0.579629
0.579639
0.579647
0.579658
0.57967
0.579682
0.579691
0.579699
0.579704
0.57971
0.579714
0.579713
0.579712
0.579705
0.579696
0.579688
0.579675
0.57966
0.579651
0.579643
0.579629
0.57961
0.579594
0.579576
0.579556
0.579535
0.579522
0.579511
0.5795
0.579491
0.579484
0.579468
0.579441
0.579435
0.579443
0.579454
0.579464
0.579469
0.579476
0.579484
0.579492
0.579503
0.579519
0.579539
0.579549
0.579588
0.57965
0.579659
0.579653
0.579616
0.579514
0.579389
0.579346
0.579345
0.579395
0.579485
0.579528
0.579568
0.579653
0.579744
0.57986
0.580032
0.580117
0.580116
0.580094
0.579961
0.579638
0.579287
0.579032
0.578944
0.578949
0.579087
0.579449
0.579873
0.579967
0.590507
0.737167
0.922951
1.05308
1.14202
1.15869
1.17275
1.19294
1.1945
1.19118
1.18143
1.18168
1.18592
1.18906
1.18764
1.18575
1.18604
1.18761
1.18815
1.18768
1.1874
1.1878
1.18955
1.19101
0.579663
0.579671
0.579678
0.579684
0.579691
0.579697
0.579702
0.579709
0.579713
0.579713
0.579713
0.579717
0.579715
0.579705
0.579697
0.579695
0.579689
0.579665
0.579641
0.579632
0.579619
0.579586
0.579556
0.579538
0.579516
0.57948
0.579451
0.57944
0.579433
0.579421
0.579409
0.57941
0.579414
0.579415
0.579419
0.579435
0.579482
0.579532
0.579553
0.579552
0.579552
0.579559
0.579554
0.579544
0.579557
0.579574
0.579613
0.579635
0.579621
0.579602
0.579578
0.57949
0.579369
0.579328
0.579331
0.579388
0.579547
0.57973
0.579891
0.579935
0.579918
0.579957
0.580049
0.580094
0.580036
0.579897
0.579603
0.579249
0.579009
0.578906
0.57892
0.579003
0.579343
0.579797
0.580059
0.580079
0.579845
0.579176
0.583372
0.702468
0.890696
1.06084
1.16332
1.193
1.19206
1.18059
1.17718
1.18432
1.19025
1.18934
1.18516
1.18538
1.18735
1.18879
1.18836
1.18769
1.18777
1.18924
1.19092
1.19161
0.579701
0.579705
0.57971
0.579711
0.579711
0.579707
0.579703
0.579702
0.5797
0.579693
0.57969
0.579691
0.579684
0.579672
0.579665
0.579667
0.579666
0.579648
0.579624
0.579611
0.579591
0.57955
0.579512
0.579483
0.579453
0.579422
0.579408
0.57941
0.579413
0.579412
0.579402
0.579392
0.579399
0.579426
0.579458
0.579512
0.579624
0.579669
0.579654
0.579633
0.579628
0.579616
0.579569
0.579537
0.579541
0.579564
0.579557
0.57953
0.579469
0.579439
0.579449
0.579439
0.579362
0.579355
0.5794
0.579521
0.579727
0.580007
0.580118
0.580105
0.580025
0.579995
0.580018
0.579959
0.579762
0.579486
0.579099
0.578887
0.578844
0.578873
0.578925
0.579209
0.579727
0.580019
0.580106
0.579891
0.579293
0.57872
0.578522
0.578593
0.579641
0.698314
0.907597
1.05701
1.1338
1.15999
1.17605
1.19466
1.19338
1.18608
1.18334
1.18578
1.18955
1.1894
1.18807
1.18771
1.18874
1.19104
1.19186
1.19182
0.579545
0.57954
0.579536
0.579532
0.579531
0.579528
0.579514
0.579502
0.579496
0.579485
0.57948
0.579484
0.579502
0.579537
0.579569
0.579585
0.579587
0.579578
0.579566
0.579556
0.57953
0.579486
0.579472
0.57946
0.579441
0.579436
0.579439
0.579446
0.579447
0.579441
0.579426
0.579427
0.579449
0.579477
0.579504
0.579573
0.579671
0.579686
0.579668
0.579666
0.579657
0.57961
0.57953
0.579494
0.579493
0.579477
0.579437
0.579377
0.579328
0.579346
0.579405
0.579402
0.579413
0.579493
0.579621
0.579757
0.579955
0.58015
0.580173
0.580151
0.580056
0.579951
0.579843
0.579582
0.579298
0.579013
0.578721
0.578689
0.578746
0.578837
0.579163
0.579684
0.580007
0.580132
0.57988
0.579341
0.578678
0.578406
0.578447
0.578845
0.579481
0.579526
0.58292
0.691348
0.897407
1.08882
1.17171
1.1942
1.19113
1.18035
1.18485
1.1901
1.19067
1.18907
1.18747
1.18792
1.19019
1.19185
1.19182
1.19177
0.579322
0.579326
0.579329
0.57933
0.579326
0.579309
0.5793
0.579297
0.579297
0.579302
0.579323
0.579362
0.579419
0.579498
0.579581
0.579611
0.579617
0.579622
0.579633
0.579642
0.579636
0.579615
0.579597
0.579579
0.579575
0.579579
0.579569
0.579552
0.57955
0.579532
0.579486
0.579473
0.579481
0.579495
0.579524
0.579613
0.579651
0.579641
0.579646
0.579667
0.579659
0.579599
0.579502
0.579466
0.579438
0.57938
0.579307
0.579253
0.579252
0.579314
0.579406
0.579476
0.579591
0.579743
0.579854
0.579948
0.580051
0.580167
0.580175
0.580125
0.579895
0.579621
0.579284
0.578973
0.578797
0.578644
0.578542
0.578576
0.578658
0.579038
0.579711
0.580084
0.580145
0.579869
0.579327
0.578769
0.578351
0.578352
0.578684
0.579423
0.579893
0.579726
0.579209
0.578907
0.582971
0.726832
0.941862
1.10087
1.14338
1.17049
1.19336
1.19276
1.18975
1.18604
1.18605
1.18887
1.19135
1.19113
1.19082
1.19104
0.579294
0.579305
0.579314
0.579313
0.579299
0.579294
0.579308
0.579317
0.579316
0.579332
0.579374
0.579432
0.579518
0.579649
0.579753
0.579779
0.579778
0.579762
0.579751
0.579754
0.579762
0.579754
0.579713
0.579675
0.579674
0.579668
0.579625
0.579592
0.579595
0.579577
0.579517
0.579446
0.579401
0.579397
0.579413
0.579414
0.579398
0.579385
0.5794
0.579472
0.579503
0.579477
0.579401
0.579362
0.579346
0.579321
0.579257
0.579217
0.579226
0.579324
0.579472
0.579719
0.579887
0.579952
0.579978
0.580012
0.580032
0.579962
0.579825
0.579553
0.579239
0.578976
0.578664
0.578512
0.578483
0.578464
0.578476
0.578599
0.579028
0.579727
0.5803
0.58026
0.579939
0.579256
0.578819
0.578443
0.578289
0.578614
0.579549
0.580312
0.580218
0.579568
0.579166
0.579488
0.580469
0.580679
0.599752
0.750353
0.973766
1.13029
1.17992
1.18698
1.18511
1.18048
1.18467
1.18812
1.18837
1.18832
1.18853
1.189
0.579449
0.579457
0.579453
0.579443
0.579443
0.579471
0.579499
0.579495
0.579485
0.579496
0.579524
0.579553
0.579616
0.579725
0.579798
0.579813
0.579815
0.579812
0.579796
0.579791
0.579792
0.579784
0.579736
0.579697
0.579688
0.579659
0.579581
0.57956
0.579545
0.57948
0.579329
0.579147
0.579003
0.578918
0.578905
0.578914
0.578942
0.578962
0.579
0.579122
0.579244
0.579253
0.579233
0.579232
0.57923
0.57922
0.579164
0.579162
0.579251
0.579416
0.579657
0.579971
0.580037
0.580027
0.580007
0.579918
0.579613
0.579295
0.57902
0.578786
0.578686
0.578582
0.578413
0.578377
0.578389
0.578482
0.578818
0.579451
0.580053
0.580545
0.580508
0.580153
0.579381
0.578831
0.578638
0.578334
0.5789
0.58016
0.581211
0.581128
0.580543
0.579587
0.580394
0.582387
0.583733
0.583561
0.583503
0.583952
0.62463
0.813327
1.0055
1.12191
1.15548
1.17023
1.18555
1.18387
1.18212
1.18256
1.18313
1.18366
0.579568
0.579574
0.579572
0.579566
0.579552
0.579521
0.579489
0.579474
0.579473
0.579477
0.579478
0.579475
0.57949
0.579549
0.579557
0.579551
0.57954
0.579521
0.579492
0.579473
0.579461
0.579439
0.579402
0.579348
0.579255
0.579096
0.578937
0.578908
0.57891
0.57888
0.578761
0.578574
0.578515
0.578514
0.578521
0.578561
0.578625
0.578688
0.578772
0.578928
0.579083
0.579125
0.579142
0.579167
0.579274
0.579421
0.579513
0.579601
0.579695
0.579768
0.579869
0.580009
0.579988
0.579894
0.579792
0.57956
0.579149
0.57881
0.578565
0.578533
0.578545
0.578518
0.578481
0.578525
0.578793
0.579324
0.580176
0.580795
0.58102
0.58084
0.580496
0.579701
0.578999
0.578777
0.578639
0.579761
0.581437
0.582683
0.582554
0.581966
0.581193
0.582278
0.584001
0.585972
0.58635
0.586974
0.588131
0.589661
0.590886
0.591703
0.659871
0.859632
1.05916
1.13885
1.17142
1.17035
1.17126
1.17244
1.17346
1.17472
0.579314
0.57931
0.5793
0.579285
0.579253
0.579198
0.579156
0.579111
0.579052
0.579002
0.578953
0.578923
0.578915
0.578914
0.578911
0.578874
0.578851
0.578826
0.578786
0.578759
0.57877
0.578792
0.578797
0.578796
0.578756
0.578665
0.578592
0.57857
0.578571
0.578581
0.57855
0.578456
0.57844
0.578449
0.578483
0.578553
0.57865
0.578774
0.578912
0.579051
0.579327
0.579639
0.579785
0.579913
0.580086
0.580117
0.580089
0.580047
0.580036
0.580014
0.579956
0.579858
0.579708
0.579579
0.579467
0.579253
0.578936
0.578623
0.578512
0.578531
0.578641
0.578818
0.579195
0.579829
0.580661
0.581392
0.58209
0.581995
0.581573
0.580829
0.580295
0.579426
0.579432
0.580235
0.582282
0.584173
0.585128
0.584805
0.583681
0.583739
0.585711
0.588543
0.589468
0.589692
0.590756
0.592412
0.594094
0.595517
0.596723
0.598119
0.599036
0.601052
0.722972
0.930843
1.08881
1.12282
1.15263
1.16053
1.16063
1.16199
0.579075
0.579079
0.579075
0.579056
0.579026
0.579
0.578985
0.578951
0.578857
0.578829
0.578819
0.578798
0.57878
0.578796
0.578812
0.578782
0.578761
0.57876
0.578735
0.57871
0.578724
0.578772
0.578793
0.578796
0.578778
0.578717
0.578703
0.57873
0.578806
0.57892
0.57903
0.579126
0.579268
0.579502
0.579664
0.579729
0.579817
0.579977
0.580168
0.580348
0.580632
0.580835
0.580849
0.580813
0.580748
0.580641
0.580435
0.580296
0.580277
0.580228
0.580089
0.579777
0.579592
0.579559
0.579503
0.579295
0.57898
0.578948
0.579054
0.579467
0.580343
0.581324
0.582254
0.582928
0.583282
0.583448
0.583368
0.5828
0.581809
0.580753
0.580941
0.58201
0.58436
0.586549
0.588709
0.588631
0.588237
0.587792
0.588427
0.590777
0.5931
0.594929
0.595018
0.595509
0.596575
0.597806
0.599535
0.601541
0.603365
0.604616
0.605827
0.607961
0.608636
0.634713
0.79494
0.991645
1.10814
1.1298
1.14375
1.14919
0.579094
0.579107
0.579109
0.579102
0.579085
0.579077
0.579081
0.579076
0.579038
0.579037
0.579036
0.578984
0.578957
0.578948
0.578983
0.57903
0.579027
0.57906
0.579129
0.579136
0.579158
0.579254
0.579426
0.579625
0.579853
0.580073
0.580226
0.580367
0.580566
0.580812
0.581055
0.581248
0.581422
0.581585
0.581647
0.581624
0.581594
0.581594
0.581647
0.581725
0.581725
0.581679
0.581576
0.581452
0.581305
0.580981
0.580511
0.580475
0.580451
0.580346
0.580144
0.579898
0.579897
0.579999
0.58016
0.580477
0.581223
0.582229
0.583193
0.584221
0.585106
0.585644
0.585953
0.585959
0.585567
0.585076
0.584592
0.584299
0.584861
0.586527
0.588795
0.591217
0.592857
0.593766
0.59352
0.593075
0.593377
0.594662
0.597144
0.599332
0.599992
0.600478
0.60147
0.602798
0.604157
0.605851
0.607899
0.609267
0.610268
0.611195
0.611907
0.613332
0.61564
0.616416
0.616947
0.692321
0.883163
1.03254
1.10251
1.12925
0.581016
0.581104
0.581217
0.581301
0.581305
0.581297
0.581313
0.581446
0.581573
0.581594
0.581608
0.581628
0.581622
0.58163
0.581701
0.581737
0.581755
0.581858
0.582003
0.582014
0.582016
0.582072
0.582179
0.582335
0.582591
0.582712
0.5827
0.5827
0.582754
0.582882
0.582968
0.583025
0.583053
0.582987
0.582904
0.582867
0.582771
0.582637
0.582592
0.582518
0.582316
0.581937
0.581636
0.581518
0.581408
0.581229
0.581198
0.581304
0.581606
0.582137
0.582702
0.583356
0.584221
0.585251
0.586411
0.58772
0.58881
0.58961
0.590211
0.590801
0.590859
0.590578
0.590333
0.590348
0.590425
0.590837
0.591842
0.593662
0.595758
0.597806
0.59899
0.599824
0.599547
0.59924
0.599393
0.600311
0.601941
0.60412
0.606389
0.606765
0.607167
0.608156
0.609656
0.610931
0.612156
0.613719
0.614944
0.615839
0.616697
0.618049
0.619587
0.620664
0.622451
0.623752
0.624678
0.625376
0.634135
0.782577
0.949675
1.0942
0.584907
0.584868
0.584879
0.585012
0.585105
0.585078
0.584936
0.584867
0.584869
0.584875
0.584859
0.584775
0.584634
0.584578
0.584601
0.584627
0.584569
0.584365
0.584269
0.584198
0.584178
0.584189
0.584145
0.584044
0.584049
0.58401
0.583898
0.583926
0.583905
0.583949
0.583976
0.583978
0.58401
0.583891
0.583865
0.584083
0.584243
0.584372
0.584601
0.584994
0.585392
0.58577
0.586343
0.587253
0.588372
0.589514
0.590724
0.59183
0.592905
0.593984
0.594917
0.595696
0.59633
0.596878
0.597316
0.597661
0.597568
0.597555
0.597731
0.597933
0.597814
0.597811
0.598148
0.599012
0.60042
0.601993
0.603499
0.604916
0.605825
0.606234
0.606543
0.606564
0.606796
0.60748
0.609046
0.610963
0.612624
0.614054
0.614425
0.615014
0.615821
0.616684
0.617795
0.618897
0.620377
0.621911
0.622495
0.623485
0.624858
0.625913
0.627325
0.628422
0.629073
0.630157
0.630952
0.632441
0.632622
0.633315
0.675135
0.963115
0.590533
0.590599
0.590674
0.590758
0.590849
0.590949
0.591076
0.591218
0.59137
0.59154
0.591705
0.591933
0.592156
0.592298
0.592455
0.592601
0.592831
0.593133
0.593349
0.593519
0.593701
0.593879
0.594097
0.594449
0.594813
0.595142
0.59554
0.596032
0.596582
0.597107
0.597578
0.598064
0.598594
0.599194
0.599776
0.600266
0.600743
0.601246
0.601767
0.602243
0.602687
0.603143
0.603646
0.603994
0.604259
0.604537
0.604827
0.605072
0.605255
0.605307
0.60528
0.605279
0.605248
0.605261
0.605204
0.604907
0.604692
0.604782
0.605231
0.606117
0.607187
0.608399
0.609808
0.611201
0.61245
0.613561
0.614252
0.614995
0.615311
0.615197
0.615324
0.616073
0.617353
0.61887
0.620099
0.62103
0.622047
0.622285
0.62266
0.623392
0.624423
0.625574
0.62659
0.627989
0.629066
0.630096
0.630973
0.631323
0.63184
0.632507
0.633831
0.63552
0.636271
0.637184
0.638807
0.639702
0.640179
0.641406
0.641835
0.707082
0.606194
0.606266
0.606356
0.606462
0.606564
0.606668
0.606796
0.606924
0.607058
0.607209
0.607352
0.607543
0.607718
0.607863
0.608059
0.608189
0.608313
0.608557
0.608718
0.608825
0.608939
0.609067
0.609218
0.609411
0.609569
0.609659
0.609772
0.609926
0.610061
0.610124
0.610176
0.610253
0.610442
0.610549
0.610528
0.610535
0.61065
0.610697
0.610688
0.610714
0.61081
0.610984
0.611001
0.610731
0.610654
0.610789
0.610787
0.610941
0.611143
0.61113
0.61123
0.611741
0.612539
0.613438
0.614376
0.615423
0.616645
0.617994
0.619373
0.620678
0.62191
0.622963
0.623793
0.624192
0.624369
0.624611
0.624596
0.624648
0.624916
0.625373
0.626162
0.627054
0.628176
0.629248
0.630003
0.630646
0.631035
0.631607
0.632386
0.633124
0.634102
0.635109
0.636036
0.637301
0.637604
0.637798
0.638557
0.639498
0.640448
0.641758
0.642781
0.643445
0.643947
0.644444
0.645194
0.645952
0.647176
0.647974
0.648611
0.649466
0.619338
0.619376
0.619437
0.619499
0.619498
0.619507
0.619576
0.619579
0.61959
0.619633
0.619684
0.619731
0.619807
0.619975
0.62004
0.620028
0.620038
0.620117
0.620217
0.620295
0.620449
0.620528
0.620502
0.620537
0.620614
0.620649
0.620711
0.620892
0.621067
0.621144
0.621264
0.621496
0.621783
0.622046
0.622316
0.622635
0.623014
0.623435
0.623867
0.62435
0.624837
0.625326
0.625857
0.626484
0.627145
0.627783
0.628423
0.629084
0.629773
0.630516
0.631348
0.632077
0.632604
0.633034
0.633486
0.633958
0.634186
0.634381
0.634462
0.634406
0.634441
0.634511
0.63441
0.634039
0.633823
0.633959
0.63426
0.634867
0.635597
0.636629
0.637798
0.638724
0.63954
0.639969
0.6405
0.640796
0.641079
0.641527
0.642104
0.642849
0.643617
0.644363
0.644942
0.645386
0.646287
0.646775
0.647153
0.648009
0.649113
0.650269
0.650294
0.650322
0.651039
0.652064
0.652656
0.653699
0.654617
0.655127
0.655738
0.656959
0.635309
0.635377
0.635481
0.635605
0.635736
0.635822
0.635918
0.636027
0.636106
0.636131
0.636133
0.636189
0.636467
0.636635
0.636702
0.636842
0.63699
0.637155
0.637383
0.637502
0.637604
0.63778
0.637966
0.638129
0.638292
0.638488
0.63876
0.639022
0.639203
0.639359
0.639616
0.639916
0.639972
0.639994
0.640086
0.640296
0.64051
0.640655
0.640792
0.640974
0.641168
0.641344
0.641574
0.641742
0.641882
0.642028
0.642128
0.642109
0.64201
0.641954
0.641967
0.6419
0.641676
0.641455
0.641488
0.641508
0.641305
0.640993
0.640778
0.640773
0.64094
0.64144
0.642197
0.643054
0.644027
0.645116
0.646358
0.647613
0.648565
0.649367
0.649745
0.650109
0.649975
0.649932
0.649959
0.650164
0.65055
0.651102
0.651933
0.652888
0.653691
0.654486
0.654956
0.655061
0.655317
0.656072
0.656711
0.657292
0.65767
0.658168
0.658736
0.659558
0.660258
0.660865
0.661511
0.661635
0.661706
0.662297
0.662983
0.663879
0.650755
0.650817
0.650802
0.650791
0.650776
0.650786
0.650909
0.650991
0.650964
0.650891
0.650862
0.650899
0.651087
0.651161
0.651105
0.651037
0.651039
0.651094
0.651175
0.651273
0.6513
0.651299
0.651285
0.651287
0.651318
0.651339
0.651376
0.651436
0.651413
0.651416
0.651449
0.651403
0.651402
0.651498
0.651678
0.651756
0.651723
0.651599
0.651594
0.651705
0.65172
0.651708
0.65174
0.651771
0.651813
0.651982
0.652183
0.652292
0.652465
0.65279
0.653217
0.653696
0.654209
0.654727
0.655236
0.655777
0.656444
0.657243
0.658118
0.659001
0.659717
0.660291
0.660777
0.661191
0.661468
0.661642
0.661766
0.661663
0.661366
0.660985
0.660821
0.660554
0.660404
0.66057
0.661044
0.661842
0.662759
0.663528
0.664304
0.664644
0.664797
0.664694
0.664807
0.664924
0.665042
0.665354
0.6661
0.666804
0.667076
0.667258
0.667449
0.667814
0.667913
0.668175
0.668554
0.668962
0.669607
0.670227
0.670597
0.671185
0.667007
0.667028
0.667027
0.667046
0.667023
0.66698
0.666968
0.667002
0.667115
0.667147
0.667199
0.667264
0.667299
0.66735
0.667407
0.667385
0.66733
0.667367
0.667494
0.667594
0.667693
0.667757
0.667754
0.667742
0.667752
0.667801
0.667895
0.668009
0.66813
0.668246
0.668349
0.668445
0.668602
0.66889
0.669016
0.668997
0.669031
0.66924
0.669472
0.669607
0.669751
0.669946
0.670194
0.670435
0.670652
0.670896
0.671093
0.671232
0.671349
0.671444
0.671556
0.671683
0.671823
0.671967
0.672044
0.672081
0.672043
0.67196
0.671851
0.671723
0.671521
0.67128
0.670976
0.670557
0.669944
0.669532
0.66938
0.669071
0.669075
0.66933
0.669883
0.670648
0.671642
0.672658
0.67355
0.674152
0.674564
0.674554
0.674298
0.673964
0.673489
0.673458
0.673593
0.674164
0.674916
0.675514
0.675958
0.676057