/*--------------------------------*- C++ -*----------------------------------*\
  =========                 |
  \\      /  F ield         | OpenFOAM: The Open Source CFD Toolbox
   \\    /   O peration     | Website:  https://openfoam.org
    \\  /    A nd           | Version:  7
     \\/     M anipulation  |
\*---------------------------------------------------------------------------*/
FoamFile
{
    version     2.0;
    format      ascii;
    class       volScalarField;
    location    "2";
    object      p;
}
// * * * * * * * * * * * * * * * * * * * * * * * * * * * * * * * * * * * * * //

dimensions      [1 -1 -2 0 0 0 0];

internalField   nonuniform List<scalar> 
90000
(
0.10284
0.131791
0.161539
0.192793
0.212207
0.230455
0.255546
0.273703
0.289742
0.30879
0.32947
0.351739
0.374218
0.397719
0.427442
0.457736
0.489178
0.523871
0.562206
0.601617
0.642691
0.684661
0.728169
0.770658
0.810754
0.84094
0.869247
0.884219
0.887911
0.885537
0.883362
0.878053
0.871191
0.862575
0.853368
0.842857
0.836155
0.829587
0.827783
0.824374
0.822299
0.819502
0.813248
0.803668
0.791936
0.779396
0.776046
0.781234
0.795597
0.812719
0.832431
0.853352
0.868532
0.878399
0.873673
0.860309
0.839677
0.820327
0.804762
0.800792
0.806302
0.816051
0.835212
0.853874
0.864942
0.880399
0.883138
0.87901
0.870879
0.860359
0.85877
0.864843
0.876272
0.88522
0.893275
0.89333
0.888247
0.878097
0.870804
0.872468
0.877017
0.886978
0.889351
0.884744
0.877385
0.877163
0.882452
0.890957
0.892146
0.889715
0.888208
0.889208
0.889707
0.889464
0.889928
0.89141
0.900914
0.909726
0.914529
0.923902
0.0762444
0.0762219
0.0761992
0.0761775
0.0761584
0.0761408
0.0761269
0.0761132
0.0761019
0.0760874
0.0760729
0.0760637
0.0760237
0.0760736
0.0769562
0.0790132
0.0830935
0.0894072
0.0993402
0.112721
0.130936
0.153542
0.182552
0.217961
0.261332
0.312104
0.368944
0.430326
0.488387
0.541865
0.592132
0.634334
0.674763
0.705952
0.73632
0.757606
0.778674
0.790025
0.806729
0.812381
0.819031
0.821677
0.823388
0.820537
0.818792
0.823103
0.836304
0.847988
0.85105
0.851379
0.851947
0.854317
0.853059
0.847378
0.832891
0.81722
0.808903
0.80838
0.812742
0.822015
0.831041
0.840539
0.854363
0.863204
0.869488
0.8696
0.866164
0.861977
0.856985
0.85789
0.866939
0.883351
0.89751
0.898116
0.895734
0.887046
0.873903
0.869407
0.871768
0.880248
0.88953
0.89
0.886227
0.877283
0.874215
0.878777
0.888844
0.890983
0.889243
0.888124
0.888551
0.889701
0.889916
0.88997
0.8903
0.892035
0.903866
0.910543
0.917771
0.925492
0.07631
0.0763073
0.076306
0.0763062
0.0763062
0.0763083
0.0763103
0.0763125
0.0763116
0.0763085
0.0763048
0.0763009
0.0762986
0.0762976
0.076307
0.0762802
0.0762505
0.0762239
0.0762007
0.0761856
0.0761727
0.0761634
0.0761571
0.0761633
0.0761757
0.0762026
0.0761911
0.0781651
0.0834301
0.0954213
0.112658
0.139436
0.170587
0.212415
0.257834
0.312932
0.369985
0.432754
0.494703
0.557763
0.619424
0.675297
0.734498
0.782678
0.83413
0.863924
0.883613
0.89084
0.888333
0.879877
0.86836
0.850678
0.829662
0.80335
0.775045
0.775097
0.783851
0.796663
0.81242
0.828796
0.841275
0.855254
0.865285
0.866219
0.858425
0.851542
0.846101
0.847792
0.853812
0.860133
0.874591
0.89351
0.904284
0.903439
0.895785
0.879455
0.866298
0.865826
0.87149
0.882934
0.896615
0.893594
0.882842
0.87179
0.87397
0.880051
0.893494
0.892671
0.889541
0.887782
0.890712
0.892799
0.892938
0.893214
0.893114
0.895333
0.906384
0.914333
0.920706
0.926523
0.0762212
0.0762152
0.0762101
0.0762061
0.076202
0.0762008
0.0762026
0.0762052
0.0762055
0.0762052
0.0762055
0.0762068
0.0762097
0.0762176
0.0762234
0.0762302
0.0762407
0.0762513
0.0762621
0.0762721
0.076278
0.0762815
0.0762845
0.0762925
0.0763069
0.076322
0.0763215
0.0763047
0.0762849
0.0762657
0.0762466
0.0762236
0.0762028
0.0761968
0.0761969
0.0761901
0.0761707
0.0797415
0.0879754
0.107448
0.133529
0.174994
0.225922
0.293788
0.370371
0.452971
0.531057
0.597026
0.660792
0.700409
0.74213
0.757416
0.778448
0.778567
0.787218
0.796301
0.816985
0.828415
0.842211
0.852141
0.858637
0.866887
0.863852
0.849666
0.838085
0.83977
0.846263
0.852667
0.86217
0.885092
0.906025
0.913025
0.908999
0.899823
0.879209
0.864591
0.862737
0.867269
0.884334
0.895512
0.897695
0.889249
0.873726
0.870022
0.875201
0.888363
0.895341
0.891361
0.886833
0.887356
0.892228
0.893889
0.893936
0.894388
0.893944
0.89986
0.909604
0.917172
0.923455
0.927694
0.0761692
0.0761755
0.0761805
0.0761841
0.0761888
0.0761944
0.0762021
0.0762103
0.0762169
0.0762216
0.076225
0.0762293
0.0762374
0.0762456
0.0762519
0.0762577
0.0762664
0.0762808
0.0762954
0.0763009
0.0763005
0.0763036
0.0763102
0.0763174
0.0763283
0.076326
0.0763188
0.0763098
0.0762989
0.0762866
0.0762734
0.076256
0.0762343
0.0762233
0.0762223
0.0762155
0.076204
0.0761897
0.076198
0.0762121
0.0762139
0.0762157
0.0762394
0.0762881
0.076276
0.0828807
0.0981354
0.132964
0.179525
0.25055
0.33379
0.435308
0.546473
0.648912
0.745747
0.789117
0.818923
0.828144
0.841077
0.848867
0.855532
0.850882
0.835017
0.812997
0.822197
0.834588
0.848914
0.870201
0.890265
0.902756
0.911076
0.912656
0.897288
0.873201
0.86124
0.860695
0.866227
0.882756
0.898467
0.897323
0.88883
0.871395
0.866764
0.870601
0.885874
0.89479
0.892686
0.884868
0.884026
0.889163
0.897095
0.896483
0.895529
0.89627
0.896363
0.903748
0.912724
0.918786
0.924463
0.929564
0.0763087
0.0763091
0.07631
0.0763113
0.0763139
0.076312
0.0763087
0.0763082
0.0763059
0.0763018
0.0762988
0.0762984
0.0763008
0.0763047
0.0763065
0.0763041
0.0763024
0.0763097
0.0763181
0.0763161
0.0763101
0.0763105
0.0763225
0.0763266
0.076323
0.0763151
0.0763024
0.0762847
0.0762676
0.076252
0.0762395
0.0762288
0.0762142
0.0761959
0.0761834
0.0761686
0.0761549
0.0761784
0.0762491
0.0762795
0.0762715
0.0762644
0.0763045
0.0763246
0.0762989
0.0762257
0.076189
0.0761933
0.0762277
0.0762554
0.0762393
0.082421
0.100543
0.153768
0.229
0.336559
0.442436
0.534754
0.615966
0.668374
0.726557
0.752618
0.779726
0.806853
0.848737
0.85995
0.875472
0.890052
0.903183
0.916759
0.914427
0.893737
0.864235
0.846789
0.851605
0.865756
0.886249
0.906129
0.905675
0.896486
0.872771
0.860337
0.864241
0.881936
0.897526
0.897617
0.886746
0.880774
0.882995
0.896423
0.90033
0.89761
0.896168
0.896869
0.897997
0.906835
0.915197
0.920197
0.925313
0.93197
0.0763281
0.0763279
0.0763267
0.0763244
0.0763216
0.0763187
0.0763135
0.0763049
0.0762981
0.0762919
0.0762883
0.0762866
0.0762845
0.0762825
0.0762803
0.0762752
0.0762689
0.0762736
0.0762769
0.0762737
0.0762651
0.076265
0.0762693
0.0762668
0.0762591
0.0762517
0.0762423
0.0762173
0.0761919
0.0761779
0.0761656
0.0761621
0.0761669
0.0761613
0.0761442
0.0761218
0.0761266
0.0761824
0.0762619
0.0762736
0.0762506
0.0762333
0.0762835
0.0763248
0.0763084
0.0762512
0.0762273
0.0762616
0.0763129
0.0763015
0.0762566
0.0762723
0.0763217
0.0763515
0.076448
0.076599
0.0823591
0.112916
0.15919
0.238834
0.337808
0.468456
0.61857
0.747332
0.827341
0.838106
0.852628
0.862638
0.889296
0.889472
0.878237
0.853365
0.835846
0.843412
0.868437
0.891422
0.900783
0.906397
0.896685
0.870973
0.852722
0.857572
0.875316
0.895138
0.898762
0.891344
0.878069
0.878588
0.890116
0.902739
0.901721
0.897308
0.897341
0.897828
0.900785
0.909595
0.916733
0.921206
0.926189
0.934845
0.0763007
0.0762987
0.076296
0.0762925
0.076287
0.0762804
0.0762757
0.0762704
0.0762615
0.0762528
0.0762468
0.076242
0.0762377
0.076233
0.0762283
0.076223
0.0762156
0.0762133
0.0762128
0.0762093
0.0762068
0.0762014
0.0761904
0.0761784
0.0761701
0.0761656
0.0761561
0.0761468
0.0761451
0.0761373
0.0761198
0.076119
0.0761528
0.0761809
0.0761825
0.0761777
0.076196
0.0762414
0.0762638
0.0762572
0.0762317
0.0762178
0.0762678
0.0763358
0.0763286
0.0763045
0.076316
0.0763718
0.0763945
0.0763748
0.0763318
0.0763168
0.0763333
0.0763282
0.0763835
0.0765889
0.0767867
0.0768177
0.0766441
0.0762056
0.0760415
0.0882439
0.129937
0.232257
0.377312
0.521062
0.630707
0.692661
0.766742
0.798882
0.825801
0.834099
0.845652
0.88111
0.912459
0.918994
0.913177
0.899095
0.860883
0.846375
0.850665
0.872842
0.901568
0.903898
0.898244
0.878446
0.873675
0.881326
0.902786
0.907017
0.903403
0.897732
0.898578
0.898658
0.902864
0.911933
0.918299
0.922757
0.929401
0.940198
0.076212
0.0762105
0.0762098
0.0762118
0.0762113
0.0762083
0.0762048
0.0762004
0.0761952
0.0761911
0.0761856
0.0761774
0.0761686
0.0761666
0.0761642
0.07616
0.0761574
0.0761629
0.0761685
0.0761629
0.0761503
0.076129
0.0761144
0.0761162
0.0761373
0.0761448
0.0761358
0.0761277
0.0761272
0.0761161
0.0760973
0.0761012
0.0761398
0.0762116
0.0762488
0.0762741
0.0763066
0.0763201
0.0763031
0.0762764
0.0762556
0.0762443
0.0762787
0.0763697
0.0763896
0.0763773
0.0763754
0.0764075
0.0764412
0.0764355
0.0763835
0.0762444
0.0761609
0.0761742
0.0762549
0.0765104
0.0768287
0.0769248
0.0768248
0.0762667
0.0759525
0.0759858
0.0763524
0.077625
0.0786026
0.108763
0.157472
0.231472
0.314704
0.43967
0.57659
0.710526
0.815851
0.879464
0.904313
0.913536
0.900598
0.862359
0.816973
0.833745
0.869596
0.89818
0.909401
0.904157
0.879077
0.865309
0.872431
0.895792
0.908602
0.907172
0.899481
0.898778
0.900487
0.90049
0.90453
0.913343
0.919711
0.924823
0.933737
0.947569
0.0761892
0.0761884
0.0761866
0.0761929
0.0762046
0.0762065
0.0762068
0.0762101
0.0762102
0.0762072
0.0761965
0.0761858
0.0761902
0.0762078
0.0762152
0.0762187
0.0762303
0.0762287
0.0762183
0.0762054
0.0761879
0.0761594
0.0761416
0.0761456
0.076171
0.0761797
0.0761752
0.0761751
0.076182
0.076172
0.0761575
0.0761666
0.0762178
0.0762697
0.0763052
0.07635
0.0763715
0.0763644
0.0763441
0.0763078
0.0762755
0.0762687
0.0762976
0.0763702
0.0764304
0.0764418
0.0764452
0.0764514
0.0764636
0.076454
0.0763927
0.076227
0.0760139
0.0760128
0.0760653
0.0763485
0.0768128
0.0769939
0.0769492
0.0763638
0.0757958
0.0757447
0.0760084
0.0771534
0.0787535
0.0797512
0.0806865
0.0823882
0.0852955
0.089408
0.110431
0.176452
0.28932
0.430668
0.558748
0.689893
0.763909
0.802857
0.818856
0.869403
0.912383
0.916901
0.912247
0.87887
0.858732
0.86521
0.891354
0.913072
0.91218
0.901042
0.895643
0.900906
0.904143
0.903294
0.906705
0.913725
0.921925
0.929144
0.938771
0.953061
0.0762354
0.0762363
0.0762365
0.076239
0.0762505
0.0762653
0.0762763
0.0762936
0.0763188
0.0763291
0.076328
0.076324
0.0763203
0.07632
0.0763362
0.0763638
0.076367
0.0763541
0.0763104
0.0762695
0.0762531
0.0762478
0.0762566
0.0762728
0.0762721
0.0762596
0.0762482
0.0762469
0.0762571
0.0762554
0.0762437
0.0762437
0.0762589
0.0762945
0.076361
0.0763898
0.0763854
0.0763606
0.076319
0.0762541
0.0762205
0.0762414
0.076302
0.0763733
0.0764193
0.0764562
0.0765051
0.0765274
0.0765284
0.0765095
0.0764465
0.0763024
0.0760001
0.0758012
0.0757779
0.0759893
0.0766899
0.0770128
0.0770183
0.0765315
0.0755649
0.0753733
0.0756307
0.0767152
0.0782963
0.0794654
0.0805996
0.0824067
0.0853372
0.0872931
0.087528
0.0874738
0.0870059
0.0883338
0.119349
0.201472
0.361837
0.584494
0.771943
0.86354
0.904351
0.907614
0.889774
0.837987
0.85091
0.885968
0.911866
0.915821
0.904311
0.893237
0.894508
0.905959
0.908032
0.90532
0.906182
0.913519
0.92512
0.933812
0.942823
0.955764
0.0764012
0.0764171
0.076426
0.0764243
0.076423
0.0764295
0.0764396
0.0764511
0.0764631
0.0764739
0.0764793
0.0764764
0.0764711
0.076465
0.0764717
0.0764852
0.0764845
0.0764634
0.0763949
0.0763389
0.0763165
0.0763111
0.0763128
0.0763128
0.0763004
0.0762747
0.0762636
0.0762652
0.0762707
0.0762731
0.0762717
0.0762631
0.0762637
0.0763024
0.0763614
0.0763625
0.076331
0.0762665
0.0761782
0.076128
0.0761541
0.0762375
0.0763391
0.0763853
0.076409
0.0764451
0.0765119
0.0765871
0.0766083
0.0765839
0.076527
0.0764183
0.0760881
0.0756685
0.0755316
0.0756107
0.0762771
0.0769632
0.0770139
0.0765815
0.0754319
0.0750806
0.0753244
0.0763332
0.077747
0.0789587
0.0801571
0.0818951
0.0845333
0.0868514
0.0872404
0.0871542
0.0866832
0.0861693
0.0861809
0.0866334
0.0874862
0.116712
0.242161
0.397207
0.557023
0.699755
0.797115
0.817985
0.875443
0.918981
0.921738
0.912007
0.890017
0.887692
0.901056
0.914301
0.911264
0.905293
0.903884
0.91768
0.929396
0.937108
0.944567
0.955647
0.0765148
0.0765154
0.0765116
0.0765075
0.0765108
0.076527
0.0765365
0.076533
0.0765271
0.0765312
0.0765351
0.0765327
0.0765269
0.0765121
0.0764966
0.0764968
0.0765007
0.0764942
0.0764529
0.0763747
0.0763209
0.0763001
0.0762941
0.076291
0.0762807
0.0762647
0.0762577
0.0762569
0.0762594
0.0762612
0.0762717
0.076278
0.0762768
0.0762848
0.0762911
0.0762773
0.0762295
0.0761386
0.0760481
0.0760449
0.0761395
0.076334
0.0763693
0.0763562
0.0763675
0.076418
0.0764876
0.0765945
0.0766301
0.0766058
0.0765706
0.0764649
0.0760669
0.0755914
0.0753821
0.0753625
0.0756672
0.0764335
0.0766497
0.0763704
0.0753082
0.0748204
0.0750118
0.0759048
0.0772917
0.078638
0.0799353
0.0815549
0.0839864
0.0863782
0.0869715
0.0868517
0.0863448
0.085992
0.0861213
0.0867365
0.0879097
0.0891203
0.0897338
0.0904196
0.129183
0.227768
0.430355
0.675438
0.842139
0.8979
0.912479
0.901132
0.877003
0.894842
0.915927
0.91704
0.911302
0.903717
0.907535
0.92605
0.93353
0.939028
0.945272
0.95469
0.0764002
0.0764084
0.076418
0.0764532
0.0765069
0.0765185
0.0765185
0.0765161
0.0765123
0.076512
0.0765108
0.0765074
0.0764999
0.0764817
0.0764565
0.0764551
0.0764695
0.076472
0.0764492
0.0763568
0.0762576
0.0762355
0.0762354
0.0762419
0.0762579
0.0762653
0.0762656
0.0762594
0.0762536
0.0762527
0.0762571
0.0762639
0.0762432
0.0761833
0.0761669
0.0761573
0.076106
0.0759728
0.0759393
0.0759891
0.0762367
0.0763744
0.0763751
0.0763235
0.0762651
0.0762645
0.0763318
0.0765326
0.0766265
0.0766055
0.0765721
0.0764572
0.0758921
0.0753676
0.075189
0.075071
0.0750929
0.0753199
0.0754887
0.0754143
0.0748867
0.0745403
0.0747359
0.0756909
0.0771562
0.0785451
0.0798523
0.0814039
0.0838099
0.086263
0.0868712
0.0866737
0.0861221
0.0859277
0.0864221
0.0878495
0.0886482
0.0893549
0.0906314
0.0932181
0.0958741
0.0963034
0.0969013
0.179849
0.332803
0.536202
0.752958
0.804154
0.867377
0.926118
0.925229
0.919345
0.913029
0.910527
0.918394
0.931433
0.936414
0.940977
0.947784
0.958143
0.0761925
0.0761918
0.0762314
0.076389
0.0764567
0.0764669
0.0764683
0.0764658
0.0764527
0.0764312
0.0764092
0.0764005
0.076395
0.0763907
0.0763932
0.0764167
0.076423
0.0764168
0.076384
0.0763108
0.076236
0.0762122
0.0762136
0.0762214
0.0762352
0.0762615
0.0762753
0.0762763
0.0762622
0.076266
0.0762596
0.0762122
0.0760793
0.0760215
0.0760365
0.076039
0.0759483
0.0758366
0.0758461
0.075972
0.0762773
0.0763757
0.0763705
0.0763109
0.0761579
0.0760093
0.0759472
0.0760607
0.0762031
0.0761593
0.076121
0.0760577
0.0756986
0.0751297
0.0747879
0.0745963
0.0745588
0.0746627
0.0747809
0.074751
0.0744769
0.0743501
0.0745426
0.0754802
0.0771292
0.0785726
0.0797933
0.0812452
0.0837141
0.0864734
0.0869144
0.0865908
0.0860141
0.0865181
0.0880783
0.0899184
0.0914102
0.093226
0.0947802
0.0963472
0.0989807
0.100468
0.101202
0.102791
0.104727
0.139389
0.259038
0.507485
0.767808
0.871257
0.912552
0.924058
0.92293
0.91623
0.921751
0.934171
0.939748
0.94403
0.951208
0.963248
0.076044
0.076042
0.0760429
0.0760553
0.0761095
0.076208
0.0762603
0.0762712
0.0762748
0.0762743
0.076259
0.0762505
0.0762562
0.0762737
0.0762759
0.0762574
0.0762142
0.0761979
0.0762122
0.0762368
0.0762466
0.0762425
0.0762473
0.0762683
0.0762703
0.0762716
0.0762787
0.0762753
0.0762456
0.0762438
0.0762224
0.0760768
0.0758226
0.0756842
0.0756535
0.0756297
0.0756355
0.0756743
0.0757566
0.0759349
0.0760949
0.0761252
0.0761102
0.0760558
0.0759323
0.0757067
0.0754406
0.0752501
0.0751176
0.0750429
0.0750479
0.0751433
0.0751191
0.0748453
0.074471
0.0742269
0.0741999
0.0743491
0.0745343
0.0745189
0.0743406
0.0743022
0.0744887
0.0752978
0.0769904
0.0785696
0.0797697
0.0811795
0.0839988
0.0878672
0.0884813
0.0883319
0.0887875
0.090093
0.0912612
0.09211
0.0941017
0.0972505
0.099997
0.0998276
0.100417
0.103994
0.106677
0.108411
0.1114
0.112978
0.113626
0.132297
0.235678
0.455451
0.718078
0.863531
0.910803
0.923635
0.922648
0.934951
0.940795
0.946493
0.954198
0.965008
0.0760276
0.0760276
0.0760169
0.0759731
0.0758949
0.0758756
0.0758734
0.0758748
0.0758889
0.0759133
0.0759376
0.0759591
0.0759924
0.0760211
0.0760128
0.0759165
0.0758471
0.0758644
0.07604
0.0761967
0.0761995
0.0761771
0.0761009
0.0760396
0.0760317
0.0760715
0.0761298
0.0761342
0.0761042
0.0760109
0.0758187
0.0755357
0.0753132
0.0752012
0.0751755
0.0751929
0.0752261
0.0752497
0.0752841
0.0753962
0.0755869
0.0756696
0.0756574
0.0755682
0.0753917
0.075151
0.0748976
0.0746419
0.0744105
0.0743565
0.0743627
0.0744633
0.074526
0.074469
0.074288
0.0741064
0.0740861
0.0743027
0.0748351
0.0749091
0.0746945
0.0744784
0.0745894
0.0752917
0.0768466
0.0786103
0.0801282
0.0822353
0.0855052
0.0893801
0.0919086
0.0939219
0.094553
0.0945786
0.0950911
0.0960948
0.0974169
0.100315
0.104771
0.106467
0.106381
0.107578
0.110524
0.113575
0.116155
0.118257
0.119697
0.120296
0.121342
0.132164
0.229958
0.477651
0.773015
0.879219
0.912486
0.943405
0.948415
0.950847
0.95739
0.967546
0.0758587
0.0758136
0.0756915
0.0754712
0.0751823
0.0750806
0.075077
0.075087
0.0751177
0.0751406
0.0751617
0.0751984
0.0752749
0.0753409
0.0753305
0.0752184
0.0751883
0.0752511
0.0753818
0.0754002
0.0753704
0.0753348
0.0753018
0.0752347
0.0751944
0.0752217
0.0753002
0.0753131
0.0753039
0.075254
0.0750983
0.074936
0.0749318
0.0749867
0.0750626
0.0751186
0.0751252
0.0751093
0.0751417
0.0751449
0.0750653
0.0748998
0.0748761
0.0748652
0.0747956
0.074693
0.0745469
0.0742726
0.0740206
0.0739859
0.0740027
0.0741621
0.0743408
0.0743383
0.074248
0.0741037
0.0741439
0.0745887
0.075825
0.0768564
0.0768112
0.0764454
0.0762886
0.0763627
0.0772883
0.0797299
0.0826573
0.0852591
0.0875496
0.0904438
0.0938357
0.0967998
0.0983359
0.0991541
0.100495
0.103135
0.105361
0.106232
0.108278
0.110877
0.111399
0.111617
0.113892
0.118023
0.12052
0.122724
0.12476
0.126153
0.127792
0.129878
0.131861
0.146202
0.262479
0.531854
0.789288
0.909628
0.952998
0.962395
0.964583
0.97356
0.07454
0.0743594
0.0741299
0.0740615
0.0740528
0.07405
0.0740487
0.0740609
0.0740967
0.074207
0.0743259
0.0743533
0.0743722
0.0744339
0.0744883
0.0744842
0.0744842
0.0745406
0.0746925
0.0747533
0.0747616
0.0747637
0.0747534
0.0747205
0.0747149
0.0747491
0.0748502
0.0748879
0.0749047
0.0749127
0.0749195
0.0749538
0.0750967
0.0752777
0.0753039
0.0752929
0.0752535
0.0751862
0.075097
0.0748846
0.0743634
0.0741477
0.0741974
0.0743937
0.074501
0.0745176
0.0744665
0.0742183
0.0739723
0.073938
0.0739678
0.0742139
0.0747928
0.075033
0.0749613
0.0747724
0.0748881
0.0755495
0.0771692
0.0792807
0.0800672
0.0802711
0.0805493
0.0811381
0.0822421
0.0838823
0.0861319
0.0882674
0.0898018
0.0923737
0.0961708
0.0989141
0.101344
0.10361
0.105507
0.108331
0.110986
0.111348
0.111659
0.11328
0.116146
0.119056
0.121788
0.124163
0.125004
0.126135
0.12856
0.131638
0.134012
0.135322
0.138298
0.139221
0.139834
0.165993
0.321924
0.631169
0.889601
0.952157
0.965492
0.977482
0.0741279
0.0740553
0.0740334
0.0740181
0.0740202
0.0740406
0.0741043
0.0741531
0.0741514
0.0741505
0.0741967
0.0742878
0.0743686
0.0743932
0.0743701
0.0742974
0.0742604
0.074267
0.0743126
0.0744017
0.0744649
0.0744667
0.0744424
0.0744084
0.0744081
0.0744366
0.0745074
0.0746069
0.0747001
0.0747921
0.074904
0.0750617
0.07526
0.0753697
0.0753714
0.0753478
0.0752752
0.0751586
0.0749799
0.0745579
0.074024
0.0739471
0.0740066
0.0742192
0.0744799
0.0745404
0.0745107
0.0743326
0.07438
0.0746594
0.0751925
0.0760386
0.0773122
0.0785544
0.0792535
0.0796218
0.0797818
0.0798992
0.080421
0.0820247
0.0831961
0.0833196
0.0835344
0.0842968
0.0859725
0.0884012
0.0915206
0.0953291
0.0995419
0.103329
0.106448
0.107876
0.108394
0.108764
0.10936
0.111308
0.114247
0.115971
0.117184
0.119355
0.123246
0.127023
0.128381
0.12922
0.130549
0.132172
0.134087
0.137119
0.140124
0.14077
0.141835
0.144261
0.147161
0.14866
0.149681
0.204963
0.483025
0.84332
0.950053
0.982079
0.0758058
0.0757949
0.0757526
0.0757387
0.0757798
0.0758232
0.0758194
0.0757898
0.0756956
0.0755361
0.0754594
0.0754464
0.075415
0.0752839
0.0750178
0.0747607
0.0746142
0.07458
0.0746044
0.0746433
0.0746483
0.0746281
0.0745044
0.0743442
0.0743169
0.0743373
0.0743938
0.0744778
0.0745982
0.0747437
0.0748994
0.0750651
0.0752328
0.075355
0.0753981
0.0754051
0.0753648
0.0752481
0.0750455
0.0746633
0.0743761
0.0743984
0.0745447
0.0749317
0.0757174
0.0768477
0.0781025
0.0793943
0.0805778
0.0811568
0.0813901
0.0817607
0.0824486
0.0833369
0.0842103
0.084572
0.0844189
0.0841543
0.0841806
0.085004
0.0866836
0.0870525
0.0872264
0.0880271
0.09013
0.0937781
0.0985875
0.103727
0.108118
0.11125
0.113149
0.114334
0.115121
0.11588
0.116109
0.116267
0.118737
0.123412
0.126664
0.128259
0.129984
0.131801
0.132512
0.13376
0.136564
0.139697
0.140838
0.142119
0.144315
0.146106
0.147112
0.149497
0.153069
0.155629
0.157669
0.158431
0.172051
0.385158
0.81341
0.956826
0.0761813
0.0761164
0.0760668
0.0760125
0.0759476
0.0759033
0.0758361
0.075652
0.0754635
0.0753811
0.0753471
0.075309
0.0751271
0.0745755
0.074358
0.0743376
0.0742836
0.0742709
0.0743427
0.074487
0.0745257
0.0745248
0.0744623
0.0743682
0.0743907
0.0744749
0.07467
0.0750078
0.0754257
0.0757039
0.0759345
0.076292
0.0768137
0.0774218
0.0780205
0.0787598
0.0791859
0.0793169
0.0794956
0.0798114
0.080106
0.0803896
0.0807972
0.0814528
0.0824134
0.0836416
0.0849807
0.0862362
0.0870754
0.0872402
0.0873282
0.0873446
0.0872838
0.0873415
0.0878108
0.0882895
0.0883504
0.0884135
0.0888377
0.0902015
0.0929372
0.0956774
0.0973608
0.0986313
0.100028
0.102309
0.105936
0.109088
0.111536
0.114274
0.116308
0.11829
0.120725
0.123626
0.12685
0.127982
0.128612
0.13034
0.13241
0.133934
0.134949
0.135923
0.137838
0.139935
0.142125
0.144663
0.146618
0.148059
0.150216
0.153034
0.155116
0.156891
0.159012
0.16177
0.163409
0.165088
0.166186
0.171545
0.344784
0.81736
0.0773504
0.0774624
0.0775931
0.0777302
0.077877
0.0780423
0.0782411
0.0783791
0.0785161
0.0787769
0.078857
0.0787612
0.0784367
0.0783889
0.0784491
0.0786958
0.0795503
0.08017
0.0801708
0.0797839
0.0794931
0.0794869
0.0797163
0.0804184
0.0813356
0.0817327
0.0820436
0.0825905
0.0833143
0.0838927
0.0842919
0.0846128
0.0849922
0.0855235
0.0861657
0.0868702
0.0876766
0.0885465
0.0890598
0.0891161
0.0890121
0.0889354
0.0888806
0.0887569
0.0887442
0.0888205
0.0890643
0.0895404
0.0903777
0.0915485
0.0925339
0.0926299
0.092704
0.0931512
0.0943079
0.0959497
0.0974349
0.0985393
0.0996701
0.100805
0.102079
0.104049
0.105659
0.106343
0.106947
0.10846
0.111279
0.113219
0.114823
0.117921
0.12254
0.126775
0.12914
0.130469
0.132789
0.13463
0.13532
0.135879
0.137271
0.139335
0.141145
0.143702
0.147009
0.149077
0.14996
0.151343
0.154304
0.156242
0.157867
0.159855
0.161981
0.163812
0.165691
0.167165
0.168973
0.170476
0.172633
0.173825
0.175949
0.519052
0.0859915
0.0861611
0.0863077
0.0864486
0.0866191
0.0868369
0.0870789
0.0873463
0.0876296
0.0876991
0.0876573
0.0876411
0.0876456
0.0877395
0.0880489
0.0884603
0.0890888
0.0895144
0.0895041
0.089112
0.0888167
0.0887783
0.0889025
0.0894748
0.0896391
0.0895702
0.0895852
0.0897341
0.0900048
0.0901668
0.0902855
0.0905081
0.090622
0.0907433
0.0910679
0.0916894
0.092372
0.0931183
0.0937867
0.0942294
0.0944754
0.0947371
0.0950416
0.0950127
0.0948236
0.0947469
0.0948881
0.0956435
0.0972627
0.0992552
0.101152
0.102792
0.104048
0.104953
0.105547
0.106121
0.106839
0.107629
0.108389
0.108478
0.108485
0.109206
0.110335
0.110968
0.111809
0.113524
0.116554
0.121593
0.127556
0.132193
0.135442
0.137682
0.137661
0.136764
0.136606
0.137966
0.140251
0.142558
0.145498
0.148392
0.151164
0.152816
0.154693
0.156452
0.157613
0.159143
0.161073
0.16263
0.163878
0.165643
0.167801
0.170134
0.171523
0.172808
0.1746
0.177232
0.178749
0.181517
0.181364
0.25521
0.092691
0.0927378
0.0927934
0.0928614
0.0929338
0.0930471
0.0931437
0.0932001
0.0932674
0.093352
0.0935484
0.0938563
0.0941167
0.094308
0.0944538
0.0950857
0.0962359
0.0964108
0.0960798
0.0956468
0.0956464
0.0957796
0.096307
0.0973639
0.0977001
0.0976623
0.0977144
0.0979722
0.0982307
0.0983213
0.0985479
0.0994663
0.100103
0.100263
0.100457
0.10079
0.101272
0.102109
0.10349
0.10467
0.10551
0.10624
0.106934
0.107538
0.107919
0.10802
0.10804
0.108157
0.108547
0.109243
0.110164
0.111413
0.112727
0.113019
0.112789
0.11241
0.112411
0.112835
0.113573
0.113719
0.113852
0.114227
0.115689
0.118367
0.121248
0.124151
0.128055
0.133717
0.13811
0.140852
0.143482
0.14457
0.144552
0.144252
0.144648
0.146447
0.149878
0.153564
0.155849
0.1578
0.159069
0.159444
0.15991
0.161711
0.1645
0.166879
0.168971
0.170999
0.171482
0.172506
0.174659
0.177099
0.179043
0.180709
0.182247
0.18395
0.186305
0.187935
0.189445
0.191153
0.104116
0.104149
0.104233
0.104401
0.104676
0.105082
0.105578
0.10597
0.106114
0.10614
0.106157
0.106215
0.106376
0.106685
0.107115
0.107386
0.107379
0.107324
0.107351
0.107703
0.108095
0.108097
0.108003
0.108069
0.108442
0.108774
0.10878
0.108737
0.108764
0.108986
0.109354
0.109847
0.110235
0.110504
0.110727
0.111057
0.111613
0.112296
0.112957
0.113432
0.113699
0.113977
0.114361
0.114821
0.115229
0.115258
0.115259
0.11525
0.114954
0.114784
0.114829
0.115369
0.116889
0.118203
0.118764
0.119112
0.119538
0.120394
0.121916
0.123882
0.12582
0.127279
0.12856
0.130141
0.132113
0.134723
0.138561
0.142472
0.144187
0.145166
0.147286
0.150198
0.152909
0.155345
0.157484
0.159984
0.16245
0.163766
0.164133
0.164774
0.165382
0.166813
0.168599
0.171279
0.174428
0.176051
0.177635
0.179335
0.180598
0.181664
0.183945
0.185959
0.187567
0.188851
0.190753
0.19231
0.19357
0.195339
0.197256
0.197677
0.11356
0.113639
0.113814
0.114071
0.114352
0.114781
0.115355
0.115508
0.115388
0.115237
0.11524
0.115341
0.115649
0.116136
0.116706
0.117052
0.117046
0.11704
0.117184
0.117737
0.1179
0.117818
0.117838
0.11809
0.118203
0.118225
0.118348
0.118631
0.118947
0.119058
0.118994
0.118673
0.118383
0.118368
0.118429
0.118785
0.119736
0.120187
0.120242
0.120353
0.120674
0.121238
0.121978
0.122745
0.123491
0.124373
0.12546
0.126632
0.127402
0.127742
0.128066
0.128581
0.129293
0.13034
0.131714
0.133189
0.134326
0.134858
0.135156
0.135824
0.136927
0.137967
0.138581
0.138989
0.139742
0.1413
0.144156
0.147496
0.151162
0.154933
0.158135
0.161434
0.164746
0.167421
0.168483
0.16953
0.170977
0.171277
0.171652
0.172792
0.175342
0.178763
0.182142
0.183937
0.184863
0.184992
0.185273
0.186674
0.189831
0.19184
0.193007
0.194625
0.195121
0.196257
0.198159
0.200973
0.202207
0.202978
0.204725
0.206442
0.125511
0.125175
0.125011
0.124997
0.12511
0.125311
0.125591
0.125998
0.126171
0.126193
0.126239
0.12642
0.126777
0.127033
0.127071
0.127097
0.127201
0.12749
0.128025
0.128415
0.128762
0.129389
0.12985
0.129984
0.130143
0.130651
0.131075
0.131121
0.131232
0.131659
0.131929
0.131895
0.131827
0.131915
0.132278
0.132713
0.133221
0.133929
0.134741
0.135493
0.135908
0.136111
0.136366
0.136871
0.137141
0.137229
0.137454
0.137987
0.138598
0.139165
0.139836
0.140668
0.141309
0.141328
0.141207
0.141358
0.142083
0.142443
0.142542
0.142694
0.142997
0.1436
0.144517
0.14587
0.148063
0.150706
0.153668
0.158638
0.165632
0.172416
0.175898
0.176753
0.176991
0.177495
0.177408
0.177259
0.177863
0.179798
0.182842
0.185869
0.188646
0.190396
0.192306
0.192944
0.193101
0.193669
0.194815
0.19705
0.199741
0.201497
0.20155
0.202349
0.204808
0.2068
0.207764
0.209217
0.211773
0.212966
0.213653
0.214576
0.139356
0.139355
0.139481
0.139539
0.139513
0.139403
0.139376
0.139418
0.139499
0.139786
0.140065
0.140056
0.139853
0.139735
0.139753
0.139981
0.140508
0.140676
0.140471
0.140203
0.140202
0.140517
0.140792
0.140932
0.141343
0.141994
0.142066
0.142117
0.142613
0.143249
0.143275
0.143285
0.143774
0.144472
0.144832
0.145138
0.1454
0.145438
0.145453
0.145592
0.145931
0.146363
0.146892
0.147465
0.148179
0.149164
0.149565
0.149435
0.148823
0.148245
0.14827
0.148889
0.150087
0.151267
0.152199
0.152794
0.153411
0.154537
0.156142
0.157459
0.158247
0.159072
0.160395
0.162522
0.165011
0.167748
0.17138
0.175909
0.179608
0.182984
0.185326
0.185765
0.185715
0.185983
0.18681
0.188448
0.190581
0.193445
0.196566
0.198896
0.200414
0.200388
0.200335
0.201041
0.202929
0.20531
0.207807
0.209544
0.210383
0.211437
0.212462
0.213138
0.214572
0.217359
0.219335
0.21965
0.220125
0.221597
0.223008
0.223468
0.15341
0.153125
0.153101
0.153331
0.153875
0.153936
0.153814
0.153739
0.153757
0.154036
0.154498
0.154542
0.154529
0.154621
0.155224
0.155503
0.155426
0.155263
0.155261
0.15552
0.156283
0.156464
0.156376
0.156526
0.157295
0.15752
0.157595
0.157902
0.157995
0.157829
0.157796
0.158249
0.158723
0.15877
0.159004
0.159399
0.159407
0.15938
0.1596
0.160162
0.161054
0.16205
0.162233
0.162181
0.162426
0.16371
0.164758
0.164876
0.165098
0.165865
0.166248
0.166211
0.166193
0.166565
0.167624
0.168707
0.169546
0.170088
0.17063
0.171449
0.172156
0.172601
0.173043
0.173734
0.174765
0.176526
0.179364
0.183448
0.186412
0.189063
0.19208
0.195442
0.198779
0.201509
0.203941
0.206085
0.208067
0.209575
0.20994
0.210474
0.210942
0.211613
0.212869
0.215167
0.217902
0.219827
0.22154
0.221396
0.220638
0.220816
0.221959
0.223474
0.224903
0.226604
0.229157
0.230357
0.230698
0.231142
0.232336
0.232949
0.170094
0.170105
0.170145
0.170161
0.170187
0.170262
0.170372
0.170498
0.170704
0.170917
0.171003
0.171059
0.171163
0.171203
0.171141
0.171105
0.17118
0.171382
0.17157
0.17179
0.172069
0.172161
0.1722
0.172423
0.172702
0.172655
0.172621
0.173049
0.173684
0.173866
0.17412
0.174564
0.174626
0.174698
0.175266
0.17592
0.175957
0.175996
0.176257
0.176466
0.176766
0.177095
0.177003
0.176903
0.177288
0.177833
0.17787
0.177862
0.178303
0.179599
0.180273
0.180499
0.180817
0.180771
0.180712
0.181019
0.18161
0.18162
0.181663
0.18205
0.183173
0.184494
0.185682
0.186839
0.188638
0.191291
0.194654
0.19951
0.206771
0.212941
0.216178
0.218197
0.219696
0.221
0.221475
0.22129
0.221365
0.221536
0.221746
0.222497
0.223858
0.226089
0.228744
0.230782
0.231972
0.232625
0.232495
0.231791
0.232085
0.232884
0.234833
0.237627
0.239975
0.239954
0.239477
0.240065
0.24179
0.242945
0.24335
0.243295
0.188814
0.188897
0.188985
0.189085
0.189162
0.189199
0.189277
0.189389
0.189453
0.189551
0.189614
0.189638
0.189686
0.18977
0.189969
0.190127
0.190184
0.190238
0.19039
0.190461
0.190439
0.190432
0.190492
0.190737
0.191091
0.191309
0.191565
0.191935
0.191998
0.192002
0.192112
0.192499