/*--------------------------------*- C++ -*----------------------------------*\
  =========                 |
  \\      /  F ield         | OpenFOAM: The Open Source CFD Toolbox
   \\    /   O peration     | Website:  https://openfoam.org
    \\  /    A nd           | Version:  7
     \\/     M anipulation  |
\*---------------------------------------------------------------------------*/
FoamFile
{
    version     2.0;
    format      ascii;
    class       volScalarField;
    location    "2";
    object      T;
}
// * * * * * * * * * * * * * * * * * * * * * * * * * * * * * * * * * * * * * //

dimensions      [0 0 0 1 0 0 0];

internalField   nonuniform List<scalar> 
90000
(
0.608912
0.710179
0.792154
0.86367
0.897686
0.922998
0.958153
0.975962
0.988938
1.00449
1.0203
1.03694
1.05146
1.06498
1.08425
1.10308
1.12195
1.1426
1.1652
1.18808
1.21053
1.23188
1.2533
1.27345
1.29149
1.30396
1.31485
1.32053
1.31936
1.31648
1.31346
1.30857
1.3028
1.29595
1.28909
1.28228
1.27808
1.27425
1.27259
1.2699
1.26772
1.26526
1.2612
1.25511
1.24713
1.23974
1.23456
1.23623
1.24175
1.24848
1.25637
1.26449
1.27016
1.2727
1.27025
1.2634
1.25289
1.24228
1.23472
1.22905
1.23002
1.23255
1.23947
1.24654
1.24989
1.25399
1.25678
1.25657
1.25548
1.25203
1.24938
1.25071
1.25493
1.25952
1.26388
1.26339
1.26063
1.25511
1.25147
1.25228
1.25477
1.25966
1.26213
1.26091
1.25852
1.25876
1.26163
1.26559
1.26743
1.26692
1.26667
1.2672
1.26776
1.26849
1.27073
1.27429
1.28263
1.28964
1.29249
1.28681
0.493157
0.492918
0.492658
0.492388
0.492111
0.491828
0.491541
0.491242
0.490935
0.490609
0.490267
0.489946
0.489418
0.489405
0.492832
0.501046
0.517333
0.541822
0.578728
0.625004
0.681782
0.743425
0.811852
0.881925
0.953331
1.02048
1.07977
1.132
1.17202
1.2041
1.23087
1.25203
1.27174
1.28629
1.30083
1.31089
1.32112
1.32536
1.33231
1.33176
1.33121
1.32925
1.32623
1.32198
1.31878
1.32058
1.32671
1.3319
1.33287
1.33282
1.33271
1.3322
1.33004
1.32514
1.31635
1.3071
1.30094
1.29741
1.29758
1.29928
1.30144
1.30416
1.30922
1.312
1.31171
1.309
1.30559
1.30231
1.29705
1.29047
1.28758
1.2892
1.29301
1.29398
1.29301
1.28865
1.28207
1.27607
1.2757
1.27791
1.28117
1.28148
1.27978
1.27565
1.27326
1.27463
1.27842
1.2786
1.27773
1.27648
1.27606
1.27615
1.27636
1.27701
1.27873
1.2817
1.29056
1.29764
1.30512
1.30424
0.490332
0.490108
0.489867
0.489619
0.489362
0.489103
0.488836
0.488563
0.488276
0.48798
0.487679
0.487374
0.487073
0.486775
0.486461
0.486099
0.485734
0.485385
0.485056
0.484757
0.484478
0.484221
0.483982
0.483782
0.483605
0.483473
0.483257
0.49136
0.51273
0.558889
0.618134
0.698061
0.774706
0.860033
0.933325
1.0047
1.06076
1.11392
1.1584
1.20177
1.24049
1.27469
1.30923
1.33654
1.36421
1.37855
1.38879
1.3886
1.3862
1.38038
1.37302
1.36279
1.35101
1.33653
1.32082
1.3182
1.3208
1.32535
1.33164
1.33847
1.34369
1.3492
1.35176
1.34994
1.34414
1.33839
1.33231
1.32836
1.3228
1.31374
1.31014
1.31054
1.31139
1.31016
1.30616
1.29876
1.29116
1.28655
1.28704
1.29041
1.29428
1.29209
1.28686
1.28031
1.28004
1.28199
1.28573
1.28447
1.28217
1.27962
1.2801
1.28025
1.28041
1.28111
1.28238
1.28558
1.29397
1.30188
1.31089
1.31455
0.486543
0.486348
0.486147
0.485946
0.485745
0.48555
0.485361
0.485175
0.484987
0.484801
0.484619
0.484444
0.484278
0.484124
0.48397
0.483824
0.483691
0.483566
0.483449
0.483339
0.48323
0.483123
0.483022
0.482937
0.482869
0.482814
0.482749
0.482661
0.482565
0.48247
0.482378
0.482281
0.482184
0.482125
0.48208
0.482024
0.481906
0.496295
0.527704
0.595603
0.672267
0.772443
0.869005
0.968331
1.04885
1.11899
1.17213
1.21462
1.25309
1.27764
1.3023
1.31205
1.32478
1.32531
1.32988
1.33442
1.34558
1.3514
1.35815
1.36284
1.36581
1.36714
1.36487
1.35772
1.35094
1.34941
1.34823
1.34485
1.33832
1.33525
1.33064
1.32372
1.31807
1.31245
1.30341
1.29683
1.29222
1.29188
1.29591
1.29877
1.2976
1.29295
1.28573
1.28095
1.28241
1.28702
1.28722
1.285
1.28152
1.27994
1.28093
1.28088
1.28105
1.28183
1.28281
1.28735
1.29497
1.30305
1.31249
1.31941
0.483854
0.483776
0.483694
0.48361
0.483529
0.483452
0.483378
0.483307
0.483236
0.483164
0.483093
0.483026
0.48297
0.482915
0.482859
0.482803
0.482755
0.482722
0.482692
0.482653
0.482603
0.482564
0.482533
0.482507
0.482486
0.482449
0.482405
0.482357
0.482304
0.482246
0.482182
0.482107
0.482021
0.481955
0.481911
0.481842
0.481751
0.48163
0.481566
0.481512
0.481427
0.481324
0.481253
0.481208
0.481055
0.506789
0.560842
0.665244
0.771563
0.891656
0.990632
1.08332
1.16647
1.23947
1.30377
1.33388
1.35255
1.35695
1.3621
1.36569
1.36584
1.3624
1.35389
1.34276
1.34603
1.35044
1.35396
1.35678
1.35373
1.34428
1.33281
1.32357
1.31181
1.2999
1.29534
1.2935
1.29429
1.29836
1.30012
1.2982
1.29287
1.28477
1.2803
1.28096
1.28625
1.28711
1.28537
1.28107
1.27842
1.27951
1.28148
1.28087
1.28064
1.28146
1.2825
1.28725
1.29414
1.30202
1.31124
1.32143
0.482895
0.482863
0.482831
0.4828
0.482771
0.482736
0.482698
0.482667
0.482632
0.482594
0.482559
0.482531
0.482509
0.482489
0.482467
0.482433
0.482399
0.48239
0.482384
0.482362
0.48232
0.4823
0.482303
0.482294
0.482269
0.482222
0.48216
0.48209
0.482022
0.481954
0.481889
0.481823
0.481742
0.481646
0.481553
0.481432
0.481298
0.481281
0.481309
0.481286
0.48119
0.481065
0.481018
0.480949
0.480824
0.480572
0.480358
0.48029
0.480271
0.48022
0.480081
0.503623
0.567412
0.719148
0.867747
1.00747
1.09467
1.16231
1.21359
1.24843
1.28311
1.29837
1.31341
1.32787
1.35132
1.3586
1.36572
1.36447
1.35764
1.34732
1.33441
1.31603
1.29592
1.28547
1.2875
1.29268
1.29979
1.30383
1.30133
1.29522
1.28322
1.27571
1.27665
1.28329
1.28778
1.28647
1.28058
1.27566
1.27583
1.28
1.28019
1.27888
1.27849
1.27917
1.28051
1.28567
1.29208
1.29964
1.30876
1.32183
0.482482
0.482467
0.482451
0.482432
0.482412
0.482393
0.482368
0.482337
0.482308
0.482279
0.482256
0.482238
0.482218
0.482197
0.482175
0.482141
0.482101
0.482093
0.482082
0.482059
0.482013
0.481991
0.481973
0.481943
0.481898
0.481846
0.481784
0.481686
0.481591
0.481508
0.481425
0.481361
0.481305
0.481231
0.481126
0.480975
0.480907
0.48092
0.480928
0.480877
0.480731
0.480581
0.48059
0.480573
0.480485
0.480301
0.480179
0.480192
0.480191
0.480127
0.479976
0.47998
0.480029
0.480043
0.480168
0.480411
0.501879
0.604705
0.720943
0.863297
0.978215
1.09158
1.1994
1.28187
1.33708
1.34667
1.35196
1.34832
1.34476
1.33262
1.31798
1.298
1.28175
1.28247
1.2915
1.299
1.30092
1.30023
1.2949
1.28177
1.2713
1.27225
1.27856
1.28528
1.28492
1.28104
1.27347
1.27231
1.27628
1.2794
1.27833
1.27598
1.27606
1.27661
1.2786
1.28346
1.28934
1.29653
1.3056
1.3212
0.482215
0.482202
0.482184
0.482164
0.48214
0.482115
0.482093
0.482068
0.482035
0.481999
0.481966
0.481936
0.481907
0.481876
0.481845
0.48181
0.481767
0.481737
0.481711
0.481681
0.481647
0.481596
0.48153
0.481463
0.481406
0.481354
0.481287
0.481211
0.481139
0.481044
0.480919
0.480852
0.480861
0.480846
0.480781
0.480682
0.480629
0.48061
0.480564
0.480485
0.48033
0.48022
0.480257
0.480288
0.480238
0.480136
0.480139
0.480185
0.480178
0.480105
0.479994
0.479954
0.479956
0.479919
0.479998
0.480333
0.480659
0.480707
0.480392
0.479567
0.479216
0.524036
0.65234
0.860046
1.02359
1.14337
1.21155
1.23968
1.26824
1.27529
1.28346
1.28277
1.28473
1.29986
1.31241
1.31081
1.30541
1.29703
1.27903
1.26923
1.26958
1.27672
1.28669
1.28594
1.28245
1.27309
1.26921
1.2718
1.27954
1.27941
1.27723
1.2744
1.27475
1.27508
1.27726
1.28178
1.28709
1.29395
1.30357
1.32111
0.481821
0.481804
0.481787
0.481774
0.481758
0.481737
0.481713
0.481684
0.481652
0.48162
0.481582
0.481536
0.481492
0.481465
0.481431
0.481388
0.481346
0.481319
0.481286
0.48124
0.481174
0.481077
0.480979
0.480937
0.480925
0.480886
0.480811
0.480728
0.480656
0.480556
0.480433
0.480407
0.480436
0.480489
0.48048
0.480458
0.480437
0.480405
0.480338
0.480242
0.480108
0.480026
0.480061
0.480162
0.480152
0.480104
0.480091
0.480126
0.480147
0.480127
0.480013
0.479728
0.479549
0.479568
0.479703
0.480144
0.480691
0.480851
0.480668
0.479647
0.47903
0.47907
0.479699
0.481947
0.483697
0.585635
0.708895
0.840153
0.937286
1.0404
1.13161
1.21565
1.27915
1.31628
1.32137
1.31711
1.30609
1.28475
1.25998
1.2646
1.27709
1.28621
1.28923
1.28628
1.27443
1.26676
1.26913
1.27745
1.28113
1.27974
1.27507
1.27412
1.27476
1.27488
1.27662
1.28064
1.28551
1.29234
1.30256
1.32192
0.481419
0.481395
0.481365
0.481356
0.481354
0.481336
0.481311
0.481289
0.481264
0.481235
0.481183
0.481123
0.481102
0.481093
0.481064
0.481024
0.480993
0.480948
0.480889
0.480819
0.480734
0.48062
0.480518
0.480495
0.480498
0.480477
0.480421
0.480366
0.480326
0.480257
0.480172
0.48017
0.480232
0.480269
0.480276
0.480298
0.480294
0.480268
0.480212
0.480112
0.479976
0.479922
0.479951
0.480053
0.480123
0.480119
0.48011
0.480109
0.480111
0.480086
0.479966
0.479659
0.479255
0.479249
0.479335
0.479822
0.480636
0.48095
0.480866
0.479802
0.478727
0.478605
0.479064
0.481111
0.483968
0.485747
0.487381
0.490251
0.494774
0.50594
0.572145
0.736721
0.916897
1.04411
1.12539
1.19941
1.23734
1.25503
1.26016
1.28283
1.30035
1.29828
1.29386
1.2784
1.26735
1.26885
1.2783
1.28491
1.28363
1.27779
1.2736
1.27511
1.27592
1.2753
1.27669
1.27968
1.28469
1.29197
1.30212
1.32213
0.481016
0.480997
0.480971
0.480954
0.480955
0.480954
0.480943
0.480942
0.480947
0.48094
0.480914
0.480871
0.480821
0.480776
0.48077
0.480769
0.480751
0.4807
0.480587
0.480463
0.480366
0.480316
0.480305
0.480299
0.480281
0.480231
0.480168
0.480142
0.480137
0.48011
0.480049
0.480032
0.480043
0.480084
0.480172
0.480187
0.480169
0.480103
0.479995
0.479833
0.479732
0.479766
0.47987
0.479986
0.48005
0.480101
0.48017
0.480175
0.480164
0.480118
0.479996
0.479736
0.479196
0.478835
0.478788
0.479157
0.480394
0.480971
0.480976
0.480087
0.478319
0.47793
0.478386
0.480329
0.483164
0.485249
0.487229
0.490277
0.495066
0.49835
0.49889
0.498821
0.498086
0.503227
0.598554
0.772932
0.963775
1.13152
1.24978
1.29909
1.31152
1.3051
1.29112
1.26276
1.2657
1.27807
1.28703
1.28647
1.28132
1.27468
1.27388
1.27708
1.27681
1.27534
1.27559
1.27842
1.28409
1.29153
1.30128
1.32118
0.480816
0.480819
0.480815
0.480792
0.480767
0.48076
0.480755
0.480751
0.480745
0.480738
0.480724
0.480696
0.480655
0.480606
0.480595
0.480591
0.480576
0.480519
0.480379
0.480239
0.480153
0.480124
0.480117
0.480109
0.480077
0.480011
0.479954
0.479944
0.479943
0.479935
0.479914
0.479878
0.479876
0.479942
0.480013
0.48
0.479926
0.479793
0.479616
0.47951
0.479557
0.479707
0.479892
0.479964
0.479993
0.480046
0.480157
0.480254
0.480269
0.480219
0.480111
0.479914
0.479323
0.478564
0.478308
0.478444
0.47962
0.480865
0.480958
0.480173
0.478086
0.477409
0.477843
0.479657
0.482207
0.484371
0.48647
0.489443
0.49383
0.497691
0.498416
0.498293
0.497572
0.496673
0.496667
0.497371
0.4987
0.587033
0.848635
1.00444
1.11428
1.19188
1.23954
1.24713
1.27232
1.29062
1.28993
1.28484
1.27592
1.27084
1.27471
1.27845
1.27668
1.27365
1.27276
1.27766
1.28276
1.28931
1.29853
1.31842
0.480647
0.480644
0.480632
0.480604
0.480593
0.4806
0.480599
0.480582
0.480549
0.480544
0.480539
0.480525
0.480499
0.480449
0.48039
0.48038
0.480381
0.480365
0.48028
0.480127
0.479999
0.479931
0.47991
0.479901
0.479882
0.479847
0.479812
0.479794
0.479786
0.479784
0.4798
0.479812
0.479805
0.479798
0.479792
0.479758
0.47966
0.479489
0.479328
0.479323
0.479495
0.47985
0.479918
0.479894
0.479908
0.479981
0.480084
0.48025
0.480291
0.480241
0.48017
0.47998
0.479259
0.478396
0.478008
0.477967
0.478504
0.479886
0.480282
0.479779
0.477863
0.476952
0.477293
0.478903
0.481408
0.483816
0.486097
0.488899
0.493009
0.496977
0.497958
0.497773
0.496963
0.496349
0.496551
0.497509
0.499334
0.50132
0.502347
0.50346
0.610699
0.793329
0.994266
1.1659
1.25712
1.28424
1.28377
1.27724
1.26448
1.26812
1.2746
1.2746
1.27235
1.2687
1.26972
1.2755
1.27824
1.28314
1.29203
1.31306
0.480198
0.480203
0.480214
0.48028
0.480369
0.480376
0.480372
0.480359
0.480338
0.480325
0.480314
0.480299
0.480276
0.480231
0.480178
0.480175
0.480198
0.480201
0.48016
0.479999
0.479804
0.479731
0.479727
0.479735
0.479759
0.479766
0.479764
0.479745
0.479718
0.479709
0.479715
0.479722
0.479683
0.479572
0.479532
0.479505
0.4794
0.479152
0.479098
0.479188
0.479634
0.47991
0.479919
0.479838
0.479726
0.479713
0.479808
0.480128
0.480263
0.480221
0.480156
0.479937
0.478903
0.477959
0.477634
0.477414
0.477452
0.477868
0.4782
0.478069
0.477113
0.476464
0.476814
0.478534
0.481173
0.483656
0.485969
0.488684
0.492791
0.496825
0.497783
0.49746
0.49653
0.496214
0.496982
0.499187
0.500408
0.501546
0.503652
0.507836
0.512025
0.512681
0.513545
0.713251
0.910769
1.06398
1.18512
1.21179
1.24252
1.26924
1.26857
1.26563
1.26352
1.2618
1.26423
1.26665
1.26728
1.27097
1.2803
1.30497
0.479657
0.479652
0.479709
0.479949
0.480084
0.480127
0.480135
0.480133
0.480116
0.480082
0.480042
0.480023
0.480012
0.480003
0.480007
0.480043
0.480044
0.480028
0.479962
0.479833
0.479707
0.479658
0.479659
0.47967
0.47969
0.479729
0.479743
0.479743
0.479714
0.479717
0.4797
0.479608
0.479356
0.479227
0.479248
0.479248
0.479074
0.478865
0.478882
0.479112
0.47968
0.479906
0.479904
0.479814
0.479557
0.479272
0.479122
0.479298
0.479477
0.479369
0.47928
0.479156
0.478506
0.477502
0.476898
0.476543
0.47647
0.476665
0.476922
0.47688
0.476385
0.476135
0.476481
0.478172
0.48113
0.483722
0.485897
0.488477
0.492714
0.497228
0.497847
0.497312
0.496326
0.497114
0.499616
0.502465
0.504802
0.507701
0.510247
0.512728
0.516689
0.518904
0.519918
0.522202
0.524936
0.60468
0.800599
1.0169
1.1674
1.22
1.2396
1.25084
1.25055
1.24704
1.24854
1.24946
1.24912
1.25216
1.26209
1.29155
0.479332
0.479328
0.479329
0.479348
0.479432
0.479587
0.479695
0.479734
0.479748
0.479749
0.479725
0.47971
0.47972
0.479743
0.479743
0.479705
0.479623
0.479591
0.479617
0.479662
0.479686
0.479682
0.479693
0.47973
0.47973
0.47973
0.479737
0.479729
0.479672
0.479658
0.479608
0.479333
0.478861
0.47858
0.47851
0.478455
0.478459
0.478514
0.478646
0.478944
0.479289
0.479409
0.479396
0.479327
0.479138
0.47875
0.478242
0.477844
0.477558
0.477365
0.477362
0.477525
0.477482
0.476991
0.476324
0.475872
0.475816
0.476086
0.476475
0.476466
0.476147
0.476059
0.476392
0.477876
0.480898
0.483733
0.485903
0.488411
0.493252
0.499443
0.500295
0.50002
0.500762
0.502886
0.504725
0.506008
0.509058
0.513858
0.518108
0.51792
0.518801
0.52403
0.527795
0.530188
0.534292
0.53649
0.53741
0.578194
0.759283
0.957542
1.11309
1.18763
1.21483
1.22825
1.22545
1.22488
1.22414
1.2278
1.23897
1.2716
0.479278
0.479278
0.479258
0.479178
0.47904
0.479
0.478993
0.478995
0.47902
0.479066
0.479113
0.479151
0.479205
0.479253
0.479238
0.479066
0.478942
0.478972
0.479283
0.47958
0.47959
0.479556
0.479428
0.479322
0.479308
0.479381
0.479473
0.479475
0.479415
0.479234
0.478863
0.478328
0.477925
0.477707
0.477634
0.47765
0.477684
0.477702
0.477744
0.477931
0.478291
0.478501
0.4785
0.478384
0.478117
0.477712
0.477246
0.476751
0.476272
0.476099
0.476102
0.476284
0.476415
0.476321
0.476003
0.475665
0.475616
0.476
0.47704
0.477265
0.47692
0.476542
0.47673
0.477945
0.480663
0.483807
0.486407
0.489992
0.495485
0.501648
0.50561
0.508778
0.509833
0.509912
0.510688
0.512162
0.514114
0.518452
0.525012
0.527519
0.527393
0.529085
0.533192
0.537317
0.540709
0.543472
0.545412
0.546294
0.547685
0.567281
0.730997
0.952397
1.11649
1.17382
1.19082
1.19981
1.19866
1.20319
1.21543
1.24943
0.478909
0.478824
0.478597
0.478193
0.477672
0.477488
0.477481
0.477499
0.477554
0.477594
0.477632
0.477698
0.477839
0.477967
0.477951
0.477755
0.477707
0.477821
0.47807
0.478117
0.478067
0.478011
0.477962
0.477855
0.477794
0.477849
0.477984
0.47799
0.477965
0.477859
0.477554
0.477246
0.477239
0.477335
0.477452
0.477494
0.477477
0.477423
0.477458
0.477439
0.477276
0.476991
0.47701
0.47705
0.476993
0.476844
0.476586
0.476079
0.475548
0.475427
0.475455
0.475742
0.476093
0.476099
0.475944
0.475676
0.475749
0.476563
0.478846
0.480847
0.480797
0.480179
0.479923
0.480066
0.481691
0.485835
0.490734
0.494976
0.498694
0.503254
0.508606
0.513195
0.515598
0.516827
0.518786
0.522554
0.525722
0.527001
0.529967
0.53369
0.534436
0.534718
0.537793
0.543251
0.546449
0.549276
0.551923
0.55375
0.55586
0.558482
0.560862
0.586204
0.758579
0.971205
1.1041
1.15281
1.17272
1.18502
1.19662
1.22849
0.476432
0.47609
0.475656
0.475534
0.475529
0.475526
0.475525
0.47555
0.475617
0.475819
0.47604
0.476096
0.476132
0.476243
0.476341
0.476333
0.476335
0.476443
0.476732
0.476864
0.476892
0.476901
0.476889
0.476853
0.476854
0.476931
0.477133
0.477183
0.477198
0.477206
0.477217
0.477284
0.477554
0.477847
0.477861
0.477829
0.477734
0.477582
0.477379
0.476925
0.47593
0.475628
0.475744
0.476155
0.476449
0.476509
0.476418
0.475964
0.47545
0.475348
0.475405
0.475881
0.477034
0.477565
0.477436
0.477063
0.477254
0.478423
0.481293
0.485005
0.486361
0.48668
0.487125
0.488102
0.489943
0.49269
0.496485
0.499965
0.502332
0.506301
0.512202
0.516406
0.520051
0.523358
0.526044
0.529923
0.533573
0.534175
0.53467
0.536969
0.540878
0.544701
0.548181
0.55114
0.552182
0.553619
0.556689
0.560543
0.563472
0.565043
0.568544
0.569627
0.570337
0.614619
0.804371
1.00931
1.12257
1.15944
1.17739
1.20796
0.475669
0.475514
0.475472
0.475452
0.475458
0.475498
0.47562
0.475711
0.475705
0.475701
0.475781
0.475954
0.476096
0.47612
0.47607
0.475924
0.47586
0.475876
0.475968
0.476146
0.476275
0.476281
0.476239
0.476186
0.476189
0.476251
0.476396
0.476593
0.476771
0.476943
0.477153
0.477447
0.477801
0.47798
0.477982
0.47794
0.477814
0.477599
0.477244
0.476365
0.475354
0.475264
0.475398
0.475849
0.476405
0.476543
0.476483
0.476142
0.47623
0.476762
0.477786
0.479385
0.481735
0.483936
0.48506
0.485602
0.485817
0.485988
0.486881
0.489619
0.491614
0.491824
0.492171
0.493424
0.496156
0.500111
0.505157
0.511125
0.517439
0.52284
0.52725
0.529332
0.530103
0.530653
0.531488
0.534107
0.538065
0.540455
0.542118
0.545034
0.550111
0.554868
0.556484
0.557463
0.559069
0.561053
0.563417
0.567109
0.570689
0.571445
0.572668
0.575446
0.578703
0.580395
0.581509
0.665765
0.914324
1.09747
1.1473
1.1909
0.478782
0.478748
0.478645
0.47861
0.478678
0.478738
0.478728
0.478672
0.4785
0.478195
0.478023
0.477985
0.477914
0.477654
0.47714
0.476661
0.476423
0.476376
0.476426
0.476508
0.476521
0.476486
0.476264
0.475983
0.475942
0.475983
0.476097
0.476274
0.476523
0.476815
0.477109
0.477401
0.477692
0.477915
0.478024
0.478068
0.478041
0.477904
0.477604
0.476975
0.476415
0.476436
0.476678
0.477344
0.478708
0.480671
0.482838
0.485065
0.487084
0.488114
0.488574
0.489269
0.490492
0.491993
0.493391
0.493941
0.493676
0.493211
0.49324
0.49457
0.497337
0.497991
0.498272
0.499539
0.502889
0.508635
0.516014
0.523594
0.529765
0.533957
0.536547
0.53824
0.539372
0.540396
0.540671
0.540859
0.544126
0.550206
0.554352
0.556368
0.558515
0.560714
0.561542
0.563018
0.566343
0.570026
0.57141
0.572948
0.575512
0.577567
0.578693
0.581358
0.585282
0.588036
0.590177
0.590972
0.610135
0.839239
1.0637
1.16222
0.479342
0.479226
0.479132
0.479026
0.4789
0.478817
0.4787
0.478392
0.478071
0.477899
0.477817
0.477734
0.477378
0.476295
0.475942
0.475969
0.475929
0.475916
0.476056
0.476323
0.476392
0.476391
0.47629
0.476132
0.476169
0.476311
0.476646
0.477237
0.477974
0.478472
0.478883
0.479512
0.480431
0.481523
0.482628
0.484007
0.484904
0.485209
0.485544
0.486086
0.486582
0.487048
0.487702
0.488751
0.490306
0.49232
0.49454
0.496591
0.497928
0.498243
0.498429
0.498503
0.49842
0.498518
0.499277
0.500048
0.500136
0.500221
0.50086
0.503009
0.507291
0.511548
0.514133
0.51602
0.518075
0.521432
0.526705
0.531183
0.53448
0.538064
0.540812
0.543518
0.546779
0.550514
0.55452
0.555886
0.556677
0.558853
0.561438
0.563319
0.564535
0.565665
0.567911
0.570344
0.572864
0.575757
0.578014
0.579677
0.582128
0.585266
0.587532
0.589436
0.591689
0.594567
0.596247
0.597962
0.599095
0.605258
0.786341
1.10512
0.481551
0.481761
0.482
0.48225
0.482522
0.482831
0.483206
0.483485
0.483767
0.484259
0.4844
0.484226
0.483654
0.483582
0.483702
0.484167
0.485695
0.486787
0.486782
0.486102
0.4856
0.48559
0.48598
0.487139
0.488601
0.489192
0.489666
0.490541
0.49171
0.492651
0.493302
0.493826
0.494451
0.495339
0.496426
0.497617
0.49898
0.500427
0.501227
0.501297
0.501115
0.500988
0.500906
0.500719
0.500703
0.50084
0.501251
0.502028
0.503355
0.505181
0.506739
0.506894
0.507002
0.507686
0.509477
0.512004
0.514262
0.515918
0.517578
0.519239
0.521106
0.523948
0.526276
0.527262
0.528125
0.530267
0.534222
0.536824
0.53887
0.54297
0.549037
0.554462
0.557419
0.559042
0.561799
0.56399
0.564835
0.56554
0.567257
0.569741
0.571844
0.574759
0.57846
0.580737
0.581708
0.583248
0.586531
0.588685
0.59047
0.592612
0.594857
0.596759
0.598682
0.600162
0.601966
0.60345
0.605598
0.606655
0.609045
0.974118
0.495841
0.496136
0.496398
0.496654
0.496961
0.497353
0.497795
0.498293
0.498812
0.498941
0.498879
0.498861
0.498869
0.499024
0.499533
0.500207
0.50121
0.501884
0.501865
0.501233
0.500737
0.500668
0.500871
0.501817
0.502121
0.502033
0.50207
0.502327
0.502762
0.503001
0.503174
0.503519
0.503705
0.503903
0.504418
0.505393
0.506469
0.507651
0.508697
0.509353
0.509713
0.510117
0.510601
0.510564
0.510272
0.510121
0.510328
0.511487
0.513969
0.516971
0.519759
0.522137
0.523938
0.525221
0.526075
0.526915
0.527953
0.529089
0.530172
0.530298
0.530302
0.531276
0.532846
0.53373
0.534882
0.53724
0.54133
0.547955
0.555486
0.561119
0.564999
0.567694
0.567674
0.566592
0.566374
0.567976
0.570663
0.573371
0.576786
0.580094
0.583175
0.584949
0.586936
0.588804
0.590048
0.591698
0.593783
0.595479
0.59681
0.598657
0.600881
0.603247
0.604618
0.605866
0.607612
0.610174
0.611624
0.614285
0.613971
0.699245
0.506985
0.50705
0.507132
0.507239
0.507357
0.507539
0.507693
0.507784
0.507891
0.508024
0.508328
0.508793
0.509169
0.509424
0.509599
0.510459
0.512156
0.512445
0.511953
0.511284
0.511276
0.511466
0.512255
0.513861
0.514357
0.51429
0.514353
0.514707
0.515097
0.515267
0.515653
0.517073
0.518031
0.518264
0.518541
0.519015
0.519701
0.520917
0.522941
0.524701
0.525941
0.527006
0.527996
0.528829
0.529343
0.529502
0.529553
0.529749
0.53033
0.531325
0.532612
0.534317
0.536095
0.536484
0.536176
0.535678
0.535685
0.536282
0.537315
0.537527
0.537703
0.538189
0.540134
0.543679
0.547427
0.551137
0.556054
0.563004
0.568251
0.571381
0.574369
0.575657
0.575653
0.575308
0.57574
0.577776
0.581646
0.585739
0.588248
0.590373
0.591721
0.592078
0.59253
0.594402
0.597313
0.59979
0.601967
0.604076
0.604594
0.605639
0.6078
0.610198
0.612064
0.61364
0.615081
0.616672
0.618874
0.620377
0.621761
0.623406
0.524144
0.524217
0.524374
0.524663
0.525113
0.525732
0.526448
0.526996
0.527191
0.527223
0.527241
0.527306
0.527498
0.52788
0.52841
0.528686
0.528657
0.528563
0.528601
0.529098
0.529692
0.529709
0.529593
0.529682
0.530184
0.53061
0.530613
0.530553
0.530591
0.5309
0.531418
0.532108
0.532665
0.533055
0.533376
0.533839
0.534602
0.535529
0.536427
0.537077
0.537447
0.537828
0.538342
0.538951
0.539491
0.53953
0.539539
0.539534
0.539159
0.538949
0.539013
0.539737
0.541734
0.543448
0.544182
0.544632
0.545171
0.546273
0.548249
0.5508
0.553275
0.55509
0.556658
0.558593
0.561005
0.564161
0.568729
0.573305
0.575244
0.576311
0.578684
0.581971
0.584996
0.587662
0.589952
0.5926
0.595221
0.596631
0.597032
0.597705
0.598325
0.599774
0.601566
0.604258
0.60741
0.609046
0.610639
0.612339
0.613596
0.614636
0.616836
0.618748
0.620235
0.621398
0.623123
0.624518
0.62564
0.627226
0.628934
0.62929
0.536989
0.537099
0.537343
0.537699
0.538086
0.538668
0.539445
0.53965
0.539489
0.539302
0.53931
0.539454
0.539883
0.540549
0.541329
0.541826
0.541836
0.541842
0.542055
0.542821
0.543042
0.542928
0.542942
0.543243
0.543373
0.543401
0.543567
0.543935
0.544306
0.544404
0.544307
0.543869
0.543519
0.543515
0.543618
0.544122
0.545386
0.545955
0.54601
0.546136
0.546518
0.547207
0.548141
0.549148
0.550146
0.551298
0.552669
0.554112
0.555059
0.555484
0.555888
0.556522
0.557413
0.558744
0.560475
0.562279
0.563635
0.564266
0.564637
0.565464
0.566805
0.568047
0.568772
0.569255
0.570133
0.571941
0.575209
0.578994
0.583059
0.587164
0.590619
0.594152
0.597624
0.600375
0.601457
0.602518
0.60401
0.604341
0.604731
0.605879
0.608423
0.611764
0.615001
0.616693
0.61758
0.61773
0.618021
0.619383
0.622394
0.624275
0.625343
0.626819
0.627241
0.628241
0.629922
0.632403
0.633452
0.634106
0.635605
0.637192
0.552936
0.552476
0.55222
0.552193
0.552322
0.552555
0.55289
0.553388
0.553597
0.553624
0.55368
0.553905
0.554345
0.554654
0.5547
0.554732
0.554863
0.555231
0.555909
0.556412
0.556855
0.557629
0.558191
0.558359
0.558559
0.559186
0.559715
0.55978
0.55992
0.560444
0.560769
0.560726
0.560643
0.560751
0.561191
0.561722
0.562348
0.563211
0.564186
0.565078
0.565573
0.565817
0.566124
0.566727
0.567053
0.567162
0.567431
0.568053
0.568758
0.569415
0.570203
0.571192
0.571951
0.571975
0.571838
0.57201
0.572828
0.573254
0.573385
0.573573
0.573926
0.57462
0.575673
0.577216
0.579677
0.582582
0.585794
0.591169
0.598548
0.605469
0.608923
0.609762
0.609993
0.610496
0.610418
0.610277
0.610886
0.612809
0.615777
0.618667
0.621271
0.622873
0.624611
0.625169
0.62532
0.625859
0.626934
0.629008
0.631478
0.63307
0.633089
0.633773
0.635941
0.637668
0.638465
0.639681
0.641848
0.642844
0.643397
0.644258
0.569546
0.569544
0.569696
0.569773
0.569748
0.569634
0.569608
0.56966
0.569761
0.570103
0.570443
0.570435
0.570204
0.570067
0.570089
0.57035
0.570961
0.571151
0.570911
0.570585
0.57058
0.570938
0.571265
0.57144
0.571931
0.572679
0.57275
0.572801
0.573352
0.574099
0.574145
0.574167
0.574738
0.575537
0.575942
0.576286
0.576595
0.576659
0.576688
0.576853
0.577232
0.57771
0.578297
0.578929
0.579709
0.580773
0.581176
0.581018
0.580323
0.579715
0.579762
0.580498
0.581855
0.583146
0.584136
0.584752
0.585416
0.586665
0.588435
0.589851
0.590689
0.591577
0.593004
0.595268
0.597869
0.600687
0.604372
0.608893
0.61255
0.615828
0.618084
0.618506
0.618465
0.618729
0.619532
0.621099
0.623113
0.625779
0.628644
0.630744
0.632071
0.632019
0.631943
0.632555
0.634228
0.63635
0.638576
0.640124
0.640871
0.64179
0.642659
0.643217
0.644419
0.64677
0.648402
0.648611
0.648971
0.650178
0.651312
0.651793
0.585491
0.585174
0.585145
0.585394
0.585988
0.586053
0.585919
0.585834
0.585854
0.586154
0.586671
0.586731
0.586721
0.586824
0.58748
0.587781
0.587696
0.587501
0.587493
0.58776
0.588586
0.588798
0.588712
0.588876
0.589704
0.589958
0.590044
0.590375
0.590475
0.590301
0.590262
0.590731
0.591231
0.59129
0.591547
0.591974
0.591986
0.591956
0.592182
0.592764
0.593685
0.594717
0.594947
0.594912
0.595187
0.596547
0.597625
0.597742
0.597973
0.598771
0.599149
0.59911
0.599096
0.599489
0.600578
0.601684
0.602543
0.603102
0.603654
0.604472
0.605187
0.605649
0.606106
0.606805
0.607838
0.609577
0.612359
0.61629
0.619125
0.621614
0.624442
0.627557
0.630609
0.633086
0.635273
0.637182
0.638929
0.640229
0.640526
0.640971
0.641356
0.641914
0.642975
0.644925
0.647228
0.648858
0.65033
0.650221
0.649596
0.649744
0.650694
0.651935
0.653089
0.654467
0.656544
0.657479
0.657725
0.658064
0.659007
0.659576
0.60305
0.603061
0.603103
0.603122
0.603152
0.603232
0.603348
0.60348
0.603693
0.603912
0.603997
0.60405
0.604148
0.604186
0.604122
0.604083
0.604156
0.604356
0.604544
0.604764
0.605038
0.605123
0.605159
0.605376
0.605659
0.605616
0.605583
0.606009
0.60665
0.606848
0.607116
0.607565
0.607624
0.607691
0.608246
0.60889
0.608936
0.608983
0.609248
0.609455
0.609751
0.610079
0.609992
0.609881
0.610237
0.610752
0.610794
0.610794
0.611252
0.612554
0.613218
0.613436
0.613729
0.613669
0.613598
0.613896
0.614478
0.614489
0.614525
0.614896
0.615983
0.617254
0.618387
0.619483
0.621183
0.623663
0.626757
0.631195
0.637734
0.643141
0.645893
0.647587
0.64885
0.649964
0.650394
0.650244
0.650308
0.650423
0.650572
0.65118
0.652308
0.654148
0.656299
0.657932
0.658864
0.659409
0.659313
0.658758
0.659
0.659644
0.661204
0.66342
0.665259
0.665231
0.664836
0.665291
0.666627
0.667508
0.667823
0.667812
0.62133
0.621409
0.621492
0.621587
0.62166
0.621695
0.621768
0.621872
0.621934
0.622025
0.622085
0.622108
0.622154
0.622234
0.62242
0.622571
0.622629
0.622683
0.622829
0.622896
0.622876
0.622869
0.622924
0.62315
0.623478
0.623679
0.623916
0.62426
0.624319
0.624322
0.624425
0.624784
0.625141
0.625281
0.625396
0.625574
0.625619
0.625519
0.625466
0.625676
0.626708
0.627645
0.627717
0.627788
0.628285
0.628951
0.628997
0.62894
0.629224
0.629786
0.62986
0.629903
0.630372
0.631156
0.631601
0.631914
0.632427
0.633219
0.634062
0.634653
0.635032
0.635586
0.636429
0.637637
0.639257
0.641345
0.644146
0.647678
0.652525
0.65645
0.657071
0.657096
0.656993
0.657224
0.657451
0.65776
0.658367
0.659571
0.661823
0.664375
0.666721
0.668249
0.669365
0.669194
0.668832
0.668776
0.668878
0.669311
0.670646
0.672463
0.673552
0.67466
0.674756
0.674608
0.674421
0.674731
0.675502
0.676662
0.676843
0.676678
0.640858
0.640888
0.640907
0.640914
0.640981
0.641065
0.641072
0.641086
0.641195
0.641263
0.64131
0.641448
0.641589
0.641623
0.641651
0.64171
0.641804
0.641965
0.642091
0.642129
0.642181
0.642308
0.642514
0.642632
0.642624
0.642588
0.642586
0.642645
0.642831
0.643059
0.64335
0.643492
0.643473
0.6435
0.643727
0.644127
0.644386
0.644532
0.644731
0.645078
0.645313
0.645305
0.645042
0.644809
0.644948
0.645571
0.646059
0.646432
0.646933
0.647271
0.647252
0.647179
0.647278
0.647524
0.647779
0.648
0.648205
0.648493
0.648978
0.649188
0.649162
0.649238
0.649562
0.650178
0.651147
0.652834
0.655326
0.658224
0.661587
0.665881
0.669683
0.671863
0.67338
0.674758
0.676344
0.677947
0.679276
0.680213
0.681126
0.681572
0.68152
0.681255
0.680939
0.680555
0.68062
0.680888
0.681723
0.682927
0.683888
0.684482
0.684236
0.683797
0.683291
0.683497
0.684471
0.686039
0.687092
0.68704
0.686792
0.686311
0.661651
0.661704
0.661738
0.66177
0.661874
0.661901
0.661885
0.661906
0.661969
0.661982
0.661995
0.66205
0.662136
0.662198
0.662238
0.662303
0.662429
0.662478
0.662455
0.662425
0.662438
0.662504
0.662568
0.66263
0.662728
0.662828
0.662886
0.662942
0.663015
0.663106
0.66321
0.663326
0.663455
0.663601
0.663665
0.663643
0.663589
0.663586
0.66363
0.663727
0.663933
0.664236
0.664527
0.664828
0.665076
0.665059
0.664814
0.664661
0.66475
0.66502
0.665298
0.665633
0.665879
0.66597
0.666085
0.666348
0.666552
0.66664
0.666729
0.666929
0.667373
0.667999
0.66867
0.669458
0.670656
0.672342
0.674664
0.678097
0.683169
0.688066
0.690543