/*--------------------------------*- C++ -*----------------------------------*\
  =========                 |
  \\      /  F ield         | OpenFOAM: The Open Source CFD Toolbox
   \\    /   O peration     | Website:  https://openfoam.org
    \\  /    A nd           | Version:  7
     \\/     M anipulation  |
\*---------------------------------------------------------------------------*/
FoamFile
{
    version     2.0;
    format      ascii;
    class       volVectorField;
    location    "10";
    object      U;
}
// * * * * * * * * * * * * * * * * * * * * * * * * * * * * * * * * * * * * * //

dimensions      [0 1 -1 0 0 0 0];

internalField   nonuniform List<vector> 
90000
(
(4.06335 -0.318993 0)
(4.05919 -0.300484 0)
(4.05387 -0.279766 0)
(4.05059 -0.27125 0)
(4.04424 -0.253352 0)
(4.0392 -0.239236 0)
(4.03504 -0.228797 0)
(4.03124 -0.220508 0)
(4.02685 -0.206707 0)
(4.02428 -0.197474 0)
(4.02204 -0.185748 0)
(4.02062 -0.177856 0)
(4.01856 -0.164688 0)
(4.01756 -0.158305 0)
(4.01554 -0.144333 0)
(4.01486 -0.140194 0)
(4.01258 -0.125453 0)
(4.01187 -0.122271 0)
(4.00955 -0.109162 0)
(4.00837 -0.103928 0)
(4.0066 -0.0949078 0)
(4.00477 -0.0857737 0)
(4.00359 -0.0801247 0)
(4.00165 -0.0713443 0)
(3.99976 -0.0621818 0)
(3.9993 -0.0592545 0)
(3.99626 -0.0464975 0)
(3.99535 -0.0426012 0)
(3.99449 -0.0367834 0)
(3.99109 -0.0255665 0)
(3.99068 -0.0215396 0)
(3.99116 -0.0173552 0)
(3.98667 -0.00775088 0)
(3.98712 -0.00492347 0)
(3.9861 -0.00211577 0)
(3.98518 0.000153373 0)
(3.98552 0.00295061 0)
(3.98449 0.00528219 0)
(3.98247 0.00606718 0)
(3.98164 0.00957654 0)
(3.98313 0.00292002 0)
(3.98189 0.00223279 0)
(3.98217 -0.00380611 0)
(3.98132 -0.00567348 0)
(3.98003 -0.00760398 0)
(3.97853 -0.0094396 0)
(3.97733 -0.00925463 0)
(3.97685 -0.00892613 0)
(3.97739 -0.00764226 0)
(3.977 -0.00512993 0)
(3.97802 -0.00196315 0)
(3.97824 0.000594838 0)
(3.97906 0.00217378 0)
(3.97958 0.0025774 0)
(3.98039 0.00137924 0)
(3.98094 0.002163 0)
(3.98166 -1.11072e-05 0)
(3.9816 -0.00122028 0)
(3.98163 -0.00305387 0)
(3.98139 -0.00427804 0)
(3.98103 -0.0064616 0)
(3.98064 -0.00432867 0)
(3.98036 -0.00252039 0)
(3.98095 0.000604455 0)
(3.98099 0.00160535 0)
(3.98167 0.00186951 0)
(3.98233 0.00204071 0)
(3.98242 3.79283e-06 0)
(3.98253 -0.00158282 0)
(3.98253 -0.00329902 0)
(3.98187 -0.00199495 0)
(3.98166 -0.000848603 0)
(3.98179 0.00112915 0)
(3.982 0.00110892 0)
(3.98208 -0.000418326 0)
(3.98224 -0.0022767 0)
(3.98254 -0.00333246 0)
(3.98227 -0.00234964 0)
(3.98216 -0.000962633 0)
(3.98225 0.00017121 0)
(3.98206 -0.000360819 0)
(3.98207 -0.00126089 0)
(3.98255 -0.0018722 0)
(3.98212 -0.00112638 0)
(3.98183 -0.000569885 0)
(3.98218 -0.000195866 0)
(3.98221 -0.000500269 0)
(3.98227 -0.0010345 0)
(3.98231 -0.00108563 0)
(3.98235 -0.0011273 0)
(3.98234 -0.000826639 0)
(3.98237 -0.000861447 0)
(3.98243 -0.00105169 0)
(3.9825 -0.0012026 0)
(3.98257 -0.00138902 0)
(3.98277 -0.00115912 0)
(3.98272 -0.0005492 0)
(3.9827 -0.00033101 0)
(3.98269 -0.000209959 0)
(3.98281 -0.000603436 0)
(4.06479 -0.334961 0)
(4.06455 -0.334249 0)
(4.06401 -0.33293 0)
(4.06332 -0.331326 0)
(4.06227 -0.328918 0)
(4.06104 -0.32593 0)
(4.05964 -0.321802 0)
(4.05833 -0.318382 0)
(4.05611 -0.312927 0)
(4.05354 -0.308326 0)
(4.05029 -0.301566 0)
(4.04715 -0.29623 0)
(4.04327 -0.287697 0)
(4.03989 -0.280497 0)
(4.0359 -0.269889 0)
(4.03265 -0.261381 0)
(4.02844 -0.247855 0)
(4.02558 -0.238719 0)
(4.02114 -0.221994 0)
(4.01871 -0.212666 0)
(4.01419 -0.193426 0)
(4.0119 -0.182781 0)
(4.00785 -0.163533 0)
(4.00554 -0.150752 0)
(4.00164 -0.130801 0)
(4.00085 -0.120722 0)
(3.99568 -0.0947401 0)
(3.99675 -0.0902691 0)
(3.99157 -0.0661118 0)
(3.98947 -0.0525143 0)
(3.98998 -0.0443856 0)
(3.98583 -0.0251497 0)
(3.98331 -0.00907558 0)
(3.9873 -0.0107877 0)
(3.98026 0.00695553 0)
(3.97795 0.0177544 0)
(3.97954 0.0182795 0)
(3.97661 0.025073 0)
(3.97552 0.0256526 0)
(3.9748 0.0212086 0)
(3.97416 0.0149809 0)
(3.97623 0.0103337 0)
(3.97581 0.00517751 0)
(3.97936 7.91932e-05 0)
(3.97982 -0.00178305 0)
(3.98039 -0.00340493 0)
(3.9809 -0.00513274 0)
(3.98158 -0.00525683 0)
(3.98221 -0.00458108 0)
(3.98211 -0.00323633 0)
(3.9824 -0.000869219 0)
(3.98172 0.00232632 0)
(3.98188 0.00385587 0)
(3.98171 0.00579761 0)
(3.98098 0.0053747 0)
(3.98068 0.00368121 0)
(3.98032 0.000346384 0)
(3.98067 -0.0030822 0)
(3.98092 -0.00644814 0)
(3.98078 -0.00764331 0)
(3.98113 -0.00749631 0)
(3.98147 -0.00582644 0)
(3.98164 -0.00262106 0)
(3.98147 0.000470019 0)
(3.98163 0.00355568 0)
(3.98126 0.00332592 0)
(3.98102 0.00206643 0)
(3.98065 -0.00189556 0)
(3.9806 -0.0035152 0)
(3.9809 -0.00364918 0)
(3.98108 -0.00293009 0)
(3.98154 6.28357e-05 0)
(3.98121 0.000713119 0)
(3.98142 0.00126282 0)
(3.98044 -0.00165005 0)
(3.98062 -0.00248399 0)
(3.98084 -0.00242887 0)
(3.98141 -0.00102241 0)
(3.98136 -0.000498803 0)
(3.98142 -0.000116929 0)
(3.98089 -0.00109736 0)
(3.98088 -0.0013669 0)
(3.98116 -0.000880117 0)
(3.98123 -0.00068861 0)
(3.9812 -0.000592081 0)
(3.9812 -0.000472739 0)
(3.98106 -0.00110481 0)
(3.98111 -0.00117084 0)
(3.98121 -0.000822044 0)
(3.98119 -0.000677412 0)
(3.98117 -0.000769844 0)
(3.98123 -0.00104476 0)
(3.98136 -0.0011729 0)
(3.98149 -0.00106199 0)
(3.9816 -0.00091513 0)
(3.98168 -0.000487578 0)
(3.98172 -0.000487052 0)
(3.98175 -0.000314704 0)
(3.98173 -0.00042258 0)
(3.98181 -0.000831444 0)
(4.06138 -0.334567 0)
(4.06132 -0.334587 0)
(4.06125 -0.334563 0)
(4.06117 -0.334533 0)
(4.06109 -0.334466 0)
(4.061 -0.334359 0)
(4.06091 -0.334269 0)
(4.0608 -0.334113 0)
(4.06066 -0.333921 0)
(4.06048 -0.333593 0)
(4.06028 -0.333234 0)
(4.06002 -0.332701 0)
(4.05965 -0.332029 0)
(4.05906 -0.33119 0)
(4.05833 -0.3301 0)
(4.05748 -0.32859 0)
(4.05651 -0.326771 0)
(4.05537 -0.324125 0)
(4.05409 -0.321199 0)
(4.05261 -0.317328 0)
(4.05082 -0.312065 0)
(4.04912 -0.307326 0)
(4.04663 -0.298337 0)
(4.04471 -0.292598 0)
(4.04159 -0.280028 0)
(4.03914 -0.270848 0)
(4.03574 -0.257095 0)
(4.03268 -0.243634 0)
(4.0285 -0.224654 0)
(4.02671 -0.216178 0)
(4.02073 -0.184561 0)
(4.01957 -0.18074 0)
(4.01349 -0.151385 0)
(4.01105 -0.138472 0)
(4.00624 -0.112696 0)
(4.00666 -0.110877 0)
(4.00126 -0.0805481 0)
(4.00091 -0.0781555 0)
(3.99714 -0.0600281 0)
(4.00067 -0.057012 0)
(3.99271 -0.0375628 0)
(3.99275 -0.03121 0)
(3.98892 -0.0220895 0)
(3.98924 -0.0151706 0)
(3.98798 -0.0110277 0)
(3.98799 -0.00700672 0)
(3.98659 -0.00477127 0)
(3.98747 -0.0011331 0)
(3.98699 0.00154435 0)
(3.98597 0.00329888 0)
(3.98412 0.00424688 0)
(3.98297 0.00371929 0)
(3.98187 0.00202315 0)
(3.98105 0.000968336 0)
(3.97998 -0.00256735 0)
(3.97975 -0.00271041 0)
(3.97997 -0.00472658 0)
(3.98037 -0.00485455 0)
(3.98124 -0.00433958 0)
(3.98195 -0.00348359 0)
(3.98257 -0.00153384 0)
(3.98256 -0.000332535 0)
(3.98246 0.00152177 0)
(3.98204 0.00119092 0)
(3.98125 0.000289121 0)
(3.98004 -0.00193138 0)
(3.97978 -0.00140496 0)
(3.97986 -0.00102472 0)
(3.98028 -0.000672954 0)
(3.9807 0.000374553 0)
(3.98085 0.000138186 0)
(3.98073 -0.000728568 0)
(3.9804 -0.0015696 0)
(3.98048 -0.00288193 0)
(3.98001 -0.0013664 0)
(3.98027 -0.00125031 0)
(3.98002 -7.08921e-05 0)
(3.98077 -0.00172978 0)
(3.98059 -0.00216192 0)
(3.98072 -0.00280063 0)
(3.98024 -0.00124248 0)
(3.9803 -0.000755651 0)
(3.98038 -0.000861614 0)
(3.98042 -0.00114721 0)
(3.98053 -0.00140572 0)
(3.98048 -0.00092284 0)
(3.98044 -0.00067018 0)
(3.98036 -0.000603142 0)
(3.98036 -0.000738841 0)
(3.98028 -0.00105221 0)
(3.98038 -0.00104531 0)
(3.98048 -0.000930376 0)
(3.98055 -0.00101524 0)
(3.98067 -0.00117927 0)
(3.98078 -0.00154795 0)
(3.9808 -0.00145054 0)
(3.98091 -0.00102011 0)
(3.98101 -0.000466727 0)
(3.98095 -0.000214041 0)
(3.981 -0.000500718 0)
(4.05691 -0.334566 0)
(4.05685 -0.334572 0)
(4.05683 -0.334588 0)
(4.05679 -0.334647 0)
(4.05676 -0.33472 0)
(4.05674 -0.334716 0)
(4.05671 -0.334751 0)
(4.05666 -0.334764 0)
(4.05659 -0.334823 0)
(4.05653 -0.334851 0)
(4.05646 -0.334834 0)
(4.05637 -0.334948 0)
(4.0563 -0.334935 0)
(4.05622 -0.334805 0)
(4.05615 -0.33475 0)
(4.05606 -0.334734 0)
(4.05596 -0.33465 0)
(4.05585 -0.334503 0)
(4.05577 -0.334344 0)
(4.05569 -0.334175 0)
(4.05559 -0.333962 0)
(4.05545 -0.333607 0)
(4.05529 -0.333192 0)
(4.05507 -0.332404 0)
(4.05468 -0.33155 0)
(4.05419 -0.330217 0)
(4.05353 -0.32819 0)
(4.05275 -0.32574 0)
(4.05164 -0.3217 0)
(4.05037 -0.316697 0)
(4.04858 -0.309878 0)
(4.04665 -0.301262 0)
(4.04354 -0.287801 0)
(4.04116 -0.277779 0)
(4.03609 -0.253789 0)
(4.0337 -0.24055 0)
(4.02657 -0.207148 0)
(4.0251 -0.193736 0)
(4.01595 -0.147126 0)
(4.01737 -0.137849 0)
(4.00756 -0.0875743 0)
(4.00955 -0.0847085 0)
(4 -0.0420349 0)
(4.0011 -0.042374 0)
(3.99329 -0.0130493 0)
(3.99354 -0.0132667 0)
(3.98857 0.00262465 0)
(3.98698 0.00338717 0)
(3.98515 0.0115713 0)
(3.98305 0.00922503 0)
(3.98182 0.00421543 0)
(3.98197 0.000361519 0)
(3.98122 -0.00231562 0)
(3.98103 -0.00385331 0)
(3.98053 -0.0040954 0)
(3.98066 -0.00332867 0)
(3.98099 -0.00188116 0)
(3.98131 0.000293236 0)
(3.98189 0.00373185 0)
(3.98243 0.00442803 0)
(3.98139 0.00604372 0)
(3.98272 0.00186803 0)
(3.98235 -0.00058556 0)
(3.98152 -0.00399875 0)
(3.98081 -0.00528657 0)
(3.98065 -0.00449743 0)
(3.9814 -0.00207052 0)
(3.9814 -0.000270718 0)
(3.9812 0.00262348 0)
(3.98164 0.00210422 0)
(3.98132 0.000311148 0)
(3.98105 -0.00162189 0)
(3.98133 -0.00345141 0)
(3.9811 -0.00256106 0)
(3.98117 -0.00161034 0)
(3.98131 0.000185034 0)
(3.98147 -0.000196588 0)
(3.98132 -0.00125337 0)
(3.98111 -0.00229 0)
(3.981 -0.00193438 0)
(3.98102 -0.00122766 0)
(3.98108 -0.000517305 0)
(3.9811 -0.000703654 0)
(3.98093 -0.00102996 0)
(3.98094 -0.000930369 0)
(3.98096 -0.000402299 0)
(3.98094 -0.000168477 0)
(3.98086 -0.000471837 0)
(3.98088 -0.00100549 0)
(3.98081 -0.00121408 0)
(3.98098 -0.000957671 0)
(3.98099 -0.000937294 0)
(3.98098 -0.00107823 0)
(3.98109 -0.00117395 0)
(3.98115 -0.00102778 0)
(3.98122 -0.000641258 0)
(3.98124 -0.000211669 0)
(3.98125 -9.45775e-05 0)
(3.98119 -0.000177995 0)
(3.98121 -0.000500772 0)
(4.05416 -0.33426 0)
(4.05415 -0.334264 0)
(4.05414 -0.334277 0)
(4.05412 -0.334289 0)
(4.05411 -0.334321 0)
(4.0541 -0.33434 0)
(4.05409 -0.334315 0)
(4.05405 -0.334357 0)
(4.05401 -0.334469 0)
(4.05399 -0.334498 0)
(4.05399 -0.334464 0)
(4.05397 -0.33451 0)
(4.05394 -0.334619 0)
(4.05398 -0.334636 0)
(4.05402 -0.334641 0)
(4.054 -0.334714 0)
(4.05401 -0.334772 0)
(4.05403 -0.33485 0)
(4.05407 -0.33489 0)
(4.0541 -0.334969 0)
(4.05413 -0.335014 0)
(4.05415 -0.33509 0)
(4.05415 -0.335081 0)
(4.05408 -0.335087 0)
(4.05413 -0.334992 0)
(4.05418 -0.334885 0)
(4.0542 -0.33475 0)
(4.0542 -0.334609 0)
(4.05421 -0.334493 0)
(4.05421 -0.334244 0)
(4.0542 -0.333907 0)
(4.05413 -0.333307 0)
(4.05402 -0.33256 0)
(4.05374 -0.33109 0)
(4.05326 -0.329033 0)
(4.05246 -0.32528 0)
(4.0512 -0.320031 0)
(4.04955 -0.31224 0)
(4.04677 -0.30061 0)
(4.04395 -0.287153 0)
(4.03908 -0.263672 0)
(4.03604 -0.246111 0)
(4.02876 -0.208009 0)
(4.02658 -0.192747 0)
(4.01728 -0.143632 0)
(4.0166 -0.136013 0)
(4.00812 -0.0894661 0)
(4.00737 -0.0898409 0)
(4.00133 -0.0570077 0)
(4.00516 -0.062436 0)
(3.99566 -0.0404757 0)
(3.99711 -0.0364368 0)
(3.99122 -0.0250125 0)
(3.99194 -0.0200814 0)
(3.9883 -0.0134064 0)
(3.98803 -0.00642057 0)
(3.98544 -0.000556325 0)
(3.98275 0.00561068 0)
(3.98248 0.00636266 0)
(3.98174 0.00544012 0)
(3.98029 0.000893087 0)
(3.98097 -0.000330296 0)
(3.98048 -0.00521302 0)
(3.98092 -0.00609297 0)
(3.98178 -0.00556942 0)
(3.98337 -0.00373159 0)
(3.98326 -0.0020617 0)
(3.98384 0.000724499 0)
(3.98347 0.00119788 0)
(3.98259 -0.000227976 0)
(3.98234 -0.0023774 0)
(3.98245 -0.00305952 0)
(3.98297 -0.00277262 0)
(3.98301 -0.00307522 0)
(3.98347 -0.00106306 0)
(3.9833 -0.000753896 0)
(3.98343 2.00724e-05 0)
(3.98267 -0.00159001 0)
(3.98278 -0.00185813 0)
(3.98259 -0.00257719 0)
(3.98305 -0.00149975 0)
(3.98296 -0.00112852 0)
(3.98303 -0.000502316 0)
(3.98254 -0.00112508 0)
(3.98267 -0.00160215 0)
(3.98273 -0.00162025 0)
(3.98278 -0.00128417 0)
(3.98282 -0.000484473 0)
(3.98283 -0.000373584 0)
(3.98284 -0.000551551 0)
(3.98286 -0.000867391 0)
(3.9828 -0.0011348 0)
(3.98275 -0.00141191 0)
(3.98274 -0.00147993 0)
(3.98274 -0.00152996 0)
(3.98285 -0.00120737 0)
(3.98281 -0.000874499 0)
(3.9828 -0.000707232 0)
(3.98277 -0.000646226 0)
(3.98269 -0.000842233 0)
(4.05412 -0.334323 0)
(4.05414 -0.334355 0)
(4.05415 -0.33438 0)
(4.05414 -0.33443 0)
(4.05414 -0.334439 0)
(4.05414 -0.334395 0)
(4.05415 -0.334393 0)
(4.05413 -0.33449 0)
(4.05416 -0.334554 0)
(4.0542 -0.334539 0)
(4.05425 -0.334537 0)
(4.05423 -0.334643 0)
(4.05426 -0.33472 0)
(4.05431 -0.334758 0)
(4.05431 -0.33485 0)
(4.05435 -0.334911 0)
(4.05441 -0.334941 0)
(4.05448 -0.335004 0)
(4.05456 -0.335048 0)
(4.05465 -0.335063 0)
(4.05473 -0.335085 0)
(4.05481 -0.335121 0)
(4.05488 -0.335157 0)
(4.05496 -0.335162 0)
(4.05505 -0.335172 0)
(4.05512 -0.335196 0)
(4.05519 -0.335214 0)
(4.05526 -0.335227 0)
(4.05534 -0.335252 0)
(4.05542 -0.335239 0)
(4.0555 -0.335219 0)
(4.0556 -0.335108 0)
(4.05568 -0.335063 0)
(4.05576 -0.33499 0)
(4.05588 -0.334888 0)
(4.05593 -0.334717 0)
(4.05601 -0.33452 0)
(4.05606 -0.334196 0)
(4.05619 -0.333564 0)
(4.05619 -0.33231 0)
(4.05594 -0.330142 0)
(4.05524 -0.326169 0)
(4.05365 -0.319571 0)
(4.05138 -0.309168 0)
(4.04742 -0.291789 0)
(4.04369 -0.272553 0)
(4.0362 -0.237015 0)
(4.03271 -0.213663 0)
(4.02122 -0.158367 0)
(4.02244 -0.140819 0)
(4.00964 -0.0779956 0)
(4.01321 -0.072089 0)
(4.00162 -0.0252668 0)
(4.00416 -0.0223073 0)
(3.99584 0.00517154 0)
(3.99393 0.00939166 0)
(3.99021 0.0213388 0)
(3.98648 0.015976 0)
(3.98375 0.00594959 0)
(3.98311 0.000934108 0)
(3.98208 -0.00350129 0)
(3.98143 -0.0048825 0)
(3.98176 -0.00493887 0)
(3.9826 -0.00265428 0)
(3.98391 -0.000101159 0)
(3.98483 0.00266611 0)
(3.98503 0.0015351 0)
(3.98493 0.000506884 0)
(3.98431 -0.00193078 0)
(3.98414 -0.00346112 0)
(3.98385 -0.00313026 0)
(3.9841 -0.00249658 0)
(3.98456 -0.000882424 0)
(3.9846 0.000714671 0)
(3.98519 -0.000781102 0)
(3.98497 -0.00154335 0)
(3.98489 -0.00288506 0)
(3.98468 -0.00155949 0)
(3.98497 -0.00105698 0)
(3.98508 -0.000574086 0)
(3.98524 -0.00139796 0)
(3.98516 -0.00173859 0)
(3.98508 -0.00167629 0)
(3.98517 -0.00095476 0)
(3.98516 5.34559e-05 0)
(3.98516 8.44864e-05 0)
(3.9854 -0.00102406 0)
(3.98541 -0.00126818 0)
(3.98537 -0.00107915 0)
(3.98529 -0.00084234 0)
(3.98523 -0.000884985 0)
(3.9851 -0.00102797 0)
(3.98503 -0.00110432 0)
(3.98502 -0.000980206 0)
(3.98507 -0.00079357 0)
(3.98521 -0.000581119 0)
(3.9852 -0.000416172 0)
(3.98519 -0.000268388 0)
(3.98521 -0.000197882 0)
(3.98496 -0.000337136 0)
(4.05597 -0.333982 0)
(4.056 -0.333969 0)
(4.05603 -0.333982 0)
(4.05605 -0.333993 0)
(4.05608 -0.333961 0)
(4.05609 -0.333975 0)
(4.05614 -0.334015 0)
(4.05621 -0.334057 0)
(4.05625 -0.334119 0)
(4.05631 -0.334171 0)
(4.05637 -0.334171 0)
(4.05644 -0.33411 0)
(4.0565 -0.334053 0)
(4.05657 -0.334031 0)
(4.05665 -0.33405 0)
(4.05676 -0.334119 0)
(4.05689 -0.334232 0)
(4.05694 -0.334274 0)
(4.05702 -0.334279 0)
(4.05711 -0.334286 0)
(4.05719 -0.334323 0)
(4.05728 -0.334358 0)
(4.05738 -0.33438 0)
(4.05748 -0.334416 0)
(4.05753 -0.334436 0)
(4.05761 -0.334472 0)
(4.05771 -0.334497 0)
(4.0578 -0.334525 0)
(4.05789 -0.334567 0)
(4.05798 -0.334588 0)
(4.05807 -0.334578 0)
(4.05818 -0.334577 0)
(4.05824 -0.334564 0)
(4.05829 -0.334568 0)
(4.05835 -0.334584 0)
(4.05845 -0.334527 0)
(4.05851 -0.334506 0)
(4.05862 -0.334438 0)
(4.05877 -0.334436 0)
(4.05888 -0.33444 0)
(4.05916 -0.334321 0)
(4.05925 -0.334194 0)
(4.05945 -0.333875 0)
(4.05969 -0.33332 0)
(4.05974 -0.332397 0)
(4.05934 -0.330179 0)
(4.05837 -0.326362 0)
(4.05658 -0.318038 0)
(4.05364 -0.306052 0)
(4.04951 -0.28552 0)
(4.04361 -0.257658 0)
(4.03825 -0.226351 0)
(4.02998 -0.181875 0)
(4.02595 -0.154184 0)
(4.01852 -0.109716 0)
(4.01631 -0.0955743 0)
(4.01231 -0.0661826 0)
(4.01542 -0.0649145 0)
(4.00421 -0.0398936 0)
(4.0024 -0.0321745 0)
(3.99843 -0.0221673 0)
(3.99582 -0.0113755 0)
(3.99237 -0.00420414 0)
(3.9874 0.00471715 0)
(3.98735 0.00498647 0)
(3.98677 0.0038843 0)
(3.98571 -0.00133905 0)
(3.98593 -0.00361676 0)
(3.9857 -0.00762114 0)
(3.98582 -0.00711242 0)
(3.98631 -0.00422519 0)
(3.98658 -0.00210288 0)
(3.98731 0.00129356 0)
(3.98709 0.00138176 0)
(3.98669 -4.39362e-06 0)
(3.98651 -0.00286311 0)
(3.98673 -0.00338894 0)
(3.98693 -0.00243225 0)
(3.98727 -0.000744283 0)
(3.98733 -0.000266501 0)
(3.98704 -0.000854848 0)
(3.98709 -0.00181477 0)
(3.98713 -0.00231675 0)
(3.98744 -0.0019383 0)
(3.98737 -0.00136924 0)
(3.9874 -0.000470626 0)
(3.9873 -0.000399641 0)
(3.98748 -0.000631335 0)
(3.98746 -0.000673268 0)
(3.9873 -0.000761702 0)
(3.98723 -0.000886581 0)
(3.98714 -0.00125427 0)
(3.98716 -0.00138744 0)
(3.98731 -0.00131767 0)
(3.98747 -0.00108972 0)
(3.98762 -0.000975895 0)
(3.98763 -0.000922364 0)
(3.98761 -0.000873405 0)
(3.98761 -0.000961152 0)
(3.98739 -0.000957649 0)
(4.05836 -0.3346 0)
(4.05838 -0.334595 0)
(4.05841 -0.334578 0)
(4.05843 -0.334554 0)
(4.05848 -0.334556 0)
(4.05853 -0.334574 0)
(4.0586 -0.33459 0)
(4.05871 -0.334617 0)
(4.05875 -0.334631 0)
(4.0588 -0.334642 0)
(4.05886 -0.334665 0)
(4.05892 -0.334691 0)
(4.05899 -0.3347 0)
(4.05906 -0.334723 0)
(4.05913 -0.334767 0)
(4.0592 -0.334773 0)
(4.05923 -0.334693 0)
(4.05925 -0.334647 0)
(4.05931 -0.334617 0)
(4.05938 -0.334588 0)
(4.05945 -0.334556 0)
(4.05951 -0.334536 0)
(4.05959 -0.334524 0)
(4.05968 -0.334521 0)
(4.05982 -0.334529 0)
(4.05989 -0.33454 0)
(4.05993 -0.33454 0)
(4.06001 -0.334531 0)
(4.0601 -0.334542 0)
(4.06021 -0.334523 0)
(4.06031 -0.3345 0)
(4.06037 -0.334465 0)
(4.06043 -0.334457 0)
(4.06052 -0.334416 0)
(4.06065 -0.334359 0)
(4.06076 -0.334338 0)
(4.06086 -0.33433 0)
(4.06098 -0.334295 0)
(4.06104 -0.334301 0)
(4.06106 -0.334318 0)
(4.06111 -0.334219 0)
(4.0612 -0.334122 0)
(4.06132 -0.334031 0)
(4.06139 -0.333897 0)
(4.06156 -0.333821 0)
(4.06173 -0.333778 0)
(4.06188 -0.333609 0)
(4.06206 -0.333374 0)
(4.06212 -0.332796 0)
(4.06189 -0.331325 0)
(4.06114 -0.327966 0)
(4.05946 -0.320796 0)
(4.05641 -0.308056 0)
(4.0517 -0.286208 0)
(4.04488 -0.254584 0)
(4.03792 -0.21614 0)
(4.02771 -0.163755 0)
(4.02576 -0.125528 0)
(4.01439 -0.0637492 0)
(4.01723 -0.0474934 0)
(4.00649 -0.00319043 0)
(4.00736 0.00488127 0)
(4.00029 0.0261176 0)
(3.99589 0.0225005 0)
(3.99115 0.00699049 0)
(3.98972 -0.000124722 0)
(3.98802 -0.00604262 0)
(3.98815 -0.00609971 0)
(3.98854 -0.00564921 0)
(3.98944 -0.00222354 0)
(3.99087 0.00232322 0)
(3.9905 0.00183071 0)
(3.98968 0.000660088 0)
(3.98871 -0.00142904 0)
(3.98796 -0.00286139 0)
(3.98804 -0.00303105 0)
(3.98844 -0.00212588 0)
(3.98919 -0.000665268 0)
(3.98903 -0.000485073 0)
(3.98874 -0.000854119 0)
(3.98863 -0.00108347 0)
(3.98864 -0.0016738 0)
(3.98874 -0.00163562 0)
(3.98902 -0.00142342 0)
(3.98893 -0.00132739 0)
(3.9886 -0.00142688 0)
(3.98856 -0.00130055 0)
(3.98869 -0.000758223 0)
(3.98878 -0.00061777 0)
(3.98875 -0.000784695 0)
(3.9887 -0.000962755 0)
(3.9889 -0.00111195 0)
(3.98903 -0.00100525 0)
(3.98926 -0.000931242 0)
(3.98944 -0.000547832 0)
(3.98959 -0.00062772 0)
(3.98961 -0.000642158 0)
(3.98959 -0.000673689 0)
(3.98963 -0.000562086 0)
(3.98945 -0.000651889 0)
(4.0606 -0.334562 0)
(4.06062 -0.334552 0)
(4.06062 -0.334538 0)
(4.06063 -0.334555 0)
(4.06064 -0.33457 0)
(4.06067 -0.334575 0)
(4.06071 -0.334575 0)
(4.06073 -0.334572 0)
(4.06074 -0.334577 0)
(4.06079 -0.334589 0)
(4.0608 -0.334598 0)
(4.0608 -0.334621 0)
(4.0608 -0.334638 0)
(4.06082 -0.334633 0)
(4.06085 -0.334574 0)
(4.06088 -0.334539 0)
(4.0609 -0.334525 0)
(4.06092 -0.334505 0)
(4.06093 -0.3345 0)
(4.06096 -0.334468 0)
(4.061 -0.334432 0)
(4.06105 -0.334397 0)
(4.06109 -0.334396 0)
(4.06114 -0.334408 0)
(4.06125 -0.334416 0)
(4.06133 -0.334407 0)
(4.06137 -0.334403 0)
(4.06144 -0.334404 0)
(4.06155 -0.334369 0)
(4.06164 -0.334346 0)
(4.06169 -0.334341 0)
(4.06175 -0.334325 0)
(4.06184 -0.33425 0)
(4.0619 -0.334212 0)
(4.06198 -0.334186 0)
(4.06209 -0.33414 0)
(4.06221 -0.334086 0)
(4.0623 -0.333994 0)
(4.06237 -0.333903 0)
(4.06241 -0.333904 0)
(4.06247 -0.333862 0)
(4.0626 -0.333634 0)
(4.06266 -0.333559 0)
(4.06268 -0.333474 0)
(4.06266 -0.333326 0)
(4.06274 -0.333377 0)
(4.06281 -0.333415 0)
(4.0629 -0.33344 0)
(4.063 -0.333542 0)
(4.06312 -0.333582 0)
(4.06322 -0.333536 0)
(4.06329 -0.333298 0)
(4.06325 -0.332773 0)
(4.06293 -0.33117 0)
(4.06207 -0.327774 0)
(4.0599 -0.318454 0)
(4.05659 -0.30551 0)
(4.05017 -0.274662 0)
(4.04492 -0.248493 0)
(4.03505 -0.191633 0)
(4.03082 -0.162796 0)
(4.02251 -0.110673 0)
(4.02161 -0.0889494 0)
(4.01796 -0.0677359 0)
(4.01554 -0.0497978 0)
(4.00935 -0.032728 0)
(4.00281 -0.0183207 0)
(4.00006 -0.0101122 0)
(3.9937 -0.000204475 0)
(3.99287 0.00457248 0)
(3.99229 0.00295097 0)
(3.99092 -0.00157512 0)
(3.98992 -0.00506771 0)
(3.99014 -0.0068848 0)
(3.99023 -0.00557907 0)
(3.99043 -0.00293219 0)
(3.99088 0.000126035 0)
(3.99081 0.000133789 0)
(3.99039 -0.000524235 0)
(3.98996 -0.0026172 0)
(3.99008 -0.00251085 0)
(3.99024 -0.00189884 0)
(3.99048 -0.000970862 0)
(3.9904 -0.000817428 0)
(3.99027 -0.00120773 0)
(3.99017 -0.00176687 0)
(3.99023 -0.00157726 0)
(3.98997 -0.000936996 0)
(3.99005 -0.000603965 0)
(3.99003 -0.000877115 0)
(3.99016 -0.00125725 0)
(3.99039 -0.00128807 0)
(3.99067 -0.00109887 0)
(3.9908 -0.000856059 0)
(3.99085 -0.000761407 0)
(3.99096 -0.000861526 0)
(3.99098 -0.000942176 0)
(3.99097 -0.00106203 0)
(3.991 -0.00104849 0)
(3.99098 -0.00084467 0)
(4.0621 -0.334763 0)
(4.06209 -0.334736 0)
(4.06208 -0.334704 0)
(4.06207 -0.334691 0)
(4.06204 -0.334685 0)
(4.06203 -0.334664 0)
(4.06202 -0.334637 0)
(4.06201 -0.334637 0)
(4.06201 -0.334642 0)
(4.06203 -0.334615 0)
(4.06204 -0.33461 0)
(4.06206 -0.334635 0)
(4.06209 -0.334654 0)
(4.06211 -0.334654 0)
(4.06211 -0.334615 0)
(4.06216 -0.334545 0)
(4.06222 -0.334513 0)
(4.06225 -0.334463 0)
(4.06226 -0.334426 0)
(4.06231 -0.334329 0)
(4.06239 -0.334281 0)
(4.06243 -0.334234 0)
(4.06246 -0.334207 0)
(4.06255 -0.334135 0)
(4.06263 -0.334106 0)
(4.06268 -0.334083 0)
(4.06275 -0.334065 0)
(4.06279 -0.334059 0)
(4.06282 -0.334044 0)
(4.06287 -0.334044 0)
(4.06292 -0.334061 0)
(4.06298 -0.334028 0)
(4.06301 -0.334022 0)
(4.06303 -0.334036 0)
(4.06302 -0.334048 0)
(4.06308 -0.333925 0)
(4.06316 -0.333824 0)
(4.06324 -0.333727 0)
(4.06333 -0.333621 0)
(4.06344 -0.33363 0)
(4.06353 -0.333648 0)
(4.06364 -0.333513 0)
(4.0637 -0.333308 0)
(4.06367 -0.333127 0)
(4.0636 -0.333023 0)
(4.06353 -0.333036 0)
(4.0635 -0.333119 0)
(4.06351 -0.333212 0)
(4.06354 -0.333319 0)
(4.06358 -0.333372 0)
(4.06365 -0.333411 0)
(4.06371 -0.333481 0)
(4.06383 -0.333525 0)
(4.06396 -0.333628 0)
(4.06405 -0.333673 0)
(4.064 -0.333445 0)
(4.06371 -0.332658 0)
(4.06292 -0.330398 0)
(4.06136 -0.324645 0)
(4.05779 -0.310859 0)
(4.05334 -0.290416 0)
(4.0433 -0.243273 0)
(4.03892 -0.210158 0)
(4.02405 -0.127537 0)
(4.02535 -0.0955171 0)
(4.01424 -0.0325168 0)
(4.01279 -0.0138504 0)
(4.00368 0.0184518 0)
(4.0009 0.0260951 0)
(3.99612 0.0123171 0)
(3.99391 0.000517049 0)
(3.99225 -0.00661405 0)
(3.99221 -0.00683388 0)
(3.99236 -0.00505693 0)
(3.99318 -0.001852 0)
(3.99388 0.00320964 0)
(3.99355 0.00265049 0)
(3.99226 0.000168853 0)
(3.99156 -0.00288392 0)
(3.99151 -0.0031051 0)
(3.99176 -0.00224196 0)
(3.99229 -0.000558052 0)
(3.99212 -0.000529595 0)
(3.99182 -0.00107012 0)
(3.99178 -0.00166949 0)
(3.99173 -0.0018321 0)
(3.99183 -0.0013703 0)
(3.99179 -0.000951532 0)
(3.9916 -0.00090016 0)
(3.99145 -0.00110525 0)
(3.99143 -0.00116359 0)
(3.99149 -0.00107363 0)
(3.99168 -0.000684607 0)
(3.99161 -0.000382384 0)
(3.99181 -0.000627386 0)
(3.99185 -0.000747105 0)
(3.99188 -0.000901486 0)
(3.99189 -0.0010778 0)
(3.99188 -0.00110662 0)
(3.9918 -0.000895111 0)
(4.06306 -0.334644 0)
(4.06305 -0.334627 0)
(4.06306 -0.334581 0)
(4.06307 -0.334556 0)
(4.06307 -0.334555 0)
(4.06309 -0.334519 0)
(4.0631 -0.334449 0)
(4.0631 -0.334443 0)
(4.06311 -0.334485 0)
(4.06314 -0.33448 0)
(4.06319 -0.334424 0)
(4.06321 -0.334365 0)
(4.06319 -0.334331 0)
(4.06319 -0.334358 0)
(4.0632 -0.334366 0)
(4.06327 -0.334301 0)
(4.06331 -0.334244 0)
(4.06332 -0.334187 0)
(4.06333 -0.334097 0)
(4.06333 -0.333992 0)
(4.06335 -0.333892 0)
(4.06338 -0.333824 0)
(4.0634 -0.333788 0)
(4.06346 -0.333722 0)
(4.06353 -0.33367 0)
(4.06356 -0.333618 0)
(4.06359 -0.333582 0)
(4.06362 -0.333551 0)
(4.06364 -0.333533 0)
(4.06364 -0.333559 0)
(4.06365 -0.333602 0)
(4.06367 -0.33361 0)
(4.06369 -0.333631 0)
(4.06371 -0.33367 0)
(4.06375 -0.333674 0)
(4.06381 -0.333678 0)
(4.06387 -0.333672 0)
(4.06391 -0.333647 0)
(4.06399 -0.333593 0)
(4.0641 -0.333623 0)
(4.06416 -0.333694 0)
(4.06431 -0.333576 0)
(4.06434 -0.333379 0)
(4.06427 -0.33323 0)
(4.06416 -0.333138 0)
(4.06403 -0.333087 0)
(4.06393 -0.333045 0)
(4.06386 -0.333046 0)
(4.06382 -0.333101 0)
(4.06381 -0.333167 0)
(4.0638 -0.333306 0)
(4.06384 -0.33347 0)
(4.06391 -0.333588 0)
(4.064 -0.333699 0)
(4.06407 -0.333855 0)
(4.06409 -0.333941 0)
(4.06409 -0.334023 0)
(4.06395 -0.333983 0)
(4.06381 -0.333825 0)
(4.0635 -0.333368 0)
(4.06285 -0.331471 0)
(4.06144 -0.326889 0)
(4.05852 -0.314031 0)
(4.0533 -0.292139 0)
(4.04634 -0.254627 0)
(4.03651 -0.200785 0)
(4.03044 -0.158782 0)
(4.02184 -0.104399 0)
(4.02222 -0.0817076 0)
(4.01735 -0.0590191 0)
(4.01096 -0.0388918 0)
(4.00511 -0.0209051 0)
(4.00244 -0.0108756 0)
(3.99369 0.00200807 0)
(3.99451 0.00283754 0)
(3.99387 0.000960208 0)
(3.99237 -0.00298454 0)
(3.99219 -0.0050702 0)
(3.99231 -0.00480733 0)
(3.99286 -0.003053 0)
(3.99366 -0.000342262 0)
(3.9936 -0.000219287 0)
(3.99318 -0.000858836 0)
(3.99279 -0.00248793 0)
(3.99288 -0.00248301 0)
(3.993 -0.00172004 0)
(3.99304 -0.0010899 0)
(3.99291 -0.00110625 0)
(3.99269 -0.00189406 0)
(3.99234 -0.00156804 0)
(3.99235 -0.00121109 0)
(3.99225 -0.000671807 0)
(3.9922 -0.000337469 0)
(3.99226 -0.000438511 0)
(3.99237 -0.000736755 0)
(3.99242 -0.000904713 0)
(3.99241 -0.00117087 0)
(3.9924 -0.00130366 0)
(3.99235 -0.00124763 0)
(3.99216 -0.00106106 0)
(4.06378 -0.334522 0)
(4.06378 -0.334482 0)
(4.06377 -0.334475 0)
(4.06376 -0.334499 0)
(4.06378 -0.334464 0)
(4.06383 -0.334358 0)
(4.06382 -0.334307 0)
(4.06382 -0.334312 0)
(4.06383 -0.334345 0)
(4.06382 -0.334372 0)
(4.06381 -0.334326 0)
(4.06386 -0.334234 0)
(4.06387 -0.334089 0)
(4.06383 -0.334037 0)
(4.06381 -0.334019 0)
(4.0638 -0.334001 0)
(4.06378 -0.333958 0)
(4.06385 -0.333819 0)
(4.0639 -0.333661 0)
(4.06387 -0.333559 0)
(4.06384 -0.33355 0)
(4.06382 -0.333526 0)
(4.0639 -0.333367 0)
(4.06391 -0.333284 0)
(4.06389 -0.333244 0)
(4.06388 -0.333209 0)
(4.06388 -0.333206 0)
(4.06388 -0.33321 0)
(4.06388 -0.333218 0)
(4.06388 -0.333232 0)
(4.06389 -0.333258 0)
(4.06389 -0.333321 0)
(4.06389 -0.333391 0)
(4.0639 -0.333428 0)
(4.06392 -0.333441 0)
(4.06395 -0.333473 0)
(4.064 -0.333473 0)
(4.06409 -0.333482 0)
(4.06417 -0.333546 0)
(4.0642 -0.333572 0)
(4.0643 -0.333601 0)
(4.06437 -0.333622 0)
(4.06443 -0.333544 0)
(4.06438 -0.333419 0)
(4.06433 -0.333364 0)
(4.06423 -0.333321 0)
(4.06411 -0.333263 0)
(4.06398 -0.333179 0)
(4.06388 -0.333151 0)
(4.0638 -0.333191 0)
(4.0637 -0.33334 0)
(4.06366 -0.333498 0)
(4.06365 -0.333613 0)
(4.06368 -0.333687 0)
(4.06373 -0.33379 0)
(4.06381 -0.333885 0)
(4.06388 -0.334088 0)
(4.06389 -0.334307 0)
(4.06372 -0.334399 0)
(4.06366 -0.334381 0)
(4.0635 -0.334279 0)
(4.06334 -0.33379 0)
(4.06316 -0.333351 0)
(4.06263 -0.331713 0)
(4.06124 -0.326451 0)
(4.05806 -0.313492 0)
(4.05183 -0.283838 0)
(4.04277 -0.240101 0)
(4.03163 -0.175301 0)
(4.02357 -0.108579 0)
(4.01431 -0.0484246 0)
(4.01212 -0.0155788 0)
(4.00408 0.0183888 0)
(4.00066 0.0242688 0)
(3.99589 0.00601125 0)
(3.99363 -0.00383281 0)
(3.99276 -0.00694535 0)
(3.99318 -0.00661327 0)
(3.99485 -0.00293498 0)
(3.99549 0.00324927 0)
(3.99527 0.00259786 0)
(3.99416 9.64321e-05 0)
(3.99333 -0.00248346 0)
(3.99331 -0.00264109 0)
(3.99354 -0.00189656 0)
(3.99369 -0.000511737 0)
(3.99356 -0.000714403 0)
(3.99317 -0.00153026 0)
(3.99285 -0.0022343 0)
(3.99279 -0.00177458 0)
(3.99288 -0.000932423 0)
(3.99273 3.59161e-05 0)
(3.99263 -8.41508e-05 0)
(3.99254 -0.000358313 0)
(3.99254 -0.000606223 0)
(3.99252 -0.000932819 0)
(3.99257 -0.0011018 0)
(3.99255 -0.00132458 0)
(3.99252 -0.00123684 0)
(3.9924 -0.00111399 0)
(4.06402 -0.334402 0)
(4.06399 -0.334385 0)
(4.06399 -0.334413 0)
(4.06399 -0.334461 0)
(4.06399 -0.334466 0)
(4.064 -0.334422 0)
(4.064 -0.334411 0)
(4.06399 -0.334385 0)
(4.06397 -0.334339 0)
(4.06394 -0.334326 0)
(4.06392 -0.334359 0)
(4.0639 -0.33437 0)
(4.06396 -0.334273 0)
(4.06396 -0.334125 0)
(4.06393 -0.334038 0)
(4.0639 -0.334056 0)
(4.06386 -0.334068 0)
(4.06396 -0.333934 0)
(4.06398 -0.333772 0)
(4.06394 -0.333717 0)
(4.06389 -0.333714 0)
(4.06392 -0.333588 0)
(4.06396 -0.333432 0)
(4.06394 -0.333355 0)
(4.06393 -0.333272 0)
(4.06391 -0.333207 0)
(4.06389 -0.333173 0)
(4.06388 -0.333157 0)
(4.06388 -0.333159 0)
(4.06385 -0.33321 0)
(4.06383 -0.333276 0)
(4.06381 -0.333302 0)
(4.0638 -0.333325 0)
(4.06379 -0.33334 0)
(4.0638 -0.333366 0)
(4.06381 -0.333459 0)
(4.06384 -0.33359 0)
(4.0639 -0.333659 0)
(4.06398 -0.333674 0)
(4.06405 -0.333732 0)
(4.06411 -0.33385 0)
(4.06418 -0.333927 0)
(4.06422 -0.33388 0)
(4.06423 -0.333751 0)
(4.06422 -0.333696 0)
(4.0642 -0.333678 0)
(4.06414 -0.333628 0)
(4.06404 -0.333533 0)
(4.06388 -0.333437 0)
(4.06368 -0.333425 0)
(4.06356 -0.333477 0)
(4.06345 -0.333566 0)
(4.06335 -0.333709 0)
(4.06333 -0.333821 0)
(4.06338 -0.333888 0)
(4.06345 -0.33394 0)
(4.06351 -0.334047 0)
(4.06355 -0.334253 0)
(4.06354 -0.33445 0)
(4.06352 -0.334516 0)
(4.06346 -0.334519 0)
(4.06335 -0.33438 0)
(4.06322 -0.334012 0)
(4.0631 -0.333813 0)
(4.06303 -0.333795 0)
(4.06287 -0.333327 0)
(4.06241 -0.33133 0)
(4.06066 -0.323473 0)
(4.05691 -0.307785 0)
(4.04848 -0.267481 0)
(4.0411 -0.228014 0)
(4.02779 -0.15307 0)
(4.02314 -0.116924 0)
(4.01841 -0.0751006 0)
(4.02071 -0.0575767 0)
(4.00878 -0.0320736 0)
(4.0021 -0.0154305 0)
(3.99973 -0.00614034 0)
(3.99692 0.00101608 0)
(3.99533 0.000417274 0)
(3.99269 -0.00315079 0)
(3.99209 -0.00496658 0)
(3.99225 -0.00462827 0)
(3.99282 -0.0026917 0)
(3.99329 -0.000353808 0)
(3.9932 -0.000425921 0)
(3.99282 -0.00175637 0)
(3.99226 -0.00312223 0)
(3.9923 -0.00262152 0)
(3.99259 -0.0015555 0)
(3.99257 -0.000306637 0)