/*--------------------------------*- C++ -*----------------------------------*\
  =========                 |
  \\      /  F ield         | OpenFOAM: The Open Source CFD Toolbox
   \\    /   O peration     | Website:  https://openfoam.org
    \\  /    A nd           | Version:  7
     \\/     M anipulation  |
\*---------------------------------------------------------------------------*/
FoamFile
{
    version     2.0;
    format      ascii;
    class       volScalarField;
    location    "5.5";
    object      rho;
}
// * * * * * * * * * * * * * * * * * * * * * * * * * * * * * * * * * * * * * //

dimensions      [1 -3 0 0 0 0 0];

internalField   nonuniform List<scalar> 
90000
(
1.22417
1.21908
1.21439
1.20892
1.2064
1.20441
1.20279
1.20073
1.20095
1.20129
1.20186
1.20246
1.20394
1.20539
1.20734
1.20878
1.21074
1.21239
1.2146
1.21618
1.21819
1.2197
1.2216
1.2227
1.22404
1.22505
1.22631
1.22721
1.22843
1.22944
1.23101
1.23261
1.23475
1.23678
1.23922
1.2416
1.24387
1.24675
1.25089
1.2546
1.25841
1.26172
1.26509
1.26822
1.27084
1.27376
1.27242
1.26874
1.25983
1.25143
1.24561
1.24371
1.24489
1.24804
1.2525
1.2578
1.26243
1.26561
1.26838
1.27013
1.27132
1.26982
1.26574
1.25817
1.25122
1.24628
1.24661
1.24972
1.25504
1.26086
1.26549
1.26977
1.26884
1.26461
1.25751
1.25376
1.25164
1.25491
1.26018
1.26588
1.26822
1.26622
1.26261
1.26126
1.26225
1.26457
1.26853
1.26944
1.26804
1.26562
1.26565
1.26762
1.2699
1.27092
1.26987
1.26775
1.26709
1.26732
1.26734
1.26747
1.23207
1.2321
1.23207
1.23206
1.23213
1.23228
1.23236
1.2324
1.23248
1.23274
1.23288
1.23297
1.23333
1.23366
1.23381
1.23404
1.23456
1.23493
1.23527
1.23576
1.23644
1.23729
1.23836
1.23949
1.24049
1.24148
1.24255
1.24389
1.24528
1.24655
1.24766
1.24882
1.25001
1.25115
1.25224
1.25343
1.25454
1.25592
1.2578
1.26004
1.26289
1.26571
1.26912
1.27256
1.27627
1.2801
1.28402
1.28744
1.29121
1.29218
1.2913
1.28766
1.28205
1.27631
1.27184
1.26879
1.26867
1.26942
1.27125
1.27422
1.27864
1.28271
1.28732
1.28695
1.28402
1.27673
1.26991
1.26525
1.26422
1.26604
1.2696
1.27514
1.28116
1.28475
1.28281
1.27614
1.26985
1.2677
1.26942
1.27334
1.2783
1.28226
1.28065
1.2764
1.2732
1.27458
1.27871
1.28245
1.28155
1.2788
1.27699
1.27777
1.28033
1.28215
1.28193
1.28044
1.27912
1.27855
1.27847
1.27851
1.23601
1.23602
1.23603
1.23605
1.23609
1.23616
1.23626
1.23635
1.23643
1.23654
1.23671
1.2369
1.23711
1.23737
1.23763
1.23793
1.2383
1.23876
1.23917
1.23952
1.23989
1.24035
1.241
1.24185
1.24277
1.24363
1.24455
1.24579
1.24711
1.2483
1.24927
1.2503
1.25142
1.25254
1.2535
1.25466
1.25583
1.25708
1.25854
1.26043
1.26282
1.26555
1.26866
1.27212
1.27566
1.27961
1.28387
1.28759
1.29227
1.29386
1.29524
1.29681
1.29882
1.29979
1.29933
1.29694
1.29341
1.29
1.28728
1.28678
1.28759
1.28932
1.29178
1.29387
1.29566
1.29631
1.29495
1.28991
1.28409
1.27891
1.27855
1.28041
1.28455
1.28981
1.29589
1.29782
1.29451
1.28776
1.28124
1.2812
1.28419
1.28904
1.29517
1.29398
1.28961
1.28572
1.28662
1.28961
1.29344
1.29247
1.28994
1.28849
1.28964
1.29222
1.29232
1.29156
1.29003
1.28907
1.28841
1.2881
1.24263
1.24265
1.24268
1.24269
1.2427
1.24268
1.24265
1.24263
1.24265
1.24274
1.24289
1.2429
1.24289
1.24296
1.2431
1.2433
1.24356
1.24379
1.24384
1.24383
1.24385
1.24392
1.24413
1.24452
1.24492
1.24522
1.2455
1.24569
1.24605
1.2465
1.24699
1.24759
1.24835
1.24919
1.25028
1.25165
1.25322
1.25478
1.25627
1.25793
1.25979
1.26198
1.26415
1.26673
1.26929
1.2723
1.27589
1.27951
1.28418
1.28838
1.29259
1.29645
1.29903
1.30013
1.30048
1.30046
1.30036
1.30008
1.29976
1.2989
1.29787
1.29736
1.29701
1.29741
1.29813
1.29891
1.29958
1.3008
1.30014
1.297
1.29271
1.28867
1.2888
1.29091
1.2958
1.29878
1.30212
1.3022
1.29853
1.2936
1.2909
1.29231
1.29583
1.29924
1.30156
1.29873
1.29454
1.29482
1.29716
1.30091
1.29994
1.29727
1.29582
1.29732
1.30004
1.29951
1.29801
1.29639
1.29591
1.29517
1.24884
1.24887
1.2489
1.24891
1.24889
1.24883
1.24873
1.2487
1.24872
1.24879
1.24882
1.24877
1.24868
1.24868
1.24871
1.24883
1.2489
1.2489
1.24882
1.24871
1.24868
1.24869
1.24873
1.24881
1.24885
1.24889
1.24888
1.24889
1.24898
1.24906
1.24913
1.24927
1.2496
1.25005
1.25034
1.25062
1.25101
1.25139
1.25201
1.25286
1.25395
1.2553
1.25663
1.25813
1.25977
1.2616
1.26376
1.26657
1.26949
1.27344
1.27748
1.28219
1.28702
1.2904
1.2941
1.29659
1.29951
1.30032
1.30061
1.30072
1.30093
1.30127
1.3013
1.30107
1.30047
1.30014
1.30032
1.30116
1.30241
1.30413
1.30373
1.30101
1.29753
1.29486
1.29545
1.29749
1.30189
1.30352
1.30465
1.30354
1.3001
1.29648
1.29694
1.29899
1.30168
1.30351
1.30229
1.30003
1.3001
1.3016
1.30371
1.3033
1.30149
1.30074
1.30188
1.30404
1.30348
1.30166
1.30014
1.29927
1.25335
1.2534
1.2534
1.25338
1.25335
1.2533
1.25312
1.25293
1.25291
1.25294
1.25295
1.25293
1.25282
1.25264
1.25259
1.25262
1.25263
1.25261
1.25246
1.25234
1.25233
1.2523
1.25228
1.25227
1.25225
1.2521
1.25191
1.2519
1.25189
1.2518
1.25157
1.2514
1.2514
1.25144
1.25139
1.25139
1.25147
1.25165
1.25157
1.2515
1.25154
1.25158
1.25171
1.25197
1.2525
1.25328
1.25418
1.25564
1.25736
1.25978
1.26239
1.26608
1.26995
1.27466
1.27953
1.28407
1.28945
1.29312
1.2968
1.29806
1.29985
1.30092
1.30104
1.30089
1.30033
1.30003
1.30028
1.30098
1.30252
1.30428
1.30498
1.3048
1.30385
1.3016
1.29878
1.2993
1.30034
1.30272
1.30455
1.30522
1.30502
1.30289
1.3
1.30001
1.30091
1.3033
1.30422
1.30379
1.30264
1.30245
1.30356
1.3048
1.30455
1.30338
1.30314
1.30419
1.30556
1.30494
1.30323
1.30136
1.2576
1.25756
1.25752
1.25748
1.25746
1.25743
1.25739
1.25727
1.25711
1.25699
1.25685
1.25676
1.25673
1.25659
1.25626
1.25611
1.25605
1.25601
1.25585
1.25561
1.25549
1.25541
1.25529
1.25512
1.25504
1.2549
1.25457
1.25421
1.25399
1.25386
1.25358
1.25317
1.25312
1.2531
1.25299
1.2528
1.25256
1.25229
1.25194
1.25163
1.25133
1.25111
1.2509
1.25067
1.25028
1.24978
1.24958
1.24965
1.24997
1.2506
1.25166
1.25332
1.25544
1.25857
1.26172
1.26619
1.27059
1.27579
1.28091
1.28535
1.29013
1.29264
1.29562
1.29715
1.2981
1.29904
1.30063
1.30186
1.30284
1.30378
1.30461
1.30455
1.30425
1.30406
1.30329
1.3023
1.30148
1.30164
1.30243
1.3042
1.30498
1.30496
1.30383
1.3021
1.30156
1.30215
1.30377
1.30432
1.30416
1.30344
1.30358
1.3045
1.30512
1.30493
1.30433
1.30444
1.30529
1.3058
1.30513
1.30292
1.25979
1.25979
1.25981
1.25984
1.25985
1.25984
1.25982
1.2598
1.25975
1.25965
1.25955
1.25944
1.25933
1.25921
1.25907
1.2589
1.25871
1.25852
1.25834
1.25816
1.25799
1.25787
1.25776
1.25755
1.25728
1.2571
1.25689
1.25656
1.25613
1.25575
1.2554
1.25503
1.25471
1.25449
1.2543
1.2541
1.25379
1.25335
1.25285
1.25229
1.25168
1.25115
1.25072
1.25024
1.24971
1.24928
1.249
1.24872
1.24846
1.24824
1.2482
1.24829
1.2486
1.24929
1.25042
1.2522
1.25436
1.25787
1.26169
1.26718
1.2727
1.27857
1.28495
1.28949
1.29501
1.29764
1.29963
1.30067
1.30185
1.3018
1.30232
1.30278
1.30343
1.30412
1.30472
1.30445
1.30335
1.30201
1.30164
1.30207
1.30349
1.30463
1.3046
1.30402
1.30278
1.30223
1.30265
1.30381
1.30402
1.30389
1.30364
1.30393
1.30481
1.30526
1.30503
1.30472
1.30491
1.30558
1.30562
1.30424
1.2595
1.25948
1.25947
1.25949
1.2595
1.2595
1.25951
1.25951
1.25951
1.25947
1.25937
1.2593
1.25926
1.25921
1.25914
1.25901
1.25884
1.25869
1.25859
1.25851
1.25844
1.25834
1.25817
1.25797
1.25778
1.25758
1.25742
1.25731
1.25715
1.25691
1.25666
1.2565
1.25639
1.25633
1.25626
1.25615
1.25596
1.2556
1.25508
1.25451
1.25393
1.25318
1.25224
1.25119
1.25015
1.24936
1.24875
1.2483
1.24797
1.24779
1.24759
1.24749
1.2475
1.24755
1.24773
1.24798
1.24824
1.24872
1.24971
1.25192
1.25487
1.26
1.26572
1.27289
1.28014
1.28578
1.2916
1.2939
1.29658
1.29789
1.30022
1.30197
1.30376
1.30418
1.30443
1.30426
1.30381
1.30307
1.30203
1.30192
1.30207
1.30302
1.30399
1.30396
1.30371
1.30297
1.30276
1.30292
1.30344
1.3036
1.30364
1.30378
1.30428
1.30498
1.30518
1.30496
1.30488
1.3051
1.30551
1.30489
1.25796
1.25795
1.25788
1.25777
1.25774
1.25774
1.25778
1.25779
1.25778
1.25772
1.25765
1.25764
1.25765
1.25764
1.25756
1.25737
1.25712
1.25698
1.25688
1.25679
1.25664
1.25641
1.25622
1.25608
1.2559
1.25562
1.25548
1.25541
1.2553
1.25508
1.25486
1.25478
1.25477
1.25476
1.25473
1.25467
1.25454
1.25433
1.25406
1.25372
1.25335
1.25306
1.25269
1.25216
1.25146
1.25062
1.24993
1.24936
1.24872
1.24812
1.24768
1.24735
1.24727
1.2473
1.24743
1.24765
1.24772
1.24768
1.24759
1.24762
1.24783
1.24905
1.25133
1.25593
1.26144
1.26903
1.27637
1.28323
1.28973
1.29399
1.2988
1.3007
1.30252
1.30265
1.30234
1.3021
1.3025
1.30298
1.30279
1.30218
1.30169
1.3019
1.30261
1.30336
1.30372
1.30359
1.30312
1.30274
1.30282
1.3031
1.30331
1.30349
1.30383
1.30441
1.30491
1.3049
1.30481
1.30496
1.30534
1.30516
1.25518
1.25517
1.25515
1.25515
1.25516
1.25515
1.2551
1.25507
1.25507
1.2551
1.25518
1.25528
1.25528
1.25523
1.25501
1.25486
1.25487
1.2549
1.25489
1.25485
1.2547
1.2545
1.25441
1.2543
1.25411
1.25395
1.25383
1.2537
1.25356
1.25343
1.25334
1.25334
1.25338
1.25347
1.25353
1.25353
1.25348
1.2534
1.25335
1.25333
1.25327
1.2532
1.25314
1.25304
1.25278
1.25232
1.25186
1.25144
1.25089
1.25013
1.2496
1.24921
1.24888
1.24874
1.24855
1.24847
1.24857
1.24877
1.24873
1.24852
1.24837
1.24801
1.24806
1.24862
1.2502
1.25378
1.25842
1.2652
1.27225
1.27933
1.28597
1.29014
1.29516
1.29673
1.29887
1.30041
1.30261
1.30323
1.30317
1.30266
1.30203
1.3018
1.30207
1.30262
1.30343
1.30357
1.30346
1.3031
1.30279
1.30283
1.30298
1.30322
1.30344
1.30383
1.30444
1.30468
1.30475
1.30491
1.30528
1.30527
1.25276
1.25281
1.25286
1.25289
1.25289
1.25288
1.25285
1.25284
1.25285
1.25289
1.25291
1.25295
1.25295
1.25287
1.2528
1.25281
1.2529
1.25295
1.25294
1.25284
1.25282
1.2528
1.25274
1.25264
1.25252
1.25238
1.25226
1.25224
1.25228
1.25229
1.25223
1.25222
1.25227
1.25241
1.25254
1.25254
1.2525
1.25244
1.25244
1.25246
1.25251
1.25253
1.25253
1.25252
1.25253
1.25261
1.25268
1.25264
1.25248
1.25211
1.25168
1.25144
1.2512
1.25098
1.25078
1.2505
1.25047
1.25062
1.25062
1.25027
1.24964
1.24897
1.24856
1.24863
1.24887
1.24952
1.25056
1.25303
1.25636
1.2622
1.26824
1.2762
1.28406
1.29014
1.29729
1.29942
1.30177
1.30218
1.30202
1.30155
1.30194
1.30246
1.30287
1.30298
1.303
1.30319
1.3034
1.30336
1.30312
1.30295
1.30297
1.30302
1.30314
1.3034
1.30384
1.30433
1.30479
1.30505
1.30526
1.30539
1.25038
1.25038
1.25038
1.25045
1.25063
1.25069
1.25068
1.25063
1.25062
1.25065
1.25072
1.25078
1.25075
1.2507
1.25069
1.25072
1.25078
1.25079
1.25076
1.25069
1.2507
1.25071
1.25068
1.25068
1.2507
1.25067
1.25066
1.25071
1.25083
1.25095
1.25106
1.25115
1.25121
1.25128
1.25142
1.25154
1.25155
1.25149
1.25148
1.25154
1.25167
1.25182
1.25195
1.25209
1.2523
1.25257
1.25278
1.25307
1.25338
1.2534
1.25332
1.25319
1.25306
1.25295
1.25297
1.25314
1.25348
1.25371
1.2538
1.25369
1.25317
1.2523
1.2512
1.25043
1.25029
1.25033
1.25071
1.25114
1.25146
1.25241
1.25429
1.25909
1.26507
1.27351
1.28181
1.28763
1.29393
1.29594
1.29873
1.30055
1.30312
1.30363
1.30359
1.30324
1.30289
1.30305
1.30351
1.30377
1.30363
1.30331
1.30305
1.30314
1.30333
1.30358
1.30397
1.30451
1.30508
1.30537
1.30544
1.30572
1.25003
1.25003
1.25003
1.25003
1.25004
1.25007
1.2501
1.25011
1.25014
1.25019
1.25021
1.25022
1.25022
1.25021
1.25022
1.25023
1.25028
1.25037
1.25041
1.2504
1.25037
1.25035
1.25035
1.25039
1.25052
1.25055
1.25056
1.25057
1.25055
1.25052
1.2505
1.25047
1.25043
1.25036
1.25035
1.25037
1.25035
1.25029
1.25028
1.25032
1.25042
1.25058
1.25078
1.25101
1.25129
1.25169
1.25234
1.2532
1.25401
1.25453
1.25464
1.25462
1.25441
1.25406
1.25406
1.25442
1.25494
1.25527
1.25555
1.25581
1.25566
1.25522
1.25441
1.25328
1.25232
1.25181
1.25154
1.25132
1.25144
1.25134
1.25118
1.25174
1.25352
1.25818
1.26408
1.27288
1.28122
1.2884
1.29697
1.2998
1.30253
1.30295
1.30273
1.30261
1.30309
1.3037
1.30408
1.30402
1.30391
1.30378
1.30382
1.30388
1.30384
1.3039
1.30415
1.30472
1.30535
1.3057
1.30597
1.30629
1.25027
1.25027
1.25027
1.25027
1.25027
1.25027
1.25029
1.2503
1.25032
1.25037
1.25038
1.25037
1.25037
1.25038
1.25038
1.25039
1.25043
1.25047
1.25051
1.25053
1.25053
1.25052
1.25057
1.25074
1.25085
1.25094
1.25118
1.25138
1.25145
1.25156
1.25175
1.25181
1.25181
1.2518
1.25177
1.2517
1.25152
1.25136
1.25129
1.2512
1.25113
1.25114
1.25126
1.25143
1.25166
1.25203
1.25258
1.25328
1.25413
1.25492
1.25542
1.25549
1.25542
1.25522
1.25509
1.25524
1.25544
1.25555
1.2557
1.256
1.25654
1.25668
1.25658
1.25614
1.25515
1.25424
1.25375
1.25336
1.25303
1.25261
1.25205
1.25165
1.25172
1.25234
1.25419
1.25845
1.26374
1.2722
1.28069
1.28788
1.29538
1.29771
1.30051
1.3024
1.30448
1.30481
1.30467
1.30433
1.30445
1.30477
1.30496
1.30478
1.30451
1.30453
1.30485
1.30536
1.30583
1.30624
1.30666
1.30707
1.25205
1.25205
1.25205
1.25206
1.25207
1.25206
1.25203
1.25202
1.252
1.25198
1.25197
1.25196
1.25196
1.25197
1.25197
1.25193
1.2519
1.25192
1.25194
1.25195
1.25196
1.25197
1.25204
1.25216
1.25225
1.25241
1.25269
1.25288
1.253
1.25325
1.25376
1.25408
1.25414
1.25418
1.25423
1.25424
1.25416
1.25393
1.25356
1.25301
1.25274
1.2526
1.25243
1.25229
1.25229
1.25243
1.25282
1.25345
1.25414
1.25485
1.25541
1.25548
1.25544
1.25545
1.25537
1.25541
1.25551
1.25555
1.25557
1.25577
1.25647
1.25683
1.25686
1.2568
1.25642
1.256
1.25576
1.25555
1.25538
1.2551
1.25441
1.25337
1.25288
1.25316
1.25347
1.25399
1.2553
1.25886
1.26397
1.2731
1.28212
1.29034
1.299
1.30179
1.30401
1.30446
1.30397
1.30471
1.30562
1.30601
1.30576
1.30545
1.30547
1.30573
1.30604
1.3062
1.30642
1.30685
1.30736
1.30786
1.25464
1.25464
1.25464
1.25465
1.25466
1.25465
1.25464
1.25462
1.25456
1.25452
1.25451
1.25453
1.25453
1.25451
1.2544
1.25419
1.25416
1.25415
1.25412
1.254
1.25396
1.25394
1.2539
1.25388
1.2539
1.25411
1.25434
1.25441
1.25455
1.25501
1.25568
1.25613
1.25645
1.25671
1.2569
1.25699
1.25698
1.25684
1.25635
1.25572
1.25524
1.25477
1.25425
1.2538
1.25351
1.25351
1.25369
1.25402
1.25435
1.25483
1.25545
1.25567
1.25565
1.25571
1.25592
1.25597
1.25584
1.2554
1.25519
1.25533
1.25587
1.2566
1.25686
1.2568
1.25675
1.25681
1.25684
1.25698
1.25739
1.25757
1.25744
1.25685
1.25591
1.2553
1.25493
1.25497
1.25496
1.25518
1.25621
1.25974
1.2651
1.27437
1.28321
1.2913
1.2973
1.30102
1.30277
1.30606
1.30681
1.30662
1.30623
1.30628
1.30678
1.30725
1.30722
1.30711
1.30723
1.30767
1.30807
1.30863
1.25793
1.25781
1.25765
1.25752
1.25749
1.2575
1.2575
1.2575
1.25747
1.25741
1.25734
1.25732
1.25728
1.25712
1.25705
1.25703
1.25694
1.2568
1.25676
1.25668
1.25645
1.25637
1.25636
1.25634
1.25638
1.25652
1.25663
1.25664
1.25683
1.25742
1.25784
1.25808
1.25836
1.25874
1.25914
1.25939
1.2594
1.25923
1.25887
1.25848
1.25802
1.25734
1.25665
1.25614
1.25574
1.25553
1.25554
1.25553
1.25542
1.25542
1.25571
1.25595
1.25602
1.25611
1.25635
1.2564
1.25616
1.2556
1.25532
1.2553
1.25552
1.25603
1.2564
1.25658
1.25685
1.25727
1.25771
1.25804
1.25834
1.25864
1.25878
1.2587
1.25834
1.2578
1.25734
1.25686
1.25619
1.25586
1.2559
1.25617
1.25705
1.26063
1.26657
1.27649
1.28578
1.29569
1.30184
1.30547
1.30631
1.30568
1.30597
1.30736
1.3082
1.30838
1.30815
1.30804
1.30828
1.30863
1.30877
1.30918
1.26029
1.26029
1.26028
1.26018
1.25995
1.25974
1.25967
1.25966
1.25966
1.25968
1.25971
1.2597
1.25963
1.25954
1.25945
1.25935
1.25922
1.259
1.25876
1.25853
1.25821
1.25799
1.25796
1.25798
1.25798
1.25791
1.25786
1.25789
1.2582
1.2587
1.25896
1.25916
1.25942
1.25983
1.26037
1.26082
1.26095
1.26091
1.26076
1.26047
1.25995
1.25928
1.25875
1.2584
1.25818
1.25798
1.25781
1.25757
1.25707
1.25694
1.25684
1.25675
1.25678
1.25691
1.25714
1.25716
1.25685
1.25625
1.25596
1.25599
1.2562
1.25654
1.25679
1.25701
1.25726
1.25767
1.25833
1.25882
1.25908
1.25911
1.25905
1.25888
1.25861
1.25856
1.25865
1.25862
1.25843
1.25807
1.25752
1.25719
1.25743
1.25762
1.25881
1.26246
1.2695
1.27898
1.28871
1.29657
1.30058
1.30351
1.30644
1.30875
1.30908
1.30896
1.30883
1.30918
1.30961
1.30959
1.30945
1.30971
1.26122
1.26122
1.26123
1.2612
1.26106
1.26084
1.26073
1.26073
1.26074
1.26076
1.26069
1.26041
1.26035
1.26033
1.26021
1.26008
1.25996
1.25953
1.25913
1.25909
1.25907
1.25894
1.25863
1.25858
1.25854
1.25846
1.25846
1.25855
1.25892
1.2592
1.25923
1.25927
1.25939
1.25966
1.25993
1.26012
1.26022
1.2602
1.26011
1.25998
1.25968
1.25939
1.25936
1.25948
1.25952
1.25946
1.25945
1.25938
1.25906
1.25855
1.2582
1.25817
1.25844
1.25899
1.2592
1.25912
1.25878
1.25826
1.25794
1.25803
1.25836
1.25846
1.2584
1.2582
1.25809
1.25816
1.25854
1.25904
1.25914
1.25908
1.25892
1.25864
1.25856
1.2586
1.25876
1.25905
1.25949
1.25971
1.25962
1.25922
1.25859
1.25827
1.25831
1.25867
1.26046
1.2646
1.27306
1.28211
1.29212
1.30132
1.30576
1.3081
1.30859
1.30855
1.30954
1.31028
1.3105
1.31022
1.31006
1.31042
1.26205
1.26205
1.26202
1.26196
1.26194
1.26188
1.26182
1.26178
1.26173
1.26162
1.26138
1.26114
1.26098
1.26079
1.26062
1.26059
1.26051
1.2601
1.25964
1.2596
1.25961
1.2596
1.25946
1.25912
1.25897
1.259
1.25918
1.25937
1.25959
1.25973
1.25975
1.25972
1.25978
1.25988
1.25991
1.25988
1.25968
1.25944
1.25941
1.25939
1.25936
1.25939
1.25954
1.25993
1.2605
1.26087
1.26095
1.26089
1.26056
1.25994
1.25955
1.2596
1.25995
1.26059
1.26094
1.26097
1.2607
1.26011
1.26004
1.26023
1.26051
1.2605
1.26031
1.25987
1.25932
1.2591
1.25914
1.25938
1.25953
1.25943
1.259
1.25853
1.25856
1.25871
1.25898
1.25933
1.25972
1.25998
1.26033
1.26047
1.26034
1.25996
1.2594
1.25939
1.2595
1.26003
1.26235
1.26731
1.27606
1.28549
1.29492
1.30083
1.30491
1.30772
1.31079
1.31097
1.31079
1.31051
1.31076
1.31128
1.26025
1.26027
1.26033
1.26033
1.26029
1.26028
1.26027
1.26033
1.26049
1.26052
1.26032
1.2601
1.26005
1.26001
1.26001
1.26003
1.25989
1.2594
1.25913
1.25915
1.25932
1.25941
1.25935
1.25913
1.25907
1.25924
1.25985
1.26062
1.26112
1.26123
1.26124
1.26123
1.26108
1.26099
1.26094
1.26073
1.26004
1.25961
1.25959
1.2596
1.25969
1.26
1.26055
1.2614
1.26196
1.26206
1.262
1.26167
1.26097
1.26043
1.26041
1.26061
1.26116
1.26173
1.26196
1.262
1.26169
1.26072
1.26025
1.26024
1.26054
1.2612
1.2614
1.26133
1.26084
1.26031
1.26026
1.26045
1.26076
1.26068
1.26018
1.25942
1.25896
1.25897
1.25917
1.2595
1.25977
1.25996
1.26026
1.26048
1.26052
1.26053
1.2605
1.26045
1.26025
1.26036
1.2606
1.26134
1.26406
1.27031
1.27997
1.28985
1.30093
1.30649
1.31019
1.31019
1.30976
1.3102
1.31109
1.31169
1.2595
1.25935
1.2593
1.25913
1.25904
1.25903
1.25906
1.25902
1.25895
1.25895
1.25893
1.25872
1.25858
1.25856
1.25869
1.25872
1.2584
1.25795
1.25793
1.25804
1.25838
1.25905
1.25929
1.2593
1.25932
1.25959
1.26042
1.26159
1.26248
1.26288
1.26295
1.26291
1.2627
1.26258
1.26264
1.26266
1.26237
1.26166
1.26118
1.26113
1.26121
1.26149
1.26215
1.26291
1.26311
1.26313
1.26288
1.26187
1.26078
1.26063
1.26065
1.26083
1.26169
1.26262
1.2629
1.26291
1.26245
1.26107
1.25998
1.25978
1.25996
1.26107
1.2623
1.26249
1.26218
1.26134
1.2609
1.26108
1.2616
1.26181
1.26154
1.26085
1.26003
1.25961
1.25964
1.25979
1.25992
1.26002
1.26014
1.26029
1.26043
1.2605
1.26055
1.26062
1.26072
1.26088
1.26107
1.26148
1.26168
1.26299
1.26652
1.27459
1.28405
1.29389
1.30162
1.30518
1.3082
1.31085
1.31145
1.31154
1.26035
1.26017
1.25997
1.25965
1.25924
1.2591
1.25903
1.25892
1.25877
1.25863
1.25834
1.25807
1.25799
1.258
1.25798
1.25788
1.25785
1.25792
1.25806
1.25807
1.2581
1.25847
1.25912
1.25924
1.25914
1.25914
1.25958
1.26058
1.26161
1.26226
1.26262
1.26263
1.26238
1.26224
1.26227
1.26243
1.26244
1.26216
1.26157
1.26118
1.26117
1.26139
1.26211
1.26257
1.26267
1.26261
1.26191
1.26021
1.25961
1.25971
1.25993
1.26028
1.26133
1.26283
1.26335
1.26335
1.26298
1.26174
1.26004
1.2594
1.25956
1.26064
1.26254
1.26327
1.2631
1.26241
1.26169
1.26169
1.26204
1.26242
1.26234
1.26197
1.26144
1.26079
1.2605
1.2604
1.26032
1.26022
1.26023
1.2603
1.26038
1.2604
1.26045
1.26055
1.26075
1.26109
1.26137
1.2616
1.26178
1.26196
1.26267
1.26498
1.27003
1.2793
1.28863
1.29937
1.30663
1.31023
1.31016
1.31059
1.25727
1.2573
1.2573
1.25728
1.25726
1.25725
1.25716
1.2571
1.2571
1.25704
1.2568
1.25672
1.25672
1.25669
1.25654
1.25652
1.25666
1.25665
1.25636
1.25565
1.25484
1.25422
1.25424
1.25458
1.25469
1.25433
1.25424
1.25443
1.25457
1.25468
1.2549
1.25529
1.25584
1.25652
1.25772
1.25957
1.26117
1.26153
1.26131
1.26027
1.25975
1.25963
1.25934
1.25937
1.26003
1.2604
1.2603
1.25976
1.25909
1.25852
1.25809
1.25801
1.25872
1.26064
1.26217
1.26287
1.26301
1.26282
1.26203
1.26071
1.26006
1.26048
1.26178
1.26304
1.26312
1.26282
1.26269
1.26255
1.26243
1.26226
1.26215
1.26217
1.26212
1.26186
1.26137
1.26109
1.26094
1.26076
1.26054
1.2605
1.26055
1.26057
1.2606
1.26073
1.26095
1.26125
1.26144
1.26158
1.26173
1.26184
1.26201
1.26244
1.26381
1.26691
1.27382
1.2834
1.29304
1.30129
1.30534
1.30951
1.24892
1.24898
1.24903
1.24908
1.24908
1.24907
1.2493
1.25041
1.25108
1.25113
1.25096
1.25087
1.25115
1.25166
1.25166
1.25152
1.25152
1.25137
1.25102
1.25095
1.25135
1.25211
1.2522
1.25185
1.25127
1.25084
1.25035
1.24907
1.2466
1.24528
1.24513
1.24521
1.24588
1.24765
1.25033
1.25315
1.25496
1.25555
1.25537
1.25457
1.25377
1.25342
1.25358
1.25427
1.25543
1.25683
1.25806
1.25835
1.25825
1.25738
1.2562
1.25577
1.25587
1.25696
1.2591
1.26109
1.26232
1.26246
1.26204
1.26142
1.26103
1.26068
1.26091
1.26137
1.26199
1.26254
1.26265
1.26265
1.26231
1.26156
1.26135
1.26146
1.26173
1.26175
1.26153
1.26116
1.26104
1.26108
1.26116
1.26133
1.26138
1.26136
1.26122
1.26116
1.26122
1.26128
1.26139
1.26148
1.26159
1.26173
1.26181
1.26195
1.26222
1.26295
1.26503
1.26982
1.27839
1.2883
1.29929
1.30848
1.24893
1.24894
1.24913
1.24942
1.24945
1.24949
1.25005
1.2504
1.25067
1.2516
1.25277
1.25298
1.25292
1.25274
1.25263
1.25244
1.25196
1.25171
1.25165
1.25167
1.25198
1.25275
1.2543
1.25589
1.25611
1.25588
1.25484
1.2524
1.24871
1.24625
1.24602
1.24632
1.2469
1.24746
1.24813
1.24924
1.25079
1.25236
1.25296
1.25268
1.25181
1.25129
1.25133
1.25158
1.25213
1.25341
1.25567
1.2569
1.25684
1.25614
1.25449
1.25277
1.2523
1.25272
1.25383
1.25504
1.25609
1.25732
1.25912
1.26038
1.26053
1.26039
1.25954
1.25891
1.2589
1.25951
1.26107
1.26207
1.26198
1.26134
1.26088
1.26093
1.26123
1.2615
1.26157
1.26151
1.2615
1.26161
1.26186
1.26217
1.2622
1.26214
1.26197
1.26174
1.26163
1.26152
1.26145
1.26149
1.26157
1.2617
1.2618
1.26187
1.26194
1.26205
1.26235
1.26366
1.26687
1.27404
1.28286
1.2968
1.25641
1.25492
1.25485
1.25486
1.25481
1.25488
1.25541
1.25553
1.25553
1.25613
1.25813
1.2594
1.25931
1.25901
1.25903
1.25939
1.2598
1.26024
1.26122
1.26288
1.26397
1.26453
1.26517
1.26579
1.26593
1.26549
1.26399
1.26213
1.26074
1.25924
1.2585
1.25856
1.25834
1.25681
1.25395
1.25223
1.25228
1.25282
1.25299
1.25262
1.25124
1.25065
1.25082
1.25115
1.25152
1.25217
1.2533
1.25392
1.2538
1.25345
1.25311
1.25311
1.25332
1.25315
1.25183
1.25093
1.25084
1.25091
1.25169
1.25384
1.25554
1.25594
1.25574
1.25499
1.25489
1.25567
1.25725
1.25884
1.26003
1.26052
1.26058
1.26062
1.26083
1.26132
1.26152
1.26148
1.26152
1.26164
1.2619
1.2622
1.26232
1.26233
1.26233
1.26229
1.26227
1.2622
1.26202
1.26188
1.26182
1.26173
1.26168
1.2617
1.26178
1.2618
1.26184
1.262
1.26274
1.26507
1.26971
1.28344
1.27946
1.27565
1.27273
1.27187
1.27193
1.27215
1.27204
1.27075
1.26829
1.26732
1.26755
1.26779
1.26785
1.26862
1.26944
1.26935
1.26938
1.27077
1.27233
1.27245
1.27113
1.26985
1.27019
1.26895
1.26473
1.26407
1.26443
1.2641
1.26418
1.26676
1.26863
1.26849
1.26705
1.26385
1.26145
1.26072
1.26049
1.25987
1.25922
1.25921
1.25888
1.25743
1.256
1.2541
1.25155
1.25083
1.25119
1.2528
1.25338
1.25354
1.25398
1.25507
1.2569
1.25745
1.25651
1.25437
1.25206
1.25131
1.25194
1.25259
1.25278
1.25311
1.25409
1.25527
1.25552
1.25511
1.25445
1.25449
1.25495
1.25597
1.2572
1.25783
1.25811
1.2586
1.25947
1.26033
1.26101
1.26135
1.26158
1.26194
1.26211
1.26219
1.26236
1.26263
1.26267
1.26263
1.26252
1.26239
1.26224
1.26197
1.26165
1.26161
1.26167
1.26166
1.26162
1.26165
1.26179
1.2623
1.26356
1.2709
1.3256
1.32529
1.32535
1.32604
1.3266
1.32728
1.32745
1.3267
1.32447
1.32401
1.32469
1.32574
1.32536
1.32359
1.32153
1.32097
1.32124
1.32079
1.31956
1.32008
1.31967
1.31497
1.30905
1.30512
1.30156
1.29788
1.29334
1.2873
1.28507
1.28546
1.28632
1.28641
1.28513
1.2816
1.28123
1.28387
1.28398
1.28367
1.28505
1.28669
1.28689
1.28621
1.28334
1.2776
1.27212
1.26856
1.26592
1.2643
1.26268
1.26024
1.25912
1.25993
1.26209
1.26176
1.26134
1.26194
1.26274
1.26206
1.25785
1.25368
1.25312
1.25322
1.25396
1.25516
1.25582
1.25577
1.25506
1.25399
1.2533
1.25322
1.25343
1.25416
1.25474
1.25514
1.25595
1.25697
1.25785
1.25868
1.25939
1.26011
1.26092
1.26166
1.26226
1.2628
1.26286
1.2629
1.26281
1.26255
1.26214
1.26173
1.26164
1.26166
1.26163
1.26154
1.26144
1.26146
1.26158
1.26181
1.26202
1.26458
1.3872
1.3871
1.38709
1.38823
1.38952
1.38825
1.38036
1.37629
1.37434
1.37359
1.3742
1.37467
1.3741
1.37061
1.36589
1.36495
1.36473
1.36426
1.36151
1.35737
1.35658
1.35682
1.35941
1.36031
1.35893
1.35276
1.34983
1.35028
1.35148
1.35043
1.34493
1.34297
1.34237
1.34063
1.33692
1.32958
1.32142
1.31731
1.31327
1.30997
1.30942
1.3082
1.30143
1.29616
1.29751
1.30039
1.30006
1.29899
1.29726
1.29362
1.28979
1.28478
1.27575
1.26687
1.26504
1.26638
1.27086
1.27267
1.27166
1.26937
1.26546
1.26039
1.25729
1.25689
1.25695
1.25795
1.2588
1.25806
1.2557
1.25437
1.25442
1.25494
1.25574
1.25581
1.25557
1.25496
1.25478
1.25497
1.25551
1.25622
1.25715
1.25823
1.25902
1.25987
1.26082
1.26207
1.26222
1.26212
1.26199
1.26188
1.26185
1.26186
1.26181
1.26172
1.26158
1.26157
1.26178
1.26213
1.26222
1.26252
1.4633
1.46326
1.46336
1.46431
1.46737
1.47054
1.47044
1.46642
1.46076
1.46042
1.46059
1.45909
1.4556
1.45334
1.45123
1.44654
1.44292
1.44231
1.44048
1.43357
1.42926
1.4292
1.4289
1.42733
1.42441
1.42052
1.41351
1.40948
1.40967
1.40972
1.40853
1.40491
1.39817
1.39521
1.39544
1.39582
1.3931
1.38702
1.383
1.38106
1.37939
1.3763
1.37005
1.36094
1.3523
1.34728
1.34318
1.33562
1.33099
1.33123
1.33538
1.33569
1.3275
1.31476
1.31119
1.30773
1.29895
1.29115
1.2907
1.292
1.29096
1.28785
1.28236
1.27367
1.26876
1.26866
1.27053
1.27093
1.26821
1.26201
1.25948
1.25948
1.25952
1.25907
1.25726
1.25526
1.25503
1.25512
1.25533
1.25531
1.25533
1.25551
1.25599
1.25694
1.25821
1.2599
1.26074
1.26076
1.26096
1.2614
1.26157
1.26182
1.26182
1.26171
1.26167
1.26178
1.2621
1.26231
1.26232
1.26218
1.55161
1.55207
1.5516
1.54424
1.53946
1.53931
1.5381
1.53494
1.53495
1.53753
1.53808
1.53623
1.533
1.52811
1.52265
1.5198
1.5199
1.52041
1.52004
1.51729
1.51196
1.51108
1.5111
1.51048
1.50742
1.50125
1.49999
1.49959
1.49797
1.49242
1.48575
1.48219
1.47965
1.47672
1.47303
1.46963
1.46535
1.45576
1.44775
1.44532
1.44297
1.43982
1.43677
1.43242
1.42495
1.42041
1.41644
1.41063
1.40426
1.39851
1.39365
1.38646
1.37066
1.36315
1.36366
1.36276
1.35477
1.34691
1.34284
1.332
1.31902
1.31772
1.31591
1.31048
1.3035
1.29225
1.2856
1.28554
1.28471
1.27938
1.27014
1.26503
1.26468
1.26461
1.26258
1.26044
1.26004
1.25938
1.25875
1.25788
1.25799
1.25853
1.25896
1.25951
1.25961
1.25936
1.25856
1.2582
1.25827
1.25887
1.25996
1.26121
1.26166
1.26163
1.26166
1.26186
1.26211
1.26239
1.26252
1.26248
1.63921
1.63923
1.63686
1.63264
1.63188
1.63142
1.63095
1.62931
1.62757
1.62695
1.62446
1.61968
1.61919
1.61869
1.61594
1.61133
1.6055
1.60421
1.60445
1.60417
1.602
1.59763
1.59421
1.59069
1.58671
1.58426
1.58286
1.58101
1.57792
1.57184
1.56555
1.56213
1.5602
1.55646
1.54886
1.54701
1.54703
1.54491
1.53842
1.53127
1.52551
1.52001
1.51484
1.50926
1.50185
1.49446
1.4887
1.48232
1.47563
1.46982
1.46528
1.46025
1.45217
1.44368
1.43668
1.4269
1.41122
1.40663
1.40569
1.39968
1.38877
1.3799
1.36619
1.35676
1.35362
1.34893
1.3416
1.32793
1.31862
1.31526
1.31003
1.30221
1.29545
1.29118
1.28591
1.28019
1.27604
1.27201
1.26871
1.26619
1.26478
1.26335
1.26055
1.25905
1.25804
1.2565
1.25571
1.25578
1.25606
1.25697
1.25858
1.25985
1.26094
1.26094
1.26094
1.26115
1.2616
1.2623
1.26288
1.26295
1.72941
1.72814
1.72669
1.72629
1.72519
1.72057
1.71571
1.71529
1.71624
1.71625
1.71519
1.71152
1.7054
1.70438
1.70455
1.7039
1.701
1.69462
1.69262
1.69226
1.69153
1.68815
1.68268
1.67985
1.67841
1.6758
1.67197
1.66846
1.66497
1.66114
1.65722
1.65307
1.64873
1.64429
1.63971
1.63521
1.63075
1.62582
1.61982
1.61421
1.60908
1.60329
1.59764
1.59254
1.58692
1.57937
1.5731
1.56742
1.56064
1.55184
1.54314
1.53579
1.52811
1.51939
1.51257
1.50587
1.49673
1.48703
1.47837
1.46857
1.45668
1.44817
1.43824
1.42876
1.42023
1.40812
1.39843
1.38933
1.37786
1.36646
1.35701
1.34757
1.33753
1.3271
1.31865
1.31056
1.30218
1.29499
1.28796
1.2812
1.27403
1.26829
1.26353
1.26094
1.2593
1.25747
1.2573
1.25791
1.2589
1.2606
1.26109
1.26071
1.25962
1.25863
1.2586
1.2591
1.26041
1.26187
1.26273
1.26282
1.82386
1.82343
1.82284
1.8223
1.82151
1.81974
1.81482
1.81238
1.8123
1.81148
1.80978
1.80774
1.80279
1.79833
1.79818
1.79801
1.79692
1.79159
1.78487
1.7842
1.78405
1.78242
1.77779
1.77271
1.7696
1.76681
1.76247
1.75865
1.75559
1.75194
1.74768
1.74343
1.73913
1.73408
1.72866
1.72431
1.72026
1.71537
1.70962
1.70395
1.69799
1.69127
1.68488
1.6786
1.67221
1.66543
1.65777
1.65065
1.64383
1.6361
1.62756
1.61957
1.61224
1.60399
1.59439
1.58467
1.57535
1.56525
1.55554
1.54763
1.53829
1.52693
1.51384
1.50115
1.49295
1.48409
1.4709
1.45623
1.44536
1.43419
1.42209
1.40852
1.397
1.38483
1.37237
1.36038
1.34974
1.33833
1.32658
1.31768
1.30869
1.30009
1.29447
1.28849
1.28175
1.27593
1.27208
1.26897
1.265
1.26185
1.26043
1.25841
1.25668
1.25656
1.25691
1.25796
1.25948
1.26098
1.2622
1.26242
1.92328
1.92319
1.92328
1.92291
1.92216
1.92084
1.91944
1.91673
1.91078
1.9073
1.90763
1.90766
1.90679
1.90245
1.8946
1.89355
1.89354
1.89248
1.88684
1.88115
1.87973
1.87873
1.87594
1.87067
1.86591
1.8629
1.86003
1.85595
1.85142
1.84745
1.84371
1.83914
1.83415
1.82937
1.82407
1.81866
1.81383
1.80882
1.80215
1.79552
1.78988
1.78322
1.77615
1.76975
1.76292
1.75577
1.74798
1.74045
1.73308
1.72428
1.71531
1.70651
1.69792
1.68925
1.67952
1.66983
1.66088
1.65148
1.64077
1.62929
1.618
1.60714
1.5966
1.58523
1.57256
1.55945
1.54807
1.53556
1.52176
1.50909
1.49583
1.48139
1.46638
1.45281
1.43949
1.42441
1.41005
1.39722
1.38229
1.36779
1.35644
1.34294
1.32974
1.31752
1.30777
1.29708
1.28652
1.27844
1.26953
1.26416
1.26226
1.26035
1.25824
1.25899
1.26121
1.26116
1.26058
1.25984
1.25976
1.26016
2.03785
2.0349
2.02876
2.02538
2.02524
2.0268
2.02755
2.02695
2.02416
2.01829
2.01155
2.01014
2.01052
2.01017
2.00754
1.99927
1.99559
1.9954
1.99457