x,y,z,U_0,U_1,U_2
-1.77265,-3,-1.62657e-18,3,4.83509e-16,0
-1.77265,-2.99399,-3.01436e-18,3,4.83509e-16,0
-1.77265,-2.98799,-9.32687e-19,3,4.83509e-16,0
-1.77265,-2.98198,2.53676e-18,3,4.83509e-16,0
-1.77265,-2.97598,2.53676e-18,3,4.83509e-16,0
-1.77265,-2.96997,2.53676e-18,3,4.83509e-16,0
-1.77265,-2.96396,2.53676e-18,3,4.83509e-16,0
-1.77265,-2.95796,2.53676e-18,3,4.83509e-16,0
-1.77265,-2.95195,2.53676e-18,3,4.83509e-16,0
-1.77265,-2.94595,2.53676e-18,3,4.83509e-16,0
-1.77265,-2.93994,2.53676e-18,3,4.83509e-16,0
-1.77265,-2.93393,2.53676e-18,3,4.83509e-16,0
-1.77265,-2.92793,2.53676e-18,3,4.83509e-16,0
-1.77265,-2.92192,2.53676e-18,3,4.83509e-16,0
-1.77265,-2.91592,2.53676e-18,3,4.83509e-16,0
-1.77265,-2.90991,-9.32687e-19,3,4.83509e-16,0
-1.77265,-2.9039,-9.32687e-19,3,4.83509e-16,0
-1.77265,-2.8979,-9.32687e-19,3,4.83509e-16,0
-1.77265,-2.89189,-9.32687e-19,3,4.83509e-16,0
-1.77265,-2.88589,1.4011e-18,3,4.83509e-16,0
-1.77265,-2.87988,8.14802e-19,3,4.83509e-16,0
-1.77265,-2.87387,3.58604e-19,3,4.83509e-16,0
-1.77265,-2.86787,3.37185e-18,3,4.83509e-16,0
-1.77265,-2.86186,2.56871e-18,3,4.83509e-16,0
-1.77265,-2.85586,2.63293e-18,3,4.83509e-16,0
-1.77265,-2.84985,1.82979e-18,3,4.83509e-16,0
-1.77265,-2.84384,1.89401e-18,3,4.83509e-16,0
-1.77265,-2.83784,1.95822e-18,3,4.83509e-16,0
-1.77265,-2.83183,2.02244e-18,3,4.83509e-16,0
-1.77265,-2.82583,2.08666e-18,3,4.83509e-16,0
-1.77265,-2.81982,2.15088e-18,3,4.83509e-16,0
-1.77265,-2.81381,3.94982e-18,3,4.83509e-16,0
-1.77265,-2.80781,2.27932e-18,3,4.83509e-16,0
-1.77265,-2.8018,5.81298e-18,3,4.83509e-16,0
-1.77265,-2.7958,5.8772e-18,3,4.83509e-16,0
-1.77265,-2.78979,5.94142e-18,3,4.83509e-16,0
-1.77265,-2.78378,6.00564e-18,3,4.83509e-16,0
-1.77265,-2.77778,3.66327e-18,3,4.83509e-16,0
-1.77265,-2.77177,6.80668e-18,3,4.83509e-16,0
-1.77265,-2.76577,6.35055e-18,3,4.83509e-16,0
-1.77265,-2.75976,1.84298e-18,3,-6.14198e-16,0
-1.77265,-2.75375,6.70017e-18,3,-6.14198e-16,0
-1.77265,-2.74775,8.08791e-18,3,-6.14198e-16,0
-1.77265,-2.74174,9.47566e-18,3,-6.14198e-16,0
-1.77265,-2.73574,9.47565e-18,3,-6.14198e-16,0
-1.77265,-2.72973,9.47565e-18,3,-6.14198e-16,0
-1.77265,-2.72372,9.47565e-18,3,-6.14198e-16,0
-1.77265,-2.71772,9.47565e-18,3,-6.14198e-16,0
-1.77265,-2.71171,9.47565e-18,3,-6.14198e-16,0
-1.77265,-2.70571,9.47565e-18,3,-6.14198e-16,0
-1.77265,-2.6997,9.47565e-18,3,-6.14198e-16,0
-1.77265,-2.69369,1.29451e-17,3,-6.14198e-16,0
-1.77265,-2.68769,9.47565e-18,3,-6.14198e-16,0
-1.77265,-2.68168,9.47565e-18,3,-6.14198e-16,0
-1.77265,-2.67568,1.29451e-17,3,-6.14198e-16,0
-1.77265,-2.66967,9.47565e-18,3,-6.14198e-16,0
-1.77265,-2.66366,9.47565e-18,3,-6.14198e-16,0
-1.77265,-2.65766,9.47565e-18,3,-6.14198e-16,0
-1.77265,-2.65165,9.47565e-18,3,-6.14198e-16,0
-1.77265,-2.64565,7.39399e-18,3,-6.14198e-16,0
-1.77265,-2.63964,8.32377e-18,3,-6.14198e-16,0
-1.77265,-2.63363,7.67754e-18,3,-6.14198e-16,0
-1.77265,-2.62763,7.00963e-18,3,-6.14198e-16,0
-1.77265,-2.62162,6.47182e-18,3,-6.14198e-16,0
-1.77265,-2.61562,5.84728e-18,3,-6.14198e-16,0
-1.77265,-2.60961,5.56968e-18,3,-6.14198e-16,0
-1.77265,-2.6036,3.55736e-18,3,-6.14198e-16,0
-1.77265,-2.5976,4.66754e-18,3,-6.14198e-16,0
-1.77265,-2.59159,7.1655e-18,3,-6.14198e-16,0
-1.77265,-2.58559,6.8879e-18,3,-6.14198e-16,0
-1.77265,-2.57958,6.26336e-18,3,-6.14198e-16,0
-1.77265,-2.57357,7.37354e-18,3,-6.14198e-16,0
-1.77265,-2.56757,6.74899e-18,3,-6.14198e-16,0
-1.77265,-2.56156,7.85917e-18,3,-6.14198e-16,0
-1.77265,-2.55556,7.23463e-18,3,-6.14198e-16,0
-1.77265,-2.54955,1.00795e-17,3,-6.14198e-16,0
-1.77265,-2.54354,9.45499e-18,3,-6.14198e-16,0
-1.77265,-2.53754,7.76825e-18,3,-6.14198e-16,0
-1.77265,-2.53153,5.84273e-18,3,-6.14198e-16,0
-1.77265,-2.52553,4.26416e-18,3,-6.14198e-16,0
-1.77265,-2.51952,-4.40203e-18,3,1.65155e-16,0
-1.77265,-2.51351,-4.40206e-18,3,1.65155e-16,0
-1.77265,-2.50751,-7.87155e-18,3,1.65155e-16,0
-1.77265,-2.5015,-4.40213e-18,3,1.65155e-16,0
-1.77265,-2.4955,-4.40213e-18,3,1.65155e-16,0
-1.77265,-2.48949,-4.40213e-18,3,1.65155e-16,0
-1.77265,-2.48348,-4.40213e-18,3,1.65155e-16,0
-1.77265,-2.47748,-4.40213e-18,3,1.65155e-16,0
-1.77265,-2.47147,-7.87158e-18,3,1.65155e-16,0
-1.77265,-2.46547,-7.87158e-18,3,1.65155e-16,0
-1.77265,-2.45946,-7.87158e-18,3,1.65155e-16,0
-1.77265,-2.45345,-7.87158e-18,3,1.65155e-16,0
-1.77265,-2.44745,-7.87158e-18,3,1.65155e-16,0
-1.77265,-2.44144,-7.87158e-18,3,1.65155e-16,0
-1.77265,-2.43544,-7.87158e-18,3,1.65155e-16,0
-1.77265,-2.42943,-7.87158e-18,3,1.65155e-16,0
-1.77265,-2.42342,-7.87158e-18,3,1.65155e-16,0
-1.77265,-2.41742,-7.87158e-18,3,1.65155e-16,0
-1.77265,-2.41141,-7.87158e-18,3,1.65155e-16,0
-1.77265,-2.40541,-7.53434e-18,3,1.65155e-16,0
-1.77265,-2.3994,-7.06915e-18,3,1.65155e-16,0
-1.77265,-2.39339,-7.16774e-18,3,1.65155e-16,0
-1.77265,-2.38739,-6.83265e-18,3,1.65155e-16,0
-1.77265,-2.38138,-6.23735e-18,3,1.65155e-16,0
-1.77265,-2.37538,-6.33593e-18,3,1.65155e-16,0
-1.77265,-2.36937,-6.43452e-18,3,1.65155e-16,0
-1.77265,-2.36336,-5.66575e-18,3,1.65155e-16,0
-1.77265,-2.35736,-6.6317e-18,3,1.65155e-16,0
-1.77265,-2.35135,-4.47515e-18,3,1.65155e-16,0
-1.77265,-2.34535,-5.4411e-18,3,1.65155e-16,0
-1.77265,-2.33934,-4.67233e-18,3,1.65155e-16,0
-1.77265,-2.33333,-3.90356e-18,3,1.65155e-16,0
-1.77265,-2.32733,-6.60423e-18,3,1.65155e-16,0
-1.77265,-2.32132,-5.83546e-18,3,1.65155e-16,0
-1.77265,-2.31532,-5.08807e-18,3,1.65155e-16,0
-1.77265,-2.30931,-4.31923e-18,3,1.65155e-16,0
-1.77265,-2.3033,-3.55038e-18,3,1.65155e-16,0
-1.77265,-2.2973,-6.48369e-18,3,4.94059e-16,0
-1.77265,-2.29129,-5.78984e-18,3,4.94059e-16,0
-1.77265,-2.28529,-4.40211e-18,3,4.94059e-16,0
-1.77265,-2.27928,-6.4838e-18,3,4.94059e-16,0
-1.77265,-2.27327,-3.01436e-18,3,4.94059e-16,0
-1.77265,-2.26727,-6.4838e-18,3,4.94059e-16,0
-1.77265,-2.26126,-6.4838e-18,3,4.94059e-16,0
-1.77265,-2.25526,-9.95325e-18,3,4.94059e-16,0
-1.77265,-2.24925,-1.20349e-17,3,4.94059e-16,0
-1.77265,-2.24324,-9.25936e-18,3,4.94059e-16,0
-1.77265,-2.23724,-9.25936e-18,3,4.94059e-16,0
-1.77265,-2.23123,-9.25936e-18,3,4.94059e-16,0
-1.77265,-2.22523,-1.48105e-17,3,4.94059e-16,0
-1.77265,-2.21922,-1.48105e-17,3,4.94059e-16,0
-1.77265,-2.21321,-1.1341e-17,3,4.94059e-16,0
-1.77265,-2.20721,-1.1341e-17,3,4.94059e-16,0
-1.77265,-2.2012,-1.27288e-17,3,4.94059e-16,0
-1.77265,-2.1952,-1.16322e-17,3,4.94059e-16,0
-1.77265,-2.18919,-1.03669e-17,3,4.94059e-16,0
-1.77265,-2.18318,-5.47214e-18,3,4.94059e-16,0
-1.77265,-2.17718,-7.55968e-18,3,4.94059e-16,0
-1.77265,-2.17117,-8.69313e-18,3,4.94059e-16,0
-1.77265,-2.16517,-6.5306e-18,3,4.94059e-16,0
-1.77265,-2.15916,-2.98029e-18,3,4.94059e-16,0
-1.77265,-2.15315,-3.59332e-18,3,4.94059e-16,0
-1.77265,-2.14715,-3.8594e-18,3,4.94059e-16,0
-1.77265,-2.14114,-4.12548e-18,3,4.94059e-16,0
-1.77265,-2.13514,-5.77935e-18,3,4.94059e-16,0
-1.77265,-2.12913,-8.1271e-18,3,4.94059e-16,0
-1.77265,-2.12312,-5.27068e-18,3,4.94059e-16,0
-1.77265,-2.11712,-8.65926e-18,3,4.94059e-16,0
-1.77265,-2.11111,-8.5784e-18,3,4.94059e-16,0
-1.77265,-2.10511,-7.825e-18,3,4.94059e-16,0
-1.77265,-2.0991,-1.00859e-17,3,4.94059e-16,0
-1.77265,-2.09309,-7.05596e-18,3,4.94059e-16,0
-1.77265,-2.08709,-9.25928e-18,3,-5.96424e-16,0
-1.77265,-2.08108,-1.20349e-17,3,-5.96424e-16,0
-1.77265,-2.07508,-1.1341e-17,3,-5.96424e-16,0
-1.77265,-2.06907,-1.1341e-17,3,-5.96424e-16,0
-1.77265,-2.06306,-1.48105e-17,3,-5.96424e-16,0
-1.77265,-2.05706,-1.68921e-17,3,-5.96424e-16,0
-1.77265,-2.05105,-1.68921e-17,3,-5.96424e-16,0
-1.77265,-2.04505,-2.03616e-17,3,-5.96424e-16,0
-1.77265,-2.03904,-2.03616e-17,3,-5.96424e-16,0
-1.77265,-2.03303,-2.03616e-17,3,-5.96424e-16,0
-1.77265,-2.02703,-1.68921e-17,3,-5.96424e-16,0
-1.77265,-2.02102,-1.68921e-17,3,-5.96424e-16,0
-1.77265,-2.01502,-1.48105e-17,3,-5.96424e-16,0
-1.77265,-2.00901,-1.1341e-17,3,-5.96424e-16,0
-1.77265,-2.003,-1.1341e-17,3,-5.96424e-16,0
-1.77265,-1.997,-9.30747e-18,3,-5.96424e-16,0
-1.77265,-1.99099,-9.36677e-18,3,-5.96424e-16,0
-1.77265,-1.98498,-5.11612e-18,3,-5.96424e-16,0
-1.77265,-1.97898,-4.0747e-18,3,-5.96424e-16,0
-1.77265,-1.97297,-2.77308e-18,3,-5.96424e-16,0
-1.77265,-1.96697,-2.33882e-18,3,-5.96424e-16,0
-1.77265,-1.96096,-1.90456e-18,3,-5.96424e-16,0
-1.77265,-1.95495,-1.47029e-18,3,-5.96424e-16,0
-1.77265,-1.94895,-2.42381e-18,3,-5.96424e-16,0
-1.77265,-1.94294,-5.11205e-18,3,-5.96424e-16,0
-1.77265,-1.93694,-6.06557e-18,3,-5.96424e-16,0
-1.77265,-1.93093,-8.75381e-18,3,-5.96424e-16,0
-1.77265,-1.92492,-9.36038e-18,3,-5.96424e-16,0
-1.77265,-1.91892,-8.57917e-18,3,-5.96424e-16,0
-1.77265,-1.91291,-1.27633e-17,3,-5.96424e-16,0
-1.77265,-1.90691,-1.26759e-17,3,-5.96424e-16,0
-1.77265,-1.9009,-1.48104e-17,3,-3.49464e-16,0
-1.77265,-1.89489,-9.95318e-18,3,-3.49464e-16,0
-1.77265,-1.88889,-1.20349e-17,3,-3.49464e-16,0
-1.77265,-1.88288,-1.27288e-17,3,-3.49464e-16,0
-1.77265,-1.87688,-1.27288e-17,3,-3.49464e-16,0
-1.77265,-1.87087,-1.27288e-17,3,-3.49464e-16,0
-1.77265,-1.86486,-9.25936e-18,3,-3.49464e-16,0
-1.77265,-1.85886,-9.25936e-18,3,-3.49464e-16,0
-1.77265,-1.85285,-9.25936e-18,3,-3.49464e-16,0
-1.77265,-1.84685,-9.25936e-18,3,-3.49464e-16,0
-1.77265,-1.84084,-5.78991e-18,3,-3.49464e-16,0
-1.77265,-1.83483,-5.78991e-18,3,-3.49464e-16,0
-1.77265,-1.82883,-9.25936e-18,3,-3.49464e-16,0
-1.77265,-1.82282,-1.27288e-17,3,-3.49464e-16,0
-1.77265,-1.81682,-1.1341e-17,3,-3.49464e-16,0
-1.77265,-1.81081,-1.53582e-17,3,-3.49464e-16,0
-1.77265,-1.8048,-1.42664e-17,3,-3.49464e-16,0
-1.77265,-1.7988,-1.27844e-17,3,-3.49464e-16,0
-1.77265,-1.79279,-8.35326e-18,3,-3.49464e-16,0
-1.77265,-1.78679,-6.87119e-18,3,-3.49464e-16,0
-1.77265,-1.78078,-7.12385e-18,3,-3.49464e-16,0
-1.77265,-1.77477,-7.72345e-18,3,-3.49464e-16,0
-1.77265,-1.76877,-9.36388e-18,3,-3.49464e-16,0
-1.77265,-1.76276,-1.10043e-17,3,-3.49464e-16,0
-1.77265,-1.75676,-1.16039e-17,3,-3.49464e-16,0
-1.77265,-1.75075,-1.15096e-17,3,-3.49464e-16,0
-1.77265,-1.74474,-1.48848e-17,3,-3.49464e-16,0
-1.77265,-1.73874,-1.5007e-17,3,-3.49464e-16,0
-1.77265,-1.73273,-1.39369e-17,3,-3.49464e-16,0
-1.77265,-1.72673,-1.16741e-17,3,-3.49464e-16,0
-1.77265,-1.72072,-1.61982e-17,3,3.27133e-16,0
-1.77265,-1.71471,-1.48104e-17,3,3.27133e-16,0
-1.77265,-1.70871,-1.68921e-17,3,3.27133e-16,0
-1.77265,-1.7027,-1.68921e-17,3,3.27133e-16,0
-1.77265,-1.6967,-1.89738e-17,3,3.27133e-16,0
-1.77265,-1.69069,-1.68921e-17,3,3.27133e-16,0
-1.77265,-1.68468,-1.89738e-17,3,3.27133e-16,0
-1.77265,-1.67868,-1.68921e-17,3,3.27133e-16,0
-1.77265,-1.67267,-1.89738e-17,3,3.27133e-16,0
-1.77265,-1.66667,-1.68921e-17,3,3.27133e-16,0
-1.77265,-1.66066,-1.89738e-17,3,3.27133e-16,0
-1.77265,-1.65465,-1.89738e-17,3,3.27133e-16,0
-1.77265,-1.64865,-2.03616e-17,3,3.27133e-16,0
-1.77265,-1.64264,-1.79514e-17,3,3.27133e-16,0
-1.77265,-1.63664,-1.82805e-17,3,3.27133e-16,0
-1.77265,-1.63063,-1.81787e-17,3,3.27133e-16,0
-1.77265,-1.62462,-1.80769e-17,3,3.27133e-16,0
-1.77265,-1.61862,-1.79751e-17,3,3.27133e-16,0
-1.77265,-1.61261,-1.78733e-17,3,3.27133e-16,0
-1.77265,-1.60661,-1.77714e-17,3,3.27133e-16,0
-1.77265,-1.6006,-1.62818e-17,3,3.27133e-16,0
-1.77265,-1.59459,-1.618e-17,3,3.27133e-16,0
-1.77265,-1.58859,-1.78129e-17,3,3.27133e-16,0
-1.77265,-1.58258,-1.77111e-17,3,3.27133e-16,0
-1.77265,-1.57658,-1.76093e-17,3,3.27133e-16,0
-1.77265,-1.57057,-1.88299e-17,3,3.27133e-16,0
-1.77265,-1.56456,-1.88147e-17,3,3.27133e-16,0
-1.77265,-1.55856,-1.89737e-17,3,8.67119e-16,0
-1.77265,-1.55255,-1.7586e-17,3,8.67119e-16,0
-1.77265,-1.54655,-1.96677e-17,3,8.67119e-16,0
-1.77265,-1.54054,-1.96677e-17,3,8.67119e-16,0
-1.77265,-1.53453,-1.96677e-17,3,8.67119e-16,0
-1.77265,-1.52853,-1.61983e-17,3,8.67119e-16,0
-1.77265,-1.52252,-1.61983e-17,3,8.67119e-16,0
-1.77265,-1.51652,-1.96677e-17,3,8.67119e-16,0
-1.77265,-1.51051,-1.96677e-17,3,8.67119e-16,0
-1.77265,-1.5045,-1.61983e-17,3,8.67119e-16,0
-1.77265,-1.4985,-1.61983e-17,3,8.67119e-16,0
-1.77265,-1.49249,-1.61983e-17,3,8.67119e-16,0
-1.77265,-1.48649,-1.96677e-17,3,8.67119e-16,0
-1.77265,-1.48048,-1.72148e-17,3,8.67119e-16,0
-1.77265,-1.47447,-1.75819e-17,3,8.67119e-16,0
-1.77265,-1.46847,-1.73852e-17,3,8.67119e-16,0
-1.77265,-1.46246,-1.76222e-17,3,8.67119e-16,0
-1.77265,-1.45646,-1.78592e-17,3,8.67119e-16,0
-1.77265,-1.45045,-1.80962e-17,3,8.67119e-16,0
-1.77265,-1.44444,-1.9721e-17,3,8.67119e-16,0
-1.77265,-1.43844,-1.82232e-17,3,8.67119e-16,0
-1.77265,-1.43243,-1.84602e-17,3,8.67119e-16,0
-1.77265,-1.42643,-1.69625e-17,3,8.67119e-16,0
-1.77265,-1.42042,-2.25551e-17,3,8.67119e-16,0
-1.77265,-1.41441,-2.44834e-17,3,8.67119e-16,0
-1.77265,-1.40841,-2.73004e-17,3,-1.52717e-15,0
-1.77265,-1.4024,-2.73004e-17,3,-1.52717e-15,0
-1.77265,-1.3964,-2.73005e-17,3,-1.52717e-15,0
-1.77265,-1.39039,-2.73005e-17,3,-1.52717e-15,0
-1.77265,-1.38438,-2.73005e-17,3,-1.52717e-15,0
-1.77265,-1.37838,-2.73005e-17,3,-1.52717e-15,0
-1.77265,-1.37237,-2.73005e-17,3,-1.52717e-15,0
-1.77265,-1.36637,-2.73005e-17,3,-1.52717e-15,0
-1.77265,-1.36036,-2.73005e-17,3,-1.52717e-15,0
-1.77265,-1.35435,-2.73005e-17,3,-1.52717e-15,0
-1.77265,-1.34835,-2.73005e-17,3,-1.52717e-15,0
-1.77265,-1.34234,-2.73005e-17,3,-1.52717e-15,0
-1.77265,-1.33634,-2.71318e-17,3,-1.52717e-15,0
-1.77265,-1.33033,-2.74034e-17,3,-1.52717e-15,0
-1.77265,-1.32432,-2.72847e-17,3,-1.52717e-15,0
-1.77265,-1.31832,-2.7166e-17,3,-1.52717e-15,0
-1.77265,-1.31231,-2.79146e-17,3,-1.52717e-15,0
-1.77265,-1.30631,-2.77959e-17,3,-1.52717e-15,0
-1.77265,-1.3003,-2.76771e-17,3,-1.52717e-15,0
-1.77265,-1.29429,-2.75584e-17,3,-1.52717e-15,0
-1.77265,-1.28829,-2.74397e-17,3,-1.52717e-15,0
-1.77265,-1.28228,-2.7321e-17,3,-1.52717e-15,0
-1.77265,-1.27628,-2.85246e-17,3,-1.52717e-15,0
-1.77265,-1.27027,-2.97935e-17,3,-1.52717e-15,0
-1.77265,-1.26426,-2.45249e-17,3,-1.37248e-15,0
-1.77265,-1.25826,-2.24433e-17,3,-1.37248e-15,0
-1.77265,-1.25225,-2.3831e-17,3,-1.37248e-15,0
-1.77265,-1.24625,-2.3831e-17,3,-1.37248e-15,0
-1.77265,-1.24024,-2.24433e-17,3,-1.37248e-15,0
-1.77265,-1.23423,-2.31371e-17,3,-1.37248e-15,0
-1.77265,-1.22823,-2.31371e-17,3,-1.37248e-15,0
-1.77265,-1.22222,-2.31371e-17,3,-1.37248e-15,0
-1.77265,-1.21622,-2.31371e-17,3,-1.37248e-15,0
-1.77265,-1.21021,-2.31371e-17,3,-1.37248e-15,0
-1.77265,-1.2042,-2.66066e-17,3,-1.37248e-15,0
-1.77265,-1.1982,-2.1643e-17,3,-1.37248e-15,0
-1.77265,-1.19219,-2.57648e-17,3,-1.37248e-15,0
-1.77265,-1.18619,-2.66775e-17,3,-1.37248e-15,0
-1.77265,-1.18018,-2.68962e-17,3,-1.37248e-15,0
-1.77265,-1.17417,-2.7115e-17,3,-1.37248e-15,0
-1.77265,-1.16817,-2.73337e-17,3,-1.37248e-15,0
-1.77265,-1.16216,-2.75524e-17,3,-1.37248e-15,0
-1.77265,-1.15616,-2.60364e-17,3,-1.37248e-15,0
-1.77265,-1.15015,-2.10453e-17,3,-1.37248e-15,0
-1.77265,-1.14414,-2.21584e-17,3,-1.37248e-15,0
-1.77265,-1.13814,-2.10554e-17,3,-1.38024e-17,0
-1.77265,-1.13213,-2.03616e-17,3,-1.38024e-17,0
-1.77265,-1.12613,-2.03616e-17,3,-1.38024e-17,0
-1.77265,-1.12012,-2.03616e-17,3,-1.38024e-17,0
-1.77265,-1.11411,-2.03616e-17,3,-1.38024e-17,0
-1.77265,-1.10811,-2.03616e-17,3,-1.38024e-17,0
-1.77265,-1.1021,-2.03616e-17,3,-1.38024e-17,0
-1.77265,-1.0961,-2.03616e-17,3,-1.38024e-17,0
-1.77265,-1.09009,-2.03616e-17,3,-1.38024e-17,0
-1.77265,-1.08408,-2.3831e-17,3,-1.38024e-17,0
-1.77265,-1.07808,-2.28663e-17,3,-1.38024e-17,0
-1.77265,-1.07207,-2.38663e-17,3,-1.38024e-17,0
-1.77265,-1.06607,-2.50289e-17,3,-1.38024e-17,0
-1.77265,-1.06006,-2.66252e-17,3,-1.38024e-17,0
-1.77265,-1.05405,-2.64868e-17,3,-1.38024e-17,0
-1.77265,-1.04805,-2.63483e-17,3,-1.38024e-17,0
-1.77265,-1.04204,-2.48221e-17,3,-1.38024e-17,0
-1.77265,-1.03604,-2.32959e-17,3,-1.38024e-17,0
-1.77265,-1.03003,-2.17697e-17,3,-1.38024e-17,0
-1.77265,-1.02402,-2.33872e-17,3,-1.38024e-17,0
-1.77265,-1.01802,-2.38309e-17,3,3.12266e-15,0
-1.77265,-1.01201,-2.52188e-17,3,3.12266e-15,0
-1.77265,-1.00601,-2.17494e-17,3,3.12266e-15,0
-1.77265,-1,-2.17494e-17,3,3.12266e-15,0
-1.77265,-0.993994,-2.17494e-17,3,3.12266e-15,0
-1.77265,-0.987988,-2.52188e-17,3,3.12266e-15,0
-1.77265,-0.981982,-2.17494e-17,3,3.12266e-15,0
-1.77265,-0.975976,-2.17494e-17,3,3.12266e-15,0
-1.77265,-0.96997,-2.17494e-17,3,3.12266e-15,0
-1.77265,-0.963964,-2.24433e-17,3,3.12266e-15,0
-1.77265,-0.957958,-2.35519e-17,3,3.12266e-15,0
-1.77265,-0.951952,-2.00197e-17,3,3.12266e-15,0
-1.77265,-0.945946,-1.72681e-17,3,3.12266e-15,0
-1.77265,-0.93994,-1.67717e-17,3,3.12266e-15,0
-1.77265,-0.933934,-1.93977e-17,3,3.12266e-15,0
-1.77265,-0.927928,-2.20238e-17,3,3.12266e-15,0
-1.77265,-0.921922,-2.11804e-17,3,3.12266e-15,0
-1.77265,-0.915916,-2.26895e-17,3,3.12266e-15,0
-1.77265,-0.90991,-2.15098e-17,3,3.12266e-15,0
-1.77265,-0.903904,-9.32616e-19,3,3.61904e-15,0
-1.77265,-0.897898,-1.62658e-18,3,3.61904e-15,0
-1.77265,-0.891892,-1.62658e-18,3,3.61904e-15,0
-1.77265,-0.885886,-1.62658e-18,3,3.61904e-15,0
-1.77265,-0.87988,-1.62658e-18,3,3.61904e-15,0
-1.77265,-0.873874,-1.62658e-18,3,3.61904e-15,0
-1.77265,-0.867868,-1.62658e-18,3,3.61904e-15,0
-1.77265,-0.861862,-1.62658e-18,3,3.61904e-15,0
-1.77265,-0.855856,-1.62658e-18,3,3.61904e-15,0
-1.77265,-0.84985,-1.40395e-18,3,3.61904e-15,0
-1.77265,-0.843844,-1.06905e-18,3,3.61904e-15,0
-1.77265,-0.837838,4.80156e-19,3,3.61904e-15,0
-1.77265,-0.831832,-3.9925e-19,3,3.61904e-15,0
-1.77265,-0.825826,1.84385e-18,3,3.61904e-15,0
-1.77265,-0.81982,9.64441e-19,3,3.61904e-15,0
-1.77265,-0.813814,1.81976e-18,3,3.61904e-15,0
-1.77265,-0.807808,-1.68301e-18,3,3.61904e-15,0
-1.77265,-0.801802,1.14906e-18,3,1.3346e-15,0
-1.77265,-0.795796,1.84287e-18,3,1.3346e-15,0
-1.77265,-0.78979,1.84287e-18,3,1.3346e-15,0
-1.77265,-0.783784,-1.62658e-18,3,1.3346e-15,0
-1.77265,-0.777778,-1.62658e-18,3,1.3346e-15,0
-1.77265,-0.771772,-1.62658e-18,3,1.3346e-15,0
-1.77265,-0.765766,1.84287e-18,3,1.3346e-15,0
-1.77265,-0.75976,-1.62658e-18,3,1.3346e-15,0
-1.77265,-0.753754,-1.53133e-18,3,1.3346e-15,0
-1.77265,-0.747748,-1.48711e-18,3,1.3346e-15,0
-1.77265,-0.741742,-1.65974e-18,3,1.3346e-15,0
-1.77265,-0.735736,-1.83237e-18,3,1.3346e-15,0
-1.77265,-0.72973,-2.005e-18,3,1.3346e-15,0
-1.77265,-0.723724,-4.42901e-19,3,1.3346e-15,0
-1.77265,-0.717718,-2.35025e-18,3,1.3346e-15,0
-1.77265,-0.711712,1.09877e-18,3,1.3346e-15,0
-1.77265,-0.705706,6.00628e-18,3,-2.61103e-14,0
-1.77265,-0.6997,2.53676e-18,3,-2.61103e-14,0
-1.77265,-0.693694,2.53676e-18,3,-2.61103e-14,0
-1.77265,-0.687688,2.53676e-18,3,-2.61103e-14,0
-1.77265,-0.681682,2.53676e-18,3,-2.61103e-14,0
-1.77265,-0.675676,2.53676e-18,3,-2.61103e-14,0
-1.77265,-0.66967,2.53676e-18,3,-2.61103e-14,0
-1.77265,-0.663664,3.16121e-18,3,-2.61103e-14,0
-1.77265,-0.657658,-5.49479e-20,3,-2.61103e-14,0
-1.77265,-0.651652,-4.73866e-19,3,-2.61103e-14,0
-1.77265,-0.645646,-4.59104e-19,3,-2.61103e-14,0
-1.77265,-0.63964,4.2302e-19,3,-2.61103e-14,0
-1.77265,-0.633634,-4.2958e-19,3,-2.61103e-14,0
-1.77265,-0.627628,4.52544e-19,3,-2.61103e-14,0
-1.77265,-0.621622,4.46076e-19,3,-2.61103e-14,0
-1.77265,-0.615616,2.5368e-18,3,-1.89257e-11,0
-1.77265,-0.60961,5.31232e-18,3,-1.89257e-11,0
-1.77265,-0.603604,4.61843e-18,3,-1.89257e-11,0
-1.77265,-0.597598,2.53676e-18,3,-1.89257e-11,0
-1.77265,-0.591592,4.61843e-18,3,-1.89257e-11,0
-1.77265,-0.585586,2.53676e-18,3,-1.89257e-11,0
-1.77265,-0.57958,2.53676e-18,3,-1.89257e-11,0
-1.77265,-0.573574,3.73788e-18,3,-1.89257e-11,0
-1.77265,-0.567568,4.5483e-18,3,-1.89257e-11,0
-1.77265,-0.561562,4.75156e-18,3,-1.89257e-11,0
-1.77265,-0.555556,4.95483e-18,3,-1.89257e-11,0
-1.77265,-0.54955,6.54587e-18,3,-1.89257e-11,0
-1.77265,-0.543544,5.20989e-18,3,-1.89257e-11,0
-1.77265,-0.537538,6.00632e-18,3,-1.28591e-08,0
-1.77265,-0.531532,3.92454e-18,3,-1.28591e-08,0
-1.77265,-0.525526,5.31232e-18,3,-1.28591e-08,0
-1.77265,-0.51952,5.31232e-18,3,-1.28591e-08,0
-1.77265,-0.513514,5.31232e-18,3,-1.28591e-08,0
-1.77265,-0.507508,5.31232e-18,3,-1.28591e-08,0
-1.77265,-0.501502,5.31232e-18,3,-1.28591e-08,0
-1.77265,-0.495495,5.45487e-18,3,-1.28591e-08,0
-1.77265,-0.489489,5.41416e-18,3,-1.28591e-08,0
-1.77265,-0.483483,4.0724e-18,3,-1.28591e-08,0
-1.77265,-0.477477,4.29189e-18,3,-1.28591e-08,0
-1.77265,-0.471471,5.89916e-18,3,-1.28591e-08,0
-1.77265,-0.465465,5.66367e-18,3,-1.28591e-08,0
-1.77265,-0.459459,3.92461e-18,2.99999,-9.74327e-06,0
-1.77265,-0.453453,6.7001e-18,2.99999,-9.74327e-06,0
-1.77265,-0.447447,6.7001e-18,2.99999,-9.74327e-06,0
-1.77265,-0.441441,8.78176e-18,2.99999,-9.74327e-06,0
-1.77265,-0.435435,6.7001e-18,2.99999,-9.74327e-06,0
-1.77265,-0.429429,6.7001e-18,2.99999,-9.74327e-06,0
-1.77265,-0.423423,5.86021e-18,2.99999,-9.74327e-06,0
-1.77265,-0.417417,5.22986e-18,2.99999,-9.74327e-06,0
-1.77265,-0.411411,7.54855e-18,2.99999,-9.74327e-06,0
-1.77265,-0.405405,7.43862e-18,2.99999,-9.74327e-06,0
-1.77265,-0.399399,7.32869e-18,2.99999,-9.74327e-06,0
-1.77265,-0.393393,7.37099e-18,2.99999,-9.74327e-06,0
-1.77265,-0.387387,6.70012e-18,2.99739,-0.00386166,0
-1.77265,-0.381381,5.31232e-18,2.99739,-0.00386166,0
-1.77265,-0.375375,5.31232e-18,2.99739,-0.00386166,0
-1.77265,-0.369369,8.08787e-18,2.99739,-0.00386166,0
-1.77265,-0.363363,2.53676e-18,2.99739,-0.00386166,0
-1.77265,-0.357357,2.98181e-18,2.99739,-0.00386166,0
-1.77265,-0.351351,4.32196e-18,2.99739,-0.00386166,0
-1.77265,-0.345345,4.05748e-18,2.99739,-0.00386166,0
-1.77265,-0.339339,3.27258e-18,2.99739,-0.00386166,0
-1.77265,-0.333333,5.26325e-18,2.99739,-0.00386166,0
-1.77265,-0.327327,2.80916e-18,2.99739,-0.00386166,0
-1.77265,-0.321321,3.23065e-18,2.89309,-0.155929,0
-1.77265,-0.315315,3.23065e-18,2.89309,-0.155929,0
-1.77265,-0.309309,3.23065e-18,2.89309,-0.155929,0
-1.77265,-0.303303,3.23065e-18,2.89309,-0.155929,0
-1.77265,-0.297297,3.23065e-18,2.89309,-0.155929,0
-1.77265,-0.291291,2.49186e-18,2.89309,-0.155929,0
-1.77265,-0.285285,3.98254e-18,2.89309,-0.155929,0
-1.77265,-0.279279,3.91197e-18,2.89309,-0.155929,0
-1.77265,-0.273273,3.8414e-18,2.89309,-0.155929,0
-1.77265,-0.267267,1.84141e-18,2.89309,-0.155929,0
-1.77265,-0.261261,3.92454e-18,2.60467,-0.615762,0
-1.77265,-0.255255,6.00621e-18,2.60467,-0.615762,0
-1.77265,-0.249249,3.92454e-18,2.60467,-0.615762,0
-1.77265,-0.243243,9.47565e-18,2.60467,-0.615762,0
-1.77265,-0.237237,9.55355e-18,2.60467,-0.615762,0
-1.77265,-0.231231,1.12831e-17,2.60467,-0.615762,0
-1.77265,-0.225225,1.03673e-17,2.60467,-0.615762,0
-1.77265,-0.219219,1.06657e-17,2.60467,-0.615762,0
-1.77265,-0.213213,9.55506e-18,2.60467,-0.615762,0
-1.77265,-0.207207,-9.32656e-19,2.55649,-0.679348,0
-1.77265,-0.201201,-1.62658e-18,2.55649,-0.679348,0
-1.77265,-0.195195,-3.70824e-18,2.55649,-0.679348,0
-1.77265,-0.189189,-3.70824e-18,2.55649,-0.679348,0
-1.77265,-0.183183,-2.04985e-18,2.55649,-0.679348,0
-1.77265,-0.177177,-4.11283e-18,2.55649,-0.679348,0
-1.77265,-0.171171,-3.09667e-18,2.55649,-0.679348,0
-1.77265,-0.165165,-5.20301e-18,2.55649,-0.679348,0
-1.77265,-0.159159,-2.64681e-18,2.55649,-0.679348,0
-1.77265,-0.153153,-2.38798e-19,2.52826,-0.721004,0
-1.77265,-0.147147,-3.70824e-18,2.52826,-0.721004,0
-1.77265,-0.141141,-2.38798e-19,2.52826,-0.721004,0
-1.77265,-0.135135,-2.38798e-19,2.52826,-0.721004,0
-1.77265,-0.129129,1.36837e-18,2.52826,-0.721004,0
-1.77265,-0.123123,1.36943e-18,2.52826,-0.721004,0
-1.77265,-0.117117,-1.75202e-18,2.52826,-0.721004,0
-1.77265,-0.111111,5.69714e-19,2.52826,-0.721004,0
-1.77265,-0.105105,1.14898e-18,2.52936,-0.720497,0
-1.77265,-0.0990991,-9.32687e-19,2.52936,-0.720497,0
-1.77265,-0.0930931,1.14898e-18,2.52936,-0.720497,0
-1.77265,-0.0870871,-3.1107e-18,2.52936,-0.720497,0
-1.77265,-0.0810811,-2.64819e-18,2.52936,-0.720497,0
-1.77265,-0.0750751,-1.57851e-18,2.52936,-0.720497,0
-1.77265,-0.0690691,-3.219e-18,2.52936,-0.720497,0
-1.77265,-0.0630631,-8.56547e-18,2.53286,-0.714085,0
-1.77265,-0.0570571,-9.95325e-18,2.53286,-0.714085,0
-1.77265,-0.0510511,-9.95325e-18,2.53286,-0.714085,0
-1.77265,-0.045045,-1.05639e-17,2.53286,-0.714085,0
-1.77265,-0.039039,-9.94129e-18,2.53286,-0.714085,0
-1.77265,-0.033033,-1.09233e-17,2.53286,-0.714085,0
-1.77265,-0.027027,-1.14929e-17,2.53286,-0.714085,0
-1.77265,-0.021021,-9.95325e-18,2.53219,-0.706984,0
-1.77265,-0.015015,-9.95325e-18,2.53219,-0.706984,0
-1.77265,-0.00900901,-9.95325e-18,2.53219,-0.706984,0
-1.77265,-0.003003,-1.08544e-17,2.53219,-0.706984,0
-1.77265,0.003003,-1.00693e-17,2.53219,-0.706984,0
-1.77265,0.00900901,-9.97805e-18,2.53219,-0.706984,0
-1.77265,0.015015,-1.27288e-17,2.53409,-0.70809,0
-1.77265,0.021021,-1.34227e-17,2.53409,-0.70809,0
-1.77265,0.027027,-1.34227e-17,2.53409,-0.70809,0
-1.77265,0.033033,-1.34833e-17,2.53409,-0.70809,0
-1.77265,0.039039,-1.28367e-17,2.53409,-0.70809,0
-1.77265,0.045045,-1.30354e-17,2.53409,-0.70809,0
-1.77265,0.0510511,-1.55044e-17,2.53509,-0.711225,0
-1.77265,0.0570571,-1.55044e-17,2.53509,-0.711225,0
-1.77265,0.0630631,-1.55044e-17,2.53509,-0.711225,0
-1.77265,0.0690691,-1.15509e-17,2.53509,-0.711225,0
-1.77265,0.0750751,-1.15604e-17,2.53509,-0.711225,0
-1.77265,0.0810811,-1.41165e-17,2.53466,-0.714266,0
-1.77265,0.0870871,-1.61983e-17,2.53466,-0.714266,0
-1.77265,0.0930931,-1.61983e-17,2.53466,-0.714266,0
-1.77265,0.0990991,-1.52874e-17,2.53466,-0.714266,0
-1.77265,0.105105,-1.57764e-17,2.53466,-0.714266,0
-1.77265,0.111111,-1.6892e-17,2.53302,-0.715069,0
-1.77265,0.117117,-1.61983e-17,2.53302,-0.715069,0
-1.77265,0.123123,-1.27288e-17,2.53302,-0.715069,0
-1.77265,0.129129,-1.82906e-17,2.53302,-0.715069,0
-1.77265,0.135135,-1.70009e-17,2.53302,-0.715069,0
-1.77265,0.141141,-1.89738e-17,2.52886,-0.714854,0
-1.77265,0.147147,-1.7586e-17,2.52886,-0.714854,0
-1.77265,0.153153,-1.83938e-17,2.52886,-0.714854,0
-1.77265,0.159159,-1.79239e-17,2.52886,-0.714854,0
-1.77265,0.165165,-2.10554e-17,2.52832,-0.712215,0
-1.77265,0.171171,-2.3831e-17,2.52832,-0.712215,0
-1.77265,0.177177,-2.48189e-17,2.52832,-0.712215,0
-1.77265,0.183183,-2.42109e-17,2.52832,-0.712215,0
-1.77265,0.435435,-3.59153e-18,3.08076,-0.230511,0
-1.77265,0.441441,-3.07101e-18,3.08076,-0.230511,0
-1.77265,0.447447,-2.96146e-18,3.08076,-0.230511,0
-1.77265,0.453453,-7.9136e-18,3.08076,-0.230511,0
-1.77265,0.459459,-8.6222e-18,3.07716,-0.230219,0
-1.77265,0.465465,-8.96907e-18,3.07716,-0.230219,0
-1.77265,0.471471,-7.49839e-18,3.07716,-0.230219,0
-1.77265,0.477477,-8.10187e-18,3.07066,-0.230116,0
-1.77265,0.483483,-8.79566e-18,3.07066,-0.230116,0
-1.77265,0.489489,-8.7956e-18,3.07066,-0.230116,0
-1.77265,0.495495,-8.78829e-18,3.07066,-0.230116,0
-1.77265,0.501502,-1.14218e-17,3.07066,-0.230116,0
-1.77265,0.507508,-1.13978e-17,3.06551,-0.230374,0
-1.77265,0.513514,-1.08773e-17,3.06551,-0.230374,0
-1.77265,0.51952,-1.07889e-17,3.06551,-0.230374,0
-1.77265,0.525526,-1.03489e-17,3.06551,-0.230374,0
-1.77265,0.531532,-9.31615e-18,3.06351,-0.229766,0
-1.77265,0.537538,-7.75482e-18,3.06351,-0.229766,0
-1.77265,0.543544,-6.8874e-18,3.06351,-0.229766,0
-1.77265,0.54955,-6.83213e-18,3.06351,-0.229766,0
-1.77265,0.555556,-5.04972e-18,3.06351,-0.229766,0
-1.77265,0.561562,-5.49975e-18,3.06404,-0.229276,0
-1.77265,0.567568,-6.19357e-18,3.06404,-0.229276,0
-1.77265,0.573574,-6.36698e-18,3.06404,-0.229276,0
-1.77265,0.57958,-6.99885e-18,3.06404,-0.229276,0
-1.77265,0.585586,-4.82476e-18,3.06404,-0.229276,0
-1.77265,0.591592,-5.3263e-18,3.06689,-0.227364,0
-1.77265,0.597598,-3.07109e-18,3.06689,-0.227364,0
-1.77265,0.603604,-5.32617e-18,3.06689,-0.227364,0
-1.77265,0.60961,-4.52713e-18,3.06689,-0.227364,0
-1.77265,0.615616,-3.05056e-18,3.06689,-0.227364,0
-1.77265,0.621622,-1.17558e-18,3.06689,-0.227364,0
-1.77265,0.627628,2.2483e-19,3.06863,-0.230923,0
-1.77265,0.633634,1.95962e-18,3.06863,-0.230923,0
-1.77265,0.63964,2.30663e-18,3.06863,-0.230923,0
-1.77265,0.645646,2.43413e-18,3.06863,-0.230923,0
-1.77265,0.651652,1.61952e-18,3.06863,-0.230923,0
-1.77265,0.657658,-1.91916e-18,3.06863,-0.230923,0
-1.77265,0.663664,2.24819e-19,3.068,-0.235931,0
-1.77265,0.66967,9.18767e-19,3.068,-0.235931,0
-1.77265,0.675676,-9.89369e-19,3.068,-0.235931,0
-1.77265,0.681682,-2.03018e-18,3.068,-0.235931,0
-1.77265,0.687688,-1.976e-18,3.068,-0.235931,0
-1.77265,0.693694,-7.77554e-19,3.068,-0.235931,0
-1.77265,0.6997,2.41582e-18,3.068,-0.235931,0
-1.77265,0.705706,2.24837e-19,3.06677,-0.241929,0
-1.77265,0.711712,3.34739e-18,3.06677,-0.241929,0
-1.77265,0.717718,2.13314e-18,3.06677,-0.241929,0
-1.77265,0.723724,3.04897e-18,3.06677,-0.241929,0
-1.77265,0.72973,1.84489e-18,3.06677,-0.241929,0
-1.77265,0.735736,3.70633e-18,3.06677,-0.241929,0
-1.77265,0.741742,5.13409e-18,3.06677,-0.241929,0
-1.77265,0.747748,1.95955e-18,3.05772,-0.203462,0
-1.77265,0.753754,-1.50985e-18,3.05772,-0.203462,0
-1.77265,0.75976,-8.15907e-19,3.05772,-0.203462,0
-1.77265,0.765766,-1.16281e-18,3.05772,-0.203462,0
-1.77265,0.771772,2.09513e-19,3.05772,-0.203462,0
-1.77265,0.777778,-1.20213e-18,3.05772,-0.203462,0
-1.77265,0.783784,-1.36423e-18,3.05772,-0.203462,0
-1.77265,0.78979,-2.39369e-18,3.05772,-0.203462,0
-1.77265,0.795796,-4.63239e-18,3.05504,-0.192667,0
-1.77265,0.801802,-3.93845e-18,3.05504,-0.192667,0
-1.77265,0.807808,-2.89757e-18,3.05504,-0.192667,0
-1.77265,0.813814,-3.41795e-18,3.05504,-0.192667,0
-1.77265,0.81982,-3.45239e-18,3.05504,-0.192667,0
-1.77265,0.825826,-9.16901e-19,3.05504,-0.192667,0
-1.77265,0.831832,-1.79938e-18,3.05504,-0.192667,0
-1.77265,0.837838,2.67167e-19,3.05504,-0.192667,0
-1.77265,0.843844,3.34732e-18,3.03797,-0.115569,0
-1.77265,0.84985,5.71805e-19,3.03797,-0.115569,0
-1.77265,0.855856,2.30657e-18,3.03797,-0.115569,0
-1.77265,0.861862,-1.21997e-19,3.03797,-0.115569,0
-1.77265,0.867868,-4.68925e-19,3.03797,-0.115569,0
-1.77265,0.873874,-2.37917e-19,3.03797,-0.115569,0
-1.77265,0.87988,-6.89567e-19,3.03797,-0.115569,0
-1.77265,0.885886,1.69939e-18,3.03797,-0.115569,0
-1.77265,0.891892,2.7196e-19,3.03797,-0.115569,0
-1.77265,0.897898,1.26565e-18,3.01906,-0.0524985,0
-1.77265,0.903904,-1.2209e-19,3.01906,-0.0524985,0
-1.77265,0.90991,-1.6833e-18,3.01906,-0.0524985,0
-1.77265,0.915916,-4.68954e-19,3.01906,-0.0524985,0
-1.77265,0.921922,-4.68925e-19,3.01906,-0.0524985,0
-1.77265,0.927928,-5.56858e-19,3.01906,-0.0524985,0
-1.77265,0.933934,6.30344e-19,3.01906,-0.0524985,0
-1.77265,0.93994,1.34289e-19,3.01906,-0.0524985,0
-1.77265,0.945946,-9.68919e-19,3.01906,-0.0524985,0
-1.77265,0.951952,-3.37403e-19,3.01906,-0.0524985,0
-1.77265,0.957958,9.18712e-19,3.00493,-0.0123014,0