/*--------------------------------*- C++ -*----------------------------------*\
  =========                 |
  \\      /  F ield         | OpenFOAM: The Open Source CFD Toolbox
   \\    /   O peration     | Website:  https://openfoam.org
    \\  /    A nd           | Version:  7
     \\/     M anipulation  |
\*---------------------------------------------------------------------------*/
FoamFile
{
    version     2.0;
    format      ascii;
    class       volVectorField;
    location    "7";
    object      U;
}
// * * * * * * * * * * * * * * * * * * * * * * * * * * * * * * * * * * * * * //

dimensions      [0 1 -1 0 0 0 0];

internalField   nonuniform List<vector> 
11200
(
(2.5065 -0.55055 0)
(2.48266 -0.128363 0)
(2.49744 0.0724711 0)
(2.47508 0.320657 0)
(2.49421 0.371764 0)
(2.51012 0.440156 0)
(2.53189 0.459516 0)
(2.56183 0.422564 0)
(2.58549 0.381619 0)
(2.61585 0.324128 0)
(2.65082 0.27841 0)
(2.67011 0.199124 0)
(2.695 0.166176 0)
(2.71866 0.137023 0)
(2.74198 0.154827 0)
(2.73968 0.194926 0)
(2.74178 0.2177 0)
(2.73426 0.200099 0)
(2.73757 0.169184 0)
(2.75978 0.139396 0)
(2.78016 0.145103 0)
(2.79579 0.161864 0)
(2.80312 0.167784 0)
(2.8091 0.164819 0)
(2.82083 0.165501 0)
(2.83287 0.156033 0)
(2.84254 0.138114 0)
(2.84592 0.106904 0)
(2.85348 0.114792 0)
(2.86485 0.107179 0)
(2.65691 -1.42176 0)
(2.66192 -1.39387 0)
(2.64861 -1.23211 0)
(2.58354 -0.930285 0)
(2.53826 -0.697271 0)
(2.46184 -0.354045 0)
(2.47049 -0.206934 0)
(2.4277 0.0563392 0)
(2.45282 0.0677867 0)
(2.46546 0.170881 0)
(2.47061 0.129524 0)
(2.52562 0.134523 0)
(2.53903 0.132037 0)
(2.54709 0.117498 0)
(2.57428 0.139029 0)
(2.58263 0.14669 0)
(2.58247 0.156715 0)
(2.58303 0.140777 0)
(2.61513 0.124261 0)
(2.64534 0.144253 0)
(2.66899 0.155299 0)
(2.68588 0.165588 0)
(2.69505 0.169645 0)
(2.7061 0.151237 0)
(2.72561 0.136529 0)
(2.74298 0.135637 0)
(2.75841 0.129803 0)
(2.76246 0.116627 0)
(2.7746 0.103535 0)
(2.79467 0.0901334 0)
(2.83384 -1.50583 0)
(2.90001 -1.51787 0)
(2.91391 -1.59645 0)
(2.95529 -1.59281 0)
(2.97812 -1.62966 0)
(2.98384 -1.59848 0)
(2.93534 -1.45727 0)
(2.80171 -1.10549 0)
(2.70081 -0.793138 0)
(2.56681 -0.383334 0)
(2.51374 -0.155242 0)
(2.4606 0.0545759 0)
(2.38972 0.22767 0)
(2.39996 0.237554 0)
(2.43718 0.229693 0)
(2.46564 0.195611 0)
(2.48294 0.143887 0)
(2.5107 0.103361 0)
(2.53596 0.124346 0)
(2.55245 0.153731 0)
(2.56384 0.1755 0)
(2.56776 0.162135 0)
(2.57813 0.138321 0)
(2.59509 0.130212 0)
(2.61571 0.135978 0)
(2.63324 0.121985 0)
(2.64878 0.120312 0)
(2.6564 0.11668 0)
(2.67165 0.120455 0)
(2.69621 0.0989121 0)
(2.98026 -1.63083 0)
(3.00386 -1.65029 0)
(3.03847 -1.65456 0)
(3.06864 -1.67101 0)
(3.09483 -1.68435 0)
(3.11592 -1.69628 0)
(3.11611 -1.71533 0)
(3.12027 -1.71948 0)
(3.11639 -1.72087 0)
(3.07465 -1.64492 0)
(2.96914 -1.4128 0)
(2.81333 -1.01013 0)
(2.64541 -0.492896 0)
(2.59201 -0.196992 0)
(2.52525 0.0361261 0)
(2.49992 0.135439 0)
(2.51957 0.126804 0)
(2.52735 0.128208 0)
(2.51794 0.139576 0)
(2.50596 0.149794 0)
(2.49849 0.150809 0)
(2.50666 0.147191 0)
(2.51833 0.137327 0)
(2.53386 0.121567 0)
(2.54485 0.12145 0)
(2.55052 0.130253 0)
(2.55951 0.112852 0)
(2.57282 0.089707 0)
(2.58674 0.0911219 0)
(2.60839 0.0814808 0)
(3.07915 -1.66092 0)
(3.09453 -1.65746 0)
(3.10693 -1.66172 0)
(3.12106 -1.67172 0)
(3.12724 -1.689 0)
(3.12247 -1.70086 0)
(3.11221 -1.70656 0)
(3.10206 -1.70712 0)
(3.09721 -1.70018 0)
(3.09448 -1.69366 0)
(3.08787 -1.68664 0)
(3.08096 -1.6821 0)
(3.06051 -1.63898 0)
(2.95365 -1.33118 0)
(2.7637 -0.723514 0)
(2.60941 -0.175219 0)
(2.63019 0.00708605 0)
(2.54445 0.202652 0)
(2.48785 0.18388 0)
(2.4767 0.164144 0)
(2.48567 0.130482 0)
(2.5081 0.129639 0)
(2.51754 0.117301 0)
(2.52461 0.114953 0)
(2.52514 0.112414 0)
(2.52454 0.101485 0)
(2.52314 0.116058 0)
(2.53801 0.108686 0)
(2.54943 0.103366 0)
(2.56248 0.081835 0)
(3.11983 -1.66087 0)
(3.12078 -1.66038 0)
(3.12354 -1.66235 0)
(3.1283 -1.66933 0)
(3.13028 -1.68241 0)
(3.12276 -1.69329 0)
(3.10796 -1.698 0)
(3.09272 -1.69405 0)
(3.08559 -1.68527 0)
(3.08574 -1.6802 0)
(3.08247 -1.67618 0)
(3.07095 -1.6745 0)
(3.06086 -1.67093 0)
(3.06171 -1.67099 0)
(3.05505 -1.67214 0)
(2.97613 -1.48118 0)
(2.87236 -1.01468 0)
(2.72476 -0.42794 0)
(2.65242 -0.1232 0)
(2.5649 0.0686891 0)
(2.5287 0.0938838 0)
(2.53066 0.12894 0)
(2.52002 0.106338 0)
(2.52799 0.100977 0)
(2.52411 0.0880285 0)
(2.5255 0.0826122 0)
(2.52846 0.0942238 0)
(2.53546 0.0927193 0)
(2.5429 0.0916314 0)
(2.55182 0.0745967 0)
(3.12302 -1.68112 0)
(3.1237 -1.68515 0)
(3.12291 -1.6921 0)
(3.1175 -1.69754 0)
(3.10626 -1.6952 0)
(3.09061 -1.69358 0)
(3.08602 -1.69285 0)
(3.07596 -1.68465 0)
(3.07165 -1.6798 0)
(3.06924 -1.67002 0)
(3.06583 -1.66673 0)
(3.04969 -1.67122 0)
(3.03864 -1.67032 0)
(3.03194 -1.6657 0)
(3.02625 -1.66828 0)
(3.02454 -1.66371 0)
(3.0216 -1.63966 0)
(3.00226 -1.53186 0)
(2.90819 -1.10607 0)
(2.75322 -0.48902 0)
(2.67961 -0.149447 0)
(2.58 0.117243 0)
(2.53611 0.10508 0)
(2.54215 0.133531 0)
(2.53584 0.1053 0)
(2.54257 0.10186 0)
(2.54512 0.092487 0)
(2.54927 0.0837492 0)
(2.55469 0.0768394 0)
(2.56104 0.0543085 0)
(3.10017 -1.69025 0)
(3.09551 -1.69052 0)
(3.09054 -1.68925 0)
(3.08556 -1.68359 0)
(3.08097 -1.68322 0)
(3.07874 -1.68531 0)
(3.07551 -1.68633 0)
(3.06337 -1.67548 0)
(3.06023 -1.67197 0)
(3.05926 -1.66142 0)
(3.05705 -1.65521 0)
(3.04009 -1.65879 0)
(3.02687 -1.66541 0)
(3.02812 -1.64606 0)
(3.02341 -1.6418 0)
(3.01637 -1.64819 0)
(3.01761 -1.60189 0)
(3.02476 -1.58726 0)
(3.03785 -1.57092 0)
(3.03513 -1.52482 0)
(2.95407 -1.17938 0)
(2.79226 -0.53983 0)
(2.77625 -0.225249 0)
(2.63377 0.0875618 0)
(2.56158 0.084006 0)
(2.59719 0.138361 0)
(2.59504 0.0954415 0)
(2.5975 0.0739885 0)
(2.6006 0.0626786 0)
(2.5972 0.0708717 0)
(3.08319 -1.68624 0)
(3.0815 -1.6855 0)
(3.07586 -1.68243 0)
(3.07144 -1.67505 0)
(3.06819 -1.67101 0)
(3.06015 -1.66424 0)
(3.04488 -1.65247 0)
(3.02512 -1.63158 0)
(3.0218 -1.62777 0)
(3.02444 -1.62113 0)
(3.03351 -1.62183 0)
(3.03526 -1.64137 0)
(3.03187 -1.63862 0)
(3.03139 -1.58794 0)
(3.03507 -1.57509 0)
(3.03929 -1.5694 0)
(3.03323 -1.5706 0)
(3.03212 -1.55001 0)
(3.03532 -1.52955 0)
(3.0386 -1.50648 0)
(3.04738 -1.48263 0)
(3.05192 -1.44167 0)
(3.01185 -1.12538 0)
(2.86159 -0.535123 0)
(2.85232 -0.228454 0)
(2.71277 0.0695018 0)
(2.64946 0.0675127 0)
(2.65796 0.130503 0)
(2.65592 0.0991398 0)
(2.65301 0.0546412 0)
(3.06398 -1.64731 0)
(3.05968 -1.63997 0)
(3.0524 -1.6423 0)
(3.0488 -1.63774 0)
(3.04643 -1.61976 0)
(3.04419 -1.60692 0)
(3.0376 -1.60126 0)
(3.03589 -1.59351 0)
(3.04622 -1.57369 0)
(3.05094 -1.56144 0)
(3.05886 -1.53227 0)
(3.05952 -1.51235 0)
(3.05389 -1.52117 0)
(3.04963 -1.53754 0)
(3.06098 -1.49428 0)
(3.06776 -1.48368 0)
(3.06848 -1.47991 0)
(3.06144 -1.4795 0)
(3.05753 -1.46003 0)
(3.04687 -1.45861 0)
(3.03796 -1.45686 0)
(3.04195 -1.41088 0)
(3.06545 -1.37911 0)
(3.07839 -1.33585 0)
(3.06084 -1.04324 0)
(2.91762 -0.524834 0)
(2.92607 -0.2488 0)
(2.77693 0.0538701 0)
(2.70643 0.0624119 0)
(2.71928 0.109447 0)
(3.03093 -1.63425 0)
(3.02934 -1.62682 0)
(3.0293 -1.62155 0)
(3.0329 -1.61245 0)
(3.03732 -1.60598 0)
(3.04099 -1.59608 0)
(3.03816 -1.591 0)
(3.03314 -1.59127 0)
(3.04496 -1.58105 0)
(3.0478 -1.5395 0)
(3.05565 -1.50221 0)
(3.0624 -1.49047 0)
(3.05831 -1.49918 0)
(3.06176 -1.48184 0)
(3.06206 -1.43911 0)
(3.07189 -1.41199 0)
(3.08349 -1.39287 0)
(3.0913 -1.37014 0)
(3.08943 -1.35707 0)
(3.08577 -1.33524 0)
(3.07922 -1.32868 0)
(3.06583 -1.3502 0)
(3.0593 -1.35095 0)
(3.07447 -1.30515 0)
(3.09149 -1.28496 0)
(3.09513 -1.2515 0)
(3.08437 -0.991152 0)
(2.95571 -0.479682 0)
(2.96419 -0.238256 0)
(2.81278 0.0340567 0)
(3.06788 -1.48015 0)
(3.06882 -1.46486 0)
(3.07062 -1.4427 0)
(3.07618 -1.4293 0)
(3.08021 -1.42256 0)
(3.08381 -1.41516 0)
(3.08212 -1.4149 0)
(3.06786 -1.439 0)
(3.06561 -1.47114 0)
(3.06049 -1.45466 0)
(3.06245 -1.42817 0)
(3.06491 -1.41764 0)
(3.0615 -1.42944 0)
(3.06377 -1.41657 0)
(3.06631 -1.38212 0)
(3.06481 -1.37322 0)
(3.06983 -1.35758 0)
(3.08287 -1.32878 0)
(3.09156 -1.30841 0)
(3.09452 -1.30061 0)
(3.10355 -1.27857 0)
(3.10971 -1.25027 0)
(3.09537 -1.24839 0)
(3.07722 -1.26571 0)
(3.08468 -1.23697 0)
(3.107 -1.2066 0)
(3.11257 -1.2023 0)
(3.10072 -1.15742 0)
(3.09906 -0.924771 0)
(2.93981 -0.25544 0)
(3.06275 -1.44171 0)
(3.06105 -1.43633 0)
(3.06357 -1.42267 0)
(3.06872 -1.41979 0)
(3.07405 -1.40633 0)
(3.08094 -1.38444 0)
(3.08825 -1.37015 0)
(3.0869 -1.36317 0)
(3.08199 -1.35961 0)
(3.07854 -1.33435 0)
(3.0865 -1.30398 0)
(3.09145 -1.29571 0)
(3.09101 -1.30147 0)
(3.0911 -1.30716 0)
(3.08616 -1.30283 0)
(3.08101 -1.30227 0)
(3.08126 -1.29606 0)
(3.08735 -1.28131 0)
(3.08997 -1.25294 0)
(3.09295 -1.24201 0)
(3.10066 -1.22598 0)
(3.11563 -1.1998 0)
(3.12342 -1.17644 0)
(3.11521 -1.16719 0)
(3.10111 -1.1749 0)
(3.10491 -1.15025 0)
(3.11815 -1.12997 0)
(3.1272 -1.1281 0)
(3.12186 -1.13257 0)
(3.08608 -0.889966 0)
(3.08763 -1.3066 0)
(3.08671 -1.30389 0)
(3.08843 -1.29716 0)
(3.08951 -1.27384 0)
(3.09423 -1.25643 0)
(3.10274 -1.24338 0)
(3.11013 -1.23995 0)
(3.09453 -1.26091 0)
(3.08625 -1.28432 0)
(3.08391 -1.27223 0)
(3.08731 -1.25306 0)
(3.09113 -1.22516 0)
(3.10623 -1.20063 0)
(3.11227 -1.19145 0)
(3.11 -1.17476 0)
(3.11041 -1.16974 0)
(3.11435 -1.1643 0)
(3.11482 -1.15902 0)
(3.10798 -1.15987 0)
(3.09824 -1.17282 0)
(3.09734 -1.16663 0)
(3.10815 -1.14512 0)
(3.12265 -1.1286 0)
(3.12637 -1.11895 0)
(3.12793 -1.1038 0)
(3.11941 -1.10087 0)
(3.11761 -1.09306 0)
(3.12668 -1.06969 0)
(3.12864 -1.06423 0)
(3.12482 -1.05678 0)
(3.10214 -1.21021 0)
(3.09896 -1.20883 0)
(3.09754 -1.20723 0)
(3.09893 -1.18867 0)
(3.10268 -1.16953 0)
(3.10819 -1.15361 0)
(3.11632 -1.14837 0)
(3.11807 -1.14811 0)
(3.11194 -1.15574 0)
(3.10426 -1.15533 0)
(3.10313 -1.13674 0)
(3.10576 -1.13463 0)
(3.10773 -1.14094 0)
(3.11106 -1.13899 0)
(3.11097 -1.12999 0)
(3.10681 -1.11201 0)
(3.11512 -1.09236 0)
(3.12547 -1.07731 0)
(3.12555 -1.07091 0)
(3.12201 -1.07345 0)
(3.11838 -1.0778 0)
(3.11636 -1.07364 0)
(3.12001 -1.06228 0)
(3.12506 -1.04844 0)
(3.13109 -1.03987 0)
(3.13259 -1.03292 0)
(3.12785 -1.0316 0)
(3.12657 -1.02334 0)
(3.13039 -1.01083 0)
(3.13131 -1.00035 0)
(3.11971 -1.0708 0)
(3.11733 -1.07286 0)
(3.11651 -1.07747 0)
(3.11522 -1.06067 0)
(3.12024 -1.04001 0)
(3.12108 -1.03106 0)
(3.12733 -1.01987 0)
(3.12756 -1.01993 0)
(3.12202 -1.02994 0)
(3.11682 -1.03835 0)
(3.1202 -1.03087 0)
(3.12267 -1.02423 0)
(3.1278 -1.005 0)
(3.13152 -0.995723 0)
(3.12511 -0.997183 0)
(3.11674 -1.01262 0)
(3.11796 -1.01917 0)
(3.12401 -1.01253 0)
(3.12709 -1.00764 0)
(3.13264 -0.993719 0)
(3.13605 -0.978274 0)
(3.13456 -0.975658 0)
(3.12796 -0.977095 0)
(3.1258 -0.971822 0)
(3.12992 -0.969997 0)
(3.13372 -0.962056 0)
(3.13449 -0.95601 0)
(3.13247 -0.956199 0)
(3.13152 -0.949588 0)
(3.13384 -0.938608 0)
(3.13177 -0.936739 0)
(3.12983 -0.94161 0)
(3.127 -0.951995 0)
(3.12454 -0.945705 0)
(3.12815 -0.927527 0)
(3.12967 -0.917824 0)
(3.13286 -0.907509 0)
(3.13267 -0.906329 0)
(3.12938 -0.912767 0)
(3.1267 -0.930206 0)
(3.12886 -0.933472 0)
(3.12949 -0.920787 0)
(3.1306 -0.9161 0)
(3.13145 -0.91567 0)
(3.13185 -0.915059 0)
(3.13341 -0.910659 0)
(3.13712 -0.899221 0)
(3.13681 -0.89701 0)
(3.13372 -0.899509 0)
(3.1324 -0.902116 0)
(3.13561 -0.899188 0)
(3.13754 -0.895413 0)
(3.13809 -0.890158 0)
(3.13716 -0.888512 0)
(3.13458 -0.887501 0)
(3.13402 -0.890253 0)
(3.13484 -0.885742 0)
(3.13534 -0.880923 0)
(3.13347 -0.882608 0)
(3.13296 -0.881705 0)
(3.13724 -0.796798 0)
(3.13602 -0.804394 0)
(3.13247 -0.815798 0)
(3.12941 -0.814831 0)
(3.13326 -0.803572 0)
(3.13529 -0.789561 0)
(3.13687 -0.773546 0)
(3.13604 -0.776958 0)
(3.13166 -0.791112 0)
(3.13308 -0.804664 0)
(3.13454 -0.806448 0)
(3.13585 -0.797236 0)
(3.13481 -0.789588 0)
(3.13818 -0.79485 0)
(3.1358 -0.800504 0)
(3.13417 -0.802281 0)
(3.13432 -0.80307 0)
(3.13582 -0.803152 0)
(3.13788 -0.80202 0)
(3.13666 -0.802502 0)
(3.13401 -0.80542 0)
(3.13435 -0.808227 0)
(3.13648 -0.810205 0)
(3.13779 -0.808368 0)
(3.13767 -0.807486 0)
(3.13554 -0.806674 0)
(3.13552 -0.80877 0)
(3.13577 -0.811054 0)
(3.13485 -0.811538 0)
(3.13277 -0.81314 0)
(3.13342 -0.651482 0)
(3.13419 -0.6577 0)
(3.12627 -0.669943 0)
(3.1244 -0.672049 0)
(3.12782 -0.66963 0)
(3.13272 -0.653628 0)
(3.13412 -0.64257 0)
(3.13452 -0.650685 0)
(3.13254 -0.656512 0)
(3.12612 -0.672477 0)
(3.12396 -0.677599 0)
(3.12978 -0.676405 0)
(3.13426 -0.677518 0)
(3.13419 -0.680672 0)
(3.13343 -0.68296 0)
(3.13186 -0.684917 0)
(3.13069 -0.691798 0)
(3.13092 -0.695925 0)
(3.13181 -0.701573 0)
(3.13291 -0.703079 0)
(3.13191 -0.701671 0)
(3.13257 -0.70925 0)
(3.13307 -0.719299 0)
(3.1322 -0.724668 0)
(3.13255 -0.72905 0)
(3.13256 -0.732722 0)
(3.13215 -0.735968 0)
(3.1327 -0.737413 0)
(3.13231 -0.740732 0)
(3.13078 -0.748917 0)
(3.12085 -0.494218 0)
(3.11971 -0.5195 0)
(3.11153 -0.532442 0)
(3.10571 -0.532463 0)
(3.11328 -0.524257 0)
(3.11894 -0.506101 0)
(3.1223 -0.49844 0)
(3.12152 -0.512051 0)
(3.11909 -0.523905 0)
(3.11292 -0.54257 0)
(3.11256 -0.546294 0)
(3.11973 -0.545822 0)
(3.12276 -0.549105 0)
(3.12247 -0.554224 0)
(3.12194 -0.557728 0)
(3.12299 -0.56445 0)
(3.1218 -0.578115 0)
(3.12078 -0.578983 0)
(3.12216 -0.581917 0)
(3.12482 -0.595138 0)
(3.12488 -0.600973 0)
(3.12494 -0.609263 0)
(3.12584 -0.610595 0)
(3.12603 -0.61612 0)
(3.12485 -0.620037 0)
(3.12528 -0.631404 0)
(3.12631 -0.650626 0)
(3.12496 -0.654492 0)
(3.12595 -0.665167 0)
(3.12682 -0.676968 0)
(3.09895 -0.345374 0)
(3.09409 -0.376527 0)
(3.08558 -0.386258 0)
(3.07552 -0.386748 0)
(3.08946 -0.373294 0)
(3.09588 -0.353991 0)
(3.10142 -0.351292 0)
(3.09856 -0.367965 0)
(3.09744 -0.390391 0)
(3.09014 -0.407736 0)
(3.09384 -0.410342 0)
(3.10129 -0.409624 0)
(3.10438 -0.419234 0)
(3.10318 -0.42387 0)
(3.10395 -0.430734 0)
(3.10646 -0.443533 0)
(3.10472 -0.450397 0)
(3.10549 -0.466477 0)
(3.10781 -0.47265 0)
(3.1105 -0.477762 0)
(3.11205 -0.493518 0)
(3.11157 -0.503184 0)
(3.11279 -0.515083 0)
(3.11502 -0.530156 0)
(3.11586 -0.545789 0)
(3.11696 -0.549925 0)
(3.11781 -0.555843 0)
(3.11815 -0.572568 0)
(3.11848 -0.579985 0)
(3.12034 -0.59493 0)
(3.06658 -0.20986 0)
(3.05712 -0.231952 0)
(3.04407 -0.240548 0)
(3.04288 -0.237046 0)
(3.05827 -0.215256 0)
(3.06435 -0.197471 0)
(3.06853 -0.204197 0)
(3.06666 -0.22642 0)
(3.06491 -0.257592 0)
(3.05887 -0.27194 0)
(3.0682 -0.270553 0)
(3.07571 -0.272436 0)
(3.07814 -0.284933 0)
(3.07637 -0.293392 0)
(3.07751 -0.297206 0)
(3.0825 -0.319605 0)
(3.08209 -0.332446 0)
(3.08257 -0.338112 0)
(3.08767 -0.35527 0)
(3.09031 -0.365512 0)
(3.09202 -0.379246 0)
(3.09342 -0.392806 0)
(3.09624 -0.412423 0)
(3.09768 -0.41688 0)
(3.10018 -0.432669 0)
(3.10236 -0.453733 0)
(3.10362 -0.464069 0)
(3.10626 -0.482273 0)
(3.10749 -0.494999 0)
(3.10953 -0.513101 0)
(3.01254 -0.0742045 0)
(3.00406 -0.0839376 0)
(2.99568 -0.0896136 0)
(3.00454 -0.0770268 0)
(3.01405 -0.0539668 0)
(3.02544 -0.0459138 0)
(3.02658 -0.0666373 0)
(3.02508 -0.0926418 0)
(3.02163 -0.125014 0)
(3.01867 -0.135073 0)
(3.03147 -0.127567 0)
(3.04275 -0.134091 0)
(3.04376 -0.153035 0)
(3.04051 -0.158819 0)
(3.04403 -0.172014 0)
(3.0483 -0.191539 0)
(3.05058 -0.208952 0)
(3.05411 -0.217501 0)
(3.06 -0.232099 0)
(3.06317 -0.248697 0)
(3.06562 -0.267648 0)
(3.06863 -0.281552 0)
(3.07324 -0.299009 0)
(3.07685 -0.31924 0)
(3.07993 -0.334567 0)
(3.08313 -0.349801 0)
(3.08671 -0.373776 0)
(3.08875 -0.384236 0)
(3.09219 -0.403411 0)
(3.09647 -0.433611 0)
(2.95451 0.0743207 0)
(2.94878 0.0648408 0)
(2.94405 0.0591896 0)
(2.94825 0.0663945 0)
(2.95828 0.0823804 0)
(2.97301 0.0882345 0)
(2.97512 0.0721969 0)
(2.97369 0.0459345 0)
(2.97261 0.0129126 0)
(2.97005 0.00072277 0)
(2.98246 0.0077903 0)
(2.99594 -0.000334896 0)
(2.99925 -0.0241204 0)
(2.99669 -0.0314168 0)
(2.99961 -0.0412073 0)
(3.00756 -0.0690661 0)
(3.01127 -0.0856389 0)
(3.01655 -0.0944832 0)
(3.02495 -0.113269 0)
(3.02886 -0.13145 0)
(3.0315 -0.148409 0)
(3.03847 -0.173045 0)
(3.0431 -0.185485 0)
(3.04909 -0.207848 0)
(3.05425 -0.230836 0)
(3.0583 -0.245501 0)
(3.0639 -0.268825 0)
(3.06839 -0.292173 0)
(3.0723 -0.309483 0)
(3.07849 -0.337992 0)
(2.88672 0.234003 0)
(2.88645 0.22134 0)
(2.88482 0.21187 0)
(2.88542 0.209196 0)
(2.89201 0.212648 0)
(2.90216 0.219035 0)
(2.90752 0.212461 0)
(2.91667 0.184737 0)
(2.91629 0.151484 0)
(2.91554 0.141275 0)
(2.91979 0.148706 0)
(2.93527 0.132796 0)
(2.94402 0.102898 0)
(2.94463 0.09572 0)
(2.95147 0.0838383 0)
(2.95975 0.0606565 0)
(2.96517 0.0394694 0)
(2.97188 0.0250234 0)
(2.98077 0.00792855 0)
(2.988 -0.013214 0)
(2.99409 -0.0357556 0)
(3.00028 -0.0534912 0)
(3.00911 -0.0788849 0)
(3.0153 -0.0965505 0)
(3.02274 -0.120679 0)
(3.03 -0.145313 0)
(3.0362 -0.166125 0)
(3.04276 -0.190702 0)
(3.04863 -0.213796 0)
(3.05788 -0.250455 0)
(2.82685 0.353296 0)
(2.8275 0.35144 0)
(2.82728 0.350666 0)
(2.83112 0.340624 0)
(2.83317 0.335472 0)
(2.83633 0.336147 0)
(2.84601 0.327239 0)
(2.85158 0.316428 0)
(2.85684 0.299353 0)
(2.86011 0.285938 0)
(2.86302 0.282542 0)
(2.87371 0.265449 0)
(2.88073 0.247362 0)
(2.88685 0.23195 0)
(2.89535 0.215802 0)
(2.90568 0.192911 0)
(2.91329 0.172898 0)
(2.92133 0.154344 0)
(2.93283 0.128668 0)
(2.94098 0.108743 0)
(2.95108 0.0820551 0)
(2.9596 0.0601093 0)
(2.96903 0.0363481 0)
(2.97851 0.0113666 0)
(2.98808 -0.0147494 0)
(2.99632 -0.0376345 0)
(3.00601 -0.0666542 0)
(3.01424 -0.0917214 0)
(3.02207 -0.116878 0)
(3.03394 -0.157003 0)
(2.81501 0.380521 0)
(2.81514 0.381135 0)
(2.8148 0.381751 0)
(2.8147 0.381243 0)
(2.81462 0.380621 0)
(2.81535 0.379755 0)
(2.81726 0.37761 0)
(2.81853 0.375247 0)
(2.81981 0.371536 0)
(2.8209 0.370533 0)
(2.82268 0.369688 0)
(2.82786 0.363332 0)
(2.83298 0.353721 0)
(2.83669 0.347182 0)
(2.84318 0.335891 0)
(2.85016 0.321842 0)
(2.85854 0.304554 0)
(2.868 0.28575 0)
(2.87855 0.26396 0)
(2.88957 0.238793 0)
(2.90055 0.212598 0)
(2.91238 0.1847 0)
(2.92497 0.155093 0)
(2.93648 0.127613 0)
(2.94921 0.0958403 0)
(2.96035 0.0674449 0)
(2.97206 0.0366799 0)
(2.98276 0.00775105 0)
(2.9928 -0.0205172 0)
(3.00785 -0.064953 0)
(2.82844 0.3647 0)
(2.8281 0.36891 0)
(2.82657 0.367898 0)
(2.82475 0.364948 0)
(2.82351 0.365629 0)
(2.82392 0.36463 0)
(2.82478 0.364405 0)
(2.82485 0.36686 0)
(2.82412 0.369674 0)
(2.82367 0.375391 0)
(2.82263 0.376195 0)
(2.8227 0.372873 0)
(2.82402 0.369616 0)
(2.82428 0.369537 0)
(2.82487 0.370146 0)
(2.82688 0.368846 0)
(2.82902 0.36519 0)
(2.83139 0.361205 0)
(2.83606 0.354272 0)
(2.8425 0.344204 0)
(2.8513 0.328763 0)
(2.86126 0.309574 0)
(2.87363 0.283987 0)
(2.88669 0.255501 0)
(2.9017 0.221426 0)
(2.91567 0.188207 0)
(2.9312 0.150359 0)
(2.94504 0.115755 0)
(2.95843 0.0814207 0)
(2.97758 0.0302853 0)
(2.89395 0.233116 0)
(2.8882 0.250879 0)
(2.88715 0.262137 0)
(2.88673 0.255086 0)
(2.87953 0.260204 0)
(2.87175 0.276803 0)
(2.86938 0.283363 0)
(2.86676 0.287875 0)
(2.86161 0.29955 0)
(2.85473 0.320946 0)
(2.85231 0.327203 0)
(2.85252 0.324313 0)
(2.84279 0.335904 0)
(2.83877 0.347645 0)
(2.83841 0.347477 0)
(2.83565 0.353264 0)
(2.83393 0.358073 0)
(2.83328 0.35852 0)
(2.83403 0.358307 0)
(2.83453 0.357839 0)
(2.83542 0.356998 0)
(2.83731 0.354661 0)
(2.84064 0.350207 0)
(2.84595 0.342151 0)
(2.85473 0.327519 0)
(2.8661 0.306324 0)
(2.88114 0.275105 0)
(2.89687 0.239869 0)
(2.91384 0.200689 0)
(2.93889 0.13922 0)
(2.9748 0.058102 0)
(2.9741 0.0575597 0)
(2.97253 0.061072 0)
(2.9678 0.0725461 0)
(2.96426 0.0838053 0)
(2.9621 0.0845806 0)
(2.95479 0.09578 0)
(2.94896 0.107173 0)
(2.94271 0.121327 0)
(2.93636 0.137286 0)
(2.92914 0.155872 0)
(2.92284 0.16745 0)
(2.91463 0.182407 0)
(2.90062 0.213546 0)
(2.89599 0.224444 0)
(2.88304 0.250715 0)
(2.8753 0.268985 0)
(2.86875 0.283839 0)
(2.85651 0.310443 0)
(2.85441 0.315182 0)
(2.84773 0.328624 0)
(2.84346 0.340039 0)
(2.84236 0.341131 0)
(2.84325 0.341561 0)
(2.84361 0.341555 0)
(2.84522 0.340207 0)
(2.84916 0.33518 0)
(2.85579 0.325401 0)
(2.86624 0.307869 0)
(2.89031 0.258989 0)
(2.99881 0.00255764 0)
(2.99862 0.00298895 0)
(2.99838 0.00339844 0)
(2.99804 0.00409675 0)
(2.99769 0.00493336 0)
(2.99721 0.0058853 0)
(2.9964 0.00721767 0)
(2.99536 0.00901658 0)
(2.99405 0.0115437 0)
(2.99262 0.0144624 0)
(2.9904 0.019583 0)
(2.98843 0.0231333 0)
(2.984 0.0316793 0)
(2.97979 0.0396573 0)
(2.97336 0.0535743 0)
(2.96666 0.0666641 0)
(2.95733 0.0858782 0)
(2.94555 0.111245 0)
(2.93529 0.132513 0)
(2.91859 0.168824 0)
(2.9066 0.194915 0)
(2.89162 0.227664 0)
(2.87641 0.26159 0)
(2.86835 0.280596 0)
(2.85653 0.307418 0)
(2.8522 0.318916 0)
(2.84991 0.327379 0)
(2.84989 0.328045 0)
(2.85067 0.327693 0)
(2.85761 0.31945 0)
(2.99999 2.80255e-05 0)
(2.99998 3.31824e-05 0)
(2.99998 4.00263e-05 0)
(2.99997 5.0825e-05 0)
(2.99997 6.48071e-05 0)
(2.99996 8.33425e-05 0)
(2.99994 0.000108252 0)
(2.99992 0.000151268 0)
(2.99988 0.00020571 0)
(2.99983 0.000303095 0)
(2.99977 0.000428292 0)
(2.99965 0.000638987 0)
(2.99948 0.000923836 0)
(2.99917 0.00150917 0)
(2.99874 0.00228174 0)
(2.998 0.00366693 0)
(2.99681 0.0058487 0)
(2.99494 0.00933671 0)
(2.99192 0.0151935 0)
(2.98742 0.0236648 0)
(2.98055 0.0373144 0)
(2.9709 0.0563887 0)
(2.95813 0.0823223 0)
(2.94188 0.116241 0)
(2.92371 0.154426 0)
(2.90498 0.195944 0)
(2.8871 0.235836 0)
(2.87286 0.269183 0)
(2.86251 0.29376 0)
(2.85844 0.308321 0)
(3 1.63602e-07 0)
(3 1.95439e-07 0)
(3 2.37978e-07 0)
(3 3.01688e-07 0)
(3 3.88351e-07 0)
(3 5.1012e-07 0)
(3 6.8361e-07 0)
(3 9.58206e-07 0)
(3 1.37745e-06 0)
(3 2.03649e-06 0)
(3 3.12306e-06 0)
(3 4.78961e-06 0)
(3 7.8069e-06 0)
(2.99999 1.33482e-05 0)
(2.99999 2.33164e-05 0)
(2.99998 4.24183e-05 0)
(2.99995 7.91078e-05 0)
(2.99991 0.000157489 0)
(2.99982 0.000306865 0)
(2.99963 0.000648499 0)
(2.99926 0.0013047 0)
(2.99844 0.00279499 0)
(2.9969 0.00560729 0)
(2.99377 0.0115156 0)
(2.98836 0.0216947 0)
(2.97871 0.0407509 0)
(2.96543 0.0671482 0)
(2.94521 0.109066 0)
(2.92582 0.150285 0)
(2.89374 0.221574 0)
(3 7.44052e-10 0)
(3 8.90389e-10 0)
(3 1.10902e-09 0)
(3 1.40522e-09 0)
(3 1.82914e-09 0)
(3 2.41353e-09 0)
(3 3.27179e-09 0)
(3 4.58448e-09 0)
(3 6.59455e-09 0)
(3 9.80793e-09 0)
(3 1.50236e-08 0)
(3 2.36136e-08 0)
(3 3.88585e-08 0)
(3 6.78562e-08 0)
(3 1.2181e-07 0)
(3 2.30104e-07 0)
(3 4.57447e-07 0)
(3 9.60084e-07 0)
(3 2.10688e-06 0)
(3 4.91047e-06 0)
(2.99999 1.18764e-05 0)
(2.99998 3.06765e-05 0)
(2.99995 8.00411e-05 0)
(2.99987 0.000222107 0)
(2.99966 0.000594841 0)
(2.99907 0.00167303 0)
(2.99769 0.00418901 0)
(2.99412 0.0109689 0)
(2.98824 0.0221771 0)
(2.96558 0.0691531 0)
(3 2.59634e-12 0)
(3 3.12837e-12 0)
(3 3.94573e-12 0)
(3 5.03991e-12 0)
(3 6.64009e-12 0)
(3 8.83018e-12 0)
(3 1.21232e-11 0)
(3 1.69865e-11 0)
(3 2.46375e-11 0)
(3 3.64233e-11 0)
(3 5.64199e-11 0)
(3 8.80813e-11 0)
(3 1.47365e-10 0)
(3 2.54123e-10 0)
(3 4.65234e-10 0)
(3 8.74024e-10 0)
(3 1.78893e-09 0)
(3 3.75727e-09 0)
(3 8.6382e-09 0)
(3 2.03978e-08 0)
(3 5.32561e-08 0)
(3 1.42288e-07 0)
(3 4.23668e-07 0)
(3 1.27454e-06 0)
(3 4.28156e-06 0)
(2.99999 1.42904e-05 0)
(2.99996 5.17203e-05 0)
(2.99985 0.000183641 0)
(2.99955 0.00058606 0)
(2.99616 0.00464081 0)
(2.57978 -1.3937 0)
(2.63258 -1.40097 0)
(2.78756 -1.46676 0)
(2.94106 -1.61964 0)
(3.06265 -1.65189 0)
(3.11727 -1.65487 0)
(3.12206 -1.67915 0)
(3.1036 -1.69021 0)
(3.08681 -1.68677 0)
(3.06858 -1.65261 0)
(3.03636 -1.6359 0)
(3.06721 -1.49309 0)
(3.07028 -1.44885 0)
(3.0881 -1.31284 0)
(3.10375 -1.21196 0)
(3.12047 -1.07002 0)
(3.13187 -0.931872 0)
(3.13701 -0.789331 0)
(3.13228 -0.637951 0)
(3.11781 -0.481842 0)
(3.09265 -0.326218 0)
(3.05769 -0.174101 0)
(3.01613 -0.0380155 0)
(2.95585 0.107286 0)
(2.87876 0.259733 0)
(2.82287 0.363259 0)
(2.81393 0.380231 0)
(2.83012 0.357289 0)
(2.90257 0.213882 0)
(2.97873 0.0476014 0)
(2.99907 0.0020003 0)
(2.99999 2.4331e-05 0)
(3 1.42203e-07 0)
(3 6.39268e-10 0)
(3 2.21575e-12 0)
(2.58643 -1.39695 0)
(2.6433 -1.40267 0)
(2.80307 -1.48644 0)
(2.9582 -1.63659 0)
(3.071 -1.6563 0)
(3.10988 -1.65658 0)
(3.11558 -1.67556 0)
(3.10251 -1.68925 0)
(3.08901 -1.68086 0)
(3.07316 -1.66663 0)
(3.05086 -1.61067 0)
(3.06796 -1.51313 0)
(3.08349 -1.42676 0)
(3.09817 -1.28154 0)
(3.11014 -1.1514 0)
(3.11746 -0.993388 0)
(3.11997 -0.846904 0)
(3.12006 -0.704208 0)
(3.11173 -0.556539 0)
(3.09226 -0.404722 0)
(3.06231 -0.252303 0)
(3.02357 -0.102334 0)
(2.98265 0.0337459 0)
(2.92478 0.172775 0)
(2.85868 0.298142 0)
(2.81547 0.377213 0)
(2.81267 0.38044 0)
(2.83437 0.342771 0)
(2.9147 0.186353 0)
(2.98607 0.0312103 0)
(2.99951 0.00104568 0)
(3 9.95978e-06 0)
(3 5.93647e-08 0)
(3 2.94677e-10 0)
(3 1.0802e-12 0)
(2.58565 -1.39852 0)
(2.64181 -1.40096 0)
(2.79661 -1.4924 0)
(2.95618 -1.64143 0)
(3.06688 -1.66138 0)
(3.09961 -1.66079 0)
(3.10677 -1.66655 0)
(3.10714 -1.67788 0)
(3.0879 -1.68299 0)
(3.05743 -1.69238 0)
(3.06061 -1.56672 0)
(3.06417 -1.5206 0)
(3.09634 -1.34969 0)
(3.09848 -1.20683 0)
(3.09869 -1.08742 0)
(3.10964 -0.960468 0)
(3.11822 -0.844848 0)
(3.12032 -0.715217 0)
(3.11273 -0.576953 0)
(3.09292 -0.423809 0)
(3.06217 -0.266222 0)
(3.01901 -0.102161 0)
(2.96202 0.0587838 0)
(2.90376 0.195507 0)
(2.8444 0.314795 0)
(2.81155 0.38278 0)
(2.81214 0.3818 0)
(2.84511 0.322389 0)
(2.9284 0.162031 0)
(2.99026 0.0228111 0)
(2.99972 0.000623723 0)
(3 5.36848e-06 0)
(3 3.09098e-08 0)
(3 1.50896e-10 0)
(3 5.46344e-13 0)
(2.57701 -1.39682 0)
(2.63896 -1.40259 0)
(2.79278 -1.51196 0)
(2.95865 -1.64168 0)
(3.06481 -1.66204 0)
(3.09482 -1.65927 0)
(3.10115 -1.65778 0)
(3.1014 -1.66989 0)
(3.0845 -1.68392 0)
(3.04526 -1.69136 0)
(3.07156 -1.53634 0)
(3.08 -1.47303 0)
(3.0937 -1.31259 0)
(3.1003 -1.20994 0)
(3.10616 -1.12163 0)
(3.1151 -0.999898 0)
(3.11876 -0.879522 0)
(3.11887 -0.744607 0)
(3.11015 -0.59917 0)
(3.0901 -0.443925 0)
(3.05876 -0.285581 0)
(3.01708 -0.12551 0)
(2.96324 0.0364513 0)
(2.90143 0.181686 0)
(2.83955 0.318693 0)
(2.81011 0.384662 0)
(2.81306 0.385821 0)
(2.85606 0.311368 0)
(2.94023 0.141414 0)
(2.99329 0.0160083 0)
(2.99984 0.000359473 0)
(3 2.84286e-06 0)
(3 1.59283e-08 0)
(3 7.66173e-11 0)
(3 2.72975e-13 0)
(2.55403 -1.39143 0)
(2.63232 -1.40486 0)
(2.79587 -1.52616 0)
(2.96393 -1.64092 0)
(3.06957 -1.66282 0)
(3.09482 -1.65688 0)
(3.09647 -1.65756 0)
(3.09422 -1.67044 0)
(3.07438 -1.68314 0)
(3.04769 -1.67411 0)
(3.08373 -1.49847 0)
(3.0742 -1.46775 0)
(3.09016 -1.3517 0)
(3.09656 -1.24165 0)
(3.10296 -1.14208 0)
(3.11602 -1.00814 0)
(3.1292 -0.86831 0)
(3.13408 -0.719341 0)
(3.12679 -0.560366 0)
(3.10407 -0.402467 0)
(3.06838 -0.24547 0)
(3.02122 -0.0981793 0)
(2.96259 0.0462363 0)
(2.89849 0.198009 0)
(2.83394 0.339061 0)
(2.80862 0.386674 0)
(2.81579 0.385252 0)
(2.86055 0.313089 0)
(2.94886 0.119646 0)
(2.99521 0.0109275 0)
(2.99991 0.000200832 0)
(3 1.47583e-06 0)
(3 8.09699e-09 0)
(3 3.84594e-11 0)
(3 1.34706e-13 0)
(2.53749 -1.38278 0)
(2.62719 -1.41151 0)
(2.79983 -1.53969 0)
(2.97756 -1.64329 0)
(3.07813 -1.66497 0)
(3.09784 -1.65991 0)
(3.09509 -1.66632 0)
(3.09133 -1.6733 0)
(3.06397 -1.68 0)
(3.05421 -1.65517 0)
(3.08588 -1.52947 0)
(3.07352 -1.46579 0)
(3.08608 -1.36086 0)
(3.10526 -1.2364 0)
(3.12559 -1.11451 0)
(3.14277 -0.954613 0)
(3.14917 -0.788259 0)
(3.14059 -0.627251 0)
(3.11879 -0.463394 0)
(3.08987 -0.306286 0)
(3.05167 -0.153235 0)
(3.00982 -0.0128254 0)
(2.95624 0.12098 0)
(2.88104 0.264484 0)
(2.82166 0.366702 0)
(2.80672 0.388733 0)
(2.81548 0.374215 0)
(2.86569 0.288737 0)
(2.9596 0.0900388 0)
(2.99703 0.0064641 0)
(2.99995 0.000102861 0)
(3 7.3027e-07 0)
(3 3.98749e-09 0)
(3 1.88528e-11 0)
(3 6.49849e-14 0)
(2.53061 -1.37578 0)
(2.62211 -1.42186 0)
(2.80452 -1.55889 0)
(2.99601 -1.64357 0)
(3.08564 -1.66613 0)
(3.10481 -1.66722 0)
(3.10208 -1.67752 0)
(3.08981 -1.67585 0)
(3.0536 -1.68668 0)
(3.05813 -1.61365 0)
(3.06947 -1.56138 0)
(3.08456 -1.44299 0)
(3.10835 -1.33408 0)
(3.12996 -1.17731 0)
(3.13097 -1.02706 0)
(3.12436 -0.859051 0)
(3.11622 -0.703423 0)
(3.10708 -0.557981 0)
(3.08971 -0.410279 0)
(3.05949 -0.256216 0)
(3.01882 -0.103201 0)
(2.96667 0.0475494 0)
(2.91169 0.185185 0)
(2.85302 0.303254 0)
(2.81271 0.378754 0)
(2.80589 0.39067 0)
(2.81945 0.36218 0)
(2.89389 0.233318 0)
(2.97293 0.0632941 0)
(2.99836 0.00377376 0)
(2.99998 5.1661e-05 0)
(3 3.55048e-07 0)
(3 1.92502e-09 0)
(3 9.05896e-12 0)
(3 3.02073e-14 0)
(2.52563 -1.37056 0)
(2.6187 -1.42663 0)
(2.80421 -1.56567 0)
(3.00206 -1.64733 0)
(3.09952 -1.66707 0)
(3.11465 -1.67919 0)
(3.11084 -1.68853 0)
(3.08122 -1.68287 0)
(3.04538 -1.6918 0)
(3.06411 -1.58101 0)
(3.05965 -1.56542 0)
(3.09435 -1.4129 0)
(3.11015 -1.27106 0)
(3.10136 -1.095 0)
(3.10661 -0.974338 0)
(3.11644 -0.851811 0)
(3.11956 -0.725796 0)
(3.11292 -0.589752 0)
(3.09473 -0.444143 0)
(3.064 -0.287207 0)
(3.02293 -0.129613 0)
(2.96952 0.0318368 0)
(2.90802 0.18044 0)
(2.84815 0.301817 0)
(2.80911 0.383325 0)
(2.80549 0.393532 0)
(2.82738 0.354499 0)
(2.90633 0.217427 0)
(2.98048 0.049987 0)
(2.99907 0.00230873 0)
(2.99999 2.72382e-05 0)
(3 1.76281e-07 0)
(3 9.33763e-10 0)
(3 4.3303e-12 0)
(3 1.31539e-14 0)
(2.52043 -1.36489 0)
(2.61179 -1.42295 0)
(2.80117 -1.56287 0)
(3.00525 -1.64775 0)
(3.10975 -1.6685 0)
(3.124 -1.69053 0)
(3.11375 -1.69793 0)
(3.06862 -1.70442 0)
(3.03881 -1.67734 0)
(3.06373 -1.57697 0)
(3.07218 -1.52265 0)
(3.10229 -1.35809 0)
(3.10292 -1.23098 0)
(3.10517 -1.10592 0)
(3.1097 -1.01331 0)
(3.1132 -0.886342 0)
(3.11433 -0.753202 0)
(3.10872 -0.607788 0)
(3.0919 -0.453319 0)
(3.06102 -0.292905 0)
(3.01867 -0.13429 0)
(2.96497 0.0202504 0)
(2.90405 0.170538 0)
(2.8433 0.311605 0)
(2.80666 0.388886 0)
(2.80754 0.395409 0)
(2.83318 0.362501 0)
(2.911 0.2195 0)
(2.98401 0.0400611 0)
(2.99939 0.0014355 0)
(2.99999 1.42946e-05 0)
(3 8.77672e-08 0)
(3 4.53314e-10 0)
(3 2.05851e-12 0)
(3 4.94383e-15 0)
(2.51457 -1.35765 0)
(2.60233 -1.40827 0)
(2.79417 -1.55404 0)
(3.01302 -1.64044 0)
(3.11659 -1.66856 0)
(3.12917 -1.69926 0)
(3.11913 -1.71954 0)
(3.07067 -1.72167 0)
(3.04086 -1.64964 0)
(3.06433 -1.5727 0)
(3.07352 -1.48382 0)
(3.09419 -1.36811 0)
(3.10549 -1.25984 0)
(3.1029 -1.13608 0)
(3.10693 -1.02929 0)
(3.12146 -0.880704 0)
(3.13213 -0.726918 0)
(3.1292 -0.56188 0)
(3.11005 -0.391491 0)
(3.07384 -0.225481 0)
(3.0256 -0.0669232 0)
(2.96815 0.0745852 0)
(2.90096 0.218128 0)
(2.83286 0.34796 0)
(2.80431 0.393462 0)
(2.80716 0.392332 0)
(2.83679 0.355252 0)
(2.92204 0.175355 0)
(2.989 0.0247188 0)