/*--------------------------------*- C++ -*----------------------------------*\
  =========                 |
  \\      /  F ield         | OpenFOAM: The Open Source CFD Toolbox
   \\    /   O peration     | Website:  https://openfoam.org
    \\  /    A nd           | Version:  7
     \\/     M anipulation  |
\*---------------------------------------------------------------------------*/
FoamFile
{
    version     2.0;
    format      ascii;
    class       volScalarField;
    location    "5.5";
    object      p;
}
// * * * * * * * * * * * * * * * * * * * * * * * * * * * * * * * * * * * * * //

dimensions      [1 -1 -2 0 0 0 0];

internalField   nonuniform List<scalar> 
60000
(
0.0955532
0.168589
0.209451
0.248061
0.304206
0.358224
0.402325
0.446138
0.62499
0.887111
0.922119
0.871929
0.806293
0.752836
0.708558
0.670022
0.636614
0.610975
0.593735
0.582643
0.574475
0.567678
0.563678
0.564599
0.568238
0.57301
0.576909
0.579762
0.582059
0.584917
0.588426
0.591011
0.592416
0.595573
0.601282
0.606611
0.609944
0.611366
0.611805
0.611942
0.611835
0.612144
0.612989
0.61464
0.615194
0.615223
0.614175
0.613858
0.615095
0.618707
0.624379
0.630487
0.636262
0.641224
0.646071
0.650145
0.652952
0.652539
0.651545
0.651669
0.652445
0.652889
0.653957
0.656859
0.662948
0.672309
0.679239
0.681459
0.680332
0.677208
0.676495
0.676757
0.679506
0.685054
0.69119
0.697285
0.700068
0.701595
0.707643
0.715949
0.725015
0.724135
0.726407
0.736259
0.754528
0.774085
0.77243
0.773885
0.777812
0.781463
0.794148
0.802115
0.804229
0.815858
0.816721
0.818638
0.823806
0.825878
0.827237
0.827781
0.0230802
0.0230802
0.0230772
0.0230697
0.0246837
0.0304203
0.042036
0.0720275
0.43876
0.742081
0.810132
0.784148
0.729099
0.689275
0.638252
0.592543
0.563016
0.551632
0.547417
0.545666
0.544664
0.546688
0.551499
0.559471
0.568009
0.575606
0.581656
0.588231
0.593647
0.598806
0.601669
0.602561
0.602154
0.601046
0.600362
0.600413
0.600755
0.601426
0.60175
0.601834
0.60216
0.603327
0.605468
0.609194
0.61357
0.6178
0.620697
0.623214
0.626546
0.632122
0.638041
0.643761
0.647687
0.650489
0.652918
0.655046
0.656487
0.655639
0.652822
0.650788
0.651583
0.6546
0.660391
0.668538
0.675824
0.68026
0.682353
0.682623
0.67987
0.676144
0.675994
0.6791
0.685738
0.69212
0.696382
0.701887
0.703646
0.706956
0.714296
0.721111
0.728368
0.727644
0.732283
0.745269
0.76345
0.778356
0.77531
0.775701
0.779711
0.786842
0.800327
0.804326
0.807563
0.818264
0.818055
0.820103
0.826144
0.828275
0.828544
0.828797
0.0231609
0.0231775
0.0231899
0.0232038
0.0231853
0.0231622
0.0231468
0.0231015
0.031177
0.122601
0.422356
0.541297
0.61581
0.642223
0.617019
0.602341
0.597523
0.590304
0.575036
0.559795
0.55942
0.57079
0.584807
0.595269
0.595142
0.59595
0.599103
0.604038
0.606879
0.61077
0.614396
0.616905
0.616969
0.616294
0.617153
0.619003
0.622565
0.626127
0.629383
0.633014
0.636078
0.638805
0.640801
0.643404
0.646446
0.650627
0.654519
0.658267
0.661336
0.663307
0.663288
0.663689
0.66139
0.659309
0.657303
0.654891
0.653556
0.652718
0.652233
0.65211
0.65538
0.663795
0.673267
0.681507
0.684213
0.683807
0.683872
0.681167
0.676624
0.67577
0.677627
0.685005
0.694748
0.698574
0.701809
0.704458
0.708022
0.71366
0.721288
0.725314
0.73054
0.731631
0.738922
0.757124
0.772919
0.780492
0.777517
0.777666
0.781506
0.791939
0.805343
0.806825
0.81196
0.820629
0.819079
0.821521
0.82827
0.829861
0.829301
0.830733
0.0232181
0.0232184
0.0232196
0.0232187
0.0232238
0.023235
0.0232456
0.0232761
0.0232422
0.0231747
0.0278594
0.0551211
0.181809
0.398033
0.496729
0.559067
0.594519
0.603058
0.585968
0.575087
0.573771
0.57699
0.582818
0.589583
0.589818
0.592606
0.599058
0.605137
0.610054
0.615959
0.624829
0.624952
0.613924
0.605351
0.604051
0.608874
0.614152
0.619759
0.624644
0.629497
0.63487
0.638958
0.640637
0.640252
0.639117
0.640434
0.644634
0.648269
0.64848
0.644747
0.640377
0.637979
0.638859
0.641958
0.646066
0.649886
0.654184
0.658343
0.663629
0.668131
0.675174
0.682515
0.688935
0.693548
0.691811
0.687018
0.680508
0.673157
0.673263
0.677243
0.686088
0.695559
0.701992
0.703783
0.705929
0.70826
0.7141
0.721953
0.727415
0.728658
0.731389
0.736082
0.749019
0.767861
0.780223
0.781694
0.778968
0.779318
0.789359
0.797483
0.808866
0.809645
0.817391
0.822246
0.820345
0.823531
0.829179
0.830672
0.82999
0.832425
0.0232934
0.0233117
0.0233305
0.0233464
0.0233669
0.0233827
0.0234051
0.0234219
0.0234349
0.0234851
0.0234137
0.0233784
0.0233029
0.0334477
0.0636816
0.12279
0.207454
0.368549
0.475656
0.545688
0.581372
0.591886
0.592331
0.586267
0.58464
0.589326
0.590488
0.591235
0.593683
0.598954
0.605702
0.61543
0.618535
0.619536
0.61897
0.622168
0.626134
0.630541
0.640576
0.63934
0.633497
0.62949
0.626404
0.626733
0.634322
0.643623
0.652235
0.658104
0.66196
0.66285
0.664559
0.666664
0.672823
0.678148
0.680641
0.681381
0.683872
0.6866
0.69132
0.692675
0.693902
0.689551
0.687716
0.681598
0.67728
0.674144
0.673349
0.675383
0.681315
0.690064
0.698798
0.705091
0.708031
0.708927
0.709918
0.713525
0.721133
0.729575
0.731111
0.731287
0.73344
0.742857
0.763475
0.778439
0.782688
0.781197
0.780032
0.785352
0.796813
0.802459
0.811624
0.813382
0.822737
0.823231
0.821534
0.825524
0.831081
0.831799
0.830911
0.836659
0.0235512
0.0235662
0.0235765
0.0235833
0.0235883
0.0235927
0.0235933
0.0235896
0.0235888
0.0235793
0.0235754
0.0235687
0.0235751
0.0234928
0.0234025
0.0233354
0.0232129
0.0347107
0.0717664
0.142438
0.229744
0.318686
0.401091
0.478746
0.547703
0.581825
0.592774
0.597893
0.599065
0.60825
0.609849
0.603953
0.605743
0.611268
0.612351
0.611978
0.611427
0.615955
0.627024
0.637748
0.638691
0.637542
0.637428
0.637483
0.645666
0.656349
0.655349
0.642782
0.638174
0.644492
0.658374
0.666552
0.668197
0.668552
0.669403
0.672403
0.675025
0.678891
0.68357
0.685895
0.68417
0.681119
0.678664
0.679343
0.683349
0.688914
0.695726
0.703558
0.70971
0.713656
0.713704
0.710168
0.707577
0.71036
0.71589
0.723752
0.730442
0.736563
0.73376
0.731445
0.737392
0.754614
0.77839
0.784509
0.782062
0.778941
0.781561
0.793279
0.802404
0.806375
0.814058
0.817559
0.826578
0.824808
0.822343
0.827306
0.83233
0.832192
0.832385
0.840164
0.0236984
0.0237003
0.0236996
0.023698
0.0236924
0.0236856
0.0236688
0.023654
0.0236328
0.0236169
0.023596
0.0235745
0.0235388
0.0235025
0.0234695
0.0234344
0.0234162
0.0233243
0.0232383
0.0230787
0.0233541
0.0312877
0.0577052
0.113705
0.203632
0.305188
0.392084
0.467871
0.551424
0.591111
0.600371
0.60431
0.599852
0.616327
0.624249
0.624383
0.616384
0.618903
0.630489
0.630713
0.628195
0.623696
0.625936
0.632588
0.639939
0.645375
0.651143
0.651455
0.651272
0.657298
0.667553
0.676822
0.675141
0.659245
0.658407
0.668677
0.680144
0.68416
0.687073
0.693307
0.698517
0.700014
0.696511
0.697816
0.698964
0.697328
0.693118
0.691921
0.69292
0.69593
0.701353
0.709477
0.717151
0.725855
0.733487
0.732987
0.730208
0.727043
0.727663
0.734822
0.753507
0.773294
0.79202
0.786984
0.779266
0.780066
0.790456
0.802812
0.807423
0.809925
0.816817
0.82326
0.829306
0.825
0.824441
0.831379
0.833062
0.832692
0.83369
0.843456
0.0237415
0.0237279
0.0237131
0.0236939
0.0236752
0.023649
0.0236158
0.0235771
0.0235394
0.0235034
0.0234633
0.0234194
0.0233675
0.0233166
0.0232632
0.0232141
0.0231601
0.0231104
0.0230582
0.0230191
0.0229837
0.0228919
0.0227857
0.0227189
0.0225972
0.0290277
0.0534147
0.105104
0.196352
0.304807
0.394159
0.455664
0.527371
0.598446
0.621137
0.626028
0.603923
0.602872
0.63476
0.643979
0.636348
0.619487
0.624457
0.642549
0.653945
0.648888
0.635739
0.639053
0.646692
0.657035
0.662583
0.662061
0.668313
0.670937
0.669982
0.672977
0.679388
0.690163
0.687876
0.678749
0.679026
0.685338
0.688326
0.688189
0.692965
0.697834
0.701444
0.703929
0.71387
0.724738
0.732729
0.73618
0.735755
0.731426
0.725179
0.725115
0.727837
0.736384
0.749959
0.770322
0.794125
0.797906
0.785209
0.775768
0.777429
0.791893
0.809114
0.811972
0.802875
0.80915
0.821485
0.829562
0.825211
0.825146
0.832725
0.839242
0.837026
0.835124
0.834293
0.841046
0.0235848
0.0235549
0.02352
0.0234813
0.0234447
0.0234037
0.0233599
0.0233121
0.0232689
0.0232237
0.0231805
0.0231325
0.0230848
0.0230355
0.0229905
0.0229488
0.0229123
0.0228825
0.0228594
0.0228482
0.0228341
0.0228416
0.0228496
0.0228883
0.0229308
0.0229125
0.022882
0.0229154
0.0228491
0.0284547
0.0522479
0.0991409
0.179045
0.28579
0.384024
0.452958
0.504781
0.562059
0.627667
0.655608
0.640621
0.603005
0.617478
0.643999
0.659858
0.642298
0.626669
0.63285
0.654004
0.671355
0.674369
0.664066
0.654213
0.665134
0.671811
0.67196
0.671624
0.676656
0.687666
0.691206
0.690322
0.691403
0.697602
0.700156
0.686909
0.682455
0.692359
0.704905
0.710558
0.720371
0.728424
0.73168
0.72773
0.729737
0.735088
0.739947
0.746631
0.757786
0.771105
0.783387
0.781758
0.777526
0.775929
0.782638
0.796551
0.811687
0.806405
0.803745
0.807921
0.824693
0.829765
0.821921
0.822233
0.832664
0.84162
0.837468
0.83502
0.836975
0.837174
0.8455
0.0232403
0.0232123
0.0231789
0.023145
0.0231105
0.0230793
0.0230505
0.0230232
0.0229963
0.0229697
0.0229452
0.0229193
0.0228969
0.0228739
0.022859
0.0228472
0.02285
0.0228541
0.0228757
0.0228961
0.0229374
0.022976
0.0230319
0.0230778
0.0231316
0.0232056
0.0232839
0.0233642
0.0234433
0.0235351
0.0234867
0.0234748
0.023389
0.0264764
0.0454569
0.0886055
0.160956
0.25352
0.35626
0.441883
0.502439
0.550385
0.600162
0.640765
0.675845
0.645132
0.630387
0.637062
0.662011
0.673346
0.663495
0.649082
0.651792
0.672938
0.683203
0.681799
0.679413
0.679475
0.675402
0.682971
0.683987
0.684283
0.686723
0.690972
0.695658
0.694567
0.70002
0.710983
0.723471
0.720872
0.718664
0.722435
0.726589
0.727183
0.739282
0.749274
0.754739
0.762042
0.777414
0.788762
0.787794
0.783747
0.78574
0.794937
0.805348
0.80332
0.805714
0.817022
0.830505
0.838415
0.828187
0.826422
0.832959
0.839938
0.83769
0.835564
0.834811
0.839175
0.841911
0.853055
0.0230479
0.0230365
0.0230273
0.0230178
0.0230046
0.0229958
0.0229889
0.0229855
0.0229809
0.0229804
0.0229811
0.0229872
0.0229909
0.0229996
0.0230102
0.0230319
0.0230602
0.0231016
0.0231498
0.0232028
0.0232595
0.0233209
0.0233868
0.0234401
0.0235142
0.0235834
0.02366
0.0237166
0.0237971
0.0238326
0.0238591
0.0238736
0.0238854
0.0238952
0.0238275
0.0237593
0.0236082
0.0243078
0.0363385
0.0718117
0.137349
0.234354
0.336578
0.431031
0.510276
0.564984
0.612366
0.638504
0.668401
0.678074
0.663145
0.656697
0.663084
0.677076
0.678436
0.671685
0.669703
0.671814
0.677031
0.68731
0.689293
0.692378
0.693085
0.692068
0.690787
0.695895
0.702034
0.707212
0.71496
0.725794
0.727204
0.727274
0.730162
0.738655
0.738283
0.740409
0.751061
0.767945
0.779274
0.788342
0.791727
0.788469
0.790416
0.803131
0.809359
0.815524
0.820725
0.823492
0.822417
0.822316
0.826337
0.831176
0.837405
0.839532
0.841316
0.839479
0.840577
0.846617
0.849251
0.852408
0.0231668
0.0231696
0.0231739
0.0231788
0.0231849
0.0231905
0.0231968
0.0232047
0.0232171
0.0232341
0.0232533
0.0232727
0.0232915
0.0233135
0.0233379
0.0233709
0.0234059
0.0234538
0.0235076
0.0235613
0.0236102
0.0236697
0.0237142
0.02376
0.0238093
0.0238662
0.0239026
0.0239373
0.0239624
0.0239672
0.0239647
0.0239379
0.0239153
0.0238757
0.0238435
0.0237983
0.0237528
0.023699
0.0235915
0.0234973
0.0234473
0.0233821
0.0322808
0.0629157
0.123343
0.223651
0.337842
0.445665
0.523073
0.58679
0.631356
0.661376
0.675793
0.683754
0.67886
0.670818
0.673832
0.678867
0.678761
0.682768
0.68478
0.690493
0.688408
0.688143
0.69663
0.708639
0.715432
0.716363
0.717635
0.716243
0.719724
0.720346
0.723707
0.733312
0.746627
0.751456
0.759863
0.775903
0.788254
0.785204
0.773861
0.778011
0.792493
0.803611
0.810207
0.808569
0.817163
0.831584
0.836406
0.834808
0.832541
0.837271
0.842475
0.843856
0.840255
0.839475
0.844737
0.852356
0.848364
0.850054
0.0233842
0.0233959
0.023409
0.0234229
0.0234379
0.0234515
0.0234673
0.0234852
0.0235097
0.0235382
0.0235702
0.0235986
0.0236265
0.0236521
0.023683
0.0237142
0.0237478
0.0237897
0.0238396
0.0238783
0.0239169
0.0239524
0.0239791
0.0240009
0.0240304
0.0240522
0.0240565
0.0240578
0.0240479
0.024029
0.0239924
0.0239546
0.0239079
0.0238685
0.0238371
0.0237986
0.0237581
0.0237045
0.0236734
0.0236638
0.0236848
0.0237219
0.0237384
0.0237804
0.0238914
0.0239365
0.0320547
0.0652337
0.129398
0.229784
0.350701
0.468068
0.55183
0.598863
0.652002
0.67041
0.688104
0.691683
0.683787
0.681456
0.680236
0.687371
0.688726
0.689491
0.701345
0.712172
0.715247
0.712226
0.713181
0.718085
0.723289
0.723498
0.731453
0.740739
0.742089
0.748781
0.759964
0.772635
0.780247
0.785494
0.78307
0.785673
0.797842
0.806282
0.808691
0.818117
0.817993
0.818746
0.826551
0.829171
0.827509
0.830777
0.838272
0.840844
0.838024
0.837782
0.841849
0.846799
0.851312
0.854681
0.0236856
0.0237025
0.0237182
0.0237337
0.0237517
0.0237711
0.0237901
0.0238124
0.023841
0.0238793
0.0239167
0.0239491
0.0239758
0.0239974
0.0240184
0.0240344
0.0240466
0.0240658
0.0240858
0.0240993
0.0241159
0.0241272
0.0241301
0.0241281
0.0241268
0.0241077
0.024081
0.0240493
0.0240197
0.0239793
0.0239351
0.023889
0.0238431
0.0238124
0.0237915
0.0237891
0.0237832
0.0237886
0.0238154
0.0238745
0.0239465
0.0240173
0.0241165
0.0242496
0.0244196
0.0245662
0.0246376
0.0247304
0.0248476
0.0248459
0.0340288
0.0706007
0.146984
0.248933
0.379889
0.491507
0.570384
0.627209
0.658438
0.681452
0.688835
0.699402
0.702294
0.69549
0.703567
0.705875
0.709362
0.714107
0.723008
0.727631
0.72569
0.722816
0.731134
0.737822
0.746183
0.75978
0.775199
0.782765
0.780898
0.775107
0.777972
0.788019
0.798701
0.802348
0.80226
0.810997
0.827513
0.828734
0.826561
0.829154
0.835644
0.839756
0.841605
0.840013
0.839498
0.843792
0.85309
0.846039
0.840335
0.847546
0.0240386
0.024052
0.0240627
0.0240723
0.0240844
0.0240986
0.0241148
0.0241325
0.0241545
0.0241837
0.0242093
0.0242322
0.0242475
0.0242544
0.0242545
0.024248
0.0242381
0.0242295
0.0242142
0.0242003
0.0241859
0.0241706
0.0241531
0.0241333
0.0241025
0.0240637
0.0240227
0.0239852
0.0239532
0.0239186
0.0238852
0.0238558
0.0238422
0.0238385
0.0238624
0.0239265
0.024012
0.0241103
0.0242198
0.0243608
0.024482
0.0245917
0.0246958
0.0248183
0.0249363
0.0250461
0.0251705
0.0253269
0.025461
0.0255311
0.0255672
0.0255831
0.0255823
0.0255639
0.0379964
0.0841947
0.165135
0.290464
0.411278
0.529868
0.607089
0.651782
0.690574
0.69916
0.720394
0.719963
0.718478
0.716572
0.719482
0.715142
0.717357
0.726297
0.741721
0.75044
0.758064
0.768871
0.777738
0.774557
0.767496
0.772547
0.787031
0.803339
0.808869
0.806185
0.807494
0.816001
0.821956
0.82658
0.824555
0.824159
0.830049
0.836578
0.837733
0.834545
0.834058
0.840322
0.851474
0.851165
0.844658
0.851704
0.0243217
0.0243293
0.0243324
0.0243346
0.0243381
0.0243373
0.0243339
0.0243353
0.0243479
0.0243573
0.0243555
0.024349
0.0243409
0.0243256
0.0243023
0.0242719
0.0242388
0.0242027
0.0241666
0.0241335
0.0241023
0.0240777
0.0240557
0.0240284
0.0239935
0.0239589
0.0239324
0.0239215
0.0239239
0.0239376
0.0239584
0.0239963
0.0240564
0.0241194
0.0242154
0.02437
0.0245595
0.0247296
0.0249057
0.0250609
0.0251772
0.0252616
0.0253387
0.0254142
0.0254791
0.0255605
0.0256693
0.0257995
0.0258859
0.025932
0.0259893
0.0260472
0.0260509
0.0260503
0.0259896
0.0259368
0.0258606
0.0273024
0.0486087
0.107474
0.217137
0.344436
0.486233
0.582255
0.645324
0.68621
0.710307
0.720692
0.729651
0.71919
0.726039
0.735433
0.741859
0.744898
0.758284
0.776098
0.786875
0.783302
0.779963
0.783302
0.793619
0.801191
0.796767
0.796245
0.804444
0.817084
0.828166
0.833019
0.830319
0.83149
0.838873
0.843183
0.840979
0.8381
0.840592
0.846902
0.844113
0.842126
0.842962
0.851245
0.024603
0.0245754
0.0245463
0.0245161
0.0244871
0.0244525
0.0244095
0.0243694
0.0243414
0.0243223
0.0242982
0.024271
0.0242429
0.0242132
0.0241829
0.0241424
0.0241034
0.0240707
0.0240458
0.0240247
0.0240097
0.0240044
0.0240056
0.0240093
0.0240202
0.0240394
0.0240698
0.0241233
0.0242036
0.0243087
0.0244216
0.024554
0.0246916
0.0248297
0.024976
0.0251646
0.0253588
0.0255468
0.0257142
0.0258362
0.0259168
0.0259621
0.0260067
0.0260465
0.0260621
0.0260882
0.02616
0.0262458
0.0262756
0.0262982
0.0263472
0.0263144
0.0262436
0.0261859
0.0261661
0.0261927
0.0262649
0.0265761
0.0269074
0.0275114
0.0280004
0.0349587
0.0714154
0.157498
0.271652
0.411007
0.530956
0.611171
0.66459
0.699066
0.732244
0.756414
0.757441
0.7562
0.775669
0.778032
0.77488
0.768251
0.772525
0.783557
0.797341
0.804591
0.806008
0.813222
0.826119
0.833071
0.82699
0.823
0.824346
0.829795
0.834954
0.835072
0.833029
0.83451
0.838711
0.841723
0.838415
0.842736
0.851706
0.859746
0.0243144
0.024273
0.0242433
0.0242121
0.0241802
0.0241479
0.0241098
0.0240775
0.024053
0.0240356
0.0240284
0.0240321
0.0240443
0.0240534
0.0240592
0.0240737
0.0241009
0.0241407
0.0241867
0.0242407
0.0243105
0.0243954
0.0244894
0.0245947
0.024715
0.0248314
0.0249415
0.0250666
0.0252252
0.0253879
0.0255405
0.025677
0.0258052
0.0259234
0.0260279
0.0261292
0.0262463
0.0263674
0.0264515
0.0265115
0.0265321
0.0265154
0.0265241
0.0264993
0.0264244
0.0263703
0.0263671
0.0263768
0.0263403
0.0263131
0.0263159
0.0263225
0.0263605
0.0264533
0.0266824
0.0271015
0.0278196
0.0286135
0.0295473
0.0303168
0.0308791
0.0314605
0.0316064
0.0315802
0.0314734
0.0477172
0.0999563
0.200483
0.329731
0.471246
0.57929
0.649054
0.705386
0.744845
0.794258
0.793402
0.778589
0.770317
0.78601
0.791609
0.791305
0.791726
0.800652
0.813439
0.83193
0.831878
0.825183
0.823492
0.834227
0.842737
0.84214
0.840042
0.840152
0.842775
0.847261
0.850294
0.850143
0.849836
0.851796
0.85387
0.0240799
0.0240973
0.0241141
0.0241368
0.0241677
0.0242085
0.0242597
0.0243181
0.0243783
0.0244452
0.0245227
0.0246082
0.0247169
0.024843
0.024965
0.0250867
0.0252096
0.0253416
0.0254712
0.0255925
0.0257092
0.0258206
0.0259299
0.0260416
0.0261469
0.0262422
0.0263209
0.0263994
0.0264831
0.0265576
0.0266242
0.0266844
0.0267329
0.0267688
0.0267882
0.026798
0.0268252
0.0268322
0.0268227
0.0268226
0.0267822
0.0267202
0.0266723
0.0266074
0.0265205
0.026473
0.0264681
0.0264685
0.026433
0.0264373
0.0265363
0.0268776
0.0274338
0.0282031
0.0290042
0.0298945
0.030741
0.0315367
0.0321017
0.0323314
0.0324252
0.0324209
0.0323459
0.0322443
0.0321585
0.0323244
0.0328229
0.0337394
0.0383711
0.0709023
0.14078
0.255595
0.392849
0.520961
0.599232
0.656109
0.714602
0.762299
0.811356
0.820583
0.807561
0.793964
0.809433
0.815968
0.822623
0.813932
0.816557
0.824673
0.841769
0.85002
0.846769
0.841974
0.837106
0.840544
0.843663
0.844553
0.841411
0.838779
0.844124
0.857473
0.0260053
0.0260899
0.0261635
0.0262214
0.0262709
0.0263327
0.0264041
0.0264789
0.0265542
0.0266347
0.0267084
0.0267601
0.0268058
0.0268579
0.0269093
0.0269562
0.0269961
0.0270215
0.027036
0.0270528
0.0270734
0.0270815
0.0270763
0.0270671
0.027058
0.0270565
0.0270585
0.0270542
0.0270434
0.0270198
0.0269844
0.0269726
0.0269513
0.0269078
0.0268749
0.0268498
0.0268099
0.0267614
0.0267251
0.0267245
0.0267129
0.0267109
0.0266994
0.0267298
0.0268318
0.0269762
0.0272217
0.0275488
0.0280284
0.0286175
0.0293544
0.0301739
0.031042
0.0316934
0.0322043
0.0326017
0.0329275
0.0332665
0.0333231
0.0333803
0.0333258
0.0331713
0.0329593
0.0331232
0.0340647
0.03583
0.0384162
0.0409147
0.0433565
0.0445187
0.0453868
0.0459385
0.0542501
0.0934232
0.161437
0.272933
0.408629
0.537337
0.619897
0.676653
0.734658
0.783176
0.83821
0.855373
0.845531
0.817909
0.822704
0.831097
0.832331
0.826693
0.825346
0.834332
0.842847
0.855335
0.860572
0.856606
0.850864
0.848966
0.852812
0.85775
0.0279374
0.0279343
0.0279245
0.0278959
0.027866
0.0278539
0.0278373
0.0277941
0.0277554
0.0277389
0.0277283
0.0277016
0.027643
0.0275759
0.0275305
0.0274935
0.0274515
0.0273973
0.0273411
0.0273014
0.0272681
0.0272354
0.0271873
0.0271316
0.0270889
0.0270564
0.0270441
0.027027
0.0270225
0.0269945
0.0269371
0.0269213
0.0269378
0.0269133
0.0269133
0.0269606
0.0269681
0.0269819
0.0270685
0.0272284
0.0274674
0.027771
0.0281932
0.0287617
0.029389
0.0300624
0.0307015
0.0313659
0.0319903
0.0325727
0.0331046
0.0336254
0.0340037
0.0341483
0.0343468
0.0343657
0.0344013
0.0344107
0.0344243
0.0346389
0.0351294
0.0358986
0.0370495
0.0390132
0.0413159
0.043815
0.0458473
0.0473359
0.0487662
0.0495679
0.0496387
0.0499586
0.0505766
0.0511759
0.0519904
0.0527672
0.0631049
0.104695
0.180402
0.297496
0.432652
0.562829
0.639143
0.69552
0.748181
0.78775
0.840652
0.868049
0.864274
0.845678
0.8345
0.836213
0.839872
0.840861
0.83704
0.837252
0.842313
0.853096
0.86186
0.865112
0.027312
0.027314
0.0272911
0.0272216
0.0271908
0.0271927
0.0271993
0.0271961
0.0271994
0.0271983
0.0271978
0.0271882
0.0271376
0.0270975
0.0270858
0.0270874
0.0270853
0.0270629
0.0270249
0.027012
0.0270271
0.0270462
0.0270739
0.0270983
0.0271162
0.0271697
0.0272668
0.0274192
0.0276123
0.0278187
0.0280206
0.0282427
0.0285066
0.0288348
0.0292121
0.0296144
0.0300306
0.0304863
0.0309487
0.031441
0.0319568
0.03247
0.0330129
0.0335281
0.0340106
0.0343439
0.0345873
0.0348386
0.0350516
0.0353017
0.0355463
0.0358695
0.0359305
0.035966
0.036154
0.0363152
0.0365678
0.0371155
0.0382187
0.0397426
0.0417025
0.0436156
0.0456716
0.0474994
0.0491458
0.0504438
0.0512117
0.0518511
0.0522889
0.0528035
0.0531089
0.05368
0.0547736
0.0565666
0.0585669
0.0608268
0.063077
0.0641893
0.0655082
0.0663609
0.0769098
0.119883
0.190356
0.304266
0.434979
0.572241
0.66406
0.71815
0.76368
0.800358
0.836588
0.862587
0.875135
0.863237
0.843069
0.835936
0.842328
0.849095
0.846754
0.847736
0.0275287
0.0276037
0.0276853
0.0277667
0.0278512
0.027944
0.028042
0.0281456
0.0282615
0.0283809
0.0284921
0.0286029
0.0287323
0.0288828
0.0290563
0.0292331
0.0294051
0.0295928
0.0298086
0.0300436
0.0303051
0.0305827
0.0308695
0.0311547
0.0314391
0.0317331
0.0320517
0.0323794
0.0326919
0.0329905
0.0332863
0.0335847
0.0338995
0.034204
0.034522
0.0348327
0.0351126
0.0353797
0.0356479
0.0359221
0.0361789
0.0364393
0.0366838
0.036898
0.0370938
0.037235
0.0374494
0.0376263
0.0378162
0.0380744
0.0384535
0.0389288
0.0395145
0.0403096
0.0413476
0.0427563
0.0442895
0.0460202
0.0476986
0.04941
0.0508572
0.0521154
0.0532028
0.053991
0.054843
0.0552858
0.0556837
0.0560083
0.0564901
0.0573371
0.058637
0.0601233
0.0616938
0.0635984
0.065807
0.0682037
0.0698945
0.0715557
0.0728353
0.0740644
0.0753337
0.0761475
0.0773332
0.078276
0.0869928
0.128599
0.202282
0.317492
0.447467
0.585248
0.690583
0.743158
0.7846
0.805863
0.828271
0.859179
0.878186
0.87473
0.85857
0.8422
0.0336394
0.0337259
0.0338159
0.0339091
0.0340056
0.0341093
0.0342276
0.0343453
0.0344537
0.0345746
0.0347065
0.0348302
0.0349536
0.0350909
0.0352356
0.0353801
0.0355245
0.0356739
0.0358268
0.0359765
0.0361266
0.0362848
0.0364465
0.0366064
0.036767
0.0369289
0.0370924
0.0372568
0.0374274
0.0376057
0.0377979
0.038
0.0382061
0.0384089
0.0386179
0.03881
0.0390203
0.039242
0.0394905
0.0397419
0.0400456
0.0403803
0.0407826
0.0412471
0.0417843
0.042389
0.0431021
0.0439135
0.0448408
0.0458264
0.0469683
0.0481797
0.0494958
0.0507519
0.0519766
0.0530863
0.0541997
0.0552934
0.0562368
0.0570342
0.0575649
0.05809
0.0584816
0.0589645
0.0594605
0.0600851
0.0607378
0.0615986
0.0629408
0.064607
0.0665976
0.0685723
0.0705044
0.0723357
0.0743034
0.075839
0.0771234
0.0782114
0.0790301
0.0800686
0.0812483
0.0828866
0.0843991
0.0857967
0.0869982
0.0875981
0.088371
0.0889302
0.0977737
0.139422
0.218378
0.334087
0.469954
0.597278
0.710726
0.777062
0.808574
0.822566
0.83379
0.848089
0.0393273
0.0393972
0.0394722
0.0395448
0.0396128
0.0396976
0.0398007
0.0399059
0.0399954
0.040092
0.0401973
0.0403067
0.0404212
0.0405485
0.0406856
0.0408226
0.0409642
0.04112
0.0412875
0.0414643
0.0416504
0.0418508
0.0420606
0.0422797
0.0425109
0.0427662
0.0430393
0.043331
0.0436341
0.0439624
0.0443106
0.0446905
0.0450883
0.0455214
0.045982
0.0464801
0.0469994
0.0475831
0.0482009
0.0488721
0.049564
0.050315
0.0510814
0.0518863
0.0526977
0.0535431
0.0543954
0.0552602
0.0560719
0.0568634
0.0576411
0.0583844
0.0590789
0.0596813
0.0602757
0.0608248
0.0613943
0.06188
0.0624133
0.0628655
0.0634173
0.0639849
0.0646875
0.0655931
0.0667594
0.0682678
0.0698932
0.0717141
0.0734976
0.0752793
0.0768666
0.0782287
0.0795056
0.0806972
0.0817436
0.0826532
0.0836154
0.0845047
0.085513
0.0866021
0.0877583
0.0887145
0.0895478
0.0905527
0.0915765
0.0926286
0.0934278
0.0941842
0.0949439
0.0951706
0.0955958
0.095953
0.107077
0.151986
0.236412
0.357805
0.491166
0.609603
0.715954
0.805171
0.0484223
0.0485338
0.0486682
0.0488125
0.0489664
0.049115
0.0492568
0.0494159
0.0495914
0.0497659
0.0499455
0.0501454
0.0503572
0.0505711
0.05079
0.0510182
0.0512616
0.0515147
0.0517773
0.0520505
0.0523346
0.0526253
0.0529211
0.0532294
0.0535567
0.053888
0.0542437
0.0546095
0.0549975
0.0553996
0.0558102
0.0562287
0.0566608
0.0570914
0.0575315
0.0579741
0.0584364
0.0589157
0.0594147
0.0599245
0.0604547
0.0609867
0.0615167
0.0620625
0.0626089
0.063139
0.0636207
0.0640797
0.0645183
0.0649996
0.0654955
0.0660441
0.066597
0.0671927
0.0677652
0.0683842
0.0690554
0.0698943
0.0708835
0.0719978
0.0732204
0.0744745
0.0757996
0.0771569
0.078606
0.0799575
0.0812599
0.0824324
0.0834713
0.0844181
0.0851783
0.0858514
0.086424
0.0870746
0.0878001
0.088679
0.0896021
0.0905258
0.0914072
0.0921094
0.0927108
0.093292
0.0940407
0.0949029
0.0956332
0.0961415
0.0965272
0.0969394
0.0972529
0.0977223
0.0981907
0.0987611
0.0991899
0.0994784
0.0997108
0.0997525
0.112873
0.162304
0.245448
0.460751
0.0604915
0.0606026
0.060719
0.0608457
0.0609946
0.0611644
0.0613226
0.0614636
0.0616152
0.0617896
0.0619745
0.0621601
0.0623456
0.0625335
0.062732
0.0629446
0.0631644
0.0633894
0.0636224
0.0638657
0.0641149
0.0643759
0.0646433
0.0649254
0.0652152
0.0655138
0.0658205
0.0661406
0.0664645
0.0667923
0.0671294
0.0674717
0.06781
0.0681415
0.0684795
0.0688321
0.0692215
0.0696555
0.0701431
0.0706706
0.071222
0.0717674
0.0723049
0.0728303
0.0733726
0.0739246
0.0744908
0.0750616
0.0756693
0.0763227
0.0770363
0.0777872
0.0785779
0.0794069
0.0802591
0.0811333
0.082006
0.0828733
0.0837104
0.0845925
0.0854692
0.0862722
0.0869618
0.0876027
0.0882352
0.0888368
0.0894134
0.0898966
0.0903833
0.0908481
0.0913592
0.0918509
0.0923289
0.092907
0.0935889
0.0943286
0.0950076
0.0956081
0.0961056
0.0964887
0.0968213
0.0971238
0.0973969
0.0976328
0.0978278
0.0980535
0.0983318
0.0986328
0.0989628
0.0993796
0.0997731
0.100344
0.100714
0.100773
0.100785
0.100744
0.100407
0.0996185
0.0994977
0.114123
0.0754478
0.0755494
0.0756709
0.0758066
0.0759415
0.0760629
0.0761814
0.0763266
0.0764825
0.0766275
0.0767664
0.0769082
0.0770602
0.0772247
0.0773975
0.0775727
0.0777506
0.0779352
0.0781365
0.0783519
0.0785804
0.0788234
0.079075
0.0793333
0.0795979
0.0798544
0.0801187
0.0803974
0.0806769
0.0809609
0.0812602
0.0815708
0.0818716
0.0821646
0.0824475
0.0827227
0.0830044
0.0833285
0.0836954
0.0841044
0.0845386
0.0849825
0.0854198
0.0858717
0.0863746
0.0868639
0.0872682
0.087618
0.0879379
0.0882393
0.0885443
0.0888926
0.0892987
0.0897494
0.0902199
0.0906519
0.0910221
0.0913601
0.0917115
0.0921016
0.0925027
0.0929015
0.0932514
0.0935882
0.093896
0.0942501
0.0946525
0.0951038
0.0955154
0.0959441
0.0964044
0.0968366
0.0972462
0.0976142
0.0979658
0.0982952
0.098567
0.0987795
0.0989655
0.0991281
0.0990924
0.0989139
0.0988373
0.0988436
0.0989407
0.0991624
0.0994804
0.0999381
0.100481
0.101071
0.101537
0.101961
0.101833
0.101432
0.101356
0.101223
0.100687
0.10075
0.101651
0.103858
0.0893181
0.0893778
0.0894482
0.089518
0.0895804
0.0896353
0.089685
0.0897386
0.0897953
0.0898484
0.0898971
0.089944
0.0899946
0.0900546
0.0901198
0.0901839
0.0902443
0.0903104
0.0903962
0.0904973
0.0906151
0.0907532
0.0908973
0.0910335
0.0911668
0.0913057
0.0914577
0.0916195
0.0917674
0.0919116
0.0920882
0.0922661
0.0924134
0.0925769
0.0927034
0.092795
0.0928958
0.0930394
0.0932335
0.0934496
0.0936537
0.0938222
0.0939851
0.0941624
0.0943879
0.0946396
0.0948417
0.0950647
0.0952637
0.0953863
0.0954928
0.0956174
0.0957605
0.0959279
0.0961974
0.096555
0.0968469
0.0970509
0.0972429
0.0974668
0.0977581
0.0980961
0.0984268
0.0986702
0.098852
0.0990364
0.0992731
0.0995274
0.0997373
0.0998733
0.0999614
0.100061
0.100134
0.10013
0.100106
0.100065
0.100024
0.100005
0.100034
0.100012
0.0998402
0.0995168
0.0994927
0.0995747
0.0998171
0.100278
0.10102
0.10195
0.102837
0.10332
0.103498
0.103333
0.102896
0.102787
0.102603
0.102023
0.102385
0.103821
0.106081
0.108884
0.0974305
0.0974906
0.0975281
0.0975241
0.0975273
0.0975267
0.0974912
0.0974758
0.0974852
0.0975089
0.0975257
0.0975433
0.0975637
0.0975967
0.0976245
0.0976214
0.0976171
0.0976319
0.097653
0.0976639
0.0976883
0.0976989
0.0976889
0.0976692
0.0976862
0.0977812
0.0979009
0.0979223
0.0979415
0.0979922
0.0980821
0.098179
0.0982762
0.0983908
0.0985274
0.0986711
0.0988049
0.0989544
0.099102
0.0991546
0.0991327
0.0990784
0.0990643
0.0990793
0.0991237
0.0992349
0.0994377
0.0996306
0.0997408
0.0998032
0.0998699
0.0999365
0.0999208
0.099916
0.100032
0.100383
0.100504
0.100486
0.100493
0.100558
0.100654
0.100785
0.100914
0.100973
0.100965
0.100933
0.100917
0.100949
0.100981
0.10091
0.100756
0.100716
0.100672
0.100553
0.100404
0.100222
0.10013
0.100111
0.100154
0.100139
0.100209
0.100508
0.101078
0.101862
0.102795
0.103739
0.104617
0.105177
0.105344
0.105289
0.105174
0.104653
0.104341
0.104457
0.104471
0.105174
0.107047
0.10999
0.112328
0.11408
0.100112
0.100123
0.100136
0.100164
0.100208
0.100267
0.100328
0.100383
0.10044
0.100505
0.100553
0.100599
0.100662
0.100678
0.100677
0.100681
0.100703
0.100717
0.100719
0.100713
0.100677
0.100582
0.100465
0.100441
0.100447
0.100449
0.100444
0.100468
0.100584
0.100688
0.100699
0.100709
0.100775
0.100964
0.101175
0.101311
0.101463
0.101643
0.101755
0.101761
0.101699
0.101569
0.101462
0.101407
0.1014
0.101435
0.101611
0.101734
0.101726
0.101729
0.101759
0.101738
0.101603
0.101493
0.101498
0.101612
0.101714
0.101727
0.101746
0.101741
0.101659
0.101525
0.101495
0.101521
0.101546
0.101452
0.101255
0.101198
0.101168
0.101031
0.100758
0.100747
0.100732
0.100685
0.100708
0.100873
0.101264
0.101867
0.102722
0.103825
0.104925
0.105871
0.106579
0.107171
0.107682
0.108007
0.108026
0.107864
0.107315
0.10711
0.106928
0.10665
0.106897
0.107989
0.110472
0.113791
0.116914
0.118886
0.119901
0.120036
0.101773
0.101769
0.101752
0.101738
0.101738
0.101755
0.101807
0.101877
0.101949
0.102001
0.102061
0.102127
0.102135
0.102132