/*--------------------------------*- C++ -*----------------------------------*\
  =========                 |
  \\      /  F ield         | OpenFOAM: The Open Source CFD Toolbox
   \\    /   O peration     | Website:  https://openfoam.org
    \\  /    A nd           | Version:  7
     \\/     M anipulation  |
\*---------------------------------------------------------------------------*/
FoamFile
{
    version     2.0;
    format      ascii;
    class       volVectorField;
    location    "5.7";
    object      U;
}
// * * * * * * * * * * * * * * * * * * * * * * * * * * * * * * * * * * * * * //

dimensions      [0 1 -1 0 0 0 0];

internalField   nonuniform List<vector> 
1750
(
(2.24414 0.332379 0)
(2.42623 0.513354 0)
(2.45327 0.791477 0)
(2.53472 0.654791 0)
(2.61786 0.494847 0)
(2.68756 0.350321 0)
(2.7232 0.205528 0)
(2.73207 0.0934726 0)
(2.72578 0.110412 0)
(2.70377 0.0883911 0)
(2.36939 -1.62729 0)
(2.43228 -1.32148 0)
(2.38204 -0.420398 0)
(2.35044 0.0690313 0)
(2.3129 0.257208 0)
(2.34649 0.151565 0)
(2.39354 0.203178 0)
(2.50932 0.182457 0)
(2.54475 0.15052 0)
(2.5644 0.0751191 0)
(2.7247 -1.9025 0)
(2.79129 -1.95685 0)
(2.84979 -1.93114 0)
(2.64498 -1.18912 0)
(2.52671 -0.644555 0)
(2.44763 -0.269791 0)
(2.45217 -0.0979782 0)
(2.47483 0.0615991 0)
(2.4994 0.0646872 0)
(2.57303 0.0435643 0)
(2.9596 -1.75904 0)
(3.04669 -1.63799 0)
(3.06431 -1.60793 0)
(3.07334 -1.71498 0)
(3.0727 -1.59747 0)
(2.9878 -1.34301 0)
(2.87958 -0.976604 0)
(2.74625 -0.518208 0)
(2.77355 -0.314794 0)
(2.72452 -0.0256601 0)
(3.07258 -1.53213 0)
(3.1411 -1.40729 0)
(3.09169 -1.45492 0)
(3.09186 -1.48816 0)
(3.07028 -1.38031 0)
(3.13541 -1.2587 0)
(3.13799 -1.27548 0)
(3.12902 -1.27494 0)
(3.06754 -1.07433 0)
(2.98986 -0.60532 0)
(3.12771 -1.29262 0)
(3.14134 -1.20931 0)
(3.15948 -1.12408 0)
(3.17791 -1.04414 0)
(3.16634 -1.04363 0)
(3.14115 -1.04959 0)
(3.13853 -1.04805 0)
(3.14222 -1.01849 0)
(3.13247 -1.0436 0)
(3.12825 -1.01106 0)
(3.15536 -0.855847 0)
(3.14557 -0.856586 0)
(3.14088 -0.863864 0)
(3.1442 -0.871651 0)
(3.13992 -0.874262 0)
(3.13226 -0.876678 0)
(3.12919 -0.878934 0)
(3.13062 -0.877332 0)
(3.13398 -0.866727 0)
(3.13171 -0.859778 0)
(3.11945 -0.503555 0)
(3.11443 -0.513395 0)
(3.11339 -0.523751 0)
(3.11872 -0.568279 0)
(3.12145 -0.581264 0)
(3.12413 -0.591688 0)
(3.12284 -0.61197 0)
(3.12157 -0.628688 0)
(3.1248 -0.634323 0)
(3.12852 -0.652792 0)
(3.04059 -0.12986 0)
(3.04894 -0.185005 0)
(3.05273 -0.214103 0)
(3.05968 -0.243679 0)
(3.07395 -0.309214 0)
(3.08046 -0.334855 0)
(3.08715 -0.36629 0)
(3.09538 -0.423247 0)
(3.09841 -0.446568 0)
(3.10645 -0.492418 0)
(2.97801 0.061657 0)
(2.98485 0.042092 0)
(2.99181 0.0197237 0)
(3.00069 -0.00529218 0)
(3.01234 -0.039984 0)
(3.02346 -0.077389 0)
(3.03667 -0.122885 0)
(3.04562 -0.156159 0)
(3.05702 -0.207025 0)
(3.07088 -0.26917 0)
(2.96831 0.0868167 0)
(2.96847 0.0826225 0)
(2.96897 0.0809413 0)
(2.97121 0.0787706 0)
(2.97509 0.0726853 0)
(2.97994 0.063 0)
(2.9869 0.0478437 0)
(2.99605 0.0248005 0)
(3.00564 -0.00377433 0)
(3.02296 -0.0616517 0)
(2.97966 0.0572143 0)
(2.9765 0.0631513 0)
(2.97428 0.0686656 0)
(2.97353 0.0709391 0)
(2.9745 0.0717462 0)
(2.97465 0.0716411 0)
(2.97516 0.0710439 0)
(2.97639 0.0691196 0)
(2.97832 0.0661873 0)
(2.98552 0.051229 0)
(2.99492 0.0133149 0)
(2.99281 0.0177129 0)
(2.98997 0.0240076 0)
(2.98716 0.030978 0)
(2.98445 0.0384631 0)
(2.98189 0.0458555 0)
(2.98006 0.0514412 0)
(2.9784 0.0566534 0)
(2.97795 0.0605189 0)
(2.97853 0.0602408 0)
(2.99971 0.000648712 0)
(2.99948 0.00109116 0)
(2.99902 0.00196091 0)
(2.99833 0.00338712 0)
(2.99725 0.00568829 0)
(2.99565 0.00912848 0)
(2.9935 0.0140396 0)
(2.99097 0.0201787 0)
(2.98821 0.0272768 0)
(2.98477 0.0385523 0)
(2.99999 8.15452e-06 0)
(2.99999 1.529e-05 0)
(2.99998 3.37019e-05 0)
(2.99995 6.95466e-05 0)
(2.99988 0.000155216 0)
(2.99975 0.000322685 0)
(2.99945 0.000712424 0)
(2.99888 0.00139053 0)
(2.99793 0.00262886 0)
(2.99468 0.00639154 0)
(1.96592 -1.45276 0)
(2.28202 -1.64746 0)
(2.54342 -2.02183 0)
(2.85044 -1.83155 0)
(3.01877 -1.64379 0)
(3.12739 -1.26251 0)
(3.16642 -0.842594 0)
(3.11446 -0.402672 0)
(3.02006 -0.0719044 0)
(2.97166 0.073342 0)
(2.96668 0.089 0)
(2.97958 0.0569506 0)
(2.996 0.0103807 0)
(2.99981 0.000436436 0)
(3 5.26669e-06 0)
(1.86527 -1.4323 0)
(2.34139 -1.80306 0)
(2.65578 -2.00039 0)
(2.89569 -1.65048 0)
(3.02423 -1.62069 0)
(3.16541 -1.00047 0)
(3.15903 -0.652587 0)
(3.08475 -0.299057 0)
(3.00059 -0.0193797 0)
(2.96507 0.0896666 0)
(2.96635 0.0883072 0)
(2.98402 0.0412975 0)
(2.99791 0.0049787 0)
(2.99993 0.000150928 0)
(3 1.81944e-06 0)
(1.82235 -1.45486 0)
(2.32842 -1.84582 0)
(2.63594 -1.97623 0)
(2.88093 -1.57938 0)
(3.08469 -1.4424 0)
(3.16031 -0.850456 0)
(3.13561 -0.574223 0)
(3.06386 -0.240984 0)
(2.9839 0.0356868 0)
(2.96309 0.094078 0)
(2.96951 0.0757894 0)
(2.98994 0.026818 0)
(2.99896 0.00258007 0)
(2.99997 6.22735e-05 0)
(3 7.1311e-07 0)
(1.7615 -1.46718 0)
(2.33411 -1.90597 0)
(2.59914 -1.92884 0)
(2.92315 -1.62701 0)
(3.1225 -1.03395 0)
(3.14506 -0.963073 0)
(3.11432 -0.529244 0)
(3.03556 -0.11343 0)
(2.97178 0.0742335 0)
(2.96198 0.0962241 0)
(2.97645 0.0648022 0)
(2.99307 0.0201329 0)
(2.99954 0.00119017 0)
(2.99999 2.45629e-05 0)
(3 2.61632e-07 0)
(1.63506 -1.4624 0)
(2.2558 -1.84851 0)
(2.61197 -1.85806 0)
(2.89865 -1.5927 0)
(3.14773 -1.09699 0)
(3.14925 -0.8193 0)
(3.08955 -0.293265 0)
(3.00189 0.000737081 0)
(2.96118 0.100271 0)
(2.96145 0.0970653 0)
(2.97624 0.0681825 0)
(2.99584 0.0116392 0)
(2.99979 0.000536765 0)
(3 9.47122e-06 0)
(3 9.42e-08 0)
(1.57821 -1.35993 0)
(2.22604 -1.79049 0)
(2.64459 -1.70778 0)
(2.97072 -1.32626 0)
(3.1044 -1.19567 0)
(3.12606 -0.461265 0)
(3.0608 -0.16002 0)
(2.98315 0.0439129 0)
(2.95793 0.107993 0)
(2.96098 0.0992066 0)
(2.98301 0.0453723 0)
(2.99788 0.00572366 0)
(2.99992 0.000198147 0)
(3 3.29666e-06 0)
(3 3.20609e-08 0)
(1.42291 -1.34458 0)
(2.15655 -1.76445 0)
(2.68567 -1.44979 0)
(3.02243 -1.09785 0)
(3.15861 -0.835579 0)
(3.11897 -0.371979 0)
(3.03339 -0.089633 0)
(2.96566 0.0915836 0)
(2.9564 0.112595 0)
(2.96498 0.0930893 0)
(2.99175 0.024058 0)
(2.99917 0.00238854 0)
(2.99997 6.46575e-05 0)
(3 1.02474e-06 0)
(3 9.96302e-09 0)
(1.47311 -1.2292 0)
(1.98373 -1.72325 0)
(2.713 -1.4302 0)
(3.02282 -1.2154 0)
(3.12742 -0.479761 0)
(3.09362 -0.290877 0)
(3.00055 0.014682 0)
(2.95739 0.114443 0)
(2.95616 0.113643 0)
(2.97606 0.0633982 0)
(2.99412 0.017264 0)
(2.99967 0.000916178 0)
(2.99999 2.03638e-05 0)
(3 3.02797e-07 0)
(3 2.85094e-09 0)
(1.17805 -1.21416 0)
(2.07616 -1.49948 0)
(2.66538 -1.50699 0)
(3.06043 -0.869678 0)
(3.14069 -0.492647 0)
(3.04485 -0.0798038 0)
(2.972 0.0944631 0)
(2.95364 0.123311 0)
(2.95812 0.107013 0)
(2.98201 0.0486239 0)
(2.99768 0.00690783 0)
(2.9999 0.000288748 0)
(3 5.77168e-06 0)
(3 8.33099e-08 0)
(3 7.62779e-10 0)
(0.803189 -0.675805 0)
(2.1008 -1.02807 0)
(2.85856 -1.05202 0)
(3.10833 -0.445446 0)
(3.10862 -0.26166 0)
(3.00337 0.0254943 0)
(2.95777 0.123152 0)
(2.95319 0.12371 0)
(2.96687 0.0854885 0)
(2.98826 0.0322107 0)
(2.99909 0.00256456 0)
(2.99997 8.32107e-05 0)
(3 1.5002e-06 0)
(3 2.10187e-08 0)
(3 1.87492e-10 0)
(0.456219 0.153288 0)
(2.29015 -0.798415 0)
(2.98262 -0.683848 0)
(3.13854 -0.391838 0)
(3.04523 -0.0338506 0)
(2.97182 0.0974462 0)
(2.95143 0.133597 0)
(2.95353 0.121851 0)
(2.97171 0.0736419 0)
(2.99553 0.0114537 0)
(2.99971 0.000793757 0)
(2.99999 2.00954e-05 0)
(3 3.50331e-07 0)
(3 4.82742e-09 0)
(3 4.21694e-11 0)
(0.575584 0.458184 0)
(2.47304 -0.8329 0)
(3.10378 -0.484378 0)
(3.10359 -0.147179 0)
(3.00635 0.0414792 0)
(2.95259 0.133928 0)
(2.95053 0.134038 0)
(2.96192 0.0971529 0)
(2.98785 0.0316668 0)
(2.99849 0.0040746 0)
(2.99994 0.000165498 0)
(3 3.89467e-06 0)
(3 6.6333e-08 0)
(3 9.15493e-10 0)
(3 8.15415e-12 0)
(1.07946 0.439777 0)
(2.87868 -0.0967983 0)
(3.15532 -0.184329 0)
(3.0311 0.0615169 0)
(2.96349 0.123639 0)
(2.94768 0.143299 0)
(2.95261 0.120833 0)
(2.97157 0.0742612 0)
(2.99462 0.0147879 0)
(2.99964 0.00107602 0)
(2.99999 3.28277e-05 0)
(3 6.63021e-07 0)
(3 1.06419e-08 0)
(3 1.42411e-10 0)
(3 1.26869e-12 0)
(2.04958 0.257716 0)
(3.14432 -0.132761 0)
(3.09242 -0.00968377 0)
(2.97824 0.126764 0)
(2.94753 0.143707 0)
(2.94654 0.146293 0)
(2.95929 0.107859 0)
(2.98678 0.034284 0)
(2.99824 0.0049232 0)
(2.99992 0.000214428 0)
(3 5.47549e-06 0)
(3 9.94296e-08 0)
(3 1.48265e-09 0)
(3 1.88573e-11 0)
(3 1.6219e-13 0)
(2.68304 0.180096 0)
(3.11468 0.043404 0)
(2.99017 0.119799 0)
(2.94725 0.161585 0)
(2.94482 0.146044 0)
(2.94934 0.138525 0)
(2.9722 0.0673489 0)
(2.99403 0.0137671 0)
(2.99967 0.000817909 0)
(2.99999 2.82486e-05 0)
(3 6.01941e-07 0)
(3 9.88412e-09 0)
(3 1.42364e-10 0)
(3 1.8658e-12 0)
(3 1.94878e-14 0)
(2.92851 0.150409 0)
(2.93701 0.151443 0)
(2.94119 0.159005 0)
(2.94083 0.164104 0)
(2.95836 0.130019 0)
(2.96171 0.0959006 0)
(2.9919 0.0143521 0)
(2.99962 0.000573309 0)
(2.99999 1.82158e-05 0)
(3 8.88123e-07 0)
(3 -6.47991e-09 0)
(3 -3.55116e-10 0)
(3 -3.43898e-13 0)
(3 5.44572e-14 0)
(3 4.39829e-15 0)
(2.92566 0.150816 0)
(2.93374 0.149532 0)
(2.94096 0.15463 0)
(2.94354 0.165983 0)
(2.95036 0.136747 0)
(2.97373 0.0686362 0)
(2.99136 0.0228698 0)
(2.99914 0.00175162 0)
(2.99996 6.84086e-05 0)
(3 1.43706e-06 0)
(3 2.17849e-08 0)
(3 2.72706e-10 0)
(3 2.94086e-12 0)
(3 1.5795e-14 0)
(3 3.05587e-15 0)
(2.92529 0.151916 0)
(2.93466 0.154126 0)
(2.944 0.155332 0)
(2.94586 0.16363 0)
(2.96048 0.11216 0)
(2.97821 0.053411 0)
(2.99698 0.00610923 0)
(2.99987 0.000247492 0)
(3 4.16186e-06 0)
(3 4.78672e-08 0)
(3 4.55727e-10 0)
(3 3.73492e-12 0)
(3 2.35258e-14 0)
(3 5.46339e-16 0)
(3 1.81454e-15 0)
(2.9244 0.153971 0)
(2.93179 0.159163 0)
(2.94534 0.154544 0)
(2.94791 0.163902 0)
(2.96357 0.102412 0)
(2.98677 0.0296164 0)
(2.99863 0.00259069 0)
(2.99996 8.03817e-05 0)
(3 1.20942e-06 0)
(3 1.37092e-08 0)
(3 1.27967e-10 0)
(3 1.02201e-12 0)
(3 3.45884e-15 0)
(3 -2.66267e-15 0)
(3 -4.83623e-16 0)
(2.92408 0.15801 0)
(2.92997 0.160852 0)
(2.94803 0.153711 0)
(2.95225 0.151244 0)
(2.97821 0.061396 0)
(2.99383 0.0138407 0)
(2.99958 0.000813165 0)
(2.99999 1.80706e-05 0)
(3 2.5296e-07 0)
(3 2.72139e-09 0)
(3 2.44021e-11 0)
(3 1.86689e-13 0)
(3 -1.85763e-15 0)
(3 -3.2671e-15 0)
(3 -4.61052e-16 0)
(2.92441 0.158359 0)
(2.92782 0.167283 0)
(2.95107 0.148642 0)
(2.96612 0.119353 0)
(2.98111 0.0507879 0)
(2.99725 0.00556912 0)
(2.99987 0.000237545 0)
(3 4.34074e-06 0)
(3 5.72118e-08 0)
(3 5.81376e-10 0)
(3 5.13276e-12 0)
(3 3.57188e-14 0)
(3 -3.73427e-15 0)
(3 -2.64295e-15 0)
(3 3.15899e-16 0)
(2.92419 0.157705 0)
(2.92189 0.179397 0)
(2.95901 0.135061 0)
(2.97079 0.0985953 0)
(2.99134 0.0212631 0)
(2.99901 0.00200523 0)
(2.99997 5.57466e-05 0)
(3 9.98334e-07 0)
(3 1.12707e-08 0)
(3 1.16356e-10 0)
(3 9.62575e-13 0)
(3 3.5347e-15 0)
(3 -3.72698e-15 0)
(3 -1.71795e-15 0)
(3 3.18851e-16 0)
(2.92086 0.154251 0)
(2.92564 0.190743 0)
(2.96788 0.115922 0)
(2.97792 0.0667151 0)
(2.9953 0.0103962 0)
(2.9997 0.000564687 0)
(2.99999 1.44578e-05 0)
(3 1.87853e-07 0)
(3 2.37136e-09 0)
(3 2.15043e-11 0)
(3 1.7353e-13 0)
(3 -2.43053e-15 0)
(3 -2.90561e-15 0)
(3 -7.19234e-16 0)
(3 5.16459e-16 0)
(2.92394 0.136116 0)
(2.93054 0.191546 0)
(2.976 0.087286 0)
(2.98919 0.0313063 0)
(2.99831 0.00370621 0)
(2.99992 0.000146278 0)
(3 2.60827e-06 0)
(3 4.06044e-08 0)
(3 3.9507e-10 0)
(3 3.77702e-12 0)
(3 2.51087e-14 0)
(3 -3.57538e-15 0)
(3 -2.44342e-15 0)
(3 6.10436e-16 0)
(3 1.69173e-15 0)
(2.93201 0.119573 0)
(2.93996 0.169842 0)
(2.97955 0.0638693 0)
(2.99341 0.0169475 0)
(2.99947 0.00108686 0)
(2.99998 3.18673e-05 0)
(3 5.86433e-07 0)
(3 6.26342e-09 0)
(3 7.05256e-11 0)
(3 5.81555e-13 0)
(3 1.18217e-15 0)
(3 -4.21714e-15 0)
(3 -1.75457e-15 0)
(3 1.08895e-15 0)
(3 2.25878e-15 0)
(2.93358 0.0900259 0)
(2.94766 0.142787 0)
(2.9871 0.0373835 0)
(2.99766 0.0054802 0)
(2.99986 0.00028861 0)
(3 6.62373e-06 0)
(3 8.51586e-08 0)
(3 1.113e-09 0)
(3 9.47647e-12 0)
(3 8.2092e-14 0)
(3 -3.24029e-15 0)
(3 -4.32132e-15 0)
(3 -1.55719e-15 0)
(3 1.59694e-15 0)
(3 2.12124e-15 0)
(2.94629 0.0634361 0)
(2.96682 0.0930675 0)
(2.99315 0.0182112 0)
(2.9992 0.00175764 0)
(2.99997 5.51243e-05 0)
(3 9.53144e-07 0)
(3 1.40792e-08 0)
(3 1.29355e-10 0)
(3 1.26468e-12 0)
(3 7.17448e-15 0)
(3 -4.38161e-15 0)
(3 -4.69602e-15 0)
(3 -1.39606e-15 0)
(3 1.93088e-15 0)
(3 2.34448e-15 0)
(2.95329 0.0399219 0)
(2.97515 0.0609087 0)
(2.99723 0.00685492 0)
(2.99983 0.000372008 0)
(3 8.5263e-06 0)
(3 1.32526e-07 0)
(3 1.36387e-09 0)
(3 1.49773e-11 0)
(3 1.0973e-13 0)
(3 -7.19999e-16 0)
(3 -4.85488e-15 0)
(3 -4.81127e-15 0)
(3 -1.47207e-15 0)
(3 2.70321e-15 0)
(3 2.68701e-15 0)
(2.96792 0.0208631 0)
(2.98876 0.0250244 0)
(2.99917 0.00183627 0)
(2.99997 5.80849e-05 0)
(3 9.80308e-07 0)
(3 1.16588e-08 0)
(3 1.30856e-10 0)
(3 1.01121e-12 0)
(3 8.96464e-15 0)
(3 -6.11367e-16 0)
(3 -4.2348e-15 0)
(3 -5.05187e-15 0)
(3 -1.14134e-15 0)
(3 3.64664e-15 0)
(3 2.60971e-15 0)
(2.98483 0.00451507 0)
(2.99662 0.0065295 0)
(2.99988 0.000240751 0)
(3 4.74274e-06 0)
(3 6.14836e-08 0)
(3 6.67368e-10 0)
(3 5.59652e-12 0)
(3 5.03917e-14 0)
(3 3.09015e-16 0)
(3 -8.95906e-16 0)
(3 -3.02226e-15 0)
(3 -5.23292e-15 0)
(3 -7.12477e-16 0)
(3 4.72702e-15 0)
(3 2.66085e-15 0)
(3 3.91581e-15 0)
(3 1.69583e-15 0)
(3 -2.70206e-16 0)
(3 -1.93554e-15 0)
(3 9.8918e-16 0)
(3 1.47295e-15 0)
(3 1.53749e-16 0)
(3 1.67753e-15 0)
(3 -6.33283e-16 0)
(3 -8.79486e-16 0)
(3 -3.13091e-15 0)
(3 -5.43234e-15 0)
(3 -2.38608e-17 0)
(3 5.7443e-15 0)
(3 2.90135e-15 0)
(3 4.7993e-15 0)
(3 3.50357e-15 0)
(3 2.11261e-16 0)
(3 -7.36172e-16 0)
(3 1.08405e-15 0)
(3 6.44164e-16 0)
(3 5.26432e-18 0)
(3 9.18665e-16 0)
(3 -9.73931e-16 0)
(3 -7.45739e-16 0)
(3 -3.43182e-15 0)
(3 -5.01092e-15 0)
(3 3.30027e-16 0)
(3 6.46179e-15 0)
(3 3.29079e-15 0)
(3 4.55496e-15 0)
(3 2.28184e-15 0)
(3 3.33491e-16 0)
(3 7.36453e-16 0)
(3 1.03098e-15 0)
(3 -2.39956e-16 0)
(3 9.61093e-18 0)
(3 -6.93044e-16 0)
(3 -9.23465e-16 0)
(3 -7.70901e-16 0)
(3 -3.23977e-15 0)
(3 -4.17257e-15 0)
(3 7.18967e-16 0)
(3 6.57064e-15 0)
(3 3.52055e-15 0)
(3 2.43541e-15 0)
(3 1.43029e-15 0)
(3 1.4522e-15 0)
(3 1.65385e-15 0)
(3 5.59093e-16 0)
(3 -5.11442e-16 0)
(3 3.82992e-16 0)
(3 -9.32671e-16 0)
(3 -6.15502e-16 0)
(3 -4.881e-16 0)
(3 -2.89182e-15 0)
(3 -3.95761e-15 0)
(3 2.12439e-16 0)
(3 6.32327e-15 0)
(3 3.57805e-15 0)
(3 4.71055e-16 0)
(3 4.41317e-16 0)
(3 4.35722e-16 0)
(3 1.68392e-15 0)
(3 2.72255e-16 0)
(3 -8.03696e-17 0)
(3 1.57185e-15 0)
(3 -7.29487e-16 0)
(3 -6.6844e-16 0)
(3 1.26592e-16 0)
(3 -2.78413e-15 0)
(3 -3.78303e-15 0)
(3 1.8306e-16 0)
(3 5.19251e-15 0)
(3 2.99554e-15 0)
(3 -1.15141e-15 0)
(3 1.03806e-15 0)
(3 1.10349e-15 0)
(3 1.14073e-15 0)
(3 2.0972e-16 0)
(3 8.55144e-16 0)
(3 1.53605e-15 0)
(3 -1.28183e-15 0)
(3 3.35095e-16 0)
(3 1.21843e-15 0)
(3 -2.81601e-15 0)
(3 -3.81494e-15 0)
(3 6.64807e-16 0)
(3 4.79609e-15 0)
(3 1.24467e-15 0)
(3 6.40688e-17 0)
(3 3.38306e-15 0)
(3 1.22933e-15 0)
(3 -1.31307e-15 0)
(3 -1.33364e-16 0)
(3 1.07133e-15 0)
(3 1.39485e-15 0)
(3 -1.0729e-15 0)
(3 4.00231e-16 0)
(3 1.09646e-15 0)
(3 -2.52497e-15 0)
(3 -2.81823e-15 0)
(3 1.05208e-15 0)
(3 3.00608e-15 0)
(3 6.27061e-16 0)
(3 6.05174e-16 0)
(3 3.62173e-15 0)
(3 1.10849e-15 0)
(3 -1.42431e-15 0)
(3 4.12264e-16 0)
(3 5.97944e-16 0)
(3 -2.2483e-16 0)
(3 -8.75462e-16 0)
(3 5.81147e-16 0)
(3 1.79407e-15 0)
(3 -1.83692e-15 0)
(3 -2.97929e-15 0)
(3 1.20957e-15 0)
(3 2.62027e-15 0)
(3 5.77532e-16 0)
(3 5.53144e-16 0)
(3 1.94368e-15 0)
(3 1.04897e-15 0)
(3 -1.40046e-15 0)
(3 4.74238e-16 0)
(3 1.05212e-15 0)
(3 -5.07672e-16 0)
(3 -1.30477e-15 0)
(3 6.93569e-16 0)
(3 1.37906e-15 0)
(3 -1.22641e-15 0)
(3 -1.15442e-15 0)
(3 1.14762e-15 0)
(3 1.58169e-15 0)
(3 6.79672e-17 0)
(3 3.6839e-16 0)
(3 1.80005e-16 0)
(3 7.26284e-16 0)
(3 -7.2399e-16 0)
(3 -1.00062e-15 0)
(3 8.13646e-16 0)
(3 2.88193e-16 0)
(3 -8.97754e-16 0)
(3 6.33358e-16 0)
(3 4.68666e-16 0)
(3 -1.46627e-15 0)
(3 -4.81521e-16 0)
(3 8.8455e-16 0)
(3 5.03413e-16 0)
(3 1.59613e-16 0)
(3 4.82525e-15 0)
(3 4.25191e-15 0)
(3 4.71668e-15 0)
(3 2.3268e-15 0)
(3 -7.51647e-16 0)
(3 -2.25969e-15 0)
(3 -3.63044e-15 0)
(3 -2.78817e-15 0)
(3 -2.79197e-16 0)
(3 9.95541e-16 0)
(3 4.41664e-15 0)
(3 4.55897e-15 0)
(3 4.85405e-15 0)
(3 4.05883e-15 0)
(3 3.43629e-15 0)
(3 1.3966e-15 0)
(3 4.53194e-17 0)
(3 4.26111e-16 0)
(3 7.89154e-16 0)
(3 5.3489e-16 0)
(3 4.43503e-15 0)
(3 3.5862e-15 0)
(3 3.3678e-15 0)
(3 4.60548e-15 0)
(3 5.47762e-15 0)
(3 4.89308e-15 0)
(3 3.7204e-15 0)
(3 3.34368e-15 0)
(3 1.98673e-15 0)
(3 6.75532e-16 0)
(3 2.72434e-15 0)
(3 1.43783e-15 0)
(3 9.53127e-16 0)
(3 2.01849e-15 0)
(3 3.13169e-15 0)
(3 4.9556e-15 0)
(3 5.05334e-15 0)
(3 4.68889e-15 0)
(3 2.15937e-15 0)
(3 4.90567e-16 0)
(3 1.5529e-15 0)
(3 6.81567e-16 0)
(3 -2.05097e-16 0)
(3 -1.55071e-16 0)
(3 9.40759e-16 0)
(3 1.33892e-15 0)
(3 2.10469e-15 0)
(3 2.27014e-15 0)
(3 3.339e-16 0)
(3 -1.22056e-15 0)
(3 1.01659e-15 0)
(3 2.0572e-17 0)
(3 -6.45224e-17 0)
(3 -2.25423e-16 0)
(3 -8.11695e-16 0)
(3 -8.21716e-16 0)
(3 -3.25645e-16 0)
(3 5.84449e-16 0)
(3 -5.15912e-16 0)
(3 -1.03775e-15 0)
(3 1.53986e-16 0)
(3 -1.02771e-15 0)
(3 -9.97175e-16 0)
(3 -1.59692e-15 0)
(3 -2.08251e-15 0)
(3 -8.88488e-16 0)
(3 -1.53856e-15 0)
(3 -1.75837e-15 0)
(3 2.67334e-17 0)
(3 1.25261e-15 0)
(3 -1.06664e-16 0)
(3 -1.27389e-15 0)
(3 -2.50917e-15 0)
(3 -3.53157e-15 0)
(3 -3.91188e-15 0)
(3 -4.13755e-15 0)
(3 -5.30769e-15 0)
(3 -6.33508e-15 0)
(3 -2.91101e-15 0)
(3 -5.62625e-16 0)
(3 -8.00123e-16 0)
(3 -1.16893e-15 0)
(3 -9.00624e-16 0)
(3 -1.31446e-15 0)
(3 -1.64105e-15 0)
(3 -3.51284e-15 0)
(3 -3.74359e-15 0)
(3 -2.92174e-15 0)
(3 -1.60243e-15 0)
(3 -1.37018e-15 0)
(3 1.08032e-16 0)
(3 9.75716e-16 0)
(3 9.77555e-16 0)
(3 9.3623e-16 0)
(3 8.19231e-16 0)
(3 -4.00471e-16 0)
(3 -3.86714e-16 0)
(3 5.23186e-16 0)
(3 3.26523e-16 0)
(3 5.16303e-17 0)
(3 -7.3693e-16 0)
(3 2.57684e-16 0)
(3 4.48829e-16 0)
(3 4.67733e-16 0)
(3 4.70903e-16 0)
(3 1.35497e-15 0)
(3 1.38266e-15 0)
(3 2.15236e-15 0)
(3 1.18631e-15 0)
(3 9.33997e-17 0)
(3 -3.98838e-15 0)
(3 -3.70451e-15 0)
(3 -2.99078e-15 0)
(3 -1.8521e-15 0)
(3 -1.44497e-15 0)
(3 5.29129e-16 0)
(3 7.54167e-16 0)
(3 3.19509e-16 0)
(3 -2.35803e-16 0)
(3 -1.10837e-15 0)
(3 -2.31596e-15 0)
(3 -2.70855e-15 0)
(3 -2.37752e-15 0)
(3 -2.41661e-15 0)
(3 -2.43026e-15 0)
(3 -1.68675e-15 0)
(3 -9.34656e-16 0)
(3 -1.58813e-15 0)
(3 -1.11016e-15 0)
(3 5.17016e-16 0)
(3 2.58582e-15 0)
(3 2.71806e-15 0)
(3 2.24068e-15 0)
(3 1.40893e-15 0)
(3 -1.29963e-16 0)
(3 -1.49365e-15 0)
(3 -9.05488e-16 0)
(3 -1.26426e-17 0)
(3 2.76697e-16 0)
(3 5.10421e-16 0)
(3 3.05707e-15 0)
(3 3.77316e-15 0)
(3 3.32647e-15 0)
(3 3.12782e-15 0)
(3 2.47397e-15 0)
(3 2.03149e-15 0)
(3 1.62261e-15 0)
(3 1.63488e-15 0)
(3 2.4338e-18 0)
(3 -2.55869e-16 0)
(3 -4.0818e-17 0)
(3 -2.72996e-17 0)
(3 7.59963e-16 0)
(3 2.02014e-15 0)
(3 2.67671e-15 0)
(3 2.75743e-15 0)
(3 2.61617e-15 0)
(3 2.00526e-15 0)
(3 1.85227e-15 0)
(3 4.81736e-16 0)
(3 -5.93765e-16 0)
(3 -6.45633e-16 0)
(3 -1.84103e-16 0)
(3 3.09139e-16 0)
(3 1.12073e-15 0)
(3 1.33021e-15 0)
(3 8.44266e-16 0)
(3 6.70919e-16 0)
(3 8.38892e-16 0)
(3 4.54574e-16 0)
(3 1.16664e-15 0)
(3 7.17394e-16 0)
(3 6.09678e-16 0)
(3 5.39917e-16 0)
(3 4.99198e-16 0)
(3 6.79264e-17 0)
(3 -7.07222e-16 0)
(3 -6.29788e-16 0)
(3 -8.8357e-16 0)
(3 -3.27905e-16 0)
(3 1.59393e-17 0)
(3 -7.89484e-16 0)
(3 -1.18572e-15 0)
(3 -1.21748e-15 0)
(3 -1.38603e-15 0)
(3 -1.79034e-15 0)
(3 -1.48823e-15 0)
(3 -1.21134e-15 0)
(3 -3.21852e-16 0)
(3 -7.80387e-17 0)
(3 -8.32746e-16 0)
(3 -1.61809e-15 0)
(3 -2.0562e-15 0)
(3 -1.78003e-15 0)
(3 -1.46649e-15 0)
(3 -8.09947e-16 0)
(3 -4.21571e-16 0)
(3 -3.9776e-16 0)
(3 -3.28976e-17 0)
(3 1.79285e-16 0)
(2.89885 -0.168344 0)
(3 -5.76221e-07 0)
(3 2.77068e-11 0)
(3 2.82947e-15 0)
(3 2.462e-15 0)
(3 1.87251e-15 0)
(3 3.32275e-16 0)
(3 -1.10257e-17 0)
(3 -1.6142e-15 0)
(3 -1.01261e-15 0)
(3 -1.90922e-15 0)
(3 -3.83387e-15 0)
(3 -1.90255e-15 0)
(3 2.58384e-15 0)
(3 3.57785e-15 0)
(3 1.41378e-17 0)
(3 -2.41442e-16 0)
(3 1.61913e-15 0)
(3 4.01556e-16 0)
(3 -5.08007e-16 0)
(1.35922 -0.5286 0)
(1.45845 -0.860875 0)
(2.86602 -0.319163 0)
(3 2.02016e-06 0)
(3 -7.69715e-12 0)
(3 2.12466e-15 0)
(3 -1.97128e-16 0)
(3 -5.71795e-16 0)
(3 -3.10171e-15 0)
(3 -2.49135e-15 0)
(3 -1.98979e-15 0)
(3 -3.84234e-15 0)
(3 -2.19258e-15 0)
(3 2.58122e-15 0)
(3 3.89469e-15 0)
(3 8.91299e-16 0)
(3 1.34447e-16 0)
(3 1.71747e-15 0)
(3 3.35638e-16 0)
(3 -3.02763e-16 0)
(1.26485 -0.796938 0)
(1.16987 -0.951063 0)
(1.42492 -0.92112 0)
(1.96304 -0.744322 0)
(2.95735 -0.0513148 0)
(3 -2.91035e-08 0)
(3 2.53683e-12 0)
(3 -2.6303e-15 0)
(3 -4.63729e-15 0)
(3 -4.04721e-15 0)
(3 -3.14741e-15 0)
(3 -3.79441e-15 0)
(3 -1.54696e-15 0)
(3 1.91191e-15 0)
(3 4.15723e-15 0)
(3 1.57021e-15 0)
(3 5.13899e-16 0)
(3 1.75794e-15 0)
(3 1.24556e-16 0)
(3 -3.85267e-16 0)
(1.33775 -0.869744 0)
(1.28355 -0.912347 0)
(1.31226 -0.887065 0)
(1.31491 -0.931589 0)
(1.6948 -0.804711 0)
(2.82692 -0.152655 0)
(3.00012 0.000277453 0)
(3 -6.5533e-10 0)
(3 -6.91045e-15 0)
(3 -4.2318e-15 0)
(3 -3.85304e-15 0)
(3 -4.62948e-15 0)
(3 5.82079e-16 0)
(3 1.94822e-15 0)
(3 4.54369e-15 0)
(3 1.43769e-15 0)
(3 8.55906e-16 0)
(3 1.79279e-15 0)
(3 2.75137e-16 0)
(3 -3.74608e-16 0)
(1.37122 -0.911182 0)
(1.34649 -0.92358 0)
(1.36563 -0.90991 0)
(1.35841 -0.921078 0)
(1.3953 -0.911021 0)
(1.69453 -0.813446 0)
(2.76407 -0.185776 0)
(3.00059 0.000508406 0)
(3 -3.11611e-07 0)
(3 6.05776e-11 0)
(3 -5.70205e-14 0)
(3 -4.20834e-15 0)
(3 2.62601e-15 0)
(3 2.30461e-15 0)
(3 4.83709e-15 0)
(3 1.35786e-15 0)
(3 1.1588e-15 0)
(3 1.77298e-15 0)
(3 -1.23608e-17 0)
(3 -6.16246e-16 0)
(1.40167 -0.935413 0)
(1.38526 -0.937084 0)
(1.38659 -0.9166 0)
(1.37922 -0.908218 0)
(1.39992 -0.909098 0)
(1.42031 -0.922446 0)
(1.77945 -0.813714 0)
(2.79375 -0.170955 0)
(3.00069 0.000669804 0)
(3 -1.93918e-06 0)
(3 5.03076e-09 0)
(3 -3.15314e-11 0)
(3 8.99957e-16 0)
(3 3.19523e-15 0)
(3 4.99317e-15 0)
(3 1.45041e-15 0)
(3 1.41896e-15 0)
(3 1.65149e-15 0)
(3 -3.83699e-16 0)
(3 -5.87376e-16 0)
(1.4064 -0.945139 0)
(1.39439 -0.937256 0)
(1.3908 -0.917467 0)
(1.38541 -0.916346 0)
(1.40204 -0.922242 0)
(1.40446 -0.939085 0)
(1.41417 -0.94225 0)
(1.85506 -0.751458 0)
(2.86417 -0.0975205 0)
(3.00054 0.000429872 0)
(3 -1.59873e-06 0)
(3 1.81028e-09 0)
(3 -1.81245e-15 0)
(3 4.59717e-15 0)
(3 3.83063e-15 0)
(3 1.33628e-15 0)
(3 1.4619e-15 0)
(3 1.8132e-15 0)
(3 -1.15959e-15 0)
(3 -1.27033e-15 0)
(1.40541 -0.945191 0)
(1.40121 -0.933888 0)
(1.39132 -0.924006 0)
(1.39025 -0.925126 0)
(1.40089 -0.93054 0)
(1.40565 -0.939466 0)
(1.43096 -0.951964 0)
(1.51798 -0.939079 0)
(2.13748 -0.639988 0)
(2.95546 -0.0377706 0)
(3.00021 0.000221291 0)
(3 -2.19403e-09 0)
(3 -4.7822e-14 0)
(3 5.98222e-15 0)
(3 3.6101e-15 0)
(3 1.89928e-15 0)
(3 1.43582e-15 0)
(3 2.73944e-15 0)
(3 -1.49591e-15 0)
(3 -2.62688e-15 0)
(1.40642 -0.945163 0)
(1.4039 -0.937877 0)
(1.39497 -0.93431 0)
(1.39799 -0.933176 0)
(1.41003 -0.936767 0)
(1.42285 -0.945576 0)
(1.45875 -0.954819 0)
(1.48 -0.980313 0)
(1.56555 -0.943096 0)
(2.39772 -0.474481 0)
(2.99502 -0.00620866 0)
(3 -5.94927e-09 0)
(3 1.83076e-12 0)
(3 -1.12073e-14 0)
(3 3.70094e-16 0)
(3 3.08337e-15 0)
(3 2.6839e-15 0)
(3 3.5201e-15 0)
(3 -1.5753e-15 0)
(3 -2.78799e-15 0)
(1.41261 -0.94829 0)
(1.40967 -0.948285 0)
(1.40543 -0.946807 0)
(1.40939 -0.945265 0)
(1.42255 -0.943825 0)
(1.43511 -0.950742 0)
(1.46134 -0.96059 0)
(1.4734 -0.98502 0)
(1.48062 -0.999865 0)
(1.65882 -0.892598 0)
(2.65572 -0.244864 0)
(3.00163 0.00110309 0)
(2.99999 -3.83506e-06 0)
(3 3.06328e-09 0)
(3 1.03136e-10 0)
(3 1.01905e-12 0)
(3 2.33993e-16 0)
(3 4.44576e-15 0)
(3 -1.20622e-15 0)
(3 -3.32506e-15 0)
(1.42557 -0.954559 0)
(1.4205 -0.963107 0)
(1.42163 -0.95657 0)
(1.42433 -0.955299 0)
(1.4349 -0.951601 0)
(1.44498 -0.954834 0)
(1.46417 -0.962774 0)
(1.47515 -0.980648 0)
(1.49314 -0.992977 0)
(1.56686 -0.962496 0)
(1.96934 -0.74483 0)
(2.87111 -0.0983344 0)
(3.00067 0.000573885 0)
(3 -1.62679e-08 0)
(3 -5.64942e-10 0)
(3 -8.84169e-14 0)
(3 7.33458e-15 0)
(3 3.52422e-15 0)
(3 -2.5162e-15 0)
(3 -3.90752e-15 0)
(1.44105 -0.96344 0)
(1.43519 -0.972791 0)
(1.43891 -0.964371 0)
(1.43866 -0.963952 0)
(1.44598 -0.959312 0)
(1.45437 -0.959697 0)
(1.471 -0.965038 0)
(1.49254 -0.979887 0)
(1.52682 -0.978515 0)
(1.55086 -0.993741 0)
(1.55835 -1.0164 0)
(2.30506 -0.538836 0)
(2.98413 -0.0161253 0)
(3 -3.24305e-08 0)
(3 8.7082e-12 0)
(3 1.79856e-13 0)
(3 -1.64235e-14 0)
(3 4.14638e-15 0)
(3 -3.21749e-15 0)
(3 -3.92319e-15 0)
(1.45439 -0.97283 0)
(1.44925 -0.979355 0)
(1.45423 -0.971072 0)
(1.4513 -0.972997 0)
(1.45666 -0.967217 0)
(1.46434 -0.965462 0)
(1.48371 -0.971726 0)
(1.51433 -0.981206 0)
(1.54493 -0.989887 0)
(1.55509 -1.0011 0)
(1.53582 -1.00322 0)
(1.83077 -0.865382 0)
(2.71824 -0.235132 0)
(3.00104 0.000812093 0)
(3.00001 1.06378e-05 0)
(3 3.02643e-08 0)
(3 7.27874e-11 0)
(3 -1.41534e-14 0)
(3 -4.24716e-15 0)
(3 -4.00613e-15 0)
(1.46245 -0.978878 0)
(1.45882 -0.982397 0)
(1.46392 -0.976324 0)
(1.46176 -0.977455 0)
(1.4659 -0.973229 0)
(1.47751 -0.969805 0)
(1.49607 -0.979787 0)
(1.52782 -0.988366 0)
(1.54796 -1.00081 0)
(1.55764 -1.0068 0)
(1.57012 -0.998622 0)
(1.64157 -0.983542 0)
(2.08541 -0.706866 0)
(2.92328 -0.0711307 0)
(2.99992 -0.000109257 0)
(3 -9.91244e-08 0)
(3 -8.85984e-11 0)
(3 3.62776e-15 0)
(3 4.02858e-15 0)
(3 -6.20374e-15 0)
(1.47495 -0.986571 0)
(1.47532 -0.988772 0)
(1.48135 -0.985636 0)
(1.48092 -0.986443 0)
(1.48417 -0.983353 0)
(1.49074 -0.980938 0)
(1.50624 -0.991481 0)
(1.53548 -0.999973 0)
(1.55021 -1.01147 0)
(1.56545 -1.00923 0)
(1.58379 -1.00943 0)
(1.5953 -1.03772 0)
(1.81244 -0.954829 0)
(2.70356 -0.27258 0)
(3.0182 0.0189559 0)
(3.00048 0.000576959 0)
(3 2.52365e-06 0)
(3 8.119e-09 0)
(3 3.16413e-11 0)
(3 1.16406e-13 0)
(2.04007 -0.853752 0)
(2.12236 -0.711671 0)
(1.92109 -0.841613 0)
(1.83523 -0.89878 0)
(1.77454 -0.92205 0)
(1.7217 -0.945396 0)
(1.68611 -0.964941 0)
(1.66927 -0.980935 0)
(1.65452 -0.998392 0)
(1.64691 -0.998787 0)
(1.64418 -1.0089 0)
(1.63475 -1.03536 0)
(1.67319 -1.00242 0)
(1.9124 -0.834198 0)
(2.73672 -0.264335 0)
(2.99385 -0.0127004 0)
(2.99996 -9.61515e-05 0)
(3 -4.4381e-07 0)
(3 -1.69969e-09 0)
(3 -5.59694e-12 0)
(2.58258 -0.889062 0)
(2.55258 -0.284739 0)
(2.30082 -0.553834 0)
(2.17709 -0.698653 0)
(2.04609 -0.80656 0)
(1.98306 -0.84149 0)
(1.88767 -0.899686 0)
(1.8527 -0.917617 0)
(1.79842 -0.960047 0)
(1.77739 -0.96545 0)
(1.75597 -0.988693 0)
(1.71345 -1.01302 0)
(1.70818 -0.99847 0)
(1.72492 -0.992225 0)
(2.0638 -0.797117 0)
(2.8455 -0.18145 0)
(2.99774 -0.00561522 0)
(2.99998 -4.01709e-05 0)
(3 -1.90487e-07 0)
(3 -6.95657e-10 0)
(2.8077 -0.18362 0)
(2.79699 0.154126 0)
(2.57552 -0.206123 0)
(2.43702 -0.413911 0)
(2.31689 -0.584329 0)
(2.185 -0.712565 0)
(2.10896 -0.776279 0)
(2.01465 -0.841506 0)
(1.96419 -0.881559 0)
(1.9052 -0.926252 0)
(1.88177 -0.941514 0)
(1.81702 -0.975739 0)
(1.78793 -0.978165 0)
(1.75999 -0.993078 0)
(1.81948 -0.979878 0)
(2.32837 -0.651368 0)
(2.92698 -0.098231 0)
(2.99921 -0.00156646 0)
(3 -8.4726e-06 0)
(3 -3.23462e-08 0)
(2.87143 0.0737895 0)
(2.83022 0.319409 0)
(2.66854 -0.144623 0)
(2.58262 -0.311928 0)
(2.51363 -0.396701 0)
(2.35753 -0.580071 0)
(2.29082 -0.64207 0)
(2.15757 -0.760047 0)
(2.10373 -0.802197 0)
(2.03013 -0.873052 0)
(1.99085 -0.893635 0)
(1.92192 -0.932028 0)
(1.89121 -0.941498 0)
(1.8233 -0.985546 0)
(1.82921 -0.986753 0)
(2.02778 -0.90002 0)
(2.69696 -0.368658 0)
(2.98783 -0.0247064 0)
(2.99991 -0.000209704 0)
(3 -8.37515e-07 0)
(2.76095 0.224984 0)
(2.79239 0.284799 0)
(2.71721 0.0431507 0)
(2.73536 0.0044853 0)
(2.61929 -0.275792 0)
(2.54086 -0.393565 0)
(2.40833 -0.541642 0)
(2.33552 -0.613866 0)
(2.21478 -0.727849 0)
(2.17685 -0.762514 0)
(2.08084 -0.843001 0)
(2.04367 -0.853724 0)
(1.9722 -0.907098 0)
(1.92364 -0.946585 0)
(1.87051 -0.987415 0)
(1.92006 -0.977386 0)
(2.2746 -0.746274 0)
(2.89344 -0.146714 0)
(2.99839 -0.00363875 0)
(2.99999 -1.82837e-05 0)
(2.82788 0.2016 0)
(2.82426 0.258228 0)
(2.78549 0.216223 0)
(2.76234 0.23621 0)
(2.70625 -0.0216779 0)
(2.6693 -0.145336 0)
(2.52735 -0.380636 0)
(2.46497 -0.452082 0)
(2.34987 -0.598322 0)
(2.28314 -0.658899 0)
(2.19837 -0.74866 0)
(2.13992 -0.783172 0)
(2.08436 -0.843343 0)
(2.01653 -0.895042 0)
(1.9408 -0.959382 0)
(1.93835 -0.972795 0)
(2.06526 -0.925031 0)
(2.5936 -0.47625 0)
(2.97903 -0.0328996 0)
(2.99983 -0.00028679 0)
(2.86265 0.182541 0)
(2.84318 0.186076 0)
(2.79579 0.215481 0)
(2.78044 0.247584 0)
(2.75615 0.04985 0)
(2.7195 -0.0845153 0)
(2.63684 -0.228749 0)
(2.53295 -0.396032 0)
(2.46061 -0.495532 0)
(2.3475 -0.626985 0)
(2.29484 -0.667857 0)
(2.21038 -0.756853 0)
(2.18354 -0.79236 0)
(2.08045 -0.873258 0)
(2.01709 -0.91601 0)
(1.97037 -0.960611 0)
(2.03349 -0.953255 0)
(2.37149 -0.702844 0)
(2.88658 -0.158607 0)
(2.99799 -0.00305091 0)
(2.87931 0.151032 0)
(2.86387 0.140946 0)
(2.80418 0.194559 0)
(2.79097 0.200865 0)
(2.76001 0.083276 0)
(2.73954 -0.042958 0)
(2.71115 -0.146021 0)
(2.58727 -0.344757 0)
(2.5455 -0.407831 0)
(2.42592 -0.557484 0)
(2.35996 -0.618858 0)
(2.29668 -0.696858 0)
(2.25548 -0.761649 0)
(2.17184 -0.826684 0)
(2.09182 -0.870096 0)
(2.03315 -0.926676 0)
(2.0494 -0.944647 0)
(2.21475 -0.851604 0)
(2.72473 -0.370005 0)
(2.98439 -0.0220901 0)
(2.86352 0.146356 0)
(2.83975 0.138775 0)
(2.80088 0.173229 0)
(2.79945 0.194282 0)
(2.80179 0.12324 0)
(2.82025 0.135143 0)
(2.77239 -0.00427534 0)
(2.69514 -0.172465 0)
(2.62518 -0.270466 0)
(2.5421 -0.398411 0)
(2.44506 -0.514196 0)
(2.38859 -0.581572 0)
(2.33302 -0.684835 0)
(2.26004 -0.747915 0)
(2.18127 -0.798792 0)
(2.11312 -0.868174 0)
(2.08224 -0.932234 0)
(2.1319 -0.940743 0)
(2.45509 -0.683091 0)
(2.91463 -0.0999583 0)
(2.84224 0.154317 0)
(2.83544 0.152332 0)
(2.82584 0.165254 0)
(2.8247 0.191419 0)
(2.84014 0.180517 0)
(2.84497 0.227911 0)
(2.80272 0.0776012 0)
(2.7636 -0.00398322 0)
(2.66823 -0.191814 0)
(2.60472 -0.272603 0)
(2.50754 -0.425679 0)
(2.44359 -0.515222 0)
(2.39862 -0.612758 0)
(2.31939 -0.700815 0)
(2.24208 -0.766117 0)
(2.16075 -0.8478 0)
(2.11697 -0.922128 0)
(2.13978 -0.946512 0)
(2.35421 -0.808049 0)
(2.78679 -0.227071 0)
(2.84312 0.156631 0)
(2.84167 0.154514 0)
(2.8368 0.163165 0)
(2.83745 0.181438 0)
(2.85104 0.187394 0)