/*--------------------------------*- C++ -*----------------------------------*\
  =========                 |
  \\      /  F ield         | OpenFOAM: The Open Source CFD Toolbox
   \\    /   O peration     | Website:  https://openfoam.org
    \\  /    A nd           | Version:  7
     \\/     M anipulation  |
\*---------------------------------------------------------------------------*/
FoamFile
{
    version     2.0;
    format      ascii;
    class       volScalarField;
    location    "0.63";
    object      T;
}
// * * * * * * * * * * * * * * * * * * * * * * * * * * * * * * * * * * * * * //

dimensions      [0 0 0 1 0 0 0];

internalField   nonuniform List<scalar> 
324000
(
0.814694
0.938453
1.02159
1.10307
1.15545
1.15234
1.13025
1.12015
1.10587
1.10534
1.11156
1.11332
1.11162
1.11051
1.11142
1.11317
1.11373
1.1131
1.11072
1.10765
1.10499
1.10332
1.10368
1.10489
1.10522
1.10477
1.10335
1.10123
1.09916
1.09747
1.09639
1.09583
1.09533
1.09416
1.09216
1.09049
1.08925
1.08735
1.08434
1.07989
1.07387
1.06847
1.06313
1.0576
1.05267
1.04773
1.0425
1.03765
1.03301
1.02801
1.02464
1.02276
1.01974
1.01865
1.02046
1.02506
1.03121
1.0305
1.02586
1.01243
1.00091
1.00593
1.01111
1.00904
1.00075
0.991219
0.989172
0.988811
0.989321
0.991244
0.994268
0.997338
0.999348
0.999982
1.00003
1.00002
1.00001
1
1
1
0.558537
0.562243
0.624652
0.858569
1.039
1.13261
1.15352
1.16151
1.14944
1.13916
1.13539
1.13118
1.13134
1.13352
1.13668
1.13804
1.13757
1.13633
1.13441
1.13187
1.1306
1.13035
1.13095
1.13234
1.13318
1.13304
1.13199
1.13008
1.12823
1.12687
1.1256
1.12574
1.12583
1.12514
1.12391
1.12248
1.12128
1.11963
1.11644
1.11206
1.1065
1.10119
1.09614
1.09091
1.08623
1.08135
1.07554
1.07007
1.0645
1.06006
1.05837
1.05758
1.05497
1.05269
1.05308
1.05565
1.05788
1.05452
1.04416
1.02645
1.00759
1.0082
1.01105
1.00965
1.00094
0.991386
0.988723
0.988365
0.988981
0.991004
0.994089
0.997214
0.999291
0.999968
1.00003
1.00002
1.00001
1
1
1
0.557681
0.556656
0.555908
0.555286
0.636598
0.837285
1.02974
1.14387
1.15881
1.1589
1.15597
1.15036
1.14533
1.14595
1.14579
1.14484
1.14323
1.14285
1.14296
1.14098
1.14035
1.14053
1.14096
1.14149
1.14212
1.14242
1.14186
1.14072
1.13983
1.14004
1.14009
1.13985
1.13947
1.13904
1.13901
1.13875
1.13821
1.13685
1.13399
1.13056
1.12621
1.1222
1.11829
1.11407
1.11001
1.1057
1.10059
1.09569
1.09303
1.09183
1.09171
1.09163
1.09025
1.08745
1.08544
1.08397
1.08029
1.07219
1.05742
1.03866
1.01811
1.01123
1.01254
1.01117
1.00121
0.991343
0.988169
0.987906
0.988636
0.990773
0.993918
0.997092
0.999233
0.999954
1.00002
1.00002
1
1
1
1
0.556199
0.555607
0.555278
0.55509
0.555097
0.555139
0.649513
0.841322
1.01104
1.11063
1.15278
1.15892
1.15285
1.14723
1.14395
1.143
1.14306
1.14298
1.14384
1.14314
1.14289
1.14285
1.14241
1.14161
1.14203
1.14258
1.14223
1.14193
1.14144
1.14212
1.14348
1.14363
1.14291
1.14216
1.1424
1.14278
1.14278
1.14152
1.13866
1.13575
1.13235
1.12936
1.12677
1.12388
1.12118
1.11856
1.11573
1.11381
1.11371
1.11571
1.11871
1.11898
1.11694
1.11226
1.10642
1.09891
1.08855
1.076
1.0604
1.04289
1.02733
1.01587
1.01598
1.01339
1.00151
0.991026
0.987586
0.987451
0.988296
0.990545
0.993749
0.996969
0.999176
0.999941
1.00002
1.00001
1
1
1
1
0.555396
0.555146
0.555042
0.555044
0.555112
0.555368
0.555868
0.556191
0.647898
0.825438
0.998345
1.10507
1.13434
1.14467
1.13899
1.13852
1.13869
1.1391
1.14052
1.14131
1.14152
1.1417
1.14137
1.14104
1.14115
1.1411
1.14084
1.14081
1.14117
1.14231
1.14356
1.1437
1.14278
1.14196
1.14209
1.14263
1.14258
1.1411
1.13824
1.13583
1.13274
1.12963
1.1272
1.12523
1.12387
1.12271
1.12182
1.12229
1.12473
1.12911
1.1318
1.13135
1.12804
1.12108
1.112
1.10103
1.08629
1.07134
1.05692
1.04196
1.03151
1.02163
1.02049
1.01566
1.00173
0.99047
0.987039
0.987017
0.987972
0.990318
0.993573
0.996844
0.999119
0.999928
1.00002
1.00001
1
1
1
1
0.554988
0.554988
0.555044
0.555245
0.555603
0.556128
0.556536
0.556955
0.557321
0.557422
0.648961
0.83271
0.999163
1.10496
1.11668
1.13354
1.13393
1.13539
1.138
1.13779
1.13837
1.1395
1.139
1.13833
1.13821
1.13807
1.13802
1.13814
1.1388
1.14006
1.14138
1.14117
1.14073
1.1403
1.14071
1.14146
1.14136
1.13961
1.13686
1.13438
1.13144
1.12857
1.12637
1.12456
1.12333
1.12337
1.12437
1.12662
1.13092
1.13527
1.13546
1.1333
1.1282
1.12012
1.10954
1.09481
1.07267
1.05348
1.04328
1.03628
1.03178
1.02622
1.02479
1.01735
1.00169
0.989819
0.986569
0.986621
0.987666
0.99009
0.993389
0.996714
0.999063
0.999916
1.00001
1.00001
1
1
1
1
0.555001
0.555154
0.555462
0.555885
0.556382
0.556787
0.557122
0.557378
0.557499
0.557563
0.557585
0.557592
0.656172
0.854897
1.01189
1.1046
1.1164
1.12931
1.13532
1.13177
1.1333
1.1348
1.13476
1.13527
1.13576
1.13612
1.13679
1.13728
1.13764
1.13743
1.1372
1.13676
1.13688
1.1375
1.13799
1.13853
1.1381
1.13631
1.13365
1.1312
1.12868
1.12622
1.1244
1.12284
1.12226
1.12308
1.12616
1.13065
1.13503
1.13787
1.13608
1.131
1.1237
1.11274
1.09813
1.07784
1.05041
1.0305
1.02641
1.02631
1.02875
1.02803
1.0273
1.01804
1.00129
0.989133
0.986146
0.986253
0.987376
0.989863
0.993197
0.99658
0.999007
0.999904
1.00001
1.00001
1
1
1
1
0.555373
0.555759
0.556202
0.556637
0.556999
0.557267
0.557446
0.557526
0.557568
0.557593
0.557605
0.557633
0.557654
0.558898
0.679514
0.879101
1.01734
1.10059
1.12128
1.12268
1.1299
1.13138
1.13086
1.13128
1.13161
1.13211
1.13288
1.13346
1.13332
1.13235
1.13117
1.1309
1.13172
1.13327
1.13388
1.13388
1.13315
1.13114
1.12883
1.12696
1.12439
1.12217
1.12108
1.1211
1.12203
1.12443
1.12847
1.13223
1.13562
1.13628
1.13259
1.12374
1.11194
1.09827
1.07931
1.05316
1.02094
1.00325
1.00469
1.00971
1.01924
1.02687
1.02634
1.01683
1.00024
0.988375
0.985723
0.985888
0.987101
0.989639
0.992998
0.996443
0.998953
0.999893
1.00001
1.00001
1
1
1
1
0.55608
0.556505
0.556885
0.557173
0.557379
0.557507
0.557553
0.557575
0.557578
0.557599
0.557634
0.557665
0.557694
0.557721
0.557738
0.564975
0.710415
0.897493
1.04427
1.09434
1.12019
1.12306
1.12733
1.12795
1.12677
1.12667
1.12693
1.12774
1.12752
1.12668
1.12588
1.12645
1.12802
1.12928
1.12942
1.1292
1.12845
1.12693
1.12575
1.12403
1.12132
1.11936
1.11908
1.11997
1.12198
1.1253
1.12889
1.1309
1.13292
1.13144
1.12565
1.1136
1.09581
1.07502
1.05241
1.02722
0.999224
0.984983
0.987691
0.995654
1.00879
1.02197
1.0225
1.01403
0.998488
0.987508
0.985262
0.98551
0.986836
0.989422
0.992796
0.996305
0.998901
0.999883
1.00001
1.00001
1
1
1
1
0.556818
0.557118
0.557343
0.557462
0.557529
0.557561
0.557569
0.557582
0.557613
0.557641
0.557669
0.557693
0.557718
0.557742
0.557782
0.557832
0.557881
0.573229
0.733502
0.935419
1.07099
1.09695
1.12154
1.12352
1.12376
1.12341
1.12187
1.12179
1.12268
1.12292
1.12354
1.1248
1.12604
1.12616
1.12619
1.12598
1.12523
1.12406
1.12305
1.12105
1.11825
1.11765
1.11806
1.11962
1.12172
1.12475
1.12731
1.12829
1.12856
1.12467
1.11421
1.09706
1.07535
1.05211
1.03009
1.01014
0.989248
0.977295
0.977447
0.982529
0.993712
1.00905
1.01299
1.00758
0.995801
0.986478
0.984742
0.985116
0.986581
0.989208
0.992592
0.996167
0.998851
0.999874
1.00001
1.00001
1
1
1
1
0.557339
0.557443
0.557509
0.557531
0.557534
0.557552
0.557593
0.557629
0.557658
0.55768
0.557695
0.557715
0.557742
0.55779
0.557856
0.557931
0.55801
0.558072
0.558109
0.603462
0.781125
0.965178
1.10162
1.11578
1.12055
1.12064
1.1157
1.11658
1.11863
1.1205
1.12379
1.12536
1.12475
1.1242
1.12441
1.1246
1.12396
1.12279
1.12178
1.11987
1.11719
1.11698
1.11774
1.11893
1.12103
1.12347
1.12519
1.12481
1.12253
1.11608
1.10185
1.07988
1.05508
1.03181
1.01385
0.999108
0.983424
0.973708
0.97131
0.973458
0.982126
0.997923
1.00449
1.00085
0.992124
0.985173
0.984203
0.984726
0.98634
0.988996
0.992384
0.996033
0.998805
0.999867
1
1.00001
1
1
1
1
0.557505
0.557508
0.557513
0.557532
0.557578
0.557616
0.557646
0.557672
0.55769
0.557706
0.55772
0.55775
0.55781
0.557884
0.557954
0.558024
0.558092
0.558146
0.558197
0.558237
0.558293
0.638688
0.85567
1.02163
1.0934
1.11837
1.1147
1.12051
1.1206
1.12218
1.12562
1.12582
1.1245
1.12345
1.12434
1.12462
1.12397
1.12282
1.12151
1.11935
1.11659
1.1166
1.11721
1.11857
1.12093
1.12282
1.12263
1.12028
1.11524
1.10494
1.08667
1.06255
1.03816
1.01771
1.00366
0.991463
0.979893
0.972573
0.968437
0.96849
0.972672
0.983562
0.99182
0.991721
0.987687
0.983819
0.983603
0.984338
0.986115
0.988777
0.992171
0.995904
0.998765
0.99986
1
1.00001
1
1
1
1
0.557513
0.557543
0.557586
0.557615
0.557641
0.557663
0.557682
0.557697
0.557708
0.557726
0.557772
0.557838
0.557909
0.557979
0.558047
0.558112
0.558162
0.558208
0.55826
0.558332
0.558443
0.558511
0.559998
0.718935
0.923171
1.0827
1.11372
1.13106
1.12543
1.12469
1.1265
1.12511
1.12284
1.12387
1.12527
1.12517
1.12391
1.12218
1.12028
1.11809
1.11701
1.11761
1.11879
1.11973
1.12204
1.12222
1.12001
1.11486
1.10681
1.0922
1.07051
1.04651
1.02493
1.00905
0.998517
0.987685
0.978317
0.972448
0.968258
0.966427
0.967688
0.973003
0.981202
0.984453
0.983558
0.982478
0.982863
0.983988
0.985891
0.988534
0.991951
0.995786
0.998735
0.999856
1
1
1
1
1
1
0.557578
0.557603
0.557627
0.557651
0.557672
0.557687
0.5577
0.557719
0.557755
0.557809
0.55787
0.557935
0.558001
0.558067
0.55813
0.55818
0.558221
0.558264
0.558322
0.558402
0.558506
0.558611
0.55871
0.558783
0.591505
0.794127
1.00897
1.12078
1.12012
1.12284
1.12548
1.12034
1.12216
1.12554
1.12693
1.126
1.12459
1.1232
1.12172
1.12012
1.12039
1.12137
1.12179
1.12282
1.12333
1.12221
1.11774
1.10979
1.09691
1.07703
1.05333
1.03169
1.0149
1.00403
0.995471
0.98579
0.977543
0.972182
0.968412
0.966616
0.96652
0.968617
0.974564
0.97944
0.980651
0.981237
0.982222
0.983637
0.985603
0.988247
0.99173
0.995679
0.998713
0.999854
1
1
1
1
1
1
0.557625
0.557648
0.557665
0.557676
0.557689
0.557709
0.557742
0.55779
0.557847
0.557905
0.557966
0.558029
0.558091
0.558149
0.558197
0.558238
0.558277
0.558323
0.558378
0.558447
0.558536
0.558624
0.558712
0.5588
0.558916
0.559018
0.679148
0.905141
1.03848
1.11292
1.11746
1.11717
1.12521
1.1292
1.12789
1.1272
1.12716
1.12662
1.12495
1.12482
1.12597
1.12653
1.12592
1.12571
1.12484
1.12154
1.11425
1.10201
1.0841
1.06165
1.03924
1.02019
1.00651
0.998678
0.991751
0.983351
0.976243
0.971454
0.968206
0.966666
0.966319
0.96758
0.971871
0.976551
0.978814
0.980227
0.981584
0.983186
0.985218
0.987918
0.991516
0.995596
0.998685
0.999849
1
1
1
1
1
1
0.557656
0.557674
0.55769
0.557709
0.557737
0.557777
0.557825
0.557878
0.557938
0.557999
0.55806
0.558119
0.558172
0.558218
0.558254
0.558292
0.558333
0.558382
0.558436
0.55849
0.558562
0.558625
0.558663
0.558708
0.55877
0.558869
0.559006
0.575496
0.774348
1.00039
1.08976
1.11435
1.13478
1.13262
1.12856
1.12982
1.13151
1.13173
1.12988
1.13012
1.13095
1.13007
1.12895
1.12736
1.12427
1.11736
1.10616
1.08983
1.06871
1.04573
1.02576
1.01043
1.00042
0.994245
0.987901
0.980344
0.974183
0.970111
0.967512
0.966326
0.966285
0.967466
0.971061
0.975274
0.977777
0.979437
0.980925
0.982629
0.984747
0.987562
0.991302
0.995518
0.998686
0.999852
0.999999
1
1
1
1
1
0.557692
0.557713
0.557735
0.557769
0.557814
0.557863
0.557916
0.557974
0.558033
0.558091
0.558147
0.558197
0.558242
0.558279
0.558311
0.558349
0.558394
0.558445
0.558496
0.558545
0.558601
0.55864
0.558646
0.558636
0.558621
0.558622
0.558705
0.558867
0.55897
0.649634
0.900025
1.0743
1.13048
1.12528
1.12949
1.13548
1.13785
1.13732
1.13448
1.13357
1.13284
1.13193
1.12979
1.12657
1.11902
1.10716
1.09238
1.07438
1.05358
1.03288
1.01511
1.00346
0.99724
0.991951
0.985177
0.977831
0.972287
0.96873
0.966659
0.966047
0.966209
0.967453
0.970787
0.97462
0.977198
0.978864
0.98032
0.982043
0.984237
0.987196
0.991113
0.995434
0.998672
0.999853
0.999999
1
1
1
1
1
0.557738
0.55777
0.557809
0.557854
0.557903
0.557958
0.558016
0.558075
0.558131
0.55818
0.558224
0.558262
0.558302
0.558343
0.558377
0.558414
0.558459
0.558509
0.558556
0.558603
0.55865
0.558671
0.558656
0.558624
0.558579
0.558513
0.558514
0.558534
0.558528
0.558545
0.578857
0.787511
1.01936
1.0901
1.12893
1.14257
1.14225
1.13897
1.13531
1.13464
1.13285
1.13019
1.12721
1.12101
1.10856
1.09362
1.0764
1.05709
1.03839
1.0222
1.00862
1.00075
0.996056
0.990248
0.982786
0.97576
0.970796
0.967652
0.965971
0.965629
0.965894
0.967448
0.970791
0.974026
0.976333
0.978004
0.979613
0.981456
0.983754
0.986839
0.990904
0.995393
0.998692
0.999857
0.999999
1
1
1
1
1
0.557813
0.557855
0.557901
0.557952
0.558008
0.558064
0.558117
0.558168
0.558214
0.558252
0.558285
0.558322
0.558369
0.558413
0.558444
0.558482
0.558527
0.558577
0.558628
0.558676
0.55871
0.55871
0.558687
0.558647
0.558594
0.55851
0.558483
0.558431
0.558345
0.558269
0.558182
0.557808
0.676767
0.938359
1.11514
1.14447
1.14401
1.13442
1.1346
1.13388
1.13039
1.12489
1.1197
1.10902
1.09318
1.07735
1.05992
1.04209
1.0264
1.0143
1.00505
0.99984
0.994696
0.987839
0.980167
0.9739
0.969385
0.966604
0.965435
0.965258
0.965615
0.967431
0.970632
0.973509
0.975542
0.97717
0.97889
0.980842
0.983254
0.986502
0.990716
0.995318
0.998698
0.999862
0.999998
1
1
1
1
1
0.557909
0.55796
0.558012
0.558064
0.558115
0.558164
0.558207
0.558245
0.558278
0.558312
0.558349
0.558392
0.558445
0.558484
0.558512
0.558554
0.558611
0.558677
0.558758
0.558816
0.558829
0.558831
0.558808
0.558783
0.558742
0.55864
0.558544
0.558444
0.558339
0.558236
0.558085
0.557968
0.556761
0.604837
0.875075
1.05617
1.13319
1.13002
1.13564
1.13215
1.12405
1.11763
1.108
1.09328
1.07685
1.06115
1.04412
1.02831
1.01772
1.0102
1.00336
0.998185
0.991982
0.984445
0.977294
0.971898
0.967846
0.96545
0.964857
0.964871
0.965283
0.96716
0.970074
0.972717
0.974711
0.97641
0.978225
0.980282
0.982791
0.986141
0.990531
0.995339
0.998726
0.999869
0.999998
1
1
1
1
1
0.558028
0.558078
0.558127
0.55817
0.558208
0.558246
0.558279
0.55831
0.558343
0.558381
0.558422
0.558469
0.558521
0.558558
0.558596
0.558649
0.558723
0.558813
0.558929
0.559012
0.559035
0.559058
0.559066
0.559087
0.559097
0.559039
0.558945
0.558847
0.558754
0.558615
0.558442
0.557912
0.556718
0.553798
0.559315
0.799874
1.05461
1.1199
1.14334
1.13205
1.11636
1.10506
1.09034
1.0746
1.06211
1.04872
1.03207
1.01797
1.01253
1.00704
1.00147
0.995554
0.987881
0.980361
0.974373
0.969785
0.966302
0.964323
0.96412
0.964282
0.964872
0.966565
0.969225
0.971698
0.973628
0.975396
0.977319
0.979542
0.982271
0.985815
0.990328
0.995286
0.998753
0.999876
0.999998
1
1
1
1
1
0.558143
0.558183
0.558219
0.558251
0.558279
0.558309
0.558343
0.558378
0.558418
0.558458
0.5585
0.55855
0.558601
0.558648
0.558693
0.558751
0.558836
0.558941
0.559061
0.559177
0.559221
0.559251
0.559302
0.559342
0.559383
0.559386
0.559311
0.559216
0.55904
0.55884
0.558269
0.556677
0.554545
0.552618
0.551982
0.551959
0.708018
0.982613
1.11415
1.11039
1.10474
1.09466
1.07484
1.05894
1.05067
1.03883
1.02427
1.01525
1.01036
1.00316
0.997163
0.990872
0.983017
0.97641
0.971946
0.967869
0.964911
0.963381
0.963176
0.963397
0.964261
0.965808
0.968114
0.97065
0.972796
0.974645
0.976558
0.978819
0.981665
0.985406
0.990222
0.995341
0.998796
0.999885
0.999998
1
1
1
1
1
0.558232
0.55826
0.558286
0.558311
0.558341
0.558376
0.558414
0.558455
0.558497
0.55854
0.558586
0.558637
0.558686
0.558735
0.558783
0.558843
0.558929
0.559033
0.559142
0.559261
0.55932
0.559344
0.559396
0.559431
0.559459
0.559475
0.559401
0.559274
0.559062
0.55846
0.556787
0.554536
0.552699
0.551601
0.55153
0.551824
0.55281
0.641686
0.878297
1.03745
1.07721
1.0727
1.05793
1.05029
1.04328
1.03138
1.02099
1.01582
1.00838
0.998901
0.992334
0.985515
0.977678
0.973164
0.970155
0.966359
0.963683
0.962467
0.961941
0.962032
0.963025
0.964893
0.966973
0.969182
0.971408
0.973716
0.976
0.978339
0.981219
0.985052
0.990021
0.995354
0.998844
0.999895
0.999999
1
1
1
1
1
0.558297
0.55832
0.558347
0.558374
0.55841
0.55845
0.558493
0.558537
0.558582
0.558626
0.558669
0.558709
0.558742
0.558777
0.558824
0.558889
0.558975
0.559075
0.559173
0.559285
0.559345
0.55936
0.559402
0.559433
0.559448
0.559461
0.559388
0.559165
0.558304
0.556452
0.554423
0.552246
0.551397
0.551326
0.551395
0.552345
0.555826
0.559353
0.577292
0.775515
0.950873
1.02876
1.03275
1.04336
1.038
1.02675
1.01932
1.01351
1.00243
0.991882
0.986539
0.97994
0.973105
0.971566
0.96893
0.964992
0.962386
0.96122
0.960468
0.960503
0.961466
0.963593
0.965923
0.967876
0.969947
0.972368
0.974914
0.977566
0.980656
0.984722
0.990038
0.995438
0.998902
0.999905
0.999999
1
1
1
1
1
0.558356
0.558387
0.558421
0.558457
0.558497
0.55854
0.558586
0.55863
0.558672
0.558704
0.558726
0.558745
0.558762
0.55878
0.558821
0.558876
0.558955
0.559054
0.559144
0.559259
0.559312
0.559295
0.559347
0.559383
0.559347
0.55926
0.558708
0.557563
0.555802
0.553771
0.552082
0.551076
0.551074
0.551377
0.5523
0.555301
0.560168
0.565983
0.571747
0.575818
0.660973
0.823539
0.969325
1.0294
1.02259
1.01596
1.01584
1.01045
0.995276
0.984904
0.980532
0.975136
0.972653
0.971345
0.967725
0.963455
0.960675
0.959421
0.958888
0.959021
0.959842
0.961878
0.964543
0.967074
0.96932
0.971466
0.973837
0.976643
0.980039
0.984347
0.989881
0.995511
0.99897
0.999916
0.999999
1
1
1
1
1
0.558435
0.558473
0.558514
0.558555
0.558595
0.558633
0.55867
0.558707
0.55874
0.558749
0.558752
0.558762
0.558777
0.55879
0.558822
0.558854
0.558878
0.558922
0.558948
0.558992
0.558975
0.558854
0.558847
0.558759
0.558447
0.557765
0.556574
0.554957
0.553232
0.551613
0.550979
0.550962
0.551121
0.552654
0.556248
0.560222
0.56458
0.570362
0.5763
0.582305
0.588109
0.595965
0.72087
0.86238
0.943053
0.997336
1.00575
1.00216
0.982617
0.982174
0.979377
0.974888
0.974289
0.970973
0.965789
0.961479
0.958496
0.957397
0.957513
0.957924
0.958644
0.960234
0.962741
0.965574
0.968251
0.970735
0.973226
0.975978
0.979439
0.984095
0.98995
0.995641
0.999044
0.999928
0.999999
1
1
1
1
1
0.558538
0.558578
0.558616
0.55865
0.558678
0.558705
0.55873
0.558757
0.558777
0.558771
0.558772
0.558789
0.558815
0.558838
0.558874
0.558876
0.558858
0.558816
0.558736
0.558634
0.558521
0.558319
0.55807
0.557695
0.556993
0.555991
0.554624
0.552783
0.551298
0.550889
0.550899
0.551437
0.553261
0.555731
0.559613
0.564907
0.570613
0.575942
0.581483
0.587019
0.592676
0.598579
0.60368
0.625304
0.735691
0.865819
0.933202
0.972605
0.972296
0.984871
0.980319
0.977053
0.974129
0.968475
0.962999
0.958868
0.955917
0.955665
0.956207
0.956905
0.957932
0.959243
0.961118
0.963742
0.966598
0.969349
0.972128
0.975228
0.978908
0.983691
0.989882
0.995785
0.999128
0.999939
0.999999
1
1
1
1
1
0.558637
0.558666
0.558692
0.558713
0.558733
0.558755
0.558776
0.558802
0.558814
0.558805
0.558814
0.558849
0.558904
0.558937
0.558942
0.558931
0.558872
0.558777
0.558645
0.558458
0.558242
0.557927
0.557428
0.55679
0.555778
0.554356
0.552541
0.551181
0.550848
0.550969
0.551722
0.553772
0.557006
0.56053
0.564186
0.569258
0.574946
0.580517
0.586052
0.591766
0.597867
0.604107
0.610077
0.616127
0.621178
0.64849
0.745388
0.848485
0.938988
0.977598
0.972492
0.974893
0.971892
0.96359
0.958986
0.955684
0.954112
0.954432
0.954931
0.955333
0.956251
0.957888
0.960039
0.962373
0.964981
0.967829
0.970858
0.974204
0.978257
0.983601
0.99001
0.995973
0.999216
0.99995
1
1
1
1
1
1
0.558702
0.558718
0.558738
0.55876
0.558782
0.558811
0.55884
0.558867
0.558884
0.558896
0.55892
0.558968
0.559058
0.559118
0.559104
0.55907
0.558977
0.558855
0.55871
0.558468
0.558219
0.557741
0.556979
0.555763
0.554082
0.552401
0.55125
0.550995
0.551345
0.552453
0.554969
0.557103
0.559972
0.564971
0.57001
0.574494
0.579614
0.585327
0.59128
0.597323
0.603149
0.609055
0.615412
0.621517
0.627592
0.633705
0.639796
0.662185
0.75806
0.851069
0.917719
0.965678
0.963829
0.953793
0.95531
0.952526
0.951999
0.953322
0.952812
0.95275
0.953447
0.955472
0.958232
0.961047
0.963788
0.966669
0.969887
0.97343
0.977609
0.983235
0.990093
0.996194
0.999311
0.99996
1
1
1
1
1
1
0.558733
0.558756
0.558786
0.558818
0.55885
0.55889
0.558936
0.558967
0.558993
0.559041
0.559069
0.559092
0.55914
0.559214
0.55921
0.559174
0.559139
0.559037
0.558896
0.558633
0.558225
0.557283
0.555719
0.55369
0.552297
0.551554
0.551734
0.552343
0.553862
0.555098
0.55742
0.560824
0.564129
0.56862
0.574331
0.580096
0.585681
0.591405
0.59722
0.603079
0.608677
0.614231
0.619664
0.625836
0.632401
0.638556
0.645229
0.652515
0.659278
0.684643
0.777025
0.866824
0.924656
0.943185
0.957118
0.953235
0.95343
0.951663
0.949732
0.949851
0.950592
0.952686
0.955831
0.959077
0.962186
0.965404
0.968745
0.972437
0.977113
0.983289
0.990318
0.996447
0.999406
0.999969
1
1
1
1
1
1
0.55879
0.558823
0.558867
0.558914
0.558949
0.558982
0.559024
0.559047
0.559072
0.559122
0.559147
0.55914
0.559156
0.559214
0.559215
0.559168
0.559139
0.559054
0.558796
0.558071
0.556715
0.554848
0.553285
0.552312
0.551881
0.552345
0.553239
0.554052
0.555921
0.557577
0.559415
0.564416
0.570197
0.574586
0.579911
0.586116
0.591749
0.597077
0.602064
0.607251
0.612897
0.618882
0.624846
0.630778
0.637218
0.644047
0.650733
0.65763
0.665026
0.672413
0.681281
0.717114
0.806688
0.909315
0.949861
0.949231
0.950172
0.947553
0.946134
0.947761
0.949597
0.951302
0.953653
0.956756
0.960105
0.963645
0.967422
0.971487
0.976427
0.983049
0.990563
0.996742
0.999503
0.999977
1
1
1
1
1
1
0.558902
0.558941
0.558983
0.559011
0.559012
0.559019
0.559047
0.559069
0.559093
0.559137
0.559163
0.559153
0.559098
0.55911
0.559154
0.559039
0.55865
0.557915
0.556726
0.555157
0.55375
0.55288
0.55221
0.552397
0.552626
0.553066
0.554508
0.555273
0.556736
0.56113
0.565634
0.56959
0.575682
0.581934
0.586915
0.591616
0.596827
0.602143
0.607524
0.612829
0.618284
0.623736
0.629868
0.63606
0.642537
0.649203
0.656156
0.663041
0.670447
0.67787
0.685526
0.693527
0.707323
0.77131
0.86012
0.922047
0.94273
0.939866
0.941594
0.944357
0.947142
0.949622
0.95196
0.954587
0.958136
0.962021
0.965986
0.970478
0.976142
0.983175
0.990919
0.997061
0.999596
0.999984
1
1
1
1
1
1
0.559028
0.559029
0.559039
0.559038
0.559014
0.558984
0.558987
0.558962
0.558967
0.558966
0.558939
0.558947
0.558896
0.558633
0.558139
0.557398
0.556298
0.554992
0.553784
0.552807
0.552002
0.552069
0.552038
0.552356
0.553074
0.553366
0.554929
0.558013
0.56132
0.566086
0.572707
0.577956
0.582019
0.587246
0.592343
0.597015
0.601675
0.606476
0.612083
0.617605
0.623421
0.629523
0.635401
0.641509
0.647843
0.654598
0.661483
0.66854
0.675476
0.683243
0.691235
0.699095
0.707241
0.716855
0.753003
0.842188
0.906717
0.931733
0.943363
0.942593
0.942969
0.945159
0.948911
0.952699
0.956222
0.960252
0.964674
0.969436
0.975447
0.983184
0.991362
0.997416
0.999684
0.999989
1
1
1
1
1
1
0.559049
0.559021
0.558976
0.558895
0.558801
0.558691
0.558584
0.558499
0.558433
0.558381
0.55829
0.558081
0.557725
0.557109
0.556117
0.554994
0.553853
0.552757
0.552003
0.551603
0.551352
0.551513
0.551811
0.552022
0.553546
0.555665
0.55825
0.563611
0.570027
0.574207
0.578214
0.583786
0.58829
0.592103
0.5969
0.601961
0.607262
0.612389
0.617442
0.62318
0.628642
0.634335
0.640717
0.647369
0.653559
0.660151
0.667194
0.674506
0.681623
0.688674
0.696231
0.704308
0.712981
0.721481
0.730476
0.7545
0.828097
0.907655
0.936853
0.937715
0.937217
0.939413
0.943881
0.949129
0.953946
0.958306
0.962965
0.968509
0.975422
0.983485
0.991909
0.997785
0.999763
0.999993
1
1
1
1
1
1
0.558878
0.55883
0.558764
0.558672
0.558602
0.558509
0.558367
0.558256
0.558138
0.557941
0.557577
0.556931
0.556086
0.555174
0.554069
0.552986
0.552187
0.551521
0.55138
0.551414
0.551316
0.551424
0.552438
0.554285
0.557089
0.562302
0.567898
0.571435
0.575557
0.580567
0.584236
0.587933
0.5932
0.597876
0.602444
0.607338
0.61248
0.618233
0.623569
0.629139
0.635143
0.640939
0.646541
0.652671
0.659504
0.66591
0.672556
0.679685
0.687425
0.695122
0.702717
0.710693
0.718551
0.72728
0.73568
0.74559
0.764535
0.825729
0.89214
0.923294
0.932916
0.936917
0.940263
0.945022
0.950645
0.956252
0.961474
0.96729
0.974895
0.983833
0.992576
0.998168
0.999832
0.999996
1
1
1
1
1
1
0.558722
0.558716
0.558695
0.558658
0.558617
0.558583
0.558438
0.558268
0.558019
0.557464
0.556582
0.555429
0.554127
0.553042
0.552279
0.551806
0.551607
0.551436
0.551401
0.551622
0.552677
0.554407
0.557207
0.561778
0.566085
0.569241
0.573324
0.577544
0.580566
0.584703
0.590107
0.593961
0.598222
0.603583
0.608617
0.61381
0.61873
0.623756
0.629405
0.634565
0.639925
0.6461
0.652354
0.658177
0.664663
0.671569
0.678436
0.685162
0.69229
0.700266
0.708367
0.716602
0.725165
0.733984
0.74274
0.751146
0.761467
0.778827
0.831835
0.896327
0.927723
0.935675
0.939701
0.943497
0.947827
0.953483
0.959758
0.966706
0.975002
0.984421
0.993339
0.998545
0.999888
0.999998
1
1
1
1
1
1
0.558848
0.558803
0.558767
0.558733
0.558657
0.55857
0.558328
0.557618
0.556556
0.555337
0.554125
0.553144
0.552474
0.552028
0.55182
0.551837
0.552047
0.552775
0.554004
0.555599
0.558075
0.561745
0.564563
0.567345
0.571284
0.574584
0.577485
0.58219
0.587095
0.590683
0.595125
0.600897
0.605371
0.609815
0.614743
0.619538
0.624682
0.629586
0.634736
0.640463
0.645977
0.651337
0.657422
0.663979
0.670157
0.67702
0.684087
0.691371
0.698773
0.706037
0.713956
0.72227
0.73102
0.739966
0.749198
0.758214
0.76663
0.77826
0.79612
0.843436
0.896934
0.92415
0.933741
0.939458
0.945411
0.951316
0.957609
0.965427
0.974932
0.985226
0.994219
0.998904
0.999931
0.999999
1
1
1
1
1
1
0.558623
0.558419
0.558085
0.55757
0.556856
0.555928
0.554992
0.554088
0.553391
0.552985
0.552595
0.552236
0.552226
0.552302
0.552666
0.553499
0.55437
0.555796
0.558099
0.56072
0.562686
0.565447
0.569035
0.571796
0.575146
0.58028
0.584775
0.588387
0.59326
0.598607
0.602467
0.606494
0.611434
0.615868
0.620344
0.624948
0.629851
0.635159
0.640246
0.645566
0.651654
0.657847
0.663807
0.67024
0.676923
0.683499
0.690432
0.697697
0.704974
0.712616
0.720638
0.728703
0.736989
0.74596
0.755752
0.765357
0.774227
0.782835
0.795824
0.815656
0.857794
0.900044
0.922037
0.933152
0.941307
0.948499
0.956114
0.965321
0.975419
0.986304
0.995174
0.999226
0.999961
0.999999
1
1
1
1
1
1
0.557204
0.556675
0.555947
0.555046
0.554229
0.553492
0.552912
0.552598
0.552454
0.552553
0.552712
0.552826
0.553205
0.553768
0.554316
0.555574
0.557122
0.5587
0.560694
0.563921
0.567418
0.570153
0.574379
0.579536
0.583595
0.587394
0.592131
0.596596
0.600071
0.603861
0.608624
0.612475
0.616439
0.621133
0.625783
0.630757
0.63571
0.640968
0.646653
0.652408
0.657919
0.663805
0.67012
0.676409
0.683079
0.689737
0.696759
0.703884
0.711457
0.719232
0.72689
0.735197
0.743947
0.752579
0.761738
0.771641
0.781865
0.790899
0.800529
0.815017
0.83658
0.872986
0.907143
0.926244
0.936631
0.944723
0.953881
0.964673
0.976192
0.987692
0.99617
0.999494
0.99998
1
1
1
1
1
1
1
0.555085
0.554208
0.553464
0.552864
0.552433
0.55218
0.552026
0.55207
0.552191
0.552315
0.552728
0.55316
0.553802
0.55523
0.556358
0.557687
0.560555
0.563877
0.56708
0.570378
0.57493
0.579668
0.583215
0.586934
0.591164
0.594746
0.598042
0.601864
0.605996
0.60958
0.613322
0.618165
0.622698
0.627151
0.631969
0.637056
0.642239
0.647529
0.652871
0.658462
0.664406
0.670308
0.676292
0.6825
0.688989
0.695949
0.702559
0.709792
0.717301
0.725144
0.733282
0.741681
0.750199
0.759397
0.768323
0.778216
0.788343
0.798283
0.80755
0.818461
0.836118
0.85891
0.888219
0.913485
0.930167
0.942499
0.953872
0.965168
0.977513
0.989347
0.997147
0.9997
0.999991
1
1
1
1
1
1
1
0.552504
0.552149
0.552107
0.552118
0.552115
0.552149
0.552086
0.552073
0.552312
0.552645
0.553306
0.554946
0.556481
0.558446
0.56195
0.565301
0.56841
0.572155
0.576023
0.5798
0.582979
0.586439
0.590011
0.593047
0.596299
0.600109
0.603691
0.60726
0.611205
0.615985
0.620319
0.624459
0.629192
0.634025
0.638874
0.6437
0.648815
0.653983
0.659517
0.664877
0.670434
0.676393
0.682637
0.689086
0.695569
0.702292
0.709627
0.716709
0.724037
0.731569
0.739829
0.74818
0.75699
0.765961
0.775577
0.784951
0.794966
0.805602
0.815575
0.826224
0.839431
0.858765
0.880943
0.903552
0.923278
0.939533
0.953273
0.966133
0.979401
0.991217
0.99804
0.999843
0.999997
1
1
1
1
1
1
1
0.551931
0.551978
0.552189
0.552469
0.552532
0.552868
0.553648
0.554285
0.555338
0.557511
0.55952
0.561652
0.564641
0.567577
0.570528
0.573929
0.576699
0.579643
0.582716
0.585772
0.589001
0.591867
0.595165
0.599007
0.602359
0.606063
0.610227
0.614435
0.618546
0.622432
0.626909
0.63141
0.635659
0.640171
0.644913
0.649772
0.65484
0.660048
0.665217
0.671035
0.676842
0.682693
0.688816
0.695318
0.70196
0.708741
0.715846
0.723336
0.730971
0.738984
0.746808
0.755114
0.763833
0.772904
0.782331
0.792115
0.802165
0.812515
0.823246
0.833085
0.844523
0.860219
0.880572
0.902573
0.922854
0.939747
0.953969
0.967945
0.981865
0.993224
0.998793
0.99993
0.999999
1
1
1
1
1
1
1
0.553084
0.553603
0.554072
0.554777
0.555903
0.556941
0.558177
0.560113
0.561903
0.563901
0.566469
0.56875
0.571359
0.574188
0.5766
0.57951
0.582612
0.585312
0.588624
0.591795
0.595033
0.598806
0.60237
0.605914
0.609997
0.61369
0.617403
0.621269
0.625269
0.629351
0.633327
0.637564
0.642127
0.64667
0.651233
0.656253
0.66122
0.666634
0.672201
0.67765
0.68359
0.689786
0.696067
0.702421
0.709199
0.716107
0.722896
0.730202
0.737813
0.745578
0.753916
0.76253
0.771167
0.780177
0.789423
0.799364
0.809508
0.819868
0.830628
0.841886
0.853072
0.86557
0.882147
0.902026
0.921801
0.93926
0.955015
0.970335
0.98477
0.995218
0.999358
0.999975
1
1
1
1
1
1
1
1
0.554762
0.555384
0.555974
0.556739
0.558432
0.560023
0.561247
0.563645
0.56622
0.567958
0.570692
0.573988
0.576601
0.579679
0.582989
0.585765
0.589368
0.592952
0.595918
0.599509
0.603003
0.606177
0.609711
0.613054
0.616311
0.62
0.623542
0.627235
0.631086
0.635074
0.639438
0.643735
0.648121
0.652877
0.657994
0.662886
0.66823
0.673443
0.679105
0.684865
0.690559
0.696567
0.702811
0.709304
0.715864
0.722777
0.73012
0.737248
0.744846
0.752786
0.760894
0.769246
0.778255
0.787433
0.796977
0.806618
0.816902
0.827619
0.838365
0.849085
0.860256
0.872656
0.887182
0.904483
0.922922
0.940529
0.957381
0.973711
0.988117
0.997029
0.999721
0.999993
1
1
1
1
1
1
1
1
0.557338
0.558673
0.560721
0.56282
0.564549
0.567468
0.570741
0.572692
0.575258
0.578587
0.58116
0.58401
0.586947
0.589585
0.592579
0.595521
0.598034
0.601116
0.604073
0.606704
0.609854
0.612929
0.615874
0.619415
0.622733
0.626243
0.630137
0.633946
0.638033
0.642345
0.646477
0.651037
0.655741
0.66038
0.665127
0.670299
0.675431
0.68082
0.686029
0.691679
0.697594
0.70356
0.709787
0.716293
0.722959
0.729778
0.736861
0.744517
0.752118
0.760077
0.768313
0.7769
0.785668
0.794943