/*--------------------------------*- C++ -*----------------------------------*\
  =========                 |
  \\      /  F ield         | OpenFOAM: The Open Source CFD Toolbox
   \\    /   O peration     | Website:  https://openfoam.org
    \\  /    A nd           | Version:  7
     \\/     M anipulation  |
\*---------------------------------------------------------------------------*/
FoamFile
{
    version     2.0;
    format      ascii;
    class       volScalarField;
    location    "11.5";
    object      p;
}
// * * * * * * * * * * * * * * * * * * * * * * * * * * * * * * * * * * * * * //

dimensions      [1 -1 -2 0 0 0 0];

internalField   nonuniform List<scalar> 
90000
(
0.610276
0.709755
0.761034
0.816189
0.866211
0.879912
0.880327
0.878173
0.866699
0.851506
0.832276
0.813573
0.794353
0.775663
0.758304
0.740852
0.724353
0.711341
0.701273
0.692778
0.685611
0.680098
0.6766
0.675153
0.675397
0.677405
0.680095
0.684147
0.688291
0.693071
0.697288
0.701069
0.704651
0.70767
0.710136
0.712408
0.715168
0.717918
0.720439
0.722135
0.722806
0.721837
0.720637
0.718954
0.717344
0.715234
0.710785
0.705373
0.698698
0.69233
0.685932
0.686326
0.688767
0.691827
0.696703
0.703479
0.710467
0.716215
0.719231
0.720593
0.721118
0.720875
0.718522
0.715122
0.712799
0.712839
0.714324
0.719242
0.727001
0.735153
0.741946
0.743895
0.744823
0.745438
0.747948
0.755077
0.76706
0.778098
0.787128
0.793268
0.798989
0.809538
0.821958
0.831826
0.836632
0.843383
0.85085
0.860528
0.870234
0.872147
0.879393
0.882419
0.889556
0.893291
0.899367
0.905212
0.910096
0.916237
0.919434
0.926235
0.676629
0.682917
0.687878
0.695069
0.70482
0.715684
0.724415
0.732489
0.739056
0.743111
0.743034
0.739631
0.7336
0.727122
0.719555
0.712887
0.706607
0.702542
0.698455
0.696159
0.694228
0.693272
0.693698
0.695297
0.697097
0.699185
0.701124
0.703311
0.705483
0.706961
0.707731
0.70674
0.704914
0.702089
0.696645
0.69055
0.68561
0.682051
0.679788
0.678953
0.678851
0.679377
0.679701
0.680641
0.682159
0.68464
0.687146
0.689344
0.69123
0.692194
0.693347
0.696393
0.703283
0.710574
0.715716
0.719761
0.722953
0.725531
0.72587
0.724789
0.721506
0.716931
0.71136
0.711791
0.713037
0.717262
0.724007
0.732402
0.741337
0.746152
0.747124
0.746095
0.746254
0.749859
0.757045
0.769588
0.77955
0.787525
0.791718
0.798669
0.80531
0.820502
0.829693
0.839667
0.841253
0.848808
0.855927
0.86672
0.871334
0.875546
0.882334
0.886003
0.89322
0.896222
0.903605
0.908453
0.9137
0.918946
0.921364
0.927794
0.650717
0.651804
0.661096
0.667314
0.670879
0.673839
0.678524
0.682234
0.686294
0.689661
0.694666
0.701
0.705741
0.709731
0.711614
0.712454
0.712004
0.710452
0.707193
0.703278
0.698581
0.694917
0.691761
0.690207
0.689319
0.689718
0.690548
0.692135
0.694922
0.699178
0.704466
0.708949
0.712156
0.714118
0.712996
0.710483
0.708222
0.706553
0.704838
0.703593
0.703344
0.704405
0.706532
0.709648
0.713706
0.718688
0.724641
0.730614
0.736572
0.741479
0.74501
0.74601
0.745452
0.744866
0.742317
0.738058
0.733169
0.726789
0.71977
0.7135
0.707626
0.706371
0.709336
0.714466
0.723761
0.73326
0.740671
0.745105
0.747247
0.748111
0.74808
0.748211
0.751914
0.760721
0.771144
0.783405
0.786796
0.792946
0.796643
0.804837
0.815989
0.831133
0.836698
0.84377
0.845734
0.85489
0.862743
0.87217
0.87298
0.879249
0.883624
0.88968
0.896135
0.899666
0.90786
0.911976
0.91774
0.920332
0.922363
0.929008
0.508783
0.549245
0.59278
0.640142
0.657245
0.661273
0.666552
0.672946
0.678202
0.68098
0.681688
0.681894
0.682898
0.684529
0.685615
0.686714
0.68785
0.689502
0.691757
0.693925
0.696142
0.698097
0.699895
0.701268
0.702406
0.703376
0.703664
0.702849
0.700119
0.697151
0.694427
0.692862
0.692076
0.692118
0.691868
0.691912
0.693958
0.69869
0.703334
0.706878
0.70934
0.710415
0.711837
0.713553
0.713781
0.713346
0.712904
0.713459
0.714428
0.715807
0.716478
0.715824
0.712571
0.710131
0.707714
0.706228
0.705045
0.705867
0.707408
0.710341
0.714037
0.719357
0.727819
0.735576
0.742025
0.747336
0.751633
0.753155
0.750813
0.747161
0.74842
0.753731
0.765348
0.776696
0.788458
0.791008
0.792323
0.796171
0.802058
0.813107
0.83032
0.837372
0.842687
0.846482
0.850591
0.861345
0.870546
0.876004
0.875518
0.88336
0.887477
0.893561
0.8985
0.903395
0.911701
0.915267
0.921539
0.92392
0.927327
0.934582
0.0559953
0.0825094
0.130382
0.325941
0.43886
0.501104
0.56104
0.606303
0.648301
0.661689
0.665737
0.669701
0.675275
0.679321
0.680838
0.68195
0.683443
0.684528
0.684999
0.684594
0.684296
0.683852
0.684169
0.684665
0.685337
0.686226
0.6877
0.690253
0.693555
0.696568
0.698981
0.700567
0.701687
0.702506
0.702886
0.702725
0.700315
0.697339
0.695411
0.695563
0.696896
0.698803
0.700785
0.706284
0.713228
0.718988
0.723274
0.725828
0.729653
0.732936
0.733884
0.7327
0.730494
0.729377
0.729775
0.731895
0.735032
0.739589
0.744614
0.75103
0.757482
0.761751
0.763145
0.762565
0.759622
0.755002
0.750034
0.745646
0.743674
0.74542
0.754568
0.769642
0.783165
0.789687
0.796161
0.794954
0.796339
0.800993
0.811012
0.826636
0.84101
0.842685
0.84641
0.849466
0.858414
0.868163
0.875735
0.878345
0.880461
0.887022
0.890676
0.897065
0.901125
0.907233
0.914695
0.918346
0.924583
0.927139
0.931236
0.938759
0.027945
0.0278999
0.0278679
0.0278158
0.033668
0.0522536
0.0907575
0.157014
0.341034
0.433229
0.503139
0.564973
0.612875
0.65101
0.663964
0.667561
0.670576
0.674841
0.677813
0.67901
0.681862
0.684833
0.687134
0.688263
0.68926
0.68998
0.690587
0.690582
0.690282
0.68981
0.690146
0.69056
0.690765
0.690939
0.691347
0.693087
0.696606
0.700068
0.702395
0.704574
0.706586
0.708664
0.710138
0.708575
0.7067
0.70688
0.708449
0.710314
0.712537
0.718494
0.724437
0.728102
0.728591
0.729902
0.730396
0.729113
0.727132
0.727523
0.728672
0.731647
0.735528
0.737582
0.737371
0.738168
0.738566
0.740271
0.74369
0.75041
0.757004
0.76801
0.780875
0.792533
0.799732
0.801373
0.801393
0.798522
0.80083
0.810261
0.82429
0.839831
0.846309
0.846001
0.849534
0.855084
0.867826
0.874014
0.878474
0.879216
0.886799
0.893985
0.896196
0.900834
0.903255
0.911217
0.91667
0.921255
0.926544
0.92948
0.934617
0.94222
0.0278361
0.0278307
0.027825
0.0278251
0.0278051
0.0277793
0.027759
0.0277126
0.0287539
0.0381109
0.0628096
0.111324
0.18095
0.349913
0.445317
0.519993
0.577867
0.627624
0.660035
0.673136
0.675043
0.676805
0.680402
0.681017
0.681237
0.682849
0.685586
0.687318
0.689147
0.690844
0.692467
0.693541
0.694521
0.695199
0.695785
0.69589
0.69569
0.695673
0.697216
0.698175
0.699148
0.700436
0.703141
0.708038
0.711793
0.714507
0.717112
0.719531
0.72153
0.720075
0.718603
0.719376
0.720457
0.721544
0.726684
0.732302
0.736617
0.739213
0.74591
0.749472
0.75137
0.755565
0.759094
0.763473
0.769037
0.774072
0.780366
0.787936
0.794933
0.8012
0.79958
0.796496
0.793032
0.792756
0.794424
0.799607
0.810816
0.827269
0.839411
0.850263
0.849511
0.847522
0.852407
0.865412
0.875237
0.877735
0.879035
0.883803
0.895713
0.898617
0.900385
0.903077
0.90773
0.914823
0.917606
0.923547
0.928149
0.930022
0.934845
0.943535
0.0278196
0.0278151
0.0278102
0.0278055
0.0278008
0.0277986
0.0277953
0.0278025
0.0277832
0.0277583
0.0277289
0.0277141
0.0276652
0.0309319
0.0470184
0.0834688
0.14419
0.226714
0.364782
0.479838
0.55528
0.610001
0.646677
0.671918
0.679195
0.67864
0.683384
0.68568
0.685855
0.686101
0.687931
0.689226
0.690848
0.692205
0.693925
0.69533
0.697156
0.699099
0.700851
0.702291
0.70353
0.70459
0.705428
0.70595
0.707419
0.708903
0.710004
0.710905
0.71319
0.718532
0.721556
0.724202
0.726442
0.728148
0.727534
0.726061
0.727378
0.729191
0.732691
0.742184
0.748112
0.753205
0.760088
0.762839
0.763643
0.76595
0.768305
0.772999
0.779557
0.784807
0.789088
0.793094
0.798997
0.807357
0.815902
0.829611
0.84257
0.850179
0.85149
0.845384
0.842151
0.850448
0.866642
0.877866
0.880589
0.876958
0.880468
0.891478
0.902242
0.902005
0.904303
0.908807
0.912588
0.916426
0.918877
0.926757
0.929124
0.928353
0.931549
0.939422
0.0278393
0.0278401
0.0278422
0.0278445
0.0278488
0.0278531
0.0278595
0.0278665
0.027875
0.027884
0.0278953
0.027907
0.0279213
0.0279256
0.027902
0.0278726
0.0278536
0.0277962
0.0347141
0.0625348
0.117683
0.198728
0.292585
0.425339
0.535493
0.60467
0.646186
0.669124
0.681212
0.682523
0.686819
0.689397
0.68906
0.688954
0.692221
0.694665
0.696803
0.697776
0.698977
0.699931
0.701138
0.702375
0.704211
0.706702
0.709747
0.711584
0.713147
0.714085
0.714573
0.714271
0.716571
0.718002
0.719381
0.721511
0.726078
0.729352
0.732777
0.736467
0.741028
0.740963
0.744836
0.749639
0.754161
0.76334
0.768848
0.774649
0.78451
0.789896
0.796059
0.804932
0.812217
0.818175
0.823883
0.828631
0.830113
0.830684
0.828894
0.826421
0.832573
0.847014
0.859018
0.877538
0.89204
0.883341
0.870095
0.871988
0.889341
0.902792
0.906509
0.903048
0.909462
0.914596
0.916905
0.917132
0.921899
0.931428
0.929666
0.928279
0.931237
0.936747
0.0279052
0.0279096
0.027915
0.0279211
0.0279295
0.0279364
0.0279465
0.0279557
0.0279659
0.0279713
0.0279807
0.0279843
0.0279886
0.0279842
0.0279858
0.0279842
0.0279836
0.0279859
0.0279415
0.0278884
0.0278541
0.02778
0.0303616
0.0494758
0.1009
0.187209
0.293502
0.406786
0.526929
0.60997
0.656899
0.67844
0.688459
0.688611
0.693182
0.693545
0.692044
0.691502
0.694371
0.697637
0.701696
0.704504
0.707034
0.707989
0.708377
0.708852
0.710014
0.711391
0.713315
0.716281
0.719169
0.720924
0.722854
0.724182
0.725127
0.727711
0.729897
0.731938
0.736111
0.743686
0.748309
0.754399
0.760233
0.76203
0.765938
0.769857
0.774946
0.785887
0.795022
0.804963
0.815063
0.817153
0.81902
0.821976
0.82481
0.832836
0.84024
0.848232
0.864169
0.87982
0.886963
0.886071
0.869171
0.865431
0.87034
0.888536
0.908751
0.905058
0.897712
0.904695
0.918119
0.920173
0.916481
0.921137
0.930945
0.93642
0.933069
0.93113
0.934018
0.937655
0.0279835
0.027988
0.0279907
0.0279963
0.0280013
0.0280069
0.0280142
0.0280243
0.0280292
0.028033
0.0280361
0.0280378
0.0280313
0.0280228
0.0280164
0.0280089
0.0279972
0.0279765
0.027955
0.0279371
0.0279237
0.0279158
0.0278943
0.0278475
0.0278077
0.0277319
0.0301188
0.0473372
0.0982698
0.193294
0.31439
0.43356
0.544443
0.628411
0.673066
0.687368
0.694774
0.693677
0.698013
0.696974
0.696731
0.698072
0.702021
0.705085
0.707812
0.710043
0.712242
0.714126
0.716033
0.717052
0.717644
0.718835
0.720829
0.723432
0.727125
0.730864
0.733178
0.735502
0.738454
0.741135
0.746055
0.750358
0.755766
0.763833
0.76891
0.775471
0.782448
0.785341
0.790843
0.797341
0.804581
0.816884
0.826662
0.835037
0.837998
0.838006
0.841712
0.846169
0.859306
0.868879
0.872957
0.874511
0.880039
0.888624
0.899085
0.910887
0.897623
0.896857
0.908069
0.923523
0.920082
0.912782
0.919039
0.934091
0.942276
0.939336
0.941494
0.942405
0.946078
0.947361
0.0280469
0.0280522
0.0280561
0.0280593
0.0280601
0.0280583
0.0280598
0.0280612
0.0280589
0.0280555
0.0280536
0.0280466
0.0280316
0.0280156
0.0280038
0.0279882
0.0279653
0.0279365
0.0279051
0.0278788
0.0278588
0.0278428
0.0278361
0.0278312
0.0278291
0.0278377
0.0278084
0.027776
0.0277704
0.0277324
0.0315044
0.0543952
0.114668
0.2247
0.361646
0.486093
0.586117
0.65696
0.688092
0.696435
0.697231
0.699714
0.702615
0.70318
0.70342
0.707107
0.710379
0.713189
0.715345
0.717126
0.718216
0.720561
0.723724
0.726528
0.728306
0.729612
0.731255
0.733786
0.737794
0.742728
0.748564
0.754196
0.758822
0.762649
0.767836
0.772378
0.778785
0.788234
0.795856
0.804393
0.81184
0.811956
0.817593
0.825437
0.835582
0.843564
0.847146
0.85246
0.86058
0.875838
0.889004
0.896535
0.89686
0.890052
0.892139
0.895262
0.906458
0.91826
0.926741
0.917128
0.910651
0.921099
0.93565
0.939624
0.933946
0.94151
0.95261
0.95495
0.958457
0.957458
0.0281041
0.0281009
0.0280972
0.0280948
0.0280901
0.0280842
0.0280799
0.0280723
0.0280614
0.0280516
0.0280425
0.0280287
0.028009
0.0279905
0.0279756
0.0279556
0.0279305
0.0278998
0.0278712
0.0278498
0.0278398
0.0278346
0.0278438
0.0278572
0.0278805
0.0279025
0.0279264
0.0279536
0.0279983
0.02804
0.0280248
0.0279994
0.0279847
0.0279329
0.0367811
0.0745794
0.158585
0.292181
0.438855
0.560638
0.634175
0.688451
0.702286
0.707484
0.705757
0.708957
0.707357
0.709147
0.711692
0.716926
0.720099
0.72348
0.726317
0.72596
0.7272
0.729603
0.732589
0.736854
0.741245
0.744112
0.747919
0.75215
0.757225
0.764673
0.770645
0.775887
0.781988
0.787857
0.795664
0.802251
0.809081
0.818868
0.822386
0.826795
0.83388
0.842542
0.851023
0.855634
0.86038
0.863418
0.874376
0.890396
0.894089
0.892594
0.895412
0.90534
0.91477
0.91912
0.917249
0.919101
0.924873
0.931214
0.924619
0.922451
0.935632
0.947153
0.943014
0.936136
0.943989
0.957497
0.0281025
0.0280954
0.0280883
0.028081
0.0280708
0.0280617
0.0280531
0.0280406
0.0280266
0.028014
0.0280011
0.0279868
0.0279682
0.0279541
0.0279407
0.0279248
0.0279047
0.0278859
0.0278702
0.027868
0.0278783
0.0278957
0.0279213
0.0279573
0.0279972
0.0280363
0.0280691
0.0281018
0.0281395
0.0281573
0.0281663
0.028164
0.0281614
0.0281665
0.0281181
0.0280652
0.0279703
0.0298046
0.0533636
0.124085
0.244527
0.406188
0.54827
0.648695
0.688601
0.708671
0.712292
0.711639
0.712613
0.715563
0.715154
0.720924
0.726612
0.727951
0.731171
0.732591
0.731799
0.734604
0.73803
0.742332
0.749658
0.755731
0.761725
0.765615
0.769108
0.774337
0.781145
0.790442
0.799542
0.806526
0.811511
0.816532
0.820814
0.824697
0.830754
0.83505
0.846137
0.862237
0.873219
0.877814
0.872478
0.873305
0.883435
0.898253
0.913622
0.915083
0.91194
0.911878
0.919595
0.928483
0.932201
0.931387
0.931064
0.938694
0.942873
0.940529
0.938761
0.934421
0.938107
0.940624
0.0280904
0.0280802
0.0280696
0.0280585
0.0280473
0.0280378
0.0280289
0.0280182
0.0280097
0.028
0.0279907
0.027983
0.0279759
0.0279725
0.0279717
0.0279699
0.0279672
0.0279675
0.0279719
0.0279898
0.0280234
0.0280569
0.0280898
0.0281352
0.0281734
0.0282023
0.0282269
0.0282522
0.0282732
0.028275
0.0282576
0.0282293
0.0282071
0.0281835
0.0281576
0.0281312
0.0281114
0.028044
0.0279747
0.0279358
0.0278763
0.0442561
0.107379
0.237298
0.401669
0.561803
0.651243
0.696069
0.709134
0.717076
0.716311
0.721325
0.726214
0.724295
0.729727
0.732544
0.732085
0.736479
0.738722
0.743056
0.751271
0.756871
0.762609
0.766245
0.770678
0.77866
0.785573
0.791584
0.798167
0.803764
0.810897
0.818524
0.823841
0.828877
0.833871
0.839394
0.84439
0.854013
0.870585
0.883832
0.892811
0.885352
0.871515
0.867496
0.880055
0.903018
0.923308
0.927022
0.921234
0.918323
0.921842
0.929142
0.937047
0.943027
0.94813
0.951303
0.951502
0.950924
0.95732
0.955738
0.0280615
0.0280567
0.0280532
0.028052
0.0280501
0.0280485
0.0280489
0.0280491
0.0280528
0.0280574
0.0280624
0.0280695
0.0280783
0.0280926
0.0281127
0.0281307
0.0281459
0.0281614
0.0281757
0.028195
0.0282293
0.0282562
0.0282771
0.0283039
0.0283181
0.0283173
0.0283132
0.0283173
0.0283133
0.0282923
0.0282581
0.0282193
0.0281905
0.0281654
0.0281444
0.0281296
0.0281214
0.0281214
0.0281462
0.0281849
0.0282419
0.0282251
0.0282456
0.0282199
0.0442095
0.111763
0.248099
0.42144
0.575339
0.658645
0.707942
0.720389
0.730873
0.727175
0.72934
0.731347
0.72748
0.735866
0.738024
0.7435
0.752786
0.756979
0.764489
0.768189
0.773091
0.780946
0.785073
0.791862
0.800263
0.807221
0.814421
0.820011
0.823103
0.828436
0.836565
0.843698
0.849912
0.85725
0.860206
0.867697
0.879633
0.889038
0.894693
0.893097
0.890462
0.885514
0.894307
0.911966
0.928887
0.931958
0.927782
0.924379
0.925206
0.933593
0.944879
0.953806
0.951706
0.947575
0.954094
0.960754
0.0281313
0.0281388
0.0281508
0.0281668
0.0281833
0.0281988
0.0282134
0.0282266
0.0282404
0.0282564
0.0282716
0.0282874
0.0283052
0.0283246
0.0283456
0.0283626
0.0283786
0.0283931
0.0283991
0.0284008
0.0284043
0.0284018
0.0283967
0.0283919
0.0283773
0.02835
0.028326
0.0283103
0.028289
0.0282593
0.0282228
0.0281958
0.0281814
0.02818
0.0281903
0.028223
0.0282756
0.0283365
0.028404
0.0284693
0.0285213
0.0285685
0.0286118
0.0286411
0.0285642
0.0284805
0.0283299
0.0485426
0.12951
0.26973
0.461269
0.602419
0.692818
0.725923
0.731795
0.733107
0.727736
0.734938
0.732944
0.74055
0.753857
0.759295
0.770059
0.770015
0.774349
0.783105
0.787572
0.79667
0.804811
0.806993
0.812381
0.819025
0.82565
0.834306
0.842037
0.845369
0.849785
0.856526
0.862413
0.869095
0.878038
0.886692
0.893906
0.899783
0.90363
0.90316
0.906554
0.912128
0.922305
0.937053
0.945897
0.947301
0.945847
0.940314
0.939342
0.94121
0.944225
0.951095
0.954542
0.957887
0.0284022
0.0284172
0.0284308
0.028445
0.0284601
0.0284721
0.0284847
0.0284968
0.0285032
0.0285095
0.0285146
0.0285196
0.028527
0.0285318
0.028532
0.0285301
0.0285276
0.0285229
0.0285104
0.0284892
0.0284624
0.0284347
0.0284071
0.0283769
0.0283432
0.0283091
0.0282829
0.0282637
0.028247
0.0282312
0.0282225
0.0282286
0.0282604
0.0283148
0.0283734
0.028457
0.0285425
0.028621
0.0286843
0.0287353
0.0287598
0.0287582
0.0287426
0.0287063
0.0286591
0.0285965
0.0285415
0.0284596
0.0284017
0.0287628
0.0584358
0.157092
0.327434
0.530048
0.645361
0.712613
0.722941
0.739431
0.736554
0.73831
0.751255
0.756805
0.772912
0.7717
0.778895
0.787716
0.787563
0.798343
0.806378
0.807945
0.816901
0.824518
0.826399
0.832683
0.842667
0.850214
0.857813
0.863289
0.863968
0.865904
0.872983
0.885348
0.897279
0.903967
0.909101
0.911037
0.911799
0.912258
0.912602
0.920588
0.930478
0.938007
0.947565
0.957409
0.95848
0.9544
0.94519
0.941907
0.954721
0.964325
0.0286818
0.0286856
0.0286862
0.0286865
0.0286853
0.0286793
0.028674
0.0286691
0.0286616
0.0286551
0.0286475
0.028637
0.0286246
0.0286095
0.0285913
0.0285739
0.0285577
0.0285382
0.0285161
0.0284857
0.0284499
0.0284214
0.0283974
0.0283785
0.0283609
0.0283456
0.0283379
0.0283404
0.0283538
0.0283802
0.0284208
0.0284683
0.0285374
0.0286131
0.0286945
0.0287731
0.0288409
0.0288753
0.0288972
0.0289041
0.0288852
0.028847
0.0288181
0.028778
0.0287266
0.028697
0.0287152
0.028744
0.0288322
0.0290018
0.0292159
0.0293072
0.0337646
0.0858195
0.216666
0.413089
0.578168
0.672956
0.729407
0.737588
0.751086
0.762866
0.774809
0.768747
0.780799
0.789506
0.788682
0.8038
0.81053
0.808291
0.820056
0.827012
0.827627
0.836996
0.848189
0.851223
0.85696
0.864155
0.867439
0.870614
0.877936
0.882593
0.888714
0.895986
0.905876
0.914746
0.91787
0.917884
0.917193
0.915247
0.918456
0.921163
0.925447
0.942638
0.955677
0.961337
0.96041
0.957105
0.942775
0.939278
0.0288092
0.0288048
0.0287981
0.0287878
0.0287622
0.0287328
0.0287068
0.0286914
0.0286833
0.0286749
0.0286663
0.0286546
0.028641
0.0286243
0.0286056
0.0285873
0.0285722
0.0285586
0.0285476
0.0285377
0.0285319
0.0285382
0.0285526
0.0285724
0.028599
0.0286285
0.0286608
0.0287028
0.0287526
0.0288046
0.0288603
0.0289056
0.0289362
0.028967
0.0289919
0.0290106
0.029005
0.0289771
0.0289493
0.0289186
0.0288831
0.0288601
0.0288518
0.0288599
0.0288849
0.028951
0.0290516
0.0292175
0.0294178
0.0296341
0.0298894
0.0300763
0.0300317
0.0299509
0.0298044
0.0469197
0.130393
0.28246
0.492439
0.63055
0.70757
0.7623
0.783156
0.775987
0.78707
0.785592
0.784745
0.806942
0.813355
0.811167
0.827095
0.832064
0.829262
0.839715
0.850418
0.850863
0.860196
0.871589
0.873133
0.873571
0.878963
0.880598
0.884567
0.894956
0.902631
0.907754
0.912586
0.916061
0.917617
0.917256
0.918968
0.920707
0.924628
0.926622
0.934156
0.939673
0.944662
0.955989
0.953117
0.954781
0.0288862
0.0288775
0.0288692
0.0288572
0.028822
0.0287742
0.0287426
0.0287174
0.0286998
0.0286925
0.0286918
0.0286925
0.0286935
0.0286947
0.0286997
0.0287109
0.0287269
0.0287458
0.0287688
0.0287952
0.0288332
0.0288895
0.0289485
0.0290038
0.0290525
0.0290949
0.0291288
0.029165
0.0291984
0.0292194
0.0292331
0.0292243
0.0291995
0.0291736
0.0291398
0.0291015
0.0290423
0.0289869
0.0289472
0.0289329
0.028945
0.0289902
0.0290741
0.0291915
0.0293577
0.0295275
0.0297259
0.0299652
0.0301682
0.0303254
0.0304211
0.0304319
0.0303569
0.0302972
0.0302449
0.0301506
0.0300977
0.0307144
0.0696219
0.19318
0.376886
0.572169
0.687629
0.752192
0.798532
0.787419
0.794997
0.811156
0.807298
0.810531
0.833713
0.837452
0.834725
0.846368
0.854563
0.851716
0.861531
0.872817
0.873166
0.876729
0.887304
0.888961
0.88824
0.892886
0.896518
0.902014
0.913
0.922672
0.925744
0.925876
0.927027
0.925744
0.927895
0.92838
0.932391
0.936711
0.941601
0.940525
0.945838
0.952852
0.0288051
0.0288013
0.0287985
0.028798
0.0287988
0.0287993
0.0287961
0.0287913
0.028787
0.0287943
0.0288216
0.028859
0.0288995
0.0289452
0.0289916
0.0290433
0.0291034
0.0291607
0.0292063
0.0292444
0.0292894
0.0293446
0.0294007
0.029439
0.0294591
0.0294641
0.029463
0.0294607
0.0294495
0.0294306
0.029399
0.0293543
0.0293142
0.0292739
0.029226
0.029178
0.0291381
0.0291191
0.0291452
0.0292253
0.02934
0.0295038
0.0296951
0.0299232
0.030139
0.0303146
0.0305011
0.0306282
0.0307134
0.0307173
0.0306645
0.0305826
0.0304435
0.0304007
0.0303871
0.0305034
0.0308301
0.0313563
0.0319868
0.0323589
0.043469
0.112219
0.268807
0.465211
0.632764
0.723498
0.789857
0.828066
0.81439
0.821951
0.835903
0.828641
0.834841
0.853382
0.859441
0.858233
0.868219
0.875602
0.872996
0.876415
0.888367
0.891599
0.893319
0.900241
0.90308
0.904018
0.910751
0.917254
0.92234
0.929605
0.936581
0.938824
0.940158
0.940616
0.940712
0.938585
0.938791
0.941613
0.951742
0.958724
0.0289341
0.0289806
0.0290317
0.0290772
0.02912
0.0291591
0.0292001
0.0292455
0.0292911
0.0293382
0.0293792
0.0294143
0.0294629
0.0295234
0.0295719
0.0296096
0.029651
0.0296832
0.0296975
0.0297037
0.0297005
0.0296937
0.0296894
0.029679
0.0296637
0.0296349
0.0296058
0.0295761
0.0295423
0.0295175
0.0295006
0.0294894
0.0294862
0.029493
0.0295001
0.0295214
0.0295815
0.0296754
0.0298194
0.029988
0.0301793
0.0303699
0.0305592
0.0307433
0.0308716
0.0309603
0.0310361
0.0310628
0.0310463
0.0309782
0.0309001
0.0307885
0.0307253
0.0308093
0.0311405
0.031791
0.032587
0.0336184
0.0345455
0.035362
0.0359863
0.0361254
0.0361137
0.0641744
0.166388
0.36106
0.546889
0.665266
0.766999
0.827533
0.852302
0.837879
0.847515
0.852984
0.847339
0.855068
0.877878
0.881821
0.87999
0.882085
0.889182
0.890332
0.895976
0.906393
0.908632
0.907629
0.913398
0.920316
0.924003
0.93003
0.934726
0.935704
0.939421
0.94406
0.947899
0.949801
0.950413
0.949683
0.951194
0.957198
0.0298376
0.0298724
0.029916
0.0299581
0.0299924
0.0300204
0.0300458
0.0300726
0.0300924
0.0300898
0.0300717
0.0300576
0.0300555
0.0300544
0.03005
0.0300411
0.0300246
0.0299778
0.0299291
0.0298925
0.0298452
0.0298023
0.0297707
0.0297398
0.0297113
0.0296924
0.029681
0.0296792
0.0296918
0.0297459
0.0298345
0.0299344
0.0300269
0.0301292
0.0302428
0.0303899
0.0305512
0.0307244
0.030882
0.0310249
0.0311432
0.0312188
0.0312849
0.0313065
0.0313052
0.0313107
0.031338
0.0313483
0.0313274
0.0313955
0.031521
0.0316798
0.0320923
0.0327008
0.0336422
0.0346345
0.035661
0.0364035
0.0369556
0.0375134
0.0377686
0.0381771
0.0389475
0.0399376
0.04058
0.0474375
0.100517
0.225948
0.426831
0.602153
0.700991
0.798388
0.872636
0.870323
0.864036
0.867539
0.876884
0.864389
0.875235
0.890381
0.897459
0.896818
0.901505
0.907213
0.908203
0.911072
0.919673
0.92361
0.922537
0.926182
0.931803
0.936743
0.942997
0.948346
0.949353
0.94745
0.946477
0.948042
0.947311
0.951405
0.0306357
0.0306152
0.0305871
0.0305626
0.0305326
0.0305002
0.0304733
0.0304534
0.0304291
0.0303825
0.0303213
0.0302816
0.0302437
0.0301973
0.0301572
0.030133
0.0301022
0.030034
0.0299396
0.0298954
0.0298705
0.0298502
0.0298524
0.0298791
0.029938
0.0300168
0.0301219
0.030242
0.0304026
0.030591
0.030778
0.0309334
0.0310753
0.0312156
0.0313674
0.0315233
0.0316683
0.0317837
0.0318324
0.0318463
0.0318312
0.0318084
0.031786
0.0317402
0.0317468
0.0317928
0.0318806
0.0320835
0.0323999
0.0329491
0.0336776
0.0346333
0.0355923
0.0366165
0.0374275
0.0380606
0.0386599
0.0389671
0.0393152
0.0396645
0.0402815
0.0411873
0.0423264
0.0435145
0.0447023
0.0458011
0.046036
0.0462173
0.0603169
0.134398
0.278869
0.481185
0.651507
0.742125
0.837563
0.884352
0.898744
0.88043
0.893278
0.892675
0.882113
0.886071
0.90453
0.913202
0.916342
0.919875
0.921971
0.92045
0.920801
0.926821
0.931574
0.936087
0.940346
0.943841
0.947013
0.951313
0.954298
0.955578
0.950964
0.949473
0.0301798
0.0301539
0.0301316
0.030119
0.0301
0.0300784
0.0300639
0.030073
0.0300659
0.0300567
0.0300596
0.0300809
0.030107
0.0301235
0.0301448
0.0301899
0.0302414
0.0302919
0.0303355
0.0303789
0.0304682
0.030605
0.030751
0.0309112
0.031084
0.0312591
0.0314241
0.0315818
0.0317421
0.0318906
0.0319939
0.0320651
0.0321372
0.0322206
0.0323227
0.0324095
0.032486
0.0325309
0.0325624
0.0325848
0.0326029
0.032633
0.0327543
0.0329654
0.0333573
0.0338701
0.0345414
0.0353065
0.0362406
0.0371187
0.0379805
0.0386918
0.039335
0.0398833
0.0402461
0.0406177
0.0409459
0.041372
0.041923
0.0426849
0.0437086
0.0448234
0.0458249
0.0467454
0.0476974
0.0486505
0.0494261
0.0505196
0.0513584
0.0516908
0.052112
0.0757253
0.167302
0.337252
0.541218
0.679517
0.770326
0.850173
0.930098
0.918357
0.904244
0.899667
0.901868
0.894422
0.907057
0.924176
0.932798
0.930187
0.92985
0.929403
0.929274
0.935061
0.942196
0.94555
0.948471
0.95103
0.951144
0.950123
0.949709
0.955577
0.0306149
0.0306825
0.0307525
0.0308254
0.0309054
0.0309896
0.0310708
0.0311522
0.0312506
0.0313511
0.0314329
0.0315038
0.0315724
0.0316435
0.0317415
0.0318466
0.0319377
0.0320226
0.0321052
0.0321737
0.0322476
0.0323499
0.0324487
0.032534
0.0326236
0.0327277
0.0328205
0.0328917
0.0329321
0.0329593
0.0329804
0.0330342
0.0331182
0.033241
0.0333796
0.0335406
0.0337049
0.0339018
0.0341712
0.0345439
0.0350178
0.0356372
0.0363528
0.0371882
0.0379842
0.0387733
0.0394577
0.0401135
0.0406707
0.0411166
0.0414738
0.04174
0.0420477
0.0423365
0.0426726
0.0430959
0.0436926
0.0445728
0.0456847
0.0468396
0.0480809
0.0490983
0.049955
0.0505881
0.0512758
0.0520303
0.0529879
0.0540653
0.0550767
0.0561164
0.0575697
0.0587763
0.0600781
0.060853
0.0951722
0.203581
0.371903
0.578251
0.725282
0.79963
0.873387
0.925217
0.939417
0.915501
0.922777
0.92208
0.916016
0.917396
0.931507
0.937541
0.940332
0.945852
0.946577
0.942478
0.942949
0.947406
0.950682
0.952347
0.951819
0.955826
0.0327713
0.0328171
0.0328634
0.0329076
0.0329496
0.0329927
0.0330397
0.0330873
0.0331398
0.0331977
0.033253
0.0333024
0.0333582
0.033415
0.0334696
0.0335247
0.0335849
0.0336509
0.0337343
0.0338265
0.0339291
0.0340279
0.0341326
0.0342458
0.034367
0.0344843
0.0346104
0.0347722
0.0349868
0.0352427
0.0355529
0.0358936
0.036301
0.0367414
0.0372205
0.0376831
0.0381883
0.0387108
0.0392974
0.0398846
0.0404685
0.0410043
0.0415278
0.041958
0.0423311
0.0426627
0.0429738
0.0432813
0.0435484
0.0438354
0.0440928
0.0444234
0.0448746
0.0455189
0.0463168
0.0472617
0.0482401
0.0493286
0.0503202
0.0513741
0.052251
0.0530274
0.0536954
0.0542393
0.054799
0.055486
0.0565753
0.0578011
0.0593634
0.0610755
0.0626681
0.0639493
0.0649295
0.0659205
0.0666512
0.0677215
0.0705573
0.115587
0.229005
0.429217
0.629204
0.758255
0.842383
0.891489
0.960432
0.953082
0.936395
0.926616
0.925852
0.921405
0.93266
0.950972
0.954666
0.952054
0.948794
0.947363
0.946989
0.947215
0.949904
0.955652
0.0351842
0.0352575
0.0353389
0.0354248
0.0355138
0.0356091
0.0357136
0.0358185
0.0359268
0.0360462
0.0361775
0.0363186
0.0364699
0.0366408
0.0368235
0.0370121
0.0372089
0.0374242
0.0376482
0.0378906
0.0381564
0.0384303
0.0387093
0.0390022
0.0392943
0.0396053
0.039928
0.0402657
0.0405896
0.0409266
0.0412454
0.0415575
0.0418571
0.0421658
0.04245
0.0427303
0.043007
0.0433027
0.0436072
0.0438922
0.0441707
0.0444227
0.0446682
0.044894
0.0451324
0.0454099
0.0457741
0.0461387
0.0466082
0.0471988
0.047948
0.0487961
0.0498094
0.0508456
0.0519057
0.052795
0.0536414
0.054258
0.0548328
0.0554151
0.055979
0.0566776
0.0574641
0.0583656
0.0593577
0.060624
0.0619327
0.0635016
0.0648392
0.0662941
0.0674341
0.0680595
0.0688835
0.0702373
0.0722632
0.0742694
0.0758544
0.0767625
0.0774302
0.0873021
0.144296
0.285956
0.483261
0.687683
0.808687
0.865221
0.9151
0.96071
0.963053
0.937611
0.93978
0.941298
0.935802
0.942244
0.953264
0.954505
0.953185
0.948763
0.947969
0.9531
0.0402781
0.040361
0.0404569
0.0405546
0.0406526
0.0407576
0.0408674
0.0409807
0.0411054
0.041239
0.0413722
0.0415003
0.0416352
0.0417844
0.0419341
0.042086
0.0422448
0.0424083
0.0425849
0.0427599
0.0429418
0.0431228
0.0433029
0.0434793
0.0436615
0.0438488
0.044038
0.0442314
0.0444362
0.0446383
0.0448468
0.0450589
0.0452697
0.0454865
0.0457063
0.0459603
0.0462242
0.0465294
0.0468448
0.0472107
0.0476024
0.0480547
0.0485719
0.0491729
0.0497819
0.0504811
0.0511765
0.051887
0.0525969
0.053365
0.0540814
0.0548122
0.0555353
0.0562668
0.0568718
0.0574264
0.0579309
0.0583311
0.0588201
0.0593883
0.0601634
0.0612194
0.0624538
0.063815
0.0652589
0.0666368
0.0680845
0.0691541
0.0700847
0.0710397
0.0720965
0.0733825
0.0749313
0.0765702
0.0781656
0.0794222
0.0807827
0.0822009
0.0839965
0.0856693
0.0862748
0.0868732
0.101715
0.185152
0.338213
0.554927
0.746264
0.852472
0.906698
0.930462
0.976021
0.965258
0.942699
0.942106
0.94187
0.941558
0.946899
0.952512
0.952846
0.954049
0.044787
0.044867
0.0449476
0.0450286
0.045111
0.0452037
0.0453116
0.0454153
0.0455151
0.0456302
0.0457551
0.0458805
0.0460095
0.0461476
0.0462909
0.0464377
0.0465948
0.0467675
0.0469466
0.0471319
0.0473261
0.0475315
0.0477515
0.0479846
0.0482358
0.0485058
0.0487846
0.0490661
0.0493503
0.0496383
0.0499399
0.0502401
0.0505669
0.0509105
0.0512879
0.0516958
0.0521385
0.0525967
0.0530804
0.0535832
0.0541133
0.0546412
0.0552276
0.0557826
0.0563284
0.05687
0.057407
0.0579037
0.0583366
0.0587236
0.0590839
0.0594708
0.0599061
0.0604166
0.0609784
0.0616198
0.062357
0.0632111
0.0641733
0.0652897
0.0667324
0.0682292
0.0696019
0.0707317
0.0717398
0.0728731
0.0739755
0.0749577
0.0759822
0.0768199
0.0780583
0.0796612
0.0810821
0.0822996
0.0834201
0.0847918
0.086315
0.0877474
0.0890647
0.0900409
0.0912396
0.0929641
0.0939037
0.0945273
0.095024
0.127012
0.231714
0.425563
0.639973
0.814022
0.897656
0.923125
0.947352
0.974138
0.961856
0.947635
0.942732
0.943924
0.947548
0.955345
0.0505615
0.0506539
0.0507655
0.0508821
0.051006
0.0511251
0.0512349
0.0513565
0.0515043
0.0516538
0.0517933
0.0519388
0.0520942
0.0522623
0.0524359
0.0526133
0.0527997
0.0529896
0.0531935
0.0533958
0.0536025
0.0538218
0.054049
0.0542893
0.0545324
0.0547824
0.0550411
0.0553036
0.0555735
0.0558553
0.0561429
0.0564485
0.0567699
0.0570983
0.0574436
0.0577855
0.0581199
0.0584487
0.0587777
0.0591112
0.0594641
0.0598458
0.0602706
0.0607275
0.0611745
0.0616288
0.0621186
0.0626474