/*--------------------------------*- C++ -*----------------------------------*\
  =========                 |
  \\      /  F ield         | OpenFOAM: The Open Source CFD Toolbox
   \\    /   O peration     | Website:  https://openfoam.org
    \\  /    A nd           | Version:  7
     \\/     M anipulation  |
\*---------------------------------------------------------------------------*/
FoamFile
{
    version     2.0;
    format      ascii;
    class       volScalarField;
    location    "11.5";
    object      p;
}
// * * * * * * * * * * * * * * * * * * * * * * * * * * * * * * * * * * * * * //

dimensions      [1 -1 -2 0 0 0 0];

internalField   nonuniform List<scalar> 
90000
(
0.604065
0.709782
0.77081
0.808339
0.851487
0.879553
0.880023
0.875812
0.86679
0.851077
0.830582
0.810599
0.790264
0.771485
0.753805
0.738679
0.722528
0.708689
0.696827
0.688248
0.681518
0.676931
0.673538
0.672051
0.671967
0.673814
0.676801
0.681334
0.685661
0.69072
0.695561
0.699671
0.703728
0.707421
0.71058
0.713077
0.716291
0.719562
0.722205
0.723738
0.724435
0.723082
0.72138
0.719234
0.717583
0.714756
0.710262
0.704932
0.698101
0.691646
0.685339
0.685756
0.688015
0.691044
0.696391
0.703915
0.711667
0.717805
0.721519
0.722236
0.72283
0.7223
0.719713
0.715659
0.713031
0.712186
0.713369
0.718081
0.725727
0.734126
0.740878
0.743172
0.744638
0.745061
0.748046
0.756084
0.768419
0.779769
0.790392
0.792873
0.798582
0.804547
0.818317
0.829311
0.841215
0.84337
0.853736
0.859614
0.868608
0.869474
0.877468
0.881819
0.887533
0.897309
0.901712
0.908905
0.913233
0.916176
0.91833
0.923634
0.673644
0.679955
0.685026
0.691904
0.701425
0.71292
0.722391
0.729726
0.735796
0.739214
0.739686
0.735984
0.730049
0.723499
0.716422
0.709513
0.703138
0.698056
0.694444
0.692383
0.690817
0.690384
0.690353
0.691946
0.693679
0.696306
0.698514
0.701021
0.703458
0.705448
0.706591
0.706145
0.704987
0.702524
0.697415
0.691517
0.686938
0.683484
0.681078
0.679948
0.679673
0.6797
0.679725
0.680391
0.681673
0.683816
0.686199
0.68851
0.690286
0.691103
0.692277
0.695327
0.70231
0.709782
0.715392
0.720101
0.723943
0.72727
0.727873
0.726675
0.723145
0.718388
0.71267
0.712222
0.713131
0.716736
0.723012
0.731224
0.740049
0.744837
0.745918
0.745289
0.745778
0.749103
0.757168
0.771085
0.781389
0.790579
0.794755
0.79875
0.804801
0.815263
0.827914
0.837621
0.844452
0.849624
0.860491
0.866273
0.87211
0.872883
0.88053
0.883403
0.890877
0.899521
0.904287
0.911821
0.915922
0.918482
0.92062
0.925895
0.649043
0.649788
0.659301
0.664553
0.668228
0.671669
0.676106
0.679517
0.683295
0.68651
0.691598
0.69778
0.702557
0.706433
0.708469
0.709328
0.709068
0.707526
0.704797
0.700593
0.696314
0.69215
0.689242
0.687411
0.686745
0.687086
0.68818
0.690309
0.693758
0.698662
0.7043
0.709346
0.712806
0.715175
0.714212
0.711722
0.709654
0.707942
0.706098
0.704751
0.704194
0.704804
0.706512
0.709206
0.712943
0.717682
0.723429
0.729373
0.735246
0.740073
0.743658
0.744732
0.744602
0.744195
0.74219
0.738569
0.734004
0.728331
0.7219
0.715738
0.709473
0.707799
0.710294
0.714804
0.723386
0.732611
0.73947
0.744079
0.746139
0.746934
0.746779
0.746988
0.75093
0.760267
0.771682
0.784136
0.790508
0.797046
0.797981
0.804448
0.814156
0.828664
0.834734
0.843511
0.847137
0.856093
0.866306
0.872497
0.875132
0.876853
0.883965
0.88713
0.895093
0.901882
0.906614
0.91394
0.917816
0.920838
0.923548
0.928715
0.514736
0.554992
0.599905
0.640971
0.655506
0.658491
0.664112
0.670909
0.675612
0.677947
0.678964
0.679154
0.680217
0.681625
0.6826
0.68366
0.684749
0.686555
0.688926
0.69124
0.693734
0.695928
0.698063
0.699462
0.700712
0.701471
0.701873
0.70123
0.69904
0.696446
0.694325
0.69313
0.692733
0.69312
0.693091
0.693327
0.69514
0.69966
0.703921
0.707014
0.708953
0.709575
0.71049
0.711985
0.712188
0.711813
0.711453
0.711999
0.712987
0.714296
0.714972
0.714518
0.711767
0.709852
0.707907
0.70695
0.706487
0.707589
0.70994
0.712826
0.716177
0.720873
0.72862
0.735888
0.741573
0.746692
0.750454
0.75208
0.749751
0.745505
0.746755
0.752193
0.764267
0.77656
0.788596
0.792799
0.796005
0.799226
0.803055
0.81382
0.827273
0.836353
0.840161
0.847549
0.852217
0.865031
0.870664
0.87639
0.878099
0.881885
0.886826
0.890602
0.899037
0.903183
0.908684
0.91552
0.919209
0.923294
0.926757
0.933461
0.0601068
0.0881716
0.156319
0.353328
0.447838
0.51046
0.567143
0.612847
0.649275
0.661046
0.664587
0.668568
0.674382
0.678198
0.679455
0.680844
0.682401
0.683558
0.683875
0.683549
0.683211
0.682853
0.683317
0.684046
0.684859
0.685817
0.687229
0.689551
0.693003
0.696134
0.698963
0.700854
0.702349
0.703494
0.704265
0.704286
0.701797
0.698765
0.696798
0.696606
0.697344
0.698645
0.699969
0.704853
0.711332
0.717006
0.721344
0.723882
0.727766
0.731067
0.732016
0.730974
0.729227
0.728667
0.729939
0.732683
0.736557
0.741738
0.747586
0.753766
0.759655
0.763103
0.763749
0.762817
0.759099
0.754267
0.749432
0.744596
0.742323
0.743637
0.752919
0.768102
0.782537
0.788966
0.796527
0.79687
0.799606
0.804373
0.813557
0.826275
0.839214
0.840128
0.843613
0.850582
0.860011
0.872517
0.873959
0.878925
0.88202
0.888417
0.892638
0.896143
0.904748
0.908167
0.912605
0.917087
0.920747
0.925816
0.930203
0.937747
0.0280014
0.0279541
0.0278888
0.0282007
0.035519
0.0567164
0.0980723
0.177377
0.359911
0.441751
0.511449
0.569716
0.618022
0.653178
0.663674
0.667637
0.670662
0.674835
0.677191
0.678446
0.681399
0.684508
0.686834
0.688157
0.689328
0.69039
0.691208
0.691409
0.690981
0.690345
0.690209
0.690542
0.690656
0.690777
0.691282
0.693222
0.697167
0.700291
0.702433
0.704305
0.705911
0.707494
0.708671
0.707298
0.705537
0.70609
0.707823
0.709772
0.711894
0.717763
0.723941
0.727808
0.728429
0.730065
0.731041
0.730251
0.728816
0.729846
0.73137
0.734014
0.737438
0.738849
0.738377
0.738397
0.738355
0.739897
0.742683
0.749006
0.755473
0.765721
0.779123
0.790937
0.798865
0.800317
0.801886
0.800048
0.803666
0.813726
0.827477
0.839241
0.84439
0.843225
0.846959
0.856057
0.870515
0.876833
0.876665
0.88131
0.885441
0.893862
0.896438
0.901021
0.909779
0.912083
0.916788
0.917965
0.921664
0.928477
0.933094
0.940688
0.0278701
0.0278627
0.0278588
0.0278499
0.0278251
0.0277968
0.0277742
0.0277253
0.0298345
0.0410502
0.0685027
0.119227
0.196861
0.363419
0.452313
0.526051
0.58084
0.630111
0.661571
0.673705
0.675209
0.677021
0.680528
0.68109
0.681445
0.683473
0.68638
0.688214
0.689836
0.691371
0.692862
0.693781
0.6946
0.695079
0.695435
0.695211
0.694595
0.694452
0.69577
0.696566
0.697399
0.698409
0.700734
0.705335
0.709179
0.711983
0.714879
0.717635
0.719828
0.718683
0.717228
0.71808
0.719512
0.72122
0.727035
0.733517
0.738452
0.741615
0.748869
0.752399
0.753819
0.757021
0.759761
0.763651
0.768781
0.773138
0.77868
0.785737
0.79252
0.798021
0.797931
0.795742
0.791536
0.79174
0.795192
0.801817
0.813977
0.831197
0.842283
0.849239
0.846774
0.843472
0.849995
0.866073
0.878499
0.879462
0.878231
0.883707
0.890828
0.897509
0.898809
0.905531
0.913408
0.916131
0.920882
0.922975
0.927096
0.931564
0.93431
0.941328
0.0278563
0.0278515
0.027846
0.0278413
0.0278362
0.0278337
0.0278297
0.0278364
0.027815
0.0277871
0.0277541
0.0277349
0.0276818
0.0319083
0.0495656
0.0882813
0.15075
0.234204
0.373236
0.48469
0.558606
0.612521
0.647935
0.672412
0.679388
0.678963
0.68408
0.686278
0.686218
0.686381
0.688172
0.689209
0.690686
0.691769
0.693231
0.694318
0.695874
0.697624
0.699033
0.700427
0.701645
0.702591
0.703345
0.703989
0.705571
0.70707
0.708356
0.709557
0.712025
0.717197
0.720438
0.723419
0.726163
0.728626
0.72834
0.727338
0.729162
0.731379
0.735042
0.744471
0.750414
0.755106
0.761256
0.762791
0.763177
0.764786
0.766901
0.770967
0.776984
0.782426
0.786978
0.791714
0.797274
0.806734
0.816992
0.832587
0.846732
0.855423
0.851763
0.843851
0.838762
0.845609
0.864782
0.878526
0.883485
0.877891
0.880483
0.891185
0.897039
0.899313
0.900289
0.909218
0.915431
0.919313
0.924506
0.927638
0.931647
0.93252
0.932199
0.936919
0.0278883
0.0278868
0.0278876
0.027889
0.0278921
0.0278958
0.0279003
0.0279052
0.0279106
0.0279177
0.0279267
0.0279353
0.0279441
0.0279514
0.027924
0.0278918
0.0278672
0.0278073
0.0356811
0.0650714
0.121646
0.203612
0.297285
0.429113
0.537528
0.606862
0.647145
0.668935
0.680911
0.682769
0.687458
0.689362
0.688894
0.688823
0.691971
0.694038
0.695592
0.696264
0.697149
0.698003
0.699189
0.700509
0.702442
0.705044
0.708078
0.709881
0.711575
0.712841
0.713834
0.713988
0.716585
0.718448
0.720147
0.722754
0.727833
0.731611
0.735192
0.738827
0.742935
0.742465
0.745642
0.750649
0.755261
0.764689
0.769797
0.775017
0.783891
0.789216
0.795327
0.803922
0.810711
0.816117
0.821465
0.828199
0.831701
0.833806
0.833496
0.830867
0.833694
0.844556
0.853678
0.872795
0.890617
0.885113
0.874322
0.874768
0.890781
0.902231
0.90303
0.897866
0.901131
0.912518
0.914647
0.919334
0.927488
0.931925
0.934815
0.931287
0.929607
0.932384
0.0279566
0.0279578
0.0279614
0.0279651
0.027972
0.0279779
0.0279866
0.0279925
0.0279985
0.0280027
0.0280113
0.0280144
0.0280193
0.0280147
0.0280134
0.0280076
0.0279977
0.0279949
0.0279493
0.0279029
0.0278742
0.0278089
0.0307341
0.0506702
0.102969
0.189894
0.296001
0.407697
0.526591
0.611625
0.657495
0.677981
0.687583
0.688777
0.693921
0.693913
0.691214
0.690588
0.692754
0.696403
0.700037
0.702944
0.705413
0.70675
0.70727
0.707908
0.709235
0.710728
0.712975
0.71641
0.71946
0.721897
0.723914
0.725403
0.7265
0.729064
0.731343
0.733487
0.737689
0.745149
0.748988
0.754637
0.760307
0.761837
0.764849
0.767765
0.772488
0.781733
0.790644
0.802051
0.812247
0.812935
0.814542
0.819608
0.825249
0.835982
0.845244
0.852907
0.864975
0.876162
0.880808
0.883362
0.868405
0.868582
0.876373
0.893952
0.914922
0.9075
0.899819
0.902545
0.90985
0.912201
0.911187
0.921581
0.932255
0.935947
0.934693
0.932377
0.930523
0.933025
0.0280304
0.0280318
0.0280336
0.0280388
0.028044
0.0280492
0.0280561
0.0280606
0.0280617
0.028063
0.028065
0.0280648
0.0280629
0.0280566
0.0280549
0.0280443
0.0280271
0.0279985
0.0279732
0.0279519
0.0279393
0.0279396
0.027908
0.0278659
0.0278308
0.0277588
0.0303201
0.047784
0.0990939
0.193871
0.315057
0.434223
0.543254
0.628714
0.67312
0.68914
0.693977
0.69304
0.697088
0.697277
0.696404
0.69795
0.701164
0.70466
0.707443
0.710026
0.712147
0.713854
0.715763
0.717047
0.71795
0.719623
0.721775
0.724441
0.728372
0.732281
0.734776
0.737181
0.740063
0.742669
0.74741
0.751308
0.756331
0.763603
0.768399
0.774478
0.781317
0.783584
0.788299
0.796198
0.805683
0.820136
0.829753
0.835879
0.839589
0.843513
0.851148
0.854
0.859228
0.86285
0.866494
0.870177
0.878644
0.891311
0.903511
0.914844
0.902671
0.899482
0.910139
0.922729
0.923107
0.91366
0.919227
0.935084
0.937806
0.932895
0.936995
0.941546
0.94059
0.941754
0.0280929
0.0280936
0.0280943
0.0280965
0.028096
0.028095
0.0280947
0.0280941
0.0280896
0.0280867
0.0280842
0.0280768
0.0280638
0.0280508
0.0280407
0.0280253
0.0280008
0.0279658
0.0279318
0.0278999
0.0278796
0.0278624
0.0278581
0.0278586
0.0278611
0.0278688
0.0278413
0.0278141
0.0278051
0.0277603
0.0315615
0.0545225
0.1153
0.22488
0.361161
0.489271
0.583106
0.657275
0.686602
0.699224
0.699615
0.700862
0.701975
0.703781
0.703508
0.706979
0.710643
0.713565
0.715205
0.716747
0.718029
0.720915
0.724365
0.727266
0.729274
0.730766
0.732284
0.735066
0.739341
0.744393
0.749768
0.754945
0.759259
0.763063
0.768165
0.772714
0.779086
0.789312
0.795794
0.802126
0.808113
0.809808
0.817087
0.826541
0.83624
0.841498
0.846907
0.856297
0.865277
0.874132
0.878713
0.88521
0.889854
0.891497
0.897654
0.899686
0.908561
0.917513
0.924316
0.913035
0.909602
0.922164
0.940946
0.944015
0.93329
0.938509
0.948266
0.954251
0.953031
0.952714
0.0281432
0.0281401
0.028137
0.0281331
0.0281264
0.0281188
0.0281129
0.0281052
0.0280937
0.0280846
0.0280747
0.0280592
0.0280391
0.0280241
0.0280117
0.0279925
0.0279638
0.0279288
0.027895
0.0278669
0.0278526
0.0278468
0.0278543
0.0278728
0.0279007
0.0279162
0.0279417
0.0279794
0.0280205
0.0280542
0.0280358
0.0280033
0.0279784
0.0279178
0.0367262
0.0750706
0.158953
0.293265
0.436086
0.564615
0.637127
0.687656
0.699145
0.707016
0.705929
0.708315
0.707522
0.70889
0.711237
0.71585
0.71923
0.722666
0.725749
0.725778
0.727557
0.730097
0.733241
0.738078
0.743014
0.746159
0.749593
0.753094
0.757713
0.764932
0.771233
0.776408
0.782183
0.787609
0.794849
0.800217
0.805916
0.81217
0.816018
0.82511
0.836931
0.850336
0.857512
0.857413
0.86052
0.866567
0.881188
0.887797
0.885365
0.885767
0.891631
0.90473
0.915172
0.917216
0.915433
0.916127
0.923644
0.93178
0.92907
0.928435
0.938804
0.950881
0.950006
0.943217
0.944864
0.959115
0.0281357
0.0281285
0.028121
0.028113
0.0281028
0.0280931
0.0280833
0.0280726
0.02806
0.0280476
0.0280339
0.0280152
0.0279946
0.0279797
0.0279683
0.0279548
0.0279344
0.0279119
0.0278928
0.0278809
0.0278851
0.0279036
0.0279231
0.0279619
0.0280058
0.0280341
0.0280665
0.0281124
0.0281556
0.0281736
0.0281742
0.028161
0.0281454
0.0281402
0.0280854
0.028035
0.0279438
0.0298374
0.0529075
0.1237
0.248373
0.408696
0.547157
0.647501
0.690627
0.706138
0.712362
0.709474
0.711302
0.713053
0.713993
0.720164
0.725828
0.7269
0.730325
0.732717
0.732665
0.735988
0.739548
0.744021
0.751319
0.757172
0.762731
0.766229
0.769571
0.774785
0.781139
0.789149
0.79791
0.804458
0.810605
0.816461
0.820642
0.825051
0.835669
0.84576
0.858829
0.867739
0.863556
0.856338
0.857749
0.873835
0.898437
0.912579
0.917762
0.912095
0.907589
0.906316
0.910703
0.917499
0.925418
0.929685
0.935881
0.942259
0.942303
0.938993
0.938896
0.938246
0.93677
0.940497
0.0281137
0.0281052
0.028097
0.0280884
0.0280791
0.0280689
0.0280575
0.0280466
0.0280388
0.0280315
0.0280227
0.0280126
0.0280031
0.0279963
0.027993
0.027993
0.0279915
0.0279904
0.0279931
0.0280018
0.0280291
0.0280641
0.0280891
0.0281309
0.0281686
0.0281915
0.0282175
0.028252
0.0282764
0.02828
0.0282591
0.0282296
0.0281972
0.0281604
0.0281308
0.0281089
0.028104
0.0280432
0.0279754
0.0279259
0.0278551
0.0449237
0.108917
0.237026
0.40782
0.557162
0.66023
0.690079
0.709614
0.716473
0.714897
0.720183
0.723973
0.722925
0.728693
0.732516
0.733116
0.738395
0.740407
0.74453
0.752429
0.757935
0.76373
0.767372
0.771471
0.778841
0.785052
0.789964
0.795893
0.8022
0.810294
0.820494
0.825997
0.830015
0.834287
0.839473
0.846296
0.856775
0.86915
0.875476
0.876222
0.873018
0.872774
0.885131
0.904918
0.923058
0.932456
0.933794
0.927444
0.918616
0.916324
0.924564
0.935827
0.942977
0.948676
0.951489
0.953304
0.950632
0.948069
0.946885
0.028085
0.0280805
0.0280771
0.0280752
0.0280743
0.0280742
0.0280736
0.0280737
0.0280784
0.0280867
0.028096
0.0281061
0.0281173
0.0281265
0.0281395
0.0281563
0.0281722
0.0281884
0.0282013
0.028216
0.028246
0.0282728
0.0282886
0.0283041
0.0283097
0.0283056
0.0283076
0.0283177
0.0283129
0.028292
0.0282567
0.0282178
0.0281835
0.02815
0.0281281
0.028129
0.0281416
0.0281543
0.0281775
0.0281956
0.028227
0.0281884
0.0281796
0.0281372
0.0449056
0.112254
0.252806
0.420916
0.578442
0.6602
0.704339
0.717513
0.728041
0.72598
0.728643
0.732538
0.729648
0.738346
0.740113
0.744772
0.753742
0.75786
0.765418
0.769153
0.773713
0.78121
0.784285
0.789882
0.798336
0.806212
0.814367
0.821658
0.825496
0.830391
0.8379
0.84323
0.849806
0.857606
0.863194
0.871888
0.878915
0.880868
0.880476
0.878651
0.882243
0.891802
0.905936
0.919392
0.929446
0.938194
0.939471
0.936745
0.935891
0.937551
0.943312
0.948006
0.948978
0.94805
0.9494
0.954578
0.0281659
0.0281733
0.0281841
0.0281951
0.0282083
0.0282256
0.0282436
0.0282587
0.0282761
0.0282951
0.0283096
0.0283271
0.0283486
0.0283658
0.0283823
0.0283977
0.0284113
0.0284233
0.0284294
0.0284338
0.0284374
0.0284323
0.0284166
0.0283966
0.0283735
0.0283494
0.0283329
0.028322
0.0282966
0.0282623
0.0282242
0.028193
0.0281778
0.0281753
0.028191
0.0282485
0.0283242
0.0283984
0.0284613
0.0285011
0.0285204
0.0285498
0.0285724
0.0285813
0.0284977
0.0284069
0.0282464
0.0489216
0.130076
0.279836
0.46001
0.607978
0.687533
0.724626
0.731868
0.735974
0.730806
0.735823
0.733666
0.741609
0.754303
0.760258
0.770194
0.769909
0.773985
0.782654
0.786512
0.79494
0.802642
0.805773
0.813045
0.821788
0.829219
0.83695
0.842779
0.84475
0.847969
0.855785
0.865085
0.87379
0.881968
0.888235
0.89102
0.893946
0.896225
0.896614
0.897686
0.90039
0.905078
0.913983
0.925654
0.934165
0.940492
0.944021
0.943525
0.942372
0.942474
0.941416
0.945873
0.951721
0.0284278
0.0284434
0.0284612
0.0284763
0.0284907
0.0285083
0.0285257
0.0285368
0.0285449
0.0285497
0.0285498
0.0285526
0.028561
0.0285686
0.0285698
0.028567
0.0285581
0.0285468
0.0285377
0.028526
0.028507
0.0284814
0.0284437
0.0283941
0.0283509
0.0283231
0.0283083
0.0282945
0.0282758
0.0282565
0.0282407
0.0282409
0.0282707
0.0283297
0.0284055
0.0285094
0.0286118
0.0286977
0.0287509
0.0287723
0.0287728
0.0287617
0.0287328
0.0286731
0.0286179
0.0285646
0.0284939
0.0283704
0.0282646
0.0293697
0.0599642
0.162412
0.329631
0.528693
0.649214
0.710428
0.72749
0.737912
0.734902
0.739468
0.750351
0.758037
0.77287
0.77086
0.77755
0.786318
0.7864
0.797544
0.805347
0.807618
0.817552
0.825841
0.828456
0.834717
0.843518
0.849003
0.855999
0.862733
0.864525
0.867878
0.876075
0.888584
0.898116
0.902117
0.90557
0.90601
0.909151
0.911051
0.912155
0.912217
0.915887
0.927259
0.940035
0.954245
0.961092
0.96137
0.959563
0.949949
0.942291
0.952748
0.0286858
0.0286953
0.0287052
0.0287105
0.0287139
0.0287205
0.0287214
0.0287145
0.0287021
0.0286825
0.0286611
0.0286411
0.0286293
0.0286244
0.0286193
0.0286081
0.0285904
0.0285685
0.0285425
0.028516
0.0284918
0.0284711
0.0284487
0.0284195
0.0283955
0.0283881
0.0283923
0.0284051
0.0284273
0.0284505
0.0284816
0.0285245
0.028585
0.028663
0.0287601
0.0288452
0.0289112
0.0289429
0.028951
0.0289408
0.0289155
0.0288742
0.0288308
0.028782
0.028724
0.0286901
0.0286931
0.028679
0.0287115
0.0288747
0.0291019
0.0292296
0.0342087
0.0853192
0.221713
0.408466
0.58594
0.672865
0.725018
0.740434
0.750267
0.762928
0.77464
0.768369
0.779657
0.788496
0.788236
0.804039
0.810985
0.809127
0.820944
0.827548
0.82768
0.83746
0.849467
0.852734
0.858318
0.864048
0.865252
0.868562
0.877537
0.886936
0.894855
0.900692
0.909311
0.912669
0.915138
0.916511
0.919031
0.921575
0.924475
0.926516
0.930009
0.941576
0.950187
0.956809
0.960068
0.964983
0.962388
0.95561
0.0287784
0.0287777
0.028779
0.028782
0.0287836
0.0287798
0.0287662
0.0287473
0.028734
0.0287047
0.0286677
0.0286346
0.0286118
0.0286064
0.028613
0.0286173
0.0286115
0.0285992
0.0285908
0.0285889
0.0285916
0.0286044
0.0286259
0.0286454
0.0286708
0.0287052
0.0287428
0.0287912
0.0288423
0.0288856
0.0289335
0.02898
0.0290055
0.0290357
0.0290724
0.029087
0.0290663
0.0290213
0.028973
0.0289364
0.028909
0.0288906
0.0288916
0.02891
0.0289244
0.0289634
0.0290267
0.0291372
0.0293066
0.0295264
0.0298123
0.0300633
0.0300012
0.0299015
0.0297522
0.0467416
0.130995
0.288049
0.484028
0.638268
0.705404
0.760027
0.784345
0.775646
0.788124
0.786302
0.784961
0.808185
0.815266
0.812912
0.828211
0.832486
0.82819
0.838819
0.850681
0.852639
0.86297
0.87294
0.870933
0.869293
0.874012
0.880916
0.891701
0.904032
0.911547
0.914171
0.915728
0.91813
0.922546
0.927639
0.931324
0.931583
0.93278
0.930895
0.933751
0.937869
0.939942
0.949441
0.959964
0.962306
0.0288545
0.0288393
0.0288263
0.0288167
0.0288082
0.0287968
0.028781
0.0287684
0.028749
0.0287154
0.0286857
0.0286711
0.028672
0.028687
0.0287158
0.028745
0.0287675
0.0287892
0.0288254
0.028873
0.0289209
0.0289826
0.029043
0.0290879
0.0291301
0.0291746
0.0292131
0.0292504
0.0292742
0.0292823
0.029286
0.0292759
0.0292488
0.0292189
0.0291837
0.0291566
0.0290805
0.0289993
0.0289336
0.02891
0.0289397
0.0290168
0.0291314
0.0292616
0.0293992
0.0295219
0.0296692
0.0298855
0.0300822
0.0302741
0.0304023
0.0304142
0.030347
0.0302684
0.0302339
0.0301119
0.0300149
0.0311031
0.068698
0.1932
0.380176
0.568091
0.690669
0.751478
0.798259
0.788281
0.795803
0.812573
0.809895
0.81255
0.834351
0.83778
0.833479
0.845362
0.854351
0.852468
0.86396
0.874566
0.872675
0.874138
0.883072
0.884879
0.887642
0.895557
0.901673
0.908303
0.918432
0.927194
0.929203
0.929932
0.930368
0.927994
0.929936
0.930343
0.932764
0.936328
0.93909
0.937401
0.940046
0.948502
0.0287657
0.0287612
0.0287614
0.0287706
0.0287825
0.0287898
0.0287922
0.0287964
0.0288047
0.0288151
0.0288329
0.0288684
0.0289155
0.0289727
0.0290387
0.0291012
0.029154
0.0292092
0.0292731
0.0293327
0.0293833
0.0294371
0.0294825
0.0295118
0.0295268
0.0295259
0.0295149
0.0295028
0.029486
0.0294646
0.0294261
0.0293821
0.0293459
0.0292944
0.0292359
0.0292112
0.0291659
0.0291242
0.029118
0.0291821
0.0293263
0.0295389
0.0297554
0.0299764
0.0301513
0.0302826
0.0304478
0.0305773
0.0306917
0.0307411
0.030685
0.0305769
0.0304497
0.0303841
0.0303665
0.0304985
0.0308129
0.0313196
0.0319522
0.0323224
0.0442711
0.11169
0.272235
0.468231
0.628418
0.724093
0.791507
0.826813
0.816743
0.823542
0.834753
0.828781
0.8337
0.853685
0.859942
0.858271
0.868388
0.875444
0.873518
0.877152
0.888181
0.88916
0.889978
0.896915
0.900325
0.902044
0.909753
0.917169
0.921108
0.930203
0.938057
0.938971
0.939875
0.940291
0.94071
0.937503
0.93664
0.934616
0.935257
0.945526
0.0288648
0.0289059
0.0289647
0.0290347
0.0290993
0.0291543
0.0292021
0.0292488
0.0292904
0.0293288
0.029372
0.0294162
0.0294657
0.0295339
0.0296046
0.0296524
0.0296871
0.0297277
0.0297571
0.0297751
0.0297845
0.0297807
0.0297666
0.029745
0.0297184
0.0296844
0.0296445
0.0296045
0.0295673
0.0295316
0.0295031
0.0294913
0.029501
0.0295135
0.0295196
0.0295473
0.0296329
0.0297376
0.0298593
0.0300044
0.0302037
0.0304181
0.0306193
0.0307836
0.0308714
0.0309447
0.0310293
0.0310731
0.0311171
0.0310707
0.0309602
0.0308209
0.0307518
0.0308203
0.0311148
0.0317614
0.0325786
0.0336124
0.03452
0.0353732
0.0359347
0.0360321
0.0360353
0.0653707
0.165895
0.359275
0.549573
0.664977
0.768554
0.831198
0.85029
0.837995
0.847869
0.853574
0.848375
0.854271
0.876471
0.880373
0.879552
0.883688
0.891547
0.891323
0.894778
0.902973
0.904998
0.904418
0.910687
0.916524
0.91913
0.924971
0.930255
0.932494
0.936637
0.943202
0.949882
0.952497
0.953092
0.950072
0.945117
0.946554
0.029759
0.0298034
0.0298546
0.029906
0.0299549
0.0299963
0.0300285
0.0300517
0.0300682
0.03008
0.0300819
0.0300715
0.0300584
0.0300521
0.0300488
0.0300457
0.0300422
0.030025
0.0299918
0.0299591
0.0299411
0.0298964
0.0298437
0.0297944
0.02975
0.0297168
0.0297045
0.0297124
0.0297252
0.0297595
0.0298274
0.0299329
0.0300517
0.0301731
0.0302838
0.0304306
0.0306068
0.0307789
0.0309317
0.0310658
0.0311776
0.031258
0.031329
0.0313372
0.0313207
0.0313231
0.0313586
0.0314044
0.0314231
0.0315212
0.0316532
0.0317751
0.0321218
0.0326954
0.0336125
0.0345603
0.0355387
0.036271
0.0368336
0.0374467
0.0377353
0.0380921
0.0388117
0.0398173
0.0405184
0.0471801
0.101043
0.227253
0.424784
0.605839
0.702579
0.796601
0.873447
0.870799
0.866147
0.866562
0.875057
0.862372
0.87443
0.891131
0.899121
0.898258
0.902429
0.907018
0.907673
0.909667
0.918025
0.922182
0.921213
0.924343
0.928911
0.934437
0.941223
0.946778
0.948555
0.948775
0.949222
0.952003
0.954922
0.959696
0.0305515
0.0305382
0.0305247
0.0305084
0.0304902
0.0304642
0.0304355
0.0304131
0.0303891
0.0303628
0.0303357
0.0302861
0.0302331
0.0301939
0.0301612
0.0301355
0.0301138
0.0300773
0.0300098
0.0299519
0.0299192
0.0298944
0.029872
0.029868
0.0298977
0.0299635
0.0300832
0.0302226
0.0303792
0.0305637
0.0307594
0.0309287
0.0310893
0.0312436
0.0313761
0.0315143
0.0316715
0.0318042
0.0318618
0.0318714
0.0318549
0.0318359
0.0318199
0.0317654
0.0317554
0.0317972
0.0319162
0.0321428
0.0324748
0.0330225
0.0337273
0.0346641
0.0356125
0.0366057
0.0373853
0.038029
0.0385725
0.0388399
0.0391668
0.0394914
0.0401302
0.0410939
0.0422807
0.0434725
0.0446751
0.045846
0.046096
0.0462659
0.059787
0.135359
0.284329
0.481675
0.652477
0.742169
0.839508
0.883939
0.896101
0.878947
0.89281
0.893186
0.882587
0.886618
0.905025
0.913623
0.917153
0.920925
0.922881
0.921549
0.922321
0.92948
0.934385
0.938045
0.941018
0.942274
0.944295
0.947583
0.951134
0.955648
0.954599
0.953527
0.0301521
0.0301206
0.0300984
0.030083
0.0300807
0.0300657
0.0300491
0.0300493
0.0300671
0.0300851
0.0300973
0.0301017
0.030104
0.0301138
0.0301299
0.0301562
0.0301939
0.0302389
0.0302942
0.0303533
0.0304234
0.0305222
0.0306397
0.0307895
0.0309773
0.0311667
0.0313536
0.0315389
0.0317005
0.0318446
0.0319563
0.0320416
0.0321301
0.0322232
0.0323163
0.032391
0.0324678
0.0325303
0.0325757
0.0326128
0.0326463
0.0326845
0.0328029
0.0330218
0.0334158
0.0339233
0.0345921
0.0353504
0.0362605
0.0371011
0.0379461
0.038664
0.0393274
0.039881
0.040257
0.0406407
0.0409442
0.0413309
0.0418401
0.0425659
0.0435608
0.0447046
0.0457533
0.0466991
0.0476855
0.0486873
0.0494824
0.0505013
0.0514169
0.0517793
0.052183
0.0761344
0.168405
0.338465
0.541596
0.682016
0.767557
0.848993
0.931836
0.918936
0.904068
0.900313
0.901363
0.894121
0.907629
0.924883
0.932731
0.930357
0.930678
0.931213
0.931595
0.937286
0.944067
0.946033
0.94687
0.948027
0.947813
0.9486
0.951244
0.957467
0.0306737
0.0307382
0.0308044
0.0308797
0.0309636
0.0310389
0.0311094
0.0311869
0.0312826
0.031384
0.0314602
0.0315077
0.0315526
0.0316277
0.0317163
0.0318069
0.0318901
0.031959
0.0320111
0.0320914
0.0322051
0.0323117
0.0324008
0.0324728
0.0325691
0.0326757
0.03277
0.032847
0.0329044
0.0329537
0.0329837
0.0330305
0.0330934
0.033206
0.0333607
0.0335458
0.0337234
0.0339192
0.0341906
0.0345784
0.0350657
0.0356968
0.0364213
0.0372737
0.0380813
0.0388746
0.0395613
0.0402068
0.0407345
0.0411559
0.0414881
0.0417499
0.0420689
0.0423685
0.0427177
0.0431499
0.0437788
0.0446206
0.045683
0.0467986
0.047979
0.0489504
0.0498175
0.0505002
0.0512328
0.0520148
0.0529976
0.0540872
0.0550767
0.0560922
0.0575546
0.0588276
0.060166
0.0610831
0.095159
0.205589
0.372457
0.577656
0.727788
0.801041
0.872696
0.926963
0.939508
0.914529
0.922345
0.92194
0.915365
0.916467
0.931093
0.937911
0.940734
0.945952
0.946171
0.941466
0.941507
0.945824
0.949041
0.951629
0.9517
0.95536
0.032769
0.0328154
0.032869
0.0329235
0.0329751
0.0330182
0.0330536
0.0330881
0.0331394
0.0332032
0.0332701
0.0333341
0.0333928
0.0334456
0.0334982
0.0335532
0.0336159
0.0336899
0.033776
0.0338678
0.0339544
0.0340477
0.0341531
0.0342699
0.0343911
0.0345053
0.0346348
0.0347817
0.0349871
0.0352295
0.0355357
0.0358862
0.036301
0.0367415
0.0372235
0.0376923
0.0382023
0.0387425
0.0393508
0.0399397
0.0405052
0.0410219
0.0415475
0.0419977
0.0423738
0.0427143
0.0430283
0.0433397
0.0436019
0.0438945
0.0441334
0.044474
0.0449268
0.0455738
0.0463484
0.0472806
0.0482081
0.0492617
0.050246
0.0512802
0.0521393
0.0528786
0.0535605
0.0541418
0.0547428
0.0554445
0.0565804
0.0578766
0.0594208
0.0610213
0.0626735
0.0640093
0.0650209
0.0660587
0.0667558
0.0677272
0.0706556
0.115524
0.229801
0.432008
0.629077
0.758308
0.843198
0.890767
0.959683
0.952887
0.936675
0.925269
0.925161
0.921554
0.932461
0.950387
0.953793
0.950898
0.947562
0.946273
0.946027
0.947494
0.950574
0.956139
0.0351351
0.0352051
0.0352807
0.0353617
0.0354536
0.0355556
0.0356599
0.03576
0.0358652
0.035984
0.0361177
0.0362719
0.0364392
0.0366177
0.0368001
0.0369888
0.03719
0.0374183
0.0376547
0.0379007
0.0381611
0.0384383
0.0387211
0.0390172
0.0393163
0.0396214
0.0399374
0.0402697
0.040591
0.040931
0.0412444
0.0415559
0.0418735
0.0421958
0.0424758
0.042753
0.0430409
0.043345
0.0436451
0.0439157
0.0441841
0.0444404
0.0446967
0.0449241
0.0451674
0.0454457
0.0458139
0.0461912
0.0466689
0.0472573
0.0479969
0.0488316
0.0498537
0.050889
0.0519573
0.0528111
0.0535979
0.0541765
0.0547163
0.0552976
0.0558732
0.0565716
0.0573566
0.0582859
0.0593227
0.0606442
0.0620076
0.0635649
0.0648657
0.0662962
0.0674854
0.0681472
0.0689909
0.0703905
0.0723934
0.0742278
0.0756981
0.0766299
0.0773106
0.0876825
0.144863
0.285491
0.48525
0.688525
0.80738
0.864941
0.915681
0.959099
0.961778
0.937301
0.940021
0.941746
0.935342
0.941027
0.951884
0.953683
0.952284
0.949109
0.949191
0.954435
0.0402228
0.0403136
0.0404123
0.040512
0.0406164
0.040722
0.0408316
0.040952
0.0410761
0.0411984
0.0413291
0.0414649
0.0416124
0.0417594
0.0419051
0.042053
0.0422085
0.0423717
0.0425454
0.0427205
0.0429023
0.0430876
0.0432746
0.0434578
0.0436439
0.0438343
0.044029
0.0442271
0.0444368
0.0446458
0.0448612
0.0450816
0.0452945
0.0455076
0.045732
0.0459927
0.0462544
0.0465507
0.0468707
0.0472492
0.0476543
0.0481195
0.0486447
0.0492582
0.049868
0.0505496
0.0512375
0.0519397
0.0526533
0.0533969
0.0541104
0.0548489
0.0555898
0.0563338
0.0569305
0.0574737
0.0579915
0.0583664
0.0588139
0.0593565
0.0601004
0.0611592
0.0623833
0.0637575
0.065209
0.0667032
0.0681124
0.0691446
0.0700591
0.0710104
0.072032
0.0734079
0.0750723
0.0767074
0.0782666
0.0794372
0.0808013
0.0822474
0.0840191
0.0856154
0.0862059
0.0868553
0.10216
0.186587
0.338619
0.554068
0.746953
0.852351
0.905606
0.930609
0.976678
0.966024
0.94227
0.940989
0.941047
0.940591
0.94541
0.951812
0.95318
0.955039
0.0447546
0.0448314
0.0449048
0.0449766
0.0450613
0.0451639
0.0452715
0.0453756
0.0454837
0.0456007
0.0457231
0.0458482
0.0459765
0.0461163
0.0462626
0.0464118
0.0465694
0.0467391
0.0469188
0.0471067
0.0473045
0.0475119
0.0477288
0.0479587
0.0482064
0.0484706
0.0487528
0.049041
0.0493376
0.049641
0.0499503
0.0502629
0.0505991
0.0509415
0.0513182
0.051724
0.052157
0.0526188
0.0531129
0.0536098
0.0541344
0.0546648
0.055262
0.0558329
0.0563849
0.0569231
0.0574598
0.0579674
0.058387
0.058772
0.0591356
0.0595393
0.0599854
0.0604819
0.0610292
0.0616805
0.0624212
0.0632767
0.0642151
0.0652685
0.066656
0.0681168
0.0695005
0.070652
0.0717082
0.0728374
0.0739523
0.0749272
0.0758973
0.0767171
0.078
0.0796625
0.0811569
0.0824002
0.0834938
0.0848553
0.0863893
0.0877973
0.0890731
0.0899795
0.0911625
0.0929469
0.0939043
0.0945074
0.0949724
0.126712
0.231603
0.427443
0.640386
0.814302
0.897008
0.924007
0.946066
0.97252
0.961847
0.947205
0.94176
0.943396
0.947423
0.955685
0.0504992
0.0505932
0.0507035
0.0508249
0.0509511
0.0510745
0.0512017
0.0513353
0.0514781
0.0516259
0.0517764
0.0519287
0.0520848
0.052252
0.052425
0.0526019
0.0527837
0.0529742
0.0531762
0.0533792
0.0535837
0.0538004
0.0540261
0.0542634
0.0545089
0.054764
0.0550327
0.0553056
0.0555829
0.0558719
0.0561642
0.0564727
0.0567977
0.0571267
0.0574677
0.0578106
0.0581509
0.05848
0.0588128
0.0591518
0.0595009
0.0598755
0.0602934
0.0607551
0.061206
0.0616547