/*--------------------------------*- C++ -*----------------------------------*\
  =========                 |
  \\      /  F ield         | OpenFOAM: The Open Source CFD Toolbox
   \\    /   O peration     | Website:  https://openfoam.org
    \\  /    A nd           | Version:  7
     \\/     M anipulation  |
\*---------------------------------------------------------------------------*/
FoamFile
{
    version     2.0;
    format      ascii;
    class       volScalarField;
    location    "8.6";
    object      p;
}
// * * * * * * * * * * * * * * * * * * * * * * * * * * * * * * * * * * * * * //

dimensions      [1 -1 -2 0 0 0 0];

internalField   nonuniform List<scalar> 
8400
(
0.16715
0.278478
0.381955
0.492998
0.571178
0.654226
0.703477
0.737961
0.774215
0.778074
0.779219
0.803596
0.824976
0.838692
0.869602
0.892035
0.907689
0.921655
0.920836
0.904147
0.891495
0.882418
0.8905
0.91174
0.933716
0.951751
0.964259
0.977746
0.995116
0.988964
0.0560798
0.0575156
0.0659477
0.0913668
0.143504
0.209691
0.315931
0.432677
0.548269
0.675398
0.777205
0.862342
0.941221
0.974423
0.980021
0.963269
0.933147
0.897108
0.864515
0.846908
0.858719
0.890422
0.930235
0.953131
0.96834
0.976963
0.974437
0.970311
0.97646
0.988945
0.0591374
0.0592838
0.0592627
0.0595431
0.0585884
0.0576942
0.0561374
0.0641271
0.0876044
0.146992
0.250419
0.368319
0.503179
0.660367
0.760781
0.849717
0.871205
0.884977
0.889148
0.878797
0.877073
0.893161
0.914198
0.933016
0.964709
0.98393
0.990428
0.991271
0.995784
1.00378
0.0547817
0.0554843
0.0560009
0.0559827
0.0553317
0.0543351
0.0531977
0.0520594
0.0516902
0.0519841
0.0520624
0.0512718
0.0622363
0.106608
0.197437
0.335177
0.532826
0.711477
0.871566
0.923116
0.930217
0.928707
0.922369
0.925679
0.956011
0.969491
0.980573
0.99332
1.00222
1.00778
0.0524001
0.0529338
0.0531812
0.0529782
0.052515
0.0519133
0.0511628
0.0507105
0.0508111
0.0515684
0.0525299
0.0524351
0.0523231
0.0530574
0.0562141
0.060117
0.0860162
0.159969
0.309172
0.527626
0.705129
0.826191
0.875418
0.91739
0.984293
0.965115
0.990011
1.01475
1.02154
1.02329
0.0517944
0.0521396
0.0522956
0.0519249
0.0517596
0.0519393
0.0519282
0.0518968
0.0525745
0.0552798
0.0601531
0.0646908
0.0667397
0.0684173
0.0700313
0.0736919
0.0786716
0.0783077
0.0780477
0.0974824
0.176241
0.323106
0.526367
0.699855
0.796683
0.869247
0.960336
1.01583
1.01051
1.01041
0.0559651
0.0571435
0.058684
0.0606793
0.0630306
0.0653608
0.067124
0.068478
0.070592
0.0736436
0.0759048
0.079025
0.0825597
0.0833338
0.0827568
0.0830926
0.0863209
0.0892384
0.092364
0.0969008
0.103238
0.106581
0.126597
0.198254
0.317501
0.524399
0.702138
0.811466
0.912103
1.02048
0.0768865
0.0776045
0.0784633
0.0796583
0.0814274
0.0837636
0.0859756
0.0873659
0.0875994
0.0871598
0.0869816
0.0887866
0.0937674
0.0957774
0.0976357
0.101282
0.107419
0.115914
0.122215
0.124916
0.128026
0.132181
0.133619
0.13246
0.131991
0.152749
0.223152
0.392492
0.590821
0.826859
0.0963441
0.0964088
0.0965325
0.0969511
0.0981933
0.100508
0.104013
0.10867
0.109916
0.10999
0.111153
0.114496
0.120511
0.128685
0.135243
0.138569
0.141114
0.145466
0.147047
0.14626
0.145898
0.147509
0.151522
0.155279
0.15938
0.164183
0.166642
0.169021
0.190865
0.391956
0.130423
0.131654
0.132411
0.132809
0.133585
0.135527
0.139253
0.144746
0.150075
0.152654
0.154066
0.154744
0.155768
0.15939
0.161803
0.161151
0.159809
0.160045
0.161483
0.161911
0.162981
0.165741
0.172052
0.180343
0.187454
0.190588
0.193001
0.193315
0.192419
0.194008
0.172883
0.175081
0.177675
0.178746
0.178411
0.177604
0.177405
0.178677
0.182827
0.187021
0.188558
0.187999
0.186108
0.186299
0.189411
0.191645
0.192248
0.193963
0.197977
0.203195
0.207155
0.209462
0.210649
0.210363
0.209543
0.208089
0.208336
0.20939
0.211755
0.219055
0.224694
0.226478
0.229605
0.233834
0.235951
0.235795
0.233082
0.228931
0.228886
0.232269
0.23698
0.238248
0.237826
0.238141
0.240616
0.244028
0.245111
0.245699
0.245911
0.246143
0.246297
0.246487
0.246424
0.245454
0.242621
0.243074
0.244494
0.247466
0.25162
0.25565
0.291571
0.291152
0.29231
0.296899
0.303493
0.305804
0.304628
0.298835
0.293161
0.291911
0.293813
0.294585
0.293364
0.291352
0.291104
0.290923
0.28895
0.284887
0.28378
0.284021
0.284229
0.284118
0.284193
0.285258
0.288482
0.29294
0.295162
0.295076
0.293498
0.288118
0.382706
0.377002
0.37656
0.378627
0.384123
0.387756
0.38702
0.381384
0.372559
0.36956
0.370484
0.37028
0.365728
0.359537
0.359316
0.359824
0.359083
0.355929
0.352003
0.349545
0.348058
0.346466
0.343992
0.339796
0.337221
0.335056
0.331506
0.326467
0.321473
0.318036
0.503123
0.485647
0.481682
0.482233
0.488029
0.490901
0.489652
0.483059
0.46946
0.460585
0.461395
0.461759
0.456645
0.443473
0.4388
0.438278
0.436014
0.430095
0.422856
0.417548
0.413213
0.409735
0.405587
0.400227
0.394417
0.388548
0.384334
0.378518
0.376248
0.374527
0.658227
0.630808
0.613373
0.608878
0.611592
0.618239
0.617215
0.608323
0.590502
0.573958
0.572659
0.573069
0.56652
0.54618
0.536514
0.535215
0.531944
0.523024
0.51194
0.50266
0.495832
0.488958
0.480803
0.472567
0.46559
0.459648
0.454027
0.447787
0.441082
0.42784
0.838168
0.8121
0.779164
0.762895
0.762583
0.771387
0.773023
0.76209
0.737165
0.710288
0.70548
0.7067
0.699232
0.67031
0.654657
0.651818
0.646423
0.63313
0.617596
0.603433
0.592622
0.582761
0.572186
0.559665
0.547406
0.535884
0.524583
0.512193
0.500919
0.484367
1.04639
1.02366
0.985415
0.951134
0.941913
0.949313
0.954806
0.944037
0.913503
0.87337
0.86196
0.863849
0.855971
0.821401
0.795864
0.789478
0.780612
0.762976
0.742332
0.723607
0.707081
0.691843
0.676271
0.65909
0.642053
0.626396
0.611643
0.596027
0.58252
0.561172
1.29257
1.27389
1.23936
1.1881
1.1612
1.16173
1.16559
1.15302
1.12034
1.07325
1.05041
1.04846
1.03665
0.998538
0.963659
0.948846
0.933801
0.91138
0.8866
0.861976
0.838465
0.817623
0.796498
0.77423
0.75194
0.730642
0.710153
0.689569
0.671593
0.64193
1.56638
1.5525
1.52728
1.47815
1.45476
1.44142
1.42228
1.39686
1.368
1.32301
1.28467
1.26833
1.24824
1.20739
1.16765
1.14036
1.11295
1.08239
1.0516
1.02013
0.989459
0.961307
0.934243
0.905573
0.877246
0.850131
0.824181
0.797772
0.774634
0.737627
1.73331
1.73123
1.72621
1.71296
1.69626
1.67924
1.66212
1.64436
1.62467
1.59842
1.56301
1.53213
1.50401
1.46434
1.419
1.37833
1.33774
1.29597
1.25552
1.21346
1.17191
1.13267
1.0953
1.05884
1.0222
0.987261
0.954558
0.92121
0.892509
0.846325
1.73354
1.73505
1.73606
1.73387
1.73153
1.73187
1.73064
1.72773
1.72565
1.7204
1.7116
1.70273
1.69161
1.67438
1.65238
1.62525
1.58958
1.54791
1.50324
1.45578
1.40491
1.35321
1.30068
1.24934
1.20052
1.15272
1.10836
1.06537
1.02835
0.969825
1.59398
1.60982
1.63421
1.66352
1.67836
1.67598
1.66955
1.67841
1.69091
1.70159
1.70351
1.70015
1.70171
1.70491
1.70345
1.69782
1.69092
1.68311
1.67323
1.65594
1.62815
1.59068
1.54453
1.49128
1.43277
1.37109
1.30954
1.24895
1.19744
1.11809
1.26049
1.27766
1.29891
1.34528
1.38053
1.39531
1.41646
1.44796
1.47749
1.51475
1.55021
1.5657
1.58634
1.62465
1.64601
1.6517
1.66011
1.67186
1.6742
1.67405
1.67187
1.66718
1.65956
1.64679
1.62492
1.59004
1.54153
1.48098
1.41948
1.31362
1.03413
1.03961
1.04586
1.05556
1.06884
1.08269
1.09736
1.11517
1.13673
1.16211
1.19681
1.23233
1.26656
1.30939
1.36026
1.40679
1.44989
1.49598
1.53651
1.57595
1.60257
1.62398
1.63599
1.64227
1.64256
1.64072
1.63473
1.62164
1.60005
1.52752
1.00094
1.00118
1.00151
1.00197
1.00271
1.0037
1.00501
1.00671
1.00917
1.01253
1.0177
1.02532
1.03462
1.04748
1.0656
1.09096
1.12047
1.15951
1.20514
1.26022
1.3193
1.3795
1.44207
1.49431
1.54538
1.57806
1.59751
1.61229
1.61301
1.60498
1.00001
1.00001
1.00001
1.00002
1.00003
1.00004
1.00006
1.00008
1.00013
1.0002
1.00032
1.00054
1.00089
1.00148
1.00249
1.00435
1.00728
1.01232
1.02051
1.03326
1.05377
1.08214
1.12294
1.17597
1.23853
1.31176
1.38474
1.45333
1.50803
1.56021
1
1
1
1
1
1
1
1
1
1
1
1
1.00001
1.00001
1.00002
1.00004
1.00009
1.00019
1.0004
1.00086
1.00183
1.00389
1.00794
1.01584
1.03005
1.0544
1.09231
1.148
1.2127
1.33619
1
1
1
1
1
1
1
1
1
1
1
1
1
1
1
1
1
1
1
1.00001
1.00002
1.00004
1.00011
1.00029
1.00078
1.00205
1.00506
1.01231
1.02499
1.07793
1
1
1
1
1
1
1
1
1
1
1
1
1
1
1
1
1
1
1
1
1
1
1
1
1.00001
1.00002
1.00006
1.00023
1.00065
1.00527
0.056997
0.0571147
0.0592722
0.0542456
0.0515549
0.0516235
0.0550799
0.0762484
0.0967608
0.129278
0.171126
0.223913
0.301623
0.403025
0.528758
0.679345
0.857917
1.06698
1.3155
1.58853
1.73912
1.72987
1.573
1.23295
1.02707
1.00074
1.00001
1
1
1
0.0577262
0.0580286
0.0589872
0.0527949
0.050105
0.0521133
0.057521
0.0800907
0.103556
0.135521
0.180721
0.245641
0.336241
0.438145
0.560726
0.712507
0.895458
1.11098
1.3717
1.64078
1.75186
1.72047
1.53219
1.17763
1.01529
1.00029
1
1
1
1
0.0585732
0.0585667
0.0587721
0.0522661
0.0495653
0.0530519
0.0595609
0.0808011
0.105143
0.137663
0.190142
0.263698
0.350204
0.450066
0.57366
0.728111
0.916131
1.14358
1.42769
1.68818
1.7585
1.71474
1.4851
1.1294
1.00861
1.00013
1
1
1
1
0.0593108
0.0589137
0.0589681
0.0518866
0.049168
0.0534609
0.0608118
0.0808616
0.105558
0.143796
0.20368
0.274188
0.354499
0.457138
0.58699
0.753415
0.962283
1.21748
1.51441
1.73368
1.76137
1.70791
1.40602
1.08761
1.00452
1.00006
1
1
1
1
0.060005
0.0590839
0.0587306
0.05132
0.0487841
0.0535426
0.0610387
0.0818661
0.107159
0.155566
0.215015
0.280758
0.35994
0.478281
0.637923
0.833627
1.05965
1.31277
1.58608
1.75762
1.76229
1.65925
1.33564
1.05956
1.0024
1.00003
1
1
1
1
0.0602736
0.0585726
0.057146
0.0501928
0.0481846
0.0539468
0.0613382
0.0862229
0.121288
0.168547
0.222149
0.29121
0.405709
0.544294
0.708032
0.896816
1.11639
1.36738
1.63177
1.76662
1.75994
1.61316
1.27642
1.03804
1.00116
1.00001
1
1
1
1
0.0594873
0.0561947
0.0549075
0.0492226
0.0479067
0.0559971
0.0670687
0.0953207
0.131936
0.174089
0.234182
0.329217
0.447844
0.580133
0.739556
0.930251
1.15595
1.42108
1.6795
1.77291
1.74658
1.57315
1.21285
1.02199
1.00052
1
1
1
1
1
0.0581276
0.0548539
0.0540787
0.0490093
0.0483118
0.0585154
0.0741647
0.100873
0.135087
0.178348
0.252664
0.356117
0.466002
0.597349
0.760653
0.961867
1.2086
1.50315
1.73015
1.77861
1.73284
1.5143
1.15326
1.01252
1.00024
1
1
1
1
1
0.0573879
0.0547739
0.0540962
0.0493892
0.0492075
0.0600058
0.0768963
0.101639
0.136144
0.188
0.274286
0.368114
0.473509
0.61443
0.800494
1.03666
1.30993
1.59276
1.76541
1.78214
1.7231
1.43647
1.10803
1.00671
1.0001
1
1
1
1
1
0.0570357
0.0551774
0.0541413
0.049363
0.0497293
0.0602671
0.0773519
0.101076
0.139737
0.210104
0.289715
0.374898
0.498392
0.677346
0.897748
1.13978
1.398
1.65279
1.78549
1.78556
1.69184
1.36619
1.06964
1.00311
1.00004
1
1
1
1
1
0.057293
0.0570392
0.0539099
0.0480388
0.0490397
0.0591345
0.0776256
0.106067
0.161247
0.230227
0.304437
0.408934
0.57664
0.760038
0.965805
1.20026
1.45813
1.70164
1.79498
1.78521
1.63032
1.28498
1.04041
1.00139
1.00002
1
1
1
1
1
0.0581738
0.0587288
0.0530308
0.046265
0.0482014
0.0581334
0.079632
0.126458
0.181477
0.24055
0.326612
0.472478
0.627647
0.801112
1.009
1.25663
1.5302
1.74875
1.79754
1.76401
1.57354
1.21067
1.0236
1.00063
1.00001
1
1
1
1
1
0.0594004
0.0590399
0.0514961
0.0451455
0.0483777
0.0613974
0.0934113
0.139263
0.186799
0.252762
0.366654
0.505542
0.652195
0.833342
1.06232
1.34288
1.61761
1.78202
1.79709
1.73863
1.50656
1.15377
1.01318
1.00026
1
1
1
1
1
1
0.0602378
0.0583958
0.0509171
0.0449113
0.0513761
0.0702573
0.100958
0.14161
0.190276
0.273616
0.397627
0.522665
0.67672
0.899184
1.16819
1.4487
1.68741
1.8005
1.79664
1.7186
1.42792
1.1036
1.00626
1.0001
1
1
1
1
1
1
0.0603295
0.0576211
0.0510432
0.0454963
0.0544716
0.0746379
0.10194
0.140523
0.201678
0.309651
0.419781
0.545212
0.76107
1.01448
1.2697
1.52694
1.74212
1.80868
1.80299
1.69587
1.34638
1.06112
1.00271
1.00004
1
1
1
1
1
1
0.0596086
0.0574529
0.0522699
0.0460162
0.0553093
0.0757511
0.103139
0.145419
0.240253
0.337471
0.446632
0.638757
0.864439
1.09531
1.34249
1.60005
1.78409
1.81167
1.79618
1.61217
1.25086
1.0327
1.00109
1.00001
1
1
1
1
1
1
0.0583674
0.0565735
0.0530274
0.0460448
0.0541003
0.0761596
0.110408
0.181844
0.272319
0.364774
0.512764
0.718562
0.925587
1.15962
1.42874
1.67972
1.80522
1.81185
1.75953
1.52573
1.17471
1.01758
1.00043
1
1
1
1
1
1
1
0.0571448
0.0545273
0.0520015
0.0461097
0.0539832
0.0833681
0.133785
0.209911
0.28684
0.399027
0.581241
0.766811
0.978514
1.25298
1.53689
1.7395
1.81548
1.80891
1.72276
1.45369
1.12151
1.009
1.00017
1
1
1
1
1
1
1
0.0565592
0.0523753
0.0502562
0.0465662
0.0605494
0.0998545
0.150805
0.218042
0.30289
0.45234
0.626576
0.812622
1.07996
1.37777
1.6276
1.78117
1.82282
1.79952
1.68861
1.37015
1.07308
1.00369
1.00006
1
1
1
1
1
1
1
0.0565146
0.0497283
0.0486673
0.0494918
0.0669301
0.106673
0.154863
0.223417
0.340876
0.505904
0.671389
0.918049
1.21278
1.48026
1.70218
1.81315
1.82692
1.80478
1.64728
1.26887
1.03789
1.0014
1.00002
1
1
1
1
1
1
1
0.0568655
0.0476929
0.0470476
0.0515106
0.0689462
0.106284
0.158346
0.247771
0.410361
0.559295
0.761475
1.04684
1.31696
1.56935
1.76701
1.83035
1.83058
1.79695
1.54013
1.17576
1.01775
1.00048
1.00001
1
1
1
1
1
1
1
0.0606519
0.0466406
0.0450879
0.0517654
0.0711621
0.10569
0.176184
0.319353
0.459366
0.623739
0.88209
1.14656
1.41395
1.66073
1.80667
1.83504
1.82704
1.72431
1.42604
1.10908
1.00787
1.00015
1
1
1
1
1
1
1
1
0.0661866
0.0460644
0.0413229
0.0500295
0.0780019
0.134298
0.234784
0.363309
0.504056
0.71856
0.975632
1.246
1.53175
1.73504
1.82423
1.83277
1.80581
1.65473
1.33636
1.06512
1.0034
1.00005
1
1
1
1
1
1
1
1
0.0683289
0.0442141
0.0386529
0.0496791
0.0916831
0.174265
0.27146
0.391038
0.566064
0.817852
1.07752
1.38403
1.64046
1.78637
1.83216
1.82416
1.77637
1.59855
1.24754
1.03328
1.00118
1.00001
1
1
1
1
1
1
1
1
0.0671201
0.0417029
0.0377703
0.0600948
0.114236
0.194749
0.288561
0.43565
0.682012
0.929154
1.22128
1.51794
1.72457
1.81939
1.83496
1.82448
1.75985
1.51892
1.15319
1.01418
1.00036
1
1
1
1
1
1
1
1
1
0.0640878
0.0402087
0.0405498
0.0762534
0.125983
0.201263
0.317813
0.546256
0.798897
1.06295
1.37175
1.62661
1.78517
1.83585
1.83708
1.83101
1.73629
1.38085
1.08063
1.00506
1.0001
1
1
1
1
1
1
1
1
1
0.0615109
0.0392163
0.0464603
0.0859899
0.136076
0.22009
0.41642
0.672039
0.919135
1.21551
1.5005
1.71596
1.8212
1.84084
1.83977
1.81278
1.6113
1.25722
1.03981
1.00167
1.00002
1
1
1
1
1
1
1
1
1
0.0565646
0.0368057
0.049978
0.089786
0.161467
0.319813
0.536787
0.771296
1.05017
1.35819
1.62146
1.78139
1.83844
1.84224
1.8349
1.75213
1.50009
1.17097
1.01839
1.00055
1.00001
1
1
1
1
1
1
1
1
1
0.0497546
0.0380331
0.0517638
0.099052
0.22092
0.410058
0.62074
0.88957
1.22135
1.50695
1.7228
1.822
1.84659
1.84066
1.81621
1.70124
1.41313
1.10125
1.00718
1.00015
1
1
1
1
1
1
1
1
1
1
0.0418159
0.040737
0.0602761
0.136655
0.289661
0.480659
0.732263
1.0787
1.40241
1.64488
1.78659
1.84414
1.84968
1.83778
1.79814
1.64749
1.29358
1.04607
1.00217
1.00004
1
1
1
1
1
1
1
1
1
1
0.0328562
0.0390413
0.0798451
0.192791
0.359266
0.582305
0.929448
1.28378
1.56815
1.74121
1.82064
1.85086
1.8527
1.84364
1.792
1.53083
1.15852
1.01629
1.00051
1.00001
1
1
1
1
1
1
1
1
1
1
0.0266713
0.0384672
0.102647
0.247207
0.459851
0.78587
1.15078
1.46201
1.69852
1.79739
1.83662
1.85073
1.85332
1.83977
1.70619
1.35548
1.0773
1.0053
1.00012
1
1
1
1
1
1
1
1
1
1
1
0.0210669
0.0537522
0.15161
0.336618
0.629665
1.00323
1.35064
1.62204
1.78917
1.82256
1.84444
1.84681
1.8412
1.79261
1.57243
1.23626
1.0366
1.00157
1.00002
1
1
1
1
1
1
1
1
1
1
1
0.0148224
0.0734158
0.214337
0.483769
0.860522
1.22839
1.54868
1.74857
1.83683
1.82925
1.84832
1.84631
1.82102
1.72904
1.46984
1.14395
1.01341
1.00038
1
1
1
1
1
1
1
1
1
1
1
1
0.00627499
0.0894893
0.336974
0.710596
1.11588
1.47145
1.70934
1.81872
1.84978
1.83074
1.84955
1.85191
1.80811
1.66978
1.3383
1.06092
1.00343
1.00007
1
1
1
1
1
1
1
1
1
1
1
1
0.00387897
0.165921
0.544119
0.990492
1.38433
1.66685
1.80085
1.84749
1.85281
1.82607
1.84796
1.85303
1.80777
1.55784
1.16953
1.01802
1.00065
1.00001
1
1
1
1
1
1
1
1
1
1
1
1
0.027264
0.336653
0.813916
1.29491
1.62526
1.78436
1.83958
1.85514
1.8515
1.82319
1.84194
1.83539
1.72617
1.35149
1.06868
1.00445
1.0001
1
1
1
1
1
1
1
1
1
1
1
1
1
0.105191
0.539266
1.17695
1.59561
1.77488
1.83473
1.85007
1.85545
1.84721
1.82153
1.83742
1.78168
1.55481
1.19925
1.02535
1.00091
1.00001
1
1
1
1
1
1
1
1
1
1
1
1
1
0.382259
1.00836
1.5548
1.77457
1.83336
1.84602
1.85094
1.85365
1.84461
1.82135
1.84651
1.72027
1.40514
1.09396
1.00605
1.00012
1
1
1
1
1
1
1
1
1
1
1
1
1
1
1
1.53831
1.78523
1.83952
1.84593
1.84674
1.84698
1.85291
1.84432
1.8229
1.84114
1.62819
1.21764
1.02164
1.00056
1.00001
1
1
1
1
1
1
1
1
1
1
1
1
1
1
1.84602
1.84922
1.85183
1.85142
1.84665
1.84422
1.84536
1.85481
1.84739
1.82492
1.76403
1.40669
1.05722
0.999506
0.999933
0.999999
1
1
1
1
1
1
1
1
1
1
1
1
1
1
1.84371
1.84876
1.85281
1.85287
1.84503
1.8398
1.84353
1.86016
1.85675
1.81457
1.70967
1.35508
1.06209
1.00253
1.00003
1
1
1
1
1
1
1
1
1
1
1
1
1
1
1
1.8433
1.8482
1.85323
1.85359
1.84509
1.83719
1.84169
1.86122
1.8585
1.80993
1.65082
1.25595
1.02223
1.00034
1
1
1
1
1
1
1
1
1
1
1
1
1
1
1
1
1.84334
1.84771
1.85322
1.8537
1.84559
1.83649
1.83995
1.85969
1.85786
1.79702
1.57947
1.16215
1.00971
1.00012
1
1
1
1
1
1
1
1
1
1
1
1
1
1
1
1
1.84499
1.84697
1.8515
1.85258
1.84669
1.83813
1.84086
1.85813
1.85367
1.75301
1.46916
1.09324
1.00368
1.00003
1
1
1
1
1
1
1
1
1
1
1
1
1
1
1
1
1.84799
1.84674
1.84902
1.84998
1.84791
1.84143
1.84181
1.85549
1.8516
1.71117
1.3639
1.05137
1.00131
1.00001
1
1
1
1
1
1
1
1
1
1
1
1
1
1
1
1
1.85049
1.8472
1.84657
1.84752
1.84884
1.84954
1.84108
1.84666
1.84636
1.66477
1.25503
1.02293
1.00038
1
1
1
1
1
1
1
1
1
1
1
1
1
1
1
1
1
1.85203
1.84715
1.84302
1.84284
1.84995
1.85746
1.84192
1.8309
1.81816
1.57858
1.15923
1.00931
1.00011
1
1
1
1
1
1
1
1
1
1
1
1
1
1
1
1
1
1.85285
1.84642
1.84018
1.83889
1.84954
1.86233
1.85343
1.81818
1.78206
1.47567
1.09375
1.00353
1.00003
1
1
1
1
1
1
1
1
1
1
1
1
1
1
1
1
1
1.85329
1.84634
1.83918
1.83697
1.84664
1.86446
1.86195
1.81485
1.74272
1.36048
1.04765
1.00114
1.00001
1
1
1
1
1
1
1
1
1
1
1
1
1
1
1
1
1
1.8529
1.8466
1.83977
1.83651
1.84495
1.86636
1.86636
1.80926
1.67615
1.23961
1.02028
1.00032
1
1
1
1
1
1
1
1
1
1
1
1
1
1
1
1
1
1
1.85033
1.847
1.84242
1.83767
1.84215
1.86741
1.86844
1.78854
1.56353
1.14925
1.00812
1.00009
1
1
1
1
1
1
1
1
1
1
1
1
1
1
1
1
1
1
1.84759
1.84661
1.84653
1.84003
1.83736
1.86375
1.87072
1.77386
1.45266
1.08063
1.0026
1.00002
1
1
1
1
1
1
1
1
1
1
1
1
1
1
1
1
1
1
1.84555
1.84463
1.84981
1.84524
1.83235
1.8535
1.87059
1.74072
1.32291
1.03658
1.00077
1
1
1
1
1
1
1
1
1
1
1
1
1
1
1
1
1
1
1
1.8438
1.84267
1.85041
1.85117
1.83129
1.84253
1.84972
1.63697
1.21098
1.01502
1.0002
1
1
1
1
1
1
1
1
1
1
1
1
1
1
1
1
1
1
1
1.84209
1.83956
1.84694
1.86003
1.84726
1.83615
1.8298
1.54206
1.12554
1.00549
1.00005
1
1
1
1
1
1
1
1
1
1
1
1
1
1
1
1
1
1
1
1.84139
1.83656
1.83725
1.86665
1.87085
1.83646
1.80517
1.40708
1.0576
1.00154
1.00001
1
1
1
1
1
1
1
1
1
1
1
1
1
1
1
1
1
1
1
1.84277
1.8329
1.83034
1.87155
1.8876
1.83583
1.70843
1.26581
1.02466
1.00041
1
1
1
1
1
1
1
1
1
1
1
1
1
1
1
1
1
1
1
1
1.84335
1.83236
1.82633
1.87645
1.89354
1.82014
1.5969
1.16623
1.0091
1.0001
1
1
1
1
1
1
1
1
1
1
1
1
1
1
1
1
1
1
1
1
1.84148
1.83355
1.82324
1.87827
1.89856
1.81419
1.47047
1.08132
1.00257
1.00002
1
1
1
1
1
1
1
1
1
1
1
1
1
1
1
1
1
1
1
1
1.83273
1.83589
1.82668
1.87695
1.89912
1.75504
1.32233
1.03415
1.00067
1
1
1
1
1
1
1
1
1
1
1
1
1
1
1
1
1
1
1
1
1
1.82401
1.84091
1.85071
1.87246
1.88345
1.64383
1.20316
1.01315
1.00016
1
1
1
1
1
1
1
1
1
1
1
1
1
1
1
1
1
1
1
1
1
1.81829
1.85545
1.8869
1.86999
1.86567
1.52783
1.10396
1.00378
1.00003
1
1
1
1
1
1
1
1
1
1
1
1
1
1
1
1
1
1
1
1
1
1.81346
1.869
1.90973
1.87048
1.8104
1.35681
1.04112
1.0009
1.00001
1
1
1
1
1
1
1
1
1
1
1
1
1
1
1
1
1
1
1
1
1
1.81195
1.8807
1.92794
1.86212
1.67848
1.2198
1.01564
1.0002
1
1
1
1
1
1
1
1
1
1
1
1
1
1
1
1
1
1
1
1
1
1
1.81947
1.89676
1.9384
1.84443
1.54754
1.11632
1.00444
1.00004
1
1
1
1
1
1
1
1
1
1
1
1
1
1
1
1
1
1
1
1
1
1
1.83124
1.90671
1.94158
1.81859
1.37827
1.04428
1.00099
1.00001
1
1
1
1
1
1
1
1
1
1
1
1
1
1
1
1
1
1
1
1
1
1
1.84792
1.90954
1.92568
1.67744
1.22301
1.0158
1.00021
1
1
1
1
1
1
1
1
1
1
1
1
1
1
1
1
1
1
1
1
1
1
1
1.90347
1.91798
1.89461
1.54139
1.11567
1.00453
1.00004
1
1
1
1
1
1
1
1
1
1
1
1
1
1
1
1
1
1
1
1
1
1
1
1.9943
1.90802
1.83312
1.36343
1.04194
1.00098
1.00001
1
1
1
1
1
1
1
1
1
1
1
1
1
1
1
1
1
1
1
1
1
1
1
2.07908
1.83755
1.68707
1.20425
1.01436
1.00021
1
1
1
1
1
1
1
1
1
1
1
1
1
1
1
1
1
1
1
1
1
1
1
1
2.14484
1.7828
1.51284
1.10237
1.00425
1.00004
1
1
1
1
1
1
1
1
1
1
1
1
1
1
1
1
1
1
1
1
1
1
1
1
2.17614
1.71153
1.32691
1.03841
1.00101
1.00001
1
1
1
1
1
1
1
1
1
1
1
1
1
1
1
1
1
1
1
1
1
1
1
1
2.14774
1.58274
1.19522
1.01515
1.00026
1
1
1
1
1
1
1
1
1
1
1
1
1
1
1
1
1
1
1
1
1
1
1
1
1
2.06408
1.46274
1.10147
1.00473
1.00005
1
1
1
1
1
1
1
1
1
1
1
1
1
1
1
1
1
1
1
1
1
1
1
1
1
1.98005
1.32403
1.0436
1.0012
1.00001
1
1
1
1
1
1
1
1
1
1
1
1
1
1
1
1
1
1
1
1
1
1
1
1
1
1.7934
1.19754
1.01608
1.00026
1
1
1
1
1
1
1
1
1
1
1
1
1
1
1
1
1
1
1
1
1
1
1
1
1
1
1.57749
1.11354
1.00517
1.00005
1
1
1
1
1
1
1
1
1
1
1
1
1
1
1
1
1
1
1
1
1
1
1
1
1
1
1.36996
1.04238
1.00095
1.00001
1
1
1
1
1
1
1
1
1
1
1
1
1
1
1
1
1
1
1
1
1
1
1
1
1
1
1.13697
1.00756
1.00006
1
1
1
1
1
1
1
1
1
1
1
1
1
1
1
1
1
1
1
1
1
1
1
1
1
1
1
1
1
1
1
1
1
1
1
1
1
1
1
1
1
1
1
1
1
1
1
1
1
1
1
1
1
1
1
1
1
1
1
1
1
1
1
1
1
1
1
1
1
1
1
1
1
1
1
1
1
1
1
1
1
1
1
1
1
1
1
1
1
1
1
1
1
1
1
1
1
1
1
1
1
1
1
1
1
1
1
1
1
1
1
1
1
1
1
1
1
1
1
1
1
1
1
1
1
1
1
1
1
1
1
1
1
1
1
1
1
1
1
1
1
1
1
1
1
1
1
1
1
1
1
1
1
1
1
1
1
1
1
1
1
1
1
1
1
1
1
1
1
1
1
1
1
1
1
1
1
1
1
1
1
1
1
1
1
1
1
1
1
1
1
1
1
1
1
1
1
1
1
1
1
1
1
1
1
1
1
1
1
1
1
1
1
1
1
1
1
1
1
1
1
1
1
1
1
1
1
1
1
1
1
1
1
1
1
1
1
1
1
1
1
1
1
1
1
1
1
1
1
1
1
1
1
1
1
1
1
1
1
1
1
1
1
1
1
1
1
1
1
1
1
1
1
1
1
1
1
1
1
1
1
1
1
1
1
1
1
1
1
1
1
1
1
1
1
1
1
1
1
1
1
1
1
1
1
1
1
1
1
1
1
1
1
1
1
1
1
1
1
1
1
1
1
1
1
1
1
1
1
1
1
1
1
1
1
1
1
1
1
1
1
1
1
1
1
1
1
1
1
1
1
1
1
1
1
1
1
1
1
1
1
1
1
1
1
1
1
1
1
1
1
1
1
1
1
1
1
1
1
1
1
1
1
1
1
1
1
1
1
1
1
1
1
1
1
1
1
1
1
1
1
1
1
1
1
1
1
1
1
1
1
1
1
1
1
1
1
1
1
1
1
1
1
1
1
1
1
1
1
1
1
1
1
1
1
1
1
1
1
1
1
1
1
1
1
1
1
1
1
1
1
1
1
1
1
1
1
1
1
1
1
1
1
1
1
1
1
1
1
1
1
1
1
1
1
1
1
1
1
1
1
1
1
1
1
1
1
1
1
1
1
1
1
1
1
1
1
1
1
1
1
1
1
1
1
1
1
1
1
1
1
1
1
1
1
1
1
1
1
1
1
1
1
1
1
1
1
1
1
1
1
1
1
1
1
1
1
1
1
1
1
1
1
1
1
1
1
1
1
1
1
1
1
1
1
1
1
1
1
1
1
1
1
1
1
1
1
1
1
1
1
1
1
1
1
1
1
1
1
1
1
1
1
1
1
1
1
1
1
1
1
1
1
1
1
1
1
1
1
1
1
1
1
1
1
1
1
1
1
1
1
1
1
1
1
1
1
1
1
1
1
1
1
1
1
1
1
1
1
1
1
1
1
1
1
1
1
1
1
1
1
1
1
1
1
1
1
1
1
1
1
1
1
1
1
1
1
1
1
1
1
1
1
1
1
1
1
1
1
1
1
1
1
1
1
1
1
1
1
1
1
1
1
1
1
1
1
1
1
1
1
1
1
1
1
1
1
1
1
1
1
1
1
1
1
1
1
1
1
1
1
1
1
1
1
1
1
1
1
1
1
1
1
1
1
1
1
1
1
1
1
1
1
1
1
1
1
1
1
1
1
1
1
1
1
1
1
1
1
1
1
1
1
1
1
1
1
1
1
1
1
1
1
1
1
1
1
1
1
1
1
1
1
1
1
1
1
1
1
1
1
1
1
1
1
1
1
1
1
1
1
1
1
1
1
1
1
1
1
1
1
1
1
1
1
1
1
1
1
1
1
1
1
1
1
1
1
1
1
1
1
1
1
1
1
1
1
1
1
1
1
1
1
1
1
1
1
1
1
1
1
1
1
1
1
1
1
1
1
1
1
1
1
1
1
1
1
1
1
1
1
1
1
1
1
1
1
1
1
1
1
1
1
1
1
1
1
1
1
1
1
1
1
1
1
1
1
1
1
1
1
1
1
1
1
1
1
1
1
1
1
1
1
1
1
1
1
1
1
1
1
1
1
1
1
1
1
1
1
1
1
1
1
1
1
1
1
1
1
1
1
1
1
1
1
1
1
1
1
1
1
1
1
1
1
1
1
1
1
1
1
1
1
1
1
1
1
1
1
1
1
1
1
1
1
1
1
1
1
1
1
1
1
1
1
1
1
1
1
1
1
1
1
1
1
1
1
1
1
1
1
1
1
1
1
1
1
1
1
1
1
1
1
1
1
1
1
1
1
1
1
1
1
1
1
1
1
1
1
1
1
1
1
1
1
1
1
1
1
1
1
1
1
1
1
1
1
1
1
1
1
1
1
1
1
1
1
1
1
1
1
1
1
1
1
1
1
1
1
1
1
1
1
1
1
1
1
1
1
1
1
1
1
1
1
1
1
1
1
1
1
1
1
1
1
1
1
1
1
1
1
1
1
1
1
1
1
1
1
1
1
1
1
1
1
1
1
1
1
1
1
1
1
1
1
1
1
1
1
1
1
1
1
1
1
1
1
1
1
1
1
1
1
1
1
1
1
1
1
1
1
1
1
1
1
1
1
1
1
1
1
1
1
1
1
1
1
1
1
1
1
1
1
1
1
1
1
1
1
1
1
1
1
1
1
1
1
1
1
1
1
1
1
1
1
1
1
1
1
1
1
1
1
1
1
1
1
1
1
1
1
1
1
1
1
1
1
1
1
1
1
1
1
1
1
1
1
1
1
1
1
1
1
1
1
1
1
1
1
1
1
1
1
1
1
1
1
1
1
1
1
1
1
1
1
1
1
1
1
1
1
1
1
1
1
1
1
1
1
1
1
1
1
1
1
1
1
1
1
1
1
1
1
1
1
1
1
1
1
1
1
1
1
1
1
1
1
1
1
1
1
1
1
1
1
1
1
1
1
1
1
1
1
1
1
1
1
1
1
1
1
1
1
1
1
1
1
1
1
1
1
1
1
1
1
1
1
1
1
1
1
1
1
1
1
1
1
1
1
1
1
1
1
1
1
1
1
1
1
1
1
1
1
1
1
1
1
1
1
1
1
1
1
1
1
1
1
1
1
1
1
1
1
1
1
1
1
1
1
1
1
1
1
1
1
1
1
1
1
1
1
1
1
1
1
1
1
1
1
1
1
1
1
1
1
1
1
1
1
1
1
1
1
1
1
1
1
1
1
1
1
1
1
1
1
1
1
1
1
1
1
1
1
1
1
1
1
1
1
1
1
1
1
1
1
1
1
1
1
1
1
1
1
1
1
1
1
1
1
1
1
1
1
1
1
1
1
1
1
1
1
1
1
1
1
1
1
1
1
1
1
1
1
1
1
1
1
1
1
1
1
1
1
1
1
1
1
1
1
1
1
1
1
1
1
1
1
1
1
1
1
1
1
1
1
1
1
1
1
1
1
1
1
1
1
1
1
1
1
1
1
1
1
1
1
1
1
1
1
1
1
1
1
1
1
1
1
1
1
1
1
1
1
1
1
1
1
1
1
1
1
1
1
1
1
1
1
1
1
1
1
1
1
1
1
1
1
1
1
1
1
1
1
1
1
1
1
1
1
1
1
1
1
1
1
1
1
1
1
1
1
1
1
1
1
1
1
1
1
1
1
1
1
1
1
1
1
1
1
1
1
1
1
1
1
1
1
1
1
1
1
1
1
1
1
1
1
1
1
1
1
1
1
1
1
1
1
1
1
1
1
1
1
1
1
1
1
1
1
1
1
1
1
1
1
1
1
1
1
1
1
1
1
1
1
1
1
1
1
1
1
1
1
1
1
1
1
1
1
1
1
1
1
1
1
1
1
1
1
1
1
1
1
1
1
1
1
1
1
1
1
1
1
1
1
1
1
1
1
1
1
1
1
1
1
1
1
1
1
1
1
1
1
1
1
1
1
1
1
1
1
1
1
1
1
1
1
1
1
1
1
1
1
1
1
1
1
1
1
1
1
1
1
1
1
1
1
1
1
1
1
1
1
1
1
1
1
1
1
1
1
1
1
1
1
1
1
1
1
1
1
1
1
1
1
1
1
1
1
1
1
1
1
1
1
1
1
1
1
1
1
1
1
1
1
1
1
1
1
1
1
1
1
1
1
1
1
1.42125
1
1
1
1
1
1
1
1
1
1
1
1
1
1
1
1
1
1
1
1
1
1
1
1
1
1
1
1
1
2.36467
0.998517
1
1
1
1
1
1
1
1
1
1
1
1
1
1
1
1
1
1
1
1
1
1
1
1
1
1
1
1
3.60562
1.07663
1
1
1
1
1
1
1
1
1
1
1
1
1
1
1
1
1
1
1
1
1
1
1
1
1
1
1
1
5.22067
1.36423
1
1
1
1
1
1
1
1
1
1
1
1
1
1
1
1
1
1
1
1
1
1
1
1
1
1
1
1
6.88208
2.16641
0.998803
1
1
1
1
1
1
1
1
1
1
1
1
1
1
1
1
1
1
1
1
1
1
1
1
1
1
1
8.62197
3.85223
1.11461
0.999851
1
1
1
1
1
1
1
1
1
1
1
1
1
1
1
1
1
1
1
1
1
1
1
1
1
1
9.51
6.32559
2.59079
1.00498
1
1
1
1
1
1
1
1
1
1
1
1
1
1
1
1
1
1
1
1
1
1
1
1
1
1
8.53273
6.68923
5.78949
1.79035
0.999245
1
1
1
1
1
1
1
1
1
1
1
1
1
1
1
1
1
1
1
1
1
1
1
1
1
7.0584
6.32382
6.88897
4.38637
1.24603
0.999688
1
1
1
1
1
1
1
1
1
1
1
1
1
1
1
1
1
1
1
1
1
1
1
1
6.14049
6.00444
6.65524
6.33175
2.66317
1.0085
1
1
1
1
1
1
1
1
1
1
1
1
1
1
1
1
1
1
1
1
1
1
1
1
5.78411
5.83305
6.36827
6.3248
4.99854
1.49553
0.99939
1
1
1
1
1
1
1
1
1
1
1
1
1
1
1
1
1
1
1
1
1
1
1
5.67326
5.80627
6.06661
5.97141
5.81783
2.90386
1.02835
1
1
1
1
1
1
1
1
1
1
1
1
1
1
1
1
1
1
1
1
1
1
1
5.58463
5.71402
5.77779
5.83343
6.04323
4.53996
1.40596
0.999469
1
1
1
1
1
1
1
1
1
1
1
1
1
1
1
1
1
1
1
1
1
1
5.5635
5.66221
5.67895
5.80018
6.0232
5.70366
2.59872
1.01346
1
1
1
1
1
1
1
1
1
1
1
1
1
1
1
1
1
1
1
1
1
1
5.59305
5.6797
5.70466
5.78383
5.92645
5.79439
4.21867
1.30067
0.999679
1
1
1
1
1
1
1
1
1
1
1
1
1
1
1
1
1
1
1
1
1
5.64106
5.72206
5.74871
5.76391
5.76515
5.71288
5.1995
2.20029
1.00089
1
1
1
1
1
1
1
1
1
1
1
1
1
1
1
1
1
1
1
1
1
5.70618
5.77343
5.77927
5.74925
5.66895
5.67576
5.60234
3.46029
1.11934
1
1
1
1
1
1
1
1
1
1
1
1
1
1
1
1
1
1
1
1
1
5.77706
5.82838
5.80918
5.77376
5.67879
5.68303
5.78515
4.8683
1.68209
0.999102
1
1
1
1
1
1
1
1
1
1
1
1
1
1
1
1
1
1
1
1
5.83658
5.87052
5.82645
5.80102
5.70617
5.72187
5.81985
5.4611
2.90526
1.04058
1
1
1
1
1
1
1
1
1
1
1
1
1
1
1
1
1
1
1
1
5.87068
5.88995
5.83329
5.81434
5.75642
5.75292
5.79391
5.59644
4.04318
1.31118
0.999693
1
1
1
1
1
1
1
1
1
1
1
1
1
1
1
1
1
1
1
5.8885
5.8925
5.8377
5.83232
5.81665
5.78976
5.79546
5.70852
5.10781
2.04501
1.00017
1
1
1
1
1
1
1
1
1
1
1
1
1
1
1
1
1
1
1
5.8931
5.88261
5.85159
5.85152
5.85039
5.82049
5.81452
5.80507
5.67684
3.45396
1.10492
1
1
1
1
1
1
1
1
1
1
1
1
1
1
1
1
1
1
1
5.88432
5.87283
5.86831
5.86954
5.8708
5.84688
5.8382
5.81212
5.75448
4.50806
1.55032
0.999267
1
1
1
1
1
1
1
1
1
1
1
1
1
1
1
1
1
1
5.87403
5.86737
5.87968
5.88059
5.88154
5.86368
5.85805
5.84342
5.81032
5.33642
2.43415
1.01223
0.999999
1
1
1
1
1
1
1
1
1
1
1
1
1
1
1
1
1
5.86685
5.86278
5.88501
5.8823
5.88594
5.8747
5.87422
5.86954
5.8676
5.82484
3.98615
1.21394
1
1
1
1
1
1
1
1
1
1
1
1
1
1
1
1
1
1
5.86014
5.85661
5.88389
5.87732
5.88572
5.88315
5.88337
5.86668
5.85794
5.90853
4.88123
1.84363
0.999537
1
1
1
1
1
1
1
1
1
1
1
1
1
1
1
1
1
5.85475
5.84998
5.87575
5.86833
5.87597
5.88306
5.88576
5.86905
5.85676
5.88407
5.47716
2.86161
1.04068
1
1
1
1
1
1
1
1
1
1
1
1
1
1
1
1
1
5.85393
5.84487
5.8636
5.85927
5.862
5.87655
5.88577
5.87126
5.85444
5.88681
5.89585
4.47375
1.37243
0.999446
1
1
1
1
1
1
1
1
1
1
1
1
1
1
1
1
5.85482
5.84349
5.85131
5.85565
5.84829
5.86437
5.87826
5.87267
5.84933
5.87756
5.96661
5.18927
2.19421
1.00634
1
1
1
1
1
1
1
1
1
1
1
1
1
1
1
1
5.85173
5.84458
5.844
5.85346
5.84469
5.85046
5.86569
5.86982
5.84352
5.85956
5.9471
5.57064
3.279
1.09515
1
1
1
1
1
1
1
1
1
1
1
1
1
1
1
1
5.84311
5.84804
5.84117
5.85141
5.84411
5.84333
5.85646
5.86445
5.83991
5.84263
5.90277
5.85021
4.78739
1.54929
0.999172
1
1
1
1
1
1
1
1
1
1
1
1
1
1
1
5.83374
5.85179
5.84224
5.84917
5.8437
5.8393
5.85021
5.85922
5.84017
5.83683
5.89993
5.94746
5.41295
2.54349
1.02141
1
1
1
1
1
1
1
1
1
1
1
1
1
1
1
5.83028
5.85466
5.84531
5.84685
5.84159
5.83732
5.84809
5.85713
5.84531
5.83645
5.88101
5.95317
5.65935
3.63791
1.17126
0.99978
1
1
1
1
1
1
1
1
1
1
1
1
1
1
5.83428
5.85747
5.85053
5.84636
5.84043
5.83733
5.84743
5.85932
5.85132
5.84182
5.8608
5.91934
5.77694
4.99279
1.72983
1.00022
1
1
1
1
1
1
1
1
1
1
1
1
1
1
5.84154
5.85892
5.85754
5.84917
5.84324
5.84063
5.84797
5.86272
5.8576
5.84547
5.84139
5.88869
5.84804
5.56742
2.84982
1.04558
1
1
1
1
1
1
1
1
1
1
1
1
1
1
5.8508
5.85876
5.86425
5.85433
5.8489
5.84646
5.85012
5.86456
5.86395
5.84596
5.82972
5.87456
5.90832
5.69341
3.91461
1.26139
0.999625
0.999998
1
1
1
1
1
1
1
1
1
1
1
1
5.86033
5.85832
5.868
5.85963
5.85531
5.85329
5.85288
5.86507
5.86995
5.8441
5.83013
5.86982
5.91297
5.76895
5.14366
1.91202
1.00294
0.999999
1
1
1
1
1
1
1
1
1
1
1
1
5.86476
5.85876
5.86799
5.86293
5.8589
5.85761
5.85579
5.86378
5.87412
5.84698
5.83352
5.86102
5.90089
5.79531
5.69458
3.08839
1.07124
0.999897
0.999999
1
1
1
1
1
1
1
1
1
1
1
5.86242
5.85547
5.8664
5.86426
5.8606
5.85952
5.85643
5.85559
5.87125
5.85099
5.83962
5.84625
5.8797
5.83656
5.74519
4.12246
1.35876
1.00079
0.999999
1
1
1
1
1
1
1
1
1
1
1
5.86026
5.86439
5.87723
5.87453
5.87049
5.86684
5.85888
5.85475
5.87346
5.85483
5.84402
5.8421
5.87779
5.8713
5.78115
5.18431
1.92875
0.97205
0.999631
1
1
1
1
1
1
1
1
1
1
1
2.78114
4.28411
5.01446
5.44357
5.64363
5.76246
5.80984
5.82386
5.85564
5.86831
5.86259
5.84071
5.86984
5.89265
5.78263
5.8119
3.65384
1.28739
1.00454
1.00002
1
1
1
1
1
1
1
1
1
1
1.04905
2.67719
3.75104
4.47219
5.01195
5.33865
5.56264
5.68234
5.75963
5.81503
5.84795
5.8477
5.85284
5.88845
5.81298
5.81413
5.44995
2.40746
1.07878
1.00074
1
1
1
1
1
1
1
1
1
1
0.4011
1.65707
2.70871
3.50508
4.14341
4.65702
5.04965
5.33684
5.52319
5.66064
5.75832
5.80688
5.82904
5.86315
5.86245
5.82122
5.8511
4.16349