/*--------------------------------*- C++ -*----------------------------------*\
  =========                 |
  \\      /  F ield         | OpenFOAM: The Open Source CFD Toolbox
   \\    /   O peration     | Website:  https://openfoam.org
    \\  /    A nd           | Version:  7
     \\/     M anipulation  |
\*---------------------------------------------------------------------------*/
FoamFile
{
    version     2.0;
    format      ascii;
    class       volScalarField;
    location    "7";
    object      p;
}
// * * * * * * * * * * * * * * * * * * * * * * * * * * * * * * * * * * * * * //

dimensions      [1 -1 -2 0 0 0 0];

internalField   nonuniform List<scalar> 
90000
(
0.843597
0.845633
0.847755
0.852242
0.855966
0.859011
0.862733
0.867629
0.871637
0.875616
0.879507
0.883913
0.887744
0.891647
0.895059
0.89915
0.902857
0.906938
0.910682
0.915025
0.919451
0.924748
0.93038
0.93725
0.944524
0.953428
0.96202
0.972062
0.980539
0.989769
0.997173
1.00416
1.01004
1.01482
1.01704
1.02009
1.02131
1.02142
1.02269
1.02184
1.01823
1.00812
0.996096
0.986385
0.980037
0.977928
0.979199
0.982154
0.98577
0.989829
0.993208
0.995825
0.997475
0.997386
0.996734
0.99407
0.989969
0.985932
0.983096
0.981945
0.982207
0.984352
0.987849
0.992651
0.996304
0.996259
0.99457
0.991912
0.988371
0.986724
0.987412
0.989279
0.993212
0.993846
0.993346
0.991398
0.989627
0.989284
0.990448
0.993433
0.993339
0.993006
0.991477
0.990436
0.990832
0.992125
0.992399
0.991891
0.991383
0.991979
0.993566
0.993518
0.993025
0.991848
0.991634
0.991694
0.991917
0.99209
0.992082
0.991672
0.842151
0.842238
0.842437
0.843427
0.844544
0.845678
0.847406
0.849847
0.852464
0.855133
0.858019
0.861322
0.864861
0.868539
0.872356
0.876007
0.87976
0.883432
0.887248
0.890932
0.894676
0.898559
0.902601
0.907103
0.911811
0.9173
0.923199
0.929711
0.937234
0.94449
0.952886
0.96118
0.968886
0.977768
0.984744
0.991937
0.998171
1.00352
1.00648
1.00854
1.00995
1.01001
1.01045
1.00903
1.0046
0.997938
0.99122
0.985915
0.981904
0.981821
0.982835
0.984632
0.987041
0.989931
0.992779
0.994829
0.996021
0.99458
0.991946
0.988459
0.985489
0.983649
0.983945
0.98558
0.988082
0.991368
0.995521
0.99549
0.993948
0.990417
0.987728
0.98727
0.988554
0.991497
0.994395
0.993952
0.991833
0.989492
0.989622
0.990852
0.993088
0.993566
0.992963
0.991797
0.99125
0.99158
0.991988
0.991884
0.991786
0.991853
0.992512
0.993579
0.993509
0.992795
0.992039
0.991708
0.9917
0.991972
0.992088
0.991796
0.842065
0.842091
0.842109
0.842114
0.842138
0.842204
0.84231
0.842466
0.842691
0.842996
0.843388
0.844001
0.844829
0.845834
0.847074
0.848548
0.850255
0.852158
0.854292
0.856717
0.85924
0.862062
0.864997
0.868268
0.871696
0.875352
0.879531
0.883763
0.88897
0.89433
0.90073
0.907686
0.915531
0.92393
0.933334
0.943166
0.952954
0.963852
0.97246
0.981467
0.988192
0.994585
0.998706
1.00071
1.00185
1.00296
1.00429
1.00361
1.00065
0.99643
0.991984
0.988359
0.985737
0.985654
0.986251
0.987838
0.989959
0.992197
0.995123
0.995489
0.994246
0.990871
0.986804
0.983258
0.983709
0.986041
0.990023
0.993701
0.997216
0.996307
0.992779
0.989181
0.988102
0.989262
0.991417
0.99387
0.993591
0.9918
0.98995
0.990336
0.991835
0.993336
0.993218
0.992328
0.991165
0.991257
0.991893
0.992015
0.991858
0.991694
0.992228
0.993218
0.993521
0.993129
0.992275
0.991885
0.991802
0.992002
0.992106
0.991922
0.842407
0.842401
0.842396
0.842388
0.842376
0.842369
0.842371
0.842377
0.84239
0.842408
0.842451
0.842435
0.842437
0.842451
0.84249
0.842589
0.842711
0.84283
0.842975
0.843211
0.843687
0.844386
0.845299
0.846399
0.847741
0.849323
0.851208
0.853492
0.856113
0.859256
0.862949
0.867147
0.872268
0.877878
0.884894
0.892429
0.901697
0.911416
0.922997
0.934464
0.947341
0.959137
0.971326
0.98022
0.988676
0.994376
0.99708
0.997306
0.997962
0.997819
0.996592
0.994509
0.991023
0.988229
0.986232
0.986343
0.987017
0.988507
0.989727
0.991145
0.991741
0.991388
0.990276
0.987984
0.98586
0.985659
0.986613
0.988326
0.990892
0.993356
0.995621
0.994698
0.992083
0.989457
0.989193
0.990652
0.992318
0.993882
0.992679
0.990788
0.99038
0.991482
0.993227
0.993199
0.992387
0.991392
0.991522
0.991808
0.991841
0.99174
0.991875
0.992589
0.993386
0.993265
0.992756
0.992199
0.991785
0.991955
0.992047
0.991916
0.842496
0.842468
0.842438
0.842419
0.842413
0.842428
0.842442
0.842434
0.842404
0.842349
0.8423
0.842263
0.842228
0.842196
0.842166
0.842155
0.842168
0.842183
0.842183
0.842227
0.842203
0.842195
0.842229
0.842314
0.842379
0.842455
0.842576
0.842779
0.843185
0.843812
0.844673
0.845871
0.847413
0.8494
0.852062
0.855333
0.859726
0.864808
0.871612
0.879424
0.889283
0.900809
0.913458
0.927452
0.942034
0.954441
0.966543
0.974557
0.981602
0.986735
0.988589
0.989579
0.990632
0.992707
0.994038
0.994099
0.993288
0.991817
0.989392
0.988518
0.988373
0.988682
0.989435
0.990541
0.99061
0.989783
0.988292
0.986848
0.987397
0.989406
0.991832
0.99314
0.994122
0.993133
0.991367
0.990067
0.990508
0.991648
0.993233
0.992899
0.991752
0.990978
0.991713
0.993101
0.993135
0.992339
0.991441
0.991609
0.991868
0.991813
0.991792
0.992183
0.99307
0.993698
0.993324
0.992485
0.991955
0.991909
0.992048
0.992057
0.842858
0.842834
0.842782
0.842761
0.842761
0.84276
0.842749
0.84272
0.842677
0.842628
0.842558
0.842512
0.84249
0.842469
0.842441
0.842404
0.842366
0.842337
0.842305
0.842253
0.842179
0.842085
0.841995
0.841955
0.84194
0.841923
0.84192
0.84197
0.841951
0.841926
0.841928
0.841959
0.842003
0.842079
0.842247
0.842665
0.843411
0.844522
0.846157
0.848578
0.851963
0.856924
0.863124
0.872057
0.882393
0.896006
0.910324
0.9271
0.941594
0.95754
0.968713
0.979194
0.986805
0.990498
0.992184
0.992248
0.991793
0.99069
0.989303
0.98774
0.988085
0.989195
0.990137
0.991104
0.990967
0.990399
0.989257
0.987868
0.987399
0.987996
0.989082
0.990963
0.992148
0.992571
0.992897
0.992212
0.991232
0.990863
0.991399
0.991973
0.992575
0.992113
0.99151
0.991943
0.992803
0.992767
0.99223
0.991626
0.991679
0.991797
0.991799
0.991877
0.992353
0.993086
0.993554
0.993196
0.992369
0.992011
0.991879
0.991922
0.842901
0.842887
0.842868
0.842844
0.842821
0.842794
0.842766
0.842723
0.842679
0.842643
0.842608
0.842572
0.842546
0.842516
0.842476
0.842439
0.842404
0.842374
0.842348
0.842319
0.842277
0.842211
0.842105
0.842024
0.841995
0.841962
0.841906
0.841834
0.841748
0.841673
0.841616
0.841568
0.841508
0.841446
0.841464
0.841435
0.841434
0.841403
0.841403
0.841466
0.841725
0.842305
0.843391
0.845184
0.84806
0.852775
0.85935
0.869019
0.882008
0.896391
0.913714
0.93178
0.947149
0.96069
0.971318
0.977679
0.981572
0.9834
0.985013
0.988903
0.991361
0.99244
0.99221
0.991844
0.99093
0.990171
0.989653
0.989234
0.989028
0.988918
0.989134
0.989363
0.990059
0.991227
0.991923
0.992657
0.99263
0.991984
0.991193
0.991346
0.991808
0.992447
0.99225
0.991872
0.992115
0.992683
0.992683
0.992222
0.991617
0.991628
0.991734
0.991948
0.992212
0.992847
0.993405
0.993446
0.992988
0.992233
0.992037
0.99199
0.842908
0.842883
0.842857
0.842834
0.842817
0.842792
0.842741
0.842714
0.842698
0.842647
0.842545
0.842514
0.842511
0.842484
0.842405
0.842374
0.842375
0.842367
0.842312
0.842252
0.842218
0.84217
0.84209
0.842023
0.841987
0.841946
0.841882
0.841823
0.841764
0.841707
0.84165
0.841579
0.841482
0.841371
0.841265
0.841186
0.841119
0.841049
0.840957
0.840905
0.840835
0.840738
0.840641
0.840643
0.84077
0.84116
0.842097
0.843796
0.847203
0.85232
0.861245
0.87247
0.888333
0.906733
0.924558
0.944092
0.95899
0.973368
0.981639
0.987969
0.989574
0.990827
0.990557
0.98879
0.988054
0.988969
0.990543
0.991338
0.991142
0.990294
0.989337
0.988837
0.988921
0.989537
0.99068
0.992141
0.992288
0.992126
0.991559
0.991445
0.991562
0.991888
0.992125
0.992024
0.991999
0.992299
0.992715
0.99258
0.992079
0.991586
0.991559
0.991688
0.991968
0.992506
0.993445
0.993476
0.993282
0.992605
0.992033
0.991954
0.843101
0.843066
0.843022
0.842987
0.84296
0.84293
0.842893
0.842856
0.842818
0.842771
0.842709
0.842646
0.84259
0.842537
0.842492
0.842448
0.842419
0.842367
0.842289
0.842226
0.842176
0.842134
0.84207
0.84201
0.84196
0.841893
0.841805
0.841741
0.841694
0.841659
0.841622
0.841568
0.841487
0.84138
0.841265
0.841167
0.84107
0.84096
0.840842
0.840742
0.840635
0.840492
0.840355
0.840238
0.840217
0.840225
0.840262
0.840351
0.840571
0.840987
0.842177
0.844462
0.849255
0.856416
0.868602
0.883823
0.902467
0.923003
0.941048
0.958303
0.967148
0.975073
0.97981
0.982789
0.987095
0.991954
0.993375
0.992991
0.99197
0.99035
0.989683
0.989033
0.989339
0.989948
0.990685
0.991211
0.991611
0.991647
0.991954
0.991984
0.99184
0.991769
0.991817
0.991867
0.992046
0.992241
0.992485
0.992584
0.992423
0.991945
0.991516
0.991552
0.991766
0.992204
0.993009
0.993609
0.993551
0.99311
0.992315
0.991943
0.843298
0.843265
0.843229
0.843187
0.843146
0.843101
0.843057
0.843011
0.84296
0.842905
0.842845
0.84278
0.842719
0.842663
0.842614
0.842556
0.842503
0.842441
0.842353
0.842257
0.842171
0.842095
0.842026
0.841974
0.841918
0.841852
0.841788
0.841735
0.841702
0.841677
0.841644
0.841596
0.841538
0.841467
0.841376
0.841283
0.841192
0.841087
0.840987
0.840895
0.840798
0.840686
0.840573
0.840493
0.84044
0.840408
0.84041
0.840439
0.840523
0.840726
0.840836
0.840991
0.841331
0.842192
0.844275
0.848144
0.856013
0.867014
0.884448
0.903096
0.925145
0.944723
0.961329
0.977276
0.984792
0.989317
0.99129
0.990534
0.986976
0.987133
0.988735
0.990936
0.991399
0.990768
0.990108
0.989773
0.990116
0.990839
0.991863
0.992181
0.992043
0.991676
0.991609
0.991779
0.992071
0.992247
0.992279
0.992396
0.992395
0.992222
0.991807
0.991602
0.991706
0.992031
0.992546
0.993331
0.993548
0.993359
0.992791
0.992073
0.843367
0.84334
0.84331
0.84328
0.843242
0.843182
0.84316
0.843151
0.843136
0.84311
0.843075
0.84303
0.842976
0.842921
0.842867
0.842801
0.842759
0.84273
0.842678
0.842597
0.842507
0.842421
0.842348
0.84228
0.842214
0.84216
0.842097
0.842024
0.841966
0.841923
0.841882
0.841824
0.841756
0.841689
0.841617
0.841526
0.841455
0.8414
0.841317
0.841243
0.841183
0.841103
0.841068
0.841064
0.841045
0.840997
0.840933
0.84091
0.840928
0.840999
0.841074
0.841165
0.841382
0.841529
0.841688
0.841965
0.842737
0.844527
0.848809
0.856295
0.869574
0.887302
0.908113
0.931402
0.949047
0.963323
0.973059
0.978892
0.981781
0.987074
0.992066
0.993165
0.992803
0.991067
0.988895
0.988969
0.989775
0.991226
0.99167
0.991687
0.991487
0.99141
0.991672
0.991997
0.992199
0.99214
0.992112
0.992212
0.992358
0.992312
0.992088
0.991736
0.991748
0.991958
0.992456
0.993024
0.993499
0.99348
0.993155
0.992303
0.843216
0.843206
0.843193
0.843174
0.84315
0.843127
0.843121
0.843123
0.843123
0.843114
0.843097
0.843081
0.843069
0.84306
0.843049
0.843032
0.843016
0.842991
0.842944
0.842876
0.842811
0.842762
0.842717
0.842663
0.842601
0.842546
0.842491
0.84243
0.842367
0.842306
0.842252
0.842197
0.842128
0.842062
0.842018
0.841966
0.841902
0.841864
0.841823
0.841745
0.841702
0.841666
0.841611
0.84158
0.841599
0.841615
0.841592
0.841584
0.841628
0.841646
0.841616
0.841594
0.841631
0.841707
0.841831
0.842111
0.842216
0.84222
0.842337
0.843
0.845071
0.849909
0.859797
0.874695
0.895547
0.919428
0.93986
0.962047
0.976697
0.985048
0.989117
0.991144
0.989481
0.987302
0.988027
0.989528
0.990815
0.991216
0.991042
0.990444
0.990606
0.991509
0.992126
0.992089
0.991987
0.991906
0.992031
0.992198
0.992312
0.99221
0.992112
0.991975
0.992028
0.992091
0.992269
0.992651
0.993212
0.993453
0.993325
0.992621
0.842682
0.842681
0.842666
0.842654
0.842653
0.842662
0.842678
0.842695
0.842708
0.842717
0.84272
0.842717
0.84271
0.842711
0.842715
0.842713
0.842691
0.842681
0.842677
0.842656
0.842636
0.842631
0.842622
0.842599
0.842585
0.842579
0.842577
0.842574
0.842564
0.842539
0.842517
0.842507
0.8425
0.8425
0.842519
0.842566
0.842576
0.842584
0.842613
0.842614
0.842593
0.842589
0.842559
0.842549
0.842582
0.842615
0.842618
0.842593
0.842576
0.842545
0.842455
0.842266
0.842119
0.842093
0.842115
0.842235
0.842361
0.842378
0.842369
0.842203
0.842049
0.84218
0.843293
0.846234
0.853898
0.865886
0.88531
0.90775
0.931131
0.953262
0.963823
0.975366
0.979548
0.986351
0.990592
0.991985
0.991704
0.990312
0.989212
0.989477
0.990739
0.991778
0.992045
0.991934
0.991663
0.991842
0.992128
0.992259
0.992139
0.991998
0.992079
0.992285
0.992321
0.992172
0.992194
0.992395
0.992851
0.993375
0.993339
0.992866
0.842087
0.842094
0.8421
0.842105
0.842115
0.842129
0.842137
0.842141
0.842148
0.842171
0.842211
0.84223
0.842228
0.842227
0.842235
0.842243
0.842246
0.842248
0.842251
0.842266
0.842289
0.842315
0.842344
0.842372
0.842398
0.842435
0.842486
0.842535
0.842555
0.842563
0.842567
0.842576
0.84261
0.842684
0.842791
0.842915
0.843017
0.843075
0.843124
0.843173
0.843203
0.843242
0.843309
0.843385
0.843435
0.843504
0.843597
0.843612
0.843583
0.843503
0.843353
0.84309
0.842763
0.842576
0.842523
0.84252
0.842577
0.842575
0.842466
0.842228
0.842025
0.841928
0.84181
0.841897
0.842585
0.844623
0.850353
0.860083
0.878289
0.899976
0.925117
0.949448
0.967628
0.98317
0.987584
0.990098
0.988533
0.986212
0.987547
0.989941
0.991681
0.991403
0.99125
0.991213
0.991614
0.992169
0.992162
0.992002
0.991772
0.991865
0.992208
0.992456
0.99238
0.992249
0.992238
0.992336
0.992577
0.992997
0.993244
0.993007
0.841976
0.841999
0.842015
0.84203
0.842046
0.842067
0.84209
0.842114
0.842138
0.842161
0.842189
0.842223
0.84224
0.842248
0.84228
0.842333
0.842341
0.842343
0.84235
0.842366
0.842387
0.842425
0.842468
0.842499
0.842521
0.842545
0.84257
0.842593
0.842613
0.842629
0.842649
0.842679
0.842732
0.842816
0.842926
0.843033
0.843117
0.843162
0.843206
0.843261
0.843327
0.843407
0.843514
0.84363
0.843746
0.843911
0.844141
0.844231
0.844217
0.844176
0.84407
0.843835
0.843509
0.843241
0.843091
0.843025
0.842994
0.842952
0.842808
0.842563
0.842302
0.84208
0.841891
0.841861
0.841847
0.841955
0.842413
0.843959
0.848255
0.856385
0.872795
0.89374
0.919397
0.944554
0.959523
0.973939
0.978267
0.9849
0.990495
0.991463
0.991255
0.989593
0.98966
0.990403
0.991818
0.992261
0.992078
0.991582
0.991628
0.991962
0.9923
0.992448
0.992363
0.992386
0.992407
0.992374
0.992401
0.992581
0.992974
0.993048
0.842122
0.8422
0.84221
0.842201
0.842198
0.842209
0.842227
0.842243
0.842261
0.842276
0.842285
0.842302
0.84232
0.842338
0.842383
0.842421
0.842424
0.842403
0.842389
0.842389
0.842404
0.842452
0.842485
0.842499
0.842518
0.842546
0.84257
0.842581
0.842589
0.842611
0.842654
0.842714
0.842785
0.842866
0.842945
0.842997
0.843042
0.843058
0.843063
0.843076
0.843105
0.843156
0.843241
0.843365
0.84354
0.843764
0.843961
0.844107
0.844171
0.844152
0.844052
0.843879
0.843696
0.843529
0.843442
0.843436
0.843421
0.843399
0.843302
0.843113
0.842921
0.842709
0.842428
0.842178
0.842094
0.842095
0.842296
0.842493
0.84278
0.843682
0.846862
0.853852
0.869489
0.89028
0.917579
0.944361
0.965114
0.981889
0.987193
0.989552
0.986958
0.986653
0.988439
0.990907
0.991733
0.991671
0.991124
0.991266
0.991895
0.992263
0.992151
0.99214
0.992258
0.992603
0.992643
0.992505
0.992368
0.992346
0.992552
0.992897
0.842395
0.842431
0.842507
0.842527
0.842527
0.842512
0.842494
0.842494
0.842516
0.842534
0.842523
0.842492
0.842485
0.842489
0.842517
0.842569
0.842585
0.842573
0.842522
0.84248
0.842481
0.842513
0.842544
0.84256
0.842595
0.842617
0.842615
0.842619
0.842639
0.842679
0.842737
0.84281
0.842881
0.842935
0.842965
0.842978
0.842981
0.842957
0.842894
0.842836
0.842818
0.842833
0.842898
0.843029
0.843224
0.843412
0.843544
0.843667
0.84373
0.843695
0.843555
0.843479
0.84343
0.843343
0.843336
0.843427
0.84347
0.843471
0.84349
0.843538
0.843484
0.843364
0.843228
0.843066
0.84286
0.842709
0.842625
0.842545
0.842625
0.84262
0.84267
0.843265
0.845934
0.852746
0.867892
0.889117
0.916473
0.943287
0.959328
0.974015
0.978619
0.985927
0.991543
0.991451
0.990909
0.98987
0.990158
0.991498
0.992498
0.99234
0.991879
0.991859
0.992307
0.992856
0.99284
0.992636
0.992365
0.992191
0.992259
0.992648
0.843125
0.843121
0.843127
0.84315
0.843157
0.843152
0.843128
0.843111
0.843114
0.84311
0.843085
0.843017
0.842951
0.842939
0.842932
0.842927
0.842932
0.842926
0.842887
0.842787
0.842729
0.842717
0.842711
0.842724
0.842735
0.842725
0.842746
0.842769
0.842762
0.842782
0.842823
0.842858
0.842904
0.842948
0.842957
0.842957
0.842978
0.842954
0.842838
0.842705
0.842623
0.842593
0.842622
0.842729
0.842888
0.843006
0.843102
0.843197
0.843215
0.843121
0.843032
0.843051
0.843055
0.843027
0.843093
0.843274
0.843294
0.843261
0.843264
0.843408
0.843514
0.843488
0.843511
0.843619
0.843631
0.84353
0.843362
0.843154
0.842963
0.842775
0.842696
0.842558
0.842594
0.843164
0.845866
0.852537
0.867935
0.889853
0.918205
0.946647
0.969081
0.983044
0.988925
0.988517
0.985898
0.987396
0.990342
0.992291
0.992082
0.991565
0.991452
0.991996
0.992544
0.992831
0.992708
0.992604
0.992433
0.992198
0.992178
0.992486
0.843864
0.843853
0.843837
0.843832
0.843836
0.84383
0.843792
0.843735
0.843692
0.843659
0.843632
0.843604
0.843559
0.843507
0.843427
0.84336
0.843343
0.84332
0.843268
0.843172
0.84308
0.843036
0.843017
0.843005
0.842975
0.842945
0.842975
0.842998
0.842984
0.842996
0.843033
0.843021
0.842994
0.843013
0.843089
0.843133
0.843094
0.842941
0.842718
0.842643
0.842608
0.842558
0.842552
0.842599
0.842624
0.842631
0.842722
0.842827
0.842792
0.842607
0.842515
0.842552
0.84273
0.842846
0.843001
0.843145
0.843156
0.843094
0.84305
0.843123
0.843213
0.843176
0.843219
0.843421
0.843713
0.843837
0.843813
0.843697
0.843548
0.843398
0.843204
0.842982
0.842799
0.842714
0.842792
0.843418
0.84612
0.853155
0.869057
0.892517
0.920587
0.948518
0.963321
0.975058
0.980684
0.990018
0.992036
0.991704
0.990252
0.990456
0.991509
0.992624
0.992742
0.992581
0.992453
0.992515
0.992482
0.992282
0.992145
0.992441
0.844416
0.844404
0.844352
0.84425
0.844194
0.84419
0.844219
0.844221
0.844208
0.844213
0.844229
0.84423
0.844207
0.844163
0.844065
0.843929
0.843804
0.843729
0.843663
0.843577
0.843479
0.843393
0.843325
0.843269
0.843218
0.843156
0.843138
0.84317
0.843234
0.843265
0.843265
0.843277
0.843321
0.843386
0.843465
0.843504
0.843444
0.843268
0.843007
0.842936
0.84296
0.842983
0.842978
0.842957
0.84294
0.842909
0.842864
0.842866
0.842817
0.842579
0.84246
0.842435
0.84251
0.842699
0.842876
0.843
0.843042
0.843025
0.842919
0.842823
0.842799
0.842746
0.842783
0.84298
0.843343
0.843687
0.843748
0.843689
0.843628
0.843697
0.843722
0.843673
0.843519
0.843258
0.843005
0.842948
0.843067
0.84372
0.846819
0.854215
0.872074
0.897226
0.925257
0.957614
0.975533
0.987329
0.989047
0.986896
0.987453
0.989641
0.99182
0.992411
0.992322
0.992202
0.992335
0.992487
0.992421
0.992264
0.992207
0.992566
0.844011
0.844001
0.843983
0.843956
0.843922
0.843915
0.843933
0.843996
0.844059
0.84406
0.844035
0.844038
0.844049
0.844033
0.843946
0.843784
0.843656
0.843583
0.843531
0.843481
0.843428
0.843382
0.843352
0.843337
0.843322
0.843293
0.843284
0.843291
0.843314
0.843388
0.843451
0.843432
0.843412
0.843495
0.843643
0.843763
0.843839
0.843744
0.843569
0.843511
0.84354
0.843654
0.843663
0.843622
0.843562
0.843475
0.843337
0.843236
0.843069
0.842746
0.842632
0.842593
0.842584
0.842655
0.842845
0.842989
0.843022
0.843019
0.842938
0.842786
0.842701
0.842614
0.842547
0.842633
0.842998
0.843437
0.84359
0.843582
0.843534
0.84356
0.843635
0.843721
0.843773
0.843732
0.843551
0.84324
0.843102
0.843135
0.84329
0.84404
0.847756
0.856285
0.876897
0.903313
0.931777
0.959688
0.96938
0.978917
0.986357
0.99189
0.991844
0.991238
0.991017
0.991621
0.992309
0.992402
0.992222
0.992157
0.992355
0.992831
0.843536
0.843548
0.8436
0.843612
0.84358
0.843568
0.843583
0.843674
0.843774
0.84378
0.843722
0.843688
0.843716
0.843739
0.843697
0.843542
0.843501
0.8435
0.843482
0.843449
0.843409
0.84336
0.843301
0.843239
0.843162
0.843062
0.843003
0.843012
0.843067
0.843182
0.843245
0.843223
0.843213
0.843322
0.843466
0.843557
0.843609
0.843587
0.843549
0.843557
0.843647
0.843819
0.844008
0.844068
0.844062
0.843959
0.843818
0.843761
0.843558
0.843088
0.842971
0.84298
0.843004
0.842946
0.842961
0.843191
0.843293
0.843276
0.843219
0.843145
0.842947
0.842721
0.842638
0.842692
0.842943
0.843305
0.843486
0.843483
0.843433
0.843385
0.843406
0.84346
0.843505
0.843499
0.843486
0.843431
0.843317
0.843197
0.843206
0.843226
0.843398
0.844453
0.8494
0.859987
0.884109
0.912558
0.942299
0.972508
0.982548
0.9896
0.987755
0.987482
0.989182
0.991013
0.992034
0.992001
0.991884
0.99213
0.992743
0.992931
0.84365
0.843728
0.843804
0.843905
0.84409
0.844198
0.844246
0.844287
0.844281
0.8442
0.844095
0.844082
0.844138
0.844209
0.844191
0.844017
0.843879
0.843886
0.843956
0.843967
0.843905
0.843752
0.843595
0.843467
0.84332
0.843114
0.842998
0.843017
0.843025
0.843012
0.843075
0.843323
0.843423
0.843315
0.843208
0.843182
0.843174
0.843211
0.843259
0.843306
0.843611
0.843783
0.843802
0.844026
0.844262
0.844281
0.844148
0.844008
0.843858
0.843374
0.842951
0.842919
0.843033
0.843081
0.843022
0.8432
0.843657
0.843718
0.843651
0.84365
0.843532
0.843235
0.843052
0.84307
0.843212
0.843417
0.843487
0.843416
0.843304
0.843232
0.843185
0.843151
0.843145
0.843187
0.843224
0.843225
0.84323
0.843272
0.843295
0.8433
0.843345
0.843403
0.843715
0.845396
0.85201
0.865445
0.892705
0.923456
0.947485
0.969823
0.97568
0.985772
0.990528
0.991192
0.990901
0.990849
0.991447
0.992625
0.993012
0.992898
0.844217
0.844275
0.844304
0.844313
0.844397
0.84462
0.844676
0.844714
0.844712
0.844617
0.844566
0.844584
0.844731
0.844866
0.844856
0.844665
0.844481
0.844502
0.844515
0.8444
0.844146
0.843958
0.843826
0.84372
0.843614
0.843499
0.84343
0.843396
0.843302
0.843198
0.843234
0.843388
0.843421
0.843284
0.84323
0.843229
0.843231
0.843284
0.843313
0.843319
0.843508
0.843738
0.843665
0.84364
0.843815
0.843874
0.843771
0.843617
0.843681
0.843621
0.8431
0.842901
0.842992
0.843236
0.843182
0.843237
0.84376
0.844023
0.843983
0.843965
0.843813
0.843488
0.843347
0.843403
0.843619
0.843727
0.843669
0.843518
0.843332
0.843173
0.843091
0.842995
0.842943
0.842951
0.842999
0.843032
0.843066
0.843131
0.843241
0.843363
0.843431
0.843483
0.843589
0.843713
0.844389
0.847037
0.856102
0.87343
0.903292
0.935208
0.9624
0.981716
0.988282
0.987406
0.987299
0.98927
0.991908
0.992655
0.992681
0.992543
0.844149
0.844276
0.84465
0.844805
0.844807
0.84472
0.844665
0.844753
0.844844
0.844806
0.844795
0.844857
0.845096
0.845203
0.845144
0.845017
0.845039
0.84503
0.844814
0.844374
0.84427
0.844277
0.844198
0.843993
0.843894
0.843832
0.843744
0.843619
0.843436
0.843305
0.843342
0.843409
0.843335
0.843179
0.843242
0.843389
0.843516
0.84366
0.843687
0.843649
0.843715
0.843795
0.843566
0.843306
0.84346
0.843555
0.843507
0.843483
0.843738
0.84391
0.843578
0.843251
0.843279
0.843558
0.843565
0.843527
0.843867
0.844196
0.844191
0.844048
0.843714
0.843371
0.843307
0.843442
0.843754
0.843864
0.843799
0.843676
0.843542
0.843368
0.843193
0.843044
0.843016
0.843016
0.84301
0.843022
0.843051
0.843113
0.843226
0.843352
0.843498
0.843569
0.843577
0.843574
0.843614
0.84385
0.845031
0.849277
0.861527
0.883452
0.914682
0.944995
0.96396
0.97594
0.984584
0.991571
0.992303
0.991507
0.991547
0.992166
0.844137
0.844389
0.84445
0.844491
0.844496
0.844415
0.844165
0.844116
0.844181
0.844412
0.84449
0.844509
0.844569
0.844567
0.84439
0.844281
0.844289
0.844222
0.843744
0.843304
0.84328
0.843384
0.843364
0.843181
0.843046
0.842974
0.842872
0.842784
0.84271
0.84257
0.842584
0.842677
0.842641
0.842705
0.843124
0.843713
0.844181
0.844429
0.844377
0.844334
0.844406
0.844363
0.843854
0.843352
0.843432
0.843443
0.843385
0.843621
0.844271
0.84441
0.843885
0.843458
0.843469
0.843618
0.843549
0.84344
0.843752
0.844283
0.844476
0.844271
0.84347
0.84283
0.842841
0.843118
0.84351
0.843754
0.843742
0.843715
0.843692
0.843531
0.843344
0.843304
0.843348
0.843436
0.843424
0.843353
0.84328
0.843257
0.843279
0.843328
0.843424
0.84349
0.843504
0.843495
0.843493
0.843509
0.843627
0.844069
0.846174
0.852384
0.869917
0.896084
0.92813
0.964228
0.980121
0.989464
0.987917
0.98805
0.989757
0.992097
0.84307
0.843126
0.843192
0.84321
0.843161
0.843045
0.843055
0.843257
0.84369
0.843828
0.843803
0.843783
0.843864
0.843904
0.843871
0.84355
0.843327
0.843306
0.843242
0.842969
0.84258
0.842469
0.84245
0.842439
0.842351
0.842276
0.84223
0.842174
0.842083
0.842075
0.842286
0.842468
0.842451
0.842646
0.843418
0.844287
0.84478
0.845088
0.845269
0.845253
0.845141
0.844772
0.844104
0.843928
0.843829
0.843487
0.843454
0.843942
0.844676
0.844713
0.844005
0.843616
0.843616
0.843589
0.84316
0.84278
0.84307
0.844122
0.844628
0.844391
0.843344
0.842676
0.842723
0.843075
0.843407
0.843604
0.843811
0.843975
0.844002
0.843876
0.843597
0.843554
0.843628
0.843783
0.843795
0.843724
0.843571
0.843437
0.843358
0.84334
0.843378
0.84343
0.843467
0.843503
0.843524
0.843517
0.843502
0.84349
0.843596
0.844357
0.848232
0.857841
0.881559
0.912324
0.940979
0.968018
0.975171
0.986526
0.990615
0.991861
0.841785
0.841865
0.841925
0.842008
0.842172
0.842489
0.842949
0.843251
0.843301
0.843303
0.843259
0.843209
0.843252
0.843329
0.843303
0.843099
0.842733
0.84242
0.842183
0.841929
0.841552
0.841189
0.841075
0.841021
0.840914
0.84086
0.840975
0.841024
0.840926
0.840925
0.841211
0.841359
0.841457
0.841911
0.84292
0.843984
0.844648
0.845004
0.845203
0.84518
0.844959
0.84443
0.844077
0.84389
0.843359
0.842488
0.842313
0.842831
0.844064
0.844487
0.844172
0.843688
0.843317
0.842559
0.841596
0.841452
0.84214
0.843821
0.844572
0.844285
0.843375
0.843114
0.843339
0.843745
0.84377
0.843779
0.843939
0.844168
0.844177
0.844041
0.843734
0.843639
0.84367
0.843765
0.843791
0.84374
0.843621
0.843523
0.8435
0.843492
0.843503
0.843552
0.843602
0.8436
0.843558
0.843535
0.84351
0.843394
0.843277
0.843306
0.843674
0.8454
0.85208
0.867093
0.896577
0.929901
0.960536
0.982828
0.988442
0.987758
0.842442
0.842447
0.842489
0.842626
0.843112
0.843342
0.843377
0.843511
0.843524
0.843312
0.843119
0.843113
0.843233
0.843395
0.843434
0.843379
0.843202
0.842976
0.84276
0.842431
0.842106
0.84203
0.841964
0.841732
0.841308
0.841203
0.841091
0.840697
0.839783
0.839044
0.838848
0.838791
0.838855
0.839212
0.839886
0.840704
0.841595
0.842322
0.842629
0.842576
0.84233
0.842057
0.841793
0.841049
0.839743
0.839154
0.839256
0.840306
0.842642
0.844107
0.844215
0.843784
0.842632
0.841336
0.840793
0.84094
0.842194
0.84405
0.844417
0.843941
0.843495
0.84361
0.844218
0.844365
0.844124
0.843907
0.843967
0.844141
0.844158
0.844038
0.843757
0.843531
0.843531
0.843591
0.843656
0.843676
0.843673
0.843649
0.843695
0.843754
0.843772
0.843777
0.843764
0.843703
0.84363
0.843599
0.843553
0.843492
0.843523
0.843556
0.843626
0.843791
0.844531
0.847898
0.858608
0.880056
0.914051
0.94473
0.965037
0.980992
0.841042
0.84046
0.840002
0.839908
0.839905
0.840085
0.84074
0.840952
0.840481
0.839545
0.839385
0.839431
0.83958
0.839649
0.839691
0.839749
0.839704
0.839576
0.839618
0.839897
0.840267
0.840341
0.840348
0.840352
0.840319
0.840214
0.839889
0.8388
0.837471
0.837277
0.837314
0.8374
0.837703
0.838598
0.839104
0.839171
0.839451
0.840323
0.840534
0.840523
0.840432
0.840116
0.839448
0.838116
0.836845
0.836611
0.836833
0.838132
0.841382
0.844485
0.84507
0.844674
0.843034
0.840944
0.840414
0.840977
0.842721
0.843238
0.842847
0.842733
0.842852
0.843349
0.844152
0.844244
0.843898
0.843212
0.843081
0.843241
0.843482
0.8435
0.843409
0.84334
0.84338
0.843455
0.843523
0.843554
0.843596
0.843674
0.843853
0.844009
0.844033
0.844001
0.843938
0.843875
0.843813
0.843771
0.843728
0.843728
0.843788
0.843797
0.843751
0.843686
0.843684
0.843951
0.845712
0.852009
0.869451
0.8967
0.932351
0.972472
0.842917
0.841887
0.84116
0.84091
0.840892
0.841263
0.841802
0.84167
0.841111
0.840663
0.840631
0.840755
0.841351
0.841904
0.842031
0.842068
0.841952
0.841863
0.842043
0.842513
0.842887
0.8429
0.842537
0.842281
0.842175
0.8421
0.842261
0.842126
0.841341
0.841065
0.841083
0.841325
0.842264
0.843842
0.844402
0.844552
0.844596
0.84419
0.843569
0.842997
0.842498
0.841743
0.840175
0.838593
0.838419
0.838529
0.839167
0.841026
0.844152
0.846044
0.846145
0.845459
0.843621
0.84201
0.841655
0.84196
0.842098
0.841694
0.840411
0.839949
0.840092
0.840932
0.842025
0.842181
0.841933
0.841669
0.841724
0.841995
0.842419
0.842805
0.843125
0.843407
0.843586
0.843685
0.843694
0.843686
0.84374
0.84385
0.844012
0.844122
0.844091
0.843968
0.843835
0.843826
0.843894
0.844032
0.844035
0.844046
0.844062
0.844012
0.843818
0.843589
0.843445
0.843469
0.843654
0.844538
0.848209
0.859861
0.882164
0.929915
0.8661
0.865243
0.864107
0.862258
0.859942
0.859297
0.858983
0.858593
0.858659
0.859367
0.859605
0.859527
0.859826
0.860356
0.860435
0.860334
0.860243
0.859928
0.858682
0.856696
0.856427
0.856594
0.855893
0.854808
0.853856
0.853295
0.853068
0.852478
0.851566
0.851462
0.851621
0.852242
0.853935
0.856037
0.856513
0.85632
0.855809
0.854992
0.853885
0.851875
0.849759
0.847854
0.844993
0.842054
0.841165
0.841276
0.842147
0.84424
0.845369
0.845356
0.845095
0.84371
0.840951
0.839642
0.83971
0.84062
0.841364
0.841267
0.840242
0.838929
0.838807
0.839092
0.839802
0.840298
0.840511
0.840722
0.841046
0.841456
0.841761
0.841995
0.842349
0.842896
0.843351
0.843615
0.843701
0.843712
0.84376
0.843896
0.843927
0.843895
0.84386
0.843836
0.843894
0.843972
0.844103
0.844287
0.844325
0.844311
0.844221
0.844042
0.84376
0.843539
0.843435
0.843456
0.843491
0.843573
0.843965
0.846096
0.852706
0.886435
0.89685
0.898241
0.898439
0.896644
0.890978
0.88929
0.889531
0.889407
0.889155
0.88988
0.890987
0.891494
0.892412
0.892645
0.891899
0.891434
0.891031
0.888372
0.885029
0.882858
0.88126
0.87992
0.878519
0.876811
0.874154
0.870768
0.867837
0.864558
0.863033
0.862921
0.862591
0.861084
0.860883
0.86112
0.859623
0.859203
0.860854
0.862338
0.862308
0.861323
0.859381
0.856932
0.853825
0.850964
0.849651
0.849653
0.850094
0.850119
0.849257
0.848245
0.847236
0.845478
0.843042
0.842017
0.842145
0.842814
0.844243
0.844903
0.844403
0.842951
0.841534
0.841083
0.841299
0.842045
0.842939
0.843566
0.843956
0.843867
0.843399
0.842704
0.842354
0.842317
0.842355
0.842347
0.842249
0.842275
0.842331
0.84251
0.842877
0.843248
0.843575
0.843797
0.844047
0.844161
0.844231
0.844359
0.844323
0.844228
0.844112
0.843941
0.843694
0.843577
0.843605
0.843672
0.843672
0.843563
0.843527
0.843642
0.844567
0.857343
0.943045