/*--------------------------------*- C++ -*----------------------------------*\
  =========                 |
  \\      /  F ield         | OpenFOAM: The Open Source CFD Toolbox
   \\    /   O peration     | Website:  https://openfoam.org
    \\  /    A nd           | Version:  7
     \\/     M anipulation  |
\*---------------------------------------------------------------------------*/
FoamFile
{
    version     2.0;
    format      ascii;
    class       volScalarField;
    location    "7";
    object      T;
}
// * * * * * * * * * * * * * * * * * * * * * * * * * * * * * * * * * * * * * //

dimensions      [0 0 0 1 0 0 0];

internalField   nonuniform List<scalar> 
90000
(
0.986259
0.988488
0.990817
0.994059
0.996725
0.999061
1.00156
1.0043
1.00646
1.00851
1.01041
1.01235
1.01393
1.01546
1.01672
1.01812
1.0193
1.02053
1.0216
1.02295
1.02444
1.02632
1.0284
1.03097
1.0337
1.03697
1.04012
1.04368
1.04668
1.04984
1.05237
1.05472
1.05667
1.05824
1.05898
1.05993
1.0603
1.06022
1.06024
1.0599
1.05889
1.05597
1.05226
1.049
1.04689
1.04558
1.04579
1.04635
1.04699
1.04777
1.04851
1.04921
1.04971
1.04969
1.04946
1.04858
1.04731
1.04604
1.04518
1.04468
1.04448
1.04484
1.04559
1.0469
1.04784
1.04777
1.04711
1.04623
1.04517
1.04439
1.04446
1.0448
1.04583
1.04592
1.04568
1.04501
1.04443
1.04402
1.04424
1.04497
1.04488
1.04465
1.04408
1.04357
1.04357
1.0438
1.04372
1.04348
1.04311
1.04319
1.04353
1.0434
1.04313
1.04266
1.04242
1.0423
1.04223
1.04214
1.04201
1.04168
0.984152
0.98421
0.984338
0.984782
0.985296
0.985848
0.986647
0.987714
0.988848
0.990019
0.991281
0.992689
0.994173
0.995699
0.997261
0.998742
1.00024
1.00169
1.00315
1.00444
1.00568
1.0069
1.00816
1.00954
1.011
1.01272
1.01459
1.01667
1.01911
1.02148
1.02424
1.02698
1.02957
1.03253
1.03494
1.03743
1.03966
1.04167
1.04309
1.0443
1.04531
1.04574
1.04618
1.04584
1.04466
1.04272
1.04071
1.039
1.03767
1.03758
1.03791
1.0385
1.03931
1.04022
1.04111
1.04172
1.04211
1.0417
1.04089
1.03981
1.03884
1.03817
1.03823
1.03867
1.03947
1.04049
1.04176
1.04173
1.04122
1.04006
1.03935
1.03901
1.0394
1.04028
1.04112
1.04097
1.04037
1.03959
1.03958
1.0399
1.04055
1.04065
1.04045
1.04008
1.03984
1.0399
1.03992
1.03987
1.03976
1.0397
1.03984
1.04009
1.04002
1.03975
1.03943
1.03925
1.03914
1.03914
1.03908
1.03886
0.982939
0.98293
0.982916
0.982897
0.982882
0.982882
0.98289
0.982914
0.982959
0.98303
0.983126
0.98329
0.983523
0.983819
0.984198
0.984659
0.985204
0.985822
0.986525
0.987329
0.988167
0.989101
0.990059
0.991117
0.992215
0.993375
0.994695
0.996022
0.997656
0.999331
1.00133
1.0035
1.00595
1.00854
1.01145
1.01448
1.01748
1.02078
1.02346
1.0263
1.02859
1.03085
1.03251
1.03369
1.0346
1.03535
1.03616
1.0361
1.03552
1.03455
1.03344
1.03241
1.03175
1.03163
1.03174
1.03212
1.03274
1.03348
1.03433
1.03464
1.03432
1.0334
1.03226
1.03135
1.03154
1.03228
1.03354
1.0347
1.03584
1.03559
1.0346
1.03342
1.0333
1.03363
1.03428
1.03509
1.03504
1.03454
1.03404
1.03416
1.03464
1.03515
1.03515
1.03495
1.03465
1.03471
1.0349
1.03498
1.03495
1.03492
1.03509
1.03538
1.03551
1.0354
1.03514
1.03503
1.03498
1.03502
1.03502
1.03493
0.98122
0.981208
0.981195
0.981181
0.981164
0.981148
0.981132
0.981116
0.9811
0.981083
0.981068
0.981033
0.980998
0.980965
0.980941
0.980944
0.980946
0.980949
0.980959
0.980999
0.981113
0.981296
0.981551
0.98187
0.982271
0.982755
0.983339
0.984056
0.984883
0.985878
0.987047
0.988371
0.989986
0.991744
0.99394
0.996274
0.99914
1.00209
1.0056
1.00901
1.01284
1.01627
1.01983
1.0225
1.02511
1.02703
1.02804
1.02847
1.02911
1.02922
1.029
1.02855
1.02767
1.02691
1.0263
1.02633
1.02655
1.02709
1.02764
1.02822
1.02859
1.0285
1.02821
1.02762
1.02708
1.0271
1.02742
1.02797
1.02885
1.02969
1.03044
1.03019
1.02948
1.02869
1.02872
1.02921
1.02975
1.03029
1.02996
1.02938
1.0294
1.02978
1.03035
1.03042
1.03025
1.03004
1.03012
1.03026
1.03034
1.03037
1.03046
1.03073
1.03103
1.03104
1.03095
1.03083
1.03077
1.03084
1.03091
1.0309
0.97942
0.979405
0.97939
0.979373
0.979363
0.979362
0.979359
0.97935
0.979331
0.979302
0.979275
0.979251
0.97923
0.97921
0.979188
0.979171
0.979162
0.979152
0.979129
0.979117
0.979086
0.979053
0.979037
0.979038
0.97903
0.979033
0.97905
0.979093
0.979201
0.979382
0.979643
0.980017
0.980508
0.981146
0.982005
0.983059
0.984473
0.986099
0.988273
0.990745
0.993841
0.997422
1.00127
1.00548
1.00978
1.01335
1.01682
1.01913
1.02124
1.02285
1.02353
1.02403
1.02451
1.02529
1.02588
1.0262
1.0261
1.02577
1.02513
1.02481
1.02474
1.02485
1.02509
1.02539
1.02551
1.02531
1.02492
1.02451
1.02469
1.02533
1.02614
1.02665
1.02704
1.02678
1.0263
1.02598
1.02611
1.02648
1.027
1.02693
1.02664
1.02648
1.02673
1.02717
1.02726
1.02707
1.02687
1.02695
1.02708
1.02711
1.02716
1.02733
1.02765
1.02792
1.02786
1.02767
1.02758
1.02762
1.0277
1.02778
0.978293
0.978282
0.978263
0.978252
0.978249
0.978247
0.978239
0.978225
0.978205
0.978184
0.978157
0.978136
0.978122
0.978111
0.978098
0.978083
0.978068
0.978055
0.97804
0.978016
0.977985
0.977949
0.977916
0.977897
0.977885
0.977872
0.977857
0.977858
0.977841
0.977816
0.977805
0.977799
0.977802
0.977816
0.97786
0.977988
0.978225
0.978585
0.979118
0.979913
0.981026
0.982657
0.98468
0.987581
0.990888
0.995196
0.999636
1.00477
1.00909
1.01383
1.01711
1.02015
1.02239
1.02355
1.02413
1.02438
1.02433
1.02406
1.02364
1.02317
1.02328
1.02363
1.02391
1.02422
1.02421
1.02409
1.02378
1.02336
1.02336
1.02355
1.02388
1.02447
1.02487
1.02506
1.02521
1.02504
1.02472
1.02466
1.02487
1.02508
1.02527
1.02516
1.025
1.02515
1.02545
1.02545
1.02533
1.02518
1.02522
1.02528
1.02531
1.02536
1.02555
1.02581
1.02601
1.02594
1.02574
1.02566
1.02567
1.02575
0.977703
0.977698
0.977691
0.977682
0.977674
0.977664
0.977653
0.977637
0.97762
0.977606
0.977591
0.977576
0.977566
0.977555
0.977541
0.977529
0.977517
0.977507
0.977497
0.977485
0.977468
0.977443
0.977407
0.977381
0.97737
0.977358
0.977337
0.977309
0.97728
0.977255
0.977236
0.977217
0.977195
0.977166
0.977163
0.977148
0.977142
0.977123
0.977116
0.977133
0.977214
0.977402
0.97776
0.978356
0.979313
0.98088
0.983055
0.986231
0.99045
0.99503
1.00049
1.00604
1.01065
1.01464
1.01773
1.01957
1.02068
1.02121
1.0217
1.02292
1.02371
1.02409
1.02404
1.02396
1.0237
1.0235
1.02339
1.0233
1.02327
1.02327
1.02338
1.02344
1.02362
1.02396
1.02421
1.02445
1.02448
1.02433
1.02413
1.02418
1.02433
1.02453
1.02449
1.0244
1.02449
1.02467
1.02468
1.02456
1.0244
1.0244
1.02444
1.02452
1.02462
1.02483
1.02503
1.02507
1.02495
1.02474
1.0247
1.02473
0.977488
0.97748
0.977471
0.977463
0.977457
0.977448
0.97743
0.97742
0.977413
0.977395
0.977361
0.977349
0.977345
0.977334
0.977306
0.977296
0.977297
0.977294
0.977276
0.977257
0.977244
0.977227
0.977198
0.977175
0.977162
0.977148
0.977125
0.977104
0.977085
0.977067
0.977049
0.977026
0.976994
0.976957
0.976921
0.976894
0.976868
0.976839
0.976802
0.976778
0.976749
0.976712
0.976672
0.97667
0.976711
0.97684
0.977154
0.977727
0.978873
0.980584
0.983552
0.987233
0.992373
0.998212
1.00377
1.00975
1.01424
1.01851
1.02097
1.02283
1.02331
1.02368
1.0236
1.02309
1.02281
1.02309
1.02358
1.02381
1.02375
1.0235
1.02324
1.02313
1.02315
1.02332
1.02364
1.02404
1.02417
1.02413
1.02396
1.02395
1.02398
1.02409
1.02418
1.02415
1.02416
1.02425
1.02439
1.02435
1.02421
1.02407
1.02405
1.0241
1.02419
1.02436
1.02465
1.02466
1.02461
1.02442
1.02425
1.02425
0.97747
0.977458
0.977443
0.97743
0.977419
0.977408
0.977395
0.977382
0.977368
0.977352
0.977331
0.97731
0.977289
0.97727
0.977253
0.977237
0.977227
0.977209
0.977183
0.977162
0.977146
0.97713
0.977107
0.977085
0.977066
0.977043
0.977016
0.976997
0.976983
0.976972
0.976959
0.97694
0.976912
0.976875
0.976838
0.976807
0.976773
0.976733
0.97669
0.976654
0.976616
0.976568
0.976521
0.976482
0.976477
0.97648
0.976493
0.976522
0.976591
0.976725
0.97712
0.977881
0.979484
0.981871
0.985903
0.990859
0.996846
1.0033
1.0089
1.01415
1.0168
1.01915
1.02055
1.02141
1.02268
1.02411
1.02448
1.02436
1.02406
1.0236
1.02338
1.02318
1.02328
1.02346
1.02368
1.0238
1.02392
1.02392
1.024
1.02401
1.02397
1.02396
1.02398
1.02399
1.02405
1.02411
1.02419
1.02422
1.02417
1.02404
1.02391
1.02392
1.02398
1.0241
1.02434
1.02452
1.0245
1.02437
1.02413
1.02402
0.977476
0.977463
0.97745
0.977435
0.97742
0.977404
0.977388
0.977372
0.977353
0.977334
0.977314
0.977293
0.977273
0.977256
0.977239
0.977218
0.977198
0.977176
0.977146
0.977115
0.977087
0.977062
0.977039
0.97702
0.977001
0.976978
0.976957
0.976941
0.976929
0.976918
0.976904
0.976885
0.976863
0.976838
0.976807
0.976775
0.976744
0.976708
0.976675
0.976644
0.976613
0.976579
0.976545
0.976521
0.976508
0.976495
0.976492
0.976497
0.976516
0.976572
0.976599
0.976642
0.97675
0.977033
0.977727
0.979016
0.981641
0.98527
0.990962
0.996932
1.00389
1.00995
1.01502
1.01981
1.02207
1.0234
1.02393
1.02369
1.02263
1.02267
1.02312
1.02375
1.02387
1.02369
1.02351
1.02339
1.02346
1.02365
1.02394
1.02403
1.02399
1.02388
1.02385
1.0239
1.02398
1.02403
1.02403
1.02406
1.02406
1.02401
1.02389
1.02383
1.02386
1.02395
1.02409
1.02432
1.02437
1.02431
1.02414
1.02392
0.977415
0.977405
0.977394
0.977384
0.977371
0.977351
0.977343
0.977339
0.977334
0.977325
0.977312
0.977297
0.977277
0.977257
0.977236
0.977211
0.977195
0.977184
0.977166
0.977138
0.977108
0.977077
0.977051
0.977026
0.977002
0.976983
0.976961
0.976935
0.976912
0.976893
0.976876
0.976853
0.976828
0.976804
0.976778
0.976745
0.976719
0.976699
0.976672
0.976649
0.97663
0.976604
0.976591
0.976589
0.976582
0.976564
0.976537
0.976519
0.976522
0.97654
0.976557
0.976579
0.976644
0.976679
0.976721
0.976806
0.977052
0.977635
0.979053
0.981539
0.985925
0.991688
0.998347
1.00565
1.0111
1.01542
1.01833
1.02008
1.02096
1.02255
1.02405
1.02436
1.02424
1.02375
1.02306
1.02307
1.02327
1.02368
1.02379
1.02381
1.02375
1.02371
1.02378
1.02387
1.02391
1.02389
1.02387
1.02389
1.02393
1.02391
1.02385
1.02374
1.02374
1.0238
1.02393
1.02409
1.02422
1.02421
1.02411
1.02385
0.977204
0.9772
0.977195
0.977189
0.97718
0.977171
0.977169
0.977169
0.977169
0.977166
0.977159
0.977152
0.977146
0.977141
0.977136
0.97713
0.977123
0.977114
0.977097
0.977072
0.977048
0.977029
0.977012
0.976991
0.976968
0.976947
0.976926
0.976902
0.976877
0.976852
0.97683
0.976807
0.97678
0.976754
0.976736
0.976715
0.97669
0.976675
0.97666
0.976632
0.976615
0.9766
0.976577
0.97656
0.976563
0.976563
0.976549
0.97654
0.976548
0.976549
0.976534
0.976519
0.976524
0.976538
0.976568
0.976653
0.976669
0.976655
0.976684
0.976887
0.977557
0.979163
0.982442
0.987325
0.994068
1.00161
1.00797
1.01474
1.01917
1.02167
1.02289
1.0235
1.02301
1.0224
1.02257
1.02299
1.02332
1.02349
1.02342
1.02323
1.02326
1.02351
1.0237
1.02369
1.02366
1.02363
1.02366
1.0237
1.02372
1.02368
1.02366
1.02361
1.02362
1.02364
1.02369
1.02379
1.02394
1.024
1.02396
1.02375
0.976778
0.976777
0.976771
0.976765
0.976764
0.976766
0.976771
0.976775
0.976778
0.976778
0.976778
0.976776
0.976773
0.976773
0.976773
0.976772
0.976763
0.976757
0.976753
0.976744
0.976736
0.976732
0.976726
0.976716
0.976709
0.976704
0.9767
0.976697
0.97669
0.976679
0.976669
0.976661
0.976653
0.976651
0.976654
0.976667
0.976668
0.976669
0.976676
0.976674
0.976663
0.976655
0.976634
0.97662
0.976624
0.976626
0.976622
0.976608
0.976597
0.976581
0.976546
0.976481
0.976419
0.976396
0.976396
0.976421
0.976454
0.976455
0.976444
0.976371
0.976277
0.976304
0.976652
0.977621
0.980171
0.984122
0.990455
0.9976
1.00493
1.01167
1.01486
1.01831
1.01959
1.02164
1.02298
1.02344
1.02335
1.02297
1.02255
1.02261
1.02294
1.02325
1.02338
1.02335
1.02326
1.02331
1.02339
1.02341
1.02337
1.02333
1.02335
1.02341
1.02341
1.02337
1.02337
1.02342
1.02355
1.0237
1.02368
1.02354
0.976286
0.976288
0.97629
0.976291
0.976294
0.976298
0.9763
0.976301
0.976303
0.976309
0.97632
0.976324
0.976322
0.976321
0.976322
0.976323
0.976323
0.976321
0.976321
0.976324
0.976329
0.976335
0.97634
0.976344
0.976349
0.976358
0.976373
0.976385
0.976384
0.976382
0.97638
0.976381
0.976389
0.976409
0.976441
0.976479
0.976512
0.976533
0.97655
0.976567
0.976576
0.976586
0.976604
0.976621
0.976627
0.976638
0.976649
0.976645
0.976629
0.976595
0.976537
0.976446
0.976335
0.976261
0.976225
0.976215
0.976221
0.976213
0.976164
0.976074
0.976002
0.97594
0.975865
0.975881
0.976082
0.976737
0.978636
0.981855
0.987815
0.994749
1.00266
1.01012
1.01565
1.02025
1.02161
1.02243
1.02199
1.02131
1.02165
1.02231
1.02287
1.02279
1.02277
1.02274
1.02285
1.023
1.02299
1.02294
1.02287
1.0229
1.023
1.02307
1.02304
1.023
1.02299
1.02302
1.02309
1.02321
1.02328
1.0232
0.975938
0.975945
0.97595
0.975955
0.975961
0.975967
0.975975
0.975983
0.97599
0.975997
0.976005
0.976016
0.976021
0.976022
0.976031
0.976046
0.976046
0.976045
0.976046
0.976049
0.976054
0.976063
0.976072
0.976075
0.976077
0.97608
0.976084
0.976084
0.976083
0.976081
0.976081
0.976085
0.976096
0.976118
0.976149
0.97618
0.976206
0.976223
0.97624
0.976263
0.976289
0.976317
0.976352
0.976387
0.976415
0.976457
0.976516
0.976522
0.976512
0.97649
0.976446
0.976364
0.976257
0.976165
0.976103
0.976062
0.976032
0.975998
0.975928
0.975832
0.975738
0.975668
0.975592
0.975549
0.975513
0.975527
0.97565
0.976135
0.977546
0.980232
0.985618
0.992342
1.00045
1.00815
1.01267
1.01696
1.0183
1.02033
1.02207
1.02244
1.02238
1.0219
1.02184
1.02204
1.02244
1.0226
1.02254
1.02238
1.02239
1.02248
1.02257
1.02261
1.02258
1.02259
1.02259
1.02257
1.02258
1.02263
1.02275
1.02276
0.975624
0.975648
0.97565
0.975647
0.975645
0.975648
0.975654
0.975659
0.975665
0.975671
0.975673
0.975677
0.975681
0.975686
0.975699
0.975708
0.975708
0.975701
0.975691
0.975689
0.975692
0.975707
0.975711
0.975711
0.975712
0.975716
0.975717
0.975715
0.975712
0.975713
0.975719
0.975731
0.975746
0.975766
0.975786
0.975798
0.975808
0.975813
0.975816
0.975822
0.975835
0.975853
0.975878
0.975912
0.975959
0.976021
0.976078
0.976108
0.976114
0.976105
0.976067
0.976002
0.975933
0.975873
0.975838
0.975825
0.975799
0.975772
0.975718
0.975635
0.975553
0.975469
0.97537
0.975279
0.975233
0.975219
0.975262
0.975282
0.975344
0.975611
0.976642
0.978945
0.98408
0.990768
0.999395
1.00762
1.01393
1.01893
1.02056
1.02135
1.02054
1.02051
1.021
1.02171
1.022
1.02198
1.0218
1.02182
1.02198
1.02208
1.02205
1.02204
1.02208
1.02218
1.02218
1.02214
1.02209
1.02209
1.02215
1.02225
0.975305
0.975316
0.975339
0.975341
0.975341
0.975335
0.975327
0.975327
0.975332
0.975336
0.975332
0.975319
0.975313
0.975314
0.975322
0.975336
0.975339
0.975335
0.975317
0.975299
0.975299
0.975309
0.975316
0.975315
0.975321
0.975323
0.97532
0.975319
0.975322
0.97533
0.975342
0.975359
0.975375
0.975391
0.975394
0.975391
0.975389
0.975377
0.975351
0.975326
0.975317
0.975321
0.97534
0.975378
0.975435
0.975488
0.975521
0.975547
0.975558
0.975543
0.975489
0.975442
0.975405
0.975366
0.975365
0.975398
0.975396
0.975383
0.975374
0.975374
0.97534
0.975278
0.975222
0.97516
0.975083
0.97502
0.974975
0.974927
0.974931
0.974894
0.974877
0.975038
0.975895
0.978141
0.983112
0.989946
0.998614
1.00684
1.01168
1.01605
1.01748
1.0197
1.02152
1.02149
1.02133
1.02094
1.02101
1.02138
1.02171
1.02167
1.02154
1.02151
1.02164
1.0218
1.02179
1.02173
1.02165
1.02159
1.02161
1.02173
0.975127
0.975123
0.975125
0.975129
0.975129
0.975125
0.975114
0.975104
0.975103
0.975101
0.975089
0.975064
0.97504
0.975031
0.975025
0.975022
0.975023
0.975021
0.975007
0.974973
0.974953
0.974949
0.974946
0.97495
0.974951
0.974946
0.974951
0.974954
0.97495
0.974954
0.974963
0.974969
0.974978
0.974984
0.974982
0.974978
0.97498
0.974966
0.974916
0.97486
0.974828
0.974818
0.974828
0.974865
0.974914
0.974945
0.97497
0.974987
0.974986
0.97495
0.974895
0.974882
0.974869
0.974854
0.974881
0.97494
0.974937
0.974913
0.974907
0.974941
0.974959
0.974946
0.974952
0.974975
0.974965
0.974915
0.974844
0.974761
0.974682
0.974607
0.974572
0.974485
0.974472
0.974622
0.975488
0.977687
0.982746
0.989804
0.998763
1.00749
1.01432
1.01841
1.02027
1.02015
1.01935
1.01977
1.02062
1.02126
1.02122
1.02108
1.02102
1.02116
1.02132
1.02141
1.02138
1.02135
1.02129
1.02122
1.02121
1.0213
0.97497
0.97496
0.97495
0.974948
0.974949
0.974947
0.974932
0.974911
0.974896
0.974882
0.974869
0.974856
0.974838
0.974819
0.974791
0.974767
0.97476
0.974752
0.974735
0.974701
0.974673
0.974666
0.974666
0.974665
0.974659
0.97465
0.974658
0.974663
0.974657
0.974659
0.974666
0.974659
0.974641
0.974641
0.974653
0.97466
0.974643
0.974584
0.9745
0.974468
0.974456
0.974442
0.974442
0.974461
0.974473
0.974477
0.974504
0.974522
0.974506
0.974433
0.974367
0.974369
0.974415
0.974453
0.97451
0.974554
0.974554
0.974528
0.974498
0.97451
0.974522
0.974506
0.974521
0.97459
0.974674
0.974685
0.974669
0.974618
0.974561
0.974504
0.974429
0.974345
0.974283
0.974208
0.974215
0.974393
0.97527
0.977591
0.982813
0.990353
0.999225
1.00775
1.01217
1.01566
1.01738
1.02023
1.0209
1.02082
1.02038
1.02041
1.0207
1.02103
1.02109
1.02105
1.021
1.02102
1.021
1.02094
1.02089
1.02097
0.974834
0.974829
0.974809
0.974775
0.974751
0.974748
0.974754
0.974753
0.974746
0.974747
0.97475
0.974749
0.974741
0.974723
0.974687
0.974638
0.974595
0.974569
0.974546
0.974515
0.974481
0.974454
0.974434
0.974419
0.974406
0.974388
0.974382
0.974393
0.974417
0.974427
0.974425
0.974428
0.974441
0.974457
0.974467
0.97447
0.974442
0.974375
0.974287
0.97426
0.974268
0.974276
0.974276
0.974271
0.974268
0.97426
0.974242
0.974237
0.974216
0.974136
0.974073
0.974048
0.974066
0.97412
0.974175
0.974213
0.974228
0.974223
0.974187
0.974136
0.974108
0.974077
0.974086
0.97415
0.974268
0.974364
0.974374
0.974346
0.97432
0.974346
0.974345
0.974328
0.974273
0.974177
0.974074
0.974032
0.974063
0.974266
0.975284
0.977721
0.983572
0.991617
1.0004
1.01027
1.01568
1.01917
1.01978
1.01911
1.01928
1.01991
1.02054
1.02075
1.02072
1.02067
1.02071
1.02076
1.02074
1.0207
1.02066
1.02076
0.974425
0.974421
0.974414
0.974402
0.974383
0.974377
0.974381
0.974399
0.974417
0.974418
0.97441
0.974411
0.974414
0.974407
0.974375
0.974318
0.974274
0.974249
0.974229
0.974208
0.974187
0.974168
0.974157
0.974152
0.974147
0.974138
0.974135
0.974138
0.974149
0.97418
0.974204
0.974198
0.974193
0.974226
0.974277
0.974311
0.974332
0.9743
0.974238
0.974207
0.974215
0.974242
0.974238
0.974217
0.974192
0.974161
0.974117
0.974088
0.974042
0.973948
0.973901
0.973874
0.973868
0.973886
0.973935
0.973972
0.973984
0.973985
0.973968
0.973924
0.973878
0.973827
0.973794
0.973819
0.973933
0.974075
0.97412
0.974112
0.974086
0.974093
0.974119
0.974153
0.974169
0.974154
0.974091
0.973986
0.973924
0.973927
0.973964
0.974194
0.975412
0.978213
0.984942
0.993341
1.00225
1.01069
1.01361
1.01649
1.01871
1.02041
1.02039
1.02022
1.0201
1.02027
1.02048
1.02054
1.0205
1.02046
1.02051
1.02065
0.974036
0.974041
0.974062
0.974069
0.974061
0.97406
0.974067
0.974101
0.974138
0.97414
0.974121
0.974109
0.974119
0.974128
0.974114
0.974063
0.974048
0.974047
0.974039
0.974024
0.974002
0.973975
0.973944
0.973912
0.973877
0.973836
0.973815
0.973818
0.973835
0.973873
0.973906
0.973904
0.973904
0.973946
0.973999
0.974037
0.974061
0.974054
0.974036
0.974036
0.974059
0.974106
0.974155
0.974161
0.974155
0.974111
0.974068
0.97406
0.974006
0.973864
0.97383
0.973832
0.973837
0.97381
0.973806
0.973866
0.973898
0.973895
0.973884
0.973867
0.973799
0.973709
0.973674
0.97369
0.973767
0.973881
0.973936
0.973932
0.973907
0.973884
0.97389
0.973909
0.973926
0.97393
0.973929
0.973909
0.973868
0.973824
0.973814
0.973802
0.973844
0.974178
0.975808
0.97928
0.987123
0.996114
1.00532
1.01452
1.01747
1.01958
1.01903
1.01894
1.01942
1.01995
1.02027
1.02027
1.02023
1.0203
1.02048
1.02054
0.973936
0.973963
0.97399
0.974026
0.974091
0.974129
0.974147
0.974161
0.974159
0.974131
0.974096
0.974091
0.97411
0.974135
0.974129
0.974072
0.974024
0.974026
0.974046
0.974047
0.974024
0.973968
0.973911
0.973862
0.973806
0.973731
0.973689
0.973694
0.973695
0.97369
0.973711
0.973797
0.973834
0.9738
0.97377
0.973767
0.973766
0.973779
0.97379
0.973798
0.973889
0.973943
0.97395
0.974022
0.974099
0.974106
0.974062
0.974018
0.973973
0.973824
0.973681
0.973663
0.973698
0.973711
0.97369
0.973745
0.973898
0.973924
0.973904
0.973898
0.973848
0.973737
0.973673
0.97368
0.97373
0.973797
0.973818
0.973792
0.97375
0.973722
0.973706
0.973695
0.973693
0.973707
0.973721
0.973727
0.97373
0.97374
0.97374
0.973734
0.973739
0.973748
0.97384
0.974388
0.976572
0.980972
0.989789
0.999458
1.00683
1.01354
1.01529
1.0183
1.01975
1.01995
1.01985
1.01981
1.01999
1.02036
1.02048
1.02045
0.974026
0.974039
0.974042
0.97404
0.974062
0.974134
0.97414
0.974145
0.974143
0.974112
0.974095
0.974101
0.974149
0.974193
0.97419
0.974127
0.974066
0.974074
0.974078
0.974042
0.973961
0.973906
0.97387
0.97384
0.973807
0.973768
0.973743
0.973731
0.973699
0.973663
0.973673
0.973724
0.973736
0.973692
0.973677
0.973679
0.973682
0.973697
0.9737
0.973699
0.973756
0.973829
0.973805
0.9738
0.973866
0.973892
0.973857
0.973803
0.973826
0.973808
0.973639
0.973571
0.9736
0.973678
0.973658
0.973676
0.973851
0.973944
0.973933
0.973923
0.973865
0.973743
0.973681
0.973695
0.973763
0.973809
0.973793
0.973746
0.973683
0.973629
0.973606
0.973578
0.973568
0.973571
0.973585
0.973594
0.973603
0.973622
0.973655
0.97369
0.973705
0.973716
0.973742
0.973777
0.973995
0.974869
0.977865
0.983517
0.993091
1.00302
1.01133
1.0171
1.01905
1.01879
1.01872
1.01929
1.02008
1.02032
1.02035
1.02029
0.973903
0.973947
0.974071
0.974114
0.974114
0.974083
0.974063
0.974091
0.97412
0.974108
0.974104
0.974125
0.974205
0.974239
0.97422
0.974179
0.974187
0.974185
0.974115
0.973971
0.973946
0.973952
0.973931
0.97387
0.973837
0.973815
0.973785
0.973741
0.973677
0.973631
0.973641
0.97366
0.973634
0.973579
0.973599
0.973646
0.973686
0.973734
0.973746
0.973737
0.973762
0.97379
0.973716
0.973632
0.973683
0.97372
0.973705
0.973697
0.973781
0.973837
0.973729
0.97363
0.97364
0.973731
0.973733
0.973722
0.973833
0.973943
0.973944
0.9739
0.973786
0.973652
0.973618
0.973658
0.973761
0.973806
0.973786
0.973748
0.973705
0.97365
0.973597
0.973552
0.973548
0.973548
0.973548
0.973554
0.973566
0.973587
0.973621
0.973655
0.973699
0.973709
0.973704
0.973697
0.973707
0.973784
0.974176
0.975581
0.979621
0.986727
0.996677
1.00601
1.01174
1.01531
1.01788
1.01994
1.02018
1.01996
1.01997
1.02015
0.973813
0.973902
0.973941
0.973965
0.973968
0.973941
0.97386
0.973846
0.973868
0.97394
0.973972
0.973987
0.974014
0.974014
0.973955
0.973921
0.973924
0.973903
0.973746
0.973602
0.973595
0.97363
0.973624
0.973565
0.973516
0.973485
0.973443
0.973406
0.973374
0.973322
0.973327
0.973354
0.973341
0.97336
0.973495
0.973687
0.973849
0.973942
0.97393
0.973927
0.973958
0.973947
0.973784
0.973615
0.973639
0.973643
0.973623
0.973701
0.973916
0.973963
0.973793
0.973656
0.97366
0.97371
0.973687
0.97365
0.973752
0.97393
0.973998
0.973933
0.973662
0.973423
0.97342
0.973507
0.973644
0.973734
0.973734
0.973728
0.973722
0.973673
0.973617
0.973605
0.973618
0.973647
0.973645
0.97363
0.973613
0.973607
0.973613
0.973624
0.97365
0.97366
0.973657
0.97365
0.973651
0.973657
0.973698
0.973848
0.974551
0.97661
0.982375
0.990771
1.00084
1.01187
1.01663
1.01937
1.01891
1.01895
1.01945
1.02012
0.973466
0.973497
0.973526
0.973533
0.973518
0.973484
0.973488
0.973555
0.9737
0.973753
0.973747
0.973742
0.973772
0.97379
0.97378
0.973679
0.973605
0.973596
0.973573
0.973484
0.973354
0.973297
0.973279
0.973268
0.97323
0.973192
0.973166
0.973141
0.973107
0.973104
0.973174
0.973238
0.973235
0.9733
0.973556
0.973847
0.974033
0.974158
0.974228
0.974226
0.974194
0.974082
0.973864
0.973791
0.973746
0.973624
0.973614
0.973776
0.974033
0.974053
0.97383
0.973701
0.973699
0.973687
0.973537
0.973402
0.973497
0.973851
0.974029
0.973952
0.973599
0.973347
0.973356
0.973466
0.973586
0.973663
0.97374
0.973796
0.973806
0.973768
0.973682
0.973669
0.973692
0.97374
0.973745
0.973726
0.973683
0.973643
0.973615
0.973603
0.973613
0.973625
0.973633
0.973643
0.973655
0.973655
0.973651
0.973655
0.973698
0.973961
0.975254
0.978423
0.986151
0.995917
1.0048
1.01298
1.01511
1.0185
1.01972
1.02005
0.973056
0.973099
0.97313
0.973165
0.973226
0.973335
0.97349
0.973591
0.973609
0.973609
0.973595
0.973578
0.973592
0.973616
0.973608
0.97354
0.973419
0.973312
0.973228
0.973137
0.973004
0.972868
0.972806
0.972772
0.972724
0.972701
0.972736
0.972748
0.972712
0.972711
0.97281
0.972872
0.972914
0.973074
0.973421
0.973794
0.974036
0.97416
0.974225
0.974217
0.974147
0.97398
0.973855
0.973772
0.973569
0.973273
0.973225
0.973406
0.973842
0.974005
0.973907
0.973746
0.973611
0.973341
0.973007
0.972958
0.973188
0.973754
0.974009
0.973913
0.973595
0.973479
0.973544
0.973675
0.973708
0.973723
0.973783
0.973858
0.973861
0.97382
0.973726
0.973693
0.9737
0.973727
0.973737
0.973725
0.973693
0.973664
0.973652
0.973644
0.973646
0.973658
0.973672
0.973672
0.973661
0.973659
0.973655
0.973618
0.9736
0.973617
0.973748
0.974327
0.97654
0.981456
0.990949
1.00138
1.01075
1.01746
1.01908
1.01885
0.973321
0.973325
0.973344
0.973397
0.973565
0.973649
0.973665
0.973713
0.973718
0.973652
0.973579
0.973572
0.973605
0.973646
0.973653
0.973632
0.973567
0.973486
0.973406
0.973288
0.973169
0.97313
0.973098
0.973006
0.972852
0.972812
0.972773
0.972642
0.972318
0.97207
0.972059
0.97206
0.972087
0.972219
0.972465
0.972768
0.973091
0.973315
0.973385
0.973362
0.973275
0.973183
0.973088
0.972819
0.972366
0.972189
0.972231
0.972603
0.973413
0.973907
0.973939
0.973789
0.973388
0.972934
0.972747
0.972798
0.973225
0.973851
0.97397
0.973806
0.973618
0.97364
0.973828
0.973893
0.973827
0.973772
0.973794
0.973852
0.973859
0.973824
0.973738
0.97366
0.973656
0.973669
0.973692
0.973707
0.973711
0.973704
0.97372
0.973734
0.973732
0.973728
0.973722
0.973702
0.973683
0.97368
0.973667
0.97366
0.973678
0.973699
0.973732
0.973791
0.974039
0.975153
0.97868
0.985643
0.996464
1.00594
1.01206
1.01681
0.97287
0.97269
0.972551
0.972525
0.972524
0.972583
0.972803
0.972881
0.972742
0.972436
0.972351
0.972359
0.972388
0.972392
0.972398
0.972411
0.972394
0.972346
0.972355
0.972436
0.972546
0.972569
0.972567
0.972562
0.972541
0.972498
0.972384
0.972014
0.97158
0.971533
0.971549
0.971588
0.971709
0.972039
0.972243
0.972282
0.972392
0.972672
0.972694
0.972682
0.972639
0.972529
0.972302
0.971838
0.971421
0.971362
0.971444
0.971905
0.973031
0.974049
0.974218
0.97408
0.973519
0.972809
0.972632
0.972824
0.973417
0.973597
0.973471
0.973393
0.973418
0.973549
0.973807
0.973856
0.97376
0.973556
0.973513
0.973563
0.973642
0.973652
0.973627
0.973601
0.973609
0.973625
0.973651
0.973669
0.973689
0.973718
0.97378
0.973819
0.973815
0.973799
0.973775
0.973756
0.973741
0.973734
0.973729
0.973735
0.973763
0.973773
0.97376
0.973743
0.973744
0.973833
0.974415
0.976491
0.982202
0.99095
1.00207
1.01436
0.973516
0.973177
0.972933
0.972845
0.972838
0.972959
0.973136
0.973093
0.972908
0.972738
0.97272
0.972754
0.972936
0.97311
0.973154
0.973167
0.97313
0.973104
0.973167
0.973331
0.973464
0.973471
0.973356
0.97325
0.973191
0.973157
0.973205
0.97315
0.972869
0.972797
0.972808
0.972901
0.973244
0.973814
0.974031
0.974081
0.974089
0.973932
0.973697
0.973487
0.973316
0.973071
0.972564
0.972026
0.971951
0.971987
0.972204
0.972849
0.973928
0.97454
0.974565
0.974333
0.973719
0.973175
0.973052
0.973156
0.973208
0.97308
0.972656
0.972464
0.972498
0.972748
0.973106
0.973173
0.97311
0.973047
0.973069
0.973157
0.973292
0.973419
0.973531
0.973626
0.973675
0.973696
0.973707
0.973711
0.973737
0.973776
0.973831
0.97385
0.973834
0.973783
0.973736
0.973735
0.973761
0.973816
0.973824
0.973831
0.973839
0.973825
0.973763
0.97369
0.973647
0.973656
0.973716
0.974006
0.975215
0.97904
0.986242
1.00152
0.981106
0.980823
0.980452
0.979856
0.979115
0.978893
0.978769
0.978622
0.978641
0.978861
0.978912
0.978882
0.978975
0.979142
0.979169
0.979137
0.979109
0.979006
0.9786
0.977937
0.977835
0.977884
0.977651
0.977273
0.976923
0.976719
0.976637
0.97643
0.976144
0.97613
0.976192
0.976422
0.977019
0.977756
0.977932
0.977869
0.977691
0.977404
0.977026
0.976368
0.975694
0.975087
0.974156
0.973161
0.972826
0.972859
0.973147
0.973858
0.974276
0.974279
0.9742
0.973752
0.972852
0.9724
0.972417
0.97271
0.972951
0.972919
0.972587
0.972126
0.972061
0.972142
0.972359
0.972541
0.972637
0.972724
0.972843
0.972979
0.97307
0.973142
0.973261
0.973446
0.973591
0.973669
0.973698
0.973709
0.973734
0.973781
0.973784
0.973768
0.973747
0.973727
0.973742
0.973768
0.973817
0.973887
0.97391
0.973907
0.973878
0.973818
0.973723
0.973653
0.973628
0.973637
0.973648
0.973671
0.973792
0.974486
0.976653
0.987755
0.990726
0.991149
0.991204
0.990621
0.988802
0.98828
0.988365
0.988337
0.988266
0.988491
0.988853
0.989057
0.989398
0.98949
0.989263
0.989148
0.98905
0.98823
0.987162
0.986453
0.985924
0.985479
0.985017
0.984462
0.983605
0.982515
0.981575
0.980526
0.980012
0.97996
0.979843
0.979353
0.979294
0.979372
0.978879
0.978715
0.979222
0.979712
0.979715
0.979435
0.978864
0.97811
0.977112
0.97617
0.975683
0.975668
0.975795
0.975804
0.975531
0.975215
0.974895
0.974328
0.973539
0.973186
0.97322
0.973418
0.973867
0.974092
0.97394
0.973477
0.97298
0.972795
0.972856
0.97309
0.973396
0.973633
0.97378
0.973751
0.973591
0.973352
0.973239
0.973232
0.973245
0.97324
0.973206
0.973218
0.973243
0.973306
0.973424
0.973541
0.973638
0.9737
0.973773
0.973815
0.973849
0.973905
0.973898
0.97387
0.973833
0.973773
0.973686
0.973654
0.973667
0.973693
0.973693
0.973654
0.97363
0.973665
0.973966
0.978199
1.00513
1.00521
1.0053
1.00519
1.00429
1.00334
1.0033
1.00332
1.00307
1.00237
1.00197
1.00196
1.00205
1.00192
1.00131
1.00118
1.00148
1.00144
1.00083
1.00046
1.00025
0.999845
0.999789
0.999809
0.999581
0.998153
0.996974
0.997035
0.996949
0.996009
0.994976
0.994543
0.99402
0.993067
0.991719
0.990374
0.989593
0.988925
0.987799
0.987455
0.987626
0.987314
0.986469
0.986386
0.986376
0.9859
0.984973
0.984066
0.983677
0.983375
0.982578
0.980408
0.978933
0.978527
0.978011
0.97782
0.977981
0.978427
0.978466
0.977985
0.976725
0.975344
0.974862
0.974857
0.974763
0.974378
0.973949
0.973627
0.973307
0.972964
0.972845
0.972868
0.97289
0.972902
0.972919
0.97295
0.972985
0.97306
0.973237
0.973401
0.973479
0.973523
0.973595
0.973689
0.973744
0.973739
0.97373
0.973755
0.973773
0.97375
0.973702
0.973707
0.973748
0.973742
0.973704
0.973632
0.973628
0.973693
0.97372
0.974703
1.02497
1.02476
1.0246
1.02427
1.02354
1.0229
1.02251
1.02244
1.02256
1.02256
1.02208