/*--------------------------------*- C++ -*----------------------------------*\
  =========                 |
  \\      /  F ield         | OpenFOAM: The Open Source CFD Toolbox
   \\    /   O peration     | Website:  https://openfoam.org
    \\  /    A nd           | Version:  7
     \\/     M anipulation  |
\*---------------------------------------------------------------------------*/
FoamFile
{
    version     2.0;
    format      ascii;
    class       volScalarField;
    location    "7";
    object      p;
}
// * * * * * * * * * * * * * * * * * * * * * * * * * * * * * * * * * * * * * //

dimensions      [1 -1 -2 0 0 0 0];

internalField   nonuniform List<scalar> 
90000
(
0.325104
0.353154
0.383655
0.413503
0.442458
0.47149
0.500757
0.529093
0.557391
0.585479
0.613877
0.641843
0.669534
0.696713
0.723411
0.7491
0.774659
0.798161
0.822285
0.843414
0.864658
0.883189
0.901477
0.917014
0.93187
0.945163
0.955657
0.966808
0.973085
0.98058
0.9844
0.988551
0.99107
0.991064
0.99163
0.990463
0.988869
0.987007
0.984591
0.982654
0.98016
0.977734
0.977079
0.975931
0.976362
0.978269
0.980946
0.98368
0.987058
0.990503
0.992705
0.995362
0.997216
0.998172
0.995783
0.991172
0.986738
0.982535
0.981221
0.9818
0.982476
0.984764
0.989074
0.992547
0.994766
0.992967
0.989401
0.984145
0.981621
0.981949
0.982656
0.986389
0.990583
0.993082
0.991493
0.987877
0.986744
0.987283
0.988184
0.990942
0.991572
0.990193
0.98801
0.987694
0.989213
0.99071
0.990531
0.989667
0.988008
0.987969
0.988068
0.988962
0.989351
0.989052
0.988775
0.988661
0.988386
0.988088
0.9879
0.988131
0.302445
0.302439
0.302463
0.302553
0.302756
0.303134
0.30384
0.304978
0.306781
0.309273
0.312934
0.317667
0.324102
0.332022
0.342208
0.354415
0.369008
0.386752
0.4062
0.430026
0.455012
0.484283
0.51492
0.548751
0.583421
0.619792
0.656814
0.693592
0.729782
0.764868
0.798125
0.82721
0.85776
0.879978
0.904396
0.920518
0.936238
0.948403
0.956387
0.965909
0.970277
0.973686
0.979588
0.980926
0.983258
0.991995
0.996739
1.00062
1.00554
1.0062
1.00409
1.00298
1.00201
0.997213
0.987958
0.979194
0.977003
0.977485
0.979801
0.98324
0.98955
0.996078
0.999146
0.998027
0.994182
0.987618
0.980988
0.977809
0.978683
0.981748
0.98884
0.995466
0.994665
0.992375
0.987834
0.983828
0.984654
0.987503
0.991947
0.993044
0.991627
0.987589
0.986531
0.9874
0.989657
0.99202
0.991041
0.988279
0.987276
0.988113
0.989328
0.989163
0.988962
0.98897
0.988917
0.988655
0.988194
0.987967
0.987897
0.988238
0.302549
0.302547
0.302547
0.302548
0.302553
0.302563
0.302598
0.302582
0.302556
0.30252
0.302475
0.30243
0.302399
0.30238
0.302373
0.302379
0.302419
0.302504
0.302692
0.303036
0.303595
0.304703
0.306435
0.309313
0.313497
0.319873
0.328864
0.340825
0.357874
0.377722
0.40453
0.43558
0.471111
0.514808
0.558645
0.609423
0.659568
0.711367
0.761116
0.809072
0.852839
0.88892
0.927521
0.949616
0.970353
0.984483
0.989503
0.99328
0.999014
0.999196
0.997547
0.994497
0.988653
0.973551
0.969733
0.972109
0.977381
0.983943
0.991934
0.997742
1.00103
1.00046
0.998679
0.991526
0.981505
0.977718
0.97664
0.978029
0.984056
0.991975
0.996958
0.996249
0.992037
0.985061
0.983116
0.983585
0.987615
0.992767
0.994103
0.992235
0.987607
0.985934
0.986629
0.989851
0.991918
0.991494
0.989305
0.987262
0.987148
0.988213
0.989487
0.989365
0.988779
0.988726
0.98884
0.988645
0.98812
0.987877
0.987843
0.988278
0.30247
0.302467
0.302461
0.302455
0.302449
0.302447
0.302446
0.302447
0.302451
0.302456
0.302459
0.30246
0.302462
0.302468
0.302473
0.302481
0.302492
0.302506
0.302522
0.30254
0.302597
0.302563
0.302525
0.302495
0.302465
0.302435
0.302413
0.302417
0.302459
0.302587
0.302904
0.303556
0.304789
0.307446
0.311659
0.320057
0.332171
0.35138
0.379012
0.413279
0.459685
0.514474
0.57183
0.639413
0.702537
0.762099
0.814642
0.850815
0.897673
0.916834
0.928565
0.938872
0.949661
0.955701
0.974002
0.98595
0.999939
1.00821
1.01088
1.00945
1.00674
1.00046
0.984945
0.97587
0.972303
0.973442
0.978845
0.989245
0.999766
1.00064
0.998687
0.990719
0.983496
0.979861
0.980961
0.987648
0.99551
0.99558
0.993883
0.987994
0.984483
0.985163
0.989667
0.993522
0.992189
0.989697
0.987306
0.9861
0.987899
0.989789
0.989727
0.988946
0.988367
0.98855
0.988717
0.988434
0.987929
0.987744
0.987938
0.988578
0.302348
0.302354
0.302355
0.302353
0.302353
0.302355
0.302359
0.302366
0.302375
0.302385
0.302396
0.302406
0.302415
0.302422
0.302428
0.302434
0.302435
0.302437
0.302438
0.30244
0.30244
0.302437
0.302423
0.302411
0.302408
0.302414
0.302428
0.302443
0.302445
0.302459
0.302418
0.302371
0.302333
0.302314
0.302305
0.302302
0.302326
0.302398
0.30259
0.303072
0.304309
0.307536
0.313467
0.327461
0.348284
0.381736
0.431088
0.490824
0.557008
0.637729
0.719275
0.787931
0.85968
0.919455
0.955037
0.968762
0.983066
0.991482
0.995716
0.994233
0.988143
0.971695
0.965652
0.969009
0.975566
0.98776
0.997542
1.00253
1.00073
0.997524
0.986906
0.979132
0.977528
0.980264
0.989264
0.997017
0.996221
0.993933
0.986873
0.983004
0.98407
0.989726
0.993976
0.992909
0.990819
0.986682
0.985079
0.987601
0.990258
0.989879
0.988771
0.987903
0.988445
0.988935
0.98866
0.988018
0.987746
0.987921
0.988144
0.988615
0.302658
0.30266
0.302661
0.302662
0.30266
0.302654
0.302646
0.30264
0.302641
0.302648
0.302661
0.302677
0.302693
0.302707
0.30272
0.302732
0.302742
0.302748
0.302754
0.30276
0.302759
0.302753
0.302749
0.302752
0.302764
0.302776
0.302784
0.302788
0.302783
0.302772
0.302766
0.302772
0.302777
0.302773
0.302766
0.302764
0.30277
0.30277
0.302763
0.30275
0.302722
0.302686
0.30266
0.302666
0.302721
0.302986
0.303802
0.306619
0.312667
0.328202
0.354965
0.403475
0.463848
0.547129
0.634909
0.718728
0.79746
0.846578
0.898015
0.91899
0.939441
0.945266
0.968681
0.986039
1.00467
1.01237
1.01179
1.00963
0.998411
0.980373
0.972812
0.974006
0.980348
0.991323
1.00277
1.00158
0.995635
0.984767
0.980204
0.982211
0.98916
0.996391
0.995538
0.99169
0.986499
0.984029
0.986835
0.990571
0.990769
0.989177
0.988071
0.988473
0.989051
0.988783
0.988031
0.987643
0.987853
0.988079
0.988248
0.988936
0.3025
0.302499
0.302501
0.302504
0.302504
0.302503
0.3025
0.302504
0.302514
0.30252
0.302522
0.302526
0.302536
0.302545
0.302549
0.302549
0.302551
0.302556
0.302564
0.302571
0.30258
0.302591
0.302603
0.302615
0.302625
0.302631
0.302636
0.302642
0.302645
0.302649
0.302657
0.302654
0.302636
0.302628
0.302628
0.302628
0.302632
0.302629
0.302614
0.302595
0.302573
0.302544
0.302524
0.30252
0.302532
0.302545
0.302577
0.302612
0.302627
0.302658
0.302767
0.303324
0.304972
0.312005
0.32704
0.364937
0.417315
0.499754
0.593081
0.695084
0.800633
0.885485
0.953642
0.975319
0.994561
1.00239
1.00215
0.991739
0.960656
0.961946
0.969687
0.985489
0.997824
1.00242
1.00192
0.9931
0.979166
0.976924
0.979399
0.98937
0.996284
0.996562
0.9916
0.984992
0.983386
0.985919
0.990001
0.991463
0.989926
0.987978
0.987998
0.988731
0.988877
0.988362
0.987586
0.987635
0.987934
0.988178
0.988337
0.989138
0.302364
0.302365
0.302364
0.302365
0.302369
0.302375
0.302381
0.302385
0.302384
0.302385
0.302388
0.302388
0.302386
0.302385
0.302386
0.302391
0.302398
0.302402
0.302406
0.302413
0.302428
0.302441
0.302449
0.302462
0.30249
0.302498
0.302492
0.302485
0.30248
0.302486
0.302519
0.30254
0.302542
0.30254
0.302537
0.302536
0.302533
0.302524
0.302502
0.302468
0.302426
0.302362
0.302295
0.302269
0.302268
0.302283
0.302324
0.302373
0.302398
0.302409
0.302414
0.302414
0.30242
0.302447
0.302517
0.302756
0.303536
0.307606
0.318285
0.350791
0.403367
0.498653
0.604394
0.711121
0.808005
0.863045
0.915827
0.927713
0.944768
0.975198
0.997826
1.012
1.01138
1.00833
0.988661
0.971025
0.971417
0.976552
0.989884
1.00233
1.00091
0.991791
0.983609
0.982002
0.985133
0.991372
0.99188
0.990997
0.988526
0.98742
0.988456
0.989529
0.988892
0.987521
0.987449
0.987839
0.988031
0.9882
0.988594
0.989617
0.302327
0.302327
0.302327
0.302326
0.302327
0.302331
0.302339
0.302343
0.302346
0.30235
0.302361
0.302365
0.302366
0.302367
0.302366
0.302366
0.302369
0.302374
0.302381
0.302391
0.302402
0.302412
0.302419
0.302422
0.302419
0.302419
0.302428
0.302443
0.302444
0.302436
0.302431
0.302432
0.302452
0.302512
0.302546
0.302547
0.302543
0.302532
0.302508
0.302475
0.302434
0.302378
0.302311
0.302257
0.30223
0.302232
0.302248
0.302273
0.302295
0.30231
0.302322
0.302329
0.302344
0.302382
0.302457
0.30251
0.302524
0.30251
0.302468
0.302532
0.303053
0.307332
0.320186
0.36245
0.429419
0.538477
0.661413
0.787077
0.910102
0.967435
0.990565
1.00431
1.00352
0.987115
0.953346
0.959707
0.977728
0.995577
1.00326
1.00203
0.992789
0.978044
0.978711
0.982554
0.99007
0.994378
0.992797
0.987423
0.985932
0.987585
0.989718
0.989411
0.98837
0.987173
0.987402
0.988061
0.988181
0.988312
0.988841
0.989925
0.302394
0.302393
0.302391
0.302387
0.302382
0.302379
0.302379
0.302381
0.30239
0.302407
0.302416
0.30242
0.30242
0.302419
0.302418
0.302419
0.302422
0.30243
0.302444
0.302455
0.30246
0.302464
0.302466
0.302465
0.302465
0.302466
0.30246
0.302452
0.302445
0.302438
0.30244
0.302457
0.302492
0.302533
0.302552
0.302555
0.302552
0.302539
0.302515
0.302484
0.302447
0.302407
0.302365
0.302321
0.302295
0.302301
0.302309
0.302317
0.302331
0.302335
0.30233
0.302328
0.302338
0.302366
0.302422
0.302523
0.302609
0.302613
0.302559
0.302416
0.302377
0.302393
0.302421
0.302613
0.303849
0.311598
0.335896
0.400804
0.507644
0.640623
0.757312
0.851177
0.903773
0.928296
0.946309
0.989917
1.00847
1.01072
1.00844
0.988189
0.973697
0.974202
0.980667
0.992971
0.99568
0.994096
0.987344
0.984111
0.985534
0.990573
0.990781
0.989386
0.98649
0.986717
0.987925
0.988255
0.988139
0.988309
0.989557
0.990132
0.302566
0.30256
0.302556
0.302552
0.302545
0.302533
0.302532
0.302541
0.302555
0.302555
0.302553
0.30255
0.302547
0.30254
0.30253
0.302529
0.302534
0.302536
0.302536
0.302535
0.302532
0.302524
0.30252
0.302515
0.302508
0.302503
0.302499
0.302498
0.302497
0.302498
0.302507
0.302535
0.302588
0.302644
0.302656
0.302652
0.302641
0.302623
0.302603
0.302583
0.302559
0.302536
0.302522
0.302511
0.302494
0.302485
0.302491
0.302487
0.30248
0.302467
0.302425
0.302389
0.302382
0.302396
0.302464
0.302602
0.302697
0.302693
0.302593
0.302525
0.302515
0.302494
0.302436
0.302428
0.302431
0.302464
0.302597
0.303365
0.308583
0.331668
0.39419
0.502986
0.641649
0.80602
0.924956
0.984192
0.999347
1.00443
0.987986
0.959207
0.964187
0.981405
0.994395
0.99846
0.995995
0.98626
0.979441
0.982247
0.990582
0.992618
0.990882
0.986085
0.985183
0.986886
0.988668
0.988429
0.987915
0.988445
0.990359
0.99028
0.302637
0.30264
0.30264
0.30264
0.302639
0.302631
0.302629
0.30263
0.302629
0.302624
0.302612
0.302601
0.302596
0.302589
0.30258
0.302572
0.302562
0.302547
0.302528
0.302516
0.302507
0.302497
0.302482
0.302459
0.30243
0.302414
0.302406
0.302399
0.302392
0.302389
0.302396
0.302428
0.302482
0.302547
0.302601
0.30264
0.302653
0.302647
0.302633
0.30262
0.302598
0.302571
0.30256
0.302562
0.302566
0.302561
0.302562
0.302566
0.302565
0.302551
0.302496
0.302433
0.302415
0.302423
0.30248
0.302623
0.302722
0.302716
0.302638
0.302609
0.30263
0.302622
0.302577
0.302516
0.302503
0.302521
0.302605
0.302748
0.302803
0.302858
0.303496
0.307944
0.334972
0.402647
0.541252
0.691935
0.796729
0.904311
0.917148
0.958674
0.978175
1.00568
1.00539
1.00093
0.981563
0.977442
0.980811
0.991527
0.994926
0.992446
0.984741
0.984102
0.986138
0.989525
0.989331
0.987486
0.987889
0.989871
0.991032
0.989912
0.302583
0.302586
0.302584
0.302581
0.302584
0.302588
0.302587
0.302584
0.302583
0.302582
0.302574
0.302564
0.302566
0.302565
0.302558
0.302546
0.302525
0.302496
0.302468
0.302451
0.302441
0.302433
0.302422
0.302405
0.302386
0.302374
0.302363
0.302348
0.302334
0.302333
0.302341
0.302375
0.302422
0.302475
0.30253
0.302571
0.302568
0.302547
0.302539
0.30254
0.302531
0.302518
0.302512
0.302528
0.302563
0.302574
0.302598
0.302632
0.302638
0.302618
0.30253
0.302406
0.302336
0.302329
0.302365
0.302485
0.302558
0.302557
0.302563
0.302587
0.302643
0.302662
0.302626
0.302528
0.302504
0.30253
0.302617
0.302752
0.302824
0.302824
0.302781
0.302654
0.302665
0.303343
0.313958
0.348196
0.450052
0.599041
0.764695
0.934288
0.97086
1.00225
0.999028
0.974666
0.961463
0.973411
0.994081
1.00001
0.996201
0.983365
0.979422
0.982964
0.990883
0.990766
0.987996
0.986209
0.988015
0.991481
0.991148
0.988754
0.302494
0.302507
0.302517
0.302518
0.302519
0.302519
0.302517
0.302513
0.302514
0.30253
0.30255
0.302557
0.302562
0.302561
0.302558
0.302548
0.302516
0.302488
0.302468
0.302445
0.302428
0.302414
0.302395
0.302369
0.302343
0.302323
0.302304
0.302284
0.30227
0.302268
0.302277
0.302314
0.302376
0.302436
0.30247
0.302471
0.302449
0.302417
0.302403
0.302403
0.302419
0.302423
0.302424
0.302447
0.30249
0.302533
0.302613
0.302687
0.302691
0.302654
0.302513
0.302366
0.302292
0.302281
0.302326
0.302399
0.30239
0.302367
0.302376
0.302445
0.302599
0.302708
0.302708
0.302633
0.302521
0.302515
0.302588
0.302709
0.302775
0.302765
0.302714
0.302571
0.302398
0.302366
0.302377
0.302559
0.305269
0.320552
0.395405
0.528108
0.68928
0.857502
0.891046
0.931688
0.960545
1.00263
1.00744
1.00209
0.978647
0.975738
0.980186
0.992159
0.993625
0.989639
0.985183
0.986442
0.992273
0.99247
0.989906
0.987598
0.302481
0.302491
0.302501
0.302501
0.302496
0.302493
0.302492
0.302493
0.302503
0.302523
0.302551
0.302579
0.302592
0.302594
0.302593
0.302584
0.302561
0.302552
0.302552
0.302548
0.302527
0.302497
0.302467
0.302445
0.302432
0.302422
0.302408
0.302383
0.302342
0.302313
0.302318
0.302369
0.302418
0.302425
0.302426
0.302421
0.302394
0.302364
0.302343
0.302333
0.302334
0.302343
0.302365
0.302391
0.30242
0.30249
0.302644
0.302729
0.302725
0.302667
0.302551
0.302471
0.302402
0.30237
0.30237
0.302372
0.302353
0.302297
0.302286
0.30231
0.302464
0.302756
0.302866
0.302842
0.302725
0.302589
0.302567
0.302599
0.302627
0.302601
0.302558
0.302479
0.302351
0.302307
0.30231
0.30236
0.302534
0.302702
0.303622
0.310619
0.363252
0.474704
0.652582
0.862382
0.94427
0.994383
0.995084
0.970261
0.959506
0.973521
0.995997
0.997423
0.992823
0.981943
0.983048
0.991296
0.994828
0.99231
0.986636
0.986883
0.30253
0.302548
0.302567
0.302588
0.302595
0.302586
0.302574
0.302571
0.302573
0.302586
0.302611
0.302637
0.302654
0.302659
0.302661
0.302661
0.302658
0.302651
0.302634
0.302606
0.302574
0.30256
0.302556
0.302553
0.302551
0.302546
0.302537
0.302534
0.302534
0.302526
0.302529
0.302543
0.302547
0.302535
0.302511
0.30251
0.302508
0.30249
0.302406
0.302332
0.302323
0.302321
0.302321
0.30234
0.302397
0.302537
0.30272
0.30277
0.302753
0.302648
0.302551
0.302542
0.302538
0.302533
0.302509
0.302455
0.302373
0.302304
0.302282
0.302291
0.302418
0.302791
0.303063
0.303052
0.302907
0.302667
0.302522
0.302484
0.302449
0.302384
0.302375
0.302398
0.302374
0.302362
0.30239
0.302501
0.302765
0.302929
0.30293
0.302902
0.303097
0.306329
0.344714
0.442795
0.616696
0.800849
0.875128
0.922211
0.956661
1.00606
1.01025
1.00006
0.977458
0.978174
0.987972
0.998682
0.996253
0.986351
0.984782
0.987266
0.302516
0.302531
0.302575
0.302627
0.302645
0.302641
0.302624
0.302616
0.302615
0.302622
0.302642
0.302661
0.302672
0.302682
0.302695
0.302714
0.302719
0.302711
0.302687
0.302635
0.302588
0.302582
0.30258
0.30258
0.302584
0.302586
0.302587
0.302597
0.302618
0.302633
0.302659
0.302706
0.302722
0.302719
0.302722
0.302735
0.302732
0.302679
0.302507
0.302402
0.302386
0.302382
0.302361
0.30236
0.302437
0.302625
0.302696
0.302691
0.302659
0.302575
0.302559
0.30257
0.302642
0.302693
0.302707
0.302698
0.302583
0.302398
0.302329
0.30232
0.302424
0.302813
0.303158
0.303156
0.302986
0.302683
0.302442
0.302388
0.302315
0.302241
0.302251
0.302363
0.302546
0.302646
0.302692
0.30278
0.302966
0.303014
0.303
0.302859
0.302521
0.302051
0.302134
0.304293
0.33529
0.420585
0.595529
0.830713
0.938986
1.00042
0.997037
0.963692
0.965887
0.985048
1.0004
0.999251
0.986586
0.981363
0.985066
0.989899
0.302519
0.302508
0.302509
0.302526
0.302569
0.302594
0.302598
0.302601
0.302608
0.302622
0.302648
0.302672
0.302679
0.302681
0.302693
0.302689
0.302676
0.30267
0.302654
0.302592
0.302534
0.302529
0.30253
0.302551
0.302596
0.30261
0.302609
0.30262
0.302664
0.302716
0.302784
0.302873
0.3029
0.302891
0.302895
0.302915
0.302907
0.302808
0.302568
0.302479
0.302464
0.30248
0.302479
0.30247
0.302541
0.302609
0.302597
0.302551
0.302485
0.302466
0.302471
0.302503
0.302671
0.302841
0.302909
0.302947
0.302956
0.302835
0.302554
0.302378
0.302418
0.30271
0.303126
0.303164
0.302973
0.302589
0.302393
0.30238
0.302292
0.302216
0.302231
0.302397
0.302752
0.30294
0.302969
0.303011
0.303068
0.303062
0.302916
0.302573
0.302077
0.301821
0.301827
0.301964
0.302341
0.304121
0.32877
0.417447
0.594406
0.806145
0.868918
0.926475
0.967817
1.01039
1.00831
0.988465
0.975513
0.9809
0.993029
0.992318
0.302609
0.302608
0.30259
0.302582
0.302595
0.302629
0.302641
0.302648
0.30265
0.302658
0.30266
0.302646
0.302638
0.302641
0.302617
0.302515
0.302463
0.302462
0.302447
0.302382
0.302319
0.302311
0.302316
0.302349
0.302434
0.302536
0.302618
0.302699
0.302788
0.302862
0.302939
0.303019
0.303049
0.303043
0.30301
0.303011
0.302993
0.302879
0.302618
0.302507
0.302496
0.30253
0.302529
0.302534
0.30261
0.302641
0.302625
0.302511
0.302451
0.302434
0.302416
0.302443
0.302663
0.302917
0.303008
0.303075
0.303137
0.303103
0.302831
0.302396
0.3023
0.302531
0.30295
0.302977
0.302655
0.30242
0.302422
0.30245
0.30242
0.302374
0.3024
0.302602
0.302962
0.303104
0.303114
0.30311
0.30308
0.30286
0.302469
0.302049
0.301792
0.301823
0.302041
0.302438
0.302921
0.303033
0.303135
0.30444
0.330667
0.416691
0.610883
0.85787
0.951275
1.00016
0.992704
0.958185
0.969724
0.994847
0.996066
0.99108
0.302871
0.302867
0.302863
0.302823
0.30272
0.302688
0.3027
0.302707
0.302694
0.302624
0.302577
0.302574
0.302571
0.302522
0.302318
0.302199
0.3022
0.302207
0.30216
0.30213
0.302138
0.302164
0.302176
0.302199
0.302257
0.302369
0.302478
0.30251
0.302559
0.302707
0.302848
0.302861
0.30287
0.302889
0.30291
0.302976
0.302988
0.3029
0.302652
0.302404
0.302342
0.302372
0.30243
0.302546
0.302696
0.302743
0.302732
0.302604
0.302551
0.302514
0.302375
0.302334
0.302557
0.302826
0.302969
0.303095
0.303182
0.30317
0.302859
0.30225
0.302134
0.302378
0.302575
0.302459
0.302094
0.302035
0.302173
0.302574
0.302777
0.30281
0.302821
0.302901
0.303066
0.303164
0.303164
0.303133
0.302883
0.302286
0.301845
0.301628
0.301699
0.302012
0.302441
0.302932
0.30312
0.303117
0.303079
0.302836
0.302358
0.303704
0.33353
0.439799
0.632894
0.833673
0.900447
0.93608
1.00118
1.00822
0.997237
0.981913
0.30316
0.303162
0.303154
0.303064
0.302955
0.30295
0.302954
0.302906
0.302857
0.302852
0.302881
0.302887
0.302853
0.302696
0.302347
0.302201
0.302209
0.3022
0.302119
0.302084
0.302143
0.302261
0.302277
0.302224
0.302117
0.302106
0.302114
0.302071
0.301975
0.301997
0.302086
0.302118
0.30217
0.302356
0.302592
0.302749
0.302811
0.302739
0.302551
0.302403
0.302324
0.3023
0.302386
0.302763
0.303022
0.30307
0.303081
0.30299
0.302897
0.302749
0.302504
0.302321
0.302299
0.302471
0.302784
0.303023
0.30318
0.303178
0.302825
0.302134
0.302046
0.302244
0.302334
0.302221
0.301922
0.301882
0.30207
0.302704
0.303094
0.303145
0.303147
0.303088
0.303118
0.303025
0.302903
0.302695
0.3022
0.301651
0.301475
0.301563
0.30196
0.302404
0.302768
0.303152
0.303202
0.303157
0.302867
0.302235
0.301796
0.301944
0.302316
0.305048
0.344083
0.461098
0.694541
0.892195
0.996425
0.993173
0.962124
0.974483
0.302766
0.302809
0.302824
0.302737
0.3026
0.302591
0.302586
0.302523
0.302469
0.302464
0.302489
0.302502
0.302444
0.302063
0.301798
0.301793
0.301782
0.301613
0.301384
0.301361
0.301454
0.301642
0.30174
0.301751
0.301574
0.301407
0.301399
0.301398
0.30135
0.30124
0.301195
0.301216
0.301371
0.301782
0.301988
0.301903
0.301555
0.30145
0.301584
0.301802
0.301758
0.301772
0.30214
0.302832
0.303026
0.303001
0.302862
0.30283
0.302839
0.302737
0.302343
0.301793
0.301436
0.301379
0.301507
0.301735
0.301963
0.302045
0.301914
0.301846
0.30193
0.302025
0.302085
0.302082
0.301875
0.301747
0.301914
0.302587
0.303131
0.303193
0.303195
0.303137
0.302637
0.301968
0.301577
0.301357
0.301075
0.301074
0.301217
0.301681
0.302113
0.302561
0.302815
0.303048
0.302953
0.302504
0.301896
0.301396
0.301512
0.30205
0.302606
0.303062
0.303204
0.307173
0.35488
0.513681
0.756927
0.851851
0.925131
0.986449
0.300468
0.300481
0.300533
0.300559
0.300542
0.300495
0.300459
0.300429
0.300381
0.300344
0.300351
0.300355
0.300248
0.299866
0.299716
0.299713
0.299694
0.29956
0.299462
0.299373
0.299319
0.299401
0.299668
0.299973
0.300214
0.300487
0.300908
0.301363
0.301462
0.301428
0.301366
0.301391
0.301604
0.30188
0.301968
0.301901
0.301653
0.301236
0.300655
0.300234
0.300082
0.300077
0.300209
0.300493
0.300805
0.301181
0.301822
0.302341
0.302353
0.302129
0.301429
0.300856
0.300587
0.300229
0.300035
0.300111
0.300241
0.300224
0.300271
0.300491
0.300816
0.301186
0.301696
0.301983
0.301961
0.301913
0.301918
0.301956
0.301989
0.301938
0.301706
0.301166
0.300548
0.300095
0.299888
0.29991
0.300088
0.300569
0.301107
0.301667
0.302008
0.302412
0.302508
0.302144
0.301426
0.300673
0.300424
0.300601
0.301383
0.302086
0.302632
0.302513
0.30204
0.301382
0.301621
0.313486
0.37754
0.581467
0.843812
0.975578
0.297846
0.297975
0.298118
0.298244
0.298324
0.298394
0.298513
0.298719
0.298908
0.298989
0.299031
0.299069
0.299068
0.298997
0.29878
0.298603
0.298568
0.29867
0.298779
0.298693
0.298681
0.299086
0.299698
0.299904
0.300005
0.30014
0.300416
0.300582
0.300546
0.300312
0.299898
0.299518
0.299379
0.299352
0.299271
0.299305
0.299351
0.299296
0.298945
0.298832
0.299006
0.299004
0.29855
0.298266
0.298231
0.298283
0.298813
0.299529
0.29962
0.299373
0.298842
0.298788
0.298752
0.298468
0.298233
0.298326
0.298669
0.298792
0.298905
0.299138
0.299259
0.299275
0.29957
0.300022
0.300055
0.300028
0.299911
0.29955
0.299211
0.298988
0.298761
0.298602
0.298482
0.298319
0.298191
0.298204
0.298365
0.298824
0.299774
0.300221
0.30031
0.300163
0.299823
0.299358
0.298986
0.29878
0.298894
0.299122
0.30004
0.300792
0.300818
0.300512
0.299781
0.299564
0.299754
0.300175
0.301076
0.325763
0.424104
0.723726
0.299861
0.300111
0.30017
0.300115
0.299923
0.299848
0.299906
0.300283
0.301053
0.301287
0.301294
0.301317
0.301438
0.301479
0.301448
0.301135
0.300913
0.300959
0.300839
0.300435
0.300519
0.301069
0.301296
0.301129
0.300818
0.300783
0.300993
0.301205
0.301092
0.300551
0.299842
0.299571
0.299508
0.299379
0.29926
0.299496
0.30029
0.300564
0.30034
0.300238
0.300286
0.299849
0.298501
0.297707
0.297555
0.297521
0.297651
0.298385
0.299222
0.299445
0.299508
0.299505
0.299353
0.298882
0.298752
0.298758
0.299302
0.300554
0.300839
0.300611
0.299664
0.299481
0.299758
0.300456
0.300542
0.300388
0.299709
0.298712
0.298346
0.298166
0.297999
0.298067
0.298163
0.298247
0.298441
0.298742
0.299307
0.300006
0.300579
0.300494
0.299952
0.299249
0.298519
0.298142
0.298259
0.298317
0.298604
0.299645
0.300628
0.300557
0.299994
0.299019
0.298538
0.298815
0.299229
0.300196
0.300096
0.299792
0.301556
0.426277
0.300477
0.30003
0.299607
0.299401
0.299242
0.29912
0.299134
0.299291
0.299804
0.300122
0.300169
0.300385
0.301318
0.30217
0.302295
0.302217
0.302135
0.302326
0.302497
0.30214
0.301218
0.301087
0.301082
0.300841
0.299924
0.29957
0.299635
0.299558
0.29876
0.297234
0.296539
0.296524
0.296842
0.297122
0.297167
0.29714
0.297454
0.299404
0.300763
0.301091
0.301237
0.300745
0.299045
0.297993
0.297375
0.297002
0.296998
0.297276
0.29788
0.298855
0.300171
0.301343
0.302084
0.301976
0.301075
0.300377
0.30039
0.301457
0.302325
0.302316
0.301702
0.300205
0.299368
0.299344
0.299412
0.299276
0.298731
0.297992
0.297697
0.297702
0.297799
0.297999
0.298561
0.299594
0.300488
0.300999
0.301217
0.301042
0.300446
0.299581
0.29878
0.298175
0.297562
0.297634
0.298025
0.299187
0.300498
0.301145
0.300549
0.299614
0.298532
0.29787
0.297952
0.298609
0.300302
0.299947
0.299399
0.298799
0.298406
0.303771
0.303264
0.303299
0.303317
0.303349
0.303422
0.303634
0.304016
0.3044
0.304726
0.304982
0.30528
0.30569
0.306182
0.306807
0.30788
0.309217
0.309589
0.309596
0.309452
0.308943
0.307577
0.305879
0.305568
0.305775
0.305778
0.30549
0.304785
0.303938
0.303677
0.303836
0.304572
0.305059
0.305623
0.306249
0.306496
0.306436
0.306183
0.306338
0.307632
0.310311
0.313038
0.314181
0.313966
0.313063
0.311613
0.310134
0.309085
0.308621
0.308553
0.308634
0.309079
0.309927
0.310486
0.310331
0.309386
0.308538
0.308532
0.308448
0.308051
0.307339
0.306196
0.304859
0.304165
0.304163
0.304035
0.303269
0.303233
0.303891
0.304794
0.305197
0.305545
0.305956
0.306569
0.30711
0.306954
0.306576
0.305668
0.304288
0.302642
0.301117
0.300249
0.300412
0.301315
0.302772
0.304397
0.305336
0.304977
0.303837
0.30217
0.300262
0.29907
0.299971
0.301704
0.30351
0.303154
0.302074
0.300956
0.299281
0.300071
0.301327
0.325503
0.324918
0.324052
0.323786
0.323832
0.324348
0.325663
0.326255
0.326103
0.325998
0.326002
0.326088
0.3264
0.326429
0.326384
0.326643
0.327927
0.328759
0.328803
0.328346
0.327708
0.327635
0.32781
0.328348
0.328666
0.328563
0.328463
0.328448
0.328187
0.327383
0.326427
0.325869
0.325259
0.323852
0.322849
0.322769
0.322672
0.32232
0.322126
0.322401
0.3231
0.323897
0.324241
0.323967
0.323127
0.32224
0.321524
0.320817
0.31986
0.31842
0.317681
0.317303
0.316952
0.316787
0.316085
0.314765
0.312995
0.312302
0.312392
0.313166
0.314827
0.315548
0.315383
0.314685
0.314384
0.314688
0.315819
0.31729
0.317862
0.317745
0.317345
0.316606
0.315509
0.313926
0.312618
0.311537
0.310652
0.309432
0.309494
0.310418
0.311879
0.313349
0.314032
0.313649
0.312633
0.310881
0.308802
0.307152
0.305291
0.306336
0.30838
0.309917
0.309618
0.30813
0.306307
0.302898
0.303398
0.305401
0.307075
0.30609
0.348471
0.348882
0.349816
0.350201
0.349678
0.346331
0.344154
0.344095
0.34391
0.34415
0.345555
0.345793
0.345339
0.344482
0.342756
0.341294
0.341061
0.341405
0.342525
0.342837
0.342579
0.342451
0.342594
0.34326
0.344188
0.344486
0.344492
0.34413
0.343747
0.34413
0.344381
0.343748
0.341751
0.340852
0.340898
0.341029
0.340837
0.339836
0.33798
0.336231
0.335825
0.336001
0.336018
0.335574
0.334905
0.334892
0.33511
0.335581
0.336339
0.337259
0.337538
0.337336
0.337431
0.337921
0.337962
0.337206
0.335909
0.335677
0.335947
0.337009
0.338134
0.338341
0.338201
0.33788
0.337264
0.336236
0.335144
0.334115
0.333106
0.332017
0.330659
0.32917
0.327779
0.326295
0.325074
0.325125
0.325695
0.326589
0.327295
0.32764
0.327005
0.326114
0.324416
0.322134
0.319981
0.316885
0.317011
0.317992
0.320152
0.321486
0.321213
0.319451
0.317102
0.313095
0.313171
0.314946
0.316764
0.316265
0.314694
0.311447
0.380573
0.38064
0.380744
0.38098
0.380975
0.379981
0.378681
0.37849
0.378716
0.37979
0.38001
0.379351
0.378095
0.377142
0.376626
0.376717
0.376951
0.376567
0.375431
0.374865
0.374521
0.373997
0.373694
0.373795
0.374059
0.374018
0.374028
0.374474
0.375147
0.375151
0.374234
0.373516
0.373414
0.373493
0.373959
0.374519
0.374598
0.37421
0.373132
0.372175
0.372009
0.372195
0.37253
0.372344
0.37107
0.370446
0.370166
0.369411
0.368946
0.368454
0.367412
0.366481
0.366157
0.365925
0.365578
0.364808
0.363442
0.36199
0.360737
0.359545
0.35845
0.357176
0.355685
0.354013
0.352533
0.351974
0.351255
0.349971
0.347794
0.346194
0.346285
0.346724
0.346938
0.347297
0.347862
0.347885
0.347628
0.346516
0.344973
0.342934
0.34071
0.338554
0.337029
0.335722
0.335772
0.336407
0.337404
0.33705
0.336116
0.333718
0.330856
0.328334
0.326598
0.32756
0.32894
0.328767
0.326469
0.323552
0.320488
0.321203
0.409829
0.409062
0.409002
0.409249
0.409972
0.410068
0.409644
0.408796
0.408714
0.408564
0.407689
0.406885
0.406886
0.407219
0.407222
0.407235
0.407431
0.407425
0.407082
0.406338
0.406202
0.406368
0.406344
0.406383
0.406494
0.406225
0.405404
0.405224
0.405365
0.405307
0.404591
0.402541
0.400678
0.400106
0.399621
0.398519
0.397023
0.396713
0.396848
0.396693
0.396041
0.396048
0.396109
0.395825
0.395151
0.394347
0.393407
0.392121
0.391262
0.390706
0.389571
0.387126
0.384778
0.384449
0.384541
0.384299
0.384022
0.383874
0.38344
0.382635
0.381556
0.379966
0.37838
0.378147
0.378415
0.379094
0.379282
0.378843
0.377691
0.376726
0.376606
0.376262
0.37503
0.373173
0.371616
0.369997
0.368162
0.366173
0.363876
0.361373
0.36044
0.359066
0.35889
0.358826
0.358402
0.357419
0.355233
0.35295
0.349921
0.347601
0.345503
0.345898
0.346434
0.346067
0.344582
0.341968
0.338621
0.337327
0.337811
0.337196
0.446868
0.446478
0.44623
0.446025
0.445831
0.445804
0.445837
0.445774
0.445291
0.445088
0.445109
0.444858
0.443828
0.443565
0.443547
0.443076
0.442652
0.44243
0.442175
0.441473
0.440453
0.439968
0.439717
0.439372
0.438891
0.438442
0.437968
0.437363
0.437155
0.437312
0.437589
0.437441
0.436775
0.436427
0.436326
0.435995
0.435043
0.433966
0.43332
0.432519
0.431611
0.430904
0.43019
0.429439
0.428733
0.427672
0.426344
0.42592
0.426309
0.426927
0.426741
0.42559
0.423718
0.4216
0.420408
0.420144
0.419812
0.418971
0.417851
0.41689
0.415947
0.414574
0.4124
0.410626
0.409548
0.408607
0.407317
0.405105
0.402401
0.400036
0.398255
0.396746
0.39457
0.391531
0.389208
0.388038
0.386542
0.385513
0.384612
0.383386
0.383149
0.382707
0.381559
0.379315
0.377071
0.374489
0.371903
0.369857
0.368095
0.367308
0.366676
0.365655
0.363691
0.361151
0.358119
0.354302
0.354417
0.353929
0.352445
0.349441
0.484751
0.484788
0.484662
0.483757
0.483034
0.483058
0.483274
0.483243
0.482958
0.482191
0.481844
0.481887
0.48176
0.480939
0.480559
0.480401
0.47998
0.479469
0.479438
0.479535
0.479426
0.478783
0.47774
0.477129
0.4769
0.476525
0.475934
0.475143
0.47375
0.473055
0.473018
0.472896
0.472328
0.47138
0.470546
0.469818
0.469058
0.46824
0.467016
0.46529
0.464882
0.465081
0.464972
0.464113
0.462833
0.461574
0.460054
0.458602
0.457162
0.455557
0.454731
0.454161
0.45322
0.451542
0.450017
0.448789
0.44755
0.445645
0.44285
0.441066
0.440008
0.439008
0.437834
0.436343
0.43438
0.431835
0.429367
0.427972
0.427291
0.426242
0.424112
0.422818
0.422173
0.420843
0.419109
0.418534
0.417871
0.41609
0.41405
0.41207
0.409725
0.407415
0.404368
0.401539
0.398452
0.3956
0.393382
0.391764
0.390614
0.388772
0.386728
0.384105
0.381499
0.378773
0.376481
0.374772
0.373357
0.371618
0.369421
0.365742
0.526405
0.526304
0.526302
0.52624