/*--------------------------------*- C++ -*----------------------------------*\
  =========                 |
  \\      /  F ield         | OpenFOAM: The Open Source CFD Toolbox
   \\    /   O peration     | Website:  https://openfoam.org
    \\  /    A nd           | Version:  7
     \\/     M anipulation  |
\*---------------------------------------------------------------------------*/
FoamFile
{
    version     2.0;
    format      ascii;
    class       volVectorField;
    location    "7";
    object      U;
}
// * * * * * * * * * * * * * * * * * * * * * * * * * * * * * * * * * * * * * //

dimensions      [0 1 -1 0 0 0 0];

internalField   nonuniform List<vector> 
90000
(
(4.09713 -0.73272 0)
(4.08327 -0.68253 0)
(4.06939 -0.624805 0)
(4.05918 -0.579263 0)
(4.04943 -0.528486 0)
(4.04377 -0.501257 0)
(4.03392 -0.441061 0)
(4.03099 -0.422775 0)
(4.02364 -0.372227 0)
(4.02158 -0.355608 0)
(4.01449 -0.307798 0)
(4.0131 -0.292991 0)
(4.00725 -0.250962 0)
(4.00634 -0.237317 0)
(4.001 -0.20085 0)
(3.99919 -0.183782 0)
(3.99648 -0.162108 0)
(3.99233 -0.130799 0)
(3.9939 -0.129428 0)
(3.9876 -0.0906652 0)
(3.98886 -0.093563 0)
(3.98349 -0.0641158 0)
(3.98343 -0.0634355 0)
(3.97987 -0.0438073 0)
(3.97894 -0.039082 0)
(3.97793 -0.0314567 0)
(3.97616 -0.0177371 0)
(3.97769 -0.0219514 0)
(3.97531 -0.00772278 0)
(3.97587 -0.00978545 0)
(3.97461 -0.00159755 0)
(3.97548 -0.00181981 0)
(3.97446 0.00305924 0)
(3.97505 0.00653579 0)
(3.97595 0.011012 0)
(3.97576 0.0129685 0)
(3.97709 0.0160822 0)
(3.97802 0.0195926 0)
(3.97791 0.0208592 0)
(3.97916 0.0241986 0)
(3.97986 0.0251971 0)
(3.98042 0.0259835 0)
(3.98098 0.0265271 0)
(3.98167 0.0253302 0)
(3.98082 0.0242263 0)
(3.97848 0.0222368 0)
(3.97563 0.0182956 0)
(3.97399 0.0158623 0)
(3.97207 0.011137 0)
(3.97179 0.0079447 0)
(3.97175 0.00423338 0)
(3.97188 0.00345293 0)
(3.97114 0.000958494 0)
(3.97148 0.00104917 0)
(3.97219 0.00211825 0)
(3.97316 0.00515993 0)
(3.97452 0.0111831 0)
(3.97481 0.0123481 0)
(3.97534 0.0156357 0)
(3.97498 0.0158831 0)
(3.9748 0.0142212 0)
(3.9744 0.0109497 0)
(3.97425 0.00722467 0)
(3.97269 0.00369993 0)
(3.97225 0.00264467 0)
(3.97234 0.00356369 0)
(3.97328 0.00832619 0)
(3.97342 0.0105949 0)
(3.9742 0.0156071 0)
(3.97414 0.0159011 0)
(3.97343 0.0130786 0)
(3.97289 0.00912619 0)
(3.97169 0.00501884 0)
(3.97137 0.00576826 0)
(3.97183 0.00740268 0)
(3.97212 0.00959335 0)
(3.97243 0.0131911 0)
(3.97235 0.0129927 0)
(3.97184 0.00956595 0)
(3.97114 0.00801392 0)
(3.97168 0.00692028 0)
(3.97177 0.00834534 0)
(3.97276 0.0109548 0)
(3.9724 0.0109903 0)
(3.97163 0.0104535 0)
(3.97127 0.00860384 0)
(3.97171 0.00700235 0)
(3.97201 0.00828352 0)
(3.97234 0.0100979 0)
(3.9724 0.0101811 0)
(3.97197 0.00896289 0)
(3.97193 0.00880866 0)
(3.97175 0.00971619 0)
(3.97177 0.00974003 0)
(3.97183 0.00966795 0)
(3.97187 0.00982372 0)
(3.97194 0.0101311 0)
(3.97192 0.0104814 0)
(3.97196 0.0106493 0)
(3.97189 0.0105411 0)
(4.10889 -0.776944 0)
(4.10884 -0.77688 0)
(4.10876 -0.77673 0)
(4.10864 -0.776476 0)
(4.10844 -0.775938 0)
(4.10812 -0.775154 0)
(4.10759 -0.773465 0)
(4.10668 -0.771373 0)
(4.10535 -0.768001 0)
(4.10369 -0.763553 0)
(4.10141 -0.756699 0)
(4.09879 -0.748578 0)
(4.09539 -0.736708 0)
(4.09161 -0.72302 0)
(4.08701 -0.706005 0)
(4.08176 -0.683481 0)
(4.07646 -0.663376 0)
(4.06942 -0.62865 0)
(4.06419 -0.606845 0)
(4.0556 -0.56082 0)
(4.05055 -0.536302 0)
(4.04124 -0.483827 0)
(4.03619 -0.455632 0)
(4.02676 -0.400267 0)
(4.02214 -0.370143 0)
(4.01349 -0.318779 0)
(4.00726 -0.27845 0)
(4.00446 -0.250144 0)
(3.99378 -0.186185 0)
(3.99697 -0.181908 0)
(3.98449 -0.123457 0)
(3.98168 -0.100999 0)
(3.98203 -0.0875254 0)
(3.97279 -0.0374935 0)
(3.97703 -0.0447656 0)
(3.96836 -0.00961544 0)
(3.9676 -0.00682491 0)
(3.96552 0.0051172 0)
(3.96383 0.0185773 0)
(3.96391 0.0164911 0)
(3.96228 0.0240144 0)
(3.96204 0.0280514 0)
(3.96067 0.0228013 0)
(3.96163 0.0254746 0)
(3.96167 0.0230455 0)
(3.96331 0.0178807 0)
(3.96464 0.0119854 0)
(3.96621 0.0114471 0)
(3.96704 0.00819571 0)
(3.9675 0.00361193 0)
(3.9682 0.00364841 0)
(3.96906 0.00288658 0)
(3.96922 0.00256095 0)
(3.96993 0.00411861 0)
(3.97136 0.0128272 0)
(3.96797 0.0156475 0)
(3.97029 0.0161264 0)
(3.97018 0.0159911 0)
(3.9695 0.014939 0)
(3.96831 0.0132143 0)
(3.96657 0.00779435 0)
(3.96756 0.00664299 0)
(3.96666 0.00212413 0)
(3.9673 0.00227319 0)
(3.96775 0.00384796 0)
(3.9688 0.0100979 0)
(3.96815 0.010796 0)
(3.9701 0.0141143 0)
(3.96995 0.014227 0)
(3.96912 0.012568 0)
(3.96791 0.00820279 0)
(3.9674 0.00472754 0)
(3.96797 0.00438374 0)
(3.96803 0.00644553 0)
(3.96854 0.00979481 0)
(3.96921 0.0109748 0)
(3.96919 0.0114792 0)
(3.96872 0.00989492 0)
(3.96848 0.00789753 0)
(3.96891 0.00628443 0)
(3.9688 0.00806702 0)
(3.96838 0.00910427 0)
(3.9694 0.0104253 0)
(3.96929 0.0101757 0)
(3.96899 0.00834915 0)
(3.96838 0.00802272 0)
(3.9685 0.00891106 0)
(3.96879 0.00937367 0)
(3.96878 0.0104567 0)
(3.96872 0.0103605 0)
(3.9679 0.0102896 0)
(3.96835 0.00936143 0)
(3.96842 0.00968286 0)
(3.9685 0.0100985 0)
(3.9686 0.0101658 0)
(3.96868 0.0101832 0)
(3.96889 0.0104205 0)
(3.96895 0.0106987 0)
(3.96904 0.010901 0)
(3.96901 0.010686 0)
(4.10602 -0.776579 0)
(4.10592 -0.776539 0)
(4.1058 -0.776566 0)
(4.10569 -0.776485 0)
(4.10554 -0.776586 0)
(4.10543 -0.776444 0)
(4.10521 -0.776562 0)
(4.10514 -0.776573 0)
(4.10503 -0.776428 0)
(4.10495 -0.776245 0)
(4.10488 -0.776214 0)
(4.10481 -0.776182 0)
(4.10472 -0.776057 0)
(4.10461 -0.77587 0)
(4.1045 -0.775728 0)
(4.10437 -0.775577 0)
(4.10421 -0.77537 0)
(4.10402 -0.775057 0)
(4.10379 -0.774531 0)
(4.10346 -0.773761 0)
(4.10305 -0.772242 0)
(4.1022 -0.770212 0)
(4.10105 -0.767043 0)
(4.09938 -0.761809 0)
(4.09725 -0.754228 0)
(4.09422 -0.742983 0)
(4.09034 -0.727043 0)
(4.08559 -0.706973 0)
(4.07917 -0.678602 0)
(4.07293 -0.646525 0)
(4.06452 -0.606414 0)
(4.05596 -0.558235 0)
(4.04864 -0.517571 0)
(4.03641 -0.443558 0)
(4.03384 -0.418566 0)
(4.01863 -0.327729 0)
(4.01581 -0.303939 0)
(4.00465 -0.240851 0)
(3.99539 -0.18364 0)
(3.99509 -0.169442 0)
(3.98288 -0.112003 0)
(3.97734 -0.0818367 0)
(3.9792 -0.0866058 0)
(3.96991 -0.0415817 0)
(3.96887 -0.0450013 0)
(3.9704 -0.0381577 0)
(3.96522 -0.0224817 0)
(3.96654 -0.0187739 0)
(3.96736 -0.0119715 0)
(3.96638 -0.00734872 0)
(3.96534 -0.00113282 0)
(3.96618 0.00500177 0)
(3.96506 0.0117023 0)
(3.96242 0.0159064 0)
(3.96155 0.0257962 0)
(3.9595 0.0249223 0)
(3.95711 0.0192792 0)
(3.95766 0.0132723 0)
(3.95748 0.00430838 0)
(3.9585 0.00124815 0)
(3.95754 -0.00424293 0)
(3.95773 -0.00370563 0)
(3.9589 -0.000342507 0)
(3.96173 0.0063136 0)
(3.9626 0.00973035 0)
(3.96413 0.0155195 0)
(3.96508 0.0182373 0)
(3.96496 0.0160406 0)
(3.96357 0.0101969 0)
(3.96288 0.00522635 0)
(3.96191 0.00023047 0)
(3.96229 0.00172176 0)
(3.96405 0.00580811 0)
(3.9636 0.00833239 0)
(3.96662 0.0132383 0)
(3.96658 0.01284 0)
(3.96592 0.0095406 0)
(3.9654 0.00538493 0)
(3.96469 0.00456363 0)
(3.96544 0.00625312 0)
(3.96536 0.00831807 0)
(3.96685 0.0116611 0)
(3.96672 0.0110559 0)
(3.96652 0.00873181 0)
(3.96658 0.00615041 0)
(3.96644 0.00691866 0)
(3.96624 0.00841401 0)
(3.96704 0.0105303 0)
(3.96698 0.0106773 0)
(3.96675 0.00965434 0)
(3.96619 0.00945894 0)
(3.96685 0.00934272 0)
(3.96713 0.00976884 0)
(3.96719 0.00987813 0)
(3.96729 0.0100067 0)
(3.9674 0.0102084 0)
(3.96766 0.010487 0)
(3.96781 0.0106663 0)
(3.96786 0.0107793 0)
(3.96781 0.0105319 0)
(4.1029 -0.776023 0)
(4.10284 -0.775962 0)
(4.10275 -0.775998 0)
(4.10269 -0.775934 0)
(4.1026 -0.775949 0)
(4.10252 -0.775945 0)
(4.10244 -0.775923 0)
(4.10237 -0.775843 0)
(4.10227 -0.775903 0)
(4.1022 -0.775853 0)
(4.10212 -0.775885 0)
(4.10205 -0.775839 0)
(4.10197 -0.775883 0)
(4.10193 -0.775803 0)
(4.10185 -0.775888 0)
(4.10181 -0.77585 0)
(4.10174 -0.775969 0)
(4.10172 -0.775866 0)
(4.10165 -0.775949 0)
(4.10161 -0.775867 0)
(4.10143 -0.775949 0)
(4.10143 -0.775823 0)
(4.10145 -0.775818 0)
(4.10145 -0.775691 0)
(4.10144 -0.775563 0)
(4.10145 -0.77548 0)
(4.10146 -0.775439 0)
(4.10148 -0.775346 0)
(4.10148 -0.775251 0)
(4.10144 -0.774846 0)
(4.10134 -0.774328 0)
(4.1011 -0.773099 0)
(4.10061 -0.770925 0)
(4.0995 -0.766141 0)
(4.09783 -0.758304 0)
(4.09434 -0.743957 0)
(4.08996 -0.721866 0)
(4.08297 -0.689156 0)
(4.07416 -0.646285 0)
(4.06392 -0.58633 0)
(4.0531 -0.531529 0)
(4.03732 -0.43542 0)
(4.03394 -0.397069 0)
(4.01086 -0.274662 0)
(4.00824 -0.23764 0)
(4.00027 -0.173834 0)
(3.98288 -0.0877706 0)
(3.97952 -0.0532913 0)
(3.99249 -0.0507741 0)
(3.96499 0.0094611 0)
(3.96168 0.0345024 0)
(3.96577 0.0410972 0)
(3.95861 0.0557791 0)
(3.95352 0.0511206 0)
(3.95183 0.0328667 0)
(3.95382 0.0216796 0)
(3.95313 0.0124771 0)
(3.95406 0.00835017 0)
(3.95289 0.00247906 0)
(3.95349 0.00208174 0)
(3.95457 0.00245731 0)
(3.95543 0.00454185 0)
(3.95985 0.0135991 0)
(3.95992 0.0166907 0)
(3.96128 0.021263 0)
(3.96096 0.0191138 0)
(3.9604 0.0155259 0)
(3.9583 0.00688959 0)
(3.9568 0.00450199 0)
(3.95876 0.000466274 0)
(3.95953 0.00236534 0)
(3.96197 0.00763482 0)
(3.9624 0.0110631 0)
(3.96381 0.0150883 0)
(3.96386 0.0140648 0)
(3.96266 0.00974566 0)
(3.96188 0.00503015 0)
(3.96195 0.00452232 0)
(3.96248 0.00655176 0)
(3.96301 0.00934694 0)
(3.96434 0.0128557 0)
(3.96451 0.0121141 0)
(3.9639 0.00899463 0)
(3.96363 0.00672289 0)
(3.9639 0.00706037 0)
(3.96434 0.00851934 0)
(3.96512 0.0111576 0)
(3.96564 0.011751 0)
(3.96538 0.0105298 0)
(3.9649 0.00844149 0)
(3.96503 0.00880915 0)
(3.9654 0.00957119 0)
(3.96583 0.0102172 0)
(3.96584 0.0100601 0)
(3.966 0.0101501 0)
(3.96621 0.0104047 0)
(3.96658 0.0107708 0)
(3.96667 0.010826 0)
(3.96674 0.0106863 0)
(3.96682 0.010158 0)
(4.10115 -0.77622 0)
(4.10112 -0.776282 0)
(4.10112 -0.776287 0)
(4.10112 -0.776266 0)
(4.10112 -0.77628 0)
(4.10111 -0.776345 0)
(4.10111 -0.77632 0)
(4.1011 -0.77633 0)
(4.1011 -0.776308 0)
(4.1011 -0.776346 0)
(4.10111 -0.776338 0)
(4.10112 -0.77641 0)
(4.10115 -0.776414 0)
(4.10118 -0.776429 0)
(4.10123 -0.77637 0)
(4.10128 -0.776401 0)
(4.10133 -0.776481 0)
(4.10138 -0.776555 0)
(4.10142 -0.776457 0)
(4.10146 -0.776403 0)
(4.1015 -0.776342 0)
(4.10154 -0.776348 0)
(4.10155 -0.776439 0)
(4.10159 -0.776494 0)
(4.10165 -0.77651 0)
(4.10171 -0.776548 0)
(4.10182 -0.776543 0)
(4.10189 -0.776631 0)
(4.10193 -0.776716 0)
(4.10199 -0.776754 0)
(4.10205 -0.776696 0)
(4.10211 -0.776629 0)
(4.10225 -0.776552 0)
(4.10234 -0.776556 0)
(4.10238 -0.776545 0)
(4.10243 -0.776515 0)
(4.10245 -0.776459 0)
(4.10245 -0.776298 0)
(4.10238 -0.775915 0)
(4.1022 -0.774858 0)
(4.10169 -0.772484 0)
(4.10036 -0.766503 0)
(4.09812 -0.755573 0)
(4.09242 -0.731024 0)
(4.08617 -0.69789 0)
(4.07491 -0.632377 0)
(4.0653 -0.58637 0)
(4.04888 -0.473453 0)
(4.04167 -0.413204 0)
(4.02395 -0.31013 0)
(4.02272 -0.272271 0)
(4.00645 -0.164628 0)
(4.00591 -0.146726 0)
(3.99277 -0.10631 0)
(4.0006 -0.0861817 0)
(3.98476 -0.043157 0)
(3.98372 -0.0358946 0)
(3.97738 -0.0191119 0)
(3.97473 -0.00529229 0)
(3.97155 0.00423921 0)
(3.96881 0.0152391 0)
(3.96035 0.0219701 0)
(3.96291 0.0294588 0)
(3.96119 0.0263263 0)
(3.95977 0.0195945 0)
(3.95698 0.00738688 0)
(3.95692 0.00229942 0)
(3.95641 -0.00702339 0)
(3.9571 -0.00592461 0)
(3.95928 0.000232662 0)
(3.96228 0.00873269 0)
(3.96259 0.0135218 0)
(3.96348 0.0168501 0)
(3.96282 0.0140781 0)
(3.96084 0.00819837 0)
(3.95938 -9.03195e-06 0)
(3.95956 3.52548e-05 0)
(3.96098 0.00493426 0)
(3.96209 0.00900017 0)
(3.9635 0.0142249 0)
(3.96329 0.0129058 0)
(3.96208 0.00915416 0)
(3.9614 0.00437444 0)
(3.9617 0.00504418 0)
(3.96262 0.00873818 0)
(3.96347 0.0109741 0)
(3.96408 0.0125662 0)
(3.96335 0.0108239 0)
(3.96283 0.00816281 0)
(3.96301 0.00841977 0)
(3.96349 0.00971033 0)
(3.96365 0.0105091 0)
(3.96362 0.0101152 0)
(3.96368 0.0096049 0)
(3.96392 0.0099177 0)
(3.96423 0.0104822 0)
(3.96461 0.010816 0)
(3.96465 0.010621 0)
(3.96478 0.0104346 0)
(3.965 0.0102393 0)
(4.10165 -0.775081 0)
(4.10168 -0.77509 0)
(4.10172 -0.775116 0)
(4.10177 -0.77509 0)
(4.10182 -0.775096 0)
(4.10186 -0.775112 0)
(4.10189 -0.775104 0)
(4.10193 -0.775106 0)
(4.10197 -0.775139 0)
(4.10203 -0.775173 0)
(4.10208 -0.775193 0)
(4.10213 -0.77523 0)
(4.10218 -0.775251 0)
(4.10223 -0.775231 0)
(4.10228 -0.775227 0)
(4.1023 -0.775249 0)
(4.1023 -0.775259 0)
(4.10231 -0.775252 0)
(4.10233 -0.775219 0)
(4.10237 -0.775177 0)
(4.10243 -0.775206 0)
(4.10251 -0.775246 0)
(4.10259 -0.775272 0)
(4.10266 -0.775294 0)
(4.1027 -0.775312 0)
(4.10273 -0.775349 0)
(4.10278 -0.77539 0)
(4.10287 -0.775453 0)
(4.10294 -0.775525 0)
(4.10301 -0.775572 0)
(4.10307 -0.775575 0)
(4.10311 -0.775557 0)
(4.10309 -0.775574 0)
(4.10308 -0.775611 0)
(4.10311 -0.775643 0)
(4.10313 -0.775643 0)
(4.10313 -0.775651 0)
(4.10311 -0.775651 0)
(4.1031 -0.775633 0)
(4.10318 -0.77561 0)
(4.10332 -0.775578 0)
(4.10357 -0.775558 0)
(4.10378 -0.775582 0)
(4.10392 -0.775544 0)
(4.10407 -0.775437 0)
(4.10415 -0.775096 0)
(4.10397 -0.773636 0)
(4.10292 -0.768669 0)
(4.10069 -0.758348 0)
(4.09465 -0.727479 0)
(4.08725 -0.688452 0)
(4.07075 -0.592949 0)
(4.06514 -0.535165 0)
(4.03782 -0.366535 0)
(4.04346 -0.322076 0)
(4.01391 -0.152987 0)
(4.02506 -0.141369 0)
(3.99862 -0.0277816 0)
(3.99925 -0.0178762 0)
(3.98412 0.0331338 0)
(3.97521 0.0517313 0)
(3.97354 0.0569818 0)
(3.96892 0.0380849 0)
(3.96447 0.0182884 0)
(3.96744 0.0150952 0)
(3.95982 0.000302711 0)
(3.9598 -0.000497277 0)
(3.96038 -0.00132886 0)
(3.96253 0.00432334 0)
(3.9659 0.0157743 0)
(3.96561 0.0207725 0)
(3.96473 0.0188939 0)
(3.96293 0.0142624 0)
(3.96091 0.00714569 0)
(3.95976 0.00192075 0)
(3.9599 0.00207286 0)
(3.9609 0.00577322 0)
(3.96279 0.0113392 0)
(3.96367 0.0152877 0)
(3.96313 0.0135427 0)
(3.96184 0.00937215 0)
(3.96091 0.00513127 0)
(3.96105 0.00585823 0)
(3.96156 0.00867651 0)
(3.96261 0.0113462 0)
(3.96323 0.0131211 0)
(3.96251 0.0112478 0)
(3.96202 0.00837053 0)
(3.96223 0.00866525 0)
(3.96289 0.00938429 0)
(3.96316 0.0102805 0)
(3.96297 0.00993318 0)
(3.9628 0.0096352 0)
(3.96288 0.0097946 0)
(3.96314 0.0104649 0)
(3.96342 0.0109056 0)
(3.96355 0.0108235 0)
(3.96366 0.0105483 0)
(3.96376 0.0104793 0)
(3.96384 0.00999992 0)
(4.1025 -0.775779 0)
(4.10251 -0.775798 0)
(4.10253 -0.77582 0)
(4.10254 -0.775801 0)
(4.10256 -0.775772 0)
(4.10258 -0.77577 0)
(4.10261 -0.775756 0)
(4.10264 -0.77573 0)
(4.10266 -0.775736 0)
(4.10267 -0.775765 0)
(4.10269 -0.775802 0)
(4.10272 -0.775825 0)
(4.10274 -0.775827 0)
(4.10275 -0.775827 0)
(4.10277 -0.775825 0)
(4.10281 -0.775841 0)
(4.10285 -0.775869 0)
(4.10291 -0.775884 0)
(4.10296 -0.775919 0)
(4.103 -0.775986 0)
(4.10305 -0.776029 0)
(4.10311 -0.776046 0)
(4.10315 -0.776069 0)
(4.1032 -0.776096 0)
(4.10327 -0.776109 0)
(4.10335 -0.776135 0)
(4.10344 -0.776174 0)
(4.10352 -0.776193 0)
(4.10358 -0.776197 0)
(4.10363 -0.776215 0)
(4.10367 -0.776249 0)
(4.10369 -0.776261 0)
(4.10381 -0.776288 0)
(4.10393 -0.776306 0)
(4.10399 -0.776274 0)
(4.10406 -0.776246 0)
(4.10413 -0.776206 0)
(4.10415 -0.776193 0)
(4.10418 -0.776191 0)
(4.10427 -0.776188 0)
(4.10437 -0.776187 0)
(4.10456 -0.776154 0)
(4.1047 -0.776149 0)
(4.10477 -0.776147 0)
(4.10485 -0.776134 0)
(4.10484 -0.776232 0)
(4.10483 -0.776322 0)
(4.10482 -0.776288 0)
(4.10484 -0.776166 0)
(4.10489 -0.77609 0)
(4.10489 -0.775826 0)
(4.10468 -0.774876 0)
(4.10403 -0.771594 0)
(4.10109 -0.759709 0)
(4.09608 -0.733413 0)
(4.08379 -0.667152 0)
(4.07538 -0.59953 0)
(4.05542 -0.460212 0)
(4.05163 -0.398657 0)
(4.02831 -0.240638 0)
(4.02887 -0.214125 0)
(4.01035 -0.112063 0)
(4.02197 -0.106398 0)
(3.9949 -0.0522713 0)
(3.99864 -0.040603 0)
(3.98142 -0.0221286 0)
(3.98144 -0.00507201 0)
(3.97631 0.00853323 0)
(3.96761 0.0250961 0)
(3.96712 0.025255 0)
(3.96433 0.0216291 0)
(3.96057 0.00811586 0)
(3.96022 0.000970226 0)
(3.95974 -0.00778606 0)
(3.96044 -0.0050062 0)
(3.9627 0.00459442 0)
(3.96468 0.0127309 0)
(3.96466 0.0168625 0)
(3.964 0.0149337 0)
(3.96188 0.00858968 0)
(3.96093 0.000909013 0)
(3.96124 0.00271225 0)
(3.96221 0.00745631 0)
(3.96335 0.0114722 0)
(3.96399 0.0135506 0)
(3.96335 0.0109675 0)
(3.96234 0.0077596 0)
(3.96338 0.00757907 0)
(3.96402 0.00837707 0)
(3.96462 0.0103873 0)
(3.96421 0.0101036 0)
(3.96392 0.0094216 0)
(3.9639 0.00944652 0)
(3.96424 0.0101761 0)
(3.9644 0.0106252 0)
(3.96452 0.0104896 0)
(3.96454 0.0103919 0)
(3.96461 0.0104071 0)
(3.96454 0.0101707 0)
(3.96438 0.00964229 0)
(4.10317 -0.776236 0)
(4.10318 -0.776251 0)
(4.1032 -0.776255 0)
(4.10322 -0.776248 0)
(4.10324 -0.776249 0)
(4.10324 -0.776276 0)
(4.10327 -0.776296 0)
(4.1033 -0.776278 0)
(4.10331 -0.776249 0)
(4.10333 -0.776235 0)
(4.10333 -0.776234 0)
(4.10332 -0.776251 0)
(4.10333 -0.776267 0)
(4.10335 -0.776278 0)
(4.10339 -0.776287 0)
(4.10343 -0.776291 0)
(4.10346 -0.776317 0)
(4.10348 -0.776356 0)
(4.10352 -0.776377 0)
(4.10357 -0.776392 0)
(4.10363 -0.776431 0)
(4.10369 -0.776491 0)
(4.10377 -0.77653 0)
(4.10389 -0.776549 0)
(4.10402 -0.776571 0)
(4.10408 -0.776577 0)
(4.10409 -0.776588 0)
(4.10415 -0.776607 0)
(4.10422 -0.77661 0)
(4.10435 -0.776619 0)
(4.10449 -0.776648 0)
(4.10452 -0.776661 0)
(4.1045 -0.776661 0)
(4.10445 -0.77665 0)
(4.10443 -0.776617 0)
(4.10442 -0.776591 0)
(4.10441 -0.776576 0)
(4.10441 -0.776554 0)
(4.10441 -0.776524 0)
(4.10442 -0.776521 0)
(4.10444 -0.776543 0)
(4.10447 -0.776549 0)
(4.10458 -0.776516 0)
(4.10465 -0.776505 0)
(4.10467 -0.77651 0)
(4.1047 -0.77652 0)
(4.1047 -0.776542 0)
(4.1047 -0.7765 0)
(4.10477 -0.776392 0)
(4.1049 -0.776327 0)
(4.10498 -0.776336 0)
(4.10501 -0.776345 0)
(4.10501 -0.776364 0)
(4.10493 -0.776459 0)
(4.10476 -0.776557 0)
(4.10454 -0.776276 0)
(4.10414 -0.774776 0)
(4.10243 -0.767385 0)
(4.09895 -0.747953 0)
(4.08755 -0.686371 0)
(4.07852 -0.615225 0)
(4.04832 -0.436049 0)
(4.05516 -0.360021 0)
(4.01716 -0.148334 0)
(4.03501 -0.127264 0)
(3.99913 0.00744534 0)
(4.00038 0.0210795 0)
(3.98746 0.0780913 0)
(3.97486 0.0690296 0)
(3.96471 0.0315173 0)
(3.96488 0.0156156 0)
(3.96183 -0.000635115 0)
(3.96206 -0.00168038 0)
(3.96315 -0.00226281 0)
(3.96732 0.00816647 0)
(3.96938 0.0239309 0)
(3.96879 0.0226103 0)
(3.96669 0.0184778 0)
(3.96375 0.00848828 0)
(3.96272 0.00310904 0)
(3.96287 0.00263791 0)
(3.96414 0.00700764 0)
(3.96633 0.0154879 0)
(3.96662 0.0147639 0)
(3.96602 0.0125672 0)
(3.96488 0.00976364 0)
(3.96513 0.0063625 0)
(3.96547 0.00760885 0)
(3.96596 0.0100778 0)
(3.9661 0.0109582 0)
(3.96588 0.0100199 0)
(3.96572 0.00963146 0)
(3.96609 0.00990235 0)
(3.96673 0.0102578 0)
(3.9666 0.0109348 0)
(3.96656 0.0107346 0)
(3.96639 0.0104295 0)
(3.96635 0.0103042 0)
(3.96621 0.010304 0)
(3.96583 0.00961682 0)
(4.10401 -0.776438 0)
(4.10403 -0.776436 0)
(4.10404 -0.776432 0)
(4.10404 -0.776423 0)
(4.10406 -0.776414 0)
(4.10406 -0.776427 0)
(4.10406 -0.776455 0)
(4.10407 -0.776455 0)
(4.10408 -0.776447 0)
(4.1041 -0.776431 0)
(4.10412 -0.776432 0)
(4.10412 -0.776498 0)
(4.10415 -0.776554 0)
(4.10418 -0.776571 0)
(4.1042 -0.776589 0)
(4.10423 -0.776604 0)
(4.10426 -0.776616 0)
(4.1043 -0.776648 0)
(4.10433 -0.776685 0)
(4.10437 -0.776694 0)
(4.10442 -0.776689 0)
(4.10446 -0.776713 0)
(4.10451 -0.776778 0)
(4.10456 -0.776839 0)
(4.10461 -0.77685 0)
(4.10467 -0.77685 0)
(4.10476 -0.776835 0)
(4.10484 -0.776825 0)
(4.10487 -0.77683 0)
(4.1049 -0.776835 0)
(4.10494 -0.776841 0)
(4.10496 -0.776857 0)
(4.10502 -0.776899 0)
(4.10508 -0.776889 0)
(4.10499 -0.776812 0)
(4.10497 -0.776798 0)
(4.10496 -0.776786 0)
(4.10494 -0.776762 0)
(4.10493 -0.776711 0)
(4.10491 -0.776677 0)
(4.10487 -0.776674 0)
(4.10483 -0.776663 0)
(4.10483 -0.776639 0)
(4.10482 -0.776624 0)
(4.10476 -0.77662 0)
(4.10474 -0.776631 0)
(4.1047 -0.776686 0)
(4.10469 -0.77671 0)
(4.10473 -0.776606 0)
(4.10484 -0.776487 0)
(4.10495 -0.77642 0)
(4.105 -0.776392 0)
(4.105 -0.77637 0)
(4.10492 -0.776391 0)
(4.10468 -0.77661 0)
(4.10449 -0.7769 0)
(4.10446 -0.777015 0)
(4.10441 -0.777042 0)
(4.10459 -0.776731 0)
(4.10463 -0.776184 0)
(4.10447 -0.774851 0)
(4.10259 -0.767804 0)
(4.09814 -0.743601 0)
(4.08525 -0.677578 0)
(4.07305 -0.575552 0)
(4.05332 -0.425569 0)
(4.04531 -0.327174 0)
(4.02857 -0.181085 0)
(4.02858 -0.154085 0)
(4.00802 -0.0886366 0)
(3.99874 -0.0499621 0)
(3.9879 -0.02804 0)
(3.98681 -0.00806776 0)
(3.97777 0.00927321 0)
(3.97109 0.0256033 0)
(3.96799 0.0235353 0)
(3.96455 0.0115405 0)
(3.96375 0.00217972 0)
(3.96332 -0.00773248 0)
(3.96441 -0.00496811 0)
(3.96671 0.00488204 0)
(3.96943 0.0135036 0)
(3.96929 0.0145075 0)
(3.96943 0.0132117 0)
(3.96786 0.00615796 0)
(3.96705 0.00619669 0)
(3.96757 0.00712267 0)
(3.96797 0.0095305 0)
(3.96791 0.0115444 0)
(3.96773 0.0106691 0)
(3.96745 0.0088612 0)
(3.96756 0.00882182 0)
(3.968 0.0101577 0)
(3.96811 0.0109211 0)
(3.96809 0.0106415 0)
(3.96778 0.0103519 0)
(3.96765 0.0103793 0)
(3.96753 0.0103128 0)
(3.96735 0.00973549 0)
(3.96687 0.00916592 0)
(4.10467 -0.7764 0)
(4.10466 -0.7764 0)
(4.10466 -0.776403 0)
(4.10465 -0.776397 0)
(4.10464 -0.776385 0)
(4.10463 -0.776383 0)
(4.10463 -0.776384 0)
(4.10463 -0.776379 0)
(4.10462 -0.776358 0)
(4.10459 -0.776371 0)
(4.10458 -0.776394 0)
(4.10459 -0.776405 0)
(4.10458 -0.776417 0)
(4.10457 -0.776431 0)
(4.10457 -0.776447 0)
(4.10457 -0.776469 0)
(4.10456 -0.776482 0)
(4.10456 -0.776461 0)
(4.10455 -0.77645 0)
(4.10453 -0.7765 0)
(4.10454 -0.776549 0)
(4.10456 -0.776556 0)
(4.1046 -0.77654 0)
(4.10464 -0.776538 0)
(4.10469 -0.776549 0)
(4.10473 -0.776555 0)
(4.10474 -0.776558 0)
(4.10479 -0.776572 0)
(4.10483 -0.776599 0)
(4.10487 -0.776614 0)
(4.10491 -0.776624 0)
(4.10494 -0.77669 0)
(4.10495 -0.776815 0)
(4.10496 -0.776827 0)
(4.10496 -0.776704 0)
(4.10497 -0.776602 0)
(4.10496 -0.776557 0)
(4.10494 -0.776519 0)
(4.10494 -0.776458 0)
(4.10493 -0.776381 0)
(4.1049 -0.776329 0)
(4.10484 -0.776338 0)
(4.10478 -0.776381 0)
(4.10468 -0.776419 0)
(4.10458 -0.776443 0)
(4.10455 -0.776463 0)
(4.10444 -0.776576 0)
(4.10441 -0.776693 0)
(4.10442 -0.776654 0)
(4.10445 -0.776457 0)
(4.10457 -0.776295 0)
(4.10467 -0.776218 0)
(4.10474 -0.776175 0)
(4.10478 -0.776182 0)
(4.1047 -0.776319 0)
(4.1045 -0.776643 0)
(4.10435 -0.777041 0)
(4.10434 -0.777141 0)
(4.10437 -0.777138 0)
(4.10465 -0.7767 0)
(4.10479 -0.776239 0)
(4.10469 -0.776195 0)
(4.10452 -0.776363 0)
(4.10433 -0.776134 0)
(4.10382 -0.773874 0)
(4.10108 -0.760334 0)
(4.09331 -0.714526 0)
(4.07577 -0.614395 0)
(4.05613 -0.442249 0)
(4.03679 -0.272062 0)
(4.02355 -0.131009 0)
(4.00412 -0.0226389 0)
(4.00517 0.0267706 0)
(3.99248 0.0867063 0)
(3.97509 0.064321 0)
(3.97295 0.0270964 0)
(3.96803 0.00367302 0)
(3.96609 -0.00347835 0)
(3.96719 -0.003593 0)
(3.97293 0.00692571 0)
(3.97579 0.0225811 0)
(3.97508 0.0212825 0)
(3.97246 0.0148761 0)
(3.97291 0.0107036 0)
(3.96904 0.00415546 0)
(3.96943 0.00543787 0)
(3.97085 0.0113585 0)
(3.97062 0.0142317 0)
(3.97004 0.0125113 0)
(3.96871 0.00911924 0)
(3.96852 0.00862848 0)
(3.96874 0.00940117 0)
(3.96893 0.011666 0)
(3.96855 0.011446 0)
(3.96827 0.0107104 0)
(3.96795 0.0102086 0)
(3.96795 0.0103173 0)
(3.96778 0.0102109 0)
(3.96759 0.00969154 0)
(3.96701 0.00900999 0)
(4.10495 -0.776315 0)
(4.10493 -0.776316 0)
(4.10492 -0.7763 0)
(4.10491 -0.77628 0)
(4.10487 -0.776263 0)
(4.10483 -0.77624 0)
(4.10482 -0.776228 0)
(4.1048 -0.776217 0)
(4.10475 -0.776227 0)
(4.10473 -0.776229 0)
(4.10472 -0.776231 0)
(4.10472 -0.776218 0)
(4.10471 -0.776193 0)
(4.10469 -0.77619 0)
(4.10468 -0.776239 0)
(4.10467 -0.77626 0)
(4.10466 -0.776259 0)
(4.10463 -0.776254 0)
(4.10462 -0.776265 0)
(4.10462 -0.776286 0)
(4.10461 -0.776293 0)
(4.10462 -0.776318 0)
(4.10463 -0.776343 0)
(4.10464 -0.776349 0)
(4.10466 -0.776343 0)
(4.10469 -0.776338 0)
(4.10471 -0.776334 0)
(4.10474 -0.776355 0)
(4.10477 -0.776364 0)
(4.10481 -0.77633 0)
(4.10485 -0.776304 0)
(4.10486 -0.776365 0)
(4.10486 -0.776495 0)
(4.10484 -0.776501 0)
(4.10482 -0.776389 0)
(4.10486 -0.776308 0)
(4.10486 -0.776281 0)
(4.10489 -0.776242 0)
(4.10493 -0.776175 0)
(4.10494 -0.776134 0)
(4.10493 -0.776139 0)
(4.10492 -0.776219 0)
(4.10488 -0.77631 0)
(4.1048 -0.776354 0)
(4.10466 -0.776366 0)
(4.10454 -0.776391 0)
(4.10444 -0.776419 0)
(4.10436 -0.776414 0)
(4.10436 -0.776383 0)
(4.10436 -0.776337 0)
(4.10444 -0.77623 0)
(4.10465 -0.77609 0)
(4.10473 -0.776028 0)
(4.10479 -0.775992 0)
(4.10477 -0.775986 0)
(4.10458 -0.776246 0)
(4.10437 -0.776787 0)
(4.10433 -0.776958 0)
(4.10439 -0.776953 0)
(4.10485 -0.776627 0)
(4.1049 -0.776259 0)
(4.10477 -0.776029 0)
(4.10456 -0.776015 0)
(4.10445 -0.776313 0)
(4.10449 -0.776569 0)
(4.10459 -0.776598 0)
(4.10464 -0.776482 0)
(4.10444 -0.775208 0)
(4.10248 -0.765631 0)
(4.09518 -0.729646 0)
(4.07756 -0.616258 0)
(4.06658 -0.509143 0)
(4.0367 -0.296046 0)
(4.04706 -0.227683 0)
(4.01652 -0.122632 0)
(4.02344 -0.0844662 0)
(4.00196 -0.0384123 0)
(3.98871 -0.0110636 0)
(3.98425 0.00641508 0)
(3.98067 0.0217005 0)
(3.97781 0.0202956 0)
(3.97199 0.0138855 0)
(3.96913 -0.00233258 0)
(3.96833 -0.00111903 0)
(3.96938 0.00219197 0)
(3.97107 0.00933674 0)
(3.9711 0.0130791 0)
(3.97033 0.0122871 0)
(3.96882 0.0085004 0)
(3.96798 0.00662961 0)
(3.96827 0.00835536 0)
(3.96869 0.0112237 0)
(3.96835 0.0118942 0)
(3.96805 0.0108188 0)
(3.96766 0.00974062 0)
(3.96771 0.00998196 0)
(3.96765 0.0103739 0)
(3.9675 0.00999802 0)
(3.96699 0.00885379 0)
(3.96691 0.00887787 0)
(4.10501 -0.776301 0)
(4.10499 -0.77628 0)
(4.10496 -0.776264 0)
(4.10495 -0.776247 0)
(4.10493 -0.77623 0)
(4.10489 -0.776203 0)
(4.10487 -0.776184 0)
(4.10486 -0.776164 0)
(4.10484 -0.776148 0)
(4.10482 -0.776131 0)
(4.1048 -0.776101 0)
(4.10479 -0.776059 0)
(4.10477 -0.776022 0)
(4.10474 -0.776002 0)
(4.10474 -0.776037 0)
(4.10473 -0.776091 0)
(4.10471 -0.77611 0)
(4.10469 -0.776093 0)
(4.10467 -0.776097 0)
(4.10466 -0.776133 0)
(4.10465 -0.776152 0)
(4.10464 -0.776159 0)
(4.10463 -0.776171 0)
(4.10463 -0.776187 0)
(4.10462 -0.7762 0)
(4.10462 -0.776194 0)
(4.10463 -0.776195 0)
(4.10463 -0.776204 0)
(4.10464 -0.776201 0)
(4.10465 -0.776175 0)
(4.10467 -0.77613 0)
(4.10465 -0.776165 0)
(4.10457 -0.776352 0)
(4.10454 -0.776463 0)
(4.10458 -0.776356 0)
(4.1047 -0.77619 0)
(4.10479 -0.776109 0)
(4.10482 -0.776095 0)
(4.10489 -0.776041 0)
(4.10493 -0.775972 0)
(4.10494 -0.775938 0)
(4.10497 -0.776019 0)
(4.10494 -0.776142 0)
(4.10491 -0.776255 0)
(4.10477 -0.7763 0)
(4.1046 -0.776327 0)
(4.10447 -0.7764 0)
(4.10434 -0.776435 0)
(4.10429 -0.776433 0)
(4.10425 -0.776411 0)
(4.10432 -0.77629 0)
(4.10459 -0.77601 0)
(4.10473 -0.775811 0)
(4.10478 -0.775742 0)
(4.10478 -0.775686 0)
(4.1046 -0.77594 0)
(4.10436 -0.776632 0)
(4.1043 -0.776859 0)
(4.10452 -0.776789 0)
(4.10478 -0.776637 0)
(4.10495 -0.776281 0)
(4.10488 -0.775989 0)
(4.10469 -0.775865 0)
(4.10459 -0.776163 0)
(4.10458 -0.776477 0)
(4.10459 -0.776515 0)
(4.10467 -0.776498 0)
(4.10482 -0.776564 0)
(4.10488 -0.776682 0)
(4.10485 -0.776535 0)
(4.10451 -0.775301 0)
(4.10292 -0.766674 0)
(4.09255 -0.716175 0)
(4.08349 -0.624465 0)
(4.04054 -0.34586 0)
(4.06231 -0.272469 0)
(4.0145 -0.0196119 0)
(4.00687 -0.0025608 0)
(4.00119 0.0873078 0)
(3.97762 0.0556994 0)
(3.97022 0.0192888 0)
(3.97016 0.00448481 0)
(3.96971 0.000993685 0)
(3.96905 0.0022385 0)
(3.97162 0.0135176 0)
(3.96945 0.0219118 0)
(3.9677 0.0171609 0)
(3.96626 0.00944622 0)
(3.96537 0.00461766 0)
(3.96604 0.0066565 0)
(3.96731 0.0118838 0)
(3.96743 0.0149482 0)
(3.96673 0.0123316 0)
(3.96639 0.00941085 0)
(3.96652 0.00944938 0)
(3.967 0.0108979 0)
(3.96683 0.0107987 0)
(3.96665 0.00938295 0)
(3.96634 0.00817954 0)
(3.9666 0.00913581 0)
(4.10499 -0.776443 0)
(4.10496 -0.776427 0)
(4.10494 -0.776414 0)
(4.10493 -0.776395 0)
(4.10493 -0.776377 0)
(4.1049 -0.776331 0)
(4.10488 -0.776305 0)
(4.10486 -0.776281 0)
(4.10485 -0.776265 0)
(4.10484 -0.776258 0)
(4.10481 -0.776233 0)
(4.1048 -0.776178 0)
(4.1048 -0.776113 0)
(4.10477 -0.776063 0)
(4.10475 -0.776082 0)
(4.10474 -0.776159 0)
(4.10472 -0.776191 0)
(4.10472 -0.776129 0)
(4.1047 -0.776087 0)
(4.10468 -0.776133 0)
(4.10465 -0.776167 0)
(4.10463 -0.776162 0)
(4.10461 -0.776157 0)
(4.10458 -0.77619 0)
(4.10456 -0.776222 0)
(4.10454 -0.776233 0)
(4.10452 -0.776245 0)
(4.10451 -0.776244 0)
(4.10452 -0.776216 0)
(4.10452 -0.776205 0)
(4.10452 -0.776184 0)
(4.10447 -0.776226 0)
(4.10436 -0.77642 0)
(4.10429 -0.776576 0)
(4.10428 -0.776535 0)
(4.10439 -0.776359 0)
(4.10445 -0.776292 0)
(4.10459 -0.776227 0)
(4.10473 -0.776155 0)
(4.10484 -0.776034 0)
(4.1049 -0.776018 0)
(4.10499 -0.776072 0)
(4.105 -0.776171 0)
(4.10501 -0.776243 0)
(4.10486 -0.776348 0)
(4.10469 -0.776434 0)
(4.10458 -0.776473 0)
(4.10439 -0.776589 0)
(4.10431 -0.776669 0)
(4.10428 -0.776694 0)
(4.10434 -0.776639 0)
(4.10458 -0.776312 0)
(4.10477 -0.775859 0)
(4.10482 -0.775647 0)
(4.10485 -0.775559 0)
(4.10474 -0.775665 0)
(4.10443 -0.776305 0)
(4.10445 -0.776671 0)
(4.10458 -0.776777 0)
(4.1048 -0.776813 0)
(4.10498 -0.776535 0)
(4.10499 -0.776191 0)
(4.10487 -0.775992 0)
(4.10473 -0.776226 0)
(4.10466 -0.776558 0)
(4.10463 -0.776636 0)
(4.10465 -0.776619 0)
(4.10481 -0.776665 0)
(4.10496 -0.776773 0)
(4.10498 -0.77681 0)
(4.10495 -0.776747 0)
(4.10482 -0.776544 0)
(4.10482 -0.776279 0)
(4.10466 -0.774716 0)
(4.101 -0.758231 0)
(4.09296 -0.697275 0)
(4.0711 -0.541326 0)
(4.06063 -0.409362 0)
(4.03063 -0.180893 0)
(4.0508 -0.161031 0)
(4.00148 -0.0567918 0)
(3.99187 -0.032469 0)
(3.989 -0.0129028 0)
(3.96711 0.0131709 0)
(3.96588 0.021982 0)
(3.96235 0.0160323 0)
(3.95962 0.00417538 0)
(3.96101 -0.00093625 0)
(3.96284 0.00292843 0)
(3.96472 0.0102449 0)
(3.96639 0.0144606 0)
(3.96573 0.0129655 0)
(3.96455 0.00827599 0)
(3.96478 0.00841595 0)
(3.96547 0.0100626 0)
(3.96598 0.0110692 0)
(3.96597 0.00989531 0)
(3.96537 0.00773616 0)
(3.96561 0.00804572 0)
(3.96608 0.00965948 0)
(4.10493 -0.776586 0)
(4.10494 -0.776575 0)
(4.1049 -0.776504 0)
(4.10489 -0.776456 0)
(4.10489 -0.776432 0)
(4.10489 -0.776416 0)
(4.10488 -0.776403 0)
(4.10487 -0.7764 0)
(4.10487 -0.776408 0)
(4.10487 -0.776403 0)
(4.10482 -0.776317 0)
(4.10481 -0.776251 0)
(4.1048 -0.776188 0)
(4.10478 -0.776162 0)
(4.10479 -0.776192 0)
(4.10476 -0.77628 0)
(4.10475 -0.776319 0)
(4.1048 -0.776194 0)
(4.10477 -0.776069 0)
(4.10475 -0.77608 0)
(4.10473 -0.776171 0)
(4.1047 -0.776206 0)
(4.10466 -0.776218 0)
(4.10462 -0.776274 0)
(4.10459 -0.776344 0)
(4.10456 -0.776383 0)
(4.10453 -0.77641 0)
(4.10451 -0.77641 0)
(4.1045 -0.776367 0)
(4.1045 -0.776346 0)