/*--------------------------------*- C++ -*----------------------------------*\
  =========                 |
  \\      /  F ield         | OpenFOAM: The Open Source CFD Toolbox
   \\    /   O peration     | Website:  https://openfoam.org
    \\  /    A nd           | Version:  7
     \\/     M anipulation  |
\*---------------------------------------------------------------------------*/
FoamFile
{
    version     2.0;
    format      ascii;
    class       volScalarField;
    location    "6.1";
    object      p;
}
// * * * * * * * * * * * * * * * * * * * * * * * * * * * * * * * * * * * * * //

dimensions      [1 -1 -2 0 0 0 0];

internalField   nonuniform List<scalar> 
1750
(
0.320929
0.533073
0.703128
0.83675
0.981211
0.980978
0.929528
0.912335
0.93545
0.952372
0.122324
0.188285
0.347322
0.502678
0.655647
0.782191
0.850497
0.907573
0.972774
0.97047
0.123598
0.130005
0.12589
0.133628
0.17623
0.283883
0.504456
0.712643
0.840809
0.932889
0.14072
0.148601
0.146035
0.131174
0.132052
0.140167
0.162942
0.250906
0.412629
0.721566
0.178136
0.191229
0.199885
0.205083
0.207649
0.21485
0.229254
0.252855
0.2495
0.334868
0.29389
0.304345
0.329193
0.331159
0.322887
0.311183
0.306293
0.299844
0.286023
0.290457
0.482363
0.451546
0.442809
0.442564
0.436156
0.412641
0.39226
0.372764
0.373325
0.374891
0.724823
0.695207
0.653514
0.607873
0.587796
0.567338
0.548967
0.529372
0.508408
0.47571
1.02746
0.976984
0.940324
0.863772
0.795661
0.754072
0.717646
0.683915
0.646656
0.586412
1.60244
1.44308
1.33975
1.22768
1.10535
1.01552
0.941959
0.877686
0.827923
0.748947
2.12937
2.03261
1.90988
1.76083
1.59118
1.44431
1.31383
1.18531
1.08903
0.956973
2.10719
2.13121
2.13079
2.09777
2.0269
1.94157
1.82494
1.67309
1.52536
1.29873
1.66581
1.80368
1.92249
1.97546
1.99057
1.99623
1.98908
1.96043
1.91298
1.7439
1.1067
1.1738
1.28055
1.4071
1.54262
1.6741
1.77746
1.86389
1.86428
1.87849
1.00291
1.00642
1.01602
1.03552
1.0759
1.14616
1.25873
1.42099
1.60569
1.95633
0.138139
0.109193
0.105314
0.137489
0.179995
0.311424
0.534858
0.770281
1.16074
1.74884
2.1999
2.10337
1.55627
1.0635
1.00143
0.1488
0.108924
0.102966
0.154372
0.2342
0.397257
0.610566
0.888274
1.35825
1.96429
2.26145
2.05778
1.38313
1.02699
1.00046
0.170026
0.112677
0.104857
0.175519
0.276444
0.432293
0.646879
1.01555
1.55282
2.15527
2.27649
1.96824
1.2278
1.01072
1.00015
0.181742
0.113532
0.102066
0.181619
0.296282
0.467914
0.749977
1.23501
1.79828
2.28758
2.26361
1.72278
1.11014
1.00326
1.00004
0.180086
0.109551
0.090459
0.172076
0.307202
0.556383
0.998673
1.45254
2.04995
2.36064
2.19875
1.51024
1.05128
1.0011
1.00001
0.161107
0.0989045
0.0843617
0.195389
0.413907
0.756904
1.18302
1.66053
2.27437
2.41359
2.08585
1.33248
1.02048
1.00034
1
0.122858
0.0910563
0.103893
0.314334
0.577529
0.922938
1.35029
1.97028
2.44283
2.42855
1.89722
1.15115
1.0053
1.00007
1
0.0791845
0.0887676
0.194845
0.419517
0.701737
1.09454
1.61789
2.30119
2.51628
2.35518
1.53537
1.05237
1.00132
1.00002
1
0.0557949
0.123369
0.270549
0.497914
0.848684
1.38526
2.05312
2.53481
2.53574
2.05496
1.26995
1.01667
1.00031
1
1
0.0484392
0.164246
0.336498
0.64309
1.23056
1.82682
2.40841
2.63389
2.5227
1.73645
1.10502
1.00356
1.00005
1
1
0.0427924
0.201695
0.480296
1.03635
1.68218
2.22847
2.65138
2.66145
2.2059
1.35357
1.02462
1.00056
1.00001
1
1
0.0299923
0.306222
0.850975
1.52053
2.12194
2.56579
2.75563
2.62135
1.7971
1.11887
1.00487
1.00009
1
1
1
0.0674457
0.615893
1.40949
2.03442
2.57243
2.73839
2.78366
2.21882
1.33777
1.0242
1.00061
1.00001
1
1
1
0.384585
1.25381
2.03382
2.52659
2.85169
2.78126
2.61736
1.69228
1.08623
1.00334
1.00006
1
1
1
1
1.32108
2.16714
2.59747
2.8146
2.91841
2.7948
2.03521
1.18419
1.00743
1.00012
1
1
1
1
1
2.89702
2.85282
2.81984
2.88585
2.92996
2.50825
1.29749
0.988406
0.99892
0.99998
1
1
1
1
1
2.88777
2.84775
2.80364
2.86223
2.88112
2.15199
1.16655
1.005
1.00005
1
1
1
1
1
1
2.80009
2.86278
2.91634
2.89563
2.72043
1.6902
1.03811
1.00016
1
1
1
1
1
1
1
2.74569
2.8805
3.02502
2.91736
2.45558
1.27462
1.00502
1.00002
1
1
1
1
1
1
1
2.72478
2.89226
3.08348
2.88512
1.9069
1.06799
1.00042
1
1
1
1
1
1
1
1
2.77443
2.96065
3.12305
2.60418
1.44502
1.0129
1.00004
1
1
1
1
1
1
1
1
2.94891
3.01576
3.14661
2.1783
1.11232
1.00083
1
1
1
1
1
1
1
1
1
3.26032
3.03524
2.7658
1.47741
1.01397
1.00004
1
1
1
1
1
1
1
1
1
3.60156
2.85058
2.13812
1.13482
1.00124
1
1
1
1
1
1
1
1
1
1
3.76738
2.60853
1.49181
1.01496
1.00005
1
1
1
1
1
1
1
1
1
1
3.66953
2.11257
1.16249
1.00201
1.00001
1
1
1
1
1
1
1
1
1
1
3.22271
1.65291
1.03886
1.0002
1
1
1
1
1
1
1
1
1
1
1
2.65901
1.29128
1.00691
1.00002
1
1
1
1
1
1
1
1
1
1
1
1.97585
1.10142
1.001
1
1
1
1
1
1
1
1
1
1
1
1
1.39258
1.01644
1.00006
1
1
1
1
1
1
1
1
1
1
1
1
1
1
1
1
1
1
1
1
1
1
1
1
1
1
1
1
1
1
1
1
1
1
1
1
1
1
1
1
1
1
1
1
1
1
1
1
1
1
1
1
1
1
1
1
1
1
1
1
1
1
1
1
1
1
1
1
1
1
1
1
1
1
1
1
1
1
1
1
1
1
1
1
1
1
1
1
1
1
1
1
1
1
1
1
1
1
1
1
1
1
1
1
1
1
1
1
1
1
1
1
1
1
1
1
1
1
1
1
1
1
1
1
1
1
1
1
1
1
1
1
1
1
1
1
1
1
1
1
1
1
1
1
1
1
1
1
1
1
1
1
1
1
1
1
1
1
1
1
1
1
1
1
1
1
1
1
1
1
1
1
1
1
1
1
1
1
1
1
1
1
1
1
1
1
1
1
1
1
1
1
1
1
1
1
1
1
1
1
1
1
1
1
1
1
1
1
1
1
1
1
1
1
1
1
1
1
1
1
1
1
1
1
1
1
1
1
1
1
1
1
1
1
1
1
1
1
1
1
1
1
1
1
1
1
1
1
1
1
1
1
1
1
1
1
1
1
1
1
1
1
1
1
1
1
1
1
1
1
1
1
1
1
1
1
1
1
1
1
1
1
1
1
1
1
1
1
1
1
1
1
1
1
1
1
1
1
1
1
1
1
1
1
1
1
1
1
1
1
1
1
1
1
1
1
1
1
1
1
1
1
1
1
1
1
1
1
1
1
1
1
1
1
1
1
1
1
1
1
1
1
1
1
1
1
1
1
1
1
1
1
1
1
1
1
1
1
1
1
1
1
1.78927
1.01387
1
1
1
1
1
1
1
1
1
1
1
1
1
1
1
1
1
1
3.0465
1.22973
0.999368
1
1
1
1
1
1
1
1
1
1
1
1
1
1
1
1
1
4.70887
1.89061
1.0141
0.999957
1
1
1
1
1
1
1
1
1
1
1
1
1
1
1
1
5.56188
3.2583
1.45579
1.00083
1
1
1
1
1
1
1
1
1
1
1
1
1
1
1
1
5.28053
4.20879
3.0441
1.22691
0.999698
0.999999
1
1
1
1
1
1
1
1
1
1
1
1
1
1
4.52467
4.29511
4.19816
2.5375
1.11544
0.999749
0.999998
1
1
1
1
1
1
1
1
1
1
1
1
1
3.9147
4.1247
4.3989
3.88598
1.89687
1.02139
0.999946
0.999998
1
1
1
1
1
1
1
1
1
1
1
1
3.85961
4.00324
4.29168
4.2337
3.318
1.37791
1.00113
1
1
1
1
1
1
1
1
1
1
1
1
1
3.91023
3.98944
4.08677
4.1242
3.99916
2.51733
1.12501
0.999919
0.999998
1
1
1
1
1
1
1
1
1
1
1
3.99572
3.97775
3.93684
4.00764
4.0858
3.58049
1.70468
1.01167
0.999981
0.999999
1
1
1
1
1
1
1
1
1
1
4.01609
3.99824
3.96539
4.00961
4.06501
4.03551
2.81667
1.1956
1.00021
1
1
1
1
1
1
1
1
1
1
1
4.05412
4.04756
4.03344
4.03571
4.01974
4.00607
3.53797
1.89043
1.03056
0.999985
1
1
1
1
1
1
1
1
1
1
4.0901
4.08293
4.07107
4.03103
3.9827
3.99865
3.96845
2.92953
1.2625
1.00085
1
1
1
1
1
1
1
1
1
1
4.0986
4.08692
4.07051
4.0404
4.00833
4.03668
4.07644
3.75601
2.03421
1.06853
1.00072
1
1
1
1
1
1
1
1
1
4.09423
4.08806
4.07257
4.06447
4.06764
4.06716
4.06021
3.84281
2.83463
1.15021
0.987523
0.999062
0.99999
1
1
1
1
1
1
1
1.53063
2.71216
3.34852
3.70166
3.91155
4.01164
4.03966
3.8994
3.90751
2.57421
1.2991
1.01631
1.00037
1.00001
1
1
1
1
1
1
0.255703
1.35862
2.26093
2.84702
3.31991
3.6794
3.88108
3.87623
4.00084
3.80822
2.41686
1.26548
1.01479
1.00032
1
1
1
1
1
1
0.0892212
0.560226
1.26097
1.97802
2.54505
3.04753
3.46216
3.70799
3.91107
3.8981
3.58706
2.17378
1.17551
1.0077
1.00014
1
1
1
1
1
0.132339
0.363271
0.661231
1.18077
1.81058
2.33142
2.88564
3.28511
3.62243
3.82665
3.85022
3.30364
1.81928
1.08596
1.00259
1.00004
1
1
1
1
0.234688
0.329323
0.462048
0.723898
1.17913
1.71063
2.23296
2.74009
3.16319
3.53573
3.78917
3.72291
2.89265
1.4668
1.029
1.00054
1.00001
1
1
1
0.29922
0.272872
0.329959
0.562471
0.852798
1.26783
1.70183
2.234
2.65332
3.13443
3.53585
3.68222
3.49053
2.30218
1.20204
1.00758
1.0001
1
1
1
0.326465
0.236526
0.214275
0.406395
0.63428
0.969422
1.3427
1.77966
2.26919
2.68383
3.14451
3.54578
3.53376
3.06389
1.68039
1.05371
1.00113
1.00001
1
1
0.341827
0.237532
0.207086
0.323423
0.481628
0.71709
1.05269
1.40003
1.91702
2.22504
2.70942
3.21725
3.47989
3.39146
2.4437
1.2528
1.00955
1.00012
1
1
0.326205
0.253498
0.238814
0.308416
0.413646
0.572737
0.831023
1.15754
1.56629
1.95571
2.29774
2.81326
3.279
3.38636
2.99278
1.72831
1.05672
1.00109
1.00001
1
0.295656
0.266541
0.279403
0.295505
0.354518
0.497374
0.686828
0.99696
1.32578
1.72588
2.03376
2.49219
3.00151
3.32887
3.24436
2.3305
1.23382
1.0075
1.00008
1
0.286241
0.278998
0.299696
0.274267
0.285361
0.42106
0.567125
0.846405
1.13404
1.47602
1.80571
2.16336
2.64662
3.16045
3.24963
2.77553
1.5738
1.04036
1.00064
1.00001
0.290424
0.30065
0.307786
0.268918
0.261332
0.367632
0.487559
0.652679
0.948475
1.20428
1.57499
1.89206
2.3083
2.83989
3.19526
3.10311
2.05903
1.13732
1.00351
1.00003
0.30543
0.315433
0.307558
0.270776
0.262325
0.349119
0.454827
0.590815
0.82806
1.07522
1.39869
1.72983
2.09717
2.55909
3.05673
3.12056
2.62577
1.3935
1.01711
1.00021
0.307173
0.312939
0.30375
0.273742
0.263729
0.322633
0.424422
0.556149
0.742517
0.978146
1.24666
1.57279
1.91151
2.33518
2.8447
3.08483
2.83563
1.7957
1.07208
1.00119
0.299512
0.302883
0.298911
0.273731
0.26438
0.298667
0.362905
0.489791
0.62741
0.855226
1.06862
1.38491
1.67308
2.02583
2.55665
2.9859
2.91675
2.12827
1.18441
1.00519
0.389654
0.295902
0.289554
0.277355
0.282982
0.301146
0.326033
0.45968
0.574849
0.764825
0.993794
1.242
1.56567
1.86019
2.31475
2.86496
2.92837
2.47298
1.36105
1.01507
0.500504
0.326879
0.299609
0.294161
0.298589
0.304828
0.325192
0.452914
0.557817
0.717525
0.951297
1.16471
1.4766
1.77732
2.13951
2.67783
2.90966
2.71938
1.66852
1.05233
0.607605
0.39166
0.308227
0.304839
0.301545
0.304126
0.330124
0.44446
0.549911
0.681155
0.902026
1.10987
1.33546
1.65227
1.9723
2.44693
2.83782
2.74598
2.00811
1.15691
0.741058
0.516273
0.327503
0.300546
0.297413
0.295324
0.33791
0.42873
0.526844
0.64608
0.808353
1.04335
1.23662
1.49554
1.7969
2.1901
2.69632
2.72839
2.29239
1.36464
0.918207
0.666708
0.36641
0.289495
0.291013
0.290904
0.349824
0.415094
0.486127
0.624808
0.759494
0.957806
1.17008
1.39185
1.66445
1.98336
2.49171
2.70504
2.49157
1.71484
0.991258
0.818777
0.518911
0.295247
0.283903
0.293385
0.355794
0.407202
0.450405
0.588576
0.723411
0.88296
1.09224
1.30035
1.52957
1.82779
2.26131
2.64042
2.53575
2.19444
0.973565
0.945646
0.736184
0.35889
0.282
0.292004
0.352433
0.398463
0.449453
0.56435
0.682141
0.827092
1.00151
1.20757
1.41249
1.66709
2.02865
2.4797
2.56884
2.7448
0.927835
0.961668
0.836336
0.553632
0.301349
0.288471
0.3416
0.383899
0.453438
0.551847
0.639092
0.774613
0.926957
1.11069
1.31513
1.52771
1.81679
2.25004
2.64639
3.23807
0.927373
0.954004
0.913729
0.765569
0.375037
0.2858
0.324622
0.371027
0.450338
0.530533
0.604742
0.731658
0.871839
1.03088
1.22129
1.41777
1.64604
2.04162
2.68407
3.68608
0.949041
0.946815
0.953044
0.88381
0.645521
0.357555
0.31727
0.354225
0.42599
0.481784
0.554048
0.663079
0.776611
0.912723
1.06717
1.24238
1.43648
1.82532
2.69071
4.13811
)
;

boundaryField
{
    inlet
    {
        type            fixedValue;
        value           uniform 1;
    }
    outlet
    {
        type            zeroGradient;
    }
    airfoil
    {
        type            zeroGradient;
    }
    top
    {
        type            symmetryPlane;
    }
    bottom
    {
        type            symmetryPlane;
    }
    defaultFaces
    {
        type            empty;
    }
}


// ************************************************************************* //
