x,y,z,U_0,U_1,U_2
-2.58298,-3,-1.58355e-18,3,2.7713e-16,0
-2.58298,-2.99399,-3.00468e-19,3,2.7713e-16,0
-2.58298,-2.98799,1.26451e-18,3,2.7713e-16,0
-2.58298,-2.98198,2.3958e-18,3,2.7713e-16,0
-2.58298,-2.97598,2.65973e-18,3,2.7713e-16,0
-2.58298,-2.96997,2.92366e-18,3,2.7713e-16,0
-2.58298,-2.96396,2.32023e-18,3,2.7713e-16,0
-2.58298,-2.95796,1.7168e-18,3,2.7713e-16,0
-2.58298,-2.95195,2.84809e-18,3,2.7713e-16,0
-2.58298,-2.94595,8.56883e-19,3,2.7713e-16,0
-2.58298,-2.93994,-1.13433e-18,3,2.7713e-16,0
-2.58298,-2.93393,3.43912e-19,3,2.7713e-16,0
-2.58298,-2.92793,-9.60114e-19,3,2.7713e-16,0
-2.58298,-2.92192,1.73245e-18,3,2.7713e-16,0
-2.58298,-2.91592,3.03723e-18,3,2.7713e-16,0
-2.58298,-2.90991,1.74147e-18,3,6.51609e-17,0
-2.58298,-2.9039,4.51702e-18,3,6.51609e-17,0
-2.58298,-2.8979,3.12923e-18,3,6.51609e-17,0
-2.58298,-2.89189,7.29256e-18,3,6.51609e-17,0
-2.58298,-2.88589,1.21498e-17,3,6.51609e-17,0
-2.58298,-2.87988,1.21498e-17,3,6.51609e-17,0
-2.58298,-2.87387,1.21498e-17,3,6.51609e-17,0
-2.58298,-2.86787,1.56192e-17,3,6.51609e-17,0
-2.58298,-2.86186,1.56192e-17,3,6.51609e-17,0
-2.58298,-2.85586,1.21498e-17,3,6.51609e-17,0
-2.58298,-2.84985,1.21498e-17,3,6.51609e-17,0
-2.58298,-2.84384,1.21498e-17,3,6.51609e-17,0
-2.58298,-2.83784,1.21498e-17,3,6.51609e-17,0
-2.58298,-2.83183,1.21498e-17,3,6.51609e-17,0
-2.58298,-2.82583,1.21498e-17,3,6.51609e-17,0
-2.58298,-2.81982,1.36986e-17,3,6.51609e-17,0
-2.58298,-2.81381,1.23617e-17,3,6.51609e-17,0
-2.58298,-2.80781,1.53182e-17,3,6.51609e-17,0
-2.58298,-2.8018,1.33307e-17,3,6.51609e-17,0
-2.58298,-2.7958,1.39453e-17,3,6.51609e-17,0
-2.58298,-2.78979,1.36926e-17,3,6.51609e-17,0
-2.58298,-2.78378,1.34398e-17,3,6.51609e-17,0
-2.58298,-2.77778,1.45749e-17,3,6.51609e-17,0
-2.58298,-2.77177,1.57099e-17,3,6.51609e-17,0
-2.58298,-2.76577,1.68449e-17,3,6.51609e-17,0
-2.58298,-2.75976,2.04086e-17,3,6.51609e-17,0
-2.58298,-2.75375,1.89348e-17,3,6.51609e-17,0
-2.58298,-2.74775,2.14576e-17,3,6.51609e-17,0
-2.58298,-2.74174,2.0511e-17,3,6.51609e-17,0
-2.58298,-2.73574,2.32073e-17,3,6.51609e-17,0
-2.58298,-2.72973,1.83948e-17,3,-7.71381e-17,0
-2.58298,-2.72372,1.83948e-17,3,-7.71381e-17,0
-2.58298,-2.71772,1.28437e-17,3,-7.71381e-17,0
-2.58298,-2.71171,1.7007e-17,3,-7.71381e-17,0
-2.58298,-2.70571,1.7007e-17,3,-7.71381e-17,0
-2.58298,-2.6997,2.04765e-17,3,-7.71381e-17,0
-2.58298,-2.69369,2.04765e-17,3,-7.71381e-17,0
-2.58298,-2.68769,2.04765e-17,3,-7.71381e-17,0
-2.58298,-2.68168,2.04765e-17,3,-7.71381e-17,0
-2.58298,-2.67568,2.04765e-17,3,-7.71381e-17,0
-2.58298,-2.66967,2.04765e-17,3,-7.71381e-17,0
-2.58298,-2.66366,1.7007e-17,3,-7.71381e-17,0
-2.58298,-2.65766,1.49253e-17,3,-7.71381e-17,0
-2.58298,-2.65165,2.04765e-17,3,-7.71381e-17,0
-2.58298,-2.64565,1.68345e-17,3,-7.71381e-17,0
-2.58298,-2.63964,1.63688e-17,3,-7.71381e-17,0
-2.58298,-2.63363,1.55128e-17,3,-7.71381e-17,0
-2.58298,-2.62763,1.50905e-17,3,-7.71381e-17,0
-2.58298,-2.62162,1.46682e-17,3,-7.71381e-17,0
-2.58298,-2.61562,1.40724e-17,3,-7.71381e-17,0
-2.58298,-2.60961,1.34766e-17,3,-7.71381e-17,0
-2.58298,-2.6036,1.46155e-17,3,-7.71381e-17,0
-2.58298,-2.5976,1.57544e-17,3,-7.71381e-17,0
-2.58298,-2.59159,1.68933e-17,3,-7.71381e-17,0
-2.58298,-2.58559,1.62975e-17,3,-7.71381e-17,0
-2.58298,-2.57958,1.59552e-17,3,-7.71381e-17,0
-2.58298,-2.57357,1.85687e-17,3,-7.71381e-17,0
-2.58298,-2.56757,2.10954e-17,3,-7.71381e-17,0
-2.58298,-2.56156,2.04765e-17,3,-4.5819e-17,0
-2.58298,-2.55556,2.04765e-17,3,-4.5819e-17,0
-2.58298,-2.54955,1.7007e-17,3,-4.5819e-17,0
-2.58298,-2.54354,1.77009e-17,3,-4.5819e-17,0
-2.58298,-2.53754,1.77009e-17,3,-4.5819e-17,0
-2.58298,-2.53153,1.77009e-17,3,-4.5819e-17,0
-2.58298,-2.52553,1.42315e-17,3,-4.5819e-17,0
-2.58298,-2.51952,1.56192e-17,3,-4.5819e-17,0
-2.58298,-2.51351,1.77009e-17,3,-4.5819e-17,0
-2.58298,-2.50751,1.77009e-17,3,-4.5819e-17,0
-2.58298,-2.5015,1.56192e-17,3,-4.5819e-17,0
-2.58298,-2.4955,1.56192e-17,3,-4.5819e-17,0
-2.58298,-2.48949,2.11703e-17,3,-4.5819e-17,0
-2.58298,-2.48348,2.11703e-17,3,-4.5819e-17,0
-2.58298,-2.47748,2.09838e-17,3,-4.5819e-17,0
-2.58298,-2.47147,2.5336e-17,3,-4.5819e-17,0
-2.58298,-2.46547,2.40504e-17,3,-4.5819e-17,0
-2.58298,-2.45946,2.39791e-17,3,-4.5819e-17,0
-2.58298,-2.45345,2.47751e-17,3,-4.5819e-17,0
-2.58298,-2.44745,2.6265e-17,3,-4.5819e-17,0
-2.58298,-2.44144,2.46324e-17,3,-4.5819e-17,0
-2.58298,-2.43544,2.2306e-17,3,-4.5819e-17,0
-2.58298,-2.42943,2.17142e-17,3,-4.5819e-17,0
-2.58298,-2.42342,2.11225e-17,3,-4.5819e-17,0
-2.58298,-2.41742,2.35598e-17,3,-4.5819e-17,0
-2.58298,-2.41141,2.34884e-17,3,-4.5819e-17,0
-2.58298,-2.40541,2.31569e-17,3,-4.5819e-17,0
-2.58298,-2.3994,1.83948e-17,3,-1.75078e-16,0
-2.58298,-2.39339,1.90887e-17,3,-1.75078e-16,0
-2.58298,-2.38739,1.7007e-17,3,-1.75078e-16,0
-2.58298,-2.38138,1.42315e-17,3,-1.75078e-16,0
-2.58298,-2.37538,1.77009e-17,3,-1.75078e-16,0
-2.58298,-2.36937,1.77009e-17,3,-1.75078e-16,0
-2.58298,-2.36336,1.77009e-17,3,-1.75078e-16,0
-2.58298,-2.35736,1.77009e-17,3,-1.75078e-16,0
-2.58298,-2.35135,2.11703e-17,3,-1.75078e-16,0
-2.58298,-2.34535,2.11703e-17,3,-1.75078e-16,0
-2.58298,-2.33934,1.77009e-17,3,-1.75078e-16,0
-2.58298,-2.33333,1.77009e-17,3,-1.75078e-16,0
-2.58298,-2.32733,1.77009e-17,3,-1.75078e-16,0
-2.58298,-2.32132,1.79382e-17,3,-1.75078e-16,0
-2.58298,-2.31532,1.68628e-17,3,-1.75078e-16,0
-2.58298,-2.30931,1.6709e-17,3,-1.75078e-16,0
-2.58298,-2.3033,1.45602e-17,3,-1.75078e-16,0
-2.58298,-2.2973,1.46665e-17,3,-1.75078e-16,0
-2.58298,-2.29129,1.33851e-17,3,-1.75078e-16,0
-2.58298,-2.28529,1.38384e-17,3,-1.75078e-16,0
-2.58298,-2.27928,1.56795e-17,3,-1.75078e-16,0
-2.58298,-2.27327,1.75206e-17,3,-1.75078e-16,0
-2.58298,-2.26727,1.7627e-17,3,-1.75078e-16,0
-2.58298,-2.26126,1.74447e-17,3,-1.75078e-16,0
-2.58298,-2.25526,1.34962e-17,3,-1.75078e-16,0
-2.58298,-2.24925,1.60312e-17,3,-1.75078e-16,0
-2.58298,-2.24324,1.14559e-17,3,-4.12584e-17,0
-2.58298,-2.23724,1.28437e-17,3,-4.12584e-17,0
-2.58298,-2.23123,1.0762e-17,3,-4.12584e-17,0
-2.58298,-2.22523,1.42315e-17,3,-4.12584e-17,0
-2.58298,-2.21922,1.42315e-17,3,-4.12584e-17,0
-2.58298,-2.21321,1.42315e-17,3,-4.12584e-17,0
-2.58298,-2.20721,1.42315e-17,3,-4.12584e-17,0
-2.58298,-2.2012,1.42315e-17,3,-4.12584e-17,0
-2.58298,-2.1952,1.42315e-17,3,-4.12584e-17,0
-2.58298,-2.18919,1.42315e-17,3,-4.12584e-17,0
-2.58298,-2.18318,1.77009e-17,3,-4.12584e-17,0
-2.58298,-2.17718,1.77009e-17,3,-4.12584e-17,0
-2.58298,-2.17117,1.77009e-17,3,-4.12584e-17,0
-2.58298,-2.16517,1.85387e-17,3,-4.12584e-17,0
-2.58298,-2.15916,1.83893e-17,3,-4.12584e-17,0
-2.58298,-2.15315,1.91939e-17,3,-4.12584e-17,0
-2.58298,-2.14715,1.80904e-17,3,-4.12584e-17,0
-2.58298,-2.14114,1.8895e-17,3,-4.12584e-17,0
-2.58298,-2.13514,1.90058e-17,3,-4.12584e-17,0
-2.58298,-2.12913,1.80757e-17,3,-4.12584e-17,0
-2.58298,-2.12312,1.74926e-17,3,-4.12584e-17,0
-2.58298,-2.11712,1.69094e-17,3,-4.12584e-17,0
-2.58298,-2.11111,1.56311e-17,3,-4.12584e-17,0
-2.58298,-2.10511,1.43487e-17,3,-4.12584e-17,0
-2.58298,-2.0991,9.25528e-18,3,-4.12584e-17,0
-2.58298,-2.09309,9.37426e-18,3,-1.57902e-17,0
-2.58298,-2.08709,5.21091e-18,3,-1.57902e-17,0
-2.58298,-2.08108,5.90479e-18,3,-1.57902e-17,0
-2.58298,-2.07508,3.82311e-18,3,-1.57902e-17,0
-2.58298,-2.06907,3.82311e-18,3,-1.57902e-17,0
-2.58298,-2.06306,3.82311e-18,3,-1.57902e-17,0
-2.58298,-2.05706,3.82311e-18,3,-1.57902e-17,0
-2.58298,-2.05105,7.29256e-18,3,-1.57902e-17,0
-2.58298,-2.04505,7.29256e-18,3,-1.57902e-17,0
-2.58298,-2.03904,7.29256e-18,3,-1.57902e-17,0
-2.58298,-2.03303,3.82311e-18,3,-1.57902e-17,0
-2.58298,-2.02703,3.82311e-18,3,-1.57902e-17,0
-2.58298,-2.02102,7.02741e-18,3,-1.57902e-17,0
-2.58298,-2.01502,7.66316e-18,3,-1.57902e-17,0
-2.58298,-2.00901,8.03869e-18,3,-1.57902e-17,0
-2.58298,-2.003,7.80708e-18,3,-1.57902e-17,0
-2.58298,-1.997,8.44283e-18,3,-1.57902e-17,0
-2.58298,-1.99099,8.21121e-18,3,-1.57902e-17,0
-2.58298,-1.98498,7.97959e-18,3,-1.57902e-17,0
-2.58298,-1.97898,9.13576e-18,3,-1.57902e-17,0
-2.58298,-1.97297,1.06389e-17,3,-1.57902e-17,0
-2.58298,-1.96697,8.67253e-18,3,-1.57902e-17,0
-2.58298,-1.96096,1.07761e-17,3,-1.57902e-17,0
-2.58298,-1.95495,1.25394e-17,3,-1.57902e-17,0
-2.58298,-1.94895,1.02262e-17,3,-1.57902e-17,0
-2.58298,-1.94294,3.82313e-18,3,-1.77338e-17,0
-2.58298,-1.93694,-1.72799e-18,3,-1.77338e-17,0
-2.58298,-1.93093,-4.50356e-18,3,-1.77338e-17,0
-2.58298,-1.92492,-4.50356e-18,3,-1.77338e-17,0
-2.58298,-1.91892,-4.50356e-18,3,-1.77338e-17,0
-2.58298,-1.91291,-1.03411e-18,3,-1.77338e-17,0
-2.58298,-1.90691,-1.03411e-18,3,-1.77338e-17,0
-2.58298,-1.9009,-4.50356e-18,3,-1.77338e-17,0
-2.58298,-1.89489,-4.50356e-18,3,-1.77338e-17,0
-2.58298,-1.88889,-1.03411e-18,3,-1.77338e-17,0
-2.58298,-1.88288,-1.03411e-18,3,-1.77338e-17,0
-2.58298,-1.87688,-4.54561e-18,3,-1.77338e-17,0
-2.58298,-1.87087,-4.68573e-18,3,-1.77338e-17,0
-2.58298,-1.86486,-4.39216e-18,3,-1.77338e-17,0
-2.58298,-1.85886,-4.0986e-18,3,-1.77338e-17,0
-2.58298,-1.85285,-4.67239e-18,3,-1.77338e-17,0
-2.58298,-1.84685,-5.24619e-18,3,-1.77338e-17,0
-2.58298,-1.84084,-4.08526e-18,3,-1.77338e-17,0
-2.58298,-1.83483,-4.65905e-18,3,-1.77338e-17,0
-2.58298,-1.82883,-5.23285e-18,3,-1.77338e-17,0
-2.58298,-1.82282,-4.42557e-18,3,-1.77338e-17,0
-2.58298,-1.81682,-2.83094e-18,3,-1.77338e-17,0
-2.58298,-1.81081,-5.22617e-18,3,-1.77338e-17,0
-2.58298,-1.8048,-1.03409e-18,3,-2.32519e-16,0
-2.58298,-1.7988,1.04756e-18,3,-2.32519e-16,0
-2.58298,-1.79279,3.53664e-19,3,-2.32519e-16,0
-2.58298,-1.78679,3.53664e-19,3,-2.32519e-16,0
-2.58298,-1.78078,3.53664e-19,3,-2.32519e-16,0
-2.58298,-1.77477,3.53664e-19,3,-2.32519e-16,0
-2.58298,-1.76877,3.53664e-19,3,-2.32519e-16,0
-2.58298,-1.76276,3.53664e-19,3,-2.32519e-16,0
-2.58298,-1.75676,-1.728e-18,3,-2.32519e-16,0
-2.58298,-1.75075,3.53664e-19,3,-2.32519e-16,0
-2.58298,-1.74474,3.53664e-19,3,-2.32519e-16,0
-2.58298,-1.73874,1.13793e-18,3,-2.32519e-16,0
-2.58298,-1.73273,1.43646e-18,3,-2.32519e-16,0
-2.58298,-1.72673,1.73736e-19,3,-2.32519e-16,0
-2.58298,-1.72072,4.72264e-19,3,-2.32519e-16,0
-2.58298,-1.71471,-9.65698e-20,3,-2.32519e-16,0
-2.58298,-1.70871,1.06932e-18,3,-2.32519e-16,0
-2.58298,-1.7027,5.00486e-19,3,-2.32519e-16,0
-2.58298,-1.6967,1.66638e-18,3,-2.32519e-16,0
-2.58298,-1.69069,-1.72809e-18,3,-2.32519e-16,0
-2.58298,-1.68468,-1.64639e-18,3,-2.32519e-16,0
-2.58298,-1.67868,-1.78152e-18,3,-2.32519e-16,0
-2.58298,-1.67267,-5.19743e-18,3,-2.51204e-16,0
-2.58298,-1.66667,-3.11577e-18,3,-2.51204e-16,0
-2.58298,-1.66066,-3.40225e-19,3,-2.51204e-16,0
-2.58298,-1.65465,3.12922e-18,3,-2.51204e-16,0
-2.58298,-1.64865,3.12922e-18,3,-2.51204e-16,0
-2.58298,-1.64264,3.12922e-18,3,-2.51204e-16,0
-2.58298,-1.63664,3.12922e-18,3,-2.51204e-16,0
-2.58298,-1.63063,3.12922e-18,3,-2.51204e-16,0
-2.58298,-1.62462,3.12922e-18,3,-2.51204e-16,0
-2.58298,-1.61862,-3.40225e-19,3,-2.51204e-16,0
-2.58298,-1.61261,3.87502e-18,3,-2.51204e-16,0
-2.58298,-1.60661,2.90884e-18,3,-2.51204e-16,0
-2.58298,-1.6006,2.51865e-18,3,-2.51204e-16,0
-2.58298,-1.59459,2.4754e-18,3,-2.51204e-16,0
-2.58298,-1.58859,3.9934e-18,3,-2.51204e-16,0
-2.58298,-1.58258,6.54175e-19,3,-2.51204e-16,0
-2.58298,-1.57658,1.47829e-18,3,-2.51204e-16,0
-2.58298,-1.57057,2.3024e-18,3,-2.51204e-16,0
-2.58298,-1.56456,4.51429e-18,3,-2.51204e-16,0
-2.58298,-1.55856,2.03573e-18,3,-2.51204e-16,0
-2.58298,-1.55255,-1.82389e-18,3,-2.51204e-16,0
-2.58298,-1.54655,2.43536e-18,3,-1.95931e-16,0
-2.58298,-1.54054,3.82313e-18,3,-1.95931e-16,0
-2.58298,-1.53453,1.74144e-18,3,-1.95931e-16,0
-2.58298,-1.52853,1.04755e-18,3,-1.95931e-16,0
-2.58298,-1.52252,1.04755e-18,3,-1.95931e-16,0
-2.58298,-1.51652,1.04755e-18,3,-1.95931e-16,0
-2.58298,-1.51051,1.04755e-18,3,-1.95931e-16,0
-2.58298,-1.5045,1.04755e-18,3,-1.95931e-16,0
-2.58298,-1.4985,1.04755e-18,3,-1.95931e-16,0
-2.58298,-1.49249,4.517e-18,3,-1.95931e-16,0
-2.58298,-1.48649,1.37338e-18,3,-1.95931e-16,0
-2.58298,-1.48048,2.92928e-18,3,-1.95931e-16,0
-2.58298,-1.47447,3.93225e-18,3,-1.95931e-16,0
-2.58298,-1.46847,3.54743e-18,3,-1.95931e-16,0
-2.58298,-1.46246,4.02998e-18,3,-1.95931e-16,0
-2.58298,-1.45646,5.90031e-18,3,-1.95931e-16,0
-2.58298,-1.45045,3.26035e-18,3,-1.95931e-16,0
-2.58298,-1.44444,2.35512e-18,3,-1.95931e-16,0
-2.58298,-1.43844,7.29787e-18,3,-1.95931e-16,0
-2.58298,-1.43243,7.99728e-18,3,-1.95931e-16,0
-2.58298,-1.42643,5.87776e-18,3,-1.95931e-16,0
-2.58298,-1.42042,3.12924e-18,3,-6.68153e-17,0
-2.58298,-1.41441,5.2109e-18,3,-6.68153e-17,0
-2.58298,-1.40841,5.90478e-18,3,-6.68153e-17,0
-2.58298,-1.4024,5.90478e-18,3,-6.68153e-17,0
-2.58298,-1.3964,3.82311e-18,3,-6.68153e-17,0
-2.58298,-1.39039,5.90478e-18,3,-6.68153e-17,0
-2.58298,-1.38438,9.37423e-18,3,-6.68153e-17,0
-2.58298,-1.37838,9.37423e-18,3,-6.68153e-17,0
-2.58298,-1.37237,5.90478e-18,3,-6.68153e-17,0
-2.58298,-1.36637,1.00554e-17,3,-6.68153e-17,0
-2.58298,-1.36036,9.95264e-18,3,-6.68153e-17,0
-2.58298,-1.35435,9.66016e-18,3,-6.68153e-17,0
-2.58298,-1.34835,9.10748e-18,3,-6.68153e-17,0
-2.58298,-1.34234,9.24868e-18,3,-6.68153e-17,0
-2.58298,-1.33634,9.38989e-18,3,-6.68153e-17,0
-2.58298,-1.33033,9.53109e-18,3,-6.68153e-17,0
-2.58298,-1.32432,7.93757e-18,3,-6.68153e-17,0
-2.58298,-1.31832,1.12813e-17,3,-6.68153e-17,0
-2.58298,-1.31231,9.60108e-18,3,-6.68153e-17,0
-2.58298,-1.30631,2.43536e-18,3,2.04908e-16,0
-2.58298,-1.3003,3.82313e-18,3,2.04908e-16,0
-2.58298,-1.29429,1.74144e-18,3,2.04908e-16,0
-2.58298,-1.28829,-3.40225e-19,3,2.04908e-16,0
-2.58298,-1.28228,-3.40225e-19,3,2.04908e-16,0
-2.58298,-1.27628,-3.40225e-19,3,2.04908e-16,0
-2.58298,-1.27027,-3.40225e-19,3,2.04908e-16,0
-2.58298,-1.26426,-3.40225e-19,3,2.04908e-16,0
-2.58298,-1.25826,-3.40225e-19,3,2.04908e-16,0
-2.58298,-1.25225,-3.40225e-19,3,2.04908e-16,0
-2.58298,-1.24625,-3.69767e-18,3,2.04908e-16,0
-2.58298,-1.24024,-4.07105e-18,3,2.04908e-16,0
-2.58298,-1.23423,-5.31179e-18,3,2.04908e-16,0
-2.58298,-1.22823,-6.37906e-18,3,2.04908e-16,0
-2.58298,-1.22222,-5.19119e-18,3,2.04908e-16,0
-2.58298,-1.21622,-5.73804e-18,3,2.04908e-16,0
-2.58298,-1.21021,-4.55017e-18,3,2.04908e-16,0
-2.58298,-1.2042,-1.3307e-18,3,2.04908e-16,0
-2.58298,-1.1982,-1.31374e-18,3,2.04908e-16,0
-2.58298,-1.19219,1.74147e-18,3,1.58792e-16,0
-2.58298,-1.18619,2.43534e-18,3,1.58792e-16,0
-2.58298,-1.18018,2.43533e-18,3,1.58792e-16,0
-2.58298,-1.17417,-1.03411e-18,3,1.58792e-16,0
-2.58298,-1.16817,-1.03411e-18,3,1.58792e-16,0
-2.58298,-1.16216,-1.03411e-18,3,1.58792e-16,0
-2.58298,-1.15616,-1.03411e-18,3,1.58792e-16,0
-2.58298,-1.15015,-1.03411e-18,3,1.58792e-16,0
-2.58298,-1.14414,-1.03411e-18,3,1.58792e-16,0
-2.58298,-1.13814,4.69432e-20,3,1.58792e-16,0
-2.58298,-1.13213,-8.40779e-19,3,1.58792e-16,0
-2.58298,-1.12613,-2.07544e-18,3,1.58792e-16,0
-2.58298,-1.12012,-1.57539e-18,3,1.58792e-16,0
-2.58298,-1.11411,-2.81005e-18,3,1.58792e-16,0
-2.58298,-1.10811,-2.31e-18,3,1.58792e-16,0
-2.58298,-1.1021,-4.22162e-19,3,1.58792e-16,0
-2.58298,-1.0961,-1.01301e-18,3,1.58792e-16,0
-2.58298,-1.09009,-1.5104e-18,3,1.58792e-16,0
-2.58298,-1.08408,-3.80965e-18,3,2.45243e-16,0
-2.58298,-1.07808,-6.58522e-18,3,2.45243e-16,0
-2.58298,-1.07207,-1.728e-18,3,2.45243e-16,0
-2.58298,-1.06607,-1.728e-18,3,2.45243e-16,0
-2.58298,-1.06006,-1.728e-18,3,2.45243e-16,0
-2.58298,-1.05405,-5.19745e-18,3,2.45243e-16,0
-2.58298,-1.04805,-5.19745e-18,3,2.45243e-16,0
-2.58298,-1.04204,-5.19745e-18,3,2.45243e-16,0
-2.58298,-1.03604,-1.728e-18,3,2.45243e-16,0
-2.58298,-1.03003,-2.73287e-18,3,2.45243e-16,0
-2.58298,-1.02402,-2.00964e-18,3,2.45243e-16,0
-2.58298,-1.01802,-1.67673e-18,3,2.45243e-16,0
-2.58298,-1.01201,-2.21118e-18,3,2.45243e-16,0
-2.58298,-1.00601,-2.74564e-18,3,2.45243e-16,0
-2.58298,-1,-3.28009e-18,3,2.45243e-16,0
-2.58298,-0.993994,-3.81454e-18,3,2.45243e-16,0
-2.58298,-0.987988,-3.14138e-18,3,2.45243e-16,0
-2.58298,-0.981982,-6.97177e-18,3,2.45243e-16,0
-2.58298,-0.975976,-5.19743e-18,3,3.58149e-16,0
-2.58298,-0.96997,-1.03411e-18,3,3.58149e-16,0
-2.58298,-0.963964,-4.50356e-18,3,3.58149e-16,0
-2.58298,-0.957958,-4.50356e-18,3,3.58149e-16,0
-2.58298,-0.951952,-1.03411e-18,3,3.58149e-16,0
-2.58298,-0.945946,-4.50356e-18,3,3.58149e-16,0
-2.58298,-0.93994,-4.50356e-18,3,3.58149e-16,0
-2.58298,-0.933934,-4.50356e-18,3,3.58149e-16,0
-2.58298,-0.927928,-3.91053e-18,3,3.58149e-16,0
-2.58298,-0.921922,-4.4384e-18,3,3.58149e-16,0
-2.58298,-0.915916,-4.96626e-18,3,3.58149e-16,0
-2.58298,-0.90991,-7.05538e-18,3,3.58149e-16,0
-2.58298,-0.903904,-5.15463e-18,3,3.58149e-16,0
-2.58298,-0.897898,-6.72333e-18,3,3.58149e-16,0
-2.58298,-0.891892,-7.73495e-18,3,3.58149e-16,0
-2.58298,-0.885886,-6.4847e-18,3,3.58149e-16,0
-2.58298,-0.87988,-6.5852e-18,3,2.89874e-16,0
-2.58298,-0.873874,-7.27911e-18,3,2.89874e-16,0
-2.58298,-0.867868,-7.27912e-18,3,2.89874e-16,0
-2.58298,-0.861862,-7.27912e-18,3,2.89874e-16,0
-2.58298,-0.855856,-3.80967e-18,3,2.89874e-16,0
-2.58298,-0.84985,-7.27912e-18,3,2.89874e-16,0
-2.58298,-0.843844,-4.50356e-18,3,2.89874e-16,0
-2.58298,-0.837838,-6.58523e-18,3,2.89874e-16,0
-2.58298,-0.831832,-9.73093e-18,3,2.89874e-16,0
-2.58298,-0.825826,-1.00459e-17,3,2.89874e-16,0
-2.58298,-0.81982,-1.03935e-17,3,2.89874e-16,0
-2.58298,-0.813814,-9.87364e-18,3,2.89874e-16,0
-2.58298,-0.807808,-9.35381e-18,3,2.89874e-16,0
-2.58298,-0.801802,-8.83398e-18,3,2.89874e-16,0
-2.58298,-0.795796,-9.02561e-18,3,2.89874e-16,0
-2.58298,-0.78979,-8.58164e-18,3,2.89874e-16,0
-2.58298,-0.783784,-5.19742e-18,3,-2.01885e-16,0
-2.58298,-0.777778,-9.36077e-18,3,-2.01885e-16,0
-2.58298,-0.771772,-7.27912e-18,3,-2.01885e-16,0
-2.58298,-0.765766,-7.27912e-18,3,-2.01885e-16,0
-2.58298,-0.75976,-7.27912e-18,3,-2.01885e-16,0
-2.58298,-0.753754,-7.27912e-18,3,-2.01885e-16,0
-2.58298,-0.747748,-7.27912e-18,3,-2.01885e-16,0
-2.58298,-0.741742,-1.07486e-17,3,-2.01885e-16,0
-2.58298,-0.735736,-6.13721e-18,3,-2.01885e-16,0
-2.58298,-0.72973,-7.5618e-18,3,-2.01885e-16,0
-2.58298,-0.723724,-7.2083e-18,3,-2.01885e-16,0
-2.58298,-0.717718,-7.72217e-18,3,-2.01885e-16,0
-2.58298,-0.711712,-5.11353e-18,3,-2.01885e-16,0
-2.58298,-0.705706,-5.97434e-18,3,-2.01885e-16,0
-2.58298,-0.6997,-3.28566e-18,3,-2.01885e-16,0
-2.58298,-0.693694,-2.4331e-19,3,-2.01885e-16,0
-2.58298,-0.687688,-3.80965e-18,3,-1.70114e-16,0
-2.58298,-0.681682,-4.50356e-18,3,-1.70114e-16,0
-2.58298,-0.675676,-4.50356e-18,3,-1.70114e-16,0
-2.58298,-0.66967,-4.50356e-18,3,-1.70114e-16,0
-2.58298,-0.663664,-4.50356e-18,3,-1.70114e-16,0
-2.58298,-0.657658,-4.50356e-18,3,-1.70114e-16,0
-2.58298,-0.651652,-1.03411e-18,3,-1.70114e-16,0
-2.58298,-0.645646,-5.56983e-18,3,-1.70114e-16,0
-2.58298,-0.63964,-5.49078e-18,3,-1.70114e-16,0
-2.58298,-0.633634,-3.74207e-18,3,-1.70114e-16,0
-2.58298,-0.627628,-4.24849e-18,3,-1.70114e-16,0
-2.58298,-0.621622,-2.32631e-18,3,-1.70114e-16,0
-2.58298,-0.615616,-1.7919e-18,3,-1.70114e-16,0
-2.58298,-0.60961,-6.57033e-19,3,-1.70114e-16,0
-2.58298,-0.603604,-1.42363e-18,3,-1.70114e-16,0
-2.58298,-0.597598,-1.0341e-18,3,-3.09736e-16,0
-2.58298,-0.591592,-2.42189e-18,3,-3.09736e-16,0
-2.58298,-0.585586,-3.40225e-19,3,-3.09736e-16,0
-2.58298,-0.57958,-3.40225e-19,3,-3.09736e-16,0
-2.58298,-0.573574,-3.40225e-19,3,-3.09736e-16,0
-2.58298,-0.567568,-2.42189e-18,3,-3.09736e-16,0
-2.58298,-0.561562,-3.80967e-18,3,-3.09736e-16,0
-2.58298,-0.555556,-9.8389e-19,3,-3.09736e-16,0
-2.58298,-0.54955,6.85834e-19,3,-3.09736e-16,0
-2.58298,-0.543544,1.87153e-19,3,-3.09736e-16,0
-2.58298,-0.537538,2.11709e-18,3,-3.09736e-16,0
-2.58298,-0.531532,-4.63264e-19,3,-3.09736e-16,0
-2.58298,-0.525526,3.19469e-18,3,-3.09736e-16,0
-2.58298,-0.51952,2.34909e-18,3,-3.09736e-16,0
-2.58298,-0.513514,1.74146e-18,3,-3.37179e-16,0
-2.58298,-0.507508,4.517e-18,3,-3.37179e-16,0
-2.58298,-0.501502,2.43533e-18,3,-3.37179e-16,0
-2.58298,-0.495495,3.53664e-19,3,-3.37179e-16,0
-2.58298,-0.489489,2.43533e-18,3,-3.37179e-16,0
-2.58298,-0.483483,2.43533e-18,3,-3.37179e-16,0
-2.58298,-0.477477,3.53664e-19,3,-3.37179e-16,0
-2.58298,-0.471471,-1.05157e-18,3,-3.37179e-16,0
-2.58298,-0.465465,-5.0135e-19,3,-3.37179e-16,0
-2.58298,-0.459459,2.22341e-19,3,-3.37179e-16,0
-2.58298,-0.453453,7.86694e-20,3,-3.37179e-16,0
-2.58298,-0.447447,-1.79973e-18,3,-3.37179e-16,0
-2.58298,-0.441441,6.51992e-19,3,-3.37179e-16,0
-2.58298,-0.435435,2.06961e-18,3,-3.37179e-16,0
-2.58298,-0.429429,3.12923e-18,3,8.52691e-17,0
-2.58298,-0.423423,-1.03411e-18,3,8.52691e-17,0
-2.58298,-0.417417,-1.03411e-18,3,8.52691e-17,0
-2.58298,-0.411411,-1.03411e-18,3,8.52691e-17,0
-2.58298,-0.405405,-1.03411e-18,3,8.52691e-17,0
-2.58298,-0.399399,-1.03411e-18,3,8.52691e-17,0
-2.58298,-0.393393,-1.81971e-18,3,8.52691e-17,0
-2.58298,-0.387387,-1.2611e-18,3,8.52691e-17,0
-2.58298,-0.381381,1.64882e-19,3,8.52691e-17,0
-2.58298,-0.375375,-3.17336e-19,3,8.52691e-17,0
-2.58298,-0.369369,-4.5261e-19,3,8.52691e-17,0
-2.58298,-0.363363,-4.75792e-18,3,8.52691e-17,0
-2.58298,-0.357357,-7.1483e-18,3,8.52691e-17,0
-2.58298,-0.351351,-7.97299e-18,3,2.64052e-16,0
-2.58298,-0.345345,-7.27912e-18,3,2.64052e-16,0
-2.58298,-0.339339,-7.27912e-18,3,2.64052e-16,0
-2.58298,-0.333333,-7.27912e-18,3,2.64052e-16,0
-2.58298,-0.327327,-3.80967e-18,3,2.64052e-16,0
-2.58298,-0.321321,-7.27912e-18,3,2.64052e-16,0
-2.58298,-0.315315,-5.94669e-18,3,2.64052e-16,0
-2.58298,-0.309309,-5.5528e-18,3,2.64052e-16,0
-2.58298,-0.303303,-6.02627e-18,3,2.64052e-16,0
-2.58298,-0.297297,-7.88752e-18,3,2.64052e-16,0
-2.58298,-0.291291,-6.62627e-18,3,2.64052e-16,0
-2.58298,-0.285285,-9.1881e-18,3,2.64052e-16,0
-2.58298,-0.279279,-1.4218e-17,3,8.8904e-17,0
-2.58298,-0.273273,-1.21363e-17,3,8.8904e-17,0
-2.58298,-0.267267,-9.36079e-18,3,8.8904e-17,0
-2.58298,-0.261261,-9.36079e-18,3,8.8904e-17,0
-2.58298,-0.255255,-9.36079e-18,3,8.8904e-17,0
-2.58298,-0.249249,-9.36079e-18,3,8.8904e-17,0
-2.58298,-0.243243,-1.05953e-17,3,8.8904e-17,0
-2.58298,-0.237237,-1.1862e-17,3,8.8904e-17,0
-2.58298,-0.231231,-1.19794e-17,3,8.8904e-17,0
-2.58298,-0.225225,-1.14029e-17,3,8.8904e-17,0
-2.58298,-0.219219,-1.08265e-17,3,8.8904e-17,0
-2.58298,-0.213213,-9.12912e-18,3,8.8904e-17,0
-2.58298,-0.207207,-8.66687e-18,3,1.32777e-16,0
-2.58298,-0.201201,-7.973e-18,3,1.32777e-16,0
-2.58298,-0.195195,-5.89134e-18,3,1.32777e-16,0
-2.58298,-0.189189,-5.89134e-18,3,1.32777e-16,0
-2.58298,-0.183183,-5.89134e-18,3,1.32777e-16,0
-2.58298,-0.177177,-9.36079e-18,3,1.32777e-16,0
-2.58298,-0.171171,-9.66877e-18,3,1.32777e-16,0
-2.58298,-0.165165,-9.55987e-18,3,1.32777e-16,0
-2.58298,-0.159159,-9.14739e-18,3,1.32777e-16,0
-2.58298,-0.153153,-9.60228e-18,3,1.32777e-16,0
-2.58298,-0.147147,-1.00572e-17,3,1.32777e-16,0
-2.58298,-0.141141,-9.47789e-18,3,1.32777e-16,0
-2.58298,-0.135135,2.43535e-18,3,1.33802e-17,0
-2.58298,-0.129129,3.53664e-19,3,1.33802e-17,0
-2.58298,-0.123123,-1.03411e-18,3,1.33802e-17,0
-2.58298,-0.117117,3.53664e-19,3,1.33802e-17,0
-2.58298,-0.111111,3.53664e-19,3,1.33802e-17,0
-2.58298,-0.105105,-1.03411e-18,3,1.33802e-17,0
-2.58298,-0.0990991,2.67518e-18,3,1.33802e-17,0
-2.58298,-0.0930931,1.88322e-18,3,1.33802e-17,0
-2.58298,-0.0870871,3.86683e-18,3,1.33802e-17,0
-2.58298,-0.0810811,9.93204e-19,3,1.33802e-17,0
-2.58298,-0.0750751,4.18443e-18,3,1.33802e-17,0
-2.58298,-0.0690691,3.82313e-18,3,-7.03559e-17,0
-2.58298,-0.0630631,1.04755e-18,3,-7.03559e-17,0
-2.58298,-0.0570571,1.04755e-18,3,-7.03559e-17,0
-2.58298,-0.0510511,1.04755e-18,3,-7.03559e-17,0
-2.58298,-0.045045,1.04755e-18,3,-7.03559e-17,0
-2.58298,-0.039039,4.95962e-18,3,-7.03559e-17,0
-2.58298,-0.033033,4.61163e-18,3,-7.03559e-17,0
-2.58298,-0.027027,4.00343e-18,3,-7.03559e-17,0
-2.58298,-0.021021,5.99731e-18,3,-7.03559e-17,0
-2.58298,-0.015015,5.56671e-18,3,-7.03559e-17,0
-2.58298,-0.00900901,6.50896e-18,3,-7.03559e-17,0
-2.58298,-0.003003,5.2109e-18,3,-3.59496e-16,0
-2.58298,0.003003,6.59867e-18,3,-3.59496e-16,0
-2.58298,0.00900901,3.12922e-18,3,-3.59496e-16,0
-2.58298,0.015015,3.12922e-18,3,-3.59496e-16,0
-2.58298,0.021021,1.04755e-18,3,-3.59496e-16,0
-2.58298,0.027027,-2.13286e-20,3,-3.59496e-16,0
-2.58298,0.033033,7.68956e-19,3,-3.59496e-16,0
-2.58298,0.039039,1.38577e-18,3,-3.59496e-16,0
-2.58298,0.045045,2.67858e-19,3,-3.59496e-16,0
-2.58298,0.0510511,-2.33126e-18,3,-3.59496e-16,0
-2.58298,0.0570571,-3.11576e-18,3,-2.64489e-16,0
-2.58298,0.0630631,-3.11578e-18,3,-2.64489e-16,0
-2.58298,0.0690691,-3.11578e-18,3,-2.64489e-16,0
-2.58298,0.0750751,-3.11578e-18,3,-2.64489e-16,0
-2.58298,0.0810811,-3.11578e-18,3,-2.64489e-16,0
-2.58298,0.0870871,-2.29272e-18,3,-2.64489e-16,0
-2.58298,0.0930931,-1.83823e-18,3,-2.64489e-16,0
-2.58298,0.0990991,-6.89852e-19,3,-2.64489e-16,0
-2.58298,0.105105,-1.79661e-18,3,-2.64489e-16,0
-2.58298,0.111111,-2.12943e-18,3,-2.64489e-16,0
-2.58298,0.117117,-1.0341e-18,3,-1.38687e-16,0
-2.58298,0.123123,-1.03411e-18,3,-1.38687e-16,0
-2.58298,0.129129,-4.50356e-18,3,-1.38687e-16,0
-2.58298,0.135135,-1.03411e-18,3,-1.38687e-16,0
-2.58298,0.141141,-4.50356e-18,3,-1.38687e-16,0
-2.58298,0.147147,4.08541e-19,3,-1.38687e-16,0
-2.58298,0.153153,-1.66194e-19,3,-1.38687e-16,0
-2.58298,0.159159,-2.20512e-19,3,-1.38687e-16,0
-2.58298,0.165165,2.20388e-20,3,-1.38687e-16,0
-2.58298,0.171171,-5.19742e-18,3,3.7588e-16,0
-2.58298,0.177177,-3.11578e-18,3,3.7588e-16,0
-2.58298,0.183183,-3.80967e-18,3,3.7588e-16,0
-2.58298,0.189189,-3.80967e-18,3,3.7588e-16,0
-2.58298,0.195195,-7.27912e-18,3,3.7588e-16,0
-2.58298,0.201201,-7.47826e-18,3,3.7588e-16,0
-2.58298,0.207207,-6.8266e-18,3,3.7588e-16,0
-2.58298,0.213213,-6.17494e-18,3,3.7588e-16,0
-2.58298,0.219219,-4.97705e-18,3,3.7588e-16,0
-2.58298,0.225225,-2.79661e-18,3,3.7588e-16,0
-2.58298,0.231231,-5.89134e-18,3,4.42462e-16,0
-2.58298,0.237237,-2.42189e-18,3,4.42462e-16,0
-2.58298,0.243243,-5.89134e-18,3,4.42462e-16,0
-2.58298,0.249249,-2.42189e-18,3,4.42462e-16,0
-2.58298,0.255255,-1.1171e-18,3,4.42462e-16,0
-2.58298,0.261261,-5.39586e-19,3,4.42462e-16,0
-2.58298,0.267267,1.24664e-19,3,4.42462e-16,0
-2.58298,0.273273,-2.15256e-19,3,4.42462e-16,0
-2.58298,0.279279,2.43536e-18,3,4.30417e-16,0
-2.58298,0.285285,3.82311e-18,3,4.30417e-16,0
-2.58298,0.291291,3.82311e-18,3,4.30417e-16,0
-2.58298,0.297297,3.82311e-18,3,4.30417e-16,0
-2.58298,0.303303,2.93492e-18,3,4.30417e-16,0
-2.58298,0.309309,3.62854e-18,3,4.30417e-16,0
-2.58298,0.315315,3.78548e-18,3,4.30417e-16,0
-2.58298,0.321321,3.07506e-18,3,4.30417e-16,0
-2.58298,0.327327,2.35797e-18,3,4.30417e-16,0
-2.58298,0.333333,-3.11578e-18,3,1.43781e-16,0
-2.58298,0.339339,-3.80967e-18,3,1.43781e-16,0
-2.58298,0.345345,-3.80967e-18,3,1.43781e-16,0
-2.58298,0.351351,-3.80967e-18,3,1.43781e-16,0
-2.58298,0.357357,-4.76459e-18,3,1.43781e-16,0
-2.58298,0.363363,-5.63483e-18,3,1.43781e-16,0
-2.58298,0.369369,-5.29076e-18,3,1.43781e-16,0
-2.58298,0.375375,-5.82073e-18,3,1.43781e-16,0
-2.58298,0.381381,-4.50355e-18,3,4.07079e-17,0
-2.58298,0.387387,-7.27912e-18,3,4.07079e-17,0
-2.58298,0.393393,-7.27912e-18,3,4.07079e-17,0
-2.58298,0.399399,-3.80967e-18,3,4.07079e-17,0
-2.58298,0.405405,-7.66909e-18,3,4.07079e-17,0
-2.58298,0.411411,-7.65776e-18,3,4.07079e-17,0
-2.58298,0.417417,-5.9117e-18,3,4.07079e-17,0
-2.58298,0.423423,-3.82536e-18,3,4.07079e-17,0
-2.58298,0.429429,-3.11578e-18,3,-1.80539e-16,0
-2.58298,0.435435,-3.11578e-18,3,-1.80539e-16,0
-2.58298,0.441441,-3.11578e-18,3,-1.80539e-16,0
-2.58298,0.447447,-3.15028e-18,3,-1.80539e-16,0
-2.58298,0.453453,-2.99404e-18,3,-1.80539e-16,0
-2.58298,0.459459,-2.62096e-18,3,-1.80539e-16,0
-2.58298,0.465465,-4.2495e-18,3,-1.80539e-16,0
-2.58298,0.471471,-6.58522e-18,3,2.25549e-16,0
-2.58298,0.477477,-8.6669e-18,3,2.25549e-16,0
-2.58298,0.483483,-5.19745e-18,3,2.25549e-16,0
-2.58298,0.489489,-6.58523e-18,3,2.25549e-16,0
-2.58298,0.495495,-4.12848e-18,3,2.25549e-16,0
-2.58298,0.501502,-1.65832e-18,3,2.25549e-16,0
-2.58298,0.507508,-1.62347e-18,3,2.25549e-16,0
-2.58298,0.513514,1.04757e-18,3,-2.38153e-16,0
-2.58298,0.51952,4.517e-18,3,-2.38153e-16,0
-2.58298,0.525526,4.517e-18,3,-2.38153e-16,0
-2.58298,0.531532,4.517e-18,3,-2.38153e-16,0
-2.58298,0.537538,4.73349e-18,3,-2.38153e-16,0
-2.58298,0.543544,2.53595e-18,3,-2.38153e-16,0
-2.58298,0.54955,8.57165e-18,3,-2.38153e-16,0
-2.58298,0.555556,7.98646e-18,3,3.665e-17,0
-2.58298,0.561562,1.00681e-17,3,3.665e-17,0
-2.58298,0.567568,1.00681e-17,3,3.665e-17,0
-2.58298,0.573574,1.08198e-17,3,3.665e-17,0
-2.58298,0.57958,1.30192e-17,3,3.665e-17,0
-2.58298,0.585586,1.41343e-17,3,3.665e-17,0
-2.58298,0.591592,1.74979e-17,3,3.665e-17,0
-2.58298,0.597598,1.63131e-17,3,1.52522e-17,0
-2.58298,0.603604,1.42315e-17,3,1.52522e-17,0
-2.58298,0.60961,1.7007e-17,3,1.52522e-17,0
-2.58298,0.615616,1.66567e-17,3,1.52522e-17,0
-2.58298,0.621622,1.77892e-17,3,1.52522e-17,0
-2.58298,0.627628,1.52722e-17,3,1.52522e-17,0
-2.58298,0.633634,1.77009e-17,3,-2.81421e-17,0
-2.58298,0.63964,1.7007e-17,3,-2.81421e-17,0
-2.58298,0.645646,2.04765e-17,3,-2.81421e-17,0
-2.58298,0.651652,1.7273e-17,3,-2.81421e-17,0
-2.58298,0.657658,1.87707e-17,3,-2.81421e-17,0
-2.58298,0.663664,2.03483e-17,3,-2.81421e-17,0
-2.58298,0.66967,1.63131e-17,3,-8.07823e-18,0
-2.58298,0.675676,1.49253e-17,3,-8.07823e-18,0
-2.58298,0.681682,1.7007e-17,3,-8.07823e-18,0
-2.58298,0.687688,1.66116e-17,3,-8.07823e-18,0
-2.58298,0.693694,1.77812e-17,3,-8.07823e-18,0
-2.58298,0.6997,1.77297e-17,3,-8.07823e-18,0
-2.58298,0.705706,1.49253e-17,3,2.4695e-17,0
-2.58298,0.711712,1.14559e-17,3,2.4695e-17,0
-2.58298,0.717718,5.90478e-18,3,2.4695e-17,0
-2.58298,0.723724,8.08976e-18,3,2.4695e-17,0
-2.58298,0.72973,9.97285e-18,3,2.4695e-17,0
-2.58298,0.735736,1.14559e-17,3,-6.76582e-17,0
-2.58298,0.741742,1.14559e-17,3,-6.76582e-17,0
-2.58298,0.747748,1.14559e-17,3,-6.76582e-17,0
-2.58298,0.753754,1.20181e-17,3,-6.76582e-17,0
-2.58298,0.75976,1.73911e-17,3,-6.76582e-17,0
-2.58298,0.765766,1.64257e-17,3,-6.76582e-17,0
-2.58298,0.771772,1.04755e-18,3,-1.07797e-17,0
-2.58298,0.777778,1.04755e-18,3,-1.07797e-17,0
-2.58298,0.783784,1.03794e-18,3,-1.07797e-17,0
-2.58298,0.78979,9.67864e-19,3,-1.07797e-17,0
-2.58298,0.795796,4.57407e-19,3,-1.07797e-17,0
-2.58298,0.801802,-3.11578e-18,3,2.33753e-16,0
-2.58298,0.807808,1.74144e-18,3,2.33753e-16,0
-2.58298,0.813814,-1.90064e-18,3,2.33753e-16,0
-2.58298,0.81982,-1.47148e-18,3,2.33753e-16,0
-2.58298,0.825826,6.42342e-19,3,2.33753e-16,0