/*--------------------------------*- C++ -*----------------------------------*\
  =========                 |
  \\      /  F ield         | OpenFOAM: The Open Source CFD Toolbox
   \\    /   O peration     | Website:  https://openfoam.org
    \\  /    A nd           | Version:  7
     \\/     M anipulation  |
\*---------------------------------------------------------------------------*/
FoamFile
{
    version     2.0;
    format      ascii;
    class       volScalarField;
    location    "5";
    object      p;
}
// * * * * * * * * * * * * * * * * * * * * * * * * * * * * * * * * * * * * * //

dimensions      [1 -1 -2 0 0 0 0];

internalField   nonuniform List<scalar> 
12750
(
0.130682
0.205034
0.280723
0.350198
0.424954
0.48595
0.553604
0.59705
0.651496
0.671434
0.664134
0.642229
0.643537
0.650836
0.664849
0.677696
0.681657
0.685397
0.676432
0.657613
0.640428
0.631947
0.63365
0.640292
0.651992
0.665156
0.676909
0.693037
0.709872
0.733406
0.0628415
0.0625121
0.0618266
0.0663273
0.0814805
0.118225
0.166566
0.25463
0.368003
0.486661
0.591029
0.645561
0.685984
0.688245
0.700166
0.701063
0.689084
0.667668
0.643007
0.634456
0.638609
0.63985
0.64564
0.657839
0.671149
0.681676
0.692161
0.709319
0.724585
0.740991
0.0626812
0.0623021
0.0619472
0.061698
0.0616434
0.0614244
0.0612787
0.0614694
0.0642834
0.0901124
0.151918
0.263643
0.383325
0.487447
0.583428
0.626633
0.656027
0.639982
0.642678
0.646303
0.649177
0.656074
0.664036
0.674612
0.682573
0.692974
0.708088
0.724342
0.734011
0.746697
0.0625419
0.0621952
0.0620632
0.0621994
0.0621432
0.0618267
0.0617506
0.0620727
0.0621752
0.0615763
0.0601824
0.0582298
0.0638112
0.103245
0.175449
0.297085
0.449341
0.5518
0.658403
0.667788
0.672064
0.671194
0.681274
0.682941
0.687843
0.701195
0.719547
0.727896
0.741848
0.755325
0.0626451
0.0624006
0.062422
0.0624671
0.0623119
0.06193
0.0619339
0.0617908
0.0606949
0.0588199
0.0574151
0.0567192
0.0569556
0.0575167
0.0578048
0.0574961
0.0755903
0.165832
0.318629
0.470623
0.603036
0.639433
0.692952
0.691147
0.703373
0.726537
0.745059
0.741901
0.746498
0.756285
0.0628194
0.0626954
0.0625897
0.062542
0.0622517
0.0618469
0.0613917
0.0600797
0.0578412
0.0559755
0.0557211
0.0560108
0.0567439
0.0583169
0.0601113
0.0597144
0.0596955
0.0611259
0.0633587
0.108135
0.201204
0.358451
0.513156
0.607246
0.688035
0.718979
0.740162
0.746912
0.755937
0.768343
0.0627974
0.0626739
0.0622575
0.0614374
0.0603519
0.0594172
0.0586451
0.0575056
0.055746
0.0549644
0.0551764
0.0564759
0.0589049
0.060552
0.062381
0.063103
0.0639108
0.0662663
0.0697317
0.0723123
0.0763249
0.082904
0.113534
0.223297
0.372276
0.522893
0.647002
0.71031
0.745163
0.769684
0.0602725
0.0593171
0.0584962
0.0576773
0.0568306
0.0566633
0.0565958
0.0563621
0.0553609
0.0550534
0.0561591
0.058845
0.0624341
0.0650122
0.0656264
0.0666029
0.0678313
0.0711405
0.0756662
0.0776812
0.0818991
0.0880368
0.0915154
0.0964366
0.101349
0.137352
0.23036
0.402147
0.570393
0.714279
0.0564791
0.0562096
0.0561755
0.0560165
0.0559506
0.0560811
0.0561818
0.0566094
0.0579908
0.059594
0.0612405
0.0635694
0.0676699
0.0700335
0.0692074
0.069399
0.0720826
0.0775182
0.0851856
0.0875834
0.0880611
0.0930271
0.101766
0.107509
0.114254
0.116109
0.118733
0.1232
0.162775
0.361118
0.0558551
0.0558405
0.0559304
0.0560019
0.0561888
0.0568385
0.0584489
0.0619957
0.0664901
0.0695584
0.0700922
0.0703136
0.0719027
0.0731389
0.0735505
0.0760695
0.0827585
0.0877998
0.0933863
0.097071
0.0984899
0.102151
0.111413
0.11677
0.120953
0.127213
0.132935
0.138594
0.142643
0.151032
0.0566624
0.0573097
0.0588259
0.0611357
0.0640701
0.0670492
0.0702182
0.0728093
0.075274
0.0766977
0.0761002
0.0745492
0.0747469
0.0777125
0.0841684
0.0917627
0.0983235
0.100507
0.101813
0.105474
0.111271
0.116794
0.122153
0.128734
0.130866
0.135578
0.142759
0.148946
0.154803
0.165642
0.0680024
0.0695115
0.0715484
0.0739355
0.0760513
0.0777633
0.0797305
0.0796977
0.0798808
0.0817225
0.0829085
0.0840975
0.0880138
0.0948389
0.103007
0.107597
0.110236
0.111544
0.113226
0.116786
0.123844
0.130948
0.134023
0.139739
0.142306
0.145301
0.152658
0.161748
0.167276
0.176341
0.0829568
0.0832762
0.0834266
0.083638
0.0841467
0.0851835
0.0876609
0.0890958
0.0910619
0.0950582
0.10056
0.106673
0.111193
0.114572
0.118381
0.119008
0.119557
0.121995
0.126363
0.132112
0.137647
0.144438
0.148468
0.150075
0.155026
0.161637
0.170088
0.17635
0.180506
0.189336
0.0973329
0.0978093
0.0983428
0.0990173
0.100301
0.102905
0.107036
0.112354
0.117427
0.121121
0.123418
0.126626
0.127587
0.127954
0.128863
0.130822
0.133683
0.138596
0.144331
0.150881
0.155173
0.158942
0.162998
0.165209
0.170321
0.180637
0.187891
0.192855
0.197423
0.205754
0.121853
0.123361
0.124961
0.12621
0.126905
0.128255
0.130631
0.134819
0.13849
0.138414
0.138886
0.141671
0.14343
0.143607
0.145509
0.151128
0.159129
0.165138
0.169711
0.172958
0.17612
0.177019
0.180046
0.187099
0.196651
0.20399
0.206961
0.21074
0.214729
0.222427
0.14879
0.150357
0.152102
0.153989
0.154195
0.154364
0.155289
0.157099
0.161411
0.163709
0.165066
0.167927
0.172951
0.178641
0.183022
0.187396
0.192423
0.194666
0.196999
0.198848
0.200888
0.20524
0.21006
0.216929
0.224119
0.226895
0.230622
0.23272
0.235999
0.244582
0.185637
0.187126
0.189032
0.191439
0.194338
0.195221
0.196271
0.197926
0.200326
0.203965
0.207361
0.209731
0.212418
0.215552
0.217086
0.218464
0.220084
0.221501
0.223163
0.226718
0.232559
0.238193
0.243448
0.24927
0.25086
0.253364
0.256227
0.260331
0.264809
0.271296
0.236853
0.236983
0.23757
0.23885
0.241939
0.245271
0.245154
0.244862
0.245583
0.247641
0.250022
0.250265
0.251563
0.253983
0.254745
0.255473
0.257931
0.262618
0.267204
0.270572
0.274551
0.27769
0.281606
0.283498
0.285598
0.286443
0.288178
0.291191
0.29484
0.300371
0.307318
0.305765
0.303974
0.303497
0.304064
0.306591
0.310148
0.311093
0.310142
0.308975
0.309842
0.312326
0.314386
0.315857
0.317507
0.319435
0.321384
0.323299
0.324752
0.324795
0.324349
0.324829
0.324394
0.323761
0.32404
0.32541
0.327354
0.331171
0.335193
0.337811
0.40014
0.400695
0.399932
0.395028
0.390584
0.389185
0.390784
0.394433
0.394415
0.391517
0.38964
0.389575
0.38929
0.38825
0.387424
0.386645
0.385494
0.384309
0.383815
0.383364
0.382992
0.3821
0.381153
0.381367
0.382146
0.383472
0.384779
0.38454
0.382319
0.37773
0.521389
0.522196
0.522024
0.521564
0.515528
0.505201
0.503736
0.504607
0.503812
0.498948
0.495674
0.494808
0.492413
0.486813
0.482662
0.480445
0.47769
0.474271
0.470935
0.467372
0.463438
0.459641
0.456507
0.453018
0.449944
0.445369
0.440229
0.433359
0.426958
0.420775
0.672749
0.669525
0.668348
0.668382
0.666424
0.65528
0.647438
0.646784
0.644765
0.636929
0.627348
0.623313
0.619531
0.612774
0.604137
0.596833
0.589879
0.582445
0.574467
0.567221
0.559079
0.551121
0.542585
0.533986
0.52513
0.515607
0.507413
0.499231
0.494953
0.487302
0.814165
0.809009
0.804757
0.804263
0.80412
0.79907
0.790558
0.784939
0.781651
0.777119
0.76896
0.760807
0.754159
0.746541
0.737288
0.727423
0.71773
0.70758
0.696779
0.685513
0.67365
0.661342
0.648934
0.637106
0.624741
0.613219
0.601524
0.590279
0.579676
0.561023
0.884555
0.882245
0.878563
0.876706
0.876749
0.876795
0.87533
0.872
0.867229
0.864376
0.861823
0.857888
0.852685
0.847506
0.841828
0.834941
0.827188
0.818652
0.809478
0.798943
0.787496
0.774733
0.761392
0.747114
0.731796
0.716071
0.69963
0.682143
0.666129
0.639946
0.90799
0.906523
0.903837
0.90313
0.903474
0.903912
0.903881
0.90329
0.90124
0.899204
0.898006
0.896839
0.89523
0.893552
0.891441
0.888323
0.884652
0.880997
0.876722
0.871356
0.864755
0.857195
0.848365
0.838055
0.826251
0.812662
0.797664
0.780769
0.764741
0.735518
0.926668
0.926094
0.923995
0.921576
0.921117
0.921621
0.921955
0.921478
0.91973
0.918156
0.917638
0.916983
0.915658
0.914449
0.913347
0.911755
0.909828
0.90801
0.906014
0.903522
0.900547
0.897145
0.893103
0.888185
0.882177
0.874828
0.865954
0.854919
0.843318
0.818958
0.955153
0.955061
0.954659
0.952274
0.948738
0.948143
0.948497
0.948156
0.945856
0.942803
0.942387
0.941912
0.940019
0.937453
0.935705
0.934138
0.932237
0.930052
0.927794
0.925477
0.923067
0.920467
0.917616
0.914493
0.910975
0.906938
0.90221
0.896351
0.89013
0.875686
0.986115
0.98575
0.985532
0.985061
0.983043
0.98098
0.980808
0.980474
0.979342
0.976539
0.974939
0.974103
0.972522
0.969886
0.96737
0.965163
0.96274
0.959897
0.956799
0.953643
0.950375
0.946931
0.943347
0.939638
0.935822
0.931834
0.927682
0.923071
0.918634
0.909316
0.998634
0.998542
0.998469
0.998376
0.998167
0.997812
0.997467
0.997228
0.997
0.996498
0.995806
0.995263
0.994635
0.993691
0.992557
0.991324
0.989877
0.988116
0.986027
0.983628
0.980872
0.977713
0.974157
0.970223
0.965914
0.961259
0.956345
0.951017
0.946101
0.937033
0.999967
0.999963
0.999958
0.999953
0.999946
0.999934
0.999917
0.999898
0.999882
0.999856
0.99981
0.999759
0.999699
0.999611
0.999487
0.999325
0.999106
0.998806
0.998396
0.99784
0.997089
0.99608
0.994742
0.992995
0.990745
0.987908
0.984443
0.980156
0.975751
0.966825
1
1
1
1
0.999999
0.999999
0.999999
0.999999
0.999999
0.999998
0.999997
0.999996
0.999995
0.999993
0.99999
0.999986
0.999979
0.999967
0.999949
0.99992
0.999872
0.999795
0.999667
0.999461
0.999128
0.998598
0.997782
0.9965
0.994883
0.990347
1
1
1
1
1
1
1
1
1
1
1
1
1
1
1
1
1
1
0.999999
0.999999
0.999998
0.999997
0.999994
0.999988
0.999976
0.999952
0.999904
0.999804
0.999641
0.998872
1
1
1
1
1
1
1
1
1
1
1
1
1
1
1
1
1
1
1
1
1
1
1
1
1
0.999999
0.999999
0.999996
0.999992
0.999954
1
1
1
1
1
1
1
1
1
1
1
1
1
1
1
1
1
1
1
1
1
1
1
1
1
1
1
1
1
0.999999
1
1
1
1
1
1
1
1
1
1
1
1
1
1
1
1
1
1
1
1
1
1
1
1
1
1
1
1
1
1
0.0639326
0.0632169
0.0630787
0.062769
0.0627258
0.0628377
0.0627943
0.0609515
0.057145
0.056052
0.0564175
0.0668501
0.0826252
0.0967177
0.120125
0.14747
0.184695
0.236711
0.307335
0.398535
0.520032
0.679707
0.821034
0.886503
0.908383
0.926736
0.955591
0.986757
0.998788
0.99997
1
1
1
1
1
0.063629
0.0634449
0.0632901
0.0628732
0.0626912
0.0621866
0.0620523
0.0598501
0.0570012
0.0573424
0.0586614
0.0695087
0.0862
0.100478
0.123625
0.153007
0.194899
0.250014
0.320828
0.416746
0.552755
0.716563
0.840933
0.89182
0.909783
0.927794
0.958489
0.989494
0.999243
0.999985
1
1
1
1
1
0.0635261
0.0636571
0.0635628
0.0629309
0.0622091
0.0608938
0.0601731
0.0587963
0.0571615
0.0593061
0.0608092
0.0704354
0.087416
0.101864
0.12508
0.157821
0.20142
0.255991
0.329539
0.434753
0.583104
0.741017
0.851569
0.894103
0.910241
0.928248
0.962524
0.991946
0.999489
0.999991
1
1
1
1
1
0.0632757
0.0637678
0.063621
0.0629587
0.0620007
0.06029
0.0587983
0.0568646
0.0575446
0.0603754
0.0622164
0.0706584
0.0879045
0.103844
0.129705
0.164459
0.206761
0.264013
0.346432
0.465554
0.609152
0.75898
0.860567
0.896657
0.911511
0.933654
0.968897
0.993727
0.999635
0.999994
1
1
1
1
1
0.0630993
0.0636962
0.0636208
0.0631184
0.0620556
0.0602409
0.0583229
0.0553569
0.0578298
0.0607121
0.0626747
0.0699399
0.0879458
0.107437
0.135488
0.168617
0.213326
0.277483
0.370093
0.484465
0.627403
0.776874
0.870682
0.900768
0.915802
0.938853
0.971873
0.994703
0.999728
0.999996
1
1
1
1
1
0.0629638
0.0635757
0.0636855
0.0634425
0.0622817
0.0604988
0.0580294
0.0542864
0.0568212
0.0602071
0.0628484
0.070309
0.0915265
0.111777
0.138482
0.173633
0.223675
0.295535
0.383658
0.49913
0.649339
0.799959
0.880417
0.903936
0.918196
0.941038
0.974092
0.995689
0.999815
0.999998
1
1
1
1
1
0.0628507
0.0635247
0.0637475
0.0640562
0.0632283
0.0618114
0.0575352
0.0529375
0.0541699
0.0591904
0.0629427
0.0737817
0.0957073
0.11438
0.142142
0.180967
0.237313
0.30554
0.394155
0.517695
0.68196
0.822855
0.886304
0.904969
0.918614
0.942534
0.976863
0.996848
0.999888
0.999999
1
1
1
1
1
0.0626091
0.0633106
0.0637749
0.0644325
0.0638343
0.0624428
0.0566052
0.052003
0.0524281
0.0590054
0.0644877
0.0761716
0.0968593
0.116926
0.14749
0.191734
0.245209
0.313175
0.408473
0.552669
0.714606
0.838174
0.889642
0.905455
0.918408
0.944476
0.981225
0.997861
0.999933
0.999999
1
1
1
1
1
0.0623376
0.0626272
0.0636131
0.0644932
0.0638609
0.0624467
0.0560099
0.0517419
0.0521154
0.0596819
0.067577
0.0779282
0.0980179
0.121006
0.156009
0.198369
0.251011
0.323926
0.440173
0.584714
0.7374
0.850294
0.892735
0.906042
0.920179
0.951671
0.985306
0.998477
0.999957
1
1
1
1
1
1
0.0621351
0.0620815
0.0631942
0.06445
0.0637905
0.0624924
0.0558778
0.0517515
0.0521394
0.0609082
0.0696087
0.0804333
0.100228
0.127837
0.161682
0.202822
0.259054
0.350145
0.466808
0.607124
0.75913
0.862979
0.89694
0.908533
0.925995
0.957236
0.987629
0.998848
0.999972
1
1
1
1
1
1
0.0619375
0.0617777
0.0627852
0.0639259
0.0635237
0.0624275
0.055915
0.0522247
0.0525767
0.0615621
0.0717391
0.0836319
0.105845
0.13316
0.164974
0.208831
0.27907
0.371546
0.484673
0.630775
0.785209
0.875095
0.901167
0.911997
0.929241
0.960008
0.989406
0.999166
0.999982
1
1
1
1
1
1
0.0619021
0.0617154
0.0623905
0.0626423
0.062545
0.0615916
0.0561913
0.0535389
0.0532849
0.0619038
0.0741947
0.087904
0.110576
0.13596
0.16955
0.222827
0.296818
0.384946
0.503918
0.663744
0.811025
0.883836
0.903252
0.913273
0.930864
0.96289
0.991561
0.999458
0.99999
1
1
1
1
1
1
0.0620522
0.0620096
0.0619781
0.0615716
0.0612597
0.0602891
0.0560549
0.0539286
0.0536143
0.0623088
0.0767487
0.0911193
0.112431
0.138191
0.178826
0.238486
0.307243
0.399051
0.535426
0.699533
0.83123
0.889287
0.903935
0.913358
0.932016
0.967213
0.993919
0.999675
0.999995
1
1
1
1
1
1
0.0630315
0.0622952
0.0615975
0.060756
0.0598054
0.0587661
0.0547277
0.05395
0.0541177
0.0633126
0.0783642
0.0921419
0.113687
0.143057
0.192375
0.247122
0.317704
0.425349
0.573468
0.72862
0.847288
0.892682
0.904043
0.91319
0.93601
0.97361
0.995678
0.999796
0.999997
1
1
1
1
1
1
0.0640618
0.0624505
0.0614472
0.0602849
0.0587369
0.0572348
0.0536959
0.054088
0.0555588
0.063864
0.0786289
0.0925013
0.115927
0.155354
0.200013
0.255137
0.337347
0.460593
0.602621
0.755062
0.861271
0.895359
0.904515
0.916209
0.943582
0.977909
0.996698
0.999864
0.999998
1
1
1
1
1
1
0.0642656
0.0625873
0.0615785
0.0603305
0.0584644
0.0561877
0.0528816
0.054172
0.0564334
0.0638302
0.0777274
0.0950578
0.126157
0.162493
0.206137
0.268308
0.367928
0.48486
0.630448
0.783458
0.873271
0.898536
0.907106
0.920522
0.947496
0.980803
0.997522
0.999915
0.999999
1
1
1
1
1
1
0.0642089
0.062566
0.0625596
0.0614661
0.0593268
0.0550945
0.0517877
0.0528614
0.0565725
0.0639556
0.0789358
0.103542
0.133381
0.167724
0.214803
0.293554
0.387348
0.507797
0.665017
0.810596
0.883275
0.902045
0.909403
0.922644
0.95074
0.984014
0.998324
0.999952
0.999999
1
1
1
1
1
1
0.0635728
0.0624564
0.0635551
0.0624846
0.0602271
0.0535122
0.0501563
0.0512656
0.0567165
0.065402
0.0856607
0.110675
0.137215
0.174181
0.234092
0.310061
0.404468
0.538258
0.703211
0.833756
0.890844
0.903978
0.910631
0.924538
0.955083
0.987852
0.99895
0.999974
1
1
1
1
1
1
1
0.0625767
0.0623874
0.0636743
0.0626114
0.0602382
0.0516475
0.04883
0.0503959
0.0574764
0.0696693
0.0910787
0.113759
0.141178
0.186416
0.249415
0.323098
0.427204
0.579998
0.73752
0.852813
0.895576
0.904616
0.911163
0.927277
0.961908
0.990971
0.999324
0.999985
1
1
1
1
1
1
1
0.0615394
0.0620324
0.0631241
0.061705
0.0582146
0.0500342
0.0484157
0.0522681
0.062606
0.0744999
0.0936072
0.115126
0.148304
0.200838
0.259608
0.338856
0.466894
0.617057
0.768734
0.868072
0.898227
0.904655
0.911614
0.9328
0.967274
0.992993
0.999552
0.999992
1
1
1
1
1
1
1
0.0611053
0.06161
0.0613074
0.0587878
0.0549605
0.0494778
0.0497758
0.0571185
0.0674279
0.0767079
0.0954356
0.117925
0.162041
0.209431
0.270852
0.371639
0.501276
0.65171
0.798961
0.879607
0.899838
0.904872
0.914436
0.93719
0.971318
0.994706
0.999724
0.999996
1
1
1
1
1
1
1
0.0609118
0.0607285
0.0595925
0.0569131
0.0543036
0.0504144
0.0526821
0.0596056
0.0681945
0.0772047
0.0989027
0.13152
0.170971
0.218271
0.293373
0.403144
0.532658
0.689321
0.825937
0.888154
0.901288
0.906465
0.9171
0.941036
0.975962
0.996434
0.99985
0.999998
1
1
1
1
1
1
1
0.060253
0.0593878
0.0587834
0.056703
0.0545595
0.0524558
0.05379
0.0597621
0.0673058
0.0774387
0.10661
0.139771
0.177454
0.232193
0.32331
0.428904
0.566977
0.729192
0.848578
0.894243
0.903161
0.908173
0.919335
0.946304
0.981645
0.99774
0.999919
0.999999
1
1
1
1
1
1
1
0.059161
0.058185
0.0585557
0.0568412
0.0549276
0.0532681
0.0532684
0.0568777
0.0667478
0.083959
0.113474
0.143851
0.185046
0.257936
0.344413
0.455975
0.611708
0.76629
0.866591
0.898159
0.904659
0.909951
0.922893
0.953591
0.985733
0.998465
0.999953
0.999999
1
1
1
1
1
1
1
0.0585817
0.0575768
0.058529
0.0566658
0.054699
0.0528187
0.0510841
0.0539917
0.0705438
0.091362
0.116108
0.148882
0.203237
0.276991
0.365566
0.496278
0.65566
0.800074
0.87988
0.900297
0.905139
0.911744
0.927253
0.958362
0.988379
0.998946
0.999973
1
1
1
1
1
1
1
1
0.0584191
0.0573509
0.0586657
0.0559375
0.0532083
0.0509745
0.0499752
0.0542025
0.0757247
0.0945615
0.119169
0.159091
0.223042
0.293982
0.394936
0.54078
0.698058
0.829847
0.888895
0.901435
0.90509
0.911991
0.929965
0.962647
0.991151
0.999369
0.999987
1
1
1
1
1
1
1
1
0.0582874
0.0571144
0.0585479
0.0548438
0.0513266
0.0495659
0.0496417
0.0569991
0.0782054
0.0957737
0.126986
0.179615
0.237206
0.313196
0.437591
0.583239
0.739889
0.853876
0.894834
0.902274
0.905077
0.911499
0.932356
0.968605
0.994253
0.999681
0.999994
1
1
1
1
1
1
1
1
0.0582835
0.0567029
0.057252
0.0533865
0.0499009
0.0491709
0.0495027
0.0592637
0.0813176
0.100061
0.143886
0.192657
0.251797
0.348438
0.475393
0.626478
0.780048
0.872229
0.898786
0.903136
0.905717
0.913004
0.938846
0.976804
0.996515
0.999838
0.999997
1
1
1
1
1
1
1
1
0.0585083
0.0563303
0.0561459
0.0524154
0.0488013
0.0493755
0.0500886
0.0610458
0.0868251
0.115879
0.156561
0.203019
0.273123
0.383098
0.51541
0.676137
0.815202
0.885339
0.901418
0.904218
0.907502
0.919622
0.949185
0.982225
0.997623
0.999906
0.999999
1
1
1
1
1
1
1
1
0.0585998
0.0561334
0.0555037
0.051782
0.0477971
0.0499978
0.0540812
0.0657856
0.0950345
0.126273
0.162448
0.214631
0.306906
0.418716
0.562894
0.724895
0.844711
0.89373
0.902816
0.905232
0.91028
0.924751
0.954203
0.985351
0.998346
0.999947
0.999999
1
1
1
1
1
1
1
1
0.0583211
0.0560775
0.055261
0.0515471
0.0474613
0.0501715
0.0605941
0.0744117
0.101877
0.130438
0.168455
0.240399
0.33737
0.458228
0.618132
0.770134
0.867242
0.898421
0.903287
0.905506
0.911696
0.92783
0.958653
0.988746
0.999022
0.999975
1
1
1
1
1
1
1
1
1
0.0568171
0.0563128
0.0550229
0.051249
0.0473159
0.0507655
0.0672999
0.0821725
0.105102
0.133506
0.183877
0.270884
0.372192
0.511424
0.670924
0.810167
0.882718
0.900678
0.903364
0.905254
0.911526
0.930148
0.964862
0.992718
0.999526
0.99999
1
1
1
1
1
1
1
1
1
0.0553929
0.0559144
0.0537089
0.0490141
0.0461444
0.0518564
0.0709321
0.084209
0.105598
0.140032
0.216484
0.301592
0.413128
0.564745
0.722168
0.843014
0.892517
0.9017
0.903368
0.905131
0.911355
0.935227
0.974064
0.995754
0.999776
0.999996
1
1
1
1
1
1
1
1
1
0.0555834
0.0560781
0.0518648
0.0458301
0.0440464
0.0529176
0.0712994
0.082051
0.106765
0.168879
0.242316
0.332422
0.464786
0.619451
0.772247
0.867632
0.898086
0.902338
0.903529
0.905998
0.917097
0.947181
0.981011
0.997273
0.99988
0.999998
1
1
1
1
1
1
1
1
1
0.0559007
0.0563069
0.0510299
0.0448848
0.0431313
0.0522079
0.0700792
0.0823359
0.130482
0.194715
0.266819
0.373307
0.517568
0.678046
0.815987
0.8845
0.900874
0.903016
0.904486
0.908994
0.924465
0.954278
0.984995
0.998187
0.999935
0.999999
1
1
1
1
1
1
1
1
1
0.0558241
0.0559964
0.051042
0.045281
0.0431856
0.0489236
0.0679307
0.098365
0.156127
0.213407
0.293565
0.42368
0.576337
0.738006
0.850569
0.894465
0.902213
0.903578
0.905591
0.911996
0.928641
0.959457
0.988769
0.998968
0.999971
1
1
1
1
1
1
1
1
1
1
0.0567284
0.0551236
0.0509398
0.0483035
0.0464679
0.0475817
0.071969
0.118504
0.169731
0.231362
0.340007
0.482098
0.643818
0.790283
0.874907
0.899633
0.902894
0.903742
0.905846
0.913275
0.932349
0.966149
0.992905
0.99952
0.999989
1
1
1
1
1
1
1
1
1
1
0.0598012
0.0549071
0.0472742
0.0495471
0.0501585
0.0506144
0.0868733
0.135404
0.18208
0.264399
0.394197
0.546304
0.709844
0.833319
0.889744
0.901971
0.903272
0.903764
0.905507
0.913355
0.937754
0.975537
0.996073
0.999791
0.999996
1
1
1
1
1
1
1
1
1
1
0.0626114
0.0537571
0.0430503
0.0480579
0.0526548
0.0603932
0.102637
0.147603
0.202332
0.317367
0.456894
0.619446
0.76894
0.865013
0.897675
0.902815
0.903463
0.903926
0.905883
0.916994
0.949446
0.983162
0.997751
0.999903
0.999998
1
1
1
1
1
1
1
1
1
1
0.0605827
0.0476017
0.0395524
0.0464082
0.0569322
0.0726331
0.11533
0.157446
0.250897
0.375595
0.524448
0.690668
0.820419
0.884933
0.901224
0.903099
0.903582
0.904437
0.909251
0.927394
0.958957
0.987756
0.998663
0.999955
0.999999
1
1
1
1
1
1
1
1
1
1
0.0530712
0.0403759
0.0383539
0.0455025
0.0643074
0.0827744
0.129567
0.187144
0.301366
0.43691
0.603783
0.75735
0.858574
0.895749
0.902502
0.903271
0.903865
0.905814
0.913527
0.933481
0.965372
0.991448
0.999293
0.999981
1
1
1
1
1
1
1
1
1
1
1
0.048809
0.0391716
0.0385487
0.0484907
0.0740505
0.0912757
0.141354
0.237922
0.361205
0.51393
0.682971
0.815773
0.882505
0.900548
0.902934
0.903387
0.904265
0.907505
0.916575
0.938643
0.972443
0.994929
0.999692
0.999993
1
1
1
1
1
1
1
1
1
1
1
0.047215
0.0409439
0.0436497
0.0517397
0.079232
0.107269
0.171487
0.288595
0.427015
0.602634
0.758163
0.857982
0.895307
0.902276
0.903123
0.903358
0.904315
0.908116
0.918977
0.945966
0.981268
0.997438
0.999881
0.999998
1
1
1
1
1
1
1
1
1
1
1
0.0478047
0.0476998
0.0499669
0.0522251
0.0767554
0.131891
0.225533
0.353358
0.520748
0.691165
0.820627
0.883743
0.900647
0.902825
0.903192
0.90331
0.903974
0.907726
0.923041
0.95823
0.988432
0.99876
0.999955
0.999999
1
1
1
1
1
1
1
1
1
1
1
0.0465105
0.0511878
0.0530308
0.0527054
0.0761075
0.162313
0.286759
0.437829
0.619383
0.771767
0.863196
0.896822
0.902359
0.903023
0.90316
0.903323
0.904065
0.909919
0.934525
0.969014
0.992785
0.999397
0.999983
1
1
1
1
1
1
1
1
1
1
1
1
0.0417553
0.0507383
0.0527589
0.055393
0.116005
0.218098
0.361539
0.546663
0.715369
0.83423
0.887526
0.901873
0.902777
0.90314
0.903179
0.903493
0.906247
0.918901
0.944912
0.976614
0.995654
0.999728
0.999994
1
1
1
1
1
1
1
1
1
1
1
1
0.0352246
0.0379677
0.0469854
0.0638971
0.169117
0.298788
0.470874
0.655624
0.797689
0.873194
0.898694
0.903337
0.902851
0.903251
0.903327
0.904466
0.910164
0.925168
0.952819
0.9835
0.99775
0.999896
0.999998
1
1
1
1
1
1
1
1
1
1
1
1
0.0323375
0.0258438
0.0463111
0.105951
0.230892
0.401789
0.599093
0.75719
0.854245
0.893019
0.902592
0.903591
0.90278
0.903587
0.903734
0.905854
0.912941
0.930368
0.961947
0.990113
0.999031
0.999966
0.999999
1
1
1
1
1
1
1
1
1
1
1
1
0.0333584
0.0243413
0.0626524
0.177543
0.330885
0.532155
0.713716
0.833488
0.885391
0.900809
0.903634
0.903622
0.902512
0.903884
0.904327
0.906827
0.915125
0.937973
0.973611
0.994862
0.999629
0.99999
1
1
1
1
1
1
1
1
1
1
1
1
1
0.040024
0.0337872
0.107474
0.267377
0.47403
0.673004
0.810402
0.876917
0.89819
0.903108
0.903811
0.903546
0.902197
0.904027
0.904839
0.907524
0.919533
0.951284
0.983249
0.997498
0.999866
0.999997
1
1
1
1
1
1
1
1
1
1
1
1
1
0.0119685
0.0656256
0.193092
0.397932
0.626441
0.790746
0.871244
0.89646
0.902099
0.903635
0.903833
0.903295
0.901904
0.904043
0.905245
0.910353
0.931291
0.963662
0.98972
0.998864
0.999956
0.999999
1
1
1
1
1
1
1
1
1
1
1
1
1
0.0117919
0.107332
0.337647
0.592493
0.77214
0.862891
0.894471
0.90165
0.902984
0.903766
0.903824
0.903021
0.901736
0.903986
0.906192
0.918118
0.942477
0.973539
0.99432
0.999558
0.999987
1
1
1
1
1
1
1
1
1
1
1
1
1
1
0.0905806
0.276099
0.540335
0.752761
0.859457
0.894204
0.901595
0.90273
0.903189
0.903845
0.903775
0.902689
0.90169
0.904095
0.909478
0.925273
0.952687
0.982857
0.997415
0.999862
0.999997
1
1
1
1
1
1
1
1
1
1
1
1
1
1
0.255961
0.492346
0.743466
0.859598
0.894473
0.902015
0.902933
0.902967
0.90332
0.903965
0.903709
0.902334
0.901788
0.906239
0.913428
0.933249
0.964936
0.990692
0.999038
0.999965
0.999999
1
1
1
1
1
1
1
1
1
1
1
1
1
1
0.539346
0.746977
0.864921
0.896846
0.902658
0.903142
0.903029
0.902988
0.903517
0.904049
0.903565
0.90204
0.90259
0.909161
0.918825
0.945051
0.977167
0.995556
0.999699
0.999993
1
1
1
1
1
1
1
1
1
1
1
1
1
1
1
0.903182
0.903278
0.903395
0.903532
0.903491
0.903205
0.902972
0.903026
0.903717
0.904084
0.903402
0.901972
0.903815
0.913598
0.927366
0.95899
0.986758
0.998447
0.999973
1
1
1
1
1
1
1
1
1
1
1
1
1
1
1
1
0.903151
0.90315
0.903223
0.90342
0.903495
0.903399
0.903044
0.902924
0.903397
0.904124
0.903914
0.902226
0.903386
0.913376
0.928365
0.958522
0.986559
0.998207
0.999917
0.999999
1
1
1
1
1
1
1
1
1
1
1
1
1
1
1
0.903258
0.903157
0.903197
0.903353
0.903444
0.903524
0.90322
0.902984
0.903196
0.904035
0.904042
0.902568
0.903711
0.915397
0.934486
0.967246
0.991719
0.999225
0.999976
1
1
1
1
1
1
1
1
1
1
1
1
1
1
1
1
0.903279
0.903168
0.903185
0.903303
0.903419
0.903609
0.90348
0.903016
0.902968
0.903647
0.904119
0.902595
0.903639
0.916916
0.940211
0.972688
0.993936
0.99952
0.999987
1
1
1
1
1
1
1
1
1
1
1
1
1
1
1
1
0.903291
0.903183
0.903193
0.903279
0.903375
0.90364
0.903695
0.903078
0.902833
0.903125
0.904273
0.903331
0.904637
0.921287
0.94639
0.977584
0.995835
0.999737
0.999994
1
1
1
1
1
1
1
1
1
1
1
1
1
1
1
1
0.903318
0.903229
0.903201
0.903252
0.903311
0.90366
0.903787
0.90319
0.902671
0.902362
0.904451
0.904988
0.906678
0.924835
0.951294
0.982298
0.997301
0.999861
0.999997
1
1
1
1
1
1
1
1
1
1
1
1
1
1
1
1
0.90335
0.90329
0.903177
0.903182
0.903203
0.903599
0.903838
0.903327
0.902506
0.901875
0.904182
0.906422
0.90791
0.927256
0.957805
0.986938
0.998327
0.99993
0.999999
1
1
1
1
1
1
1
1
1
1
1
1
1
1
1
1
0.903364
0.90334
0.903139
0.903106
0.903101
0.903477
0.903901
0.903608
0.902512
0.901707
0.903588
0.907409
0.909738
0.932364
0.965035
0.990331
0.998984
0.999965
1
1
1
1
1
1
1
1
1
1
1
1
1
1
1
1
1
0.903437
0.903392
0.903125
0.903047
0.903041
0.903391
0.903996
0.903908
0.902849
0.901657
0.903085
0.908195
0.913519
0.939197
0.970364
0.99301
0.999421
0.999984
1
1
1
1
1
1
1
1
1
1
1
1
1
1
1
1
1
0.903475
0.903434
0.903144
0.903028
0.903003
0.903259
0.904014
0.904033
0.903067
0.901579
0.902604
0.909201
0.917256
0.943889
0.975784
0.995433
0.999693
0.999993
1
1
1
1
1
1
1
1
1
1
1
1
1
1
1
1
1
0.903452
0.903451
0.903254
0.903047
0.902988
0.90309
0.903883
0.90406
0.903092
0.901274
0.902168
0.9098
0.920911
0.950262
0.98189
0.997111
0.999841
0.999997
1
1
1
1
1
1
1
1
1
1
1
1
1
1
1
1
1
0.903373
0.903447
0.903471
0.90324
0.903011
0.903026
0.903685
0.904072
0.903212
0.90115
0.902107
0.910656
0.926399
0.957977
0.986362
0.998182
0.999922
0.999999
1
1
1
1
1
1
1
1
1
1
1
1
1
1
1
1
1
0.903135
0.903389
0.903613
0.903461
0.903113
0.90303
0.903496
0.903973
0.903552
0.901684
0.902907
0.914501
0.932076
0.963711
0.989893
0.998954
0.999964
0.999999
1
1
1
1
1
1
1
1
1
1
1
1
1
1
1
1
1
0.903002
0.903331
0.903644
0.903537
0.90329
0.902997
0.903111
0.903695
0.903698
0.90248
0.903579
0.916512
0.9368
0.970075
0.993279
0.999444
0.999984
1
1
1
1
1
1
1
1
1
1
1
1
1
1
1
1
1
1
0.902977
0.903287
0.903608
0.903544
0.903439
0.90297
0.902762
0.903011
0.903795
0.902749
0.903646
0.918176
0.943991
0.977362
0.995704
0.999709
0.999993
1
1
1
1
1
1
1
1
1
1
1
1
1
1
1
1
1
1
0.90306
0.903245
0.903476
0.903473
0.903602
0.903211
0.902733
0.902322
0.904002
0.903793
0.904703
0.923114
0.952397
0.982582
0.997253
0.999856
0.999997
1
1
1
1
1
1
1
1
1
1
1
1
1
1
1
1
1
1
0.903357
0.903236
0.903301
0.903383
0.903746
0.903541
0.902748
0.901906
0.904226
0.905909
0.907825
0.928801
0.958327
0.986932
0.998414
0.999935
0.999999
1
1
1
1
1
1
1
1
1
1
1
1
1
1
1
1
1
1
0.903587
0.903234
0.903132
0.903277
0.903849
0.903829
0.902813
0.901504
0.903373
0.90695
0.909803
0.932581
0.96534
0.991324
0.999157
0.999972
1
1
1
1
1
1
1
1
1
1
1
1
1
1
1
1
1
1
1
0.903653
0.903202
0.903007
0.903222
0.903926
0.903987
0.902752
0.900937
0.901777
0.906848
0.912589
0.939974
0.973818
0.994409
0.99956
0.999988
1
1
1
1
1
1
1
1
1
1
1
1
1
1
1
1
1
1
1
0.903644
0.903183
0.902976
0.903217
0.903973
0.904098
0.902788
0.900538
0.90126
0.906954
0.918567
0.949131
0.979787
0.996431
0.999787
0.999995
1
1
1
1
1
1
1
1
1
1
1
1
1
1
1
1
1
1
1
0.903517
0.903175
0.902997
0.903303
0.904012
0.904136
0.90311
0.900541
0.901455
0.910522
0.925073
0.954872
0.984768
0.997967
0.999906
0.999998
1
1
1
1
1
1
1
1
1
1
1
1
1
1
1
1
1
1
1
0.903317
0.90325
0.903131
0.903387
0.903934
0.904054
0.903252
0.901144
0.902212
0.913483
0.929525
0.961998
0.98993
0.99893
0.99996
0.999999
1
1
1
1
1
1
1
1
1
1
1
1
1
1
1
1
1
1
1
0.903135
0.90335
0.90329
0.903381
0.903531
0.903422
0.903021
0.901277
0.902162
0.914694
0.935985
0.971588
0.993619
0.999455
0.999984
1
1
1
1
1
1
1
1
1
1
1
1
1
1
1
1
1
1
1
1
0.903069
0.903439
0.903495
0.903481
0.903217
0.902319
0.902964
0.901282
0.902004
0.917752
0.946528
0.978625
0.996001
0.999745
0.999994
1
1
1
1
1
1
1
1
1
1
1
1
1
1
1
1
1
1
1
1
0.903203
0.903702
0.903783
0.90377
0.903052
0.901642
0.903372
0.903177
0.904518
0.925007
0.954327
0.984047
0.997762
0.999891
0.999998
1
1
1
1
1
1
1
1
1
1
1
1
1
1
1
1
1
1
1
1
0.903235
0.903924
0.904122
0.904063
0.90302
0.900985
0.903385
0.905682
0.90761
0.929729
0.96139
0.98947
0.998862
0.999956
0.999999
1
1
1
1
1
1
1
1
1
1
1
1
1
1
1
1
1
1
1
1
0.903005
0.903925
0.904406
0.904191
0.90287
0.900305
0.901674
0.906437
0.909876
0.935457
0.970927
0.993609
0.999449
0.999984
1
1
1
1
1
1
1
1
1
1
1
1
1
1
1
1
1
1
1
1
1
0.90248
0.903608
0.904578
0.90424
0.902474
0.899615
0.900083
0.905835
0.91488
0.946905
0.979243
0.996203
0.999757
0.999994
1
1
1
1
1
1
1
1
1
1
1
1
1
1
1
1
1
1
1
1
1
0.902279
0.903398
0.904583
0.904218
0.902508
0.899321
0.899813
0.907038
0.923806
0.955943
0.985016
0.997946
0.999902
0.999998
1
1
1
1
1
1
1
1
1
1
1
1
1
1
1
1
1
1
1
1
1
0.902521
0.903433
0.904636
0.904035
0.902831
0.8997
0.900603
0.912458
0.930916
0.963036
0.990298
0.999011
0.999963
0.999999
1
1
1
1
1
1
1
1
1
1
1
1
1
1
1
1
1
1
1
1
1
0.903542
0.903667
0.904679
0.903283
0.902766
0.900463
0.901361
0.915321
0.93742
0.972839
0.994472
0.999556
0.999987
1
1
1
1
1
1
1
1
1
1
1
1
1
1
1
1
1
1
1
1
1
1
0.904537
0.903746
0.903771
0.901879
0.902118
0.900436
0.901139
0.91814
0.948428
0.981817
0.996963
0.999819
0.999996
1
1
1
1
1
1
1
1
1
1
1
1
1
1
1
1
1
1
1
1
1
1
0.90529
0.903791
0.902836
0.900255
0.901179
0.901079
0.902111
0.926374
0.960092
0.987771
0.998477
0.999934
0.999999
1
1
1
1
1
1
1
1
1
1
1
1
1
1
1
1
1
1
1
1
1
1
0.905712
0.904008
0.902466
0.89926
0.900493
0.904429
0.909178
0.935679
0.968355
0.992497
0.999334