/*--------------------------------*- C++ -*----------------------------------*\
  =========                 |
  \\      /  F ield         | OpenFOAM: The Open Source CFD Toolbox
   \\    /   O peration     | Website:  https://openfoam.org
    \\  /    A nd           | Version:  7
     \\/     M anipulation  |
\*---------------------------------------------------------------------------*/
FoamFile
{
    version     2.0;
    format      ascii;
    class       volVectorField;
    location    "13.5";
    object      U;
}
// * * * * * * * * * * * * * * * * * * * * * * * * * * * * * * * * * * * * * //

dimensions      [0 1 -1 0 0 0 0];

internalField   nonuniform List<vector> 
90000
(
(3.11982 -0.822304 0)
(3.08911 -0.752273 0)
(3.06893 -0.703275 0)
(3.04386 -0.59897 0)
(3.03567 -0.5573 0)
(3.0286 -0.519134 0)
(3.02081 -0.469634 0)
(3.01238 -0.397591 0)
(3.01508 -0.378484 0)
(3.00944 -0.327903 0)
(3.00973 -0.298335 0)
(3.00442 -0.24698 0)
(3.00765 -0.230799 0)
(3.00167 -0.180259 0)
(3.00425 -0.167097 0)
(2.99871 -0.121498 0)
(3.0015 -0.112479 0)
(2.99645 -0.0710494 0)
(2.99971 -0.067686 0)
(2.99624 -0.031206 0)
(2.99709 -0.0334955 0)
(2.99197 -0.00755525 0)
(2.99203 -0.0152843 0)
(2.98539 -0.00186777 0)
(2.98188 0.00377438 0)
(2.97796 0.00801189 0)
(2.97547 0.0105951 0)
(2.97481 0.0118515 0)
(2.97442 0.0116309 0)
(2.9739 0.0118561 0)
(2.97291 0.0122363 0)
(2.97222 0.0130886 0)
(2.97206 0.0142545 0)
(2.9716 0.0173925 0)
(2.97022 0.0202463 0)
(2.96852 0.0239288 0)
(2.96561 0.0274931 0)
(2.96195 0.0319942 0)
(2.95994 0.0346052 0)
(2.95852 0.0331049 0)
(2.9571 0.0317723 0)
(2.95463 0.0283128 0)
(2.95217 0.0228348 0)
(2.95124 0.0189382 0)
(2.95017 0.0139221 0)
(2.94972 0.0121104 0)
(2.94896 0.00926613 0)
(2.94846 0.00804621 0)
(2.94891 0.00929403 0)
(2.95029 0.0125175 0)
(2.95265 0.0182676 0)
(2.95484 0.0214121 0)
(2.95378 0.0242487 0)
(2.95282 0.023857 0)
(2.95109 0.0224905 0)
(2.94867 0.0199098 0)
(2.94756 0.018033 0)
(2.94676 0.0134925 0)
(2.94669 0.0126273 0)
(2.94745 0.0140084 0)
(2.94862 0.016242 0)
(2.94985 0.0208817 0)
(2.95033 0.0206454 0)
(2.94939 0.0201958 0)
(2.94742 0.0190332 0)
(2.94647 0.0172477 0)
(2.94585 0.0137791 0)
(2.94615 0.0140319 0)
(2.94718 0.0159288 0)
(2.94851 0.0187616 0)
(2.94838 0.018342 0)
(2.94776 0.0167852 0)
(2.94692 0.0150907 0)
(2.94661 0.0151155 0)
(2.94704 0.016415 0)
(2.94814 0.0180565 0)
(2.94886 0.0188876 0)
(2.94856 0.0178672 0)
(2.94806 0.0162367 0)
(2.9478 0.0161872 0)
(2.94802 0.0170967 0)
(2.94861 0.0190713 0)
(2.94893 0.0193909 0)
(2.94916 0.0187388 0)
(2.94913 0.0172738 0)
(2.94929 0.0172478 0)
(2.94941 0.0177278 0)
(2.94957 0.0179116 0)
(2.94991 0.0178404 0)
(2.95017 0.0181319 0)
(2.95045 0.0182393 0)
(2.95066 0.0179375 0)
(2.95085 0.0176226 0)
(2.95117 0.0176841 0)
(2.95139 0.0179361 0)
(2.95157 0.0179178 0)
(2.9517 0.0177587 0)
(2.95191 0.0179077 0)
(2.9522 0.0180208 0)
(2.95266 0.0182001 0)
(3.15017 -0.885843 0)
(3.15011 -0.885787 0)
(3.15004 -0.885733 0)
(3.14993 -0.885616 0)
(3.14977 -0.885379 0)
(3.14946 -0.884774 0)
(3.14863 -0.883617 0)
(3.14727 -0.881156 0)
(3.14564 -0.877935 0)
(3.14315 -0.872339 0)
(3.13993 -0.864718 0)
(3.13572 -0.852214 0)
(3.13075 -0.838385 0)
(3.12393 -0.815153 0)
(3.1168 -0.792535 0)
(3.10682 -0.75402 0)
(3.09766 -0.721615 0)
(3.08414 -0.664255 0)
(3.07405 -0.623393 0)
(3.0569 -0.545192 0)
(3.04836 -0.500513 0)
(3.02858 -0.408259 0)
(3.023 -0.366511 0)
(3.00204 -0.269492 0)
(3.00258 -0.240457 0)
(2.98325 -0.156605 0)
(2.98594 -0.13699 0)
(2.96898 -0.0701501 0)
(2.97244 -0.0586137 0)
(2.95861 -0.0106913 0)
(2.96151 -0.00357281 0)
(2.953 0.0269618 0)
(2.95547 0.0319347 0)
(2.95038 0.0491029 0)
(2.95079 0.0527719 0)
(2.94739 0.0610562 0)
(2.9463 0.0636647 0)
(2.9454 0.0610612 0)
(2.94461 0.0553259 0)
(2.94428 0.0444735 0)
(2.94525 0.0314019 0)
(2.94653 0.0236727 0)
(2.94748 0.0178668 0)
(2.94774 0.0143513 0)
(2.94783 0.0115393 0)
(2.94809 0.0101735 0)
(2.94814 0.010099 0)
(2.94867 0.0128174 0)
(2.94944 0.0195277 0)
(2.95052 0.0264886 0)
(2.94732 0.0305212 0)
(2.94622 0.0303947 0)
(2.94517 0.0280463 0)
(2.94335 0.0239845 0)
(2.94177 0.0193739 0)
(2.93994 0.0141498 0)
(2.93958 0.0109272 0)
(2.93937 0.0137605 0)
(2.93997 0.0163002 0)
(2.94201 0.0218094 0)
(2.94343 0.0245803 0)
(2.94291 0.027201 0)
(2.94223 0.0261476 0)
(2.94074 0.0214978 0)
(2.93976 0.0155519 0)
(2.93902 0.0138035 0)
(2.93951 0.0144377 0)
(2.94056 0.0175699 0)
(2.94192 0.0203096 0)
(2.94252 0.0228556 0)
(2.94166 0.0215727 0)
(2.94016 0.0191492 0)
(2.93986 0.0153385 0)
(2.94052 0.0158657 0)
(2.94129 0.0172809 0)
(2.94287 0.0196822 0)
(2.94257 0.0197158 0)
(2.94178 0.0190345 0)
(2.94157 0.0163699 0)
(2.94179 0.016152 0)
(2.94235 0.0164306 0)
(2.94291 0.016967 0)
(2.94299 0.0167397 0)
(2.94314 0.0167905 0)
(2.94315 0.0171432 0)
(2.94331 0.0169427 0)
(2.94344 0.0169186 0)
(2.94369 0.0169857 0)
(2.94408 0.0172767 0)
(2.94441 0.0174126 0)
(2.94465 0.01754 0)
(2.94481 0.0174317 0)
(2.94505 0.0172367 0)
(2.94525 0.0175117 0)
(2.94543 0.0179268 0)
(2.94554 0.0181954 0)
(2.94573 0.0184272 0)
(2.94602 0.0187243 0)
(2.94636 0.0192234 0)
(2.94689 0.0187174 0)
(3.1466 -0.885027 0)
(3.14639 -0.88499 0)
(3.14617 -0.884903 0)
(3.14592 -0.884883 0)
(3.14568 -0.884778 0)
(3.14538 -0.884769 0)
(3.14515 -0.884648 0)
(3.145 -0.884597 0)
(3.14484 -0.884461 0)
(3.14465 -0.884279 0)
(3.14447 -0.88419 0)
(3.14427 -0.884115 0)
(3.14405 -0.883992 0)
(3.14383 -0.883856 0)
(3.14359 -0.883766 0)
(3.14333 -0.883656 0)
(3.14306 -0.883585 0)
(3.14274 -0.883432 0)
(3.14231 -0.883018 0)
(3.14154 -0.881474 0)
(3.13986 -0.878646 0)
(3.1367 -0.871811 0)
(3.13221 -0.860785 0)
(3.12444 -0.838822 0)
(3.1152 -0.811203 0)
(3.10123 -0.762623 0)
(3.08855 -0.717518 0)
(3.06976 -0.639287 0)
(3.0576 -0.58595 0)
(3.03636 -0.486075 0)
(3.02926 -0.439035 0)
(3.0079 -0.333635 0)
(3.00662 -0.300727 0)
(2.98661 -0.205179 0)
(2.98755 -0.187006 0)
(2.9719 -0.113581 0)
(2.97219 -0.107731 0)
(2.9632 -0.0617546 0)
(2.96622 -0.0648191 0)
(2.95402 -0.0396117 0)
(2.95535 -0.0310501 0)
(2.95004 -0.0174293 0)
(2.95113 -0.0132868 0)
(2.94837 -0.00666084 0)
(2.94771 0.000505038 0)
(2.94534 0.0057747 0)
(2.94109 0.0161711 0)
(2.9359 0.0246127 0)
(2.93671 0.0350852 0)
(2.93498 0.0341824 0)
(2.931 0.0313447 0)
(2.9286 0.0254903 0)
(2.92798 0.0184055 0)
(2.92797 0.0120818 0)
(2.93009 0.007439 0)
(2.93108 0.00781675 0)
(2.93212 0.00809868 0)
(2.9353 0.0137093 0)
(2.93658 0.0180288 0)
(2.93802 0.0244993 0)
(2.93828 0.024893 0)
(2.93783 0.0242889 0)
(2.93587 0.0196413 0)
(2.93437 0.0162497 0)
(2.93495 0.0117187 0)
(2.93528 0.0120281 0)
(2.9368 0.0162738 0)
(2.93751 0.0184068 0)
(2.93902 0.0206332 0)
(2.93891 0.0203888 0)
(2.93779 0.0168388 0)
(2.93656 0.014744 0)
(2.9368 0.0148396 0)
(2.93783 0.0172734 0)
(2.93887 0.0198841 0)
(2.93893 0.0201187 0)
(2.93878 0.0186361 0)
(2.93838 0.0159294 0)
(2.93812 0.0159294 0)
(2.93831 0.01732 0)
(2.93903 0.0193921 0)
(2.93901 0.0190834 0)
(2.93881 0.0180793 0)
(2.93897 0.016249 0)
(2.93895 0.0168153 0)
(2.9391 0.017781 0)
(2.93923 0.0176439 0)
(2.93949 0.0175384 0)
(2.9397 0.0178358 0)
(2.93997 0.018209 0)
(2.94004 0.0178358 0)
(2.94011 0.0174811 0)
(2.94032 0.0175355 0)
(2.94043 0.017833 0)
(2.9406 0.0178528 0)
(2.94064 0.017763 0)
(2.94093 0.0176776 0)
(2.94121 0.0179759 0)
(2.94158 0.0181597 0)
(2.94209 0.0183305 0)
(3.142 -0.883567 0)
(3.1418 -0.883528 0)
(3.1416 -0.883467 0)
(3.14139 -0.883414 0)
(3.14117 -0.883343 0)
(3.14095 -0.883311 0)
(3.14074 -0.883221 0)
(3.1405 -0.883194 0)
(3.14028 -0.883113 0)
(3.14005 -0.8831 0)
(3.13984 -0.883004 0)
(3.1396 -0.883005 0)
(3.13939 -0.882913 0)
(3.13915 -0.882935 0)
(3.13895 -0.882831 0)
(3.13872 -0.882854 0)
(3.13854 -0.882736 0)
(3.13832 -0.882784 0)
(3.13819 -0.882663 0)
(3.13787 -0.882727 0)
(3.1378 -0.882643 0)
(3.13775 -0.882521 0)
(3.1377 -0.882443 0)
(3.13765 -0.882328 0)
(3.13759 -0.88233 0)
(3.13756 -0.882225 0)
(3.1375 -0.882284 0)
(3.13735 -0.882006 0)
(3.13693 -0.880882 0)
(3.13543 -0.876737 0)
(3.13252 -0.868119 0)
(3.12585 -0.847384 0)
(3.11703 -0.818338 0)
(3.10139 -0.761139 0)
(3.08699 -0.705906 0)
(3.06272 -0.602471 0)
(3.04965 -0.53586 0)
(3.01886 -0.399312 0)
(3.01592 -0.341997 0)
(2.98346 -0.205826 0)
(2.9892 -0.169532 0)
(2.95994 -0.0667581 0)
(2.96539 -0.0443095 0)
(2.94323 0.018107 0)
(2.94409 0.0367427 0)
(2.93162 0.0656559 0)
(2.92772 0.0797829 0)
(2.92429 0.075318 0)
(2.92413 0.0562764 0)
(2.92351 0.0342781 0)
(2.92711 0.0244995 0)
(2.92696 0.0182045 0)
(2.925 0.0135827 0)
(2.92528 0.0128372 0)
(2.92622 0.0123286 0)
(2.92774 0.0122593 0)
(2.93336 0.0215164 0)
(2.93453 0.0243408 0)
(2.93596 0.028202 0)
(2.93513 0.0276225 0)
(2.93337 0.0232825 0)
(2.9317 0.017837 0)
(2.93109 0.0103265 0)
(2.93098 0.0111641 0)
(2.93217 0.0122401 0)
(2.93567 0.0188959 0)
(2.9353 0.0210238 0)
(2.9371 0.0233466 0)
(2.93662 0.0218208 0)
(2.93527 0.0168639 0)
(2.93493 0.0123975 0)
(2.93525 0.0131132 0)
(2.936 0.0156382 0)
(2.93649 0.0191275 0)
(2.93772 0.0210299 0)
(2.93716 0.0198669 0)
(2.93654 0.0170387 0)
(2.93618 0.0143311 0)
(2.93642 0.015443 0)
(2.93642 0.0170287 0)
(2.93757 0.0183784 0)
(2.93728 0.0181646 0)
(2.93697 0.0173882 0)
(2.93693 0.0167194 0)
(2.93722 0.01684 0)
(2.93722 0.017086 0)
(2.93704 0.0172524 0)
(2.93705 0.0173227 0)
(2.93724 0.0175704 0)
(2.9373 0.0177797 0)
(2.93724 0.0177259 0)
(2.93727 0.0172459 0)
(2.93744 0.0173358 0)
(2.9376 0.0176922 0)
(2.93776 0.0179533 0)
(2.9378 0.0178808 0)
(2.93811 0.0181711 0)
(2.93838 0.0186938 0)
(2.93874 0.0190301 0)
(2.93892 0.0182873 0)
(3.13842 -0.882679 0)
(3.13833 -0.882633 0)
(3.13823 -0.882634 0)
(3.13814 -0.882587 0)
(3.13803 -0.882581 0)
(3.13795 -0.882537 0)
(3.13785 -0.882524 0)
(3.13777 -0.882492 0)
(3.13768 -0.882495 0)
(3.1376 -0.882465 0)
(3.13752 -0.882472 0)
(3.13746 -0.882448 0)
(3.13739 -0.882448 0)
(3.13733 -0.882416 0)
(3.13728 -0.882399 0)
(3.13724 -0.882359 0)
(3.1372 -0.88235 0)
(3.13718 -0.882329 0)
(3.13716 -0.882339 0)
(3.13715 -0.882327 0)
(3.13715 -0.882322 0)
(3.13716 -0.882332 0)
(3.13717 -0.882336 0)
(3.13719 -0.88234 0)
(3.13722 -0.882343 0)
(3.13726 -0.882367 0)
(3.13731 -0.882371 0)
(3.13736 -0.882431 0)
(3.13741 -0.882416 0)
(3.13746 -0.882357 0)
(3.13749 -0.882378 0)
(3.13754 -0.88234 0)
(3.13757 -0.882414 0)
(3.13764 -0.882356 0)
(3.13766 -0.882473 0)
(3.13753 -0.881815 0)
(3.13668 -0.878908 0)
(3.13297 -0.868085 0)
(3.12623 -0.845605 0)
(3.11181 -0.796716 0)
(3.09644 -0.73447 0)
(3.07213 -0.629585 0)
(3.05693 -0.54648 0)
(3.03059 -0.41219 0)
(3.02387 -0.346407 0)
(3.00123 -0.228722 0)
(3.00068 -0.186428 0)
(2.9813 -0.115855 0)
(2.98857 -0.0905918 0)
(2.96212 -0.0426315 0)
(2.96274 -0.0291987 0)
(2.9516 -0.0101638 0)
(2.94725 0.000862933 0)
(2.94557 0.0119574 0)
(2.94217 0.0224457 0)
(2.93718 0.0309438 0)
(2.93613 0.0393678 0)
(2.93359 0.036901 0)
(2.93065 0.0294698 0)
(2.92874 0.0191845 0)
(2.92677 0.0102055 0)
(2.92672 0.00173452 0)
(2.92776 0.00273569 0)
(2.93113 0.00946889 0)
(2.93465 0.0179434 0)
(2.93613 0.0260822 0)
(2.93541 0.0263759 0)
(2.93444 0.0231547 0)
(2.9324 0.0165962 0)
(2.93082 0.0083407 0)
(2.9316 0.0097529 0)
(2.93374 0.0142063 0)
(2.93487 0.018439 0)
(2.93648 0.0231317 0)
(2.93605 0.0212895 0)
(2.93492 0.0172251 0)
(2.93365 0.0127897 0)
(2.93433 0.0145545 0)
(2.93502 0.0168167 0)
(2.93604 0.0194293 0)
(2.93606 0.0188033 0)
(2.93545 0.0165929 0)
(2.9356 0.0159856 0)
(2.93599 0.0166871 0)
(2.9364 0.0172857 0)
(2.9363 0.0172208 0)
(2.936 0.0172787 0)
(2.93606 0.0174764 0)
(2.93634 0.0179117 0)
(2.93633 0.0178721 0)
(2.9362 0.0175182 0)
(2.93625 0.0173247 0)
(2.93646 0.0175116 0)
(2.93671 0.0176905 0)
(2.93681 0.0177248 0)
(2.9369 0.0177834 0)
(2.93709 0.0179504 0)
(2.93744 0.0183195 0)
(2.9375 0.0185593 0)
(2.93739 0.0183389 0)
(3.13697 -0.882497 0)
(3.13696 -0.882495 0)
(3.13695 -0.882496 0)
(3.13694 -0.882495 0)
(3.13694 -0.882486 0)
(3.13694 -0.882497 0)
(3.13694 -0.882485 0)
(3.13694 -0.882492 0)
(3.13695 -0.882494 0)
(3.13696 -0.882507 0)
(3.13698 -0.882512 0)
(3.13701 -0.882523 0)
(3.13703 -0.882521 0)
(3.13706 -0.882547 0)
(3.13709 -0.882561 0)
(3.13712 -0.882558 0)
(3.13716 -0.882569 0)
(3.13721 -0.882569 0)
(3.13726 -0.882591 0)
(3.13732 -0.882595 0)
(3.13738 -0.88262 0)
(3.13745 -0.882623 0)
(3.13751 -0.882645 0)
(3.13757 -0.882666 0)
(3.13764 -0.882682 0)
(3.13771 -0.882703 0)
(3.13778 -0.882713 0)
(3.13785 -0.882735 0)
(3.13792 -0.882756 0)
(3.138 -0.882759 0)
(3.13805 -0.882797 0)
(3.13812 -0.882798 0)
(3.13816 -0.882871 0)
(3.13824 -0.882855 0)
(3.13828 -0.882937 0)
(3.13834 -0.882904 0)
(3.1384 -0.882928 0)
(3.13847 -0.88291 0)
(3.13852 -0.882936 0)
(3.1386 -0.882909 0)
(3.13863 -0.88299 0)
(3.1385 -0.882444 0)
(3.13748 -0.879104 0)
(3.13287 -0.863746 0)
(3.12421 -0.832566 0)
(3.10497 -0.753862 0)
(3.0887 -0.672816 0)
(3.05125 -0.497557 0)
(3.04957 -0.412794 0)
(3.00634 -0.218942 0)
(3.01761 -0.181854 0)
(2.97758 -0.0453257 0)
(2.98119 -0.0290301 0)
(2.95692 0.0371569 0)
(2.94581 0.0486946 0)
(2.94365 0.0651766 0)
(2.93564 0.0534599 0)
(2.93205 0.0336051 0)
(2.93304 0.0246894 0)
(2.92987 0.013138 0)
(2.92986 0.0107175 0)
(2.93004 0.00943511 0)
(2.93284 0.0130702 0)
(2.93738 0.0227558 0)
(2.93786 0.0293028 0)
(2.93642 0.0289759 0)
(2.93301 0.0241067 0)
(2.93001 0.0162809 0)
(2.92908 0.0100564 0)
(2.92981 0.010786 0)
(2.93187 0.014941 0)
(2.93423 0.0203617 0)
(2.9357 0.0239877 0)
(2.9349 0.0216001 0)
(2.93322 0.0173814 0)
(2.9319 0.0121793 0)
(2.93235 0.014123 0)
(2.93371 0.0170539 0)
(2.93507 0.0202128 0)
(2.93498 0.0195261 0)
(2.93423 0.0176566 0)
(2.93361 0.0159082 0)
(2.93398 0.0166448 0)
(2.93469 0.0176873 0)
(2.93487 0.0177111 0)
(2.93491 0.0170804 0)
(2.93503 0.0171862 0)
(2.93533 0.0178234 0)
(2.93572 0.0184263 0)
(2.93567 0.0178345 0)
(2.93567 0.0169799 0)
(2.93586 0.0172131 0)
(2.93615 0.0178745 0)
(2.93624 0.0179237 0)
(2.9363 0.0174922 0)
(2.93648 0.0176673 0)
(2.93666 0.0180764 0)
(2.93699 0.0185328 0)
(2.93696 0.0186199 0)
(2.93677 0.0181537 0)
(3.13716 -0.882521 0)
(3.13719 -0.882534 0)
(3.13722 -0.882539 0)
(3.13725 -0.882552 0)
(3.13728 -0.88256 0)
(3.13731 -0.882578 0)
(3.13735 -0.882583 0)
(3.13738 -0.882609 0)
(3.13742 -0.882619 0)
(3.13746 -0.882651 0)
(3.13751 -0.882662 0)
(3.13755 -0.882686 0)
(3.1376 -0.882686 0)
(3.13765 -0.882702 0)
(3.1377 -0.882719 0)
(3.13776 -0.882728 0)
(3.13781 -0.882743 0)
(3.13786 -0.88277 0)
(3.13792 -0.882786 0)
(3.13797 -0.882806 0)
(3.13804 -0.882816 0)
(3.13809 -0.882846 0)
(3.13816 -0.882853 0)
(3.13821 -0.882878 0)
(3.13828 -0.882875 0)
(3.13834 -0.8829 0)
(3.1384 -0.882912 0)
(3.13845 -0.882937 0)
(3.13851 -0.882931 0)
(3.13855 -0.882964 0)
(3.13859 -0.882961 0)
(3.1386 -0.883009 0)
(3.13863 -0.883026 0)
(3.13865 -0.883049 0)
(3.13869 -0.883041 0)
(3.13873 -0.883033 0)
(3.13876 -0.883076 0)
(3.1388 -0.883112 0)
(3.13884 -0.883088 0)
(3.13888 -0.883077 0)
(3.1389 -0.883103 0)
(3.13889 -0.883087 0)
(3.13889 -0.883062 0)
(3.13888 -0.883054 0)
(3.13885 -0.883015 0)
(3.13883 -0.883042 0)
(3.13877 -0.882837 0)
(3.13741 -0.878792 0)
(3.13308 -0.863239 0)
(3.11844 -0.810453 0)
(3.10251 -0.733108 0)
(3.07125 -0.582028 0)
(3.06045 -0.486015 0)
(3.02355 -0.298019 0)
(3.0203 -0.245111 0)
(2.99131 -0.117845 0)
(2.99123 -0.101146 0)
(2.96568 -0.0520125 0)
(2.96343 -0.0275894 0)
(2.95026 -0.00780276 0)
(2.95155 0.00867855 0)
(2.94701 0.021931 0)
(2.93984 0.0368003 0)
(2.9365 0.0356387 0)
(2.93386 0.0321941 0)
(2.92899 0.0213752 0)
(2.9261 0.00917429 0)
(2.92737 0.00105525 0)
(2.92895 0.00492992 0)
(2.93302 0.0156679 0)
(2.93468 0.0236537 0)
(2.93545 0.0260116 0)
(2.93453 0.0226435 0)
(2.93221 0.0158721 0)
(2.93054 0.00926256 0)
(2.93111 0.0120403 0)
(2.93255 0.016812 0)
(2.93444 0.0212682 0)
(2.93442 0.0203377 0)
(2.93362 0.0173674 0)
(2.93279 0.0146106 0)
(2.93323 0.015299 0)
(2.93394 0.0172866 0)
(2.9341 0.0175825 0)
(2.93383 0.0169106 0)
(2.93409 0.0165916 0)
(2.93447 0.017228 0)
(2.93491 0.0182438 0)
(2.93492 0.0179283 0)
(2.93488 0.01698 0)
(2.93504 0.0170617 0)
(2.93532 0.0177105 0)
(2.93566 0.0180283 0)
(2.9356 0.0176762 0)
(2.93569 0.0174467 0)
(2.93584 0.0177738 0)
(2.93601 0.0184393 0)
(2.93624 0.0187218 0)
(2.93624 0.0185549 0)
(2.93612 0.0177681 0)
(3.13792 -0.882706 0)
(3.13794 -0.882707 0)
(3.13797 -0.882719 0)
(3.138 -0.882719 0)
(3.13803 -0.882728 0)
(3.13806 -0.882735 0)
(3.13809 -0.88274 0)
(3.13812 -0.882752 0)
(3.13816 -0.882759 0)
(3.13819 -0.882771 0)
(3.13822 -0.882781 0)
(3.13826 -0.882794 0)
(3.13829 -0.882822 0)
(3.13833 -0.88283 0)
(3.13837 -0.882852 0)
(3.13841 -0.882852 0)
(3.13844 -0.882858 0)
(3.13848 -0.882864 0)
(3.13852 -0.882877 0)
(3.13857 -0.882887 0)
(3.13861 -0.882903 0)
(3.13865 -0.88292 0)
(3.13868 -0.882948 0)
(3.13871 -0.882969 0)
(3.13874 -0.88299 0)
(3.13879 -0.88297 0)
(3.1388 -0.882998 0)
(3.13882 -0.883016 0)
(3.13884 -0.883017 0)
(3.13884 -0.883036 0)
(3.13883 -0.883065 0)
(3.13882 -0.883088 0)
(3.1388 -0.883129 0)
(3.13881 -0.883124 0)
(3.13881 -0.883126 0)
(3.13884 -0.883124 0)
(3.13885 -0.88312 0)
(3.13887 -0.883117 0)
(3.13889 -0.883107 0)
(3.13893 -0.88307 0)
(3.13895 -0.883008 0)
(3.13894 -0.882982 0)
(3.13893 -0.882951 0)
(3.13892 -0.882892 0)
(3.13889 -0.882865 0)
(3.13888 -0.882835 0)
(3.13888 -0.882862 0)
(3.13891 -0.882877 0)
(3.13893 -0.882934 0)
(3.13899 -0.882947 0)
(3.13899 -0.883127 0)
(3.13843 -0.88135 0)
(3.13565 -0.870989 0)
(3.12261 -0.824046 0)
(3.10546 -0.740954 0)
(3.06633 -0.569777 0)
(3.04829 -0.422599 0)
(3.00753 -0.230348 0)
(3.0032 -0.136208 0)
(2.96697 -0.0105271 0)
(2.97369 0.0154056 0)
(2.95368 0.0746009 0)
(2.94172 0.0721956 0)
(2.93118 0.0392545 0)
(2.93067 0.0257625 0)
(2.92906 0.0144798 0)
(2.92955 0.00819804 0)
(2.93105 0.00753473 0)
(2.93837 0.0198231 0)
(2.9387 0.0331903 0)
(2.93745 0.0317545 0)
(2.9348 0.0261597 0)
(2.93226 0.0166192 0)
(2.93096 0.0112009 0)
(2.9313 0.011831 0)
(2.93373 0.0179177 0)
(2.93582 0.0233563 0)
(2.93545 0.0222985 0)
(2.93417 0.0187333 0)
(2.93345 0.0159946 0)
(2.93373 0.0162683 0)
(2.93487 0.0172136 0)
(2.9352 0.0183077 0)
(2.93497 0.017657 0)
(2.93456 0.0166956 0)
(2.93476 0.0167244 0)
(2.93527 0.0177892 0)
(2.9353 0.0183416 0)
(2.93501 0.0177058 0)
(2.93482 0.0169716 0)
(2.93498 0.0174255 0)
(2.93528 0.0178472 0)
(2.9354 0.0176731 0)
(2.93534 0.0173293 0)
(2.93533 0.0174235 0)
(2.93542 0.0179997 0)
(2.93553 0.0184044 0)
(2.93556 0.0184406 0)
(2.93553 0.0183153 0)
(2.93538 0.017702 0)
(3.13856 -0.882769 0)
(3.13857 -0.882775 0)
(3.13859 -0.882776 0)
(3.1386 -0.882779 0)
(3.13861 -0.882783 0)
(3.13863 -0.882792 0)
(3.13864 -0.882801 0)
(3.13866 -0.882814 0)
(3.13867 -0.882826 0)
(3.13869 -0.882843 0)
(3.13871 -0.882853 0)
(3.13872 -0.882862 0)
(3.13874 -0.882882 0)
(3.13876 -0.88288 0)
(3.13878 -0.882891 0)
(3.1388 -0.882908 0)
(3.13882 -0.882922 0)
(3.13884 -0.882944 0)
(3.13886 -0.882953 0)
(3.13888 -0.88296 0)
(3.1389 -0.882977 0)
(3.13891 -0.882998 0)
(3.13892 -0.883011 0)
(3.13893 -0.883023 0)
(3.13894 -0.883041 0)
(3.13895 -0.883032 0)
(3.13895 -0.88302 0)
(3.13894 -0.883046 0)
(3.13893 -0.883031 0)
(3.13891 -0.883025 0)
(3.13886 -0.883062 0)
(3.13883 -0.883109 0)
(3.13883 -0.883112 0)
(3.13884 -0.883084 0)
(3.13885 -0.883067 0)
(3.13886 -0.883059 0)
(3.13887 -0.883047 0)
(3.13889 -0.883046 0)
(3.13892 -0.883034 0)
(3.13896 -0.882982 0)
(3.13899 -0.882914 0)
(3.13898 -0.882878 0)
(3.13897 -0.882865 0)
(3.13895 -0.882832 0)
(3.13894 -0.882783 0)
(3.13894 -0.882769 0)
(3.13896 -0.882765 0)
(3.13898 -0.882792 0)
(3.13902 -0.882828 0)
(3.13905 -0.882887 0)
(3.13904 -0.88305 0)
(3.13906 -0.883187 0)
(3.1391 -0.883243 0)
(3.13916 -0.883262 0)
(3.13919 -0.883245 0)
(3.13859 -0.881234 0)
(3.13431 -0.865406 0)
(3.11836 -0.809041 0)
(3.09204 -0.684728 0)
(3.06141 -0.525125 0)
(3.04029 -0.372774 0)
(3.00876 -0.196382 0)
(2.99873 -0.140599 0)
(2.98159 -0.0832939 0)
(2.96048 -0.033352 0)
(2.95665 -0.0172751 0)
(2.95586 0.00371527 0)
(2.94638 0.022696 0)
(2.9394 0.0379053 0)
(2.93336 0.0353357 0)
(2.92894 0.0230954 0)
(2.92838 0.0102973 0)
(2.92918 0.000939094 0)
(2.9309 0.00501367 0)
(2.93445 0.015607 0)
(2.9371 0.0235079 0)
(2.93704 0.0233621 0)
(2.93563 0.0191871 0)
(2.93392 0.0128716 0)
(2.93438 0.0134369 0)
(2.93563 0.0161086 0)
(2.93659 0.0186878 0)
(2.93644 0.0179062 0)
(2.93579 0.0161171 0)
(2.9355 0.0158848 0)
(2.93572 0.0174182 0)
(2.93611 0.0184996 0)
(2.93583 0.0179558 0)
(2.93511 0.0168777 0)
(2.935 0.0168118 0)
(2.93515 0.017406 0)
(2.93541 0.0182578 0)
(2.93531 0.0180132 0)
(2.93505 0.0174655 0)
(2.93506 0.0175033 0)
(2.93514 0.0179515 0)
(2.9353 0.0184895 0)
(2.93523 0.0185059 0)
(2.93508 0.0181691 0)
(2.93477 0.0174493 0)
(3.13888 -0.882911 0)
(3.13888 -0.882911 0)
(3.13888 -0.882912 0)
(3.13888 -0.882916 0)
(3.13888 -0.882925 0)
(3.13889 -0.882919 0)
(3.13889 -0.882919 0)
(3.13889 -0.882937 0)
(3.1389 -0.882955 0)
(3.1389 -0.882982 0)
(3.1389 -0.882995 0)
(3.13891 -0.882996 0)
(3.13891 -0.883015 0)
(3.13892 -0.883018 0)
(3.13893 -0.88302 0)
(3.13893 -0.883037 0)
(3.13894 -0.883029 0)
(3.13895 -0.883036 0)
(3.13894 -0.883068 0)
(3.13895 -0.883061 0)
(3.13896 -0.883064 0)
(3.13895 -0.883085 0)
(3.13895 -0.88309 0)
(3.13895 -0.883106 0)
(3.13895 -0.883109 0)
(3.13894 -0.883096 0)
(3.13893 -0.883092 0)
(3.13892 -0.883085 0)
(3.1389 -0.883064 0)
(3.13885 -0.883064 0)
(3.1388 -0.883112 0)
(3.13879 -0.883145 0)
(3.1388 -0.883154 0)
(3.13881 -0.883155 0)
(3.13882 -0.883151 0)
(3.13884 -0.883135 0)
(3.13887 -0.883112 0)
(3.1389 -0.883107 0)
(3.13893 -0.883124 0)
(3.13897 -0.883094 0)
(3.13903 -0.883008 0)
(3.13904 -0.882919 0)
(3.13903 -0.882901 0)
(3.13901 -0.882876 0)
(3.139 -0.882814 0)
(3.13901 -0.882772 0)
(3.13902 -0.882784 0)
(3.13905 -0.882825 0)
(3.1391 -0.882863 0)
(3.13914 -0.882945 0)
(3.13913 -0.883136 0)
(3.13915 -0.883316 0)
(3.13924 -0.883387 0)
(3.13935 -0.883399 0)
(3.13942 -0.88338 0)
(3.13944 -0.883363 0)
(3.13949 -0.883283 0)
(3.13952 -0.883233 0)
(3.13953 -0.883037 0)
(3.13787 -0.876727 0)
(3.12832 -0.841752 0)
(3.10019 -0.728963 0)
(3.06653 -0.544499 0)
(3.03122 -0.334857 0)
(2.9908 -0.129551 0)
(2.99102 -0.060781 0)
(2.96851 0.0261213 0)
(2.95577 0.0818409 0)
(2.9374 0.0692798 0)
(2.93333 0.035795 0)
(2.93213 0.0163242 0)
(2.93145 0.00684187 0)
(2.93274 0.00645705 0)
(2.9412 0.0190815 0)
(2.94215 0.0299896 0)
(2.94079 0.0281478 0)
(2.93759 0.0210716 0)
(2.93528 0.0140708 0)
(2.935 0.0135066 0)
(2.93641 0.015466 0)
(2.93771 0.0196542 0)
(2.93734 0.0194158 0)
(2.93653 0.0178782 0)
(2.93523 0.0158708 0)
(2.9355 0.0165349 0)
(2.93636 0.0193067 0)
(2.93608 0.018804 0)
(2.93551 0.0175356 0)
(2.9346 0.016208 0)
(2.93486 0.0170026 0)
(2.93504 0.0184849 0)
(2.93517 0.0179498 0)
(2.93476 0.0172438 0)
(2.9346 0.0172001 0)
(2.93477 0.0178848 0)
(2.93494 0.0185469 0)
(2.93499 0.0184995 0)
(2.93484 0.0183092 0)
(2.9346 0.0180265 0)
(2.9342 0.0172777 0)
(3.13895 -0.882952 0)
(3.13894 -0.882963 0)
(3.13893 -0.882964 0)
(3.13892 -0.882958 0)
(3.1389 -0.882989 0)
(3.13889 -0.883008 0)
(3.13889 -0.883011 0)
(3.13889 -0.883025 0)
(3.13888 -0.883027 0)
(3.13888 -0.883037 0)
(3.13887 -0.883049 0)
(3.13887 -0.883038 0)
(3.13887 -0.883049 0)
(3.13886 -0.883072 0)
(3.13887 -0.883074 0)
(3.13887 -0.883088 0)
(3.13887 -0.883093 0)
(3.13887 -0.883075 0)
(3.13887 -0.883078 0)
(3.13888 -0.883081 0)
(3.13889 -0.88307 0)
(3.13889 -0.88308 0)
(3.1389 -0.883094 0)
(3.13891 -0.883083 0)
(3.13892 -0.883067 0)
(3.13892 -0.883068 0)
(3.13892 -0.88306 0)
(3.13892 -0.883018 0)
(3.13891 -0.882978 0)
(3.13888 -0.882987 0)
(3.13885 -0.883029 0)
(3.13885 -0.883057 0)
(3.13887 -0.883081 0)
(3.13889 -0.88309 0)
(3.13891 -0.883086 0)
(3.13894 -0.883088 0)
(3.13898 -0.883092 0)
(3.13902 -0.883077 0)
(3.13907 -0.883098 0)
(3.13909 -0.88313 0)
(3.13913 -0.883115 0)
(3.13914 -0.883054 0)
(3.13914 -0.883015 0)
(3.13913 -0.882997 0)
(3.13911 -0.882953 0)
(3.13912 -0.88292 0)
(3.13915 -0.882929 0)
(3.1392 -0.882937 0)
(3.13926 -0.882939 0)
(3.13931 -0.882996 0)
(3.13932 -0.883147 0)
(3.13937 -0.883263 0)
(3.13944 -0.883342 0)
(3.13953 -0.883391 0)
(3.13961 -0.883402 0)
(3.13966 -0.883402 0)
(3.1397 -0.883382 0)
(3.13973 -0.883364 0)
(3.13978 -0.883301 0)
(3.1398 -0.883249 0)
(3.13981 -0.88324 0)
(3.13981 -0.883302 0)
(3.13874 -0.879624 0)
(3.12898 -0.846876 0)
(3.102 -0.731814 0)
(3.07752 -0.577633 0)
(3.0296 -0.344825 0)
(3.02584 -0.225735 0)
(2.98408 -0.105476 0)
(2.99097 -0.0646718 0)
(2.96687 -0.0216418 0)
(2.95491 0.00308705 0)
(2.95004 0.0215074 0)
(2.94622 0.032875 0)
(2.94154 0.0305681 0)
(2.93482 0.0196567 0)
(2.93245 0.00529694 0)
(2.93321 0.00691333 0)
(2.93553 0.0126246 0)
(2.9388 0.0199639 0)
(2.93701 0.0207615 0)
(2.93569 0.0179467 0)
(2.93407 0.014852 0)
(2.93421 0.0154018 0)
(2.93535 0.0183284 0)
(2.93559 0.0200189 0)
(2.935 0.018503 0)
(2.93397 0.0159955 0)
(2.93404 0.0161653 0)
(2.93477 0.0178467 0)
(2.93482 0.0191373 0)
(2.93446 0.0182102 0)
(2.93402 0.0171243 0)
(2.93415 0.0173633 0)
(2.93461 0.0182633 0)
(2.93471 0.0185878 0)
(2.93454 0.0184254 0)
(2.93428 0.0180996 0)
(2.93398 0.0175886 0)
(2.93367 0.0171086 0)
(3.13884 -0.883009 0)
(3.13881 -0.883016 0)
(3.13879 -0.883024 0)
(3.13878 -0.883018 0)
(3.13877 -0.883021 0)
(3.13876 -0.883036 0)
(3.13875 -0.883043 0)
(3.13875 -0.88305 0)
(3.13875 -0.883053 0)
(3.13874 -0.883062 0)
(3.13873 -0.883068 0)
(3.13873 -0.883076 0)
(3.13873 -0.883072 0)
(3.13874 -0.883057 0)
(3.13875 -0.883056 0)
(3.13877 -0.883054 0)
(3.13878 -0.883044 0)
(3.13879 -0.883033 0)
(3.13882 -0.883027 0)
(3.13884 -0.883014 0)
(3.13886 -0.883013 0)
(3.13889 -0.883011 0)
(3.13891 -0.883008 0)
(3.13894 -0.883009 0)
(3.13896 -0.882987 0)
(3.13897 -0.882962 0)
(3.13899 -0.882954 0)
(3.139 -0.882942 0)
(3.13901 -0.882907 0)
(3.13901 -0.88288 0)
(3.13902 -0.882896 0)
(3.13902 -0.882947 0)
(3.13905 -0.883003 0)
(3.13909 -0.883032 0)
(3.13911 -0.883037 0)
(3.13914 -0.883045 0)
(3.13918 -0.883054 0)
(3.13922 -0.883088 0)
(3.13927 -0.883153 0)
(3.13928 -0.883191 0)
(3.1393 -0.883218 0)
(3.1393 -0.8832 0)
(3.13928 -0.883168 0)
(3.13928 -0.883141 0)
(3.13928 -0.883103 0)
(3.13929 -0.883075 0)
(3.13932 -0.883055 0)
(3.13937 -0.883048 0)
(3.13942 -0.88304 0)
(3.13947 -0.883082 0)
(3.13951 -0.883144 0)
(3.13955 -0.88321 0)
(3.13963 -0.883269 0)
(3.13973 -0.883318 0)
(3.13981 -0.883356 0)
(3.13984 -0.883383 0)
(3.13985 -0.883404 0)
(3.13987 -0.88342 0)
(3.13989 -0.883412 0)
(3.13997 -0.883373 0)
(3.14004 -0.883315 0)
(3.14002 -0.883311 0)
(3.13996 -0.883378 0)
(3.13996 -0.883469 0)
(3.14002 -0.88347 0)
(3.1392 -0.879789 0)
(3.12741 -0.837286 0)
(3.10599 -0.7254 0)
(3.03709 -0.410595 0)
(3.05824 -0.297503 0)
(2.98858 -0.0316808 0)
(2.97007 0.00109221 0)
(2.96533 0.0837001 0)
(2.94022 0.0591719 0)
(2.93458 0.0285582 0)
(2.93441 0.0127424 0)
(2.93426 0.00977552 0)
(2.93501 0.0107187 0)
(2.94215 0.0273549 0)
(2.93612 0.0257656 0)
(2.93379 0.0208772 0)
(2.9319 0.0141234 0)
(2.93196 0.014073 0)
(2.93382 0.017936 0)
(2.93512 0.0220164 0)
(2.93449 0.0203224 0)
(2.93345 0.0167823 0)
(2.93271 0.0148693 0)
(2.9337 0.0169255 0)
(2.93452 0.0193973 0)
(2.93427 0.0188511 0)
(2.93357 0.017232 0)
(2.93353 0.0167977 0)
(2.93403 0.017867 0)
(2.93437 0.0188634 0)
(2.93423 0.0187607 0)
(2.93397 0.0183014 0)
(2.9338 0.0178499 0)
(2.93356 0.0173419 0)
(2.93336 0.01695 0)
(3.13875 -0.88302 0)
(3.13873 -0.883007 0)
(3.13873 -0.883004 0)
(3.13873 -0.883002 0)
(3.13873 -0.882995 0)
(3.13874 -0.882977 0)
(3.13873 -0.882958 0)
(3.13872 -0.882949 0)
(3.13873 -0.88297 0)
(3.13874 -0.882989 0)
(3.13873 -0.883014 0)
(3.13873 -0.883023 0)
(3.13874 -0.883024 0)
(3.13875 -0.883027 0)
(3.13877 -0.883019 0)
(3.13879 -0.883009 0)
(3.13881 -0.883008 0)
(3.13885 -0.882989 0)
(3.1389 -0.88299 0)
(3.13893 -0.882987 0)
(3.13895 -0.882979 0)
(3.139 -0.882954 0)
(3.13903 -0.882936 0)
(3.13907 -0.882914 0)
(3.13908 -0.882882 0)
(3.13909 -0.882851 0)
(3.13911 -0.882836 0)
(3.13912 -0.882835 0)
(3.13913 -0.882826 0)
(3.13915 -0.882792 0)
(3.13917 -0.882785 0)
(3.13919 -0.882828 0)
(3.13922 -0.882894 0)
(3.13927 -0.882937 0)
(3.13933 -0.882949 0)
(3.13939 -0.882959 0)
(3.13945 -0.882983 0)
(3.13948 -0.88303 0)
(3.13949 -0.883095 0)
(3.1395 -0.883188 0)
(3.13951 -0.88327 0)
(3.13949 -0.883285 0)
(3.13947 -0.883274 0)
(3.13946 -0.883269 0)
(3.13947 -0.883251 0)
(3.13949 -0.88321 0)
(3.13952 -0.883167 0)
(3.13956 -0.883132 0)
(3.13962 -0.88308 0)
(3.13965 -0.883049 0)
(3.13968 -0.883053 0)
(3.13974 -0.883069 0)
(3.13981 -0.883115 0)
(3.13989 -0.883198 0)
(3.13995 -0.883263 0)
(3.13997 -0.883321 0)
(3.13995 -0.883384 0)
(3.13997 -0.88343 0)
(3.14003 -0.883447 0)
(3.1401 -0.883435 0)
(3.14021 -0.883354 0)
(3.1402 -0.883274 0)
(3.14015 -0.883337 0)
(3.14015 -0.88345 0)
(3.14023 -0.883511 0)
(3.14031 -0.883389 0)
(3.14042 -0.883304 0)
(3.14041 -0.883365 0)
(3.13644 -0.870911 0)
(3.12397 -0.807223 0)
(3.08511 -0.617789 0)
(3.06313 -0.450601 0)
(3.00982 -0.180511 0)
(3.01594 -0.137914 0)
(2.96848 -0.0469033 0)
(2.95864 -0.0156697 0)
(2.95451 0.00335425 0)
(2.93759 0.0273422 0)
(2.93582 0.0309887 0)
(2.92972 0.0244322 0)
(2.92655 0.00877292 0)
(2.92783 0.00911788 0)
(2.93146 0.0144449 0)
(2.93447 0.0215018 0)
(2.9343 0.0214641 0)
(2.93209 0.0157988 0)
(2.93111 0.0130864 0)
(2.93213 0.014753 0)
(2.93408 0.0198522 0)
(2.93408 0.019629 0)
(2.9332 0.017233 0)
(2.93295 0.0161097 0)
(2.93335 0.0169987 0)
(2.93398 0.0187725 0)
(2.93395 0.0188568 0)
(2.93375 0.0184151 0)
(2.93363 0.017982 0)
(2.93352 0.0175267 0)
(2.93335 0.0169391 0)
(2.93316 0.0167316 0)
(3.13886 -0.883067 0)
(3.13886 -0.883064 0)
(3.13886 -0.883063 0)
(3.13887 -0.883058 0)
(3.13888 -0.883021 0)
(3.13889 -0.882983 0)
(3.1389 -0.882946 0)
(3.1389 -0.882913 0)
(3.1389 -0.882911 0)
(3.13891 -0.882947 0)
(3.13893 -0.882975 0)
(3.13894 -0.882998 0)
(3.13895 -0.88301 0)
(3.13897 -0.883002 0)
(3.13899 -0.883004 0)
(3.139 -0.883018 0)
(3.13901 -0.883018 0)
(3.13906 -0.883008 0)
(3.1391 -0.883011 0)
(3.13912 -0.882999 0)
(3.13914 -0.883 0)
(3.13917 -0.882983 0)
(3.1392 -0.882902 0)
(3.13922 -0.882841 0)
(3.13923 -0.882832 0)
(3.13924 -0.882814 0)
(3.13924 -0.882796 0)
(3.13923 -0.882802 0)
(3.13924 -0.88282 0)
(3.13927 -0.882806 0)
(3.13931 -0.882793 0)
(3.13935 -0.882825 0)
(3.13941 -0.882887 0)
(3.13947 -0.88293 0)
(3.13954 -0.882949 0)
(3.1396 -0.88299 0)
(3.13966 -0.883024 0)
(3.13972 -0.883062 0)
(3.13972 -0.883148 0)
(3.13973 -0.883257 0)
(3.13974 -0.883344 0)
(3.13973 -0.883368 0)