/*--------------------------------*- C++ -*----------------------------------*\
  =========                 |
  \\      /  F ield         | OpenFOAM: The Open Source CFD Toolbox
   \\    /   O peration     | Website:  https://openfoam.org
    \\  /    A nd           | Version:  7
     \\/     M anipulation  |
\*---------------------------------------------------------------------------*/
FoamFile
{
    version     2.0;
    format      ascii;
    class       volScalarField;
    location    "8";
    object      p;
}
// * * * * * * * * * * * * * * * * * * * * * * * * * * * * * * * * * * * * * //

dimensions      [1 -1 -2 0 0 0 0];

internalField   nonuniform List<scalar> 
90000
(
0.761719
0.767395
0.774032
0.780564
0.787419
0.793899
0.800609
0.806863
0.813261
0.819132
0.825085
0.83052
0.836043
0.841129
0.846349
0.851391
0.857566
0.864898
0.87439
0.884845
0.897289
0.909584
0.923106
0.935424
0.948452
0.959772
0.971505
0.981392
0.991229
0.999246
1.00724
1.01202
1.0175
1.02087
1.0216
1.02251
1.02303
1.02258
1.02132
1.01756
1.00766
0.996669
0.988153
0.982352
0.97963
0.980773
0.983629
0.986666
0.990996
0.992632
0.993805
0.995981
0.998131
0.998009
0.996485
0.994043
0.990482
0.988155
0.986622
0.986396
0.987086
0.987386
0.989362
0.992168
0.994707
0.996061
0.995413
0.992607
0.990189
0.989566
0.990435
0.99118
0.992497
0.994982
0.994927
0.993333
0.992196
0.992113
0.992472
0.993725
0.995133
0.994345
0.993217
0.992661
0.993224
0.994028
0.994121
0.994031
0.994069
0.994657
0.995075
0.994974
0.994233
0.993879
0.99373
0.993925
0.994252
0.994402
0.994278
0.993861
0.757702
0.758133
0.758999
0.760334
0.762149
0.76445
0.767202
0.770428
0.774043
0.77809
0.782496
0.787286
0.792367
0.797765
0.803472
0.809301
0.815204
0.820959
0.827192
0.833642
0.841109
0.848956
0.8579
0.86755
0.877583
0.888837
0.899708
0.911508
0.923478
0.934685
0.946807
0.957639
0.96779
0.977785
0.986294
0.994317
0.998864
1.00372
1.00778
1.00912
1.00968
1.01046
1.01048
1.00878
1.00415
0.997682
0.991501
0.986391
0.983632
0.984331
0.985189
0.986917
0.990145
0.993233
0.995574
0.99781
0.998064
0.996847
0.993974
0.990585
0.987784
0.985179
0.985805
0.987975
0.991732
0.994985
0.997089
0.995967
0.993216
0.990547
0.988396
0.989269
0.991778
0.995075
0.99587
0.994787
0.992693
0.990842
0.991458
0.99359
0.995282
0.994811
0.993587
0.992726
0.992712
0.99352
0.994088
0.994165
0.994126
0.994171
0.994791
0.994948
0.994552
0.993906
0.993768
0.993963
0.994121
0.9945
0.99464
0.994207
0.757698
0.757695
0.757705
0.757733
0.757776
0.757848
0.757953
0.7581
0.758294
0.758563
0.758928
0.759548
0.760454
0.761599
0.763076
0.764829
0.767015
0.769467
0.772298
0.775447
0.779002
0.78301
0.787476
0.792708
0.798621
0.805495
0.813198
0.822177
0.83196
0.843468
0.855391
0.869048
0.882957
0.898677
0.913371
0.929351
0.944508
0.958967
0.971498
0.981863
0.993546
0.99798
1.00033
1.00212
1.00294
1.00292
1.00184
1.00025
0.996792
0.993052
0.989907
0.987902
0.988219
0.989534
0.990879
0.992641
0.994223
0.994316
0.994104
0.993368
0.99187
0.989763
0.98746
0.987036
0.988228
0.990293
0.993037
0.995253
0.99578
0.994138
0.992349
0.991042
0.991348
0.992243
0.993822
0.995389
0.995025
0.993688
0.99245
0.992694
0.993623
0.994522
0.994368
0.993528
0.992804
0.993059
0.993831
0.994242
0.994142
0.994188
0.994464
0.994886
0.994791
0.994285
0.993915
0.993942
0.994136
0.994533
0.994424
0.994022
0.758158
0.758166
0.758168
0.758166
0.758161
0.758149
0.758135
0.75813
0.758139
0.758143
0.758185
0.758161
0.758179
0.758215
0.758256
0.758309
0.758387
0.758513
0.758681
0.758916
0.759235
0.759798
0.760591
0.761632
0.762987
0.764692
0.766853
0.769648
0.773094
0.777691
0.783047
0.79
0.798402
0.80815
0.820641
0.834059
0.850256
0.867469
0.886845
0.905811
0.925959
0.943619
0.959416
0.972049
0.979655
0.988266
0.993583
0.99425
0.995363
0.995344
0.994184
0.994151
0.993933
0.993117
0.991931
0.990951
0.990578
0.990255
0.99032
0.990734
0.991907
0.992719
0.992089
0.990489
0.988589
0.988051
0.988826
0.990675
0.992972
0.995869
0.996856
0.995387
0.992895
0.99088
0.991255
0.993022
0.994998
0.995758
0.994424
0.992377
0.99233
0.993353
0.994773
0.994402
0.993397
0.992801
0.993293
0.994121
0.994246
0.994205
0.99436
0.994764
0.99475
0.994448
0.994005
0.994126
0.994217
0.994452
0.994504
0.994244
0.758499
0.758497
0.758503
0.758522
0.758527
0.758515
0.758496
0.75847
0.758439
0.758408
0.758382
0.758366
0.758335
0.758298
0.758275
0.758247
0.758226
0.758215
0.758226
0.75826
0.758368
0.758397
0.758421
0.758443
0.758483
0.758535
0.758606
0.758732
0.758947
0.759293
0.759941
0.760896
0.762334
0.764389
0.767413
0.771511
0.777627
0.785113
0.795431
0.808976
0.824005
0.8445
0.865049
0.888077
0.910485
0.93281
0.950835
0.964265
0.976838
0.984703
0.988933
0.990814
0.991219
0.99077
0.990614
0.990719
0.990854
0.990587
0.989929
0.990053
0.991107
0.992946
0.993911
0.99353
0.991681
0.989312
0.988124
0.988709
0.9901
0.992401
0.993998
0.995074
0.995412
0.99419
0.992911
0.992613
0.993207
0.993889
0.994738
0.994096
0.993177
0.992833
0.993369
0.994199
0.994028
0.993525
0.993185
0.993522
0.994043
0.994113
0.994165
0.994465
0.99487
0.994731
0.994351
0.994159
0.994138
0.994395
0.994442
0.994197
0.75887
0.758864
0.758862
0.758865
0.758868
0.758866
0.758855
0.758827
0.75878
0.758741
0.758726
0.75872
0.758718
0.758709
0.7587
0.758693
0.758678
0.758632
0.758537
0.758492
0.758476
0.758464
0.758437
0.758397
0.758368
0.758339
0.758302
0.758288
0.758298
0.758383
0.758377
0.758355
0.758325
0.758321
0.758378
0.758524
0.758924
0.759717
0.761128
0.763464
0.767262
0.77316
0.781711
0.793639
0.810708
0.829435
0.853509
0.880691
0.903595
0.928496
0.947415
0.96381
0.975439
0.980528
0.981846
0.985341
0.988691
0.990319
0.990813
0.990859
0.991171
0.992046
0.993173
0.993148
0.992529
0.991423
0.99084
0.991069
0.990888
0.990923
0.991389
0.992605
0.993347
0.99436
0.995064
0.994549
0.993584
0.992845
0.993275
0.993931
0.994449
0.993922
0.993076
0.993303
0.993846
0.994013
0.993718
0.993407
0.993693
0.994213
0.99433
0.994211
0.994422
0.994813
0.994938
0.994643
0.994273
0.994318
0.994296
0.994204
0.759004
0.758985
0.758978
0.758978
0.758981
0.758981
0.758969
0.758922
0.758888
0.75886
0.758814
0.758762
0.758743
0.758735
0.758728
0.758723
0.758716
0.75869
0.758622
0.758529
0.758494
0.758484
0.758475
0.758452
0.758414
0.758365
0.758307
0.758238
0.758167
0.758106
0.758055
0.758004
0.75793
0.757875
0.757812
0.757797
0.757744
0.757695
0.757674
0.757698
0.757798
0.758094
0.758828
0.760243
0.763015
0.767747
0.775849
0.787581
0.80511
0.82697
0.854217
0.881114
0.906546
0.938764
0.953206
0.964536
0.975279
0.987091
0.989495
0.989643
0.989546
0.990234
0.989998
0.990518
0.991334
0.992306
0.993432
0.993398
0.992556
0.990853
0.990546
0.990915
0.991719
0.993568
0.994627
0.994602
0.994108
0.993347
0.993111
0.993388
0.993655
0.99391
0.993702
0.99343
0.993674
0.994035
0.993929
0.993591
0.993466
0.993713
0.994068
0.994403
0.994386
0.994545
0.994896
0.994853
0.99452
0.994257
0.994183
0.994109
0.759323
0.759295
0.759238
0.759194
0.759168
0.759138
0.759106
0.759075
0.759021
0.758964
0.758926
0.758881
0.758831
0.758794
0.758764
0.758737
0.758717
0.758687
0.758645
0.758586
0.758514
0.758452
0.758416
0.758378
0.758329
0.758273
0.758215
0.758147
0.758085
0.758034
0.757979
0.75791
0.75783
0.757755
0.757684
0.757595
0.757503
0.75743
0.757375
0.757317
0.757281
0.757228
0.757175
0.757111
0.757123
0.757246
0.757688
0.758795
0.761571
0.766379
0.77551
0.789956
0.810057
0.833777
0.865884
0.898829
0.919631
0.942712
0.96184
0.976948
0.977073
0.979392
0.982441
0.988973
0.99287
0.994862
0.994791
0.994104
0.992736
0.991474
0.990473
0.990888
0.992093
0.993126
0.993884
0.993895
0.993664
0.993713
0.993725
0.993586
0.993334
0.993398
0.993478
0.99363
0.993729
0.993818
0.993865
0.993748
0.993588
0.993601
0.993762
0.9941
0.994444
0.994915
0.995036
0.994954
0.994706
0.994265
0.994141
0.994147
0.759505
0.759481
0.759445
0.759394
0.759347
0.759298
0.759243
0.759184
0.759114
0.759075
0.759052
0.75902
0.758969
0.758919
0.758878
0.75884
0.758795
0.758747
0.758705
0.75866
0.758604
0.758532
0.758466
0.758402
0.758345
0.758289
0.758227
0.758158
0.758094
0.758031
0.757963
0.757893
0.757824
0.757753
0.757666
0.757555
0.757457
0.757371
0.757294
0.757208
0.75711
0.757011
0.756903
0.756789
0.756733
0.75667
0.756597
0.756586
0.75663
0.756785
0.757382
0.75883
0.762588
0.768986
0.78195
0.799731
0.826825
0.856526
0.886875
0.920941
0.944444
0.96418
0.975187
0.986831
0.990539
0.993212
0.992476
0.989386
0.989503
0.990575
0.991906
0.993087
0.99296
0.9926
0.99192
0.992257
0.992858
0.993847
0.994176
0.993994
0.993483
0.993223
0.993419
0.993745
0.993815
0.993688
0.993657
0.993724
0.993795
0.993737
0.993701
0.993842
0.994177
0.994745
0.995103
0.995059
0.994878
0.994421
0.994122
0.994137
0.759623
0.7596
0.759572
0.75953
0.759487
0.759436
0.759358
0.759293
0.759268
0.759255
0.759237
0.759209
0.759168
0.759121
0.759076
0.759033
0.758987
0.758939
0.758897
0.758854
0.758808
0.758742
0.758656
0.758564
0.75849
0.758425
0.75835
0.758263
0.758174
0.758086
0.757997
0.757909
0.757834
0.757755
0.757657
0.757555
0.757481
0.757422
0.757358
0.757284
0.757203
0.757105
0.757007
0.75692
0.756825
0.756712
0.756593
0.7565
0.756497
0.756539
0.756603
0.756704
0.756887
0.75725
0.758445
0.761042
0.767422
0.777831
0.798284
0.822291
0.855065
0.890516
0.918729
0.947163
0.959094
0.974748
0.978063
0.984622
0.989148
0.994384
0.99496
0.994637
0.99332
0.990385
0.990551
0.991432
0.993187
0.994002
0.993929
0.99346
0.993176
0.993406
0.993763
0.993919
0.993814
0.993495
0.993467
0.993699
0.993874
0.993813
0.993699
0.993752
0.994053
0.994559
0.994972
0.995072
0.994967
0.994623
0.994155
0.99416
0.759095
0.759089
0.759072
0.759036
0.75898
0.758933
0.758876
0.758819
0.758809
0.758817
0.758815
0.758792
0.758757
0.758725
0.758692
0.758652
0.75861
0.758588
0.758582
0.758584
0.758581
0.758558
0.758502
0.758417
0.75837
0.758352
0.758328
0.758284
0.758216
0.758147
0.758086
0.758026
0.757973
0.757908
0.757829
0.757764
0.757721
0.75769
0.757657
0.757611
0.757554
0.757483
0.757403
0.757329
0.757242
0.757155
0.757059
0.756974
0.756954
0.756953
0.756975
0.757034
0.757131
0.757325
0.757403
0.757516
0.757798
0.758669
0.76141
0.766812
0.779674
0.797834
0.828345
0.86111
0.896231
0.931618
0.954541
0.979062
0.985592
0.992016
0.991811
0.989653
0.987604
0.988842
0.991132
0.993567
0.993604
0.993397
0.992333
0.99243
0.993186
0.99418
0.994086
0.993859
0.993429
0.993226
0.9935
0.993801
0.99381
0.993763
0.993733
0.993863
0.994152
0.994392
0.994681
0.995001
0.994949
0.994751
0.994345
0.994217
0.758523
0.758507
0.758479
0.758422
0.758367
0.758352
0.758351
0.758358
0.758378
0.758385
0.758378
0.758364
0.758362
0.75836
0.75835
0.758329
0.758307
0.758294
0.758294
0.758302
0.758312
0.758313
0.758309
0.758297
0.758285
0.75828
0.758275
0.758265
0.758242
0.758212
0.758185
0.758157
0.758125
0.758079
0.758025
0.758004
0.757991
0.757988
0.757995
0.757989
0.75796
0.757914
0.757864
0.757808
0.757758
0.757721
0.757677
0.757619
0.757553
0.757515
0.757539
0.757597
0.757615
0.757647
0.757726
0.757814
0.757945
0.75797
0.758063
0.758331
0.759384
0.761992
0.769386
0.78182
0.807359
0.83709
0.874245
0.912541
0.936153
0.962514
0.968689
0.9767
0.983052
0.992314
0.995171
0.994961
0.993386
0.990572
0.990763
0.992204
0.99417
0.994521
0.994041
0.993157
0.992986
0.993407
0.993859
0.993763
0.993605
0.993637
0.993856
0.994189
0.994284
0.994219
0.994367
0.994702
0.994852
0.99482
0.994655
0.994325
0.757902
0.757868
0.757825
0.757812
0.757811
0.757812
0.757814
0.757822
0.757841
0.757853
0.757852
0.757844
0.757844
0.757844
0.757839
0.757838
0.757848
0.757848
0.757845
0.757856
0.757872
0.757881
0.757891
0.75789
0.757884
0.757887
0.757892
0.757897
0.757908
0.757912
0.757912
0.757907
0.757905
0.757911
0.7579
0.757901
0.757923
0.757988
0.758076
0.758147
0.7582
0.758247
0.758295
0.758336
0.75837
0.758393
0.758407
0.758396
0.758359
0.758367
0.75842
0.75844
0.758441
0.758424
0.758413
0.758376
0.758318
0.758283
0.758324
0.758469
0.758442
0.758405
0.758656
0.759749
0.763951
0.772423
0.792282
0.81785
0.856557
0.897117
0.929775
0.966275
0.978528
0.988264
0.991503
0.98951
0.986199
0.987896
0.991332
0.994452
0.994579
0.993929
0.992401
0.992468
0.993234
0.993938
0.993755
0.993389
0.993368
0.993705
0.994266
0.994357
0.994191
0.994082
0.99416
0.99435
0.994643
0.994811
0.994788
0.994521
0.757371
0.757355
0.757351
0.757349
0.757346
0.757347
0.757354
0.757358
0.757355
0.757346
0.757347
0.757354
0.757354
0.757345
0.757342
0.757344
0.757363
0.757371
0.757369
0.757373
0.757388
0.7574
0.757407
0.757409
0.757409
0.757414
0.757422
0.757444
0.757496
0.757527
0.757539
0.757556
0.757587
0.757637
0.75772
0.757811
0.757928
0.758071
0.758192
0.758285
0.758365
0.758447
0.758546
0.758646
0.758717
0.758775
0.758834
0.758875
0.758914
0.758981
0.759022
0.759067
0.759086
0.759057
0.758984
0.758883
0.758771
0.758712
0.758721
0.758726
0.758637
0.758503
0.758352
0.758242
0.758326
0.758907
0.761324
0.766967
0.782346
0.804298
0.842059
0.882971
0.916654
0.950081
0.961848
0.973346
0.98082
0.992383
0.995144
0.99493
0.993178
0.99076
0.991159
0.992962
0.994195
0.993975
0.993371
0.992941
0.993407
0.994114
0.9946
0.994375
0.994037
0.994009
0.994032
0.994126
0.994381
0.994793
0.994841
0.994669
0.757162
0.757161
0.757162
0.757166
0.757174
0.757187
0.757199
0.757209
0.757217
0.757225
0.757235
0.757244
0.757249
0.757258
0.757267
0.75728
0.757297
0.757312
0.757323
0.757331
0.757344
0.757359
0.757367
0.757376
0.757388
0.757406
0.757426
0.757475
0.757593
0.757631
0.757638
0.757659
0.757713
0.757806
0.757907
0.757998
0.758104
0.758197
0.758269
0.758339
0.758417
0.758508
0.758609
0.758716
0.758803
0.758863
0.758911
0.75896
0.759031
0.759108
0.759181
0.75924
0.759267
0.759283
0.759275
0.759224
0.759134
0.75911
0.759125
0.759133
0.759095
0.758965
0.758747
0.758482
0.758326
0.75827
0.7583
0.758539
0.759958
0.763863
0.776035
0.795373
0.832693
0.87414
0.913139
0.957027
0.975237
0.988064
0.991015
0.988475
0.986104
0.988356
0.992277
0.994664
0.994138
0.992665
0.992434
0.993146
0.994119
0.994262
0.994195
0.994062
0.994117
0.994106
0.993994
0.993955
0.994123
0.994611
0.994765
0.994725
0.757355
0.757365
0.757381
0.757401
0.757427
0.757452
0.757468
0.75748
0.757491
0.757501
0.757511
0.75752
0.75753
0.757538
0.757543
0.757546
0.757553
0.75756
0.757564
0.757572
0.757577
0.757578
0.757583
0.757599
0.757625
0.757655
0.757702
0.757794
0.757865
0.75787
0.757858
0.757854
0.757887
0.757963
0.758038
0.758101
0.758176
0.758221
0.75825
0.758295
0.758367
0.758461
0.758549
0.758623
0.758695
0.758737
0.758758
0.758797
0.758872
0.758937
0.759002
0.759036
0.759037
0.759038
0.759048
0.759021
0.758953
0.758971
0.759108
0.759264
0.759298
0.759268
0.75917
0.759
0.758759
0.758507
0.75839
0.758456
0.758468
0.758611
0.759543
0.762451
0.772618
0.790153
0.826032
0.867137
0.906419
0.944987
0.958892
0.971953
0.981235
0.993276
0.994965
0.994003
0.990952
0.99116
0.992662
0.9943
0.99472
0.994286
0.993663
0.993855
0.994203
0.994167
0.993952
0.993858
0.994037
0.99432
0.994597
0.994737
0.757785
0.757789
0.757791
0.757797
0.757809
0.757824
0.757835
0.757843
0.757853
0.757865
0.757875
0.757881
0.757887
0.757897
0.757909
0.75792
0.757922
0.757922
0.757926
0.757933
0.75794
0.757948
0.757973
0.758021
0.758064
0.758105
0.758169
0.758232
0.758243
0.75824
0.758224
0.758218
0.758259
0.758306
0.7583
0.758294
0.758312
0.758329
0.758331
0.75835
0.758399
0.758472
0.758544
0.758595
0.758627
0.758616
0.758585
0.75859
0.75864
0.75869
0.758714
0.758716
0.758685
0.758655
0.758664
0.758643
0.758594
0.75862
0.758852
0.759046
0.759094
0.75916
0.759233
0.759216
0.759129
0.759005
0.758898
0.75881
0.758714
0.758712
0.758695
0.758769
0.7594
0.761756
0.770728
0.787323
0.82345
0.865295
0.909166
0.956674
0.975505
0.98909
0.990173
0.984997
0.986093
0.989857
0.994161
0.994639
0.994171
0.993123
0.993328
0.994046
0.994202
0.99393
0.993775
0.993931
0.994144
0.994134
0.9943
0.994659
0.758383
0.758394
0.758414
0.758421
0.758418
0.758407
0.758393
0.758389
0.7584
0.758418
0.75843
0.75844
0.758446
0.758454
0.758471
0.758502
0.75853
0.758542
0.758547
0.758554
0.758573
0.758613
0.75869
0.758758
0.758781
0.758795
0.758803
0.7588
0.758793
0.758773
0.758745
0.758706
0.75865
0.758626
0.758598
0.758559
0.758555
0.758538
0.758499
0.758483
0.758497
0.75855
0.758619
0.758639
0.758573
0.758468
0.758419
0.75838
0.758389
0.758416
0.75843
0.758432
0.758339
0.758216
0.758196
0.758171
0.758168
0.758292
0.758661
0.758834
0.75887
0.758951
0.759085
0.759107
0.759034
0.759002
0.759
0.759021
0.759052
0.759016
0.758888
0.758846
0.758841
0.758927
0.759468
0.761654
0.770142
0.786793
0.823165
0.865882
0.908484
0.946278
0.961469
0.972664
0.986467
0.99467
0.99467
0.993366
0.991598
0.992336
0.994114
0.994475
0.994138
0.99364
0.99381
0.994213
0.994163
0.993945
0.99403
0.994532
0.758911
0.758912
0.758934
0.758969
0.758969
0.758948
0.758941
0.758955
0.75896
0.758935
0.758929
0.758943
0.758954
0.758958
0.758973
0.759018
0.759036
0.759032
0.759035
0.759054
0.7591
0.759182
0.759279
0.759324
0.759316
0.759275
0.759253
0.759254
0.759239
0.759185
0.759127
0.759075
0.759003
0.758903
0.758849
0.758838
0.758822
0.75877
0.75872
0.75871
0.75872
0.758756
0.758783
0.758738
0.758549
0.758433
0.75839
0.75834
0.758309
0.758303
0.758279
0.758198
0.758077
0.757975
0.757938
0.757941
0.757986
0.758215
0.758638
0.758728
0.758732
0.758749
0.758833
0.758891
0.758865
0.758824
0.758855
0.758912
0.758997
0.75906
0.759052
0.759063
0.759106
0.759108
0.759099
0.759156
0.759667
0.761901
0.770363
0.78817
0.826141
0.870609
0.91884
0.963186
0.98142
0.991408
0.988829
0.985111
0.988301
0.993028
0.994489
0.994112
0.993013
0.993277
0.994238
0.994412
0.994141
0.993791
0.993979
0.994491
0.759074
0.759051
0.759052
0.759089
0.759101
0.759099
0.759074
0.759044
0.759026
0.759033
0.759075
0.759112
0.759121
0.759128
0.759145
0.759167
0.759207
0.759275
0.759316
0.759343
0.759379
0.759456
0.759568
0.759614
0.759592
0.759561
0.75955
0.759511
0.759428
0.75933
0.759226
0.759138
0.759081
0.759031
0.758963
0.758882
0.758869
0.758877
0.758868
0.758875
0.758938
0.759006
0.759049
0.759019
0.758882
0.758768
0.758728
0.758676
0.7586
0.758543
0.758473
0.758254
0.758149
0.758129
0.758102
0.758077
0.75809
0.758307
0.758696
0.758755
0.75873
0.758629
0.758572
0.758579
0.758611
0.758636
0.758674
0.758719
0.758791
0.758879
0.75893
0.758974
0.759067
0.759148
0.759139
0.759131
0.759115
0.759192
0.759783
0.762317
0.771293
0.79172
0.83127
0.879138
0.921917
0.953282
0.967552
0.980253
0.993736
0.994486
0.993603
0.991417
0.992105
0.994174
0.994808
0.994331
0.993671
0.993785
0.994181
0.994526
0.759012
0.758992
0.758964
0.758975
0.759034
0.759061
0.75906
0.759024
0.758993
0.759002
0.759067
0.759121
0.759119
0.759082
0.75904
0.759028
0.75904
0.759081
0.759124
0.759175
0.759209
0.759235
0.75931
0.759352
0.759357
0.759373
0.759324
0.759194
0.759142
0.759056
0.758906
0.758861
0.758855
0.758855
0.758852
0.758833
0.758805
0.758822
0.758893
0.758921
0.758903
0.758935
0.759023
0.759128
0.7591
0.758951
0.758912
0.758948
0.758914
0.758818
0.758676
0.758478
0.758412
0.758408
0.758421
0.75844
0.758478
0.758736
0.758931
0.75894
0.758869
0.758608
0.758508
0.758545
0.758619
0.758657
0.758657
0.758668
0.758673
0.758694
0.758717
0.758754
0.758845
0.758942
0.758954
0.758942
0.758942
0.759018
0.759127
0.759305
0.760009
0.763117
0.773374
0.797997
0.840952
0.889136
0.943012
0.973372
0.990041
0.989696
0.984462
0.987559
0.993028
0.995026
0.994511
0.993102
0.993296
0.994176
0.994429
0.994342
0.758913
0.758911
0.758904
0.758915
0.758963
0.759012
0.759057
0.759089
0.759075
0.758982
0.758933
0.758954
0.758967
0.758931
0.758895
0.758888
0.758888
0.758896
0.758914
0.758943
0.758985
0.759032
0.75907
0.759114
0.759194
0.759202
0.759078
0.759013
0.759012
0.758919
0.758703
0.758621
0.758653
0.75871
0.758732
0.758743
0.758722
0.758651
0.758679
0.758827
0.758894
0.758926
0.759067
0.759333
0.759363
0.759114
0.758835
0.758861
0.758947
0.758939
0.758867
0.758727
0.75848
0.75835
0.758378
0.758514
0.758677
0.759072
0.759269
0.75927
0.759177
0.758802
0.758629
0.758702
0.758997
0.759046
0.75899
0.758918
0.758818
0.758656
0.758584
0.758584
0.75861
0.75868
0.758729
0.758739
0.758768
0.758861
0.759014
0.759269
0.759329
0.759506
0.760274
0.76441
0.776488
0.806992
0.85226
0.901543
0.942979
0.963239
0.974826
0.992563
0.995064
0.994183
0.991602
0.992215
0.994069
0.994766
0.994417
0.99416
0.75873
0.758718
0.758654
0.758671
0.75877
0.758795
0.758803
0.758883
0.758978
0.758976
0.758857
0.758806
0.758881
0.75902
0.759066
0.75915
0.759179
0.759146
0.759127
0.759137
0.759196
0.759248
0.759268
0.759313
0.759403
0.759365
0.75925
0.759208
0.759044
0.75879
0.75878
0.75883
0.758798
0.75876
0.758733
0.75868
0.758583
0.758632
0.75887
0.759006
0.758944
0.75889
0.759075
0.759503
0.759533
0.759166
0.758688
0.758678
0.758925
0.758986
0.758904
0.758753
0.75848
0.758215
0.758212
0.758429
0.758646
0.758917
0.759398
0.759574
0.759547
0.759121
0.758714
0.758681
0.758951
0.759321
0.75943
0.759401
0.75921
0.758847
0.758541
0.75846
0.758459
0.758496
0.758623
0.758765
0.758818
0.758855
0.758904
0.75907
0.759227
0.759207
0.759085
0.759179
0.760377
0.766184
0.782793
0.819555
0.867335
0.925446
0.966291
0.98783
0.990378
0.98402
0.987267
0.992924
0.994828
0.994444
0.993528
0.993955
0.758715
0.758675
0.758647
0.758704
0.758869
0.75891
0.758913
0.758956
0.759167
0.759365
0.75934
0.759301
0.759362
0.759576
0.759733
0.759773
0.759674
0.759536
0.759545
0.759558
0.75952
0.759446
0.759431
0.759493
0.759656
0.759631
0.759534
0.759445
0.759192
0.759096
0.759114
0.759036
0.758832
0.75874
0.758666
0.758581
0.758665
0.758796
0.758809
0.75894
0.759043
0.759016
0.759122
0.759395
0.759397
0.758987
0.758385
0.758336
0.758776
0.758987
0.75888
0.758669
0.758522
0.758221
0.758064
0.758239
0.75865
0.758812
0.759185
0.759767
0.759963
0.759791
0.75925
0.758742
0.758691
0.758944
0.759406
0.759632
0.759497
0.759136
0.758773
0.758598
0.758573
0.7586
0.758784
0.758955
0.758974
0.758946
0.758899
0.758926
0.759019
0.758951
0.758755
0.75869
0.758761
0.759185
0.761552
0.769686
0.793149
0.834618
0.888312
0.933564
0.95899
0.972335
0.991953
0.994801
0.994037
0.991806
0.992787
0.99457
0.758949
0.759001
0.759175
0.759274
0.75928
0.759241
0.759218
0.759267
0.759573
0.759877
0.760006
0.760158
0.760231
0.760208
0.760021
0.759732
0.759672
0.759811
0.759857
0.759763
0.759506
0.759433
0.759427
0.75948
0.759679
0.759775
0.759714
0.759416
0.759351
0.759361
0.75917
0.758693
0.758608
0.758708
0.758721
0.75864
0.758582
0.758571
0.758465
0.758515
0.759051
0.759193
0.759057
0.759122
0.759307
0.759096
0.758594
0.758514
0.758889
0.759043
0.759047
0.759145
0.759159
0.758674
0.758105
0.758142
0.758661
0.758846
0.758975
0.759514
0.760073
0.760136
0.75974
0.75882
0.758379
0.758498
0.758951
0.75936
0.759358
0.759261
0.759202
0.759095
0.75901
0.758995
0.759085
0.759189
0.759178
0.759071
0.758864
0.758784
0.75872
0.758622
0.758574
0.75856
0.758534
0.758562
0.758709
0.759505
0.763308
0.775441
0.807446
0.854076
0.912808
0.961793
0.986647
0.990446
0.984023
0.987423
0.992109
0.99483
0.758587
0.758633
0.758712
0.758721
0.758672
0.758624
0.758634
0.758785
0.759087
0.759231
0.759364
0.759463
0.759466
0.759385
0.759161
0.759063
0.75919
0.759423
0.759461
0.759354
0.759117
0.759076
0.759097
0.759159
0.759321
0.759455
0.759468
0.759428
0.759302
0.758955
0.758308
0.757931
0.75795
0.758148
0.758136
0.757835
0.757402
0.757196
0.757234
0.757843
0.758972
0.759095
0.758822
0.758879
0.759154
0.758983
0.758724
0.758863
0.759092
0.759067
0.759457
0.760012
0.760069
0.759601
0.758513
0.758355
0.758677
0.758805
0.758639
0.758852
0.759716
0.760051
0.759708
0.758698
0.758245
0.758357
0.75879
0.759085
0.759225
0.75945
0.759618
0.759624
0.759526
0.759379
0.75934
0.759392
0.759369
0.759231
0.758989
0.758739
0.758581
0.758529
0.758551
0.758641
0.758716
0.758785
0.758879
0.758909
0.75911
0.760473
0.766538
0.785492
0.824605
0.880132
0.927246
0.957365
0.972248
0.992016
0.994968
0.994401
0.756519
0.75659
0.756682
0.756734
0.756711
0.756606
0.756555
0.756563
0.756635
0.756903
0.757037
0.757021
0.756891
0.756704
0.756652
0.756762
0.75708
0.757264
0.757384
0.75744
0.757428
0.757431
0.757504
0.757674
0.757873
0.758165
0.758636
0.758811
0.75875
0.758443
0.758295
0.758321
0.758438
0.758506
0.758266
0.757337
0.75669
0.756638
0.756783
0.757793
0.759266
0.75951
0.759092
0.758914
0.758982
0.758825
0.758632
0.758806
0.759018
0.759015
0.759328
0.760047
0.760201
0.760039
0.759129
0.758265
0.758159
0.757964
0.757644
0.75794
0.759162
0.759679
0.759331
0.758712
0.758733
0.759056
0.759333
0.759277
0.759271
0.759529
0.759794
0.7598
0.75972
0.759498
0.759387
0.759235
0.759025
0.758852
0.758734
0.758667
0.75859
0.758635
0.758821
0.758935
0.758947
0.758937
0.758902
0.758787
0.758736
0.758778
0.759222
0.761927
0.772147
0.801127
0.847537
0.909372
0.959378
0.988385
0.989293
0.987074
0.75446
0.754581
0.754646
0.754748
0.754799
0.754759
0.75462
0.754577
0.754608
0.754888
0.75506
0.755043
0.754804
0.754523
0.754525
0.754827
0.755023
0.754985
0.75507
0.755472
0.755681
0.755693
0.75573
0.755885
0.756223
0.756654
0.757126
0.757689
0.758394
0.759004
0.75914
0.758907
0.758454
0.758391
0.758133
0.757115
0.756109
0.756033
0.756299
0.757521
0.758623
0.758702
0.758544
0.758128
0.757504
0.757294
0.75713
0.756841
0.756845
0.757308
0.75823
0.759068
0.759529
0.759581
0.759139
0.758138
0.757212
0.756714
0.756673
0.757543
0.759148
0.759337
0.759025
0.758977
0.759247
0.759835
0.759914
0.75969
0.759423
0.759492
0.759758
0.759847
0.759785
0.759522
0.759051
0.758732
0.758682
0.758704
0.758743
0.758752
0.758838
0.759037
0.759177
0.759183
0.759137
0.759051
0.758849
0.758671
0.758632
0.758608
0.758664
0.758849
0.759986
0.765161
0.782978
0.820886
0.876794
0.929504
0.956095
0.979069
0.757612
0.757788
0.757815
0.757735
0.75743
0.75698
0.756872
0.756867
0.757006
0.757077
0.757048
0.756924
0.756524
0.755771
0.75537
0.755446
0.755517
0.755355
0.75524
0.755416
0.755633
0.755685
0.7558
0.756185
0.756873
0.757567
0.758119
0.758651
0.759061
0.759135
0.759017
0.758535
0.758038
0.757648
0.757081
0.755983
0.75535
0.755337
0.755578
0.756225
0.75635
0.756302
0.756203
0.7557
0.754507
0.754042
0.753984
0.753796
0.753827
0.754427
0.755471
0.756346
0.757313
0.758341
0.758479
0.757774
0.756609
0.756247
0.756783
0.758681
0.759562
0.759418
0.758972
0.758909
0.75918
0.759787
0.75986
0.759621
0.758952
0.758574
0.758669
0.758795
0.758825
0.758763
0.758621
0.758621
0.758662
0.758768
0.758979
0.759152
0.759303
0.75935
0.759342
0.759267
0.759115
0.758899
0.75869
0.75866
0.758681
0.758774
0.758979
0.759158
0.759245
0.759587
0.761872
0.771316
0.799989
0.847327
0.910732
0.970935
0.761399
0.760546
0.758651
0.757355
0.757115
0.757113
0.75739
0.757598
0.757555
0.756959
0.756494
0.756053
0.755154
0.754799
0.754852
0.754835
0.754589
0.754073
0.753803
0.753992
0.754178
0.754271
0.754436
0.754821
0.755392
0.75589
0.756225
0.756483
0.756655
0.756618
0.756233
0.755199
0.753833
0.753072
0.752988
0.752997
0.753191
0.753492
0.753833
0.754587
0.754943
0.754997
0.755187
0.755302
0.754844
0.753554
0.753085
0.752952
0.752994
0.753317
0.75385
0.754562
0.755728
0.756943
0.757428
0.757614
0.757592
0.757664
0.758383
0.759315
0.759377
0.758869
0.757543
0.757138
0.757495
0.75841
0.758625
0.7583
0.75762
0.757233
0.757339
0.757612
0.757931
0.75826
0.758714
0.759214
0.759359
0.759334
0.759325
0.759468
0.759522
0.759485
0.759281
0.75897
0.758684
0.758643
0.758683
0.758768
0.758997
0.759262
0.759374
0.759377
0.759305
0.759193
0.75924
0.760151
0.76492
0.783524
0.820881
0.901101
0.767504
0.765448
0.761996
0.761068
0.761009
0.760987
0.761273
0.761569
0.761475
0.761147
0.760754
0.760358
0.760232
0.760404
0.76045
0.760423
0.760038
0.759045
0.758614
0.758924
0.759517
0.75957
0.759097
0.758632
0.758804
0.759613
0.759922
0.75978
0.759656
0.759732
0.759422
0.757699
0.75584
0.755726
0.755792
0.755765
0.75628
0.757572
0.75841
0.758664
0.758783
0.759052
0.76033
0.762056
0.762149
0.761254
0.759464
0.757884
0.756956
0.756634
0.756692
0.757219
0.758257
0.759091
0.758887
0.758012
0.757735
0.757969
0.758755
0.75902
0.758854
0.757673
0.755672
0.754923
0.755146
0.75583
0.756254
0.75628
0.756214
0.756236
0.756526
0.756937
0.75726
0.758018
0.758907
0.759407
0.759475
0.759412
0.759287
0.759192
0.759129
0.758973
0.758711
0.758368
0.758367
0.758587
0.75895
0.759293
0.759553
0.759593
0.759573
0.759475
0.759239
0.75895
0.758902
0.758971
0.759391
0.761974
0.771339
0.826982
0.79844
0.798483
0.799448
0.800014
0.799613
0.797158
0.795144
0.79497
0.795201
0.795379
0.794949
0.794045
0.793922
0.794015
0.793851
0.793254
0.79198
0.791256
0.791331
0.791295
0.790955
0.788888
0.786713
0.786741
0.786589
0.785019
0.782868
0.781809
0.781127
0.780089
0.778342
0.775318
0.772772
0.772193
0.772041
0.772499
0.773727
0.774039
0.773941
0.773018
0.7715
0.771158
0.771152
0.771262
0.771129
0.770199
0.768399
0.766036
0.763877
0.76236
0.760816
0.759837
0.759836
0.75959
0.758606
0.756861
0.755304
0.75518
0.755436
0.756258
0.756565
0.75618
0.755366
0.755048
0.755191
0.755443
0.75566
0.755906
0.756288
0.757084
0.758241
0.758916
0.758835
0.758539
0.758468
0.758426
0.758292
0.757748
0.757442
0.757481
0.757729
0.758025
0.758216
0.75819
0.758601
0.759204
0.759539
0.759709
0.759756
0.759728
0.759564
0.759219
0.758926
0.758866
0.758919
0.759016
0.759095
0.759257
0.760059
0.778271
0.831642
0.83027
0.829146
0.827144
0.825336
0.825073
0.82463
0.823206
0.821323
0.820762
0.820917
0.821875
0.821489
0.820796
0.820718
0.821264
0.821539
0.821761
0.822289
0.822333
0.821489
0.82064
0.819743
0.817732
0.814025
0.810627
0.809842
0.809838
0.809829
0.809219
0.807597
0.805378
0.802493
0.799415
0.798015
0.796614
0.794012
0.791847
0.789967
0.787266
0.783472
0.78074
0.779204
0.777402
0.776377
0.776541
0.776647
0.775669
0.773658
0.772199
0.771267
0.769421
0.767293
0.766877
0.766268
0.764398
0.760448
0.758783
0.758825
0.759391
0.760353
0.760426
0.760049
0.760164
0.759996
0.75977
0.75992
0.76
0.759663
0.759792
0.760496
0.760506
0.759979
0.758788
0.757739
0.757267
0.756695
0.756308
0.756311
0.756444
0.756864
0.757376
0.757761
0.758482
0.759095
0.759313
0.759518
0.75958
0.759499
0.759306
0.759008
0.758844
0.75887
0.759016
0.759168
0.759272
0.759244
0.759124
0.758919
0.762481
0.891867
0.890709