/*--------------------------------*- C++ -*----------------------------------*\
  =========                 |
  \\      /  F ield         | OpenFOAM: The Open Source CFD Toolbox
   \\    /   O peration     | Website:  https://openfoam.org
    \\  /    A nd           | Version:  7
     \\/     M anipulation  |
\*---------------------------------------------------------------------------*/
FoamFile
{
    version     2.0;
    format      ascii;
    class       volScalarField;
    location    "7.7";
    object      T;
}
// * * * * * * * * * * * * * * * * * * * * * * * * * * * * * * * * * * * * * //

dimensions      [0 0 0 1 0 0 0];

internalField   nonuniform List<scalar> 
8400
(
1.00937
1.19319
1.2631
1.32792
1.34524
1.36762
1.36743
1.36526
1.35958
1.34478
1.32954
1.33476
1.33674
1.33623
1.34281
1.35221
1.34974
1.34112
1.32501
1.30315
1.2839
1.26953
1.261
1.25857
1.25684
1.25725
1.2556
1.25254
1.24757
1.23715
0.513138
0.518344
0.561641
0.67408
0.849443
0.992867
1.14408
1.25849
1.34817
1.4388
1.49642
1.53396
1.55962
1.55697
1.54634
1.53124
1.50774
1.47585
1.44323
1.41598
1.41637
1.41962
1.41994
1.41572
1.40941
1.40337
1.39263
1.37565
1.36162
1.35094
0.485232
0.481238
0.47534
0.467603
0.459811
0.453865
0.44515
0.483847
0.605467
0.82341
1.08605
1.24156
1.35922
1.46947
1.52486
1.55253
1.56421
1.55753
1.54489
1.54912
1.54701
1.54386
1.53973
1.53434
1.53729
1.53525
1.52771
1.51178
1.49651
1.4778
0.453308
0.452123
0.449429
0.444825
0.440246
0.436799
0.433902
0.432489
0.433086
0.43483
0.434697
0.431147
0.502654
0.690908
0.953845
1.15349
1.34385
1.50482
1.59744
1.63138
1.62451
1.61179
1.59713
1.5822
1.58424
1.58097
1.57661
1.56883
1.55874
1.53916
0.43975
0.438593
0.436524
0.434519
0.432975
0.430897
0.429399
0.42943
0.431127
0.435413
0.43676
0.434369
0.433852
0.436366
0.444658
0.452078
0.529468
0.770268
1.08417
1.29584
1.42385
1.49808
1.52407
1.54234
1.56387
1.55235
1.55693
1.55935
1.55495
1.54149
0.434379
0.433877
0.432259
0.431036
0.431087
0.431031
0.430939
0.432137
0.437956
0.450254
0.461619
0.463628
0.464587
0.467318
0.471857
0.481582
0.484609
0.484298
0.48514
0.542715
0.739473
0.969027
1.16204
1.29424
1.34723
1.38749
1.43644
1.46644
1.47638
1.4723
0.442845
0.443765
0.445654
0.448607
0.451764
0.455588
0.460369
0.466687
0.475239
0.48279
0.489764
0.49374
0.495139
0.494817
0.494271
0.497295
0.502444
0.504757
0.509538
0.516572
0.527755
0.532996
0.578132
0.725897
0.882691
1.04455
1.151
1.22098
1.2742
1.33828
0.480267
0.481361
0.483335
0.486807
0.491498
0.496237
0.499796
0.501369
0.502341
0.502744
0.505307
0.511951
0.514245
0.514728
0.517737
0.525556
0.534867
0.542479
0.549118
0.555703
0.561803
0.566329
0.56514
0.565396
0.566444
0.604606
0.705358
0.864687
0.980873
1.13003
0.510688
0.510837
0.511749
0.514943
0.52102
0.528289
0.533212
0.53349
0.531587
0.531439
0.533724
0.541531
0.551917
0.56102
0.567787
0.57341
0.578183
0.580088
0.580999
0.582295
0.582245
0.581755
0.583174
0.587109
0.594374
0.598062
0.602637
0.604868
0.630614
0.82953
0.555166
0.554798
0.555193
0.557768
0.564018
0.574228
0.582845
0.58588
0.585631
0.584691
0.584906
0.588066
0.593578
0.59627
0.596466
0.596609
0.598205
0.598344
0.597403
0.598089
0.60158
0.606289
0.611365
0.617029
0.623401
0.627164
0.63003
0.630432
0.627818
0.629758
0.608253
0.605365
0.605345
0.605672
0.607502
0.613244
0.622679
0.626508
0.625752
0.622337
0.619791
0.620137
0.622658
0.624306
0.624793
0.625687
0.628259
0.63264
0.636246
0.639206
0.643106
0.6475
0.650182
0.650562
0.649754
0.648334
0.647145
0.646752
0.648706
0.654786
0.665964
0.66506
0.661185
0.659689
0.659332
0.659534
0.662029
0.667484
0.670201
0.669871
0.668005
0.66745
0.66888
0.672345
0.674333
0.67475
0.67592
0.67813
0.678253
0.677766
0.676835
0.676201
0.675251
0.674351
0.673116
0.673587
0.675123
0.678326
0.681782
0.684457
0.716922
0.718365
0.719399
0.718853
0.715524
0.711778
0.710239
0.711189
0.714436
0.716233
0.715654
0.712932
0.710893
0.710789
0.710527
0.708805
0.706689
0.706346
0.706165
0.705237
0.704402
0.704424
0.704778
0.705498
0.706882
0.708788
0.710649
0.711039
0.71008
0.706999
0.768663
0.769404
0.771279
0.772665
0.772701
0.771126
0.766094
0.761124
0.760326
0.76196
0.762056
0.760155
0.756433
0.755498
0.755526
0.754733
0.751762
0.750459
0.750037
0.74916
0.747514
0.745821
0.744414
0.742888
0.741301
0.739167
0.736654
0.733253
0.729748
0.727057
0.826336
0.824199
0.823812
0.825551
0.827475
0.827011
0.823608
0.817292
0.812616
0.812257
0.812349
0.81057
0.804181
0.800486
0.800498
0.799952
0.796794
0.792186
0.789393
0.787528
0.785144
0.782411
0.778985
0.775919
0.773224
0.770067
0.767649
0.764964
0.763675
0.762332
0.890656
0.882296
0.880138
0.881685
0.88483
0.884387
0.880184
0.872774
0.865426
0.86377
0.864347
0.862872
0.855635
0.848558
0.847547
0.846351
0.842872
0.837509
0.833005
0.829692
0.82661
0.823129
0.818769
0.814536
0.811336
0.808367
0.804926
0.80164
0.798351
0.791816
0.956945
0.945186
0.937964
0.93806
0.941501
0.942243
0.938877
0.930817
0.921066
0.916594
0.917014
0.915868
0.909002
0.899577
0.897109
0.895351
0.891023
0.884781
0.879044
0.874331
0.870098
0.865282
0.860223
0.854555
0.849492
0.844727
0.839312
0.833539
0.828498
0.82074
1.02237
1.01381
1.00245
0.995719
0.99546
0.998657
0.998183
0.992048
0.980599
0.971235
0.970958
0.970325
0.963768
0.952695
0.948517
0.946028
0.940976
0.933889
0.926893
0.92054
0.914994
0.909258
0.902899
0.896061
0.889672
0.883523
0.877446
0.870982
0.865394
0.856425
1.08887
1.08334
1.07258
1.05958
1.05634
1.05841
1.05804
1.05244
1.04089
1.02951
1.02849
1.02701
1.02015
1.0081
1.00137
0.997205
0.991555
0.984038
0.976165
0.968349
0.961
0.954118
0.946816
0.939154
0.931399
0.923959
0.91649
0.908662
0.901803
0.890565
1.14958
1.1454
1.1409
1.13406
1.12628
1.12335
1.11999
1.11388
1.10523
1.09534
1.08975
1.08503
1.07671
1.06629
1.0582
1.05077
1.04296
1.03492
1.02627
1.01707
1.00857
1.00027
0.991741
0.983057
0.97427
0.965561
0.957082
0.948169
0.940118
0.92727
1.18345
1.18235
1.18147
1.17985
1.17672
1.17331
1.17022
1.16641
1.16202
1.1566
1.14997
1.14432
1.13767
1.12822
1.11881
1.10977
1.10006
1.09027
1.08044
1.06965
1.05891
1.04899
1.03888
1.02852
1.01853
1.00839
0.998499
0.988581
0.979609
0.964895
1.18298
1.18329
1.18355
1.18317
1.1825
1.18235
1.18239
1.18227
1.18178
1.18064
1.17917
1.17759
1.17539
1.17172
1.16752
1.16233
1.15513
1.14687
1.13774
1.12747
1.11585
1.10371
1.09154
1.07895
1.06659
1.05446
1.04249
1.03064
1.02035
1.00366
1.15585
1.16248
1.16833
1.16977
1.16843
1.16709
1.16887
1.17296
1.17597
1.17615
1.17643
1.17702
1.17691
1.17662
1.17641
1.17579
1.17469
1.17331
1.17147
1.16812
1.1628
1.15529
1.1457
1.13442
1.12162
1.10777
1.09338
1.07858
1.06566
1.04541
1.07593
1.08254
1.0888
1.0954
1.10374
1.10882
1.11368
1.12228
1.12978
1.13445
1.14111
1.14894
1.15322
1.15774
1.16343
1.16578
1.1674
1.16983
1.17033
1.17014
1.16982
1.16914
1.16772
1.16528
1.16108
1.15412
1.14415
1.13131
1.1179
1.09424
1.0103
1.01219
1.01449
1.0172
1.02087
1.02516
1.02936
1.03451
1.04115
1.04856
1.05637
1.06614
1.07653
1.08682
1.09823
1.10967
1.12035
1.13011
1.14005
1.14729
1.15397
1.15837
1.16109
1.16317
1.16312
1.16275
1.16154
1.1589
1.15453
1.14027
1.00028
1.00035
1.00045
1.0006
1.00081
1.00112
1.00149
1.00201
1.00275
1.00386
1.00538
1.00746
1.01048
1.01428
1.01975
1.02667
1.03569
1.04617
1.05887
1.07325
1.08775
1.10333
1.11659
1.13006
1.14003
1.14703
1.15298
1.15569
1.15542
1.15379
1
1
1
1.00001
1.00001
1.00001
1.00002
1.00002
1.00004
1.00006
1.0001
1.00016
1.00026
1.00043
1.00074
1.00126
1.00215
1.00364
1.006
1.01002
1.01573
1.02442
1.03601
1.05027
1.06783
1.08587
1.10309
1.11966
1.13205
1.14327
1
1
1
1
1
1
1
1
1
1
1
1
1
1
1.00001
1.00001
1.00003
1.00005
1.00012
1.00025
1.00053
1.00112
1.00233
1.00466
1.0089
1.0162
1.02719
1.04295
1.06049
1.09222
1
1
1
1
1
1
1
1
1
1
1
1
1
1
1
1
1
1
1
1
1
1.00001
1.00003
1.00008
1.00022
1.0006
1.00149
1.00365
1.00744
1.02333
1
1
1
1
1
1
1
1
1
1
1
1
1
1
1
1
1
1
1
1
1
1
1
1
1
1.00001
1.00002
1.00007
1.00019
1.00157
0.54242
0.522947
0.489229
0.453573
0.44033
0.434384
0.441995
0.479563
0.512357
0.55965
0.613676
0.664707
0.715604
0.771177
0.836549
0.902805
0.966804
1.02982
1.09492
1.15562
1.18479
1.18205
1.149
1.06696
1.00825
1.00022
1
1
1
1
0.541834
0.518546
0.482203
0.443986
0.43487
0.434194
0.446617
0.490108
0.527385
0.574075
0.624343
0.673348
0.728467
0.793948
0.858075
0.919027
0.98031
1.04262
1.1082
1.16656
1.1867
1.18016
1.13874
1.05292
1.00478
1.00009
1
1
1
1
0.542121
0.517819
0.479808
0.439602
0.428817
0.434293
0.449931
0.494976
0.53384
0.577266
0.626962
0.67987
0.743155
0.808517
0.8671
0.925984
0.986937
1.05055
1.11937
1.17548
1.18774
1.18023
1.13026
1.04045
1.00275
1.00004
1
1
1
1
0.542143
0.517888
0.478424
0.437411
0.425367
0.436053
0.451507
0.496399
0.535482
0.57913
0.630099
0.69428
0.75959
0.816028
0.872762
0.933326
0.997591
1.06624
1.13683
1.18335
1.18849
1.17921
1.11649
1.02722
1.00136
1.00002
1
1
1
1
0.541868
0.5174
0.477392
0.435699
0.423155
0.436962
0.451745
0.495245
0.535167
0.582945
0.644024
0.713123
0.767677
0.821963
0.885686
0.955202
1.02464
1.09194
1.15343
1.18731
1.18858
1.1683
1.0941
1.01767
1.00069
1.00001
1
1
1
1
0.540364
0.51605
0.473825
0.432062
0.420803
0.43554
0.45316
0.494451
0.536138
0.598187
0.666031
0.721414
0.776175
0.841884
0.914187
0.979896
1.04314
1.10669
1.163
1.18904
1.18725
1.15765
1.07879
1.01197
1.00036
1
1
1
1
1
0.538623
0.513829
0.466
0.427114
0.419816
0.43429
0.461276
0.508506
0.558685
0.615882
0.672235
0.726868
0.791587
0.865963
0.929574
0.991278
1.05388
1.11859
1.17215
1.19073
1.18495
1.14997
1.06514
1.00733
1.00017
1
1
1
1
1
0.536786
0.509526
0.46133
0.425309
0.419703
0.439063
0.477586
0.526237
0.574302
0.620468
0.674419
0.737135
0.814279
0.877732
0.937786
1.00005
1.06565
1.13445
1.18269
1.19198
1.18487
1.14061
1.0473
1.00373
1.00007
1
1
1
1
1
0.534759
0.505997
0.460198
0.42539
0.423111
0.448367
0.489386
0.532376
0.578303
0.623524
0.680557
0.759524
0.826903
0.885548
0.94862
1.01906
1.09029
1.1541
1.18982
1.19275
1.18408
1.12006
1.03106
1.00186
1.00003
1
1
1
1
1
0.533799
0.505298
0.460164
0.42555
0.42757
0.452313
0.492053
0.534248
0.578669
0.633182
0.705301
0.778619
0.837954
0.901476
0.978228
1.04864
1.11248
1.16659
1.19269
1.1932
1.17258
1.09931
1.02094
1.00095
1.00001
1
1
1
1
1
0.535248
0.508665
0.462159
0.423819
0.427854
0.452395
0.491082
0.535737
0.583914
0.655981
0.732301
0.791432
0.854787
0.934509
1.00239
1.06583
1.12591
1.17549
1.19399
1.19199
1.16111
1.08323
1.01338
1.00044
1
1
1
1
1
1
0.541502
0.517622
0.463411
0.421109
0.42419
0.450903
0.488098
0.547152
0.615213
0.680768
0.741996
0.805488
0.88417
0.95288
1.01549
1.07905
1.14025
1.18468
1.19488
1.18832
1.15218
1.06603
1.00746
1.00019
1
1
1
1
1
1
0.550622
0.524409
0.461284
0.416303
0.422515
0.454067
0.503954
0.573571
0.634798
0.687929
0.749307
0.825328
0.900813
0.964186
1.02826
1.09745
1.15894
1.19171
1.19546
1.18612
1.1396
1.04595
1.00382
1.00007
1
1
1
1
1
1
0.558699
0.52731
0.455633
0.411288
0.42518
0.469128
0.524465
0.580719
0.638727
0.692639
0.761169
0.84757
0.913625
0.979422
1.05512
1.12264
1.17437
1.19533
1.19595
1.1843
1.11606
1.02955
1.0018
1.00003
1
1
1
1
1
1
0.563702
0.52811
0.452759
0.409081
0.43048
0.475994
0.529065
0.582328
0.63684
0.703557
0.792798
0.864441
0.931361
1.01326
1.08253
1.1407
1.18407
1.19676
1.19621
1.17111
1.09351
1.01829
1.00078
1.00001
1
1
1
1
1
1
0.566581
0.52784
0.452
0.408824
0.433219
0.477144
0.529522
0.586021
0.647068
0.738082
0.817237
0.88631
0.968003
1.03962
1.101
1.15517
1.19075
1.19732
1.1931
1.15608
1.0744
1.01057
1.00033
1
1
1
1
1
1
1
0.569039
0.523832
0.452952
0.411556
0.437332
0.478723
0.531461
0.603582
0.691802
0.769614
0.836429
0.914786
0.993104
1.05755
1.119
1.17003
1.19528
1.19755
1.18777
1.14396
1.05522
1.00551
1.00013
1
1
1
1
1
1
1
0.570399
0.520773
0.455805
0.413395
0.445362
0.49764
0.561762
0.644902
0.717679
0.781977
0.857257
0.942614
1.01128
1.07749
1.14135
1.18258
1.19794
1.19678
1.18306
1.12726
1.03627
1.0026
1.00005
1
1
1
1
1
1
1
0.569769
0.518543
0.457901
0.415152
0.451329
0.521396
0.589046
0.661632
0.727336
0.796636
0.884496
0.962865
1.03316
1.10654
1.16092
1.19153
1.19906
1.19771
1.17848
1.10092
1.02132
1.00107
1.00002
1
1
1
1
1
1
1
0.568379
0.514601
0.457314
0.419551
0.460223
0.533663
0.599214
0.668188
0.735143
0.823501
0.913842
0.987784
1.06764
1.13037
1.17537
1.19716
1.19974
1.19775
1.16236
1.07518
1.01123
1.00039
1
1
1
1
1
1
1
1
0.569987
0.503724
0.446255
0.424838
0.461694
0.535183
0.601633
0.674731
0.766856
0.866076
0.941273
1.02207
1.09487
1.14909
1.18649
1.19942
1.19998
1.19012
1.13888
1.0526
1.00545
1.00014
1
1
1
1
1
1
1
1
0.5724
0.490357
0.43102
0.427654
0.460311
0.532367
0.61148
0.71413
0.818981
0.893149
0.970643
1.05354
1.11771
1.16669
1.19374
1.19997
1.19814
1.17921
1.1201
1.03495
1.00255
1.00005
1
1
1
1
1
1
1
1
0.576336
0.476157
0.411483
0.427693
0.478499
0.564658
0.663958
0.763671
0.842816
0.917752
1.00492
1.08062
1.14201
1.18166
1.19781
1.19988
1.19492
1.17079
1.09948
1.02037
1.00103
1.00002
1
1
1
1
1
1
1
1
0.582553
0.463922
0.397678
0.424926
0.51072
0.609114
0.699271
0.785091
0.861655
0.950371
1.03887
1.10984
1.1648
1.19218
1.19998
1.20014
1.19394
1.16022
1.07061
1.0098
1.00033
1
1
1
1
1
1
1
1
1
0.584518
0.457281
0.393597
0.436969
0.541755
0.630081
0.714428
0.803339
0.89562
0.996603
1.07361
1.13868
1.1805
1.19851
1.2009
1.20114
1.19375
1.13459
1.04333
1.004
1.0001
1
1
1
1
1
1
1
1
1
0.581727
0.45589
0.400983
0.469996
0.557344
0.640799
0.727775
0.840403
0.953557
1.03498
1.10669
1.16054
1.19099
1.20109
1.20128
1.19964
1.17615
1.10259
1.0245
1.00149
1.00003
1
1
1
1
1
1
1
1
1
0.582481
0.460157
0.430342
0.493182
0.563389
0.656841
0.782834
0.907907
0.995537
1.06891
1.13653
1.17782
1.19734
1.2016
1.20098
1.19322
1.15567
1.07783
1.01325
1.00055
1.00001
1
1
1
1
1
1
1
1
1
0.583289
0.459809
0.446693
0.502387
0.595593
0.725345
0.851666
0.951048
1.02945
1.10402
1.16133
1.19096
1.20056
1.20136
1.19905
1.1863
1.14071
1.05517
1.00601
1.00017
1
1
1
1
1
1
1
1
1
1
0.567552
0.440482
0.449157
0.517235
0.653022
0.789741
0.895873
0.986434
1.07028
1.13857
1.18035
1.19887
1.20211
1.2013
1.19839
1.18081
1.11777
1.03006
1.00209
1.00004
1
1
1
1
1
1
1
1
1
1
0.556675
0.435496
0.448082
0.562406
0.718935
0.832492
0.934726
1.03421
1.11652
1.16577
1.19177
1.2022
1.20278
1.20224
1.19977
1.16904
1.07807
1.01257
1.00057
1.00001
1
1
1
1
1
1
1
1
1
1
0.537913
0.442579
0.476268
0.632837
0.760754
0.876308
0.994988
1.08957
1.15076
1.18387
1.19775
1.20275
1.20317
1.20202
1.19018
1.13193
1.04549
1.00488
1.00014
1
1
1
1
1
1
1
1
1
1
1
0.504652
0.435897
0.53415
0.685477
0.818404
0.948872
1.05802
1.12997
1.17555
1.19426
1.20066
1.2024
1.20193
1.19784
1.1698
1.10133
1.02616
1.00177
1.00004
1
1
1
1
1
1
1
1
1
1
1
0.495442
0.450531
0.591487
0.743057
0.892501
1.02054
1.10701
1.16141
1.19288
1.1986
1.20215
1.20209
1.19925
1.19034
1.15446
1.07651
1.01235
1.00052
1.00001
1
1
1
1
1
1
1
1
1
1
1
0.495184
0.514496
0.66728
0.833766
0.978656
1.0798
1.14757
1.18517
1.20136
1.19977
1.20292
1.20287
1.19795
1.18361
1.13381
1.04341
1.00399
1.00011
1
1
1
1
1
1
1
1
1
1
1
1
0.47362
0.552413
0.74472
0.925086
1.05279
1.13209
1.17815
1.19808
1.20369
1.20017
1.20326
1.20325
1.19957
1.17471
1.09009
1.01681
1.00094
1.00002
1
1
1
1
1
1
1
1
1
1
1
1
0.121925
0.55669
0.856865
1.02163
1.11627
1.17105
1.19506
1.20329
1.20431
1.19928
1.20259
1.20241
1.19568
1.1393
1.04808
1.00539
1.00018
1
1
1
1
1
1
1
1
1
1
1
1
1
0.199284
0.71612
0.969259
1.10029
1.16399
1.19224
1.20211
1.2048
1.20432
1.19833
1.20062
1.19728
1.1719
1.09865
1.02351
1.00151
1.00003
1
1
1
1
1
1
1
1
1
1
1
1
1
0.382328
0.834942
1.06783
1.15837
1.19034
1.20113
1.20417
1.20494
1.20357
1.19768
1.20012
1.18941
1.1476
1.06532
1.00883
1.00031
1
1
1
1
1
1
1
1
1
1
1
1
1
1
0.678848
0.997361
1.15033
1.19113
1.20091
1.20342
1.20446
1.20455
1.20276
1.1974
1.20166
1.18082
1.11365
1.02812
1.0018
1.00004
1
1
1
1
1
1
1
1
1
1
1
1
1
1
0.997198
1.14825
1.19289
1.2017
1.20321
1.20359
1.20369
1.2043
1.20237
1.19738
1.2003
1.15762
1.05962
1.00594
1.00015
1
1
1
1
1
1
1
1
1
1
1
1
1
1
1
1.20199
1.20272
1.20364
1.20399
1.20347
1.20319
1.20298
1.20431
1.20226
1.19729
1.18463
1.10701
1.01875
0.999884
0.999989
1
1
1
1
1
1
1
1
1
1
1
1
1
1
1
1.20154
1.20256
1.20381
1.20427
1.20323
1.2023
1.20263
1.20525
1.2041
1.19501
1.17532
1.10129
1.01985
1.00077
1.00001
1
1
1
1
1
1
1
1
1
1
1
1
1
1
1
1.20145
1.20248
1.20394
1.20451
1.20334
1.20179
1.20234
1.20556
1.20468
1.1951
1.16408
1.07178
1.00638
1.0001
1
1
1
1
1
1
1
1
1
1
1
1
1
1
1
1
1.20144
1.20244
1.20396
1.20454
1.20341
1.20155
1.20186
1.20526
1.20479
1.19378
1.14711
1.04708
1.00291
1.00003
1
1
1
1
1
1
1
1
1
1
1
1
1
1
1
1
1.20164
1.20239
1.20383
1.2045
1.20361
1.20176
1.20176
1.20482
1.20382
1.18357
1.12384
1.02859
1.00112
1.00001
1
1
1
1
1
1
1
1
1
1
1
1
1
1
1
1
1.20226
1.20236
1.20326
1.20391
1.20376
1.20247
1.20221
1.20439
1.20279
1.17439
1.10031
1.01541
1.00038
1
1
1
1
1
1
1
1
1
1
1
1
1
1
1
1
1
1.20272
1.20231
1.20258
1.20325
1.2038
1.20384
1.20252
1.20347
1.20241
1.16571
1.07245
1.00688
1.00011
1
1
1
1
1
1
1
1
1
1
1
1
1
1
1
1
1
1.20302
1.20226
1.20193
1.20231
1.20389
1.20549
1.20302
1.2009
1.19763
1.14764
1.0461
1.00278
1.00003
1
1
1
1
1
1
1
1
1
1
1
1
1
1
1
1
1
1.20319
1.20222
1.20152
1.20157
1.2038
1.2064
1.20484
1.19776
1.1885
1.1245
1.02803
1.00104
1.00001
1
1
1
1
1
1
1
1
1
1
1
1
1
1
1
1
1
1.20322
1.20223
1.20135
1.20122
1.20334
1.20682
1.2063
1.19654
1.18059
1.10036
1.0146
1.00034
1
1
1
1
1
1
1
1
1
1
1
1
1
1
1
1
1
1
1.20308
1.20212
1.20136
1.20117
1.20314
1.20724
1.20689
1.1955
1.16905
1.06866
1.00606
1.00009
1
1
1
1
1
1
1
1
1
1
1
1
1
1
1
1
1
1
1.20256
1.20202
1.20171
1.2016
1.2029
1.20753
1.20726
1.19076
1.14494
1.04347
1.00242
1.00002
1
1
1
1
1
1
1
1
1
1
1
1
1
1
1
1
1
1
1.20195
1.20196
1.20239
1.2022
1.20234
1.20723
1.20769
1.18667
1.12081
1.02475
1.0008
1.00001
1
1
1
1
1
1
1
1
1
1
1
1
1
1
1
1
1
1
1.20168
1.20161
1.20294
1.20289
1.2014
1.20544
1.20792
1.18232
1.09028
1.01098
1.00022
1
1
1
1
1
1
1
1
1
1
1
1
1
1
1
1
1
1
1
1.2014
1.20107
1.20307
1.20393
1.20109
1.20324
1.20419
1.16182
1.06035
1.00449
1.00006
1
1
1
1
1
1
1
1
1
1
1
1
1
1
1
1
1
1
1
1.20115
1.20059
1.20232
1.20536
1.2043
1.20139
1.1993
1.14049
1.03742
1.00164
1.00001
1
1
1
1
1
1
1
1
1
1
1
1
1
1
1
1
1
1
1
1.20104
1.20038
1.20076
1.20664
1.20907
1.20119
1.19408
1.11171
1.01778
1.00046
1
1
1
1
1
1
1
1
1
1
1
1
1
1
1
1
1
1
1
1
1.2011
1.19985
1.19961
1.20822
1.21176
1.2013
1.17778
1.07548
1.00728
1.00012
1
1
1
1
1
1
1
1
1
1
1
1
1
1
1
1
1
1
1
1
1.20099
1.1995
1.19889
1.20927
1.21276
1.19797
1.15262
1.04844
1.00274
1.00003
1
1
1
1
1
1
1
1
1
1
1
1
1
1
1
1
1
1
1
1
1.20035
1.19965
1.19846
1.20966
1.21363
1.19567
1.12549
1.0249
1.00077
1.00001
1
1
1
1
1
1
1
1
1
1
1
1
1
1
1
1
1
1
1
1
1.1989
1.19998
1.19879
1.20903
1.21394
1.18745
1.09004
1.01015
1.00019
1
1
1
1
1
1
1
1
1
1
1
1
1
1
1
1
1
1
1
1
1
1.19726
1.20049
1.20267
1.20748
1.21067
1.16318
1.05851
1.00392
1.00005
1
1
1
1
1
1
1
1
1
1
1
1
1
1
1
1
1
1
1
1
1
1.19652
1.20371
1.20985
1.20626
1.20625
1.13887
1.0318
1.00115
1.00001
1
1
1
1
1
1
1
1
1
1
1
1
1
1
1
1
1
1
1
1
1
1.19617
1.20692
1.21428
1.20683
1.19742
1.09983
1.01245
1.00026
1
1
1
1
1
1
1
1
1
1
1
1
1
1
1
1
1
1
1
1
1
1
1.19593
1.20862
1.21708
1.20546
1.17111
1.06317
1.00463
1.00006
1
1
1
1
1
1
1
1
1
1
1
1
1
1
1
1
1
1
1
1
1
1
1.19629
1.20945
1.21871
1.20125
1.14282
1.03525
1.00136
1.00001
1
1
1
1
1
1
1
1
1
1
1
1
1
1
1
1
1
1
1
1
1
1
1.19712
1.21107
1.21983
1.19796
1.10467
1.01355
1.00029
1
1
1
1
1
1
1
1
1
1
1
1
1
1
1
1
1
1
1
1
1
1
1
1.20278
1.21331
1.21843
1.17173
1.06437
1.00468
1.00006
1
1
1
1
1
1
1
1
1
1
1
1
1
1
1
1
1
1
1
1
1
1
1
1.21287
1.21293
1.21021
1.14097
1.03483
1.00137
1.00001
1
1
1
1
1
1
1
1
1
1
1
1
1
1
1
1
1
1
1
1
1
1
1
1.22924
1.20764
1.19797
1.10135
1.01293
1.00029
1
1
1
1
1
1
1
1
1
1
1
1
1
1
1
1
1
1
1
1
1
1
1
1
1.24564
1.19486
1.16978
1.05922
1.00425
1.00006
1
1
1
1
1
1
1
1
1
1
1
1
1
1
1
1
1
1
1
1
1
1
1
1
1.25646
1.18234
1.13144
1.03053
1.00127
1.00001
1
1
1
1
1
1
1
1
1
1
1
1
1
1
1
1
1
1
1
1
1
1
1
1
1.26121
1.16809
1.08806
1.01148
1.0003
1
1
1
1
1
1
1
1
1
1
1
1
1
1
1
1
1
1
1
1
1
1
1
1
1
1.25549
1.14325
1.05476
1.00446
1.00007
1
1
1
1
1
1
1
1
1
1
1
1
1
1
1
1
1
1
1
1
1
1
1
1
1
1.2396
1.11846
1.02959
1.00141
1.00002
1
1
1
1
1
1
1
1
1
1
1
1
1
1
1
1
1
1
1
1
1
1
1
1
1
1.22394
1.08809
1.01295
1.00035
1
1
1
1
1
1
1
1
1
1
1
1
1
1
1
1
1
1
1
1
1
1
1
1
1
1
1.1885
1.05575
1.00474
1.00007
1
1
1
1
1
1
1
1
1
1
1
1
1
1
1
1
1
1
1
1
1
1
1
1
1
1
1.142
1.03321
1.00154
1.00001
1
1
1
1
1
1
1
1
1
1
1
1
1
1
1
1
1
1
1
1
1
1
1
1
1
1
1.09501
1.01277
1.00028
1
1
1
1
1
1
1
1
1
1
1
1
1
1
1
1
1
1
1
1
1
1
1
1
1
1
1
1.03769
1.00221
1.00002
1
1
1
1
1
1
1
1
1
1
1
1
1
1
1
1
1
1
1
1
1
1
1
1
1
1
1
1
1
1
1
1
1
1
1
1
1
1
1
1
1
1
1
1
1
1
1
1
1
1
1
1
1
1
1
1
1
1
1
1
1
1
1
1
1
1
1
1
1
1
1
1
1
1
1
1
1
1
1
1
1
1
1
1
1
1
1
1
1
1
1
1
1
1
1
1
1
1
1
1
1
1
1
1
1
1
1
1
1
1
1
1
1
1
1
1
1
1
1
1
1
1
1
1
1
1
1
1
1
1
1
1
1
1
1
1
1
1
1
1
1
1
1
1
1
1
1
1
1
1
1
1
1
1
1
1
1
1
1
1
1
1
1
1
1
1
1
1
1
1
1
1
1
1
1
1
1
1
1
1
1
1
1
1
1
1
1
1
1
1
1
1
1
1
1
1
1
1
1
1
1
1
1
1
1
1
1
1
1
1
1
1
1
1
1
1
1
1
1
1
1
1
1
1
1
1
1
1
1
1
1
1
1
1
1
1
1
1
1
1
1
1
1
1
1
1
1
1
1
1
1
1
1
1
1
1
1
1
1
1
1
1
1
1
1
1
1
1
1
1
1
1
1
1
1
1
1
1
1
1
1
1
1
1
1
1
1
1
1
1
1
1
1
1
1
1
1
1
1
1
1
1
1
1
1
1
1
1
1
1
1
1
1
1
1
1
1
1
1
1
1
1
1
1
1
1
1
1
1
1
1
1
1
1
1
1
1
1
1
1
1
1
1
1
1
1
1
1
1
1
1
1
1
1
1
1
1
1
1
1
1
1
1
1
1
1
1
1
1
1
1
1
1
1
1
1
1
1
1
1
1
1
1
1
1
1
1
1
1
1
1
1
1
1
1
1
1
1
1
1
1
1
1
1
1
1
1
1
1
1
1
1
1
1
1
1
1
1
1
1
1
1
1
1
1
1
1
1
1
1
1
1
1
1
1
1
1
1
1
1
1
1
1
1
1
1
1
1
1
1
1
1
1
1
1
1
1
1
1
1
1
1
1
1
1
1
1
1
1
1
1
1
1
1
1
1
1
1
1
1
1
1
1
1
1
1
1
1
1
1
1
1
1
1
1
1
1
1
1
1
1
1
1
1
1
1
1
1
1
1
1
1
1
1
1
1
1
1
1
1
1
1
1
1
1
1
1
1
1
1
1
1
1
1
1
1
1
1
1
1
1
1
1
1
1
1
1
1
1
1
1
1
1
1
1
1
1
1
1
1
1
1
1
1
1
1
1
1
1
1
1
1
1
1
1
1
1
1
1
1
1
1
1
1
1
1
1
1
1
1
1
1
1
1
1
1
1
1
1
1
1
1
1
1
1
1
1
1
1
1
1
1
1
1
1
1
1
1
1
1
1
1
1
1
1
1
1
1
1
1
1
1
1
1
1
1
1
1
1
1
1
1
1
1
1
1
1
1
1
1
1
1
1
1
1
1
1
1
1
1
1
1
1
1
1
1
1
1
1
1
1
1
1
1
1
1
1
1
1
1
1
1
1
1
1
1
1
1
1
1
1
1
1
1
1
1
1
1
1
1
1
1
1
1
1
1
1
1
1
1
1
1
1
1
1
1
1
1
1
1
1
1
1
1
1
1
1
1
1
1
1
1
1
1
1
1
1
1
1
1
1
1
1
1
1
1
1
1
1
1
1
1
1
1
1
1
1
1
1
1
1
1
1
1
1
1
1
1
1
1
1
1
1
1
1
1
1
1
1
1
1
1
1
1
1
1
1
1
1
1
1
1
1
1
1
1
1
1
1
1
1
1
1
1
1
1
1
1
1
1
1
1
1
1
1
1
1
1
1
1
1
1
1
1
1
1
1
1
1
1
1
1
1
1
1
1
1
1
1
1
1
1
1
1
1
1
1
1
1
1
1
1
1
1
1
1
1
1
1
1
1
1
1
1
1
1
1
1
1
1
1
1
1
1
1
1
1
1
1
1
1
1
1
1
1
1
1
1
1
1
1
1
1
1
1
1
1
1
1
1
1
1
1
1
1
1
1
1
1
1
1
1
1
1
1
1
1
1
1
1
1
1
1
1
1
1
1
1
1
1
1
1
1
1
1
1
1
1
1
1
1
1
1
1
1
1
1
1
1
1
1
1
1
1
1
1
1
1
1
1
1
1
1
1
1
1
1
1
1
1
1
1
1
1
1
1
1
1
1
1
1
1
1
1
1
1
1
1
1
1
1
1
1
1
1
1
1
1
1
1
1
1
1
1
1
1
1
1
1
1
1
1
1
1
1
1
1
1
1
1
1
1
1
1
1
1
1
1
1
1
1
1
1
1
1
1
1
1
1
1
1
1
1
1
1
1
1
1
1
1
1
1
1
1
1
1
1
1
1
1
1
1
1
1
1
1
1
1
1
1
1
1
1
1
1
1
1
1
1
1
1
1
1
1
1
1
1
1
1
1
1
1
1
1
1
1
1
1
1
1
1
1
1
1
1
1
1
1
1
1
1
1
1
1
1
1
1
1
1
1
1
1
1
1
1
1
1
1
1
1
1
1
1
1
1
1
1
1
1
1
1
1
1
1
1
1
1
1
1
1
1
1
1
1
1
1
1
1
1
1
1
1
1
1
1
1
1
1
1
1
1
1
1
1
1
1
1
1
1
1
1
1
1
1
1
1
1
1
1
1
1
1
1
1
1
1
1
1
1
1
1
1
1
1
1
1
1
1
1
1
1
1
1
1
1
1
1
1
1
1
1
1
1
1
1
1
1
1
1
1
1
1
1
1
1
1
1
1
1
1
1
1
1
1
1
1
1
1
1
1
1
1
1
1
1
1
1
1
1
1
1
1
1
1
1
1
1
1
1
1
1
1
1
1
1
1
1
1
1
1
1
1
1
1
1
1
1
1
1
1
1
1
1
1
1
1
1
1
1
1
1
1
1
1
1
1
1
1
1
1
1
1
1
1
1
1
1
1
1
1
1
1
1
1
1
1
1
1
1
1
1
1
1
1
1
1
1
1
1
1
1
1
1
1
1
1
1
1
1
1
1
1
1
1
1
1
1
1
1
1
1
1
1
1
1
1
1
1
1
1
1
1
1
1
1
1
1
1
1
1
1
1
1
1
1
1
1
1
1
1
1
1
1
1
1
1
1
1
1
1
1
1
1
1
1
1
1
1
1
1
1
1
1
1
1
1
1
1
1
1
1
1
1
1
1
1
1
1
1
1
1
1
1
1
1
1
1
1
1
1
1
1
1
1
1
1
1
1
1
1
1
1
1
1
1
1
1
1
1
1
1
1
1
1
1
1
1
1
1
1
1
1
1
1
1
1
1
1
1
1
1
1
1
1
1
1
1
1
1
1
1
1
1
1
1
1
1
1
1
1
1
1
1
1
1
1
1
1
1
1
1
1
1
1
1
1
1
1
1
1
1
1
1
1
1
1
1
1
1
1
1
1
1
1
1
1
1
1
1
1
1
1
1
1
1
1
1
1
1
1
1
1
1
1
1
1
1
1
1
1
1
1
1
1
1
1
1
1
1
1
1
1
1
1
1
1
1
1
1
1
1
1
1
1
1
1
1
1
1
1
1
1
1
1
1
1
1
1
1
1
1
1
1
1
1
1
1
1
1
1
1
1
1
1
1
1
1
1
1
1
1
1
1
1
1
1
1
1
1
1
1
1
1
1
1
1
1
1
1
1
1
1
1
1
1
1
1
1
1
1
1
1
1
1
1
1
1
1
1
1
1
1
1
1
1
1
1
1
1
1
1
1
1
1
1
1
1
1
1
1
1
1
1
1
1
1
1
1
1
1
1
1
1
1
1
1
1
1
1
1
1
1
1
1
1
1
1
1
1
1
1
1
1
1
1
1
1
1
1
1
1
1
1
1
1
1
1
1
1
1
1
1
1
1
1
1
1
1
1
1
1
1
1
1
1
1
1
1
1
1
1
1
1
1
1
1
1
1
1
1
1
1
1
1
1
1
1
1
1
1
1
1
1
1
1
1
1
1
1
1
1
1
1
1
1
1
1
1
1
1
1
1
1
1
1
1
1
1
1
1
1
1
1
1
1
1
1
1
1
1
1
1
1
1
1
1
1
1
1
1
1
1
1
1
1
1
1
1.10738
1
1
1
1
1
1
1
1
1
1
1
1
1
1
1
1
1
1
1
1
1
1
1
1
1
1
1
1
1
1.29029
0.99962
1
1
1
1
1
1
1
1
1
1
1
1
1
1
1
1
1
1
1
1
1
1
1
1
1
1
1
1
1.47835
1.03157
1
1
1
1
1
1
1
1
1
1
1
1
1
1
1
1
1
1
1
1
1
1
1
1
1
1
1
1
1.67916
1.13766
1
1
1
1
1
1
1
1
1
1
1
1
1
1
1
1
1
1
1
1
1
1
1
1
1
1
1
1
1.86252
1.35069
0.999573
1
1
1
1
1
1
1
1
1
1
1
1
1
1
1
1
1
1
1
1
1
1
1
1
1
1
1
2.01175
1.60496
1.04837
0.999937
1
1
1
1
1
1
1
1
1
1
1
1
1
1
1
1
1
1
1
1
1
1
1
1
1
1
2.10413
1.86597
1.48083
1.00253
1
1
1
1
1
1
1
1
1
1
1
1
1
1
1
1
1
1
1
1
1
1
1
1
1
1
2.04336
1.91603
1.96688
1.3158
0.999668
1
1
1
1
1
1
1
1
1
1
1
1
1
1
1
1
1
1
1
1
1
1
1
1
1
1.94471
1.90347
2.03511
1.83752
1.11598
0.999846
1
1
1
1
1
1
1
1
1
1
1
1
1
1
1
1
1
1
1
1
1
1
1
1
1.88179
1.89154
2.00652
2.0333
1.5307
1.00355
1
1
1
1
1
1
1
1
1
1
1
1
1
1
1
1
1
1
1
1
1
1
1
1
1.85201
1.87682
1.97273
2.01888
1.87296
1.19602
0.999737
1
1
1
1
1
1
1
1
1
1
1
1
1
1
1
1
1
1
1
1
1
1
1
1.83585
1.8723
1.943
1.98083
1.99191
1.54541
1.01017
1
1
1
1
1
1
1
1
1
1
1
1
1
1
1
1
1
1
1
1
1
1
1
1.83516
1.86599
1.91749
1.9706
2.01606
1.84247
1.18254
0.999739
1
1
1
1
1
1
1
1
1
1
1
1
1
1
1
1
1
1
1
1
1
1
1.83792
1.86603
1.90785
1.96777
2.00816
1.95986
1.51853
1.00824
1
1
1
1
1
1
1
1
1
1
1
1
1
1
1
1
1
1
1
1
1
1
1.84393
1.86872
1.91037
1.96285
1.99547
1.95721
1.73288
1.1165
0.999933
1
1
1
1
1
1
1
1
1
1
1
1
1
1
1
1
1
1
1
1
1
1.85011
1.87306
1.91385
1.95663
1.97846
1.9553
1.87098
1.37211
0.9999
1
1
1
1
1
1
1
1
1
1
1
1
1
1
1
1
1
1
1
1
1
1.85648
1.87776
1.9162
1.95489
1.96759
1.95795
1.93663
1.65941
1.06169
1
1
1
1
1
1
1
1
1
1
1
1
1
1
1
1
1
1
1
1
1
1.86325
1.88229
1.91743
1.95491
1.96315
1.95886
1.94455
1.80864
1.27555
0.999607
1
1
1
1
1
1
1
1
1
1
1
1
1
1
1
1
1
1
1
1
1.86946
1.88669
1.91817
1.9551
1.96591
1.96407
1.94885
1.87551
1.49653
1.01213
1
1
1
1
1
1
1
1
1
1
1
1
1
1
1
1
1
1
1
1
1.87546
1.89068
1.91896
1.95648
1.97141
1.96557
1.95033
1.91366
1.72393
1.13067
0.999818
1
1
1
1
1
1
1
1
1
1
1
1
1
1
1
1
1
1
1
1.88235
1.89462
1.92105
1.95758
1.97373
1.9663
1.95148
1.93016
1.83454
1.37847
1.00099
1
1
1
1
1
1
1
1
1
1
1
1
1
1
1
1
1
1
1
1.88593
1.89515
1.92256
1.95683
1.97339
1.96775
1.95457
1.9359
1.87797
1.58082
1.03768
1
1
1
1
1
1
1
1
1
1
1
1
1
1
1
1
1
1
1
1.88579
1.89453
1.92246
1.95584
1.97327
1.97061
1.95992
1.94223
1.90635
1.77006
1.20292
0.999683
1
1
1
1
1
1
1
1
1
1
1
1
1
1
1
1
1
1
1.88465
1.89334
1.92209
1.95533
1.97322
1.97306
1.96289
1.94447
1.91916
1.86253
1.47083
1.00858
1
1
1
1
1
1
1
1
1
1
1
1
1
1
1
1
1
1
1.88278
1.89211
1.92182
1.95451
1.97279
1.97358
1.96423
1.94731
1.92991
1.88752
1.65675
1.08182
1
1
1
1
1
1
1
1
1
1
1
1
1
1
1
1
1
1
1.88216
1.89197
1.92153
1.95311
1.97157
1.97329
1.96538
1.95088
1.93469
1.90513
1.81814
1.28793
0.999583
1
1
1
1
1
1
1
1
1
1
1
1
1
1
1
1
1
1.8826
1.89236
1.92082
1.95114
1.96946
1.97246
1.9652
1.95128
1.93469
1.91328
1.89332
1.56234
1.02476
1
1
1
1
1
1
1
1
1
1
1
1
1
1
1
1
1
1.88409
1.89359
1.91993
1.94941
1.96696
1.97079
1.96438
1.9505
1.93385
1.91918
1.90134
1.72342
1.14392
0.999786
1
1
1
1
1
1
1
1
1
1
1
1
1
1
1
1
1.88535
1.89494
1.9191
1.94814
1.96421
1.96818
1.96259
1.9492
1.93345
1.92211
1.90653
1.85512
1.37336
1.00161
1
1
1
1
1
1
1
1
1
1
1
1
1
1
1
1
1.88545
1.89594
1.91832
1.94665
1.96181
1.96567
1.96092
1.94839
1.93389
1.92143
1.91005
1.91491
1.64113
1.05169
1
1
1
1
1
1
1
1
1
1
1
1
1
1
1
1
1.88523
1.89633
1.91769
1.94503
1.96037
1.96429
1.9606
1.94833
1.93473
1.92192
1.91168
1.9165
1.77489
1.21513
0.999661
1
1
1
1
1
1
1
1
1
1
1
1
1
1
1
1.88542
1.89654
1.91743
1.94349
1.95947
1.96401
1.96081
1.94896
1.93577
1.92375
1.91397
1.91182
1.87164
1.44149
1.00626
1
1
1
1
1
1
1
1
1
1
1
1
1
1
1
1.88641
1.89674
1.91757
1.94224
1.95893
1.96415
1.96155
1.95021
1.93702
1.92486
1.91554
1.91258
1.92544
1.69755
1.08501
0.999884
1
1
1
1
1
1
1
1
1
1
1
1
1
1
1.88802
1.89696
1.91781
1.94164
1.95878
1.96441
1.96229
1.95092
1.93749
1.92544
1.9168
1.91309
1.92886
1.81192
1.28399
1.00031
1
1
1
1
1
1
1
1
1
1
1
1
1
1
1.89013
1.89755
1.91806
1.9414
1.95868
1.96449
1.96262
1.95125
1.93736
1.92573
1.91801
1.91205
1.92097
1.87713
1.49511
1.01432
1
1
1
1
1
1
1
1
1
1
1
1
1
1
1.89201
1.89839
1.91802
1.94111
1.95836
1.96431
1.96264
1.95144
1.93689
1.92556
1.91897
1.9119
1.91745
1.92701
1.73362
1.118
0.999815
0.999999
1
1
1
1
1
1
1
1
1
1
1
1
1.89319
1.89914
1.91785
1.94057
1.95757
1.96368
1.96237
1.95174
1.93665
1.92503
1.91951
1.9141
1.91785
1.93348
1.8373
1.33762
1.00185
1
1
1
1
1
1
1
1
1
1
1
1
1
1.89381
1.89971
1.91757
1.93971
1.95635
1.96271
1.96193
1.95226
1.93694
1.92515
1.91991
1.91593
1.9174
1.93144
1.88324
1.53528
1.02303
0.999962
1
1
1
1
1
1
1
1
1
1
1
1
1.89404
1.89979
1.91659
1.93774
1.95416
1.96122
1.96161
1.95338
1.93875
1.92615
1.92045
1.91703
1.91556
1.92313
1.92116
1.76422
1.16249
1.00042
1
1
1
1
1
1
1
1
1
1
1
1
1.89569
1.90378
1.92188
1.94169
1.95598
1.96162
1.96113
1.95426
1.93797
1.92549
1.92011
1.91761
1.91554
1.92333
1.93182
1.83726
1.32965
0.988702
0.999892
1
1
1
1
1
1
1
1
1
1
1
1.54239
1.74796
1.83183
1.89082
1.9269
1.94846
1.95683
1.95427
1.94567
1.93244
1.92318
1.92009
1.9168
1.92002
1.93169
1.89803
1.67929
1.1215
1.00173
1.00001
1
1
1
1
1
1
1
1
1
1
1.16381
1.53243
1.68824
1.78429
1.85169
1.90293
1.93122
1.94384
1.9418
1.93344
1.92422
1.92074
1.91975
1.91877
1.92739
1.92847
1.87173
1.45062
1.03473
1.00031
1
1
1
1
1
1
1
1
1
1
0.883342
1.32211
1.53297
1.65741
1.75379
1.82109
1.87849
1.90952
1.92454
1.92448
1.91988
1.91784
1.91908
1.91768
1.92155
1.93332
1.91875
1.72802
1.19685
1.00498
1.00002
1
1
1
1
1
1
1
1
1
0.887642
1.18371
1.37984
1.52509
1.6473
1.73352
1.80054
1.85578
1.88624
1.90146
1.90542
1.90722
1.91236
1.91627
1.91708
1.93118
1.93857
1.88395
1.49843
1.05023
1.00054
1
1
1
1
1
1
1
1
1
0.93727
1.12121
1.25971
1.39986
1.52644
1.64562
1.71734
1.78848
1.8359
1.86314
1.87847
1.88723
1.89693
1.90776
1.91265
1.92668
1.94197
1.93664
1.7508
1.22714
1.00677
1.00003
1
1
1
1
1
1
1
1
0.980481
1.07212
1.1736
1.30936
1.41488
1.54891
1.64757
1.70909
1.77764
1.81736
1.84086
1.85891
1.87233
1.88976
1.9018
1.91711
1.93897
1.93535
1.91705
1.55597
1.0653
1.00073
1
1
1
1