/*--------------------------------*- C++ -*----------------------------------*\
  =========                 |
  \\      /  F ield         | OpenFOAM: The Open Source CFD Toolbox
   \\    /   O peration     | Website:  https://openfoam.org
    \\  /    A nd           | Version:  7
     \\/     M anipulation  |
\*---------------------------------------------------------------------------*/
FoamFile
{
    version     2.0;
    format      ascii;
    class       volScalarField;
    location    "0.3699";
    object      rho;
}
// * * * * * * * * * * * * * * * * * * * * * * * * * * * * * * * * * * * * * //

dimensions      [1 -3 0 0 0 0 0];

internalField   nonuniform List<scalar> 
324000
(
0.449969
0.628043
0.835466
1.04853
1.09717
1.10325
1.08068
1.04809
1.02776
1.0367
1.04783
1.06062
1.06948
1.0771
1.07865
1.07477
1.06753
1.06531
1.06544
1.06592
1.06494
1.06406
1.06479
1.06652
1.06935
1.07382
1.07415
1.06855
1.05872
1.05306
1.04821
1.046
1.04625
1.04776
1.05444
1.06515
1.07097
1.07308
1.07446
1.08395
1.10224
1.11721
1.12914
1.13113
1.13427
1.14714
1.16943
1.24018
1.29828
1.32955
1.34812
1.35561
1.3603
1.36605
1.37435
1.38515
1.39507
1.39959
1.40017
1.40011
1.40004
1.40001
1.40001
1.40001
1.40001
1.40001
1.40001
1.40001
1.40001
1.40001
1.40001
1.40001
1.40001
1.40001
1.40001
1.40001
1.40001
1.40001
1.40001
1.40001
0.328028
0.330242
0.386668
0.568292
0.830125
1.01169
1.08604
1.05539
1.04791
1.05026
1.04737
1.03419
1.03624
1.04504
1.05402
1.05269
1.04398
1.0397
1.03806
1.0373
1.03665
1.0368
1.03842
1.04108
1.04409
1.04603
1.04442
1.03647
1.02898
1.02332
1.01755
1.01355
1.01164
1.01156
1.01724
1.02636
1.03191
1.03686
1.04168
1.05171
1.0705
1.09413
1.11265
1.11715
1.11917
1.13116
1.15888
1.22705
1.28716
1.32701
1.3471
1.35423
1.35869
1.36431
1.37279
1.38401
1.39448
1.39942
1.40013
1.4001
1.40004
1.40001
1.40001
1.40001
1.40001
1.40001
1.40001
1.40001
1.40001
1.40001
1.40001
1.40001
1.40001
1.40001
1.40001
1.40001
1.40001
1.40001
1.40001
1.40001
0.330235
0.331234
0.331938
0.332112
0.393415
0.553724
0.806568
0.984938
1.07896
1.06042
1.03848
1.02121
1.02827
1.03293
1.03558
1.03414
1.02837
1.02467
1.0235
1.02446
1.02726
1.03024
1.0322
1.03538
1.03569
1.03611
1.03276
1.02291
1.01349
1.00606
0.999155
0.992373
0.989121
0.990368
0.998388
1.00758
1.00984
1.0116
1.01783
1.03126
1.05533
1.08567
1.10897
1.11992
1.12219
1.12994
1.15608
1.21873
1.27967
1.32515
1.34587
1.35264
1.35684
1.36243
1.3712
1.38289
1.3939
1.39925
1.40009
1.40008
1.40004
1.40001
1.40001
1.40001
1.40001
1.40001
1.40001
1.40001
1.40001
1.40001
1.40001
1.40001
1.40001
1.40001
1.40001
1.40001
1.40001
1.40001
1.40001
1.40001
0.3318
0.332353
0.332705
0.332783
0.332759
0.332439
0.378756
0.562759
0.824066
0.956575
1.02153
1.01867
1.02373
1.01733
1.01666
1.02158
1.02416
1.02634
1.02824
1.02955
1.02931
1.03071
1.03276
1.03417
1.0319
1.0302
1.02724
1.01852
1.01006
1.00334
0.996619
0.989446
0.985827
0.987064
0.99155
0.993368
0.993425
0.998949
1.01036
1.02759
1.05668
1.08588
1.11123
1.12759
1.12909
1.1368
1.16289
1.21641
1.27615
1.32343
1.34389
1.35041
1.35452
1.36037
1.36958
1.38179
1.39337
1.3991
1.40006
1.40007
1.40003
1.40001
1.40001
1.40001
1.40001
1.40001
1.40001
1.40001
1.40001
1.40001
1.40001
1.40001
1.40001
1.40001
1.40001
1.40001
1.40001
1.40001
1.40001
1.40001
0.332707
0.332849
0.332838
0.332767
0.332385
0.331862
0.331528
0.330967
0.382452
0.578905
0.846612
0.976546
1.02188
1.02169
1.01688
1.02307
1.02638
1.02766
1.03214
1.03419
1.03208
1.03223
1.03392
1.03356
1.03178
1.03207
1.02959
1.0219
1.01329
1.00708
1.00144
0.991975
0.984318
0.983583
0.984426
0.985017
0.98925
0.997498
1.01014
1.03078
1.05973
1.10476
1.14533
1.16355
1.16309
1.15729
1.17561
1.22114
1.27907
1.32293
1.34149
1.34752
1.35173
1.35811
1.36791
1.38073
1.39289
1.39897
1.40004
1.40005
1.40003
1.40001
1.40001
1.40001
1.40001
1.40001
1.40001
1.40001
1.40001
1.40001
1.40001
1.40001
1.40001
1.40001
1.40001
1.40001
1.40001
1.40001
1.40001
1.40001
0.332952
0.332864
0.332609
0.332142
0.331604
0.331246
0.330806
0.330629
0.330611
0.33049
0.391134
0.593636
0.821724
0.980766
1.01887
1.0333
1.03636
1.03644
1.0458
1.04493
1.04327
1.04449
1.044
1.041
1.03925
1.03766
1.03294
1.0242
1.01405
1.00698
0.999565
0.985901
0.979262
0.979144
0.98003
0.981927
0.989261
0.999844
1.01454
1.0408
1.08132
1.13483
1.17611
1.19325
1.19425
1.18241
1.18729
1.22112
1.27674
1.32246
1.33903
1.34414
1.34869
1.35571
1.36618
1.3797
1.39246
1.39886
1.40002
1.40004
1.40003
1.40001
1.40001
1.40001
1.40001
1.40001
1.40001
1.40001
1.40001
1.40001
1.40001
1.40001
1.40001
1.40001
1.40001
1.40001
1.40001
1.40001
1.40001
1.40001
0.33266
0.332268
0.331813
0.331347
0.331
0.33068
0.330529
0.330544
0.330503
0.330435
0.330382
0.331281
0.388981
0.599644
0.845262
0.984735
1.02283
1.03795
1.05029
1.04707
1.04786
1.04911
1.04646
1.04443
1.0456
1.04476
1.03718
1.02485
1.0115
1.00206
0.991847
0.981146
0.978468
0.978798
0.980658
0.987596
1.00257
1.01903
1.03495
1.06151
1.10624
1.15751
1.19328
1.21278
1.21917
1.21868
1.22311
1.24965
1.2938
1.32556
1.33645
1.34078
1.34568
1.35324
1.36441
1.37872
1.39208
1.39877
1.4
1.40004
1.40002
1.40001
1.40001
1.40001
1.40001
1.40001
1.40001
1.40001
1.40001
1.40001
1.40001
1.40001
1.40001
1.40001
1.40001
1.40001
1.40001
1.40001
1.40001
1.40001
0.331933
0.331493
0.331098
0.330822
0.3306
0.330483
0.330483
0.330473
0.330451
0.330413
0.330341
0.33039
0.330523
0.332574
0.409669
0.616901
0.851394
0.987716
1.03932
1.04352
1.05141
1.04762
1.04661
1.04783
1.05003
1.04773
1.03743
1.01989
1.00554
0.996099
0.987524
0.980064
0.979432
0.980943
0.984123
0.996213
1.01788
1.04086
1.06623
1.09821
1.13965
1.17578
1.20367
1.22384
1.23442
1.24046
1.24854
1.27185
1.30728
1.32701
1.33374
1.33766
1.34268
1.35071
1.36265
1.37779
1.39175
1.3987
1.39998
1.40003
1.40002
1.40001
1.40001
1.40001
1.40001
1.40001
1.40001
1.40001
1.40001
1.40001
1.40001
1.40001
1.40001
1.40001
1.40001
1.40001
1.40001
1.40001
1.40001
1.40001
0.33117
0.330798
0.330627
0.330528
0.330476
0.33049
0.330492
0.330443
0.33038
0.330325
0.330356
0.330486
0.33068
0.330931
0.331133
0.334281
0.429453
0.663872
0.916899
0.990821
1.03489
1.04481
1.04156
1.05224
1.05193
1.04446
1.02945
1.01248
1.00119
0.993862
0.98491
0.982945
0.985705
0.990519
0.999632
1.01981
1.04586
1.07057
1.09678
1.13066
1.16596
1.1875
1.20653
1.2279
1.24241
1.25167
1.26423
1.2885
1.31502
1.327
1.33092
1.33432
1.33956
1.34822
1.36098
1.37696
1.39149
1.39865
1.39997
1.40002
1.40002
1.40001
1.40001
1.40001
1.40001
1.40001
1.40001
1.40001
1.40001
1.40001
1.40001
1.40001
1.40001
1.40001
1.40001
1.40001
1.40001
1.40001
1.40001
1.40001
0.330627
0.330549
0.330496
0.330523
0.330531
0.330525
0.330457
0.330354
0.330313
0.330358
0.330437
0.330578
0.33078
0.331055
0.331324
0.331353
0.331175
0.344033
0.465988
0.728397
0.963044
1.0129
1.04261
1.06288
1.05454
1.03943
1.02245
1.00948
0.998962
0.991987
0.987358
0.989777
0.996816
1.00414
1.01851
1.04395
1.06935
1.09468
1.12437
1.15609
1.1747
1.186
1.20345
1.22592
1.2441
1.2574
1.27385
1.29684
1.31683
1.32452
1.32744
1.33078
1.33649
1.34586
1.35938
1.37615
1.39128
1.39862
1.39996
1.40002
1.40001
1.40001
1.40001
1.40001
1.40001
1.40001
1.40001
1.40001
1.40001
1.40001
1.40001
1.40001
1.40001
1.40001
1.40001
1.40001
1.40001
1.40001
1.40001
1.40001
0.330558
0.330572
0.33055
0.330489
0.330399
0.330344
0.330344
0.330366
0.330395
0.330448
0.330548
0.330666
0.330833
0.331073
0.331298
0.331294
0.331111
0.330915
0.330754
0.363493
0.526169
0.795441
1.00498
1.06096
1.04502
1.03157
1.0173
1.00481
1.00179
0.99508
0.993383
1.00102
1.01036
1.02104
1.04211
1.06898
1.09183
1.11781
1.14396
1.16454
1.17113
1.18067
1.19975
1.22262
1.24258
1.25918
1.27708
1.29824
1.31439
1.32032
1.32338
1.32703
1.3334
1.34355
1.35792
1.37539
1.39096
1.39858
1.39996
1.40002
1.40001
1.40001
1.40001
1.40001
1.40001
1.40001
1.40001
1.40001
1.40001
1.40001
1.40001
1.40001
1.40001
1.40001
1.40001
1.40001
1.40001
1.40001
1.40001
1.40001
0.330527
0.330481
0.330423
0.330356
0.330337
0.330382
0.330454
0.330506
0.330541
0.330566
0.330599
0.330539
0.330549
0.330577
0.330508
0.330383
0.330125
0.330174
0.330416
0.329864
0.327989
0.389884
0.620914
0.901373
0.981102
1.02605
1.0133
1.01064
1.00342
0.995687
1.00162
1.01545
1.02773
1.04374
1.06974
1.08913
1.10445
1.12534
1.15035
1.16186
1.16709
1.17918
1.19906
1.22028
1.23958
1.25759
1.27637
1.29581
1.30907
1.31549
1.31928
1.32361
1.33056
1.34121
1.35627
1.3747
1.39104
1.39864
1.39996
1.40001
1.40001
1.40001
1.40001
1.40001
1.40001
1.40001
1.40001
1.40001
1.40001
1.40001
1.40001
1.40001
1.40001
1.40001
1.40001
1.40001
1.40001
1.40001
1.40001
1.40001
0.330417
0.330369
0.330359
0.330396
0.33047
0.330525
0.330571
0.330622
0.330609
0.330589
0.330553
0.330387
0.330181
0.329895
0.329539
0.329245
0.328765
0.328347
0.328265
0.327245
0.324492
0.318546
0.321724
0.449156
0.748587
0.989721
0.99323
1.01293
1.00279
1.00113
1.02017
1.02817
1.03899
1.06049
1.08899
1.09937
1.11108
1.1299
1.1475
1.15548
1.16414
1.18108
1.20036
1.21846
1.23579
1.25392
1.27345
1.29125
1.3027
1.30968
1.31498
1.32052
1.32801
1.33916
1.35477
1.37377
1.39091
1.39869
1.39996
1.40001
1.40001
1.40001
1.40001
1.40001
1.40001
1.40001
1.40001
1.40001
1.40001
1.40001
1.40001
1.40001
1.40001
1.40001
1.40001
1.40001
1.40001
1.40001
1.40001
1.40001
0.33038
0.330418
0.330483
0.330524
0.330577
0.330625
0.330691
0.33072
0.330657
0.330592
0.330491
0.330235
0.329893
0.329544
0.329047
0.328502
0.327849
0.326708
0.325232
0.322968
0.319039
0.314706
0.311613
0.310961
0.367111
0.617536
0.853657
0.988274
0.997284
1.01867
1.05327
1.04757
1.05419
1.07746
1.09165
1.09709
1.10876
1.12856
1.14008
1.1479
1.16415
1.18539
1.20165
1.21634
1.23201
1.2496
1.26914
1.28602
1.29673
1.30353
1.30952
1.31642
1.32507
1.33685
1.35333
1.37377
1.39118
1.39877
1.39996
1.40001
1.40001
1.40001
1.40001
1.40001
1.40001
1.40001
1.40001
1.40001
1.40001
1.40001
1.40001
1.40001
1.40001
1.40001
1.40001
1.40001
1.40001
1.40001
1.40001
1.40001
0.330473
0.330499
0.330537
0.330598
0.330649
0.330708
0.330735
0.330725
0.330744
0.330699
0.330591
0.33033
0.329856
0.32943
0.328884
0.328128
0.327142
0.325367
0.322622
0.319004
0.314506
0.311887
0.311174
0.312028
0.313892
0.323559
0.480639
0.73623
0.935222
1.00806
1.04654
1.05061
1.07081
1.09744
1.09477
1.09283
1.10673
1.12564
1.13124
1.14126
1.16764
1.18624
1.19907
1.21294
1.22895
1.24582
1.26362
1.27986
1.29142
1.2987
1.30452
1.31155
1.32122
1.33429
1.35158
1.37315
1.39136
1.39887
1.39997
1.40001
1.40001
1.40001
1.40001
1.40001
1.40001
1.40001
1.40001
1.40001
1.40001
1.40001
1.40001
1.40001
1.40001
1.40001
1.40001
1.40001
1.40001
1.40001
1.40001
1.40001
0.330519
0.330582
0.330633
0.330689
0.330718
0.330719
0.330675
0.330707
0.330779
0.330749
0.330605
0.330376
0.330038
0.329655
0.329177
0.328185
0.326705
0.323694
0.318722
0.314252
0.311885
0.311976
0.313154
0.317018
0.322658
0.329548
0.335463
0.377307
0.556866
0.789962
0.948985
1.03552
1.07505
1.08831
1.08708
1.09027
1.1207
1.13066
1.1361
1.15306
1.17496
1.18303
1.19316
1.20815
1.22621
1.24366
1.25874
1.27263
1.28445
1.2934
1.30062
1.30797
1.3176
1.33149
1.3507
1.37357
1.39178
1.39899
1.39997
1.40001
1.40001
1.40001
1.40001
1.40001
1.40001
1.40001
1.40001
1.40001
1.40001
1.40001
1.40001
1.40001
1.40001
1.40001
1.40001
1.40001
1.40001
1.40001
1.40001
1.40001
0.330662
0.330729
0.330739
0.330727
0.330698
0.3307
0.330685
0.330603
0.330594
0.330581
0.330476
0.330254
0.330034
0.32968
0.329077
0.327345
0.323418
0.317882
0.314184
0.312397
0.313091
0.31535
0.317904
0.321822
0.329263
0.336709
0.345669
0.355952
0.364209
0.420411
0.560724
0.784921
0.956011
1.02304
1.07401
1.09593
1.14198
1.13921
1.1455
1.16929
1.17566
1.17568
1.18382
1.20349
1.22238
1.23977
1.25559
1.26687
1.27639
1.28525
1.29374
1.30334
1.31481
1.32899
1.34896
1.37351
1.39227
1.39913
1.39998
1.40001
1.40001
1.40001
1.40001
1.40001
1.40001
1.40001
1.40001
1.40001
1.40001
1.40001
1.40001
1.40001
1.40001
1.40001
1.40001
1.40001
1.40001
1.40001
1.40001
1.40001
0.330748
0.330756
0.33074
0.330699
0.33067
0.330616
0.330575
0.330414
0.330286
0.330369
0.330383
0.330236
0.329797
0.32847
0.325343
0.320981
0.317106
0.313604
0.313499
0.314191
0.315017
0.318502
0.323285
0.327141
0.334113
0.345955
0.357502
0.368798
0.381156
0.392467
0.401077
0.440748
0.556215
0.739342
0.919674
1.05735
1.11714
1.12788
1.14716
1.17576
1.17231
1.16697
1.18138
1.20044
1.21639
1.23163
1.24713
1.26111
1.27053
1.27767
1.28644
1.29735
1.31015
1.32654
1.34921
1.37433
1.3929
1.39927
1.39999
1.40001
1.40001
1.40001
1.40001
1.40001
1.40001
1.40001
1.40001
1.40001
1.40001
1.40001
1.40001
1.40001
1.40001
1.40001
1.40001
1.40001
1.40001
1.40001
1.40001
1.40001
0.330811
0.330764
0.330698
0.330539
0.330191
0.329767
0.329673
0.329696
0.329679
0.329548
0.329339
0.328277
0.325634
0.322182
0.318403
0.315168
0.313775
0.31336
0.313618
0.31625
0.317276
0.319783
0.328657
0.338957
0.347471
0.358326
0.370776
0.382536
0.393699
0.405162
0.417087
0.428591
0.4407
0.464403
0.54053
0.712635
0.885991
1.03248
1.1223
1.16235
1.14953
1.15807
1.18337
1.19675
1.20714
1.21987
1.23503
1.25037
1.26281
1.27259
1.28204
1.29326
1.30627
1.3234
1.34807
1.37513
1.39366
1.39942
1.39999
1.40001
1.40001
1.40001
1.40001
1.40001
1.40001
1.40001
1.40001
1.40001
1.40001
1.40001
1.40001
1.40001
1.40001
1.40001
1.40001
1.40001
1.40001
1.40001
1.40001
1.40001
0.330655
0.330394
0.330034
0.329591
0.329066
0.328637
0.328329
0.32812
0.327789
0.326868
0.325137
0.322882
0.319626
0.316337
0.314098
0.312538
0.31263
0.313933
0.313582
0.317076
0.323742
0.329509
0.336582
0.349824
0.362775
0.371904
0.381481
0.392001
0.402434
0.412789
0.425444
0.4385
0.451353
0.466346
0.481077
0.500641
0.567663
0.72964
0.907299
1.05217
1.10659
1.16174
1.19246
1.18736
1.19117
1.20711
1.22418
1.23718
1.2497
1.26311
1.27576
1.28771
1.30207
1.32236
1.34882
1.37647
1.39449
1.39956
1.4
1.40001
1.40001
1.40001
1.40001
1.40001
1.40001
1.40001
1.40001
1.40001
1.40001
1.40001
1.40001
1.40001
1.40001
1.40001
1.40001
1.40001
1.40001
1.40001
1.40001
1.40001
0.32991
0.329638
0.329365
0.328979
0.328589
0.328241
0.327719
0.32685
0.325551
0.323573
0.32053
0.317433
0.31458
0.312305
0.312279
0.312188
0.312033
0.314682
0.318767
0.321763
0.331491
0.345025
0.354459
0.361917
0.372496
0.383233
0.392978
0.403722
0.415589
0.427572
0.438873
0.451706
0.466402
0.480474
0.494948
0.511993
0.528659
0.549935
0.621021
0.770953
0.983559
1.12713
1.17158
1.1643
1.17324
1.19362
1.21346
1.22629
1.2374
1.25135
1.26683
1.28164
1.29741
1.31953
1.34896
1.37814
1.39543
1.39969
1.4
1.40001
1.40001
1.40001
1.40001
1.40001
1.40001
1.40001
1.40001
1.40001
1.40001
1.40001
1.40001
1.40001
1.40001
1.40001
1.40001
1.40001
1.40001
1.40001
1.40001
1.40001
0.329312
0.329231
0.329149
0.329048
0.32879
0.328358
0.327493
0.325542
0.322335
0.318842
0.315416
0.313091
0.312254
0.311629
0.311759
0.312892
0.315192
0.318781
0.329589
0.339981
0.346415
0.354982
0.366618
0.375032
0.382627
0.393451
0.404039
0.4146
0.426206
0.439489
0.452946
0.466111
0.480568
0.49496
0.51093
0.526715
0.543798
0.56184
0.581514
0.608992
0.70468
0.880879
1.03954
1.12337
1.17399
1.19342
1.20468
1.21801
1.23209
1.24439
1.25782
1.27436
1.29395
1.31968
1.35052
1.38024
1.39637
1.3998
1.4
1.40001
1.40001
1.40001
1.40001
1.40001
1.40001
1.40001
1.40001
1.40001
1.40001
1.40001
1.40001
1.40001
1.40001
1.40001
1.40001
1.40001
1.40001
1.40001
1.40001
1.40001
0.329501
0.329313
0.329159
0.329015
0.328343
0.326647
0.323788
0.320078
0.316316
0.313802
0.312493
0.31211
0.312135
0.313082
0.314581
0.31883
0.328338
0.335467
0.340894
0.350799
0.360164
0.366399
0.374338
0.385617
0.395245
0.405014
0.417052
0.428458
0.439913
0.451535
0.464818
0.478919
0.492534
0.507503
0.524247
0.539552
0.557201
0.576475
0.595563
0.617523
0.64117
0.691357
0.831351
1.028
1.1432
1.17357
1.18399
1.19797
1.21597
1.23469
1.25177
1.2678
1.28838
1.31775
1.35245
1.38284
1.3973
1.39988
1.4
1.40001
1.40001
1.40001
1.40001
1.40001
1.40001
1.40001
1.40001
1.40001
1.40001
1.40001
1.40001
1.40001
1.40001
1.40001
1.40001
1.40001
1.40001
1.40001
1.40001
1.40001
0.328667
0.327681
0.326156
0.324063
0.321418
0.318539
0.316109
0.314476
0.313265
0.31258
0.312906
0.314042
0.315456
0.319464
0.326782
0.331164
0.336812
0.346754
0.352674
0.359304
0.368973
0.378744
0.386931
0.397023
0.4092
0.419476
0.430466
0.443097
0.455522
0.467862
0.480733
0.494341
0.508289
0.523711
0.538656
0.556579
0.573991
0.591356
0.610598
0.63161
0.652534
0.678557
0.716964
0.824985
0.986282
1.10178
1.15312
1.17766
1.19784
1.21935
1.24003
1.26047
1.28648
1.31892
1.35564
1.38575
1.39815
1.39994
1.4
1.40001
1.40001
1.40001
1.40001
1.40001
1.40001
1.40001
1.40001
1.40001
1.40001
1.40001
1.40001
1.40001
1.40001
1.40001
1.40001
1.40001
1.40001
1.40001
1.40001
1.40001
0.324982
0.32302
0.320522
0.31792
0.316169
0.31493
0.314076
0.313974
0.314725
0.315476
0.316269
0.31961
0.32434
0.327227
0.333788
0.342176
0.346492
0.354156
0.364944
0.372384
0.380778
0.392234
0.403207
0.41233
0.422549
0.434455
0.444455
0.455246
0.466956
0.480163
0.493255
0.507385
0.52292
0.538085
0.554221
0.572059
0.591348
0.611016
0.631982
0.651844
0.672933
0.693519
0.720435
0.760514
0.847411
0.992218
1.10789
1.16006
1.18569
1.20616
1.22687
1.25051
1.28158
1.31995
1.36007
1.38895
1.39885
1.39997
1.4
1.40001
1.40001
1.40001
1.40001
1.40001
1.40001
1.40001
1.40001
1.40001
1.40001
1.40001
1.40001
1.40001
1.40001
1.40001
1.40001
1.40001
1.40001
1.40001
1.40001
1.40001
0.319785
0.317234
0.315309
0.313795
0.313527
0.313712
0.314161
0.314753
0.316122
0.319086
0.321499
0.324071
0.331231
0.33755
0.341639
0.351263
0.362237
0.368492
0.377838
0.388799
0.39761
0.405864
0.415927
0.425987
0.435163
0.445128
0.457287
0.468588
0.481158
0.493632
0.507541
0.521244
0.53648
0.55255
0.57003
0.586505
0.605087
0.626389
0.648517
0.672576
0.696808
0.719188
0.740122
0.767146
0.808809
0.886015
1.00378
1.10076
1.15633
1.1891
1.21591
1.24663
1.28256
1.32397
1.36579
1.39211
1.39937
1.39999
1.4
1.40001
1.40001
1.40001
1.40001
1.40001
1.40001
1.40001
1.40001
1.40001
1.40001
1.40001
1.40001
1.40001
1.40001
1.40001
1.40001
1.40001
1.40001
1.40001
1.40001
1.40001
0.314295
0.313253
0.313178
0.3133
0.313217
0.313505
0.314275
0.315816
0.317889
0.322371
0.330164
0.335697
0.340497
0.351107
0.361
0.366872
0.376097
0.385893
0.392782
0.401089
0.410402
0.418832
0.427738
0.438001
0.448957
0.459666
0.471206
0.484024
0.496863
0.510757
0.525111
0.540639
0.555508
0.572174
0.589167
0.60797
0.626575
0.645661
0.665987
0.688596
0.713046
0.740387
0.766148
0.78995
0.821344
0.8718
0.944252
1.03249
1.1053
1.15621
1.19807
1.24013
1.28394
1.33058
1.37262
1.39494
1.39971
1.4
1.40001
1.40001
1.40001
1.40001
1.40001
1.40001
1.40001
1.40001
1.40001
1.40001
1.40001
1.40001
1.40001
1.40001
1.40001
1.40001
1.40001
1.40001
1.40001
1.40001
1.40001
1.40001
0.312779
0.312894
0.313075
0.313944
0.314747
0.31607
0.319924
0.325671
0.331788
0.336658
0.343392
0.353581
0.360665
0.365822
0.37456
0.382404
0.38839
0.396918
0.404878
0.412357
0.421514
0.431804
0.441584
0.451888
0.46332
0.475473
0.487374
0.500344
0.512928
0.526719
0.540567
0.555356
0.571918
0.588155
0.605766
0.624621
0.645199
0.665961
0.688044
0.710583
0.734837
0.760404
0.788353
0.815707
0.844003
0.880645
0.936448
1.00528
1.07621
1.14349
1.19693
1.24266
1.28999
1.3399
1.37995
1.39719
1.39989
1.4
1.40001
1.40001
1.40001
1.40001
1.40001
1.40001
1.40001
1.40001
1.40001
1.40001
1.40001
1.40001
1.40001
1.40001
1.40001
1.40001
1.40001
1.40001
1.40001
1.40001
1.40001
1.40001
0.314659
0.316809
0.318988
0.321273
0.325817
0.331023
0.335208
0.340292
0.347041
0.354071
0.358708
0.364574
0.37297
0.379287
0.384983
0.393798
0.401574
0.408741
0.418526
0.428538
0.437763
0.448009
0.458778
0.469529
0.480423
0.491934
0.50385
0.515771
0.529809
0.543007
0.557801
0.572778
0.588364
0.605292
0.623226
0.641888
0.661978
0.684352
0.707493
0.731708
0.756647
0.782999
0.810655
0.839778
0.868667
0.901711
0.944629
1.00452
1.0736
1.13628
1.1929
1.24498
1.29876
1.35116
1.38699
1.39872
1.39997
1.4
1.40001
1.40001
1.40001
1.40001
1.40001
1.40001
1.40001
1.40001
1.40001
1.40001
1.40001
1.40001
1.40001
1.40001
1.40001
1.40001
1.40001
1.40001
1.40001
1.40001
1.40001
1.40001
0.320223
0.322417
0.326001
0.32903
0.332984
0.339321
0.344341
0.349151
0.354882
0.362674
0.37042
0.375597
0.382498
0.392288
0.400256
0.407568
0.417089
0.426084
0.434801
0.444013
0.453934
0.463122
0.473341
0.484069
0.49493
0.506527
0.518849
0.531606
0.544295
0.559295
0.574337
0.590461
0.60736
0.6255
0.644201
0.663978
0.684397
0.705605
0.728167
0.752626
0.778848
0.80661
0.836088
0.865985
0.896731
0.928845
0.968452
1.01989
1.08087
1.1418
1.19781
1.25409
1.31245
1.36431
1.39297
1.39956
1.4
1.40001
1.40001
1.40001
1.40001
1.40001
1.40001
1.40001
1.40001
1.40001
1.40001
1.40001
1.40001
1.40001
1.40001
1.40001
1.40001
1.40001
1.40001
1.40001
1.40001
1.40001
1.40001
1.40001
0.327039
0.330791
0.33569
0.343155
0.34808
0.352704
0.360921
0.36842
0.374304
0.380093
0.387894
0.396159
0.402791
0.40959
0.417941
0.425531
0.433047
0.441707
0.449907
0.458835
0.467915
0.47808
0.487963
0.498919
0.510908
0.522821
0.535573
0.549807
0.56433
0.578551
0.594042
0.610367
0.627641
0.645356
0.664609
0.684996
0.706758
0.729255
0.752751
0.777243
0.803193
0.830959
0.861161
0.893724
0.925769
0.956022
0.988379
1.03204
1.08869
1.14975
1.21003
1.27083
1.33126
1.3779
1.3971
1.3999
1.4
1.40001
1.40001
1.40001
1.40001
1.40001
1.40001
1.40001
1.40001
1.40001
1.40001
1.40001
1.40001
1.40001
1.40001
1.40001
1.40001
1.40001
1.40001
1.40001
1.40001
1.40001
1.40001
1.40001
0.342635
0.348379
0.353131
0.358903
0.365956
0.370771
0.375926
0.382835
0.389127
0.395124
0.400732
0.407992
0.415282
0.422057
0.428933
0.437365
0.445517
0.453842
0.463493
0.47329
0.483528
0.494308
0.505908
0.517381
0.529134
0.542235
0.555451
0.568213
0.582683
0.598073
0.613938
0.630214
0.647261
0.666036
0.685653
0.706059
0.727246
0.750279
0.775029
0.801378
0.828456
0.856066
0.88557
0.918393
0.954352
0.99094
1.027
1.06487
1.10849
1.16086
1.22331
1.29112
1.35251
1.3893
1.39919
1.39999
1.4
1.40001
1.40001
1.40001
1.40001
1.40001
1.40001
1.40001
1.40001
1.40001
1.40001
1.40001
1.40001
1.40001
1.40001
1.40001
1.40001
1.40001
1.40001
1.40001
1.40001
1.40001
1.40001
1.40001
0.356242
0.36169
0.367322
0.37121
0.377056
0.384796
0.389294
0.394331
0.401519
0.408633
0.415617
0.422029
0.429967
0.438351
0.446541
0.454865
0.463989
0.47331
0.482786
0.492505
0.502881
0.513313
0.524231
0.535855
0.54803
0.559979
0.573122
0.587591
0.601753
0.61678
0.632768
0.650328
0.66884
0.687626
0.707494
0.728837
0.751752
0.77526
0.799385
0.825068
0.853257
0.883585
0.915246
0.947805
0.98112
1.01634
1.05506
1.09785
1.14513
1.19834
1.25905
1.32329
1.37454
1.39651
1.39988
1.4
1.40001
1.40001
1.40001
1.40001
1.40001
1.40001
1.40001
1.40001
1.40001
1.40001
1.40001
1.40001
1.40001
1.40001
1.40001
1.40001
1.40001
1.40001
1.40001
1.40001
1.40001
1.40001
1.40001
1.40001
0.372984
0.377874
0.383961
0.390164
0.394464
0.400588
0.408186
0.413624
0.419611
0.426566
0.433904
0.441275
0.448225
0.456079
0.464277
0.472279
0.480982
0.490059
0.499127
0.509167
0.518994
0.529658
0.540793
0.552439
0.564726
0.578243
0.592041
0.606056
0.62163
0.638133
0.655207
0.672378
0.690551
0.710639
0.732019
0.753654
0.775891
0.800009
0.825954
0.853132
0.881202
0.91061
0.942412
0.977092
1.01374
1.05104
1.08909
1.12959
1.17611
1.23218
1.2962
1.35581
1.39067
1.39937
1.4
1.4
1.40001
1.40001
1.40001
1.40001
1.40001
1.40001
1.40001
1.40001
1.40001
1.40001
1.40001
1.40001
1.40001
1.40001
1.40001
1.40001
1.40001
1.40001
1.40001
1.40001
1.40001
1.40001
1.40001
1.40001
0.388606
0.39375
0.398307
0.40455
0.410868
0.414794
0.420775
0.428429
0.434231
0.440518
0.447261
0.454915
0.462738
0.47003
0.478263
0.487379
0.49603
0.505533
0.516017
0.526103
0.537313
0.548907
0.56089
0.573307
0.58653
0.59999
0.614074
0.629187
0.644759
0.660878
0.677776
0.696093
0.715549
0.735357
0.756161
0.778474
0.802229
0.827011
0.852906
0.880619
0.910372
0.941605
0.97403
1.00811
1.04487
1.08494
1.12782
1.17348
1.2239
1.28112
1.34007
1.38294
1.39819
1.39996
1.4
1.40001
1.40001
1.40001
1.40001
1.40001
1.40001
1.40001
1.40001
1.40001
1.40001
1.40001
1.40001
1.40001
1.40001
1.40001
1.40001
1.40001
1.40001
1.40001
1.40001
1.40001
1.40001
1.40001
1.40001
1.40001
0.404594
0.410038
0.415538
0.420172
0.426685
0.433823
0.438497
0.444634
0.452449
0.459482
0.466889
0.474098
0.482312
0.491018
0.499271
0.508145
0.517926
0.527333
0.537118
0.547902
0.558423
0.569639
0.58157
0.594013
0.606913
0.62057
0.635006
0.650109
0.666117
0.682792
0.700443
0.718987
0.738707
0.759404
0.781115
0.804014
0.828299
0.853979
0.880648
0.9085
0.938351
0.970758
1.00535
1.04143
1.07897
1.11893
1.16283
1.21237
1.26856
1.32768
1.37531
1.39643
1.39986
1.4
1.40001
1.40001
1.40001
1.40001
1.40001
1.40001
1.40001
1.40001
1.40001
1.40001
1.40001
1.40001
1.40001
1.40001
1.40001
1.40001
1.40001
1.40001
1.40001
1.40001
1.40001
1.40001
1.40001
1.40001
1.40001
1.40001
0.42129
0.426308
0.432076
0.437948
0.442596
0.449026
0.45686
0.462478
0.468712
0.476243
0.483617
0.491634
0.49911
0.507326
0.516462
0.525227
0.534383
0.544612
0.554887
0.565341
0.576857
0.588764
0.601183
0.614202
0.627958
0.642415
0.65764
0.673307
0.689783
0.707357
0.72584
0.744843
0.764882
0.78635
0.80914
0.83269
0.856975
0.882749
0.910667
0.940564
0.97183
1.00424
1.03805
1.07405
1.11345
1.15709
1.20553
1.25955
1.31743
1.36793
1.39423
1.39969
1.4
1.40001
1.40001
1.40001
1.40001
1.40001
1.40001
1.40001
1.40001
1.40001
1.40001
1.40001
1.40001
1.40001
1.40001
1.40001
1.40001
1.40001
1.40001
1.40001
1.40001
1.40001
1.40001
1.40001
1.40001
1.40001
1.40001
1.40001
0.438381
0.44384
0.44909
0.455214
0.461882
0.467037
0.473091
0.481309
0.488247
0.495196
0.502949
0.510744
0.519507
0.528097
0.536802
0.54652
0.556433
0.566448
0.577176
0.588386
0.600022
0.612287
0.624898
0.638347
0.65263
0.667032
0.682181
0.698618
0.715762
0.733
0.751422
0.771617
0.792812
0.814216
0.836563
0.860936
0.887167
0.914323
0.942172
0.971616
1.00366
1.0384
1.07512
1.11341
1.15415
1.19931
1.25072
1.30741
1.36007
1.39136
1.39939
1.4
1.4
1.40001
1.40001
1.40001
1.40001
1.40001
1.40001
1.40001
1.40001
1.40001
1.40001
1.40001
1.40001
1.40001
1.40001
1.40001
1.40001
1.40001
1.40001
1.40001
1.40001
1.40001
1.40001
1.40001
1.40001
1.40001
1.40001
1.40001
0.456336
0.461777
0.467653
0.473157
0.479353
0.486969
0.493328
0.49916
0.507051
0.514855
0.522549
0.530754
0.539035
0.548122
0.557311
0.56669
0.576913
0.587279
0.598109
0.609771
0.621549
0.633963
0.647493
0.661181
0.67521
0.690585
0.706826
0.72304
0.740172
0.758979
0.778673
0.79858
0.819556
0.842394
0.866575
0.891329
0.916978
0.944496
0.974313
1.00592
1.03879
1.07311
1.10967
1.14955
1.19401
1.24408
1.29926
1.35259
1.38791
1.39891
1.39998
1.4
1.40001
1.40001
1.40001
1.40001
1.40001
1.40001
1.40001
1.40001
1.40001
1.40001
1.40001
1.40001
1.40001
1.40001
1.40001
1.40001
1.40001
1.40001
1.40001
1.40001
1.40001
1.40001
1.40001
1.40001
1.40001
1.40001
1.40001
1.40001
0.475112
0.480732
0.486647
0.493149
0.499162
0.505055
0.513014
0.520632
0.527293
0.535028
0.543312
0.55182
0.560514
0.569413
0.579202
0.58917
0.599295
0.610439
0.621813
0.633321
0.646011
0.65922
0.672373
0.68668
0.702025
0.717366
0.733381
0.750869
0.769114
0.787615
0.807298
0.828677
0.851005
0.87381
0.897776
0.923628
0.951162
0.979843
1.00979
1.04165
1.07592
1.11259
1.1517
1.19411
1.24138
1.294
1.34665
1.38449
1.39826
1.39995
1.4
1.40001
1.40001
1.40001
1.40001
1.40001
1.40001
1.40001
1.40001
1.40001
1.40001
1.40001
1.40001
1.40001
1.40001
1.40001
1.40001
1.40001
1.40001
1.40001
1.40001
1.40001
1.40001
1.40001
1.40001
1.40001
1.40001
1.40001
1.40001
1.40001
0.49484
0.50079
0.506611
0.512705
0.520023
0.526972
0.533228
0.540814
0.548959
0.556823
0.565105
0.573541
0.582661
0.59238
0.601818
0.612132
0.623244
0.634043
0.645648
0.658243
0.670786
0.683958
0.698278
0.712882
0.727887
0.744096
0.761128
0.778494
0.79684
0.816626
0.837329
0.858655
0.881124
0.90513
0.930421
0.956784
0.984547
1.01418
1.04575
1.07911
1.11433
1.15205
1.19341
1.23965
1.29093
1.34271
1.38175
1.39758
1.39992
1.4
1.40001
1.40001
1.40001
1.40001
1.40001
1.40001
1.40001
1.40001
1.40001
1.40001
1.40001
1.40001
1.40001
1.40001
1.40001
1.40001
1.40001
1.40001
1.40001
1.40001
1.40001
1.40001
1.40001
1.40001
1.40001
1.40001
1.40001
1.40001
1.40001
1.40001
0.515606
0.521451
0.527966
0.534527
0.540825
0.54822
0.556059
0.563199
0.570925
0.579403
0.587872
0.597036
0.606272
0.615768
0.626308
0.636891
0.647632
0.659434
0.671571
0.683902
0.697221
0.71116
0.725391
0.740516
0.75652
0.772967
0.790168
0.808532
0.827807
0.847825
0.86893
0.891319
0.914786
0.939282
0.965126
0.992599
1.0217
1.0524
1.08486
1.11943
1.15654
1.1969
1.24156
1.2909
1.3411
1.3801
1.39705
1.39988
1.4
1.40001
1.40001
1.40001
1.40001
1.40001
1.40001
1.40001
1.40001
1.40001
1.40001
1.40001
1.40001
1.40001
1.40001
1.40001
1.40001
1.40001
1.40001
1.40001
1.40001
1.40001
1.40001
1.40001
1.40001
1.40001
1.40001
1.40001
1.40001
1.40001
1.40001
1.40001
0.537379
0.543687
0.550046
0.556891
0.564087
0.570887
0.578307
0.586882
0.594833
0.6031
0.612234
0.621312
0.630982
0.641268
0.651533
0.662483
0.674108
0.685848
0.698216
0.711389
0.724945
0.739096
0.754088
0.769671
0.785874
0.802978
0.820942
0.839691
0.859438
0.880315
0.902204
0.925087
0.949176
0.974649
1.00155
1.02994
1.06
1.09191
1.12584
1.16215
1.20158
1.24517
1.29313
1.34171
1.37971
1.39678
1.39985
1.4
1.40001
1.40001
1.40001
1.40001
1.40001
1.40001
1.40001
1.40001
1.40001
1.40001
1.40001
1.40001
1.40001
1.40001
1.40001
1.40001
1.40001
1.40001
1.40001
1.40001
1.40001
1.40001
1.40001
1.40001
1.40001
1.40001
1.40001
1.40001
1.40001
1.40001
1.40001
1.40001
0.560463
0.566878
0.573471
0.580281
0.587555
0.595598
0.603234
0.610843
0.619571
0.628603
0.637552
0.647207
0.657211
0.667498
0.678469
0.689775
0.70142
0.71378
0.726684
0.740051
0.754121
0.768865
0.784209
0.800284
0.817136
0.834742
0.853232
0.872737
0.89323
0.914699
0.937253
0.961001
0.98601
1.01239
1.04029
1.06986
1.10121
1.13453
1.1702
1.20891
1.25153
1.29804
1.34461
1.38065
1.39686
1.39984
1.4
1.40001
1.40001
1.40001
1.40001
1.40001
1.40001
1.40001
1.40001
1.40001
1.40001
1.40001
1.40001
1.40001
1.40001
1.40001
1.40001
1.40001
1.40001
1.40001
1.40001
1.40001
1.40001
1.40001
1.40001
1.40001
1.40001
1.40001
1.40001
1.40001
1.40001
1.40001
1.40001
1.40001
0.584651
0.591224