/*--------------------------------*- C++ -*----------------------------------*\
  =========                 |
  \\      /  F ield         | OpenFOAM: The Open Source CFD Toolbox
   \\    /   O peration     | Website:  https://openfoam.org
    \\  /    A nd           | Version:  7
     \\/     M anipulation  |
\*---------------------------------------------------------------------------*/
FoamFile
{
    version     2.0;
    format      ascii;
    class       volScalarField;
    location    "8.5";
    object      rho;
}
// * * * * * * * * * * * * * * * * * * * * * * * * * * * * * * * * * * * * * //

dimensions      [1 -3 0 0 0 0 0];

internalField   nonuniform List<scalar> 
90000
(
0.239494
0.269176
0.295214
0.323245
0.353416
0.373419
0.392498
0.419115
0.44246
0.463417
0.488349
0.514858
0.542946
0.572672
0.602416
0.634948
0.669324
0.703746
0.738751
0.775281
0.811584
0.84802
0.882351
0.915164
0.943378
0.965823
0.9823
0.992058
0.992488
0.992146
0.989733
0.986634
0.983017
0.980054
0.975475
0.972363
0.969121
0.970538
0.970939
0.97097
0.969206
0.964977
0.95824
0.948889
0.947625
0.950995
0.960306
0.972764
0.986388
1.00392
1.02134
1.03423
1.04508
1.04335
1.03586
1.02349
1.01256
1.00371
1.00173
1.00658
1.01687
1.03269
1.04899
1.06202
1.07128
1.06755
1.06004
1.05071
1.04961
1.05392
1.06474
1.07742
1.09271
1.09183
1.08713
1.08154
1.0831
1.09082
1.10007
1.10694
1.10436
1.09984
1.10102
1.10809
1.11856
1.1173
1.11317
1.11278
1.11543
1.12182
1.12689
1.12586
1.12776
1.13305
1.14015
1.14571
1.14993
1.15439
1.15912
1.16664
0.216342
0.216383
0.216429
0.21648
0.216541
0.216611
0.216688
0.216768
0.216857
0.216952
0.217064
0.21716
0.217602
0.218847
0.221684
0.226397
0.233933
0.244032
0.258271
0.27613
0.29935
0.327137
0.362338
0.402753
0.452069
0.507423
0.566658
0.625608
0.678498
0.727233
0.766979
0.803911
0.831285
0.856282
0.870421
0.884822
0.889931
0.896613
0.8976
0.90109
0.902859
0.906609
0.907666
0.911052
0.919111
0.927549
0.932969
0.936139
0.940686
0.945785
0.949455
0.947073
0.941187
0.935562
0.935067
0.93742
0.941936
0.948678
0.957953
0.966665
0.976425
0.984719
0.993645
0.99246
0.990865
0.989495
0.991455
0.99662
1.00498
1.01536
1.02379
1.03005
1.03153
1.03018
1.03118
1.03682
1.04743
1.05942
1.06454
1.06334
1.0634
1.06715
1.07648
1.08882
1.08983
1.08864
1.08981
1.09435
1.10184
1.10795
1.1103
1.1142
1.12122
1.13078
1.13644
1.13952
1.14447
1.15124
1.15704
1.16447
0.217786
0.217876
0.217976
0.218077
0.218187
0.218306
0.218433
0.218557
0.218688
0.218817
0.218951
0.219088
0.219222
0.219406
0.219482
0.219548
0.219614
0.219687
0.219764
0.219854
0.219949
0.220058
0.220157
0.220271
0.220349
0.220801
0.224655
0.232876
0.24942
0.27174
0.304437
0.341801
0.389898
0.441481
0.502009
0.562252
0.620974
0.676625
0.725579
0.772938
0.811567
0.85211
0.883463
0.913431
0.924852
0.93242
0.931114
0.928304
0.922017
0.91038
0.893997
0.87429
0.854669
0.857522
0.867277
0.879497
0.896192
0.913453
0.930434
0.940249
0.942217
0.937613
0.92852
0.920703
0.916277
0.92067
0.929764
0.943404
0.958584
0.967954
0.966882
0.964533
0.965196
0.970348
0.979321
0.989469
1.00021
1.00122
1.00407
1.00751
1.01397
1.02395
1.03552
1.04025
1.0441
1.04954
1.05595
1.06424
1.07237
1.07839
1.08657
1.09561
1.10501
1.11003
1.11627
1.12505
1.13459
1.14354
1.14806
1.15564
0.219268
0.219339
0.219422
0.219502
0.219582
0.219669
0.219763
0.219853
0.219944
0.220033
0.220123
0.22021
0.2203
0.220381
0.220466
0.220553
0.220633
0.220699
0.220757
0.220814
0.220876
0.220944
0.221005
0.221062
0.221115
0.221182
0.221233
0.221268
0.221278
0.221287
0.221297
0.22131
0.221335
0.221361
0.222405
0.226847
0.240351
0.260948
0.295876
0.33792
0.395743
0.459937
0.53648
0.614811
0.680487
0.743525
0.783788
0.820891
0.837487
0.855141
0.855863
0.858001
0.861192
0.870676
0.880351
0.889059
0.8964
0.902262
0.90966
0.911353
0.903217
0.893174
0.889418
0.892061
0.897208
0.902631
0.909221
0.913314
0.918525
0.91675
0.916624
0.916611
0.91888
0.923047
0.931586
0.942169
0.948606
0.949297
0.949789
0.955156
0.964178
0.975692
0.982255
0.985871
0.990732
0.997287
1.00616
1.01714
1.02655
1.03619
1.04554
1.05546
1.06585
1.07745
1.08807
1.09759
1.10609
1.11473
1.12372
1.13637
0.220363
0.220425
0.220492
0.220558
0.220618
0.220678
0.220735
0.220793
0.22085
0.220902
0.220951
0.220998
0.221037
0.221071
0.22111
0.221165
0.221217
0.221244
0.221262
0.221277
0.221293
0.221315
0.221343
0.221365
0.221384
0.221407
0.221444
0.221492
0.221519
0.221527
0.221531
0.221539
0.221545
0.221552
0.221559
0.221571
0.221574
0.221579
0.2216
0.22164
0.221679
0.221715
0.225525
0.236915
0.266207
0.308742
0.374895
0.453689
0.54754
0.642867
0.7252
0.803401
0.849882
0.882664
0.885096
0.890518
0.893398
0.892924
0.886317
0.873597
0.854092
0.85733
0.86715
0.877879
0.889121
0.896335
0.901014
0.900063
0.892875
0.885131
0.886355
0.890776
0.898004
0.907964
0.907477
0.906191
0.905559
0.908105
0.913496
0.91848
0.927135
0.932782
0.93529
0.93746
0.942003
0.951113
0.961292
0.968802
0.976733
0.985001
0.995595
1.00831
1.02173
1.03371
1.04325
1.05369
1.06526
1.07732
1.0861
1.09986
0.221294
0.221314
0.221333
0.221355
0.221375
0.22139
0.221404
0.22142
0.221438
0.221452
0.221466
0.221476
0.221479
0.221479
0.221476
0.221486
0.221513
0.221523
0.221527
0.221529
0.221529
0.221525
0.221528
0.221533
0.221533
0.221531
0.221541
0.221569
0.221576
0.221574
0.221578
0.221594
0.2216
0.221596
0.221608
0.221651
0.221682
0.221696
0.221722
0.221785
0.221864
0.221967
0.222056
0.222093
0.222106
0.222107
0.222095
0.222085
0.22712
0.244576
0.290663
0.361263
0.463429
0.572823
0.662017
0.740826
0.780992
0.821731
0.830721
0.839315
0.850555
0.86582
0.886605
0.89357
0.900615
0.902098
0.900479
0.888525
0.876143
0.872846
0.875073
0.881489
0.888185
0.899954
0.899555
0.894785
0.888293
0.887993
0.893451
0.903177
0.906699
0.906518
0.904096
0.905199
0.909686
0.915918
0.925362
0.931966
0.936986
0.944841
0.954617
0.965272
0.974645
0.983454
0.993865
1.00538
1.01781
1.02948
1.03873
1.05504
0.221523
0.221509
0.221501
0.221504
0.221515
0.221519
0.221521
0.221525
0.221533
0.22154
0.221543
0.221547
0.22155
0.221552
0.221548
0.221533
0.221534
0.221541
0.221545
0.22155
0.221557
0.221562
0.221556
0.22155
0.221556
0.221564
0.221571
0.221575
0.221574
0.221567
0.221567
0.221593
0.221635
0.221652
0.221675
0.221735
0.221818
0.221882
0.221949
0.222041
0.222131
0.222186
0.222234
0.2223
0.222352
0.222379
0.222404
0.222416
0.222382
0.22236
0.222362
0.222415
0.222468
0.229388
0.264289
0.321721
0.41544
0.528749
0.644205
0.750835
0.826575
0.857151
0.882294
0.886577
0.894845
0.897488
0.889544
0.868803
0.869966
0.875076
0.885749
0.894628
0.89695
0.895103
0.88834
0.883656
0.883877
0.885244
0.890069
0.896013
0.896231
0.892087
0.889645
0.89223
0.897847
0.903273
0.903188
0.905571
0.91014
0.916122
0.924933
0.933219
0.940093
0.947716
0.956866
0.966822
0.975508
0.983937
0.99277
1.00809
0.221581
0.221564
0.221553
0.221547
0.221545
0.221545
0.221544
0.221542
0.221541
0.22154
0.221539
0.221538
0.221538
0.221539
0.22154
0.22154
0.221537
0.221525
0.221528
0.221532
0.221529
0.221531
0.221551
0.22157
0.221574
0.221561
0.221545
0.221562
0.221604
0.221621
0.221642
0.221699
0.221792
0.221846
0.221892
0.22194
0.22199
0.222054
0.222146
0.22228
0.222391
0.222436
0.222451
0.22247
0.222499
0.222518
0.222528
0.222542
0.222564
0.222602
0.222631
0.222659
0.222703
0.222751
0.222797
0.222823
0.222824
0.224274
0.249976
0.308531
0.415727
0.543322
0.669343
0.744713
0.806406
0.850105
0.854045
0.87067
0.88227
0.897945
0.910544
0.906929
0.903134
0.88614
0.874969
0.876385
0.881263
0.892028
0.89896
0.897101
0.88937
0.883583
0.884608
0.889067
0.89308
0.897693
0.897921
0.898369
0.901583
0.907116
0.912123
0.91671
0.919976
0.92481
0.931678
0.938957
0.947089
0.95355
0.95954
0.971434
0.221551
0.221551
0.22155
0.221542
0.221532
0.22153
0.22153
0.221526
0.221524
0.221529
0.221536
0.22154
0.221542
0.221543
0.221542
0.221538
0.221541
0.221565
0.221591
0.221596
0.221603
0.221642
0.221685
0.221703
0.221714
0.221709
0.221718
0.221783
0.221872
0.221894
0.221916
0.221955
0.221998
0.222053
0.222128
0.222194
0.222234
0.22227
0.222331
0.222435
0.222568
0.222647
0.222674
0.222703
0.222731
0.22273
0.222704
0.222696
0.222701
0.222733
0.222792
0.22279
0.222795
0.222807
0.222816
0.22284
0.222861
0.222844
0.222892
0.223076
0.223104
0.228998
0.259637
0.342818
0.455842
0.598843
0.729531
0.842487
0.874686
0.892529
0.903352
0.904185
0.892318
0.872445
0.875567
0.883029
0.894617
0.9022
0.900352
0.889181
0.878018
0.879753
0.888912
0.896943
0.89694
0.89494
0.894893
0.895652
0.899014
0.903931
0.908191
0.910335
0.912876
0.917173
0.923436
0.927843
0.93088
0.935602
0.940588
0.948653
0.221664
0.22167
0.221678
0.221683
0.22168
0.221679
0.22169
0.221706
0.221718
0.221725
0.22174
0.221755
0.221759
0.221765
0.221795
0.221819
0.221824
0.221828
0.221852
0.221909
0.221968
0.221991
0.222005
0.222023
0.222055
0.222098
0.222139
0.222159
0.222172
0.222187
0.222223
0.222281
0.222335
0.222372
0.222399
0.222421
0.222442
0.222474
0.222529
0.222632
0.222787
0.222865
0.222859
0.222849
0.222844
0.222826
0.222778
0.222739
0.22274
0.222767
0.222859
0.222888
0.222877
0.222886
0.222838
0.222735
0.222723
0.222716
0.222795
0.223034
0.223101
0.223012
0.222709
0.222296
0.221797
0.236198
0.297187
0.415397
0.575797
0.7102
0.796087
0.860549
0.858821
0.874525
0.889657
0.906281
0.910221
0.907655
0.888752
0.876442
0.877756
0.888224
0.902437
0.902209
0.899978
0.895052
0.894877
0.897567
0.903866
0.906903
0.908093
0.908849
0.910918
0.91486
0.919612
0.92452
0.92721
0.929833
0.933177
0.938701
0.221891
0.221914
0.221935
0.221956
0.221979
0.222005
0.222033
0.222056
0.222076
0.222104
0.222127
0.222135
0.222144
0.22216
0.222188
0.222233
0.222281
0.222315
0.222334
0.222358
0.222406
0.222456
0.222465
0.222461
0.222453
0.222454
0.222467
0.222469
0.222463
0.222466
0.222486
0.222501
0.222508
0.222513
0.222516
0.222522
0.222526
0.222542
0.222589
0.2227
0.222871
0.222955
0.222949
0.222907
0.222865
0.222826
0.222765
0.222725
0.222729
0.222758
0.222847
0.222946
0.223003
0.223004
0.222894
0.22262
0.222302
0.222242
0.222378
0.222795
0.222952
0.222882
0.222654
0.222205
0.221885
0.221637
0.221381
0.221031
0.23544
0.288617
0.405397
0.583589
0.729812
0.854415
0.885249
0.904234
0.904491
0.893983
0.866611
0.872546
0.891348
0.906626
0.905788
0.902607
0.897369
0.895602
0.898292
0.904411
0.908091
0.908869
0.908803
0.910494
0.914624
0.919551
0.922079
0.923668
0.925973
0.928341
0.930709
0.934658
0.222294
0.222338
0.22237
0.222394
0.222415
0.222437
0.222461
0.222483
0.222508
0.222546
0.222567
0.222569
0.222571
0.222577
0.222596
0.222646
0.222693
0.222699
0.222701
0.222709
0.22274
0.222755
0.22275
0.222728
0.222686
0.222657
0.222651
0.222647
0.222614
0.222577
0.222574
0.222571
0.222564
0.222558
0.222545
0.222535
0.222534
0.222549
0.222597
0.22272
0.222907
0.222973
0.222962
0.222896
0.22283
0.222787
0.222719
0.222656
0.222641
0.222663
0.222781
0.222957
0.223078
0.223084
0.222986
0.222668
0.222112
0.221765
0.221781
0.221917
0.221894
0.22176
0.221699
0.221661
0.221503
0.221108
0.220528
0.220349
0.220588
0.220839
0.220803
0.229619
0.304291
0.446413
0.620376
0.754403
0.828636
0.860183
0.867501
0.894487
0.921301
0.918437
0.905957
0.893221
0.895129
0.900617
0.907754
0.912712
0.911385
0.911069
0.911922
0.91541
0.920169
0.924061
0.924315
0.925409
0.928119
0.930718
0.932383
0.935309
0.222471
0.222502
0.222539
0.222578
0.222618
0.222654
0.222674
0.222686
0.222701
0.22273
0.222753
0.222758
0.222758
0.222759
0.222764
0.222784
0.222822
0.222835
0.222835
0.222832
0.222834
0.222845
0.222843
0.222816
0.222755
0.222694
0.222678
0.222679
0.222668
0.222633
0.222613
0.22259
0.222571
0.222559
0.222512
0.222426
0.222403
0.222414
0.222503
0.222705
0.222888
0.222936
0.222922
0.222871
0.222822
0.222786
0.222728
0.222635
0.222554
0.222548
0.222654
0.222904
0.223084
0.223097
0.223013
0.222712
0.222147
0.221565
0.221147
0.220841
0.220556
0.220359
0.220271
0.220212
0.220103
0.219787
0.219603
0.219866
0.220701
0.221071
0.22093
0.220455
0.219563
0.218851
0.250452
0.341223
0.513621
0.712912
0.842356
0.894742
0.912465
0.909293
0.880561
0.88957
0.903904
0.912785
0.91535
0.915146
0.914024
0.914922
0.917823
0.922385
0.925087
0.926538
0.926993
0.928391
0.931179
0.933636
0.934624
0.937105
0.222499
0.222539
0.222583
0.222618
0.22266
0.222702
0.222704
0.222699
0.222704
0.222731
0.222763
0.222774
0.222773
0.222771
0.222771
0.222784
0.222816
0.222835
0.222837
0.222835
0.222833
0.222835
0.222823
0.222765
0.222711
0.222659
0.222632
0.22264
0.222678
0.222716
0.222707
0.22266
0.222588
0.22249
0.22224
0.221961
0.221935
0.221967
0.222108
0.22234
0.222558
0.222733
0.222834
0.222839
0.222826
0.222796
0.222727
0.222595
0.222525
0.222519
0.222478
0.222526
0.222737
0.222808
0.222768
0.22256
0.222117
0.221398
0.220588
0.219893
0.219386
0.219255
0.219341
0.219507
0.219493
0.219313
0.219329
0.219797
0.220745
0.221074
0.220808
0.220142
0.219331
0.218763
0.21909
0.220673
0.224924
0.278085
0.449647
0.642997
0.777429
0.849972
0.868606
0.916747
0.927192
0.924194
0.919138
0.916534
0.918095
0.923448
0.928347
0.930886
0.930122
0.930088
0.931559
0.934828
0.937346
0.938701
0.939653
0.941775
0.222484
0.222524
0.222526
0.222528
0.222561
0.222644
0.22267
0.22265
0.222634
0.222638
0.222672
0.222668
0.222642
0.222641
0.222668
0.222735
0.22278
0.222791
0.222801
0.222809
0.222808
0.222809
0.222802
0.222727
0.222672
0.222661
0.22264
0.222635
0.222716
0.222847
0.222853
0.222819
0.222724
0.222535
0.222114
0.22167
0.221602
0.221661
0.221877
0.222109
0.222222
0.222286
0.222369
0.222516
0.222616
0.2226
0.222518
0.222334
0.22204
0.221729
0.221356
0.220876
0.220645
0.220647
0.220641
0.220601
0.220507
0.220269
0.219727
0.219011
0.218581
0.218604
0.218922
0.219475
0.219554
0.219401
0.219362
0.219753
0.220413
0.220675
0.220418
0.219905
0.219373
0.219703
0.221538
0.226177
0.230327
0.229982
0.230226
0.26152
0.381998
0.602543
0.797204
0.90666
0.913894
0.928135
0.928104
0.934136
0.935417
0.939872
0.940071
0.940301
0.940309
0.94088
0.943499
0.945977
0.946406
0.94747
0.948881
0.950166
0.222331
0.222353
0.222351
0.22232
0.222253
0.222236
0.222285
0.222355
0.222375
0.222426
0.222489
0.222442
0.222321
0.222308
0.222328
0.222431
0.222659
0.222761
0.222785
0.22281
0.222817
0.222814
0.222807
0.222775
0.222733
0.222678
0.222627
0.222637
0.222781
0.222913
0.222916
0.222881
0.22273
0.222403
0.221915
0.221448
0.221266
0.221369
0.221682
0.221715
0.221668
0.221646
0.221634
0.221706
0.221816
0.221775
0.221564
0.221139
0.220574
0.21998
0.219513
0.219175
0.219075
0.219112
0.219136
0.219123
0.219159
0.219172
0.219001
0.218547
0.218312
0.218393
0.219062
0.220424
0.221069
0.220985
0.220544
0.219981
0.220105
0.220413
0.220403
0.221597
0.225201
0.228725
0.229565
0.231042
0.23336
0.236154
0.240169
0.241936
0.243248
0.257497
0.367848
0.580098
0.752661
0.908413
0.921469
0.954398
0.962341
0.965791
0.957514
0.956605
0.956726
0.95953
0.962979
0.962447
0.962083
0.963331
0.964847
0.96491
0.222222
0.222197
0.222117
0.221981
0.221856
0.221796
0.221781
0.221779
0.221779
0.221808
0.221872
0.221845
0.221633
0.221534
0.221564
0.221674
0.221861
0.222087
0.22229
0.222365
0.222347
0.222241
0.222105
0.222088
0.222054
0.221897
0.221852
0.221981
0.222526
0.222748
0.222735
0.22259
0.222214
0.22161
0.220868
0.220284
0.220175
0.220309
0.220555
0.220595
0.220522
0.220469
0.220526
0.220733
0.22077
0.220637
0.220283
0.219875
0.219495
0.218978
0.218458
0.218338
0.218363
0.218498
0.21869
0.218797
0.218899
0.218943
0.218838
0.218466
0.218342
0.21865
0.219849
0.221586
0.222835
0.223592
0.223409
0.222096
0.221443
0.221868
0.224541
0.228767
0.233021
0.237132
0.237032
0.236407
0.238572
0.244032
0.248495
0.251365
0.255884
0.256339
0.257477
0.261415
0.354129
0.558162
0.769206
0.934743
0.954244
0.987681
0.990898
0.995422
0.988775
0.987952
0.987174
0.987735
0.988729
0.989564
0.988501
0.987313
0.221966
0.221909
0.221712
0.22117
0.22068
0.220438
0.220266
0.220116
0.220033
0.219999
0.219974
0.219925
0.219872
0.21988
0.219938
0.219998
0.220027
0.22008
0.220226
0.220322
0.220292
0.220259
0.220274
0.220389
0.220445
0.220406
0.220399
0.22057
0.221026
0.221099
0.221071
0.220955
0.220709
0.220312
0.219812
0.219442
0.219371
0.21941
0.219567
0.219654
0.219591
0.219483
0.219485
0.219508
0.219489
0.219321
0.219188
0.219142
0.219058
0.218768
0.218275
0.218082
0.218105
0.218272
0.21852
0.218732
0.219105
0.219721
0.219935
0.219817
0.219979
0.220773
0.222147
0.223588
0.225041
0.226651
0.228115
0.229541
0.231015
0.232382
0.233777
0.235545
0.237983
0.24217
0.245964
0.248797
0.252016
0.254341
0.255257
0.257927
0.263224
0.267497
0.269142
0.271614
0.27482
0.277001
0.359587
0.55018
0.774528
0.961855
0.982819
1.02165
1.02998
1.02955
1.02158
1.01602
1.02015
1.02138
1.01995
1.0172
0.219523
0.219348
0.218889
0.218258
0.218039
0.217963
0.217964
0.217989
0.218008
0.21803
0.218064
0.218133
0.218221
0.218398
0.218715
0.218928
0.21904
0.219212
0.219391
0.219392
0.21934
0.219327
0.219358
0.219498
0.219644
0.219664
0.219673
0.219751
0.219942
0.219988
0.219946
0.21989
0.219912
0.219886
0.21971
0.219412
0.219193
0.219019
0.21889
0.218804
0.218689
0.218641
0.218689
0.218817
0.218853
0.218798
0.218808
0.218931
0.218972
0.218816
0.218341
0.218105
0.218121
0.218326
0.218768
0.219683
0.221317
0.223166
0.224934
0.226461
0.227534
0.228686
0.229748
0.230195
0.230641
0.231524
0.23322
0.23573
0.238824
0.242365
0.245226
0.247138
0.248725
0.251873
0.256414
0.258613
0.260032
0.262101
0.266183
0.269122
0.271362
0.276211
0.278902
0.280788
0.284337
0.28783
0.290203
0.292176
0.368019
0.560151
0.799848
0.993052
1.01813
1.05661
1.06469
1.06239
1.06052
1.05155
1.0525
1.05329
0.218321
0.218036
0.21802
0.218023
0.218052
0.218173
0.218388
0.218597
0.218694
0.218743
0.218814
0.218852
0.218907
0.219097
0.219591
0.219903
0.219924
0.219855
0.219533
0.219076
0.218929
0.218897
0.218893
0.218955
0.219039
0.219017
0.219011
0.2191
0.219307
0.219313
0.219275
0.219356
0.2196
0.219687
0.219656
0.219475
0.219171
0.21891
0.218715
0.218556
0.218425
0.218398
0.218465
0.218693
0.218782
0.218818
0.218967
0.219291
0.219746
0.220333
0.221009
0.221617
0.222318
0.223417
0.224926
0.226913
0.229168
0.231287
0.232958
0.2347
0.236021
0.236731
0.237496
0.237967
0.238644
0.239976
0.242329
0.245555
0.249019
0.25314
0.257851
0.260585
0.261357
0.262201
0.264401
0.265989
0.26718
0.271239
0.278172
0.282048
0.282
0.282822
0.285921
0.290387
0.295849
0.29822
0.299341
0.302255
0.305569
0.30818
0.384595
0.57378
0.816945
1.02477
1.05295
1.08947
1.10454
1.08697
1.08655
1.08422
0.220628
0.220675
0.220736
0.220785
0.220846
0.220946
0.221099
0.221338
0.221574
0.221598
0.221502
0.221276
0.221063
0.22094
0.220938
0.221025
0.221072
0.220978
0.220328
0.219427
0.219267
0.219197
0.219176
0.219197
0.219164
0.218972
0.218946
0.219072
0.219253
0.21925
0.219262
0.219368
0.219583
0.219671
0.219692
0.219577
0.219353
0.219188
0.219157
0.219129
0.219084
0.219131
0.219427
0.220079
0.221074
0.222463
0.224232
0.22637
0.228734
0.231002
0.233157
0.235355
0.237145
0.237694
0.238051
0.238842
0.239546
0.240116
0.240522
0.24124
0.242487
0.243324
0.244661
0.247365
0.251152
0.255129
0.258869
0.262319
0.264511
0.265758
0.268002
0.269519
0.269632
0.270031
0.272948
0.278274
0.283672
0.28597
0.287763
0.290141
0.291106
0.292509
0.296718
0.302075
0.306444
0.308145
0.30904
0.311646
0.315626
0.319757
0.323019
0.324442
0.399859
0.600059
0.854232
1.05936
1.09509
1.10849
1.12971
1.12045
0.221269
0.221328
0.22152
0.221789
0.221948
0.221972
0.221968
0.221915
0.221756
0.221513
0.221063
0.220755
0.220686
0.220544
0.220149
0.220045
0.220085
0.220031
0.219523
0.21889
0.21885
0.218977
0.219115
0.219343
0.219377
0.219308
0.219359
0.219707
0.220295
0.22082
0.221257
0.221998
0.223127
0.224377
0.225654
0.22681
0.227916
0.22899
0.230003
0.230952
0.231823
0.232831
0.233987
0.235064
0.236088
0.23723
0.238618
0.240237
0.241825
0.243024
0.243861
0.244928
0.246293
0.246667
0.246853
0.247313
0.247595
0.248118
0.249675
0.252153
0.254926
0.258173
0.26149
0.265236
0.268949
0.27124
0.27292
0.274294
0.274453
0.274477
0.275329
0.277964
0.281124
0.284224
0.28756
0.292166
0.296011
0.295889
0.295862
0.297481
0.301794
0.306623
0.310463
0.31226
0.313195
0.315524
0.319308
0.32378
0.328677
0.32983
0.331566
0.335571
0.338402
0.339633
0.426571
0.647378
0.901499
1.08566
1.13638
1.14182
0.22342
0.223641
0.223972
0.224444
0.224908
0.22533
0.225732
0.226067
0.226303
0.226463
0.226588
0.226746
0.226972
0.227277
0.227585
0.22802
0.22872
0.229247
0.22962
0.230154
0.230889
0.231646
0.232369
0.233045
0.233792
0.234383
0.234927
0.235666
0.236487
0.237342
0.238306
0.239369
0.240495
0.241684
0.242897
0.243777
0.244595
0.245575
0.246488
0.247081
0.247658
0.248481
0.249156
0.249445
0.249538
0.249621
0.24984
0.250315
0.251058
0.251763
0.252276
0.252999
0.254555
0.25694
0.259069
0.260764
0.263094
0.2663
0.269817
0.272932
0.275519
0.277537
0.278683
0.279333
0.280469
0.28094
0.281421
0.282134
0.28287
0.284291
0.287271
0.291976
0.297523
0.301058
0.301913
0.303592
0.30441
0.304955
0.306687
0.310518
0.315081
0.319248
0.321588
0.322076
0.323496
0.327105
0.331613
0.334122
0.338075
0.341463
0.341502
0.343113
0.348621
0.353555
0.354454
0.355972
0.451926
0.700775
0.97349
1.12946
0.242046
0.242178
0.24233
0.242534
0.242812
0.243191
0.243683
0.244236
0.244689
0.245003
0.24533
0.24563
0.245815
0.246184
0.246537
0.246695
0.246987
0.247312
0.247619
0.248073
0.248324
0.248515
0.248748
0.248959
0.249467
0.249968
0.24999
0.250026
0.250231
0.250711
0.251407
0.252017
0.25241
0.252686
0.253004
0.253568
0.254387
0.255794
0.25679
0.257315
0.257788
0.258767
0.259791
0.260531
0.261233
0.262215
0.263567
0.265177
0.266882
0.268914
0.271255
0.273507
0.275588
0.27765
0.279699
0.2817
0.283253
0.284304
0.285279
0.286273
0.287458
0.288105
0.288018
0.287776
0.288266
0.28999
0.292257
0.295273
0.299306
0.303803
0.306829
0.308795
0.311428
0.313072
0.31266
0.312726
0.314515
0.317983
0.32206
0.325402
0.328511
0.330343
0.331626
0.333922
0.336391
0.339445
0.344158
0.346146
0.347232
0.351456
0.355091
0.356637
0.359825
0.364361
0.365748
0.368568
0.370484
0.382933
0.489358
0.868792
0.257265
0.25729
0.257333
0.257449
0.257668
0.257946
0.258289
0.258617
0.258963
0.259276
0.259605
0.259973
0.260292
0.260735
0.26145
0.261729
0.261679
0.261724
0.262157
0.262855
0.263347
0.263643
0.264037
0.264561
0.265059
0.265889
0.266624
0.266733
0.266841
0.267233
0.26812
0.269058
0.26975
0.270483
0.271465
0.272689
0.274004
0.275353
0.27682
0.278359
0.279817
0.281136
0.282397
0.283585
0.28477
0.285987
0.287091
0.287974
0.288747
0.289506
0.29047
0.291675
0.292484
0.292832
0.293136
0.293749
0.294424
0.294633
0.294784
0.295364
0.296595
0.298162
0.300089
0.302592
0.305692
0.309261
0.312853
0.315654
0.318014
0.320503
0.321082
0.320695
0.320729
0.322129
0.323826
0.326012
0.328684
0.33362
0.337593
0.339669
0.341561
0.342185
0.343537
0.346219
0.350054
0.352984
0.356378
0.360676
0.361315
0.361647
0.365056
0.37024
0.372456
0.375214
0.377775
0.380132
0.383378
0.388421
0.388757
0.500061
0.277972
0.278157
0.278344
0.278562
0.278824
0.27914
0.279523
0.279944
0.28037
0.280747
0.28108
0.281557
0.282101
0.282506
0.282899
0.283393
0.284016
0.284739
0.285395
0.285742
0.285919
0.286124
0.286508
0.287112
0.287831
0.288152
0.288377
0.288813
0.289291
0.289628
0.289931
0.290353
0.290949
0.291496
0.29194
0.292489
0.293088
0.293583
0.294051
0.294562
0.295216
0.295763
0.296228
0.296793
0.297411
0.297994
0.298568
0.299031
0.299475
0.299893
0.300459
0.301684
0.302429
0.302843
0.303546
0.304832
0.306823
0.309193
0.31147
0.314077
0.317044
0.320239
0.323038
0.325276
0.326804
0.32814
0.329241
0.329595
0.330059
0.330867
0.331429
0.331677
0.332585
0.335231
0.340743
0.345446
0.347747
0.350174
0.351597
0.352008
0.35267
0.354799
0.357741
0.360603
0.365178
0.368402
0.368911
0.371296
0.374023
0.375218
0.377195
0.382291
0.384328
0.385537
0.388667
0.393266
0.395834
0.396943
0.399671
0.403676
0.297168
0.297241
0.29734
0.297476
0.297673
0.297905
0.298079
0.298329
0.298665
0.298727
0.298661
0.298652
0.298852
0.299151
0.29933
0.299556
0.299875
0.300481
0.301459
0.301846
0.301802
0.301815
0.302049
0.302593
0.303191
0.303759
0.304149
0.304821
0.305659
0.305859
0.306009
0.306397
0.306861
0.307185
0.307535
0.308219
0.308514
0.308523
0.308673
0.309139
0.309913
0.310906
0.311975
0.313051
0.314149
0.315352
0.316679
0.318043
0.319455
0.32101
0.322753
0.324605
0.326572
0.328528
0.330419
0.332127
0.333285
0.33426
0.335569
0.336798
0.337565
0.338598
0.339624
0.34001
0.339871
0.339881
0.340304
0.340689
0.341442
0.343509
0.347149
0.35155
0.355006
0.357218
0.359848
0.362333
0.363572
0.363281
0.363904
0.365255
0.367293
0.370549
0.375094
0.378223
0.380164
0.382175
0.382674
0.383297
0.386215
0.391645
0.39446
0.396153
0.397968
0.398912
0.401429
0.405043
0.407449
0.410919
0.412933
0.416251
0.318619
0.318769
0.318948
0.319141
0.319369
0.31963
0.319891
0.320172
0.320402
0.320448
0.320459
0.320513
0.320861
0.321289
0.321545
0.321609
0.321671
0.321935
0.322493
0.32331
0.324005
0.324207
0.324334
0.324544
0.324864
0.325365
0.326003
0.32648
0.327006
0.327603
0.328051
0.328441
0.328876
0.329564
0.330428
0.331324
0.332252
0.333255
0.334256
0.335129
0.335894
0.336653
0.337414
0.338081
0.338676
0.339305
0.340044
0.34087
0.341747
0.342598
0.343301
0.343888
0.344553
0.345283
0.346032
0.34698
0.347296
0.347444
0.348135
0.348394
0.348364
0.34869
0.350044
0.351647
0.35326
0.355358
0.35841
0.361956
0.365159
0.36778
0.37012
0.372842
0.37533
0.375604
0.375114
0.375591
0.376701
0.377751
0.379524
0.382813
0.386755
0.389707
0.392342
0.394036
0.393692
0.394264
0.396917
0.399755
0.402796
0.40686
0.408842
0.409116
0.410906
0.415328
0.417958
0.419006
0.422468
0.424845
0.425797
0.428768
0.34155
0.341757
0.341931
0.341948
0.341898
0.341919
0.342192
0.342647
0.343006
0.343225
0.34345
0.343872
0.344224
0.344398
0.344687
0.34488
0.344832
0.344843
0.345102
0.345667
0.345906
0.346019
0.34639
0.34685
0.347064
0.347191
0.347515
0.348074
0.348523
0.348948
0.349392
0.349848
0.35023
0.35058
0.351076
0.351555
0.351995
0.352433
0.35283
0.353252
0.353602
0.354044
0.354701
0.355541
0.356428
0.35742
0.358242
0.358899
0.359755
0.360389
0.360334
0.360386
0.360869
0.361986
0.363373
0.364845
0.366723
0.368889
0.370765
0.372405
0.374298
0.376408
0.378453
0.380471
0.382425
0.384151
0.38538
0.386575
0.388285
0.388758
0.388368
0.38814
0.388745
0.389376
0.389956
0.391049
0.393569
0.39756
0.401
0.403604
0.406059
0.406971
0.407491
0.408527
0.409754
0.411621
0.414521
0.418502
0.421244
0.422322
0.423952
0.424838
0.426284
0.429389
0.431656
0.434779
0.436622
0.437714
0.439958
0.44406
0.366764
0.366789
0.366781
0.366865
0.367018
0.367235
0.367527
0.367638
0.367634
0.367586
0.3676
0.367906
0.368613
0.369023
0.369191
0.369529
0.370062
0.370136
0.370129
0.37024
0.370629
0.371119
0.371506
0.371868
0.372428
0.37302
0.373314
0.373634
0.37402
0.374611
0.37557
0.375825
0.375896
0.376077
0.376772
0.377166
0.377332
0.37762
0.378198
0.378968
0.379749
0.380877
0.381606
0.381954
0.38254
0.383491
0.384419
0.385143
0.385949
0.386994
0.388281
0.389816
0.390979
0.391674
0.392134
0.392597
0.393363
0.39451
0.39571
0.396566
0.397194
0.397971
0.398504
0.398961
0.399489
0.399527
0.399049
0.399017
0.399765
0.401269
0.402105
0.40312
0.40509
0.408517
0.412669
0.415998
0.418322
0.420708
0.422371
0.423049
0.423462
0.423825
0.424464
0.426112
0.429186
0.432556
0.434774
0.436819
0.437144
0.437269
0.438379
0.441533
0.44447
0.44497
0.447484
0.450087
0.450932
0.452743
0.455033
0.458626
0.394871
0.394979
0.395126
0.395274
0.395437
0.395719
0.395991
0.396006
0.395949
0.39598
0.396283
0.396476
0.396506
0.396544
0.396728
0.397168
0.397503
0.397707
0.398033
0.398202
0.398148
0.39818
0.39858
0.398865
0.398912
0.399193
0.399683
0.399686
0.399749
0.400211
0.40096
0.401596
0.402082
0.402462
0.402835
0.4033
0.403842
0.404501
0.404965
0.405321
0.405921
0.40655
0.406554
0.406336
0.406415
0.406947
0.407938
0.408786
0.409352
0.409609
0.410106
0.411283
0.411663
0.411816
0.412172
0.41283
0.413514
0.414241
0.414903
0.4153
0.415634
0.416182
0.417356
0.419128
0.421051
0.422923
0.424971
0.426952
0.428705
0.43086
0.433808
0.436658
0.438381
0.439157
0.439785
0.440826
0.441053
0.440825
0.44079
0.440977
0.441529
0.443164
0.445557
0.448399
0.451072
0.452539
0.453613
0.453812
0.45445
0.455539
0.457526
0.460384
0.462988
0.464995
0.466567
0.466757
0.467555
0.468726
0.470574
0.474292
0.425472
0.4256
0.425734
0.425857
0.42592
0.425909
0.425855
0.425915
0.426283
0.426506
0.426576
0.42666
0.426818
0.427103
0.427262
0.427303
0.427418
0.427892
0.428234
0.42819
0.42817
0.4285
0.428718
0.428915
0.429417
0.42965
0.429717
0.430003
0.430633
0.430792
0.430842
0.431064
0.431673
0.432031
0.432113
0.432175
0.432328
0.432691
0.433134
0.433636
0.434168
0.434732
0.43542
0.436247
0.436901
0.437438
0.438307
0.439114
0.439169
0.439167
0.43936
0.440019
0.441315
0.442557
0.443231
0.44394
0.444857
0.445861
0.446902
0.448123
0.449387
0.450196
0.45078
0.451582
0.45266
0.45368
0.454494
0.455317
0.455936
0.455815
0.455763
0.455967
0.456014
0.455641
0.454654
0.454887
0.455558
0.456838
0.458522
0.461443
0.464907
0.467871
0.470157
0.471452
0.472438
0.472581
0.472398
0.472761
0.473941
0.476143
0.47881
0.480504
0.481917
0.482949
0.482945
0.483646
0.485121
0.487801
0.489751
0.491668
0.459506
0.459777
0.459962
0.459955
0.459902
0.460006
0.460416
0.460432
0.460128
0.460021
0.460133
0.460546
0.46084
0.460841
0.460824
0.460941
0.461326
0.461418
0.461547
0.461892
0.461999
0.461944
0.46193
0.462255
0.462542
0.462633
0.462812
0.463005
0.463212
0.463553
0.463845
0.464009
0.464174
0.464448
0.464854
0.465224
0.465572
0.465991
0.46642
0.466718
0.466863
0.466969
0.467327
0.467751
0.467808
0.467901
0.468156
0.468718
0.469653
0.470449
0.470808
0.471277
0.471882
0.471954
0.471712
0.471666
0.472057
0.472817
0.473299
0.473733
0.4744
0.474676
0.474565
0.474573
0.474878
0.474872
0.474823
0.475164
0.476342
0.477389
0.477966
0.478842
0.480492
0.482796
0.485386
0.487597
0.489893
0.492152
0.494023
0.49517
0.495925
0.495741
0.495384
0.494695
0.493786
0.493898
0.494691
0.496304
0.498434
0.50076
0.501499
0.502454
0.502248
0.502267
0.502964
0.504198
0.506144
0.508752
0.509074
0.509272
0.497697
0.497663
0.497673
0.497749
0.497973
0.498234
0.498304
0.498345
0.498435
0.498444
0.498309
0.498249
0.498385
0.498685