/*--------------------------------*- C++ -*----------------------------------*\
  =========                 |
  \\      /  F ield         | OpenFOAM: The Open Source CFD Toolbox
   \\    /   O peration     | Website:  https://openfoam.org
    \\  /    A nd           | Version:  7
     \\/     M anipulation  |
\*---------------------------------------------------------------------------*/
FoamFile
{
    version     2.0;
    format      ascii;
    class       volScalarField;
    location    "0.36";
    object      T;
}
// * * * * * * * * * * * * * * * * * * * * * * * * * * * * * * * * * * * * * //

dimensions      [0 0 0 1 0 0 0];

internalField   nonuniform List<scalar> 
324000
(
0.808878
0.939543
1.02924
1.11872
1.14245
1.15241
1.13382
1.12067
1.11175
1.10655
1.11073
1.11447
1.11542
1.11578
1.11353
1.11103
1.11128
1.11362
1.11371
1.11236
1.10979
1.10616
1.10461
1.10473
1.10554
1.10556
1.10323
1.09772
1.09107
1.08407
1.07665
1.06985
1.06445
1.06016
1.05894
1.0585
1.05717
1.05356
1.0536
1.05925
1.0675
1.07169
1.06811
1.05648
1.03787
1.01889
1.02012
1.02019
1.01067
0.99651
0.988419
0.987438
0.988059
0.990452
0.994404
0.998036
0.999759
1.00005
1.00004
1.00001
1
1
1
1
1
1
1
1
1
1
1
1
1
1
1
1
1
1
1
1
0.560138
0.563593
0.637364
0.853615
1.03067
1.13725
1.15337
1.15865
1.15727
1.14845
1.13944
1.13624
1.1382
1.13883
1.13739
1.13611
1.13633
1.13756
1.13767
1.1368
1.13505
1.13362
1.13362
1.13428
1.13448
1.13306
1.12864
1.12268
1.11721
1.11162
1.10599
1.10106
1.09759
1.09707
1.09809
1.09883
1.09839
1.09505
1.09332
1.09462
1.09465
1.08861
1.07852
1.06268
1.04436
1.03036
1.02997
1.02595
1.01207
0.995524
0.987332
0.986628
0.987368
0.990004
0.994136
0.99787
0.999695
1.00003
1.00003
1.00001
1
1
1
1
1
1
1
1
1
1
1
1
1
1
1
1
1
1
1
1
0.558097
0.55613
0.554721
0.553813
0.642061
0.829375
1.02802
1.13279
1.17045
1.16349
1.15613
1.1522
1.15005
1.14616
1.14489
1.14443
1.14391
1.14364
1.14425
1.14341
1.14273
1.14258
1.14293
1.1433
1.14266
1.14188
1.13777
1.13238
1.12782
1.12468
1.12277
1.12262
1.1234
1.12622
1.12805
1.12734
1.12496
1.12112
1.11711
1.11286
1.10512
1.08995
1.07468
1.05909
1.04442
1.03661
1.03619
1.02902
1.01195
0.993802
0.986237
0.985822
0.986706
0.989597
0.993883
0.997708
0.999632
1.00002
1.00002
1.00001
1
1
1
1
1
1
1
1
1
1
1
1
1
1
1
1
1
1
1
1
0.555129
0.55413
0.553735
0.553653
0.55382
0.554114
0.656622
0.850431
1.01246
1.10108
1.14259
1.14871
1.15091
1.14839
1.14901
1.14729
1.1457
1.14465
1.14449
1.14266
1.14137
1.14142
1.14294
1.14273
1.14239
1.14137
1.13839
1.13532
1.1327
1.13224
1.13282
1.13444
1.13649
1.139
1.13888
1.13714
1.13492
1.13189
1.12616
1.11713
1.10104
1.07603
1.05495
1.04353
1.03575
1.03676
1.036
1.0277
1.00992
0.991653
0.985225
0.985039
0.986104
0.989235
0.993635
0.997543
0.999572
1.00001
1.00002
1.00001
1
1
1
1
1
1
1
1
1
1
1
1
1
1
1
1
1
1
1
1
0.553734
0.553581
0.553612
0.553892
0.554432
0.555286
0.556219
0.55666
0.642681
0.838956
1.0001
1.08428
1.13059
1.13849
1.14312
1.14178
1.14042
1.14037
1.14047
1.13987
1.13971
1.14058
1.14276
1.14267
1.14235
1.14114
1.13843
1.13548
1.13381
1.13449
1.13504
1.13564
1.13836
1.14173
1.14282
1.14105
1.13762
1.13102
1.12097
1.10641
1.08263
1.05097
1.02688
1.02412
1.024
1.02928
1.03071
1.0236
1.00636
0.989419
0.984299
0.984269
0.985575
0.988915
0.993381
0.997374
0.999514
0.999994
1.00002
1.00001
1
1
1
1
1
1
1
1
1
1
1
1
1
1
1
1
1
1
1
1
0.553476
0.553666
0.554179
0.554944
0.555795
0.556652
0.557167
0.557538
0.557801
0.55786
0.637936
0.840606
1.00847
1.08333
1.118
1.12933
1.13719
1.13807
1.13794
1.13781
1.13884
1.14126
1.14257
1.14162
1.14098
1.13925
1.13644
1.13331
1.13248
1.13334
1.13456
1.13723
1.14
1.14199
1.1411
1.13647
1.12794
1.11722
1.10489
1.08546
1.05519
1.01654
0.995904
0.997244
1.00178
1.01008
1.01543
1.01193
0.999798
0.987196
0.983383
0.98352
0.98513
0.988626
0.993116
0.9972
0.999458
0.999984
1.00001
1.00001
1
1
1
1
1
1
1
1
1
1
1
1
1
1
1
1
1
1
1
1
0.554079
0.55474
0.55553
0.556278
0.556938
0.557366
0.557673
0.55784
0.557852
0.55786
0.557851
0.557791
0.641956
0.854473
1.01149
1.09128
1.12443
1.13083
1.13614
1.13603
1.13824
1.14124
1.14097
1.14038
1.14002
1.13866
1.13564
1.13257
1.13258
1.13453
1.13679
1.13948
1.1406
1.14043
1.13585
1.12549
1.11038
1.09193
1.07276
1.05158
1.02464
0.993659
0.977404
0.977435
0.98192
0.992148
1.00268
1.00173
0.993914
0.984828
0.982468
0.982859
0.984772
0.988355
0.99284
0.997026
0.999408
0.999976
1.00001
1.00001
1
1
1
1
1
1
1
1
1
1
1
1
1
1
1
1
1
1
1
1
0.555275
0.556057
0.556703
0.55722
0.557526
0.557752
0.55788
0.557887
0.557858
0.557793
0.557786
0.557799
0.557789
0.561657
0.66298
0.862581
1.02488
1.10096
1.12322
1.12884
1.1347
1.13864
1.13788
1.13657
1.1371
1.13654
1.13443
1.13227
1.13349
1.13641
1.13763
1.13835
1.13748
1.13247
1.11952
1.1006
1.08007
1.06012
1.04188
1.0246
1.005
0.984647
0.972056
0.96849
0.969644
0.974865
0.984306
0.988156
0.986063
0.982205
0.98156
0.982268
0.984466
0.988069
0.992548
0.996859
0.999365
0.999969
1.00001
1
1
1
1
1
1
1
1
1
1
1
1
1
1
1
1
1
1
1
1
1
0.556552
0.557101
0.557476
0.557694
0.557821
0.557901
0.557897
0.557845
0.557768
0.557761
0.557779
0.557874
0.558021
0.558116
0.558111
0.566751
0.704338
0.897193
1.04158
1.09579
1.12147
1.13108
1.12984
1.13372
1.13652
1.13554
1.13219
1.13266
1.13515
1.13657
1.13612
1.13353
1.1287
1.11717
1.09769
1.07512
1.05262
1.03246
1.01741
1.00597
0.992342
0.979026
0.969805
0.965681
0.965066
0.966363
0.972019
0.978173
0.979761
0.9798
0.980364
0.981715
0.984162
0.987736
0.992254
0.99672
0.999333
0.999964
1.00001
1
1
1
1
1
1
1
1
1
1
1
1
1
1
1
1
1
1
1
1
1
0.557465
0.557714
0.557841
0.557899
0.55791
0.557859
0.557786
0.557741
0.557746
0.557757
0.557845
0.558054
0.558289
0.558353
0.558345
0.558292
0.55813
0.577713
0.73598
0.930031
1.06966
1.10257
1.12079
1.13798
1.13742
1.13539
1.13371
1.13478
1.1354
1.13478
1.13117
1.12467
1.11335
1.09415
1.07201
1.05198
1.03251
1.01602
1.00497
0.995199
0.98378
0.974537
0.968244
0.964933
0.963932
0.964407
0.967636
0.972755
0.975999
0.977802
0.979288
0.981114
0.983705
0.987301
0.991946
0.996611
0.99932
0.999962
1
1
1
1
1
1
1
1
1
1
1
1
1
1
1
1
1
1
1
1
1
1
0.557847
0.557896
0.557891
0.55784
0.557787
0.557744
0.557742
0.557734
0.557766
0.55787
0.558008
0.558231
0.55842
0.558417
0.55839
0.558343
0.558273
0.558289
0.557921
0.600501
0.785956
0.988151
1.10668
1.14611
1.13959
1.14015
1.13837
1.13646
1.13453
1.12976
1.12217
1.11119
1.09387
1.07151
1.05213
1.03555
1.01989
1.00801
0.999
0.989516
0.979166
0.972076
0.967549
0.96477
0.964018
0.964274
0.966447
0.970525
0.97393
0.976245
0.978119
0.98024
0.983014
0.98681
0.991672
0.996484
0.999301
0.99996
1
1
1
1
1
1
1
1
1
1
1
1
1
1
1
1
1
1
1
1
1
1
0.557869
0.557812
0.557762
0.557748
0.557759
0.55775
0.557751
0.557794
0.557875
0.557972
0.558091
0.558273
0.55844
0.558424
0.558373
0.558346
0.558287
0.558364
0.558221
0.557781
0.55549
0.654099
0.883167
1.075
1.122
1.14847
1.14153
1.13797
1.12993
1.11738
1.10599
1.09171
1.07203
1.05242
1.03794
1.02313
1.00967
1.00171
0.995361
0.985835
0.976051
0.970287
0.966864
0.964751
0.964137
0.964326
0.966045
0.96957
0.972808
0.975019
0.976914
0.979167
0.98214
0.986211
0.991413
0.996511
0.999334
0.999963
1
1
1
1
1
1
1
1
1
1
1
1
1
1
1
1
1
1
1
1
1
1
0.557757
0.557748
0.557752
0.557744
0.557751
0.557792
0.55786
0.557889
0.557915
0.55796
0.558025
0.558153
0.558298
0.55826
0.558154
0.5582
0.55826
0.55839
0.558216
0.556844
0.554287
0.549124
0.557252
0.752157
1.00654
1.13724
1.13259
1.13293
1.11951
1.10177
1.0886
1.07036
1.04981
1.03666
1.02583
1.01272
1.00289
0.997536
0.990403
0.980817
0.972421
0.968585
0.965941
0.964105
0.96384
0.964326
0.966074
0.968872
0.971698
0.973968
0.975907
0.978152
0.981305
0.985658
0.991089
0.996456
0.999354
0.999965
1
1
1
1
1
1
1
1
1
1
1
1
1
1
1
1
1
1
1
1
1
1
0.557741
0.557744
0.55776
0.557809
0.557876
0.557943
0.557956
0.557903
0.557859
0.557848
0.557729
0.557624
0.557753
0.557797
0.55778
0.557653
0.557424
0.556946
0.555358
0.551918
0.548714
0.546395
0.545745
0.54605
0.643134
0.889138
1.0461
1.09418
1.08602
1.0806
1.07281
1.05482
1.03557
1.02656
1.01502
1.0029
0.995815
0.991396
0.98408
0.974565
0.969294
0.967306
0.964808
0.962752
0.962652
0.963578
0.965618
0.967913
0.970209
0.972418
0.974683
0.977247
0.980542
0.985142
0.99103
0.99655
0.999394
0.999969
1
1
1
1
1
1
1
1
1
1
1
1
1
1
1
1
1
1
1
1
1
1
0.557761
0.557809
0.557876
0.557927
0.557984
0.557986
0.557961
0.557897
0.557831
0.557734
0.557522
0.55732
0.557292
0.557177
0.556915
0.556358
0.555026
0.553128
0.550885
0.547882
0.545949
0.545626
0.545567
0.54628
0.549176
0.563585
0.752246
0.910829
1.00722
1.04326
1.03718
1.02643
1.0243
1.01932
1.00756
0.994295
0.98912
0.984206
0.975792
0.968056
0.967519
0.965747
0.962879
0.960725
0.960615
0.96162
0.964035
0.966603
0.968673
0.970655
0.972999
0.975973
0.979739
0.984567
0.990783
0.996596
0.999439
0.999973
1
1
1
1
1
1
1
1
1
1
1
1
1
1
1
1
1
1
1
1
1
1
0.557855
0.557901
0.557955
0.557972
0.557983
0.557961
0.557955
0.557928
0.557814
0.557637
0.557451
0.557188
0.556943
0.556622
0.55587
0.554711
0.552674
0.54992
0.547373
0.545709
0.545412
0.545707
0.546878
0.55042
0.556326
0.562607
0.568167
0.60329
0.755816
0.888914
0.953744
0.988489
1.00835
1.0031
0.992419
0.982768
0.983448
0.978141
0.968455
0.967177
0.966795
0.963413
0.959695
0.958409
0.958579
0.959338
0.961463
0.964455
0.967152
0.969341
0.971645
0.974665
0.978748
0.984195
0.990907
0.99675
0.999495
0.999977
1
1
1
1
1
1
1
1
1
1
1
1
1
1
1
1
1
1
1
1
1
1
0.557932
0.557937
0.55795
0.557963
0.557966
0.557947
0.557944
0.557943
0.55785
0.557722
0.55765
0.557365
0.556813
0.556187
0.55484
0.552552
0.549469
0.546649
0.545581
0.545635
0.546015
0.547869
0.552852
0.559049
0.564561
0.570348
0.577321
0.583611
0.589082
0.622336
0.717604
0.847278
0.926766
0.953336
0.97036
0.975006
0.980889
0.97366
0.966615
0.968067
0.964941
0.959153
0.955925
0.956456
0.957254
0.957995
0.959155
0.961686
0.964663
0.967484
0.970496
0.973905
0.97794
0.983556
0.990825
0.996918
0.999561
0.999982
1
1
1
1
1
1
1
1
1
1
1
1
1
1
1
1
1
1
1
1
1
1
0.557912
0.557944
0.557963
0.558003
0.557979
0.557956
0.557875
0.557934
0.557988
0.557925
0.557798
0.557526
0.556817
0.554925
0.551924
0.548694
0.546556
0.545587
0.545791
0.547173
0.550795
0.554312
0.558156
0.564228
0.570837
0.576152
0.58245
0.58958
0.597316
0.604535
0.611445
0.631098
0.701457
0.795552
0.887278
0.952104
0.971779
0.966344
0.968527
0.968142
0.962368
0.953197
0.953574
0.954242
0.95465
0.955835
0.957903
0.959747
0.962013
0.965107
0.968637
0.972412
0.977075
0.983589
0.991073
0.997148
0.999629
0.999987
1
1
1
1
1
1
1
1
1
1
1
1
1
1
1
1
1
1
1
1
1
1
0.558049
0.558056
0.558054
0.558041
0.558012
0.557924
0.557891
0.557939
0.558042
0.558008
0.557646
0.556271
0.553755
0.550341
0.547844
0.546454
0.546255
0.54698
0.54922
0.55075
0.554701
0.56044
0.564971
0.569118
0.576323
0.584608
0.591822
0.599349
0.606993
0.614438
0.621341
0.62818
0.636343
0.645601
0.685165
0.784707
0.863678
0.925582
0.963934
0.96168
0.952607
0.948928
0.94981
0.950511
0.950953
0.952457
0.955081
0.957873
0.960375
0.963245
0.966961
0.971032
0.976031
0.983139
0.991287
0.99743
0.999702
0.999991
1
1
1
1
1
1
1
1
1
1
1
1
1
1
1
1
1
1
1
1
1
1
0.558079
0.557991
0.557845
0.557587
0.557522
0.55765
0.55779
0.55768
0.557248
0.556188
0.554159
0.551308
0.548945
0.547392
0.546541
0.547205
0.548188
0.549143
0.552709
0.556223
0.558412
0.564172
0.572314
0.578788
0.584715
0.592191
0.599467
0.60623
0.613038
0.620405
0.628079
0.635569
0.643081
0.651616
0.65943
0.668689
0.700218
0.780685
0.862348
0.916132
0.933531
0.947934
0.950916
0.946717
0.946301
0.947395
0.949868
0.953522
0.957678
0.961634
0.96526
0.969578
0.975541
0.983331
0.991709
0.997747
0.999771
0.999994
1
1
1
1
1
1
1
1
1
1
1
1
1
1
1
1
1
1
1
1
1
1
0.557627
0.557296
0.557113
0.55706
0.556891
0.556617
0.556089
0.555082
0.5534
0.55126
0.549467
0.547859
0.546762
0.547081
0.547231
0.547845
0.550431
0.551954
0.554199
0.561397
0.567395
0.571977
0.578804
0.587687
0.594283
0.6001
0.607074
0.613736
0.620163
0.626553
0.633983
0.641836
0.649581
0.65802
0.66633
0.675264
0.684095
0.694799
0.727535
0.796589
0.885327
0.936809
0.944047
0.939982
0.94021
0.941792
0.944678
0.9486
0.953476
0.958615
0.963295
0.96807
0.974515
0.983248
0.992236
0.99811
0.999836
0.999996
1
1
1
1
1
1
1
1
1
1
1
1
1
1
1
1
1
1
1
1
1
1
0.557055
0.556952
0.556753
0.556487
0.556026
0.555087
0.553589
0.551654
0.549694
0.54775
0.546684
0.546457
0.546262
0.546949
0.548011
0.548521
0.551858
0.558458
0.562533
0.567362
0.576129
0.58379
0.588901
0.59439
0.601411
0.607615
0.613757
0.620875
0.628092
0.635465
0.642635
0.650413
0.658683
0.666446
0.674879
0.684082
0.692492
0.701171
0.711172
0.724061
0.769399
0.844558
0.899583
0.925618
0.937096
0.940867
0.943455
0.946539
0.950262
0.955112
0.960679
0.966731
0.974462
0.98369
0.992934
0.998485
0.999891
0.999998
1
1
1
1
1
1
1
1
1
1
1
1
1
1
1
1
1
1
1
1
1
1
0.557206
0.557116
0.556872
0.556192
0.55491
0.552878
0.550409
0.548198
0.546848
0.546172
0.546069
0.546385
0.546558
0.546932
0.550813
0.556298
0.559555
0.565552
0.57436
0.579375
0.584331
0.590575
0.596835
0.601925
0.607813
0.614777
0.620717
0.627085
0.634371
0.642051
0.649795
0.657762
0.665933
0.674139
0.683023
0.691174
0.700945
0.71072
0.719991
0.729669
0.74036
0.764506
0.825689
0.894827
0.928079
0.935091
0.938467
0.942748
0.948152
0.953339
0.958327
0.964667
0.973633
0.984226
0.99382
0.998866
0.999934
0.999999
1
1
1
1
1
1
1
1
1
1
1
1
1
1
1
1
1
1
1
1
1
1
0.556719
0.555723
0.554087
0.55179
0.549492
0.547935
0.546785
0.546143
0.546082
0.546224
0.546434
0.547304
0.55092
0.555203
0.558367
0.564786
0.57205
0.575602
0.580814
0.587351
0.591888
0.596651
0.602971
0.609652
0.615419
0.621978
0.629874
0.636697
0.643639
0.650632
0.65837
0.665757
0.673474
0.682064
0.690289
0.698677
0.707455
0.716978
0.727328
0.738255
0.747499
0.758813
0.777196
0.823688
0.880553
0.913773
0.928322
0.936643
0.943447
0.949562
0.955865
0.964006
0.974002
0.985234
0.994843
0.999218
0.999965
1
1
1
1
1
1
1
1
1
1
1
1
1
1
1
1
1
1
1
1
1
1
1
0.552526
0.550606
0.549067
0.54811
0.547194
0.546787
0.546836
0.547114
0.547581
0.548935
0.552164
0.555229
0.558316
0.564236
0.569294
0.572326
0.578129
0.583883
0.587318
0.593229
0.599688
0.605492
0.611244
0.61812
0.625084
0.631326
0.637641
0.644911
0.651828
0.659315
0.666654
0.674637
0.682454
0.690535
0.698975
0.708425
0.717066
0.725746
0.735233
0.744824
0.755629
0.765977
0.778903
0.797267
0.83348
0.881733
0.91349
0.928168
0.936798
0.944215
0.95222
0.962304
0.97429
0.986698
0.995988
0.999514
0.999984
1
1
1
1
1
1
1
1
1
1
1
1
1
1
1
1
1
1
1
1
1
1
1
0.548256
0.547441
0.547128
0.547333
0.547574
0.547966
0.549
0.550603
0.552605
0.554641
0.557912
0.56291
0.566115
0.569598
0.575988
0.580637
0.584239
0.591014
0.59734
0.602076
0.608313
0.615015
0.620901
0.62652
0.632796
0.639349
0.6456
0.652082
0.659074
0.666075
0.673388
0.681073
0.689575
0.697514
0.70626
0.715031
0.725003
0.735118
0.745276
0.75548
0.766011
0.775681
0.785617
0.799019
0.818288
0.848124
0.885294
0.912335
0.928309
0.939666
0.950732
0.962603
0.975632
0.988637
0.99714
0.999736
0.999994
1
1
1
1
1
1
1
1
1
1
1
1
1
1
1
1
1
1
1
1
1
1
1
0.547418
0.547473
0.547513
0.547848
0.548823
0.549816
0.551369
0.553715
0.556968
0.56035
0.562896
0.567746
0.574632
0.578673
0.583003
0.590254
0.595931
0.600366
0.606584
0.612319
0.617406
0.622895
0.628924
0.634715
0.640594
0.646872
0.653611
0.66032
0.667689
0.674984
0.682834
0.690492
0.698318
0.70705
0.715465
0.724128
0.733094
0.742975
0.753121
0.763983
0.774988
0.786368
0.796412
0.80675
0.821439
0.844934
0.870614
0.896156
0.917357
0.934257
0.94896
0.963173
0.97782
0.990937
0.998177
0.999879
0.999998
1
1
1
1
1
1
1
1
1
1
1
1
1
1
1
1
1
1
1
1
1
1
1
0.546986
0.54735
0.547752
0.548006
0.54981
0.552972
0.555569
0.558864
0.563431
0.5693
0.575158
0.578673
0.583659
0.590318
0.594971
0.599118
0.604774
0.609542
0.613973
0.619511
0.624944
0.630103
0.635976
0.642224
0.648659
0.655214
0.66212
0.669202
0.676022
0.683911
0.691344
0.699596
0.707863
0.716184
0.724948
0.73406
0.743216
0.752422
0.762386
0.772782
0.783907
0.795601
0.807281
0.818008
0.829938
0.846281
0.869251
0.893618
0.916274
0.934843
0.950251
0.965435
0.980973
0.993432
0.999006
0.999956
1
1
1
1
1
1
1
1
1
1
1
1
1
1
1
1
1
1
1
1
1
1
1
1
0.54912
0.550707
0.553381
0.557364
0.559875
0.563295
0.568453
0.572971
0.576766
0.580528
0.585407
0.590353
0.593786
0.598089
0.603171
0.607293
0.611717
0.617235
0.622277
0.627612
0.633447
0.639708
0.645493
0.651848
0.658286
0.664756
0.671439
0.678561
0.685817
0.692702
0.700428
0.708031
0.716067
0.724286
0.733055
0.742182
0.75194
0.761981
0.772143
0.782511
0.793201
0.804493
0.816484
0.828535
0.839983
0.852686
0.869957
0.89226
0.9146
0.933943
0.951356
0.96855
0.984791
0.995838
0.999566
0.999988
1
1
1
1
1
1
1
1
1
1
1
1
1
1
1
1
1
1
1
1
1
1
1
1
0.55571
0.55837
0.560926
0.564688
0.568665
0.571374
0.575332
0.579818
0.583757
0.587543
0.59109
0.59622
0.601168
0.605113
0.60987
0.615713
0.620691
0.625896
0.631865
0.637358
0.643101
0.648815
0.655024
0.66085
0.667051
0.673607
0.679941
0.68648
0.693768
0.701401
0.708944
0.716895
0.725139
0.733765
0.742357
0.751364
0.760707
0.770633
0.781019
0.79191
0.802985
0.814379
0.826223
0.83833
0.850836
0.864049
0.879324
0.897613
0.91674
0.935344
0.954289
0.973163
0.989198
0.997855
0.999862
0.999998
1
1
1
1
1
1
1
1
1
1
1
1
1
1
1
1
1
1
1
1
1
1
1
1
0.562285
0.565885
0.56938
0.572028
0.576869
0.582262
0.584988
0.588741
0.593829
0.59861
0.603029
0.60698
0.612041
0.61705
0.621695
0.626296
0.631491
0.636394
0.641353
0.64673
0.651971
0.657416
0.6631
0.669278
0.675381
0.681723
0.688852
0.696062
0.702963
0.710488
0.718464
0.726646
0.734937
0.743421
0.752465
0.761805
0.771403
0.78107
0.79118
0.801794
0.813047
0.824888
0.837133
0.849182
0.860543
0.872232
0.886203
0.903364
0.92228
0.941547
0.96101
0.979799
0.993682
0.999189
0.999972
1
1
1
1
1
1
1
1
1
1
1
1
1
1
1
1
1
1
1
1
1
1
1
1
1
0.573531
0.57713
0.581394
0.585153
0.587999
0.592423
0.596904
0.600019
0.603901
0.608032
0.612289
0.616508
0.620385
0.624978
0.629451
0.63403
0.638732
0.643834
0.649083
0.654517
0.660155
0.666216
0.672189
0.678362
0.685004
0.691882
0.698429
0.705432
0.713197
0.720778
0.72843
0.736174
0.744503
0.753345
0.762192
0.771208
0.78073
0.791005
0.801696
0.812499
0.823245
0.834419
0.846647
0.859814
0.873077
0.885802
0.898398
0.912043
0.92824
0.947671
0.968622
0.986908
0.99722
0.999804
0.999997
1
1
1
1
1
1
1
1
1
1
1
1
1
1
1
1
1
1
1
1
1
1
1
1
1
0.583381
0.586522
0.589694
0.593972
0.597398
0.599642
0.604136
0.608747
0.611824
0.615773
0.620014
0.62458
0.629174
0.6335
0.638505
0.643582
0.648587
0.653964
0.659409
0.664882
0.670789
0.676541
0.682664
0.688895
0.695183
0.701569
0.708515
0.715578
0.722579
0.73006
0.737953
0.746284
0.754532
0.762894
0.771832
0.781392
0.791257
0.801125
0.811361
0.822332
0.833932
0.845817
0.857827
0.870036
0.882797
0.896351
0.910567
0.925536
0.941992
0.960552
0.979579
0.993749
0.999235
0.999975
1
1
1
1
1
1
1
1
1
1
1
1
1
1
1
1
1
1
1
1
1
1
1
1
1
1
0.593702
0.5972
0.600401
0.603613
0.608093
0.611903
0.614483
0.618772
0.623288
0.627135
0.631397
0.635566
0.640209
0.644823
0.649262
0.654167
0.659245
0.664101
0.669371
0.674788
0.679986
0.685751
0.691582
0.697648
0.704021
0.710742
0.717519
0.724656
0.732302
0.740072
0.74785
0.755837
0.764381
0.773414
0.782514
0.791716
0.801431
0.811719
0.822315
0.833138
0.844341
0.856127
0.868522
0.881322
0.894307
0.907544
0.921441
0.936828
0.954423
0.973394
0.98971
0.998127
0.999896
0.999999
1
1
1
1
1
1
1
1
1
1
1
1
1
1
1
1
1
1
1
1
1
1
1
1
1
1
0.603652
0.606859
0.610407
0.613472
0.616326
0.620863
0.624886
0.627516
0.631591
0.635917
0.639881
0.644213
0.648227
0.652914
0.657748
0.662276
0.667274
0.672743
0.677961
0.683468
0.689504
0.695349
0.701503
0.707982
0.714598
0.721319
0.728374
0.735736
0.743143
0.750796
0.758732
0.767039
0.775467
0.784145
0.793278
0.802812
0.812662
0.822832
0.833483
0.844654
0.856176
0.867915
0.879947
0.892615
0.906186
0.920548
0.93569
0.952069
0.969773
0.986399
0.99677
0.999734
0.999995
1
1
1
1
1
1
1
1
1
1
1
1
1
1
1
1
1
1
1
1
1
1
1
1
1
1
1
0.613709
0.616864
0.62013
0.623923
0.627243
0.629952
0.634336
0.638843
0.642139
0.646255
0.65058
0.654894
0.659638
0.663998
0.668807
0.67397
0.678858
0.683931
0.689443
0.694881
0.700392
0.706353
0.712425
0.718646
0.725085
0.73182
0.738807
0.746067
0.753451
0.761072
0.769048
0.777368
0.785876
0.7946
0.80378
0.813487
0.823567
0.833818
0.844291
0.855297
0.86704
0.879354
0.891935
0.904762
0.918193
0.932744
0.948853
0.966434
0.983522
0.995366
0.999499
0.999986
1
1
1
1
1
1
1
1
1
1
1
1
1
1
1
1
1
1
1
1
1
1
1
1
1
1
1
1
0.62386
0.627
0.63017
0.633389
0.637426
0.641215
0.643974
0.647943
0.652536
0.656254
0.660424
0.664734
0.669009
0.673834
0.678414
0.683127
0.688333
0.693516
0.698721
0.704305
0.710113
0.716031
0.722222
0.728588
0.735229
0.742217
0.749281
0.756526
0.764152
0.772099
0.78007
0.788228
0.796892
0.806052
0.815424
0.824903
0.834741
0.84521
0.856253
0.867605
0.879151
0.890972
0.903295
0.916487
0.930851
0.946578
0.963669
0.980808
0.993819
0.99917
0.99997
1
1
1
1
1
1
1
1
1
1
1
1
1
1
1
1
1
1
1
1
1
1
1
1
1
1
1
1
1
0.634144
0.637343
0.640671
0.643984
0.647065
0.651049
0.655407
0.658731
0.662399
0.666869
0.670987
0.675341
0.67991
0.68439
0.689293
0.694251
0.69925
0.704571
0.709985
0.7156
0.721501
0.72743
0.733625
0.740226
0.746853
0.753582
0.760792
0.768293
0.775704
0.783318
0.791522
0.800095
0.808689
0.81747
0.826852
0.836837
0.847077
0.857424
0.868112
0.879445
0.891467
0.903974
0.916852
0.93037
0.945088
0.961367
0.978279
0.992129
0.998713
0.999938
0.999999
1
1
1
1
1
1
1
1
1
1
1
1
1
1
1
1
1
1
1
1
1
1
1
1
1
1
1
1
1
0.644652
0.64777
0.651098
0.654695
0.658343
0.661531
0.66508
0.669549
0.673538
0.677305
0.681622
0.68601
0.690531
0.69514
0.699845
0.704918
0.709986
0.715175
0.720772
0.726394
0.732114
0.738294
0.744623
0.750914
0.757644
0.764767
0.771844
0.779052
0.786764
0.794793
0.802842
0.811122
0.819961
0.829261
0.838743
0.848424
0.858559
0.869286
0.88047
0.891944
0.903746
0.916106
0.929355
0.943839
0.959735
0.976335
0.990584
0.998174
0.999887
0.999998
1
1
1
1
1
1
1
1
1
1
1
1
1
1
1
1
1
1
1
1
1
1
1
1
1
1
1
1
1
1
0.655441
0.658711
0.66199
0.665225
0.668829
0.672895
0.676543
0.67998
0.684216
0.688484
0.692642
0.697025
0.701472
0.706236
0.711155
0.715994
0.721248
0.726713
0.732059
0.737802
0.743869
0.749856
0.756123
0.762832
0.769596
0.776449
0.783715
0.791256
0.798836
0.806657
0.814963
0.823614
0.832434
0.841543
0.851138
0.861196
0.871566
0.882238
0.893349
0.905015
0.917269
0.930192
0.944063
0.959207
0.975206
0.989443
0.997671
0.999823
0.999997
1
1
1
1
1
1
1
1
1
1
1
1
1
1
1
1
1
1
1
1
1
1
1
1
1
1
1
1
1
1
1
0.666533
0.66968
0.673052
0.67669
0.680081
0.683496
0.687625
0.691624
0.695407
0.699607
0.70389
0.708277
0.712986
0.717601
0.722438
0.727669
0.732792
0.738064
0.74377
0.749522
0.75536
0.761591
0.768015
0.774517
0.781333
0.788435
0.795628
0.803016
0.810779
0.818841
0.827104
0.835673
0.844666
0.854041
0.86372
0.873745
0.884212
0.895146
0.906516
0.918365
0.930889
0.94441
0.959178
0.97476
0.988804
0.99731
0.999763
0.999995
1
1
1
1
1
1
1
1
1
1
1
1
1
1
1
1
1
1
1
1
1
1
1
1
1
1
1
1
1
1
1
1
0.677857
0.681105
0.684486
0.687893
0.691639
0.695324
0.698864
0.702867
0.707143
0.711166
0.7155
0.720044
0.724541
0.729391
0.734383
0.73934
0.744632
0.750137
0.755664
0.76146
0.767532
0.773716
0.780124
0.786821
0.793675
0.800694
0.807992
0.815552
0.823326
0.831386
0.83981
0.848572
0.857641
0.867063
0.876891
0.887129
0.897765
0.908831
0.920416
0.932673
0.945838
0.960121
0.975137
0.98873
0.997154
0.999725
0.999993
1
1
1
1
1
1
1
1
1
1
1
1
1
1
1
1
1
1
1
1
1
1
1
1
1
1
1
1
1
1
1
1
1
0.689538
0.692856
0.69621
0.699641
0.703157
0.706974
0.711032
0.714808
0.718769
0.723169
0.727508
0.731943
0.736686
0.741467
0.746395
0.751589
0.75686
0.762283
0.767981
0.773848
0.779879
0.786166
0.792667
0.799339
0.806228
0.813345
0.82067
0.82825
0.836137
0.844333
0.852834
0.861674
0.870886
0.880476
0.890447
0.900826
0.911652
0.92299
0.934973
0.947828
0.961726
0.976221
0.989211
0.997232
0.99972
0.999992
1
1
1
1
1
1
1
1
1
1
1
1
1
1
1
1
1
1
1
1
1
1
1
1
1
1
1
1
1
1
1
1
1
1
0.701547
0.70475
0.708189
0.71182
0.715497
0.719103
0.722864
0.727011
0.731217
0.735356
0.739767
0.744367
0.749025
0.753889
0.758917
0.764047
0.769384
0.774927
0.780624
0.78653
0.792665
0.798994
0.805521
0.812254
0.819184
0.826331
0.833739
0.841426
0.849403
0.857697
0.866334
0.875325
0.884682
0.894425
0.904581
0.915179
0.926283
0.938025
0.950604
0.964121
0.978029
0.990214
0.997532
0.999751
0.999993
1
1
1
1
1
1
1
1
1
1
1
1
1
1
1
1
1
1
1
1
1
1
1
1
1
1
1
1
1
1
1
1
1
1
1
0.713851
0.717229
0.720653
0.724103
0.727752
0.731639
0.735603
0.739539
0.743664
0.748031
0.752472
0.757032
0.761789
0.766679
0.77171
0.776927
0.782311
0.787874
0.793647
0.799627
0.805804
0.812182
0.818753
0.825517
0.832498
0.839725
0.847218
0.855002
0.863103
0.871535
0.880316
0.889464
0.899
0.908944
0.919329
0.930224
0.941756
0.954088
0.967229
0.980473
0.991645
0.997998
0.999807
0.999995
1
1
1
1
1
1
1
1
1
1
1
1
1
1
1
1
1
1
1
1
1
1
1
1
1
1
1
1
1
1
1
1
1
1
1
1
0.726568
0.729871
0.733339
0.736978
0.740688
0.744447
0.74836
0.752475
0.756698
0.761005
0.765482
0.770125
0.7749
0.779827
0.784915
0.790164
0.795599
0.801234
0.807066
0.813101
0.819332
0.825749
0.832357
0.839175
0.846229
0.853546
0.861152
0.869067
0.877311
0.885903
0.894862
0.904206
0.913958
0.924156
0.93487
0.946215
0.958307
0.971027
0.983458
0.993366
0.998543
0.999873
0.999997
1
1
1
1
1
1
1
1
1
1
1
1
1
1
1
1
1
1
1
1
1
1
1
1
1
1
1
1
1
1
1
1
1
1
1
1
1
0.739616
0.743005
0.746503
0.75009
0.753817
0.757695
0.761682
0.765769
0.769999
0.774389
0.778914
0.783581
0.7884
0.793368
0.798495
0.803801
0.809298
0.814994
0.820891
0.82698
0.833251
0.839708
0.84637
0.853264
0.860417
0.867856
0.875602
0.883675
0.892096
0.900884
0.910057
0.919641
0.929676
0.940231
0.951404
0.963235
0.97543
0.986818
0.995189
0.999071
0.99993
0.999998
1
1
1
1
1
1
1
1
1
1
1
1
1
1
1
1
1
1
1
1
1
1
1
1
1
1
1
1
1
1
1
1
1
1
1
1
1
1
0.753076
0.756472
0.759999
0.763659
0.767429
0.771305
0.775313
0.779465
0.783749
0.788163
0.792727
0.79744
0.802298
0.807307
0.812487
0.817854
0.823421
0.829185
0.835137
0.841269
0.847583
0.854098
0.860843
0.867846
0.875133
0.882727
0.89065
0.89892
0.907558
0.916584
0.926023
0.935919
0.946334
0.957327
0.968822
0.980289
0.99031
0.996896
0.999496
0.999969
0.999999
1
1
1
1
1
1
1
1
1
1
1
1
1
1
1
1
1
1
1
1
1
1
1
1
1
1
1
1
1
1
1
1
1
1
1
1
1
1
1
0.766926
0.770362
0.773927
0.777607
0.781406
0.785332
0.789388
0.793571
0.797888
0.802351
0.806961
0.811712
0.81661
0.82167
0.826914
0.832356
0.837994
0.843817
0.849817
0.855997
0.862377
0.868985
0.875853
0.883007
0.89047
0.898263
0.906406
0.914918
0.92382
0.93314
0.942915
0.953189
0.963945
0.974935
0.985345
0.993614
0.998281
0.999777
0.999989
1
1
1
1
1
1
1
1
1
1
1
1
1
1
1
1
1
1
1
1
1
1
1
1
1
1
1
1
1
1
1
1
1
1
1
1
1
1
1
1
1
0.781197
0.784665
0.788264
0.791981
0.795819
0.799783
0.803877
0.808101
0.812464
0.816973
0.821623
0.826415
0.831362
0.83649
0.841815
0.847335
0.853038
0.858915
0.864971
0.871228
0.877717
0.884469
0.891511
0.898865
0.906553
0.914594
0.923005
0.931808
0.941025
0.950681
0.960766
0.971138
0.981308
0.990204
0.996374
0.999222
0.999923
0.999997
1
1
1
1
1
1
1
1
1
1
1
1
1
1
1
1
1
1
1
1
1
1
1
1
1
1
1
1
1
1
1
1
1
1
1
1
1
1
1
1
1
1
0.7959
0.799404
0.803037
0.80679
0.81067
0.814677
0.818811
0.823079
0.827492
0.832046
0.836738
0.841581
0.846602
0.851818
0.85723
0.862823
0.868589
0.874535
0.880686
0.887075
0.893734
0.900689
0.907961
0.915571
0.923534
0.931868
0.940586
0.949698
0.959184
0.968938
0.978623
0.987488
0.994365
0.998322
0.999729
0.999981
0.999999
1
1
1
1
1
1
1
1
1
1
1
1
1
1
1
1
1
1
1
1
1
1
1
1
1
1
1
1
1
1
1
1
1
1
1
1
1
1
1
1
1
1
1
0.811055
0.814595
0.818265
0.822062
0.825986
0.830035
0.834215
0.838537
0.843001
0.847601
0.852349
0.857273
0.862393
0.867709
0.873205
0.878874
0.884728
0.890796
0.897111
0.903704
0.9106
0.917818
0.925375
0.933283
0.941548
0.950168
0.959113
0.968276
0.977387
0.985877
0.99284
0.997378
0.99941
0.999932
0.999997
1
1
1
1
1
1
1
1
1
1
1
1
1
1
1
1
1
1
1
1
1
1
1
1
1
1
1
1
1
1
1
1
1
1
1
1
1
1
1
1
1
1
1
1
1
0.826686
0.830264
0.833981
0.837825
0.841794
0.845893
0.850134
0.854515
0.859032
0.863697
0.86854
0.87358
0.878816
0.884232
0.889825
0.895611
0.901623
0.907893
0.914451
0.921317
0.928506
0.936026
0.943876
0.952042
0.960478
0.969067
0.977561
0.985486
0.992125
0.996734
0.999092
0.999856
0.999989
1
1
1
1
1
1
1
1
1
1
1
1
1
1
1
1
1
1
1
1
1
1
1
1
1
1
1
1
1
1
1
1
1
1
1
1
1
1
1
1
1
1
1
1
1
1
1
0.842826
0.846454
0.850223
0.854119
0.858148
0.862317
0.866628
0.871075
0.875675
0.880456
0.885436
0.890612
0.895971
0.901514
0.907264
0.913252
0.91951
0.926061
0.932916
0.94008
0.947543
0.955274
0.963209
0.971213
0.979036
0.986258
0.992298
0.996581
0.998921
0.999788
0.999977
0.999999
1
1
1
1
1
1
1
1
1
1
1
1
1
1
1
1
1
1
1
1
1
1
1
1
1
1
1
1
1
1
1
1
1
1
1
1
1
1
1
1
1
1
1
1
1
1
1
1
0.859534
0.863224
0.867058
0.871029
0.875142
0.879398
0.883796
0.888354
0.893099
0.898046
0.903188
0.908519
0.914044
0.919789
0.925784
0.932052
0.938603
0.945431
0.952515
0.959806
0.967213
0.974579
0.981643
0.988025
0.993254
0.996927
0.998965
0.99977
0.99997
0.999998
1
1
1
1
1
1
1
1
1
1
1
1
1
1
1
1
1
1
1
1
1
1
1
1
1
1
1
1
1
1
1
1
1
1
1
1
1
1
1
1
1
1
1
1
1
1
1
1
1
1
0.876909
0.880684
0.884614
0.888693
0.892918
0.897295
0.901841
0.906581
0.911522
0.916661
0.921992
0.927529
0.933292
0.9393
0.945557
0.952047
0.958729
0.965531
0.972333
0.978951
0.985121
0.990504
0.994751
0.997628
0.999189
0.999809
0.999972
0.999998
1
1
1
1
1
1
1
1
1
1
1
1
1
1
1
1
1
1
1
1
1
1
1
1
1
1
1
1
1
1
1
1
1
1
1
1
1
1
1
1
1
1
1
1
1
1
1
1
1
1
1
1
0.895122
0.899024
0.903094
0.907322
0.91171
0.916277
0.92104
0.926001
0.931155
0.9365
0.942043
0.947791
0.953734
0.959839
0.966042
0.97224
0.978287
0.983982
0.989076
0.993304
0.996451
0.998457
0.999485
0.999878
0.999981
0.999998
1
1
1
1
1
1
1
1
1
1
1
1
1
1
1
1
1
1
1
1
1
1
1
1
1
1
1
1
1
1
1
1
1
1
1
1
1
1
1
1
1
1
1
1
1
1
1
1
1
1
1
1
1
1
0.914441
0.918521
0.922777
0.927203
0.931807
0.936596
0.941565
0.946703
0.951997
0.957431
0.962976
0.968573
0.974132
0.979525
0.984591
0.98914
0.992979
0.99595
0.997991
0.999183
0.999743
0.999941
0.999991
0.999999
1
1
1
1
1
1
1
1
1
1
1
1
1
1
1
1
1
1
1
1
1
1
1
1
1
1
1
1
1
1
1
1
1
1
1
1
1
1
1
1
1
1
1
1
1
1
1
1
1
1
1
1
1
1
1
1
0.935149
0.939414
0.943848
0.948436
0.953166
0.958014
0.962947
0.967921
0.972878
0.977736
0.982385
0.986695
0.990523
0.993737
0.996241
0.998007
0.999098
0.999666