/*--------------------------------*- C++ -*----------------------------------*\
  =========                 |
  \\      /  F ield         | OpenFOAM: The Open Source CFD Toolbox
   \\    /   O peration     | Website:  https://openfoam.org
    \\  /    A nd           | Version:  7
     \\/     M anipulation  |
\*---------------------------------------------------------------------------*/
FoamFile
{
    version     2.0;
    format      ascii;
    class       volScalarField;
    location    "1.5";
    object      rho;
}
// * * * * * * * * * * * * * * * * * * * * * * * * * * * * * * * * * * * * * //

dimensions      [1 -3 0 0 0 0 0];

internalField   nonuniform List<scalar> 
90000
(
0.48529
0.506618
0.530249
0.555227
0.579761
0.604071
0.628916
0.654788
0.680554
0.706429
0.732319
0.758791
0.785239
0.81166
0.837794
0.863816
0.889769
0.914847
0.93963
0.963265
0.986837
1.0087
1.03083
1.05066
1.07065
1.08779
1.10574
1.12037
1.13613
1.14802
1.16099
1.16975
1.18004
1.18595
1.19327
1.19656
1.20196
1.20264
1.20408
1.20338
1.20352
1.2023
1.20185
1.20084
1.20119
1.20059
1.2027
1.20803
1.21243
1.21476
1.21594
1.21675
1.21724
1.21694
1.21627
1.2157
1.21376
1.21168
1.21029
1.21056
1.21173
1.21293
1.21283
1.21165
1.20954
1.20662
1.20689
1.20715
1.20917
1.21294
1.21688
1.21804
1.21564
1.20828
1.20165
1.19914
1.19876
1.19788
1.19618
1.19571
1.19685
1.2007
1.20631
1.21028
1.21056
1.20782
1.20467
1.20536
1.20905
1.21283
1.21302
1.21233
1.21155
1.2122
1.2142
1.21432
1.21527
1.21649
1.2189
1.23253
0.469362
0.469412
0.469454
0.469491
0.469523
0.46955
0.469614
0.469812
0.470188
0.470903
0.471984
0.473727
0.4762
0.479765
0.484203
0.490246
0.497454
0.50676
0.517376
0.530712
0.545472
0.563348
0.582674
0.60584
0.630354
0.658764
0.687956
0.721029
0.754401
0.790818
0.826647
0.86384
0.899996
0.935493
0.970319
1.00191
1.03375
1.05995
1.08746
1.10804
1.13071
1.1463
1.16361
1.17577
1.18768
1.20197
1.20842
1.21532
1.21729
1.21861
1.21978
1.21995
1.21955
1.21825
1.21591
1.2122
1.20534
1.20203
1.20233
1.20412
1.20569
1.20496
1.20182
1.20065
1.20041
1.20128
1.20435
1.21306
1.22211
1.22424
1.2226
1.21732
1.20552
1.19449
1.19358
1.1952
1.19694
1.19644
1.19433
1.1941
1.19645
1.20628
1.21297
1.21393
1.21215
1.20686
1.20358
1.2054
1.20967
1.21441
1.2125
1.20849
1.20866
1.21085
1.21337
1.21312
1.21295
1.21431
1.21632
1.2286
0.472198
0.472285
0.472373
0.47245
0.47252
0.472604
0.472714
0.472855
0.473015
0.473188
0.47337
0.473601
0.473691
0.473785
0.473895
0.474005
0.474113
0.474243
0.474387
0.474531
0.474656
0.474787
0.474914
0.475053
0.475178
0.475459
0.476
0.477245
0.479328
0.483183
0.488487
0.497136
0.507928
0.52396
0.542504
0.568357
0.596726
0.634085
0.673505
0.721919
0.77064
0.825266
0.878471
0.932553
0.981553
1.03202
1.06913
1.10986
1.13465
1.16136
1.17836
1.19214
1.20628
1.20459
1.2049
1.20246
1.20372
1.2078
1.21279
1.21464
1.21312
1.20803
1.20239
1.20274
1.20594
1.21174
1.21937
1.22443
1.22718
1.22676
1.21928
1.20456
1.19317
1.19215
1.19509
1.20445
1.20858
1.2069
1.20436
1.20511
1.20982
1.21793
1.21708
1.21575
1.21037
1.20595
1.2078
1.21391
1.21689
1.21579
1.21021
1.20774
1.20897
1.2114
1.21425
1.21238
1.21174
1.21266
1.21571
1.22706
0.474789
0.474836
0.474895
0.474965
0.475054
0.475152
0.475257
0.475357
0.475459
0.475562
0.475661
0.475743
0.475828
0.475928
0.476042
0.476164
0.476287
0.476407
0.476527
0.47665
0.476785
0.476928
0.477036
0.477121
0.477193
0.477258
0.477328
0.477479
0.47746
0.477422
0.477381
0.477332
0.477244
0.477112
0.477071
0.477075
0.477084
0.477091
0.477205
0.478313
0.480864
0.487529
0.497858
0.516323
0.541918
0.575186
0.62389
0.67431
0.742203
0.810445
0.883984
0.951688
1.02326
1.07266
1.12635
1.15685
1.19645
1.20736
1.21623
1.21546
1.21537
1.21098
1.20787
1.21873
1.22357
1.22905
1.23174
1.23159
1.22972
1.21496
1.2014
1.19439
1.1947
1.20071
1.21463
1.22521
1.22453
1.22201
1.22203
1.22338
1.22332
1.22137
1.21625
1.20899
1.20632
1.20868
1.21675
1.22162
1.22051
1.21336
1.20876
1.20906
1.21248
1.21515
1.21525
1.21213
1.21223
1.21358
1.21634
1.22674
0.477234
0.477252
0.477278
0.47731
0.477355
0.477413
0.47747
0.477523
0.477577
0.477626
0.477674
0.477726
0.47778
0.477827
0.477873
0.477929
0.477994
0.478046
0.478088
0.478137
0.478209
0.478297
0.478368
0.478406
0.47841
0.478406
0.478406
0.478408
0.478398
0.478373
0.478339
0.47829
0.478211
0.478096
0.477993
0.477975
0.477976
0.477976
0.477983
0.477989
0.477945
0.477888
0.477834
0.477755
0.477595
0.477362
0.476955
0.476921
0.478904
0.484225
0.498104
0.52454
0.560183
0.622761
0.689943
0.776413
0.863322
0.945391
1.02554
1.08161
1.13681
1.17208
1.20093
1.21847
1.22165
1.22669
1.22692
1.22328
1.21031
1.18817
1.19159
1.20136
1.21632
1.22979
1.2344
1.23109
1.22738
1.22836
1.23225
1.23435
1.23116
1.21691
1.20529
1.20217
1.20527
1.2157
1.22639
1.22646
1.22026
1.21083
1.20992
1.21446
1.2193
1.21881
1.21525
1.21309
1.2139
1.2171
1.21841
1.22739
0.478036
0.478036
0.478035
0.478038
0.478041
0.478039
0.478038
0.478039
0.478039
0.478038
0.478039
0.478048
0.478049
0.478046
0.478052
0.478075
0.478109
0.478148
0.478184
0.478218
0.478257
0.478312
0.478376
0.478428
0.47847
0.478502
0.478524
0.478535
0.478529
0.478504
0.478458
0.478406
0.47834
0.478202
0.477945
0.477819
0.477791
0.477769
0.47773
0.477658
0.47757
0.477486
0.47739
0.477224
0.477013
0.476764
0.476399
0.476156
0.476128
0.476132
0.476146
0.476158
0.476147
0.476051
0.476255
0.480976
0.491617
0.521893
0.567668
0.642106
0.725951
0.830872
0.927258
1.01461
1.07095
1.11693
1.147
1.17202
1.17025
1.18773
1.21138
1.23121
1.24982
1.24978
1.24498
1.23272
1.22609
1.23098
1.2354
1.23413
1.2205
1.202
1.19944
1.20153
1.21093
1.22434
1.23033
1.22504
1.21452
1.21148
1.21512
1.22268
1.22311
1.22158
1.21526
1.21588
1.2191
1.2218
1.22082
1.22841
0.477983
0.477977
0.477971
0.477969
0.477964
0.477959
0.477957
0.477952
0.47794
0.477935
0.477936
0.477936
0.47792
0.477894
0.477892
0.477927
0.477974
0.477974
0.477971
0.477978
0.478012
0.478047
0.47806
0.478066
0.478081
0.478119
0.478165
0.478182
0.478179
0.478152
0.478077
0.477977
0.477874
0.477768
0.477659
0.477546
0.477464
0.47742
0.477368
0.477317
0.477268
0.477206
0.477107
0.476951
0.476761
0.47651
0.476175
0.475898
0.47584
0.475867
0.475914
0.47595
0.475948
0.475881
0.47569
0.475452
0.475253
0.475147
0.475083
0.474958
0.476381
0.486305
0.514955
0.560258
0.642989
0.739558
0.849093
0.967606
1.06313
1.16355
1.20308
1.22261
1.24172
1.24049
1.22703
1.19474
1.19415
1.21794
1.22944
1.2143
1.20051
1.19808
1.201
1.21197
1.22728
1.23142
1.227
1.21697
1.21243
1.21578
1.22551
1.22837
1.226
1.21831
1.21556
1.22024
1.22357
1.22393
1.22314
1.23057
0.477843
0.477826
0.477811
0.47779
0.477758
0.477721
0.477686
0.477646
0.477601
0.477575
0.477567
0.477563
0.477552
0.477528
0.477517
0.477522
0.47756
0.477598
0.477608
0.477605
0.477604
0.477614
0.477639
0.477684
0.477725
0.477732
0.477734
0.477737
0.477733
0.477706
0.477637
0.477544
0.477466
0.477341
0.477268
0.477266
0.477279
0.477342
0.477448
0.477467
0.477466
0.477438
0.477324
0.477096
0.476824
0.476502
0.476148
0.475896
0.475871
0.475903
0.47591
0.4759
0.475859
0.475733
0.475564
0.475361
0.475218
0.475162
0.475143
0.475103
0.474895
0.474729
0.474724
0.4748
0.474923
0.477622
0.491656
0.523741
0.601884
0.69843
0.828965
0.942535
1.04784
1.09472
1.14095
1.15481
1.18199
1.20595
1.19916
1.177
1.18807
1.21072
1.22542
1.22917
1.23147
1.22519
1.2107
1.20771
1.21198
1.2254
1.23216
1.22993
1.21999
1.21505
1.21831
1.22605
1.22684
1.22401
1.22344
1.23405
0.477817
0.477791
0.477745
0.477675
0.477587
0.477487
0.47742
0.477404
0.477403
0.477404
0.477409
0.477424
0.477436
0.477429
0.47741
0.477412
0.477441
0.47751
0.477583
0.4776
0.4776
0.477597
0.477609
0.477662
0.477686
0.477687
0.477691
0.477693
0.477685
0.477648
0.477599
0.477522
0.47742
0.477392
0.477404
0.477456
0.477556
0.477694
0.477817
0.477865
0.477867
0.477851
0.477782
0.477627
0.477381
0.477031
0.476559
0.476115
0.47595
0.475934
0.475934
0.475913
0.475839
0.475691
0.475668
0.475623
0.475552
0.475603
0.475626
0.475575
0.475383
0.475172
0.475164
0.475233
0.475316
0.475522
0.475862
0.47594
0.475834
0.476473
0.490155
0.533207
0.604688
0.728661
0.888834
1.04999
1.163
1.17663
1.16448
1.17667
1.22817
1.24293
1.24308
1.23914
1.23108
1.20932
1.20345
1.20701
1.22304
1.2371
1.2354
1.22205
1.21286
1.21422
1.22457
1.23097
1.2294
1.22217
1.2231
1.23891
0.477868
0.477808
0.477697
0.477572
0.477505
0.477477
0.477458
0.477455
0.477457
0.477461
0.477471
0.477516
0.477555
0.477556
0.477553
0.477559
0.477584
0.477641
0.477707
0.477777
0.477859
0.477876
0.477873
0.477865
0.477838
0.477809
0.477814
0.477839
0.477838
0.477833
0.47783
0.477754
0.477565
0.477507
0.477524
0.47762
0.477774
0.47793
0.478057
0.478159
0.478191
0.478178
0.478124
0.477971
0.477666
0.477369
0.477137
0.476896
0.476593
0.476265
0.476061
0.475969
0.475844
0.47576
0.47576
0.475813
0.47599
0.476204
0.476225
0.476161
0.475998
0.475814
0.475774
0.47578
0.475734
0.47575
0.476062
0.476278
0.476251
0.476007
0.475676
0.475616
0.475606
0.479209
0.493688
0.567993
0.699864
0.844493
1.0111
1.1466
1.20825
1.22797
1.23527
1.23215
1.20471
1.19303
1.20069
1.22202
1.23679
1.23661
1.22432
1.20754
1.20933
1.22219
1.23081
1.23061
1.22298
1.2195
1.22464
1.24303
0.47795
0.477875
0.477841
0.477846
0.477869
0.4779
0.477931
0.477957
0.47798
0.478011
0.478074
0.478184
0.478221
0.478197
0.478181
0.478188
0.478223
0.478296
0.47843
0.478562
0.478577
0.478572
0.478553
0.478518
0.478465
0.478411
0.478365
0.47831
0.478232
0.47816
0.478101
0.478016
0.477881
0.477749
0.477731
0.477763
0.477842
0.477936
0.478034
0.478121
0.47819
0.478213
0.47819
0.478061
0.477753
0.477457
0.477231
0.47706
0.476885
0.476684
0.476466
0.476198
0.47596
0.475922
0.475929
0.475988
0.476184
0.476484
0.476584
0.476508
0.476323
0.476152
0.476043
0.475971
0.47587
0.475864
0.47611
0.476382
0.476359
0.476133
0.475734
0.475574
0.47549
0.475363
0.475239
0.475041
0.475822
0.495238
0.554003
0.680849
0.832091
0.979113
1.08823
1.15712
1.16024
1.20214
1.21898
1.24294
1.24254
1.22141
1.2034
1.20478
1.21833
1.23459
1.23391
1.22327
1.21717
1.21933
1.2288
1.24629
0.478449
0.478471
0.478502
0.478545
0.478586
0.478633
0.478698
0.478713
0.478711
0.478717
0.478775
0.478818
0.478785
0.478687
0.478672
0.478691
0.478733
0.478813
0.478916
0.478941
0.478934
0.478925
0.478914
0.478883
0.478817
0.478721
0.478589
0.478451
0.47837
0.478313
0.478202
0.47795
0.477803
0.477789
0.477755
0.477643
0.477552
0.477554
0.477597
0.477657
0.477702
0.477764
0.477852
0.477848
0.477756
0.477508
0.477243
0.477169
0.47713
0.477036
0.476784
0.476407
0.476118
0.476011
0.476021
0.476106
0.476353
0.47668
0.476775
0.476665
0.476483
0.476363
0.47624
0.476026
0.475876
0.475872
0.476119
0.476395
0.476367
0.476115
0.475619
0.475262
0.47506
0.474932
0.474817
0.47486
0.475016
0.475457
0.475671
0.476954
0.491791
0.562773
0.705561
0.897699
1.05996
1.18505
1.2091
1.23673
1.22438
1.18281
1.1887
1.21566
1.23395
1.23613
1.22529
1.21005
1.21411
1.22642
1.23101
1.2439
0.478764
0.478801
0.478825
0.478837
0.478843
0.478857
0.478916
0.478961
0.478995
0.479053
0.479077
0.479057
0.478883
0.47875
0.478751
0.478777
0.478835
0.478946
0.478996
0.478996
0.478982
0.478992
0.479009
0.479
0.478946
0.478851
0.478657
0.478427
0.478284
0.478164
0.47801
0.477838
0.477679
0.477578
0.477492
0.477394
0.477282
0.477187
0.477178
0.477201
0.477219
0.477273
0.477437
0.477525
0.47744
0.477254
0.477231
0.477303
0.477411
0.477337
0.476977
0.476519
0.47623
0.476059
0.47604
0.476137
0.476442
0.476761
0.476816
0.476681
0.476505
0.476425
0.476325
0.476014
0.475756
0.475762
0.476049
0.476349
0.476275
0.475841
0.475206
0.474827
0.474758
0.474754
0.474679
0.474824
0.475272
0.475872
0.476053
0.475998
0.475804
0.474793
0.476189
0.502849
0.612039
0.768474
0.936351
1.10636
1.12694
1.17681
1.2001
1.24289
1.24264
1.22524
1.20655
1.20899
1.22415
1.23536
1.23275
1.23521
0.478729
0.478712
0.478696
0.478688
0.478687
0.478714
0.478837
0.478956
0.478966
0.478958
0.478965
0.478961
0.478824
0.478641
0.478623
0.478623
0.478655
0.478834
0.478935
0.47894
0.478905
0.478818
0.478807
0.478837
0.478879
0.478855
0.478494
0.478022
0.477932
0.477879
0.47779
0.47767
0.477523
0.477457
0.477416
0.477346
0.477196
0.476947
0.476807
0.476822
0.476872
0.476971
0.477108
0.477108
0.476997
0.476951
0.476981
0.477268
0.477547
0.477452
0.476989
0.476528
0.476301
0.476129
0.476049
0.476176
0.476539
0.476745
0.476681
0.476517
0.476434
0.476403
0.476313
0.475963
0.475369
0.475174
0.475391
0.47579
0.475713
0.475212
0.47474
0.474659
0.474621
0.474723
0.475034
0.475264
0.47563
0.476003
0.476134
0.475938
0.474901
0.473215
0.472222
0.472196
0.472465
0.478757
0.544027
0.680605
0.892373
1.1311
1.1879
1.23677
1.22867
1.18543
1.19145
1.22134
1.23555
1.23603
1.22267
1.22789
0.477489
0.477558
0.477575
0.47757
0.477579
0.477713
0.4779
0.477938
0.477929
0.477879
0.47776
0.477712
0.477725
0.47777
0.477778
0.477791
0.477846
0.477976
0.478108
0.478181
0.478246
0.478325
0.478377
0.478432
0.478512
0.478513
0.478254
0.477701
0.477565
0.477567
0.477619
0.477622
0.477542
0.477456
0.477439
0.477401
0.477249
0.476922
0.476713
0.476731
0.476766
0.476797
0.476857
0.476873
0.476807
0.476784
0.476899
0.477377
0.477565
0.477319
0.476687
0.476523
0.476437
0.476333
0.476318
0.476447
0.476504
0.476417
0.476174
0.476126
0.476183
0.476272
0.476244
0.475911
0.475247
0.474729
0.474783
0.4749
0.474756
0.474515
0.47446
0.474533
0.474813
0.4752
0.47552
0.475639
0.47575
0.475936
0.475627
0.47455
0.472899
0.471574
0.471488
0.472126
0.472755
0.473455
0.473607
0.473752
0.514322
0.62629
0.8301
1.05505
1.10377
1.16457
1.19973
1.24494
1.24222
1.21734
1.21084
1.2277
0.476435
0.476491
0.476555
0.476627
0.476699
0.476771
0.476834
0.476857
0.476854
0.476823
0.476713
0.476607
0.47658
0.476565
0.476582
0.476733
0.477139
0.477534
0.477706
0.477785
0.477879
0.478044
0.478161
0.478216
0.478305
0.478349
0.478234
0.477594
0.477184
0.477164
0.477187
0.477213
0.477197
0.477196
0.477213
0.477198
0.477065
0.476876
0.476835
0.476827
0.476784
0.47663
0.476547
0.476411
0.476349
0.476365
0.476647
0.477321
0.477452
0.477114
0.476454
0.476333
0.47647
0.476552
0.47655
0.476551
0.476453
0.476129
0.476022
0.476038
0.476159
0.476223
0.476115
0.475545
0.474751
0.47426
0.474122
0.474058
0.474008
0.474268
0.474674
0.474807
0.475004
0.475334
0.475611
0.475824
0.475397
0.47438
0.473045
0.471715
0.4704
0.47044
0.470996
0.4717
0.472254
0.472687
0.472395
0.471046
0.469243
0.467159
0.496162
0.59326
0.82265
1.09938
1.18206
1.23562
1.22467
1.17578
1.19745
1.2429
0.47753
0.477531
0.477524
0.477491
0.477425
0.477368
0.47732
0.477305
0.477289
0.477127
0.476971
0.476927
0.476839
0.476725
0.476742
0.477157
0.478041
0.478254
0.47825
0.478156
0.478056
0.478073
0.478269
0.478546
0.478661
0.478659
0.478466
0.477775
0.477413
0.477406
0.47742
0.477442
0.477432
0.477436
0.477584
0.47767
0.47765
0.477514
0.477455
0.477471
0.477451
0.477128
0.476215
0.475591
0.475531
0.475663
0.476342
0.477256
0.477383
0.477127
0.476632
0.476536
0.47672
0.476806
0.47673
0.476548
0.47625
0.475686
0.475209
0.475103
0.47509
0.474839
0.473931
0.473073
0.47312
0.473397
0.473388
0.473404
0.473813
0.474489
0.474851
0.47483
0.474826
0.474678
0.474196
0.472697
0.470452
0.468653
0.467989
0.467396
0.467262
0.467305
0.467377
0.467627
0.467682
0.467271
0.46635
0.465059
0.463946
0.4631
0.463161
0.463527
0.489758
0.594395
0.81331
1.05513
1.12086
1.15334
1.2312
1.26039
0.477291
0.477255
0.47724
0.477196
0.4771
0.477005
0.476971
0.476985
0.47698
0.476881
0.476589
0.476181
0.47584
0.475571
0.475432
0.475378
0.475296
0.47525
0.475118
0.474419
0.473793
0.473859
0.47483
0.476187
0.476353
0.476057
0.475147
0.474925
0.475029
0.475195
0.475202
0.475241
0.475391
0.475516
0.475738
0.476591
0.477013
0.477035
0.477191
0.477237
0.476599
0.474456
0.473196
0.473037
0.472961
0.472938
0.473297
0.474005
0.47401
0.473742
0.473803
0.474114
0.474097
0.473393
0.472678
0.472187
0.471489
0.470921
0.470928
0.470979
0.47089
0.470232
0.469121
0.468895
0.469093
0.469718
0.470179
0.470145
0.47002
0.469849
0.469627
0.469274
0.468519
0.467498
0.46664
0.465942
0.465201
0.464301
0.463893
0.46364
0.463695
0.464019
0.464587
0.465641
0.465524
0.464746
0.463614
0.462482
0.461613
0.461621
0.461984
0.46298
0.463949
0.463947
0.490238
0.598105
0.861862
1.10922
1.20369
1.24848
0.472183
0.472203
0.472197
0.472021
0.471888
0.471747
0.471593
0.471555
0.471229
0.470518
0.470458
0.470466
0.470391
0.470187
0.46982
0.469414
0.469371
0.46944
0.469485
0.469359
0.469342
0.470017
0.471814
0.472392
0.472247
0.471218
0.47031
0.470259
0.470604
0.470929
0.470903
0.47098
0.471454
0.471668
0.471584
0.471572
0.471977
0.472463
0.47256
0.472521
0.472089
0.470667
0.46984
0.469698
0.469699
0.469989
0.470037
0.469848
0.46916
0.468268
0.468123
0.468172
0.468039
0.467271
0.466653
0.466493
0.466482
0.466625
0.467272
0.467749
0.467676
0.46698
0.466182
0.466078
0.466269
0.466842
0.467198
0.467138
0.467101
0.46714
0.467109
0.466816
0.465887
0.464366
0.463435
0.463168
0.462834
0.462289
0.461954
0.462101
0.46263
0.463681
0.465557
0.465397
0.464415
0.462722
0.461972
0.461289
0.461128
0.461967
0.463752
0.465261
0.464852
0.463719
0.463087
0.463656
0.49702
0.664274
0.858318
1.0985
0.46707
0.467393
0.467408
0.467388
0.467372
0.467397
0.467414
0.467398
0.467277
0.467074
0.467012
0.466999
0.46699
0.46702
0.467036
0.466755
0.466319
0.466231
0.466426
0.466957
0.467623
0.468833
0.469402
0.469352
0.468922
0.467781
0.467211
0.467176
0.467348
0.467503
0.46746
0.467235
0.467276
0.467885
0.468252
0.468186
0.468206
0.468515
0.468617
0.468411
0.467654
0.466242
0.465079
0.464845
0.464809
0.46488
0.465113
0.465161
0.465048
0.46503
0.465241
0.465448
0.465347
0.464748
0.464179
0.464059
0.46406
0.464164
0.464656
0.465453
0.46585
0.46577
0.465419
0.465323
0.465666
0.466454
0.466581
0.466371
0.466106
0.465918
0.465617
0.465093
0.464165
0.462744
0.462273
0.462238
0.462084
0.462021
0.462393
0.463948
0.465617
0.467269
0.466911
0.465544
0.463474
0.462315
0.461906
0.461504
0.463852
0.467164
0.468973
0.467978
0.466241
0.46602
0.469234
0.473196
0.475005
0.476752
0.501652
0.783152
0.468524
0.469561
0.469692
0.46967
0.469356
0.469126
0.469101
0.469101
0.469244
0.469388
0.469431
0.469485
0.469609
0.469765
0.469889
0.470089
0.470318
0.470439
0.470508
0.470768
0.471278
0.471376
0.471325
0.470971
0.469922
0.46896
0.468844
0.468872
0.468981
0.468986
0.468917
0.469045
0.469151
0.469123
0.468765
0.467993
0.467273
0.466662
0.466141
0.465465
0.464596
0.464359
0.464377
0.464392
0.464369
0.464429
0.464704
0.465132
0.465317
0.465376
0.465633
0.465791
0.465702
0.465119
0.464797
0.464962
0.465411
0.46566
0.46623
0.467569
0.469055
0.46921
0.468887
0.46883
0.469205
0.469334
0.469075
0.468198
0.46662
0.46531
0.464847
0.464467
0.463857
0.462609
0.462712
0.463407
0.46531
0.467844
0.470086
0.471377
0.471496
0.470449
0.468609
0.465933
0.465241
0.466502
0.469692
0.475086
0.479864
0.479784
0.478699
0.478315
0.479413
0.482736
0.485124
0.485936
0.485398
0.485538
0.486016
0.524535
0.468032
0.467997
0.467964
0.467708
0.467614
0.467617
0.46761
0.467627
0.467674
0.467729
0.467838
0.467957
0.468116
0.468458
0.469117
0.469931
0.470345
0.470324
0.469944
0.468895
0.467856
0.467359
0.466861
0.465808
0.464598
0.464278
0.464292
0.464455
0.464905
0.46582
0.467181
0.467594
0.467706
0.467821
0.46774
0.467192
0.465779
0.464054
0.463296
0.463348
0.463796
0.464416
0.465162
0.46566
0.465628
0.46554
0.465676
0.4662
0.466965
0.467857
0.4695
0.47175
0.472507
0.472362
0.47217
0.472268
0.472783
0.47359
0.474376
0.474635
0.474359
0.473623
0.472711
0.472261
0.4716
0.470725
0.469819
0.468817
0.468106
0.46841
0.468733
0.469648
0.472178
0.47651
0.480202
0.482812
0.484154
0.485412
0.485304
0.484488
0.483311
0.481043
0.481161
0.482166
0.484851
0.488231
0.490306
0.49192
0.490666
0.488785
0.486225
0.487023
0.489816
0.493715
0.493581
0.494141
0.495083
0.497572
0.499729
0.502015
0.469212
0.469378
0.469577
0.469926
0.47091
0.471424
0.471488
0.471377
0.47093
0.470884
0.4713
0.472402
0.474188
0.476066
0.476464
0.476417
0.476365
0.476437
0.476336
0.476244
0.476134
0.476105
0.476756
0.478344
0.479307
0.479766
0.480187
0.480637
0.481613
0.48261
0.483113
0.483996
0.484992
0.485026
0.484309
0.482839
0.482464
0.482791
0.483938
0.48627
0.489348
0.490625
0.490783
0.491328
0.493008
0.493876
0.49357
0.492361
0.491482
0.491469
0.491875
0.491976
0.491885
0.49187
0.492069
0.492745
0.493703
0.493849
0.493377
0.492233
0.490969
0.490503
0.490644
0.490676
0.490529
0.490673
0.491262
0.492497
0.494195
0.495685
0.496746
0.497761
0.498348
0.499153
0.498963
0.498526
0.497361
0.49576
0.494101
0.492657
0.491046
0.492058
0.494751
0.498342
0.500712
0.502624
0.50228
0.500605
0.498506
0.499004
0.502442
0.50676
0.51026
0.511414
0.511334
0.511605
0.512278
0.513357
0.514036
0.515122
0.50643
0.507099
0.508178
0.50863
0.508552
0.507815
0.506542
0.50603
0.506046
0.506333
0.50707
0.508192
0.509517
0.510167
0.51011
0.509666
0.509471
0.50963
0.511448
0.512807
0.512721
0.511667
0.510999
0.511007
0.511038
0.51067
0.509663
0.508551
0.508325
0.508347
0.508275
0.508527
0.509926
0.511038
0.510915
0.509888
0.509274
0.509304
0.509721
0.510581
0.510829
0.510414
0.509177
0.50822
0.508242
0.508379
0.50817
0.506936
0.504666
0.503024
0.502525
0.502618
0.502872
0.502988
0.502874
0.502197
0.500973
0.499621
0.498789
0.498931
0.499704
0.500905
0.502028
0.503149
0.504321
0.505731
0.507498
0.509519
0.510345
0.510371
0.510887
0.51088
0.510278
0.509007
0.507786
0.506732
0.50563
0.505974
0.507575
0.510711
0.515367
0.520187
0.523004
0.524303
0.52393
0.522932
0.521807
0.521074
0.521951
0.523803
0.526064
0.525913
0.524537
0.52289
0.522046
0.522468
0.523796
0.525216
0.527422
0.531055
0.535967
0.536466
0.537119
0.537456
0.537387
0.536405
0.533475
0.532285
0.532324
0.532437
0.532562
0.532692
0.533265
0.535157
0.53665
0.536525
0.535691
0.535621
0.535916
0.535926
0.535201
0.533901
0.533778
0.533837
0.533492
0.533638
0.534207
0.533594
0.531068
0.529949
0.529564
0.528593
0.528118
0.528125
0.527477
0.525131
0.52396
0.523886
0.523794
0.523711
0.523883
0.525382
0.52875
0.531042
0.531546
0.531717
0.532407
0.533714
0.534003
0.533292
0.531671
0.530052
0.529906
0.530995
0.533946
0.537665
0.540692
0.543198
0.54445
0.544374
0.544216
0.544483
0.545961
0.547489
0.547472
0.54712
0.546654
0.545981
0.545116
0.544322
0.543859
0.543516
0.543238
0.542739
0.542857
0.543286
0.544362
0.545761
0.54685
0.548052
0.547908
0.547252
0.545593
0.543257
0.541012
0.538252
0.538468
0.539992
0.542039
0.544319
0.545483
0.545186
0.545274
0.545584
0.546727
0.548197
0.549431
0.550605
0.551229
0.550781
0.571244
0.571276
0.571418
0.571827
0.57319
0.57418
0.574095
0.572157
0.569906
0.568671
0.568055
0.56797
0.569041
0.572417
0.572937
0.57185
0.57107
0.571135
0.570957
0.570621
0.571227
0.574113
0.574883
0.57505
0.575982
0.577203
0.577729
0.57787
0.57785
0.577946
0.578288
0.578253
0.577899
0.577809
0.57818
0.57857
0.578597
0.578297
0.577146
0.576133
0.575985
0.575799
0.575387
0.575523
0.576038
0.576984
0.577842
0.577882
0.57765
0.577391
0.577408
0.577444
0.57709
0.576321
0.575686
0.575012
0.574155
0.573392
0.572792
0.572055
0.570744
0.569166
0.567657
0.565828
0.564137
0.562875
0.561511
0.558938
0.557469
0.557887
0.558585
0.559112
0.559444
0.560127
0.561613
0.563325
0.564939
0.565257
0.56481
0.563812
0.562724
0.56118
0.559658
0.560077
0.561397
0.56396
0.56648
0.568145
0.568762
0.568582
0.567727
0.566391
0.564958
0.563957
0.563649
0.563038
0.562818
0.562467
0.561381
0.561079
0.612572
0.613081
0.613817
0.614414
0.615063
0.615613
0.615685
0.615092
0.613035
0.611864
0.611778
0.61202
0.61229
0.611999
0.61056
0.609881
0.610082
0.610404
0.610337
0.609649
0.609151
0.608965
0.60866
0.60802
0.607274
0.606471
0.605097
0.60383
0.603487
0.603415
0.603488
0.603892
0.604528
0.605105
0.605716
0.606924
0.608183
0.608391
0.607968
0.606771
0.606461
0.606686
0.606575
0.604884
0.601462
0.598429
0.59613
0.594418
0.593904
0.593841
0.593503
0.593449
0.594307
0.595694
0.595817
0.595348
0.594727
0.593921
0.592269
0.59017
0.589546
0.589872
0.591088
0.59344
0.596567
0.597904
0.598164
0.598628
0.599914
0.601023
0.602136
0.603014
0.603023
0.602603
0.601771
0.600456
0.599116
0.59766
0.596207
0.594989
0.593676
0.592469
0.591535
0.591658
0.591491
0.591037
0.5898
0.58763
0.585165
0.58302
0.581234
0.580017
0.580586
0.582232
0.583948
0.585597
0.586672
0.586555
0.585221
0.584872
0.65372
0.653269
0.653018
0.652963
0.653089
0.653434
0.6535
0.653581
0.653817
0.653892
0.653752
0.653492
0.653378
0.653074
0.652542
0.652639
0.653297
0.653339
0.652464
0.651712
0.65173
0.651735
0.651411
0.651336
0.651341
0.651199
0.650981
0.650937
0.650766
0.650181
0.649428
0.648939
0.648721
0.648444
0.647811
0.646779
0.645651
0.6448
0.644636
0.644844
0.644947
0.644748
0.644774
0.645247
0.645487
0.645666
0.646167
0.646582
0.646481
0.64576
0.644341
0.64284
0.641594
0.640475
0.639849
0.639942
0.640804
0.641948
0.642075
0.641636
0.640491
0.638975
0.637697
0.636775
0.63596
0.63502
0.633802
0.632314
0.630514
0.628312
0.626314
0.624146
0.621619
0.618938
0.616073
0.613633
0.611689
0.610359
0.610039
0.610056
0.610319
0.611505
0.612974
0.61478
0.614539
0.613857
0.613512
0.612028
0.611814
0.611829
0.612317
0.612186
0.611866
0.611367
0.60981
0.607771
0.605142
0.602655
0.599979
0.599259
0.697544
0.697419
0.696859
0.696285
0.696184
0.695967
0.69582
0.696017
0.696379
0.696362
0.695832
0.695231
0.695212
0.695354
0.695095
0.693846
0.692683
0.692442
0.692733
0.693082
0.693071
0.6929
0.692003
0.690907
0.690728
0.690917
0.691443
0.69159
0.69141
0.690633
0.689956
0.689915
0.690021
0.690037
0.689669
0.6887
0.688123
0.687688
0.68706
0.686
0.684818
0.683729
0.682262
0.680281
0.679012
0.678865
0.678775
0.678288
0.677541
0.677183
0.677193
0.677213
0.677002
0.676084
0.674384
0.671974
0.668921
0.666864
0.666456
0.666256
0.665788
0.664844
0.663759
0.662448
0.660426
0.657475
0.655953
0.656028
0.656198
0.656097
0.655159
0.654978
0.65524
0.655935
0.656332
0.656949
0.657743
0.658091
0.657911
0.65714
0.655825
0.653803
0.651569
0.648821
0.645988
0.643237
0.640751
0.638238
0.636533
0.63518
0.63391
0.632266
0.630274
0.627864
0.625698
0.623245
0.622892
0.62366
0.625742
0.625861
0.745329
0.745483
0.745742
0.745704
0.745238
0.744245
0.7438
0.743717
0.743514
0.743052
0.743018
0.74356
0.743781
0.743425
0.742958
0.742953
0.742873
0.74212
0.741242
0.741222
0.741233
0.740488
0.738929
0.738682
0.738653
0.738163
0.736711
0.736097
0.736078
0.735902
0.735011
0.733544
0.733156
0.733075
0.73281
0.732474
0.732294
0.732027
0.731216
0.730049
0.729925
0.73011
0.730025
0.729395
0.72782
0.726003
0.724786
0.723841
0.722682
0.720883
0.719454
0.719288
0.719323
0.719123
0.718437
0.717669
0.71705
0.716116
0.714877
0.713495
0.711249
0.709788
0.709689
0.709564
0.709139
0.707896
0.705831
0.703941
0.702853
0.701967
0.700406
0.698363
0.696158
0.694212
0.692032
0.689431
0.686634
0.683291
0.679509
0.675829
0.672353
0.668816
0.66529
0.661683
0.662267
0.662276
0.662151
0.662728
0.664023
0.66382
0.663412
0.662244
0.66104
0.658894
0.657294
0.656297
0.65417
0.651982
0.649634
0.644649
0.797701
0.797655
0.797921
0.798151
0.797826
0.796302
0.795781
0.79599
0.796096
0.795272
0.793358
0.793038
0.793294
0.793262
0.792907
0.792855
0.792851
0.792612
0.792005
0.791165
0.790719
0.790771
0.790897
0.790552
0.789284
0.788503
0.787825
0.787197
0.787082
0.786981
0.786585
0.785478
0.784092
0.783052
0.782272
0.781518
0.780788
0.779624
0.778592
0.777624
0.776266
0.775016
0.774401
0.774005
0.773066
0.771474
0.77035
0.769627
0.769
0.768051
0.766552
0.764845
0.763486
0.761533
0.758012
0.75635
0.756335
0.755981
0.754612
0.752727
0.751228
0.749446
0.746979
0.744112
0.741742
0.73991
0.738244
0.736533
0.733946
0.730799
0.728202
0.726473
0.724761
0.72237
0.720222
0.718084
0.716717
0.715723
0.714091
0.713895
0.714038
0.714198
0.713258
0.711046
0.7101
0.708776
0.70661
0.702955
0.699096
0.694871
0.690625
0.68632
0.682316
0.677974
0.675769
0.67489
0.673079
0.670535
0.668857
0.667441
0.854852
0.854644
0.85462
0.854358
0.85334
0.852476
0.852428
0.852441
0.852106
0.851638
0.851636
0.85129
0.84966
0.849268
0.849224
0.848446
0.847365
0.846931
0.846765
0.846363
0.845241
0.844538
0.844662
0.844735
0.844167
0.842139
0.840998
0.840836
0.840536
0.839695
0.838796
0.837947
0.837026
0.835702
0.834438
0.833447
0.832535
0.831188
0.830286
0.829853
0.829186
0.828295
0.827108
0.825613
0.823776
0.821743
0.819668
0.817804
0.816541
0.81563
0.814005
0.812549
0.811896
0.810995
0.809275
0.806551
0.804049
0.802559
0.801026
0.798846
0.797186
0.795855
0.794389
0.79263
0.790525
0.787921
0.785123
0.783414
0.782312
0.780469
0.777498
0.7751
0.773722
0.771537
0.768871
0.766285
0.763802
0.761461
0.758159
0.754889
0.751116
0.747546
0.743607
0.738616
0.733051
0.728026
0.722976
0.718585
0.714773
0.71186
0.710877
0.711906
0.711452
0.712091
0.711316
0.709995
0.708133
0.705342
0.701723
0.695624
0.917546
0.91759
0.916753
0.915329
0.915299
0.915454
0.914729
0.911851
0.910633
0.911206
0.912934
0.91307
0.912008
0.911526
0.91143
0.910899
0.908809
0.906986
0.906866
0.906934
0.906494
0.905291
0.904845
0.904722
0.904135
0.901511
0.90057
0.900493
0.900076
0.899037
0.896729
0.894905
0.894817
0.894743
0.894089
0.892447
0.89079
0.889345
0.887625
0.885746
0.884644
0.883929
0.883042
0.881537
0.879265
0.876588
0.874836
0.873409
0.87198
0.870584
0.868991
0.866728
0.864192
0.862154
0.86048
0.858464
0.855975
0.853651
0.851779
0.849835
0.847054
0.843956
0.841276
0.838933
0.836432
0.833975
0.831201
0.827486
0.824134
0.82168
0.819159
0.81512
0.811383
0.808272
0.804878
0.801295
0.797136
0.793511
0.789957
0.786238
0.782701
0.778982
0.776144
0.77343
0.771691
0.770264
0.768051
0.76703
0.765344
0.763016
0.760077
0.756946
0.751859
0.746779
0.740473
0.734391
0.728932
0.723226
0.719574
0.715197
0.986554
0.986124
0.983404
0.982415
0.982617
0.984044
0.984424
0.983069
0.9793
0.977492
0.977657
0.978591
0.979126
0.979045
0.978199
0.976516
0.975333
0.974904
0.974313
0.97305
0.971838
0.970366
0.969539
0.969633
0.969687
0.969146
0.966424
0.96387
0.963479
0.963279
0.962549
0.960565
0.958523
0.957533
0.95589
0.953535
0.952819
0.952261
0.951254
0.949334
0.946221
0.943602
0.942377
0.941435
0.940029
0.937427
0.934401
0.931951
0.930079
0.928466
0.92682
0.924646
0.921834
0.918942
0.916632
0.914462
0.911831
0.908802
0.905628
0.902976