/*--------------------------------*- C++ -*----------------------------------*\
  =========                 |
  \\      /  F ield         | OpenFOAM: The Open Source CFD Toolbox
   \\    /   O peration     | Website:  https://openfoam.org
    \\  /    A nd           | Version:  7
     \\/     M anipulation  |
\*---------------------------------------------------------------------------*/
FoamFile
{
    version     2.0;
    format      ascii;
    class       volScalarField;
    location    "0.7";
    object      T;
}
// * * * * * * * * * * * * * * * * * * * * * * * * * * * * * * * * * * * * * //

dimensions      [0 0 0 1 0 0 0];

internalField   nonuniform List<scalar> 
11200
(
0.867301
1.01945
1.08735
1.12934
1.14949
1.16986
1.167
1.16098
1.14277
1.13859
1.13479
1.12511
1.10598
1.08662
1.07417
1.07549
1.08226
1.08367
1.0802
1.07184
1.06073
1.04466
1.02176
0.992596
0.967529
0.959642
0.960683
0.970356
0.987464
0.998347
0.505625
0.513606
0.57697
0.681671
0.824727
0.9374
1.02789
1.09526
1.1532
1.20976
1.22897
1.21575
1.20503
1.18317
1.15904
1.15958
1.17091
1.1704
1.16011
1.13921
1.11157
1.07858
1.03883
0.996712
0.967083
0.958346
0.959442
0.970035
0.987707
0.998435
0.500006
0.498021
0.495895
0.494319
0.494638
0.496808
0.548943
0.669099
0.859553
1.01645
1.14565
1.23166
1.27252
1.25401
1.2243
1.2157
1.20645
1.18632
1.16231
1.13601
1.1051
1.06789
1.02435
0.983771
0.961253
0.955484
0.957551
0.969844
0.988314
0.998595
0.492481
0.491322
0.490472
0.490312
0.489661
0.487647
0.48499
0.481857
0.478902
0.502363
0.664195
0.939487
1.13054
1.23265
1.23239
1.22066
1.19932
1.17799
1.15397
1.12452
1.09152
1.05324
1.0107
0.972781
0.953441
0.951314
0.955752
0.970907
0.989402
0.998783
0.490945
0.490602
0.489253
0.486883
0.484405
0.482493
0.481253
0.477983
0.477782
0.479125
0.48243
0.486592
0.582304
0.825846
1.00993
1.07643
1.10511
1.10304
1.09156
1.07269
1.0479
1.01744
0.983291
0.955474
0.945289
0.945623
0.953253
0.971527
0.990344
0.99898
0.486181
0.484893
0.483228
0.481
0.48003
0.480023
0.480397
0.483009
0.487757
0.495339
0.503112
0.511904
0.520602
0.529939
0.567058
0.673522
0.808193
0.901928
0.954895
0.977826
0.973833
0.964082
0.950719
0.93937
0.936441
0.938894
0.949889
0.970751
0.991327
0.999218
0.482418
0.48248
0.483333
0.486289
0.489142
0.490508
0.492543
0.496944
0.503635
0.511205
0.519749
0.528323
0.539457
0.551666
0.562918
0.577112
0.589994
0.629824
0.703087
0.783585
0.841728
0.87849
0.900089
0.910543
0.917375
0.926676
0.944773
0.972807
0.993114
0.999493
0.487165
0.488507
0.489966
0.491297
0.493457
0.497748
0.503878
0.511144
0.518295
0.523285
0.531609
0.542295
0.552756
0.564046
0.577849
0.59299
0.610968
0.626083
0.646796
0.671656
0.705883
0.749968
0.796951
0.841408
0.876197
0.909655
0.945243
0.977038
0.995382
0.999743
0.494954
0.498034
0.50239
0.507597
0.514468
0.521421
0.528658
0.535888
0.544868
0.556707
0.567484
0.579145
0.590862
0.603946
0.618515
0.633156
0.648437
0.666859
0.685433
0.702058
0.720242
0.744369
0.777928
0.821288
0.868941
0.911613
0.951876
0.983887
0.997684
0.999912
0.523719
0.52849
0.533917
0.540053
0.546568
0.553275
0.560682
0.568907
0.576943
0.586264
0.595632
0.605061
0.617275
0.630219
0.642729
0.656571
0.671475
0.686998
0.705412
0.726488
0.749056
0.773135
0.80188
0.838062
0.88041
0.925078
0.966095
0.991783
0.999264
0.999983
0.550712
0.555063
0.559877
0.565535
0.571096
0.577454
0.584339
0.591711
0.600001
0.607686
0.617103
0.628025
0.638628
0.650448
0.664654
0.680708
0.698386
0.716604
0.735916
0.758738
0.784633
0.81085
0.83754
0.868823
0.907641
0.950041
0.983374
0.997567
0.999886
0.999998
0.582906
0.58739
0.592741
0.598408
0.604756
0.61158
0.618924
0.627059
0.635893
0.645266
0.655258
0.666341
0.678153
0.691383
0.70621
0.721569
0.737933
0.756537
0.776803
0.798246
0.822222
0.849607
0.879694
0.912518
0.947814
0.979066
0.995832
0.999706
0.999993
1
0.616075
0.620504
0.625613
0.631208
0.637531
0.644418
0.651866
0.659695
0.667903
0.677405
0.687733
0.69848
0.710899
0.724596
0.738979
0.754839
0.772206
0.790892
0.811845
0.835831
0.862501
0.891452
0.922534
0.954254
0.981084
0.995791
0.999631
0.999989
1
1
0.652549
0.657031
0.662132
0.668003
0.67437
0.681362
0.689063
0.697573
0.70694
0.716626
0.727121
0.738977
0.751833
0.765817
0.781099
0.797546
0.81556
0.835642
0.857784
0.881902
0.908049
0.935858
0.963337
0.985414
0.996848
0.999718
0.999991
1
1
1
0.692689
0.697239
0.70264
0.708614
0.71531
0.722765
0.730938
0.73978
0.749242
0.759568
0.770819
0.783025
0.796353
0.810806
0.826476
0.843667
0.862581
0.88327
0.90563
0.929208
0.952953
0.974652
0.990565
0.998094
0.999838
0.999995
1
1
1
1
0.73781
0.7426
0.74818
0.754502
0.761573
0.769406
0.778018
0.787394
0.797528
0.808431
0.820189
0.832893
0.846618
0.861524
0.87776
0.895352
0.914139
0.9337
0.953225
0.971364
0.986117
0.995428
0.999177
0.999934
0.999998
1
1
1
1
1
0.789056
0.794147
0.800139
0.806906
0.814452
0.822791
0.831901
0.84174
0.852279
0.863516
0.875477
0.88824
0.90189
0.916417
0.931615
0.947057
0.962068
0.975723
0.986903
0.994586
0.998516
0.999774
0.999983
0.999999
1
1
1
1
1
1
0.84784
0.853292
0.859654
0.866763
0.874572
0.883032
0.892081
0.90165
0.911667
0.922071
0.932814
0.943818
0.954901
0.965721
0.975789
0.984538
0.991432
0.996132
0.998704
0.999715
0.999964
0.999997
1
1
1
1
1
1
1
1
0.911973
0.917114
0.923032
0.929483
0.936267
0.943244
0.950339
0.957479
0.964545
0.971395
0.977876
0.983813
0.988993
0.993204
0.996308
0.99831
0.999386
0.999836
0.99997
0.999997
1
1
1
1
1
1
1
1
1
1
0.967258
0.97062
0.974213
0.977823
0.981342
0.984705
0.987851
0.990706
0.993206
0.995307
0.996986
0.998235
0.999081
0.999587
0.999846
0.999954
0.99999
0.999998
1
1
1
1
1
1
1
1
1
1
1
1
0.994461
0.995417
0.996337
0.997167
0.997886
0.998485
0.998965
0.999332
0.999597
0.999776
0.999888
0.99995
0.999981
0.999994
0.999998
1
1
1
1
1
1
1
1
1
1
1
1
1
1
1
0.999718
0.999794
0.999855
0.999902
0.999937
0.999961
0.999978
0.999988
0.999994
0.999997
0.999999
1
1
1
1
1
1
1
1
1
1
1
1
1
1
1
1
1
1
1
0.999996
0.999998
0.999999
0.999999
0.999999
1
1
1
1
1
1
1
1
1
1
1
1
1
1
1
1
1
1
1
1
1
1
1
1
1
1
1
1
1
1
1
1
1
1
1
1
1
1
1
1
1
1
1
1
1
1
1
1
1
1
1
1
1
1
1
1
1
1
1
1
1
1
1
1
1
1
1
1
1
1
1
1
1
1
1
1
1
1
1
1
1
1
1
1
1
1
1
1
1
1
1
1
1
1
1
1
1
1
1
1
1
1
1
1
1
1
1
1
1
1
1
1
1
1
1
1
1
1
1
1
1
1
1
1
1
1
1
1
1
1
1
1
1
1
1
1
1
1
1
1
1
1
1
1
1
1
1
1
1
1
1
1
1
1
1
1
1
1
1
1
1
1
1
1
1
1
1
1
1
1
1
1
1
1
1
1
1
1
1
1
1
1
1
1
1
1
1
1
1
1
1
1
1
1
1
1
1
1
1
1
1
1
1
1
1
1
1
1
1
1
1
1
1
1
1
1
1
1
1
1
1
1
1
1
1
1
1
1
1
1
1
1
1
1
1
1
1
1
1
1
1
1
1
1
1
1
1
1
1
1
1
1
1
1
1
1
1
1
1
1
1
1
1
1
1
1
1
1
1
1
1
1
1
1
1
1
1
1
1
1
1
1
1
1
1
1
1
1
1
1
1
1
1
1
1
1
1
1
1
1
1
1
1
1
1
1
1
1
1
1
1
1
1
1
1
1
1
1
1
1
1
1
1
1
1
1
1
1
1
1
1
1
1
1
1
1
1
1
1
1
1
1
1
1
1
1
1
1
1
1
1
1
1
1
1
1
1
1
1
1
1
1
1
1
1
1
1
1
1
1
1
1
1
1
1
1
1
1
1
1
1
1
1
1
1
0.513673
0.509851
0.501904
0.493726
0.491579
0.487718
0.482505
0.485944
0.491769
0.518325
0.545465
0.57759
0.61099
0.647265
0.687389
0.732266
0.783168
0.841496
0.905831
0.962991
0.993075
0.999569
0.999992
1
1
1
1
1
1
1
1
1
1
1
1
0.513217
0.509045
0.500724
0.492967
0.491408
0.487563
0.482603
0.48633
0.492622
0.519967
0.547047
0.579095
0.612494
0.648792
0.688906
0.733806
0.784662
0.842733
0.906461
0.963048
0.993101
0.999594
0.999993
1
1
1
1
1
1
1
1
1
1
1
1
0.513292
0.508883
0.500457
0.493001
0.491706
0.488645
0.482821
0.4859
0.492066
0.519045
0.545823
0.577921
0.611368
0.647694
0.687782
0.732584
0.783201
0.84073
0.90351
0.960219
0.991938
0.999465
0.99999
1
1
1
1
1
1
1
1
1
1
1
1
0.513131
0.508638
0.500081
0.492959
0.491843
0.489283
0.483062
0.485761
0.491889
0.518793
0.545421
0.577584
0.611086
0.647455
0.687564
0.732342
0.782846
0.840148
0.902547
0.959005
0.991327
0.999388
0.999988
1
1
1
1
1
1
1
1
1
1
1
1
0.513045
0.508367
0.499654
0.492876
0.492008
0.489905
0.483365
0.485671
0.491765
0.518636
0.545212
0.577524
0.611429
0.648639
0.689659
0.734587
0.784123
0.84014
0.901948
0.958051
0.990731
0.999297
0.999985
1
1
1
1
1
1
1
1
1
1
1
1
0.512928
0.508107
0.499329
0.492835
0.492178
0.49039
0.483656
0.485656
0.491758
0.519049
0.546949
0.582353
0.620512
0.66169
0.705027
0.749634
0.795949
0.846296
0.902863
0.957615
0.990293
0.999215
0.999982
1
1
1
1
1
1
1
1
1
1
1
1
0.512798
0.507916
0.499167
0.492843
0.492453
0.491129
0.48427
0.486672
0.494715
0.527119
0.561859
0.603666
0.645659
0.687585
0.729778
0.772644
0.816334
0.86192
0.910478
0.958388
0.990069
0.999144
0.999979
1
1
1
1
1
1
1
1
1
1
1
1
0.512708
0.507874
0.499266
0.49399
0.494436
0.495381
0.490059
0.49682
0.511917
0.550373
0.588414
0.629974
0.669678
0.708675
0.748081
0.789535
0.832758
0.877274
0.922114
0.962996
0.990305
0.999106
0.999977
1
1
1
1
1
1
1
1
1
1
1
1
0.512902
0.509237
0.503511
0.504323
0.506915
0.512606
0.515123
0.524253
0.538071
0.573648
0.608184
0.645932
0.682432
0.71964
0.757952
0.798934
0.843062
0.888396
0.932248
0.969237
0.991812
0.999144
0.999975
1
1
1
1
1
1
1
1
1
1
1
1
0.518368
0.520291
0.519187
0.525909
0.530519
0.537625
0.546669
0.551869
0.559001
0.587789
0.616866
0.651469
0.686204
0.723185
0.762557
0.804217
0.849785
0.896866
0.940815
0.975106
0.993878
0.999358
0.999979
1
1
1
1
1
1
1
1
1
1
1
1
0.538455
0.541724
0.538673
0.546275
0.551192
0.55841
0.566142
0.566913
0.572731
0.594783
0.618867
0.652022
0.686326
0.723337
0.76376
0.807462
0.854677
0.904125
0.949023
0.980936
0.996029
0.999666
0.99999
1
1
1
1
1
1
1
1
1
1
1
1
0.560653
0.561199
0.555335
0.562289
0.566641
0.572475
0.575013
0.573968
0.578958
0.597866
0.619185
0.651952
0.686204
0.723045
0.763487
0.808736
0.858188
0.910617
0.957382
0.987199
0.998388
1.00003
1.00001
1
1
1
1
1
1
1
1
1
1
1
1
0.575689
0.575344
0.569093
0.575542
0.579431
0.582887
0.581136
0.578422
0.581877
0.600053
0.620054
0.652588
0.686385
0.723021
0.763318
0.80871
0.860453
0.91658
0.966055
0.993928
1.00091
1.00043
1.00003
1
1
1
1
1
1
1
1
1
1
1
1
0.586165
0.584788
0.578733
0.585396
0.589749
0.592104
0.58794
0.583799
0.585742
0.603796
0.62279
0.655067
0.687754
0.723588
0.763478
0.808896
0.862267
0.922824
0.975517
1.00078
1.00319
1.00094
1.00005
1
1
1
1
1
1
1
1
1
1
1
1
0.593594
0.589332
0.582808
0.588709
0.594057
0.595994
0.592681
0.589156
0.591319
0.60983
0.627736
0.659303
0.690859
0.725452
0.764257
0.809327
0.864795
0.930929
0.986391
1.0068
1.0053
1.00139
1.00008
1
1
1
1
1
1
1
1
1
1
1
1
0.596587
0.589699
0.583909
0.588781
0.593974
0.595382
0.593759
0.591522
0.595513
0.615459
0.631605
0.66228
0.692915
0.726253
0.763411
0.808818
0.869558
0.942776
0.998271
1.01116
1.00752
1.00182
1.0001
1
1
1
1
1
1
1
1
1
1
1
1
0.596757
0.588201
0.587017
0.590712
0.594171
0.591215
0.589839
0.587139
0.594635
0.617194
0.630304
0.65657
0.683479
0.716967
0.756982
0.807043
0.879108
0.958858
1.00906
1.01463
1.0096
1.0022
1.00011
1
1
1
1
1
1
1
1
1
1
1
1
0.597662
0.589514
0.597097
0.597041
0.59451
0.579069
0.566314
0.554701
0.5593
0.584116
0.60223
0.635468
0.672453
0.712388
0.757
0.817389
0.895808
0.9765
1.01709
1.01816
1.01167
1.00247
1.00011
1
1
1
1
1
1
1
1
1
1
1
1
0.606129
0.598792
0.609697
0.600324
0.576874
0.540574
0.520203
0.508331
0.515668
0.551228
0.584748
0.628246
0.671758
0.717268
0.769782
0.834153
0.915425
0.992565
1.02276
1.02279
1.01357
1.00259
1.00011
1
1
1
1
1
1
1
1
1
1
1
1
0.621888
0.613223
0.617254
0.598413
0.543439
0.49522
0.478895
0.47724
0.494279
0.537898
0.578574
0.625872
0.673745
0.724788
0.783412
0.852393
0.934705
1.00643
1.02849
1.0275
1.01495
1.00256
1.0001
1
1
1
1
1
1
1
1
1
1
1
1
0.640811
0.629051
0.618585
0.583893
0.513596
0.46306
0.45097
0.458945
0.485791
0.5291
0.572736
0.621785
0.674995
0.73459
0.797183
0.868769
0.953912
1.01957
1.0352
1.03198
1.01553
1.00229
1.00007
1
1
1
1
1
1
1
1
1
1
1
1
0.655078
0.641743
0.615862
0.561306
0.489615
0.441461
0.436943
0.445343
0.481155
0.523059
0.569885
0.621658
0.683782
0.745835
0.809363
0.885879
0.974833
1.03294
1.0423
1.03589
1.01546
1.00191
1.00005
1
1
1
1
1
1
1
1
1
1
1
1
0.659852
0.645129
0.608973
0.533369
0.467162
0.42867
0.43124
0.442332
0.480415
0.522605
0.571822
0.630409
0.692012
0.753546
0.822082
0.907585
0.997573
1.04551
1.04915
1.03883
1.01439
1.00143
1.00003
1
1
1
1
1
1
1
1
1
1
1
1
0.651741
0.630777
0.581226
0.504376
0.442581
0.423512
0.430611
0.447547
0.492438
0.531377
0.581171
0.63809
0.698914
0.764684
0.842608
0.933447
1.01968
1.05621
1.05598
1.04044
1.01268
1.001
1.00002
1
1
1
1
1
1
1
1
1
1
1
1
0.612482
0.591572
0.541647
0.476884
0.428429
0.422993
0.438817
0.456604
0.500429
0.539688
0.589778
0.649086
0.714801
0.7898
0.870078
0.960467
1.03957
1.06542
1.06276
1.04082
1.01037
1.00063
1.00001
1
1
1
1
1
1
1
1
1
1
1
1
0.575921
0.561866
0.514082
0.458759
0.426395
0.425599
0.444841
0.463883
0.502787
0.548276
0.605299
0.674286
0.746118
0.816712
0.894621
0.98666
1.05816
1.07434
1.0682
1.03891
1.00776
1.00035
1
1
1
1
1
1
1
1
1
1
1
1
1
0.557982
0.5388
0.498976
0.453401
0.430491
0.428366
0.445417
0.477687
0.519108
0.57393
0.638085
0.702748
0.766777
0.835274
0.918473
1.01356
1.07571
1.08296
1.072
1.03526
1.00544
1.00019
1
1
1
1
1
1
1
1
1
1
1
1
1
0.554233
0.534574
0.494578
0.454244
0.442246
0.438097
0.44707
0.498136
0.549677
0.600713
0.656338
0.715888
0.779776
0.854585
0.947014
1.04163
1.09041
1.09162
1.07364
1.02984
1.00333
1.00009
1
1
1
1
1
1
1
1
1
1
1
1
1
0.560881
0.54254
0.49828
0.46205
0.451614
0.455153
0.470749
0.51694
0.561111
0.609251
0.665506
0.728027
0.799283
0.884004
0.980171
1.06841
1.1017
1.09932
1.07093
1.02259
1.00185
1.00004
1
1
1
1
1
1
1
1
1
1
1
1
1
0.5918
0.565021
0.512984
0.475771
0.453422
0.461476
0.483372
0.521625
0.563132
0.614945
0.677714
0.753121
0.835963
0.920181
1.01535
1.0918
1.11096
1.10411
1.06598
1.01602
1.00092
1.00001
1
1
1
1
1
1
1
1
1
1
1
1
1
0.617373
0.581673
0.53062
0.483763
0.453103
0.457855
0.486006
0.520659
0.561821
0.629806
0.716034
0.797787
0.87245
0.955735
1.04946
1.11196
1.11973
1.10615
1.05619
1.00963
1.00038
1
1
1
1
1
1
1
1
1
1
1
1
1
1
0.63018
0.59143
0.538188
0.484591
0.451233
0.448212
0.487362
0.528809
0.597737
0.682343
0.759447
0.829212
0.903664
0.992185
1.082
1.12838
1.12833
1.10388
1.04364
1.00533
1.00015
1
1
1
1
1
1
1
1
1
1
1
1
1
1
0.640376
0.599049
0.535025
0.470335
0.449681
0.453137
0.506836
0.57837
0.647309
0.713794
0.782819
0.855606
0.936991
1.02997
1.11177
1.13961
1.13452
1.09701
1.03123
1.00251
1.00005
1
1
1
1
1
1
1
1
1
1
1
1
1
1
0.653314
0.603495
0.509729
0.440781
0.448823
0.486434
0.546467
0.603546
0.665021
0.731801
0.806367
0.889576
0.976867
1.06826
1.1351
1.14705
1.13622
1.08334
1.0187
1.00101
1.00002
1
1
1
1
1
1
1
1
1
1
1
1
1
1
0.658891
0.605669
0.488078
0.429817
0.455695
0.508817
0.557805
0.610935
0.675678
0.756107
0.848936
0.934677
1.01851
1.10395
1.15034
1.15155
1.13054
1.06431
1.01011
1.00037
1
1
1
1
1
1
1
1
1
1
1
1
1
1
1
0.65811
0.588978
0.470034
0.427462
0.457369
0.513941
0.560067
0.61574
0.703377
0.811591
0.900424
0.977489
1.05998
1.13341
1.15953
1.15498
1.1201
1.04626
1.00482
1.00012
1
1
1
1
1
1
1
1
1
1
1
1
1
1
1
0.649224
0.551914
0.452308
0.426535
0.453861
0.509572
0.567637
0.668115
0.776452
0.86453
0.940336
1.01913
1.09981
1.15569
1.16664
1.15696
1.10494
1.02813
1.00187
1.00003
1
1
1
1
1
1
1
1
1
1
1
1
1
1
1
0.639272
0.522718
0.444007
0.436045
0.476124
0.551793
0.646531
0.739228
0.823685
0.900746
0.981644
1.06493
1.13508
1.16995
1.1711
1.15202
1.08068
1.01467
1.00064
1.00001
1
1
1
1
1
1
1
1
1
1
1
1
1
1
1
0.625727
0.512426
0.440241
0.478054
0.532079
0.619431
0.700301
0.77677
0.85744
0.946246
1.03532
1.10864
1.16142
1.17639
1.1729
1.13548
1.05505
1.00654
1.00019
1
1
1
1
1
1
1
1
1
1
1
1
1
1
1
1
0.616237
0.511131
0.450437
0.516638
0.576597
0.652659
0.727872
0.810832
0.909484
1.01004
1.08572
1.14424
1.17628
1.17926
1.16725
1.11234
1.03325
1.00255
1.00005
1
1
1
1
1
1
1
1
1
1
1
1
1
1
1
1
0.603066
0.505497
0.486049
0.536614
0.596159
0.676763
0.764102
0.876225
0.984981
1.06589
1.12643
1.16907
1.18276
1.1807
1.15706
1.08749
1.01713
1.00083
1.00001
1
1
1
1
1
1
1
1
1
1
1
1
1
1
1
1
0.578462
0.450754
0.494363
0.539707
0.609872
0.725063
0.852501
0.961958
1.04539
1.10979
1.15825
1.18262
1.18567
1.1792
1.14156
1.05806
1.00728
1.00023
1
1
1
1
1
1
1
1
1
1
1
1
1
1
1
1
1
0.576885
0.425253
0.491559
0.551715
0.677593
0.834236
0.940492
1.02534
1.0949
1.14727
1.1784
1.18754
1.18693
1.17364
1.11383
1.03257
1.00249
1.00005
1
1
1
1
1
1
1
1
1
1
1
1
1
1
1
1
1
0.617792
0.490325
0.494866
0.633871
0.806599
0.921525
1.00637
1.08085
1.14063
1.17364
1.18747
1.18852
1.18633
1.15723
1.0819
1.01536
1.00074
1.00001
1
1
1
1
1
1
1
1
1
1
1
1
1
1
1
1
1
0.577853
0.491173
0.586497
0.778125
0.898059
0.99398
1.07253
1.13386
1.17296
1.18667
1.19026
1.18898
1.17854
1.13487
1.05349
1.00617
1.00018
1
1
1
1
1
1
1
1
1
1
1
1
1
1
1
1
1
1
0.434198
0.514945
0.734407
0.878443
0.982238
1.07262
1.13289
1.16902
1.18927
1.19063
1.19091
1.18821
1.16867
1.10857
1.02817
1.00191
1.00004
1
1
1
1
1
1
1
1
1
1
1
1
1
1
1
1
1
1
0.333825
0.643128
0.852092
0.980466
1.07627
1.13683
1.16979
1.18662
1.19477
1.19084
1.19099
1.1871
1.1539
1.07085
1.01077
1.00042
1.00001
1
1
1
1
1
1
1
1
1
1
1
1
1
1
1
1
1
1
0.270191
0.730515
0.972803
1.08511
1.14294
1.1737
1.18746
1.1936
1.19554
1.18831
1.18799
1.17423
1.12012
1.03724
1.00305
1.00007
1
1
1
1
1
1
1
1
1
1
1
1
1
1
1
1
1
1
1
0.552458
0.918778
1.09174
1.1541
1.17806
1.18953
1.19376
1.19533
1.19379
1.18548
1.18492
1.15805
1.08588
1.01637
1.00074
1.00001
1
1
1
1
1
1
1
1
1
1
1
1
1
1
1
1
1
1
1
0.923793
1.0999
1.16839
1.18545
1.19071
1.19421
1.1953
1.19546
1.19061
1.18306
1.18399
1.13769
1.04639
1.00392
1.00008
1
1
1
1
1
1
1
1
1
1
1
1
1
1
1
1
1
1
1
1
1.19408
1.19273
1.19164
1.1922
1.19333
1.19554
1.19543
1.19424
1.18718
1.18324
1.17784
1.09741
1.01207
0.999785
0.999987
1
1
1
1
1
1
1
1
1
1
1
1
1
1
1
1
1
1
1
1
1.19428
1.19288
1.19173
1.19186
1.19274
1.19504
1.19531
1.19517
1.18881
1.18358
1.18059
1.11171
1.02149
1.00058
1
1
1
1
1
1
1
1
1
1
1
1
1
1
1
1
1
1
1
1
1
1.19427
1.19293
1.19178
1.19195
1.19272
1.19499
1.19532
1.19526
1.18895
1.18328
1.17978
1.10943
1.02018
1.00052
1
1
1
1
1
1
1
1
1
1
1
1
1
1
1
1
1
1
1
1
1
1.19427
1.19294
1.19179
1.19198
1.19269
1.19492
1.19533
1.19537
1.18916
1.18314
1.17928
1.10807
1.01946
1.00049
1
1
1
1
1
1
1
1
1
1
1
1
1
1
1
1
1
1
1
1
1
1.19415
1.19292
1.19177
1.19199
1.19265
1.19485
1.19535
1.19547
1.18938
1.183
1.17876
1.10659
1.01867
1.00045
1
1
1
1
1
1
1
1
1
1
1
1
1
1
1
1
1
1
1
1
1
1.19333
1.19238
1.19136
1.19185
1.19244
1.19472
1.19534
1.19553
1.18951
1.18289
1.1783
1.10522
1.01794
1.00042
1
1
1
1
1
1
1
1
1
1
1
1
1
1
1
1
1
1
1
1
1
1.19076
1.19041
1.18976
1.19049
1.1912
1.19396
1.19506
1.19553
1.18955
1.18281
1.17789
1.10398
1.01727
1.0004
1
1
1
1
1
1
1
1
1
1
1
1
1
1
1
1
1
1
1
1
1
1.18773
1.18765
1.18703
1.1876
1.18853
1.19171
1.19366
1.19489
1.18934
1.18265
1.17741
1.10288
1.01669
1.00037
1
1
1
1
1
1
1
1
1
1
1
1
1
1
1
1
1
1
1
1
1
1.18561
1.18529
1.18453
1.18485
1.18572
1.18873
1.19094
1.19266
1.18787
1.18185
1.17651
1.10188
1.01623
1.00035
1
1
1
1
1
1
1
1
1
1
1
1
1
1
1
1
1
1
1
1
1
1.1844
1.18371
1.18285
1.18306
1.18377
1.18629
1.18801
1.18959
1.18532
1.17997
1.1746
1.1007
1.01586
1.00034
1
1
1
1
1
1
1
1
1
1
1
1
1
1
1
1
1
1
1
1
1
1.18374
1.18272
1.18183
1.18206
1.18257
1.18461
1.18569
1.18687
1.18293
1.17756
1.17161
1.09873
1.01543
1.00033
1
1
1
1
1
1
1
1
1
1
1
1
1
1
1
1
1
1
1
1
1
1.1833
1.18204
1.18118
1.1815
1.18178
1.18337
1.18395
1.18476
1.18099
1.1749
1.1678
1.09552
1.01474
1.00031
1
1
1
1
1
1
1
1
1
1
1
1
1
1
1
1
1
1
1
1
1
1.18285
1.1815
1.18071
1.18108
1.18118
1.18229
1.18258
1.18306
1.1793
1.17202
1.16347
1.09119
1.01366
1.00029
1
1
1
1
1
1
1
1
1
1
1
1
1
1
1
1
1
1
1
1
1
1.18237
1.18102
1.18026
1.18064
1.18064
1.18142
1.18143
1.18155
1.1777
1.16913
1.15898
1.08598
1.01222
1.00025
1
1
1
1
1
1
1
1
1
1
1
1
1
1
1
1
1
1
1
1
1
1.18185
1.18056
1.17984
1.18012
1.17997
1.18066
1.18036
1.18017
1.17636
1.16653
1.15439
1.07996
1.0105
1.0002
1
1
1
1
1
1
1
1
1
1
1
1
1
1
1
1
1
1
1
1
1
1.18117
1.1801
1.17958
1.17962
1.17922
1.1796
1.17915
1.17904
1.17549
1.16432
1.14945
1.07313
1.00863
1.00015
1
1
1
1
1
1
1
1
1
1
1
1
1
1
1
1
1
1
1
1
1
1.18022
1.17967
1.17952
1.17942
1.17876
1.17839
1.1778
1.17814
1.17487
1.16242
1.14396
1.06552
1.00675
1.00011
1
1
1
1
1
1
1
1
1
1
1
1
1
1
1
1
1
1
1
1
1
1.17932
1.17947
1.1797
1.1794
1.1785
1.17752
1.17661
1.17738
1.17433
1.16061
1.13782
1.05725
1.00501
1.00007
1
1
1
1
1
1
1
1
1
1
1
1
1
1
1
1
1
1
1
1
1
1.17895
1.17952
1.18015
1.17948
1.17836
1.17701
1.17571
1.17684
1.17387
1.15886
1.13083
1.04847
1.0035
1.00004
1
1
1
1
1
1
1
1
1
1
1
1
1
1
1
1
1
1
1
1
1
1.17899
1.17983
1.18077
1.17996
1.17849
1.17676
1.17479
1.17671
1.17369
1.15728
1.12267
1.03942
1.00229
1.00002
1
1
1
1
1
1
1
1
1
1
1
1
1
1
1
1
1
1
1
1
1
1.17955
1.18063
1.18184
1.18105
1.17937
1.17665
1.17442
1.1768
1.1737
1.15569
1.11311
1.03045
1.00138
1.00001
1
1
1
1
1
1
1
1
1
1
1
1
1
1
1
1
1
1
1
1
1
1.18061
1.18187
1.18335
1.18262
1.18082
1.17711
1.17434
1.17705
1.1738
1.15363
1.10193
1.02201
1.00076
1.00001
1
1
1
1
1
1
1
1
1
1
1
1
1
1
1
1
1
1
1
1
1
1.1818
1.18299
1.18432
1.18367
1.18216
1.17822
1.17484
1.17755
1.17421
1.15058
1.08875
1.01461
1.00038
1
1
1
1
1
1
1
1
1
1
1
1
1
1
1
1
1
1
1
1
1
1
1.18302
1.18383
1.18495
1.18456
1.18328
1.17966
1.17624
1.17828
1.1751
1.14587
1.07322
1.00871
1.00017
1
1
1
1
1
1
1
1
1
1
1
1
1
1
1
1
1
1
1
1
1
1
1.18456
1.1846
1.18563
1.18558
1.18471
1.18181
1.17807
1.17904
1.17621
1.13831
1.05586
1.00455
1.00006
1
1
1
1
1
1
1
1
1
1
1
1
1
1
1
1
1
1
1
1
1
1
1.186
1.18532
1.1863
1.18646
1.18599
1.18489
1.18148
1.17949
1.17664
1.12698
1.03837
1.00206
1.00002
1
1
1
1
1
1
1
1
1
1
1
1
1
1
1
1
1
1
1
1
1
1
1.18793
1.18673
1.187
1.18713
1.18685
1.18814
1.18613
1.18034
1.17316
1.11062
1.02304
1.00079
1.00001
1
1
1
1
1
1
1
1
1
1
1
1
1
1
1
1
1
1
1
1
1
1
1.19112
1.1892
1.18799
1.18774
1.18865
1.1925
1.1917
1.18246
1.16575
1.0877
1.01161
1.00025
1
1
1
1
1
1
1
1
1
1
1
1
1
1
1
1
1
1
1
1
1
1
1
1.19436
1.1929
1.19143
1.19026
1.19344
1.19779
1.19679
1.18406
1.15349
1.05969
1.00469
1.00007
1
1
1
1
1
1
1
1
1
1
1
1
1
1
1
1
1
1
1
1
1
1
1
1.19746
1.19671
1.19566
1.19574
1.19693
1.2015
1.20084
1.18467
1.13226
1.03329
1.00148
1.00001
1
1
1
1
1
1
1
1
1
1
1
1
1
1
1
1
1
1
1
1
1
1
1
1.20026
1.19992
1.19917
1.19938
1.19889
1.20312
1.20319
1.17732
1.10084
1.0148
1.00037
1
1
1
1
1
1
1
1
1
1
1
1
1
1
1
1
1
1
1
1
1
1
1
1
1.20196
1.20158
1.2013
1.20216
1.2003
1.2036
1.20463
1.16339
1.0622
1.00492
1.00007
1
1
1
1
1
1
1
1
1
1
1
1
1
1
1
1
1
1
1
1
1
1
1
1
1.20245
1.20193
1.20217
1.20488
1.20348
1.20292
1.20033
1.13151
1.03007
1.00125
1.00001
1
1
1
1
1
1
1
1
1
1
1
1
1
1
1
1
1
1
1
1
1
1
1
1
1.20245
1.20131
1.20205
1.2069
1.20924
1.20084
1.17976
1.09164
1.01172
1.00026
1
1
1
1
1
1
1
1
1
1
1
1
1
1
1
1
1
1
1
1
1
1
1
1
1
1.20198
1.2006
1.2001
1.20808
1.21166
1.20126
1.15538
1.0504
1.00318
1.00004
1
1
1
1
1
1
1
1
1
1
1
1
1
1
1
1
1
1
1
1
1
1
1
1
1
1.20102
1.20008
1.19921
1.20847
1.21204
1.19166
1.11686
1.0214
1.0007
1.00001
1
1
1
1
1
1
1
1
1
1
1
1
1
1
1
1
1
1
1
1
1
1
1
1
1
1.20044
1.20078
1.1996
1.2087
1.2121
1.17207
1.07562
1.00714
1.00013
1
1
1
1
1
1
1
1
1
1
1
1
1
1
1
1
1
1
1
1
1
1
1
1
1
1
1.20002
1.20388
1.20582
1.2089
1.20912
1.14332
1.03578
1.00166
1.00002
1
1
1
1
1
1
1
1
1
1
1
1
1
1
1
1
1
1
1
1
1
1
1
1
1
1
1.19916
1.20623
1.21239
1.20564
1.19227
1.0943
1.01178
1.00028
1
1
1
1
1
1
1
1
1
1
1
1
1
1
1
1
1
1
1
1
1
1
1
1
1
1
1
1.1991
1.20848
1.21514
1.2023
1.15618
1.04836
1.00292
1.00004
1
1
1
1
1
1
1
1
1
1
1
1
1
1
1
1
1
1
1
1
1
1
1
1
1
1
1
1.19885
1.20941
1.21673
1.19362
1.1086
1.01732
1.00049
1
1
1
1
1
1
1
1
1
1
1
1
1
1
1
1
1
1
1
1
1
1
1
1
1
1
1
1
1.20467
1.21191
1.21705
1.16893
1.05694
1.00387
1.00006
1
1
1
1
1
1
1
1
1
1
1
1
1
1
1
1
1
1
1
1
1
1
1
1
1
1
1
1
1.22026
1.21217
1.20266
1.11584
1.02174
1.00075
1.00001
1
1
1
1
1
1
1
1
1
1
1
1
1
1
1
1
1
1
1
1
1
1
1
1
1
1
1
1
1.24073
1.19568
1.17097
1.0594
1.00456
1.00008
1
1
1
1
1
1
1
1
1
1
1
1
1
1
1
1
1
1
1
1
1
1
1
1
1
1
1
1
1
1.25512
1.17607
1.11311
1.02168
1.00085
1.00001
1
1
1
1
1
1
1
1
1
1
1
1
1
1
1
1
1
1
1
1
1
1
1
1
1
1
1
1
1
1.25944
1.14938
1.05685
1.00515
1.00012
1
1
1
1
1
1
1
1
1
1
1
1
1
1
1
1
1
1
1
1
1
1
1
1
1
1
1
1
1
1
1.23508
1.10498
1.02348
1.0011
1.00002
1
1
1
1
1
1
1
1
1
1
1
1
1
1
1
1
1
1
1
1
1
1
1
1
1
1
1
1
1
1
1.19213
1.06485
1.00699
1.00017
1
1
1
1
1
1
1
1
1
1
1
1
1
1
1
1
1
1
1
1
1
1
1
1
1
1
1
1
1
1
1
1.13353
1.02633
1.0013
1.00002
1
1
1
1
1
1
1
1
1
1
1
1
1
1
1
1
1
1
1
1
1
1
1
1
1
1
1
1
1
1
1
1.05484
1.00534
1.00009
1
1
1
1
1
1
1
1
1
1
1
1
1
1
1
1
1
1
1
1
1
1
1
1
1
1
1
1
1
1
1
1
1
1
1
1
1
1
1
1
1
1
1
1
1
1
1
1
1
1
1
1
1
1
1
1
1
1
1
1
1
1
1
1
1
1
1
1
1
1
1
1
1
1
1
1
1
1
1
1
1
1
1
1
1
1
1
1
1
1
1
1
1
1
1
1
1
1
1
1
1
1
1
1
1
1
1
1
1
1
1
1
1
1
1
1
1
1
1
1
1
1
1
1
1
1
1
1
1
1
1
1
1
1
1
1
1
1
1
1
1
1
1
1
1
1
1
1
1
1
1
1
1
1
1
1
1
1
1
1
1
1
1
1
1
1
1
1
1
1
1
1
1
1
1
1
1
1
1
1
1
1
1
1
1
1
1
1
1
1
1
1
1
1
1
1
1
1
1
1
1
1
1
1
1
1
1
1
1
1
1
1
1
1
1
1
1
1
1
1
1
1
1
1
1
1
1
1
1
1
1
1
1
1
1
1
1
1
1
1
1
1
1
1
1
1
1
1
1
1
1
1
1
1
1
1
1
1
1
1
1
1
1
1
1
1
1
1
1
1
1
1
1
1
1
1
1
1
1
1
1
1
1
1
1
1
1
1
1
1
1
1
1
1
1
1
1
1
1
1
1
1
1
1
1
1
1
1
1
1
1
1
1
1
1
1
1
1
1
1
1
1
1
1
1
1
1
1
1
1
1
1
1
1
1
1
1
1
1
1
1
1
1
1
1
1
1
1
1
1
1
1
1
1
1
1
1
1
1
1
1
1
1
1
1
1
1
1
1
1
1
1
1
1
1
1
1
1
1
1
1
1
1
1
1
1
1
1
1
1
1
1
1
1
1
1
1
1
1
1
1
1
1
1
1
1
1
1
1
1
1
1
1
1
1
1
1
1
1
1
1
1
1
1
1
1
1
1
1
1
1
1
1
1
1
1
1
1
1
1
1
1
1
1
1
1
1
1
1
1
1
1
1
1
1
1
1
1
1
1
1
1
1
1
1
1
1
1
1
1
1
1
1
1
1
1
1
1
1
1
1
1
1
1
1
1
1
1
1
1
1
1
1
1
1
1
1
1
1
1
1
1
1
1
1
1
1
1
1
1
1
1
1
1
1
1
1
1
1
1
1
1
1
1
1
1
1
1
1
1
1
1
1
1
1
1
1
1
1
1
1
1
1
1
1
1
1
1
1
1
1
1
1
1
1
1
1
1
1
1
1
1
1
1
1
1
1
1
1
1
1
1
1
1
1
1
1
1
1
1
1
1
1
1
1
1
1
1
1
1
1
1
1
1
1
1
1
1
1
1
1
1
1
1
1
1
1
1
1
1
1
1
1
1
1
1
1
1
1
1
1
1
1
1
1
1
1
1
1
1
1
1
1
1
1
1
1
1
1
1
1
1
1
1
1
1
1
1
1
1
1
1
1
1
1
1
1
1
1
1
1
1
1
1
1
1
1
1
1
1
1
1
1
1
1
1
1
1
1
1
1
1
1
1
1
1
1
1
1
1
1
1
1
1
1
1
1
1
1
1
1
1
1
1
1
1
1
1
1
1
1
1
1
1
1
1
1
1
1
1
1
1
1
1
1
1
1
1
1
1
1
1
1
1
1
1
1
1
1
1
1
1
1
1
1
1
1
1
1
1
1
1
1
1
1
1
1
1
1
1
1
1
1
1
1
1
1
1
1
1
1
1
1
1
1
1
1
1
1
1
1
1
1
1
1
1
1
1
1
1
1
1
1
1
1
1
1
1
1
1
1
1
1
1
1
1
1
1
1
1
1
1
1
1
1
1
1
1
1
1
1
1
1
1
1
1
1
1
1
1
1
1
1
1
1
1
1
1
1
1
1
1
1
1
1
1
1
1
1
1
1
1
1
1
1
1
1
1
1
1
1
1
1
1
1
1
1
1
1
1
1
1
1
1
1
1
1
1
1
1
1
1
1
1
1
1
1
1
1
1
1
1
1
1
1
1
1
1
1
1
1
1
1
1
1
1
1
1
1
1
1
1
1
1
1
1
1
1
1
1
1
1
1
1
1
1
1
1
1
1
1
1
1
1
1
1
1
1
1
1
1
1
1
1
1
1
1
1
1
1
1
1
1
1
1
1
1
1
1
1
1
1
1
1
1
1
1
1
1
1
1
1
1
1
1
1
1
1
1
1
1
1
1
1
1
1
1
1
1
1
1
1
1
1
1
1
1
1
1
1
1
1
1
1
1
1
1
1
1
1
1
1
1
1
1
1
1
1
1
1
1
1
1
1
1
1
1
1
1
1
1
1
1
1
1
1
1
1
1
1
1
1
1
1
1
1
1
1
1
1
1
1
1
1
1
1
1
1
1
1
1
1
1
1
1
1
1
1
1
1
1
1
1
1
1
1
1
1
1
1
1
1
1
1
1
1
1
1
1
1
1
1
1
1
1
1
1
1
1
1
1
1
1
1
1
1
1
1
1
1
1
1
1
1
1
1
1
1
1
1
1
1
1
1
1
1
1
1
1
1
1
1
1
1
1
1
1
1
1
1
1
1
1
1
1
1
1
1
1
1
1
1
1
1
1
1
1
1
1
1
1
1
1
1
1
1
1
1
1
1
1
1
1
1
1
1
1
1
1
1
1
1
1
1
1
1
1
1
1
1
1
1
1
1
1
1
1
1
1
1
1
1
1
1
1
1
1
1
1
1
1
1
1
1
1
1
1
1
1
1
1
1
1
1
1
1
1
1
1
1
1
1
1
1
1
1
1
1
1
1
1
1
1
1
1
1
1
1
1
1
1
1
1
1
1
1
1
1
1
1
1
1
1
1
1
1
1
1
1
1
1
1
1
1
1
1
1
1
1
1
1
1
1
1
1
1
1
1
1
1
1
1
1
1
1
1
1
1
1
1
1
1
1
1
1
1
1
1
1
1
1
1
1
1
1
1
1
1
1
1
1
1
1
1
1
1
1
1
1
1
1
1
1
1
1
1
1
1
1
1
1
1
1
1
1
1
1
1
1
1
1
1
1
1
1
1
1
1
1
1
1
1
1
1
1
1
1
1
1
1
1
1
1
1
1
1
1
1
1
1
1
1
1
1
1
1
1
1
1
1
1
1
1
1
1
1
1
1
1
1
1
1
1
1
1
1
1
1
1
1
1
1
1
1
1
1
1
1
1
1
1
1
1
1
1
1
1
1
1
1
1
1
1
1
1
1
1
1
1
1
1
1
1
1
1
1
1
1
1
1
1
1
1
1
1
1
1
1
1
1
1
1
1
1
1
1
1
1
1
1
1
1
1
1
1
1
1
1
1
1
1
1
1
1
1
1
1
1
1
1
1
1
1
1
1
1
1
1
1
1
1
1
1
1
1
1
1
1
1
1
1
1
1
1
1
1
1
1
1
1
1
1
1
1
1
1
1
1
1
1
1
1
1
1
1
1
1
1
1
1
1
1
1
1
1
1
1
1
1
1
1
1
1
1
1
1
1
1
1
1
1
1
1
1
1
1
1
1
1
1
1
1
1
1
1
1
1
1
1
1
1
1
1
1
1
1
1
1
1
1
1
1
1
1
1
1
1
1
1
1
1
1
1
1
1
1
1
1
1
1
1
1
1
1
1
1
1
1
1
1
1
1
1
1
1
1
1
1
1
1
1
1
1
1
1
1
1
1
1
1
1
1
1
1
1
1
1
1
1
1
1
1
1
1
1
1
1
1
1
1
1
1
1
1
1
1
1
1
1
1
1
1
1
1
1
1
1
1
1
1
1
1
1
1
1
1
1
1
1
1
1
1
1
1
1
1
1
1
1
1
1
1
1
1
1
1
1
1
1
1
1
1
1
1
1
1
1
1
1
1
1
1
1
1
1
1
1
1
1
1
1
1
1
1
1
1
1
1
1
1
1
1
1
1
1
1
1
1
1
1
1
1
1
1
1
1
1
1
1
1
1
1
1
1
1
1
1
1
1
1
1
1
1
1
1
1
1
1
1
1
1
1
1
1
1
1
1
1
1
1
1
1
1
1
1
1
1
1
1
1
1
1
1
1
1
1
1
1
1
1
1
1
1
1
1
1
1
1
1
1
1
1
1
1
1
1
1
1
1
1
1
1
1
1
1
1
1
1
1
1
1
1
1
1
1
1
1
1
1
1
1
1
1
1
1
1
1
1
1
1
1
1
1
1
1
1
1
1
1
1
1
1
1
1
1
1
1
1
1
1
1
1
1
1
1
1
1
1
1
1
1
1
1
1
1
1
1
1
1
1
1
1
1
1
1
1
1
1
1
1
1
1
1
1
1
1
1
1
1
1
1
1
1
1
1
1
1
1
1
1
1
1
1
1
1
1
1
1
1
1
1
1
1
1
1
1
1
1
1
1
1
1
1
1
1
1
1
1
1
1
1
1
1
1
1
1
1
1
1
1
1
1
1
1
1
1
1
1
1
1
1
1
1
1
1
1
1
1
1
1
1
1
1
1
1
1
1
1
1
1
1
1
1
1
1
1
1
1
1
1
1
1
1
1
1
1
1
1
1
1
1
1
1
1
1
1
1
1
1
1
1
1
1
1
1
1
1
1
1
1
1
1
1
1
1
1
1
1
1
1
1
1
1
1
1
1
1
1
1
1
1
1
1
1
1
1
1
1
1
1
1
1
1
1
1
1
1
1
1
1
1
1
1
1
1
1
1
1
1
1
1
1
1
1
1
1
1
1
1
1
1
1
1
1
1
1
1
1
1
1
1
1
1
1
1
1
1
1
1
1
1
1
1
1
1
1
1
1
1
1
1
1
1.16471
0.999858
1
1
1
1
1
1
1
1
1
1
1
1
1
1
1
1
1
1
1
1
1
1
1
1
1
1
1
1
1
1
1
1
1
1.43685
1.021
1
1
1
1
1
1
1
1
1
1
1
1
1
1
1
1
1
1
1
1
1
1
1
1
1
1
1
1
1
1
1
1
1
1.72982
1.17795
0.999851
1
1
1
1
1
1
1
1
1
1
1
1
1
1
1
1
1
1
1
1
1
1
1
1
1
1
1
1
1
1
1
1
1.97384
1.57697
1.04561
0.999986
1
1
1
1
1
1
1
1
1
1
1
1
1
1
1
1
1
1
1
1
1
1
1
1
1
1
1
1
1
1
1
2.07921
1.89826
1.65803
1.05029
0.999973
1
1
1
1
1
1
1
1
1
1
1
1
1
1
1
1
1
1
1
1
1
1
1
1
1
1
1
1
1
1
1.97726
1.89857
2.00813
1.64885
1.0376
1
1
1
1
1
1
1
1
1
1
1
1
1
1
1
1
1
1
1
1
1
1
1
1
1
1
1
1
1
1
1.89971
1.90825
1.9993
1.98867
1.47093
0.999962
1
1
1
1
1
1
1
1
1
1
1
1
1
1
1
1
1
1
1
1
1
1
1
1
1
1
1
1
1
1.87145
1.90431
1.96606
1.9771
1.85562
1.23021
0.999779
1
1
1
1
1
1
1
1
1
1
1
1
1
1
1
1
1
1
1
1
1
1
1
1
1
1
1
1
1.86753
1.8884
1.91341
1.93466
1.95189
1.60287
1.03272
1
1
1
1
1
1
1
1
1
1
1
1
1
1
1
1
1
1
1
1
1
1
1
1
1
1
1
1
1.86418
1.87291
1.88736
1.91752
1.94828
1.81551
1.24703
0.999748
1
1
1
1
1
1
1
1
1
1
1
1
1
1
1
1
1
1
1
1
1
1
1
1
1
1
1
1.85724
1.86078
1.88434
1.91129
1.93147
1.87635
1.51906
1.01564
1
1
1
1
1
1
1
1
1
1
1
1
1
1
1
1
1
1
1
1
1
1
1
1
1
1
1
1.84776
1.85172
1.8798
1.90552
1.90828
1.86285
1.67653
1.1357
1
1
1
1
1
1
1
1
1
1
1
1
1
1
1
1
1
1
1
1
1
1
1
1
1
1
1
1.83768
1.84574
1.87372
1.89407
1.88957
1.85978
1.75907
1.31312
0.999683
1
1
1
1
1
1
1
1
1
1
1
1
1
1
1
1
1
1
1
1
1
1
1
1
1
1
1.83549
1.84461
1.86769
1.88191
1.87695
1.85884
1.78924
1.47456
1.01411
1
1
1
1
1
1
1
1
1
1
1
1
1
1
1
1
1
1
1
1
1
1
1
1
1
1
1.8359
1.84339
1.86026
1.8702
1.8653
1.85271
1.79734
1.5904
1.08311
1
1
1
1
1
1
1
1
1
1
1
1
1
1
1
1
1
1
1
1
1
1
1
1
1
1
1.83564
1.84071
1.85356
1.86115
1.85698
1.84885
1.79782
1.65207
1.19406
1
1
1
1
1
1
1
1
1
1
1
1
1
1
1
1
1
1
1
1
1
1
1
1
1
1
1.83395
1.83681
1.84838
1.85356
1.85413
1.84462
1.79717
1.69182