/*--------------------------------*- C++ -*----------------------------------*\
  =========                 |
  \\      /  F ield         | OpenFOAM: The Open Source CFD Toolbox
   \\    /   O peration     | Website:  https://openfoam.org
    \\  /    A nd           | Version:  7
     \\/     M anipulation  |
\*---------------------------------------------------------------------------*/
FoamFile
{
    version     2.0;
    format      ascii;
    class       volVectorField;
    location    "0.013";
    object      U;
}
// * * * * * * * * * * * * * * * * * * * * * * * * * * * * * * * * * * * * * //

dimensions      [0 1 -1 0 0 0 0];

internalField   nonuniform List<vector> 
12000
(
(0.962786 0.265219 0)
(1.59261 -0.704899 0)
(2.12657 -0.808084 0)
(2.46733 -0.489352 0)
(2.71403 -0.265787 0)
(2.89301 -0.0959812 0)
(2.98372 -0.0154096 0)
(3.00058 -0.00041124 0)
(3.00086 0.000182387 0)
(3.00044 0.000159724 0)
(3.00005 2.97614e-05 0)
(3 5.7409e-07 0)
(3 -9.68199e-09 0)
(3 -6.50468e-09 0)
(3 -9.0545e-10 0)
(3 -1.11889e-11 0)
(3 4.84308e-14 0)
(3 3.09622e-14 0)
(3 3.19743e-15 0)
(3 -1.29404e-17 0)
(3 4.24986e-17 0)
(3 -1.69942e-16 0)
(3 2.55168e-16 0)
(3 1.86088e-16 0)
(3 -1.22935e-16 0)
(3 -3.1408e-16 0)
(3 -1.31264e-16 0)
(3 -9.58533e-17 0)
(3 3.14766e-17 0)
(3 3.50911e-16 0)
(3 4.20764e-16 0)
(3 4.61494e-16 0)
(3 7.42666e-16 0)
(3 -1.19462e-16 0)
(3 -9.79891e-16 0)
(3 -6.45996e-16 0)
(3 -1.39785e-16 0)
(3 2.2263e-16 0)
(3 5.54151e-16 0)
(3 3.4441e-16 0)
(1.02893 0.259346 0)
(1.67106 -0.521264 0)
(2.26855 -1.02053 0)
(2.59831 -0.808004 0)
(2.7771 -0.397411 0)
(2.91772 -0.117533 0)
(2.98892 -0.0147696 0)
(3.00051 -0.000295124 0)
(3.00057 0.000150585 0)
(3.00023 0.000118043 0)
(3.00002 1.41912e-05 0)
(3 1.22656e-07 0)
(3 -1.95659e-08 0)
(3 -8.25946e-09 0)
(3 -4.42191e-10 0)
(3 -1.52874e-12 0)
(3 1.05766e-13 0)
(3 3.34102e-14 0)
(3 2.31607e-15 0)
(3 7.44289e-16 0)
(3 1.61351e-16 0)
(3 3.38101e-16 0)
(3 -3.10445e-16 0)
(3 -7.02216e-17 0)
(3 -1.23311e-16 0)
(3 -8.23016e-17 0)
(3 -5.5781e-16 0)
(3 -2.55411e-16 0)
(3 -6.51887e-16 0)
(3 -1.03341e-16 0)
(3 4.02421e-18 0)
(3 -5.71879e-16 0)
(3 -8.10778e-16 0)
(3 -1.27792e-15 0)
(3 1.52293e-17 0)
(3 6.40017e-16 0)
(3 3.14668e-16 0)
(3 2.45939e-16 0)
(3 3.13845e-16 0)
(3 2.76121e-16 0)
(1.06193 0.262237 0)
(1.7513 -0.547203 0)
(2.3685 -0.962267 0)
(2.68091 -0.706528 0)
(2.8408 -0.31468 0)
(2.95299 -0.0766906 0)
(2.99669 -0.00656971 0)
(3.00071 -7.87569e-05 0)
(3.00049 9.00033e-05 0)
(3.0001 5.2189e-05 0)
(3 2.67334e-06 0)
(3 -2.23822e-08 0)
(3 -2.18348e-08 0)
(3 -3.76239e-09 0)
(3 -5.92817e-11 0)
(3 1.15277e-13 0)
(3 1.07388e-13 0)
(3 1.18484e-14 0)
(3 4.93215e-16 0)
(3 -1.40104e-16 0)
(3 1.47574e-15 0)
(3 1.20209e-15 0)
(3 1.08247e-16 0)
(3 5.43081e-16 0)
(3 4.40057e-17 0)
(3 2.04316e-16 0)
(3 4.41842e-16 0)
(3 -1.07906e-16 0)
(3 3.05804e-16 0)
(3 3.65053e-16 0)
(3 -5.27277e-17 0)
(3 3.11215e-16 0)
(3 -7.9041e-17 0)
(3 -1.64149e-16 0)
(3 6.28473e-16 0)
(3 3.13102e-17 0)
(3 -7.71055e-16 0)
(3 -4.91804e-16 0)
(3 -1.01265e-15 0)
(3 -1.12115e-16 0)
(1.08491 0.249146 0)
(1.82028 -0.566078 0)
(2.44791 -0.922747 0)
(2.74112 -0.607667 0)
(2.88844 -0.228685 0)
(2.97671 -0.0418841 0)
(3.00001 -0.00231494 0)
(3.00076 -4.33594e-05 0)
(3.00037 7.07796e-05 0)
(3.00003 2.08627e-05 0)
(3 3.4392e-07 0)
(3 -3.72779e-08 0)
(3 -1.76086e-08 0)
(3 -1.10003e-09 0)
(3 -4.54417e-12 0)
(3 2.0792e-13 0)
(3 7.00559e-14 0)
(3 4.57712e-16 0)
(3 -1.35749e-15 0)
(3 -5.35126e-16 0)
(3 -4.81177e-16 0)
(3 -1.22393e-15 0)
(3 -8.32123e-16 0)
(3 -1.25793e-16 0)
(3 -1.89832e-16 0)
(3 2.8029e-16 0)
(3 2.85175e-16 0)
(3 -7.94591e-17 0)
(3 3.20627e-16 0)
(3 -4.17592e-16 0)
(3 1.37441e-16 0)
(3 1.11501e-16 0)
(3 2.66815e-16 0)
(3 1.61693e-18 0)
(3 7.74412e-17 0)
(3 1.35406e-16 0)
(3 6.18478e-16 0)
(3 5.70586e-16 0)
(3 3.31529e-16 0)
(3 2.56425e-16 0)
(1.10594 0.238074 0)
(1.88717 -0.582846 0)
(2.51941 -0.873163 0)
(2.7928 -0.519642 0)
(2.9239 -0.166916 0)
(2.98939 -0.0232405 0)
(3.00089 -0.00101141 0)
(3.00073 -9.38539e-05 0)
(3.00023 3.09528e-05 0)
(3.00001 5.57686e-06 0)
(3 -3.50386e-08 0)
(3 -5.05892e-08 0)
(3 -1.06913e-08 0)
(3 -2.06196e-10 0)
(3 2.726e-13 0)
(3 3.36161e-13 0)
(3 3.43989e-14 0)
(3 -5.63424e-16 0)
(3 3.03928e-16 0)
(3 8.26889e-16 0)
(3 -3.80072e-16 0)
(3 2.40154e-16 0)
(3 4.27589e-16 0)
(3 2.89781e-16 0)
(3 3.22022e-19 0)
(3 7.58095e-17 0)
(3 -2.82933e-16 0)
(3 -3.86105e-16 0)
(3 -8.07875e-17 0)
(3 1.64933e-16 0)
(3 5.10263e-16 0)
(3 8.05096e-16 0)
(3 8.9617e-16 0)
(3 8.58019e-16 0)
(3 3.10774e-16 0)
(3 1.61708e-16 0)
(3 2.30106e-16 0)
(3 -2.89208e-16 0)
(3 1.58642e-16 0)
(3 2.20186e-16 0)
(1.12567 0.23047 0)
(1.95073 -0.594796 0)
(2.58315 -0.82571 0)
(2.83566 -0.443909 0)
(2.94926 -0.12203 0)
(2.996 -0.0130638 0)
(3.00113 -0.000484588 0)
(3.00074 -6.00643e-05 0)
(3.00012 3.43359e-05 0)
(3 2.15085e-06 0)
(3 -6.16159e-08 0)
(3 -4.17219e-08 0)
(3 -4.77822e-09 0)
(3 -4.2951e-11 0)
(3 7.28875e-13 0)
(3 3.12263e-13 0)
(3 1.23961e-14 0)
(3 5.61436e-16 0)
(3 9.07048e-16 0)
(3 5.75899e-16 0)
(3 -1.81631e-16 0)
(3 -9.13688e-16 0)
(3 -2.73265e-16 0)
(3 -6.47103e-16 0)
(3 6.10673e-17 0)
(3 4.11234e-16 0)
(3 1.91488e-16 0)
(3 9.19122e-17 0)
(3 -7.90153e-16 0)
(3 -1.04485e-16 0)
(3 1.3606e-16 0)
(3 -1.04194e-15 0)
(3 -8.85197e-16 0)
(3 -4.95837e-16 0)
(3 -5.52065e-16 0)
(3 2.51455e-16 0)
(3 3.55758e-16 0)
(3 5.64785e-16 0)
(3 4.03964e-16 0)
(3 -5.72655e-17 0)
(1.14221 0.222014 0)
(2.01033 -0.602041 0)
(2.63886 -0.777191 0)
(2.87109 -0.38017 0)
(2.96726 -0.0900103 0)
(2.99926 -0.00752834 0)
(3.00118 -0.000388207 0)
(3.00063 -5.48011e-05 0)
(3.00006 1.79127e-05 0)
(3 5.37961e-07 0)
(3 -7.50362e-08 0)
(3 -3.40792e-08 0)
(3 -1.92378e-09 0)
(3 -5.6241e-12 0)
(3 8.82936e-13 0)
(3 2.0908e-13 0)
(3 2.92808e-15 0)
(3 -6.41276e-16 0)
(3 -1.39022e-15 0)
(3 -2.07854e-15 0)
(3 -1.56316e-15 0)
(3 2.35747e-17 0)
(3 2.07621e-16 0)
(3 2.15953e-16 0)
(3 4.61854e-16 0)
(3 -3.13584e-16 0)
(3 -2.67448e-16 0)
(3 5.00442e-16 0)
(3 4.77349e-16 0)
(3 3.43901e-16 0)
(3 -1.47453e-16 0)
(3 1.00098e-16 0)
(3 3.16565e-16 0)
(3 -3.1489e-18 0)
(3 7.81596e-16 0)
(3 2.87552e-16 0)
(3 -7.46837e-17 0)
(3 -3.16318e-16 0)
(3 -2.23697e-16 0)
(3 -1.79631e-16 0)
(1.1587 0.216382 0)
(2.06591 -0.607838 0)
(2.68768 -0.732486 0)
(2.89953 -0.32686 0)
(2.97936 -0.0666995 0)
(3.00084 -0.00440524 0)
(3.00123 -0.000233292 0)
(3.00053 3.21552e-05 0)
(3.00003 1.93482e-05 0)
(3 2.30311e-07 0)
(3 -6.17469e-08 0)
(3 -2.2646e-08 0)
(3 -8.11181e-10 0)
(3 -8.41465e-13 0)
(3 5.94254e-13 0)
(3 9.89906e-14 0)
(3 -3.80879e-16 0)
(3 -3.44175e-16 0)
(3 6.24263e-16 0)
(3 9.32479e-16 0)
(3 1.78264e-15 0)
(3 8.29893e-16 0)
(3 -5.16131e-17 0)
(3 3.70188e-16 0)
(3 5.28974e-16 0)
(3 1.29112e-16 0)
(3 7.67007e-16 0)
(3 7.66458e-16 0)
(3 1.42799e-16 0)
(3 5.732e-16 0)
(3 2.99931e-16 0)
(3 2.21403e-16 0)
(3 -5.78777e-16 0)
(3 1.60186e-16 0)
(3 -5.2775e-16 0)
(3 -1.28437e-15 0)
(3 -1.20479e-16 0)
(3 -6.04772e-16 0)
(3 -7.22985e-16 0)
(3 -6.13483e-16 0)
(1.17351 0.209243 0)
(2.1173 -0.610608 0)
(2.72939 -0.689102 0)
(2.92233 -0.282358 0)
(2.98786 -0.0502876 0)
(3.00161 -0.0029455 0)
(3.0012 -0.000323708 0)
(3.00039 -1.83792e-05 0)
(3.00001 6.24099e-06 0)
(3 -6.76234e-08 0)
(3 -8.39112e-08 0)
(3 -1.52946e-08 0)
(3 -2.33605e-10 0)
(3 1.495e-12 0)
(3 8.43623e-13 0)
(3 5.21244e-14 0)
(3 2.70486e-16 0)
(3 9.88948e-16 0)
(3 1.26715e-15 0)
(3 -7.78474e-17 0)
(3 -7.48511e-16 0)
(3 -7.09976e-16 0)
(3 -2.42091e-17 0)
(3 3.84557e-16 0)
(3 -7.01876e-16 0)
(3 -9.53506e-16 0)
(3 -4.50761e-16 0)
(3 -8.73806e-16 0)
(3 -2.91662e-16 0)
(3 -1.76811e-16 0)
(3 -3.21841e-17 0)
(3 -6.07963e-16 0)
(3 -3.4387e-16 0)
(3 -7.94006e-18 0)
(3 -3.36054e-16 0)
(3 5.50888e-16 0)
(3 5.06185e-16 0)
(3 -2.10751e-16 0)
(3 2.90391e-16 0)
(3 3.34105e-16 0)
(1.1891 0.204804 0)
(2.16425 -0.614142 0)
(2.7653 -0.650261 0)
(2.94027 -0.245879 0)
(2.99339 -0.0383151 0)
(3.00192 -0.00192878 0)
(3.0012 -0.000256334 0)
(3.00029 1.45442e-05 0)
(3 4.90219e-06 0)
(3 -6.81589e-08 0)
(3 -6.28047e-08 0)
(3 -8.57615e-09 0)
(3 -8.88735e-11 0)
(3 1.38797e-12 0)
(3 5.75587e-13 0)
(3 2.34925e-14 0)
(3 -1.71085e-15 0)
(3 -1.21379e-15 0)
(3 -1.31581e-16 0)
(3 -1.08005e-15 0)
(3 7.61247e-17 0)
(3 4.81931e-16 0)
(3 -7.03928e-16 0)
(3 -1.1795e-15 0)
(3 -1.09999e-15 0)
(3 3.55635e-16 0)
(3 2.51308e-16 0)
(3 2.38531e-16 0)
(3 -2.57256e-16 0)
(3 1.05863e-16 0)
(3 9.26273e-17 0)
(3 2.63113e-17 0)
(3 1.19195e-15 0)
(3 1.22746e-15 0)
(3 1.13935e-15 0)
(3 1.26332e-15 0)
(3 -5.22531e-16 0)
(3 -1.85631e-16 0)
(3 -2.00916e-16 0)
(3 4.09795e-16 0)
(1.20196 0.200057 0)
(2.2063 -0.613322 0)
(2.796 -0.615159 0)
(2.9546 -0.216151 0)
(2.99709 -0.0298212 0)
(3.00201 -0.00144618 0)
(3.00117 -0.000288105 0)
(3.00019 9.46625e-06 0)
(3 2.23308e-06 0)
(3 -1.05519e-07 0)
(3 -6.3922e-08 0)
(3 -5.45846e-09 0)
(3 -3.00263e-11 0)
(3 1.06993e-12 0)
(3 3.54645e-13 0)
(3 8.72868e-15 0)
(3 -5.48267e-16 0)
(3 1.77828e-15 0)
(3 8.94231e-16 0)
(3 -9.12879e-16 0)
(3 -4.62769e-16 0)
(3 1.86796e-16 0)
(3 1.48588e-16 0)
(3 1.22889e-15 0)
(3 1.47315e-15 0)
(3 6.90522e-16 0)
(3 -5.8647e-16 0)
(3 -1.42377e-15 0)
(3 -3.30494e-16 0)
(3 3.23368e-16 0)
(3 2.00779e-16 0)
(3 -1.10361e-16 0)
(3 3.86268e-16 0)
(3 2.96256e-16 0)
(3 2.15599e-16 0)
(3 -3.95729e-16 0)
(3 -4.81214e-16 0)
(3 -1.09835e-18 0)
(3 2.39625e-16 0)
(3 9.66523e-18 0)
(1.21383 0.195193 0)
(2.24432 -0.612145 0)
(2.82197 -0.584165 0)
(2.96567 -0.191829 0)
(2.99953 -0.0237812 0)
(3.00201 -0.00117915 0)
(3.00113 -0.000287341 0)
(3.00012 8.50837e-06 0)
(3 1.03033e-06 0)
(3 -1.16255e-07 0)
(3 -5.5675e-08 0)
(3 -3.17118e-09 0)
(3 -8.20125e-12 0)
(3 1.53436e-12 0)
(3 3.19956e-13 0)
(3 1.43832e-15 0)
(3 -7.22793e-16 0)
(3 1.40446e-17 0)
(3 -9.16892e-16 0)
(3 2.0898e-16 0)
(3 5.05933e-16 0)
(3 9.49315e-16 0)
(3 3.33655e-16 0)
(3 7.20406e-16 0)
(3 -4.94965e-16 0)
(3 -6.40186e-16 0)
(3 -2.75388e-16 0)
(3 5.95691e-16 0)
(3 2.21027e-16 0)
(3 -2.25028e-16 0)
(3 -1.08195e-16 0)
(3 -5.3089e-16 0)
(3 -2.51242e-16 0)
(3 -2.49016e-16 0)
(3 -3.97969e-16 0)
(3 -4.83907e-16 0)
(3 1.6006e-16 0)
(3 1.86891e-16 0)
(3 1.03212e-16 0)
(3 -4.77058e-16 0)
(1.22565 0.192318 0)
(2.27788 -0.61238 0)
(2.84362 -0.556863 0)
(2.97418 -0.172038 0)
(3.00108 -0.0192367 0)
(3.002 -0.00095298 0)
(3.00104 -0.000202911 0)
(3.00008 1.64081e-05 0)
(3 7.57379e-07 0)
(3 -8.79693e-08 0)
(3 -3.8764e-08 0)
(3 -1.69327e-09 0)
(3 -1.13057e-12 0)
(3 1.64237e-12 0)
(3 2.07662e-13 0)
(3 -1.81412e-16 0)
(3 9.09926e-16 0)
(3 7.40879e-16 0)
(3 -4.35325e-16 0)
(3 5.61794e-16 0)
(3 -6.25241e-16 0)
(3 3.5387e-16 0)
(3 2.09071e-16 0)
(3 -3.78128e-16 0)
(3 -1.10699e-15 0)
(3 -1.59904e-16 0)
(3 2.58593e-16 0)
(3 8.92455e-16 0)
(3 -2.6435e-16 0)
(3 5.95183e-16 0)
(3 5.80769e-16 0)
(3 1.8357e-16 0)
(3 3.87847e-16 0)
(3 3.98154e-16 0)
(3 -7.78846e-16 0)
(3 -2.26627e-16 0)
(3 -1.38155e-17 0)
(3 -2.46155e-16 0)
(3 -8.00683e-16 0)
(3 -3.38398e-16 0)
(1.23484 0.189252 0)
(2.30673 -0.609636 0)
(2.86179 -0.533589 0)
(2.98091 -0.156247 0)
(3.00206 -0.0160373 0)
(3.00194 -0.000884555 0)
(3.00092 -0.000186316 0)
(3.00006 1.08079e-05 0)
(3 3.04804e-07 0)
(3 -1.03633e-07 0)
(3 -3.48064e-08 0)
(3 -9.24666e-10 0)
(3 9.06729e-13 0)
(3 1.30999e-12 0)
(3 1.01103e-13 0)
(3 1.69235e-15 0)
(3 2.80202e-15 0)
(3 6.72417e-16 0)
(3 -2.90526e-16 0)
(3 1.78084e-16 0)
(3 2.73948e-17 0)
(3 1.19285e-15 0)
(3 9.91605e-16 0)
(3 2.62696e-16 0)
(3 -3.39146e-16 0)
(3 -8.10269e-16 0)
(3 -4.72504e-16 0)
(3 5.53612e-16 0)
(3 -4.34469e-16 0)
(3 -4.89916e-16 0)
(3 2.04521e-16 0)
(3 -2.32808e-16 0)
(3 -1.59275e-16 0)
(3 -1.36285e-16 0)
(3 -5.34092e-16 0)
(3 3.01975e-16 0)
(3 -4.83505e-17 0)
(3 -1.30544e-16 0)
(3 2.34921e-16 0)
(3 4.83208e-16 0)
(1.243 0.185916 0)
(2.33174 -0.607446 0)
(2.87638 -0.513587 0)
(2.98589 -0.14345 0)
(3.00275 -0.0138277 0)
(3.00192 -0.000912448 0)
(3.00083 -0.000219231 0)
(3.00004 1.60588e-06 0)
(3 -2.14983e-08 0)
(3 -1.36692e-07 0)
(3 -3.18566e-08 0)
(3 -4.97755e-10 0)
(3 3.98467e-12 0)
(3 1.96646e-12 0)
(3 1.06599e-13 0)
(3 1.8752e-15 0)
(3 3.06821e-16 0)
(3 -3.83767e-16 0)
(3 4.01984e-17 0)
(3 4.0985e-16 0)
(3 1.14201e-15 0)
(3 -2.29921e-16 0)
(3 -8.93401e-16 0)
(3 -9.73353e-16 0)
(3 -1.16876e-15 0)
(3 1.76639e-16 0)
(3 7.09123e-16 0)
(3 1.46188e-15 0)
(3 -7.33965e-16 0)
(3 -6.71697e-17 0)
(3 7.76305e-16 0)
(3 -3.28621e-16 0)
(3 1.00187e-15 0)
(3 7.9567e-16 0)
(3 9.77011e-17 0)
(3 3.06498e-17 0)
(3 2.20324e-16 0)
(3 4.06398e-16 0)
(3 -2.09494e-16 0)
(3 -3.72745e-16 0)
(1.25131 0.184555 0)
(2.35283 -0.607884 0)
(2.88785 -0.497512 0)
(2.98943 -0.133282 0)
(3.0031 -0.0119354 0)
(3.00191 -0.00081 0)
(3.00077 -0.00016017 0)
(3.00003 6.39424e-06 0)
(3 1.07525e-08 0)
(3 -1.09118e-07 0)
(3 -2.37553e-08 0)
(3 -3.29993e-10 0)
(3 2.12767e-12 0)
(3 1.07431e-12 0)
(3 5.03664e-14 0)
(3 -1.79885e-15 0)
(3 -1.95846e-15 0)
(3 -4.70916e-16 0)
(3 -8.67757e-16 0)
(3 -2.45994e-16 0)
(3 5.69419e-17 0)
(3 -7.4099e-16 0)
(3 6.71746e-17 0)
(3 3.07228e-16 0)
(3 -2.62008e-17 0)
(3 3.75354e-16 0)
(3 -7.58679e-16 0)
(3 8.17328e-17 0)
(3 1.13054e-17 0)
(3 -5.15023e-16 0)
(3 3.11275e-17 0)
(3 -6.44686e-17 0)
(3 8.28836e-16 0)
(3 -1.4585e-15 0)
(3 -3.71932e-16 0)
(3 -3.11098e-16 0)
(3 2.31659e-16 0)
(3 1.86061e-16 0)
(3 -1.47786e-16 0)
(3 -2.93089e-16 0)
(1.25766 0.18337 0)
(2.36971 -0.60711 0)
(2.89669 -0.484329 0)
(2.99209 -0.125502 0)
(3.00342 -0.010829 0)
(3.00187 -0.000801124 0)
(3.0007 -0.000162283 0)
(3.00002 3.55488e-06 0)
(3 -7.15042e-08 0)
(3 -1.1392e-07 0)
(3 -1.86415e-08 0)
(3 -2.00167e-10 0)
(3 1.86949e-12 0)
(3 8.08449e-13 0)
(3 2.8696e-14 0)
(3 -1.00569e-15 0)
(3 -2.21498e-16 0)
(3 9.17987e-16 0)
(3 -4.62008e-16 0)
(3 7.31602e-16 0)
(3 2.89458e-16 0)
(3 1.51035e-16 0)
(3 2.29112e-16 0)
(3 -5.96804e-16 0)
(3 -8.50046e-16 0)
(3 -1.08515e-15 0)
(3 -9.33796e-16 0)
(3 1.04559e-15 0)
(3 6.26093e-16 0)
(3 -4.57425e-16 0)
(3 9.80233e-16 0)
(3 9.21019e-17 0)
(3 1.02006e-15 0)
(3 -5.32585e-16 0)
(3 1.70454e-16 0)
(3 1.35664e-16 0)
(3 -2.59149e-17 0)
(3 5.01738e-17 0)
(3 -1.28636e-16 0)
(3 -2.88799e-16 0)
(1.26255 0.182679 0)
(2.38274 -0.606631 0)
(2.90332 -0.475225 0)
(2.99377 -0.119667 0)
(3.00344 -0.00975568 0)
(3.00183 -0.000725546 0)
(3.00066 -0.000125225 0)
(3.00002 5.79102e-06 0)
(3 -4.47223e-08 0)
(3 -9.54544e-08 0)
(3 -1.51694e-08 0)
(3 -1.57666e-10 0)
(3 1.07672e-12 0)
(3 5.03513e-13 0)
(3 1.6469e-14 0)
(3 -1.49865e-15 0)
(3 7.20702e-16 0)
(3 1.01177e-15 0)
(3 -6.66392e-17 0)
(3 1.29581e-15 0)
(3 1.93855e-16 0)
(3 -3.8445e-16 0)
(3 -2.8228e-16 0)
(3 3.82581e-16 0)
(3 4.87792e-16 0)
(3 -5.68733e-17 0)
(3 1.05981e-15 0)
(3 1.52201e-15 0)
(3 -1.54745e-16 0)
(3 -2.49525e-16 0)
(3 1.02955e-16 0)
(3 -1.87406e-16 0)
(3 8.14076e-16 0)
(3 -1.39144e-15 0)
(3 -2.14701e-16 0)
(3 1.00021e-16 0)
(3 2.26097e-16 0)
(3 -4.69217e-16 0)
(3 -2.20969e-16 0)
(3 -4.48053e-16 0)
(1.26631 0.182487 0)
(2.39191 -0.606882 0)
(2.90751 -0.468666 0)
(2.99476 -0.115588 0)
(3.0035 -0.00923063 0)
(3.00179 -0.000700082 0)
(3.00061 -0.000116298 0)
(3.00002 5.11024e-06 0)
(3 -4.66124e-08 0)
(3 -8.3323e-08 0)
(3 -1.1859e-08 0)
(3 -1.051e-10 0)
(3 1.5703e-12 0)
(3 5.85576e-13 0)
(3 1.24685e-14 0)
(3 -2.65031e-15 0)
(3 -2.02602e-16 0)
(3 3.61972e-17 0)
(3 -5.9922e-16 0)
(3 5.08916e-17 0)
(3 -9.55729e-16 0)
(3 -5.01222e-17 0)
(3 4.65625e-16 0)
(3 8.25589e-16 0)
(3 -3.96353e-17 0)
(3 -6.26059e-17 0)
(3 -1.86363e-16 0)
(3 1.01261e-15 0)
(3 -5.65061e-16 0)
(3 7.96139e-16 0)
(3 -4.47219e-16 0)
(3 3.38368e-16 0)
(3 -3.13034e-16 0)
(3 -5.83509e-16 0)
(3 6.96979e-16 0)
(3 3.27443e-16 0)
(3 -3.10878e-16 0)
(3 -6.15481e-16 0)
(3 3.10256e-16 0)
(3 3.66255e-17 0)
(1.26858 0.182508 0)
(2.39718 -0.607617 0)
(2.9096 -0.465028 0)
(2.9951 -0.113125 0)
(3.00349 -0.00889459 0)
(3.00174 -0.000692711 0)
(3.00058 -0.000114235 0)
(3.00001 4.32493e-06 0)
(3 -5.29354e-08 0)
(3 -7.79571e-08 0)
(3 -9.92137e-09 0)
(3 -7.62625e-11 0)
(3 1.3167e-12 0)
(3 4.32795e-13 0)
(3 6.57555e-15 0)
(3 -8.08628e-17 0)
(3 3.44192e-17 0)
(3 3.50938e-16 0)
(3 -4.07789e-16 0)
(3 3.30432e-16 0)
(3 1.89694e-16 0)
(3 4.0719e-16 0)
(3 -1.20289e-15 0)
(3 5.13823e-16 0)
(3 3.67605e-16 0)
(3 -6.6746e-16 0)
(3 -2.06203e-16 0)
(3 7.19432e-16 0)
(3 -3.25793e-16 0)
(3 -1.85647e-16 0)
(3 -6.42444e-16 0)
(3 -4.42138e-16 0)
(3 3.11021e-16 0)
(3 3.46992e-16 0)
(3 -1.47795e-16 0)
(3 -3.38298e-16 0)
(3 -1.01779e-15 0)
(3 5.1004e-16 0)
(3 3.26593e-16 0)
(3 7.63387e-16 0)
(1.26908 0.182635 0)
(2.39882 -0.608708 0)
(2.90982 -0.46395 0)
(2.995 -0.112315 0)
(3.00342 -0.00876619 0)
(3.0017 -0.0006766 0)
(3.00055 -0.00011043 0)
(3.00001 4.00004e-06 0)
(3 -6.82227e-08 0)
(3 -8.01548e-08 0)
(3 -9.37274e-09 0)
(3 -6.90504e-11 0)
(3 6.44273e-14 0)
(3 7.15081e-14 0)
(3 -1.39079e-15 0)
(3 9.43799e-16 0)
(3 8.35911e-16 0)
(3 5.72213e-16 0)
(3 3.37016e-16 0)
(3 7.66396e-16 0)
(3 8.62752e-16 0)
(3 -1.02525e-15 0)
(3 -3.89235e-16 0)
(3 1.0237e-15 0)
(3 9.80856e-16 0)
(3 -5.55581e-17 0)
(3 -7.99303e-17 0)
(3 2.05594e-16 0)
(3 -6.70586e-16 0)
(3 6.7755e-16 0)
(3 -9.45165e-16 0)
(3 -3.75694e-16 0)
(3 1.22534e-15 0)
(3 -8.48781e-16 0)
(3 -2.2855e-16 0)
(3 1.66357e-16 0)
(3 4.85958e-16 0)
(3 -1.29274e-16 0)
(3 -7.84549e-16 0)
(3 3.39515e-16 0)
(1.26897 0.183699 0)
(2.39786 -0.61104 0)
(2.90855 -0.465288 0)
(2.99447 -0.112622 0)
(3.00333 -0.00878449 0)
(3.00165 -0.000675003 0)
(3.00053 -0.000113684 0)
(3.00001 3.3166e-06 0)
(3 -7.9261e-08 0)
(3 -8.11278e-08 0)
(3 -8.85858e-09 0)
(3 -6.04751e-11 0)
(3 1.87924e-14 0)
(3 4.83121e-14 0)
(3 -5.76308e-16 0)
(3 -1.24809e-15 0)
(3 7.83048e-16 0)
(3 5.71701e-16 0)
(3 -1.46063e-16 0)
(3 -4.44594e-16 0)
(3 -1.99081e-16 0)
(3 9.0284e-17 0)
(3 -3.29169e-16 0)
(3 2.04302e-16 0)
(3 2.18505e-16 0)
(3 -1.8454e-16 0)
(3 6.90402e-17 0)
(3 3.9349e-16 0)
(3 -2.17787e-15 0)
(3 3.44053e-16 0)
(3 3.02127e-16 0)
(3 6.86493e-16 0)
(3 -9.88007e-16 0)
(3 4.91455e-16 0)
(3 3.1374e-17 0)
(3 2.30075e-16 0)
(3 2.30122e-16 0)
(3 -1.29458e-15 0)
(3 1.9241e-16 0)
(3 8.79886e-16 0)
(1.26752 0.184912 0)
(2.39354 -0.613397 0)
(2.90535 -0.468805 0)
(2.99333 -0.114253 0)
(3.00311 -0.00895327 0)
(3.00159 -0.000671442 0)
(3.00052 -0.000117853 0)
(3.00001 2.75382e-06 0)
(3 -7.81603e-08 0)
(3 -7.95061e-08 0)
(3 -8.37022e-09 0)
(3 -5.45446e-11 0)
(3 -3.41363e-14 0)
(3 2.98271e-14 0)
(3 -3.87792e-16 0)
(3 -2.68093e-15 0)
(3 -1.67761e-16 0)
(3 -6.04144e-16 0)
(3 2.58924e-16 0)
(3 -4.60272e-16 0)
(3 -1.42266e-17 0)
(3 1.29909e-15 0)
(3 -7.76247e-16 0)
(3 -6.47213e-16 0)
(3 5.63191e-16 0)
(3 -1.25767e-17 0)
(3 2.33121e-16 0)
(3 3.62373e-17 0)
(3 -3.21883e-15 0)
(3 9.69891e-16 0)
(3 1.07633e-15 0)
(3 1.68482e-16 0)
(3 -5.85942e-16 0)
(3 -3.38366e-16 0)
(3 1.22337e-16 0)
(3 3.09642e-16 0)
(3 2.52654e-16 0)
(3 -7.12954e-16 0)
(3 1.7323e-16 0)
(3 4.11016e-16 0)
(1.26495 0.186532 0)
(2.38623 -0.616656 0)
(2.90051 -0.474824 0)
(2.99174 -0.117174 0)
(3.00289 -0.00934198 0)
(3.00152 -0.00069497 0)
(3.0005 -0.000132549 0)
(3.00001 1.45356e-06 0)
(3 -8.98218e-08 0)
(3 -8.07744e-08 0)
(3 -7.78362e-09 0)
(3 -4.53259e-11 0)
(3 7.49264e-14 0)
(3 5.98197e-14 0)
(3 -2.20745e-15 0)
(3 -2.69146e-15 0)
(3 1.34812e-16 0)
(3 -3.78308e-16 0)
(3 5.68555e-16 0)
(3 -1.85175e-16 0)
(3 4.90781e-16 0)
(3 -2.79111e-16 0)
(3 -2.48431e-16 0)
(3 -1.46221e-15 0)
(3 3.16558e-16 0)
(3 1.56173e-16 0)
(3 3.1493e-17 0)
(3 -4.67079e-16 0)
(3 -1.48097e-15 0)
(3 1.5192e-15 0)
(3 1.62235e-15 0)
(3 -1.5059e-16 0)
(3 -4.49871e-16 0)
(3 -1.49219e-15 0)
(3 4.79395e-16 0)
(3 -2.00583e-16 0)
(3 -3.09457e-16 0)
(3 -2.36219e-16 0)
(3 3.94156e-16 0)
(3 -2.5075e-16 0)
(1.26119 0.188539 0)
(2.37576 -0.620413 0)
(2.89381 -0.483451 0)
(2.98945 -0.121296 0)
(3.00263 -0.0100529 0)
(3.00145 -0.000722601 0)
(3.00049 -0.000155062 0)
(3.00001 -6.75713e-07 0)
(3 -1.17998e-07 0)
(3 -8.86396e-08 0)
(3 -7.5892e-09 0)
(3 -3.50655e-11 0)
(3 1.08238e-12 0)
(3 2.78281e-13 0)
(3 2.20999e-15 0)
(3 -1.11168e-15 0)
(3 1.31506e-15 0)
(3 1.22942e-16 0)
(3 4.74645e-16 0)
(3 -2.55486e-16 0)
(3 -3.70069e-16 0)
(3 4.16766e-16 0)
(3 -3.5621e-16 0)
(3 -1.39386e-15 0)
(3 -8.1894e-17 0)
(3 8.59293e-16 0)
(3 2.10572e-16 0)
(3 8.39405e-16 0)
(3 -7.34128e-16 0)
(3 -4.56238e-16 0)
(3 1.23438e-15 0)
(3 -1.26474e-15 0)
(3 -1.04428e-15 0)
(3 6.19297e-16 0)
(3 4.29436e-16 0)
(3 9.41163e-17 0)
(3 -4.89145e-16 0)
(3 5.67571e-16 0)
(3 -5.71452e-16 0)
(3 -4.75577e-16 0)
(1.25633 0.19091 0)
(2.36208 -0.624524 0)
(2.88516 -0.49504 0)
(2.98643 -0.127036 0)
(3.00223 -0.0108675 0)
(3.0014 -0.000754789 0)
(3.00049 -0.000171829 0)
(3.00001 -1.99145e-06 0)
(3 -1.50906e-07 0)
(3 -1.02869e-07 0)
(3 -8.75784e-09 0)
(3 -4.17278e-11 0)
(3 1.04218e-12 0)
(3 2.8838e-13 0)
(3 3.52718e-15 0)
(3 1.58378e-15 0)
(3 2.85185e-16 0)
(3 -6.43297e-16 0)
(3 -6.62731e-17 0)
(3 -1.25435e-15 0)
(3 5.79284e-16 0)
(3 1.04199e-15 0)
(3 -8.73068e-16 0)
(3 -3.72991e-16 0)
(3 1.06908e-15 0)
(3 6.00933e-16 0)
(3 1.0231e-16 0)
(3 1.96272e-16 0)
(3 -9.28513e-16 0)
(3 -2.52403e-16 0)
(3 -1.30447e-16 0)
(3 -3.23239e-16 0)
(3 -1.66203e-15 0)
(3 3.17093e-15 0)
(3 -5.59844e-16 0)
(3 4.88649e-16 0)
(3 -4.59833e-16 0)
(3 5.1922e-16 0)
(3 2.33208e-16 0)
(3 4.55374e-18 0)
(1.25077 0.193732 0)
(2.34527 -0.629241 0)
(2.8743 -0.509694 0)
(2.98256 -0.134611 0)
(3.00171 -0.0119464 0)
(3.00135 -0.000706743 0)
(3.00051 -0.000159673 0)
(3.00001 -9.05353e-07 0)
(3 -1.44156e-07 0)
(3 -1.06776e-07 0)
(3 -1.02704e-08 0)
(3 -5.99367e-11 0)
(3 2.75734e-13 0)
(3 1.18177e-13 0)
(3 2.49183e-15 0)
(3 1.49259e-15 0)
(3 -1.14865e-15 0)
(3 -8.94554e-16 0)
(3 -1.31639e-16 0)
(3 -7.01059e-17 0)
(3 1.24096e-15 0)
(3 -1.2119e-15 0)
(3 -3.95629e-16 0)
(3 -2.15522e-17 0)
(3 -9.18036e-16 0)
(3 7.96907e-16 0)
(3 -8.46257e-16 0)
(3 -1.87648e-16 0)
(3 6.64263e-16 0)
(3 7.65655e-16 0)
(3 -4.63798e-16 0)
(3 -1.64083e-15 0)
(3 3.18224e-16 0)
(3 1.85812e-15 0)
(3 -1.0891e-15 0)
(3 -9.22356e-17 0)
(3 -4.66792e-17 0)
(3 6.79211e-16 0)
(3 2.00592e-16 0)
(3 5.71378e-17 0)
(1.24479 0.197375 0)
(2.32526 -0.635744 0)
(2.86092 -0.526614 0)
(2.97759 -0.143929 0)
(3.00107 -0.0135589 0)
(3.00131 -0.000739282 0)
(3.00052 -0.000172175 0)
(3.00002 -1.37147e-06 0)
(3 -1.1205e-07 0)
(3 -9.71709e-08 0)
(3 -1.09766e-08 0)
(3 -7.50391e-11 0)
(3 2.09432e-13 0)
(3 1.02002e-13 0)
(3 2.6891e-15 0)
(3 7.95322e-16 0)
(3 -2.07197e-16 0)
(3 -2.60352e-16 0)
(3 1.61668e-16 0)
(3 6.90779e-17 0)
(3 1.07325e-15 0)
(3 -1.98397e-15 0)
(3 8.00362e-17 0)
(3 4.14008e-16 0)
(3 -1.77145e-16 0)
(3 1.50582e-15 0)
(3 -1.89499e-15 0)
(3 3.38509e-16 0)
(3 2.1401e-15 0)
(3 -1.36147e-15 0)
(3 -2.64899e-16 0)
(3 -6.97281e-16 0)
(3 3.85115e-16 0)
(3 1.26915e-15 0)
(3 -4.20049e-16 0)
(3 2.04915e-16 0)
(3 -5.32542e-17 0)
(3 5.0974e-16 0)
(3 4.62125e-16 0)
(3 -4.83848e-16 0)
(1.23745 0.201734 0)
(2.3016 -0.641982 0)
(2.84529 -0.547379 0)
(2.97146 -0.155683 0)
(3.00004 -0.0154601 0)
(3.00124 -0.000719922 0)
(3.00053 -0.000161321 0)
(3.00002 5.32649e-07 0)
(3 -4.76221e-08 0)
(3 -8.39031e-08 0)
(3 -1.19543e-08 0)
(3 -9.76948e-11 0)
(3 -1.16949e-13 0)
(3 9.35832e-15 0)
(3 -8.13238e-16 0)
(3 -2.62551e-16 0)
(3 1.61784e-16 0)
(3 -3.89106e-16 0)
(3 1.06309e-16 0)
(3 -6.96284e-16 0)
(3 2.96675e-16 0)
(3 -8.41491e-16 0)
(3 1.36617e-15 0)
(3 -3.62367e-16 0)
(3 2.39774e-16 0)
(3 -4.5216e-17 0)
(3 -8.35068e-16 0)
(3 -5.54245e-16 0)
(3 1.73049e-15 0)
(3 -1.27432e-15 0)
(3 2.37236e-16 0)
(3 2.70778e-16 0)
(3 -3.10297e-16 0)
(3 8.43866e-16 0)
(3 2.24603e-16 0)
(3 -1.35632e-15 0)
(3 -5.77157e-16 0)
(3 1.70675e-15 0)
(3 -7.19475e-17 0)
(3 -1.45834e-15 0)
(1.22839 0.205722 0)
(2.27436 -0.646677 0)
(2.82674 -0.570865 0)
(2.96399 -0.170241 0)
(2.99871 -0.0183385 0)
(3.00114 -0.00081163 0)
(3.00051 -0.000196603 0)
(3.00002 -4.19175e-06 0)
(3 -8.48019e-08 0)
(3 -1.02881e-07 0)
(3 -1.49653e-08 0)
(3 -1.31168e-10 0)
(3 -8.21714e-14 0)
(3 5.78974e-14 0)
(3 1.80491e-15 0)
(3 -5.43735e-16 0)
(3 -7.79605e-16 0)
(3 8.14984e-16 0)
(3 9.65881e-16 0)
(3 -1.30614e-15 0)
(3 -9.10454e-16 0)
(3 6.15766e-16 0)
(3 6.61832e-16 0)
(3 -1.4301e-15 0)
(3 1.44132e-15 0)
(3 -8.1247e-16 0)
(3 -2.40909e-16 0)
(3 -1.01392e-15 0)
(3 2.17622e-15 0)
(3 -3.90836e-16 0)
(3 5.52992e-16 0)
(3 -6.37552e-16 0)
(3 -5.45849e-16 0)
(3 1.30528e-15 0)
(3 -6.19766e-16 0)
(3 3.47752e-16 0)
(3 -4.0721e-16 0)
(3 9.76722e-16 0)
(3 -4.43523e-16 0)
(3 -4.80263e-16 0)
(1.21919 0.210298 0)
(2.24401 -0.652827 0)
(2.8051 -0.598026 0)
(2.95455 -0.187762 0)
(2.99689 -0.022112 0)
(3.00108 -0.000965127 0)
(3.00048 -0.000210191 0)
(3.00004 -1.13437e-05 0)
(3 -1.20718e-07 0)
(3 -1.15135e-07 0)
(3 -1.82821e-08 0)
(3 -1.87548e-10 0)
(3 1.03405e-13 0)
(3 1.41179e-13 0)
(3 7.32268e-15 0)
(3 -1.71153e-15 0)
(3 -1.2316e-15 0)
(3 1.81076e-15 0)
(3 2.25613e-16 0)
(3 -9.18712e-17 0)
(3 -1.18844e-15 0)
(3 1.19231e-15 0)
(3 2.12828e-16 0)
(3 -1.25171e-16 0)
(3 1.96528e-15 0)
(3 -1.3956e-15 0)
(3 1.87413e-16 0)
(3 -1.58198e-16 0)
(3 8.46513e-16 0)
(3 -2.81907e-16 0)
(3 -6.26148e-16 0)
(3 -9.57535e-16 0)
(3 1.1942e-15 0)
(3 3.10995e-16 0)
(3 9.86652e-16 0)
(3 -4.99008e-16 0)
(3 -4.89532e-16 0)
(3 1.08675e-15 0)
(3 4.49018e-16 0)
(3 -7.18311e-16 0)
(1.20958 0.215765 0)
(2.2094 -0.659209 0)
(2.77975 -0.629697 0)
(2.94268 -0.20866 0)
(2.99429 -0.0269415 0)
(3.00099 -0.00116712 0)
(3.00046 -0.000186038 0)
(3.00006 -1.50699e-05 0)
(3 -6.92305e-08 0)
(3 -1.11099e-07 0)
(3 -2.31006e-08 0)
(3 -3.05882e-10 0)
(3 -1.86667e-13 0)
(3 8.01138e-14 0)
(3 9.08968e-15 0)
(3 -1.40988e-15 0)
(3 -4.49603e-16 0)
(3 2.72468e-15 0)
(3 -2.0138e-16 0)
(3 -6.74872e-16 0)
(3 -1.30352e-15 0)
(3 5.05631e-16 0)
(3 1.1534e-15 0)
(3 5.77697e-16 0)
(3 1.51462e-16 0)
(3 -1.32676e-15 0)
(3 4.48366e-16 0)
(3 -7.64464e-16 0)
(3 -2.08572e-16 0)
(3 -2.56849e-16 0)
(3 -4.50324e-16 0)
(3 1.39967e-15 0)
(3 -1.25844e-16 0)
(3 1.73502e-15 0)
(3 -1.55193e-15 0)
(3 -4.50231e-16 0)
(3 -1.9547e-16 0)
(3 3.39366e-16 0)
(3 6.58162e-17 0)
(3 -1.2247e-15 0)
(1.1991 0.221808 0)
(2.16755 -0.664919 0)
(2.74702 -0.666114 0)
(2.92671 -0.235118 0)
(2.99041 -0.0337254 0)
(3.00077 -0.00154098 0)
(3.0004 -0.000189507 0)
(3.00007 -2.50879e-05 0)
(3 -2.05414e-07 0)
(3 -1.21719e-07 0)
(3 -2.8693e-08 0)
(3 -4.68617e-10 0)
(3 -4.27022e-13 0)
(3 6.92919e-14 0)
(3 1.05305e-14 0)
(3 1.8492e-18 0)
(3 -2.14107e-16 0)
(3 7.96117e-16 0)
(3 -3.30377e-16 0)
(3 -1.40569e-15 0)
(3 -3.07185e-16 0)
(3 1.55673e-15 0)
(3 -3.29608e-16 0)
(3 -1.22094e-16 0)
(3 -4.17191e-16 0)
(3 -4.23866e-16 0)
(3 -2.31471e-16 0)
(3 5.72442e-16 0)
(3 -1.15205e-15 0)
(3 1.12142e-15 0)
(3 -2.66289e-15 0)
(3 2.59274e-15 0)
(3 5.22635e-16 0)
(3 6.76534e-16 0)
(3 -8.34775e-16 0)
(3 -2.869e-16 0)
(3 8.56781e-16 0)
(3 -8.05088e-16 0)
(3 3.74096e-16 0)
(3 -1.2039e-15 0)
(1.18749 0.227629 0)
(2.12113 -0.667371 0)
(2.70695 -0.708712 0)
(2.90391 -0.270163 0)
(2.98404 -0.0440883 0)
(3.0004 -0.00220485 0)
(3.00038 -0.000188933 0)
(3.00009 -3.41955e-05 0)
(3 -4.52752e-07 0)
(3 -1.30514e-07 0)
(3 -3.66293e-08 0)
(3 -8.49586e-10 0)
(3 -1.38945e-12 0)
(3 5.19199e-15 0)
(3 1.79542e-16 0)
(3 1.21815e-15 0)
(3 6.98857e-17 0)
(3 8.97001e-17 0)
(3 -2.98819e-16 0)
(3 3.55652e-16 0)
(3 4.18346e-16 0)
(3 -1.14908e-15 0)
(3 3.79005e-17 0)
(3 -5.5782e-16 0)
(3 -6.66796e-16 0)
(3 4.35802e-16 0)
(3 1.40546e-15 0)
(3 -7.07952e-16 0)
(3 -2.72125e-16 0)
(3 9.80849e-16 0)
(3 -9.4944e-16 0)
(3 1.92411e-15 0)
(3 -9.42756e-16 0)
(3 8.07281e-16 0)
(3 4.49942e-16 0)
(3 -2.09066e-15 0)
(3 7.36808e-16 0)
(3 1.24301e-15 0)
(3 -1.16218e-15 0)
(3 -1.16116e-16 0)
(1.17639 0.23584 0)
(2.08961 -0.672045 0)
(2.68169 -0.750776 0)
(2.88466 -0.31066 0)
(2.9752 -0.058211 0)
(2.99964 -0.00334094 0)
(3.00036 -0.000178427 0)
(3.00011 -3.3304e-05 0)
(3 -1.35269e-07 0)
(3 -9.83021e-08 0)
(3 -4.14709e-08 0)
(3 -1.89728e-09 0)
(3 -5.04071e-12 0)
(3 2.49658e-14 0)
(3 7.45732e-15 0)
(3 8.58479e-17 0)
(3 2.37332e-16 0)
(3 -7.94231e-17 0)
(3 3.95903e-16 0)
(3 9.7474e-16 0)
(3 3.15825e-16 0)
(3 -6.31046e-16 0)
(3 2.6407e-16 0)
(3 -5.54591e-16 0)
(3 -8.23231e-16 0)
(3 1.68734e-16 0)
(3 1.57285e-15 0)
(3 1.15644e-16 0)
(3 -3.41583e-17 0)
(3 -1.33554e-15 0)
(3 -1.00852e-15 0)
(3 2.21921e-15 0)
(3 -1.25516e-15 0)
(3 8.69032e-16 0)
(3 3.91091e-16 0)
(3 -1.29915e-15 0)
(3 -2.1733e-16 0)
(3 5.22413e-16 0)
(3 3.06765e-16 0)
(3 -1.95481e-16 0)
(1.16088 0.245588 0)
(2.08388 -0.676754 0)
(2.68454 -0.769951 0)
(2.88537 -0.336186 0)
(2.97177 -0.071577 0)
(2.99856 -0.00505229 0)
(3.00026 -0.000159822 0)
(3.00009 -3.4585e-05 0)
(3 -8.04756e-07 0)
(3 -1.24486e-07 0)
(3 -5.2611e-08 0)
(3 -2.74458e-09 0)
(3 -9.40205e-12 0)
(3 3.03589e-14 0)
(3 1.01667e-14 0)
(3 3.18067e-17 0)
(3 1.74861e-15 0)
(3 -4.2828e-16 0)
(3 -2.59516e-16 0)
(3 2.10365e-16 0)
(3 1.58471e-16 0)
(3 -7.16753e-16 0)
(3 5.01073e-17 0)
(3 2.56167e-16 0)
(3 3.4629e-18 0)
(3 8.24499e-17 0)
(3 3.35392e-16 0)
(3 -9.21401e-17 0)
(3 -3.53029e-16 0)
(3 -5.41345e-16 0)
(3 -3.84833e-16 0)
(3 1.67213e-15 0)
(3 -1.35597e-15 0)
(3 1.74826e-15 0)
(3 -3.41029e-16 0)
(3 -9.25141e-16 0)
(3 8.27999e-16 0)
(3 -1.29072e-15 0)
(3 1.09324e-15 0)
(3 9.22923e-17 0)
(1.11949 0.257337 0)
(2.43133 -0.59387 0)
(2.92728 -0.646572 0)
(2.95976 -0.315157 0)
(2.97745 -0.0747585 0)
(2.99761 -0.00651049 0)
(3.00008 -0.000244836 0)
(3.00002 -2.65919e-05 0)
(3 -1.64934e-06 0)
(3 -1.98971e-07 0)
(3 -3.10525e-08 0)
(3 -1.2924e-09 0)
(3 -6.34491e-12 0)
(3 2.98134e-14 0)
(3 1.06555e-14 0)
(3 3.52074e-15 0)
(3 -6.36215e-16 0)
(3 4.55744e-16 0)
(3 -1.3177e-16 0)
(3 5.49291e-16 0)
(3 -2.73806e-15 0)
(3 -4.68813e-16 0)
(3 3.49353e-16 0)
(3 1.37043e-15 0)
(3 9.46332e-17 0)
(3 -2.69184e-16 0)
(3 -1.3055e-16 0)
(3 -3.17341e-16 0)
(3 -1.25173e-18 0)
(3 -3.81544e-16 0)
(3 7.69555e-16 0)
(3 5.56235e-16 0)
(3 -8.80881e-16 0)
(3 -4.46308e-16 0)
(3 -1.18533e-15 0)
(3 1.69703e-15 0)
(3 1.62337e-15 0)
(3 -1.85718e-15 0)
(3 6.26098e-17 0)
(3 2.41705e-16 0)
(1.25411 0.295405 0)
(3.35924 0.0372658 0)
(3.27854 -0.177757 0)
(3.11493 -0.119403 0)
(3.011 -0.0406018 0)
(2.99804 -0.00657078 0)
(2.99968 -0.000431293 0)
(2.99999 -1.28994e-05 0)
(3 -4.60109e-07 0)
(3 -6.45705e-08 0)
(3 -6.01506e-09 0)
(3 -1.47838e-10 0)
(3 -6.22454e-13 0)
(3 2.83257e-14 0)
(3 9.33795e-15 0)
(3 2.83829e-15 0)
(3 -2.19464e-15 0)
(3 1.31625e-15 0)
(3 -1.36911e-15 0)
(3 -6.84842e-16 0)
(3 5.91555e-16 0)
(3 1.2247e-15 0)
(3 -1.07297e-15 0)
(3 1.2106e-15 0)
(3 -5.69468e-16 0)
(3 -1.95361e-16 0)
(3 -5.03361e-16 0)
(3 -9.74258e-16 0)
(3 -2.58739e-16 0)
(3 1.64808e-15 0)
(3 2.83056e-16 0)
(3 -4.45821e-16 0)
(3 -5.87453e-16 0)
(3 -1.29578e-15 0)
(3 1.19171e-15 0)