/*--------------------------------*- C++ -*----------------------------------*\
  =========                 |
  \\      /  F ield         | OpenFOAM: The Open Source CFD Toolbox
   \\    /   O peration     | Website:  https://openfoam.org
    \\  /    A nd           | Version:  7
     \\/     M anipulation  |
\*---------------------------------------------------------------------------*/
FoamFile
{
    version     2.0;
    format      ascii;
    class       volVectorField;
    location    "8.5";
    object      U;
}
// * * * * * * * * * * * * * * * * * * * * * * * * * * * * * * * * * * * * * //

dimensions      [0 1 -1 0 0 0 0];

internalField   nonuniform List<vector> 
57600
(
(3.08614 -0.291049 0)
(3.08118 -0.269515 0)
(3.07692 -0.250132 0)
(3.0725 -0.230099 0)
(3.06915 -0.215262 0)
(3.06525 -0.198215 0)
(3.06237 -0.186945 0)
(3.05861 -0.171665 0)
(3.056 -0.162948 0)
(3.05221 -0.148528 0)
(3.04982 -0.141723 0)
(3.04592 -0.127598 0)
(3.0438 -0.122277 0)
(3.03971 -0.108132 0)
(3.03794 -0.103927 0)
(3.03361 -0.0897082 0)
(3.03231 -0.0862741 0)
(3.02764 -0.0719537 0)
(3.027 -0.0689397 0)
(3.02183 -0.0548358 0)
(3.02193 -0.0514637 0)
(3.01633 -0.0386808 0)
(3.01591 -0.0332343 0)
(3.01198 -0.0242714 0)
(3.01128 -0.0175786 0)
(3.00751 -0.011855 0)
(3.00733 -0.00619017 0)
(3.00493 -0.00233523 0)
(3.00137 0.00175544 0)
(2.999 0.00593855 0)
(2.99873 0.00765681 0)
(2.99702 0.00584593 0)
(2.99599 0.00493773 0)
(2.99453 0.00285752 0)
(2.99309 -0.000251274 0)
(2.99236 -0.001984 0)
(2.99166 -0.00263922 0)
(2.99154 -0.00229157 0)
(2.99098 -0.00155108 0)
(2.99169 8.77904e-05 0)
(2.9923 0.00102689 0)
(2.99349 0.00161278 0)
(2.99406 0.00176278 0)
(2.99444 0.0011808 0)
(2.99426 0.000602753 0)
(2.99375 -0.000347206 0)
(2.99285 -0.00126232 0)
(2.9922 -0.00254601 0)
(2.99171 -0.00101588 0)
(2.99195 -0.000296298 0)
(2.99243 0.000499326 0)
(2.99279 0.000562957 0)
(2.99279 0.000244786 0)
(2.99257 -0.00019685 0)
(2.99231 -0.000819969 0)
(2.99206 -0.000433869 0)
(2.99213 2.48863e-05 0)
(2.99229 0.000490288 0)
(2.99256 0.000290719 0)
(2.99244 -7.29899e-05 0)
(2.99234 -0.000146861 0)
(2.99213 -0.000151104 0)
(2.99228 1.95754e-05 0)
(2.99231 0.000154568 0)
(2.99223 5.64895e-05 0)
(2.99209 -0.000166301 0)
(2.99198 2.95231e-05 0)
(2.99197 7.88103e-05 0)
(2.99193 3.62744e-05 0)
(2.99185 -4.80555e-05 0)
(2.99174 -0.000114385 0)
(2.99164 -0.000103673 0)
(2.99147 3.93731e-05 0)
(2.99125 -0.00013357 0)
(2.99124 -0.000176625 0)
(2.99122 -5.59109e-05 0)
(2.9912 3.91729e-05 0)
(2.99122 6.43156e-05 0)
(2.99119 5.57214e-05 0)
(2.99111 1.76908e-05 0)
(3.08896 -0.308352 0)
(3.08764 -0.30759 0)
(3.08549 -0.306066 0)
(3.08261 -0.303339 0)
(3.07932 -0.299735 0)
(3.07547 -0.294336 0)
(3.07159 -0.28835 0)
(3.06717 -0.279834 0)
(3.06318 -0.271419 0)
(3.05842 -0.259444 0)
(3.05446 -0.248885 0)
(3.04927 -0.233303 0)
(3.04558 -0.221054 0)
(3.03997 -0.201815 0)
(3.03686 -0.188644 0)
(3.03082 -0.165983 0)
(3.02865 -0.152848 0)
(3.02216 -0.127213 0)
(3.02119 -0.114996 0)
(3.01437 -0.0877935 0)
(3.01444 -0.0768719 0)
(3.00763 -0.0500495 0)
(3.00827 -0.0408996 0)
(3.0017 -0.0165927 0)
(3.00212 -0.00929852 0)
(2.99631 0.00980873 0)
(2.99564 0.0150197 0)
(2.99169 0.0267643 0)
(2.99064 0.0290407 0)
(2.9894 0.0260984 0)
(2.98982 0.0211151 0)
(2.98811 0.00967729 0)
(2.99143 0.00660454 0)
(2.99184 0.00250531 0)
(2.99261 -0.00195627 0)
(2.99237 -0.0037251 0)
(2.99319 -0.00370899 0)
(2.99311 -0.0035505 0)
(2.99434 -0.00120272 0)
(2.99478 0.0010757 0)
(2.9943 0.00319836 0)
(2.99418 0.00465432 0)
(2.9941 0.00429982 0)
(2.99356 0.00232461 0)
(2.99292 -0.000520851 0)
(2.99277 -0.0028637 0)
(2.99238 -0.00431173 0)
(2.9925 -0.00335384 0)
(2.99237 -0.00121361 0)
(2.99231 0.000681529 0)
(2.99249 0.00233337 0)
(2.99244 0.001712 0)
(2.99224 0.000394666 0)
(2.99192 -0.00148924 0)
(2.99201 -0.00121047 0)
(2.99223 -0.00031238 0)
(2.99226 0.00129208 0)
(2.99221 0.00178124 0)
(2.99209 0.000863041 0)
(2.99191 -0.000685157 0)
(2.99193 -0.000874411 0)
(2.99207 -0.000269208 0)
(2.99206 0.000739435 0)
(2.99197 0.000493289 0)
(2.99184 -0.000134621 0)
(2.9918 -5.67995e-05 0)
(2.99174 0.000201473 0)
(2.99171 0.0002225 0)
(2.99164 4.00598e-05 0)
(2.9916 -0.000137449 0)
(2.99152 -6.45977e-05 0)
(2.9914 -0.000104084 0)
(2.99121 -0.000361966 0)
(2.99104 -8.62508e-05 0)
(2.99098 0.000191813 0)
(2.99094 0.000310605 0)
(2.99097 0.000306665 0)
(2.99103 0.000273315 0)
(2.99101 0.000145989 0)
(2.99095 -3.27885e-06 0)
(3.08655 -0.308241 0)
(3.08647 -0.308219 0)
(3.08639 -0.308193 0)
(3.08629 -0.308126 0)
(3.08618 -0.308048 0)
(3.08602 -0.307895 0)
(3.0858 -0.307683 0)
(3.08546 -0.307341 0)
(3.0849 -0.30684 0)
(3.08414 -0.306102 0)
(3.0832 -0.304939 0)
(3.08204 -0.3033 0)
(3.08063 -0.300925 0)
(3.07888 -0.297664 0)
(3.07683 -0.293385 0)
(3.07426 -0.287525 0)
(3.07151 -0.280576 0)
(3.068 -0.27072 0)
(3.06458 -0.260712 0)
(3.05977 -0.245544 0)
(3.05589 -0.232909 0)
(3.04976 -0.21136 0)
(3.04601 -0.197486 0)
(3.03891 -0.170115 0)
(3.03588 -0.157125 0)
(3.02861 -0.126653 0)
(3.02674 -0.11671 0)
(3.0206 -0.0884283 0)
(3.02105 -0.0810035 0)
(3.01474 -0.0597187 0)
(3.0168 -0.0513361 0)
(3.0065 -0.03312 0)
(3.00649 -0.0254013 0)
(3.00153 -0.0162934 0)
(3.00106 -0.0100118 0)
(2.99856 -0.00650696 0)
(2.99882 -0.00228741 0)
(2.99767 0.00188503 0)
(2.99634 0.0057644 0)
(2.9954 0.00636454 0)
(2.99329 0.00547976 0)
(2.99182 0.00348332 0)
(2.99057 1.52863e-05 0)
(2.99019 -0.00233766 0)
(2.99045 -0.00486584 0)
(2.99085 -0.00504318 0)
(2.99169 -0.00362093 0)
(2.9923 -0.00176351 0)
(2.9925 0.000666394 0)
(2.9924 0.00245115 0)
(2.99151 0.00166393 0)
(2.99098 0.000571763 0)
(2.9902 -0.00194563 0)
(2.99054 -0.00174643 0)
(2.99128 -0.00101445 0)
(2.99166 0.00149072 0)
(2.99152 0.00168371 0)
(2.99114 0.0010269 0)
(2.99061 -0.000926765 0)
(2.99077 -0.00112125 0)
(2.99107 -0.000519782 0)
(2.99126 0.000745467 0)
(2.99117 0.000553709 0)
(2.99086 -0.000233445 0)
(2.99085 -0.000258797 0)
(2.99095 -4.54112e-05 0)
(2.99094 1.1255e-05 0)
(2.9909 -2.48022e-05 0)
(2.99088 -8.13814e-05 0)
(2.99086 -4.07132e-05 0)
(2.99081 -0.000104845 0)
(2.99068 -0.000446169 0)
(2.99062 -0.000521863 0)
(2.99047 -8.6386e-05 0)
(2.99034 -3.53805e-05 0)
(2.99034 -4.08542e-05 0)
(2.99041 6.97483e-05 0)
(2.99048 0.000107616 0)
(2.99052 2.23655e-05 0)
(2.9905 -3.71344e-05 0)
(3.08221 -0.307737 0)
(3.08217 -0.307754 0)
(3.08213 -0.307782 0)
(3.0821 -0.307803 0)
(3.08205 -0.307836 0)
(3.082 -0.307864 0)
(3.08193 -0.307896 0)
(3.08186 -0.307902 0)
(3.08176 -0.307887 0)
(3.08165 -0.307835 0)
(3.08155 -0.307778 0)
(3.08144 -0.307698 0)
(3.08134 -0.307612 0)
(3.08122 -0.307451 0)
(3.08109 -0.307275 0)
(3.08093 -0.306959 0)
(3.08064 -0.306551 0)
(3.08012 -0.305919 0)
(3.07944 -0.304884 0)
(3.07854 -0.303165 0)
(3.07738 -0.30062 0)
(3.07571 -0.296426 0)
(3.0737 -0.291006 0)
(3.07053 -0.281683 0)
(3.06734 -0.271781 0)
(3.06162 -0.253107 0)
(3.05752 -0.238191 0)
(3.04834 -0.205819 0)
(3.045 -0.187734 0)
(3.03221 -0.139991 0)
(3.03203 -0.123676 0)
(3.01876 -0.0729698 0)
(3.01925 -0.0648678 0)
(3.00715 -0.0253229 0)
(3.00789 -0.02126 0)
(3.00058 0.000972364 0)
(2.9977 0.00321589 0)
(2.99502 0.0134339 0)
(2.99196 0.01095 0)
(2.99087 0.0054069 0)
(2.99112 0.00114419 0)
(2.99027 -0.00138028 0)
(2.98947 -0.00324272 0)
(2.98966 -0.00268267 0)
(2.99 -0.00166841 0)
(2.99031 7.4176e-05 0)
(2.99058 0.00316337 0)
(2.99098 0.00304383 0)
(2.99052 0.00172263 0)
(2.98976 0.000272686 0)
(2.98882 -0.00259133 0)
(2.9885 -0.00117392 0)
(2.9888 -9.6552e-05 0)
(2.98972 0.000761128 0)
(2.99019 0.00198431 0)
(2.99002 0.00120966 0)
(2.98961 -4.57731e-06 0)
(2.98932 -0.000117729 0)
(2.98931 0.000273742 0)
(2.98959 0.000702145 0)
(2.98996 0.000729949 0)
(2.98992 0.000239492 0)
(2.98991 -0.000112547 0)
(2.98967 5.14016e-05 0)
(2.98972 0.000251375 0)
(2.9899 0.000275571 0)
(2.98991 0.000194088 0)
(2.98989 0.000142499 0)
(2.9899 0.000105517 0)
(2.9899 -5.13693e-05 0)
(2.9899 -0.000251758 0)
(2.98982 -0.000387878 0)
(2.98981 -0.000331839 0)
(2.98975 -0.000263774 0)
(2.98966 0.000104076 0)
(2.9897 0.000252104 0)
(2.98976 0.00032368 0)
(2.98981 0.000269993 0)
(2.98988 0.00012384 0)
(2.98992 2.43857e-05 0)
(3.07853 -0.307296 0)
(3.07849 -0.307294 0)
(3.07845 -0.307306 0)
(3.07842 -0.307309 0)
(3.07837 -0.307323 0)
(3.07834 -0.307336 0)
(3.07829 -0.307369 0)
(3.07825 -0.307383 0)
(3.07824 -0.307417 0)
(3.07824 -0.307469 0)
(3.07825 -0.307531 0)
(3.07828 -0.307556 0)
(3.07828 -0.307615 0)
(3.07828 -0.307642 0)
(3.07826 -0.307722 0)
(3.07823 -0.307717 0)
(3.0782 -0.30774 0)
(3.07816 -0.307694 0)
(3.07812 -0.307649 0)
(3.07808 -0.30758 0)
(3.07804 -0.307488 0)
(3.07799 -0.307333 0)
(3.07791 -0.307107 0)
(3.07775 -0.306647 0)
(3.07743 -0.305913 0)
(3.07687 -0.304561 0)
(3.07595 -0.301918 0)
(3.07438 -0.297577 0)
(3.07211 -0.290467 0)
(3.06818 -0.278453 0)
(3.06372 -0.263592 0)
(3.0558 -0.236368 0)
(3.05041 -0.215162 0)
(3.03829 -0.169632 0)
(3.03479 -0.151851 0)
(3.02232 -0.101134 0)
(3.02034 -0.0944662 0)
(3.01121 -0.0568027 0)
(3.01307 -0.057254 0)
(3.00218 -0.0354084 0)
(3.00312 -0.029735 0)
(2.99736 -0.0191688 0)
(2.99564 -0.0123227 0)
(2.99472 -0.00513305 0)
(2.99057 0.00093357 0)
(2.98877 0.00637857 0)
(2.98786 0.0058828 0)
(2.98678 0.00211921 0)
(2.98646 -0.00103655 0)
(2.98629 -0.00495647 0)
(2.98654 -0.00515913 0)
(2.98788 -0.00221308 0)
(2.98844 9.96739e-05 0)
(2.98923 0.00277619 0)
(2.98904 0.00217956 0)
(2.98849 0.000577901 0)
(2.98815 -0.00183737 0)
(2.98838 -0.00160622 0)
(2.98875 -0.000575775 0)
(2.98917 0.00112043 0)
(2.98912 0.000793024 0)
(2.98909 -0.000147237 0)
(2.98907 -0.000597445 0)
(2.98916 -0.000289427 0)
(2.98925 0.000263598 0)
(2.98942 4.99293e-05 0)
(2.98937 -0.000107401 0)
(2.98935 -0.00011006 0)
(2.98942 -3.36134e-05 0)
(2.98943 -8.27111e-05 0)
(2.9894 -0.000365964 0)
(2.98934 -0.000722379 0)
(2.98937 -0.000697071 0)
(2.98936 -0.000468568 0)
(2.98937 -7.63389e-05 0)
(2.9894 0.000130052 0)
(2.98943 0.00028888 0)
(2.98946 0.000321168 0)
(2.98954 0.000118159 0)
(2.98963 -9.08425e-05 0)
(3.0771 -0.307169 0)
(3.0771 -0.307184 0)
(3.07711 -0.307185 0)
(3.07711 -0.307201 0)
(3.07712 -0.307201 0)
(3.07713 -0.307211 0)
(3.07713 -0.307232 0)
(3.07714 -0.30725 0)
(3.07716 -0.307271 0)
(3.07717 -0.307302 0)
(3.0772 -0.307325 0)
(3.07722 -0.307369 0)
(3.07726 -0.307395 0)
(3.07729 -0.307417 0)
(3.07733 -0.307449 0)
(3.07737 -0.30749 0)
(3.07739 -0.307498 0)
(3.07747 -0.307553 0)
(3.07755 -0.307599 0)
(3.07762 -0.307667 0)
(3.0777 -0.307722 0)
(3.07776 -0.307795 0)
(3.07782 -0.307852 0)
(3.07782 -0.307887 0)
(3.0779 -0.307901 0)
(3.07799 -0.307879 0)
(3.07806 -0.307842 0)
(3.07812 -0.307736 0)
(3.07811 -0.307525 0)
(3.07796 -0.306954 0)
(3.07764 -0.305695 0)
(3.07673 -0.30279 0)
(3.07505 -0.297433 0)
(3.07137 -0.2863 0)
(3.06678 -0.271455 0)
(3.05719 -0.240457 0)
(3.0514 -0.21619 0)
(3.0349 -0.158798 0)
(3.03399 -0.136643 0)
(3.01509 -0.0692391 0)
(3.01745 -0.0596068 0)
(3.00356 -0.0145959 0)
(3.00266 -0.00926694 0)
(2.99598 0.0133712 0)
(2.99238 0.0133376 0)
(2.98898 0.00815599 0)
(2.98819 0.00175199 0)
(2.98647 -0.00212624 0)
(2.98608 -0.00415579 0)
(2.98665 -0.00393043 0)
(2.98789 -0.00166528 0)
(2.99029 0.0026722 0)
(2.9895 0.00235624 0)
(2.98904 0.00190756 0)
(2.98813 -0.000516756 0)
(2.98818 -0.000869172 0)
(2.9883 -0.000833033 0)
(2.9888 0.000306479 0)
(2.98923 0.00136998 0)
(2.98919 0.00115746 0)
(2.98896 0.000225472 0)
(2.98907 1.43562e-05 0)
(2.98942 4.11665e-05 0)
(2.98969 0.000137445 0)
(2.98971 0.000487254 0)
(2.98966 0.000304991 0)
(2.9896 4.81908e-07 0)
(2.98963 1.92786e-05 0)
(2.98975 -8.27738e-05 0)
(2.98969 -0.000232954 0)
(2.98961 -0.000396535 0)
(2.98962 -0.000426522 0)
(2.98967 -0.00042033 0)
(2.9897 -0.000304985 0)
(2.98967 -3.54397e-05 0)
(2.98973 0.000346827 0)
(2.98971 0.000480914 0)
(2.98974 0.000410827 0)
(2.98981 0.000171157 0)
(2.98987 1.9879e-06 0)
(3.07805 -0.307246 0)
(3.07808 -0.307253 0)
(3.0781 -0.307256 0)
(3.07814 -0.307255 0)
(3.07817 -0.307269 0)
(3.0782 -0.307268 0)
(3.07824 -0.307273 0)
(3.07827 -0.307293 0)
(3.07832 -0.307307 0)
(3.07836 -0.307337 0)
(3.07841 -0.307359 0)
(3.07847 -0.307384 0)
(3.07852 -0.30743 0)
(3.07858 -0.307466 0)
(3.07865 -0.307492 0)
(3.07871 -0.307527 0)
(3.07878 -0.307566 0)
(3.07885 -0.307588 0)
(3.07892 -0.307645 0)
(3.079 -0.307664 0)
(3.07908 -0.307691 0)
(3.07917 -0.30771 0)
(3.07924 -0.307805 0)
(3.07933 -0.307829 0)
(3.07942 -0.307876 0)
(3.07951 -0.307939 0)
(3.07958 -0.308084 0)
(3.07969 -0.30816 0)
(3.07976 -0.308284 0)
(3.07974 -0.30833 0)
(3.07999 -0.308304 0)
(3.08014 -0.308272 0)
(3.08019 -0.30815 0)
(3.08011 -0.307799 0)
(3.0799 -0.306735 0)
(3.07908 -0.304086 0)
(3.07728 -0.298109 0)
(3.07302 -0.28597 0)
(3.0676 -0.267389 0)
(3.05692 -0.231168 0)
(3.05046 -0.202976 0)
(3.03473 -0.141638 0)
(3.03228 -0.125779 0)
(3.01898 -0.0699713 0)
(3.02159 -0.0692765 0)
(3.0095 -0.0404825 0)
(3.00841 -0.0322479 0)
(3.00218 -0.019121 0)
(2.99826 -0.00811366 0)
(2.99511 -0.000534173 0)
(2.99183 0.0046775 0)
(2.99131 0.00424801 0)
(2.98972 0.00141477 0)
(2.98892 -0.00156745 0)
(2.98916 -0.00393905 0)
(2.98949 -0.00311605 0)
(2.99016 -0.00076101 0)
(2.99078 0.00214924 0)
(2.99035 0.00188827 0)
(2.98974 0.000973508 0)
(2.98958 -0.000881581 0)
(2.98988 -0.000913712 0)
(2.99045 7.69856e-05 0)
(2.99057 0.000452054 0)
(2.99042 0.000224746 0)
(2.99038 -6.6056e-05 0)
(2.99047 -8.96926e-05 0)
(2.99057 2.82031e-05 0)
(2.99056 -1.20373e-05 0)
(2.99041 -0.00043268 0)
(2.99039 -0.000800599 0)
(2.99046 -0.000750134 0)
(2.99054 -0.000598234 0)
(2.99054 -0.000487143 0)
(2.99049 -0.000239783 0)
(2.99048 4.98153e-05 0)
(2.9905 0.000314662 0)
(2.99052 0.000383264 0)
(2.99054 0.000200782 0)
(2.99055 -4.78344e-05 0)
(3.08018 -0.307529 0)
(3.0802 -0.307536 0)
(3.08023 -0.30754 0)
(3.08026 -0.30754 0)
(3.0803 -0.307553 0)
(3.08033 -0.307546 0)
(3.08036 -0.307536 0)
(3.08039 -0.307553 0)
(3.08043 -0.307553 0)
(3.08048 -0.307561 0)
(3.08052 -0.307578 0)
(3.08057 -0.307597 0)
(3.08062 -0.307627 0)
(3.08067 -0.30766 0)
(3.08073 -0.307694 0)
(3.08078 -0.307726 0)
(3.08084 -0.307741 0)
(3.0809 -0.307753 0)
(3.08096 -0.30779 0)
(3.08102 -0.307832 0)
(3.08108 -0.307852 0)
(3.08115 -0.307882 0)
(3.08122 -0.307946 0)
(3.08129 -0.307997 0)
(3.08137 -0.308055 0)
(3.08145 -0.308148 0)
(3.08154 -0.308253 0)
(3.08164 -0.308316 0)
(3.08175 -0.308387 0)
(3.08187 -0.308474 0)
(3.08196 -0.308527 0)
(3.08205 -0.30859 0)
(3.08211 -0.308685 0)
(3.08215 -0.308619 0)
(3.0822 -0.308612 0)
(3.08232 -0.308503 0)
(3.08233 -0.308317 0)
(3.08229 -0.307727 0)
(3.0819 -0.306206 0)
(3.08049 -0.301962 0)
(3.07765 -0.293101 0)
(3.07086 -0.272469 0)
(3.06427 -0.24721 0)
(3.04784 -0.190904 0)
(3.04552 -0.160617 0)
(3.02371 -0.0777299 0)
(3.02726 -0.0640988 0)
(3.01131 -0.00898347 0)
(3.00743 -0.00181701 0)
(3.00236 0.0196388 0)
(2.99593 0.0123212 0)
(2.99242 0.0030236 0)
(2.99123 -0.00201533 0)
(2.99109 -0.00332545 0)
(2.99151 -0.00310382 0)
(2.99247 0.000144535 0)
(2.9926 0.00206843 0)
(2.99218 0.00203571 0)
(2.99099 0.000403118 0)
(2.99049 -0.000460019 0)
(2.99063 -0.000540136 0)
(2.99113 0.000194697 0)
(2.99137 0.000812962 0)
(2.99134 0.000535212 0)
(2.99107 0.000172613 0)
(2.99139 -0.000129898 0)
(2.9915 3.70179e-05 0)
(2.99151 2.18921e-05 0)
(2.99136 -0.000334491 0)
(2.99128 -0.000465801 0)
(2.99138 -0.000537586 0)
(2.99146 -0.000518639 0)
(2.99147 -0.000471446 0)
(2.99147 -0.00034006 0)
(2.99145 -0.000125329 0)
(2.99142 0.000168362 0)
(2.99139 0.000281549 0)
(2.99141 0.000325115 0)
(2.99137 0.000229487 0)
(2.99139 0.000119652 0)
(3.08226 -0.307938 0)
(3.08227 -0.307936 0)
(3.08229 -0.30794 0)
(3.08231 -0.307939 0)
(3.08232 -0.307938 0)
(3.08234 -0.307931 0)
(3.08236 -0.307919 0)
(3.08237 -0.307929 0)
(3.08239 -0.307944 0)
(3.08241 -0.307943 0)
(3.08243 -0.307944 0)
(3.08245 -0.307968 0)
(3.08247 -0.308004 0)
(3.0825 -0.308015 0)
(3.08253 -0.308014 0)
(3.08255 -0.308042 0)
(3.08258 -0.308061 0)
(3.0826 -0.308069 0)
(3.08263 -0.308083 0)
(3.08267 -0.30809 0)
(3.0827 -0.308103 0)
(3.08275 -0.308135 0)
(3.0828 -0.308155 0)
(3.08286 -0.30818 0)
(3.08291 -0.30822 0)
(3.08297 -0.308268 0)
(3.08304 -0.308306 0)
(3.08311 -0.308371 0)
(3.08318 -0.30844 0)
(3.08326 -0.308519 0)
(3.08334 -0.308579 0)
(3.08344 -0.308636 0)
(3.08355 -0.308698 0)
(3.08366 -0.308741 0)
(3.08366 -0.308743 0)
(3.08366 -0.308747 0)
(3.0837 -0.308672 0)
(3.08375 -0.30853 0)
(3.08373 -0.308501 0)
(3.08371 -0.308101 0)
(3.08365 -0.307629 0)
(3.0833 -0.306396 0)
(3.08217 -0.302878 0)
(3.079 -0.294263 0)
(3.07374 -0.276107 0)
(3.06324 -0.240876 0)
(3.05522 -0.204422 0)
(3.03873 -0.136735 0)
(3.03486 -0.114737 0)
(3.0223 -0.0609655 0)
(3.02723 -0.054626 0)
(3.0098 -0.0266084 0)
(3.00391 -0.0170661 0)
(3.00246 -0.00730451 0)
(2.99563 0.000165613 0)
(2.99382 0.00570909 0)
(2.99253 0.0037638 0)
(2.99159 -2.48644e-05 0)
(2.99145 -0.0032121 0)
(2.9917 -0.00247118 0)
(2.99254 4.3694e-05 0)
(2.99271 0.00209412 0)
(2.99248 0.00155375 0)
(2.99206 0.000280161 0)
(2.99189 -0.000548115 0)
(2.99208 -0.000138938 0)
(2.99228 0.000233586 0)
(2.99221 9.14227e-05 0)
(2.99192 -0.000573764 0)
(2.99206 -0.000920709 0)
(2.99212 -0.000696776 0)
(2.99215 -0.000440588 0)
(2.99216 -0.000497496 0)
(2.9922 -0.00040665 0)
(2.99224 -0.000168562 0)
(2.99222 2.93928e-05 0)
(2.99216 0.000265623 0)
(2.99215 0.000291834 0)
(2.99209 0.000110276 0)
(2.99212 2.3611e-05 0)
(3.08374 -0.308337 0)
(3.08374 -0.308339 0)
(3.08374 -0.308338 0)
(3.08374 -0.308337 0)
(3.08374 -0.30834 0)
(3.08375 -0.308342 0)
(3.08374 -0.308342 0)
(3.08374 -0.308341 0)
(3.08374 -0.30834 0)
(3.08373 -0.308342 0)
(3.08372 -0.308349 0)
(3.08372 -0.308347 0)
(3.08372 -0.308349 0)
(3.08371 -0.308366 0)
(3.08371 -0.308362 0)
(3.0837 -0.308349 0)
(3.08369 -0.308341 0)
(3.08369 -0.308328 0)
(3.08369 -0.308325 0)
(3.08369 -0.308351 0)
(3.0837 -0.308368 0)
(3.08372 -0.308377 0)
(3.08374 -0.308395 0)
(3.08376 -0.308398 0)
(3.08378 -0.308413 0)
(3.08379 -0.308475 0)
(3.08381 -0.308528 0)
(3.08382 -0.308537 0)
(3.08382 -0.308547 0)
(3.08383 -0.308601 0)
(3.08388 -0.308657 0)
(3.08395 -0.308705 0)
(3.08405 -0.308727 0)
(3.08418 -0.308745 0)
(3.08432 -0.308719 0)
(3.08437 -0.308696 0)
(3.08444 -0.308647 0)
(3.08447 -0.308547 0)
(3.08445 -0.30846 0)
(3.0844 -0.308267 0)
(3.08437 -0.308156 0)
(3.08431 -0.307933 0)
(3.08424 -0.307679 0)
(3.0841 -0.307378 0)
(3.08366 -0.306338 0)
(3.08217 -0.302319 0)
(3.07909 -0.292827 0)
(3.07066 -0.266254 0)
(3.06363 -0.235564 0)
(3.04179 -0.159424 0)
(3.04414 -0.12756 0)
(3.02003 -0.0377937 0)
(3.01843 -0.0273035 0)
(3.00864 0.0152751 0)
(3.0014 0.0134882 0)
(2.99606 0.00598107 0)
(2.99503 8.74012e-05 0)
(2.99305 -0.00347895 0)
(2.99324 -0.00311799 0)
(2.99434 0.000993288 0)
(2.99409 0.0021501 0)
(2.99341 0.0017254 0)
(2.99242 -0.000225315 0)
(2.99212 -0.000833519 0)
(2.99249 -0.000250742 0)
(2.99287 0.00065618 0)
(2.99279 0.000535101 0)
(2.99258 -0.00029151 0)
(2.99243 -0.000761647 0)
(2.99255 -0.000673824 0)
(2.99261 -0.000423577 0)
(2.99262 -0.000397079 0)
(2.99265 -0.000408742 0)
(2.99276 -0.000363969 0)
(2.99283 -0.000107523 0)
(2.99279 -7.62833e-06 0)
(2.99273 3.17822e-05 0)
(2.99267 0.000279069 0)
(2.99265 0.000190034 0)
(2.9927 0.000133305 0)
(3.08448 -0.308672 0)
(3.08447 -0.308674 0)
(3.08447 -0.308678 0)
(3.08446 -0.308683 0)
(3.08445 -0.308686 0)
(3.08444 -0.308685 0)
(3.08443 -0.308682 0)
(3.08442 -0.308675 0)
(3.0844 -0.308664 0)
(3.08438 -0.308655 0)
(3.08436 -0.308649 0)
(3.08434 -0.30863 0)
(3.08432 -0.30862 0)
(3.08429 -0.308611 0)
(3.08427 -0.308591 0)
(3.08424 -0.308573 0)
(3.08421 -0.308558 0)
(3.08418 -0.308549 0)
(3.08416 -0.308528 0)
(3.08415 -0.308498 0)
(3.08413 -0.308472 0)
(3.08411 -0.308437 0)
(3.08409 -0.308397 0)
(3.08408 -0.30839 0)
(3.08406 -0.308394 0)
(3.08405 -0.308424 0)
(3.08405 -0.308455 0)
(3.08406 -0.308451 0)
(3.08408 -0.30843 0)
(3.0841 -0.30845 0)
(3.08413 -0.308495 0)
(3.08418 -0.308538 0)
(3.08425 -0.30857 0)
(3.08435 -0.308612 0)
(3.08449 -0.308639 0)
(3.08457 -0.308636 0)
(3.08463 -0.308613 0)
(3.08471 -0.308511 0)
(3.08474 -0.308368 0)
(3.08474 -0.308209 0)
(3.08468 -0.308095 0)
(3.08459 -0.307944 0)
(3.08445 -0.307849 0)
(3.08427 -0.307815 0)
(3.0842 -0.307794 0)
(3.08411 -0.307787 0)
(3.08394 -0.307522 0)
(3.08334 -0.305953 0)
(3.08165 -0.300251 0)
(3.07639 -0.284675 0)
(3.06898 -0.255925 0)
(3.05259 -0.195361 0)
(3.04707 -0.16037 0)
(3.02676 -0.075782 0)
(3.03215 -0.0749748 0)
(3.01456 -0.0355862 0)
(3.01128 -0.0240878 0)
(3.00619 -0.00896697 0)
(2.9962 -0.000898744 0)
(2.99525 0.0065042 0)
(2.993 0.00397673 0)
(2.99174 -0.00059415 0)
(2.99233 -0.00286822 0)
(2.99289 -0.00135136 0)
(2.99358 0.00102753 0)
(2.99349 0.00100072 0)
(2.99291 -0.000172284 0)
(2.99268 -0.00159726 0)
(2.99288 -0.00111757 0)
(2.99308 -0.000352776 0)
(2.99309 -0.000270681 0)
(2.99307 -0.000453919 0)
(2.99317 -0.0004497 0)
(2.9933 -0.000292597 0)
(2.99328 -6.80889e-05 0)
(2.99325 -9.23834e-05 0)
(2.9932 -0.000116882 0)
(2.99309 4.89489e-05 0)
(2.9931 0.000123829 0)
(2.99315 0.000125585 0)
(3.08466 -0.30897 0)
(3.08465 -0.308979 0)
(3.08464 -0.308986 0)
(3.08463 -0.308999 0)
(3.08461 -0.309008 0)
(3.0846 -0.309001 0)
(3.08459 -0.309002 0)
(3.08456 -0.309012 0)
(3.08455 -0.308994 0)
(3.08453 -0.308958 0)
(3.0845 -0.308941 0)
(3.08448 -0.308905 0)
(3.08446 -0.308855 0)
(3.08442 -0.30882 0)
(3.08439 -0.308783 0)
(3.08436 -0.308733 0)
(3.08433 -0.308674 0)
(3.0843 -0.308615 0)
(3.08428 -0.308562 0)
(3.08426 -0.30852 0)
(3.08423 -0.308484 0)
(3.0842 -0.308438 0)
(3.08417 -0.308381 0)
(3.08414 -0.308332 0)
(3.08413 -0.308306 0)
(3.08412 -0.308292 0)
(3.08411 -0.308274 0)
(3.08411 -0.308211 0)
(3.08412 -0.308141 0)
(3.08413 -0.308133 0)
(3.08414 -0.308147 0)
(3.08417 -0.308171 0)
(3.08421 -0.308192 0)
(3.08428 -0.308248 0)
(3.08438 -0.308326 0)
(3.08451 -0.308397 0)
(3.08463 -0.308448 0)
(3.0847 -0.308422 0)
(3.08473 -0.308383 0)
(3.08476 -0.308329 0)
(3.08475 -0.308244 0)
(3.08469 -0.308126 0)
(3.08454 -0.308022 0)
(3.08432 -0.307933 0)
(3.08411 -0.307865 0)
(3.08402 -0.3079 0)
(3.08399 -0.307935 0)
(3.084 -0.308017 0)
(3.0841 -0.308013 0)
(3.084 -0.307158 0)
(3.08306 -0.303878 0)
(3.07915 -0.292427 0)
(3.07271 -0.268738 0)
(3.05416 -0.209846 0)
(3.05092 -0.165682 0)
(3.02351 -0.0596507 0)
(3.02611 -0.0452602 0)
(3.01111 0.0117801 0)
(3.00268 0.011931 0)
(2.99577 0.00536441 0)
(2.99314 -0.000857963 0)
(2.99284 -0.00340176 0)
(2.99355 -0.00203663 0)
(2.99496 0.0025984 0)
(2.9947 0.00240788 0)
(2.9936 0.000520605 0)
(2.993 -0.00110575 0)
(2.9931 -0.00112745 0)
(2.9938 -5.7792e-05 0)
(2.99363 4.29193e-05 0)
(2.99348 -0.000289369 0)
(2.9935 -0.000656969 0)
(2.99362 -0.000372861 0)
(2.99367 -6.44372e-05 0)
(2.99366 -6.40113e-05 0)
(2.99362 -0.000227149 0)
(2.99359 -0.000196576 0)
(2.99351 -4.05962e-05 0)
(2.99343 0.000125205 0)
(2.99346 0.000185594 0)
(3.08459 -0.309025 0)
(3.08458 -0.309024 0)
(3.08458 -0.309026 0)
(3.08458 -0.309036 0)
(3.08457 -0.309041 0)
(3.08457 -0.309044 0)
(3.08456 -0.309048 0)
(3.08454 -0.309045 0)
(3.08453 -0.309044 0)
(3.08451 -0.309031 0)
(3.08449 -0.308998 0)
(3.08446 -0.308977 0)
(3.08443 -0.308965 0)
(3.0844 -0.308921 0)
(3.08438 -0.308866 0)
(3.08434 -0.308845 0)
(3.08431 -0.308824 0)
(3.0843 -0.308755 0)
(3.08428 -0.30867 0)
(3.08425 -0.308602 0)
(3.08422 -0.308525 0)
(3.0842 -0.308437 0)
(3.08418 -0.308365 0)
(3.08415 -0.308312 0)
(3.08414 -0.308257 0)
(3.08412 -0.308207 0)
(3.0841 -0.308167 0)
(3.08407 -0.30809 0)
(3.08404 -0.30799 0)
(3.08402 -0.307934 0)
(3.08402 -0.30792 0)
(3.08402 -0.307916 0)
(3.08405 -0.307906 0)
(3.08409 -0.307921 0)
(3.08418 -0.307987 0)
(3.08428 -0.308108 0)
(3.0844 -0.308261 0)
(3.08452 -0.308408 0)
(3.08461 -0.308499 0)
(3.08465 -0.308514 0)
(3.08465 -0.308488 0)
(3.08463 -0.308416 0)
(3.08454 -0.308315 0)
(3.08437 -0.308144 0)
(3.08412 -0.307976 0)
(3.08393 -0.307917 0)
(3.08388 -0.30789 0)
(3.0839 -0.3079 0)
(3.08399 -0.307887 0)
(3.08421 -0.307985 0)
(3.08441 -0.308012 0)
(3.08431 -0.307467 0)
(3.08357 -0.305238 0)
(3.0805 -0.297092 0)
(3.07427 -0.275396 0)
(3.05968 -0.226082 0)
(3.05071 -0.179531 0)
(3.02878 -0.0886721 0)
(3.03332 -0.0816806 0)
(3.01626 -0.0394402 0)
(3.00846 -0.0242341 0)
(3.00654 -0.00822303 0)
(2.99635 0.00492658 0)
(2.99492 0.00419657 0)
(2.99305 0.000453088 0)
(2.9928 -0.00337216 0)
(2.9932 -0.00268931 0)
(2.99386 -0.000566018 0)
(2.99429 0.000585657 0)
(2.99399 5.51635e-05 0)
(2.99367 -0.000970128 0)
(2.99381 -0.000630848 0)
(2.99395 -6.59039e-06 0)
(2.99399 5.79018e-05 0)
(2.99393 -0.000202093 0)
(2.99383 -0.000373596 0)
(2.99383 -0.000280214 0)
(2.99375 -0.00023474 0)
(2.99361 1.48174e-05 0)
(2.99361 0.000185134 0)
(3.08448 -0.308918 0)
(3.08448 -0.308921 0)
(3.08449 -0.308919 0)
(3.08449 -0.308915 0)
(3.08449 -0.308915 0)
(3.08449 -0.308906 0)
(3.0845 -0.3089 0)
(3.0845 -0.308894 0)
(3.0845 -0.308869 0)
(3.0845 -0.308843 0)
(3.08449 -0.308828 0)
(3.08449 -0.308798 0)
(3.08448 -0.308764 0)
(3.08446 -0.308754 0)
(3.08445 -0.308746 0)
(3.08443 -0.30874 0)
(3.08441 -0.308735 0)
(3.08439 -0.308686 0)
(3.08437 -0.308607 0)
(3.08433 -0.308538 0)
(3.08429 -0.308476 0)
(3.08425 -0.308395 0)
(3.08421 -0.30832 0)
(3.08417 -0.308264 0)
(3.08415 -0.308212 0)
(3.08412 -0.308161 0)
(3.0841 -0.308089 0)
(3.08406 -0.308 0)
(3.08401 -0.307935 0)
(3.08396 -0.307898 0)
(3.08393 -0.30787 0)
(3.08392 -0.30786 0)
(3.08392 -0.307855 0)
(3.08392 -0.307869 0)
(3.08394 -0.307916 0)
(3.084 -0.30802 0)
(3.08408 -0.3082 0)
(3.08422 -0.308422 0)
(3.08439 -0.308599 0)
(3.0845 -0.308661 0)
(3.08452 -0.30866 0)
(3.08452 -0.308639 0)
(3.08451 -0.308556 0)
(3.08443 -0.308387 0)
(3.08425 -0.308188 0)
(3.08401 -0.308006 0)
(3.08386 -0.307872 0)
(3.08385 -0.307809 0)
(3.0839 -0.307765 0)
(3.08405 -0.307706 0)
(3.08425 -0.30777 0)
(3.08441 -0.308025 0)
(3.08439 -0.308076 0)
(3.0842 -0.307692 0)
(3.08355 -0.306206 0)
(3.08085 -0.299095 0)
(3.07486 -0.27932 0)
(3.05819 -0.227725 0)
(3.05112 -0.172836 0)
(3.02434 -0.0656943 0)
(3.02505 -0.0428294 0)
(3.00917 0.0150147 0)
(3.00156 0.0153125 0)
(2.99605 0.00117736 0)
(2.99385 -0.00337497 0)
(2.99431 -0.00330374 0)
(2.99622 0.000660763 0)
(2.99535 0.00268457 0)
(2.99457 0.00129591 0)
(2.99376 -0.000737073 0)
(2.99379 -0.000827235 0)
(2.99433 0.000452495 0)
(2.99425 0.000412621 0)
(2.99412 3.6311e-05 0)
(2.99387 -0.000435502 0)
(2.99387 -0.000317408 0)
(2.99388 -0.000199391 0)
(2.99386 -0.00030195 0)
(2.99372 -5.80388e-05 0)
(2.99368 0.000205688 0)
(3.08434 -0.308486 0)
(3.08437 -0.308494 0)
(3.08439 -0.308495 0)
(3.08441 -0.308493 0)
(3.08443 -0.308495 0)
(3.08444 -0.308494 0)
(3.08446 -0.308495 0)
(3.08448 -0.30849 0)
(3.0845 -0.308471 0)
(3.08451 -0.308463 0)
(3.08453 -0.308458 0)
(3.08456 -0.308444 0)
(3.08458 -0.308421 0)
(3.0846 -0.308417 0)
(3.08461 -0.308426 0)
(3.0846 -0.308435 0)
(3.08458 -0.308444 0)
(3.08456 -0.308449 0)
(3.08454 -0.308435 0)
(3.08452 -0.308404 0)
(3.08449 -0.308377 0)
(3.08445 -0.308333 0)
(3.0844 -0.308254 0)
(3.08433 -0.308177 0)
(3.08426 -0.308121 0)
(3.08418 -0.308062 0)
(3.08411 -0.307978 0)
(3.08404 -0.307899 0)
(3.08397 -0.307847 0)
(3.0839 -0.307808 0)
(3.08384 -0.307773 0)
(3.08382 -0.30776 0)
(3.08381 -0.307763 0)
(3.08381 -0.30778 0)
(3.08381 -0.307816 0)
(3.08379 -0.3079 0)
(3.0838 -0.308062 0)
(3.08389 -0.30828 0)
(3.08406 -0.308476 0)
(3.08427 -0.308626 0)
(3.0844 -0.308698 0)
(3.08444 -0.308698 0)
(3.08448 -0.308636 0)
(3.08449 -0.308485 0)
(3.08442 -0.308299 0)
(3.08422 -0.308103 0)
(3.08396 -0.307922 0)
(3.08386 -0.307792 0)
(3.08388 -0.307734 0)
(3.08396 -0.307647 0)
(3.08408 -0.307633 0)
(3.08417 -0.307907 0)
(3.08428 -0.30828 0)
(3.08424 -0.308268 0)
(3.08414 -0.308218 0)
(3.08396 -0.307926 0)
(3.08335 -0.306561 0)
(3.08087 -0.300257 0)
(3.07441 -0.277513 0)
(3.06194 -0.233585 0)
(3.047 -0.168124 0)
(3.0294 -0.0928239 0)
(3.02431 -0.0674265 0)
(3.01753 -0.0397683 0)
(3.00459 -0.0133112 0)
(3.00087 -0.00300621 0)
(2.99671 0.0040932 0)
(2.99408 0.0016606 0)
(2.99291 -0.00247932 0)
(2.99309 -0.00216928 0)
(2.99391 -0.000321289 0)
(2.99436 0.000867502 0)
(2.99399 0.000323958 0)
(2.99358 -0.000738937 0)
(2.99365 -0.000474599 0)
(2.99378 -0.00019824 0)
(2.99374 -0.000318479 0)
(2.99373 -0.000447571 0)
(2.99375 -0.000178484 0)
(2.99375 0.000245832 0)
(3.08419 -0.307774 0)
(3.08422 -0.30779 0)
(3.08425 -0.307808 0)
(3.08429 -0.307802 0)
(3.08432 -0.307803 0)
(3.08435 -0.307826 0)
(3.08437 -0.307841 0)
(3.08438 -0.307852 0)
(3.0844 -0.307877 0)
(3.0844 -0.307908 0)
(3.08441 -0.307942 0)
(3.08442 -0.307974 0)
(3.08444 -0.307999 0)
(3.08447 -0.308037 0)
(3.08453 -0.308093 0)
(3.08455 -0.308139 0)
(3.08456 -0.308167 0)
(3.08458 -0.308204 0)
(3.08456 -0.308244 0)
(3.08454 -0.30829 0)
(3.08451 -0.308357 0)
(3.08447 -0.30841 0)
(3.08443 -0.308415 0)
(3.08439 -0.3084 0)
(3.08434 -0.308386 0)
(3.08428 -0.308366 0)
(3.08421 -0.308315 0)
(3.08414 -0.30826 0)
(3.08405 -0.30822 0)
(3.08397 -0.30814 0)
(3.08388 -0.308004 0)
(3.08379 -0.307864 0)
(3.0837 -0.307754 0)
(3.08364 -0.307683 0)
(3.08362 -0.307664 0)
(3.08359 -0.307683 0)
(3.0836 -0.30778 0)
(3.08367 -0.307904 0)
(3.08378 -0.308026 0)
(3.08396 -0.308183 0)
(3.08417 -0.308393 0)
(3.08436 -0.308524 0)
(3.08446 -0.308511 0)
(3.08453 -0.308427 0)
(3.08457 -0.308255 0)
(3.08448 -0.30808 0)
(3.08421 -0.307957 0)
(3.08396 -0.307867 0)
(3.08391 -0.307776 0)
(3.08393 -0.307726 0)
(3.08397 -0.307712 0)
(3.08396 -0.307921 0)
(3.08402 -0.308334 0)
(3.08419 -0.30853 0)
(3.08419 -0.3085 0)
(3.08412 -0.308419 0)
(3.08397 -0.308227 0)
(3.08388 -0.307852 0)
(3.0834 -0.306481 0)
(3.081 -0.298956 0)
(3.074 -0.275655 0)
(3.05797 -0.222833 0)
(3.04073 -0.146776 0)
(3.02199 -0.0574991 0)
(3.01569 -0.0179328 0)
(3.00636 0.0198368 0)
(2.99553 0.00762834 0)
(2.9931 -0.00260638 0)
(2.99346 -0.00289531 0)
(2.99469 -6.76284e-05 0)
(2.99469 0.00308816 0)
(2.99392 0.00163731 0)
(2.99312 -0.000431342 0)
(2.9932 -0.000603111 0)
(2.99369 0.000106104 0)
(2.99378 -8.10148e-05 0)
(2.99364 -0.000427741 0)
(2.99365 -0.000422069 0)
(2.99381 1.95782e-05 0)
(2.99378 0.000183552 0)
(3.0839 -0.30742 0)
(3.08392 -0.307403 0)
(3.08392 -0.307451 0)
(3.08394 -0.307491 0)
(3.08396 -0.307484 0)
(3.08398 -0.307503 0)
(3.08401 -0.30752 0)
(3.08404 -0.30754 0)
(3.08408 -0.307561 0)
(3.08413 -0.30754 0)
(3.08417 -0.307565 0)
(3.08419 -0.307669 0)
(3.08423 -0.307729 0)
(3.08427 -0.307768 0)
(3.08429 -0.307851 0)
(3.08431 -0.307903 0)