/*--------------------------------*- C++ -*----------------------------------*\
  =========                 |
  \\      /  F ield         | OpenFOAM: The Open Source CFD Toolbox
   \\    /   O peration     | Website:  https://openfoam.org
    \\  /    A nd           | Version:  7
     \\/     M anipulation  |
\*---------------------------------------------------------------------------*/
FoamFile
{
    version     2.0;
    format      ascii;
    class       volScalarField;
    location    "2";
    object      rho;
}
// * * * * * * * * * * * * * * * * * * * * * * * * * * * * * * * * * * * * * //

dimensions      [1 -3 0 0 0 0 0];

internalField   nonuniform List<scalar> 
90000
(
0.607341
0.632417
0.660243
0.688322
0.717215
0.746182
0.775094
0.803784
0.8332
0.862679
0.892045
0.920898
0.949383
0.977337
1.00436
1.0308
1.05544
1.07938
1.10126
1.12301
1.14212
1.1612
1.17722
1.19379
1.207
1.22096
1.23125
1.24236
1.25005
1.2579
1.26366
1.26912
1.27195
1.27594
1.27726
1.2778
1.27712
1.27621
1.27403
1.271
1.26682
1.26119
1.25427
1.24744
1.24873
1.25221
1.25698
1.26231
1.26744
1.27211
1.27687
1.28052
1.28174
1.28252
1.28158
1.27762
1.26996
1.26391
1.25846
1.25866
1.25968
1.26244
1.26825
1.27428
1.27894
1.27914
1.27548
1.26874
1.26189
1.25727
1.25741
1.25953
1.26501
1.27136
1.27071
1.26794
1.26266
1.25968
1.26057
1.26342
1.26804
1.26769
1.26538
1.26201
1.26219
1.26385
1.26461
1.264
1.26229
1.26248
1.26388
1.26553
1.26534
1.264
1.26408
1.26476
1.26534
1.26514
1.26402
1.26908
0.588278
0.588322
0.588402
0.588543
0.588811
0.589251
0.589991
0.591203
0.593126
0.595772
0.599593
0.604491
0.61118
0.619316
0.629875
0.642156
0.657468
0.674599
0.695264
0.717686
0.743916
0.771501
0.802801
0.83489
0.869984
0.905003
0.941674
0.977585
1.01294
1.04762
1.0787
1.1097
1.13544
1.16074
1.17959
1.19919
1.21176
1.22537
1.23204
1.23957
1.24321
1.24624
1.24733
1.25463
1.26238
1.27184
1.27707
1.28202
1.28473
1.28583
1.28581
1.28503
1.28379
1.28088
1.27206
1.26383
1.25731
1.25754
1.25919
1.26241
1.26904
1.27596
1.28286
1.28252
1.28079
1.27541
1.26715
1.25992
1.25741
1.25822
1.26273
1.26925
1.27451
1.27362
1.26965
1.26294
1.25997
1.26048
1.26496
1.26928
1.27036
1.26797
1.26392
1.26246
1.26345
1.26519
1.26576
1.26419
1.26308
1.26342
1.26512
1.26653
1.26579
1.26476
1.26505
1.26577
1.26612
1.26574
1.26492
1.27013
0.590076
0.590146
0.590228
0.590318
0.590423
0.59053
0.590687
0.590748
0.590795
0.590834
0.590886
0.590958
0.591046
0.591132
0.591231
0.591359
0.591539
0.591771
0.592108
0.592581
0.593346
0.594592
0.596637
0.599528
0.604103
0.610263
0.619528
0.631233
0.647855
0.667505
0.693813
0.723226
0.760346
0.799822
0.846452
0.894152
0.945901
0.997194
1.04739
1.09673
1.13941
1.18339
1.2182
1.24801
1.26014
1.2704
1.27548
1.28036
1.28326
1.28467
1.28456
1.28247
1.2759
1.26331
1.25264
1.25554
1.26144
1.26835
1.27843
1.2876
1.29225
1.2919
1.28841
1.28375
1.27337
1.26452
1.26109
1.26099
1.26279
1.27099
1.28004
1.28003
1.27829
1.27125
1.26505
1.26208
1.2629
1.26856
1.27401
1.2736
1.27092
1.26688
1.26497
1.2658
1.26955
1.26944
1.26807
1.26558
1.26556
1.2675
1.26918
1.26865
1.26741
1.26669
1.26751
1.2686
1.26865
1.26774
1.26727
1.27323
0.592204
0.592266
0.592333
0.592405
0.592481
0.592564
0.592648
0.592734
0.592817
0.592898
0.592981
0.593071
0.593163
0.593256
0.593349
0.593451
0.593557
0.593666
0.59378
0.593893
0.594071
0.594126
0.594167
0.594205
0.594252
0.59431
0.594369
0.594424
0.594501
0.594634
0.594929
0.595525
0.596751
0.598825
0.602972
0.609446
0.621166
0.637252
0.662827
0.694375
0.738752
0.78843
0.851039
0.91468
0.980165
1.04119
1.09299
1.13828
1.17444
1.19894
1.22409
1.23446
1.24115
1.24586
1.25594
1.27761
1.29102
1.2996
1.30881
1.30895
1.30699
1.30273
1.29024
1.27116
1.26765
1.26418
1.26623
1.27275
1.28208
1.29176
1.29096
1.28721
1.27534
1.26836
1.26511
1.26691
1.27419
1.28174
1.28057
1.27744
1.27086
1.26783
1.26929
1.27386
1.27587
1.27319
1.26965
1.2685
1.27052
1.27345
1.27286
1.27087
1.26954
1.27022
1.27183
1.27222
1.27196
1.27136
1.27247
1.27936
0.593902
0.593948
0.593993
0.594036
0.59408
0.594128
0.594181
0.594238
0.594295
0.594353
0.594407
0.594458
0.594503
0.594546
0.594592
0.594645
0.594696
0.59474
0.594775
0.59481
0.594844
0.594885
0.594914
0.594939
0.594977
0.59501
0.595024
0.595027
0.595028
0.595024
0.595026
0.594987
0.594933
0.594895
0.594883
0.594867
0.594872
0.594903
0.595015
0.595308
0.596177
0.598082
0.603169
0.612203
0.631375
0.658812
0.702899
0.756811
0.825153
0.901414
0.980351
1.05761
1.12951
1.19832
1.24238
1.26722
1.28148
1.29057
1.30046
1.30053
1.29738
1.28587
1.26099
1.26145
1.26797
1.27734
1.28927
1.29598
1.2994
1.29806
1.29143
1.27815
1.26978
1.2684
1.27153
1.28088
1.28742
1.28577
1.28253
1.27485
1.27104
1.27206
1.27729
1.28051
1.2793
1.27574
1.27182
1.2733
1.27673
1.2777
1.27565
1.2729
1.27255
1.2739
1.27548
1.27543
1.27505
1.27565
1.27763
1.28496
0.595318
0.595333
0.595344
0.595352
0.595359
0.595366
0.595377
0.595393
0.595414
0.595441
0.595472
0.595501
0.595525
0.595547
0.595571
0.595591
0.595611
0.595635
0.59566
0.595679
0.595693
0.595702
0.595708
0.595711
0.59572
0.59572
0.595712
0.595704
0.595692
0.595671
0.595644
0.59561
0.595586
0.595577
0.595577
0.595565
0.59555
0.59554
0.595525
0.595495
0.595439
0.595371
0.595276
0.595138
0.594966
0.595001
0.595369
0.596706
0.600592
0.6108
0.629784
0.666062
0.71902
0.792411
0.881039
0.967092
1.04855
1.11641
1.17077
1.20762
1.2302
1.24384
1.25196
1.2807
1.29603
1.31096
1.31443
1.31233
1.30858
1.2901
1.2716
1.26784
1.26954
1.27644
1.28749
1.29746
1.29551
1.28808
1.27688
1.27251
1.27336
1.27925
1.28566
1.28444
1.27814
1.2746
1.27499
1.2787
1.28156
1.28014
1.2771
1.27463
1.27501
1.27714
1.27816
1.27792
1.27773
1.27894
1.28131
1.28833
0.595428
0.59543
0.595436
0.595443
0.595445
0.595449
0.595459
0.595467
0.595475
0.595488
0.595503
0.595515
0.59553
0.595551
0.595574
0.595588
0.595601
0.595623
0.595644
0.595653
0.595658
0.595661
0.595666
0.595678
0.595697
0.595699
0.595683
0.595649
0.595608
0.595559
0.59551
0.595474
0.595456
0.595449
0.595447
0.595435
0.595417
0.595404
0.595382
0.595339
0.595288
0.595229
0.595141
0.594997
0.594831
0.59472
0.594647
0.594567
0.594488
0.594383
0.594226
0.594298
0.594901
0.59749
0.607042
0.627121
0.670315
0.734513
0.818211
0.923066
1.02628
1.13048
1.21376
1.26891
1.28536
1.30201
1.30449
1.30359
1.28974
1.25816
1.25913
1.26676
1.2837
1.29721
1.30002
1.29839
1.28785
1.27238
1.27074
1.27227
1.28079
1.28742
1.28696
1.28138
1.27433
1.27456
1.27887
1.28343
1.28283
1.28025
1.27562
1.27515
1.27701
1.27879
1.27915
1.27888
1.27919
1.28101
1.28344
1.29017
0.595316
0.595313
0.595313
0.595316
0.595315
0.595316
0.59532
0.595325
0.59533
0.595343
0.595356
0.595365
0.595374
0.595386
0.595401
0.595414
0.59543
0.59545
0.59546
0.595466
0.595472
0.595473
0.595469
0.595465
0.595476
0.59549
0.595475
0.595434
0.595409
0.595396
0.59537
0.595315
0.595293
0.595289
0.59529
0.595288
0.595278
0.595263
0.595234
0.595185
0.595127
0.595054
0.594933
0.594755
0.594572
0.594431
0.594347
0.594297
0.594248
0.594172
0.594075
0.593922
0.593663
0.593326
0.593208
0.593241
0.593522
0.594661
0.599782
0.613566
0.650322
0.712016
0.814722
0.925728
1.02917
1.12778
1.17414
1.22382
1.2313
1.25374
1.27345
1.29715
1.30787
1.30748
1.30468
1.28418
1.26668
1.26675
1.27034
1.28162
1.2933
1.29196
1.28252
1.27486
1.27313
1.277
1.28585
1.28603
1.28331
1.27613
1.27433
1.27568
1.27919
1.2795
1.27932
1.2792
1.28009
1.28167
1.28329
1.2895
0.595277
0.595277
0.595277
0.595277
0.595281
0.595289
0.595296
0.595303
0.595313
0.595326
0.595336
0.595347
0.595366
0.595386
0.595399
0.595408
0.595423
0.59544
0.595448
0.59545
0.595448
0.595447
0.595457
0.595464
0.595459
0.595445
0.595418
0.595362
0.595322
0.595313
0.595313
0.595314
0.595314
0.595315
0.595317
0.595313
0.595297
0.595269
0.595222
0.595174
0.595137
0.595084
0.594972
0.594807
0.594625
0.594454
0.594324
0.594245
0.594184
0.594105
0.593996
0.593834
0.593642
0.593456
0.593326
0.593287
0.593249
0.593209
0.593129
0.593013
0.593136
0.593872
0.599305
0.614694
0.663581
0.737414
0.856118
0.984952
1.10508
1.22306
1.26355
1.28752
1.29864
1.29804
1.28227
1.24753
1.25411
1.27148
1.2872
1.29462
1.29376
1.28438
1.26887
1.26995
1.27519
1.28592
1.2879
1.28559
1.27654
1.27196
1.27359
1.27813
1.27968
1.27902
1.27834
1.27928
1.28058
1.28188
1.2798
1.28429
0.595396
0.595397
0.595399
0.595401
0.595403
0.595407
0.595413
0.595423
0.595438
0.595458
0.595476
0.595493
0.595505
0.595512
0.595519
0.59553
0.59554
0.595546
0.595543
0.595538
0.595536
0.595535
0.595532
0.595523
0.595508
0.595479
0.595415
0.59536
0.595349
0.595342
0.595335
0.595333
0.595334
0.595341
0.595349
0.595348
0.595338
0.595308
0.595254
0.595232
0.595222
0.595187
0.595094
0.594929
0.594689
0.59446
0.594379
0.594376
0.594368
0.594319
0.594194
0.593991
0.59371
0.593545
0.593463
0.593381
0.593318
0.593295
0.593263
0.593196
0.593103
0.592954
0.592763
0.592713
0.592932
0.594383
0.604432
0.631268
0.7047
0.809786
0.946516
1.06521
1.14693
1.20411
1.22391
1.24261
1.28342
1.29821
1.30236
1.30045
1.28276
1.26511
1.26543
1.27261
1.28709
1.29274
1.28923
1.27645
1.27017
1.27146
1.27775
1.27972
1.27766
1.27609
1.27757
1.28004
1.2808
1.27886
1.27463
1.27988
0.595688
0.595684
0.595682
0.595683
0.595686
0.59569
0.595696
0.595706
0.595723
0.595743
0.595747
0.595747
0.595746
0.595749
0.595754
0.595754
0.595755
0.595753
0.595742
0.595726
0.595715
0.595701
0.595679
0.595655
0.595638
0.595616
0.595567
0.595505
0.595492
0.595491
0.595489
0.59549
0.595499
0.595511
0.595513
0.595507
0.59548
0.595449
0.595448
0.59545
0.595443
0.59541
0.59533
0.595184
0.594971
0.594756
0.594648
0.594614
0.594588
0.594529
0.594397
0.594186
0.593935
0.593774
0.593672
0.593543
0.593447
0.593417
0.593406
0.593363
0.593278
0.593187
0.593032
0.592824
0.592776
0.592793
0.592855
0.592998
0.59386
0.598699
0.625586
0.686527
0.800674
0.939546
1.09363
1.21484
1.26996
1.28572
1.29376
1.28397
1.24706
1.25379
1.27189
1.2893
1.29572
1.29256
1.27783
1.26579
1.26721
1.27646
1.28075
1.2783
1.27354
1.27463
1.27807
1.2805
1.27945
1.27486
1.27205
1.2784
0.595854
0.595856
0.595857
0.595857
0.595857
0.595861
0.595869
0.59587
0.595866
0.595852
0.595845
0.595842
0.595843
0.595847
0.595848
0.595848
0.595847
0.595836
0.595812
0.595802
0.595796
0.595779
0.595747
0.595723
0.595709
0.59569
0.595645
0.595582
0.595563
0.595562
0.595561
0.595564
0.595579
0.595586
0.595586
0.595581
0.595556
0.595535
0.595534
0.595537
0.595526
0.595488
0.595402
0.595258
0.595089
0.594913
0.594802
0.594758
0.59472
0.59465
0.594508
0.594278
0.594045
0.593914
0.59382
0.593654
0.593563
0.593559
0.593563
0.593548
0.593486
0.593387
0.593211
0.593051
0.592969
0.592957
0.593019
0.593132
0.593071
0.592864
0.592858
0.593422
0.598031
0.622092
0.688028
0.818151
0.964149
1.08488
1.17904
1.21631
1.23147
1.27504
1.29702
1.30052
1.29758
1.27549
1.26405
1.26508
1.2747
1.28389
1.28186
1.27233
1.27174
1.27466
1.27984
1.27966
1.27764
1.27185
1.27111
1.27804
0.595871
0.595871
0.59587
0.595869
0.595871
0.595877
0.595883
0.595885
0.595882
0.595859
0.595843
0.595841
0.595843
0.59585
0.595854
0.595854
0.595852
0.595838
0.595818
0.595814
0.595809
0.595787
0.595741
0.595729
0.595721
0.595701
0.595647
0.595582
0.595557
0.595554
0.595557
0.595558
0.595556
0.595544
0.59551
0.595497
0.595503
0.595497
0.59548
0.595482
0.595497
0.595477
0.595401
0.595247
0.595089
0.594953
0.594851
0.594797
0.594744
0.594656
0.59449
0.594228
0.594011
0.593925
0.593842
0.593673
0.593504
0.59348
0.593492
0.593509
0.59351
0.593459
0.593358
0.593274
0.593151
0.593048
0.593099
0.593197
0.593157
0.592932
0.592809
0.59277
0.592689
0.592503
0.592916
0.600405
0.630228
0.720661
0.859328
1.03759
1.18676
1.26241
1.28305
1.29209
1.27344
1.2517
1.25839
1.27605
1.2863
1.28439
1.27321
1.26718
1.27097
1.27922
1.28135
1.27806
1.27458
1.27211
1.27322
1.2817
0.595814
0.595813
0.595817
0.595829
0.595836
0.595835
0.595831
0.59582
0.595791
0.595756
0.595745
0.595746
0.595752
0.595764
0.595786
0.595799
0.595798
0.595785
0.595769
0.595769
0.59577
0.595758
0.595714
0.595701
0.5957
0.595692
0.595659
0.595597
0.595543
0.595524
0.59552
0.595518
0.595504
0.595484
0.595446
0.595402
0.595387
0.595385
0.595389
0.595384
0.595352
0.595288
0.595205
0.595078
0.595001
0.594942
0.594867
0.59478
0.594684
0.594577
0.594423
0.594197
0.594008
0.593915
0.593816
0.593623
0.593449
0.593408
0.593399
0.5934
0.593443
0.593477
0.593541
0.593525
0.593338
0.593064
0.593082
0.593189
0.593161
0.592945
0.592628
0.592482
0.592384
0.592222
0.591986
0.591897
0.592019
0.593414
0.606065
0.655693
0.790117
0.9495
1.07546
1.19673
1.21156
1.25422
1.27352
1.29445
1.29235
1.27257
1.26369
1.2676
1.28081
1.28322
1.28036
1.27622
1.27432
1.2778
1.28156
1.28884
0.595794
0.595796
0.595812
0.595828
0.595829
0.595823
0.595802
0.595788
0.595787
0.59579
0.5958
0.595816
0.595832
0.595849
0.59587
0.595877
0.595867
0.595856
0.595855
0.595866
0.595881
0.595863
0.595799
0.595778
0.595784
0.59578
0.595746
0.595715
0.595702
0.595689
0.59566
0.59559
0.595509
0.595463
0.595442
0.595426
0.595403
0.595398
0.595394
0.595348
0.595233
0.595146
0.595108
0.595038
0.594981
0.594977
0.594942
0.594833
0.594666
0.594503
0.594381
0.594256
0.594196
0.594147
0.594034
0.593879
0.593698
0.593446
0.593374
0.593379
0.593402
0.593506
0.593766
0.5938
0.593514
0.593046
0.593025
0.593126
0.593129
0.592775
0.592296
0.592181
0.592167
0.592115
0.591943
0.591924
0.591964
0.592174
0.592278
0.592588
0.59849
0.625637
0.724717
0.882254
1.06544
1.22956
1.2634
1.28826
1.27672
1.24678
1.25812
1.28116
1.28747
1.28307
1.2738
1.27465
1.27825
1.28476
1.28762
1.29269
0.595819
0.595822
0.595839
0.595867
0.595877
0.595875
0.595865
0.595863
0.595865
0.595871
0.595877
0.595887
0.595905
0.59593
0.595951
0.595966
0.595979
0.595976
0.595972
0.595978
0.595979
0.595947
0.595836
0.59579
0.595798
0.595821
0.595814
0.595797
0.595796
0.5958
0.595798
0.595778
0.595725
0.595652
0.595607
0.595565
0.595523
0.595492
0.595447
0.595334
0.595168
0.595141
0.595147
0.595136
0.595073
0.595036
0.595004
0.594916
0.594733
0.594488
0.594311
0.594262
0.594287
0.594335
0.594305
0.594216
0.59408
0.593819
0.59352
0.593425
0.59341
0.593537
0.593984
0.594045
0.59365
0.593015
0.592974
0.59306
0.593046
0.592621
0.592109
0.592059
0.592092
0.59213
0.592211
0.592274
0.592429
0.592559
0.592533
0.59247
0.592301
0.591886
0.593273
0.607283
0.688518
0.837066
1.0117
1.16689
1.19945
1.24261
1.27952
1.29647
1.29
1.26678
1.27021
1.2781
1.28527
1.28932
1.29004
1.29259
0.595887
0.595893
0.595924
0.595943
0.595946
0.595944
0.595934
0.595915
0.595909
0.595909
0.595915
0.595934
0.595956
0.595982
0.595991
0.59599
0.595997
0.596001
0.596002
0.596016
0.596019
0.595985
0.595844
0.595773
0.595773
0.59582
0.595872
0.595859
0.595829
0.59583
0.595876
0.595926
0.595929
0.595917
0.595894
0.595851
0.595785
0.595706
0.595614
0.59546
0.595242
0.595185
0.595185
0.595208
0.595217
0.595174
0.595058
0.594937
0.594821
0.59456
0.594256
0.594214
0.594287
0.594519
0.594595
0.594598
0.594569
0.594402
0.593954
0.593646
0.593624
0.593834
0.594268
0.594276
0.593779
0.593057
0.593005
0.59308
0.593035
0.592605
0.592126
0.59209
0.592168
0.592494
0.592679
0.592761
0.592832
0.592799
0.592676
0.592425
0.591867
0.591141
0.590788
0.590622
0.591519
0.60145
0.670673
0.81302
1.02088
1.21309
1.2639
1.28766
1.25975
1.25049
1.27634
1.28944
1.28738
1.28841
1.28691
1.28774
0.595817
0.595812
0.595815
0.595841
0.595853
0.59586
0.595862
0.595848
0.595821
0.595819
0.595842
0.595892
0.595917
0.595941
0.595952
0.595944
0.59594
0.595951
0.595978
0.596002
0.596
0.595915
0.595657
0.595596
0.595609
0.595697
0.595867
0.595948
0.595933
0.595938
0.596031
0.59617
0.596183
0.596161
0.596134
0.596117
0.596055
0.59591
0.595718
0.595456
0.595193
0.595094
0.595106
0.59523
0.59532
0.595315
0.595155
0.59499
0.594837
0.594406
0.594075
0.594043
0.59413
0.594609
0.594952
0.594989
0.594984
0.594859
0.594364
0.593843
0.593779
0.593991
0.594348
0.594338
0.593733
0.592739
0.592658
0.592896
0.592985
0.592727
0.592288
0.592258
0.592503
0.59294
0.59307
0.593084
0.593058
0.592949
0.592636
0.592037
0.59117
0.590801
0.59062
0.590566
0.590763
0.591085
0.59185
0.599895
0.662567
0.813274
0.996572
1.16844
1.20183
1.25267
1.30572
1.29925
1.27903
1.27341
1.27127
1.2789
0.595835
0.595824
0.595811
0.595803
0.595808
0.595846
0.595873
0.595872
0.595853
0.595851
0.595887
0.595946
0.595951
0.595909
0.595862
0.595846
0.595845
0.595878
0.595881
0.595855
0.595774
0.595556
0.595319
0.595289
0.595312
0.59542
0.595738
0.596005
0.596041
0.596067
0.596173
0.596385
0.596436
0.596395
0.596271
0.596237
0.596195
0.596058
0.595757
0.595343
0.595112
0.595096
0.595123
0.595308
0.595428
0.595428
0.595257
0.595149
0.594983
0.59437
0.594002
0.593967
0.594052
0.594653
0.59519
0.595244
0.595229
0.595068
0.594571
0.593934
0.593649
0.593692
0.593923
0.593949
0.593305
0.592389
0.592364
0.592793
0.593133
0.593083
0.592834
0.59277
0.592962
0.593235
0.593262
0.593228
0.59314
0.592799
0.592107
0.591119
0.590586
0.590667
0.590712
0.590943
0.591465
0.591866
0.591918
0.591744
0.591906
0.599747
0.66434
0.819249
1.05462
1.22209
1.29308
1.27245
1.25492
1.2523
1.25784
1.27681
0.596062
0.596022
0.595998
0.595988
0.595998
0.596069
0.596127
0.596114
0.596108
0.596156
0.596213
0.596203
0.596159
0.596044
0.595867
0.595814
0.595798
0.595719
0.595517
0.595446
0.595421
0.595366
0.595245
0.595158
0.595147
0.595178
0.595338
0.595766
0.596
0.595985
0.595993
0.596124
0.596272
0.596237
0.596114
0.596109
0.596096
0.595932
0.595406
0.594968
0.594936
0.594994
0.59509
0.59527
0.595417
0.595455
0.595498
0.595523
0.595412
0.594798
0.593958
0.593801
0.593901
0.594617
0.595263
0.595318
0.59529
0.595096
0.594617
0.593843
0.593179
0.593189
0.593525
0.593621
0.593093
0.592232
0.592195
0.592715
0.593415
0.593469
0.59337
0.59323
0.593281
0.593329
0.593323
0.593234
0.592859
0.592071
0.591101
0.590392
0.590378
0.590585
0.591134
0.591707
0.592034
0.592013
0.591893
0.591422
0.590539
0.589927
0.590388
0.600334
0.680977
0.851066
1.08039
1.15991
1.24558
1.25147
1.26223
1.28601
0.596595
0.596595
0.596588
0.596514
0.596369
0.596346
0.596336
0.596338
0.596395
0.596525
0.596557
0.596518
0.596397
0.596266
0.596149
0.596059
0.595986
0.595822
0.595516
0.595352
0.59533
0.595388
0.595468
0.595504
0.595515
0.595441
0.595233
0.595267
0.595405
0.595456
0.595448
0.595435
0.595439
0.595456
0.595486
0.59557
0.595688
0.595624
0.595218
0.594741
0.594701
0.594833
0.595153
0.595461
0.595781
0.595906
0.595922
0.595889
0.59567
0.595045
0.594127
0.593766
0.593841
0.594308
0.594878
0.594976
0.595012
0.595008
0.594676
0.593525
0.592622
0.592682
0.593287
0.59359
0.593328
0.59254
0.592421
0.592806
0.593565
0.59368
0.593623
0.593437
0.59339
0.59328
0.593022
0.592519
0.591841
0.591005
0.590317
0.590321
0.590623
0.591266
0.591775
0.59224
0.592242
0.592121
0.591649
0.590596
0.5897
0.589729
0.590348
0.590707
0.591758
0.608642
0.691293
0.923395
1.18536
1.24074
1.27416
1.29731
0.596151
0.596186
0.596186
0.596155
0.596027
0.59592
0.595892
0.595902
0.596003
0.596158
0.59618
0.596112
0.595908
0.595674
0.595543
0.595477
0.595383
0.595217
0.594978
0.594552
0.594029
0.593841
0.593912
0.594234
0.594372
0.594373
0.594128
0.594001
0.594084
0.59437
0.594502
0.594553
0.594618
0.594696
0.594733
0.594791
0.594812
0.594652
0.594266
0.593826
0.593774
0.593869
0.594281
0.595121
0.595667
0.595801
0.59583
0.595725
0.59538
0.594755
0.593873
0.593018
0.592681
0.592884
0.593147
0.593195
0.593377
0.593616
0.593392
0.592342
0.591856
0.591999
0.59291
0.5936
0.593546
0.593083
0.592845
0.593059
0.59354
0.593693
0.593637
0.593479
0.592994
0.592209
0.591359
0.590751
0.590433
0.589973
0.590047
0.590455
0.59104
0.591527
0.591943
0.592154
0.592075
0.591632
0.590534
0.589347
0.589284
0.589781
0.590658
0.590833
0.591352
0.59089
0.591666
0.625203
0.761079
0.993727
1.21289
1.28607
0.593561
0.593597
0.59359
0.593581
0.593581
0.593579
0.593662
0.593923
0.59403
0.593988
0.593786
0.59339
0.593052
0.592929
0.592839
0.592612
0.592477
0.592256
0.591815
0.591498
0.591157
0.590743
0.5905
0.590587
0.591139
0.592164
0.592838
0.593155
0.593596
0.594357
0.59458
0.59461
0.594717
0.594895
0.595027
0.595072
0.594967
0.594722
0.594358
0.593957
0.593369
0.592708
0.592214
0.592098
0.592263
0.592326
0.592338
0.592709
0.593737
0.594093
0.593649
0.591867
0.59101
0.590881
0.590819
0.590943
0.591532
0.591762
0.591563
0.591061
0.591012
0.591168
0.592142
0.593301
0.593365
0.593104
0.592769
0.592394
0.591896
0.591615
0.591322
0.590764
0.59008
0.58945
0.589042
0.588951
0.589062
0.589418
0.589914
0.590438
0.590966
0.591433
0.591711
0.591394
0.59057
0.589299
0.588265
0.588345
0.588949
0.589837
0.590594
0.590671
0.589955
0.588695
0.588319
0.588659
0.593731
0.664969
0.818789
1.09855
0.589812
0.590063
0.590544
0.591321
0.591584
0.591586
0.591535
0.591437
0.591434
0.591465
0.591448
0.591375
0.59129
0.591093
0.590922
0.590696
0.590228
0.589966
0.589929
0.58996
0.590191
0.590268
0.59014
0.590256
0.591262
0.592332
0.59241
0.591994
0.591572
0.591571
0.591706
0.591727
0.591611
0.591547
0.591656
0.591901
0.591971
0.59184
0.591509
0.590943
0.590257
0.590134
0.590109
0.589709
0.588563
0.588138
0.588152
0.588576
0.589972
0.590394
0.589996
0.588756
0.588108
0.588021
0.588135
0.588556
0.589307
0.58968
0.58961
0.58917
0.588997
0.589134
0.5898
0.590375
0.59036
0.590143
0.589896
0.58932
0.588603
0.588124
0.587691
0.587454
0.587264
0.587043
0.586721
0.58667
0.58682
0.587226
0.588118
0.588743
0.588993
0.5889
0.588374
0.587577
0.586719
0.585936
0.585943
0.586057
0.587079
0.588106
0.588
0.58741
0.586471
0.586189
0.586278
0.58677
0.587278
0.588093
0.597466
0.810376
0.592923
0.592971
0.59307
0.593364
0.59416
0.594519
0.59454
0.594535
0.594519
0.594483
0.594373
0.594279
0.594206
0.594049
0.593798
0.59366
0.593542
0.593187
0.592831
0.592813
0.593016
0.593035
0.592602
0.592558
0.593211
0.594032
0.593981
0.593453
0.592319
0.591446
0.591003
0.590714
0.590409
0.590291
0.5905
0.591566
0.592561
0.592696
0.592595
0.592153
0.591066
0.59059
0.590596
0.590162
0.588486
0.587808
0.587781
0.587992
0.589012
0.590103
0.590207
0.590013
0.589636
0.58874
0.588362
0.588389
0.589184
0.591285
0.592034
0.592117
0.59185
0.590625
0.590141
0.590082
0.590236
0.590205
0.58972
0.588512
0.587612
0.587353
0.587193
0.587108
0.586995
0.586887
0.587088
0.587653
0.588452
0.589314
0.589955
0.589761
0.589053
0.587912
0.586811
0.585851
0.585434
0.585358
0.58564
0.586961
0.588331
0.58819
0.58729
0.585851
0.585121
0.585445
0.585664
0.58632
0.587436
0.587166
0.58607
0.613761
0.592268
0.592123
0.592115
0.592338
0.592468
0.592586
0.592894
0.593039
0.593067
0.593009
0.59282
0.59278
0.592903
0.593472
0.594452
0.594716
0.59477
0.594793
0.594447
0.593908
0.593947
0.593847
0.5929
0.592224
0.592193
0.592344
0.59222
0.59142
0.589903
0.588512
0.587561
0.587064
0.586936
0.587003
0.587331
0.588211
0.589862
0.590798
0.590862
0.590625
0.590415
0.590582
0.591135
0.591099
0.590184
0.58908
0.58828
0.587778
0.587934
0.588912
0.59092
0.592888
0.593854
0.593609
0.592071
0.591237
0.591173
0.591992
0.593348
0.593402
0.592975
0.590942
0.588635
0.588315
0.58838
0.588486
0.588273
0.587488
0.5868
0.586762
0.586849
0.587019
0.587465
0.588415
0.589795
0.590755
0.591006
0.590849
0.59005
0.588977
0.587507
0.58599
0.585259
0.584812
0.584961
0.586138
0.587929
0.58926
0.588545
0.587192
0.5857
0.584434
0.584525
0.58531
0.587026
0.5881
0.587301
0.585933
0.584893
0.585843
0.596264
0.596576
0.596937
0.597365
0.597761
0.598038
0.598231
0.598339
0.59845
0.598683
0.599183
0.600029
0.601128
0.601981
0.602916
0.604628
0.605251
0.605292
0.605213
0.605221
0.605187
0.604959
0.603814
0.601342
0.600766
0.600839
0.600643
0.599812
0.59929
0.599339
0.599324
0.59858
0.597005
0.596592
0.596827
0.598244
0.600819
0.602466
0.603731
0.605059
0.606361
0.607706
0.608995
0.609653
0.60936
0.608179
0.606581
0.605401
0.60457
0.604104
0.604226
0.604485
0.604662
0.604614
0.603981
0.602772
0.602384
0.602375
0.602376
0.60194
0.600419
0.598081
0.596443
0.596226
0.596338
0.596003
0.595481
0.595729
0.596565
0.597408
0.598008
0.598385
0.598719
0.599189
0.599079
0.598391
0.59715
0.59521
0.593008
0.590724
0.589125
0.587975
0.588782
0.590575
0.592845
0.594898
0.594572
0.593152
0.591383
0.589046
0.586537
0.58764
0.589978
0.592299
0.592099
0.590902
0.58895
0.586481
0.587848
0.590066
0.626831
0.627027
0.627536
0.628078
0.628381
0.62856
0.628618
0.628629
0.628689
0.628927
0.629223
0.629493
0.629459
0.629235
0.62921
0.629788
0.631276
0.63233
0.633161
0.633458
0.633529
0.633745
0.633845
0.633413
0.632476
0.631614
0.631007
0.630833
0.630731
0.630463
0.630015
0.629391
0.628095
0.626184
0.625062
0.62451
0.623852
0.622696
0.622208
0.622897
0.6241
0.624156
0.623933
0.623977
0.623704
0.622657
0.621366
0.620248
0.618853
0.616947
0.615074
0.614033
0.613946
0.61447
0.614581
0.613506
0.609956
0.606729
0.606453
0.60706
0.609163
0.61168
0.612387
0.612104
0.611366
0.611095
0.611503
0.612783
0.613794
0.613762
0.613192
0.612184
0.610839
0.609273
0.607497
0.605399
0.603445
0.601834
0.60169
0.602208
0.603871
0.605837
0.608155
0.608014
0.607303
0.605069
0.602012
0.599194
0.595224
0.596163
0.598937
0.601402
0.601027
0.598804
0.596252
0.592532
0.592925
0.59549
0.597955
0.597084
0.659581
0.659464
0.659664
0.659666
0.657897
0.656461
0.656334
0.655744
0.655582
0.656169
0.656318
0.655161
0.653171
0.653188
0.652793
0.649789
0.648094
0.64854
0.649978
0.650028
0.649939
0.650727
0.652076
0.652184
0.651921
0.651861
0.652094
0.65185
0.650664
0.650375
0.650796
0.650973
0.65069
0.649831
0.649619
0.650302
0.650846
0.650313
0.647491
0.644559
0.644302
0.644206
0.643538
0.641572
0.639556
0.639183
0.639076
0.638766
0.638862
0.639707
0.641353
0.642515
0.643271
0.64446
0.644936
0.644609
0.643247
0.641591
0.641211
0.641422
0.642127
0.643024
0.643459
0.643368
0.642695
0.641229
0.639428
0.637711
0.636361
0.634903
0.632971
0.630711
0.628522
0.627294
0.625659
0.625194
0.62557
0.62684
0.62764
0.627977
0.627738
0.626697
0.624365
0.621567
0.618514
0.615688
0.613567
0.614338
0.616472
0.618521
0.618046
0.615821
0.612256
0.609027
0.607156
0.608458
0.610513
0.61003
0.607949
0.604479
0.700817
0.700898
0.701697
0.703282
0.703644
0.703034
0.700988
0.700086
0.700077
0.700559
0.701993
0.70248
0.701805
0.700319
0.698927
0.697478
0.696409
0.696173
0.696356
0.696997
0.697198
0.696541
0.695216
0.695052
0.6954
0.695515
0.694701
0.692674
0.6922
0.692655
0.693218
0.693046
0.69262
0.692467
0.691983
0.691754
0.692056
0.692389
0.692041
0.690937
0.690626
0.690907
0.691545
0.69134
0.690048
0.688761
0.687979
0.686615
0.684634
0.683799
0.683224
0.68225
0.680835
0.680338
0.680346
0.680037
0.67861
0.676465
0.674465
0.67259
0.670809
0.669145
0.667145
0.665106
0.662667
0.660883
0.659999
0.658818
0.657113
0.655309
0.653975
0.653671
0.654128
0.655151
0.655372
0.654741
0.654414
0.653567
0.652001
0.649876
0.647369
0.644721
0.641419
0.63955
0.639238
0.640233
0.640814
0.640491
0.639369
0.636833
0.633155
0.630651
0.628204
0.629308
0.630273
0.629903
0.627898
0.6247
0.620204
0.61975
0.740819
0.740528
0.73901
0.737466
0.736851
0.736753
0.737161
0.738196
0.738383
0.738377
0.7386
0.738659
0.738199
0.737545
0.737133
0.736589
0.735992
0.735777
0.735941
0.736283
0.736538
0.736465
0.735974
0.735748
0.735807
0.735803
0.73551
0.734696
0.733976
0.733545
0.732827
0.730736
0.729737
0.729646
0.729274
0.728183
0.725879
0.722709
0.721399
0.720758
0.719393
0.718456
0.718777
0.718966
0.718519
0.718384
0.718451
0.718078
0.716403
0.714241
0.7129
0.711591
0.709154
0.705764
0.703291
0.702467
0.702494
0.702776
0.703258
0.703234
0.702634
0.701202
0.698963
0.696753
0.696331
0.696577
0.697236
0.697383
0.696527
0.695143
0.694457
0.693617
0.692025
0.690188
0.688035
0.685807
0.682818
0.679391
0.675561
0.672519
0.669982
0.669232
0.668778
0.667062
0.665393
0.664753
0.66341
0.660549
0.657976
0.654715
0.652125
0.6515
0.651464
0.651385
0.650186
0.647546
0.64483
0.641873
0.641883
0.640804
0.78781
0.787666
0.787225
0.786635
0.786223
0.785757
0.785135
0.784585
0.784451
0.78452
0.784524
0.783918
0.782806
0.782735
0.782608
0.78166
0.781183
0.780931
0.780368
0.779416
0.778679
0.778122
0.777174
0.776481
0.776418
0.776339
0.775795
0.775507
0.7754
0.77519
0.774518
0.773634
0.773528
0.773944
0.774197
0.773971
0.773178
0.772089
0.770893
0.769314
0.767911
0.766604
0.764744
0.762621
0.76201
0.761927
0.761463
0.759589
0.757774
0.757779
0.758553
0.758566
0.757617
0.755982
0.754084
0.751576
0.749263
0.748823
0.748477
0.747513
0.74603
0.744417
0.742326
0.739738
0.737505
0.735685
0.73405
0.732045
0.729143
0.725482
0.72248
0.720436
0.717768
0.714285
0.711549
0.709428
0.706464
0.70519
0.70464
0.703544
0.702117
0.701537
0.701298
0.700191
0.697282
0.693909
0.690651
0.686654
0.683662
0.68193
0.680389
0.678528
0.675561
0.672476
0.669175
0.663433
0.663274
0.663017
0.661311
0.657223
0.834361
0.834383
0.834037
0.833302
0.833197
0.833186
0.832695
0.831555
0.831183
0.83133
0.831411
0.831263
0.830643
0.829843
0.829714
0.829635
0.829378
0.828858
0.828228
0.827531
0.826814
0.826305
0.825915
0.82548
0.824862
0.823996
0.822958
0.822064
0.821311
0.820611
0.82001
0.818758
0.817073
0.816451
0.815991
0.815149
0.813935
0.812502
0.810424
0.809645
0.80978
0.809636
0.808527
0.806627
0.805626
0.804786
0.803756
0.8023
0.799761
0.796393
0.794032
0.792834
0.792111
0.79103
0.789232
0.787248
0.785289
0.784255
0.783488
0.78118
0.776966
0.773015
0.77118
0.770592
0.769604
0.767299
0.763685
0.760746
0.75942
0.758253
0.756171
0.754502
0.753441
0.751213
0.749586
0.748542
0.746802
0.744379
0.742846
0.741189
0.738272
0.734325
0.730589
0.726625
0.72201
0.717405
0.714807
0.713108
0.709509
0.708771
0.707585
0.704938
0.700501
0.69635
0.693595
0.691394
0.689067
0.686391
0.684012
0.680126
0.885154
0.885124
0.885049
0.884601
0.883672
0.883423
0.883453
0.88332
0.882425
0.881646
0.881508
0.881304
0.880953
0.880526
0.880049
0.879506
0.878875
0.877499
0.876822
0.876636
0.876382
0.875311
0.874144
0.873753
0.873386
0.872675
0.871668
0.871
0.870289
0.86939
0.868837
0.867889
0.865726
0.86506
0.865006
0.864587
0.863372
0.861648
0.860004
0.858234
0.856578
0.855172
0.853969
0.852384
0.849472
0.848112
0.848045
0.847834
0.846752
0.844248
0.84198
0.840527
0.839086
0.837348
0.834824
0.830865
0.828398
0.82849
0.828654
0.827855
0.825378
0.820807
0.817381
0.816268
0.815366
0.81406
0.811078
0.806959
0.804522
0.803131
0.801189
0.797701
0.794227