/*--------------------------------*- C++ -*----------------------------------*\
  =========                 |
  \\      /  F ield         | OpenFOAM: The Open Source CFD Toolbox
   \\    /   O peration     | Website:  https://openfoam.org
    \\  /    A nd           | Version:  7
     \\/     M anipulation  |
\*---------------------------------------------------------------------------*/
FoamFile
{
    version     2.0;
    format      ascii;
    class       volScalarField;
    location    "2";
    object      T;
}
// * * * * * * * * * * * * * * * * * * * * * * * * * * * * * * * * * * * * * //

dimensions      [0 0 0 1 0 0 0];

internalField   nonuniform List<scalar> 
90000
(
0.746353
0.775461
0.803336
0.827574
0.849281
0.868567
0.885691
0.900987
0.915324
0.928512
0.940775
0.952023
0.962577
0.972429
0.981664
0.99042
0.998408
1.00605
1.01296
1.01981
1.02574
1.03168
1.03651
1.04158
1.0455
1.04968
1.0525
1.0556
1.0574
1.05925
1.06034
1.06133
1.06141
1.06177
1.0615
1.06089
1.05982
1.05867
1.05704
1.05514
1.05285
1.05012
1.04723
1.04416
1.04433
1.04519
1.04645
1.04794
1.0494
1.05075
1.05213
1.05305
1.05332
1.05315
1.05253
1.05104
1.0486
1.04629
1.04438
1.04348
1.04362
1.04442
1.04604
1.04764
1.04846
1.04824
1.04676
1.0445
1.04193
1.04016
1.03947
1.04012
1.04163
1.04292
1.04238
1.04116
1.0391
1.03722
1.03725
1.03785
1.03863
1.03832
1.03737
1.03612
1.03569
1.0361
1.03598
1.03549
1.03463
1.03424
1.03457
1.03492
1.03475
1.0342
1.03422
1.03446
1.03461
1.03453
1.03416
1.03586
0.719792
0.719725
0.71969
0.719727
0.719876
0.720196
0.720798
0.721781
0.723395
0.725648
0.728944
0.733151
0.738888
0.745731
0.754501
0.764358
0.776334
0.789066
0.80386
0.818914
0.835686
0.852057
0.869717
0.886298
0.903405
0.918924
0.934533
0.948616
0.962197
0.974793
0.985986
0.996815
1.00591
1.01456
1.02112
1.02782
1.03216
1.03673
1.03898
1.04148
1.04274
1.04378
1.04401
1.04645
1.04906
1.0523
1.05414
1.05585
1.05682
1.05713
1.05703
1.05654
1.05576
1.05432
1.05113
1.04773
1.04523
1.04409
1.04425
1.04479
1.04639
1.04824
1.05022
1.05009
1.04926
1.04724
1.04421
1.04148
1.03976
1.03977
1.04077
1.04258
1.0439
1.04318
1.04147
1.03864
1.03729
1.03659
1.03757
1.03884
1.03857
1.03745
1.03585
1.03493
1.03505
1.03536
1.03522
1.03453
1.03386
1.0337
1.03398
1.03413
1.03378
1.03327
1.03338
1.03371
1.03391
1.03378
1.03346
1.03528
0.717886
0.717804
0.717718
0.717628
0.717538
0.717443
0.717356
0.71723
0.717083
0.71692
0.716751
0.716582
0.716411
0.716234
0.716063
0.715901
0.715779
0.715642
0.715649
0.715727
0.715993
0.716562
0.717716
0.719519
0.72261
0.726878
0.733491
0.741742
0.753461
0.766709
0.783972
0.801892
0.823402
0.844173
0.86737
0.888921
0.911409
0.93213
0.952223
0.971201
0.987998
1.00506
1.01901
1.03082
1.03643
1.04073
1.04304
1.04506
1.0463
1.0471
1.04738
1.04679
1.04472
1.04072
1.03739
1.0381
1.03936
1.04103
1.04395
1.04656
1.04758
1.04733
1.04648
1.04532
1.04229
1.03918
1.03757
1.03661
1.03711
1.03948
1.04195
1.0417
1.04097
1.03865
1.03617
1.03408
1.03422
1.03563
1.03686
1.03659
1.03561
1.0339
1.03264
1.03272
1.03363
1.03348
1.03288
1.03205
1.03174
1.0323
1.0325
1.0321
1.03142
1.03114
1.03144
1.03199
1.03226
1.03206
1.03198
1.03422
0.715118
0.715037
0.71495
0.714861
0.71477
0.714681
0.71459
0.714497
0.714399
0.714296
0.714191
0.714086
0.713981
0.713876
0.713769
0.713664
0.713559
0.713455
0.713354
0.713251
0.713167
0.713048
0.712917
0.712783
0.712655
0.712535
0.71242
0.712307
0.712209
0.712154
0.712215
0.71245
0.713099
0.714335
0.717007
0.721284
0.729298
0.740144
0.757379
0.777377
0.804198
0.83116
0.863024
0.891293
0.918667
0.941555
0.960986
0.977352
0.990652
0.999812
1.009
1.01324
1.01631
1.01911
1.02389
1.03315
1.03925
1.04308
1.04668
1.04681
1.0462
1.04478
1.04116
1.03468
1.03259
1.03109
1.03182
1.0339
1.03695
1.03986
1.03974
1.03852
1.03461
1.03176
1.02997
1.03051
1.03264
1.03473
1.03428
1.03305
1.03059
1.02905
1.02926
1.03047
1.0309
1.03002
1.02887
1.02855
1.02924
1.03014
1.02985
1.02897
1.02831
1.02855
1.02911
1.02962
1.02983
1.0299
1.03044
1.03331
0.712813
0.71277
0.712724
0.712675
0.712627
0.71258
0.712536
0.712492
0.712447
0.7124
0.712351
0.712302
0.712251
0.712199
0.712149
0.712102
0.712054
0.712005
0.711954
0.711905
0.711855
0.711809
0.711758
0.711707
0.711665
0.711622
0.711573
0.711521
0.711469
0.711417
0.71138
0.711325
0.711264
0.711212
0.711172
0.711136
0.711097
0.711101
0.711155
0.711322
0.711849
0.713048
0.71641
0.72244
0.735641
0.753608
0.781388
0.811505
0.845957
0.880072
0.911897
0.941798
0.968817
0.994727
1.01212
1.02216
1.02832
1.03236
1.0362
1.03695
1.03591
1.03212
1.02499
1.02376
1.02547
1.02845
1.03258
1.03471
1.03585
1.03583
1.03413
1.03011
1.02697
1.02628
1.02724
1.03008
1.03162
1.03128
1.03015
1.02749
1.02569
1.02596
1.02738
1.02819
1.02779
1.02659
1.02539
1.02603
1.02735
1.02774
1.02715
1.0261
1.02591
1.02635
1.02689
1.02732
1.02754
1.02805
1.029
1.03219
0.711847
0.71183
0.71181
0.71179
0.711768
0.711747
0.711729
0.711712
0.711697
0.711683
0.711672
0.71166
0.711647
0.711632
0.711617
0.711601
0.711586
0.711575
0.711564
0.711552
0.711537
0.71152
0.711501
0.71148
0.711465
0.711449
0.711426
0.711403
0.711379
0.711355
0.711331
0.711304
0.711281
0.711263
0.71125
0.71123
0.711212
0.711202
0.711193
0.711168
0.711126
0.711075
0.71101
0.710924
0.71083
0.710857
0.711093
0.711945
0.714473
0.721308
0.733987
0.758127
0.790595
0.831173
0.874075
0.908526
0.938861
0.963236
0.981863
0.994939
1.00288
1.00823
1.01203
1.02384
1.03019
1.03532
1.03681
1.0363
1.03532
1.03002
1.024
1.02247
1.023
1.02527
1.0287
1.03177
1.03109
1.02859
1.02475
1.02312
1.02342
1.02523
1.02729
1.02679
1.0246
1.02341
1.02375
1.02522
1.02631
1.02606
1.02519
1.02435
1.02449
1.02513
1.02559
1.02589
1.02617
1.02692
1.028
1.03109
0.711284
0.711276
0.71127
0.711264
0.711256
0.711249
0.711245
0.711239
0.711233
0.711231
0.71123
0.711226
0.711224
0.711226
0.711227
0.711226
0.711226
0.711229
0.711231
0.71123
0.711228
0.711226
0.711224
0.711224
0.711226
0.711225
0.711214
0.711192
0.711167
0.711139
0.711113
0.711093
0.711082
0.711076
0.711073
0.711065
0.711055
0.711046
0.711032
0.711006
0.710971
0.71093
0.710873
0.710788
0.710696
0.710636
0.710592
0.710541
0.710489
0.710425
0.710337
0.710387
0.710776
0.712473
0.718894
0.732307
0.760476
0.798355
0.840418
0.887121
0.928543
0.968071
0.999355
1.02104
1.02781
1.03436
1.03426
1.03371
1.02891
1.01865
1.01843
1.02049
1.02597
1.02994
1.03076
1.03039
1.02723
1.02223
1.02144
1.02188
1.02452
1.02647
1.02637
1.02449
1.02212
1.02224
1.02362
1.0254
1.02541
1.0248
1.02343
1.02346
1.02402
1.02456
1.02496
1.02519
1.02558
1.02648
1.0276
1.03054
0.711051
0.711047
0.711046
0.711046
0.711044
0.711043
0.711042
0.711042
0.711042
0.711046
0.711051
0.711053
0.711056
0.71106
0.711065
0.71107
0.711076
0.711085
0.711087
0.711086
0.711086
0.711086
0.711081
0.711077
0.711081
0.711086
0.711076
0.711053
0.711035
0.711023
0.711003
0.710973
0.710963
0.710959
0.710958
0.710954
0.710945
0.710932
0.710908
0.710872
0.71083
0.710782
0.71071
0.71061
0.710508
0.710428
0.71038
0.710346
0.710309
0.710256
0.710193
0.710098
0.709944
0.709786
0.709705
0.709712
0.709861
0.710552
0.713801
0.722979
0.747644
0.786544
0.844125
0.893353
0.934596
0.97034
0.986765
1.00375
1.00618
1.01427
1.02171
1.03049
1.03351
1.03323
1.0323
1.02606
1.02044
1.02042
1.02154
1.0251
1.02862
1.02807
1.02481
1.02228
1.02165
1.02292
1.0254
1.02602
1.02529
1.0231
1.02283
1.02332
1.0244
1.02467
1.02481
1.02501
1.02553
1.02631
1.0271
1.02976
0.711006
0.711005
0.711004
0.711004
0.711005
0.711008
0.711009
0.711011
0.711015
0.71102
0.711023
0.711026
0.711034
0.711041
0.711044
0.711046
0.711051
0.711053
0.711052
0.711048
0.71104
0.711035
0.711037
0.711037
0.711032
0.711019
0.710997
0.710962
0.710936
0.710926
0.710919
0.710915
0.710908
0.710903
0.710899
0.710891
0.710878
0.710858
0.710826
0.71079
0.710758
0.710719
0.710652
0.71056
0.710463
0.710372
0.710299
0.71025
0.710207
0.710153
0.710078
0.709976
0.709857
0.709746
0.709667
0.709629
0.709595
0.709565
0.709522
0.709456
0.709512
0.709959
0.713522
0.723765
0.75661
0.799932
0.860066
0.913956
0.961238
1.00612
1.02265
1.03187
1.0337
1.03293
1.02706
1.01506
1.01706
1.02259
1.02756
1.0298
1.02949
1.02647
1.02128
1.02144
1.02291
1.02602
1.02683
1.02616
1.0234
1.02218
1.02289
1.02445
1.0249
1.02477
1.02475
1.02514
1.02579
1.02643
1.02597
1.02792
0.711023
0.711021
0.711018
0.711017
0.711016
0.711015
0.711015
0.711017
0.711021
0.711027
0.711031
0.711033
0.711033
0.711032
0.711032
0.711032
0.711031
0.711029
0.711024
0.711016
0.711009
0.711004
0.710998
0.710991
0.71098
0.710964
0.710935
0.710906
0.710888
0.710875
0.710862
0.710853
0.710847
0.710842
0.710837
0.710827
0.710809
0.710781
0.710745
0.710722
0.710704
0.710673
0.710612
0.710523
0.710416
0.710318
0.710248
0.710211
0.710181
0.710132
0.710053
0.709948
0.709811
0.709714
0.709655
0.7096
0.709557
0.709529
0.709495
0.709445
0.7094
0.709338
0.709254
0.709236
0.709365
0.710256
0.716809
0.734602
0.782714
0.840921
0.904291
0.94844
0.977822
0.997625
1.00445
1.01118
1.0262
1.03153
1.03277
1.03217
1.02677
1.02139
1.02093
1.02302
1.02743
1.02896
1.02781
1.02367
1.02196
1.0225
1.02486
1.02549
1.02483
1.02442
1.02489
1.02578
1.02623
1.02575
1.0248
1.02695
0.711072
0.711066
0.711058
0.711055
0.711055
0.711054
0.711054
0.711056
0.711062
0.711067
0.711067
0.711065
0.71106
0.71106
0.711059
0.711057
0.711054
0.71105
0.71104
0.711029
0.711019
0.711008
0.710992
0.710975
0.710962
0.710949
0.710928
0.7109
0.710879
0.710862
0.710845
0.710837
0.710836
0.710833
0.710825
0.710807
0.710773
0.710737
0.710719
0.710714
0.710704
0.710678
0.710628
0.710543
0.710427
0.710315
0.710245
0.710209
0.710184
0.710144
0.710068
0.709959
0.709834
0.709756
0.709706
0.709641
0.709586
0.709562
0.709551
0.709523
0.709475
0.709428
0.709353
0.709244
0.709223
0.709232
0.709263
0.709341
0.709877
0.712996
0.731347
0.769617
0.832629
0.894815
0.956595
1.00434
1.0254
1.03106
1.03179
1.02825
1.01584
1.01779
1.02353
1.02892
1.03051
1.02944
1.02462
1.02077
1.02131
1.02454
1.02625
1.0255
1.02408
1.02439
1.0254
1.02643
1.02616
1.02493
1.02456
1.02704
0.711037
0.711034
0.711032
0.711029
0.711026
0.711027
0.711027
0.711026
0.711022
0.711012
0.711005
0.710996
0.710991
0.710989
0.710985
0.710982
0.710976
0.710964
0.710944
0.710929
0.710917
0.7109
0.710877
0.710859
0.710845
0.710829
0.710804
0.710772
0.710749
0.710733
0.710719
0.710715
0.710714
0.71071
0.710704
0.710694
0.710675
0.710655
0.710645
0.710643
0.710635
0.710614
0.710571
0.710498
0.710413
0.710322
0.710256
0.710226
0.710203
0.710165
0.710086
0.709957
0.70984
0.709784
0.709745
0.709674
0.709627
0.709618
0.709616
0.709601
0.709563
0.709508
0.709421
0.709347
0.709316
0.709312
0.709342
0.709395
0.709364
0.709262
0.709266
0.709606
0.71252
0.728348
0.7718
0.846187
0.908713
0.955457
0.988518
1.00167
1.00742
1.02356
1.03213
1.0323
1.03133
1.02443
1.02045
1.02075
1.02383
1.02706
1.02656
1.02385
1.02368
1.02457
1.02619
1.0265
1.02595
1.02439
1.02447
1.02728
0.710909
0.710906
0.710902
0.710898
0.710896
0.710895
0.710894
0.710893
0.710888
0.710874
0.710859
0.710847
0.710845
0.710845
0.710844
0.710842
0.710839
0.710827
0.71081
0.710799
0.710791
0.710776
0.710753
0.710741
0.710733
0.710719
0.710692
0.71066
0.710639
0.710629
0.710626
0.710623
0.710618
0.710606
0.710588
0.710575
0.710571
0.71056
0.710548
0.710549
0.710555
0.710545
0.710508
0.710435
0.710358
0.710294
0.710244
0.710215
0.710184
0.710136
0.710048
0.709915
0.709808
0.709767
0.709729
0.709652
0.709575
0.709562
0.709566
0.709571
0.70957
0.709541
0.709488
0.709451
0.709399
0.709354
0.70938
0.709426
0.709406
0.709296
0.709233
0.709212
0.709173
0.709092
0.709365
0.714209
0.733599
0.790025
0.859386
0.933949
0.994439
1.02207
1.03104
1.03087
1.02412
1.01648
1.01838
1.02396
1.02733
1.02691
1.02372
1.02215
1.02339
1.02605
1.02693
1.02603
1.02502
1.02481
1.0254
1.02882
0.710761
0.710759
0.71076
0.710764
0.710765
0.710764
0.710761
0.710755
0.710737
0.71072
0.710718
0.710719
0.710722
0.710729
0.710739
0.710742
0.710741
0.710733
0.710722
0.710721
0.710721
0.710715
0.710691
0.710678
0.710676
0.710671
0.710653
0.710622
0.710594
0.710581
0.710576
0.71057
0.710556
0.710541
0.710521
0.7105
0.71049
0.710486
0.710486
0.710483
0.710466
0.710434
0.710394
0.710333
0.710296
0.710267
0.710231
0.710192
0.710147
0.710094
0.710016
0.7099
0.709806
0.709764
0.709719
0.70963
0.709551
0.709529
0.709522
0.709523
0.709542
0.709557
0.709588
0.70958
0.709492
0.709362
0.709372
0.709421
0.709407
0.709301
0.709145
0.709072
0.709024
0.708946
0.708831
0.708781
0.708845
0.709685
0.717663
0.750603
0.832249
0.901728
0.950406
0.993978
0.999212
1.01524
1.02238
1.02952
1.02899
1.02343
1.02076
1.02214
1.02641
1.02737
1.02649
1.02525
1.02515
1.02666
1.02832
1.03135
0.710694
0.710695
0.710703
0.710711
0.710712
0.710709
0.710699
0.71069
0.710689
0.710689
0.710692
0.710699
0.710705
0.710713
0.710722
0.710725
0.710721
0.710714
0.710713
0.710717
0.710723
0.710714
0.710682
0.71067
0.710671
0.710669
0.710651
0.710636
0.710628
0.71062
0.710603
0.71057
0.710537
0.710519
0.710508
0.710498
0.710483
0.710479
0.710476
0.710451
0.710393
0.710352
0.710335
0.710304
0.710277
0.710275
0.710258
0.710205
0.710125
0.710051
0.709993
0.709931
0.709899
0.709874
0.709821
0.709748
0.709662
0.709543
0.709512
0.709515
0.709526
0.709575
0.709695
0.709709
0.70957
0.709347
0.709338
0.709385
0.709387
0.709217
0.708981
0.708917
0.708909
0.708887
0.708805
0.70879
0.708806
0.708898
0.708943
0.709114
0.712832
0.730373
0.790952
0.868484
0.945414
1.00983
1.02278
1.02946
1.02521
1.01513
1.01869
1.02623
1.02841
1.02715
1.02416
1.02465
1.02632
1.02885
1.0302
1.03247
0.710682
0.710684
0.710691
0.710704
0.710707
0.710706
0.710701
0.7107
0.710701
0.710704
0.710706
0.71071
0.710718
0.71073
0.71074
0.710748
0.710754
0.710752
0.710751
0.710753
0.710754
0.710739
0.710686
0.710666
0.71067
0.710681
0.710677
0.710669
0.710669
0.710671
0.710671
0.710662
0.710636
0.7106
0.710575
0.710553
0.710531
0.710514
0.710491
0.710436
0.710358
0.710348
0.710351
0.710346
0.710317
0.710301
0.710287
0.710247
0.710162
0.710049
0.709968
0.709939
0.70995
0.709969
0.709952
0.709906
0.709838
0.70971
0.709578
0.709543
0.709535
0.709593
0.709797
0.709822
0.70963
0.709327
0.709308
0.709349
0.709342
0.709139
0.708884
0.708846
0.708863
0.708881
0.708918
0.708945
0.709011
0.70906
0.709043
0.709009
0.708924
0.708735
0.709609
0.718575
0.771858
0.852024
0.927518
0.983959
0.995225
1.01088
1.02442
1.03086
1.02914
1.02197
1.02291
1.02557
1.02825
1.03011
1.03079
1.03216
0.710707
0.71071
0.710725
0.710733
0.710734
0.710733
0.710728
0.710719
0.710718
0.710718
0.710721
0.71073
0.71074
0.710752
0.710757
0.710756
0.710759
0.710761
0.710762
0.710768
0.71077
0.710753
0.710686
0.710653
0.710653
0.710676
0.710702
0.710697
0.710684
0.710685
0.710708
0.710737
0.710741
0.710736
0.710725
0.710704
0.710671
0.710632
0.710586
0.71051
0.710401
0.710369
0.710369
0.710378
0.710381
0.710361
0.710306
0.71025
0.710198
0.710082
0.709941
0.709921
0.709956
0.710064
0.710083
0.710081
0.710062
0.709977
0.709769
0.709636
0.709627
0.709725
0.709925
0.709926
0.709687
0.709342
0.709316
0.709351
0.709327
0.709124
0.708881
0.708851
0.708884
0.709033
0.709125
0.709163
0.709188
0.709168
0.709105
0.708981
0.708712
0.708368
0.708205
0.708135
0.708672
0.714842
0.759736
0.83585
0.927196
1.00227
1.02372
1.02943
1.01981
1.01574
1.02415
1.02873
1.02863
1.02958
1.02951
1.03015
0.710679
0.710677
0.710679
0.710692
0.710698
0.710701
0.710701
0.710694
0.710681
0.71068
0.710691
0.710715
0.710726
0.710737
0.710742
0.710737
0.710735
0.71074
0.710752
0.710763
0.710763
0.710723
0.710599
0.710566
0.710572
0.710613
0.710695
0.710733
0.710727
0.710729
0.710774
0.710846
0.710856
0.710846
0.710834
0.710829
0.710802
0.710736
0.710646
0.710522
0.710389
0.710324
0.710327
0.710379
0.710415
0.710412
0.710337
0.710263
0.710197
0.710001
0.709852
0.709839
0.709881
0.710109
0.710246
0.710251
0.710249
0.710191
0.709962
0.70972
0.709692
0.709792
0.709958
0.709952
0.709664
0.709179
0.709131
0.709239
0.709284
0.709162
0.708942
0.708918
0.709026
0.709228
0.709304
0.709307
0.709294
0.709239
0.709085
0.708796
0.708383
0.708214
0.708131
0.708107
0.708203
0.70836
0.708786
0.713651
0.754689
0.83933
0.91989
0.983632
0.995023
1.0134
1.03279
1.03152
1.02648
1.02491
1.02429
1.02694
0.710696
0.710691
0.710685
0.710681
0.710684
0.710702
0.710715
0.710714
0.710705
0.710704
0.710721
0.710748
0.71075
0.71073
0.710708
0.710696
0.710695
0.710709
0.710711
0.710698
0.710658
0.71055
0.710426
0.710404
0.710414
0.710463
0.710613
0.710744
0.710764
0.710778
0.710829
0.710933
0.710959
0.710939
0.710883
0.710878
0.710866
0.710809
0.710675
0.710492
0.710356
0.71032
0.710328
0.710406
0.710451
0.71045
0.710366
0.71032
0.710251
0.709974
0.709808
0.709793
0.709831
0.710106
0.710347
0.710372
0.710365
0.710292
0.710061
0.709756
0.709605
0.709622
0.709734
0.709751
0.709451
0.708997
0.708973
0.709168
0.709328
0.709305
0.709185
0.70915
0.709237
0.709371
0.709391
0.709376
0.709334
0.70917
0.708839
0.708367
0.708116
0.708157
0.708181
0.708292
0.708542
0.708738
0.708751
0.708669
0.708792
0.713649
0.754781
0.837712
0.940694
1.00776
1.03275
1.02605
1.01994
1.01806
1.0197
1.0261
0.710809
0.710793
0.710783
0.710779
0.710784
0.710817
0.710844
0.710837
0.710834
0.710856
0.710881
0.710876
0.710855
0.710802
0.710717
0.710686
0.710676
0.710639
0.710545
0.710499
0.710476
0.710438
0.710369
0.710322
0.710316
0.71033
0.710402
0.710601
0.710719
0.710714
0.71072
0.710787
0.710864
0.710848
0.710804
0.710812
0.710811
0.710746
0.710519
0.71029
0.710252
0.710275
0.710308
0.710374
0.710428
0.710449
0.710479
0.710498
0.710451
0.710174
0.709772
0.709682
0.709725
0.710049
0.710366
0.710407
0.710396
0.710308
0.710082
0.709694
0.709345
0.709344
0.709513
0.709576
0.709335
0.708911
0.70888
0.709116
0.709449
0.709478
0.709433
0.709368
0.709393
0.709421
0.709421
0.709382
0.709206
0.708833
0.708371
0.708031
0.708023
0.708122
0.708384
0.708654
0.708811
0.7088
0.708743
0.708515
0.708081
0.707775
0.708038
0.713992
0.766334
0.858123
0.951077
0.982471
1.01476
1.01661
1.02041
1.02899
0.711065
0.711066
0.711064
0.711033
0.710968
0.71095
0.710944
0.710944
0.710971
0.711032
0.711046
0.711028
0.710969
0.710905
0.710849
0.710804
0.710769
0.710692
0.710541
0.71043
0.710407
0.710433
0.710462
0.71047
0.710472
0.710433
0.710322
0.710333
0.710397
0.710437
0.71044
0.710441
0.71045
0.710468
0.710493
0.710545
0.710612
0.710585
0.710401
0.710152
0.710113
0.710169
0.710314
0.71045
0.710583
0.710659
0.710692
0.710681
0.710583
0.710291
0.709837
0.709627
0.709654
0.709859
0.710142
0.710232
0.710265
0.710266
0.710105
0.709526
0.70906
0.709085
0.709384
0.709553
0.709433
0.709049
0.708978
0.709155
0.709519
0.709581
0.709556
0.709471
0.709451
0.709403
0.709286
0.709052
0.70873
0.708331
0.708
0.708001
0.708143
0.708447
0.708689
0.708904
0.708909
0.70885
0.708618
0.708104
0.707659
0.707671
0.707964
0.708133
0.708729
0.719098
0.770457
0.889253
0.99584
1.01435
1.02435
1.03254
0.710844
0.710863
0.710862
0.710848
0.710788
0.710732
0.710714
0.710718
0.710764
0.710835
0.710845
0.710812
0.710715
0.710604
0.710535
0.710497
0.710444
0.710357
0.710234
0.710021
0.709757
0.709657
0.709689
0.709837
0.709898
0.709898
0.709783
0.709731
0.709776
0.709925
0.710005
0.710039
0.710079
0.710124
0.710138
0.710156
0.71016
0.710079
0.709891
0.70967
0.709636
0.709677
0.709864
0.710251
0.710525
0.71064
0.710677
0.710631
0.710464
0.710147
0.709683
0.709236
0.709072
0.709167
0.709306
0.709359
0.709479
0.709593
0.709471
0.708934
0.708688
0.708758
0.709209
0.709557
0.709533
0.709307
0.709182
0.709283
0.709516
0.709593
0.709567
0.709495
0.709272
0.708907
0.708506
0.708213
0.708056
0.70783
0.707864
0.70806
0.708339
0.70857
0.70877
0.708858
0.708815
0.708594
0.708059
0.707485
0.707449
0.707689
0.708106
0.708194
0.708424
0.708225
0.708708
0.730346
0.813162
0.921653
1.00167
1.03212
0.709573
0.70959
0.709587
0.709582
0.709579
0.709577
0.709615
0.709735
0.709781
0.709761
0.709663
0.709474
0.709315
0.709253
0.709203
0.709086
0.709016
0.708906
0.708693
0.708542
0.708382
0.708187
0.708071
0.708111
0.708369
0.708848
0.709177
0.70935
0.709589
0.709975
0.710081
0.710094
0.710147
0.710234
0.710264
0.710268
0.710202
0.710065
0.709881
0.709686
0.709406
0.709099
0.708881
0.708836
0.708918
0.708967
0.708992
0.709188
0.709657
0.709784
0.70953
0.708601
0.708252
0.708241
0.708229
0.708297
0.708592
0.70868
0.708568
0.708303
0.708279
0.708362
0.708857
0.709428
0.709455
0.709321
0.709155
0.70898
0.70875
0.70862
0.70848
0.708209
0.707878
0.707578
0.707384
0.707331
0.707383
0.707551
0.707786
0.708035
0.708283
0.70851
0.708631
0.708476
0.708075
0.707462
0.706962
0.707
0.70729
0.70772
0.708064
0.708131
0.707793
0.707202
0.707008
0.707183
0.710148
0.756071
0.835679
0.974318
0.70776
0.707879
0.708112
0.708485
0.708597
0.708598
0.708573
0.708523
0.70852
0.708532
0.708523
0.708486
0.708446
0.708354
0.708272
0.708153
0.707907
0.707802
0.707795
0.707811
0.707928
0.70797
0.707912
0.707967
0.708447
0.708974
0.709018
0.708826
0.708639
0.708641
0.708701
0.708703
0.708625
0.708567
0.708604
0.70869
0.708715
0.708653
0.708499
0.708228
0.707893
0.707855
0.707863
0.707716
0.707219
0.706965
0.706961
0.70715
0.707794
0.707962
0.707747
0.707085
0.706867
0.706868
0.706939
0.707173
0.707551
0.707694
0.70764
0.707397
0.707321
0.707397
0.707744
0.708034
0.708025
0.707915
0.707788
0.707505
0.707162
0.706935
0.706728
0.70661
0.706515
0.706407
0.706255
0.706227
0.706299
0.706494
0.706924
0.707221
0.70733
0.707282
0.707024
0.706636
0.706222
0.705846
0.70585
0.705904
0.706398
0.706891
0.706841
0.706558
0.70611
0.705985
0.706032
0.706274
0.706516
0.706964
0.712536
0.849168
0.709172
0.709192
0.709235
0.70936
0.709712
0.709923
0.709951
0.70995
0.709944
0.70993
0.70988
0.709834
0.709798
0.709719
0.709591
0.709519
0.709456
0.709277
0.709126
0.709127
0.709244
0.709263
0.709073
0.709058
0.709377
0.709782
0.709761
0.709514
0.708981
0.708566
0.708343
0.708177
0.707982
0.707896
0.707979
0.708439
0.708933
0.709038
0.708997
0.7088
0.708277
0.708076
0.708107
0.70795
0.707241
0.706828
0.706782
0.706868
0.707331
0.707831
0.707872
0.707779
0.707597
0.707186
0.70708
0.707102
0.707504
0.708518
0.708804
0.708828
0.708697
0.708113
0.707904
0.707885
0.707964
0.707948
0.707709
0.707117
0.706678
0.706554
0.706477
0.706435
0.70638
0.706327
0.706423
0.706692
0.70707
0.707477
0.707776
0.70768
0.707338
0.706785
0.706255
0.705796
0.705604
0.70557
0.705708
0.706347
0.707004
0.706935
0.706502
0.70581
0.705464
0.705627
0.70574
0.706061
0.706599
0.706461
0.705933
0.722199
0.70868
0.708611
0.708607
0.708709
0.708795
0.708887
0.709065
0.709152
0.709175
0.709158
0.709085
0.709069
0.709128
0.709387
0.709825
0.709954
0.709993
0.710009
0.70985
0.709624
0.709655
0.709616
0.709187
0.708879
0.708865
0.708939
0.70888
0.708499
0.707774
0.707106
0.706659
0.7064
0.706307
0.706333
0.706474
0.706868
0.707637
0.708143
0.708196
0.70809
0.708012
0.708119
0.708463
0.708477
0.708097
0.707581
0.707112
0.706786
0.706847
0.707306
0.708271
0.709205
0.709662
0.709552
0.708856
0.708474
0.708439
0.70883
0.70945
0.709462
0.709245
0.708246
0.707145
0.70701
0.707046
0.707102
0.707001
0.706621
0.706284
0.706264
0.706306
0.706388
0.7066
0.707051
0.707706
0.708157
0.708259
0.708181
0.707795
0.707283
0.706583
0.705857
0.705506
0.705304
0.705382
0.705961
0.706827
0.707457
0.707109
0.706453
0.705735
0.705129
0.705176
0.705565
0.706403
0.706918
0.706534
0.70587
0.705373
0.705849
0.710893
0.711043
0.711223
0.711443
0.711649
0.711795
0.711905
0.711978
0.712053
0.712192
0.712459
0.712877
0.713379
0.713727
0.714081
0.714766
0.715133
0.715205
0.715191
0.715228
0.715233
0.71516
0.714691
0.713557
0.713154
0.713149
0.713013
0.712557
0.712284
0.712307
0.712301
0.711949
0.7112
0.711005
0.71112
0.711801
0.713029
0.713784
0.714328
0.71488
0.715444
0.716114
0.716854
0.717252
0.717125
0.716572
0.715779
0.715161
0.714738
0.714513
0.714567
0.71467
0.714724
0.7147
0.714417
0.713872
0.713679
0.713673
0.713673
0.713466
0.712746
0.711637
0.710859
0.710759
0.710818
0.710663
0.710423
0.710543
0.71094
0.711339
0.711621
0.711796
0.711947
0.712161
0.712108
0.711782
0.711193
0.710266
0.709214
0.708123
0.707362
0.706828
0.707226
0.708098
0.709189
0.710159
0.709998
0.70931
0.708457
0.707327
0.706126
0.706669
0.707807
0.708926
0.70883
0.708258
0.707318
0.706148
0.706819
0.707889
0.724806
0.724891
0.725122
0.725373
0.725506
0.725562
0.725566
0.725563
0.725581
0.725676
0.725791
0.725902
0.725886
0.725797
0.725795
0.726077
0.726808
0.727376
0.727842
0.728079
0.728184
0.728342
0.728391
0.728194
0.727757
0.727312
0.726966
0.726876
0.726839
0.726733
0.726535
0.726245
0.725638
0.724748
0.724226
0.72397
0.723664
0.723094
0.722798
0.723066
0.723585
0.723689
0.723668
0.723742
0.723625
0.72314
0.722529
0.721996
0.721335
0.720432
0.719552
0.719101
0.719076
0.719343
0.719401
0.718898
0.717219
0.715715
0.7156
0.715898
0.716908
0.718095
0.718426
0.718298
0.717959
0.717823
0.718
0.718572
0.719029
0.719014
0.71875
0.718279
0.717648
0.716914
0.716085
0.715106
0.714198
0.713432
0.713399
0.713646
0.71443
0.715344
0.716412
0.71634
0.716001
0.714951
0.713511
0.712177
0.710303
0.710764
0.712087
0.713247
0.713068
0.712018
0.71081
0.709043
0.709242
0.710477
0.711645
0.711233
0.740294
0.740239
0.740325
0.740324
0.739559
0.738829
0.738633
0.738257
0.738179
0.73844
0.7385
0.737967
0.73707
0.737086
0.736909
0.735552
0.73477
0.734968
0.735621
0.735647
0.73561
0.735975
0.736588
0.736631
0.736512
0.736492
0.736605
0.736499
0.73598
0.735862
0.736058
0.73614
0.736012
0.735634
0.735548
0.735866
0.736113
0.735865
0.734547
0.733195
0.7331
0.733068
0.732769
0.73186
0.730918
0.730736
0.730679
0.730525
0.730572
0.730979
0.731766
0.732321
0.732684
0.733241
0.733452
0.733302
0.732686
0.731939
0.73176
0.731846
0.73214
0.732522
0.73272
0.732685
0.732393
0.731731
0.730896
0.730099
0.729483
0.728822
0.727943
0.726908
0.725902
0.725342
0.724593
0.724392
0.724569
0.725159
0.725523
0.725662
0.725548
0.725064
0.723983
0.722683
0.721261
0.719944
0.718965
0.719341
0.720353
0.721304
0.721077
0.720033
0.718366
0.716851
0.715995
0.716622
0.717599
0.717369
0.716385
0.71475
0.75799
0.758017
0.758349
0.759018
0.759157
0.758858
0.757953
0.757657
0.757666
0.757897
0.758587
0.758858
0.758582
0.757966
0.75738
0.756763
0.756319
0.756229
0.756318
0.75663
0.756732
0.756455
0.755872
0.75579
0.755928
0.755965
0.755594
0.754688
0.754475
0.754672
0.754918
0.754847
0.754661
0.75457
0.754312
0.754153
0.754247
0.754346
0.754173
0.753721
0.753655
0.753812
0.754153
0.754081
0.753537
0.752962
0.752594
0.751971
0.751082
0.750689
0.750412
0.749953
0.749328
0.749147
0.749161
0.749037
0.748425
0.747482
0.746583
0.745735
0.744945
0.744222
0.743349
0.742463
0.741389
0.74059
0.740195
0.739674
0.738935
0.738138
0.737543
0.737406
0.737611
0.738067
0.738156
0.737859
0.737699
0.737311
0.736605
0.735648
0.73452
0.73333
0.731843
0.731005
0.730883
0.731342
0.731575
0.731419
0.730898
0.729735
0.728049
0.726909
0.725808
0.726321
0.726764
0.726594
0.725673
0.724202
0.722135
0.72194
0.775259
0.775135
0.774489
0.773828
0.773566
0.773524
0.773696
0.774132
0.77421
0.774207
0.774299
0.774322
0.774125
0.773847
0.773675
0.773449
0.773197
0.773102
0.773167
0.773294
0.773383
0.773345
0.773129
0.77306
0.773096
0.773102
0.772993
0.77267
0.772379
0.772201
0.771897
0.771008
0.770599
0.770571
0.770422
0.769964
0.768983
0.767621
0.767054
0.766777
0.76619
0.765788
0.765924
0.765996
0.765799
0.76575
0.765783
0.765633
0.764939
0.764024
0.763438
0.762857
0.761779
0.7603
0.759252
0.758916
0.758929
0.759052
0.75927
0.759264
0.759012
0.758401
0.75744
0.756492
0.756312
0.756415
0.756691
0.756753
0.756391
0.755794
0.755483
0.755103
0.754398
0.753597
0.75266
0.751688
0.750379
0.748875
0.747189
0.74585
0.744729
0.744413
0.744224
0.743472
0.742721
0.742425
0.741813
0.740518
0.739357
0.737885
0.736711
0.736472
0.736462
0.73643
0.735888
0.734694
0.733457
0.732116
0.732134
0.731658
0.794584
0.794527
0.794352
0.794121
0.793962
0.793781
0.793536
0.793319
0.793266
0.793297
0.793301
0.793062
0.792608
0.792571
0.792515
0.792124
0.791924
0.791818
0.791586
0.791196
0.790892
0.790659
0.790268
0.789988
0.789964
0.789934
0.789715
0.789602
0.78956
0.789475
0.789201
0.788826
0.78877
0.788928
0.789018
0.78892
0.788589
0.788151
0.787679
0.787048
0.786491
0.785977
0.785235
0.784368
0.784102
0.78406
0.783855
0.783057
0.782285
0.782282
0.782588
0.782585
0.782179
0.781515
0.780768
0.779767
0.778791
0.778567
0.778399
0.777973
0.777341
0.776675
0.77582
0.774747
0.773795
0.773009
0.772313
0.771473
0.770262
0.768725
0.767453
0.766587
0.765463
0.763998
0.76284
0.761943
0.760684
0.760151
0.759924
0.759456
0.758832
0.758565
0.758453
0.757968
0.756707
0.755243
0.753826
0.752086
0.750787
0.750031
0.749356
0.74854
0.747233
0.745873
0.744412
0.741862
0.74179
0.741673
0.740912
0.739102
0.813078
0.813088
0.812955
0.812672
0.812636
0.812633
0.812447
0.812007
0.811858
0.811914
0.811944
0.811884
0.811641
0.811329
0.811275
0.811241
0.811136
0.810927
0.810672
0.810391
0.810104
0.809904
0.80975
0.809578
0.809332
0.80899
0.808584
0.808243
0.807961
0.807698
0.807475
0.806996
0.806332
0.80607
0.805874
0.805528
0.805039
0.804469
0.803648
0.803344
0.803397
0.803338
0.80289
0.802132
0.80174
0.801407
0.800998
0.800423
0.799416
0.798071
0.797126
0.796644
0.796351
0.795906
0.795167
0.79436
0.793572
0.793166
0.792868
0.791935
0.79022
0.788617
0.787863
0.787617
0.787206
0.786254
0.78477
0.783573
0.783039
0.78256
0.781693
0.781006
0.780579
0.779665
0.778987
0.778551
0.777827
0.776809
0.776154
0.775453
0.774231
0.772573
0.770998
0.769321
0.767365
0.765415
0.764319
0.763606
0.76207
0.761754
0.761242
0.760101
0.758176
0.756382
0.755191
0.75424
0.753228
0.752056
0.751014
0.749322
0.832506
0.832499
0.832473
0.832303
0.831957
0.831878
0.831891
0.831844
0.831515
0.831237
0.831193
0.831121
0.830993
0.830837
0.830661
0.830459
0.830227
0.82972
0.829461
0.829382
0.82928
0.82887
0.828418
0.828249
0.828094
0.827811
0.827418
0.827164
0.826898
0.826563
0.826363
0.826014
0.825204
0.824957
0.824936
0.824774
0.824304
0.823637
0.823005
0.822324
0.821686
0.821144
0.820682
0.820081
0.818967
0.818441
0.818411
0.818325
0.817896
0.816913
0.816034
0.815482
0.814937
0.814274
0.813297
0.811749
0.810761
0.810787
0.810836
0.810512
0.809552
0.807802
0.806456