/*--------------------------------*- C++ -*----------------------------------*\
  =========                 |
  \\      /  F ield         | OpenFOAM: The Open Source CFD Toolbox
   \\    /   O peration     | Website:  https://openfoam.org
    \\  /    A nd           | Version:  7
     \\/     M anipulation  |
\*---------------------------------------------------------------------------*/
FoamFile
{
    version     2.0;
    format      ascii;
    class       volScalarField;
    location    "6.3";
    object      p;
}
// * * * * * * * * * * * * * * * * * * * * * * * * * * * * * * * * * * * * * //

dimensions      [1 -1 -2 0 0 0 0];

internalField   nonuniform List<scalar> 
1750
(
0.226434
0.452266
0.5637
0.579512
0.586775
0.666288
0.772964
0.821159
0.867473
0.895026
0.0240738
0.0816608
0.301725
0.57619
0.756199
0.854181
0.905753
0.867461
0.875082
0.89952
0.0252339
0.0277689
0.0373797
0.131585
0.38583
0.599021
0.781118
0.857963
0.918254
0.930469
0.0348993
0.0432393
0.0558774
0.066347
0.0699614
0.123452
0.246577
0.46892
0.645634
0.800345
0.0712816
0.0771641
0.0944794
0.102418
0.105395
0.111215
0.119656
0.138958
0.197477
0.449734
0.142926
0.145593
0.149288
0.15836
0.165302
0.173217
0.185424
0.197643
0.206764
0.216806
0.267703
0.264943
0.262372
0.264712
0.271214
0.273222
0.271459
0.270138
0.265464
0.261429
0.483659
0.46249
0.446402
0.430056
0.412386
0.397809
0.387439
0.37641
0.364562
0.350749
0.821996
0.77594
0.730838
0.690194
0.64949
0.609769
0.574741
0.546052
0.525628
0.491105
1.09132
1.06563
1.03036
0.990431
0.94338
0.89216
0.839816
0.786355
0.739619
0.668385
1.13448
1.13194
1.1268
1.12089
1.11106
1.0934
1.06792
1.03296
0.992701
0.911543
1.09128
1.09919
1.10641
1.11192
1.11132
1.11098
1.11013
1.10713
1.10114
1.07596
1.0206
1.0282
1.03723
1.04828
1.06008
1.07117
1.08129
1.0886
1.09453
1.09366
1.00101
1.00179
1.00308
1.00531
1.00897
1.0144
1.02196
1.03163
1.04246
1.05987
1.00002
1.00003
1.00006
1.00014
1.0003
1.00066
1.00142
1.00296
1.00545
1.01458
0.0264721
0.0209033
0.0209996
0.028898
0.0677487
0.140995
0.268783
0.5036
0.859459
1.10776
1.13451
1.08118
1.01438
1.00063
1.00001
0.0266327
0.0205975
0.0207367
0.0352525
0.0889751
0.179287
0.336175
0.620495
0.983125
1.14127
1.13168
1.0609
1.00756
1.00023
1
0.0279987
0.020039
0.0215186
0.043669
0.101074
0.201701
0.396763
0.732464
1.06429
1.15117
1.12396
1.04597
1.00427
1.0001
1
0.0306639
0.0177131
0.026135
0.0550834
0.116256
0.239962
0.504697
0.859577
1.11996
1.15552
1.11415
1.03096
1.00192
1.00004
1
0.0301321
0.0149868
0.0279153
0.0626138
0.149716
0.334214
0.62075
0.965652
1.15465
1.15721
1.09541
1.01667
1.00075
1.00001
1
0.0264842
0.0134
0.0286324
0.0779804
0.200496
0.427006
0.743038
1.06754
1.17304
1.15694
1.06627
1.00838
1.00029
1
1
0.0217036
0.0177105
0.0391055
0.115655
0.274239
0.532567
0.892788
1.14742
1.18056
1.13713
1.0427
1.00381
1.0001
1
1
0.0159087
0.0243004
0.0518921
0.159034
0.378976
0.693196
1.03939
1.18583
1.18235
1.10917
1.024
1.00137
1.00003
1
1
0.00995193
0.0236385
0.0847345
0.240471
0.520519
0.880473
1.14186
1.1986
1.17325
1.07599
1.01052
1.00045
1.00001
1
1
0.00302922
0.0228258
0.143706
0.384371
0.709446
1.03725
1.19931
1.20182
1.14283
1.04227
1.00367
1.00012
1
1
1
0.00065744
0.0586486
0.249573
0.557318
0.917227
1.15901
1.21789
1.1995
1.10129
1.01852
1.00109
1.00003
1
1
1
0.00463766
0.141031
0.42084
0.788833
1.09601
1.22078
1.22135
1.1607
1.05465
1.00623
1.00026
1.00001
1
1
1
0.0299596
0.260948
0.679736
1.03174
1.21021
1.23515
1.20894
1.11077
1.02363
1.00177
1.00005
1
1
1
1
0.160987
0.559111
0.975902
1.18342
1.25104
1.23797
1.16497
1.05594
1.00683
1.00032
1.00001
1
1
1
1
0.575978
0.971249
1.18664
1.2448
1.25821
1.21105
1.0999
1.01779
1.00122
1.00004
1
1
1
1
1
1.24726
1.25326
1.25766
1.25419
1.24657
1.14537
1.03198
1.00148
1.00003
1
1
1
1
1
1
1.24619
1.25475
1.25996
1.24676
1.22804
1.12244
1.03089
1.00291
1.00011
1
1
1
1
1
1
1.24646
1.26131
1.26617
1.24722
1.20003
1.07791
1.01025
1.00039
1.00001
1
1
1
1
1
1
1.24922
1.26634
1.26808
1.24018
1.16027
1.04533
1.00396
1.00013
1
1
1
1
1
1
1
1.24965
1.26772
1.2683
1.22617
1.11257
1.02138
1.00129
1.00003
1
1
1
1
1
1
1
1.24933
1.26702
1.26233
1.1845
1.07151
1.00932
1.00038
1.00001
1
1
1
1
1
1
1
1.26452
1.26355
1.24988
1.14532
1.03707
1.00298
1.00009
1
1
1
1
1
1
1
1
1.29516
1.25209
1.2216
1.09187
1.01569
1.00093
1.00002
1
1
1
1
1
1
1
1
1.31788
1.23191
1.16635
1.05109
1.00575
1.00023
1
1
1
1
1
1
1
1
1
1.32867
1.20647
1.11052
1.02349
1.00179
1.00005
1
1
1
1
1
1
1
1
1
1.32928
1.16603
1.06297
1.00853
1.00042
1.00001
1
1
1
1
1
1
1
1
1
1.28618
1.11792
1.0302
1.00267
1.00009
1
1
1
1
1
1
1
1
1
1
1.23062
1.07399
1.01162
1.0006
1.00001
1
1
1
1
1
1
1
1
1
1
1.15828
1.03335
1.00281
1.00009
1
1
1
1
1
1
1
1
1
1
1
1.07003
1.00894
1.00039
1.00001
1
1
1
1
1
1
1
1
1
1
1
1
1
1
1
1
1
1
1
1
1
1
1
1
1
1
1
1
1
1
1
1
1
1
1
1
1
1
1
1
1
1
1
1
1
1
1
1
1
1
1
1
1
1
1
1
1
1
1
1
1
1
1
1
1
1
1
1
1
1
1
1
1
1
1
1
1
1
1
1
1
1
1
1
1
1
1
1
1
1
1
1
1
1
1
1
1
1
1
1
1
1
1
1
1
1
1
1
1
1
1
1
1
1
1
1
1
1
1
1
1
1
1
1
1
1
1
1
1
1
1
1
1
1
1
1
1
1
1
1
1
1
1
1
1
1
1
1
1
1
1
1
1
1
1
1
1
1
1
1
1
1
1
1
1
1
1
1
1
1
1
1
1
1
1
1
1
1
1
1
1
1
1
1
1
1
1
1
1
1
1
1
1
1
1
1
1
1
1
1
1
1
1
1
1
1
1
1
1
1
1
1
1
1
1
1
1
1
1
1
1
1
1
1
1
1
1
1
1
1
1
1
1
1
1
1
1
1
1
1
1
1
1
1
1
1
1
1
1
1
1
1
1
1
1
1
1
1
1
1
1
1
1
1
1
1
1
1
1
1
1
1
1
1
1
1
1
1
1
1
1
1
1
1
1
1
1
1
1
1
1
1
1
1
1
1
1
1
1
1
1
1
1
1
1
1
1
1
1
1
1
1
1
1
1
1
1
1
1
1
1
1
1
1
1
1
1
1
1
1
1
1
1
1
1
1
1
1
1
1
1
1
1
1
1
1
1
1
1
1
1
1
1
1
1
1
1
1
1
1
1
3.70719
1.13564
0.999999
1
1
1
1
1
1
1
1
1
1
1
1
1
1
1
1
1
10.8673
6.66249
2.63197
0.999966
1
1
1
1
1
1
1
1
1
1
1
1
1
1
1
1
9.31184
8.14803
7.76224
5.13734
1.39794
0.999998
1
1
1
1
1
1
1
1
1
1
1
1
1
1
8.17452
7.79196
8.07046
7.87008
5.84058
1.73842
0.999304
1
1
1
1
1
1
1
1
1
1
1
1
1
7.80361
7.69898
7.74339
7.67963
7.75129
6.04529
1.85449
0.998566
1
1
1
1
1
1
1
1
1
1
1
1
7.68881
7.64491
7.66143
7.64756
7.69985
7.56388
5.76154
1.72868
0.998484
1
1
1
1
1
1
1
1
1
1
1
7.65251
7.64089
7.67172
7.67166
7.68146
7.63101
7.5271
5.28015
1.48634
0.998633
1
1
1
1
1
1
1
1
1
1
7.66476
7.67303
7.677
7.65702
7.64006
7.58898
7.61417
7.45652
4.55387
1.24233
0.999068
1
1
1
1
1
1
1
1
1
7.67909
7.67302
7.65013
7.61111
7.5785
7.52732
7.47269
7.40198
6.83318
3.16168
1.04193
0.99999
1
1
1
1
1
1
1
1
7.65273
7.62787
7.59185
7.54443
7.5033
7.45362
7.41848
7.37674
7.44306
6.48802
2.25969
0.999603
1
1
1
1
1
1
1
1
7.59037
7.53689
7.4965
7.46003
7.42485
7.38757
7.37365
7.35829
7.39483
7.39495
5.43256
1.60722
0.997717
1.00001
1
1
1
1
1
1
7.4802
7.42458
7.40389
7.38233
7.35824
7.3354
7.33701
7.31543
7.30793
7.32101
6.99917
3.80855
1.12283
0.999447
0.999999
1
1
1
1
1
7.38478
7.34148
7.33179
7.31829
7.29978
7.29294
7.28568
7.22817
7.21061
7.16183
7.15041
6.39776
2.36719
1.00878
0.999962
0.999999
1
1
1
1
7.31549
7.28038
7.27877
7.27015
7.25686
7.24858
7.21713
7.1571
7.12005
7.09782
7.08683
6.8049
4.68575
1.37447
1.00125
1
1
1
1
1
7.22653
7.18656
7.17643
7.16207
7.13651
7.12491
7.08079
7.04374
7.04121
7.04903
7.03862
6.87138
6.58715
2.82822
0.977555
0.998542
0.999993
1
1
1
2.37518
3.74499
4.47445
5.01848
5.39037
5.68668
5.90622
6.09269
6.25777
6.42389
6.59261
6.65463
6.65547
5.80747
2.2855
1.05647
1.0005
1
1
1
0.647627
1.87101
2.62871
3.29413
3.89555
4.31018
4.72435
5.02383
5.32135
5.5785
5.8647
6.0605
6.26309
6.37322
4.98855
1.8659
1.03
1.00023
1
1
0.628956
1.2469
1.6901
2.16529
2.72045
3.2582
3.72175
4.15462
4.47624
4.83077
5.13793
5.4444
5.71757
6.08337
5.81389
3.79098
1.39183
1.00843
1.00005
1
0.73079
0.97555
1.18559
1.62184
2.03358
2.50573
2.92281
3.41966
3.78764
4.16203
4.51887
4.86806
5.18935
5.54972
5.6108
5.27002
2.66802
1.11777
1.00138
1.00001
0.837498
0.847793
0.879091
1.1886
1.55418
1.96776
2.37014
2.75611
3.17518
3.49939
3.92621
4.29528
4.66041
4.95363
5.25031
5.27347
4.23271
1.69994
1.02078
1.00014
0.931931
0.858134
0.849546
1.0071
1.21892
1.53097
1.945
2.29244
2.70227
3.01777
3.40747
3.83288
4.14824
4.49405
4.78344
5.11338
4.80524
2.78566
1.16364
1.00208
0.955482
0.886509
0.889231
0.947067
1.05259
1.28717
1.62258
1.96602
2.32538
2.68705
3.01748
3.45269
3.75968
4.09638
4.38826
4.83259
4.80267
3.78651
1.59546
1.01867
0.935343
0.89845
0.90784
0.890088
0.922988
1.11961
1.36799
1.6859
1.96936
2.35427
2.65814
3.05522
3.40206
3.67711
3.97613
4.40438
4.73096
4.47574
2.52397
1.12152
0.923619
0.905686
0.899465
0.867532
0.861259
0.969563
1.13816
1.42922
1.68771
2.01367
2.33844
2.66294
3.04885
3.31623
3.64204
4.04446
4.51738
4.50645
3.36988
1.47009
0.932927
0.928314
0.908975
0.875417
0.867044
0.952789
1.04108
1.24966
1.52157
1.78503
2.12922
2.41009
2.77803
3.07616
3.38547
3.73594
4.20276
4.3895
3.76043
2.07485
0.9453
0.93632
0.914789
0.882865
0.88438
0.922271
0.979118
1.14024
1.39029
1.62894
1.938
2.2123
2.52647
2.84678
3.13802
3.40797
3.81213
4.22351
3.97181
2.99197
0.948255
0.935738
0.916882
0.896819
0.892407
0.890689
0.913292
1.02438
1.23543
1.47615
1.6988
1.99218
2.23616
2.57092
2.86979
3.15304
3.55146
4.01153
4.03756
4.07209
0.942671
0.932274
0.929028
0.910242
0.891132
0.877628
0.88235
0.941234
1.06853
1.32049
1.51865
1.78072
2.0322
2.34097
2.65906
2.96857
3.30405
3.73827
4.13723
5.09418
0.929152
0.922397
0.930775
0.920514
0.901044
0.88286
0.886321
0.944385
1.02303
1.21852
1.4299
1.65007
1.89646
2.16366
2.4882
2.79689
3.03947
3.42976
4.18737
6.07432
0.910729
0.920292
0.927255
0.924703
0.906309
0.885791
0.892569
0.933749
0.978136
1.1278
1.33035
1.52633
1.77718
1.99642
2.2954
2.59372
2.84669
3.24685
4.25832
7.02003
0.791349
0.895452
0.914741
0.91927
0.901002
0.882669
0.887748
0.90057
0.923092
1.03036
1.22151
1.38838
1.62629
1.86793
2.09602
2.39324
2.69257
3.08506
4.36681
7.75272
0.685333
0.823297
0.886028
0.90966
0.899001
0.887761
0.881855
0.881367
0.890019
0.950791
1.10821
1.2922
1.45944
1.74342
1.992
2.24803
2.52689
2.92213
4.38087
8.33436
0.606484
0.738532
0.840165
0.898549
0.904688
0.899507
0.889208
0.882278
0.891429
0.942848
1.01135
1.20387
1.37471
1.59995
1.86921
2.11385
2.35042
2.85865
4.613
8.72969
0.542159
0.660724
0.781061
0.870501
0.903027
0.900524
0.892422
0.878377
0.884164
0.924355
0.953284
1.09094
1.29314
1.47839
1.71708
1.95102
2.20345
2.81384
4.74879
8.70805
0.531802
0.603052
0.698313
0.810773
0.884693
0.893433
0.884635
0.866453
0.86986
0.891186
0.919083
1.01669
1.1838
1.36581
1.56754
1.78894
2.07152
2.8815
4.97752
8.60959
0.554464
0.556735
0.621912
0.737001
0.833861
0.875989
0.875223
0.86521
0.859219
0.859431
0.886046
0.981039
1.10405
1.26737
1.44688
1.65154
1.96281
3.05966
5.00059
8.22178
0.614494
0.560504
0.57166
0.660237
0.755817
0.837909
0.865842
0.861409
0.849573
0.843013
0.85546
0.931611
1.02535
1.17391
1.33883
1.54297
1.94642
3.34214
5.00275
7.5793
0.709131
0.622286
0.576051
0.599273
0.67422
0.779084
0.842879
0.851405
0.840563
0.831568
0.835086
0.882356
0.952113
1.08073
1.22826
1.43815
2.08425
3.68064
4.86854
6.85033
0.802992
0.712092
0.608994
0.588055
0.607033
0.701492
0.788339
0.830984
0.830102
0.825202
0.832511
0.856433
0.890826
0.994375
1.13604
1.40748
2.30849
3.97633
4.67326
6.05894
0.88717
0.819982
0.747579
0.651765
0.616195
0.638819
0.688219
0.757902
0.793843
0.805529
0.816346
0.821356
0.831067
0.917472
1.09301
1.59951
2.64344
3.84968
4.19495
4.80165
)
;

boundaryField
{
    inlet
    {
        type            fixedValue;
        value           uniform 1;
    }
    outlet
    {
        type            zeroGradient;
    }
    airfoil
    {
        type            zeroGradient;
    }
    top
    {
        type            symmetryPlane;
    }
    bottom
    {
        type            symmetryPlane;
    }
    defaultFaces
    {
        type            empty;
    }
}


// ************************************************************************* //
