/*--------------------------------*- C++ -*----------------------------------*\
  =========                 |
  \\      /  F ield         | OpenFOAM: The Open Source CFD Toolbox
   \\    /   O peration     | Website:  https://openfoam.org
    \\  /    A nd           | Version:  7
     \\/     M anipulation  |
\*---------------------------------------------------------------------------*/
FoamFile
{
    version     2.0;
    format      ascii;
    class       volScalarField;
    location    "1.4";
    object      p;
}
// * * * * * * * * * * * * * * * * * * * * * * * * * * * * * * * * * * * * * //

dimensions      [1 -1 -2 0 0 0 0];

internalField   nonuniform List<scalar> 
1750
(
0.253409
0.482467
0.721398
0.879094
0.835252
0.819336
0.873675
0.863834
0.819922
0.820591
0.0338322
0.0901105
0.190187
0.502297
0.909843
1.02428
0.997479
0.902845
0.840579
0.828096
0.0229861
0.0296125
0.0386618
0.0677801
0.312438
0.670329
0.780598
0.798168
0.789832
0.78848
0.0326506
0.0370456
0.0456834
0.0848235
0.149914
0.206378
0.290113
0.43608
0.54036
0.633336
0.0553941
0.0599079
0.0744244
0.123591
0.209174
0.22592
0.232826
0.246505
0.286601
0.443496
0.123196
0.132578
0.146355
0.184894
0.260149
0.288789
0.294951
0.308405
0.33028
0.459417
0.24898
0.254436
0.264934
0.291486
0.355971
0.401692
0.421806
0.440858
0.464456
0.584325
0.482247
0.470175
0.467642
0.47573
0.498993
0.524167
0.54327
0.568376
0.608438
0.7431
0.787505
0.751006
0.724687
0.710307
0.697023
0.701151
0.72009
0.749576
0.794343
0.897491
0.969196
0.948151
0.92393
0.903778
0.886605
0.883523
0.892332
0.911386
0.939989
0.980304
1.0027
0.998266
0.992247
0.985939
0.981005
0.980387
0.982419
0.987193
0.993521
0.998743
1.00153
1.00066
0.99992
0.99927
0.998906
0.99891
0.999075
0.999422
0.999789
0.999975
1.00014
1.00007
1.00002
0.999987
0.999977
0.999977
0.999982
0.99999
0.999997
1
1
1
1
1
1
1
1
1
1
1
1
1
1
1
1
1
1
1
1
1
0.039672
0.0278195
0.0205753
0.0267747
0.0548165
0.117586
0.247528
0.500981
0.816548
0.983181
1.00606
1.00253
1.00019
1
1
0.0310668
0.0241254
0.0189278
0.0286007
0.0721289
0.152736
0.323957
0.621721
0.911512
1.00952
1.01053
1.00279
1.00012
1
1
0.0253842
0.0164752
0.0204266
0.0303005
0.0807347
0.177882
0.389763
0.718701
0.968987
1.02005
1.0136
1.00239
1.00008
1
1
0.0208064
0.011107
0.0232821
0.0390942
0.0938805
0.231996
0.49089
0.819014
1.00806
1.02781
1.01474
1.00185
1.00005
1
1
0.0198156
0.00955118
0.023082
0.0523132
0.136781
0.311325
0.591332
0.901582
1.03255
1.03443
1.01432
1.00123
1.00002
1
1
0.0178303
0.0102649
0.0225031
0.0772572
0.19171
0.39262
0.705208
0.979633
1.04764
1.03837
1.01122
1.00066
1.00001
1
1
0.0133317
0.013261
0.0339949
0.109703
0.249437
0.502584
0.84031
1.03428
1.05664
1.03785
1.00766
1.00033
1
1
1
0.00894256
0.0195122
0.0554045
0.147101
0.333873
0.658168
0.957167
1.06307
1.06186
1.03155
1.00423
1.00014
1
1
1
0.00605005
0.0230644
0.0759674
0.211156
0.488989
0.817434
1.03495
1.07615
1.06401
1.02258
1.00199
1.00005
1
1
1
0.00258175
0.0214269
0.123194
0.346605
0.665804
0.952266
1.07955
1.08326
1.05526
1.01273
1.00076
1.00002
1
1
1
0.000859091
0.047068
0.218179
0.526675
0.842802
1.05163
1.09717
1.08713
1.04059
1.00585
1.00024
1
1
1
1
0.00359176
0.124283
0.388963
0.73148
1
1.10236
1.10344
1.07587
1.02301
1.0021
1.00007
1
1
1
1
0.0259604
0.232124
0.62454
0.943387
1.09657
1.11867
1.10564
1.05326
1.00986
1.00057
1.00001
1
1
1
1
0.146863
0.507563
0.888352
1.0779
1.13104
1.1234
1.08481
1.02713
1.00304
1.00013
1
1
1
1
1
0.521055
0.883596
1.08108
1.13085
1.13807
1.1148
1.05562
1.01012
1.00062
1.00002
1
1
1
1
1
1.13992
1.14346
1.14594
1.14203
1.13918
1.08424
1.02203
1.00119
1
1
1
1
1
1
1
1.14309
1.14869
1.15176
1.14548
1.13394
1.07772
1.0212
1.00205
1.00007
1
1
1
1
1
1
1.14746
1.15507
1.15771
1.14823
1.12048
1.05001
1.00759
1.00036
1.00001
1
1
1
1
1
1
1.15084
1.15919
1.15957
1.14528
1.09826
1.03146
1.00336
1.00012
1
1
1
1
1
1
1
1.15195
1.16205
1.16002
1.13314
1.07298
1.01565
1.00115
1.00003
1
1
1
1
1
1
1
1.15282
1.16379
1.1599
1.1145
1.04678
1.00694
1.00035
1.00001
1
1
1
1
1
1
1
1.16105
1.16215
1.15362
1.08905
1.02494
1.00256
1.0001
1
1
1
1
1
1
1
1
1.17707
1.15009
1.13235
1.0593
1.01174
1.00081
1.00002
1
1
1
1
1
1
1
1
1.19038
1.13992
1.10308
1.03468
1.00461
1.00022
1.00001
1
1
1
1
1
1
1
1
1.19722
1.12606
1.0697
1.01613
1.00144
1.00005
1
1
1
1
1
1
1
1
1
1.19613
1.10128
1.04189
1.00672
1.0004
1.00001
1
1
1
1
1
1
1
1
1
1.17273
1.07439
1.02047
1.00207
1.00008
1
1
1
1
1
1
1
1
1
1
1.14127
1.04654
1.00803
1.00049
1.00001
1
1
1
1
1
1
1
1
1
1
1.09796
1.02119
1.00199
1.00007
1
1
1
1
1
1
1
1
1
1
1
1.04313
1.00612
1.0003
1.00001
1
1
1
1
1
1
1
1
1
1
1
1
1
1
1
1
1
1
1
1
1
1
1
1
1
1
1
1
1
1
1
1
1
1
1
1
1
1
1
1
1
1
1
1
1
1
1
1
1
1
1
1
1
1
1
1
1
1
1
1
1
1
1
1
1
1
1
1
1
1
1
1
1
1
1
1
1
1
1
1
1
1
1
1
1
1
1
1
1
1
1
1
1
1
1
1
1
1
1
1
1
1
1
1
1
1
1
1
1
1
1
1
1
1
1
1
1
1
1
1
1
1
1
1
1
1
1
1
1
1
1
1
1
1
1
1
1
1
1
1
1
1
1
1
1
1
1
1
1
1
1
1
1
1
1
1
1
1
1
1
1
1
1
1
1
1
1
1
1
1
1
1
1
1
1
1
1
1
1
1
1
1
1
1
1
1
1
1
1
1
1
1
1
1
1
1
1
1
1
1
1
1
1
1
1
1
1
1
1
1
1
1
1
1
1
1
1
1
1
1
1
1
1
1
1
1
1
1
1
1
1
1
1
1
1
1
1
1
1
1
1
1
1
1
1
1
1
1
1
1
1
1
1
1
1
1
1
1
1
1
1
1
1
1
1
1
1
1
1
1
1
1
1
1
1
1
1
1
1
1
1
1
1
1
1
1
1
1
1
1
1
1
1
1
1
1
1
1
1
1
1
1
1
1
1
1
1
1
1
1
1
1
1
1
1
1
1
1
1
1
1
1
1
1
1
1
1
1
1
1
1
1
1
1
1
1
1
1
1
1
1
1
1
1
1
1
1
1
1
1
1
1
1
1
1
1
1
1
1
1
1
2.19193
0.999349
1
1
1
1
1
1
1
1
1
1
1
1
1
1
1
1
1
1
8.12573
3.10844
0.999992
1
1
1
1
1
1
1
1
1
1
1
1
1
1
1
1
1
11.8213
8.44225
6.38679
1.82969
0.999268
1
1
1
1
1
1
1
1
1
1
1
1
1
1
1
9.08375
7.56425
7.98276
6.38431
1.9541
0.997726
1
1
1
1
1
1
1
1
1
1
1
1
1
1
7.65525
7.07199
7.2559
7.05623
4.87838
1.35456
0.999998
1
1
1
1
1
1
1
1
1
1
1
1
1
7.04122
6.8158
6.84866
6.7992
6.26603
2.85734
0.997339
1
1
1
1
1
1
1
1
1
1
1
1
1
6.81053
6.66078
6.67291
6.56191
6.50174
4.89808
1.41404
0.999998
1
1
1
1
1
1
1
1
1
1
1
1
6.63536
6.53912
6.56563
6.43222
6.3379
5.69974
2.56447
0.995536
1
1
1
1
1
1
1
1
1
1
1
1
6.50302
6.44564
6.47893
6.40995
6.41714
6.12165
3.94468
1.13331
0.999999
1
1
1
1
1
1
1
1
1
1
1
6.43818
6.3991
6.45109
6.42662
6.39184
6.17525
4.97622
1.69019
0.999998
1
1
1
1
1
1
1
1
1
1
1
6.4381
6.4071
6.45268
6.4445
6.43477
6.28771
5.73213
2.61821
0.996135
1
1
1
1
1
1
1
1
1
1
1
6.48069
6.43012
6.45211
6.4079
6.41596
6.30904
6.04844
3.78531
1.13524
0.999999
1
1
1
1
1
1
1
1
1
1
6.52214
6.44203
6.44659
6.38475
6.41515
6.37178
6.23851
4.85774
1.51988
0.999098
1
1
1
1
1
1
1
1
1
1
6.54617
6.46658
6.43658
6.36669
6.38671
6.39919
6.27183
5.569
2.62512
1.01245
1
1
1
1
1
1
1
1
1
1
6.49865
6.4532
6.43319
6.4061
6.38911
6.42944
6.33668
5.91652
3.04154
0.892329
1
1
1
1
1
1
1
1
1
1
2.23681
3.75833
4.6119
5.1956
5.62332
5.93935
6.14655
6.157
5.50753
2.4275
1.09596
1.0012
1.00001
1
1
1
1
1
1
1
0.491478
1.88367
2.80488
3.56001
4.22997
4.84745
5.35562
5.78499
5.60833
4.64297
2.05031
1.05851
1.00062
1
1
1
1
1
1
1
0.274905
0.892636
1.59756
2.37262
3.02959
3.68892
4.32374
4.94641
5.07054
5.01641
3.77087
1.54194
1.01609
1.0001
1
1
1
1
1
1
0.350824
0.64917
0.930599
1.43505
2.10092
2.69688
3.27334
3.83579
4.33807
4.63433
4.28839
2.50436
1.13374
1.00176
1.00001
1
1
1
1
1
0.520951
0.616407
0.704461
0.998535
1.46982
2.04312
2.44646
2.88358
3.49165
4.06374
4.00418
3.15694
1.51804
1.01778
1.00011
1
1
1
1
1
0.712826
0.57115
0.570175
0.847665
1.12539
1.56074
1.97498
2.35884
2.84473
3.48812
3.7609
3.47913
2.02084
1.07492
1.00073
1
1
1
1
1
0.737692
0.557092
0.509138
0.683044
0.852558
1.16538
1.58019
1.96099
2.41359
3.03337
3.50377
3.38126
2.41959
1.19873
1.0034
1.00001
1
1
1
1
0.706975
0.562294
0.509374
0.574535
0.660997
0.867737
1.20693
1.52605
1.95417
2.57915
3.18852
3.20459
2.60301
1.37067
1.01129
1.00006
1
1
1
1
0.657046
0.564297
0.538152
0.549149
0.602381
0.775008
1.01394
1.28897
1.60321
2.09843
2.75897
2.90096
2.54486
1.52676
1.02718
1.0002
1
1
1
1
0.602261
0.569969
0.575151
0.547092
0.558732
0.706335
0.895515
1.17843
1.45969
1.85716
2.43023
2.66466
2.44696
1.59545
1.0437
1.00041
1
1
1
1
0.560142
0.572468
0.594549
0.556347
0.543942
0.65848
0.795218
1.06003
1.33283
1.69779
2.27795
2.54275
2.36767
1.60206
1.05128
1.00057
1
1
1
1
0.571307
0.593222
0.618856
0.575971
0.557505
0.653717
0.764256
0.911341
1.1624
1.48668
2.08148
2.37688
2.23954
1.57064
1.05094
1.0006
1
1
1
1
0.631594
0.661922
0.678838
0.631248
0.605899
0.667942
0.753313
0.854118
1.05975
1.32176
1.84804
2.1697
2.07649
1.50351
1.04578
1.00055
1
1
1
1
0.713236
0.743657
0.763403
0.720059
0.677791
0.671929
0.725278
0.826263
0.965843
1.22533
1.73766
2.01571
1.92602
1.41072
1.03472
1.0004
1
1
1
1
0.808092
0.807834
0.822844
0.781424
0.717655
0.665925
0.692495
0.781114
0.877343
1.16654
1.68948
1.91433
1.79872
1.31147
1.02178
1.00022
1
1
1
1
0.770466
0.859904
0.867807
0.822436
0.736979
0.654799
0.665019
0.751324
0.835751
1.17513
1.69511
1.82827
1.66942
1.20457
1.00973
1.00007
1
1
1
1
0.771129
0.882734
0.909693
0.867862
0.766825
0.660751
0.659492
0.751086
0.843911
1.23683
1.68681
1.73574
1.51653
1.10447
1.00279
1.00001
1
1
1
1
0.811851
0.849596
0.90704
0.877664
0.800748
0.695797
0.685305
0.789548
0.927735
1.33935
1.64169
1.6209
1.31899
1.03268
1.00041
1
1
1
1
1
0.798057
0.772932
0.816288
0.845193
0.831986
0.766027
0.753976
0.879074
1.06929
1.41078
1.54892
1.43882
1.12053
1.00453
1.00002
1
1
1
1
1
0.708663
0.694346
0.730108
0.803151
0.869111
0.869444
0.871926
0.999455
1.18336
1.39563
1.3872
1.1877
1.01798
1.00019
0.999995
0.999999
1
1
1
1
0.683007
0.654764
0.68365
0.783304
0.874177
0.934402
0.976928
1.06287
1.19748
1.26501
1.16077
1.02726
1.00044
0.99996
0.999995
1
1
1
1
1
0.744636
0.678412
0.673905
0.756997
0.852131
0.932801
0.990699
1.06399
1.12074
1.06773
1.00979
0.998495
0.999697
0.999977
0.999999
1
1
1
1
1
0.792622
0.72783
0.704231
0.741261
0.799119
0.877923
0.956591
0.99478
0.97407
0.967332
0.987378
0.998349
0.999891
0.999997
1
1
1
1
1
1
0.797882
0.756839
0.733429
0.730013
0.737273
0.78058
0.83548
0.870144
0.90758
0.959179
0.990572
0.99927
0.999984
1
1
1
1
1
1
1
0.822712
0.82748
0.807922
0.78021
0.760319
0.766003
0.795817
0.831644
0.903774
0.966419
0.995394
0.999829
0.999998
1
1
1
1
1
1
1
)
;

boundaryField
{
    inlet
    {
        type            fixedValue;
        value           uniform 1;
    }
    outlet
    {
        type            zeroGradient;
    }
    airfoil
    {
        type            zeroGradient;
    }
    top
    {
        type            symmetryPlane;
    }
    bottom
    {
        type            symmetryPlane;
    }
    defaultFaces
    {
        type            empty;
    }
}


// ************************************************************************* //
