/*--------------------------------*- C++ -*----------------------------------*\
  =========                 |
  \\      /  F ield         | OpenFOAM: The Open Source CFD Toolbox
   \\    /   O peration     | Website:  https://openfoam.org
    \\  /    A nd           | Version:  7
     \\/     M anipulation  |
\*---------------------------------------------------------------------------*/
FoamFile
{
    version     2.0;
    format      ascii;
    class       volScalarField;
    location    "4.5";
    object      rho;
}
// * * * * * * * * * * * * * * * * * * * * * * * * * * * * * * * * * * * * * //

dimensions      [1 -3 0 0 0 0 0];

internalField   nonuniform List<scalar> 
1750
(
0.198056
0.376761
0.500788
0.543031
0.562194
0.612044
0.696006
0.737938
0.752896
0.753691
0.0615919
0.110116
0.26805
0.422759
0.541532
0.627902
0.688536
0.678002
0.681215
0.71009
0.0814381
0.0886069
0.10097
0.170959
0.322276
0.487377
0.599977
0.664607
0.705726
0.754036
0.116496
0.126794
0.147829
0.195431
0.206004
0.23156
0.312604
0.470765
0.612436
0.721588
0.203088
0.215576
0.230003
0.254454
0.269398
0.279242
0.298217
0.309187
0.339557
0.476985
0.335853
0.350805
0.34811
0.348415
0.361408
0.385493
0.39836
0.415094
0.432312
0.444476
0.513078
0.517142
0.523244
0.526103
0.530704
0.534859
0.53963
0.539065
0.536916
0.527106
0.793217
0.774103
0.754535
0.738342
0.722283
0.702845
0.686616
0.672691
0.659224
0.645594
1.15318
1.11571
1.07484
1.03279
0.994926
0.957059
0.921365
0.887566
0.865838
0.828277
1.42074
1.39683
1.36802
1.33225
1.29052
1.24614
1.1977
1.14713
1.10233
1.02994
1.46983
1.46801
1.46455
1.45869
1.44897
1.43336
1.4108
1.38019
1.34526
1.27158
1.4504
1.45366
1.4572
1.45835
1.45805
1.45732
1.45601
1.45305
1.44778
1.42432
1.41203
1.41633
1.42117
1.42725
1.43321
1.43845
1.443
1.44663
1.44772
1.4463
1.40061
1.4011
1.40185
1.40319
1.40528
1.4083
1.41226
1.41752
1.42329
1.43114
1.40001
1.40002
1.40004
1.40009
1.40019
1.40041
1.40085
1.40172
1.40318
1.40808
0.0613255
0.0571001
0.0664973
0.101962
0.193913
0.317118
0.508942
0.814604
1.19747
1.43986
1.47054
1.44526
1.40851
1.40039
1.40001
0.0632618
0.0585988
0.0724649
0.123933
0.228538
0.367047
0.615327
0.964732
1.31947
1.47161
1.47146
1.43525
1.40461
1.40015
1.40001
0.0668012
0.0565241
0.0803703
0.134293
0.24151
0.414877
0.709925
1.07206
1.38412
1.47998
1.47021
1.4269
1.40255
1.40007
1.40001
0.0681985
0.0537229
0.0911015
0.146158
0.262501
0.51198
0.817947
1.17967
1.43814
1.48461
1.46396
1.41821
1.40118
1.40003
1.40001
0.0671095
0.0518369
0.0922983
0.174362
0.339037
0.600745
0.928697
1.29396
1.47666
1.48693
1.45489
1.41035
1.4005
1.40001
1.40001
0.0618917
0.0519413
0.0897511
0.206407
0.420854
0.698353
1.07896
1.39841
1.4939
1.48776
1.43941
1.40523
1.4002
1.40001
1.40001
0.0541941
0.058929
0.107841
0.252872
0.514348
0.851782
1.23175
1.46343
1.49958
1.47888
1.42544
1.40235
1.40007
1.40001
1.40001
0.040517
0.0644841
0.154291
0.343206
0.63843
1.03249
1.3563
1.49679
1.50088
1.46312
1.41431
1.40086
1.40003
1.40001
1.40001
0.0219602
0.0646672
0.205143
0.476597
0.82812
1.19785
1.45004
1.51023
1.49909
1.445
1.40662
1.40029
1.40001
1.40001
1.40001
0.0102118
0.0726496
0.298633
0.629545
1.03458
1.35588
1.5033
1.51327
1.48231
1.42616
1.40243
1.40009
1.40001
1.40001
1.40001
0.00633233
0.150109
0.467593
0.855757
1.23263
1.46839
1.52186
1.51326
1.46171
1.41206
1.40076
1.40002
1.40001
1.40001
1.40001
0.0492354
0.293305
0.682901
1.11864
1.40859
1.52148
1.52564
1.497
1.43471
1.40421
1.40019
1.40001
1.40001
1.40001
1.40001
0.177065
0.519757
0.998329
1.34303
1.51101
1.53775
1.52624
1.46894
1.41505
1.40118
1.40004
1.40001
1.40001
1.40001
1.40001
0.439799
0.880204
1.29364
1.48812
1.54633
1.54056
1.49955
1.4341
1.40448
1.40023
1.40001
1.40001
1.40001
1.40001
1.40001
0.913517
1.28595
1.48726
1.54225
1.55194
1.52573
1.4598
1.41221
1.40094
1.40004
1.40001
1.40001
1.40001
1.40001
1.40001
1.54612
1.54979
1.55261
1.55008
1.54432
1.48492
1.42222
1.40157
1.40003
1.40001
1.40001
1.40001
1.40001
1.40001
1.40001
1.54593
1.55109
1.55414
1.54696
1.5338
1.47486
1.42163
1.40237
1.40011
1.40001
1.40001
1.40001
1.40001
1.40001
1.40001
1.54638
1.55416
1.55635
1.54739
1.51918
1.44972
1.40735
1.40036
1.40001
1.40001
1.40001
1.40001
1.40001
1.40001
1.40001
1.54593
1.55556
1.55651
1.54149
1.49551
1.43022
1.40324
1.40013
1.40001
1.40001
1.40001
1.40001
1.40001
1.40001
1.40001
1.54538
1.5563
1.55534
1.52917
1.47121
1.41578
1.40118
1.40004
1.40001
1.40001
1.40001
1.40001
1.40001
1.40001
1.40001
1.54794
1.55775
1.55397
1.51211
1.447
1.40699
1.40036
1.40001
1.40001
1.40001
1.40001
1.40001
1.40001
1.40001
1.40001
1.55777
1.55911
1.5512
1.48844
1.42441
1.40249
1.4001
1.40001
1.40001
1.40001
1.40001
1.40001
1.40001
1.40001
1.40001
1.57196
1.54747
1.52939
1.45775
1.41179
1.40084
1.40003
1.40001
1.40001
1.40001
1.40001
1.40001
1.40001
1.40001
1.40001
1.58483
1.53639
1.50148
1.43489
1.40458
1.40022
1.40001
1.40001
1.40001
1.40001
1.40001
1.40001
1.40001
1.40001
1.40001
1.59177
1.52438
1.4687
1.41595
1.40146
1.40006
1.40001
1.40001
1.40001
1.40001
1.40001
1.40001
1.40001
1.40001
1.40001
1.59048
1.49984
1.44116
1.40653
1.40039
1.40002
1.40001
1.40001
1.40001
1.40001
1.40001
1.40001
1.40001
1.40001
1.40001
1.56691
1.47326
1.42072
1.40213
1.40009
1.40001
1.40001
1.40001
1.40001
1.40001
1.40001
1.40001
1.40001
1.40001
1.40001
1.53883
1.44622
1.40788
1.40048
1.40002
1.40001
1.40001
1.40001
1.40001
1.40001
1.40001
1.40001
1.40001
1.40001
1.40001
1.49605
1.42104
1.40201
1.40008
1.40001
1.40001
1.40001
1.40001
1.40001
1.40001
1.40001
1.40001
1.40001
1.40001
1.40001
1.44292
1.40603
1.4003
1.40001
1.40001
1.40001
1.40001
1.40001
1.40001
1.40001
1.40001
1.40001
1.40001
1.40001
1.40001
1.40001
1.40001
1.40001
1.40001
1.40001
1.40001
1.40001
1.40001
1.40001
1.40001
1.40001
1.40001
1.40001
1.40001
1.40001
1.40001
1.40001
1.40001
1.40001
1.40001
1.40001
1.40001
1.40001
1.40001
1.40001
1.40001
1.40001
1.40001
1.40001
1.40001
1.40001
1.40001
1.40001
1.40001
1.40001
1.40001
1.40001
1.40001
1.40001
1.40001
1.40001
1.40001
1.40001
1.40001
1.40001
1.40001
1.40001
1.40001
1.40001
1.40001
1.40001
1.40001
1.40001
1.40001
1.40001
1.40001
1.40001
1.40001
1.40001
1.40001
1.40001
1.40001
1.40001
1.40001
1.40001
1.40001
1.40001
1.40001
1.40001
1.40001
1.40001
1.40001
1.40001
1.40001
1.40001
1.40001
1.40001
1.40001
1.40001
1.40001
1.40001
1.40001
1.40001
1.40001
1.40001
1.40001
1.40001
1.40001
1.40001
1.40001
1.40001
1.40001
1.40001
1.40001
1.40001
1.40001
1.40001
1.40001
1.40001
1.40001
1.40001
1.40001
1.40001
1.40001
1.40001
1.40001
1.40001
1.40001
1.40001
1.40001
1.40001
1.40001
1.40001
1.40001
1.40001
1.40001
1.40001
1.40001
1.40001
1.40001
1.40001
1.40001
1.40001
1.40001
1.40001
1.40001
1.40001
1.40001
1.40001
1.40001
1.40001
1.40001
1.40001
1.40001
1.40001
1.40001
1.40001
1.40001
1.40001
1.40001
1.40001
1.40001
1.40001
1.40001
1.40001
1.40001
1.40001
1.40001
1.40001
1.40001
1.40001
1.40001
1.40001
1.40001
1.40001
1.40001
1.40001
1.40001
1.40001
1.40001
1.40001
1.40001
1.40001
1.40001
1.40001
1.40001
1.40001
1.40001
1.40001
1.40001
1.40001
1.40001
1.40001
1.40001
1.40001
1.40001
1.40001
1.40001
1.40001
1.40001
1.40001
1.40001
1.40001
1.40001
1.40001
1.40001
1.40001
1.40001
1.40001
1.40001
1.40001
1.40001
1.40001
1.40001
1.40001
1.40001
1.40001
1.40001
1.40001
1.40001
1.40001
1.40001
1.40001
1.40001
1.40001
1.40001
1.40001
1.40001
1.40001
1.40001
1.40001
1.40001
1.40001
1.40001
1.40001
1.40001
1.40001
1.40001
1.40001
1.40001
1.40001
1.40001
1.40001
1.40001
1.40001
1.40001
1.40001
1.40001
1.40001
1.40001
1.40001
1.40001
1.40001
1.40001
1.40001
1.40001
1.40001
1.40001
1.40001
1.40001
1.40001
1.40001
1.40001
1.40001
1.40001
1.40001
1.40001
1.40001
1.40001
1.40001
1.40001
1.40001
1.40001
1.40001
1.40001
1.40001
1.40001
1.40001
1.40001
1.40001
1.40001
1.40001
1.40001
1.40001
1.40001
1.40001
1.40001
1.40001
1.40001
1.40001
1.40001
1.40001
1.40001
1.40001
1.40001
1.40001
1.40001
1.40001
1.40001
1.40001
1.40001
1.40001
1.40001
1.40001
1.40001
1.40001
1.40001
1.40001
1.40001
1.40001
1.40001
1.40001
1.40001
1.40001
1.40001
1.40001
1.40001
1.40001
1.40001
1.40001
1.40001
1.40001
1.40001
1.40001
1.40001
1.40001
1.40001
1.40001
1.40001
1.40001
1.40001
1.40001
1.40001
1.40001
1.40001
1.40001
1.40001
1.40001
1.40001
1.40001
1.40001
1.40001
1.40001
1.40001
1.40001
1.40001
1.40001
1.40001
1.40001
1.40001
1.40001
1.40001
1.40001
1.40001
1.40001
1.40001
1.40001
1.40001
1.40001
1.40001
1.40001
1.40001
1.40001
1.40001
1.40001
1.40001
1.40001
1.40001
1.40001
1.40001
4.2768
2.77699
1.43477
1.4
1.40001
1.40001
1.40001
1.40001
1.40001
1.40001
1.40001
1.40001
1.40001
1.40001
1.40001
1.40001
1.40001
1.40001
1.40001
1.40001
5.53859
4.89662
3.99839
1.98077
1.39999
1.40001
1.40001
1.40001
1.40001
1.40001
1.40001
1.40001
1.40001
1.40001
1.40001
1.40001
1.40001
1.40001
1.40001
1.40001
5.00497
4.73342
4.8657
4.4245
2.41096
1.3991
1.40001
1.40001
1.40001
1.40001
1.40001
1.40001
1.40001
1.40001
1.40001
1.40001
1.40001
1.40001
1.40001
1.40001
4.78604
4.69066
4.77363
4.84284
4.60636
2.63556
1.40214
1.4
1.40001
1.40001
1.40001
1.40001
1.40001
1.40001
1.40001
1.40001
1.40001
1.40001
1.40001
1.40001
4.74335
4.71886
4.75897
4.75618
4.81656
4.66834
2.64278
1.40356
1.40001
1.40001
1.40001
1.40001
1.40001
1.40001
1.40001
1.40001
1.40001
1.40001
1.40001
1.40001
4.72548
4.71111
4.72269
4.71999
4.75402
4.78073
4.38658
2.24723
1.39787
1.40001
1.40001
1.40001
1.40001
1.40001
1.40001
1.40001
1.40001
1.40001
1.40001
1.40001
4.69712
4.67776
4.67951
4.68272
4.73317
4.76066
4.78217
4.16168
1.95982
1.39798
1.40001
1.40001
1.40001
1.40001
1.40001
1.40001
1.40001
1.40001
1.40001
1.40001
4.65523
4.62967
4.63398
4.64125
4.68829
4.71297
4.74338
4.68425
3.6155
1.64119
1.39901
1.40001
1.40001
1.40001
1.40001
1.40001
1.40001
1.40001
1.40001
1.40001
4.60704
4.57889
4.58576
4.59719
4.63282
4.66171
4.66972
4.649
4.47006
2.68646
1.4209
1.40001
1.40001
1.40001
1.40001
1.40001
1.40001
1.40001
1.40001
1.40001
4.5617
4.53331
4.5412
4.55002
4.57384
4.60076
4.62244
4.62601
4.69707
4.25711
2.03299
1.39724
1.40002
1.40001
1.40001
1.40001
1.40001
1.40001
1.40001
1.40001
4.5214
4.49533
4.5007
4.50356
4.52255
4.54276
4.57869
4.60901
4.66948
4.5571
3.32397
1.55368
1.39955
1.40001
1.40001
1.40001
1.40001
1.40001
1.40001
1.40001
4.48805
4.46551
4.46659
4.46453
4.47798
4.50331
4.54382
4.578
4.6147
4.57404
4.27184
2.28954
1.40305
1.40001
1.40001
1.40001
1.40001
1.40001
1.40001
1.40001
4.47123
4.4477
4.44126
4.4339
4.44249
4.46827
4.5034
4.5413
4.56415
4.54566
4.5889
3.55556
1.63606
1.39885
1.4
1.40001
1.40001
1.40001
1.40001
1.40001
4.45273
4.43223
4.42598
4.42065
4.42045
4.43587
4.46662
4.51259
4.53501
4.52844
4.58456
4.27744
2.42243
1.41566
1.4
1.40001
1.40001
1.40001
1.40001
1.40001
4.42772
4.39271
4.38433
4.36755
4.36933
4.38976
4.43625
4.49588
4.52043
4.51722
4.53289
4.47724
3.47476
1.5455
1.39408
1.39986
1.4
1.40001
1.40001
1.40001
1.98178
2.74017
3.12314
3.39504
3.58228
3.72957
3.89178
4.0501
4.19331
4.2815
4.37257
4.43996
4.32609
2.89037
1.57025
1.40271
1.40002
1.40001
1.40001
1.40001
0.778283
1.6803
2.14117
2.49924
2.82529
3.07035
3.2947
3.50797
3.71377
3.88167
4.04279
4.23884
4.31823
4.01817
2.46761
1.49086
1.40125
1.40001
1.40001
1.40001
0.702188
1.22443
1.57334
1.90175
2.19054
2.51486
2.76358
3.03005
3.24925
3.47757
3.651
3.90786
4.16797
4.04848
3.51663
1.99963
1.42763
1.40025
1.40001
1.40001
0.754315
1.00406
1.19879
1.54743
1.82307
2.09205
2.35184
2.60737
2.85947
3.10231
3.31807
3.5825
3.87
3.89284
3.86536
2.92024
1.64119
1.40545
1.40004
1.40001
0.85474
0.906529
0.959675
1.21048
1.50527
1.75957
2.03384
2.24515
2.51981
2.75441
3.02116
3.25415
3.53643
3.68831
3.7955
3.55034
2.23442
1.45689
1.40059
1.40001
0.946755
0.917363
0.936367
1.08412
1.25967
1.4742
1.73151
1.96563
2.20307
2.45753
2.7169
2.95934
3.20028
3.41029
3.65168
3.61633
2.92642
1.68472
1.40732
1.40005
0.954115
0.924638
0.962254
1.03234
1.12878
1.31946
1.51523
1.75602
1.94919
2.22529
2.47347
2.73904
2.92495
3.13571
3.41842
3.56735
3.36116
2.18208
1.45033
1.40048
0.936615
0.924637
0.960345
0.97942
1.01202
1.19179
1.36129
1.58547
1.7789
2.01416
2.26797
2.52799
2.7496
2.94084
3.20789
3.46724
3.43323
2.72054
1.61935
1.4046
0.934932
0.938067
0.957999
0.958163
0.958194
1.04431
1.20004
1.3959
1.62169
1.79227
2.05042
2.27847
2.55117
2.73807
2.98847
3.29961
3.40254
3.0571
1.91509
1.42505
0.954444
0.963836
0.973458
0.964494
0.963979
1.02821
1.11611
1.25154
1.4708
1.64888
1.85228
2.06778
2.32638
2.54956
2.76655
3.07295
3.32676
3.27525
2.38761
1.50294
0.973778
0.976619
0.984024
0.972994
0.981605
1.01194
1.06553
1.18813
1.36387
1.56237
1.73902
1.94968
2.16571
2.41611
2.63218
2.89646
3.22462
3.26441
2.73806
1.69777
0.970631
0.971061
0.979859
0.982437
0.987749
0.984936
1.00827
1.11805
1.25529
1.46155
1.63229
1.83473
2.03314
2.27352
2.48968
2.71612
3.05841
3.21501
2.92339
1.99847
0.954213
0.957096
0.977638
0.988176
0.984048
0.975239
0.979726
1.03978
1.1211
1.31291
1.49384
1.68465
1.87902
2.09624
2.31765
2.53163
2.85271
3.11017
3.03497
2.41372
0.933499
0.94368
0.976726
0.996912
0.991371
0.978532
0.979334
1.03067
1.09047
1.20414
1.38749
1.55667
1.77008
1.97295
2.20425
2.41389
2.69747
3.0127
3.02067
2.84363
0.920042
0.93893
0.972948
1.00008
0.996275
0.981403
0.984802
1.02689
1.07544
1.16189
1.31911
1.48522
1.6883
1.88872
2.10206
2.30676
2.54602
2.88662
2.98289
3.23781
0.797558
0.922063
0.968193
0.999324
0.997886
0.983916
0.985617
1.00311
1.03951
1.11649
1.2524
1.41466
1.59085
1.80543
1.9845
2.17684
2.40033
2.74091
2.98764
3.59026
0.697715
0.866642
0.953728
0.998401
1.00067
0.992372
0.981334
0.982378
0.997463
1.06539
1.14668
1.3213
1.48081
1.68597
1.88678
2.07028
2.29017
2.60507
3.01078
3.91943
0.630883
0.796875
0.920429
0.990422
1.00329
1.00089
0.98484
0.977763
0.984206
1.04013
1.10033
1.23145
1.41136
1.591
1.79382
1.98019
2.17751
2.46988
3.01273
4.19653
0.600295
0.742421
0.870802
0.963586
0.998628
0.997622
0.981409
0.961514
0.963915
1.00475
1.06913
1.17165
1.34409
1.52254
1.69708
1.87849
2.05109
2.33528
2.97878
4.41213
0.609773
0.705136
0.802432
0.906134
0.975033
0.985845
0.969974
0.947384
0.94691
0.961793
1.02561
1.12927
1.26419
1.43694
1.59463
1.77369
1.93063
2.19974
2.94849
4.56098
0.632462
0.662129
0.729604
0.836489
0.921695
0.961544
0.961479
0.949508
0.946226
0.955642
0.985034
1.07837
1.1895
1.34768
1.49478
1.66647
1.83285
2.11032
2.89344
4.60613
0.676687
0.662144
0.67572
0.761714
0.845616
0.918178
0.95057
0.950769
0.950754
0.952662
0.963938
1.03512
1.12867
1.26372
1.40605
1.55807
1.72347
2.02669
2.90611
4.62122
0.752716
0.711557
0.679363
0.703726
0.760826
0.859302
0.924654
0.942149
0.943823
0.940221
0.943269
0.998585
1.07774
1.184
1.31502
1.4673
1.62357
1.96955
2.88348
4.55073
0.814503
0.783563
0.705263
0.685893
0.701755
0.788812
0.870539
0.916386
0.927028
0.925334
0.930184
0.970898
1.02344
1.12152
1.24011
1.37875
1.54665
1.94315
2.85626
4.37901
0.834923
0.842795
0.811404
0.741998
0.711233
0.734546
0.777608
0.841203
0.875168
0.886636
0.90309
0.92363
0.945862
1.02416
1.12507
1.24289
1.43388
1.92001
2.7684
4.0467
)
;

boundaryField
{
    inlet
    {
        type            calculated;
        value           uniform 1.40001;
    }
    outlet
    {
        type            calculated;
        value           nonuniform List<scalar> 
35
(
0.835038
0.842961
0.811587
0.74212
0.711389
0.734713
0.777867
0.841551
0.875651
0.887157
0.903491
0.923941
0.946142
1.02437
1.12515
1.24309
1.43452
1.92192
2.77014
4.04865
0.753733
0.710185
0.754375
0.722287
0.477821
0.444396
0.527136
0.645621
0.828291
1.02993
1.27159
1.42433
1.4463
1.43115
1.40808
)
;
    }
    airfoil
    {
        type            calculated;
        value           nonuniform List<scalar> 
60
(
0.0613255
0.0632618
0.0668012
0.0681985
0.0671095
0.0618917
0.0541941
0.040517
0.0219602
0.0102118
0.00633233
0.0492354
0.177065
0.439799
0.913517
1.54612
1.54593
1.54638
1.54593
1.54538
1.54794
1.55777
1.57196
1.58483
1.59177
1.59048
1.56691
1.53883
1.49605
1.44292
4.2768
5.53859
5.00497
4.78604
4.74335
4.72548
4.69712
4.65523
4.60704
4.5617
4.5214
4.48805
4.47123
4.45273
4.42772
1.98178
0.778283
0.702188
0.754315
0.85474
0.946755
0.954115
0.936615
0.934932
0.954444
0.973778
0.970631
0.954213
0.933499
0.920042
)
;
    }
    top
    {
        type            symmetryPlane;
    }
    bottom
    {
        type            symmetryPlane;
    }
    defaultFaces
    {
        type            empty;
    }
}


// ************************************************************************* //
