/*--------------------------------*- C++ -*----------------------------------*\
  =========                 |
  \\      /  F ield         | OpenFOAM: The Open Source CFD Toolbox
   \\    /   O peration     | Website:  https://openfoam.org
    \\  /    A nd           | Version:  7
     \\/     M anipulation  |
\*---------------------------------------------------------------------------*/
FoamFile
{
    version     2.0;
    format      ascii;
    class       volScalarField;
    location    "15";
    object      rho;
}
// * * * * * * * * * * * * * * * * * * * * * * * * * * * * * * * * * * * * * //

dimensions      [1 -3 0 0 0 0 0];

internalField   nonuniform List<scalar> 
90000
(
0.909909
0.950423
0.993427
1.03599
1.07693
1.11619
1.15341
1.18768
1.21943
1.2472
1.2727
1.29382
1.31319
1.32825
1.34214
1.35235
1.36163
1.36811
1.37378
1.37782
1.38113
1.3834
1.38576
1.3857
1.38437
1.38053
1.37474
1.36956
1.3649
1.36547
1.36712
1.36951
1.3721
1.37471
1.37678
1.37837
1.37947
1.3789
1.37674
1.3748
1.37348
1.37327
1.37371
1.37492
1.37678
1.37883
1.37953
1.37889
1.37732
1.37618
1.37634
1.37664
1.37776
1.37946
1.37948
1.37883
1.37804
1.37796
1.37839
1.37935
1.37975
1.37948
1.37887
1.3788
1.37908
1.37957
1.37971
1.37961
1.37964
1.37988
1.3802
1.38023
1.38012
1.38009
1.38012
1.38026
1.38054
1.38079
1.3808
1.38069
1.38043
1.38039
1.38045
1.38067
1.38103
1.3814
1.38167
1.38185
1.38183
1.38182
1.38173
1.38164
1.38164
1.38168
1.38174
1.38173
1.38173
1.38179
1.3819
1.3822
0.877041
0.877555
0.878938
0.881937
0.887
0.8952
0.906612
0.922537
0.942258
0.967146
0.995451
1.02833
1.06324
1.10067
1.13815
1.1749
1.20993
1.24096
1.26945
1.29161
1.31142
1.32424
1.33587
1.34225
1.34797
1.35077
1.35455
1.35934
1.36648
1.37071
1.37367
1.37668
1.37911
1.38117
1.38089
1.38027
1.37792
1.37496
1.37224
1.37243
1.3732
1.37452
1.37661
1.37875
1.37976
1.37922
1.37802
1.37636
1.37514
1.37536
1.37642
1.37834
1.37989
1.37964
1.37873
1.37763
1.37765
1.37799
1.37879
1.37964
1.37955
1.37897
1.37864
1.37881
1.37923
1.3796
1.37955
1.37955
1.37967
1.37998
1.38022
1.38016
1.38003
1.38005
1.38013
1.38029
1.38058
1.3808
1.38077
1.38056
1.38034
1.38035
1.38045
1.38069
1.38105
1.38141
1.38164
1.38181
1.38181
1.38176
1.38166
1.3816
1.38162
1.38167
1.3817
1.3817
1.38171
1.38177
1.38189
1.38219
0.877369
0.877393
0.877421
0.877455
0.877507
0.877604
0.877818
0.878277
0.879089
0.880552
0.882946
0.886997
0.893096
0.902615
0.915661
0.934271
0.957543
0.987651
1.02209
1.06221
1.10454
1.14845
1.1916
1.23135
1.26895
1.30016
1.3277
1.34618
1.36046
1.36833
1.37364
1.3758
1.37726
1.378
1.37779
1.37521
1.3703
1.37101
1.37358
1.37624
1.37973
1.38261
1.38358
1.38261
1.38095
1.37769
1.37584
1.37521
1.37575
1.37801
1.38071
1.38191
1.38129
1.37948
1.37824
1.37791
1.37856
1.38006
1.38109
1.38071
1.37972
1.37902
1.37917
1.37991
1.38045
1.38019
1.37986
1.37998
1.38047
1.38086
1.3807
1.38045
1.38037
1.38043
1.38061
1.38087
1.38118
1.3812
1.38106
1.38078
1.3806
1.38065
1.38084
1.38113
1.38149
1.38177
1.38193
1.38203
1.382
1.38194
1.38183
1.38179
1.38182
1.38186
1.38187
1.38186
1.38187
1.38194
1.38207
1.38238
0.878133
0.87815
0.878169
0.878192
0.878218
0.878258
0.878284
0.878323
0.878367
0.878416
0.878473
0.878552
0.878674
0.878893
0.879365
0.880254
0.881779
0.884551
0.889079
0.896885
0.908489
0.926698
0.950861
0.984384
1.02409
1.07224
1.12386
1.17526
1.22483
1.26481
1.30116
1.32286
1.34156
1.34958
1.35674
1.36077
1.36787
1.37559
1.38334
1.38893
1.39157
1.3903
1.3887
1.38503
1.37905
1.37647
1.37663
1.37835
1.38171
1.38539
1.38539
1.38394
1.38131
1.3793
1.37934
1.38097
1.38278
1.38379
1.38312
1.38159
1.38026
1.38065
1.38184
1.38257
1.38212
1.38133
1.38139
1.38196
1.38249
1.38231
1.38184
1.38175
1.38185
1.38195
1.38205
1.38222
1.38235
1.38228
1.38204
1.3817
1.38171
1.38179
1.38192
1.38215
1.38243
1.38263
1.38272
1.38281
1.38278
1.38266
1.38253
1.38251
1.38253
1.38253
1.38253
1.38246
1.38246
1.38251
1.38261
1.38288
0.879073
0.879099
0.879127
0.879155
0.879184
0.87921
0.879241
0.879256
0.87927
0.879288
0.879312
0.879345
0.879387
0.879456
0.879494
0.879532
0.879574
0.879631
0.879721
0.879888
0.880215
0.880991
0.882483
0.885546
0.890919
0.901066
0.916845
0.942856
0.977457
1.025
1.07934
1.13946
1.19908
1.25067
1.29696
1.32977
1.35691
1.36939
1.37744
1.38199
1.38529
1.38608
1.38374
1.37843
1.37934
1.38126
1.38544
1.38883
1.3901
1.38871
1.3855
1.38355
1.38193
1.38228
1.38456
1.38686
1.38659
1.38568
1.38411
1.3829
1.38337
1.38461
1.38516
1.38471
1.38389
1.38377
1.38428
1.38477
1.38472
1.38435
1.38405
1.38403
1.38405
1.38403
1.38413
1.38436
1.38444
1.38424
1.38382
1.38351
1.38349
1.38353
1.38368
1.38396
1.38421
1.3843
1.3843
1.38427
1.38416
1.384
1.38387
1.38381
1.38379
1.38378
1.3837
1.38358
1.38355
1.38358
1.38369
1.38393
0.879922
0.879941
0.879962
0.879984
0.880006
0.880028
0.880051
0.880074
0.880097
0.880119
0.88014
0.88016
0.880179
0.880197
0.880209
0.880216
0.880227
0.880246
0.880276
0.880318
0.880421
0.880434
0.880452
0.880489
0.880575
0.880789
0.881271
0.882585
0.8854
0.891731
0.90309
0.924744
0.956514
1.00463
1.06214
1.1287
1.19562
1.25027
1.29799
1.32478
1.34791
1.35912
1.36679
1.37416
1.38497
1.3936
1.39905
1.39778
1.39552
1.39026
1.38213
1.3821
1.38335
1.38668
1.3905
1.39033
1.389
1.38627
1.38471
1.38529
1.3869
1.38808
1.38749
1.38634
1.3857
1.38622
1.38713
1.38723
1.38691
1.38641
1.38622
1.38621
1.38623
1.38629
1.38654
1.38664
1.38649
1.38607
1.38562
1.38546
1.38548
1.38557
1.38573
1.38596
1.3861
1.38608
1.38602
1.38592
1.38575
1.38559
1.38547
1.38541
1.38537
1.3853
1.38519
1.38504
1.38498
1.385
1.38507
1.38524
0.880537
0.880547
0.880559
0.880571
0.880584
0.880597
0.88061
0.880623
0.880636
0.880651
0.880664
0.880678
0.880692
0.880706
0.88072
0.880733
0.880744
0.880755
0.880764
0.880773
0.880778
0.880784
0.880795
0.880812
0.880838
0.880881
0.880993
0.880987
0.881004
0.881083
0.88132
0.882096
0.884066
0.889254
0.899614
0.921362
0.955212
1.00878
1.07361
1.14677
1.2183
1.27641
1.32748
1.35897
1.37779
1.38524
1.39106
1.39155
1.38729
1.38087
1.38255
1.38605
1.39039
1.39322
1.39195
1.3893
1.38651
1.38591
1.38651
1.38891
1.38978
1.38898
1.38786
1.38714
1.38755
1.38876
1.38879
1.3883
1.38777
1.38786
1.38798
1.38789
1.38774
1.38784
1.38816
1.38815
1.38791
1.38748
1.38709
1.38698
1.38702
1.38715
1.38733
1.38754
1.3876
1.38757
1.38751
1.38737
1.38721
1.38703
1.38689
1.38684
1.38679
1.38668
1.38653
1.38636
1.38631
1.38632
1.38639
1.38655
0.880887
0.880892
0.880897
0.880902
0.880908
0.880914
0.88092
0.880926
0.880933
0.880939
0.880945
0.880952
0.880959
0.880966
0.880973
0.88098
0.880988
0.880995
0.881003
0.881011
0.881018
0.881025
0.881032
0.88104
0.881046
0.881052
0.881059
0.881078
0.881103
0.881132
0.881209
0.881202
0.881213
0.88127
0.881466
0.882209
0.884297
0.890315
0.903026
0.930724
0.973558
1.03872
1.11598
1.19366
1.26531
1.30743
1.34277
1.35678
1.36711
1.37725
1.38972
1.39973
1.40007
1.39833
1.39237
1.38403
1.38434
1.38623
1.38959
1.39218
1.39133
1.38907
1.38692
1.38742
1.38914
1.39039
1.3899
1.38884
1.38809
1.38846
1.38883
1.3888
1.3887
1.38886
1.38907
1.38893
1.38844
1.38813
1.38801
1.38791
1.38797
1.3881
1.38835
1.38857
1.38857
1.38852
1.3884
1.38819
1.38797
1.38792
1.38788
1.38781
1.38775
1.38766
1.38751
1.38737
1.38732
1.38735
1.38745
1.38756
0.881051
0.881053
0.881055
0.881058
0.88106
0.881062
0.881065
0.881068
0.881071
0.881074
0.881077
0.88108
0.881084
0.881087
0.881092
0.881096
0.881101
0.881106
0.881111
0.881117
0.881123
0.881129
0.881136
0.881143
0.881151
0.881159
0.881165
0.881174
0.881183
0.881194
0.881204
0.881225
0.881249
0.881274
0.881321
0.881315
0.881327
0.881397
0.881697
0.882887
0.886263
0.896248
0.916713
0.959456
1.0215
1.10442
1.19104
1.2639
1.32756
1.36345
1.38206
1.38978
1.39349
1.38873
1.381
1.38256
1.38696
1.39126
1.39271
1.39171
1.38816
1.38616
1.38661
1.38925
1.39076
1.3904
1.38893
1.38822
1.38852
1.38904
1.38898
1.38883
1.38898
1.38943
1.3894
1.38915
1.38863
1.3883
1.38828
1.38828
1.38836
1.38861
1.38884
1.38895
1.38895
1.3889
1.3888
1.38861
1.38843
1.3883
1.38832
1.38831
1.38824
1.38811
1.38798
1.38789
1.38787
1.38791
1.38801
1.38817
0.881123
0.881124
0.881125
0.881126
0.881127
0.881128
0.881129
0.881131
0.881132
0.881134
0.881136
0.881138
0.881141
0.881144
0.881147
0.88115
0.881154
0.881158
0.881163
0.881167
0.881173
0.881178
0.881184
0.881191
0.881198
0.881205
0.881213
0.881221
0.881229
0.881237
0.881243
0.881251
0.881258
0.881266
0.881272
0.881285
0.881295
0.881313
0.881306
0.881309
0.881343
0.881528
0.882252
0.885076
0.892853
0.914704
0.954723
1.02505
1.11377
1.20252
1.28191
1.3213
1.35441
1.36355
1.37713
1.38839
1.39883
1.39816
1.39502
1.3871
1.38371
1.38513
1.38906
1.39218
1.39137
1.38868
1.3873
1.38794
1.38942
1.38938
1.38897
1.38875
1.38921
1.38971
1.38952
1.38874
1.38838
1.38832
1.38841
1.38845
1.38858
1.38885
1.38906
1.38906
1.38903
1.38898
1.38882
1.38861
1.38847
1.38846
1.38847
1.38846
1.38843
1.38832
1.38819
1.38814
1.38813
1.38819
1.38833
1.38847
0.88117
0.88117
0.881171
0.881171
0.881172
0.881172
0.881173
0.881175
0.881176
0.881178
0.881179
0.881182
0.881184
0.881187
0.88119
0.881193
0.881196
0.8812
0.881204
0.881208
0.881213
0.881218
0.881223
0.881228
0.881234
0.881239
0.881245
0.881251
0.881257
0.881262
0.881267
0.88127
0.881273
0.881273
0.881274
0.881275
0.881274
0.881274
0.881275
0.881274
0.881269
0.881259
0.88126
0.881285
0.881424
0.88215
0.884738
0.894246
0.916639
0.968187
1.04518
1.14246
1.23894
1.30906
1.36365
1.37949
1.39158
1.39118
1.3844
1.38159
1.38529
1.39073
1.39314
1.39208
1.38792
1.38578
1.38661
1.38939
1.38987
1.38925
1.38836
1.38868
1.38973
1.38974
1.38896
1.3882
1.38824
1.3884
1.38851
1.38858
1.38877
1.38901
1.38909
1.38906
1.38902
1.38895
1.38881
1.38859
1.38844
1.38846
1.3885
1.38849
1.38844
1.38832
1.38821
1.3882
1.38822
1.3883
1.38845
1.38858
0.881216
0.881216
0.881217
0.881218
0.881219
0.881221
0.881223
0.881224
0.881227
0.881229
0.881231
0.881234
0.881237
0.88124
0.881243
0.881246
0.881249
0.881252
0.881255
0.881258
0.881261
0.881264
0.881267
0.881269
0.881272
0.881275
0.881278
0.88128
0.881281
0.881283
0.881283
0.881282
0.881282
0.88128
0.881277
0.881274
0.881271
0.881267
0.881262
0.881257
0.881252
0.881245
0.881238
0.88123
0.881226
0.88123
0.88126
0.881443
0.882277
0.886137
0.89782
0.932121
0.992848
1.08891
1.19741
1.27313
1.33622
1.3514
1.36783
1.38094
1.39525
1.39863
1.39602
1.3876
1.38334
1.38516
1.38921
1.39076
1.38951
1.38777
1.38805
1.38953
1.39012
1.38939
1.38804
1.38796
1.38828
1.3885
1.38848
1.38858
1.38891
1.38905
1.38903
1.38899
1.38897
1.3889
1.38864
1.38847
1.38842
1.38845
1.38849
1.38848
1.3884
1.38826
1.3882
1.38821
1.38826
1.38836
1.38849
1.38862
0.881268
0.88127
0.881272
0.881274
0.881276
0.881278
0.881281
0.881283
0.881285
0.881288
0.881291
0.881293
0.881296
0.881298
0.8813
0.881302
0.881304
0.881305
0.881305
0.881306
0.881307
0.881307
0.881308
0.881308
0.881307
0.881306
0.881305
0.881304
0.881303
0.881301
0.881298
0.881295
0.881291
0.881287
0.881282
0.881277
0.881272
0.881266
0.88126
0.881255
0.881248
0.881242
0.881236
0.881232
0.881234
0.881239
0.88125
0.88126
0.881276
0.881336
0.881619
0.883258
0.889227
0.911135
0.95848
1.04807
1.15783
1.25446
1.33669
1.36995
1.38778
1.39064
1.38452
1.38123
1.38553
1.39154
1.39235
1.39008
1.38638
1.38664
1.38903
1.39058
1.39001
1.38786
1.38752
1.38795
1.38854
1.38848
1.38844
1.38864
1.38905
1.38901
1.38894
1.38892
1.38888
1.38874
1.38847
1.38837
1.38839
1.38843
1.38847
1.38844
1.38833
1.38819
1.38819
1.38822
1.3883
1.38842
1.38851
1.38862
0.881324
0.881326
0.881327
0.881329
0.881331
0.881332
0.881334
0.881335
0.881336
0.881338
0.881339
0.88134
0.881341
0.881341
0.881341
0.881341
0.88134
0.881339
0.881337
0.881336
0.881334
0.881332
0.88133
0.881328
0.881326
0.881323
0.881321
0.881318
0.881315
0.881312
0.88131
0.881306
0.881302
0.881298
0.881293
0.881289
0.881285
0.88128
0.881276
0.881272
0.881269
0.881265
0.881266
0.881267
0.881269
0.881275
0.881282
0.881294
0.881307
0.881312
0.881317
0.881333
0.881435
0.882146
0.885384
0.899996
0.936467
1.01885
1.12941
1.23108
1.31587
1.34339
1.36348
1.37893
1.39682
1.39912
1.39493
1.38457
1.38483
1.38778
1.39159
1.3909
1.38808
1.38652
1.38741
1.38877
1.38869
1.38836
1.38845
1.38895
1.38918
1.38903
1.38889
1.38888
1.38881
1.38858
1.38836
1.38833
1.38836
1.3884
1.38843
1.38838
1.38824
1.38815
1.38817
1.38822
1.38833
1.38844
1.38852
1.38861
0.881367
0.881368
0.881368
0.881367
0.881367
0.881367
0.881366
0.881366
0.881365
0.881364
0.881364
0.881362
0.88136
0.881358
0.881356
0.881353
0.88135
0.881348
0.881346
0.881342
0.88134
0.881336
0.881333
0.88133
0.881327
0.881323
0.88132
0.881317
0.881315
0.881313
0.881311
0.881308
0.881306
0.881306
0.881305
0.881304
0.881304
0.881304
0.881305
0.881306
0.881307
0.88131
0.881315
0.88132
0.881324
0.881328
0.881332
0.881336
0.881336
0.881333
0.881325
0.88132
0.881314
0.881315
0.881354
0.881717
0.88366
0.894084
0.924071
0.99951
1.10867
1.22218
1.32133
1.36541
1.38754
1.39117
1.3817
1.38201
1.38802
1.39365
1.39232
1.38797
1.38563
1.38642
1.3893
1.38928
1.38844
1.38823
1.38882
1.38934
1.38919
1.38891
1.38891
1.3889
1.38873
1.38842
1.38832
1.38834
1.38838
1.3884
1.3884
1.38831
1.38817
1.38813
1.38816
1.38825
1.38839
1.38848
1.38853
1.38861
0.881391
0.881389
0.881388
0.881386
0.881384
0.881382
0.88138
0.881378
0.881375
0.881372
0.881369
0.881366
0.881363
0.881359
0.881356
0.881352
0.881348
0.881345
0.881341
0.881337
0.881334
0.88133
0.881327
0.881325
0.881321
0.881319
0.881317
0.881315
0.881313
0.881312
0.881311
0.881311
0.881312
0.881314
0.881318
0.881324
0.881331
0.881338
0.881345
0.881352
0.88136
0.881369
0.881376
0.881382
0.881385
0.881385
0.881382
0.881376
0.881364
0.881349
0.881331
0.881309
0.881293
0.881286
0.881285
0.881288
0.881317
0.88155
0.882924
0.891019
0.917068
0.989193
1.10063
1.21564
1.30845
1.34438
1.36442
1.38373
1.40054
1.39877
1.39192
1.3834
1.38469
1.38911
1.39072
1.38923
1.38771
1.38836
1.38969
1.38961
1.38896
1.38885
1.38905
1.38895
1.38858
1.38834
1.38837
1.38841
1.38843
1.38842
1.38837
1.38824
1.38814
1.38814
1.38819
1.38831
1.38845
1.38853
1.38855
1.38861
0.881399
0.881397
0.881394
0.881391
0.881389
0.881386
0.881383
0.88138
0.881376
0.881372
0.881368
0.881364
0.88136
0.881356
0.881353
0.881349
0.881344
0.881341
0.881337
0.881334
0.881331
0.881328
0.881326
0.881323
0.881322
0.881321
0.881321
0.881322
0.881322
0.881323
0.881325
0.881328
0.881333
0.88134
0.881349
0.881359
0.88137
0.88138
0.88139
0.881399
0.881408
0.881416
0.881423
0.881424
0.881423
0.88142
0.881412
0.881399
0.88138
0.881359
0.881336
0.881311
0.881289
0.88128
0.881278
0.881281
0.881296
0.881328
0.881378
0.881572
0.882657
0.889714
0.914748
0.986409
1.09831
1.22268
1.32526
1.37253
1.39089
1.38902
1.37947
1.3832
1.39037
1.39269
1.39013
1.38664
1.38714
1.38996
1.39014
1.38934
1.38873
1.38903
1.38925
1.38895
1.38842
1.38836
1.38846
1.38847
1.38845
1.38843
1.38834
1.38819
1.38814
1.38816
1.38825
1.38838
1.38853
1.38858
1.38858
1.38862
0.881392
0.88139
0.881387
0.881385
0.881383
0.881379
0.881377
0.881374
0.881371
0.881367
0.881365
0.881362
0.881359
0.881356
0.881353
0.881348
0.881346
0.881345
0.881344
0.881342
0.881342
0.881342
0.881341
0.881341
0.881341
0.881342
0.881344
0.881346
0.88135
0.881354
0.88136
0.881368
0.881377
0.881386
0.881396
0.881404
0.88141
0.881417
0.881424
0.88143
0.881435
0.881439
0.881441
0.881441
0.881437
0.881431
0.881422
0.881407
0.881388
0.881366
0.881344
0.881318
0.881295
0.881289
0.881288
0.881291
0.881307
0.881344
0.881403
0.881453
0.881483
0.881616
0.882611
0.889373
0.915427
0.989357
1.11015
1.23345
1.31705
1.35261
1.37017
1.39213
1.40116
1.3963
1.38512
1.38565
1.38932
1.39173
1.39021
1.38827
1.38866
1.38959
1.38942
1.38853
1.38833
1.38848
1.38857
1.38851
1.3885
1.38846
1.38834
1.38819
1.38816
1.38821
1.38833
1.38847
1.3886
1.38863
1.38862
1.38865
0.881379
0.881377
0.881377
0.881376
0.881374
0.881372
0.881372
0.881372
0.881371
0.881369
0.881369
0.881369
0.881367
0.881366
0.881364
0.881364
0.881364
0.881365
0.881365
0.881367
0.881368
0.88137
0.881374
0.881377
0.881381
0.881386
0.881391
0.881397
0.881406
0.881413
0.881421
0.881429
0.881434
0.881438
0.881439
0.88144
0.881441
0.881441
0.881442
0.881443
0.881444
0.881445
0.881447
0.881445
0.881439
0.881431
0.88142
0.881408
0.881394
0.881377
0.881358
0.881336
0.881316
0.881305
0.881304
0.881313
0.881336
0.881371
0.881422
0.88147
0.881496
0.881499
0.881494
0.881595
0.882645
0.889896
0.92028
1.00105
1.12518
1.26046
1.34486
1.38309
1.39241
1.38194
1.38296
1.38983
1.39396
1.39165
1.38732
1.38748
1.38971
1.3899
1.38889
1.3881
1.3884
1.38869
1.38861
1.38851
1.38851
1.38846
1.38823
1.38814
1.38817
1.38827
1.3884
1.38855
1.38864
1.38866
1.38866
1.38868
0.881371
0.881371
0.881371
0.881371
0.88137
0.881369
0.881369
0.88137
0.88137
0.881371
0.881373
0.881375
0.881379
0.881383
0.881387
0.881393
0.8814
0.881405
0.881413
0.88142
0.881426
0.881435
0.881443
0.88145
0.881458
0.881466
0.88147
0.881474
0.881479
0.88148
0.881479
0.881477
0.881475
0.881471
0.881465
0.88146
0.881457
0.881451
0.881443
0.881432
0.881425
0.881422
0.881421
0.881418
0.881416
0.881412
0.881409
0.881405
0.881402
0.881399
0.881394
0.881385
0.881373
0.881359
0.881351
0.881355
0.881369
0.881394
0.881423
0.881459
0.881494
0.881495
0.881489
0.881466
0.881446
0.881566
0.882959
0.891592
0.929417
1.02057
1.15646
1.27901
1.33628
1.36186
1.38586
1.40098
1.3978
1.3867
1.38565
1.3884
1.39122
1.3898
1.38775
1.38804
1.38889
1.38885
1.38852
1.38855
1.38854
1.38834
1.38815
1.38816
1.38823
1.38834
1.38847
1.38861
1.38867
1.38869
1.3887
1.38869
0.881373
0.881375
0.881378
0.881381
0.881385
0.881389
0.881394
0.8814
0.881406
0.881413
0.88142
0.881427
0.881435
0.881444
0.881451
0.881462
0.88147
0.881477
0.881487
0.881495
0.881501
0.88151
0.881516
0.88152
0.881526
0.881527
0.881527
0.881525
0.881522
0.881516
0.881509
0.881501
0.881492
0.881485
0.881474
0.881458
0.88144
0.881423
0.881405
0.881386
0.881374
0.881369
0.881368
0.881368
0.881371
0.881378
0.88139
0.881404
0.88142
0.881442
0.881458
0.88146
0.881458
0.881446
0.881426
0.881407
0.8814
0.881402
0.881408
0.881422
0.881449
0.88148
0.881487
0.881481
0.881472
0.881449
0.881456
0.881647
0.88369
0.895314
0.945815
1.05063
1.19149
1.31581
1.37249
1.39204
1.38501
1.38153
1.38806
1.39333
1.39173
1.38676
1.38687
1.38885
1.3892
1.38872
1.3884
1.38862
1.38852
1.38816
1.38812
1.38822
1.38832
1.3884
1.38852
1.38864
1.38867
1.3887
1.38871
1.38868
0.881423
0.881428
0.881432
0.881439
0.881447
0.881453
0.881459
0.881466
0.881472
0.881478
0.881485
0.881492
0.881501
0.881507
0.881512
0.881518
0.881525
0.88153
0.881536
0.881541
0.881545
0.881548
0.88155
0.88155
0.881549
0.881547
0.881544
0.881539
0.881532
0.881525
0.881517
0.881505
0.881489
0.88147
0.881451
0.881434
0.881416
0.881399
0.881382
0.881365
0.881352
0.881347
0.881347
0.881349
0.881356
0.881369
0.881388
0.881414
0.881444
0.881477
0.881504
0.881514
0.881511
0.881499
0.881478
0.881452
0.881425
0.881403
0.881399
0.881404
0.881417
0.881445
0.881486
0.881516
0.881527
0.881528
0.881521
0.881502
0.881517
0.881821
0.885085
0.902782
0.968056
1.09588
1.23066
1.32545
1.35568
1.37979
1.40041
1.39783
1.3876
1.38471
1.38735
1.39021
1.38923
1.38813
1.38845
1.38881
1.38837
1.38801
1.38814
1.38829
1.38835
1.38842
1.38853
1.38862
1.38865
1.3887
1.38871
1.38865
0.881484
0.881485
0.881488
0.881492
0.881497
0.881502
0.881506
0.88151
0.881514
0.881516
0.88152
0.881524
0.88153
0.881534
0.881537
0.881539
0.881543
0.881547
0.88155
0.881551
0.881551
0.881552
0.881552
0.881551
0.881546
0.881542
0.881537
0.881532
0.881524
0.881512
0.881496
0.88148
0.881465
0.881451
0.881437
0.881422
0.881407
0.881392
0.881376
0.881364
0.881355
0.881348
0.881348
0.881353
0.881363
0.88138
0.881404
0.881433
0.881463
0.88149
0.881514
0.881529
0.881524
0.881508
0.881489
0.88147
0.881447
0.881417
0.881402
0.881406
0.881418
0.881443
0.881489
0.881549
0.881584
0.881587
0.881579
0.881551
0.88152
0.881492
0.881528
0.88213
0.887677
0.916643
1.00362
1.14366
1.28558
1.36355
1.39046
1.38678
1.38106
1.38737
1.39235
1.39065
1.38737
1.38761
1.3891
1.38885
1.3879
1.38794
1.38833
1.38839
1.38841
1.38851
1.38859
1.38862
1.38864
1.3887
1.3887
1.38859
0.881512
0.881512
0.881512
0.881514
0.881515
0.881517
0.881519
0.881521
0.881522
0.881523
0.881523
0.881524
0.881525
0.881525
0.881523
0.881522
0.88152
0.881518
0.881515
0.881511
0.881507
0.881504
0.881501
0.881497
0.881488
0.881483
0.881479
0.881473
0.881468
0.881465
0.881462
0.881459
0.881454
0.881445
0.881435
0.881426
0.881418
0.881411
0.881408
0.881405
0.881403
0.881399
0.881395
0.881398
0.881408
0.881417
0.881428
0.881447
0.881468
0.881481
0.881496
0.881512
0.881503
0.881485
0.881475
0.881471
0.881464
0.881445
0.88142
0.881422
0.881438
0.881464
0.881509
0.881572
0.881612
0.881615
0.881605
0.881575
0.881533
0.881494
0.881464
0.88147
0.881578
0.882983
0.893169
0.939386
1.05544
1.20212
1.31091
1.35253
1.37587
1.39941
1.39701
1.38716
1.38638
1.38873
1.38994
1.3881
1.38755
1.38819
1.38859
1.38839
1.38841
1.3886
1.38859
1.38856
1.3886
1.38868
1.38867
1.38851
0.881509
0.881505
0.881501
0.881496
0.881492
0.881488
0.881484
0.881479
0.881474
0.88147
0.881465
0.881461
0.881457
0.881451
0.881446
0.881442
0.881437
0.881434
0.881432
0.881428
0.881424
0.881422
0.88142
0.88142
0.88142
0.88142
0.881422
0.881424
0.881429
0.881437
0.881445
0.88145
0.881454
0.881462
0.881474
0.881485
0.881496
0.881509
0.881516
0.88152
0.881522
0.881521
0.881514
0.881502
0.881486
0.881464
0.88145
0.881436
0.881423
0.881414
0.881409
0.881415
0.881413
0.881416
0.881431
0.881467
0.881489
0.881499
0.881495
0.8815
0.881515
0.881531
0.881552
0.881582
0.881609
0.881609
0.881595
0.881568
0.881543
0.881503
0.881482
0.8815
0.88159
0.881681
0.882029
0.885048
0.904976
0.978003
1.11393
1.26962
1.3539
1.38997
1.38661
1.3826
1.38892
1.39223
1.38958
1.38654
1.38746
1.38893
1.38851
1.38828
1.38852
1.38871
1.38854
1.38853
1.38861
1.38869
1.38865
1.38841
0.881471
0.881465
0.881459
0.881452
0.881446
0.881441
0.881435
0.881429
0.881423
0.881418
0.881413
0.881408
0.881403
0.881399
0.881394
0.881391
0.881388
0.881386
0.881386
0.881386
0.881386
0.881387
0.88139
0.881393
0.881398
0.881405
0.88141
0.881414
0.881419
0.88143
0.881448
0.88147
0.881493
0.881519
0.881543
0.881562
0.88158
0.881599
0.881611
0.881613
0.881613
0.881609
0.881597
0.881577
0.881546
0.881504
0.88146
0.881412
0.881357
0.881329
0.881317
0.881311
0.881315
0.881343
0.881398
0.881473
0.881555
0.881604
0.881626
0.881632
0.88162
0.8816
0.881586
0.881578
0.881568
0.881556
0.881545
0.881544
0.881544
0.881543
0.881557
0.881602
0.88169
0.881791
0.881835
0.881885
0.882579
0.889246
0.927544
1.0346
1.18367
1.3118
1.34879
1.37734
1.3998
1.39577
1.38523
1.38585
1.3896
1.38957
1.38827
1.38829
1.38882
1.38878
1.3885
1.38851
1.38867
1.38868
1.38863
1.38833
0.881463
0.881458
0.881453
0.881448
0.881443
0.881438
0.881433
0.881428
0.881423
0.881418
0.881413
0.881409
0.881405
0.881402
0.881399
0.881397
0.881395
0.881392
0.881391
0.881392
0.881396
0.881399
0.881404
0.881409
0.881415
0.881423
0.881435
0.881448
0.88146
0.881474
0.881489
0.881508
0.88153
0.881554
0.881576
0.881596
0.881613
0.881625
0.881635
0.881638
0.881634
0.881624
0.88161
0.881589
0.881556
0.881516
0.881466
0.881407
0.88134
0.881293
0.881281
0.881278
0.881283
0.881318
0.881398
0.881507
0.88162
0.881708
0.881724
0.881717
0.881687
0.881632
0.881595
0.881566
0.881537
0.881521
0.881525
0.881539
0.881581
0.881639
0.881694
0.88175
0.881793
0.881842
0.881834
0.881761
0.881583
0.881668
0.883801
0.899639
0.969251
1.10619
1.26214
1.35753
1.3893
1.38242
1.38239
1.38984
1.39199
1.38905
1.38717
1.38831
1.38919
1.38874
1.38836
1.38859
1.38874
1.38868
1.38849
1.38815
0.881504
0.881506
0.881507
0.881508
0.881509
0.881509
0.881509
0.881511
0.881512
0.881513
0.881515
0.881515
0.881515
0.881517
0.881522
0.881524
0.881524
0.881524
0.881522
0.881519
0.881519
0.881525
0.881531
0.881535
0.881536
0.881535
0.881532
0.881527
0.881519
0.881515
0.881515
0.881524
0.881537
0.881549
0.881563
0.881576
0.881582
0.881584
0.881588
0.881588
0.881575
0.881564
0.881551
0.881534
0.881522
0.881508
0.881475
0.881425
0.881362
0.881308
0.881292
0.881289
0.881299
0.881356
0.881452
0.881555
0.88166
0.881732
0.881742
0.881729
0.881692
0.881625
0.881584
0.881554
0.881521
0.881517
0.881524
0.881574
0.881683
0.881784
0.881844
0.88185
0.881847
0.881822
0.881728
0.881569
0.881418
0.881315
0.881338
0.881939
0.88825
0.923611
1.03477
1.18971
1.30798
1.35355
1.38276
1.39839
1.39395
1.38524
1.38716
1.39015
1.38945
1.38812
1.38834
1.38884
1.38879
1.38854
1.38837
1.38807
0.881681
0.881686
0.881696
0.881706
0.881708
0.881712
0.881719
0.881722
0.881726
0.88173
0.881733
0.881735
0.881739
0.881744
0.881748
0.881748
0.881748
0.881747
0.881743
0.881734
0.88172
0.881705
0.881689
0.881671
0.881652
0.881629
0.881603
0.88158
0.881559
0.881536
0.881514
0.881495
0.881479
0.881465
0.881454
0.881445
0.881439
0.881435
0.881434
0.881434
0.88143
0.881432
0.881442
0.881454
0.881483
0.881509
0.881517
0.881511
0.881491
0.881469
0.881449
0.881433
0.881438
0.881472
0.881526
0.881591
0.881658
0.881696
0.881694
0.881669
0.881631
0.881587
0.881577
0.881551
0.881541
0.881559
0.881617
0.881722
0.881848
0.881914
0.88191
0.881889
0.881822
0.881682
0.881495
0.881383
0.881321
0.881296
0.881354
0.881478
0.881738
0.883798
0.900847
0.970732
1.11373
1.27827
1.3622
1.39003
1.38079
1.3832
1.392
1.39132
1.38793
1.38775
1.38891
1.38911
1.38864
1.38835
1.38826
1.38796
0.881794
0.881799
0.881802
0.881806
0.881812
0.881817
0.881819
0.881822
0.881825
0.881827
0.881827
0.881828
0.881831
0.881829
0.881825
0.881825
0.881827
0.881823
0.881818
0.881809
0.88179
0.88177
0.881751
0.881729
0.881698
0.88166
0.881617
0.881575
0.881534
0.881499
0.881468
0.881439
0.881412
0.881387
0.881364
0.881348
0.881345
0.881346
0.881347
0.881349
0.881356
0.881369
0.881395
0.881434
0.88149
0.881561
0.881628
0.881656
0.88167
0.881668
0.881639
0.881595
0.88157
0.881559
0.881567
0.881589
0.881597
0.881593
0.881588
0.881579
0.881574
0.881573
0.881584
0.881603
0.881652
0.88174
0.881831
0.88192
0.881972
0.881956
0.881926
0.881815
0.881628
0.881395
0.88129
0.88128
0.881294
0.881363
0.881536
0.881754
0.881879
0.88192
0.882484
0.888754
0.92932
1.04715
1.20224
1.32729
1.35688
1.38648
1.39757
1.39196
1.38588
1.38778
1.38988
1.38894
1.3883
1.38836
1.38816
1.38778
0.881773
0.881771
0.881772
0.881773
0.881774
0.881775
0.881776
0.881777
0.881778
0.881778
0.881777
0.881771
0.881769
0.88176
0.881749
0.881746
0.881742
0.881738
0.881743
0.88174
0.88172
0.881689
0.881649
0.881613
0.881584
0.881564
0.881549
0.881531
0.881503
0.881471
0.881441
0.881415
0.881388
0.881365
0.881351
0.881343
0.881337
0.881345
0.881363
0.881373
0.881389
0.881418
0.881454
0.881499
0.881553
0.881615
0.881668
0.881711
0.881739
0.881732
0.881687
0.881637
0.881615
0.881589
0.881538
0.881512
0.881511
0.881512
0.88152
0.881549
0.881575
0.881626
0.881696
0.881775
0.881873
0.881947
0.88199
0.88201
0.882008
0.881961
0.881795
0.881554
0.881312
0.881179
0.881201
0.881254
0.881381
0.881596
0.881805
0.881926
0.88193
0.881868
0.881618
0.881688
0.884141
0.903736
0.987271
1.14432
1.29389
1.37475
1.3894
1.37903
1.38622
1.39136
1.39005
1.38769
1.38796
1.38847
1.38795
1.38763
0.881542
0.881535
0.881527
0.881521
0.881516
0.881505
0.881497
0.881494
0.881488
0.881477
0.881473
0.881474
0.881469
0.881454
0.881446
0.881445
0.881442
0.881442
0.881458
0.881462
0.881461
0.88147
0.881489
0.881506
0.88152
0.88152
0.881512
0.881514
0.881529
0.881534
0.881547
0.881564
0.881561
0.881552
0.881554
0.881554
0.881558
0.881594
0.881621
0.881615
0.881615
0.881621
0.881611
0.881596
0.881596
0.881611
0.881637
0.881671
0.881695
0.881678
0.881623
0.881563
0.881526
0.881495
0.881472
0.881461
0.881465
0.881476
0.881515
0.881599
0.881737
0.881876
0.881939
0.882001
0.882031
0.882021
0.882024
0.882011
0.881925
0.881724
0.881477
0.881242
0.881111
0.881122
0.881185
0.881374
0.88166
0.881894
0.88198
0.881973
0.881892
0.881666
0.881351
0.881243
0.881316
0.882259
0.891746
0.941479
1.08052
1.24347
1.33137
1.36287
1.39678
1.39582
1.39034
1.38695
1.38878
1.38862
1.38733
1.38758
0.88129
0.88129
0.88129
0.881288
0.881279
0.881273
0.88127
0.88127
0.881267
0.881261
0.881258
0.881259
0.881265
0.881271
0.881271
0.881276
0.881292
0.881317
0.881349
0.881382
0.881417
0.881455
0.881488
0.881526
0.881581
0.881615
0.881648
0.881723
0.881775
0.881771
0.881782
0.881821
0.881828
0.881831
0.881836
0.881844
0.881856
0.881857
0.881851
0.881825
0.881778
0.881719
0.881656
0.881601
0.881567
0.881525
0.881504
0.881494
0.881487
0.881455
0.881397
0.881372
0.88139
0.881439
0.881448
0.88147
0.881528
0.881618
0.881746
0.881899
0.882066
0.882138
0.882138
0.882113
0.882064
0.881989
0.881894
0.881764
0.881571
0.881386
0.881218
0.881114
0.881092
0.881167
0.881388
0.881697
0.881953
0.882044
0.882034
0.881916
0.881633
0.881361
0.881199
0.881221
0.881327
0.881549
0.882006
0.885709
0.915987
1.01572
1.18681
1.32302
1.38674
1.3867
1.38354
1.38914
1.39056
1.38741
1.38676
1.38817
0.881216
0.881227
0.88123
0.88123
0.881231
0.881236
0.881241
0.881246
0.881256
0.881258
0.88126
0.88127
0.881292
0.881307
0.881316
0.881329
0.88135
0.88139
0.881446
0.881511
0.881595
0.881674
0.881745
0.881829
0.881887
0.881885
0.881876
0.881905
0.88193
0.881904
0.881884
0.881886
0.881894
0.8819
0.881908
0.881916
0.881914
0.881896
0.881866
0.881826
0.881759
0.881642
0.881514
0.881493
0.881491
0.881411
0.88132
0.881307
0.881318
0.881301
0.881293
0.881309
0.881355
0.881432
0.881551
0.881703
0.881859
0.881973
0.882073
0.882178
0.882227
0.882227
0.882194
0.882096
0.881903
0.881687
0.881487
0.881324
0.881237
0.881183
0.881115
0.881128
0.881254
0.881523
0.881794
0.881979
0.882081
0.882068
0.88193
0.881623
0.881311
0.881177
0.881187
0.881298
0.881622
0.881859
0.881944
0.882016
0.883406
0.897928
0.96974
1.1247
1.28057
1.34173
1.37584
1.39752
1.39295
1.385
1.38672
1.38948
0.881633
0.881658
0.881682
0.881704
0.881724
0.881747
0.881775
0.881791
0.881812
0.881828
0.881839
0.881856
0.881869
0.881886
0.881909
0.881919
0.88193
0.881958
0.882008
0.882028
0.882029
0.882026
0.882007
0.881987
0.881988
0.881977
0.881924
0.881921
0.881908
0.881847
0.881818
0.881806
0.881778
0.88169
0.88162
0.881624
0.881599
0.881539
0.881526
0.881545
0.88153
0.881432
0.881332
0.881319
0.881362
0.88135
0.881288
0.881277