/*--------------------------------*- C++ -*----------------------------------*\
  =========                 |
  \\      /  F ield         | OpenFOAM: The Open Source CFD Toolbox
   \\    /   O peration     | Website:  https://openfoam.org
    \\  /    A nd           | Version:  7
     \\/     M anipulation  |
\*---------------------------------------------------------------------------*/
FoamFile
{
    version     2.0;
    format      ascii;
    class       volScalarField;
    location    "2.5";
    object      rho;
}
// * * * * * * * * * * * * * * * * * * * * * * * * * * * * * * * * * * * * * //

dimensions      [1 -3 0 0 0 0 0];

internalField   nonuniform List<scalar> 
90000
(
0.562701
0.60457
0.642229
0.674402
0.708591
0.743798
0.778933
0.819786
0.865052
0.912751
0.963537
1.01544
1.06915
1.11861
1.16953
1.2089
1.24251
1.2679
1.28612
1.30079
1.30653
1.31126
1.31037
1.3068
1.30591
1.30392
1.29999
1.30108
1.30574
1.31064
1.31294
1.3182
1.32783
1.34551
1.36425
1.37458
1.37743
1.37508
1.36802
1.36011
1.36005
1.36418
1.37309
1.37795
1.37931
1.38
1.38115
1.38277
1.38511
1.39003
1.39619
1.39803
1.39644
1.39512
1.39651
1.4003
1.40126
1.40022
1.40123
1.40465
1.40532
1.40306
1.40084
1.40019
1.39761
1.39283
1.38888
1.38507
1.38103
1.37859
1.37743
1.37565
1.37056
1.36135
1.34842
1.33531
1.32968
1.32504
1.32095
1.31693
1.31345
1.30943
1.304
1.29749
1.29141
1.28429
1.2748
1.26611
1.25957
1.25626
1.24713
1.22777
1.19944
1.16549
1.1295
1.11045
1.10799
1.11608
1.1214
1.13676
0.524494
0.524584
0.524684
0.524801
0.524904
0.525171
0.525902
0.527691
0.531413
0.537756
0.548799
0.565342
0.589858
0.623715
0.666514
0.72338
0.785856
0.858689
0.922553
0.986568
1.04476
1.09456
1.14695
1.19211
1.23316
1.26895
1.30577
1.3196
1.32747
1.32704
1.32526
1.3302
1.34223
1.36097
1.37465
1.38294
1.38314
1.37675
1.36801
1.36353
1.36804
1.37862
1.38682
1.38803
1.38882
1.38915
1.3896
1.39064
1.39362
1.40096
1.40727
1.40668
1.40333
1.40288
1.40572
1.41031
1.40977
1.40821
1.40999
1.41436
1.41422
1.41122
1.41012
1.40985
1.40687
1.402
1.39874
1.39491
1.3907
1.38862
1.38795
1.38592
1.37985
1.36949
1.35495
1.34101
1.33482
1.33047
1.32611
1.32152
1.31743
1.31278
1.30677
1.29985
1.29367
1.28581
1.27724
1.26845
1.26214
1.25762
1.24676
1.22723
1.20093
1.17093
1.13768
1.11778
1.11414
1.11944
1.12239
1.13525
0.5248
0.524886
0.524988
0.525094
0.525199
0.525322
0.525421
0.525504
0.525628
0.525733
0.525845
0.52601
0.526184
0.526376
0.526586
0.526978
0.528557
0.533305
0.543393
0.560484
0.588106
0.625301
0.677383
0.745365
0.830364
0.930029
1.04182
1.14393
1.21796
1.27934
1.32214
1.34345
1.35749
1.36622
1.3732
1.38147
1.37902
1.37026
1.37201
1.37845
1.39165
1.3978
1.39673
1.3967
1.39909
1.39973
1.39999
1.40114
1.40489
1.41216
1.41627
1.41418
1.41053
1.41112
1.41505
1.41842
1.4165
1.41486
1.41702
1.4214
1.42068
1.41779
1.41814
1.41777
1.41425
1.40956
1.40666
1.40277
1.39829
1.39649
1.39656
1.39434
1.38748
1.37612
1.35969
1.34481
1.33817
1.33396
1.32941
1.3245
1.3199
1.31485
1.30877
1.30201
1.29572
1.28752
1.27851
1.26997
1.26406
1.25833
1.24615
1.22666
1.20248
1.17605
1.14558
1.1261
1.12185
1.12502
1.12544
1.13609
0.52568
0.525769
0.52587
0.525994
0.526101
0.526224
0.526356
0.526472
0.526621
0.526778
0.526942
0.527125
0.527295
0.527463
0.527659
0.527888
0.528081
0.528298
0.528546
0.528778
0.529041
0.529397
0.529809
0.530767
0.53453
0.546878
0.574568
0.631717
0.713897
0.824519
0.945909
1.0637
1.14946
1.21332
1.26185
1.31026
1.34308
1.36885
1.38767
1.40002
1.41725
1.41114
1.40036
1.40311
1.40903
1.40715
1.40644
1.4087
1.41516
1.42023
1.41959
1.41574
1.41437
1.41723
1.42277
1.42323
1.42026
1.41956
1.42261
1.42615
1.4248
1.42326
1.42473
1.42411
1.4201
1.41626
1.41376
1.40951
1.40466
1.40329
1.40353
1.40063
1.39305
1.38079
1.36331
1.34784
1.34056
1.33625
1.33145
1.32633
1.32138
1.31604
1.30973
1.30296
1.29633
1.28776
1.27892
1.27101
1.26563
1.2586
1.24521
1.22607
1.20408
1.18074
1.15513
1.13407
1.13042
1.13257
1.13112
1.13909
0.526858
0.526954
0.527022
0.527126
0.527247
0.527369
0.527474
0.527583
0.527719
0.527843
0.527979
0.528142
0.528318
0.528466
0.528623
0.528804
0.529019
0.529258
0.52951
0.529773
0.530052
0.530381
0.530749
0.531107
0.531468
0.531958
0.532584
0.533424
0.534205
0.538248
0.554043
0.59308
0.661635
0.756422
0.87579
1.00484
1.13313
1.23962
1.32599
1.36081
1.38842
1.39655
1.40305
1.41334
1.42051
1.41462
1.41272
1.41798
1.42495
1.42513
1.42048
1.41491
1.41617
1.42263
1.42776
1.42608
1.42244
1.42293
1.42707
1.42932
1.42728
1.42756
1.42992
1.42872
1.42431
1.42144
1.41933
1.41488
1.40981
1.40887
1.40902
1.40543
1.39739
1.3843
1.36589
1.34991
1.34228
1.33774
1.33268
1.32739
1.32224
1.31659
1.31009
1.30315
1.296
1.28726
1.2788
1.27181
1.26688
1.25841
1.24412
1.22566
1.20585
1.1851
1.16262
1.14271
1.13838
1.1403
1.13919
1.14528
0.528192
0.528272
0.52835
0.528415
0.528513
0.528599
0.528674
0.52878
0.528907
0.528998
0.529098
0.529222
0.529359
0.529501
0.529647
0.529808
0.529991
0.530195
0.530409
0.530624
0.530844
0.531083
0.531363
0.531701
0.532088
0.532527
0.533047
0.53369
0.534474
0.535344
0.536435
0.538053
0.540558
0.544971
0.55813
0.58884
0.650776
0.744048
0.867151
0.992894
1.12254
1.22874
1.31969
1.37426
1.40231
1.40996
1.41995
1.43116
1.4347
1.43121
1.42134
1.4183
1.4199
1.42968
1.43166
1.42701
1.42416
1.42573
1.43136
1.4319
1.42952
1.43117
1.4345
1.43241
1.42786
1.42625
1.42433
1.41969
1.41484
1.41452
1.41393
1.40941
1.401
1.38746
1.36856
1.35206
1.34411
1.339
1.33357
1.32815
1.32262
1.31647
1.30974
1.30276
1.2951
1.28641
1.27859
1.27251
1.26766
1.25793
1.24299
1.22552
1.20782
1.18896
1.16896
1.15013
1.14615
1.14878
1.14759
1.15458
0.529393
0.529433
0.529484
0.529558
0.529617
0.52965
0.529701
0.529779
0.529894
0.52997
0.530015
0.530093
0.530208
0.53033
0.530447
0.53057
0.530709
0.530858
0.531017
0.531188
0.531373
0.531589
0.531832
0.532107
0.532426
0.53277
0.533145
0.533621
0.534188
0.534863
0.535703
0.536803
0.538324
0.540685
0.544883
0.552749
0.568061
0.588486
0.606919
0.632322
0.676337
0.7663
0.894791
1.05492
1.20699
1.31731
1.39736
1.42138
1.43121
1.4305
1.4165
1.41672
1.42852
1.43602
1.43338
1.42578
1.42427
1.42857
1.43533
1.43412
1.43186
1.43493
1.43819
1.43523
1.43076
1.43011
1.42833
1.42336
1.4193
1.41936
1.41773
1.4124
1.40378
1.39017
1.37108
1.35425
1.34554
1.33941
1.33376
1.32833
1.32249
1.31599
1.30898
1.30196
1.29404
1.28564
1.27859
1.27327
1.2679
1.25716
1.24193
1.22569
1.20987
1.19268
1.17433
1.15719
1.15218
1.15591
1.15645
1.16414
0.530088
0.530109
0.530117
0.530142
0.530201
0.530242
0.530272
0.530323
0.530402
0.530496
0.530551
0.530609
0.530695
0.530803
0.530914
0.53102
0.531139
0.531268
0.531402
0.531554
0.531724
0.531913
0.532121
0.532353
0.532617
0.532904
0.533228
0.533565
0.533927
0.534349
0.534897
0.535635
0.536664
0.538169
0.540539
0.544845
0.553479
0.569114
0.590032
0.607674
0.61473
0.616473
0.621591
0.65057
0.723201
0.86647
1.05146
1.20495
1.32885
1.3712
1.40173
1.42357
1.44262
1.44157
1.43393
1.42636
1.42608
1.43411
1.43822
1.43463
1.43341
1.43801
1.43998
1.43649
1.43333
1.43352
1.43177
1.42637
1.42375
1.42356
1.42062
1.4144
1.40569
1.39212
1.37302
1.35623
1.34652
1.33951
1.33342
1.32804
1.32174
1.31519
1.30792
1.30095
1.29314
1.28514
1.27883
1.27427
1.26762
1.25608
1.24104
1.22625
1.21192
1.19595
1.17869
1.16216
1.15752
1.16192
1.1642
1.17422
0.53034
0.530356
0.530361
0.530369
0.530393
0.530427
0.530458
0.530504
0.530566
0.530645
0.530719
0.530788
0.530869
0.530973
0.531086
0.53119
0.531294
0.531417
0.531541
0.531675
0.531828
0.531987
0.532172
0.532385
0.532578
0.532749
0.532933
0.533141
0.533406
0.53373
0.534125
0.53463
0.535308
0.536277
0.537724
0.54011
0.544584
0.553431
0.569976
0.592813
0.610107
0.615696
0.616599
0.617048
0.617428
0.621547
0.647819
0.734407
0.891116
1.08685
1.26946
1.383
1.42723
1.43973
1.43556
1.4203
1.42811
1.44011
1.43912
1.43385
1.43499
1.44184
1.44187
1.43759
1.43682
1.43749
1.43499
1.42933
1.42839
1.42736
1.42268
1.41567
1.40718
1.39368
1.37497
1.35837
1.34708
1.33861
1.33276
1.32743
1.32085
1.31424
1.30688
1.30003
1.29255
1.28513
1.2794
1.27521
1.26715
1.25483
1.24035
1.22714
1.21376
1.19846
1.18202
1.16611
1.16135
1.16707
1.17117
1.18193
0.530456
0.530473
0.530484
0.530494
0.530519
0.530554
0.530591
0.530634
0.530694
0.530762
0.530837
0.530917
0.530999
0.531089
0.531188
0.531296
0.531406
0.531513
0.531618
0.531731
0.531861
0.531988
0.532113
0.532245
0.532387
0.532515
0.532648
0.532784
0.532935
0.533145
0.53342
0.533778
0.53426
0.534931
0.535876
0.537312
0.539755
0.54431
0.553534
0.570956
0.594162
0.611494
0.616491
0.61716
0.617594
0.61817
0.618197
0.618307
0.623655
0.664727
0.783525
0.983473
1.19416
1.33333
1.3884
1.41879
1.43802
1.44474
1.43932
1.43224
1.43838
1.44685
1.44435
1.43933
1.44105
1.44191
1.43792
1.43305
1.43312
1.43082
1.42399
1.41655
1.40846
1.39505
1.37705
1.36023
1.34728
1.33771
1.33211
1.32653
1.31986
1.31325
1.30614
1.29942
1.29225
1.28557
1.28031
1.27558
1.26651
1.25366
1.24003
1.228
1.21525
1.20028
1.18436
1.1691
1.16455
1.17119
1.1766
1.18842
0.53071
0.530732
0.530763
0.530797
0.53083
0.530865
0.530908
0.530948
0.530989
0.53104
0.531101
0.531173
0.531253
0.53134
0.53143
0.531519
0.531616
0.531707
0.531782
0.531857
0.531928
0.531976
0.532043
0.532158
0.532232
0.532287
0.532384
0.532513
0.532608
0.532712
0.532892
0.533162
0.533523
0.534018
0.534704
0.535656
0.537124
0.539526
0.544212
0.554046
0.571802
0.59456
0.610791
0.617096
0.618329
0.618359
0.617837
0.617609
0.617622
0.617668
0.618701
0.637258
0.720538
0.906142
1.1426
1.33031
1.4153
1.44233
1.44047
1.42953
1.44399
1.45202
1.44696
1.4424
1.44576
1.44663
1.44095
1.43767
1.43738
1.43332
1.42471
1.41763
1.40997
1.39674
1.37973
1.3624
1.34748
1.33708
1.33151
1.32564
1.31884
1.31244
1.30608
1.29948
1.29255
1.28633
1.28143
1.27563
1.26567
1.2526
1.24015
1.22916
1.21645
1.20149
1.18607
1.17163
1.16737
1.17454
1.18145
1.1936
0.531186
0.531214
0.531249
0.531285
0.531324
0.531365
0.531405
0.531451
0.531509
0.531563
0.531599
0.531641
0.531692
0.531752
0.531834
0.531885
0.531923
0.531985
0.532033
0.532064
0.532125
0.532161
0.532149
0.53216
0.532204
0.53226
0.53234
0.532443
0.532522
0.532568
0.532668
0.532853
0.533125
0.533505
0.534015
0.53469
0.535651
0.537074
0.539538
0.54433
0.554004
0.57165
0.595549
0.614721
0.617955
0.617587
0.616948
0.617032
0.617296
0.617503
0.617977
0.618931
0.619994
0.628911
0.691379
0.865092
1.11138
1.30573
1.39073
1.42652
1.45431
1.45568
1.44946
1.44938
1.4538
1.45149
1.44331
1.44189
1.44069
1.43401
1.42513
1.41938
1.41185
1.39875
1.38282
1.365
1.34807
1.33701
1.33121
1.32521
1.31859
1.31244
1.30637
1.29998
1.29339
1.28721
1.28241
1.27526
1.26444
1.25188
1.24121
1.23055
1.21752
1.20232
1.18741
1.17428
1.1703
1.17752
1.18619
1.19882
0.531847
0.531876
0.531908
0.531939
0.531971
0.53201
0.53204
0.532057
0.532084
0.532108
0.53212
0.532132
0.532157
0.53218
0.532205
0.53222
0.532214
0.532228
0.532263
0.53226
0.532243
0.53228
0.532314
0.532296
0.53231
0.532382
0.532397
0.532386
0.532451
0.532544
0.532644
0.53281
0.533042
0.533342
0.533703
0.534181
0.534841
0.535758
0.537158
0.539576
0.54426
0.554183
0.572342
0.596694
0.61355
0.616169
0.616436
0.616709
0.617222
0.617846
0.618512
0.619375
0.620343
0.621566
0.622169
0.62728
0.678105
0.847989
1.11692
1.33648
1.43412
1.45639
1.44537
1.45022
1.45915
1.45424
1.44636
1.44578
1.44368
1.43453
1.42652
1.42212
1.41416
1.40111
1.38613
1.36758
1.3491
1.33751
1.33132
1.325
1.31857
1.31276
1.30709
1.30094
1.29442
1.28801
1.28287
1.27453
1.26317
1.25222
1.24264
1.23212
1.21848
1.20304
1.18888
1.17721
1.17401
1.18079
1.19077
1.20406
0.532343
0.532356
0.532368
0.532383
0.532398
0.532405
0.532407
0.532406
0.532403
0.532395
0.532383
0.532373
0.53237
0.53236
0.532331
0.532326
0.532314
0.532281
0.532297
0.532296
0.532278
0.532295
0.532292
0.532241
0.532207
0.532255
0.532324
0.532332
0.532349
0.532454
0.532623
0.532803
0.533009
0.533266
0.533582
0.533949
0.534401
0.534989
0.535855
0.537185
0.539445
0.544103
0.553815
0.571524
0.594525
0.612587
0.6166
0.617392
0.618017
0.618511
0.619193
0.619835
0.620618
0.62149
0.621951
0.621813
0.621981
0.626595
0.682707
0.876245
1.1625
1.34936
1.42069
1.4597
1.46479
1.45467
1.45215
1.45204
1.44715
1.43581
1.43004
1.42581
1.41656
1.40385
1.38987
1.37051
1.3506
1.33854
1.33187
1.32504
1.31888
1.31341
1.30818
1.30212
1.29541
1.28892
1.28268
1.27335
1.26242
1.25314
1.2446
1.23388
1.21942
1.20401
1.19098
1.18124
1.17877
1.18459
1.19501
1.20888
0.532534
0.532527
0.532517
0.532514
0.532516
0.532511
0.532495
0.532476
0.532453
0.532433
0.532414
0.532402
0.532384
0.532341
0.532296
0.532267
0.532195
0.53214
0.532138
0.532111
0.532117
0.53215
0.532163
0.532196
0.532223
0.5322
0.532196
0.532287
0.532372
0.53243
0.532532
0.532685
0.532881
0.533131
0.533431
0.533768
0.534145
0.534569
0.535114
0.53585
0.536982
0.539159
0.543634
0.5529
0.570348
0.593925
0.611532
0.617846
0.61933
0.619729
0.619982
0.620277
0.620703
0.621339
0.621287
0.621271
0.621758
0.623009
0.624095
0.631507
0.705767
0.936141
1.23421
1.41925
1.46455
1.45725
1.4562
1.4579
1.45079
1.4383
1.4353
1.43018
1.41862
1.40685
1.39405
1.37386
1.35301
1.34012
1.33253
1.32548
1.31948
1.31443
1.30943
1.30301
1.29606
1.28973
1.28209
1.27207
1.26254
1.25505
1.24693
1.23558
1.22028
1.20544
1.19398
1.18651
1.18434
1.18907
1.19925
1.21336
0.53253
0.532501
0.532477
0.532473
0.532455
0.532413
0.532393
0.532377
0.532335
0.532296
0.532271
0.532241
0.532217
0.532202
0.532182
0.532158
0.532141
0.532125
0.532095
0.532036
0.532005
0.532035
0.532053
0.53207
0.532133
0.532212
0.532236
0.53228
0.532373
0.532492
0.532626
0.532797
0.533006
0.533232
0.533452
0.533694
0.533986
0.534307
0.534632
0.535023
0.535615
0.536655
0.53865
0.542846
0.551891
0.568967
0.59255
0.611804
0.61943
0.620347
0.620528
0.620605
0.620631
0.62052
0.620243
0.620531
0.621495
0.622869
0.624609
0.625528
0.626
0.638764
0.7611
1.04851
1.31802
1.42016
1.46207
1.46321
1.45405
1.44296
1.44053
1.43331
1.42048
1.4109
1.39897
1.37821
1.35647
1.34211
1.33327
1.32612
1.3201
1.31568
1.31036
1.30335
1.29632
1.29018
1.28177
1.27171
1.26409
1.25762
1.24922
1.23693
1.22117
1.20761
1.19812
1.1925
1.19003
1.19367
1.20326
1.21722
0.532468
0.532444
0.532438
0.532424
0.532383
0.532363
0.532356
0.532331
0.532305
0.532284
0.532237
0.532182
0.532147
0.532113
0.532088
0.532071
0.532059
0.532062
0.532094
0.532127
0.532141
0.532121
0.532101
0.532119
0.532148
0.532205
0.532311
0.53245
0.532604
0.532775
0.532946
0.533106
0.533264
0.533415
0.533582
0.533763
0.53394
0.534136
0.534267
0.534441
0.534762
0.535323
0.536323
0.538242
0.54229
0.550957
0.567626
0.591278
0.612101
0.620212
0.620816
0.620589
0.620052
0.619564
0.619576
0.620043
0.621175
0.622753
0.624583
0.625414
0.625529
0.625571
0.626751
0.66294
0.858979
1.18664
1.41305
1.4626
1.45818
1.44694
1.444
1.43506
1.42271
1.41683
1.40452
1.38344
1.36043
1.34443
1.3342
1.32671
1.32099
1.31708
1.31084
1.30342
1.29651
1.29016
1.28136
1.27245
1.26646
1.2601
1.2509
1.23761
1.22207
1.21054
1.20306
1.19812
1.19513
1.19782
1.20657
1.21995
0.532469
0.532468
0.532468
0.532456
0.532455
0.532457
0.532451
0.532438
0.532423
0.532409
0.532389
0.532346
0.532312
0.532298
0.532293
0.532293
0.532291
0.532293
0.532301
0.532286
0.532311
0.532384
0.532448
0.532509
0.532581
0.532668
0.53277
0.532889
0.533017
0.533151
0.533246
0.533333
0.533399
0.533442
0.533538
0.533592
0.533607
0.533736
0.533853
0.533956
0.534167
0.534563
0.535202
0.536219
0.538106
0.541994
0.550179
0.566174
0.58989
0.612966
0.619887
0.619799
0.618996
0.618877
0.619155
0.619891
0.621088
0.622676
0.624296
0.624989
0.625055
0.625022
0.625544
0.626474
0.632932
0.728701
1.01798
1.30999
1.41998
1.44864
1.4483
1.43976
1.42792
1.4232
1.41013
1.38873
1.36507
1.34704
1.33505
1.32707
1.32214
1.31818
1.3112
1.30353
1.29711
1.29023
1.28138
1.27397
1.269
1.26196
1.25163
1.23768
1.22342
1.21431
1.20786
1.20235
1.19888
1.20098
1.20919
1.22213
0.532459
0.532448
0.532433
0.532415
0.532399
0.532384
0.532372
0.532364
0.532345
0.532347
0.532383
0.532426
0.532448
0.532472
0.532512
0.532564
0.532611
0.532659
0.532702
0.532745
0.532822
0.532934
0.533012
0.533061
0.533123
0.533198
0.533267
0.533319
0.533364
0.533387
0.533398
0.533408
0.533387
0.533353
0.533366
0.533377
0.533355
0.533378
0.533518
0.533681
0.533868
0.53416
0.534618
0.535288
0.536335
0.538207
0.541854
0.549585
0.565084
0.588941
0.610544
0.61743
0.618071
0.618475
0.619074
0.620025
0.621205
0.622765
0.624166
0.624701
0.624604
0.624711
0.625242
0.626218
0.627569
0.628896
0.6581
0.847143
1.18745
1.40249
1.44848
1.44389
1.43656
1.42973
1.41428
1.39156
1.36893
1.34936
1.33594
1.32755
1.32383
1.31884
1.31129
1.30378
1.29789
1.29039
1.28199
1.27582
1.27062
1.26263
1.25131
1.23728
1.22557
1.21838
1.21182
1.20478
1.20092
1.20308
1.21125
1.22355
0.532568
0.532569
0.532572
0.532578
0.532587
0.532606
0.532629
0.53265
0.532672
0.532695
0.53273
0.532766
0.532789
0.532804
0.532857
0.532966
0.53304
0.533108
0.533186
0.533266
0.533358
0.533467
0.533529
0.533553
0.533573
0.533578
0.533569
0.533504
0.533478
0.533471
0.533397
0.533366
0.533359
0.533279
0.533198
0.533217
0.533305
0.533339
0.533395
0.533551
0.533776
0.534061
0.534447
0.53494
0.535609
0.536642
0.538336
0.541758
0.548975
0.563062
0.585036
0.606772
0.617153
0.618767
0.620161
0.621281
0.622174
0.623047
0.623887
0.624044
0.623954
0.624436
0.62543
0.626696
0.627778
0.628564
0.629219
0.634772
0.728178
1.02164
1.3223
1.41134
1.43909
1.43341
1.41859
1.39419
1.37243
1.35234
1.33734
1.32924
1.32627
1.31992
1.31168
1.30441
1.29853
1.29036
1.28243
1.27737
1.27121
1.26216
1.25018
1.23715
1.2289
1.22229
1.21464
1.20556
1.20184
1.20464
1.21344
1.22501
0.53284
0.532867
0.532895
0.532911
0.532936
0.532972
0.533004
0.533033
0.533059
0.533107
0.533203
0.53327
0.5333
0.533353
0.533439
0.533552
0.533626
0.533669
0.533711
0.533756
0.533779
0.533776
0.533771
0.533756
0.53374
0.533732
0.533684
0.533622
0.533585
0.53349
0.533366
0.533309
0.533245
0.533198
0.533191
0.533179
0.533178
0.533299
0.533441
0.533551
0.533726
0.534009
0.534451
0.534927
0.535429
0.536064
0.536929
0.538435
0.541388
0.547636
0.560602
0.581805
0.603698
0.617409
0.621617
0.622378
0.622833
0.623045
0.62332
0.623091
0.623419
0.624224
0.625364
0.626716
0.628044
0.628687
0.62909
0.629639
0.630656
0.663821
0.866743
1.19094
1.40177
1.42587
1.42137
1.39799
1.37779
1.35605
1.33856
1.33225
1.32851
1.32072
1.31215
1.30549
1.29904
1.29046
1.28307
1.27842
1.27118
1.26109
1.24885
1.23864
1.23259
1.22583
1.2163
1.20538
1.20269
1.20674
1.21715
1.22791
0.53329
0.533339
0.533381
0.533426
0.533489
0.533532
0.533564
0.533611
0.533661
0.533704
0.533749
0.533783
0.533805
0.533839
0.533885
0.533911
0.533912
0.533908
0.533899
0.533881
0.533851
0.533802
0.533761
0.533704
0.533645
0.533617
0.533567
0.533561
0.533566
0.533517
0.533479
0.533465
0.533435
0.533408
0.533396
0.533454
0.533504
0.533479
0.533553
0.533768
0.534031
0.534316
0.534653
0.535093
0.535552
0.535904
0.53633
0.536996
0.538226
0.540828
0.546548
0.558065
0.577743
0.601671
0.618768
0.622835
0.623066
0.622919
0.622222
0.622128
0.622693
0.623929
0.625299
0.626664
0.627751
0.628212
0.628907
0.629623
0.630173
0.630719
0.637975
0.7452
1.04817
1.30973
1.39412
1.39795
1.38631
1.36231
1.34096
1.33678
1.33063
1.32081
1.31232
1.30691
1.29947
1.29063
1.28426
1.27911
1.27061
1.25947
1.24812
1.24159
1.2361
1.22851
1.21695
1.20574
1.20462
1.21037
1.22272
1.23201
0.533868
0.533893
0.533917
0.533942
0.533962
0.533969
0.533984
0.53401
0.534022
0.53403
0.534029
0.534026
0.534027
0.534018
0.534006
0.533994
0.53396
0.533924
0.533874
0.53382
0.533764
0.533715
0.533681
0.533625
0.533566
0.533518
0.533465
0.533442
0.533442
0.533428
0.533429
0.533484
0.533571
0.533634
0.53369
0.533799
0.53397
0.53414
0.534299
0.534495
0.534692
0.534872
0.535061
0.535298
0.535454
0.535541
0.535773
0.536204
0.536905
0.538147
0.54055
0.545582
0.556249
0.575059
0.600258
0.619601
0.622325
0.621755
0.62114
0.621594
0.622428
0.623511
0.624726
0.626599
0.627688
0.627948
0.628341
0.629566
0.629977
0.630461
0.631036
0.632261
0.672856
0.887395
1.20217
1.36103
1.38557
1.36528
1.344
1.34146
1.33223
1.3209
1.31339
1.30887
1.30035
1.29118
1.28608
1.27973
1.26956
1.25809
1.24944
1.24487
1.23859
1.22956
1.21665
1.20725
1.20816
1.21564
1.22907
1.23672
0.534119
0.534117
0.534116
0.534113
0.534108
0.53408
0.53407
0.534061
0.53403
0.53402
0.533998
0.533966
0.533941
0.533889
0.533847
0.533815
0.533764
0.53372
0.533697
0.533683
0.533653
0.533612
0.533644
0.533683
0.533687
0.533669
0.533645
0.533643
0.533667
0.533675
0.533731
0.533841
0.533963
0.53413
0.534319
0.534517
0.534724
0.534894
0.53501
0.535094
0.535136
0.535171
0.535189
0.535167
0.535193
0.535181
0.535242
0.535573
0.536147
0.536992
0.538334
0.540714
0.545539
0.555188
0.57191
0.595263
0.613401
0.619486
0.620663
0.621575
0.622723
0.623632
0.624667
0.62619
0.627312
0.627694
0.62801
0.62923
0.630202
0.630738
0.631152
0.631851
0.63226
0.64217
0.753391
1.03947
1.2915
1.32914
1.34795
1.34602
1.3336
1.32033
1.31611
1.31059
1.30079
1.29184
1.2877
1.27984
1.26809
1.25764
1.25251
1.24753
1.23977
1.229
1.21606
1.21074
1.2135
1.22165
1.23426
1.24038
0.534114
0.534104
0.534075
0.534022
0.534016
0.534017
0.53398
0.533958
0.533941
0.533902
0.53388
0.533849
0.533815
0.533787
0.533735
0.533681
0.533657
0.533635
0.53359
0.533573
0.533616
0.533645
0.53365
0.5337
0.533768
0.533838
0.533927
0.534032
0.534147
0.534289
0.534438
0.534576
0.534756
0.535008
0.535166
0.535272
0.535363
0.535401
0.535396
0.535353
0.535272
0.535181
0.535026
0.53488
0.53491
0.535047
0.535109
0.53531
0.535796
0.536505
0.537542
0.539101
0.541498
0.545949
0.553974
0.567609
0.587715
0.607498
0.619016
0.622607
0.623715
0.624326
0.624997
0.625945
0.626962
0.62752
0.627703
0.628573
0.629582
0.630486
0.631578
0.632276
0.632876
0.632729
0.63283
0.675816
0.877975
1.15067
1.31836
1.33541
1.32442
1.32094
1.32016
1.31262
1.30107
1.29271
1.28857
1.27899
1.26746
1.26031
1.2555
1.24891
1.23877
1.22753
1.21593
1.21652
1.22004
1.2271
1.23729
1.24208
0.534045
0.534041
0.534028
0.534013
0.534023
0.534028
0.534007
0.534007
0.534002
0.533962
0.53395
0.533938
0.533913
0.533895
0.533878
0.533867
0.533867
0.533873
0.533877
0.533893
0.533905
0.533896
0.533962
0.534085
0.534217
0.534363
0.534534
0.534736
0.534938
0.535149
0.535352
0.535493
0.53563
0.535745
0.53576
0.535748
0.535713
0.535642
0.535548
0.53541
0.535228
0.535074
0.534965
0.534911
0.534837
0.534832
0.535024
0.535382
0.535855
0.536516
0.537486
0.538748
0.540202
0.542284
0.545869
0.552344
0.564045
0.582927
0.604203
0.618854
0.623858
0.62466
0.624875
0.625358
0.62633
0.62699
0.627649
0.628668
0.629665
0.630716
0.631796
0.632583
0.633017
0.633065
0.632448
0.627353
0.633991
0.741239
1.00145
1.21651
1.29634
1.32118
1.32289
1.31218
1.29965
1.29437
1.28895
1.27774
1.26827
1.26377
1.25822
1.24876
1.23684
1.22566
1.21974
1.22269
1.2259
1.23048
1.2383
1.24201
0.533944
0.533943
0.533936
0.533931
0.533941
0.533946
0.533943
0.53396
0.534004
0.534062
0.534132
0.534179
0.534213
0.534261
0.534334
0.534394
0.534436
0.534494
0.53458
0.534684
0.534791
0.534905
0.53504
0.535185
0.535333
0.535466
0.535551
0.535644
0.535742
0.535843
0.535989
0.536052
0.536054
0.536034
0.535956
0.535811
0.535654
0.535485
0.535331
0.53521
0.53509
0.535037
0.53506
0.535141
0.535227
0.535263
0.535462
0.535891
0.536417
0.537081
0.537923
0.538723
0.539614
0.540746
0.542489
0.545427
0.550775
0.560833
0.577393
0.598871
0.617887
0.62369
0.623988
0.624373
0.625401
0.626351
0.627116
0.627905
0.62926
0.631004
0.632236
0.632986
0.633379
0.633475
0.632422
0.629584
0.62326
0.61502
0.650266
0.8328
1.11211
1.28024
1.31411
1.30868
1.29771
1.29778
1.29029
1.27718
1.27068
1.26614
1.25884
1.2472
1.23618
1.22773
1.22749
1.2282
1.22919
1.23168
1.23778
1.24014
0.534239
0.53426
0.534274
0.534283
0.534306
0.534341
0.534382
0.534414
0.534437
0.534475
0.534543
0.534622
0.534714
0.534812
0.534937
0.535089
0.535233
0.535385
0.535516
0.535621
0.535726
0.535812
0.535909
0.535998
0.536044
0.536091
0.536109
0.536116
0.536168
0.536173
0.536134
0.536075
0.535991
0.535908
0.535805
0.535702
0.535611
0.535547
0.535516
0.535421
0.535393
0.535409
0.535494
0.53566
0.535861
0.536143
0.536546
0.537038
0.53749
0.537909
0.538387
0.53871
0.53904
0.539669
0.540757
0.542483
0.545241
0.550137
0.558981
0.573088
0.592264
0.611301
0.622284
0.624014
0.624692
0.625912
0.627165
0.627922
0.628914
0.6306
0.631813
0.632583
0.633007
0.633065
0.632158
0.629238
0.623625
0.615679
0.607383
0.614308
0.709326
0.956178
1.19176
1.27869
1.29357
1.30224
1.29107
1.27727
1.27333
1.26785
1.25786
1.2456
1.23708
1.23603
1.23426
1.23159
1.2301
1.23132
1.23678
1.23694
0.53524
0.535274
0.53531
0.535349
0.535389
0.535438
0.535499
0.535556
0.535631
0.535733
0.535811
0.535889
0.535988
0.536065
0.536151
0.53627
0.536345
0.536382
0.536391
0.536389
0.536367
0.536299
0.536256
0.536211
0.536089
0.53606
0.536018
0.535894
0.53588
0.535855
0.535726
0.535661
0.535699
0.535731
0.535709
0.535608
0.535511
0.535529
0.535614
0.535743
0.535951
0.536293
0.536657
0.5369
0.537178
0.537492
0.537816
0.538074
0.538206
0.538286
0.538383
0.53848
0.538513
0.538874
0.539769
0.54117
0.54311
0.546028
0.550775
0.558274
0.569714
0.585697
0.603858
0.619668
0.624914
0.625526
0.62626
0.627531
0.629464
0.63096
0.631799
0.632446
0.632916
0.632971
0.632124
0.629573
0.624438
0.616132
0.608083
0.606077
0.607779
0.640673
0.804409
1.07442
1.24562
1.29253
1.28418
1.27912
1.27513
1.26737
1.25461
1.245
1.24284
1.24329
1.23789
1.23112
1.22858
1.23114
1.23746
1.23474
0.536486
0.536528
0.536534
0.536527
0.536547
0.536569
0.536569
0.53655
0.536549
0.536574
0.536591
0.536594
0.536591
0.53659
0.536594
0.536597
0.536591
0.53656
0.536511
0.536465
0.536396
0.536315
0.536276
0.536221
0.536144
0.536112
0.536057
0.535968
0.535969
0.536038
0.53602
0.535825
0.535795
0.535916
0.535971
0.535991
0.536122
0.536442
0.536654
0.53684
0.537166
0.537617
0.537997
0.538244
0.538437
0.538558
0.53853
0.538423
0.538319
0.53813
0.538082
0.538315
0.538469
0.538701
0.539432
0.540739
0.542481
0.544687
0.547756
0.552053
0.558219
0.567509
0.580269
0.595202
0.610286
0.622668
0.627366
0.627971
0.628787
0.630002
0.630998
0.631713
0.632233
0.632428
0.631877
0.629566
0.624291
0.61676
0.609333
0.607024
0.607862
0.609135
0.616213
0.695853
0.925003
1.15825
1.24045
1.28215
1.27583
1.26364
1.24993
1.24783
1.24867
1.24772
1.23869
1.22805
1.22756
1.23376
1.2418
1.23614
0.537017
0.537045
0.537012
0.536912
0.536873
0.536879
0.536927
0.536924
0.536813
0.536751
0.536707
0.53663
0.53658
0.536555
0.536522
0.536471
0.536423
0.536396
0.536377
0.53634
0.536292
0.536339
0.536428
0.536485
0.536553
0.53659
0.536582
0.536532
0.536559
0.536636
0.536616
0.53666
0.536847
0.537148
0.537457
0.537817
0.53833
0.538621
0.53869
0.538608
0.538678
0.538946
0.53904
0.538992
0.538898
0.538743
0.538503
0.538258
0.53802
0.537954
0.538182
0.53842
0.53862
0.539012
0.539833
0.541106
0.542784
0.54473
0.546825
0.549511
0.553251
0.558515
0.565906
0.576072
0.58864
0.601511
0.613973
0.624814
0.628941
0.629817
0.630488
0.63124
0.631717
0.631829
0.631201
0.629103
0.624551
0.617122
0.609855
0.607206
0.608309
0.609583
0.611469
0.614216
0.64233
0.780122
1.02971
1.22391
1.25756
1.25865
1.24961
1.25245
1.25201
1.24621
1.23274
1.22551
1.2296
1.2402
1.24743
1.23962
0.537176
0.537177
0.537127
0.536989
0.536926
0.536958
0.536933
0.53686
0.536707
0.53656
0.536503
0.536393
0.536335
0.536415
0.536464
0.536419
0.536302
0.536304
0.536332
0.536318
0.536349
0.536478
0.536607
0.536675
0.536663
0.536781
0.537007
0.537189
0.5374
0.537628
0.537874
0.53816
0.538481
0.538861
0.539251
0.539641
0.539925
0.54003
0.540015
0.539949
0.539759
0.539492
0.53913
0.538823
0.538843
0.538859
0.538595
0.538168
0.538091
0.5383
0.538628
0.53905
0.539698
0.540582
0.541624
0.542655
0.543786
0.545173
0.546645
0.548311
0.550714
0.554161
0.55888
0.565477
0.574302
0.584656
0.595193
0.60575
0.615451
0.624012
0.628959
0.630417
0.631073
0.631232
0.630681
0.628463
0.62402
0.616945
0.610917
0.608432
0.609206
0.61082
0.612064
0.614076
0.616606
0.622571
0.689948
0.892189
1.10377
1.22868
1.2434
1.25699
1.25449
1.2442
1.22293
1.22492
1.23544
1.24606
1.24906
1.24047
0.536957
0.536959
0.536965
0.536972
0.536989
0.537022
0.537089
0.537205
0.537248
0.537249
0.537347
0.537395
0.537416
0.537568
0.537666
0.537752
0.537927
0.538012
0.538003
0.538061
0.538226
0.538485
0.538845
0.539027
0.539133
0.53941
0.539767
0.539918
0.539971
0.540074
0.540234
0.540457
0.540639
0.540852
0.541156
0.541175
0.541221
0.541265
0.541075
0.540749
0.540537
0.54028
0.539947
0.539803
0.539897
0.540129
0.540252
0.540281
0.540262
0.540657
0.541588
0.542251
0.542564
0.543085
0.543722
0.544166
0.544581
0.544888
0.545427
0.546513
0.548484
0.551522
0.555557
0.560499
0.566519
0.57385
0.582222
0.591024
0.599809
0.608398
0.616957
0.623352
0.625946
0.627278
0.627885
0.627505
0.62381
0.616681
0.611204
0.609667
0.610006
0.611537
0.613204
0.615703
0.617912
0.620534
0.623386
0.643505
0.765136
0.991221
1.16532
1.24144
1.24585
1.23478
1.22105
1.22936
1.24264
1.24648
1.24493
1.23618
0.539355
0.539385
0.539379
0.539401
0.539593
0.539918
0.540004
0.540105
0.540301
0.540522
0.540752
0.541003
0.541174
0.541305
0.541454
0.541609
0.541747
0.541985
0.542178
0.542164
0.542211
0.542552
0.542742
0.542879
0.543172
0.543294
0.543295
0.54323
0.543133
0.543201
0.543348
0.543273
0.542889
0.542564
0.542534
0.542363
0.541774
0.541652
0.54184
0.541729
0.541547
0.541602
0.541822
0.542271
0.542811
0.543357
0.543774
0.544057
0.544309
0.544901
0.545569
0.545699
0.545626
0.54548
0.545231
0.544819
0.544696
0.544859
0.545278
0.546216
0.547987
0.550558
0.553893
0.55797
0.562801
0.568507
0.575069
0.582105
0.589122
0.596005
0.603139
0.611509
0.618157
0.621085
0.622615
0.623229
0.622187
0.616275
0.611112
0.611101
0.61225
0.614037
0.615853
0.617656
0.620867
0.622729
0.624366
0.627074
0.633155
0.681477
0.850952
1.06538
1.18144
1.21805
1.23053
1.23983
1.24865
1.24402
1.23716
1.22673
0.545576
0.545659
0.545783
0.545804
0.545883
0.545952
0.545966
0.546127
0.546133
0.546127
0.546271
0.546509
0.546597
0.546513
0.546454
0.546457
0.546425
0.546386
0.546412
0.546307
0.546129
0.546241
0.546204
0.54577
0.545758
0.545977
0.545991
0.545834
0.5456
0.54552
0.545545
0.545533
0.545343
0.545045
0.544774
0.544754
0.54491
0.544848
0.544829
0.545167
0.545949