/*--------------------------------*- C++ -*----------------------------------*\
  =========                 |
  \\      /  F ield         | OpenFOAM: The Open Source CFD Toolbox
   \\    /   O peration     | Website:  https://openfoam.org
    \\  /    A nd           | Version:  7
     \\/     M anipulation  |
\*---------------------------------------------------------------------------*/
FoamFile
{
    version     2.0;
    format      ascii;
    class       volVectorField;
    location    "10";
    object      U;
}
// * * * * * * * * * * * * * * * * * * * * * * * * * * * * * * * * * * * * * //

dimensions      [0 1 -1 0 0 0 0];

internalField   nonuniform List<vector> 
24000
(
(2.76031 -1.49925 0)
(2.62227 -1.03693 0)
(2.60978 -0.972482 0)
(2.60472 -0.836631 0)
(2.57671 -0.461471 0)
(2.6333 -0.404767 0)
(2.64083 -0.277301 0)
(2.65162 -0.161829 0)
(2.64322 0.000810791 0)
(2.66882 0.06265 0)
(2.64666 0.206968 0)
(2.66133 0.268124 0)
(2.64841 0.356432 0)
(2.6563 0.392404 0)
(2.64885 0.411842 0)
(2.67938 0.406783 0)
(2.69533 0.376443 0)
(2.71855 0.327131 0)
(2.72223 0.271869 0)
(2.73247 0.225104 0)
(2.74364 0.183566 0)
(2.75034 0.178544 0)
(2.75647 0.20033 0)
(2.78187 0.222126 0)
(2.79918 0.25161 0)
(2.81381 0.259443 0)
(2.82443 0.275633 0)
(2.83277 0.286327 0)
(2.841 0.289525 0)
(2.84617 0.276757 0)
(2.85193 0.260617 0)
(2.85685 0.239257 0)
(2.86074 0.225325 0)
(2.86126 0.203627 0)
(2.86389 0.209218 0)
(2.86643 0.220267 0)
(2.86814 0.238856 0)
(2.87024 0.245605 0)
(2.87108 0.237681 0)
(2.8702 0.22634 0)
(2.87231 0.22654 0)
(2.87203 0.223854 0)
(2.86895 0.214568 0)
(2.86593 0.201307 0)
(2.86328 0.189009 0)
(2.8593 0.175236 0)
(2.85695 0.163123 0)
(2.85489 0.150409 0)
(2.85393 0.141909 0)
(2.85056 0.123797 0)
(2.9718 -1.77421 0)
(2.97177 -1.77341 0)
(2.97182 -1.77265 0)
(2.97159 -1.77244 0)
(2.97155 -1.77158 0)
(2.97124 -1.77152 0)
(2.97009 -1.76947 0)
(2.95984 -1.74412 0)
(2.93229 -1.67296 0)
(2.89042 -1.56144 0)
(2.82407 -1.36252 0)
(2.75429 -1.11066 0)
(2.68625 -0.856921 0)
(2.5869 -0.495656 0)
(2.57127 -0.344357 0)
(2.46725 -0.0186546 0)
(2.4676 0.0763047 0)
(2.43664 0.215019 0)
(2.42793 0.297173 0)
(2.46266 0.298562 0)
(2.4963 0.333541 0)
(2.54294 0.344063 0)
(2.56841 0.32207 0)
(2.60331 0.280705 0)
(2.62865 0.223405 0)
(2.65915 0.179041 0)
(2.69178 0.190631 0)
(2.71905 0.20766 0)
(2.73822 0.230861 0)
(2.7551 0.245061 0)
(2.77067 0.240035 0)
(2.78459 0.227665 0)
(2.80127 0.224896 0)
(2.81559 0.241035 0)
(2.8299 0.261169 0)
(2.83982 0.267733 0)
(2.84367 0.257283 0)
(2.84821 0.240665 0)
(2.85609 0.219395 0)
(2.86236 0.230389 0)
(2.86584 0.238967 0)
(2.86298 0.228349 0)
(2.85976 0.197244 0)
(2.86078 0.186243 0)
(2.85976 0.177967 0)
(2.85542 0.165226 0)
(2.85333 0.156157 0)
(2.85195 0.145668 0)
(2.85125 0.138069 0)
(2.84833 0.122079 0)
(2.96986 -1.76806 0)
(2.96982 -1.76754 0)
(2.96988 -1.76697 0)
(2.96985 -1.76659 0)
(2.97004 -1.76564 0)
(2.96969 -1.76592 0)
(2.97051 -1.76431 0)
(2.96979 -1.76529 0)
(2.96983 -1.76567 0)
(2.97035 -1.76485 0)
(2.97078 -1.7646 0)
(2.9712 -1.76454 0)
(2.97145 -1.76527 0)
(2.97031 -1.76111 0)
(2.94078 -1.70427 0)
(2.83352 -1.48275 0)
(2.71479 -1.22067 0)
(2.53416 -0.762104 0)
(2.45673 -0.463028 0)
(2.36943 -0.146563 0)
(2.35005 0.0195659 0)
(2.32795 0.162189 0)
(2.33216 0.220543 0)
(2.33432 0.250685 0)
(2.39643 0.277456 0)
(2.4333 0.260566 0)
(2.48644 0.212702 0)
(2.52916 0.154234 0)
(2.55499 0.158435 0)
(2.58197 0.190004 0)
(2.60215 0.231914 0)
(2.62617 0.244132 0)
(2.65893 0.246012 0)
(2.69299 0.221674 0)
(2.72368 0.222838 0)
(2.74891 0.211532 0)
(2.77038 0.20649 0)
(2.79286 0.202408 0)
(2.80997 0.228669 0)
(2.82438 0.23317 0)
(2.83333 0.218127 0)
(2.84016 0.185293 0)
(2.84392 0.179466 0)
(2.8476 0.189822 0)
(2.84677 0.180806 0)
(2.84529 0.155432 0)
(2.84759 0.151698 0)
(2.84731 0.142933 0)
(2.84665 0.132251 0)
(2.84524 0.119689 0)
(2.96878 -1.76515 0)
(2.96927 -1.76467 0)
(2.96973 -1.76458 0)
(2.96999 -1.76491 0)
(2.97045 -1.76464 0)
(2.97079 -1.7647 0)
(2.97119 -1.76474 0)
(2.97171 -1.76464 0)
(2.9724 -1.76437 0)
(2.97272 -1.76491 0)
(2.97337 -1.7651 0)
(2.97387 -1.76562 0)
(2.97465 -1.76536 0)
(2.97497 -1.76619 0)
(2.97582 -1.76583 0)
(2.97564 -1.76715 0)
(2.97663 -1.76696 0)
(2.97632 -1.7691 0)
(2.96262 -1.74114 0)
(2.87038 -1.56899 0)
(2.7294 -1.27475 0)
(2.53681 -0.789685 0)
(2.47095 -0.467627 0)
(2.27566 -0.0273792 0)
(2.26994 0.0898356 0)
(2.22109 0.230318 0)
(2.26012 0.250563 0)
(2.30474 0.248975 0)
(2.35212 0.223678 0)
(2.3893 0.166463 0)
(2.41807 0.152019 0)
(2.44047 0.184204 0)
(2.46323 0.216311 0)
(2.50099 0.236124 0)
(2.53376 0.208202 0)
(2.56827 0.216928 0)
(2.60855 0.232562 0)
(2.65172 0.247544 0)
(2.68706 0.2352 0)
(2.71441 0.22635 0)
(2.73789 0.204188 0)
(2.76261 0.198538 0)
(2.78306 0.207387 0)
(2.79528 0.187292 0)
(2.80495 0.15098 0)
(2.81294 0.15305 0)
(2.82058 0.15662 0)
(2.82459 0.147174 0)
(2.82729 0.14398 0)
(2.8304 0.127594 0)
(2.97143 -1.7652 0)
(2.97175 -1.76528 0)
(2.97223 -1.76509 0)
(2.97272 -1.76535 0)
(2.97314 -1.76557 0)
(2.97369 -1.76518 0)
(2.97399 -1.76546 0)
(2.97456 -1.76538 0)
(2.97505 -1.76552 0)
(2.97551 -1.76576 0)
(2.97567 -1.76654 0)
(2.9763 -1.76643 0)
(2.97604 -1.76733 0)
(2.97649 -1.7675 0)
(2.97707 -1.76797 0)
(2.9774 -1.76903 0)
(2.97772 -1.77017 0)
(2.97847 -1.77037 0)
(2.97932 -1.76997 0)
(2.9803 -1.76989 0)
(2.98137 -1.76862 0)
(2.98238 -1.76774 0)
(2.96094 -1.72388 0)
(2.80537 -1.42792 0)
(2.62253 -0.98674 0)
(2.37698 -0.402742 0)
(2.29638 -0.0842911 0)
(2.18821 0.169521 0)
(2.20792 0.17944 0)
(2.23761 0.181893 0)
(2.26971 0.176949 0)
(2.30727 0.160967 0)
(2.30579 0.177305 0)
(2.31067 0.205772 0)
(2.3227 0.20992 0)
(2.36566 0.17987 0)
(2.40696 0.18245 0)
(2.44999 0.192033 0)
(2.49136 0.197267 0)
(2.52921 0.174643 0)
(2.56419 0.175853 0)
(2.60224 0.185275 0)
(2.64289 0.172323 0)
(2.67433 0.160686 0)
(2.70148 0.160575 0)
(2.72491 0.152115 0)
(2.74495 0.138353 0)
(2.76142 0.122012 0)
(2.77422 0.110466 0)
(2.79047 0.0990942 0)
(2.97518 -1.76598 0)
(2.97544 -1.7662 0)
(2.97567 -1.76632 0)
(2.97606 -1.76607 0)
(2.97626 -1.76624 0)
(2.97658 -1.76618 0)
(2.97704 -1.76593 0)
(2.97754 -1.76572 0)
(2.97784 -1.76577 0)
(2.97728 -1.76692 0)
(2.97735 -1.76716 0)
(2.97774 -1.76658 0)
(2.97714 -1.76737 0)
(2.97714 -1.76808 0)
(2.97804 -1.76855 0)
(2.97889 -1.76917 0)
(2.97948 -1.77011 0)
(2.98033 -1.77004 0)
(2.98075 -1.76998 0)
(2.98176 -1.76873 0)
(2.98235 -1.76828 0)
(2.98458 -1.76557 0)
(2.98501 -1.76474 0)
(2.98535 -1.7661 0)
(2.98505 -1.76729 0)
(2.95419 -1.71607 0)
(2.78171 -1.36947 0)
(2.47149 -0.661097 0)
(2.39149 -0.24167 0)
(2.19409 0.147391 0)
(2.17844 0.14479 0)
(2.21173 0.195782 0)
(2.22023 0.185103 0)
(2.22573 0.18171 0)
(2.21506 0.186628 0)
(2.2468 0.208813 0)
(2.26769 0.196236 0)
(2.29175 0.193254 0)
(2.3145 0.191313 0)
(2.34064 0.198169 0)
(2.37175 0.171545 0)
(2.41256 0.156786 0)
(2.45481 0.15975 0)
(2.4938 0.139172 0)
(2.53027 0.147179 0)
(2.56884 0.150199 0)
(2.60382 0.146011 0)
(2.63542 0.134855 0)
(2.66092 0.13385 0)
(2.69726 0.118592 0)
(2.97845 -1.76496 0)
(2.97852 -1.76497 0)
(2.9785 -1.76506 0)
(2.97858 -1.76508 0)
(2.97854 -1.76538 0)
(2.97878 -1.76537 0)
(2.97876 -1.76579 0)
(2.97882 -1.76567 0)
(2.97879 -1.76502 0)
(2.97741 -1.76643 0)
(2.97733 -1.76718 0)
(2.97784 -1.76669 0)
(2.97796 -1.76755 0)
(2.97816 -1.76797 0)
(2.97864 -1.7684 0)
(2.97956 -1.76925 0)
(2.98054 -1.76991 0)
(2.98141 -1.76991 0)
(2.98253 -1.76898 0)
(2.98318 -1.76886 0)
(2.98563 -1.76688 0)
(2.98789 -1.7628 0)
(2.98737 -1.76278 0)
(2.98704 -1.7631 0)
(2.98648 -1.76482 0)
(2.98452 -1.76893 0)
(2.98389 -1.77122 0)
(2.9823 -1.77202 0)
(2.8822 -1.55923 0)
(2.58938 -0.878551 0)
(2.49225 -0.403388 0)
(2.25646 0.0774083 0)
(2.25212 0.0861112 0)
(2.24336 0.138177 0)
(2.23206 0.165087 0)
(2.22899 0.191532 0)
(2.22562 0.184621 0)
(2.23685 0.172742 0)
(2.24781 0.157537 0)
(2.26168 0.149865 0)
(2.27249 0.15903 0)
(2.29636 0.160683 0)
(2.3176 0.151052 0)
(2.34113 0.150848 0)
(2.3723 0.126945 0)
(2.4067 0.121889 0)
(2.44067 0.114831 0)
(2.47561 0.11012 0)
(2.50757 0.0994206 0)
(2.55673 0.104255 0)
(2.97963 -1.76554 0)
(2.97981 -1.76557 0)
(2.97958 -1.76586 0)
(2.97935 -1.76651 0)
(2.97935 -1.76677 0)
(2.97944 -1.76702 0)
(2.97951 -1.76706 0)
(2.97944 -1.76664 0)
(2.97857 -1.76641 0)
(2.97768 -1.7675 0)
(2.97764 -1.76781 0)
(2.97791 -1.76788 0)
(2.97827 -1.76821 0)
(2.97887 -1.76836 0)
(2.97993 -1.76895 0)
(2.98094 -1.77056 0)
(2.98254 -1.77145 0)
(2.98433 -1.77017 0)
(2.98418 -1.77059 0)
(2.98407 -1.77041 0)
(2.98619 -1.76635 0)
(2.98632 -1.76431 0)
(2.98614 -1.76413 0)
(2.98573 -1.76442 0)
(2.98441 -1.76711 0)
(2.98397 -1.7696 0)
(2.97755 -1.77503 0)
(2.9729 -1.77448 0)
(2.97209 -1.77042 0)
(2.96899 -1.77316 0)
(2.93173 -1.66096 0)
(2.67693 -1.03042 0)
(2.56775 -0.465723 0)
(2.32911 0.0676988 0)
(2.26081 0.170946 0)
(2.24861 0.22502 0)
(2.2475 0.184035 0)
(2.2622 0.162348 0)
(2.26029 0.133319 0)
(2.26577 0.137433 0)
(2.26811 0.1394 0)
(2.27307 0.141945 0)
(2.27624 0.129848 0)
(2.28798 0.119849 0)
(2.30213 0.135457 0)
(2.31887 0.130189 0)
(2.33621 0.119757 0)
(2.35978 0.112802 0)
(2.38394 0.114809 0)
(2.42855 0.0902453 0)
(2.98048 -1.76739 0)
(2.98043 -1.76732 0)
(2.9804 -1.76714 0)
(2.98024 -1.76746 0)
(2.98002 -1.76802 0)
(2.98023 -1.76797 0)
(2.9803 -1.76743 0)
(2.98009 -1.76712 0)
(2.97895 -1.76758 0)
(2.97875 -1.76815 0)
(2.97893 -1.76868 0)
(2.98008 -1.76928 0)
(2.98154 -1.76994 0)
(2.98288 -1.76945 0)
(2.98354 -1.77101 0)
(2.98334 -1.77297 0)
(2.98438 -1.77298 0)
(2.98472 -1.77193 0)
(2.98395 -1.77177 0)
(2.98325 -1.77036 0)
(2.9844 -1.76668 0)
(2.98495 -1.76531 0)
(2.98547 -1.76455 0)
(2.98146 -1.76777 0)
(2.97646 -1.77484 0)
(2.9751 -1.77457 0)
(2.96922 -1.7752 0)
(2.96889 -1.76609 0)
(2.96832 -1.76418 0)
(2.97093 -1.76486 0)
(2.977 -1.76441 0)
(2.98031 -1.75755 0)
(2.96358 -1.66153 0)
(2.75476 -1.07966 0)
(2.65011 -0.534707 0)
(2.43219 -0.0394883 0)
(2.35927 0.0905363 0)
(2.32159 0.162995 0)
(2.31573 0.149265 0)
(2.3193 0.15135 0)
(2.29975 0.131758 0)
(2.2966 0.119971 0)
(2.28893 0.0997812 0)
(2.29451 0.104793 0)
(2.30181 0.117985 0)
(2.30388 0.11409 0)
(2.30964 0.103532 0)
(2.32422 0.0983421 0)
(2.34035 0.0934319 0)
(2.36665 0.0978082 0)
(2.97979 -1.7727 0)
(2.98017 -1.7726 0)
(2.98081 -1.77227 0)
(2.98109 -1.7725 0)
(2.98135 -1.77283 0)
(2.98224 -1.77244 0)
(2.98283 -1.77169 0)
(2.98282 -1.77168 0)
(2.98317 -1.77133 0)
(2.98353 -1.77078 0)
(2.98366 -1.77131 0)
(2.98424 -1.77176 0)
(2.98508 -1.77171 0)
(2.98536 -1.77168 0)
(2.98534 -1.77182 0)
(2.98462 -1.77276 0)
(2.98446 -1.77289 0)
(2.98454 -1.77229 0)
(2.98384 -1.77164 0)
(2.98278 -1.76968 0)
(2.98231 -1.76573 0)
(2.98195 -1.76454 0)
(2.98093 -1.76264 0)
(2.97253 -1.76914 0)
(2.96497 -1.77995 0)
(2.9641 -1.77782 0)
(2.96462 -1.76809 0)
(2.96995 -1.7542 0)
(2.97752 -1.74697 0)
(2.98197 -1.74237 0)
(2.99832 -1.72591 0)
(3.00426 -1.71326 0)
(2.99688 -1.71279 0)
(2.99125 -1.71294 0)
(2.97975 -1.65724 0)
(2.79101 -1.07206 0)
(2.69894 -0.515058 0)
(2.4576 0.0101908 0)
(2.4096 0.104847 0)
(2.38526 0.167338 0)
(2.37433 0.134548 0)
(2.37754 0.130125 0)
(2.35311 0.116964 0)
(2.3465 0.132665 0)
(2.33837 0.121835 0)
(2.33011 0.0982992 0)
(2.33069 0.0791484 0)
(2.33738 0.0768627 0)
(2.34418 0.0765999 0)
(2.35923 0.0841661 0)
(2.98654 -1.76927 0)
(2.98692 -1.76966 0)
(2.9872 -1.76992 0)
(2.98795 -1.76941 0)
(2.988 -1.76949 0)
(2.988 -1.76963 0)
(2.98801 -1.76955 0)
(2.98802 -1.76932 0)
(2.9876 -1.76939 0)
(2.98707 -1.77005 0)
(2.98682 -1.77036 0)
(2.9866 -1.77034 0)
(2.98645 -1.77031 0)
(2.98626 -1.7703 0)
(2.98576 -1.7703 0)
(2.98545 -1.76929 0)
(2.98228 -1.7655 0)
(2.9797 -1.76275 0)
(2.97946 -1.75889 0)
(2.97664 -1.75624 0)
(2.97103 -1.75829 0)
(2.97087 -1.75666 0)
(2.97279 -1.75465 0)
(2.96932 -1.76268 0)
(2.96991 -1.76496 0)
(2.96939 -1.76599 0)
(2.9724 -1.76094 0)
(2.9775 -1.73838 0)
(2.98775 -1.7262 0)
(2.99174 -1.71339 0)
(3.00359 -1.69239 0)
(3.0089 -1.68004 0)
(3.00168 -1.68612 0)
(3.01121 -1.65983 0)
(3.01491 -1.6621 0)
(3.01844 -1.64639 0)
(3.00658 -1.55733 0)
(2.82343 -0.956167 0)
(2.7595 -0.470545 0)
(2.54389 -0.00377241 0)
(2.47974 0.0880258 0)
(2.45552 0.165807 0)
(2.45022 0.131613 0)
(2.4525 0.111833 0)
(2.42912 0.074367 0)
(2.41932 0.0858771 0)
(2.40622 0.107228 0)
(2.39296 0.111319 0)
(2.38463 0.103463 0)
(2.38368 0.0865377 0)
(2.9899 -1.76979 0)
(2.98988 -1.76988 0)
(2.98981 -1.76968 0)
(2.98972 -1.76931 0)
(2.98927 -1.76905 0)
(2.98873 -1.76904 0)
(2.98853 -1.76849 0)
(2.98857 -1.76739 0)
(2.98755 -1.76733 0)
(2.98626 -1.76701 0)
(2.98491 -1.76664 0)
(2.98334 -1.76653 0)
(2.98221 -1.76508 0)
(2.98301 -1.75873 0)
(2.98046 -1.7572 0)
(2.97648 -1.75932 0)
(2.97607 -1.74905 0)
(2.97483 -1.74397 0)
(2.97568 -1.73619 0)
(2.97442 -1.73281 0)
(2.97151 -1.73757 0)
(2.97214 -1.7467 0)
(2.97649 -1.74553 0)
(2.98091 -1.74141 0)
(2.98472 -1.73672 0)
(2.99064 -1.72972 0)
(2.99558 -1.73294 0)
(2.99708 -1.70725 0)
(3.00102 -1.68516 0)
(3.00317 -1.67303 0)
(3.00595 -1.65881 0)
(3.00728 -1.64896 0)
(3.01713 -1.63012 0)
(3.02772 -1.62846 0)
(3.03807 -1.57834 0)
(3.04825 -1.5599 0)
(3.05715 -1.58983 0)
(3.0573 -1.56778 0)
(3.03752 -1.44103 0)
(2.85471 -0.85271 0)
(2.82439 -0.447023 0)
(2.61297 0.00549521 0)
(2.55186 0.0843769 0)
(2.53377 0.167062 0)
(2.52965 0.136088 0)
(2.5277 0.11868 0)
(2.51536 0.0759188 0)
(2.49677 0.0703004 0)
(2.48082 0.0784698 0)
(2.46319 0.0764549 0)
(2.98936 -1.73074 0)
(2.98859 -1.73333 0)
(2.98912 -1.73221 0)
(2.98874 -1.73174 0)
(2.98548 -1.73589 0)
(2.98567 -1.73722 0)
(2.98586 -1.73937 0)
(2.98635 -1.73932 0)
(2.98649 -1.73619 0)
(2.98332 -1.73698 0)
(2.98258 -1.73814 0)
(2.98193 -1.73927 0)
(2.97902 -1.74524 0)
(2.97974 -1.73997 0)
(2.98048 -1.73403 0)
(2.97753 -1.73282 0)
(2.97536 -1.73516 0)
(2.97646 -1.73177 0)
(2.97812 -1.72807 0)
(2.9807 -1.72114 0)
(2.98413 -1.72158 0)
(2.98982 -1.71879 0)
(2.99759 -1.70808 0)
(3.0003 -1.69341 0)
(3.00584 -1.67085 0)
(3.0192 -1.6519 0)
(3.02703 -1.63151 0)
(3.02667 -1.62063 0)
(3.02498 -1.61327 0)
(3.02272 -1.6097 0)
(3.02037 -1.6118 0)
(3.02552 -1.59451 0)
(3.0318 -1.59483 0)
(3.04053 -1.57873 0)
(3.04783 -1.55484 0)
(3.052 -1.53119 0)
(3.06587 -1.49087 0)
(3.06356 -1.48455 0)
(3.04649 -1.51121 0)
(3.05276 -1.4763 0)
(3.05862 -1.33751 0)
(2.89901 -0.763841 0)
(2.89615 -0.408217 0)
(2.68116 0.0185439 0)
(2.62351 0.0804626 0)
(2.59756 0.161229 0)
(2.61028 0.124755 0)
(2.60466 0.103921 0)
(2.59332 0.070052 0)
(2.57117 0.0832932 0)
(2.96297 -1.7642 0)
(2.96328 -1.76323 0)
(2.96417 -1.76019 0)
(2.96465 -1.75889 0)
(2.96488 -1.75994 0)
(2.96564 -1.75666 0)
(2.96639 -1.75387 0)
(2.96848 -1.75323 0)
(2.96906 -1.74685 0)
(2.97176 -1.74163 0)
(2.97473 -1.74161 0)
(2.97677 -1.7326 0)
(2.97979 -1.72627 0)
(2.98216 -1.72257 0)
(2.98566 -1.71559 0)
(2.98834 -1.70424 0)
(2.99428 -1.69243 0)
(2.99977 -1.68559 0)
(3.00392 -1.683 0)
(3.0088 -1.66414 0)
(3.0136 -1.65279 0)
(3.01974 -1.63533 0)
(3.02173 -1.62559 0)
(3.02706 -1.60533 0)
(3.03071 -1.59244 0)
(3.03195 -1.5863 0)
(3.0384 -1.56896 0)
(3.03477 -1.57545 0)
(3.04225 -1.56068 0)
(3.03872 -1.56511 0)
(3.04336 -1.5574 0)
(3.04833 -1.54661 0)
(3.05662 -1.5341 0)
(3.06163 -1.5095 0)
(3.0591 -1.50234 0)
(3.06305 -1.46754 0)
(3.07728 -1.43988 0)
(3.06329 -1.47255 0)
(3.06164 -1.43119 0)
(3.07789 -1.39098 0)
(3.09404 -1.40846 0)
(3.09074 -1.38963 0)
(3.07971 -1.2357 0)
(2.92181 -0.672117 0)
(2.91883 -0.344569 0)
(2.7296 0.0325388 0)
(2.68602 0.0822851 0)
(2.66337 0.148685 0)
(2.6718 0.116454 0)
(2.66353 0.0734462 0)
(3.02096 -1.60592 0)
(3.02214 -1.60188 0)
(3.02486 -1.59561 0)
(3.02782 -1.59053 0)
(3.02852 -1.58654 0)
(3.02849 -1.58403 0)
(3.0285 -1.57754 0)
(3.02981 -1.57149 0)
(3.03174 -1.56842 0)
(3.0335 -1.56544 0)
(3.03453 -1.56248 0)
(3.03658 -1.55414 0)
(3.03836 -1.54841 0)
(3.03967 -1.54566 0)
(3.04169 -1.54211 0)
(3.04324 -1.54052 0)
(3.04348 -1.54241 0)
(3.04705 -1.53621 0)
(3.0453 -1.5385 0)
(3.0462 -1.53795 0)
(3.0445 -1.54211 0)
(3.04724 -1.53655 0)
(3.04282 -1.54562 0)
(3.0452 -1.54037 0)
(3.04507 -1.53763 0)
(3.04307 -1.54262 0)
(3.04509 -1.53893 0)
(3.04748 -1.53049 0)
(3.05303 -1.52888 0)
(3.05466 -1.51235 0)
(3.06279 -1.49233 0)
(3.07286 -1.48186 0)
(3.07677 -1.44416 0)
(3.07518 -1.42787 0)
(3.06838 -1.42874 0)
(3.07431 -1.40639 0)
(3.07052 -1.4276 0)
(3.07433 -1.3874 0)
(3.08255 -1.36962 0)
(3.0941 -1.37018 0)
(3.09093 -1.32674 0)
(3.09074 -1.30432 0)
(3.08922 -1.29827 0)
(3.08947 -1.30746 0)
(3.08402 -1.12106 0)
(2.93915 -0.557734 0)
(2.94235 -0.257674 0)
(2.77225 0.061549 0)
(2.71802 0.0846262 0)
(2.72753 0.128185 0)
(3.03249 -1.58077 0)
(3.03267 -1.58183 0)
(3.03295 -1.58088 0)
(3.03329 -1.5824 0)
(3.03332 -1.57992 0)
(3.03458 -1.57392 0)
(3.03453 -1.5698 0)
(3.03247 -1.5718 0)
(3.03256 -1.57252 0)
(3.0331 -1.57105 0)
(3.03449 -1.56726 0)
(3.03446 -1.56692 0)
(3.03493 -1.56501 0)
(3.03521 -1.56428 0)
(3.03676 -1.55931 0)
(3.03792 -1.55558 0)
(3.0392 -1.55062 0)
(3.03977 -1.54856 0)
(3.04395 -1.53714 0)
(3.04392 -1.53703 0)
(3.04558 -1.53121 0)
(3.04743 -1.52728 0)
(3.05056 -1.5209 0)
(3.0542 -1.51536 0)
(3.0566 -1.49975 0)
(3.06196 -1.48842 0)
(3.06899 -1.48284 0)
(3.06956 -1.45428 0)
(3.07367 -1.4376 0)
(3.0777 -1.42394 0)
(3.08223 -1.3955 0)
(3.08207 -1.38123 0)
(3.08519 -1.36825 0)
(3.08141 -1.37122 0)
(3.08485 -1.35895 0)
(3.0854 -1.37006 0)
(3.08581 -1.33848 0)
(3.09356 -1.31573 0)
(3.09968 -1.31823 0)
(3.09997 -1.29011 0)
(3.09955 -1.2733 0)
(3.09912 -1.26827 0)
(3.09688 -1.26948 0)
(3.1006 -1.25163 0)
(3.10251 -1.23303 0)
(3.10197 -1.21984 0)
(3.09048 -0.975556 0)
(2.94411 -0.414726 0)
(2.93739 -0.158302 0)
(2.79873 0.0708069 0)
(3.06815 -1.46072 0)
(3.06884 -1.4588 0)
(3.06956 -1.4566 0)
(3.07053 -1.45207 0)
(3.07115 -1.44754 0)
(3.07015 -1.44839 0)
(3.07088 -1.44852 0)
(3.07215 -1.44557 0)
(3.07362 -1.43741 0)
(3.07378 -1.43507 0)
(3.07419 -1.43158 0)
(3.07588 -1.42741 0)
(3.0766 -1.42808 0)
(3.07764 -1.4217 0)
(3.07818 -1.41779 0)
(3.07882 -1.41779 0)
(3.08018 -1.41358 0)
(3.08172 -1.4065 0)
(3.08471 -1.40784 0)
(3.08523 -1.39378 0)
(3.08728 -1.38319 0)
(3.08951 -1.37215 0)
(3.09136 -1.35982 0)
(3.09243 -1.34943 0)
(3.0938 -1.33925 0)
(3.09598 -1.32907 0)
(3.09636 -1.32387 0)
(3.09634 -1.3213 0)
(3.09361 -1.32377 0)
(3.09428 -1.31877 0)
(3.09005 -1.32666 0)
(3.0929 -1.31578 0)
(3.09043 -1.32372 0)
(3.09327 -1.30927 0)
(3.09866 -1.30462 0)
(3.10002 -1.28758 0)
(3.10331 -1.27237 0)
(3.10464 -1.26129 0)
(3.10688 -1.24084 0)
(3.10438 -1.23713 0)
(3.10427 -1.22727 0)
(3.10604 -1.22857 0)
(3.1071 -1.20608 0)
(3.10898 -1.18538 0)
(3.10989 -1.17697 0)
(3.11238 -1.16842 0)
(3.11418 -1.16194 0)
(3.10813 -1.10264 0)
(3.09721 -0.823531 0)
(2.89768 -0.139145 0)
(3.08956 -1.36108 0)
(3.08977 -1.35939 0)
(3.08882 -1.36009 0)
(3.08847 -1.36223 0)
(3.09028 -1.36277 0)
(3.0901 -1.36002 0)
(3.09083 -1.35554 0)
(3.09137 -1.35298 0)
(3.09002 -1.35431 0)
(3.09026 -1.35235 0)
(3.09093 -1.35002 0)
(3.09177 -1.34719 0)
(3.09216 -1.34552 0)
(3.09275 -1.34147 0)
(3.09352 -1.33793 0)
(3.09445 -1.33387 0)
(3.09465 -1.33163 0)
(3.09512 -1.32783 0)
(3.09602 -1.32227 0)
(3.09506 -1.3215 0)
(3.09509 -1.31851 0)
(3.09399 -1.31898 0)
(3.09401 -1.31681 0)
(3.09281 -1.31973 0)
(3.09345 -1.31461 0)
(3.09354 -1.31326 0)
(3.09521 -1.30125 0)
(3.09581 -1.2962 0)
(3.09717 -1.28826 0)
(3.09931 -1.28556 0)
(3.10118 -1.27368 0)
(3.10464 -1.26667 0)
(3.10542 -1.24899 0)
(3.10894 -1.24401 0)
(3.10929 -1.22453 0)
(3.11196 -1.20427 0)
(3.11156 -1.19989 0)
(3.11192 -1.1919 0)
(3.11019 -1.18966 0)
(3.11167 -1.17599 0)
(3.11249 -1.17901 0)
(3.11295 -1.16237 0)
(3.11354 -1.15349 0)
(3.11374 -1.14931 0)
(3.11562 -1.1459 0)
(3.11815 -1.13538 0)
(3.12113 -1.12673 0)
(3.12371 -1.12345 0)
(3.12461 -1.12368 0)
(3.06033 -0.752889 0)
(3.10907 -1.25322 0)
(3.10935 -1.25061 0)
(3.1095 -1.24819 0)
(3.10992 -1.24637 0)
(3.10942 -1.24703 0)
(3.10974 -1.24919 0)
(3.11049 -1.24893 0)
(3.11022 -1.24428 0)
(3.11031 -1.24215 0)
(3.11063 -1.23994 0)
(3.11072 -1.23914 0)
(3.11082 -1.2388 0)
(3.11137 -1.23475 0)
(3.11148 -1.2334 0)
(3.11162 -1.23218 0)
(3.11203 -1.22905 0)
(3.11232 -1.22693 0)
(3.11259 -1.22571 0)
(3.11317 -1.2215 0)
(3.11387 -1.21988 0)
(3.11447 -1.21536 0)
(3.11514 -1.21077 0)
(3.11616 -1.20685 0)
(3.11661 -1.19716 0)
(3.11672 -1.19359 0)
(3.11699 -1.18731 0)
(3.11636 -1.18681 0)
(3.11672 -1.1829 0)
(3.11764 -1.17859 0)
(3.11807 -1.16941 0)
(3.11874 -1.15968 0)
(3.11897 -1.15391 0)
(3.11853 -1.15157 0)
(3.11793 -1.14836 0)
(3.11676 -1.14689 0)
(3.11571 -1.14767 0)
(3.1168 -1.14267 0)
(3.11649 -1.14384 0)
(3.11689 -1.13661 0)
(3.11711 -1.13724 0)
(3.11709 -1.12959 0)
(3.11723 -1.12555 0)
(3.11768 -1.12263 0)
(3.11976 -1.11913 0)
(3.12136 -1.11344 0)
(3.12363 -1.10852 0)
(3.12548 -1.10787 0)
(3.12687 -1.10291 0)
(3.1265 -1.10138 0)
(3.12517 -1.10326 0)
(3.12109 -1.15663 0)
(3.12125 -1.15712 0)
(3.12134 -1.1566 0)
(3.12088 -1.15551 0)
(3.12129 -1.15359 0)
(3.12187 -1.15165 0)
(3.12106 -1.15209 0)
(3.12107 -1.15303 0)
(3.12125 -1.15172 0)
(3.12127 -1.15064 0)
(3.12125 -1.14939 0)
(3.12133 -1.1486 0)
(3.12133 -1.1487 0)
(3.12149 -1.14745 0)
(3.12158 -1.14642 0)
(3.12164 -1.14551 0)
(3.12165 -1.14417 0)
(3.12154 -1.14325 0)
(3.12151 -1.14232 0)
(3.12163 -1.14028 0)
(3.12149 -1.13916 0)
(3.12115 -1.13855 0)
(3.12087 -1.13749 0)
(3.1209 -1.13628 0)
(3.12129 -1.13412 0)
(3.12139 -1.13346 0)
(3.12152 -1.13101 0)
(3.12097 -1.13006 0)
(3.1205 -1.12811 0)
(3.12013 -1.12729 0)
(3.12015 -1.12505 0)
(3.12027 -1.12369 0)
(3.1202 -1.12207 0)
(3.11958 -1.12134 0)
(3.1192 -1.1192 0)
(3.11929 -1.11744 0)
(3.11958 -1.11647 0)
(3.11944 -1.1129 0)
(3.11949 -1.11065 0)
(3.11945 -1.10799 0)
(3.11986 -1.10648 0)
(3.12037 -1.10553 0)
(3.12175 -1.1036 0)
(3.12402 -1.10153 0)
(3.12518 -1.09958 0)
(3.12696 -1.09855 0)
(3.12793 -1.09675 0)
(3.12844 -1.09618 0)
(3.12635 -1.09954 0)
(3.12591 -1.10013 0)
(3.12369 -1.10668 0)
(3.12364 -1.10641 0)
(3.12357 -1.10624 0)
(3.12342 -1.10625 0)
(3.12338 -1.1062 0)
(3.12347 -1.10614 0)
(3.1236 -1.10596 0)
(3.1238 -1.10571 0)
(3.12386 -1.10567 0)
(3.12378 -1.10573 0)
(3.12374 -1.10586 0)
(3.1237 -1.1056 0)
(3.12365 -1.10521 0)
(3.12362 -1.10515 0)
(3.12356 -1.10474 0)
(3.12349 -1.10418 0)
(3.12336 -1.10398 0)
(3.12315 -1.10391 0)
(3.12296 -1.10341 0)
(3.12289 -1.103 0)
(3.12264 -1.10257 0)
(3.12265 -1.10213 0)
(3.1226 -1.102 0)
(3.1228 -1.10166 0)
(3.12366 -1.10113 0)
(3.12375 -1.10106 0)
(3.12341 -1.10166 0)
(3.12297 -1.10207 0)
(3.12234 -1.10091 0)
(3.12201 -1.10025 0)
(3.12175 -1.09937 0)
(3.12194 -1.09831 0)
(3.1219 -1.09772 0)
(3.12113 -1.0978 0)
(3.12054 -1.09837 0)
(3.12048 -1.09829 0)
(3.12058 -1.09722 0)
(3.12036 -1.0973 0)
(3.12055 -1.09664 0)
(3.12101 -1.09736 0)
(3.12312 -1.09708 0)
(3.12401 -1.09678 0)
(3.12543 -1.09635 0)
(3.12676 -1.0956 0)
(3.12775 -1.0952 0)
(3.12887 -1.09365 0)
(3.12907 -1.09325 0)
(3.12855 -1.09445 0)
(3.12521 -1.10009 0)
(3.12667 -1.09793 0)
(3.1223 -1.09655 0)
(3.12227 -1.09655 0)
(3.12229 -1.09647 0)
(3.12231 -1.09642 0)
(3.12237 -1.09656 0)
(3.12254 -1.097 0)
(3.12301 -1.0971 0)
(3.12371 -1.09643 0)
(3.12381 -1.09552 0)
(3.12358 -1.09512 0)
(3.12375 -1.09557 0)
(3.12354 -1.09602 0)
(3.12333 -1.09621 0)
(3.12322 -1.09638 0)
(3.12302 -1.09665 0)
(3.12278 -1.09673 0)
(3.1225 -1.0968 0)
(3.12236 -1.09687 0)
(3.12203 -1.09673 0)
(3.12164 -1.09624 0)
(3.12137 -1.09585 0)
(3.12143 -1.09523 0)
(3.12195 -1.09444 0)
(3.12234 -1.09418 0)
(3.1228 -1.09426 0)
(3.12305 -1.0944 0)
(3.12278 -1.09505 0)
(3.12225 -1.09576 0)
(3.12152 -1.09605 0)
(3.12127 -1.09632 0)
(3.1211 -1.09659 0)
(3.12092 -1.09522 0)
(3.12072 -1.09384 0)
(3.12045 -1.09412 0)
(3.12038 -1.0963 0)
(3.12099 -1.09791 0)
(3.12119 -1.09681 0)
(3.12169 -1.09559 0)
(3.1225 -1.09561 0)
(3.12377 -1.09576 0)
(3.12539 -1.09536 0)
(3.12686 -1.09493 0)
(3.12882 -1.09223 0)
(3.12868 -1.09245 0)
(3.12951 -1.09078 0)
(3.12915 -1.09037 0)
(3.12905 -1.09163 0)
(3.12466 -1.09977 0)
(3.12591 -1.09678 0)
(3.12925 -1.09322 0)
(3.12281 -1.08949 0)
(3.12269 -1.08983 0)
(3.12257 -1.09093 0)
(3.12248 -1.09133 0)
(3.12276 -1.09153 0)
(3.12336 -1.09149 0)
(3.12341 -1.09099 0)
(3.1235 -1.09055 0)
(3.12336 -1.08999 0)
(3.12314 -1.08965 0)
(3.12305 -1.08969 0)
(3.12256 -1.09008 0)
(3.12238 -1.09048 0)
(3.12177 -1.091 0)
(3.12111 -1.09161 0)
(3.12056 -1.09213 0)
(3.12055 -1.09237 0)
(3.12045 -1.09269 0)
(3.1203 -1.09295 0)
(3.12016 -1.09224 0)
(3.1202 -1.09185 0)
(3.12024 -1.09274 0)
(3.12091 -1.09283 0)
(3.12177 -1.09253 0)
(3.12207 -1.09213 0)
(3.12143 -1.09125 0)
(3.12133 -1.0906 0)
(3.12075 -1.08991 0)
(3.12058 -1.09312 0)
(3.12002 -1.09685 0)
(3.1209 -1.0994 0)
(3.12101 -1.0952 0)
(3.1213 -1.09077 0)
(3.12165 -1.0911 0)
(3.12313 -1.09534 0)
(3.12408 -1.09754 0)
(3.12421 -1.0957 0)
(3.12506 -1.09383 0)
(3.12728 -1.09154 0)
(3.1284 -1.09124 0)
(3.13017 -1.08904 0)
(3.1299 -1.0889 0)
(3.13125 -1.08607 0)
(3.13162 -1.08417 0)
(3.12808 -1.08833 0)
(3.12695 -1.08686 0)
(3.1247 -1.09723 0)
(3.12683 -1.08854 0)
(3.12996 -1.08482 0)
(3.13426 -1.07192 0)
(3.12326 -1.09847 0)
(3.12331 -1.09866 0)
(3.12356 -1.09817 0)
(3.1234 -1.09544 0)
(3.12327 -1.09391 0)
(3.1225 -1.09315 0)
(3.12228 -1.09265 0)
(3.12169 -1.09181 0)
(3.1211 -1.08967 0)
(3.1218 -1.08751 0)
(3.12215 -1.08726 0)
(3.12121 -1.08798 0)
(3.12047 -1.08884 0)
(3.12016 -1.08904 0)
(3.119 -1.09057 0)
(3.11848 -1.09162 0)
(3.11838 -1.09224 0)
(3.11875 -1.09396 0)
(3.11951 -1.09498 0)
(3.11978 -1.09506 0)
(3.11986 -1.09542 0)
(3.11971 -1.09739 0)
(3.12043 -1.09909 0)
(3.12046 -1.09776 0)
(3.12024 -1.09545 0)
(3.12101 -1.09242 0)
(3.1226 -1.08924 0)
(3.12338 -1.08811 0)
(3.12483 -1.09029 0)
(3.12536 -1.09578 0)
(3.12525 -1.0974 0)
(3.12438 -1.09533 0)
(3.12657 -1.08882 0)
(3.12797 -1.08562 0)
(3.13129 -1.08355 0)
(3.13336 -1.08208 0)
(3.13316 -1.08194 0)
(3.13315 -1.08068 0)
(3.13338 -1.07482 0)
(3.13516 -1.07008 0)
(3.13387 -1.07 0)
(3.13279 -1.06701 0)
(3.1293 -1.071 0)
(3.1283 -1.06946 0)
(3.12623 -1.07497 0)
(3.12893 -1.06948 0)
(3.13208 -1.06436 0)
(3.13488 -1.0579 0)
(3.13717 -1.0428 0)
(3.13378 -1.04037 0)
(3.12679 -1.06572 0)
(3.12668 -1.06568 0)
(3.12586 -1.06719 0)
(3.12588 -1.06856 0)
(3.12592 -1.0687 0)
(3.12594 -1.06856 0)
(3.12574 -1.06743 0)
(3.12555 -1.06616 0)
(3.1257 -1.06574 0)
(3.12598 -1.06571 0)
(3.12651 -1.06631 0)
(3.1266 -1.0677 0)
(3.1264 -1.0685 0)
(3.12679 -1.06902 0)
(3.12724 -1.06902 0)
(3.12743 -1.06879 0)
(3.12804 -1.06623 0)
(3.12935 -1.06332 0)
(3.12946 -1.06121 0)
(3.12864 -1.0584 0)
(3.12918 -1.05605 0)
(3.12936 -1.05451 0)
(3.12919 -1.05259 0)
(3.12934 -1.05257 0)
(3.13017 -1.05455 0)
(3.13119 -1.05512 0)
(3.13334 -1.05561 0)
(3.13376 -1.0541 0)
(3.13228 -1.05 0)
(3.13294 -1.0428 0)
(3.13442 -1.04033 0)
(3.1341 -1.04068 0)
(3.13431 -1.04273 0)
(3.13419 -1.04406 0)
(3.1325 -1.03865 0)
(3.13367 -1.03457 0)
(3.13259 -1.03612 0)
(3.1318 -1.03672 0)
(3.13008 -1.04061 0)
(3.13068 -1.03827 0)
(3.12947 -1.04204 0)
(3.12947 -1.03945 0)
(3.13038 -1.04295 0)
(3.13223 -1.03669 0)
(3.13415 -1.03329 0)
(3.13808 -1.02544 0)
(3.13872 -1.01941 0)
(3.13954 -1.00698 0)
(3.13518 -1.0066 0)
(3.13053 -1.00701 0)
(3.13453 -1.01841 0)
(3.13432 -1.01977 0)
(3.13416 -1.02006 0)
(3.13455 -1.01902 0)
(3.13473 -1.01836 0)
(3.1347 -1.01669 0)
(3.13412 -1.01397 0)
(3.13392 -1.01354 0)
(3.13412 -1.01431 0)
(3.13441 -1.01496 0)
(3.13414 -1.0142 0)
(3.13403 -1.01407 0)
(3.13391 -1.01436 0)
(3.13375 -1.01459 0)
(3.13347 -1.01381 0)
(3.13322 -1.01319 0)
(3.13275 -1.01344 0)
(3.13238 -1.01263 0)
(3.13205 -1.01194 0)
(3.13171 -1.0128 0)
(3.13205 -1.01393 0)
(3.13275 -1.01485 0)
(3.13389 -1.01543 0)
(3.13543 -1.01468 0)
(3.13515 -1.0124 0)
(3.13519 -1.01023 0)
(3.13538 -1.00762 0)
(3.13383 -1.00538 0)
(3.1313 -1.00782 0)
(3.13173 -1.01172 0)
(3.13362 -1.01377 0)
(3.13435 -1.01031 0)
(3.13589 -1.00375 0)
(3.13293 -1.00403 0)
(3.13112 -1.00813 0)
(3.13159 -1.00908 0)
(3.13226 -1.00628 0)
(3.13284 -1.00475 0)
(3.13391 -1.00232 0)
(3.13487 -0.99933 0)
(3.13661 -0.994761 0)
(3.13776 -0.989588 0)
(3.14002 -0.981039 0)
(3.14021 -0.975602 0)
(3.14066 -0.962828 0)
(3.14027 -0.957868 0)
(3.13717 -0.957303 0)
(3.13539 -0.955543 0)
(3.13136 -0.965344 0)
(3.13389 -0.959879 0)
(3.13942 -0.928557 0)
(3.13946 -0.928814 0)
(3.13921 -0.929623 0)
(3.13922 -0.930196 0)
(3.13928 -0.931347 0)
(3.13958 -0.931696 0)
(3.13971 -0.93076 0)
(3.13929 -0.928677 0)
(3.13884 -0.928145 0)
(3.13884 -0.928531 0)
(3.13887 -0.92894 0)
(3.13894 -0.9287 0)
(3.13874 -0.928598 0)
(3.13856 -0.928713 0)
(3.13839 -0.929186 0)
(3.13849 -0.929948 0)
(3.13845 -0.929375 0)
(3.13858 -0.928721 0)
(3.13898 -0.928467 0)
(3.13916 -0.927327 0)
(3.13895 -0.926186 0)
(3.13925 -0.924463 0)
(3.13953 -0.923977 0)
(3.13943 -0.923549 0)
(3.13901 -0.923552 0)
(3.13848 -0.924439 0)
(3.13865 -0.923995 0)
(3.13964 -0.922252 0)
(3.13976 -0.920541 0)
(3.14057 -0.917875 0)
(3.14043 -0.917393 0)
(3.13965 -0.91713 0)
(3.14006 -0.915491 0)
(3.14056 -0.914559 0)
(3.14092 -0.910827 0)
(3.14175 -0.906984 0)
(3.14205 -0.904132 0)
(3.14106 -0.901434 0)
(3.14094 -0.898385 0)
(3.14146 -0.896261 0)
(3.14094 -0.89464 0)
(3.14051 -0.892877 0)
(3.13898 -0.894826 0)
(3.13852 -0.894908 0)
(3.13639 -0.900333 0)
(3.13604 -0.90181 0)
(3.13493 -0.906792 0)
(3.13634 -0.906153 0)
(3.13843 -0.903528 0)
(3.14104 -0.896921 0)
(3.14063 -0.824992 0)
(3.14039 -0.824033 0)
(3.14043 -0.823905 0)
(3.14047 -0.824137 0)
(3.14022 -0.824954 0)
(3.14038 -0.825741 0)
(3.14063 -0.825602 0)
(3.14056 -0.823876 0)
(3.14036 -0.823063 0)
(3.14067 -0.823538 0)
(3.14071 -0.82374 0)
(3.14038 -0.822668 0)
(3.14037 -0.822235 0)
(3.14039 -0.822416 0)
(3.14032 -0.822583 0)
(3.14037 -0.822725 0)
(3.14039 -0.82315 0)
(3.14062 -0.823488 0)
(3.14044 -0.823223 0)
(3.1403 -0.822927 0)
(3.14018 -0.822924 0)
(3.14013 -0.822951 0)
(3.13998 -0.822862 0)
(3.14028 -0.823371 0)
(3.14058 -0.824443 0)
(3.1404 -0.82526 0)
(3.14022 -0.825321 0)
(3.14018 -0.824924 0)
(3.14019 -0.824405 0)
(3.14018 -0.824492 0)
(3.1402 -0.824652 0)
(3.14016 -0.825314 0)
(3.14017 -0.825906 0)
(3.14017 -0.825779 0)
(3.1394 -0.826484 0)
(3.13892 -0.827908 0)
(3.13896 -0.829135 0)
(3.13935 -0.829661 0)
(3.13856 -0.831649 0)
(3.13854 -0.832434 0)
(3.13817 -0.833872 0)
(3.13817 -0.834682 0)
(3.13795 -0.83623 0)
(3.13804 -0.836519 0)
(3.13876 -0.835905 0)
(3.1398 -0.834717 0)
(3.14152 -0.831367 0)
(3.14213 -0.827708 0)
(3.14325 -0.822164 0)
(3.14123 -0.818444 0)