/*--------------------------------*- C++ -*----------------------------------*\
  =========                 |
  \\      /  F ield         | OpenFOAM: The Open Source CFD Toolbox
   \\    /   O peration     | Website:  https://openfoam.org
    \\  /    A nd           | Version:  7
     \\/     M anipulation  |
\*---------------------------------------------------------------------------*/
FoamFile
{
    version     2.0;
    format      ascii;
    class       volScalarField;
    location    "8";
    object      T;
}
// * * * * * * * * * * * * * * * * * * * * * * * * * * * * * * * * * * * * * //

dimensions      [0 0 0 1 0 0 0];

internalField   nonuniform List<scalar> 
12750
(
1.093
1.24975
1.33207
1.36024
1.38705
1.38266
1.3739
1.35406
1.35164
1.34759
1.3531
1.36245
1.35565
1.34414
1.33102
1.31392
1.28937
1.27183
1.26156
1.25685
1.25149
1.2396
1.22198
1.21
1.20738
1.2031
1.19251
1.18627
1.18483
1.1825
0.550838
0.576617
0.692143
0.916722
1.11204
1.28309
1.41197
1.49156
1.55549
1.57383
1.56797
1.54283
1.52491
1.49328
1.46261
1.43931
1.41564
1.40453
1.39162
1.37497
1.36055
1.34545
1.32505
1.30471
1.28634
1.27366
1.2624
1.2551
1.24833
1.23476
0.528432
0.519601
0.511098
0.501471
0.488163
0.516691
0.653309
0.926258
1.15038
1.36002
1.47466
1.5402
1.61013
1.59773
1.57661
1.55911
1.5424
1.52735
1.50851
1.49308
1.4886
1.47631
1.45195
1.4288
1.40939
1.39543
1.37875
1.36312
1.34698
1.3231
0.496613
0.49201
0.486986
0.482165
0.477056
0.471735
0.466664
0.462512
0.459194
0.529
0.744102
1.03952
1.28097
1.47705
1.58606
1.63224
1.62557
1.60038
1.57143
1.56324
1.572
1.57187
1.55963
1.53791
1.52459
1.51526
1.50067
1.48518
1.47074
1.44292
0.481139
0.478658
0.475843
0.472777
0.469312
0.465476
0.461711
0.458326
0.456796
0.455725
0.454958
0.453416
0.471337
0.76984
1.1257
1.38191
1.54997
1.59664
1.59694
1.60574
1.6066
1.60695
1.61174
1.60721
1.59918
1.59056
1.58463
1.57755
1.56669
1.54238
0.471216
0.469405
0.467462
0.465167
0.462445
0.45946
0.456308
0.453867
0.452686
0.452502
0.452142
0.451129
0.450049
0.449272
0.448108
0.602849
1.00573
1.34601
1.54859
1.60853
1.61459
1.61171
1.61823
1.61902
1.61736
1.61168
1.61056
1.60813
1.60235
1.58577
0.462516
0.460805
0.459007
0.456911
0.454709
0.452825
0.451144
0.449969
0.449952
0.450639
0.450797
0.450105
0.449264
0.448723
0.447838
0.446956
0.447045
0.547868
0.9507
1.28434
1.46354
1.53567
1.58253
1.59768
1.60703
1.60241
1.6071
1.60439
1.60068
1.59102
0.452121
0.451043
0.45014
0.449459
0.448748
0.448189
0.447877
0.4481
0.448983
0.451194
0.451448
0.450359
0.450412
0.452411
0.453263
0.452512
0.453233
0.456887
0.460405
0.537285
0.859044
1.19575
1.37817
1.46909
1.53197
1.53636
1.55004
1.55031
1.55638
1.56256
0.446002
0.445711
0.44593
0.446541
0.447148
0.446988
0.446822
0.447228
0.448537
0.452287
0.454658
0.45575
0.458027
0.463766
0.470812
0.474979
0.476663
0.476965
0.479739
0.48299
0.484733
0.546008
0.828446
1.11869
1.29026
1.38076
1.45309
1.45886
1.47443
1.48691
0.445202
0.44528
0.445835
0.447071
0.448119
0.449365
0.45153
0.45412
0.456586
0.460504
0.462612
0.463546
0.46636
0.472619
0.481813
0.488993
0.493485
0.498283
0.504644
0.508861
0.509539
0.511195
0.515771
0.572677
0.813489
1.08805
1.22876
1.30391
1.36766
1.3776
0.460002
0.460719
0.462252
0.464967
0.468509
0.472385
0.476792
0.478521
0.479145
0.481
0.484262
0.485717
0.487172
0.48982
0.495586
0.501237
0.507206
0.515691
0.523461
0.530819
0.53626
0.534937
0.536625
0.543752
0.546625
0.611118
0.828846
1.07032
1.17304
1.25994
0.482071
0.483169
0.485402
0.489244
0.492704
0.494536
0.496735
0.49993
0.505168
0.510561
0.515025
0.517546
0.519461
0.523268
0.527594
0.528407
0.529458
0.532923
0.538045
0.543487
0.549829
0.556944
0.559832
0.561049
0.567183
0.570896
0.57181
0.661764
0.845154
1.13265
0.511199
0.511497
0.512341
0.514265
0.517284
0.520169
0.523527
0.528643
0.534726
0.535672
0.535979
0.536472
0.538175
0.543155
0.551628
0.555512
0.556452
0.556009
0.556282
0.557792
0.562921
0.574195
0.579811
0.581782
0.584506
0.588116
0.591361
0.594482
0.596109
0.8597
0.545346
0.545464
0.546286
0.549182
0.553587
0.557166
0.56028
0.561019
0.559949
0.559612
0.560165
0.56166
0.564532
0.567428
0.57149
0.576177
0.580457
0.584172
0.586371
0.587318
0.588246
0.59157
0.598679
0.602097
0.602783
0.605641
0.612075
0.616662
0.619052
0.62183
0.579644
0.57967
0.580308
0.582444
0.58599
0.590052
0.593092
0.593229
0.593362
0.594006
0.595294
0.597575
0.599727
0.599932
0.600501
0.601793
0.604244
0.60935
0.614701
0.61834
0.618407
0.617709
0.619472
0.623521
0.627208
0.630285
0.633711
0.636295
0.638598
0.642385
0.616444
0.615933
0.616161
0.617876
0.622293
0.627429
0.629948
0.629626
0.626901
0.623942
0.623849
0.625346
0.629152
0.633027
0.63641
0.637429
0.637756
0.638648
0.640195
0.642981
0.645383
0.646839
0.647698
0.649684
0.65222
0.653362
0.653414
0.655037
0.657332
0.66068
0.658818
0.657775
0.657965
0.659438
0.663725
0.668718
0.670612
0.670112
0.667231
0.665145
0.665455
0.667762
0.669659
0.669516
0.669111
0.669517
0.670779
0.671457
0.671009
0.67024
0.670775
0.67244
0.673688
0.673876
0.674542
0.675031
0.675742
0.677018
0.677744
0.6787
0.705111
0.703105
0.70302
0.704083
0.707537
0.711014
0.712179
0.711756
0.707954
0.704094
0.704036
0.705239
0.705762
0.705608
0.704979
0.703757
0.7033
0.703659
0.704551
0.704775
0.703931
0.702503
0.702593
0.702968
0.703049
0.703254
0.703127
0.702498
0.701676
0.701595
0.75635
0.752433
0.75162
0.752125
0.754722
0.757312
0.757615
0.756509
0.752199
0.749711
0.75005
0.749689
0.747709
0.746509
0.74611
0.745283
0.743552
0.742186
0.741266
0.740208
0.739199
0.73764
0.73615
0.734763
0.733045
0.731464
0.730001
0.728753
0.728108
0.725807
0.811785
0.804938
0.803115
0.803345
0.806088
0.80765
0.80718
0.804448
0.799272
0.797398
0.79749
0.796437
0.792316
0.789773
0.788871
0.787268
0.784435
0.78161
0.779443
0.776997
0.774349
0.771543
0.768456
0.766241
0.763777
0.761345
0.759449
0.756364
0.754846
0.752644
0.87159
0.862391
0.857628
0.857131
0.859613
0.861574
0.860524
0.856679
0.850029
0.847599
0.847798
0.846368
0.840377
0.836127
0.83473
0.832581
0.828956
0.824793
0.821117
0.818103
0.814419
0.810684
0.807023
0.803333
0.799947
0.795968
0.792274
0.788508
0.783728
0.777244
0.933712
0.925269
0.91603
0.913511
0.914828
0.917537
0.916915
0.913071
0.904583
0.900152
0.900364
0.898836
0.891297
0.885308
0.883447
0.880908
0.876017
0.870581
0.865528
0.861103
0.856451
0.851333
0.846205
0.840638
0.835687
0.830596
0.824852
0.819977
0.815785
0.807485
0.995713
0.990835
0.981113
0.973222
0.97154
0.973377
0.97435
0.971878
0.96384
0.955258
0.954525
0.953229
0.945899
0.937551
0.934644
0.931794
0.926165
0.91912
0.91279
0.907098
0.901537
0.895075
0.888362
0.882121
0.875449
0.868882
0.862368
0.854935
0.849191
0.83981
1.05795
1.05494
1.04988
1.04143
1.03319
1.03106
1.03245
1.03143
1.02527
1.01419
1.0109
1.00921
1.00309
0.993653
0.988375
0.984188
0.9781
0.969999
0.962381
0.955461
0.948595
0.9409
0.932972
0.925077
0.917024
0.908677
0.900649
0.892475
0.88462
0.872145
1.12391
1.12073
1.11715
1.11292
1.1058
1.09864
1.09722
1.09481
1.08868
1.07803
1.07286
1.06915
1.06216
1.05289
1.04587
1.03924
1.0318
1.02299
1.01414
1.00578
0.997208
0.988322
0.979109
0.969777
0.960469
0.950906
0.941188
0.93137
0.922789
0.908576
1.17839
1.17679
1.17382
1.17062
1.16769
1.164
1.16
1.15639
1.15195
1.14484
1.13857
1.13319
1.12591
1.11718
1.10859
1.09976
1.0902
1.0804
1.07
1.05954
1.04904
1.03827
1.02738
1.01651
1.0057
0.994551
0.983717
0.972502
0.962362
0.94601
1.18882
1.1887
1.18862
1.18845
1.18802
1.18744
1.18668
1.18575
1.18464
1.18287
1.18085
1.17879
1.17557
1.17092
1.16514
1.15846
1.1507
1.1417
1.13145
1.11991
1.10774
1.09478
1.08154
1.06806
1.05469
1.04153
1.02849
1.01534
1.00379
0.985186
1.17828
1.17694
1.17658
1.17822
1.18084
1.18235
1.18316
1.18308
1.18295
1.1834
1.1834
1.1829
1.18268
1.18248
1.18204
1.1812
1.17966
1.17736
1.17382
1.16878
1.16165
1.1523
1.14052
1.127
1.11203
1.09602
1.07993
1.06349
1.04902
1.02674
1.11882
1.12022
1.12147
1.12414
1.12846
1.13341
1.13998
1.14765
1.14975
1.15242
1.15913
1.16359
1.16502
1.16755
1.17118
1.17429
1.17594
1.17621
1.17599
1.17564
1.17504
1.17386
1.17155
1.16766
1.16077
1.15041
1.13666
1.12001
1.10313
1.07541
1.02621
1.02908
1.03276
1.03554
1.03821
1.04211
1.04761
1.05431
1.06062
1.06665
1.07531
1.08505
1.09278
1.10143
1.11172
1.12271
1.13219
1.14116
1.14917
1.15653
1.16174
1.16513
1.16816
1.16822
1.16795
1.16685
1.16424
1.15921
1.15095
1.12854
1.00112
1.00133
1.00161
1.00196
1.00231
1.00276
1.00342
1.00434
1.00563
1.0071
1.00896
1.01185
1.01538
1.01986
1.02571
1.03338
1.04284
1.05391
1.06697
1.0813
1.09672
1.11141
1.12609
1.13832
1.14802
1.15474
1.15933
1.1592
1.15877
1.15456
1.00001
1.00001
1.00002
1.00002
1.00003
1.00004
1.00005
1.00007
1.0001
1.00014
1.0002
1.0003
1.00045
1.0007
1.0011
1.00175
1.00283
1.00454
1.00735
1.01163
1.01832
1.02775
1.0406
1.05705
1.07584
1.09526
1.11441
1.13045
1.14164
1.14912
1
1
1
1
1
1
1
1
1
1
1
1
1
1.00001
1.00001
1.00002
1.00004
1.00007
1.00015
1.0003
1.00063
1.00132
1.00273
1.00553
1.01072
1.01964
1.0334
1.05282
1.07369
1.10732
1
1
1
1
1
1
1
1
1
1
1
1
1
1
1
1
1
1
1
1
1.00001
1.00001
1.00004
1.0001
1.00028
1.00078
1.00204
1.00521
1.01093
1.03391
1
1
1
1
1
1
1
1
1
1
1
1
1
1
1
1
1
1
1
1
1
1
1
1
1
1.00001
1.00003
1.00011
1.00032
1.0029
0.568057
0.561228
0.537928
0.50292
0.484556
0.473323
0.464487
0.453321
0.447555
0.446266
0.459599
0.481472
0.511004
0.545446
0.581597
0.620231
0.664074
0.712299
0.764805
0.820528
0.878685
0.938825
0.999334
1.06146
1.12832
1.1806
1.18919
1.17827
1.11036
1.02227
1.0009
1.00001
1
1
1
0.569113
0.558571
0.533826
0.499036
0.483307
0.472007
0.463341
0.451821
0.448659
0.450654
0.46569
0.488784
0.520003
0.554925
0.591729
0.630886
0.675689
0.724051
0.775649
0.830633
0.888132
0.947201
1.00704
1.07022
1.13891
1.18519
1.18944
1.17237
1.09401
1.01585
1.0005
1
1
1
1
0.56874
0.557471
0.533395
0.497793
0.483265
0.471527
0.462721
0.451581
0.449853
0.453422
0.467826
0.492766
0.523338
0.558516
0.595409
0.634382
0.6791
0.72744
0.778886
0.833911
0.891631
0.950741
1.01157
1.07954
1.14979
1.18819
1.1892
1.1631
1.08258
1.01198
1.00032
1
1
1
1
0.568708
0.557227
0.53141
0.494824
0.481251
0.469904
0.46135
0.451748
0.450574
0.455417
0.46806
0.494719
0.524268
0.559888
0.596994
0.636251
0.680635
0.72898
0.780247
0.835117
0.893982
0.956873
1.02555
1.09655
1.1608
1.19024
1.18828
1.15749
1.07327
1.0087
1.00019
1
1
1
1
0.568862
0.557486
0.530643
0.493002
0.47883
0.467598
0.459531
0.45181
0.451534
0.457817
0.467516
0.495655
0.523682
0.559504
0.596823
0.636672
0.681422
0.731819
0.78716
0.847288
0.912044
0.97982
1.04541
1.1094
1.16857
1.19166
1.1882
1.15359
1.06224
1.00578
1.00011
1
1
1
1
0.569551
0.559331
0.530568
0.492224
0.476793
0.464949
0.457485
0.451702
0.451646
0.459508
0.467959
0.496851
0.525285
0.562729
0.603647
0.64897
0.699764
0.754229
0.811566
0.87108
0.932702
0.994109
1.0548
1.11857
1.17548
1.19288
1.18873
1.14579
1.04864
1.00367
1.00006
1
1
1
1
0.571672
0.560811
0.530735
0.49198
0.475074
0.462505
0.455494
0.451716
0.45084
0.459594
0.472924
0.502294
0.536344
0.577277
0.621219
0.66659
0.715849
0.768198
0.823181
0.880733
0.940254
1.00022
1.06202
1.12953
1.18226
1.19354
1.18645
1.1296
1.03813
1.00242
1.00003
1
1
1
1
0.572397
0.561465
0.531337
0.492425
0.473959
0.460751
0.453825
0.453114
0.450016
0.45769
0.479146
0.509692
0.543807
0.583818
0.627062
0.671951
0.721067
0.773022
0.82759
0.885026
0.944528
1.00545
1.07334
1.14286
1.18716
1.19367
1.18023
1.11875
1.0306
1.00156
1.00002
1
1
1
1
0.572228
0.562144
0.532259
0.494195
0.473678
0.460056
0.45332
0.454779
0.45015
0.456225
0.484249
0.513255
0.547498
0.58675
0.629498
0.674375
0.722875
0.774774
0.829214
0.887563
0.950864
1.02112
1.09204
1.1539
1.19066
1.19353
1.17636
1.10987
1.02318
1.00094
1.00001
1
1
1
1
0.571848
0.563407
0.532438
0.496012
0.474206
0.460084
0.45331
0.455333
0.452952
0.457366
0.489724
0.516933
0.551109
0.588968
0.630329
0.67486
0.723516
0.778141
0.839256
0.90619
0.976183
1.04326
1.10508
1.16353
1.19352
1.19364
1.17444
1.09731
1.01613
1.00053
1.00001
1
1
1
1
0.57235
0.564204
0.53175
0.497704
0.475555
0.460686
0.453258
0.453963
0.45379
0.46168
0.494566
0.522358
0.555952
0.59337
0.637164
0.685647
0.7424
0.803491
0.866932
0.930695
0.993324
1.05378
1.11525
1.17266
1.1953
1.19429
1.16994
1.08041
1.01096
1.0003
1
1
1
1
1
0.573247
0.564614
0.530733
0.499355
0.476791
0.461718
0.453262
0.45232
0.45286
0.467494
0.500176
0.534435
0.569878
0.612486
0.659802
0.708907
0.763072
0.820403
0.879574
0.940075
1.00065
1.06193
1.12748
1.18007
1.19626
1.19365
1.15548
1.06662
1.00748
1.00017
1
1
1
1
1
0.574329
0.565115
0.529998
0.500889
0.478428
0.463797
0.454739
0.451617
0.453513
0.474336
0.506426
0.541825
0.578442
0.621679
0.668403
0.716891
0.769821
0.826141
0.88465
0.945222
1.00725
1.07462
1.1415
1.18623
1.19664
1.18993
1.14493
1.05517
1.00491
1.00009
1
1
1
1
1
0.575977
0.565483
0.529635
0.501969
0.479869
0.465743
0.457362
0.45158
0.455475
0.479313
0.507853
0.543751
0.580981
0.624669
0.670797
0.71976
0.771728
0.828099
0.887242
0.952219
1.02433
1.09458
1.15364
1.19117
1.19681
1.1866
1.13679
1.04375
1.00307
1.00005
1
1
1
1
1
0.576715
0.56526
0.529307
0.50222
0.48002
0.466081
0.45819
0.453455
0.456037
0.481648
0.508498
0.543801
0.581218
0.625292
0.670916
0.720694
0.773505
0.834635
0.905321
0.979729
1.04829
1.10874
1.16431
1.19476
1.19703
1.18556
1.12647
1.0326
1.00181
1.00002
1
1
1
1
1
0.576239
0.563842
0.528304
0.502119
0.479633
0.465169
0.45576
0.453043
0.457603
0.48307
0.509665
0.544698
0.581595
0.627141
0.679588
0.735243
0.799113
0.867231
0.935444
0.999845
1.06047
1.12012
1.17392
1.19712
1.1976
1.18439
1.10936
1.02295
1.001
1.00001
1
1
1
1
1
0.575819
0.562254
0.527096
0.502371
0.477176
0.461295
0.450439
0.448203
0.462081
0.48616
0.519928
0.559294
0.599376
0.649464
0.705404
0.762878
0.823651
0.885705
0.94768
1.00879
1.07041
1.1338
1.18199
1.19836
1.19765
1.17265
1.09253
1.0158
1.00055
1.00001
1
1
1
1
1
0.576774
0.561828
0.52641
0.501736
0.473635
0.457665
0.448173
0.447425
0.468824
0.497205
0.535729
0.575015
0.616644
0.664808
0.718634
0.773684
0.83257
0.892981
0.954142
1.01728
1.0859
1.14853
1.18863
1.19889
1.19544
1.16135
1.07812
1.01081
1.00031
1
1
1
1
1
1
0.579892
0.562252
0.525595
0.499535
0.471412
0.45569
0.447371
0.45199
0.477403
0.506333
0.543208
0.582244
0.623486
0.670184
0.72265
0.777536
0.835702
0.897344
0.962649
1.03706
1.106
1.16064
1.19347
1.19915
1.19247
1.15419
1.06491
1.00705
1.00016
1
1
1
1
1
1
0.582153
0.563169
0.524771
0.499069
0.469621
0.454077
0.446923
0.454593
0.480954
0.509338
0.545521
0.584537
0.625479
0.672581
0.722904
0.778637
0.840159
0.91263
0.99188
1.06205
1.12043
1.17104
1.19691
1.19938
1.1918
1.14687
1.0506
1.00417
1.00008
1
1
1
1
1
1
0.584297
0.563965
0.524363
0.498672
0.468243
0.452303
0.446769
0.454359
0.480844
0.509374
0.545711
0.584341
0.626445
0.677412
0.736384
0.801157
0.875374
0.949322
1.016
1.07631
1.13319
1.1804
1.19907
1.19985
1.19171
1.13018
1.03599
1.00224
1.00003
1
1
1
1
1
1
0.589735
0.567434
0.523876
0.498796
0.468011
0.451142
0.447458
0.454633
0.478919
0.509335
0.546213
0.596058
0.647346
0.70676
0.770938
0.83553
0.901235
0.965889
1.02787
1.08917
1.14844
1.18774
1.20002
1.19987
1.18239
1.11006
1.02503
1.00124
1.00002
1
1
1
1
1
1
0.595547
0.572686
0.527836
0.500749
0.468079
0.45079
0.448563
0.462996
0.487274
0.524362
0.567814
0.620053
0.670035
0.725705
0.786297
0.847832
0.911096
0.97488
1.03965
1.10756
1.16213
1.1931
1.20029
1.19809
1.17093
1.09532
1.01793
1.0007
1.00001
1
1
1
1
1
1
0.596956
0.573706
0.53749
0.502221
0.470131
0.451145
0.448885
0.471109
0.498451
0.539478
0.581421
0.628447
0.677267
0.73186
0.791448
0.853376
0.917302
0.986146
1.06212
1.12649
1.17304
1.19685
1.20033
1.19532
1.16412
1.08146
1.01162
1.00034
1
1
1
1
1
1
1
0.595857
0.572512
0.544924
0.502581
0.471305
0.452387
0.448667
0.474061
0.501091
0.543509
0.585941
0.631864
0.679263
0.734542
0.792409
0.857408
0.932741
1.0158
1.08613
1.1412
1.18243
1.19935
1.20048
1.19479
1.15784
1.06352
1.00668
1.00016
1
1
1
1
1
1
1
0.589863
0.571256
0.548684
0.502617
0.46786
0.452395
0.448245
0.474097
0.501428
0.543538
0.589741
0.635308
0.682865
0.742751
0.815213
0.894013
0.974131
1.04347
1.10287
1.15525
1.18987
1.20061
1.2011
1.19503
1.14162
1.04553
1.00364
1.00007
1
1
1
1
1
1
1
0.581559
0.569175
0.549161
0.500584
0.458435
0.447862
0.448317
0.471595
0.507382
0.547178
0.597821
0.658353
0.719544
0.787763
0.860214
0.930177
0.996666
1.05895
1.11909
1.16897
1.19485
1.20111
1.20108
1.18643
1.11915
1.03177
1.00195
1.00003
1
1
1
1
1
1
1
0.577568
0.567758
0.543707
0.491187
0.454049
0.446077
0.45578
0.476379
0.523993
0.577034
0.629496
0.689931
0.747758
0.811525
0.878751
0.9444
1.00931
1.07513
1.13829
1.17934
1.19803
1.2012
1.19932
1.17467
1.10332
1.02243
1.00104
1.00001
1
1
1
1
1
1
1
0.57764
0.568296
0.538276
0.481749
0.453218
0.452
0.473739
0.500096
0.547246
0.596412
0.645593
0.700613
0.757446
0.820761
0.88739
0.954693
1.02539
1.09943
1.15451
1.18759
1.2
1.20104
1.19625
1.16756
1.08865
1.01437
1.0005
1.00001
1
1
1
1
1
1
1
0.580658
0.573228
0.536734
0.479127
0.455791
0.467265
0.487524
0.5139
0.5544
0.600254
0.649448
0.703045
0.759844
0.825699
0.895419
0.974055
1.05697
1.12231
1.16824
1.1941
1.20095
1.2014
1.19579
1.16132
1.06843
1.00795
1.00021
1
1
1
1
1
1
1
1
0.587373
0.576994
0.536298
0.480203
0.462249
0.471168
0.490733
0.516177
0.555846
0.597982
0.648361
0.702753
0.766768
0.846451
0.935216
1.0177
1.08571
1.14042
1.18022
1.19806
1.20142
1.20171
1.19615
1.14434
1.04769
1.00408
1.00008
1
1
1
1
1
1
1
1
0.59774
0.578055
0.530111
0.481296
0.465699
0.469171
0.486208
0.514953
0.556156
0.60345
0.662446
0.741746
0.820659
0.90063
0.97639
1.04402
1.10467
1.1571
1.18891
1.20002
1.20156
1.20135
1.18664
1.11914
1.03232
1.00209
1.00003
1
1
1
1
1
1
1
1
0.60727
0.576298
0.517776
0.47332
0.464029
0.467288
0.480596
0.521451
0.573237
0.642765
0.7145
0.78746
0.855301
0.926208
0.995963
1.06171
1.12427
1.17217
1.1948
1.20088
1.20142
1.19871
1.17303
1.10139
1.022
1.00104
1.00001
1
1
1
1
1
1
1
1
0.615527
0.575762
0.513037
0.4637
0.454313
0.467739
0.494475
0.551048
0.61028
0.674155
0.738368
0.805024
0.871543
0.942377
1.01304
1.08455
1.14696
1.18383
1.19863
1.2012
1.20097
1.195
1.16452
1.08503
1.01329
1.00046
1.00001
1
1
1
1
1
1
1
1
0.621504
0.580813
0.511988
0.459758
0.449623
0.475408
0.520048
0.573846
0.624922
0.684793
0.748222
0.81565
0.884228
0.96139
1.04368
1.11642
1.16532
1.19206
1.2006
1.20135
1.20121
1.19424
1.15597
1.06212
1.00671
1.00017
1
1
1
1
1
1
1
1
1
0.626279
0.590533
0.511504
0.454978
0.451627
0.483008
0.528979
0.579182
0.630187
0.688173
0.755023
0.834389
0.919547
1.00649
1.08376
1.14061
1.1787
1.19694
1.2013
1.20159
1.20145
1.19381
1.13442
1.03995
1.00309
1.00006
1
1
1
1
1
1
1
1
1
0.630913
0.594302
0.506019
0.444631
0.453481
0.4864
0.532987
0.577177
0.634612
0.707552
0.798453
0.891015
0.971222
1.04572
1.10913
1.15806
1.18862
1.19954
1.20145
1.2017
1.20033
1.17954
1.10654
1.02528
1.00144
1.00002
1
1
1
1
1
1
1
1
1
0.632194
0.592093
0.491781
0.436411
0.45552
0.490798
0.542732
0.599478
0.68177
0.769009
0.852271
0.930498
1.00197
1.07027
1.13043
1.17447
1.19529
1.20089
1.20149
1.20126
1.19614
1.16471
1.08767
1.01594
1.00064
1.00001
1
1
1
1
1
1
1
1
1
0.630406
0.576184
0.482811
0.43464
0.478563
0.519111
0.576069
0.651737
0.72679
0.803018
0.880093
0.956136
1.02783
1.09725
1.15559
1.18739
1.19903
1.20157
1.20161
1.2006
1.1926
1.15487
1.06915
1.00844
1.00025
1
1
1
1
1
1
1
1
1
1
0.624819
0.559045
0.48206
0.439463
0.502185
0.554504
0.610211
0.67637
0.747302
0.82481
0.905265
0.986417
1.06449
1.13186
1.17623
1.19505
1.20081
1.2019
1.20219
1.20117
1.192
1.14089
1.04411
1.00357
1.00008
1
1
1
1
1
1
1
1
1
1
0.616586
0.547678
0.486196
0.458342
0.508887
0.569298
0.622458
0.689984
0.767282
0.853953
0.947654
1.03616
1.10695
1.15804
1.18844
1.19912
1.20159
1.20209
1.20232
1.20119
1.18538
1.10907
1.02437
1.00139
1.00002
1
1
1
1
1
1
1
1
1
1
0.614996
0.541496
0.492037
0.475775
0.503966
0.568748
0.62938
0.711799
0.814091
0.916028
1.00573
1.07952
1.13594
1.17485
1.19616
1.20108
1.20183
1.20211
1.20139
1.197
1.16155
1.0801
1.01375
1.00055
1.00001
1
1
1
1
1
1
1
1
1
1
0.619915
0.538483
0.491937
0.480896
0.499116
0.565289
0.67244
0.785722
0.882699
0.969531
1.04621
1.11058
1.15896
1.18782
1.20074
1.20176
1.20182
1.20185
1.19922
1.1888
1.14479
1.06085
1.00731
1.00021
1
1
1
1
1
1
1
1
1
1
1
0.622933
0.531039
0.481987
0.478632
0.51846
0.6387
0.754138
0.843951
0.927837
1.00902
1.08227
1.14204
1.17981
1.1959
1.2026
1.20194
1.20133
1.20187
1.19823
1.18305
1.1293
1.03959
1.00297
1.00006
1
1
1
1
1
1
1
1
1
1
1
0.615592
0.50745
0.460677
0.472746
0.577821
0.712027
0.801253
0.884586
0.970384
1.05455
1.12458
1.17103
1.19265
1.19931
1.20306
1.20186
1.20117
1.20177
1.19944
1.17901
1.10063
1.01918
1.00094
1.00002
1
1
1
1
1
1
1
1
1
1
1
0.610442
0.474347
0.444679
0.504275
0.661577
0.753954
0.838342
0.934444
1.02916
1.10739
1.15994
1.18838
1.19839
1.20044
1.20319
1.20141
1.20111
1.20077
1.19818
1.15799
1.06468
1.0083
1.00028
1
1
1
1
1
1
1
1
1
1
1
1
0.609155
0.45747
0.45652
0.591511
0.699922
0.793407
0.903568
1.00709
1.08887
1.14697
1.18156
1.19757
1.20051
1.2007
1.20325
1.20103
1.20121
1.19861
1.18543
1.12709
1.04144
1.00374
1.00009
1
1
1
1
1
1
1
1
1
1
1
1
0.614097
0.455028
0.518751
0.649279
0.751832
0.867982
0.984978
1.07065
1.13298
1.17399
1.19488
1.20182
1.20089
1.20054
1.20338
1.20071
1.20185
1.19625
1.17233
1.1049
1.02516
1.00141
1.00002
1
1
1
1
1
1
1
1
1
1
1
1
0.610616
0.476369
0.568897
0.695567
0.829615
0.962643
1.05378
1.12066
1.16701
1.19208
1.2015
1.20276
1.20091
1.20045
1.20369
1.20077
1.20212
1.19649
1.16097
1.07632
1.01068
1.00038
1.00001
1
1
1
1
1
1
1
1
1
1
1
1
0.575593
0.534877
0.65644
0.799099
0.938047
1.03939
1.11181
1.16173
1.18975
1.20065
1.20346
1.20285
1.20046
1.20044
1.20412
1.20151
1.20148
1.19469
1.13691
1.03983
1.00318
1.00008
1
1
1
1
1
1
1
1
1
1
1
1
1
0.487641
0.574472
0.744434
0.911185
1.03066
1.10711
1.15949
1.18769
1.19996
1.20331
1.20371
1.20245
1.20033
1.20063
1.2044
1.20217
1.19653
1.17043
1.09238
1.01819
1.00094
1.00002
1
1
1
1
1
1
1
1
1
1
1
1
1
0.171684
0.575569
0.875997
1.02332
1.10782
1.16094
1.18798
1.19903
1.20294
1.20375
1.20365
1.20203
1.20022
1.2012
1.20455
1.20169
1.18961
1.14549
1.06197
1.00817
1.00026
1
1
1
1
1
1
1
1
1
1
1
1
1
1
0.311167
0.787082
1.00971
1.11283
1.16493
1.19002
1.19985
1.20231
1.20328
1.20369
1.2035
1.20179
1.20014
1.2017
1.20455
1.19747
1.18177
1.12161
1.0347
1.00243
1.00005
1
1
1
1
1
1
1
1
1
1
1
1
1
1
0.582447
0.942188
1.1126
1.1726
1.19436
1.20118
1.20277
1.2027
1.20301
1.20358
1.20345
1.20161
1.20007
1.20212
1.2039
1.19289
1.16901
1.08235
1.01156
1.00039
1.00001
1
1
1
1
1
1
1
1
1
1
1
1
1
1
0.950178
1.11893
1.18329
1.19946
1.20318
1.20334
1.20298
1.2025
1.20297
1.20379
1.20341
1.20119
1.19983
1.20231
1.20344
1.18761
1.13682
1.04045
1.00264
1.00004
1
1
1
1
1
1
1
1
1
1
1
1
1
1
1
1.20291
1.20354
1.20406
1.20423
1.20401
1.20319
1.20257
1.20246
1.20335
1.20407
1.20315
1.20072
1.19957
1.20235
1.20057
1.17488
1.09747
1.01373
0.999915
0.999995
1
1
1
1
1
1
1
1
1
1
1
1
1
1
1
1.20286
1.20335
1.20394
1.20423
1.20419
1.20344
1.20278
1.20238
1.20314
1.20419
1.20362
1.20133
1.19851
1.19973
1.19952
1.17173
1.09042
1.0142
1.00042
1
1
1
1
1
1
1
1
1
1
1
1
1
1
1
1
1.20301
1.20334
1.20397
1.20437
1.20437
1.20384
1.20309
1.20269
1.20292
1.20382
1.20356
1.20189
1.19796
1.19766
1.19776
1.16196
1.06433
1.00503
1.00007
1
1
1
1
1
1
1
1
1
1
1
1
1
1
1
1
1.20309
1.2032
1.20376
1.20434
1.2045
1.20431
1.20367
1.20297
1.2025
1.20287
1.20308
1.20274
1.19817
1.19593
1.19594
1.14635
1.04529
1.00266
1.00003
1
1
1
1
1
1
1
1
1
1
1
1
1
1
1
1
1.20305
1.20303
1.20333
1.20394
1.20454
1.20454
1.20421
1.20319
1.20216
1.20173
1.20278
1.20351
1.2006
1.19539
1.19146
1.12369
1.02969
1.00117
1.00001
1
1
1
1
1
1
1
1
1
1
1
1
1
1
1
1
1.20299
1.20292
1.20298
1.2034
1.20423
1.2046
1.20456
1.20347
1.20188
1.20104
1.20254
1.2044
1.20265
1.19453
1.18135
1.10345
1.01744
1.00047
1
1
1
1
1
1
1
1
1
1
1
1
1
1
1
1
1
1.20307
1.20292
1.2028
1.20304
1.20387
1.2046
1.20465
1.20366
1.20175
1.20068
1.20227
1.20509
1.20362
1.19294
1.16781
1.08164
1.00918
1.00018
1
1
1
1
1
1
1
1
1
1
1
1
1
1
1
1
1
1.20334
1.20298
1.20276
1.20289
1.20357
1.20445
1.20457
1.20369
1.20168
1.2005
1.20179
1.20526
1.20376
1.1914
1.15555
1.06172
1.00484
1.00007
1
1
1
1
1
1
1
1
1
1
1
1
1
1
1
1
1
1.20363
1.20325
1.20295
1.20286
1.20334
1.20416
1.2044
1.20378
1.2017
1.20044
1.20099
1.20433
1.20311
1.18865
1.14108
1.04176
1.00219
1.00002
1
1
1
1
1
1
1
1
1
1
1
1
1
1
1
1
1
1.20381
1.20367
1.20339
1.20314
1.20328
1.2038
1.20419
1.20402
1.2023
1.2007
1.20051
1.20281
1.20125
1.18015
1.11988
1.02483
1.00087
1.00001
1
1
1
1
1
1
1
1
1
1
1
1
1
1
1
1
1
1.20384
1.2039
1.20383
1.20363
1.2035
1.20355
1.20388
1.20423
1.20342
1.20135
1.2003
1.20206
1.2004
1.17317
1.09722
1.01445
1.00035
1
1
1
1
1
1
1
1
1
1
1
1
1
1
1
1
1
1
1.20372
1.20395
1.20411
1.20416
1.20365
1.20337
1.20332
1.20437
1.20416
1.20289
1.19992
1.20029
1.19995
1.16604
1.07347
1.00726
1.00012
1
1
1
1
1
1
1
1
1
1
1
1
1
1
1
1
1
1
1.20317
1.20379
1.2042
1.20446
1.20379
1.20311
1.20293
1.20405
1.20445
1.20425
1.19961
1.19692
1.19543
1.14983
1.04995
1.00318
1.00004
1
1
1
1
1
1
1
1
1
1
1
1
1
1
1
1
1
1
1.20247
1.2033
1.20412
1.20454
1.20394
1.20304
1.20268
1.20365
1.20459
1.20488
1.20067
1.19392
1.18955
1.13008
1.03319
1.00143
1.00001
1
1
1
1
1
1
1
1
1
1
1
1
1
1
1
1
1
1
1.20215
1.20282
1.20381
1.20446
1.20411
1.20313
1.20248
1.20293
1.20442
1.20504
1.20204
1.19327
1.18459
1.1089
1.01889
1.00053
1
1
1
1
1
1
1
1
1
1
1
1
1
1
1
1
1
1
1
1.2021
1.20255
1.20347
1.20431
1.20427
1.20339
1.20237
1.20198
1.20332
1.20476
1.20273
1.19291
1.17372
1.08025
1.009
1.00018
1
1
1
1
1
1
1
1
1
1
1
1
1
1
1
1
1
1
1
1.20222
1.20248
1.20323
1.20407
1.20428
1.20389
1.20241
1.20155
1.2022
1.20461
1.20281
1.18958
1.15316
1.0575
1.00434
1.00006
1
1
1
1
1
1
1
1
1
1
1
1
1
1
1
1
1
1
1
1.20302
1.20283
1.20315
1.20383
1.20443
1.20459
1.2033
1.20131
1.20106
1.20435
1.20294
1.18791
1.13596
1.0379
1.00175
1.00002
1
1
1
1
1
1
1
1
1
1
1
1
1
1
1
1
1
1
1
1.204
1.20348
1.20322
1.20362
1.20454
1.20503
1.20417
1.20114
1.2
1.20251
1.2025
1.1852
1.1125
1.02037
1.00062
1
1
1
1
1
1
1
1
1
1
1
1
1
1
1
1
1
1
1
1
1.20452
1.20378
1.20328
1.20332
1.20439
1.20521
1.20489
1.20205
1.19937
1.20024
1.19961
1.16956
1.08592
1.01053
1.00021
1
1
1
1
1
1
1
1
1
1
1
1
1
1
1
1
1
1
1
1
1.20464
1.20389
1.20327
1.20311
1.20403
1.20525
1.2052
1.20342
1.19983
1.19966
1.19799
1.156
1.06201
1.00479
1.00007
1
1
1
1
1
1
1
1
1
1
1
1
1
1
1
1
1
1
1
1
1.20425
1.20379
1.20324
1.20303
1.20332
1.20463
1.20522
1.20483
1.20151
1.19932
1.19653
1.13697
1.03669
1.00175
1.00002
1
1
1
1
1
1
1
1
1
1
1
1
1
1
1
1
1
1
1
1
1.203
1.20321
1.20315
1.20312
1.20282
1.20338
1.20472
1.20557
1.20298
1.19615
1.18462
1.1089
1.01989
1.00061
1
1
1
1
1
1
1
1
1
1
1
1
1
1
1
1
1
1
1
1
1
1.20201
1.20274
1.20318
1.20335
1.20268
1.20236
1.20369
1.20582
1.20397
1.19347
1.17047
1.08531
1.0101
1.00019
1
1
1
1
1
1
1
1
1
1
1
1
1
1
1
1
1
1
1
1
1
1.20162
1.20256
1.20345
1.20377
1.20267
1.20175
1.20246
1.20579
1.20422
1.1928
1.15626
1.05727
1.00392
1.00005
1
1
1
1
1
1
1
1
1
1
1
1
1
1
1
1
1
1
1
1
1
1.20153
1.20249
1.20398
1.20475
1.20354
1.2015
1.20134
1.20412
1.2033
1.18856
1.13285
1.03274
1.00142
1.00001
1
1
1
1
1
1
1
1
1
1
1
1
1
1
1
1
1
1
1
1
1
1.20185
1.20254
1.20424
1.20521
1.20455
1.20197
1.20107
1.20348
1.20215
1.17734
1.10566
1.01773
1.00047
1
1
1
1
1
1
1
1
1
1
1
1
1
1
1
1
1
1
1
1
1
1
1.20267
1.20284
1.2043
1.20528
1.20523
1.20319
1.20146
1.2036
1.20231
1.16745
1.07626
1.0075
1.00013
1
1
1
1
1
1
1
1
1
1
1
1
1
1
1
1
1
1
1
1
1
1
1.20328
1.2031
1.2041
1.2052
1.20553
1.20496
1.20214
1.20217
1.20024
1.14736
1.04512
1.00262
1.00003
1
1
1
1
1
1
1
1
1
1
1
1
1
1
1
1
1
1
1
1
1
1
1.20362
1.20318
1.20319
1.2038
1.20533
1.20674
1.2036
1.19779
1.18875
1.11872
1.02517
1.00088
1.00001
1
1
1
1
1
1
1
1
1
1
1
1
1
1
1
1
1
1
1
1
1
1
1.20361
1.20284
1.20211
1.2019
1.20416
1.20718
1.20584
1.19644
1.17665
1.0918
1.01142
1.00024
1
1
1
1
1
1
1
1
1
1
1
1
1
1
1
1
1
1
1
1
1
1
1
1.20326
1.20241
1.20155
1.20071
1.20228
1.20687
1.20661
1.19657
1.16012
1.05705
1.00394
1.00005
1
1
1
1
1
1
1
1
1
1
1
1
1
1
1
1
1
1
1
1
1
1
1
1.2029
1.20236
1.20148
1.20023
1.20107
1.20551
1.20611
1.18964
1.13201
1.03197
1.00133
1.00001
1
1
1
1
1
1
1
1
1
1
1
1
1
1
1
1
1
1
1
1
1
1
1
1.20227
1.20227
1.20189
1.20079
1.20103
1.20527
1.20554
1.17941
1.10219
1.01512
1.00036
1
1
1
1
1
1
1
1
1
1
1
1
1
1
1
1
1
1
1
1
1
1
1
1
1.2019
1.202
1.20273
1.20317
1.20141
1.20578
1.20645
1.16614
1.06492
1.00514
1.00008
1
1
1
1
1
1
1
1
1
1
1
1
1
1
1
1
1
1
1
1
1
1
1
1
1.20197
1.20186
1.20366
1.20562
1.20339
1.20421
1.20111
1.13553
1.034
1.00153
1.00002
1
1
1
1
1
1
1
1
1
1
1
1
1
1
1
1
1
1
1
1
1
1
1
1
1.20219
1.20168
1.20383
1.2082
1.20776
1.20103
1.18601
1.10338
1.01612
1.0004
1
1
1
1
1
1
1
1
1
1
1
1
1
1
1
1
1
1
1
1
1
1
1
1
1
1.20199
1.20128
1.20196
1.20946
1.21187
1.20075
1.16766
1.06737
1.00529
1.00008
1
1
1
1
1
1
1
1
1
1
1
1
1
1
1
1
1
1
1
1
1
1
1
1
1
1.20119
1.20044
1.20005
1.21007
1.21262
1.19931
1.13769
1.03263
1.00138
1.00001
1
1
1
1
1
1
1
1
1
1
1
1
1
1
1
1
1
1
1
1
1
1
1
1
1
1.20028
1.20017
1.19914
1.20898
1.21213
1.18328
1.09904
1.0138
1.00032
1
1
1
1
1
1
1
1
1
1
1
1
1
1
1
1
1
1
1
1
1
1
1
1
1
1
1.19913
1.2011
1.20137
1.20804
1.21009
1.16493
1.06187
1.00428
1.00006
1
1
1
1
1
1
1
1
1
1
1
1
1
1
1
1
1
1
1
1
1
1
1
1
1
1
1.19724
1.20266
1.20629
1.2072
1.20559
1.1324
1.02671
1.00097
1.00001
1
1
1
1
1
1
1
1
1
1
1
1
1
1
1
1
1
1
1
1
1
1
1
1
1
1
1.1961
1.20472
1.21284
1.20316
1.18399
1.0862
1.00928
1.00018
1
1
1
1
1
1
1
1
1
1
1
1
1
1
1
1
1
1
1
1
1
1
1
1
1
1
1
1.19625
1.20921
1.21713
1.20064
1.15479
1.04627
1.00257
1.00003
1
1
1
1
1
1
1
1
1
1
1
1
1
1
1
1
1
1
1
1
1
1
1
1
1
1
1
1.2017
1.21383
1.21926
1.19505
1.11316
1.01698
1.00045
1
1
1
1
1
1
1
1
1
1
1
1
1
1
1
1
1
1
1
1
1
1
1
1
1
1
1
1
1.20704
1.21461
1.21966
1.17418
1.06087
1.00437
1.00007
1
1
1
1
1
1
1
1
1
1
1
1
1
1
1
1
1
1
1
1
1
1
1
1
1
1
1
1
1.21274
1.21019
1.20931
1.12698
1.02543
1.0009
1.00001
1
1
1
1
1
1
1
1
1
1
1
1
1
1
1
1
1
1
1
1
1
1
1
1
1
1
1
1
1.23372
1.19857
1.18236
1.0775
1.00755
1.00014
1
1
1
1
1
1
1
1
1
1
1
1
1
1
1
1
1
1
1
1
1
1
1
1
1
1
1
1
1
1.25164
1.18471
1.13675
1.03227
1.00152
1.00002
1
1
1
1
1
1
1
1
1
1
1
1
1
1
1
1
1
1
1
1
1
1
1
1
1
1
1
1
1
1.25876
1.16467
1.08095
1.0101
1.00027
1
1
1
1
1
1
1
1
1
1
1
1
1
1
1
1
1
1
1
1