/*--------------------------------*- C++ -*----------------------------------*\
  =========                 |
  \\      /  F ield         | OpenFOAM: The Open Source CFD Toolbox
   \\    /   O peration     | Website:  https://openfoam.org
    \\  /    A nd           | Version:  7
     \\/     M anipulation  |
\*---------------------------------------------------------------------------*/
FoamFile
{
    version     2.0;
    format      ascii;
    class       volScalarField;
    location    "14";
    object      p;
}
// * * * * * * * * * * * * * * * * * * * * * * * * * * * * * * * * * * * * * //

dimensions      [1 -1 -2 0 0 0 0];

internalField   nonuniform List<scalar> 
90000
(
0.613268
0.720759
0.802599
0.844864
0.885713
0.920254
0.927582
0.921667
0.907558
0.888692
0.863469
0.838551
0.815294
0.792386
0.773961
0.758144
0.742521
0.729148
0.719162
0.711268
0.705648
0.702408
0.700885
0.701597
0.703568
0.707307
0.71143
0.716861
0.721933
0.727618
0.73285
0.737722
0.741735
0.745653
0.749519
0.752516
0.755961
0.759705
0.762915
0.764526
0.764742
0.76335
0.76161
0.759881
0.758223
0.754089
0.748897
0.743018
0.736068
0.730179
0.725883
0.726928
0.729952
0.732854
0.7391
0.747115
0.754297
0.759446
0.76228
0.762654
0.762772
0.761527
0.757388
0.752575
0.752073
0.752766
0.756562
0.764811
0.774469
0.78126
0.784737
0.784572
0.785024
0.785307
0.789852
0.798848
0.810683
0.818495
0.824422
0.827255
0.832767
0.845586
0.855563
0.86362
0.86515
0.868812
0.87556
0.883579
0.89176
0.894397
0.901722
0.903972
0.910516
0.915076
0.917838
0.924304
0.925399
0.92729
0.930249
0.934675
0.698917
0.702727
0.706301
0.7124
0.720131
0.729637
0.739655
0.747575
0.753625
0.757423
0.7579
0.755296
0.750714
0.745897
0.740659
0.73569
0.730877
0.727832
0.725502
0.725267
0.725608
0.726998
0.72878
0.731452
0.733928
0.736931
0.739327
0.741892
0.743757
0.745116
0.745323
0.74393
0.740997
0.736982
0.730828
0.725062
0.72042
0.71725
0.715585
0.71576
0.715868
0.716766
0.717364
0.719153
0.721782
0.725133
0.728001
0.7308
0.732857
0.734686
0.73728
0.741781
0.748444
0.754944
0.759616
0.764099
0.76727
0.769567
0.768924
0.766127
0.761163
0.754436
0.748442
0.74916
0.753231
0.760818
0.770976
0.781328
0.788062
0.787692
0.786918
0.78585
0.787282
0.791851
0.800443
0.812864
0.819301
0.825643
0.827165
0.831461
0.840099
0.854984
0.860229
0.866894
0.867873
0.874248
0.881359
0.889934
0.894351
0.898143
0.904821
0.907432
0.913987
0.916927
0.921324
0.927374
0.928464
0.931637
0.93425
0.93774
0.689365
0.693228
0.697218
0.699732
0.703298
0.706266
0.709008
0.711006
0.713534
0.716938
0.722306
0.72776
0.732409
0.73624
0.738879
0.740316
0.740466
0.739217
0.736416
0.733076
0.729263
0.726283
0.72389
0.722855
0.722674
0.723458
0.725013
0.727932
0.732195
0.737759
0.743155
0.747412
0.750015
0.751034
0.749634
0.748073
0.746193
0.744541
0.742795
0.74232
0.742877
0.745041
0.748138
0.752209
0.75753
0.763678
0.770383
0.776676
0.782143
0.786255
0.788656
0.789647
0.788816
0.787616
0.782812
0.777471
0.769516
0.761385
0.75591
0.749933
0.745048
0.744016
0.747281
0.756472
0.768325
0.778734
0.785513
0.78909
0.790635
0.789301
0.787934
0.788428
0.793809
0.803019
0.812404
0.822223
0.825399
0.829195
0.830756
0.838419
0.850757
0.860796
0.864335
0.868982
0.869776
0.879313
0.885929
0.894154
0.897019
0.902323
0.907869
0.910474
0.916744
0.918885
0.924576
0.930097
0.931341
0.9354
0.938067
0.942709
0.666409
0.667475
0.675471
0.682281
0.686773
0.689036
0.69271
0.697591
0.702381
0.706106
0.708048
0.708733
0.709677
0.710628
0.712269
0.714126
0.716588
0.719403
0.722465
0.725656
0.728639
0.731183
0.733075
0.734555
0.735733
0.736573
0.736889
0.735679
0.733475
0.731125
0.729327
0.728415
0.72835
0.728662
0.729335
0.731231
0.734949
0.740019
0.7439
0.746735
0.748766
0.749694
0.751779
0.753669
0.753817
0.753702
0.753716
0.754647
0.755842
0.756879
0.756716
0.755835
0.753087
0.751641
0.749
0.747695
0.746454
0.746743
0.748874
0.752873
0.756007
0.762978
0.771726
0.780312
0.787017
0.793612
0.79656
0.794699
0.791519
0.786968
0.788358
0.796625
0.808608
0.817403
0.824204
0.826503
0.828561
0.831405
0.83741
0.848124
0.862416
0.864979
0.867198
0.869177
0.874981
0.885317
0.889897
0.897133
0.89943
0.907067
0.909736
0.912748
0.918329
0.92065
0.927449
0.931725
0.933706
0.938338
0.941092
0.94611
0.502844
0.540621
0.589954
0.63201
0.665436
0.67893
0.684227
0.688011
0.693168
0.698754
0.701128
0.703195
0.706958
0.710289
0.713182
0.715017
0.716023
0.716782
0.716997
0.716976
0.716941
0.717133
0.717977
0.718605
0.719488
0.720682
0.722785
0.725861
0.729353
0.732631
0.735305
0.737327
0.739057
0.740275
0.740901
0.739713
0.737227
0.734947
0.734075
0.73459
0.736062
0.7379
0.740371
0.746984
0.754079
0.760218
0.764794
0.767576
0.77231
0.774713
0.773867
0.771706
0.7702
0.770987
0.772609
0.775748
0.778132
0.782327
0.785977
0.791175
0.794018
0.798629
0.796867
0.795934
0.790502
0.788701
0.784892
0.783859
0.78481
0.788852
0.80168
0.814619
0.821922
0.826178
0.829979
0.829867
0.831445
0.837087
0.849954
0.860106
0.868405
0.867591
0.869565
0.873644
0.883546
0.889837
0.892907
0.898323
0.904606
0.913039
0.913774
0.916414
0.919298
0.921865
0.929176
0.931767
0.934805
0.939149
0.941739
0.948306
0.0558765
0.0777749
0.116729
0.198094
0.379399
0.461044
0.524245
0.582717
0.625508
0.667003
0.684661
0.690858
0.694412
0.698211
0.703358
0.704954
0.705444
0.708231
0.711844
0.715491
0.718191
0.720034
0.721794
0.723304
0.724537
0.725371
0.725832
0.725901
0.725768
0.725682
0.726456
0.72715
0.727892
0.728772
0.730325
0.732842
0.736595
0.739492
0.74181
0.743815
0.745735
0.747494
0.748665
0.746631
0.745465
0.746126
0.747969
0.75016
0.753249
0.759713
0.765617
0.768976
0.770278
0.773243
0.773341
0.771253
0.769126
0.76949
0.770738
0.772594
0.775415
0.777723
0.779797
0.779902
0.781192
0.783987
0.790128
0.797509
0.807875
0.821664
0.832799
0.837434
0.835685
0.833663
0.829661
0.82869
0.835594
0.848668
0.863125
0.867814
0.871207
0.869036
0.872299
0.881481
0.892949
0.893231
0.895618
0.9015
0.910928
0.917292
0.916862
0.920096
0.921208
0.92376
0.930131
0.931624
0.93414
0.935906
0.938127
0.947111
0.0290739
0.0290275
0.0289975
0.0289411
0.0309042
0.0405551
0.0634599
0.105686
0.165413
0.313364
0.434469
0.504438
0.571715
0.621529
0.664805
0.692766
0.699263
0.70213
0.705295
0.710363
0.712726
0.712935
0.714898
0.717539
0.719499
0.720829
0.722147
0.723903
0.725949
0.727795
0.72923
0.730431
0.731586
0.732462
0.733144
0.73334
0.733291
0.733542
0.734799
0.735572
0.736594
0.738097
0.741634
0.746739
0.749939
0.752986
0.755888
0.758616
0.760848
0.75904
0.75785
0.759038
0.761157
0.763786
0.771199
0.776002
0.779515
0.782278
0.78778
0.789077
0.789059
0.79239
0.796827
0.803489
0.809414
0.813261
0.818646
0.822567
0.828131
0.829074
0.825331
0.821929
0.819586
0.822593
0.830074
0.839526
0.853872
0.867531
0.875431
0.873793
0.868012
0.870004
0.881842
0.893172
0.897633
0.896138
0.898503
0.907189
0.917495
0.920043
0.920668
0.924263
0.923474
0.926576
0.931899
0.932887
0.934309
0.93315
0.934487
0.941977
0.0289457
0.0289399
0.0289343
0.0289326
0.0289205
0.02889
0.0288558
0.0288313
0.0287801
0.0292302
0.0379794
0.0613553
0.105906
0.171814
0.275621
0.426764
0.512285
0.583852
0.635759
0.674661
0.700992
0.707488
0.709114
0.712479
0.716293
0.717089
0.718061
0.720805
0.723033
0.724532
0.725846
0.72724
0.72841
0.729518
0.730707
0.731969
0.734215
0.736101
0.737934
0.739173
0.74044
0.741365
0.742131
0.742791
0.744923
0.746674
0.748377
0.750045
0.753096
0.758564
0.761548
0.764399
0.767162
0.769514
0.768874
0.768094
0.769093
0.770431
0.773327
0.781492
0.787444
0.79025
0.792738
0.795118
0.80232
0.80963
0.815292
0.818926
0.822701
0.828425
0.831804
0.83627
0.841128
0.849936
0.861855
0.873317
0.877783
0.8755
0.862364
0.861488
0.867284
0.882994
0.897997
0.903525
0.898015
0.894343
0.902591
0.914569
0.921953
0.921847
0.92556
0.929997
0.929107
0.932857
0.934505
0.936654
0.936124
0.934428
0.935434
0.939464
0.0289642
0.0289648
0.028965
0.0289669
0.0289681
0.0289697
0.0289742
0.0289793
0.0289882
0.0289951
0.028978
0.0289526
0.0289398
0.0288902
0.0291456
0.0396482
0.0688988
0.122424
0.198804
0.297836
0.44778
0.547693
0.616191
0.664964
0.694088
0.711326
0.715313
0.717623
0.721083
0.722602
0.721788
0.723593
0.725772
0.728308
0.730376
0.73253
0.733945
0.73462
0.735392
0.736265
0.737658
0.73953
0.741754
0.744976
0.74785
0.750018
0.751866
0.753355
0.754499
0.75481
0.7573
0.759061
0.760956
0.764012
0.768999
0.772499
0.776205
0.778909
0.780777
0.779067
0.788187
0.800195
0.807032
0.804547
0.801046
0.80504
0.819552
0.832984
0.839335
0.84122
0.839567
0.83966
0.84334
0.847254
0.85122
0.854235
0.856748
0.860504
0.866788
0.877689
0.892417
0.908469
0.906296
0.893556
0.888808
0.896014
0.913429
0.922687
0.919992
0.922788
0.931391
0.934076
0.933231
0.93814
0.941144
0.9454
0.944334
0.942275
0.94169
0.940847
0.0290282
0.0290312
0.029034
0.0290378
0.0290412
0.0290449
0.0290483
0.0290523
0.0290555
0.0290589
0.0290618
0.029067
0.0290715
0.0290757
0.0290804
0.0290468
0.0290024
0.0289754
0.0289049
0.0306449
0.0476894
0.0922368
0.166319
0.263462
0.376621
0.517626
0.608137
0.668672
0.700482
0.718683
0.723693
0.723894
0.726267
0.725722
0.725118
0.726955
0.729289
0.732225
0.735703
0.738292
0.740415
0.742022
0.743343
0.744429
0.745601
0.74719
0.749172
0.751585
0.754039
0.757252
0.760024
0.762204
0.764089
0.765902
0.767236
0.770331
0.773263
0.775857
0.778614
0.78029
0.778543
0.785711
0.800694
0.814229
0.816276
0.806082
0.801538
0.810908
0.83147
0.8491
0.848129
0.841076
0.838954
0.8455
0.85989
0.874811
0.884739
0.892748
0.896578
0.896965
0.894672
0.889278
0.887093
0.892097
0.901908
0.91582
0.920447
0.910397
0.913821
0.92929
0.939254
0.933234
0.935305
0.943084
0.946321
0.951111
0.951168
0.951679
0.952596
0.948997
0.0290924
0.029095
0.0290979
0.0291013
0.0291045
0.0291068
0.0291099
0.0291123
0.0291132
0.0291129
0.0291126
0.0291138
0.0291153
0.0291158
0.0291125
0.0291079
0.0291036
0.0290991
0.0290927
0.0290886
0.0290365
0.0289863
0.0288968
0.0291612
0.0382232
0.0756049
0.151034
0.260015
0.384055
0.520466
0.617775
0.682996
0.714604
0.726344
0.730037
0.729903
0.731933
0.730607
0.732029
0.733392
0.73718
0.740152
0.742178
0.743828
0.745436
0.747287
0.750194
0.753365
0.756013
0.757643
0.758493
0.759938
0.761689
0.7646
0.768881
0.772834
0.776235
0.779495
0.782535
0.784244
0.783489
0.782286
0.785996
0.79943
0.817339
0.828559
0.822923
0.80845
0.803504
0.818398
0.8448
0.860918
0.860413
0.852752
0.85401
0.863835
0.878718
0.888187
0.889697
0.889654
0.89215
0.89966
0.910418
0.918261
0.920413
0.914633
0.907877
0.914091
0.930194
0.940263
0.927237
0.92366
0.930248
0.936423
0.94244
0.954872
0.957232
0.958042
0.959118
0.957098
0.0291408
0.0291403
0.0291422
0.0291457
0.0291483
0.0291494
0.029151
0.0291511
0.0291492
0.0291442
0.0291393
0.0291337
0.0291311
0.0291272
0.0291255
0.0291193
0.0291141
0.0291001
0.0290882
0.0290691
0.0290479
0.029024
0.0290018
0.0289843
0.0289397
0.0289008
0.0288881
0.0288493
0.0386969
0.0786896
0.162912
0.285634
0.431055
0.566704
0.658993
0.708373
0.730469
0.734906
0.734204
0.736121
0.73639
0.737643
0.738712
0.741976
0.745345
0.747939
0.750004
0.751839
0.753295
0.755527
0.758411
0.761658
0.764581
0.767067
0.76881
0.770279
0.773049
0.777231
0.782189
0.78679
0.787471
0.787077
0.789154
0.793494
0.80288
0.817512
0.831558
0.83639
0.829753
0.821382
0.82302
0.840377
0.862846
0.875359
0.871061
0.862584
0.862966
0.874663
0.892846
0.906243
0.912944
0.912856
0.908475
0.906291
0.906864
0.912785
0.925225
0.938539
0.943742
0.933534
0.933093
0.937593
0.937278
0.93258
0.934529
0.940981
0.943503
0.95243
0.962075
0.964115
0.02918
0.0291779
0.0291785
0.02918
0.0291802
0.0291798
0.0291787
0.0291778
0.0291731
0.029167
0.0291591
0.029153
0.0291463
0.029142
0.0291395
0.0291365
0.0291299
0.0291223
0.0291137
0.0291018
0.0290872
0.0290709
0.0290571
0.0290461
0.0290418
0.0290508
0.0290653
0.0291031
0.0290972
0.0290964
0.0290521
0.0299148
0.0469624
0.104372
0.21576
0.365838
0.533515
0.637701
0.708004
0.734596
0.742381
0.742138
0.740938
0.740416
0.742353
0.743164
0.746946
0.750757
0.753577
0.756759
0.758805
0.760803
0.76313
0.765237
0.767652
0.770132
0.77359
0.778098
0.783488
0.788351
0.790934
0.791614
0.792645
0.795529
0.802941
0.815255
0.828753
0.837397
0.841355
0.83907
0.830856
0.825964
0.834989
0.857239
0.881388
0.891511
0.886228
0.871884
0.86813
0.878894
0.899763
0.91581
0.920979
0.919164
0.91761
0.91963
0.921396
0.92698
0.93157
0.943931
0.95056
0.947524
0.943022
0.948013
0.953068
0.947023
0.935806
0.934584
0.936361
0.953914
0.0291951
0.0291874
0.0291841
0.0291816
0.0291801
0.0291762
0.0291715
0.0291674
0.0291632
0.0291585
0.0291554
0.0291549
0.0291543
0.029155
0.0291595
0.0291626
0.0291628
0.0291622
0.0291616
0.0291567
0.0291469
0.0291366
0.0291326
0.029136
0.0291444
0.0291521
0.0291581
0.0291718
0.0291958
0.0292102
0.0292167
0.0292214
0.0291704
0.0291228
0.0290545
0.036421
0.0799642
0.178519
0.332355
0.513154
0.648755
0.712961
0.738663
0.742046
0.744166
0.744966
0.745145
0.747656
0.749863
0.754504
0.75782
0.760489
0.762886
0.76469
0.767373
0.76987
0.772565
0.775811
0.780127
0.786688
0.794006
0.798798
0.800096
0.800821
0.803334
0.809765
0.821292
0.835485
0.844385
0.846204
0.844694
0.840668
0.840198
0.843519
0.857942
0.880741
0.898259
0.901801
0.89037
0.876829
0.874133
0.885214
0.904358
0.920318
0.92898
0.928207
0.927202
0.929776
0.936695
0.940046
0.940182
0.940851
0.945604
0.950911
0.955736
0.960691
0.956327
0.951975
0.939029
0.940895
0.029199
0.029199
0.0291995
0.0291962
0.0291915
0.0291876
0.0291827
0.0291776
0.0291742
0.0291749
0.0291791
0.0291879
0.0291983
0.0292081
0.0292206
0.0292352
0.0292465
0.0292595
0.0292698
0.0292712
0.0292638
0.0292498
0.0292417
0.0292457
0.0292567
0.0292592
0.0292543
0.0292519
0.0292567
0.0292501
0.0292335
0.029209
0.0291825
0.0291452
0.0291455
0.0290986
0.029032
0.0289507
0.0327778
0.0693607
0.170992
0.337394
0.536413
0.662254
0.720848
0.743264
0.747633
0.750429
0.749842
0.751412
0.75366
0.757818
0.761626
0.76425
0.766886
0.76839
0.77122
0.77501
0.779755
0.786431
0.794519
0.801369
0.805357
0.806821
0.8077
0.809897
0.815378
0.825885
0.836468
0.843864
0.848283
0.847045
0.844775
0.847198
0.852315
0.860369
0.875652
0.895708
0.908095
0.910609
0.90326
0.890882
0.882576
0.884059
0.898201
0.918769
0.93526
0.947365
0.950795
0.950332
0.948652
0.947459
0.946111
0.9488
0.95299
0.956067
0.954896
0.962024
0.96152
0.957018
0.029178
0.0291797
0.0291855
0.0291914
0.0291969
0.0292055
0.0292139
0.0292189
0.0292273
0.0292422
0.029258
0.0292772
0.0292996
0.0293177
0.029333
0.029348
0.0293605
0.029375
0.0293858
0.0293847
0.0293776
0.0293563
0.0293303
0.0293185
0.0293141
0.0293066
0.0292896
0.029269
0.0292468
0.0292242
0.029191
0.0291571
0.0291267
0.0290917
0.0290695
0.0290722
0.0290825
0.0291159
0.0291321
0.0291748
0.0291844
0.033609
0.0781879
0.197391
0.373518
0.574517
0.683404
0.736725
0.749343
0.752586
0.752377
0.755282
0.758076
0.760184
0.765074
0.767783
0.77197
0.775834
0.780182
0.785743
0.791876
0.799886
0.807488
0.813332
0.815858
0.815057
0.816104
0.820584
0.829735
0.841979
0.851414
0.855771
0.856425
0.856048
0.856037
0.859402
0.867209
0.876609
0.891881
0.908182
0.917457
0.919036
0.914155
0.905014
0.893661
0.889835
0.895979
0.911363
0.932505
0.94799
0.955696
0.956877
0.956255
0.960105
0.964874
0.96346
0.958189
0.957899
0.954263
0.960938
0.029242
0.0292583
0.0292775
0.0292929
0.0293043
0.0293197
0.0293362
0.0293486
0.029368
0.0293929
0.0294124
0.0294304
0.0294501
0.0294619
0.0294683
0.0294753
0.029481
0.0294866
0.0294843
0.0294677
0.0294584
0.0294266
0.0293835
0.0293514
0.0293278
0.0293126
0.0292958
0.0292688
0.0292374
0.0292113
0.0291802
0.0291545
0.0291367
0.0291243
0.0291317
0.0291726
0.0292369
0.0293329
0.0294392
0.029544
0.0296454
0.0296231
0.0295852
0.0295134
0.0382225
0.0995568
0.235659
0.444514
0.623767
0.714686
0.748587
0.755967
0.758661
0.75993
0.762648
0.763214
0.770162
0.775897
0.782959
0.789283
0.792568
0.797279
0.803137
0.812481
0.8198
0.822732
0.823476
0.822925
0.826148
0.836372
0.848856
0.859095
0.865233
0.866488
0.865537
0.86627
0.869907
0.875352
0.88566
0.896701
0.90839
0.916397
0.921581
0.923148
0.922095
0.919247
0.915883
0.910933
0.908083
0.911652
0.917907
0.928654
0.939939
0.948864
0.957306
0.964043
0.966621
0.967547
0.963063
0.967035
0.0294291
0.0294405
0.029457
0.0294732
0.029489
0.0295084
0.0295219
0.0295306
0.0295452
0.029559
0.0295635
0.0295652
0.029568
0.0295657
0.0295602
0.0295555
0.0295447
0.0295386
0.0295315
0.0294978
0.0294684
0.0294345
0.0293934
0.0293618
0.029336
0.0293216
0.0293181
0.0293195
0.0293142
0.0293092
0.0293134
0.02933
0.029351
0.0293828
0.029433
0.0294967
0.0295716
0.0296553
0.0297372
0.0297926
0.0298047
0.0297891
0.0297679
0.0297677
0.0297118
0.0296592
0.0295853
0.0503335
0.141449
0.315179
0.5332
0.670453
0.743111
0.758007
0.765207
0.761906
0.766888
0.770882
0.782034
0.791808
0.796124
0.799058
0.799959
0.808641
0.817231
0.824747
0.8319
0.832944
0.831943
0.835907
0.842121
0.851748
0.863158
0.870809
0.8732
0.873457
0.873911
0.87538
0.880685
0.887962
0.898376
0.909362
0.918868
0.926618
0.929574
0.931392
0.933863
0.935334
0.936517
0.936686
0.932723
0.925846
0.922621
0.924418
0.931116
0.935985
0.942519
0.946449
0.953104
0.965182
0.0296237
0.0296313
0.0296386
0.0296437
0.0296498
0.0296538
0.0296528
0.029652
0.0296531
0.0296505
0.0296448
0.0296358
0.0296246
0.029615
0.0296047
0.0295935
0.0295764
0.0295643
0.0295431
0.029512
0.0294881
0.0294614
0.0294402
0.0294388
0.0294487
0.0294657
0.0294957
0.0295383
0.0295893
0.0296349
0.0296765
0.0297214
0.0297703
0.0298123
0.0298495
0.0298825
0.0299084
0.0299396
0.0299631
0.0299377
0.0298911
0.0298463
0.0298191
0.0298135
0.0298364
0.0298756
0.0299254
0.0299782
0.0300017
0.0326921
0.0796074
0.210985
0.428611
0.608887
0.715147
0.755252
0.76596
0.769783
0.783346
0.791214
0.796414
0.800455
0.800621
0.810892
0.814244
0.821491
0.833809
0.838318
0.840462
0.845158
0.844739
0.847432
0.85772
0.867305
0.875092
0.882034
0.885643
0.884157
0.883863
0.885885
0.889368
0.89617
0.906549
0.917709
0.92689
0.93333
0.939666
0.944502
0.94519
0.947007
0.948754
0.94945
0.951555
0.954313
0.953841
0.949281
0.946406
0.948559
0.948431
0.961235
0.0297451
0.0297428
0.0297412
0.0297382
0.0297319
0.0297237
0.0297175
0.0297097
0.0296971
0.0296827
0.0296693
0.029658
0.0296484
0.0296384
0.0296298
0.0296218
0.0296168
0.029614
0.0296082
0.0296024
0.0296057
0.0296191
0.0296505
0.0297083
0.0297716
0.0298281
0.0298888
0.0299619
0.0300386
0.030099
0.0301316
0.0301519
0.0301684
0.0301689
0.0301607
0.0301392
0.0301037
0.0300686
0.0300453
0.0299731
0.0298978
0.0298518
0.029871
0.0299579
0.0300901
0.0302016
0.0303182
0.0304494
0.0306324
0.0308384
0.0309001
0.0308556
0.0484739
0.1353
0.311947
0.525023
0.66256
0.752262
0.781516
0.792822
0.80228
0.798996
0.798281
0.815647
0.81486
0.822518
0.837015
0.836685
0.842393
0.852596
0.850924
0.850882
0.858773
0.863179
0.869946
0.882731
0.891532
0.893274
0.89479
0.895405
0.89444
0.8957
0.900966
0.907133
0.914401
0.922181
0.931242
0.939073
0.945339
0.950182
0.953442
0.953864
0.953732
0.957128
0.961168
0.964762
0.965334
0.965216
0.966777
0.979853
0.0298324
0.0298221
0.0298182
0.0298099
0.0297897
0.0297707
0.0297582
0.0297527
0.0297486
0.0297438
0.0297406
0.0297394
0.0297413
0.0297482
0.0297616
0.0297772
0.0297937
0.029813
0.0298362
0.0298702
0.029917
0.0299702
0.0300384
0.0301215
0.0301918
0.0302494
0.0303095
0.030369
0.0304167
0.0304338
0.030424
0.0304069
0.0303895
0.0303538
0.0303098
0.0302669
0.0302015
0.0301371
0.0301092
0.0300755
0.0300422
0.0300813
0.0302273
0.0304522
0.0306666
0.0308328
0.0309758
0.0310872
0.0312245
0.0313018
0.0313543
0.0313789
0.0313158
0.031196
0.0333904
0.0800708
0.211688
0.437328
0.630419
0.737029
0.804487
0.810821
0.800811
0.822677
0.810164
0.823
0.841703
0.834233
0.843286
0.85828
0.853445
0.855233
0.86735
0.865804
0.867462
0.880374
0.888555
0.892406
0.900442
0.90516
0.90298
0.902284
0.905697
0.908479
0.911905
0.917842
0.922598
0.926519
0.932398
0.940494
0.945483
0.949085
0.952578
0.953392
0.954647
0.952606
0.951582
0.94989
0.959602
0.971837
0.0298649
0.0298708
0.0298748
0.0298805
0.0298847
0.0298861
0.0298864
0.0298908
0.0299034
0.0299221
0.0299392
0.029959
0.0299857
0.0300184
0.0300602
0.0301088
0.0301605
0.0302052
0.0302451
0.0302919
0.0303417
0.0303958
0.0304508
0.0304941
0.0305296
0.0305539
0.030567
0.0305769
0.0305786
0.0305626
0.030533
0.0305028
0.0304785
0.0304494
0.0304112
0.0303945
0.0303876
0.0303823
0.0304064
0.0304933
0.0306405
0.0308437
0.0311023
0.0313338
0.0314996
0.0315927
0.0316412
0.0316873
0.0316867
0.0316515
0.0315879
0.0315187
0.0314385
0.0314339
0.0315181
0.0315331
0.0315561
0.0516777
0.150381
0.339876
0.569778
0.705891
0.775719
0.829964
0.809036
0.836772
0.84764
0.825983
0.842164
0.862871
0.853888
0.860774
0.880701
0.871955
0.869571
0.883307
0.886532
0.887498
0.899786
0.908282
0.907876
0.909939
0.914407
0.914736
0.91479
0.919082
0.923072
0.925774
0.929274
0.933721
0.934953
0.935662
0.940069
0.945049
0.951139
0.954533
0.955385
0.951926
0.946631
0.958361
0.0302128
0.0302409
0.0302641
0.0302823
0.0303062
0.0303383
0.0303712
0.0304011
0.0304224
0.0304345
0.0304437
0.0304567
0.0304805
0.0305117
0.0305454
0.0305866
0.0306222
0.0306473
0.0306662
0.030679
0.0306885
0.030705
0.0307164
0.0307206
0.0307189
0.0307035
0.0306807
0.0306573
0.0306381
0.0306309
0.0306358
0.0306552
0.0306771
0.0307099
0.0307645
0.0308335
0.0309293
0.03107
0.0312441
0.0314524
0.0316478
0.0318464
0.0320447
0.0321235
0.0321354
0.0320891
0.0320405
0.0320329
0.031933
0.03181
0.0317163
0.0316736
0.0317153
0.0318903
0.0321743
0.03269
0.0333956
0.0340862
0.0345007
0.0390331
0.0977586
0.256535
0.468139
0.639965
0.743758
0.834001
0.864788
0.832899
0.85291
0.861126
0.843643
0.859886
0.89001
0.878178
0.878185
0.895349
0.890103
0.88299
0.897046
0.907279
0.90661
0.913153
0.921296
0.921782
0.921906
0.92633
0.927713
0.926785
0.93029
0.93601
0.938882
0.93956
0.939352
0.939661
0.939927
0.944873
0.951428
0.953599
0.956138
0.961775
0.030982
0.0310082
0.031027
0.0310381
0.031045
0.0310475
0.0310454
0.0310426
0.0310357
0.0310161
0.0309897
0.0309617
0.0309379
0.0309207
0.0309156
0.0309213
0.0309258
0.0309502
0.0309417
0.0309213
0.0309018
0.0308928
0.0308836
0.0308872
0.0308955
0.030868
0.0308447
0.0308391
0.0308627
0.0309228
0.031021
0.0311694
0.0313209
0.0314574
0.0316137
0.0317779
0.0319483
0.0321146
0.0322734
0.0324226
0.0325085
0.0325659
0.032565
0.0324452
0.0323226
0.0322236
0.0321447
0.0321443
0.0321126
0.032095
0.0321917
0.0324587
0.0330097
0.033728
0.0346438
0.0354601
0.0363048
0.0369305
0.037384
0.0377789
0.0379734
0.03816
0.0644473
0.164507
0.357574
0.556357
0.693469
0.788783
0.867997
0.867308
0.858834
0.873688
0.885476
0.867221
0.87821
0.904918
0.899149
0.891713
0.904227
0.907621
0.90157
0.908917
0.922044
0.924601
0.926667
0.933109
0.93411
0.93268
0.936017
0.940776
0.942662
0.943482
0.944843
0.945635
0.946719
0.945678
0.948198
0.952495
0.957968
0.967367
0.031563
0.0315395
0.0315087
0.0314782
0.0314571
0.0314297
0.0313892
0.0313627
0.0313368
0.0312846
0.031249
0.0312305
0.0311988
0.0311741
0.0311687
0.0311842
0.0312079
0.0312497
0.0312461
0.0312291
0.0312216
0.0312301
0.0312776
0.0313568
0.031415
0.0314539
0.0315025
0.031551
0.0316223
0.0317426
0.0318987
0.0321205
0.0323142
0.0324333
0.0325254
0.0326252
0.0327342
0.0328137
0.0328617
0.0328888
0.0328746
0.0328402
0.0327697
0.0325996
0.0324995
0.0324744
0.032536
0.0327223
0.0330932
0.0337107
0.0344813
0.035424
0.0363111
0.0372464
0.0379589
0.0385057
0.0389173
0.0391843
0.0394576
0.0396535
0.0401612
0.0410947
0.0422222
0.0429535
0.0485581
0.0995518
0.234073
0.438716
0.616177
0.730242
0.828239
0.898084
0.893501
0.885199
0.895398
0.899093
0.886558
0.888202
0.912462
0.916652
0.911991
0.917004
0.92269
0.918583
0.91994
0.931388
0.937094
0.937548
0.942
0.944194
0.944537
0.947218
0.95082
0.953497
0.956181
0.95643
0.956913
0.957475
0.960656
0.971953
0.0312836
0.0312735
0.031267
0.0312662
0.0312759
0.0312949
0.0313241
0.0313529
0.0313694
0.0313964
0.03144
0.031501
0.0315766
0.0316677
0.0317668
0.0318578
0.0319423
0.0320266
0.0321066
0.0321837
0.0322456
0.0322828
0.0323567
0.0324873
0.0325799
0.0326334
0.0327028
0.032765
0.0328196
0.0328777
0.0329438
0.0330347
0.0330886
0.0330871
0.0330645
0.0330764
0.0331262
0.0331779
0.0332428
0.033286
0.0333071
0.0333571
0.0334349
0.0336313
0.0340669
0.0346526
0.0354136
0.0362213
0.0371184
0.037913
0.0386692
0.0392545
0.0397632
0.0401553
0.0404443
0.0407127
0.0409342
0.0414153
0.0420543
0.0429273
0.0439815
0.0451885
0.0463332
0.047232
0.0480781
0.048455
0.0486494
0.064671
0.13822
0.303404
0.501445
0.660319
0.766112
0.856716
0.931108
0.911856
0.909441
0.904118
0.911143
0.899849
0.911252
0.925969
0.932434
0.928887
0.927149
0.930678
0.93096
0.932581
0.941094
0.946288
0.948012
0.95032
0.951855
0.952006
0.95445
0.958428
0.963623
0.967665
0.96855
0.970974
0.0318973
0.0319778
0.0320485
0.0321191
0.0322057
0.0323027
0.0324307
0.0325606
0.0326382
0.0326908
0.0327485
0.0328227
0.0329204
0.0330278
0.0331118
0.0331773
0.0332401
0.0333073
0.0333576
0.0333883
0.0334101
0.0334399
0.0334885
0.0335461
0.0335774
0.0335926
0.0336341
0.0336981
0.0337563
0.0337759
0.0337673
0.0338024
0.0337749
0.0337544
0.0338326
0.0339672
0.0341544
0.034408
0.0347208
0.0351023
0.0355617
0.0361724
0.036941
0.0378404
0.0386699
0.0394439
0.0400964
0.0406865
0.0411666
0.0415102
0.041793
0.0419956
0.0421951
0.0423811
0.0427393
0.0432302
0.0439268
0.0448313
0.0459344
0.0471307
0.048343
0.0492975
0.0499296
0.0504909
0.051043
0.0516004
0.0526857
0.0538201
0.0546785
0.0551253
0.0819292
0.175044
0.352103
0.552381
0.702828
0.791182
0.885329
0.938446
0.940077
0.920125
0.930539
0.927298
0.916028
0.919036
0.932925
0.939923
0.941787
0.943499
0.943813
0.940676
0.940363
0.945897
0.951027
0.954854
0.957271
0.956682
0.957714
0.959777
0.964124
0.971923
0.0336759
0.0337068
0.0337398
0.033771
0.0337969
0.0338229
0.0338548
0.0338879
0.0339208
0.0339551
0.0339929
0.034026
0.0340607
0.0340871
0.0341106
0.0341388
0.0341734
0.0342107
0.0342533
0.0343078
0.0343734
0.0344513
0.0345333
0.0346234
0.0347603
0.0349292
0.0351089
0.0353042
0.0355332
0.035821
0.0361641
0.036568
0.0370066
0.0374939
0.0379995
0.0385349
0.0390628
0.0395993
0.0401084
0.0405593
0.0410081
0.041438
0.0418701
0.0422376
0.04259
0.0429378
0.0432475
0.0435402
0.0437646
0.0440024
0.0442358
0.0446146
0.0450701
0.0457314
0.0466082
0.0476516
0.0487447
0.0497733
0.0506167
0.051432
0.0521223
0.0527354
0.0533601
0.0540997
0.0547964
0.0556862
0.0569139
0.0579789
0.0592623
0.06079
0.061705
0.0624177
0.0642477
0.101774
0.209348
0.401936
0.599112
0.74309
0.825234
0.89491
0.974821
0.961622
0.938688
0.935237
0.933229
0.923994
0.931868
0.950192
0.956627
0.951992
0.948674
0.947398
0.946677
0.950254
0.955108
0.958156
0.961064
0.963277
0.963667
0.96759
0.0359148
0.0359793
0.0360606
0.0361506
0.0362407
0.0363277
0.0364125
0.0365038
0.036612
0.0367293
0.0368453
0.0369619
0.0370878
0.0372227
0.0373687
0.0375304
0.0376986
0.0378777
0.0380809
0.038295
0.0385322
0.0387888
0.0390662
0.0393412
0.0396245
0.0399317
0.040265
0.0405926
0.0409328
0.0412686
0.0416139
0.0419719
0.0423411
0.0426741
0.0429925
0.0433129
0.0436039
0.0438495
0.04406
0.0442615
0.0444375
0.0446008
0.0447896
0.0449967
0.0453107
0.0456759
0.0460904
0.0465195
0.0470545
0.0476741
0.0484212
0.049251
0.0501744
0.0511163
0.0520927
0.052967
0.0537777
0.0543474
0.0548234
0.0552454
0.0556482
0.0562467
0.0570624
0.0580813
0.05929
0.0606499
0.0618123
0.0631288
0.064404
0.0656393
0.0668475
0.0677432
0.0686392
0.0694861
0.0703901
0.0771
0.123739
0.25465
0.440761
0.640774
0.78047
0.850604
0.909129
0.9756
0.979148
0.953992
0.94359
0.946593
0.939216
0.940385
0.95383
0.958598
0.958214
0.957988
0.956332
0.955597
0.958749
0.964555
0.967637
0.969854
0.0408245
0.0408992
0.0409786
0.0410671
0.0411659
0.0412827
0.0413963
0.0414959
0.0415994
0.041717
0.0418368
0.0419606
0.04209
0.0422232
0.0423568
0.0424959
0.0426409
0.0427858
0.042933
0.0430925
0.0432545
0.0434158
0.0435807
0.0437584
0.0439361
0.0441141
0.0442923
0.0444779
0.0446757
0.044896
0.0451354
0.045375
0.0456179
0.0458599
0.0461108
0.0463548
0.0466063
0.0468633
0.0471549
0.0474723
0.0478446
0.048302
0.0488585
0.0495
0.0501552
0.0508876
0.0515901
0.0523584
0.0531397
0.0538696
0.0545587
0.0551624
0.0556726
0.056199
0.0566843
0.057153
0.0576095
0.0580791
0.0585878
0.0592003
0.0599822
0.0609546
0.0621516
0.063532
0.0650547
0.0662143
0.06744
0.0685874
0.0695181
0.070503
0.0715023
0.0724951
0.0739163
0.0756341
0.0776472
0.0791994
0.0797557
0.0802352
0.0891642
0.149254
0.281907
0.497192
0.683678
0.808043
0.886658
0.937102
0.979768
0.984643
0.95911
0.947117
0.947335
0.940261
0.94566
0.959857
0.963983
0.964129
0.96304
0.962721
0.964743
0.969405
0.0451022
0.0451835
0.0452701
0.0453561
0.0454416
0.045539
0.0456472
0.0457512
0.0458551
0.0459645
0.0460773
0.046198
0.0463286
0.046461
0.0465965
0.0467364
0.0468863
0.0470437
0.0472098
0.0473841
0.0475696
0.0477677
0.0479765
0.0482007
0.0484471
0.0487094
0.0489872
0.0492894
0.0496129
0.0499544
0.0503025
0.0506648
0.0510201
0.0513865
0.0517621
0.0521666
0.0525938
0.0530498
0.0535255
0.0540239
0.0544905
0.0549418
0.0554114
0.0558377
0.0562995
0.0568028
0.0573292
0.0578515
0.0583221
0.0587557
0.0591477
0.0594889
0.0598383
0.0602868
0.0607431
0.061298
0.0620224
0.0629292
0.064039
0.0652233
0.0664886
0.0677312
0.0689698
0.0703204
0.0712427
0.0721361
0.0729743
0.0739425
0.0750662
0.0762729
0.0773999
0.0790125
0.0805751
0.0819838
0.0831039
0.0840278
0.0851696
0.0867258
0.0886006
0.0896133
0.0901743
0.108366
0.180928
0.328471
0.540872
0.747826
0.856078
0.913047
0.948911
0.983252
0.981326
0.954861
0.948203
0.948018
0.946879
0.954878
0.96425
0.968998
0.969817
0.968609
0.0508636
0.0509565
0.0510548
0.0511522
0.0512541
0.0513687
0.0514908
0.051614
0.0517375
0.0518703
0.052014
0.0521646
0.0523214
0.0524809
0.0526457
0.0528161
0.0529985
0.0531886
0.0533905
0.0535984
0.0538123
0.0540289
0.0542485
0.0544703
0.0546954
0.0549191
0.05516
0.0554003
0.0556536
0.0559154
0.056198
0.056484
0.0567992
0.0571237
0.0574722
0.0578305
0.0582105
0.0585754
0.0589364
0.0592768
0.059598
0.0599038
0.0602174
0.0605435
0.0609128
0.0613607
0.0618653
0.0623473
0.0628534
0.0634497
0.0641505
0.0649829
0.0657982
0.0667038
0.0676575
0.0687165
0.069788
0.0709108
0.071942