/*--------------------------------*- C++ -*----------------------------------*\
  =========                 |
  \\      /  F ield         | OpenFOAM: The Open Source CFD Toolbox
   \\    /   O peration     | Website:  https://openfoam.org
    \\  /    A nd           | Version:  7
     \\/     M anipulation  |
\*---------------------------------------------------------------------------*/
FoamFile
{
    version     2.0;
    format      ascii;
    class       volScalarField;
    location    "14";
    object      rho;
}
// * * * * * * * * * * * * * * * * * * * * * * * * * * * * * * * * * * * * * //

dimensions      [1 -3 0 0 0 0 0];

internalField   nonuniform List<scalar> 
90000
(
0.358769
0.417787
0.468848
0.509005
0.529644
0.549304
0.563329
0.569437
0.57241
0.572738
0.572719
0.571065
0.569811
0.567943
0.56788
0.568176
0.570762
0.574323
0.578506
0.583945
0.590424
0.598486
0.60789
0.618371
0.630078
0.642682
0.656246
0.67054
0.684834
0.699518
0.713583
0.727244
0.740074
0.7523
0.763297
0.772843
0.782383
0.79162
0.800075
0.80721
0.812545
0.816545
0.819984
0.822844
0.825745
0.825678
0.824353
0.82193
0.817995
0.814423
0.811679
0.81259
0.815091
0.81755
0.822385
0.828896
0.835236
0.839969
0.842499
0.843512
0.843254
0.842012
0.837788
0.833652
0.831328
0.831641
0.834073
0.839583
0.846978
0.853795
0.856763
0.859526
0.86016
0.860936
0.865098
0.872815
0.882442
0.888252
0.893406
0.896763
0.903289
0.911759
0.921698
0.926901
0.93132
0.934592
0.942267
0.950056
0.954975
0.959754
0.964055
0.969835
0.974796
0.980115
0.982013
0.984623
0.988347
0.991008
0.995327
1.00061
0.354541
0.358935
0.363242
0.36838
0.373871
0.379842
0.386514
0.393321
0.399814
0.405324
0.410109
0.41368
0.417146
0.420567
0.424419
0.428879
0.433955
0.439536
0.446111
0.453241
0.461564
0.470571
0.48045
0.490665
0.501514
0.512738
0.524789
0.537294
0.550086
0.563133
0.576207
0.589069
0.601816
0.614237
0.625363
0.636237
0.647192
0.658868
0.670884
0.683912
0.696348
0.708672
0.720321
0.732447
0.744726
0.756783
0.767665
0.7778
0.786835
0.794387
0.801503
0.809116
0.817946
0.826325
0.832414
0.837853
0.8424
0.846641
0.846421
0.845049
0.841985
0.836865
0.831493
0.831713
0.834044
0.838745
0.845546
0.852381
0.857854
0.858372
0.858666
0.8593
0.860257
0.864138
0.872557
0.881817
0.887443
0.891752
0.894308
0.89825
0.906642
0.917093
0.924165
0.928251
0.931409
0.936463
0.945418
0.951667
0.955348
0.960063
0.964912
0.970551
0.975361
0.980738
0.982732
0.985481
0.988353
0.99093
0.995021
1.00011
0.355141
0.357062
0.359458
0.361245
0.363035
0.364428
0.365711
0.366871
0.368492
0.370688
0.373815
0.377171
0.380448
0.383617
0.386567
0.389348
0.391771
0.393861
0.395547
0.39712
0.398904
0.401054
0.403963
0.407576
0.412143
0.417428
0.423715
0.431046
0.439689
0.449397
0.459969
0.470783
0.481891
0.493273
0.504515
0.516396
0.528893
0.542167
0.555936
0.571038
0.587144
0.604563
0.622906
0.642203
0.662384
0.683204
0.70415
0.724536
0.744073
0.761928
0.777817
0.791575
0.803099
0.813505
0.819387
0.823572
0.826245
0.82596
0.824158
0.824641
0.824621
0.825192
0.828005
0.835727
0.845304
0.85243
0.856671
0.859095
0.860652
0.860172
0.859764
0.860454
0.865194
0.873828
0.881601
0.888851
0.89042
0.893161
0.895447
0.902489
0.912543
0.922122
0.924881
0.928481
0.931229
0.939231
0.947897
0.952547
0.955696
0.960738
0.965517
0.970797
0.975466
0.980755
0.983162
0.985873
0.98794
0.991043
0.996592
1.00219
0.356431
0.356298
0.358396
0.359831
0.360311
0.360477
0.361433
0.363037
0.364956
0.366695
0.367709
0.368305
0.369101
0.369988
0.371121
0.372394
0.373908
0.375666
0.377477
0.379374
0.381307
0.383255
0.385154
0.387052
0.389035
0.391007
0.392963
0.39452
0.396013
0.397808
0.400226
0.403437
0.407582
0.412516
0.418338
0.425396
0.434194
0.444335
0.455001
0.466141
0.478018
0.490393
0.504444
0.519426
0.534643
0.550822
0.568099
0.586852
0.606537
0.627066
0.647593
0.667625
0.686308
0.705043
0.722421
0.738485
0.753488
0.768482
0.781854
0.796648
0.809718
0.822907
0.83457
0.844648
0.852141
0.857877
0.860902
0.860629
0.859415
0.856776
0.858747
0.866123
0.877483
0.886314
0.890363
0.891773
0.892177
0.894308
0.899366
0.909076
0.919819
0.924272
0.92502
0.927745
0.934595
0.943178
0.948566
0.952692
0.955925
0.960953
0.965026
0.970393
0.975371
0.97995
0.983184
0.985847
0.987551
0.991416
0.997739
1.00364
0.310824
0.320467
0.331077
0.346361
0.356582
0.361624
0.363142
0.364278
0.365682
0.367202
0.367621
0.368126
0.369301
0.370445
0.371648
0.372601
0.373139
0.373484
0.373673
0.373883
0.374109
0.374428
0.374962
0.375502
0.376195
0.377055
0.378307
0.379973
0.381763
0.383662
0.385558
0.387419
0.389377
0.391364
0.393409
0.395155
0.396693
0.398719
0.401932
0.406348
0.411946
0.418432
0.426032
0.436056
0.447393
0.459651
0.47262
0.486324
0.502515
0.519497
0.536735
0.554938
0.575114
0.597703
0.622097
0.647638
0.673237
0.699388
0.724707
0.750168
0.771886
0.793314
0.807266
0.819162
0.824675
0.830652
0.834599
0.839807
0.845047
0.851537
0.864591
0.876993
0.886198
0.890982
0.893217
0.89303
0.893269
0.897226
0.907752
0.917259
0.92431
0.924659
0.925434
0.930558
0.93956
0.945989
0.948375
0.951824
0.958237
0.963612
0.966078
0.970082
0.974939
0.979319
0.983025
0.985315
0.986943
0.991562
0.998277
1.0044
0.0928481
0.105998
0.126612
0.178758
0.264787
0.292744
0.315281
0.333202
0.344992
0.358172
0.363797
0.365836
0.367118
0.368224
0.36967
0.369738
0.369713
0.370565
0.371784
0.373197
0.37431
0.375041
0.375729
0.376271
0.376839
0.377302
0.377577
0.377708
0.377887
0.378071
0.378512
0.379049
0.379643
0.380347
0.381335
0.382808
0.384807
0.386734
0.388724
0.390909
0.39338
0.39614
0.399131
0.401126
0.403992
0.408236
0.413805
0.42031
0.428339
0.439207
0.451349
0.464191
0.478034
0.494441
0.511878
0.53021
0.550477
0.573376
0.598326
0.624396
0.651141
0.677511
0.703274
0.726279
0.748038
0.768061
0.789263
0.809522
0.830107
0.851661
0.869732
0.880433
0.885825
0.887497
0.887033
0.887727
0.892154
0.902479
0.91533
0.921109
0.92536
0.924086
0.926993
0.935388
0.943368
0.946813
0.948448
0.953703
0.960885
0.964576
0.966267
0.97002
0.974728
0.978923
0.982575
0.984137
0.985772
0.990638
0.997368
1.00419
0.0755739
0.0755907
0.0756195
0.0756423
0.0777059
0.084795
0.0990766
0.122488
0.153896
0.235025
0.279677
0.306021
0.328534
0.343345
0.356483
0.365831
0.368523
0.369596
0.370634
0.372297
0.372925
0.372866
0.373513
0.37441
0.375223
0.375812
0.376354
0.377077
0.377982
0.378728
0.379335
0.379819
0.38033
0.380827
0.381208
0.381394
0.381629
0.382032
0.382855
0.383553
0.384383
0.385428
0.387229
0.390025
0.392275
0.394715
0.397458
0.400434
0.403839
0.406278
0.409513
0.414545
0.421087
0.429333
0.441126
0.454145
0.468722
0.484895
0.504248
0.523703
0.545435
0.570563
0.597704
0.625177
0.652832
0.681061
0.711444
0.740087
0.768626
0.793668
0.812167
0.8283
0.841367
0.853389
0.866028
0.879071
0.893107
0.907288
0.917547
0.919679
0.91823
0.920472
0.930429
0.940348
0.944383
0.94631
0.948403
0.955959
0.962348
0.964658
0.966197
0.971154
0.975246
0.97878
0.98224
0.98302
0.984207
0.988218
0.993441
0.999963
0.076144
0.0762001
0.0762612
0.0763298
0.0764014
0.0764316
0.076459
0.0765002
0.076535
0.077522
0.0840631
0.0986075
0.123112
0.156678
0.21013
0.275971
0.308454
0.332747
0.34873
0.360574
0.369769
0.372779
0.373262
0.374401
0.375646
0.375912
0.376277
0.37734
0.378134
0.37857
0.379028
0.379524
0.380044
0.380577
0.381085
0.381592
0.3825
0.383261
0.384009
0.384586
0.38518
0.38572
0.386264
0.386733
0.387808
0.388813
0.389898
0.391101
0.392964
0.395784
0.3982
0.400931
0.404144
0.407796
0.410746
0.41474
0.421119
0.429256
0.439361
0.451382
0.464251
0.480014
0.500115
0.519844
0.540576
0.563305
0.589959
0.620926
0.654171
0.688329
0.719919
0.750985
0.780273
0.808717
0.835303
0.858219
0.874356
0.884497
0.886226
0.894445
0.905968
0.920269
0.934379
0.942019
0.938785
0.939967
0.947147
0.95835
0.962144
0.963241
0.965935
0.972172
0.975218
0.978336
0.982067
0.981907
0.982348
0.985643
0.989819
0.993735
0.0769749
0.0770437
0.0771183
0.0772008
0.0772868
0.0773786
0.0774801
0.0775858
0.0777049
0.0778105
0.0778938
0.0779655
0.0780589
0.0781278
0.0786641
0.0862051
0.103936
0.132402
0.170562
0.218702
0.285602
0.324225
0.34697
0.362226
0.37158
0.378022
0.379164
0.379443
0.380356
0.380558
0.380365
0.381185
0.382068
0.382827
0.383561
0.384242
0.384652
0.384708
0.384795
0.384986
0.385406
0.386009
0.386777
0.387966
0.389047
0.389922
0.390823
0.391685
0.39252
0.393003
0.39443
0.395775
0.397306
0.399553
0.402768
0.40551
0.408789
0.412683
0.417679
0.422938
0.429244
0.434711
0.442314
0.454277
0.471515
0.490889
0.508709
0.52717
0.550237
0.579681
0.612043
0.643784
0.672929
0.700851
0.730425
0.758789
0.786958
0.811603
0.837252
0.864488
0.891348
0.914708
0.921024
0.918963
0.922226
0.932975
0.948646
0.958935
0.95562
0.958893
0.9658
0.972458
0.973127
0.977455
0.982024
0.981322
0.981188
0.984173
0.987988
0.989755
0.0779618
0.0780391
0.0781224
0.0782104
0.0783026
0.0784
0.0785017
0.078607
0.0787149
0.0788264
0.0789377
0.0790526
0.0791731
0.0792988
0.0794506
0.0795237
0.0795752
0.0796489
0.0796955
0.0812294
0.0924684
0.117891
0.156101
0.204362
0.257498
0.317877
0.350442
0.370162
0.380014
0.385678
0.386886
0.386725
0.387193
0.386704
0.386241
0.386526
0.387077
0.387856
0.388899
0.389606
0.39011
0.390377
0.390593
0.390682
0.390832
0.391219
0.391808
0.392623
0.393562
0.394866
0.396126
0.397261
0.398368
0.399512
0.400599
0.402268
0.403808
0.405312
0.408078
0.411374
0.4159
0.4207
0.424379
0.424025
0.428059
0.439531
0.456811
0.471646
0.482705
0.495752
0.514572
0.539611
0.566921
0.594018
0.621927
0.652829
0.686383
0.722553
0.759071
0.792243
0.819428
0.838552
0.857441
0.878123
0.900575
0.923976
0.937863
0.938112
0.943628
0.956021
0.966072
0.965073
0.968394
0.977556
0.980577
0.981289
0.982103
0.986591
0.991586
0.989038
0.0789759
0.0790527
0.0791357
0.0792233
0.0793154
0.0794096
0.0795084
0.0796075
0.0797071
0.0798111
0.0799134
0.0800157
0.0801175
0.0802288
0.0803437
0.0804605
0.0805772
0.0806938
0.0807923
0.0809153
0.080946
0.0809904
0.0810289
0.0813627
0.0877101
0.110086
0.150237
0.205594
0.264573
0.322613
0.360112
0.381096
0.390832
0.394378
0.394786
0.394003
0.394334
0.39355
0.393922
0.394014
0.394988
0.395808
0.396204
0.396348
0.396389
0.396495
0.396913
0.397458
0.397925
0.398138
0.398268
0.398739
0.399479
0.400563
0.402237
0.403817
0.405128
0.406223
0.40701
0.408297
0.410526
0.413747
0.417882
0.422197
0.422388
0.42315
0.428978
0.440839
0.454271
0.46422
0.468465
0.47501
0.488636
0.509852
0.534044
0.556366
0.579053
0.60541
0.637347
0.672569
0.708372
0.743246
0.776849
0.808037
0.836379
0.857767
0.877436
0.900755
0.925528
0.944158
0.943717
0.94964
0.963411
0.974813
0.973262
0.978663
0.981981
0.987617
0.994621
0.993438
0.0799628
0.0800377
0.0801169
0.0801987
0.0802828
0.0803648
0.0804527
0.0805371
0.0806224
0.0807107
0.080801
0.0808888
0.0809808
0.0810694
0.0811684
0.0812608
0.0813601
0.0814464
0.0815274
0.0815907
0.0816623
0.0817452
0.0818348
0.0819476
0.0820033
0.0820597
0.0821588
0.0822464
0.0891177
0.112999
0.158702
0.22196
0.289743
0.345306
0.378997
0.396309
0.403481
0.403883
0.402439
0.402415
0.402332
0.402405
0.402374
0.402801
0.403593
0.404133
0.404203
0.404052
0.403664
0.403664
0.404075
0.404711
0.405353
0.405736
0.405828
0.405919
0.406515
0.407491
0.408583
0.410067
0.411785
0.414171
0.41754
0.421233
0.424336
0.424888
0.424722
0.426163
0.433288
0.444377
0.453941
0.456707
0.455898
0.46048
0.473592
0.493413
0.515471
0.535577
0.554932
0.57652
0.601862
0.630632
0.660528
0.693025
0.725393
0.758997
0.795872
0.830449
0.85605
0.873234
0.895058
0.919533
0.939535
0.945765
0.955405
0.966193
0.9715
0.983496
0.99452
0.994269
0.0809215
0.0809851
0.0810503
0.08112
0.0811886
0.0812552
0.0813256
0.0813953
0.0814614
0.081538
0.0816126
0.0816897
0.0817673
0.0818432
0.0819229
0.0820054
0.0820874
0.0821694
0.0822425
0.0823106
0.0823876
0.0824694
0.0825632
0.082665
0.0827696
0.0828927
0.08305
0.0832494
0.083353
0.0834922
0.0835934
0.0844575
0.0959699
0.129255
0.187855
0.262953
0.336654
0.377707
0.400768
0.410928
0.413151
0.412127
0.41046
0.409312
0.409769
0.409889
0.410736
0.411471
0.411533
0.411661
0.411572
0.411562
0.411713
0.411669
0.41172
0.411929
0.412571
0.413411
0.41418
0.414627
0.414864
0.41581
0.418091
0.42182
0.42555
0.427035
0.427388
0.427656
0.429374
0.432926
0.441342
0.450079
0.45546
0.454889
0.453027
0.45551
0.466079
0.483794
0.503365
0.521
0.534627
0.547203
0.563979
0.588105
0.619264
0.656371
0.692407
0.725227
0.752244
0.784307
0.816324
0.843948
0.868523
0.89593
0.918385
0.930532
0.938631
0.954502
0.96995
0.986071
0.0817321
0.0817849
0.08184
0.0818948
0.0819505
0.0820078
0.0820716
0.0821323
0.0821918
0.082259
0.0823295
0.082399
0.0824684
0.082538
0.0826113
0.0826866
0.0827623
0.0828433
0.0829247
0.0830048
0.0830947
0.0831867
0.0832868
0.0833988
0.0835114
0.0836355
0.0837932
0.083947
0.0840817
0.0842268
0.0843795
0.08452
0.0845658
0.0846016
0.0846289
0.089839
0.115973
0.17033
0.248788
0.331901
0.387239
0.40907
0.41691
0.416721
0.416752
0.417157
0.416772
0.417041
0.416964
0.4178
0.418443
0.418913
0.41918
0.418984
0.419068
0.419139
0.41957
0.420248
0.420918
0.421482
0.421774
0.422222
0.423227
0.425149
0.427737
0.429408
0.4306
0.430401
0.430425
0.432783
0.435979
0.441632
0.449392
0.454953
0.457503
0.456956
0.456012
0.457381
0.465191
0.478819
0.494992
0.510193
0.520922
0.53092
0.543152
0.562515
0.588691
0.619413
0.651829
0.681766
0.712074
0.744609
0.782559
0.814925
0.838915
0.861643
0.88674
0.916273
0.930567
0.95086
0.0824703
0.0825147
0.0825605
0.0826076
0.0826565
0.0827118
0.0827746
0.0828357
0.0828946
0.0829659
0.0830428
0.0831157
0.0831876
0.0832627
0.083341
0.0834186
0.0834955
0.0835792
0.0836662
0.0837586
0.0838549
0.0839562
0.0840698
0.0841885
0.0842978
0.0844114
0.0845431
0.0846533
0.0847493
0.0848464
0.0849455
0.0850227
0.0850832
0.0851342
0.0851969
0.0852299
0.0852915
0.0853643
0.088315
0.111203
0.167994
0.253802
0.344441
0.392867
0.41441
0.423864
0.424335
0.424156
0.422607
0.422676
0.423325
0.424615
0.425745
0.426023
0.426079
0.425766
0.426243
0.427373
0.42894
0.430518
0.431106
0.4307
0.429972
0.43017
0.432443
0.435392
0.436857
0.436721
0.436031
0.436653
0.438409
0.441934
0.447354
0.453079
0.456897
0.460072
0.461139
0.460074
0.460128
0.46199
0.468032
0.478587
0.491035
0.503707
0.514898
0.52381
0.532113
0.544462
0.562334
0.586921
0.616487
0.649133
0.681113
0.711054
0.739473
0.767682
0.799982
0.843754
0.874612
0.907134
0.0831256
0.0831677
0.0832203
0.0832817
0.083343
0.0834085
0.0834811
0.0835526
0.0836241
0.0837124
0.0838071
0.0838901
0.0839757
0.0840717
0.0841635
0.0842427
0.0843122
0.0843788
0.0844527
0.0845378
0.0846276
0.0847237
0.0848276
0.0849245
0.0850062
0.0850931
0.0851689
0.0852284
0.085284
0.0853428
0.0853919
0.0854509
0.0855004
0.0855446
0.0855941
0.0856704
0.0858029
0.0860605
0.0862685
0.0864781
0.0866425
0.090058
0.117678
0.183735
0.273374
0.364326
0.407209
0.426408
0.428429
0.4289
0.428928
0.429807
0.430737
0.430805
0.431777
0.432107
0.433012
0.433985
0.435487
0.437567
0.439094
0.439879
0.439196
0.438414
0.438822
0.440778
0.443367
0.444765
0.444536
0.443779
0.443721
0.444879
0.447836
0.452155
0.457044
0.461068
0.464024
0.465559
0.466458
0.467022
0.467373
0.46805
0.471112
0.479005
0.490651
0.502725
0.512514
0.518113
0.520655
0.528383
0.543536
0.565938
0.59211
0.618361
0.644018
0.669777
0.702889
0.746976
0.779731
0.827997
0.0839001
0.083959
0.0840307
0.0841193
0.0842074
0.0842976
0.0843828
0.084456
0.0845332
0.0846269
0.0847193
0.0847991
0.084891
0.0849935
0.085077
0.0851457
0.0851915
0.0852163
0.0852481
0.0852934
0.0853586
0.0854405
0.0855208
0.08558
0.0856294
0.0856741
0.0857097
0.0857415
0.0857845
0.0858336
0.0858821
0.0859369
0.0860025
0.0860871
0.0862147
0.0863874
0.0866251
0.0869748
0.0873606
0.0877522
0.0881176
0.088236
0.088358
0.0884731
0.0948878
0.131948
0.207748
0.312175
0.386452
0.421398
0.435078
0.437134
0.436937
0.436501
0.436726
0.436517
0.438533
0.440011
0.441988
0.444341
0.445759
0.447265
0.44747
0.447535
0.4472
0.447394
0.449705
0.452411
0.453939
0.454358
0.453486
0.45215
0.452246
0.453693
0.456631
0.460417
0.464551
0.46788
0.469864
0.470891
0.471164
0.472104
0.47347
0.475115
0.476908
0.48283
0.4919
0.502018
0.509425
0.513644
0.516841
0.521947
0.532863
0.547517
0.564773
0.586724
0.617091
0.652972
0.679807
0.727565
0.0849461
0.0850085
0.085084
0.0851631
0.085239
0.085312
0.0853732
0.0854323
0.0855044
0.0855758
0.085634
0.0856963
0.085776
0.085845
0.0858995
0.0859578
0.0859676
0.085947
0.0859457
0.0859586
0.0859958
0.0860747
0.08612
0.0861646
0.0862112
0.0862507
0.0862854
0.0863296
0.086391
0.0864802
0.0865893
0.0867089
0.0868413
0.0870135
0.087235
0.0874987
0.0878078
0.08816
0.0885173
0.0888316
0.0890226
0.0891656
0.0893231
0.0895516
0.0896803
0.0897904
0.0898915
0.10432
0.157943
0.251606
0.355189
0.411157
0.438502
0.443806
0.444066
0.44244
0.444111
0.444927
0.447828
0.450937
0.452688
0.454075
0.454251
0.455944
0.456439
0.456265
0.457645
0.458959
0.461162
0.463942
0.464737
0.463706
0.462757
0.461964
0.462069
0.464434
0.467553
0.470335
0.472458
0.474499
0.475959
0.476476
0.477061
0.477582
0.478806
0.481075
0.483766
0.488023
0.495505
0.502763
0.508501
0.51359
0.517804
0.523048
0.529183
0.537458
0.554376
0.577166
0.595803
0.633189
0.0859623
0.086015
0.0860666
0.0861147
0.0861672
0.0862128
0.0862543
0.0863087
0.086365
0.0864116
0.0864606
0.0865038
0.08654
0.0865915
0.0866237
0.0866473
0.0866407
0.0866066
0.0866105
0.0866339
0.0866831
0.086776
0.0868545
0.0869175
0.0870011
0.0871016
0.0872162
0.0873492
0.0874964
0.0876606
0.0878494
0.0880421
0.0882367
0.0884337
0.0886357
0.0888491
0.0890775
0.0893171
0.0895458
0.0897085
0.08984
0.0899568
0.0901025
0.0902941
0.0905183
0.090775
0.0910763
0.0914025
0.0916938
0.0941571
0.124778
0.200868
0.311779
0.393754
0.433403
0.450044
0.452841
0.45267
0.456229
0.458482
0.459789
0.461104
0.460953
0.464704
0.465237
0.465802
0.467716
0.467101
0.467991
0.471385
0.473043
0.473936
0.474928
0.473924
0.472277
0.472494
0.473576
0.475107
0.477505
0.479761
0.481317
0.482452
0.483864
0.484403
0.483615
0.483706
0.48468
0.486374
0.488503
0.492396
0.497938
0.506067
0.512174
0.5169
0.521338
0.525829
0.533394
0.54551
0.554785
0.57948
0.0868526
0.0868717
0.0868969
0.0869259
0.0869553
0.0869905
0.0870283
0.0870666
0.0871066
0.0871398
0.0871979
0.0872336
0.0872509
0.0872719
0.0873155
0.0873414
0.0873434
0.087359
0.0874088
0.087506
0.0876327
0.0877746
0.0879406
0.0881128
0.088303
0.0885253
0.0887547
0.0889686
0.089151
0.0893175
0.0894772
0.0896403
0.0897917
0.0899044
0.0900107
0.0900943
0.0901738
0.0902744
0.0903503
0.0903951
0.0904778
0.0906134
0.0908526
0.0911779
0.0915744
0.0919745
0.092457
0.0930679
0.0938039
0.094592
0.0950251
0.0952595
0.107877
0.161311
0.260085
0.364603
0.423404
0.45752
0.466639
0.469019
0.471769
0.469651
0.467748
0.474085
0.474006
0.476382
0.480227
0.477479
0.477124
0.480217
0.480087
0.482131
0.486132
0.486499
0.485418
0.485481
0.484354
0.482766
0.483464
0.485104
0.486928
0.489223
0.491562
0.492716
0.492523
0.492308
0.491796
0.490907
0.491025
0.49266
0.495424
0.498321
0.5026
0.506701
0.512494
0.517533
0.523258
0.528358
0.536791
0.551655
0.0876722
0.0876783
0.0876925
0.0877142
0.0877489
0.0877924
0.0878348
0.08788
0.0879307
0.0879741
0.0880402
0.0881076
0.0881384
0.0881668
0.0882125
0.088275
0.0883544
0.0884544
0.0885819
0.0887662
0.0889994
0.0892296
0.0894451
0.0896512
0.0898824
0.0901481
0.0903893
0.0905721
0.0906978
0.090783
0.0908604
0.090958
0.0910248
0.0910831
0.0911325
0.091121
0.0910972
0.0911252
0.091124
0.0911671
0.0913185
0.0916623
0.0921783
0.0928128
0.0934122
0.0939837
0.0945799
0.0951858
0.0958362
0.096319
0.0967699
0.0971559
0.0974342
0.0975593
0.0993641
0.130118
0.209654
0.32834
0.416392
0.45856
0.487936
0.486988
0.479869
0.487992
0.482071
0.487169
0.493483
0.48917
0.490399
0.494032
0.49026
0.491566
0.497169
0.497383
0.497762
0.500565
0.499787
0.496666
0.495894
0.495349
0.494362
0.49545
0.498113
0.500678
0.502258
0.502796
0.501784
0.500112
0.499605
0.500096
0.500819
0.501987
0.504435
0.506974
0.508062
0.510086
0.513207
0.51602
0.52317
0.53289
0.08843
0.0884557
0.0885047
0.0885754
0.0886612
0.0887361
0.0888056
0.0888889
0.08898
0.0890655
0.0891507
0.0892495
0.0893579
0.0894683
0.0895854
0.0897048
0.0898439
0.0900077
0.0901786
0.0903748
0.0905947
0.0907976
0.0909674
0.0911261
0.0912876
0.0914491
0.0915772
0.0916774
0.0917585
0.0918155
0.0918667
0.0919283
0.0919725
0.0920119
0.0921067
0.0921439
0.0921415
0.0921798
0.0923631
0.0927405
0.09328
0.0939479
0.0947199
0.0954218
0.095952
0.0964007
0.0968157
0.097234
0.0975651
0.0978096
0.0979866
0.0981881
0.0984017
0.0986658
0.0989442
0.0990224
0.0993194
0.115124
0.178688
0.28838
0.404018
0.461123
0.488034
0.50877
0.496841
0.508049
0.510723
0.500333
0.505984
0.512765
0.506526
0.507788
0.514001
0.510223
0.510013
0.515565
0.515784
0.513077
0.513883
0.51294
0.50941
0.508547
0.510335
0.511025
0.512022
0.513439
0.513525
0.512356
0.51083
0.50979
0.508425
0.508137
0.510191
0.512676
0.514075
0.514453
0.516058
0.51808
0.520029
0.529992
0.0899136
0.0900224
0.0901432
0.0902502
0.0903479
0.0904523
0.090546
0.090625
0.090697
0.0907699
0.090866
0.0909922
0.0911304
0.0912515
0.0913532
0.0914486
0.0915409
0.091625
0.0917132
0.0918218
0.0919431
0.0920556
0.0921595
0.0922572
0.0923225
0.0923634
0.092414
0.0924943
0.092598
0.0927168
0.0928199
0.092914
0.0930342
0.0932019
0.0934306
0.0937123
0.0940352
0.094417
0.0949368
0.0955992
0.0962888
0.0969649
0.0975341
0.0979243
0.0981648
0.0983482
0.0986216
0.0988179
0.0988963
0.0989231
0.0989554
0.099118
0.0994548
0.100062
0.101131
0.102822
0.105104
0.106956
0.108094
0.112719
0.153796
0.252685
0.368292
0.453123
0.49604
0.533967
0.54098
0.524027
0.533632
0.535325
0.525361
0.529823
0.539345
0.531851
0.531125
0.537319
0.534739
0.530227
0.534251
0.534932
0.530797
0.52965
0.530572
0.528953
0.528264
0.529716
0.529795
0.528577
0.52804
0.527365
0.525596
0.523458
0.522194
0.521829
0.52203
0.522765
0.524403
0.525824
0.526509
0.5324
0.0923669
0.0924402
0.0925093
0.0925657
0.0926115
0.092659
0.0926893
0.0926737
0.0926426
0.0926382
0.0926528
0.0927001
0.092788
0.0928594
0.0929086
0.0929588
0.0929653
0.0929719
0.0929938
0.0930504
0.0931228
0.0931919
0.0932884
0.0932876
0.0932609
0.0932768
0.0933669
0.0935368
0.0937662
0.094055
0.0943469
0.0946598
0.0950601
0.0955868
0.0961155
0.0966059
0.0970751
0.0975845
0.0981382
0.0986551
0.0990217
0.0993205
0.0995217
0.0996137
0.0996007
0.0996376
0.0998182
0.0999925
0.100032
0.100184
0.100578
0.101414
0.103044
0.105261
0.107913
0.110234
0.112555
0.114244
0.115547
0.116974
0.117635
0.118262
0.139092
0.208891
0.331763
0.441478
0.503705
0.541744
0.577113
0.571634
0.564066
0.568505
0.570627
0.557706
0.560922
0.569806
0.564636
0.559082
0.563389
0.562629
0.556636
0.556653
0.55922
0.557244
0.554894
0.554738
0.552869
0.550965
0.552168
0.552991
0.551914
0.549815
0.547083
0.544079
0.542252
0.540778
0.540881
0.54174
0.54231
0.542632
0.0943266
0.0943127
0.0942981
0.0942657
0.0941895
0.0941582
0.0941594
0.094138
0.0940354
0.0940054
0.0940158
0.0940413
0.0941416
0.0942191
0.0942259
0.0942633
0.0943647
0.0943812
0.0944163
0.0945154
0.0947275
0.0948645
0.0949396
0.095032
0.0952006
0.0953982
0.0955798
0.0957954
0.0961585
0.0966956
0.0972047
0.097646
0.0981021
0.0986146
0.0991096
0.0994878
0.0998055
0.100129
0.100453
0.100703
0.100829
0.100943
0.100996
0.100874
0.100835
0.100946
0.101305
0.102138
0.103314
0.104939
0.106917
0.109341
0.111737
0.114186
0.116214
0.117773
0.119128
0.120043
0.120973
0.121848
0.123475
0.126125
0.128811
0.130648
0.137068
0.17885
0.275638
0.402903
0.50195
0.554549
0.597914
0.62762
0.6192
0.607339
0.611116
0.61023
0.598385
0.595907
0.60505
0.603587
0.597854
0.597226
0.596826
0.592845
0.59021
0.591031
0.588744
0.584712
0.584021
0.583546
0.582398
0.581892
0.58093
0.578853
0.576629
0.573275
0.570391
0.567139
0.566422
0.56612
0.0945704
0.0945834
0.0946052
0.094601
0.0945912
0.0946029
0.0946572
0.0947754
0.0949396
0.0951485
0.0953741
0.0955801
0.0957904
0.096025
0.0962491
0.0964582
0.0966895
0.0969621
0.0972801
0.097574
0.0978132
0.0980713
0.0983413
0.0985476
0.0987675
0.0990191
0.0992115
0.0994216
0.0997359
0.100161
0.100496
0.100702
0.100892
0.10108
0.101298
0.101527
0.1018
0.102053
0.102323
0.102523
0.102709
0.103011
0.103471
0.10422
0.105334
0.106791
0.108665
0.110786
0.113058
0.115211
0.117151
0.118811
0.120275
0.121511
0.122565
0.123519
0.12446
0.126026
0.127854
0.130057
0.132768
0.135847
0.138922
0.141475
0.144033
0.145075
0.145752
0.161934
0.222706
0.345362
0.472777
0.565111
0.615032
0.652716
0.684381
0.671837
0.660357
0.655779
0.656895
0.645541
0.6464
0.649375
0.648946
0.645038
0.641629
0.639503
0.634677
0.629768
0.629238
0.628255
0.626354
0.624635
0.622079
0.618873
0.617131
0.615678
0.614165
0.611128
0.606811
0.599604
0.0968331
0.0970757
0.0973537
0.0975954
0.0978309
0.0980798
0.0983054
0.0985361
0.0987882
0.0990255
0.0992433
0.0995047
0.0998204
0.100099
0.100309
0.100506
0.100751
0.100979
0.101136
0.101305
0.101488
0.101657
0.101809
0.101947
0.102111
0.102333
0.102536
0.102729
0.102892
0.103074
0.103206
0.103339
0.103656
0.103884
0.10412
0.10451
0.105155
0.106008
0.106961
0.107951
0.10912
0.110654
0.112607
0.11465
0.116612
0.118442
0.120195
0.121752
0.123075
0.124057
0.124907
0.125705
0.126546
0.127402
0.12858
0.130119
0.132213
0.134694
0.137488
0.140502
0.143444
0.145815
0.147844
0.14965
0.15125
0.152937
0.155827
0.15879
0.160644
0.161938
0.187962
0.268842
0.41028
0.54588
0.628164
0.673417
0.714584
0.738433
0.733726
0.716261
0.717483
0.711061
0.699843
0.697807
0.702106
0.702355
0.698034
0.693369
0.68875
0.683295
0.679987
0.679496
0.677599
0.674894
0.672095
0.668152
0.665144
0.66187
0.659038
0.652061
0.101978
0.102078
0.102189
0.102315
0.10245
0.102587
0.102726
0.102867
0.103012
0.10316
0.103305
0.103425
0.103534
0.103642
0.103769
0.103915
0.104072
0.104225
0.104404
0.104609
0.104811
0.105065
0.105364
0.105737
0.106172
0.106643
0.107167
0.107782
0.108484
0.109288
0.110148
0.111103
0.112156
0.113322
0.114505
0.115772
0.117038
0.118285
0.11941
0.120559
0.121763
0.122991
0.124113
0.125171
0.126218
0.127269
0.128214
0.129044
0.129775
0.130503
0.131369
0.132468
0.133879
0.135802
0.138145
0.140853
0.143679
0.146282
0.148583
0.150869
0.152714
0.154441
0.156183
0.158144
0.160128
0.162716
0.165945
0.168693
0.171873
0.175663
0.178098
0.180146
0.183223
0.222121
0.316399
0.472149
0.617196
0.693855
0.745276
0.779121
0.811482
0.795173
0.77837
0.774967
0.769315
0.758748
0.758011
0.763375
0.76175
0.754881
0.749772
0.746133
0.741538
0.738638
0.736825
0.734235
0.73163
0.728323
0.723957
0.716021
0.107856
0.108055
0.10827
0.108502
0.108759
0.109039
0.10932
0.109599
0.1099
0.110213
0.110535
0.110883
0.111247
0.111628
0.11204
0.112469
0.11294
0.113439
0.11395
0.114508
0.115119
0.115731
0.116392
0.117103
0.117855
0.118592
0.119377
0.120206
0.121043
0.121864
0.122766
0.123681
0.124556
0.125393
0.126254
0.127082
0.127842
0.12853
0.129165
0.129775
0.130327
0.130898
0.131538
0.13233
0.133234
0.134242
0.135313
0.136569
0.138036
0.139742
0.141647
0.143753
0.146158
0.148585
0.151059
0.153406
0.155494
0.157241
0.158751
0.160086
0.161523
0.163288
0.165337
0.167907
0.171002
0.174425
0.177402
0.180641
0.183929
0.187019
0.18993
0.192298
0.195089
0.197414
0.199598
0.208027
0.259513
0.374236
0.53449
0.689477
0.77087
0.802445
0.833799
0.875923
0.864548
0.843021
0.834374
0.831126
0.821102
0.816803
0.821833
0.821866
0.81809
0.813192
0.807704
0.802773
0.800381
0.799339
0.796671
0.788774
0.119714
0.119947
0.1202
0.120455
0.120711
0.120977
0.121253
0.121541
0.121843
0.122162
0.122479
0.122809
0.123154
0.12351
0.123877
0.124268
0.124672
0.125082
0.125496
0.125922
0.126359
0.126819
0.127283
0.127749
0.128225
0.128724
0.129231
0.129751
0.130315
0.130929
0.13156
0.13221
0.132896
0.133591
0.134291
0.13497
0.135674
0.136407
0.137217
0.138096
0.139151
0.140337
0.14174
0.14322
0.14482
0.14655
0.148353
0.150281
0.152246
0.154128
0.155896
0.157626
0.159185
0.160706
0.162185
0.16359
0.164986
0.166482
0.168033
0.169852
0.172092
0.174646
0.177673
0.181023
0.184543
0.187296
0.190345
0.19322
0.195677
0.198114
0.200589
0.203231
0.206895
0.211097
0.215647
0.219791
0.221094
0.222239
0.232734
0.298672
0.427133
0.608566
0.749154
0.840785
0.874595
0.897892
0.927141
0.920442
0.89964
0.886492
0.88377
0.876085
0.87678
0.881824
0.880218
0.876509
0.871999
0.86775
0.864771
0.859169
0.130115
0.130333
0.130566
0.13081
0.131074
0.13137
0.131665
0.131942
0.13224
0.132568
0.132907
0.133253
0.133618
0.133991
0.13437
0.134768
0.135189
0.135622
0.136073
0.136545
0.137049
0.137578
0.138138
0.138735
0.139376
0.140059
0.140794
0.141587
0.142403
0.143258
0.144119
0.144994
0.145864
0.146772
0.147715
0.148723
0.149786
0.150936
0.152102
0.153336
0.154508
0.155711
0.156889
0.158073
0.159304
0.160605
0.161958
0.163302
0.164605
0.165826
0.166982
0.168112
0.169289
0.170725
0.1722
0.1738
0.175824
0.178127
0.180955
0.1839
0.186965
0.190048
0.193157
0.19622
0.198587
0.200926
0.203044
0.205349
0.207996
0.210947
0.213806
0.217586
0.221193
0.224475
0.22734
0.229734
0.232388
0.235964
0.240422
0.242446
0.243709
0.265502
0.339877
0.490127
0.681906
0.827364
0.905233
0.936201
0.953354
0.969011
0.962052
0.941442
0.934151
0.930638
0.92659
0.929834
0.93346
0.932883
0.929736
0.921881
0.143736
0.143993
0.144274
0.144561
0.144849
0.145142
0.145458
0.145799
0.146152
0.146517
0.146891
0.147282
0.147695
0.148125
0.148568
0.149022
0.149504
0.150007
0.150526
0.151058
0.151606
0.15216
0.152733
0.153304
0.153908
0.15453
0.155175
0.155826
0.156517
0.157222
0.157962
0.158715
0.159525
0.160348
0.161245
0.162166
0.163114
0.16403
0.164954
0.165843
0.166725
0.167597
0.168498
0.169478
0.170512
0.171681
0.172948
0.174244
0.175642
0.177241
0.178994
0.180959
0.183011
0.185313
0.187811
0.190545
0.193178
0.19594
0.19851
0.200975
0.203226
0.20526
0.207421
0.209544
0.211749
0.213894
0.215868
0.218397
0.221627
0.224819
0.228132
0.231204
0.233829
0.236432
0.238948
0.241988
0.245354
0.248471
0.250892
0.253138
0.256016
0.257942
0.259699
0.26074
0.292798
0.392207
0.571474
0.755903
0.904214
0.956607
0.988049
0.987812
1.0017
0.992503
0.975931
0.974359
0.971068
0.973395
0.977777
0.974255
0.158038
0.158296
0.158569
0.158847
0.159133
0.159468
0.15982
0.160144
0.160469
0.160832
0.16121
0.161596
0.161991
0.162393
0.162796