/*--------------------------------*- C++ -*----------------------------------*\
  =========                 |
  \\      /  F ield         | OpenFOAM: The Open Source CFD Toolbox
   \\    /   O peration     | Website:  https://openfoam.org
    \\  /    A nd           | Version:  7
     \\/     M anipulation  |
\*---------------------------------------------------------------------------*/
FoamFile
{
    version     2.0;
    format      ascii;
    class       volScalarField;
    location    "8.2";
    object      rho;
}
// * * * * * * * * * * * * * * * * * * * * * * * * * * * * * * * * * * * * * //

dimensions      [1 -3 0 0 0 0 0];

internalField   nonuniform List<scalar> 
11200
(
0.247486
0.360089
0.476091
0.569901
0.647292
0.701334
0.74193
0.759335
0.782347
0.799291
0.825733
0.859601
0.892344
0.92386
0.921889
0.926463
0.937011
0.956857
0.974884
0.980999
0.987758
0.995955
1.00723
1.02538
1.04359
1.06722
1.09612
1.11342
1.11667
1.1264
0.144788
0.150107
0.170696
0.224626
0.304277
0.410507
0.529469
0.630233
0.717878
0.76883
0.817352
0.836976
0.843716
0.830627
0.806604
0.812026
0.837163
0.871134
0.88972
0.884724
0.888833
0.905178
0.928021
0.95022
0.971748
0.99777
1.02216
1.04309
1.05758
1.07685
0.155229
0.15767
0.161488
0.16219
0.162641
0.169423
0.196241
0.263854
0.362166
0.494357
0.61594
0.703881
0.776343
0.785596
0.779837
0.772789
0.777446
0.787134
0.791772
0.802984
0.822825
0.835389
0.851597
0.870123
0.885252
0.908411
0.937786
0.961539
0.976272
0.999687
0.165757
0.16845
0.170717
0.172685
0.17381
0.175028
0.175736
0.176958
0.177207
0.189524
0.232273
0.327519
0.48109
0.635553
0.75439
0.763981
0.763948
0.757347
0.750759
0.757574
0.784577
0.800708
0.810482
0.817389
0.829861
0.845474
0.863779
0.88327
0.8978
0.92173
0.175654
0.178011
0.180199
0.181212
0.180869
0.180238
0.180194
0.180996
0.181305
0.181009
0.180938
0.182001
0.18862
0.245606
0.399408
0.568431
0.674787
0.719153
0.744411
0.758368
0.774033
0.785055
0.795134
0.79969
0.807104
0.824073
0.835921
0.846725
0.857066
0.87232
0.184822
0.185134
0.184995
0.184527
0.183401
0.181838
0.181638
0.181881
0.181918
0.18174
0.181298
0.18259
0.183444
0.183579
0.18376
0.224973
0.331602
0.50454
0.674204
0.751593
0.779432
0.788634
0.803171
0.807793
0.815762
0.819185
0.8259
0.834961
0.84343
0.85506
0.184367
0.183833
0.182998
0.181661
0.180334
0.179489
0.1791
0.179738
0.180334
0.180404
0.180125
0.180745
0.182297
0.182815
0.184297
0.18778
0.18901
0.207379
0.306307
0.511442
0.681222
0.765309
0.815611
0.823593
0.836447
0.835218
0.843435
0.850282
0.855708
0.862835
0.180637
0.179742
0.178723
0.177826
0.176829
0.176323
0.176683
0.178507
0.179993
0.17997
0.179705
0.180246
0.181962
0.182923
0.184353
0.188693
0.197465
0.207779
0.209312
0.225371
0.324245
0.540489
0.739481
0.82222
0.883203
0.875988
0.886987
0.87866
0.881779
0.881983
0.177976
0.177003
0.177021
0.177302
0.177314
0.177439
0.178405
0.180843
0.182292
0.182045
0.181151
0.181299
0.183263
0.185683
0.187203
0.191115
0.203052
0.215154
0.223946
0.233928
0.238668
0.253836
0.363918
0.611498
0.821556
0.895899
0.95995
0.940201
0.953714
0.943869
0.186468
0.187314
0.188655
0.189078
0.188742
0.188969
0.190753
0.194162
0.198403
0.201978
0.203223
0.20497
0.209522
0.216214
0.218916
0.220844
0.223554
0.228801
0.235609
0.243793
0.25552
0.271217
0.277288
0.296959
0.432057
0.705647
0.906631
0.972069
1.05012
1.02418
0.200596
0.202069
0.202086
0.201069
0.199939
0.200342
0.202692
0.208189
0.216039
0.224913
0.231204
0.235732
0.240397
0.246658
0.251411
0.254837
0.258269
0.261116
0.264163
0.267131
0.27158
0.280608
0.295075
0.310577
0.309859
0.343923
0.514547
0.810658
1.00097
1.07137
0.220089
0.223284
0.225401
0.22543
0.22554
0.226012
0.228263
0.232934
0.239848
0.248018
0.253953
0.256
0.257052
0.2613
0.269665
0.279144
0.288001
0.296009
0.30116
0.303809
0.303184
0.300771
0.304228
0.318185
0.334181
0.345251
0.344394
0.40533
0.607715
0.983532
0.264453
0.267939
0.270218
0.270717
0.270251
0.269177
0.269524
0.271819
0.277768
0.288018
0.294087
0.292879
0.290307
0.2917
0.298296
0.305403
0.31107
0.318444
0.325976
0.333011
0.339313
0.34301
0.342229
0.343194
0.352792
0.361766
0.371083
0.378253
0.381605
0.619227
0.30386
0.305735
0.308433
0.310352
0.30986
0.309702
0.312039
0.316934
0.3243
0.334652
0.338108
0.337283
0.337781
0.342349
0.348912
0.348088
0.346398
0.348091
0.354743
0.364473
0.375181
0.38398
0.388514
0.388168
0.386173
0.389803
0.398406
0.404617
0.410632
0.417444
0.355472
0.358346
0.362122
0.365119
0.365294
0.36364
0.363141
0.364414
0.367616
0.372802
0.375398
0.377736
0.380599
0.384013
0.389075
0.392274
0.395224
0.400245
0.40362
0.40431
0.407087
0.414343
0.422685
0.426367
0.428499
0.431844
0.436555
0.438933
0.441534
0.44906
0.413129
0.415787
0.419557
0.423381
0.425
0.423654
0.420509
0.420618
0.423217
0.429865
0.436718
0.438155
0.436307
0.434537
0.43559
0.440256
0.447444
0.453032
0.454265
0.454314
0.453757
0.454081
0.457155
0.463988
0.470617
0.473781
0.47431
0.477143
0.48044
0.483379
0.4852
0.488178
0.49264
0.498157
0.500907
0.500721
0.495854
0.491859
0.492196
0.495126
0.501657
0.503983
0.504842
0.50572
0.506252
0.505186
0.50356
0.503823
0.506123
0.509829
0.510831
0.51001
0.508909
0.508419
0.509921
0.512006
0.514162
0.515219
0.51598
0.518685
0.572022
0.574187
0.579054
0.584374
0.586569
0.586635
0.581613
0.572345
0.570388
0.572492
0.576368
0.577118
0.575553
0.573216
0.571475
0.570413
0.570468
0.570059
0.569104
0.567558
0.56693
0.568238
0.570142
0.569678
0.567239
0.565935
0.566572
0.566969
0.566949
0.566458
0.675175
0.676812
0.683761
0.687223
0.686782
0.685729
0.680186
0.667658
0.665139
0.668824
0.668907
0.665103
0.660605
0.660108
0.65951
0.655326
0.6501
0.648602
0.647616
0.645577
0.641164
0.636184
0.633666
0.632041
0.629432
0.625172
0.620772
0.615545
0.614374
0.612767
0.796707
0.79795
0.807088
0.809814
0.807303
0.80222
0.793277
0.7799
0.777829
0.780804
0.779078
0.769186
0.760262
0.758659
0.75685
0.751167
0.742564
0.736979
0.731936
0.726921
0.721005
0.714812
0.708331
0.701307
0.695225
0.690878
0.68713
0.682343
0.676241
0.667262
0.940682
0.941969
0.952801
0.95615
0.950852
0.938751
0.924926
0.911168
0.908827
0.910893
0.90747
0.891848
0.878189
0.875094
0.871213
0.862908
0.851199
0.841964
0.834485
0.825608
0.816235
0.806501
0.798748
0.789912
0.78116
0.772195
0.761886
0.753355
0.745424
0.729044
1.10923
1.11023
1.12204
1.12613
1.11747
1.09864
1.08
1.06378
1.06132
1.06228
1.05497
1.03167
1.01518
1.01145
1.00559
0.991725
0.976538
0.962745
0.951346
0.938814
0.92587
0.911574
0.89806
0.88505
0.871201
0.857361
0.844181
0.829648
0.817578
0.798651
1.30431
1.30815
1.31922
1.31908
1.3029
1.2799
1.25674
1.23721
1.23493
1.23435
1.22099
1.18846
1.17367
1.16934
1.15954
1.13825
1.1176
1.10094
1.08549
1.069
1.05011
1.03163
1.01296
0.995474
0.976424
0.958073
0.940792
0.921557
0.904278
0.876723
1.52815
1.53172
1.53335
1.52694
1.5088
1.48604
1.45775
1.43088
1.42713
1.42512
1.40663
1.36736
1.35132
1.3451
1.32958
1.30176
1.27556
1.25523
1.2356
1.21423
1.18908
1.16459
1.141
1.11691
1.09353
1.06887
1.04442
1.02033
0.998867
0.963041
1.7786
1.7736
1.76978
1.76213
1.74687
1.72604
1.69499
1.65809
1.64982
1.64351
1.62118
1.57484
1.55156
1.54012
1.5177
1.48511
1.45369
1.42587
1.39988
1.3722
1.34219
1.31065
1.28162
1.25186
1.22172
1.1917
1.16219
1.13182
1.10492
1.06135
2.01835
2.00609
1.9976
1.99014
1.9793
1.96233
1.9446
1.9237
1.90173
1.88418
1.86251
1.827
1.79511
1.76933
1.73787
1.70096
1.66421
1.6267
1.5902
1.55289
1.51461
1.47633
1.43856
1.40181
1.36474
1.32802
1.292
1.25518
1.22347
1.17083
2.06918
2.06866
2.06848
2.06821
2.06686
2.06437
2.06147
2.0568
2.05067
2.04357
2.03476
2.02226
2.00749
1.98933
1.9647
1.9348
1.90101
1.8634
1.82132
1.77648
1.72798
1.67861
1.62924
1.57958
1.53162
1.48432
1.4389
1.39362
1.35474
1.29163
2.02741
2.02484
2.01869
2.01938
2.03042
2.04076
2.04532
2.047
2.04596
2.04615
2.04585
2.04392
2.04258
2.04196
2.03997
2.03593
2.0294
2.01933
2.00268
1.97926
1.94798
1.90746
1.85842
1.80341
1.74353
1.68191
1.62124
1.56032
1.50903
1.42879
1.78047
1.79382
1.81067
1.81958
1.82929
1.84759
1.87594
1.89385
1.90983
1.92515
1.94321
1.96848
1.98294
1.98686
1.99416
2.0078
2.01952
2.01907
2.0178
2.01602
2.01341
2.00777
1.99652
1.97851
1.94824
1.9035
1.84567
1.77685
1.7108
1.60233
1.48135
1.48926
1.49763
1.51041
1.52166
1.53251
1.55018
1.56985
1.59144
1.61505
1.63939
1.67229
1.70794
1.73978
1.77167
1.81155
1.85363
1.88689
1.92008
1.94427
1.96711
1.98334
1.9911
1.99059
1.98955
1.98537
1.97388
1.9504
1.91309
1.81518
1.40375
1.40444
1.40519
1.40623
1.40761
1.40907
1.41112
1.41406
1.41783
1.42298
1.42904
1.43696
1.44876
1.46347
1.48215
1.50512
1.53695
1.57384
1.61799
1.66821
1.72205
1.77957
1.83257
1.8838
1.91949
1.94394
1.96265
1.96251
1.96008
1.93894
1.40005
1.40006
1.40007
1.40008
1.40011
1.40014
1.40018
1.40024
1.40034
1.40048
1.40069
1.401
1.40152
1.40236
1.4037
1.40577
1.40926
1.4149
1.42366
1.43778
1.45826
1.48907
1.53114
1.58504
1.65175
1.72157
1.79292
1.85471
1.89943
1.92614
1.40001
1.40001
1.40001
1.40001
1.40001
1.40001
1.40001
1.40001
1.40001
1.40001
1.40001
1.40001
1.40002
1.40003
1.40004
1.40007
1.40013
1.40026
1.40051
1.40104
1.40213
1.40442
1.40903
1.41802
1.43468
1.46327
1.50782
1.57224
1.64569
1.766
1.40001
1.40001
1.40001
1.40001
1.40001
1.40001
1.40001
1.40001
1.40001
1.40001
1.40001
1.40001
1.40001
1.40001
1.40001
1.40001
1.40001
1.40001
1.40001
1.40001
1.40002
1.40006
1.40014
1.40036
1.40097
1.40265
1.40675
1.41701
1.43551
1.50769
1.40001
1.40001
1.40001
1.40001
1.40001
1.40001
1.40001
1.40001
1.40001
1.40001
1.40001
1.40001
1.40001
1.40001
1.40001
1.40001
1.40001
1.40001
1.40001
1.40001
1.40001
1.40001
1.40001
1.40001
1.40001
1.40003
1.4001
1.40038
1.40114
1.40981
0.142739
0.143721
0.152835
0.162961
0.172001
0.183519
0.184681
0.181397
0.180454
0.185684
0.197082
0.218039
0.25898
0.301897
0.353167
0.411321
0.483791
0.571795
0.676743
0.802119
0.949942
1.12161
1.31383
1.53514
1.80464
2.03477
2.07109
2.02442
1.75278
1.46838
1.40297
1.40004
1.40001
1.40001
1.40001
0.143865
0.144522
0.154584
0.163922
0.172384
0.183298
0.184142
0.181117
0.183599
0.187308
0.196393
0.222653
0.261024
0.308305
0.36465
0.429825
0.510169
0.607776
0.721948
0.857115
1.01446
1.19442
1.39352
1.62068
1.87707
2.05992
2.07306
1.99154
1.69596
1.44725
1.40159
1.40002
1.40001
1.40001
1.40001
0.144175
0.143436
0.154754
0.162526
0.169731
0.18057
0.182433
0.181025
0.184828
0.188327
0.193443
0.225347
0.260236
0.314302
0.380239
0.452018
0.536369
0.635711
0.752289
0.890423
1.05206
1.23795
1.4463
1.67953
1.92351
2.07217
2.07278
1.95612
1.65322
1.43439
1.40097
1.40001
1.40001
1.40001
1.40001
0.142887
0.142021
0.154357
0.161416
0.168819
0.177956
0.179
0.179115
0.184452
0.189492
0.194297
0.232107
0.270581
0.328336
0.394669
0.465537
0.548476
0.648093
0.76674
0.907059
1.07219
1.26324
1.47662
1.71245
1.95528
2.07942
2.06809
1.93268
1.61685
1.42389
1.40055
1.40001
1.40001
1.40001
1.40001
0.139151
0.140349
0.153898
0.160895
0.168796
0.175494
0.175692
0.176482
0.181589
0.189126
0.202324
0.241355
0.281344
0.334837
0.399055
0.470054
0.55442
0.654674
0.775672
0.918177
1.08614
1.28151
1.50142
1.74525
1.99006
2.08576
2.06401
1.90917
1.57546
1.41533
1.4003
1.40001
1.40001
1.40001
1.40001
0.135801
0.139433
0.152645
0.160462
0.170047
0.174167
0.173652
0.174885
0.179152
0.187065
0.210352
0.24785
0.287243
0.338737
0.401721
0.471963
0.558042
0.660958
0.787343
0.938774
1.11682
1.31837
1.54478
1.80091
2.03293
2.09116
2.06592
1.86364
1.53316
1.40951
1.40016
1.40001
1.40001
1.40001
1.40001
0.13323
0.139017
0.151292
0.160052
0.171934
0.173882
0.172949
0.174485
0.178032
0.186512
0.215759
0.251322
0.294441
0.344703
0.405944
0.482067
0.5797
0.703294
0.843989
1.00777
1.19431
1.40192
1.63167
1.87587
2.06369
2.0941
2.05418
1.80572
1.50109
1.40591
1.40009
1.40001
1.40001
1.40001
1.40001
0.131398
0.138932
0.150274
0.160351
0.173771
0.174366
0.17381
0.174846
0.177709
0.187641
0.221873
0.254959
0.305126
0.360025
0.433823
0.521541
0.625156
0.746765
0.88699
1.05011
1.23779
1.44854
1.67999
1.91759
2.07889
2.09457
2.02108
1.7604
1.47555
1.40349
1.40005
1.40001
1.40001
1.40001
1.40001
0.130746
0.138987
0.149615
0.161275
0.175495
0.176759
0.177154
0.176833
0.178109
0.190503
0.228969
0.267838
0.321713
0.38363
0.458907
0.543524
0.643359
0.764098
0.905976
1.07087
1.26252
1.47826
1.71362
1.95245
2.09046
2.09223
1.99824
1.71381
1.45296
1.40198
1.40003
1.40001
1.40001
1.40001
1.40001
0.1309
0.140085
0.149248
0.161506
0.177649
0.179486
0.179016
0.177926
0.179908
0.195813
0.23431
0.277001
0.330351
0.393744
0.466666
0.550814
0.652374
0.773033
0.918754
1.0871
1.28394
1.50813
1.75607
1.99854
2.10109
2.08939
1.97747
1.66117
1.43632
1.40111
1.40002
1.40001
1.40001
1.40001
1.40001
0.132622
0.141617
0.149109
0.161981
0.179618
0.180834
0.179462
0.177706
0.180237
0.201804
0.235637
0.279409
0.331838
0.395963
0.469486
0.553452
0.659927
0.786488
0.942903
1.13109
1.34624
1.58293
1.83479
2.04696
2.10809
2.0925
1.94845
1.61257
1.42372
1.40058
1.40001
1.40001
1.40001
1.40001
1.40001
0.13493
0.14209
0.149045
0.162898
0.180641
0.181101
0.178825
0.175469
0.179522
0.206186
0.234091
0.279725
0.33039
0.394785
0.473297
0.573083
0.69662
0.850759
1.02359
1.21916
1.43392
1.66601
1.89917
2.07506
2.11165
2.09004
1.89139
1.56363
1.41413
1.40029
1.40001
1.40001
1.40001
1.40001
1.40001
0.136463
0.141933
0.148468
0.163571
0.180832
0.179574
0.175807
0.172371
0.17793
0.20894
0.233285
0.281453
0.336661
0.407943
0.51166
0.626792
0.754896
0.902905
1.07252
1.2648
1.47814
1.70861
1.93691
2.09179
2.11242
2.06387
1.83805
1.52103
1.40845
1.40015
1.40001
1.40001
1.40001
1.40001
1.40001
0.136953
0.140512
0.146279
0.163987
0.179706
0.177454
0.172202
0.170438
0.177612
0.210859
0.244837
0.30238
0.369554
0.451255
0.547127
0.653184
0.777727
0.925764
1.09694
1.29213
1.5116
1.74915
1.97934
2.10614
2.11008
2.03556
1.78638
1.48997
1.40508
1.40008
1.40001
1.40001
1.40001
1.40001
1.40001
0.136667
0.139454
0.14496
0.16472
0.178791
0.176125
0.170737
0.170315
0.18103
0.216282
0.268445
0.326689
0.39249
0.468579
0.557878
0.662165
0.78994
0.940262
1.11875
1.3242
1.5593
1.81289
2.03374
2.11667
2.1074
2.01636
1.73312
1.46371
1.40274
1.40004
1.40001
1.40001
1.40001
1.40001
1.40001
0.13659
0.139355
0.144849
0.166851
0.178251
0.175302
0.170529
0.174462
0.197543
0.231654
0.285283
0.336448
0.398586
0.472554
0.562007
0.666708
0.803074
0.972702
1.17652
1.41203
1.65856
1.89745
2.07546
2.12236
2.1104
2.00192
1.67852
1.44122
1.40137
1.40002
1.40001
1.40001
1.40001
1.40001
1.40001
0.136735
0.139531
0.145788
0.170631
0.177116
0.173999
0.169897
0.179745
0.209392
0.23816
0.289439
0.339226
0.39981
0.474053
0.573199
0.709089
0.872348
1.06603
1.27514
1.49766
1.72955
1.94824
2.09819
2.1256
2.10978
1.95013
1.61543
1.42445
1.40066
1.40001
1.40001
1.40001
1.40001
1.40001
1.40001
0.136796
0.139989
0.148684
0.174928
0.176685
0.171732
0.167693
0.180301
0.21134
0.238429
0.287859
0.340779
0.406732
0.503426
0.637499
0.783997
0.943476
1.12395
1.32451
1.5436
1.77513
1.98841
2.11424
2.12639
2.08789
1.87845
1.55747
1.41459
1.40032
1.40001
1.40001
1.40001
1.40001
1.40001
1.40001
0.137362
0.141838
0.152553
0.177499
0.17694
0.167739
0.164382
0.176191
0.207472
0.237105
0.287487
0.360847
0.456175
0.561556
0.682997
0.818233
0.973794
1.15386
1.35937
1.58751
1.8309
2.03738
2.12618
2.12357
2.05802
1.82935
1.52127
1.40886
1.40016
1.40001
1.40001
1.40001
1.40001
1.40001
1.40001
0.139447
0.144349
0.156457
0.177572
0.174534
0.16323
0.16181
0.17382
0.203603
0.245209
0.316834
0.402313
0.489022
0.58525
0.699292
0.832701
0.996122
1.18563
1.41238
1.66738
1.91316
2.08299
2.13198
2.12037
2.03842
1.78168
1.48585
1.40461
1.40007
1.40001
1.40001
1.40001
1.40001
1.40001
1.40001
0.141426
0.145513
0.159647
0.174103
0.169152
0.160602
0.161213
0.178072
0.21097
0.273758
0.341321
0.415546
0.496582
0.59274
0.711072
0.851111
1.03847
1.27068
1.52382
1.76981
1.98044
2.11054
2.13476
2.12274
2.02648
1.71342
1.45277
1.40213
1.40003
1.40001
1.40001
1.40001
1.40001
1.40001
1.40001
0.142075
0.145407
0.161789
0.172167
0.166305
0.159422
0.161769
0.193481
0.227783
0.288095
0.347413
0.417943
0.497877
0.599559
0.745404
0.937792
1.14969
1.37744
1.60855
1.83288
2.023
2.1264
2.13664
2.12179
1.97383
1.63698
1.43138
1.40101
1.40002
1.40001
1.40001
1.40001
1.40001
1.40001
1.40001
0.140616
0.142842
0.163855
0.17219
0.165321
0.158737
0.161866
0.201761
0.234544
0.290332
0.349689
0.421368
0.517729
0.661846
0.839609
1.02388
1.22095
1.43517
1.6621
1.88699
2.0637
2.1351
2.13692
2.09724
1.89199
1.57547
1.41844
1.40046
1.40001
1.40001
1.40001
1.40001
1.40001
1.40001
1.40001
0.137771
0.141535
0.164803
0.172695
0.166023
0.158953
0.162419
0.202759
0.237232
0.290228
0.359901
0.462016
0.593844
0.734737
0.892168
1.06635
1.26375
1.48478
1.72823
1.95864
2.10116
2.13919
2.13162
2.06278
1.83862
1.53062
1.41035
1.4002
1.40001
1.40001
1.40001
1.40001
1.40001
1.40001
1.40001
0.136279
0.141785
0.165265
0.172662
0.1668
0.162248
0.167605
0.200442
0.245765
0.318235
0.412597
0.522969
0.636927
0.764957
0.919217
1.09836
1.31857
1.57451
1.83042
2.02783
2.12505
2.1415
2.1243
2.03934
1.78699
1.48943
1.40525
1.40009
1.40001
1.40001
1.40001
1.40001
1.40001
1.40001
1.40001
0.136033
0.144377
0.167173
0.172395
0.165776
0.164113
0.175727
0.203668
0.273975
0.361395
0.451607
0.546066
0.652164
0.783032
0.955187
1.17439
1.43286
1.69422
1.91523
2.07204
2.13844
2.14319
2.1258
2.02393
1.70976
1.4529
1.40225
1.40003
1.40001
1.40001
1.40001
1.40001
1.40001
1.40001
1.40001
0.136883
0.149261
0.170133
0.169629
0.163192
0.161835
0.186791
0.225111
0.304276
0.379298
0.46225
0.553565
0.665041
0.830122
1.05768
1.30261
1.54372
1.77452
1.97321
2.1041
2.14459
2.14525
2.12622
1.96541
1.62461
1.42922
1.40095
1.40002
1.40001
1.40001
1.40001
1.40001
1.40001
1.40001
1.40001
0.138992
0.151308
0.171409
0.166588
0.15967
0.159289
0.200299
0.247358
0.313449
0.380501
0.461428
0.567239
0.737847
0.949112
1.16793
1.38625
1.61283
1.84191
2.03106
2.12829
2.14648
2.14379
2.09472
1.87151
1.56015
1.41615
1.40041
1.40001
1.40001
1.40001
1.40001
1.40001
1.40001
1.40001
1.40001
0.140084
0.149909
0.167856
0.163254
0.157996
0.161687
0.213156
0.259049
0.311429
0.376851
0.47774
0.657913
0.84499
1.02932
1.22924
1.44906
1.69225
1.93011
2.08443
2.14162
2.1467
2.13292
2.0487
1.80877
1.51316
1.40826
1.40016
1.40001
1.40001
1.40001
1.40001
1.40001
1.40001
1.40001
1.40001
0.137979
0.144355
0.16254
0.159522
0.157464
0.175
0.220699
0.261754
0.310925
0.409489
0.57421
0.743987
0.901175
1.07713
1.2907
1.54721
1.81176
2.01303
2.11858
2.14765
2.14626
2.1201
2.01767
1.7485
1.47138
1.40379
1.40006
1.40001
1.40001
1.40001
1.40001
1.40001
1.40001
1.40001
1.40001
0.135769
0.14007
0.158648
0.156128
0.160039
0.187432
0.221205
0.260162
0.347392
0.496118
0.644701
0.784188
0.939362
1.14499
1.415
1.6887
1.9134
2.0664
2.13825
2.15005
2.14772
2.11959
1.99044
1.6608
1.43823
1.40145
1.40002
1.40001
1.40001
1.40001
1.40001
1.40001
1.40001
1.40001
1.40001
0.135986
0.138946
0.156439
0.152964
0.162175
0.190509
0.216611
0.28309
0.419971
0.554241
0.674898
0.815572
1.02047
1.28821
1.55926
1.7948
1.98391
2.10417
2.14815
2.15103
2.14728
2.11699
1.91156
1.57292
1.41853
1.40052
1.40001
1.40001
1.40001
1.40001
1.40001
1.40001
1.40001
1.40001
1.40001
0.136616
0.14376
0.155219
0.149824
0.157974
0.187155
0.218643
0.34526
0.475131
0.578254
0.699623
0.909107
1.16962
1.42042
1.66059
1.87916
2.04814
2.13063
2.15119
2.15041
2.14046
2.06184
1.802
1.51215
1.40891
1.40019
1.40001
1.40001
1.40001
1.40001
1.40001
1.40001
1.40001
1.40001
1.40001
0.143586
0.154352
0.153004
0.144277
0.152083
0.182624
0.263126
0.401007
0.496271
0.596063
0.796124
1.05445
1.28676
1.51715
1.75948
1.97268
2.10053
2.1444
2.15152
2.14691
2.12297
2.004
1.72997
1.4715
1.40398
1.40007
1.40001
1.40001
1.40001
1.40001
1.40001
1.40001
1.40001
1.40001
1.40001
0.156836
0.158566
0.14422
0.135627
0.151739
0.19753
0.325036
0.425822
0.506233
0.684301
0.93622
1.16181
1.38192
1.63232
1.88483
2.05173
2.12959
2.15038
2.1511
2.14392
2.10559
1.96242
1.65946
1.43858
1.40152
1.40003
1.40001
1.40001
1.40001
1.40001
1.40001
1.40001
1.40001
1.40001
1.40001
0.163718
0.158066
0.135517
0.128745
0.161556
0.248435
0.365414
0.436482
0.571276
0.820665
1.0401
1.25733
1.51506
1.78119
1.98971
2.10005
2.14327
2.15288
2.15335
2.1465
2.10224
1.90965
1.56612
1.41669
1.40047
1.40001
1.40001
1.40001
1.40001
1.40001
1.40001
1.40001
1.40001
1.40001
1.40001
0.165451
0.150358
0.130615
0.126525
0.200926
0.292615
0.379611
0.466556
0.707952
0.92836
1.1365
1.40411
1.67997
1.90331
2.05985
2.12904
2.14963
2.15426
2.15522
2.14746
2.07799
1.78732
1.49202
1.40651
1.40014
1.40001
1.40001
1.40001
1.40001
1.40001
1.40001
1.40001
1.40001
1.40001
1.40001
0.158744
0.13479
0.12936
0.131706
0.236237
0.315
0.384586
0.592641
0.823834
1.02265
1.29005
1.58013
1.81741
1.99593
2.10903
2.14463
2.15301
2.15515
2.15325
2.13074
1.97833
1.67391
1.45071
1.40251
1.40004
1.40001
1.40001
1.40001
1.40001
1.40001
1.40001
1.40001
1.40001
1.40001
1.40001
0.1413
0.120984
0.133488
0.167937
0.254905
0.331727
0.460867
0.715163
0.920168
1.175
1.47627
1.7326
1.93447
2.06947
2.13776
2.15082
2.15497
2.15578
2.14243
2.09076
1.90209
1.59993
1.42614
1.40089
1.40002
1.40001
1.40001
1.40001
1.40001
1.40001
1.40001
1.40001
1.40001
1.40001
1.40001
0.133962
0.115839
0.149739
0.210989
0.260453
0.35474
0.606832
0.831039
1.06071
1.37219
1.64663
1.87328
2.03467
2.11426
2.15076
2.15267
2.15524
2.1564
2.13215
2.05587
1.83247
1.52572
1.41041
1.40026
1.40001
1.40001
1.40001
1.40001
1.40001
1.40001
1.40001
1.40001
1.40001
1.40001
1.40001
0.133622
0.113812
0.154715
0.230501
0.284851
0.471546
0.733376
0.956836
1.27238
1.5633
1.80849
1.99879
2.09861
2.13481
2.15648
2.15308
2.15335
2.15645
2.13323
2.02525
1.71996
1.45865
1.40319
1.40006
1.40001
1.40001
1.40001
1.40001
1.40001
1.40001
1.40001
1.40001
1.40001
1.40001
1.40001
0.135159
0.112853
0.143377
0.2358
0.371803
0.637524
0.872071
1.17331
1.48155
1.74513
1.95645
2.08332
2.13026
2.14291
2.15935
2.15235
2.15093
2.15101
2.12995
1.932
1.58842
1.42359
1.40088
1.40002
1.40001
1.40001
1.40001
1.40001
1.40001
1.40001
1.40001
1.40001
1.40001
1.40001
1.40001
0.128997
0.113878
0.137847
0.261605
0.524998
0.791232
1.06935
1.40555
1.6864
1.91771
2.06016
2.12894
2.14279
2.14595
2.16124
2.15069
2.1484
2.13517
2.06217
1.79585
1.50931
1.40951
1.40024
1.40001
1.40001
1.40001
1.40001
1.40001
1.40001
1.40001
1.40001
1.40001
1.40001
1.40001
1.40001
0.0808782
0.112701
0.199917
0.403836
0.693977
0.98029
1.34031
1.63953
1.88287
2.04096
2.11955
2.14793
2.14645
2.14721
2.16237
2.1496
2.15045
2.11615
1.98496
1.69782
1.45931
1.4032
1.40006
1.40001
1.40001
1.40001
1.40001
1.40001
1.40001
1.40001
1.40001
1.40001
1.40001
1.40001
1.40001
0.0406669
0.105794
0.303373
0.596473
0.911631
1.27835
1.60707
1.85823
2.02727
2.11145
2.14645
2.15264
2.14742
2.14799
2.16315
2.14689
2.1545
2.10772
1.91243
1.59145
1.42222
1.40077
1.40002
1.40001
1.40001
1.40001
1.40001
1.40001
1.40001
1.40001
1.40001
1.40001
1.40001
1.40001
1.40001
0.0211489
0.143787
0.459173
0.832849
1.22529
1.59123
1.85103
2.02216
2.10731
2.14213
2.1554
2.15366
2.14669
2.14818
2.1639
2.14571
2.15039
2.08788
1.78943
1.48331
1.40561
1.40014
1.40001
1.40001
1.40001
1.40001
1.40001
1.40001
1.40001
1.40001
1.40001
1.40001
1.40001
1.40001
1.40001
0.0290762
0.32326
0.742614
1.17947
1.58458
1.86182
2.029
2.10823
2.13953
2.15278
2.15733
2.15389
2.14485
2.14823
2.16522
2.15014
2.11707
1.95612
1.62176
1.43116
1.40133
1.40003
1.40001
1.40001
1.40001
1.40001
1.40001
1.40001
1.40001
1.40001
1.40001
1.40001
1.40001
1.40001
1.40001
0.159886
0.60016
1.1379
1.6066
1.8961
2.04835
2.11511
2.14017
2.14953
2.15613
2.15767
2.15136
2.14352
2.1491
2.16612
2.15097
2.0746
1.82584
1.52289
1.41114
1.40029
1.40001
1.40001
1.40001
1.40001
1.40001
1.40001
1.40001
1.40001
1.40001
1.40001
1.40001
1.40001
1.40001
1.40001
0.510109
1.07209
1.64223
1.94542
2.07904
2.12803
2.14296
2.14841
2.15271
2.15716
2.15647
2.14785
2.14303
2.15218
2.16534
2.13831
2.01661
1.69402
1.44985
1.40224
1.40004
1.40001
1.40001
1.40001
1.40001
1.40001
1.40001
1.40001
1.40001
1.40001
1.40001
1.40001
1.40001
1.40001
1.40001
1.20751
1.72262
2.01197
2.11208
2.14149
2.14729
2.14857
2.1503
2.15365
2.15688
2.15439
2.14589
2.14367
2.15539
2.15928
2.09713
1.8936
1.53857
1.40975
1.40015
1.40001
1.40001
1.40001
1.40001
1.40001
1.40001
1.40001
1.40001
1.40001
1.40001
1.40001
1.40001
1.40001
1.40001
1.40001
2.15062
2.1511
2.1519
2.15258
2.15212
2.15039
2.14934
2.15056
2.15328
2.15593
2.15272
2.14578
2.14627
2.15723
2.14697
2.02821
1.72441
1.43878
1.39965
1.39997
1.4
1.40001
1.40001
1.40001
1.40001
1.40001
1.40001
1.40001
1.40001
1.40001
1.40001
1.40001
1.40001
1.40001
1.40001
2.15012
2.15096
2.15252
2.15359
2.15351
2.15185
2.14862
2.1477
2.14987
2.15554
2.15659
2.1522
2.14577
2.15353
2.15031
2.01671
1.69177
1.44364
1.40139
1.40002
1.40001
1.40001
1.40001
1.40001
1.40001
1.40001
1.40001
1.40001
1.40001
1.40001
1.40001
1.40001
1.40001
1.40001
1.40001
2.14948
2.15018
2.15248
2.15385
2.15398
2.15317
2.14915
2.1467
2.14807
2.15424
2.15864
2.15984
2.14821
2.14634
2.13697
1.95395
1.59072
1.4139
1.4002
1.40001
1.40001
1.40001
1.40001
1.40001
1.40001
1.40001
1.40001
1.40001
1.40001
1.40001
1.40001
1.40001
1.40001
1.40001
1.40001
2.14878
2.14878
2.15107
2.15339
2.15406
2.1536
2.1498
2.14634
2.14714
2.15237
2.16032
2.16493
2.15025
2.12911
2.10691
1.88292
1.52556
1.40666
1.40008
1.40001
1.40001
1.40001
1.40001
1.40001
1.40001
1.40001
1.40001
1.40001
1.40001
1.40001
1.40001
1.40001
1.40001
1.40001
1.40001
2.14849
2.14816
2.14927
2.15107
2.15302
2.15316
2.15045
2.14662
2.14664
2.15071
2.16045
2.16639
2.15533
2.11894
2.07937
1.80813
1.47649
1.40271
1.40003
1.40001
1.40001
1.40001
1.40001
1.40001
1.40001
1.40001
1.40001
1.40001
1.40001
1.40001
1.40001
1.40001
1.40001
1.40001
1.40001
2.14885
2.14829
2.14844
2.14899
2.15071
2.15203
2.15142
2.14772
2.14638
2.14887
2.15875
2.16648
2.15866
2.11596
2.04808
1.71374
1.44144
1.40102
1.40001
1.40001
1.40001
1.40001
1.40001
1.40001
1.40001
1.40001
1.40001
1.40001
1.40001
1.40001
1.40001
1.40001
1.40001
1.40001
1.40001
2.15061
2.14905
2.14805
2.1478
2.14885
2.15134
2.15288
2.15055
2.14713
2.14672
2.15433
2.16456
2.15877
2.11035
1.99434
1.62105
1.42004
1.40034
1.40001
1.40001
1.40001
1.40001
1.40001
1.40001
1.40001
1.40001
1.40001
1.40001
1.40001
1.40001
1.40001
1.40001
1.40001
1.40001
1.40001
2.15322
2.15129
2.14853
2.14724
2.14786
2.15065
2.15372
2.15439
2.14958
2.14567
2.14947
2.16245
2.15566
2.09186
1.90939
1.54679
1.40883
1.40011
1.40001
1.40001
1.40001
1.40001
1.40001
1.40001
1.40001
1.40001
1.40001
1.40001
1.40001
1.40001
1.40001
1.40001
1.40001
1.40001
1.40001
2.15482
2.15335
2.15042
2.14765
2.14743
2.14946
2.15442
2.15658
2.15394
2.14546
2.14465
2.15932
2.1562
2.07995
1.82722
1.48924
1.40346
1.40004
1.40001
1.40001
1.40001
1.40001
1.40001
1.40001
1.40001
1.40001
1.40001
1.40001
1.40001
1.40001
1.40001
1.40001
1.40001
1.40001
1.40001
2.15509
2.15432
2.15212
2.14917
2.14742
2.14837
2.15327
2.15773
2.15742
2.14632
2.1389
2.14879
2.15399
2.06135
1.73169
1.4472
1.40126
1.40001
1.40001
1.40001
1.40001
1.40001
1.40001
1.40001
1.40001
1.40001
1.40001
1.40001
1.40001
1.40001
1.40001
1.40001
1.40001
1.40001
1.40001
2.15477
2.15447
2.15286
2.15089
2.14753
2.14733
2.15122
2.15821
2.15873
2.15041
2.13581
2.1379
2.13727
1.98786
1.638
1.42271
1.40041
1.40001
1.40001
1.40001
1.40001
1.40001
1.40001
1.40001
1.40001
1.40001
1.40001
1.40001
1.40001
1.40001
1.40001
1.40001
1.40001
1.40001
1.40001
2.15245
2.15346
2.15301
2.15194
2.14814
2.14677
2.14853
2.15583
2.159
2.15586
2.13745
2.13389
2.12553
1.92188
1.56134
1.41015
1.40013
1.40001
1.40001
1.40001
1.40001
1.40001
1.40001
1.40001
1.40001
1.40001
1.40001
1.40001
1.40001
1.40001
1.40001
1.40001
1.40001
1.40001
1.40001
2.1489
2.15073
2.15255
2.15255
2.14967
2.14683
2.14616
2.15072
2.15764
2.16048
2.14808
2.13224
2.11633
1.83629
1.49116
1.40372
1.40004
1.40001
1.40001
1.40001
1.40001
1.40001
1.40001
1.40001
1.40001
1.40001
1.40001
1.40001
1.40001
1.40001
1.40001
1.40001
1.40001
1.40001
1.40001
2.14698
2.14822
2.15115
2.15286
2.15134
2.1478
2.14493
2.14568
2.15442
2.16252
2.15543
2.12368
2.05566
1.72426
1.44636
1.40125
1.40001
1.40001
1.40001
1.40001
1.40001
1.40001
1.40001
1.40001
1.40001
1.40001
1.40001
1.40001
1.40001
1.40001
1.40001
1.40001
1.40001
1.40001
1.40001
2.14668
2.1472
2.14987
2.15269
2.15189
2.14944
2.1445
2.14291
2.15043
2.16452
2.15876
2.11208
1.98608
1.63787
1.42269
1.40041
1.40001
1.40001
1.40001
1.40001
1.40001
1.40001
1.40001
1.40001
1.40001
1.40001
1.40001
1.40001
1.40001
1.40001
1.40001
1.40001
1.40001
1.40001
1.40001
2.14725
2.14719
2.14923
2.15167
2.15245
2.15258
2.14626
2.1408
2.14512
2.16441
2.15987
2.10725
1.91879
1.55128
1.40882
1.40012
1.40001
1.40001
1.40001
1.40001
1.40001
1.40001
1.40001
1.40001
1.40001
1.40001
1.40001
1.40001
1.40001
1.40001
1.40001
1.40001
1.40001
1.40001
1.40001
2.1512
2.14931
2.14887
2.15058
2.15323
2.15446
2.14973
2.13973
2.13987
2.15439
2.15413
2.08194
1.82027
1.48178
1.40313
1.40003
1.40001
1.40001
1.40001
1.40001
1.40001
1.40001
1.40001
1.40001
1.40001
1.40001
1.40001
1.40001
1.40001
1.40001
1.40001
1.40001
1.40001
1.40001
1.40001
2.15563
2.15232
2.14919
2.14935
2.15268
2.15498
2.15328
2.14288
2.13853
2.15001
2.14363
2.02371
1.71489
1.4425
1.40105
1.40001
1.40001
1.40001
1.40001
1.40001
1.40001
1.40001
1.40001
1.40001
1.40001
1.40001
1.40001
1.40001
1.40001
1.40001
1.40001
1.40001
1.40001
1.40001
1.40001
2.15763
2.15381
2.14957
2.14809
2.1515
2.15495
2.15553
2.14938
2.14122
2.14956
2.14111
1.97254
1.61458
1.41781
1.40029
1.40001
1.40001
1.40001
1.40001
1.40001
1.40001
1.40001
1.40001
1.40001
1.40001
1.40001
1.40001
1.40001
1.40001
1.40001
1.40001
1.40001
1.40001
1.40001
1.40001
2.1581
2.15437
2.14986
2.14733
2.14823
2.15278
2.15571
2.15662
2.14591
2.14239
2.12764
1.884
1.52026
1.40623
1.40008
1.40001
1.40001
1.40001
1.40001
1.40001
1.40001
1.40001
1.40001
1.40001
1.40001
1.40001
1.40001
1.40001
1.40001
1.40001
1.40001
1.40001
1.40001
1.40001
1.40001
2.15694
2.15424
2.15027
2.14768
2.14509
2.14715
2.15397
2.16169
2.15271
2.12371
2.06944
1.77198
1.46476
1.40211
1.40002
1.40001
1.40001
1.40001
1.40001
1.40001
1.40001
1.40001
1.40001
1.40001
1.40001
1.40001
1.40001
1.40001
1.40001
1.40001
1.40001
1.40001
1.40001
1.40001
1.40001
2.15188
2.15202
2.15033
2.14865
2.14354