/*--------------------------------*- C++ -*----------------------------------*\
  =========                 |
  \\      /  F ield         | OpenFOAM: The Open Source CFD Toolbox
   \\    /   O peration     | Website:  https://openfoam.org
    \\  /    A nd           | Version:  7
     \\/     M anipulation  |
\*---------------------------------------------------------------------------*/
FoamFile
{
    version     2.0;
    format      ascii;
    class       volScalarField;
    location    "8";
    object      p;
}
// * * * * * * * * * * * * * * * * * * * * * * * * * * * * * * * * * * * * * //

dimensions      [1 -1 -2 0 0 0 0];

internalField   nonuniform List<scalar> 
90000
(
0.168767
0.211634
0.253945
0.290086
0.319548
0.357961
0.401546
0.445962
0.495569
0.547941
0.601911
0.651801
0.701369
0.744241
0.776599
0.805075
0.821784
0.832306
0.832057
0.825236
0.813858
0.8037
0.797195
0.795058
0.797499
0.798753
0.800235
0.803692
0.801111
0.792854
0.788859
0.790918
0.795732
0.803406
0.812135
0.818597
0.822643
0.822568
0.822826
0.824716
0.827767
0.827758
0.826588
0.825387
0.826043
0.826164
0.825294
0.82389
0.824207
0.825075
0.824681
0.823011
0.821948
0.821941
0.822479
0.823292
0.822892
0.822299
0.821924
0.822223
0.822415
0.822877
0.82307
0.822396
0.821707
0.82217
0.82274
0.822726
0.822328
0.823042
0.823904
0.823388
0.82131
0.819526
0.819742
0.820861
0.821302
0.820373
0.818406
0.817287
0.817349
0.818239
0.819204
0.819279
0.818319
0.816597
0.815699
0.815973
0.816637
0.816847
0.815972
0.815054
0.815134
0.816684
0.819531
0.823677
0.829907
0.844905
0.863239
0.901185
0.119041
0.119032
0.119024
0.119011
0.119008
0.118967
0.119885
0.12278
0.129542
0.142041
0.161565
0.189219
0.22619
0.274884
0.332947
0.401418
0.473432
0.548259
0.614924
0.672479
0.722583
0.761997
0.795376
0.821381
0.838355
0.847466
0.840743
0.833762
0.818746
0.81227
0.814103
0.815153
0.812976
0.812506
0.809932
0.805858
0.805102
0.807556
0.812044
0.817367
0.823273
0.824826
0.826373
0.827046
0.82559
0.821473
0.816249
0.813946
0.815157
0.818267
0.821189
0.823687
0.824832
0.823966
0.821575
0.819099
0.81788
0.819118
0.821619
0.823171
0.822409
0.820445
0.819452
0.819845
0.821235
0.822192
0.821537
0.820373
0.82097
0.822409
0.82308
0.821913
0.819845
0.818982
0.820081
0.820617
0.819963
0.818657
0.817301
0.816586
0.81703
0.81782
0.818064
0.818671
0.818897
0.817998
0.816885
0.816596
0.81624
0.8156
0.814773
0.814295
0.815374
0.816999
0.819733
0.823947
0.830734
0.844608
0.864772
0.901909
0.119234
0.119252
0.119273
0.119294
0.119316
0.119335
0.119358
0.119289
0.119192
0.119096
0.119001
0.118927
0.118849
0.118819
0.118666
0.120283
0.127016
0.1415
0.1688
0.208094
0.263101
0.328319
0.405368
0.487713
0.568996
0.650868
0.713372
0.772017
0.808614
0.840716
0.849844
0.849152
0.84065
0.833901
0.821716
0.816746
0.812764
0.813474
0.814347
0.814184
0.815402
0.817968
0.82421
0.831138
0.831267
0.827946
0.824189
0.823328
0.821834
0.819252
0.817115
0.818961
0.822435
0.825178
0.8259
0.823666
0.821684
0.820212
0.820964
0.822853
0.824379
0.824374
0.822356
0.820605
0.8213
0.822972
0.823865
0.82289
0.822749
0.824131
0.823993
0.822297
0.820138
0.820321
0.822192
0.822859
0.821078
0.818876
0.817421
0.817589
0.818839
0.819428
0.819035
0.818245
0.817258
0.816872
0.817304
0.818292
0.818504
0.817546
0.815821
0.815176
0.815826
0.817307
0.81983
0.823748
0.831358
0.845507
0.864976
0.902967
0.11938
0.119368
0.119352
0.119335
0.119313
0.119289
0.11926
0.119231
0.119211
0.119197
0.119193
0.11919
0.119195
0.119201
0.119212
0.119218
0.119067
0.118894
0.118772
0.11866
0.118651
0.118483
0.120774
0.129647
0.15117
0.189502
0.249965
0.329859
0.431404
0.533024
0.621039
0.698652
0.752275
0.796928
0.811638
0.822825
0.819636
0.816819
0.81783
0.811978
0.80849
0.809526
0.815989
0.82198
0.821257
0.821101
0.822057
0.825101
0.824636
0.821981
0.818644
0.818262
0.819653
0.821007
0.821846
0.821683
0.821848
0.821521
0.820936
0.820899
0.82174
0.82252
0.821931
0.820893
0.820737
0.821255
0.821889
0.82196
0.82274
0.823955
0.823118
0.821399
0.819647
0.820325
0.822157
0.822311
0.82028
0.818104
0.816808
0.81744
0.819004
0.819512
0.819219
0.817951
0.816215
0.81519
0.815587
0.817002
0.817824
0.817427
0.817195
0.816914
0.816778
0.81757
0.819675
0.823734
0.832103
0.847076
0.86562
0.90382
0.11922
0.119206
0.119192
0.119178
0.119167
0.119159
0.119152
0.11915
0.11915
0.119151
0.119154
0.119155
0.11916
0.119158
0.119162
0.119157
0.119162
0.119189
0.119226
0.119265
0.119307
0.119333
0.119345
0.119189
0.119059
0.118923
0.118897
0.118703
0.122579
0.137768
0.174527
0.233586
0.322521
0.42873
0.539604
0.635907
0.708694
0.761391
0.791973
0.800654
0.807171
0.80966
0.818408
0.818776
0.813903
0.818753
0.827381
0.830434
0.82627
0.822073
0.82086
0.822407
0.822518
0.82111
0.820834
0.822763
0.824922
0.824725
0.823349
0.822247
0.822116
0.822621
0.822763
0.822371
0.822225
0.821914
0.82199
0.822623
0.82398
0.824488
0.822595
0.820722
0.820582
0.822695
0.82368
0.822296
0.819339
0.817697
0.818211
0.819685
0.820636
0.820199
0.819361
0.817196
0.815647
0.815849
0.817195
0.81815
0.81806
0.817534
0.816871
0.816335
0.815861
0.816626
0.819185
0.824303
0.83282
0.848652
0.866388
0.904175
0.119281
0.11928
0.11928
0.119279
0.119278
0.119278
0.119278
0.119278
0.119276
0.119277
0.119273
0.119274
0.119268
0.119269
0.119261
0.119263
0.119256
0.119261
0.119246
0.119249
0.119225
0.119223
0.119191
0.119183
0.119173
0.119183
0.119183
0.119189
0.119169
0.119034
0.118904
0.118855
0.118744
0.1224
0.143027
0.187683
0.266121
0.369307
0.488566
0.589767
0.678286
0.740938
0.768265
0.793377
0.80159
0.81463
0.832322
0.828494
0.821341
0.81999
0.824017
0.82403
0.819205
0.816258
0.818625
0.823136
0.825649
0.824546
0.822142
0.820487
0.819781
0.820332
0.821222
0.821482
0.8209
0.819994
0.820197
0.821339
0.822452
0.821596
0.819475
0.818887
0.820312
0.822496
0.82205
0.819747
0.81772
0.818122
0.819131
0.819775
0.819563
0.818578
0.817597
0.817159
0.81727
0.817626
0.817906
0.817508
0.816557
0.815959
0.815617
0.815543
0.816289
0.817507
0.819877
0.824883
0.833566
0.849941
0.867781
0.904684
0.119297
0.119293
0.11929
0.119282
0.119277
0.119269
0.119265
0.119257
0.119255
0.119247
0.119246
0.119237
0.119236
0.119226
0.119225
0.119215
0.119214
0.119204
0.119203
0.119195
0.119193
0.119187
0.11918
0.119173
0.119159
0.119153
0.119132
0.119133
0.119105
0.119103
0.119103
0.119132
0.11916
0.119112
0.119054
0.11905
0.118971
0.119558
0.131521
0.170502
0.240092
0.348196
0.460414
0.581066
0.675386
0.74497
0.781789
0.80176
0.811436
0.82258
0.83517
0.829938
0.821116
0.817456
0.821114
0.822355
0.822148
0.822641
0.823284
0.823127
0.822542
0.821854
0.822045
0.822547
0.822187
0.821351
0.821508
0.822649
0.823329
0.822074
0.819877
0.819344
0.821401
0.82338
0.822454
0.819589
0.817294
0.817826
0.81943
0.820402
0.820113
0.818871
0.817902
0.817486
0.817457
0.818003
0.818635
0.818283
0.816877
0.815944
0.815648
0.81593
0.816276
0.817034
0.819564
0.825577
0.834897
0.850852
0.868951
0.905537
0.119259
0.11926
0.119257
0.119255
0.11925
0.119247
0.119241
0.119239
0.119234
0.119232
0.119227
0.119223
0.119216
0.119211
0.119202
0.119194
0.119185
0.119176
0.119169
0.119162
0.119157
0.11915
0.119145
0.119133
0.11913
0.119119
0.119126
0.119127
0.119138
0.119145
0.119156
0.119161
0.119166
0.119173
0.11919
0.119196
0.119188
0.119174
0.119078
0.118996
0.118959
0.118893
0.128582
0.165387
0.24257
0.356296
0.48334
0.606939
0.710598
0.780102
0.804657
0.81408
0.818059
0.822212
0.829324
0.826126
0.821437
0.819867
0.820932
0.82155
0.821978
0.821458
0.821895
0.823218
0.82301
0.821639
0.82122
0.822257
0.822699
0.821084
0.818885
0.819483
0.822897
0.824286
0.821803
0.818023
0.816533
0.818417
0.820977
0.821234
0.819629
0.817748
0.81674
0.816987
0.818232
0.819577
0.819686
0.818226
0.816144
0.814962
0.814812
0.815256
0.815776
0.816991
0.820264
0.826553
0.836015
0.851894
0.869674
0.906142
0.119307
0.119305
0.119306
0.119305
0.119302
0.119296
0.119291
0.119284
0.119278
0.119271
0.119264
0.119256
0.119248
0.11924
0.119231
0.119221
0.11921
0.119203
0.119193
0.119191
0.119186
0.119189
0.119186
0.119188
0.119184
0.119188
0.119193
0.119207
0.119218
0.119231
0.119236
0.119239
0.11924
0.11924
0.119235
0.119217
0.119192
0.119143
0.119108
0.119076
0.119064
0.119055
0.118994
0.118948
0.118893
0.118899
0.133061
0.181968
0.280991
0.423492
0.563737
0.67887
0.773576
0.805519
0.820827
0.820852
0.821299
0.82294
0.824433
0.823904
0.824622
0.822526
0.822308
0.823754
0.824463
0.824139
0.823723
0.823366
0.822827
0.820666
0.819808
0.821584
0.824511
0.823588
0.819646
0.81723
0.8176
0.82028
0.821379
0.820083
0.818111
0.816871
0.816639
0.81769
0.819074
0.820266
0.819945
0.818123
0.816104
0.814958
0.814787
0.815232
0.815715
0.81706
0.820643
0.827352
0.836969
0.852823
0.870178
0.906659
0.11931
0.119303
0.119299
0.119296
0.119294
0.11929
0.119282
0.119273
0.119264
0.119255
0.119249
0.11924
0.119232
0.119222
0.119216
0.119208
0.119202
0.119195
0.119193
0.119191
0.119195
0.1192
0.11921
0.119214
0.119217
0.119216
0.119221
0.119231
0.119244
0.119255
0.119259
0.119257
0.119249
0.119245
0.119229
0.119213
0.11918
0.119145
0.119107
0.11907
0.119047
0.119019
0.11901
0.119009
0.119009
0.119009
0.118941
0.118907
0.11885
0.124265
0.158546
0.244157
0.392942
0.547654
0.686175
0.759056
0.812781
0.814991
0.818772
0.823253
0.828682
0.826047
0.823854
0.823076
0.822927
0.822959
0.824277
0.824816
0.823267
0.820954
0.821556
0.824865
0.825677
0.822903
0.818145
0.817114
0.819367
0.822287
0.821751
0.819378
0.817415
0.816714
0.817278
0.818501
0.819406
0.819361
0.818303
0.816711
0.815475
0.815021
0.815322
0.815944
0.816596
0.81822
0.822034
0.828695
0.837793
0.853172
0.870378
0.906901
0.119318
0.119311
0.119304
0.119301
0.119299
0.119297
0.119291
0.119285
0.119279
0.119274
0.119268
0.119264
0.11926
0.119257
0.119254
0.119254
0.119251
0.119252
0.119251
0.119254
0.119257
0.119265
0.119273
0.119282
0.119285
0.119283
0.119284
0.119287
0.119296
0.1193
0.119303
0.119294
0.119286
0.119273
0.119262
0.119242
0.119217
0.119187
0.119153
0.119127
0.119108
0.119105
0.119111
0.119118
0.11912
0.119106
0.119098
0.11912
0.119143
0.119062
0.118999
0.118899
0.120521
0.152613
0.236931
0.392036
0.567657
0.692788
0.781099
0.812193
0.82447
0.824745
0.824777
0.824492
0.823356
0.822276
0.823812
0.824415
0.822183
0.821364
0.824642
0.827133
0.825347
0.819665
0.816787
0.81817
0.822554
0.823131
0.820934
0.818286
0.816926
0.817124
0.818506
0.819512
0.819584
0.818506
0.816701
0.815065
0.814593
0.815003
0.81572
0.816453
0.817421
0.819434
0.823234
0.829563
0.83816
0.853128
0.870495
0.907081
0.119299
0.119294
0.119293
0.119295
0.119297
0.119298
0.1193
0.119301
0.119303
0.119304
0.119305
0.119305
0.119308
0.11931
0.119313
0.119316
0.11932
0.119325
0.11933
0.119332
0.119333
0.119337
0.119341
0.119347
0.11935
0.119352
0.119348
0.119345
0.119341
0.119341
0.119339
0.119337
0.119331
0.119323
0.119313
0.119302
0.119287
0.119265
0.119243
0.11922
0.119212
0.119213
0.11922
0.119235
0.119237
0.119232
0.119229
0.119227
0.119198
0.119176
0.119157
0.119137
0.119031
0.118964
0.118855
0.121664
0.154827
0.261332
0.430491
0.593127
0.735954
0.789408
0.817891
0.818185
0.821488
0.822684
0.824296
0.823866
0.820309
0.822061
0.826998
0.827772
0.8238
0.817036
0.816529
0.820476
0.82485
0.82332
0.819801
0.817812
0.817517
0.818474
0.820022
0.820412
0.819219
0.817407
0.815553
0.814249
0.814446
0.815461
0.816249
0.81692
0.818146
0.820543
0.824384
0.830286
0.838283
0.852873
0.870322
0.90691
0.119366
0.119369
0.119373
0.119378
0.119383
0.119388
0.119394
0.119402
0.119408
0.119414
0.11942
0.119424
0.11943
0.119436
0.119443
0.119448
0.119454
0.119458
0.119462
0.119464
0.119465
0.119465
0.119466
0.119465
0.119465
0.119459
0.119451
0.119442
0.119436
0.119432
0.11943
0.119427
0.119422
0.119416
0.11941
0.119406
0.119397
0.119384
0.119366
0.119349
0.119343
0.119346
0.119361
0.119377
0.119383
0.119372
0.119355
0.119331
0.119309
0.119278
0.119229
0.119163
0.119134
0.119113
0.119099
0.118996
0.118962
0.118867
0.124197
0.17608
0.301741
0.491422
0.669093
0.756424
0.812417
0.815189
0.821322
0.82242
0.817874
0.823758
0.826666
0.825333
0.819156
0.816016
0.818911
0.823968
0.824465
0.821077
0.818091
0.818072
0.819464
0.820223
0.820507
0.819956
0.81836
0.816701
0.815259
0.814727
0.815759
0.817095
0.817577
0.817854
0.8189
0.821311
0.824933
0.830392
0.838047
0.85252
0.870022
0.90655
0.119505
0.119509
0.119515
0.119522
0.119529
0.119536
0.119543
0.119551
0.119559
0.119566
0.119572
0.119579
0.119585
0.119591
0.119597
0.119604
0.119609
0.119612
0.119612
0.119612
0.11961
0.119607
0.119603
0.119596
0.119586
0.119574
0.119561
0.119549
0.119539
0.119529
0.119521
0.119512
0.119505
0.119503
0.119502
0.119503
0.119499
0.11949
0.119479
0.119469
0.119463
0.119469
0.119477
0.119488
0.11948
0.119456
0.11942
0.119381
0.119344
0.119294
0.119239
0.119193
0.119153
0.11911
0.119067
0.119061
0.119071
0.119085
0.118972
0.118937
0.118842
0.137843
0.219879
0.395871
0.598627
0.72522
0.802968
0.81547
0.813905
0.825197
0.825863
0.821476
0.814253
0.815999
0.823246
0.826668
0.823669
0.818077
0.816583
0.819111
0.821502
0.82154
0.820306
0.818834
0.817381
0.81647
0.815932
0.816267
0.817733
0.819022
0.819168
0.819045
0.819727
0.822
0.825333
0.830325
0.837766
0.852194
0.869572
0.905962
0.119685
0.119686
0.11969
0.119696
0.119702
0.119707
0.119712
0.119717
0.119722
0.119726
0.119731
0.119736
0.119742
0.119746
0.119749
0.119752
0.119753
0.119752
0.119748
0.119743
0.119736
0.119726
0.119714
0.1197
0.119684
0.119667
0.11965
0.119633
0.119616
0.119601
0.119587
0.119577
0.11957
0.11957
0.119573
0.119577
0.119579
0.119575
0.119572
0.119563
0.11956
0.119556
0.119558
0.119556
0.119542
0.119505
0.119458
0.119406
0.119355
0.119306
0.119256
0.119209
0.119166
0.119142
0.119114
0.119094
0.119078
0.11907
0.119057
0.11907
0.11905
0.11897
0.11885
0.122107
0.170347
0.317594
0.518674
0.694855
0.785482
0.816799
0.819444
0.818356
0.813753
0.820723
0.827983
0.826504
0.819805
0.815916
0.817396
0.821694
0.822273
0.82076
0.818952
0.817582
0.816801
0.816859
0.817356
0.818343
0.819651
0.820551
0.820469
0.820095
0.820242
0.822071
0.825021
0.829871
0.837438
0.851986
0.8691
0.905326
0.119842
0.119842
0.119843
0.119846
0.119849
0.119851
0.119852
0.119852
0.119853
0.119853
0.119852
0.119853
0.119853
0.119852
0.11985
0.119846
0.11984
0.119833
0.119825
0.119814
0.1198
0.119783
0.119764
0.119744
0.119725
0.119706
0.119688
0.11967
0.119653
0.119635
0.119621
0.119612
0.119608
0.11961
0.119616
0.119624
0.119629
0.119628
0.119624
0.119615
0.119601
0.119586
0.119573
0.119563
0.119541
0.119499
0.119446
0.119388
0.119336
0.119295
0.119251
0.119207
0.119181
0.119159
0.119136
0.119108
0.119106
0.119099
0.119104
0.119062
0.119017
0.119028
0.119062
0.118975
0.118953
0.118839
0.143485
0.253332
0.457097
0.646836
0.759599
0.799111
0.808641
0.828424
0.831965
0.825514
0.81434
0.814759
0.820374
0.823668
0.822425
0.819872
0.817652
0.816803
0.817225
0.818672
0.819728
0.820224
0.820476
0.820821
0.820797
0.820484
0.820304
0.821716
0.8244
0.829307
0.837256
0.851908
0.868589
0.904715
0.119942
0.119938
0.119934
0.119931
0.119928
0.119925
0.119923
0.119917
0.119911
0.119906
0.1199
0.119893
0.119886
0.119878
0.119868
0.119857
0.119845
0.119833
0.11982
0.119805
0.119786
0.119765
0.119743
0.119722
0.119703
0.119686
0.119671
0.119658
0.119644
0.11963
0.119619
0.119614
0.119612
0.119615
0.119621
0.11963
0.119637
0.119635
0.11963
0.119615
0.119594
0.11957
0.119549
0.119535
0.119512
0.11948
0.119434
0.119383
0.119338
0.119306
0.119277
0.11925
0.119232
0.119231
0.119219
0.119193
0.119184
0.119181
0.119191
0.119154
0.119148
0.119144
0.119116
0.119133
0.119168
0.11916
0.119136
0.119033
0.131142
0.209181
0.395415
0.615991
0.765253
0.816523
0.820813
0.82237
0.813188
0.81899
0.826432
0.822512
0.820261
0.818337
0.81792
0.817951
0.818844
0.820595
0.821598
0.821446
0.820644
0.820385
0.820481
0.820477
0.820214
0.821103
0.823616
0.828884
0.837318
0.851845
0.867964
0.9042
0.119924
0.119916
0.119909
0.119903
0.119897
0.11989
0.119883
0.119875
0.119865
0.119856
0.119847
0.119838
0.119828
0.119815
0.119801
0.119788
0.119774
0.119761
0.119747
0.119733
0.119716
0.119696
0.119677
0.119661
0.119649
0.119641
0.119635
0.11963
0.119627
0.119622
0.119619
0.119619
0.11962
0.119623
0.119628
0.119636
0.119641
0.119639
0.119628
0.11961
0.119586
0.11956
0.119537
0.119521
0.119509
0.119489
0.119461
0.119421
0.119386
0.119373
0.119365
0.119346
0.119345
0.119354
0.119353
0.119322
0.119303
0.119299
0.119291
0.11928
0.119238
0.119225
0.119218
0.119244
0.119237
0.119235
0.119293
0.119301
0.119262
0.119104
0.1217
0.18526
0.366153
0.58698
0.727541
0.796204
0.805705
0.827033
0.831588
0.820618
0.818193
0.817285
0.81949
0.820551
0.821104
0.821881
0.822013
0.821288
0.819937
0.819405
0.819852
0.820438
0.820337
0.820749
0.82305
0.828588
0.837457
0.851473
0.867075
0.903808
0.119874
0.119866
0.119859
0.119852
0.119844
0.119835
0.119826
0.119816
0.119803
0.119792
0.119783
0.119774
0.119763
0.119749
0.119734
0.11972
0.119709
0.119699
0.11969
0.11968
0.11967
0.119657
0.119647
0.119638
0.119636
0.119638
0.119642
0.11965
0.119659
0.119664
0.119668
0.119671
0.119671
0.119672
0.119676
0.11968
0.11968
0.119674
0.119661
0.119643
0.119619
0.119593
0.119571
0.119562
0.119556
0.119552
0.11954
0.119512
0.119489
0.119494
0.119499
0.119494
0.119497
0.119511
0.119523
0.119487
0.11945
0.119437
0.11941
0.119393
0.119355
0.11934
0.119344
0.119348
0.119347
0.11937
0.119376
0.119357
0.119342
0.119292
0.119137
0.11908
0.119107
0.169938
0.336639
0.57389
0.750516
0.81204
0.824806
0.816693
0.819423
0.817984
0.823111
0.823161
0.822453
0.82162
0.821364
0.820574
0.819373
0.819052
0.819737
0.820693
0.820783
0.821009
0.823145
0.828634
0.837377
0.850533
0.865831
0.903461
0.11982
0.119809
0.119801
0.119795
0.119788
0.119781
0.119775
0.11977
0.119763
0.119757
0.119752
0.119749
0.119744
0.119738
0.119731
0.119724
0.119719
0.119716
0.119714
0.119713
0.119712
0.11971
0.119711
0.119711
0.119714
0.119721
0.119731
0.119746
0.119761
0.119771
0.119777
0.119779
0.119776
0.119771
0.119769
0.119769
0.119764
0.119756
0.119745
0.11973
0.11971
0.119685
0.119668
0.119661
0.11966
0.119666
0.119671
0.119654
0.119637
0.119645
0.119661
0.119657
0.11966
0.119671
0.11967
0.119642
0.119573
0.119541
0.119493
0.119464
0.11943
0.11941
0.119422
0.11941
0.119421
0.119409
0.119419
0.119406
0.119341
0.119266
0.119226
0.11927
0.119336
0.119446
0.119349
0.165086
0.336641
0.557442
0.749297
0.782272
0.819905
0.818636
0.827214
0.824114
0.822479
0.819925
0.820082
0.819752
0.819365
0.819598
0.820297
0.821178
0.821184
0.821317
0.82334
0.828601
0.836898
0.849025
0.864415
0.903315
0.119852
0.119847
0.119844
0.119841
0.119837
0.119833
0.119834
0.119837
0.119839
0.119841
0.119844
0.119847
0.119852
0.119857
0.11986
0.119863
0.119866
0.119869
0.119873
0.119878
0.119882
0.119883
0.119885
0.119887
0.119886
0.119887
0.119892
0.119905
0.11992
0.119932
0.119938
0.119938
0.119932
0.11992
0.119912
0.119907
0.1199
0.119889
0.119873
0.119855
0.119832
0.11981
0.119794
0.119791
0.119787
0.11979
0.119801
0.119791
0.11977
0.119774
0.119787
0.119787
0.119787
0.119792
0.119771
0.119749
0.119666
0.119594
0.119542
0.119503
0.119492
0.119488
0.119503
0.119498
0.119495
0.119495
0.119503
0.119467
0.119417
0.119399
0.119393
0.119468
0.119633
0.119703
0.119717
0.11973
0.119635
0.163259
0.331121
0.577122
0.762871
0.794565
0.823428
0.820183
0.822115
0.818222
0.819792
0.819528
0.820622
0.821086
0.821304
0.821567
0.821369
0.821648
0.823686
0.828408
0.835832
0.847215
0.863059
0.903233
0.120042
0.120041
0.120041
0.12004
0.12004
0.120041
0.120043
0.120046
0.12005
0.120053
0.120056
0.120059
0.120064
0.12007
0.120076
0.12008
0.120084
0.120086
0.120087
0.120088
0.120086
0.120081
0.120077
0.120073
0.120066
0.120057
0.12005
0.120051
0.120058
0.120066
0.120067
0.12006
0.120045
0.120024
0.120004
0.119992
0.119984
0.119969
0.119948
0.119928
0.119911
0.119896
0.119891
0.11989
0.119883
0.119872
0.11988
0.119875
0.119849
0.119845
0.119856
0.119867
0.119861
0.119861
0.11982
0.119789
0.119722
0.119633
0.11959
0.119565
0.119582
0.11959
0.119612
0.119611
0.119615
0.119615
0.119604
0.119613
0.119601
0.119629
0.119669
0.119817
0.120021
0.119958
0.119961
0.120163
0.120295
0.120405
0.12044
0.176186
0.34722
0.575068
0.76391
0.788159
0.820342
0.816693
0.823135
0.820239
0.82245
0.822136
0.822437
0.821633
0.820983
0.82128
0.823619
0.827691
0.834417
0.845598
0.862293
0.903531
0.120274
0.120271
0.120267
0.120265
0.120262
0.120258
0.120254
0.120251
0.120248
0.120245
0.120243
0.120241
0.120241
0.120241
0.120239
0.120237
0.120237
0.120236
0.120233
0.120231
0.120227
0.120218
0.120208
0.120199
0.120185
0.120168
0.120148
0.120132
0.120125
0.120123
0.120119
0.120108
0.120088
0.120062
0.120034
0.120016
0.12001
0.120002
0.119985
0.119974
0.119971
0.11997
0.119975
0.119973
0.11996
0.119937
0.119932
0.11993
0.119908
0.119902
0.119915
0.119934
0.119944
0.119923
0.119871
0.119818
0.119794
0.11974
0.119716
0.119728
0.119765
0.119799
0.119824
0.119831
0.119831
0.119856
0.119869
0.119899
0.119959
0.119996
0.12014
0.12029
0.120375
0.120395
0.120398
0.120604
0.120897
0.12085
0.121014
0.12111
0.121076
0.183157
0.365395
0.596798
0.782064
0.794851
0.825333
0.820306
0.824489
0.820974
0.822238
0.821188
0.821449
0.821382
0.823568
0.826343
0.832787
0.84457
0.861755
0.9033
0.12039
0.120392
0.12039
0.120387
0.120382
0.120372
0.120359
0.120346
0.120334
0.12032
0.120308
0.1203
0.120294
0.120287
0.120277
0.120267
0.12026
0.120256
0.120249
0.120247
0.120248
0.120239
0.120225
0.120213
0.120196
0.120177
0.120147
0.120113
0.120088
0.120077
0.120074
0.120067
0.120052
0.120035
0.120013
0.119994
0.119995
0.120005
0.120005
0.120007
0.120024
0.12004
0.120048
0.120035
0.120011
0.119988
0.119973
0.119982
0.119985
0.119996
0.120023
0.12004
0.120076
0.120035
0.119971
0.119926
0.11994
0.119961
0.120004
0.120079
0.120133
0.120173
0.120172
0.120184
0.120178
0.120237
0.120261
0.120305
0.120404
0.120473
0.120674
0.120767
0.120748
0.120814
0.120878
0.12107
0.121525
0.121499
0.121427
0.121918
0.122405
0.122713
0.122953
0.194613
0.398668
0.619966
0.788219
0.797616
0.824657
0.818709
0.823759
0.819556
0.821153
0.821085
0.823726
0.825106
0.831354
0.843852
0.861294
0.903073
0.120485
0.120487
0.120487
0.120483
0.120483
0.120477
0.120456
0.120434
0.120415
0.120393
0.120372
0.120354
0.120337
0.120317
0.120298
0.120282
0.120271
0.120263
0.120253
0.120248
0.120251
0.120244
0.120229
0.120218
0.120206
0.120195
0.120174
0.120135
0.120099
0.12008
0.120079
0.120079
0.120072
0.120066
0.120056
0.120045
0.120054
0.120082
0.120106
0.120121
0.120154
0.120196
0.120205
0.120172
0.120132
0.120121
0.120123
0.12015
0.120186
0.120223
0.120274
0.120284
0.120314
0.120313
0.120241
0.120212
0.12026
0.120352
0.120452
0.120557
0.12061
0.120642
0.120628
0.120621
0.120624
0.120658
0.120759
0.120832
0.12094
0.121112
0.121229
0.121263
0.121255
0.121394
0.121779
0.121857
0.122133
0.122737
0.122867
0.123239
0.123881
0.124491
0.125411
0.125961
0.128096
0.215304
0.431082
0.642913
0.794397
0.799589
0.825891
0.821185
0.82498
0.82021
0.822948
0.823674
0.831126
0.843614
0.859548
0.901273
0.120479
0.120477
0.120476
0.120476
0.120478
0.120477
0.120467
0.120452
0.120437
0.120423
0.120407
0.120386
0.120362
0.12034
0.120323
0.120311
0.120301
0.120292
0.120279
0.12027
0.120276
0.120283
0.120278
0.120275
0.120284
0.120279
0.120267
0.120242
0.120215
0.120202
0.120207
0.12022
0.120236
0.120262
0.120281
0.120292
0.120313
0.120352
0.120393
0.12041
0.120432
0.12049
0.120503
0.120453
0.120396
0.120393
0.120425
0.120476
0.120547
0.120603
0.120655
0.12068
0.120662
0.120677
0.120657
0.120669
0.12075
0.120878
0.120976
0.121056
0.1211
0.121114
0.121112
0.121107
0.121141
0.121209
0.121367
0.12152
0.121626
0.121859
0.121882
0.121854
0.121983
0.122394
0.123002
0.123254
0.123319
0.124063
0.124868
0.125419
0.126247
0.127001
0.128002
0.129211
0.130543
0.131131
0.137825
0.245265
0.473907
0.676839
0.802102
0.803655
0.826481
0.822831
0.825472
0.821335
0.830052
0.842601
0.858252
0.900362
0.12066
0.120666
0.120672
0.12068
0.12069
0.120698
0.120704
0.12071
0.120718
0.120722
0.120715
0.120702
0.120684
0.120663
0.120647
0.120641
0.120638
0.120628
0.120613
0.120605
0.120615
0.120632
0.120632
0.120632
0.120651
0.120654
0.120641
0.120629
0.120616
0.120616
0.120631
0.120654
0.12069
0.120747
0.120794
0.120821
0.120846
0.120867
0.12088
0.120879
0.120873
0.120895
0.12091
0.120882
0.120827
0.120822
0.120888
0.120954
0.121026
0.121083
0.1211
0.121096
0.121076
0.121099
0.121158
0.121202
0.121298
0.121445
0.12157
0.121636
0.12165
0.121633
0.121687
0.121739
0.121863
0.122024
0.122207
0.122512
0.122642
0.122781
0.122917
0.12311
0.123595
0.124097
0.124601
0.125566
0.126239
0.126568
0.127486
0.128473
0.129554
0.130595
0.13152
0.132796
0.134356
0.135822
0.137083
0.137926
0.152531
0.283772
0.526263
0.707118
0.805306
0.807973
0.828189
0.823766
0.832839
0.839372
0.854294
0.898786
0.121069
0.121081
0.121097
0.121112
0.121126
0.121137
0.121151
0.12117
0.121191
0.121212
0.121221
0.121213
0.121197
0.121178
0.121165
0.121155
0.121147
0.121151
0.121156
0.121148
0.121137
0.121122
0.121111
0.121119
0.121155
0.121172
0.121167
0.121158
0.121147
0.121149
0.121164
0.12119
0.121224
0.121272
0.121333
0.121373
0.12138
0.121369
0.121346
0.121331
0.121328
0.121332
0.121341
0.121339
0.121309
0.121291
0.121356
0.121429
0.12151
0.121588
0.121628
0.121617
0.121635
0.121702
0.121816
0.121914
0.122023
0.122152
0.122308
0.122392
0.122432
0.122455
0.122584
0.122764
0.123069
0.123451
0.123716
0.124024
0.124231
0.124305
0.124748
0.125603
0.126418
0.127074
0.127545
0.128311
0.129507
0.130288
0.131171
0.132173
0.133307
0.134681
0.135992
0.137298
0.138822
0.140394
0.141465
0.143288
0.144393
0.145083
0.172738
0.333837
0.574412
0.739241
0.809566
0.81316
0.835803
0.839755
0.851945
0.897214
0.121731
0.121728
0.121735
0.121753
0.121768
0.12178
0.121794
0.121805
0.121814
0.121822
0.121832
0.121834
0.121817
0.121797
0.121779
0.121766
0.121766
0.121779
0.121787
0.121778
0.121753
0.121725
0.121705
0.121704
0.121742
0.121804
0.121838
0.121846
0.121848
0.121859
0.121868
0.121888
0.12192
0.121924
0.121953
0.122004
0.122015
0.122003
0.121987
0.121974
0.121995
0.121988
0.121957
0.121939
0.121943
0.121978
0.122066
0.122198
0.122322
0.122416
0.122493
0.122562
0.122601
0.1227
0.122823
0.123041
0.123175
0.123234
0.123354
0.12357
0.123836
0.124106
0.12438
0.124788
0.125203
0.125681
0.126059
0.126337
0.12688
0.127544
0.128359
0.129281
0.129973
0.130818
0.131871
0.132672
0.133547
0.134827
0.136123
0.137247
0.138225
0.139595
0.141115
0.142402
0.143616
0.145059
0.146991
0.148241
0.149773
0.151893
0.152872
0.153569
0.198641
0.391822
0.628373
0.763261
0.820369
0.830134
0.852484
0.897766
0.122183
0.122179
0.122175
0.122179
0.1222
0.122226
0.122253
0.122277
0.122299
0.12231
0.122317
0.122323
0.122328
0.122327
0.122326
0.122345
0.122381
0.122416
0.12246
0.122468
0.122432
0.122409
0.122421
0.122449
0.122492
0.122563
0.122667
0.12275
0.122753
0.122737
0.122724
0.122723
0.122745
0.122727
0.122711
0.122752
0.122814
0.122855
0.122911
0.122952
0.122958
0.122968
0.122982
0.123022
0.123089
0.123225
0.123423
0.123561
0.123652
0.123754
0.123911
0.124153
0.124377
0.124562
0.124769
0.125046
0.125357
0.125495
0.125704
0.126083
0.126576
0.127146
0.127641
0.128202
0.128717
0.129245
0.129888
0.130564
0.131354
0.13231
0.133117
0.13386
0.13482
0.135682
0.136837
0.138125
0.139049
0.140032
0.141248
0.142618
0.143701
0.144917
0.146344
0.147955
0.149379
0.150822
0.152386
0.153993
0.15526
0.156921
0.158547
0.160302
0.161361
0.163754
0.2336
0.450343
0.685227
0.783159
0.846399
0.900112
0.123349
0.123358
0.123371
0.123394
0.123423
0.123436
0.123446
0.123475
0.12352
0.123541
0.123537
0.123545
0.123568
0.123591
0.123621
0.123673
0.123731
0.123773
0.123839
0.12387
0.123878
0.123886
0.123902
0.123924
0.123946
0.123965
0.124016
0.124116
0.12413
0.124102
0.12412
0.124195
0.124249
0.124313
0.12437
0.124328
0.124306
0.124368
0.12452
0.124744
0.124878
0.124972
0.125172
0.12546
0.12572
0.125889
0.126074
0.126243
0.126418
0.126648
0.12693
0.127226
0.127582
0.127897
0.128144
0.12842
0.128866
0.129473
0.130022
0.130575
0.131154
0.131818
0.132541
0.133207
0.133913
0.134521
0.135228
0.136098
0.136897
0.137914
0.13884
0.139655
0.140821
0.142083
0.142938
0.143876
0.145284
0.146516
0.147389
0.148732
0.150235
0.151456
0.152827
0.154167
0.155667
0.156831
0.157997
0.159773
0.161114
0.162463
0.164238
0.165852
0.167498
0.169385
0.169991
0.182248
0.280612
0.532603
0.750649
0.879033
0.125388
0.125384
0.125372
0.125376
0.125383
0.125362
0.125345
0.125341
0.125348
0.125366
0.125393
0.125425
0.125466
0.125511
0.125565
0.125613
0.125656
0.125711
0.125778
0.125869
0.125977
0.126083
0.126166
0.126207
0.126278
0.126331
0.126343
0.126416
0.126544
0.126701
0.126904
0.127206
0.127433
0.127568
0.127741
0.127837
0.12788
0.128001
0.128264
0.128649
0.128978
0.129203
0.129428
0.129704
0.129987
0.130267
0.1305
0.130782
0.131118
0.131498
0.131831
0.132168
0.13258
0.133098
0.133659
0.134207
0.1348
0.135508
0.136243
0.136908
0.137535
0.138141
0.138802
0.13943
0.140197
0.140972
0.141802
0.142813
0.143775
0.144666
0.145828
0.146864
0.147588
0.148716
0.14989
0.150773
0.15195
0.153406
0.154459
0.15542
0.156715
0.158046
0.159264
0.160478
0.161844
0.163392
0.164861
0.166112
0.16776
0.169339
0.170832
0.172083
0.17348
0.175259
0.176907
0.178368
0.179094
0.214142
0.359548
0.736123
0.129107
0.129174
0.12926
0.129356
0.129452
0.129544
0.129637
0.129722
0.129835
0.129972
0.130076
0.130168
0.130255
0.130337
0.13044
0.130549
0.130632
0.130747
0.130888
0.131011
0.131173
0.131375
0.131548
0.131734
0.131958
0.132173
0.132349
0.132513
0.132669
0.132812
0.132946
0.133127
0.133365
0.133555
0.133737
0.133973
0.134255
0.134512
0.134757
0.134997
0.135222
0.135461
0.135719
0.135994
0.136291
0.136639
0.137066
0.13751
0.137955
0.138393
0.138891
0.139447
0.140042
0.140635
0.141257
0.14192
0.142501
0.143059
0.143665
0.14428
0.144957
0.145633
0.146404
0.147202
0.148008
0.148978
0.149918
0.150821
0.151836
0.15265
0.153406
0.154501
0.155428
0.15624
0.157433
0.158851
0.159729
0.160642
0.162017
0.163046
0.164227
0.165583
0.16676
0.168154
0.16929
0.170768
0.171932
0.173244
0.174673
0.175787
0.177186
0.178817
0.18005
0.18154
0.183292
0.184059
0.185508
0.186735
0.187265