/*--------------------------------*- C++ -*----------------------------------*\
  =========                 |
  \\      /  F ield         | OpenFOAM: The Open Source CFD Toolbox
   \\    /   O peration     | Website:  https://openfoam.org
    \\  /    A nd           | Version:  7
     \\/     M anipulation  |
\*---------------------------------------------------------------------------*/
FoamFile
{
    version     2.0;
    format      ascii;
    class       volScalarField;
    location    "3";
    object      rho;
}
// * * * * * * * * * * * * * * * * * * * * * * * * * * * * * * * * * * * * * //

dimensions      [1 -3 0 0 0 0 0];

internalField   nonuniform List<scalar> 
90000
(
1.19769
1.19801
1.19967
1.20064
1.20148
1.20453
1.20717
1.20961
1.21232
1.21599
1.21931
1.22274
1.22593
1.22962
1.23292
1.23676
1.2404
1.24448
1.24833
1.25267
1.25683
1.26182
1.26676
1.27305
1.2794
1.28738
1.29524
1.30393
1.312
1.32008
1.32688
1.33356
1.33804
1.34346
1.34582
1.3467
1.34876
1.3498
1.35158
1.35052
1.3465
1.33681
1.32588
1.3169
1.31105
1.30983
1.31127
1.31438
1.3185
1.32286
1.32629
1.32895
1.3306
1.33048
1.32993
1.32752
1.32415
1.32017
1.31672
1.31566
1.31623
1.31874
1.32262
1.32735
1.33117
1.33132
1.32989
1.32735
1.32362
1.32247
1.32334
1.32562
1.32974
1.33037
1.33009
1.32838
1.32685
1.3269
1.32815
1.33114
1.33117
1.33083
1.32936
1.32853
1.32907
1.33052
1.33104
1.33064
1.33061
1.33142
1.33328
1.33326
1.33255
1.33138
1.3302
1.3278
1.32409
1.32017
1.31552
1.31077
1.19844
1.19851
1.19871
1.19892
1.19985
1.20156
1.20334
1.20504
1.20698
1.20945
1.21226
1.21518
1.21818
1.22143
1.22502
1.22832
1.23168
1.23509
1.23859
1.2422
1.24584
1.24976
1.25381
1.25825
1.26312
1.26829
1.27446
1.2806
1.28777
1.29529
1.30262
1.31093
1.3183
1.32564
1.33317
1.33913
1.34462
1.34931
1.35201
1.35252
1.35288
1.35262
1.35245
1.35078
1.3463
1.34009
1.33389
1.32877
1.32521
1.32505
1.32585
1.3276
1.32987
1.33264
1.33523
1.33734
1.33845
1.3371
1.33422
1.33052
1.32758
1.32615
1.32672
1.32845
1.33096
1.3341
1.33787
1.33775
1.33603
1.33268
1.33024
1.3304
1.33179
1.33456
1.33739
1.33705
1.33505
1.33289
1.33298
1.33417
1.33626
1.33659
1.33597
1.33475
1.33436
1.33483
1.33527
1.33537
1.33542
1.33571
1.33664
1.33759
1.33737
1.3362
1.33453
1.33157
1.3274
1.3232
1.31866
1.31363
1.19976
1.19981
1.19985
1.19991
1.19999
1.20007
1.20019
1.20036
1.20061
1.20093
1.20137
1.20204
1.20292
1.20401
1.20536
1.20692
1.20868
1.2107
1.21289
1.21533
1.21792
1.2207
1.22376
1.22695
1.23054
1.23423
1.23839
1.24288
1.24788
1.25349
1.25997
1.26664
1.27487
1.28287
1.29242
1.30195
1.31207
1.32167
1.33123
1.33923
1.34534
1.35126
1.35435
1.35539
1.35584
1.35654
1.35724
1.3564
1.35322
1.34866
1.34404
1.34079
1.33792
1.33807
1.33869
1.34022
1.34221
1.34418
1.34675
1.3469
1.3455
1.34188
1.33808
1.33504
1.3353
1.33741
1.34108
1.34439
1.34738
1.34634
1.34315
1.34009
1.33906
1.34017
1.34222
1.34458
1.34433
1.34256
1.34059
1.34089
1.34207
1.3433
1.34312
1.34218
1.34092
1.34096
1.34153
1.34188
1.34176
1.34175
1.3423
1.34328
1.3431
1.3421
1.34033
1.33751
1.33284
1.32798
1.32374
1.31849
1.20227
1.2023
1.20233
1.20237
1.20237
1.20238
1.2024
1.20241
1.20243
1.20247
1.20255
1.20259
1.20267
1.20278
1.2029
1.20304
1.20319
1.2034
1.20367
1.204
1.20454
1.20526
1.20619
1.20737
1.20879
1.21052
1.21246
1.21479
1.21751
1.22069
1.22453
1.22881
1.23391
1.2398
1.24667
1.25464
1.2635
1.27387
1.28501
1.29682
1.31006
1.32152
1.33335
1.34241
1.35041
1.35557
1.35805
1.35792
1.35777
1.35722
1.35609
1.35429
1.35089
1.3479
1.34574
1.3457
1.3462
1.34731
1.34842
1.34907
1.34952
1.3494
1.3485
1.34651
1.34437
1.34359
1.34442
1.3459
1.34806
1.35015
1.35237
1.35169
1.34937
1.34692
1.34647
1.34777
1.34929
1.35071
1.34951
1.34766
1.34696
1.34788
1.34945
1.34931
1.34838
1.34731
1.34744
1.34778
1.34783
1.34775
1.34786
1.34853
1.34861
1.34794
1.34609
1.34317
1.33833
1.33305
1.32854
1.32332
1.20456
1.20457
1.20458
1.2046
1.20462
1.20464
1.20465
1.20465
1.20464
1.20463
1.20463
1.2046
1.20456
1.20456
1.20457
1.20459
1.20463
1.20468
1.20475
1.20487
1.20487
1.20489
1.20492
1.205
1.20511
1.20527
1.20542
1.20561
1.206
1.20668
1.20761
1.20884
1.21032
1.21236
1.2149
1.21843
1.22256
1.22811
1.23463
1.24304
1.25267
1.26445
1.2776
1.29118
1.30653
1.31858
1.33154
1.33892
1.34656
1.3497
1.35332
1.35334
1.35406
1.35562
1.35636
1.35598
1.35505
1.35356
1.35152
1.35009
1.35019
1.35064
1.35151
1.35269
1.35258
1.35142
1.34984
1.34846
1.34891
1.35062
1.35288
1.35424
1.35531
1.35443
1.35261
1.35114
1.35151
1.35256
1.35407
1.35371
1.35245
1.35149
1.35212
1.35338
1.35326
1.35245
1.35156
1.35176
1.35217
1.35217
1.35208
1.35231
1.35284
1.35259
1.35107
1.34782
1.3427
1.33673
1.33254
1.32747
1.20638
1.20639
1.20639
1.2064
1.2064
1.20641
1.20642
1.20643
1.20643
1.20642
1.20641
1.2064
1.20634
1.20629
1.20628
1.20628
1.20628
1.20627
1.20624
1.20618
1.20611
1.206
1.20593
1.20593
1.20594
1.20593
1.2059
1.20593
1.2059
1.20587
1.20585
1.20587
1.20592
1.20603
1.20624
1.20662
1.20729
1.20843
1.21003
1.21256
1.21589
1.22098
1.22724
1.23647
1.2469
1.26079
1.27534
1.2915
1.30777
1.32103
1.33495
1.34325
1.35177
1.35473
1.35619
1.35586
1.35538
1.35444
1.35331
1.35183
1.352
1.35298
1.35402
1.35471
1.35437
1.35362
1.35261
1.35151
1.35086
1.35132
1.35222
1.35416
1.3555
1.3561
1.35611
1.35527
1.3542
1.35381
1.35432
1.35486
1.35537
1.3548
1.35409
1.3545
1.35533
1.35526
1.35474
1.35415
1.35433
1.35461
1.35461
1.35458
1.35475
1.35453
1.35332
1.35054
1.34565
1.33922
1.33439
1.32982
1.20704
1.20704
1.20704
1.20704
1.20704
1.20704
1.20705
1.20706
1.20707
1.20707
1.20707
1.20707
1.20704
1.20695
1.20691
1.20691
1.20691
1.20692
1.20692
1.20688
1.20682
1.20677
1.20671
1.20667
1.20664
1.2066
1.20652
1.20642
1.20631
1.2062
1.2061
1.20602
1.20597
1.20595
1.20588
1.20579
1.20573
1.20566
1.20567
1.20573
1.20598
1.2066
1.2077
1.20966
1.21257
1.21756
1.22406
1.23441
1.24632
1.26228
1.27869
1.29589
1.31342
1.3246
1.33689
1.34149
1.34682
1.34808
1.35057
1.35331
1.35614
1.35701
1.35662
1.35597
1.35472
1.35384
1.35331
1.35351
1.35362
1.35327
1.35326
1.35344
1.35429
1.35561
1.35611
1.35662
1.35636
1.35558
1.35494
1.35511
1.35556
1.35611
1.35586
1.35543
1.35564
1.35613
1.3562
1.35588
1.35547
1.35559
1.35571
1.35582
1.3558
1.35547
1.354
1.35172
1.34742
1.34077
1.33563
1.33132
1.20726
1.2072
1.20717
1.20717
1.20716
1.20716
1.20716
1.20716
1.20716
1.20716
1.20717
1.20717
1.20715
1.20709
1.20701
1.20699
1.20699
1.20699
1.20699
1.20695
1.20692
1.20691
1.2069
1.20687
1.20681
1.20673
1.20668
1.20664
1.20657
1.20646
1.20636
1.20629
1.20622
1.20613
1.20599
1.20584
1.2057
1.20557
1.20545
1.20532
1.20516
1.20512
1.20512
1.20516
1.20533
1.20579
1.20675
1.20869
1.21182
1.21772
1.22555
1.2383
1.2527
1.27122
1.29022
1.30754
1.32462
1.33584
1.34693
1.35104
1.35427
1.35516
1.35485
1.35262
1.35216
1.35278
1.35403
1.35563
1.35581
1.35521
1.35396
1.35311
1.35317
1.35373
1.3553
1.35632
1.3564
1.35624
1.35575
1.35555
1.35567
1.35599
1.35615
1.35603
1.3559
1.35614
1.35663
1.35663
1.35632
1.35599
1.35596
1.35603
1.35625
1.35606
1.35461
1.35184
1.348
1.34182
1.3361
1.33165
1.20745
1.20741
1.20738
1.20736
1.20732
1.20729
1.20727
1.20725
1.20721
1.2072
1.20719
1.20719
1.20718
1.20717
1.20713
1.20707
1.207
1.20697
1.20696
1.20696
1.20696
1.20696
1.20693
1.20687
1.20679
1.20672
1.20669
1.20664
1.20657
1.20649
1.20643
1.20638
1.20633
1.20625
1.20613
1.20598
1.20581
1.20563
1.20545
1.20526
1.20506
1.20491
1.20478
1.20478
1.20479
1.20482
1.20487
1.20497
1.20518
1.2057
1.20681
1.20932
1.21353
1.22173
1.23252
1.24927
1.26708
1.2871
1.30672
1.32016
1.33358
1.33951
1.3448
1.34674
1.35172
1.35484
1.35692
1.35705
1.35672
1.35571
1.35445
1.35294
1.35297
1.35352
1.35431
1.35506
1.35585
1.35584
1.35615
1.35616
1.35606
1.35599
1.35601
1.35605
1.3561
1.35621
1.35655
1.35688
1.35682
1.35647
1.35612
1.35607
1.35623
1.35598
1.35475
1.35176
1.34807
1.34227
1.33607
1.33168
1.20783
1.2078
1.20775
1.2077
1.20764
1.20759
1.20755
1.2075
1.20746
1.20742
1.20739
1.20737
1.20736
1.20733
1.20729
1.20723
1.20714
1.20705
1.20701
1.20701
1.20699
1.20697
1.20693
1.20686
1.20677
1.20672
1.2067
1.20667
1.20664
1.20661
1.20656
1.20652
1.20647
1.20641
1.20632
1.2062
1.20606
1.2059
1.20571
1.20549
1.2053
1.20515
1.20502
1.20491
1.20489
1.2049
1.20494
1.20501
1.20517
1.20526
1.20534
1.20547
1.20575
1.20663
1.20848
1.21287
1.21983
1.23254
1.24811
1.26882
1.29033
1.30903
1.32759
1.34008
1.3493
1.35227
1.35509
1.35472
1.35316
1.35272
1.35339
1.35421
1.35483
1.35463
1.35427
1.35386
1.3543
1.35488
1.35603
1.3564
1.35632
1.356
1.35589
1.35603
1.35619
1.35635
1.35651
1.35678
1.35698
1.35686
1.35653
1.35631
1.35614
1.35573
1.35459
1.35167
1.34793
1.34231
1.33589
1.33181
1.20776
1.20773
1.2077
1.20766
1.20763
1.20759
1.20756
1.20752
1.2075
1.20749
1.20747
1.20745
1.20743
1.20741
1.20739
1.20734
1.20729
1.20727
1.20724
1.20721
1.2072
1.20721
1.20721
1.20718
1.20711
1.20704
1.20701
1.20701
1.20703
1.20703
1.207
1.20695
1.20692
1.20689
1.20685
1.20678
1.20668
1.20654
1.20638
1.20619
1.206
1.20585
1.20574
1.20561
1.2055
1.20548
1.20548
1.20549
1.20553
1.20561
1.20572
1.20588
1.20613
1.20611
1.20613
1.20627
1.20689
1.20885
1.21278
1.22164
1.23393
1.25311
1.27428
1.29531
1.31626
1.32658
1.33915
1.34251
1.34743
1.35119
1.35581
1.35668
1.35637
1.35528
1.35322
1.35327
1.35378
1.35507
1.35583
1.35617
1.35601
1.35589
1.3561
1.35632
1.35636
1.35642
1.35651
1.35676
1.35709
1.35712
1.35696
1.35667
1.35621
1.35564
1.35434
1.35154
1.3477
1.34219
1.33573
1.33202
1.20773
1.20771
1.2077
1.20771
1.20771
1.2077
1.2077
1.20767
1.20765
1.20763
1.20763
1.20763
1.20764
1.20764
1.20763
1.20762
1.20761
1.2076
1.2076
1.20761
1.20764
1.20769
1.20772
1.20771
1.20766
1.20762
1.20762
1.20763
1.20766
1.20769
1.2077
1.20769
1.20769
1.20769
1.20767
1.20764
1.20755
1.2074
1.20725
1.20709
1.2069
1.20671
1.20652
1.20631
1.20616
1.20613
1.20611
1.20609
1.20608
1.20611
1.20623
1.20643
1.20665
1.2067
1.20672
1.20675
1.20665
1.20658
1.20671
1.20759
1.2098
1.21566
1.22481
1.24174
1.26106
1.28439
1.30756
1.32442
1.34282
1.3487
1.35368
1.35478
1.35328
1.35202
1.35268
1.35407
1.35547
1.35566
1.35541
1.35523
1.35545
1.35624
1.35679
1.35669
1.35646
1.35647
1.35671
1.35707
1.35725
1.35725
1.35721
1.35713
1.35675
1.35586
1.35411
1.35137
1.34755
1.34184
1.33583
1.33243
1.2076
1.20758
1.20758
1.20759
1.2076
1.2076
1.2076
1.20758
1.20755
1.20754
1.20754
1.20754
1.20753
1.20754
1.20756
1.20758
1.20759
1.2076
1.20762
1.20766
1.20771
1.20778
1.20784
1.2079
1.20792
1.20793
1.20796
1.20802
1.20811
1.20822
1.20832
1.20841
1.2085
1.20862
1.20872
1.20874
1.20872
1.20865
1.20854
1.20839
1.20822
1.20804
1.20783
1.20753
1.20727
1.20715
1.20706
1.20699
1.20697
1.20698
1.20708
1.20727
1.20749
1.20766
1.20767
1.20762
1.20748
1.20727
1.20712
1.20702
1.20709
1.2075
1.20881
1.21256
1.21922
1.23322
1.2503
1.27392
1.29804
1.3153
1.3326
1.33958
1.34465
1.35052
1.35471
1.35694
1.35679
1.35576
1.35448
1.35476
1.35598
1.357
1.35695
1.3567
1.35656
1.35685
1.35735
1.35762
1.35747
1.35745
1.35756
1.35773
1.35748
1.35638
1.35422
1.35134
1.34761
1.34149
1.33617
1.33286
1.20744
1.20743
1.20743
1.20743
1.20743
1.20743
1.20743
1.20741
1.20739
1.20738
1.20738
1.20737
1.20737
1.20737
1.20739
1.2074
1.20742
1.20745
1.20748
1.20753
1.20758
1.20765
1.20773
1.20781
1.20789
1.20799
1.20809
1.20821
1.20834
1.20847
1.2086
1.20873
1.20884
1.20897
1.20912
1.20927
1.20938
1.20944
1.20944
1.20942
1.20936
1.20929
1.20919
1.209
1.20873
1.20846
1.20822
1.20805
1.20798
1.20798
1.20803
1.20815
1.20832
1.20852
1.20861
1.20857
1.20843
1.20819
1.20786
1.20745
1.20729
1.20734
1.2075
1.20787
1.20874
1.21117
1.21591
1.22731
1.2427
1.26713
1.29204
1.31443
1.33579
1.34822
1.35212
1.35525
1.35395
1.35224
1.3536
1.35585
1.35724
1.35703
1.35649
1.35645
1.35693
1.35781
1.35798
1.35786
1.35768
1.35781
1.35818
1.35834
1.35812
1.35701
1.35457
1.35148
1.34774
1.34132
1.33634
1.33323
1.20796
1.20797
1.20798
1.20799
1.208
1.208
1.208
1.208
1.20799
1.20798
1.20797
1.20795
1.20792
1.20789
1.20786
1.20786
1.20787
1.20788
1.2079
1.20792
1.20795
1.208
1.20805
1.20811
1.20818
1.20824
1.20832
1.20841
1.20851
1.20861
1.20871
1.20882
1.20892
1.20904
1.20918
1.20934
1.2095
1.20965
1.20982
1.20994
1.20997
1.20997
1.20997
1.20992
1.20979
1.20956
1.2093
1.20909
1.20903
1.20905
1.20911
1.20916
1.20922
1.20935
1.20952
1.20956
1.20952
1.20938
1.20909
1.20862
1.20808
1.20789
1.20788
1.208
1.20827
1.20858
1.20896
1.21043
1.21403
1.22376
1.23834
1.26205
1.28719
1.31063
1.32617
1.33973
1.34427
1.3508
1.35707
1.35777
1.35728
1.35559
1.35572
1.35656
1.35797
1.35869
1.35847
1.35796
1.35804
1.35847
1.35892
1.35901
1.35875
1.35764
1.35526
1.35192
1.34783
1.3415
1.33657
1.33367
1.20872
1.20873
1.20874
1.20875
1.20877
1.20879
1.2088
1.2088
1.20879
1.20878
1.20876
1.20873
1.20869
1.20867
1.20864
1.20861
1.20857
1.20852
1.20848
1.20845
1.20844
1.20844
1.20845
1.20847
1.20849
1.20852
1.20858
1.20865
1.20871
1.20875
1.20877
1.20882
1.2089
1.20902
1.20916
1.20932
1.2095
1.20966
1.20984
1.21007
1.21029
1.21035
1.21036
1.21036
1.21034
1.21025
1.21006
1.20983
1.20967
1.20964
1.20966
1.20971
1.2098
1.20995
1.21013
1.21029
1.21036
1.21035
1.21026
1.20999
1.20949
1.20898
1.20876
1.20875
1.2088
1.20899
1.20931
1.20935
1.20949
1.21046
1.21348
1.22181
1.23631
1.25868
1.28617
1.31154
1.33234
1.3485
1.35467
1.35611
1.35295
1.35323
1.35521
1.35766
1.35872
1.35862
1.35813
1.3583
1.35897
1.35938
1.35943
1.35933
1.35903
1.35813
1.3561
1.3525
1.34785
1.34153
1.33687
1.33414
1.20964
1.20964
1.20964
1.20964
1.20965
1.20969
1.20972
1.20973
1.20973
1.20971
1.20967
1.20963
1.20961
1.20959
1.20957
1.20955
1.20952
1.20948
1.20943
1.20936
1.20928
1.20921
1.20919
1.20918
1.20917
1.20917
1.20916
1.20916
1.20916
1.20918
1.2092
1.20925
1.20932
1.2094
1.20949
1.2096
1.2097
1.20982
1.20997
1.21022
1.21051
1.21061
1.21063
1.21064
1.21064
1.21062
1.21051
1.21035
1.21019
1.21004
1.20995
1.20996
1.21001
1.21015
1.21037
1.2107
1.21106
1.21126
1.21126
1.21117
1.2109
1.21046
1.21009
1.20994
1.2099
1.20991
1.20998
1.20996
1.20996
1.20988
1.20994
1.21071
1.21352
1.22111
1.23581
1.25769
1.28513
1.31094
1.32767
1.34038
1.34622
1.35336
1.3585
1.35882
1.35846
1.35757
1.35791
1.35916
1.36009
1.36003
1.35977
1.35953
1.35927
1.3586
1.3567
1.35292
1.3479
1.34148
1.33715
1.3345
1.21071
1.21073
1.21075
1.21077
1.21078
1.21078
1.21079
1.21081
1.21082
1.21081
1.2108
1.21078
1.21075
1.21069
1.21067
1.21068
1.21066
1.21063
1.21062
1.21058
1.2105
1.21039
1.21032
1.21027
1.21024
1.2102
1.21013
1.21005
1.21
1.20997
1.20993
1.2099
1.2099
1.20989
1.20989
1.20989
1.20992
1.20999
1.21011
1.21035
1.21064
1.21076
1.21078
1.21079
1.21079
1.21078
1.21074
1.21069
1.21061
1.21046
1.21026
1.21014
1.21014
1.2102
1.2104
1.21079
1.2112
1.21149
1.21159
1.21156
1.21149
1.21135
1.21115
1.21105
1.21105
1.21101
1.21099
1.21095
1.21085
1.21058
1.21033
1.21033
1.21048
1.21129
1.21414
1.2211
1.23654
1.25889
1.28696
1.31496
1.33886
1.35085
1.35697
1.35638
1.35429
1.35579
1.35865
1.36018
1.36011
1.35988
1.35979
1.36002
1.35988
1.35907
1.35691
1.35292
1.34797
1.34154
1.33726
1.33485
1.21173
1.21175
1.21177
1.21181
1.21183
1.21183
1.21183
1.21182
1.21182
1.21181
1.21181
1.21181
1.21177
1.2117
1.21164
1.21161
1.2116
1.21161
1.21163
1.21163
1.21161
1.21155
1.21148
1.21142
1.21137
1.21131
1.21123
1.21113
1.21104
1.21094
1.21084
1.21073
1.21063
1.21054
1.21044
1.21033
1.2103
1.2103
1.21033
1.21047
1.21072
1.21087
1.21091
1.21094
1.21096
1.21097
1.211
1.21103
1.21102
1.21093
1.21075
1.21058
1.21054
1.21056
1.21066
1.21089
1.21121
1.21152
1.21162
1.21159
1.21158
1.21162
1.21162
1.21156
1.21153
1.21156
1.21168
1.21183
1.21187
1.21176
1.21144
1.211
1.21097
1.21103
1.21121
1.21191
1.21464
1.22201
1.23796
1.26216
1.29018
1.3161
1.33419
1.34277
1.35042
1.3581
1.36005
1.35989
1.35878
1.35918
1.3602
1.36072
1.36044
1.35931
1.35684
1.35284
1.34808
1.34169
1.33723
1.33513
1.21227
1.2123
1.21233
1.21233
1.21233
1.21235
1.21238
1.2124
1.2124
1.2124
1.21239
1.21239
1.21237
1.21232
1.21226
1.21223
1.21222
1.21221
1.21221
1.21223
1.21223
1.21221
1.21221
1.21222
1.2122
1.21214
1.21209
1.21205
1.21199
1.21192
1.21183
1.21173
1.21162
1.21152
1.21139
1.21122
1.21112
1.21108
1.21108
1.21111
1.21125
1.21135
1.21136
1.21139
1.21146
1.21148
1.21147
1.21152
1.21156
1.21153
1.21137
1.21123
1.21119
1.21118
1.21119
1.21126
1.21142
1.21152
1.21151
1.21152
1.21155
1.21164
1.21165
1.21163
1.2116
1.21164
1.21178
1.212
1.21228
1.21244
1.21242
1.21221
1.21194
1.21169
1.21163
1.21164
1.21174
1.21239
1.21554
1.22348
1.24135
1.2675
1.29596
1.32522
1.34695
1.35503
1.3582
1.35486
1.35588
1.35828
1.36058
1.36062
1.36027
1.35888
1.35657
1.35297
1.34809
1.34148
1.33693
1.33517
1.21234
1.21241
1.21244
1.21243
1.21236
1.21234
1.21235
1.21232
1.2123
1.2123
1.2123
1.21225
1.21216
1.21215
1.21215
1.21217
1.21224
1.21229
1.2123
1.21232
1.21232
1.21232
1.21235
1.21245
1.21247
1.21244
1.21247
1.21258
1.2126
1.2126
1.21259
1.21256
1.21251
1.21241
1.21224
1.21208
1.21202
1.21198
1.21196
1.21199
1.21209
1.2121
1.21209
1.21212
1.21215
1.21213
1.2121
1.21213
1.21215
1.21212
1.21198
1.21193
1.21194
1.2119
1.21186
1.21179
1.21169
1.21157
1.21147
1.21143
1.21143
1.21153
1.21166
1.2117
1.2117
1.21169
1.21175
1.21193
1.21224
1.21255
1.21268
1.21267
1.21259
1.21242
1.21228
1.21213
1.212
1.21201
1.21214
1.21299
1.21688
1.22615
1.24621
1.27389
1.30349
1.32478
1.34097
1.34738
1.35643
1.36042
1.36032
1.35975
1.35937
1.35832
1.3566
1.35309
1.34776
1.34117
1.33729
1.33521
1.21223
1.21228
1.21228
1.2122
1.2121
1.21209
1.21209
1.21205
1.21202
1.21203
1.21201
1.21195
1.21193
1.21194
1.21196
1.21204
1.21216
1.21218
1.21217
1.21217
1.21221
1.2123
1.21245
1.21255
1.21256
1.21253
1.21257
1.21275
1.21284
1.21283
1.21281
1.21286
1.21291
1.2129
1.21283
1.2127
1.21263
1.21258
1.21255
1.21254
1.21263
1.21267
1.21266
1.21267
1.21268
1.21268
1.21271
1.21274
1.2127
1.21251
1.2124
1.21238
1.2124
1.21252
1.21252
1.21245
1.21231
1.21205
1.21168
1.21152
1.2115
1.21155
1.21176
1.21198
1.21207
1.21206
1.21206
1.21209
1.2122
1.21243
1.21262
1.21265
1.21262
1.21252
1.21247
1.21247
1.21245
1.21236
1.21237
1.21242
1.21264
1.21384
1.21861
1.23035
1.2526
1.28294
1.31339
1.34
1.35321
1.35894
1.35508
1.35667
1.35788
1.35806
1.35657
1.35286
1.34684
1.34099
1.33776
1.33516
1.2126
1.21262
1.21261
1.21258
1.21257
1.21257
1.21259
1.21254
1.21237
1.2123
1.2123
1.21232
1.21231
1.21226
1.21223
1.21224
1.21231
1.21233
1.21225
1.21222
1.21225
1.21239
1.21245
1.21246
1.21243
1.21236
1.21242
1.21259
1.21264
1.21269
1.2129
1.21305
1.21305
1.21309
1.2131
1.21301
1.21287
1.21281
1.21282
1.21286
1.21279
1.21277
1.21291
1.21298
1.213
1.21298
1.2129
1.21274
1.21249
1.21234
1.2123
1.21229
1.21231
1.21254
1.21291
1.21301
1.21301
1.21283
1.21246
1.21209
1.21187
1.21184
1.21197
1.21233
1.2126
1.2126
1.21251
1.21236
1.21233
1.21239
1.21249
1.21251
1.2125
1.21245
1.21244
1.21246
1.21251
1.21259
1.2127
1.21277
1.21288
1.21292
1.21322
1.21493
1.22115
1.23595
1.26114
1.29257
1.31875
1.33868
1.34561
1.35728
1.35872
1.35805
1.35541
1.35109
1.34588
1.34136
1.33822
1.33488
1.21364
1.21367
1.21368
1.21366
1.21362
1.21356
1.21352
1.21342
1.21317
1.21296
1.21293
1.21295
1.213
1.21299
1.21288
1.21283
1.21287
1.21283
1.21272
1.21271
1.21276
1.21277
1.21274
1.21262
1.21241
1.21227
1.21236
1.21246
1.21246
1.21253
1.21281
1.21289
1.21293
1.21306
1.21307
1.21292
1.21272
1.21267
1.21269
1.21271
1.21259
1.21246
1.21264
1.21304
1.21312
1.21314
1.21308
1.2128
1.21222
1.21201
1.21201
1.21204
1.21213
1.21248
1.21294
1.21324
1.21338
1.21346
1.21341
1.2131
1.21259
1.2123
1.21234
1.21266
1.21298
1.21301
1.21294
1.21277
1.21256
1.21247
1.21243
1.21239
1.2124
1.21242
1.21246
1.2125
1.21254
1.21261
1.21278
1.21293
1.21304
1.21304
1.21296
1.21299
1.2135
1.21637
1.22466
1.2441
1.27263
1.30412
1.33463
1.35289
1.35679
1.35406
1.3516
1.34896
1.34575
1.34153
1.338
1.33399
1.21434
1.21435
1.21438
1.21438
1.21436
1.21427
1.21415
1.21393
1.21365
1.21354
1.21352
1.21355
1.21358
1.21352
1.21337
1.21337
1.21334
1.21318
1.21311
1.2132
1.21331
1.21329
1.21316
1.21293
1.21269
1.21249
1.21238
1.21233
1.2123
1.21234
1.21256
1.21276
1.21285
1.21298
1.21298
1.21278
1.21269
1.21272
1.21268
1.21258
1.21256
1.21245
1.21243
1.2128
1.21349
1.21368
1.21368
1.21344
1.21263
1.21198
1.21186
1.21188
1.21201
1.21241
1.21289
1.21318
1.21335
1.21359
1.21374
1.21364
1.21318
1.21276
1.21273
1.21291
1.21308
1.2131
1.21308
1.21305
1.21295
1.2128
1.21266
1.21255
1.21255
1.21258
1.21266
1.21273
1.21275
1.21276
1.21282
1.21296
1.21302
1.213
1.21294
1.21282
1.21281
1.213
1.21412
1.21883
1.23054
1.25447
1.28558
1.3157
1.3341
1.34298
1.35
1.34973
1.34594
1.3411
1.33619
1.33322
1.21407
1.21407
1.21407
1.21407
1.21407
1.21403
1.21394
1.21385
1.2137
1.21352
1.21348
1.2135
1.2135
1.21342
1.21308
1.21272
1.21262
1.21266
1.2128
1.21287
1.21269
1.21245
1.21242
1.21236
1.21227
1.21215
1.21218
1.21224
1.21226
1.21236
1.21274
1.21316
1.21318
1.21299
1.21278
1.2127
1.21272
1.21271
1.21255
1.21245
1.21259
1.21271
1.21271
1.21306
1.2139
1.21433
1.21432
1.2141
1.2135
1.21287
1.2127
1.21273
1.21272
1.21276
1.21296
1.21314
1.21323
1.21342
1.21358
1.2135
1.21311
1.21291
1.21289
1.21283
1.21277
1.21271
1.21274
1.21286
1.21303
1.21307
1.21302
1.21294
1.21293
1.21296
1.21302
1.21308
1.21307
1.21298
1.2129
1.21292
1.21294
1.2129
1.2128
1.21271
1.21266
1.21267
1.21276
1.21323
1.21541
1.22224
1.23954
1.26735
1.29892
1.33202
1.34628
1.34696
1.34273
1.33708
1.33362
1.33295
1.21263
1.21263
1.21263
1.21263
1.21263
1.21262
1.21262
1.2126
1.21247
1.21239
1.21236
1.2123
1.21212
1.21171
1.21151
1.21152
1.2116
1.21174
1.21191
1.21199
1.21192
1.21183
1.21187
1.21198
1.21198
1.21197
1.21206
1.21234
1.21275
1.2134
1.21425
1.21456
1.21453
1.21427
1.21399
1.21369
1.21323
1.21295
1.21286
1.21278
1.21282
1.21305
1.21322
1.21354
1.21407
1.21433
1.21432
1.21407
1.21372
1.21354
1.21348
1.21337
1.21328
1.21333
1.21325
1.21292
1.21282
1.21283
1.21278
1.21272
1.2128
1.21306
1.21315
1.21296
1.21263
1.21257
1.21262
1.21279
1.21306
1.21333
1.21341
1.21339
1.21334
1.21331
1.21334
1.2134
1.21338
1.21327
1.21308
1.21288
1.21281
1.21276
1.21271
1.21264
1.21263
1.21266
1.21272
1.2128
1.21301
1.21385
1.21783
1.22765
1.25127
1.28051
1.3068
1.32716
1.32955
1.33345
1.33446
1.33275
1.21121
1.21125
1.21127
1.21126
1.21121
1.21114
1.21107
1.21097
1.21092
1.21091
1.21086
1.21069
1.21029
1.21008
1.21008
1.21009
1.21015
1.21025
1.21033
1.21049
1.21088
1.21133
1.21163
1.21166
1.2116
1.21157
1.21161
1.21185
1.21238
1.21325
1.2141
1.2143
1.21427
1.21413
1.21386
1.21356
1.21309
1.21285
1.21281
1.21275
1.21278
1.21298
1.21311
1.21316
1.2133
1.21339
1.21352
1.21359
1.21345
1.21323
1.21292
1.21269
1.21272
1.21283
1.2128
1.21254
1.21237
1.21228
1.21212
1.21206
1.21218
1.21268
1.21315
1.21326
1.21318
1.21302
1.213
1.21308
1.21325
1.21344
1.21351
1.21352
1.21351
1.21345
1.21343
1.21345
1.21346
1.2134
1.21318
1.21292
1.21283
1.2128
1.21276
1.21269
1.21265
1.21266
1.21272
1.21279
1.21286
1.21296
1.21328
1.21488
1.22107
1.23527
1.26245
1.29043
1.31524
1.32958
1.33245
1.32924
1.21263
1.21261
1.21264
1.21269
1.21267
1.21256
1.2124
1.21216
1.21195
1.21185
1.21177
1.21165
1.21139
1.21096
1.21071
1.21067
1.21066
1.21067
1.21069
1.21066
1.21051
1.21026
1.21025
1.21024
1.20996
1.2096
1.20955
1.2097
1.21009
1.21046
1.21111
1.21195
1.21223
1.21224
1.21216
1.21211
1.2121
1.21197
1.21151
1.211
1.21061
1.21019
1.20977
1.20971
1.2099
1.21046
1.21114
1.21146
1.2114
1.21106
1.21062
1.21058
1.21075
1.21122
1.21201
1.2126
1.2127
1.21261
1.21236
1.21225
1.21239
1.21285
1.21316
1.21324
1.21339
1.21363
1.21371
1.21366
1.21348
1.2134
1.21346
1.2136
1.21363
1.21358
1.21344
1.21333
1.21332
1.21331
1.21327
1.2131
1.21297
1.21295
1.21292
1.21282
1.21272
1.21272
1.21275
1.21284
1.21292
1.21296
1.21291
1.2128
1.21288
1.21535
1.22376
1.24157
1.26909
1.29232
1.3099
1.3202
1.21081
1.2107
1.21072
1.21079
1.21082
1.21067
1.21054
1.21069
1.21103
1.21111
1.2111
1.21111
1.21107
1.21079
1.2103
1.21013
1.21008
1.20999
1.20997
1.20993
1.20959
1.20896
1.20889
1.20887
1.20867
1.20821
1.2075
1.20654
1.206
1.20596
1.20625
1.20658
1.20688
1.20754
1.20852
1.20929
1.20962
1.20978
1.2097
1.20944
1.20929
1.20913
1.20856
1.20792
1.20789
1.20827
1.20944
1.20997
1.20992
1.20933
1.20853
1.20838
1.20846
1.20915
1.21065
1.21209
1.21255
1.21254
1.2125
1.21252
1.21273
1.21277
1.21255
1.21249
1.21284
1.2135
1.21369
1.21364
1.21336
1.213
1.21298
1.21314
1.21343
1.21356
1.21356
1.21342
1.21333
1.21333
1.21332
1.21325
1.21313
1.21306
1.21303
1.21295
1.2129
1.21291
1.213
1.21311
1.21311
1.21307
1.21294
1.21254
1.21188
1.21037
1.2101
1.21314
1.22499
1.24706
1.27472
1.30885
1.21336
1.21328
1.21305
1.21304
1.21308
1.21315
1.21328
1.21349
1.21381
1.21434
1.2149
1.21535
1.2155
1.21539
1.21522
1.21524
1.21514
1.21452
1.21418
1.21399
1.21327
1.21142
1.21069
1.21076
1.21103
1.21102
1.21067
1.20994
1.20897
1.20812
1.20804
1.20833
1.20869
1.20937
1.21031
1.21047
1.21047
1.21058
1.21088
1.21073
1.21067
1.21084
1.21107
1.21126
1.21192
1.21319
1.21371
1.21376
1.21321
1.21088
1.20894
1.20871
1.20883
1.20932
1.21001
1.21071
1.21136
1.2118
1.21195
1.212
1.21188
1.21114
1.2102
1.20995
1.21017
1.211
1.21206
1.21261
1.21268
1.21262
1.21261
1.21277
1.21317
1.2136
1.21368
1.21366
1.21355
1.21341
1.21328
1.21321
1.21315
1.21311
1.21312
1.21312
1.21315
1.21324
1.21337
1.21337
1.2133
1.21313
1.21292
1.21242
1.21166
1.20997
1.20739
1.20325
1.20421
1.21066
1.22674
1.26621
1.23374
1.23408
1.23399
1.23305
1.23093
1.2303
1.23029
1.23061
1.23151
1.23171
1.23182
1.23262
1.23377
1.23397
1.23356
1.23338
1.23382
1.23365
1.23246
1.2313
1.22987
1.22808
1.22752
1.22726
1.22727
1.22767
1.22818
1.22827
1.22784
1.22652
1.22444
1.22262
1.22155
1.22045
1.21857
1.21723
1.21706
1.21732
1.21736
1.21664
1.21559
1.21533
1.21545
1.21581
1.21651
1.21752
1.21798
1.21775
1.21634
1.21354
1.2112
1.21074
1.21071
1.21034
1.20988
1.20975
1.20964
1.20956
1.20957
1.20984
1.21034
1.21026
1.2096
1.20893
1.20892
1.20924
1.20995
1.21082
1.21163
1.21191
1.21199
1.21213
1.21243
1.21305
1.21354
1.21359
1.21343
1.21299
1.21275
1.2128
1.21292
1.21308
1.21315
1.21324
1.21342
1.21352
1.21356
1.2135
1.21335
1.21312
1.2129
1.21251
1.2117
1.20998
1.20693
1.2031
1.1984
1.19681
1.19942
1.22386
1.26989
1.26825
1.26623
1.26386
1.26146
1.25928
1.25755
1.25646
1.25573
1.25474
1.2539
1.25417
1.25458
1.2545
1.25398
1.2526
1.24952
1.24837
1.24841
1.24808
1.24643
1.24205
1.23834
1.23796
1.23997
1.24081
1.24017
1.24067
1.24294
1.24398
1.24363
1.24204
1.23931
1.23715
1.23642
1.23602
1.23558
1.23471
1.23286
1.22924
1.22478
1.22286
1.22211
1.22053
1.21871
1.21835
1.2187
1.2187
1.21824
1.21688
1.21643
1.21684
1.21732
1.21645
1.214
1.21219
1.21137
1.21118
1.21128
1.21153
1.21199
1.21256
1.21247
1.21191
1.21113
1.21087
1.21097
1.21156
1.2126
1.21292
1.21276
1.21219
1.21155
1.21154
1.21172
1.21177
1.21172
1.21169
1.21179
1.21216
1.21273
1.21319
1.21337
1.21341
1.21353
1.2136
1.2135
1.2133
1.21311
1.21305
1.21296
1.21269
1.21187
1.21005
1.20677
1.20251
1.19852
1.19421
1.19171
1.19726
1.31797
1.31672
1.31632
1.31604
1.31526
1.31363
1.31314
1.3132
1.31259
1.31073
1.3095
1.30968
1.31001
1.30963
1.30731
1.30635
1.30532
1.3033
1.30113
1.30084
1.30087
1.29949
1.29566
1.29117
1.28721
1.28362
1.28108
1.279
1.27702
1.27551
1.27433
1.27181
1.2675
1.26577
1.26684
1.26789
1.26701
1.26719
1.26826
1.26736
1.26391
1.25956
1.25668
1.25454
1.25133
1.24647
1.24237
1.23938
1.23628
1.23466
1.23512
1.23674
1.23648
1.23403
1.23212
1.23134
1.22927
1.22477
1.22093
1.2198
1.21983
1.22085
1.22122
1.22027
1.21779
1.21564
1.21434
1.21352
1.21292
1.21238
1.2116
1.21093
1.21063
1.21066
1.21074
1.21079
1.21092
1.21113
1.21142
1.2118
1.21233
1.21262
1.21288
1.21296
1.21296
1.21286
1.21279
1.21286
1.21299
1.21321
1.21326
1.21297
1.21199
1.20991
1.20624
1.20208
1.19827
1.19469
1.19074
1.18734
1.37936
1.37807
1.37601
1.37377
1.37259
1.37138
1.36857
1.3674
1.36713
1.36555
1.3645
1.36451
1.36389
1.36163
1.35717
1.35578
1.35601
1.35601
1.35368
1.35229
1.35212
1.35115
1.34673
1.34486
1.34467
1.34359
1.34141
1.33845
1.33698
1.3368
1.33635
1.3343
1.33045
1.32646
1.32305
1.31919
1.31468
1.31061
1.30722
1.30446
1.30015
1.29226
1.2873
1.2875
1.28908
1.28786
1.28401
1.28017
1.27677
1.27482
1.27273
1.26746
1.25651
1.24852
1.24819
1.24993
1.24924
1.24602
1.24369
1.24058
1.23316
1.2282
1.22779
1.22694
1.22527
1.2236
1.22148
1.21775
1.21524
1.21483
1.21421
1.21293
1.21266
1.21287
1.2129
1.21307
1.21391
1.21394
1.21362
1.21321
1.21285
1.21231
1.21181
1.21168
1.2118
1.21191
1.21211
1.21243
1.21314
1.21339
1.21327
1.21281
1.21159
1.20931
1.20565
1.20201
1.19833
1.19541
1.19158
1.18502
1.45067
1.44997
1.44924
1.44826
1.44578
1.44291
1.44225
1.44238
1.4429
1.44274
1.43974
1.43663
1.43575
1.43399
1.42954
1.42791
1.42837
1.42794
1.42569
1.42258
1.42048
1.41884
1.41656
1.41325
1.40993
1.40713
1.40463
1.40068
1.39752
1.39616
1.3943
1.38873
1.38494
1.38471
1.38422
1.38231
1.37893
1.37472
1.37096
1.36846
1.36554
1.36052
1.35554
1.35102
1.34628
1.34038
1.33112
1.32364
1.32263
1.3233
1.32258
1.3184
1.31021
1.304
1.3004
1.29403
1.28278
1.27868
1.27926
1.27794
1.27274
1.26718
1.25912
1.25103
1.24948
1.24897
1.24783
1.24278
1.23446
1.23189
1.23119
1.22942
1.22653
1.2239
1.22127
1.21933
1.21757
1.2155
1.21318
1.21236
1.2116
1.21114
1.21112
1.2112
1.21149
1.21225
1.21296
1.2132
1.21303
1.21295
1.2126
1.2119
1.21063
1.20851
1.20522
1.202
1.1986
1.19553
1.19233
1.1855
1.52459
1.52383
1.52242
1.52121
1.52007
1.5178
1.5148
1.51286
1.51279
1.51318
1.5129
1.51133
1.50674
1.50466
1.50411
1.50349
1.50138
1.49843
1.49686
1.49528
1.49215
1.48979
1.48882
1.48787
1.48484
1.48067
1.47855
1.47653
1.47397
1.47126
1.4684
1.46436
1.45964
1.4557
1.45182
1.44797
1.44403
1.43993
1.43632
1.43271
1.42725
1.42292
1.41964
1.41589
1.41197
1.40769
1.4021
1.39574
1.39027
1.38615
1.37964
1.36608
1.35939
1.35923
1.35728
1.35103
1.34218
1.33662
1.33034
1.31727
1.31064
1.3092
1.30435
1.2976
1.28986
1.27941
1.27391
1.26996
1.265
1.25667
1.24962
1.2453
1.24099
1.2361
1.23061
1.22574
1.22197
1.21927
1.2162
1.21477
1.21418
1.21373
1.2139
1.21437
1.21514
1.2151
1.21455
1.21369
1.21292
1.2121
1.21174
1.2112
1.21006
1.208
1.2052
1.2018
1.19836
1.19522
1.19227
1.18609
1.6038
1.60227
1.60096
1.59985
1.59756
1.59442
1.59241
1.59141
1.59142
1.59211
1.5922
1.59036
1.58586
1.58205
1.58089
1.57957
1.57686
1.57619
1.57539
1.57278