/*--------------------------------*- C++ -*----------------------------------*\
  =========                 |
  \\      /  F ield         | OpenFOAM: The Open Source CFD Toolbox
   \\    /   O peration     | Website:  https://openfoam.org
    \\  /    A nd           | Version:  7
     \\/     M anipulation  |
\*---------------------------------------------------------------------------*/
FoamFile
{
    version     2.0;
    format      ascii;
    class       volScalarField;
    location    "5";
    object      p;
}
// * * * * * * * * * * * * * * * * * * * * * * * * * * * * * * * * * * * * * //

dimensions      [1 -1 -2 0 0 0 0];

internalField   nonuniform List<scalar> 
90000
(
0.410711
0.44825
0.486537
0.522379
0.554679
0.586924
0.619527
0.650059
0.681061
0.713179
0.744194
0.774942
0.804792
0.83438
0.861118
0.886658
0.907371
0.925782
0.938321
0.94854
0.952261
0.954271
0.954851
0.955978
0.95535
0.953375
0.949713
0.944151
0.937089
0.930435
0.923982
0.924597
0.928227
0.933722
0.939506
0.944418
0.947602
0.950248
0.95043
0.949122
0.946086
0.941405
0.938103
0.935522
0.936805
0.939997
0.944479
0.947764
0.947901
0.946042
0.94231
0.938529
0.936646
0.938041
0.941325
0.944598
0.945137
0.943667
0.940171
0.937394
0.937663
0.939468
0.941994
0.941594
0.939473
0.937451
0.93768
0.939135
0.939459
0.938497
0.937444
0.937164
0.937705
0.937434
0.936799
0.936312
0.936189
0.9358
0.935197
0.934702
0.93434
0.933845
0.933151
0.932694
0.932086
0.931767
0.931247
0.930795
0.930236
0.930063
0.930702
0.932606
0.937827
0.948427
0.965014
0.984615
1.00342
1.01949
1.03003
1.04401
0.377675
0.377926
0.378495
0.379569
0.38133
0.384104
0.388589
0.39475
0.403648
0.415466
0.4315
0.451246
0.476841
0.506633
0.542813
0.582873
0.627728
0.674466
0.719678
0.761442
0.797253
0.829965
0.854731
0.877219
0.891526
0.904165
0.91055
0.915842
0.918211
0.922514
0.928107
0.936317
0.943537
0.949345
0.953063
0.955431
0.954942
0.954181
0.952167
0.945883
0.940175
0.935943
0.937074
0.938299
0.941076
0.94522
0.948661
0.948228
0.945766
0.941776
0.937434
0.936087
0.93667
0.93988
0.943279
0.946115
0.944702
0.941053
0.937392
0.936711
0.93819
0.940876
0.942255
0.940327
0.938103
0.937135
0.938353
0.939551
0.939234
0.938079
0.937207
0.937399
0.937819
0.937404
0.936765
0.936348
0.936258
0.935804
0.935206
0.934724
0.934444
0.933848
0.933145
0.932795
0.93222
0.931888
0.931311
0.93077
0.930155
0.930076
0.93077
0.932729
0.937898
0.948375
0.964879
0.984536
1.0034
1.01934
1.02994
1.04401
0.377577
0.377689
0.3778
0.377914
0.378042
0.378196
0.378367
0.378557
0.378794
0.379116
0.379583
0.38025
0.381309
0.382968
0.385794
0.390227
0.397676
0.408752
0.425846
0.448365
0.479056
0.515492
0.559807
0.607789
0.659672
0.712268
0.762375
0.811476
0.852835
0.889782
0.91555
0.933656
0.940079
0.944778
0.947109
0.949986
0.949533
0.946137
0.938677
0.929828
0.931838
0.936402
0.940991
0.947048
0.951146
0.950237
0.948184
0.943718
0.938008
0.935282
0.934844
0.936189
0.941984
0.947716
0.947138
0.9452
0.940558
0.937947
0.936359
0.938595
0.942711
0.943373
0.941517
0.9383
0.936887
0.938361
0.940515
0.9401
0.938563
0.937385
0.93726
0.938197
0.937979
0.937196
0.936656
0.936634
0.936446
0.935737
0.935125
0.934855
0.934463
0.933835
0.933206
0.932877
0.932297
0.931931
0.931348
0.930758
0.930119
0.930152
0.930866
0.93284
0.937924
0.948234
0.964687
0.984472
1.00337
1.01923
1.02989
1.04404
0.377449
0.377556
0.377668
0.377778
0.377893
0.378023
0.37817
0.378308
0.378459
0.378637
0.378829
0.379027
0.379237
0.379469
0.379722
0.380005
0.380335
0.380742
0.381356
0.382248
0.383735
0.386216
0.390798
0.398352
0.411611
0.431196
0.461258
0.500124
0.551563
0.609928
0.672553
0.733583
0.784771
0.830114
0.859319
0.884663
0.897012
0.907457
0.913892
0.925514
0.936861
0.94826
0.956836
0.959654
0.956166
0.949543
0.9424
0.935858
0.932562
0.933059
0.937083
0.944189
0.950596
0.950279
0.947512
0.940536
0.936129
0.935705
0.938647
0.94347
0.945063
0.94314
0.938415
0.936208
0.937549
0.940942
0.941114
0.93948
0.937387
0.93715
0.938151
0.938583
0.937751
0.936891
0.93671
0.936935
0.93649
0.935722
0.935154
0.935041
0.934511
0.933811
0.933263
0.932983
0.932368
0.931948
0.931384
0.930721
0.930094
0.930207
0.930931
0.932893
0.937925
0.948132
0.964557
0.984446
1.0033
1.0194
1.03007
1.04408
0.377337
0.377435
0.377546
0.377664
0.377787
0.377916
0.378071
0.378228
0.378382
0.378549
0.378735
0.37893
0.379135
0.379366
0.379614
0.379878
0.380169
0.380487
0.380805
0.38114
0.381503
0.381904
0.382348
0.382859
0.383486
0.384318
0.385715
0.388122
0.393028
0.401859
0.419066
0.44556
0.48731
0.539829
0.60492
0.673531
0.741596
0.806085
0.8578
0.900116
0.921388
0.932596
0.939084
0.943841
0.944849
0.943367
0.935317
0.930961
0.934271
0.94103
0.948359
0.952147
0.950745
0.946753
0.939051
0.934995
0.934702
0.938051
0.944969
0.946406
0.944634
0.939038
0.935615
0.936731
0.940478
0.94237
0.940701
0.938281
0.936989
0.937569
0.938984
0.938593
0.937513
0.936673
0.937054
0.937043
0.936387
0.935631
0.935206
0.935082
0.934585
0.933884
0.933363
0.933036
0.932461
0.931956
0.931328
0.930659
0.93025
0.930328
0.930965
0.932885
0.93783
0.947972
0.964412
0.984387
1.00321
1.01884
1.02975
1.04414
0.377236
0.377333
0.377435
0.37755
0.377669
0.377793
0.377931
0.378089
0.378241
0.378399
0.378581
0.378775
0.378975
0.379198
0.379442
0.379698
0.379974
0.380274
0.380598
0.380946
0.381323
0.381732
0.382167
0.382642
0.383167
0.383696
0.384233
0.384795
0.385391
0.386039
0.386858
0.388034
0.390295
0.394787
0.404846
0.423106
0.456722
0.504578
0.571567
0.645831
0.720233
0.785119
0.833034
0.872897
0.895129
0.911367
0.920043
0.933212
0.946999
0.957278
0.960216
0.958259
0.95088
0.936683
0.931208
0.932657
0.938229
0.945403
0.949871
0.947354
0.939595
0.934852
0.935587
0.939983
0.943356
0.942246
0.939602
0.937042
0.937153
0.938854
0.939301
0.938075
0.93714
0.936881
0.937509
0.937185
0.936303
0.935637
0.935509
0.93513
0.93444
0.933933
0.933633
0.933076
0.932428
0.931963
0.931279
0.930508
0.930289
0.930396
0.931002
0.932889
0.937818
0.947995
0.964452
0.984478
1.00333
1.01853
1.02976
1.04453
0.377141
0.377238
0.377336
0.377443
0.377559
0.37768
0.377808
0.377961
0.378117
0.378269
0.37844
0.37863
0.37883
0.379046
0.379285
0.37954
0.379813
0.380109
0.380428
0.380775
0.381154
0.381555
0.381982
0.382443
0.382921
0.383421
0.383953
0.38451
0.385091
0.385696
0.386321
0.386951
0.387571
0.388228
0.388927
0.389784
0.391289
0.394295
0.401701
0.416972
0.44838
0.497175
0.565773
0.646436
0.730072
0.810415
0.872759
0.917812
0.934827
0.945443
0.948577
0.946022
0.932959
0.929481
0.933054
0.942024
0.949355
0.950279
0.947905
0.938838
0.932812
0.933611
0.939541
0.94442
0.944072
0.94094
0.936711
0.936342
0.938514
0.940293
0.93951
0.937313
0.936576
0.937483
0.937814
0.937023
0.93606
0.935589
0.935777
0.935309
0.934416
0.933894
0.933844
0.933236
0.932438
0.931861
0.931196
0.930513
0.930335
0.930468
0.931092
0.932999
0.937734
0.947814
0.964168
0.983847
1.00243
1.01791
1.02927
1.04433
0.377044
0.377142
0.377241
0.377344
0.377459
0.377575
0.377698
0.37784
0.378001
0.378158
0.378323
0.378508
0.378705
0.378917
0.379152
0.379403
0.379675
0.379968
0.380283
0.380619
0.380983
0.381367
0.381773
0.382212
0.382672
0.383153
0.38366
0.384188
0.384747
0.385328
0.385922
0.386548
0.387166
0.387784
0.388435
0.38906
0.389667
0.390314
0.390947
0.391655
0.392892
0.395608
0.40296
0.419473
0.455429
0.512554
0.596876
0.690366
0.771829
0.83864
0.876457
0.903257
0.915103
0.932474
0.947332
0.959865
0.959121
0.954534
0.938402
0.929034
0.930931
0.938826
0.94659
0.94632
0.942318
0.936306
0.9354
0.937511
0.941386
0.941068
0.938299
0.936368
0.936592
0.938431
0.938021
0.936853
0.93575
0.935834
0.9359
0.935378
0.934538
0.934047
0.933918
0.933313
0.932551
0.931865
0.931166
0.930431
0.930398
0.930562
0.931171
0.932919
0.937646
0.947739
0.963929
0.983344
1.00188
1.01749
1.02906
1.04442
0.376956
0.377047
0.377148
0.377254
0.377368
0.377486
0.377605
0.377738
0.377895
0.37806
0.378226
0.378411
0.378609
0.378818
0.379046
0.379291
0.379555
0.379838
0.380138
0.38046
0.380813
0.381195
0.381586
0.382006
0.382448
0.382906
0.383393
0.383894
0.384426
0.384986
0.385548
0.386126
0.386723
0.387305
0.387912
0.388507
0.389086
0.389692
0.390295
0.390865
0.391455
0.392048
0.39256
0.393161
0.394463
0.397844
0.40869
0.434166
0.488128
0.567354
0.666077
0.76829
0.853785
0.91609
0.936376
0.949717
0.949491
0.939173
0.925004
0.930352
0.941038
0.948705
0.947949
0.943831
0.935083
0.933366
0.935275
0.942111
0.942458
0.940172
0.936017
0.936074
0.938555
0.939281
0.938005
0.935938
0.935604
0.936455
0.936146
0.935105
0.93447
0.934432
0.934036
0.933139
0.932474
0.93171
0.930992
0.930452
0.93049
0.930666
0.931194
0.932839
0.937517
0.947459
0.963326
0.982618
1.00123
1.01718
1.02902
1.04463
0.376906
0.376989
0.377079
0.377189
0.377308
0.377429
0.377548
0.377675
0.377824
0.377993
0.378164
0.378342
0.378541
0.378752
0.378977
0.379216
0.379472
0.379754
0.380049
0.380357
0.380689
0.381053
0.381428
0.381817
0.382238
0.382673
0.383136
0.383622
0.384119
0.384638
0.385153
0.385672
0.386226
0.386766
0.387315
0.387908
0.38848
0.389055
0.38968
0.390277
0.39084
0.39144
0.392003
0.392484
0.39294
0.393353
0.393627
0.394143
0.3964
0.404009
0.428204
0.477382
0.567023
0.675885
0.771114
0.848418
0.884979
0.906643
0.923299
0.944617
0.958685
0.956104
0.949834
0.934628
0.930104
0.933085
0.941457
0.945646
0.942688
0.936204
0.9346
0.937665
0.940559
0.939534
0.936283
0.935351
0.93645
0.936923
0.935946
0.934798
0.934587
0.93476
0.934078
0.933047
0.932485
0.931689
0.9309
0.930474
0.93061
0.930789
0.931179
0.932724
0.937375
0.947225
0.962796
0.981857
1.00061
1.01701
1.02916
1.04493
0.376906
0.376991
0.377075
0.37717
0.37729
0.377418
0.377543
0.377671
0.377812
0.37797
0.37814
0.378319
0.378513
0.378722
0.378945
0.37918
0.379431
0.379707
0.379999
0.380298
0.380611
0.380951
0.38131
0.381673
0.382066
0.38248
0.382905
0.383355
0.383813
0.384285
0.384769
0.385253
0.385757
0.386274
0.386784
0.387326
0.38788
0.388426
0.389002
0.389598
0.390168
0.390747
0.391386
0.391964
0.392445
0.392928
0.393285
0.393467
0.393629
0.393808
0.394289
0.396131
0.404553
0.429476
0.490471
0.584353
0.699147
0.815081
0.895614
0.932379
0.945328
0.948047
0.934174
0.926946
0.932824
0.943313
0.947531
0.945035
0.935398
0.932853
0.934991
0.94175
0.941422
0.937518
0.934623
0.935331
0.93772
0.937294
0.935357
0.934499
0.935209
0.935029
0.933938
0.932932
0.93247
0.931649
0.930846
0.930492
0.930751
0.930896
0.931118
0.932601
0.937239
0.946961
0.962201
0.981108
1.00006
1.01696
1.02945
1.04529
0.376928
0.377035
0.377127
0.377212
0.377316
0.377443
0.377572
0.377702
0.377845
0.378001
0.378165
0.378337
0.378525
0.378728
0.378945
0.379175
0.379414
0.379672
0.379956
0.380245
0.380546
0.380866
0.381208
0.381562
0.381927
0.382312
0.382709
0.383121
0.383547
0.383982
0.384433
0.384893
0.385357
0.385833
0.386311
0.386797
0.387312
0.387827
0.388346
0.388912
0.389496
0.390059
0.390671
0.391323
0.391881
0.392398
0.392919
0.393232
0.393461
0.393628
0.393775
0.393895
0.394024
0.394483
0.397072
0.40749
0.442811
0.517285
0.633333
0.752551
0.830544
0.889564
0.90622
0.930143
0.947932
0.955922
0.95224
0.93688
0.92854
0.932017
0.941563
0.94452
0.940112
0.934273
0.934462
0.937801
0.938529
0.936539
0.934569
0.934747
0.935855
0.935181
0.933732
0.932953
0.932477
0.931569
0.930836
0.930586
0.930887
0.93099
0.931012
0.932488
0.937096
0.94664
0.961549
0.980362
0.999618
1.01715
1.02998
1.04566
0.376964
0.377061
0.377179
0.377276
0.377369
0.377487
0.377613
0.377739
0.377877
0.378032
0.378199
0.378367
0.378544
0.378736
0.378943
0.379164
0.3794
0.379647
0.379911
0.380193
0.380483
0.380788
0.381115
0.381458
0.381808
0.382169
0.382543
0.382926
0.383318
0.383723
0.384139
0.384573
0.385008
0.385452
0.385907
0.386359
0.386825
0.38731
0.387795
0.3883
0.388853
0.389413
0.389976
0.390609
0.391228
0.391774
0.392368
0.392874
0.393192
0.393421
0.39361
0.393777
0.393868
0.393931
0.393998
0.394154
0.394993
0.399166
0.419447
0.471634
0.572925
0.70137
0.821163
0.910495
0.934727
0.94591
0.937109
0.925133
0.93103
0.942601
0.947162
0.943852
0.933424
0.932233
0.936493
0.940221
0.938807
0.93448
0.934048
0.936171
0.936258
0.934792
0.933329
0.933102
0.932501
0.931489
0.930842
0.930843
0.930953
0.930854
0.930881
0.932405
0.936922
0.946244
0.960882
0.979626
0.999247
1.01758
1.03067
1.04599
0.377015
0.377097
0.377204
0.377314
0.377412
0.377523
0.377653
0.377779
0.377907
0.378051
0.378212
0.37838
0.378555
0.378742
0.37894
0.37915
0.379376
0.379616
0.379868
0.380142
0.38042
0.380709
0.381023
0.381356
0.381696
0.382043
0.382405
0.382773
0.383143
0.383527
0.383918
0.384322
0.384734
0.385149
0.385572
0.385995
0.386416
0.386843
0.387291
0.387743
0.388225
0.388757
0.389275
0.389832
0.39046
0.391033
0.391597
0.392217
0.392696
0.393062
0.393352
0.393578
0.393738
0.393851
0.393957
0.394051
0.394142
0.39424
0.394591
0.396473
0.407295
0.44222
0.533511
0.66378
0.776176
0.869597
0.894155
0.920066
0.943544
0.955831
0.951731
0.934914
0.928098
0.932824
0.942062
0.941476
0.935847
0.932852
0.935044
0.937712
0.936592
0.934019
0.933066
0.933289
0.932609
0.931485
0.930934
0.931283
0.931041
0.930694
0.930768
0.932351
0.936712
0.945767
0.960108
0.978811
0.998946
1.01821
1.03139
1.04621
0.377068
0.377143
0.377234
0.377341
0.377441
0.377544
0.377673
0.377809
0.377937
0.378073
0.378225
0.378387
0.378557
0.378743
0.37894
0.379144
0.37936
0.379592
0.37984
0.380107
0.380387
0.380669
0.380967
0.381283
0.381611
0.381947
0.382298
0.382664
0.383037
0.383417
0.383795
0.384172
0.384553
0.384934
0.385309
0.38568
0.38606
0.386433
0.386827
0.387231
0.38763
0.38809
0.388579
0.389058
0.389626
0.39022
0.390779
0.391406
0.392033
0.392546
0.392995
0.39336
0.393623
0.393822
0.39399
0.394125
0.394229
0.394317
0.3944
0.394484
0.394665
0.395569
0.402015
0.427825
0.505525
0.628749
0.768747
0.885287
0.928423
0.943383
0.93583
0.923814
0.931452
0.944753
0.944871
0.938564
0.931154
0.932216
0.938668
0.938384
0.935163
0.933108
0.933611
0.933468
0.932101
0.931023
0.931295
0.93152
0.930913
0.930459
0.930744
0.932353
0.936451
0.945219
0.959235
0.977945
0.998827
1.01886
1.03208
1.04639
0.377105
0.377186
0.377267
0.377374
0.37748
0.377578
0.377693
0.377827
0.377959
0.378093
0.378243
0.378407
0.378573
0.378751
0.378945
0.379152
0.379366
0.379591
0.379831
0.380092
0.380374
0.380662
0.380964
0.381285
0.381619
0.38196
0.382308
0.382666
0.383022
0.383375
0.38372
0.384064
0.384409
0.384745
0.385078
0.385404
0.385739
0.386067
0.386382
0.386726
0.387062
0.387419
0.387846
0.388276
0.38875
0.389317
0.389898
0.390531
0.391223
0.391886
0.392521
0.393056
0.39347
0.393778
0.394004
0.394172
0.39428
0.394362
0.394424
0.394474
0.394516
0.394583
0.394751
0.395374
0.399679
0.419148
0.490133
0.614237
0.746234
0.851416
0.892712
0.916113
0.947486
0.956253
0.948412
0.928463
0.929281
0.936969
0.941449
0.937635
0.933008
0.93322
0.934534
0.933692
0.931529
0.930947
0.931991
0.931705
0.930829
0.930331
0.930791
0.932294
0.936105
0.944596
0.958248
0.977063
0.99887
1.01952
1.0324
1.0471
0.377129
0.377215
0.377298
0.377394
0.377518
0.377623
0.377727
0.377855
0.37799
0.378126
0.378272
0.378436
0.37861
0.378789
0.378977
0.379179
0.379403
0.37964
0.379881
0.380137
0.380422
0.380721
0.381028
0.381354
0.381694
0.382042
0.382392
0.38274
0.383078
0.383413
0.383744
0.384059
0.384358
0.384649
0.384939
0.385211
0.385469
0.385731
0.385976
0.386239
0.386512
0.386789
0.387132
0.387519
0.387935
0.388438
0.389015
0.389645
0.390361
0.391112
0.391872
0.392571
0.393166
0.39364
0.39397
0.394174
0.394301
0.394378
0.394416
0.394413
0.394396
0.394412
0.394506
0.394714
0.395036
0.39563
0.399041
0.416578
0.480933
0.601175
0.757817
0.87725
0.932618
0.942358
0.929848
0.923051
0.935449
0.944579
0.942071
0.932165
0.931498
0.935078
0.935149
0.932622
0.930703
0.931645
0.932528
0.931438
0.93052
0.930379
0.931039
0.932167
0.93571
0.943922
0.957165
0.976212
0.998974
1.02007
1.0325
1.04664
0.377163
0.377259
0.377347
0.377433
0.377546
0.377673
0.377783
0.377903
0.378049
0.378197
0.378346
0.378511
0.378692
0.37888
0.379082
0.379293
0.379516
0.379762
0.380014
0.380275
0.380567
0.380865
0.381165
0.381485
0.381813
0.38214
0.382464
0.382779
0.383086
0.383394
0.3837
0.383992
0.384272
0.384535
0.38478
0.38501
0.385213
0.385414
0.385601
0.385786
0.385994
0.386217
0.386487
0.386821
0.387202
0.387658
0.3882
0.388819
0.389527
0.390308
0.391144
0.391951
0.392691
0.393319
0.3938
0.394112
0.394279
0.394354
0.394342
0.394296
0.394254
0.394268
0.394359
0.394581
0.394911
0.395315
0.395706
0.396233
0.399046
0.415481
0.480007
0.611365
0.756137
0.849868
0.898845
0.923087
0.953786
0.950472
0.936589
0.928121
0.932351
0.937714
0.935219
0.930596
0.93051
0.933513
0.933133
0.930916
0.930166
0.930861
0.931189
0.931922
0.935303
0.943206
0.956028
0.975414
0.999122
1.02042
1.03232
1.04671
0.377225
0.377326
0.377441
0.377541
0.377641
0.377771
0.377904
0.378026
0.378165
0.378334
0.3785
0.378664
0.378847
0.379041
0.379244
0.379461
0.379691
0.379939
0.380186
0.380437
0.380729
0.381024
0.381299
0.381596
0.3819
0.382193
0.382482
0.382778
0.383072
0.38336
0.383641
0.383906
0.384158
0.384395
0.3846
0.384783
0.384935
0.385073
0.385212
0.385355
0.385521
0.385713
0.385944
0.386235
0.386579
0.386993
0.387491
0.388075
0.388748
0.38951
0.390345
0.391207
0.392053
0.392798
0.393401
0.393873
0.394158
0.394201
0.394187
0.394143
0.39414
0.394167
0.394268
0.394506
0.394856
0.395235
0.39563
0.396037
0.396285
0.396658
0.399309
0.418534
0.485281
0.619795
0.790889
0.895429
0.941263
0.939246
0.924662
0.931328
0.941126
0.939058
0.931091
0.928824
0.932247
0.934882
0.932759
0.929952
0.930179
0.931479
0.931136
0.931639
0.934968
0.942435
0.954818
0.974721
0.999355
1.01971
1.0324
1.0471
0.377395
0.377488
0.377611
0.377734
0.377839
0.377958
0.378104
0.378242
0.378369
0.37852
0.378693
0.378863
0.37904
0.379228
0.379426
0.379632
0.379852
0.380103
0.380345
0.380576
0.380846
0.381138
0.381396
0.381661
0.38194
0.382209
0.382488
0.382762
0.383029
0.383293
0.383543
0.383783
0.384015
0.38423
0.384412
0.384569
0.384702
0.38481
0.384916
0.385031
0.385167
0.385328
0.385522
0.385771
0.386069
0.386436
0.386883
0.3874
0.388014
0.38873
0.38949
0.390365
0.391231
0.392012
0.392737
0.393388
0.393736
0.393895
0.393974
0.394023
0.394067
0.394124
0.394247
0.394496
0.394807
0.39514
0.395503
0.395859
0.396082
0.396258
0.396441
0.3969
0.400082
0.422287
0.502253
0.650938
0.804376
0.868398
0.907012
0.943766
0.947904
0.940222
0.926295
0.928651
0.936724
0.935828
0.929934
0.929123
0.931616
0.931786
0.931038
0.931509
0.934762
0.941584
0.953617
0.97397
0.999084
1.01857
1.03086
1.0474
0.377629
0.37771
0.37781
0.377937
0.378051
0.378161
0.378292
0.378441
0.378569
0.3787
0.378859
0.379025
0.379199
0.379379
0.379565
0.379763
0.379969
0.380209
0.380451
0.380672
0.380915
0.381189
0.381446
0.381695
0.381952
0.382206
0.382463
0.382723
0.382974
0.383215
0.383455
0.383693
0.383907
0.3841
0.384274
0.384423
0.384546
0.384645
0.384741
0.384843
0.384958
0.38509
0.385244
0.385439
0.385681
0.385979
0.386359
0.3868
0.387324
0.387967
0.388652
0.389423
0.390268
0.39107
0.391807
0.392586
0.393131
0.393458
0.393764
0.393954
0.394082
0.394187
0.394336
0.394566
0.394807
0.395028
0.395296
0.395527
0.395772
0.396032
0.396303
0.396607
0.396959
0.397661
0.402053
0.43369
0.526357
0.690973
0.847911
0.921195
0.936611
0.922275
0.924892
0.938402
0.93994
0.933071
0.927183
0.930169
0.932869
0.931636
0.929866
0.931017
0.934608
0.940573
0.952396
0.973415
0.998013
1.01737
1.03042
1.04793
0.377819
0.377894
0.377975
0.378085
0.378201
0.378305
0.378417
0.378558
0.378696
0.378825
0.378972
0.379128
0.379292
0.379469
0.379652
0.379846
0.380044
0.380262
0.380502
0.380723
0.380949
0.381207
0.381457
0.381699
0.381955
0.382202
0.382452
0.382718
0.382967
0.383194
0.383429
0.383663
0.383865
0.384044
0.38421
0.384349
0.384467
0.384573
0.38467
0.384764
0.384858
0.384962
0.385074
0.385207
0.385384
0.385606
0.385901
0.386263
0.386678
0.38721
0.387828
0.38848
0.389245
0.390066
0.390833
0.391621
0.392369
0.392944
0.39347
0.393858
0.39409
0.394238
0.394386
0.394598
0.394755
0.394873
0.395016
0.395216
0.39547
0.395813
0.396207
0.396638
0.397076
0.39755
0.397806
0.398625
0.405234
0.449465
0.568545
0.725461
0.850888
0.895104
0.929832
0.950077
0.943034
0.924901
0.926502
0.934125
0.933685
0.929216
0.92907
0.931078
0.934279
0.939333
0.951222
0.972583
0.996741
1.01642
1.03057
1.04874
0.377895
0.377979
0.378061
0.378158
0.378282
0.378391
0.37849
0.378612
0.378752
0.378882
0.379024
0.379179
0.379337
0.379503
0.379684
0.379886
0.380088
0.380291
0.380525
0.380753
0.380976
0.381228
0.381481
0.381725
0.381988
0.382236
0.382471
0.382736
0.38299
0.383214
0.383447
0.383688
0.383888
0.384065
0.384232
0.384367
0.384471
0.384573
0.384658
0.384737
0.384814
0.384892
0.384968
0.385043
0.385147
0.385292
0.385486
0.385753
0.386081
0.386495
0.38702
0.387617
0.388286
0.389056
0.389857
0.390683
0.391514
0.392253
0.392986
0.393572
0.393982
0.394227
0.394388
0.39457
0.394618
0.39466
0.394756
0.394939
0.395225
0.395642
0.396129
0.396613
0.397104
0.39746
0.397685
0.397814
0.397921
0.399214
0.41168
0.473313
0.615385
0.796524
0.905065
0.937321
0.924514
0.920126
0.933554
0.937564
0.931108
0.926122
0.928603
0.931902
0.933584
0.937843
0.949916
0.971336
0.995235
1.01585
1.03089
1.05014
0.377906
0.377992
0.378078
0.378171
0.378284
0.378407
0.378509
0.378621
0.37876
0.378903
0.379047
0.379204
0.379364
0.379533
0.379717
0.379924
0.380137
0.380341
0.38057
0.380814
0.381043
0.381291
0.381553
0.381802
0.382072
0.382342
0.382588
0.382856
0.383128
0.38337
0.383619
0.383864
0.384066
0.384237
0.384381
0.384482
0.384557
0.384639
0.384705
0.384752
0.384798
0.38484
0.384861
0.384879
0.384916
0.384992
0.385106
0.385284
0.385541
0.38588
0.386321
0.386869
0.387494
0.388205
0.388977
0.389786
0.390671
0.391463
0.392242
0.392963
0.393607
0.394078
0.394312
0.394371
0.394387
0.394434
0.394538
0.394738
0.395073
0.395544
0.396045
0.396563
0.397009
0.397306
0.397477
0.397446
0.397465
0.397617
0.39804
0.400933
0.423337
0.517766
0.67734
0.825123
0.885013
0.920752
0.946309
0.940752
0.924108
0.925395
0.931589
0.932731
0.932325
0.936237
0.949278
0.969761
0.993506
1.01558
1.03157
1.05015
0.377883
0.377972
0.378059
0.378152
0.378266
0.378395
0.378507
0.378621
0.378763
0.378912
0.37906
0.379233
0.379411
0.379594
0.379788
0.379997
0.380228
0.38045
0.380685
0.380954
0.38121
0.381473
0.381758
0.382029
0.382315
0.382605
0.382863
0.383131
0.383402
0.383654
0.383892
0.384105
0.38429
0.384407
0.384496
0.384561
0.384606
0.384654
0.384692
0.384709
0.38471
0.384705
0.384687
0.384669
0.384679
0.384716
0.384792
0.384925
0.385137
0.385436
0.385819
0.386311
0.386891
0.387538
0.388256
0.38899
0.38979
0.390577
0.391367
0.392121
0.392835
0.393517
0.393814
0.393982
0.394127
0.394261
0.394418
0.394648
0.395033
0.395488
0.395945
0.3964
0.39674
0.396968
0.397073
0.397076
0.39718
0.397433
0.397952
0.398536
0.399353
0.405598
0.447802
0.569773
0.758924
0.888055
0.931989
0.924031
0.919051
0.931036
0.934804
0.931165
0.930625
0.935376
0.948456
0.967531
0.991943
1.01597
1.03339
1.05008
0.377904
0.378008
0.378101
0.378191
0.378299
0.378428
0.378556
0.378681
0.378834
0.379003
0.379171
0.379356
0.379564
0.379795
0.380012
0.380234
0.380494
0.380748
0.380999
0.381266
0.381523
0.38178
0.382049
0.382301
0.382553
0.382825
0.383065
0.383303
0.383555
0.383792
0.384008
0.384212
0.384367
0.384453
0.384538
0.384567
0.384556
0.384545
0.384555
0.384558
0.384545
0.384522
0.384522
0.384523
0.384514
0.384533
0.384603
0.384736
0.384937
0.385206
0.385536
0.385964
0.386488
0.387057
0.387664
0.388281
0.388955
0.389647
0.390368
0.391073
0.391761
0.392528
0.393117
0.393529
0.393871
0.394156
0.394445
0.394745
0.395123
0.395495
0.395839
0.396128
0.39629
0.396447
0.396561
0.39671
0.396964
0.397417
0.398068
0.398699
0.399086
0.399357
0.400663
0.414246
0.489501
0.646916
0.810577
0.880315
0.916306
0.943182
0.937874
0.927658
0.92884
0.935813
0.947599
0.964771
0.990411
1.01591
1.03226
1.04939
0.378034
0.378125
0.378244
0.378376
0.378486
0.378617
0.378777
0.378943
0.379125
0.379305
0.379508
0.379726
0.379938
0.380168
0.380395
0.380616
0.380853
0.381083
0.381321
0.381572
0.381787
0.382009
0.382242
0.382439
0.382639
0.382863
0.383099
0.383336
0.383561
0.383793
0.384004
0.384187
0.384313
0.384333
0.384356
0.384365
0.384354
0.384344
0.384386
0.384425
0.384428
0.384414
0.384435
0.384477
0.384464
0.38445
0.384508
0.384659
0.38487
0.385123
0.385412
0.385783
0.386241
0.386715
0.38717
0.387621
0.388149
0.388701
0.389307
0.389944
0.390596
0.391414
0.392274
0.392981
0.393603
0.394123
0.394509
0.394807
0.395141
0.395425
0.395617
0.395701
0.395769
0.395879
0.396089
0.396422
0.396906
0.397522
0.398151
0.398605
0.398932
0.398975
0.399039
0.39937
0.403338
0.437286
0.550067
0.742773
0.876476
0.931828
0.920721
0.9256
0.929894
0.936729
0.945711
0.961545
0.98928
1.01602
1.03147
1.049
0.378464
0.37856
0.378664
0.378787
0.37891
0.379042
0.379186
0.379349
0.379533
0.379695
0.379864
0.38005
0.380237
0.380429
0.380623
0.380826
0.381056
0.381281
0.381497
0.381731
0.381931
0.382112
0.382336
0.382512
0.382651
0.382841
0.383067
0.383277
0.383478
0.383656
0.383855
0.384029
0.384062
0.38407
0.384119
0.384217
0.384253
0.384277
0.384334
0.384373
0.384377
0.384376
0.384416
0.384518
0.384529
0.384532
0.384636
0.384815
0.384992
0.385191
0.385413
0.385701
0.386085
0.386412
0.38668
0.386999
0.387395
0.387813
0.388318
0.388898
0.38955
0.390381
0.391352
0.392279
0.393124
0.393858
0.394417
0.394781
0.395076
0.395188
0.395135
0.395115
0.395214
0.395417
0.395748
0.396264
0.396902
0.397612
0.398094
0.398415
0.39864
0.39861
0.398702
0.399034
0.399527
0.400875
0.41221
0.480848
0.63502
0.814958
0.874158
0.923561
0.931933
0.937578
0.941559
0.958218
0.988066
1.01606
1.0306
1.04951
0.378821
0.378911
0.379021
0.37911
0.379199
0.379314
0.379445
0.379576
0.379715
0.379851
0.380003
0.380169
0.380323
0.380494
0.380679
0.380861
0.381067
0.381278
0.381475
0.381694
0.381876
0.382046
0.382294
0.382463
0.382565
0.382729
0.382968
0.383128
0.383301
0.383485
0.383642
0.383808
0.383911
0.383982
0.384066
0.384186
0.384269
0.384335
0.384381
0.384387
0.384391
0.384425
0.384579
0.384716
0.384694
0.384715
0.384894
0.38505
0.385111
0.385225
0.385408
0.385657
0.385916
0.386041
0.386197
0.386467
0.386812
0.38716
0.387571
0.388079
0.388711
0.389507
0.390486
0.391505
0.392408
0.393187
0.393899
0.394538
0.394662
0.394637
0.394534
0.39455
0.394733
0.395095
0.395602
0.39621
0.396953
0.397554
0.397944
0.398156
0.398146
0.398215
0.398476
0.398949
0.399732
0.400309
0.400756
0.403986
0.435686
0.548714
0.737153
0.893875
0.915873
0.934085
0.933802
0.955301
0.985783
1.01439
1.03084
1.05168
0.378892
0.37899
0.379089
0.379174
0.379266
0.379374
0.379477
0.379573
0.379675
0.379783
0.379891
0.380009
0.380129
0.380266
0.380444
0.380649
0.38089
0.381163
0.381409
0.381587
0.381728
0.381918
0.382242
0.38239
0.382447
0.382604
0.382847
0.382984
0.383169
0.383395
0.383575
0.383735
0.383862
0.383981
0.3841
0.384262
0.384368
0.384406
0.384462
0.38451
0.384543
0.384622
0.384775
0.384803
0.384755
0.384849
0.385063
0.385136
0.385142
0.385199
0.385362
0.385527
0.385606
0.385686
0.385868
0.386156
0.386476
0.38679
0.387149
0.387599
0.388168
0.388882
0.389728
0.390675
0.391503
0.392142
0.392767
0.393361
0.393736
0.393857
0.393946
0.394122
0.394457
0.394964
0.395564
0.396274
0.396901
0.397409
0.397638
0.397614
0.397655
0.397882
0.398317
0.399149
0.399819
0.400457
0.400455
0.400526
0.401495
0.412244
0.487371
0.660756
0.801343
0.905776
0.923027
0.961307
0.991182
1.00991
1.03056
1.05426
0.37872
0.378822
0.378929
0.379043
0.379164
0.37929
0.379414
0.379522
0.379625
0.379743
0.379839
0.379921
0.380015
0.380131
0.38029
0.380523
0.380812
0.381129
0.381473
0.381657
0.381745
0.381893
0.382244
0.382437
0.38247
0.382631
0.382946
0.383113
0.383311
0.383588
0.383798
0.383958
0.384114
0.384252
0.384414
0.384526
0.384585
0.384635
0.384626
0.38461
0.384626
0.384706
0.384771
0.384719
0.384712
0.384859
0.385039
0.385073
0.385061
0.385083
0.385191
0.385304
0.385385
0.385507
0.385731
0.386049
0.386384
0.386759
0.387152
0.387514
0.387964
0.38854
0.389157
0.389844
0.390449
0.390827
0.391283
0.391897
0.392502
0.392985
0.393409
0.393846
0.394406
0.395073
0.39575
0.396317
0.396825
0.397078
0.397036
0.397044
0.397229
0.397662
0.398485
0.399276
0.399829
0.40012
0.400074
0.400215
0.400697
0.401328
0.405769
0.439743
0.581923
0.773993
0.888057
0.95339
0.981263
1.005
1.03197
1.05623
0.378635
0.378749
0.378871
0.379003
0.37914
0.379279
0.379421
0.379559
0.379676
0.379808
0.37993
0.380021
0.380119
0.380234
0.380381
0.380611
0.3809
0.381197
0.381567
0.381834
0.381935
0.382086
0.382499
0.38278
0.382893
0.383155
0.383494
0.383631
0.383796
0.384044
0.384268
0.384374
0.384428
0.384526
0.384622
0.384614
0.384627
0.384665
0.384621
0.384529
0.384515
0.384517
0.38445
0.38442
0.384464
0.384489
0.384567
0.384687
0.384786
0.38491
0.38506
0.385156
0.38528
0.385488
0.385743
0.386076
0.386531
0.386915
0.387194
0.387465
0.387826
0.388284
0.388633
0.388981
0.38931
0.389505
0.389847
0.390468
0.391238
0.392028
0.392804
0.393631
0.394419
0.395206
0.395784
0.396266
0.396461
0.396408
0.396392
0.396542
0.396967
0.397793
0.39867
0.399233
0.399573
0.399549
0.399638
0.400024
0.400755
0.401466
0.401871
0.403034
0.421552
0.501408
0.690024
0.879007
0.941255
1.00325
1.03683
1.05583
0.378878
0.379026
0.379173
0.379322
0.379483
0.379647
0.379806
0.379963
0.380121
0.380305
0.380487
0.380654
0.380885
0.381074
0.381213
0.381424
0.381716
0.38199
0.382317
0.382637
0.382764
0.382886
0.383158
0.38347
0.383604
0.383776
0.384072
0.384233
0.3843
0.384442
0.384552
0.384567
0.384526
0.384523
0.384542
0.384452
0.384436
0.384461
0.384379
0.384279
0.384242
0.384169
0.3841
0.384137
0.384251
0.384292
0.38437
0.384544
0.384734
0.384893
0.385062
0.385247
0.385512
0.385838
0.386147
0.386547
0.38697
0.387109
0.38721
0.387364
0.387559
0.387702
0.387805
0.387983
0.388204
0.388445
0.388812
0.389392
0.390161
0.391067
0.392093
0.393127
0.394175
0.394971
0.395524
0.395621
0.395569
0.3956
0.395791
0.396223
0.397071
0.397996
0.398592
0.398991
0.39901
0.399034
0.399295
0.399975
0.400838
0.401421
0.401914
0.401966
0.40245
0.40797
0.465436
0.626539
0.843496
0.996886
1.03678
1.04981
0.380216
0.380342
0.380494
0.380659
0.380816
0.380978