/*--------------------------------*- C++ -*----------------------------------*\
  =========                 |
  \\      /  F ield         | OpenFOAM: The Open Source CFD Toolbox
   \\    /   O peration     | Website:  https://openfoam.org
    \\  /    A nd           | Version:  7
     \\/     M anipulation  |
\*---------------------------------------------------------------------------*/
FoamFile
{
    version     2.0;
    format      ascii;
    class       volScalarField;
    location    "2";
    object      p;
}
// * * * * * * * * * * * * * * * * * * * * * * * * * * * * * * * * * * * * * //

dimensions      [1 -1 -2 0 0 0 0];

internalField   nonuniform List<scalar> 
90000
(
0.637622
0.651486
0.665868
0.68003
0.69307
0.706184
0.718805
0.732008
0.745103
0.758919
0.772721
0.787035
0.801088
0.815388
0.829108
0.842883
0.85585
0.868651
0.88065
0.891857
0.90287
0.912003
0.921006
0.929178
0.934601
0.940858
0.94552
0.946657
0.948916
0.949151
0.948516
0.946487
0.943657
0.940838
0.93544
0.930182
0.926555
0.926096
0.927078
0.929128
0.931821
0.934397
0.936437
0.938009
0.938135
0.937733
0.936644
0.935115
0.933173
0.931198
0.930395
0.930721
0.931938
0.933948
0.936379
0.938264
0.938315
0.937795
0.936868
0.935453
0.934882
0.935262
0.936402
0.937849
0.939174
0.938934
0.938022
0.937452
0.937637
0.938303
0.939258
0.940257
0.940163
0.940148
0.940695
0.94192
0.943409
0.945185
0.949288
0.959565
0.978096
1.00241
1.02586
1.04111
1.0491
1.05457
1.05961
1.06527
1.07091
1.07643
1.08305
1.08874
1.09075
1.09202
1.09339
1.09399
1.09382
1.09414
1.09485
1.09482
0.626813
0.627811
0.629632
0.632419
0.636072
0.640649
0.645981
0.65226
0.659224
0.66723
0.675825
0.685582
0.695846
0.707337
0.719277
0.732256
0.745646
0.759663
0.774033
0.788617
0.803183
0.817897
0.831962
0.845707
0.859445
0.870912
0.883523
0.893037
0.902501
0.90949
0.91594
0.919785
0.922926
0.926577
0.93292
0.938214
0.940741
0.941787
0.941646
0.940578
0.938791
0.937086
0.935417
0.933633
0.932835
0.932797
0.932718
0.933101
0.933633
0.934785
0.935334
0.935702
0.935557
0.934938
0.934873
0.934869
0.935119
0.935011
0.935198
0.935985
0.93666
0.937078
0.937502
0.937375
0.937592
0.937537
0.937663
0.938151
0.938687
0.93877
0.938845
0.939229
0.939756
0.940775
0.941524
0.942135
0.943072
0.944939
0.949476
0.959779
0.97809
1.00272
1.02654
1.04181
1.0499
1.05505
1.05943
1.06461
1.07046
1.07618
1.08259
1.08834
1.09067
1.09204
1.09346
1.09402
1.09376
1.09401
1.09475
1.09481
0.626454
0.626442
0.626427
0.626421
0.626452
0.626547
0.626746
0.627077
0.627582
0.628318
0.629311
0.630672
0.632425
0.634764
0.637739
0.641626
0.646367
0.652409
0.659438
0.668299
0.678294
0.690493
0.703844
0.719495
0.73619
0.754929
0.774309
0.795121
0.816152
0.836966
0.85785
0.876586
0.895498
0.909617
0.919697
0.927836
0.930901
0.933957
0.934628
0.934449
0.934266
0.933905
0.932406
0.930101
0.929614
0.930726
0.932745
0.935692
0.938251
0.940028
0.939739
0.93836
0.936095
0.933353
0.931453
0.930581
0.931233
0.933329
0.936262
0.939079
0.938792
0.937843
0.936756
0.935835
0.93604
0.937233
0.938951
0.939764
0.939312
0.938388
0.938369
0.939035
0.940419
0.94159
0.941435
0.941536
0.942569
0.944924
0.949669
0.959757
0.978404
1.00385
1.02726
1.0416
1.04938
1.05458
1.05969
1.06549
1.07119
1.07665
1.08266
1.08848
1.09089
1.09215
1.09345
1.09396
1.09368
1.09394
1.09474
1.09474
0.626439
0.626422
0.626397
0.626369
0.626342
0.626338
0.626317
0.626303
0.626297
0.626284
0.626278
0.626266
0.626253
0.626261
0.626319
0.626454
0.626667
0.627096
0.627759
0.62873
0.630088
0.632054
0.634709
0.638525
0.643473
0.650402
0.658956
0.670586
0.684169
0.70166
0.721047
0.744048
0.76836
0.794333
0.818772
0.843216
0.861866
0.882347
0.893301
0.904003
0.910103
0.91598
0.918581
0.922299
0.929523
0.934496
0.938346
0.940504
0.941429
0.941036
0.939974
0.937697
0.935402
0.932976
0.93119
0.931856
0.933714
0.936008
0.93748
0.938187
0.937926
0.937364
0.936358
0.936497
0.937177
0.938004
0.938712
0.938835
0.938643
0.938379
0.93864
0.939269
0.940276
0.941025
0.941288
0.941747
0.94287
0.944964
0.949493
0.959647
0.978369
1.00373
1.027
1.04092
1.0488
1.05435
1.05947
1.06527
1.07112
1.07649
1.08225
1.0879
1.0906
1.09202
1.09338
1.09399
1.09373
1.09396
1.0947
1.09475
0.626438
0.626433
0.626433
0.626429
0.626421
0.62641
0.626398
0.626386
0.626361
0.626322
0.626279
0.626235
0.626196
0.626167
0.626152
0.62616
0.626215
0.626198
0.626189
0.626182
0.62619
0.62622
0.626264
0.626366
0.626544
0.626866
0.627564
0.628798
0.630711
0.633884
0.638438
0.6456
0.655102
0.66907
0.686462
0.708789
0.735536
0.764105
0.795287
0.826033
0.852871
0.877712
0.898928
0.912908
0.922731
0.927116
0.931237
0.933281
0.934779
0.933617
0.930573
0.929647
0.930915
0.933851
0.936435
0.93836
0.938169
0.937163
0.93542
0.934181
0.93419
0.934872
0.93681
0.93895
0.939405
0.938852
0.937829
0.9374
0.937724
0.938656
0.940016
0.94011
0.940058
0.940228
0.940741
0.941725
0.943067
0.94496
0.949293
0.959649
0.978403
1.00376
1.027
1.0409
1.04888
1.0545
1.05975
1.06554
1.07117
1.07636
1.08213
1.08787
1.09078
1.09219
1.0934
1.09395
1.09366
1.09387
1.09464
1.09476
0.626474
0.626455
0.62644
0.626434
0.626442
0.626446
0.626441
0.62643
0.626416
0.626397
0.626372
0.626354
0.626311
0.62626
0.626231
0.62621
0.626195
0.626188
0.626173
0.626155
0.626142
0.626135
0.626135
0.626158
0.626203
0.626315
0.626268
0.626209
0.626183
0.62621
0.62633
0.626636
0.627201
0.628459
0.630787
0.634804
0.641825
0.651922
0.668434
0.688524
0.71663
0.746882
0.781507
0.814024
0.844121
0.866758
0.886936
0.897095
0.908534
0.913106
0.919345
0.926033
0.9348
0.94015
0.942406
0.94196
0.940567
0.937531
0.934278
0.932046
0.93248
0.934764
0.937596
0.939761
0.939428
0.93855
0.937259
0.937003
0.937795
0.939124
0.940136
0.940623
0.940376
0.94018
0.940575
0.941641
0.942897
0.944625
0.948934
0.959445
0.978185
1.0032
1.02658
1.04082
1.04863
1.05419
1.05964
1.06561
1.07132
1.07649
1.08216
1.08768
1.09069
1.09214
1.09329
1.09384
1.09362
1.09387
1.09463
1.09484
0.626579
0.626525
0.626504
0.626493
0.626483
0.626478
0.62648
0.626479
0.626475
0.626467
0.626442
0.626428
0.626422
0.626366
0.626317
0.626295
0.626284
0.626289
0.626292
0.626291
0.626277
0.626263
0.626247
0.626227
0.626224
0.62624
0.626205
0.626168
0.62616
0.626161
0.626189
0.626276
0.626469
0.626412
0.626355
0.626388
0.626575
0.627065
0.628445
0.631091
0.636607
0.645581
0.660659
0.682627
0.710408
0.746288
0.78329
0.819679
0.854384
0.881058
0.907472
0.919908
0.928984
0.933829
0.937294
0.935985
0.931936
0.929396
0.930789
0.93377
0.936385
0.938782
0.938286
0.937726
0.936417
0.93596
0.936319
0.937761
0.939261
0.939841
0.939471
0.939424
0.939703
0.940406
0.941266
0.941845
0.942583
0.944192
0.94863
0.959557
0.978429
1.00318
1.02633
1.0407
1.04843
1.05405
1.05966
1.06561
1.07121
1.07638
1.08212
1.08755
1.09073
1.09216
1.09322
1.09379
1.09361
1.09382
1.09458
1.09491
0.626726
0.626623
0.626551
0.62653
0.626524
0.626524
0.626521
0.626513
0.626505
0.626509
0.626503
0.626479
0.626478
0.626457
0.626374
0.626318
0.626306
0.626303
0.626303
0.626306
0.626305
0.626302
0.6263
0.62629
0.626281
0.626306
0.626325
0.626283
0.626246
0.62623
0.626238
0.626266
0.626265
0.626265
0.626273
0.626292
0.626337
0.626474
0.62644
0.626454
0.626562
0.626958
0.628046
0.630533
0.635862
0.646072
0.662186
0.688447
0.719496
0.759055
0.799579
0.834749
0.868241
0.884875
0.903306
0.910043
0.91816
0.926322
0.936097
0.942414
0.94219
0.941214
0.937975
0.933226
0.933434
0.934297
0.936947
0.939929
0.940434
0.939814
0.938856
0.9388
0.939389
0.940792
0.941843
0.941584
0.941866
0.943514
0.948242
0.958878
0.977836
1.00306
1.02674
1.0412
1.04864
1.05409
1.05963
1.06546
1.07103
1.07637
1.08225
1.08753
1.09074
1.09211
1.09307
1.09367
1.09354
1.09379
1.09457
1.09504
0.626823
0.626727
0.626606
0.626575
0.626572
0.626573
0.626575
0.626571
0.626565
0.626576
0.626582
0.626552
0.626532
0.626534
0.6265
0.626393
0.626344
0.626334
0.626333
0.626334
0.626335
0.626342
0.626342
0.626324
0.626315
0.626343
0.626353
0.626307
0.626272
0.626265
0.626299
0.626288
0.626236
0.626215
0.626243
0.626249
0.626206
0.626175
0.626203
0.626242
0.626305
0.626258
0.626198
0.626207
0.626311
0.626797
0.628172
0.631644
0.638465
0.652686
0.673274
0.707229
0.745934
0.790531
0.834312
0.869126
0.904099
0.919714
0.930609
0.936593
0.937785
0.933813
0.92883
0.929996
0.933703
0.937425
0.939304
0.939972
0.939248
0.937237
0.937413
0.938489
0.94024
0.941314
0.941143
0.940938
0.941393
0.943399
0.948207
0.958156
0.97646
1.00257
1.0279
1.04234
1.04917
1.05438
1.05974
1.06538
1.07089
1.07652
1.08252
1.08766
1.09086
1.09218
1.09304
1.09365
1.09356
1.09366
1.09461
1.09516
0.626955
0.62687
0.626747
0.626713
0.626709
0.62671
0.626709
0.626705
0.626704
0.626716
0.626705
0.626689
0.626686
0.626676
0.62664
0.626575
0.626471
0.626421
0.626407
0.626403
0.6264
0.626402
0.626396
0.626375
0.626365
0.62639
0.626379
0.626321
0.626286
0.626294
0.626317
0.626263
0.626202
0.626185
0.626217
0.626222
0.626149
0.626093
0.626082
0.626098
0.626093
0.626079
0.626083
0.626096
0.626135
0.626104
0.626099
0.626155
0.626462
0.627439
0.629807
0.635999
0.647114
0.670148
0.700283
0.743814
0.790381
0.831988
0.870604
0.889787
0.908223
0.914481
0.926906
0.934717
0.941797
0.941723
0.940843
0.937914
0.935032
0.935316
0.937427
0.940501
0.94141
0.940947
0.93968
0.939908
0.941269
0.94411
0.948243
0.95678
0.975352
1.00302
1.02879
1.04304
1.04988
1.0552
1.06027
1.06553
1.07097
1.0769
1.08299
1.08783
1.09093
1.09218
1.09298
1.09361
1.09355
1.09358
1.09475
1.09522
0.626994
0.626874
0.626815
0.626807
0.626805
0.626806
0.626802
0.626796
0.626793
0.626803
0.6268
0.626785
0.626765
0.626745
0.626735
0.62672
0.626673
0.62657
0.626504
0.626482
0.626476
0.626478
0.626484
0.62648
0.626478
0.626504
0.62649
0.626414
0.626379
0.626398
0.626394
0.626319
0.626252
0.626238
0.626267
0.626301
0.626241
0.62617
0.626151
0.626142
0.626102
0.626062
0.626045
0.626037
0.626027
0.626031
0.626027
0.626025
0.625997
0.625986
0.62605
0.626299
0.627043
0.629409
0.634721
0.647895
0.668842
0.70648
0.751252
0.80196
0.851276
0.888667
0.919445
0.929038
0.937451
0.936952
0.933059
0.930965
0.93316
0.937509
0.94069
0.941528
0.940744
0.938373
0.938442
0.939551
0.942218
0.944492
0.947314
0.955393
0.97509
1.00347
1.02874
1.04182
1.04939
1.05518
1.06035
1.06556
1.07111
1.07734
1.08324
1.088
1.09097
1.09217
1.09301
1.09364
1.09363
1.09361
1.09489
1.09521
0.626902
0.626844
0.626839
0.626841
0.626842
0.626842
0.626843
0.626843
0.626844
0.626843
0.626841
0.626844
0.62685
0.62683
0.626812
0.626808
0.62679
0.626749
0.62668
0.626582
0.626527
0.626513
0.626516
0.626519
0.626529
0.626559
0.626542
0.626445
0.626399
0.626407
0.626392
0.626307
0.626228
0.626212
0.626238
0.626291
0.626255
0.626171
0.626132
0.626112
0.626082
0.626046
0.62603
0.626021
0.625995
0.625968
0.625948
0.62592
0.625876
0.625835
0.625801
0.62577
0.62578
0.625867
0.626146
0.627052
0.629447
0.636389
0.649986
0.67873
0.717552
0.769607
0.822403
0.85945
0.895219
0.905464
0.917295
0.927732
0.939697
0.942954
0.94231
0.939327
0.936101
0.936486
0.938873
0.942166
0.943567
0.943863
0.945797
0.954652
0.976122
1.00392
1.02639
1.04085
1.04944
1.0555
1.0609
1.06625
1.07166
1.07781
1.08336
1.08826
1.09134
1.0925
1.0934
1.09409
1.09389
1.09363
1.09505
1.09521
0.626967
0.626892
0.626883
0.626885
0.62689
0.626894
0.626896
0.626901
0.626909
0.626913
0.626913
0.626923
0.626935
0.626912
0.626885
0.626883
0.626877
0.626846
0.626786
0.626706
0.626612
0.626523
0.626492
0.626488
0.626499
0.626531
0.626522
0.626441
0.626363
0.626354
0.626338
0.626261
0.626179
0.626163
0.62619
0.626236
0.626198
0.626112
0.626066
0.626044
0.626014
0.625975
0.625961
0.625953
0.625932
0.625899
0.625875
0.625857
0.625803
0.625732
0.625675
0.625632
0.6256
0.625599
0.625646
0.625742
0.625923
0.626382
0.627566
0.631227
0.639514
0.659966
0.692056
0.743662
0.799709
0.851
0.900886
0.92166
0.934594
0.937691
0.934656
0.930052
0.932721
0.938361
0.942467
0.943791
0.942292
0.941532
0.944144
0.955205
0.975911
1.00108
1.02476
1.04113
1.05026
1.05531
1.06018
1.0659
1.07204
1.07807
1.08349
1.08827
1.09109
1.09228
1.09322
1.09389
1.09378
1.09372
1.09525
1.09522
0.627069
0.62698
0.626937
0.626932
0.626935
0.626941
0.626945
0.626953
0.62697
0.626964
0.626953
0.626954
0.626969
0.626971
0.62695
0.626923
0.626902
0.62687
0.626819
0.626747
0.626668
0.626582
0.626481
0.626436
0.626428
0.626449
0.626455
0.626403
0.626325
0.626304
0.626295
0.626237
0.626151
0.626135
0.626163
0.626176
0.626132
0.626046
0.625996
0.625977
0.625952
0.625909
0.625859
0.625832
0.625817
0.625795
0.625771
0.625774
0.625761
0.625692
0.625627
0.625579
0.625544
0.62552
0.625509
0.625548
0.625667
0.625847
0.626041
0.626296
0.62685
0.628616
0.633641
0.648196
0.674492
0.723144
0.780896
0.833225
0.881407
0.897437
0.912951
0.923768
0.939228
0.944593
0.944238
0.941745
0.938786
0.939754
0.944847
0.955188
0.972506
0.997973
1.02489
1.0434
1.05152
1.05513
1.05991
1.066
1.07222
1.07769
1.0832
1.08822
1.09098
1.09222
1.09324
1.09392
1.09368
1.0938
1.09539
1.09525
0.627061
0.626978
0.626935
0.62693
0.626934
0.626941
0.626944
0.62695
0.626968
0.626966
0.626947
0.626934
0.626932
0.626941
0.626938
0.626918
0.626886
0.626844
0.626786
0.626719
0.626652
0.626589
0.626534
0.626476
0.626434
0.626431
0.626423
0.626378
0.626289
0.626248
0.626241
0.626208
0.626127
0.626094
0.626104
0.626097
0.626053
0.625985
0.625925
0.625897
0.62587
0.625823
0.62579
0.625771
0.625769
0.625776
0.625736
0.625674
0.62563
0.625564
0.625484
0.625417
0.625365
0.625326
0.625322
0.625397
0.625503
0.62565
0.625877
0.626187
0.626455
0.626599
0.626775
0.627631
0.630764
0.641729
0.664195
0.710496
0.768064
0.826669
0.887466
0.915616
0.933797
0.939634
0.935729
0.934185
0.936873
0.941749
0.947568
0.954023
0.96765
0.995734
1.02803
1.04653
1.05034
1.0547
1.06022
1.06629
1.07188
1.07759
1.08327
1.08842
1.09098
1.09228
1.0935
1.09422
1.09367
1.09386
1.09549
1.09526
0.626981
0.626893
0.626865
0.626865
0.626872
0.626878
0.62688
0.626887
0.626907
0.626902
0.626885
0.626882
0.626881
0.62688
0.626874
0.626856
0.626828
0.626785
0.626727
0.62667
0.626616
0.62657
0.626522
0.626459
0.626429
0.626433
0.62643
0.626394
0.626339
0.626292
0.626264
0.626231
0.626176
0.626104
0.626032
0.625981
0.625929
0.625848
0.625759
0.625733
0.625723
0.625698
0.625673
0.625661
0.625665
0.625669
0.62566
0.625662
0.625721
0.625728
0.625633
0.625539
0.625469
0.625418
0.625358
0.625289
0.625292
0.625419
0.625702
0.626048
0.626341
0.626552
0.626771
0.626727
0.626738
0.627212
0.6295
0.638748
0.658281
0.7024
0.758471
0.818096
0.873464
0.897037
0.912823
0.929486
0.942289
0.946821
0.947405
0.948988
0.964006
0.998894
1.0319
1.04426
1.04991
1.0552
1.06109
1.06666
1.07148
1.07716
1.0833
1.0887
1.09114
1.09244
1.0935
1.09395
1.09353
1.09392
1.09566
1.09531
0.626774
0.626692
0.626677
0.626681
0.62669
0.626699
0.6267
0.626704
0.62672
0.626721
0.62671
0.626716
0.626722
0.626697
0.62668
0.626682
0.626667
0.62662
0.626548
0.626516
0.626496
0.626475
0.626458
0.626437
0.62641
0.626398
0.626412
0.626396
0.626349
0.626293
0.626258
0.626226
0.626191
0.626148
0.626101
0.626061
0.626023
0.625958
0.625887
0.625869
0.625868
0.625853
0.625829
0.625812
0.625795
0.625772
0.625746
0.625726
0.625726
0.625759
0.625712
0.625612
0.625527
0.625471
0.625438
0.625413
0.625402
0.625456
0.625613
0.625868
0.626176
0.626442
0.626671
0.626765
0.626775
0.626745
0.626826
0.627365
0.629404
0.637525
0.654958
0.698151
0.755347
0.820811
0.884627
0.9207
0.934554
0.942103
0.935775
0.940496
0.966352
1.00177
1.02785
1.04207
1.0507
1.05779
1.06238
1.06569
1.07109
1.07725
1.0835
1.08894
1.09137
1.09262
1.09356
1.09387
1.09338
1.09397
1.09583
1.09541
0.627036
0.626968
0.626934
0.626931
0.626936
0.626946
0.626946
0.626942
0.62694
0.626934
0.626932
0.626926
0.626892
0.62682
0.626796
0.626802
0.626814
0.626791
0.626722
0.626678
0.626668
0.626674
0.626661
0.626616
0.626526
0.626439
0.626409
0.626391
0.626329
0.626224
0.626191
0.626212
0.62623
0.626207
0.626153
0.626107
0.626078
0.62604
0.625974
0.625924
0.625906
0.625893
0.625876
0.625858
0.625839
0.625819
0.625802
0.62579
0.625775
0.625784
0.625825
0.625777
0.62569
0.625618
0.625569
0.62553
0.6255
0.625489
0.625531
0.62569
0.625991
0.626327
0.626577
0.6267
0.626714
0.626708
0.626747
0.626852
0.627087
0.627697
0.629455
0.636482
0.653677
0.697295
0.75698
0.823275
0.869274
0.907783
0.918222
0.938949
0.973224
0.998245
1.02164
1.04215
1.05484
1.06004
1.06134
1.06513
1.0714
1.07795
1.08381
1.08907
1.09144
1.09266
1.09361
1.09377
1.09326
1.09402
1.09593
1.09543
0.627023
0.62697
0.626937
0.626934
0.626943
0.626954
0.626944
0.62693
0.626917
0.626908
0.626909
0.626897
0.626855
0.626769
0.626741
0.626743
0.626765
0.62676
0.626717
0.626681
0.626669
0.62667
0.626691
0.626686
0.626627
0.626538
0.62652
0.626543
0.626563
0.626523
0.626455
0.626432
0.626422
0.626391
0.626341
0.626293
0.626253
0.626206
0.626149
0.626088
0.626027
0.625983
0.625957
0.625933
0.625908
0.625884
0.625857
0.625837
0.625828
0.625846
0.625868
0.625862
0.625863
0.625835
0.625741
0.625655
0.625596
0.625552
0.625517
0.625535
0.625736
0.626127
0.626454
0.626572
0.626562
0.626573
0.626622
0.626721
0.626857
0.627182
0.627673
0.628169
0.629675
0.636593
0.655847
0.698993
0.764397
0.834195
0.89264
0.933376
0.963448
0.983325
1.01718
1.04866
1.05936
1.05848
1.05999
1.06529
1.07278
1.0785
1.08399
1.08912
1.09132
1.09251
1.09348
1.09353
1.09324
1.09421
1.09606
1.09545
0.626868
0.626866
0.626866
0.626875
0.626883
0.626863
0.626816
0.626796
0.626785
0.62678
0.626781
0.62676
0.626688
0.626631
0.626621
0.626624
0.626647
0.626659
0.626639
0.626628
0.626627
0.626616
0.626616
0.626638
0.626619
0.626544
0.626506
0.626512
0.626552
0.626549
0.626496
0.626462
0.626445
0.626412
0.62637
0.62634
0.626302
0.626255
0.626214
0.626173
0.626114
0.626033
0.625983
0.625952
0.625914
0.625874
0.625838
0.625813
0.625808
0.625829
0.625842
0.625843
0.625877
0.625946
0.625924
0.62581
0.625708
0.625634
0.625572
0.625529
0.625553
0.625755
0.626134
0.626478
0.626601
0.626532
0.626451
0.626442
0.626583
0.626974
0.627522
0.628085
0.62833
0.628714
0.630617
0.637924
0.660995
0.704448
0.776882
0.847548
0.898646
0.953196
1.02074
1.05721
1.05784
1.05717
1.06004
1.06807
1.07411
1.07855
1.084
1.08909
1.09127
1.0925
1.09353
1.09345
1.09337
1.09443
1.0961
1.09544
0.62696
0.626895
0.626862
0.626859
0.626864
0.626876
0.626872
0.626852
0.626818
0.626772
0.626726
0.626693
0.626656
0.626618
0.626605
0.6266
0.626575
0.62653
0.626511
0.62651
0.626514
0.626509
0.626515
0.626547
0.626532
0.62646
0.626414
0.62641
0.626434
0.626468
0.626443
0.6264
0.626365
0.626333
0.626317
0.626305
0.626265
0.626199
0.626158
0.626134
0.626079
0.625993
0.625942
0.625913
0.625865
0.625791
0.625736
0.625697
0.62567
0.625669
0.625708
0.625765
0.625839
0.625903
0.625928
0.625933
0.625865
0.625744
0.625616
0.62552
0.625458
0.625517
0.625801
0.626236
0.626455
0.626453
0.626434
0.62644
0.626567
0.626934
0.627471
0.628058
0.628426
0.628769
0.62912
0.629796
0.632255
0.640581
0.669099
0.7191
0.799335
0.908231
1.00525
1.04523
1.04847
1.05617
1.06478
1.07019
1.07242
1.07687
1.08379
1.08918
1.09131
1.09272
1.09388
1.09364
1.09368
1.09473
1.09617
1.09545
0.626905
0.626852
0.626779
0.626754
0.626752
0.62676
0.626774
0.626766
0.626734
0.62669
0.626643
0.626585
0.626554
0.626547
0.626543
0.626522
0.626469
0.626399
0.626381
0.626384
0.626386
0.626387
0.626404
0.626432
0.62641
0.626338
0.626285
0.626278
0.626291
0.626327
0.626332
0.62629
0.626232
0.626214
0.626227
0.626218
0.626154
0.626047
0.625986
0.625945
0.625862
0.62576
0.62573
0.625722
0.625673
0.62559
0.625517
0.625475
0.62544
0.625409
0.625408
0.625469
0.625585
0.625706
0.625817
0.625946
0.626064
0.62603
0.625904
0.625789
0.625689
0.625609
0.625622
0.625886
0.626214
0.626355
0.626394
0.626398
0.62648
0.626821
0.627426
0.628047
0.628462
0.628804
0.629164
0.62954
0.629832
0.630474
0.633485
0.645369
0.682318
0.767548
0.881216
0.987352
1.03433
1.06466
1.0711
1.068
1.06939
1.07608
1.08421
1.08964
1.09153
1.09346
1.09457
1.09397
1.09389
1.09488
1.09634
1.09562
0.626758
0.626696
0.626588
0.626491
0.626474
0.626483
0.6265
0.626489
0.626472
0.626473
0.62646
0.626409
0.626366
0.626365
0.62636
0.626326
0.626253
0.626218
0.626214
0.626214
0.626219
0.626227
0.626255
0.62629
0.62627
0.626203
0.626133
0.626122
0.626129
0.626124
0.626082
0.625999
0.625925
0.62591
0.62594
0.625985
0.62593
0.625862
0.625849
0.625867
0.625818
0.625757
0.625752
0.625745
0.625685
0.625595
0.625509
0.625431
0.625348
0.625278
0.625226
0.625205
0.625262
0.625448
0.625684
0.625888
0.626028
0.626089
0.626041
0.625954
0.62585
0.625744
0.625693
0.62577
0.626042
0.626288
0.626429
0.626503
0.626614
0.626909
0.62743
0.628009
0.628427
0.628762
0.629112
0.629396
0.629702
0.629926
0.630339
0.631781
0.638732
0.666112
0.743689
0.886358
1.00446
1.05787
1.06105
1.0588
1.06687
1.07855
1.08494
1.0894
1.09239
1.09482
1.09554
1.09484
1.09413
1.09526
1.09692
1.09604
0.626791
0.626693
0.626631
0.626627
0.626632
0.626642
0.626665
0.626668
0.626665
0.626671
0.626658
0.626615
0.626546
0.626509
0.626478
0.626423
0.62638
0.626368
0.626339
0.626317
0.626313
0.626294
0.626231
0.626174
0.626146
0.626106
0.626048
0.625972
0.625889
0.625803
0.625712
0.625595
0.625521
0.625502
0.625494
0.625496
0.625502
0.62551
0.625535
0.625604
0.625607
0.625584
0.625622
0.625633
0.625561
0.625408
0.625316
0.625279
0.625226
0.625164
0.625114
0.625085
0.625125
0.625269
0.625444
0.625631
0.625839
0.626
0.626049
0.626027
0.62598
0.625878
0.625797
0.625781
0.625936
0.626249
0.626481
0.626638
0.626787
0.627028
0.627397
0.627875
0.628263
0.628556
0.628837
0.629188
0.629532
0.629802
0.630151
0.63088
0.633588
0.639687
0.665552
0.737233
0.863032
0.982132
1.02267
1.0468
1.07372
1.08325
1.0856
1.08948
1.09407
1.09637
1.09483
1.09391
1.09437
1.09649
1.09774
1.0965
0.626623
0.626548
0.626543
0.626551
0.626566
0.626582
0.62659
0.626604
0.626618
0.626604
0.626574
0.626536
0.626491
0.626422
0.626302
0.626259
0.626264
0.62626
0.626197
0.626158
0.62616
0.626131
0.626011
0.625922
0.625873
0.625797
0.625686
0.625565
0.625471
0.6254
0.625327
0.62526
0.625221
0.625191
0.625121
0.62501
0.624955
0.624941
0.624942
0.624967
0.625054
0.62519
0.625317
0.625378
0.6254
0.625437
0.625495
0.625576
0.625581
0.625504
0.625381
0.625255
0.625161
0.625122
0.625156
0.625324
0.625622
0.625864
0.625941
0.625952
0.625982
0.625979
0.625915
0.625883
0.625965
0.626243
0.626508
0.626713
0.626896
0.627162
0.627542
0.627858
0.628097
0.628264
0.628429
0.628798
0.629208
0.629606
0.630075
0.630956
0.632817
0.637931
0.647862
0.672158
0.739547
0.844955
0.961898
1.03085
1.06893
1.07243
1.07967
1.08977
1.09608
1.09501
1.09362
1.09382
1.09549
1.09752
1.09768
1.09652
0.625978
0.625959
0.625964
0.625968
0.625974
0.625985
0.625993
0.625999
0.626002
0.626001
0.626003
0.626028
0.626044
0.625969
0.625855
0.625838
0.625855
0.625845
0.625798
0.625786
0.625757
0.625665
0.62565
0.625645
0.625552
0.625503
0.625521
0.62552
0.625474
0.625416
0.625359
0.625293
0.62521
0.625111
0.625003
0.624858
0.624689
0.624595
0.624558
0.624561
0.624586
0.624654
0.624829
0.62506
0.625246
0.625361
0.625423
0.625487
0.625528
0.62547
0.625349
0.625256
0.625191
0.625145
0.625098
0.625098
0.625267
0.625449
0.625594
0.625765
0.625938
0.626066
0.62608
0.626059
0.626083
0.626278
0.626517
0.626737
0.626941
0.627191
0.627489
0.627715
0.627844
0.627918
0.628037
0.628375
0.628922
0.629394
0.630089
0.631203
0.633046
0.637305
0.646641
0.662877
0.688242
0.73744
0.824826
0.924352
1.00804
1.0444
1.07664
1.0935
1.0943
1.09236
1.09353
1.09557
1.09759
1.09816
1.09734
1.09638
0.625209
0.625163
0.625155
0.625163
0.625152
0.625133
0.625127
0.625129
0.625131
0.625138
0.625165
0.625202
0.625229
0.625249
0.625274
0.625306
0.625332
0.625343
0.625356
0.625394
0.625368
0.62535
0.625384
0.625355
0.625282
0.62527
0.625322
0.625432
0.625466
0.625439
0.62543
0.625457
0.625501
0.625496
0.625431
0.625334
0.625203
0.625019
0.624791
0.624569
0.624481
0.624464
0.624485
0.624604
0.624837
0.625043
0.625147
0.625208
0.625309
0.625301
0.625193
0.625115
0.625102
0.625093
0.625051
0.625005
0.62502
0.625063
0.625151
0.62544
0.625818
0.626087
0.626182
0.626222
0.626269
0.626414
0.626579
0.626737
0.626929
0.627161
0.627398
0.627539
0.627611
0.627653
0.627777
0.628095
0.628686
0.629481
0.63038
0.63146
0.633134
0.636815
0.64536
0.66022
0.682673
0.703953
0.736917
0.80129
0.89282
0.998504
1.0639
1.09006
1.08429
1.08886
1.09546
1.09701
1.09708
1.09668
1.09731
1.09682
0.624797
0.624757
0.624684
0.624655
0.624652
0.624664
0.624655
0.62462
0.624606
0.624599
0.624601
0.624626
0.624669
0.624715
0.624761
0.624814
0.624888
0.62497
0.625037
0.625085
0.625112
0.625128
0.625134
0.625174
0.625306
0.625332
0.62526
0.625231
0.625249
0.625276
0.62532
0.625418
0.625538
0.62553
0.625436
0.625273
0.625092
0.624899
0.624684
0.624429
0.624254
0.624227
0.624236
0.624272
0.624338
0.624407
0.624471
0.624504
0.624572
0.624746
0.624867
0.624917
0.625008
0.625075
0.625035
0.625016
0.625125
0.625104
0.62506
0.625284
0.625702
0.626026
0.626157
0.626228
0.626344
0.626511
0.626596
0.626661
0.62681
0.627017
0.627182
0.62733
0.627454
0.62758
0.627714
0.628146
0.628798
0.629518
0.630425
0.631489
0.633051
0.636306
0.643281
0.656956
0.679081
0.702567
0.717489
0.736021
0.780509
0.868802
0.962571
1.04132
1.06585
1.09299
1.09832
1.09691
1.09446
1.09622
1.09817
1.09789
0.625646
0.625589
0.625531
0.625474
0.625422
0.625361
0.625283
0.625206
0.625159
0.625128
0.625098
0.625064
0.625017
0.624939
0.624893
0.624887
0.624895
0.624935
0.624971
0.624996
0.625028
0.625016
0.624985
0.624988
0.625052
0.625034
0.624937
0.624902
0.6249
0.624913
0.624947
0.625042
0.625196
0.62521
0.625084
0.624862
0.624636
0.624414
0.624177
0.623957
0.623831
0.623793
0.623796
0.623823
0.623862
0.623797
0.623726
0.623706
0.623726
0.623894
0.62426
0.624586
0.62486
0.625029
0.625021
0.625048
0.62521
0.625197
0.62512
0.625273
0.625527
0.625792
0.62599
0.626093
0.626237
0.626387
0.626423
0.626422
0.626467
0.626592
0.626816
0.627103
0.627536
0.627917
0.628198
0.628509
0.628911
0.62948
0.630342
0.631372
0.632813
0.635533
0.641407
0.653435
0.674687
0.700505
0.717
0.725733
0.737322
0.768098
0.838143
0.941027
1.03483
1.08432
1.09166
1.08747
1.09225
1.09939
1.0995
1.09778
0.625538
0.625503
0.625466
0.625409
0.62533
0.625188
0.625003
0.624956
0.624967
0.624954
0.624896
0.624819
0.62475
0.624675
0.624579
0.62444
0.624344
0.62431
0.624291
0.624266
0.624183
0.624049
0.624027
0.624032
0.623944
0.623799
0.623758
0.62367
0.623534
0.623481
0.623537
0.623607
0.62361
0.623658
0.623614
0.623464
0.6234
0.623399
0.623375
0.623412
0.623459
0.623519
0.623633
0.623721
0.623734
0.623729
0.623769
0.623803
0.623775
0.623821
0.624045
0.624295
0.624557
0.62481
0.624853
0.624948
0.625209
0.625218
0.625177
0.625291
0.625319
0.625305
0.625366
0.625478
0.62564
0.625827
0.625975
0.626087
0.626171
0.626289
0.626575
0.627152
0.627811
0.628217
0.628453
0.62866
0.628913
0.629392
0.630171
0.631113
0.632378
0.634779
0.639879
0.650368
0.670151
0.696256
0.715298
0.725024
0.732401
0.740601
0.762263
0.815001
0.910827
1.00033
1.05199
1.07586
1.09991
1.10325
1.10078
1.0977
0.625158
0.625139
0.625094
0.625015
0.624891
0.624735
0.624598
0.624398
0.624201
0.624189
0.624159
0.623985
0.623745
0.623582
0.623433
0.623235
0.623063
0.622955
0.622924
0.62294
0.622972
0.622959
0.622927
0.62285
0.622686
0.622622
0.622575
0.622484
0.622352
0.622261
0.622351
0.622483
0.622485
0.622438
0.622435
0.622485
0.622588
0.622634
0.622694
0.622928
0.623228
0.623516
0.623808
0.623952
0.623919
0.623787
0.623765
0.623823
0.623908
0.623989
0.624051
0.62405
0.62412
0.624294
0.624396
0.624548
0.624846
0.624855
0.624816
0.624844
0.624698
0.624566
0.624532
0.624541
0.624705
0.625082
0.62552
0.625964
0.626221
0.626545
0.62701
0.62751
0.62803
0.62831
0.628465
0.628614
0.62883
0.629204
0.629806
0.630667
0.632007
0.634326
0.638921
0.648147
0.665497
0.690533
0.711893
0.7241
0.732261
0.739815
0.746401
0.759086
0.799353
0.875999
0.98444
1.05646
1.09589
1.09691
1.09415
1.09747
0.623825
0.623889
0.623939
0.624
0.624027
0.624006
0.623948
0.623833
0.623628
0.623549
0.623583
0.623518
0.623241
0.622996
0.622863
0.622728
0.622603
0.622514
0.622426
0.622409
0.622499
0.622616
0.622605
0.622427
0.622263
0.622246
0.622257
0.622267
0.622253
0.622363
0.622727
0.623076
0.623142
0.62305
0.622779
0.622673
0.62266
0.622775
0.623171
0.623715
0.623964
0.623926
0.623898
0.62388
0.623701
0.623542
0.623491
0.623515
0.623586
0.623495
0.623439
0.623508
0.623377
0.623103
0.623024
0.623034
0.623196
0.623283
0.623339
0.623492
0.623695
0.623917
0.62403
0.624088
0.624389
0.624955
0.625578
0.626062
0.626393
0.626737
0.627152
0.627565
0.627961
0.628229
0.628316
0.628366
0.628487
0.628839
0.629447
0.630396
0.631864
0.634152
0.638315
0.646285
0.660979
0.684144
0.707991
0.723375
0.732979
0.74041
0.746525
0.75069
0.75798
0.784848
0.850582
0.944417
1.03672
1.06316
1.08882
1.09977
0.625171
0.625208
0.625292
0.625413
0.625534
0.625626
0.625692
0.625764
0.62577
0.625745
0.6258
0.625866
0.625725
0.625633
0.625637
0.625687
0.625742
0.625746
0.625675
0.625734
0.626053
0.626079
0.62587
0.625834
0.625935
0.626059
0.62598
0.625857
0.625807
0.625925
0.626088
0.626052
0.625904
0.625614
0.625086
0.624663
0.624575
0.624593
0.624798
0.624821
0.624576
0.624128
0.623641
0.623214
0.623059
0.622946
0.62271
0.622589
0.62259
0.622775
0.623042
0.623018
0.622631
0.622146
0.622087
0.622099
0.62217
0.622254
0.622392
0.622619
0.622896
0.623218
0.623518
0.62394
0.624408
0.625007
0.625585
0.625856
0.626163
0.626427
0.626755
0.627173
0.627364
0.627414
0.627404
0.627481
0.6279
0.628592
0.629378
0.63061
0.632441
0.634873
0.638721
0.645062
0.656647
0.677609
0.703486
0.722548
0.733971
0.741932
0.747308
0.750485
0.75283
0.757313
0.773837
0.827705
0.916592
1.01362
1.07617
1.09555
0.63266
0.632458
0.632325
0.632193
0.632045
0.631899
0.631664
0.631291
0.631195
0.631168
0.631009
0.630401
0.629889
0.629691
0.629402
0.628937
0.6288
0.628808
0.628907
0.629116
0.629161
0.629174
0.629353
0.629657
0.629847
0.629879
0.629792
0.629417
0.628599
0.627542
0.626555
0.626021
0.625778
0.625598
0.625402
0.62494
0.624514
0.624493
0.624676
0.624603
0.623983
0.622955
0.622685
0.622719
0.622771
0.622549
0.622102
0.622045
0.622099
0.622266
0.622604
0.62292
0.62282
0.62239
0.62228
0.622315
0.62253