/*--------------------------------*- C++ -*----------------------------------*\
  =========                 |
  \\      /  F ield         | OpenFOAM: The Open Source CFD Toolbox
   \\    /   O peration     | Website:  https://openfoam.org
    \\  /    A nd           | Version:  7
     \\/     M anipulation  |
\*---------------------------------------------------------------------------*/
FoamFile
{
    version     2.0;
    format      ascii;
    class       volScalarField;
    location    "2";
    object      rho;
}
// * * * * * * * * * * * * * * * * * * * * * * * * * * * * * * * * * * * * * //

dimensions      [1 -3 0 0 0 0 0];

internalField   nonuniform List<scalar> 
90000
(
1.00078
1.01431
1.0286
1.04284
1.05613
1.0696
1.08269
1.09641
1.11009
1.12446
1.13877
1.15352
1.16795
1.18256
1.19654
1.21051
1.22363
1.23651
1.24859
1.2598
1.27082
1.27994
1.28892
1.29707
1.30251
1.30874
1.31346
1.31468
1.31707
1.31746
1.31694
1.31508
1.31247
1.30979
1.30427
1.29919
1.29564
1.29578
1.29699
1.29933
1.30227
1.30495
1.307
1.30855
1.30861
1.30822
1.30718
1.30576
1.30391
1.30194
1.30135
1.30177
1.30314
1.30529
1.30786
1.30983
1.31
1.30961
1.30886
1.30751
1.30714
1.30759
1.30885
1.3104
1.3119
1.31175
1.31092
1.31054
1.31079
1.31157
1.31264
1.3138
1.31378
1.31386
1.3145
1.31582
1.3174
1.31926
1.32346
1.3338
1.35224
1.37624
1.39924
1.41418
1.42205
1.42743
1.43238
1.43798
1.44368
1.44936
1.45615
1.46201
1.46412
1.46537
1.4667
1.46739
1.46734
1.46809
1.46995
1.47392
0.990681
0.991759
0.993709
0.996676
1.00056
1.00542
1.01108
1.01774
1.02512
1.03362
1.04278
1.05319
1.06413
1.07636
1.08905
1.1028
1.11695
1.1317
1.14679
1.16201
1.17717
1.19239
1.2069
1.22098
1.235
1.24661
1.25934
1.26882
1.27823
1.28507
1.29137
1.29494
1.29768
1.3009
1.30677
1.31179
1.3141
1.31489
1.31466
1.31348
1.3116
1.30992
1.30831
1.30662
1.30585
1.30592
1.30597
1.30638
1.30696
1.30818
1.30881
1.30924
1.30911
1.30849
1.30849
1.3086
1.309
1.30894
1.30912
1.30995
1.3107
1.31115
1.3116
1.3115
1.31176
1.31174
1.31192
1.31251
1.31311
1.31325
1.31337
1.31381
1.31439
1.31548
1.31629
1.31695
1.31795
1.31987
1.32447
1.33481
1.35303
1.37734
1.40065
1.4156
1.42358
1.42869
1.43307
1.43823
1.44408
1.44986
1.4563
1.46206
1.46442
1.46576
1.4671
1.46774
1.46759
1.46827
1.47016
1.47433
0.991125
0.99114
0.991157
0.991189
0.991258
0.991395
0.991656
0.992069
0.992679
0.993546
0.994698
0.996252
0.998235
1.00086
1.00419
1.00851
1.01376
1.02042
1.02815
1.03786
1.04879
1.06206
1.07654
1.09342
1.11136
1.13134
1.1519
1.17377
1.19575
1.21728
1.23874
1.25778
1.27682
1.29085
1.30078
1.3086
1.31112
1.31379
1.31391
1.31338
1.31275
1.31226
1.31069
1.30836
1.30785
1.30897
1.311
1.31394
1.31648
1.31817
1.31782
1.31633
1.31402
1.31123
1.30933
1.30856
1.30921
1.31127
1.31416
1.31695
1.31666
1.31567
1.31451
1.31354
1.31372
1.31486
1.31656
1.31733
1.31686
1.3159
1.31587
1.3165
1.31785
1.31901
1.31883
1.31892
1.31995
1.32231
1.32705
1.33712
1.35562
1.38065
1.40349
1.4175
1.42517
1.43037
1.43551
1.44129
1.44693
1.45225
1.45803
1.46364
1.46599
1.46717
1.46834
1.46885
1.46865
1.46932
1.47124
1.47544
0.992516
0.992522
0.992523
0.992525
0.992532
0.992566
0.992581
0.992606
0.992646
0.992681
0.992727
0.992764
0.992798
0.992861
0.992982
0.993184
0.993476
0.994016
0.994822
0.995974
0.997553
0.999807
1.00282
1.00712
1.01266
1.02037
1.02985
1.04265
1.05755
1.0766
1.09764
1.12236
1.14837
1.17591
1.20171
1.22731
1.24664
1.26774
1.27881
1.28959
1.29548
1.30112
1.30334
1.30665
1.31344
1.31805
1.32157
1.32359
1.32423
1.32376
1.32266
1.32032
1.31817
1.31585
1.31397
1.31457
1.31631
1.31853
1.32
1.32056
1.32027
1.31966
1.31858
1.31868
1.31927
1.32001
1.32069
1.32063
1.3204
1.32003
1.32025
1.3208
1.32173
1.32239
1.32257
1.32296
1.32401
1.32605
1.33052
1.3406
1.35914
1.38402
1.40667
1.4202
1.42793
1.43348
1.43863
1.44442
1.45013
1.45518
1.4605
1.46575
1.46826
1.46951
1.47063
1.47112
1.47093
1.4715
1.4733
1.47743
0.994152
0.994169
0.994195
0.994218
0.994238
0.994253
0.994269
0.994284
0.994283
0.994267
0.994252
0.994231
0.994218
0.994221
0.994242
0.99429
0.994397
0.994412
0.994441
0.994474
0.994526
0.994603
0.994703
0.994854
0.995094
0.995498
0.996329
0.997758
0.999943
1.00353
1.00864
1.01662
1.02717
1.04257
1.06165
1.08597
1.11486
1.14557
1.17866
1.21108
1.23903
1.26469
1.2863
1.30037
1.31021
1.31444
1.31834
1.32021
1.32145
1.32024
1.3172
1.31618
1.31746
1.32049
1.32307
1.32488
1.32461
1.32345
1.32154
1.32022
1.32021
1.32085
1.32272
1.32485
1.32509
1.32447
1.32346
1.32289
1.32318
1.32404
1.32538
1.32533
1.32519
1.32527
1.3257
1.3266
1.32787
1.32969
1.33395
1.34423
1.36282
1.38773
1.41037
1.42384
1.43162
1.43718
1.44242
1.44817
1.45363
1.45846
1.46374
1.469
1.47163
1.47282
1.4737
1.47404
1.47377
1.47428
1.47596
1.47985
0.995609
0.995606
0.995606
0.995616
0.995644
0.99567
0.995684
0.99569
0.995694
0.995693
0.995685
0.995682
0.995653
0.99561
0.995596
0.995594
0.995597
0.995603
0.995596
0.995583
0.995582
0.99559
0.995607
0.995646
0.995713
0.995874
0.995835
0.995782
0.995784
0.995825
0.995977
0.996345
0.997002
0.998431
1.00105
1.00555
1.01336
1.02456
1.04273
1.06475
1.09522
1.12783
1.16477
1.19917
1.23086
1.25447
1.27537
1.28583
1.29755
1.30218
1.30838
1.31502
1.32354
1.32875
1.33084
1.33034
1.32888
1.32576
1.32251
1.3201
1.3205
1.32274
1.32558
1.32765
1.32727
1.32635
1.32512
1.32476
1.32554
1.32683
1.32783
1.32818
1.32788
1.32761
1.32798
1.329
1.3302
1.33188
1.33615
1.34664
1.36528
1.38994
1.4128
1.42665
1.43426
1.43972
1.44509
1.45097
1.45651
1.46141
1.46668
1.47177
1.47451
1.47573
1.47654
1.47683
1.47662
1.47709
1.47864
1.48219
0.996703
0.99665
0.996639
0.99664
0.99664
0.996643
0.996655
0.996663
0.996668
0.996668
0.996651
0.996646
0.996646
0.99659
0.996539
0.996528
0.996528
0.996536
0.996542
0.996542
0.996528
0.996511
0.99649
0.996462
0.996455
0.996471
0.996428
0.996376
0.996361
0.996361
0.996394
0.996495
0.996723
0.996662
0.996595
0.99663
0.996836
0.997381
0.998921
1.00188
1.00802
1.01798
1.03462
1.05869
1.08895
1.12756
1.16709
1.20544
1.2417
1.26922
1.29617
1.30883
1.31803
1.32287
1.32627
1.32494
1.32086
1.31839
1.31984
1.32279
1.32533
1.3277
1.32716
1.32657
1.32525
1.32483
1.32515
1.32658
1.32812
1.32862
1.32822
1.32811
1.32839
1.32908
1.32992
1.33046
1.33116
1.33276
1.33721
1.34815
1.36695
1.39149
1.41425
1.42829
1.43583
1.44132
1.44683
1.45266
1.45815
1.46315
1.46863
1.47372
1.47668
1.47795
1.47871
1.47902
1.47883
1.47924
1.4807
1.48398
0.997455
0.997341
0.997265
0.997251
0.99725
0.997254
0.997253
0.997247
0.997243
0.997249
0.997245
0.997223
0.997223
0.9972
0.997106
0.997047
0.997034
0.99703
0.997028
0.99703
0.997025
0.997014
0.997003
0.99698
0.996957
0.99697
0.996983
0.996926
0.996866
0.996833
0.996828
0.996845
0.996834
0.996823
0.996818
0.996824
0.99686
0.996991
0.996939
0.996948
0.997057
0.997488
0.99869
1.00146
1.0074
1.01872
1.0365
1.06519
1.09892
1.14127
1.18432
1.22116
1.25604
1.27327
1.29226
1.2992
1.30744
1.31569
1.32545
1.33187
1.33164
1.33062
1.32727
1.32246
1.32265
1.32351
1.32615
1.32916
1.32966
1.32904
1.32808
1.32803
1.3286
1.33001
1.33103
1.33073
1.331
1.33266
1.33741
1.34809
1.36705
1.39216
1.4155
1.42963
1.43691
1.44224
1.44765
1.45337
1.45887
1.46415
1.46987
1.47491
1.47797
1.47927
1.47998
1.48032
1.48018
1.4806
1.48205
1.4852
0.997915
0.99781
0.997677
0.997646
0.997642
0.997643
0.997646
0.997641
0.997634
0.997648
0.997654
0.997618
0.997593
0.997594
0.997555
0.997438
0.997374
0.997356
0.99735
0.997345
0.997339
0.997336
0.997328
0.997296
0.997272
0.997284
0.997286
0.99722
0.997158
0.997129
0.997141
0.997121
0.997041
0.996996
0.997001
0.996992
0.996923
0.996858
0.996863
0.996881
0.99692
0.996858
0.996762
0.996762
0.996862
0.99739
0.998923
1.00281
1.01042
1.02619
1.04889
1.08585
1.12763
1.175
1.22103
1.25707
1.29285
1.30868
1.31972
1.32573
1.32709
1.32307
1.31811
1.31929
1.32303
1.32676
1.32872
1.32935
1.3286
1.32661
1.32681
1.32791
1.32967
1.33071
1.33052
1.33032
1.33079
1.3328
1.33764
1.34766
1.36603
1.39201
1.41703
1.43116
1.43783
1.44288
1.4481
1.45365
1.45915
1.46479
1.47069
1.47565
1.47877
1.48006
1.48071
1.48106
1.48095
1.48122
1.48285
1.48594
0.998313
0.998221
0.998088
0.998046
0.99804
0.998038
0.998037
0.99803
0.998028
0.99804
0.998025
0.998001
0.997996
0.997982
0.997938
0.997862
0.997744
0.997674
0.997648
0.997634
0.997622
0.997612
0.997597
0.997563
0.997537
0.997546
0.997526
0.997442
0.997377
0.997359
0.997362
0.99729
0.997192
0.997149
0.997152
0.997137
0.997032
0.996933
0.996886
0.996866
0.996831
0.996788
0.996766
0.996756
0.996769
0.996724
0.996719
0.996785
0.997139
0.998253
1.00093
1.00787
1.02027
1.04567
1.07867
1.12554
1.17519
1.21875
1.25887
1.27855
1.29741
1.30377
1.3163
1.32414
1.33127
1.33119
1.3303
1.32732
1.32444
1.32474
1.32689
1.33002
1.33094
1.33045
1.32918
1.32941
1.33079
1.33365
1.33782
1.34644
1.36509
1.39261
1.41805
1.43205
1.43869
1.44383
1.44875
1.45396
1.45944
1.46541
1.47142
1.47613
1.47919
1.48042
1.48103
1.48136
1.48126
1.48147
1.48336
1.48635
0.99858
0.998453
0.998383
0.998369
0.998365
0.998364
0.998358
0.998349
0.998343
0.998352
0.998347
0.998325
0.998298
0.998266
0.998246
0.998223
0.998165
0.998046
0.997957
0.997921
0.997902
0.997893
0.997888
0.997873
0.997855
0.997865
0.997842
0.997737
0.997672
0.997663
0.997642
0.997539
0.997433
0.997391
0.997388
0.997389
0.997301
0.997185
0.99713
0.997082
0.997003
0.996921
0.996865
0.996819
0.996775
0.996764
0.996758
0.996759
0.99674
0.996751
0.996839
0.997143
0.998005
1.0007
1.00669
1.02139
1.04459
1.08563
1.13393
1.18761
1.23909
1.27744
1.30867
1.31833
1.32688
1.3264
1.3225
1.32043
1.32267
1.32707
1.33031
1.33116
1.33036
1.32798
1.32804
1.32915
1.33185
1.33415
1.33701
1.34518
1.36495
1.3932
1.41813
1.43099
1.43831
1.44388
1.44893
1.45414
1.45974
1.46601
1.47184
1.47649
1.47941
1.48056
1.4812
1.48153
1.48146
1.48164
1.48371
1.48656
0.998706
0.998635
0.998626
0.998626
0.998627
0.998626
0.998625
0.998623
0.998621
0.998615
0.998607
0.998603
0.998604
0.998577
0.998544
0.998524
0.998495
0.998438
0.998355
0.998241
0.998159
0.99813
0.99812
0.99811
0.998103
0.998116
0.99809
0.997965
0.997885
0.997866
0.997832
0.997716
0.997593
0.997549
0.99754
0.99755
0.99749
0.997361
0.997284
0.997224
0.997147
0.99706
0.996992
0.996939
0.996883
0.996834
0.996803
0.996768
0.996728
0.996702
0.996688
0.996685
0.996711
0.996832
0.99718
0.998239
1.00097
1.00877
1.02393
1.05556
1.09787
1.15349
1.20924
1.24772
1.28455
1.295
1.30698
1.3175
1.32949
1.33272
1.33206
1.32903
1.32582
1.32621
1.32862
1.33195
1.33336
1.33365
1.33562
1.34458
1.36611
1.39377
1.416
1.43017
1.43845
1.44426
1.44953
1.45489
1.4604
1.46662
1.47212
1.47686
1.47985
1.48094
1.48163
1.48202
1.48177
1.48178
1.48405
1.48676
0.998996
0.998908
0.998892
0.998892
0.998895
0.998896
0.998896
0.998898
0.998902
0.998901
0.998892
0.998891
0.9989
0.99887
0.998827
0.998806
0.998785
0.99874
0.998661
0.998564
0.998454
0.998334
0.99828
0.998259
0.998252
0.998259
0.998241
0.998138
0.998019
0.997985
0.997945
0.997836
0.997708
0.997662
0.997652
0.997653
0.997588
0.997453
0.997365
0.997297
0.997214
0.997118
0.99705
0.996997
0.996944
0.99689
0.996853
0.996832
0.996778
0.996714
0.996671
0.996646
0.996634
0.996647
0.996717
0.996853
0.997086
0.997629
0.998984
1.00312
1.01241
1.03508
1.07034
1.12604
1.18569
1.23916
1.29027
1.31129
1.32434
1.32752
1.32447
1.31988
1.32261
1.3283
1.33249
1.33379
1.33224
1.3315
1.33413
1.34526
1.36604
1.3911
1.41455
1.43055
1.43933
1.44415
1.44892
1.45465
1.46091
1.46703
1.4724
1.47701
1.47973
1.48082
1.48151
1.4819
1.48177
1.48201
1.48444
1.48696
0.999297
0.9992
0.99914
0.99913
0.999129
0.99913
0.99913
0.999132
0.999142
0.99913
0.999108
0.999097
0.9991
0.999097
0.999065
0.99902
0.998978
0.998928
0.998855
0.998762
0.998666
0.998563
0.998427
0.998349
0.998317
0.99831
0.998301
0.99823
0.998116
0.998069
0.998031
0.997941
0.997805
0.997761
0.997754
0.997724
0.997639
0.9975
0.997403
0.997335
0.997256
0.997156
0.997052
0.996979
0.996925
0.996882
0.996848
0.996854
0.996847
0.996785
0.996731
0.996697
0.996679
0.996667
0.996664
0.99672
0.996879
0.997106
0.997345
0.997648
0.998284
1.00028
1.00594
1.02216
1.05124
1.10404
1.16588
1.22078
1.27073
1.28722
1.30302
1.31396
1.32945
1.33478
1.33441
1.33186
1.3289
1.32988
1.33503
1.34543
1.36282
1.38824
1.41487
1.43292
1.44062
1.44403
1.44875
1.45489
1.46125
1.46684
1.47228
1.47714
1.4798
1.4809
1.48162
1.48201
1.48179
1.48223
1.48478
1.48721
0.999443
0.999349
0.999287
0.999274
0.999272
0.999273
0.999269
0.999265
0.999271
0.999265
0.999235
0.999209
0.999191
0.999181
0.999168
0.999137
0.999089
0.999025
0.998942
0.99885
0.998762
0.998683
0.998603
0.998509
0.998434
0.998401
0.998368
0.9983
0.998173
0.998103
0.998066
0.998002
0.997875
0.997808
0.997785
0.997736
0.997647
0.997528
0.997416
0.997341
0.99726
0.997159
0.997075
0.997014
0.996977
0.996964
0.996906
0.996825
0.996775
0.996708
0.996629
0.996572
0.996536
0.996519
0.996529
0.996635
0.996775
0.996962
0.997238
0.9976
0.997916
0.998088
0.998292
0.999265
1.0028
1.01506
1.04001
1.09055
1.15252
1.21421
1.27696
1.30555
1.32386
1.32977
1.32582
1.32438
1.32713
1.33209
1.33795
1.34446
1.35816
1.38619
1.41819
1.43609
1.43948
1.44363
1.44909
1.45533
1.46113
1.46693
1.47252
1.47749
1.47993
1.48104
1.48191
1.48235
1.48186
1.48243
1.48511
1.48746
0.999482
0.999373
0.999326
0.999319
0.999319
0.999318
0.99931
0.999306
0.999312
0.9993
0.99927
0.999252
0.999236
0.999215
0.999193
0.999164
0.999122
0.999061
0.998981
0.998898
0.99882
0.998751
0.998678
0.99858
0.998523
0.998498
0.998465
0.998406
0.998321
0.998241
0.998182
0.998112
0.998013
0.997889
0.997764
0.997665
0.997566
0.997431
0.997285
0.997215
0.997155
0.997078
0.997006
0.996958
0.996937
0.996923
0.996906
0.996905
0.996968
0.996978
0.996877
0.996785
0.996721
0.996679
0.996633
0.996578
0.996594
0.996762
0.997113
0.997522
0.997864
0.998106
0.998357
0.998314
0.99833
0.998872
1.00146
1.01184
1.03361
1.08187
1.1424
1.20526
1.26281
1.28696
1.30302
1.31987
1.33276
1.33738
1.33791
1.33948
1.35459
1.38948
1.42217
1.43384
1.43904
1.44411
1.45003
1.45583
1.46092
1.46669
1.47271
1.4779
1.48017
1.48125
1.48193
1.48214
1.48181
1.48264
1.4855
1.48776
0.999313
0.999201
0.999171
0.999167
0.999167
0.999167
0.999158
0.99915
0.999154
0.999144
0.999118
0.999106
0.999097
0.999059
0.999027
0.999016
0.998993
0.99893
0.998832
0.998777
0.998737
0.998696
0.998662
0.998622
0.99857
0.998532
0.998519
0.998484
0.998409
0.998317
0.998248
0.998178
0.998096
0.997998
0.997894
0.997802
0.997718
0.997604
0.997484
0.997427
0.997384
0.997325
0.997262
0.99721
0.997171
0.997134
0.997099
0.997074
0.997075
0.997114
0.997063
0.996956
0.996868
0.996819
0.996801
0.996793
0.996795
0.996871
0.997073
0.997381
0.997738
0.998041
0.998308
0.998419
0.998434
0.99841
0.998511
0.999135
1.00145
1.01058
1.03003
1.07737
1.13918
1.20828
1.27408
1.31074
1.32484
1.33258
1.32621
1.33099
1.35708
1.39258
1.41822
1.43167
1.43975
1.44662
1.45138
1.45503
1.4607
1.46692
1.47303
1.47825
1.48048
1.48146
1.48199
1.48215
1.48178
1.48285
1.48592
1.48811
0.99963
0.999543
0.999489
0.999477
0.999475
0.999476
0.999467
0.999453
0.999439
0.999421
0.999403
0.999383
0.999335
0.999238
0.999197
0.999193
0.999194
0.999163
0.999074
0.999003
0.998978
0.998967
0.998943
0.998879
0.998756
0.998622
0.998562
0.998519
0.998428
0.998273
0.998207
0.998202
0.998181
0.998109
0.997996
0.997894
0.997816
0.997736
0.997627
0.997539
0.997489
0.997446
0.9974
0.997355
0.997311
0.997272
0.997245
0.997228
0.997212
0.997223
0.997274
0.997225
0.997138
0.997073
0.997035
0.997007
0.996986
0.99698
0.997036
0.997227
0.997578
0.997961
0.998257
0.998415
0.998437
0.998435
0.998483
0.99861
0.998886
0.999586
1.00158
1.00947
1.02866
1.07651
1.1408
1.21085
1.25873
1.29824
1.3088
1.3297
1.36421
1.38923
1.41202
1.43159
1.4437
1.44883
1.45047
1.45464
1.46115
1.46773
1.47342
1.47844
1.48058
1.48148
1.48205
1.48211
1.48176
1.48308
1.48629
1.48839
0.999674
0.999604
0.999553
0.999541
0.999541
0.999546
0.999531
0.999507
0.999482
0.999458
0.999443
0.999421
0.999364
0.999258
0.999212
0.999204
0.999209
0.999193
0.99913
0.999071
0.999041
0.999019
0.999013
0.998994
0.998914
0.998784
0.99874
0.998736
0.99873
0.998668
0.998561
0.998505
0.998454
0.998374
0.998268
0.998165
0.998072
0.997978
0.997878
0.997778
0.997683
0.997611
0.997558
0.997506
0.997454
0.997405
0.997362
0.997333
0.997324
0.997347
0.997378
0.997378
0.997398
0.997391
0.997305
0.997219
0.997158
0.997116
0.997082
0.997106
0.997342
0.997789
0.998162
0.998308
0.998307
0.998323
0.998388
0.998507
0.998668
0.999045
0.99961
1.00018
1.00189
1.00967
1.03113
1.07853
1.14891
1.22257
1.28257
1.32388
1.35458
1.37446
1.40745
1.43757
1.44813
1.44753
1.44926
1.45489
1.46261
1.46833
1.47364
1.47852
1.48045
1.48128
1.4819
1.48191
1.48182
1.48345
1.4867
1.48866
0.999545
0.999536
0.999527
0.999525
0.999527
0.999504
0.999445
0.999414
0.999393
0.999377
0.999364
0.999333
0.999244
0.999165
0.999144
0.999138
0.999145
0.999143
0.999108
0.999081
0.999061
0.999024
0.998992
0.998984
0.998953
0.998849
0.998782
0.998765
0.998772
0.998747
0.998664
0.998598
0.998542
0.998464
0.998375
0.998297
0.99821
0.998111
0.998021
0.99794
0.997845
0.997723
0.997641
0.997581
0.997514
0.997448
0.997392
0.997354
0.997346
0.997371
0.997392
0.997402
0.997455
0.997559
0.997552
0.997444
0.997337
0.997259
0.997197
0.997159
0.997189
0.99742
0.997847
0.998235
0.998378
0.998308
0.998228
0.998224
0.998391
0.998845
0.999473
1.00012
1.0004
1.00085
1.00301
1.01123
1.03689
1.08465
1.16204
1.23638
1.28955
1.34482
1.4107
1.44578
1.44656
1.44645
1.44952
1.45774
1.46394
1.46837
1.47364
1.47849
1.48033
1.48117
1.48191
1.48184
1.48201
1.48387
1.48705
1.48891
0.99968
0.999603
0.999554
0.999546
0.999546
0.999553
0.999546
0.999518
0.999474
0.999415
0.999356
0.999311
0.999262
0.999205
0.999179
0.999158
0.999118
0.999049
0.999012
0.998997
0.998986
0.998961
0.998942
0.998943
0.998914
0.99881
0.998731
0.998704
0.998697
0.998697
0.998653
0.998581
0.998512
0.998438
0.998381
0.998327
0.998246
0.99813
0.998044
0.997975
0.99788
0.997748
0.997658
0.997592
0.997511
0.997403
0.997321
0.997266
0.997231
0.997231
0.997282
0.997357
0.997455
0.997546
0.997592
0.997616
0.997554
0.997421
0.997282
0.997181
0.997118
0.997193
0.997523
0.998016
0.998262
0.998261
0.998245
0.998256
0.998407
0.998832
0.999445
1.00012
1.00055
1.00094
1.00135
1.00213
1.00491
1.01428
1.04587
1.1006
1.18644
1.29884
1.39449
1.43356
1.43747
1.44561
1.45439
1.45995
1.4623
1.46669
1.47343
1.47854
1.48028
1.48125
1.48219
1.48201
1.4824
1.48438
1.48743
1.48917
0.999674
0.999617
0.999532
0.999492
0.999484
0.999487
0.999495
0.999484
0.999443
0.999387
0.999329
0.999254
0.999205
0.999188
0.99917
0.999136
0.999062
0.998958
0.998921
0.998908
0.998894
0.998877
0.998874
0.998875
0.998837
0.998727
0.998639
0.998607
0.998587
0.998585
0.998569
0.998504
0.998407
0.998352
0.998321
0.998271
0.998169
0.998005
0.997895
0.997811
0.997684
0.997528
0.997464
0.997423
0.997343
0.99722
0.997113
0.997052
0.997006
0.996975
0.996978
0.997056
0.997202
0.997354
0.997497
0.997663
0.997813
0.997782
0.997647
0.997523
0.997417
0.997336
0.997355
0.997662
0.998035
0.998192
0.998233
0.998237
0.998334
0.998729
0.999424
1.00014
1.00061
1.00101
1.00143
1.00187
1.0022
1.00293
1.00632
1.01966
1.06058
1.15252
1.27059
1.37696
1.42384
1.45388
1.46078
1.45789
1.45932
1.46585
1.47378
1.47891
1.48038
1.48181
1.48283
1.48236
1.48275
1.48476
1.4879
1.48953
0.99957
0.999499
0.999381
0.999257
0.999228
0.99923
0.999241
0.999225
0.999196
0.999189
0.99917
0.999106
0.999043
0.999032
0.999016
0.998967
0.998866
0.998807
0.998785
0.998768
0.998758
0.998753
0.998766
0.998777
0.99874
0.998636
0.998522
0.998484
0.998455
0.998408
0.998335
0.998207
0.998087
0.998037
0.998023
0.998025
0.997941
0.997827
0.997776
0.997754
0.997672
0.997569
0.99753
0.997495
0.997404
0.997274
0.997152
0.997046
0.996942
0.996864
0.996812
0.996795
0.996868
0.997095
0.99738
0.99763
0.997806
0.997885
0.997836
0.997746
0.997633
0.997518
0.997465
0.997557
0.997868
0.998145
0.998301
0.998385
0.998514
0.998858
0.999461
1.00012
1.0006
1.00099
1.0014
1.00173
1.00208
1.00233
1.0028
1.00444
1.01229
1.04286
1.12728
1.27598
1.39416
1.44681
1.45103
1.44895
1.45687
1.46822
1.47433
1.47851
1.48109
1.48304
1.48377
1.48323
1.48317
1.48537
1.48875
1.49008
0.99966
0.999545
0.999455
0.999444
0.999443
0.999446
0.999464
0.999459
0.999447
0.999443
0.999425
0.999372
0.999288
0.999232
0.999185
0.999109
0.999043
0.999017
0.998973
0.998934
0.998916
0.998886
0.998799
0.998712
0.998659
0.998594
0.998501
0.998379
0.998243
0.998107
0.997965
0.99779
0.997669
0.997617
0.99757
0.997527
0.997494
0.997468
0.997463
0.997501
0.99748
0.997424
0.997431
0.997416
0.997307
0.9971
0.996964
0.996906
0.996833
0.996761
0.996711
0.996689
0.996744
0.996922
0.997136
0.997367
0.997618
0.997808
0.997869
0.997848
0.997803
0.997695
0.997607
0.997591
0.997769
0.998122
0.998385
0.998564
0.998737
0.999017
0.999443
0.999991
1.00044
1.00078
1.00111
1.00152
1.00191
1.00222
1.00261
1.00344
1.00652
1.01343
1.04239
1.12079
1.25246
1.37296
1.41365
1.4374
1.46361
1.47278
1.47477
1.47837
1.48254
1.48455
1.48302
1.48248
1.48361
1.48694
1.48982
1.49064
0.999527
0.999419
0.999404
0.999404
0.999414
0.999425
0.999426
0.999428
0.999436
0.999418
0.999377
0.999322
0.999261
0.999173
0.999025
0.998955
0.99895
0.998941
0.998859
0.998797
0.998789
0.998747
0.998599
0.998473
0.998396
0.998291
0.998147
0.997981
0.997834
0.997718
0.997598
0.997481
0.997392
0.997314
0.9972
0.997031
0.996935
0.996884
0.996845
0.996834
0.99689
0.997013
0.997129
0.997161
0.997153
0.997163
0.9972
0.997271
0.997274
0.997181
0.997039
0.996904
0.996813
0.996781
0.996829
0.997042
0.997401
0.997684
0.997772
0.997786
0.997827
0.997828
0.997764
0.997733
0.997828
0.998144
0.998442
0.998676
0.998889
0.999198
0.999631
0.999995
1.00027
1.00047
1.00067
1.0011
1.00156
1.00202
1.00255
1.00356
1.00567
1.01146
1.02267
1.04988
1.12345
1.23457
1.35335
1.42146
1.45862
1.46197
1.46893
1.4786
1.48438
1.48325
1.48183
1.48252
1.485
1.48837
1.49001
1.49079
0.998815
0.99878
0.998778
0.998776
0.998777
0.998781
0.998782
0.99878
0.998775
0.998764
0.998755
0.998766
0.998779
0.998695
0.998547
0.998512
0.998518
0.998502
0.998434
0.998408
0.998363
0.998236
0.998206
0.998194
0.998076
0.997999
0.998005
0.997979
0.997897
0.997795
0.997692
0.997572
0.997428
0.997272
0.997108
0.996902
0.996673
0.99653
0.996461
0.996431
0.996421
0.996456
0.996617
0.996852
0.997036
0.997133
0.997166
0.997203
0.997239
0.99717
0.997027
0.996922
0.996862
0.99683
0.996799
0.996809
0.997022
0.99724
0.997406
0.997599
0.997796
0.997957
0.99798
0.997961
0.99799
0.998213
0.998483
0.998732
0.998969
0.999258
0.9996
0.99986
1.00001
1.0001
1.00024
1.00064
1.00126
1.0018
1.00259
1.00385
1.00594
1.01075
1.02128
1.0395
1.06768
1.12132
1.21368
1.31561
1.39911
1.43465
1.46617
1.48229
1.48268
1.48064
1.48173
1.48426
1.48735
1.4893
1.48998
1.4908
0.997955
0.997884
0.997867
0.997867
0.99785
0.997821
0.997809
0.997806
0.997803
0.997805
0.997828
0.99786
0.997877
0.997887
0.997906
0.997935
0.997956
0.997958
0.997958
0.997984
0.997944
0.997912
0.997939
0.997899
0.997795
0.99777
0.997815
0.997912
0.997914
0.997851
0.997804
0.997799
0.997803
0.997759
0.997652
0.9975
0.997307
0.997063
0.996774
0.996486
0.996347
0.996301
0.996296
0.996395
0.996635
0.996839
0.996908
0.99693
0.997014
0.997003
0.996875
0.996784
0.996787
0.996799
0.996774
0.996736
0.996761
0.996821
0.996928
0.99726
0.99769
0.998001
0.99812
0.998171
0.998227
0.998396
0.998582
0.998758
0.998976
0.999243
0.999518
0.999683
0.999771
0.999824
0.99997
1.00034
1.00101
1.00191
1.00293
1.00415
1.00604
1.01019
1.01982
1.03649
1.06144
1.08487
1.12065
1.18904
1.28371
1.38929
1.45375
1.47885
1.47308
1.47715
1.48351
1.4859
1.4871
1.48823
1.49029
1.49135
0.997503
0.997451
0.997359
0.997313
0.997301
0.997305
0.997292
0.997247
0.997222
0.997208
0.997206
0.997226
0.997265
0.997309
0.997354
0.997407
0.997483
0.997567
0.997633
0.997675
0.997689
0.997694
0.997689
0.997716
0.997843
0.997861
0.99776
0.997703
0.997694
0.997687
0.997699
0.99777
0.99786
0.997836
0.997703
0.997474
0.997223
0.996966
0.996697
0.996378
0.996133
0.996081
0.996072
0.996084
0.996123
0.996159
0.996185
0.996183
0.996223
0.996398
0.996541
0.996606
0.99672
0.996811
0.996776
0.996764
0.996902
0.996889
0.996847
0.99711
0.99759
0.997956
0.998107
0.998191
0.998328
0.998524
0.998625
0.998699
0.998868
0.999103
0.999295
0.999469
0.999611
0.999756
0.999911
1.0004
1.00115
1.00196
1.00298
1.00418
1.00593
1.00959
1.01743
1.03278
1.05741
1.08326
1.09952
1.11958
1.16709
1.25886
1.35401
1.43175
1.45575
1.48049
1.4869
1.48604
1.48495
1.48801
1.49136
1.49244
0.998498
0.998429
0.998358
0.998287
0.998218
0.998139
0.998039
0.99794
0.997871
0.997826
0.997785
0.997741
0.997682
0.997586
0.997526
0.997516
0.997525
0.997568
0.997597
0.997608
0.997623
0.9976
0.997548
0.997533
0.997577
0.997548
0.997412
0.997344
0.997308
0.99729
0.997297
0.997366
0.9975
0.997502
0.997336
0.997044
0.996742
0.996454
0.996164
0.995886
0.995704
0.995641
0.995631
0.995627
0.99562
0.995507
0.995377
0.995322
0.995324
0.995493
0.995898
0.996273
0.996592
0.996788
0.996781
0.996814
0.997013
0.997007
0.996932
0.997114
0.997413
0.997714
0.997935
0.998054
0.998224
0.998405
0.998455
0.998456
0.998508
0.998649
0.998904
0.999228
0.99972
1.00015
1.00047
1.00082
1.00127
1.00191
1.00287
1.00402
1.00562
1.00866
1.01526
1.02876
1.05245
1.08093
1.09891
1.10838
1.12095
1.15394
1.22754
1.33236
1.4258
1.47134
1.48055
1.47734
1.48277
1.4915
1.49282
1.49243
0.998382
0.99834
0.998294
0.998226
0.998133
0.997968
0.997744
0.997675
0.997683
0.997664
0.997591
0.997495
0.997409
0.997316
0.9972
0.997034
0.996908
0.996856
0.996827
0.996792
0.99669
0.996511
0.996465
0.996453
0.996343
0.996152
0.996077
0.99595
0.995752
0.995666
0.995726
0.995785
0.995744
0.995748
0.995686
0.995484
0.995369
0.99534
0.995288
0.995313
0.995344
0.995387
0.99549
0.995542
0.995506
0.995451
0.995456
0.99547
0.995425
0.995465
0.995702
0.995981
0.996279
0.996561
0.996605
0.99671
0.99702
0.997041
0.997007
0.99715
0.997193
0.99718
0.997247
0.997375
0.997567
0.997794
0.99797
0.998099
0.998192
0.998324
0.998644
0.999295
1.00004
1.00049
1.00075
1.00098
1.00126
1.00179
1.00265
1.00368
1.00507
1.00774
1.01345
1.02523
1.04733
1.07618
1.09699
1.10758
1.11562
1.12454
1.14783
1.20349
1.30197
1.39084
1.44173
1.46611
1.49024
1.4956
1.49435
1.49255
0.997962
0.997939
0.997883
0.997787
0.99764
0.997458
0.997296
0.99706
0.996825
0.996809
0.996774
0.996576
0.996305
0.996114
0.995937
0.995698
0.995473
0.995319
0.99527
0.995281
0.995307
0.995287
0.995235
0.995123
0.994905
0.9948
0.994724
0.994598
0.99442
0.9943
0.994406
0.994535
0.994496
0.994396
0.99436
0.99439
0.994485
0.994509
0.994547
0.994786
0.995104
0.995412
0.995718
0.995804
0.99574
0.995539
0.995485
0.995521
0.995597
0.995676
0.99574
0.995734
0.995806
0.995995
0.996104
0.996271
0.99662
0.996641
0.996614
0.996656
0.9965
0.996356
0.99632
0.996332
0.996526
0.996967
0.997471
0.997971
0.998258
0.998621
0.999145
0.999703
1.00028
1.00059
1.00075
1.00091
1.00114
1.00154
1.00219
1.00311
1.00458
1.00715
1.01229
1.02266
1.04208
1.06982
1.09324
1.10657
1.11548
1.12372
1.13084
1.14442
1.18698
1.26647
1.3757
1.44692
1.4868
1.48933
1.48819
1.49226
0.996458
0.996524
0.99657
0.996629
0.996656
0.996632
0.996561
0.996423
0.996178
0.996082
0.996121
0.996049
0.995739
0.995458
0.995296
0.99514
0.994976
0.994835
0.994698
0.994671
0.994767
0.994889
0.994872
0.994653
0.994414
0.99437
0.994363
0.994355
0.994322
0.994433
0.994842
0.995206
0.995242
0.995123
0.994782
0.994623
0.994596
0.994702
0.995122
0.995707
0.995948
0.995891
0.99583
0.995773
0.995527
0.995287
0.995191
0.995193
0.995256
0.995146
0.995074
0.995146
0.994993
0.994666
0.994556
0.994565
0.994748
0.994865
0.994947
0.995136
0.995374
0.995627
0.995757
0.995828
0.996182
0.996838
0.997548
0.998088
0.998453
0.998838
0.999303
0.999761
1.00019
1.00048
1.00055
1.00059
1.0007
1.00106
1.0017
1.00274
1.00436
1.0069
1.01156
1.02051
1.03698
1.06275
1.08899
1.10581
1.11629
1.12439
1.13098
1.13536
1.14312
1.17177
1.24073
1.33675
1.42962
1.45705
1.48311
1.49476
0.997993
0.998033
0.998125
0.998258
0.998388
0.998483
0.998547
0.998618
0.998623
0.998594
0.998657
0.998736
0.998578
0.998467
0.998471
0.99852
0.998553
0.998537
0.99843
0.998483
0.99882
0.998843
0.998601
0.998552
0.998635
0.998725
0.998619
0.998451
0.998381
0.998508
0.99868
0.998628
0.998438
0.99808
0.997454
0.996928
0.996797
0.99681
0.997013
0.997023
0.996724
0.99618
0.995581
0.995025
0.994794
0.994635
0.994346
0.994176
0.994169
0.994367
0.994656
0.994622
0.994167
0.993585
0.993497
0.993509
0.993592
0.993698
0.993875
0.99415
0.99447
0.994832
0.995173
0.99566
0.996207
0.996903
0.997561
0.99785
0.998181
0.998467
0.998827
0.999291
0.99947
0.999493
0.999457
0.999512
0.999943
1.00069
1.00154
1.0029
1.00494
1.00765
1.01196
1.01909
1.0321
1.0555
1.08407
1.10495
1.1174
1.12604
1.1318
1.13507
1.13756
1.14255
1.16064
1.21803
1.31046
1.40859
1.47083
1.49076
1.00655
1.00632
1.00616
1.00601
1.00583
1.00566
1.00539
1.00496
1.00485
1.00482
1.00464
1.00395
1.00337
1.00314
1.00284
1.00232
1.00211
1.00211
1.00218
1.00236
1.00238
1.00239
1.00259
1.00293
1.00309
1.0031
1.00299
1.00255
1.0016
1.00039
0.999272
0.998652
0.998341
0.998094
0.997831
0.997272
0.996776
0.996749
0.996942
0.996844
0.996111
0.994871
0.994459
0.994464
0.994491
0.994231
0.993686
0.99359
0.993636
0.993809
0.994176
0.994517
0.994396
0.993884
0.993726
0.993762
0.994007
0.994669
0.995388
0.995807
0.99604
0.996256
0.996528
0.99688
0.997373
0.997617
0.99741
0.99693
0.996773
0.996719
0.9969
0.997535
0.99802
0.998196
0.998307
0.998567
0.999329
1.00049
1.00195
1.00382
1.00594
1.00831
1.01185
1.0176
1.02782
1.04804
1.07766
1.10279
1.11807
1.12737
1.13216
1.13475
1.13682
1.1396
1.14331
1.15623
1.19678
1.28408
1.37603
1.45418
1.01878
1.01827
1.01779
1.01733
1.01686
1.01642
1.01602
1.01538
1.01485
1.01441
1.0133
1.01229
1.01211
1.0118
1.01088
1.00973
1.0095
1.00951
1.00972
1.01016
1.01044
1.01039
1.00987
1.00951
1.00941
1.009
1.00835
1.00731
1.00538
1.003
1.00191
1.00176
1.00185
1.00223
1.00242
1.00238
1.00188
1.00146
1.00144
1.00121
1.00036
0.99955
0.999481
0.999883
1.0001
0.999721
0.998261
0.99697
0.996856
0.996895
0.997307
0.998379
0.999293
0.998894
0.99797
0.997802
0.998002
0.99871
0.998886
0.998672
0.997967
0.997493
0.997311
0.997327
0.997721
0.99772
0.997009
0.996128