/*--------------------------------*- C++ -*----------------------------------*\
  =========                 |
  \\      /  F ield         | OpenFOAM: The Open Source CFD Toolbox
   \\    /   O peration     | Website:  https://openfoam.org
    \\  /    A nd           | Version:  7
     \\/     M anipulation  |
\*---------------------------------------------------------------------------*/
FoamFile
{
    version     2.0;
    format      ascii;
    class       volVectorField;
    location    "6.3";
    object      U;
}
// * * * * * * * * * * * * * * * * * * * * * * * * * * * * * * * * * * * * * //

dimensions      [0 1 -1 0 0 0 0];

internalField   nonuniform List<vector> 
8400
(
(2.40829 -0.564338 0)
(2.4503 -0.260204 0)
(2.44318 0.0415872 0)
(2.45573 0.187937 0)
(2.48528 0.227352 0)
(2.48194 0.37857 0)
(2.49626 0.36 0)
(2.51691 0.370397 0)
(2.53797 0.412387 0)
(2.56433 0.403769 0)
(2.5853 0.370293 0)
(2.61846 0.345398 0)
(2.65246 0.326973 0)
(2.66392 0.270024 0)
(2.69034 0.23035 0)
(2.70834 0.160946 0)
(2.73109 0.145354 0)
(2.73951 0.118284 0)
(2.74789 0.134689 0)
(2.75256 0.156322 0)
(2.75951 0.187092 0)
(2.76885 0.20935 0)
(2.7745 0.2091 0)
(2.77146 0.185424 0)
(2.77709 0.157923 0)
(2.78474 0.122709 0)
(2.794 0.101941 0)
(2.80081 0.076005 0)
(2.79859 0.0915629 0)
(2.8063 0.0948135 0)
(2.54809 -1.37665 0)
(2.57582 -1.38608 0)
(2.58434 -1.34566 0)
(2.58632 -1.16247 0)
(2.56878 -1.03771 0)
(2.51888 -0.719026 0)
(2.50708 -0.600093 0)
(2.46077 -0.374396 0)
(2.46392 -0.246746 0)
(2.44419 -0.0690195 0)
(2.46378 -0.0401168 0)
(2.45577 0.061782 0)
(2.47692 0.115018 0)
(2.49353 0.113205 0)
(2.51834 0.0851103 0)
(2.55078 0.108447 0)
(2.56039 0.112289 0)
(2.57292 0.11402 0)
(2.57155 0.129197 0)
(2.58984 0.122513 0)
(2.59596 0.121154 0)
(2.60132 0.123654 0)
(2.60522 0.124044 0)
(2.60979 0.116925 0)
(2.62256 0.113997 0)
(2.6381 0.105424 0)
(2.65075 0.0872394 0)
(2.66558 0.0735562 0)
(2.6736 0.0786452 0)
(2.68717 0.0701559 0)
(2.81733 -1.46608 0)
(2.85876 -1.49935 0)
(2.90714 -1.52826 0)
(2.93538 -1.57667 0)
(2.955 -1.62074 0)
(2.99175 -1.63454 0)
(3.01247 -1.65958 0)
(3.01271 -1.64887 0)
(2.96628 -1.55948 0)
(2.86658 -1.31095 0)
(2.75968 -1.03811 0)
(2.62908 -0.701798 0)
(2.57907 -0.445298 0)
(2.49757 -0.151152 0)
(2.47962 -0.0119335 0)
(2.42535 0.151702 0)
(2.40359 0.226626 0)
(2.42969 0.290125 0)
(2.4403 0.268837 0)
(2.45204 0.213444 0)
(2.48623 0.1545 0)
(2.50353 0.102232 0)
(2.52372 0.072656 0)
(2.5372 0.0788941 0)
(2.54335 0.101906 0)
(2.54947 0.106985 0)
(2.55416 0.119211 0)
(2.58376 0.112194 0)
(2.59278 0.0947137 0)
(2.60976 0.0727455 0)
(2.97221 -1.63777 0)
(2.99696 -1.65986 0)
(3.01546 -1.67968 0)
(3.03671 -1.70688 0)
(3.04579 -1.71332 0)
(3.06304 -1.72435 0)
(3.0758 -1.73235 0)
(3.08009 -1.74029 0)
(3.0806 -1.74353 0)
(3.09 -1.73985 0)
(3.09902 -1.73026 0)
(3.09704 -1.7371 0)
(3.05515 -1.65569 0)
(2.96479 -1.45072 0)
(2.87092 -1.19274 0)
(2.73883 -0.803681 0)
(2.68043 -0.550341 0)
(2.60281 -0.2236 0)
(2.6008 -0.0820654 0)
(2.56811 0.0520969 0)
(2.54969 0.0875243 0)
(2.54763 0.0875292 0)
(2.54638 0.0793224 0)
(2.56869 0.076279 0)
(2.56599 0.069046 0)
(2.55969 0.0541946 0)
(2.5525 0.0679276 0)
(2.56699 0.0894907 0)
(2.5753 0.0849851 0)
(2.59011 0.0629286 0)
(3.08185 -1.73585 0)
(3.09076 -1.73886 0)
(3.09704 -1.7506 0)
(3.09922 -1.75311 0)
(3.10077 -1.75122 0)
(3.09802 -1.75023 0)
(3.09342 -1.75053 0)
(3.08689 -1.74726 0)
(3.08094 -1.74593 0)
(3.08806 -1.73132 0)
(3.09772 -1.71499 0)
(3.09012 -1.70067 0)
(3.06392 -1.70255 0)
(3.06364 -1.66673 0)
(3.06929 -1.64576 0)
(3.07571 -1.63256 0)
(3.06284 -1.61397 0)
(2.98116 -1.35299 0)
(2.88507 -0.970783 0)
(2.7732 -0.479206 0)
(2.75011 -0.275184 0)
(2.66981 -0.0501303 0)
(2.65093 0.0246226 0)
(2.62297 0.0785483 0)
(2.60216 0.0552309 0)
(2.60056 0.0548726 0)
(2.61383 0.0751048 0)
(2.61927 0.0838553 0)
(2.60879 0.0616941 0)
(2.61993 0.0273022 0)
(3.08168 -1.7691 0)
(3.08657 -1.76397 0)
(3.09685 -1.75819 0)
(3.09926 -1.74513 0)
(3.10235 -1.73029 0)
(3.10181 -1.71426 0)
(3.08828 -1.70141 0)
(3.07432 -1.68196 0)
(3.05016 -1.64148 0)
(3.04648 -1.59957 0)
(3.0738 -1.55333 0)
(3.08125 -1.54835 0)
(3.075 -1.58124 0)
(3.08225 -1.58549 0)
(3.08344 -1.55773 0)
(3.08876 -1.54013 0)
(3.09403 -1.53435 0)
(3.0968 -1.53083 0)
(3.09804 -1.51012 0)
(3.09405 -1.47442 0)
(3.04084 -1.27708 0)
(2.95068 -0.980352 0)
(2.89268 -0.645642 0)
(2.83185 -0.378231 0)
(2.82424 -0.21202 0)
(2.76515 -0.0371722 0)
(2.71771 0.0582328 0)
(2.69225 0.0757163 0)
(2.68121 0.0838387 0)
(2.70327 0.0880484 0)
(3.08311 -1.60406 0)
(3.0829 -1.58435 0)
(3.08665 -1.5585 0)
(3.09421 -1.53874 0)
(3.10744 -1.51845 0)
(3.11023 -1.51972 0)
(3.09878 -1.53846 0)
(3.08364 -1.56686 0)
(3.07853 -1.57714 0)
(3.0814 -1.54134 0)
(3.10209 -1.50649 0)
(3.10984 -1.50252 0)
(3.11019 -1.51831 0)
(3.11363 -1.52508 0)
(3.09873 -1.50294 0)
(3.09615 -1.4778 0)
(3.1081 -1.45405 0)
(3.11446 -1.44282 0)
(3.11473 -1.41446 0)
(3.1211 -1.35854 0)
(3.10333 -1.38285 0)
(3.10637 -1.37544 0)
(3.11082 -1.35819 0)
(3.0783 -1.2076 0)
(3.04588 -0.9683 0)
(3.00285 -0.669776 0)
(2.96046 -0.458302 0)
(2.90054 -0.233737 0)
(2.86494 -0.0742545 0)
(2.81032 0.0487488 0)
(3.07119 -1.57048 0)
(3.07402 -1.56355 0)
(3.08543 -1.54478 0)
(3.09519 -1.53758 0)
(3.10386 -1.52439 0)
(3.11671 -1.5143 0)
(3.11299 -1.51955 0)
(3.09559 -1.54705 0)
(3.08674 -1.54477 0)
(3.09013 -1.49066 0)
(3.10212 -1.46784 0)
(3.12045 -1.42878 0)
(3.14487 -1.38617 0)
(3.14151 -1.38119 0)
(3.12936 -1.34249 0)
(3.12036 -1.31913 0)
(3.12081 -1.30579 0)
(3.11932 -1.31252 0)
(3.12382 -1.29228 0)
(3.11598 -1.30174 0)
(3.11941 -1.27606 0)
(3.12775 -1.27429 0)
(3.13041 -1.2529 0)
(3.13774 -1.25158 0)
(3.13382 -1.24012 0)
(3.13149 -1.22775 0)
(3.11307 -1.15069 0)
(3.06914 -0.904188 0)
(3.05301 -0.706317 0)
(2.9643 -0.313036 0)
(3.11658 -1.4376 0)
(3.11869 -1.42523 0)
(3.12844 -1.3835 0)
(3.13762 -1.35564 0)
(3.1406 -1.32496 0)
(3.16037 -1.29351 0)
(3.1664 -1.28785 0)
(3.15412 -1.2943 0)
(3.13528 -1.31846 0)
(3.12419 -1.28761 0)
(3.13636 -1.2432 0)
(3.15148 -1.23173 0)
(3.14911 -1.24472 0)
(3.1374 -1.26413 0)
(3.12484 -1.25886 0)
(3.12156 -1.24103 0)
(3.12105 -1.24579 0)
(3.12875 -1.2435 0)
(3.12895 -1.23254 0)
(3.12634 -1.22683 0)
(3.13674 -1.20876 0)
(3.138 -1.1902 0)
(3.13797 -1.15309 0)
(3.13632 -1.14104 0)
(3.12698 -1.13121 0)
(3.11848 -1.12422 0)
(3.11726 -1.12151 0)
(3.12372 -1.1253 0)
(3.12571 -1.11005 0)
(3.10425 -0.926277 0)
(3.1464 -1.27578 0)
(3.13672 -1.27478 0)
(3.1291 -1.2476 0)
(3.13553 -1.22214 0)
(3.13788 -1.21728 0)
(3.15116 -1.20865 0)
(3.15572 -1.20574 0)
(3.14875 -1.21645 0)
(3.1319 -1.23751 0)
(3.11658 -1.23199 0)
(3.12352 -1.21033 0)
(3.13918 -1.20087 0)
(3.14215 -1.20071 0)
(3.14115 -1.20212 0)
(3.1307 -1.19695 0)
(3.12556 -1.18958 0)
(3.13132 -1.16516 0)
(3.14743 -1.13581 0)
(3.14873 -1.11867 0)
(3.14241 -1.09641 0)
(3.14146 -1.08114 0)
(3.13381 -1.07508 0)
(3.12952 -1.06854 0)
(3.12661 -1.07945 0)
(3.1255 -1.07678 0)
(3.12745 -1.08357 0)
(3.13055 -1.06231 0)
(3.13366 -1.0552 0)
(3.13909 -1.03595 0)
(3.13611 -1.02926 0)
(3.16623 -1.13865 0)
(3.15522 -1.14369 0)
(3.14057 -1.13225 0)
(3.13949 -1.10232 0)
(3.14284 -1.08629 0)
(3.14901 -1.07453 0)
(3.16109 -1.06577 0)
(3.16063 -1.06677 0)
(3.15323 -1.07959 0)
(3.13976 -1.08695 0)
(3.14014 -1.05985 0)
(3.15478 -1.04085 0)
(3.16142 -1.03019 0)
(3.16052 -1.01379 0)
(3.1561 -1.0101 0)
(3.14659 -0.999271 0)
(3.14093 -0.991927 0)
(3.14192 -0.989068 0)
(3.14401 -0.991317 0)
(3.14338 -0.99159 0)
(3.13508 -1.0025 0)
(3.13173 -1.00403 0)
(3.1297 -1.00628 0)
(3.13708 -0.997077 0)
(3.13948 -0.993957 0)
(3.14585 -0.978465 0)
(3.1435 -0.966658 0)
(3.14058 -0.941521 0)
(3.13606 -0.938984 0)
(3.12783 -0.943739 0)
(3.17061 -0.958726 0)
(3.16359 -0.966135 0)
(3.15045 -0.976748 0)
(3.14138 -0.961673 0)
(3.14598 -0.945342 0)
(3.14879 -0.933395 0)
(3.16 -0.922909 0)
(3.16229 -0.9226 0)
(3.15812 -0.92463 0)
(3.14457 -0.933194 0)
(3.13409 -0.933788 0)
(3.14208 -0.929306 0)
(3.14984 -0.928129 0)
(3.15233 -0.930356 0)
(3.14836 -0.933782 0)
(3.13944 -0.93328 0)
(3.1362 -0.932645 0)
(3.13536 -0.93282 0)
(3.13672 -0.931076 0)
(3.13895 -0.926469 0)
(3.14021 -0.923691 0)
(3.14242 -0.915518 0)
(3.14503 -0.902858 0)
(3.14576 -0.893358 0)
(3.14419 -0.876024 0)
(3.14181 -0.873266 0)
(3.13635 -0.877175 0)
(3.13227 -0.883634 0)
(3.12518 -0.899748 0)
(3.12899 -0.898898 0)
(3.16299 -0.78902 0)
(3.16352 -0.795632 0)
(3.1558 -0.80951 0)
(3.14537 -0.822831 0)
(3.13785 -0.810569 0)
(3.14481 -0.789458 0)
(3.14763 -0.770751 0)
(3.15863 -0.766471 0)
(3.15547 -0.788963 0)
(3.14847 -0.801117 0)
(3.13839 -0.803418 0)
(3.13686 -0.793878 0)
(3.14136 -0.788288 0)
(3.1511 -0.78818 0)
(3.15124 -0.792328 0)
(3.14672 -0.794433 0)
(3.14129 -0.791433 0)
(3.13926 -0.784675 0)
(3.14082 -0.780483 0)
(3.14133 -0.78087 0)
(3.14214 -0.780115 0)
(3.13986 -0.78167 0)
(3.13813 -0.784343 0)
(3.13603 -0.789605 0)
(3.13347 -0.798925 0)
(3.13129 -0.807256 0)
(3.13098 -0.816301 0)
(3.13091 -0.818492 0)
(3.13422 -0.816385 0)
(3.13898 -0.808768 0)
(3.15074 -0.607749 0)
(3.14765 -0.626314 0)
(3.14547 -0.629099 0)
(3.13634 -0.641275 0)
(3.12516 -0.654362 0)
(3.12321 -0.648401 0)
(3.1274 -0.641441 0)
(3.13939 -0.626066 0)
(3.15366 -0.630999 0)
(3.14066 -0.645777 0)
(3.13199 -0.650376 0)
(3.12285 -0.660082 0)
(3.12484 -0.661635 0)
(3.13607 -0.663369 0)
(3.14025 -0.666159 0)
(3.13824 -0.673834 0)
(3.13487 -0.677376 0)
(3.1298 -0.684289 0)
(3.12992 -0.692612 0)
(3.13115 -0.695731 0)
(3.13155 -0.70131 0)
(3.13136 -0.707465 0)
(3.13105 -0.718086 0)
(3.13031 -0.723931 0)
(3.13107 -0.726499 0)
(3.13188 -0.730723 0)
(3.13487 -0.724473 0)
(3.13314 -0.730125 0)
(3.13517 -0.71891 0)
(3.13329 -0.728202 0)
(3.09888 -0.407852 0)
(3.119 -0.42814 0)
(3.12546 -0.462118 0)
(3.12067 -0.475565 0)
(3.1156 -0.481365 0)
(3.10046 -0.494627 0)
(3.09804 -0.498121 0)
(3.10522 -0.492676 0)
(3.12389 -0.485344 0)
(3.13176 -0.491387 0)
(3.12233 -0.50847 0)
(3.11338 -0.52528 0)
(3.10812 -0.52689 0)
(3.11144 -0.527188 0)
(3.12456 -0.536465 0)
(3.12518 -0.544983 0)
(3.12279 -0.549648 0)
(3.12057 -0.557034 0)
(3.11828 -0.564578 0)
(3.11892 -0.572278 0)
(3.12184 -0.577684 0)
(3.125 -0.58071 0)
(3.12542 -0.58871 0)
(3.12385 -0.588889 0)
(3.12322 -0.59654 0)
(3.12305 -0.597239 0)
(3.12362 -0.605853 0)
(3.1207 -0.61516 0)
(3.12473 -0.629267 0)
(3.1232 -0.648081 0)
(3.06404 -0.27578 0)
(3.06979 -0.266353 0)
(3.08397 -0.277955 0)
(3.09345 -0.296317 0)
(3.09544 -0.304791 0)
(3.08665 -0.333063 0)
(3.07511 -0.352003 0)
(3.06648 -0.361916 0)
(3.07889 -0.356324 0)
(3.09761 -0.343818 0)
(3.10528 -0.352318 0)
(3.10165 -0.37698 0)
(3.09046 -0.395662 0)
(3.08779 -0.394644 0)
(3.09655 -0.402197 0)
(3.1035 -0.418204 0)
(3.10291 -0.423585 0)
(3.10373 -0.433953 0)
(3.10369 -0.444607 0)
(3.10311 -0.458509 0)
(3.10448 -0.466458 0)
(3.10896 -0.480261 0)
(3.11053 -0.486711 0)
(3.11132 -0.503754 0)
(3.1112 -0.517046 0)
(3.11219 -0.530004 0)
(3.11396 -0.546531 0)
(3.11459 -0.557323 0)
(3.11578 -0.568212 0)
(3.11867 -0.578305 0)
(3.02369 -0.154554 0)
(3.02525 -0.158293 0)
(3.03668 -0.149908 0)
(3.0511 -0.135577 0)
(3.06106 -0.143228 0)
(3.05139 -0.160681 0)
(3.04202 -0.184102 0)
(3.04097 -0.211661 0)
(3.03778 -0.224712 0)
(3.05453 -0.21882 0)
(3.07202 -0.216503 0)
(3.07605 -0.233419 0)
(3.06787 -0.256211 0)
(3.06029 -0.257385 0)
(3.06401 -0.268396 0)
(3.07437 -0.294459 0)
(3.07555 -0.301718 0)
(3.07804 -0.305981 0)
(3.08274 -0.32598 0)
(3.08162 -0.337469 0)
(3.08275 -0.353257 0)
(3.08677 -0.364631 0)
(3.09063 -0.376769 0)
(3.09296 -0.392663 0)
(3.09384 -0.404882 0)
(3.09584 -0.417376 0)
(3.0978 -0.425247 0)
(3.09966 -0.438636 0)
(3.10091 -0.448751 0)
(3.10326 -0.467172 0)
(2.97772 -0.0128363 0)
(2.97623 -0.0168543 0)
(2.98252 -0.0109148 0)
(2.99473 0.00550366 0)
(3.00853 0.0106792 0)
(3.00845 -0.0114299 0)
(3.00063 -0.0386711 0)
(3.00301 -0.0697523 0)
(2.99748 -0.0910592 0)
(3.01001 -0.0879486 0)
(3.02703 -0.0813693 0)
(3.03451 -0.0957711 0)
(3.03135 -0.122309 0)
(3.02556 -0.129537 0)
(3.02848 -0.138109 0)
(3.03911 -0.169241 0)
(3.04086 -0.178632 0)
(3.04509 -0.186828 0)
(3.0518 -0.203128 0)
(3.05419 -0.221388 0)
(3.05566 -0.24076 0)
(3.05827 -0.249445 0)
(3.06511 -0.269218 0)
(3.06862 -0.28259 0)
(3.07146 -0.30132 0)
(3.07422 -0.316513 0)
(3.07857 -0.335279 0)
(3.08229 -0.35203 0)
(3.08477 -0.366289 0)
(3.0891 -0.393691 0)
(2.9227 0.135836 0)
(2.91985 0.127248 0)
(2.92109 0.127269 0)
(2.9291 0.136974 0)
(2.9414 0.145549 0)
(2.94742 0.132625 0)
(2.94961 0.102388 0)
(2.95527 0.0681104 0)
(2.9493 0.0443259 0)
(2.95632 0.046111 0)
(2.96713 0.0513788 0)
(2.98269 0.0314434 0)
(2.98328 0.00540003 0)
(2.98132 -0.000245857 0)
(2.98828 -0.0160605 0)
(2.99575 -0.0427218 0)
(2.99841 -0.0553823 0)
(3.00505 -0.0670012 0)
(3.01428 -0.0854061 0)
(3.01939 -0.104179 0)
(3.02184 -0.122131 0)
(3.02648 -0.140989 0)
(3.03297 -0.156447 0)
(3.03953 -0.174618 0)
(3.04447 -0.194903 0)
(3.04863 -0.213336 0)
(3.05355 -0.231897 0)
(3.05808 -0.248704 0)
(3.06272 -0.268327 0)
(3.06862 -0.294826 0)
(2.85599 0.289966 0)
(2.85623 0.275319 0)
(2.85611 0.271198 0)
(2.85795 0.279888 0)
(2.86772 0.277637 0)
(2.88649 0.248997 0)
(2.88815 0.232039 0)
(2.89126 0.214089 0)
(2.89582 0.190515 0)
(2.90015 0.190003 0)
(2.90329 0.191526 0)
(2.92436 0.156412 0)
(2.92788 0.13104 0)
(2.92858 0.129567 0)
(2.94169 0.105371 0)
(2.94871 0.0831616 0)
(2.95399 0.0652919 0)
(2.96065 0.0532564 0)
(2.97159 0.0310033 0)
(2.97896 0.00992988 0)
(2.98298 -0.00600622 0)
(2.99069 -0.0294955 0)
(2.99866 -0.0499661 0)
(3.00619 -0.0682587 0)
(3.01333 -0.0899167 0)
(3.01872 -0.108728 0)
(3.02527 -0.130464 0)
(3.03189 -0.152251 0)
(3.03735 -0.170986 0)
(3.04621 -0.204044 0)
(2.81845 0.373691 0)
(2.81903 0.371598 0)
(2.81973 0.367783 0)
(2.82044 0.365821 0)
(2.82441 0.361445 0)
(2.83071 0.353542 0)
(2.83597 0.344853 0)
(2.83964 0.336843 0)
(2.84344 0.325701 0)
(2.847 0.316773 0)
(2.85129 0.311052 0)
(2.86368 0.290781 0)
(2.87189 0.268882 0)
(2.87726 0.256215 0)
(2.8855 0.241792 0)
(2.89677 0.215731 0)
(2.90372 0.196153 0)
(2.91294 0.175556 0)
(2.92478 0.150241 0)
(2.93289 0.131469 0)
(2.94325 0.104316 0)
(2.95034 0.0860506 0)
(2.96101 0.0597686 0)
(2.96986 0.0379146 0)
(2.97822 0.0157815 0)
(2.98698 -0.00910683 0)
(2.99534 -0.0332453 0)
(3.00306 -0.0547537 0)
(3.01087 -0.0777947 0)
(3.022 -0.113155 0)
(2.82124 0.379269 0)
(2.81846 0.378809 0)
(2.81684 0.376405 0)
(2.81816 0.372352 0)
(2.81918 0.367379 0)
(2.82112 0.365818 0)
(2.82263 0.366365 0)
(2.8235 0.369659 0)
(2.82261 0.37245 0)
(2.82213 0.373129 0)
(2.82552 0.367903 0)
(2.82842 0.359546 0)
(2.8302 0.355262 0)
(2.83304 0.352947 0)
(2.84063 0.343211 0)
(2.84775 0.330585 0)
(2.85462 0.316681 0)
(2.86294 0.30046 0)
(2.87324 0.27901 0)
(2.88346 0.255794 0)
(2.89381 0.232384 0)
(2.90595 0.204739 0)
(2.91739 0.178061 0)
(2.92809 0.152249 0)
(2.93994 0.122617 0)
(2.95 0.0972193 0)
(2.9613 0.0680973 0)
(2.97141 0.0421164 0)
(2.98054 0.0183656 0)
(2.99453 -0.0207527 0)
(2.84992 0.333066 0)
(2.84769 0.342915 0)
(2.84667 0.348912 0)
(2.84311 0.345253 0)
(2.8391 0.33528 0)
(2.83715 0.32947 0)
(2.83743 0.337869 0)
(2.8351 0.352148 0)
(2.83654 0.36867 0)
(2.83468 0.370536 0)
(2.829 0.365534 0)
(2.82768 0.35758 0)
(2.82986 0.35781 0)
(2.83075 0.360994 0)
(2.83238 0.362711 0)
(2.83292 0.362128 0)
(2.83417 0.359557 0)
(2.83545 0.355975 0)
(2.83807 0.350865 0)
(2.84266 0.344176 0)
(2.85005 0.333439 0)
(2.85888 0.318544 0)
(2.86915 0.297769 0)
(2.87977 0.273863 0)
(2.89286 0.244501 0)
(2.9057 0.214917 0)
(2.91973 0.181813 0)
(2.93252 0.150782 0)
(2.94489 0.12033 0)
(2.96291 0.0741 0)
(2.92728 0.171602 0)
(2.92555 0.181072 0)
(2.92713 0.172811 0)
(2.92027 0.182407 0)
(2.90651 0.211559 0)
(2.90097 0.217028 0)
(2.89259 0.227629 0)
(2.8833 0.250342 0)
(2.87911 0.277767 0)
(2.87589 0.286564 0)
(2.87564 0.281306 0)
(2.86272 0.295824 0)
(2.85221 0.323163 0)
(2.8496 0.329653 0)
(2.84783 0.328371 0)
(2.84394 0.339339 0)
(2.84405 0.344398 0)
(2.84022 0.348386 0)
(2.83906 0.348928 0)
(2.83993 0.348227 0)
(2.8409 0.347566 0)
(2.84227 0.34651 0)
(2.84424 0.344189 0)
(2.84748 0.339991 0)
(2.85349 0.330616 0)
(2.86162 0.316313 0)
(2.87283 0.294447 0)
(2.88539 0.267551 0)
(2.89944 0.236761 0)
(2.92189 0.184318 0)
(2.99006 0.0223585 0)
(2.98858 0.026425 0)
(2.98685 0.030736 0)
(2.98464 0.0342519 0)
(2.98044 0.0430294 0)
(2.97786 0.0473432 0)
(2.97128 0.0589999 0)
(2.96589 0.069461 0)
(2.95913 0.0866585 0)
(2.95467 0.0991546 0)
(2.9462 0.118508 0)
(2.94001 0.128202 0)
(2.92561 0.156929 0)
(2.9155 0.181317 0)
(2.90759 0.197539 0)
(2.89258 0.231642 0)
(2.89043 0.2417 0)
(2.8738 0.275829 0)
(2.86763 0.286061 0)
(2.86121 0.299734 0)
(2.85231 0.323741 0)
(2.8521 0.323953 0)
(2.84728 0.332241 0)
(2.84711 0.335839 0)
(2.84741 0.335606 0)
(2.84813 0.334892 0)
(2.84992 0.332369 0)
(2.85353 0.327718 0)
(2.85944 0.31927 0)
(2.87645 0.288481 0)
(2.99971 0.000625338 0)
(2.99963 0.00077603 0)
(2.99953 0.00100299 0)
(2.9994 0.00122867 0)
(2.99915 0.00170999 0)
(2.99887 0.00218976 0)
(2.99838 0.00304748 0)
(2.99778 0.00411462 0)
(2.99689 0.00592647 0)
(2.99591 0.00812057 0)
(2.99446 0.0110142 0)
(2.99224 0.0150088 0)
(2.98887 0.0210536 0)
(2.98428 0.0312564 0)
(2.9805 0.0385482 0)
(2.97149 0.0570675 0)
(2.96501 0.0704871 0)
(2.95204 0.0979935 0)
(2.94191 0.119734 0)
(2.92761 0.149359 0)
(2.91066 0.188017 0)
(2.90418 0.205025 0)
(2.88338 0.248565 0)
(2.87335 0.271864 0)
(2.86974 0.282733 0)
(2.85631 0.313203 0)
(2.85391 0.317281 0)
(2.85301 0.321115 0)
(2.8529 0.322583 0)
(2.85551 0.320409 0)
(3 5.23911e-06 0)
(3 6.66684e-06 0)
(3 8.70366e-06 0)
(2.99999 1.19208e-05 0)
(2.99999 1.60041e-05 0)
(2.99999 2.39439e-05 0)
(2.99998 3.3223e-05 0)
(2.99997 5.37518e-05 0)
(2.99995 7.89698e-05 0)
(2.99993 0.000130293 0)
(2.99989 0.000196661 0)
(2.99982 0.000318837 0)
(2.99968 0.000549463 0)
(2.99948 0.000925595 0)
(2.99914 0.00158163 0)
(2.99856 0.00255944 0)
(2.99749 0.00463583 0)
(2.9959 0.0075361 0)
(2.99327 0.0127067 0)
(2.98901 0.0209122 0)
(2.98316 0.0321051 0)
(2.97388 0.0517456 0)
(2.96318 0.0728462 0)
(2.94845 0.104103 0)
(2.93123 0.141756 0)
(2.9154 0.175933 0)
(2.89827 0.214354 0)
(2.88164 0.2517 0)
(2.87146 0.274932 0)
(2.86194 0.298856 0)
(3 2.73595e-08 0)
(3 3.45482e-08 0)
(3 4.6042e-08 0)
(3 6.15156e-08 0)
(3 8.70502e-08 0)
(3 1.22654e-07 0)
(3 1.85867e-07 0)
(3 2.79459e-07 0)
(3 4.52432e-07 0)
(3 7.20037e-07 0)
(3 1.20705e-06 0)
(3 2.05626e-06 0)
(3 3.79527e-06 0)
(3 7.33145e-06 0)
(2.99999 1.34362e-05 0)
(2.99998 2.77518e-05 0)
(2.99997 5.51111e-05 0)
(2.99993 0.000119769 0)
(2.99986 0.000245844 0)
(2.9997 0.000534446 0)
(2.99936 0.0011362 0)
(2.99866 0.00239925 0)
(2.99732 0.00489997 0)
(2.99468 0.00995677 0)
(2.99034 0.0182169 0)
(2.98245 0.0340349 0)
(2.97175 0.055536 0)
(2.95545 0.0894309 0)
(2.93901 0.124021 0)
(2.90808 0.191673 0)
(3 1.18104e-10 0)
(3 1.50453e-10 0)
(3 2.00978e-10 0)
(3 2.74302e-10 0)
(3 3.8127e-10 0)
(3 5.49993e-10 0)
(3 8.02417e-10 0)
(3 1.23253e-09 0)
(3 1.9034e-09 0)
(3 3.09878e-09 0)
(3 5.0988e-09 0)
(3 8.85698e-09 0)
(3 1.64696e-08 0)
(3 3.15015e-08 0)
(3 6.22996e-08 0)
(3 1.2837e-07 0)
(3 2.84609e-07 0)
(3 6.40543e-07 0)
(3 1.51581e-06 0)
(3 3.74034e-06 0)
(2.99999 9.44584e-06 0)
(2.99999 2.52091e-05 0)
(2.99996 6.61985e-05 0)
(2.9999 0.000181911 0)
(2.99973 0.000477145 0)
(2.99929 0.00127362 0)
(2.9983 0.00310527 0)
(2.99588 0.00774767 0)
(2.99194 0.0152861 0)
(2.97598 0.0481157 0)
(3 3.92577e-13 0)
(3 5.05298e-13 0)
(3 6.84571e-13 0)
(3 9.38768e-13 0)
(3 1.32828e-12 0)
(3 1.89818e-12 0)
(3 2.80935e-12 0)
(3 4.23094e-12 0)
(3 6.57728e-12 0)
(3 1.04807e-11 0)
(3 1.73618e-11 0)
(3 2.95912e-11 0)
(3 5.48825e-11 0)
(3 1.03573e-10 0)
(3 2.05882e-10 0)
(3 4.268e-10 0)
(3 9.56765e-10 0)
(3 2.18116e-09 0)
(3 5.3717e-09 0)
(3 1.35421e-08 0)
(3 3.70376e-08 0)
(3 1.02993e-07 0)
(3 3.09932e-07 0)
(3 9.3693e-07 0)
(3 3.05773e-06 0)
(2.99999 9.78949e-06 0)
(2.99997 3.34758e-05 0)
(2.99991 0.000111817 0)
(2.99975 0.000330877 0)
(2.99799 0.00247552 0)
(2.41011 -1.31016 0)
(2.50685 -1.36124 0)
(2.76372 -1.43016 0)
(2.94703 -1.60758 0)
(3.06924 -1.72773 0)
(3.0779 -1.77487 0)
(3.08486 -1.62056 0)
(3.07733 -1.58084 0)
(3.12264 -1.44863 0)
(3.15448 -1.28285 0)
(3.17158 -1.14003 0)
(3.17319 -0.952664 0)
(3.16011 -0.766309 0)
(3.12687 -0.563788 0)
(3.096 -0.423023 0)
(3.06016 -0.290249 0)
(3.02823 -0.139767 0)
(2.98332 0.00721474 0)
(2.92257 0.164111 0)
(2.85085 0.309143 0)
(2.8174 0.373745 0)
(2.82137 0.378246 0)
(2.85734 0.311959 0)
(2.93662 0.141736 0)
(2.99191 0.0179493 0)
(2.99977 0.000483911 0)
(3 4.3464e-06 0)
(3 2.26208e-08 0)
(3 9.6484e-11 0)
(3 3.1804e-13 0)
(2.40523 -1.29027 0)
(2.52096 -1.358 0)
(2.77888 -1.44007 0)
(2.9643 -1.62109 0)
(3.07091 -1.73492 0)
(3.07192 -1.77459 0)
(3.08843 -1.63286 0)
(3.09563 -1.56315 0)
(3.13949 -1.41471 0)
(3.17114 -1.22028 0)
(3.17316 -1.03766 0)
(3.15165 -0.837523 0)
(3.13264 -0.676109 0)
(3.11554 -0.558621 0)
(3.09088 -0.424898 0)
(3.0649 -0.269727 0)
(3.02496 -0.0769714 0)
(2.96816 0.0813154 0)
(2.89672 0.230255 0)
(2.83553 0.34092 0)
(2.81438 0.376395 0)
(2.82149 0.366336 0)
(2.87303 0.275971 0)
(2.95424 0.101899 0)
(2.99576 0.00922535 0)
(2.99991 0.000179122 0)
(3 1.355e-06 0)
(3 7.61973e-09 0)
(3 3.6332e-11 0)
(3 1.26582e-13 0)
(2.39475 -1.28096 0)
(2.5182 -1.34335 0)
(2.77527 -1.43906 0)
(2.95897 -1.61987 0)
(3.07298 -1.72754 0)
(3.08067 -1.76382 0)
(3.10736 -1.62035 0)
(3.1257 -1.51741 0)
(3.14871 -1.31317 0)
(3.15051 -1.12563 0)
(3.14507 -0.969053 0)
(3.1398 -0.857516 0)
(3.13153 -0.715149 0)
(3.11115 -0.58153 0)
(3.09706 -0.407583 0)
(3.06539 -0.198692 0)
(2.99495 -0.0039375 0)
(2.93143 0.142119 0)
(2.86984 0.268362 0)
(2.82176 0.360877 0)
(2.81224 0.377047 0)
(2.8259 0.35337 0)
(2.88533 0.253019 0)
(2.96642 0.0774286 0)
(2.99754 0.00556446 0)
(2.99996 8.47253e-05 0)
(3 5.93813e-07 0)
(3 3.25978e-09 0)
(3 1.53975e-11 0)
(3 5.34293e-14 0)
(2.39036 -1.27999 0)
(2.5178 -1.34151 0)
(2.7728 -1.44155 0)
(2.94971 -1.62932 0)
(3.07532 -1.72241 0)
(3.09511 -1.74449 0)
(3.12145 -1.57232 0)
(3.12979 -1.4831 0)
(3.14534 -1.27676 0)
(3.14601 -1.15468 0)
(3.14894 -1.01633 0)
(3.13735 -0.882594 0)
(3.13363 -0.730138 0)
(3.13489 -0.530261 0)
(3.09433 -0.30074 0)
(3.03385 -0.12418 0)
(2.98619 -0.00204373 0)
(2.92577 0.138339 0)
(2.86121 0.272462 0)
(2.81571 0.370127 0)
(2.81134 0.379996 0)
(2.83427 0.34655 0)
(2.8985 0.235139 0)
(2.97638 0.0568405 0)
(2.99874 0.00291255 0)
(2.99998 3.79952e-05 0)
(3 2.51267e-07 0)
(3 1.3588e-09 0)
(3 6.36658e-12 0)
(3 2.24102e-14 0)
(2.38572 -1.2811 0)
(2.51989 -1.33846 0)
(2.77812 -1.44348 0)
(2.93625 -1.6311 0)
(3.08033 -1.71518 0)
(3.10178 -1.74163 0)
(3.10483 -1.57344 0)
(3.11238 -1.49361 0)
(3.14299 -1.32888 0)
(3.146 -1.17215 0)
(3.14892 -1.0343 0)
(3.16393 -0.856303 0)
(3.1688 -0.664436 0)
(3.11735 -0.405335 0)
(3.06385 -0.242266 0)
(3.02396 -0.133169 0)
(2.97582 -0.00747991 0)
(2.91911 0.139647 0)
(2.85429 0.289379 0)
(2.81264 0.379264 0)
(2.80958 0.387187 0)
(2.83812 0.357044 0)
(2.91591 0.199813 0)
(2.98388 0.0390587 0)
(2.99931 0.00160037 0)
(2.99999 1.68924e-05 0)
(3 1.06173e-07 0)
(3 5.62814e-10 0)
(3 2.59584e-12 0)
(3 9.80263e-15 0)
(2.3784 -1.28127 0)
(2.52567 -1.34103 0)
(2.78752 -1.44703 0)
(2.92632 -1.63613 0)
(3.07937 -1.71222 0)
(3.09351 -1.75877 0)
(3.09788 -1.56843 0)
(3.11161 -1.48687 0)
(3.14384 -1.33986 0)
(3.17495 -1.14171 0)
(3.18837 -0.989888 0)
(3.1879 -0.75132 0)
(3.13953 -0.532871 0)
(3.095 -0.37576 0)
(3.05755 -0.263744 0)
(3.01772 -0.12309 0)
(2.9723 0.0444503 0)
(2.90763 0.205096 0)
(2.83854 0.333295 0)
(2.80916 0.387131 0)
(2.81396 0.390927 0)
(2.8444 0.349605 0)
(2.93005 0.164527 0)
(2.98966 0.0244065 0)
(2.99967 0.000738645 0)
(3 7.15592e-06 0)
(3 4.36983e-08 0)
(3 2.2912e-10 0)
(3 1.04114e-12 0)
(3 4.97429e-15 0)
(2.375 -1.2812 0)
(2.53201 -1.35198 0)
(2.79422 -1.45418 0)
(2.9206 -1.64421 0)
(3.07499 -1.70304 0)
(3.07809 -1.7646 0)
(3.10897 -1.5377 0)
(3.12524 -1.45909 0)
(3.17716 -1.30179 0)
(3.19085 -1.07224 0)
(3.18629 -0.865822 0)
(3.14239 -0.661767 0)
(3.11527 -0.51863 0)
(3.08719 -0.408803 0)
(3.05562 -0.250075 0)
(3.00893 -0.0387035 0)
(2.94142 0.133524 0)
(2.87508 0.267964 0)
(2.82181 0.35935 0)
(2.80809 0.3875 0)
(2.81297 0.385621 0)
(2.86235 0.296424 0)
(2.94149 0.133614 0)
(2.9935 0.0148272 0)
(2.99984 0.000358961 0)
(3 2.98231e-06 0)
(3 1.77239e-08 0)
(3 9.18203e-11 0)
(3 4.11285e-13 0)
(3 3.36213e-15 0)
(2.3715 -1.28474 0)
(2.53949 -1.3723 0)
(2.79539 -1.47079 0)
(2.92938 -1.64581 0)
(3.07754 -1.67179 0)
(3.07306 -1.75465 0)
(3.1162 -1.5189 0)
(3.13188 -1.43197 0)
(3.17308 -1.20533 0)
(3.17269 -0.992316 0)
(3.14967 -0.811097 0)
(3.13103 -0.697228 0)
(3.10924 -0.554034 0)
(3.08895 -0.397443 0)
(3.04876 -0.156324 0)
(2.97989 0.0312019 0)
(2.92447 0.16043 0)
(2.86434 0.277736 0)
(2.81459 0.368106 0)
(2.80733 0.384685 0)
(2.81724 0.364102 0)
(2.88169 0.262344 0)
(2.96064 0.0917041 0)
(2.99659 0.00779914 0)
(2.99993 0.000147041 0)
(3 1.17235e-06 0)
(3 6.90291e-09 0)
(3 3.56833e-11 0)
(3 1.58778e-13 0)
(3 2.95526e-15 0)
(2.36483 -1.2876 0)
(2.53046 -1.37721 0)
(2.78364 -1.50452 0)
(2.95467 -1.64872 0)
(3.08676 -1.65384 0)
(3.08621 -1.71584 0)
(3.13055 -1.46545 0)
(3.13464 -1.34808 0)
(3.13727 -1.14095 0)
(3.14984 -1.00864 0)
(3.1464 -0.858701 0)
(3.12851 -0.714747 0)
(3.11923 -0.538273 0)
(3.09242 -0.289205 0)
(3.0226 -0.0896391 0)
(2.97508 0.0248032 0)
(2.91511 0.161291 0)
(2.85376 0.295622 0)
(2.80943 0.381511 0)
(2.80515 0.383964 0)
(2.83089 0.349699 0)
(2.88904 0.255635 0)
(2.97381 0.0634062 0)
(2.99829 0.00410855 0)
(2.99997 6.2583e-05 0)
(3 4.549e-07 0)
(3 2.63399e-09 0)
(3 1.35326e-11 0)
(3 5.99787e-14 0)
(3 3.263e-15 0)
(2.35149 -1.28542 0)
(2.52019 -1.37109 0)
(2.77222 -1.51922 0)
(2.96608 -1.66756 0)
(3.08913 -1.64882 0)
(3.0694 -1.66816 0)
(3.10928 -1.45651 0)
(3.12628 -1.32884 0)
(3.13859 -1.18756 0)
(3.14549 -1.02473 0)
(3.15097 -0.866173 0)
(3.16044 -0.662506 0)
(3.1327 -0.41215 0)
(3.05281 -0.191277 0)
(3.01466 -0.0990608 0)
(2.96442 0.0444942 0)
(2.90189 0.206082 0)
(2.83557 0.341028 0)
(2.80594 0.393491 0)
(2.80521 0.388675 0)
(2.83359 0.354912 0)
(2.91241 0.206611 0)
(2.9816 0.0463924 0)
(2.99913 0.00208253 0)
(2.99999 2.55266e-05 0)
(3 1.748e-07 0)
(3 9.90853e-10 0)
(3 5.03809e-12 0)
(3 2.2934e-14 0)
(3 3.8412e-15 0)
(2.34081 -1.28104 0)
(2.50467 -1.35287 0)
(2.76116 -1.51649 0)
(2.96571 -1.68148 0)
(3.09253 -1.65219 0)
(3.05764 -1.61106 0)
(3.08158 -1.50061 0)
(3.12308 -1.35177 0)
(3.14702 -1.20373 0)
(3.18091 -0.996858 0)
(3.19613 -0.784042 0)
(3.15724 -0.513873 0)
(3.08465 -0.30741 0)
(3.04645 -0.204889 0)
(3.00421 -0.0671845 0)
(2.94369 0.125118 0)
(2.87458 0.270321 0)
(2.82139 0.366041 0)
(2.80313 0.39937 0)
(2.80644 0.399162 0)
(2.84186 0.357013 0)
(2.93445 0.162257 0)
(2.98955 0.0268096 0)
(2.99961 0.000931896 0)
(3 9.94139e-06 0)
(3 6.54486e-08 0)
(3 3.65603e-10 0)
(3 1.84241e-12 0)
(3 1.00214e-14 0)
(3 4.07463e-15 0)
(2.32908 -1.27649 0)
(2.48661 -1.3373 0)
(2.75349 -1.51054 0)
(2.96454 -1.69128 0)
(3.08738 -1.67351 0)
(3.0712 -1.62466 0)
(3.08875 -1.51792 0)
(3.14187 -1.35214 0)
(3.19949 -1.14828 0)
(3.21607 -0.879415 0)
(3.16137 -0.626315 0)
(3.11176 -0.443484 0)
(3.07825 -0.336682 0)
(3.03756 -0.19987 0)
(2.97737 0.0292038 0)
(2.91755 0.182071 0)
(2.86016 0.293082 0)
(2.8133 0.375195 0)
(2.80223 0.399534 0)
(2.81042 0.401183 0)
(2.86053 0.308353 0)
(2.94069 0.144255 0)
(2.99362 0.0157198 0)
(2.99983 0.000416232 0)
(3 3.82022e-06 0)
(3 2.41822e-08 0)
(3 1.32943e-10 0)
(3 6.64371e-13 0)
(3 6.11742e-15 0)
(3 4.13977e-15 0)
(2.31301 -1.26841 0)
(2.47253 -1.32967 0)
(2.7417 -1.50357 0)
(2.96306 -1.69596 0)
(3.08033 -1.68138 0)
(3.08249 -1.63664 0)
(3.13606 -1.49314 0)
(3.20291 -1.26211 0)
(3.21134 -1.01173 0)
(3.1641 -0.75809 0)
(3.13081 -0.603729 0)
(3.10257 -0.489238 0)
(3.07105 -0.345978 0)
(3.02802 -0.107816 0)
(2.95819 0.0801853 0)
(2.90624 0.19355 0)
(2.84684 0.314843 0)
(2.80569 0.38538 0)
(2.8035 0.393331 0)
(2.81206 0.380955 0)
(2.87877 0.269199 0)
(2.95919 0.0956141 0)
(2.99636 0.00862192 0)
(2.99992 0.000171769 0)
(3 1.42319e-06 0)
(3 8.77231e-09 0)
(3 4.75787e-11 0)
(3 2.37282e-13 0)
(3 4.81964e-15 0)
(3 4.55853e-15 0)
(2.30539 -1.25808 0)
(2.45491 -1.32661 0)
(2.73784 -1.50514 0)
(2.96142 -1.71065 0)
(3.09095 -1.65974 0)
(3.13333 -1.6097 0)
(3.18714 -1.37537 0)
(3.16957 -1.1 0)
(3.16098 -0.955467 0)
(3.15155 -0.795409 0)
(3.1248 -0.651311 0)
(3.10237 -0.492578 0)
(3.07974 -0.254037 0)
(3.00014 -0.0204895 0)
(2.95123 0.0846193 0)
(2.88796 0.23438 0)
(2.827 0.355251 0)
(2.80111 0.393042 0)
(2.8019 0.388133 0)
(2.82857 0.346959 0)
(2.88761 0.251189 0)
(2.97618 0.0569779 0)
(2.99843 0.00379065 0)
(2.99997 6.15333e-05 0)
(3 4.87396e-07 0)
(3 3.00317e-09 0)
(3 1.63242e-11 0)
(3 8.37632e-14 0)
(3 4.41604e-15 0)
(3 4.423e-15 0)
(2.30757 -1.25553 0)
(2.44136 -1.32744 0)
(2.7322 -1.51554 0)
(2.96018 -1.74202 0)
(3.10244 -1.6395 0)
(3.14849 -1.53769 0)
(3.15487 -1.30427 0)
(3.14459 -1.12526 0)
(3.14335 -1.00643 0)
(3.14457 -0.826469 0)
(3.13837 -0.638228 0)
(3.12837 -0.379006 0)
(3.03942 -0.116509 0)
(2.99437 -0.0167573 0)
(2.93233 0.141672 0)
(2.85807 0.296283 0)
(2.81307 0.379212 0)
(2.79906 0.399672 0)
(2.8 0.388012 0)
(2.83955 0.33308 0)
(2.92304 0.182118 0)
(2.98459 0.0399189 0)
(2.9993 0.00172544 0)
(2.99999 2.24432e-05 0)
(3 1.64249e-07 0)
(3 9.95096e-10 0)
(3 5.39294e-12 0)
(3 3.04975e-14 0)
(3 4.14261e-15 0)
(3 4.36714e-15 0)
(2.30705 -1.25199 0)
(2.4239 -1.31876 0)
(2.70178 -1.54232 0)
(2.9736 -1.76371 0)
(3.12491 -1.59546 0)
(3.10164 -1.53757 0)
(3.12106 -1.32672 0)
(3.13167 -1.17112 0)
(3.15787 -1.00027 0)
(3.17877 -0.778992 0)
(3.17026 -0.485865 0)
(3.07676 -0.214607 0)
(3.02602 -0.105235 0)
(2.97512 0.0270045 0)
(2.89703 0.219284 0)
(2.84429 0.322316 0)
(2.8066 0.391039 0)
(2.79622 0.407073 0)
(2.8011 0.392948 0)
(2.84668 0.339205 0)
(2.94425 0.143374 0)
(2.99221 0.0220357 0)
(2.99972 0.000738416 0)
(3 7.95885e-06 0)
(3 5.50678e-08 0)
(3 3.25536e-10 0)
(3 1.74364e-12 0)
(3 1.26863e-14 0)
(3 4.30248e-15 0)
(3 4.40284e-15 0)
(2.30377 -1.25204 0)
(2.41076 -1.31534 0)
(2.67916 -1.56106 0)
(2.9791 -1.75585 0)
(3.11199 -1.59174 0)
(3.08028 -1.52854 0)
(3.12319 -1.30934 0)
(3.16597 -1.15441 0)
(3.213 -0.884736 0)
(3.18939 -0.590194 0)
(3.10708 -0.332837 0)
(3.05772 -0.2134 0)
(3.00863 -0.103847 0)
(2.93621 0.123387 0)
(2.88633 0.244596 0)
(2.83325 0.343125 0)