/*--------------------------------*- C++ -*----------------------------------*\
  =========                 |
  \\      /  F ield         | OpenFOAM: The Open Source CFD Toolbox
   \\    /   O peration     | Website:  https://openfoam.org
    \\  /    A nd           | Version:  7
     \\/     M anipulation  |
\*---------------------------------------------------------------------------*/
FoamFile
{
    version     2.0;
    format      ascii;
    class       volScalarField;
    location    "5.5";
    object      rho;
}
// * * * * * * * * * * * * * * * * * * * * * * * * * * * * * * * * * * * * * //

dimensions      [1 -3 0 0 0 0 0];

internalField   nonuniform List<scalar> 
90000
(
0.106155
0.148777
0.182236
0.207256
0.237653
0.270882
0.299028
0.333264
0.37092
0.399022
0.441033
0.540107
0.636627
0.654291
0.645261
0.625076
0.604065
0.589726
0.57719
0.566437
0.559112
0.554551
0.554294
0.5556
0.558552
0.562726
0.569654
0.579527
0.590798
0.602224
0.612857
0.622961
0.633193
0.643104
0.652674
0.661691
0.670808
0.678019
0.684725
0.692711
0.700407
0.706971
0.712453
0.716676
0.720456
0.723972
0.727417
0.730921
0.733509
0.735898
0.7376
0.738494
0.73932
0.741368
0.74556
0.750982
0.756116
0.760215
0.76351
0.766893
0.76829
0.769433
0.770874
0.771273
0.77168
0.774369
0.776156
0.778328
0.782792
0.785408
0.788603
0.793436
0.794049
0.796205
0.797453
0.799467
0.804123
0.812694
0.821501
0.82655
0.830161
0.836306
0.846742
0.854981
0.865587
0.868019
0.876004
0.883407
0.894012
0.89689
0.901763
0.911801
0.913261
0.918088
0.922338
0.926438
0.935745
0.93711
0.939196
0.945619
0.0653457
0.0653623
0.0653807
0.0654062
0.0654247
0.0659102
0.0677766
0.0722742
0.0794354
0.0901232
0.151574
0.336167
0.427141
0.451144
0.449349
0.441012
0.429094
0.415661
0.403095
0.395886
0.397363
0.40049
0.405497
0.411255
0.418629
0.427313
0.437809
0.449257
0.461259
0.474107
0.488085
0.503208
0.518949
0.534549
0.549784
0.565408
0.57926
0.591839
0.603205
0.614456
0.625597
0.636641
0.647232
0.657384
0.667281
0.677239
0.68687
0.696377
0.705536
0.714148
0.72233
0.729605
0.736015
0.742893
0.750202
0.756762
0.762053
0.765612
0.768511
0.771568
0.772829
0.773143
0.773926
0.774906
0.776919
0.779831
0.781879
0.785453
0.78856
0.791093
0.794061
0.795773
0.795812
0.796928
0.798553
0.802148
0.810186
0.817956
0.825069
0.828224
0.83372
0.841354
0.851519
0.860485
0.867351
0.870698
0.878024
0.88572
0.895472
0.896795
0.902563
0.911373
0.912572
0.91877
0.922274
0.927611
0.936087
0.937286
0.939102
0.943333
0.0656682
0.0657097
0.0657551
0.0658095
0.0658684
0.0659385
0.0659783
0.0660265
0.0660785
0.0661501
0.0662082
0.0777607
0.176346
0.279801
0.30114
0.331917
0.342118
0.33974
0.341295
0.34406
0.344721
0.34299
0.341518
0.345893
0.355038
0.364802
0.372941
0.375703
0.379576
0.386001
0.393176
0.402087
0.412587
0.424726
0.437725
0.451321
0.464143
0.477776
0.492007
0.506677
0.521573
0.537026
0.552781
0.569727
0.586704
0.60263
0.617641
0.632696
0.648486
0.664581
0.68067
0.695928
0.709944
0.722017
0.731901
0.740104
0.746572
0.751663
0.756391
0.76087
0.765219
0.768107
0.771859
0.77612
0.779662
0.782574
0.784963
0.789323
0.791911
0.794553
0.79667
0.797058
0.79708
0.798481
0.801681
0.808537
0.817907
0.823457
0.827828
0.830822
0.837364
0.847953
0.855563
0.865564
0.868638
0.873095
0.880838
0.888424
0.895904
0.896841
0.903991
0.908986
0.91171
0.919697
0.922438
0.928597
0.9349
0.936742
0.938093
0.94061
0.0661073
0.0661728
0.0662479
0.0663323
0.066427
0.0665293
0.066638
0.0667601
0.0668871
0.0670242
0.0671926
0.0672807
0.0673494
0.0729937
0.0923949
0.181061
0.258171
0.288366
0.307647
0.319927
0.324988
0.321315
0.320047
0.321083
0.323718
0.328023
0.332856
0.33536
0.33858
0.343377
0.347984
0.352814
0.358824
0.366162
0.374871
0.382114
0.384441
0.388913
0.395515
0.40345
0.413456
0.426477
0.440531
0.454551
0.468093
0.482915
0.498574
0.515935
0.53315
0.550997
0.569266
0.587
0.604788
0.621893
0.63878
0.654919
0.670669
0.685758
0.70017
0.713563
0.726618
0.738921
0.750568
0.76015
0.7689
0.775126
0.780921
0.787629
0.791753
0.794796
0.796228
0.796241
0.797251
0.800309
0.807072
0.816766
0.822792
0.826706
0.830324
0.834479
0.843611
0.854325
0.860573
0.867545
0.869932
0.876761
0.883799
0.891157
0.895764
0.898342
0.906562
0.909848
0.913626
0.920757
0.922521
0.928856
0.931628
0.933901
0.935405
0.939246
0.0668415
0.0669481
0.0670627
0.0671818
0.0673068
0.0674335
0.0675643
0.0676995
0.0678389
0.0679831
0.0681337
0.0682889
0.0684833
0.068589
0.0686934
0.0687815
0.0773214
0.0964682
0.128208
0.177605
0.252471
0.289549
0.311931
0.322635
0.327008
0.326646
0.324695
0.325288
0.326939
0.328408
0.330301
0.333865
0.336702
0.339748
0.34421
0.351197
0.356907
0.360328
0.363859
0.367531
0.372367
0.379385
0.388127
0.393829
0.393921
0.399391
0.411185
0.425115
0.439028
0.449569
0.46246
0.479568
0.499055
0.519744
0.539199
0.559536
0.579614
0.598139
0.615882
0.634432
0.654306
0.674764
0.693943
0.710646
0.725586
0.736906
0.747959
0.756195
0.763505
0.770841
0.778043
0.785207
0.792757
0.802265
0.811937
0.820616
0.824175
0.827792
0.831464
0.838172
0.849958
0.857786
0.862378
0.867839
0.870602
0.880065
0.885751
0.892342
0.895399
0.899817
0.90811
0.910015
0.915011
0.920736
0.922009
0.926068
0.92634
0.929255
0.932603
0.939369
0.0678944
0.0680017
0.0681191
0.0682424
0.0683724
0.0685015
0.0686364
0.0687699
0.0689093
0.0690542
0.0692103
0.0693788
0.0695493
0.0697356
0.0699173
0.0701598
0.0702599
0.0703751
0.0704793
0.0708589
0.0811756
0.105664
0.145296
0.191399
0.23561
0.274211
0.301693
0.320786
0.329273
0.333412
0.333358
0.337705
0.341811
0.343308
0.342385
0.343742
0.348052
0.349744
0.350459
0.352635
0.356452
0.359707
0.36315
0.367861
0.371949
0.374567
0.379541
0.385456
0.392018
0.400064
0.403325
0.408357
0.418101
0.431642
0.447162
0.459602
0.473717
0.489673
0.507609
0.525311
0.545292
0.566709
0.587029
0.606509
0.626062
0.645751
0.666977
0.68896
0.711291
0.731453
0.749859
0.766632
0.781678
0.793823
0.801768
0.803704
0.808519
0.818872
0.830157
0.841584
0.852954
0.857466
0.859586
0.863355
0.869696
0.881434
0.886284
0.891866
0.89476
0.901474
0.9081
0.909236
0.915601
0.918466
0.918441
0.920913
0.923366
0.927319
0.931895
0.94183
0.0690891
0.0692091
0.0693368
0.0694698
0.0696095
0.0697553
0.0699069
0.0700541
0.0702005
0.0703468
0.0705073
0.0706751
0.0708555
0.0710383
0.0712214
0.0714126
0.0715977
0.0718176
0.0720248
0.072302
0.0724259
0.0725944
0.0727111
0.0739332
0.0825652
0.104858
0.144347
0.193788
0.24065
0.273671
0.307927
0.336877
0.346913
0.349204
0.344977
0.345808
0.35534
0.357629
0.354999
0.354346
0.360637
0.364244
0.362539
0.359796
0.363578
0.367715
0.370562
0.372096
0.372986
0.377217
0.385167
0.388668
0.392747
0.398765
0.407317
0.416051
0.418139
0.422981
0.433813
0.446978
0.458985
0.474497
0.492709
0.511842
0.529991
0.551328
0.574771
0.596727
0.61766
0.638991
0.659911
0.680815
0.7012
0.720268
0.737896
0.758171
0.779518
0.801624
0.819303
0.830376
0.830018
0.832562
0.842004
0.855273
0.865919
0.87357
0.877015
0.885973
0.894022
0.902887
0.902817
0.903729
0.911953
0.910433
0.911387
0.917657
0.924707
0.929628
0.932802
0.942134
0.0704919
0.0706089
0.0707313
0.0708532
0.0709766
0.0711065
0.071245
0.0713778
0.0715101
0.0716437
0.071791
0.0719422
0.072106
0.0722684
0.0724438
0.0726198
0.0728169
0.0730201
0.0732371
0.0734625
0.0737012
0.0739731
0.074235
0.0745807
0.074736
0.0749569
0.0751361
0.0761498
0.0852352
0.106862
0.146218
0.202837
0.25508
0.289623
0.314672
0.345496
0.368749
0.372613
0.363245
0.356852
0.368099
0.373267
0.365888
0.360283
0.365408
0.374122
0.37783
0.376166
0.374741
0.376475
0.379111
0.382229
0.384088
0.387424
0.391281
0.395025
0.400238
0.403797
0.408483
0.414126
0.421481
0.425232
0.430961
0.441567
0.454893
0.468075
0.485165
0.504757
0.524465
0.543329
0.565598
0.58842
0.610969
0.635035
0.662634
0.688914
0.71146
0.729853
0.742482
0.758492
0.776809
0.796101
0.817161
0.834533
0.841977
0.845425
0.856412
0.872587
0.883919
0.883345
0.884699
0.890308
0.897406
0.898826
0.903862
0.91578
0.925169
0.926219
0.922182
0.92272
0.0718128
0.0719205
0.0720282
0.0721344
0.0722401
0.0723536
0.0724758
0.0726065
0.0727393
0.0728772
0.0730241
0.0731786
0.0733441
0.0735189
0.0737071
0.0739024
0.0741245
0.0743508
0.0746105
0.0748561
0.0751508
0.0754314
0.0757542
0.0760623
0.0764152
0.0768014
0.0771974
0.077661
0.0778849
0.0781511
0.0783707
0.0790807
0.0888049
0.112862
0.15335
0.210581
0.269398
0.30976
0.334104
0.356365
0.382108
0.395459
0.383927
0.371409
0.378421
0.389394
0.387166
0.377591
0.375414
0.37881
0.38608
0.388266
0.389555
0.392549
0.394773
0.394568
0.39406
0.398073
0.400394
0.401929
0.405402
0.41042
0.414365
0.419288
0.425821
0.435155
0.439116
0.445304
0.457726
0.47229
0.485045
0.502146
0.522442
0.543545
0.564322
0.588551
0.60995
0.628967
0.649719
0.675923
0.700064
0.720717
0.738727
0.752802
0.772229
0.792163
0.811658
0.821884
0.825375
0.833909
0.842735
0.853136
0.861112
0.868899
0.876919
0.886134
0.888145
0.885945
0.883683
0.886975
0.0730633
0.073168
0.0732754
0.0733825
0.0734867
0.0735991
0.0737203
0.0738611
0.0740158
0.0741895
0.0743652
0.0745493
0.074727
0.0749287
0.0751346
0.0753708
0.0756133
0.0758823
0.0761529
0.0764372
0.0767398
0.0770572
0.0773872
0.0777127
0.0780691
0.0784108
0.078799
0.0791221
0.0794844
0.0798421
0.0802084
0.0806054
0.0808143
0.0810049
0.0812154
0.0816181
0.0915289
0.118625
0.165986
0.227669
0.288042
0.333059
0.359644
0.378766
0.395431
0.409988
0.405653
0.392524
0.392424
0.396612
0.400748
0.396768
0.396039
0.398968
0.399012
0.3969
0.399496
0.404602
0.40562
0.405258
0.406347
0.405925
0.40873
0.411612
0.415558
0.420955
0.426456
0.429572
0.434469
0.441806
0.451154
0.455213
0.464606
0.480055
0.496371
0.510748
0.53078
0.548789
0.565011
0.582975
0.602926
0.622422
0.64044
0.66097
0.685108
0.704599
0.722459
0.735203
0.750951
0.765646
0.776117
0.788321
0.797203
0.804406
0.81253
0.821773
0.827629
0.828291
0.828024
0.836393
0.0744654
0.0745781
0.0747002
0.0748194
0.0749416
0.075068
0.0752044
0.0753514
0.075521
0.0757035
0.0759046
0.076108
0.0763198
0.0765449
0.0767826
0.0770396
0.0773041
0.0775858
0.0778642
0.0781521
0.0784438
0.0787622
0.0790702
0.0793949
0.0797018
0.0800268
0.0803449
0.0806505
0.0809571
0.0812538
0.0815663
0.0818433
0.0821454
0.0824443
0.0827481
0.0831052
0.0832598
0.0834982
0.0836801
0.0850002
0.0978021
0.130599
0.186779
0.257522
0.320406
0.360922
0.390227
0.407931
0.417136
0.42091
0.417254
0.414863
0.413149
0.415448
0.413173
0.411004
0.413845
0.416129
0.413243
0.41016
0.409361
0.411091
0.414036
0.416093
0.419496
0.422718
0.423015
0.42575
0.428937
0.432326
0.437482
0.444749
0.451476
0.458591
0.466861
0.476136
0.482158
0.491862
0.504218
0.516326
0.529157
0.54672
0.565871
0.58343
0.601151
0.616219
0.632877
0.649001
0.660633
0.668597
0.679546
0.69468
0.706243
0.717496
0.732246
0.746881
0.753247
0.752901
0.753064
0.758888
0.0760536
0.0761816
0.0763132
0.0764518
0.0765958
0.0767479
0.0769104
0.0770798
0.0772578
0.0774367
0.0776303
0.0778321
0.078054
0.0782872
0.0785338
0.0787842
0.0790465
0.0793095
0.0795756
0.0798351
0.0800948
0.0803585
0.0806374
0.0809097
0.0811662
0.0814295
0.0816889
0.0819513
0.082194
0.0824569
0.0827145
0.0829786
0.0832607
0.0835284
0.083818
0.0841093
0.0844512
0.0848444
0.0852382
0.085737
0.0859415
0.0862484
0.0865239
0.0908005
0.11182
0.156023
0.223972
0.3033
0.363883
0.394465
0.413418
0.432377
0.436629
0.439529
0.434272
0.430195
0.429986
0.42963
0.426545
0.426772
0.4285
0.428217
0.426466
0.424124
0.424282
0.425511
0.428863
0.432643
0.434901
0.436289
0.438788
0.441515
0.4474
0.452127
0.456701
0.462406
0.469758
0.476672
0.485301
0.492047
0.499127
0.503925
0.510167
0.521536
0.537161
0.553531
0.563924
0.573999
0.588073
0.599101
0.609311
0.620789
0.632256
0.640238
0.650912
0.663123
0.66758
0.666275
0.669564
0.680842
0.0778506
0.0779753
0.078107
0.0782552
0.0784108
0.0785763
0.0787462
0.0789129
0.0790797
0.0792509
0.0794357
0.0796315
0.0798376
0.0800578
0.0802827
0.0805091
0.0807351
0.0809569
0.0811744
0.0813915
0.0816037
0.0818186
0.082049
0.0822669
0.0824743
0.082678
0.0828972
0.083123
0.0833562
0.0836029
0.0838548
0.084138
0.084438
0.0847442
0.0850705
0.0854215
0.0858285
0.0862321
0.0866712
0.08705
0.0874263
0.0878734
0.0883243
0.0885682
0.0887764
0.0890629
0.0892859
0.101244
0.138702
0.205959
0.283623
0.36134
0.404825
0.434042
0.445945
0.451668
0.454552
0.452334
0.446813
0.446329
0.444846
0.441836
0.442436
0.442639
0.443186
0.444473
0.444555
0.443569
0.442294
0.441436
0.442825
0.448091
0.453856
0.456604
0.460133
0.46388
0.466791
0.472704
0.478533
0.482659
0.490438
0.49694
0.50144
0.504163
0.510249
0.521997
0.531917
0.534651
0.536527
0.545673
0.558736
0.566851
0.572641
0.583062
0.593413
0.602894
0.608022
0.610417
0.611941
0.620193
0.0796934
0.07982
0.0799608
0.0801225
0.0802895
0.0804511
0.0806045
0.0807495
0.0808961
0.0810462
0.0812012
0.0813633
0.0815311
0.0817123
0.0818942
0.0820728
0.0822487
0.0824262
0.0825981
0.082774
0.0829417
0.0831181
0.0833045
0.0834904
0.0836681
0.0838545
0.0840566
0.0842832
0.0845304
0.0848005
0.085085
0.0854123
0.0857698
0.0861322
0.0864733
0.0868718
0.0872653
0.087685
0.0880715
0.0884182
0.0887963
0.0891439
0.0894532
0.0897907
0.0901721
0.0905502
0.0910664
0.0914192
0.0919041
0.0922684
0.0983349
0.12788
0.189473
0.277726
0.361529
0.417627
0.44273
0.464044
0.465315
0.468911
0.46718
0.460323
0.460755
0.460996
0.460488
0.462658
0.462242
0.461668
0.461103
0.460779
0.461809
0.46432
0.464623
0.463798
0.465337
0.468253
0.473375
0.479189
0.482529
0.485323
0.486274
0.491997
0.498377
0.502423
0.506382
0.510781
0.520868
0.527788
0.52854
0.529191
0.535535
0.543413
0.549618
0.550612
0.556762
0.562743
0.566066
0.572508
0.582504
0.588992
0.081548
0.0816603
0.0817884
0.0819275
0.0820718
0.0822065
0.082336
0.0824574
0.0825816
0.0827038
0.0828256
0.0829564
0.0830941
0.0832353
0.0833762
0.083507
0.083642
0.0837813
0.0839266
0.0840764
0.0842272
0.0843875
0.0845693
0.0847578
0.0849619
0.0851695
0.0853906
0.0856355
0.085914
0.0862172
0.0865489
0.0869181
0.0873297
0.0876952
0.0880458
0.0884017
0.0887748
0.0891447
0.0894758
0.0898074
0.0901194
0.090419
0.0907511
0.0910933
0.0914451
0.0918579
0.092413
0.0929908
0.0935532
0.0941176
0.0945232
0.0950623
0.0954379
0.0980632
0.125091
0.186955
0.279609
0.370595
0.436489
0.462357
0.47989
0.476777
0.481139
0.482709
0.478226
0.479428
0.477891
0.479435
0.482012
0.482736
0.483455
0.48311
0.48229
0.483225
0.485271
0.486878
0.488596
0.489532
0.488663
0.489591
0.492775
0.498336
0.504247
0.507759
0.510631
0.512962
0.515011
0.521237
0.526318
0.529169
0.532336
0.536886
0.541725
0.544985
0.551472
0.557025
0.560877
0.562935
0.569031
0.578162
0.0832186
0.0833184
0.083424
0.0835317
0.0836391
0.0837425
0.0838444
0.0839443
0.0840524
0.0841604
0.0842654
0.0843782
0.0844924
0.0846084
0.084728
0.084847
0.0849705
0.0851024
0.0852471
0.0854115
0.0855804
0.0857614
0.0859683
0.0862123
0.0864953
0.0867787
0.0870395
0.0872991
0.0875757
0.0878735
0.0881979
0.0885807
0.0889637
0.0892927
0.0895812
0.0898621
0.0901675
0.0904519
0.090759
0.0910508
0.0913464
0.0916686
0.0920205
0.0923791
0.0927822
0.0933107
0.0939006
0.0944793
0.0949501
0.0954142
0.0960871
0.0967507
0.0974124
0.0980348
0.0981915
0.0983335
0.100872
0.12651
0.198971
0.297485
0.398229
0.452421
0.481621
0.495895
0.494169
0.499017
0.495618
0.495361
0.498684
0.500264
0.504725
0.505115
0.50532
0.506006
0.506125
0.505954
0.508002
0.509708
0.509415
0.509589
0.509789
0.51014
0.512291
0.51483
0.516735
0.518236
0.52087
0.526557
0.531839
0.534812
0.537288
0.540022
0.542906
0.546772
0.550601
0.55482
0.558965
0.562333
0.564375
0.571679
0.0848322
0.0848926
0.0849539
0.0850199
0.0850942
0.0851743
0.085262
0.0853525
0.0854505
0.0855603
0.0856752
0.085797
0.0859173
0.0860396
0.0861751
0.0863175
0.0864718
0.0866384
0.0868216
0.0870247
0.0872339
0.0874577
0.0877025
0.0879893
0.088325
0.0886509
0.088927
0.0891676
0.0893864
0.0896019
0.0898527
0.090168
0.0904835
0.0907507
0.0909694
0.0912087
0.0914379
0.0916938
0.091977
0.0923028
0.0926413
0.0930317
0.093466
0.0939071
0.094403
0.0949936
0.0956524
0.0962248
0.0966517
0.0971497
0.0977031
0.0982337
0.0987527
0.0991595
0.0995162
0.0999452
0.100105
0.100394
0.100722
0.105594
0.140457
0.228565
0.332776
0.434032
0.478677
0.503695
0.507107
0.515229
0.522262
0.521419
0.523368
0.520539
0.523848
0.527709
0.529213
0.531409
0.534168
0.533439
0.532104
0.532087
0.531724
0.531444
0.533229
0.535922
0.536694
0.53712
0.537241
0.538227
0.540902
0.543374
0.544878
0.545765
0.548468
0.554472
0.558145
0.561656
0.565321
0.568371
0.568472
0.574133
0.0862265
0.0862782
0.0863349
0.0864038
0.0864891
0.0865848
0.0866936
0.0868132
0.0869414
0.0870859
0.0872441
0.0874105
0.0875801
0.0877551
0.0879447
0.0881344
0.088326
0.0885324
0.0887521
0.0889744
0.0891988
0.0894275
0.0896729
0.0899449
0.0902382
0.0905064
0.0907262
0.0908977
0.0910225
0.0911334
0.0912894
0.0915027
0.0917544
0.0919709
0.0921899
0.0924153
0.0926676
0.092952
0.0933079
0.0937264
0.0941775
0.0946859
0.0952041
0.0957242
0.0962541
0.0968849
0.0974917
0.0979555
0.0983704
0.0987645
0.099186
0.0996141
0.0999667
0.100289
0.1006
0.100883
0.101112
0.101677
0.10297
0.104174
0.105543
0.106421
0.11548
0.165093
0.266428
0.380301
0.466303
0.507718
0.538976
0.546215
0.547561
0.542014
0.547963
0.547481
0.548706
0.556224
0.560233
0.558992
0.559665
0.561567
0.561581
0.561596
0.562553
0.562934
0.561964
0.562438
0.56324
0.562851
0.563951
0.567005
0.569185
0.569228
0.570215
0.57108
0.571399
0.573188
0.576719
0.580077
0.581241
0.58759
0.0879136
0.0879939
0.0880872
0.0881924
0.0883083
0.0884359
0.0885712
0.0887226
0.0888927
0.0890804
0.0892845
0.0894903
0.0896768
0.0898592
0.0900552
0.0902504
0.0904327
0.0906235
0.0908087
0.0909842
0.0911557
0.0913292
0.0915183
0.0917138
0.0919037
0.0920699
0.0922012
0.0922986
0.0923708
0.0924464
0.0925498
0.0927202
0.0929379
0.0931854
0.0934629
0.0937921
0.094169
0.0945941
0.0950822
0.095609
0.0961783
0.0967605
0.0973194
0.0978033
0.0983019
0.098827
0.0992736
0.0996337
0.0999703
0.10024
0.100478
0.100642
0.100797
0.101014
0.101358
0.101828
0.10269
0.104247
0.106247
0.108259
0.109986
0.111313
0.110967
0.110919
0.111476
0.131331
0.20639
0.3234
0.442319
0.518006
0.545549
0.563596
0.584764
0.576455
0.578965
0.58644
0.584466
0.583336
0.58984
0.594399
0.594003
0.594743
0.595578
0.595117
0.59481
0.597278
0.599795
0.599473
0.59836
0.599055
0.600357
0.600329
0.59981
0.600827
0.602531
0.603822
0.606552
0.610919
0.613968
0.617382
0.0900354
0.0901335
0.0902567
0.090393
0.0905169
0.0906273
0.0907359
0.0908568
0.0910037
0.0911712
0.0913574
0.0915275
0.0916576
0.0917709
0.0918874
0.0920008
0.0921139
0.0922295
0.0923424
0.0924578
0.0925753
0.0927059
0.0928495
0.092989
0.0931199
0.0932521
0.0933773
0.0934857
0.0936065
0.093751
0.0939294
0.0941696
0.0944942
0.0949063
0.095401
0.0959332
0.0964745
0.0970148
0.0975284
0.0980432
0.0985634
0.0990555
0.0994463
0.0997554
0.100052
0.100342
0.100568
0.100722
0.100914
0.101057
0.10111
0.101188
0.101356
0.101872
0.102906
0.104523
0.106584
0.108668
0.110383
0.111955
0.113287
0.114019
0.114459
0.115635
0.118826
0.121687
0.124654
0.126441
0.159967
0.254687
0.3854
0.496621
0.557486
0.590347
0.614809
0.632468
0.622213
0.617601
0.625569
0.623595
0.625316
0.631036
0.636486
0.635839
0.635977
0.636063
0.635946
0.636742
0.638179
0.640033
0.642408
0.643411
0.643644
0.643475
0.644347
0.645778
0.647755
0.650871
0.653705
0.657325
0.0921066
0.0921572
0.0922309
0.0923114
0.092372
0.0924158
0.0924616
0.0925146
0.0925849
0.092686
0.092815
0.0929245
0.0930019
0.0930658
0.0931282
0.0931938
0.0932736
0.0933582
0.0934488
0.0935693
0.0937229
0.0938994
0.0940998
0.0943096
0.0945276
0.0947666
0.0950183
0.0952769
0.0955684
0.0959051
0.0962693
0.0966779
0.097156
0.0977449
0.0983683
0.0988794
0.0993023
0.0996575
0.0999596
0.100275
0.100596
0.100839
0.100956
0.101027
0.101122
0.10121
0.101245
0.101276
0.101414
0.101601
0.101785
0.102358
0.103562
0.105445
0.107784
0.110292
0.112158
0.113456
0.114305
0.114705
0.115505
0.117055
0.119847
0.12389
0.127805
0.130999
0.132874
0.133942
0.134902
0.136163
0.146259
0.202286
0.310012
0.456596
0.558073
0.605717
0.64634
0.661398
0.677776
0.664915
0.671061
0.670609
0.671292
0.672134
0.678913
0.682001
0.681011
0.682254
0.683376
0.684506
0.685547
0.687365
0.689559
0.690529
0.691983
0.692978
0.69486
0.69757
0.701354
0.70752
0.0936551
0.0936758
0.0937016
0.0936975
0.0936702
0.0936574
0.0936625
0.0936846
0.093727
0.0937919
0.0938722
0.0939618
0.0940549
0.0941478
0.0942471
0.0943614
0.0945173
0.0947306
0.0949845
0.095303
0.0956816
0.0960962
0.096548
0.0969915
0.0973798
0.0977462
0.0981187
0.0984755
0.0988317
0.0991809
0.0994955
0.0997779
0.100086
0.100475
0.10084
0.101042
0.101156
0.101239
0.101294
0.101414
0.10161
0.101636
0.101607
0.101605
0.101673
0.101696
0.10168
0.101838
0.102382
0.103661
0.105606
0.107897
0.110204
0.112393
0.11424
0.115637
0.116584
0.117332
0.117512
0.117894
0.119578
0.122863
0.127501
0.132003
0.134806
0.137083
0.138655
0.139597
0.14111
0.144075
0.148162
0.15091
0.153033
0.173877
0.243798
0.368098
0.524867
0.619516
0.66293
0.695738
0.730896
0.725178
0.723656
0.717875
0.722082
0.719281
0.722011
0.728126
0.732001
0.73455
0.735307
0.73616
0.736629
0.738853
0.741613
0.744214
0.74672
0.749121
0.751169
0.756831
0.0950218
0.0950376
0.0950611
0.0950954
0.0951346
0.0951727
0.0952188
0.0952962
0.0954183
0.0955824
0.0957915
0.0960524
0.0963335
0.0966088
0.0968705
0.0971309
0.097493
0.0979827
0.0984408
0.0988533
0.0992464
0.0996354
0.100028
0.10034
0.100545
0.100713
0.100903
0.101129
0.101323
0.101454
0.101511
0.101556
0.101631
0.101757
0.101864
0.101926
0.101923
0.101879
0.101855
0.101901
0.102037
0.102044
0.102129
0.102373
0.102941
0.103892
0.105219
0.10695
0.109162
0.11156
0.11371
0.115591
0.116814
0.117876
0.118784
0.119326
0.120257
0.121411
0.123288
0.12645
0.129834
0.13349
0.136509
0.13859
0.140535
0.142214
0.144015
0.146224
0.14885
0.152135
0.155607
0.158613
0.16131
0.163181
0.164924
0.166455
0.198161
0.296782
0.440793
0.594124
0.687497
0.7187
0.758289
0.7744
0.782058
0.767019
0.773711
0.772402
0.771922
0.775286
0.782333
0.785899
0.786551
0.788243
0.788072
0.788597
0.791245
0.79538
0.798716
0.80483
0.0976461
0.0978656
0.098102
0.0983161
0.0985305
0.0987555
0.0989711
0.0991762
0.0993728
0.0995569
0.0997687
0.10005
0.100329
0.1005
0.100571
0.100642
0.100853
0.101189
0.101362
0.101408
0.101432
0.101488
0.101595
0.101703
0.101778
0.101841
0.10191
0.102062
0.102212
0.102211
0.102148
0.102154
0.102184
0.102207
0.102233
0.102357
0.102443
0.102408
0.102513
0.102937
0.103764
0.104994
0.106569
0.108369
0.110342
0.112332
0.114351
0.116163
0.117795
0.119189
0.120088
0.120832
0.121362
0.122024
0.122846
0.123981
0.125996
0.129201
0.133475
0.137311
0.140271
0.142804
0.143834
0.144623
0.145747
0.147062
0.149261
0.152937
0.15716
0.160823
0.163851
0.166093
0.16735
0.169445
0.172989
0.178057
0.181043
0.183731
0.185664
0.231537
0.341173
0.513254
0.666766
0.748844
0.784576
0.798723
0.836927
0.828117
0.826048
0.820063
0.823284
0.822935
0.827172
0.833918
0.836931
0.837791
0.838833
0.840153
0.841899
0.847912
0.102246
0.102287
0.102334
0.102339
0.102328
0.102324
0.102321
0.102321
0.102309
0.102261
0.10224
0.102252
0.102254
0.102215
0.102126
0.102117
0.102173
0.102216
0.102198
0.102132
0.102044
0.102027
0.102036
0.102046
0.102094
0.102206
0.10232
0.102467
0.102704
0.102789
0.102844
0.103018
0.103388
0.103963
0.104699
0.105673
0.106924
0.108495
0.110277
0.112069
0.113724
0.115331
0.116941
0.118347
0.119582
0.120638
0.121568
0.122424
0.123239
0.124018
0.124666
0.125565
0.12702
0.128951
0.131335
0.134454
0.137619
0.140953
0.143544
0.145542
0.147292
0.148643
0.149787
0.150963
0.152281
0.154733
0.158505
0.16246
0.16625
0.168908
0.170919
0.173023
0.174934
0.177207
0.181305
0.186608
0.189975
0.192621
0.196097
0.198608
0.200413
0.21294
0.273592
0.42215
0.598055
0.738064
0.814882
0.836028
0.864124
0.875787
0.878773
0.865855
0.869683
0.868486
0.869849
0.875061
0.880878
0.883805
0.88314
0.885453
0.102843
0.102868
0.102868
0.102792
0.102695
0.102701
0.102739
0.102795
0.102845
0.102858
0.102798
0.10275
0.102752
0.102769
0.102807
0.102944
0.102917
0.102791
0.102821
0.103044
0.103346
0.103622
0.103938
0.104436
0.105144
0.10591
0.106625
0.107361
0.108239
0.10929
0.110476
0.111732
0.113083
0.114413
0.115717
0.117037
0.118316
0.11957
0.120701
0.121727
0.122763
0.123638
0.124333
0.124955
0.125611
0.12626
0.126977
0.127956
0.129161
0.130776
0.132969
0.135433
0.138466
0.141375
0.144247
0.146551
0.148521
0.150017
0.150815
0.151568
0.152386
0.153703
0.155946
0.15894
0.162518
0.166132
0.169277
0.17214
0.174123
0.175994
0.17801
0.180221
0.183373
0.187337
0.191589
0.195679
0.198614
0.201229
0.204179
0.207863
0.21202
0.216516
0.218637
0.220759
0.245009
0.34242
0.499887
0.682306
0.818915
0.865027
0.897834
0.899633
0.92208
0.913016
0.907243
0.908576
0.909319
0.910728
0.913295
0.918036
0.104338
0.104584
0.104834
0.105085
0.105365
0.105695
0.10606
0.106454
0.106883
0.107333
0.107837
0.108411
0.109012
0.109606
0.110228
0.110911
0.111634
0.112369
0.113125
0.113851
0.114559
0.115277
0.116006
0.116688
0.117374
0.118101
0.118833
0.119563
0.120273
0.121031
0.121789
0.122532
0.123303
0.124063
0.12481
0.125465
0.126139
0.126823
0.127521
0.128242
0.128978
0.12972
0.130655
0.131822
0.133221
0.134968
0.136872
0.139142
0.141444
0.14392
0.146215
0.148496
0.15031
0.151819
0.153147
0.154185
0.155419
0.15624
0.157152
0.158058
0.159706
0.162593
0.166241
0.17013
0.174131
0.177129
0.179376
0.181141
0.182246
0.183734
0.185946
0.189467
0.19426
0.198725
0.201659
0.204431
0.207637
0.210583
0.213502
0.217264
0.221715
0.225645
0.228833
0.233096
0.23492
0.237014
0.239038
0.288177
0.408687
0.605579
0.78217
0.87695
0.928506
0.926572
0.941356
0.948997
0.941945
0.937502
0.935438
0.937482
0.116635
0.116928
0.117231
0.117528
0.117832
0.118158
0.118514
0.118869
0.119224
0.11962
0.12001
0.120366
0.120719
0.121107
0.121514
0.121928
0.122332
0.122727
0.123105
0.123484
0.123888
0.124316
0.124775
0.125265
0.125783
0.126311
0.126862
0.127448
0.128086
0.128773
0.129479
0.130212
0.130959
0.131747
0.132578
0.133533
0.134638
0.135828
0.137182
0.138565
0.140161
0.141835
0.143675
0.145471
0.14729
0.148969
0.150662
0.152145
0.15356
0.15486
0.155952
0.156978
0.157768
0.158624
0.159396
0.160526
0.162016
0.16414
0.166808
0.169969
0.173553
0.176631
0.179619
0.181934
0.183788
0.185722
0.187386
0.188862
0.190941
0.193389
0.196789
0.201513
0.205942
0.209581
0.211723
0.21362
0.216629
0.220672
0.224825
0.228288
0.231384
0.234429
0.237722
0.240635
0.243657
0.246699
0.249698
0.251744
0.253183
0.267531
0.339162
0.514372
0.71614
0.843367
0.93459
0.944607
0.949623
0.959411
0.959625
0.956496
0.126418
0.126658
0.126922
0.127185
0.127446
0.127725
0.128028
0.128354
0.128694
0.129041
0.129404
0.129787
0.130196
0.130647
0.131134
0.131635
0.132145
0.132682
0.133249
0.13385
0.134473
0.135129
0.135794
0.136483
0.137188
0.137928
0.138694
0.139533
0.140392
0.141313
0.142258
0.143303
0.144411
0.145569
0.146748
0.14795
0.14912
0.150312
0.151418
0.152552
0.153666
0.154778
0.155839
0.156835
0.157831
0.15873
0.159643
0.160478
0.161393
0.162193
0.163258
0.164463
0.165978
0.167728
0.169858
0.172404
0.175233
0.178352
0.181331
0.184233
0.186807
0.1888
0.190394
0.191483
0.192378
0.193927
0.196189
0.199605
0.203348
0.207248
0.21152
0.214649
0.217038
0.219567
0.222127
0.224845
0.228093
0.23151
0.23479
0.237614
0.240274
0.242856
0.245722
0.24824
0.250978
0.253642
0.25589
0.257709
0.259988
0.260963
0.262024
0.262792
0.292522
0.426427
0.629073
0.790223
0.909559
0.952205
0.9598
0.9637
0.139708
0.139986
0.140299
0.14063
0.140985
0.141338
0.141678
0.142061
0.142499
0.142911
0.143303
0.143729
0.144194
0.144665
0.145136
0.145609
0.146093
0.146592
0.14712
0.147664
0.148226
0.148788
0.149372
0.149977
0.150614
0.151286
0.151995
0.15272
0.153473
0.154237
0.155014
0.155783
0.15652
0.157237
0.157939
0.158638
0.159341
0.160093
0.160886
0.161748
0.162619
0.163551
0.164478
0.16551
0.166595
0.167819
0.16915
0.17065
0.172353
0.174355
0.176593
0.178958
0.181425
0.183962
0.186354
0.188519
0.19042
0.192014
0.193486
0.194857
0.196208
0.197828
0.19932
0.2013
0.203887
0.206759
0.210468
0.214312
0.217952
0.22118
0.223875
0.225556
0.22741
0.229601
0.232798
0.23629
0.239042
0.241574
0.244222
0.246957
0.249514
0.251854
0.253626
0.255553
0.25747
0.259159
0.260577
0.261908
0.263237
0.264494
0.265349
0.265963
0.266149
0.266215
0.272207
0.357649
0.530093
0.72858
0.878354
0.955466
0.152847
0.153085
0.153315
0.153546
0.15379
0.154072
0.154388
0.154707
0.155008
0.155329
0.155688
0.156072
0.156457
0.156858
0.157285
0.15773
0.158196
0.158682
0.15919
0.159725
0.160281
0.160847
0.161423
0.162016
0.162624
0.163234
0.163867
0.164508
0.165164
0.165835
0.166539
0.167287
0.168104
0.168989
0.169956
0.17099
0.172093
0.173246
0.174435
0.175666
0.17697
0.178339
0.179768
0.181324
0.182929
0.184564
0.186175
0.187839
0.189478
0.191073
0.192619
0.194147
0.195731
0.197083
0.198421
0.199632
0.201022
0.202361
0.203891
0.205546
0.207555
0.210134
0.213225
0.216891
0.220585
0.224019
0.226878
0.228937
0.230757
0.232601
0.234139
0.236359
0.238967
0.241758
0.244472
0.246968
0.249404
0.251548
0.253287
0.254792
0.25633
0.257816
0.259159
0.260464
0.26178
0.2629
0.263769
0.26462
0.265469
0.266249
0.26696
0.267254
0.267455
0.26763
0.267592
0.267787
0.26813
0.316933
0.444509
0.733333
0.167756
0.168036
0.168333
0.168637
0.168953
0.169258
0.169606
0.170033
0.170423
0.170755
0.171118
0.171539
0.171983
0.172426
0.17287
0.173317
0.173769
0.174241
0.17474
0.175254
0.175779
0.176326
0.176907
0.177528
0.17819
0.178892
0.179633
0.180402
0.181221
0.182073
0.182966
0.183871
0.184786
0.185693
0.186623
0.187567
0.188519
0.189505
0.190532
0.191581
0.192677
0.193825
0.195028
0.196247
0.197409
0.198522
0.19962
0.200789
0.201965
0.203217
0.204485
0.205881
0.207289
0.208792
0.210515
0.212449
0.21474
0.217365
0.220361
0.2234
0.226339
0.22886
0.231267
0.23336
0.235335
0.237158
0.238651
0.239908
0.241192
0.24283
0.24505
0.247578
0.250108
0.252466
0.254156
0.255614
0.256984
0.258079
0.259196
0.26043
0.261739
0.26281
0.263581
0.264172
0.264714
0.265388
0.266031
0.266594
0.267048
0.267294
0.267804
0.26807
0.268181
0.268483
0.268562
0.268342
0.268522
0.269199
0.269836
0.347912
0.184259
0.184456
0.184698
0.184993
0.185328
0.185645