/*--------------------------------*- C++ -*----------------------------------*\
  =========                 |
  \\      /  F ield         | OpenFOAM: The Open Source CFD Toolbox
   \\    /   O peration     | Website:  https://openfoam.org
    \\  /    A nd           | Version:  7
     \\/     M anipulation  |
\*---------------------------------------------------------------------------*/
FoamFile
{
    version     2.0;
    format      ascii;
    class       volScalarField;
    location    "6";
    object      p;
}
// * * * * * * * * * * * * * * * * * * * * * * * * * * * * * * * * * * * * * //

dimensions      [1 -1 -2 0 0 0 0];

internalField   nonuniform List<scalar> 
324000
(
0.272897
0.441403
0.693139
0.88534
0.976852
0.946953
0.94395
0.944653
0.924508
0.898255
0.905555
0.933849
0.958417
0.954119
0.939075
0.928894
0.927505
0.934704
0.940201
0.938083
0.933449
0.932736
0.936205
0.940156
0.939583
0.938231
0.938771
0.941611
0.94289
0.940936
0.939677
0.941215
0.943863
0.942397
0.938849
0.937242
0.938534
0.939766
0.938422
0.93705
0.9375
0.940162
0.940745
0.938139
0.933554
0.928814
0.92519
0.922764
0.921667
0.922685
0.92616
0.929437
0.929467
0.927074
0.92419
0.921836
0.919539
0.916887
0.915069
0.91428
0.914053
0.913814
0.91418
0.914619
0.913956
0.912093
0.910447
0.909308
0.907866
0.906016
0.905097
0.905065
0.906377
0.911538
0.914761
0.916023
0.914865
0.914906
0.916055
0.920379
0.0929682
0.0945679
0.146943
0.373468
0.665544
0.840549
0.952053
0.931557
0.926045
0.925296
0.944851
0.962753
0.946658
0.935511
0.932181
0.937345
0.94135
0.942062
0.938063
0.935869
0.936471
0.938769
0.940519
0.939232
0.938095
0.938837
0.940973
0.942354
0.94245
0.941143
0.94012
0.940052
0.941158
0.941785
0.941214
0.939627
0.938434
0.937458
0.935999
0.934616
0.934035
0.933612
0.934142
0.933828
0.933143
0.9322
0.930865
0.929362
0.927833
0.925657
0.923725
0.923625
0.925511
0.927554
0.927802
0.926595
0.924444
0.921297
0.917159
0.913445
0.911528
0.910653
0.910448
0.910428
0.911007
0.911914
0.912159
0.911433
0.910083
0.908627
0.908122
0.906427
0.906771
0.909522
0.913808
0.917142
0.916544
0.917486
0.91702
0.919278
0.0930272
0.0931299
0.0931891
0.093076
0.13499
0.295778
0.53991
0.745319
0.923264
0.975275
0.999119
0.97049
0.913042
0.904345
0.922775
0.940779
0.951003
0.941282
0.930617
0.927094
0.930361
0.938018
0.941916
0.940535
0.937213
0.938971
0.942611
0.943444
0.941115
0.939805
0.940822
0.942196
0.941473
0.940264
0.939802
0.940148
0.939294
0.938257
0.937715
0.93753
0.936901
0.935451
0.933482
0.93062
0.927926
0.92666
0.927215
0.929301
0.932104
0.932346
0.929225
0.925806
0.923172
0.921301
0.920019
0.919576
0.920232
0.921377
0.920397
0.917164
0.914977
0.913659
0.912377
0.910332
0.908232
0.907178
0.908041
0.909995
0.911489
0.911428
0.911139
0.910021
0.910428
0.910256
0.91179
0.915867
0.918196
0.919815
0.92005
0.920352
0.0928887
0.0930883
0.0932841
0.0933514
0.0932911
0.0930835
0.107938
0.220914
0.438443
0.67266
0.864376
0.882973
0.911042
0.929839
0.940116
0.946395
0.941521
0.934746
0.934407
0.938064
0.939368
0.936133
0.934698
0.93797
0.941636
0.942281
0.941665
0.941631
0.941808
0.941719
0.941394
0.940751
0.940843
0.940645
0.940148
0.939447
0.939109
0.937764
0.936597
0.936617
0.937155
0.9364
0.934649
0.932177
0.929108
0.927267
0.926821
0.927239
0.927382
0.927698
0.928509
0.928311
0.926499
0.923699
0.921104
0.919168
0.917593
0.916793
0.916789
0.917665
0.918534
0.918815
0.917846
0.915159
0.911665
0.908583
0.906472
0.905569
0.906056
0.907701
0.911142
0.913523
0.915191
0.914521
0.913808
0.914611
0.916059
0.920434
0.923018
0.923719
0.0927946
0.0930072
0.0931635
0.0932437
0.0933328
0.0932744
0.093103
0.0929179
0.0949983
0.169459
0.347405
0.603955
0.860294
0.93162
0.951056
0.944642
0.922023
0.921589
0.930532
0.94018
0.943539
0.938245
0.932292
0.933555
0.941172
0.945361
0.941554
0.938398
0.938242
0.940948
0.941879
0.939971
0.937439
0.938046
0.940708
0.941282
0.940131
0.939543
0.938504
0.937375
0.936495
0.935024
0.932501
0.929709
0.928605
0.928299
0.929367
0.930603
0.930419
0.928666
0.926896
0.926214
0.926041
0.92563
0.924564
0.923423
0.921807
0.919298
0.916317
0.914533
0.914044
0.914139
0.91431
0.914323
0.913896
0.912757
0.910896
0.908775
0.907264
0.90669
0.907634
0.909013
0.913414
0.917023
0.918824
0.918531
0.917264
0.918193
0.920325
0.925019
0.0927629
0.0929009
0.0930389
0.093166
0.093236
0.0932009
0.0930884
0.0930179
0.0929773
0.0929726
0.092898
0.14179
0.312091
0.564041
0.806259
0.855308
0.905274
0.922766
0.943136
0.947387
0.942304
0.935191
0.934638
0.937826
0.941459
0.942631
0.940898
0.940536
0.941929
0.942219
0.941089
0.940171
0.939926
0.940285
0.939493
0.938427
0.936771
0.93627
0.937958
0.938701
0.937935
0.936173
0.934503
0.932465
0.930728
0.930327
0.930555
0.930917
0.931028
0.930865
0.929305
0.926811
0.92434
0.922278
0.921178
0.920311
0.91968
0.91918
0.917942
0.916565
0.915691
0.9147
0.913021
0.911358
0.910429
0.910228
0.91063
0.911213
0.911501
0.911542
0.911796
0.911149
0.911922
0.913543
0.917983
0.921607
0.922405
0.922353
0.921299
0.922697
0.0927576
0.0928398
0.0929734
0.0930534
0.0931018
0.0931293
0.0930434
0.0929825
0.0929889
0.0929528
0.0929436
0.0930757
0.0931028
0.131712
0.280439
0.537884
0.805587
0.893467
0.93852
0.938618
0.927627
0.930896
0.939409
0.945985
0.943089
0.938414
0.938357
0.940529
0.943456
0.942774
0.939682
0.938865
0.939912
0.941539
0.940137
0.938741
0.938806
0.938434
0.937257
0.936591
0.935228
0.931474
0.92879
0.92896
0.929362
0.930338
0.931563
0.930621
0.927567
0.925402
0.925815
0.927103
0.926286
0.924423
0.922554
0.920877
0.919062
0.917492
0.916961
0.916805
0.916886
0.91666
0.915431
0.913667
0.911963
0.910598
0.909784
0.909655
0.910286
0.911824
0.913861
0.915045
0.91579
0.915646
0.91709
0.919172
0.922064
0.925072
0.925163
0.924796
0.0927951
0.0928631
0.0929407
0.0929609
0.0929679
0.0930246
0.0930008
0.0929543
0.092933
0.0928812
0.0929246
0.0931315
0.0931731
0.0930945
0.0929616
0.123163
0.262168
0.517489
0.784948
0.854539
0.909878
0.930473
0.953062
0.950013
0.938661
0.932901
0.93739
0.944501
0.94488
0.941449
0.937849
0.938644
0.942201
0.942049
0.940153
0.939261
0.939849
0.939998
0.938518
0.936406
0.935005
0.933688
0.931674
0.930415
0.931398
0.929876
0.929682
0.931054
0.930453
0.92798
0.926029
0.926051
0.926934
0.926641
0.925791
0.92485
0.923545
0.920957
0.917599
0.915324
0.91407
0.913352
0.912856
0.912298
0.911409
0.910514
0.90993
0.909795
0.909763
0.910753
0.91222
0.914145
0.916631
0.918568
0.920219
0.920513
0.921683
0.924007
0.925691
0.926892
0.0928743
0.0929313
0.0929536
0.092925
0.0928804
0.092915
0.092952
0.0929245
0.0928763
0.0928365
0.0929332
0.093153
0.093171
0.0930959
0.0929734
0.0929336
0.0929429
0.119722
0.254116
0.519784
0.805076
0.898319
0.943011
0.943111
0.934044
0.936873
0.94341
0.945668
0.94132
0.936154
0.937342
0.942393
0.943265
0.940547
0.938101
0.939642
0.941695
0.940769
0.938622
0.936982
0.93593
0.934708
0.933591
0.933093
0.93251
0.932916
0.932115
0.931069
0.930906
0.930732
0.929449
0.925962
0.921536
0.91935
0.918945
0.918659
0.918575
0.918832
0.918629
0.918138
0.917658
0.915934
0.913047
0.910599
0.909515
0.909962
0.910995
0.911828
0.912639
0.914164
0.915183
0.916461
0.917521
0.91915
0.921274
0.922002
0.923442
0.924915
0.925571
0.92636
0.0929745
0.0930029
0.0930074
0.092953
0.092877
0.0928506
0.0928924
0.092894
0.0928307
0.0928002
0.0929208
0.0931505
0.0931637
0.0930825
0.0929589
0.0929403
0.0929543
0.0929857
0.0929909
0.120514
0.263258
0.526171
0.811537
0.867808
0.91724
0.941421
0.948562
0.9445
0.933832
0.934979
0.94294
0.947004
0.941985
0.936459
0.938563
0.942596
0.941894
0.939399
0.937216
0.936617
0.935583
0.935152
0.935637
0.935415
0.933852
0.932901
0.931844
0.930208
0.928491
0.928208
0.928291
0.927531
0.925146
0.922403
0.920311
0.917972
0.915443
0.914072
0.915781
0.918448
0.918947
0.918827
0.917674
0.91631
0.915401
0.914575
0.913917
0.913928
0.914408
0.915496
0.915759
0.916736
0.91776
0.918746
0.920176
0.921445
0.923976
0.926225
0.927984
0.927726
0.0930484
0.0930693
0.0930617
0.0930066
0.0929306
0.092861
0.0928377
0.092849
0.0928018
0.0927791
0.092903
0.09313
0.093137
0.093076
0.0929601
0.0929349
0.0929489
0.0929976
0.0930169
0.092995
0.0929792
0.124374
0.28143
0.569046
0.849722
0.919002
0.942228
0.939196
0.930017
0.939408
0.948293
0.944429
0.936219
0.936377
0.941877
0.942954
0.93996
0.937998
0.9385
0.93794
0.936492
0.935976
0.936119
0.935134
0.933171
0.932054
0.931184
0.92975
0.928193
0.927088
0.926533
0.926471
0.926373
0.925444
0.924422
0.923089
0.921198
0.919472
0.916746
0.914598
0.913204
0.912319
0.912443
0.912992
0.91226
0.91073
0.909512
0.909297
0.90956
0.911262
0.913129
0.916189
0.918644
0.920318
0.920557
0.919567
0.921387
0.924339
0.927061
0.928775
0.0930833
0.0931226
0.0931013
0.0930502
0.0929799
0.092874
0.0928125
0.0928055
0.0927847
0.092778
0.0928989
0.0930988
0.0931067
0.0930594
0.092963
0.0929315
0.0929477
0.093
0.0930241
0.0930128
0.0930027
0.0930284
0.0930404
0.139481
0.329903
0.615447
0.854566
0.899029
0.921661
0.95403
0.954709
0.942396
0.933954
0.940322
0.945903
0.943087
0.937902
0.938269
0.938908
0.937431
0.936142
0.935826
0.935518
0.934147
0.932963
0.931935
0.930927
0.929486
0.928061
0.92713
0.926583
0.926112
0.925652
0.925084
0.925014
0.924369
0.922926
0.921275
0.91908
0.916825
0.915673
0.914215
0.912139
0.910527
0.909479
0.908927
0.909316
0.910508
0.911741
0.914882
0.917973
0.921768
0.923594
0.924891
0.925273
0.924124
0.92469
0.924986
0.925447
0.926291
0.0931105
0.0931366
0.093113
0.0930734
0.0930081
0.0928691
0.0927884
0.0927784
0.0927764
0.0927865
0.0929124
0.093084
0.0930915
0.0930425
0.0929463
0.0929208
0.0929401
0.0929964
0.093027
0.0930187
0.0930083
0.0930319
0.0930575
0.0930559
0.0930409
0.161225
0.394392
0.717811
0.89537
0.95416
0.948554
0.923795
0.933205
0.949364
0.946311
0.937268
0.936377
0.940557
0.939987
0.93744
0.935733
0.935614
0.934543
0.932921
0.932486
0.931727
0.930479
0.929055
0.927888
0.927375
0.926546
0.925688
0.924919
0.924613
0.923848
0.92287
0.921325
0.91986
0.918974
0.918257
0.917694
0.916524
0.914664
0.913495
0.913029
0.913306
0.914451
0.915189
0.916373
0.91841
0.92056
0.922565
0.922451
0.922099
0.921806
0.923064
0.925932
0.928163
0.929851
0.929578
0.0931488
0.0931289
0.093102
0.0930718
0.0930066
0.0928546
0.0927772
0.0927688
0.0927801
0.092804
0.0929314
0.0930738
0.0930797
0.0930352
0.0929366
0.0929028
0.0929215
0.0929832
0.0930211
0.0930164
0.0930055
0.0930268
0.0930621
0.0930643
0.0930514
0.0930324
0.0933303
0.201526
0.482774
0.799405
0.873457
0.913368
0.954744
0.95854
0.943559
0.932558
0.938008
0.943095
0.939443
0.936274
0.936601
0.935804
0.934074
0.932448
0.93244
0.931701
0.930057
0.929304
0.929087
0.928749
0.927251
0.925381
0.923939
0.92348
0.92315
0.922125
0.920702
0.919277
0.918911
0.91877
0.918713
0.917964
0.916604
0.915915
0.915792
0.915995
0.916027
0.915843
0.916473
0.91723
0.918742
0.920402
0.921683
0.922376
0.920992
0.919866
0.921506
0.92497
0.929473
0.93179
0.0931785
0.0931332
0.0930945
0.0930636
0.09299
0.0928468
0.0927839
0.0927756
0.0927848
0.0928205
0.0929461
0.093066
0.0930712
0.0930343
0.0929351
0.0928913
0.0929068
0.0929639
0.0930099
0.0930053
0.0929951
0.0930153
0.0930592
0.0930813
0.0930872
0.0930671
0.0930429
0.0930119
0.111136
0.270642
0.607627
0.872768
0.960099
0.951219
0.919076
0.931054
0.948122
0.94468
0.935372
0.935585
0.938321
0.936325
0.932454
0.932476
0.933191
0.932395
0.93067
0.92942
0.929831
0.929614
0.928387
0.925909
0.9238
0.922988
0.922285
0.921109
0.919747
0.918491
0.918294
0.918697
0.918819
0.918022
0.917156
0.916754
0.916726
0.916164
0.914482
0.913716
0.91421
0.915579
0.918106
0.921387
0.923714
0.924874
0.923791
0.922419
0.923114
0.924201
0.926505
0.929523
0.0931867
0.0931437
0.0931153
0.0930786
0.0929737
0.0928393
0.0927905
0.0927892
0.0927983
0.0928402
0.0929619
0.0930581
0.0930617
0.0930311
0.092934
0.0928777
0.092894
0.0929514
0.093003
0.092993
0.0929784
0.0929971
0.0930524
0.093086
0.0930987
0.0930939
0.0930691
0.0930493
0.0930221
0.0930134
0.149295
0.395718
0.749123
0.855977
0.90624
0.953408
0.957277
0.938504
0.932869
0.939292
0.93978
0.934337
0.931945
0.93368
0.933593
0.932174
0.930395
0.929459
0.929564
0.928911
0.927528
0.926037
0.924479
0.923754
0.922855
0.92156
0.920185
0.918915
0.918317
0.917986
0.917445
0.916577
0.916221
0.916116
0.916204
0.915139
0.914615
0.91456
0.915561
0.91734
0.92001
0.92308
0.925334
0.926802
0.92616
0.924869
0.925317
0.925946
0.927484
0.928996
0.093178
0.0931488
0.0931323
0.0930931
0.0929739
0.0928329
0.0927968
0.0928057
0.0928346
0.0928765
0.0929763
0.0930433
0.0930413
0.0930053
0.0929139
0.0928585
0.0928801
0.0929507
0.0930067
0.0929855
0.0929549
0.0929686
0.0930355
0.0930827
0.0930998
0.093102
0.0930816
0.0930652
0.093046
0.0930448
0.0930583
0.0949528
0.216991
0.558133
0.855199
0.957606
0.948914
0.921555
0.935448
0.945763
0.938645
0.93154
0.932276
0.935558
0.9338
0.930855
0.929953
0.930419
0.929725
0.928386
0.926568
0.925246
0.924837
0.925288
0.924625
0.923385
0.922256
0.920925
0.919052
0.917489
0.916441
0.915516
0.915122
0.914932
0.914559
0.914367
0.915106
0.915757
0.917228
0.919166
0.922222
0.924573
0.926127
0.927563
0.927656
0.927317
0.927782
0.927893
0.92866
0.929884
0.0931507
0.0931352
0.0931091
0.093049
0.0929211
0.0928191
0.0928018
0.0928338
0.0928919
0.0929215
0.0929836
0.0930308
0.0930275
0.0929825
0.09288
0.0928308
0.0928653
0.0929579
0.0930171
0.0929801
0.0929256
0.0929324
0.0929986
0.0930684
0.0930931
0.0931044
0.0930909
0.0930775
0.0930675
0.0930678
0.0930903
0.0931186
0.0930987
0.130936
0.36643
0.73656
0.851655
0.909658
0.956552
0.951948
0.93216
0.930472
0.93761
0.937008
0.931355
0.929749
0.931209
0.931369
0.93017
0.92785
0.92572
0.92473
0.924902
0.925426
0.924801
0.92368
0.922564
0.921715
0.920243
0.918349
0.916825
0.915528
0.914744
0.914338
0.914206
0.914902
0.916878
0.917976
0.92004
0.92158
0.923731
0.924678
0.925916
0.927421
0.927904
0.928266
0.928725
0.928995
0.930151
0.930892
0.0931778
0.0931738
0.0931243
0.0930004
0.0928358
0.092779
0.0927891
0.0928699
0.0929496
0.0929663
0.092986
0.0930263
0.0930216
0.0929635
0.092841
0.0928033
0.0928559
0.0929742
0.0930321
0.0929765
0.092898
0.0928982
0.0929619
0.0930473
0.093084
0.0931034
0.093094
0.0930857
0.0930892
0.0930941
0.0931189
0.0931497
0.0931446
0.0930798
0.0929668
0.209053
0.558677
0.859107
0.952795
0.944814
0.924137
0.936272
0.942308
0.934764
0.928285
0.929738
0.932987
0.932026
0.930232
0.927826
0.92568
0.924635
0.925499
0.925287
0.924249
0.923239
0.922311
0.92166
0.920603
0.919298
0.917922
0.916647
0.915613
0.914831
0.915251
0.91699
0.919039
0.920161
0.921634
0.922185
0.92362
0.924038
0.924961
0.926278
0.927022
0.927885
0.928673
0.929241
0.930601
0.931505
0.0932311
0.0932268
0.0931451
0.0929252
0.092746
0.0927177
0.0927418
0.09289
0.0929868
0.093003
0.0930299
0.0930611
0.0930473
0.092953
0.0928025
0.0927786
0.0928534
0.0930044
0.0930531
0.0929757
0.0928683
0.0928656
0.0929276
0.0930236
0.0930684
0.0930918
0.093092
0.0930859
0.0930966
0.0931147
0.093147
0.0931786
0.0931727
0.0931107
0.0930053
0.0929422
0.132008
0.378176
0.7505
0.8587
0.919245
0.953447
0.946041
0.9258
0.927046
0.933937
0.934438
0.932356
0.929959
0.927935
0.925958
0.925686
0.926332
0.925109
0.923401
0.922441
0.921832
0.921509
0.920705
0.919467
0.918241
0.917098
0.916238
0.915633
0.916514
0.918528
0.919873
0.920418
0.921311
0.921366
0.922927
0.923835
0.924998
0.926552
0.927585
0.928683
0.929475
0.929773
0.930349
0.93137
0.093266
0.0932617
0.0931286
0.0928361
0.0926759
0.0926587
0.0926855
0.0928509
0.0930079
0.0930436
0.0930767
0.0931
0.0930759
0.0929497
0.0927705
0.0927564
0.0928588
0.0930491
0.0930807
0.0929744
0.0928365
0.0928356
0.0928981
0.093002
0.0930507
0.0930685
0.0930778
0.0930854
0.0930951
0.0931241
0.0931665
0.0932018
0.0931975
0.0931391
0.0930251
0.092956
0.092957
0.0929861
0.223967
0.591027
0.879895
0.949705
0.941025
0.919006
0.932622
0.936604
0.933899
0.931268
0.929478
0.927921
0.927263
0.928225
0.927113
0.924672
0.92299
0.922169
0.921875
0.92153
0.920735
0.919609
0.918428
0.917274
0.916539
0.916145
0.917423
0.919312
0.919859
0.920155
0.920777
0.921165
0.922955
0.924554
0.925971
0.928067
0.928984
0.929859
0.930346
0.930427
0.930817
0.931047
0.0932922
0.0932794
0.093092
0.0927437
0.0926199
0.0926045
0.0926267
0.0927657
0.092992
0.0930966
0.0931407
0.0931465
0.0931073
0.0929412
0.0927421
0.0927366
0.0928762
0.0930997
0.0931117
0.0929725
0.09281
0.0928094
0.0928734
0.0929836
0.093036
0.0930479
0.093053
0.0930694
0.0930913
0.0931283
0.0931794
0.0932212
0.0932192
0.0931638
0.093046
0.0929624
0.0929582
0.0929984
0.0930709
0.145841
0.42403
0.782866
0.87998
0.918162
0.947257
0.93735
0.931476
0.930364
0.929197
0.927898
0.929345
0.929792
0.927293
0.924125
0.922672
0.92216
0.922192
0.921522
0.920698
0.919511
0.918274
0.917245
0.916811
0.917626
0.919
0.919996
0.920113
0.920566
0.921192
0.922346
0.924411
0.925947
0.927014
0.928595
0.929603
0.931127
0.931663
0.931978
0.931888
0.931311
0.0933265
0.0932974
0.0930725
0.0926618
0.0925543
0.0925376
0.0925518
0.0926821
0.0929506
0.0931402
0.09319
0.0931905
0.0931437
0.0929359
0.0927186
0.0927191
0.0929042
0.0931463
0.0931429
0.0929841
0.0928015
0.0927956
0.0928535
0.0929664
0.0930235
0.0930331
0.0930363
0.0930476
0.0930771
0.0931276
0.0931871
0.0932359
0.0932375
0.0931817
0.0930583
0.0929661
0.0929572
0.0929809
0.0930836
0.0931504
0.0990146
0.274399
0.673825
0.897115
0.950024
0.933628
0.930303
0.931167
0.928987
0.927832
0.93133
0.930587
0.927414
0.924236
0.923135
0.922848
0.922598
0.921641
0.920385
0.919435
0.918697
0.918349
0.919019
0.919975
0.920541
0.921073
0.920828
0.921377
0.922283
0.924437
0.926669
0.92743
0.927819
0.928621
0.929498
0.930927
0.932071
0.933324
0.933359
0.932205
0.0933912
0.0933389
0.0930968
0.0926707
0.0924629
0.0924312
0.0924619
0.0926193
0.0929112
0.0931486
0.0932302
0.093232
0.093184
0.0929495
0.0927039
0.0927056
0.0929308
0.093178
0.093166
0.0929884
0.0927948
0.0927868
0.0928392
0.0929512
0.0930113
0.0930224
0.0930235
0.0930305
0.0930552
0.093117
0.0931888
0.0932463
0.0932508
0.0931947
0.0930631
0.0929698
0.0929602
0.0929784
0.0930578
0.0931587
0.0931669
0.0931587
0.181807
0.515254
0.850344
0.889595
0.935925
0.934359
0.925732
0.929254
0.932527
0.929153
0.925751
0.925344
0.924483
0.923503
0.922771
0.921628
0.920128
0.919345
0.919017
0.91951
0.921319
0.92252
0.922219
0.922
0.921343
0.921882
0.923646
0.927027
0.929175
0.929109
0.928944
0.929196
0.92938
0.930525
0.931892
0.93401
0.934342
0.933038
0.0934654
0.0934129
0.0931712
0.0927228
0.0924049
0.0923595
0.0923967
0.0925612
0.0928657
0.0931399
0.0932685
0.0932786
0.093231
0.0929824
0.0927007
0.0926994
0.0929405
0.0931883
0.0931733
0.0929961
0.0927974
0.0927817
0.0928209
0.0929351
0.0929995
0.0930132
0.0930129
0.0930172
0.0930378
0.0931012
0.0931852
0.0932515
0.0932581
0.0932024
0.0930645
0.0929733
0.092966
0.0929805
0.093049
0.0931474
0.0931629
0.0931619
0.0931402
0.122575
0.378112
0.75467
0.934113
0.925388
0.921127
0.934389
0.933197
0.925992
0.92514
0.927137
0.925433
0.923922
0.923118
0.921769
0.920019
0.919369
0.919392
0.920888
0.923308
0.923731
0.922745
0.922339
0.921509
0.922456
0.925409
0.929505
0.93092
0.930236
0.930057
0.930016
0.929529
0.930458
0.931901
0.934035
0.934746
0.933494
0.0935113
0.0934651
0.0932395
0.0927608
0.0923894
0.0923317
0.092361
0.092508
0.0928055
0.0931044
0.093286
0.0933309
0.0932868
0.0930259
0.0927077
0.0927012
0.0929439
0.0931769
0.0931597
0.0929968
0.0928028
0.0927827
0.0928045
0.0928999
0.0929798
0.0930024
0.0930037
0.0930042
0.0930228
0.0930884
0.0931811
0.093253
0.09326
0.0932063
0.0930648
0.0929758
0.0929699
0.0929858
0.0930476
0.0931355
0.0931756
0.0931744
0.093174
0.0931577
0.093118
0.255213
0.672451
0.830665
0.915543
0.945947
0.932331
0.923586
0.928404
0.928278
0.925629
0.924718
0.923904
0.922316
0.920388
0.919552
0.920003
0.922341
0.924816
0.924487
0.923095
0.922447
0.922252
0.924123
0.927446
0.931445
0.93259
0.931636
0.931338
0.930825
0.929797
0.930583
0.932224
0.934264
0.93514
0.933925
0.0935134
0.0934831
0.093288
0.0928204
0.0923999
0.0923215
0.0923427
0.0924657
0.0927449
0.0930507
0.0932791
0.0933728
0.093339
0.0930823
0.0927262
0.0927067
0.092933
0.0931576
0.0931467
0.0930053
0.0928123
0.0927721
0.0927786
0.0928322
0.0929244
0.0929783
0.0929887
0.092989
0.0930067
0.0930766
0.0931784
0.0932524
0.093259
0.0932081
0.093067
0.0929776
0.0929746
0.0929982
0.093059
0.093115
0.0931762
0.093204
0.0932062
0.0932045
0.0931878
0.0931212
0.174413
0.541691
0.856807
0.938225
0.916705
0.924401
0.93187
0.926858
0.92419
0.925842
0.924748
0.922513
0.920634
0.920477
0.92202
0.924537
0.925071
0.924483
0.923625
0.923385
0.923596
0.92579
0.929262
0.932605
0.933256
0.932245
0.932092
0.931568
0.930324
0.930788
0.932456
0.93446
0.935353
0.934347
0.0934858
0.0934665
0.0932987
0.0928675
0.092436
0.0923187
0.0923297
0.0924295
0.0926884
0.0929998
0.0932523
0.0933928
0.093374
0.093138
0.0927581
0.0927186
0.092897
0.0931404
0.0931455
0.0930512
0.0928592
0.0927738
0.0927656
0.0927843
0.0928491
0.092928
0.0929605
0.0929671
0.0929875
0.0930636
0.0931739
0.0932502
0.0932562
0.0932053
0.0930673
0.0929796
0.0929807
0.0930128
0.0930693
0.0931057
0.0931613
0.0932343
0.0932435
0.0932432
0.0932222
0.0931641
0.0931374
0.128298
0.398084
0.793771
0.8748
0.937358
0.93555
0.921027
0.924024
0.927331
0.924678
0.921533
0.920704
0.922177
0.924941
0.925626
0.924798
0.924124
0.924509
0.925127
0.925616
0.927685
0.930515
0.932901
0.933557
0.932598
0.932648
0.93244
0.931403
0.931694
0.93284
0.93444
0.935375
0.934738
0.0934747
0.0934479
0.0932871
0.0928893
0.09247
0.0923162
0.0923175
0.0923929
0.0926278
0.0929506
0.0932279
0.0933978
0.0933903
0.0931878
0.0928059
0.0927449
0.0928615
0.0931348
0.0931834
0.0931409
0.092978
0.0928179
0.0927766
0.0927755
0.0928074
0.0928817
0.0929262
0.0929381
0.0929636
0.0930467
0.0931668
0.0932454
0.0932453
0.0931925
0.0930648
0.0929896
0.0929922
0.0930267
0.0930762
0.0930978
0.0931391
0.093247
0.0932765
0.0932779
0.0932498
0.0931776
0.0931689
0.0931801
0.0959346
0.286959
0.699338
0.924591
0.921704
0.918416
0.932539
0.927787
0.920933
0.919607
0.920644
0.923892
0.926525
0.925689
0.924734
0.924618
0.926333
0.927185
0.927308
0.929205
0.930962
0.932672
0.933482
0.932894
0.93331
0.933389
0.932691
0.933268
0.93397
0.934433
0.935007
0.934791
0.0934909
0.0934568
0.0932825
0.092899
0.0924883
0.0923061
0.0923008
0.0923584
0.092566
0.0928939
0.0931946
0.0933921
0.093395
0.0932317
0.0928744
0.0927824
0.0928479
0.0930936
0.093202
0.0931813
0.093062
0.092886
0.0928131
0.0927987
0.0928013
0.0928483
0.0928888
0.0929059
0.0929385
0.0930261
0.0931485
0.0932191
0.0932186
0.0931741
0.0930685
0.0930072
0.0930132
0.0930469
0.0930841
0.0930844
0.0931058
0.0932335
0.0932906
0.093295
0.0932583
0.0931851
0.0931735
0.0931909
0.0932642
0.0933064
0.214259
0.619964
0.817505
0.915961
0.942678
0.926316
0.917149
0.918289
0.921471
0.92661
0.927136
0.925817
0.924541
0.925324
0.928279
0.928579
0.928309
0.93024
0.93157
0.932565
0.933191
0.933091
0.933985
0.934533
0.934338
0.935091
0.935015
0.934562
0.934608
0.934706
0.093559
0.0935052
0.0932921
0.0929046
0.0925131
0.092294
0.0922756
0.0923251
0.0925071
0.0928263
0.0931444
0.0933754
0.0933991
0.0932699
0.0929548
0.0928216
0.092859
0.0930389
0.0931872
0.0931864
0.093102
0.0929375
0.0928538
0.0928301
0.0928252
0.092837
0.092854
0.0928732
0.0929138
0.0930032
0.0931056
0.0931686
0.0931781
0.09315
0.0930775
0.093034
0.0930474
0.0930792
0.0930911
0.093069
0.0930794
0.0931824
0.0932506
0.0932546
0.0932227
0.0931629
0.093156
0.0931606
0.0931876
0.0933219
0.0933142
0.149743
0.513007
0.850525
0.930527
0.903484
0.918115
0.920756
0.923511
0.928046
0.926522
0.924306
0.924395
0.926722
0.928969
0.928639
0.928633
0.931234
0.933019
0.933402
0.933829
0.933866
0.934969
0.935563
0.936021
0.936464
0.93563
0.934655
0.934378
0.934898
0.0936279
0.0935625
0.0933238
0.0929246
0.0925651
0.0923327
0.0922772
0.0923145
0.0924582
0.0927391
0.0930631
0.093334
0.0933982
0.0933032
0.0930349
0.0928532
0.0928689
0.0930018
0.0931648
0.0931875
0.0931359
0.0929862
0.0928927
0.0928648
0.0928552
0.0928427
0.0928339
0.092848
0.09289
0.0929738
0.0930545
0.093109
0.0931348
0.0931212
0.093077
0.0930668
0.0930965
0.0931145
0.0930941
0.0930549
0.0930629
0.0931433
0.0931989
0.093202
0.0931686
0.0931144
0.0931189
0.0931164
0.0931238
0.0932884
0.0933676
0.0933899
0.119673
0.381821
0.782145
0.867266
0.934916
0.925215
0.927236
0.928888
0.925148
0.923599
0.926345
0.929121
0.928441
0.927339
0.928705
0.933101
0.935073
0.935225
0.934924
0.934883
0.93608
0.93653
0.937691
0.937349
0.93601
0.934968
0.934908
0.935697
0.0936838
0.0936152
0.093361
0.0929612
0.0926429
0.0924326
0.0923211
0.0923303
0.0924179
0.092626
0.0929365
0.0932577
0.0933874
0.0933303
0.0931072
0.092886
0.0928722
0.0929698
0.0931368
0.0931906
0.0931659
0.0930505
0.0929421
0.092912
0.0928916
0.0928581
0.0928353
0.0928419
0.0928729
0.0929376
0.0930023
0.093052
0.0930921
0.0930913
0.0930741
0.0931175
0.0931597
0.0931509
0.0930977
0.0930558
0.0930512
0.0931057
0.0931634
0.0931766
0.0931415
0.0930862
0.0930919
0.0930994
0.0931125
0.0932926
0.0934715
0.0935072
0.0938561
0.0944263
0.288206
0.717943
0.923186
0.909877
0.931688
0.928697
0.923436
0.924958
0.931866
0.931017
0.92725
0.926217
0.930384
0.936053
0.936654
0.936541
0.93608
0.93611
0.937288
0.937323
0.938169
0.937393
0.936206
0.935655
0.936312
0.937152
0.0937347
0.0936522
0.0933759
0.0929941
0.0927217
0.0925465
0.0924002
0.0923503
0.0923864
0.0925188
0.0928002
0.0931682
0.0933695
0.0933415
0.0931576
0.0929223
0.0928801
0.0929486
0.0931091
0.0931855
0.0931749
0.0931007
0.0930005
0.0929601
0.0929231
0.0928726
0.0928573
0.0928685
0.0928854
0.0929193
0.0929655
0.093009
0.0930531
0.0930672
0.0930945
0.0931838
0.0932059
0.0931831
0.0931103
0.0930668
0.0930466
0.0930686
0.0931352
0.0931661
0.0931315
0.0930775
0.0930834
0.0931274
0.0931409
0.0932974
0.0936893
0.0940333
0.0943127
0.0949268
0.0951645
0.230878
0.6585
0.829169
0.938156
0.923872
0.921025
0.932794
0.937501
0.931309
0.926722
0.928256
0.934171
0.937687
0.937063
0.936944
0.936847
0.937189
0.938321
0.937936
0.937834
0.937055
0.936392
0.936906
0.938166
0.938508
0.0937718
0.0936646
0.0933544
0.0930031
0.0927916
0.0926579
0.0925244
0.0923995
0.0923891
0.0924612
0.0926867
0.0930655
0.09334
0.0933373
0.0931909
0.0929575
0.0929001
0.0929479
0.0930826
0.0931746
0.0931741
0.0931333
0.09305
0.0929946
0.0929528
0.0929051
0.0928895
0.0929051
0.0929212
0.0929268
0.0929483
0.0929839
0.0930257
0.0930579
0.0931184
0.0932101
0.093225
0.0932008
0.0931305
0.0930756
0.0930446
0.0930493
0.093112
0.0931644
0.0931975
0.0932573
0.0932846
0.0934699
0.0936392
0.0935825
0.094057
0.0947111
0.0947437
0.0950327
0.0954225
0.0955424
0.180331
0.578789
0.885827
0.899627
0.929016
0.939509
0.9369
0.929524
0.928793
0.932106
0.937442
0.937845
0.937291
0.937749
0.937795
0.938346
0.939031
0.938289
0.937264
0.936688
0.936988
0.938843
0.940084
0.93942
0.0937972
0.0936431
0.0932854
0.0929845
0.0928352
0.0927459
0.0926578
0.092521
0.0924431
0.092462
0.092608
0.092945
0.093271
0.0933106
0.0932076
0.0929989
0.0929224
0.0929539
0.0930603
0.0931583
0.0931715
0.0931506
0.0930891
0.0930285
0.0929937
0.092963
0.092932
0.0929309
0.0929454
0.0929418
0.0929471
0.0929725
0.0930149
0.0930618
0.0931246
0.0931994
0.0932276
0.0932242
0.0931668
0.093089
0.0930444
0.0930415
0.0931029
0.0933247
0.0934954
0.0936951
0.0936917
0.0937785
0.0942445
0.0944568
0.0947517
0.0955106
0.0952984
0.0951913
0.0955249
0.0963193
0.0973523
0.150328
0.502767
0.779183
0.929415
0.942568
0.934602
0.929393
0.932454
0.935899
0.938423
0.938227
0.937893
0.938542
0.938561
0.93927
0.939512
0.938376
0.936737
0.936329
0.937873
0.940784
0.941309
0.939728
0.0937918
0.0935537
0.0931437
0.0929112
0.0928416
0.0928129
0.0927789
0.0926693
0.0925113
0.0924958
0.0925734
0.0928362
0.0931671
0.093256
0.0932031
0.093046
0.0929472
0.0929601
0.0930387
0.0931334
0.0931588
0.0931504
0.0931134
0.0930668
0.0930405
0.0930197
0.0929773
0.0929545
0.0929585
0.0929531
0.0929524
0.0929844
0.0930379
0.0930863
0.09311
0.0931641
0.0932486
0.0932825
0.093244
0.0931294
0.0930597
0.0930552
0.0932398
0.093662
0.0938777
0.0940567
0.0940999
0.0941574
0.0947128
0.0954067
0.095565
0.0963339
0.0969486
0.0964895
0.0968842
0.0983334
0.0998609
0.101112
0.120283
0.431817
0.830505
0.908412
0.937069
0.935668
0.938101
0.938027
0.939186
0.938881
0.938613
0.939483
0.93956
0.94014
0.940223
0.938285
0.93671
0.93717
0.93951
0.942029
0.941749
0.939571
0.0937311
0.0934429
0.0930447
0.0928399
0.0928247
0.0928737
0.092877
0.092789
0.0925714
0.0925147
0.0925585
0.0927617
0.09308
0.0932081
0.0931927
0.0930949
0.0929793
0.0929683
0.0930109
0.0931048
0.0931489
0.0931438
0.0931264
0.0931016
0.0930827
0.0930623
0.0930101
0.0929765
0.0929687
0.0929559
0.09296
0.093028
0.0931138
0.0931285
0.093106
0.0931331
0.0932735
0.0934612
0.0934772
0.0933756
0.0933513
0.0934382
0.0937027
0.0940422
0.0943529
0.0944562
0.0946052
0.0947815
0.0953301
0.0963835
0.0964158
0.0968485
0.0979483
0.0990071
0.0996573
0.100967
0.101676
0.102899
0.104341
0.113764
0.325296
0.721004
0.908656
0.939054
0.94145
0.937388
0.941272
0.940566
0.939563
0.94056
0.940736
0.941437
0.941243
0.938868
0.937622
0.938587
0.941551
0.942398
0.941715
0.939478
0.0936917
0.0933691
0.0929659
0.0927932
0.0928298
0.0929379
0.0929467
0.0928629
0.0926173
0.0925278
0.092559
0.0927268
0.0930275
0.0931799
0.093183
0.093134
0.0930269
0.0929814
0.0929974
0.0930789
0.0931464
0.0931498
0.0931358
0.0931158
0.0931067
0.0930814
0.0930105
0.0929732
0.0929695
0.092972
0.0930031
0.0931153
0.0932016
0.0931783
0.0931057
0.0931261
0.0933198
0.0936165
0.0937476
0.0937214
0.0937305
0.0939223
0.0942562
0.0944288
0.094718
0.0948378
0.094989
0.0952764
0.0958257
0.0971092
0.0976882
0.0974493
0.0982311
0.100167
0.101389
0.102756
0.104388
0.104439
0.106262
0.10791
0.108626
0.269026
0.683381
0.905029
0.938868
0.935817
0.945492
0.942127
0.941623
0.941756
0.941229
0.942274
0.941377
0.939093
0.93901
0.940307
0.942258
0.942138
0.941142
0.939692
0.0936776
0.0933314
0.0929257
0.0927731
0.0928174
0.0929771
0.0929963
0.092924
0.0926777
0.0925554
0.0925755
0.0927224
0.0930047
0.0931672
0.0931753
0.0931504
0.0930789
0.0930518
0.0930535
0.0931077
0.093174
0.0931712
0.0931428
0.0931236
0.093115
0.0930739
0.092988
0.0929616
0.0929897