/*--------------------------------*- C++ -*----------------------------------*\
  =========                 |
  \\      /  F ield         | OpenFOAM: The Open Source CFD Toolbox
   \\    /   O peration     | Website:  https://openfoam.org
    \\  /    A nd           | Version:  7
     \\/     M anipulation  |
\*---------------------------------------------------------------------------*/
FoamFile
{
    version     2.0;
    format      ascii;
    class       volScalarField;
    location    "6";
    object      rho;
}
// * * * * * * * * * * * * * * * * * * * * * * * * * * * * * * * * * * * * * //

dimensions      [1 -3 0 0 0 0 0];

internalField   nonuniform List<scalar> 
324000
(
0.40655
0.585614
0.815082
0.971683
1.0537
1.03387
1.03422
1.03926
1.02932
1.01456
1.02234
1.04842
1.07421
1.07347
1.06543
1.06215
1.06616
1.07646
1.08599
1.08884
1.08951
1.09337
1.1009
1.10906
1.11353
1.11743
1.12251
1.12944
1.13484
1.13743
1.14057
1.14582
1.15194
1.15408
1.15439
1.15622
1.16059
1.16482
1.16631
1.16758
1.17036
1.17499
1.17742
1.17687
1.17449
1.17165
1.16951
1.16826
1.16799
1.16957
1.17351
1.17716
1.17772
1.17607
1.17379
1.17204
1.17049
1.16864
1.16733
1.16676
1.1666
1.16651
1.16701
1.16762
1.16723
1.16567
1.16434
1.16353
1.16242
1.1609
1.16014
1.16014
1.16139
1.16626
1.16939
1.1707
1.16973
1.16976
1.17072
1.17473
0.249168
0.251481
0.303477
0.502694
0.747187
0.887884
0.9814
0.971913
0.974695
0.976062
0.992553
1.01174
1.00199
0.99906
1.00201
1.01044
1.01866
1.02405
1.02548
1.02877
1.03429
1.04117
1.04783
1.05231
1.05727
1.06377
1.07127
1.07809
1.08386
1.08859
1.09357
1.09917
1.10557
1.11143
1.11636
1.12052
1.12501
1.12943
1.133
1.13634
1.14027
1.14435
1.14893
1.15234
1.15524
1.15771
1.15956
1.1609
1.16175
1.16168
1.16171
1.16321
1.16622
1.16918
1.17044
1.1705
1.16977
1.16803
1.16518
1.16243
1.16115
1.16081
1.16103
1.16141
1.16226
1.16339
1.16391
1.16355
1.16264
1.16167
1.16147
1.16012
1.16047
1.16311
1.16724
1.17048
1.17002
1.17094
1.17051
1.17257
0.249679
0.250343
0.250995
0.251392
0.292012
0.437787
0.650826
0.811643
0.942288
0.980233
1.00503
0.987302
0.945911
0.945722
0.961394
0.977213
0.988769
0.983679
0.978515
0.97999
0.986082
0.995654
1.0028
1.00603
1.00831
1.0144
1.02225
1.02812
1.03166
1.03629
1.04286
1.04981
1.05507
1.06008
1.066
1.07291
1.079
1.08481
1.09073
1.09672
1.10233
1.10735
1.11186
1.1153
1.11873
1.12325
1.12907
1.13573
1.14243
1.14641
1.14707
1.14711
1.14752
1.14851
1.14992
1.15194
1.15482
1.15796
1.159
1.15787
1.15737
1.15738
1.15724
1.15632
1.15525
1.15507
1.15643
1.15882
1.16081
1.16136
1.16156
1.16089
1.16149
1.16161
1.16331
1.16726
1.16952
1.17102
1.17128
1.17165
0.250138
0.251085
0.252027
0.252666
0.2531
0.253277
0.26973
0.377714
0.575581
0.764515
0.909015
0.921705
0.940963
0.954469
0.962248
0.968504
0.965752
0.961522
0.962969
0.967438
0.970501
0.969906
0.971082
0.975714
0.981052
0.984425
0.987027
0.990355
0.994133
0.998016
1.00198
1.0059
1.01063
1.01548
1.02056
1.02593
1.03194
1.03722
1.04261
1.04893
1.05588
1.06211
1.06771
1.07276
1.07738
1.08305
1.08972
1.09671
1.10292
1.10872
1.11452
1.11918
1.12225
1.1243
1.12636
1.12885
1.13154
1.13472
1.13834
1.14249
1.1463
1.1492
1.15064
1.15029
1.14901
1.14783
1.14741
1.14805
1.14985
1.15246
1.15645
1.1593
1.16139
1.16126
1.16115
1.16227
1.16391
1.16799
1.17045
1.1711
0.250893
0.251869
0.252703
0.253335
0.253938
0.254172
0.254211
0.254247
0.256993
0.333152
0.502242
0.719283
0.904697
0.952169
0.967297
0.963245
0.94685
0.947896
0.954899
0.962224
0.966018
0.962758
0.959304
0.961212
0.967583
0.972329
0.970506
0.969691
0.97135
0.975285
0.978214
0.979109
0.980056
0.983576
0.989147
0.993543
0.996992
1.00111
1.00508
1.00919
1.01388
1.01859
1.02281
1.02715
1.03314
1.04006
1.04812
1.05613
1.06266
1.06758
1.07234
1.07787
1.08365
1.08912
1.09406
1.09896
1.10347
1.10707
1.11001
1.11376
1.11828
1.12281
1.12696
1.13056
1.13346
1.13552
1.13681
1.13769
1.13886
1.14056
1.14331
1.14602
1.15107
1.1552
1.15773
1.15819
1.15772
1.15906
1.16132
1.1654
0.251804
0.252553
0.25326
0.253891
0.254362
0.254581
0.254637
0.254739
0.25492
0.255182
0.255274
0.307977
0.469097
0.68693
0.869943
0.904272
0.938166
0.950022
0.964035
0.966884
0.963433
0.958535
0.959196
0.961931
0.964978
0.966342
0.965293
0.965676
0.967381
0.968284
0.968171
0.968413
0.969454
0.971219
0.972336
0.973532
0.974491
0.976537
0.980444
0.983995
0.986856
0.9894
0.992456
0.995638
0.999495
1.00473
1.01066
1.01676
1.02262
1.02832
1.03306
1.03712
1.04117
1.04558
1.05094
1.05669
1.06286
1.06929
1.07509
1.08058
1.08615
1.09125
1.09545
1.0993
1.10339
1.10784
1.11264
1.11749
1.12189
1.12569
1.1291
1.13108
1.13384
1.13703
1.14246
1.14687
1.14884
1.15003
1.14974
1.1509
0.252657
0.25319
0.25379
0.254243
0.254597
0.254884
0.254923
0.255007
0.255217
0.255367
0.255522
0.255931
0.256099
0.299087
0.44415
0.673269
0.87523
0.9348
0.965802
0.9642
0.955185
0.957629
0.964556
0.969278
0.967031
0.963302
0.963383
0.965206
0.967741
0.967346
0.965121
0.965081
0.966201
0.968192
0.967846
0.967651
0.968483
0.969138
0.969349
0.970233
0.970979
0.970209
0.970636
0.973393
0.976697
0.980681
0.985167
0.988282
0.989978
0.992611
0.997433
1.00323
1.00753
1.0112
1.01516
1.01961
1.02432
1.02964
1.03598
1.04254
1.04914
1.05543
1.06086
1.06563
1.07015
1.07472
1.07968
1.08521
1.09122
1.09763
1.10387
1.10877
1.11265
1.11519
1.11869
1.12241
1.12702
1.13176
1.13321
1.13283
0.253433
0.253846
0.254255
0.254522
0.25474
0.255041
0.255159
0.255223
0.255343
0.255429
0.255632
0.256175
0.256335
0.25627
0.256088
0.290581
0.427238
0.658613
0.865931
0.913753
0.951363
0.964022
0.978535
0.975723
0.966516
0.961594
0.964884
0.969873
0.969953
0.967335
0.964556
0.965253
0.968094
0.968354
0.96737
0.967086
0.967796
0.968273
0.967646
0.966729
0.966541
0.966508
0.966116
0.966482
0.968489
0.968752
0.970232
0.973258
0.975168
0.975887
0.977229
0.980309
0.984249
0.987633
0.990887
0.99439
0.99798
1.00097
1.0037
1.0074
1.01198
1.01717
1.02271
1.0282
1.03335
1.03849
1.04395
1.04987
1.05583
1.06242
1.06897
1.07535
1.08148
1.08651
1.09079
1.09364
1.09756
1.10262
1.10618
1.10742
0.254145
0.25447
0.254709
0.25483
0.254909
0.255123
0.255332
0.255394
0.255433
0.255491
0.255749
0.256314
0.256411
0.256344
0.256172
0.256111
0.256128
0.287467
0.422428
0.665526
0.883872
0.949916
0.979092
0.976591
0.968276
0.969905
0.97425
0.974621
0.97084
0.966388
0.967032
0.970366
0.971056
0.968976
0.967089
0.968238
0.969832
0.969247
0.967905
0.967077
0.966769
0.966368
0.966094
0.966283
0.966396
0.967329
0.967335
0.967446
0.968505
0.969846
0.970456
0.969545
0.968199
0.96883
0.970764
0.972989
0.97557
0.978641
0.981872
0.985217
0.988828
0.991701
0.993926
0.99668
1.00061
1.00595
1.01197
1.01801
1.02411
1.0308
1.03688
1.04279
1.04789
1.05281
1.05767
1.06127
1.06589
1.0708
1.07397
1.07545
0.254783
0.255008
0.255172
0.255202
0.255188
0.255247
0.255435
0.255527
0.255511
0.25553
0.25581
0.256376
0.256452
0.256368
0.2562
0.256178
0.256204
0.256265
0.256279
0.288575
0.430706
0.672225
0.893904
0.931853
0.964356
0.980172
0.982755
0.979016
0.969985
0.970609
0.97607
0.978313
0.974287
0.96966
0.970901
0.973261
0.972537
0.970378
0.96857
0.96816
0.967497
0.96741
0.967989
0.968022
0.967132
0.966776
0.966353
0.965631
0.965052
0.965842
0.966864
0.967367
0.966821
0.965996
0.965521
0.964915
0.964257
0.964636
0.967497
0.971568
0.974358
0.976889
0.978896
0.98099
0.983569
0.986418
0.989641
0.993598
0.998111
1.00326
1.00781
1.01274
1.01727
1.02126
1.02525
1.02917
1.0346
1.04014
1.04428
1.04556
0.255288
0.255465
0.255571
0.255569
0.255525
0.255481
0.255507
0.255597
0.255583
0.255582
0.255848
0.256387
0.256444
0.256392
0.256244
0.256218
0.256246
0.256339
0.256377
0.256341
0.256321
0.293196
0.451086
0.70875
0.920821
0.969417
0.983238
0.980452
0.972398
0.979426
0.985364
0.981699
0.974539
0.974314
0.978007
0.977903
0.975417
0.973334
0.973231
0.97248
0.971075
0.970417
0.970288
0.969488
0.96796
0.967091
0.966561
0.965781
0.965078
0.964991
0.965326
0.966136
0.966899
0.966882
0.966756
0.966313
0.965492
0.964851
0.963369
0.962735
0.963087
0.963945
0.965668
0.967922
0.969299
0.970146
0.971368
0.973582
0.976445
0.980618
0.98505
0.990353
0.994978
0.998713
1.00111
1.00279
1.00713
1.01266
1.01722
1.02045
0.255656
0.255839
0.255883
0.255868
0.25581
0.255666
0.255604
0.255638
0.255648
0.255656
0.255903
0.256369
0.256422
0.256388
0.256281
0.256252
0.256287
0.256389
0.256434
0.256415
0.256399
0.256464
0.256517
0.309372
0.49766
0.744475
0.928564
0.958116
0.972174
0.994468
0.993572
0.983868
0.97682
0.981164
0.984815
0.982401
0.978074
0.977971
0.977832
0.976376
0.974873
0.974135
0.973351
0.971992
0.97075
0.969629
0.968671
0.967529
0.966554
0.96619
0.966266
0.966478
0.966742
0.966837
0.967176
0.966941
0.966111
0.965157
0.96388
0.962719
0.962644
0.962426
0.96178
0.961657
0.961971
0.962639
0.964052
0.966207
0.968644
0.972732
0.976891
0.981583
0.98466
0.987292
0.989176
0.990134
0.992699
0.995293
0.997646
1.00025
0.255949
0.256076
0.256097
0.256084
0.256011
0.255781
0.255672
0.255683
0.255706
0.255734
0.255986
0.256379
0.256424
0.25638
0.256274
0.256264
0.256308
0.256422
0.256477
0.25646
0.256438
0.256489
0.25657
0.256598
0.256597
0.331351
0.564433
0.824709
0.95549
0.995954
0.99123
0.972172
0.978957
0.990269
0.987602
0.980752
0.979665
0.982557
0.981892
0.979721
0.977989
0.977483
0.976245
0.974628
0.973958
0.973005
0.971766
0.970406
0.969357
0.968968
0.968447
0.967999
0.967695
0.967628
0.967086
0.966356
0.965226
0.964228
0.96385
0.963662
0.963719
0.96343
0.962688
0.962538
0.962875
0.96375
0.965272
0.966536
0.968207
0.970666
0.973285
0.975826
0.976777
0.97764
0.978518
0.980709
0.984239
0.987625
0.990468
0.991958
0.256209
0.256224
0.256228
0.256212
0.256119
0.255849
0.25574
0.25574
0.25577
0.255824
0.256073
0.256397
0.256432
0.256387
0.256274
0.256258
0.256303
0.256431
0.256499
0.256486
0.256458
0.256497
0.256593
0.256627
0.256627
0.25661
0.257011
0.368986
0.634921
0.883518
0.937625
0.966457
0.995132
0.997944
0.986461
0.978163
0.982185
0.985833
0.983111
0.98048
0.980509
0.979612
0.978093
0.976694
0.976553
0.975826
0.974413
0.973555
0.973201
0.972881
0.971689
0.970222
0.96914
0.968637
0.968197
0.967239
0.966009
0.964783
0.964533
0.964655
0.965002
0.964914
0.964403
0.964379
0.964771
0.965364
0.965787
0.966141
0.967064
0.968181
0.969866
0.971658
0.973333
0.974675
0.974379
0.974525
0.976744
0.98061
0.985118
0.9883
0.256398
0.256359
0.256322
0.256288
0.256169
0.255913
0.255822
0.255815
0.255836
0.255908
0.256148
0.256418
0.256446
0.256409
0.256288
0.256258
0.256299
0.256423
0.256508
0.256492
0.256462
0.256496
0.256594
0.256672
0.25671
0.256691
0.256643
0.256561
0.278685
0.440714
0.733637
0.935463
0.997548
0.991137
0.967773
0.976813
0.989787
0.987253
0.980298
0.980391
0.982222
0.98065
0.977659
0.97768
0.978215
0.977596
0.976316
0.975298
0.975555
0.975359
0.97437
0.97243
0.970773
0.969942
0.969223
0.968145
0.966945
0.96577
0.965532
0.96592
0.966234
0.965932
0.965602
0.96564
0.965935
0.96577
0.964709
0.964447
0.965095
0.966512
0.968829
0.971682
0.974016
0.975476
0.975263
0.975113
0.976444
0.978217
0.980845
0.984404
0.256513
0.256468
0.256437
0.256383
0.256197
0.255961
0.255894
0.255896
0.255915
0.255995
0.256225
0.256439
0.256458
0.256426
0.256301
0.256249
0.256293
0.256421
0.25652
0.256494
0.256451
0.256482
0.256588
0.256686
0.256739
0.25674
0.256697
0.256643
0.256571
0.256548
0.318994
0.561187
0.844396
0.921126
0.958317
0.991636
0.995841
0.981881
0.97786
0.982698
0.982979
0.978952
0.97723
0.978676
0.978614
0.977667
0.976411
0.975855
0.975943
0.975448
0.974419
0.973311
0.972085
0.971451
0.970699
0.969681
0.968609
0.967573
0.967099
0.966934
0.966671
0.966204
0.966133
0.966212
0.966426
0.965755
0.965441
0.965541
0.966478
0.968118
0.970458
0.973118
0.975318
0.976897
0.976958
0.976733
0.977707
0.978987
0.980967
0.98321
0.256571
0.256541
0.256525
0.256461
0.25624
0.255996
0.255955
0.255977
0.256036
0.256114
0.256299
0.256446
0.256448
0.2564
0.256279
0.256224
0.256279
0.256437
0.256548
0.256501
0.256424
0.256445
0.256567
0.256687
0.256745
0.256757
0.256721
0.256676
0.256622
0.256615
0.256638
0.259168
0.386418
0.692667
0.919139
0.992555
0.987059
0.967736
0.97841
0.986286
0.981074
0.976077
0.976827
0.979564
0.978439
0.976493
0.976001
0.97646
0.975972
0.97501
0.973719
0.972786
0.972503
0.972888
0.97243
0.971603
0.970868
0.969961
0.968637
0.967571
0.966961
0.966492
0.966461
0.966469
0.966258
0.966103
0.966678
0.967245
0.968519
0.970237
0.972756
0.974783
0.976349
0.977818
0.978414
0.978837
0.9798
0.980584
0.98187
0.983754
0.256583
0.256572
0.256536
0.256427
0.256177
0.256007
0.256001
0.256074
0.256196
0.256246
0.256353
0.256449
0.256447
0.256376
0.256227
0.256178
0.25626
0.256463
0.256584
0.256509
0.256383
0.25639
0.256512
0.256663
0.256736
0.256764
0.256737
0.2567
0.256667
0.256664
0.256706
0.256766
0.25673
0.300323
0.533563
0.832033
0.915799
0.958522
0.992909
0.989756
0.974869
0.974489
0.979952
0.979713
0.975889
0.975081
0.976356
0.976548
0.975726
0.974099
0.9726
0.972072
0.972391
0.972935
0.972577
0.971945
0.971321
0.970853
0.969893
0.96863
0.967731
0.967076
0.966822
0.96675
0.966699
0.967253
0.968804
0.969741
0.971448
0.972808
0.974592
0.975609
0.976918
0.978418
0.979208
0.980046
0.980939
0.981775
0.983281
0.984715
0.256699
0.256701
0.256614
0.256367
0.256044
0.25597
0.255999
0.256184
0.256351
0.256372
0.256387
0.256455
0.25645
0.256355
0.256165
0.256129
0.256249
0.256507
0.256626
0.256515
0.256341
0.256336
0.256455
0.256631
0.25672
0.256762
0.256743
0.256715
0.256712
0.256718
0.256766
0.25683
0.256822
0.256696
0.256472
0.378455
0.692951
0.921459
0.989497
0.983918
0.968551
0.977825
0.98253
0.977098
0.972669
0.974015
0.976706
0.976079
0.974861
0.973229
0.971816
0.971553
0.97249
0.97253
0.971984
0.971495
0.971085
0.970801
0.970202
0.969443
0.968706
0.968121
0.967711
0.96742
0.967818
0.969265
0.970956
0.971953
0.97324
0.973906
0.975253
0.975949
0.977016
0.978389
0.97931
0.980385
0.981426
0.982384
0.983994
0.985468
0.256848
0.256848
0.256692
0.256247
0.255909
0.255877
0.255933
0.256249
0.256458
0.256478
0.256509
0.256553
0.256525
0.256349
0.256101
0.256084
0.256249
0.256574
0.256677
0.256525
0.256293
0.25628
0.256396
0.256593
0.256693
0.256741
0.256737
0.256714
0.256727
0.256759
0.256825
0.256891
0.25688
0.256757
0.256548
0.256422
0.301635
0.546471
0.843641
0.922535
0.965971
0.990235
0.984774
0.969598
0.970824
0.976403
0.97708
0.97566
0.973997
0.97264
0.971419
0.971823
0.972675
0.972032
0.971042
0.970638
0.970495
0.970488
0.970103
0.969418
0.968841
0.968408
0.968187
0.968079
0.968874
0.970577
0.97181
0.972451
0.973401
0.973765
0.975263
0.976353
0.977625
0.979221
0.980365
0.98158
0.982561
0.983226
0.984161
0.985697
0.256949
0.256948
0.256691
0.256102
0.255806
0.255787
0.255849
0.256207
0.256538
0.25659
0.256626
0.256656
0.256605
0.256358
0.256047
0.256041
0.256261
0.256662
0.256733
0.256529
0.256237
0.256227
0.256344
0.256557
0.256663
0.256697
0.256707
0.256712
0.256724
0.256778
0.256867
0.256941
0.256933
0.256815
0.256587
0.25645
0.256453
0.256507
0.393718
0.718976
0.937483
0.987675
0.981177
0.96464
0.974769
0.97836
0.976485
0.974664
0.973442
0.972409
0.97225
0.973423
0.972973
0.971498
0.970554
0.970232
0.970237
0.970168
0.969782
0.969216
0.968722
0.968322
0.968251
0.968332
0.969466
0.971139
0.971855
0.972412
0.973224
0.973845
0.975556
0.977201
0.978706
0.980737
0.981824
0.982913
0.983629
0.984084
0.984786
0.985672
0.25703
0.257014
0.256651
0.255948
0.25572
0.255702
0.255753
0.25606
0.256545
0.256718
0.256759
0.256761
0.25668
0.256355
0.255999
0.256003
0.256294
0.25676
0.256791
0.256527
0.256188
0.25618
0.256299
0.256525
0.25664
0.256659
0.256658
0.256679
0.256715
0.256786
0.256894
0.256984
0.25698
0.256867
0.256629
0.256463
0.256455
0.256534
0.256677
0.316692
0.588419
0.870469
0.938345
0.965208
0.986203
0.97901
0.975001
0.974246
0.973397
0.972621
0.97391
0.9747
0.973204
0.971114
0.970329
0.97016
0.970317
0.969951
0.969474
0.9688
0.968256
0.967978
0.968213
0.969136
0.970433
0.97151
0.97193
0.972655
0.97356
0.974802
0.976797
0.978424
0.979669
0.981276
0.982459
0.984061
0.98478
0.985425
0.985771
0.985976
0.257127
0.257076
0.256637
0.255812
0.255607
0.255583
0.255617
0.255906
0.256486
0.256829
0.256866
0.25686
0.256763
0.256355
0.255958
0.255968
0.256345
0.256846
0.256847
0.256548
0.256173
0.256155
0.256264
0.256496
0.256621
0.256631
0.256627
0.256637
0.256685
0.256784
0.256911
0.257017
0.25702
0.256906
0.256655
0.256471
0.256454
0.2565
0.256701
0.256838
0.264538
0.446151
0.782004
0.947564
0.988452
0.976432
0.97493
0.975487
0.973761
0.972951
0.975831
0.97551
0.973473
0.97148
0.970882
0.970771
0.970661
0.970017
0.969137
0.968562
0.9683
0.96852
0.96954
0.970569
0.971271
0.972063
0.97223
0.973041
0.974267
0.976336
0.978532
0.979553
0.980285
0.981309
0.982383
0.983855
0.985025
0.986391
0.986831
0.986639
0.257282
0.257188
0.256713
0.255854
0.255438
0.255382
0.255449
0.255793
0.256422
0.256866
0.25696
0.256954
0.256855
0.256393
0.255932
0.255941
0.256391
0.256902
0.256886
0.256551
0.25616
0.256139
0.25624
0.256472
0.256602
0.256613
0.256602
0.256604
0.256642
0.256761
0.256914
0.25704
0.25705
0.256935
0.256667
0.25648
0.256461
0.256496
0.256649
0.256855
0.256876
0.256863
0.353112
0.662075
0.919973
0.947427
0.979628
0.978314
0.971617
0.974228
0.977054
0.974693
0.972647
0.972771
0.972251
0.971548
0.970993
0.970122
0.968987
0.96848
0.968471
0.969211
0.970995
0.972266
0.972285
0.972526
0.972475
0.973242
0.975095
0.978155
0.980368
0.980708
0.980999
0.981602
0.982135
0.983333
0.984685
0.986722
0.98736
0.987098
0.257452
0.257355
0.256881
0.255984
0.255343
0.255254
0.255333
0.255687
0.25634
0.256867
0.257056
0.257061
0.256964
0.256475
0.255929
0.255929
0.256405
0.256918
0.256896
0.256558
0.256164
0.25613
0.256209
0.256447
0.256585
0.256598
0.256582
0.256578
0.256608
0.256729
0.256907
0.257053
0.257067
0.256954
0.256673
0.256488
0.256473
0.256502
0.256634
0.256828
0.256867
0.256868
0.256833
0.292612
0.549698
0.851264
0.976849
0.970326
0.967642
0.977997
0.97746
0.972596
0.972793
0.974539
0.973366
0.972231
0.971553
0.970461
0.969063
0.968598
0.968824
0.970196
0.972459
0.973089
0.972614
0.972711
0.972588
0.973563
0.976253
0.979853
0.981526
0.981366
0.981594
0.981936
0.981969
0.982948
0.984407
0.986526
0.987442
0.987227
0.257561
0.257477
0.257033
0.256075
0.255327
0.255213
0.255275
0.255587
0.256218
0.256811
0.257116
0.257181
0.257092
0.256577
0.255947
0.255933
0.256409
0.25689
0.256862
0.256549
0.25617
0.256135
0.25618
0.256383
0.256554
0.256581
0.256565
0.256552
0.25658
0.256706
0.2569
0.257057
0.257072
0.256964
0.256676
0.256494
0.256482
0.256513
0.256633
0.256803
0.25689
0.256894
0.2569
0.256874
0.256801
0.426567
0.780657
0.901286
0.963013
0.986535
0.976735
0.971194
0.975408
0.97558
0.973925
0.973138
0.97242
0.971113
0.969517
0.968917
0.969381
0.971371
0.973748
0.973715
0.972953
0.972863
0.973183
0.974826
0.97769
0.981273
0.982629
0.98222
0.982321
0.982271
0.981943
0.982801
0.984464
0.986607
0.987663
0.987417
0.257582
0.257526
0.257142
0.256201
0.255355
0.255204
0.255249
0.255509
0.256094
0.256709
0.257121
0.257277
0.257207
0.256699
0.255987
0.255944
0.256381
0.256844
0.256829
0.256553
0.256179
0.256116
0.256133
0.256251
0.256449
0.256541
0.256537
0.256524
0.25655
0.256685
0.256896
0.257057
0.257072
0.25697
0.256683
0.256499
0.256492
0.256538
0.256657
0.256765
0.256888
0.256954
0.256966
0.256967
0.256937
0.256806
0.346777
0.684379
0.923559
0.981592
0.965748
0.972082
0.978325
0.974709
0.972957
0.974133
0.973253
0.971449
0.969884
0.969841
0.971084
0.973292
0.97413
0.973947
0.973536
0.973763
0.974292
0.976213
0.979137
0.982306
0.983106
0.98259
0.982749
0.982656
0.982201
0.982872
0.984606
0.986768
0.987899
0.987769
0.257545
0.257511
0.257174
0.256294
0.255425
0.255205
0.25523
0.255443
0.255983
0.25661
0.257079
0.257322
0.257281
0.256814
0.256054
0.255969
0.256312
0.256806
0.256821
0.256632
0.256249
0.256115
0.256114
0.256159
0.2563
0.256451
0.256485
0.256483
0.256514
0.256661
0.256889
0.257056
0.25707
0.256967
0.256685
0.256504
0.256505
0.256569
0.25668
0.256752
0.25686
0.257012
0.25704
0.257042
0.257003
0.256886
0.25683
0.298814
0.569826
0.878815
0.936737
0.982314
0.98109
0.970286
0.972719
0.975327
0.973276
0.970849
0.97023
0.971406
0.973642
0.974573
0.974212
0.973968
0.974458
0.975325
0.976005
0.977869
0.980322
0.982712
0.98345
0.982922
0.983191
0.983289
0.982983
0.983571
0.984952
0.98685
0.988061
0.988197
0.257526
0.257484
0.257164
0.256341
0.255483
0.255199
0.255207
0.255372
0.255866
0.25652
0.257038
0.257333
0.257313
0.256912
0.256153
0.256024
0.256249
0.25679
0.256892
0.256806
0.256473
0.256184
0.25614
0.256145
0.256218
0.256364
0.256424
0.25643
0.256469
0.256629
0.256877
0.257051
0.257053
0.256946
0.256682
0.256525
0.256529
0.256599
0.256697
0.256741
0.256822
0.257036
0.257103
0.257107
0.257054
0.25691
0.256888
0.256908
0.260622
0.458235
0.80317
0.968717
0.968484
0.968166
0.979432
0.975883
0.970662
0.96983
0.970637
0.973149
0.975452
0.975014
0.974561
0.974668
0.976134
0.977178
0.977608
0.979325
0.981013
0.982776
0.983617
0.983341
0.983858
0.984158
0.984066
0.984884
0.986001
0.987094
0.988045
0.988471
0.257557
0.257508
0.257168
0.25637
0.255511
0.255169
0.255168
0.255298
0.255744
0.256418
0.256985
0.257323
0.257321
0.256996
0.25629
0.256103
0.256229
0.256711
0.256925
0.256882
0.256633
0.256299
0.256211
0.256201
0.256208
0.2563
0.256358
0.256372
0.256422
0.256589
0.256841
0.257001
0.257003
0.256913
0.256692
0.256561
0.256573
0.256642
0.256718
0.256718
0.256761
0.257012
0.257129
0.257139
0.257068
0.256923
0.256896
0.256928
0.257065
0.257153
0.387714
0.743078
0.894961
0.969072
0.988073
0.97549
0.96853
0.969398
0.971814
0.975765
0.976409
0.975583
0.974891
0.975536
0.978022
0.978599
0.978752
0.980461
0.981924
0.983091
0.983752
0.98382
0.984667
0.985319
0.98557
0.986597
0.987155
0.987588
0.98814
0.9888
0.25769
0.257609
0.257204
0.256398
0.255558
0.255134
0.255111
0.255224
0.255623
0.256291
0.256901
0.257296
0.257326
0.257067
0.256446
0.256185
0.256258
0.256609
0.256893
0.256888
0.256708
0.256384
0.256281
0.256269
0.256262
0.256281
0.256296
0.256314
0.256377
0.256544
0.256757
0.256902
0.256925
0.256867
0.256712
0.256617
0.256643
0.256708
0.256734
0.256691
0.256711
0.256913
0.257048
0.257056
0.256994
0.256877
0.256862
0.25687
0.256918
0.257184
0.257178
0.322022
0.663559
0.927699
0.981215
0.959873
0.970392
0.971925
0.973874
0.977452
0.976371
0.974976
0.975219
0.977022
0.979071
0.979115
0.979447
0.981709
0.983622
0.984285
0.984785
0.984936
0.98592
0.986587
0.987327
0.988156
0.988139
0.988209
0.98852
0.989501
0.257825
0.257729
0.257287
0.256462
0.255663
0.255192
0.255111
0.255198
0.255517
0.256115
0.256753
0.257225
0.257321
0.257128
0.2566
0.256251
0.256283
0.256544
0.25685
0.256885
0.256775
0.256472
0.25634
0.256331
0.256325
0.256294
0.256259
0.256269
0.256334
0.256488
0.256657
0.256783
0.256839
0.25681
0.256712
0.256685
0.256742
0.25678
0.256741
0.256664
0.256679
0.256837
0.256945
0.256951
0.256885
0.256781
0.256791
0.256786
0.256798
0.257117
0.257283
0.257333
0.289556
0.559002
0.877251
0.936139
0.98348
0.975722
0.977126
0.978637
0.975845
0.975179
0.977336
0.979596
0.979343
0.979029
0.980287
0.984015
0.986119
0.986589
0.986567
0.986598
0.987598
0.988137
0.989373
0.989496
0.989184
0.989243
0.989723
0.990933
0.257937
0.257836
0.257374
0.25656
0.255822
0.255358
0.255183
0.255222
0.255427
0.255879
0.256506
0.257086
0.257293
0.257175
0.256735
0.256318
0.256296
0.256489
0.256802
0.256889
0.256835
0.256599
0.256419
0.256407
0.256397
0.256334
0.256263
0.256259
0.256302
0.25642
0.256555
0.256669
0.256754
0.25675
0.256707
0.256787
0.256868
0.256851
0.256748
0.256665
0.256656
0.256762
0.256875
0.256901
0.256832
0.256727
0.25674
0.256754
0.256778
0.257129
0.257488
0.257565
0.258259
0.259311
0.463429
0.823269
0.973003
0.963704
0.98138
0.979215
0.975677
0.977198
0.982995
0.98254
0.980033
0.979836
0.983151
0.987938
0.988867
0.989124
0.988974
0.989009
0.989912
0.990078
0.991005
0.990731
0.990577
0.991017
0.992066
0.993389
0.25804
0.257911
0.257411
0.256639
0.255994
0.255578
0.255311
0.255271
0.255362
0.255654
0.25623
0.256919
0.257253
0.257189
0.256826
0.256388
0.256318
0.256455
0.256758
0.25688
0.256854
0.256701
0.256524
0.256488
0.256455
0.256367
0.256311
0.256313
0.256328
0.256387
0.256483
0.256582
0.256678
0.256702
0.256749
0.256916
0.256957
0.256912
0.256771
0.256685
0.256644
0.256687
0.256818
0.256881
0.256813
0.25671
0.256724
0.256813
0.256838
0.257143
0.257916
0.258598
0.259154
0.260365
0.260825
0.408135
0.779199
0.909455
0.989102
0.97785
0.976495
0.985648
0.990478
0.986132
0.983018
0.984367
0.988945
0.992069
0.991837
0.991984
0.991992
0.992209
0.992985
0.992767
0.992923
0.992661
0.992888
0.994082
0.995653
0.996678
0.258115
0.25794
0.25739
0.256663
0.25614
0.255816
0.255546
0.255366
0.255375
0.255535
0.255998
0.256721
0.257192
0.257175
0.256884
0.256456
0.256364
0.256461
0.256718
0.256863
0.256854
0.256768
0.256617
0.256549
0.256504
0.256425
0.256377
0.25639
0.256403
0.256406
0.25645
0.256531
0.256622
0.256685
0.256797
0.256967
0.256991
0.256944
0.256806
0.256698
0.256637
0.256647
0.256772
0.256877
0.256949
0.257072
0.257127
0.257491
0.257821
0.257708
0.258637
0.259924
0.259996
0.260569
0.26133
0.26156
0.358955
0.72727
0.959428
0.967499
0.988683
0.997501
0.996183
0.990899
0.990124
0.992392
0.996073
0.996545
0.996254
0.996633
0.996586
0.996842
0.997235
0.996741
0.99615
0.996124
0.996983
0.999131
1.00075
1.00106
0.258163
0.257911
0.257285
0.256621
0.256219
0.255999
0.255822
0.255586
0.25549
0.255538
0.255838
0.256487
0.257059
0.257114
0.256913
0.256535
0.256415
0.25648
0.256685
0.256841
0.256849
0.256806
0.256693
0.256611
0.256575
0.256532
0.256463
0.256447
0.256455
0.256441
0.256451
0.256508
0.2566
0.256692
0.256809
0.256947
0.256993
0.256985
0.25687
0.256717
0.256634
0.25663
0.256753
0.257196
0.257539
0.257937
0.25793
0.258099
0.259008
0.259417
0.259994
0.261486
0.261075
0.26087
0.261525
0.263075
0.265089
0.330131
0.676027
0.894801
1.00238
1.0096
1.00404
0.998963
1.0006
1.00211
1.00327
1.00311
1.00287
1.00329
1.00307
1.00334
1.00347
1.00271
1.00165
1.00184
1.00343
1.00632
1.00732
1.00696
0.258142
0.25776
0.25703
0.256433
0.256218
0.256139
0.256075
0.255881
0.255619
0.255608
0.255768
0.256276
0.256864
0.257005
0.256904
0.256625
0.256468
0.256498
0.25665
0.256806
0.256831
0.256812
0.256743
0.256683
0.256661
0.256636
0.25656
0.256497
0.256488
0.256466
0.256465
0.256533
0.256644
0.256737
0.256777
0.256877
0.257033
0.257091
0.257013
0.256785
0.256656
0.256654
0.257022
0.257861
0.258293
0.25865
0.258735
0.258845
0.259927
0.261276
0.261587
0.263096
0.264299
0.263403
0.264169
0.266981
0.269937
0.272375
0.297992
0.619619
0.943098
0.998721
1.01661
1.01375
1.01377
1.01203
1.01235
1.01221
1.01202
1.01262
1.01237
1.01258
1.01269
1.01136
1.01038
1.01104
1.01308
1.01545
1.01561
1.01482
0.258027
0.25758
0.256826
0.256263
0.256183
0.256262
0.256276
0.256122
0.255733
0.255649
0.255739
0.256129
0.256701
0.256915
0.256887
0.25672
0.256531
0.256516
0.256597
0.256761
0.256823
0.256808
0.256773
0.256747
0.256737
0.256715
0.256627
0.256544
0.256512
0.256475
0.256484
0.256622
0.256791
0.256812
0.256763
0.256813
0.257082
0.257441
0.25747
0.257268
0.257229
0.257403
0.257931
0.258609
0.259228
0.259436
0.25973
0.260072
0.261139
0.26319
0.263255
0.264104
0.266249
0.268301
0.269557
0.272079
0.273438
0.275793
0.278562
0.292058
0.521266
0.869908
1.01233
1.0273
1.02592
1.02198
1.02513
1.02481
1.02418
1.02492
1.02476
1.02513
1.02504
1.02332
1.02244
1.02321
1.02534
1.02612
1.02574
1.02494
0.257951
0.257451
0.256651
0.256168
0.256193
0.256388
0.256416
0.256269
0.25582
0.255676
0.25574
0.25606
0.256602
0.256865
0.256872
0.256796
0.256618
0.256538
0.256567
0.256713
0.256824
0.256826
0.256796
0.256772
0.256777
0.256749
0.256629
0.256538
0.256516
0.256517
0.256577
0.2568
0.256956
0.256905
0.256756
0.256795
0.257171
0.257748
0.258005
0.257956
0.257975
0.258356
0.25902
0.25937
0.259948
0.260187
0.260485
0.261044
0.262112
0.264614
0.265742
0.265283
0.266803
0.270548
0.272899
0.275524
0.278637
0.278743
0.282205
0.285333
0.286699
0.46864
0.848986
1.01967
1.03669
1.03459
1.04257
1.04011
1.0399
1.03985
1.03902
1.03944
1.03869
1.03669
1.03643
1.03712
1.03799
1.03774
1.03698
1.03711
0.257924
0.257367
0.25656
0.256131
0.256176
0.256467
0.256519
0.256391
0.255935
0.255727
0.25577
0.25605
0.256559
0.256844
0.256861
0.256829
0.256712
0.256665
0.256668
0.256771
0.25689
0.256877
0.256813
0.256786
0.256788
0.256731
0.256581
0.256512
0.256566
0.256735
0.256864
0.257021
0.257071
0.257012
0.256793
0.256851
0.25735
0.258045
0.258371
0.258494
0.258585
0.25911
0.259898
0.260037
0.26026
0.260496
0.260876
0.261595
0.26253
0.265132
0.26886
0.268675
0.268798
0.271572
0.274817
0.277325
0.281321
0.284552
0.286535
0.290892
0.292565
0.293429
0.423555
0.800831
1.01886
1.04947
1.06368
1.05505
1.05773
1.05647
1.05466
1.05523
1.05379
1.05136
1.05116
1.05133
1.05068
1.04993
1.04907
1.05075
0.257944
0.257361
0.256494
0.256043
0.256103
0.256516
0.25664
0.256549
0.256115
0.255839
0.255861
0.256078
0.256546
0.256845
0.256873
0.256851
0.256804
0.256825
0.256899
0.257029
0.257054
0.256976
0.256856
0.25683
0.256811
0.256706
0.256542
0.256545
0.256738
0.257133
0.257247
0.25723
0.257125
0.257004
0.256973
0.257132
0.257781
0.258492
0.258878
0.259346
0.259634
0.259973
0.260737
0.261353
0.26079
0.260699
0.261442
0.263365
0.26408
0.265593
0.270442
0.27412
0.276168
0.276974
0.279457
0.282239
0.285321
0.28951
0.291377
0.295249
0.298873
0.299367
0.300458
0.389841
0.757722
1.02644
1.07644
1.06987
1.07572
1.06931
1.06705
1.06785
1.06577
1.06406
1.06377
1.06263
1.06171
1.06155
1.06206
1.06504
0.257965
0.257346
0.256296
0.255897
0.255992
0.256554
0.256841
0.256783
0.256382
0.256018
0.256017
0.256179
0.256586
0.256952
0.257013
0.257002
0.256979
0.25704
0.257145
0.257231
0.257199
0.25705
0.2569
0.256841
0.256816
0.256689
0.256574
0.256651
0.257011
0.257598
0.257679
0.257598
0.257329
0.257238
0.257286
0.257528
0.258127
0.259035
0.259887
0.260741
0.261415
0.261168
0.26122
0.262579
0.263195
0.263846
0.265473
0.268796
0.271981
0.271673
0.272442
0.277053
0.281427
0.284091
0.285882
0.288232
0.291614
0.295019
0.296756
0.298146
0.302609
0.305165
0.307144
0.308337
0.362681
0.698962
1.02202
1.06685
1.09313
1.0783
1.08046
1.07941
1.0765