/*--------------------------------*- C++ -*----------------------------------*\
  =========                 |
  \\      /  F ield         | OpenFOAM: The Open Source CFD Toolbox
   \\    /   O peration     | Website:  https://openfoam.org
    \\  /    A nd           | Version:  7
     \\/     M anipulation  |
\*---------------------------------------------------------------------------*/
FoamFile
{
    version     2.0;
    format      ascii;
    class       volScalarField;
    location    "1.7";
    object      T;
}
// * * * * * * * * * * * * * * * * * * * * * * * * * * * * * * * * * * * * * //

dimensions      [0 0 0 1 0 0 0];

internalField   nonuniform List<scalar> 
1750
(
1.44679
1.47478
1.36613
1.37388
1.46488
1.45817
1.37856
1.26345
1.18081
1.08578
0.335602
0.730424
1.54399
1.7271
1.69413
1.57672
1.44196
1.34628
1.27478
1.1484
0.313985
0.322647
0.621188
1.15087
1.06662
1.06597
1.22909
1.27388
1.25315
1.1396
0.357068
0.382346
0.396282
0.40723
0.438363
0.480976
0.677186
0.963197
1.09436
1.06434
0.454657
0.469406
0.485535
0.507702
0.533236
0.569864
0.631194
0.677341
0.756181
0.859135
0.548244
0.549888
0.568223
0.594565
0.608983
0.630334
0.680921
0.730963
0.733171
0.76519
0.678227
0.681028
0.683567
0.685817
0.692519
0.70493
0.733026
0.776356
0.788018
0.802121
0.819735
0.811577
0.806648
0.800511
0.795866
0.797621
0.804806
0.8196
0.828701
0.8467
0.94363
0.931353
0.920642
0.906406
0.893084
0.886865
0.883012
0.883781
0.889881
0.907476
0.999537
0.993654
0.986848
0.97802
0.966674
0.957376
0.950219
0.945208
0.946646
0.957507
1.0066
1.00485
1.00295
1.00041
0.996571
0.992199
0.988272
0.985843
0.986159
0.989652
1.00387
1.00301
1.00202
1.00119
1.00045
0.99966
0.998905
0.998548
0.998601
0.999049
1.00052
1.00047
1.00038
1.00026
1.00012
1.00003
0.99997
0.99995
0.999953
0.999971
1.00001
1.00001
1.00001
1.00001
1.00001
1
1
0.999999
0.999999
1
1
1
1
1
1
1
1
1
1
1
0.528874
0.420187
0.338485
0.351029
0.447136
0.54924
0.67747
0.831211
0.954142
1.00312
1.00806
1.00431
1.00053
1.00001
1
0.497703
0.406789
0.367429
0.400344
0.485449
0.595778
0.733901
0.879557
0.980049
1.00947
1.00939
1.00388
1.00031
1.00001
1
0.492704
0.408014
0.384913
0.428005
0.506115
0.625457
0.77163
0.913762
0.996139
1.01225
1.01022
1.00311
1.00019
1
1
0.482428
0.398609
0.384907
0.434308
0.52906
0.663249
0.821057
0.950204
1.00829
1.01457
1.0104
1.0023
1.0001
1
1
0.476791
0.37907
0.375736
0.433197
0.56021
0.723991
0.872913
0.978032
1.01521
1.01646
1.00927
1.00142
1.00005
1
1
0.474211
0.385695
0.367698
0.473709
0.639043
0.786516
0.917313
0.998988
1.01926
1.01751
1.00744
1.00077
1.00002
1
1
0.462097
0.367071
0.393267
0.54849
0.698801
0.838759
0.956747
1.01475
1.02181
1.0172
1.00507
1.00035
1.00001
1
1
0.438962
0.3472
0.457606
0.617216
0.758917
0.896588
0.992042
1.02325
1.02312
1.01413
1.00283
1.00014
1
1
1
0.438672
0.373623
0.522568
0.679398
0.8277
0.953165
1.01459
1.02672
1.02382
1.01064
1.00139
1.00005
1
1
1
0.4406
0.451583
0.591724
0.760763
0.906937
0.99419
1.02661
1.02841
1.02099
1.00632
1.00052
1.00001
1
1
1
0.332998
0.484314
0.696326
0.860181
0.96626
1.02024
1.03159
1.02918
1.01588
1.00306
1.00018
1
1
1
1
0.0877836
0.528857
0.79425
0.9371
1.00785
1.03319
1.0334
1.02606
1.00954
1.00113
1.00004
1
1
1
1
0.220372
0.692696
0.896486
0.993227
1.03144
1.03719
1.03411
1.01922
1.00427
1.00031
1.00001
1
1
1
1
0.469241
0.807648
0.977058
1.02834
1.03999
1.03829
1.02798
1.01013
1.00133
1.00006
1
1
1
1
1
0.813797
0.97365
1.02835
1.04015
1.04139
1.03565
1.01791
1.00363
1.00027
1.00001
1
1
1
1
1
1.04098
1.04178
1.04235
1.04166
1.04122
1.02522
1.0063
1.00034
1.00001
1
1
1
1
1
1
1.0411
1.0423
1.04303
1.04112
1.03785
1.02153
1.00574
1.00061
1.00003
1
1
1
1
1
1
1.04123
1.04322
1.04381
1.04081
1.03362
1.01446
1.00224
1.00011
1
1
1
1
1
1
1
1.04157
1.04417
1.04407
1.03956
1.02757
1.0085
1.0009
1.00003
1
1
1
1
1
1
1
1.04174
1.04466
1.0441
1.03651
1.0201
1.00458
1.00034
1.00001
1
1
1
1
1
1
1
1.04216
1.04456
1.04359
1.03184
1.01306
1.00197
1.0001
1
1
1
1
1
1
1
1
1.04388
1.04322
1.04098
1.02487
1.00738
1.00073
1.00003
1
1
1
1
1
1
1
1
1.04836
1.04124
1.03689
1.01692
1.00338
1.00024
1.00001
1
1
1
1
1
1
1
1
1.0517
1.0383
1.0286
1.00973
1.00129
1.00006
1
1
1
1
1
1
1
1
1
1.05321
1.03434
1.01958
1.00477
1.00043
1.00002
1
1
1
1
1
1
1
1
1
1.05329
1.02822
1.01181
1.00187
1.00011
1
1
1
1
1
1
1
1
1
1
1.04719
1.0207
1.00583
1.00059
1.00002
1
1
1
1
1
1
1
1
1
1
1.0388
1.0132
1.00231
1.00014
1
1
1
1
1
1
1
1
1
1
1
1.02706
1.00616
1.00058
1.00002
1
1
1
1
1
1
1
1
1
1
1
1.01223
1.00176
1.00009
1
1
1
1
1
1
1
1
1
1
1
1
1
1
1
1
1
1
1
1
1
1
1
1
1
1
1
1
1
1
1
1
1
1
1
1
1
1
1
1
1
1
1
1
1
1
1
1
1
1
1
1
1
1
1
1
1
1
1
1
1
1
1
1
1
1
1
1
1
1
1
1
1
1
1
1
1
1
1
1
1
1
1
1
1
1
1
1
1
1
1
1
1
1
1
1
1
1
1
1
1
1
1
1
1
1
1
1
1
1
1
1
1
1
1
1
1
1
1
1
1
1
1
1
1
1
1
1
1
1
1
1
1
1
1
1
1
1
1
1
1
1
1
1
1
1
1
1
1
1
1
1
1
1
1
1
1
1
1
1
1
1
1
1
1
1
1
1
1
1
1
1
1
1
1
1
1
1
1
1
1
1
1
1
1
1
1
1
1
1
1
1
1
1
1
1
1
1
1
1
1
1
1
1
1
1
1
1
1
1
1
1
1
1
1
1
1
1
1
1
1
1
1
1
1
1
1
1
1
1
1
1
1
1
1
1
1
1
1
1
1
1
1
1
1
1
1
1
1
1
1
1
1
1
1
1
1
1
1
1
1
1
1
1
1
1
1
1
1
1
1
1
1
1
1
1
1
1
1
1
1
1
1
1
1
1
1
1
1
1
1
1
1
1
1
1
1
1
1
1
1
1
1
1
1
1
1
1
1
1
1
1
1
1
1
1
1
1
1
1
1
1
1
1
1
1
1
1
1
1
1
1
1
1
1
1
1
1
1
1
1
1
1
1
1
1
1
1
1
1
1
1
1
1
1
1
1
1
1
1
1
1
1.26467
0.999986
1
1
1
1
1
1
1
1
1
1
1
1
1
1
1
1
1
1
2.12495
1.66881
1.01499
1
1
1
1
1
1
1
1
1
1
1
1
1
1
1
1
1
2.41816
2.27145
2.36624
1.51827
0.99945
1
1
1
1
1
1
1
1
1
1
1
1
1
1
1
2.2911
2.22629
2.33428
2.27072
1.57924
0.998711
1
1
1
1
1
1
1
1
1
1
1
1
1
1
2.22077
2.20339
2.24643
2.25909
2.15268
1.40718
0.998672
1
1
1
1
1
1
1
1
1
1
1
1
1
2.19408
2.18368
2.19918
2.20647
2.1714
1.86319
1.12487
0.999999
1
1
1
1
1
1
1
1
1
1
1
1
2.1723
2.16719
2.17778
2.1741
2.16303
2.04648
1.48102
0.998271
1
1
1
1
1
1
1
1
1
1
1
1
2.15927
2.15524
2.16414
2.15581
2.14292
2.07185
1.7812
1.10698
0.999999
1
1
1
1
1
1
1
1
1
1
1
2.14527
2.14242
2.15093
2.14376
2.13569
2.09098
1.94894
1.38807
0.998532
1
1
1
1
1
1
1
1
1
1
1
2.12828
2.12559
2.13434
2.13036
2.12596
2.09257
2.00556
1.6621
1.0396
1
1
1
1
1
1
1
1
1
1
1
2.11007
2.1068
2.11703
2.11867
2.11981
2.09629
2.03367
1.83755
1.20638
0.999999
1
1
1
1
1
1
1
1
1
1
2.0932
2.09
2.1023
2.10847
2.10976
2.09105
2.03706
1.92676
1.47178
0.999145
1
1
1
1
1
1
1
1
1
1
2.0776
2.07441
2.087
2.09524
2.09743
2.08363
2.04643
1.97717
1.6736
1.0408
1
1
1
1
1
1
1
1
1
1
2.06145
2.06144
2.07403
2.08431
2.08811
2.07441
2.05064
2.00316
1.81741
1.2465
0.999999
1
1
1
1
1
1
1
1
1
2.05813
2.06302
2.07507
2.08215
2.08186
2.07066
2.04796
2.00411
1.89911
1.38328
0.970826
1
1
1
1
1
1
1
1
1
1.55095
1.78338
1.88146
1.94988
1.99885
2.02465
2.02304
2.00759
1.99355
1.84709
1.3125
1.01324
1.0001
1
1
1
1
1
1
1
1.06197
1.49376
1.64002
1.75681
1.84203
1.90903
1.94783
1.97724
1.98024
1.94565
1.73917
1.2181
1.00654
1.00004
1
1
1
1
1
1
1.06005
1.25719
1.40186
1.54605
1.6724
1.75801
1.83379
1.89522
1.93858
1.91356
1.87713
1.5573
1.08702
1.00133
1.00001
1
1
1
1
1
1.14848
1.19734
1.25819
1.36562
1.509
1.6266
1.70928
1.78391
1.84401
1.86729
1.87032
1.75899
1.33316
1.02124
1.00018
1
1
1
1
1
1.22182
1.14431
1.15832
1.26451
1.37619
1.51
1.61357
1.6872
1.7429
1.79981
1.85357
1.83066
1.59174
1.13266
1.00286
1.00001
1
1
1
1
1.2538
1.12719
1.06454
1.16441
1.26325
1.38651
1.50892
1.59256
1.66128
1.73237
1.81329
1.80978
1.70452
1.31952
1.02122
1.00016
1
1
1
1
1.28397
1.13755
1.06074
1.10536
1.18307
1.27115
1.3874
1.4745
1.56819
1.65978
1.74981
1.76596
1.70328
1.45971
1.07878
1.0012
1
1
1
1
1.28068
1.16124
1.09094
1.10226
1.14522
1.22023
1.31074
1.39818
1.47862
1.57265
1.66941
1.7177
1.68264
1.51065
1.16207
1.00544
1.00003
1
1
1
1.26917
1.18884
1.1324
1.09024
1.10484
1.1835
1.26691
1.36062
1.44258
1.5222
1.59834
1.66415
1.64597
1.53092
1.23456
1.01618
1.00013
1
1
1
1.24821
1.19708
1.13097
1.07486
1.06746
1.13914
1.2084
1.31255
1.40526
1.48645
1.55675
1.62196
1.61778
1.52504
1.28987
1.03586
1.00043
1
1
1
1.22936
1.19281
1.12654
1.06641
1.04864
1.09443
1.14965
1.22159
1.32775
1.42472
1.50838
1.58108
1.58965
1.51111
1.32199
1.06183
1.00113
1
1
1
1.21503
1.18727
1.12358
1.06669
1.04618
1.07393
1.12169
1.19066
1.28076
1.3551
1.43778
1.5197
1.54437
1.47746
1.31609
1.08294
1.00229
1.00001
1
1
1.20441
1.17722
1.11994
1.0686
1.04914
1.0618
1.10622
1.18473
1.26731
1.34247
1.39716
1.46119
1.49665
1.44003
1.30284
1.09024
1.00328
1.00002
1
1
1.19879
1.17102
1.12105
1.07569
1.05965
1.06086
1.08653
1.16156
1.24413
1.32748
1.37643
1.42946
1.46409
1.41167
1.28609
1.08895
1.0036
1.00002
1
1
1.20239
1.17532
1.12682
1.0908
1.07247
1.06605
1.08658
1.14716
1.2102
1.28816
1.33851
1.39294
1.42966
1.37864
1.26314
1.08434
1.00364
1.00002
1
1
1.28693
1.19267
1.14252
1.11515
1.09411
1.0836
1.10123
1.15361
1.20372
1.25555
1.29741
1.34317
1.37803
1.33286
1.23297
1.07396
1.00312
1.00002
1
1
1.27737
1.19241
1.17913
1.15917
1.1346
1.12598
1.13799
1.16702
1.20311
1.22264
1.2471
1.28312
1.32092
1.28488
1.19923
1.059
1.00228
1.00001
1
1
1.17278
1.16473
1.18036
1.20028
1.18308
1.17146
1.15568
1.15966
1.17749
1.16999
1.17823
1.22565
1.26979
1.24204
1.16412
1.04075
1.00127
1.00001
1
1
1.16192
1.15186
1.17443
1.2033
1.19857
1.18291
1.14798
1.11995
1.10543
1.10498
1.11629
1.18588
1.22627
1.20478
1.1269
1.02261
1.00049
1
1
1
1.25118
1.17839
1.16532
1.18777
1.18782
1.16631
1.11064
1.04935
1.01926
1.04051
1.0731
1.16082
1.19007
1.16889
1.08534
1.0088
1.00011
1
1
1
1.27937
1.17282
1.12843
1.1219
1.11691
1.09193
1.04374
0.987084
0.972995
1.00813
1.06565
1.14551
1.15869
1.12808
1.04166
1.00187
1.00001
1
1
1
1.23372
1.10063
1.02964
1.00806
0.999369
0.990672
0.986817
0.969343
0.965543
1.00862
1.07285
1.12893
1.12516
1.07404
1.01009
1.00016
1
1
1
1
1.12196
0.99146
0.934308
0.922592
0.92417
0.942417
0.962486
0.972294
0.982132
1.02712
1.07897
1.0994
1.07626
1.02084
1.00079
1
1
1
1
1
1.05303
0.963657
0.922621
0.905863
0.907175
0.930161
0.955796
0.980376
1.00389
1.03613
1.06574
1.05286
1.02004
1.00148
1.00001
0.999999
1
1
1
1
1.01101
0.960692
0.937272
0.920463
0.920551
0.933029
0.950297
0.974858
0.997341
1.01887
1.01663
1.00617
1.00054
0.999971
0.999994
0.999999
1
1
1
1
)
;

boundaryField
{
    inlet
    {
        type            fixedValue;
        value           uniform 1;
    }
    outlet
    {
        type            inletOutlet;
        inletValue      uniform 1;
        value           nonuniform List<scalar> 
35
(
1.01007
0.960117
0.937031
0.920771
0.920955
0.933613
0.950803
0.975151
0.99743
1.01779
1.01428
1.0048
1.0003
0.999965
0.999995
0.999999
1
1
1
1
1.08416
1.1455
1.13608
1.06114
0.856503
0.765648
0.802606
0.847499
0.908371
0.958299
0.989977
0.999095
0.999973
1
1
)
;
    }
    airfoil
    {
        type            zeroGradient;
    }
    top
    {
        type            symmetryPlane;
    }
    bottom
    {
        type            symmetryPlane;
    }
    defaultFaces
    {
        type            empty;
    }
}


// ************************************************************************* //
