/*--------------------------------*- C++ -*----------------------------------*\
  =========                 |
  \\      /  F ield         | OpenFOAM: The Open Source CFD Toolbox
   \\    /   O peration     | Website:  https://openfoam.org
    \\  /    A nd           | Version:  7
     \\/     M anipulation  |
\*---------------------------------------------------------------------------*/
FoamFile
{
    version     2.0;
    format      ascii;
    class       volVectorField;
    location    "9.5";
    object      U;
}
// * * * * * * * * * * * * * * * * * * * * * * * * * * * * * * * * * * * * * //

dimensions      [0 1 -1 0 0 0 0];

internalField   nonuniform List<vector> 
1750
(
(2.59289 -0.408905 0)
(2.57431 -0.265519 0)
(2.56716 -0.0788873 0)
(2.56368 -0.0781288 0)
(2.57828 -0.102973 0)
(2.61343 0.0322858 0)
(2.63568 0.0701171 0)
(2.65667 0.0893166 0)
(2.63972 0.067839 0)
(2.64736 0.043348 0)
(2.76909 -1.02669 0)
(2.78509 -0.97673 0)
(2.71129 -0.6913 0)
(2.75817 -0.543799 0)
(2.67727 -0.187272 0)
(2.71534 -0.0590119 0)
(2.67019 0.114674 0)
(2.6377 0.086518 0)
(2.63229 0.0481451 0)
(2.6879 0.0263582 0)
(3.05535 -1.29103 0)
(3.07971 -1.36493 0)
(3.10854 -1.40011 0)
(3.09247 -1.29342 0)
(3.06845 -1.08247 0)
(3.02765 -0.799271 0)
(2.96214 -0.498469 0)
(2.89376 -0.259508 0)
(2.84274 -0.0720355 0)
(2.78768 0.0177252 0)
(3.10783 -1.34523 0)
(3.13395 -1.36043 0)
(3.14101 -1.32203 0)
(3.16201 -1.23606 0)
(3.16612 -1.21885 0)
(3.18487 -1.18335 0)
(3.17599 -1.15861 0)
(3.09568 -0.886449 0)
(3.05564 -0.663933 0)
(2.96253 -0.266666 0)
(3.16176 -0.903336 0)
(3.18255 -0.880187 0)
(3.18137 -0.890259 0)
(3.14917 -0.91508 0)
(3.13272 -0.949828 0)
(3.15182 -0.977385 0)
(3.16861 -0.966869 0)
(3.14959 -0.991447 0)
(3.14816 -0.979101 0)
(3.11098 -0.765556 0)
(3.13949 -0.808259 0)
(3.16571 -0.788263 0)
(3.19037 -0.814038 0)
(3.1748 -0.822694 0)
(3.14797 -0.831199 0)
(3.13712 -0.849458 0)
(3.14641 -0.851631 0)
(3.16191 -0.840416 0)
(3.15386 -0.815068 0)
(3.1387 -0.814477 0)
(3.12847 -0.545679 0)
(3.1316 -0.576356 0)
(3.13158 -0.568003 0)
(3.15552 -0.557437 0)
(3.15777 -0.568194 0)
(3.12326 -0.5943 0)
(3.11724 -0.587539 0)
(3.11801 -0.589144 0)
(3.11512 -0.619374 0)
(3.10011 -0.665051 0)
(3.02912 -0.152866 0)
(3.04034 -0.233509 0)
(3.03585 -0.333729 0)
(3.04366 -0.351005 0)
(3.07622 -0.344786 0)
(3.09763 -0.419399 0)
(3.0736 -0.479732 0)
(3.06137 -0.479984 0)
(3.07461 -0.522473 0)
(3.07857 -0.559468 0)
(2.93558 -0.00596854 0)
(2.92633 0.0281137 0)
(2.94931 -0.0505667 0)
(2.96303 -0.167526 0)
(2.98073 -0.175305 0)
(3.00443 -0.177575 0)
(3.02001 -0.263035 0)
(3.01459 -0.300254 0)
(3.02073 -0.307 0)
(3.03399 -0.345384 0)
(2.77794 0.314844 0)
(2.82356 0.218445 0)
(2.84908 0.179879 0)
(2.86301 0.128438 0)
(2.89561 0.0253778 0)
(2.91831 -0.00302635 0)
(2.94249 -0.0439433 0)
(2.95868 -0.109457 0)
(2.96921 -0.147843 0)
(2.99323 -0.212522 0)
(2.68657 0.505356 0)
(2.70217 0.479922 0)
(2.73889 0.425495 0)
(2.76796 0.378648 0)
(2.79814 0.318594 0)
(2.8313 0.244485 0)
(2.86438 0.168966 0)
(2.88934 0.106698 0)
(2.91487 0.0380333 0)
(2.946 -0.0419691 0)
(2.70381 0.492637 0)
(2.70515 0.499533 0)
(2.707 0.503111 0)
(2.71319 0.498876 0)
(2.72568 0.4809 0)
(2.74158 0.454921 0)
(2.76908 0.407512 0)
(2.79979 0.353304 0)
(2.83517 0.282889 0)
(2.88164 0.175259 0)
(2.82282 0.321212 0)
(2.77056 0.414364 0)
(2.76345 0.426928 0)
(2.75057 0.450926 0)
(2.74419 0.465774 0)
(2.74091 0.467592 0)
(2.74418 0.463573 0)
(2.75202 0.455455 0)
(2.76419 0.441977 0)
(2.80495 0.387897 0)
(2.9669 0.0633183 0)
(2.94471 0.0987173 0)
(2.9108 0.165061 0)
(2.88795 0.209888 0)
(2.8435 0.295413 0)
(2.82673 0.329473 0)
(2.80018 0.393137 0)
(2.78811 0.408074 0)
(2.79921 0.428857 0)
(2.79427 0.414316 0)
(2.99896 0.00147162 0)
(2.99742 0.00337015 0)
(2.99363 0.00865807 0)
(2.98708 0.0165586 0)
(2.97056 0.03783 0)
(2.94679 0.0622387 0)
(2.90687 0.111145 0)
(2.86091 0.146584 0)
(2.81289 0.202078 0)
(2.7485 0.226898 0)
(2.66978 -1.08198 0)
(2.7689 -1.06693 0)
(2.97301 -1.21824 0)
(3.09027 -1.33667 0)
(3.16984 -1.02095 0)
(3.15165 -0.845986 0)
(3.11563 -0.438703 0)
(3.04048 -0.199373 0)
(2.91784 0.0159983 0)
(2.74928 0.380411 0)
(2.67239 0.534715 0)
(2.69929 0.505652 0)
(2.86537 0.269717 0)
(2.98397 0.0357377 0)
(2.99958 0.000705046 0)
(2.61532 -1.08332 0)
(2.76176 -1.0851 0)
(3.01236 -1.24552 0)
(3.09886 -1.30942 0)
(3.17269 -1.06052 0)
(3.18587 -0.736135 0)
(3.07962 -0.215202 0)
(3.01 -0.164436 0)
(2.85747 0.185534 0)
(2.71918 0.45014 0)
(2.6626 0.555316 0)
(2.71768 0.529112 0)
(2.87832 0.251671 0)
(2.99054 0.0195398 0)
(2.99984 0.000264369 0)
(2.53645 -1.09278 0)
(2.71998 -1.12935 0)
(3.00928 -1.1531 0)
(3.12384 -1.28404 0)
(3.17861 -1.07892 0)
(3.13661 -0.40434 0)
(3.07816 -0.259858 0)
(2.97094 -0.0185965 0)
(2.78172 0.321726 0)
(2.67377 0.512769 0)
(2.66613 0.552064 0)
(2.73514 0.452251 0)
(2.92671 0.132228 0)
(2.99632 0.00670269 0)
(2.99994 8.51322e-05 0)
(2.41696 -1.13309 0)
(2.6893 -1.21187 0)
(3.05267 -1.10479 0)
(3.18007 -1.15754 0)
(3.22331 -0.835635 0)
(3.08558 -0.297575 0)
(3.04081 -0.293759 0)
(2.84496 0.187858 0)
(2.74891 0.369914 0)
(2.64717 0.538906 0)
(2.67338 0.532009 0)
(2.8232 0.320378 0)
(2.96811 0.0608777 0)
(2.99887 0.00217767 0)
(2.99998 2.27346e-05 0)
(2.34695 -1.1979 0)
(2.70128 -1.29547 0)
(3.15648 -1.01073 0)
(3.14057 -1.07533 0)
(3.08814 -0.56532 0)
(3.07229 -0.409114 0)
(3.01359 -0.133183 0)
(2.83342 0.236759 0)
(2.689 0.477176 0)
(2.63251 0.555994 0)
(2.68017 0.495079 0)
(2.84891 0.279936 0)
(2.98437 0.0329755 0)
(2.99967 0.000645078 0)
(3 6.30117e-06 0)
(2.29968 -1.24649 0)
(2.78893 -1.51159 0)
(3.08486 -1.12201 0)
(3.05847 -1.06341 0)
(3.07219 -0.575241 0)
(3.06079 -0.378266 0)
(2.90334 0.136804 0)
(2.80693 0.282171 0)
(2.63877 0.564283 0)
(2.62428 0.5792 0)
(2.71073 0.498503 0)
(2.90889 0.18549 0)
(2.99504 0.0108445 0)
(2.99991 0.000189824 0)
(3 1.67595e-06 0)
(2.2899 -1.25349 0)
(2.71158 -1.57664 0)
(2.98175 -1.23225 0)
(3.06583 -0.947532 0)
(3.09003 -0.528936 0)
(3.03228 -0.041826 0)
(2.8954 0.22001 0)
(2.71063 0.472639 0)
(2.61692 0.601387 0)
(2.61763 0.60919 0)
(2.75061 0.462234 0)
(2.9619 0.0847393 0)
(2.99849 0.00366382 0)
(2.99998 4.82206e-05 0)
(3 4.08398e-07 0)
(2.26755 -1.27144 0)
(2.63682 -1.53319 0)
(2.93694 -1.22131 0)
(3.0866 -0.483325 0)
(3.09395 -0.226422 0)
(2.9255 0.185061 0)
(2.83471 0.28573 0)
(2.63937 0.566467 0)
(2.60642 0.614504 0)
(2.64342 0.614448 0)
(2.86663 0.265139 0)
(2.98225 0.0396274 0)
(2.99956 0.000958596 0)
(2.99999 1.13621e-05 0)
(3 9.3826e-08 0)
(2.16847 -1.10205 0)
(2.58375 -1.43702 0)
(3.03308 -0.830186 0)
(3.0584 -0.237438 0)
(3.00565 -0.0513975 0)
(2.88384 0.187078 0)
(2.71839 0.469036 0)
(2.60777 0.607038 0)
(2.60675 0.611582 0)
(2.71482 0.460784 0)
(2.91503 0.160221 0)
(2.99535 0.0100412 0)
(2.99991 0.000184585 0)
(3 2.20849e-06 0)
(3 1.83352e-08 0)
(2.06524 -0.753819 0)
(2.56978 -1.35085 0)
(2.97256 -0.384676 0)
(3.03413 -0.322304 0)
(2.93726 0.0661118 0)
(2.79907 0.340327 0)
(2.6382 0.570489 0)
(2.58945 0.627021 0)
(2.61416 0.582434 0)
(2.80874 0.331755 0)
(2.97045 0.0637332 0)
(2.99905 0.00205493 0)
(2.99998 3.29545e-05 0)
(3 3.66433e-07 0)
(3 3.01877e-09 0)
(1.78546 -0.324692 0)
(2.66662 -0.853893 0)
(3.01851 -0.436262 0)
(2.97663 -0.0401642 0)
(2.84901 0.308219 0)
(2.67453 0.55668 0)
(2.58988 0.624394 0)
(2.58644 0.628187 0)
(2.66195 0.543985 0)
(2.87883 0.228604 0)
(2.99288 0.0153162 0)
(2.99983 0.000392021 0)
(3 5.1193e-06 0)
(3 5.51293e-08 0)
(3 4.4462e-10 0)
(1.52703 0.286657 0)
(2.7447 -0.528543 0)
(3.02842 -0.214657 0)
(2.83788 0.342074 0)
(2.74697 0.484324 0)
(2.60878 0.650626 0)
(2.567 0.645548 0)
(2.58731 0.61003 0)
(2.75812 0.409888 0)
(2.97033 0.0644596 0)
(2.99867 0.00328999 0)
(2.99997 5.6203e-05 0)
(3 7.09523e-07 0)
(3 7.36008e-09 0)
(3 5.76152e-11 0)
(1.41524 0.777405 0)
(2.84199 0.0489346 0)
(2.90799 0.277852 0)
(2.74406 0.49239 0)
(2.64642 0.605044 0)
(2.57237 0.696988 0)
(2.56111 0.650696 0)
(2.63197 0.591504 0)
(2.91566 0.167589 0)
(2.99433 0.0155619 0)
(2.99986 0.000379337 0)
(3 5.56007e-06 0)
(3 6.65132e-08 0)
(3 6.78272e-10 0)
(3 5.28915e-12 0)
(2.09035 0.654944 0)
(2.94148 0.257347 0)
(2.7661 0.508693 0)
(2.63782 0.627503 0)
(2.57734 0.677776 0)
(2.55911 0.703939 0)
(2.60412 0.614372 0)
(2.80068 0.324721 0)
(2.96989 0.0610589 0)
(2.99897 0.00242967 0)
(2.99998 4.09891e-05 0)
(3 5.22157e-07 0)
(3 5.37692e-09 0)
(3 4.77959e-11 0)
(3 3.33877e-13 0)
(2.429 0.656115 0)
(2.77482 0.563978 0)
(2.63088 0.649684 0)
(2.57112 0.703118 0)
(2.56089 0.692073 0)
(2.5661 0.68606 0)
(2.66258 0.511287 0)
(2.93989 0.0974519 0)
(2.99844 0.00447557 0)
(2.99998 7.50213e-05 0)
(3 1.06422e-06 0)
(3 1.23773e-08 0)
(3 1.29914e-10 0)
(3 1.16889e-12 0)
(3 8.7725e-15 0)
(2.52878 0.692098 0)
(2.54627 0.693845 0)
(2.56267 0.705891 0)
(2.55737 0.719933 0)
(2.55529 0.694762 0)
(2.66166 0.532659 0)
(2.93725 0.0894807 0)
(3.00391 -0.00734061 0)
(3.00044 -0.000709081 0)
(3.00001 -1.1908e-05 0)
(3 -1.08306e-07 0)
(3 -8.41959e-10 0)
(3 -5.99487e-12 0)
(3 -3.99316e-14 0)
(3 1.27602e-15 0)
(2.52331 0.681485 0)
(2.55071 0.673429 0)
(2.56292 0.703615 0)
(2.55019 0.738127 0)
(2.55397 0.699213 0)
(2.645 0.53758 0)
(2.92619 0.12603 0)
(2.99816 0.00295286 0)
(2.99998 3.07854e-05 0)
(3 2.53001e-07 0)
(3 2.02351e-09 0)
(3 1.52586e-11 0)
(3 1.06083e-13 0)
(3 2.45617e-15 0)
(3 2.53285e-15 0)
(2.5296 0.690846 0)
(2.54797 0.660017 0)
(2.55395 0.703984 0)
(2.53367 0.755348 0)
(2.58162 0.671362 0)
(2.78173 0.318044 0)
(2.98766 0.0145902 0)
(2.99993 9.30479e-05 0)
(3 1.20172e-07 0)
(3 6.03639e-10 0)
(3 7.18017e-12 0)
(3 1.27385e-13 0)
(3 6.21402e-17 0)
(3 1.92627e-15 0)
(3 2.2481e-15 0)
(2.52991 0.703372 0)
(2.55003 0.666878 0)
(2.54833 0.712931 0)
(2.5269 0.758163 0)
(2.69856 0.512007 0)
(2.91403 0.130428 0)
(2.99794 0.00319707 0)
(2.99999 5.39334e-06 0)
(3 2.32601e-08 0)
(3 4.61313e-11 0)
(3 2.41131e-12 0)
(3 6.54186e-14 0)
(3 7.8734e-18 0)
(3 2.20472e-15 0)
(3 2.05168e-15 0)
(2.52788 0.714833 0)
(2.52807 0.708521 0)
(2.55088 0.726606 0)
(2.52722 0.762353 0)
(2.71824 0.434921 0)
(2.97013 0.04327 0)
(2.99983 0.000205151 0)
(3 8.04469e-07 0)
(3 -7.28121e-10 0)
(3 2.22893e-11 0)
(3 1.65739e-12 0)
(3 3.51846e-14 0)
(3 -1.56199e-15 0)
(3 1.40506e-15 0)
(3 1.92351e-15 0)
(2.51429 0.739354 0)
(2.509 0.753744 0)
(2.55453 0.732539 0)
(2.5745 0.700939 0)
(2.8563 0.214634 0)
(2.99515 0.00626315 0)
(2.99998 3.21195e-05 0)
(3 -6.90123e-08 0)
(3 2.74387e-10 0)
(3 1.94027e-11 0)
(3 1.95257e-12 0)
(3 7.04987e-15 0)
(3 -1.33342e-15 0)
(3 2.66683e-16 0)
(3 1.05402e-15 0)
(2.5141 0.729364 0)
(2.45915 0.813053 0)
(2.56197 0.725083 0)
(2.76098 0.454397 0)
(2.96388 0.0568693 0)
(2.99964 0.000490839 0)
(3 -3.49739e-07 0)
(3 3.58461e-09 0)
(3 1.40191e-10 0)
(3 5.48208e-12 0)
(3 4.04692e-15 0)
(3 -2.99079e-15 0)
(3 -1.83791e-15 0)
(3 4.55533e-16 0)
(3 1.27877e-15 0)
(2.48024 0.727357 0)
(2.40434 0.872816 0)
(2.66937 0.645727 0)
(2.84866 0.286126 0)
(2.99421 0.00859573 0)
(2.99998 1.93288e-05 0)
(3 2.21822e-07 0)
(3 7.78453e-10 0)
(3 -6.80151e-13 0)
(3 -4.6771e-14 0)
(3 -4.47277e-15 0)
(3 -2.625e-15 0)
(3 -1.94696e-15 0)
(3 1.0145e-15 0)
(3 1.61122e-15 0)
(2.49009 0.675025 0)
(2.46518 0.922764 0)
(2.76449 0.483116 0)
(2.96029 0.0659378 0)
(2.99952 0.000604596 0)
(3 1.26479e-06 0)
(3 -3.35412e-09 0)
(3 -7.08504e-12 0)
(3 -1.16077e-12 0)
(3 -7.83802e-15 0)
(3 -3.21954e-15 0)
(3 -2.69722e-15 0)
(3 -1.87532e-15 0)
(3 9.48081e-16 0)
(3 1.60435e-15 0)
(2.53329 0.601896 0)
(2.5118 0.819219 0)
(2.88982 0.220887 0)
(2.99481 0.00969115 0)
(2.99998 3.26627e-05 0)
(3 6.11994e-08 0)
(3 9.18016e-10 0)
(3 1.6571e-12 0)
(3 -2.1962e-14 0)
(3 -1.44595e-15 0)
(3 -3.33693e-15 0)
(3 -2.6201e-15 0)
(3 -1.53699e-15 0)
(3 4.64081e-16 0)
(3 1.46217e-15 0)
(2.57633 0.483303 0)
(2.63266 0.631745 0)
(2.95181 0.0873277 0)
(2.99925 0.00118223 0)
(3 1.54071e-06 0)
(3 -4.62924e-09 0)
(3 -1.28892e-11 0)
(3 -2.21976e-12 0)
(3 -3.96286e-14 0)
(3 -1.17468e-15 0)
(3 -3.82794e-15 0)
(3 -1.56491e-15 0)
(3 -4.97567e-16 0)
(3 1.3135e-15 0)
(3 1.28113e-15 0)
(2.63652 0.372732 0)
(2.77473 0.384134 0)
(2.98797 0.0196587 0)
(2.99992 0.000114469 0)
(3 4.58625e-07 0)
(3 2.2055e-09 0)
(3 8.74956e-12 0)
(3 1.37865e-14 0)
(3 1.15962e-15 0)
(3 -1.3518e-15 0)
(3 -4.04265e-15 0)
(3 -8.42342e-16 0)
(3 6.248e-16 0)
(3 1.24467e-15 0)
(3 3.68476e-16 0)
(2.72733 0.232564 0)
(2.88092 0.1946 0)
(2.9975 0.00398634 0)
(2.99999 1.39397e-05 0)
(3 9.36752e-09 0)
(3 -9.38632e-11 0)
(3 -6.82267e-13 0)
(3 -8.09399e-15 0)
(3 2.83399e-15 0)
(3 -5.60194e-16 0)
(3 -3.74066e-15 0)
(3 -1.25536e-15 0)
(3 1.89237e-15 0)
(3 1.31191e-15 0)
(3 1.53561e-16 0)
(2.80595 0.13639 0)
(2.95642 0.064576 0)
(2.99961 0.000556575 0)
(3 8.10334e-07 0)
(3 -5.07865e-10 0)
(3 -5.80286e-12 0)
(3 -7.86844e-13 0)
(3 -6.52318e-15 0)
(3 2.33724e-15 0)
(3 -4.93578e-16 0)
(3 -3.58822e-15 0)
(3 -1.63139e-15 0)
(3 2.35889e-15 0)
(3 1.42041e-15 0)
(3 -1.0814e-16 0)
(2.91794 0.016562 0)
(2.99236 0.0106345 0)
(2.99997 3.20923e-05 0)
(3 6.19189e-08 0)
(3 2.51627e-10 0)
(3 8.19548e-13 0)
(3 9.45603e-15 0)
(3 2.91437e-15 0)
(3 2.42013e-15 0)
(3 -3.29558e-16 0)
(3 -3.52532e-15 0)
(3 -1.76274e-15 0)
(3 2.18274e-15 0)
(3 1.21884e-15 0)
(3 -1.63704e-16 0)
(3 -1.65928e-15 0)
(3 -1.4873e-15 0)
(3 -1.22188e-15 0)
(3 5.29515e-16 0)
(3 5.86729e-16 0)
(3 1.23516e-16 0)
(3 1.88031e-15 0)
(3 2.20872e-15 0)
(3 2.13043e-15 0)
(3 -7.64926e-17 0)
(3 -3.19591e-15 0)
(3 -1.68493e-15 0)
(3 2.13119e-15 0)
(3 6.21873e-16 0)
(3 -5.38529e-16 0)
(3 -7.32631e-16 0)
(3 -6.731e-16 0)
(3 -1.26599e-15 0)
(3 3.18815e-16 0)
(3 6.39153e-16 0)
(3 8.79627e-18 0)
(3 2.00414e-15 0)
(3 2.13734e-15 0)
(3 1.95268e-15 0)
(3 -1.57245e-16 0)
(3 -2.7014e-15 0)
(3 -1.84736e-15 0)
(3 1.19819e-15 0)
(3 1.11539e-15 0)
(3 -2.80997e-16 0)
(3 -1.87595e-16 0)
(3 -2.0098e-16 0)
(3 -6.74034e-16 0)
(3 3.63448e-16 0)
(3 3.21047e-16 0)
(3 5.87017e-17 0)
(3 1.68062e-15 0)
(3 1.53934e-15 0)
(3 1.97862e-15 0)
(3 -1.25184e-16 0)
(3 -2.14469e-15 0)
(3 -1.98909e-15 0)
(3 -9.56608e-17 0)
(3 1.5061e-15 0)
(3 -5.297e-17 0)
(3 -2.57167e-17 0)
(3 5.53531e-16 0)
(3 1.62459e-15 0)
(3 1.39823e-15 0)
(3 -1.78729e-16 0)
(3 -4.80889e-16 0)
(3 8.14438e-16 0)
(3 1.30096e-15 0)
(3 1.92059e-15 0)
(3 -6.02843e-17 0)
(3 -1.54892e-15 0)
(3 -2.32222e-15 0)
(3 -3.64373e-16 0)
(3 1.89594e-15 0)
(3 8.95604e-16 0)
(3 -1.81366e-16 0)
(3 1.22303e-15 0)
(3 2.98906e-15 0)
(3 1.27917e-15 0)
(3 -8.52419e-16 0)
(3 -1.3888e-15 0)
(3 7.7568e-16 0)
(3 1.43374e-15 0)
(3 1.68318e-15 0)
(3 6.31142e-16 0)
(3 -7.28587e-16 0)
(3 -2.56546e-15 0)
(3 -4.37836e-16 0)
(3 1.63751e-15 0)
(3 7.7432e-16 0)
(3 -2.63862e-16 0)
(3 1.12118e-15 0)
(3 3.03097e-15 0)
(3 1.36492e-15 0)
(3 -1.37204e-15 0)
(3 -1.93351e-15 0)
(3 1.33646e-15 0)
(3 1.73631e-15 0)
(3 1.36373e-15 0)
(3 1.52524e-15 0)
(3 -7.54342e-16 0)
(3 -3.27672e-15 0)
(3 -6.17119e-16 0)
(3 1.18004e-15 0)
(3 2.81557e-16 0)
(3 6.54873e-16 0)
(3 1.88293e-15 0)
(3 1.83236e-15 0)
(3 3.20148e-16 0)
(3 -1.57007e-15 0)
(3 -2.13281e-15 0)
(3 1.32323e-15 0)
(3 1.55826e-15 0)
(3 1.25453e-15 0)
(3 1.81628e-15 0)
(3 -6.01597e-16 0)
(3 -3.26574e-15 0)
(3 -4.90617e-16 0)
(3 5.37407e-16 0)
(3 -2.50187e-16 0)
(3 1.10286e-15 0)
(3 6.36866e-16 0)
(3 2.39207e-16 0)
(3 -4.93653e-17 0)
(3 -1.48685e-15 0)
(3 -1.6377e-15 0)
(3 1.38519e-15 0)
(3 1.57552e-15 0)
(3 1.29079e-15 0)
(3 1.65284e-15 0)
(3 -6.43915e-16 0)
(3 -1.66695e-15 0)
(3 -1.53489e-16 0)
(3 -4.76825e-16 0)
(3 -5.29761e-16 0)
(3 -2.91115e-16 0)
(3 -4.68929e-16 0)
(3 3.09781e-16 0)
(3 -2.77563e-17 0)
(3 -8.32237e-16 0)
(3 -5.55914e-16 0)
(3 5.84228e-16 0)
(3 1.18315e-15 0)
(3 1.38249e-15 0)
(3 6.86628e-16 0)
(3 -9.6024e-16 0)
(3 -6.58785e-16 0)
(3 7.19721e-17 0)
(3 -7.08941e-16 0)
(3 -3.86556e-16 0)
(3 -7.90154e-16 0)
(3 -6.98594e-16 0)
(3 6.62312e-17 0)
(3 9.54988e-16 0)
(3 -8.32167e-17 0)
(3 -6.64674e-16 0)
(3 -2.898e-16 0)
(3 4.25015e-16 0)
(3 1.01728e-15 0)
(3 4.13138e-16 0)
(3 -2.88307e-16 0)
(3 -1.47194e-16 0)
(3 1.71479e-16 0)
(3 -6.55944e-16 0)
(3 -3.29471e-16 0)
(3 -1.49308e-15 0)
(3 -9.67356e-16 0)
(3 -1.04197e-16 0)
(3 -6.57526e-17 0)
(3 -3.93127e-16 0)
(3 -5.37215e-16 0)
(3 2.9337e-16 0)
(3 6.47737e-16 0)
(3 -8.24072e-17 0)
(3 -1.08562e-16 0)
(3 9.53342e-16 0)
(3 8.3568e-16 0)
(3 6.51297e-16 0)
(3 -4.89432e-16 0)
(3 -1.43426e-15 0)
(3 -1.52854e-15 0)
(3 -7.00896e-16 0)
(3 1.11646e-16 0)
(3 5.90419e-16 0)
(3 3.98576e-16 0)
(3 6.60249e-16 0)
(3 1.2109e-15 0)
(3 1.2752e-15 0)
(3 -3.17535e-17 0)
(3 -6.84073e-16 0)
(3 -1.02016e-15 0)
(3 -9.31776e-16 0)
(3 5.55936e-16 0)
(3 2.22661e-15 0)
(3 4.02018e-16 0)
(3 -1.13573e-15 0)
(3 9.80958e-17 0)
(3 4.87294e-16 0)
(3 4.70224e-16 0)
(3 1.07353e-15 0)
(3 2.39341e-16 0)
(3 -8.02934e-16 0)
(3 5.61561e-16 0)
(3 1.09067e-15 0)
(3 2.15058e-16 0)
(3 -1.00152e-15 0)
(3 2.59306e-16 0)
(3 7.49294e-16 0)
(3 1.33167e-15 0)
(3 2.15947e-16 0)
(3 -4.72866e-16 0)
(3 -7.93138e-16 0)
(3 -6.61727e-17 0)
(3 -9.92187e-16 0)
(3 -1.20977e-15 0)
(3 -1.38287e-15 0)
(3 -1.2193e-15 0)
(3 2.98539e-16 0)
(3 1.27179e-16 0)
(3 -3.44791e-17 0)
(3 9.55945e-16 0)
(3 1.34598e-15 0)
(3 7.67722e-16 0)
(3 -5.43629e-16 0)
(3 -8.40825e-16 0)
(3 -2.77992e-15 0)
(3 -2.41742e-15 0)
(3 -2.30158e-15 0)
(3 -1.985e-15 0)
(3 -4.22358e-16 0)
(3 6.91977e-16 0)
(3 9.37417e-16 0)
(3 2.81715e-16 0)
(3 9.75779e-17 0)
(3 8.95343e-16 0)
(3 -1.27607e-16 0)
(3 -1.83697e-15 0)
(3 -2.98158e-15 0)
(3 -3.10038e-15 0)
(3 -2.15238e-15 0)
(3 -1.11403e-15 0)
(3 -5.2139e-16 0)
(3 -7.32253e-16 0)
(3 3.92202e-16 0)
(3 7.52237e-16 0)
(3 1.75523e-16 0)
(3 -8.92558e-16 0)
(3 -1.07329e-15 0)
(3 -9.18651e-16 0)
(3 -1.10776e-15 0)
(3 -7.80333e-16 0)
(3 -3.36021e-16 0)
(3 -2.05407e-16 0)
(3 4.44786e-16 0)
(3 9.24193e-16 0)
(3 -1.1013e-16 0)
(3 1.8844e-16 0)
(3 6.9042e-16 0)
(3 8.86283e-16 0)
(3 1.10021e-15 0)
(3 -6.96705e-17 0)
(3 -1.29286e-15 0)
(3 -1.63942e-15 0)
(3 -1.65017e-15 0)
(3 -6.99404e-16 0)
(3 3.36823e-16 0)
(3 5.33729e-17 0)
(3 3.95426e-17 0)
(3 3.66048e-16 0)
(3 8.73795e-16 0)
(3 1.36387e-15 0)
(3 6.57286e-16 0)
(3 3.13924e-16 0)
(3 -5.18767e-16 0)
(3 -5.65631e-16 0)
(3 -1.68167e-17 0)
(3 3.2947e-16 0)
(3 8.35309e-16 0)
(3 1.67063e-15 0)
(3 2.22433e-15 0)
(3 2.23554e-15 0)
(3 3.17023e-15 0)
(3 2.28519e-15 0)
(3 8.9021e-16 0)
(3 3.51279e-16 0)
(3 8.97296e-17 0)
(3 1.06084e-15 0)
(3 1.64343e-15 0)
(3 2.03474e-15 0)
(3 2.03276e-15 0)
(3 1.49158e-15 0)
(3 1.10401e-15 0)
(3 9.81629e-16 0)
(3 6.4719e-16 0)
(3 4.4934e-16 0)
(3 -8.37392e-16 0)
(3 -6.56415e-16 0)
(3 -6.9385e-16 0)
(3 -8.80462e-16 0)
(3 -1.28515e-15 0)
(3 -1.23866e-15 0)
(3 -1.15544e-15 0)
(3 -6.83856e-16 0)
(3 -3.30842e-16 0)
(3 -1.92557e-18 0)
(3 -2.05342e-15 0)
(3 -1.62234e-15 0)
(3 -1.59927e-15 0)
(3 -2.14904e-15 0)
(3 -2.79331e-15 0)
(3 -3.0659e-15 0)
(3 -2.94399e-15 0)
(3 -1.84569e-15 0)
(3 -1.3177e-15 0)
(3 -1.2321e-16 0)
(3 1.37408e-15 0)
(3 1.60559e-15 0)
(3 1.32841e-15 0)
(3 8.65713e-16 0)
(3 3.67933e-16 0)
(3 -3.23111e-16 0)
(3 -4.34024e-16 0)
(3 -5.65119e-16 0)
(3 -2.01529e-16 0)
(3 5.47209e-16 0)
(3 3.64657e-15 0)
(3 2.98895e-15 0)
(3 1.82799e-15 0)
(3 1.11546e-15 0)
(3 1.04797e-15 0)
(3 5.99111e-16 0)
(3 8.95998e-16 0)
(3 7.12426e-16 0)
(3 -4.61971e-17 0)
(3 -4.25616e-16 0)
(3 2.21775e-15 0)
(3 1.3243e-15 0)
(3 1.02665e-15 0)
(3 7.84752e-16 0)
(3 7.96999e-16 0)
(3 9.51575e-17 0)
(3 -7.88713e-17 0)
(3 2.6821e-16 0)
(3 3.77206e-16 0)
(3 -3.6687e-17 0)
(3 1.29944e-15 0)
(3 1.57233e-15 0)
(3 1.55591e-15 0)
(3 1.34946e-15 0)
(3 1.20557e-15 0)
(3 1.15325e-15 0)
(3 7.58922e-16 0)
(3 4.70297e-16 0)
(3 8.4965e-16 0)
(3 4.34365e-16 0)
(3 1.33091e-16 0)
(3 4.42371e-16 0)
(3 5.87335e-16 0)
(3 2.65971e-16 0)
(3 7.58277e-17 0)
(3 9.59106e-17 0)
(3 2.52103e-16 0)
(3 1.08235e-16 0)
(3 1.82374e-16 0)
(3 1.09415e-16 0)
(2.84813 -0.0480647 0)
(2.99341 -0.00847141 0)
(3 2.64233e-09 0)
(3 7.77201e-15 0)
(3 -9.03784e-16 0)
(3 -1.4893e-15 0)
(3 -2.01085e-16 0)
(3 -4.54901e-17 0)
(3 -4.61567e-16 0)
(3 8.77069e-16 0)
(3 1.19409e-15 0)
(3 -1.05329e-15 0)
(3 -9.06596e-16 0)
(3 -1.05982e-15 0)
(3 -2.24028e-15 0)
(3 1.2697e-15 0)
(3 3.90871e-15 0)
(3 2.71146e-15 0)
(3 1.2648e-15 0)
(3 -8.565e-17 0)
(2.60612 -0.280937 0)
(2.89059 -0.135491 0)
(3.00029 0.000327127 0)
(3 -1.06669e-06 0)
(3 1.62597e-09 0)
(3 1.11683e-11 0)
(3 9.47384e-15 0)
(3 8.11435e-16 0)
(3 -1.29897e-15 0)
(3 6.86431e-16 0)
(3 7.81428e-16 0)
(3 -1.49231e-15 0)
(3 -1.40141e-15 0)
(3 -1.38503e-15 0)
(3 -2.75987e-15 0)
(3 9.58516e-16 0)
(3 4.05094e-15 0)
(3 3.65254e-15 0)
(3 1.33625e-15 0)
(3 -2.61084e-16 0)
(2.51509 -0.4997 0)
(2.71289 -0.444106 0)
(2.99521 -0.00653544 0)
(3.00001 2.27105e-05 0)
(3 -3.76153e-10 0)
(3 1.02349e-11 0)
(3 4.13298e-14 0)
(3 1.06419e-15 0)
(3 -3.22411e-16 0)
(3 -4.79861e-16 0)
(3 -1.13144e-15 0)
(3 -1.85186e-15 0)
(3 -1.57624e-15 0)
(3 -1.59886e-15 0)
(3 -1.60371e-15 0)
(3 6.41338e-16 0)
(3 3.39114e-15 0)
(3 4.48698e-15 0)
(3 1.91754e-15 0)
(3 -5.54306e-17 0)
(2.2942 -0.741627 0)
(2.26039 -0.990094 0)
(2.88091 -0.197044 0)
(2.99979 -0.00029019 0)
(3 -5.65702e-10 0)
(3 1.62028e-11 0)
(3 8.03448e-14 0)
(3 5.60284e-16 0)
(3 -4.48564e-16 0)
(3 -2.36233e-15 0)
(3 -1.465e-15 0)
(3 -2.5064e-15 0)
(3 -2.07514e-15 0)
(3 -1.63974e-15 0)
(3 -9.82032e-16 0)
(3 5.16359e-16 0)
(3 3.37052e-15 0)
(3 4.9317e-15 0)
(3 2.4586e-15 0)
(3 4.71179e-16 0)
(2.18274 -0.858315 0)
(2.09616 -1.07849 0)
(2.5711 -0.677699 0)
(2.92482 -0.121901 0)
(3.00005 0.000166232 0)
(3 3.84775e-07 0)
(3 3.64296e-10 0)
(3 -3.21204e-13 0)
(3 -4.67221e-15 0)
(3 -1.70406e-15 0)
(3 -3.01695e-15 0)
(3 -4.15038e-15 0)
(3 -2.03677e-15 0)
(3 -8.30246e-16 0)
(3 -9.53557e-16 0)
(3 1.29052e-16 0)
(3 4.09785e-15 0)
(3 5.22611e-15 0)
(3 3.49208e-15 0)
(3 1.85406e-15 0)
(2.20269 -0.901255 0)
(2.14378 -1.02252 0)
(2.3337 -0.943848 0)
(2.60243 -0.574631 0)
(2.96231 -0.0474163 0)
(3.00007 0.000109547 0)
(3 6.81314e-07 0)
(3 3.14871e-10 0)
(3 -2.6673e-12 0)
(3 -1.42188e-13 0)
(3 -3.25965e-15 0)
(3 -4.42158e-15 0)
(3 -1.66123e-15 0)
(3 2.11049e-16 0)
(3 -5.68936e-16 0)
(3 -1.23067e-16 0)
(3 3.53809e-15 0)
(3 5.04505e-15 0)
(3 4.74595e-15 0)
(3 2.37387e-15 0)
(2.22799 -0.912823 0)
(2.2062 -0.951236 0)
(2.25 -0.927583 0)
(2.33102 -0.866585 0)
(2.72293 -0.360793 0)
(2.99168 -0.010123 0)
(3.00002 3.8254e-05 0)
(3 1.21419e-06 0)
(3 -4.14348e-11 0)
(3 -2.22983e-12 0)
(3 -1.76958e-13 0)
(3 -5.87004e-15 0)
(3 -9.64001e-16 0)
(3 5.70443e-16 0)
(3 2.51074e-16 0)
(3 9.44372e-16 0)
(3 2.03127e-15 0)
(3 4.1931e-15 0)
(3 4.9562e-15 0)
(3 2.57515e-15 0)
(2.25308 -0.891675 0)
(2.25501 -0.887905 0)
(2.25629 -0.914029 0)
(2.21942 -0.975428 0)
(2.36193 -0.774338 0)
(2.835 -0.187904 0)
(2.99931 -0.000951222 0)
(3 1.2486e-07 0)
(3 6.96022e-09 0)
(3 4.91155e-11 0)
(3 -1.07311e-13 0)
(3 -1.18767e-14 0)
(3 -6.75121e-16 0)
(3 8.0817e-16 0)
(3 1.36966e-15 0)
(3 1.99332e-15 0)
(3 1.239e-15 0)
(3 2.26636e-15 0)
(3 4.21227e-15 0)
(3 1.8443e-15 0)
(2.25033 -0.881269 0)
(2.26391 -0.870682 0)
(2.26802 -0.905444 0)
(2.24081 -0.944823 0)
(2.32743 -0.840543 0)
(2.62998 -0.50115 0)
(2.96617 -0.0432269 0)
(3.00002 4.63137e-05 0)
(3 2.31009e-06 0)
(3 -2.89727e-09 0)
(3 -1.11056e-10 0)
(3 -7.99645e-14 0)
(3 -1.21738e-16 0)
(3 2.03421e-15 0)
(3 2.02554e-15 0)
(3 3.12859e-15 0)
(3 5.90864e-16 0)
(3 1.11444e-15 0)
(3 2.59957e-15 0)
(3 8.72814e-16 0)
(2.24218 -0.877599 0)
(2.26142 -0.876121 0)
(2.28188 -0.88597 0)
(2.27312 -0.900582 0)
(2.29218 -0.875847 0)
(2.30179 -0.855859 0)
(2.74046 -0.310307 0)
(2.99418 -0.00691461 0)
(3.00001 3.71505e-06 0)
(3 5.01733e-07 0)
(3 -3.60949e-12 0)
(3 -1.18621e-11 0)
(3 -2.70089e-14 0)
(3 1.67292e-15 0)
(3 2.21754e-15 0)
(3 2.54622e-15 0)
(3 1.20332e-15 0)
(3 4.8666e-16 0)
(3 1.15512e-15 0)
(3 6.11367e-16 0)
(2.24927 -0.879773 0)
(2.2619 -0.881857 0)
(2.28013 -0.880859 0)
(2.28332 -0.875626 0)
(2.27851 -0.878141 0)
(2.22227 -0.922957 0)
(2.51195 -0.598303 0)
(2.92284 -0.0958171 0)
(2.99987 -0.000125557 0)
(3 2.16815e-07 0)
(3 1.90415e-08 0)
(3 1.37464e-10 0)
(3 5.26369e-13 0)
(3 2.57901e-15 0)
(3 2.27667e-15 0)
(3 8.49852e-16 0)
(3 1.55954e-15 0)
(3 2.32621e-15 0)
(3 1.34385e-15 0)
(3 5.63884e-16 0)
(2.25222 -0.880215 0)
(2.26241 -0.881265 0)
(2.27948 -0.877939 0)
(2.28577 -0.873342 0)
(2.27477 -0.877743 0)
(2.24481 -0.880812 0)
(2.38773 -0.76192 0)
(2.71316 -0.364237 0)
(2.98857 -0.0143582 0)
(3 -3.0657e-05 0)
(3 -1.78047e-07 0)
(3 -3.04416e-10 0)
(3 3.23864e-11 0)
(3 -3.1317e-12 0)
(3 -1.10986e-13 0)
(3 -7.58033e-16 0)
(3 1.61283e-15 0)
(3 2.99196e-15 0)
(3 1.66355e-15 0)
(3 8.51407e-16 0)
(2.25453 -0.881042 0)
(2.26306 -0.879294 0)
(2.27479 -0.877503 0)
(2.28157 -0.87537 0)
(2.2785 -0.880425 0)
(2.26897 -0.887818 0)
(2.27819 -0.900537 0)
(2.43758 -0.701529 0)
(2.8884 -0.130252 0)
(2.99974 -0.000267169 0)
(3 5.85699e-07 0)
(3 2.82826e-08 0)
(3 -6.96146e-11 0)
(3 -1.37342e-11 0)
(3 4.3339e-14 0)
(3 1.6345e-14 0)
(3 1.49708e-15 0)
(3 2.95605e-15 0)
(3 2.06611e-15 0)
(3 1.03946e-15 0)
(2.25264 -0.882379 0)
(2.25885 -0.879059 0)
(2.26754 -0.878434 0)
(2.27645 -0.880458 0)
(2.27787 -0.885212 0)
(2.2648 -0.890731 0)
(2.24807 -0.90931 0)
(2.38651 -0.77945 0)
(2.68801 -0.407681 0)
(2.97672 -0.0437786 0)
(2.9998 -0.000321033 0)
(3 -1.85914e-06 0)
(3 -8.63055e-09 0)
(3 -4.50387e-11 0)
(3 3.34167e-13 0)
(3 4.09727e-14 0)
(3 1.15542e-15 0)
(3 2.42268e-15 0)
(3 1.9712e-15 0)
(3 9.39257e-16 0)
(2.24867 -0.884748 0)
(2.25374 -0.883461 0)
(2.26134 -0.887418 0)
(2.27006 -0.890105 0)
(2.27466 -0.890316 0)
(2.26356 -0.891781 0)
(2.24962 -0.895146 0)
(2.30842 -0.85347 0)
(2.46565 -0.683316 0)
(2.95612 -0.042505 0)
(3.00485 0.0071247 0)
(3.00037 0.000560345 0)
(3 6.25075e-06 0)
(3 3.31092e-08 0)
(3 1.70915e-10 0)
(3 9.9113e-13 0)
(3 6.98092e-15 0)
(3 2.04666e-15 0)
(3 8.49356e-16 0)
(3 2.97118e-16 0)
(2.25787 -0.834789 0)
(2.58536 -0.638527 0)
(2.4072 -0.774356 0)
(2.33019 -0.841607 0)
(2.30465 -0.867533 0)
(2.28077 -0.878952 0)
(2.26321 -0.884389 0)
(2.28 -0.88497 0)
(2.30668 -0.87135 0)
(2.58726 -0.523896 0)
(2.91398 -0.146409 0)
(2.99549 -0.0112483 0)
(2.99989 -0.000272171 0)
(3 -3.80856e-06 0)
(3 -4.2278e-08 0)
(3 -4.08261e-10 0)
(3 -3.31499e-12 0)
(3 -2.19574e-14 0)
(3 -4.38216e-16 0)
(3 -3.7785e-16 0)
(1.95037 -1.02466 0)
(2.75474 -0.238601 0)
(2.62831 -0.512755 0)
(2.49023 -0.689794 0)
(2.4081 -0.77066 0)
(2.33996 -0.831725 0)
(2.29931 -0.852964 0)
(2.2849 -0.887494 0)
(2.27474 -0.851514 0)
(2.27046 -0.86696 0)
(2.55553 -0.583028 0)
(2.91189 -0.146602 0)
(2.99601 -0.00966526 0)
(2.99991 -0.000230348 0)
(3 -3.17493e-06 0)
(3 -3.44898e-08 0)
(3 -3.36196e-10 0)
(3 -2.87212e-12 0)
(3 -2.12607e-14 0)
(3 -2.96701e-16 0)
(2.2653 -0.307683 0)
(2.80346 0.426554 0)
(2.82453 -0.0646754 0)
(2.70084 -0.405252 0)
(2.53903 -0.632067 0)
(2.47708 -0.690127 0)
(2.37464 -0.791732 0)
(2.32462 -0.860296 0)
(2.28825 -0.838663 0)
(2.26049 -0.876966 0)
(2.34007 -0.806753 0)
(2.65463 -0.483608 0)
(2.94449 -0.100521 0)
(2.998 -0.0045811 0)
(2.99997 -8.12698e-05 0)
(3 -9.61622e-07 0)
(3 -9.18579e-09 0)
(3 -7.94313e-11 0)
(3 -6.24672e-13 0)
(3 -4.07736e-15 0)
(2.3365 0.357874 0)
(2.79587 0.758926 0)
(2.9252 0.382958 0)
(2.85429 -0.00763176 0)
(2.74157 -0.329573 0)
(2.58488 -0.558633 0)
(2.52012 -0.648713 0)
(2.40168 -0.790903 0)
(2.33473 -0.804851 0)
(2.28696 -0.851366 0)
(2.29084 -0.836577 0)
(2.39922 -0.745269 0)
(2.76526 -0.353888 0)
(2.97674 -0.0478578 0)
(2.99936 -0.00145724 0)
(2.99999 -2.12479e-05 0)
(3 -2.44203e-07 0)
(3 -2.30926e-09 0)
(3 -1.91295e-11 0)
(3 -1.20635e-13 0)
(2.49897 0.779165 0)
(2.71724 1.19342 0)
(2.98038 0.447799 0)
(2.95384 0.166189 0)
(2.89264 0.0158578 0)
(2.70599 -0.374314 0)
(2.66733 -0.454017 0)
(2.49194 -0.693732 0)
(2.4478 -0.703182 0)
(2.3313 -0.80292 0)
(2.29762 -0.828589 0)
(2.30789 -0.824914 0)
(2.50054 -0.649647 0)
(2.85875 -0.224794 0)
(2.99124 -0.0187644 0)
(2.99983 -0.000372671 0)
(3 -4.0045e-06 0)
(3 -3.70247e-08 0)
(3 -2.96255e-10 0)
(3 -1.84436e-12 0)
(2.4586 0.979678 0)
(2.7288 1.12719 0)
(2.92828 0.568317 0)
(3.03565 0.317054 0)
(2.97445 0.0952791 0)
(2.89417 -0.0433892 0)
(2.71749 -0.38703 0)
(2.64341 -0.48549 0)
(2.52462 -0.634909 0)
(2.43294 -0.714067 0)
(2.34313 -0.791436 0)
(2.31174 -0.821929 0)
(2.34075 -0.802694 0)
(2.63115 -0.504715 0)
(2.94874 -0.0920767 0)
(2.99826 -0.00408355 0)
(2.99997 -6.10542e-05 0)
(3 -5.94974e-07 0)
(3 -5.14601e-09 0)
(3 -3.34098e-11 0)
(2.6544 0.949287 0)
(2.79678 1.02454 0)
(2.98457 0.774668 0)
(3.07397 0.828822 0)
(2.96767 0.115764 0)
(2.97273 0.144421 0)
(2.83339 -0.195475 0)
(2.74256 -0.323548 0)
(2.60929 -0.54108 0)
(2.55461 -0.591781 0)
(2.40354 -0.744706 0)
(2.33504 -0.799917 0)
(2.33955 -0.806643 0)
(2.43908 -0.720747 0)
(2.76351 -0.349378 0)
(2.9817 -0.0326929 0)
(2.99962 -0.000774193 0)
(3 -8.42508e-06 0)
(3 -6.8326e-08 0)
(3 -4.26003e-10 0)
(2.75249 0.885189 0)
(2.86955 0.929668 0)
(3.01531 0.865288 0)
(3.01793 0.950326 0)
(3.04537 0.533377 0)
(2.97058 0.132207 0)
(2.95497 0.110007 0)
(2.76609 -0.28412 0)
(2.73531 -0.323998 0)
(2.60827 -0.536218 0)
(2.51944 -0.63124 0)
(2.38942 -0.75006 0)
(2.34814 -0.798169 0)
(2.36868 -0.79216 0)
(2.58403 -0.577926 0)
(2.90695 -0.15717 0)
(2.99705 -0.00584983 0)
(2.99996 -7.58368e-05 0)
(3 -6.7519e-07 0)
(3 -4.35671e-09 0)
(2.77361 0.8473 0)
(2.86676 0.814583 0)
(3.01476 0.855177 0)
(3.04294 0.966978 0)
(3.03524 0.765207 0)
(3.00566 0.362512 0)
(2.99156 0.253862 0)
(2.84289 -0.119964 0)
(2.79873 -0.197081 0)
(2.67526 -0.443151 0)
(2.60896 -0.505765 0)
(2.46802 -0.669504 0)
(2.38434 -0.759303 0)
(2.37269 -0.788186 0)
(2.49079 -0.680853 0)
(2.81825 -0.301387 0)
(2.98177 -0.0381148 0)
(2.99964 -0.000719165 0)
(3 -6.80721e-06 0)
(3 -4.52303e-08 0)
(2.786 0.766652 0)
(2.83868 0.705919 0)
(3.00887 0.832951 0)
(3.11701 1.01427 0)
(3.11267 0.754743 0)
(3.05831 0.595344 0)
(2.99489 0.280372 0)
(2.95964 0.13956 0)
(2.79457 -0.217544 0)
(2.77735 -0.253369 0)
(2.63091 -0.487944 0)
(2.56374 -0.54267 0)
(2.43013 -0.711344 0)
(2.38349 -0.777587 0)
(2.40717 -0.767662 0)
(2.59706 -0.577224 0)
(2.92864 -0.120859 0)
(2.99767 -0.00501561 0)
(2.99997 -5.47426e-05 0)
(3 -3.65451e-07 0)
(2.75632 0.745839 0)
(2.80972 0.710232 0)
(2.96752 0.838147 0)
(3.13085 0.991878 0)
(3.18218 0.657368 0)
(3.12123 0.647343 0)
(3.02087 0.292338 0)
(2.99669 0.27773 0)
(2.83873 -0.114005 0)
(2.83235 -0.125175 0)
(2.68289 -0.408156 0)
(2.61528 -0.492676 0)
(2.4934 -0.650262 0)
(2.42281 -0.740274 0)
(2.40903 -0.772716 0)
(2.49702 -0.712262 0)
(2.81693 -0.291602 0)
(2.98795 -0.0223272 0)