/*--------------------------------*- C++ -*----------------------------------*\
  =========                 |
  \\      /  F ield         | OpenFOAM: The Open Source CFD Toolbox
   \\    /   O peration     | Website:  https://openfoam.org
    \\  /    A nd           | Version:  7
     \\/     M anipulation  |
\*---------------------------------------------------------------------------*/
FoamFile
{
    version     2.0;
    format      ascii;
    class       volScalarField;
    location    "4.8";
    object      T;
}
// * * * * * * * * * * * * * * * * * * * * * * * * * * * * * * * * * * * * * //

dimensions      [0 0 0 1 0 0 0];

internalField   nonuniform List<scalar> 
324000
(
0.887386
1.03442
1.17611
1.26289
1.28142
1.27499
1.26252
1.26091
1.25432
1.24088
1.23558
1.23743
1.24396
1.24208
1.23421
1.22604
1.22098
1.22001
1.21866
1.21556
1.2103
1.20499
1.20127
1.19889
1.19598
1.19228
1.18823
1.18458
1.18147
1.17759
1.17374
1.17005
1.1669
1.16411
1.16129
1.15874
1.15602
1.1524
1.14828
1.14466
1.14183
1.13945
1.1373
1.13519
1.1329
1.13018
1.12703
1.12425
1.12224
1.12062
1.11899
1.11704
1.1148
1.11261
1.11073
1.1092
1.10788
1.10663
1.10542
1.1043
1.10304
1.10111
1.099
1.0976
1.09718
1.0968
1.09562
1.09431
1.09342
1.09298
1.09283
1.09332
1.095
1.09606
1.09632
1.09691
1.09817
1.09893
1.09862
1.09898
0.521525
0.523747
0.648357
0.952413
1.1849
1.29029
1.32333
1.32762
1.31123
1.3143
1.31297
1.31152
1.3067
1.29747
1.29152
1.28827
1.28846
1.28648
1.2816
1.27532
1.2701
1.26617
1.26266
1.2585
1.25369
1.24954
1.24637
1.24336
1.23878
1.23258
1.22733
1.22337
1.21979
1.21625
1.21233
1.20865
1.20495
1.20044
1.19535
1.19054
1.18636
1.18261
1.17902
1.17515
1.17103
1.16689
1.16251
1.15807
1.15402
1.15058
1.14758
1.14457
1.14143
1.13822
1.1351
1.13241
1.13025
1.12822
1.12602
1.12371
1.12174
1.1201
1.11817
1.11589
1.11423
1.11314
1.11187
1.11009
1.10865
1.10785
1.10717
1.1069
1.10734
1.10855
1.10963
1.10969
1.10989
1.11068
1.11154
1.11299
0.521006
0.519796
0.518419
0.516883
0.619285
0.855517
1.08313
1.22591
1.30195
1.36404
1.35936
1.35163
1.3332
1.31467
1.31776
1.32289
1.32586
1.32445
1.31837
1.31181
1.30725
1.3066
1.3054
1.30268
1.29821
1.29379
1.29175
1.2904
1.28695
1.28199
1.27727
1.27354
1.27013
1.26641
1.26277
1.25914
1.25486
1.24961
1.24364
1.23833
1.23414
1.23011
1.22607
1.22182
1.2172
1.21232
1.20734
1.20248
1.19784
1.19353
1.1894
1.18517
1.18088
1.17665
1.17241
1.16857
1.16549
1.16271
1.1596
1.15601
1.15237
1.14901
1.14597
1.14334
1.14097
1.13856
1.13622
1.13404
1.13229
1.13098
1.12976
1.12895
1.12871
1.12873
1.12936
1.13001
1.13012
1.13032
1.13073
1.13287
0.519451
0.517973
0.516721
0.515697
0.514642
0.513386
0.535862
0.681082
0.957174
1.14575
1.24969
1.31232
1.31337
1.32846
1.33466
1.34105
1.34009
1.33502
1.33127
1.3303
1.32918
1.32704
1.32413
1.32195
1.32012
1.32054
1.31916
1.3166
1.31297
1.30982
1.3078
1.30611
1.3036
1.30008
1.29692
1.29442
1.29091
1.28651
1.2822
1.27865
1.27527
1.27183
1.26821
1.26451
1.2606
1.25627
1.25175
1.24723
1.24267
1.23821
1.23388
1.22906
1.2238
1.21866
1.21418
1.21027
1.20699
1.20378
1.19978
1.19508
1.19021
1.18563
1.18166
1.17819
1.17497
1.17168
1.16848
1.16557
1.16321
1.16133
1.15947
1.15804
1.15754
1.15733
1.15729
1.15749
1.15786
1.15812
1.15825
1.15997
0.517443
0.516055
0.514847
0.513896
0.513156
0.512517
0.511775
0.511119
0.510348
0.574524
0.818146
1.04457
1.2079
1.32342
1.33125
1.33837
1.33633
1.32784
1.32936
1.33425
1.33488
1.33322
1.32934
1.32636
1.32689
1.32909
1.32926
1.32682
1.324
1.32268
1.32216
1.32096
1.3191
1.31726
1.31531
1.31302
1.31047
1.30794
1.30579
1.30427
1.30235
1.29986
1.29689
1.2935
1.29004
1.28667
1.28312
1.27925
1.27515
1.2714
1.26763
1.26396
1.26021
1.25614
1.25181
1.24778
1.24435
1.24121
1.23786
1.23361
1.2292
1.22479
1.22033
1.21626
1.21259
1.20901
1.20545
1.20201
1.19906
1.19664
1.1942
1.1921
1.19097
1.19048
1.19016
1.18986
1.18979
1.19
1.19018
1.19167
0.515479
0.514196
0.513204
0.512498
0.511836
0.511249
0.510871
0.510445
0.509953
0.509479
0.508988
0.521023
0.737553
1.00988
1.16915
1.27413
1.29164
1.31578
1.3258
1.33755
1.33644
1.33219
1.3287
1.32697
1.3297
1.33125
1.33
1.32703
1.32525
1.3259
1.32584
1.32488
1.32303
1.32205
1.32177
1.32074
1.31885
1.31688
1.31577
1.31453
1.31326
1.31197
1.31045
1.30875
1.30664
1.30377
1.30065
1.29809
1.2962
1.2944
1.29237
1.29
1.28759
1.2849
1.28163
1.27774
1.27431
1.27121
1.26791
1.26461
1.26119
1.25733
1.25283
1.2486
1.24492
1.24149
1.23807
1.23487
1.23214
1.23008
1.2283
1.22665
1.22556
1.22489
1.22398
1.22289
1.22238
1.22205
1.22185
1.2228
0.513648
0.512626
0.51194
0.511401
0.510845
0.510341
0.510062
0.509751
0.509303
0.508961
0.508731
0.508393
0.508
0.508882
0.683356
0.929797
1.12403
1.2701
1.30627
1.32463
1.3268
1.32296
1.32361
1.32692
1.32898
1.32734
1.32477
1.32341
1.32471
1.32705
1.32612
1.32387
1.32236
1.32198
1.32167
1.32065
1.31878
1.31709
1.317
1.31661
1.3154
1.31445
1.31373
1.31312
1.31248
1.31139
1.30985
1.30848
1.30726
1.30611
1.30481
1.30285
1.3
1.29754
1.29595
1.29483
1.29319
1.29119
1.28866
1.28495
1.28106
1.27833
1.27599
1.27342
1.27033
1.26697
1.26399
1.26163
1.25982
1.25844
1.25698
1.25543
1.25404
1.2534
1.25269
1.25165
1.25104
1.25042
1.2499
1.2501
0.512216
0.511474
0.510976
0.510555
0.510067
0.509653
0.509421
0.509167
0.508836
0.50853
0.508333
0.508129
0.507899
0.507755
0.507729
0.507673
0.625944
0.887333
1.09427
1.23719
1.27638
1.30302
1.31597
1.32831
1.32566
1.32049
1.31595
1.31792
1.32346
1.32335
1.3214
1.31881
1.31919
1.32041
1.3199
1.31801
1.31635
1.31682
1.317
1.31608
1.31502
1.31442
1.3139
1.31331
1.31269
1.31235
1.31174
1.31085
1.30956
1.3082
1.30667
1.30529
1.30377
1.30233
1.30101
1.29984
1.29881
1.29772
1.29662
1.29513
1.29317
1.29176
1.29002
1.28801
1.28582
1.2835
1.28137
1.27955
1.27791
1.27637
1.27464
1.27359
1.27281
1.27195
1.27114
1.27021
1.26974
1.26979
1.26925
1.26911
0.511067
0.510563
0.510208
0.509861
0.509463
0.509129
0.508926
0.508715
0.508473
0.508221
0.508047
0.507885
0.507719
0.50767
0.507682
0.507681
0.507626
0.507349
0.597589
0.835504
1.0688
1.24162
1.29192
1.31517
1.31401
1.30622
1.30873
1.3147
1.3181
1.31597
1.3117
1.31217
1.31539
1.31561
1.31415
1.31242
1.31307
1.31467
1.31428
1.31324
1.31282
1.31285
1.31264
1.31226
1.31176
1.31123
1.31047
1.30953
1.30854
1.30758
1.30676
1.30612
1.30548
1.30474
1.30375
1.30235
1.30076
1.29945
1.29851
1.29831
1.29776
1.2967
1.29443
1.29208
1.29029
1.28885
1.28739
1.28583
1.28432
1.28361
1.2841
1.28497
1.28521
1.28464
1.28339
1.28156
1.28077
1.28032
1.27972
1.27922
0.510122
0.509819
0.509566
0.509284
0.508962
0.508699
0.508548
0.508409
0.508246
0.508024
0.507826
0.507686
0.507596
0.507595
0.507636
0.507656
0.50762
0.507431
0.507148
0.507032
0.575294
0.830177
1.05899
1.22491
1.26311
1.29008
1.30644
1.31549
1.31266
1.30458
1.30473
1.30879
1.31234
1.31053
1.30715
1.30744
1.30974
1.31089
1.30965
1.30896
1.30949
1.30988
1.30967
1.30944
1.3092
1.30869
1.30798
1.30735
1.30681
1.3062
1.30577
1.30541
1.30519
1.30475
1.30402
1.30284
1.30153
1.30043
1.29963
1.29874
1.29798
1.2967
1.29522
1.2939
1.29251
1.29101
1.28983
1.28912
1.28878
1.28897
1.2898
1.29057
1.29068
1.29046
1.2897
1.28824
1.28789
1.28726
1.28679
1.28571
0.509348
0.509185
0.50902
0.508782
0.508527
0.508375
0.508297
0.508219
0.508108
0.507912
0.507683
0.507529
0.507497
0.507525
0.507606
0.507643
0.507617
0.507463
0.507162
0.507044
0.507059
0.507135
0.569588
0.816623
1.07085
1.25081
1.29563
1.30904
1.30649
1.29591
1.30337
1.30931
1.30796
1.30357
1.30274
1.3053
1.30731
1.30645
1.30485
1.30506
1.30586
1.30572
1.30541
1.30543
1.30522
1.30461
1.30407
1.30391
1.30375
1.30355
1.30347
1.30344
1.30331
1.30307
1.30277
1.3021
1.30105
1.30012
1.29934
1.29836
1.2973
1.29627
1.29545
1.29456
1.29346
1.29233
1.29149
1.29104
1.29103
1.29141
1.29149
1.29161
1.29141
1.29124
1.2911
1.29053
1.29072
1.29049
1.29016
1.28907
0.508761
0.508684
0.50857
0.508363
0.508204
0.508166
0.508145
0.508111
0.508034
0.507847
0.507582
0.507435
0.50741
0.507444
0.507564
0.507626
0.507609
0.507481
0.507187
0.507054
0.507064
0.507188
0.507391
0.507442
0.582824
0.86189
1.09088
1.23934
1.27161
1.28787
1.31104
1.3107
1.30499
1.29873
1.30159
1.30644
1.30597
1.30303
1.30165
1.3026
1.30311
1.30257
1.30219
1.30239
1.30208
1.30131
1.30086
1.30089
1.30093
1.30102
1.30108
1.30084
1.30029
1.29986
1.29988
1.29988
1.29947
1.29889
1.29811
1.29695
1.29596
1.2952
1.29477
1.29426
1.29348
1.29275
1.29233
1.29196
1.29168
1.29161
1.29126
1.29157
1.29157
1.29144
1.29108
1.29062
1.29082
1.29119
1.29081
1.28984
0.508355
0.508309
0.5082
0.508031
0.507985
0.508021
0.508059
0.508053
0.508007
0.507835
0.507543
0.507376
0.507357
0.50739
0.507518
0.50761
0.507604
0.507501
0.507232
0.507064
0.50707
0.507178
0.507409
0.50751
0.507479
0.507324
0.60369
0.877078
1.13228
1.26905
1.30904
1.30699
1.29354
1.29757
1.30465
1.30581
1.30237
1.29879
1.30016
1.30196
1.30119
1.30035
1.30057
1.30071
1.30016
1.29974
1.29976
1.2998
1.29962
1.29933
1.29891
1.2983
1.29751
1.29684
1.29673
1.29684
1.29675
1.29636
1.29578
1.29483
1.29405
1.29346
1.29315
1.29281
1.29236
1.2921
1.29182
1.29137
1.291
1.29044
1.29055
1.2913
1.29145
1.29155
1.29152
1.29141
1.2914
1.29088
1.29038
1.28944
0.508119
0.508036
0.507888
0.507799
0.507808
0.507896
0.508005
0.50802
0.507996
0.507856
0.507544
0.507341
0.507324
0.507357
0.507481
0.507598
0.507604
0.507522
0.507275
0.507073
0.507068
0.507166
0.507404
0.507539
0.50752
0.507396
0.507332
0.507331
0.644128
0.949174
1.17495
1.24932
1.28004
1.30551
1.30938
1.30592
1.29714
1.29772
1.30237
1.30225
1.30031
1.29945
1.30042
1.30021
1.29934
1.29894
1.29918
1.29901
1.29852
1.298
1.29735
1.29661
1.29596
1.29529
1.29481
1.29459
1.29428
1.29384
1.29338
1.29297
1.29243
1.29178
1.29108
1.29057
1.29034
1.29044
1.29036
1.28983
1.2892
1.2893
1.28978
1.29068
1.29117
1.29161
1.29173
1.29179
1.29154
1.29094
1.29017
1.28915
0.507956
0.507789
0.507649
0.507627
0.507653
0.50778
0.507963
0.508002
0.507983
0.507862
0.507551
0.507321
0.507301
0.507327
0.507444
0.507582
0.507605
0.507542
0.507316
0.507087
0.507067
0.50715
0.507382
0.507549
0.507542
0.507433
0.507391
0.507393
0.507398
0.507373
0.696572
1.01291
1.23642
1.30734
1.30883
1.29746
1.2953
1.30184
1.30526
1.30254
1.29864
1.29977
1.30109
1.30025
1.29884
1.29893
1.29906
1.29867
1.29807
1.29744
1.29676
1.29609
1.29565
1.29511
1.29442
1.29376
1.29319
1.29255
1.29218
1.29186
1.29117
1.29034
1.28946
1.28879
1.28858
1.28863
1.28859
1.28845
1.28823
1.28848
1.28922
1.29018
1.29081
1.29158
1.29199
1.29213
1.29177
1.29099
1.29007
1.28896
0.50777
0.507565
0.507492
0.507496
0.507531
0.507685
0.507929
0.507989
0.507972
0.507861
0.507557
0.507288
0.507256
0.507285
0.507401
0.507556
0.507605
0.507558
0.507361
0.507114
0.507068
0.507133
0.507353
0.507547
0.507548
0.507455
0.507432
0.507436
0.507432
0.507414
0.507337
0.530503
0.822616
1.08965
1.24862
1.27809
1.29827
1.31114
1.30874
1.2987
1.29921
1.30279
1.30231
1.29976
1.29899
1.29978
1.29951
1.29862
1.29806
1.29754
1.29694
1.29644
1.29606
1.29536
1.29455
1.29377
1.29308
1.29243
1.29208
1.29147
1.29053
1.2896
1.28881
1.28816
1.28786
1.28774
1.28766
1.28771
1.28794
1.2885
1.28918
1.28981
1.29036
1.29122
1.29173
1.29211
1.29172
1.29099
1.29016
1.28895
0.507673
0.50744
0.5074
0.507406
0.507441
0.507601
0.507896
0.507977
0.507963
0.507866
0.50758
0.507279
0.507224
0.507249
0.507354
0.507511
0.507598
0.507572
0.507416
0.507167
0.507079
0.507125
0.507308
0.507525
0.507541
0.507461
0.507455
0.507474
0.507469
0.507436
0.50735
0.507293
0.507299
0.593897
0.905009
1.18573
1.29647
1.31218
1.30354
1.2958
1.30317
1.30546
1.30184
1.29931
1.30037
1.30095
1.29987
1.29872
1.29839
1.29807
1.29762
1.29716
1.29648
1.29551
1.29463
1.29398
1.29336
1.29288
1.2924
1.29161
1.29049
1.28955
1.2889
1.2884
1.28809
1.28782
1.28782
1.28797
1.28828
1.28878
1.28929
1.28971
1.2902
1.29081
1.29119
1.29161
1.29131
1.29077
1.29005
1.28891
0.507661
0.507399
0.507323
0.507329
0.507369
0.507534
0.507861
0.507966
0.507955
0.507886
0.507661
0.507318
0.507202
0.507216
0.507303
0.507459
0.507585
0.507585
0.507478
0.507255
0.507122
0.507137
0.507253
0.507451
0.507488
0.507448
0.507452
0.507494
0.507504
0.507466
0.507363
0.507291
0.507296
0.507327
0.507357
0.723449
1.03332
1.23641
1.27569
1.29742
1.31108
1.30741
1.29922
1.29977
1.30273
1.30202
1.29964
1.29897
1.29919
1.29889
1.29834
1.29764
1.29659
1.29566
1.29491
1.29435
1.29383
1.29329
1.29272
1.29192
1.2908
1.28993
1.28942
1.28891
1.28858
1.28826
1.28819
1.28825
1.28856
1.28899
1.28963
1.29016
1.29051
1.2908
1.29082
1.29109
1.29096
1.29056
1.28994
1.28889
0.507665
0.507358
0.507251
0.507264
0.507328
0.507483
0.507813
0.507947
0.50794
0.507903
0.50775
0.507412
0.507195
0.507187
0.507244
0.507393
0.507563
0.507594
0.507532
0.507348
0.507195
0.507177
0.507241
0.50741
0.507437
0.507415
0.50743
0.507497
0.507526
0.507496
0.507391
0.5073
0.507304
0.507329
0.507363
0.507374
0.54428
0.848286
1.15586
1.28753
1.31034
1.30497
1.29671
1.30285
1.30383
1.30064
1.29886
1.29974
1.29973
1.29915
1.29847
1.29753
1.29653
1.29586
1.29534
1.29477
1.29421
1.29358
1.29305
1.29228
1.29136
1.29059
1.29001
1.28948
1.2891
1.28866
1.28853
1.28854
1.28885
1.28936
1.29025
1.29082
1.29122
1.29126
1.29103
1.29121
1.29112
1.29065
1.29009
1.28895
0.507638
0.507301
0.507218
0.507236
0.507324
0.507445
0.507672
0.507921
0.507923
0.507908
0.507805
0.507489
0.507205
0.507169
0.507198
0.507306
0.507506
0.507596
0.50756
0.507427
0.507274
0.507222
0.50726
0.507391
0.507387
0.507363
0.507389
0.507487
0.507531
0.507503
0.507394
0.507316
0.507325
0.507344
0.507356
0.50737
0.507386
0.507404
0.676544
1.00556
1.2303
1.27084
1.29655
1.30806
1.30518
1.29781
1.29877
1.30088
1.30014
1.29912
1.29839
1.29729
1.29645
1.29607
1.29576
1.2951
1.29444
1.29392
1.2934
1.29263
1.29188
1.29119
1.29062
1.29017
1.28972
1.28915
1.2891
1.28911
1.28951
1.29018
1.29125
1.29161
1.29183
1.29158
1.29139
1.29156
1.29148
1.29107
1.29055
1.28928
0.507579
0.507263
0.507215
0.507245
0.507343
0.507425
0.507522
0.507812
0.507916
0.507908
0.507833
0.507545
0.507223
0.50716
0.507176
0.507226
0.507385
0.507565
0.507564
0.507494
0.507352
0.507271
0.507306
0.507366
0.507318
0.507297
0.507328
0.507459
0.507528
0.507505
0.50739
0.507321
0.507342
0.507356
0.507349
0.507356
0.507371
0.50741
0.507443
0.529597
0.83565
1.15101
1.28434
1.30652
1.29786
1.2958
1.30162
1.30124
1.29941
1.2989
1.29819
1.29709
1.29634
1.29645
1.29592
1.29512
1.29443
1.29422
1.29364
1.29285
1.29223
1.29163
1.29124
1.2909
1.29039
1.28982
1.28979
1.2899
1.29033
1.29114
1.29213
1.29216
1.29223
1.29181
1.29149
1.29169
1.29178
1.29147
1.29101
1.28974
0.507476
0.507267
0.507261
0.507279
0.507319
0.507381
0.507434
0.507623
0.507895
0.5079
0.507849
0.507621
0.507319
0.507184
0.507172
0.507183
0.507278
0.507487
0.507566
0.507546
0.507434
0.507332
0.507362
0.507368
0.507267
0.507241
0.50727
0.507404
0.507515
0.507507
0.507417
0.507361
0.507369
0.507372
0.507353
0.507342
0.507355
0.507393
0.507452
0.507482
0.507528
0.675252
1.01179
1.23198
1.27481
1.29743
1.30624
1.30219
1.29829
1.29883
1.29804
1.29677
1.29704
1.2969
1.29597
1.29484
1.29435
1.29433
1.29381
1.29301
1.29243
1.29197
1.29171
1.29147
1.29094
1.29051
1.29055
1.29067
1.291
1.29188
1.29269
1.29261
1.29253
1.29187
1.29162
1.2918
1.2919
1.29169
1.29133
1.29011
0.507403
0.507325
0.507346
0.507366
0.507333
0.507325
0.507339
0.507459
0.507799
0.507882
0.507856
0.507739
0.507519
0.507273
0.50718
0.507169
0.507215
0.507411
0.507582
0.507589
0.50751
0.507402
0.507411
0.507393
0.507233
0.507188
0.507216
0.507346
0.507487
0.507502
0.507455
0.507392
0.507386
0.507384
0.507357
0.507338
0.507348
0.507388
0.507453
0.507475
0.507516
0.507597
0.53494
0.862807
1.1827
1.29433
1.30615
1.29502
1.29806
1.29962
1.29775
1.29733
1.29821
1.29719
1.29486
1.29381
1.29433
1.29432
1.29384
1.2932
1.29271
1.29238
1.29214
1.29184
1.29119
1.29107
1.29114
1.29128
1.29156
1.29244
1.293
1.29294
1.29271
1.29189
1.29176
1.29196
1.29199
1.29173
1.29139
1.29026
0.507408
0.507395
0.507446
0.507468
0.507418
0.507268
0.507228
0.507313
0.507651
0.507856
0.507866
0.507837
0.507701
0.507381
0.507173
0.50715
0.507178
0.507345
0.507586
0.50763
0.507574
0.507474
0.507458
0.507423
0.507231
0.507159
0.507184
0.507308
0.507458
0.507497
0.507474
0.507409
0.507388
0.507378
0.507345
0.507325
0.507336
0.507385
0.507453
0.507477
0.507493
0.50759
0.507656
0.507626
0.724067
1.06255
1.25634
1.27709
1.30303
1.30156
1.29777
1.2989
1.29903
1.29607
1.29332
1.29351
1.29435
1.29414
1.29365
1.2933
1.29313
1.29286
1.29253
1.29203
1.29135
1.29148
1.29148
1.2917
1.29213
1.29314
1.29326
1.29309
1.29276
1.29193
1.29191
1.29209
1.29205
1.29169
1.2913
1.29026
0.507464
0.507494
0.507556
0.50756
0.507487
0.507255
0.50714
0.507195
0.507479
0.507798
0.507896
0.507898
0.507832
0.507512
0.507186
0.50713
0.507147
0.507294
0.507569
0.507663
0.507626
0.507535
0.507499
0.507451
0.507251
0.507152
0.507175
0.5073
0.507457
0.507507
0.507505
0.507458
0.507408
0.507375
0.507324
0.507311
0.507329
0.507386
0.507456
0.507479
0.507491
0.507545
0.507657
0.507683
0.507649
0.579035
0.935052
1.20947
1.3042
1.29955
1.29734
1.30159
1.29987
1.29398
1.29248
1.29439
1.29415
1.29372
1.29331
1.29316
1.29328
1.29312
1.29273
1.2921
1.29162
1.29174
1.29167
1.29193
1.29263
1.29357
1.29335
1.29304
1.29273
1.29224
1.2924
1.29243
1.29215
1.29164
1.29114
1.29014
0.507538
0.507596
0.507643
0.507642
0.507566
0.507293
0.507079
0.507095
0.507288
0.507667
0.507919
0.507963
0.507925
0.507646
0.507195
0.507073
0.507091
0.507238
0.507537
0.507682
0.507664
0.507587
0.507532
0.50747
0.50728
0.507156
0.507168
0.507274
0.507452
0.507518
0.507523
0.507494
0.50744
0.507376
0.507307
0.5073
0.507328
0.507394
0.507462
0.507482
0.507494
0.507532
0.507653
0.507722
0.507735
0.507708
0.507624
0.817192
1.15847
1.24841
1.29535
1.30496
1.29833
1.2919
1.29409
1.29513
1.29404
1.29336
1.29303
1.29295
1.29311
1.29308
1.29274
1.29209
1.29201
1.29188
1.29177
1.29212
1.29317
1.29375
1.29336
1.29308
1.29303
1.29282
1.2932
1.29333
1.29276
1.29172
1.29094
1.28992
0.507601
0.507647
0.507719
0.507724
0.507651
0.507347
0.507027
0.507002
0.507119
0.507518
0.507935
0.508038
0.508008
0.507763
0.507236
0.507008
0.507021
0.507171
0.507494
0.507695
0.507696
0.507633
0.507557
0.507471
0.507289
0.507179
0.507186
0.507269
0.507428
0.507517
0.507529
0.507506
0.507448
0.50737
0.507295
0.507292
0.507336
0.50743
0.507489
0.507496
0.507497
0.507528
0.507657
0.507764
0.50779
0.507806
0.507768
0.507677
0.668601
1.0579
1.26148
1.29888
1.28988
1.29258
1.2972
1.2954
1.29353
1.29313
1.29274
1.29254
1.29265
1.29269
1.29242
1.29212
1.29222
1.29181
1.29175
1.29231
1.29355
1.29372
1.29333
1.29313
1.29313
1.29322
1.29391
1.29396
1.29316
1.29192
1.2909
1.28977
0.507611
0.507649
0.507766
0.507794
0.507728
0.507396
0.507
0.506935
0.507002
0.507372
0.507919
0.508099
0.508083
0.507869
0.507304
0.506974
0.506976
0.507119
0.507458
0.507707
0.50773
0.507678
0.507581
0.507476
0.507307
0.507202
0.507205
0.507274
0.507426
0.507511
0.507529
0.50751
0.50745
0.507363
0.507287
0.507289
0.50735
0.50748
0.507527
0.507526
0.507513
0.507527
0.507652
0.50781
0.507853
0.507873
0.507847
0.507722
0.507717
0.571374
0.932231
1.21502
1.271
1.29814
1.29948
1.29426
1.29313
1.29346
1.2925
1.29186
1.29191
1.29192
1.29194
1.29216
1.29213
1.2916
1.29166
1.29248
1.29366
1.29365
1.29325
1.29318
1.29318
1.29337
1.29419
1.29414
1.29327
1.29201
1.29099
1.28974
0.507582
0.50762
0.50779
0.507848
0.507801
0.507458
0.50699
0.506895
0.506931
0.507229
0.507846
0.508133
0.508134
0.507952
0.507356
0.506943
0.506937
0.50708
0.507435
0.507718
0.507763
0.507721
0.507617
0.507498
0.507335
0.50722
0.507218
0.507267
0.507408
0.507507
0.507528
0.507511
0.507451
0.507359
0.507282
0.507288
0.507378
0.507528
0.507564
0.507557
0.507526
0.507545
0.507659
0.507827
0.507902
0.507917
0.507897
0.50774
0.507688
0.507694
0.507679
0.820189
1.17472
1.29102
1.29655
1.28973
1.2943
1.29296
1.29137
1.29152
1.29127
1.29123
1.2917
1.29217
1.29182
1.29115
1.29143
1.29263
1.29357
1.29349
1.293
1.29298
1.29295
1.2932
1.29403
1.29382
1.29298
1.29177
1.29087
1.28965
0.507558
0.507588
0.507799
0.50789
0.507865
0.507568
0.507022
0.506868
0.506884
0.507104
0.507744
0.508149
0.508168
0.508015
0.507394
0.50691
0.506896
0.50704
0.507416
0.507728
0.507794
0.507767
0.507669
0.507521
0.507337
0.507227
0.507223
0.507258
0.507371
0.507471
0.507507
0.507496
0.507444
0.507356
0.507282
0.507304
0.507427
0.507579
0.507616
0.507601
0.507552
0.507578
0.507695
0.50782
0.507896
0.50791
0.5079
0.507762
0.507602
0.507624
0.507699
0.507622
0.715902
1.06829
1.24288
1.27734
1.2971
1.29284
1.29087
1.29166
1.2909
1.29052
1.29175
1.29194
1.2912
1.29045
1.29109
1.29265
1.29314
1.29294
1.29233
1.29233
1.29234
1.29276
1.29352
1.2931
1.29226
1.2912
1.29045
1.28916
0.507539
0.507568
0.507803
0.507917
0.507908
0.507684
0.50709
0.506859
0.506858
0.507004
0.507624
0.508152
0.508199
0.508068
0.507428
0.506881
0.506858
0.506996
0.507389
0.507737
0.507824
0.507809
0.507725
0.507556
0.507333
0.507222
0.507221
0.50725
0.507339
0.507435
0.507479
0.507477
0.50743
0.507345
0.507304
0.507341
0.507474
0.507625
0.50766
0.507652
0.507613
0.507649
0.507729
0.507801
0.507839
0.507843
0.507845
0.507768
0.507588
0.50761
0.507738
0.507676
0.507697
0.591911
0.970538
1.22967
1.29302
1.28289
1.29103
1.29189
1.28989
1.29002
1.29179
1.29123
1.28996
1.28952
1.29063
1.29205
1.29203
1.29163
1.29105
1.29112
1.29123
1.29189
1.29218
1.29169
1.29086
1.28998
1.28932
1.28783
0.507512
0.507538
0.50777
0.507936
0.507938
0.507799
0.50721
0.506861
0.506847
0.506935
0.507491
0.508141
0.508221
0.508114
0.507473
0.50686
0.506823
0.506939
0.507329
0.50774
0.507852
0.507847
0.507784
0.507625
0.507382
0.50722
0.507219
0.507247
0.507317
0.507401
0.507449
0.507457
0.507418
0.507341
0.507328
0.507377
0.507522
0.507664
0.50768
0.507666
0.507653
0.507702
0.507763
0.50777
0.507783
0.5078
0.50781
0.507744
0.507585
0.507613
0.507944
0.507977
0.508255
0.508633
0.52028
0.877492
1.19309
1.25752
1.29475
1.2925
1.28771
1.29
1.29036
1.28907
1.2876
1.28788
1.28939
1.29001
1.28972
1.28915
1.28882
1.289
1.28933
1.29004
1.28966
1.28902
1.28833
1.28768
1.28706
1.28526
0.507474
0.507495
0.507701
0.50797
0.507982
0.507917
0.507402
0.506892
0.506843
0.50689
0.507364
0.508105
0.508229
0.50814
0.507524
0.50686
0.506801
0.506879
0.507215
0.507704
0.507874
0.507874
0.507838
0.507696
0.507466
0.507276
0.507252
0.507259
0.507301
0.507365
0.507411
0.507433
0.507407
0.507366
0.50737
0.507431
0.507586
0.507707
0.50771
0.507682
0.507663
0.507724
0.507777
0.507756
0.50776
0.507788
0.507802
0.507842
0.507819
0.507945
0.508452
0.508768
0.509034
0.509806
0.509933
0.509819
0.777956
1.14833
1.27888
1.27966
1.28366
1.28697
1.28528
1.28435
1.28414
1.28492
1.28647
1.28619
1.28563
1.28527
1.28532
1.28566
1.28608
1.28626
1.28553
1.28457
1.2842
1.28379
1.28305
1.281
0.507449
0.507476
0.507649
0.507975
0.50803
0.508006
0.507629
0.506986
0.506853
0.506876
0.507265
0.508023
0.508203
0.508139
0.507567
0.506863
0.506786
0.506836
0.507079
0.507589
0.507876
0.507885
0.507871
0.507763
0.507533
0.507328
0.507283
0.507279
0.507294
0.507338
0.507381
0.507415
0.507407
0.507403
0.507419
0.507494
0.507652
0.50775
0.507751
0.507722
0.507704
0.507769
0.507794
0.507754
0.507757
0.507802
0.507895
0.508197
0.508588
0.508679
0.508979
0.509423
0.509623
0.510172
0.511176
0.51127
0.511147
0.693794
1.07133
1.20576
1.27033
1.28077
1.27634
1.27835
1.27958
1.28013
1.28088
1.2804
1.27958
1.27947
1.2798
1.28026
1.28053
1.28007
1.27892
1.27803
1.27793
1.27759
1.27665
1.27454
0.507454
0.507492
0.507624
0.507935
0.508042
0.508041
0.507825
0.507178
0.506917
0.506919
0.507229
0.507908
0.508103
0.508069
0.507625
0.506932
0.50682
0.506837
0.506989
0.507404
0.507824
0.507883
0.507879
0.507816
0.50763
0.507417
0.507328
0.5073
0.507293
0.507324
0.507367
0.507409
0.507413
0.507417
0.507438
0.507523
0.507696
0.507789
0.507793
0.507762
0.50774
0.507819
0.507933
0.507848
0.507894
0.508129
0.508417
0.508739
0.509297
0.509442
0.509445
0.509811
0.510224
0.510495
0.511863
0.514005
0.513729
0.513812
0.599027
0.992652
1.21648
1.25249
1.26372
1.27303
1.27306
1.27272
1.27302
1.27221
1.27121
1.27124
1.27181
1.27213
1.27193
1.27105
1.26962
1.26921
1.26924
1.2687
1.26775
1.26573
0.507507
0.50755
0.507632
0.507868
0.508018
0.508034
0.507925
0.507402
0.507061
0.50704
0.507282
0.507823
0.507998
0.507972
0.507717
0.507141
0.506929
0.506925
0.506975
0.507221
0.507667
0.507871
0.50788
0.507852
0.507737
0.507562
0.507436
0.507368
0.507319
0.507325
0.507364
0.507406
0.507465
0.507484
0.507482
0.507547
0.507749
0.50787
0.507873
0.507818
0.507775
0.507887
0.50817
0.508251
0.508464
0.508949
0.509201
0.509339
0.509721
0.510111
0.509877
0.510175
0.511266
0.511734
0.512634
0.51553
0.51691
0.517132
0.518139
0.555643
0.887466
1.14811
1.23646
1.26709
1.26449
1.2621
1.26274
1.26097
1.25972
1.26001
1.26066
1.26066
1.26025
1.25919
1.25802
1.25809
1.2581
1.25737
1.25666
1.25487
0.507572
0.507605
0.507647
0.507816
0.507959
0.507985
0.50794
0.507563
0.507237
0.50719
0.507371
0.507786
0.507931
0.507903
0.507713
0.507348
0.507066
0.50703
0.507039
0.507147
0.507467
0.507813
0.50789
0.507883
0.507818
0.507673
0.50753
0.507432
0.507368
0.507359
0.50738
0.507484
0.507613
0.507621
0.507568
0.507607
0.507858
0.508095
0.508131
0.508027
0.507934
0.508048
0.508398
0.508678
0.509044
0.509606
0.50982
0.509796
0.509894
0.510563
0.510847
0.51107
0.512556
0.514117
0.514248
0.515787
0.518539
0.520477
0.52251
0.524157
0.525549
0.817723
1.12865
1.23355
1.24925
1.24848
1.24861
1.24569
1.24521
1.24573
1.24602
1.2464
1.24605
1.24531
1.24505
1.24529
1.24497
1.24434
1.24397
1.24244
0.507614
0.507652
0.507677
0.507826
0.507943
0.507951
0.50792
0.507614
0.507342
0.507295
0.507433
0.507777
0.507907
0.507873
0.507695
0.507481
0.507288
0.50714
0.507129
0.507163
0.507361
0.507748
0.507933
0.507936
0.507881
0.50773
0.50757
0.507451
0.507381
0.507382
0.507431
0.507601
0.507751
0.507739
0.507641
0.50768
0.507957
0.508282
0.508405
0.508328
0.508304
0.508413
0.508761
0.509045
0.509343
0.509846
0.510247
0.510076
0.509903
0.510372
0.511618
0.512332
0.51355
0.515997
0.516949
0.516556
0.518721
0.5226
0.525606
0.527927
0.528997
0.530078
0.74032
1.06187
1.19952
1.2277
1.2312
1.22681
1.22905
1.23041
1.23073
1.23198
1.23182
1.23161
1.23214
1.23236
1.23164
1.23083
1.23058
1.22914
0.507613
0.50766
0.507743
0.507922
0.507995
0.507981
0.50788
0.507561
0.507375
0.507374
0.507553
0.507834
0.507903
0.507832
0.507632
0.507523
0.507461
0.507319
0.507225
0.507233
0.507344
0.507705
0.507972
0.507986
0.50792
0.507745
0.507537
0.507409
0.507382
0.507421
0.507535
0.507734
0.507891
0.50787
0.50774
0.507767
0.507988
0.508375
0.508669
0.508679
0.508631
0.508707
0.509112
0.509535
0.509582
0.509784
0.510629
0.510836
0.510526
0.510497
0.511719
0.513626
0.514827
0.517592
0.521795
0.52171
0.522069
0.524074
0.527248
0.531073
0.531479
0.532594
0.534498
0.66556
1.01383
1.17234
1.20709
1.2091
1.21588
1.21545
1.21669
1.21834
1.21842
1.21866
1.21963
1.21927
1.21832
1.2175
1.21705
1.21545
0.507638
0.507681
0.507804
0.508044
0.508105
0.50803
0.507798
0.507439
0.507359
0.507423
0.507702
0.50792
0.507925
0.507809
0.507603
0.507547
0.507526
0.507461
0.507351
0.507347
0.507421
0.507731
0.507991
0.508004
0.507924
0.507674
0.507439
0.507375
0.50741
0.507528
0.507706
0.507896
0.508028
0.508037
0.507978
0.507996
0.508133
0.508529
0.509041
0.509238
0.509073
0.508906
0.50913
0.510024
0.510079
0.509988
0.510559
0.512054
0.51359
0.513035
0.513281
0.516164
0.518364
0.520188
0.524062
0.52641
0.527826
0.529355
0.529916
0.532928
0.536
0.537481
0.538974
0.540275
0.619359
0.933641
1.1441
1.18266
1.20853
1.20498
1.20706
1.20753
1.20726
1.20771
1.20825
1.20715
1.20551
1.2045
1.20363
1.20153
0.507634
0.507659
0.50782
0.508147
0.508206
0.508072
0.507724
0.507337
0.507328
0.507495
0.507898
0.508069
0.508022
0.507806
0.507597
0.507579
0.507585
0.507565
0.507484
0.507466
0.507538
0.507809
0.508004
0.508005
0.507881
0.5076
0.507376
0.507369
0.507506
0.507717
0.507912
0.508068
0.508125
0.508326
0.50855
0.508664
0.508774
0.508916
0.509227
0.509743
0.510021
0.509621
0.509314
0.510022
0.511079
0.511922
0.511791
0.512933
0.5158
0.517705
0.518818
0.520678
0.522994
0.523638
0.525151
0.528361
0.53076
0.533458
0.535275
0.536197
0.539029
0.541918
0.54235
0.543922
0.545624
0.570442
0.874522
1.11767
1.19274
1.1916
1.19913
1.19723
1.19731
1.19792
1.1971
1.19517
1.19332
1.19221
1.19076
1.18828
0.507579
0.507598
0.507787
0.508186
0.508258
0.508101
0.507684
0.507294
0.507323
0.507577
0.50805
0.508198
0.508113
0.507837
0.507624
0.507614
0.507644
0.507642
0.507589
0.507557
0.507616
0.507842
0.50799
0.507968
0.507834
0.507533
0.507361
0.507427
0.507877
0.508087
0.508156
0.508204
0.508365
0.508737
0.509212
0.509439
0.509531
0.509342
0.50927
0.509755
0.510746
0.511388
0.511217
0.511037
0.512383
0.515124
0.517099
0.516946
0.517556
0.520161
0.522708
0.524637
0.52762
0.528543
0.5278
0.529786
0.532751
0.535362
0.539017
0.5404
0.541624
0.544159
0.545994
0.547147
0.54946
0.551062
0.552012
0.819642
1.10176
1.15993
1.1936
1.18759
1.18848
1.18821
1.18614
1.18338
1.18157
1.18014
1.1781
1.17589
0.507433
0.507461
0.507713
0.508191
0.508277
0.508119
0.507672
0.507286
0.507332
0.507623
0.508114
0.508238
0.508135
0.507838
0.507634
0.507635
0.507703
0.507717
0.50768
0.507618
0.507642
0.507805
0.507919
0.507922
0.50781
0.507517
0.50749
0.507727
0.50841
0.508752
0.508663
0.508528
0.508552
0.508852
0.509453
0.510087
0.510678
0.510751
0.510193
0.509892
0.510594
0.512109
0.513887
0.515062
0.515388
0.517088
0.520588
0.522239
0.521697
0.522508
0.524686
0.526904
0.530509
0.533306
0.533698
0.534729
0.537069
0.538169
0.541155
0.543611
0.544576
0.545493
0.548246
0.550594
0.55189
0.55346
0.556075
0.557264
0.764553
1.06531
1.17153
1.17063
1.18016
1.17825
1.1756
1.17286
1.17095
1.16918
1.167
1.16605
0.507264
0.507305
0.507638
0.508185
0.508297
0.508166
0.507705
0.507306
0.507348
0.507642
0.508129
0.508236
0.508123
0.507815
0.507619
0.507639
0.507776
0.507826
0.507782
0.507672
0.507644
0.507773
0.50792
0.50794
0.50793
0.508033
0.508133
0.508282
0.508705
0.509317
0.509625
0.509431
0.508955
0.508937
0.509342
0.510302
0.511354
0.512426
0.512832
0.51222
0.511708
0.512517
0.515376
0.518565
0.519371
0.519431
0.521656
0.5249
0.525934
0.526669
0.527736