/*--------------------------------*- C++ -*----------------------------------*\
  =========                 |
  \\      /  F ield         | OpenFOAM: The Open Source CFD Toolbox
   \\    /   O peration     | Website:  https://openfoam.org
    \\  /    A nd           | Version:  7
     \\/     M anipulation  |
\*---------------------------------------------------------------------------*/
FoamFile
{
    version     2.0;
    format      ascii;
    class       volScalarField;
    location    "11.5";
    object      p;
}
// * * * * * * * * * * * * * * * * * * * * * * * * * * * * * * * * * * * * * //

dimensions      [1 -1 -2 0 0 0 0];

internalField   nonuniform List<scalar> 
90000
(
0.127639
0.176794
0.212452
0.257136
0.292837
0.309093
0.338217
0.377192
0.407194
0.440082
0.485043
0.529717
0.577537
0.628527
0.682525
0.73533
0.787564
0.835766
0.878955
0.911288
0.936963
0.951765
0.956272
0.960925
0.954939
0.94708
0.93919
0.931421
0.922864
0.92141
0.921034
0.924094
0.926475
0.928853
0.925212
0.91684
0.904959
0.890575
0.879
0.879553
0.887573
0.899736
0.917959
0.939002
0.954407
0.965043
0.961591
0.952091
0.936384
0.921267
0.908811
0.907027
0.909707
0.920607
0.934098
0.944312
0.949455
0.942682
0.931117
0.918681
0.914236
0.915717
0.924567
0.934277
0.94183
0.935916
0.926797
0.921341
0.920648
0.927729
0.940505
0.939085
0.932351
0.925785
0.925357
0.929608
0.933388
0.930578
0.927455
0.929499
0.93555
0.933852
0.930147
0.92768
0.927494
0.928978
0.929274
0.929178
0.9307
0.93531
0.940912
0.944641
0.945794
0.948155
0.951838
0.955777
0.961275
0.968453
0.974683
0.981351
0.0829284
0.0829108
0.0828915
0.0828732
0.0828543
0.0828382
0.0828216
0.0828148
0.0827753
0.0831072
0.0849639
0.0896427
0.097643
0.111439
0.130651
0.159424
0.194054
0.240844
0.296314
0.361297
0.434226
0.512543
0.584881
0.657159
0.718727
0.77646
0.822121
0.862626
0.887185
0.91266
0.923262
0.933667
0.935023
0.936853
0.930672
0.927919
0.925864
0.922406
0.922105
0.927462
0.933692
0.936528
0.939918
0.94344
0.941713
0.930618
0.921255
0.91757
0.91635
0.917556
0.922866
0.929687
0.935495
0.939506
0.943435
0.937929
0.931392
0.925391
0.921757
0.922679
0.926758
0.932606
0.936898
0.936667
0.931875
0.924933
0.921689
0.924356
0.930644
0.938982
0.937501
0.932014
0.92721
0.927364
0.930893
0.933871
0.931299
0.927901
0.92846
0.932564
0.933031
0.931144
0.929129
0.928384
0.929072
0.930128
0.93066
0.930653
0.93188
0.934794
0.938892
0.943496
0.948292
0.952217
0.956466
0.960638
0.963089
0.967327
0.974239
0.982929
0.0829343
0.0829346
0.0829353
0.082937
0.08294
0.0829438
0.0829479
0.0829513
0.0829525
0.0829613
0.0829268
0.0828832
0.0828434
0.0828079
0.0827831
0.0827622
0.0827516
0.0827388
0.0827477
0.082711
0.083832
0.089327
0.102612
0.124183
0.160971
0.205588
0.264812
0.329647
0.407663
0.485795
0.565812
0.643711
0.714334
0.783993
0.840105
0.897815
0.93776
0.973565
0.993972
0.999433
0.993939
0.985526
0.968877
0.941637
0.912649
0.885942
0.871129
0.87716
0.894912
0.91677
0.938477
0.954462
0.959311
0.952625
0.937745
0.921736
0.911347
0.90885
0.912198
0.922156
0.933848
0.940194
0.93694
0.929592
0.924424
0.924754
0.929383
0.933747
0.936688
0.933112
0.928972
0.927863
0.928701
0.930401
0.932436
0.930891
0.930067
0.929178
0.930333
0.930666
0.931896
0.931209
0.928977
0.928151
0.929551
0.931893
0.93368
0.935437
0.938569
0.940279
0.939839
0.940019
0.943641
0.95196
0.962108
0.967642
0.969372
0.969957
0.972266
0.981386
0.082888
0.082885
0.0828834
0.0828822
0.0828816
0.0828808
0.0828811
0.0828807
0.0828829
0.0828841
0.0828862
0.082893
0.0828994
0.0829075
0.0829166
0.0829274
0.082936
0.082944
0.0829521
0.0829564
0.0829648
0.0829387
0.0829142
0.0828919
0.0828727
0.0828504
0.0828375
0.0828108
0.0835601
0.0884159
0.103536
0.129042
0.173
0.229119
0.309877
0.400793
0.503777
0.610068
0.701625
0.784751
0.837635
0.879124
0.90336
0.901776
0.900186
0.901605
0.908816
0.920616
0.926547
0.931899
0.936922
0.941827
0.940971
0.930836
0.922315
0.922205
0.923517
0.927201
0.929842
0.933044
0.935281
0.932255
0.928074
0.925781
0.924742
0.925821
0.93027
0.936786
0.938862
0.935152
0.929627
0.927237
0.929273
0.932443
0.932548
0.930789
0.929284
0.929728
0.931417
0.9328
0.931747
0.928851
0.9281
0.929656
0.931355
0.931292
0.930198
0.931739
0.936223
0.942168
0.946121
0.946778
0.947856
0.95054
0.956047
0.965418
0.975054
0.978842
0.977448
0.979864
0.0828849
0.0828881
0.0828927
0.0828989
0.082905
0.0829121
0.0829175
0.0829234
0.0829311
0.0829377
0.0829448
0.0829514
0.0829548
0.0829586
0.0829628
0.0829671
0.0829668
0.082968
0.0829664
0.0829652
0.0829583
0.0829555
0.0829535
0.0829506
0.0829443
0.0829346
0.0829264
0.0829216
0.0829061
0.0828963
0.0828914
0.0828898
0.0828871
0.0828924
0.0828854
0.0829929
0.0913104
0.113095
0.160148
0.227894
0.326737
0.443152
0.574492
0.694084
0.80706
0.887871
0.928638
0.95342
0.950089
0.944932
0.936678
0.923232
0.90486
0.891398
0.89906
0.912116
0.925467
0.935015
0.94268
0.940602
0.931648
0.921535
0.920608
0.923931
0.930867
0.939048
0.937042
0.932612
0.928141
0.925873
0.926672
0.928938
0.931205
0.932492
0.931955
0.929591
0.929858
0.932027
0.933344
0.930543
0.927285
0.926556
0.927988
0.931382
0.933038
0.932736
0.934162
0.937194
0.940126
0.942295
0.943997
0.947462
0.953206
0.958304
0.961102
0.964022
0.969149
0.97775
0.983441
0.98563
0.0829518
0.0829553
0.0829596
0.082963
0.0829664
0.0829693
0.082972
0.0829747
0.0829779
0.0829808
0.0829838
0.0829852
0.0829845
0.0829836
0.0829845
0.082981
0.0829761
0.0829717
0.0829669
0.0829596
0.0829529
0.0829484
0.0829432
0.082935
0.082923
0.0829112
0.0829016
0.0828966
0.0829021
0.0829166
0.0829343
0.082952
0.0829683
0.0829816
0.08299
0.0829989
0.0829871
0.0829805
0.0829743
0.0829778
0.0829729
0.0861443
0.105182
0.158056
0.245428
0.380838
0.51534
0.654772
0.740971
0.822706
0.850133
0.874905
0.877839
0.894565
0.915119
0.931175
0.945956
0.950183
0.948726
0.940307
0.923858
0.912871
0.915085
0.921201
0.929146
0.941179
0.94215
0.937029
0.927742
0.922789
0.92402
0.930682
0.934108
0.93074
0.928154
0.928253
0.929906
0.933178
0.934099
0.930673
0.927482
0.928439
0.931781
0.932359
0.931435
0.931211
0.932199
0.937124
0.941719
0.943147
0.944914
0.948193
0.954143
0.960624
0.966058
0.969985
0.97292
0.975088
0.979591
0.98714
0.0829843
0.0829854
0.0829851
0.082984
0.082983
0.0829827
0.0829828
0.0829831
0.0829827
0.0829828
0.0829831
0.0829807
0.0829767
0.0829741
0.0829697
0.0829623
0.0829545
0.0829475
0.0829399
0.0829311
0.0829241
0.0829186
0.0829131
0.0829049
0.0828967
0.0828918
0.0828947
0.0829065
0.0829263
0.0829512
0.0829768
0.0829991
0.0830151
0.083023
0.0830261
0.0830221
0.0830192
0.0830187
0.0830169
0.0830177
0.0830195
0.0830126
0.0830019
0.0829897
0.0829691
0.0829857
0.0946126
0.136407
0.222013
0.341037
0.48905
0.643989
0.766583
0.861298
0.906
0.917382
0.932483
0.938888
0.934204
0.917884
0.913343
0.916449
0.927013
0.934384
0.936876
0.936591
0.934723
0.928782
0.925483
0.925408
0.928688
0.931503
0.933068
0.930466
0.928258
0.929947
0.933151
0.93361
0.930737
0.927041
0.925396
0.926586
0.930146
0.933087
0.932812
0.933542
0.937062
0.9398
0.94307
0.94573
0.946917
0.950889
0.955065
0.960009
0.966108
0.971345
0.976048
0.979632
0.981108
0.98575
0.0829723
0.0829716
0.0829701
0.0829683
0.0829664
0.0829642
0.0829627
0.0829602
0.0829572
0.082955
0.082952
0.0829477
0.0829441
0.0829403
0.0829342
0.0829263
0.0829183
0.0829111
0.0829033
0.0828974
0.0828949
0.0828952
0.0828956
0.0828955
0.0828967
0.0829058
0.0829257
0.0829511
0.0829794
0.0830072
0.0830286
0.0830428
0.0830495
0.0830499
0.083043
0.0830327
0.0830248
0.0830189
0.0830153
0.0830129
0.0830096
0.0830052
0.0830008
0.0829939
0.0829816
0.0829685
0.0829559
0.0829576
0.0829909
0.0830069
0.0948914
0.135983
0.235948
0.377313
0.546614
0.672352
0.79711
0.842837
0.876467
0.892604
0.91109
0.937865
0.955783
0.947823
0.937842
0.929308
0.923816
0.92191
0.923758
0.931033
0.937055
0.93445
0.92868
0.926536
0.927257
0.930925
0.934055
0.933057
0.927741
0.925823
0.927415
0.931293
0.932003
0.931529
0.93191
0.933816
0.93834
0.942379
0.941899
0.94321
0.94812
0.953072
0.959729
0.963987
0.967318
0.972905
0.976599
0.97972
0.983938
0.988623
0.0829549
0.0829524
0.0829496
0.0829466
0.0829433
0.08294
0.0829367
0.0829333
0.0829308
0.0829285
0.082925
0.0829215
0.0829185
0.0829146
0.0829102
0.0829055
0.0829011
0.0828978
0.0828964
0.0828978
0.0829023
0.0829103
0.0829189
0.0829259
0.0829339
0.0829526
0.0829822
0.0830114
0.0830373
0.0830555
0.0830642
0.0830667
0.0830661
0.0830589
0.0830434
0.08303
0.08302
0.0830148
0.0830142
0.083015
0.0830153
0.083015
0.0830157
0.0830112
0.082998
0.0829774
0.0829651
0.0829716
0.0830111
0.0830232
0.0830112
0.0829982
0.0829912
0.0829853
0.104374
0.171563
0.288373
0.458343
0.63374
0.793234
0.882519
0.931455
0.943763
0.941957
0.937405
0.919574
0.91613
0.921999
0.932743
0.940629
0.937705
0.930172
0.923835
0.924272
0.929965
0.935993
0.934943
0.930328
0.923907
0.924675
0.928754
0.932493
0.933449
0.932678
0.932918
0.936139
0.939502
0.942334
0.944551
0.945165
0.948879
0.955184
0.959598
0.965833
0.969486
0.972276
0.978243
0.981113
0.98278
0.988109
0.0829211
0.082919
0.082917
0.0829155
0.0829149
0.0829147
0.0829146
0.082915
0.0829169
0.0829185
0.0829186
0.0829194
0.0829208
0.0829217
0.0829237
0.0829267
0.0829291
0.0829322
0.0829381
0.0829454
0.082952
0.0829609
0.0829725
0.08298
0.082987
0.0830051
0.0830306
0.0830537
0.0830703
0.0830751
0.0830713
0.0830667
0.0830606
0.0830441
0.0830214
0.0830105
0.0830047
0.0830046
0.0830102
0.0830199
0.0830274
0.0830332
0.08304
0.0830376
0.083024
0.0829992
0.08298
0.0829851
0.0830068
0.0830078
0.082995
0.0829721
0.0829614
0.0829602
0.0829599
0.0829629
0.0829836
0.0916749
0.135895
0.255373
0.435519
0.624127
0.781161
0.846858
0.892476
0.901007
0.920142
0.937193
0.94865
0.944104
0.93518
0.922755
0.922369
0.929095
0.93858
0.937925
0.933272
0.923514
0.921809
0.926919
0.934632
0.934334
0.932195
0.931571
0.933133
0.937594
0.941519
0.942837
0.94462
0.948
0.952066
0.958593
0.961671
0.966429
0.972613
0.975747
0.976373
0.98229
0.98533
0.989626
0.0829117
0.0829148
0.0829186
0.0829238
0.0829294
0.0829359
0.0829435
0.0829496
0.082956
0.0829625
0.0829668
0.0829708
0.0829762
0.0829802
0.0829845
0.0829908
0.0829955
0.0830003
0.0830086
0.0830133
0.0830136
0.083017
0.0830233
0.0830252
0.0830275
0.0830369
0.0830548
0.0830711
0.0830725
0.083067
0.0830602
0.0830538
0.0830417
0.0830163
0.0829951
0.0829874
0.0829861
0.0829956
0.0830155
0.0830391
0.0830529
0.0830608
0.0830687
0.0830656
0.0830511
0.0830229
0.0830024
0.0829964
0.0829889
0.0829833
0.0829741
0.082957
0.0829431
0.0829396
0.0829555
0.0829819
0.0830255
0.0831714
0.0833282
0.0833303
0.0886551
0.130668
0.253541
0.449969
0.665958
0.814745
0.910476
0.923393
0.938465
0.936385
0.916098
0.918763
0.930583
0.940401
0.940775
0.935447
0.922353
0.918897
0.923649
0.934916
0.936392
0.933563
0.930253
0.931246
0.937105
0.942475
0.943745
0.943467
0.944137
0.947695
0.953255
0.95856
0.96495
0.967656
0.971464
0.977427
0.980301
0.98075
0.984771
0.990089
0.0829924
0.0829985
0.0830045
0.0830121
0.0830185
0.0830239
0.0830308
0.0830365
0.0830416
0.0830464
0.0830477
0.0830475
0.0830479
0.0830487
0.0830512
0.0830522
0.0830504
0.0830501
0.0830509
0.0830493
0.0830457
0.0830403
0.0830375
0.0830368
0.0830349
0.0830382
0.0830489
0.0830508
0.0830462
0.0830341
0.0830203
0.0830074
0.0829849
0.082965
0.0829574
0.0829588
0.0829678
0.0829887
0.0830291
0.0830629
0.0830758
0.0830783
0.0830771
0.0830702
0.0830577
0.0830346
0.0830117
0.0829994
0.0829873
0.0829708
0.082954
0.0829492
0.0829463
0.0829582
0.0830092
0.0830832
0.0831694
0.0833228
0.08342
0.0834217
0.0833733
0.0833096
0.0832732
0.0908517
0.145452
0.303015
0.53612
0.699333
0.853
0.876108
0.90119
0.923564
0.951889
0.950618
0.941956
0.919598
0.914706
0.92085
0.936155
0.940522
0.936198
0.928408
0.928783
0.935399
0.943054
0.944485
0.943829
0.943489
0.945805
0.951841
0.958233
0.962022
0.96684
0.969601
0.972421
0.976195
0.981801
0.984051
0.9858
0.991008
0.0830633
0.0830679
0.0830724
0.0830768
0.0830795
0.0830812
0.083084
0.0830858
0.0830854
0.0830834
0.0830791
0.0830752
0.083072
0.0830695
0.0830674
0.0830612
0.0830505
0.083045
0.0830421
0.0830392
0.0830346
0.0830273
0.0830201
0.0830162
0.0830132
0.0830087
0.0830034
0.0829997
0.0829948
0.0829855
0.0829745
0.0829634
0.0829486
0.0829333
0.082928
0.0829305
0.0829457
0.0829865
0.0830464
0.0830754
0.0830899
0.0830879
0.0830726
0.0830604
0.0830568
0.0830478
0.0830178
0.0830029
0.0829952
0.0829652
0.0829416
0.0829662
0.0830101
0.0830471
0.0831175
0.083219
0.0833108
0.0834089
0.0834405
0.0834352
0.0833822
0.0832951
0.0832032
0.0830519
0.0829325
0.082763
0.100039
0.203203
0.395354
0.624776
0.837649
0.914588
0.944065
0.942842
0.916992
0.903896
0.91555
0.937039
0.945123
0.93952
0.926633
0.926004
0.932211
0.941726
0.945275
0.944269
0.94332
0.944482
0.949052
0.955284
0.960958
0.963978
0.966884
0.970533
0.974868
0.97802
0.981549
0.984611
0.986462
0.990957
0.083094
0.0830947
0.0830955
0.0830959
0.0830957
0.0830965
0.0830958
0.0830906
0.0830799
0.083065
0.0830576
0.0830558
0.083056
0.0830542
0.0830473
0.0830335
0.0830175
0.0830127
0.0830112
0.0830103
0.0830081
0.0830016
0.0829877
0.0829817
0.0829793
0.0829769
0.082974
0.0829714
0.0829681
0.0829612
0.082952
0.0829438
0.0829348
0.082924
0.0829177
0.0829197
0.0829398
0.0830015
0.0830562
0.0830838
0.0830975
0.0830886
0.0830662
0.0830556
0.0830564
0.083059
0.0830408
0.083019
0.0829832
0.0829443
0.0829577
0.0830757
0.0831622
0.0831986
0.0832729
0.0833682
0.0834024
0.0834366
0.0834367
0.0833774
0.0832487
0.0831347
0.082983
0.0827829
0.0827149
0.0826772
0.0826774
0.082741
0.0828855
0.14285
0.305436
0.539992
0.757055
0.845779
0.883404
0.906048
0.943227
0.958105
0.950326
0.925092
0.920511
0.92855
0.94241
0.947029
0.945134
0.94304
0.943623
0.947342
0.954021
0.958785
0.962689
0.965639
0.968992
0.97352
0.977336
0.979243
0.981153
0.985344
0.988013
0.99236
0.0830955
0.0830946
0.0830919
0.0830895
0.0830875
0.0830867
0.0830852
0.0830786
0.0830564
0.0830299
0.0830242
0.0830264
0.0830277
0.0830211
0.0829964
0.082981
0.0829795
0.0829816
0.0829859
0.0829895
0.0829896
0.0829876
0.0829856
0.0829839
0.0829833
0.0829824
0.0829809
0.0829794
0.082976
0.0829675
0.0829496
0.0829448
0.0829451
0.0829407
0.0829311
0.0829337
0.0829649
0.08303
0.0830689
0.083087
0.0830852
0.0830688
0.0830527
0.0830513
0.0830591
0.0830732
0.0830776
0.0830489
0.0829703
0.0829635
0.0830326
0.0832304
0.0833057
0.0833337
0.0834126
0.0834646
0.0834382
0.0834097
0.083349
0.0832072
0.0830346
0.0829112
0.0827734
0.0826291
0.0825984
0.0826159
0.0826738
0.0829405
0.0833007
0.0834767
0.0833853
0.11255
0.230356
0.467788
0.74116
0.888537
0.944043
0.948299
0.925479
0.912162
0.923204
0.944199
0.948474
0.945607
0.942706
0.942479
0.945592
0.951782
0.958632
0.961479
0.963845
0.967354
0.970831
0.97503
0.978714
0.980372
0.982221
0.985413
0.988937
0.993246
0.0831076
0.0831018
0.0830953
0.0830911
0.0830864
0.0830815
0.0830753
0.0830642
0.0830399
0.0830117
0.0830036
0.0830041
0.0830006
0.0829817
0.0829637
0.0829628
0.0829654
0.0829758
0.0829939
0.0830142
0.0830331
0.0830507
0.0830689
0.0830784
0.0830812
0.0830838
0.0830821
0.0830671
0.0830398
0.0830297
0.0830248
0.0830192
0.0830187
0.0830178
0.0830068
0.0829847
0.0829906
0.0830057
0.0830142
0.0830191
0.0830122
0.0830081
0.0830238
0.0830409
0.0830595
0.0830944
0.0831184
0.0830773
0.0830286
0.0830511
0.0831922
0.083344
0.0833605
0.083408
0.0834811
0.0834796
0.0834229
0.0832907
0.0831273
0.0829651
0.0828151
0.0827343
0.0826683
0.0825775
0.0825632
0.0826108
0.0828561
0.0832767
0.0835646
0.0835254
0.0832698
0.0830181
0.0827299
0.0947802
0.200984
0.444086
0.701894
0.826939
0.886138
0.910767
0.951935
0.960877
0.948046
0.939917
0.940072
0.943889
0.951011
0.957499
0.961253
0.962985
0.965307
0.969265
0.973172
0.976414
0.979257
0.981615
0.983905
0.987136
0.99021
0.994415
0.0830099
0.0830078
0.0830069
0.0830094
0.083014
0.0830151
0.0830136
0.0830082
0.0829966
0.082977
0.0829565
0.0829528
0.0829535
0.0829521
0.0829515
0.0829552
0.0829793
0.0830211
0.0830596
0.0830938
0.0831304
0.0831667
0.0831868
0.0831934
0.0831938
0.0831902
0.0831714
0.0831203
0.0830836
0.0830836
0.0830892
0.0830824
0.0830662
0.0830659
0.0830566
0.0830134
0.0829258
0.0828882
0.0829026
0.0829364
0.082938
0.082957
0.0830171
0.0830436
0.0830596
0.0831058
0.0831588
0.0831434
0.0831316
0.0831644
0.0832994
0.0833581
0.0833631
0.0834216
0.0834585
0.0834247
0.0832641
0.0830628
0.0828712
0.0827227
0.0826372
0.0826346
0.0826311
0.0826011
0.0826709
0.0829145
0.0833225
0.0836426
0.0836733
0.0834223
0.0830933
0.082858
0.0827003
0.083112
0.0836378
0.0926961
0.178165
0.404937
0.707084
0.876577
0.949091
0.950979
0.944027
0.936208
0.944318
0.951631
0.957152
0.960777
0.961721
0.963912
0.967599
0.971696
0.975405
0.977499
0.979701
0.982606
0.9854
0.988116
0.99089
0.994772
0.0829747
0.082976
0.0829799
0.082989
0.0830023
0.0830079
0.0830067
0.0830013
0.0829921
0.0829809
0.082978
0.0829815
0.0830063
0.0830201
0.0830274
0.0830519
0.0831153
0.0831369
0.0831367
0.0831452
0.0831699
0.0832014
0.0832212
0.0832286
0.0832277
0.0832206
0.0831887
0.0831227
0.0830973
0.0831004
0.0831126
0.0831115
0.0830875
0.0830813
0.0830623
0.0829834
0.0828494
0.082795
0.0828099
0.0828564
0.0828833
0.0829428
0.0830457
0.0830566
0.083057
0.0831215
0.0832354
0.0832636
0.0832454
0.0832364
0.0833039
0.083315
0.0832677
0.0832064
0.0831744
0.0831144
0.0829963
0.0828756
0.0826969
0.0825739
0.0825723
0.0825995
0.0826665
0.0828194
0.0830998
0.0834913
0.0838034
0.0838223
0.0837356
0.0832691
0.0830339
0.0828085
0.0835652
0.0849711
0.0857287
0.0856976
0.0858881
0.0893848
0.176634
0.419133
0.710836
0.834411
0.90948
0.938336
0.958765
0.955124
0.958562
0.960356
0.963219
0.967374
0.9711
0.973798
0.976268
0.978443
0.980685
0.983683
0.986598
0.989014
0.991807
0.995877
0.0829789
0.0829876
0.0830033
0.0830285
0.0830637
0.0830812
0.0830804
0.0830794
0.0830867
0.0830969
0.0831001
0.0831128
0.0831315
0.0831423
0.0831581
0.0831805
0.0831872
0.0831817
0.0831611
0.0831537
0.0831653
0.0831929
0.083209
0.0832109
0.0832093
0.0832008
0.083169
0.083112
0.0830887
0.0830894
0.0830998
0.0831007
0.0830733
0.0830112
0.0829654
0.0829064
0.0828016
0.0827425
0.0827516
0.0827928
0.082842
0.0829588
0.0831042
0.0831199
0.0831328
0.0832424
0.0833886
0.0834027
0.0833298
0.0832176
0.083196
0.0831673
0.0830698
0.0829652
0.0829017
0.0828677
0.0828406
0.0827816
0.0826233
0.0825557
0.0825673
0.0826409
0.0829326
0.0833892
0.0838473
0.0841379
0.0840482
0.0839928
0.0837424
0.0832214
0.0832954
0.0842596
0.085763
0.0872592
0.0871948
0.0870615
0.0876082
0.0894424
0.0908617
0.097702
0.183887
0.429763
0.741674
0.882079
0.948891
0.949782
0.963567
0.96128
0.966622
0.969654
0.97327
0.976247
0.977785
0.979652
0.981848
0.985238
0.987898
0.990573
0.993035
0.996311
0.0830421
0.0830608
0.0830961
0.0831184
0.0831251
0.083127
0.0831255
0.083125
0.0831265
0.0831333
0.0831432
0.0831435
0.0831433
0.0831534
0.083164
0.0831586
0.0831239
0.0830522
0.0829821
0.0829413
0.0829431
0.082959
0.0829651
0.0829647
0.0829535
0.0829256
0.0828942
0.0828902
0.0828862
0.0828786
0.0828822
0.082881
0.0828331
0.0827935
0.0828094
0.082797
0.0827249
0.0827137
0.0827286
0.0827775
0.0829158
0.0831995
0.0833421
0.0833355
0.083355
0.0834609
0.0835013
0.0834946
0.0833566
0.0831349
0.0831136
0.0830803
0.082952
0.0828753
0.0828289
0.0828212
0.0828189
0.0827593
0.0826563
0.0826879
0.082823
0.083181
0.0838172
0.0843308
0.084669
0.0845705
0.08425
0.0840737
0.0839211
0.0844885
0.086177
0.0879333
0.0883701
0.0887495
0.0895431
0.0907243
0.0917809
0.0931231
0.0953189
0.0972204
0.0977534
0.104844
0.205391
0.461756
0.768428
0.883217
0.952856
0.961281
0.975795
0.97074
0.972727
0.976359
0.979652
0.981887
0.983702
0.986195
0.988357
0.991403
0.99349
0.996829
0.0830255
0.0830413
0.0830454
0.0830458
0.0830339
0.0829835
0.0829608
0.0829603
0.0829626
0.0829625
0.0829568
0.082954
0.0829547
0.082959
0.082964
0.0829549
0.0828754
0.0827493
0.0827268
0.0827186
0.082688
0.0826376
0.0826397
0.0826547
0.0826436
0.0826161
0.0826036
0.0825871
0.0825728
0.082579
0.0826107
0.08266
0.0826927
0.0827229
0.0827808
0.0828245
0.082866
0.0829079
0.0829524
0.0830594
0.0833263
0.0835782
0.0836029
0.0835798
0.0835413
0.0835213
0.0835078
0.0834783
0.0833181
0.08311
0.0830973
0.0830713
0.0829222
0.082868
0.0828801
0.0828807
0.0828841
0.0829034
0.0830976
0.0835318
0.0841105
0.0849135
0.085363
0.0854671
0.0854102
0.0852234
0.0848558
0.085032
0.0860704
0.0879746
0.0897309
0.0913178
0.0912352
0.0912503
0.0922799
0.0944114
0.0963957
0.0984327
0.0996182
0.100693
0.102771
0.103933
0.104523
0.118466
0.235059
0.515232
0.809281
0.89717
0.964522
0.97718
0.982481
0.978277
0.977919
0.98198
0.986776
0.989154
0.990445
0.992694
0.994806
0.997914
0.08263
0.0826552
0.082696
0.0827293
0.0827312
0.0826974
0.0826665
0.0826704
0.0826871
0.0827296
0.0827926
0.0828201
0.0828297
0.082853
0.0828694
0.082855
0.0827563
0.0826505
0.0826466
0.0826549
0.0826408
0.082576
0.0825638
0.0825805
0.0825649
0.0825628
0.0825881
0.0825839
0.0825881
0.0826492
0.0827719
0.082911
0.0830393
0.0831602
0.0833166
0.0834055
0.0834377
0.0834711
0.0835382
0.0836875
0.0838483
0.0838581
0.0838193
0.0837282
0.0835691
0.0834103
0.0833162
0.083249
0.0832518
0.0832778
0.0833034
0.0832585
0.0831275
0.0831116
0.0831274
0.0831997
0.0834337
0.0840121
0.0848579
0.0855821
0.0861386
0.0867696
0.0869568
0.0867527
0.0867526
0.0871488
0.0881519
0.0892463
0.0905889
0.0922012
0.0929937
0.0940138
0.0952173
0.0964087
0.0974447
0.098749
0.10102
0.103208
0.104454
0.10584
0.106853
0.107807
0.110174
0.11206
0.112973
0.137391
0.27988
0.568233
0.841465
0.909881
0.97938
0.98395
0.986877
0.983404
0.984941
0.988523
0.991514
0.993919
0.994826
0.99828
0.0825062
0.0825384
0.0826165
0.0826972
0.0827105
0.0826852
0.0826579
0.0826617
0.0826794
0.0827296
0.0828188
0.0828469
0.0828598
0.0829037
0.0829796
0.0829927
0.0829658
0.0828779
0.0828524
0.0828487
0.0828302
0.0828178
0.0828489
0.08289
0.0829618
0.0831783
0.083279
0.0832732
0.0833045
0.0834118
0.0835238
0.0836226
0.0836976
0.0837634
0.0838494
0.0839378
0.0839938
0.0840679
0.0841665
0.0841917
0.0841441
0.0840464
0.0838723
0.0836486
0.0834678
0.0833499
0.0832659
0.0832086
0.0832532
0.0834331
0.0835237
0.0836181
0.0838923
0.0842823
0.084733
0.0853382
0.0861582
0.0870742
0.0878095
0.0884676
0.0887441
0.0887606
0.0889209
0.0893008
0.0900124
0.0914287
0.0931865
0.0949751
0.0960237
0.0967639
0.0975289
0.0982785
0.0996219
0.101431
0.102994
0.105095
0.106664
0.107177
0.108921
0.110541
0.111249
0.113042
0.115861
0.117592
0.118833
0.119657
0.120524
0.160361
0.333702
0.627169
0.878696
0.929413
0.990066
0.992574
0.994133
0.987634
0.991939
0.995609
0.996632
0.999237
0.0826545
0.0827276
0.082831
0.0829456
0.0829954
0.0830412
0.0830938
0.0831486
0.0832214
0.0833215
0.0834211
0.0835037
0.083611
0.0837976
0.0839533
0.0839927
0.0839813
0.0839411
0.0839281
0.0839395
0.083946
0.0839527
0.0839652
0.0840091
0.0841444
0.0842892
0.0842997
0.0842878
0.0842745
0.0842562
0.084224
0.0842337
0.0842767
0.0842906
0.0843097
0.0843454
0.0843643
0.0844043
0.0844236
0.0843527
0.0841678
0.0840219
0.0838686
0.083641
0.083631
0.0836592
0.0836834
0.0838027
0.0841802
0.0848397
0.0857514
0.0867404
0.0876612
0.0885835
0.0894955
0.0901226
0.0906234
0.0912081
0.0915645
0.092021
0.0921561
0.092229
0.0926916
0.0937595
0.095531
0.0973736
0.0989224
0.100584
0.101478
0.101943
0.102662
0.103838
0.105489
0.106994
0.108491
0.110559
0.112321
0.113276
0.11363
0.114685
0.117081
0.119572
0.120735
0.121707
0.123072
0.125045
0.127751
0.128822
0.129542
0.189131
0.400669
0.698903
0.912941
0.953484
1.00125
0.991487
0.997321
0.993293
0.995841
1.002
0.0843394
0.0844073
0.0844734
0.0845311
0.08457
0.0846103
0.0846557
0.0846949
0.0847462
0.0847979
0.0848265
0.0848452
0.0848879
0.0849685
0.084993
0.0849906
0.0849762
0.0849483
0.084889
0.0848543
0.0848416
0.0848123
0.0848054
0.0848383
0.0848457
0.0848444
0.0848404
0.0848004
0.0847128
0.0845686
0.0844336
0.0844172
0.0844407
0.0844241
0.0844031
0.0844694
0.0845125
0.0845826
0.0847599
0.0848626
0.0849282
0.0850724
0.085356
0.0858882
0.0865904
0.087446
0.0883412
0.0893754
0.0904561
0.0914344
0.0922541
0.0929947
0.0935431
0.0939412
0.0943838
0.0945223
0.0945923
0.0948916
0.0954343
0.096039
0.096834
0.0981502
0.0996565
0.101405
0.10293
0.104213
0.105246
0.105977
0.107025
0.107869
0.108549
0.109634
0.111414
0.113782
0.115335
0.115568
0.116944
0.118755
0.119362
0.120384
0.122776
0.125106
0.126003
0.127389
0.129097
0.130836
0.133089
0.134539
0.135576
0.136609
0.13777
0.230028
0.480651
0.779698
0.941726
0.971131
1.01103
0.99492
0.997499
1.00073
0.0855452
0.0855475
0.0855182
0.0854317
0.0853853
0.0853937
0.085462
0.0854929
0.0855104
0.0855188
0.0854852
0.0854596
0.0854474
0.0853948
0.0853056
0.0852849
0.0852917
0.085325
0.0853576
0.0853198
0.0852987
0.0852714
0.0852633
0.0853172
0.0853005
0.0853368
0.0854633
0.0855132
0.0856176
0.0859137
0.0862453
0.0865094
0.0868324
0.0873291
0.0879667
0.0885952
0.0892049
0.0898118
0.0904548
0.0911326
0.0919022
0.0926841
0.0934512
0.0941817
0.0948911
0.0955476
0.0961725
0.0968447
0.0972063
0.097309
0.0973817
0.0976883
0.0979924
0.0980976
0.0983952
0.0988031
0.0993043
0.100034
0.101489
0.103303
0.10529
0.10698
0.108245
0.109466
0.110258
0.11071
0.110991
0.111377
0.112243
0.113753
0.115537
0.116948
0.118099
0.120039
0.121919
0.122043
0.122084
0.123453
0.125947
0.128344
0.129589
0.130699
0.13223
0.133329
0.134653
0.136317
0.138194
0.14043
0.141642
0.142572
0.144978
0.146563
0.158092
0.289295
0.571692
0.857876
0.967361
0.982442
1.01165
1.00683
0.0878124
0.0878846
0.0879634
0.0880488
0.0881464
0.0882614
0.0883771
0.0884983
0.0886273
0.0887601
0.0889127
0.0890973
0.0893131
0.0895594
0.0898187
0.090078
0.0903486
0.0906483
0.0909856
0.0913451
0.0917224
0.09211
0.0925189
0.0929507
0.0933912
0.093882
0.0943905
0.0948559
0.0952857
0.0957389
0.0961898
0.0965729
0.0969518
0.0973649
0.0977008
0.0980115
0.0983312
0.0986564
0.0990041
0.0993303
0.0996219
0.0998606
0.100128
0.100494
0.100803
0.100896
0.101036
0.10141
0.101627
0.101669
0.101885
0.102512
0.103534
0.104866
0.106253
0.107764
0.109204
0.110692
0.112015
0.112988
0.113845
0.114687
0.115145
0.11536
0.115841
0.116145
0.116631
0.117678
0.119348
0.121306
0.123449
0.125103
0.125641
0.125959
0.127186
0.128491
0.129449
0.130484
0.13266
0.135167
0.135861
0.136638
0.137846
0.139335
0.141507
0.144013
0.144953
0.145984
0.14765
0.149516
0.150797
0.15304
0.154483
0.154893
0.187937
0.379745
0.687195
0.912744
0.984675
1.00694
0.0977327
0.0978099
0.0978908
0.0979665
0.0980437
0.0981301
0.0982251
0.0983457
0.098495
0.0985974
0.0986803
0.0987824
0.098915
0.0990765
0.0992359
0.0993899
0.0995458
0.099711
0.0998909
0.100076
0.100263
0.100449
0.100644
0.100841
0.101049
0.10126
0.101447
0.101637
0.10184
0.102044
0.102239
0.102493
0.102654
0.102789
0.102962
0.103292
0.103587
0.103823
0.104122
0.104514
0.104847
0.105166
0.105627
0.106374
0.107354
0.108046
0.108672
0.10942
0.110505
0.111784
0.112973
0.113954
0.114995
0.11612
0.117187
0.118224
0.118838
0.119232
0.119545
0.119672
0.119632
0.119942
0.120445
0.121037
0.122023
0.123644
0.125446
0.127183
0.1287
0.129836
0.130974
0.132222
0.132389
0.132421
0.132916
0.134985
0.137411
0.139232
0.140568
0.141376
0.14248
0.143445
0.144832
0.147099
0.148729
0.150554
0.151136
0.151597
0.153231
0.156554
0.158453
0.159051
0.16089
0.163121
0.163877
0.164496
0.236433
0.500909
0.806168
0.976866
0.105486
0.105575
0.105675
0.105768
0.105879
0.105985
0.106074
0.106169
0.10629
0.106441
0.106599
0.106748
0.106892
0.107051
0.107226
0.107455
0.107705
0.107943
0.108207
0.108479
0.108731
0.10898
0.109236
0.109511
0.109809
0.110107
0.110401
0.110705
0.111029
0.111372
0.111748
0.112143
0.112564
0.113008
0.113488
0.113977
0.114483
0.115015
0.115621
0.116313
0.117065
0.117868
0.118641
0.119269
0.119793
0.120444
0.121146
0.121701
0.122099
0.122415
0.122799
0.123138
0.123373
0.123511
0.123709
0.124197
0.124537
0.124628
0.124941
0.125657
0.126502
0.12748
0.128996
0.130903
0.132741
0.134283
0.135615
0.136811
0.137217
0.137185
0.137328
0.138147
0.13959
0.140814
0.142346
0.144068
0.145764
0.14742
0.147869
0.148479
0.14961
0.151066
0.152683
0.154889
0.155894
0.156467
0.158127
0.160456
0.161891
0.163396
0.165912
0.166431
0.166892
0.169019
0.171228
0.17274
0.173467
0.188972
0.312455
0.735645
0.116734
0.116857
0.116983
0.117108
0.117245
0.117386
0.117528
0.117672
0.117819
0.117962
0.118123
0.118323
0.118521
0.118714
0.118904
0.119087
0.119286
0.11955
0.119806
0.120018
0.120226
0.120455
0.120695
0.120954
0.121233
0.121524
0.121836
0.12216
0.122482
0.122791
0.123137
0.12347
0.123831
0.124163
0.124429
0.124625
0.124876
0.125117
0.125263
0.12542
0.125589
0.125959
0.126242
0.126346
0.126462
0.126842
0.127326
0.127629
0.127776
0.128046
0.128611
0.129332
0.129658
0.130052
0.130794
0.131911
0.133189
0.134556
0.13596
0.137473
0.139036
0.140458
0.141547
0.142368
0.142729
0.142814
0.143139
0.143918
0.144259
0.144562
0.145016
0.146417
0.14863
0.151002
0.15266
0.153447
0.15411
0.154462
0.155241
0.156404
0.157939
0.160213
0.161845
0.162855
0.164202
0.165077
0.165924
0.167747
0.169625
0.170508
0.17219
0.174259
0.175015
0.176131
0.178681
0.180337
0.181545
0.182747
0.183483
0.344812
0.127632
0.127709
0.127804
0.127904
0.128002
0.128085
0.128167
0.128253
0.128334
0.128417
0.128581
0.128709
0.128801
0.128973
0.129081
0.129152
0.129238
0.129347
0.129534
0.129675
0.129756
0.129847
0.129989
0.13018
0.130379
0.130581
0.130779
0.130965
0.131151
0.131384
0.131625
0.131853
0.132144
0.13267
0.133075
0.133337
0.133668
0.134303
0.134769
0.135067
0.135418
0.135901
0.136579
0.137328
0.137839
0.138206
0.138685
0.139374
0.140283
0.141288
0.14222
0.143133
0.144141
0.145181
0.146113
0.146833
0.147431
0.147931
0.148198
0.148473
0.148828
0.149261
0.149669
0.149945
0.14991
0.149828
0.150163
0.151288
0.153392
0.155448
0.157181
0.158526
0.159693
0.161091
0.161454
0.161809
0.162219
0.163041
0.164514
0.166464
0.168058
0.169688
0.171021
0.17108
0.171689
0.173271
0.174749
0.176163
0.17856
0.180166
0.180553
0.181902
0.183912
0.184961
0.186146
0.188082
0.189152
0.190242
0.191917
0.193695
0.140045
0.140144
0.140253
0.140367
0.140487
0.140611
0.140757
0.140905
0.141007
0.141119
0.141295
0.141518
0.141725
0.141893
0.142075
0.142209
0.142377
0.142721
0.142816
0.14287
0.143018
0.143249
0.14349
0.143733