/*--------------------------------*- C++ -*----------------------------------*\
  =========                 |
  \\      /  F ield         | OpenFOAM: The Open Source CFD Toolbox
   \\    /   O peration     | Website:  https://openfoam.org
    \\  /    A nd           | Version:  7
     \\/     M anipulation  |
\*---------------------------------------------------------------------------*/
FoamFile
{
    version     2.0;
    format      ascii;
    class       volScalarField;
    location    "11.5";
    object      T;
}
// * * * * * * * * * * * * * * * * * * * * * * * * * * * * * * * * * * * * * //

dimensions      [0 0 0 1 0 0 0];

internalField   nonuniform List<scalar> 
90000
(
0.671504
0.808034
0.878219
0.95009
0.995503
1.00396
1.02679
1.05901
1.07755
1.09666
1.12318
1.14746
1.17324
1.20001
1.22654
1.24977
1.27184
1.29116
1.30753
1.31845
1.32643
1.32903
1.32703
1.32415
1.31805
1.31062
1.30326
1.29687
1.29157
1.28955
1.28775
1.28716
1.28582
1.28376
1.27975
1.2723
1.26292
1.25279
1.244
1.24012
1.24066
1.24257
1.24669
1.25172
1.25547
1.25481
1.25123
1.24427
1.23401
1.22377
1.21478
1.20971
1.20585
1.20629
1.20726
1.2069
1.20451
1.19865
1.18988
1.18155
1.17537
1.17177
1.17108
1.17066
1.16901
1.16388
1.15689
1.15137
1.14719
1.14672
1.14741
1.14478
1.1394
1.13443
1.13145
1.13041
1.12909
1.12624
1.12304
1.1219
1.12207
1.1204
1.11782
1.11559
1.11429
1.114
1.11341
1.11275
1.11281
1.1139
1.11549
1.11649
1.11658
1.11708
1.11807
1.11924
1.12098
1.12327
1.12523
1.12725
0.504818
0.504642
0.504446
0.504242
0.504027
0.503808
0.503573
0.503356
0.502977
0.504104
0.511019
0.528666
0.558028
0.605937
0.66628
0.745095
0.824297
0.911972
0.994903
1.06964
1.13557
1.19255
1.23556
1.27231
1.30028
1.32551
1.34505
1.3629
1.37192
1.38221
1.38288
1.3823
1.37873
1.37388
1.36574
1.36012
1.3561
1.35201
1.34964
1.35032
1.35075
1.35001
1.34895
1.34689
1.34237
1.33312
1.3241
1.31739
1.312
1.30708
1.30391
1.30173
1.29899
1.29609
1.29218
1.28519
1.27704
1.26902
1.26168
1.25615
1.25169
1.24784
1.2435
1.23747
1.22921
1.22047
1.2133
1.20835
1.20437
1.20146
1.19489
1.18745
1.17997
1.17455
1.17032
1.16613
1.16015
1.15415
1.14977
1.14693
1.14266
1.13841
1.13425
1.13055
1.12763
1.12534
1.12325
1.12111
1.11968
1.11927
1.11947
1.12009
1.12079
1.12139
1.12226
1.12306
1.12341
1.1245
1.12659
1.129
0.503079
0.502898
0.502701
0.502493
0.502275
0.502047
0.501809
0.501555
0.501295
0.501011
0.500637
0.500223
0.49981
0.499407
0.499029
0.498663
0.498322
0.497981
0.497696
0.497252
0.501315
0.522086
0.570181
0.639963
0.741579
0.840314
0.942177
1.02566
1.10299
1.16353
1.21751
1.26327
1.30256
1.33936
1.36709
1.39482
1.41259
1.42606
1.43309
1.4318
1.4272
1.42066
1.41066
1.39613
1.38075
1.36744
1.35554
1.35635
1.36141
1.36799
1.37438
1.37757
1.37566
1.36998
1.35998
1.34898
1.34012
1.33357
1.32944
1.3289
1.32822
1.32474
1.31773
1.3086
1.29953
1.29293
1.2881
1.28297
1.27673
1.26805
1.25876
1.25055
1.24304
1.23588
1.2287
1.22024
1.21207
1.20401
1.19698
1.18982
1.18295
1.17562
1.16798
1.16107
1.15545
1.15064
1.14605
1.14178
1.13851
1.13545
1.13206
1.12917
1.12802
1.12887
1.13069
1.131
1.13045
1.12962
1.12957
1.13146
0.500341
0.500136
0.499921
0.499699
0.499472
0.499241
0.499008
0.498771
0.498535
0.498296
0.498058
0.497828
0.497598
0.497374
0.497154
0.49694
0.496727
0.496517
0.496311
0.496111
0.495905
0.495651
0.495405
0.495175
0.494963
0.494754
0.494575
0.494327
0.496954
0.514745
0.567466
0.645346
0.755844
0.864726
0.985162
1.07944
1.16407
1.23381
1.28789
1.3333
1.36145
1.38103
1.39246
1.39103
1.38915
1.38931
1.39295
1.39914
1.40198
1.40434
1.40609
1.40562
1.40371
1.39765
1.39232
1.38991
1.38755
1.38613
1.38421
1.38289
1.38061
1.37618
1.37035
1.36493
1.3595
1.35462
1.35164
1.3491
1.34389
1.33598
1.32664
1.31823
1.31148
1.30477
1.2965
1.28709
1.27749
1.26859
1.26013
1.25141
1.2415
1.23059
1.22042
1.21131
1.2026
1.19357
1.18438
1.17658
1.17056
1.16574
1.16058
1.15475
1.14985
1.14599
1.14375
1.14372
1.14413
1.14289
1.14026
1.13834
0.497755
0.497609
0.497458
0.497307
0.497156
0.497005
0.496852
0.4967
0.496552
0.496403
0.496256
0.49611
0.495961
0.495815
0.495672
0.495531
0.495385
0.495245
0.495103
0.494964
0.494819
0.494684
0.494553
0.494422
0.494288
0.49415
0.494013
0.493886
0.493733
0.493588
0.493455
0.493333
0.49321
0.493106
0.492951
0.493243
0.523347
0.594909
0.721053
0.855092
0.991933
1.10365
1.20192
1.28043
1.34956
1.39401
1.41613
1.42724
1.4253
1.42226
1.41782
1.41083
1.4016
1.39374
1.39647
1.40139
1.40634
1.4099
1.41151
1.4097
1.40427
1.39893
1.39621
1.39529
1.39598
1.39576
1.39326
1.38883
1.38338
1.37814
1.37392
1.36998
1.36567
1.36065
1.35419
1.34628
1.33899
1.3321
1.32437
1.31462
1.30388
1.29358
1.28363
1.27419
1.26391
1.25276
1.24217
1.23236
1.22292
1.21354
1.20423
1.19602
1.1892
1.18267
1.17622
1.17073
1.16672
1.16445
1.16215
1.15671
0.495988
0.4959
0.49581
0.495717
0.495624
0.495531
0.495437
0.495344
0.495251
0.495159
0.495067
0.494974
0.494877
0.49478
0.494686
0.494585
0.494483
0.494382
0.49428
0.494174
0.494069
0.493967
0.493863
0.493753
0.493635
0.493515
0.493397
0.493287
0.493196
0.493122
0.493051
0.492977
0.492899
0.492815
0.492728
0.49263
0.492509
0.4924
0.492295
0.492212
0.492102
0.503351
0.568513
0.715429
0.887398
1.05716
1.16852
1.25792
1.30986
1.35647
1.37226
1.38567
1.3881
1.3964
1.40588
1.41299
1.41996
1.42168
1.42063
1.41652
1.40905
1.40312
1.40354
1.40534
1.40781
1.41121
1.41043
1.40711
1.40204
1.39785
1.39616
1.3971
1.39584
1.39212
1.38757
1.38375
1.38002
1.3766
1.37169
1.36451
1.3563
1.34925
1.34232
1.33364
1.32372
1.31346
1.30313
1.29407
1.28459
1.27375
1.26286
1.25252
1.24337
1.23469
1.22616
1.21772
1.20977
1.20197
1.19642
1.18814
0.494859
0.494804
0.494745
0.494683
0.49462
0.494558
0.494496
0.494434
0.49437
0.494307
0.494242
0.494173
0.4941
0.494028
0.493951
0.493869
0.493785
0.493701
0.493615
0.493525
0.493436
0.493349
0.493259
0.493163
0.493065
0.492971
0.492889
0.492823
0.492771
0.492727
0.492682
0.49263
0.492567
0.492491
0.492411
0.492323
0.492242
0.492167
0.492092
0.492023
0.49196
0.491875
0.491792
0.491722
0.491631
0.491666
0.53308
0.659115
0.841091
0.999918
1.13092
1.23787
1.3165
1.37343
1.39835
1.40398
1.41101
1.41404
1.41205
1.40527
1.40352
1.40428
1.4085
1.4114
1.41256
1.41207
1.41085
1.40773
1.40575
1.40506
1.40586
1.40624
1.40565
1.40361
1.40138
1.40074
1.40011
1.39827
1.39493
1.39046
1.38615
1.38257
1.37948
1.37538
1.36922
1.36254
1.35628
1.34895
1.34123
1.33258
1.32276
1.31348
1.3039
1.2943
1.28506
1.27573
1.26663
1.25704
1.24816
1.23445
0.494065
0.494024
0.49398
0.493934
0.493887
0.493837
0.493788
0.493736
0.493681
0.493626
0.493569
0.493508
0.493448
0.493385
0.493317
0.493244
0.49317
0.493095
0.493018
0.492942
0.492872
0.492805
0.492737
0.492665
0.492593
0.492536
0.492498
0.492468
0.492443
0.492416
0.492381
0.492335
0.492278
0.492214
0.492143
0.492068
0.492
0.491937
0.491878
0.491821
0.491764
0.49171
0.491661
0.491616
0.491566
0.491508
0.491442
0.491435
0.491478
0.491485
0.532615
0.65533
0.861881
1.03413
1.17144
1.25357
1.32709
1.3545
1.37269
1.38301
1.39396
1.40771
1.41722
1.41417
1.41015
1.40709
1.40532
1.40385
1.40442
1.40729
1.40987
1.40851
1.40572
1.40394
1.40408
1.40547
1.40574
1.40473
1.40186
1.3998
1.39911
1.39914
1.39784
1.39551
1.3927
1.38994
1.38778
1.38469
1.37924
1.37362
1.36874
1.363
1.35725
1.34982
1.34145
1.33365
1.32499
1.31547
1.30737
1.29211
0.493433
0.493396
0.493356
0.493314
0.49327
0.493225
0.493178
0.493129
0.493081
0.493032
0.49298
0.492927
0.492874
0.492819
0.492761
0.492702
0.492642
0.492583
0.492526
0.492472
0.492423
0.49238
0.492338
0.49229
0.492241
0.492218
0.492215
0.492207
0.492193
0.49217
0.492136
0.492094
0.492048
0.491998
0.491932
0.491867
0.491808
0.491761
0.49172
0.491683
0.49165
0.49162
0.491596
0.491569
0.491526
0.491461
0.491401
0.491404
0.491458
0.491462
0.491429
0.491389
0.491361
0.491329
0.563985
0.737171
0.927733
1.0933
1.21541
1.31519
1.36918
1.39434
1.40368
1.40528
1.40427
1.39776
1.39605
1.39833
1.4034
1.4075
1.40677
1.40414
1.40181
1.40199
1.40431
1.40716
1.40655
1.40442
1.40123
1.4013
1.40273
1.40383
1.40349
1.40242
1.40129
1.40142
1.40128
1.40072
1.39933
1.3967
1.39468
1.39314
1.39029
1.38748
1.38296
1.37735
1.37256
1.36566
1.3586
1.34603
0.492832
0.492798
0.492763
0.492728
0.492694
0.492659
0.492624
0.492589
0.492555
0.49252
0.492482
0.492445
0.492409
0.49237
0.492333
0.492297
0.492258
0.49222
0.492185
0.492153
0.492119
0.49209
0.492067
0.492034
0.492001
0.492001
0.492006
0.492004
0.491995
0.491973
0.491939
0.491902
0.491866
0.49181
0.491742
0.491687
0.491645
0.491616
0.491597
0.491592
0.491588
0.491581
0.491575
0.491561
0.491523
0.491458
0.491394
0.491394
0.491412
0.491405
0.491374
0.491324
0.491289
0.491272
0.491255
0.491255
0.491283
0.520566
0.651399
0.884093
1.07793
1.20964
1.30634
1.34707
1.37121
1.37795
1.38923
1.39886
1.40586
1.40478
1.40184
1.39665
1.39699
1.40029
1.4048
1.40516
1.40357
1.3999
1.39887
1.40103
1.40482
1.4046
1.40349
1.4025
1.40303
1.40473
1.40585
1.40567
1.40564
1.40596
1.40623
1.40743
1.40686
1.40665
1.40639
1.40425
1.40043
1.39846
1.395
1.38691
0.492332
0.492314
0.492296
0.49228
0.492264
0.492249
0.492235
0.492218
0.4922
0.492182
0.49216
0.492137
0.492117
0.492094
0.492071
0.49205
0.492026
0.492002
0.491983
0.49196
0.49193
0.491907
0.49189
0.491865
0.491843
0.491842
0.491851
0.491851
0.49184
0.491814
0.49178
0.491746
0.491701
0.491634
0.49157
0.491529
0.491505
0.491507
0.491525
0.491557
0.491569
0.491569
0.491571
0.491562
0.491527
0.491461
0.491402
0.491377
0.491355
0.491339
0.491316
0.491278
0.491241
0.491225
0.491244
0.491273
0.491329
0.49156
0.491818
0.49182
0.509941
0.636691
0.878446
1.08567
1.23442
1.32374
1.37488
1.38673
1.39795
1.39764
1.38943
1.39023
1.39555
1.39959
1.40148
1.39998
1.3947
1.39396
1.39638
1.40127
1.40295
1.40204
1.40088
1.40135
1.40384
1.40661
1.40682
1.40638
1.40647
1.40773
1.40981
1.4117
1.41375
1.41416
1.41463
1.41569
1.41502
1.41334
1.41287
1.41002
0.492079
0.492073
0.492066
0.492062
0.492055
0.492047
0.492041
0.492032
0.49202
0.492008
0.491991
0.491971
0.491953
0.491936
0.491921
0.491903
0.49188
0.49186
0.491842
0.491822
0.491799
0.491771
0.49175
0.491732
0.49171
0.491704
0.491703
0.491693
0.49167
0.491631
0.491589
0.49155
0.491498
0.491448
0.491405
0.491396
0.491401
0.491428
0.491495
0.491548
0.491549
0.491545
0.491538
0.49152
0.491487
0.491433
0.491378
0.491346
0.49132
0.491288
0.491256
0.49125
0.491236
0.491248
0.491312
0.491409
0.491533
0.491775
0.491942
0.491947
0.491867
0.491751
0.491669
0.517236
0.676149
0.945414
1.15163
1.26115
1.34954
1.36296
1.37607
1.38726
1.40082
1.40069
1.39818
1.38942
1.38771
1.39079
1.39788
1.40063
1.39909
1.39625
1.39686
1.40036
1.40378
1.40512
1.40509
1.40516
1.40625
1.40902
1.41194
1.4136
1.41538
1.41634
1.41715
1.41825
1.4199
1.41991
1.41982
1.4201
0.491931
0.49193
0.491927
0.491924
0.491918
0.491909
0.491903
0.491895
0.491882
0.491868
0.49185
0.491831
0.491813
0.491798
0.491785
0.491763
0.491733
0.491709
0.491692
0.491676
0.491658
0.491633
0.491605
0.491581
0.491562
0.491541
0.491521
0.491504
0.491485
0.491458
0.491427
0.491397
0.491363
0.491324
0.4913
0.491301
0.491321
0.491387
0.491492
0.491521
0.491526
0.491521
0.491491
0.491459
0.491441
0.491414
0.491352
0.491318
0.491298
0.491242
0.491216
0.491258
0.491329
0.491374
0.491465
0.491607
0.491741
0.491895
0.491967
0.491962
0.491875
0.49172
0.491551
0.49127
0.491048
0.490749
0.548986
0.798775
1.03281
1.21078
1.3416
1.38299
1.39745
1.39708
1.38639
1.38026
1.38508
1.39462
1.39872
1.39703
1.39185
1.39222
1.39546
1.39966
1.40206
1.40206
1.40219
1.40303
1.40543
1.40841
1.41112
1.41275
1.41427
1.41591
1.41785
1.41916
1.42032
1.4212
1.42176
1.42308
0.491813
0.491807
0.491801
0.491794
0.491786
0.491779
0.491772
0.491755
0.491729
0.491698
0.49168
0.491669
0.491664
0.491654
0.491632
0.491597
0.491562
0.491543
0.491531
0.491523
0.491513
0.491495
0.491468
0.49145
0.491437
0.491423
0.49141
0.491398
0.491384
0.491363
0.491336
0.491315
0.491296
0.491274
0.491255
0.491257
0.491287
0.491384
0.491471
0.491503
0.491519
0.491502
0.49146
0.491421
0.491411
0.491406
0.491365
0.491317
0.491243
0.491187
0.491212
0.491419
0.491561
0.491607
0.491708
0.49184
0.49188
0.491938
0.491938
0.49184
0.491627
0.491431
0.491165
0.49081
0.490678
0.490603
0.49061
0.49072
0.490974
0.670906
0.950009
1.159
1.29651
1.34578
1.36652
1.37807
1.39614
1.40265
1.39982
1.38949
1.38797
1.39167
1.39754
1.40001
1.39959
1.39926
1.39973
1.40171
1.40494
1.40741
1.40951
1.41118
1.41305
1.41535
1.41728
1.41839
1.41939
1.42118
1.42237
1.42403
0.491693
0.491688
0.491679
0.491671
0.491663
0.491659
0.491653
0.491638
0.491596
0.491544
0.491526
0.491527
0.491527
0.491509
0.491462
0.491425
0.491414
0.491416
0.491422
0.491431
0.491432
0.491429
0.491425
0.491419
0.491413
0.491403
0.491393
0.491383
0.49137
0.491347
0.491309
0.491291
0.491285
0.491271
0.491248
0.49125
0.491296
0.491407
0.491474
0.491492
0.491486
0.491454
0.491416
0.491395
0.491396
0.491403
0.491404
0.491346
0.491206
0.491191
0.491312
0.491657
0.491782
0.491818
0.491926
0.491987
0.491937
0.491876
0.491763
0.491521
0.491233
0.491027
0.490793
0.490542
0.490481
0.490511
0.490608
0.491072
0.491727
0.49208
0.491961
0.585268
0.840107
1.09406
1.28876
1.37111
1.40035
1.39979
1.38976
1.38326
1.38796
1.39646
1.39869
1.39815
1.39704
1.39718
1.39868
1.40147
1.40456
1.40621
1.40762
1.40949
1.41134
1.41357
1.41558
1.41672
1.41795
1.41976
1.4215
1.4235
0.491644
0.491631
0.491617
0.491607
0.491596
0.491585
0.491571
0.491548
0.491504
0.491451
0.491424
0.491419
0.491409
0.491375
0.491342
0.49134
0.491346
0.491365
0.491394
0.491425
0.491453
0.49148
0.491503
0.491509
0.491509
0.491509
0.491505
0.491475
0.491422
0.491394
0.491377
0.491362
0.491357
0.491353
0.491329
0.491293
0.491311
0.491345
0.491348
0.491349
0.491339
0.491322
0.491341
0.491358
0.491374
0.491409
0.491438
0.49136
0.491271
0.491309
0.491554
0.491822
0.491853
0.491929
0.492026
0.492013
0.491899
0.491657
0.491369
0.491092
0.490842
0.490711
0.490603
0.490451
0.490425
0.490508
0.49094
0.491688
0.492249
0.492193
0.491793
0.491376
0.490871
0.530315
0.794629
1.08529
1.26486
1.33411
1.36557
1.37832
1.39737
1.40198
1.39703
1.39375
1.39383
1.39547
1.39864
1.4015
1.40333
1.40436
1.40563
1.40757
1.4095
1.41124
1.41285
1.41428
1.41573
1.41767
1.41943
1.42185
0.491428
0.491421
0.491415
0.491417
0.49142
0.49142
0.491415
0.491403
0.49138
0.491345
0.491311
0.491303
0.491304
0.4913
0.491299
0.491304
0.491342
0.491409
0.49147
0.491522
0.49158
0.491639
0.491658
0.491658
0.491656
0.491648
0.491612
0.491521
0.491446
0.491442
0.491445
0.491431
0.4914
0.491397
0.491382
0.491314
0.491171
0.491109
0.491133
0.491186
0.491184
0.491214
0.491314
0.491337
0.491345
0.491398
0.491467
0.491435
0.491413
0.49147
0.491711
0.49183
0.491845
0.491944
0.491978
0.491911
0.491623
0.491267
0.490929
0.490675
0.490534
0.490536
0.490535
0.490498
0.49063
0.491077
0.491802
0.492384
0.49248
0.492062
0.49151
0.491094
0.49081
0.491497
0.492348
0.520482
0.741183
1.02982
1.25932
1.35745
1.39057
1.39322
1.39073
1.38687
1.39041
1.39387
1.39664
1.39866
1.39939
1.40057
1.40236
1.40435
1.40619
1.40742
1.4087
1.41033
1.41197
1.41368
1.41538
1.418
0.491324
0.491326
0.491332
0.491347
0.491368
0.491375
0.491373
0.491363
0.491346
0.491323
0.491311
0.491316
0.491358
0.491379
0.491389
0.491426
0.491531
0.491564
0.491561
0.491574
0.491617
0.491669
0.491692
0.491698
0.491695
0.49168
0.491622
0.491506
0.491452
0.491455
0.491467
0.491461
0.491417
0.491405
0.491369
0.49123
0.491002
0.490918
0.490945
0.491027
0.491072
0.491175
0.491336
0.49134
0.491331
0.491414
0.491574
0.491615
0.491585
0.491575
0.491699
0.491723
0.491645
0.491536
0.491475
0.491369
0.491165
0.490954
0.490639
0.490428
0.490428
0.490476
0.490603
0.490898
0.491428
0.492148
0.492689
0.492749
0.492594
0.491789
0.491398
0.490989
0.492237
0.494554
0.4958
0.495743
0.496077
0.506165
0.734592
1.04396
1.24819
1.31614
1.35642
1.3742
1.38525
1.38455
1.38696
1.38866
1.39051
1.39288
1.39501
1.3967
1.39834
1.39982
1.40132
1.40316
1.40498
1.40666
1.40846
1.41143
0.491294
0.491307
0.491332
0.491374
0.491434
0.491462
0.49146
0.491458
0.49147
0.491486
0.49149
0.49151
0.491541
0.491558
0.491583
0.491621
0.491633
0.491624
0.491589
0.491577
0.491597
0.491641
0.491655
0.491654
0.49165
0.49163
0.491571
0.491468
0.491398
0.49139
0.491396
0.491393
0.491337
0.491224
0.491143
0.491042
0.490875
0.490797
0.490818
0.490897
0.490989
0.491194
0.491425
0.491438
0.491453
0.491627
0.491843
0.491851
0.491723
0.49153
0.491492
0.491442
0.491274
0.491095
0.490992
0.490942
0.490901
0.4908
0.490521
0.490402
0.490425
0.490569
0.491111
0.491947
0.492769
0.493283
0.493134
0.493025
0.492588
0.491686
0.491781
0.49336
0.495839
0.498299
0.498201
0.497988
0.498926
0.501227
0.503691
0.521801
0.729555
1.02184
1.23848
1.31843
1.3542
1.36037
1.36919
1.36922
1.37301
1.37588
1.37867
1.38121
1.38315
1.38521
1.38731
1.38985
1.39204
1.39428
1.3963
1.39953
0.491357
0.491391
0.491452
0.491496
0.491515
0.49152
0.491518
0.491518
0.491521
0.491533
0.49155
0.491549
0.491548
0.491564
0.49158
0.49157
0.49151
0.491386
0.491264
0.491194
0.491197
0.491218
0.491218
0.491216
0.491194
0.491144
0.491089
0.49106
0.491028
0.490988
0.490982
0.490972
0.490882
0.49082
0.490851
0.490834
0.490731
0.490731
0.490766
0.490861
0.491105
0.491587
0.491797
0.491774
0.491797
0.491959
0.49201
0.491997
0.491762
0.491381
0.491337
0.491275
0.49105
0.490928
0.490861
0.490861
0.490865
0.490765
0.49061
0.490683
0.490949
0.491601
0.492719
0.493606
0.494168
0.493992
0.493435
0.493113
0.492782
0.493718
0.496505
0.499381
0.500111
0.500726
0.502004
0.503887
0.505537
0.507725
0.511393
0.513181
0.514338
0.532439
0.75363
1.02886
1.22244
1.29016
1.32673
1.33831
1.34891
1.34823
1.35122
1.35491
1.35835
1.3615
1.36427
1.36726
1.37008
1.37332
1.37591
1.3802
0.491278
0.491303
0.491317
0.491319
0.4913
0.491218
0.491194
0.491196
0.491204
0.491206
0.491199
0.491194
0.491194
0.4912
0.491207
0.491192
0.491058
0.490846
0.49081
0.490796
0.490743
0.490655
0.490657
0.49068
0.49066
0.49061
0.490582
0.490539
0.490492
0.490495
0.490534
0.490603
0.490652
0.490699
0.490796
0.490875
0.490953
0.49103
0.491111
0.4913
0.491761
0.492165
0.492185
0.492139
0.492067
0.492036
0.492015
0.491968
0.491701
0.491337
0.491306
0.491257
0.490989
0.49092
0.490954
0.490968
0.491007
0.49108
0.491464
0.492242
0.493236
0.49458
0.495331
0.495468
0.49536
0.49501
0.494335
0.494616
0.496346
0.499469
0.502287
0.504817
0.504692
0.504708
0.506333
0.509642
0.512688
0.515762
0.51746
0.519175
0.522441
0.523414
0.524411
0.556924
0.777047
1.0426
1.21283
1.2667
1.30211
1.31538
1.32146
1.32154
1.32443
1.32867
1.33311
1.3369
1.3403
1.34403
1.34737
1.35277
0.490561
0.490601
0.490668
0.490729
0.490734
0.490679
0.490633
0.490642
0.490675
0.490753
0.490871
0.490928
0.490948
0.490991
0.491023
0.491
0.490836
0.490665
0.490662
0.490677
0.490653
0.490542
0.49052
0.490546
0.490517
0.49051
0.490543
0.490525
0.490525
0.490614
0.490804
0.491025
0.491233
0.491428
0.491683
0.491833
0.491893
0.491954
0.492069
0.492322
0.492582
0.492593
0.492523
0.492366
0.492095
0.491834
0.491694
0.491598
0.491602
0.491645
0.491688
0.491611
0.491374
0.491376
0.491433
0.491608
0.492059
0.493078
0.494513
0.4957
0.496594
0.497604
0.497876
0.49751
0.497484
0.498102
0.499725
0.501504
0.503663
0.506218
0.507452
0.509021
0.510875
0.512694
0.51425
0.51622
0.519615
0.522794
0.524611
0.526605
0.528004
0.529421
0.532762
0.535358
0.536574
0.590148
0.816865
1.05375
1.19843
1.24251
1.27817
1.28784
1.29216
1.29296
1.29645
1.30116
1.30546
1.30952
1.31271
1.31887
0.490324
0.490375
0.490501
0.490643
0.490673
0.490633
0.490596
0.490605
0.49064
0.490731
0.490885
0.49094
0.490966
0.491044
0.491175
0.491197
0.49115
0.490997
0.490967
0.490969
0.490946
0.490923
0.490972
0.491037
0.491152
0.491508
0.491654
0.491638
0.491687
0.491863
0.492047
0.492207
0.492328
0.492434
0.492575
0.492724
0.492818
0.492942
0.493105
0.493145
0.493063
0.492897
0.4926
0.492223
0.491923
0.491738
0.491619
0.491542
0.491631
0.491956
0.492142
0.492325
0.49281
0.493481
0.494258
0.495293
0.496666
0.498151
0.4993
0.500319
0.500735
0.500745
0.500987
0.501581
0.502706
0.504954
0.507718
0.510507
0.512124
0.513245
0.514392
0.515502
0.517509
0.520191
0.522474
0.525503
0.527747
0.52848
0.530934
0.533172
0.534144
0.536603
0.54041
0.542705
0.544319
0.545416
0.54655
0.626743
0.853905
1.06473
1.1884
1.22358
1.2553
1.26257
1.26643
1.26725
1.27062
1.27495
1.27791
1.28348
0.490591
0.490714
0.490887
0.491082
0.491173
0.491256
0.491349
0.491445
0.491571
0.491745
0.491918
0.492059
0.492236
0.492542
0.492796
0.492861
0.492842
0.492772
0.492745
0.49276
0.492764
0.49277
0.492785
0.492851
0.49307
0.493299
0.493309
0.493288
0.49327
0.493249
0.493206
0.493225
0.493302
0.493329
0.493364
0.493426
0.493458
0.493522
0.493549
0.493425
0.493105
0.49286
0.492589
0.49224
0.492262
0.492356
0.49244
0.492681
0.49334
0.494454
0.495968
0.497586
0.49907
0.500541
0.501989
0.502971
0.503746
0.504642
0.505176
0.50588
0.506099
0.50622
0.506948
0.508616
0.511347
0.514151
0.516481
0.518942
0.520254
0.520929
0.521978
0.523683
0.526046
0.52819
0.530312
0.533187
0.535603
0.536906
0.537395
0.538825
0.542031
0.545308
0.546812
0.548064
0.549807
0.552296
0.555666
0.557003
0.557877
0.667721
0.892804
1.08266
1.18376
1.21111
1.23864
1.2382
1.24141
1.24286
1.24543
1.25137
0.493437
0.493547
0.493654
0.493748
0.493812
0.493877
0.493952
0.494016
0.494101
0.494186
0.494227
0.49425
0.494311
0.494432
0.494456
0.49445
0.494424
0.494375
0.494274
0.494215
0.494193
0.494145
0.494134
0.494181
0.494205
0.494212
0.49421
0.494148
0.494011
0.493783
0.493581
0.493565
0.493615
0.493597
0.493573
0.49369
0.493768
0.493889
0.49418
0.494353
0.494471
0.494725
0.495215
0.49611
0.497273
0.498678
0.500134
0.501798
0.503506
0.50503
0.506295
0.507437
0.508284
0.508898
0.509583
0.50979
0.509885
0.510325
0.511149
0.512075
0.513305
0.515322
0.517581
0.520154
0.522365
0.524212
0.525693
0.526733
0.528216
0.529404
0.530363
0.531888
0.534352
0.537583
0.539677
0.539992
0.541822
0.544209
0.544998
0.546335
0.549438
0.552397
0.553511
0.555236
0.557347
0.559471
0.562192
0.56391
0.565117
0.566342
0.56771
0.720065
0.940843
1.10565
1.17981
1.19949
1.22105
1.21722
1.21906
1.22303
0.495306
0.495312
0.495267
0.495131
0.495062
0.495077
0.495193
0.495246
0.495275
0.495288
0.495233
0.495189
0.495167
0.495076
0.494924
0.494888
0.494899
0.494958
0.495021
0.494961
0.494945
0.494923
0.49492
0.495028
0.495014
0.495084
0.495313
0.495416
0.495606
0.496106
0.496657
0.497099
0.49764
0.498462
0.499505
0.500521
0.501496
0.502457
0.503468
0.504526
0.505725
0.506941
0.508129
0.509253
0.510339
0.511341
0.512293
0.51331
0.513853
0.514008
0.514118
0.514582
0.515048
0.515215
0.515668
0.516281
0.517017
0.518084
0.520221
0.522868
0.525736
0.528144
0.529928
0.531624
0.532721
0.53335
0.53374
0.534274
0.535464
0.537523
0.539931
0.541819
0.543345
0.545876
0.548305
0.548463
0.548514
0.550278
0.553449
0.556445
0.557979
0.559333
0.56119
0.562504
0.564078
0.566045
0.568237
0.570821
0.572202
0.573256
0.575995
0.577751
0.596172
0.778265
0.985013
1.12496
1.17398
1.18696
1.20301
1.20239
0.499286
0.499396
0.499515
0.499643
0.49979
0.499964
0.500138
0.50032
0.500514
0.500716
0.500948
0.501231
0.501561
0.501941
0.502344
0.50275
0.503175
0.503646
0.504174
0.504735
0.505324
0.50593
0.506569
0.507244
0.507933
0.508698
0.509486
0.510204
0.510866
0.511565
0.512261
0.512851
0.513432
0.514061
0.514572
0.51504
0.515518
0.516004
0.516524
0.517017
0.517462
0.51783
0.518235
0.518778
0.519238
0.519378
0.519586
0.520129
0.520439
0.520491
0.520797
0.521707
0.523195
0.525118
0.527094
0.529228
0.531234
0.533288
0.535099
0.536433
0.537605
0.538748
0.539369
0.539657
0.540304
0.540719
0.541374
0.542769
0.544967
0.547509
0.550249
0.552358
0.553042
0.553439
0.55497
0.556607
0.557793
0.559066
0.561727
0.564744
0.565552
0.566457
0.567867
0.569597
0.5721
0.574963
0.576012
0.577162
0.579018
0.581085
0.582494
0.58493
0.58651
0.586965
0.638972
0.847355
1.03183
1.13602
1.16713
1.18334
0.514508
0.514626
0.51475
0.514865
0.514983
0.515113
0.515257
0.515438
0.515663
0.515818
0.515943
0.516096
0.516294
0.516537
0.516777
0.517011
0.51725
0.517503
0.517777
0.51806
0.518347
0.518632
0.518929
0.519228
0.51954
0.519853
0.520128
0.520408
0.520708
0.521014
0.521306
0.521678
0.521915
0.522116
0.522371
0.522848
0.523274
0.523622
0.524062
0.524633
0.525113
0.52557
0.526222
0.527275
0.528646
0.529607
0.530469
0.531498
0.532989
0.534738
0.536363
0.537702
0.539115
0.54063
0.542053
0.543421
0.544232
0.544754
0.545173
0.545356
0.545307
0.545712
0.546368
0.547134
0.548411
0.550496
0.552785
0.554965
0.556851
0.558252
0.559636
0.561162
0.561373
0.56141
0.562011
0.564515
0.567398
0.569533
0.571082
0.572004
0.573263
0.574352
0.575915
0.578461
0.580269
0.58228
0.582902
0.583388
0.585162
0.588748
0.590766
0.591395
0.593334
0.59567
0.596482
0.597134
0.6999
0.926416
1.07221
1.15556
0.525941
0.526068
0.52621
0.526341
0.526499
0.526648
0.526773
0.526905
0.527074
0.527284
0.527501
0.527709
0.52791
0.528131
0.528374
0.528689
0.529032
0.529356
0.529717
0.530091
0.530433
0.53077
0.531118
0.531493
0.5319
0.532308
0.532712
0.533134
0.533585
0.534061
0.534578
0.535116
0.535691
0.536292
0.536938
0.537599
0.538287
0.539013
0.539841
0.540783
0.541798
0.542871
0.543892
0.54472
0.545416
0.546275
0.547193
0.547915
0.548433
0.548847
0.549348
0.549795
0.550111
0.5503
0.550559
0.551174
0.551605
0.551725
0.552129
0.553041
0.554099
0.555311
0.557191
0.559534
0.56177
0.563628
0.565225
0.566651
0.567139
0.567103
0.567274
0.568245
0.569943
0.57137
0.573139
0.57511
0.577034
0.578891
0.579371
0.580037
0.58128
0.582877
0.584635
0.587017
0.588084
0.588685
0.59045
0.592912
0.594413
0.595976
0.598574
0.599107
0.599583
0.601764
0.604004
0.605522
0.606251
0.62743
0.770082
1.06236
0.541415
0.541572
0.541733
0.541894
0.542073
0.542258
0.542444
0.542635
0.542828
0.543017
0.543231
0.543494
0.543757
0.544013
0.544265
0.544507
0.544767
0.545112
0.545447
0.54572
0.545989
0.546284
0.546594
0.54693
0.547292
0.547673
0.548082
0.548507
0.548927
0.549329
0.549776
0.550203
0.55066
0.551081
0.551421
0.551674
0.551993
0.552302
0.552495
0.5527
0.552917
0.553378
0.553736
0.553878
0.554032
0.554509
0.555105
0.555482
0.555677
0.556024
0.556726
0.55761
0.558007
0.55849
0.559391
0.56074
0.56228
0.563926
0.565609
0.567408
0.569246
0.570902
0.572165
0.573119
0.573545
0.57365
0.57403
0.574927
0.575322
0.57567
0.576186
0.577776
0.58026
0.582888
0.584693
0.585539
0.586252
0.586618
0.587444
0.58868
0.590308
0.592712
0.594419
0.595459
0.596847
0.597743
0.598611
0.600473
0.602382
0.603267
0.604955
0.607023
0.607775
0.608887
0.611401
0.613018
0.614184
0.615358
0.61607
0.800738
0.55542
0.55552
0.555641
0.555767
0.555891
0.555995
0.556097
0.556204
0.556305
0.556407
0.55661
0.556768
0.55688
0.557092
0.557223
0.557309
0.557412
0.557543
0.557769
0.557937
0.558035
0.558146
0.558319
0.558551
0.558792
0.559037
0.559277
0.559504
0.55973
0.560014
0.56031
0.560585
0.560937
0.561574
0.562064
0.562373
0.562766
0.563523
0.564074
0.564418
0.564823
0.56539
0.566199
0.567098
0.567701
0.568124
0.568685
0.569506
0.570591
0.571778
0.572867
0.573927
0.575089
0.576281
0.577343
0.57816
0.578842
0.579415
0.579726
0.580044
0.580448
0.580935
0.581393
0.581711
0.581675
0.581584
0.581954
0.583199
0.58551
0.587737
0.589596
0.591024
0.592253
0.593723
0.594085
0.594442
0.594857
0.595704
0.597223
0.599224
0.600842
0.602489
0.603828
0.603875
0.604477
0.606057
0.607521
0.608915
0.611269
0.612836
0.613214
0.614522
0.616461
0.617468
0.618598
0.62043
0.621434
0.622451
0.624002
0.625668
0.57036
0.570476
0.570602
0.570736
0.570876
0.571022
0.571192
0.571364
0.571482
0.571612
0.571815
0.572072
0.572309
0.572501
0.572711
0.572867
0.57306
0.573452
0.57357
0.57364
0.573817
0.574088
0.57437
0.574654
0.574924
0.575192
0.575487
0.575752
0.576047
0.576383
0.576732
0.577077
0.577512
0.577902
0.578267
0.578729
0.579245
0.579663
0.580049
0.580465
0.580884
0.581321
0.581826
0.582402
0.583022
0.583531
0.583999
0.584384
0.584876
0.585184
0.585285
0.585372
0.585625
0.586014
0.586373
0.586696
0.587215
0.587582
0.587532
0.587673
0.588136
0.588925
0.590001
0.591499
0.593339
0.595378
0.597137
0.598593
0.599838
0.600968
0.602408
0.602584
0.602623
0.602757
0.603239
0.603935
0.605177
0.606847
0.608554
0.610299
0.611385
0.611512
0.61218
0.613173
0.614067
0.61548
0.617794
0.619235
0.620219
0.621117
0.621407
0.621942
0.62379
0.625966
0.626717
0.62803
0.629642
0.630599
0.631607
0.633697
0.585765
0.585842
0.585927
0.586033
0.58612
0.586199
0.586371
0.586423
0.586448
0.586612
0.586845
0.586888
0.586943
0.587064
0.58722
0.587503
0.587708
0.58778
0.58796
0.588194
0.588286
0.588381
0.588558
0.588801
0.589124
0.589474
0.589704
0.589951
0.590217
0.590441
0.590685
0.591152
0.591325
0.59131
0.591372
0.591805
0.592098
0.59207
0.59213
0.592382
0.592727
0.593034
0.593412
0.593648
0.593929
0.594561
0.595026
0.595259
0.595622
0.596375
0.597149
0.597702
0.59823
0.598812
0.599431
0.600181
0.601185
0.602391
0.603801
0.60517
0.606427
0.607509
0.608377
0.609063
0.609543
0.610173
0.611101
0.611545
0.611257
0.611057
0.611249
0.611626
0.612021
0.612737
0.614102
0.615924
0.617632
0.619083
0.619812
0.620367
0.621051
0.621303
0.621719
0.623061
0.624854
0.626318
0.627771
0.628341
0.628418
0.629074
0.630912
0.632634
0.633629
0.635001
0.63578
0.636313
0.637455
0.638607
0.639348
0.640934
0.602194
0.60227
0.602352
0.602463
0.602572
0.602668
0.602734
0.602805
0.603007
0.603171
0.603177
0.603237
0.603453
0.603595
0.6037
0.603869
0.603988
0.604151
0.604342
0.604429
0.604557
0.604717
0.604814
0.604909
0.605036
0.605233
0.605515
0.605745
0.605931
0.606106
0.606365
0.606662
0.606965
0.607307
0.607724
0.608107
0.608489
0.608878
0.609265
0.60958
0.60992
0.610318
0.610709
0.611042
0.611386
0.611801
0.612225
0.612691
0.613291
0.613842
0.614335
0.614872
0.615407
0.615898
0.616393
0.617004
0.617482
0.617623
0.617751
0.617917
0.618227
0.618652
0.618995
0.618965
0.61858
0.618407
0.618708
0.619626
0.620237
0.620879
0.621953
0.623689
0.625725
0.62732
0.628466
0.629351
0.629973
0.630429
0.630452
0.630447
0.630864
0.632041
0.633675
0.634902
0.635919
0.636862
0.637239
0.637864
0.638791
0.639628
0.640751
0.642093
0.642369
0.642737
0.643824
0.644801
0.645572
0.646752
0.64777
0.649184
0.619555
0.619618
0.619676