/*--------------------------------*- C++ -*----------------------------------*\
  =========                 |
  \\      /  F ield         | OpenFOAM: The Open Source CFD Toolbox
   \\    /   O peration     | Website:  https://openfoam.org
    \\  /    A nd           | Version:  7
     \\/     M anipulation  |
\*---------------------------------------------------------------------------*/
FoamFile
{
    version     2.0;
    format      ascii;
    class       volScalarField;
    location    "5";
    object      rho;
}
// * * * * * * * * * * * * * * * * * * * * * * * * * * * * * * * * * * * * * //

dimensions      [1 -3 0 0 0 0 0];

internalField   nonuniform List<scalar> 
90000
(
0.14202
0.171459
0.194832
0.224097
0.253651
0.268551
0.288943
0.315452
0.338081
0.360883
0.389264
0.418511
0.448109
0.479348
0.512447
0.547323
0.581668
0.61491
0.650374
0.680723
0.711054
0.736668
0.757112
0.77333
0.782716
0.789386
0.790027
0.784861
0.785734
0.782055
0.779317
0.782052
0.780419
0.780182
0.785404
0.791618
0.795885
0.802804
0.811438
0.820711
0.831655
0.835523
0.839093
0.845288
0.852007
0.855309
0.85933
0.864894
0.871488
0.875903
0.880951
0.885029
0.88861
0.892934
0.899213
0.906497
0.913902
0.921464
0.930464
0.939892
0.946343
0.951718
0.956545
0.960046
0.963729
0.964824
0.963969
0.961289
0.95636
0.951941
0.94883
0.949631
0.951534
0.952737
0.955467
0.958045
0.959538
0.959644
0.958526
0.957168
0.957696
0.961494
0.968144
0.975124
0.982379
0.988363
0.994635
1.00304
1.01474
1.02286
1.02826
1.03243
1.03565
1.04417
1.05302
1.05771
1.06477
1.07262
1.07824
1.08486
0.118435
0.118473
0.118514
0.118561
0.118613
0.118674
0.118742
0.118827
0.118918
0.119024
0.119124
0.120077
0.122229
0.126673
0.133404
0.143572
0.15692
0.174763
0.197434
0.226969
0.260753
0.304215
0.352995
0.404887
0.460201
0.513471
0.565064
0.606107
0.643162
0.664427
0.685736
0.697531
0.701164
0.700122
0.696618
0.694858
0.689586
0.689825
0.692781
0.696372
0.699256
0.703932
0.710948
0.718661
0.728307
0.738567
0.749641
0.763001
0.775594
0.785473
0.794964
0.804665
0.815345
0.826738
0.840135
0.853453
0.86681
0.878752
0.889833
0.898576
0.904018
0.906911
0.909991
0.913887
0.918942
0.92372
0.928312
0.931982
0.934604
0.936606
0.940216
0.944853
0.95012
0.953587
0.956411
0.958243
0.957866
0.956639
0.955265
0.956938
0.962361
0.969598
0.976271
0.982267
0.988689
0.994237
1.00242
1.01127
1.02263
1.02731
1.0328
1.03593
1.0408
1.05071
1.05553
1.06042
1.06865
1.07687
1.08191
1.08808
0.119495
0.119595
0.119704
0.11982
0.119946
0.120073
0.120207
0.120337
0.120466
0.1206
0.120727
0.120883
0.120955
0.121018
0.121091
0.121169
0.121251
0.121329
0.121413
0.121485
0.121566
0.121618
0.122556
0.126737
0.13598
0.152973
0.17723
0.212511
0.254003
0.30655
0.361278
0.418031
0.468391
0.516737
0.553538
0.588538
0.612427
0.63595
0.651398
0.662757
0.667949
0.668868
0.669255
0.668315
0.6629
0.652949
0.647921
0.64679
0.646908
0.651277
0.662701
0.682902
0.705701
0.72706
0.744286
0.756922
0.763845
0.769719
0.775943
0.784969
0.797761
0.813929
0.829604
0.84446
0.856163
0.866463
0.877203
0.887576
0.898034
0.908422
0.919652
0.92801
0.934981
0.938309
0.937893
0.937587
0.939536
0.944033
0.950958
0.960035
0.967427
0.9734
0.979018
0.98556
0.993336
1.0023
1.01155
1.02175
1.02754
1.03106
1.03539
1.03949
1.04771
1.05523
1.05835
1.06384
1.07232
1.0798
1.084
1.09126
0.12081
0.120916
0.121022
0.121124
0.12122
0.121308
0.121392
0.121468
0.121542
0.121607
0.121669
0.121726
0.12178
0.121835
0.121892
0.121945
0.121991
0.122034
0.122079
0.122115
0.122142
0.12218
0.122206
0.122222
0.122232
0.122247
0.122292
0.122321
0.122329
0.122331
0.124254
0.133306
0.149492
0.176162
0.214244
0.259637
0.320239
0.380464
0.439952
0.493259
0.540934
0.578979
0.604739
0.631882
0.633329
0.632364
0.630861
0.625326
0.61916
0.618053
0.621166
0.621153
0.623486
0.630102
0.64128
0.655907
0.668997
0.682092
0.693032
0.703473
0.714475
0.724727
0.737577
0.751677
0.762675
0.772519
0.78308
0.795108
0.810195
0.828157
0.845499
0.859077
0.869926
0.882466
0.894442
0.906844
0.918324
0.932108
0.948139
0.959513
0.966364
0.971748
0.977388
0.985237
0.994032
1.00586
1.01662
1.02581
1.02853
1.03187
1.03654
1.0452
1.05465
1.05763
1.06084
1.06783
1.07645
1.08152
1.08525
1.09352
0.122013
0.122043
0.122063
0.122077
0.122089
0.122101
0.122113
0.122129
0.122145
0.122153
0.122156
0.122161
0.122171
0.122186
0.122205
0.122223
0.122235
0.122248
0.122273
0.122295
0.122304
0.12232
0.122347
0.122356
0.122361
0.122375
0.122416
0.12244
0.122442
0.122447
0.122456
0.122466
0.122464
0.122466
0.12249
0.122532
0.123112
0.127616
0.144176
0.171687
0.215412
0.275346
0.343978
0.42003
0.487339
0.540524
0.584167
0.606593
0.62367
0.621623
0.6221
0.617711
0.605748
0.589853
0.573648
0.575533
0.585774
0.605524
0.6278
0.64658
0.657956
0.657114
0.653683
0.654271
0.658979
0.673017
0.691712
0.708074
0.723086
0.738276
0.755601
0.774248
0.792901
0.813082
0.833854
0.854185
0.872298
0.888835
0.902634
0.915606
0.929271
0.943657
0.958143
0.973082
0.987913
1.00545
1.0165
1.02417
1.02402
1.02693
1.03597
1.04801
1.05589
1.05797
1.06167
1.07118
1.07819
1.08206
1.08576
1.09458
0.122211
0.122211
0.122206
0.122203
0.122203
0.122204
0.122209
0.122216
0.122225
0.122231
0.122234
0.122239
0.122248
0.122259
0.122274
0.122294
0.122308
0.122325
0.122362
0.122389
0.122398
0.122407
0.122427
0.122438
0.122447
0.122466
0.122486
0.122507
0.122529
0.122552
0.122591
0.122616
0.122617
0.122628
0.122682
0.122784
0.12292
0.123076
0.123205
0.123279
0.123347
0.123397
0.125794
0.137234
0.172005
0.224371
0.300618
0.385586
0.474865
0.5216
0.561168
0.583722
0.588016
0.585004
0.577656
0.579648
0.582718
0.584127
0.588236
0.596456
0.604382
0.609342
0.614011
0.611971
0.61314
0.617565
0.627076
0.639277
0.6523
0.662766
0.671735
0.683132
0.699914
0.721271
0.742212
0.761029
0.7794
0.799634
0.82238
0.847921
0.875452
0.902697
0.926658
0.94618
0.961184
0.971858
0.980145
0.990594
1.00193
1.0165
1.03326
1.04734
1.04822
1.051
1.06173
1.07269
1.07732
1.07747
1.08205
1.09473
0.12221
0.122207
0.122207
0.122208
0.122212
0.122221
0.122232
0.12224
0.122247
0.122258
0.12228
0.122308
0.122328
0.122346
0.122378
0.122415
0.122445
0.122481
0.122533
0.122565
0.122585
0.122607
0.122616
0.12263
0.122657
0.122693
0.122727
0.122762
0.122812
0.122863
0.122902
0.122931
0.122955
0.122997
0.123068
0.123169
0.123298
0.123424
0.123506
0.123546
0.123581
0.123645
0.123814
0.124019
0.124075
0.1241
0.124105
0.132565
0.160145
0.219842
0.295348
0.389727
0.472962
0.53626
0.570846
0.589096
0.5881
0.584865
0.579715
0.570043
0.565646
0.569549
0.582574
0.595668
0.606827
0.604125
0.595912
0.59096
0.595898
0.607873
0.62118
0.631623
0.639532
0.64901
0.665772
0.685104
0.703896
0.721557
0.743154
0.767593
0.791436
0.813296
0.834594
0.856303
0.878585
0.899688
0.922406
0.946089
0.969385
0.992607
1.00292
1.00622
1.01589
1.03612
1.06068
1.06279
1.06233
1.0692
1.07754
1.08797
0.122281
0.122295
0.122312
0.122328
0.122346
0.122368
0.122393
0.122419
0.122451
0.122485
0.122518
0.12255
0.12259
0.122639
0.122693
0.122749
0.122801
0.122851
0.122904
0.122959
0.122998
0.123028
0.123056
0.123094
0.123135
0.123169
0.1232
0.12324
0.123303
0.123372
0.123393
0.123391
0.123392
0.123406
0.12344
0.123497
0.123572
0.123616
0.123623
0.123629
0.123646
0.123706
0.123878
0.12405
0.12412
0.12415
0.124153
0.124149
0.124135
0.124105
0.124093
0.13576
0.172945
0.246121
0.343645
0.442203
0.502366
0.532323
0.55464
0.55102
0.55837
0.569267
0.574153
0.584439
0.596972
0.598321
0.593498
0.586051
0.579157
0.581671
0.590668
0.601876
0.609888
0.6137
0.615635
0.62456
0.641228
0.658004
0.671971
0.688758
0.708822
0.728714
0.749227
0.772572
0.79621
0.819031
0.842598
0.86118
0.88331
0.905335
0.924704
0.946681
0.973
1.00177
1.00917
1.01887
1.03546
1.05479
1.06467
1.07245
0.122557
0.122589
0.122617
0.12264
0.122663
0.122686
0.122712
0.122746
0.122791
0.122849
0.122914
0.122971
0.123021
0.123078
0.123136
0.123184
0.12323
0.123275
0.123321
0.12337
0.123407
0.123429
0.12345
0.123488
0.123552
0.123599
0.123617
0.123633
0.123675
0.123727
0.123732
0.123716
0.123706
0.123709
0.123715
0.123745
0.123751
0.123729
0.123702
0.1237
0.123711
0.123773
0.123938
0.12409
0.124137
0.124156
0.124158
0.124152
0.124139
0.124068
0.12403
0.123994
0.123974
0.123779
0.128017
0.150965
0.214417
0.30487
0.410351
0.481204
0.540464
0.563527
0.572817
0.578907
0.583166
0.586367
0.586437
0.584795
0.583344
0.584343
0.585141
0.587233
0.592605
0.600033
0.605351
0.609869
0.616476
0.626765
0.636784
0.642864
0.650704
0.664492
0.680354
0.695478
0.714115
0.731512
0.750208
0.77198
0.792616
0.813082
0.839382
0.866825
0.88977
0.90848
0.931419
0.954065
0.974515
0.989379
1.00393
1.03149
0.12304
0.123042
0.123044
0.12305
0.123057
0.123067
0.12308
0.123102
0.123148
0.123222
0.123303
0.123365
0.123414
0.123465
0.123514
0.123548
0.123575
0.123609
0.123647
0.123677
0.123679
0.123684
0.123698
0.123754
0.123855
0.123898
0.123903
0.123914
0.123959
0.123977
0.123974
0.123961
0.123936
0.123921
0.123915
0.123909
0.123872
0.123779
0.123755
0.123757
0.123773
0.123844
0.123983
0.124101
0.124104
0.124077
0.124042
0.124003
0.123949
0.123839
0.12364
0.123459
0.123251
0.122909
0.122496
0.122368
0.12234
0.122178
0.136356
0.194626
0.284051
0.392045
0.472254
0.536673
0.549161
0.5631
0.581819
0.589
0.596233
0.595891
0.589954
0.58593
0.587228
0.59178
0.598824
0.605725
0.609267
0.612647
0.620007
0.626857
0.631367
0.636913
0.647303
0.656625
0.662161
0.673281
0.687484
0.702297
0.721429
0.736226
0.751507
0.77363
0.797445
0.817864
0.838945
0.860834
0.88145
0.904494
0.925906
0.956928
0.123169
0.123171
0.123183
0.123204
0.123217
0.123228
0.123244
0.123274
0.123333
0.123436
0.123527
0.123585
0.123635
0.123688
0.123734
0.123761
0.123783
0.12382
0.123852
0.123842
0.12379
0.123778
0.123799
0.123914
0.124046
0.124058
0.124059
0.124081
0.124114
0.124114
0.124109
0.124092
0.124069
0.124039
0.124014
0.123991
0.123937
0.123808
0.123773
0.123777
0.123799
0.123875
0.123984
0.123982
0.123954
0.123878
0.123754
0.123611
0.123481
0.123327
0.123055
0.122661
0.122255
0.121876
0.121646
0.121635
0.121644
0.121652
0.121638
0.121514
0.121333
0.138364
0.191254
0.289468
0.404319
0.49859
0.566208
0.585773
0.600093
0.602058
0.597341
0.588765
0.591493
0.596944
0.605224
0.611846
0.613746
0.614949
0.616185
0.619695
0.624282
0.628716
0.633893
0.641906
0.646535
0.650633
0.659599
0.66823
0.671083
0.681493
0.697477
0.712593
0.727568
0.743836
0.758708
0.775997
0.796145
0.816852
0.834513
0.866323
0.123302
0.123311
0.123324
0.123341
0.123363
0.123394
0.123442
0.123508
0.12358
0.123652
0.123709
0.123751
0.12379
0.123827
0.123858
0.123876
0.123898
0.123935
0.12394
0.123899
0.123795
0.123781
0.123832
0.124017
0.124098
0.124098
0.124104
0.124146
0.124167
0.124166
0.124158
0.12413
0.124109
0.124084
0.124049
0.12402
0.123976
0.123831
0.123708
0.123677
0.123673
0.123656
0.123608
0.123599
0.123585
0.123496
0.123296
0.123059
0.122837
0.122623
0.122374
0.122057
0.121718
0.121386
0.121254
0.121262
0.121341
0.121418
0.121446
0.121396
0.121351
0.121434
0.121875
0.122452
0.143809
0.204527
0.323568
0.444662
0.531396
0.589879
0.596566
0.596784
0.608432
0.607451
0.612757
0.614679
0.618393
0.620345
0.622525
0.626226
0.630478
0.632657
0.63488
0.637102
0.64075
0.6447
0.649776
0.658493
0.662624
0.665369
0.672997
0.684134
0.692203
0.694181
0.705185
0.720005
0.732062
0.745577
0.759901
0.786571
0.123466
0.123474
0.123487
0.1235
0.123517
0.123559
0.12366
0.123752
0.123786
0.123798
0.123806
0.123818
0.123835
0.123854
0.123875
0.123899
0.123938
0.123969
0.123964
0.123859
0.12375
0.123756
0.12385
0.12404
0.124081
0.124081
0.124095
0.124144
0.124155
0.124152
0.124133
0.124104
0.124101
0.124087
0.124054
0.123984
0.123863
0.123719
0.123558
0.123356
0.123116
0.123031
0.123036
0.12303
0.122975
0.122818
0.122574
0.122337
0.122134
0.121942
0.121745
0.121546
0.121321
0.121136
0.121118
0.12114
0.121246
0.121334
0.121425
0.121697
0.122254
0.12332
0.124827
0.126162
0.126763
0.127392
0.128224
0.16416
0.247532
0.388434
0.523342
0.586827
0.618208
0.619817
0.631782
0.626001
0.634604
0.633984
0.634167
0.636905
0.638733
0.637903
0.638538
0.641554
0.646818
0.650969
0.653658
0.655396
0.659287
0.664292
0.670207
0.675041
0.682828
0.685799
0.689127
0.696651
0.704374
0.711431
0.71825
0.734943
0.123605
0.123613
0.123619
0.123621
0.12363
0.123698
0.123844
0.123883
0.123875
0.123836
0.123825
0.123828
0.123822
0.123797
0.123792
0.123827
0.123904
0.1239
0.123778
0.123482
0.123436
0.123478
0.123623
0.123691
0.123673
0.123656
0.123677
0.12374
0.123753
0.123745
0.123679
0.123651
0.123695
0.12374
0.123704
0.123551
0.123301
0.123087
0.122974
0.122873
0.122677
0.12253
0.12242
0.122304
0.122165
0.121957
0.121754
0.121664
0.121591
0.121464
0.121333
0.121256
0.12117
0.121095
0.121095
0.12113
0.121254
0.121584
0.122447
0.124015
0.125957
0.128057
0.129624
0.130363
0.130941
0.131574
0.133377
0.135861
0.13789
0.149037
0.214133
0.352218
0.49421
0.590541
0.630038
0.639631
0.668299
0.658949
0.660921
0.660593
0.656627
0.655943
0.661153
0.662485
0.661255
0.659865
0.657966
0.660114
0.667043
0.673676
0.677307
0.678993
0.679942
0.683507
0.688148
0.692347
0.696653
0.701006
0.707428
0.717051
0.123801
0.12379
0.123767
0.123752
0.123755
0.123815
0.123891
0.123892
0.123877
0.123843
0.123791
0.123717
0.12363
0.123548
0.123483
0.123428
0.123324
0.12304
0.122846
0.122854
0.1229
0.122945
0.122973
0.123007
0.123018
0.123003
0.122991
0.122999
0.123007
0.122991
0.122888
0.122832
0.12282
0.122773
0.122642
0.122468
0.122261
0.122109
0.122069
0.122058
0.122011
0.121876
0.121681
0.121571
0.12153
0.121443
0.121324
0.121313
0.121316
0.121266
0.121216
0.121209
0.121167
0.121189
0.121341
0.121833
0.122735
0.124221
0.126449
0.128687
0.131252
0.132908
0.133792
0.134454
0.135349
0.137109
0.140541
0.144342
0.148504
0.150671
0.15049
0.151014
0.184235
0.295289
0.454491
0.587332
0.65545
0.674016
0.70082
0.705176
0.700736
0.692827
0.692271
0.687701
0.688316
0.68854
0.688262
0.687079
0.687218
0.6872
0.68479
0.683873
0.687831
0.694293
0.698115
0.699014
0.701406
0.704994
0.705863
0.711038
0.123676
0.123616
0.123574
0.123568
0.123565
0.123536
0.123463
0.123356
0.123206
0.123096
0.123002
0.12292
0.122888
0.12288
0.12287
0.122827
0.122645
0.122383
0.122357
0.122423
0.122448
0.122427
0.12242
0.122476
0.122555
0.122543
0.122426
0.122289
0.122238
0.122181
0.122072
0.121999
0.121978
0.121962
0.121925
0.121795
0.121588
0.121508
0.121509
0.121508
0.121528
0.121523
0.121422
0.121345
0.121353
0.121314
0.121227
0.121228
0.121256
0.121286
0.121392
0.121738
0.122503
0.123868
0.125646
0.127652
0.129345
0.131004
0.132449
0.133769
0.135145
0.136124
0.137192
0.13881
0.14144
0.145842
0.149635
0.152877
0.156004
0.155883
0.155996
0.157081
0.159858
0.162699
0.177927
0.25775
0.40041
0.566298
0.674963
0.704037
0.73675
0.75123
0.748045
0.73736
0.736367
0.729727
0.731431
0.728986
0.724216
0.722088
0.720464
0.718885
0.716648
0.716482
0.714075
0.711236
0.71288
0.714494
0.715995
0.719097
0.122379
0.122335
0.122342
0.122371
0.122396
0.122415
0.122424
0.12242
0.122384
0.122307
0.12221
0.122197
0.122288
0.122434
0.122443
0.122428
0.122351
0.122227
0.122224
0.12226
0.12225
0.122184
0.122173
0.122216
0.12222
0.122146
0.121896
0.121706
0.121627
0.121541
0.121429
0.121408
0.121478
0.121561
0.121564
0.121467
0.121374
0.121383
0.121398
0.121395
0.121426
0.121462
0.121407
0.121343
0.121348
0.121364
0.121385
0.1216
0.122227
0.12329
0.124924
0.126956
0.129556
0.132046
0.134236
0.135385
0.136303
0.136952
0.13733
0.138082
0.138898
0.140744
0.144102
0.147667
0.151515
0.154509
0.156317
0.157969
0.15949
0.161323
0.163559
0.166632
0.169031
0.171075
0.173236
0.176974
0.178971
0.225667
0.345132
0.525523
0.689525
0.742428
0.77117
0.799031
0.807352
0.78662
0.785152
0.774773
0.775195
0.774655
0.773189
0.766968
0.758488
0.7543
0.751942
0.7509
0.749228
0.74696
0.743425
0.740083
0.12134
0.121391
0.121456
0.121554
0.121694
0.121853
0.12201
0.122066
0.122065
0.122009
0.121962
0.121975
0.122099
0.122313
0.122352
0.122352
0.12234
0.122236
0.122208
0.122196
0.122113
0.121989
0.121976
0.121991
0.12199
0.121914
0.121661
0.121494
0.12144
0.121366
0.12125
0.121236
0.121318
0.121468
0.121483
0.121396
0.121356
0.121376
0.121401
0.12145
0.121605
0.121919
0.122426
0.123104
0.123829
0.124851
0.126187
0.127857
0.129546
0.13135
0.133069
0.134927
0.136656
0.138261
0.139461
0.140009
0.140682
0.141404
0.142455
0.144429
0.147661
0.151714
0.154968
0.158014
0.160157
0.160455
0.160695
0.16102
0.162704
0.166737
0.171899
0.176568
0.179463
0.179841
0.179857
0.181892
0.187016
0.189818
0.191171
0.213525
0.304982
0.491084
0.668946
0.77872
0.829103
0.830696
0.856588
0.838634
0.834377
0.822183
0.822134
0.822134
0.820989
0.816373
0.809489
0.802062
0.796426
0.791186
0.786011
0.779292
0.122185
0.122193
0.12222
0.122273
0.122349
0.122452
0.122565
0.122604
0.122599
0.122484
0.122372
0.122378
0.122456
0.122517
0.122516
0.122497
0.122454
0.122312
0.122236
0.122196
0.122103
0.122041
0.122041
0.122044
0.122036
0.12196
0.121716
0.121597
0.121584
0.121518
0.121404
0.12143
0.121584
0.122023
0.122466
0.122715
0.123045
0.123591
0.124496
0.125739
0.127324
0.128966
0.130728
0.132417
0.134138
0.135599
0.136715
0.137599
0.138335
0.139128
0.139898
0.140854
0.141656
0.14268
0.143842
0.145408
0.147315
0.149792
0.153056
0.156145
0.159
0.161422
0.162689
0.164217
0.165315
0.16548
0.165881
0.167448
0.170738
0.175261
0.179807
0.183556
0.186731
0.187522
0.187219
0.187667
0.191687
0.198203
0.201854
0.203252
0.205081
0.21309
0.269374
0.430421
0.646983
0.793967
0.861299
0.870825
0.902334
0.884109
0.880323
0.874089
0.870965
0.867128
0.867659
0.864686
0.858864
0.851798
0.847382
0.838174
0.12136
0.121376
0.121416
0.12148
0.12158
0.121696
0.121787
0.121885
0.121956
0.121948
0.12185
0.1218
0.121811
0.121846
0.121863
0.121884
0.12195
0.122048
0.122187
0.122377
0.122514
0.122626
0.122853
0.123089
0.12327
0.123575
0.124036
0.124584
0.125228
0.126054
0.126978
0.127874
0.128651
0.129532
0.130618
0.131879
0.133136
0.13435
0.135362
0.136342
0.137344
0.138435
0.139525
0.140579
0.141626
0.142452
0.143107
0.143689
0.144434
0.145302
0.146519
0.147964
0.149697
0.151824
0.154305
0.157124
0.159743
0.161967
0.163814
0.165277
0.166015
0.166495
0.166968
0.167821
0.169911
0.172981
0.176872
0.180428
0.183684
0.185671
0.186664
0.18825
0.190769
0.193539
0.195554
0.197203
0.200314
0.206906
0.209914
0.210424
0.212518
0.216609
0.220194
0.222304
0.259663
0.409085
0.620931
0.796853
0.896502
0.905004
0.940982
0.93378
0.92836
0.917023
0.914079
0.913786
0.916128
0.914171
0.907399
0.896751
0.122653
0.122884
0.123131
0.123456
0.123871
0.124245
0.124536
0.124793
0.125049
0.125319
0.125638
0.125984
0.126279
0.126477
0.126717
0.127272
0.128133
0.129008
0.129771
0.130469
0.131203
0.131929
0.132562
0.133033
0.133541
0.13427
0.134966
0.135497
0.136053
0.13678
0.137627
0.138396
0.139075
0.13974
0.140488
0.141254
0.142039
0.142823
0.143574
0.144345
0.145055
0.14582
0.146604
0.147598
0.148631
0.14977
0.151032
0.152385
0.154039
0.155866
0.157968
0.160006
0.162167
0.164019
0.165621
0.166937
0.168082
0.169046
0.169844
0.170795
0.171031
0.171586
0.172922
0.175586
0.179441
0.184136
0.187957
0.191036
0.193574
0.193637
0.192995
0.193115
0.195341
0.200588
0.206876
0.210538
0.211776
0.214249
0.217095
0.218189
0.219472
0.223319
0.229627
0.234054
0.234812
0.235889
0.255672
0.383652
0.607591
0.804422
0.93289
0.941268
0.975599
0.977403
0.972959
0.960932
0.957412
0.958268
0.960214
0.956223
0.134985
0.135146
0.135361
0.135637
0.135916
0.135987
0.136008
0.136056
0.136221
0.136553
0.13712
0.137567
0.137763
0.137916
0.138219
0.138706
0.139151
0.139492
0.13984
0.140235
0.140618
0.141017
0.141447
0.141907
0.14235
0.142747
0.143243
0.143846
0.144457
0.144964
0.145467
0.146076
0.146835
0.147603
0.148355
0.149101
0.149999
0.15107
0.152274
0.15353
0.154847
0.156294
0.15784
0.159431
0.160948
0.162514
0.163919
0.165287
0.166517
0.167702
0.168735
0.169645
0.170439
0.171052
0.171769
0.172443
0.173257
0.174289
0.175835
0.177973
0.181065
0.184312
0.187811
0.190663
0.192573
0.194386
0.195537
0.196955
0.198633
0.200042
0.201515
0.203035
0.205452
0.209856
0.216301
0.220927
0.220738
0.220665
0.223019
0.227666
0.23135
0.235405
0.238606
0.24078
0.243411
0.246894
0.250003
0.252592
0.26304
0.37862
0.605515
0.809873
0.965387
0.975663
1.00965
1.01662
1.01265
1.00134
0.996332
0.998898
0.144256
0.144436
0.1446
0.144771
0.144972
0.145221
0.145551
0.145928
0.146282
0.146611
0.146908
0.147277
0.14762
0.14808
0.148702
0.149075
0.149307
0.14964
0.150207
0.15093
0.151622
0.152261
0.152803
0.153269
0.153857
0.154639
0.155567
0.156476
0.157282
0.15804
0.158826
0.159753
0.160673
0.161409
0.162104
0.162895
0.163722
0.164564
0.165477
0.166426
0.167362
0.168204
0.169013
0.169832
0.170691
0.171585
0.172467
0.173388
0.17429
0.175136
0.175907
0.176746
0.177414
0.178378
0.179537
0.181213
0.183209
0.185835
0.188637
0.191758
0.194624
0.197076
0.199356
0.201249
0.201548
0.201487
0.201551
0.202188
0.204301
0.208541
0.213809
0.21886
0.221611
0.222269
0.223954
0.227432
0.228731
0.229794
0.232099
0.236697
0.242598
0.245864
0.246961
0.249287
0.253191
0.257156
0.260974
0.265998
0.269589
0.269759
0.273878
0.383361
0.614123
0.82945
0.996127
1.01068
1.04792
1.05145
1.04604
1.03816
0.157082
0.157269
0.157493
0.15776
0.158043
0.158368
0.158715
0.158997
0.159264
0.159538
0.15985
0.160246
0.160705
0.161105
0.161442
0.161827
0.162342
0.162957
0.163559
0.164051
0.164435
0.164753
0.16515
0.165727
0.166337
0.166922
0.16751
0.168176
0.168804
0.169361
0.169916
0.170532
0.171119
0.17171
0.172379
0.173069
0.173681
0.174256
0.174798
0.175216
0.175608
0.175988
0.176451
0.176937
0.177567
0.178305
0.179388
0.180668
0.182302
0.184104
0.186156
0.188315
0.190731
0.192962
0.195167
0.197011
0.198873
0.200536
0.20189
0.203028
0.203924
0.204769
0.20569
0.207394
0.208813
0.210295
0.212364
0.215214
0.218642
0.222152
0.225613
0.229752
0.232461
0.232048
0.231508
0.232839
0.237151
0.24262
0.245713
0.24904
0.252706
0.254537
0.256616
0.259907
0.263894
0.267586
0.271204
0.274872
0.277572
0.280169
0.284566
0.288911
0.291783
0.396902
0.628505
0.854277
1.03031
1.04506
1.08462
1.08389
0.169093
0.169346
0.169651
0.169929
0.170126
0.170375
0.170788
0.170978
0.171003
0.171052
0.171269
0.17174
0.172268
0.17265
0.172763
0.172811
0.172946
0.173297
0.17381
0.174226
0.17451
0.17478
0.175107
0.175506
0.175902
0.176271
0.176711
0.177204
0.177735
0.178321
0.179015
0.179793
0.180605
0.18143
0.182289
0.183239
0.184261
0.185299
0.186319
0.18738
0.188542
0.189772
0.190999
0.192182
0.193288
0.19443
0.19558
0.19696
0.198358
0.199783
0.201129
0.202515
0.203952
0.205396
0.206727
0.207878
0.208876
0.209775
0.210745
0.211403
0.21232
0.21338
0.214781
0.216973
0.220583
0.224901
0.228875
0.231945
0.234222
0.235129
0.235364
0.236582
0.239445
0.241744
0.243504
0.245381
0.25024
0.255857
0.259453
0.261393
0.262247
0.264095
0.266982
0.270812
0.274564
0.279441
0.282742
0.283844
0.287144
0.292502
0.29657
0.300195
0.303869
0.305294
0.308047
0.417479
0.660377
0.894365
1.06294
1.0965
0.182731
0.182946
0.183223
0.183522
0.1838
0.184032
0.18424
0.184455
0.184756
0.18512
0.185367
0.185571
0.185797
0.186069
0.186378
0.186709
0.187072
0.187511
0.187918
0.188233
0.188571
0.189025
0.189586
0.190148
0.190651
0.191172
0.191718
0.19228
0.192846
0.193411
0.194021
0.194613
0.19519
0.195821
0.196576
0.197362
0.198192
0.199039
0.199933
0.200885
0.201894
0.202937
0.203992
0.20509
0.206242
0.207406
0.208487
0.20948
0.21038
0.211125
0.211779
0.212449
0.213079
0.213953
0.214969
0.216267
0.217827
0.219832
0.222215
0.224871
0.227556
0.230399
0.232964
0.234909
0.236702
0.238461
0.240577
0.242511
0.24434
0.245124
0.245267
0.246082
0.24882
0.254671
0.260003
0.263289
0.265184
0.267344
0.269531
0.270444
0.272303
0.27544
0.280469
0.284574
0.288444
0.291757
0.293784
0.296086
0.298731
0.304228
0.308555
0.310619
0.31436
0.31857
0.323111
0.324634
0.329552
0.451054
0.692874
1.00132
0.196042
0.196198
0.196461
0.196851
0.197222
0.197303
0.197353
0.197476
0.19781
0.198284
0.19851
0.198626
0.19882
0.199204
0.199702
0.200184
0.200609
0.200985
0.201294
0.201651
0.202221
0.202727
0.203215
0.203792
0.204365
0.204861
0.205349
0.205936
0.206554
0.207127
0.207669
0.208274
0.20895
0.20966
0.210374
0.211069
0.211749
0.212418
0.213115
0.213847
0.214604
0.215339
0.21609
0.216968
0.218029
0.219256
0.220527
0.221886
0.223405
0.225105
0.226871
0.228544
0.230041
0.231326
0.232666
0.234175
0.235945
0.23775
0.239453
0.241295
0.243158
0.245038
0.246868
0.248116
0.248953
0.249426
0.250193
0.251674
0.254178
0.257527
0.261726
0.265132
0.267564
0.270286
0.274181
0.277034
0.277269
0.277896
0.279398
0.282843
0.286598
0.291526
0.295642
0.298809
0.300974
0.301686
0.304122
0.308702
0.313162
0.3173
0.322186
0.324142
0.325761
0.329538
0.334564
0.33799
0.341261
0.342981
0.351954
0.616784
0.212245
0.212391
0.212546
0.212765
0.213128
0.213442
0.213588
0.213704
0.213917
0.214363
0.214837
0.215168
0.215406
0.215695
0.216034
0.216388
0.216742
0.217122
0.217568
0.218128
0.218463
0.218823
0.219318
0.2198
0.220222
0.220697
0.221376
0.22215
0.222773
0.223329
0.223966
0.224677
0.225414
0.226202
0.227097
0.227988
0.228867
0.229771
0.230683
0.231591
0.232497
0.233356
0.234202
0.235107
0.236068
0.237015
0.238022
0.239024
0.23994
0.240913
0.24209
0.243431
0.244919
0.246373
0.247785
0.249157
0.250183
0.251115
0.251979
0.25293
0.254079
0.255337
0.257166
0.2596
0.262233
0.265039
0.267611
0.270101
0.272666
0.275515
0.279146
0.28302
0.284198
0.284016
0.285091
0.287183
0.289298
0.290954
0.294605
0.299186
0.304019
0.30727
0.30908
0.310781
0.312332
0.31536
0.318967
0.324555
0.329874
0.330814
0.332946
0.336066
0.338672
0.34197
0.346727
0.351368
0.354478
0.357614
0.360503
0.367294
0.229929
0.230074
0.230286
0.230638
0.231089
0.23129
0.231369
0.231474
0.231779
0.232453
0.232696
0.232854
0.233253
0.233731
0.234046
0.234287
0.234584
0.235019
0.235589
0.235987
0.236453
0.236938
0.23729
0.237586
0.237973
0.238481
0.239068
0.239545
0.240002
0.240508
0.241062
0.241635
0.242247
0.242897
0.243523
0.244131
0.244777
0.24546
0.246209
0.247025
0.247873
0.248783
0.249776
0.25081
0.25185
0.252909
0.254009
0.25484
0.255532
0.256325
0.257314
0.258352
0.259392
0.260791
0.262454
0.264278
0.266263
0.268343
0.270531
0.272618
0.27471
0.276644
0.278435
0.280378
0.28279
0.285542
0.2882
0.289957
0.290957
0.291432
0.292057
0.294411
0.296242
0.297444
0.298462
0.301858
0.306688
0.311818
0.315095
0.317794
0.320376
0.321518
0.323217
0.325055
0.328308
0.332881
0.33686
0.339631
0.343505
0.344752
0.345628
0.349066
0.355102
0.35901
0.360872
0.363703
0.367276
0.370665
0.373623
0.378875
0.249668
0.24986
0.250069
0.250273
0.25045
0.250631
0.250821
0.25107
0.251345
0.251643
0.251943
0.252219
0.252447
0.252697
0.252996
0.253328
0.253695
0.254096
0.254465
0.254866
0.255238
0.255607
0.256019
0.256522
0.257025
0.257619
0.258238
0.25882
0.259394
0.26002
0.260666
0.261302
0.261964
0.262635
0.26333
0.264018
0.264722
0.265488
0.266271
0.267064
0.267849
0.26869
0.269635
0.270629
0.271666
0.272697
0.273833
0.275165
0.276624
0.27808
0.279481
0.280848
0.282184
0.283486
0.284677
0.285946
0.287267
0.288719
0.290212
0.291846
0.293499
0.295228
0.296601
0.297532
0.298219
0.299067
0.300514
0.302305
0.304467
0.306177
0.307767
0.309577
0.313595
0.318684
0.32311
0.325548
0.328
0.330819
0.332241
0.333459
0.334185
0.335817
0.338257
0.342351
0.346122
0.349657
0.35379
0.354804
0.356138
0.360039
0.364003
0.366702
0.369708
0.373028
0.375436
0.378091
0.381439
0.38495
0.387542
0.391686
0.271505
0.271682
0.271872
0.27209
0.272335
0.272584
0.272851
0.273144
0.273324
0.273558
0.273867
0.274102
0.274339
0.274776
0.275276
0.27557
0.275797
0.276115
0.276582
0.277044
0.277428
0.277806
0.278153
0.278535
0.279065
0.279679
0.280276
0.280806
0.281297
0.281796
0.282345
0.28296
0.283642
0.284332
0.285017
0.285745
0.286571
0.287425
0.2883
0.289161
0.290007
0.290797
0.291609
0.292428
0.293156
0.29389
0.294712
0.295627
0.296628
0.297656
0.298798
0.299967
0.301285
0.302567
0.303742
0.304914
0.305962
0.307007
0.308069
0.309155
0.310429
0.312219
0.314501
0.317127
0.319404
0.32136
0.323102
0.325437
0.32834
0.332086
0.335806
0.337946
0.338936
0.340713
0.343667
0.344362
0.344724
0.345097
0.346533
0.348369
0.351279
0.3551
0.359185
0.363107
0.366516
0.367977
0.369825
0.372362
0.374199
0.376414
0.37979
0.382683
0.38424
0.386646
0.390466
0.393679
0.395764
0.397741
0.39974
0.403349
0.296447
0.296627
0.296827
0.297034
0.297254
0.297456
0.297721
0.297898
0.298101
0.298533
0.298904
0.29907
0.299342
0.299723
0.29989
0.300089
0.300435
0.300868
0.301258
0.301624
0.30205
0.302461
0.302898
0.303341
0.303792
0.304306
0.304876
0.305453
0.306024
0.306574
0.307117
0.307709
0.308324
0.308909
0.309483
0.310107
0.310779
0.311437
0.312103
0.312767
0.313438
0.314137
0.314902
0.315792
0.31679
0.317857
0.318889
0.319896
0.320952
0.322068
0.323107
0.324087
0.325225
0.326696
0.328241
0.329679
0.331341
0.333082
0.334794
0.336449
0.338177
0.339775
0.34137
0.343014
0.345
0.34708
0.348844
0.350235
0.351056
0.351877
0.353511
0.355316
0.355628
0.356001
0.357362
0.359568
0.361557
0.364186
0.367691
0.371967
0.375184
0.378053
0.380613
0.381931
0.383517
0.384767
0.385864
0.388069
0.391328
0.393615
0.395349
0.397669
0.400076
0.402064
0.403944
0.406011
0.408001
0.410041
0.41178
0.414379
0.324679
0.324799
0.324937
0.325065
0.325323
0.325781
0.325913
0.325971
0.326208
0.326717
0.326881
0.326911
0.327093
0.327677
0.328137
0.328249
0.328354
0.328591
0.328997
0.329481
0.329999
0.33048
0.330872
0.331241
0.331648
0.332112
0.332633
0.333184
0.333688
0.334176
0.334687
0.335206
0.335728
0.336235
0.336782
0.337378
0.33804
0.338771
0.339483
0.340174
0.340852
0.34154
0.342247
0.342962
0.343744
0.344601
0.345536
0.346558
0.34766
0.348856
0.350132
0.351414
0.352596
0.353661
0.354579
0.355629
0.35677
0.357941
0.359151
0.360432
0.361796
0.363218
0.364509
0.36543
0.3662
0.367148
0.368553
0.370362
0.372076
0.373292
0.374343
0.376321
0.379373
0.382005
0.38418
0.386552
0.389265
0.391542
0.393106
0.394452
0.395581
0.396174
0.397
0.398106
0.39925
0.401212
0.40344
0.405332
0.407045
0.408754
0.410112
0.411242
0.412635
0.414064
0.415363
0.416771
0.418388
0.419693
0.420524
0.421729
0.356211
0.356387
0.356589
0.35679
0.35702
0.357142
0.357227
0.357434
0.357843
0.358097
0.358248
0.358416
0.35869