/*--------------------------------*- C++ -*----------------------------------*\
  =========                 |
  \\      /  F ield         | OpenFOAM: The Open Source CFD Toolbox
   \\    /   O peration     | Website:  https://openfoam.org
    \\  /    A nd           | Version:  7
     \\/     M anipulation  |
\*---------------------------------------------------------------------------*/
FoamFile
{
    version     2.0;
    format      ascii;
    class       volVectorField;
    location    "5";
    object      U;
}
// * * * * * * * * * * * * * * * * * * * * * * * * * * * * * * * * * * * * * //

dimensions      [0 1 -1 0 0 0 0];

internalField   nonuniform List<vector> 
90000
(
(3.79213 -1.62457 0)
(3.6968 -1.30891 0)
(3.6674 -1.2821 0)
(3.61066 -1.03239 0)
(3.60299 -0.701575 0)
(3.62685 -0.716818 0)
(3.63883 -0.656012 0)
(3.62652 -0.487461 0)
(3.64213 -0.363798 0)
(3.66875 -0.318212 0)
(3.67942 -0.247268 0)
(3.67528 -0.118872 0)
(3.6996 -0.0953867 0)
(3.69296 0.0137181 0)
(3.70631 0.0542283 0)
(3.70333 0.141307 0)
(3.70676 0.204674 0)
(3.71093 0.262288 0)
(3.7154 0.310176 0)
(3.71073 0.388273 0)
(3.72588 0.391498 0)
(3.72055 0.447808 0)
(3.72533 0.472576 0)
(3.73387 0.472817 0)
(3.74116 0.486196 0)
(3.75097 0.475747 0)
(3.75835 0.455044 0)
(3.76895 0.427139 0)
(3.78905 0.391035 0)
(3.78441 0.360099 0)
(3.80163 0.326228 0)
(3.81005 0.285206 0)
(3.79992 0.240582 0)
(3.80908 0.224446 0)
(3.81399 0.20266 0)
(3.81509 0.189786 0)
(3.81618 0.196745 0)
(3.82129 0.203469 0)
(3.82316 0.227383 0)
(3.8295 0.244937 0)
(3.84386 0.248752 0)
(3.84904 0.275722 0)
(3.85737 0.290153 0)
(3.86478 0.287926 0)
(3.86774 0.295318 0)
(3.87045 0.306573 0)
(3.87343 0.310445 0)
(3.8755 0.311732 0)
(3.87721 0.313555 0)
(3.8807 0.317067 0)
(3.88376 0.318593 0)
(3.88611 0.322844 0)
(3.88783 0.32685 0)
(3.88863 0.328343 0)
(3.88844 0.327113 0)
(3.88774 0.326226 0)
(3.88639 0.321846 0)
(3.8849 0.314849 0)
(3.88531 0.302788 0)
(3.88616 0.289928 0)
(3.88583 0.280735 0)
(3.88618 0.274439 0)
(3.88625 0.271711 0)
(3.88554 0.270909 0)
(3.8856 0.268596 0)
(3.88459 0.272698 0)
(3.88434 0.277254 0)
(3.88422 0.283005 0)
(3.88484 0.290487 0)
(3.88446 0.294139 0)
(3.88482 0.299808 0)
(3.8849 0.301142 0)
(3.88559 0.303402 0)
(3.88529 0.300249 0)
(3.88525 0.297553 0)
(3.88545 0.294705 0)
(3.88636 0.293035 0)
(3.88711 0.292931 0)
(3.8883 0.293946 0)
(3.88846 0.295136 0)
(3.88865 0.293836 0)
(3.88797 0.289129 0)
(3.88688 0.28039 0)
(3.88589 0.271167 0)
(3.88497 0.264923 0)
(3.8841 0.259058 0)
(3.88353 0.254459 0)
(3.88095 0.243357 0)
(3.88129 0.236766 0)
(3.87772 0.220206 0)
(3.87753 0.218077 0)
(3.87556 0.213032 0)
(3.87399 0.205994 0)
(3.87182 0.199241 0)
(3.86991 0.191291 0)
(3.86842 0.184328 0)
(3.86691 0.178765 0)
(3.86524 0.169066 0)
(3.86406 0.161781 0)
(3.86194 0.15655 0)
(3.92491 -1.88997 0)
(3.92511 -1.89 0)
(3.92537 -1.88999 0)
(3.92567 -1.88996 0)
(3.92601 -1.88996 0)
(3.92636 -1.89005 0)
(3.92675 -1.89014 0)
(3.92722 -1.89018 0)
(3.92753 -1.89063 0)
(3.92827 -1.89036 0)
(3.92836 -1.89177 0)
(3.92538 -1.87952 0)
(3.91897 -1.85511 0)
(3.90537 -1.80138 0)
(3.88612 -1.73652 0)
(3.86088 -1.62149 0)
(3.83408 -1.51742 0)
(3.80171 -1.34118 0)
(3.77246 -1.21217 0)
(3.72994 -0.974847 0)
(3.70808 -0.842083 0)
(3.6632 -0.612849 0)
(3.63874 -0.459558 0)
(3.60856 -0.28787 0)
(3.59523 -0.162693 0)
(3.55894 0.0217654 0)
(3.56346 0.0876743 0)
(3.53447 0.231575 0)
(3.55058 0.262136 0)
(3.53815 0.354654 0)
(3.5589 0.359502 0)
(3.56229 0.404173 0)
(3.57191 0.419213 0)
(3.60291 0.433858 0)
(3.6213 0.434205 0)
(3.6407 0.429393 0)
(3.6648 0.414096 0)
(3.67923 0.396571 0)
(3.70218 0.386357 0)
(3.7105 0.354058 0)
(3.72284 0.312793 0)
(3.74145 0.303685 0)
(3.75414 0.285947 0)
(3.76508 0.2654 0)
(3.77584 0.259497 0)
(3.78488 0.271585 0)
(3.79483 0.281645 0)
(3.80325 0.280421 0)
(3.81138 0.286571 0)
(3.8203 0.301948 0)
(3.82983 0.310904 0)
(3.83744 0.313485 0)
(3.8426 0.312314 0)
(3.84636 0.3037 0)
(3.84975 0.289141 0)
(3.85479 0.27567 0)
(3.86036 0.264099 0)
(3.86414 0.263831 0)
(3.86702 0.258816 0)
(3.86994 0.267096 0)
(3.87662 0.273243 0)
(3.87949 0.282647 0)
(3.88183 0.288109 0)
(3.88247 0.29374 0)
(3.88428 0.295212 0)
(3.88387 0.303284 0)
(3.88372 0.309701 0)
(3.88381 0.312841 0)
(3.88384 0.315182 0)
(3.88326 0.314959 0)
(3.8813 0.310997 0)
(3.87946 0.303594 0)
(3.8804 0.2976 0)
(3.88199 0.292698 0)
(3.8815 0.289022 0)
(3.88336 0.288055 0)
(3.88492 0.290327 0)
(3.88605 0.29231 0)
(3.88627 0.296072 0)
(3.88482 0.29433 0)
(3.88297 0.288936 0)
(3.88206 0.283053 0)
(3.88167 0.276412 0)
(3.88095 0.269182 0)
(3.88037 0.261151 0)
(3.8795 0.252096 0)
(3.87752 0.24373 0)
(3.87542 0.232655 0)
(3.87242 0.222022 0)
(3.87369 0.214487 0)
(3.87332 0.213558 0)
(3.87262 0.208177 0)
(3.87178 0.202954 0)
(3.86966 0.195635 0)
(3.86795 0.186571 0)
(3.86714 0.1824 0)
(3.86591 0.175979 0)
(3.86483 0.167746 0)
(3.86386 0.161809 0)
(3.86176 0.154404 0)
(3.93006 -1.89144 0)
(3.93024 -1.89219 0)
(3.93092 -1.89204 0)
(3.93122 -1.8927 0)
(3.93193 -1.89262 0)
(3.93225 -1.8934 0)
(3.93311 -1.89314 0)
(3.9333 -1.89431 0)
(3.93433 -1.89371 0)
(3.93449 -1.89487 0)
(3.93548 -1.8943 0)
(3.93573 -1.89575 0)
(3.93637 -1.89534 0)
(3.93674 -1.89549 0)
(3.93725 -1.8953 0)
(3.93751 -1.89571 0)
(3.93807 -1.89545 0)
(3.93838 -1.89577 0)
(3.93899 -1.89543 0)
(3.93914 -1.89618 0)
(3.93995 -1.89542 0)
(3.93999 -1.89653 0)
(3.93667 -1.88543 0)
(3.91846 -1.83591 0)
(3.88011 -1.74044 0)
(3.81775 -1.56098 0)
(3.75254 -1.37001 0)
(3.66774 -1.07492 0)
(3.62019 -0.894981 0)
(3.54093 -0.562834 0)
(3.53622 -0.461584 0)
(3.47298 -0.18808 0)
(3.4771 -0.101611 0)
(3.46379 0.0237524 0)
(3.44484 0.167914 0)
(3.47159 0.174125 0)
(3.46169 0.286293 0)
(3.47216 0.280319 0)
(3.48336 0.304249 0)
(3.4904 0.331937 0)
(3.50655 0.33543 0)
(3.52687 0.34377 0)
(3.55444 0.337152 0)
(3.57638 0.310501 0)
(3.59144 0.284531 0)
(3.60669 0.253068 0)
(3.63375 0.226217 0)
(3.65219 0.201732 0)
(3.66833 0.203485 0)
(3.68687 0.211459 0)
(3.70309 0.22047 0)
(3.71141 0.248049 0)
(3.72082 0.268162 0)
(3.73139 0.286135 0)
(3.74321 0.280024 0)
(3.75683 0.286802 0)
(3.77499 0.28332 0)
(3.79138 0.281428 0)
(3.80488 0.282134 0)
(3.8156 0.287644 0)
(3.82591 0.293351 0)
(3.83351 0.300012 0)
(3.83992 0.301456 0)
(3.84535 0.297875 0)
(3.85209 0.286495 0)
(3.85969 0.279565 0)
(3.86757 0.273364 0)
(3.87407 0.275832 0)
(3.87866 0.280142 0)
(3.88131 0.282215 0)
(3.88127 0.27774 0)
(3.87972 0.27508 0)
(3.87933 0.273681 0)
(3.8806 0.283089 0)
(3.88059 0.289127 0)
(3.88079 0.297327 0)
(3.88201 0.300156 0)
(3.88282 0.304858 0)
(3.88009 0.298582 0)
(3.88081 0.287488 0)
(3.88021 0.278926 0)
(3.87926 0.272297 0)
(3.87845 0.266931 0)
(3.87788 0.261947 0)
(3.87749 0.254641 0)
(3.87578 0.248169 0)
(3.87256 0.237109 0)
(3.87073 0.229742 0)
(3.86899 0.219198 0)
(3.86978 0.2142 0)
(3.87006 0.212525 0)
(3.86869 0.203966 0)
(3.86717 0.196189 0)
(3.86518 0.189222 0)
(3.86526 0.185289 0)
(3.8647 0.180173 0)
(3.86311 0.170564 0)
(3.86216 0.163122 0)
(3.86151 0.158115 0)
(3.86052 0.151652 0)
(3.93505 -1.89599 0)
(3.93549 -1.89606 0)
(3.93578 -1.89655 0)
(3.93646 -1.89615 0)
(3.93674 -1.89666 0)
(3.93735 -1.89638 0)
(3.93775 -1.89661 0)
(3.93828 -1.8965 0)
(3.93869 -1.89665 0)
(3.93925 -1.89644 0)
(3.93971 -1.89651 0)
(3.94024 -1.89644 0)
(3.94067 -1.8966 0)
(3.94119 -1.89645 0)
(3.94156 -1.89654 0)
(3.94184 -1.89669 0)
(3.94206 -1.89693 0)
(3.94248 -1.89662 0)
(3.94263 -1.89681 0)
(3.94281 -1.89697 0)
(3.94308 -1.89693 0)
(3.94355 -1.89671 0)
(3.94345 -1.89716 0)
(3.94352 -1.89742 0)
(3.94368 -1.89727 0)
(3.94384 -1.89721 0)
(3.94407 -1.89709 0)
(3.94387 -1.89757 0)
(3.94411 -1.89773 0)
(3.94415 -1.89811 0)
(3.93513 -1.87781 0)
(3.8924 -1.77713 0)
(3.83242 -1.62096 0)
(3.75029 -1.39303 0)
(3.66087 -1.09875 0)
(3.60697 -0.887271 0)
(3.51332 -0.51888 0)
(3.521 -0.42699 0)
(3.4272 -0.127016 0)
(3.41145 -0.00672679 0)
(3.39291 0.11118 0)
(3.3583 0.249157 0)
(3.36856 0.279314 0)
(3.37253 0.306214 0)
(3.37811 0.362418 0)
(3.40701 0.383738 0)
(3.42857 0.372672 0)
(3.44981 0.359289 0)
(3.48335 0.330637 0)
(3.50703 0.302349 0)
(3.53347 0.270208 0)
(3.54049 0.214594 0)
(3.56314 0.190465 0)
(3.58528 0.198231 0)
(3.59799 0.237627 0)
(3.61365 0.274892 0)
(3.63059 0.314842 0)
(3.6472 0.334763 0)
(3.66024 0.325934 0)
(3.67474 0.310262 0)
(3.68854 0.284213 0)
(3.70997 0.263076 0)
(3.73091 0.263695 0)
(3.7502 0.269733 0)
(3.76884 0.284796 0)
(3.78695 0.299419 0)
(3.80433 0.302863 0)
(3.8201 0.303351 0)
(3.83317 0.305443 0)
(3.84295 0.309887 0)
(3.85078 0.313642 0)
(3.85777 0.318286 0)
(3.86411 0.318657 0)
(3.8679 0.321585 0)
(3.86984 0.319313 0)
(3.86999 0.313 0)
(3.87063 0.302633 0)
(3.87309 0.287791 0)
(3.87674 0.268319 0)
(3.87866 0.2595 0)
(3.87895 0.257365 0)
(3.87772 0.255489 0)
(3.87579 0.253421 0)
(3.87465 0.248748 0)
(3.874 0.241527 0)
(3.8734 0.234799 0)
(3.87165 0.226438 0)
(3.86935 0.218534 0)
(3.86741 0.212247 0)
(3.86727 0.2108 0)
(3.86786 0.207753 0)
(3.86559 0.200327 0)
(3.86365 0.193252 0)
(3.86268 0.186031 0)
(3.86265 0.183832 0)
(3.86177 0.178114 0)
(3.86016 0.169471 0)
(3.85942 0.162322 0)
(3.8591 0.158032 0)
(3.85836 0.14962 0)
(3.94133 -1.89486 0)
(3.94154 -1.89498 0)
(3.9416 -1.89539 0)
(3.94183 -1.89549 0)
(3.94205 -1.89558 0)
(3.94222 -1.89578 0)
(3.94242 -1.89588 0)
(3.94263 -1.89595 0)
(3.94279 -1.89611 0)
(3.94298 -1.89627 0)
(3.9432 -1.89628 0)
(3.94341 -1.89632 0)
(3.94358 -1.89644 0)
(3.94371 -1.89652 0)
(3.94386 -1.8965 0)
(3.94386 -1.89667 0)
(3.94387 -1.89685 0)
(3.944 -1.89682 0)
(3.94406 -1.89689 0)
(3.94394 -1.89726 0)
(3.94408 -1.89734 0)
(3.94438 -1.89736 0)
(3.94436 -1.89765 0)
(3.94422 -1.89803 0)
(3.94426 -1.89816 0)
(3.94438 -1.89813 0)
(3.94448 -1.89821 0)
(3.94422 -1.89843 0)
(3.94404 -1.89868 0)
(3.94402 -1.89898 0)
(3.94414 -1.89901 0)
(3.94423 -1.89885 0)
(3.9443 -1.8987 0)
(3.94437 -1.89859 0)
(3.9444 -1.89852 0)
(3.94406 -1.89922 0)
(3.94167 -1.89299 0)
(3.92311 -1.84821 0)
(3.85372 -1.67376 0)
(3.77382 -1.46544 0)
(3.6651 -1.10236 0)
(3.58715 -0.831978 0)
(3.48808 -0.464113 0)
(3.47886 -0.323457 0)
(3.36312 0.0107832 0)
(3.35364 0.107856 0)
(3.34762 0.174012 0)
(3.34187 0.255984 0)
(3.34249 0.261444 0)
(3.36921 0.254072 0)
(3.40015 0.238909 0)
(3.41226 0.233428 0)
(3.42907 0.227294 0)
(3.43992 0.21925 0)
(3.45634 0.205539 0)
(3.46231 0.205547 0)
(3.46915 0.20896 0)
(3.4736 0.223245 0)
(3.47473 0.251307 0)
(3.48888 0.265075 0)
(3.49823 0.267635 0)
(3.54286 0.275633 0)
(3.57399 0.260758 0)
(3.59704 0.261496 0)
(3.62409 0.26937 0)
(3.64765 0.279931 0)
(3.66842 0.282655 0)
(3.69165 0.284817 0)
(3.71623 0.278524 0)
(3.73995 0.270078 0)
(3.76228 0.267817 0)
(3.78325 0.272914 0)
(3.80202 0.278543 0)
(3.81743 0.277379 0)
(3.83029 0.271524 0)
(3.84065 0.264141 0)
(3.84826 0.263136 0)
(3.8536 0.260356 0)
(3.85974 0.266852 0)
(3.86523 0.272965 0)
(3.86816 0.27705 0)
(3.86797 0.274774 0)
(3.86552 0.268314 0)
(3.86335 0.255444 0)
(3.86382 0.237996 0)
(3.866 0.212293 0)
(3.86751 0.20471 0)
(3.86715 0.20236 0)
(3.8664 0.206101 0)
(3.86564 0.207757 0)
(3.8648 0.200839 0)
(3.86409 0.190344 0)
(3.8608 0.184121 0)
(3.86095 0.180751 0)
(3.86084 0.179199 0)
(3.85915 0.172633 0)
(3.85768 0.164259 0)
(3.85746 0.160922 0)
(3.85718 0.156977 0)
(3.85618 0.147996 0)
(3.94323 -1.89758 0)
(3.94328 -1.89759 0)
(3.94338 -1.89762 0)
(3.9435 -1.89766 0)
(3.94359 -1.89768 0)
(3.94372 -1.89771 0)
(3.94385 -1.89778 0)
(3.94395 -1.89788 0)
(3.94408 -1.89795 0)
(3.94404 -1.89809 0)
(3.94402 -1.89824 0)
(3.94407 -1.8983 0)
(3.94407 -1.89838 0)
(3.94403 -1.89843 0)
(3.94403 -1.8984 0)
(3.94392 -1.89853 0)
(3.94384 -1.89871 0)
(3.94391 -1.89868 0)
(3.94395 -1.89873 0)
(3.94358 -1.89918 0)
(3.94356 -1.89951 0)
(3.94373 -1.89956 0)
(3.94384 -1.89963 0)
(3.94356 -1.89973 0)
(3.9434 -1.89984 0)
(3.94325 -1.90008 0)
(3.94315 -1.89997 0)
(3.94312 -1.89976 0)
(3.9429 -1.89978 0)
(3.94261 -1.89997 0)
(3.9425 -1.89999 0)
(3.94242 -1.89963 0)
(3.94259 -1.89915 0)
(3.94299 -1.89885 0)
(3.94294 -1.89928 0)
(3.94306 -1.89894 0)
(3.94307 -1.89863 0)
(3.94294 -1.8983 0)
(3.94301 -1.89742 0)
(3.94312 -1.89744 0)
(3.94367 -1.8964 0)
(3.94369 -1.89678 0)
(3.93487 -1.87246 0)
(3.89282 -1.76788 0)
(3.76979 -1.44368 0)
(3.65825 -1.08607 0)
(3.5428 -0.692271 0)
(3.4315 -0.307775 0)
(3.43116 -0.147814 0)
(3.30633 0.190113 0)
(3.30651 0.222534 0)
(3.29562 0.282698 0)
(3.3041 0.33794 0)
(3.31067 0.335973 0)
(3.32988 0.30902 0)
(3.34024 0.262223 0)
(3.35167 0.231241 0)
(3.36061 0.202939 0)
(3.37063 0.199914 0)
(3.38103 0.21281 0)
(3.38663 0.248313 0)
(3.3968 0.291928 0)
(3.42363 0.315835 0)
(3.43755 0.305818 0)
(3.45402 0.285508 0)
(3.47367 0.256856 0)
(3.49507 0.252189 0)
(3.52163 0.270757 0)
(3.5479 0.285803 0)
(3.57693 0.298204 0)
(3.60786 0.291409 0)
(3.63866 0.284561 0)
(3.66775 0.281796 0)
(3.69404 0.289454 0)
(3.7206 0.29108 0)
(3.74666 0.290274 0)
(3.76993 0.285857 0)
(3.78788 0.285245 0)
(3.80211 0.279912 0)
(3.81405 0.26656 0)
(3.82492 0.247472 0)
(3.83503 0.227701 0)
(3.84363 0.212143 0)
(3.84819 0.205793 0)
(3.84938 0.205954 0)
(3.85125 0.203488 0)
(3.85392 0.213085 0)
(3.85642 0.220722 0)
(3.85699 0.221615 0)
(3.85491 0.21161 0)
(3.85453 0.187002 0)
(3.8578 0.171562 0)
(3.85764 0.178355 0)
(3.8579 0.179671 0)
(3.85525 0.173889 0)
(3.85381 0.160808 0)
(3.85526 0.157172 0)
(3.85556 0.161003 0)
(3.85475 0.156991 0)
(3.85362 0.144828 0)
(3.94428 -1.89869 0)
(3.94442 -1.89874 0)
(3.94449 -1.89875 0)
(3.94456 -1.89879 0)
(3.94462 -1.8989 0)
(3.94472 -1.89892 0)
(3.94477 -1.89898 0)
(3.9448 -1.89916 0)
(3.94488 -1.89914 0)
(3.945 -1.89897 0)
(3.94501 -1.89891 0)
(3.94487 -1.89908 0)
(3.94477 -1.89893 0)
(3.9448 -1.89855 0)
(3.94468 -1.89848 0)
(3.94441 -1.8987 0)
(3.94434 -1.89865 0)
(3.94432 -1.8986 0)
(3.94418 -1.89871 0)
(3.94373 -1.89913 0)
(3.94361 -1.89959 0)
(3.94362 -1.89959 0)
(3.94357 -1.89914 0)
(3.94368 -1.89883 0)
(3.94353 -1.89895 0)
(3.94344 -1.8992 0)
(3.94333 -1.89862 0)
(3.94326 -1.89804 0)
(3.94309 -1.89769 0)
(3.94281 -1.89769 0)
(3.94279 -1.89784 0)
(3.94293 -1.89749 0)
(3.94326 -1.89693 0)
(3.94366 -1.8966 0)
(3.94362 -1.89696 0)
(3.94343 -1.89759 0)
(3.94338 -1.89693 0)
(3.94321 -1.89615 0)
(3.94316 -1.89605 0)
(3.94341 -1.89602 0)
(3.94372 -1.89586 0)
(3.94416 -1.89526 0)
(3.94439 -1.89488 0)
(3.94356 -1.89549 0)
(3.94299 -1.89647 0)
(3.94312 -1.89693 0)
(3.94303 -1.89754 0)
(3.90866 -1.80936 0)
(3.82275 -1.57656 0)
(3.6605 -1.05114 0)
(3.61638 -0.812558 0)
(3.44872 -0.312209 0)
(3.40391 -0.08381 0)
(3.36796 0.104534 0)
(3.35913 0.151161 0)
(3.34819 0.187436 0)
(3.349 0.199943 0)
(3.35244 0.200201 0)
(3.35609 0.20796 0)
(3.35399 0.209591 0)
(3.34983 0.235993 0)
(3.34689 0.244042 0)
(3.34481 0.258918 0)
(3.33877 0.294054 0)
(3.34131 0.280506 0)
(3.35721 0.258757 0)
(3.37105 0.230173 0)
(3.40542 0.221513 0)
(3.41501 0.235483 0)
(3.42774 0.260292 0)
(3.4469 0.275767 0)
(3.47219 0.274251 0)
(3.49921 0.25756 0)
(3.53048 0.243106 0)
(3.55871 0.253767 0)
(3.58846 0.266226 0)
(3.6196 0.272769 0)
(3.64999 0.258568 0)
(3.67695 0.250003 0)
(3.70118 0.241464 0)
(3.72439 0.23312 0)
(3.74728 0.225273 0)
(3.76815 0.231098 0)
(3.78506 0.233067 0)
(3.79733 0.237672 0)
(3.80684 0.238958 0)
(3.81456 0.22772 0)
(3.82209 0.199838 0)
(3.83061 0.18516 0)
(3.83629 0.167817 0)
(3.83928 0.16625 0)
(3.84078 0.187095 0)
(3.84394 0.191437 0)
(3.84361 0.179808 0)
(3.84575 0.144744 0)
(3.84715 0.15197 0)
(3.84851 0.164785 0)
(3.84781 0.165118 0)
(3.84724 0.157874 0)
(3.84917 0.146728 0)
(3.94486 -1.89922 0)
(3.94491 -1.89916 0)
(3.94484 -1.8993 0)
(3.94486 -1.89924 0)
(3.94489 -1.89914 0)
(3.94485 -1.89916 0)
(3.9448 -1.89913 0)
(3.94478 -1.89901 0)
(3.9447 -1.89894 0)
(3.94447 -1.89916 0)
(3.94435 -1.89913 0)
(3.9444 -1.89871 0)
(3.94429 -1.89863 0)
(3.94408 -1.89871 0)
(3.94398 -1.89851 0)
(3.94382 -1.89847 0)
(3.94365 -1.89853 0)
(3.9436 -1.89831 0)
(3.94363 -1.89798 0)
(3.94346 -1.89798 0)
(3.94315 -1.89826 0)
(3.943 -1.89836 0)
(3.94297 -1.89801 0)
(3.94298 -1.8977 0)
(3.94276 -1.89789 0)
(3.94266 -1.89788 0)
(3.94267 -1.89751 0)
(3.94258 -1.89739 0)
(3.94236 -1.89734 0)
(3.94226 -1.897 0)
(3.94238 -1.89709 0)
(3.94245 -1.8974 0)
(3.94262 -1.89757 0)
(3.94281 -1.89778 0)
(3.94276 -1.89829 0)
(3.94267 -1.89868 0)
(3.94256 -1.8982 0)
(3.9425 -1.89728 0)
(3.94283 -1.89678 0)
(3.94322 -1.89639 0)
(3.94362 -1.89608 0)
(3.94411 -1.89554 0)
(3.94401 -1.89535 0)
(3.94331 -1.89575 0)
(3.94332 -1.89618 0)
(3.94335 -1.8969 0)
(3.94324 -1.89745 0)
(3.94324 -1.89753 0)
(3.94322 -1.89742 0)
(3.94319 -1.898 0)
(3.94323 -1.89889 0)
(3.89947 -1.79364 0)
(3.78932 -1.44532 0)
(3.67916 -1.00054 0)
(3.50713 -0.386896 0)
(3.54318 -0.219685 0)
(3.39684 0.115703 0)
(3.36117 0.24883 0)
(3.341 0.288638 0)
(3.34273 0.310896 0)
(3.33411 0.292243 0)
(3.32815 0.269983 0)
(3.34069 0.236434 0)
(3.3302 0.248473 0)
(3.31778 0.252176 0)
(3.32565 0.267565 0)
(3.33263 0.269345 0)
(3.33934 0.270618 0)
(3.35772 0.249085 0)
(3.35997 0.240291 0)
(3.36262 0.239205 0)
(3.36725 0.251024 0)
(3.37653 0.260766 0)
(3.40024 0.258763 0)
(3.4193 0.23039 0)
(3.44102 0.224518 0)
(3.46203 0.231446 0)
(3.48606 0.239258 0)
(3.51304 0.226052 0)
(3.54102 0.222543 0)
(3.56944 0.229015 0)
(3.59936 0.231045 0)
(3.62852 0.220613 0)
(3.6552 0.214349 0)
(3.68114 0.202294 0)
(3.70677 0.186076 0)
(3.72915 0.185138 0)
(3.74735 0.183021 0)
(3.76332 0.187773 0)
(3.77889 0.197268 0)
(3.79193 0.21564 0)
(3.79885 0.197238 0)
(3.8058 0.177297 0)
(3.81531 0.138714 0)
(3.82004 0.158283 0)
(3.82489 0.162011 0)
(3.82841 0.152941 0)
(3.83354 0.133283 0)
(3.837 0.129411 0)
(3.83877 0.140486 0)
(3.94481 -1.8987 0)
(3.94484 -1.89851 0)
(3.94477 -1.89859 0)
(3.94478 -1.89852 0)
(3.94481 -1.89837 0)
(3.9448 -1.8983 0)
(3.94483 -1.89802 0)
(3.94478 -1.89788 0)
(3.94462 -1.89786 0)
(3.94454 -1.8976 0)
(3.9443 -1.89771 0)
(3.94413 -1.89789 0)
(3.94423 -1.89741 0)
(3.94416 -1.89726 0)
(3.94385 -1.89757 0)
(3.94378 -1.89739 0)
(3.94375 -1.89722 0)
(3.94358 -1.89738 0)
(3.94354 -1.89728 0)
(3.94359 -1.897 0)
(3.9434 -1.89711 0)
(3.94328 -1.89713 0)
(3.94325 -1.89687 0)
(3.94322 -1.89664 0)
(3.94298 -1.89675 0)
(3.9427 -1.89702 0)
(3.94263 -1.89694 0)
(3.94263 -1.89681 0)
(3.94251 -1.89682 0)
(3.9423 -1.89713 0)
(3.94229 -1.89724 0)
(3.94239 -1.89735 0)
(3.94266 -1.89755 0)
(3.94276 -1.89771 0)
(3.94276 -1.89809 0)
(3.94277 -1.898 0)
(3.94262 -1.89781 0)
(3.94258 -1.89748 0)
(3.94298 -1.89681 0)
(3.94331 -1.89639 0)
(3.94369 -1.89616 0)
(3.94415 -1.89554 0)
(3.94408 -1.89505 0)
(3.94342 -1.89557 0)
(3.94339 -1.89607 0)
(3.94344 -1.89675 0)
(3.94336 -1.89729 0)
(3.94338 -1.89738 0)
(3.94345 -1.89729 0)
(3.94344 -1.89779 0)
(3.94381 -1.89864 0)
(3.94372 -1.90055 0)
(3.94316 -1.90433 0)
(3.94274 -1.90777 0)
(3.92976 -1.86939 0)
(3.87691 -1.6486 0)
(3.73014 -1.13073 0)
(3.62461 -0.649427 0)
(3.63329 -0.411863 0)
(3.47316 0.0264692 0)
(3.46651 0.058565 0)
(3.39766 0.168271 0)
(3.3896 0.192658 0)
(3.37923 0.210789 0)
(3.36555 0.231215 0)
(3.33636 0.255461 0)
(3.32585 0.275324 0)
(3.3231 0.275322 0)
(3.33113 0.262396 0)
(3.33835 0.243551 0)
(3.34347 0.227783 0)
(3.34481 0.23033 0)
(3.34408 0.240619 0)
(3.34509 0.251451 0)
(3.35467 0.254961 0)
(3.36111 0.236223 0)
(3.36949 0.222134 0)
(3.3769 0.222926 0)
(3.387 0.227591 0)
(3.40481 0.212142 0)
(3.42757 0.198131 0)
(3.45121 0.195877 0)
(3.47487 0.194113 0)
(3.50126 0.181591 0)
(3.5269 0.192497 0)
(3.55674 0.20505 0)
(3.58783 0.205767 0)
(3.61603 0.207644 0)
(3.64122 0.189322 0)
(3.66621 0.170673 0)
(3.69305 0.157861 0)
(3.71389 0.164676 0)
(3.73088 0.148523 0)
(3.74727 0.169108 0)
(3.7596 0.172007 0)
(3.7707 0.159728 0)
(3.78176 0.142296 0)
(3.79312 0.148948 0)
(3.80126 0.154491 0)
(3.80963 0.136345 0)
(3.9445 -1.89754 0)
(3.94454 -1.89739 0)
(3.94462 -1.8973 0)
(3.94468 -1.89724 0)
(3.94474 -1.89704 0)
(3.94475 -1.89696 0)
(3.94473 -1.89693 0)
(3.94479 -1.89666 0)
(3.94468 -1.89661 0)
(3.94438 -1.89686 0)
(3.94428 -1.89688 0)
(3.94406 -1.89723 0)
(3.94396 -1.89734 0)
(3.94399 -1.89692 0)
(3.94387 -1.89683 0)
(3.94381 -1.89681 0)
(3.94392 -1.89654 0)
(3.94392 -1.89651 0)
(3.94382 -1.89686 0)
(3.94387 -1.89678 0)
(3.94394 -1.89645 0)
(3.94404 -1.89627 0)
(3.94401 -1.89621 0)
(3.94388 -1.89611 0)
(3.94343 -1.89627 0)
(3.94296 -1.89657 0)
(3.94292 -1.89655 0)
(3.943 -1.89649 0)
(3.94289 -1.89675 0)
(3.9425 -1.89739 0)
(3.94241 -1.89752 0)
(3.94234 -1.89769 0)
(3.94244 -1.89838 0)
(3.94253 -1.89881 0)
(3.94262 -1.89882 0)
(3.94259 -1.89879 0)
(3.94233 -1.89874 0)
(3.94253 -1.89832 0)
(3.94307 -1.89774 0)
(3.94333 -1.89738 0)
(3.94353 -1.89725 0)
(3.94362 -1.89701 0)
(3.94382 -1.89587 0)
(3.94337 -1.89612 0)
(3.94338 -1.89638 0)
(3.94357 -1.89665 0)
(3.94385 -1.89717 0)
(3.94437 -1.89732 0)
(3.94489 -1.89718 0)
(3.94505 -1.89649 0)
(3.94481 -1.898 0)
(3.94434 -1.90223 0)
(3.94292 -1.90568 0)
(3.94288 -1.90608 0)
(3.94326 -1.90734 0)
(3.94262 -1.90582 0)
(3.94206 -1.90769 0)
(3.94155 -1.90753 0)
(3.91245 -1.77315 0)
(3.76201 -1.21775 0)
(3.71454 -0.821157 0)
(3.55545 -0.243217 0)
(3.48718 0.0398564 0)
(3.47711 0.146793 0)
(3.40181 0.295841 0)
(3.36849 0.320392 0)
(3.35136 0.286017 0)
(3.3541 0.281621 0)
(3.3461 0.263816 0)
(3.34981 0.237105 0)
(3.35813 0.231403 0)
(3.35935 0.233304 0)
(3.35605 0.23321 0)
(3.34889 0.231826 0)
(3.34478 0.230177 0)
(3.34515 0.21968 0)
(3.34543 0.205065 0)
(3.34661 0.197138 0)
(3.34435 0.202528 0)
(3.34609 0.210803 0)
(3.35513 0.208858 0)
(3.36464 0.196751 0)
(3.37362 0.195082 0)
(3.38788 0.191022 0)
(3.40614 0.171263 0)
(3.42557 0.17296 0)
(3.44723 0.17543 0)
(3.47361 0.161392 0)
(3.49542 0.176596 0)
(3.52281 0.18074 0)
(3.55273 0.177798 0)
(3.58049 0.168294 0)
(3.60662 0.182517 0)
(3.62868 0.151443 0)
(3.65259 0.139216 0)
(3.67433 0.137648 0)
(3.69363 0.145841 0)
(3.7118 0.141964 0)
(3.72705 0.129953 0)
(3.74948 0.129283 0)
(3.9439 -1.89767 0)
(3.94409 -1.89748 0)
(3.94424 -1.89742 0)
(3.94428 -1.89726 0)
(3.9443 -1.89709 0)
(3.94438 -1.8969 0)
(3.94443 -1.89682 0)
(3.94444 -1.89674 0)
(3.94457 -1.89638 0)
(3.94436 -1.89654 0)
(3.94383 -1.89743 0)
(3.94375 -1.89761 0)
(3.9437 -1.89757 0)
(3.94362 -1.89754 0)
(3.94366 -1.89708 0)
(3.94386 -1.89663 0)
(3.94407 -1.89648 0)
(3.94424 -1.8965 0)
(3.94424 -1.89674 0)
(3.94419 -1.89685 0)
(3.94463 -1.89655 0)
(3.94504 -1.89596 0)
(3.94514 -1.89569 0)
(3.94506 -1.89541 0)
(3.94407 -1.89586 0)
(3.94354 -1.89632 0)
(3.94349 -1.89647 0)
(3.94357 -1.89656 0)
(3.9432 -1.89708 0)
(3.94302 -1.89733 0)
(3.94292 -1.89729 0)
(3.9429 -1.8976 0)
(3.94291 -1.89831 0)
(3.94294 -1.89879 0)
(3.94304 -1.89892 0)
(3.94305 -1.89887 0)
(3.94282 -1.89868 0)
(3.94286 -1.89844 0)
(3.9433 -1.89868 0)
(3.94335 -1.89868 0)
(3.94346 -1.89829 0)
(3.94297 -1.89841 0)
(3.94265 -1.89836 0)
(3.94289 -1.89808 0)
(3.94321 -1.89758 0)
(3.94379 -1.89724 0)
(3.94448 -1.89774 0)
(3.9452 -1.89805 0)
(3.94589 -1.89722 0)
(3.94585 -1.89666 0)
(3.94519 -1.89655 0)
(3.94399 -1.89982 0)
(3.94262 -1.905 0)
(3.94244 -1.90742 0)
(3.94241 -1.90691 0)
(3.94199 -1.90582 0)
(3.94123 -1.90488 0)
(3.94084 -1.9027 0)
(3.93981 -1.90271 0)
(3.93895 -1.90358 0)
(3.93805 -1.90495 0)
(3.89132 -1.75294 0)
(3.78919 -1.29268 0)
(3.7096 -0.799697 0)
(3.578 -0.26186 0)
(3.55529 -0.0529135 0)
(3.50802 0.0928028 0)
(3.42897 0.205662 0)
(3.40378 0.231876 0)
(3.39231 0.231072 0)
(3.392 0.239077 0)
(3.3842 0.240454 0)
(3.37095 0.230734 0)
(3.36038 0.216805 0)
(3.35368 0.205292 0)
(3.35292 0.202102 0)
(3.35152 0.195213 0)
(3.3499 0.190587 0)
(3.3482 0.191206 0)
(3.34407 0.192371 0)
(3.34165 0.191814 0)
(3.34204 0.185378 0)
(3.34499 0.174592 0)
(3.34764 0.175901 0)
(3.35501 0.181872 0)
(3.36169 0.173248 0)
(3.3675 0.174486 0)
(3.3778 0.172138 0)
(3.39364 0.145981 0)
(3.41036 0.148817 0)
(3.42851 0.154839 0)
(3.44813 0.152344 0)
(3.47369 0.136247 0)
(3.49263 0.155734 0)
(3.51857 0.164958 0)
(3.54421 0.157619 0)
(3.56842 0.14446 0)
(3.59281 0.135945 0)
(3.61396 0.137125 0)
(3.64927 0.133167 0)
(3.94389 -1.897 0)
(3.94401 -1.89677 0)
(3.94409 -1.89672 0)
(3.94416 -1.89682 0)
(3.94431 -1.89659 0)
(3.94435 -1.8965 0)
(3.94426 -1.89648 0)
(3.94404 -1.89656 0)
(3.94384 -1.89672 0)
(3.94379 -1.89681 0)
(3.94362 -1.89723 0)
(3.94359 -1.89739 0)
(3.94362 -1.89726 0)
(3.94358 -1.89737 0)
(3.94365 -1.89732 0)
(3.94385 -1.8969 0)
(3.94422 -1.89669 0)
(3.94435 -1.897 0)
(3.94427 -1.8973 0)
(3.94409 -1.89747 0)
(3.94496 -1.89669 0)
(3.94569 -1.89567 0)
(3.94606 -1.89524 0)
(3.94561 -1.89545 0)
(3.94432 -1.89602 0)
(3.94414 -1.89624 0)
(3.94421 -1.89623 0)
(3.94411 -1.89651 0)
(3.94356 -1.89708 0)
(3.94336 -1.89724 0)
(3.94316 -1.89713 0)
(3.94314 -1.89751 0)
(3.94331 -1.89843 0)
(3.9433 -1.89894 0)
(3.94344 -1.89904 0)
(3.94348 -1.89877 0)
(3.94317 -1.8985 0)
(3.94286 -1.89876 0)
(3.94412 -1.90093 0)
(3.94417 -1.90228 0)
(3.94302 -1.90348 0)
(3.94168 -1.90362 0)
(3.94118 -1.90301 0)
(3.94174 -1.90242 0)
(3.94211 -1.90179 0)
(3.94283 -1.90137 0)
(3.94414 -1.90072 0)
(3.94455 -1.90035 0)
(3.94376 -1.9001 0)
(3.94305 -1.89901 0)
(3.94253 -1.8983 0)
(3.94215 -1.90102 0)
(3.94158 -1.9058 0)
(3.9411 -1.90854 0)
(3.94084 -1.90706 0)
(3.94074 -1.90619 0)
(3.94006 -1.90534 0)
(3.93921 -1.90426 0)
(3.93837 -1.90369 0)
(3.9383 -1.90353 0)
(3.93692 -1.90449 0)
(3.93598 -1.90443 0)
(3.93522 -1.90157 0)
(3.93223 -1.90721 0)
(3.88375 -1.71118 0)
(3.79679 -1.20233 0)
(3.73811 -0.695586 0)
(3.53715 -0.0802933 0)
(3.50807 0.0891605 0)
(3.46152 0.193419 0)
(3.41409 0.252518 0)
(3.39873 0.254692 0)
(3.39619 0.231552 0)
(3.39715 0.211328 0)
(3.39368 0.19574 0)
(3.38796 0.20178 0)
(3.37947 0.199162 0)
(3.37176 0.192665 0)
(3.36451 0.183657 0)
(3.35754 0.176563 0)
(3.35089 0.174126 0)
(3.34822 0.172283 0)
(3.34826 0.168242 0)
(3.3489 0.16622 0)
(3.34885 0.168465 0)
(3.34835 0.164562 0)
(3.34932 0.155868 0)
(3.34669 0.16201 0)
(3.35791 0.169056 0)
(3.36131 0.151266 0)
(3.36725 0.140615 0)
(3.37312 0.145066 0)
(3.38449 0.148132 0)
(3.39884 0.126129 0)
(3.41524 0.130606 0)
(3.43243 0.130899 0)
(3.45162 0.124729 0)
(3.47231 0.124869 0)
(3.4915 0.124128 0)
(3.52823 0.120309 0)
(3.94341 -1.89713 0)
(3.94349 -1.89696 0)
(3.94354 -1.89687 0)
(3.9435 -1.89693 0)
(3.94348 -1.89684 0)
(3.94347 -1.89655 0)
(3.94303 -1.89661 0)
(3.9424 -1.89708 0)
(3.94232 -1.89741 0)
(3.94244 -1.89779 0)
(3.94266 -1.89793 0)
(3.94295 -1.89793 0)
(3.94301 -1.89813 0)
(3.94307 -1.89857 0)
(3.94325 -1.89848 0)
(3.94359 -1.89793 0)
(3.94407 -1.89749 0)
(3.94419 -1.8975 0)
(3.94409 -1.8977 0)
(3.94415 -1.89785 0)
(3.94576 -1.89643 0)
(3.94627 -1.89564 0)
(3.94653 -1.8951 0)
(3.94562 -1.89547 0)
(3.9448 -1.89588 0)
(3.94473 -1.896 0)
(3.94478 -1.89599 0)
(3.94442 -1.89637 0)
(3.94391 -1.89683 0)
(3.94374 -1.89687 0)
(3.94342 -1.89689 0)
(3.94368 -1.89756 0)
(3.94374 -1.89854 0)
(3.94353 -1.89909 0)
(3.94372 -1.89905 0)
(3.94414 -1.89915 0)
(3.9448 -1.90051 0)
(3.94506 -1.90225 0)
(3.94454 -1.90254 0)
(3.9431 -1.90196 0)
(3.94142 -1.90305 0)
(3.94113 -1.90454 0)
(3.9413 -1.90515 0)
(3.94121 -1.90639 0)
(3.94156 -1.90712 0)
(3.9423 -1.90754 0)
(3.94338 -1.90583 0)
(3.94301 -1.90328 0)
(3.94165 -1.90158 0)
(3.94049 -1.90103 0)
(3.94002 -1.90198 0)
(3.94007 -1.90437 0)
(3.93966 -1.90748 0)
(3.93991 -1.90775 0)
(3.93982 -1.90658 0)
(3.93971 -1.9061 0)
(3.93871 -1.9057 0)
(3.9385 -1.90441 0)
(3.93753 -1.9037 0)
(3.93524 -1.90149 0)
(3.93144 -1.90049 0)
(3.93082 -1.89545 0)
(3.93165 -1.89509 0)
(3.93624 -1.89114 0)
(3.94118 -1.88221 0)
(3.94169 -1.88587 0)
(3.94338 -1.88163 0)
(3.86615 -1.55962 0)
(3.77208 -1.00516 0)
(3.65441 -0.45112 0)
(3.56767 -0.110666 0)
(3.47857 0.105189 0)
(3.46383 0.166218 0)
(3.44897 0.215598 0)
(3.43798 0.213763 0)
(3.43882 0.214812 0)
(3.42076 0.190431 0)
(3.4173 0.184641 0)
(3.40653 0.175238 0)
(3.39743 0.173115 0)
(3.38553 0.176805 0)
(3.37613 0.184581 0)
(3.37008 0.181366 0)
(3.3632 0.170376 0)
(3.35888 0.158248 0)
(3.35601 0.148951 0)
(3.35626 0.141444 0)
(3.35413 0.148316 0)
(3.35479 0.154765 0)
(3.35307 0.147901 0)
(3.35288 0.135401 0)
(3.3569 0.130133 0)
(3.35612 0.140932 0)
(3.3668 0.147352 0)
(3.37116 0.133234 0)
(3.37659 0.129787 0)
(3.38474 0.131139 0)
(3.39612 0.127833 0)
(3.40702 0.120061 0)
(3.43173 0.116007 0)
(3.94185 -1.89802 0)
(3.94179 -1.89797 0)
(3.94175 -1.89795 0)
(3.94169 -1.89782 0)
(3.94175 -1.8975 0)
(3.94198 -1.89694 0)
(3.94138 -1.89749 0)
(3.94091 -1.89855 0)
(3.94092 -1.89865 0)
(3.94112 -1.89893 0)
(3.94143 -1.89918 0)
(3.94151 -1.89953 0)
(3.94136 -1.89994 0)
(3.94152 -1.90107 0)
(3.94179 -1.90159 0)
(3.94234 -1.90162 0)
(3.9425 -1.90152 0)
(3.94241 -1.90166 0)
(3.94184 -1.90224 0)
(3.94368 -1.90035 0)
(3.94537 -1.89803 0)
(3.9455 -1.89762 0)
(3.94528 -1.89736 0)
(3.94517 -1.89707 0)
(3.94525 -1.89697 0)
(3.94568 -1.89673 0)
(3.94583 -1.89674 0)
(3.94538 -1.89697 0)
(3.94498 -1.89682 0)
(3.94467 -1.89669 0)
(3.94446 -1.89794 0)
(3.94489 -1.89918 0)
(3.94545 -1.90035 0)
(3.94469 -1.90289 0)
(3.94454 -1.90371 0)
(3.94498 -1.90338 0)
(3.94503 -1.90246 0)
(3.94406 -1.90261 0)
(3.94269 -1.90289 0)
(3.94107 -1.90233 0)
(3.93988 -1.90416 0)
(3.94045 -1.90848 0)
(3.9411 -1.91041 0)
(3.94183 -1.91131 0)
(3.94206 -1.91194 0)
(3.94191 -1.91158 0)
(3.94207 -1.90825 0)
(3.94128 -1.90414 0)
(3.93981 -1.90268 0)
(3.93887 -1.90269 0)
(3.93911 -1.90392 0)
(3.93928 -1.90554 0)
(3.93881 -1.90657 0)
(3.93919 -1.90627 0)
(3.93932 -1.90622 0)
(3.93928 -1.90559 0)
(3.93792 -1.9053 0)
(3.93531 -1.90167 0)
(3.93119 -1.89785 0)
(3.92854 -1.8956 0)
(3.93265 -1.88368 0)
(3.93714 -1.88261 0)
(3.94391 -1.87847 0)
(3.94991 -1.86678 0)
(3.95574 -1.85456 0)
(3.95892 -1.84798 0)
(3.95895 -1.84341 0)
(3.95928 -1.83285 0)
(3.9605 -1.82955 0)
(3.94367 -1.73965 0)
(3.84322 -1.3046 0)
(3.68857 -0.613981 0)
(3.65979 -0.286493 0)
(3.54701 0.0274442 0)
(3.50869 0.139744 0)
(3.48119 0.228042 0)
(3.46079 0.204228 0)
(3.4731 0.210803 0)
(3.46304 0.19609 0)
(3.45078 0.168097 0)
(3.4429 0.166712 0)
(3.42967 0.168363 0)
(3.41741 0.160375 0)
(3.40638 0.155084 0)
(3.39985 0.154 0)
(3.39286 0.157754 0)
(3.38171 0.163061 0)
(3.37537 0.156636 0)
(3.3678 0.1476 0)
(3.36357 0.132079 0)
(3.36233 0.115007 0)
(3.36425 0.114984 0)
(3.36307 0.127571 0)
(3.36544 0.134843 0)
(3.36378 0.129507 0)
(3.36509 0.122955 0)
(3.36798 0.12292 0)
(3.37276 0.120804 0)
(3.37728 0.122627 0)
(3.38819 0.119897 0)
(3.94118 -1.89863 0)
(3.94102 -1.89858 0)
(3.94085 -1.89839 0)
(3.94109 -1.8979 0)
(3.94133 -1.8976 0)
(3.94164 -1.89756 0)
(3.9411 -1.89866 0)