/*--------------------------------*- C++ -*----------------------------------*\
  =========                 |
  \\      /  F ield         | OpenFOAM: The Open Source CFD Toolbox
   \\    /   O peration     | Website:  https://openfoam.org
    \\  /    A nd           | Version:  7
     \\/     M anipulation  |
\*---------------------------------------------------------------------------*/
FoamFile
{
    version     2.0;
    format      ascii;
    class       volVectorField;
    location    "6.5";
    object      U;
}
// * * * * * * * * * * * * * * * * * * * * * * * * * * * * * * * * * * * * * //

dimensions      [0 1 -1 0 0 0 0];

internalField   nonuniform List<vector> 
1750
(
(2.55678 -0.425599 0)
(2.56134 -0.267942 0)
(2.57203 -0.0641874 0)
(2.58316 -0.0996599 0)
(2.59885 -0.096816 0)
(2.63079 0.0299468 0)
(2.62953 0.0870243 0)
(2.6368 0.0967374 0)
(2.62444 0.0647885 0)
(2.6515 0.0353191 0)
(2.73645 -1.04509 0)
(2.75897 -0.985439 0)
(2.68969 -0.564981 0)
(2.75602 -0.504541 0)
(2.70099 -0.242318 0)
(2.70866 -0.0801896 0)
(2.65117 0.112351 0)
(2.62484 0.0907715 0)
(2.61581 0.0483249 0)
(2.68435 0.0227596 0)
(3.01091 -1.35263 0)
(3.04753 -1.34923 0)
(3.07366 -1.34596 0)
(3.07965 -1.28884 0)
(3.07454 -1.10425 0)
(3.00841 -0.874684 0)
(2.94548 -0.518461 0)
(2.89342 -0.249433 0)
(2.8282 -0.0656453 0)
(2.76792 0.022718 0)
(3.15567 -1.42553 0)
(3.10555 -1.33213 0)
(3.10661 -1.30954 0)
(3.17767 -1.20632 0)
(3.18887 -1.16857 0)
(3.15552 -1.18224 0)
(3.12785 -1.16698 0)
(3.08212 -0.863179 0)
(3.05323 -0.648594 0)
(2.93882 -0.252013 0)
(3.20738 -1.03703 0)
(3.17052 -1.00683 0)
(3.15196 -0.970935 0)
(3.15479 -0.963998 0)
(3.16959 -0.937879 0)
(3.14589 -0.954177 0)
(3.13191 -0.959214 0)
(3.12968 -0.99483 0)
(3.14544 -0.978794 0)
(3.10494 -0.75278 0)
(3.18739 -0.760586 0)
(3.17013 -0.792836 0)
(3.13987 -0.828465 0)
(3.13728 -0.842004 0)
(3.1472 -0.84433 0)
(3.15258 -0.843781 0)
(3.14086 -0.849742 0)
(3.13872 -0.837467 0)
(3.14991 -0.80782 0)
(3.14489 -0.808735 0)
(3.13774 -0.4383 0)
(3.15356 -0.495508 0)
(3.13024 -0.572195 0)
(3.12329 -0.586109 0)
(3.12813 -0.574925 0)
(3.13893 -0.555244 0)
(3.12973 -0.594711 0)
(3.10874 -0.614533 0)
(3.11031 -0.633369 0)
(3.10973 -0.667198 0)
(3.0432 -0.271366 0)
(3.06186 -0.261306 0)
(3.07248 -0.270719 0)
(3.07746 -0.358616 0)
(3.06679 -0.405861 0)
(3.06657 -0.404979 0)
(3.08356 -0.44608 0)
(3.08359 -0.486928 0)
(3.07785 -0.529575 0)
(3.07813 -0.557932 0)
(2.90667 0.0661516 0)
(2.94787 -0.0717923 0)
(2.96854 -0.0905043 0)
(2.9881 -0.10264 0)
(2.99944 -0.172883 0)
(3.00295 -0.231398 0)
(3.01506 -0.258167 0)
(3.02741 -0.277501 0)
(3.03222 -0.313982 0)
(3.03549 -0.35824 0)
(2.7793 0.327346 0)
(2.82004 0.241621 0)
(2.84867 0.168299 0)
(2.87751 0.115109 0)
(2.90552 0.0437232 0)
(2.91777 0.00327464 0)
(2.94326 -0.0606459 0)
(2.9655 -0.111197 0)
(2.97894 -0.146078 0)
(2.99648 -0.214416 0)
(2.68997 0.514488 0)
(2.71431 0.469939 0)
(2.73603 0.428948 0)
(2.75951 0.390946 0)
(2.80445 0.305892 0)
(2.83168 0.24584 0)
(2.86545 0.172521 0)
(2.89334 0.105566 0)
(2.91734 0.039369 0)
(2.94708 -0.0438425 0)
(2.70273 0.495635 0)
(2.70877 0.493711 0)
(2.70948 0.498788 0)
(2.70999 0.503658 0)
(2.72459 0.481375 0)
(2.74015 0.454876 0)
(2.76899 0.410748 0)
(2.80161 0.35506 0)
(2.83549 0.282049 0)
(2.88086 0.173994 0)
(2.82472 0.328888 0)
(2.79194 0.369867 0)
(2.7521 0.451838 0)
(2.74661 0.455053 0)
(2.74611 0.458437 0)
(2.74309 0.465814 0)
(2.74532 0.465979 0)
(2.7534 0.457545 0)
(2.76422 0.44137 0)
(2.80362 0.386943 0)
(2.96841 0.0631161 0)
(2.94627 0.0954744 0)
(2.90806 0.164279 0)
(2.88529 0.211936 0)
(2.84243 0.295763 0)
(2.82841 0.326651 0)
(2.80057 0.396761 0)
(2.78591 0.41084 0)
(2.80071 0.429004 0)
(2.79353 0.414499 0)
(2.999 0.00148981 0)
(2.99756 0.00309552 0)
(2.99337 0.00868502 0)
(2.98666 0.0170371 0)
(2.97077 0.0374014 0)
(2.94663 0.0624867 0)
(2.90634 0.111909 0)
(2.86057 0.145715 0)
(2.81217 0.202402 0)
(2.74815 0.227773 0)
(2.61153 -1.03693 0)
(2.69786 -1.01814 0)
(3.03699 -1.17279 0)
(3.14011 -1.3883 0)
(3.21099 -1.02288 0)
(3.16465 -0.652569 0)
(3.10478 -0.498993 0)
(3.01689 -0.214946 0)
(2.87195 0.130742 0)
(2.75762 0.355976 0)
(2.67455 0.535972 0)
(2.69738 0.521972 0)
(2.83901 0.318569 0)
(2.98103 0.0387918 0)
(2.99954 0.000752078 0)
(2.55927 -1.07036 0)
(2.72185 -1.085 0)
(3.06398 -1.22229 0)
(3.13133 -1.26144 0)
(3.14211 -0.843249 0)
(3.12237 -0.597195 0)
(3.08076 -0.481355 0)
(2.96981 -0.0769396 0)
(2.86933 0.142825 0)
(2.7153 0.436996 0)
(2.66978 0.542898 0)
(2.71383 0.530713 0)
(2.89396 0.202922 0)
(2.99096 0.0175918 0)
(2.99984 0.000248996 0)
(2.54806 -1.16129 0)
(2.74142 -1.23105 0)
(3.05038 -1.23877 0)
(3.05446 -1.29008 0)
(3.09387 -0.912661 0)
(3.10799 -0.681809 0)
(3.10145 -0.339162 0)
(2.93919 0.0679585 0)
(2.82462 0.26106 0)
(2.66521 0.523108 0)
(2.66835 0.540728 0)
(2.74251 0.427067 0)
(2.92628 0.132186 0)
(2.9965 0.00640237 0)
(2.99995 7.96574e-05 0)
(2.52916 -1.20319 0)
(2.73414 -1.3181 0)
(3.02044 -1.25042 0)
(3.05395 -1.26014 0)
(3.11001 -0.877163 0)
(3.14507 -0.609889 0)
(3.0167 -0.0214622 0)
(2.93444 0.0972026 0)
(2.73661 0.41122 0)
(2.64333 0.559684 0)
(2.66794 0.530549 0)
(2.82394 0.320236 0)
(2.96518 0.0694227 0)
(2.99885 0.00215229 0)
(2.99998 2.27057e-05 0)
(2.49876 -1.21396 0)
(2.70905 -1.33552 0)
(2.99911 -1.19856 0)
(3.13191 -1.03677 0)
(3.18328 -0.641439 0)
(3.11824 -0.258659 0)
(2.99002 0.0272464 0)
(2.87168 0.167434 0)
(2.68963 0.469165 0)
(2.62616 0.584245 0)
(2.66902 0.531901 0)
(2.84206 0.300182 0)
(2.9863 0.0288761 0)
(2.99969 0.000659105 0)
(3 6.25537e-06 0)
(2.34233 -1.24594 0)
(2.63546 -1.39599 0)
(3.00472 -1.1027 0)
(3.19162 -0.810492 0)
(3.19223 -0.579297 0)
(3.00851 -0.078157 0)
(2.94855 -0.0158597 0)
(2.77566 0.343739 0)
(2.65066 0.534985 0)
(2.62008 0.590403 0)
(2.6941 0.534571 0)
(2.90069 0.191517 0)
(2.99347 0.0137862 0)
(2.9999 0.0002127 0)
(3 1.845e-06 0)
(2.25137 -1.20538 0)
(2.61034 -1.48024 0)
(3.05594 -0.815933 0)
(3.14718 -0.659954 0)
(3.09722 -0.576449 0)
(2.98847 -0.122622 0)
(2.89744 0.138266 0)
(2.69804 0.472074 0)
(2.61304 0.596356 0)
(2.63516 0.574954 0)
(2.77608 0.392595 0)
(2.96296 0.0758013 0)
(2.99852 0.0031992 0)
(2.99998 4.68708e-05 0)
(3 4.18196e-07 0)
(2.17994 -1.19623 0)
(2.61865 -1.52538 0)
(3.04589 -0.750072 0)
(3.06675 -0.770777 0)
(3.05165 -0.332484 0)
(2.97059 -0.0289048 0)
(2.78059 0.374908 0)
(2.6544 0.544724 0)
(2.60299 0.616112 0)
(2.67113 0.531888 0)
(2.86851 0.255219 0)
(2.985 0.0349138 0)
(2.99963 0.00080211 0)
(3 9.89275e-06 0)
(3 8.40403e-08 0)
(2.12906 -1.02216 0)
(2.63175 -1.43458 0)
(3.00831 -0.984114 0)
(3.0694 -0.618667 0)
(2.96163 0.0169979 0)
(2.86885 0.288595 0)
(2.73004 0.459712 0)
(2.59608 0.626857 0)
(2.60071 0.620686 0)
(2.7093 0.492731 0)
(2.912 0.179779 0)
(2.99539 0.0103206 0)
(2.99992 0.000186308 0)
(3 2.08298e-06 0)
(3 1.69871e-08 0)
(1.97867 -0.83093 0)
(2.63747 -1.21329 0)
(3.00845 -0.926699 0)
(2.99425 -0.0769299 0)
(2.95195 0.121145 0)
(2.77676 0.427388 0)
(2.64908 0.565065 0)
(2.57699 0.648736 0)
(2.60864 0.608139 0)
(2.76542 0.419924 0)
(2.96953 0.062673 0)
(2.999 0.00224139 0)
(2.99998 3.46209e-05 0)
(3 3.78961e-07 0)
(3 3.04291e-09 0)
(1.77 -0.342177 0)
(2.64403 -0.960044 0)
(3.03403 -0.397248 0)
(2.9452 0.133635 0)
(2.8472 0.279003 0)
(2.71043 0.493343 0)
(2.58745 0.64102 0)
(2.57438 0.650887 0)
(2.67253 0.517032 0)
(2.90942 0.174271 0)
(2.99351 0.0151246 0)
(2.99983 0.000393997 0)
(3 5.27451e-06 0)
(3 5.69915e-08 0)
(3 4.56645e-10 0)
(1.52155 0.404898 0)
(2.76346 -0.565003 0)
(2.94652 0.0671546 0)
(2.88942 0.220235 0)
(2.72149 0.494131 0)
(2.6192 0.617906 0)
(2.56814 0.662383 0)
(2.58764 0.609882 0)
(2.74206 0.420926 0)
(2.96118 0.0745164 0)
(2.99855 0.00348195 0)
(2.99998 5.63765e-05 0)
(3 7.07295e-07 0)
(3 7.27145e-09 0)
(3 5.6577e-11 0)
(1.47871 0.788621 0)
(2.86005 -0.0545178 0)
(2.92607 0.205619 0)
(2.75028 0.490844 0)
(2.63475 0.608513 0)
(2.5722 0.665712 0)
(2.56345 0.66383 0)
(2.67293 0.504895 0)
(2.9126 0.164459 0)
(2.99292 0.0162278 0)
(2.99982 0.00039014 0)
(3 6.43898e-06 0)
(3 7.77865e-08 0)
(3 7.77861e-10 0)
(3 5.87716e-12 0)
(2.04504 0.61784 0)
(2.9148 0.344483 0)
(2.78895 0.484583 0)
(2.6304 0.638086 0)
(2.57769 0.672267 0)
(2.55973 0.680281 0)
(2.59488 0.588074 0)
(2.7683 0.378748 0)
(2.97313 0.0526716 0)
(2.99931 0.00175113 0)
(2.99999 3.24094e-05 0)
(3 4.22672e-07 0)
(3 4.7777e-09 0)
(3 4.69339e-11 0)
(3 3.5539e-13 0)
(2.43152 0.656229 0)
(2.77617 0.552623 0)
(2.61875 0.661638 0)
(2.57216 0.696428 0)
(2.5685 0.685386 0)
(2.53488 0.727216 0)
(2.72371 0.418592 0)
(2.95968 0.0835288 0)
(2.99832 0.00508606 0)
(2.99996 9.7034e-05 0)
(3 1.33409e-06 0)
(3 1.57765e-08 0)
(3 1.55788e-10 0)
(3 1.2593e-12 0)
(3 9.20857e-15 0)
(2.52832 0.693561 0)
(2.54467 0.696338 0)
(2.5617 0.707145 0)
(2.55939 0.714428 0)
(2.57079 0.686774 0)
(2.58729 0.658525 0)
(2.89018 0.164087 0)
(3.00385 -0.00658195 0)
(3.00048 -0.000691327 0)
(3.00001 -1.57936e-05 0)
(3 -1.3019e-07 0)
(3 -8.63521e-10 0)
(3 -5.57753e-12 0)
(3 -3.57304e-14 0)
(3 1.54729e-15 0)
(2.52431 0.683342 0)
(2.55164 0.676752 0)
(2.56432 0.710054 0)
(2.54611 0.741447 0)
(2.57739 0.679954 0)
(2.72348 0.468208 0)
(2.92964 0.107115 0)
(2.99772 0.0033594 0)
(2.99997 4.06339e-05 0)
(3 2.9992e-07 0)
(3 2.02865e-09 0)
(3 1.39464e-11 0)
(3 1.00275e-13 0)
(3 1.86361e-15 0)
(3 1.71506e-15 0)
(2.5328 0.692146 0)
(2.55497 0.662038 0)
(2.5601 0.713762 0)
(2.53371 0.764026 0)
(2.58224 0.662982 0)
(2.79011 0.311637 0)
(2.98904 0.0150819 0)
(2.99994 8.58995e-05 0)
(3 1.44745e-07 0)
(3 6.78809e-10 0)
(3 6.93556e-12 0)
(3 1.3817e-13 0)
(3 1.67169e-15 0)
(3 5.6191e-16 0)
(3 9.85454e-16 0)
(2.52952 0.703068 0)
(2.55119 0.662105 0)
(2.55188 0.709554 0)
(2.54553 0.763754 0)
(2.60506 0.628253 0)
(2.88311 0.162734 0)
(2.99697 0.00440372 0)
(2.99999 9.56258e-06 0)
(3 3.68036e-08 0)
(3 5.39342e-11 0)
(3 2.37276e-12 0)
(3 7.83477e-14 0)
(3 6.7495e-16 0)
(3 8.1653e-16 0)
(3 1.28706e-15 0)
(2.52463 0.715516 0)
(2.52835 0.706012 0)
(2.54572 0.720056 0)
(2.56097 0.715502 0)
(2.77337 0.366186 0)
(2.97665 0.0318081 0)
(2.99985 0.000156838 0)
(3 6.54204e-07 0)
(3 -8.54083e-10 0)
(3 1.95023e-11 0)
(3 1.55714e-12 0)
(3 3.49636e-14 0)
(3 3.13912e-16 0)
(3 1.61976e-15 0)
(3 1.54214e-15 0)
(2.51421 0.739861 0)
(2.50443 0.752659 0)
(2.54352 0.730237 0)
(2.59256 0.665257 0)
(2.8569 0.216667 0)
(2.9956 0.00658239 0)
(2.99998 2.82267e-05 0)
(3 -6.14025e-08 0)
(3 1.8849e-10 0)
(3 1.77e-11 0)
(3 1.82307e-12 0)
(3 7.63534e-15 0)
(3 -5.92644e-16 0)
(3 2.37147e-15 0)
(3 2.74956e-15 0)
(2.51379 0.72682 0)
(2.45637 0.803122 0)
(2.55347 0.728755 0)
(2.67403 0.549273 0)
(2.95646 0.0623513 0)
(2.99961 0.00049206 0)
(3 -5.77846e-07 0)
(3 3.54629e-09 0)
(3 1.39621e-10 0)
(3 8.60461e-12 0)
(3 1.06837e-14 0)
(3 -1.35365e-15 0)
(3 -6.46112e-16 0)
(3 2.73407e-15 0)
(3 3.31277e-15 0)
(2.47767 0.72512 0)
(2.40984 0.859778 0)
(2.7074 0.628376 0)
(2.90107 0.232529 0)
(2.99505 0.00782615 0)
(2.99998 2.65233e-05 0)
(3 2.4519e-07 0)
(3 8.60627e-10 0)
(3 -7.26372e-13 0)
(3 -5.29978e-14 0)
(3 -3.26223e-15 0)
(3 -1.66221e-15 0)
(3 -8.44604e-16 0)
(3 2.31402e-15 0)
(3 3.13431e-15 0)
(2.48834 0.675931 0)
(2.45256 0.930053 0)
(2.75095 0.502286 0)
(2.95315 0.0802296 0)
(2.9995 0.000679503 0)
(3 2.9797e-07 0)
(3 -3.82191e-09 0)
(3 -1.04392e-11 0)
(3 -8.892e-13 0)
(3 -6.68466e-15 0)
(3 -7.34295e-16 0)
(3 -2.0918e-15 0)
(3 -1.09801e-15 0)
(3 2.15149e-15 0)
(3 3.01198e-15 0)
(2.53784 0.600534 0)
(2.51736 0.821897 0)
(2.88451 0.226573 0)
(2.99462 0.00915403 0)
(2.99998 2.42107e-05 0)
(3 1.16238e-07 0)
(3 4.15044e-10 0)
(3 1.75353e-12 0)
(3 -1.78526e-14 0)
(3 -1.07568e-15 0)
(3 -7.70763e-16 0)
(3 -2.312e-15 0)
(3 -1.3375e-15 0)
(3 1.57187e-15 0)
(3 2.88293e-15 0)
(2.57552 0.481718 0)
(2.64608 0.618809 0)
(2.95542 0.081483 0)
(2.9993 0.00113444 0)
(3 4.27473e-06 0)
(3 1.95892e-09 0)
(3 -4.77127e-11 0)
(3 -1.34352e-13 0)
(3 -7.45477e-15 0)
(3 -7.38251e-16 0)
(3 -1.8916e-15 0)
(3 -2.14655e-15 0)
(3 -1.36894e-15 0)
(3 9.98018e-16 0)
(3 1.70437e-15 0)
(2.62924 0.382584 0)
(2.76248 0.394983 0)
(2.98712 0.0211945 0)
(2.99991 0.000129702 0)
(3 -1.46853e-07 0)
(3 -2.88933e-10 0)
(3 -2.57275e-11 0)
(3 -2.18567e-13 0)
(3 -2.10018e-15 0)
(3 -1.53507e-15 0)
(3 -3.63835e-15 0)
(3 -1.81752e-15 0)
(3 -1.19946e-15 0)
(3 3.716e-16 0)
(3 1.32561e-15 0)
(2.7307 0.23032 0)
(2.88425 0.189273 0)
(2.99752 0.00383555 0)
(2.99999 1.03482e-05 0)
(3 9.90084e-08 0)
(3 2.56974e-10 0)
(3 7.58264e-13 0)
(3 -1.53031e-14 0)
(3 -2.75344e-15 0)
(3 -1.80912e-15 0)
(3 -4.42736e-15 0)
(3 -2.15551e-15 0)
(3 -9.4824e-16 0)
(3 -2.22303e-16 0)
(3 9.31385e-16 0)
(2.80807 0.125562 0)
(2.95699 0.0645958 0)
(2.99963 0.000531727 0)
(3 1.69759e-06 0)
(3 -4.39596e-09 0)
(3 -1.06907e-11 0)
(3 -2.50652e-13 0)
(3 1.66872e-15 0)
(3 2.02483e-15 0)
(3 -9.72354e-16 0)
(3 -4.36311e-15 0)
(3 -2.26679e-15 0)
(3 -1.85489e-15 0)
(3 -8.80729e-16 0)
(3 6.9873e-16 0)
(2.91535 0.0248745 0)
(2.99211 0.0109403 0)
(2.99997 3.39602e-05 0)
(3 -3.49971e-08 0)
(3 2.65955e-11 0)
(3 -3.59188e-12 0)
(3 -2.08e-14 0)
(3 1.09344e-15 0)
(3 2.51795e-15 0)
(3 -5.91202e-16 0)
(3 -3.63708e-15 0)
(3 -2.35629e-15 0)
(3 -2.72672e-15 0)
(3 -9.5858e-16 0)
(3 6.28579e-16 0)
(3 6.7377e-16 0)
(3 9.87093e-16 0)
(3 1.85147e-15 0)
(3 5.45348e-16 0)
(3 5.40029e-16 0)
(3 7.86614e-16 0)
(3 3.00383e-15 0)
(3 3.75366e-15 0)
(3 2.8412e-15 0)
(3 -6.15396e-16 0)
(3 -3.16584e-15 0)
(3 -3.4061e-15 0)
(3 -3.75957e-15 0)
(3 -1.2296e-15 0)
(3 5.46172e-16 0)
(3 1.04869e-15 0)
(3 1.01483e-15 0)
(3 8.09348e-16 0)
(3 -7.96188e-16 0)
(3 2.91408e-16 0)
(3 9.01e-16 0)
(3 4.04941e-15 0)
(3 5.14157e-15 0)
(3 3.13577e-15 0)
(3 -9.27759e-16 0)
(3 -2.87238e-15 0)
(3 -3.32925e-15 0)
(3 -4.76356e-15 0)
(3 -9.59387e-16 0)
(3 9.43407e-16 0)
(3 1.58965e-15 0)
(3 2.90038e-16 0)
(3 1.35029e-16 0)
(3 -1.15383e-15 0)
(3 3.67615e-16 0)
(3 2.25908e-15 0)
(3 4.69605e-15 0)
(3 6.348e-15 0)
(3 3.48245e-15 0)
(3 -9.42771e-16 0)
(3 -2.79777e-15 0)
(3 -3.11805e-15 0)
(3 -4.8384e-15 0)
(3 -7.4926e-16 0)
(3 1.01812e-15 0)
(3 1.47498e-15 0)
(3 1.33336e-16 0)
(3 -6.35563e-16 0)
(3 -6.49925e-16 0)
(3 2.01092e-15 0)
(3 2.92399e-15 0)
(3 4.50652e-15 0)
(3 6.71587e-15 0)
(3 4.00829e-15 0)
(3 -9.1778e-16 0)
(3 -3.19168e-15 0)
(3 -3.25658e-15 0)
(3 -4.50411e-15 0)
(3 -6.14496e-16 0)
(3 9.64057e-16 0)
(3 1.77282e-15 0)
(3 5.68706e-16 0)
(3 -9.49483e-16 0)
(3 -1.20499e-15 0)
(3 9.72225e-16 0)
(3 2.78773e-15 0)
(3 3.80413e-15 0)
(3 6.02353e-15 0)
(3 5.31889e-15 0)
(3 -5.65429e-17 0)
(3 -3.54126e-15 0)
(3 -3.30512e-15 0)
(3 -3.31032e-15 0)
(3 -4.71579e-16 0)
(3 7.3613e-16 0)
(3 2.76423e-15 0)
(3 1.39413e-16 0)
(3 -2.03082e-15 0)
(3 -9.36173e-16 0)
(3 6.61025e-16 0)
(3 1.99454e-15 0)
(3 2.81072e-15 0)
(3 5.6234e-15 0)
(3 5.3526e-15 0)
(3 1.24761e-16 0)
(3 -3.33204e-15 0)
(3 -3.26307e-15 0)
(3 -1.83501e-15 0)
(3 -8.58322e-17 0)
(3 3.71835e-16 0)
(3 3.36447e-15 0)
(3 2.93708e-17 0)
(3 -3.32958e-15 0)
(3 -1.64336e-15 0)
(3 8.09186e-16 0)
(3 1.73246e-15 0)
(3 2.24039e-15 0)
(3 3.87146e-15 0)
(3 3.93116e-15 0)
(3 2.47924e-16 0)
(3 -1.07411e-15 0)
(3 -2.50672e-15 0)
(3 -1.76798e-15 0)
(3 -1.54078e-16 0)
(3 4.64477e-16 0)
(3 1.59945e-15 0)
(3 -9.2762e-16 0)
(3 -3.77558e-15 0)
(3 -9.49999e-16 0)
(3 1.091e-15 0)
(3 1.3171e-15 0)
(3 1.83377e-15 0)
(3 2.60107e-15 0)
(3 2.0769e-15 0)
(3 2.77093e-16 0)
(3 -5.91312e-16 0)
(3 -1.13951e-15 0)
(3 -1.82151e-15 0)
(3 -3.88236e-17 0)
(3 4.77606e-16 0)
(3 1.37484e-15 0)
(3 -3.17865e-16 0)
(3 -1.43549e-15 0)
(3 -3.72182e-16 0)
(3 -1.49713e-15 0)
(3 -3.01605e-16 0)
(3 2.77852e-15 0)
(3 1.63666e-15 0)
(3 8.20384e-16 0)
(3 -7.19159e-16 0)
(3 -5.14581e-16 0)
(3 -3.12841e-16 0)
(3 -8.07306e-16 0)
(3 1.39958e-17 0)
(3 2.96545e-16 0)
(3 5.47755e-16 0)
(3 7.30573e-16 0)
(3 -2.0174e-16 0)
(3 -1.06222e-16 0)
(3 -6.45211e-16 0)
(3 -3.61375e-17 0)
(3 2.07613e-15 0)
(3 1.03818e-15 0)
(3 -3.00675e-16 0)
(3 -3.09834e-16 0)
(3 -1.41202e-16 0)
(3 -3.68865e-16 0)
(3 -2.46255e-18 0)
(3 4.36514e-17 0)
(3 3.09795e-20 0)
(3 1.32637e-15 0)
(3 1.60697e-15 0)
(3 1.38325e-15 0)
(3 4.76275e-16 0)
(3 -2.34379e-16 0)
(3 -7.2565e-17 0)
(3 1.35572e-15 0)
(3 1.2818e-15 0)
(3 6.1002e-16 0)
(3 1.35336e-16 0)
(3 2.57625e-15 0)
(3 2.15761e-15 0)
(3 8.43395e-16 0)
(3 -2.50593e-16 0)
(3 -3.68777e-17 0)
(3 1.41192e-15 0)
(3 4.52638e-16 0)
(3 1.6278e-15 0)
(3 8.87768e-16 0)
(3 -2.48078e-16 0)
(3 2.39948e-15 0)
(3 2.10957e-15 0)
(3 1.17939e-15 0)
(3 6.87266e-16 0)
(3 1.25257e-15 0)
(3 2.27785e-15 0)
(3 1.79566e-15 0)
(3 1.22156e-15 0)
(3 1.36253e-15 0)
(3 -2.50941e-16 0)
(3 1.12288e-15 0)
(3 -1.37098e-16 0)
(3 -6.15403e-16 0)
(3 -1.475e-16 0)
(3 8.05921e-17 0)
(3 3.05534e-16 0)
(3 6.475e-16 0)
(3 -7.05702e-16 0)
(3 6.17839e-16 0)
(3 -1.14631e-16 0)
(3 3.43203e-18 0)
(3 -8.02759e-16 0)
(3 -1.3188e-16 0)
(3 -2.33039e-16 0)
(3 -4.55503e-16 0)
(3 -8.24249e-16 0)
(3 -4.55288e-16 0)
(3 -1.241e-16 0)
(3 4.88094e-16 0)
(3 -1.66954e-16 0)
(3 -1.4678e-15 0)
(3 -6.19458e-16 0)
(3 5.48852e-16 0)
(3 3.29968e-16 0)
(3 -7.11746e-16 0)
(3 -1.1115e-15 0)
(3 2.82536e-16 0)
(3 1.89604e-15 0)
(3 1.50138e-15 0)
(3 6.25428e-17 0)
(3 -1.71588e-15 0)
(3 -1.85465e-15 0)
(3 -2.24408e-15 0)
(3 -1.88519e-15 0)
(3 -7.30407e-16 0)
(3 -1.14766e-15 0)
(3 -5.9949e-16 0)
(3 -6.71831e-16 0)
(3 -1.35122e-15 0)
(3 1.19841e-16 0)
(3 -1.69043e-15 0)
(3 -2.2114e-15 0)
(3 -2.06042e-15 0)
(3 -1.7584e-15 0)
(3 -1.89199e-15 0)
(3 -2.47669e-15 0)
(3 -4.4034e-15 0)
(3 -5.03188e-15 0)
(3 -3.35161e-15 0)
(3 3.01618e-16 0)
(3 -3.29544e-15 0)
(3 -3.24496e-15 0)
(3 -2.27758e-15 0)
(3 -1.14896e-15 0)
(3 -1.44062e-15 0)
(3 -2.10214e-15 0)
(3 -2.38243e-15 0)
(3 -1.3571e-15 0)
(3 -2.08765e-16 0)
(3 7.49206e-17 0)
(3 -1.51244e-15 0)
(3 -9.46417e-16 0)
(3 -7.92316e-16 0)
(3 -1.10587e-15 0)
(3 -6.41537e-16 0)
(3 -5.32004e-16 0)
(3 -8.21785e-16 0)
(3 -6.64712e-16 0)
(3 -3.15789e-16 0)
(3 -1.8571e-16 0)
(3 3.48808e-15 0)
(3 3.93095e-15 0)
(3 2.19056e-15 0)
(3 1.90952e-15 0)
(3 2.0087e-15 0)
(3 2.58334e-15 0)
(3 1.88046e-15 0)
(3 8.43587e-16 0)
(3 1.61987e-16 0)
(3 1.84149e-16 0)
(3 4.94717e-15 0)
(3 4.46132e-15 0)
(3 4.91498e-15 0)
(3 4.02108e-15 0)
(3 3.34975e-15 0)
(3 3.5427e-15 0)
(3 3.56789e-15 0)
(3 2.87429e-15 0)
(3 1.46825e-15 0)
(3 -7.68718e-17 0)
(3 -8.16813e-18 0)
(3 -4.00704e-16 0)
(3 -5.92168e-18 0)
(3 -4.31028e-16 0)
(3 -8.3024e-16 0)
(3 -1.10602e-15 0)
(3 -5.3536e-16 0)
(3 -3.6267e-16 0)
(3 2.74067e-16 0)
(3 4.89686e-16 0)
(3 -4.12578e-15 0)
(3 -3.86549e-15 0)
(3 -3.42076e-15 0)
(3 -2.17871e-15 0)
(3 -1.60013e-15 0)
(3 -2.23177e-15 0)
(3 -2.65874e-15 0)
(3 -7.40612e-16 0)
(3 -6.88674e-16 0)
(3 2.62194e-16 0)
(3 -3.82668e-15 0)
(3 -2.0106e-15 0)
(3 -7.9089e-16 0)
(3 -1.05422e-15 0)
(3 -1.08041e-15 0)
(3 -8.45599e-16 0)
(3 -1.17122e-15 0)
(3 -1.19262e-15 0)
(3 -1.16596e-15 0)
(3 -1.70481e-15 0)
(3 -3.93679e-16 0)
(3 -3.46462e-16 0)
(3 -8.15918e-17 0)
(3 -2.69022e-16 0)
(3 -2.83137e-16 0)
(3 4.73981e-16 0)
(3 2.90431e-16 0)
(3 1.94613e-16 0)
(3 2.61078e-16 0)
(3 -1.78386e-16 0)
(3 2.09878e-15 0)
(3 2.23361e-15 0)
(3 1.27653e-15 0)
(3 1.62462e-15 0)
(3 1.51543e-15 0)
(3 5.59987e-16 0)
(3 5.58663e-16 0)
(3 2.72228e-16 0)
(3 3.5943e-16 0)
(3 3.14721e-16 0)
(3 1.18879e-15 0)
(3 1.29679e-15 0)
(3 8.53988e-16 0)
(3 4.84672e-16 0)
(3 1.68531e-16 0)
(3 1.0908e-17 0)
(3 4.28677e-16 0)
(3 5.82137e-16 0)
(3 9.69218e-16 0)
(3 6.64984e-16 0)
(3 -1.09792e-15 0)
(3 -1.32366e-15 0)
(3 -5.89669e-16 0)
(3 1.02456e-18 0)
(3 4.99957e-16 0)
(3 8.89033e-16 0)
(3 1.40872e-15 0)
(3 1.50369e-15 0)
(3 6.71071e-16 0)
(3 2.21999e-16 0)
(3 -6.3623e-16 0)
(3 -7.62854e-16 0)
(3 -6.01431e-16 0)
(3 -5.03961e-17 0)
(3 4.4078e-17 0)
(3 1.08238e-16 0)
(3 -1.27182e-16 0)
(3 -2.38058e-16 0)
(3 -4.3479e-16 0)
(3 -2.58521e-16 0)
(2.84811 -0.0478895 0)
(2.99341 -0.00847658 0)
(3 2.71741e-09 0)
(3 9.29631e-15 0)
(3 -2.00293e-15 0)
(3 -6.29474e-16 0)
(3 -1.89427e-15 0)
(3 -1.59919e-15 0)
(3 -2.27044e-15 0)
(3 -1.28852e-15 0)
(3 2.8827e-15 0)
(3 4.45316e-15 0)
(3 5.15023e-16 0)
(3 -3.83403e-15 0)
(3 -3.93999e-15 0)
(3 -6.86026e-16 0)
(3 1.18766e-15 0)
(3 1.51678e-15 0)
(3 2.6482e-16 0)
(3 -3.64198e-16 0)
(2.60644 -0.281294 0)
(2.89083 -0.135235 0)
(3.00029 0.000329279 0)
(3 -1.08597e-06 0)
(3 1.75633e-09 0)
(3 1.114e-11 0)
(3 -1.86933e-14 0)
(3 -2.8275e-15 0)
(3 -1.98653e-15 0)
(3 -1.89126e-16 0)
(3 2.09551e-15 0)
(3 3.26816e-15 0)
(3 7.91064e-16 0)
(3 -2.2343e-15 0)
(3 -3.72425e-15 0)
(3 -6.7191e-16 0)
(3 1.17416e-15 0)
(3 1.29384e-15 0)
(3 1.05222e-15 0)
(3 7.00756e-16 0)
(2.51293 -0.498303 0)
(2.7103 -0.444473 0)
(2.99518 -0.00658135 0)
(3.00001 2.45161e-05 0)
(3 -6.00956e-10 0)
(3 8.04091e-12 0)
(3 9.70051e-14 0)
(3 -1.88441e-15 0)
(3 -3.53837e-15 0)
(3 8.2287e-16 0)
(3 1.57354e-15 0)
(3 1.51769e-15 0)
(3 -1.4852e-16 0)
(3 -1.135e-15 0)
(3 -2.43809e-15 0)
(3 -6.2962e-16 0)
(3 9.40231e-16 0)
(3 1.25914e-15 0)
(3 2.51903e-15 0)
(3 2.35363e-15 0)
(2.29417 -0.741508 0)
(2.26421 -0.986807 0)
(2.88264 -0.194324 0)
(2.99979 -0.000319211 0)
(3 -4.02049e-10 0)
(3 1.2959e-11 0)
(3 1.00949e-13 0)
(3 -1.98088e-15 0)
(3 -3.76089e-15 0)
(3 4.51944e-16 0)
(3 1.2194e-15 0)
(3 7.80898e-16 0)
(3 -2.80419e-16 0)
(3 -2.04125e-15 0)
(3 -1.40774e-15 0)
(3 -4.12302e-16 0)
(3 2.06979e-16 0)
(3 1.17249e-15 0)
(3 3.95275e-15 0)
(3 3.57388e-15 0)
(2.18454 -0.85861 0)
(2.09734 -1.07939 0)
(2.57129 -0.6754 0)
(2.93218 -0.11313 0)
(3.00005 0.000173903 0)
(3 4.00454e-07 0)
(3 3.82467e-10 0)
(3 -3.4208e-13 0)
(3 -1.51572e-14 0)
(3 -1.07601e-15 0)
(3 1.95152e-15 0)
(3 2.36571e-16 0)
(3 -2.41181e-16 0)
(3 -9.04881e-16 0)
(3 -9.72556e-16 0)
(3 -4.60272e-16 0)
(3 2.38712e-16 0)
(3 1.2845e-15 0)
(3 3.79646e-15 0)
(3 3.56718e-15 0)
(2.2046 -0.902209 0)
(2.14195 -1.02467 0)
(2.32597 -0.948511 0)
(2.55316 -0.609722 0)
(2.96152 -0.0451965 0)
(3.00008 0.000106574 0)
(3 7.89163e-07 0)
(3 1.93351e-10 0)
(3 -7.56377e-13 0)
(3 -3.2319e-14 0)
(3 1.82093e-15 0)
(3 8.5816e-16 0)
(3 6.48489e-16 0)
(3 5.74511e-16 0)
(3 -2.21786e-16 0)
(3 -7.27287e-16 0)
(3 3.13765e-16 0)
(3 1.60298e-15 0)
(3 3.16035e-15 0)
(3 3.09489e-15 0)
(2.22795 -0.91349 0)
(2.20533 -0.951678 0)
(2.24828 -0.92515 0)
(2.3659 -0.843594 0)
(2.73408 -0.362365 0)
(2.99217 -0.00959677 0)
(3.00002 3.13869e-05 0)
(3 1.12768e-06 0)
(3 8.73879e-10 0)
(3 -1.13795e-12 0)
(3 -1.04557e-13 0)
(3 7.94789e-16 0)
(3 1.61407e-15 0)
(3 2.55111e-15 0)
(3 -4.01618e-16 0)
(3 -1.24228e-15 0)
(3 6.13835e-16 0)
(3 1.24685e-15 0)
(3 1.50688e-15 0)
(3 2.77389e-15 0)
(2.2543 -0.890919 0)
(2.26095 -0.879946 0)
(2.26221 -0.9104 0)
(2.24405 -0.951086 0)
(2.34543 -0.800149 0)
(2.83176 -0.191061 0)
(2.99911 -0.00111182 0)
(3 -3.64814e-07 0)
(3 3.76845e-09 0)
(3 1.97925e-10 0)
(3 3.77541e-13 0)
(3 -4.86816e-15 0)
(3 1.72502e-15 0)
(3 2.34842e-15 0)
(3 -7.55051e-16 0)
(3 -5.78652e-16 0)
(3 1.46573e-15 0)
(3 6.98416e-16 0)
(3 1.30831e-15 0)
(3 2.79646e-15 0)
(2.25328 -0.884058 0)
(2.26477 -0.878174 0)
(2.27144 -0.910356 0)
(2.24873 -0.939265 0)
(2.31262 -0.839046 0)
(2.5791 -0.522305 0)
(2.9622 -0.0467008 0)
(3.00002 4.29652e-05 0)
(3 1.57521e-06 0)
(3 -1.43807e-09 0)
(3 -7.94695e-11 0)
(3 -3.45906e-13 0)
(3 2.31182e-15 0)
(3 2.74346e-15 0)
(3 -1.91809e-15 0)
(3 -1.68187e-16 0)
(3 2.34112e-15 0)
(3 1.28694e-15 0)
(3 1.71312e-15 0)
(3 2.73131e-15 0)
(2.24262 -0.880172 0)
(2.25967 -0.883326 0)
(2.27816 -0.892873 0)
(2.27202 -0.90532 0)
(2.28816 -0.874238 0)
(2.36925 -0.788559 0)
(2.76553 -0.283629 0)
(2.99509 -0.00582453 0)
(3.00001 9.80763e-06 0)
(3 6.33039e-07 0)
(3 4.62587e-10 0)
(3 8.99575e-13 0)
(3 -2.72686e-14 0)
(3 1.51491e-15 0)
(3 -1.26911e-15 0)
(3 -1.97971e-15 0)
(3 2.4404e-15 0)
(3 2.92374e-15 0)
(3 1.6834e-15 0)
(3 2.16039e-15 0)
(2.24373 -0.880651 0)
(2.25581 -0.885747 0)
(2.27345 -0.886243 0)
(2.28002 -0.877526 0)
(2.28323 -0.87841 0)
(2.24515 -0.945184 0)
(2.47079 -0.652183 0)
(2.91237 -0.10147 0)
(2.99983 -0.000184597 0)
(3 1.49113e-07 0)
(3 7.58841e-09 0)
(3 2.42135e-10 0)
(3 9.96603e-13 0)
(3 2.97515e-15 0)
(3 -9.22541e-16 0)
(3 -2.73988e-15 0)
(3 2.3985e-15 0)
(3 5.29195e-15 0)
(3 1.29011e-15 0)
(3 1.63009e-15 0)
(2.24994 -0.880937 0)
(2.25677 -0.884166 0)
(2.27431 -0.880335 0)
(2.28421 -0.873346 0)
(2.26658 -0.881268 0)
(2.21834 -0.903511 0)
(2.39434 -0.758362 0)
(2.73165 -0.356846 0)
(2.98905 -0.0145565 0)
(3 -2.74701e-05 0)
(3 -4.01581e-07 0)
(3 -2.42511e-08 0)
(3 -8.0053e-11 0)
(3 2.1616e-13 0)
(3 4.81449e-15 0)
(3 -1.88104e-15 0)
(3 2.23816e-15 0)
(3 5.57105e-15 0)
(3 9.91165e-16 0)
(3 1.2057e-15 0)
(2.25391 -0.881419 0)
(2.26079 -0.879406 0)
(2.27667 -0.877234 0)
(2.2825 -0.876806 0)
(2.26996 -0.883007 0)
(2.25229 -0.88276 0)
(2.30861 -0.84234 0)
(2.42492 -0.712363 0)
(2.89836 -0.118861 0)
(2.99979 -0.000217155 0)
(3 4.77289e-07 0)
(3 1.96312e-08 0)
(3 -1.20814e-10 0)
(3 -1.10564e-11 0)
(3 -3.66676e-14 0)
(3 -9.87678e-16 0)
(3 1.61868e-15 0)
(3 4.57608e-15 0)
(3 1.71964e-15 0)
(3 1.24366e-15 0)
(2.25423 -0.881026 0)
(2.26068 -0.876394 0)
(2.27021 -0.875091 0)
(2.27726 -0.88143 0)
(2.27181 -0.888107 0)
(2.26268 -0.89195 0)
(2.26997 -0.892688 0)
(2.34507 -0.810317 0)
(2.64979 -0.437384 0)
(2.97789 -0.0522103 0)
(2.99983 -0.000326309 0)
(3 -1.54112e-06 0)
(3 -7.20384e-09 0)
(3 -6.12335e-11 0)
(3 -3.79267e-13 0)
(3 -2.5432e-15 0)
(3 -3.8937e-17 0)
(3 2.28424e-15 0)
(3 1.73826e-15 0)
(3 1.01898e-15 0)
(2.25363 -0.881543 0)
(2.25867 -0.877206 0)
(2.26486 -0.879697 0)
(2.2703 -0.889372 0)
(2.27058 -0.89575 0)
(2.26513 -0.895167 0)
(2.26537 -0.890128 0)
(2.30809 -0.853947 0)
(2.51501 -0.629405 0)
(2.97725 -0.0142253 0)
(3.00451 0.00736814 0)
(3.00034 0.000543983 0)
(3 6.16489e-06 0)
(3 3.24319e-08 0)
(3 1.66979e-10 0)
(3 9.29219e-13 0)
(3 5.77236e-15 0)
(3 2.40496e-15 0)
(3 1.48755e-15 0)
(3 6.029e-16 0)
(2.27451 -0.838353 0)
(2.58658 -0.616709 0)
(2.40226 -0.772433 0)
(2.33322 -0.836986 0)
(2.30365 -0.870408 0)
(2.27865 -0.885535 0)
(2.26738 -0.890572 0)
(2.28282 -0.874327 0)
(2.29859 -0.88103 0)
(2.56091 -0.551095 0)
(2.88641 -0.165824 0)
(2.99415 -0.0117521 0)
(2.99989 -0.000266208 0)
(3 -3.68116e-06 0)
(3 -3.82827e-08 0)
(3 -3.26485e-10 0)
(3 -2.30484e-12 0)
(3 -1.03384e-14 0)
(3 8.18382e-16 0)
(3 1.00807e-16 0)
(1.86853 -1.02498 0)
(2.72828 -0.29486 0)
(2.6555 -0.447277 0)
(2.50628 -0.650947 0)
(2.39773 -0.78318 0)
(2.34719 -0.827975 0)
(2.29182 -0.867446 0)
(2.28379 -0.87567 0)
(2.27701 -0.859116 0)
(2.25614 -0.882584 0)
(2.5981 -0.532152 0)
(2.92036 -0.143212 0)
(2.99622 -0.00945758 0)
(2.99991 -0.000224608 0)
(3 -3.13878e-06 0)
(3 -3.60409e-08 0)
(3 -3.54234e-10 0)
(3 -3.04177e-12 0)
(3 -2.47257e-14 0)
(3 -8.44096e-16 0)
(2.33177 -0.182278 0)
(2.81285 0.261458 0)
(2.83167 -0.126549 0)
(2.68093 -0.403432 0)
(2.58954 -0.553375 0)
(2.44662 -0.728398 0)
(2.38179 -0.784311 0)
(2.32707 -0.846663 0)
(2.28863 -0.846691 0)
(2.26898 -0.861385 0)
(2.30402 -0.825387 0)
(2.6483 -0.484238 0)
(2.94277 -0.103959 0)
(2.99802 -0.00464702 0)
(2.99997 -8.20137e-05 0)
(3 -9.45343e-07 0)
(3 -9.35735e-09 0)
(3 -8.104e-11 0)
(3 -6.39392e-13 0)
(3 -4.95589e-15 0)
(2.49063 0.363144 0)
(2.76519 0.928522 0)
(2.90781 0.208534 0)
(2.83529 -0.183369 0)
(2.73453 -0.3628 0)
(2.59643 -0.564379 0)
(2.51448 -0.652455 0)
(2.39778 -0.795104 0)
(2.34916 -0.794499 0)
(2.28704 -0.843507 0)
(2.27683 -0.858167 0)
(2.39763 -0.752045 0)
(2.77965 -0.340601 0)
(2.97693 -0.0488956 0)
(2.99929 -0.001614 0)
(2.99999 -2.31751e-05 0)
(3 -2.45028e-07 0)
(3 -2.2829e-09 0)
(3 -1.85626e-11 0)
(3 -1.17787e-13 0)
(2.56236 0.856855 0)
(2.72197 1.23983 0)
(2.90401 0.686809 0)
(2.9667 0.328193 0)
(2.80718 -0.210875 0)
(2.78459 -0.268698 0)
(2.60026 -0.558712 0)
(2.5281 -0.649668 0)
(2.42983 -0.723827 0)
(2.35001 -0.794135 0)
(2.29223 -0.845692 0)
(2.31128 -0.825729 0)
(2.47928 -0.67433 0)
(2.86065 -0.220697 0)
(2.993 -0.0153517 0)
(2.99986 -0.000339175 0)
(3 -3.90885e-06 0)
(3 -3.6632e-08 0)
(3 -3.0353e-10 0)
(3 -1.9224e-12 0)
(2.61075 0.963826 0)
(2.84894 1.30396 0)
(2.99811 0.714116 0)
(2.99475 0.547408 0)
(2.94444 0.238377 0)
(2.85853 -0.0800041 0)
(2.75845 -0.319401 0)
(2.63323 -0.48416 0)
(2.52928 -0.613558 0)
(2.449 -0.697474 0)
(2.34068 -0.802693 0)
(2.31568 -0.820095 0)
(2.3546 -0.787826 0)
(2.62773 -0.508428 0)
(2.93076 -0.11701 0)
(2.99789 -0.00412758 0)
(2.99997 -6.41862e-05 0)
(3 -6.20727e-07 0)
(3 -5.15716e-09 0)
(3 -3.28225e-11 0)
(2.58901 0.988613 0)
(2.81665 1.03787 0)
(3.03766 0.685377 0)
(3.04947 0.520186 0)
(3.05043 0.433853 0)
(2.89248 -0.0320712 0)
(2.89069 -0.0626662 0)
(2.6696 -0.432206 0)
(2.64171 -0.439084 0)
(2.50506 -0.647964 0)
(2.43003 -0.716105 0)
(2.33608 -0.800877 0)
(2.33873 -0.804705 0)
(2.44159 -0.716512 0)
(2.8089 -0.29499 0)
(2.98234 -0.0363573 0)
(2.99967 -0.00068197 0)
(3 -7.79651e-06 0)
(3 -6.54591e-08 0)
(3 -4.15784e-10 0)
(2.59924 0.917467 0)
(2.77955 0.904369 0)
(3.01791 0.766328 0)
(3.13938 0.871946 0)
(3.09321 0.453688 0)
(2.99716 0.168122 0)
(2.95238 0.0111104 0)
(2.79234 -0.271427 0)
(2.70731 -0.382039 0)
(2.60113 -0.550239 0)
(2.50516 -0.651563 0)
(2.3929 -0.752136 0)
(2.3489 -0.797012 0)
(2.37019 -0.790355 0)
(2.57082 -0.583953 0)
(2.92118 -0.130022 0)
(2.99692 -0.00697284 0)
(2.99996 -8.35897e-05 0)
(3 -7.46702e-07 0)
(3 -4.80634e-09 0)
(2.70593 0.802822 0)
(2.75799 0.816279 0)
(2.97314 0.862511 0)
(3.04231 1.07335 0)
(3.07727 0.657522 0)
(3.06848 0.52451 0)
(2.96779 0.0932435 0)
(2.92413 0.0240962 0)
(2.74336 -0.324609 0)
(2.71156 -0.351469 0)
(2.58823 -0.538689 0)
(2.49457 -0.632024 0)
(2.38667 -0.756543 0)
(2.37357 -0.787007 0)
(2.45495 -0.728338 0)
(2.77442 -0.343306 0)
(2.98128 -0.0342884 0)
(2.99965 -0.000763339 0)
(3 -6.79246e-06 0)
(3 -4.37126e-08 0)
(2.78556 0.746944 0)
(2.81237 0.70978 0)
(2.97577 0.857571 0)
(3.06391 1.04787 0)
(3.08556 0.689845 0)
(3.07715 0.638975 0)
(3.00138 0.263396 0)
(2.96031 0.147316 0)
(2.8526 -0.130063 0)
(2.76512 -0.257964 0)
(2.67424 -0.406346 0)
(2.55135 -0.568598 0)
(2.43704 -0.70089 0)
(2.38413 -0.775244 0)
(2.41132 -0.76476 0)
(2.58942 -0.599363 0)
(2.92658 -0.122849 0)
(2.99777 -0.00434051 0)
(2.99997 -5.37028e-05 0)
(3 -3.65467e-07 0)
(2.82046 0.740448 0)
(2.86446 0.701834 0)
(2.99212 0.816862 0)
(3.06461 0.976223 0)
(3.06586 0.678808 0)
(3.06549 0.563083 0)
(3.06462 0.450592 0)
(2.95729 0.083139 0)
(2.93106 0.0127055 0)
(2.7688 -0.292004 0)
(2.71473 -0.368623 0)
(2.58024 -0.544972 0)
(2.48498 -0.657733 0)
(2.4131 -0.749143 0)
(2.4156 -0.757779 0)
(2.54507 -0.642736 0)
(2.80199 -0.323591 0)
(2.98623 -0.0253973 0)