/*--------------------------------*- C++ -*----------------------------------*\
  =========                 |
  \\      /  F ield         | OpenFOAM: The Open Source CFD Toolbox
   \\    /   O peration     | Website:  https://openfoam.org
    \\  /    A nd           | Version:  7
     \\/     M anipulation  |
\*---------------------------------------------------------------------------*/
FoamFile
{
    version     2.0;
    format      ascii;
    class       volScalarField;
    location    "6";
    object      rho;
}
// * * * * * * * * * * * * * * * * * * * * * * * * * * * * * * * * * * * * * //

dimensions      [1 -3 0 0 0 0 0];

internalField   nonuniform List<scalar> 
90000
(
1.1975
1.19841
1.19887
1.19948
1.20203
1.20468
1.20643
1.20918
1.21251
1.21606
1.21906
1.22249
1.22585
1.22954
1.2327
1.23661
1.24021
1.24441
1.24815
1.25252
1.25668
1.26165
1.26671
1.27278
1.2793
1.28716
1.29497
1.30397
1.31163
1.32005
1.32656
1.3333
1.33849
1.34213
1.34533
1.34795
1.34821
1.34848
1.35076
1.35022
1.34672
1.33688
1.32557
1.31669
1.31075
1.30935
1.3109
1.31409
1.31811
1.3226
1.32614
1.32864
1.3303
1.3303
1.32978
1.32735
1.32391
1.32026
1.31674
1.3156
1.31623
1.31873
1.32259
1.32747
1.33145
1.33153
1.33005
1.32749
1.32378
1.32254
1.32338
1.32573
1.3298
1.33043
1.3301
1.32835
1.32655
1.32662
1.32797
1.33108
1.33111
1.33098
1.3297
1.32884
1.32935
1.33072
1.33121
1.3308
1.33066
1.33144
1.33318
1.33333
1.33286
1.33184
1.33192
1.33206
1.33231
1.33258
1.33285
1.3328
1.19828
1.19834
1.19843
1.19884
1.20017
1.2016
1.20289
1.20461
1.20688
1.20953
1.21217
1.215
1.21803
1.22141
1.22489
1.22817
1.23156
1.23497
1.2385
1.24199
1.24575
1.24951
1.25371
1.258
1.26286
1.26814
1.27403
1.28054
1.28758
1.2948
1.30272
1.31019
1.3181
1.32571
1.33236
1.33875
1.3449
1.34858
1.35149
1.35259
1.35263
1.35222
1.35212
1.35064
1.34619
1.33974
1.33334
1.32841
1.32497
1.32473
1.32556
1.32736
1.32954
1.33234
1.33506
1.33721
1.33845
1.33718
1.33439
1.3305
1.32761
1.32618
1.32668
1.32838
1.33117
1.33442
1.33812
1.338
1.33622
1.33283
1.3303
1.33047
1.33185
1.33459
1.33725
1.33683
1.33474
1.33264
1.33285
1.33411
1.33623
1.33684
1.33629
1.33517
1.33472
1.33505
1.33547
1.33548
1.33551
1.33572
1.33644
1.33767
1.33763
1.33689
1.33617
1.33579
1.33595
1.33634
1.33669
1.33665
1.19964
1.19968
1.19973
1.19979
1.19985
1.19994
1.20009
1.20028
1.20055
1.20089
1.20131
1.20195
1.20282
1.20394
1.20529
1.20682
1.2086
1.21053
1.21276
1.21511
1.21773
1.22046
1.22347
1.22669
1.23018
1.23389
1.23813
1.24247
1.24776
1.25314
1.25958
1.26649
1.2744
1.28271
1.29221
1.30148
1.3119
1.3217
1.33057
1.33954
1.34505
1.351
1.35382
1.3554
1.35559
1.35617
1.35679
1.35595
1.35272
1.34811
1.34345
1.3403
1.33754
1.33756
1.33841
1.34016
1.34247
1.34454
1.34701
1.34698
1.34566
1.34213
1.33809
1.33486
1.33524
1.33756
1.34138
1.34479
1.34764
1.3466
1.34334
1.3402
1.33913
1.34019
1.34208
1.34427
1.34398
1.34227
1.34042
1.34076
1.34217
1.34362
1.34349
1.34261
1.34129
1.34133
1.34175
1.34193
1.34177
1.34165
1.34221
1.34317
1.34334
1.34287
1.34197
1.34164
1.34154
1.34171
1.34192
1.34187
1.20224
1.20226
1.20227
1.20228
1.20227
1.20228
1.2023
1.20233
1.20237
1.20243
1.20253
1.20256
1.20261
1.20267
1.20273
1.20282
1.20296
1.20315
1.20339
1.20371
1.20425
1.205
1.20594
1.20708
1.20847
1.21013
1.21215
1.21448
1.21726
1.22043
1.22418
1.22849
1.23363
1.23962
1.24631
1.25452
1.26321
1.27375
1.28496
1.29658
1.30931
1.32231
1.33248
1.34297
1.34998
1.35548
1.35777
1.35751
1.35729
1.3569
1.35588
1.35397
1.35055
1.34713
1.34548
1.34579
1.3465
1.3477
1.34857
1.3494
1.34941
1.34917
1.34831
1.3463
1.34433
1.34386
1.3448
1.34631
1.34835
1.35024
1.35238
1.35172
1.34945
1.34692
1.34625
1.34755
1.34913
1.35063
1.34945
1.34764
1.34707
1.3481
1.34977
1.34966
1.34871
1.34756
1.34758
1.34779
1.34776
1.34762
1.34773
1.34833
1.34906
1.34883
1.34811
1.3474
1.34695
1.34703
1.34717
1.34711
1.2046
1.2046
1.2046
1.2046
1.20459
1.20457
1.20455
1.20455
1.20455
1.20457
1.20459
1.20459
1.20456
1.20451
1.20443
1.20439
1.2044
1.20443
1.20448
1.20461
1.20462
1.20465
1.20467
1.20471
1.20478
1.20491
1.2051
1.20537
1.20583
1.20647
1.20732
1.20849
1.21003
1.21218
1.21479
1.2183
1.22249
1.22803
1.23462
1.24285
1.25291
1.26408
1.27761
1.29153
1.30574
1.31856
1.33153
1.33868
1.34581
1.35037
1.3527
1.3531
1.35358
1.35508
1.35654
1.35633
1.35537
1.3538
1.35143
1.35018
1.34998
1.35044
1.35148
1.35288
1.3528
1.35177
1.35027
1.34883
1.34918
1.35065
1.35281
1.35411
1.35534
1.35438
1.35245
1.351
1.35146
1.35257
1.35409
1.35375
1.35256
1.35175
1.35247
1.3538
1.35369
1.35275
1.35174
1.35183
1.35204
1.35199
1.35187
1.35216
1.35291
1.35344
1.35292
1.35198
1.35137
1.35127
1.35138
1.35143
1.20651
1.20652
1.20652
1.20652
1.20651
1.20648
1.20641
1.20635
1.20635
1.20634
1.20633
1.20633
1.20631
1.20629
1.20624
1.20618
1.20612
1.20605
1.20599
1.20595
1.20589
1.20583
1.20575
1.20569
1.20562
1.2056
1.20562
1.2057
1.20569
1.20566
1.20562
1.20562
1.20566
1.20577
1.20602
1.20646
1.20716
1.20828
1.20997
1.21243
1.21601
1.22068
1.22771
1.23577
1.24738
1.26044
1.27488
1.29219
1.30689
1.32153
1.33336
1.34449
1.3512
1.35458
1.35634
1.35625
1.35566
1.35438
1.35299
1.35142
1.35172
1.35302
1.35423
1.35502
1.35458
1.35372
1.3527
1.35171
1.35107
1.35147
1.35223
1.35407
1.35547
1.35593
1.35598
1.35524
1.35434
1.35393
1.35442
1.35494
1.35551
1.35508
1.35452
1.35491
1.35558
1.35545
1.35479
1.3541
1.35414
1.35426
1.35434
1.3544
1.35476
1.35541
1.35566
1.35524
1.35434
1.35385
1.35389
1.35395
1.20731
1.20731
1.20731
1.20731
1.20729
1.20727
1.20722
1.20718
1.20715
1.20711
1.20709
1.20708
1.20706
1.20704
1.207
1.20695
1.2069
1.20683
1.2068
1.20675
1.20669
1.20664
1.20659
1.20652
1.20642
1.20631
1.20624
1.2062
1.20612
1.20599
1.20586
1.20576
1.20567
1.20567
1.20565
1.20561
1.20554
1.20554
1.20557
1.20568
1.20598
1.20657
1.2077
1.20954
1.21264
1.21731
1.22419
1.23406
1.24643
1.26175
1.27868
1.29621
1.3117
1.326
1.33542
1.3432
1.34632
1.34815
1.35004
1.35336
1.35617
1.35715
1.35687
1.35627
1.35496
1.35376
1.35335
1.35379
1.35393
1.35352
1.3529
1.35311
1.35407
1.35549
1.35604
1.35672
1.35664
1.35586
1.35509
1.35525
1.35575
1.35641
1.35622
1.3558
1.35595
1.35638
1.35629
1.35575
1.35514
1.35515
1.3553
1.35552
1.35576
1.35631
1.35674
1.35671
1.35621
1.35535
1.35539
1.35541
1.20747
1.20748
1.20748
1.20748
1.20747
1.20744
1.2074
1.20735
1.20732
1.20729
1.20726
1.20724
1.20722
1.2072
1.20716
1.20711
1.20707
1.20702
1.20698
1.20691
1.20686
1.20686
1.20686
1.20681
1.20668
1.20657
1.20652
1.20648
1.20643
1.20634
1.2062
1.20607
1.20594
1.20584
1.20575
1.20563
1.2055
1.20539
1.20529
1.20526
1.20522
1.2052
1.20521
1.20526
1.20543
1.20582
1.20674
1.20841
1.21177
1.21701
1.2258
1.23724
1.25324
1.27142
1.28922
1.30857
1.32392
1.33834
1.34692
1.35171
1.35405
1.35541
1.35487
1.35305
1.35212
1.35252
1.3538
1.35589
1.35621
1.35523
1.35323
1.35256
1.35285
1.35382
1.35523
1.35653
1.35649
1.35633
1.3558
1.35578
1.35591
1.35625
1.35642
1.3563
1.35619
1.35639
1.35671
1.35655
1.35603
1.35555
1.35557
1.35571
1.35599
1.35648
1.35733
1.35733
1.3571
1.3564
1.35597
1.356
1.20761
1.2076
1.20759
1.20759
1.20757
1.20755
1.20752
1.2075
1.20747
1.20743
1.20739
1.20735
1.20731
1.20726
1.2072
1.20716
1.20712
1.20705
1.207
1.20698
1.20697
1.20695
1.2069
1.20682
1.20673
1.20665
1.2066
1.20655
1.2065
1.20642
1.20631
1.20619
1.20611
1.206
1.20585
1.20569
1.20552
1.20536
1.20523
1.20513
1.20506
1.20501
1.20496
1.20494
1.20496
1.20501
1.20503
1.20507
1.2052
1.20558
1.20671
1.20895
1.2137
1.22076
1.23334
1.24825
1.26738
1.28757
1.30636
1.32276
1.3319
1.34096
1.34368
1.34694
1.35136
1.35434
1.35684
1.35742
1.35702
1.35539
1.35381
1.35244
1.35274
1.35386
1.35537
1.35576
1.35572
1.35584
1.35632
1.35651
1.35637
1.35625
1.35627
1.35627
1.35639
1.35647
1.35661
1.35669
1.35654
1.3561
1.35577
1.35581
1.35602
1.35641
1.35713
1.35768
1.35759
1.35721
1.35653
1.3563
1.20803
1.20799
1.20794
1.2079
1.20786
1.20782
1.20779
1.20775
1.2077
1.20764
1.20758
1.20751
1.20745
1.2074
1.20735
1.20728
1.20721
1.20716
1.20715
1.20715
1.20715
1.20711
1.20705
1.20697
1.2069
1.20684
1.20677
1.2067
1.20664
1.20657
1.20647
1.20637
1.20628
1.20615
1.20597
1.2058
1.20566
1.20554
1.20542
1.20534
1.20528
1.20527
1.20528
1.20526
1.20526
1.20528
1.20531
1.20536
1.20542
1.20561
1.20558
1.20561
1.2058
1.20649
1.20845
1.2123
1.22038
1.23176
1.24918
1.26868
1.29021
1.31089
1.3264
1.34117
1.34913
1.35212
1.35484
1.35477
1.35289
1.35253
1.35323
1.354
1.35493
1.35478
1.35477
1.35434
1.3545
1.3551
1.3563
1.35672
1.35662
1.35626
1.35612
1.35629
1.35652
1.35659
1.35651
1.35658
1.35662
1.35651
1.35619
1.35602
1.35612
1.35639
1.35682
1.35754
1.35771
1.35764
1.35722
1.35664
1.20793
1.20792
1.2079
1.20788
1.20786
1.20784
1.20781
1.20778
1.20777
1.20775
1.20772
1.20767
1.20762
1.2076
1.20757
1.20752
1.20749
1.2075
1.20752
1.20752
1.2075
1.20746
1.20741
1.20736
1.20733
1.2073
1.20726
1.20721
1.20714
1.20708
1.20701
1.20692
1.2068
1.20666
1.20651
1.20634
1.20622
1.20612
1.20601
1.20591
1.20584
1.2058
1.2058
1.20582
1.20584
1.20585
1.20588
1.20596
1.20604
1.20606
1.20606
1.20605
1.20607
1.20597
1.20595
1.2061
1.20683
1.20879
1.21331
1.22138
1.23502
1.25255
1.27492
1.29601
1.31375
1.32828
1.33667
1.34315
1.34672
1.35285
1.35621
1.35667
1.35643
1.35516
1.35347
1.35359
1.35439
1.35569
1.35621
1.35634
1.35618
1.35612
1.35634
1.35662
1.35672
1.35658
1.35646
1.35652
1.35672
1.35674
1.35661
1.35634
1.35637
1.35653
1.35691
1.35737
1.3578
1.35794
1.35772
1.35705
1.20793
1.20793
1.20793
1.20793
1.20793
1.20794
1.20794
1.20795
1.20796
1.20798
1.20799
1.208
1.20801
1.20801
1.20802
1.20802
1.20802
1.20803
1.20804
1.20803
1.20801
1.20798
1.20792
1.20789
1.20789
1.20789
1.20788
1.20788
1.20786
1.20783
1.20778
1.20769
1.20758
1.20746
1.20735
1.2072
1.20703
1.20688
1.20674
1.20658
1.20648
1.20645
1.20646
1.20649
1.20651
1.20655
1.20663
1.20673
1.20684
1.20691
1.20691
1.20687
1.20677
1.20663
1.20644
1.20637
1.20635
1.20644
1.20679
1.20778
1.21047
1.21558
1.22599
1.24082
1.26079
1.28542
1.30558
1.32615
1.34093
1.35101
1.35374
1.35524
1.35348
1.35147
1.35251
1.35435
1.3558
1.35601
1.35573
1.35526
1.35557
1.3565
1.35707
1.35698
1.35676
1.35652
1.3566
1.35676
1.35689
1.35694
1.3569
1.35689
1.3569
1.35689
1.35697
1.35725
1.35783
1.35815
1.3581
1.35758
1.20768
1.20769
1.2077
1.2077
1.2077
1.20771
1.20772
1.20774
1.20776
1.20778
1.20779
1.20781
1.20783
1.20785
1.20788
1.20793
1.20799
1.20802
1.20805
1.20809
1.20813
1.20814
1.20814
1.20814
1.20817
1.20822
1.20829
1.20836
1.20842
1.20849
1.2085
1.2085
1.20847
1.20842
1.20835
1.20825
1.20813
1.208
1.20784
1.20764
1.20749
1.20746
1.20747
1.20747
1.20749
1.20752
1.20758
1.20766
1.20777
1.2079
1.208
1.208
1.20791
1.20771
1.2074
1.20705
1.20678
1.20673
1.2068
1.20698
1.20733
1.20795
1.20939
1.21236
1.21979
1.23145
1.2512
1.27378
1.29634
1.31862
1.32978
1.34141
1.34487
1.35122
1.35563
1.35715
1.35693
1.35545
1.35438
1.35473
1.35613
1.35736
1.35737
1.35719
1.35675
1.35686
1.35709
1.35724
1.35713
1.35716
1.35729
1.3576
1.35759
1.35741
1.35728
1.35741
1.35786
1.35839
1.35852
1.35817
1.20733
1.20734
1.20735
1.20736
1.20737
1.20738
1.2074
1.20742
1.20746
1.20749
1.20751
1.20752
1.20753
1.20757
1.20762
1.20768
1.20773
1.20778
1.20784
1.2079
1.20796
1.20801
1.20809
1.20819
1.2083
1.20841
1.20851
1.2086
1.20871
1.20884
1.20898
1.20906
1.20908
1.20908
1.20908
1.20908
1.20907
1.20902
1.20892
1.20879
1.20867
1.20862
1.20859
1.20854
1.20851
1.20851
1.20855
1.20861
1.20869
1.20879
1.20895
1.20907
1.20905
1.2089
1.2086
1.20816
1.20765
1.2073
1.20723
1.20725
1.20738
1.2078
1.20809
1.20827
1.20894
1.21079
1.21627
1.2259
1.24427
1.26634
1.29166
1.31627
1.33426
1.34888
1.35325
1.35592
1.35437
1.352
1.35331
1.35575
1.35741
1.35738
1.35722
1.35696
1.35716
1.35763
1.35767
1.3575
1.35738
1.35755
1.35796
1.35826
1.35819
1.35802
1.35784
1.35788
1.35809
1.35855
1.35892
1.35875
1.20752
1.20752
1.20753
1.20754
1.20755
1.20757
1.20758
1.20758
1.20759
1.2076
1.20762
1.20765
1.2077
1.20775
1.20779
1.20783
1.20789
1.20795
1.20801
1.20808
1.20814
1.20822
1.20831
1.20842
1.20852
1.20862
1.20871
1.20881
1.20892
1.20906
1.20919
1.2093
1.20938
1.20943
1.20948
1.20954
1.20958
1.20959
1.2096
1.20959
1.20953
1.20945
1.20938
1.20933
1.2093
1.20928
1.20929
1.20936
1.20945
1.20957
1.20973
1.20992
1.21004
1.20999
1.20979
1.20944
1.20896
1.20843
1.20809
1.20803
1.20803
1.20816
1.20835
1.20856
1.2086
1.20865
1.20888
1.21013
1.21431
1.2228
1.23986
1.26104
1.2868
1.31151
1.32615
1.34063
1.34517
1.35152
1.35694
1.35766
1.35745
1.35611
1.35624
1.35684
1.35791
1.35834
1.35812
1.35769
1.35782
1.35827
1.3588
1.35888
1.3588
1.35874
1.35861
1.35851
1.35853
1.35876
1.35924
1.35934
1.20822
1.2082
1.20819
1.20819
1.20819
1.20819
1.20819
1.20819
1.20818
1.20819
1.20819
1.2082
1.20822
1.20823
1.20823
1.20824
1.20827
1.2083
1.20834
1.20838
1.20843
1.2085
1.20859
1.20867
1.20874
1.20882
1.2089
1.20898
1.20906
1.20915
1.20925
1.20935
1.20945
1.20955
1.20964
1.20974
1.20986
1.20998
1.21006
1.21008
1.21009
1.21005
1.20996
1.20993
1.2099
1.20981
1.20967
1.20964
1.20968
1.20985
1.2101
1.21038
1.21065
1.2107
1.21061
1.2104
1.21012
1.20974
1.20933
1.20915
1.20909
1.20908
1.20918
1.20927
1.20922
1.20918
1.20926
1.20923
1.20938
1.21032
1.21383
1.2212
1.23705
1.25786
1.2851
1.31171
1.33287
1.34921
1.35436
1.35643
1.35382
1.35389
1.35561
1.35803
1.35857
1.35838
1.3578
1.35802
1.35879
1.35922
1.35927
1.35922
1.35928
1.35945
1.35943
1.35926
1.3591
1.35913
1.35942
1.3598
1.20922
1.20919
1.20916
1.20914
1.20912
1.20912
1.20912
1.20912
1.20912
1.2091
1.20909
1.20907
1.20906
1.20903
1.20901
1.20901
1.20901
1.20901
1.20903
1.20905
1.20909
1.20912
1.20915
1.20918
1.2092
1.20924
1.20927
1.20931
1.20935
1.20939
1.20947
1.20954
1.20961
1.2097
1.20982
1.20996
1.21009
1.21025
1.21042
1.2105
1.21052
1.2105
1.21044
1.2104
1.21034
1.2102
1.21001
1.20983
1.20981
1.2099
1.21012
1.21041
1.2107
1.21087
1.21089
1.21089
1.21088
1.21079
1.2106
1.21038
1.21027
1.21025
1.21028
1.21032
1.21029
1.21017
1.21001
1.20976
1.20976
1.20977
1.20991
1.21071
1.21361
1.22053
1.23573
1.25721
1.28478
1.31163
1.32767
1.34216
1.34651
1.35375
1.35906
1.35902
1.35849
1.35729
1.35753
1.35891
1.35994
1.35983
1.3596
1.35953
1.35983
1.36018
1.36017
1.35997
1.35969
1.35957
1.35969
1.36013
1.21052
1.21049
1.21045
1.21043
1.21043
1.21045
1.21048
1.2105
1.2105
1.21048
1.21046
1.21043
1.21041
1.21038
1.21035
1.21033
1.21032
1.21031
1.2103
1.2103
1.21028
1.21025
1.21022
1.21019
1.21015
1.21011
1.21006
1.21
1.20997
1.20996
1.20993
1.2099
1.20988
1.20991
1.21002
1.21015
1.21028
1.21047
1.21065
1.21073
1.21077
1.21078
1.21077
1.21072
1.2106
1.21044
1.21029
1.2101
1.20996
1.21001
1.21018
1.21043
1.21068
1.21088
1.21096
1.21102
1.21116
1.21127
1.21125
1.21115
1.21101
1.21099
1.21107
1.21126
1.21127
1.21119
1.21106
1.21087
1.2107
1.21044
1.21035
1.21035
1.21049
1.21119
1.21396
1.22077
1.23633
1.25876
1.28714
1.31562
1.33761
1.35139
1.35714
1.35679
1.35405
1.35546
1.35826
1.36013
1.35998
1.35951
1.35956
1.36009
1.36057
1.36066
1.36056
1.36046
1.36029
1.36009
1.36008
1.36042
1.21166
1.21165
1.21165
1.21165
1.21169
1.21173
1.21173
1.21174
1.21177
1.21178
1.21178
1.21178
1.21176
1.21174
1.21175
1.21175
1.21174
1.21174
1.21174
1.21174
1.21172
1.21166
1.21159
1.2115
1.21137
1.21122
1.21108
1.21095
1.21083
1.21071
1.21057
1.21036
1.21025
1.21025
1.21029
1.21035
1.21048
1.21069
1.21075
1.21078
1.2109
1.21107
1.21112
1.21107
1.21086
1.21071
1.21069
1.21064
1.21051
1.21045
1.21049
1.21058
1.21069
1.21077
1.21083
1.21094
1.21116
1.21141
1.2115
1.21149
1.21136
1.21128
1.21131
1.21148
1.21161
1.2117
1.21183
1.21186
1.21185
1.21178
1.21154
1.21116
1.21104
1.21104
1.21114
1.2118
1.21459
1.22184
1.23806
1.26184
1.29012
1.31773
1.33269
1.3443
1.34946
1.35838
1.36025
1.35992
1.35856
1.35886
1.35991
1.36098
1.36104
1.36093
1.36079
1.36083
1.36077
1.36055
1.36043
1.36071
1.21201
1.21201
1.21201
1.21204
1.2121
1.21213
1.21212
1.2121
1.2121
1.21214
1.21218
1.21219
1.21219
1.21222
1.21228
1.21234
1.21241
1.21246
1.21253
1.2126
1.21264
1.21265
1.21265
1.21262
1.21249
1.21229
1.21215
1.21206
1.21197
1.21179
1.21149
1.21115
1.21097
1.21089
1.21088
1.21093
1.21111
1.2112
1.21121
1.21133
1.21149
1.2116
1.21162
1.21152
1.21128
1.21124
1.21129
1.21139
1.21143
1.21141
1.21132
1.21117
1.211
1.2109
1.2109
1.21097
1.21113
1.21134
1.21147
1.21147
1.21142
1.21136
1.21138
1.21148
1.21166
1.21178
1.21193
1.21216
1.21245
1.21259
1.21253
1.21234
1.21205
1.21175
1.21161
1.21164
1.21178
1.21244
1.21558
1.22313
1.24147
1.26689
1.29506
1.3272
1.34462
1.35599
1.35768
1.35548
1.35609
1.35834
1.3605
1.36107
1.36101
1.36087
1.36105
1.36118
1.36107
1.36086
1.36084
1.36114
1.21169
1.21168
1.21167
1.21167
1.21167
1.21169
1.21176
1.21183
1.21182
1.2118
1.21182
1.2119
1.21205
1.21224
1.21238
1.21249
1.21259
1.21267
1.21274
1.21283
1.21295
1.21305
1.21313
1.21315
1.2131
1.2129
1.2128
1.21281
1.21277
1.21257
1.21219
1.21195
1.21182
1.21171
1.21168
1.21175
1.21184
1.21185
1.21193
1.21212
1.21213
1.21208
1.21209
1.21199
1.21191
1.2119
1.21193
1.21209
1.21227
1.21227
1.21221
1.21198
1.21177
1.21162
1.21139
1.21126
1.21126
1.21131
1.21137
1.21143
1.21144
1.21149
1.21155
1.21155
1.21158
1.21168
1.21189
1.2122
1.21248
1.21267
1.21279
1.21281
1.21276
1.21262
1.21241
1.21219
1.21207
1.2121
1.21224
1.21299
1.21681
1.22561
1.24661
1.27314
1.30151
1.32878
1.33857
1.34785
1.35543
1.36074
1.36074
1.36027
1.36025
1.36083
1.36132
1.3613
1.36112
1.36111
1.36126
1.36158
1.21108
1.21107
1.21107
1.21107
1.2111
1.21118
1.21122
1.21122
1.21123
1.21128
1.2114
1.21158
1.21174
1.21187
1.212
1.21215
1.21228
1.21239
1.21248
1.21259
1.21274
1.21293
1.21307
1.21312
1.2131
1.21299
1.21295
1.21297
1.21297
1.21277
1.21256
1.21255
1.21254
1.21257
1.2126
1.2126
1.2125
1.21244
1.21256
1.21265
1.21267
1.21261
1.21235
1.21217
1.21215
1.21214
1.21216
1.21226
1.21249
1.2127
1.2127
1.21265
1.21263
1.21251
1.21223
1.21193
1.2118
1.21172
1.21159
1.21157
1.21161
1.21179
1.212
1.21201
1.21199
1.21201
1.21211
1.21228
1.21238
1.21251
1.21269
1.21278
1.21278
1.21272
1.21261
1.21257
1.21254
1.21249
1.21249
1.21248
1.21263
1.2137
1.21874
1.22947
1.25371
1.28202
1.31166
1.3415
1.35183
1.35871
1.35694
1.35699
1.35872
1.36088
1.36125
1.36115
1.36102
1.36141
1.3618
1.36186
1.21093
1.21091
1.21091
1.21092
1.21095
1.21095
1.21093
1.21092
1.21094
1.21104
1.21127
1.21148
1.21163
1.21176
1.2119
1.21204
1.21217
1.21228
1.21238
1.2125
1.21261
1.21272
1.21284
1.21289
1.21289
1.21287
1.21286
1.21291
1.21306
1.21303
1.21294
1.21293
1.21296
1.21314
1.21325
1.21325
1.21319
1.21311
1.21304
1.213
1.21301
1.21298
1.21273
1.21225
1.21209
1.21209
1.2121
1.21216
1.21242
1.21251
1.21254
1.21276
1.21308
1.21317
1.21308
1.21283
1.21254
1.21224
1.21197
1.21192
1.21201
1.21232
1.21261
1.21263
1.21253
1.21238
1.21234
1.21236
1.21236
1.2124
1.21257
1.2127
1.2127
1.21264
1.21259
1.21259
1.21264
1.21276
1.21283
1.21279
1.21279
1.21279
1.21311
1.21483
1.2215
1.23503
1.26228
1.29303
1.31729
1.33952
1.34567
1.35563
1.36021
1.36079
1.36036
1.36031
1.36082
1.36191
1.36213
1.36202
1.21153
1.21144
1.21143
1.21143
1.21144
1.21143
1.21137
1.21137
1.21141
1.21155
1.21175
1.21192
1.21203
1.21213
1.21224
1.21235
1.21243
1.21248
1.21252
1.21258
1.21264
1.21269
1.21273
1.21275
1.21275
1.21274
1.21276
1.21291
1.21314
1.21322
1.21319
1.21318
1.21322
1.21321
1.21312
1.21307
1.21312
1.21318
1.21318
1.21316
1.21314
1.21312
1.21301
1.21261
1.21209
1.21189
1.21183
1.2118
1.21201
1.21217
1.21215
1.21233
1.21298
1.2135
1.21353
1.21337
1.21303
1.2127
1.21248
1.21246
1.21265
1.21293
1.21307
1.21308
1.21299
1.21274
1.21251
1.21247
1.21247
1.21253
1.21265
1.21269
1.21266
1.21256
1.21256
1.2126
1.2127
1.21282
1.21288
1.21292
1.2129
1.21287
1.21286
1.21297
1.21364
1.21632
1.22544
1.24309
1.27325
1.30535
1.33294
1.35179
1.35826
1.35744
1.3571
1.35901
1.36142
1.36193
1.362
1.36187
1.21296
1.21286
1.2127
1.21261
1.21259
1.2126
1.21259
1.21256
1.21255
1.21257
1.21262
1.21275
1.21293
1.21299
1.21306
1.21314
1.21315
1.21316
1.21314
1.21306
1.21298
1.21287
1.21269
1.21264
1.21264
1.21265
1.21265
1.21266
1.21273
1.21285
1.21297
1.21313
1.21323
1.21317
1.21297
1.2129
1.21298
1.21315
1.2132
1.21321
1.21316
1.21313
1.21325
1.21327
1.21304
1.21258
1.21216
1.21194
1.21188
1.2118
1.21178
1.21219
1.21323
1.21372
1.21371
1.21341
1.21303
1.21298
1.21296
1.21301
1.21317
1.2132
1.21319
1.21309
1.21275
1.2126
1.21261
1.21263
1.21273
1.21291
1.21297
1.21296
1.21284
1.2127
1.21271
1.21277
1.21284
1.21287
1.21287
1.21286
1.21281
1.21279
1.21281
1.21285
1.21291
1.21316
1.21436
1.21875
1.23123
1.25389
1.28546
1.3159
1.33473
1.3463
1.35444
1.36132
1.36175
1.36097
1.36113
1.36164
1.2128
1.21267
1.21256
1.21252
1.21249
1.21242
1.21236
1.21233
1.21233
1.21234
1.21237
1.21246
1.21257
1.21262
1.21262
1.2125
1.21243
1.21254
1.21261
1.2126
1.21253
1.21244
1.21238
1.21238
1.21243
1.21257
1.21262
1.21262
1.21253
1.21245
1.21241
1.21241
1.21249
1.21241
1.21222
1.21216
1.21221
1.21249
1.21272
1.21284
1.21311
1.21371
1.21391
1.21397
1.21407
1.2139
1.21301
1.21228
1.21228
1.21231
1.21245
1.2131
1.2138
1.21386
1.21369
1.21316
1.2129
1.21289
1.21287
1.21294
1.21315
1.21322
1.21315
1.21283
1.21246
1.21238
1.21243
1.21257
1.21289
1.21329
1.21339
1.2134
1.2133
1.21311
1.21308
1.21307
1.21304
1.21295
1.21286
1.21276
1.21269
1.21269
1.21274
1.21281
1.21284
1.21286
1.21296
1.2134
1.21565
1.2223
1.24038
1.2672
1.29933
1.33479
1.35013
1.35922
1.35787
1.35796
1.35951
1.36157
1.2113
1.21119
1.21112
1.21104
1.21082
1.21041
1.21027
1.21027
1.21023
1.21019
1.2102
1.21031
1.2105
1.21061
1.21085
1.21095
1.21096
1.21118
1.21194
1.21238
1.21241
1.21236
1.21238
1.21262
1.21311
1.21365
1.21395
1.21402
1.214
1.2138
1.21335
1.2129
1.21238
1.21179
1.21158
1.2116
1.21178
1.21225
1.21267
1.21284
1.21338
1.21429
1.21441
1.21427
1.21432
1.21418
1.21323
1.21249
1.21247
1.21277
1.21364
1.21412
1.21412
1.21399
1.21336
1.21251
1.21235
1.21238
1.21226
1.21226
1.21274
1.21335
1.21332
1.21294
1.21248
1.21239
1.2125
1.21271
1.21306
1.21357
1.21373
1.21372
1.21358
1.21339
1.21331
1.21326
1.2132
1.21309
1.21289
1.21267
1.21264
1.21266
1.21272
1.21279
1.21283
1.21286
1.2129
1.21297
1.21319
1.2141
1.21826
1.22827
1.2524
1.28318
1.31161
1.33812
1.34515
1.3563
1.36035
1.3614
1.2083
1.2082
1.20807
1.20779
1.20731
1.20711
1.2071
1.20708
1.20706
1.20707
1.2071
1.20735
1.20787
1.20796
1.20801
1.20823
1.20875
1.20969
1.21105
1.21161
1.21165
1.21175
1.21211
1.21261
1.21316
1.21371
1.21421
1.2145
1.21449
1.21427
1.21382
1.21322
1.21228
1.2112
1.21083
1.21086
1.21105
1.21164
1.21246
1.21273
1.21318
1.21394
1.21405
1.21393
1.21386
1.21344
1.21231
1.21198
1.21201
1.21246
1.21353
1.21385
1.2138
1.21355
1.21287
1.21198
1.2117
1.2116
1.21142
1.21159
1.21263
1.21365
1.21363
1.21335
1.21314
1.21307
1.21311
1.21316
1.21326
1.2136
1.21378
1.21375
1.21356
1.21334
1.2133
1.21331
1.21329
1.21321
1.21297
1.21271
1.21271
1.21276
1.2128
1.21282
1.21281
1.21283
1.21289
1.21296
1.21303
1.21315
1.2136
1.21542
1.22227
1.23753
1.26716
1.30032
1.33053
1.35264
1.35817
1.3575
1.20791
1.20788
1.20787
1.20788
1.20788
1.20786
1.20787
1.20795
1.20792
1.20785
1.20782
1.20778
1.20769
1.20766
1.20772
1.208
1.20863
1.20947
1.21013
1.2104
1.21045
1.21054
1.21101
1.21116
1.211
1.21106
1.2117
1.21271
1.2131
1.213
1.21271
1.2124
1.21198
1.21138
1.21069
1.21019
1.2101
1.21032
1.2106
1.21059
1.21047
1.21065
1.21112
1.21136
1.21131
1.21078
1.20972
1.20938
1.20938
1.20987
1.21086
1.21156
1.2122
1.21269
1.21286
1.21261
1.21209
1.2116
1.21144
1.21185
1.21322
1.21387
1.21371
1.21344
1.21348
1.21361
1.21358
1.21344
1.21334
1.21336
1.21345
1.21344
1.21334
1.21322
1.21319
1.21319
1.21317
1.21315
1.21307
1.21293
1.21293
1.21296
1.21296
1.21288
1.21285
1.2129
1.21296
1.21302
1.21315
1.2133
1.21341
1.21357
1.21431
1.21769
1.22848
1.25015
1.2843
1.31504
1.33512
1.35089
1.20969
1.20953
1.20951
1.20952
1.20953
1.20976
1.20997
1.21004
1.21001
1.20977
1.20922
1.20878
1.20873
1.20886
1.20911
1.20955
1.20995
1.21011
1.21003
1.20934
1.20907
1.20907
1.20889
1.20792
1.20662
1.20623
1.20642
1.20729
1.20786
1.20804
1.20828
1.2087
1.20897
1.20885
1.20857
1.20858
1.20859
1.20858
1.20879
1.20885
1.20877
1.20879
1.20907
1.20957
1.20965
1.20932
1.20827
1.20738
1.20725
1.20738
1.20788
1.20871
1.20992
1.21158
1.21276
1.21283
1.21251
1.21207
1.21207
1.2127
1.21352
1.21339
1.21287
1.21276
1.21294
1.21337
1.21342
1.21322
1.21285
1.21272
1.21273
1.21282
1.21303
1.21321
1.21328
1.21328
1.21326
1.21323
1.21319
1.21305
1.2129
1.21284
1.21283
1.21288
1.21298
1.21311
1.21317
1.21324
1.21333
1.21343
1.21343
1.21338
1.21338
1.21363
1.21535
1.2217
1.23946
1.26702
1.3029
1.34242
1.21518
1.21547
1.21568
1.21577
1.21582
1.21595
1.21623
1.21662
1.21708
1.21721
1.21701
1.21692
1.21705
1.21664
1.21503
1.2145
1.21475
1.21473
1.21393
1.21118
1.21014
1.20994
1.20953
1.20856
1.20739
1.20713
1.20759
1.20882
1.20944
1.20965
1.2099
1.21021
1.21052
1.21039
1.20988
1.20971
1.20989
1.21012
1.21008
1.21006
1.21027
1.21122
1.21314
1.21443
1.21456
1.21431
1.21308
1.21038
1.20801
1.20752
1.20755
1.20799
1.20937
1.211
1.21193
1.21209
1.21169
1.21149
1.2118
1.2123
1.21224
1.21148
1.21022
1.20991
1.21016
1.21102
1.21186
1.21229
1.21244
1.21248
1.21255
1.21268
1.21298
1.2134
1.21349
1.21349
1.21344
1.21331
1.21319
1.21299
1.21278
1.21272
1.21281
1.213
1.21339
1.21362
1.2136
1.21352
1.21349
1.21342
1.21335
1.21331
1.21322
1.21317
1.21327
1.21409
1.21785
1.22985
1.25263
1.30022
1.23716
1.23852
1.23917
1.23922
1.23922
1.23923
1.23946
1.24081
1.24155
1.24137
1.24158
1.2429
1.24285
1.24086
1.23916
1.23805
1.23657
1.23447
1.23244
1.22969
1.22765
1.22701
1.22665
1.22598
1.22493
1.22474
1.22462
1.22418
1.22351
1.22258
1.22052
1.2176
1.21634
1.21636
1.21653
1.21658
1.21673
1.21717
1.21706
1.21651
1.21655
1.21721
1.21845
1.22002
1.22128
1.22135
1.22036
1.21753
1.21306
1.20992
1.20943
1.20989
1.21096
1.21143
1.21124
1.21017
1.20886
1.20871
1.20922
1.2106
1.21102
1.21069
1.20969
1.20898
1.20903
1.20946
1.21017
1.21097
1.21183
1.21209
1.21211
1.21221
1.21241
1.21287
1.21321
1.2132
1.213
1.21287
1.21271
1.21255
1.2126
1.21275
1.21309
1.21357
1.21399
1.21402
1.21397
1.21378
1.21346
1.21327
1.21331
1.21335
1.21329
1.21319
1.21315
1.21315
1.2135
1.2157
1.22252
1.25666
1.25931
1.25993
1.26086
1.26126
1.26137
1.26131
1.26087
1.25989
1.2586
1.25689
1.25428
1.25258
1.25228
1.25307
1.25355
1.25238
1.25004
1.24689
1.24534
1.24562
1.24677
1.24655
1.24695
1.24966
1.25141
1.25133
1.25117
1.25148
1.25113
1.24894
1.24549
1.24214
1.24072
1.23983
1.23777
1.23447
1.23148
1.22915
1.22546
1.2229
1.22264
1.22211
1.22108
1.22085
1.22159
1.22373
1.22482
1.22426
1.22235
1.21888
1.21789
1.21814
1.21814
1.21716
1.21491
1.21198
1.21046
1.21047
1.21087
1.21193
1.21378
1.21438
1.21394
1.21287
1.21161
1.21116
1.21132
1.21207
1.21293
1.21283
1.21242
1.21174
1.21119
1.2112
1.21129
1.2113
1.21138
1.21174
1.21191
1.21208
1.21234
1.21298
1.21351
1.21394
1.21403
1.214
1.21383
1.21349
1.2132
1.21319
1.21331
1.21349
1.21349
1.21336
1.21319
1.21302
1.21303
1.21316
1.21412
1.22717
1.32011
1.31907
1.31759
1.31632
1.31509
1.31463
1.31522
1.31673
1.31676
1.31489
1.31191
1.30921
1.30719
1.30522
1.30207
1.2996
1.29668
1.29204
1.29025
1.29059
1.2903
1.2871
1.28342
1.28307
1.28298
1.2814
1.27863
1.27835
1.27786
1.27584
1.27422
1.27433
1.27732
1.2795
1.27923
1.27759
1.27481
1.27158
1.26824
1.26481
1.26136
1.25769
1.25372
1.25007
1.24663
1.24195
1.23757
1.23634
1.23695
1.23854
1.23848
1.23732
1.23686
1.23691
1.23605
1.23198
1.22539
1.22073
1.21959
1.21968
1.22129
1.22286
1.22254
1.2206
1.21744
1.2145
1.21339
1.21319
1.21276
1.21176
1.21059
1.21006
1.21006
1.21018
1.21038
1.21054
1.21079
1.21131
1.21213
1.21273
1.21288
1.21299
1.21328
1.21345
1.21338
1.21322
1.21306
1.21304
1.21306
1.21325
1.21358
1.21367
1.21365
1.21348
1.21312
1.21295
1.21297
1.21311
1.21323
1.2164
1.37515
1.37057
1.36943
1.36993
1.37006
1.36875
1.36794
1.36789
1.36797
1.36891
1.36966
1.36902
1.3673
1.36657
1.36558
1.36377
1.36151
1.35821
1.35658
1.35685
1.3568
1.35416
1.35068
1.34947
1.34748
1.34437
1.34126
1.33874
1.33674
1.33405
1.33067
1.32816
1.32503
1.32181
1.31936
1.3167
1.31031
1.3031
1.30244
1.30248
1.29993
1.29674
1.29705
1.29746
1.29608
1.29178
1.28601
1.28119
1.27745
1.27231
1.26366
1.2545
1.25163
1.25295
1.2549
1.25352
1.25057
1.24811
1.24442
1.23778
1.2302
1.22801
1.22779
1.22642
1.2243
1.22247
1.21937
1.21683
1.21599
1.21503
1.21313
1.21199
1.21234
1.21352
1.21398
1.21399
1.21408
1.21439
1.21423
1.2136
1.21301
1.2125
1.2122
1.21219
1.21232
1.21236
1.21246
1.21264
1.21309
1.21334
1.21346
1.2134
1.21326
1.21305
1.21298
1.21301
1.21317
1.21343
1.21343
1.21379
1.44995
1.44635
1.44545
1.4453
1.44453
1.44332
1.44174
1.43881
1.43786
1.43797
1.43714
1.4331
1.43105
1.43116
1.43118
1.42915
1.42562
1.42456
1.42316
1.4215
1.41829
1.41484
1.41412
1.41338
1.4108
1.40752
1.4045
1.4027
1.40142
1.40026
1.39743
1.39341
1.39109
1.38898
1.38678
1.38383
1.37931
1.37413
1.36973
1.36623
1.36028
1.35149
1.34784
1.34635
1.34259
1.33765
1.33463
1.33324
1.33192
1.32873
1.32253
1.31467
1.309
1.30326
1.29387
1.28513
1.28356
1.28465
1.2839
1.27903
1.27282
1.26578
1.25571
1.24901
1.24884
1.24975
1.24803
1.24123
1.23639
1.23424
1.23164
1.22722
1.22503
1.22357
1.2215
1.21905
1.21644
1.21477
1.21343
1.21223
1.21164
1.21157
1.21165
1.21183
1.21217
1.21274
1.21325
1.21316
1.21297
1.21268
1.21251
1.21244
1.21252
1.21261
1.21294
1.2133
1.21348
1.21353
1.21346
1.2133
1.52609
1.52504
1.52336
1.52166
1.52006
1.51738
1.51441
1.5127
1.51268
1.51333
1.51311
1.51142
1.50773
1.50512
1.50495
1.5046
1.50323
1.49906
1.49642
1.49584
1.49473
1.49204
1.48886
1.48628
1.48274
1.47888
1.47679
1.4751
1.4728
1.46976
1.46645
1.4631
1.45964
1.45514
1.45155
1.44895
1.4458
1.43967
1.43561
1.4339
1.43138
1.42629
1.41983
1.41468
1.4107
1.40631
1.40173
1.3945
1.38716
1.38259
1.37629
1.36848
1.36571
1.36274
1.35686
1.34934
1.34371
1.33784
1.32487
1.3145
1.31329
1.31035
1.30452
1.29848
1.28866
1.27935
1.27366
1.2692
1.26272
1.25525
1.25003
1.24515
1.23952
1.23413
1.22888
1.22416
1.22039
1.218
1.21676
1.21493
1.21445
1.21442
1.21487
1.21576
1.21563
1.21518
1.2145
1.21365
1.21252
1.21178
1.21185
1.21202
1.21238
1.21285
1.21333
1.2134
1.2133
1.21312
1.21296
1.21303
1.6043
1.60341
1.60194
1.60097
1.59974
1.59662
1.59272
1.59083
1.59103
1.59165
1.59131
1.58986
1.58558
1.58225
1.58104
1.58033
1.57819