/*--------------------------------*- C++ -*----------------------------------*\
  =========                 |
  \\      /  F ield         | OpenFOAM: The Open Source CFD Toolbox
   \\    /   O peration     | Website:  https://openfoam.org
    \\  /    A nd           | Version:  7
     \\/     M anipulation  |
\*---------------------------------------------------------------------------*/
FoamFile
{
    version     2.0;
    format      ascii;
    class       volScalarField;
    location    "4";
    object      p;
}
// * * * * * * * * * * * * * * * * * * * * * * * * * * * * * * * * * * * * * //

dimensions      [1 -1 -2 0 0 0 0];

internalField   nonuniform List<scalar> 
90000
(
0.277078
0.316136
0.348149
0.375415
0.404641
0.431952
0.460875
0.494986
0.532527
0.572518
0.617022
0.664593
0.711685
0.759828
0.805131
0.843152
0.87475
0.898539
0.919744
0.933043
0.943688
0.944648
0.941798
0.936104
0.927922
0.918263
0.909317
0.898468
0.888298
0.884228
0.886496
0.891469
0.89862
0.906791
0.915841
0.924599
0.92885
0.927751
0.92418
0.919924
0.915896
0.915007
0.914683
0.915183
0.916176
0.917439
0.919764
0.922646
0.926075
0.926148
0.924235
0.920958
0.919451
0.919424
0.920822
0.923632
0.92703
0.931124
0.937212
0.945147
0.951716
0.955244
0.961822
0.970877
0.973756
0.972584
0.96873
0.967643
0.970035
0.97211
0.971372
0.969974
0.970968
0.973428
0.976525
0.98153
0.990515
1.00448
1.02043
1.03865
1.05854
1.07719
1.08901
1.09597
1.1003
1.10207
1.10159
1.09977
1.09637
1.08968
1.08342
1.07709
1.06981
1.06104
1.05377
1.04717
1.04434
1.03271
1.01854
0.995071
0.241408
0.24139
0.241367
0.241344
0.241317
0.241344
0.241738
0.242922
0.245491
0.250095
0.258062
0.270511
0.289106
0.31439
0.349057
0.392384
0.442556
0.499189
0.555408
0.607484
0.65447
0.697944
0.737334
0.772354
0.801788
0.824393
0.846937
0.863701
0.88287
0.891434
0.899462
0.899357
0.90408
0.911076
0.918612
0.922736
0.922115
0.919687
0.916972
0.916821
0.916759
0.917437
0.915133
0.913475
0.913988
0.916753
0.920825
0.923933
0.926122
0.924567
0.921642
0.918329
0.917661
0.92053
0.923397
0.925828
0.928081
0.931871
0.937483
0.943405
0.947529
0.952994
0.96203
0.969269
0.969882
0.967133
0.965733
0.967668
0.97094
0.972113
0.970352
0.969563
0.971518
0.973793
0.976081
0.981115
0.99106
1.00551
1.02128
1.03978
1.05958
1.07836
1.08921
1.09609
1.10047
1.10201
1.10153
1.10006
1.0966
1.09003
1.08356
1.07726
1.06988
1.06036
1.05323
1.04684
1.04408
1.03268
1.01832
0.994896
0.24131
0.241324
0.241339
0.241357
0.241383
0.241413
0.241445
0.241477
0.241384
0.241255
0.24113
0.24102
0.240943
0.240888
0.24089
0.240776
0.241272
0.243289
0.248161
0.257988
0.272908
0.29595
0.325868
0.366075
0.413763
0.471157
0.533263
0.601038
0.671464
0.735322
0.792214
0.835209
0.867814
0.884722
0.895561
0.900907
0.901192
0.900981
0.903586
0.910664
0.91737
0.921587
0.91906
0.917225
0.921034
0.926236
0.929682
0.928781
0.924965
0.92041
0.917691
0.917493
0.9199
0.922423
0.923688
0.925235
0.927294
0.931634
0.937138
0.941217
0.945019
0.951282
0.962247
0.967288
0.966371
0.96276
0.96367
0.968552
0.972179
0.971375
0.969143
0.969758
0.971841
0.973925
0.975704
0.980718
0.991678
1.00642
1.02215
1.04112
1.06058
1.07913
1.08947
1.09635
1.1008
1.10216
1.10179
1.10067
1.09699
1.09086
1.08413
1.0779
1.0705
1.06028
1.05293
1.04659
1.04381
1.03269
1.01809
0.994645
0.240801
0.240824
0.240852
0.240878
0.240909
0.24094
0.240978
0.241007
0.241047
0.241102
0.241181
0.241267
0.241376
0.24148
0.241606
0.241721
0.241819
0.241978
0.241849
0.241717
0.241605
0.24157
0.241538
0.241598
0.241551
0.243069
0.247628
0.25915
0.27998
0.315425
0.362956
0.427385
0.498614
0.572341
0.642767
0.705329
0.761796
0.81052
0.84782
0.879011
0.888314
0.898794
0.903205
0.910127
0.924376
0.933495
0.934664
0.928669
0.921489
0.917698
0.918419
0.920384
0.92224
0.921648
0.921413
0.922923
0.925619
0.930642
0.936259
0.94014
0.944135
0.952874
0.963709
0.965868
0.962739
0.959742
0.962229
0.968771
0.972418
0.970592
0.968081
0.969689
0.972036
0.973911
0.975121
0.980544
0.992297
1.00686
1.02269
1.04213
1.0615
1.07949
1.0899
1.09695
1.10141
1.10261
1.10234
1.1014
1.0976
1.09111
1.08413
1.078
1.06989
1.06002
1.05263
1.04632
1.04345
1.03261
1.01784
0.994355
0.240525
0.240537
0.240554
0.240587
0.240633
0.240685
0.240735
0.240785
0.240839
0.240895
0.240957
0.241019
0.241087
0.241152
0.241234
0.2413
0.241398
0.241455
0.241543
0.241635
0.241745
0.241835
0.241925
0.242001
0.242062
0.242133
0.241992
0.241852
0.241776
0.241745
0.241733
0.242
0.244523
0.254455
0.274729
0.311589
0.362885
0.433802
0.516889
0.605889
0.68553
0.757943
0.818151
0.86242
0.895153
0.901178
0.909687
0.911957
0.9168
0.920519
0.92635
0.929369
0.928025
0.925226
0.92295
0.922963
0.924678
0.928226
0.932327
0.936027
0.942732
0.954428
0.965421
0.965572
0.960602
0.959168
0.963968
0.970274
0.970702
0.966694
0.966614
0.969905
0.972653
0.972558
0.974345
0.980725
0.993169
1.00723
1.02328
1.04309
1.06253
1.07969
1.09058
1.09789
1.10221
1.10322
1.10299
1.10197
1.0982
1.09174
1.08473
1.07878
1.07023
1.06012
1.0525
1.04605
1.04298
1.03239
1.01755
0.994131
0.240122
0.240133
0.240152
0.240192
0.240253
0.240331
0.240413
0.240494
0.240573
0.240652
0.240733
0.240822
0.240909
0.241005
0.241102
0.24121
0.241312
0.241419
0.24152
0.241612
0.241689
0.241742
0.241781
0.241805
0.241832
0.241834
0.241833
0.241866
0.241888
0.241933
0.241967
0.242014
0.242134
0.242161
0.242193
0.24231
0.242378
0.242833
0.247198
0.261283
0.295308
0.346286
0.426657
0.517661
0.617886
0.698499
0.776654
0.834838
0.885885
0.90717
0.918445
0.920106
0.92259
0.922973
0.923928
0.92578
0.927649
0.929016
0.931031
0.934529
0.943484
0.95752
0.966036
0.9631
0.958007
0.96099
0.968676
0.972612
0.968471
0.964732
0.966532
0.970839
0.973115
0.971514
0.973618
0.981261
0.993784
1.00744
1.02398
1.04408
1.06361
1.08023
1.09168
1.09927
1.10366
1.10464
1.1045
1.10305
1.09884
1.092
1.08523
1.07936
1.07053
1.06041
1.0525
1.04579
1.0424
1.03201
1.01719
0.99392
0.240058
0.240095
0.240128
0.240169
0.240231
0.24032
0.240424
0.240526
0.240628
0.240722
0.240814
0.240901
0.240986
0.241067
0.241151
0.241236
0.241318
0.241396
0.241473
0.241556
0.241626
0.241666
0.241674
0.241676
0.241679
0.241683
0.241684
0.24169
0.241697
0.241703
0.241706
0.241755
0.241818
0.241932
0.242084
0.242259
0.242449
0.242613
0.24269
0.242751
0.242813
0.242873
0.243116
0.247815
0.265286
0.308548
0.371652
0.472328
0.585356
0.690967
0.788487
0.84582
0.89543
0.908578
0.922242
0.925158
0.926851
0.928095
0.926446
0.932512
0.947915
0.96121
0.964368
0.958185
0.958055
0.965671
0.97347
0.972482
0.965169
0.963836
0.967661
0.971945
0.971719
0.970519
0.973369
0.982502
0.994222
1.00685
1.02432
1.04479
1.06481
1.08099
1.09234
1.09957
1.10324
1.10379
1.10341
1.10261
1.09916
1.09208
1.08586
1.07986
1.07082
1.06079
1.05261
1.0455
1.04168
1.03141
1.01669
0.993611
0.240107
0.240164
0.240215
0.240266
0.240328
0.240409
0.240514
0.240616
0.240715
0.240813
0.240907
0.240998
0.241083
0.241156
0.241227
0.241297
0.241364
0.241424
0.241494
0.24157
0.241647
0.241689
0.241706
0.241708
0.241706
0.241709
0.241712
0.241718
0.241751
0.241766
0.241778
0.241819
0.241916
0.242051
0.242214
0.242385
0.242563
0.242706
0.242802
0.24287
0.242941
0.242988
0.243023
0.243088
0.243206
0.243376
0.243476
0.245607
0.257746
0.298339
0.370252
0.484719
0.610369
0.724371
0.826034
0.87446
0.912286
0.9116
0.921282
0.936627
0.955919
0.962742
0.957937
0.95058
0.95899
0.972205
0.975813
0.969231
0.962017
0.963717
0.970724
0.972955
0.96965
0.969957
0.974635
0.983492
0.992883
1.00602
1.02521
1.04619
1.06611
1.08201
1.0933
1.10025
1.10324
1.10351
1.10317
1.10251
1.09928
1.09184
1.0864
1.08035
1.07107
1.0613
1.05282
1.04522
1.04087
1.03067
1.01603
0.993236
0.240362
0.240427
0.240486
0.240541
0.240603
0.240671
0.240752
0.240842
0.240928
0.241019
0.241103
0.241188
0.241266
0.241329
0.241385
0.241432
0.241474
0.241514
0.241546
0.241588
0.241634
0.241639
0.241632
0.241631
0.24161
0.241601
0.241568
0.241535
0.241546
0.241584
0.241611
0.241696
0.241838
0.242012
0.242188
0.242344
0.242499
0.242626
0.242709
0.242785
0.24286
0.24289
0.242909
0.242966
0.243082
0.243255
0.243458
0.243648
0.243819
0.243987
0.244132
0.247182
0.265126
0.321184
0.418205
0.553551
0.694751
0.798695
0.882288
0.928295
0.947045
0.95832
0.943392
0.945204
0.964049
0.976057
0.973565
0.962281
0.960012
0.966495
0.973165
0.972362
0.967777
0.969477
0.976439
0.98427
0.991437
1.0053
1.02637
1.04796
1.06735
1.08327
1.09441
1.10112
1.10338
1.10344
1.10315
1.10253
1.09928
1.09151
1.0868
1.08077
1.0712
1.06183
1.05306
1.0449
1.03998
1.02989
1.01532
0.992854
0.240353
0.240406
0.240469
0.240513
0.240558
0.240614
0.240678
0.240752
0.240826
0.240903
0.240986
0.241072
0.241154
0.241212
0.241252
0.241261
0.241271
0.241304
0.241319
0.241331
0.241345
0.241318
0.241296
0.241287
0.241278
0.24129
0.24125
0.241227
0.241256
0.241343
0.241431
0.241561
0.241737
0.241932
0.242111
0.242231
0.242369
0.242488
0.242539
0.242616
0.242705
0.242749
0.242801
0.242888
0.242982
0.243138
0.243388
0.243594
0.243789
0.24395
0.244109
0.244289
0.2445
0.244702
0.244805
0.255586
0.295203
0.39682
0.537353
0.684467
0.804604
0.886628
0.918025
0.950815
0.976355
0.977554
0.96936
0.955242
0.958702
0.970623
0.974534
0.969435
0.966704
0.970867
0.978553
0.982935
0.98919
1.00503
1.02766
1.04999
1.06864
1.08474
1.09526
1.10124
1.10332
1.10366
1.10333
1.10273
1.09916
1.0913
1.08708
1.08096
1.07113
1.06216
1.05325
1.0446
1.03908
1.02921
1.01473
0.992565
0.240192
0.240255
0.240314
0.240331
0.240339
0.24037
0.240406
0.240442
0.240497
0.240555
0.240609
0.240684
0.240775
0.24085
0.240897
0.240897
0.240882
0.24091
0.240909
0.240863
0.240836
0.240831
0.240852
0.240846
0.240831
0.240853
0.240847
0.240889
0.24099
0.241177
0.241381
0.241558
0.241725
0.241948
0.242123
0.242163
0.242239
0.242359
0.242422
0.242481
0.242544
0.242584
0.242602
0.242639
0.24276
0.242987
0.243264
0.243469
0.243668
0.243866
0.243963
0.244063
0.244223
0.244377
0.244515
0.244659
0.244795
0.24486
0.252349
0.296139
0.401733
0.569608
0.759861
0.910652
0.959175
0.971413
0.964545
0.951565
0.963448
0.974975
0.973678
0.965406
0.965866
0.973246
0.980288
0.980825
0.987067
1.00548
1.02933
1.05156
1.06987
1.0862
1.09682
1.10196
1.10384
1.10462
1.10415
1.10322
1.09905
1.09128
1.08727
1.08079
1.07078
1.06227
1.05337
1.04428
1.03812
1.02877
1.01437
0.992397
0.240044
0.240026
0.240061
0.240102
0.240133
0.240168
0.240192
0.240209
0.240246
0.240283
0.240316
0.240369
0.240458
0.240544
0.240582
0.24058
0.240564
0.240577
0.240614
0.240597
0.240574
0.240585
0.24064
0.240721
0.240798
0.240895
0.240982
0.24108
0.241198
0.241388
0.241633
0.241783
0.241907
0.242056
0.242211
0.242273
0.242329
0.242389
0.242385
0.242367
0.242358
0.242356
0.242353
0.242398
0.242563
0.242829
0.243091
0.243287
0.243437
0.243615
0.243797
0.243897
0.243975
0.24414
0.244331
0.244508
0.244644
0.24478
0.244933
0.24528
0.245551
0.258485
0.334712
0.497467
0.680546
0.844756
0.90651
0.95082
0.975423
0.979644
0.970874
0.961136
0.965757
0.975802
0.979629
0.978177
0.9851
1.00666
1.0309
1.05199
1.07069
1.08793
1.0991
1.10405
1.10569
1.10666
1.10573
1.10421
1.09924
1.09169
1.08749
1.08048
1.07038
1.06218
1.05343
1.04401
1.03713
1.02855
1.01423
0.99234
0.240048
0.240014
0.239989
0.240013
0.24006
0.240095
0.240124
0.240159
0.240201
0.240237
0.240266
0.240302
0.240382
0.240492
0.240518
0.240509
0.240512
0.240536
0.24054
0.240525
0.240528
0.240558
0.240615
0.240713
0.240822
0.240966
0.241097
0.241226
0.241356
0.241539
0.241762
0.241912
0.241996
0.242098
0.242182
0.242224
0.242145
0.242084
0.242089
0.242102
0.242117
0.242143
0.242183
0.24231
0.24251
0.242702
0.242919
0.243181
0.243403
0.243528
0.243668
0.243722
0.243757
0.243917
0.244164
0.244377
0.244504
0.24464
0.244856
0.245195
0.245572
0.245947
0.246179
0.250377
0.296583
0.430254
0.649355
0.867169
0.949815
0.971859
0.966286
0.956703
0.96975
0.97839
0.977003
0.975132
0.984348
1.0078
1.03019
1.05049
1.0714
1.08909
1.0997
1.10389
1.10717
1.10916
1.10792
1.1057
1.09988
1.09246
1.08769
1.08016
1.06997
1.06194
1.05342
1.04383
1.03619
1.02841
1.01444
0.992442
0.23998
0.239936
0.239916
0.239967
0.240042
0.240044
0.240059
0.240097
0.240152
0.240194
0.240197
0.240189
0.240187
0.240202
0.240206
0.240215
0.240236
0.240259
0.240271
0.240296
0.240348
0.240427
0.240529
0.240665
0.240796
0.240957
0.241123
0.241267
0.241408
0.241582
0.241757
0.241894
0.242013
0.241955
0.241898
0.241927
0.241879
0.241819
0.241785
0.241786
0.241814
0.241922
0.242072
0.242244
0.242402
0.242605
0.242855
0.243144
0.243335
0.243356
0.243435
0.243504
0.243562
0.243722
0.243928
0.244096
0.244243
0.244413
0.244681
0.245067
0.245416
0.245759
0.246038
0.246285
0.246473
0.246873
0.282164
0.418368
0.629756
0.832511
0.906136
0.954945
0.979262
0.979383
0.97277
0.971617
0.987055
1.00952
1.02784
1.04892
1.07313
1.09147
1.10155
1.10597
1.10967
1.11149
1.10993
1.10705
1.10091
1.09362
1.08806
1.08008
1.06979
1.06172
1.0534
1.04376
1.0354
1.02833
1.01484
0.992804
0.239829
0.239788
0.239787
0.239838
0.239879
0.239879
0.239856
0.239837
0.239816
0.239793
0.239787
0.239802
0.239823
0.239858
0.239953
0.240063
0.240118
0.240139
0.240164
0.240212
0.240276
0.240361
0.240468
0.240616
0.24077
0.240945
0.241128
0.241277
0.241417
0.241607
0.241701
0.241757
0.241725
0.241522
0.241482
0.241493
0.241418
0.241374
0.241384
0.241426
0.241532
0.241755
0.241965
0.242173
0.242355
0.242538
0.242809
0.243078
0.243132
0.243114
0.243171
0.243259
0.243355
0.243465
0.243595
0.243795
0.244026
0.244256
0.244574
0.244932
0.245225
0.245535
0.245806
0.24603
0.246248
0.246529
0.246896
0.24731
0.2794
0.406872
0.641509
0.873695
0.952467
0.973551
0.965383
0.96757
0.992975
1.00726
1.02458
1.04861
1.07558
1.09416
1.10319
1.10798
1.11192
1.11349
1.1119
1.10827
1.10208
1.09467
1.08835
1.08018
1.0698
1.06155
1.05341
1.04384
1.03486
1.02844
1.01573
0.993498
0.239342
0.239339
0.239369
0.239401
0.239429
0.239446
0.239433
0.239414
0.239437
0.239481
0.239522
0.239584
0.23964
0.239651
0.239672
0.239763
0.239863
0.23992
0.239983
0.240071
0.240167
0.240285
0.240413
0.240559
0.240708
0.240888
0.241089
0.241271
0.241318
0.241301
0.241204
0.241207
0.241181
0.241065
0.24104
0.241038
0.241034
0.241059
0.241124
0.241242
0.241441
0.241685
0.241851
0.242035
0.242305
0.242469
0.242686
0.242812
0.242731
0.242757
0.242905
0.242986
0.243075
0.243203
0.243371
0.243632
0.243879
0.244126
0.244456
0.244761
0.245013
0.245304
0.245547
0.245777
0.246051
0.246433
0.246887
0.247422
0.247884
0.2481
0.2824
0.428693
0.655053
0.857108
0.924278
0.963781
1.00337
1.00342
1.02084
1.05195
1.07907
1.0977
1.10462
1.10885
1.11289
1.11471
1.11316
1.10903
1.10305
1.09556
1.08865
1.08063
1.07026
1.06163
1.05358
1.04405
1.0346
1.02875
1.01704
0.994528
0.239162
0.239147
0.239119
0.239146
0.239161
0.239183
0.239246
0.239279
0.239267
0.239251
0.239296
0.239358
0.23942
0.239462
0.239494
0.239557
0.23964
0.239728
0.239827
0.239966
0.240101
0.240242
0.240379
0.24049
0.24058
0.2407
0.240827
0.240849
0.240762
0.240752
0.240749
0.240655
0.240607
0.240546
0.240506
0.240517
0.240581
0.240692
0.240804
0.240994
0.241302
0.241606
0.241792
0.241993
0.242194
0.242247
0.242385
0.242425
0.242331
0.242381
0.242531
0.242671
0.242831
0.243024
0.243292
0.243556
0.243749
0.24403
0.244304
0.244481
0.244687
0.244991
0.24528
0.24555
0.245909
0.246392
0.246897
0.247388
0.247772
0.248081
0.24808
0.248442
0.290328
0.449322
0.716087
0.912185
0.989872
0.996947
1.02475
1.05568
1.08288
1.09999
1.10486
1.10947
1.11331
1.11532
1.11324
1.10886
1.10324
1.09582
1.08883
1.08125
1.0709
1.06178
1.05384
1.04436
1.03451
1.02902
1.01817
0.995644
0.238875
0.238871
0.238915
0.238968
0.238989
0.238994
0.238974
0.239
0.239025
0.239062
0.239131
0.239141
0.239158
0.239264
0.239324
0.239336
0.239392
0.239487
0.239599
0.239765
0.239939
0.240104
0.240263
0.24033
0.240327
0.240301
0.240323
0.240286
0.240156
0.240127
0.240151
0.240121
0.24001
0.239965
0.239973
0.240047
0.240233
0.240489
0.240663
0.240874
0.241156
0.241357
0.241691
0.241958
0.241938
0.241872
0.241926
0.241912
0.241912
0.241989
0.242126
0.242335
0.242654
0.243002
0.243273
0.243426
0.243609
0.243856
0.244
0.244107
0.244306
0.244649
0.245007
0.245359
0.245817
0.246362
0.246891
0.247274
0.247706
0.247728
0.247698
0.247754
0.24793
0.249603
0.311978
0.511601
0.779714
0.919659
1.0178
1.06036
1.08722
1.0995
1.10404
1.11028
1.11414
1.11563
1.11271
1.10811
1.10258
1.09529
1.08864
1.082
1.07188
1.06228
1.05419
1.04472
1.03445
1.02896
1.01894
0.996673
0.238587
0.2386
0.23865
0.238685
0.238699
0.23869
0.238702
0.238722
0.238725
0.238718
0.238731
0.23874
0.238726
0.238792
0.238883
0.238886
0.238894
0.238979
0.239091
0.239233
0.239391
0.239586
0.239749
0.239801
0.239764
0.239756
0.239712
0.23952
0.239428
0.23943
0.239449
0.23944
0.239442
0.239454
0.239503
0.239632
0.239848
0.240112
0.240383
0.240708
0.241131
0.241341
0.241437
0.241465
0.241429
0.241405
0.241338
0.241319
0.24141
0.24158
0.241806
0.242139
0.242629
0.242962
0.243107
0.243249
0.243408
0.243477
0.243568
0.243689
0.243929
0.244326
0.244756
0.245216
0.245727
0.246307
0.246768
0.247207
0.247222
0.24722
0.247319
0.247512
0.247862
0.248507
0.248897
0.256957
0.346608
0.616198
0.925779
1.03619
1.08935
1.09686
1.10588
1.11335
1.11646
1.11714
1.11342
1.1082
1.10183
1.09434
1.08865
1.0829
1.0734
1.06297
1.0545
1.04509
1.03426
1.02845
1.01928
0.997574
0.238169
0.238171
0.238164
0.238187
0.238218
0.238224
0.238233
0.238243
0.23823
0.23822
0.238223
0.238207
0.238153
0.238163
0.238212
0.238219
0.238216
0.238221
0.238265
0.238347
0.238459
0.238623
0.238798
0.238908
0.239003
0.239056
0.238991
0.238785
0.238701
0.238707
0.238749
0.23882
0.238941
0.239066
0.23919
0.23942
0.239702
0.23996
0.240167
0.240414
0.240764
0.240913
0.240925
0.240858
0.240836
0.240805
0.240799
0.240875
0.241033
0.241279
0.241593
0.242092
0.242643
0.242762
0.242832
0.243041
0.243017
0.242983
0.243085
0.243291
0.243612
0.244054
0.244554
0.245083
0.245652
0.246144
0.246652
0.246846
0.246772
0.246736
0.246927
0.247319
0.247901
0.248515
0.248992
0.249357
0.249424
0.27924
0.466504
0.806857
1.05674
1.09058
1.1153
1.12167
1.12072
1.11906
1.11438
1.10833
1.10098
1.09358
1.08904
1.08387
1.07466
1.06343
1.05466
1.0454
1.03399
1.02735
1.01932
0.998251
0.237577
0.237565
0.237585
0.237615
0.237625
0.237614
0.237593
0.237596
0.237612
0.237622
0.237627
0.237593
0.237579
0.237596
0.237572
0.237493
0.237503
0.237536
0.237478
0.237397
0.237429
0.237564
0.237731
0.237905
0.238074
0.238176
0.238122
0.238076
0.238074
0.238118
0.238251
0.238429
0.238647
0.238815
0.238964
0.239198
0.239439
0.239722
0.240156
0.240268
0.240225
0.240108
0.240115
0.240107
0.240048
0.240087
0.240232
0.240447
0.240755
0.241128
0.241526
0.24211
0.242477
0.242436
0.242466
0.242504
0.242425
0.24244
0.242637
0.242972
0.24337
0.243841
0.244364
0.244939
0.24549
0.245906
0.246275
0.246405
0.246315
0.246347
0.246616
0.247169
0.247927
0.248436
0.249069
0.249106
0.249153
0.249379
0.252463
0.380988
0.779447
1.03201
1.12227
1.12864
1.12522
1.12232
1.11751
1.11027
1.10119
1.09364
1.08941
1.0841
1.075
1.0636
1.05468
1.04565
1.03348
1.02546
1.01859
0.998676
0.237049
0.236953
0.236935
0.236982
0.236997
0.236961
0.236952
0.236962
0.236984
0.236994
0.237006
0.237013
0.236996
0.237004
0.237011
0.236969
0.236955
0.237011
0.237006
0.236942
0.236897
0.23688
0.236934
0.237051
0.23721
0.237382
0.237529
0.237611
0.237647
0.237686
0.237802
0.238054
0.238333
0.238486
0.23867
0.238923
0.239192
0.239414
0.239483
0.239495
0.239326
0.23914
0.239082
0.239081
0.239221
0.239498
0.239815
0.240178
0.240587
0.240986
0.241477
0.241956
0.242077
0.242002
0.241943
0.241895
0.241808
0.241909
0.242267
0.242724
0.243154
0.243623
0.244166
0.244794
0.245215
0.245492
0.245754
0.245807
0.245847
0.246011
0.246446
0.247174
0.247898
0.248357
0.248779
0.248765
0.248895
0.249382
0.250095
0.250748
0.325413
0.696681
1.07785
1.11531
1.12975
1.1267
1.12132
1.11273
1.10215
1.0946
1.08999
1.08377
1.07443
1.06332
1.05456
1.04568
1.03325
1.02386
1.01807
0.998927
0.236085
0.236124
0.236184
0.236272
0.236384
0.236412
0.236418
0.236453
0.23649
0.236508
0.236512
0.236504
0.236489
0.236468
0.236455
0.236441
0.236431
0.236478
0.236555
0.23663
0.23676
0.236816
0.236782
0.236706
0.236729
0.236958
0.237278
0.237374
0.237389
0.237392
0.237424
0.237551
0.237823
0.238172
0.23834
0.238468
0.238626
0.238655
0.238627
0.23858
0.238432
0.238196
0.238132
0.238236
0.238507
0.238912
0.23941
0.239896
0.24035
0.240774
0.24126
0.241416
0.241359
0.241275
0.241285
0.241276
0.241262
0.241446
0.241928
0.242463
0.242954
0.243416
0.24397
0.244475
0.24482
0.245073
0.2451
0.245169
0.245378
0.245772
0.246432
0.247255
0.247787
0.24845
0.248441
0.248458
0.248694
0.249312
0.250178
0.250973
0.251452
0.309444
0.690253
1.00339
1.12876
1.1291
1.1245
1.11561
1.10395
1.09605
1.0913
1.08379
1.0738
1.06298
1.0546
1.04578
1.03343
1.02289
1.01766
0.99938
0.235386
0.235361
0.235397
0.235448
0.235489
0.235557
0.235635
0.235716
0.235796
0.235858
0.235919
0.235987
0.236034
0.236063
0.236125
0.236263
0.236299
0.236267
0.236254
0.236297
0.236433
0.236463
0.236563
0.236743
0.236721
0.236754
0.237047
0.23722
0.237278
0.237291
0.237295
0.237343
0.237473
0.237657
0.237873
0.237881
0.237816
0.237857
0.237856
0.237727
0.23741
0.237274
0.237338
0.237535
0.237891
0.238384
0.238866
0.239349
0.239878
0.240402
0.240528
0.240511
0.240438
0.240397
0.24052
0.240701
0.240799
0.241064
0.241627
0.24223
0.24274
0.24325
0.243648
0.244038
0.244412
0.244511
0.244492
0.244605
0.244962
0.245592
0.246482
0.247197
0.247914
0.247933
0.247931
0.248123
0.24861
0.249425
0.250217
0.251016
0.251396
0.251809
0.294967
0.645675
1.06695
1.1193
1.12648
1.11916
1.10649
1.09884
1.09337
1.08386
1.07345
1.06388
1.05533
1.04624
1.03415
1.02277
1.01731
1.00045
0.233974
0.233994
0.234039
0.234111
0.234203
0.234316
0.234461
0.234595
0.234634
0.234629
0.234666
0.234875
0.234975
0.234912
0.23492
0.235068
0.23532
0.235537
0.235716
0.235857
0.235949
0.236081
0.236266
0.236424
0.236481
0.236444
0.236386
0.23654
0.236917
0.237074
0.237075
0.237098
0.237196
0.237287
0.237343
0.237194
0.236921
0.236994
0.237066
0.236916
0.236702
0.23671
0.236818
0.237069
0.237495
0.237957
0.238247
0.238619
0.239157
0.239264
0.239338
0.23945
0.239498
0.23953
0.23973
0.24014
0.240529
0.240869
0.241383
0.241913
0.242436
0.242853
0.243128
0.243393
0.243745
0.243824
0.24391
0.244171
0.244717
0.245588
0.246411
0.247203
0.247466
0.24738
0.247468
0.247879
0.248758
0.249618
0.250293
0.25075
0.25124
0.251938
0.252516
0.291319
0.649504
0.990162
1.11595
1.12154
1.11128
1.10446
1.0966
1.08388
1.07382
1.06563
1.05642
1.04706
1.03585
1.02369
1.01721
1.00207
0.230167
0.230292
0.230437
0.230613
0.230798
0.230964
0.231249
0.231445
0.231596
0.231906
0.232076
0.232067
0.232171
0.232453
0.232794
0.23292
0.232907
0.232921
0.233117
0.233489
0.233635
0.233649
0.233727
0.233938
0.234213
0.234293
0.234368
0.23458
0.23493
0.23539
0.235669
0.235684
0.235676
0.235808
0.235956
0.235883
0.23587
0.23605
0.235956
0.235939
0.23617
0.236529
0.23681
0.237185
0.23771
0.237932
0.23799
0.238128
0.23834
0.238304
0.238273
0.238394
0.238605
0.238807
0.239169
0.239722
0.240312
0.240777
0.241193
0.241589
0.24192
0.2422
0.242388
0.24255
0.242791
0.243065
0.243378
0.243877
0.244707
0.245634
0.246332
0.246676
0.246752
0.246858
0.247166
0.247829
0.248925
0.24973
0.250179
0.250507
0.251105
0.251992
0.252976
0.253532
0.286282
0.615465
1.03033
1.11997
1.11324
1.10984
1.09855
1.08386
1.07657
1.06791
1.05741
1.04823
1.03873
1.0258
1.01765
1.00368
0.224175
0.224354
0.224539
0.224734
0.22495
0.225181
0.225418
0.225666
0.225928
0.226168
0.2264
0.226662
0.226905
0.227181
0.227511
0.227684
0.227887
0.228247
0.228646
0.228787
0.228943
0.229266
0.229519
0.229659
0.22989
0.230242
0.230596
0.230997
0.231404
0.231871
0.232341
0.232737
0.23315
0.233673
0.233876
0.234019
0.234366
0.234616
0.234676
0.234952
0.235547
0.236109
0.236591
0.237197
0.237376
0.23735
0.2373
0.237281
0.237277
0.23714
0.237158
0.237366
0.237738
0.238214
0.238816
0.239434
0.240028
0.240498
0.2409
0.241039
0.241015
0.241148
0.241397
0.241608
0.241904
0.24235
0.242936
0.243811
0.244727
0.245611
0.245873
0.24584
0.245942
0.246338
0.247039
0.248219
0.249114
0.249902
0.250101
0.250388
0.251024
0.252117
0.2531
0.25372
0.254092
0.282834
0.598478
1.01382
1.10132
1.11312
1.10041
1.08633
1.08106
1.07037
1.05807
1.04979
1.04171
1.02796
1.01843
1.00505
0.219302
0.219418
0.21954
0.219669
0.219809
0.219962
0.220126
0.2203
0.220485
0.220681
0.220898
0.221127
0.22134
0.22156
0.221817
0.222079
0.222344
0.222643
0.222946
0.223286
0.223669
0.224009
0.224303
0.224602
0.224963
0.225429
0.226003
0.22668
0.22728
0.227754
0.228262
0.228869
0.229508
0.230321
0.230987
0.231358
0.231758
0.232324
0.23302
0.233708
0.234371
0.234967
0.235636
0.23604
0.236102
0.235993
0.23583
0.235599
0.235519
0.235601
0.235864
0.236308
0.236887
0.237578
0.238308
0.238874
0.239301
0.239824
0.239931
0.239685
0.239575
0.239718
0.240124
0.240614
0.241148
0.24181
0.242737
0.243742
0.244569
0.245083
0.245111
0.245123
0.245369
0.246067
0.247416
0.248632
0.249243
0.249637
0.2499
0.250364
0.251442
0.252501
0.253441
0.253615
0.254011
0.254563
0.280522
0.582855
0.973113
1.11131
1.09518
1.09044
1.08502
1.07046
1.05773
1.05131
1.04354
1.02906
1.01956
1.00637
0.217123
0.217198
0.217275
0.217365
0.217465
0.21758
0.217691
0.2178
0.217924
0.218056
0.218193
0.218336
0.21849
0.218657
0.218836
0.219029
0.219238
0.219461
0.21972
0.220033
0.220363
0.220678
0.220975
0.221269
0.22161
0.221992
0.22238
0.22281
0.223259
0.223665
0.224061
0.224579
0.225185
0.22572
0.226247
0.226792
0.227321
0.227926
0.228667
0.22931
0.229976
0.230757
0.231545
0.232119
0.232493
0.232862
0.232955
0.232955
0.233137
0.233615
0.234273
0.234926
0.235599
0.23631
0.236968
0.23745
0.237804
0.238045
0.238133
0.238017
0.238072
0.238381
0.239047
0.239834
0.240667
0.24158
0.242771
0.243579
0.244098
0.244194
0.244278
0.244538
0.245167
0.246452
0.248012
0.24884
0.249444
0.249477
0.249759
0.250838
0.252038
0.253124
0.253232
0.253466
0.253944
0.254761
0.255434
0.274985
0.568291
0.992551
1.07247
1.09676
1.08943
1.06887
1.05858
1.05331
1.04412
1.02949
1.02103
1.00785
0.216775
0.216845
0.216908
0.216981
0.217073
0.217191
0.217302
0.2174
0.217504
0.217618
0.217741
0.217865
0.217992
0.218129
0.218279
0.218441
0.218612
0.218792
0.219006
0.219263
0.21954
0.219808
0.220045
0.220258
0.220491
0.220744
0.221029
0.221345
0.221626
0.221858
0.222102
0.222511
0.223038
0.223477
0.223855
0.224261
0.224665
0.225158
0.225873
0.226415
0.227
0.22772
0.228369
0.228974
0.229408
0.229799
0.230243
0.23065
0.231202
0.231973
0.232797
0.233581
0.234406
0.235189
0.235745
0.236251
0.236454
0.236448
0.236591
0.236885
0.237233
0.237798
0.238581
0.239517
0.240603
0.241915
0.242942
0.24329
0.24346
0.243571
0.243835
0.244364
0.245563
0.247528
0.248557
0.249261
0.249231
0.249394
0.250297
0.251626
0.252887
0.253149
0.253252
0.253574
0.254306
0.255039
0.255729
0.25636
0.276624
0.539626
0.930464
1.09542
1.0877
1.06717
1.0638
1.05568
1.04325
1.03013
1.02322
1.00945
0.217398
0.21744
0.217485
0.217537
0.21763
0.217802
0.218004
0.218176
0.218335
0.218478
0.218633
0.218783
0.218905
0.219032
0.219186
0.219341
0.219491
0.219637
0.219807
0.220001
0.220211
0.220453
0.220648
0.220759
0.220864
0.221008
0.221214
0.221478
0.221744
0.221929
0.222092
0.222347
0.222724
0.223083
0.223449
0.223864
0.224179
0.224591
0.225254
0.225582
0.225846
0.22622
0.226608
0.227165
0.227614
0.228024
0.228589
0.229424
0.230493
0.231531
0.232442
0.233321
0.234145
0.234613
0.234791
0.235194
0.235447
0.235607
0.235883
0.236392
0.237006
0.237727
0.238602
0.239922
0.241351
0.242389
0.242898
0.243007
0.243182
0.243417
0.243875
0.245331
0.247358
0.248729
0.249086
0.249055
0.24928
0.250434
0.251995
0.253371
0.253782
0.253825
0.254099
0.254748
0.255593
0.255808
0.256138
0.257143
0.258116
0.271246
0.514373
0.936367
1.06031
1.06582
1.07126
1.059
1.04345
1.03365
1.02722
1.01177
0.21925
0.219351
0.219509
0.219622
0.219701
0.219849
0.220038
0.2202
0.220341
0.220467
0.220602
0.220791
0.220907
0.220948
0.221
0.221056
0.22114
0.221258
0.221385
0.221531
0.221731
0.221832
0.221913
0.222019
0.222025
0.221994
0.222025
0.222156
0.222357
0.222654
0.222875
0.223125
0.223427
0.223765
0.224287
0.224621
0.224788
0.225199
0.225583
0.225615
0.225717
0.225872
0.22608
0.226428
0.226816
0.227325
0.22799
0.228946
0.230468
0.232178
0.233212
0.23381
0.234298
0.234344
0.234313
0.234553
0.235028
0.235498
0.236125
0.237044
0.238301
0.239781
0.241276
0.242361
0.243253
0.243096
0.242944
0.243153
0.243705
0.244875
0.246921
0.248683
0.249892
0.249649
0.249647
0.250166
0.25172
0.253375
0.254724
0.255166
0.255316
0.255661
0.256319
0.25701
0.257083
0.257531
0.258475
0.259437
0.260396
0.261124
0.271886
0.471454
0.884365
1.04191
1.07925
1.06136
1.0472
1.04285
1.03153
1.01449
0.222743
0.222844
0.222964
0.223112
0.223294
0.223358
0.223415
0.223545
0.22359
0.223592
0.223644
0.223758
0.223831
0.223814
0.223695
0.22357
0.223565
0.223657
0.223791
0.223886
0.223968
0.224026
0.22404
0.224081
0.22412
0.224154
0.224283
0.224513
0.224758
0.224909
0.225013
0.225102
0.225064
0.224945
0.225032
0.225483
0.225674
0.22569
0.225753
0.225842
0.225974
0.226196
0.226556
0.226912
0.227319
0.227992
0.228992
0.230683
0.23234
0.233538
0.233687
0.233932
0.234628
0.235123
0.235672
0.236527
0.237935
0.239743
0.241501
0.242997
0.244203
0.245038
0.245338
0.24505
0.2447
0.244836
0.245425
0.246659
0.248552
0.25031
0.251929
0.252187
0.251996
0.252118
0.252825
0.254292
0.25575
0.256887
0.257507
0.25771
0.258054
0.258528
0.259156
0.259397
0.259714
0.260289
0.261188
0.261745
0.262365
0.263194
0.26421
0.27051
0.447509
0.852877
1.05546
1.05235
1.05115
1.04719
1.03285
1.01724
0.228838
0.228864
0.228895
0.228901
0.228938
0.229016
0.229057
0.229075
0.229143
0.229229
0.229233
0.22925
0.229277
0.229295
0.229348
0.229388
0.229385
0.229496
0.229482
0.22955
0.229845
0.229963
0.230303
0.230563
0.230481
0.230515
0.23088
0.231411
0.231655
0.231824
0.232149
0.232584
0.233248
0.233965
0.23418
0.234465
0.235009
0.235563
0.235684
0.235689
0.235836
0.236191
0.236713
0.237046
0.237459
0.2382
0.238591
0.238472
0.237988
0.237294
0.237247
0.237756
0.239016
0.240945
0.243043
0.244963
0.246641
0.247953
0.248613
0.248892
0.249057
0.249007
0.248679
0.248866
0.249582