/*--------------------------------*- C++ -*----------------------------------*\
  =========                 |
  \\      /  F ield         | OpenFOAM: The Open Source CFD Toolbox
   \\    /   O peration     | Website:  https://openfoam.org
    \\  /    A nd           | Version:  7
     \\/     M anipulation  |
\*---------------------------------------------------------------------------*/
FoamFile
{
    version     2.0;
    format      ascii;
    class       volScalarField;
    location    "0.2199";
    object      rho;
}
// * * * * * * * * * * * * * * * * * * * * * * * * * * * * * * * * * * * * * //

dimensions      [1 -3 0 0 0 0 0];

internalField   nonuniform List<scalar> 
324000
(
0.445424
0.618088
0.85079
1.03608
1.13314
1.10457
1.07481
1.05843
1.0473
1.05248
1.05698
1.05852
1.06152
1.06491
1.07229
1.07145
1.06608
1.05865
1.0498
1.03748
1.0341
1.03631
1.04016
1.04341
1.04305
1.0415
1.04507
1.06381
1.08518
1.09648
1.09982
1.09939
1.10202
1.1243
1.18435
1.26171
1.31648
1.34098
1.35154
1.35928
1.36868
1.38097
1.39307
1.39922
1.40015
1.4001
1.40003
1.40001
1.40001
1.40001
1.40001
1.40001
1.40001
1.40001
1.40001
1.40001
1.40001
1.40001
1.40001
1.40001
1.40001
1.40001
1.40001
1.40001
1.40001
1.40001
1.40001
1.40001
1.40001
1.40001
1.40001
1.40001
1.40001
1.40001
1.40001
1.40001
1.40001
1.40001
1.40001
1.40001
0.326848
0.329527
0.394202
0.573802
0.850484
1.00762
1.08022
1.06398
1.04481
1.04748
1.04554
1.03352
1.02997
1.03443
1.03918
1.04213
1.04113
1.03351
1.02214
1.01178
1.00762
1.00639
1.00425
1.00058
0.999229
1.00036
1.00902
1.03397
1.06461
1.08526
1.09849
1.10289
1.10458
1.1228
1.17987
1.25721
1.31324
1.33784
1.34817
1.3559
1.36567
1.37869
1.39182
1.39883
1.40008
1.40007
1.40003
1.40001
1.40001
1.40001
1.40001
1.40001
1.40001
1.40001
1.40001
1.40001
1.40001
1.40001
1.40001
1.40001
1.40001
1.40001
1.40001
1.40001
1.40001
1.40001
1.40001
1.40001
1.40001
1.40001
1.40001
1.40001
1.40001
1.40001
1.40001
1.40001
1.40001
1.40001
1.40001
1.40001
0.3309
0.332342
0.333311
0.333701
0.387771
0.572327
0.825809
0.983549
1.06071
1.05611
1.03886
1.0237
1.02175
1.02514
1.03066
1.03533
1.03192
1.02194
1.008
0.992341
0.983765
0.978648
0.976547
0.977718
0.984387
0.992255
1.00654
1.03436
1.0643
1.0834
1.10456
1.11476
1.11502
1.13012
1.18848
1.26196
1.31187
1.33396
1.34393
1.35184
1.36227
1.37634
1.39065
1.3985
1.40001
1.40005
1.40002
1.40001
1.40001
1.40001
1.40001
1.40001
1.40001
1.40001
1.40001
1.40001
1.40001
1.40001
1.40001
1.40001
1.40001
1.40001
1.40001
1.40001
1.40001
1.40001
1.40001
1.40001
1.40001
1.40001
1.40001
1.40001
1.40001
1.40001
1.40001
1.40001
1.40001
1.40001
1.40001
1.40001
0.333461
0.334141
0.33466
0.334726
0.334339
0.332964
0.376993
0.565532
0.828804
0.977462
1.02859
1.02891
1.02862
1.03445
1.03648
1.0351
1.02548
1.00912
0.989605
0.973978
0.969188
0.970424
0.975162
0.979977
0.987208
0.995322
1.0093
1.0344
1.06283
1.11227
1.15119
1.16425
1.16426
1.16786
1.19846
1.25715
1.30651
1.32983
1.339
1.34706
1.35845
1.3739
1.38959
1.39823
1.39997
1.40003
1.40002
1.40001
1.40001
1.40001
1.40001
1.40001
1.40001
1.40001
1.40001
1.40001
1.40001
1.40001
1.40001
1.40001
1.40001
1.40001
1.40001
1.40001
1.40001
1.40001
1.40001
1.40001
1.40001
1.40001
1.40001
1.40001
1.40001
1.40001
1.40001
1.40001
1.40001
1.40001
1.40001
1.40001
0.334832
0.334799
0.334516
0.333842
0.332588
0.33132
0.330655
0.329807
0.379856
0.576639
0.818279
0.973478
1.04135
1.05302
1.0435
1.03185
1.02123
1.00781
0.988984
0.977629
0.973205
0.970663
0.973883
0.977831
0.983529
0.9996
1.0302
1.06119
1.09928
1.14843
1.18455
1.19909
1.20374
1.21277
1.23939
1.28197
1.31315
1.32654
1.33388
1.34205
1.35447
1.37154
1.38869
1.39804
1.39993
1.40002
1.40002
1.40001
1.40001
1.40001
1.40001
1.40001
1.40001
1.40001
1.40001
1.40001
1.40001
1.40001
1.40001
1.40001
1.40001
1.40001
1.40001
1.40001
1.40001
1.40001
1.40001
1.40001
1.40001
1.40001
1.40001
1.40001
1.40001
1.40001
1.40001
1.40001
1.40001
1.40001
1.40001
1.40001
0.334603
0.333944
0.332942
0.33203
0.331084
0.330386
0.329913
0.32983
0.329875
0.329932
0.389411
0.583847
0.827298
0.987597
1.02942
1.03342
1.02331
1.00236
0.985305
0.977638
0.9734
0.976889
0.98567
0.997432
1.01328
1.03327
1.05717
1.08789
1.13343
1.17821
1.20793
1.2226
1.23041
1.24194
1.26628
1.29647
1.31403
1.32217
1.3286
1.33705
1.35059
1.3694
1.38801
1.39792
1.39992
1.40001
1.40001
1.40001
1.40001
1.40001
1.40001
1.40001
1.40001
1.40001
1.40001
1.40001
1.40001
1.40001
1.40001
1.40001
1.40001
1.40001
1.40001
1.40001
1.40001
1.40001
1.40001
1.40001
1.40001
1.40001
1.40001
1.40001
1.40001
1.40001
1.40001
1.40001
1.40001
1.40001
1.40001
1.40001
0.333173
0.332215
0.331415
0.330781
0.330196
0.329748
0.329873
0.330353
0.330564
0.330622
0.33058
0.329856
0.400866
0.611273
0.844923
0.979511
0.992867
0.992688
0.981632
0.987345
0.986025
0.988273
0.994034
1.0116
1.04038
1.07015
1.09778
1.12988
1.168
1.19781
1.21848
1.23162
1.2424
1.25797
1.28002
1.30052
1.31153
1.31714
1.3228
1.33196
1.34717
1.36766
1.38728
1.39778
1.3999
1.40001
1.40001
1.40001
1.40001
1.40001
1.40001
1.40001
1.40001
1.40001
1.40001
1.40001
1.40001
1.40001
1.40001
1.40001
1.40001
1.40001
1.40001
1.40001
1.40001
1.40001
1.40001
1.40001
1.40001
1.40001
1.40001
1.40001
1.40001
1.40001
1.40001
1.40001
1.40001
1.40001
1.40001
1.40001
0.331705
0.331011
0.330334
0.329828
0.329771
0.329978
0.330533
0.330899
0.331075
0.330878
0.330111
0.326712
0.316822
0.317318
0.419142
0.673733
0.870414
0.962047
0.974054
1.00329
1.0001
1.00997
1.02402
1.04759
1.07188
1.08965
1.11175
1.1433
1.17216
1.19211
1.21205
1.22855
1.24243
1.25932
1.28121
1.29885
1.30575
1.31011
1.31623
1.32691
1.34391
1.36621
1.38725
1.39789
1.39991
1.40001
1.40001
1.40001
1.40001
1.40001
1.40001
1.40001
1.40001
1.40001
1.40001
1.40001
1.40001
1.40001
1.40001
1.40001
1.40001
1.40001
1.40001
1.40001
1.40001
1.40001
1.40001
1.40001
1.40001
1.40001
1.40001
1.40001
1.40001
1.40001
1.40001
1.40001
1.40001
1.40001
1.40001
1.40001
0.330551
0.329921
0.329245
0.329131
0.329422
0.330157
0.330895
0.331138
0.331153
0.329868
0.324664
0.317358
0.310379
0.306245
0.306108
0.327563
0.475926
0.720044
0.904289
0.974303
0.995741
1.03525
1.06825
1.10094
1.10978
1.11503
1.1263
1.15051
1.16683
1.18079
1.2005
1.22137
1.23883
1.25554
1.2747
1.29047
1.29959
1.30417
1.31014
1.3222
1.34074
1.36417
1.38684
1.39797
1.39992
1.40001
1.40001
1.40001
1.40001
1.40001
1.40001
1.40001
1.40001
1.40001
1.40001
1.40001
1.40001
1.40001
1.40001
1.40001
1.40001
1.40001
1.40001
1.40001
1.40001
1.40001
1.40001
1.40001
1.40001
1.40001
1.40001
1.40001
1.40001
1.40001
1.40001
1.40001
1.40001
1.40001
1.40001
1.40001
0.329477
0.329141
0.328853
0.328693
0.328868
0.329195
0.329793
0.329279
0.326291
0.320832
0.314219
0.308303
0.306485
0.307265
0.308868
0.312053
0.316638
0.359942
0.52476
0.73392
0.911741
1.0061
1.0494
1.09166
1.10705
1.12131
1.14084
1.15743
1.16031
1.1676
1.18876
1.21266
1.234
1.25215
1.26637
1.27819
1.28852
1.29675
1.305
1.31775
1.33791
1.36413
1.3875
1.39818
1.39993
1.40001
1.40001
1.40001
1.40001
1.40001
1.40001
1.40001
1.40001
1.40001
1.40001
1.40001
1.40001
1.40001
1.40001
1.40001
1.40001
1.40001
1.40001
1.40001
1.40001
1.40001
1.40001
1.40001
1.40001
1.40001
1.40001
1.40001
1.40001
1.40001
1.40001
1.40001
1.40001
1.40001
1.40001
1.40001
0.329109
0.329115
0.329076
0.32877
0.328423
0.327579
0.325515
0.322043
0.316355
0.310571
0.307081
0.305379
0.305616
0.307912
0.31075
0.315839
0.325902
0.339693
0.350626
0.391935
0.522878
0.700897
0.871083
0.998982
1.08106
1.11424
1.1452
1.15151
1.14564
1.15692
1.17899
1.20404
1.22755
1.24613
1.25936
1.26726
1.27553
1.28576
1.29817
1.31343
1.33408
1.36273
1.38793
1.39844
1.39995
1.4
1.40001
1.40001
1.40001
1.40001
1.40001
1.40001
1.40001
1.40001
1.40001
1.40001
1.40001
1.40001
1.40001
1.40001
1.40001
1.40001
1.40001
1.40001
1.40001
1.40001
1.40001
1.40001
1.40001
1.40001
1.40001
1.40001
1.40001
1.40001
1.40001
1.40001
1.40001
1.40001
1.40001
1.40001
0.329246
0.329423
0.329618
0.329188
0.327947
0.325
0.319573
0.313651
0.308281
0.304891
0.305021
0.305183
0.305266
0.308298
0.317871
0.332121
0.345512
0.3588
0.374988
0.390933
0.40395
0.423884
0.493827
0.62397
0.813823
0.983149
1.08801
1.11468
1.13181
1.16868
1.19377
1.20334
1.21468
1.22982
1.24596
1.26037
1.26928
1.27632
1.28895
1.30761
1.33332
1.36423
1.38911
1.39875
1.39997
1.4
1.40001
1.40001
1.40001
1.40001
1.40001
1.40001
1.40001
1.40001
1.40001
1.40001
1.40001
1.40001
1.40001
1.40001
1.40001
1.40001
1.40001
1.40001
1.40001
1.40001
1.40001
1.40001
1.40001
1.40001
1.40001
1.40001
1.40001
1.40001
1.40001
1.40001
1.40001
1.40001
1.40001
1.40001
0.330192
0.330096
0.329737
0.32858
0.32417
0.3175
0.310547
0.305773
0.305006
0.304457
0.304758
0.308419
0.315751
0.324876
0.33758
0.352416
0.366976
0.379655
0.392281
0.406098
0.421175
0.437144
0.452705
0.467795
0.509375
0.616198
0.769113
0.937058
1.07735
1.14727
1.1753
1.18872
1.19531
1.20721
1.224
1.24109
1.25561
1.26938
1.28303
1.30081
1.32996
1.36502
1.39061
1.3991
1.39998
1.4
1.40001
1.40001
1.40001
1.40001
1.40001
1.40001
1.40001
1.40001
1.40001
1.40001
1.40001
1.40001
1.40001
1.40001
1.40001
1.40001
1.40001
1.40001
1.40001
1.40001
1.40001
1.40001
1.40001
1.40001
1.40001
1.40001
1.40001
1.40001
1.40001
1.40001
1.40001
1.40001
1.40001
1.40001
0.329044
0.326812
0.322384
0.316495
0.310831
0.306897
0.304559
0.304258
0.304797
0.308066
0.312828
0.320544
0.333125
0.346498
0.356723
0.365946
0.377384
0.391478
0.403883
0.416566
0.432128
0.449277
0.467347
0.484701
0.50388
0.527289
0.558695
0.630806
0.775508
0.944402
1.06983
1.14004
1.17501
1.19458
1.20714
1.22011
1.23702
1.25537
1.27341
1.29782
1.33153
1.36773
1.39237
1.3994
1.39999
1.4
1.40001
1.40001
1.40001
1.40001
1.40001
1.40001
1.40001
1.40001
1.40001
1.40001
1.40001
1.40001
1.40001
1.40001
1.40001
1.40001
1.40001
1.40001
1.40001
1.40001
1.40001
1.40001
1.40001
1.40001
1.40001
1.40001
1.40001
1.40001
1.40001
1.40001
1.40001
1.40001
1.40001
1.40001
0.32159
0.316822
0.312313
0.308641
0.306499
0.305666
0.306424
0.309229
0.312205
0.319012
0.329777
0.337835
0.346338
0.356901
0.369036
0.380963
0.393419
0.406793
0.42381
0.441123
0.457125
0.474394
0.491425
0.510662
0.530945
0.550299
0.573118
0.597408
0.629223
0.704403
0.855452
1.02752
1.13663
1.17793
1.19578
1.20984
1.22442
1.24103
1.26185
1.29156
1.33178
1.37145
1.39438
1.39966
1.4
1.40001
1.40001
1.40001
1.40001
1.40001
1.40001
1.40001
1.40001
1.40001
1.40001
1.40001
1.40001
1.40001
1.40001
1.40001
1.40001
1.40001
1.40001
1.40001
1.40001
1.40001
1.40001
1.40001
1.40001
1.40001
1.40001
1.40001
1.40001
1.40001
1.40001
1.40001
1.40001
1.40001
1.40001
1.40001
0.312045
0.308578
0.307193
0.306547
0.307668
0.310311
0.312678
0.31777
0.324962
0.330436
0.339896
0.350694
0.360951
0.371575
0.384391
0.399924
0.415816
0.430508
0.444815
0.461496
0.478409
0.496385
0.515483
0.534493
0.553988
0.575975
0.59935
0.622566
0.646494
0.674948
0.72103
0.824508
0.97462
1.08962
1.15099
1.18362
1.20593
1.22705
1.25492
1.29234
1.336
1.37648
1.39631
1.39984
1.4
1.40001
1.40001
1.40001
1.40001
1.40001
1.40001
1.40001
1.40001
1.40001
1.40001
1.40001
1.40001
1.40001
1.40001
1.40001
1.40001
1.40001
1.40001
1.40001
1.40001
1.40001
1.40001
1.40001
1.40001
1.40001
1.40001
1.40001
1.40001
1.40001
1.40001
1.40001
1.40001
1.40001
1.40001
1.40001
0.307283
0.306403
0.306969
0.308671
0.310066
0.31436
0.319684
0.324235
0.334708
0.345187
0.35349
0.366838
0.381135
0.395418
0.408998
0.422002
0.435558
0.451337
0.466454
0.48003
0.496367
0.511963
0.530635
0.551127
0.57143
0.593743
0.614868
0.642118
0.669632
0.69628
0.727065
0.772822
0.851214
0.967642
1.06796
1.12995
1.16941
1.20361
1.24452
1.29268
1.34303
1.38249
1.39792
1.39994
1.4
1.40001
1.40001
1.40001
1.40001
1.40001
1.40001
1.40001
1.40001
1.40001
1.40001
1.40001
1.40001
1.40001
1.40001
1.40001
1.40001
1.40001
1.40001
1.40001
1.40001
1.40001
1.40001
1.40001
1.40001
1.40001
1.40001
1.40001
1.40001
1.40001
1.40001
1.40001
1.40001
1.40001
1.40001
1.40001
0.305921
0.306382
0.306601
0.31043
0.315931
0.320687
0.332051
0.343923
0.352103
0.365342
0.379042
0.390067
0.402154
0.413753
0.427107
0.440037
0.452942
0.466137
0.482461
0.499926
0.516362
0.535263
0.552996
0.572079
0.594998
0.61899
0.645028
0.669217
0.694834
0.721514
0.751014
0.786697
0.844678
0.917502
1.00377
1.08443
1.14834
1.20066
1.24817
1.29994
1.35314
1.38858
1.39905
1.39999
1.4
1.40001
1.40001
1.40001
1.40001
1.40001
1.40001
1.40001
1.40001
1.40001
1.40001
1.40001
1.40001
1.40001
1.40001
1.40001
1.40001
1.40001
1.40001
1.40001
1.40001
1.40001
1.40001
1.40001
1.40001
1.40001
1.40001
1.40001
1.40001
1.40001
1.40001
1.40001
1.40001
1.40001
1.40001
1.40001
0.309244
0.314963
0.32195
0.326852
0.336939
0.348552
0.355858
0.366632
0.377411
0.386663
0.398459
0.408569
0.420152
0.432837
0.443744
0.457974
0.473752
0.48867
0.503393
0.521038
0.540067
0.559917
0.581812
0.60372
0.625461
0.649031
0.675558
0.703139
0.732556
0.761826
0.788364
0.816937
0.853312
0.914493
0.989786
1.06547
1.13316
1.19335
1.25119
1.31149
1.36541
1.39384
1.39968
1.4
1.40001
1.40001
1.40001
1.40001
1.40001
1.40001
1.40001
1.40001
1.40001
1.40001
1.40001
1.40001
1.40001
1.40001
1.40001
1.40001
1.40001
1.40001
1.40001
1.40001
1.40001
1.40001
1.40001
1.40001
1.40001
1.40001
1.40001
1.40001
1.40001
1.40001
1.40001
1.40001
1.40001
1.40001
1.40001
1.40001
0.322262
0.327592
0.33652
0.344207
0.350177
0.361547
0.37055
0.377868
0.390161
0.400842
0.410611
0.424664
0.43674
0.450598
0.466633
0.480564
0.495506
0.513517
0.531159
0.547523
0.566104
0.584868
0.604383
0.626276
0.649792
0.674787
0.700113
0.728413
0.757984
0.790432
0.823614
0.85553
0.891016
0.938106
1.00322
1.07451
1.13881
1.19912
1.26363
1.3293
1.37872
1.39754
1.39993
1.4
1.40001
1.40001
1.40001
1.40001
1.40001
1.40001
1.40001
1.40001
1.40001
1.40001
1.40001
1.40001
1.40001
1.40001
1.40001
1.40001
1.40001
1.40001
1.40001
1.40001
1.40001
1.40001
1.40001
1.40001
1.40001
1.40001
1.40001
1.40001
1.40001
1.40001
1.40001
1.40001
1.40001
1.40001
1.40001
1.40001
0.335629
0.342188
0.349164
0.362576
0.372096
0.378176
0.39143
0.403623
0.413139
0.426032
0.438686
0.450741
0.464633
0.477033
0.490667
0.506392
0.521097
0.535461
0.552666
0.571484
0.589273
0.609143
0.630453
0.652785
0.676714
0.701972
0.729243
0.757059
0.787868
0.82191
0.857576
0.892022
0.925539
0.965639
1.01929
1.08418
1.15154
1.21851
1.28809
1.35249
1.39022
1.39938
1.4
1.40001
1.40001
1.40001
1.40001
1.40001
1.40001
1.40001
1.40001
1.40001
1.40001
1.40001
1.40001
1.40001
1.40001
1.40001
1.40001
1.40001
1.40001
1.40001
1.40001
1.40001
1.40001
1.40001
1.40001
1.40001
1.40001
1.40001
1.40001
1.40001
1.40001
1.40001
1.40001
1.40001
1.40001
1.40001
1.40001
1.40001
0.356769
0.367268
0.374989
0.383076
0.395707
0.40514
0.41319
0.425661
0.436064
0.44636
0.459545
0.470451
0.482875
0.498091
0.510504
0.523798
0.540886
0.558313
0.574555
0.592668
0.614058
0.63569
0.657739
0.681512
0.706973
0.734382
0.763217
0.792903
0.823112
0.856127
0.893043
0.932051
0.970479
1.00811
1.04889
1.09962
1.16557
1.24275
1.31935
1.3757
1.39718
1.39992
1.4
1.40001
1.40001
1.40001
1.40001
1.40001
1.40001
1.40001
1.40001
1.40001
1.40001
1.40001
1.40001
1.40001
1.40001
1.40001
1.40001
1.40001
1.40001
1.40001
1.40001
1.40001
1.40001
1.40001
1.40001
1.40001
1.40001
1.40001
1.40001
1.40001
1.40001
1.40001
1.40001
1.40001
1.40001
1.40001
1.40001
1.40001
0.375848
0.384752
0.395584
0.402215
0.409709
0.423172
0.432824
0.441034
0.454585
0.466203
0.476789
0.491923
0.505499
0.518607
0.535757
0.552891
0.568805
0.58661
0.606322
0.626202
0.645967
0.667357
0.690393
0.715039
0.740929
0.767826
0.796657
0.82773
0.860985
0.896176
0.933117
0.972065
1.01338
1.05705
1.10393
1.1569
1.21999
1.29203
1.3575
1.39237
1.39961
1.4
1.40001
1.40001
1.40001
1.40001
1.40001
1.40001
1.40001
1.40001
1.40001
1.40001
1.40001
1.40001
1.40001
1.40001
1.40001
1.40001
1.40001
1.40001
1.40001
1.40001
1.40001
1.40001
1.40001
1.40001
1.40001
1.40001
1.40001
1.40001
1.40001
1.40001
1.40001
1.40001
1.40001
1.40001
1.40001
1.40001
1.40001
1.40001
0.398847
0.406221
0.415958
0.428253
0.436604
0.445249
0.458685
0.469926
0.480347
0.494176
0.507086
0.519197
0.534359
0.548955
0.562496
0.57893
0.596534
0.613443
0.631516
0.65184
0.673074
0.695034
0.718625
0.7443
0.771337
0.799293
0.828818
0.860766
0.89526
0.932065
0.970858
1.01115
1.05293
1.09726
1.14716
1.20648
1.27535
1.34294
1.38641
1.39892
1.39998
1.4
1.40001
1.40001
1.40001
1.40001
1.40001
1.40001
1.40001
1.40001
1.40001
1.40001
1.40001
1.40001
1.40001
1.40001
1.40001
1.40001
1.40001
1.40001
1.40001
1.40001
1.40001
1.40001
1.40001
1.40001
1.40001
1.40001
1.40001
1.40001
1.40001
1.40001
1.40001
1.40001
1.40001
1.40001
1.40001
1.40001
1.40001
1.40001
0.420495
0.430287
0.437521
0.446757
0.459845
0.469251
0.47798
0.491495
0.503092
0.513818
0.528319
0.542277
0.554753
0.57063
0.588089
0.604103
0.62129
0.641151
0.661485
0.682003
0.704148
0.728324
0.753353
0.779224
0.806911
0.837025
0.869167
0.902558
0.93694
0.972962
1.01229
1.05607
1.10369
1.15463
1.21061
1.27351
1.33731
1.38257
1.39819
1.39996
1.4
1.40001
1.40001
1.40001
1.40001
1.40001
1.40001
1.40001
1.40001
1.40001
1.40001
1.40001
1.40001
1.40001
1.40001
1.40001
1.40001
1.40001
1.40001
1.40001
1.40001
1.40001
1.40001
1.40001
1.40001
1.40001
1.40001
1.40001
1.40001
1.40001
1.40001
1.40001
1.40001
1.40001
1.40001
1.40001
1.40001
1.40001
1.40001
1.40001
0.442909
0.452355
0.463626
0.472222
0.480888
0.494345
0.506182
0.516148
0.529932
0.543644
0.555914
0.570795
0.586822
0.601917
0.618286
0.636678
0.65504
0.674064
0.69497
0.717026
0.739281
0.763046
0.789346
0.817408
0.84601
0.875433
0.907273
0.942521
0.980583
1.02019
1.06105
1.1046
1.15314
1.20878
1.27174
1.33525
1.38104
1.39781
1.39994
1.4
1.40001
1.40001
1.40001
1.40001
1.40001
1.40001
1.40001
1.40001
1.40001
1.40001
1.40001
1.40001
1.40001
1.40001
1.40001
1.40001
1.40001
1.40001
1.40001
1.40001
1.40001
1.40001
1.40001
1.40001
1.40001
1.40001
1.40001
1.40001
1.40001
1.40001
1.40001
1.40001
1.40001
1.40001
1.40001
1.40001
1.40001
1.40001
1.40001
1.40001
0.467815
0.476528
0.485736
0.497979
0.509088
0.518262
0.530785
0.543909
0.5556
0.569281
0.583969
0.598093
0.613555
0.630681
0.647481
0.665141
0.684918
0.705536
0.726113
0.74822
0.772744
0.798624
0.824916
0.852472
0.882579
0.915277
0.94957
0.984991
1.02209
1.062
1.10602
1.15519
1.21042
1.27193
1.33421
1.38015
1.3976
1.39993
1.4
1.40001
1.40001
1.40001
1.40001
1.40001
1.40001
1.40001
1.40001
1.40001
1.40001
1.40001
1.40001
1.40001
1.40001
1.40001
1.40001
1.40001
1.40001
1.40001
1.40001
1.40001
1.40001
1.40001
1.40001
1.40001
1.40001
1.40001
1.40001
1.40001
1.40001
1.40001
1.40001
1.40001
1.40001
1.40001
1.40001
1.40001
1.40001
1.40001
1.40001
1.40001
0.492581
0.503099
0.513167
0.522601
0.534768
0.547046
0.558366
0.571229
0.585065
0.598606
0.613499
0.629692
0.645274
0.662064
0.681049
0.700439
0.719623
0.740519
0.763524
0.7873
0.811569
0.837645
0.866108
0.896126
0.927069
0.959567
0.994698
1.03281
1.07344
1.11642
1.16292
1.21513
1.2741
1.33446
1.37969
1.39744
1.39992
1.4
1.40001
1.40001
1.40001
1.40001
1.40001
1.40001
1.40001
1.40001
1.40001
1.40001
1.40001
1.40001
1.40001
1.40001
1.40001
1.40001
1.40001
1.40001
1.40001
1.40001
1.40001
1.40001
1.40001
1.40001
1.40001
1.40001
1.40001
1.40001
1.40001
1.40001
1.40001
1.40001
1.40001
1.40001
1.40001
1.40001
1.40001
1.40001
1.40001
1.40001
1.40001
1.40001
0.519487
0.529295
0.540781
0.551846
0.562486
0.574879
0.588366
0.600954
0.614841
0.630288
0.645054
0.660685
0.678427
0.696602
0.714544
0.734084
0.755524
0.777569
0.800136
0.824419
0.850737
0.878354
0.907042
0.937472
0.970219
1.00515
1.04196
1.08087
1.12282
1.16916
1.22123
1.2791
1.33725
1.3804
1.39745
1.39991
1.4
1.40001
1.40001
1.40001
1.40001
1.40001
1.40001
1.40001
1.40001
1.40001
1.40001
1.40001
1.40001
1.40001
1.40001
1.40001
1.40001
1.40001
1.40001
1.40001
1.40001
1.40001
1.40001
1.40001
1.40001
1.40001
1.40001
1.40001
1.40001
1.40001
1.40001
1.40001
1.40001
1.40001
1.40001
1.40001
1.40001
1.40001
1.40001
1.40001
1.40001
1.40001
1.40001
1.40001
0.548092
0.558584
0.568836
0.580805
0.593999
0.605702
0.618431
0.633223
0.647707
0.662352
0.678815
0.695994
0.713052
0.731471
0.751627
0.772374
0.7936
0.816305
0.840763
0.866472
0.893368
0.921927
0.952392
0.984636
1.01868
1.05486
1.09363
1.13544
1.18108
1.23179
1.28761
1.34274
1.38249
1.39775
1.39992
1.4
1.40001
1.40001
1.40001
1.40001
1.40001
1.40001
1.40001
1.40001
1.40001
1.40001
1.40001
1.40001
1.40001
1.40001
1.40001
1.40001
1.40001
1.40001
1.40001
1.40001
1.40001
1.40001
1.40001
1.40001
1.40001
1.40001
1.40001
1.40001
1.40001
1.40001
1.40001
1.40001
1.40001
1.40001
1.40001
1.40001
1.40001
1.40001
1.40001
1.40001
1.40001
1.40001
1.40001
1.40001
0.577813
0.588888
0.601126
0.612538
0.624474
0.638433
0.652623
0.66648
0.681735
0.698051
0.714419
0.731706
0.750502
0.770062
0.790166
0.811481
0.834249
0.858189
0.88333
0.910016
0.93838
0.968358
1.00005
1.03372
1.06962
1.10794
1.14918
1.19432
1.2444
1.29869
1.35041
1.38565
1.39826
1.39994
1.4
1.40001
1.40001
1.40001
1.40001
1.40001
1.40001
1.40001
1.40001
1.40001
1.40001
1.40001
1.40001
1.40001
1.40001
1.40001
1.40001
1.40001
1.40001
1.40001
1.40001
1.40001
1.40001
1.40001
1.40001
1.40001
1.40001
1.40001
1.40001
1.40001
1.40001
1.40001
1.40001
1.40001
1.40001
1.40001
1.40001
1.40001
1.40001
1.40001
1.40001
1.40001
1.40001
1.40001
1.40001
1.40001
0.610179
0.621522
0.633137
0.646114
0.659667
0.672969
0.687247
0.702761
0.71857
0.734899
0.752409
0.770845
0.789977
0.810149
0.831527
0.853952
0.877497
0.902464
0.928991
0.95705
0.986706
1.01815
1.05157
1.08714
1.12515
1.16616
1.21103
1.26039
1.31256
1.3598
1.38937
1.39885
1.39997
1.4
1.40001
1.40001
1.40001
1.40001
1.40001
1.40001
1.40001
1.40001
1.40001
1.40001
1.40001
1.40001
1.40001
1.40001
1.40001
1.40001
1.40001
1.40001
1.40001
1.40001
1.40001
1.40001
1.40001
1.40001
1.40001
1.40001
1.40001
1.40001
1.40001
1.40001
1.40001
1.40001
1.40001
1.40001
1.40001
1.40001
1.40001
1.40001
1.40001
1.40001
1.40001
1.40001
1.40001
1.40001
1.40001
1.40001
0.644123
0.656136
0.668901
0.681841
0.6954
0.710037
0.725241
0.74086
0.757338
0.774722
0.792875
0.811975
0.832156
0.853321
0.875494
0.898907
0.923739
0.950038
0.977862
1.00733
1.0386
1.07181
1.10719
1.14506
1.18598
1.23064
1.27912
1.32851
1.37001
1.39306
1.39936
1.39999
1.4
1.40001
1.40001
1.40001
1.40001
1.40001
1.40001
1.40001
1.40001
1.40001
1.40001
1.40001
1.40001
1.40001
1.40001
1.40001
1.40001
1.40001
1.40001
1.40001
1.40001
1.40001
1.40001
1.40001
1.40001
1.40001
1.40001
1.40001
1.40001
1.40001
1.40001
1.40001
1.40001
1.40001
1.40001
1.40001
1.40001
1.40001
1.40001
1.40001
1.40001
1.40001
1.40001
1.40001
1.40001
1.40001
1.40001
1.40001
0.680627
0.693117
0.706161
0.719959
0.734419
0.749421
0.765145
0.781657
0.798881
0.816942
0.836011
0.856076
0.877106
0.899204
0.922534
0.94722
0.97337
1.00109
1.03047
1.06165
1.09479
1.13013
1.16801
1.20895
1.25335
1.30041
1.34572
1.37996
1.39612
1.39971
1.4
1.4
1.40001
1.40001
1.40001
1.40001
1.40001
1.40001
1.40001
1.40001
1.40001
1.40001
1.40001
1.40001
1.40001
1.40001
1.40001
1.40001
1.40001
1.40001
1.40001
1.40001
1.40001
1.40001
1.40001
1.40001
1.40001
1.40001
1.40001
1.40001
1.40001
1.40001
1.40001
1.40001
1.40001
1.40001
1.40001
1.40001
1.40001
1.40001
1.40001
1.40001
1.40001
1.40001
1.40001
1.40001
1.40001
1.40001
1.40001
1.40001
0.719448
0.732537
0.746287
0.760633
0.775673
0.791465
0.807927
0.825088
0.843117
0.862125
0.882119
0.903113
0.925184
0.948456
0.973082
0.9992
1.02691
1.05631
1.08753
1.12073
1.15617
1.19418
1.23513
1.27889
1.32341
1.36277
1.38845
1.39823
1.3999
1.4
1.40001
1.40001
1.40001
1.40001
1.40001
1.40001
1.40001
1.40001
1.40001
1.40001
1.40001
1.40001
1.40001
1.40001
1.40001
1.40001
1.40001
1.40001
1.40001
1.40001
1.40001
1.40001
1.40001
1.40001
1.40001
1.40001
1.40001
1.40001
1.40001
1.40001
1.40001
1.40001
1.40001
1.40001
1.40001
1.40001
1.40001
1.40001
1.40001
1.40001
1.40001
1.40001
1.40001
1.40001
1.40001
1.40001
1.40001
1.40001
1.40001
1.40001
0.760954
0.774644
0.789001
0.804073
0.819864
0.836325
0.853501
0.87152
0.890495
0.910479
0.931492
0.953586
0.976888
1.00157
1.02776
1.05558
1.08512
1.11651
1.14992
1.18558
1.22374
1.26442
1.30657
1.34664
1.37786
1.39454
1.39938
1.39998
1.4
1.40001
1.40001
1.40001
1.40001
1.40001
1.40001
1.40001
1.40001
1.40001
1.40001
1.40001
1.40001
1.40001
1.40001
1.40001
1.40001
1.40001
1.40001
1.40001
1.40001
1.40001
1.40001
1.40001
1.40001
1.40001
1.40001
1.40001
1.40001
1.40001
1.40001
1.40001
1.40001
1.40001
1.40001
1.40001
1.40001
1.40001
1.40001
1.40001
1.40001
1.40001
1.40001
1.40001
1.40001
1.40001
1.40001
1.40001
1.40001
1.40001
1.40001
1.40001
0.805295
0.819638
0.834719
0.850531
0.867046
0.884273
0.902318
0.921319
0.941357
0.962453
0.984657
1.0081
1.03295
1.05935
1.08742
1.11724
1.14894
1.18265
1.21853
1.25657
1.29609
1.33478
1.36777
1.38923
1.39802
1.39984
1.4
1.4
1.40001
1.40001
1.40001
1.40001
1.40001
1.40001
1.40001
1.40001
1.40001
1.40001
1.40001
1.40001
1.40001
1.40001
1.40001
1.40001
1.40001
1.40001
1.40001
1.40001
1.40001
1.40001
1.40001
1.40001
1.40001
1.40001
1.40001
1.40001
1.40001
1.40001
1.40001
1.40001
1.40001
1.40001
1.40001
1.40001
1.40001
1.40001
1.40001
1.40001
1.40001
1.40001
1.40001
1.40001
1.40001
1.40001
1.40001
1.40001
1.40001
1.40001
1.40001
1.40001
0.85275
0.867819
0.88368
0.900281
0.917603
0.935739
0.954844
0.975016
0.996287
1.01871
1.04243
1.06759
1.09436
1.12283
1.15306
1.18513
1.21911
1.25488
1.29187
1.32836
1.36076
1.38418
1.39602
1.39949
1.39998
1.4
1.40001
1.40001
1.40001
1.40001
1.40001
1.40001
1.40001
1.40001
1.40001
1.40001
1.40001
1.40001
1.40001
1.40001
1.40001
1.40001
1.40001
1.40001
1.40001
1.40001
1.40001
1.40001
1.40001
1.40001
1.40001
1.40001
1.40001
1.40001
1.40001
1.40001
1.40001
1.40001
1.40001
1.40001
1.40001
1.40001
1.40001
1.40001
1.40001
1.40001
1.40001
1.40001
1.40001
1.40001
1.40001
1.40001
1.40001
1.40001
1.40001
1.40001
1.40001
1.40001
1.40001
1.40001
0.90366
0.91956
0.936281
0.953764
0.972082
0.991391
1.01181
1.03338
1.05617
1.08032
1.10598
1.13326
1.16223
1.19289
1.22521
1.25897
1.29357
1.32751
1.35797
1.38108
1.39421
1.39898
1.39992
1.4
1.4
1.40001
1.40001
1.40001
1.40001
1.40001
1.40001
1.40001
1.40001
1.40001
1.40001
1.40001
1.40001
1.40001
1.40001
1.40001
1.40001
1.40001
1.40001
1.40001
1.40001
1.40001
1.40001
1.40001
1.40001
1.40001
1.40001
1.40001
1.40001
1.40001
1.40001
1.40001
1.40001
1.40001
1.40001
1.40001
1.40001
1.40001
1.40001
1.40001
1.40001
1.40001
1.40001
1.40001
1.40001
1.40001
1.40001
1.40001
1.40001
1.40001
1.40001
1.40001
1.40001
1.40001
1.40001
1.40001
0.95854
0.975404
0.993134
1.01175
1.0314
1.05221
1.07425
1.09759
1.12234
1.14862
1.17648
1.20589
1.23669
1.26854
1.30072
1.33182
1.35948
1.38069
1.39339
1.39859
1.39984
1.4
1.4
1.40001
1.40001
1.40001
1.40001
1.40001
1.40001
1.40001
1.40001
1.40001
1.40001
1.40001
1.40001
1.40001
1.40001
1.40001
1.40001
1.40001
1.40001
1.40001
1.40001
1.40001
1.40001
1.40001
1.40001
1.40001
1.40001
1.40001
1.40001
1.40001
1.40001
1.40001
1.40001
1.40001
1.40001
1.40001
1.40001
1.40001
1.40001
1.40001
1.40001
1.40001
1.40001
1.40001
1.40001
1.40001
1.40001
1.40001
1.40001
1.40001
1.40001
1.40001
1.40001
1.40001
1.40001
1.40001
1.40001
1.40001
1.01819
1.03625
1.05531
1.07548
1.09687
1.11955
1.14359
1.16903
1.19591
1.22411
1.25336
1.28319
1.31272
1.34056
1.36469
1.38287
1.39382
1.39852
1.3998
1.39999
1.4
1.40001
1.40001
1.40001
1.40001
1.40001
1.40001
1.40001
1.40001
1.40001
1.40001
1.40001
1.40001
1.40001
1.40001
1.40001
1.40001
1.40001
1.40001
1.40001
1.40001
1.40001
1.40001
1.40001
1.40001
1.40001
1.40001
1.40001
1.40001
1.40001
1.40001
1.40001
1.40001
1.40001
1.40001
1.40001
1.40001
1.40001
1.40001
1.40001
1.40001
1.40001
1.40001
1.40001
1.40001
1.40001
1.40001
1.40001
1.40001
1.40001
1.40001
1.40001
1.40001
1.40001
1.40001
1.40001
1.40001
1.40001
1.40001
1.40001
1.0839
1.10354
1.12439
1.14651
1.16992
1.19462
1.22052
1.2474
1.27487
1.30227
1.32862
1.35257
1.37247
1.38684
1.39522
1.3988
1.39982
1.39999
1.4
1.40001
1.40001
1.40001
1.40001
1.40001
1.40001
1.40001
1.40001
1.40001
1.40001
1.40001
1.40001
1.40001
1.40001
1.40001
1.40001
1.40001
1.40001
1.40001
1.40001
1.40001
1.40001
1.40001
1.40001
1.40001
1.40001
1.40001
1.40001
1.40001
1.40001
1.40001
1.40001
1.40001
1.40001
1.40001
1.40001
1.40001
1.40001
1.40001
1.40001
1.40001
1.40001
1.40001
1.40001
1.40001
1.40001
1.40001
1.40001
1.40001
1.40001
1.40001
1.40001
1.40001
1.40001
1.40001
1.40001
1.40001
1.40001
1.40001
1.40001
1.40001
1.15732
1.17882
1.20156
1.22538
1.25007
1.27525
1.30035
1.32458
1.34691
1.36618
1.38123
1.39141
1.39698
1.39925
1.39988
1.39999
1.4
1.40001
1.40001
1.40001
1.40001
1.40001
1.40001
1.40001
1.40001
1.40001
1.40001
1.40001
1.40001
1.40001
1.40001
1.40001
1.40001
1.40001
1.40001
1.40001
1.40001
1.40001
1.40001
1.40001
1.40001
1.40001
1.40001
1.40001
1.40001
1.40001
1.40001
1.40001
1.40001
1.40001
1.40001
1.40001
1.40001
1.40001
1.40001
1.40001
1.40001
1.40001
1.40001
1.40001
1.40001
1.40001
1.40001
1.40001
1.40001
1.40001
1.40001
1.40001
1.40001
1.40001
1.40001
1.40001
1.40001
1.40001
1.40001
1.40001
1.40001
1.40001
1.40001
1.40001
1.23854
1.26089
1.28368
1.3063
1.328
1.34796
1.3653
1.37921
1.38923
1.39541
1.39849
1.39964
1.39995
1.4
1.4
1.40001
1.40001
1.40001
1.40001
1.40001
1.40001
1.40001
1.40001
1.40001
1.40001
1.40001
1.40001
1.40001
1.40001
1.40001
1.40001
1.40001
1.40001
1.40001
1.40001
1.40001
1.40001
1.40001
1.40001
1.40001
1.40001
1.40001
1.40001
1.40001
1.40001
1.40001
1.40001
1.40001
1.40001
1.40001
1.40001
1.40001
1.40001
1.40001
1.40001
1.40001
1.40001
1.40001
1.40001
1.40001
1.40001
1.40001
1.40001
1.40001
1.40001
1.40001
1.40001
1.40001
1.40001
1.40001
1.40001
1.40001
1.40001
1.40001
1.40001
1.40001
1.40001
1.40001
1.40001
1.40001
1.31935
1.33784
1.35477
1.36934
1.38101
1.38953
1.39505
1.39808
1.39943
1.39988
1.39999
1.4
1.4
1.40001
1.40001
1.40001
1.40001
1.40001
1.40001
1.40001
1.40001
1.40001
1.40001
1.40001
1.40001
1.40001
1.40001
1.40001
1.40001
1.40001
1.40001
1.40001
1.40001
1.40001
1.40001
1.40001
1.40001
1.40001
1.40001
1.40001
1.40001
1.40001
1.40001
1.40001
1.40001
1.40001
1.40001
1.40001
1.40001
1.40001
1.40001
1.40001
1.40001
1.40001
1.40001
1.40001
1.40001
1.40001
1.40001
1.40001
1.40001
1.40001
1.40001
1.40001
1.40001
1.40001
1.40001
1.40001
1.40001
1.40001
1.40001
1.40001