/*--------------------------------*- C++ -*----------------------------------*\
  =========                 |
  \\      /  F ield         | OpenFOAM: The Open Source CFD Toolbox
   \\    /   O peration     | Website:  https://openfoam.org
    \\  /    A nd           | Version:  7
     \\/     M anipulation  |
\*---------------------------------------------------------------------------*/
FoamFile
{
    version     2.0;
    format      ascii;
    class       volScalarField;
    location    "3.9";
    object      p;
}
// * * * * * * * * * * * * * * * * * * * * * * * * * * * * * * * * * * * * * //

dimensions      [1 -1 -2 0 0 0 0];

internalField   nonuniform List<scalar> 
1750
(
0.188391
0.36403
0.525097
0.532851
0.559777
0.591621
0.666336
0.708834
0.72698
0.767393
0.020345
0.0650647
0.235417
0.463459
0.668961
0.743433
0.800547
0.770847
0.74573
0.78203
0.0227152
0.0265167
0.026845
0.0899814
0.227291
0.442828
0.585503
0.662545
0.699895
0.776173
0.0331757
0.0416413
0.0506894
0.0614671
0.0668544
0.0878558
0.135985
0.232834
0.345265
0.556863
0.0637013
0.0780262
0.0923456
0.095059
0.100201
0.10478
0.113058
0.123904
0.13206
0.210931
0.124099
0.135196
0.148758
0.148745
0.150348
0.160508
0.179398
0.18737
0.191664
0.202828
0.248635
0.248267
0.250807
0.258299
0.26336
0.268039
0.267614
0.265314
0.261283
0.253755
0.462876
0.446436
0.432688
0.413162
0.399049
0.388117
0.376425
0.363928
0.354118
0.341475
0.781212
0.738721
0.702272
0.665434
0.627535
0.592599
0.563566
0.535479
0.512744
0.478029
1.02765
1.00329
0.973354
0.93939
0.898341
0.854612
0.809596
0.761711
0.717286
0.64928
1.07133
1.06959
1.06618
1.06034
1.05073
1.03579
1.01351
0.981933
0.945666
0.871898
1.05074
1.05509
1.05764
1.05905
1.05895
1.05854
1.05715
1.05328
1.04647
1.01945
1.0121
1.01624
1.02134
1.02735
1.03333
1.03878
1.04383
1.04702
1.04656
1.04206
1.00062
1.00105
1.00186
1.00315
1.00529
1.00827
1.01246
1.01762
1.02353
1.02871
1.00001
1.00002
1.00004
1.00008
1.00019
1.0004
1.00086
1.00174
1.00327
1.00748
0.0219436
0.0183004
0.0189645
0.0252396
0.0543677
0.121368
0.253202
0.488375
0.818007
1.04254
1.07245
1.04645
1.00911
1.00041
1.00001
0.0220954
0.0173252
0.018883
0.0289249
0.0714289
0.166961
0.330311
0.59931
0.91989
1.07293
1.07374
1.03721
1.0047
1.00014
1
0.0247421
0.0161703
0.018917
0.0348489
0.0938854
0.202173
0.38416
0.686885
0.990384
1.08307
1.07353
1.02658
1.00238
1.00006
1
0.026751
0.0143133
0.0199473
0.050861
0.117663
0.238627
0.467866
0.806649
1.04852
1.08738
1.06385
1.01724
1.00115
1.00002
1
0.0240112
0.0125887
0.0219974
0.062933
0.140223
0.290323
0.586577
0.916154
1.0804
1.08849
1.05317
1.01059
1.0005
1.00001
1
0.0200113
0.0112241
0.0271135
0.0740433
0.176217
0.404616
0.715478
0.999018
1.09482
1.08737
1.04099
1.00541
1.00019
1
1
0.0164668
0.0150635
0.037676
0.102057
0.252853
0.521808
0.838619
1.06368
1.10117
1.07987
1.02688
1.00236
1.00007
1
1
0.0125711
0.0211018
0.0461418
0.145351
0.362559
0.65606
0.964243
1.10145
1.10332
1.06712
1.01468
1.00091
1.00002
1
1
0.00702153
0.0214855
0.0763463
0.228146
0.496158
0.820061
1.05847
1.11459
1.10375
1.04576
1.00637
1.00027
1.00001
1
1
0.00226727
0.0188589
0.13105
0.357479
0.661821
0.969464
1.10858
1.11762
1.08521
1.02554
1.00244
1.00008
1
1
1
0.00076311
0.0527498
0.231406
0.526222
0.857324
1.07318
1.12645
1.11755
1.06135
1.01214
1.00074
1.00002
1
1
1
0.00346878
0.129038
0.392776
0.737249
1.01755
1.12658
1.12992
1.09742
1.0349
1.00426
1.00018
1
1
1
1
0.0274404
0.236093
0.633054
0.959341
1.11456
1.13957
1.12698
1.06896
1.01512
1.00114
1.00004
1
1
1
1
0.147715
0.519327
0.905109
1.09255
1.14807
1.14129
1.10005
1.03469
1.00448
1.00023
1.00001
1
1
1
1
0.529125
0.895068
1.09409
1.14575
1.15357
1.12577
1.06222
1.01247
1.00095
1.00003
1
1
1
1
1
1.14976
1.15311
1.15519
1.15307
1.14892
1.08994
1.02259
1.00148
1.00002
1
1
1
1
1
1
1.14929
1.15409
1.15669
1.14878
1.13814
1.07711
1.0205
1.00234
1.0001
1
1
1
1
1
1
1.14967
1.15824
1.16022
1.14848
1.12094
1.05017
1.0078
1.00036
1.00001
1
1
1
1
1
1
1.15124
1.16132
1.16148
1.14387
1.09913
1.03083
1.00326
1.00013
1
1
1
1
1
1
1
1.15167
1.16242
1.16198
1.13707
1.07114
1.01528
1.00111
1.00003
1
1
1
1
1
1
1
1.15182
1.16206
1.15908
1.11262
1.04645
1.00717
1.00036
1.00001
1
1
1
1
1
1
1
1.15942
1.15881
1.15024
1.08957
1.02583
1.0025
1.00009
1
1
1
1
1
1
1
1
1.1772
1.15141
1.13434
1.05952
1.01165
1.00083
1.00002
1
1
1
1
1
1
1
1
1.19028
1.14042
1.1028
1.03413
1.00454
1.00022
1.00001
1
1
1
1
1
1
1
1
1.19657
1.12533
1.07011
1.01678
1.00152
1.00005
1
1
1
1
1
1
1
1
1
1.19759
1.10212
1.04142
1.00641
1.00038
1.00001
1
1
1
1
1
1
1
1
1
1.1741
1.07335
1.02029
1.00207
1.00008
1
1
1
1
1
1
1
1
1
1
1.1404
1.04662
1.00812
1.00048
1.00001
1
1
1
1
1
1
1
1
1
1
1.09701
1.02176
1.00205
1.00008
1
1
1
1
1
1
1
1
1
1
1
1.04363
1.00587
1.00029
1.00001
1
1
1
1
1
1
1
1
1
1
1
1
1
1
1
1
1
1
1
1
1
1
1
1
1
1
1
1
1
1
1
1
1
1
1
1
1
1
1
1
1
1
1
1
1
1
1
1
1
1
1
1
1
1
1
1
1
1
1
1
1
1
1
1
1
1
1
1
1
1
1
1
1
1
1
1
1
1
1
1
1
1
1
1
1
1
1
1
1
1
1
1
1
1
1
1
1
1
1
1
1
1
1
1
1
1
1
1
1
1
1
1
1
1
1
1
1
1
1
1
1
1
1
1
1
1
1
1
1
1
1
1
1
1
1
1
1
1
1
1
1
1
1
1
1
1
1
1
1
1
1
1
1
1
1
1
1
1
1
1
1
1
1
1
1
1
1
1
1
1
1
1
1
1
1
1
1
1
1
1
1
1
1
1
1
1
1
1
1
1
1
1
1
1
1
1
1
1
1
1
1
1
1
1
1
1
1
1
1
1
1
1
1
1
1
1
1
1
1
1
1
1
1
1
1
1
1
1
1
1
1
1
1
1
1
1
1
1
1
1
1
1
1
1
1
1
1
1
1
1
1
1
1
1
1
1
1
1
1
1
1
1
1
1
1
1
1
1
1
1
1
1
1
1
1
1
1
1
1
1
1
1
1
1
1
1
1
1
1
1
1
1
1
1
1
1
1
1
1
1
1
1
1
1
1
1
1
1
1
1
1
1
1
1
1
1
1
1
1
1
1
1
1
1
1
1
1
1
1
1
1
1
1
1
1
1
1
1
1
1
1
1
1
1
1
1
1
1
1
1
1
1
1
1
1
1
1
1
1
1
1
6.15724
2.82223
0.999993
1
1
1
1
1
1
1
1
1
1
1
1
1
1
1
1
1
10.4661
8.1916
5.61183
1.61123
0.999997
1
1
1
1
1
1
1
1
1
1
1
1
1
1
1
8.7995
7.91713
8.23343
6.63582
2.23851
0.999067
1
1
1
1
1
1
1
1
1
1
1
1
1
1
8.13422
7.83911
8.01793
8.01335
6.83385
2.52345
0.9982
1
1
1
1
1
1
1
1
1
1
1
1
1
7.95349
7.84192
7.9328
7.84971
7.84154
6.85954
2.53573
0.996977
1.00001
1
1
1
1
1
1
1
1
1
1
1
7.87214
7.78866
7.79637
7.72453
7.65351
7.53265
6.25393
2.02208
0.997332
1.00001
1
1
1
1
1
1
1
1
1
1
7.78866
7.70523
7.66917
7.59493
7.55204
7.45288
7.1848
4.94333
1.38625
0.998614
1
1
1
1
1
1
1
1
1
1
7.68228
7.60363
7.55992
7.49091
7.43821
7.36356
7.39309
7.09951
3.66291
1.07155
1
1
1
1
1
1
1
1
1
1
7.577
7.50387
7.46668
7.4046
7.35317
7.29412
7.24954
7.19398
6.09465
2.1533
0.996414
1.00001
1
1
1
1
1
1
1
1
7.48049
7.40981
7.3753
7.31919
7.26832
7.23364
7.20243
7.17491
7.02062
4.55746
1.25004
0.998983
1
1
1
1
1
1
1
1
7.38671
7.31203
7.28347
7.23885
7.20191
7.17507
7.13794
7.0505
7.07165
6.56344
2.79821
1.01457
1
1
1
1
1
1
1
1
7.28768
7.21244
7.19352
7.16867
7.14958
7.11345
7.07372
7.00595
7.01592
6.69593
4.82629
1.42263
0.99833
1
1
1
1
1
1
1
7.1816
7.12029
7.11704
7.10026
7.07639
7.03809
7.00086
6.94698
6.92664
6.77425
6.42287
2.9385
1.02641
0.999994
1
1
1
1
1
1
7.09136
7.04225
7.05314
7.03361
6.99763
6.96491
6.91743
6.88645
6.87157
6.80143
6.77012
4.81963
1.48265
1.00003
1
1
1
1
1
1
7.0167
6.9735
6.97954
6.95295
6.9109
6.87389
6.84077
6.83887
6.81898
6.74897
6.69306
6.08887
2.47155
0.950445
0.999655
1
1
1
1
1
2.33449
3.66588
4.3385
4.8567
5.29928
5.62894
5.87416
6.09654
6.28251
6.36834
6.42915
6.51368
5.37043
1.99673
1.03698
1.0003
1
1
1
1
0.618028
1.88551
2.66351
3.30019
3.78452
4.28857
4.68829
5.08396
5.41042
5.65819
5.90215
6.23321
6.12117
4.48605
1.63863
1.0181
1.00013
1
1
1
0.523598
1.10307
1.6199
2.23784
2.79294
3.24511
3.72033
4.11606
4.55549
4.91446
5.24434
5.69127
5.87768
5.56954
3.31253
1.25404
1.00401
1.00002
1
1
0.655535
0.911344
1.06442
1.44217
2.00117
2.47057
2.95105
3.3284
3.77091
4.19579
4.61419
5.02216
5.46269
5.38919
4.6837
2.13551
1.05641
1.0005
1
1
0.827685
0.794321
0.855558
1.15579
1.48802
1.9115
2.31475
2.75777
3.09579
3.55952
4.00704
4.39068
4.81864
5.15565
5.12319
3.51851
1.37946
1.0077
1.00004
1
0.888061
0.787179
0.779006
0.980968
1.21139
1.56582
1.89287
2.31178
2.65778
3.07169
3.50455
3.91092
4.22346
4.7331
5.00639
4.54502
2.24979
1.07526
1.00073
1
0.887621
0.810144
0.783281
0.844621
0.969475
1.25681
1.5786
1.91824
2.31051
2.66214
3.09344
3.47451
3.82453
4.24643
4.73099
4.63531
3.28446
1.36385
1.00754
1.00004
0.903845
0.857362
0.838411
0.837031
0.846604
1.00538
1.28825
1.5627
1.96704
2.30436
2.69735
3.01049
3.42237
3.83504
4.36104
4.53633
4.04828
1.98827
1.05249
1.00043
0.913359
0.892527
0.869256
0.836148
0.830968
0.941164
1.12578
1.35908
1.66664
2.02628
2.33631
2.66562
2.98652
3.39281
3.91391
4.3381
4.21515
2.7843
1.20866
1.00331
0.90211
0.889183
0.858122
0.810409
0.801174
0.883569
1.01795
1.25014
1.48467
1.82161
2.12315
2.43975
2.72296
3.08071
3.52044
4.06297
4.13343
3.39952
1.56544
1.01771
0.884497
0.869084
0.83736
0.800989
0.799815
0.833194
0.889678
1.10827
1.32263
1.61152
1.91266
2.20882
2.51993
2.85083
3.23466
3.76306
3.98895
3.62421
2.03768
1.07268
0.861993
0.848153
0.832168
0.816141
0.817597
0.822609
0.824557
0.959248
1.17057
1.36405
1.65109
1.91975
2.24972
2.58061
2.90552
3.39526
3.8303
3.69967
2.52765
1.20856
0.842866
0.837664
0.846082
0.845959
0.837706
0.826724
0.827639
0.93155
1.09164
1.25451
1.48956
1.73523
2.02903
2.36758
2.66434
3.08029
3.62091
3.66862
3.00458
1.4952
0.836233
0.835474
0.85728
0.857918
0.838536
0.821673
0.823554
0.896483
1.02431
1.18682
1.38556
1.62737
1.88696
2.2048
2.49417
2.86381
3.40469
3.59028
3.14576
1.89898
0.834126
0.840152
0.858297
0.860792
0.840775
0.812013
0.808548
0.845715
0.923825
1.08109
1.25482
1.49874
1.72324
2.02055
2.2871
2.60784
3.12444
3.461
3.20609
2.34901
0.720007
0.823488
0.854381
0.858773
0.837795
0.8131
0.810223
0.815244
0.827231
0.954551
1.1034
1.34035
1.56755
1.82624
2.10564
2.39302
2.856
3.32626
3.19606
2.82879
0.617892
0.763717
0.833819
0.851889
0.838737
0.826457
0.816823
0.80921
0.807428
0.890408
1.03459
1.21839
1.46354
1.69863
1.97045
2.24728
2.64735
3.15829
3.19066
3.30838
0.565144
0.683564
0.783069
0.831603
0.834474
0.826688
0.813971
0.795678
0.791055
0.845851
0.980819
1.13839
1.35589
1.582
1.81997
2.07126
2.40384
2.90729
3.15812
3.72211
0.496433
0.601142
0.706651
0.783613
0.815916
0.80869
0.790579
0.762405
0.765266
0.808369
0.908414
1.06089
1.23519
1.45166
1.67864
1.91663
2.19956
2.6528
3.10903
4.08529
0.481035
0.534463
0.606513
0.706914
0.774538
0.781007
0.767642
0.748115
0.749021
0.782353
0.827802
0.963827
1.12614
1.3144
1.54326
1.77818
2.03196
2.44438
3.11131
4.37077
0.501063
0.495432
0.53471
0.635365
0.717642
0.752895
0.749922
0.73805
0.745417
0.765211
0.78241
0.881145
1.03131
1.19319
1.40334
1.62583
1.85635
2.23133
3.03333
4.61942
0.541689
0.491739
0.494138
0.565616
0.642792
0.710389
0.725239
0.718997
0.729406
0.734151
0.746997
0.833621
0.943815
1.08705
1.28156
1.47642
1.68986
2.05441
2.93266
4.75114
0.624341
0.541395
0.496657
0.518075
0.559219
0.646605
0.695426
0.698493
0.697767
0.690755
0.695798
0.770747
0.868403
0.989452
1.16403
1.34377
1.53476
1.88285
2.81899
4.7537
0.688975
0.601731
0.514672
0.483879
0.491996
0.565451
0.642759
0.675969
0.673867
0.663049
0.661504
0.710036
0.795954
0.916054
1.05992
1.23542
1.41526
1.75873
2.70443
4.64689
0.76609
0.709857
0.645116
0.563205
0.514094
0.533418
0.569829
0.619429
0.634149
0.628937
0.632341
0.652992
0.699024
0.805175
0.917344
1.07426
1.24689
1.60081
2.50982
4.3333
)
;

boundaryField
{
    inlet
    {
        type            fixedValue;
        value           uniform 1;
    }
    outlet
    {
        type            zeroGradient;
    }
    airfoil
    {
        type            zeroGradient;
    }
    top
    {
        type            symmetryPlane;
    }
    bottom
    {
        type            symmetryPlane;
    }
    defaultFaces
    {
        type            empty;
    }
}


// ************************************************************************* //
