/*--------------------------------*- C++ -*----------------------------------*\
  =========                 |
  \\      /  F ield         | OpenFOAM: The Open Source CFD Toolbox
   \\    /   O peration     | Website:  https://openfoam.org
    \\  /    A nd           | Version:  7
     \\/     M anipulation  |
\*---------------------------------------------------------------------------*/
FoamFile
{
    version     2.0;
    format      ascii;
    class       surfaceScalarField;
    location    "5";
    object      phi;
}
// * * * * * * * * * * * * * * * * * * * * * * * * * * * * * * * * * * * * * //

dimensions      [0 3 -1 0 0 0 0];

internalField   nonuniform List<scalar> 
16520
(
0.000103205
-2.40808e-05
-3.4294e-05
-4.48301e-05
0.000182006
-2.5471e-05
-5.33302e-05
0.000269751
-3.04852e-05
-5.726e-05
0.000365687
-3.95837e-05
-5.63517e-05
0.000469843
-5.33737e-05
-5.07822e-05
0.000582732
-7.23289e-05
-4.05602e-05
0.000705124
-9.68885e-05
-2.55041e-05
0.000837894
-0.000127474
-5.29586e-06
0.000981998
-0.000164476
2.03724e-05
0.00113832
-0.00020827
5.19521e-05
0.00130768
-0.000259175
8.98068e-05
0.00149084
-0.000317441
0.000134284
0.00168839
-0.000383206
0.000185653
0.00190079
-0.000456452
0.000244055
0.00212828
-0.000536952
0.00030946
0.00237089
-0.000624209
0.000381604
0.00262835
-0.000717391
0.000459924
0.00290013
-0.00081527
0.000543489
0.00318536
-0.000916149
0.000630922
0.00348284
-0.00101779
0.00072031
0.00379108
-0.00111734
0.000809103
0.00410831
-0.0012112
0.000893972
0.0044326
-0.00129492
0.000970629
0.00476193
-0.00136273
0.0010334
0.00509443
-0.00140776
0.00107527
0.00542811
-0.00141881
0.00108513
0.00576275
-0.00138844
0.00105381
0.0060933
-0.0012789
0.000948351
0.00642951
-0.00114208
0.000805873
-0.000677554
0.000364765
1.34947e-05
-7.94397e-05
4.18641e-05
8.45769e-05
-9.65532e-05
0.000169367
-0.000115275
0.000266896
-0.000137112
0.000376647
-0.000163125
0.000498444
-0.000194126
0.000632378
-0.000230823
0.000778752
-0.000273848
0.00093802
-0.000323744
0.00111071
-0.000380955
0.00129735
-0.000445821
0.00149846
-0.000518545
0.00171442
-0.000599167
0.00194549
-0.000687521
0.00219171
-0.000783178
0.0024529
-0.000885398
0.00272858
-0.000993068
0.00301795
-0.00110464
0.0033199
-0.0012181
0.00363297
-0.00133086
0.00395541
-0.00143978
0.00428522
-0.00154102
0.00462027
-0.00162996
0.00495844
-0.0017009
0.00529778
-0.00174711
0.00563673
-0.00175777
0.00597477
-0.00172648
0.0063096
-0.00161373
0.00664744
-0.00147992
-0.00100018
7.13675e-05
-0.000142975
-7.83168e-06
0.000146853
-0.000172038
0.00023528
-0.000203702
0.000337014
-0.000238847
0.00045226
-0.000278371
0.00058117
-0.000323036
0.000723898
-0.000373552
0.00088064
-0.00043059
0.00105164
-0.000494744
0.00123718
-0.000566493
0.00143753
-0.000646171
0.00165292
-0.000733939
0.0018835
-0.000829745
0.00212925
-0.000933274
0.00238998
-0.0010439
0.00266524
-0.00116065
0.00295429
-0.00128212
0.0032561
-0.00140645
0.00356928
-0.00153128
0.00389214
-0.00165372
0.00422269
-0.00177032
0.00455869
-0.00187702
0.00489786
-0.00196913
0.00523798
-0.00204101
0.00557708
-0.00208621
0.00591393
-0.00209462
0.00624801
-0.00206055
0.00657921
-0.00194493
0.0069119
-0.00181261
-0.00132536
0.00029035
-0.000222525
-0.000210801
0.000379216
-0.000260904
0.000478835
-0.000303322
0.000590312
-0.000350324
0.000714492
-0.000402551
0.000852045
-0.000460588
0.0010035
-0.000525006
0.00116927
-0.000596362
0.00134969
-0.000675162
0.001545
-0.000761807
0.00175538
-0.00085655
0.0019809
-0.000959452
0.00222148
-0.00107033
0.00247691
-0.0011887
0.00274675
-0.00131374
0.00303032
-0.00144423
0.00332666
-0.00157847
0.00363451
-0.0017143
0.00395225
-0.00184903
0.00427799
-0.00197946
0.00460954
-0.00210187
0.00494452
-0.002212
0.00528049
-0.0023051
0.00561516
-0.00237568
0.00594659
-0.00241764
0.00627378
-0.00242181
0.00659635
-0.00238312
0.00691608
-0.00226466
0.00723593
-0.00213246
-0.00164582
0.000701324
-0.000318473
-0.000605376
0.000805548
-0.000365127
0.000919163
-0.000416937
0.00104322
-0.000474382
0.00117867
-0.000537999
0.00132634
-0.000608263
0.00148696
-0.000685621
0.0016611
-0.0007705
0.0018492
-0.000863267
0.00205158
-0.000964186
0.0022684
-0.00107337
0.00249966
-0.00119071
0.0027452
-0.00131587
0.00300466
-0.00144816
0.00327745
-0.00158653
0.00356273
-0.00172951
0.00385937
-0.00187511
0.00416597
-0.00202089
0.00448077
-0.00216383
0.00480175
-0.00230044
0.00512661
-0.00242673
0.0054529
-0.00253829
0.00577811
-0.00263031
0.00609993
-0.00269751
0.00641646
-0.00273417
0.00672688
-0.00273222
0.00703099
-0.00268724
0.00733202
-0.00256569
0.00763207
-0.00243252
-0.00195427
0.00133112
-0.000429138
-0.00122045
0.00144956
-0.000483571
0.00157658
-0.000543958
0.00171297
-0.000610771
0.00185949
-0.000684518
0.00201687
-0.000765639
0.00218576
-0.000854514
0.00236673
-0.000951472
0.00256023
-0.00105676
0.00276656
-0.00117052
0.00298587
-0.00129268
0.00321815
-0.00142299
0.00346317
-0.00156089
0.00372053
-0.00170551
0.00398954
-0.00185555
0.00426932
-0.00200928
0.00455867
-0.00216446
0.00485612
-0.00231834
0.00515992
-0.00246763
0.00546804
-0.00260856
0.00577821
-0.0027369
0.006088
-0.00284809
0.00639498
-0.00293729
0.00669688
-0.00299941
0.00699189
-0.00302918
0.00727929
-0.00301962
0.00755913
-0.00296708
0.00783552
-0.00284208
0.00811019
-0.00270719
-0.00224413
0.0022044
-0.000551095
-0.00208244
0.00233378
-0.000612951
0.0024711
-0.00068128
0.00261689
-0.000756554
0.00277164
-0.00083927
0.00293585
-0.000929854
0.00310999
-0.00102866
0.00329447
-0.00113595
0.00348959
-0.00125189
0.00369557
-0.00137649
0.00391248
-0.00150959
0.00414024
-0.00165075
0.00437858
-0.00179924
0.00462706
-0.00195399
0.004885
-0.00211349
0.0051515
-0.00227578
0.00542542
-0.00243838
0.00570536
-0.00259828
0.00598968
-0.00275195
0.00627649
-0.00289537
0.00656372
-0.00302413
0.00684915
-0.00313352
0.00713054
-0.00321867
0.0074058
-0.00327468
0.00767331
-0.00329668
0.00793244
-0.00327876
0.00818347
-0.00321811
0.0084309
-0.00308951
0.00867632
-0.00295261
-0.00250997
0.00334338
-0.000679634
-0.00321484
0.00347884
-0.000748407
0.00362151
-0.000823954
0.00377169
-0.000906731
0.00392963
-0.000997211
0.00409558
-0.00109581
0.00426977
-0.00120284
0.00445237
-0.00131855
0.00464351
-0.00144302
0.00484321
-0.0015762
0.00505142
-0.00171779
0.00526793
-0.00186726
0.00549243
-0.00202374
0.00572441
-0.00218598
0.00596324
-0.00235232
0.00620807
-0.00252061
0.00645788
-0.00268819
0.00671146
-0.00285185
0.00696739
-0.00300789
0.00722412
-0.0031521
0.0074799
-0.00327992
0.00773292
-0.00338653
0.00798132
-0.00346707
0.0082234
-0.00351676
0.00845783
-0.0035311
0.00868415
-0.00350508
0.00890282
-0.00343678
0.00911837
-0.00330506
0.00933233
-0.00316657
-0.00274779
0.00476616
-0.000809017
-0.00463678
0.00490164
-0.000883889
0.00504335
-0.000965664
0.00519139
-0.00105477
0.0053458
-0.00115162
0.00550661
-0.00125662
0.00567383
-0.00137006
0.00584738
-0.00149211
0.00602719
-0.00162283
0.00621308
-0.00176209
0.00640482
-0.00190953
0.00660209
-0.00206453
0.00680447
-0.00222612
0.00701144
-0.00239295
0.00722238
-0.00256326
0.00743655
-0.00273478
0.0076531
-0.00290474
0.00787108
-0.00306984
0.00808944
-0.00322625
0.00830705
-0.0033697
0.00852268
-0.00349555
0.00873509
-0.00359894
0.008943
-0.00367499
0.0091453
-0.00371906
0.00934111
-0.00372692
0.0095303
-0.00369427
0.00971353
-0.00362001
0.00989507
-0.0034866
0.0100764
-0.00334791
-0.00295483
0.0064828
-0.000932375
-0.00635944
0.00661112
-0.00101221
0.00674439
-0.00109893
0.00688254
-0.00119291
0.00702544
-0.00129453
0.00717293
-0.00140411
0.0073248
-0.00152193
0.0074808
-0.00164811
0.00764064
-0.00178267
0.00780397
-0.00192542
0.0079704
-0.00207596
0.00813947
-0.0022336
0.0083107
-0.00239734
0.00848353
-0.00256579
0.0086574
-0.00273713
0.00883168
-0.00290907
0.00900576
-0.00307882
0.009179
-0.00324307
0.00935076
-0.00339801
0.00952043
-0.00353938
0.00968744
-0.00366256
0.00985122
-0.00376272
0.0100113
-0.00383505
0.0101672
-0.00387499
0.0103189
-0.00387855
0.0104665
-0.00384192
0.0106111
-0.00376464
0.0107567
-0.00363214
0.0109045
-0.00349572
-0.00312921
0.0084876
-0.00104187
-0.0083781
0.00860066
-0.00112527
0.00871715
-0.00121542
0.00883685
-0.00131261
0.00895948
-0.00141716
0.00908472
-0.00152935
0.0092122
-0.0016494
0.0093415
-0.00177741
0.00947217
-0.00191334
0.00960371
-0.00205697
0.00973562
-0.00220786
0.00986735
-0.00236533
0.00999835
-0.00252834
0.0101281
-0.00269553
0.0102561
-0.00286511
0.0103818
-0.00303482
0.010505
-0.00320197
0.0106252
-0.00336332
0.0107424
-0.00351518
0.0108564
-0.00365341
0.0109674
-0.00377355
0.0110756
-0.00387089
0.0111813
-0.00394073
0.0112849
-0.00397865
0.0113872
-0.0039808
0.011489
-0.00394371
0.0115917
-0.00386735
0.0116989
-0.00373937
0.0118119
-0.0036087
-0.00326938
0.0107512
-0.00112936
-0.0106637
0.0108407
-0.00121482
0.010932
-0.00130664
0.0110245
-0.00140518
0.0111181
-0.0015107
0.0112121
-0.00162343
0.0113063
-0.00174354
0.0114
-0.00187108
0.0114926
-0.00200598
0.0115836
-0.00214801
0.0116725
-0.00229672
0.0117586
-0.00245142
0.0118414
-0.00261112
0.0119203
-0.0027745
0.0119951
-0.00293987
0.0120654
-0.0031051
0.012131
-0.00326761
0.0121921
-0.00342438
0.0122488
-0.00357192
0.0123017
-0.00370633
0.0123516
-0.00382337
0.0123992
-0.00391857
0.012446
-0.00398745
0.012493
-0.00402571
0.0125419
-0.00402967
0.0125942
-0.00399606
0.0126519
-0.00392503
0.0127184
-0.00380583
0.0127947
-0.00368501
-0.00337378
0.0132091
-0.00118867
-0.0131498
0.0132684
-0.00127413
0.0133275
-0.00136572
0.013386
-0.00146365
0.0134434
-0.0015681
0.0134992
-0.00167927
0.0135529
-0.00179727
0.013604
-0.00192214
0.0136518
-0.00205378
0.0136957
-0.00219195
0.0137352
-0.00233621
0.0137697
-0.00248592
0.0137987
-0.00264014
0.0138219
-0.00279764
0.0138389
-0.00295687
0.0138496
-0.00311586
0.0138543
-0.00327225
0.0138532
-0.00342327
0.013847
-0.00356571
0.0138366
-0.00369598
0.0138234
-0.00381016
0.0138089
-0.00390409
0.013795
-0.00397356
0.0137838
-0.0040145
0.0137775
-0.00402337
0.0137785
-0.00399701
0.0137891
-0.00393563
0.0138127
-0.00382944
0.0138503
-0.00372261
-0.00344084
0.0157846
-0.00121276
-0.0157606
0.0158073
-0.00129676
0.015828
-0.00138643
0.0158463
-0.001482
0.0158619
-0.00158362
0.015874
-0.00169144
0.0158823
-0.00180553
0.0158861
-0.00192593
0.0158848
-0.00205252
0.0158779
-0.00218507
0.0158649
-0.00232317
0.0158452
-0.00246622
0.0158184
-0.00261339
0.0157844
-0.00276357
0.0157429
-0.00291535
0.015694
-0.00306699
0.0156381
-0.00321637
0.0155758
-0.00336101
0.0155082
-0.00349802
0.0154364
-0.00362419
0.0153621
-0.00373595
0.0152876
-0.00382952
0.015215
-0.00390101
0.0151471
-0.00394663
0.0150868
-0.00396298
0.0150368
-0.00394702
0.015
-0.00389887
0.0149799
-0.00380933
0.0149773
-0.00372003
-0.00346922
0.0183644
-0.00120014
-0.018377
0.0183488
-0.00128116
0.0183298
-0.00136743
0.018307
-0.00145914
0.0182798
-0.00155643
0.0182477
-0.0016594
0.0182103
-0.00176813
0.018167
-0.00188263
0.0181173
-0.00200279
0.0180606
-0.0021284
0.0179966
-0.00225911
0.0179248
-0.00239438
0.0178449
-0.00253349
0.0177568
-0.00267546
0.0176605
-0.00281907
0.0175563
-0.00296278
0.0174447
-0.00310476
0.0173265
-0.00324283
0.0172029
-0.00337444
0.0170755
-0.00349676
0.0169461
-0.00360661
0.0168172
-0.00370061
0.0166914
-0.00377521
0.0165717
-0.00382692
0.0164613
-0.00385256
0.0163634
-0.00384914
0.0162812
-0.00381669
0.0162182
-0.0037463
0.0161751
-0.00367697
-0.0034583
0.0208444
-0.00115388
-0.0208907
0.0207939
-0.00123061
0.0207386
-0.00131217
0.0206782
-0.00139875
0.0206122
-0.00149045
0.0205402
-0.00158737
0.0204616
-0.00168959
0.0203761
-0.00179711
0.0202832
-0.00190985
0.0201824
-0.00202764
0.0200735
-0.00215016
0.0199561
-0.00227697
0.01983
-0.00240746
0.0196954
-0.00254078
0.0195522
-0.00267591
0.0194009
-0.00281153
0.0192422
-0.00294605
0.019077
-0.00307761
0.0189066
-0.003204
0.0187326
-0.00332275
0.018557
-0.00343108
0.0183824
-0.00352597
0.0182114
-0.00360427
0.0180473
-0.00366277
0.0178933
-0.00369853
0.0177528
-0.00370866
0.0176291
-0.00369302
0.0175258
-0.00364293
0.0174434
-0.00359462
-0.00340841
0.0231498
-0.00108041
-0.0232233
0.023071
-0.00115184
0.0229866
-0.00122771
0.022896
-0.00130819
0.0227989
-0.00139339
0.022695
-0.0014834
0.0225837
-0.00157832
0.0224647
-0.00167814
0.0223377
-0.00178282
0.0222023
-0.00189221
0.0220582
-0.00200609
0.0219053
-0.00212408
0.0217435
-0.00224567
0.0215729
-0.00237018
0.0213937
-0.00249673
0.0212064
-0.00262424
0.0210117
-0.00275136
0.0208106
-0.0028765
0.0206044
-0.00299778
0.0203947
-0.00311307
0.0201836
-0.00321995
0.0199734
-0.00331578
0.0197669
-0.00339774
0.0195671
-0.00346296
0.0193773
-0.00350871
0.0192008
-0.0035322
0.019041
-0.0035332
0.0189012
-0.00350316
0.0187821
-0.00347549
-0.00332105
0.0252502
-0.000988201
-0.0253424
0.025152
-0.00105366
0.0250475
-0.00112318
0.0249362
-0.00119694
0.0248179
-0.00127504
0.0246921
-0.00135761
0.0245585
-0.00144472
0.0244168
-0.0015364
0.0242666
-0.00163264
0.0241077
-0.00173334
0.0239399
-0.00183832
0.0237632
-0.0019473
0.0235774
-0.00205988
0.0233827
-0.0021755
0.0231794
-0.00229346
0.022968
-0.00241284
0.0227492
-0.00253254
0.0225239
-0.00265121
0.0222934
-0.00276728
0.0220593
-0.0028789
0.0218233
-0.00298401
0.0215878
-0.0030803
0.0213554
-0.00316528
0.0211288
-0.00323638
0.0209112
-0.00329109
0.0207057
-0.00332676
0.0205156
-0.00334305
0.0203441
-0.00333164
0.0201916
-0.003323
-0.00319858
0.0271604
-0.000885886
-0.0272627
0.0270517
-0.000944998
0.0269364
-0.00100783
0.026814
-0.00107454
0.0266842
-0.00114525
0.0265467
-0.00122009
0.0264011
-0.00129915
0.0262472
-0.00138249
0.0260846
-0.0014701
0.0259133
-0.00156196
0.0257329
-0.00165793
0.0255434
-0.00175781
0.0253448
-0.0018613
0.0251373
-0.00196796
0.024921
-0.00207722
0.0246965
-0.00218836
0.0244644
-0.00230045
0.0242256
-0.00241238
0.0239812
-0.00252283
0.0237325
-0.00263025
0.0234814
-0.00273285
0.0232297
-0.00282864
0.0229799
-0.00291546
0.0227345
-0.00299097
0.0224963
-0.00305293
0.0222684
-0.00309882
0.0220535
-0.00312821
0.021855
-0.00313308
0.0216729
-0.00314097
-0.00304393
0.028928
-0.000780705
-0.0290332
0.0288164
-0.000833371
0.0286979
-0.000889419
0.0285724
-0.000948999
0.0284394
-0.00101225
0.0282986
-0.00107931
0.0281497
-0.00115026
0.0279924
-0.0012252
0.0278265
-0.00130416
0.0276517
-0.00138713
0.0274678
-0.00147404
0.0272747
-0.00156477
0.0270725
-0.00165908
0.0268612
-0.00175666
0.0266411
-0.00185705
0.0264124
-0.00195968
0.0261757
-0.00206381
0.0259319
-0.00216852
0.0256818
-0.00227271
0.0254266
-0.00237508
0.0251679
-0.00247412
0.0249073
-0.0025681
0.024647
-0.00265514
0.0243892
-0.00273319
0.0241365
-0.00280021
0.0238915
-0.00285384
0.0236569
-0.00289359
0.0234356
-0.00291183
0.0232279
-0.00293319
-0.00286032
0.0306142
-0.00067778
-0.0307171
0.0305049
-0.000724093
0.030389
-0.000773453
0.030266
-0.000826007
0.0301356
-0.000881897
0.0299976
-0.000941255
0.0298515
-0.0010042
0.0296971
-0.00107081
0.0295341
-0.00114117
0.0293623
-0.00121529
0.0291814
-0.00129316
0.0289913
-0.0013747
0.028792
-0.00145975
0.0285834
-0.00154809
0.0283657
-0.00163937
0.0281392
-0.00173315
0.0279042
-0.00182883
0.0276614
-0.00192568
0.0274115
-0.0020228
0.0271555
-0.00211909
0.0268946
-0.00221329
0.0266305
-0.00230394
0.0263647
-0.00238939
0.0260994
-0.00246785
0.0258367
-0.00253749
0.025579
-0.00259613
0.0253286
-0.00264325
0.0250885
-0.00267167
0.0248585
-0.00270319
-0.00265099
0.0322773
-0.000580118
-0.032375
0.0321735
-0.000620297
0.0320632
-0.000663187
0.0319462
-0.000708929
0.0318219
-0.000757665
0.0316902
-0.000809526
0.0315506
-0.000864632
0.0314029
-0.000923089
0.0312467
-0.000984977
0.0310818
-0.00105035
0.0309078
-0.00111922
0.0307247
-0.00119156
0.0305322
-0.00126728
0.0303304
-0.00134621
0.0301191
-0.00142812
0.0298986
-0.00151266
0.0296692
-0.00159938
0.0294312
-0.00168768
0.0291852
-0.00177684
0.0289321
-0.00186596
0.0286728
-0.00195399
0.0284086
-0.0020397
0.0281408
-0.00212167
0.0278713
-0.00219835
0.027602
-0.00226812
0.0273348
-0.00232899
0.027072
-0.00238042
0.0268161
-0.0024158
0.0265671
-0.00245416
-0.00241906
0.0339636
-0.000489078
-0.0340546
0.0338667
-0.000523406
0.0337636
-0.00056011
0.033654
-0.000599321
0.0335375
-0.000641172
0.0334138
-0.000685794
0.0332824
-0.000733306
0.0331432
-0.000783817
0.0329956
-0.000837419
0.0328394
-0.000894183
0.0326744
-0.000954149
0.0325001
-0.00101732
0.0323165
-0.00108366
0.0321233
-0.00115306
0.0319206
-0.00122535
0.0317082
-0.00130029
0.0314864
-0.00137753
0.0312553
-0.00145661
0.0310154
-0.00153694
0.0307672
-0.00161782
0.0305116
-0.00169837
0.0302495
-0.00177756
0.029982
-0.00185422
0.0297107
-0.00192699
0.029437
-0.00199447
0.0291629
-0.00205488
0.0288902
-0.00210769
0.0286213
-0.00214691
0.028356
-0.00218889
-0.00216744
0.0357062
-0.000404935
-0.0357903
0.0356165
-0.000433721
0.0355209
-0.000464545
0.0354191
-0.000497528
0.0353107
-0.000532792
0.0351954
-0.000570458
0.0350727
-0.000610642
0.0349424
-0.000653451
0.0348039
-0.00069898
0.034657
-0.000747308
0.0345014
-0.000798492
0.0343366
-0.000852561
0.0341625
-0.000909507
0.0339787
-0.000969276
0.0337851
-0.00103176
0.0335816
-0.00109678
0.0333681
-0.00116408
0.0331448
-0.00123332
0.0329119
-0.00130404
0.0326698
-0.00137567
0.0324189
-0.00144752
0.0321601
-0.00151874
0.0318943
-0.00158836
0.0316225
-0.00165524
0.0313462
-0.00171817
0.0310669
-0.00177561
0.0307863
-0.00182703
0.0305065
-0.00186718
0.0302275
-0.00190981
-0.00189873
0.0375291
-0.000327329
-0.0376067
0.0374462
-0.000350872
0.0373578
-0.000376117
0.0372634
-0.00040317
0.0371628
-0.000432139
0.0370555
-0.000463133
0.0369411
-0.000496256
0.0368192
-0.000531609
0.0366895
-0.000569284
0.0365516
-0.00060936
0.036405
-0.000651903
0.0362494
-0.000696953
0.0360844
-0.000744527
0.0359097
-0.000794603
0.0357251
-0.000847117
0.0355303
-0.00090195
0.0353251
-0.000958922
0.0351096
-0.00101778
0.0348837
-0.00107817
0.0346477
-0.00113967
0.0344019
-0.00120172
0.0341468
-0.00126365
0.0338831
-0.00132467
0.0336117
-0.00138385
0.0333337
-0.00144018
0.0330505
-0.00149235
0.0327633
-0.00153988
0.0324744
-0.00157829
0.0321835
-0.00161885
-0.00161512
0.0394521
-0.000255507
-0.0395239
0.0393753
-0.000274077
0.0392932
-0.000294014
0.0392054
-0.000315405
0.0391116
-0.000338344
0.0390114
-0.000362922
0.0389044
-0.000389229
0.0387901
-0.000417352
0.0386682
-0.000447375
0.0385382
-0.000479371
0.0383997
-0.000513404
0.0382523
-0.00054952
0.0380955
-0.000587747
0.037929
-0.000628084
0.0377524
-0.000670499
0.0375653
-0.000714917
0.0373676
-0.000761215
0.037159
-0.000809212
0.0369395
-0.000858659
0.0367091
-0.000909226
0.0364679
-0.000960496
0.0362162
-0.00101196
0.0359545
-0.00106299
0.0356835
-0.00111285
0.0354041
-0.00116075
0.0351173
-0.0012056
0.0348244
-0.001247
0.0345274
-0.00128128
0.0342259
-0.00131733
-0.00131823
0.0414944
-0.000188422
-0.0415615
0.0414226
-0.000202238
0.0413457
-0.000217085
0.0412633
-0.000233033
0.0411751
-0.000250154
0.0410807
-0.000268521
0.0409797
-0.000288206
0.0408716
-0.000309278
0.040756
-0.000331806
0.0406325
-0.000355852
0.0405006
-0.000381471
0.0403598
-0.000408706
0.0402096
-0.000437587
0.0400496
-0.000468125
0.0398795
-0.000500306
0.0396986
-0.000534088
0.0395068
-0.000569392
0.0393037
-0.000606096
0.0390891
-0.000644027
0.0388628
-0.000682953
0.0386249
-0.000722575
0.0383754
-0.000762518
0.0381148
-0.000802326
0.0378434
-0.000841454
0.0375619
-0.000879291
0.0372713
-0.000915018
0.0369726
-0.00094831
0.0366677
-0.000976363
0.0363562
-0.00100577
-0.00100893
0.0436775
-0.000124719
-0.0437413
0.0436092
-0.000133926
0.043536
-0.000143828
0.0434574
-0.000154474
0.0433732
-0.000165913
0.0432829
-0.000178195
0.043186
-0.000191372
0.0430822
-0.000205492
0.042971
-0.000220605
0.0428519
-0.000236755
0.0427244
-0.000253983
0.0425881
-0.000272323
0.0424423
-0.000291799
0.0422866
-0.000312424
0.0421205
-0.000334195
0.0419435
-0.00035709
0.0417551
-0.000381064
0.0415551
-0.000406042
0.041343
-0.000431916
0.0411186
-0.000458537
0.0408817
-0.000485712
0.0406324
-0.000513196
0.0403707
-0.000540688
0.0400971
-0.000567824
0.039812
-0.000594192
0.0395162
-0.000619239
0.0392106
-0.000642728
0.0388971
-0.000662771
0.038575
-0.000683711
-0.000687159
0.0460261
-6.26633e-05
-0.0460882
0.0459595
-6.73097e-05
0.045888
-7.23094e-05
0.0458112
-7.76872e-05
0.0457288
-8.34691e-05
0.0456402
-8.96811e-05
0.0455452
-9.63496e-05
0.0454432
-0.000103501
0.0453338
-0.000111159
0.0452164
-0.00011935
0.0450905
-0.000128095
0.0449556
-0.000137412
0.0448111
-0.000147315
0.0446565
-0.000157813
0.0444912
-0.000168907
0.0443147
-0.000180586
0.0441265
-0.000192832
0.043926
-0.000205607
0.043713
-0.00021886
0.043487
-0.000232519
0.0432477
-0.000246488
0.0429952
-0.000260644
0.0427293
-0.000274836
0.0424504
-0.000288881
0.0421588
-0.000302568
0.0418551
-0.000315617
0.0415403
-0.000327888
0.041216
-0.000338468
0.0408817
-0.000349391
-0.00035181
0.0485692
-0.0486319
0.0485019
0.0484296
0.0483519
0.0482685
0.0481788
0.0480824
0.0479789
0.0478678
0.0477484
0.0476203
0.0474829
0.0473356
0.0471778
0.0470089
0.0468283
0.0466355
0.0464298
0.046211
0.0459785
0.045732
0.0454713
0.0451965
0.0449076
0.0446051
0.0442894
0.0439615
0.0436231
0.0432737
-6.37331e-05
2.94391e-05
-0.000122401
0.000100532
-0.000176075
4.58422e-05
-0.000218429
-0.000168447
-0.000248822
-0.000574983
-0.000265846
-0.00120343
-0.000268338
-0.00207995
-0.000254761
-0.00322842
-0.000223507
-0.00466803
-0.000172754
-0.00641019
-0.000101682
-0.00844917
-1.41179e-05
-0.0107513
0.000106672
-0.0132706
0.000237385
-0.0158913
0.000371159
-0.0185108
0.00049943
-0.0210189
0.000613778
-0.0233376
0.000707712
-0.0254363
0.000777241
-0.0273322
0.000820637
-0.0290766
0.000837766
-0.0307343
0.000829373
-0.0323666
0.000796577
-0.0340218
0.00074062
-0.0357343
0.0006628
-0.0375289
0.000564485
-0.0394256
0.000447166
-0.0414442
0.000312539
-0.0436066
0.00016263
-0.0459383
-0.0484693
-3.91853e-05
6.86244e-05
-8.14313e-05
0.000142778
-0.000118707
8.31177e-05
-0.000149422
-0.000137731
-0.00017171
-0.000552696
-0.000183799
-0.00119134
-0.000184146
-0.0020796
-0.000170597
-0.00324197
-0.000141068
-0.00469756
-9.2872e-05
-0.00645839
-2.54659e-05
-0.00851658
6.94665e-05
-0.0108462
0.000181967
-0.0133831
0.000307864
-0.0160172
0.000438062
-0.018641
0.000562727
-0.0211436
0.000672888
-0.0234478
0.000761969
-0.0255254
0.000826188
-0.0273964
0.0008641
-0.0291145
0.000875816
-0.030746
0.000862232
-0.032353
0.000824538
-0.0339841
0.000763989
-0.0356738
0.000681863
-0.0374467
0.000579492
-0.0393232
0.000458316
-0.041323
0.000319964
-0.0434683
0.000166375
-0.0457847
-0.0483029
-2.04789e-05
8.91033e-05
-4.73313e-05
0.00016963
-7.30546e-05
0.000108841
-9.43569e-05
-0.000116429
-0.000109567
-0.000537486
-0.000117111
-0.00118379
-0.000115252
-0.00208146
-0.000101108
-0.00325611
-7.22225e-05
-0.00472644
-2.58633e-05
-0.00650475
4.54802e-05
-0.00858792
0.000141409
-0.0109421
0.000253566
-0.0134953
0.000378872
-0.0161425
0.000507538
-0.0187697
0.000629393
-0.0212655
0.000735491
-0.0235539
0.00081952
-0.0256094
0.000878088
-0.027455
0.000910133
-0.0291465
0.000916055
-0.0307519
0.000896924
-0.0323339
0.000854009
-0.0339412
0.00078858
-0.0356084
0.000701895
-0.0373601
0.000595242
-0.0392165
0.000470006
-0.0411978
0.000327742
-0.043326
0.000170297
-0.0456272
-0.0481326
-1.00637e-05
9.9167e-05
-2.43332e-05
0.0001839
-4.01924e-05
0.0001247
-5.38643e-05
-0.000102757
-6.336e-05
-0.00052799
-6.70101e-05
-0.00118014
-6.26599e-05
-0.00208581
-4.64875e-05
-0.00327228
-1.72345e-05
-0.0047557
3.54189e-05
-0.0065574
0.000112407
-0.00866491
0.000209613
-0.0110393
0.000324143
-0.0136098
0.000450532
-0.0162689
0.00057865
-0.0188978
0.000698161
-0.021385
0.000800311
-0.023656
0.000879196
-0.0256883
0.000931917
-0.0275077
0.000957856
-0.0291725
0.000957738
-0.0307518
0.000932827
-0.032309
0.000884478
-0.0338928
0.000813978
-0.0355379
0.000722564
-0.0372686
0.00061148
-0.0391055
0.00048205
-0.0410683
0.000335752
-0.0431797
0.000174334
-0.0454658
-0.0479583
-3.62748e-06
0.000102794
-9.69013e-06
0.000189963
-1.7439e-05
0.000132449
-2.4127e-05
-9.60689e-05
-2.81116e-05
-0.000524006
-2.749e-05
-0.00118077
-1.99998e-05
-0.0020933
-2.42307e-06
-0.00328986
3.81842e-05
-0.0047963
9.72213e-05
-0.00661644
0.000176993
-0.00874468
0.000277941
-0.0111403
0.000395882
-0.0137277
0.000524021
-0.016397
0.000651934
-0.0190257
0.000769194
-0.0215022
0.000867313
-0.0237541
0.000940871
-0.0257619
0.000987515
-0.0275544
0.00100711
-0.029192
0.00100071
-0.0307454
0.000969805
-0.032278
0.000915828
-0.0338389
0.000840088
-0.0354621
0.000743796
-0.0371723
0.000628149
-0.0389898
0.000494406
-0.0409346
0.000343966
-0.0430293
0.000178473
-0.0453003
-0.0477798
2.53821e-07
0.000102541
-1.01698e-06
0.000191233
-3.05249e-06
0.000134485
-3.95688e-06
-9.51645e-05
-2.6492e-06
-0.000525313
3.63904e-06
-0.00118705
2.02659e-05
-0.00210993
4.93013e-05
-0.00331889
9.26953e-05
-0.0048397
0.000156112
-0.00667986
0.000241115
-0.00882969
0.000347024
-0.0112462
0.000469077
-0.0138498
0.000599442
-0.0165274
0.000727385
-0.0191537
0.000842433
-0.0216173
0.000936418
-0.0238481
0.00100446
-0.0258299
0.0010448
-0.0275947
0.0010578
-0.0292051
0.00104491
-0.0307325
0.0010078
-0.0322409
0.000948013
-0.0337791
0.000866872
-0.035381
0.000765561
-0.037071
0.000645227
-0.0388695
0.000507061
-0.0407964
0.000352375
-0.0428746
0.000182709
-0.0451307
-0.0475971
2.48392e-06
0.000100057
6.36719e-06
0.00018735
1.11284e-05
0.000129723
1.71869e-05
-0.000101223
2.57691e-05
-0.000533896
3.92645e-05
-0.00120055
6.0332e-05
-0.002131
9.40874e-05
-0.00335265
0.000143751
-0.00488936
0.000213597
-0.0067497
0.000305102
-0.00892119
0.000416953
-0.011358
0.000543757
-0.0139766
0.000676792
-0.0166604
0.000804974
-0.0192818
0.000917827
-0.0217301
0.00100755
-0.0239378
0.00106988
-0.0258923
0.00110368
-0.0276285
0.00110987
-0.0292112
0.00109026
-0.0307129
0.00104676
-0.0321974
0.000980991
-0.0337133
0.000894297
-0.0352943
0.000787834
-0.0369646
0.000662694
-0.0387443
0.000519999
-0.0406537
0.000360971
-0.0427156
0.000187039
-0.0449567
-0.04741
3.86141e-06
9.61953e-05
1.17236e-05
0.000179488
2.15917e-05
0.000119855
3.3152e-05
-0.000112783
4.7652e-05
-0.000548396
6.7211e-05
-0.00122011
9.50081e-05
-0.00215879
0.000135574
-0.00339322
0.000192729
-0.00494652
0.000270191
-0.00682716
0.000369217
-0.00902022
0.000487865
-0.0114767
0.00062002
-0.0141087
0.000756122
-0.0167965
0.000884707
-0.0194104
0.000995336
-0.0218408
0.00108065
-0.0240232
0.00113705
-0.0259486
0.00116408
-0.0276555
0.00116323
-0.0292104
0.00113671
-0.0306864
0.00108663
-0.0321473
0.00101471
-0.0336414
0.000922327
-0.0352019
0.000810587
-0.0368528
0.000680532
-0.0386143
0.000533207
-0.0405064
0.000369743
-0.0425521
0.000191457
-0.0447784
-0.0472186
4.63887e-06
9.15564e-05
1.49784e-05
0.000169148
2.87581e-05
0.000106076
4.52627e-05
-0.000129288
6.55427e-05
-0.000568676
9.15609e-05
-0.00124613
0.000126565
-0.0021938
0.000174813
-0.00344146
0.000240291
-0.00501199
0.000326293
-0.00691317
0.000433724
-0.00912765
0.000559943
-0.0116029
0.00069801
-0.0142468
0.000837514
-0.016936
0.000966604
-0.0195395
0.00107493
-0.0219491
0.00115565
-0.0241039
0.00120589
-0.0259989
0.00122592
-0.0276756
0.00121781
-0.0292023
0.00118417
-0.0306527
0.00112734
-0.0320905
0.00104914
-0.0335632
0.000950923
-0.0351037
0.000833792
-0.0367357
0.000698718
-0.0384792
0.000546669
-0.0403544
0.000378684
-0.0423841
0.000195959
-0.0445957
-0.0470226
5.04985e-06
8.65066e-05
1.71283e-05
0.00015707
3.40874e-05
8.91165e-05
5.50315e-05
-0.000150232
8.08521e-05
-0.000594496
0.000113416
-0.00127869
0.000155925
-0.00223631
0.000212435
-0.00349797
0.000286901
-0.00508646
0.000382253
-0.00700852
0.000498907
-0.0092443
0.00063342
-0.0117374
0.000777903
-0.0143913
0.000921074
-0.0170792
0.0010507
-0.0196691
0.00115658
-0.022055
0.00123249
-0.0241798
0.00127631
-0.0260427
0.0012891
-0.0276884
0.00127352
-0.0291867
0.00123258
-0.0306118
0.00116884
-0.0320268
0.00108421
-0.0334786
0.000980048
-0.0349995
0.000857417
-0.0366131
0.000717229
-0.038339
0.00056037
-0.0401975
0.000387781
-0.0422115
0.00020054
-0.0444085
-0.0468221
5.27438e-06
8.12322e-05
1.86552e-05
0.000143689
3.82808e-05
6.94909e-05
6.32386e-05
-0.00017519
9.4354e-05
-0.000625612
0.00013345
-0.00131779
0.00018366
-0.00228652
0.000248893
-0.00356321
0.000332963
-0.00517053
0.00043843
-0.00711399
0.000565092
-0.00937096
0.000708572
-0.0118809
0.000859909
-0.0145426
0.00100692
-0.0172262
0.00113702
-0.0197992
0.00124027
-0.0221582
0.00131109
-0.0242506
0.00134822
-0.0260798
0.00135352
-0.0276937
0.00133026
-0.0291635
0.00128185
-0.0305634
0.00121106
-0.031956
0.00111987
-0.0333874
0.00100966
-0.0348893
0.00088143
-0.0364848
0.000736041
-0.0381936
0.000574293
-0.0400358
0.000397025
-0.0420342
0.000205195
-0.0442166
-0.0466169
5.40098e-06
7.58312e-05
1.98116e-05
0.000129278
4.17436e-05
4.75589e-05
7.03585e-05
-0.000203805
0.000106541
-0.000661795
0.000152132
-0.00136338
0.000210217
-0.0023446
0.000284594
-0.00363758
0.000378887
-0.00526482
0.000495229
-0.00723033
0.000632661
-0.0095084
0.000785725
-0.012034
0.000944268
-0.0147012
0.0010952
-0.0173771
0.00122563
-0.0199297
0.00132595
-0.0222585
0.00139137
-0.024316
0.00142153
-0.02611
0.00141909
-0.0276912
0.00138795
-0.0291323
0.0013319
-0.0305073
0.00125392
-0.031878
0.00115607
-0.0332895
0.0010397
-0.0347729
0.000905797
-0.0363509
0.000755128
-0.038043
0.000588418
-0.0398691
0.000406404
-0.0418522
0.000209917
-0.0440202
-0.046407
5.44885e-06
7.03824e-05
2.06929e-05
0.000114034
4.46991e-05
2.35526e-05
7.66905e-05
-0.000235796
0.000117765
-0.000702869
0.000169839
-0.00141545
0.000235999
-0.00241076
0.000319964
-0.00372155
0.000425128
-0.00536999
0.000553111
-0.00735831
0.000702051
-0.00965734
0.000865241
-0.0121971
0.00103124
-0.0148672
0.00118604
-0.0175319
0.00131655
-0.0200602
0.00141361
-0.0223556
0.00147327
-0.0243757
0.00149613
-0.0261329
0.0014857
-0.0276808
0.00144648
-0.0290931
0.00138265
-0.0304435
0.00129737
-0.0317927
0.00119275
-0.0331849
0.00107014
-0.0346503
0.00093048
-0.0362113
0.000774462
-0.0378869
0.000602726
-0.0396973
0.000415904
-0.0416654
0.000214701
-0.043819
-0.0461923
5.48779e-06
6.48946e-05
2.13963e-05
9.8126e-05
4.72729e-05
-2.324e-06
8.24352e-05
-0.000270958
0.00012831
-0.000748744
0.00018692
-0.00147406
0.000261417
-0.00248526
0.000355468
-0.0038156