/*--------------------------------*- C++ -*----------------------------------*\
  =========                 |
  \\      /  F ield         | OpenFOAM: The Open Source CFD Toolbox
   \\    /   O peration     | Website:  https://openfoam.org
    \\  /    A nd           | Version:  7
     \\/     M anipulation  |
\*---------------------------------------------------------------------------*/
FoamFile
{
    version     2.0;
    format      ascii;
    class       volVectorField;
    location    "5";
    object      U;
}
// * * * * * * * * * * * * * * * * * * * * * * * * * * * * * * * * * * * * * //

dimensions      [0 1 -1 0 0 0 0];

internalField   nonuniform List<vector> 
8400
(
(0.00808594 0.0023801 0)
(0.0162738 0.00349831 0)
(0.0258654 0.00339078 0)
(0.0364998 0.00220196 0)
(0.0480407 8.26388e-05 0)
(0.0605359 -0.00282544 0)
(0.0740773 -0.00640741 0)
(0.0887639 -0.0105689 0)
(0.104702 -0.0152277 0)
(0.121998 -0.0203058 0)
(0.140752 -0.0257271 0)
(0.161056 -0.0314134 0)
(0.182987 -0.0372814 0)
(0.206608 -0.0432396 0)
(0.231959 -0.049187 0)
(0.259056 -0.0550121 0)
(0.287886 -0.0605917 0)
(0.318404 -0.0657922 0)
(0.350527 -0.0704697 0)
(0.384137 -0.074471 0)
(0.419077 -0.0776351 0)
(0.455158 -0.0797914 0)
(0.492158 -0.0807582 0)
(0.52988 -0.0803255 0)
(0.567945 -0.0782793 0)
(0.60671 -0.0742297 0)
(0.644042 -0.0680901 0)
(0.685842 -0.0583737 0)
(0.714995 -0.0480427 0)
(0.775576 -0.0241482 0)
(-0.00188944 -0.014658 0)
(0.00500806 -0.0164342 0)
(0.0136068 -0.0183243 0)
(0.023598 -0.0206675 0)
(0.034914 -0.0236014 0)
(0.0475441 -0.0271506 0)
(0.0614881 -0.0312905 0)
(0.0767672 -0.0359701 0)
(0.0934238 -0.0411209 0)
(0.111513 -0.0466642 0)
(0.131096 -0.0525136 0)
(0.152229 -0.0585755 0)
(0.174963 -0.0647492 0)
(0.199334 -0.0709256 0)
(0.225359 -0.0769864 0)
(0.253031 -0.0828037 0)
(0.282315 -0.08824 0)
(0.31314 -0.09315 0)
(0.345404 -0.0973817 0)
(0.378964 -0.100779 0)
(0.413645 -0.103183 0)
(0.44924 -0.104433 0)
(0.485516 -0.104365 0)
(0.522262 -0.102794 0)
(0.559132 -0.0995408 0)
(0.596425 -0.0942433 0)
(0.632253 -0.086907 0)
(0.672109 -0.0758724 0)
(0.69997 -0.0647093 0)
(0.7585 -0.0389052 0)
(0.00363588 -0.0301079 0)
(0.010821 -0.034547 0)
(0.0194903 -0.0388355 0)
(0.0293351 -0.0431889 0)
(0.0405134 -0.0477596 0)
(0.0531053 -0.0526258 0)
(0.0671209 -0.0578238 0)
(0.0825698 -0.0633585 0)
(0.099474 -0.0692053 0)
(0.117862 -0.0753144 0)
(0.137764 -0.0816152 0)
(0.159206 -0.0880195 0)
(0.182209 -0.0944242 0)
(0.206781 -0.100713 0)
(0.232911 -0.106757 0)
(0.260567 -0.112418 0)
(0.289689 -0.117547 0)
(0.320185 -0.12199 0)
(0.351931 -0.125591 0)
(0.384767 -0.128194 0)
(0.418499 -0.129646 0)
(0.452911 -0.129799 0)
(0.487761 -0.12851 0)
(0.522831 -0.12563 0)
(0.557803 -0.121014 0)
(0.592921 -0.114353 0)
(0.626554 -0.105706 0)
(0.66371 -0.0933968 0)
(0.689719 -0.0812737 0)
(0.745065 -0.0539685 0)
(0.0240993 -0.0498322 0)
(0.0321527 -0.0557643 0)
(0.0416719 -0.0616436 0)
(0.0520282 -0.0675433 0)
(0.0634884 -0.0735414 0)
(0.0762405 -0.0796779 0)
(0.0903398 -0.0859723 0)
(0.105818 -0.0924281 0)
(0.122709 -0.0990276 0)
(0.141043 -0.10573 0)
(0.160839 -0.112474 0)
(0.18211 -0.119175 0)
(0.204858 -0.125732 0)
(0.229067 -0.132025 0)
(0.254707 -0.137922 0)
(0.281724 -0.143276 0)
(0.310039 -0.147935 0)
(0.339541 -0.15174 0)
(0.370092 -0.154533 0)
(0.40152 -0.156161 0)
(0.433622 -0.15648 0)
(0.466174 -0.155361 0)
(0.498936 -0.152687 0)
(0.531686 -0.148343 0)
(0.564134 -0.142229 0)
(0.596472 -0.134105 0)
(0.627318 -0.124065 0)
(0.661151 -0.110512 0)
(0.684829 -0.0973944 0)
(0.735986 -0.0689757 0)
(0.0599443 -0.0742877 0)
(0.0689332 -0.0809906 0)
(0.0794187 -0.0877761 0)
(0.0904753 -0.0946517 0)
(0.102403 -0.101632 0)
(0.115441 -0.108708 0)
(0.129663 -0.115862 0)
(0.145111 -0.123068 0)
(0.161828 -0.13029 0)
(0.17985 -0.137475 0)
(0.199201 -0.144555 0)
(0.219887 -0.151441 0)
(0.241901 -0.158027 0)
(0.26522 -0.164191 0)
(0.2898 -0.169795 0)
(0.315575 -0.174691 0)
(0.342455 -0.178722 0)
(0.370322 -0.181727 0)
(0.399031 -0.183552 0)
(0.428405 -0.184048 0)
(0.458245 -0.183084 0)
(0.488329 -0.180551 0)
(0.518423 -0.176358 0)
(0.548311 -0.170433 0)
(0.577731 -0.162719 0)
(0.606828 -0.153055 0)
(0.634449 -0.141572 0)
(0.664525 -0.126817 0)
(0.685529 -0.1127 0)
(0.731713 -0.0835837 0)
(0.111019 -0.103175 0)
(0.12069 -0.110217 0)
(0.131923 -0.11743 0)
(0.143544 -0.124793 0)
(0.155844 -0.132286 0)
(0.169078 -0.139874 0)
(0.183316 -0.147509 0)
(0.198588 -0.155137 0)
(0.214935 -0.162698 0)
(0.23239 -0.170121 0)
(0.250976 -0.177318 0)
(0.270697 -0.18419 0)
(0.291545 -0.19062 0)
(0.31349 -0.196479 0)
(0.336485 -0.201623 0)
(0.360463 -0.205899 0)
(0.385332 -0.209148 0)
(0.410975 -0.211211 0)
(0.437252 -0.211933 0)
(0.463997 -0.211177 0)
(0.49102 -0.208822 0)
(0.518115 -0.204778 0)
(0.545065 -0.198986 0)
(0.571669 -0.191411 0)
(0.597695 -0.182046 0)
(0.623249 -0.170808 0)
(0.64738 -0.157868 0)
(0.673479 -0.141963 0)
(0.691636 -0.126871 0)
(0.732346 -0.0974675 0)
(0.176658 -0.135756 0)
(0.186629 -0.14283 0)
(0.198217 -0.150111 0)
(0.210062 -0.157563 0)
(0.222424 -0.165156 0)
(0.235563 -0.17284 0)
(0.249532 -0.180551 0)
(0.264342 -0.18822 0)
(0.280018 -0.195767 0)
(0.296583 -0.203102 0)
(0.314051 -0.210124 0)
(0.33242 -0.216717 0)
(0.351678 -0.222754 0)
(0.371795 -0.228095 0)
(0.392723 -0.232589 0)
(0.414398 -0.236079 0)
(0.436735 -0.238402 0)
(0.45963 -0.2394 0)
(0.482956 -0.238922 0)
(0.506566 -0.236837 0)
(0.530298 -0.233038 0)
(0.553971 -0.227451 0)
(0.577398 -0.220044 0)
(0.600404 -0.210819 0)
(0.62279 -0.199815 0)
(0.64464 -0.187026 0)
(0.665176 -0.172667 0)
(0.687273 -0.155685 0)
(0.702569 -0.139674 0)
(0.737607 -0.110346 0)
(0.255834 -0.170872 0)
(0.265671 -0.177727 0)
(0.277138 -0.184785 0)
(0.288757 -0.192005 0)
(0.300749 -0.19935 0)
(0.313369 -0.206766 0)
(0.326655 -0.214184 0)
(0.340598 -0.221525 0)
(0.3552 -0.228701 0)
(0.370471 -0.235611 0)
(0.38641 -0.242143 0)
(0.403008 -0.24817 0)
(0.420245 -0.253555 0)
(0.438087 -0.258152 0)
(0.456492 -0.261802 0)
(0.4754 -0.264345 0)
(0.494738 -0.265616 0)
(0.514419 -0.265459 0)
(0.534339 -0.263726 0)
(0.554384 -0.260291 0)
(0.574422 -0.255058 0)
(0.594314 -0.247969 0)
(0.613914 -0.239011 0)
(0.633087 -0.228218 0)
(0.651675 -0.21567 0)
(0.669754 -0.201427 0)
(0.686696 -0.185751 0)
(0.704901 -0.167799 0)
(0.717443 -0.150966 0)
(0.746877 -0.122001 0)
(0.347138 -0.207072 0)
(0.356398 -0.213474 0)
(0.367243 -0.220052 0)
(0.378147 -0.226764 0)
(0.389286 -0.233566 0)
(0.400902 -0.240404 0)
(0.413024 -0.247209 0)
(0.425624 -0.253902 0)
(0.438688 -0.260389 0)
(0.452206 -0.266565 0)
(0.466166 -0.272314 0)
(0.480548 -0.277505 0)
(0.495324 -0.281998 0)
(0.51046 -0.28564 0)
(0.525912 -0.288274 0)
(0.541631 -0.289737 0)
(0.557557 -0.289865 0)
(0.573624 -0.288504 0)
(0.589757 -0.285512 0)
(0.605876 -0.280767 0)
(0.621893 -0.274183 0)
(0.637716 -0.265712 0)
(0.653251 -0.255356 0)
(0.668413 -0.24317 0)
(0.683099 -0.229266 0)
(0.697388 -0.213756 0)
(0.710787 -0.196946 0)
(0.725274 -0.178183 0)
(0.735219 -0.160673 0)
(0.759305 -0.132281 0)
(0.448622 -0.242597 0)
(0.456867 -0.248327 0)
(0.466584 -0.254199 0)
(0.476277 -0.260166 0)
(0.486071 -0.26618 0)
(0.49619 -0.272188 0)
(0.506657 -0.278124 0)
(0.517429 -0.283907 0)
(0.528477 -0.289448 0)
(0.53978 -0.294641 0)
(0.551313 -0.299372 0)
(0.563048 -0.303511 0)
(0.57495 -0.306919 0)
(0.586984 -0.309447 0)
(0.599109 -0.31094 0)
(0.611285 -0.311238 0)
(0.623466 -0.310185 0)
(0.635609 -0.307628 0)
(0.647669 -0.303434 0)
(0.659603 -0.297487 0)
(0.671368 -0.289708 0)
(0.682925 -0.280054 0)
(0.694238 -0.268538 0)
(0.705278 -0.255227 0)
(0.716 -0.240249 0)
(0.726507 -0.223754 0)
(0.736431 -0.206082 0)
(0.747378 -0.186739 0)
(0.754876 -0.168755 0)
(0.773953 -0.141089 0)
(0.557444 -0.275419 0)
(0.564262 -0.280306 0)
(0.57237 -0.28529 0)
(0.580382 -0.290328 0)
(0.588372 -0.295368 0)
(0.59654 -0.300358 0)
(0.604898 -0.305235 0)
(0.6134 -0.309924 0)
(0.622005 -0.314338 0)
(0.630682 -0.318378 0)
(0.6394 -0.321933 0)
(0.648124 -0.324882 0)
(0.656818 -0.327092 0)
(0.665444 -0.328421 0)
(0.67397 -0.328721 0)
(0.682361 -0.327843 0)
(0.69059 -0.325637 0)
(0.698634 -0.321963 0)
(0.706476 -0.316693 0)
(0.71411 -0.309721 0)
(0.721537 -0.300972 0)
(0.728768 -0.290409 0)
(0.73582 -0.278047 0)
(0.742725 -0.263956 0)
(0.749501 -0.248271 0)
(0.756276 -0.231158 0)
(0.762805 -0.212976 0)
(0.77037 -0.193353 0)
(0.775535 -0.175161 0)
(0.789948 -0.14835 0)
(0.669627 -0.303109 0)
(0.674684 -0.307085 0)
(0.680781 -0.311106 0)
(0.686715 -0.315132 0)
(0.692521 -0.319114 0)
(0.698364 -0.323002 0)
(0.704253 -0.326739 0)
(0.710139 -0.330254 0)
(0.715975 -0.333469 0)
(0.721727 -0.336293 0)
(0.72736 -0.338624 0)
(0.732838 -0.34035 0)
(0.738124 -0.341348 0)
(0.743185 -0.341491 0)
(0.747994 -0.340642 0)
(0.752528 -0.338664 0)
(0.756773 -0.335421 0)
(0.760726 -0.330784 0)
(0.764396 -0.324636 0)
(0.767808 -0.316882 0)
(0.770999 -0.30745 0)
(0.774023 -0.296308 0)
(0.776948 -0.283469 0)
(0.779855 -0.268998 0)
(0.782817 -0.253026 0)
(0.785995 -0.23572 0)
(0.789254 -0.21744 0)
(0.793598 -0.197896 0)
(0.796519 -0.179813 0)
(0.806576 -0.153995 0)
(0.779767 -0.323845 0)
(0.782821 -0.326835 0)
(0.78671 -0.329837 0)
(0.790359 -0.332813 0)
(0.793777 -0.335711 0)
(0.797104 -0.338484 0)
(0.800346 -0.34108 0)
(0.803456 -0.343436 0)
(0.806388 -0.34548 0)
(0.809108 -0.34713 0)
(0.81158 -0.348294 0)
(0.813773 -0.348873 0)
(0.815654 -0.348757 0)
(0.817197 -0.347833 0)
(0.818381 -0.345978 0)
(0.819196 -0.343072 0)
(0.819642 -0.338992 0)
(0.819732 -0.333625 0)
(0.819496 -0.326865 0)
(0.818981 -0.318627 0)
(0.818256 -0.308846 0)
(0.817404 -0.297491 0)
(0.816529 -0.28457 0)
(0.815753 -0.27014 0)
(0.815192 -0.25432 0)
(0.815031 -0.237264 0)
(0.815233 -0.219318 0)
(0.81656 -0.200239 0)
(0.817335 -0.182608 0)
(0.823319 -0.157951 0)
(0.882801 -0.335639 0)
(0.883781 -0.337713 0)
(0.885277 -0.339773 0)
(0.886502 -0.341784 0)
(0.887444 -0.343697 0)
(0.888201 -0.345464 0)
(0.888773 -0.347041 0)
(0.889117 -0.34837 0)
(0.889194 -0.349388 0)
(0.88897 -0.350024 0)
(0.888414 -0.350196 0)
(0.887499 -0.349817 0)
(0.886198 -0.348793 0)
(0.884493 -0.347023 0)
(0.882371 -0.344403 0)
(0.879832 -0.340826 0)
(0.876887 -0.336186 0)
(0.873562 -0.330384 0)
(0.869902 -0.323329 0)
(0.865971 -0.314941 0)
(0.861852 -0.305166 0)
(0.857651 -0.293971 0)
(0.853494 -0.28136 0)
(0.849525 -0.267378 0)
(0.845891 -0.252127 0)
(0.842785 -0.23574 0)
(0.840257 -0.218538 0)
(0.838843 -0.200297 0)
(0.837625 -0.18345 0)
(0.839826 -0.160144 0)
(0.972697 -0.336969 0)
(0.971746 -0.338373 0)
(0.97102 -0.339733 0)
(0.97 -0.34102 0)
(0.968671 -0.342188 0)
(0.96709 -0.343198 0)
(0.965251 -0.344007 0)
(0.963119 -0.344568 0)
(0.960659 -0.344825 0)
(0.957843 -0.344717 0)
(0.954647 -0.344175 0)
(0.951048 -0.343124 0)
(0.947028 -0.341484 0)
(0.942574 -0.339169 0)
(0.937684 -0.336091 0)
(0.932364 -0.332159 0)
(0.926635 -0.327283 0)
(0.920531 -0.321376 0)
(0.914107 -0.31436 0)
(0.907432 -0.306166 0)
(0.900601 -0.296742 0)
(0.893726 -0.286059 0)
(0.886942 -0.274113 0)
(0.880401 -0.260938 0)
(0.874264 -0.246616 0)
(0.868721 -0.231256 0)
(0.86389 -0.215147 0)
(0.860098 -0.198065 0)
(0.857108 -0.182292 0)
(0.855863 -0.160523 0)
(1.04523 -0.328335 0)
(1.04272 -0.329287 0)
(1.04018 -0.330175 0)
(1.03733 -0.330976 0)
(1.03416 -0.331649 0)
(1.0307 -0.33216 0)
(1.02692 -0.332473 0)
(1.02282 -0.332546 0)
(1.01835 -0.332334 0)
(1.01349 -0.331783 0)
(1.00824 -0.330835 0)
(1.00257 -0.329427 0)
(0.996465 -0.327492 0)
(0.989928 -0.324958 0)
(0.98296 -0.321749 0)
(0.975573 -0.31779 0)
(0.967794 -0.313002 0)
(0.959661 -0.307313 0)
(0.95123 -0.300654 0)
(0.942575 -0.292965 0)
(0.933788 -0.284198 0)
(0.924982 -0.274323 0)
(0.916288 -0.263333 0)
(0.907855 -0.251249 0)
(0.899845 -0.238133 0)
(0.892432 -0.224072 0)
(0.885786 -0.209318 0)
(0.880038 -0.193636 0)
(0.87556 -0.179155 0)
(0.871266 -0.159081 0)
(1.09867 -0.31108 0)
(1.09506 -0.31179 0)
(1.09125 -0.31243 0)
(1.08712 -0.312977 0)
(1.08267 -0.313399 0)
(1.0779 -0.313667 0)
(1.0728 -0.313748 0)
(1.06735 -0.313609 0)
(1.06152 -0.313208 0)
(1.05529 -0.312501 0)
(1.04867 -0.31144 0)
(1.04163 -0.309971 0)
(1.03417 -0.308037 0)
(1.02628 -0.305578 0)
(1.01798 -0.302531 0)
(1.00929 -0.298831 0)
(1.00022 -0.294412 0)
(0.990825 -0.289212 0)
(0.981152 -0.283169 0)
(0.971272 -0.276231 0)
(0.961272 -0.268353 0)
(0.951257 -0.259505 0)
(0.941348 -0.249675 0)
(0.931683 -0.238874 0)
(0.922415 -0.227147 0)
(0.913693 -0.214556 0)
(0.905727 -0.201319 0)
(0.898462 -0.187189 0)
(0.892811 -0.174135 0)
(0.885913 -0.155862 0)
(1.13391 -0.287415 0)
(1.12972 -0.288049 0)
(1.12519 -0.288613 0)
(1.12034 -0.28909 0)
(1.11519 -0.289454 0)
(1.10972 -0.289678 0)
(1.1039 -0.289736 0)
(1.09773 -0.289597 0)
(1.09118 -0.289229 0)
(1.08425 -0.288592 0)
(1.07693 -0.287645 0)
(1.0692 -0.286345 0)
(1.06107 -0.284641 0)
(1.05253 -0.282484 0)
(1.0436 -0.279819 0)
(1.03429 -0.276591 0)
(1.02464 -0.272743 0)
(1.01466 -0.268221 0)
(1.00443 -0.262971 0)
(0.993989 -0.256944 0)
(0.983426 -0.2501 0)
(0.97283 -0.242407 0)
(0.96231 -0.233848 0)
(0.951986 -0.224427 0)
(0.941999 -0.214173 0)
(0.932468 -0.203126 0)
(0.923632 -0.191476 0)
(0.915268 -0.17896 0)
(0.908753 -0.167386 0)
(0.899718 -0.150958 0)
(1.15391 -0.259844 0)
(1.14954 -0.260502 0)
(1.14478 -0.261101 0)
(1.13972 -0.261624 0)
(1.13437 -0.262051 0)
(1.1287 -0.262359 0)
(1.1227 -0.262526 0)
(1.11634 -0.262526 0)
(1.10963 -0.262329 0)
(1.10255 -0.261904 0)
(1.09508 -0.261215 0)
(1.08723 -0.260224 0)
(1.079 -0.25889 0)
(1.07038 -0.257168 0)
(1.06139 -0.255013 0)
(1.05203 -0.252375 0)
(1.04233 -0.249207 0)
(1.03233 -0.24546 0)
(1.02207 -0.241084 0)
(1.01159 -0.236037 0)
(1.00097 -0.230279 0)
(0.990284 -0.223779 0)
(0.979623 -0.216515 0)
(0.969091 -0.208484 0)
(0.958813 -0.199702 0)
(0.948876 -0.190193 0)
(0.939545 -0.180114 0)
(0.930443 -0.1692 0)
(0.92334 -0.159093 0)
(0.912621 -0.144497 0)
(1.16259 -0.230636 0)
(1.15835 -0.231362 0)
(1.15372 -0.232041 0)
(1.1488 -0.232661 0)
(1.14361 -0.233203 0)
(1.13811 -0.233651 0)
(1.1323 -0.233985 0)
(1.12616 -0.234182 0)
(1.11967 -0.234217 0)
(1.11283 -0.234063 0)
(1.10563 -0.23369 0)
(1.09807 -0.233064 0)
(1.09013 -0.232151 0)
(1.08183 -0.230912 0)
(1.07317 -0.229307 0)
(1.06416 -0.227294 0)
(1.05481 -0.224828 0)
(1.04516 -0.221868 0)
(1.03523 -0.218368 0)
(1.02508 -0.214289 0)
(1.01475 -0.209593 0)
(1.00431 -0.204248 0)
(0.993843 -0.198232 0)
(0.983423 -0.191532 0)
(0.973163 -0.184156 0)
(0.963122 -0.176112 0)
(0.953583 -0.167533 0)
(0.944035 -0.158151 0)
(0.936574 -0.149447 0)
(0.924585 -0.136624 0)
(1.16379 -0.201521 0)
(1.15986 -0.202313 0)
(1.15557 -0.203073 0)
(1.151 -0.20379 0)
(1.14619 -0.20445 0)
(1.1411 -0.205039 0)
(1.13571 -0.205539 0)
(1.13001 -0.205933 0)
(1.12398 -0.206197 0)
(1.11762 -0.20631 0)
(1.11093 -0.206245 0)
(1.10388 -0.205974 0)
(1.09649 -0.205466 0)
(1.08874 -0.204688 0)
(1.08065 -0.203606 0)
(1.07221 -0.20218 0)
(1.06344 -0.200375 0)
(1.05436 -0.198149 0)
(1.045 -0.195464 0)
(1.03538 -0.192282 0)
(1.02556 -0.188567 0)
(1.01558 -0.184287 0)
(1.0055 -0.179418 0)
(0.9954 -0.173944 0)
(0.985364 -0.167863 0)
(0.975429 -0.161172 0)
(0.965889 -0.153981 0)
(0.956124 -0.146026 0)
(0.948485 -0.138628 0)
(0.935592 -0.127491 0)
(1.16058 -0.173592 0)
(1.15706 -0.174425 0)
(1.15319 -0.17524 0)
(1.14909 -0.176026 0)
(1.14475 -0.176774 0)
(1.14016 -0.177471 0)
(1.13529 -0.178103 0)
(1.13013 -0.178655 0)
(1.12467 -0.179108 0)
(1.1189 -0.179443 0)
(1.11282 -0.179638 0)
(1.1064 -0.179668 0)
(1.09966 -0.179507 0)
(1.09257 -0.179126 0)
(1.08515 -0.178495 0)
(1.07739 -0.177581 0)
(1.06931 -0.176351 0)
(1.06091 -0.174768 0)
(1.05221 -0.172798 0)
(1.04324 -0.170405 0)
(1.03402 -0.167556 0)
(1.02461 -0.164219 0)
(1.01504 -0.16037 0)
(1.00538 -0.155988 0)
(0.995692 -0.151067 0)
(0.985999 -0.145594 0)
(0.976601 -0.139657 0)
(0.966793 -0.133006 0)
(0.959112 -0.126803 0)
(0.945626 -0.117246 0)
(1.1551 -0.147409 0)
(1.15198 -0.148247 0)
(1.14857 -0.149078 0)
(1.14493 -0.149893 0)
(1.14109 -0.150685 0)
(1.13701 -0.151444 0)
(1.13268 -0.152158 0)
(1.12809 -0.152814 0)
(1.12321 -0.153398 0)
(1.11805 -0.153892 0)
(1.11259 -0.154278 0)
(1.10683 -0.154536 0)
(1.10075 -0.154643 0)
(1.09435 -0.154575 0)
(1.08762 -0.154305 0)
(1.08056 -0.153805 0)
(1.07318 -0.153046 0)
(1.06548 -0.151995 0)
(1.05747 -0.150622 0)
(1.04918 -0.148895 0)
(1.04061 -0.146781 0)
(1.0318 -0.144253 0)
(1.02279 -0.141283 0)
(1.01362 -0.13785 0)
(1.00436 -0.133944 0)
(0.994998 -0.129544 0)
(0.985839 -0.124723 0)
(0.976114 -0.119244 0)
(0.968494 -0.114119 0)
(0.954675 -0.106028 0)
(1.14863 -0.123157 0)
(1.14589 -0.123964 0)
(1.1429 -0.124772 0)
(1.13972 -0.125574 0)
(1.13634 -0.126365 0)
(1.13274 -0.127137 0)
(1.12892 -0.127879 0)
(1.12486 -0.128582 0)
(1.12054 -0.129234 0)
(1.11595 -0.12982 0)
(1.11109 -0.130326 0)
(1.10594 -0.130734 0)
(1.10049 -0.131026 0)
(1.09474 -0.131182 0)
(1.08867 -0.131178 0)
(1.08229 -0.130991 0)
(1.07558 -0.130594 0)
(1.06856 -0.129962 0)
(1.06122 -0.129066 0)
(1.05358 -0.127877 0)
(1.04565 -0.126367 0)
(1.03745 -0.124509 0)
(1.02901 -0.122278 0)
(1.02036 -0.119651 0)
(1.01155 -0.116615 0)
(1.00256 -0.113147 0)
(0.993702 -0.109302 0)
(0.984153 -0.104867 0)
(0.976669 -0.100703 0)
(0.962725 -0.0939659 0)
(1.14194 -0.100798 0)
(1.13954 -0.101541 0)
(1.13693 -0.102291 0)
(1.13414 -0.103042 0)
(1.13117 -0.103789 0)
(1.12801 -0.104527 0)
(1.12464 -0.105249 0)
(1.12105 -0.105945 0)
(1.11723 -0.106607 0)
(1.11316 -0.107222 0)
(1.10884 -0.10778 0)
(1.10424 -0.108266 0)
(1.09937 -0.108664 0)
(1.0942 -0.108959 0)
(1.08874 -0.10913 0)
(1.08297 -0.109159 0)
(1.07689 -0.109024 0)
(1.07049 -0.108701 0)
(1.06377 -0.108166 0)
(1.05675 -0.107395 0)
(1.04941 -0.106364 0)
(1.04179 -0.105047 0)
(1.0339 -0.10342 0)
(1.02575 -0.101464 0)
(1.0174 -0.0991612 0)
(1.00881 -0.0964895 0)
(1.00028 -0.0934909 0)
(0.990968 -0.0899763 0)
(0.983668 -0.0866632 0)
(0.96976 -0.0811717 0)
(1.13551 -0.0801652 0)
(1.1334 -0.0808168 0)
(1.13111 -0.0814776 0)
(1.12866 -0.0821438 0)
(1.12605 -0.0828118 0)
(1.12326 -0.0834771 0)
(1.12028 -0.0841342 0)
(1.1171 -0.0847766 0)
(1.1137 -0.0853968 0)
(1.11008 -0.0859863 0)
(1.10622 -0.0865355 0)
(1.10211 -0.0870335 0)
(1.09773 -0.0874681 0)
(1.09308 -0.0878259 0)
(1.08815 -0.0880918 0)
(1.08292 -0.0882497 0)
(1.07738 -0.088282 0)
(1.07154 -0.0881698 0)
(1.06538 -0.0878932 0)
(1.0589 -0.0874316 0)
(1.05211 -0.0867638 0)
(1.04502 -0.0858686 0)
(1.03763 -0.0847255 0)
(1.02996 -0.0833147 0)
(1.02204 -0.0816215 0)
(1.01384 -0.0796231 0)
(1.00566 -0.0773505 0)
(0.996612 -0.0746438 0)
(0.989522 -0.0720819 0)
(0.97576 -0.0677349 0)
(1.12971 -0.0610067 0)
(1.12784 -0.061543 0)
(1.12581 -0.0620891 0)
(1.12364 -0.0626422 0)
(1.12132 -0.0631998 0)
(1.11884 -0.0637586 0)
(1.11618 -0.0643146 0)
(1.11333 -0.0648629 0)
(1.11029 -0.0653982 0)
(1.10704 -0.065914 0)
(1.10356 -0.0664031 0)
(1.09985 -0.0668574 0)
(1.0959 -0.0672676 0)
(1.09168 -0.0676235 0)
(1.08718 -0.0679135 0)
(1.08241 -0.0681252 0)
(1.07734 -0.068245 0)
(1.07196 -0.0682581 0)
(1.06628 -0.0681488 0)
(1.06028 -0.0679009 0)
(1.05396 -0.0674971 0)
(1.04732 -0.0669204 0)
(1.04038 -0.0661536 0)
(1.03313 -0.0651802 0)
(1.02561 -0.0639868 0)
(1.01777 -0.0625536 0)
(1.0099 -0.0609022 0)
(1.00113 -0.0589046 0)
(0.994252 -0.057006 0)
(0.980699 -0.053715 0)
(1.12486 -0.0429922 0)
(1.12318 -0.0433936 0)
(1.12135 -0.0438035 0)
(1.1194 -0.04422 0)
(1.1173 -0.0446415 0)
(1.11506 -0.0450658 0)
(1.11265 -0.0454901 0)
(1.11007 -0.0459112 0)
(1.1073 -0.0463252 0)
(1.10434 -0.0467279 0)
(1.10116 -0.0471141 0)
(1.09777 -0.0474782 0)
(1.09414 -0.0478137 0)
(1.09026 -0.0481133 0)
(1.08611 -0.048369 0)
(1.0817 -0.0485719 0)
(1.077 -0.0487121 0)
(1.072 -0.0487793 0)
(1.06669 -0.0487619 0)
(1.06107 -0.0486481 0)
(1.05513 -0.0484253 0)
(1.04887 -0.0480807 0)
(1.04229 -0.0476015 0)
(1.03539 -0.0469751 0)
(1.0282 -0.0461908 0)
(1.02067 -0.0452332 0)
(1.01308 -0.0441161 0)
(1.00456 -0.0427463 0)
(0.997868 -0.0414387 0)
(0.984538 -0.0391326 0)
(1.1213 -0.0256968 0)
(1.11974 -0.0259469 0)
(1.11805 -0.0262028 0)
(1.11625 -0.0264634 0)
(1.11431 -0.0267278 0)
(1.11223 -0.0269948 0)
(1.11 -0.0272626 0)
(1.1076 -0.0275294 0)
(1.10502 -0.027793 0)
(1.10226 -0.0280509 0)
(1.0993 -0.0282999 0)
(1.09613 -0.0285369 0)
(1.09273 -0.0287578 0)
(1.08908 -0.0289584 0)
(1.08519 -0.0291339 0)
(1.08103 -0.0292788 0)
(1.07659 -0.0293874 0)
(1.07185 -0.0294532 0)
(1.06682 -0.0294692 0)
(1.06147 -0.0294282 0)
(1.0558 -0.0293225 0)
(1.04981 -0.0291441 0)
(1.0435 -0.028885 0)
(1.03685 -0.0285372 0)
(1.02991 -0.0280938 0)
(1.02261 -0.0275449 0)
(1.01523 -0.0268978 0)
(1.0069 -0.0260971 0)
(1.00035 -0.0253266 0)
(0.987217 -0.0239598 0)
(1.11934 -0.00858173 0)
(1.11785 -0.00866706 0)
(1.11624 -0.00875446 0)
(1.11451 -0.00884358 0)
(1.11266 -0.00893412 0)
(1.11066 -0.00902565 0)
(1.10852 -0.00911766 0)
(1.10622 -0.00920951 0)
(1.10375 -0.00930047 0)
(1.1011 -0.00938969 0)
(1.09825 -0.00947619 0)
(1.09519 -0.00955884 0)
(1.09191 -0.00963636 0)
(1.0884 -0.00970731 0)
(1.08463 -0.00977008 0)
(1.08061 -0.00982286 0)
(1.07631 -0.00986368 0)
(1.07172 -0.00989039 0)
(1.06683 -0.00990066 0)
(1.06163 -0.00989201 0)
(1.05611 -0.00986183 0)
(1.05026 -0.00980741 0)
(1.04409 -0.00972601 0)
(1.03759 -0.00961487 0)
(1.03078 -0.00947154 0)
(1.02361 -0.00929276 0)
(1.01634 -0.00908032 0)
(1.00812 -0.00881673 0)
(1.00165 -0.00856035 0)
(0.988635 -0.00810831 0)
(-0.0031742 -0.00194513 2.24016e-19)
(-0.00944324 -0.0113375 -7.90665e-20)
(-0.00312452 -0.0227757 1.00631e-19)
(0.0171406 -0.040571 -2.50386e-19)
(0.0526182 -0.0640351 2.17531e-19)
(0.103443 -0.0925131 -2.15659e-19)
(0.169059 -0.125077 4.47315e-20)
(0.248509 -0.160512 -1.4486e-19)
(0.340407 -0.197365 2.27946e-19)
(0.44284 -0.233867 -1.11102e-19)
(0.552947 -0.267921 -7.88894e-21)
(0.666736 -0.296964 4.13674e-20)
(0.779147 -0.319166 1.21738e-20)
(0.884069 -0.332313 -2.15187e-20)
(0.975811 -0.334652 -2.67471e-20)
(1.04982 -0.326709 7.35914e-20)
(1.10425 -0.309841 -8.43657e-20)
(1.13997 -0.286322 9.7523e-20)
(1.15999 -0.258747 2.2188e-22)
(1.16837 -0.22947 -3.09339e-20)
(1.16908 -0.200282 -3.19689e-22)
(1.16532 -0.172315 -1.66245e-20)
(1.15929 -0.146141 3.44421e-20)
(1.15231 -0.121948 -3.74572e-20)
(1.14518 -0.0996918 7.66556e-21)
(1.13838 -0.0792015 6.23384e-21)
(1.13228 -0.060217 -1.89831e-21)
(1.1272 -0.0424031 1.24878e-21)
(1.12348 -0.0253306 -3.68525e-21)
(1.12144 -0.00845693 1.48955e-21)
(-0.00586623 4.37725e-05 -3.79833e-20)
(-0.0133283 -0.00355929 6.1804e-20)
(-0.00647314 -0.0131933 -8.94398e-20)
(0.0153548 -0.0296021 -5.49869e-20)
(0.0527454 -0.0523227 -1.83455e-19)
(0.105568 -0.0805925 1.81301e-19)
(0.173186 -0.113411 8.67965e-20)
(0.25465 -0.149508 -2.42544e-19)
(0.348535 -0.187356 2.01047e-19)
(0.452904 -0.225044 1.06324e-19)
(0.564785 -0.260293 -1.94909e-19)
(0.680199 -0.290618 -5.8625e-20)
(0.794163 -0.313758 1.15791e-19)
(0.899448 -0.327321 5.95167e-21)
(0.99084 -0.329924 -3.81911e-20)
(1.06391 -0.322066 2.07344e-20)
(1.11698 -0.305232 9.55419e-21)
(1.15118 -0.281788 9.53824e-21)
(1.1697 -0.254369 1.18579e-20)
(1.17672 -0.225335 -5.66689e-20)
(1.17626 -0.196457 6.02901e-20)
(1.17151 -0.168845 -3.1978e-20)
(1.16465 -0.143052 1.54348e-20)
(1.15699 -0.119254 -8.24335e-22)
(1.14929 -0.097401 -6.57455e-21)
(1.14202 -0.0773172 1.13009e-20)
(1.13555 -0.0587415 -8.03489e-21)
(1.1302 -0.0413393 2.159e-21)
(1.12629 -0.0246842 5.39329e-23)
(1.12415 -0.00823918 -1.72143e-22)
(-0.00912794 0.0023862 -2.03121e-21)
(-0.0167331 0.00273659 -2.32446e-19)
(-0.00956004 -0.00556714 1.32883e-19)
(0.0132432 -0.0209836 6.76352e-20)
(0.0518968 -0.0431674 1.00529e-19)
(0.106096 -0.0713043 -1.47155e-19)
(0.175173 -0.104364 1.20982e-20)
(0.258221 -0.140991 5.41474e-21)
(0.353723 -0.179558 -1.62626e-19)
(0.459821 -0.218027 2.2471e-19)
(0.573581 -0.254078 -1.57485e-19)
(0.690872 -0.285131 -9.39072e-21)
(0.806006 -0.308576 9.34541e-20)
(0.912136 -0.322165 -1.42522e-20)
(1.00374 -0.324767 1.26611e-20)
(1.07645 -0.316859 -1.35704e-20)
(1.12872 -0.30002 -1.44312e-20)
(1.16183 -0.276668 1.55233e-20)
(1.17915 -0.249455 3.79065e-21)
(1.185 -0.220725 1.51696e-20)
(1.18345 -0.192223 -3.74044e-22)
(1.17775 -0.16503 -1.4107e-20)
(1.17006 -0.139677 2.20397e-21)
(1.1617 -0.116328 3.21369e-21)
(1.15341 -0.0949256 -7.43256e-21)
(1.14566 -0.0752899 4.05304e-22)
(1.1388 -0.0571596 8.25789e-21)
(1.13315 -0.0402018 -3.20992e-21)
(1.12904 -0.0239945 3.17389e-22)
(1.1268 -0.00800707 -1.25263e-22)
(-0.011025 0.00394865 1.41528e-19)
(-0.0190751 0.00694434 7.14469e-20)
(-0.011871 -1.03164e-05 1.95244e-20)
(0.0114333 -0.0144235 -1.34038e-19)
(0.0508339 -0.0360902 1.34535e-20)
(0.10597 -0.0640463 -1.64268e-19)
(0.176165 -0.0972377 2.08643e-19)
(0.260634 -0.13417 -2.66654e-19)
(0.357717 -0.173154 1.70453e-19)
(0.465806 -0.212161 3.34766e-20)
(0.58172 -0.248694 -1.8167e-19)
(0.700885 -0.280006 1.33942e-19)
(0.817408 -0.303441 -3.02404e-20)
(0.924553 -0.316897 -1.8981e-21)
(1.01647 -0.319358 1.38043e-20)
(1.08888 -0.31132 2.24456e-20)
(1.14034 -0.294441 1.03215e-20)
(1.17235 -0.271183 1.65763e-20)
(1.18847 -0.244199 3.89184e-20)
(1.19314 -0.215811 -3.26914e-20)
(1.19052 -0.187726 9.04474e-21)
(1.18387 -0.160993 -3.39653e-20)
(1.17537 -0.13612 1.30045e-20)
(1.16631 -0.113254 -7.77892e-21)
(1.15744 -0.0923317 2.60519e-21)
(1.14921 -0.0731706 1.19137e-20)
(1.14197 -0.0555092 -8.51985e-21)
(1.13604 -0.039017 2.32544e-21)
(1.13173 -0.0232767 5.66802e-23)
(1.12939 -0.00776565 -1.81067e-22)
(-0.0118632 0.00477518 1.99637e-19)
(-0.0202825 0.00943775 -4.74147e-19)
(-0.0131798 0.00376983 1.33338e-20)
(0.0104442 -0.00966611 4.34397e-19)
(0.050397 -0.0307586 -7.18202e-20)
(0.106327 -0.0583984 -4.42382e-19)
(0.177547 -0.0915486 5.21839e-19)
(0.263397 -0.128545 -5.18559e-19)
(0.362379 -0.16776 3.33667e-19)
(0.472441 -0.207082 -1.97367e-22)
(0.59038 -0.243725 -4.16695e-20)
(0.71132 -0.275009 7.56557e-21)
(0.829241 -0.298276 -3.22327e-20)
(0.937287 -0.311481 8.11524e-20)
(1.0294 -0.313694 -1.32661e-19)
(1.10137 -0.30546 8.65565e-20)
(1.15193 -0.288516 -9.85229e-20)
(1.18277 -0.265355 4.46489e-20)
(1.19765 -0.238624 2.38596e-20)
(1.20112 -0.210612 3.26201e-21)
(1.19743 -0.182984 -4.25466e-22)
(1.18985 -0.15675 -1.88714e-20)
(1.18054 -0.132392 9.49725e-21)
(1.1708 -0.110042 7.42077e-21)
(1.16136 -0.0896288 -1.2018e-20)
(1.15267 -0.070967 6.97156e-21)
(1.14507 -0.0537962 -2.1225e-21)
(1.13885 -0.0377888 3.43668e-21)
(1.13435 -0.0225335 -4.15077e-21)
(1.13191 -0.00751579 -1.31575e-22)
(-0.0121352 0.00510807 1.04708e-19)
(-0.0208371 0.0107286 2.18448e-19)
(-0.0137879 0.00614911 -4.47163e-19)
(0.0101005 -0.00640223 5.32101e-21)
(0.0505278 -0.026861 1.22931e-19)
(0.107247 -0.0540458 -1.93015e-19)
(0.179616 -0.0869686 2.86358e-19)
(0.266789 -0.123975 -2.9203e-19)
(0.367688 -0.163196 1.86662e-19)
(0.479653 -0.202453 -6.89355e-20)
(0.599502 -0.239018 4.04674e-21)
(0.722203 -0.270111 4.95903e-20)
(0.841476 -0.29308 2.39621e-20)
(0.950304 -0.305915 -5.55003e-20)
(1.04249 -0.30778 1.49526e-20)
(1.1139 -0.29929 2.41456e-20)
(1.16345 -0.282253 1.10787e-20)
(1.19306 -0.259191 1.76924e-20)
(1.20667 -0.232737 -6.93719e-21)
(1.20894 -0.205136 1.09388e-20)
(1.20417 -0.178004 -4.47507e-20)
(1.19567 -0.152308 5.77226e-20)
(1.18557 -0.1285 -2.62449e-20)
(1.17517 -0.106698 -8.18753e-21)
(1.16518 -0.0868205 1.60445e-20)
(1.15604 -0.068682 -9.39036e-21)
(1.14807 -0.0520227 -6.04944e-23)
(1.14159 -0.0365189 5.19533e-21)
(1.1369 -0.0217656 -2.5991e-21)
(1.13437 -0.00725775 -1.89931e-22)
(-0.0120471 0.00520246 -3.071e-21)
(-0.020852 0.0112905 2.04077e-19)
(-0.0137619 0.00746881 -4.64915e-19)
(0.0103817 -0.00433204 3.52827e-19)
(0.0512464 -0.0241473 -6.68276e-20)
(0.108718 -0.0508524 -2.74976e-19)
(0.182262 -0.0833973 3.72471e-20)
(0.270893 -0.120163 -9.53134e-20)
(0.373429 -0.159212 3.06702e-19)
(0.487341 -0.198252 -4.07291e-22)
(0.609119 -0.234577 -1.8501e-19)
(0.733566 -0.265335 7.81013e-20)
(0.854128 -0.287866 2.49373e-20)
(0.963618 -0.300209 8.70021e-20)
(1.05574 -0.301624 -1.77407e-19)
(1.12647 -0.292814 1.57613e-19)
(1.17491 -0.275658 -9.62089e-20)
(1.20322 -0.2527 8.38033e-20)
(1.21551 -0.226546 -1.64162e-22)
(1.21656 -0.199391 -3.78586e-20)
(1.21074 -0.172793 -4.74845e-22)
(1.20132 -0.147671 -4.93875e-20)
(1.19046 -0.124449 3.79032e-20)
(1.17941 -0.103224 -1.1914e-20)
(1.16889 -0.0839099 3.17426e-21)
(1.1593 -0.0663179 1.00127e-20)
(1.15099 -0.0501905 -2.22702e-21)
(1.14424 -0.0352084 3.54596e-21)
(1.13938 -0.0209738 -6.22703e-21)
(1.13675 -0.00699178 1.68933e-21)
(-0.0117335 0.00514909 6.7977e-20)
(-0.0203368 0.0113537 -2.47428e-19)
(-0.0130878 0.00800486 6.69713e-20)
(0.0113181 -0.00317546 3.76273e-19)
(0.052623 -0.0223712 -2.00562e-19)
(0.110823 -0.0485541 2.65291e-20)
(0.18542 -0.0806456 8.651e-20)
(0.275525 -0.11704 -3.16514e-19)
(0.379756 -0.155771 2.02306e-19)
(0.495616 -0.194477 1.91584e-19)
(0.619332 -0.230418 4.19223e-20)
(0.745482 -0.260694 -2.21887e-19)
(0.867243 -0.282641 2.57285e-20)
(0.977259 -0.294363 7.46155e-21)
(1.06917 -0.295227 -4.72312e-20)
(1.13907 -0.286036 3.49471e-20)
(1.1863 -0.268738 6.10545e-20)
(1.21323 -0.245889 -4.32225e-20)
(1.22416 -0.22006 -5.86807e-22)
(1.224 -0.193384 -5.37445e-20)
(1.21711 -0.167357 7.18485e-20)
(1.2068 -0.142848 -3.78261e-20)
(1.19519 -0.120244 1.44558e-20)
(1.18352 -0.0996259 -7.37366e-22)
(1.17247 -0.0809005 -4.53746e-21)
(1.16246 -0.0638774 1.31168e-20)
(1.15381 -0.0483014 -6.96141e-21)
(1.14681 -0.0338585 3.31649e-22)
(1.14177 -0.0201588 -3.60568e-22)
(1.13905 -0.00671812 1.5181e-22)
(-0.011291 0.00499026 -1.5667e-19)
(-0.0194411 0.0110807 3.83635e-19)
(-0.0119069 0.00800564 -4.96161e-19)
(0.0128078 -0.00269587 7.0852e-20)
(0.0545907 -0.021342 2.12563e-19)
(0.113541 -0.0469997 -2.99415e-19)
(0.189219 -0.0785987 4.43894e-19)
(0.280792 -0.114552 1.18328e-20)
(0.386774 -0.152865 -1.42816e-19)
(0.504585 -0.191126 -1.58312e-19)
(0.630224 -0.226546 -1.71489e-19)
(0.758013 -0.256189 2.67634e-19)
(0.880867 -0.277404 -3.71218e-20)
(0.991256 -0.288374 -8.64894e-20)
(1.08279 -0.288588 1.85709e-20)
(1.15171 -0.278958 9.83773e-20)
(1.1976 -0.261496 1.73415e-20)
(1.22308 -0.238764 5.67986e-21)
(1.23262 -0.213286 -2.87191e-22)
(1.23122 -0.187125 -3.99849e-20)
(1.22328 -0.161706 -5.21794e-22)
(1.2121 -0.137844 -2.09286e-20)
(1.19976 -0.11589 4.29067e-20)
(1.18748 -0.0959079 -4.65042e-20)
(1.17593 -0.0777958 9.4972e-21)