/*--------------------------------*- C++ -*----------------------------------*\
  =========                 |
  \\      /  F ield         | OpenFOAM: The Open Source CFD Toolbox
   \\    /   O peration     | Website:  https://openfoam.org
    \\  /    A nd           | Version:  7
     \\/     M anipulation  |
\*---------------------------------------------------------------------------*/
FoamFile
{
    version     2.0;
    format      ascii;
    class       volVectorField;
    location    "2.5";
    object      U;
}
// * * * * * * * * * * * * * * * * * * * * * * * * * * * * * * * * * * * * * //

dimensions      [0 1 -1 0 0 0 0];

internalField   nonuniform List<vector> 
1750
(
(2.6151 -0.549039 0)
(2.61559 -0.185761 0)
(2.63254 -0.186223 0)
(2.65429 -0.185515 0)
(2.69923 -0.00515351 0)
(2.78544 0.00715883 0)
(2.78159 -0.0524014 0)
(2.66156 -0.0413963 0)
(2.51034 0.0339321 0)
(2.39535 0.0522364 0)
(2.78126 -1.05043 0)
(2.78481 -0.924797 0)
(2.788 -0.739705 0)
(2.79198 -0.58841 0)
(2.79905 -0.34024 0)
(2.92879 -0.236262 0)
(3.04795 -0.172599 0)
(2.72182 -0.0519804 0)
(2.52793 0.0843516 0)
(2.44236 0.0417035 0)
(3.09974 -1.28426 0)
(3.10855 -1.35262 0)
(3.1398 -1.35893 0)
(3.16108 -1.34631 0)
(3.15519 -1.21083 0)
(3.205 -0.979911 0)
(3.25068 -0.933517 0)
(2.95233 -0.388097 0)
(2.70418 0.101107 0)
(2.5712 0.0365264 0)
(3.21751 -1.37487 0)
(3.21538 -1.33116 0)
(3.22677 -1.24912 0)
(3.25296 -1.20079 0)
(3.28808 -1.13311 0)
(3.28401 -1.11517 0)
(3.27853 -1.16687 0)
(3.1943 -0.977394 0)
(3.1168 -0.574516 0)
(2.90359 -0.158925 0)
(3.26907 -1.05122 0)
(3.26587 -1.05486 0)
(3.25797 -1.03743 0)
(3.26043 -1.00972 0)
(3.27626 -0.954503 0)
(3.2927 -0.923019 0)
(3.29224 -0.912702 0)
(3.27588 -0.971287 0)
(3.27146 -0.967977 0)
(3.15829 -0.668203 0)
(3.25586 -0.721794 0)
(3.26321 -0.740189 0)
(3.25779 -0.779468 0)
(3.24846 -0.820576 0)
(3.24817 -0.83116 0)
(3.26628 -0.824895 0)
(3.29323 -0.810583 0)
(3.27409 -0.827826 0)
(3.25603 -0.842666 0)
(3.1965 -0.830777 0)
(3.18904 -0.430961 0)
(3.23566 -0.516525 0)
(3.23815 -0.545838 0)
(3.23701 -0.55689 0)
(3.2358 -0.588051 0)
(3.25584 -0.56407 0)
(3.26938 -0.527472 0)
(3.26103 -0.551126 0)
(3.22727 -0.640556 0)
(3.17353 -0.678119 0)
(3.11374 -0.194017 0)
(3.14914 -0.239897 0)
(3.17271 -0.312142 0)
(3.1815 -0.3293 0)
(3.19468 -0.370894 0)
(3.20963 -0.417252 0)
(3.22367 -0.44142 0)
(3.23387 -0.489987 0)
(3.21707 -0.524421 0)
(3.17874 -0.520439 0)
(3.0125 0.0722238 0)
(3.04233 0.0267232 0)
(3.07239 -0.0178265 0)
(3.10298 -0.073946 0)
(3.12994 -0.148348 0)
(3.14753 -0.155045 0)
(3.15465 -0.153508 0)
(3.18451 -0.238124 0)
(3.18839 -0.329574 0)
(3.1687 -0.347587 0)
(2.89614 0.389497 0)
(2.93442 0.333059 0)
(2.97627 0.261574 0)
(3.00888 0.231265 0)
(3.04615 0.182781 0)
(3.08644 0.102171 0)
(3.10697 0.0744994 0)
(3.13491 0.0105826 0)
(3.15888 -0.0574681 0)
(3.14989 -0.0784822 0)
(2.85855 0.46515 0)
(2.88113 0.445796 0)
(2.90957 0.425181 0)
(2.94084 0.40904 0)
(2.97653 0.388174 0)
(3.01263 0.349772 0)
(3.04938 0.301491 0)
(3.0635 0.265795 0)
(3.10987 0.210948 0)
(3.13827 0.140562 0)
(2.87529 0.399885 0)
(2.88433 0.398312 0)
(2.90185 0.390997 0)
(2.92378 0.384297 0)
(2.95097 0.374627 0)
(2.98162 0.352733 0)
(3.01436 0.31889 0)
(3.03382 0.298156 0)
(3.06975 0.254978 0)
(3.10322 0.190153 0)
(2.94019 0.164334 0)
(2.93085 0.201623 0)
(2.93455 0.213589 0)
(2.92715 0.244405 0)
(2.95537 0.258215 0)
(2.96984 0.253189 0)
(2.98901 0.241629 0)
(3.00932 0.225886 0)
(3.03145 0.201298 0)
(3.05877 0.150578 0)
(2.99486 0.0130408 0)
(2.99218 0.020033 0)
(2.98897 0.0297552 0)
(2.98491 0.041649 0)
(2.9833 0.0561337 0)
(2.98398 0.0700943 0)
(2.99119 0.0754631 0)
(2.99504 0.0744357 0)
(3.00082 0.0698973 0)
(3.01252 0.0485742 0)
(2.99992 0.00016329 0)
(2.99985 0.000299702 0)
(2.99972 0.00055343 0)
(2.99951 0.000994174 0)
(2.9992 0.00171317 0)
(2.99892 0.0027394 0)
(2.99907 0.00366835 0)
(2.99943 0.00396224 0)
(2.99965 0.00381504 0)
(3.00057 0.00252642 0)
(2.63654 -1.04393 0)
(2.73417 -1.03142 0)
(3.06439 -1.16914 0)
(3.20867 -1.36782 0)
(3.23272 -1.02787 0)
(3.20729 -0.687559 0)
(3.16772 -0.45895 0)
(3.09907 -0.216828 0)
(2.98352 0.140451 0)
(2.86707 0.426202 0)
(2.8354 0.4851 0)
(2.85707 0.389796 0)
(2.94757 0.136975 0)
(2.99667 0.00856111 0)
(2.99995 0.000106374 0)
(2.55669 -1.10698 0)
(2.74328 -1.11886 0)
(3.12698 -1.20771 0)
(3.15399 -1.28466 0)
(3.17714 -0.92779 0)
(3.1747 -0.670041 0)
(3.14901 -0.446266 0)
(3.07212 -0.0836892 0)
(2.94109 0.250626 0)
(2.83242 0.474692 0)
(2.81642 0.492152 0)
(2.86404 0.363927 0)
(2.96311 0.0935436 0)
(2.99848 0.00376717 0)
(2.99998 3.98081e-05 0)
(2.55268 -1.17947 0)
(2.76105 -1.26438 0)
(3.07288 -1.22064 0)
(3.10127 -1.26351 0)
(3.15808 -0.947363 0)
(3.17433 -0.669402 0)
(3.1534 -0.279798 0)
(3.02431 0.0789787 0)
(2.89385 0.338534 0)
(2.79858 0.513364 0)
(2.80213 0.489129 0)
(2.86748 0.320102 0)
(2.97587 0.0571056 0)
(2.9993 0.00167919 0)
(2.99999 1.59776e-05 0)
(2.54451 -1.21474 0)
(2.75249 -1.35392 0)
(3.04319 -1.23315 0)
(3.10641 -1.19271 0)
(3.20539 -0.874436 0)
(3.21817 -0.40151 0)
(3.09606 -0.0525365 0)
(2.98408 0.132463 0)
(2.82785 0.435808 0)
(2.77215 0.533196 0)
(2.79428 0.484206 0)
(2.88882 0.256508 0)
(2.98721 0.0295744 0)
(2.99973 0.000639005 0)
(3 5.71927e-06 0)
(2.48482 -1.238 0)
(2.72497 -1.38341 0)
(3.03212 -1.21434 0)
(3.13921 -1.07274 0)
(3.23519 -0.552345 0)
(3.15271 -0.215659 0)
(3.05654 -0.0400983 0)
(2.91663 0.236616 0)
(2.77426 0.503373 0)
(2.75202 0.545361 0)
(2.7988 0.443273 0)
(2.92498 0.172369 0)
(2.99447 0.0132066 0)
(2.99991 0.000220222 0)
(3 1.86882e-06 0)
(2.33429 -1.24801 0)
(2.66495 -1.45328 0)
(3.05946 -1.15428 0)
(3.23529 -0.797888 0)
(3.19228 -0.476187 0)
(3.09334 -0.257331 0)
(3.00175 0.0147821 0)
(2.83426 0.386525 0)
(2.73699 0.551223 0)
(2.73775 0.55123 0)
(2.80048 0.442606 0)
(2.95062 0.114092 0)
(2.99785 0.00519152 0)
(2.99997 7.109e-05 0)
(3 5.67967e-07 0)
(2.20706 -1.23812 0)
(2.66732 -1.51041 0)
(3.08052 -0.775426 0)
(3.17203 -0.681574 0)
(3.1354 -0.540148 0)
(3.04123 -0.143061 0)
(2.9169 0.233532 0)
(2.77726 0.487047 0)
(2.70503 0.590926 0)
(2.72751 0.555467 0)
(2.84683 0.33142 0)
(2.97659 0.0560674 0)
(2.99932 0.00169075 0)
(2.99999 2.0419e-05 0)
(3 1.59001e-07 0)
(2.16095 -1.17449 0)
(2.66271 -1.5261 0)
(3.061 -0.861032 0)
(3.09035 -0.753677 0)
(3.11453 -0.381243 0)
(2.95059 0.160486 0)
(2.85166 0.357103 0)
(2.7149 0.565356 0)
(2.68094 0.608392 0)
(2.7262 0.524693 0)
(2.89817 0.22092 0)
(2.99145 0.0220672 0)
(2.99982 0.000477523 0)
(3 5.31728e-06 0)
(3 4.00975e-08 0)
(2.14916 -1.00843 0)
(2.65225 -1.39451 0)
(3.01623 -0.986088 0)
(3.09355 -0.591144 0)
(3.02241 0.0185969 0)
(2.9025 0.285823 0)
(2.77157 0.462319 0)
(2.65842 0.617679 0)
(2.65641 0.613749 0)
(2.7467 0.475151 0)
(2.92866 0.150166 0)
(2.99651 0.00807455 0)
(2.99995 0.000128945 0)
(3 1.34159e-06 0)
(3 9.74919e-09 0)
(2.0182 -0.83618 0)
(2.63309 -1.2408 0)
(3.02832 -0.905856 0)
(3.01761 -0.0409472 0)
(2.97177 0.159688 0)
(2.8254 0.384923 0)
(2.67693 0.582643 0)
(2.63018 0.632287 0)
(2.64599 0.602772 0)
(2.83081 0.320717 0)
(2.98051 0.0451209 0)
(2.99936 0.00159074 0)
(2.99999 2.37826e-05 0)
(3 2.53282e-07 0)
(3 1.94491e-09 0)
(1.77584 -0.310879 0)
(2.62882 -1.00656 0)
(3.03464 -0.347774 0)
(2.9636 0.128816 0)
(2.88394 0.261959 0)
(2.70808 0.549098 0)
(2.61706 0.643056 0)
(2.6178 0.638697 0)
(2.71942 0.484922 0)
(2.90927 0.183897 0)
(2.9938 0.0151031 0)
(2.99987 0.000320836 0)
(3 4.06206e-06 0)
(3 4.16261e-08 0)
(3 3.20109e-10 0)
(1.45037 0.336385 0)
(2.7531 -0.437009 0)
(2.96599 0.0342298 0)
(2.88878 0.225954 0)
(2.74143 0.485052 0)
(2.6307 0.628756 0)
(2.58796 0.663816 0)
(2.58886 0.626614 0)
(2.7521 0.411762 0)
(2.96221 0.0758591 0)
(2.99872 0.00306924 0)
(2.99998 5.20772e-05 0)
(3 6.23595e-07 0)
(3 6.10125e-09 0)
(3 4.54386e-11 0)
(1.45151 0.789922 0)
(2.85999 -0.0287445 0)
(2.92794 0.199185 0)
(2.75255 0.489911 0)
(2.63269 0.614429 0)
(2.58084 0.667366 0)
(2.57714 0.667045 0)
(2.6362 0.563543 0)
(2.89001 0.189399 0)
(2.99301 0.0151284 0)
(2.99983 0.000413261 0)
(3 6.24397e-06 0)
(3 7.16347e-08 0)
(3 6.86038e-10 0)
(3 5.00196e-12 0)
(2.06595 0.640093 0)
(2.92433 0.301035 0)
(2.78423 0.490016 0)
(2.63375 0.637625 0)
(2.57393 0.67433 0)
(2.56937 0.674195 0)
(2.57768 0.608558 0)
(2.79037 0.318863 0)
(2.9764 0.0454122 0)
(2.99916 0.00210115 0)
(2.99998 3.83467e-05 0)
(3 5.14387e-07 0)
(3 5.71097e-09 0)
(3 5.33782e-11 0)
(3 3.82996e-13 0)
(2.42717 0.649828 0)
(2.77678 0.566637 0)
(2.62183 0.664221 0)
(2.57191 0.698442 0)
(2.55862 0.691431 0)
(2.55759 0.678635 0)
(2.71582 0.424339 0)
(2.94995 0.0898111 0)
(2.99826 0.00506401 0)
(2.99998 7.59478e-05 0)
(3 9.78669e-07 0)
(3 1.12749e-08 0)
(3 1.18709e-10 0)
(3 1.11669e-12 0)
(3 9.26274e-15 0)
(2.52896 0.694538 0)
(2.54526 0.700263 0)
(2.56175 0.709931 0)
(2.55378 0.714426 0)
(2.55897 0.692742 0)
(2.59667 0.63436 0)
(2.90723 0.140048 0)
(3.0032 -0.00532804 0)
(3.00042 -0.00062321 0)
(3.00001 -1.30348e-05 0)
(3 -1.24437e-07 0)
(3 -8.8596e-10 0)
(3 -5.55694e-12 0)
(3 -3.25238e-14 0)
(3 5.68364e-16 0)
(2.52363 0.683735 0)
(2.54973 0.678264 0)
(2.5635 0.709097 0)
(2.54306 0.734872 0)
(2.57865 0.671759 0)
(2.65087 0.545654 0)
(2.91693 0.140604 0)
(2.99753 0.0040827 0)
(2.99998 4.1807e-05 0)
(3 2.873e-07 0)
(3 2.01275e-09 0)
(3 1.44936e-11 0)
(3 1.03405e-13 0)
(3 1.73232e-15 0)
(3 1.29904e-15 0)
(2.53176 0.690301 0)
(2.55191 0.66141 0)
(2.55994 0.709942 0)
(2.53091 0.768018 0)
(2.61649 0.624017 0)
(2.83214 0.273194 0)
(2.99128 0.0123192 0)
(2.99995 7.34526e-05 0)
(3 1.25013e-07 0)
(3 6.18287e-10 0)
(3 6.57251e-12 0)
(3 1.00495e-13 0)
(3 1.75755e-16 0)
(3 1.39486e-15 0)
(3 1.80329e-15 0)
(2.52936 0.702892 0)
(2.55038 0.661585 0)
(2.55184 0.713375 0)
(2.52698 0.781927 0)
(2.61181 0.619084 0)
(2.88499 0.166034 0)
(2.99736 0.00414122 0)
(2.99999 7.02835e-06 0)
(3 2.60564e-08 0)
(3 4.26972e-11 0)
(3 2.47521e-12 0)
(3 6.87277e-14 0)
(3 1.80868e-15 0)
(3 2.61325e-15 0)
(3 2.53734e-15 0)
(2.52348 0.71573 0)
(2.53021 0.704811 0)
(2.55135 0.721738 0)
(2.55156 0.744178 0)
(2.73825 0.401799 0)
(2.97319 0.0344451 0)
(2.99984 0.000171112 0)
(3 9.37333e-07 0)
(3 -1.54428e-09 0)
(3 1.86561e-11 0)
(3 2.31274e-12 0)
(3 6.51642e-14 0)
(3 2.73264e-15 0)
(3 3.04059e-15 0)
(3 2.62352e-15 0)
(2.51267 0.739483 0)
(2.50679 0.75357 0)
(2.55014 0.727696 0)
(2.61209 0.640214 0)
(2.86763 0.196546 0)
(2.99578 0.00615619 0)
(2.99998 3.06453e-05 0)
(3 -8.14269e-08 0)
(3 2.12888e-10 0)
(3 1.39425e-11 0)
(3 1.66128e-12 0)
(3 1.23139e-14 0)
(3 2.12818e-15 0)
(3 2.95838e-15 0)
(3 2.2121e-15 0)
(2.51598 0.730291 0)
(2.45264 0.809047 0)
(2.55244 0.72837 0)
(2.6934 0.514065 0)
(2.95739 0.0629623 0)
(2.99963 0.000462059 0)
(3 -8.88025e-07 0)
(3 2.04412e-09 0)
(3 6.2355e-11 0)
(3 4.38532e-12 0)
(3 1.67454e-14 0)
(3 1.10896e-16 0)
(3 1.81552e-15 0)
(3 2.92565e-15 0)
(3 2.32648e-15 0)
(2.47924 0.726417 0)
(2.4146 0.863904 0)
(2.67842 0.636821 0)
(2.86149 0.264454 0)
(2.99438 0.00779216 0)
(2.99998 2.39482e-05 0)
(3 2.65316e-07 0)
(3 8.50125e-10 0)
(3 -1.23302e-13 0)
(3 -1.58438e-14 0)
(3 -1.94902e-15 0)
(3 -5.13662e-16 0)
(3 1.82838e-15 0)
(3 3.27223e-15 0)
(3 2.55206e-15 0)
(2.48704 0.675777 0)
(2.45597 0.921754 0)
(2.77534 0.475662 0)
(2.96317 0.0659095 0)
(2.99955 0.000647272 0)
(3 1.34347e-06 0)
(3 -4.99811e-09 0)
(3 -1.01962e-12 0)
(3 -2.29822e-13 0)
(3 -5.29493e-15 0)
(3 -1.86424e-15 0)
(3 -7.19929e-16 0)
(3 1.66699e-15 0)
(3 4.14823e-15 0)
(3 2.62217e-15 0)
(2.53606 0.600465 0)
(2.50179 0.832773 0)
(2.87876 0.234508 0)
(2.99404 0.0105804 0)
(2.99998 2.31809e-05 0)
(3 -3.7111e-08 0)
(3 2.35411e-10 0)
(3 1.0099e-11 0)
(3 5.91899e-13 0)
(3 2.69981e-15 0)
(3 -1.34082e-15 0)
(3 -9.8576e-16 0)
(3 9.33977e-16 0)
(3 4.76045e-15 0)
(3 2.82814e-15 0)
(2.57753 0.481672 0)
(2.64705 0.619288 0)
(2.95535 0.0810023 0)
(2.99934 0.0010301 0)
(3 3.77087e-06 0)
(3 2.86577e-08 0)
(3 7.80368e-11 0)
(3 4.4566e-14 0)
(3 -7.83883e-16 0)
(3 6.11418e-17 0)
(3 -1.40141e-15 0)
(3 -1.09057e-15 0)
(3 7.75065e-16 0)
(3 4.22048e-15 0)
(3 2.4872e-15 0)
(2.63293 0.377215 0)
(2.76796 0.389828 0)
(2.98739 0.0208805 0)
(2.99991 0.000138392 0)
(3 3.63028e-08 0)
(3 -8.2195e-10 0)
(3 -1.56564e-13 0)
(3 -8.91714e-15 0)
(3 1.41067e-16 0)
(3 -1.35619e-16 0)
(3 -9.41222e-16 0)
(3 -1.12406e-15 0)
(3 -3.46558e-16 0)
(3 2.50402e-15 0)
(3 2.19171e-15 0)
(2.72572 0.235118 0)
(2.88125 0.192855 0)
(2.99749 0.0038942 0)
(2.99999 9.48376e-06 0)
(3 4.59827e-08 0)
(3 1.58217e-10 0)
(3 2.08213e-13 0)
(3 -3.05526e-14 0)
(3 -3.3542e-15 0)
(3 -3.94792e-16 0)
(3 -2.09646e-16 0)
(3 -4.32424e-16 0)
(3 -1.07748e-15 0)
(3 1.29364e-15 0)
(3 1.84906e-15 0)
(2.80897 0.125802 0)
(2.95738 0.0638108 0)
(2.99963 0.00053759 0)
(3 1.70715e-06 0)
(3 2.00543e-09 0)
(3 9.85783e-13 0)
(3 8.76096e-14 0)
(3 -1.61906e-15 0)
(3 -8.37016e-16 0)
(3 -3.15946e-16 0)
(3 -3.7204e-16 0)
(3 -4.16805e-16 0)
(3 -1.3543e-15 0)
(3 7.22768e-16 0)
(3 1.5262e-15 0)
(2.91573 0.0229818 0)
(2.99215 0.0109204 0)
(2.99997 3.30188e-05 0)
(3 -2.3183e-08 0)
(3 -8.91412e-11 0)
(3 -3.69463e-12 0)
(3 -2.61508e-14 0)
(3 4.62953e-16 0)
(3 -7.03415e-16 0)
(3 -1.45401e-15 0)
(3 -4.70375e-16 0)
(3 9.50084e-17 0)
(3 -8.92131e-16 0)
(3 5.51665e-17 0)
(3 9.16476e-16 0)
(3 -1.04008e-15 0)
(3 4.91248e-16 0)
(3 1.38611e-15 0)
(3 1.20313e-16 0)
(3 8.48206e-16 0)
(3 -2.76761e-16 0)
(3 -2.5527e-16 0)
(3 1.08778e-15 0)
(3 -5.3753e-16 0)
(3 -2.11182e-15 0)
(3 -1.13219e-15 0)
(3 6.52792e-16 0)
(3 4.81631e-16 0)
(3 -4.73523e-16 0)
(3 4.58821e-16 0)
(3 -4.30625e-16 0)
(3 8.59382e-16 0)
(3 1.82414e-15 0)
(3 -4.79025e-17 0)
(3 9.69535e-18 0)
(3 -7.82797e-16 0)
(3 -8.76549e-16 0)
(3 5.32612e-16 0)
(3 -6.18827e-16 0)
(3 -2.5955e-15 0)
(3 -1.26669e-15 0)
(3 7.87299e-16 0)
(3 3.5757e-16 0)
(3 -3.62042e-16 0)
(3 2.33949e-16 0)
(3 -2.87121e-16 0)
(3 5.72321e-17 0)
(3 1.55248e-15 0)
(3 1.23035e-15 0)
(3 2.90118e-16 0)
(3 -1.28089e-15 0)
(3 -5.66333e-16 0)
(3 7.98588e-16 0)
(3 -1.08127e-15 0)
(3 -2.99701e-15 0)
(3 -1.31989e-15 0)
(3 2.47028e-16 0)
(3 3.62729e-16 0)
(3 5.00735e-16 0)
(3 3.74516e-16 0)
(3 1.23476e-16 0)
(3 -2.93989e-16 0)
(3 4.87099e-16 0)
(3 2.033e-15 0)
(3 1.43399e-15 0)
(3 -1.40408e-15 0)
(3 -6.04283e-16 0)
(3 2.77444e-16 0)
(3 -1.68512e-15 0)
(3 -3.15671e-15 0)
(3 -1.27484e-15 0)
(3 -5.5373e-16 0)
(3 4.79874e-16 0)
(3 2.27722e-15 0)
(3 5.24378e-16 0)
(3 7.89631e-16 0)
(3 2.57903e-17 0)
(3 4.27555e-16 0)
(3 1.21701e-15 0)
(3 1.12835e-15 0)
(3 -3.77125e-16 0)
(3 -6.01391e-16 0)
(3 1.29084e-16 0)
(3 -1.79642e-15 0)
(3 -3.22903e-15 0)
(3 -1.45637e-15 0)
(3 -1.26085e-15 0)
(3 6.31591e-16 0)
(3 3.11894e-15 0)
(3 6.19123e-16 0)
(3 6.42684e-16 0)
(3 -4.55298e-16 0)
(3 1.60748e-16 0)
(3 6.01374e-16 0)
(3 -6.45561e-17 0)
(3 3.61041e-16 0)
(3 1.74682e-16 0)
(3 -3.76058e-16 0)
(3 -1.28318e-15 0)
(3 -2.97489e-15 0)
(3 -1.49362e-15 0)
(3 -1.36688e-15 0)
(3 7.32556e-16 0)
(3 3.52599e-15 0)
(3 6.5546e-16 0)
(3 -3.13337e-16 0)
(3 -4.25381e-16 0)
(3 9.34942e-16 0)
(3 5.15845e-16 0)
(3 -2.57729e-16 0)
(3 6.47625e-16 0)
(3 2.31448e-16 0)
(3 -8.67498e-16 0)
(3 -1.1951e-15 0)
(3 -1.77672e-15 0)
(3 -9.70753e-16 0)
(3 -9.9313e-16 0)
(3 5.14337e-16 0)
(3 2.70589e-15 0)
(3 7.5703e-16 0)
(3 -3.54665e-16 0)
(3 -5.92327e-16 0)
(3 -1.89515e-16 0)
(3 6.14672e-16 0)
(3 8.68998e-16 0)
(3 7.718e-16 0)
(3 4.67151e-16 0)
(3 -5.00335e-16 0)
(3 -1.18332e-15 0)
(3 -1.69141e-15 0)
(3 -4.59172e-16 0)
(3 3.01834e-16 0)
(3 5.71175e-16 0)
(3 1.08684e-15 0)
(3 4.32462e-16 0)
(3 5.74704e-16 0)
(3 -8.19421e-16 0)
(3 -8.38214e-17 0)
(3 -3.08455e-17 0)
(3 8.9931e-16 0)
(3 7.99588e-16 0)
(3 3.01928e-16 0)
(3 3.69694e-16 0)
(3 -5.84342e-16 0)
(3 -1.95612e-15 0)
(3 -4.39139e-16 0)
(3 5.99665e-16 0)
(3 6.21953e-16 0)
(3 3.04347e-16 0)
(3 -1.71594e-16 0)
(3 -4.47384e-16 0)
(3 -2.64916e-16 0)
(3 4.0449e-16 0)
(3 -6.74029e-16 0)
(3 -3.7294e-16 0)
(3 6.85746e-16 0)
(3 1.73774e-15 0)
(3 3.95345e-16 0)
(3 -5.54128e-16 0)
(3 -1.09764e-15 0)
(3 -1.39451e-16 0)
(3 9.01841e-16 0)
(3 2.43839e-16 0)
(3 1.23038e-16 0)
(3 5.55953e-18 0)
(3 6.13174e-16 0)
(3 1.61735e-16 0)
(3 5.88752e-16 0)
(3 1.67095e-15 0)
(3 1.69109e-15 0)
(3 1.60586e-15 0)
(3 8.37715e-16 0)
(3 4.7703e-16 0)
(3 1.84435e-15 0)
(3 -8.06877e-17 0)
(3 -1.92909e-17 0)
(3 4.72652e-17 0)
(3 1.69412e-15 0)
(3 2.25976e-15 0)
(3 2.82376e-15 0)
(3 2.87998e-15 0)
(3 1.46904e-15 0)
(3 1.28424e-15 0)
(3 -2.11733e-16 0)
(3 -8.115e-16 0)
(3 -4.62789e-16 0)
(3 1.48867e-15 0)
(3 8.46566e-16 0)
(3 9.44058e-16 0)
(3 1.65892e-15 0)
(3 1.65747e-15 0)
(3 2.06247e-15 0)
(3 2.54595e-15 0)
(3 3.52333e-16 0)
(3 3.25545e-16 0)
(3 6.93632e-16 0)
(3 5.98507e-16 0)
(3 4.73395e-16 0)
(3 2.98634e-16 0)
(3 1.56056e-16 0)
(3 -9.52984e-17 0)
(3 1.05607e-15 0)
(3 1.34966e-15 0)
(3 4.89415e-16 0)
(3 -4.65939e-16 0)
(3 4.54985e-16 0)
(3 6.62036e-17 0)
(3 1.38783e-15 0)
(3 1.34744e-15 0)
(3 5.95463e-16 0)
(3 7.02918e-16 0)
(3 1.39078e-16 0)
(3 -6.74409e-16 0)
(3 -5.57757e-16 0)
(3 -3.45722e-16 0)
(3 1.09579e-15 0)
(3 1.31526e-15 0)
(3 1.31153e-15 0)
(3 1.23528e-15 0)
(3 1.09542e-15 0)
(3 5.52389e-16 0)
(3 8.11384e-16 0)
(3 1.87597e-16 0)
(3 -1.4941e-16 0)
(3 -6.52062e-17 0)
(3 -6.12351e-16 0)
(3 -7.98969e-16 0)
(3 -1.28822e-15 0)
(3 -8.43798e-16 0)
(3 1.96821e-16 0)
(3 1.00286e-15 0)
(3 4.51522e-16 0)
(3 -2.26842e-16 0)
(3 -1.38744e-15 0)
(3 -4.71218e-16 0)
(3 -8.16631e-16 0)
(3 -2.16861e-15 0)
(3 -3.55276e-15 0)
(3 -4.24977e-15 0)
(3 -4.17038e-15 0)
(3 -3.6533e-15 0)
(3 -2.88942e-15 0)
(3 -2.68214e-15 0)
(3 -1.57538e-15 0)
(3 -2.5299e-16 0)
(3 -2.77921e-15 0)
(3 -3.29411e-15 0)
(3 -3.68208e-15 0)
(3 -4.69905e-15 0)
(3 -5.98876e-15 0)
(3 -5.69679e-15 0)
(3 -5.61922e-15 0)
(3 -3.08669e-15 0)
(3 -4.22794e-16 0)
(3 -4.38181e-16 0)
(3 -2.03637e-15 0)
(3 -1.27453e-15 0)
(3 -7.03129e-16 0)
(3 -7.05887e-16 0)
(3 -7.72945e-16 0)
(3 -9.67792e-16 0)
(3 -1.51406e-15 0)
(3 -1.77975e-15 0)
(3 -8.46029e-16 0)
(3 7.764e-17 0)
(3 -7.01542e-16 0)
(3 -6.55541e-17 0)
(3 -1.49952e-16 0)
(3 6.57671e-16 0)
(3 1.42698e-15 0)
(3 1.75816e-15 0)
(3 2.79125e-15 0)
(3 2.33849e-15 0)
(3 1.9655e-15 0)
(3 1.14004e-15 0)
(3 -1.85475e-15 0)
(3 -1.58653e-15 0)
(3 -9.69253e-16 0)
(3 8.26124e-17 0)
(3 3.44597e-16 0)
(3 1.30932e-15 0)
(3 2.47173e-15 0)
(3 2.51571e-15 0)
(3 1.24296e-15 0)
(3 3.86958e-16 0)
(3 -2.75724e-16 0)
(3 1.33949e-16 0)
(3 6.51225e-16 0)
(3 1.674e-16 0)
(3 -2.53933e-16 0)
(3 -5.17525e-16 0)
(3 -3.79684e-16 0)
(3 -6.6271e-16 0)
(3 -9.63328e-17 0)
(3 -2.06288e-16 0)
(3 3.14946e-16 0)
(3 -8.36718e-17 0)
(3 -4.75379e-16 0)
(3 -3.15926e-16 0)
(3 -5.44534e-16 0)
(3 -1.29383e-15 0)
(3 -2.5449e-15 0)
(3 -1.55952e-15 0)
(3 -3.30842e-16 0)
(3 -2.93847e-16 0)
(3 4.77445e-16 0)
(3 1.08094e-16 0)
(3 -3.62064e-16 0)
(3 -3.76724e-16 0)
(3 -3.09219e-16 0)
(3 -4.25581e-16 0)
(3 -9.05709e-16 0)
(3 -5.07268e-16 0)
(3 -9.10762e-16 0)
(3 -2.76474e-16 0)
(3 1.96811e-15 0)
(3 1.73235e-15 0)
(3 1.40554e-15 0)
(3 8.79684e-16 0)
(3 7.24368e-16 0)
(3 1.22675e-16 0)
(3 8.49788e-16 0)
(3 2.19709e-16 0)
(3 -2.31102e-16 0)
(3 7.41335e-18 0)
(3 1.5471e-15 0)
(3 1.19378e-15 0)
(3 1.10554e-15 0)
(3 1.1012e-15 0)
(3 9.96473e-16 0)
(3 4.53619e-16 0)
(3 6.60543e-16 0)
(3 7.50157e-16 0)
(3 4.83641e-16 0)
(3 -1.84827e-16 0)
(3 5.39879e-16 0)
(3 1.2494e-15 0)
(3 2.00887e-15 0)
(3 2.63503e-15 0)
(3 2.27475e-15 0)
(3 2.40809e-15 0)
(3 1.97628e-15 0)
(3 2.12673e-15 0)
(3 1.9036e-15 0)
(3 3.21578e-16 0)
(3 1.32376e-15 0)
(3 1.88693e-15 0)
(3 1.95252e-15 0)
(3 1.62397e-15 0)
(3 1.43632e-15 0)
(3 1.51758e-15 0)
(3 1.12587e-15 0)
(3 4.41984e-16 0)
(3 -1.3827e-16 0)
(3 1.90144e-16 0)
(3 1.31355e-15 0)
(3 7.63678e-16 0)
(3 1.91876e-16 0)
(3 -1.82031e-16 0)
(3 -5.08275e-18 0)
(3 1.10135e-16 0)
(3 -9.53316e-18 0)
(3 -5.55087e-16 0)
(3 -7.07245e-16 0)
(3 -1.526e-16 0)
(2.84839 -0.0478526 0)
(2.99345 -0.00841269 0)
(3 2.54682e-09 0)
(3 8.3773e-15 0)
(3 -4.44036e-16 0)
(3 -1.25018e-15 0)
(3 -1.89666e-16 0)
(3 -5.99797e-16 0)
(3 -2.87864e-15 0)
(3 -2.74756e-15 0)
(3 -1.61198e-15 0)
(3 -1.16665e-15 0)
(3 7.13395e-16 0)
(3 7.09452e-16 0)
(3 1.43966e-15 0)
(3 2.30079e-15 0)
(3 1.19413e-15 0)
(3 3.44855e-16 0)
(3 1.10784e-15 0)
(3 7.23323e-16 0)
(2.60565 -0.280859 0)
(2.89011 -0.136008 0)
(3.00029 0.000324231 0)
(3 -1.1107e-06 0)
(3 1.69209e-09 0)
(3 1.19324e-11 0)
(3 -6.06915e-15 0)
(3 -1.53438e-15 0)
(3 -2.742e-15 0)
(3 -3.25058e-15 0)
(3 -2.21831e-15 0)
(3 2.94437e-16 0)
(3 1.24403e-15 0)
(3 1.23974e-15 0)
(3 2.22612e-15 0)
(3 2.67049e-15 0)
(3 1.08135e-15 0)
(3 2.93327e-16 0)
(3 -2.39047e-16 0)
(3 1.71069e-16 0)
(2.51727 -0.501729 0)
(2.71675 -0.44391 0)
(2.99528 -0.00643453 0)
(3.00001 2.45288e-05 0)
(3 -4.15751e-10 0)
(3 8.42608e-12 0)
(3 4.72303e-14 0)
(3 -1.90978e-15 0)
(3 -3.01666e-15 0)
(3 -3.20089e-15 0)
(3 -1.9883e-15 0)
(3 8.96512e-16 0)
(3 1.81761e-15 0)
(3 1.97673e-15 0)
(3 1.65528e-15 0)
(3 3.15857e-15 0)
(3 1.89812e-15 0)
(3 1.87382e-16 0)
(3 -9.52483e-16 0)
(3 -1.46625e-16 0)
(2.29433 -0.740897 0)
(2.25438 -0.995132 0)
(2.87634 -0.202514 0)
(2.99974 -0.000389923 0)
(3 -4.72998e-10 0)
(3 1.24818e-11 0)
(3 2.19619e-13 0)
(3 -2.44502e-15 0)
(3 -3.51104e-15 0)
(3 -1.9538e-15 0)
(3 -4.45072e-16 0)
(3 1.58262e-15 0)
(3 1.24794e-15 0)
(3 2.40282e-15 0)
(3 8.94333e-16 0)
(3 3.14636e-15 0)
(3 2.55465e-15 0)
(3 1.81633e-16 0)
(3 -6.91957e-16 0)
(3 -5.54335e-17 0)
(2.18008 -0.857981 0)
(2.09382 -1.07742 0)
(2.58988 -0.672346 0)
(2.93196 -0.118684 0)
(3.00004 0.000150911 0)
(3 3.84406e-07 0)
(3 3.43823e-10 0)
(3 8.52349e-13 0)
(3 -2.37131e-15 0)
(3 -1.07858e-15 0)
(3 1.06281e-15 0)
(3 1.67213e-15 0)
(3 7.06575e-16 0)
(3 2.19109e-15 0)
(3 1.01281e-15 0)
(3 3.08194e-15 0)
(3 2.88536e-15 0)
(3 5.87552e-16 0)
(3 -6.04275e-16 0)
(3 -6.34497e-17 0)
(2.20081 -0.89888 0)
(2.14362 -1.0163 0)
(2.32913 -0.94697 0)
(2.60717 -0.575706 0)
(2.96144 -0.0477873 0)
(3.00008 0.000118258 0)
(3 6.99198e-07 0)
(3 -1.80123e-11 0)
(3 -1.0757e-11 0)
(3 -7.35131e-14 0)
(3 3.02288e-15 0)
(3 2.15982e-15 0)
(3 1.11404e-15 0)
(3 2.09804e-15 0)
(3 3.24394e-16 0)
(3 2.79888e-15 0)
(3 2.85081e-15 0)
(3 5.24394e-16 0)
(3 -4.33136e-16 0)
(3 -9.11969e-17 0)
(2.22685 -0.913314 0)
(2.20303 -0.951493 0)
(2.24576 -0.929276 0)
(2.28874 -0.895998 0)
(2.71524 -0.359135 0)
(2.99109 -0.0108918 0)
(3.00003 4.00381e-05 0)
(3 1.163e-06 0)
(3 2.89269e-09 0)
(3 -6.52245e-12 0)
(3 -4.08422e-13 0)
(3 -8.58898e-16 0)
(3 2.28226e-15 0)
(3 2.02065e-15 0)
(3 -8.09391e-16 0)
(3 2.78693e-15 0)
(3 3.17724e-15 0)
(3 5.60393e-16 0)
(3 -4.38359e-16 0)
(3 -2.19994e-16 0)
(2.24896 -0.891869 0)
(2.24999 -0.889085 0)
(2.25552 -0.911941 0)
(2.23243 -0.959897 0)
(2.37545 -0.761765 0)
(2.85511 -0.166348 0)
(2.99948 -0.000744969 0)
(3 1.84042e-07 0)
(3 7.77148e-09 0)
(3 7.03435e-11 0)
(3 5.71389e-14 0)
(3 1.42637e-15 0)
(3 3.35209e-15 0)
(3 1.09494e-15 0)
(3 -1.40604e-15 0)
(3 3.31459e-15 0)
(3 3.68326e-15 0)
(3 7.22323e-16 0)
(3 -2.39655e-16 0)
(3 -2.19265e-16 0)
(2.24753 -0.879156 0)
(2.26619 -0.862004 0)
(2.27519 -0.893268 0)
(2.253 -0.932363 0)
(2.32107 -0.838388 0)
(2.60394 -0.507353 0)
(2.9636 -0.0424727 0)
(3.00003 5.75091e-05 0)
(3 1.0486e-06 0)
(3 -5.37729e-10 0)
(3 -2.79843e-11 0)
(3 -4.6915e-14 0)
(3 3.54012e-15 0)
(3 9.08998e-16 0)
(3 -1.5099e-15 0)
(3 3.05571e-15 0)
(3 4.19937e-15 0)
(3 1.75877e-15 0)
(3 3.43161e-16 0)
(3 -2.6779e-17 0)
(2.24142 -0.874813 0)
(2.26606 -0.869125 0)
(2.29128 -0.880111 0)
(2.284 -0.89539 0)
(2.2901 -0.885441 0)
(2.27613 -0.88289 0)
(2.72374 -0.321494 0)
(2.99356 -0.00772006 0)
(3.00001 1.70431e-05 0)
(3 8.29558e-07 0)
(3 -4.56796e-10 0)
(3 -1.49654e-12 0)
(3 -1.52359e-13 0)
(3 5.00768e-16 0)
(3 -1.2444e-15 0)
(3 2.73035e-15 0)
(3 3.67541e-15 0)
(3 2.74179e-15 0)
(3 9.23955e-16 0)
(3 -4.53377e-17 0)
(2.2446 -0.877584 0)
(2.26267 -0.879874 0)
(2.28449 -0.882741 0)
(2.28904 -0.887589 0)
(2.28248 -0.889795 0)
(2.2501 -0.865689 0)
(2.53812 -0.579841 0)
(2.9236 -0.09703 0)
(2.99984 -0.000179738 0)
(3 3.84683e-07 0)
(3 1.20576e-08 0)
(3 9.1556e-11 0)
(3 6.67076e-14 0)
(3 -7.11417e-15 0)
(3 5.67843e-16 0)
(3 2.30409e-15 0)
(3 2.49538e-15 0)
(3 3.26796e-15 0)
(3 7.73238e-16 0)
(3 -3.48067e-16 0)
(2.24755 -0.880125 0)
(2.2575 -0.885676 0)
(2.27672 -0.887077 0)
(2.28466 -0.883342 0)
(2.28251 -0.887088 0)
(2.28058 -0.878463 0)
(2.31561 -0.830193 0)
(2.68694 -0.381369 0)
(2.98593 -0.0173328 0)
(3 -1.64443e-05 0)
(3 2.81625e-07 0)
(3 -1.19263e-10 0)
(3 -1.47858e-11 0)
(3 -8.54711e-13 0)
(3 -5.56496e-15 0)
(3 2.37521e-15 0)
(3 1.73292e-15 0)
(3 2.60452e-15 0)
(3 2.3465e-15 0)
(3 7.53375e-16 0)
(2.25023 -0.882284 0)
(2.25674 -0.885848 0)
(2.27239 -0.886651 0)
(2.28233 -0.883886 0)
(2.2858 -0.881619 0)
(2.28225 -0.878916 0)
(2.25346 -0.918631 0)
(2.4569 -0.675153 0)
(2.89892 -0.121937 0)
(2.99973 -0.000269529 0)
(3 1.25806e-06 0)
(3 1.04918e-07 0)
(3 9.0805e-10 0)
(3 2.98932e-12 0)
(3 7.91055e-15 0)
(3 3.43766e-15 0)
(3 1.72209e-15 0)
(3 1.69497e-15 0)
(3 2.92423e-15 0)
(3 1.75855e-15 0)
(2.25461 -0.883968 0)
(2.25944 -0.887589 0)
(2.27213 -0.888345 0)
(2.2828 -0.887871 0)
(2.28992 -0.882183 0)
(2.28639 -0.879464 0)
(2.26328 -0.887468 0)
(2.39693 -0.757785 0)
(2.67255 -0.417494 0)
(2.97782 -0.0496783 0)
(2.99982 -0.000324032 0)
(3 -1.2925e-06 0)
(3 -3.9713e-09 0)
(3 -1.32064e-11 0)
(3 -4.63242e-14 0)
(3 2.51222e-15 0)
(3 1.56346e-15 0)
(3 1.79613e-15 0)
(3 3.48668e-15 0)
(3 2.1546e-15 0)
(2.26422 -0.886946 0)
(2.26916 -0.892887 0)
(2.28208 -0.895269 0)
(2.29014 -0.897799 0)
(2.29505 -0.889561 0)
(2.29785 -0.884727 0)
(2.29868 -0.884946 0)
(2.33801 -0.86076 0)
(2.50539 -0.647342 0)
(2.97973 -0.00782011 0)
(3.00397 0.00635464 0)
(3.00024 0.000387223 0)
(3 2.81794e-06 0)
(3 9.2949e-09 0)
(3 2.88771e-11 0)
(3 9.45547e-14 0)
(3 2.46729e-15 0)
(3 2.41241e-15 0)
(3 4.00647e-15 0)
(3 2.34946e-15 0)
(2.27264 -0.841133 0)
(2.60311 -0.64327 0)
(2.42437 -0.790064 0)
(2.35779 -0.855005 0)
(2.33288 -0.877703 0)
(2.31838 -0.883988 0)
(2.3127 -0.886478 0)
(2.31839 -0.892634 0)
(2.38162 -0.808771 0)
(2.57368 -0.560494 0)
(2.92937 -0.113773 0)
(2.99738 -0.00657527 0)
(2.99995 -0.00014181 0)
(3 -1.85874e-06 0)
(3 -1.96962e-08 0)
(3 -1.80925e-10 0)
(3 -1.43515e-12 0)
(3 -7.39512e-15 0)
(3 3.68989e-15 0)
(3 2.5115e-15 0)
(1.95048 -0.972911 0)
(2.75596 -0.265993 0)
(2.68281 -0.47843 0)
(2.52688 -0.696849 0)
(2.43827 -0.799576 0)
(2.38339 -0.845068 0)
(2.34854 -0.87699 0)
(2.3399 -0.895647 0)
(2.35639 -0.853272 0)
(2.41903 -0.758702 0)
(2.66232 -0.495157 0)
(2.95401 -0.0886895 0)
(2.99834 -0.00439243 0)
(2.99997 -7.75411e-05 0)
(3 -9.41981e-07 0)
(3 -9.09151e-09 0)
(3 -7.68126e-11 0)
(3 -5.68101e-13 0)
(3 -1.29837e-16 0)
(3 2.43339e-15 0)
(2.15183 -0.314075 0)
(2.83677 0.248608 0)
(2.87408 -0.0699993 0)
(2.74018 -0.383104 0)
(2.60616 -0.612476 0)
(2.50938 -0.730268 0)
(2.43961 -0.816803 0)
(2.38772 -0.877278 0)
(2.37068 -0.847534 0)
(2.37445 -0.858444 0)
(2.49856 -0.718543 0)
(2.77574 -0.375032 0)
(2.97966 -0.044668 0)
(2.99939 -0.00163453 0)
(2.99999 -2.26288e-05 0)
(3 -2.41077e-07 0)
(3 -2.11278e-09 0)
(3 -1.61401e-11 0)
(3 -1.05586e-13 0)
(3 2.23582e-15 0)
(2.29609 0.184573 0)
(2.75174 0.770338 0)
(2.95198 0.114881 0)
(2.89506 -0.144409 0)
(2.79285 -0.335559 0)
(2.655 -0.554613 0)
(2.57267 -0.683671 0)
(2.4779 -0.800451 0)
(2.41282 -0.825306 0)
(2.39715 -0.857306 0)
(2.42249 -0.83701 0)
(2.61855 -0.610059 0)
(2.87392 -0.241271 0)
(2.99361 -0.0157851 0)
(2.99988 -0.00034788 0)
(3 -3.73262e-06 0)
(3 -3.31448e-08 0)
(3 -2.55629e-10 0)
(3 -1.74073e-12 0)
(3 -7.53249e-15 0)
(2.48482 0.802219 0)
(2.73314 1.21181 0)
(2.98589 0.547135 0)
(3.00726 0.0435776 0)
(2.9146 -0.224753 0)
(2.78953 -0.405194 0)
(2.70289 -0.543817 0)
(2.5792 -0.701784 0)
(2.50923 -0.752326 0)
(2.4346 -0.838855 0)
(2.43433 -0.841891 0)
(2.4673 -0.800313 0)
(2.75239 -0.456133 0)
(2.9547 -0.10557 0)
(2.99854 -0.00375866 0)
(2.99998 -5.21825e-05 0)
(3 -4.68835e-07 0)
(3 -3.57095e-09 0)
(3 -2.39183e-11 0)
(3 -1.24951e-13 0)
(2.58872 0.978147 0)
(2.78949 1.29363 0)
(2.98393 0.811747 0)
(3.05019 0.606799 0)
(2.99271 0.0659493 0)
(2.92235 -0.166336 0)
(2.81018 -0.408131 0)
(2.69375 -0.578534 0)
(2.61159 -0.671653 0)
(2.50547 -0.786213 0)
(2.46266 -0.833803 0)
(2.479 -0.828489 0)
(2.57105 -0.729568 0)
(2.86831 -0.27338 0)
(2.99076 -0.0252223 0)
(2.99984 -0.000469404 0)
(3 -4.52922e-06 0)
(3 -3.49069e-08 0)
(3 -2.37812e-10 0)
(3 -1.28492e-12 0)
(2.69322 1.02505 0)
(2.92285 1.25563 0)
(3.09241 0.81348 0)
(3.0752 0.727033 0)
(3.03145 0.486252 0)
(2.97706 0.145358 0)
(2.92053 -0.126418 0)
(2.8161 -0.348617 0)
(2.71955 -0.533218 0)
(2.60013 -0.693665 0)
(2.51626 -0.790292 0)
(2.4963 -0.817502 0)
(2.53768 -0.759386 0)
(2.74408 -0.479243 0)
(2.95894 -0.0947168 0)
(2.99882 -0.00324253 0)
(2.99999 -3.74092e-05 0)
(3 -3.04133e-07 0)
(3 -2.14009e-09 0)
(3 -1.18705e-11 0)
(2.62482 0.943166 0)
(2.87413 0.94741 0)
(3.13705 0.768524 0)
(3.18298 0.711724 0)
(3.1319 0.55093 0)
(3.03403 0.209394 0)
(2.99117 0.081655 0)
(2.87651 -0.201822 0)
(2.81491 -0.344634 0)
(2.70923 -0.531236 0)
(2.59232 -0.701916 0)
(2.52725 -0.789403 0)
(2.55341 -0.762594 0)
(2.64031 -0.657673 0)
(2.89173 -0.227731 0)
(2.99285 -0.0174308 0)
(2.99989 -0.000276684 0)
(3 -2.4531e-06 0)
(3 -1.77456e-08 0)
(3 -9.96324e-11 0)
(2.63411 0.860375 0)
(2.81586 0.816344 0)
(3.10162 0.793268 0)
(3.21459 0.970122 0)
(3.19112 0.435478 0)
(3.11304 0.227297 0)
(3.06391 0.0668975 0)
(2.93257 -0.191117 0)
(2.88621 -0.281336 0)
(2.77666 -0.470808 0)
(2.67457 -0.606605 0)
(2.57768 -0.737489 0)
(2.5646 -0.759068 0)
(2.60474 -0.690421 0)
(2.77569 -0.42739 0)
(2.97333 -0.0583689 0)
(2.99934 -0.00164004 0)
(2.99999 -1.65179e-05 0)
(3 -1.23307e-07 0)
(3 -6.97879e-10 0)
(2.74543 0.78797 0)
(2.78425 0.774627 0)
(3.00735 0.893122 0)
(3.16175 1.04921 0)
(3.1909 0.669406 0)
(3.19282 0.540237 0)
(3.10513 0.152291 0)
(3.04506 -0.0340779 0)
(2.94825 -0.255279 0)
(2.84608 -0.43145 0)
(2.76186 -0.529452 0)
(2.65543 -0.661326 0)
(2.59287 -0.748168 0)
(2.61416 -0.737633 0)
(2.73418 -0.530304 0)
(2.91887 -0.169372 0)
(2.99653 -0.00791048 0)
(2.99996 -9.95271e-05 0)
(3 -7.57657e-07 0)
(3 -4.25895e-09 0)
(2.82661 0.738534 0)
(2.85873 0.747101 0)
(3.05724 0.916054 0)
(3.12932 1.07147 0)
(3.12117 0.805112 0)
(3.12669 0.750021 0)
(3.13257 0.473007 0)
(3.08625 0.22885 0)
(3.03595 -0.0332367 0)
(2.96241 -0.236142 0)
(2.84251 -0.439108 0)
(2.73517 -0.58276 0)
(2.63702 -0.718378 0)
(2.6273 -0.738058 0)
(2.66631 -0.662138 0)
(2.86681 -0.284784 0)
(2.98792 -0.0285891 0)