/*--------------------------------*- C++ -*----------------------------------*\
  =========                 |
  \\      /  F ield         | OpenFOAM: The Open Source CFD Toolbox
   \\    /   O peration     | Website:  https://openfoam.org
    \\  /    A nd           | Version:  7
     \\/     M anipulation  |
\*---------------------------------------------------------------------------*/
FoamFile
{
    version     2.0;
    format      ascii;
    class       volVectorField;
    location    "2.3";
    object      U;
}
// * * * * * * * * * * * * * * * * * * * * * * * * * * * * * * * * * * * * * //

dimensions      [0 1 -1 0 0 0 0];

internalField   nonuniform List<vector> 
1750
(
(2.61799 -0.455558 0)
(2.6172 -0.230604 0)
(2.65325 -0.135235 0)
(2.72634 -0.0177601 0)
(2.78919 -0.0837762 0)
(2.75733 -0.0996721 0)
(2.61371 -0.0222111 0)
(2.49069 0.0895525 0)
(2.3624 0.0398692 0)
(2.44088 -0.0293062 0)
(2.78569 -1.018 0)
(2.82106 -0.880901 0)
(2.81441 -0.795101 0)
(2.83252 -0.533734 0)
(2.97385 -0.49966 0)
(3.05057 -0.375105 0)
(2.62175 -0.0843208 0)
(2.48385 0.137342 0)
(2.40833 0.0373416 0)
(2.50023 -0.0530248 0)
(3.10106 -1.31294 0)
(3.2008 -1.41027 0)
(3.25216 -1.42119 0)
(3.23446 -1.36539 0)
(3.2405 -1.31548 0)
(3.20314 -1.14598 0)
(2.96552 -0.668398 0)
(2.76021 0.0046331 0)
(2.72075 0.00893188 0)
(2.62881 -0.0317291 0)
(3.16067 -1.29697 0)
(3.18932 -1.29727 0)
(3.23418 -1.29026 0)
(3.26261 -1.26194 0)
(3.2739 -1.15306 0)
(3.30723 -1.13965 0)
(3.28533 -1.14664 0)
(3.14651 -0.671847 0)
(3.13057 -0.554818 0)
(2.82713 -0.207067 0)
(3.22777 -1.06438 0)
(3.24843 -0.965717 0)
(3.29462 -0.876004 0)
(3.29456 -0.876146 0)
(3.29061 -0.903333 0)
(3.30056 -0.928524 0)
(3.29318 -0.973844 0)
(3.284 -0.975042 0)
(3.25959 -0.99721 0)
(3.04525 -0.66834 0)
(3.24578 -0.805261 0)
(3.24567 -0.795408 0)
(3.26466 -0.791217 0)
(3.2741 -0.802988 0)
(3.28326 -0.805393 0)
(3.28451 -0.817993 0)
(3.2708 -0.853357 0)
(3.25197 -0.861047 0)
(3.2459 -0.844644 0)
(3.14605 -0.793268 0)
(3.21753 -0.540078 0)
(3.22722 -0.515685 0)
(3.24196 -0.537205 0)
(3.25357 -0.563593 0)
(3.273 -0.527305 0)
(3.26893 -0.511955 0)
(3.24581 -0.601217 0)
(3.23085 -0.646196 0)
(3.21533 -0.712895 0)
(3.13993 -0.702185 0)
(3.15669 -0.247215 0)
(3.16511 -0.277846 0)
(3.17844 -0.279342 0)
(3.20257 -0.336267 0)
(3.21814 -0.373417 0)
(3.22849 -0.393651 0)
(3.22571 -0.439883 0)
(3.20771 -0.473031 0)
(3.19896 -0.480853 0)
(3.14034 -0.491998 0)
(3.03642 0.114812 0)
(3.06922 0.0448221 0)
(3.09755 -0.00932064 0)
(3.12434 -0.0575918 0)
(3.14291 -0.075896 0)
(3.15592 -0.115805 0)
(3.18294 -0.21995 0)
(3.18524 -0.263607 0)
(3.19194 -0.275986 0)
(3.16043 -0.271402 0)
(2.93103 0.382723 0)
(2.96314 0.34956 0)
(2.9961 0.316309 0)
(3.03422 0.263634 0)
(3.07497 0.199857 0)
(3.09573 0.169008 0)
(3.12641 0.100117 0)
(3.14847 0.0494647 0)
(3.17271 0.0311806 0)
(3.15715 -0.0251444 0)
(2.89281 0.440684 0)
(2.91807 0.432203 0)
(2.9484 0.418658 0)
(2.97836 0.400751 0)
(3.01542 0.364325 0)
(3.04422 0.331786 0)
(3.07434 0.292583 0)
(3.10483 0.247152 0)
(3.1431 0.188295 0)
(3.14523 0.125736 0)
(2.90617 0.36053 0)
(2.91651 0.361187 0)
(2.93635 0.359742 0)
(2.9634 0.347671 0)
(2.99176 0.322952 0)
(3.01505 0.298687 0)
(3.04026 0.270057 0)
(3.06605 0.236005 0)
(3.09135 0.189121 0)
(3.10031 0.126624 0)
(2.95645 0.125293 0)
(2.95491 0.143678 0)
(2.95405 0.166661 0)
(2.95992 0.188749 0)
(2.98234 0.186481 0)
(2.99171 0.181441 0)
(3.00615 0.170931 0)
(3.02245 0.150443 0)
(3.03403 0.119613 0)
(3.03557 0.0669434 0)
(2.99725 0.00719866 0)
(2.99594 0.0109722 0)
(2.99446 0.0160592 0)
(2.9933 0.0226854 0)
(2.99421 0.0286667 0)
(2.99685 0.0310078 0)
(2.99814 0.0304718 0)
(3.00077 0.0272009 0)
(3.0032 0.0201183 0)
(3.00395 0.00860398 0)
(2.99996 7.60648e-05 0)
(2.99994 0.000134051 0)
(2.9999 0.000234895 0)
(2.99984 0.000399536 0)
(2.99981 0.000609024 0)
(2.99987 0.000754842 0)
(2.99992 0.000766983 0)
(2.99998 0.000699584 0)
(3.00007 0.000500362 0)
(3.0001 0.000185052 0)
(2.66374 -1.08627 0)
(2.77227 -1.08081 0)
(2.97312 -1.29074 0)
(3.14343 -1.28408 0)
(3.2219 -1.11234 0)
(3.2596 -0.807593 0)
(3.23559 -0.468997 0)
(3.13186 -0.125907 0)
(3.00694 0.160222 0)
(2.89407 0.430783 0)
(2.87162 0.448614 0)
(2.88042 0.34318 0)
(2.96371 0.0978715 0)
(2.99823 0.00475803 0)
(2.99998 5.02407e-05 0)
(2.61412 -1.09 0)
(2.75541 -1.10195 0)
(3.02292 -1.25653 0)
(3.16312 -1.29329 0)
(3.26427 -1.0523 0)
(3.27808 -0.611544 0)
(3.18978 -0.261045 0)
(3.0829 -0.038646 0)
(2.9448 0.27125 0)
(2.85513 0.480124 0)
(2.85221 0.460687 0)
(2.89473 0.315147 0)
(2.97765 0.0618422 0)
(2.99925 0.00201347 0)
(2.99999 1.91204e-05 0)
(2.53463 -1.10606 0)
(2.73442 -1.16393 0)
(3.06234 -1.16323 0)
(3.21266 -1.20689 0)
(3.28414 -0.904404 0)
(3.20515 -0.43671 0)
(3.14269 -0.247683 0)
(3.03742 0.0176736 0)
(2.88718 0.372995 0)
(2.82844 0.504697 0)
(2.83871 0.469345 0)
(2.90119 0.263562 0)
(2.98525 0.0386792 0)
(2.99966 0.000916615 0)
(3 7.86763e-06 0)
(2.40458 -1.14764 0)
(2.71929 -1.24585 0)
(3.1169 -1.11303 0)
(3.24237 -1.09552 0)
(3.21982 -0.747297 0)
(3.15953 -0.483857 0)
(3.09939 -0.249054 0)
(2.98016 0.153844 0)
(2.85591 0.430476 0)
(2.80413 0.522598 0)
(2.81049 0.475664 0)
(2.9175 0.211169 0)
(2.99245 0.0198182 0)
(2.99986 0.000370485 0)
(3 2.97168e-06 0)
(2.33517 -1.21317 0)
(2.71777 -1.33179 0)
(3.17912 -0.979609 0)
(3.14841 -1.06352 0)
(3.16734 -0.777211 0)
(3.13286 -0.444561 0)
(3.06321 -0.0406165 0)
(2.92415 0.290494 0)
(2.80225 0.517031 0)
(2.78008 0.535512 0)
(2.81992 0.441593 0)
(2.93786 0.153481 0)
(2.99632 0.00913884 0)
(2.99995 0.00013526 0)
(3 1.04213e-06 0)
(2.28951 -1.2349 0)
(2.82978 -1.55163 0)
(3.10757 -1.12819 0)
(3.09279 -1.05769 0)
(3.16992 -0.686284 0)
(3.11771 -0.146931 0)
(3.0026 0.147386 0)
(2.86937 0.369951 0)
(2.76325 0.555152 0)
(2.76289 0.540515 0)
(2.84965 0.351242 0)
(2.9668 0.080718 0)
(2.99871 0.00327685 0)
(2.99998 4.23616e-05 0)
(3 3.23089e-07 0)
(2.30435 -1.22547 0)
(2.71552 -1.55178 0)
(3.029 -1.23327 0)
(3.15133 -0.885646 0)
(3.14741 -0.273323 0)
(3.07363 0.0128497 0)
(2.95156 0.215711 0)
(2.79131 0.486265 0)
(2.73307 0.574427 0)
(2.7544 0.5409 0)
(2.85826 0.317384 0)
(2.98148 0.0430638 0)
(2.99955 0.00109783 0)
(2.99999 1.26712e-05 0)
(3 9.38918e-08 0)
(2.22304 -1.26444 0)
(2.6461 -1.50044 0)
(2.98713 -1.22456 0)
(3.13642 -0.36614 0)
(3.10891 -0.132615 0)
(3.01727 0.0301002 0)
(2.86525 0.356047 0)
(2.72986 0.569618 0)
(2.71208 0.586494 0)
(2.76241 0.487846 0)
(2.91769 0.185908 0)
(2.9941 0.014687 0)
(2.99988 0.000293696 0)
(3 3.2219e-06 0)
(3 2.40053e-08 0)
(2.12771 -1.0588 0)
(2.58764 -1.44147 0)
(3.05613 -0.768435 0)
(3.10796 -0.247561 0)
(3.06217 -0.153584 0)
(2.92083 0.222237 0)
(2.77619 0.490014 0)
(2.68926 0.619085 0)
(2.70055 0.593603 0)
(2.79937 0.414483 0)
(2.95819 0.100029 0)
(2.99822 0.0048718 0)
(2.99997 7.27695e-05 0)
(3 7.50297e-07 0)
(3 5.44216e-09 0)
(1.96432 -0.737366 0)
(2.56654 -1.28847 0)
(3.0113 -0.430622 0)
(3.05977 -0.321288 0)
(2.99378 0.0715145 0)
(2.80236 0.43519 0)
(2.70345 0.573166 0)
(2.6592 0.644145 0)
(2.68112 0.587462 0)
(2.83728 0.327541 0)
(2.9802 0.0469919 0)
(2.9995 0.00130749 0)
(2.99999 1.7102e-05 0)
(3 1.67199e-07 0)
(3 1.16335e-09 0)
(1.72176 -0.315998 0)
(2.67716 -0.841799 0)
(3.04382 -0.453463 0)
(3.01368 -0.0162239 0)
(2.86048 0.362726 0)
(2.72552 0.54633 0)
(2.64063 0.631279 0)
(2.6332 0.647156 0)
(2.71338 0.526288 0)
(2.92445 0.162033 0)
(2.99549 0.0116905 0)
(2.9999 0.000253704 0)
(3 3.10555e-06 0)
(3 3.03321e-08 0)
(3 2.12544e-10 0)
(1.46305 0.375272 0)
(2.74622 -0.518208 0)
(3.04715 -0.183726 0)
(2.86512 0.357666 0)
(2.77465 0.483742 0)
(2.63892 0.65357 0)
(2.61151 0.648136 0)
(2.61528 0.611845 0)
(2.82159 0.328736 0)
(2.97279 0.0637175 0)
(2.99902 0.00249823 0)
(2.99998 3.97676e-05 0)
(3 4.66103e-07 0)
(3 4.49417e-09 0)
(3 3.18767e-11 0)
(1.4504 0.751874 0)
(2.85839 0.0304738 0)
(2.92098 0.285305 0)
(2.76486 0.497002 0)
(2.66498 0.606926 0)
(2.5893 0.696584 0)
(2.59743 0.656418 0)
(2.70142 0.490967 0)
(2.90128 0.193636 0)
(2.99417 0.0140697 0)
(2.99988 0.000331328 0)
(3 4.69298e-06 0)
(3 5.23729e-08 0)
(3 4.93386e-10 0)
(3 3.52107e-12 0)
(2.08519 0.653173 0)
(2.94587 0.275064 0)
(2.77651 0.508291 0)
(2.64933 0.629096 0)
(2.58619 0.677005 0)
(2.57216 0.69673 0)
(2.59268 0.61468 0)
(2.7623 0.377413 0)
(2.9726 0.0522889 0)
(2.99915 0.00207013 0)
(2.99999 3.58787e-05 0)
(3 4.48249e-07 0)
(3 4.62537e-09 0)
(3 4.06188e-11 0)
(3 2.74029e-13 0)
(2.4317 0.657714 0)
(2.77794 0.561429 0)
(2.63384 0.649465 0)
(2.5758 0.699128 0)
(2.56717 0.687527 0)
(2.56876 0.681922 0)
(2.66946 0.491876 0)
(2.93792 0.0995724 0)
(2.99762 0.0052509 0)
(2.99996 9.95387e-05 0)
(3 1.39378e-06 0)
(3 1.62376e-08 0)
(3 1.60018e-10 0)
(3 1.32868e-12 0)
(3 7.63628e-15 0)
(2.52965 0.692399 0)
(2.5484 0.694744 0)
(2.56368 0.706069 0)
(2.5579 0.71333 0)
(2.56236 0.688346 0)
(2.64808 0.540675 0)
(2.93682 0.0899632 0)
(3.00567 -0.0103034 0)
(3.00057 -0.000869126 0)
(3.00001 -1.643e-05 0)
(3 -1.0839e-07 0)
(3 -6.31078e-10 0)
(3 -3.7008e-12 0)
(3 -2.13758e-14 0)
(3 -2.54617e-16 0)
(2.52361 0.685018 0)
(2.54979 0.677527 0)
(2.56104 0.707503 0)
(2.54134 0.740452 0)
(2.55575 0.69045 0)
(2.64498 0.549167 0)
(2.92601 0.136285 0)
(2.99803 0.00324645 0)
(2.99998 3.49514e-05 0)
(3 2.74665e-07 0)
(3 2.06959e-09 0)
(3 1.4445e-11 0)
(3 9.44368e-14 0)
(3 5.47477e-16 0)
(3 1.76682e-16 0)
(2.53098 0.690595 0)
(2.54946 0.664114 0)
(2.55242 0.711514 0)
(2.52786 0.766962 0)
(2.59272 0.660432 0)
(2.78427 0.315504 0)
(2.98912 0.0131895 0)
(2.99994 9.1442e-05 0)
(3 1.29449e-07 0)
(3 6.28133e-10 0)
(3 5.36497e-12 0)
(3 5.4625e-14 0)
(3 2.1716e-15 0)
(3 -1.6528e-16 0)
(3 1.67616e-16 0)
(2.52956 0.703914 0)
(2.54998 0.665999 0)
(2.54916 0.71433 0)
(2.52418 0.771942 0)
(2.66755 0.537844 0)
(2.90553 0.136625 0)
(2.99769 0.00381504 0)
(2.99999 5.20868e-06 0)
(3 2.47409e-08 0)
(3 4.23562e-11 0)
(3 1.40367e-12 0)
(3 3.03619e-14 0)
(3 1.47537e-15 0)
(3 3.62914e-16 0)
(3 8.35633e-16 0)
(2.52605 0.716345 0)
(2.52836 0.708413 0)
(2.55091 0.72479 0)
(2.53662 0.750843 0)
(2.72576 0.416318 0)
(2.97054 0.0416706 0)
(2.99985 0.000163759 0)
(3 8.46866e-07 0)
(3 -6.9141e-10 0)
(3 1.9931e-11 0)
(3 1.47947e-12 0)
(3 3.27597e-14 0)
(3 6.34344e-16 0)
(3 1.2955e-15 0)
(3 1.21974e-15 0)
(2.51299 0.740256 0)
(2.50756 0.750727 0)
(2.55163 0.729992 0)
(2.58085 0.682249 0)
(2.8522 0.21684 0)
(2.99537 0.00585842 0)
(2.99998 3.47837e-05 0)
(3 -6.61194e-08 0)
(3 3.28786e-10 0)
(3 1.94966e-11 0)
(3 1.58733e-12 0)
(3 8.32963e-15 0)
(3 5.10955e-16 0)
(3 2.61545e-15 0)
(3 2.50628e-15 0)
(2.51387 0.728963 0)
(2.4605 0.808238 0)
(2.55774 0.724508 0)
(2.74334 0.466305 0)
(2.96446 0.054926 0)
(2.99965 0.000492836 0)
(3 -5.20635e-07 0)
(3 3.29464e-09 0)
(3 1.42493e-10 0)
(3 5.86497e-12 0)
(3 1.21535e-14 0)
(3 -2.76342e-16 0)
(3 4.74382e-16 0)
(3 2.75485e-15 0)
(3 2.34736e-15 0)
(2.47815 0.727514 0)
(2.40439 0.870257 0)
(2.6731 0.642429 0)
(2.84908 0.286813 0)
(2.99398 0.00889226 0)
(2.99998 1.87951e-05 0)
(3 2.25798e-07 0)
(3 7.25716e-10 0)
(3 6.16489e-14 0)
(3 3.30527e-15 0)
(3 -4.23268e-16 0)
(3 -6.78756e-17 0)
(3 8.09853e-16 0)
(3 3.03774e-15 0)
(3 2.21413e-15 0)
(2.48743 0.675764 0)
(2.45345 0.923599 0)
(2.76926 0.482388 0)
(2.963 0.0652483 0)
(2.99955 0.000593578 0)
(3 1.40945e-06 0)
(3 -3.60625e-09 0)
(3 -4.30545e-12 0)
(3 -5.93143e-13 0)
(3 -6.472e-15 0)
(3 -1.45159e-15 0)
(3 -4.44738e-16 0)
(3 1.22664e-15 0)
(3 3.20024e-15 0)
(3 2.2468e-15 0)
(2.5362 0.601472 0)
(2.51498 0.822241 0)
(2.88369 0.227844 0)
(2.99437 0.0102107 0)
(2.99998 3.1209e-05 0)
(3 1.57815e-08 0)
(3 7.38542e-10 0)
(3 2.9625e-12 0)
(3 3.48224e-14 0)
(3 3.45214e-16 0)
(3 -1.34866e-15 0)
(3 -5.42805e-16 0)
(3 1.14375e-15 0)
(3 3.03545e-15 0)
(3 2.31724e-15 0)
(2.57768 0.481745 0)
(2.63872 0.625982 0)
(2.95362 0.0838918 0)
(2.99929 0.00108665 0)
(3 2.06595e-06 0)
(3 4.08656e-09 0)
(3 -8.99176e-12 0)
(3 -4.59893e-14 0)
(3 -2.16064e-15 0)
(3 1.70281e-16 0)
(3 -1.41441e-15 0)
(3 -8.26871e-16 0)
(3 9.92459e-16 0)
(3 3.70857e-15 0)
(3 2.92931e-15 0)
(2.63455 0.374197 0)
(2.77126 0.387098 0)
(2.98779 0.0201382 0)
(2.99991 0.000127061 0)
(3 4.09281e-07 0)
(3 1.82418e-09 0)
(3 5.65531e-12 0)
(3 9.68282e-15 0)
(3 -4.13002e-17 0)
(3 6.45192e-16 0)
(3 -1.35815e-15 0)
(3 -1.31029e-15 0)
(3 3.83489e-16 0)
(3 3.89967e-15 0)
(3 2.79867e-15 0)
(2.72446 0.237515 0)
(2.88035 0.194113 0)
(2.99744 0.00402008 0)
(2.99999 1.19511e-05 0)
(3 -8.9602e-09 0)
(3 -3.458e-11 0)
(3 -3.90588e-13 0)
(3 -3.221e-14 0)
(3 -7.12456e-16 0)
(3 3.58646e-17 0)
(3 -1.2251e-15 0)
(3 -1.28557e-15 0)
(3 -2.04901e-16 0)
(3 2.8765e-15 0)
(3 2.561e-15 0)
(2.80875 0.12779 0)
(2.95723 0.0637303 0)
(2.99962 0.000536766 0)
(3 1.14453e-06 0)
(3 7.66782e-09 0)
(3 6.29369e-12 0)
(3 -2.46501e-13 0)
(3 -3.08711e-14 0)
(3 3.90586e-16 0)
(3 -6.03091e-16 0)
(3 -9.88512e-16 0)
(3 -8.8308e-16 0)
(3 -4.78178e-16 0)
(3 2.05924e-15 0)
(3 2.10303e-15 0)
(2.91655 0.0198861 0)
(2.99228 0.0107458 0)
(2.99997 3.20132e-05 0)
(3 3.24164e-08 0)
(3 -1.14295e-10 0)
(3 -5.78218e-13 0)
(3 -5.57598e-14 0)
(3 -1.05384e-15 0)
(3 4.1461e-16 0)
(3 -7.74524e-16 0)
(3 -8.81688e-16 0)
(3 -2.94998e-16 0)
(3 -9.88883e-16 0)
(3 1.22078e-15 0)
(3 1.83117e-15 0)
(3 -1.07325e-15 0)
(3 4.02371e-16 0)
(3 1.98378e-15 0)
(3 1.48895e-15 0)
(3 9.28236e-16 0)
(3 -1.36355e-15 0)
(3 -1.68303e-16 0)
(3 2.99442e-16 0)
(3 -8.35929e-17 0)
(3 -9.04723e-16 0)
(3 -8.60194e-16 0)
(3 -1.25065e-16 0)
(3 -5.83401e-16 0)
(3 6.25979e-16 0)
(3 1.24719e-15 0)
(3 -1.72055e-15 0)
(3 6.7543e-16 0)
(3 2.71425e-15 0)
(3 1.29364e-15 0)
(3 -2.46138e-16 0)
(3 -1.52865e-15 0)
(3 -6.79456e-16 0)
(3 3.10348e-16 0)
(3 -1.35583e-16 0)
(3 -1.23958e-15 0)
(3 -8.64565e-16 0)
(3 2.39171e-16 0)
(3 -2.44041e-16 0)
(3 3.46219e-16 0)
(3 8.84029e-16 0)
(3 -1.61413e-15 0)
(3 3.24548e-16 0)
(3 2.38844e-15 0)
(3 1.02814e-15 0)
(3 -3.45193e-16 0)
(3 -6.7524e-16 0)
(3 -4.85226e-16 0)
(3 3.85637e-16 0)
(3 -8.30572e-17 0)
(3 -1.46162e-15 0)
(3 -1.85505e-15 0)
(3 2.3459e-16 0)
(3 3.87558e-16 0)
(3 2.98005e-16 0)
(3 8.2096e-16 0)
(3 -6.92695e-16 0)
(3 -4.51898e-16 0)
(3 7.21697e-16 0)
(3 1.94744e-15 0)
(3 4.94042e-16 0)
(3 -2.9391e-16 0)
(3 -3.33478e-16 0)
(3 -3.37815e-16 0)
(3 9.31201e-17 0)
(3 -1.69269e-15 0)
(3 -2.11966e-15 0)
(3 -4.57794e-16 0)
(3 4.03771e-16 0)
(3 1.05093e-15 0)
(3 7.03409e-16 0)
(3 -5.38888e-16 0)
(3 -9.43832e-16 0)
(3 -2.77663e-16 0)
(3 2.54422e-15 0)
(3 1.40448e-15 0)
(3 -4.7256e-16 0)
(3 -6.6609e-16 0)
(3 -5.09431e-16 0)
(3 -4.26911e-16 0)
(3 -1.92624e-15 0)
(3 -2.23466e-15 0)
(3 -7.88615e-16 0)
(3 7.93633e-16 0)
(3 1.85307e-15 0)
(3 5.44369e-16 0)
(3 3.00378e-16 0)
(3 -6.71587e-16 0)
(3 -7.59637e-16 0)
(3 1.39325e-15 0)
(3 1.81216e-15 0)
(3 -3.51548e-17 0)
(3 6.55809e-17 0)
(3 -7.33117e-17 0)
(3 -1.4724e-15 0)
(3 -3.40594e-15 0)
(3 -1.87019e-15 0)
(3 -4.47617e-16 0)
(3 1.0281e-15 0)
(3 2.00164e-15 0)
(3 3.56789e-16 0)
(3 -1.18302e-16 0)
(3 -2.27575e-16 0)
(3 1.28368e-17 0)
(3 2.51525e-16 0)
(3 1.21757e-15 0)
(3 3.92311e-16 0)
(3 1.26563e-16 0)
(3 2.04836e-18 0)
(3 -1.46972e-15 0)
(3 -3.3248e-15 0)
(3 -1.28091e-15 0)
(3 -5.29683e-17 0)
(3 9.68464e-16 0)
(3 2.23404e-15 0)
(3 4.01787e-16 0)
(3 -2.45028e-16 0)
(3 -1.19042e-16 0)
(3 -3.50706e-16 0)
(3 -2.4303e-16 0)
(3 1.46025e-15 0)
(3 5.1811e-16 0)
(3 4.3594e-16 0)
(3 1.17933e-16 0)
(3 -1.36699e-15 0)
(3 -2.05667e-15 0)
(3 -7.61623e-16 0)
(3 -1.13188e-16 0)
(3 7.19193e-16 0)
(3 2.08525e-15 0)
(3 3.95056e-16 0)
(3 4.43338e-16 0)
(3 -3.10365e-16 0)
(3 1.21249e-16 0)
(3 -8.34908e-16 0)
(3 4.30459e-16 0)
(3 7.17003e-16 0)
(3 7.34564e-16 0)
(3 -8.26007e-17 0)
(3 -8.92149e-16 0)
(3 -1.07936e-15 0)
(3 -1.62115e-16 0)
(3 -2.20873e-17 0)
(3 2.13778e-16 0)
(3 5.23324e-16 0)
(3 1.31741e-16 0)
(3 9.99427e-17 0)
(3 2.09172e-17 0)
(3 1.36519e-16 0)
(3 -8.65908e-16 0)
(3 -4.91622e-16 0)
(3 9.53341e-16 0)
(3 1.56023e-15 0)
(3 7.68684e-16 0)
(3 -2.29784e-17 0)
(3 -1.50234e-15 0)
(3 -2.38687e-17 0)
(3 4.81915e-16 0)
(3 5.59819e-17 0)
(3 1.73895e-16 0)
(3 -1.43433e-17 0)
(3 -3.35554e-16 0)
(3 -1.05768e-15 0)
(3 -1.66931e-15 0)
(3 -5.85657e-16 0)
(3 5.33759e-16 0)
(3 1.72914e-15 0)
(3 1.1889e-15 0)
(3 -1.48899e-16 0)
(3 1.54329e-15 0)
(3 5.60414e-16 0)
(3 -4.2695e-16 0)
(3 -6.34447e-16 0)
(3 -5.28735e-16 0)
(3 1.26883e-15 0)
(3 1.94393e-15 0)
(3 2.69701e-15 0)
(3 2.2999e-15 0)
(3 1.43361e-15 0)
(3 1.27501e-15 0)
(3 -7.15462e-16 0)
(3 -5.81568e-16 0)
(3 -1.01702e-16 0)
(3 3.32206e-16 0)
(3 6.82597e-16 0)
(3 8.59191e-16 0)
(3 9.49041e-16 0)
(3 1.60296e-15 0)
(3 2.25088e-15 0)
(3 2.63384e-16 0)
(3 -5.15655e-16 0)
(3 -1.79882e-15 0)
(3 1.93174e-16 0)
(3 1.08498e-15 0)
(3 2.94344e-16 0)
(3 3.6656e-16 0)
(3 2.54051e-16 0)
(3 -6.06934e-17 0)
(3 4.29161e-16 0)
(3 6.32818e-17 0)
(3 -3.57844e-16 0)
(3 2.56085e-16 0)
(3 9.12178e-16 0)
(3 2.36691e-15 0)
(3 3.01857e-15 0)
(3 2.33612e-15 0)
(3 2.06791e-15 0)
(3 1.12135e-15 0)
(3 2.00293e-16 0)
(3 -2.735e-16 0)
(3 -3.70551e-16 0)
(3 2.99362e-16 0)
(3 3.56348e-16 0)
(3 9.00855e-16 0)
(3 1.34029e-15 0)
(3 1.9772e-15 0)
(3 1.71339e-15 0)
(3 1.55867e-15 0)
(3 1.15092e-15 0)
(3 -6.50604e-18 0)
(3 -1.04614e-15 0)
(3 -1.10491e-15 0)
(3 1.01465e-16 0)
(3 -3.39537e-16 0)
(3 -9.73556e-16 0)
(3 -1.03538e-15 0)
(3 -1.58404e-15 0)
(3 -9.74475e-16 0)
(3 2.98656e-18 0)
(3 -3.68755e-16 0)
(3 -8.55628e-17 0)
(3 1.96521e-16 0)
(3 5.48649e-16 0)
(3 -3.3037e-16 0)
(3 -1.97238e-15 0)
(3 -3.27317e-15 0)
(3 -3.75812e-15 0)
(3 -3.4426e-15 0)
(3 -2.66417e-15 0)
(3 -7.6006e-16 0)
(3 5.28853e-16 0)
(3 -1.54329e-15 0)
(3 -2.75024e-15 0)
(3 -3.5031e-15 0)
(3 -3.90421e-15 0)
(3 -4.33749e-15 0)
(3 -4.19682e-15 0)
(3 -4.60717e-15 0)
(3 -4.56862e-15 0)
(3 -1.35917e-15 0)
(3 -7.49581e-16 0)
(3 -3.77602e-15 0)
(3 -2.40337e-15 0)
(3 -2.25833e-15 0)
(3 -7.47175e-16 0)
(3 -2.6404e-16 0)
(3 -1.95761e-16 0)
(3 -7.2757e-16 0)
(3 -1.5484e-15 0)
(3 -1.752e-15 0)
(3 -1.01432e-17 0)
(3 -1.80092e-15 0)
(3 9.12104e-18 0)
(3 5.13278e-16 0)
(3 9.87229e-16 0)
(3 1.32161e-15 0)
(3 1.31306e-15 0)
(3 2.07993e-15 0)
(3 2.40121e-15 0)
(3 2.0139e-15 0)
(3 1.36109e-15 0)
(3 -9.91611e-16 0)
(3 -1.0656e-15 0)
(3 -8.82201e-16 0)
(3 -1.10023e-15 0)
(3 -5.79136e-16 0)
(3 -3.61991e-16 0)
(3 9.05287e-16 0)
(3 1.55203e-15 0)
(3 1.93067e-15 0)
(3 5.6261e-16 0)
(3 -3.80064e-16 0)
(3 -1.27389e-15 0)
(3 -9.91641e-16 0)
(3 -9.47397e-16 0)
(3 -9.2104e-16 0)
(3 -5.74144e-16 0)
(3 -6.43381e-16 0)
(3 -8.12731e-16 0)
(3 -9.32456e-16 0)
(3 -2.2208e-17 0)
(3 3.7031e-16 0)
(3 5.576e-17 0)
(3 -5.56809e-16 0)
(3 -6.59796e-16 0)
(3 -1.00253e-15 0)
(3 -6.9639e-16 0)
(3 -1.5641e-15 0)
(3 -1.62168e-15 0)
(3 -1.99739e-15 0)
(3 -6.64542e-16 0)
(3 2.84575e-15 0)
(3 2.68798e-15 0)
(3 1.12514e-15 0)
(3 1.82509e-16 0)
(3 5.05672e-17 0)
(3 -2.83644e-16 0)
(3 -4.52458e-16 0)
(3 -7.04583e-19 0)
(3 6.63513e-17 0)
(3 -4.0192e-17 0)
(3 3.20779e-15 0)
(3 2.47659e-15 0)
(3 1.72073e-15 0)
(3 1.54562e-15 0)
(3 1.38119e-15 0)
(3 7.57421e-16 0)
(3 5.56557e-16 0)
(3 1.18705e-15 0)
(3 7.00449e-16 0)
(3 2.06903e-16 0)
(3 9.68555e-16 0)
(3 2.80387e-16 0)
(3 3.23012e-16 0)
(3 6.64772e-16 0)
(3 4.80154e-16 0)
(3 6.1256e-16 0)
(3 5.67719e-16 0)
(3 4.48307e-16 0)
(3 1.03244e-16 0)
(3 -1.99202e-16 0)
(3 -3.58898e-16 0)
(3 -4.62641e-16 0)
(3 9.11404e-17 0)
(3 1.018e-15 0)
(3 1.35631e-15 0)
(3 1.46112e-15 0)
(3 1.55402e-15 0)
(3 1.48732e-15 0)
(3 1.35438e-15 0)
(3 1.10251e-16 0)
(3 4.88391e-16 0)
(3 1.98665e-15 0)
(3 2.28801e-15 0)
(3 2.46554e-15 0)
(3 2.38829e-15 0)
(3 1.93764e-15 0)
(3 1.15836e-15 0)
(3 7.92347e-16 0)
(3 3.35211e-16 0)
(3 -9.50332e-17 0)
(3 8.75932e-16 0)
(3 1.36371e-15 0)
(3 1.66619e-15 0)
(3 8.07999e-16 0)
(3 4.28147e-16 0)
(3 4.77113e-16 0)
(3 2.90977e-17 0)
(3 -4.67295e-16 0)
(3 -5.70265e-16 0)
(3 -2.50159e-16 0)
(2.84835 -0.0478904 0)
(2.99346 -0.00840653 0)
(3 2.53074e-09 0)
(3 5.30644e-15 0)
(3 5.58033e-16 0)
(3 -1.12776e-15 0)
(3 -8.33769e-16 0)
(3 -6.38857e-16 0)
(3 -2.46196e-15 0)
(3 -3.05741e-15 0)
(3 -1.44321e-15 0)
(3 -7.99283e-16 0)
(3 -3.13205e-17 0)
(3 1.79313e-15 0)
(3 2.8691e-15 0)
(3 3.27397e-15 0)
(3 1.05639e-15 0)
(3 -2.5521e-16 0)
(3 1.65764e-17 0)
(3 2.87722e-16 0)
(2.60576 -0.280633 0)
(2.89009 -0.136033 0)
(3.00029 0.000321652 0)
(3 -1.15467e-06 0)
(3 1.62957e-09 0)
(3 1.17511e-11 0)
(3 9.40431e-15 0)
(3 -2.67739e-15 0)
(3 -3.43145e-15 0)
(3 -2.08799e-15 0)
(3 -5.86799e-16 0)
(3 -1.369e-15 0)
(3 -1.1762e-15 0)
(3 1.95742e-15 0)
(3 2.21006e-15 0)
(3 3.41156e-15 0)
(3 1.48452e-15 0)
(3 -3.62358e-16 0)
(3 -1.08235e-16 0)
(3 1.08047e-16 0)
(2.51777 -0.502431 0)
(2.71852 -0.443951 0)
(2.99533 -0.00633801 0)
(3.00002 2.69779e-05 0)
(3 -3.46232e-10 0)
(3 1.14513e-11 0)
(3 8.96571e-15 0)
(3 -4.27599e-15 0)
(3 -3.93806e-15 0)
(3 -6.53716e-16 0)
(3 -3.35164e-16 0)
(3 2.72656e-16 0)
(3 -4.89241e-16 0)
(3 2.15583e-15 0)
(3 1.40562e-15 0)
(3 3.01126e-15 0)
(3 2.3511e-15 0)
(3 3.29716e-16 0)
(3 -2.06638e-16 0)
(3 3.72841e-17 0)
(2.29362 -0.740688 0)
(2.24779 -1.00125 0)
(2.87155 -0.207778 0)
(2.99968 -0.000543866 0)
(3 -1.65084e-10 0)
(3 1.29955e-11 0)
(3 2.3037e-13 0)
(3 -4.26986e-15 0)
(3 -4.58728e-15 0)
(3 -1.42012e-15 0)
(3 4.92178e-16 0)
(3 1.61669e-15 0)
(3 8.09046e-16 0)
(3 2.23932e-15 0)
(3 1.30371e-15 0)
(3 3.10799e-15 0)
(3 2.52016e-15 0)
(3 2.95664e-16 0)
(3 -5.55355e-16 0)
(3 -8.16101e-17 0)
(2.18009 -0.856534 0)
(2.09938 -1.0644 0)
(2.61832 -0.663761 0)
(2.94791 -0.10874 0)
(3.00001 0.000142332 0)
(3 3.62466e-07 0)
(3 3.50741e-10 0)
(3 5.38842e-13 0)
(3 -2.4059e-15 0)
(3 -3.90438e-15 0)
(3 1.87185e-15 0)
(3 3.99202e-15 0)
(3 3.32135e-15 0)
(3 2.21953e-15 0)
(3 7.08873e-16 0)
(3 2.97784e-15 0)
(3 2.48299e-15 0)
(3 2.77476e-16 0)
(3 -8.04712e-16 0)
(3 -3.81734e-16 0)
(2.19788 -0.900934 0)
(2.13124 -1.0259 0)
(2.31067 -0.957982 0)
(2.5469 -0.61897 0)
(2.96327 -0.0425373 0)
(3.00008 0.000132616 0)
(3 7.52231e-07 0)
(3 -7.01397e-10 0)
(3 -3.2202e-11 0)
(3 4.882e-14 0)
(3 4.45312e-15 0)
(3 4.94618e-15 0)
(3 4.10853e-15 0)
(3 2.78725e-15 0)
(3 1.43478e-16 0)
(3 3.06708e-15 0)
(3 2.33861e-15 0)
(3 6.42458e-16 0)
(3 -6.94701e-16 0)
(3 -3.56836e-16 0)
(2.22412 -0.915347 0)
(2.20019 -0.955757 0)
(2.24242 -0.927808 0)
(2.33523 -0.863953 0)
(2.68175 -0.395867 0)
(2.99134 -0.0101069 0)
(3.00002 3.65177e-05 0)
(3 1.03131e-06 0)
(3 3.50291e-09 0)
(3 -7.14472e-12 0)
(3 -3.79431e-13 0)
(3 6.5557e-16 0)
(3 4.39275e-15 0)
(3 2.47429e-15 0)
(3 -1.18355e-16 0)
(3 2.98376e-15 0)
(3 2.70612e-15 0)
(3 1.31227e-15 0)
(3 -3.08445e-17 0)
(3 1.56065e-17 0)
(2.24746 -0.890309 0)
(2.24899 -0.88569 0)
(2.25793 -0.904969 0)
(2.2531 -0.928279 0)
(2.45941 -0.699091 0)
(2.8711 -0.160119 0)
(2.99941 -0.000770377 0)
(3 -3.02634e-07 0)
(3 2.38e-09 0)
(3 9.86289e-11 0)
(3 4.23974e-14 0)
(3 2.87754e-15 0)
(3 3.34159e-15 0)
(3 2.87865e-15 0)
(3 5.4346e-16 0)
(3 2.87451e-15 0)
(3 2.88579e-15 0)
(3 1.7041e-15 0)
(3 2.46574e-16 0)
(3 1.39828e-16 0)
(2.24885 -0.879829 0)
(2.26711 -0.85335 0)
(2.27509 -0.887611 0)
(2.26198 -0.92992 0)
(2.29081 -0.895673 0)
(2.52454 -0.565655 0)
(2.95302 -0.0501563 0)
(3.00003 5.86514e-05 0)
(3 1.01618e-06 0)
(3 -6.94013e-10 0)
(3 -4.60633e-11 0)
(3 -1.41787e-13 0)
(3 1.95417e-15 0)
(3 3.08505e-15 0)
(3 1.11062e-15 0)
(3 3.06005e-15 0)
(3 2.62021e-15 0)
(3 1.31619e-15 0)
(3 5.13402e-16 0)
(3 5.15283e-16 0)
(2.2398 -0.872767 0)
(2.26749 -0.867962 0)
(2.28292 -0.887849 0)
(2.27606 -0.916028 0)
(2.25205 -0.906699 0)
(2.33 -0.791466 0)
(2.72528 -0.31681 0)
(2.99404 -0.00746727 0)
(3.00001 1.32987e-05 0)
(3 7.25054e-07 0)
(3 -6.30909e-10 0)
(3 -3.37673e-12 0)
(3 -6.79941e-13 0)
(3 -2.24439e-16 0)
(3 1.87114e-15 0)
(3 2.72172e-15 0)
(3 2.04139e-15 0)
(3 1.06557e-15 0)
(3 9.72656e-16 0)
(3 1.08092e-15 0)
(2.24629 -0.878346 0)
(2.26273 -0.8815 0)
(2.27937 -0.886202 0)
(2.2756 -0.892424 0)
(2.26191 -0.897164 0)
(2.29554 -0.857049 0)
(2.51869 -0.607092 0)
(2.92772 -0.0881059 0)
(2.99987 -0.000135435 0)
(3 3.78782e-07 0)
(3 1.68723e-08 0)
(3 6.17921e-11 0)
(3 -7.12311e-13 0)
(3 -5.00689e-14 0)
(3 1.76691e-15 0)
(3 1.88964e-15 0)
(3 1.29955e-15 0)
(3 1.11647e-15 0)
(3 2.08345e-15 0)
(3 1.625e-15 0)
(2.25255 -0.882121 0)
(2.26265 -0.88148 0)
(2.27484 -0.880856 0)
(2.28237 -0.881582 0)
(2.27726 -0.883106 0)
(2.28492 -0.883159 0)
(2.30793 -0.851744 0)
(2.66864 -0.396859 0)
(2.98661 -0.0162643 0)
(3.00001 2.03459e-05 0)
(3 4.67948e-07 0)
(3 -2.92846e-10 0)
(3 -1.24061e-11 0)
(3 -1.65819e-13 0)
(3 1.27363e-15 0)
(3 2.95928e-15 0)
(3 9.1297e-16 0)
(3 8.83402e-16 0)
(3 2.90181e-15 0)
(3 2.19289e-15 0)
(2.26128 -0.884617 0)
(2.26784 -0.882691 0)
(2.28029 -0.882877 0)
(2.28964 -0.884225 0)
(2.2907 -0.88482 0)
(2.28329 -0.890859 0)
(2.30825 -0.860581 0)
(2.53218 -0.616066 0)
(2.91632 -0.108478 0)
(2.99964 -0.000473171 0)
(3 1.248e-06 0)
(3 7.2429e-08 0)
(3 4.51772e-10 0)
(3 1.40559e-12 0)
(3 5.34214e-15 0)
(3 2.73789e-15 0)
(3 1.34205e-15 0)
(3 1.02415e-15 0)
(3 2.71383e-15 0)
(3 2.35197e-15 0)
(2.26615 -0.884845 0)
(2.2719 -0.886403 0)
(2.28657 -0.888598 0)
(2.30018 -0.897488 0)
(2.30453 -0.896006 0)
(2.30147 -0.892802 0)
(2.31446 -0.874445 0)
(2.35705 -0.822738 0)
(2.67278 -0.414515 0)
(2.97415 -0.0361502 0)
(2.99982 -0.000301729 0)
(3 -9.2292e-07 0)
(3 -2.58962e-09 0)
(3 -6.97597e-12 0)
(3 -1.26986e-14 0)
(3 1.91974e-15 0)
(3 1.65168e-15 0)
(3 9.20416e-16 0)
(3 2.49757e-15 0)
(3 2.4735e-15 0)
(2.27797 -0.889704 0)
(2.28476 -0.89753 0)
(2.30067 -0.899145 0)
(2.31132 -0.907818 0)
(2.31729 -0.897653 0)
(2.32008 -0.889399 0)
(2.33121 -0.881493 0)
(2.34009 -0.880336 0)
(2.56801 -0.592258 0)
(2.98181 -0.0145789 0)
(3.00189 0.00303271 0)
(3.00008 0.000140484 0)
(3 6.60339e-07 0)
(3 1.86395e-09 0)
(3 5.7188e-12 0)
(3 2.24713e-14 0)
(3 2.05619e-15 0)
(3 9.99814e-16 0)
(3 2.05231e-15 0)
(3 2.31349e-15 0)
(2.27455 -0.840028 0)
(2.61099 -0.661923 0)
(2.45915 -0.783907 0)
(2.38039 -0.862667 0)
(2.35166 -0.886146 0)
(2.33869 -0.888617 0)
(2.34592 -0.885294 0)
(2.35054 -0.898037 0)
(2.44527 -0.763647 0)
(2.68155 -0.469193 0)
(2.94643 -0.100919 0)
(2.9983 -0.00438656 0)
(2.99997 -8.78566e-05 0)
(3 -1.00957e-06 0)
(3 -9.67808e-09 0)
(3 -7.92756e-11 0)
(3 -5.67957e-13 0)
(3 -3.26825e-15 0)
(3 1.86117e-15 0)
(3 2.24171e-15 0)
(1.95121 -0.959957 0)
(2.79138 -0.31653 0)
(2.68887 -0.529231 0)
(2.5496 -0.702851 0)
(2.46274 -0.798989 0)
(2.40299 -0.847383 0)
(2.38302 -0.869422 0)
(2.37216 -0.891224 0)
(2.38785 -0.84556 0)
(2.43704 -0.779132 0)
(2.76434 -0.389876 0)
(2.96896 -0.0722941 0)
(2.99914 -0.00250576 0)
(2.99999 -4.21547e-05 0)
(3 -4.58698e-07 0)
(3 -4.23691e-09 0)
(3 -3.44775e-11 0)
(3 -2.4888e-13 0)
(3 3.21335e-16 0)
(3 2.16658e-15 0)
(2.21076 -0.453813 0)
(2.82782 0.395473 0)
(2.86655 -0.181315 0)
(2.73764 -0.489794 0)
(2.62655 -0.638908 0)
(2.51963 -0.749729 0)
(2.46676 -0.803993 0)
(2.41192 -0.866169 0)
(2.40204 -0.847597 0)
(2.40719 -0.866487 0)
(2.52351 -0.724984 0)
(2.85994 -0.273042 0)
(2.98751 -0.0348345 0)
(2.9997 -0.000890872 0)
(3 -1.1307e-05 0)
(3 -1.07908e-07 0)
(3 -8.8353e-10 0)
(3 -6.39721e-12 0)
(3 -3.90632e-14 0)
(3 2.13197e-15 0)
(2.33399 0.466547 0)
(2.81567 0.817715 0)
(2.96745 0.426448 0)
(2.92048 -0.080059 0)
(2.77408 -0.443103 0)
(2.66773 -0.594279 0)
(2.57748 -0.703692 0)
(2.48847 -0.802475 0)
(2.43889 -0.83281 0)
(2.42682 -0.859278 0)
(2.44359 -0.829487 0)
(2.62679 -0.606608 0)
(2.93357 -0.146933 0)
(2.99742 -0.00883494 0)
(2.99995 -0.00015594 0)
(3 -1.58588e-06 0)
(3 -1.34116e-08 0)
(3 -9.93772e-11 0)
(3 -6.50482e-13 0)
(3 -1.3378e-16 0)
(2.43606 0.761962 0)
(2.81011 1.16492 0)
(3.04487 0.616357 0)
(3.01555 0.27794 0)
(2.9327 -0.0505365 0)
(2.81413 -0.333673 0)
(2.71529 -0.52427 0)
(2.60001 -0.684291 0)
(2.51844 -0.773864 0)
(2.46106 -0.838945 0)
(2.47638 -0.833605 0)
(2.53947 -0.757535 0)
(2.77988 -0.410213 0)
(2.97354 -0.060769 0)
(2.99939 -0.00163727 0)
(2.99999 -1.98374e-05 0)
(3 -1.70237e-07 0)
(3 -1.267e-09 0)
(3 -8.36142e-12 0)
(3 -4.08124e-14 0)
(2.42055 0.96193 0)
(2.76237 1.18427 0)
(3.05896 0.479654 0)
(3.09946 0.29377 0)
(3.04775 0.162107 0)
(2.92155 -0.141589 0)
(2.84022 -0.311824 0)
(2.71484 -0.519116 0)
(2.63436 -0.648957 0)
(2.5284 -0.782375 0)
(2.49685 -0.822135 0)
(2.5225 -0.795373 0)
(2.6623 -0.606899 0)
(2.93104 -0.161409 0)
(2.99598 -0.0116873 0)
(2.99993 -0.00018177 0)
(3 -1.74918e-06 0)
(3 -1.35778e-08 0)
(3 -9.19091e-11 0)
(3 -4.89724e-13 0)
(2.48885 1.00087 0)
(2.73153 1.07666 0)
(3.03412 0.682859 0)
(3.20806 0.631616 0)
(3.10696 0.118045 0)
(3.0172 -0.0642069 0)
(2.93526 -0.232008 0)
(2.80052 -0.444592 0)
(2.73763 -0.535333 0)
(2.62674 -0.686937 0)
(2.53844 -0.790636 0)
(2.53591 -0.787932 0)
(2.60029 -0.6912 0)
(2.77256 -0.432216 0)
(2.97701 -0.051763 0)
(2.99944 -0.00154145 0)
(2.99999 -1.64213e-05 0)
(3 -1.29775e-07 0)
(3 -8.76638e-10 0)
(3 -4.61222e-12 0)
(2.71496 0.90077 0)
(2.81147 0.929128 0)
(3.04649 0.833654 0)
(3.10238 1.01302 0)
(3.13552 0.478654 0)
(3.10703 0.214456 0)
(3.00498 -0.112621 0)
(2.9121 -0.316337 0)
(2.82262 -0.479583 0)
(2.71197 -0.626483 0)
(2.60935 -0.731449 0)
(2.56061 -0.779948 0)
(2.57702 -0.771995 0)
(2.7214 -0.552681 0)
(2.91675 -0.181442 0)
(2.99625 -0.00915841 0)
(2.99995 -0.000127267 0)
(3 -1.02974e-06 0)
(3 -6.89814e-09 0)
(3 -3.53495e-11 0)
(2.80114 0.846554 0)
(2.9296 0.837543 0)
(3.09886 0.898446 0)
(3.10443 1.02746 0)
(3.08809 0.75302 0)
(3.07831 0.51267 0)
(3.06521 0.220791 0)
(2.99995 -0.0453486 0)
(2.91898 -0.301112 0)
(2.82055 -0.485773 0)
(2.70294 -0.637895 0)
(2.60889 -0.751028 0)
(2.59139 -0.775137 0)
(2.64488 -0.686911 0)
(2.8518 -0.327185 0)
(2.98543 -0.0374865 0)
(2.99973 -0.000747568 0)
(3 -6.53185e-06 0)
(3 -4.414e-08 0)
(3 -2.25489e-10 0)
(2.8462 0.818749 0)
(2.96462 0.756913 0)
(3.1396 0.880503 0)
(3.19076 0.995996 0)
(3.16582 0.737588 0)
(3.11716 0.504311 0)
(3.08181 0.381848 0)
(3.01457 0.0735371 0)
(2.96955 -0.0955557 0)
(2.89836 -0.29073 0)
(2.79115 -0.501692 0)
(2.67131 -0.688588 0)
(2.61925 -0.763286 0)
(2.64669 -0.730303 0)
(2.7707 -0.49867 0)
(2.95649 -0.105594 0)
(2.9987 -0.00358654 0)
(2.99999 -3.58237e-05 0)
(3 -2.47072e-07 0)
(3 -1.27662e-09 0)
(2.84741 0.796377 0)
(2.9174 0.745805 0)
(3.12632 0.885472 0)
(3.2326 1.05517 0)
(3.25388 0.697727 0)
(3.18067 0.497498 0)
(3.1317 0.345073 0)
(3.04001 0.0619031 0)
(3.01083 -0.0702307 0)
(2.93485 -0.2608 0)
(2.85231 -0.405325 0)
(2.73871 -0.598533 0)
(2.65544 -0.733404 0)
(2.66113 -0.720964 0)
(2.74024 -0.595247 0)
(2.9168 -0.208194 0)
(2.99519 -0.0130412 0)
(2.99994 -0.000166617 0)
(3 -1.21122e-06 0)