/*--------------------------------*- C++ -*----------------------------------*\
  =========                 |
  \\      /  F ield         | OpenFOAM: The Open Source CFD Toolbox
   \\    /   O peration     | Website:  https://openfoam.org
    \\  /    A nd           | Version:  7
     \\/     M anipulation  |
\*---------------------------------------------------------------------------*/
FoamFile
{
    version     2.0;
    format      ascii;
    class       volScalarField;
    location    "10";
    object      T;
}
// * * * * * * * * * * * * * * * * * * * * * * * * * * * * * * * * * * * * * //

dimensions      [0 0 0 1 0 0 0];

internalField   nonuniform List<scalar> 
14400
(
0.895647
0.905243
0.915612
0.92569
0.935584
0.945
0.954389
0.96326
0.972302
0.980615
0.989285
0.99677
1.00475
1.01096
1.01764
1.02218
1.02599
1.02897
1.02892
1.02795
1.02434
1.01992
1.01825
1.01882
1.02055
1.02199
1.02269
1.02204
1.02136
1.02119
1.02179
1.02229
1.02149
1.02026
1.02039
1.02078
1.02045
1.02003
1.01993
1.01953
0.887036
0.887525
0.888538
0.890233
0.892677
0.896073
0.90034
0.905801
0.912133
0.919856
0.928175
0.937857
0.94758
0.958267
0.968583
0.978701
0.988721
0.996368
1.00444
1.00886
1.01198
1.0165
1.02039
1.02215
1.0223
1.02171
1.02043
1.01938
1.01945
1.02043
1.02125
1.02094
1.01995
1.01917
1.01986
1.01986
1.0194
1.01925
1.0192
1.01885
0.88518
0.885133
0.885073
0.884993
0.884934
0.88489
0.88492
0.885061
0.885405
0.886144
0.887402
0.889604
0.892794
0.897973
0.904735
0.914871
0.926796
0.942189
0.958704
0.975741
0.993641
1.00502
1.01221
1.01373
1.01533
1.01497
1.01375
1.01462
1.01699
1.01836
1.01803
1.01681
1.01627
1.01707
1.01759
1.01718
1.01685
1.01713
1.01707
1.01684
0.883343
0.883261
0.883172
0.883073
0.882953
0.882845
0.882737
0.88263
0.882529
0.882418
0.882338
0.882252
0.882152
0.882209
0.882526
0.883538
0.885648
0.890388
0.897973
0.911594
0.929913
0.950886
0.973445
0.98644
0.998505
1.00129
1.00575
1.01073
1.01551
1.01538
1.01394
1.01163
1.01277
1.01477
1.01437
1.01338
1.01353
1.01415
1.01409
1.01405
0.882308
0.882248
0.882181
0.882103
0.882015
0.88192
0.881806
0.881675
0.881533
0.881386
0.88124
0.881095
0.880948
0.880832
0.880701
0.88067
0.880714
0.880948
0.881544
0.883244
0.886784
0.895768
0.910422
0.934066
0.959346
0.980087
0.998561
1.00472
1.00997
1.00963
1.00675
1.00794
1.01067
1.01219
1.01135
1.01037
1.01104
1.0116
1.01134
1.01144
0.88173
0.881706
0.881679
0.881651
0.881622
0.881588
0.881545
0.881496
0.881438
0.881382
0.881308
0.881228
0.88117
0.881106
0.881039
0.881027
0.88111
0.881311
0.881636
0.881824
0.882073
0.882636
0.884165
0.889431
0.900239
0.9224
0.949048
0.971279
0.989909
0.995535
1.00071
1.00904
1.01134
1.0104
1.00827
1.00885
1.01018
1.01005
1.00967
1.00993
0.881532
0.881566
0.881606
0.881648
0.881681
0.881711
0.881753
0.881781
0.881809
0.881847
0.881864
0.88188
0.881949
0.881995
0.882002
0.882056
0.882154
0.882194
0.882208
0.8823
0.882374
0.882425
0.882466
0.882681
0.883489
0.886695
0.895142
0.915503
0.942685
0.972358
0.995629
1.00626
1.00898
1.00619
1.00668
1.00927
1.00997
1.00918
1.00877
1.00941
0.882118
0.882176
0.882249
0.88233
0.882399
0.882479
0.882562
0.88259
0.882627
0.882636
0.882628
0.882647
0.88271
0.882717
0.882714
0.882673
0.882603
0.8825
0.882236
0.882099
0.882044
0.881755
0.88141
0.881354
0.881394
0.881471
0.881951
0.884588
0.893332
0.915196
0.946669
0.975998
0.994112
1.00087
1.00718
1.01088
1.00998
1.0079
1.00857
1.00964
0.882567
0.882624
0.882689
0.882761
0.882844
0.882938
0.88301
0.883027
0.883028
0.88303
0.883027
0.883026
0.883028
0.883018
0.882961
0.88281
0.882594
0.882277
0.881871
0.881503
0.881076
0.880546
0.880244
0.880213
0.880222
0.880373
0.880794
0.881388
0.88216
0.884911
0.895553
0.919967
0.953847
0.988963
1.00442
1.0099
1.00607
1.00703
1.0098
1.00988
0.88217
0.88218
0.88218
0.88218
0.882195
0.882256
0.88232
0.882294
0.882267
0.882276
0.882308
0.882316
0.882315
0.882279
0.882164
0.881953
0.881724
0.881315
0.880736
0.88028
0.879959
0.879759
0.879645
0.879661
0.879742
0.880012
0.880739
0.881593
0.882287
0.882261
0.882756
0.885841
0.90026
0.930812
0.964102
0.992396
0.998471
1.00834
1.01085
1.0096
0.879397
0.879391
0.879304
0.879169
0.879139
0.879132
0.879149
0.879198
0.879249
0.879329
0.879477
0.879652
0.879809
0.880009
0.880129
0.880176
0.880174
0.879899
0.879346
0.879251
0.879277
0.879426
0.879789
0.880225
0.880398
0.880579
0.881025
0.881603
0.881992
0.882082
0.881885
0.881389
0.882195
0.888037
0.909467
0.945758
0.982849
1.00584
1.00892
1.00721
0.87608
0.87607
0.876066
0.876041
0.876016
0.876007
0.876027
0.87611
0.87627
0.87649
0.876728
0.877013
0.877341
0.877761
0.878402
0.879017
0.87911
0.878956
0.878746
0.878831
0.879512
0.880915
0.881785
0.881887
0.881747
0.881322
0.880887
0.880662
0.880709
0.880776
0.880505
0.879917
0.879641
0.880035
0.883052
0.895383
0.928943
0.967959
0.990277
1.00308
0.878471
0.878536
0.878706
0.878752
0.878738
0.878609
0.878414
0.878433
0.878744
0.878846
0.878674
0.878641
0.878631
0.878711
0.878852
0.879022
0.879247
0.879548
0.880108
0.881105
0.882465
0.883413
0.883405
0.882968
0.882215
0.881433
0.880228
0.878824
0.878598
0.878663
0.878799
0.878896
0.878781
0.878861
0.879537
0.881207
0.888584
0.910254
0.950156
0.995384
0.891556
0.891653
0.891835
0.891854
0.891826
0.891526
0.891064
0.890658
0.889933
0.889445
0.888551
0.886854
0.885381
0.88439
0.883571
0.88307
0.882805
0.882793
0.883145
0.883618
0.883934
0.883649
0.882666
0.881411
0.880021
0.879618
0.879103
0.87807
0.87785
0.877962
0.878331
0.878616
0.879042
0.879867
0.880952
0.880784
0.880519
0.882804
0.896289
0.952085
0.904107
0.904826
0.905042
0.904902
0.904109
0.903454
0.903229
0.902911
0.902367
0.901687
0.900738
0.899516
0.898217
0.896154
0.894901
0.895101
0.894962
0.893659
0.892361
0.890971
0.888957
0.886836
0.884851
0.883258
0.883023
0.883442
0.883481
0.88252
0.881464
0.881291
0.88149
0.881966
0.882421
0.882405
0.882021
0.880989
0.879297
0.878632
0.879722
0.905076
0.936478
0.936057
0.935572
0.935036
0.934428
0.9337
0.932898
0.932161
0.931369
0.9298
0.929148
0.928691
0.927664
0.926355
0.92487
0.924648
0.924734
0.923499
0.921116
0.918565
0.915831
0.913479
0.910273
0.906247
0.905062
0.904318
0.902694
0.900189
0.896967
0.894282
0.89184
0.888989
0.886462
0.883957
0.881131
0.87953
0.878576
0.878636
0.879195
0.883925
0.98059
0.980127
0.979512
0.978398
0.97773
0.977181
0.976412
0.975419
0.974251
0.973056
0.971805
0.970416
0.968805
0.96691
0.964749
0.962505
0.959844
0.956822
0.953875
0.95006
0.945933
0.943847
0.941836
0.938193
0.934927
0.930769
0.92461
0.919616
0.915564
0.910902
0.905927
0.900877
0.895876
0.891818
0.8884
0.885531
0.884387
0.884199
0.884395
0.884551
1.03098
1.03036
1.02967
1.02856
1.02752
1.02675
1.02583
1.02456
1.02305
1.02168
1.02017
1.01832
1.01635
1.01431
1.01191
1.00925
1.00659
1.00359
1.00032
0.996771
0.99286
0.988664
0.984229
0.979127
0.973905
0.969675
0.964826
0.958255
0.952052
0.946334
0.940557
0.934301
0.927678
0.921627
0.915716
0.909507
0.902927
0.897309
0.891431
0.884858
1.08294
1.08238
1.08175
1.08066
1.07971
1.07893
1.07799
1.07671
1.07525
1.0739
1.07236
1.07046
1.06843
1.06623
1.06374
1.06097
1.05783
1.05438
1.05063
1.04682
1.04267
1.03833
1.03344
1.02782
1.02194
1.01487
1.00802
1.0018
0.994353
0.985822
0.977904
0.969555
0.960955
0.951433
0.942568
0.93301
0.923674
0.914095
0.905615
0.895406
1.11988
1.11968
1.11941
1.11905
1.11868
1.11829
1.11784
1.11729
1.11659
1.11588
1.11511
1.11402
1.11274
1.11148
1.11
1.10828
1.10604
1.10332
1.10041
1.0972
1.09371
1.08953
1.08484
1.07946
1.0731
1.06647
1.05909
1.05169
1.04341
1.03387
1.02371
1.01364
1.00338
0.992719
0.981998
0.971014
0.960817
0.949724
0.940757
0.925563
1.12734
1.12719
1.1271
1.127
1.12689
1.12679
1.12667
1.12654
1.12653
1.12652
1.12643
1.12631
1.12623
1.12606
1.12589
1.12587
1.12573
1.12517
1.12493
1.12455
1.12355
1.12209
1.12012
1.11787
1.1149
1.11079
1.10583
1.10038
1.09385
1.0857
1.07593
1.06502
1.05269
1.04016
1.02693
1.01363
0.999788
0.98607
0.973524
0.953418
1.12098
1.12112
1.12125
1.12125
1.12124
1.12145
1.12158
1.12155
1.12179
1.12213
1.12209
1.1222
1.12254
1.12267
1.1228
1.12302
1.12331
1.1237
1.12409
1.1241
1.12405
1.12373
1.12359
1.12363
1.12381
1.12371
1.12291
1.12149
1.11999
1.11783
1.11437
1.10906
1.10146
1.09132
1.079
1.06469
1.04894
1.03207
1.01661
0.993191
1.08034
1.08079
1.08125
1.08208
1.08297
1.08355
1.08417
1.0851
1.08638
1.08753
1.08869
1.0901
1.09155
1.09302
1.09474
1.09642
1.09821
1.1003
1.1024
1.10451
1.1065
1.10848
1.11028
1.1122
1.11438
1.11623
1.11802
1.11903
1.11905
1.11895
1.11891
1.11875
1.118
1.11615
1.11287
1.10695
1.0975
1.08386
1.06831
1.04029
1.02051
1.02087
1.02121
1.02166
1.02228
1.02289
1.0236
1.02439
1.02521
1.02619
1.02734
1.02858
1.02998
1.03158
1.03342
1.03545
1.03772
1.04029
1.04319
1.0464
1.05008
1.05419
1.05878
1.06389
1.06919
1.07498
1.08067
1.08663
1.09304
1.09865
1.10338
1.10764
1.11083
1.11336
1.11327
1.11302
1.11216
1.10973
1.10518
1.08808
1.00111
1.00115
1.0012
1.00125
1.0013
1.00136
1.00144
1.00153
1.00163
1.00174
1.00188
1.00205
1.00224
1.00248
1.00276
1.00311
1.00352
1.00403
1.00466
1.00545
1.00643
1.00771
1.00932
1.01139
1.01398
1.01724
1.02141
1.02652
1.03294
1.04059
1.04935
1.05911
1.06933
1.07986
1.08954
1.09737
1.10286
1.10675
1.10666
1.10458
1.00002
1.00002
1.00002
1.00002
1.00002
1.00002
1.00002
1.00002
1.00003
1.00003
1.00003
1.00004
1.00004
1.00005
1.00005
1.00006
1.00007
1.00009
1.00011
1.00014
1.00017
1.00023
1.00031
1.00042
1.00058
1.00083
1.00121
1.0018
1.00272
1.00417
1.0064
1.00982
1.01492
1.02216
1.03202
1.04429
1.05789
1.07233
1.08421
1.09542
1
1
1
1
1
1
1
1
1
1
1
1
1
1
1
1
1
1
1
1
1
1
1
1
1.00001
1.00001
1.00002
1.00003
1.00005
1.00009
1.00018
1.00034
1.00067
1.00135
1.0027
1.00536
1.01013
1.01839
1.02944
1.05357
1
1
1
1
1
1
1
1
1
1
1
1
1
1
1
1
1
1
1
1
1
1
1
1
1
1
1
1
1
1
1
1
1.00001
1.00002
1.00005
1.00014
1.00038
1.00105
1.00246
1.0105
1
1
1
1
1
1
1
1
1
1
1
1
1
1
1
1
1
1
1
1
1
1
1
1
1
1
1
1
1
1
1
1
1
1
1
1
1
1.00002
1.00005
1.00058
1
1
1
1
1
1
1
1
1
1
1
1
1
1
1
1
1
1
1
1
1
1
1
1
1
1
1
1
1
1
1
1
1
1
1
1
1
1
1
1.00001
0.887727
0.886869
0.885237
0.883432
0.882382
0.881755
0.881493
0.882045
0.8825
0.882151
0.87939
0.876371
0.878551
0.891614
0.903705
0.937053
0.981268
1.03184
1.08375
1.12012
1.12753
1.12081
1.0797
1.01993
1.00107
1.00002
1
1
1
1
0.8877
0.886857
0.885236
0.8835
0.882458
0.881774
0.881455
0.881962
0.882416
0.882094
0.879387
0.876872
0.878943
0.891981
0.90378
0.93816
0.982461
1.03318
1.085
1.12051
1.12772
1.12053
1.07872
1.01918
1.001
1.00001
1
1
1
1
0.887668
0.886869
0.885278
0.883589
0.882537
0.881791
0.881416
0.881871
0.882331
0.882034
0.879426
0.877311
0.879324
0.892355
0.904344
0.93934
0.983619
1.03446
1.08622
1.12093
1.12784
1.12021
1.07768
1.01848
1.00094
1.00001
1
1
1
1
0.887632
0.886874
0.885311
0.883677
0.88261
0.88181
0.881377
0.881772
0.882243
0.881966
0.879515
0.877676
0.87967
0.892726
0.90565
0.940644
0.984911
1.03597
1.08766
1.12135
1.1279
1.11982
1.0764
1.01778
1.00088
1.00001
1
1
1
1
0.887592
0.886872
0.885355
0.883769
0.882679
0.881834
0.881334
0.881658
0.882158
0.881916
0.879678
0.878074
0.880086
0.893094
0.906922
0.941982
0.986268
1.03766
1.08915
1.12174
1.12796
1.11938
1.07511
1.01706
1.00082
1.00001
1
1
1
1
0.887541
0.886898
0.885403
0.88386
0.882744
0.881849
0.88128
0.881524
0.882085
0.881904
0.87994
0.878515
0.880569
0.893414
0.907331
0.943318
0.987674
1.03934
1.09058
1.12218
1.128
1.11889
1.07385
1.01629
1.00076
1.00001
1
1
1
1
0.88748
0.886931
0.885457
0.88395
0.882806
0.881847
0.881203
0.881367
0.882029
0.88191
0.880301
0.878922
0.881006
0.893613
0.907192
0.944684
0.989237
1.04109
1.09211
1.12271
1.128
1.11831
1.07251
1.01549
1.0007
1.00001
1
1
1
1
0.887407
0.886959
0.885516
0.884033
0.882882
0.881815
0.881085
0.881179
0.881984
0.881926
0.880648
0.879223
0.881327
0.893682
0.906687
0.94615
0.991026
1.04301
1.09379
1.12332
1.12789
1.11759
1.07104
1.01469
1.00064
1.00001
1
1
1
1
0.887341
0.886991
0.885577
0.884098
0.882979
0.88177
0.880948
0.880957
0.881935
0.881962
0.880886
0.879379
0.881522
0.893708
0.906657
0.947782
0.992959
1.04511
1.09556
1.12402
1.12781
1.11677
1.06944
1.01387
1.00058
1.00001
1
1
1
1
0.887272
0.887031
0.885645
0.884159
0.883067
0.881735
0.88082
0.88071
0.881874
0.882048
0.881036
0.879405
0.881588
0.893717
0.907578
0.94969
0.995038
1.04737
1.09739
1.12477
1.12791
1.11593
1.06771
1.01302
1.00052
1.00001
1
1
1
1
0.887207
0.88706
0.88572
0.884239
0.883103
0.881725
0.880717
0.880453
0.881779
0.882143
0.881161
0.879389
0.881528
0.893707
0.909523
0.951882
0.997303
1.0498
1.09928
1.12551
1.12786
1.11505
1.06582
1.01216
1.00047
1.00001
1
1
1
1
0.887131
0.887082
0.885801
0.884333
0.88312
0.881721
0.880608
0.88022
0.881618
0.882217
0.881302
0.879359
0.881298
0.893745
0.91191
0.95428
0.999749
1.0524
1.10126
1.12614
1.12779
1.11414
1.06378
1.01127
1.00042
1
1
1
1
1
0.887059
0.8871
0.88588
0.884427
0.883131
0.881695
0.880453
0.880022
0.881389
0.882278
0.881411
0.879099
0.881048
0.894037
0.914805
0.956771
1.00242
1.05516
1.10327
1.12658
1.12784
1.11323
1.06163
1.01038
1.00037
1
1
1
1
1
0.886995
0.887115
0.885954
0.884511
0.883141
0.881623
0.880284
0.879834
0.881107
0.882312
0.881456
0.8788
0.880868
0.894713
0.917913
0.959234
1.00539
1.05801
1.10526
1.12687
1.12798
1.11228
1.05937
1.0095
1.00032
1
1
1
1
1
0.886956
0.887129
0.886031
0.884578
0.883108
0.881526
0.880118
0.879667
0.880793
0.882262
0.881525
0.87877
0.880822
0.896143
0.920887
0.961616
1.00852
1.06099
1.10728
1.12723
1.12816
1.11122
1.05696
1.00861
1.00027
1
1
1
1
1
0.886943
0.887147
0.886111
0.884625
0.883026
0.881436
0.879976
0.879528
0.880485
0.882058
0.881664
0.878857
0.880839
0.898514
0.923776
0.964023
1.01178
1.06415
1.10934
1.12802
1.12828
1.10998
1.05437
1.00774
1.00023
1
1
1
1
1
0.887005
0.887196
0.886191
0.884642
0.882957
0.881371
0.87987
0.879412
0.880186
0.881968
0.881896
0.878755
0.880939
0.900509
0.926533
0.966556
1.01519
1.06757
1.11143
1.12873
1.12825
1.1085
1.05156
1.00689
1.0002
1
1
1
1
1
0.88715
0.887306
0.886246
0.884638
0.882905
0.881324
0.879806
0.879326
0.879861
0.881888
0.882264
0.878677
0.881034
0.901149
0.929031
0.969247
1.01883
1.0712
1.11347
1.12907
1.12824
1.1068
1.04861
1.00608
1.00016
1
1
1
1
1
0.887296
0.887406
0.886273
0.884592
0.882852
0.881296
0.879784
0.879285
0.879578
0.881684
0.882702
0.879257
0.88107
0.900806
0.93141
0.972378
1.02276
1.07491
1.11548
1.12926
1.12797
1.1049
1.04561
1.00532
1.00014
1
1
1
1
1
0.887465
0.887484
0.886307
0.884551
0.882786
0.881297
0.879796
0.87929
0.879444
0.881289
0.882981
0.880929
0.881676
0.900036
0.934001
0.976125
1.02699
1.07877
1.11752
1.12949
1.12721
1.10277
1.04255
1.00459
1.00011
1
1
1
1
1
0.88773
0.887567
0.886329
0.884476
0.88273
0.881389
0.880008
0.879436
0.879464
0.880834
0.883039
0.88218
0.882859
0.900976
0.937218
0.980363
1.03151
1.08285
1.11959
1.12982
1.1264
1.10036
1.03935
1.00391
1.00009
1
1
1
1
1
0.888047
0.887726
0.886293
0.884367
0.882692
0.881493
0.880437
0.879695
0.879647
0.880321
0.883027
0.883311
0.883865
0.904505
0.941212
0.984951
1.03626
1.08715
1.12166
1.12995
1.12564
1.0976
1.03601
1.00327
1.00007
1
1
1
1
1
0.888398
0.887961
0.886279
0.884225
0.882648
0.881527
0.880922
0.880057
0.879788
0.879811
0.88288
0.884253
0.884942
0.908876
0.945186
0.989829
1.04139
1.09163
1.12366
1.12992
1.12501
1.0944
1.03257
1.0027
1.00005
1
1
1
1
1
0.888824
0.888193
0.886263
0.884
0.882591
0.881548
0.88143
0.880533
0.879847
0.879313
0.882787
0.884833
0.886274
0.91262
0.948554
0.995286
1.04699
1.09625
1.12551
1.12995
1.12428
1.09077
1.02908
1.00218
1.00004
1
1
1
1
1
0.889332
0.888389
0.88625
0.883731
0.882519
0.881735
0.881776
0.881091
0.879818
0.878895
0.882559
0.885011
0.887384
0.915695
0.951737
1.0013
1.053
1.10094
1.12711
1.13006
1.12302
1.08678
1.02557
1.00171
1.00003
1
1
1
1
1
0.889809
0.888542
0.886179
0.883524
0.882403
0.881852
0.881962
0.881571
0.87991
0.87847
0.881792
0.884851
0.888614
0.919606
0.956072
1.00785
1.05943
1.10567
1.12845
1.12993
1.12161
1.08249
1.02208
1.00132
1.00002
1
1
1
1
1
0.890195
0.888723
0.886134
0.883317
0.882217
0.881885
0.882076
0.88183
0.880084
0.878051
0.880244
0.884574
0.89184
0.92539
0.962888
1.01494
1.06627
1.11031
1.1295
1.12979
1.12048
1.0777
1.01864
1.00099
1.00001
1
1
1
1
1
0.890561
0.888903
0.886101
0.883158
0.881964
0.881851
0.882127
0.881921
0.880084
0.877627
0.878889
0.884925
0.897633
0.931339
0.970864
1.02255
1.07346
1.11462
1.13023
1.12974
1.11932
1.07208
1.01536
1.00072
1.00001
1
1
1
1
1
0.890905
0.889116
0.886123
0.883089
0.881673
0.881614
0.882129
0.881926
0.87989
0.877203
0.878267
0.886393
0.902225
0.936016
0.978846
1.0306
1.08078
1.1185
1.13072
1.12962
1.11718
1.06579
1.01237
1.00051
1.00001
1
1
1
1
1
0.891116
0.88934
0.886246
0.883076
0.881443
0.88135
0.882083
0.881849
0.879588
0.876697
0.878072
0.889076
0.906297
0.940121
0.987084
1.03926
1.08833
1.12184
1.13111
1.12918
1.11334
1.05928
1.00974
1.00035
1
1
1
1
1
1
0.891191
0.889428
0.88633
0.883178
0.881348
0.880981
0.881911
0.881677
0.879372
0.876246
0.878033
0.892064
0.911288
0.945867
0.996188
1.04883
1.09589
1.1247
1.13152
1.12815
1.10917
1.0527
1.00742
1.00023
1
1
1
1
1
1
0.891183
0.889441
0.886456
0.883419
0.881345
0.880556
0.881547
0.881522
0.879449
0.876115
0.878491
0.89634
0.917043
0.955308
1.00641
1.05912
1.10334
1.12714
1.13176
1.12762
1.10477
1.04572
1.00542
1.00015
1
1
1
1
1
1
0.890583
0.889435
0.886653
0.883685
0.881357
0.880361
0.880946
0.881403
0.879971
0.876609
0.879751
0.900551
0.922848
0.966346
1.01747
1.07002
1.1106
1.12905
1.13191
1.12824
1.09967
1.03818
1.00376
1.00009
1
1
1
1
1
1
0.88999
0.889053
0.88683
0.883932
0.881528
0.880333
0.880366
0.881207
0.880457
0.877781
0.880971
0.903543
0.93034
0.978142
1.02963
1.08132
1.11713
1.13038
1.13211
1.12849
1.09299
1.03047
1.00246
1.00005
1
1
1
1
1
1
0.88905
0.88883
0.886982
0.884176
0.882001
0.880496
0.879976
0.880257
0.88103
0.87967
0.882404
0.907264
0.941844
0.991048
1.04308
1.09236
1.12268
1.13116
1.13221
1.1253
1.08394
1.02328
1.00153
1.00003
1
1
1
1
1
1
0.888642
0.888471
0.886766
0.884283
0.882589
0.88132
0.879909
0.878565
0.881396
0.882464
0.885549
0.9131
0.955022
1.00487
1.05749
1.10293
1.1271
1.13147
1.13214
1.11885
1.07374
1.01704
1.0009
1.00001
1
1
1
1
1
1
0.888597
0.88808
0.886348
0.884054
0.883009
0.88239
0.879918
0.877483
0.879654
0.884826
0.890928
0.923043
0.96936
1.02047
1.07276
1.11258
1.13022
1.13155
1.13083
1.11375
1.06385
1.01183
1.0005
1.00001
1
1
1
1
1
1
0.889227
0.887887
0.885533
0.883856
0.883488
0.883049
0.880722
0.876909
0.878188
0.886162
0.898658
0.937726
0.985742
1.03869
1.08808
1.12047
1.13211
1.1315
1.12904
1.10884
1.05291
1.00759
1.00025
1
1
1
1
1
1
1
0.890167
0.888043
0.884647
0.883071
0.88363
0.883307
0.881303
0.87633
0.877637
0.889024
0.910021
0.954301
1.00459
1.05865
1.10239
1.12616
1.13293
1.13166
1.12786
1.10232
1.04036
1.00435
1.00011
1
1
1
1
1
1
1
0.890728
0.888339
0.884453
0.882278
0.883016
0.883338
0.88159
0.875971
0.87786
0.896269
0.925494
0.972415
1.02678
1.07908
1.1148
1.1296
1.13336
1.13177
1.12611
1.08989
1.0282
1.00224
1.00005
1
1
1
1
1
1
1
1
1
1
1
1
1
1
1
1
1
1
1
1.00015
1.00622
1.05098
1.10846
1.12642
1.13486
1.13603
1.13431
1.1327
1.13231
1.13268
1.13377
1.1347
1.13475
1.13436
1.13354
1.13153
1.11262
1
1
1
1
1
1
1
1
1
1
1
1
1.00019
1.00707
1.05325
1.11002
1.12678
1.13482
1.13596
1.13435
1.13274
1.13232
1.13265
1.13377
1.1347
1.13473
1.13433
1.13344
1.12808
1.08404
1
1
1
1
1
1
1
1
1
1
1
1
1.00023
1.00791
1.05561
1.1117
1.12701
1.13474
1.13586
1.13436
1.13277
1.13233
1.13264
1.13377
1.1347
1.13471
1.1343
1.13311
1.12183
1.05364
1
1
1
1
1
1
1
1
1
1
1
1
1.00027
1.00889
1.05888
1.11274
1.12698
1.13466
1.13577
1.13435
1.13277
1.13232
1.13262
1.13376
1.13469
1.13471
1.13425
1.13233
1.11289
1.02306
1
1
1
1
1
1
1
1
1
1
1
1
1.00033
1.01012
1.06212
1.11383
1.12703
1.13453
1.13568
1.13431
1.13277
1.13232
1.13261
1.13374
1.13468
1.1347
1.13413
1.13067
1.10142
0.993578
1
1
1
1
1
1
1
1
1
1
1
1
1.00041
1.0115
1.06511
1.11535
1.12736
1.13436
1.13554
1.13425
1.13276
1.13236
1.13263
1.13375
1.13466
1.13467
1.1339
1.1279
1.08758
0.964497
1
1
1
1
1
1
1
1
1
1
1
1.00001
1.0005
1.01304
1.06868
1.11723
1.12798
1.13436
1.13532
1.13417
1.13275
1.13242
1.13266
1.13375
1.13464
1.13464
1.13345
1.12331
1.07143
0.938026
1
1
1
1
1
1
1
1
1
1
1
1.00001
1.00062
1.01488
1.07237
1.11939
1.12842
1.13434
1.13502
1.13408
1.13276
1.13246
1.13271
1.13375
1.13463
1.1346
1.13258
1.11673
1.0544
0.910848
1
1
1
1
1
1
1
1
1
1
1
1.00001
1.00078
1.01698
1.07622
1.12146
1.12848
1.13415
1.13481
1.134
1.1328
1.13248
1.13275
1.13374
1.13463
1.13451
1.13088
1.10741
1.03493
0.888378
1
1
1
1
1
1
1
1
1
1
1
1.00001
1.00099
1.01945
1.08001
1.12311
1.12846
1.13381
1.13466
1.13392
1.13284
1.13248
1.13279
1.13375
1.13464
1.13425
1.12797
1.09538
1.01543
0.866918
1
1
1
1
1
1
1
1
1
1
1
1.00002
1.00125
1.02221
1.08377
1.12444
1.12837
1.13341
1.13446
1.13388
1.13286
1.13246
1.13287
1.13376
1.13464
1.13365
1.1231
1.08051
0.995654
0.848448
1
1
1
1
1
1
1
1
1
1
1
1.00002
1.00161
1.02545
1.08784
1.12601
1.12816
1.13298
1.13438
1.13388
1.13287
1.13242
1.13291
1.13376
1.13461
1.13246
1.11599
1.06292
0.974631
0.833978
1
1
1
1
1
1
1
1
1
1
1
1.00003
1.00207
1.02907
1.09161
1.12701
1.12791
1.13282
1.13438
1.13389
1.1329
1.13239
1.13294
1.13373
1.1345
1.13013
1.10572
1.04305
0.95657
0.826265
1
1
1
1
1
1
1
1
1
1
1
1.00005
1.00267
1.03315
1.09568
1.1276
1.12794
1.13271
1.13435
1.13396
1.13297
1.13239
1.13298
1.13363
1.13419
1.12621
1.09262
1.02178
0.938397
0.816208
1
1
1
1
1
1
1
1
1
1
1
1.00007
1.00345
1.03763
1.09953
1.1287
1.12834
1.13251
1.13438
1.13409
1.13309
1.13241
1.13301
1.13353
1.13327
1.1198
1.07613
0.999568
0.921859
0.816004
1
1
1
1
1
1
1
1
1
1
1
1.0001
1.00445
1.04257
1.10321
1.12996
1.12891
1.13232
1.13456
1.13427
1.13328
1.13244
1.13297
1.13344
1.13126
1.11059
1.05746
0.976965
0.907405
0.818538
1
1
1
1
1
1
1
1
1
1
1
1.00015
1.00579
1.04795
1.10681
1.13049
1.12929
1.13217
1.13472
1.13451
1.13351
1.13248
1.13286
1.13319
1.12757
1.09779
1.03616
0.954938
0.896444
0.827158
1
1
1
1
1
1
1
1
1
1
1
1.00022
1.00745
1.05378
1.10999
1.13096
1.12945
1.13196
1.13475
1.13465
1.13375
1.13254
1.1328
1.13233
1.12132
1.08193
1.01457
0.933681
0.885761
0.835672
1
1
1
1
1
1
1
1
1
1
1
1.00032
1.00968
1.06002
1.11323
1.13151
1.12947
1.13171
1.13471
1.13474
1.13398
1.1326
1.13268
1.13043
1.11201
1.06277
0.991866
0.91361
0.877498
0.844389
1
1
1
1
1
1
1
1
1
1
1.00001
1.00048
1.01239
1.06654
1.11617
1.13214
1.12939
1.13134
1.13457
1.1348
1.13418
1.13262
1.13237
1.12656
1.09882
1.04174
0.970528
0.895806
0.873746
0.857229
1
1
1
1
1
1
1
1
1
1
1.00001
1.00073
1.01588
1.07326
1.11872
1.13299
1.12943
1.13104
1.13438
1.13485
1.1344
1.13268
1.13152
1.12023
1.08243
1.01866
0.948941
0.880625
0.868953
0.872132
1
1
1
1
1
1
1
1
1
1
1.00002
1.00109
1.02006
1.07999
1.12184
1.13322
1.12966
1.13102
1.13437
1.13492
1.13458
1.13263
1.12951
1.11009
1.06231
0.995499
0.931128
0.871135
0.863274
0.883929
1
1
1
1
1
1
1
1
1
1
1.00003
1.00165
1.02524
1.08689
1.12395
1.13312
1.12992
1.13112
1.13441
1.13507
1.13485
1.13233
1.12545
1.09653
1.04065
0.972026
0.912909
0.863653
0.863392
0.889822
1
1
1
1
1
1
1
1
1
1
1.00005
1.00248
1.0312
1.09294
1.12536
1.1334
1.13034
1.13118
1.13438
1.13529
1.13502
1.13136
1.11841
1.07884
1.01704
0.949982
0.899587
0.863759
0.864437
0.894638
1
1
1
1
1
1
1
1
1
1
1.00008
1.00367
1.03812
1.09928
1.12734
1.13408
1.13093
1.13111
1.13416
1.13531
1.13488
1.12892
1.10763
1.05823
0.993282
0.928797
0.889324
0.864782
0.867159
0.894626
1
1
1
1
1
1
1
1
1
1
1.00014
1.0055
1.04607
1.10509
1.12836
1.13453
1.13114
1.13098
1.1337
1.13517
1.13426
1.12404
1.09255
1.0358
0.971016
0.910585
0.881193
0.866048
0.871734
0.894663
1
1
1
1
1
1
1
1
1
1
1.00025
1.00795
1.05465
1.11034
1.12928
1.1348
1.13134
1.13076
1.133
1.13468
1.13249
1.1158
1.07419
1.01145
0.948547
0.894232
0.876745
0.868637
0.877663
0.894845
1
1
1
1
1
1
1
1
1
1.00001
1.00046
1.01163
1.06393
1.11526
1.13019
1.13522
1.13181
1.13065
1.13226
1.1339
1.12874
1.10293
1.052
0.988657
0.930661
0.880933
0.872842
0.872103
0.883583
0.895876
1
1
1
1
1
1
1
1
1
1.00001
1.0008
1.01629
1.07313
1.11911
1.13072
1.13554
1.13242
1.1307
1.13152
1.1328
1.1218
1.08638
1.0289
0.96481
0.913245
0.872646
0.868529
0.876222
0.888337
0.897125
1
1
1
1
1
1
1
1
1
1.00002
1.00141
1.0226
1.08272
1.12256
1.13116
1.13557
1.13305
1.13102
1.13122
1.1303
1.11089
1.06496
1.00402
0.944131
0.901244
0.868108
0.864594
0.879141
0.891012
0.89905
1
1
1
1
1
1
1
1
1
1.00005
1.00247
1.03043
1.09141
1.12515
1.13119
1.13542
1.13338
1.13129
1.1308
1.12499
1.09518
1.04267
0.981346
0.924473
0.890754
0.867169
0.865027
0.880454
0.89244
0.899636
1
1
1
1
1
1
1
1
1
1.0001
1.00411
1.03965
1.1005
1.1273
1.13102
1.13501
1.13339
1.13126
1.1294
1.1159
1.07623
1.01801
0.958015
0.907814
0.883644
0.867899
0.866671
0.881773
0.892202
0.899
1
1
1
1
1
1
1
1
1
1.00021
1.00694
1.05076
1.10794
1.12936
1.13077
1.13436
1.1332
1.13092
1.12569
1.10167
1.05278
0.99413
0.939753
0.894038
0.880007
0.87133
0.869559
0.882884
0.891332
0.897039
1
1
1
1
1
1
1
1
1.00001
1.00044
1.01097
1.06201
1.11455
1.13161
1.13088
1.13372
1.13302
1.12971
1.11767
1.08305
1.02985
0.971787
0.921066
0.881498
0.876214
0.87577
0.873882
0.884694
0.890988
0.893551
1
1
1
1
1
1
1
1
1.00001
1.00088
1.01699
1.07476
1.12019
1.13216
1.13108
1.13361
1.1327
1.12658
1.10537
1.06114
1.00402
0.949094
0.907915
0.876131
0.872777
0.878177
0.879844
0.886235
0.890512
0.890602
1
1
1
1
1
1
1
1
1.00003
1.00178
1.02546
1.08589
1.12397
1.13238
1.13119
1.13352
1.13175
1.12032
1.08802
1.03557
0.979957
0.930187
0.898267
0.873848
0.871367
0.878837
0.883917
0.887596
0.889668
0.888843
1
1
1
1
1
1
1
1
1.00008
1.0034
1.03538
1.09706
1.12746
1.13276
1.13133
1.13318
1.12915
1.10951
1.06611
1.01184
0.958885
0.912771
0.888853
0.873908
0.871975
0.879718
0.8851
0.887921
0.889185
0.8884
1
1
1
1
1
1
1
1
1.00019
1.00625
1.04849
1.10719
1.12923
1.13307
1.13132
1.13229
1.12341
1.0938
1.04384
0.987281
0.936564
0.898618
0.885625
0.876106
0.873662
0.880021
0.884796
0.887209
0.888907
0.888883
1
1
1
1
1
1
1
1.00001
1.00046
1.01123
1.06257
1.11391
1.13078
1.13349
1.13141
1.12965
1.11329
1.07422
1.01911
0.963551
0.920984
0.887386
0.881942
0.881082
0.877127
0.88055
0.88387
0.885956
0.888614
0.890112
1
1
1
1
1
1
1
1.00002
1.00105
1.01848
1.07565
1.12087
1.13188
1.13351
1.1311
1.1241
1.09816
1.05119
0.993533
0.943743
0.907437
0.88015
0.877462
0.881139
0.881686
0.881618
0.882113
0.884944
0.888695
0.89085
1.13252
1.13288
1.13357
1.13437
1.13476
1.1347
1.1338
1.13272
1.1323
1.13261
1.13425
1.13607
1.13486
1.12616
1.10739
1.04821
1.00552
1.00013
1
1
1
1
1
1
1
1
1
1
1
1
1.13252
1.13286
1.13355
1.13435
1.13476
1.13472
1.13388
1.13279
1.13231
1.13243
1.13409
1.13608
1.13492
1.12613
1.10661
1.04659
1.00526
1.00013
1
1
1
1
1
1
1
1
1
1
1
1
1.13252
1.13286
1.13357
1.13436
1.13476
1.13473
1.13397
1.13284
1.1323
1.13227
1.13393
1.13608
1.13495
1.12587
1.10518
1.04493
1.00483
1.00011
1
1
1
1
1
1
1
1
1
1
1
1
1.13251
1.13282
1.13357
1.13436
1.13477
1.13473
1.13408
1.13292
1.13226
1.13211
1.13373
1.13603
1.13496
1.12561
1.10395
1.04319
1.00439
1.00009
1
1
1
1
1
1
1
1
1
1
1
1
1.13252
1.13277
1.13351
1.13435
1.13478
1.13474
1.13417
1.13303
1.13221
1.13199
1.13349
1.13595
1.13489
1.12518
1.10266
1.04119
1.00397
1.00008
1
1
1
1
1
1
1
1
1
1
1
1
1.13254
1.13275
1.13344
1.13435
1.13479
1.13476
1.13427
1.13317
1.1322
1.13191
1.13319
1.13568
1.13446
1.12449
1.1011
1.03914
1.00358
1.00007
1
1
1
1
1
1
1
1
1
1
1
1
1.13256
1.13275
1.1334
1.13432
1.13479
1.13478
1.13438
1.13332
1.13223
1.13187
1.13286
1.13518
1.134
1.12368
1.09925
1.03706
1.0032
1.00006
1
1
1
1
1
1
1
1
1
1
1
1
1.13258
1.13277
1.1334
1.13424
1.13479
1.13481
1.13448
1.13349
1.13227
1.13178
1.13255
1.1349
1.13388
1.12308
1.09722
1.03489
1.00283
1.00005
1
1
1
1
1
1
1
1
1
1
1
1
1.13261
1.1328
1.1334
1.13418
1.13477
1.13484
1.13457
1.13369
1.13234
1.13164
1.13231
1.13482
1.13396
1.1229
1.09518
1.03264
1.00247
1.00004
1
1
1
1
1
1
1
1
1
1
1
1
1.13265
1.13283
1.13338
1.1341
1.13472
1.13486
1.13465
1.13393
1.13247
1.13159
1.13217
1.13482
1.13394
1.12311
1.0932
1.03027
1.00212
1.00004
1
1
1
1
1
1
1
1
1
1
1
1
1.13272
1.13287
1.13337
1.13398
1.13462
1.13488
1.13473
1.13419
1.13265
1.1316
1.1321
1.13475
1.13381
1.12323
1.09105
1.02776
1.0018
1.00003
1
1
1
1
1
1
1
1
1
1
1
1
1.13279
1.13295
1.13339
1.13386
1.13447
1.13488
1.13478
1.13445
1.13287
1.13168
1.13207
1.13453
1.13357
1.1228
1.08845
1.02519
1.00151
1.00002
1
1
1
1
1
1
1
1
1
1
1
1
1.13289
1.13304
1.13341
1.13376
1.13429
1.13483
1.13482
1.13471
1.13315
1.13187
1.13204
1.13437
1.13336
1.12152
1.08517
1.02258
1.00124
1.00002
1
1
1
1
1
1
1
1
1
1
1
1
1.13301
1.13314
1.13345
1.13367
1.13408
1.13474
1.13486
1.13492
1.13343
1.13196
1.13202
1.13429
1.13319
1.11984
1.08137
1.02004
1.00101
1.00001
1
1
1
1
1
1
1
1
1
1
1
1
1.13316
1.13327
1.13348
1.13358
1.13386
1.13462
1.13489
1.13506
1.13368
1.13195
1.13202
1.13428
1.13306
1.11835
1.0774
1.01756
1.00081
1.00001
1
1
1
1
1
1
1
1
1
1
1
1
1.13335
1.1334
1.13351
1.1335
1.13365
1.13445
1.1349
1.13516
1.1339
1.13193
1.13198
1.1343
1.133
1.11705
1.07323
1.01518
1.00063
1.00001
1
1
1
1
1
1
1
1
1
1
1
1
1.13358
1.13356
1.13354
1.13342
1.13346
1.13428
1.1349
1.1352
1.1341
1.13193
1.13179
1.1343
1.13297
1.1162
1.06872
1.01286
1.00048
1.00001
1
1
1
1
1
1
1
1
1
1
1
1
1.13383
1.13373
1.13357
1.13334
1.13332
1.1341
1.13484
1.13521
1.13426
1.13185
1.1312
1.13389
1.13285
1.11563
1.06377
1.01069
1.00036
1
1
1
1
1
1
1
1
1
1
1
1
1
1.13411
1.13389
1.13362
1.13331
1.1332
1.13389
1.13475
1.13513
1.13432
1.13172
1.13058
1.13288
1.13237
1.11363
1.05855
1.00872
1.00026
1
1
1
1
1
1
1
1
1
1
1
1
1
1.13437
1.13402
1.13367
1.13331
1.13303
1.13368
1.13464
1.13501
1.13433
1.13173
1.13024
1.13202
1.13155
1.10987
1.05311
1.00694
1.00019
1
1
1
1
1
1
1
1
1
1
1
1
1
1.13461
1.13413
1.13365
1.13315
1.13288
1.13347
1.13452
1.1349
1.13437
1.13196
1.13013
1.13141
1.1307
1.10649
1.04756
1.00538
1.00013
1
1
1
1
1
1
1
1
1
1
1
1
1
1.13477
1.13427
1.13364
1.13305
1.1328
1.1333
1.13442
1.13482
1.13441
1.13224
1.1301
1.13103
1.13023
1.10312
1.04176
1.00404
1.00009
1
1
1
1
1
1
1
1
1
1
1
1
1
1.13483
1.13436
1.13377
1.13306
1.13279
1.13317
1.1343
1.13476
1.13447
1.1326
1.13028
1.13081
1.1302
1.0988
1.03545
1.00289
1.00006
1
1
1
1
1
1
1
1
1
1
1
1
1
1.13483
1.13438
1.13383
1.13315
1.13285
1.13311
1.13411
1.13469
1.13455