/*--------------------------------*- C++ -*----------------------------------*\
  =========                 |
  \\      /  F ield         | OpenFOAM: The Open Source CFD Toolbox
   \\    /   O peration     | Website:  https://openfoam.org
    \\  /    A nd           | Version:  7
     \\/     M anipulation  |
\*---------------------------------------------------------------------------*/
FoamFile
{
    version     2.0;
    format      ascii;
    class       volScalarField;
    location    "1.5";
    object      T;
}
// * * * * * * * * * * * * * * * * * * * * * * * * * * * * * * * * * * * * * //

dimensions      [0 0 0 1 0 0 0];

internalField   nonuniform List<scalar> 
90000
(
0.618286
0.763719
0.941336
1.00148
1.01042
1.06451
1.14313
1.17025
1.19155
1.23651
1.28188
1.31757
1.35075
1.38427
1.41588
1.44351
1.46433
1.47756
1.49036
1.48936
1.48643
1.47942
1.46585
1.4562
1.44382
1.42776
1.42361
1.41984
1.40941
1.40211
1.4054
1.41225
1.42084
1.43144
1.43562
1.43508
1.43236
1.42773
1.42299
1.41524
1.40756
1.40214
1.39927
1.39541
1.39488
1.39624
1.39996
1.40507
1.40931
1.41016
1.40892
1.40405
1.39671
1.3879
1.378
1.3693
1.36206
1.35418
1.34433
1.33444
1.33223
1.32958
1.32612
1.32229
1.31936
1.31966
1.3227
1.32687
1.32682
1.32399
1.32125
1.31859
1.31289
1.30416
1.28709
1.25533
1.20945
1.15665
1.0992
1.02509
0.93906
0.911704
0.917548
0.93169
0.939115
0.941122
0.945386
0.950446
0.959584
0.966686
0.975786
0.98285
0.986706
0.992572
0.99657
1.00114
1.00745
1.01239
1.02047
1.03415
0.422887
0.422622
0.422321
0.422007
0.421664
0.421302
0.420897
0.420512
0.419874
0.426186
0.448502
0.500611
0.586481
0.69959
0.825656
0.954354
1.07809
1.19017
1.29108
1.37455
1.43622
1.48909
1.53592
1.56523
1.58412
1.58016
1.5706
1.54992
1.52134
1.51607
1.50943
1.49722
1.48593
1.4745
1.46586
1.45875
1.45554
1.45313
1.45084
1.45067
1.45134
1.45191
1.45316
1.4523
1.45259
1.45502
1.46117
1.46355
1.46266
1.46086
1.45754
1.45543
1.45411
1.4512
1.4469
1.44201
1.43673
1.42818
1.41618
1.40797
1.40539
1.40461
1.40395
1.40091
1.40016
1.40092
1.40358
1.40538
1.40401
1.40141
1.4021
1.40018
1.3978
1.39407
1.38214
1.35542
1.31499
1.26594
1.20069
1.10958
0.992674
0.9269
0.926601
0.936073
0.939893
0.941649
0.945801
0.951483
0.961355
0.968587
0.977941
0.983542
0.986991
0.992374
0.996358
1.00093
1.00777
1.01264
1.02102
1.03437
0.420723
0.420415
0.420072
0.419716
0.419338
0.418928
0.418479
0.418003
0.417543
0.416991
0.416287
0.415544
0.414867
0.414249
0.413705
0.413172
0.412734
0.41216
0.434908
0.522454
0.674487
0.869392
1.06317
1.22546
1.35124
1.439
1.50665
1.53956
1.58198
1.58348
1.56511
1.53262
1.49878
1.47937
1.47209
1.46066
1.45093
1.44706
1.44928
1.45317
1.45939
1.4645
1.46719
1.46748
1.46866
1.47559
1.47741
1.47499
1.4705
1.4666
1.46518
1.46649
1.47188
1.47616
1.47546
1.47223
1.46627
1.45638
1.44794
1.44706
1.44873
1.45032
1.45249
1.45166
1.45134
1.45035
1.44892
1.44622
1.44319
1.44389
1.44497
1.44307
1.44256
1.43942
1.42809
1.40671
1.37495
1.33659
1.2823
1.18882
1.0637
0.964249
0.941871
0.944834
0.943536
0.944751
0.94887
0.954978
0.964753
0.971519
0.979037
0.983478
0.986889
0.992101
0.996163
1.00125
1.00863
1.01373
1.02298
1.03651
0.417207
0.416822
0.416409
0.415978
0.415538
0.415093
0.414648
0.414184
0.413729
0.413265
0.412819
0.412378
0.411959
0.411579
0.411234
0.410873
0.410552
0.410342
0.410083
0.409833
0.409617
0.409382
0.409269
0.410935
0.469659
0.633929
0.849084
1.08335
1.27608
1.42312
1.49519
1.53655
1.53482
1.51367
1.49109
1.46467
1.44861
1.44406
1.44475
1.44562
1.44949
1.45295
1.45578
1.45758
1.46108
1.4688
1.46912
1.46441
1.45999
1.45663
1.45658
1.46212
1.47422
1.48504
1.48557
1.48089
1.4731
1.46152
1.45596
1.4577
1.46244
1.46912
1.4752
1.47452
1.47318
1.46928
1.46255
1.45587
1.45179
1.45199
1.45228
1.45326
1.45323
1.44913
1.4391
1.42077
1.39298
1.36026
1.31962
1.24442
1.12966
1.01968
0.974107
0.962727
0.952916
0.953322
0.95647
0.962392
0.970613
0.975528
0.981605
0.984989
0.98816
0.993237
0.997907
1.00433
1.01229
1.01817
1.02942
1.04329
0.413473
0.413136
0.412787
0.412443
0.4121
0.411757
0.411421
0.411099
0.410773
0.410455
0.410158
0.409896
0.409638
0.409408
0.409212
0.409005
0.408799
0.408721
0.408661
0.408591
0.408497
0.408418
0.408361
0.40832
0.408294
0.40833
0.408442
0.408584
0.416705
0.531627
0.768952
1.04607
1.28146
1.38004
1.42389
1.44222
1.44571
1.44183
1.44311
1.43844
1.44229
1.44279
1.44285
1.44821
1.45569
1.45841
1.45258
1.4411
1.43351
1.43156
1.43559
1.44841
1.46904
1.48696
1.48862
1.48316
1.47538
1.46269
1.45808
1.46012
1.46511
1.47397
1.48049
1.47898
1.47612
1.46879
1.45773
1.45091
1.44696
1.44591
1.44626
1.44794
1.44739
1.4429
1.43346
1.41763
1.39449
1.36531
1.33154
1.27922
1.18889
1.09258
1.03177
1.0002
0.977378
0.975101
0.97574
0.979159
0.984782
0.986228
0.988713
0.989901
0.992644
0.999135
1.00428
1.01249
1.02172
1.03136
1.04807
1.06088
0.410572
0.410352
0.410134
0.409913
0.409704
0.4095
0.409308
0.409122
0.408947
0.408789
0.408632
0.408482
0.408351
0.408228
0.408108
0.407991
0.407891
0.407846
0.407804
0.407737
0.407643
0.407611
0.407586
0.407574
0.40755
0.407572
0.407651
0.40778
0.407913
0.408167
0.408545
0.408941
0.416579
0.542718
0.756974
1.00644
1.16704
1.23343
1.29143
1.3328
1.36364
1.38987
1.40493
1.42244
1.43636
1.43945
1.43487
1.42389
1.41296
1.4096
1.41404
1.42977
1.45541
1.47995
1.4855
1.48185
1.477
1.46702
1.46051
1.46044
1.46474
1.47328
1.4793
1.47865
1.47478
1.46314
1.44273
1.43088
1.42522
1.42435
1.42651
1.43065
1.43055
1.427
1.41866
1.40567
1.3889
1.36173
1.33265
1.29938
1.24149
1.17411
1.1152
1.06389
1.02679
1.01759
1.01232
1.01151
1.01277
1.01452
1.01707
1.0183
1.02085
1.02806
1.03215
1.0387
1.05172
1.06671
1.08678
1.09137
0.408736
0.40861
0.408492
0.408373
0.408258
0.40815
0.40805
0.407955
0.40786
0.407776
0.407697
0.407618
0.407551
0.407484
0.407417
0.407374
0.40733
0.407276
0.407219
0.407171
0.407114
0.407058
0.407029
0.407016
0.407023
0.407066
0.407142
0.407266
0.407455
0.407682
0.407927
0.408226
0.40856
0.409152
0.409866
0.411346
0.416188
0.49235
0.663674
0.875382
1.00987
1.12277
1.20929
1.2935
1.35616
1.40241
1.41457
1.41088
1.40477
1.39895
1.40171
1.41434
1.43643
1.46123
1.47485
1.4765
1.47597
1.46984
1.46141
1.45938
1.46077
1.46634
1.47155
1.47095
1.46422
1.44786
1.42163
1.39958
1.39071
1.38719
1.38974
1.39773
1.40116
1.39968
1.39446
1.38622
1.37407
1.35419
1.32825
1.30951
1.27998
1.24649
1.21506
1.17142
1.13178
1.11206
1.09527
1.08858
1.08834
1.08695
1.08514
1.08314
1.08324
1.08843
1.09022
1.09547
1.10608
1.11673
1.13155
1.12332
0.407643
0.40759
0.407543
0.407496
0.407447
0.407402
0.407358
0.407318
0.407277
0.407235
0.407202
0.407168
0.407133
0.407103
0.407072
0.407036
0.406993
0.406953
0.406912
0.406848
0.406791
0.406775
0.40677
0.406772
0.406799
0.406857
0.40695
0.407086
0.40725
0.407416
0.407639
0.407875
0.408137
0.408469
0.408853
0.409563
0.410387
0.412056
0.415438
0.421887
0.427961
0.476418
0.620583
0.808287
1.00363
1.16549
1.29093
1.37393
1.39511
1.39387
1.39809
1.40628
1.42044
1.44009
1.45756
1.46889
1.47343
1.47094
1.46453
1.45884
1.45606
1.45743
1.4604
1.45896
1.44973
1.42953
1.39711
1.36507
1.35507
1.35334
1.35711
1.36622
1.37316
1.37333
1.37075
1.36528
1.35594
1.34058
1.32078
1.31196
1.30471
1.29555
1.29297
1.27856
1.25785
1.23751
1.21782
1.20806
1.20029
1.18966
1.18025
1.17283
1.16588
1.16396
1.15943
1.16061
1.16311
1.16306
1.16184
1.13852
0.40716
0.407131
0.407109
0.40709
0.407071
0.407054
0.40704
0.407024
0.407003
0.40698
0.406961
0.406942
0.406922
0.406896
0.406866
0.406834
0.406798
0.40676
0.406719
0.406678
0.40667
0.406682
0.406712
0.40675
0.406793
0.406828
0.40688
0.406988
0.407149
0.407355
0.407527
0.407629
0.407786
0.408012
0.408333
0.40864
0.40905
0.410123
0.411807
0.414128
0.418525
0.42688
0.438666
0.449711
0.455446
0.528958
0.760614
1.02368
1.24695
1.36695
1.40828
1.40825
1.4119
1.42626
1.44434
1.45974
1.4693
1.46921
1.46598
1.45958
1.45229
1.44822
1.4471
1.44327
1.43186
1.41054
1.37781
1.34421
1.32933
1.32366
1.32437
1.33124
1.33996
1.345
1.34652
1.34561
1.33958
1.32481
1.30907
1.30752
1.31438
1.32622
1.33907
1.34244
1.34085
1.33133
1.31617
1.30456
1.29145
1.2763
1.26157
1.2476
1.23459
1.22448
1.21102
1.20359
1.19415
1.18152
1.16599
1.13316
0.406921
0.406912
0.406902
0.406892
0.406881
0.406872
0.406867
0.406856
0.406845
0.406833
0.406816
0.406798
0.406778
0.406757
0.406742
0.406724
0.406707
0.406688
0.406662
0.406662
0.406669
0.406688
0.406711
0.40674
0.4068
0.406856
0.406873
0.406947
0.407124
0.407287
0.407434
0.407551
0.40762
0.407697
0.407842
0.408078
0.408425
0.408834
0.409523
0.410897
0.413306
0.417666
0.425411
0.436062
0.447752
0.453022
0.456993
0.459044
0.603683
0.93081
1.19066
1.34604
1.39817
1.41905
1.4406
1.45119
1.46357
1.46608
1.46491
1.45871
1.44802
1.43939
1.43456
1.42719
1.41483
1.39578
1.36646
1.33399
1.31451
1.30616
1.30129
1.30412
1.3108
1.31882
1.32593
1.32787
1.32319
1.30765
1.29613
1.30042
1.31686
1.33848
1.35743
1.36906
1.36984
1.36215
1.35089
1.33804
1.32032
1.30241
1.28736
1.27236
1.25686
1.24096
1.22098
1.20695
1.19107
1.17099
1.14505
1.10652
0.406796
0.406786
0.406775
0.406766
0.406758
0.406752
0.406745
0.406734
0.406728
0.406725
0.406723
0.40672
0.406716
0.406713
0.40671
0.406706
0.4067
0.406687
0.406687
0.406694
0.406708
0.406735
0.406768
0.406788
0.406858
0.406937
0.406984
0.407064
0.407197
0.407303
0.407378
0.407452
0.407509
0.407494
0.407504
0.407606
0.407821
0.408144
0.408605
0.40939
0.410538
0.412444
0.41621
0.422808
0.431514
0.441012
0.449925
0.457154
0.45963
0.460234
0.526031
0.834156
1.13562
1.31341
1.41451
1.44046
1.45738
1.46464
1.46331
1.45584
1.44341
1.43115
1.42182
1.41143
1.39926
1.38308
1.35904
1.32931
1.30564
1.29361
1.2846
1.28254
1.28584
1.29504
1.3076
1.31171
1.30682
1.29245
1.28788
1.29699
1.31802
1.3435
1.35897
1.36515
1.36381
1.35108
1.33491
1.31893
1.3024
1.28551
1.27216
1.25856
1.24143
1.22242
1.20102
1.18434
1.16325
1.13582
1.09349
1.06015
0.406659
0.406663
0.406669
0.406677
0.406686
0.40669
0.406695
0.406701
0.406705
0.406712
0.406721
0.406733
0.406747
0.40676
0.406773
0.406791
0.406811
0.406833
0.406858
0.406885
0.406913
0.406949
0.406976
0.406973
0.406999
0.407065
0.407117
0.407181
0.407247
0.407282
0.407278
0.407287
0.407297
0.407282
0.407263
0.407287
0.407433
0.407712
0.408032
0.408523
0.409248
0.410186
0.411976
0.415205
0.420023
0.427209
0.437096
0.447601
0.456314
0.459744
0.459967
0.459758
0.496268
0.769832
1.09385
1.29364
1.41342
1.46505
1.46214
1.45709
1.44416
1.42674
1.4107
1.3983
1.38598
1.37209
1.35311
1.32611
1.29957
1.28294
1.27192
1.26364
1.26532
1.27475
1.29114
1.29737
1.2923
1.28032
1.27804
1.29285
1.3173
1.33768
1.35116
1.35289
1.34219
1.32114
1.29992
1.27467
1.25026
1.23388
1.22293
1.2106
1.19561
1.17658
1.15409
1.13353
1.10759
1.07583
1.02971
1.00808
0.406637
0.406655
0.406685
0.406714
0.40674
0.406766
0.406791
0.406817
0.406843
0.406869
0.406897
0.406924
0.406949
0.406971
0.406993
0.407016
0.40704
0.407063
0.407081
0.40709
0.407097
0.407107
0.407107
0.407099
0.407103
0.40713
0.407161
0.407196
0.407192
0.407177
0.407126
0.407065
0.407033
0.406994
0.406984
0.407022
0.407143
0.4074
0.407721
0.408103
0.408538
0.409112
0.410079
0.411675
0.414151
0.418189
0.424891
0.433992
0.443487
0.452234
0.457881
0.458663
0.457579
0.457654
0.470662
0.70884
1.01581
1.24888
1.36632
1.43309
1.43255
1.42383
1.40452
1.39025
1.37712
1.36367
1.34733
1.32207
1.29484
1.27516
1.26133
1.24866
1.24901
1.25782
1.2759
1.2834
1.27859
1.26922
1.27195
1.29091
1.31402
1.32744
1.32968
1.3227
1.30058
1.26952
1.23903
1.20813
1.18254
1.16657
1.15477
1.14136
1.12582
1.10715
1.08676
1.06677
1.04472
1.02041
0.985373
0.973037
0.406811
0.406847
0.406898
0.406935
0.406963
0.406989
0.407013
0.407038
0.407064
0.407086
0.407106
0.407126
0.407144
0.407158
0.407171
0.407184
0.407198
0.407204
0.4072
0.407188
0.407178
0.407173
0.407164
0.407161
0.407156
0.40714
0.407108
0.40704
0.406968
0.406919
0.406865
0.406819
0.40678
0.406722
0.406724
0.406784
0.406915
0.407174
0.40751
0.407815
0.408129
0.408493
0.408979
0.409919
0.411351
0.413444
0.416968
0.422682
0.430029
0.438042
0.44612
0.452453
0.454341
0.455547
0.456988
0.457979
0.458325
0.583882
0.866127
1.09599
1.24731
1.33168
1.37555
1.37337
1.36431
1.355
1.34099
1.3183
1.29243
1.27011
1.25335
1.23721
1.23585
1.24321
1.25984
1.26773
1.26546
1.26133
1.27033
1.28659
1.30171
1.30554
1.30081
1.28337
1.25231
1.21683
1.18297
1.15087
1.12612
1.11048
1.09709
1.08233
1.06756
1.05219
1.03604
1.01952
1.00343
0.988663
0.966815
0.956828
0.407031
0.407051
0.40708
0.407114
0.407149
0.407176
0.407195
0.407207
0.407217
0.407223
0.407225
0.407229
0.407232
0.407232
0.407235
0.407242
0.40725
0.407249
0.407235
0.407209
0.407187
0.407169
0.407148
0.407115
0.407048
0.406937
0.406834
0.406751
0.406686
0.406648
0.40663
0.406617
0.406595
0.406563
0.406578
0.406651
0.406785
0.406989
0.407255
0.407473
0.407669
0.407918
0.40829
0.408912
0.40994
0.411265
0.413231
0.416416
0.421292
0.427185
0.433458
0.440529
0.447379
0.452083
0.455016
0.456367
0.457564
0.458073
0.458479
0.461654
0.60306
0.83472
1.0508
1.19014
1.27477
1.3305
1.32586
1.31448
1.29233
1.26705
1.24682
1.22721
1.22284
1.22828
1.2404
1.24886
1.25068
1.25569
1.26705
1.27813
1.28387
1.28049
1.26673
1.24116
1.2076
1.17411
1.14253
1.11314
1.09097
1.07565
1.06077
1.04588
1.03405
1.02331
1.01099
0.996617
0.985435
0.977019
0.962129
0.951726
0.407161
0.407169
0.407175
0.407186
0.407213
0.407245
0.407255
0.407258
0.407257
0.407254
0.40725
0.407243
0.407237
0.40723
0.407222
0.407212
0.407193
0.407149
0.407105
0.407068
0.407016
0.406952
0.406878
0.406792
0.406701
0.40662
0.406568
0.406538
0.406538
0.406546
0.406556
0.406554
0.406539
0.406523
0.406518
0.406534
0.406641
0.406769
0.406865
0.406945
0.407046
0.407268
0.407656
0.408226
0.40906
0.410117
0.411543
0.413648
0.416592
0.420392
0.425231
0.430811
0.437357
0.444536
0.450274
0.453182
0.455211
0.456566
0.456887
0.457804
0.458985
0.460035
0.460541
0.575304
0.826264
1.04937
1.19828
1.27778
1.2775
1.2626
1.24141
1.21702
1.20766
1.21019
1.217
1.22685
1.23477
1.24521
1.25501
1.26034
1.26055
1.2528
1.2331
1.2043
1.17294
1.14487
1.11781
1.09206
1.07238
1.05692
1.04167
1.02783
1.01838
1.00955
0.999501
0.98718
0.979267
0.972173
0.959079
0.949663
0.407185
0.407181
0.407185
0.407197
0.4072
0.407194
0.40718
0.407159
0.407135
0.407109
0.40708
0.407041
0.406992
0.406941
0.406885
0.406832
0.406797
0.406764
0.406733
0.406695
0.406619
0.406555
0.40651
0.406489
0.406475
0.406478
0.406491
0.406519
0.406557
0.406617
0.406622
0.406612
0.40658
0.406525
0.40642
0.406348
0.406376
0.406393
0.406364
0.406327
0.406378
0.406613
0.407107
0.407758
0.408516
0.409437
0.410737
0.41238
0.414345
0.416737
0.419906
0.424081
0.429055
0.434856
0.440864
0.445775
0.449033
0.451662
0.453979
0.455944
0.457176
0.458272
0.459511
0.460476
0.46151
0.47546
0.674016
0.955137
1.1175
1.20036
1.21
1.20047
1.19209
1.19039
1.1923
1.20074
1.21474
1.22676
1.23516
1.23696
1.23405
1.22078
1.197
1.16772
1.1412
1.11958
1.09798
1.07725
1.06139
1.04755
1.0326
1.01923
1.01059
1.00061
0.991109
0.982074
0.976131
0.968415
0.956007
0.94807
0.407015
0.406984
0.406943
0.406892
0.406844
0.406795
0.406743
0.406691
0.40664
0.406592
0.406549
0.40651
0.406468
0.40644
0.406411
0.406396
0.406396
0.406397
0.406396
0.406395
0.406389
0.406385
0.406399
0.406461
0.40655
0.40661
0.406651
0.406686
0.406741
0.406756
0.406744
0.406684
0.4066
0.406487
0.406329
0.40617
0.406084
0.406026
0.40594
0.405919
0.405992
0.40623
0.406746
0.407427
0.408166
0.409035
0.410202
0.411672
0.413198
0.414757
0.416811
0.419836
0.423918
0.428685
0.43364
0.438569
0.442623
0.445717
0.448716
0.451591
0.453996
0.456083
0.457988
0.459356
0.460816
0.462623
0.464522
0.466019
0.565996
0.816438
0.988804
1.11433
1.15482
1.16709
1.17045
1.17946
1.18855
1.19544
1.20263
1.20514
1.20164
1.1881
1.16504
1.1392
1.11885
1.1021
1.0839
1.06658
1.05298
1.03956
1.02447
1.01206
1.00383
0.992567
0.983626
0.9776
0.97258
0.964132
0.952474
0.946981
0.406575
0.406532
0.406474
0.406408
0.406339
0.406286
0.40625
0.406217
0.406188
0.406164
0.406136
0.406126
0.406127
0.406131
0.406151
0.40621
0.406224
0.406226
0.406248
0.406313
0.406387
0.406444
0.406538
0.406707
0.406822
0.406834
0.40684
0.406863
0.40688
0.406876
0.40683
0.40669
0.406544
0.406402
0.406223
0.406053
0.405937
0.405836
0.40575
0.405752
0.405851
0.406122
0.406619
0.407231
0.407914
0.408747
0.409861
0.411157
0.41242
0.413637
0.415225
0.417617
0.421084
0.425403
0.429769
0.434032
0.437988
0.441438
0.444912
0.448309
0.451359
0.453974
0.456423
0.458471
0.460178
0.462446
0.464635
0.467414
0.470571
0.472713
0.491303
0.705731
0.943073
1.08453
1.13304
1.16739
1.16964
1.16987
1.16989
1.16796
1.16154
1.14848
1.12893
1.11095
1.09847
1.08696
1.07288
1.05961
1.04701
1.03224
1.01702
1.00623
0.997315
0.984676
0.977241
0.973042
0.967793
0.958556
0.948148
0.946281
0.406205
0.406183
0.406156
0.406121
0.406065
0.406007
0.405987
0.405976
0.405972
0.405972
0.405976
0.405993
0.406011
0.40603
0.406082
0.406168
0.406177
0.406187
0.406259
0.406449
0.406536
0.406568
0.406642
0.406824
0.406935
0.406947
0.406962
0.406971
0.406957
0.406927
0.406847
0.406667
0.406504
0.406352
0.40619
0.406059
0.405913
0.405761
0.405699
0.405716
0.405825
0.40611
0.406603
0.407149
0.407803
0.408643
0.409743
0.410882
0.411879
0.412923
0.414457
0.416742
0.41986
0.423788
0.427759
0.431405
0.434928
0.438384
0.442106
0.445785
0.449335
0.452503
0.455298
0.45795
0.460003
0.462817
0.466604
0.469532
0.472411
0.475489
0.478372
0.480738
0.50694
0.743331
0.986012
1.09934
1.12843
1.14275
1.14738
1.14275
1.13382
1.1177
1.10047
1.08784
1.07842
1.06892
1.05833
1.04977
1.03889
1.02394
1.01083
1.00204
0.992036
0.978336
0.973184
0.968553
0.961735
0.951548
0.945172
0.94546
0.406079
0.406086
0.406084
0.406065
0.406013
0.405972
0.40597
0.405974
0.405984
0.406005
0.40605
0.406101
0.406123
0.406144
0.406194
0.406262
0.406289
0.406313
0.406387
0.406522
0.406607
0.40663
0.406671
0.406795
0.406901
0.406909
0.406893
0.406847
0.406779
0.406722
0.406676
0.406605
0.406511
0.40636
0.406272
0.406253
0.406169
0.40594
0.405786
0.40579
0.405883
0.406155
0.406615
0.407156
0.407814
0.408831
0.410027
0.410993
0.411715
0.412592
0.414175
0.416601
0.419557
0.42309
0.426738
0.430083
0.43325
0.436482
0.440102
0.443977
0.447832
0.451569
0.454695
0.457772
0.461292
0.464372
0.468007
0.470813
0.473199
0.476307
0.4795
0.483721
0.487224
0.488851
0.582091
0.825354
0.995185
1.07195
1.09526
1.09441
1.09089
1.0864
1.08049
1.07432
1.0652
1.05456
1.04657
1.0397
1.02956
1.01426
1.00485
0.997236
0.986514
0.97434
0.971215
0.964395
0.955198
0.94491
0.945373
0.945025
0.406568
0.406562
0.406537
0.406457
0.406366
0.406328
0.406326
0.406329
0.406325
0.406319
0.406312
0.406309
0.406308
0.406296
0.40625
0.406248
0.406268
0.406263
0.406249
0.406253
0.406263
0.406287
0.406332
0.406415
0.40653
0.406556
0.406554
0.406531
0.406479
0.406447
0.406471
0.406461
0.406467
0.406585
0.40682
0.407077
0.407236
0.40726
0.407289
0.40731
0.407368
0.40757
0.407957
0.408603
0.409653
0.411001
0.411932
0.412301
0.412479
0.413079
0.414702
0.417009
0.41963
0.42266
0.426112
0.42944
0.432584
0.435754
0.439349
0.443203
0.447077
0.451178
0.455485
0.459696
0.463282
0.465517
0.468147
0.471641
0.474107
0.4769
0.480248
0.484568
0.489579
0.492048
0.494423
0.497295
0.604487
0.78732
0.91403
0.982029
1.02274
1.04115
1.04122
1.03938
1.03539
1.03189
1.03498
1.03192
1.02203
1.00699
1.00085
0.992425
0.980292
0.972229
0.969106
0.959875
0.94914
0.946095
0.94589
0.943689
0.407228
0.407177
0.407123
0.407039
0.406911
0.406792
0.406676
0.406588
0.406542
0.406473
0.406324
0.406269
0.406262
0.406203
0.406017
0.405975
0.40597
0.405877
0.405772
0.405782
0.405831
0.405931
0.406071
0.40623
0.406408
0.406509
0.406515
0.4065
0.40647
0.406461
0.406488
0.406624
0.407008
0.40777
0.408623
0.409123
0.409376
0.409642
0.409895
0.410037
0.410186
0.410422
0.410719
0.411088
0.411636
0.412228
0.412585
0.412829
0.413206
0.413963
0.415115
0.416921
0.419382
0.422309
0.4256
0.428904
0.432463
0.436326
0.440295
0.444582
0.449534
0.454609
0.45842
0.461013
0.464059
0.466741
0.469444
0.474223
0.479244
0.482552
0.485046
0.487029
0.490883
0.495328
0.499428
0.502177
0.505152
0.507787
0.535227
0.630131
0.74871
0.836452
0.895909
0.940353
0.975799
0.997371
1.01099
1.00878
1.00236
0.997
0.995338
0.986726
0.973933
0.970788
0.965489
0.954388
0.947261
0.948453
0.945123
0.940608
0.407577
0.407495
0.407395
0.407292
0.407193
0.407106
0.407021
0.406922
0.4068
0.406618
0.406359
0.406183
0.406102
0.405942
0.405767
0.405776
0.405773
0.405682
0.405657
0.405691
0.405795
0.405952
0.406128
0.406314
0.406541
0.406835
0.407141
0.40746
0.407781
0.408164
0.408684
0.409334
0.409976
0.41061
0.411195
0.411508
0.411699
0.411899
0.412004
0.412046
0.412181
0.412329
0.412257
0.412141
0.412281
0.41232
0.412457
0.412718
0.413425
0.415004
0.417122
0.419378
0.421858
0.424847
0.428665
0.43308
0.437639
0.442617
0.446993
0.451038
0.454511
0.457521
0.460164
0.463402
0.467905
0.473581
0.478076
0.480978
0.484777
0.488294
0.491246
0.492736
0.494938
0.500217
0.505101
0.509444
0.513281
0.516648
0.519619
0.522724
0.525215
0.527137
0.561589
0.63833
0.736296
0.824135
0.892502
0.936907
0.963528
0.982599
0.979021
0.971916
0.964563
0.965367
0.960157
0.951002
0.946989
0.947942
0.941409
0.935913
0.407767
0.40773
0.407697
0.407682
0.407625
0.407519
0.407454
0.407396
0.407258
0.407101
0.40709
0.40709
0.407126
0.407238
0.407411
0.407804
0.407961
0.407998
0.408166
0.408507
0.408922
0.409296
0.409625
0.409938
0.410325
0.410803
0.411308
0.411967
0.412217
0.4121
0.412115
0.412426
0.412407
0.412346
0.412493
0.412843
0.413187
0.413315
0.41325
0.413047
0.412991
0.412895
0.41267
0.412789
0.413312
0.414215
0.415541
0.417479
0.420437
0.423876
0.426795
0.429139
0.431506
0.434353
0.437342
0.440462
0.443623
0.446996
0.450242
0.453249
0.456462
0.460606
0.465838
0.470801
0.474425
0.478206
0.481849
0.484419
0.487687
0.491705
0.496177
0.500204
0.503368
0.507094
0.510887
0.514919
0.519084
0.522527
0.524515
0.527891
0.531411
0.534358
0.53704
0.539894
0.542609
0.548287
0.597099
0.686778
0.785383
0.870385
0.906371
0.928361
0.94973
0.953213
0.949858
0.945921
0.946983
0.944025
0.933214
0.930316
0.4081
0.408153
0.408332
0.408684
0.409011
0.409353
0.409589
0.409743
0.409952
0.410185
0.410398
0.410592
0.410894
0.411263
0.411554
0.412067
0.412442
0.412527
0.412721
0.413091
0.413552
0.413853
0.414054
0.414217
0.414289
0.414361
0.414516
0.414588
0.414524
0.414148
0.413859
0.413789
0.413303
0.412822
0.413011
0.413597
0.414045
0.414409
0.414935
0.415158
0.415593
0.416737
0.418647
0.420954
0.4231
0.424983
0.426914
0.429137
0.431581
0.433503
0.434902
0.436105
0.437564
0.43947
0.441554
0.444154
0.446588
0.448969
0.45255
0.457747
0.46397
0.468631
0.471579
0.474233
0.4766
0.47944
0.482928
0.486523
0.490864
0.49615
0.50137
0.506998
0.511455
0.514591
0.517762
0.519573
0.522234
0.525627
0.528915
0.532576
0.536608
0.539973
0.542272
0.545858
0.549734
0.554428
0.558069
0.56353
0.568098
0.60741
0.679259
0.772005
0.852544
0.884192
0.91135
0.931575
0.941913
0.935928
0.922617
0.92377
0.412085
0.412157
0.412393
0.412824
0.413078
0.413213
0.413333
0.413514
0.413788
0.414016
0.414207
0.414419
0.41465
0.414847
0.415099
0.415513
0.415706
0.415648
0.415648
0.415813
0.416096
0.416345
0.416468
0.416489
0.41655
0.416626
0.416425
0.416215
0.416233
0.415883
0.415579
0.415846
0.416514
0.417019
0.417697
0.419132
0.420868
0.422503
0.424275
0.426365
0.428506
0.430448
0.431975
0.433251
0.434209
0.434735
0.435295
0.436156
0.437254
0.438232
0.439384
0.440911
0.442833
0.4448
0.446903
0.44975
0.453654
0.459208
0.465492
0.470509
0.472867
0.473919
0.47477
0.477002
0.4806
0.48442
0.489757
0.496203
0.501312
0.505362
0.508256
0.511656
0.515734
0.519087
0.522692
0.525315
0.527743
0.531423
0.535707
0.53871
0.541874
0.545219
0.548157
0.55144
0.555578
0.560061
0.564458
0.570163
0.576731
0.581784
0.587095
0.59268
0.626815
0.694399
0.781721
0.846074
0.888633
0.901346
0.911948
0.924874
0.415709
0.415773
0.415898
0.415945
0.416018
0.416158
0.416306
0.416542
0.416749
0.41693
0.417156
0.417579
0.417739
0.417869
0.418145
0.418509
0.418663
0.41881
0.419009
0.41928
0.419572
0.419864
0.420258
0.420739
0.421347
0.422132
0.423023
0.423926
0.424881
0.425936
0.427286
0.428996
0.430373
0.431222
0.432126
0.433271
0.434256
0.435056
0.435888
0.436892
0.437925
0.438878
0.439542
0.440201
0.44066
0.440588
0.440629
0.441129
0.442239
0.444283
0.447149
0.450444
0.453763
0.456919
0.460413
0.464168
0.468045
0.472191
0.474855
0.476424
0.477046
0.478779
0.482645
0.487885
0.493437
0.49829
0.502072
0.505569
0.50832
0.511108
0.513294
0.515057
0.518011
0.521325
0.525148
0.529876
0.533774
0.537588
0.541586
0.544695
0.547657
0.550928
0.554473
0.557564
0.561155
0.565415
0.571131
0.576697
0.582911
0.588235
0.594368
0.600426
0.606157
0.613173
0.625666
0.665808
0.737082
0.815232
0.880605
0.921381
0.424239
0.424504
0.424781
0.425073
0.425381
0.425702
0.426053
0.426437
0.426802
0.427141
0.427486
0.427844
0.428233
0.42864
0.429006
0.429389
0.429829
0.430306
0.430884
0.431543
0.432221
0.432928
0.433657
0.434443
0.435237
0.435977
0.436739
0.437579
0.438394
0.439171
0.440005
0.440801
0.44142
0.441829
0.442317
0.442493
0.442684
0.442988
0.443377
0.443976
0.44478
0.445563
0.446434
0.447518
0.448862
0.450448
0.452127
0.453891
0.455983
0.458282
0.460502
0.462873
0.465145
0.46725
0.469677
0.472393
0.474395
0.476602
0.478186
0.480462
0.484698
0.490143
0.495265
0.498848
0.501767
0.504785
0.506767
0.508797
0.510988
0.513538
0.516344
0.518714
0.521516
0.525473
0.529565
0.534442
0.539177
0.542822
0.546425
0.550302
0.553277
0.556326
0.559589
0.563294
0.567286
0.572215
0.577702
0.583345
0.589451
0.595856
0.601661
0.607822
0.613525
0.620883
0.629648
0.639548
0.651296
0.679142
0.738532
0.856554
0.437842
0.438092
0.438351
0.438614
0.438874
0.439132
0.43941
0.439698
0.439975
0.440262
0.440554
0.440826
0.441104
0.441432
0.441762
0.442077
0.44243
0.442759
0.443057
0.44337
0.443691
0.444009
0.444319
0.444643
0.444889
0.445244
0.445764
0.446358
0.447013
0.447665
0.448279
0.448821
0.449325
0.449861
0.450636
0.451539
0.452356
0.453134
0.454186
0.455633
0.457105
0.45839
0.459699
0.461141
0.462662
0.464057
0.465363
0.466812
0.468395
0.469758
0.470837
0.471617
0.472273
0.473364
0.47494
0.476756
0.478514
0.481365
0.486223
0.492094
0.497069
0.500052
0.502545
0.504214
0.505199
0.507285
0.508801
0.510593
0.513821
0.517999
0.523304
0.528913
0.53359
0.537854
0.541642
0.54473
0.548251
0.551318
0.553975
0.556924
0.559777
0.562436
0.565573
0.569496
0.573952
0.578887
0.584224
0.590422
0.596665
0.603139
0.609259
0.61541
0.621825
0.628991
0.637
0.64711
0.658121
0.672378
0.684016
0.755864
0.449071
0.449254
0.44946
0.449676
0.449903
0.450128
0.450363
0.450619
0.450871
0.451124
0.451398
0.451697
0.452004
0.452315
0.45266
0.453031
0.453412
0.453838
0.454309
0.45481
0.455345
0.455903
0.456486
0.457133
0.457814
0.458481
0.459148
0.459806
0.460445
0.461108
0.461777
0.462465
0.463221
0.463968
0.464767
0.465839
0.466995
0.46791
0.468783
0.469706
0.470516
0.471292
0.472132
0.472753
0.473066
0.473409
0.474051
0.474952
0.476106
0.477054
0.477973
0.478588
0.479515
0.481084
0.483625
0.487291
0.491762
0.496033
0.499502
0.50217
0.503887
0.504729
0.506358
0.507782
0.509113
0.511523
0.516235
0.521825
0.527221
0.532023
0.53613
0.540025
0.543629
0.54686
0.550107
0.552729
0.555203
0.557794
0.560169
0.562642
0.565692
0.568931
0.572493
0.576423
0.581016
0.586113
0.591766
0.597848
0.604037
0.610502
0.617036
0.62343
0.629773
0.637086
0.645195
0.655151
0.666208
0.679519
0.690331
0.719484
0.463128
0.463344
0.463582
0.463821
0.464074
0.464345
0.464624
0.464916
0.465211
0.465514
0.465819
0.466117
0.466452
0.466796
0.467136
0.467498
0.467839
0.468195
0.46857
0.468913
0.469264
0.46965
0.470041
0.470432
0.470871
0.471315
0.471721
0.472117
0.472552
0.473034
0.473561
0.474134
0.474714
0.475256
0.475788
0.476265
0.476704
0.477197
0.477744
0.478372
0.478965
0.479627
0.48056
0.481153
0.481667
0.482509
0.483704
0.484991
0.486381
0.487981
0.489752
0.491753
0.493816
0.496343
0.499163
0.501304
0.50322
0.504664
0.506017
0.507252
0.508439
0.510511
0.513783
0.518477
0.52381
0.528579
0.532567
0.5361
0.539151
0.541799
0.543853
0.546021
0.548545
0.551015
0.553871
0.55671
0.559118
0.561889
0.564731
0.567599
0.570807
0.574527
0.578536
0.582976
0.588065
0.593526
0.599421
0.605424
0.61192
0.618495
0.624983
0.631501
0.638304
0.645336
0.653495
0.663232
0.674166
0.687544
0.699623
0.724591
0.475742
0.475937
0.476138
0.476343
0.476551
0.476768
0.477006
0.477238
0.477461
0.477682
0.477903
0.478141
0.478367
0.478615
0.47885
0.479064
0.479296
0.479563
0.47984
0.480107
0.480395
0.480701
0.481048
0.481443
0.481833
0.482249
0.482714
0.483187
0.483695
0.484232
0.484804
0.485427
0.48609
0.486791
0.48756
0.488374
0.489199
0.489995
0.490836
0.491707
0.492455
0.493175
0.494164
0.495374
0.496631
0.497876
0.499087
0.500369
0.501589
0.502594
0.503443
0.504235
0.505427
0.507082
0.508228
0.508679
0.509237
0.510463
0.512929
0.516747
0.521511
0.526487
0.530984
0.534301
0.537187
0.539623
0.541421
0.543084
0.544667
0.54659
0.548389
0.550304
0.552607
0.555016
0.5574
0.560579
0.564014
0.56748
0.571196
0.574837
0.578289
0.581918
0.586045
0.590649
0.595607
0.601239
0.607103
0.613448
0.619888
0.626524
0.6334
0.64018
0.646916
0.654231
0.662375
0.671735
0.682875
0.695918
0.70808
0.732777
0.489596
0.489809
0.490032
0.490254
0.490485
0.49074
0.491
0.491262
0.491525
0.491797
0.492086
0.492383
0.492694
0.493017
0.493323
0.493648
0.494015
0.494372
0.494725
0.495095
0.495474
0.495857
0.496237
0.496617
0.497002
0.497405
0.497822
0.498266
0.498736
0.499251
0.499839
0.500486
0.501108
0.501702
0.502377
0.503044
0.503568
0.504092
0.504689
0.505301
0.505948
0.506667
0.507415
0.508116
0.508679
0.509244
0.509844
0.510545
0.511257
0.511772
0.512217
0.512968
0.514171
0.515794
0.517364
0.519137
0.5217
0.525377
0.529365
0.532901
0.535988
0.538349
0.540507
0.542168
0.543737
0.545332
0.546526
0.548081
0.550468
0.553436
0.55676
0.559962
0.562969
0.565942
0.568574
0.571037
0.573845
0.576494
0.579275
0.582391
0.585831
0.589671
0.593882
0.598781
0.603997
0.609569
0.615556
0.621736
0.628297
0.635133
0.641822
0.64898
0.655972
0.663408
0.671393
0.680943
0.691681
0.704835
0.717002
0.742035
0.50426
0.504469
0.504696
0.504926