/*--------------------------------*- C++ -*----------------------------------*\
  =========                 |
  \\      /  F ield         | OpenFOAM: The Open Source CFD Toolbox
   \\    /   O peration     | Website:  https://openfoam.org
    \\  /    A nd           | Version:  7
     \\/     M anipulation  |
\*---------------------------------------------------------------------------*/
FoamFile
{
    version     2.0;
    format      ascii;
    class       volScalarField;
    location    "6.5";
    object      p;
}
// * * * * * * * * * * * * * * * * * * * * * * * * * * * * * * * * * * * * * //

dimensions      [1 -1 -2 0 0 0 0];

internalField   nonuniform List<scalar> 
90000
(
0.687155
0.696529
0.706642
0.716397
0.725368
0.734725
0.7434
0.751684
0.759427
0.76747
0.774955
0.782881
0.790679
0.80059
0.811719
0.824943
0.838739
0.853564
0.868138
0.883013
0.897235
0.911485
0.924858
0.938114
0.950259
0.962236
0.972619
0.983063
0.991613
0.998976
1.00583
1.01132
1.01361
1.01648
1.01785
1.01807
1.01761
1.01592
1.0126
1.00631
0.997978
0.990003
0.983995
0.981379
0.982153
0.984556
0.988066
0.992141
0.99551
0.996252
0.997968
0.999094
0.998701
0.997226
0.994413
0.992185
0.989845
0.98904
0.989235
0.99014
0.992121
0.992785
0.994224
0.995236
0.99522
0.994456
0.99359
0.992621
0.992374
0.992634
0.99251
0.993606
0.994784
0.996479
0.995391
0.994534
0.993415
0.993039
0.99373
0.995143
0.995983
0.995532
0.994828
0.994748
0.995215
0.995709
0.995449
0.995253
0.995244
0.995685
0.995768
0.995537
0.995345
0.995307
0.99548
0.995596
0.995724
0.995781
0.995626
0.994959
0.680369
0.680881
0.681974
0.683665
0.685715
0.688385
0.691726
0.695578
0.699817
0.704694
0.710059
0.715923
0.722093
0.728778
0.735806
0.743652
0.752089
0.761494
0.771736
0.782756
0.794759
0.807355
0.820542
0.834618
0.848585
0.863306
0.878057
0.892152
0.907147
0.92059
0.934291
0.946438
0.958653
0.968939
0.97672
0.983416
0.992292
0.994952
0.995499
0.998077
1.00419
1.00759
1.00899
1.00769
1.00465
1.0004
0.995634
0.991871
0.990141
0.987677
0.987983
0.988988
0.990732
0.992902
0.995342
0.998306
0.999124
0.998335
0.996245
0.993521
0.990701
0.988192
0.987705
0.98867
0.991866
0.995699
0.997806
0.996804
0.994717
0.992246
0.99049
0.99134
0.994318
0.997346
0.997007
0.995262
0.992472
0.991902
0.993072
0.995723
0.996434
0.995761
0.994643
0.994453
0.995008
0.995843
0.995716
0.99554
0.995429
0.995497
0.995571
0.995587
0.995461
0.995411
0.995405
0.995518
0.995628
0.995795
0.995753
0.995223
0.680401
0.680417
0.680434
0.680447
0.680462
0.680494
0.68056
0.680682
0.680862
0.681125
0.681487
0.681969
0.682751
0.683818
0.685148
0.686776
0.688715
0.691111
0.693928
0.697463
0.701587
0.706727
0.712649
0.719909
0.728165
0.738156
0.749355
0.762279
0.776872
0.792873
0.810058
0.829644
0.848964
0.868911
0.891524
0.910294
0.93013
0.948273
0.965967
0.979379
0.989499
0.994703
0.997702
0.998517
0.99929
0.998978
0.997726
0.995838
0.992743
0.988967
0.986714
0.987948
0.990198
0.99344
0.996304
0.999121
0.999379
0.998327
0.996063
0.992611
0.989662
0.986483
0.98684
0.988804
0.991541
0.994746
0.996166
0.9963
0.995214
0.992694
0.992154
0.992626
0.994015
0.995242
0.996034
0.995599
0.994775
0.993793
0.99393
0.994523
0.995387
0.995647
0.995335
0.994828
0.994819
0.995186
0.995414
0.995614
0.995569
0.995592
0.995685
0.995738
0.995643
0.995492
0.995399
0.995436
0.995595
0.995752
0.995749
0.995371
0.680899
0.680912
0.680889
0.680864
0.68085
0.680843
0.680837
0.680836
0.680846
0.680877
0.680923
0.68102
0.681023
0.681031
0.681054
0.681078
0.681102
0.681145
0.68123
0.681388
0.681612
0.681934
0.682369
0.683153
0.684274
0.685825
0.687903
0.690813
0.694438
0.699642
0.705979
0.71452
0.725053
0.738419
0.753397
0.773074
0.793724
0.817075
0.84286
0.868548
0.894389
0.915052
0.936502
0.950153
0.964313
0.971212
0.978426
0.981142
0.982731
0.98541
0.990983
0.99467
0.997279
0.998402
0.998351
0.997957
0.996919
0.994618
0.993064
0.991287
0.991251
0.99152
0.992106
0.992623
0.992302
0.991766
0.991595
0.992251
0.993276
0.995639
0.99662
0.995841
0.994508
0.992815
0.993376
0.994394
0.996295
0.995889
0.994886
0.993775
0.99398
0.9948
0.995631
0.995263
0.994752
0.994816
0.995357
0.995762
0.995812
0.995602
0.995551
0.995652
0.995695
0.995614
0.99544
0.995412
0.995523
0.995778
0.995835
0.99554
0.681389
0.681387
0.681382
0.681375
0.681371
0.681372
0.681371
0.681356
0.681335
0.68132
0.681305
0.68129
0.681271
0.681245
0.681219
0.681192
0.681167
0.681146
0.681146
0.681172
0.681229
0.681302
0.681452
0.681473
0.681474
0.68149
0.681539
0.681623
0.681759
0.681978
0.682336
0.683052
0.684182
0.686073
0.688739
0.693005
0.698748
0.707656
0.718687
0.73504
0.753696
0.778734
0.805389
0.836034
0.86684
0.895162
0.923347
0.944051
0.965369
0.977677
0.985477
0.987999
0.990939
0.991806
0.99191
0.990346
0.986684
0.986133
0.987594
0.990799
0.99441
0.996998
0.997118
0.995669
0.993141
0.989714
0.988786
0.989401
0.991292
0.994005
0.99672
0.996888
0.995742
0.993882
0.992706
0.993455
0.995013
0.996301
0.996104
0.994992
0.993946
0.994227
0.994888
0.995391
0.995091
0.994815
0.995153
0.995757
0.995926
0.995735
0.995613
0.995699
0.995733
0.995628
0.995397
0.9954
0.995459
0.995658
0.995794
0.995608
0.68174
0.681735
0.681732
0.681725
0.681717
0.681711
0.681697
0.681675
0.681657
0.681643
0.681628
0.681616
0.681607
0.681597
0.681588
0.681576
0.681551
0.681512
0.681474
0.681455
0.681438
0.681422
0.681409
0.681384
0.681338
0.681308
0.68129
0.681281
0.681292
0.681338
0.681415
0.681402
0.681403
0.681435
0.681517
0.681693
0.681979
0.682497
0.683391
0.685146
0.688043
0.693441
0.701157
0.714292
0.730703
0.755121
0.782192
0.815118
0.849644
0.881019
0.911923
0.930498
0.95075
0.958694
0.96878
0.972193
0.978046
0.984331
0.992232
0.996689
0.998266
0.998108
0.99714
0.994708
0.99237
0.990758
0.990236
0.991187
0.993219
0.99354
0.9942
0.994178
0.99373
0.993962
0.994514
0.995243
0.995236
0.995355
0.995167
0.994941
0.994655
0.99441
0.99445
0.99476
0.995247
0.995162
0.995146
0.995405
0.995761
0.99579
0.995793
0.995742
0.995777
0.995716
0.995574
0.99544
0.99552
0.995696
0.995794
0.995657
0.682198
0.682185
0.682175
0.682163
0.682151
0.682138
0.682119
0.682093
0.682066
0.682031
0.681979
0.681957
0.681951
0.681949
0.681934
0.681904
0.681869
0.681831
0.681774
0.681727
0.681705
0.681682
0.68164
0.681588
0.681549
0.681509
0.68144
0.681339
0.681266
0.681223
0.681185
0.681136
0.681082
0.681043
0.681039
0.681087
0.681223
0.68128
0.681271
0.68123
0.681239
0.681332
0.681644
0.682475
0.684123
0.687773
0.693674
0.705132
0.7205
0.745679
0.774392
0.81133
0.848612
0.883965
0.918718
0.943028
0.969439
0.97994
0.988214
0.991933
0.994466
0.99243
0.987102
0.985354
0.987055
0.991585
0.995175
0.996112
0.995858
0.994029
0.991068
0.990734
0.991568
0.993799
0.995545
0.996046
0.995704
0.994968
0.994401
0.994692
0.995125
0.994942
0.994436
0.994427
0.994747
0.995507
0.995542
0.995437
0.995511
0.99573
0.995914
0.995838
0.995664
0.995616
0.995606
0.995531
0.995461
0.995599
0.995692
0.995591
0.682517
0.682509
0.682497
0.682465
0.682434
0.682426
0.682416
0.682387
0.682352
0.682342
0.682327
0.682295
0.682258
0.682232
0.682199
0.682148
0.682106
0.682073
0.682027
0.681956
0.681896
0.681858
0.68182
0.681778
0.681735
0.681695
0.681648
0.681579
0.681488
0.681386
0.681293
0.68121
0.681104
0.681007
0.680971
0.680952
0.680941
0.680921
0.680895
0.680858
0.68079
0.680768
0.680758
0.68074
0.680715
0.680672
0.680728
0.681131
0.682313
0.685486
0.691308
0.703635
0.720689
0.749458
0.781579
0.821989
0.861914
0.895072
0.92803
0.942562
0.960633
0.966179
0.97522
0.983863
0.993483
0.999157
0.99922
0.998482
0.994164
0.989642
0.989123
0.989968
0.992629
0.99602
0.99612
0.995534
0.994274
0.993775
0.994135
0.994995
0.995465
0.995021
0.99455
0.994412
0.994692
0.995191
0.995588
0.995421
0.99538
0.995685
0.995929
0.995887
0.995675
0.995612
0.995674
0.995709
0.995612
0.995617
0.995587
0.995584
0.682675
0.68266
0.682639
0.682591
0.68255
0.682544
0.682537
0.682519
0.682503
0.682489
0.68247
0.682441
0.682402
0.682354
0.682296
0.682241
0.682196
0.682158
0.682114
0.682055
0.681976
0.681883
0.681805
0.681753
0.681702
0.681639
0.68157
0.681499
0.681415
0.681315
0.681214
0.681124
0.681038
0.680922
0.680812
0.680762
0.680725
0.680697
0.680702
0.680697
0.68064
0.680571
0.680515
0.680481
0.680437
0.68038
0.680347
0.680274
0.680133
0.680036
0.680087
0.680579
0.682063
0.686248
0.693873
0.710071
0.731839
0.767424
0.806465
0.850905
0.894551
0.928407
0.96452
0.978536
0.989043
0.994413
0.994939
0.990249
0.985067
0.986539
0.990405
0.994091
0.995807
0.99597
0.99509
0.992512
0.992556
0.993357
0.994875
0.99559
0.995325
0.99481
0.994674
0.994902
0.995183
0.995112
0.995153
0.995168
0.995379
0.995694
0.995881
0.995767
0.995637
0.99563
0.995762
0.995766
0.995709
0.99556
0.995431
0.995466
0.682489
0.682465
0.682431
0.68242
0.682418
0.682419
0.682411
0.682394
0.682389
0.682383
0.682367
0.682333
0.682287
0.682225
0.682162
0.682151
0.682146
0.682123
0.682069
0.682008
0.681942
0.681869
0.68181
0.681758
0.681662
0.68157
0.681515
0.681451
0.681364
0.68128
0.681205
0.681129
0.681055
0.680984
0.680903
0.680829
0.680804
0.680792
0.68079
0.680764
0.680694
0.680613
0.680556
0.680537
0.680527
0.680526
0.680525
0.680489
0.680378
0.680196
0.679972
0.679754
0.679713
0.679798
0.680163
0.681351
0.684108
0.691168
0.703183
0.727722
0.758252
0.80253
0.847652
0.887837
0.92637
0.944048
0.962845
0.96957
0.984306
0.992283
0.998271
0.998214
0.997369
0.99349
0.989992
0.990286
0.992031
0.995001
0.995679
0.99524
0.994026
0.994146
0.994872
0.99577
0.995606
0.995207
0.994778
0.994947
0.995476
0.995779
0.995732
0.995631
0.995634
0.995764
0.995879
0.995844
0.995777
0.995569
0.995376
0.995363
0.681774
0.681769
0.681764
0.681759
0.681758
0.681759
0.681757
0.681747
0.681741
0.68174
0.681733
0.681703
0.681676
0.681668
0.68167
0.681678
0.681669
0.681605
0.681501
0.681474
0.681478
0.681492
0.681489
0.681419
0.681279
0.681205
0.681168
0.681127
0.681071
0.681016
0.680964
0.680911
0.680863
0.680815
0.680755
0.680699
0.680682
0.680673
0.680663
0.68065
0.680627
0.680607
0.680611
0.68065
0.680711
0.680779
0.680836
0.680838
0.680776
0.680627
0.68042
0.680202
0.679985
0.67992
0.679954
0.680076
0.68028
0.680682
0.681631
0.68438
0.690084
0.703957
0.724964
0.763024
0.807115
0.857104
0.907077
0.945063
0.977904
0.986859
0.994736
0.993629
0.988478
0.985103
0.987562
0.992153
0.9959
0.996172
0.995261
0.992547
0.992736
0.994195
0.996072
0.996125
0.995713
0.994846
0.994569
0.995039
0.995598
0.995624
0.995418
0.995451
0.995693
0.995912
0.995891
0.995843
0.995789
0.995606
0.995356
0.995323
0.681024
0.681024
0.681022
0.681014
0.681005
0.681003
0.681004
0.681009
0.681015
0.681019
0.681029
0.681039
0.681047
0.681072
0.681099
0.681102
0.681079
0.681037
0.681026
0.681023
0.681031
0.681045
0.681037
0.680984
0.680942
0.680931
0.680926
0.680914
0.680887
0.680871
0.680846
0.680809
0.680766
0.680715
0.680656
0.680615
0.680596
0.680582
0.680575
0.680581
0.680611
0.680662
0.680727
0.680805
0.680898
0.680996
0.681082
0.68115
0.681178
0.681143
0.681042
0.680871
0.680642
0.680414
0.680334
0.680379
0.680463
0.680587
0.680783
0.681072
0.681473
0.682413
0.68471
0.691576
0.704721
0.73357
0.771506
0.822579
0.876392
0.911068
0.950717
0.95905
0.971887
0.981812
0.994784
0.998004
0.997525
0.994331
0.990271
0.99061
0.993153
0.996239
0.99665
0.995922
0.994591
0.994553
0.995069
0.995684
0.995613
0.995188
0.995104
0.995384
0.995831
0.995986
0.995898
0.995845
0.995799
0.995631
0.995369
0.995355
0.680386
0.680384
0.680382
0.680379
0.680378
0.68038
0.68039
0.680408
0.680428
0.680435
0.680443
0.680459
0.680482
0.680508
0.680529
0.68054
0.680536
0.68053
0.680539
0.680565
0.680579
0.680577
0.68056
0.680546
0.680548
0.68057
0.680608
0.680651
0.68068
0.680694
0.680693
0.680689
0.680677
0.680646
0.680594
0.680533
0.680475
0.680425
0.680392
0.680394
0.680428
0.680494
0.680576
0.680671
0.680788
0.680922
0.681047
0.681153
0.681242
0.681311
0.68137
0.681366
0.6813
0.68118
0.681047
0.680954
0.680913
0.680916
0.680954
0.681068
0.681357
0.681593
0.681657
0.681824
0.682571
0.685772
0.693375
0.714474
0.745243
0.797059
0.853842
0.903749
0.957967
0.976113
0.989804
0.993365
0.989285
0.983353
0.986284
0.992318
0.997112
0.997151
0.995996
0.993243
0.993548
0.994987
0.996112
0.995923
0.995068
0.994689
0.994996
0.995607
0.995833
0.9958
0.995828
0.995877
0.995808
0.995636
0.995437
0.995447
0.680015
0.680013
0.68001
0.68001
0.680011
0.680024
0.680045
0.680049
0.680043
0.680036
0.680036
0.68005
0.680058
0.68006
0.680064
0.68007
0.680078
0.680087
0.680104
0.680137
0.680174
0.680206
0.680231
0.680252
0.680277
0.680317
0.680368
0.680419
0.680459
0.680503
0.680575
0.680632
0.680651
0.680651
0.680625
0.680542
0.680414
0.680288
0.680199
0.680165
0.680175
0.680219
0.680308
0.680438
0.680576
0.680723
0.68088
0.681014
0.681115
0.681198
0.681297
0.681493
0.681642
0.681652
0.681632
0.681529
0.681318
0.681178
0.681172
0.681227
0.681436
0.681553
0.681589
0.681632
0.681557
0.68134
0.681496
0.682971
0.687675
0.702859
0.727675
0.776191
0.831258
0.88219
0.931928
0.950027
0.966099
0.97727
0.99434
0.998348
0.997872
0.994585
0.990979
0.991679
0.994718
0.996792
0.996502
0.995064
0.994362
0.994668
0.995406
0.995848
0.995689
0.99555
0.995734
0.995902
0.995749
0.995587
0.995546
0.99558
0.679873
0.679873
0.679871
0.679872
0.679879
0.679895
0.679904
0.679903
0.679895
0.679891
0.679892
0.679901
0.679906
0.679909
0.679924
0.679935
0.679938
0.679942
0.679958
0.679992
0.680031
0.680067
0.680111
0.68017
0.68024
0.680321
0.680408
0.680491
0.680573
0.680657
0.680737
0.680812
0.680889
0.680956
0.680978
0.680965
0.680911
0.68082
0.680709
0.680585
0.680463
0.680357
0.680291
0.680295
0.680354
0.680472
0.680605
0.680704
0.680796
0.680905
0.681068
0.681312
0.681604
0.681752
0.681766
0.681738
0.68158
0.681294
0.681138
0.681135
0.681214
0.681437
0.681624
0.681648
0.681585
0.681426
0.681089
0.68092
0.681034
0.682047
0.685243
0.69637
0.71663
0.762209
0.817298
0.875532
0.940886
0.97015
0.988522
0.993335
0.988518
0.983441
0.987093
0.993987
0.997828
0.996866
0.994645
0.993762
0.994251
0.99558
0.995632
0.99546
0.995295
0.995531
0.995789
0.995722
0.995538
0.995594
0.995764
0.995729
0.680172
0.680143
0.680114
0.680085
0.680056
0.680031
0.680012
0.679995
0.679966
0.679929
0.679918
0.679915
0.679914
0.679921
0.679956
0.679968
0.679956
0.67995
0.679969
0.680003
0.680032
0.680067
0.680109
0.680152
0.680203
0.680273
0.680351
0.680436
0.680534
0.680636
0.680729
0.680815
0.680905
0.681009
0.681112
0.681168
0.681179
0.681177
0.681161
0.681113
0.681021
0.68089
0.680733
0.680608
0.680551
0.680503
0.680453
0.680444
0.680471
0.680562
0.680725
0.680983
0.681359
0.68163
0.681681
0.681677
0.681594
0.681335
0.681028
0.680939
0.680958
0.681035
0.681177
0.681405
0.681525
0.681503
0.681346
0.681039
0.680969
0.681062
0.681308
0.682028
0.684118
0.692554
0.710047
0.752366
0.80658
0.865619
0.921733
0.945607
0.964341
0.977629
0.996058
0.998756
0.997151
0.991917
0.99206
0.993413
0.995931
0.996493
0.995753
0.994791
0.995148
0.995711
0.995753
0.995393
0.995331
0.995677
0.995962
0.99586
0.680981
0.680935
0.680885
0.680831
0.680772
0.68071
0.680644
0.680575
0.680505
0.680445
0.680396
0.680347
0.680294
0.680264
0.680244
0.680213
0.680176
0.680155
0.680146
0.680143
0.680155
0.680173
0.680175
0.680176
0.680194
0.680241
0.680319
0.680415
0.680527
0.680657
0.680785
0.68089
0.680995
0.681115
0.681238
0.681346
0.68144
0.681517
0.681554
0.681557
0.681542
0.681491
0.681395
0.681259
0.681091
0.680882
0.680641
0.680457
0.680394
0.680399
0.680475
0.680641
0.680953
0.681348
0.681525
0.68153
0.681472
0.68128
0.680959
0.680693
0.680651
0.680695
0.680786
0.681004
0.68137
0.68151
0.681476
0.681276
0.681143
0.681174
0.681303
0.681439
0.681536
0.681898
0.683405
0.690443
0.706387
0.748022
0.80265
0.866195
0.938133
0.970066
0.990892
0.992936
0.983514
0.984692
0.989982
0.996018
0.996971
0.996044
0.994018
0.994367
0.995619
0.995695
0.995369
0.995061
0.995343
0.99589
0.996019
0.995875
0.681667
0.681635
0.681601
0.681562
0.681519
0.681466
0.681397
0.68132
0.681241
0.681161
0.681076
0.680989
0.680906
0.680826
0.68075
0.68068
0.680616
0.680563
0.680513
0.680467
0.680459
0.680465
0.680463
0.680462
0.680479
0.680528
0.680578
0.680628
0.680711
0.680841
0.680973
0.68108
0.681167
0.68124
0.681325
0.681442
0.681575
0.681708
0.681832
0.681908
0.681926
0.68192
0.681895
0.681826
0.68169
0.681474
0.681153
0.680745
0.680433
0.680349
0.680354
0.680422
0.680601
0.680918
0.68124
0.681345
0.681312
0.6812
0.681018
0.680787
0.680593
0.680512
0.680522
0.680712
0.681167
0.681388
0.681357
0.681243
0.681228
0.681261
0.681282
0.681301
0.68135
0.681377
0.681405
0.681683
0.682996
0.689577
0.705328
0.746601
0.802797
0.866278
0.924405
0.949086
0.965103
0.984785
0.997496
0.997324
0.994946
0.991934
0.993078
0.996115
0.996437
0.995682
0.994509
0.994758
0.995643
0.996041
0.995896
0.995848
0.682109
0.682112
0.682113
0.682113
0.682106
0.682076
0.682035
0.681992
0.681945
0.681895
0.681842
0.68179
0.681737
0.681676
0.681599
0.681505
0.681407
0.681315
0.681225
0.681134
0.681049
0.680973
0.680895
0.680849
0.680847
0.680843
0.680825
0.680809
0.680823
0.680862
0.680917
0.680989
0.681077
0.681196
0.681355
0.681541
0.681715
0.681858
0.681974
0.682049
0.682081
0.682109
0.682124
0.682115
0.682077
0.681961
0.681705
0.681263
0.680741
0.680391
0.680308
0.680334
0.680483
0.680766
0.681078
0.681265
0.681271
0.681236
0.6812
0.681103
0.680939
0.680771
0.680678
0.680719
0.681053
0.6812
0.681146
0.681114
0.681178
0.681249
0.681215
0.681139
0.681123
0.68117
0.681311
0.681365
0.681397
0.681663
0.683055
0.689578
0.706173
0.74959
0.808035
0.8781
0.948069
0.978045
0.993267
0.990408
0.982635
0.987139
0.994873
0.997156
0.99626
0.993726
0.994018
0.995419
0.995942
0.995792
0.995662
0.995886
0.682189
0.682218
0.682243
0.682263
0.682274
0.682285
0.682303
0.68231
0.68231
0.682309
0.682308
0.682306
0.682298
0.682273
0.682221
0.682148
0.682066
0.681984
0.681899
0.681815
0.681735
0.681644
0.681537
0.681429
0.681335
0.681241
0.681143
0.681071
0.681026
0.680985
0.680945
0.680937
0.680954
0.681015
0.681095
0.681158
0.681214
0.681275
0.681343
0.681444
0.681584
0.681731
0.681914
0.682037
0.682057
0.682052
0.681967
0.681688
0.681246
0.680822
0.680571
0.680537
0.680583
0.68074
0.681008
0.681276
0.681397
0.681442
0.68148
0.681451
0.68135
0.681172
0.681004
0.680999
0.681069
0.681064
0.680978
0.680982
0.68107
0.681196
0.681198
0.681128
0.681078
0.681098
0.68117
0.6813
0.681421
0.681435
0.681493
0.681818
0.683316
0.690132
0.709053
0.754585
0.819591
0.88493
0.934543
0.958273
0.973917
0.996096
0.997926
0.99621
0.991828
0.992568
0.9953
0.996597
0.996054
0.99516
0.995379
0.996001
0.682016
0.682061
0.682115
0.682177
0.68225
0.682348
0.682404
0.682419
0.682429
0.682431
0.682425
0.682403
0.682367
0.682338
0.682317
0.682296
0.682273
0.682245
0.682213
0.682181
0.682132
0.68205
0.681942
0.681816
0.681665
0.681479
0.681323
0.681241
0.681191
0.681145
0.681091
0.681021
0.680977
0.680953
0.680914
0.680812
0.680652
0.680594
0.680579
0.68059
0.680701
0.680965
0.681407
0.681881
0.682004
0.682009
0.681984
0.681835
0.681553
0.681257
0.681031
0.680952
0.680977
0.681056
0.681152
0.681301
0.68147
0.681583
0.681648
0.681648
0.681573
0.681437
0.681319
0.681241
0.681193
0.681136
0.681005
0.680973
0.681036
0.681209
0.681287
0.681243
0.681163
0.681121
0.681131
0.68118
0.681264
0.681329
0.681356
0.681372
0.681431
0.681767
0.683626
0.691522
0.715392
0.766212
0.832718
0.91447
0.963145
0.991496
0.991379
0.981902
0.986031
0.994059
0.997218
0.996373
0.994524
0.994701
0.995664
0.996129
0.681824
0.68192
0.682008
0.682088
0.682187
0.682299
0.682371
0.68242
0.682453
0.682453
0.682436
0.682376
0.682238
0.68218
0.682176
0.682162
0.682108
0.682015
0.681951
0.681885
0.681803
0.681723
0.68164
0.681535
0.681409
0.681286
0.681237
0.681257
0.681297
0.681311
0.681311
0.681279
0.681189
0.681066
0.680924
0.680701
0.680345
0.680175
0.680142
0.680131
0.680172
0.680412
0.680978
0.681701
0.681975
0.681986
0.681964
0.681855
0.681646
0.681468
0.681357
0.681316
0.681343
0.681426
0.681422
0.681413
0.681441
0.681486
0.681535
0.681541
0.681471
0.681415
0.68139
0.681412
0.681425
0.681399
0.681288
0.681209
0.681248
0.681373
0.68146
0.681445
0.681384
0.681272
0.681136
0.681091
0.681096
0.681134
0.68119
0.68121
0.681219
0.681239
0.68131
0.681751
0.684418
0.693874
0.724897
0.779916
0.851394
0.918539
0.948462
0.965919
0.992409
0.997658
0.996384
0.992373
0.993501
0.995552
0.996384
0.996103
0.681116
0.681163
0.681211
0.681293
0.681363
0.681406
0.681455
0.681518
0.681579
0.681637
0.681681
0.681727
0.681797
0.681775
0.681636
0.68158
0.681587
0.68159
0.681532
0.681375
0.681291
0.681288
0.681283
0.681241
0.681184
0.681201
0.681273
0.681375
0.681545
0.681705
0.681733
0.681736
0.681737
0.681704
0.681567
0.681216
0.680652
0.680403
0.680358
0.680323
0.680323
0.680441
0.680896
0.681649
0.681982
0.681993
0.681972
0.681852
0.681517
0.681426
0.681454
0.681404
0.68138
0.681443
0.681538
0.68153
0.681373
0.681295
0.681292
0.681253
0.681207
0.681225
0.68134
0.681559
0.681727
0.681715
0.681611
0.681486
0.681494
0.681542
0.681602
0.681609
0.681558
0.681436
0.681215
0.681017
0.680996
0.681027
0.68109
0.681158
0.681216
0.68126
0.681346
0.681415
0.681523
0.682069
0.685693
0.698721
0.738476
0.799802
0.881132
0.952363
0.984527
0.993348
0.982278
0.98599
0.992482
0.996425
0.996069
0.995377
0.680872
0.680862
0.680782
0.680709
0.68069
0.680688
0.680683
0.680681
0.680693
0.680718
0.680735
0.680746
0.680757
0.680795
0.680854
0.680883
0.680898
0.680969
0.680992
0.680977
0.680992
0.681071
0.681147
0.681195
0.681248
0.681375
0.681568
0.681756
0.682018
0.68228
0.682319
0.682321
0.682316
0.682263
0.682127
0.681864
0.681419
0.681107
0.681045
0.681027
0.681021
0.681061
0.681301
0.681819
0.682004
0.682008
0.682021
0.681961
0.681542
0.681334
0.681316
0.681246
0.681174
0.681179
0.68135
0.681499
0.681485
0.681401
0.681314
0.681176
0.68106
0.681096
0.681278
0.68159
0.681882
0.681954
0.681866
0.681737
0.681624
0.681547
0.68151
0.68152
0.681525
0.681459
0.681308
0.681154
0.681129
0.68116
0.681281
0.681344
0.681349
0.681326
0.681342
0.681395
0.681359
0.681215
0.681279
0.682221
0.687709
0.707452
0.756003
0.83037
0.897232
0.944148
0.96332
0.990551
0.996844
0.995998
0.992882
0.994652
0.6816
0.681595
0.681546
0.681388
0.6813
0.681294
0.681333
0.681343
0.681315
0.681255
0.681144
0.681068
0.681046
0.681021
0.680922
0.68083
0.680804
0.680802
0.680828
0.680926
0.681067
0.681191
0.68131
0.681515
0.681728
0.681767
0.681765
0.681777
0.681901
0.682133
0.682205
0.682225
0.682212
0.682144
0.682015
0.681761
0.681416
0.681302
0.681259
0.681281
0.681351
0.681401
0.681528
0.681838
0.682093
0.682175
0.682193
0.682103
0.681704
0.68115
0.680958
0.680911
0.68088
0.680841
0.680954
0.681394
0.681931
0.682118
0.682006
0.681687
0.681308
0.681182
0.681334
0.681601
0.681828
0.681926
0.681882
0.681825
0.681674
0.681326
0.681151
0.68114
0.681184
0.681278
0.681286
0.681264
0.681268
0.681351
0.681524
0.681581
0.681555
0.681441
0.681385
0.681258
0.68113
0.681008
0.680931
0.680947
0.681172
0.683137
0.69212
0.722645
0.78118
0.861103
0.942349
0.982295
0.993184
0.982003
0.986305
0.993803
0.68128
0.681261
0.681199
0.681118
0.681103
0.681136
0.681169
0.681157
0.681111
0.681021
0.68089
0.680851
0.68084
0.680819
0.680747
0.680663
0.68065
0.680668
0.680714
0.680855
0.681037
0.681058
0.681059
0.681147
0.681287
0.681265
0.681003
0.680573
0.680277
0.680204
0.680253
0.680357
0.680504
0.680653
0.680805
0.680925
0.680959
0.680936
0.680916
0.680989
0.681115
0.681122
0.680953
0.680829
0.681007
0.681671
0.682225
0.682296
0.682107
0.681455
0.680796
0.680611
0.680614
0.680677
0.68092
0.68149
0.682107
0.682423
0.682374
0.682165
0.68189
0.681648
0.681608
0.681653
0.681663
0.681748
0.681848
0.681839
0.681665
0.681224
0.680984
0.680981
0.68105
0.681246
0.681463
0.681522
0.681544
0.681597
0.681667
0.681699
0.681669
0.681548
0.681257
0.681079
0.681039
0.681022
0.681001
0.681072
0.681264
0.681431
0.682034
0.685722
0.70043
0.742337
0.815361
0.887681
0.940767
0.962486
0.991026
0.996632
0.679464
0.67949
0.679547
0.679612
0.679636
0.67964
0.679652
0.679661
0.679654
0.679634
0.679598
0.679563
0.679487
0.679382
0.679279
0.679167
0.679134
0.679158
0.679146
0.679065
0.679071
0.679018
0.678881
0.678885
0.678816
0.67836
0.677824
0.677601
0.677533
0.677555
0.677676
0.67798
0.678639
0.67894
0.678943
0.678945
0.678918
0.678885
0.678943
0.679194
0.679579
0.679755
0.679788
0.679865
0.680234
0.681245
0.682254
0.682571
0.682495
0.682126
0.681478
0.680847
0.680577
0.680638
0.680974
0.681585
0.68207
0.682336
0.682312
0.682134
0.682035
0.681925
0.681577
0.681161
0.68105
0.681063
0.681264
0.681481
0.681463
0.681244
0.681153
0.681196
0.681304
0.681489
0.681638
0.681681
0.681672
0.681657
0.681667
0.681634
0.681518
0.681281
0.681005
0.681011
0.68108
0.681217
0.681359
0.681432
0.681498
0.681521
0.681466
0.681573
0.682777
0.689442
0.715325
0.770921
0.852606
0.939606
0.981465
0.991901
0.675509
0.675723
0.675945
0.676187
0.676431
0.67664
0.676868
0.677236
0.677595
0.677658
0.677672
0.67768
0.677707
0.677726
0.677707
0.677708
0.677754
0.677733
0.677512
0.677377
0.677391
0.677564
0.677683
0.677608
0.677039
0.67581
0.675561
0.675598
0.675911
0.676212
0.676363
0.676675
0.677421
0.677622
0.67759
0.677438
0.67732
0.677293
0.677319
0.677527
0.677877
0.678124
0.678294
0.678507
0.679047
0.680095
0.681222
0.681878
0.681944
0.68173
0.681139
0.680313
0.679735
0.679608
0.679764
0.680104
0.680261
0.680416
0.680728
0.681072
0.681205
0.681157
0.6808
0.680355
0.680321
0.680421
0.680767
0.681264
0.681445
0.681477
0.681608
0.681716
0.681699
0.681678
0.681717
0.681736
0.681722
0.681622
0.681429
0.681237
0.681082
0.68103
0.681039
0.681137
0.681436
0.681656
0.681742
0.681718
0.681665
0.681498
0.681377
0.681331
0.681391
0.681822
0.684777
0.697498
0.737401
0.811635
0.883216
0.950452
0.676945
0.677182
0.677404
0.677617
0.677873
0.678161
0.678378
0.678588
0.678788
0.678746
0.678573
0.678512
0.678521
0.678507
0.678561
0.679107
0.679914
0.680237
0.680486
0.681014
0.681242
0.681083
0.681147
0.681449
0.681483
0.680855
0.679964
0.679889
0.680093
0.680913
0.681701
0.681888
0.681936
0.68164
0.680588
0.679499
0.678973
0.678832
0.678861
0.67908
0.679472
0.679626
0.679553
0.679086
0.678547
0.678489
0.678597
0.679094
0.679686
0.679791
0.679716
0.6794
0.678767
0.677855
0.677563
0.677609
0.677759
0.678069
0.678386
0.678637
0.678846
0.679078
0.679407
0.679613
0.679669
0.679947
0.680779
0.681394
0.681506
0.68156
0.681682
0.681752
0.681716
0.68154
0.681286
0.681187
0.681118
0.680971
0.680871
0.68076
0.680792
0.680913
0.681209
0.681623
0.681905
0.681886
0.681846
0.681791
0.681589
0.681338
0.681307
0.681326
0.68142
0.681594
0.681757
0.682755
0.688731
0.713572
0.767208
0.885787
0.688258
0.68831
0.688326
0.688044
0.687527
0.68748
0.687626
0.687571
0.686923
0.685435
0.684431
0.68405
0.683682
0.683402
0.683415
0.683613
0.683884
0.6844
0.685036
0.68522
0.684875
0.684288
0.684532
0.686053
0.687058
0.686805
0.685582
0.684382
0.684055
0.684069
0.684282
0.684501
0.684375
0.683638
0.6822
0.680653
0.679736
0.67932
0.679457
0.680135
0.68047
0.680405
0.679931
0.678445
0.677364
0.677298
0.6774
0.677618
0.677645
0.677638
0.677591
0.677385
0.677337
0.677389
0.677244
0.677104
0.677158
0.677381
0.677821
0.678016
0.678021
0.678073
0.678275
0.678877
0.679999
0.680838
0.680822
0.680579
0.680167
0.680021
0.680066
0.680059
0.67988
0.679655
0.679588
0.679645
0.67982
0.680168
0.680591
0.680771
0.681062
0.681376
0.681742
0.681924
0.681941
0.681915
0.68186
0.681651
0.681301
0.681263
0.681278
0.681429
0.68176
0.681917
0.681909
0.681803
0.681916
0.684434
0.696093
0.771312
0.706468
0.70496
0.704662
0.704638
0.70443
0.703961
0.703635
0.702697
0.700116
0.698304
0.696868
0.695725
0.694919
0.694388
0.694098
0.693743
0.693264
0.693051
0.692739
0.691828
0.691255
0.691218
0.69161
0.692491
0.692627
0.692293
0.690672
0.687761
0.685789
0.685187
0.685168
0.685291
0.685519
0.685909
0.686006
0.685437
0.684422
0.683828
0.684072
0.685009
0.685877
0.68587
0.685011
0.682559
0.681267
0.681228
0.681173
0.680913
0.68057
0.68046
0.68027
0.679495
0.679102
0.679189
0.680399
0.682297
0.682968
0.683028
0.682928
0.682119
0.68064
0.679808
0.679701
0.679912
0.6807
0.681353
0.681241
0.680527
0.679259
0.678438
0.678268
0.678153
0.678033
0.678123
0.678252
0.678398
0.678697
0.679249
0.679928
0.680781
0.68128
0.681508
0.681787
0.681778
0.681662
0.681517
0.681319
0.681133
0.681135
0.681285
0.681547
0.681937
0.682118
0.682069
0.681981
0.681654
0.681251
0.681275
0.682156
0.705456
0.737199
0.738041
0.738302
0.738027
0.737377
0.735677
0.733309
0.732538
0.732706
0.733342
0.733293
0.732104
0.729516
0.728113
0.728193
0.72925
0.729403
0.729495
0.729501
0.729037
0.728071
0.726733
0.725651
0.725737
0.726997
0.727157
0.725647
0.721625
0.716781
0.713627
0.71231
0.711906
0.711982
0.711925
0.710348
0.709117
0.709352
0.708716
0.707371
0.707587
0.707352
0.706251
0.704842
0.702884
0.702186
0.702259
0.702009
0.701248
0.699829
0.697462
0.695543
0.693038
0.689786
0.688497
0.688707
0.689571
0.689769
0.689493
0.688522
0.686736
0.684352
0.682615
0.681288
0.679841
0.679713
0.679785
0.679643
0.679178
0.678585
0.678164
0.678084
0.678048
0.678075
0.678172
0.678609
0.679285
0.680007
0.68049
0.680911
0.680866
0.680737
0.680542
0.680262
0.680043
0.680044
0.680161
0.680362
0.680671
0.6811
0.681536
0.681921
0.682119
0.682108
0.68202
0.681697
0.681326
0.681095
0.681179
0.681353
0.685389
0.781351
0.780175
0.779912
0.779693
0.779433
0.779012
0.77832
0.776706
0.77526
0.774649
0.77306
0.769857
0.769369
0.7693
0.767681
0.766235
0.765997
0.765231
0.765019
0.764911
0.763479
0.761151
0.75913
0.758037
0.757545
0.756081
0.754442
0.754641
0.754297
0.751543
0.750493
0.750681
0.750708
0.749761
0.746769
0.743066
0.742298
0.742318
0.741223
0.738156
0.734207
0.729514
0.726044
0.722267
0.719237
0.719335
0.719734
0.718312
0.716753
0.716436
0.715968
0.714733
0.711851
0.706289
0.699765
0.69727
0.696282
0.694602
0.693186
0.692906
0.69254
0.691833
0.690318
0.687005
0.68364
0.682979
0.683192
0.683452
0.682783
0.682458
0.682617
0.682558
0.682268
0.682262
0.682955
0.683385
0.683191
0.682348
0.6816
0.681182
0.680678
0.679948
0.679361
0.679339
0.679428
0.679585
0.679862
0.680236
0.681059
0.68146
0.681754
0.681796
0.681622
0.68137
0.681079
0.681064