/*--------------------------------*- C++ -*----------------------------------*\
  =========                 |
  \\      /  F ield         | OpenFOAM: The Open Source CFD Toolbox
   \\    /   O peration     | Website:  https://openfoam.org
    \\  /    A nd           | Version:  7
     \\/     M anipulation  |
\*---------------------------------------------------------------------------*/
FoamFile
{
    version     2.0;
    format      ascii;
    class       volScalarField;
    location    "6.5";
    object      rho;
}
// * * * * * * * * * * * * * * * * * * * * * * * * * * * * * * * * * * * * * //

dimensions      [1 -3 0 0 0 0 0];

internalField   nonuniform List<scalar> 
90000
(
1.04354
1.05155
1.06048
1.06925
1.07751
1.08632
1.09464
1.10269
1.11035
1.1184
1.126
1.13408
1.14197
1.15186
1.16286
1.17581
1.18927
1.20364
1.21777
1.2321
1.24581
1.25947
1.27228
1.28492
1.2965
1.30787
1.31774
1.32764
1.33574
1.34273
1.34924
1.35446
1.3567
1.35942
1.36103
1.36138
1.36109
1.35981
1.35691
1.35091
1.34277
1.33545
1.32989
1.32845
1.32956
1.33231
1.33596
1.34005
1.34355
1.34429
1.34598
1.34717
1.34685
1.34557
1.34296
1.34096
1.33871
1.33838
1.3387
1.33976
1.34197
1.34274
1.34426
1.34554
1.34561
1.34501
1.34434
1.3436
1.34363
1.34409
1.34425
1.34546
1.34677
1.34877
1.34783
1.34724
1.34628
1.34627
1.34704
1.34854
1.34972
1.34946
1.34894
1.34912
1.34972
1.35044
1.35034
1.35034
1.35054
1.35114
1.3514
1.35136
1.35136
1.35151
1.35184
1.35213
1.35244
1.35268
1.35269
1.35234
1.03855
1.03907
1.04019
1.04192
1.04399
1.04669
1.05008
1.05399
1.05829
1.06326
1.06873
1.07472
1.08113
1.08815
1.09557
1.10384
1.11272
1.12256
1.13323
1.14465
1.15702
1.16993
1.18339
1.19766
1.21177
1.22654
1.24126
1.25525
1.27002
1.28316
1.29651
1.30818
1.31987
1.32957
1.33676
1.34283
1.35113
1.35274
1.35247
1.35422
1.35956
1.36257
1.36336
1.36199
1.35893
1.35474
1.35019
1.3467
1.34525
1.34301
1.34332
1.34434
1.3461
1.34827
1.35064
1.35361
1.35428
1.35352
1.35149
1.34883
1.34613
1.34373
1.34352
1.34449
1.3476
1.3513
1.3534
1.35243
1.35045
1.34811
1.3466
1.34753
1.35048
1.35357
1.35325
1.35159
1.34885
1.34859
1.34982
1.35234
1.35333
1.35274
1.3517
1.35172
1.35231
1.35329
1.35325
1.35319
1.35322
1.35341
1.3536
1.35375
1.35375
1.35383
1.35394
1.35417
1.3544
1.3547
1.35476
1.35445
1.04014
1.04019
1.04025
1.04031
1.04036
1.04045
1.04056
1.04074
1.04098
1.04132
1.04176
1.04234
1.04324
1.04446
1.04597
1.0478
1.04997
1.05262
1.05573
1.05961
1.06411
1.06969
1.0761
1.0839
1.09275
1.10341
1.11533
1.129
1.14438
1.16114
1.17906
1.1993
1.2192
1.23955
1.26244
1.28127
1.30108
1.31891
1.33608
1.34891
1.35844
1.36276
1.36489
1.36477
1.36476
1.36389
1.36239
1.36036
1.35718
1.35338
1.35116
1.35235
1.3545
1.3576
1.36028
1.36304
1.36287
1.36167
1.35935
1.35592
1.35305
1.3499
1.35025
1.35212
1.35477
1.35789
1.35921
1.35921
1.35814
1.35574
1.35514
1.35558
1.35693
1.3581
1.35876
1.35829
1.3574
1.3564
1.35655
1.35708
1.35793
1.35814
1.3578
1.35731
1.35729
1.35766
1.35787
1.35807
1.35803
1.35807
1.35818
1.35826
1.35819
1.35807
1.358
1.35806
1.35824
1.35843
1.35844
1.35812
1.04304
1.04308
1.04308
1.04308
1.0431
1.04313
1.04316
1.0432
1.04325
1.04333
1.04343
1.0436
1.04365
1.04372
1.04381
1.0439
1.04399
1.0441
1.04426
1.04449
1.04481
1.04523
1.04578
1.04672
1.04803
1.0498
1.05213
1.05536
1.05936
1.06504
1.07193
1.08116
1.0925
1.10681
1.12279
1.14358
1.16536
1.18979
1.21664
1.24317
1.26979
1.29086
1.31255
1.32606
1.33996
1.34637
1.35306
1.35519
1.35614
1.35823
1.36316
1.36628
1.36853
1.36923
1.36899
1.36852
1.36748
1.36513
1.36378
1.36213
1.36206
1.36226
1.36273
1.36307
1.36266
1.3621
1.3618
1.36235
1.36328
1.36553
1.36631
1.36548
1.36411
1.36226
1.36272
1.36362
1.36534
1.36487
1.3638
1.36258
1.3627
1.3634
1.36409
1.36366
1.36306
1.36306
1.36349
1.36384
1.36376
1.36349
1.36336
1.36339
1.36336
1.36321
1.36297
1.36288
1.36293
1.36313
1.36309
1.36273
1.04584
1.04586
1.04588
1.04589
1.0459
1.04593
1.04595
1.04596
1.04596
1.04597
1.04598
1.04599
1.046
1.04599
1.04599
1.04599
1.04599
1.046
1.04604
1.04611
1.04621
1.04633
1.04656
1.04662
1.04668
1.04675
1.04685
1.04701
1.04721
1.0475
1.04794
1.04877
1.05005
1.05215
1.05509
1.05975
1.06599
1.07561
1.08749
1.10495
1.12484
1.15126
1.17932
1.21119
1.2431
1.27208
1.30071
1.32149
1.3427
1.35469
1.36223
1.36436
1.36704
1.36757
1.36741
1.3658
1.36228
1.36164
1.36307
1.36622
1.36972
1.37227
1.37202
1.37042
1.36777
1.36451
1.36334
1.36388
1.36568
1.36828
1.37083
1.37078
1.3696
1.36771
1.36644
1.36713
1.36859
1.36972
1.36949
1.36831
1.36716
1.36738
1.36794
1.36831
1.36796
1.36757
1.36783
1.36835
1.36834
1.36806
1.36783
1.36782
1.36774
1.36753
1.3672
1.36711
1.36708
1.36717
1.36719
1.36687
1.04773
1.04774
1.04774
1.04774
1.04775
1.04775
1.04774
1.04773
1.04773
1.04772
1.04772
1.04772
1.04772
1.04772
1.04772
1.04772
1.04771
1.04768
1.04765
1.04764
1.04764
1.04764
1.04764
1.04763
1.04759
1.04758
1.04758
1.04759
1.04763
1.04771
1.04783
1.04783
1.04786
1.04792
1.04804
1.04825
1.04859
1.04917
1.05017
1.05209
1.05525
1.0611
1.06942
1.08349
1.10102
1.12685
1.15541
1.18975
1.22562
1.25789
1.28957
1.30848
1.32896
1.33698
1.34706
1.35041
1.35607
1.36215
1.3696
1.37371
1.37518
1.37488
1.37378
1.37134
1.369
1.36741
1.36668
1.36757
1.36954
1.36979
1.37035
1.37028
1.36979
1.36999
1.37048
1.37111
1.37103
1.37106
1.37085
1.3706
1.37027
1.36995
1.36996
1.37021
1.3706
1.37047
1.37039
1.37056
1.37082
1.37076
1.37068
1.37055
1.3705
1.37036
1.37014
1.36992
1.36993
1.37002
1.37002
1.36977
1.04895
1.04894
1.04893
1.04892
1.04892
1.0489
1.04889
1.04886
1.04884
1.0488
1.04875
1.04872
1.04872
1.04872
1.04871
1.04869
1.04865
1.04861
1.04855
1.0485
1.04848
1.04846
1.04842
1.04837
1.04833
1.0483
1.04823
1.04812
1.04805
1.04801
1.04797
1.04793
1.04788
1.04785
1.04785
1.0479
1.04807
1.04815
1.04815
1.04812
1.04814
1.04825
1.0486
1.0495
1.05129
1.05524
1.06161
1.07391
1.09036
1.11705
1.14737
1.18588
1.22454
1.2607
1.29598
1.3204
1.3466
1.35703
1.36521
1.36885
1.37135
1.36937
1.3641
1.36258
1.36426
1.36867
1.37217
1.37304
1.37278
1.37094
1.36799
1.36765
1.36846
1.3706
1.37231
1.37269
1.37233
1.3716
1.37099
1.37124
1.37161
1.3714
1.37088
1.37084
1.37111
1.37185
1.3718
1.37166
1.37171
1.37189
1.37201
1.37191
1.37169
1.3716
1.37154
1.37142
1.37131
1.3714
1.37144
1.37127
1.04957
1.04956
1.04955
1.04951
1.04948
1.04947
1.04947
1.04943
1.0494
1.04939
1.04937
1.04933
1.04929
1.04926
1.04923
1.04918
1.04913
1.0491
1.04904
1.04896
1.0489
1.04885
1.04881
1.04877
1.04872
1.04868
1.04862
1.04855
1.04845
1.04834
1.04824
1.04816
1.04805
1.04795
1.04792
1.0479
1.0479
1.04788
1.04786
1.04782
1.04775
1.04773
1.04773
1.04771
1.04769
1.04766
1.04772
1.04816
1.04944
1.05289
1.05918
1.07241
1.09064
1.12103
1.15483
1.1967
1.23783
1.27151
1.30484
1.3195
1.33762
1.34324
1.35223
1.36074
1.37019
1.37593
1.37602
1.37528
1.371
1.36655
1.36607
1.36688
1.36947
1.37276
1.37291
1.37232
1.3711
1.37059
1.37092
1.37173
1.37215
1.3717
1.37124
1.37106
1.37133
1.37182
1.37219
1.37202
1.37197
1.37226
1.37248
1.37243
1.3722
1.37211
1.37216
1.37218
1.37207
1.37206
1.37201
1.37197
1.04982
1.0498
1.04978
1.04973
1.04968
1.04967
1.04967
1.04965
1.04963
1.04961
1.04959
1.04956
1.04952
1.04947
1.04941
1.04935
1.0493
1.04926
1.04921
1.04915
1.04907
1.04897
1.04889
1.04883
1.04877
1.0487
1.04862
1.04854
1.04845
1.04835
1.04824
1.04815
1.04807
1.04795
1.04783
1.04778
1.04774
1.04771
1.04772
1.04772
1.04766
1.04759
1.04753
1.0475
1.04746
1.0474
1.04736
1.04728
1.04712
1.04704
1.04711
1.04767
1.04929
1.05383
1.06207
1.07943
1.10266
1.14013
1.18094
1.22667
1.27118
1.30519
1.34111
1.35483
1.36528
1.37056
1.37132
1.36675
1.36174
1.36322
1.36706
1.3707
1.3724
1.37256
1.3717
1.36921
1.36927
1.37006
1.37155
1.37231
1.37204
1.37152
1.37139
1.3716
1.37188
1.37182
1.37187
1.37189
1.37211
1.37243
1.3726
1.37248
1.37235
1.37234
1.37247
1.37247
1.37242
1.37227
1.37214
1.37217
1.04967
1.04965
1.04961
1.0496
1.0496
1.0496
1.04959
1.04958
1.04957
1.04957
1.04956
1.04952
1.04947
1.04941
1.04934
1.04933
1.04933
1.04931
1.04925
1.04919
1.04912
1.04905
1.04898
1.04893
1.04882
1.04872
1.04866
1.0486
1.0485
1.04841
1.04833
1.04825
1.04817
1.0481
1.04802
1.04794
1.04791
1.0479
1.0479
1.04787
1.04781
1.04773
1.04768
1.04766
1.04766
1.04766
1.04767
1.04763
1.04751
1.04731
1.04707
1.04686
1.04684
1.04694
1.04737
1.0487
1.05172
1.05937
1.07232
1.09847
1.13083
1.17697
1.22367
1.26451
1.30347
1.32111
1.33983
1.3465
1.36091
1.36878
1.37465
1.3746
1.37379
1.36997
1.36659
1.3669
1.36866
1.37165
1.37232
1.3719
1.37074
1.37087
1.37158
1.37251
1.37236
1.37195
1.37157
1.37176
1.37229
1.37259
1.37255
1.37245
1.37246
1.3726
1.37272
1.37269
1.37262
1.37243
1.37224
1.37224
1.04902
1.04901
1.04901
1.04901
1.04901
1.04901
1.04901
1.049
1.049
1.049
1.04899
1.04896
1.04894
1.04893
1.04894
1.04895
1.04894
1.04888
1.04877
1.04874
1.04875
1.04877
1.04876
1.04869
1.04853
1.04846
1.04842
1.04838
1.04832
1.04827
1.04821
1.04816
1.04811
1.04806
1.048
1.04794
1.04792
1.04792
1.04791
1.0479
1.04789
1.04788
1.04789
1.04794
1.04802
1.0481
1.04818
1.04819
1.04814
1.04798
1.04775
1.04752
1.04729
1.04724
1.04728
1.04744
1.04769
1.04817
1.04924
1.05226
1.05845
1.07338
1.09589
1.13609
1.18227
1.23369
1.28446
1.32238
1.35472
1.36349
1.3713
1.37024
1.3652
1.3619
1.36439
1.36894
1.3727
1.37291
1.37201
1.36936
1.36955
1.37099
1.37289
1.37295
1.37256
1.37172
1.37149
1.37197
1.37255
1.37256
1.37237
1.37241
1.37266
1.37289
1.37288
1.37283
1.37279
1.37261
1.37237
1.37236
1.04837
1.04837
1.04837
1.04836
1.04835
1.04835
1.04836
1.04836
1.04837
1.04838
1.0484
1.04841
1.04842
1.04845
1.04849
1.04849
1.04847
1.04842
1.04842
1.04842
1.04843
1.04844
1.04844
1.04838
1.04833
1.04833
1.04833
1.04832
1.0483
1.04829
1.04828
1.04825
1.04821
1.04816
1.0481
1.04805
1.04804
1.04802
1.04802
1.04802
1.04806
1.04812
1.0482
1.04829
1.0484
1.04852
1.04863
1.04873
1.04877
1.04875
1.04866
1.04848
1.04824
1.04799
1.0479
1.04795
1.04806
1.04823
1.04848
1.04883
1.04929
1.05033
1.05285
1.0603
1.07449
1.10525
1.14541
1.19844
1.2538
1.28888
1.32866
1.33692
1.34953
1.35924
1.3719
1.37498
1.37451
1.37131
1.36739
1.36771
1.37021
1.37332
1.3737
1.37297
1.37171
1.3717
1.37221
1.37283
1.37276
1.37234
1.37229
1.37257
1.37302
1.37319
1.3731
1.37305
1.37301
1.37285
1.37259
1.3726
1.04786
1.04786
1.04786
1.04786
1.04786
1.04786
1.04788
1.0479
1.04792
1.04793
1.04795
1.04797
1.04799
1.04803
1.04805
1.04807
1.04806
1.04806
1.04807
1.0481
1.04813
1.04813
1.04811
1.04811
1.04812
1.04815
1.0482
1.04825
1.0483
1.04833
1.04833
1.04834
1.04834
1.04831
1.04826
1.0482
1.04814
1.04809
1.04806
1.04806
1.04809
1.04816
1.04825
1.04835
1.04848
1.04864
1.0488
1.04893
1.04904
1.04913
1.04921
1.04922
1.04918
1.04907
1.04893
1.04882
1.04878
1.04879
1.04884
1.04899
1.04934
1.04963
1.04972
1.04992
1.05076
1.05428
1.06254
1.0852
1.11806
1.17239
1.23122
1.28186
1.33594
1.35378
1.36727
1.37078
1.36675
1.36096
1.36389
1.36984
1.3746
1.37458
1.37341
1.37076
1.37105
1.37247
1.37359
1.37338
1.37253
1.37219
1.3725
1.37311
1.37335
1.37332
1.37335
1.3734
1.37333
1.37316
1.37297
1.37299
1.04768
1.04767
1.04767
1.04767
1.04768
1.04769
1.04772
1.04772
1.04772
1.04771
1.04771
1.04773
1.04775
1.04775
1.04776
1.04777
1.04778
1.04779
1.04781
1.04785
1.0479
1.04794
1.04797
1.048
1.04803
1.04808
1.04814
1.0482
1.04825
1.04831
1.04839
1.04846
1.04848
1.04848
1.04846
1.04837
1.04824
1.04811
1.04803
1.04801
1.04803
1.04809
1.0482
1.04834
1.0485
1.04867
1.04885
1.049
1.04911
1.04921
1.04932
1.04955
1.04975
1.04978
1.04977
1.04969
1.04947
1.04932
1.04931
1.04936
1.0496
1.04977
1.04984
1.04992
1.04986
1.04968
1.04988
1.05151
1.05664
1.07305
1.09971
1.15084
1.20829
1.26032
1.31067
1.32882
1.34475
1.35571
1.37231
1.37618
1.3757
1.37239
1.36895
1.36964
1.37264
1.37465
1.37434
1.37289
1.37227
1.37258
1.3733
1.37373
1.37358
1.37345
1.37364
1.37381
1.37366
1.37349
1.37345
1.37349
1.04775
1.04775
1.04775
1.04776
1.04776
1.04778
1.04779
1.04779
1.04778
1.04778
1.04778
1.0478
1.04781
1.04781
1.04783
1.04784
1.04785
1.04785
1.04787
1.04792
1.04796
1.04801
1.04806
1.04813
1.04822
1.04831
1.04842
1.04851
1.04861
1.0487
1.04879
1.04887
1.04895
1.04902
1.04905
1.04904
1.04899
1.0489
1.04878
1.04866
1.04854
1.04844
1.04839
1.04841
1.04849
1.04865
1.04881
1.04892
1.04901
1.04913
1.04931
1.04958
1.04991
1.05011
1.05014
1.05013
1.05
1.0497
1.04953
1.04952
1.04961
1.04987
1.05011
1.05015
1.05011
1.04998
1.04965
1.04951
1.04965
1.05079
1.05431
1.06639
1.08825
1.13655
1.1943
1.25404
1.31982
1.34873
1.36682
1.37157
1.36682
1.36191
1.36557
1.37238
1.37612
1.37513
1.37288
1.37209
1.37258
1.37394
1.37394
1.37376
1.37361
1.37385
1.37411
1.37404
1.37386
1.37392
1.37409
1.37405
1.04831
1.04828
1.04825
1.04822
1.04819
1.04816
1.04814
1.04813
1.04809
1.04805
1.04804
1.04804
1.04804
1.04805
1.0481
1.04812
1.04811
1.0481
1.04813
1.04817
1.04821
1.04826
1.04832
1.04837
1.04844
1.04853
1.04862
1.04872
1.04884
1.04895
1.04906
1.04915
1.04925
1.04936
1.04948
1.04955
1.04956
1.04956
1.04954
1.04949
1.04939
1.04926
1.0491
1.04899
1.04895
1.04892
1.04889
1.04889
1.04892
1.04902
1.0492
1.04949
1.0499
1.05023
1.05031
1.05031
1.05025
1.05
1.04968
1.04959
1.04961
1.0497
1.04988
1.05015
1.05031
1.05031
1.05017
1.04987
1.04981
1.04993
1.05023
1.05106
1.05337
1.06255
1.08146
1.12644
1.18342
1.24411
1.3012
1.32521
1.3438
1.35687
1.37486
1.37743
1.37579
1.37059
1.37077
1.37214
1.37466
1.37515
1.37442
1.37353
1.37388
1.37444
1.37444
1.3741
1.37406
1.3744
1.37469
1.37458
1.04947
1.04942
1.04936
1.0493
1.04924
1.04917
1.0491
1.04902
1.04895
1.04888
1.04883
1.04877
1.04872
1.04869
1.04867
1.04865
1.04861
1.0486
1.0486
1.0486
1.04862
1.04864
1.04866
1.04866
1.04869
1.04875
1.04884
1.04896
1.04909
1.04924
1.04938
1.0495
1.04962
1.04975
1.0499
1.05002
1.05013
1.05022
1.05026
1.05026
1.05024
1.0502
1.05011
1.04997
1.0498
1.04957
1.04932
1.04914
1.04908
1.04909
1.04918
1.04938
1.04972
1.05018
1.0504
1.05041
1.05036
1.05017
1.04983
1.04956
1.04953
1.04959
1.04971
1.04996
1.05038
1.05055
1.05053
1.05034
1.05021
1.05026
1.05042
1.0506
1.05073
1.05116
1.05283
1.06051
1.07778
1.12216
1.17973
1.24523
1.31775
1.34936
1.36985
1.37194
1.36271
1.36387
1.36914
1.37512
1.37597
1.37501
1.37306
1.37342
1.37469
1.37473
1.3744
1.37415
1.37442
1.37497
1.37509
1.37494
1.05049
1.05045
1.05042
1.05037
1.05033
1.05027
1.05019
1.05011
1.05002
1.04993
1.04984
1.04975
1.04966
1.04957
1.04949
1.04942
1.04935
1.0493
1.04926
1.04922
1.04921
1.04922
1.04923
1.04924
1.04926
1.04932
1.04938
1.04944
1.04953
1.04967
1.04981
1.04993
1.05003
1.05013
1.05023
1.05037
1.05052
1.05068
1.05082
1.05091
1.05094
1.05094
1.05093
1.05087
1.05073
1.05048
1.05012
1.04967
1.04935
1.04927
1.04928
1.04936
1.04957
1.04994
1.05031
1.05044
1.05041
1.05029
1.05011
1.04986
1.04967
1.0496
1.04962
1.04985
1.05036
1.05062
1.05059
1.05048
1.05048
1.05054
1.05059
1.05063
1.0507
1.05075
1.05081
1.05115
1.05262
1.0598
1.07688
1.12091
1.18005
1.24539
1.3045
1.32929
1.34519
1.3645
1.3769
1.37671
1.37424
1.37131
1.37244
1.37546
1.37571
1.37498
1.37387
1.37411
1.37498
1.37537
1.37523
1.37519
1.05119
1.0512
1.0512
1.0512
1.05119
1.05116
1.05112
1.05108
1.05103
1.05098
1.05093
1.05087
1.05081
1.05075
1.05066
1.05056
1.05046
1.05036
1.05027
1.05017
1.05009
1.05001
1.04994
1.04989
1.0499
1.0499
1.04988
1.04987
1.04988
1.04992
1.04998
1.05006
1.05015
1.05029
1.05046
1.05066
1.05085
1.05102
1.05116
1.05125
1.05129
1.05134
1.05137
1.05137
1.05135
1.05124
1.05096
1.05047
1.04989
1.04952
1.04944
1.04947
1.04965
1.04997
1.05033
1.05054
1.05056
1.05053
1.05051
1.05041
1.05024
1.05006
1.04997
1.05002
1.05041
1.0506
1.05054
1.05052
1.0506
1.0507
1.05068
1.05063
1.05063
1.05068
1.05086
1.05094
1.051
1.05131
1.05286
1.05998
1.07798
1.1243
1.18579
1.2579
1.32807
1.35773
1.37282
1.37001
1.36239
1.36688
1.37452
1.37671
1.3758
1.37332
1.37361
1.37498
1.37549
1.37534
1.37524
1.37546
1.05151
1.05154
1.05157
1.0516
1.05161
1.05163
1.05165
1.05166
1.05166
1.05166
1.05167
1.05166
1.05166
1.05164
1.05158
1.05151
1.05142
1.05133
1.05124
1.05116
1.05107
1.05098
1.05086
1.05075
1.05064
1.05054
1.05043
1.05035
1.0503
1.05026
1.05022
1.05022
1.05024
1.05031
1.0504
1.05047
1.05054
1.05061
1.05069
1.05081
1.05097
1.05113
1.05133
1.05148
1.05151
1.05151
1.05143
1.05113
1.05065
1.0502
1.04995
1.04992
1.04997
1.05015
1.05044
1.05074
1.05088
1.05094
1.05101
1.051
1.05091
1.05071
1.05052
1.05051
1.05061
1.05061
1.05054
1.05055
1.05065
1.0508
1.05081
1.05075
1.05072
1.05075
1.05084
1.051
1.05114
1.05118
1.05126
1.05164
1.0533
1.06075
1.08125
1.1298
1.19774
1.26487
1.31513
1.33884
1.35429
1.37604
1.37772
1.37597
1.37166
1.37239
1.37507
1.37631
1.37578
1.37492
1.37514
1.37575
1.05157
1.05162
1.05168
1.05175
1.05184
1.05194
1.05201
1.05202
1.05204
1.05204
1.05203
1.05201
1.05197
1.05194
1.05192
1.05189
1.05186
1.05182
1.05178
1.05174
1.05169
1.05159
1.05147
1.05133
1.05117
1.05096
1.05079
1.05071
1.05066
1.05061
1.05056
1.05049
1.05046
1.05045
1.05042
1.05033
1.05016
1.05011
1.05009
1.0501
1.05022
1.0505
1.05097
1.05148
1.05163
1.05163
1.05161
1.05145
1.05116
1.05086
1.05063
1.05056
1.05058
1.05067
1.05077
1.05093
1.05111
1.05124
1.05133
1.05134
1.05127
1.05114
1.05101
1.05094
1.05089
1.05084
1.0507
1.05067
1.05075
1.05095
1.05104
1.051
1.05092
1.05089
1.05091
1.05098
1.05108
1.05117
1.05122
1.05125
1.05134
1.05172
1.05378
1.06239
1.08816
1.14224
1.21161
1.29488
1.34328
1.37132
1.37123
1.36198
1.36609
1.37401
1.3771
1.37624
1.37441
1.3746
1.37555
1.376
1.05153
1.05165
1.05175
1.05184
1.05195
1.05208
1.05216
1.05221
1.05225
1.05225
1.05223
1.05216
1.05201
1.05194
1.05194
1.05192
1.05186
1.05175
1.05167
1.05159
1.0515
1.05141
1.05131
1.05119
1.05105
1.05091
1.05086
1.05088
1.05093
1.05095
1.05095
1.05093
1.05084
1.05071
1.05057
1.05033
1.04996
1.04979
1.04976
1.04975
1.04979
1.05006
1.05067
1.05144
1.05174
1.05176
1.05174
1.05163
1.05142
1.05123
1.05112
1.05108
1.05111
1.0512
1.05119
1.05118
1.05122
1.05128
1.05134
1.05134
1.05127
1.05122
1.05121
1.05124
1.05126
1.05124
1.05112
1.05104
1.05109
1.05124
1.05135
1.05134
1.05128
1.05116
1.05102
1.05098
1.051
1.05105
1.05112
1.05116
1.05118
1.05121
1.05129
1.05178
1.0547
1.065
1.0984
1.1567
1.23068
1.29917
1.32922
1.34656
1.37255
1.37767
1.37636
1.37242
1.37354
1.37556
1.37637
1.37609
1.05088
1.05093
1.05099
1.05108
1.05116
1.05121
1.05126
1.05133
1.0514
1.05146
1.0515
1.05155
1.05163
1.05161
1.05145
1.05139
1.0514
1.0514
1.05133
1.05116
1.05106
1.05106
1.05105
1.051
1.05093
1.05094
1.05102
1.05114
1.05134
1.05154
1.05159
1.0516
1.0516
1.05156
1.05141
1.05102
1.05039
1.05013
1.05009
1.05006
1.05006
1.05019
1.05068
1.0515
1.05187
1.05189
1.05187
1.05176
1.05141
1.05129
1.05132
1.05126
1.05123
1.0513
1.05141
1.0514
1.05124
1.05117
1.05118
1.05114
1.05109
1.05112
1.05125
1.0515
1.05169
1.05168
1.05157
1.05144
1.05145
1.05151
1.05158
1.05159
1.05154
1.05142
1.05118
1.05096
1.05095
1.05099
1.05106
1.05114
1.05121
1.05127
1.05136
1.05145
1.05158
1.05219
1.05616
1.07033
1.11295
1.17766
1.26141
1.33271
1.3645
1.37336
1.36247
1.36619
1.37262
1.3765
1.37613
1.37545
1.05071
1.0507
1.05061
1.05053
1.0505
1.0505
1.05049
1.05049
1.0505
1.05053
1.05055
1.05057
1.05058
1.05062
1.05069
1.05072
1.05074
1.05082
1.05084
1.05083
1.05084
1.05093
1.05101
1.05106
1.05112
1.05126
1.05147
1.05168
1.05196
1.05226
1.05233
1.05234
1.05233
1.05227
1.05212
1.05182
1.05131
1.05097
1.05092
1.05092
1.05091
1.05096
1.05122
1.05179
1.052
1.05201
1.05203
1.05196
1.0515
1.05126
1.05123
1.05115
1.05108
1.05109
1.05128
1.05146
1.05144
1.05135
1.05126
1.05111
1.051
1.05105
1.05126
1.05161
1.05194
1.05202
1.05192
1.05179
1.05167
1.05159
1.05155
1.05156
1.05157
1.0515
1.05134
1.05118
1.05115
1.05119
1.05132
1.0514
1.0514
1.05138
1.05141
1.05148
1.05144
1.0513
1.05138
1.05242
1.05842
1.07983
1.13164
1.20912
1.27772
1.32508
1.34416
1.37087
1.37698
1.37611
1.37303
1.37479
1.05157
1.05156
1.0515
1.05133
1.05124
1.05123
1.05128
1.05129
1.05126
1.0512
1.05109
1.05102
1.051
1.05098
1.05087
1.05078
1.05075
1.05075
1.05078
1.05089
1.05105
1.05118
1.05131
1.05153
1.05176
1.05182
1.05182
1.05183
1.05197
1.05223
1.05228
1.05228
1.05226
1.05218
1.05203
1.05174
1.05134
1.05123
1.05121
1.05124
1.05133
1.05139
1.05154
1.0519
1.05219
1.05229
1.0523
1.0522
1.05174
1.05111
1.0509
1.05085
1.05082
1.05079
1.05093
1.05142
1.05202
1.05222
1.05209
1.05174
1.05134
1.05121
1.05138
1.05168
1.05193
1.05204
1.05199
1.05194
1.05178
1.0514
1.05121
1.0512
1.05125
1.05136
1.05137
1.05135
1.05135
1.05145
1.05164
1.05171
1.05168
1.05156
1.0515
1.05136
1.05123
1.0511
1.05102
1.05104
1.05129
1.05345
1.06325
1.09615
1.15828
1.24112
1.32289
1.36239
1.37328
1.36227
1.36657
1.374
1.05127
1.05125
1.05118
1.0511
1.05109
1.05112
1.05117
1.05116
1.05111
1.05102
1.05088
1.05085
1.05085
1.05084
1.05078
1.0507
1.05069
1.05071
1.05076
1.05092
1.05112
1.05114
1.05114
1.05123
1.05138
1.05136
1.05108
1.0506
1.05023
1.05014
1.05018
1.05028
1.05042
1.05057
1.05074
1.05088
1.05093
1.05092
1.05092
1.05102
1.05118
1.05119
1.05101
1.05088
1.05108
1.0518
1.05239
1.05245
1.05224
1.05151
1.0508
1.05061
1.05061
1.05069
1.05096
1.05159
1.05226
1.0526
1.05254
1.05233
1.05204
1.05179
1.05174
1.05178
1.05179
1.05188
1.052
1.05199
1.05181
1.05133
1.05106
1.05106
1.05114
1.05136
1.0516
1.05167
1.0517
1.05176
1.05183
1.05187
1.05183
1.0517
1.05138
1.05119
1.05116
1.05115
1.05113
1.05121
1.05142
1.05161
1.05228
1.05632
1.07233
1.11728
1.19373
1.26813
1.32178
1.34338
1.3714
1.37683
1.04933
1.04937
1.04944
1.04952
1.04956
1.04956
1.04958
1.04959
1.04959
1.04957
1.04954
1.0495
1.04943
1.04933
1.04923
1.04912
1.04909
1.04912
1.04911
1.04902
1.04902
1.04896
1.0488
1.0488
1.04873
1.04824
1.04766
1.04732
1.0472
1.0472
1.04732
1.04765
1.04837
1.04873
1.04876
1.04878
1.04878
1.04876
1.04883
1.04913
1.04957
1.04976
1.04979
1.04987
1.05026
1.05134
1.05243
1.05277
1.05269
1.0523
1.05161
1.05094
1.05065
1.05072
1.05108
1.05173
1.05224
1.05253
1.05251
1.05233
1.05224
1.05213
1.05175
1.05128
1.05115
1.05116
1.0514
1.05164
1.05162
1.05138
1.05128
1.05133
1.05145
1.05166
1.05183
1.05188
1.05187
1.05185
1.05186
1.05182
1.05169
1.05143
1.05114
1.05115
1.05123
1.05139
1.05155
1.05164
1.05172
1.05174
1.05169
1.05181
1.05315
1.06044
1.08842
1.14763
1.23253
1.32012
1.36168
1.3721
1.045
1.04525
1.0455
1.04578
1.04606
1.0463
1.04656
1.04696
1.04736
1.04744
1.04747
1.04748
1.04752
1.04755
1.04753
1.04754
1.04759
1.04758
1.04734
1.04718
1.0472
1.04738
1.0475
1.04742
1.04681
1.04544
1.04509
1.04511
1.0454
1.0457
1.04586
1.04621
1.04705
1.04733
1.04731
1.04717
1.04706
1.04704
1.04707
1.04731
1.0477
1.04796
1.04815
1.04838
1.04896
1.05007
1.05129
1.05204
1.05213
1.05191
1.05129
1.05039
1.04976
1.04961
1.04977
1.05012
1.05028
1.05045
1.05081
1.05121
1.05137
1.05132
1.05092
1.05042
1.05038
1.05049
1.05089
1.05145
1.05165
1.05167
1.05181
1.05193
1.05191
1.05189
1.05193
1.05195
1.05194
1.05183
1.05162
1.05141
1.05124
1.0512
1.05121
1.05132
1.05165
1.0519
1.05201
1.05199
1.05193
1.05175
1.05161
1.05158
1.05165
1.05213
1.05538
1.06924
1.11212
1.18986
1.26385
1.33109
1.04668
1.04694
1.04718
1.04741
1.04768
1.04799
1.04824
1.04847
1.0487
1.04864
1.04845
1.0484
1.04842
1.04841
1.04847
1.04907
1.04996
1.05034
1.05065
1.05125
1.05148
1.05129
1.05134
1.05164
1.05166
1.05097
1.04992
1.0498
1.04999
1.05085
1.05175
1.05203
1.05211
1.05183
1.05073
1.04954
1.04894
1.04877
1.0488
1.04903
1.04947
1.04966
1.04958
1.04907
1.04842
1.04833
1.04844
1.049
1.0497
1.04984
1.04977
1.04943
1.04873
1.04772
1.04737
1.04742
1.04757
1.04791
1.04827
1.04857
1.04882
1.04907
1.04943
1.04963
1.04968
1.04999
1.05093
1.05164
1.05175
1.0518
1.05191
1.05199
1.05195
1.05176
1.05148
1.05137
1.0513
1.05114
1.05104
1.05092
1.05096
1.0511
1.05143
1.05189
1.0522
1.05219
1.05215
1.05209
1.05187
1.05159
1.05157
1.05159
1.0517
1.0519
1.05209
1.05319
1.05972
1.08657
1.14394
1.26485
1.0592
1.05925
1.05926
1.05895
1.05837
1.05832
1.05847
1.05842
1.05771
1.05604
1.05489
1.0545
1.05416
1.05392
1.05394
1.05417
1.05446
1.05504
1.05575
1.05597
1.05558
1.05493
1.05518
1.05681
1.05784
1.05755
1.05617
1.05481
1.05442
1.05444
1.05469
1.05499
1.05488
1.05415
1.05262
1.0509
1.04981
1.04931
1.04946
1.05021
1.05063
1.05057
1.05007
1.04845
1.04716
1.04705
1.04716
1.04742
1.04748
1.04749
1.04746
1.04723
1.04717
1.04723
1.04707
1.04689
1.04694
1.04718
1.04766
1.0479
1.04792
1.04798
1.0482
1.04884
1.05006
1.05101
1.051
1.05075
1.05031
1.05013
1.05017
1.05016
1.04996
1.04972
1.04964
1.0497
1.0499
1.05029
1.05077
1.05098
1.0513
1.05165
1.05206
1.05224
1.05226
1.05224
1.05218
1.05196
1.05157
1.05154
1.05156
1.05173
1.0521
1.05228
1.05228
1.05216
1.05228
1.05504
1.06777
1.14683
1.07904
1.07737
1.077
1.07695
1.07671
1.0762
1.07585
1.07483
1.07202
1.07006
1.06851
1.06726
1.06639
1.06581
1.06552
1.06515
1.06465
1.06444
1.06412
1.06314
1.06255
1.06253
1.06297
1.06391
1.06402
1.06363
1.06181
1.05855
1.05639
1.05581
1.0558
1.05596
1.05623
1.05665
1.05674
1.05609
1.05491
1.05423
1.0545
1.05556
1.05659
1.05661
1.05572
1.0531
1.05152
1.05142
1.05133
1.05103
1.05069
1.05058
1.05039
1.04955
1.04916
1.04927
1.05063
1.05271
1.05338
1.05343
1.05332
1.05244
1.05084
1.04994
1.04982
1.05004
1.05089
1.05161
1.05149
1.05072
1.04934
1.04842
1.04822
1.04809
1.04796
1.04805
1.04819
1.04835
1.04868
1.0493
1.05006
1.05101
1.05157
1.05182
1.05213
1.05212
1.05199
1.05183
1.05161
1.05141
1.05142
1.05159
1.05188
1.05232
1.05252
1.05246
1.05237
1.05201
1.05156
1.05159
1.05256
1.07774
1.11253
1.11344
1.11373
1.11343
1.11273
1.11089
1.10834
1.10754
1.10773
1.10845
1.10841
1.10715
1.10439
1.10292
1.10301
1.10418
1.10437
1.10449
1.10451
1.10403
1.10301
1.10155
1.10026
1.1003
1.10156
1.10167
1.09995
1.09549
1.09017
1.08677
1.08543
1.08504
1.08513
1.08508
1.08337
1.08206
1.08233
1.08165
1.08025
1.08052
1.08029
1.07914
1.07764
1.07555
1.07463
1.07463
1.07428
1.0734
1.07187
1.06933
1.06726
1.06453
1.06101
1.05963
1.05986
1.06078
1.06096
1.06064
1.05955
1.05758
1.05499
1.05309
1.05163
1.05001
1.04984
1.04992
1.04976
1.04926
1.04861
1.04813
1.04803
1.04799
1.04802
1.04812
1.0486
1.04935
1.05015
1.05069
1.05118
1.05113
1.05099
1.05079
1.05047
1.05023
1.05023
1.05035
1.05058
1.05092
1.0514
1.05188
1.05231
1.05253
1.05252
1.05242
1.05207
1.05166
1.0514
1.0515
1.05169
1.05612
1.15966
1.15839
1.15812
1.1579
1.15763
1.15719
1.15647
1.15476
1.15323
1.15259
1.15091
1.14751
1.14697
1.14688
1.14513
1.14357
1.14333
1.14254
1.14234
1.14223
1.14072
1.13825
1.1361
1.13493
1.13441
1.13286
1.13114
1.13137
1.13101
1.1281
1.12699
1.12718
1.1272
1.12615
1.12288
1.11886
1.11803
1.11804
1.11684
1.11351
1.10923
1.10418
1.10047
1.09641
1.09311
1.09321
1.09366
1.09216
1.09048
1.09012
1.08959
1.0882
1.08501
1.07894
1.07186
1.06915
1.06807
1.06623
1.06468
1.06438
1.06398
1.0632
1.06153
1.05786
1.05415
1.05344
1.05369
1.05398
1.05324
1.05286
1.05304
1.05298
1.05267
1.05267
1.05343
1.05391
1.0537
1.05278
1.05196
1.05151
1.05096
1.05016
1.0495
1.04947
1.04956
1.04972
1.05003
1.05045
1.05136
1.05181
1.05214
1.05219
1.052
1.05172
1.0514
1.05138
1.05151
1.05203
1.05223
1.05288
1.21914
1.21945
1.21929
1.21789
1.21619
1.21602
1.21616
1.21595
1.21386
1.211
1.2099
1.21009
1.21054
1.21042
1.20935
1.206
1.20469
1.20491
1.20438
1.20213
1.20145
1.20063
1.19868
1.19574
1.19205
1.18986
1.18829
1.18691
1.18514
1.18158
1.1776
1.17535
1.17381
1.17177
1.1683
1.16643
1.16693
1.16715
1.16495
1.1627
1.16122
1.15888
1.15595
1.15278
1.14928
1.14416
1.13869
1.13537
1.13239
1.12742
1.12525
1.1262
1.1268
1.12371
1.11664
1.11236
1.10944
1.1036
1.099
1.09797
1.0965
1.09481
1.09292
1.08915
1.08254
1.07726
1.07549
1.07519
1.07365
1.07018
1.06619
1.063
1.06004
1.05796
1.05637
1.05521
1.05383
1.05179
1.0507
1.05053
1.05041
1.04995
1.04947
1.04956
1.05017
1.05106
1.05173
1.05159
1.05135
1.05124
1.05094
1.05062
1.05049
1.05056
1.05068
1.05096
1.05165
1.05217
1.05225
1.05214
1.28429
1.28216
1.28029
1.27942
1.27942
1.28019
1.28083
1.28026
1.27745
1.27552
1.27446
1.27301
1.2712
1.27098
1.27092
1.26941
1.26661
1.2637
1.26055
1.25952
1.25989
1.25969
1.25782
1.25328
1.25099
1.25096
1.25083
1.24865
1.24693
1.24679
1.24535
1.24184
1.23864
1.23534
1.23202
1.22887
1.22614
1.22365
1.22087
1.218
1.21336
1.20629
1.20446
1.20436
1.20301
1.19875
1.19295
1.18993
1.18669
1.18238
1.17896
1.17536
1.17113
1.16381
1.15514
1.15254
1.15041
1.14579
1.14227
1.13989
1.13314
1.1244
1.11947
1.11527
1.11192
1.1079
1.10113
1.09479
1.09176
1.08866
1.08368
1.07743
1.07195
1.06832
1.06559
1.06279
1.06018
1.05834
1.05609
1.05571
1.05503
1.0551
1.05516
1.05553
1.05568
1.05532
1.05437
1.0531
1.05218
1.05115
1.05047
1.05028
1.05031
1.05053
1.05104
1.05163
1.05189
1.05199
1.05179
1.05149
1.35425
1.35328
1.35174
1.35013
1.34977
1.35006
1.3501
1.34861
1.34656
1.34582
1.34441
1.34164
1.34089
1.34095
1.34067
1.33915
1.33517
1.33356
1.33327
1.33273
1.33136
1.32881
1.32539
1.32194
1.31959
1.31856
1.31735
1.31486
1.31192
1.31007
1.30825
1.30571
1.30227
1.29886
1.29608
1.29269
1.28786
1.28496
1.28413
1.28284
1.27994
1.27566
1.27174
1.26839
1.26511
1.26045
1.25482
1.24963
1.24336
1.23907
1.23591
1.23216
1.22927
1.22523
1.21938
1.21327
1.2053
1.19687
1.194
1.19202
1.18742
1.18127
1.17411
1.16383
1.15865
1.15565
1.15251
1.14539
1.13652
1.13115
1.12768
1.1223
1.11562
1.10903
1.10377
1.09846
1.09263
1.08745
1.08175
1.07681
1.07173
1.06756
1.06349
1.06053
1.05753
1.05516
1.0534
1.05227
1.05177
1.0512
1.05072
1.05093
1.05169
1.05257
1.0524
1.052
1.05166
1.05106
1.05068
1.05079
1.42637
1.42576
1.42419
1.42268
1.42249
1.42179
1.42081
1.42069
1.41982
1.41685
1.41555
1.41473
1.41228
1.41018
1.41003
1.40966
1.40827
1.40413
1.40218
1.40193
1.40134
1.39955
1.39646
1.39327
1.38987
1.38797
1.38686
1.38536
1.38304
1.38018
1.37791
1.37574
1.3727
1.3693
1.36636
1.3636
1.35909
1.35285
1.35044
1.34874
1.34592
1.34115
1.33602
1.33135
1.32835
1.32548
1.32156
1.316
1.31085
1.30608
1.30137
1.29488
1.28845
1.2836
1.27888
1.27333
1.26749
1.26147
1.2555
1.24936
1.24045
1.2338
1.22877
1.22214
1.21575
1.20653
1.19788
1.19113
1.18481
1.17717
1.16925
1.16167
1.15412
1.14575
1.13726
1.12919
1.12163
1.11393
1.10626
1.09853
1.09167
1.08461
1.07808
1.07232
1.06682
1.06294
1.06008
1.05858
1.0567
1.05704
1.05702
1.05718
1.05689
1.05617
1.05478
1.05327
1.05153
1.0508
1.05059
1.05087
1.50434
1.50151
1.49831
1.49777
1.49821
1.49882
1.49865
1.49752
1.49558
1.49193
1.49014
1.49027
1.48999
1.48842
1.48446