/*--------------------------------*- C++ -*----------------------------------*\
  =========                 |
  \\      /  F ield         | OpenFOAM: The Open Source CFD Toolbox
   \\    /   O peration     | Website:  https://openfoam.org
    \\  /    A nd           | Version:  7
     \\/     M anipulation  |
\*---------------------------------------------------------------------------*/
FoamFile
{
    version     2.0;
    format      ascii;
    class       volVectorField;
    location    "3.5";
    object      U;
}
// * * * * * * * * * * * * * * * * * * * * * * * * * * * * * * * * * * * * * //

dimensions      [0 1 -1 0 0 0 0];

internalField   nonuniform List<vector> 
24000
(
(3.12508 -0.556888 0)
(3.10625 -0.504235 0)
(3.09096 -0.460023 0)
(3.07548 -0.406091 0)
(3.0646 -0.365628 0)
(3.05292 -0.31689 0)
(3.04451 -0.278237 0)
(3.03624 -0.238577 0)
(3.02804 -0.197459 0)
(3.02404 -0.171872 0)
(3.01514 -0.126124 0)
(3.01547 -0.116727 0)
(3.0064 -0.0731435 0)
(3.00669 -0.0715743 0)
(3.0001 -0.0428956 0)
(2.99811 -0.0364368 0)
(2.99748 -0.0311979 0)
(2.99525 -0.0159387 0)
(2.99544 -0.018842 0)
(2.99461 -0.0127745 0)
(2.99452 -0.0120194 0)
(2.99493 -0.00827227 0)
(2.99543 -0.00597041 0)
(2.99478 -0.00204267 0)
(2.99171 0.00574831 0)
(2.99142 0.00894242 0)
(2.99008 0.00770561 0)
(2.98834 0.00346097 0)
(2.98811 -0.00269935 0)
(2.98955 -0.00573499 0)
(2.9924 -0.0102483 0)
(2.99411 -0.00998177 0)
(2.99678 -0.00754193 0)
(2.99973 -0.00758257 0)
(2.99951 -0.00928712 0)
(2.99873 -0.0113507 0)
(2.99755 -0.0134952 0)
(2.99868 -0.0138096 0)
(2.99963 -0.0133129 0)
(3.00196 -0.0142055 0)
(3.0038 -0.0177161 0)
(3.00458 -0.0202286 0)
(3.00526 -0.0199194 0)
(3.00706 -0.0204778 0)
(3.00803 -0.0218252 0)
(3.00886 -0.0234216 0)
(3.01058 -0.0235795 0)
(3.01295 -0.0251561 0)
(3.0142 -0.0260088 0)
(3.01664 -0.0289535 0)
(3.13897 -0.593329 0)
(3.13868 -0.59311 0)
(3.13808 -0.592462 0)
(3.13711 -0.591212 0)
(3.13562 -0.588589 0)
(3.13343 -0.584646 0)
(3.13009 -0.576995 0)
(3.12565 -0.567333 0)
(3.119 -0.549103 0)
(3.11177 -0.530598 0)
(3.10076 -0.494314 0)
(3.09185 -0.466565 0)
(3.07604 -0.409037 0)
(3.06711 -0.373973 0)
(3.04862 -0.302551 0)
(3.03999 -0.260621 0)
(3.0246 -0.195645 0)
(3.01406 -0.146543 0)
(3.0057 -0.101386 0)
(2.99744 -0.0636 0)
(2.98819 -0.0209645 0)
(2.98579 -0.00763089 0)
(2.98288 0.0130657 0)
(2.97902 0.0331631 0)
(2.9779 0.0321583 0)
(2.97919 0.0192357 0)
(2.98085 0.00554762 0)
(2.9849 0.00125347 0)
(2.9866 -0.00653643 0)
(2.98761 -0.0077168 0)
(2.99024 -0.00749152 0)
(2.99303 -0.00390035 0)
(2.99358 -0.00171708 0)
(2.99497 -0.00663203 0)
(2.99387 -0.0113387 0)
(2.99296 -0.0154554 0)
(2.99273 -0.0152365 0)
(2.99355 -0.0124803 0)
(2.99424 -0.0116686 0)
(2.99712 -0.0148716 0)
(2.9991 -0.0199482 0)
(2.99975 -0.0210343 0)
(3.00121 -0.0186255 0)
(3.00348 -0.0200902 0)
(3.00413 -0.0226688 0)
(3.00482 -0.0238675 0)
(3.0068 -0.0231266 0)
(3.00936 -0.025015 0)
(3.01071 -0.025905 0)
(3.01305 -0.0289387 0)
(3.13389 -0.592531 0)
(3.13369 -0.592444 0)
(3.13349 -0.592399 0)
(3.13329 -0.59229 0)
(3.13309 -0.592169 0)
(3.13288 -0.592069 0)
(3.13264 -0.59198 0)
(3.13234 -0.591835 0)
(3.13195 -0.59165 0)
(3.13141 -0.591221 0)
(3.13043 -0.590553 0)
(3.12922 -0.589128 0)
(3.1275 -0.586662 0)
(3.12515 -0.581725 0)
(3.12122 -0.5724 0)
(3.11592 -0.55785 0)
(3.10684 -0.529158 0)
(3.0968 -0.498432 0)
(3.0801 -0.433761 0)
(3.06793 -0.388451 0)
(3.04568 -0.295623 0)
(3.0369 -0.248755 0)
(3.01548 -0.156709 0)
(3.0125 -0.129645 0)
(3.00074 -0.0785548 0)
(3.00617 -0.0621245 0)
(2.99318 -0.0327977 0)
(2.99116 -0.0249207 0)
(2.99165 -0.0150907 0)
(2.99082 -0.00599887 0)
(2.98864 0.00343661 0)
(2.98913 0.00579502 0)
(2.98758 0.00159342 0)
(2.9856 -0.00796915 0)
(2.98408 -0.0191366 0)
(2.98504 -0.0186061 0)
(2.98738 -0.0142193 0)
(2.98983 -0.00895577 0)
(2.99107 -0.0107309 0)
(2.99202 -0.0177048 0)
(2.99212 -0.0217737 0)
(2.99417 -0.0194513 0)
(2.99815 -0.0177561 0)
(2.99893 -0.020829 0)
(2.99937 -0.0247773 0)
(3.00064 -0.0240464 0)
(3.00236 -0.0225756 0)
(3.00446 -0.0248592 0)
(3.00572 -0.0257472 0)
(3.0081 -0.0288753 0)
(3.12705 -0.591085 0)
(3.1269 -0.59103 0)
(3.12677 -0.591008 0)
(3.12662 -0.590979 0)
(3.12646 -0.590953 0)
(3.1263 -0.590949 0)
(3.12614 -0.590947 0)
(3.12597 -0.590948 0)
(3.1258 -0.590941 0)
(3.12554 -0.590968 0)
(3.12542 -0.590935 0)
(3.12534 -0.590903 0)
(3.12521 -0.590884 0)
(3.12503 -0.590902 0)
(3.12485 -0.590911 0)
(3.12462 -0.590917 0)
(3.1243 -0.590695 0)
(3.12368 -0.58989 0)
(3.12242 -0.587598 0)
(3.12019 -0.582125 0)
(3.11493 -0.566496 0)
(3.10758 -0.542129 0)
(3.09071 -0.481816 0)
(3.07805 -0.427236 0)
(3.045 -0.295005 0)
(3.04446 -0.240257 0)
(3.00949 -0.100606 0)
(3.01452 -0.0791812 0)
(2.99148 -0.00400232 0)
(2.98388 0.0107923 0)
(2.98594 0.0281996 0)
(2.98248 0.0108874 0)
(2.98125 -0.00234932 0)
(2.98175 -0.0117249 0)
(2.98217 -0.0139601 0)
(2.9837 -0.0114333 0)
(2.98633 -0.00549336 0)
(2.98714 -0.00896765 0)
(2.98572 -0.0133413 0)
(2.98649 -0.0194041 0)
(2.98839 -0.0188717 0)
(2.99065 -0.0152002 0)
(2.99411 -0.0187208 0)
(2.99392 -0.0224228 0)
(2.99417 -0.0241886 0)
(2.99598 -0.0227301 0)
(2.99717 -0.022528 0)
(2.99912 -0.0249952 0)
(3.00056 -0.0254808 0)
(3.00343 -0.0286941 0)
(3.12337 -0.58959 0)
(3.12333 -0.589607 0)
(3.1233 -0.589644 0)
(3.12326 -0.589628 0)
(3.12323 -0.589598 0)
(3.12321 -0.58961 0)
(3.12314 -0.589693 0)
(3.1231 -0.589783 0)
(3.12307 -0.589766 0)
(3.123 -0.589766 0)
(3.12297 -0.589913 0)
(3.12302 -0.589988 0)
(3.12308 -0.589976 0)
(3.12304 -0.590071 0)
(3.12297 -0.590207 0)
(3.12284 -0.590524 0)
(3.12274 -0.591018 0)
(3.12282 -0.591214 0)
(3.12288 -0.591733 0)
(3.12295 -0.592457 0)
(3.12316 -0.592901 0)
(3.12338 -0.592723 0)
(3.12338 -0.591177 0)
(3.12249 -0.586034 0)
(3.11812 -0.57135 0)
(3.10965 -0.537915 0)
(3.08999 -0.465086 0)
(3.07405 -0.383893 0)
(3.04388 -0.247674 0)
(3.03583 -0.192718 0)
(3.01424 -0.0971021 0)
(3.02104 -0.082121 0)
(3.00037 -0.0426137 0)
(2.99686 -0.0259862 0)
(2.99556 -0.0144812 0)
(2.98819 0.00173514 0)
(2.98427 -0.00262386 0)
(2.98119 -0.0102828 0)
(2.98052 -0.0227801 0)
(2.98303 -0.022199 0)
(2.98854 -0.0156379 0)
(2.99056 -0.0145218 0)
(2.99029 -0.0193184 0)
(2.98966 -0.0260908 0)
(2.99127 -0.0241502 0)
(2.99335 -0.021273 0)
(2.99478 -0.0231078 0)
(2.99616 -0.0254126 0)
(2.99756 -0.0257569 0)
(3.00107 -0.0289651 0)
(3.12356 -0.589143 0)
(3.12357 -0.589141 0)
(3.12357 -0.58914 0)
(3.12357 -0.589137 0)
(3.12357 -0.589129 0)
(3.12358 -0.589103 0)
(3.12356 -0.589192 0)
(3.12358 -0.589318 0)
(3.12363 -0.589325 0)
(3.12363 -0.589379 0)
(3.12363 -0.589538 0)
(3.12367 -0.58952 0)
(3.1237 -0.589588 0)
(3.12377 -0.589688 0)
(3.12392 -0.589669 0)
(3.12393 -0.589981 0)
(3.12392 -0.590541 0)
(3.12385 -0.590538 0)
(3.1238 -0.590553 0)
(3.1238 -0.591357 0)
(3.12418 -0.592467 0)
(3.12489 -0.593102 0)
(3.12587 -0.593262 0)
(3.1266 -0.593149 0)
(3.12713 -0.592627 0)
(3.12764 -0.591757 0)
(3.12743 -0.588446 0)
(3.12507 -0.578577 0)
(3.11514 -0.542895 0)
(3.10215 -0.486453 0)
(3.06438 -0.340777 0)
(3.06343 -0.262943 0)
(3.0198 -0.0824176 0)
(3.02414 -0.0645833 0)
(3.00534 0.0147425 0)
(2.99214 0.0118288 0)
(2.98393 -0.00517556 0)
(2.98121 -0.0163451 0)
(2.98172 -0.0195862 0)
(2.98528 -0.0157459 0)
(2.98872 -0.0116708 0)
(2.98813 -0.015936 0)
(2.98784 -0.0228075 0)
(2.9885 -0.0244777 0)
(2.99183 -0.020915 0)
(2.99371 -0.021421 0)
(2.99485 -0.0235963 0)
(2.99639 -0.0245039 0)
(2.99769 -0.0251221 0)
(3.00085 -0.0290646 0)
(3.1248 -0.59059 0)
(3.12479 -0.590614 0)
(3.12475 -0.590657 0)
(3.12467 -0.590609 0)
(3.1246 -0.590551 0)
(3.12458 -0.590553 0)
(3.12459 -0.590548 0)
(3.1246 -0.590612 0)
(3.1247 -0.590698 0)
(3.12478 -0.59072 0)
(3.12487 -0.590706 0)
(3.12497 -0.59067 0)
(3.12508 -0.590736 0)
(3.12521 -0.590769 0)
(3.12533 -0.590632 0)
(3.1254 -0.590591 0)
(3.12508 -0.591034 0)
(3.12499 -0.591025 0)
(3.12505 -0.59087 0)
(3.125 -0.591424 0)
(3.12542 -0.592241 0)
(3.12616 -0.592674 0)
(3.12721 -0.592956 0)
(3.12791 -0.593059 0)
(3.12869 -0.593042 0)
(3.12955 -0.593018 0)
(3.13016 -0.592234 0)
(3.13013 -0.592014 0)
(3.12993 -0.59001 0)
(3.12936 -0.587074 0)
(3.12489 -0.575773 0)
(3.11526 -0.540344 0)
(3.09097 -0.446612 0)
(3.07572 -0.346098 0)
(3.03855 -0.163148 0)
(3.04542 -0.145345 0)
(3.01536 -0.075458 0)
(3.00515 -0.0406441 0)
(3.0023 -0.0229858 0)
(2.98971 -0.0030482 0)
(2.98681 -0.00785679 0)
(2.98426 -0.0197604 0)
(2.98621 -0.0301398 0)
(2.98965 -0.0246618 0)
(2.99446 -0.0190618 0)
(2.99514 -0.0214313 0)
(2.99633 -0.025963 0)
(2.99829 -0.0250998 0)
(2.99984 -0.0254254 0)
(3.00167 -0.0294063 0)
(3.12677 -0.592776 0)
(3.12681 -0.592724 0)
(3.12682 -0.592642 0)
(3.12679 -0.592658 0)
(3.12672 -0.592715 0)
(3.12672 -0.592571 0)
(3.12679 -0.592384 0)
(3.12683 -0.592295 0)
(3.12686 -0.592233 0)
(3.12693 -0.592187 0)
(3.12703 -0.592192 0)
(3.12736 -0.591955 0)
(3.1275 -0.591662 0)
(3.12739 -0.591463 0)
(3.12722 -0.591104 0)
(3.12707 -0.59083 0)
(3.12698 -0.590764 0)
(3.127 -0.590532 0)
(3.12693 -0.590377 0)
(3.12689 -0.590495 0)
(3.12716 -0.591 0)
(3.12764 -0.591308 0)
(3.1284 -0.591483 0)
(3.12931 -0.591811 0)
(3.12999 -0.592413 0)
(3.13061 -0.593131 0)
(3.13136 -0.593141 0)
(3.13185 -0.592504 0)
(3.13176 -0.591725 0)
(3.1315 -0.591165 0)
(3.13005 -0.591489 0)
(3.12849 -0.591088 0)
(3.12653 -0.587014 0)
(3.12112 -0.567501 0)
(3.09936 -0.486354 0)
(3.08973 -0.376862 0)
(3.03966 -0.148828 0)
(3.04532 -0.102412 0)
(3.0175 0.0235653 0)
(2.99607 0.0149114 0)
(2.98701 -0.0125295 0)
(2.98685 -0.0243763 0)
(2.98939 -0.0268563 0)
(2.99847 -0.0118242 0)
(2.99872 -0.0172211 0)
(2.9976 -0.0234807 0)
(2.99778 -0.0258808 0)
(2.99972 -0.0232914 0)
(3.00226 -0.0265489 0)
(3.00275 -0.0294407 0)
(3.1289 -0.593989 0)
(3.129 -0.59387 0)
(3.12904 -0.593646 0)
(3.12906 -0.593707 0)
(3.12904 -0.593918 0)
(3.12926 -0.593724 0)
(3.12937 -0.593072 0)
(3.12913 -0.592743 0)
(3.12891 -0.592692 0)
(3.12883 -0.592794 0)
(3.12897 -0.592658 0)
(3.12925 -0.592224 0)
(3.12929 -0.592059 0)
(3.12926 -0.591741 0)
(3.12934 -0.591036 0)
(3.12924 -0.590534 0)
(3.12904 -0.590314 0)
(3.12884 -0.589824 0)
(3.12855 -0.589103 0)
(3.12814 -0.588793 0)
(3.12815 -0.588887 0)
(3.12846 -0.589031 0)
(3.12881 -0.589281 0)
(3.12968 -0.589689 0)
(3.13044 -0.590801 0)
(3.13086 -0.592531 0)
(3.13151 -0.593629 0)
(3.13177 -0.593246 0)
(3.1315 -0.592649 0)
(3.13126 -0.59243 0)
(3.13056 -0.592748 0)
(3.12938 -0.593547 0)
(3.12824 -0.593107 0)
(3.12848 -0.591714 0)
(3.12819 -0.588934 0)
(3.12533 -0.573159 0)
(3.11154 -0.515435 0)
(3.09038 -0.393233 0)
(3.05469 -0.207063 0)
(3.05145 -0.155389 0)
(3.03018 -0.0819404 0)
(3.01221 -0.037252 0)
(3.00833 -0.0179765 0)
(3.00355 -0.010167 0)
(2.99719 -0.0194276 0)
(2.99587 -0.0311407 0)
(2.99883 -0.0269296 0)
(3.00253 -0.0221711 0)
(3.00417 -0.0259539 0)
(3.00353 -0.0311249 0)
(3.12992 -0.595144 0)
(3.12992 -0.595032 0)
(3.13 -0.595213 0)
(3.1301 -0.595656 0)
(3.13009 -0.596124 0)
(3.13057 -0.595918 0)
(3.13068 -0.595187 0)
(3.13032 -0.594639 0)
(3.1302 -0.593981 0)
(3.13037 -0.593766 0)
(3.13055 -0.593843 0)
(3.13097 -0.593278 0)
(3.13119 -0.59235 0)
(3.13107 -0.591627 0)
(3.13091 -0.590994 0)
(3.13071 -0.590295 0)
(3.1304 -0.589586 0)
(3.12991 -0.589021 0)
(3.12927 -0.588452 0)
(3.12857 -0.588021 0)
(3.12805 -0.588075 0)
(3.12821 -0.588631 0)
(3.12851 -0.589195 0)
(3.1292 -0.589725 0)
(3.13003 -0.591043 0)
(3.13029 -0.593438 0)
(3.13071 -0.594812 0)
(3.13064 -0.593979 0)
(3.13012 -0.592871 0)
(3.13015 -0.592759 0)
(3.13038 -0.593049 0)
(3.1304 -0.594011 0)
(3.12967 -0.594103 0)
(3.12905 -0.592314 0)
(3.12988 -0.590445 0)
(3.1302 -0.590303 0)
(3.13034 -0.588935 0)
(3.12766 -0.577797 0)
(3.10976 -0.512211 0)
(3.08957 -0.372955 0)
(3.048 -0.147061 0)
(3.04279 -0.0755676 0)
(3.02502 0.021662 0)
(3 -0.00253685 0)
(2.99598 -0.0241476 0)
(2.99768 -0.0281808 0)
(3.00532 -0.015561 0)
(3.00498 -0.0214068 0)
(3.00431 -0.0286785 0)
(3.00406 -0.0305466 0)
(3.13105 -0.594045 0)
(3.13108 -0.593949 0)
(3.13119 -0.594135 0)
(3.1314 -0.594701 0)
(3.13131 -0.595324 0)
(3.13176 -0.595163 0)
(3.13185 -0.594412 0)
(3.13173 -0.594404 0)
(3.13195 -0.59436 0)
(3.13251 -0.594138 0)
(3.13272 -0.59372 0)
(3.13291 -0.593296 0)
(3.13279 -0.592698 0)
(3.13252 -0.592379 0)
(3.13261 -0.59136 0)
(3.13226 -0.589911 0)
(3.13143 -0.589073 0)
(3.1305 -0.588646 0)
(3.12944 -0.588092 0)
(3.12837 -0.587428 0)
(3.12747 -0.587365 0)
(3.12755 -0.588178 0)
(3.12797 -0.58908 0)
(3.12884 -0.589906 0)
(3.12988 -0.591689 0)
(3.13021 -0.594235 0)
(3.13006 -0.595198 0)
(3.12922 -0.593525 0)
(3.12929 -0.592536 0)
(3.12953 -0.59256 0)
(3.13045 -0.593181 0)
(3.13182 -0.594228 0)
(3.13215 -0.59334 0)
(3.13111 -0.591909 0)
(3.13005 -0.590532 0)
(3.13081 -0.590427 0)
(3.13104 -0.59068 0)
(3.1313 -0.592503 0)
(3.13087 -0.592195 0)
(3.12669 -0.574612 0)
(3.11318 -0.514458 0)
(3.07778 -0.337255 0)
(3.06401 -0.197655 0)
(3.04287 -0.113523 0)
(3.02265 -0.05122 0)
(3.01779 -0.0263014 0)
(3.00578 -0.0129321 0)
(2.99976 -0.0240411 0)
(2.99939 -0.0346494 0)
(3.00351 -0.0305448 0)
(3.13182 -0.592431 0)
(3.13218 -0.592688 0)
(3.13242 -0.592964 0)
(3.13258 -0.593131 0)
(3.13272 -0.593293 0)
(3.1328 -0.593325 0)
(3.13289 -0.593332 0)
(3.13324 -0.593564 0)
(3.13397 -0.594224 0)
(3.13414 -0.594773 0)
(3.13405 -0.594925 0)
(3.13384 -0.594772 0)
(3.13308 -0.594038 0)
(3.13261 -0.593041 0)
(3.1322 -0.592228 0)
(3.13156 -0.591228 0)
(3.1303 -0.590809 0)
(3.12953 -0.590735 0)
(3.12891 -0.590635 0)
(3.12767 -0.590074 0)
(3.12647 -0.589728 0)
(3.12662 -0.590973 0)
(3.12784 -0.591824 0)
(3.12918 -0.592694 0)
(3.1302 -0.594591 0)
(3.13101 -0.595097 0)
(3.1301 -0.593785 0)
(3.12879 -0.591041 0)
(3.12837 -0.59037 0)
(3.1289 -0.591582 0)
(3.13013 -0.592806 0)
(3.13317 -0.593786 0)
(3.13389 -0.592878 0)
(3.13304 -0.591114 0)
(3.13155 -0.590652 0)
(3.13096 -0.591054 0)
(3.13094 -0.5913 0)
(3.13065 -0.592845 0)
(3.13088 -0.594476 0)
(3.13106 -0.594461 0)
(3.13033 -0.59113 0)
(3.12438 -0.566117 0)
(3.10718 -0.475702 0)
(3.06069 -0.225117 0)
(3.05842 -0.129382 0)
(3.03122 0.02368 0)
(2.9999 -0.00478601 0)
(2.99619 -0.0290987 0)
(2.99932 -0.0323646 0)
(3.00846 -0.023546 0)
(3.13241 -0.591441 0)
(3.1325 -0.591576 0)
(3.13289 -0.591833 0)
(3.13312 -0.59223 0)
(3.13321 -0.592411 0)
(3.1335 -0.592894 0)
(3.13392 -0.593322 0)
(3.13428 -0.593995 0)
(3.13441 -0.594708 0)
(3.13437 -0.59491 0)
(3.13382 -0.59536 0)
(3.13285 -0.595917 0)
(3.13154 -0.5958 0)
(3.13013 -0.594607 0)
(3.12941 -0.592979 0)
(3.12928 -0.592074 0)
(3.1291 -0.592191 0)
(3.12868 -0.592625 0)
(3.12868 -0.592588 0)
(3.12885 -0.592356 0)
(3.12909 -0.591887 0)
(3.12974 -0.592159 0)
(3.13052 -0.5932 0)
(3.13129 -0.593958 0)
(3.1321 -0.594807 0)
(3.13239 -0.593973 0)
(3.13174 -0.591472 0)
(3.12985 -0.5883 0)
(3.12893 -0.587372 0)
(3.1291 -0.588175 0)
(3.13077 -0.591127 0)
(3.13362 -0.593246 0)
(3.13457 -0.591824 0)
(3.13345 -0.590734 0)
(3.13277 -0.591145 0)
(3.13143 -0.592222 0)
(3.13058 -0.592448 0)
(3.12959 -0.592693 0)
(3.13002 -0.594082 0)
(3.13062 -0.594314 0)
(3.13054 -0.594448 0)
(3.13084 -0.590762 0)
(3.12963 -0.583394 0)
(3.12079 -0.547809 0)
(3.09203 -0.399807 0)
(3.06588 -0.223426 0)
(3.05175 -0.138683 0)
(3.02453 -0.0572175 0)
(3.01828 -0.0284823 0)
(3.00753 -0.0221134 0)
(3.12987 -0.596769 0)
(3.13002 -0.59727 0)
(3.13025 -0.597723 0)
(3.13049 -0.597943 0)
(3.13084 -0.597566 0)
(3.13133 -0.596953 0)
(3.13141 -0.596529 0)
(3.1317 -0.595255 0)
(3.13199 -0.594627 0)
(3.13166 -0.595364 0)
(3.13148 -0.59633 0)
(3.13066 -0.595277 0)
(3.12923 -0.593592 0)
(3.12814 -0.593038 0)
(3.12802 -0.593337 0)
(3.12847 -0.59397 0)
(3.12939 -0.594679 0)
(3.13035 -0.595857 0)
(3.13122 -0.596363 0)
(3.13143 -0.596109 0)
(3.1315 -0.595719 0)
(3.13179 -0.595454 0)
(3.13249 -0.59689 0)
(3.13301 -0.598476 0)
(3.13429 -0.597591 0)
(3.13494 -0.594312 0)
(3.13357 -0.590689 0)
(3.13118 -0.587784 0)
(3.1301 -0.587687 0)
(3.12998 -0.588806 0)
(3.13114 -0.592319 0)
(3.13304 -0.593325 0)
(3.13393 -0.591836 0)
(3.13288 -0.592193 0)
(3.13166 -0.593973 0)
(3.13085 -0.594894 0)
(3.12949 -0.594592 0)
(3.12827 -0.593617 0)
(3.12826 -0.593117 0)
(3.12884 -0.592681 0)
(3.12965 -0.591977 0)
(3.13022 -0.589959 0)
(3.12985 -0.588881 0)
(3.12944 -0.587955 0)
(3.12562 -0.577814 0)
(3.10806 -0.504533 0)
(3.06812 -0.269806 0)
(3.05717 -0.135024 0)
(3.02995 0.0169186 0)
(2.99685 -0.0194823 0)
(3.12694 -0.601476 0)
(3.12695 -0.60139 0)
(3.127 -0.601155 0)
(3.12704 -0.600569 0)
(3.12671 -0.600555 0)
(3.12782 -0.599657 0)
(3.12885 -0.597702 0)
(3.12845 -0.59516 0)
(3.12789 -0.593404 0)
(3.12767 -0.593093 0)
(3.12779 -0.592154 0)
(3.12776 -0.590638 0)
(3.12749 -0.589666 0)
(3.12742 -0.58943 0)
(3.12798 -0.589614 0)
(3.13027 -0.590918 0)
(3.13297 -0.592495 0)
(3.13441 -0.595142 0)
(3.13758 -0.597714 0)
(3.13927 -0.597448 0)
(3.13697 -0.595721 0)
(3.13621 -0.595206 0)
(3.13523 -0.595687 0)
(3.13376 -0.597392 0)
(3.13457 -0.596524 0)
(3.13513 -0.593366 0)
(3.13393 -0.590948 0)
(3.13229 -0.590032 0)
(3.13084 -0.590613 0)
(3.1302 -0.591542 0)
(3.1301 -0.593474 0)
(3.13053 -0.59383 0)
(3.13049 -0.593159 0)
(3.12988 -0.594732 0)
(3.12902 -0.597446 0)
(3.12865 -0.597572 0)
(3.12818 -0.596552 0)
(3.12666 -0.594041 0)
(3.12626 -0.591234 0)
(3.12744 -0.590046 0)
(3.1284 -0.58971 0)
(3.12934 -0.589104 0)
(3.12884 -0.589276 0)
(3.12893 -0.58936 0)
(3.128 -0.592871 0)
(3.12632 -0.590308 0)
(3.12081 -0.560582 0)
(3.09043 -0.400284 0)
(3.08602 -0.256835 0)
(3.03446 -0.101117 0)
(3.12927 -0.600851 0)
(3.1295 -0.600732 0)
(3.12927 -0.598752 0)
(3.12878 -0.597417 0)
(3.12843 -0.596684 0)
(3.12985 -0.593509 0)
(3.12877 -0.590205 0)
(3.12669 -0.586828 0)
(3.12664 -0.583884 0)
(3.12641 -0.58289 0)
(3.1264 -0.582366 0)
(3.1265 -0.581702 0)
(3.12649 -0.581694 0)
(3.12676 -0.583071 0)
(3.12698 -0.58459 0)
(3.12897 -0.587433 0)
(3.13449 -0.593066 0)
(3.13635 -0.597482 0)
(3.13973 -0.600667 0)
(3.14135 -0.598584 0)
(3.13707 -0.594848 0)
(3.13521 -0.594146 0)
(3.13376 -0.594353 0)
(3.13214 -0.595146 0)
(3.13117 -0.594583 0)
(3.13077 -0.591427 0)
(3.13052 -0.589962 0)
(3.13304 -0.592301 0)
(3.13192 -0.59651 0)
(3.12965 -0.598058 0)
(3.12594 -0.596648 0)
(3.12417 -0.594517 0)
(3.12488 -0.594018 0)
(3.12439 -0.595963 0)
(3.12491 -0.598377 0)
(3.1259 -0.598703 0)
(3.12632 -0.597642 0)
(3.1264 -0.595195 0)
(3.1259 -0.592126 0)
(3.1271 -0.590811 0)
(3.12781 -0.590957 0)
(3.12841 -0.591139 0)
(3.12822 -0.59174 0)
(3.12614 -0.593768 0)
(3.12593 -0.596159 0)
(3.12724 -0.596185 0)
(3.13026 -0.591461 0)
(3.12789 -0.577906 0)
(3.11643 -0.503845 0)
(3.0546 -0.183569 0)
(3.12717 -0.560782 0)
(3.12738 -0.561082 0)
(3.12761 -0.560871 0)
(3.12876 -0.560994 0)
(3.12967 -0.560647 0)
(3.13035 -0.559904 0)
(3.13084 -0.558571 0)
(3.13032 -0.557445 0)
(3.12989 -0.557304 0)
(3.12894 -0.556409 0)
(3.12735 -0.55371 0)
(3.12383 -0.55213 0)
(3.11787 -0.554224 0)
(3.11558 -0.558668 0)
(3.11595 -0.563242 0)
(3.1153 -0.567277 0)
(3.11967 -0.576294 0)
(3.1211 -0.579106 0)
(3.12169 -0.578661 0)
(3.11935 -0.575433 0)
(3.11711 -0.574152 0)
(3.11643 -0.574414 0)
(3.11537 -0.577217 0)
(3.11612 -0.581918 0)
(3.11633 -0.583438 0)
(3.11675 -0.582407 0)
(3.12214 -0.585556 0)
(3.12686 -0.588622 0)
(3.12935 -0.591521 0)
(3.12913 -0.593112 0)
(3.12591 -0.590693 0)
(3.11986 -0.587642 0)
(3.11666 -0.58825 0)
(3.12007 -0.589346 0)
(3.12265 -0.589308 0)
(3.12741 -0.588691 0)
(3.12923 -0.588646 0)
(3.1292 -0.587691 0)
(3.12731 -0.586283 0)
(3.12647 -0.586294 0)
(3.12615 -0.586916 0)
(3.12541 -0.590446 0)
(3.12496 -0.594024 0)
(3.12443 -0.597198 0)
(3.12637 -0.596226 0)
(3.12944 -0.593458 0)
(3.13086 -0.591271 0)
(3.13187 -0.591028 0)
(3.13125 -0.591525 0)
(3.10783 -0.473078 0)
(3.1209 -0.58083 0)
(3.12191 -0.581621 0)
(3.12223 -0.583198 0)
(3.12238 -0.585047 0)
(3.12371 -0.585475 0)
(3.12413 -0.58011 0)
(3.12523 -0.576858 0)
(3.12452 -0.572801 0)
(3.12214 -0.562987 0)
(3.12398 -0.546952 0)
(3.122 -0.5388 0)
(3.12165 -0.538746 0)
(3.11865 -0.542022 0)
(3.11727 -0.544825 0)
(3.11709 -0.553869 0)
(3.11703 -0.559545 0)
(3.12128 -0.567187 0)
(3.12437 -0.569524 0)
(3.12488 -0.568007 0)
(3.12527 -0.568673 0)
(3.12516 -0.569865 0)
(3.12271 -0.57075 0)
(3.12035 -0.580581 0)
(3.11944 -0.587182 0)
(3.11754 -0.585986 0)
(3.11411 -0.57752 0)
(3.1172 -0.56919 0)
(3.1191 -0.568498 0)
(3.12481 -0.571659 0)
(3.12897 -0.579868 0)
(3.12975 -0.586868 0)
(3.13117 -0.584754 0)
(3.12976 -0.576768 0)
(3.12513 -0.569883 0)
(3.12358 -0.569524 0)
(3.12428 -0.570814 0)
(3.1257 -0.57256 0)
(3.12702 -0.576836 0)
(3.12499 -0.580012 0)
(3.12235 -0.583683 0)
(3.1218 -0.585415 0)
(3.12164 -0.593331 0)
(3.12332 -0.595358 0)
(3.12686 -0.594573 0)
(3.12948 -0.591121 0)
(3.13103 -0.587144 0)
(3.13134 -0.587288 0)
(3.13083 -0.589188 0)
(3.12947 -0.598674 0)
(3.12829 -0.582062 0)
(3.09919 -0.455833 0)
(3.10004 -0.454649 0)
(3.10215 -0.459092 0)
(3.10317 -0.460814 0)
(3.10141 -0.465337 0)
(3.10256 -0.471341 0)
(3.10171 -0.478496 0)
(3.09953 -0.485033 0)
(3.10226 -0.490041 0)
(3.10441 -0.493877 0)
(3.10954 -0.495788 0)
(3.1138 -0.499249 0)
(3.11135 -0.508885 0)
(3.11325 -0.518663 0)
(3.11618 -0.52187 0)
(3.11674 -0.522283 0)
(3.11771 -0.523496 0)
(3.11906 -0.523527 0)
(3.11816 -0.516071 0)
(3.11915 -0.509511 0)
(3.11959 -0.492761 0)
(3.1149 -0.479211 0)
(3.1116 -0.476483 0)
(3.11262 -0.483204 0)
(3.11314 -0.483929 0)
(3.11401 -0.484065 0)
(3.11403 -0.492576 0)
(3.10985 -0.508801 0)
(3.10724 -0.514646 0)
(3.10711 -0.513197 0)
(3.10936 -0.510566 0)
(3.11385 -0.513562 0)
(3.11724 -0.52012 0)
(3.1208 -0.527873 0)
(3.12049 -0.53444 0)
(3.11592 -0.540594 0)
(3.11469 -0.545187 0)
(3.11681 -0.553035 0)
(3.11971 -0.562562 0)
(3.12093 -0.568427 0)
(3.12441 -0.570283 0)
(3.12615 -0.57329 0)
(3.12928 -0.570097 0)
(3.13114 -0.570342 0)
(3.13199 -0.564146 0)
(3.12812 -0.571322 0)
(3.12773 -0.577315 0)
(3.127 -0.589868 0)
(3.12859 -0.59292 0)
(3.1329 -0.589913 0)
(3.10043 -0.418991 0)
(3.10282 -0.415728 0)
(3.10316 -0.410697 0)
(3.10274 -0.40825 0)
(3.10488 -0.412196 0)
(3.10412 -0.413869 0)
(3.10372 -0.418235 0)
(3.10315 -0.423828 0)
(3.10184 -0.427337 0)
(3.10149 -0.429063 0)
(3.10331 -0.422864 0)
(3.10572 -0.412709 0)
(3.10499 -0.400832 0)
(3.09975 -0.395808 0)
(3.0987 -0.398289 0)
(3.09755 -0.400646 0)
(3.09575 -0.401115 0)
(3.0994 -0.410697 0)
(3.09812 -0.42234 0)
(3.09664 -0.433793 0)
(3.10061 -0.442519 0)
(3.10524 -0.457277 0)
(3.10438 -0.464489 0)
(3.10693 -0.475692 0)
(3.10615 -0.483835 0)
(3.11076 -0.482371 0)
(3.11495 -0.471198 0)
(3.11168 -0.460618 0)
(3.10707 -0.462764 0)
(3.11173 -0.474795 0)
(3.11298 -0.487222 0)
(3.10908 -0.499155 0)
(3.10848 -0.506049 0)
(3.11098 -0.50559 0)
(3.11542 -0.512867 0)
(3.11763 -0.521732 0)
(3.11831 -0.523414 0)
(3.11928 -0.526673 0)
(3.12098 -0.527222 0)
(3.12249 -0.532945 0)
(3.12525 -0.528385 0)
(3.12555 -0.532537 0)
(3.12242 -0.526362 0)
(3.12332 -0.539581 0)
(3.12334 -0.549161 0)
(3.12447 -0.567251 0)
(3.12483 -0.574448 0)
(3.12805 -0.578282 0)
(3.13273 -0.576635 0)
(3.13543 -0.572904 0)
(3.08626 -0.319782 0)
(3.08523 -0.324204 0)
(3.08448 -0.325806 0)
(3.08421 -0.326998 0)
(3.08633 -0.326605 0)
(3.08779 -0.323849 0)
(3.08788 -0.320767 0)
(3.0888 -0.323623 0)
(3.08908 -0.328208 0)
(3.08882 -0.336283 0)
(3.08692 -0.339581 0)
(3.08632 -0.341225 0)
(3.08994 -0.343972 0)
(3.09128 -0.346432 0)
(3.0912 -0.349481 0)
(3.09085 -0.353694 0)
(3.09125 -0.359672 0)
(3.0944 -0.356913 0)
(3.09515 -0.35684 0)
(3.09426 -0.35837 0)
(3.0958 -0.351957 0)
(3.09553 -0.345851 0)
(3.09434 -0.342376 0)
(3.0918 -0.341541 0)
(3.08954 -0.352481 0)
(3.09214 -0.365887 0)
(3.09783 -0.38138 0)
(3.09579 -0.397804 0)
(3.0947 -0.406156 0)
(3.10393 -0.399612 0)
(3.10466 -0.386205 0)
(3.1025 -0.382246 0)
(3.10327 -0.402159 0)
(3.10015 -0.4132 0)
(3.09986 -0.417036 0)
(3.10182 -0.416198 0)
(3.10609 -0.425175 0)
(3.10788 -0.429357 0)
(3.10771 -0.438961 0)
(3.10519 -0.446539 0)
(3.11098 -0.463378 0)
(3.11143 -0.471525 0)
(3.11671 -0.490161 0)
(3.11891 -0.506173 0)
(3.12104 -0.517285 0)
(3.12389 -0.527977 0)
(3.12781 -0.524934 0)
(3.13015 -0.53405 0)
(3.1218 -0.524166 0)
(3.12895 -0.549632 0)
(3.06796 -0.225602 0)
(3.06795 -0.229452 0)
(3.06676 -0.231198 0)
(3.0655 -0.232313 0)
(3.06645 -0.230583 0)
(3.06671 -0.228311 0)
(3.06845 -0.228683 0)
(3.0699 -0.233671 0)
(3.06849 -0.236886 0)
(3.06863 -0.235601 0)
(3.06853 -0.233795 0)
(3.07102 -0.237102 0)
(3.07145 -0.242492 0)
(3.07126 -0.244124 0)
(3.07177 -0.243609 0)
(3.07165 -0.244493 0)
(3.07255 -0.249079 0)
(3.07287 -0.252077 0)
(3.07358 -0.255546 0)
(3.07363 -0.260698 0)
(3.07593 -0.269164 0)
(3.07786 -0.278923 0)
(3.07873 -0.284012 0)
(3.08053 -0.288278 0)
(3.08254 -0.29521 0)
(3.08315 -0.299764 0)
(3.0844 -0.294896 0)
(3.08157 -0.289165 0)
(3.07986 -0.298358 0)
(3.08796 -0.313324 0)
(3.08863 -0.33492 0)
(3.08776 -0.34702 0)
(3.09063 -0.340503 0)
(3.09262 -0.344052 0)
(3.0961 -0.362555 0)
(3.09613 -0.376301 0)
(3.09652 -0.380675 0)
(3.10062 -0.396238 0)
(3.10217 -0.407187 0)
(3.10377 -0.421458 0)
(3.10616 -0.430759 0)
(3.10942 -0.443812 0)
(3.11319 -0.452626 0)
(3.11614 -0.459476 0)
(3.11858 -0.467307 0)
(3.11993 -0.467471 0)
(3.12084 -0.474943 0)
(3.11588 -0.484614 0)
(3.12014 -0.508043 0)
(3.12212 -0.523937 0)
(3.04082 -0.12235 0)
(3.04176 -0.122937 0)
(3.04248 -0.128041 0)
(3.04221 -0.129897 0)
(3.04243 -0.133461 0)
(3.04093 -0.138664 0)
(3.04248 -0.138238 0)
(3.04404 -0.1351 0)
(3.04586 -0.136268 0)
(3.04666 -0.139633 0)
(3.04526 -0.145349 0)
(3.04489 -0.145528 0)
(3.04634 -0.146603 0)
(3.04871 -0.1508 0)
(3.04887 -0.154012 0)
(3.04923 -0.156129 0)
(3.04965 -0.158596 0)
(3.05039 -0.164139 0)
(3.0512 -0.166901 0)
(3.05266 -0.169321 0)
(3.05447 -0.175301 0)
(3.05502 -0.17785 0)
(3.05551 -0.180499 0)
(3.05755 -0.187853 0)
(3.05837 -0.191521 0)
(3.05992 -0.198582 0)
(3.06209 -0.208228 0)
(3.06401 -0.216926 0)
(3.06652 -0.229311 0)
(3.06867 -0.234741 0)
(3.06746 -0.227569 0)
(3.06686 -0.232318 0)
(3.07361 -0.259476 0)
(3.07513 -0.269433 0)
(3.07726 -0.270699 0)
(3.07954 -0.276371 0)
(3.08264 -0.293472 0)
(3.08382 -0.300076 0)
(3.08594 -0.310565 0)
(3.08837 -0.319388 0)
(3.0905 -0.32818 0)
(3.09277 -0.340416 0)
(3.09387 -0.347136 0)
(3.09758 -0.364856 0)
(3.09773 -0.37264 0)
(3.10382 -0.397267 0)
(3.10518 -0.411426 0)
(3.11038 -0.437499 0)
(3.11433 -0.454408 0)
(3.12004 -0.469809 0)
(3.01456 -0.0382709 0)
(3.01496 -0.0372569 0)
(3.01583 -0.0383757 0)
(3.01596 -0.0426406 0)
(3.01622 -0.0446966 0)
(3.01633 -0.0492239 0)
(3.01541 -0.0519794 0)
(3.01699 -0.0499096 0)
(3.01805 -0.0475946 0)
(3.01988 -0.0487807 0)
(3.02007 -0.0531112 0)
(3.019 -0.0552212 0)
(3.01943 -0.0569654 0)
(3.02108 -0.0613576 0)
(3.02146 -0.0625508 0)
(3.02272 -0.0649338 0)
(3.02404 -0.0686721 0)
(3.02378 -0.0701242 0)
(3.02518 -0.0756223 0)
(3.02652 -0.0791356 0)
(3.02797 -0.082337 0)
(3.02958 -0.0874254 0)
(3.03098 -0.0923913 0)
(3.03284 -0.0986175 0)
(3.03416 -0.103673 0)
(3.03624 -0.11164 0)
(3.03731 -0.115177 0)
(3.03995 -0.123615 0)
(3.04219 -0.13122 0)
(3.0425 -0.135066 0)
(3.04731 -0.151484 0)
(3.04992 -0.165102 0)
(3.05028 -0.162808 0)
(3.05382 -0.17447 0)
(3.05816 -0.193605 0)
(3.06036 -0.201346 0)
(3.06449 -0.214565 0)
(3.06694 -0.225458 0)
(3.07123 -0.244526 0)
(3.07323 -0.253316 0)
(3.0788 -0.275492 0)
(3.08102 -0.285526 0)
(3.08602 -0.30828 0)
(3.08909 -0.322239 0)
(3.09282 -0.342924 0)
(3.09687 -0.360109 0)
(3.10065 -0.375792 0)
(3.1054 -0.392464 0)
(3.10927 -0.399224 0)
(3.11311 -0.419112 0)
(2.99526 0.0149117 0)
(2.99526 0.0145905 0)
(2.99557 0.0150577 0)
(2.99591 0.0156738 0)
(2.99625 0.015395 0)
(2.99671 0.0137638 0)
(2.9966 0.0114507 0)
(2.99621 0.0105825 0)
(2.99667 0.011161 0)
(2.99752 0.0109059 0)
(2.99835 0.00888105 0)
(2.99821 0.00769984 0)
(2.99833 0.00752336 0)
(2.99926 0.00529509 0)
(2.99958 0.00361111 0)
(3.00015 0.00203465 0)
(3.00072 0.00130242 0)
(3.00186 -0.00171695 0)
(3.00231 -0.00366264 0)
(3.00325 -0.00651913 0)
(3.00424 -0.00894303 0)
(3.00549 -0.0122492 0)
(3.00684 -0.0163028 0)
(3.00793 -0.0196304 0)
(3.00979 -0.0253218 0)
(3.01077 -0.028324 0)
(3.01318 -0.0353986 0)
(3.01509 -0.0413308 0)
(3.01652 -0.0460724 0)
(3.01987 -0.0574312 0)
(3.02134 -0.0617356 0)
(3.02395 -0.0699415 0)
(3.02796 -0.0836878 0)
(3.03086 -0.092649 0)
(3.03352 -0.10133 0)
(3.0376 -0.116083 0)
(3.04102 -0.127883 0)
(3.04524 -0.142112 0)
(3.04913 -0.155034 0)
(3.05358 -0.171439 0)
(3.05773 -0.184989 0)
(3.06233 -0.201173 0)
(3.06689 -0.217211 0)
(3.07067 -0.230574 0)
(3.0749 -0.248887 0)
(3.07774 -0.260259 0)
(3.08135 -0.27749 0)
(3.08485 -0.29369 0)
(3.08784 -0.308838 0)
(3.09538 -0.344437 0)
(2.98772 0.0351099 0)
(2.98782 0.0348956 0)
(2.98784 0.0348067 0)
(2.98786 0.0348324 0)
(2.988 0.034641 0)
(2.98806 0.034394 0)
(2.98811 0.0344425 0)
(2.98812 0.0345217 0)
(2.98837 0.0342097 0)
(2.98852 0.0337204 0)
(2.98858 0.0336045 0)
(2.98872 0.0334147 0)
(2.98891 0.0330867 0)
(2.98905 0.0328232 0)
(2.98925 0.0323303 0)
(2.98945 0.0317898 0)
(2.9897 0.0310949 0)
(2.98992 0.0303985 0)
(2.99018 0.0293824 0)
(2.99033 0.0285505 0)
(2.99054 0.027615 0)
(2.9908 0.026618 0)
(2.99112 0.0255948 0)
(2.99163 0.0242433 0)
(2.99222 0.0229436 0)
(2.99329 0.0205052 0)
(2.99433 0.0183229 0)
(2.99553 0.0156578 0)
(2.99721 0.0113662 0)
(2.99845 0.00786888 0)
(3.00059 0.00157578 0)
(3.0025 -0.00386517 0)
(3.00478 -0.010168 0)
(3.00716 -0.0170212 0)
(3.01041 -0.0267393 0)
(3.01353 -0.0365996 0)
(3.01705 -0.0477938 0)
(3.02133 -0.0610307 0)
(3.02555 -0.073801 0)
(3.03081 -0.0901725 0)
(3.03573 -0.105612 0)
(3.04121 -0.122963 0)
(3.04721 -0.142493 0)
(3.0523 -0.159991 0)
(3.05879 -0.182998 0)
(3.06322 -0.201541 0)
(3.06962 -0.227265 0)
(3.07385 -0.246813 0)
(3.07964 -0.273121 0)
(3.08772 -0.305408 0)
(2.98686 0.0360023 0)
(2.98689 0.0359852 0)
(2.98692 0.0359577 0)
(2.98695 0.0359879 0)
(2.98699 0.0360024 0)
(2.98704 0.035963 0)
(2.98708 0.035954 0)
(2.98706 0.0359646 0)
(2.98704 0.0359784 0)
(2.98704 0.0360016 0)
(2.98702 0.0360012 0)
(2.98697 0.0360226 0)
(2.98689 0.0360805 0)
(2.98687 0.0360848 0)
(2.98684 0.036081 0)
(2.98685 0.0361373 0)
(2.98691 0.0362377 0)
(2.98692 0.0362946 0)
(2.98701 0.0364448 0)
(2.98708 0.0366326 0)
(2.98712 0.0366294 0)
(2.98731 0.0364512 0)
(2.98742 0.0361297 0)
(2.98748 0.0357365 0)
(2.98764 0.035203 0)
(2.98784 0.0347968 0)
(2.98796 0.0344253 0)
(2.98792 0.0340512 0)
(2.98789 0.0335147 0)
(2.98818 0.0327186 0)
(2.98884 0.0316334 0)
(2.98987 0.029882 0)