/*--------------------------------*- C++ -*----------------------------------*\
  =========                 |
  \\      /  F ield         | OpenFOAM: The Open Source CFD Toolbox
   \\    /   O peration     | Website:  https://openfoam.org
    \\  /    A nd           | Version:  7
     \\/     M anipulation  |
\*---------------------------------------------------------------------------*/
FoamFile
{
    version     2.0;
    format      ascii;
    class       volScalarField;
    location    "2.1";
    object      rho;
}
// * * * * * * * * * * * * * * * * * * * * * * * * * * * * * * * * * * * * * //

dimensions      [1 -3 0 0 0 0 0];

internalField   nonuniform List<scalar> 
8400
(
0.17643
0.238971
0.306772
0.373553
0.432317
0.486344
0.53339
0.567759
0.606015
0.623898
0.642707
0.657809
0.662043
0.678022
0.690486
0.699657
0.731078
0.783061
0.796393
0.801394
0.811589
0.839829
0.875739
0.945586
1.09242
1.15991
1.1648
1.17147
1.19008
1.19105
0.133874
0.134912
0.139426
0.150477
0.173643
0.206154
0.253127
0.310127
0.368087
0.427629
0.478768
0.528847
0.571549
0.610286
0.647126
0.677512
0.740666
0.755517
0.746814
0.723278
0.731862
0.76566
0.819343
0.900835
1.02319
1.06578
1.07272
1.11795
1.18536
1.18439
0.14848
0.148056
0.148109
0.148376
0.147967
0.147925
0.147537
0.145002
0.143416
0.150998
0.168282
0.195708
0.242658
0.292397
0.352781
0.428819
0.529856
0.654991
0.704443
0.706206
0.717164
0.756564
0.800178
0.868413
0.958117
0.969676
0.976738
1.07942
1.18694
1.17931
0.14329
0.143307
0.14402
0.145225
0.144962
0.142876
0.141166
0.140142
0.138573
0.137807
0.137781
0.138805
0.141798
0.145092
0.145835
0.15546
0.192111
0.304717
0.515263
0.642446
0.706725
0.768976
0.791948
0.829783
0.863404
0.862744
0.911139
1.08277
1.22331
1.22051
0.138802
0.139509
0.140848
0.142956
0.14364
0.142971
0.140915
0.141212
0.143441
0.145472
0.14732
0.151572
0.156243
0.161201
0.165748
0.171402
0.176517
0.180974
0.209591
0.319685
0.493801
0.679765
0.782881
0.805825
0.822841
0.828285
0.872314
1.06601
1.26026
1.27079
0.146616
0.147071
0.147281
0.14738
0.147196
0.147782
0.150996
0.157293
0.164326
0.170336
0.174391
0.176754
0.177779
0.180632
0.18758
0.193667
0.19665
0.202006
0.203166
0.203606
0.221083
0.330627
0.577048
0.737948
0.769186
0.808067
0.896906
1.11523
1.35048
1.36794
0.163416
0.164741
0.165498
0.167348
0.17076
0.175037
0.181107
0.186813
0.19231
0.198587
0.202029
0.203178
0.205143
0.209468
0.21641
0.217906
0.215488
0.216032
0.22264
0.23445
0.250412
0.253959
0.282918
0.42341
0.605774
0.711377
0.811551
0.983923
1.21522
1.34051
0.197852
0.202571
0.207507
0.211879
0.213694
0.214138
0.215175
0.217442
0.221545
0.228554
0.236302
0.243051
0.247218
0.252202
0.255401
0.25617
0.258224
0.263286
0.273042
0.286073
0.294036
0.296335
0.300515
0.304012
0.329914
0.389714
0.447734
0.49595
0.60691
1.00451
0.244194
0.248931
0.251834
0.252566
0.2512
0.250336
0.2517
0.255237
0.260669
0.269382
0.279337
0.28186
0.281268
0.281772
0.285239
0.292111
0.299511
0.306658
0.313041
0.318033
0.317327
0.317401
0.318803
0.325733
0.340602
0.3575
0.380618
0.427515
0.46874
0.651069
0.292648
0.296465
0.301599
0.305391
0.30561
0.305167
0.306011
0.30807
0.311858
0.319423
0.325408
0.325766
0.326438
0.329312
0.334545
0.339848
0.34293
0.344524
0.343314
0.34251
0.345336
0.352788
0.363543
0.37573
0.389511
0.406615
0.435724
0.476103
0.513111
0.579018
0.360714
0.365889
0.372681
0.376957
0.377627
0.375324
0.372135
0.372349
0.375149
0.381968
0.389612
0.395283
0.397279
0.39783
0.398062
0.397111
0.394914
0.39568
0.399757
0.408233
0.416907
0.425416
0.434674
0.442085
0.449154
0.462025
0.486591
0.528452
0.575063
0.637819
0.442135
0.446759
0.452939
0.45734
0.458665
0.45669
0.448275
0.44497
0.445722
0.448972
0.455123
0.457134
0.455471
0.451932
0.451993
0.453889
0.458734
0.464405
0.470001
0.475446
0.476578
0.476983
0.476951
0.478846
0.485983
0.500146
0.519173
0.555143
0.598965
0.67264
0.538419
0.542925
0.549218
0.553023
0.554627
0.554667
0.548862
0.538409
0.534114
0.534747
0.539677
0.544075
0.543744
0.540176
0.538259
0.537762
0.536221
0.5319
0.529042
0.528254
0.528044
0.52882
0.5322
0.539955
0.550945
0.562106
0.575684
0.5961
0.621979
0.685519
0.660898
0.665811
0.666423
0.661834
0.658408
0.658709
0.659059
0.652231
0.643227
0.641878
0.639166
0.637839
0.637752
0.634346
0.626123
0.624067
0.623585
0.621615
0.619636
0.619539
0.620756
0.621491
0.621509
0.622671
0.626081
0.633556
0.647722
0.672091
0.700936
0.748474
0.807183
0.809275
0.806118
0.794276
0.790235
0.788806
0.783107
0.771516
0.768841
0.767991
0.763325
0.752823
0.745621
0.742777
0.737429
0.730088
0.725297
0.720334
0.712636
0.705866
0.701036
0.696812
0.693225
0.691098
0.692832
0.700631
0.711863
0.732737
0.764166
0.825865
0.971801
0.970197
0.961933
0.951626
0.949089
0.944689
0.929744
0.912015
0.909352
0.90873
0.902794
0.887049
0.866678
0.863526
0.861451
0.852723
0.838676
0.82777
0.81785
0.808529
0.800676
0.792201
0.78543
0.782639
0.783659
0.78884
0.795211
0.80603
0.818009
0.860743
1.16026
1.15447
1.14414
1.13396
1.12954
1.11481
1.09162
1.07915
1.0728
1.06467
1.05227
1.03644
1.016
0.999948
0.99215
0.981431
0.965327
0.949621
0.934639
0.921025
0.910322
0.899288
0.885948
0.878065
0.878468
0.884019
0.889482
0.899021
0.910753
0.942994
1.37915
1.36778
1.35674
1.34408
1.32598
1.31173
1.29603
1.27201
1.25303
1.2415
1.22666
1.20517
1.18117
1.16186
1.14687
1.12919
1.10775
1.08894
1.07009
1.04999
1.03601
1.02208
1.00468
0.995076
0.994905
0.998311
1.0005
1.00182
1.00936
1.04391
1.6415
1.62595
1.61377
1.59881
1.57461
1.55366
1.53392
1.50819
1.48475
1.46336
1.44033
1.41563
1.38838
1.35886
1.33557
1.31304
1.28404
1.25847
1.23694
1.21195
1.19239
1.17404
1.15317
1.14296
1.1384
1.1355
1.13721
1.13735
1.13468
1.14602
1.85795
1.84653
1.83534
1.82545
1.81272
1.79546
1.77737
1.7567
1.73463
1.714
1.69005
1.66293
1.63549
1.60531
1.57604
1.54783
1.51479
1.48251
1.45605
1.42717
1.39978
1.37753
1.3549
1.3381
1.32847
1.31861
1.31143
1.30415
1.29875
1.29441
1.89273
1.8902
1.88714
1.88243
1.87706
1.87128
1.86454
1.85429
1.8438
1.83509
1.824
1.81109
1.79655
1.77956
1.76271
1.74488
1.72197
1.69683
1.67422
1.65006
1.62278
1.59847
1.57486
1.55305
1.53523
1.5176
1.49884
1.4814
1.46678
1.44234
1.8515
1.85015
1.8497
1.85108
1.85002
1.8475
1.84595
1.84415
1.84032
1.83448
1.82725
1.82043
1.8127
1.80132
1.78944
1.77915
1.76644
1.75028
1.73452
1.71882
1.70046
1.68098
1.66151
1.64072
1.61953
1.59718
1.57268
1.54682
1.52367
1.48378
1.65229
1.65988
1.6685
1.68219
1.69011
1.69531
1.70374
1.71253
1.71841
1.72445
1.73262
1.73734
1.73933
1.73982
1.73782
1.73529
1.73142
1.72403
1.7141
1.70322
1.69051
1.67483
1.65765
1.6388
1.61659
1.59201
1.56595
1.53868
1.51388
1.47341
1.44987
1.45419
1.45872
1.4643
1.47049
1.47655
1.48323
1.49126
1.49933
1.50761
1.51677
1.52671
1.53659
1.54567
1.55418
1.56187
1.56891
1.57452
1.57724
1.5778
1.57636
1.5718
1.56392
1.55302
1.53888
1.52196
1.50325
1.48352
1.46506
1.43729
1.40217
1.40247
1.40284
1.4033
1.40386
1.40452
1.40529
1.40626
1.40741
1.40875
1.41035
1.41225
1.41449
1.41697
1.41972
1.42277
1.42593
1.4292
1.43231
1.43489
1.43692
1.4379
1.43755
1.43615
1.43346
1.42958
1.42476
1.41931
1.41403
1.40687
1.40003
1.40003
1.40004
1.40004
1.40005
1.40006
1.40008
1.40009
1.40012
1.40015
1.40019
1.40024
1.4003
1.40039
1.4005
1.40063
1.40079
1.40098
1.40119
1.40142
1.40164
1.40181
1.40192
1.40193
1.40187
1.40172
1.40146
1.40112
1.40076
1.40032
1.40001
1.40001
1.40001
1.40001
1.40001
1.40001
1.40001
1.40001
1.40001
1.40001
1.40001
1.40001
1.40001
1.40001
1.40001
1.40001
1.40001
1.40001
1.40002
1.40002
1.40002
1.40002
1.40003
1.40003
1.40003
1.40003
1.40002
1.40002
1.40002
1.40001
1.40001
1.40001
1.40001
1.40001
1.40001
1.40001
1.40001
1.40001
1.40001
1.40001
1.40001
1.40001
1.40001
1.40001
1.40001
1.40001
1.40001
1.40001
1.40001
1.40001
1.40001
1.40001
1.40001
1.40001
1.40001
1.40001
1.40001
1.40001
1.40001
1.40001
1.40001
1.40001
1.40001
1.40001
1.40001
1.40001
1.40001
1.40001
1.40001
1.40001
1.40001
1.40001
1.40001
1.40001
1.40001
1.40001
1.40001
1.40001
1.40001
1.40001
1.40001
1.40001
1.40001
1.40001
1.40001
1.40001
1.40001
1.40001
1.40001
1.40001
1.40001
1.40001
1.40001
1.40001
1.40001
1.40001
1.40001
1.40001
1.40001
1.40001
1.40001
1.40001
1.40001
1.40001
1.40001
1.40001
1.40001
1.40001
1.40001
1.40001
1.40001
1.40001
1.40001
1.40001
1.40001
1.40001
1.40001
1.40001
1.40001
1.40001
0.125356
0.132203
0.148599
0.143606
0.137971
0.145603
0.1624
0.193844
0.239182
0.289855
0.357169
0.439123
0.537364
0.660999
0.805394
0.974538
1.17305
1.40415
1.67359
1.87215
1.89782
1.84646
1.63746
1.44338
1.40186
1.40002
1.40001
1.40001
1.40001
1.40001
0.126666
0.134628
0.149552
0.142183
0.137308
0.14757
0.16744
0.199973
0.245726
0.303314
0.375852
0.466319
0.579839
0.712673
0.86025
1.03999
1.23719
1.47581
1.74054
1.89773
1.90538
1.82594
1.60147
1.42975
1.40094
1.40001
1.40001
1.40001
1.40001
1.40001
0.128168
0.135352
0.149166
0.14161
0.137292
0.148721
0.169561
0.206126
0.255167
0.321356
0.400784
0.4997
0.617968
0.749203
0.908109
1.09321
1.2954
1.53455
1.79043
1.91353
1.91093
1.81095
1.57171
1.42102
1.40055
1.40001
1.40001
1.40001
1.40001
1.40001
0.129064
0.136461
0.149483
0.141415
0.136968
0.151256
0.173647
0.21799
0.272798
0.336458
0.418553
0.520104
0.640508
0.778248
0.943667
1.12766
1.34271
1.59246
1.83713
1.92608
1.91308
1.78984
1.53961
1.41391
1.4003
1.40001
1.40001
1.40001
1.40001
1.40001
0.131297
0.138378
0.150422
0.141743
0.136785
0.15484
0.180057
0.226207
0.278795
0.342076
0.428967
0.533937
0.656789
0.804308
0.97303
1.16312
1.39156
1.65253
1.87731
1.93496
1.91095
1.75535
1.51007
1.40896
1.40017
1.40001
1.40001
1.40001
1.40001
1.40001
0.135256
0.14041
0.150796
0.142034
0.136911
0.156351
0.181926
0.22966
0.283005
0.347312
0.437513
0.547354
0.672344
0.824884
1.00106
1.20871
1.45077
1.71697
1.90984
1.94228
1.90552
1.72312
1.48553
1.40557
1.40009
1.40001
1.40001
1.40001
1.40001
1.40001
0.137886
0.141182
0.150348
0.141216
0.136479
0.156124
0.181936
0.231351
0.289482
0.359226
0.456315
0.572289
0.713936
0.87247
1.0609
1.28322
1.5209
1.77785
1.93462
1.94866
1.89655
1.68896
1.46304
1.40327
1.40005
1.40001
1.40001
1.40001
1.40001
1.40001
0.139111
0.140711
0.147404
0.138942
0.135148
0.155527
0.181665
0.23598
0.306653
0.395726
0.497
0.620315
0.765709
0.934494
1.13364
1.34729
1.59088
1.83362
1.9517
1.95284
1.8768
1.64637
1.44416
1.40183
1.40003
1.40001
1.40001
1.40001
1.40001
1.40001
0.138918
0.137639
0.144709
0.138133
0.135121
0.160025
0.19539
0.258577
0.333452
0.418774
0.521512
0.650593
0.801639
0.97754
1.17438
1.39757
1.65465
1.88316
1.96241
1.9547
1.85361
1.60514
1.43018
1.401
1.40001
1.40001
1.40001
1.40001
1.40001
1.40001
0.136531
0.136633
0.144073
0.139647
0.140572
0.172593
0.214527
0.274241
0.342938
0.42687
0.538793
0.677924
0.835088
1.01655
1.21924
1.45818
1.72011
1.92267
1.96962
1.95145
1.82351
1.56526
1.41935
1.40051
1.40001
1.40001
1.40001
1.40001
1.40001
1.40001
0.134037
0.137063
0.144309
0.141783
0.147171
0.181033
0.221499
0.277011
0.346755
0.432083
0.555504
0.704023
0.868206
1.05778
1.28009
1.53426
1.78674
1.95198
1.97583
1.94522
1.78378
1.5275
1.41178
1.40025
1.40001
1.40001
1.40001
1.40001
1.40001
1.40001
0.13272
0.138364
0.145364
0.142425
0.149626
0.182906
0.223468
0.275133
0.352508
0.453089
0.593442
0.745143
0.926166
1.13598
1.37166
1.61486
1.85213
1.97254
1.98108
1.93851
1.74492
1.49472
1.40685
1.40012
1.40001
1.40001
1.40001
1.40001
1.40001
1.40001
0.132534
0.140189
0.146253
0.141752
0.14899
0.181887
0.226078
0.285155
0.382003
0.511367
0.644456
0.805507
0.99902
1.21473
1.44395
1.69207
1.90827
1.98655
1.98468
1.91692
1.69574
1.46536
1.40364
1.40006
1.40001
1.40001
1.40001
1.40001
1.40001
1.40001
0.1326
0.140631
0.144512
0.138893
0.146814
0.180352
0.233788
0.3289
0.434746
0.545124
0.681254
0.856282
1.05297
1.26799
1.50762
1.76305
1.95001
1.99757
1.98625
1.88969
1.64577
1.44433
1.40191
1.40003
1.40001
1.40001
1.40001
1.40001
1.40001
1.40001
0.13311
0.139946
0.14159
0.136714
0.148734
0.193372
0.266755
0.361707
0.453875
0.563441
0.716936
0.905322
1.10219
1.32695
1.58718
1.83235
1.98116
2.00571
1.98513
1.86609
1.60066
1.42791
1.40092
1.40001
1.40001
1.40001
1.40001
1.40001
1.40001
1.40001
0.133666
0.137826
0.141156
0.136818
0.16016
0.214322
0.285381
0.369949
0.461902
0.586494
0.764467
0.950673
1.16323
1.41781
1.68163
1.89892
2.00237
2.00999
1.98574
1.82211
1.54691
1.41525
1.40039
1.40001
1.40001
1.40001
1.40001
1.40001
1.40001
1.40001
0.134084
0.136232
0.141794
0.141406
0.168204
0.221525
0.288591
0.369347
0.476819
0.645033
0.822462
1.01562
1.26537
1.52351
1.76696
1.95339
2.01527
2.01185
1.96187
1.7581
1.50399
1.40856
1.40018
1.40001
1.40001
1.40001
1.40001
1.40001
1.40001
1.40001
0.134147
0.134799
0.143374
0.144102
0.169111
0.221863
0.29026
0.375521
0.540882
0.709656
0.880299
1.10956
1.36194
1.60615
1.84035
1.99334
2.02552
2.01368
1.93129
1.70934
1.47325
1.40446
1.40008
1.40001
1.40001
1.40001
1.40001
1.40001
1.40001
1.40001
0.134759
0.13312
0.1436
0.143965
0.167003
0.221903
0.301787
0.447066
0.607013
0.752601
0.94831
1.19878
1.44061
1.68907
1.9093
2.02071
2.0342
2.01785
1.91113
1.65517
1.44453
1.40196
1.40003
1.40001
1.40001
1.40001
1.40001
1.40001
1.40001
1.40001
0.135359
0.128927
0.139235
0.143341
0.17122
0.252184
0.361401
0.503893
0.637856
0.800554
1.03754
1.27676
1.52835
1.78416
1.9665
2.03498
2.03863
2.01873
1.87421
1.58438
1.42393
1.4008
1.40001
1.40001
1.40001
1.40001
1.40001
1.40001
1.40001
1.40001
0.132814
0.123024
0.132764
0.144548
0.199098
0.299442
0.404423
0.524718
0.66633
0.88137
1.12179
1.36347
1.64047
1.87098
2.00742
2.04286
2.03873
1.99009
1.7915
1.52628
1.41231
1.40031
1.40001
1.40001
1.40001
1.40001
1.40001
1.40001
1.40001
1.40001
0.131119
0.119238
0.130302
0.160504
0.229835
0.319572
0.417338
0.541068
0.737428
0.978991
1.20784
1.48253
1.74486
1.94236
2.036
2.05079
2.03737
1.9571
1.73574
1.48799
1.40634
1.40012
1.40001
1.40001
1.40001
1.40001
1.40001
1.40001
1.40001
1.40001
0.132051
0.118362
0.132574
0.177901
0.241965
0.319753
0.425165
0.600071
0.85211
1.06503
1.31527
1.59659
1.83634
2.00077
2.05661
2.06058
2.04047
1.93524
1.68003
1.45366
1.40272
1.40004
1.40001
1.40001
1.40001
1.40001
1.40001
1.40001
1.40001
1.40001
0.135931
0.119537
0.135238
0.183043
0.243188
0.314926
0.472905
0.721358
0.93403
1.15374
1.43901
1.70287
1.9218
2.04248
2.06996
2.0706
2.04692
1.90372
1.5964
1.42491
1.40085
1.40002
1.40001
1.40001
1.40001
1.40001
1.40001
1.40001
1.40001
1.40001
0.144145
0.120811
0.135417
0.180231
0.244232
0.37865
0.590893
0.799369
1.00474
1.27516
1.55766
1.81344
1.99288
2.0679
2.07834
2.07387
2.02415
1.80022
1.5199
1.41129
1.40029
1.40001
1.40001
1.40001
1.40001
1.40001
1.40001
1.40001
1.40001
1.40001
0.151165
0.119161
0.13425
0.178612
0.27994
0.480746
0.664104
0.856897
1.11189
1.40927
1.68502
1.9179
2.04468
2.08474
2.08329
2.06873
1.9651
1.71464
1.47625
1.40521
1.4001
1.40001
1.40001
1.40001
1.40001
1.40001
1.40001
1.40001
1.40001
1.40001
0.153343
0.114429
0.132073
0.208707
0.369993
0.539751
0.710299
0.951236
1.27341
1.55214
1.81578
2.00062
2.0814
2.09789
2.09142
2.05595
1.91997
1.64866
1.4426
1.40189
1.40003
1.40001
1.40001
1.40001
1.40001
1.40001
1.40001
1.40001
1.40001
1.40001
0.14397
0.109909
0.134899
0.265886
0.421197
0.573534
0.793223
1.12813
1.42852
1.69851
1.92449
2.06227
2.10623
2.10881
2.10173
2.04712
1.86869
1.56371
1.41769
1.40055
1.40001
1.40001
1.40001
1.40001
1.40001
1.40001
1.40001
1.40001
1.40001
1.40001
0.12701
0.10578
0.161761
0.311408
0.45534
0.643758
0.970569
1.29415
1.57795
1.83707
2.00955
2.10079
2.12061
2.11835
2.10732
2.03661
1.76147
1.48267
1.40595
1.40014
1.40001
1.40001
1.40001
1.40001
1.40001
1.40001
1.40001
1.40001
1.40001
1.40001
0.100508
0.115515
0.203117
0.34196
0.508442
0.817952
1.14227
1.44407
1.73724
1.95278
2.07078
2.11968
2.12715
2.12268
2.09901
1.94109
1.63365
1.43899
1.40188
1.40004
1.40001
1.40001
1.40001
1.40001
1.40001
1.40001
1.40001
1.40001
1.40001
1.40001
0.0770686
0.135378
0.237567
0.39074
0.654379
0.983737
1.29421
1.61681
1.88909
2.04213
2.10811
2.12898
2.12871
2.12296
2.05744
1.84033
1.55351
1.41793
1.40057
1.40001
1.40001
1.40001
1.40001
1.40001
1.40001
1.40001
1.40001
1.40001
1.40001
1.40001
0.0594059
0.145848
0.273352
0.490525
0.82544
1.14109
1.48664
1.80466
2.0126
2.09512
2.12736
2.13649
2.13125
2.11534
2.01498
1.75865
1.48911
1.40633
1.40014
1.40001
1.40001
1.40001
1.40001
1.40001
1.40001
1.40001
1.40001
1.40001
1.40001
1.40001
0.0474313
0.147838
0.343808
0.650505
0.992204
1.34824
1.70922
1.95599
2.09432
2.11768
2.13606
2.14532
2.1363
2.10063
1.96004
1.64346
1.43582
1.4016
1.40003
1.40001
1.40001
1.40001
1.40001
1.40001
1.40001
1.40001
1.40001
1.40001
1.40001
1.40001
0.0420935
0.184996
0.457081
0.826212
1.19921
1.59869
1.89412
2.06148
2.13432
2.12556
2.14017
2.15162
2.14468
2.0888
1.83489
1.5184
1.41093
1.40033
1.40001
1.40001
1.40001
1.40001
1.40001
1.40001
1.40001
1.40001
1.40001
1.40001
1.40001
1.40001
0.0415599
0.263235
0.622584
1.05221
1.48466
1.81958
2.02725
2.12234
2.14592
2.13012
2.14723
2.154
2.14334
1.99683
1.67088
1.45056
1.40301
1.40007
1.40001
1.40001
1.40001
1.40001
1.40001
1.40001
1.40001
1.40001
1.40001
1.40001
1.40001
1.40001
0.0514699
0.378605
0.875355
1.35047
1.74631
1.99161
2.10656
2.14656
2.15008
2.13296
2.15457
2.14949
2.09263
1.85964
1.55947
1.41941
1.40068
1.40001
1.40001
1.40001
1.40001
1.40001
1.40001
1.40001
1.40001
1.40001
1.40001
1.40001
1.40001
1.40001
0.192155
0.623577
1.18829
1.66579
1.95619
2.09526
2.13847
2.15405
2.15302
2.135
2.15898
2.13117
2.01489
1.7412
1.47852
1.40525
1.40012
1.40001
1.40001
1.40001
1.40001
1.40001
1.40001
1.40001
1.40001
1.40001
1.40001
1.40001
1.40001
1.40001
0.397012
0.96361
1.54886
1.9237
2.08693
2.13569
2.148
2.15723
2.1557
2.13621
2.16004
2.10529
1.92904
1.60442
1.42507
1.40096
1.40002
1.40001
1.40001
1.40001
1.40001
1.40001
1.40001
1.40001
1.40001
1.40001
1.40001
1.40001
1.40001
1.40001
0.770062
1.39085
1.89362
2.08798
2.13601
2.14568
2.15213
2.16002
2.15675
2.13389
2.15238
2.06837
1.77365
1.47676
1.40491
1.40012
1.40001
1.40001
1.40001
1.40001
1.40001
1.40001
1.40001
1.40001
1.40001
1.40001
1.40001
1.40001
1.40001
1.40001
1.41528
1.87626
2.09334
2.14167
2.14529
2.1482
2.15516
2.1615
2.15514
2.12945
2.12096
1.95028
1.58341
1.41829
1.40052
1.40001
1.40001
1.40001
1.40001
1.40001
1.40001
1.40001
1.40001
1.40001
1.40001
1.40001
1.40001
1.40001
1.40001
1.40001
2.15358
2.1533
2.15146
2.14965
2.14666
2.14942
2.1564
2.16189
2.1497
2.12
2.0717
1.77603
1.46222
1.39984
1.39998
1.4
1.40001
1.40001
1.40001
1.40001
1.40001
1.40001
1.40001
1.40001
1.40001
1.40001
1.40001
1.40001
1.40001
1.40001
2.15167
2.15205
2.152
2.15155
2.14782
2.14579
2.15137
2.16074
2.15501
2.11616
2.05651
1.75
1.46491
1.40261
1.40003
1.40001
1.40001
1.40001
1.40001
1.40001
1.40001
1.40001
1.40001
1.40001
1.40001
1.40001
1.40001
1.40001
1.40001
1.40001
2.15007
2.15049
2.15282
2.15362
2.14982
2.14467
2.14633
2.15823
2.15611
2.11524
2.00861
1.62723
1.42019
1.40034
1.40001
1.40001
1.40001
1.40001
1.40001
1.40001
1.40001
1.40001
1.40001
1.40001
1.40001
1.40001
1.40001
1.40001
1.40001
1.40001
2.14952
2.14962
2.15317
2.15522
2.15171
2.143
2.14248
2.15503
2.15608
2.10127
1.91104
1.54859
1.40937
1.40012
1.40001
1.40001
1.40001
1.40001
1.40001
1.40001
1.40001
1.40001
1.40001
1.40001
1.40001
1.40001
1.40001
1.40001
1.40001
1.40001
2.14938
2.14923
2.15331
2.1558
2.15297
2.14221
2.13823
2.15254
2.15826
2.0897
1.83057
1.4937
1.4037
1.40004
1.40001
1.40001
1.40001
1.40001
1.40001
1.40001
1.40001
1.40001
1.40001
1.40001
1.40001
1.40001
1.40001
1.40001
1.40001
1.40001
2.14964
2.1491
2.15234
2.15562
2.15319
2.14242
2.13457
2.14763
2.15802
2.06768
1.73757
1.44777
1.40123
1.40001
1.40001
1.40001
1.40001
1.40001
1.40001
1.40001
1.40001
1.40001
1.40001
1.40001
1.40001
1.40001
1.40001
1.40001
1.40001
1.40001
2.15057
2.14963
2.15091
2.15296
2.15267
2.14561
2.1337
2.14357
2.1449
1.98911
1.63759
1.42218
1.40039
1.40001
1.40001
1.40001
1.40001
1.40001
1.40001
1.40001
1.40001
1.40001
1.40001
1.40001
1.40001
1.40001
1.40001
1.40001
1.40001
1.40001
2.15275
2.15146
2.15002
2.14945
2.15018
2.15055
2.13982
2.14344
2.13393
1.9196
1.55887
1.40982
1.40012
1.40001
1.40001
1.40001
1.40001
1.40001
1.40001
1.40001
1.40001
1.40001
1.40001
1.40001
1.40001
1.40001
1.40001
1.40001
1.40001
1.40001
2.15433
2.15276
2.14855
2.14471
2.14795
2.15579
2.15241
2.14195
2.11681
1.83168
1.48745
1.40337
1.40003
1.40001
1.40001
1.40001
1.40001
1.40001
1.40001
1.40001
1.40001
1.40001
1.40001
1.40001
1.40001
1.40001
1.40001
1.40001
1.40001
1.40001
2.15481
2.15281
2.14747
2.14119
2.14444
2.15852
2.16275
2.13221
2.04945
1.72164
1.44343
1.40108
1.40001
1.40001
1.40001
1.40001
1.40001
1.40001
1.40001
1.40001
1.40001
1.40001
1.40001
1.40001
1.40001
1.40001
1.40001
1.40001
1.40001
1.40001
2.15496
2.15253
2.14714
2.13915
2.14041
2.1607
2.1674
2.12403
1.99013
1.63386
1.42086
1.40033
1.40001
1.40001
1.40001
1.40001
1.40001
1.40001
1.40001
1.40001
1.40001
1.40001
1.40001
1.40001
1.40001
1.40001
1.40001
1.40001
1.40001
1.40001
2.1548
2.15175
2.14701
2.13851
2.1379
2.16098
2.16923
2.12031
1.92132
1.54262
1.40776
1.40009
1.40001
1.40001
1.40001
1.40001
1.40001
1.40001
1.40001
1.40001
1.40001
1.40001
1.40001
1.40001
1.40001
1.40001
1.40001
1.40001
1.40001
1.40001
2.15405
2.15031
2.1467
2.14135
2.13703
2.16121
2.16801
2.08066
1.81329
1.4749
1.40258
1.40002
1.40001
1.40001
1.40001
1.40001
1.40001
1.40001
1.40001
1.40001
1.40001
1.40001
1.40001
1.40001
1.40001
1.40001
1.40001
1.40001
1.40001
1.40001
2.15296
2.14872
2.14785
2.14351
2.13916
2.1639
2.1668
2.0337
1.70562
1.43759
1.40081
1.40001
1.40001
1.40001
1.40001
1.40001
1.40001
1.40001
1.40001
1.40001
1.40001
1.40001
1.40001
1.40001
1.40001
1.40001
1.40001
1.40001
1.40001
1.40001
2.15133
2.14656
2.14883
2.14792
2.14551
2.16302
2.16531
1.98395
1.59971
1.41473
1.40021
1.40001
1.40001
1.40001
1.40001
1.40001
1.40001
1.40001
1.40001
1.40001
1.40001
1.40001
1.40001
1.40001
1.40001
1.40001
1.40001
1.40001
1.40001
1.40001
2.15014
2.14374
2.14612
2.1538
2.1532
2.15082
2.13593
1.88187
1.51013
1.40494
1.40005
1.40001
1.40001
1.40001
1.40001
1.40001
1.40001
1.40001
1.40001
1.40001
1.40001
1.40001
1.40001
1.40001
1.40001
1.40001
1.40001
1.40001
1.40001
1.40001
2.14958
2.14164
2.141
2.15825
2.17235
2.1399
2.08148
1.77225
1.4588
1.40162
1.40002
1.40001
1.40001
1.40001
1.40001
1.40001
1.40001
1.40001
1.40001
1.40001
1.40001
1.40001
1.40001
1.40001
1.40001
1.40001
1.40001
1.40001
1.40001
1.40001
2.14802
2.14037
2.13747
2.16881
2.1826
2.13846
2.03322
1.66127
1.42453
1.40042
1.40001
1.40001
1.40001
1.40001
1.40001
1.40001
1.40001
1.40001
1.40001
1.40001
1.40001
1.40001
1.40001
1.40001
1.40001
1.40001
1.40001
1.40001
1.40001
1.40001
2.14407
2.14004
2.13553
2.17823
2.18941
2.13384
1.94888
1.54855
1.40837
1.4001
1.40001
1.40001
1.40001
1.40001
1.40001
1.40001
1.40001
1.40001
1.40001
1.40001
1.40001
1.40001
1.40001
1.40001
1.40001
1.40001
1.40001
1.40001
1.40001
1.40001
2.13929
2.13891
2.13605
2.18569
2.19257
2.09552
1.825
1.48015
1.40276
1.40003
1.40001
1.40001
1.40001
1.40001
1.40001
1.40001
1.40001
1.40001
1.40001
1.40001
1.40001
1.40001
1.40001
1.40001
1.40001
1.40001
1.40001
1.40001
1.40001
1.40001
2.13482
2.14182
2.14239
2.1876
2.19445
2.06142
1.70538
1.43439
1.40068
1.40001
1.40001
1.40001
1.40001
1.40001
1.40001
1.40001
1.40001
1.40001
1.40001
1.40001
1.40001
1.40001
1.40001
1.40001
1.40001
1.40001
1.40001
1.40001
1.40001
1.40001
2.12894
2.146
2.1499
2.18176
2.19186
1.99335
1.57962
1.41154
1.40015
1.40001
1.40001
1.40001
1.40001
1.40001
1.40001
1.40001
1.40001
1.40001
1.40001
1.40001
1.40001
1.40001
1.40001
1.40001
1.40001
1.40001
1.40001
1.40001
1.40001
1.40001
2.12467
2.15345
2.17402
2.1686
2.14766
1.86268
1.49772
1.40378
1.40004
1.40001
1.40001
1.40001
1.40001
1.40001
1.40001
1.40001
1.40001
1.40001
1.40001
1.40001
1.40001
1.40001
1.40001
1.40001
1.40001
1.40001
1.40001
1.40001
1.40001
1.40001
2.12373
2.171
2.20354
2.16467
2.09556
1.74486
1.4437
1.40096
1.40001
1.40001
1.40001
1.40001
1.40001
1.40001
1.40001
1.40001
1.40001
1.40001
1.40001
1.40001
1.40001
1.40001
1.40001
1.40001
1.40001
1.40001
1.40001
1.40001
1.40001
1.40001
2.1263
2.18544
2.21713
2.16833
2.02531
1.60129
1.41403
1.4002
1.40001
1.40001
1.40001
1.40001
1.40001
1.40001
1.40001
1.40001
1.40001
1.40001
1.40001
1.40001
1.40001
1.40001
1.40001
1.40001
1.40001
1.40001
1.40001
1.40001
1.40001
1.40001
2.13308
2.19284
2.22484
2.14198
1.88682
1.50506
1.40438
1.40004
1.40001
1.40001
1.40001
1.40001
1.40001
1.40001
1.40001
1.40001
1.40001
1.40001
1.40001
1.40001
1.40001
1.40001
1.40001
1.40001
1.40001
1.40001
1.40001
1.40001
1.40001
1.40001
2.14631
2.20079
2.2298
2.09778
1.75351
1.44651
1.40106
1.40001
1.40001
1.40001
1.40001
1.40001
1.40001
1.40001
1.40001
1.40001
1.40001
1.40001
1.40001
1.40001
1.40001
1.40001
1.40001
1.40001
1.40001
1.40001
1.40001
1.40001
1.40001
1.40001
2.16341
2.21135
2.23193
2.03827
1.60679
1.41444
1.40021
1.40001
1.40001
1.40001
1.40001
1.40001
1.40001
1.40001
1.40001
1.40001
1.40001
1.40001
1.40001
1.40001
1.40001
1.40001
1.40001
1.40001
1.40001
1.40001
1.40001
1.40001
1.40001
1.40001
2.18865
2.21117
2.19685
1.88102
1.50216
1.40418
1.40004
1.40001
1.40001
1.40001
1.40001
1.40001
1.40001
1.40001
1.40001
1.40001
1.40001
1.40001
1.40001
1.40001
1.40001
1.40001
1.40001
1.40001
1.40001
1.40001
1.40001
1.40001
1.40001
1.40001
2.25769
2.19223
2.12658
1.73776
1.44486
1.40105
1.40001
1.40001
1.40001
1.40001
1.40001
1.40001
1.40001
1.40001
1.40001
1.40001
1.40001
1.40001
1.40001
1.40001
1.40001
1.40001
1.40001
1.40001
1.40001
1.40001
1.40001
1.40001
1.40001
1.40001
2.33237
2.1574
2.03311
1.59428
1.41373
1.40021
1.40001
1.40001
1.40001
1.40001
1.40001
1.40001
1.40001
1.40001
1.40001
1.40001
1.40001
1.40001
1.40001
1.40001
1.40001
1.40001
1.40001
1.40001
1.40001
1.40001
1.40001
1.40001
1.40001
1.40001
2.38557
2.11441
1.86493
1.49286
1.40401
1.40005
1.40001
1.40001
1.40001
1.40001
1.40001
1.40001
1.40001
1.40001
1.40001
1.40001
1.40001
1.40001
1.40001
1.40001
1.40001
1.40001
1.40001
1.40001
1.40001
1.40001
1.40001
1.40001
1.40001
1.40001
2.41702
2.04273
1.71136
1.43984
1.40107
1.40001
1.40001
1.40001
1.40001
1.40001
1.40001
1.40001
1.40001
1.40001
1.40001
1.40001
1.40001
1.40001
1.40001
1.40001
1.40001
1.40001
1.40001
1.40001
1.40001
1.40001
1.40001
1.40001
1.40001
1.40001
2.42355
1.94566
1.58306
1.4139
1.40024
1.40001
1.40001
1.40001
1.40001
1.40001
1.40001
1.40001
1.40001
1.40001
1.40001
1.40001
1.40001
1.40001
1.40001
1.40001
1.40001
1.40001
1.40001
1.40001
1.40001
1.40001
1.40001
1.40001
1.40001
1.40001
2.33303
1.82168
1.49628
1.40459
1.40006
1.40001
1.40001
1.40001
1.40001
1.40001
1.40001
1.40001
1.40001
1.40001
1.40001
1.40001
1.40001
1.40001
1.40001
1.40001
1.40001
1.40001
1.40001
1.40001
1.40001
1.40001
1.40001
1.40001
1.40001
1.40001
2.22904
1.71177
1.44583
1.40131
1.40002
1.40001
1.40001
1.40001
1.40001
1.40001
1.40001
1.40001
1.40001
1.40001
1.40001
1.40001
1.40001
1.40001
1.40001
1.40001
1.40001
1.40001
1.40001
1.40001
1.40001
1.40001
1.40001
1.40001
1.40001
1.40001
2.12447
1.59273
1.41575
1.40027
1.40001
1.40001
1.40001
1.40001
1.40001
1.40001
1.40001
1.40001
1.40001
1.40001
1.40001
1.40001
1.40001
1.40001
1.40001
1.40001
1.40001
1.40001
1.40001
1.40001
1.40001
1.40001
1.40001
1.40001
1.40001
1.40001
1.94767
1.49981
1.40458
1.40005
1.40001
1.40001
1.40001
1.40001
1.40001
1.40001
1.40001
1.40001
1.40001
1.40001
1.40001
1.40001
1.40001
1.40001
1.40001
1.40001
1.40001
1.40001
1.40001
1.40001
1.40001
1.40001
1.40001
1.40001
1.40001
1.40001
1.74515
1.44207
1.40093
1.40001
1.40001
1.40001
1.40001
1.40001
1.40001
1.40001
1.40001
1.40001
1.40001
1.40001
1.40001
1.40001
1.40001
1.40001
1.40001
1.40001
1.40001
1.40001
1.40001
1.40001
1.40001
1.40001
1.40001
1.40001
1.40001
1.40001
1.5329
1.40852
1.40008
1.40001
1.40001
1.40001
1.40001
1.40001
1.40001
1.40001
1.40001
1.40001
1.40001
1.40001
1.40001
1.40001
1.40001
1.40001
1.40001
1.40001
1.40001
1.40001
1.40001
1.40001
1.40001
1.40001
1.40001
1.40001
1.40001
1.40001
1.40001
1.40001
1.40001
1.40001
1.40001
1.40001
1.40001
1.40001
1.40001
1.40001
1.40001
1.40001
1.40001
1.40001
1.40001
1.40001
1.40001
1.40001
1.40001
1.40001
1.40001
1.40001
1.40001
1.40001
1.40001
1.40001
1.40001
1.40001
1.40001
1.40001
1.40001
1.40001
1.40001
1.40001
1.40001
1.40001
1.40001
1.40001
1.40001
1.40001
1.40001
1.40001
1.40001
1.40001
1.40001
1.40001
1.40001
1.40001
1.40001
1.40001
1.40001
1.40001
1.40001
1.40001
1.40001
1.40001
1.40001
1.40001
1.40001
1.40001
1.40001
1.40001
1.40001
1.40001
1.40001
1.40001
1.40001
1.40001
1.40001
1.40001
1.40001
1.40001
1.40001
1.40001
1.40001
1.40001
1.40001
1.40001
1.40001
1.40001
1.40001
1.40001
1.40001
1.40001
1.40001
1.40001
1.40001
1.40001
1.40001
1.40001
1.40001
1.40001
1.40001
1.40001
1.40001
1.40001
1.40001
1.40001
1.40001
1.40001
1.40001
1.40001
1.40001
1.40001
1.40001
1.40001
1.40001
1.40001
1.40001
1.40001
1.40001
1.40001
1.40001
1.40001
1.40001
1.40001
1.40001
1.40001
1.40001
1.40001
1.40001
1.40001
1.40001
1.40001
1.40001
1.40001
1.40001
1.40001
1.40001
1.40001
1.40001
1.40001
1.40001
1.40001
1.40001
1.40001
1.40001
1.40001
1.40001
1.40001
1.40001
1.40001
1.40001
1.40001
1.40001
1.40001
1.40001
1.40001
1.40001
1.40001
1.40001
1.40001
1.40001
1.40001
1.40001
1.40001
1.40001
1.40001
1.40001
1.40001
1.40001
1.40001
1.40001
1.40001
1.40001
1.40001
1.40001
1.40001
1.40001
1.40001
1.40001
1.40001
1.40001
1.40001
1.40001
1.40001
1.40001
1.40001
1.40001
1.40001
1.40001
1.40001
1.40001
1.40001
1.40001
1.40001
1.40001
1.40001
1.40001
1.40001
1.40001
1.40001
1.40001
1.40001
1.40001
1.40001
1.40001
1.40001
1.40001
1.40001
1.40001
1.40001
1.40001
1.40001
1.40001
1.40001
1.40001
1.40001
1.40001
1.40001
1.40001
1.40001
1.40001
1.40001
1.40001
1.40001
1.40001
1.40001
1.40001
1.40001
1.40001
1.40001
1.40001
1.40001
1.40001
1.40001
1.40001
1.40001
1.40001
1.40001
1.40001
1.40001
1.40001
1.40001
1.40001
1.40001
1.40001
1.40001
1.40001
1.40001
1.40001
1.40001
1.40001
1.40001
1.40001
1.40001
1.40001
1.40001
1.40001
1.40001
1.40001
1.40001
1.40001
1.40001
1.40001
1.40001
1.40001
1.40001
1.40001
1.40001
1.40001
1.40001
1.40001
1.40001
1.40001
1.40001
1.40001
1.40001
1.40001
1.40001
1.40001
1.40001
1.40001
1.40001
1.40001
1.40001
1.40001
1.40001
1.40001
1.40001
1.40001
1.40001
1.40001
1.40001
1.40001
1.40001
1.40001