/*--------------------------------*- C++ -*----------------------------------*\
  =========                 |
  \\      /  F ield         | OpenFOAM: The Open Source CFD Toolbox
   \\    /   O peration     | Website:  https://openfoam.org
    \\  /    A nd           | Version:  7
     \\/     M anipulation  |
\*---------------------------------------------------------------------------*/
FoamFile
{
    version     2.0;
    format      ascii;
    class       volScalarField;
    location    "9.5";
    object      rho;
}
// * * * * * * * * * * * * * * * * * * * * * * * * * * * * * * * * * * * * * //

dimensions      [1 -3 0 0 0 0 0];

internalField   nonuniform List<scalar> 
90000
(
0.909972
0.950482
0.993492
1.03605
1.077
1.11625
1.15346
1.18772
1.21944
1.2472
1.27267
1.29381
1.31311
1.32825
1.34204
1.35233
1.36156
1.36809
1.37381
1.37777
1.38119
1.3834
1.38573
1.38568
1.38435
1.38049
1.3747
1.36952
1.36488
1.36546
1.36711
1.36951
1.3721
1.37471
1.37677
1.37834
1.37945
1.37887
1.37668
1.37473
1.3734
1.37317
1.37361
1.37481
1.37666
1.37871
1.3794
1.37877
1.3772
1.37608
1.37625
1.37656
1.3777
1.37942
1.3795
1.37887
1.3781
1.378
1.37842
1.37935
1.37979
1.37955
1.37897
1.37891
1.37919
1.37966
1.37983
1.37974
1.37977
1.38004
1.38035
1.38035
1.38023
1.38011
1.38008
1.38012
1.3803
1.38054
1.38046
1.38022
1.3798
1.37925
1.37862
1.37796
1.37703
1.37588
1.37472
1.37338
1.37197
1.37064
1.36923
1.36786
1.36666
1.36558
1.36455
1.36318
1.3616
1.36045
1.35942
1.35746
0.877107
0.877623
0.879008
0.882008
0.887074
0.895278
0.906694
0.922621
0.942343
0.967224
0.995523
1.02838
1.06329
1.10068
1.13815
1.17487
1.20987
1.24091
1.26936
1.29153
1.31132
1.32412
1.33575
1.34213
1.34785
1.35069
1.35451
1.35932
1.36648
1.37069
1.37367
1.3767
1.37913
1.38117
1.38089
1.38026
1.3779
1.37493
1.37219
1.37238
1.37315
1.37445
1.37652
1.37864
1.37965
1.3791
1.3779
1.37624
1.37504
1.37526
1.37633
1.37827
1.37985
1.3796
1.37873
1.37765
1.37767
1.37802
1.37881
1.37965
1.3796
1.37906
1.37874
1.3789
1.37933
1.37971
1.37967
1.37967
1.37979
1.3801
1.38035
1.38031
1.38014
1.38007
1.38009
1.38016
1.38036
1.38055
1.38048
1.38015
1.37975
1.37927
1.3787
1.37806
1.37715
1.37603
1.37486
1.37349
1.37206
1.3707
1.36928
1.36793
1.36679
1.36578
1.36467
1.36325
1.3617
1.36056
1.35956
1.35762
0.877434
0.877457
0.877484
0.877518
0.877569
0.877666
0.87788
0.878339
0.879152
0.880615
0.88301
0.887061
0.89316
0.902676
0.915718
0.934319
0.957581
0.987673
1.02209
1.0622
1.1045
1.14839
1.19154
1.23129
1.26889
1.30012
1.32768
1.34616
1.36045
1.36831
1.37362
1.37578
1.37726
1.37799
1.37778
1.3752
1.37028
1.371
1.37355
1.37621
1.37969
1.38255
1.3835
1.38252
1.38085
1.37759
1.37573
1.37511
1.37565
1.37794
1.3806
1.38184
1.38125
1.37945
1.37824
1.37792
1.37858
1.38009
1.38112
1.38075
1.37977
1.3791
1.37926
1.38001
1.38056
1.38033
1.37999
1.38011
1.38059
1.38095
1.38082
1.38061
1.38046
1.38048
1.38058
1.38077
1.38098
1.38098
1.38079
1.3804
1.38003
1.3796
1.37918
1.37862
1.37769
1.37659
1.37538
1.37388
1.37242
1.37103
1.36959
1.3683
1.36728
1.36622
1.36504
1.36357
1.36206
1.361
1.35997
1.35804
0.878193
0.87821
0.878229
0.878251
0.878277
0.878317
0.878343
0.878382
0.878426
0.878475
0.878532
0.878611
0.878733
0.878952
0.879424
0.880312
0.881835
0.884605
0.88913
0.896931
0.908528
0.926726
0.950877
0.984385
1.02408
1.0722
1.12382
1.17521
1.22478
1.26477
1.30112
1.32282
1.34152
1.34956
1.35672
1.36076
1.36786
1.37558
1.38333
1.38891
1.39152
1.39024
1.38863
1.38495
1.37895
1.37637
1.37652
1.37825
1.38164
1.38532
1.38527
1.38388
1.3813
1.37928
1.37932
1.38097
1.3828
1.38382
1.38317
1.38165
1.38032
1.38072
1.38192
1.38267
1.38223
1.38145
1.38151
1.38208
1.3826
1.38242
1.38197
1.38186
1.38194
1.38202
1.38206
1.38216
1.38222
1.38208
1.38177
1.38143
1.38116
1.3808
1.38033
1.37971
1.37877
1.37767
1.37637
1.37485
1.37336
1.37194
1.37048
1.36928
1.36819
1.36718
1.3659
1.3643
1.36288
1.3619
1.36083
1.35891
0.879132
0.879158
0.879186
0.879213
0.879241
0.879268
0.879298
0.879312
0.879325
0.879343
0.879367
0.879399
0.879441
0.87951
0.879547
0.879584
0.879627
0.879683
0.879772
0.879939
0.880266
0.881041
0.882531
0.885591
0.89096
0.901101
0.916871
0.94287
0.977457
1.02499
1.07931
1.13942
1.19904
1.25064
1.29694
1.32976
1.35691
1.36939
1.37743
1.38197
1.38525
1.38602
1.38369
1.37837
1.37927
1.38118
1.38536
1.38876
1.39006
1.38862
1.38543
1.38353
1.3819
1.38223
1.38453
1.38686
1.38659
1.3857
1.38416
1.38296
1.38344
1.38468
1.38524
1.38479
1.384
1.38387
1.38438
1.38489
1.38484
1.38446
1.38418
1.38415
1.38416
1.38412
1.38417
1.38433
1.38431
1.38408
1.38362
1.38327
1.38296
1.38257
1.38218
1.3816
1.38064
1.3795
1.37814
1.37644
1.37489
1.37342
1.37197
1.37075
1.36975
1.3686
1.36721
1.36559
1.36423
1.36323
1.36211
1.36014
0.879978
0.879997
0.880018
0.880039
0.880061
0.880083
0.880105
0.880128
0.88015
0.880171
0.880192
0.880211
0.88023
0.880248
0.880258
0.880264
0.880275
0.880294
0.880323
0.880364
0.880467
0.880479
0.880496
0.880533
0.880619
0.880834
0.881315
0.882628
0.885442
0.891769
0.903123
0.924768
0.956527
1.00463
1.06214
1.1287
1.19562
1.25026
1.29797
1.32476
1.34788
1.35908
1.36675
1.37411
1.38492
1.39354
1.399
1.39774
1.39548
1.39021
1.3821
1.38206
1.38328
1.38661
1.39047
1.39032
1.389
1.38628
1.38475
1.38534
1.38695
1.38815
1.38755
1.3864
1.38578
1.38631
1.38725
1.38737
1.38705
1.38651
1.38636
1.38633
1.38635
1.3864
1.38659
1.38663
1.38642
1.38597
1.38547
1.38521
1.38497
1.38468
1.38431
1.38366
1.38265
1.38147
1.37999
1.37821
1.37663
1.37511
1.37365
1.3725
1.37142
1.37022
1.36875
1.36703
1.36574
1.3647
1.36353
1.3615
0.88059
0.8806
0.880612
0.880625
0.880637
0.88065
0.880662
0.880675
0.880688
0.880702
0.880715
0.880728
0.880741
0.880754
0.880767
0.880779
0.88079
0.8808
0.880809
0.880817
0.880821
0.880827
0.880838
0.880854
0.880879
0.880922
0.881034
0.881028
0.881045
0.881124
0.881362
0.882138
0.884108
0.889296
0.899655
0.921401
0.955249
1.00881
1.07363
1.14679
1.2183
1.2764
1.32745
1.35892
1.37773
1.38519
1.39101
1.3915
1.38724
1.38083
1.38251
1.38598
1.39031
1.39317
1.39191
1.38928
1.38649
1.38591
1.38652
1.38894
1.38983
1.38904
1.38789
1.38718
1.3876
1.38884
1.38892
1.38847
1.38789
1.38795
1.3881
1.38801
1.38785
1.38793
1.3882
1.38818
1.3879
1.38746
1.38706
1.38681
1.38655
1.38627
1.38592
1.38527
1.38429
1.38309
1.38154
1.37973
1.37814
1.37658
1.37515
1.37402
1.37294
1.37165
1.37005
1.36832
1.36711
1.36603
1.3648
1.36267
0.880936
0.88094
0.880945
0.880951
0.880957
0.880962
0.880968
0.880974
0.88098
0.880986
0.880992
0.880998
0.881004
0.88101
0.881017
0.881023
0.88103
0.881037
0.881045
0.881052
0.881059
0.881066
0.881073
0.88108
0.881086
0.881091
0.881098
0.881118
0.881143
0.881172
0.881248
0.881241
0.881252
0.881309
0.881505
0.882249
0.884338
0.890357
0.903069
0.930767
0.973599
1.03875
1.11598
1.19366
1.26528
1.3074
1.34273
1.35674
1.36707
1.37719
1.38967
1.39964
1.40002
1.39828
1.39232
1.38398
1.3843
1.3862
1.38958
1.39222
1.39137
1.38911
1.38693
1.38744
1.38919
1.39047
1.39002
1.38887
1.38814
1.38852
1.38892
1.38887
1.38876
1.38894
1.38913
1.38899
1.38851
1.3881
1.38789
1.38774
1.38753
1.3873
1.38698
1.38633
1.38538
1.38416
1.38254
1.38074
1.37914
1.37754
1.37616
1.37506
1.37392
1.37259
1.37097
1.36926
1.3681
1.36692
1.36567
1.36352
0.881095
0.881097
0.881099
0.881102
0.881104
0.881107
0.881109
0.881112
0.881114
0.881117
0.88112
0.881123
0.881126
0.881129
0.881133
0.881137
0.881142
0.881146
0.881151
0.881157
0.881163
0.881168
0.881175
0.881181
0.881188
0.881196
0.881202
0.88121
0.881219
0.881229
0.881239
0.881261
0.881285
0.881309
0.881355
0.881351
0.881363
0.881435
0.881738
0.882933
0.886313
0.896301
0.916765
0.959497
1.02152
1.1044
1.19099
1.26383
1.3275
1.36338
1.382
1.3897
1.39342
1.38867
1.38093
1.38248
1.38689
1.39119
1.3927
1.39174
1.3882
1.38617
1.38661
1.38927
1.39082
1.39048
1.38904
1.38832
1.38863
1.38915
1.38911
1.38894
1.38907
1.3895
1.38945
1.38921
1.38875
1.38837
1.38821
1.38807
1.38793
1.3878
1.38751
1.38686
1.38594
1.38471
1.38303
1.38129
1.3797
1.37808
1.37675
1.37569
1.37453
1.37313
1.37144
1.3698
1.36872
1.36748
1.3662
1.36403
0.881158
0.881158
0.881159
0.88116
0.881161
0.881162
0.881163
0.881165
0.881166
0.881168
0.881169
0.881171
0.881174
0.881176
0.881179
0.881183
0.881186
0.88119
0.881196
0.881201
0.881206
0.881213
0.881219
0.881225
0.881232
0.881239
0.881247
0.881255
0.881263
0.881271
0.881276
0.881283
0.881289
0.881297
0.881303
0.881315
0.881326
0.881344
0.881338
0.881341
0.881378
0.881571
0.882303
0.885133
0.892912
0.914751
0.954742
1.02502
1.11369
1.20241
1.28181
1.32119
1.35432
1.36344
1.37702
1.38826
1.39875
1.39809
1.395
1.38715
1.38368
1.38509
1.38904
1.39221
1.39142
1.38875
1.38731
1.38802
1.38956
1.38953
1.38911
1.38889
1.38931
1.38975
1.38957
1.38884
1.38852
1.38846
1.3884
1.38828
1.38816
1.3881
1.38782
1.38716
1.38625
1.38497
1.38324
1.38158
1.37998
1.37832
1.37706
1.37601
1.37481
1.3734
1.37169
1.3701
1.36903
1.36775
1.36648
1.36433
0.881194
0.881194
0.881194
0.881195
0.881196
0.881197
0.881198
0.8812
0.881201
0.881203
0.881206
0.881208
0.881211
0.881214
0.881218
0.881222
0.881226
0.881231
0.881236
0.881242
0.881247
0.881253
0.881258
0.881264
0.88127
0.881275
0.881281
0.881286
0.88129
0.881295
0.881298
0.8813
0.8813
0.8813
0.8813
0.881299
0.881298
0.881297
0.881297
0.881296
0.881293
0.881294
0.8813
0.881333
0.881482
0.88222
0.884814
0.894316
0.916683
0.968171
1.04509
1.14232
1.23877
1.30887
1.3635
1.37935
1.39149
1.39109
1.38436
1.38155
1.38523
1.39067
1.39315
1.39213
1.38798
1.3858
1.38661
1.38944
1.38997
1.38938
1.38851
1.3888
1.38979
1.38975
1.38904
1.38835
1.38839
1.38854
1.3885
1.38841
1.38836
1.38829
1.38793
1.38728
1.38642
1.3851
1.38338
1.38182
1.38015
1.3785
1.37732
1.37625
1.37497
1.3735
1.37178
1.3703
1.36927
1.36791
1.36664
1.36453
0.881232
0.881234
0.881235
0.881237
0.881239
0.881241
0.881244
0.881247
0.88125
0.881253
0.881257
0.881261
0.881265
0.88127
0.881274
0.881279
0.881283
0.881288
0.881293
0.881297
0.881301
0.881305
0.881308
0.881311
0.881313
0.881315
0.881316
0.881317
0.881316
0.881315
0.881313
0.881309
0.881305
0.881301
0.881296
0.88129
0.881282
0.881278
0.881272
0.881268
0.881266
0.881266
0.881267
0.881272
0.881282
0.881297
0.881335
0.881528
0.882371
0.88623
0.897893
0.932138
0.992768
1.08874
1.19716
1.27285
1.336
1.35121
1.36766
1.38075
1.39513
1.39861
1.39606
1.38774
1.38335
1.38512
1.38916
1.3908
1.38961
1.3879
1.38818
1.38962
1.39015
1.38941
1.38812
1.38813
1.38846
1.38851
1.38845
1.38841
1.38853
1.38839
1.38795
1.38731
1.38647
1.3852
1.38351
1.38199
1.38027
1.37866
1.37752
1.3764
1.37509
1.3736
1.37189
1.37049
1.36946
1.36802
1.36677
1.3647
0.881282
0.881285
0.881288
0.881292
0.881295
0.881298
0.881302
0.881306
0.88131
0.881315
0.881319
0.881323
0.881328
0.881332
0.881336
0.88134
0.881343
0.881347
0.881349
0.881351
0.881352
0.881353
0.881354
0.881353
0.881352
0.88135
0.881347
0.881343
0.881338
0.881333
0.881326
0.881318
0.881311
0.881302
0.881294
0.881284
0.881276
0.881269
0.881261
0.881256
0.881256
0.881257
0.88126
0.881266
0.88128
0.881302
0.881336
0.881361
0.881385
0.88145
0.881733
0.883362
0.889304
0.911147
0.958372
1.04782
1.15747
1.25409
1.33642
1.36962
1.3877
1.39053
1.38468
1.38132
1.38554
1.39147
1.39235
1.39012
1.38648
1.38675
1.38913
1.39063
1.39005
1.38793
1.38768
1.38813
1.38865
1.3885
1.38836
1.38845
1.38867
1.38846
1.38796
1.38736
1.3865
1.38511
1.38361
1.38214
1.38033
1.37881
1.37772
1.3765
1.37507
1.37355
1.37193
1.37066
1.36959
1.3681
1.36688
1.36485
0.881334
0.881337
0.88134
0.881345
0.881349
0.881351
0.881354
0.881358
0.881361
0.881364
0.881368
0.881371
0.881374
0.881377
0.881379
0.88138
0.881381
0.881382
0.881383
0.881383
0.881382
0.881381
0.881379
0.881377
0.881375
0.881371
0.881366
0.88136
0.881353
0.881346
0.881338
0.881329
0.88132
0.881311
0.881301
0.881292
0.881283
0.881276
0.881269
0.881264
0.881264
0.881265
0.88127
0.881281
0.881301
0.881326
0.881352
0.881383
0.881406
0.881438
0.881455
0.881472
0.881566
0.882251
0.88545
0.899988
0.936314
1.01854
1.12902
1.23053
1.31581
1.34296
1.36353
1.37882
1.39669
1.39916
1.395
1.38466
1.38491
1.38785
1.39161
1.39093
1.38822
1.38672
1.38758
1.38886
1.38873
1.38829
1.38833
1.38878
1.3888
1.38852
1.38803
1.38748
1.38655
1.38511
1.38377
1.38229
1.38044
1.37907
1.37791
1.37656
1.37509
1.37356
1.37202
1.37085
1.36971
1.36818
1.367
1.365
0.881372
0.881373
0.881376
0.881378
0.881381
0.881382
0.881384
0.881386
0.881388
0.881389
0.88139
0.881392
0.881393
0.881393
0.881393
0.881393
0.881393
0.881394
0.881393
0.881391
0.881389
0.881388
0.881384
0.881381
0.881379
0.881375
0.88137
0.881365
0.881359
0.881353
0.881346
0.881339
0.881331
0.881323
0.881316
0.881309
0.881302
0.881297
0.881292
0.88129
0.881291
0.881295
0.881305
0.881321
0.881339
0.881359
0.881379
0.8814
0.881417
0.881436
0.881453
0.881458
0.881451
0.881425
0.881446
0.88178
0.883676
0.894033
0.923882
0.999185
1.10833
1.22177
1.32131
1.36492
1.38773
1.39096
1.38191
1.38213
1.38803
1.39361
1.39232
1.38806
1.38591
1.38668
1.38937
1.38931
1.38835
1.38812
1.38869
1.38918
1.3889
1.38845
1.38812
1.38763
1.3866
1.38521
1.38401
1.38246
1.38065
1.37937
1.37809
1.37664
1.37515
1.37363
1.37217
1.37107
1.36985
1.3683
1.36717
1.36518
0.881394
0.881394
0.881394
0.881396
0.881396
0.881396
0.881396
0.881396
0.881396
0.881396
0.881396
0.881396
0.881395
0.881395
0.881395
0.881393
0.881391
0.88139
0.881387
0.881383
0.881382
0.88138
0.881376
0.881374
0.881373
0.881371
0.881367
0.881365
0.881361
0.881357
0.881354
0.88135
0.881346
0.881342
0.881338
0.881334
0.881331
0.881331
0.88133
0.881331
0.881336
0.881345
0.881357
0.881369
0.881381
0.881392
0.881403
0.881415
0.881427
0.881434
0.881444
0.881446
0.881432
0.881414
0.881394
0.881357
0.881364
0.881558
0.882876
0.890924
0.916835
0.989081
1.10041
1.21499
1.30945
1.34355
1.36453
1.38377
1.40041
1.39865
1.39192
1.38367
1.385
1.38937
1.39071
1.38913
1.3876
1.38825
1.3896
1.38947
1.38873
1.38838
1.3883
1.3878
1.38666
1.38544
1.38429
1.38264
1.38097
1.37972
1.37829
1.37672
1.37527
1.37377
1.37239
1.37133
1.37002
1.36848
1.36737
1.36539
0.881401
0.881401
0.8814
0.8814
0.881399
0.881398
0.881396
0.881394
0.881392
0.881391
0.881389
0.881385
0.881383
0.881381
0.881378
0.881376
0.881374
0.881373
0.881371
0.881369
0.881367
0.881366
0.881365
0.881365
0.881366
0.881366
0.881367
0.881367
0.881367
0.881368
0.881369
0.881372
0.881375
0.881378
0.881381
0.881385
0.881391
0.881393
0.881393
0.881396
0.881402
0.881407
0.881411
0.881414
0.881414
0.881414
0.881418
0.881414
0.88141
0.881407
0.881408
0.881412
0.881407
0.881397
0.881388
0.881378
0.881383
0.881369
0.881365
0.881504
0.882549
0.889631
0.91456
0.986414
1.09862
1.22249
1.32578
1.372
1.39085
1.38887
1.37963
1.38357
1.39073
1.39276
1.39008
1.38649
1.38701
1.38996
1.39007
1.38923
1.38848
1.3886
1.38854
1.38783
1.38673
1.38576
1.38458
1.38284
1.38135
1.38008
1.37846
1.37684
1.37543
1.37395
1.37265
1.37162
1.37021
1.36869
1.36762
1.36562
0.881402
0.881399
0.881397
0.881395
0.881391
0.881389
0.881387
0.881384
0.881382
0.88138
0.881377
0.881373
0.88137
0.881367
0.881365
0.881364
0.881363
0.881362
0.881362
0.881362
0.881362
0.881363
0.881364
0.881365
0.881366
0.881368
0.881372
0.881379
0.881387
0.881396
0.881405
0.881415
0.881424
0.881434
0.881444
0.881453
0.88146
0.881461
0.881462
0.881462
0.881462
0.88146
0.881456
0.881449
0.881438
0.881426
0.881414
0.881398
0.881386
0.88138
0.881375
0.881372
0.881373
0.881379
0.881392
0.881412
0.88143
0.881437
0.881441
0.881424
0.881416
0.881534
0.882522
0.889367
0.915275
0.989993
1.11041
1.23265
1.31815
1.35197
1.37021
1.39261
1.4012
1.39623
1.38498
1.38551
1.38923
1.39186
1.39024
1.3881
1.38836
1.38915
1.38882
1.38782
1.38686
1.38613
1.38483
1.38309
1.38177
1.38037
1.37861
1.37706
1.37564
1.37418
1.37297
1.37192
1.37041
1.36895
1.36789
1.36584
0.881393
0.881391
0.881389
0.881386
0.881384
0.881382
0.88138
0.881378
0.881376
0.881374
0.881372
0.88137
0.881367
0.881365
0.881364
0.881364
0.881364
0.881364
0.881364
0.881364
0.881365
0.881367
0.881369
0.881373
0.881379
0.881386
0.881396
0.881407
0.88142
0.881433
0.881447
0.88146
0.881471
0.881481
0.88149
0.8815
0.881506
0.881507
0.881506
0.881505
0.881501
0.881495
0.881486
0.881472
0.881454
0.881435
0.881415
0.881394
0.881377
0.88137
0.881365
0.881362
0.881363
0.881375
0.881402
0.881438
0.881474
0.881488
0.881491
0.881488
0.881472
0.881438
0.881421
0.88153
0.882606
0.890037
0.920254
1.00155
1.12565
1.26015
1.34535
1.38288
1.39251
1.38178
1.38285
1.3898
1.39396
1.39173
1.38726
1.38736
1.38949
1.38949
1.38838
1.3874
1.38714
1.38652
1.38502
1.38339
1.38222
1.38072
1.37884
1.37734
1.37585
1.37443
1.37332
1.3722
1.37066
1.36925
1.36815
1.36608
0.88139
0.881388
0.881387
0.881385
0.881383
0.881381
0.88138
0.881378
0.881377
0.881376
0.881375
0.881373
0.881372
0.881371
0.881371
0.881371
0.881372
0.881373
0.881375
0.881378
0.881382
0.881387
0.881394
0.881401
0.88141
0.881419
0.881428
0.881437
0.881448
0.881458
0.881468
0.881479
0.88149
0.8815
0.881508
0.881515
0.881521
0.881523
0.881521
0.881518
0.881514
0.881508
0.881499
0.881486
0.881469
0.881449
0.881427
0.881403
0.881382
0.881374
0.88137
0.881369
0.881372
0.881389
0.88142
0.881455
0.881492
0.881512
0.881514
0.881512
0.881499
0.881466
0.881423
0.881399
0.881403
0.881543
0.882979
0.89178
0.929354
1.02126
1.15703
1.2776
1.33721
1.36188
1.38587
1.40113
1.39791
1.38684
1.38547
1.38826
1.39105
1.3896
1.38728
1.38739
1.38758
1.38692
1.3853
1.38387
1.38262
1.38078
1.3791
1.37766
1.37609
1.3747
1.3737
1.37247
1.3708
1.36955
1.36841
1.36624
0.881415
0.881414
0.881414
0.881413
0.881412
0.881412
0.881411
0.88141
0.881411
0.881411
0.881411
0.881411
0.88141
0.88141
0.881412
0.881412
0.881412
0.881414
0.881416
0.881419
0.881423
0.881427
0.881431
0.881434
0.881438
0.881442
0.881446
0.88145
0.881456
0.881464
0.881472
0.881479
0.881487
0.881494
0.881499
0.881502
0.881505
0.881507
0.881505
0.881505
0.881505
0.881504
0.881499
0.881492
0.881482
0.88147
0.881457
0.88144
0.881421
0.881407
0.881401
0.8814
0.881403
0.881416
0.881436
0.881463
0.881492
0.881516
0.881522
0.881519
0.881508
0.881486
0.88145
0.881411
0.881402
0.881406
0.881432
0.881669
0.883751
0.895557
0.945804
1.05073
1.19177
1.31541
1.37314
1.39219
1.38504
1.38146
1.38799
1.39322
1.39159
1.38675
1.38644
1.38826
1.38802
1.3868
1.38541
1.38445
1.38307
1.38096
1.37942
1.37797
1.37632
1.37507
1.37409
1.37269
1.37104
1.36986
1.36865
1.36641
0.8815
0.8815
0.881499
0.881499
0.881498
0.881498
0.881497
0.881496
0.881494
0.881493
0.881491
0.881488
0.881486
0.881484
0.881482
0.88148
0.881476
0.881472
0.881469
0.881466
0.881463
0.881462
0.881459
0.881456
0.881453
0.881452
0.881453
0.881452
0.88145
0.881447
0.881445
0.881443
0.881441
0.881438
0.881437
0.881436
0.881438
0.88144
0.881443
0.88145
0.881462
0.881477
0.881488
0.881496
0.881508
0.881519
0.881524
0.881523
0.881513
0.881497
0.88148
0.881465
0.881451
0.881442
0.881439
0.881441
0.881451
0.881469
0.881484
0.881492
0.881499
0.881502
0.881492
0.881469
0.88145
0.881447
0.881456
0.881484
0.881544
0.881898
0.885156
0.902977
0.96768
1.09588
1.23163
1.32458
1.35581
1.37965
1.40033
1.39773
1.38757
1.38479
1.38718
1.3895
1.38814
1.38621
1.38569
1.38504
1.38328
1.38124
1.37981
1.37816
1.37655
1.37551
1.37446
1.37284
1.37128
1.37017
1.36887
1.36658
0.881589
0.881587
0.881585
0.881583
0.88158
0.881577
0.881573
0.88157
0.881566
0.881561
0.881556
0.881551
0.881544
0.881538
0.881532
0.881526
0.88152
0.881513
0.881505
0.881496
0.881488
0.881481
0.881474
0.881467
0.881459
0.88145
0.881439
0.881431
0.881421
0.881409
0.881401
0.881392
0.881383
0.881377
0.881376
0.881376
0.881378
0.881385
0.881398
0.881417
0.88144
0.881464
0.881493
0.881524
0.881558
0.881592
0.881606
0.881607
0.881601
0.881581
0.881551
0.881519
0.881487
0.881456
0.881422
0.881402
0.881397
0.8814
0.881418
0.881449
0.881485
0.88152
0.881546
0.881554
0.881546
0.881525
0.881507
0.8815
0.881509
0.881525
0.881587
0.882205
0.887669
0.916799
1.00334
1.14328
1.28635
1.36299
1.39063
1.38667
1.38126
1.38741
1.39206
1.39001
1.38605
1.38564
1.38655
1.3856
1.38348
1.38165
1.38017
1.37832
1.37676
1.376
1.37481
1.37298
1.37151
1.37044
1.36909
1.36679
0.881619
0.881616
0.881613
0.881609
0.881605
0.8816
0.881595
0.88159
0.881585
0.88158
0.881575
0.881568
0.88156
0.881552
0.881544
0.881538
0.881532
0.881526
0.881518
0.881507
0.881495
0.881482
0.881469
0.88146
0.88145
0.881439
0.881428
0.881419
0.881408
0.881397
0.881388
0.881378
0.881367
0.881362
0.881361
0.881362
0.881366
0.881377
0.881394
0.881416
0.881446
0.881486
0.881528
0.881564
0.881601
0.881634
0.881647
0.881645
0.881633
0.881607
0.881571
0.881533
0.881495
0.881456
0.881412
0.881378
0.88137
0.881372
0.881389
0.88143
0.881484
0.881547
0.881605
0.881623
0.88162
0.881593
0.881545
0.881506
0.881496
0.881495
0.881506
0.88153
0.881656
0.883045
0.893094
0.939548
1.05529
1.20122
1.31243
1.35181
1.37629
1.39932
1.39663
1.3864
1.38483
1.38701
1.38745
1.38577
1.38368
1.38239
1.38058
1.37852
1.3772
1.37645
1.37503
1.37314
1.37191
1.37067
1.36928
1.36707
0.881596
0.881593
0.881588
0.88158
0.881576
0.881572
0.881566
0.88156
0.881554
0.88155
0.881544
0.881538
0.881531
0.881525
0.881519
0.88151
0.8815
0.881491
0.881483
0.881478
0.881474
0.881469
0.881463
0.881456
0.881447
0.881438
0.88143
0.881421
0.881412
0.881405
0.881398
0.88139
0.881385
0.881382
0.881381
0.881385
0.881394
0.881407
0.88143
0.88146
0.881494
0.881529
0.88156
0.88159
0.88162
0.881642
0.881654
0.881648
0.881628
0.881594
0.881552
0.881512
0.881479
0.881449
0.881412
0.881379
0.881368
0.881372
0.881392
0.88144
0.881505
0.881576
0.881635
0.881653
0.881648
0.881617
0.881563
0.881513
0.881496
0.881496
0.881508
0.881557
0.88165
0.88171
0.882004
0.885003
0.904737
0.978188
1.11426
1.26862
1.35502
1.38931
1.38595
1.3817
1.38746
1.39091
1.38763
1.38425
1.3837
1.38314
1.38091
1.37869
1.37797
1.37689
1.37505
1.37333
1.37234
1.37088
1.36951
1.36742
0.881477
0.881475
0.881473
0.881469
0.881462
0.881459
0.881457
0.881453
0.88145
0.881449
0.881446
0.881444
0.881444
0.881445
0.881447
0.881448
0.881449
0.881452
0.881456
0.88146
0.881461
0.881461
0.881462
0.881464
0.881469
0.881476
0.881484
0.88149
0.881494
0.881497
0.881498
0.8815
0.881505
0.881508
0.881509
0.881512
0.88152
0.881531
0.881544
0.881552
0.881559
0.881566
0.881574
0.881583
0.881587
0.88159
0.881592
0.881578
0.881546
0.881508
0.881474
0.881463
0.881457
0.881448
0.881432
0.881412
0.881404
0.881417
0.881456
0.881509
0.881556
0.881598
0.881629
0.881644
0.881638
0.881605
0.881562
0.881523
0.881504
0.881509
0.881548
0.881636
0.881759
0.881827
0.881819
0.881838
0.882506
0.889235
0.927222
1.035
1.18485
1.30876
1.35004
1.3767
1.39876
1.39483
1.38417
1.38347
1.3853
1.38418
1.38143
1.37926
1.37887
1.37745
1.37533
1.3737
1.37275
1.37113
1.36986
1.3678
0.881374
0.881374
0.881375
0.881376
0.881377
0.881379
0.881382
0.881385
0.881389
0.881394
0.881398
0.881403
0.881409
0.881416
0.881422
0.881429
0.881438
0.881447
0.881457
0.881468
0.881481
0.8815
0.88152
0.881545
0.881571
0.881592
0.881617
0.881638
0.881647
0.881656
0.881666
0.881669
0.881669
0.881667
0.881665
0.881663
0.881658
0.881654
0.881648
0.881634
0.881609
0.881583
0.881557
0.881526
0.881507
0.881501
0.88149
0.881468
0.88144
0.881426
0.881427
0.881433
0.881452
0.881474
0.881495
0.881502
0.881504
0.881524
0.881566
0.881593
0.881605
0.881597
0.881582
0.881575
0.881571
0.881557
0.881552
0.881547
0.881558
0.881598
0.881669
0.881761
0.881849
0.881861
0.881847
0.881755
0.881537
0.881617
0.883725
0.899837
0.968837
1.10545
1.26482
1.35551
1.3892
1.3823
1.38133
1.38773
1.38758
1.38357
1.38063
1.38081
1.37992
1.37726
1.37509
1.37426
1.37319
1.3714
1.37019
1.36819
0.881355
0.881358
0.881361
0.881364
0.881368
0.881373
0.881378
0.881384
0.88139
0.881398
0.881407
0.881417
0.881429
0.881441
0.881453
0.881469
0.881489
0.881514
0.881537
0.881559
0.881581
0.881598
0.881614
0.881642
0.881668
0.881686
0.881705
0.881718
0.881726
0.881734
0.881741
0.881738
0.881729
0.881719
0.881711
0.881703
0.881696
0.881688
0.881678
0.881657
0.881625
0.881588
0.88154
0.881485
0.881461
0.881456
0.881443
0.881414
0.881403
0.881404
0.881417
0.881438
0.881477
0.881531
0.881581
0.881595
0.881589
0.8816
0.881627
0.881631
0.881627
0.881584
0.881535
0.881525
0.881525
0.881535
0.881567
0.881626
0.881713
0.881782
0.881823
0.881862
0.881875
0.881862
0.881764
0.88156
0.881345
0.881267
0.881304
0.881928
0.888112
0.924271
1.03409
1.18722
1.31287
1.35093
1.38033
1.39581
1.39013
1.38057
1.38143
1.38294
1.3807
1.37708
1.37512
1.37505
1.37385
1.37187
1.37069
1.36861
0.881436
0.881443
0.88145
0.88146
0.881468
0.881476
0.881484
0.88149
0.881497
0.881506
0.881516
0.881529
0.881542
0.881556
0.881568
0.881578
0.88159
0.881603
0.881614
0.881626
0.88164
0.881643
0.881649
0.88167
0.881688
0.881703
0.881713
0.881714
0.881713
0.881717
0.881723
0.881713
0.881689
0.881674
0.881668
0.881664
0.881661
0.88165
0.881638
0.881631
0.881621
0.881598
0.881551
0.881485
0.881458
0.881453
0.881443
0.881436
0.881441
0.88146
0.881485
0.881512
0.881543
0.881574
0.881609
0.881624
0.881618
0.881622
0.881628
0.881629
0.881616
0.881562
0.881517
0.881514
0.881516
0.88156
0.881662
0.881789
0.881906
0.881933
0.881914
0.881898
0.881862
0.881733
0.881527
0.881348
0.881256
0.881252
0.881301
0.881432
0.881699
0.883839
0.900345
0.971815
1.11462
1.27331
1.36284
1.38675
1.37659
1.37969
1.38696
1.38486
1.37883
1.37644
1.3765
1.37589
1.37407
1.3723
1.37117
1.36904
0.88164
0.881637
0.881634
0.881637
0.881648
0.881659
0.88166
0.88166
0.881662
0.881659
0.881652
0.881653
0.881647
0.88164
0.881642
0.88164
0.881629
0.881617
0.881604
0.881586
0.88157
0.881564
0.881559
0.881555
0.881556
0.881553
0.881548
0.881543
0.881538
0.881537
0.881541
0.881528
0.88151
0.88151
0.881518
0.881545
0.881571
0.881572
0.881585
0.881625
0.88164
0.881627
0.881589
0.881556
0.881557
0.8816
0.881615
0.881603
0.881615
0.881624
0.881622
0.88161
0.881593
0.881587
0.881578
0.88158
0.881572
0.881559
0.88156
0.881573
0.881587
0.881556
0.881535
0.881544
0.881598
0.881719
0.881845
0.881959
0.881993
0.881977
0.88194
0.881849
0.881675
0.881464
0.881299
0.881233
0.881238
0.881289
0.881457
0.881715
0.881859
0.881896
0.882445
0.888954
0.928382
1.04748
1.20468
1.31993
1.35374
1.38543
1.39264
1.38584
1.37653
1.37717
1.37841
1.37645
1.37413
1.3731
1.37182
1.36934
0.88176
0.881752
0.881744
0.881733
0.881733
0.88174
0.881739
0.881732
0.881724
0.881721
0.881716
0.881698
0.881671
0.881638
0.881598
0.881558
0.881529
0.881512
0.881493
0.88147
0.881452
0.881436
0.881421
0.881418
0.881412
0.881403
0.881403
0.881399
0.881393
0.881396
0.881403
0.881399
0.881395
0.881406
0.881436
0.881492
0.881549
0.881571
0.881596
0.881634
0.881687
0.881723
0.88173
0.881729
0.881758
0.881813
0.881827
0.881801
0.881769
0.881732
0.8817
0.881681
0.88162
0.881514
0.881449
0.881426
0.881431
0.881451
0.881493
0.881539
0.881576
0.881623
0.881678
0.881747
0.881859
0.881946
0.882008
0.882021
0.882012
0.881958
0.881816
0.881603
0.881369
0.881259
0.881222
0.88123
0.881307
0.881502
0.881724
0.881888
0.881911
0.881862
0.881644
0.881714
0.884053
0.904265
0.985365
1.14069
1.29334
1.37142
1.38363
1.37234
1.37662
1.38212
1.37995
1.3757
1.3742
1.37385
1.37226
1.36936
0.881727
0.881715
0.881718
0.881721
0.881712
0.881669
0.881644
0.88163
0.881599
0.881574
0.881552
0.881521
0.881502
0.881488
0.881469
0.881447
0.881439
0.881438
0.881435
0.88142
0.881401
0.881396
0.881388
0.881382
0.881383
0.881375
0.881366
0.881375
0.881374
0.881375
0.8814
0.881408
0.881413
0.881447
0.881497
0.881554
0.881625
0.881695
0.881731
0.881757
0.881799
0.881836
0.881839
0.881837
0.881851
0.881884
0.881895
0.881868
0.881794
0.881745
0.881722
0.881652
0.88154
0.881406
0.881337
0.881336
0.881357
0.881405
0.881481
0.88158
0.881704
0.881842
0.881919
0.881995
0.882051
0.882063
0.882059
0.882021
0.881898
0.881699
0.881464
0.881272
0.88118
0.881205
0.881235
0.881351
0.881567
0.881789
0.881912
0.881935
0.881886
0.881697
0.881396
0.881266
0.881331
0.882303
0.89131
0.941683
1.07646
1.23476
1.32556
1.35579
1.38699
1.38698
1.38111
1.37479
1.37572
1.37479
1.37257
1.36969
0.881395
0.881394
0.881391
0.881388
0.881386
0.881388
0.881389
0.881385
0.881385
0.881388
0.881392
0.881391
0.881378
0.881373
0.881375
0.881381
0.881391
0.881408
0.881429
0.881451
0.881475
0.881496
0.881506
0.881521
0.881529
0.881528
0.881544
0.881566
0.88158
0.881625
0.881656
0.881662
0.881695
0.881754
0.881772
0.881782
0.881803
0.881832
0.881839
0.881831
0.881839
0.881865
0.881858
0.881827
0.88179
0.881778
0.881778
0.881742
0.881661
0.881613
0.881595
0.881559
0.881484
0.881378
0.881324
0.881331
0.881383
0.881513
0.881695
0.881846
0.881984
0.88207
0.882067
0.882083
0.882091
0.882072
0.88197
0.881778
0.881561
0.881366
0.881172
0.881143
0.881165
0.88126
0.881459
0.881714
0.881888
0.881959
0.881956
0.881878
0.881659
0.881405
0.881249
0.881244
0.881344
0.881574
0.882003
0.885724
0.914303
1.01175
1.17978
1.31471
1.37814
1.37824
1.37168
1.37703
1.37809
1.37465
1.3724
1.37027
0.881311
0.881312
0.881312
0.881314
0.881321
0.881324
0.88132
0.881324
0.881343
0.881345
0.881345
0.881371
0.881416
0.881461
0.881506
0.881552
0.881611
0.881666
0.881708
0.881746
0.881781
0.881808
0.881831
0.881852
0.881863
0.88187
0.881885
0.881916
0.881953
0.881959
0.881953
0.881958
0.881959
0.881946
0.88192
0.881886
0.881852
0.881843
0.881827
0.881783
0.881768
0.881744
0.881678
0.881612
0.88154
0.881504
0.8815
0.881459
0.881439
0.881447
0.881466
0.881501
0.881474
0.881467
0.881488
0.881561
0.881728
0.881925
0.882037
0.882124
0.882143
0.882131
0.882109
0.882035
0.881908
0.881754
0.881572
0.881421
0.881297
0.881182
0.881128
0.881158
0.881316
0.881583
0.881872
0.882037
0.882025
0.881992
0.881848
0.88158
0.881325
0.881209
0.881226
0.88135
0.881688
0.881907
0.881921
0.881969
0.883238
0.896986
0.964563
1.11505
1.26966
1.33199
1.36176
1.3865
1.38207
1.37276
1.37253
1.37171
0.88156
0.881591
0.881601
0.881599
0.881615
0.881679
0.881699
0.881705
0.881749
0.881786
0.881769
0.881762
0.881799
0.881827
0.88183
0.881862
0.881915
0.881937
0.881957
0.881984
0.881989
0.881983
0.88199
0.881985
0.881965
0.881972
0.882013
0.882051
0.88206
0.882053
0.882026
0.881973
0.881914
0.881857
0.881803
0.881757
0.881688
0.881633
0.881624
0.8816
0.881531
0.881493
0.881532
0.881544
0.881478
0.881445
0.881448
0.881401
0.881372
0.881425
0.881477
0.881531
0.881673
0.881853