/*--------------------------------*- C++ -*----------------------------------*\
  =========                 |
  \\      /  F ield         | OpenFOAM: The Open Source CFD Toolbox
   \\    /   O peration     | Website:  https://openfoam.org
    \\  /    A nd           | Version:  7
     \\/     M anipulation  |
\*---------------------------------------------------------------------------*/
FoamFile
{
    version     2.0;
    format      ascii;
    class       volScalarField;
    location    "6.5";
    object      T;
}
// * * * * * * * * * * * * * * * * * * * * * * * * * * * * * * * * * * * * * //

dimensions      [0 0 0 1 0 0 0];

internalField   nonuniform List<scalar> 
90000
(
0.892594
0.900066
0.907459
0.914196
0.920561
0.925891
0.930983
0.935812
0.940793
0.945801
0.951348
0.957073
0.963114
0.968988
0.975018
0.980728
0.986484
0.991836
0.997212
1.00218
1.00715
1.01168
1.01619
1.02024
1.02416
1.02773
1.03096
1.03376
1.03656
1.03844
1.04008
1.04181
1.04227
1.04259
1.04246
1.04204
1.04159
1.04081
1.03933
1.03748
1.03508
1.03328
1.03211
1.03176
1.03202
1.03263
1.03353
1.03457
1.03515
1.0358
1.03597
1.03575
1.03523
1.03454
1.03356
1.03244
1.03165
1.03121
1.03133
1.03176
1.03259
1.03297
1.03344
1.03332
1.03278
1.03199
1.03113
1.03053
1.03061
1.031
1.03114
1.03119
1.03105
1.03074
1.03034
1.0303
1.03035
1.03021
1.03021
1.03016
1.02999
1.02982
1.02972
1.02958
1.02951
1.02936
1.02921
1.0291
1.02897
1.02882
1.02864
1.02847
1.02836
1.02828
1.02825
1.02817
1.02802
1.02784
1.02762
1.02723
0.8858
0.886079
0.886624
0.887442
0.888679
0.89018
0.891915
0.893967
0.896405
0.898975
0.90179
0.904866
0.908336
0.912042
0.916182
0.920524
0.925361
0.930255
0.935615
0.940987
0.946648
0.95242
0.958138
0.964115
0.969867
0.975644
0.981354
0.98682
0.992059
0.997227
1.00182
1.00637
1.01008
1.01434
1.01702
1.0192
1.02136
1.02354
1.0248
1.02729
1.02979
1.03209
1.03308
1.03349
1.03338
1.03294
1.03224
1.03137
1.03042
1.02966
1.02946
1.02914
1.02911
1.02922
1.02947
1.02989
1.0301
1.03026
1.03013
1.02978
1.02922
1.02877
1.0283
1.02817
1.0282
1.02853
1.02919
1.02915
1.02894
1.02844
1.02801
1.02766
1.02796
1.02858
1.02885
1.02867
1.02822
1.02759
1.02765
1.0281
1.02837
1.02824
1.0279
1.02768
1.02779
1.02789
1.02783
1.02762
1.0274
1.02727
1.02723
1.02715
1.02705
1.02698
1.02692
1.02679
1.02678
1.02668
1.02654
1.02626
0.884308
0.884277
0.88424
0.884199
0.88416
0.884125
0.884101
0.884083
0.884093
0.884126
0.884197
0.88431
0.884527
0.884844
0.885288
0.885866
0.88664
0.887616
0.88889
0.89045
0.892449
0.894817
0.897778
0.901201
0.90536
0.909967
0.915512
0.921328
0.928158
0.935374
0.942983
0.951251
0.95968
0.967891
0.976482
0.985065
0.99225
0.999941
1.00669
1.01172
1.01465
1.0176
1.01944
1.02073
1.0214
1.02216
1.02238
1.02224
1.02178
1.02104
1.02054
1.02092
1.02179
1.02311
1.02442
1.02534
1.02575
1.02555
1.02479
1.02367
1.02233
1.02144
1.02094
1.02139
1.02275
1.02408
1.02492
1.02475
1.02407
1.02327
1.0226
1.02286
1.02356
1.02451
1.0247
1.0244
1.02386
1.02372
1.02392
1.02432
1.02448
1.0244
1.02429
1.02429
1.02438
1.02449
1.02446
1.02436
1.02436
1.02438
1.02434
1.02427
1.02423
1.02426
1.02426
1.02425
1.02419
1.02412
1.02408
1.02395
0.88232
0.882291
0.882259
0.882222
0.882179
0.882138
0.882095
0.882046
0.881996
0.881955
0.881919
0.881898
0.881842
0.88178
0.881719
0.881659
0.881598
0.881538
0.88149
0.881444
0.881447
0.881471
0.881544
0.881685
0.882001
0.88248
0.883211
0.884237
0.885727
0.887684
0.890526
0.893924
0.898708
0.904239
0.911362
0.91914
0.928774
0.938417
0.949161
0.959592
0.969278
0.978624
0.985594
0.992872
0.997208
1.00197
1.00428
1.00696
1.00825
1.01045
1.01299
1.01606
1.01787
1.01931
1.02019
1.02037
1.02028
1.01961
1.01853
1.01749
1.0165
1.01649
1.01711
1.01799
1.01886
1.0188
1.0188
1.01862
1.01824
1.01823
1.0184
1.0189
1.01926
1.01949
1.01937
1.01923
1.01921
1.01935
1.01946
1.01954
1.01966
1.01984
1.01989
1.02003
1.02009
1.02023
1.02043
1.02041
1.02041
1.0204
1.02042
1.02049
1.0206
1.02072
1.02073
1.02071
1.02071
1.02076
1.02086
1.02092
0.880434
0.880414
0.880393
0.88037
0.880345
0.880318
0.880286
0.880253
0.880221
0.880191
0.880163
0.880133
0.8801
0.88006
0.880018
0.879975
0.879929
0.879885
0.879845
0.879807
0.879774
0.879747
0.879729
0.879722
0.879683
0.87963
0.879575
0.879532
0.879498
0.879505
0.879549
0.879692
0.879991
0.880494
0.881387
0.882715
0.884954
0.887997
0.89282
0.898746
0.907466
0.916949
0.929088
0.941133
0.9543
0.966719
0.977729
0.98821
0.995994
1.00362
1.00716
1.00984
1.0114
1.01265
1.01362
1.01363
1.0128
1.01084
1.01117
1.01198
1.01348
1.01469
1.0156
1.01545
1.01497
1.01412
1.01351
1.01354
1.01398
1.01499
1.0158
1.01616
1.01595
1.01537
1.01509
1.01526
1.01582
1.01625
1.01616
1.01584
1.01586
1.01606
1.01639
1.01659
1.01652
1.01655
1.01673
1.01696
1.0171
1.01708
1.0171
1.01719
1.01729
1.01741
1.01741
1.01743
1.01748
1.01757
1.01769
1.01786
0.879252
0.879243
0.879231
0.879217
0.879202
0.879185
0.879168
0.87915
0.87913
0.879114
0.879102
0.879088
0.879072
0.879054
0.879036
0.879016
0.878987
0.878958
0.878934
0.878912
0.878892
0.878864
0.878832
0.878804
0.87878
0.878759
0.878737
0.878717
0.8787
0.878679
0.878675
0.878642
0.878604
0.878573
0.878549
0.878553
0.878584
0.878665
0.878865
0.879279
0.880154
0.881635
0.884452
0.888507
0.895434
0.903861
0.916123
0.928757
0.943865
0.957611
0.97018
0.980867
0.98804
0.994586
0.997829
1.0014
1.00302
1.00625
1.0099
1.01307
1.01474
1.01521
1.01513
1.01431
1.01287
1.01182
1.01124
1.01172
1.01288
1.01426
1.01461
1.0144
1.01399
1.01329
1.01322
1.01357
1.01404
1.01447
1.01432
1.01398
1.01383
1.01396
1.01425
1.01452
1.01476
1.01466
1.01464
1.01475
1.01489
1.01496
1.01501
1.01511
1.01517
1.01527
1.01522
1.01519
1.01525
1.01536
1.01551
1.01571
0.878839
0.878829
0.878821
0.878814
0.878805
0.878795
0.878786
0.878778
0.878769
0.878761
0.878754
0.878745
0.878728
0.878714
0.878703
0.878693
0.878674
0.878652
0.87864
0.878635
0.878627
0.878614
0.878597
0.87858
0.878567
0.878557
0.878543
0.878523
0.878503
0.878481
0.878447
0.878409
0.878377
0.878347
0.878305
0.878272
0.878249
0.878247
0.87824
0.878233
0.878232
0.878244
0.878293
0.878433
0.878798
0.87956
0.881283
0.884242
0.889874
0.897663
0.909802
0.923485
0.940139
0.955805
0.970957
0.984259
0.995229
1.00466
1.00907
1.01185
1.01328
1.01376
1.01257
1.0091
1.00929
1.01022
1.01192
1.01343
1.01404
1.01394
1.01337
1.01221
1.01205
1.0123
1.01305
1.01366
1.01349
1.0133
1.01315
1.01321
1.01328
1.01341
1.01341
1.01343
1.01354
1.01375
1.01406
1.01402
1.01396
1.01397
1.01403
1.01412
1.01412
1.01408
1.01402
1.01399
1.01404
1.01413
1.01428
1.01443
0.87862
0.878619
0.878617
0.878612
0.878603
0.878595
0.878587
0.878584
0.878585
0.878582
0.878572
0.878562
0.878551
0.878537
0.878529
0.878523
0.878515
0.878506
0.878495
0.878478
0.878465
0.878459
0.878452
0.878439
0.878428
0.87842
0.878409
0.878394
0.878376
0.87835
0.878311
0.878291
0.878278
0.878258
0.87821
0.878152
0.878131
0.878122
0.878113
0.878088
0.878059
0.878044
0.878036
0.878027
0.878004
0.877985
0.877963
0.877999
0.878172
0.878689
0.880006
0.882749
0.888261
0.896703
0.909987
0.925037
0.943535
0.959969
0.975222
0.986505
0.994366
1.00011
1.00287
1.00591
1.01103
1.01375
1.0154
1.0154
1.01503
1.01293
1.01088
1.01091
1.01154
1.01303
1.01415
1.01405
1.01352
1.01258
1.01262
1.01294
1.01343
1.01353
1.0134
1.01312
1.01314
1.01338
1.01363
1.01373
1.01368
1.0137
1.01379
1.01382
1.01377
1.01363
1.01354
1.01354
1.01357
1.01365
1.01378
1.01388
0.878491
0.878491
0.878489
0.878487
0.878485
0.878486
0.878489
0.878486
0.878477
0.87846
0.878451
0.878448
0.878443
0.87843
0.878409
0.878399
0.878398
0.878397
0.878387
0.878365
0.878354
0.878349
0.87834
0.878325
0.878318
0.878311
0.878297
0.878274
0.878233
0.878194
0.878179
0.878171
0.878153
0.878119
0.878067
0.878025
0.878007
0.877994
0.877963
0.877918
0.877899
0.877893
0.877879
0.87785
0.877818
0.87779
0.877756
0.877736
0.877725
0.877713
0.877695
0.877714
0.877863
0.878407
0.879945
0.883313
0.889988
0.900663
0.916239
0.934773
0.955143
0.972685
0.989709
1.00291
1.01024
1.01279
1.01453
1.0142
1.01186
1.00955
1.01013
1.01193
1.01383
1.01434
1.01427
1.01355
1.01233
1.01234
1.01276
1.01342
1.01361
1.01347
1.01318
1.01304
1.01319
1.0134
1.01345
1.01349
1.01354
1.01367
1.01377
1.01372
1.0136
1.01343
1.01335
1.01336
1.0134
1.01348
1.01359
1.01367
0.878325
0.878328
0.878331
0.878333
0.878332
0.878329
0.878318
0.878303
0.878292
0.878289
0.878289
0.878286
0.878275
0.878251
0.878238
0.878237
0.878237
0.878231
0.878216
0.878206
0.8782
0.87819
0.878172
0.878169
0.878169
0.878161
0.878138
0.878099
0.878056
0.87803
0.878011
0.877966
0.877904
0.87786
0.877825
0.877791
0.87776
0.877742
0.877742
0.877752
0.877768
0.877771
0.877767
0.877745
0.87771
0.877677
0.877653
0.877653
0.877663
0.877674
0.877672
0.87765
0.877569
0.877481
0.877477
0.877541
0.877846
0.878861
0.881206
0.886825
0.896314
0.911798
0.931171
0.952286
0.971854
0.9851
0.995496
1.00104
1.00436
1.00923
1.01323
1.01553
1.0155
1.01486
1.01277
1.0118
1.01199
1.01287
1.01404
1.014
1.01365
1.013
1.01302
1.01325
1.01356
1.01351
1.01336
1.01334
1.01353
1.01379
1.01379
1.01372
1.01354
1.01339
1.01329
1.0133
1.01335
1.01344
1.01349
1.01356
0.87811
0.878107
0.8781
0.878091
0.87808
0.878063
0.878048
0.878038
0.878034
0.878034
0.87804
0.878041
0.878037
0.878027
0.878017
0.878014
0.878011
0.878002
0.877993
0.877988
0.87798
0.877962
0.877947
0.877933
0.877899
0.877869
0.877867
0.877863
0.877846
0.877815
0.87777
0.877713
0.877666
0.87763
0.877598
0.877567
0.877538
0.877515
0.877512
0.877513
0.877513
0.877511
0.877509
0.877507
0.877508
0.877512
0.87752
0.877537
0.877571
0.877614
0.877629
0.87762
0.877585
0.877529
0.877463
0.877456
0.877451
0.877473
0.877539
0.877794
0.878537
0.880751
0.885435
0.895798
0.911035
0.933356
0.9557
0.976646
0.996346
1.00773
1.01187
1.01416
1.01372
1.00998
1.00962
1.01076
1.01294
1.01455
1.01449
1.01392
1.01257
1.01261
1.0131
1.01367
1.01361
1.01344
1.01312
1.01323
1.01357
1.01379
1.01375
1.01352
1.01337
1.01336
1.01329
1.0133
1.01332
1.01339
1.01339
1.01343
0.877683
0.87767
0.877665
0.877663
0.877658
0.877651
0.877642
0.877631
0.87762
0.877617
0.877617
0.877616
0.877611
0.877608
0.877607
0.877604
0.877599
0.877596
0.877597
0.877597
0.877596
0.877591
0.877588
0.87758
0.877567
0.877562
0.87756
0.877555
0.877543
0.877525
0.877502
0.877478
0.877453
0.87743
0.877407
0.877381
0.877351
0.877322
0.87731
0.877309
0.877305
0.877298
0.877297
0.877301
0.877315
0.877339
0.877366
0.877403
0.877458
0.877511
0.877548
0.877573
0.877576
0.877556
0.87751
0.877457
0.877428
0.877428
0.877432
0.877435
0.877464
0.877556
0.877794
0.878524
0.880613
0.886197
0.897227
0.915757
0.939451
0.962813
0.981271
0.993106
1.00026
1.00329
1.01009
1.01365
1.01489
1.01475
1.01329
1.01187
1.012
1.01285
1.01396
1.01393
1.01351
1.0129
1.01294
1.01335
1.01367
1.01365
1.01339
1.01323
1.01324
1.01329
1.01327
1.01324
1.01327
1.01328
1.01325
1.01329
0.8773
0.877295
0.877288
0.87728
0.877275
0.877274
0.877272
0.877266
0.877261
0.877258
0.877253
0.87725
0.87725
0.877255
0.877265
0.877265
0.877264
0.877265
0.87727
0.877273
0.877274
0.87728
0.877288
0.877288
0.877284
0.877277
0.877272
0.877261
0.877241
0.877224
0.87721
0.877198
0.877178
0.877171
0.877181
0.877195
0.877196
0.877192
0.877184
0.877175
0.877157
0.877125
0.877103
0.877104
0.87712
0.877147
0.877185
0.877242
0.877313
0.877372
0.877415
0.877456
0.877499
0.877521
0.877511
0.877477
0.87743
0.877376
0.877334
0.877331
0.877336
0.877373
0.877453
0.877478
0.877512
0.877704
0.878497
0.881271
0.888484
0.90336
0.926019
0.951002
0.976441
0.996461
1.00845
1.01179
1.01362
1.01177
1.00875
1.00985
1.01231
1.01407
1.01403
1.01347
1.01228
1.0124
1.01309
1.01354
1.01347
1.01306
1.01279
1.01292
1.01314
1.01318
1.01316
1.01314
1.01316
1.01314
1.01308
1.01312
0.877037
0.877025
0.877012
0.876997
0.876985
0.87698
0.876976
0.876972
0.876969
0.876964
0.876958
0.876957
0.876959
0.876967
0.876972
0.876972
0.876973
0.876975
0.876979
0.876983
0.876986
0.87699
0.876998
0.877009
0.877011
0.87701
0.877009
0.877009
0.877008
0.877007
0.877003
0.877003
0.877012
0.877033
0.877068
0.87711
0.877142
0.877152
0.877152
0.877142
0.877114
0.877066
0.87701
0.876971
0.876962
0.876971
0.877007
0.877068
0.877134
0.87719
0.877237
0.877283
0.877337
0.877396
0.877433
0.877427
0.877402
0.877335
0.877231
0.877163
0.877154
0.877172
0.877232
0.877285
0.877287
0.877249
0.877133
0.877138
0.877406
0.878961
0.883484
0.895387
0.914249
0.941708
0.967307
0.983368
0.997544
1.00108
1.00756
1.01212
1.01423
1.01411
1.01273
1.01143
1.01172
1.01286
1.01367
1.01351
1.01272
1.0123
1.01244
1.01283
1.01297
1.01295
1.01295
1.01301
1.013
1.0129
1.01284
1.01293
0.876841
0.876832
0.876824
0.876815
0.876805
0.876797
0.876792
0.876787
0.876781
0.87678
0.876781
0.876782
0.876785
0.876791
0.87679
0.876789
0.876791
0.876792
0.876794
0.876797
0.876801
0.876807
0.876817
0.876829
0.876832
0.876832
0.876833
0.876836
0.876838
0.876841
0.876852
0.876873
0.876907
0.876951
0.877
0.877052
0.877097
0.877126
0.87714
0.87714
0.877128
0.877092
0.877041
0.876992
0.87695
0.876922
0.876915
0.876921
0.876945
0.876975
0.87701
0.877053
0.877112
0.877186
0.877255
0.877281
0.877274
0.877235
0.877134
0.876998
0.876918
0.876913
0.876934
0.876988
0.877038
0.877038
0.877003
0.876895
0.876784
0.876794
0.876966
0.877927
0.880825
0.890294
0.906774
0.934166
0.961824
0.986
1.00501
1.01028
1.01291
1.01126
1.00805
1.00953
1.01236
1.01385
1.01358
1.01251
1.01171
1.01191
1.01255
1.01274
1.01269
1.01261
1.01274
1.01284
1.01279
1.01261
1.01261
1.01278
0.87683
0.876825
0.87682
0.876814
0.876806
0.876797
0.876787
0.876772
0.876758
0.876759
0.876766
0.876766
0.876764
0.876754
0.876746
0.876745
0.876742
0.876736
0.876735
0.876735
0.87674
0.876751
0.876756
0.876754
0.876743
0.87673
0.876729
0.87673
0.87673
0.876732
0.876739
0.876757
0.876797
0.876846
0.876886
0.876931
0.876981
0.877018
0.87705
0.877078
0.877075
0.877052
0.877026
0.877003
0.87697
0.876915
0.876848
0.876821
0.876825
0.876818
0.876814
0.876823
0.876858
0.876924
0.877018
0.877072
0.877073
0.877061
0.876994
0.87685
0.876694
0.876642
0.876646
0.876673
0.876735
0.876805
0.876812
0.876778
0.876688
0.876618
0.876635
0.876689
0.876834
0.877397
0.879503
0.886794
0.901891
0.929018
0.956797
0.978918
0.994834
1.00031
1.00593
1.01299
1.01391
1.01352
1.01149
1.011
1.01143
1.01248
1.01275
1.01249
1.01215
1.01231
1.01267
1.01265
1.01247
1.01234
1.01248
1.0127
0.876891
0.876895
0.876896
0.876897
0.876896
0.876892
0.876889
0.876887
0.876883
0.876877
0.876874
0.876873
0.87687
0.876855
0.876846
0.876844
0.876835
0.876812
0.8768
0.876797
0.876796
0.876795
0.876785
0.876757
0.876724
0.876698
0.876675
0.876651
0.876634
0.87663
0.876635
0.876659
0.876715
0.876758
0.876786
0.876825
0.876881
0.876927
0.876971
0.877016
0.877032
0.877022
0.877011
0.877011
0.876998
0.876946
0.876879
0.876829
0.876792
0.876749
0.876693
0.876672
0.876673
0.876684
0.876741
0.876841
0.876889
0.876883
0.876836
0.876718
0.876559
0.876443
0.876413
0.876414
0.876446
0.876547
0.876639
0.876641
0.8766
0.876509
0.876482
0.876516
0.876595
0.876608
0.876652
0.876996
0.87863
0.88493
0.89939
0.926163
0.955164
0.984645
1.00338
1.01106
1.0123
1.00881
1.00813
1.00994
1.01234
1.01289
1.0125
1.01154
1.01174
1.01243
1.01257
1.01237
1.01208
1.01217
1.01249
1.01256
0.876846
0.87688
0.876884
0.876882
0.876886
0.876903
0.876906
0.876906
0.876906
0.876908
0.876922
0.876929
0.876927
0.876928
0.876932
0.876931
0.876924
0.876901
0.876876
0.87687
0.876866
0.876837
0.876787
0.876771
0.876758
0.87673
0.876689
0.876638
0.876595
0.876574
0.876573
0.876584
0.876612
0.876642
0.876678
0.876733
0.876783
0.876831
0.876883
0.876926
0.876954
0.876969
0.876992
0.877003
0.876981
0.876929
0.876887
0.876853
0.876819
0.876763
0.876666
0.876556
0.876501
0.876495
0.876506
0.876577
0.876686
0.876712
0.876682
0.876601
0.876496
0.876387
0.876316
0.876285
0.876285
0.876363
0.876493
0.876516
0.876497
0.876427
0.876382
0.876385
0.876408
0.876458
0.87646
0.876462
0.876496
0.876766
0.878299
0.883695
0.898818
0.925443
0.955584
0.980362
0.99436
1.00023
1.00738
1.01319
1.01318
1.0124
1.01081
1.01109
1.0123
1.01267
1.01233
1.0118
1.01186
1.01227
1.01259
1.01246
0.876781
0.87684
0.876853
0.876843
0.876838
0.876851
0.876861
0.87686
0.876859
0.876865
0.876898
0.876943
0.876948
0.876948
0.876958
0.87696
0.87696
0.876953
0.876937
0.876927
0.876916
0.876886
0.876831
0.876806
0.876808
0.876807
0.876783
0.876721
0.87664
0.876572
0.876554
0.876547
0.876529
0.876525
0.876537
0.876564
0.876616
0.876697
0.87671
0.87672
0.876761
0.876828
0.876885
0.87689
0.876849
0.876797
0.876796
0.87682
0.876817
0.876774
0.876657
0.87649
0.876347
0.87631
0.876316
0.876356
0.876459
0.876558
0.876561
0.876532
0.87649
0.87644
0.876365
0.876287
0.876251
0.87626
0.876346
0.876385
0.876371
0.876316
0.876286
0.876291
0.876304
0.876324
0.876363
0.876402
0.876461
0.876454
0.876468
0.876682
0.878124
0.883596
0.899818
0.926745
0.958297
0.990605
1.00534
1.01191
1.01143
1.00762
1.00896
1.01185
1.01305
1.0125
1.01126
1.01136
1.01205
1.01248
1.01245
1.01217
0.876558
0.876592
0.876633
0.876647
0.876658
0.876668
0.876669
0.876665
0.87667
0.876725
0.876775
0.876774
0.876777
0.876796
0.876831
0.876865
0.876903
0.876918
0.876917
0.876916
0.876916
0.876905
0.876875
0.876853
0.876853
0.87685
0.876819
0.876765
0.876708
0.876622
0.876566
0.876546
0.876521
0.876481
0.876444
0.876445
0.876458
0.876456
0.876445
0.876396
0.876354
0.876362
0.876404
0.876457
0.876511
0.876552
0.876593
0.876666
0.87669
0.87668
0.876618
0.876478
0.876284
0.876152
0.876135
0.876162
0.876262
0.876403
0.876492
0.876495
0.876475
0.876442
0.876407
0.876343
0.876268
0.876238
0.876252
0.876276
0.876273
0.876251
0.876246
0.876256
0.876277
0.876296
0.876318
0.876336
0.876363
0.876369
0.876364
0.876313
0.87631
0.876509
0.878129
0.884024
0.901953
0.931523
0.962709
0.986007
0.997333
1.00251
1.01209
1.01346
1.01274
1.01049
1.01075
1.01172
1.01265
1.01258
1.01209
1.01191
0.876278
0.876266
0.876255
0.876254
0.876265
0.876318
0.876364
0.876393
0.876472
0.876594
0.876632
0.876626
0.876604
0.876604
0.87663
0.876689
0.876752
0.876795
0.876821
0.876858
0.876894
0.876897
0.876888
0.876848
0.876798
0.876755
0.876697
0.876685
0.876678
0.876652
0.876563
0.876503
0.87649
0.876476
0.876447
0.876405
0.876354
0.876306
0.876262
0.876188
0.876041
0.875923
0.87591
0.875915
0.875983
0.876123
0.876288
0.876485
0.876571
0.876565
0.87653
0.876452
0.876306
0.876126
0.876065
0.876067
0.876104
0.876237
0.876404
0.876449
0.876442
0.876421
0.876381
0.876341
0.876281
0.876219
0.876214
0.876223
0.87624
0.876259
0.876277
0.876301
0.876332
0.876338
0.876327
0.8763
0.876277
0.876267
0.876244
0.876184
0.876111
0.87605
0.876077
0.876381
0.87831
0.886002
0.906571
0.936764
0.974214
0.997477
1.0113
1.01127
1.00762
1.00815
1.01053
1.01281
1.01265
1.01213
1.0117
1.0118
0.876059
0.876035
0.876007
0.875982
0.87598
0.876006
0.876056
0.876145
0.876305
0.876393
0.876432
0.876497
0.876536
0.876536
0.876542
0.876581
0.876638
0.876683
0.876722
0.876803
0.876901
0.876928
0.876917
0.876854
0.876716
0.876605
0.876507
0.876496
0.876503
0.876503
0.876465
0.876361
0.876338
0.876347
0.876335
0.876334
0.876323
0.876274
0.876202
0.876116
0.875966
0.875761
0.875675
0.875664
0.875692
0.875826
0.876035
0.876275
0.87647
0.876492
0.876484
0.87643
0.876337
0.876221
0.876108
0.876095
0.876124
0.876207
0.876308
0.876362
0.876351
0.876286
0.876218
0.876208
0.876203
0.87619
0.876206
0.876218
0.876228
0.876257
0.876293
0.876327
0.876363
0.876366
0.876348
0.876297
0.876224
0.876167
0.876102
0.87604
0.87599
0.875972
0.875978
0.876001
0.876067
0.876545
0.878947
0.889576
0.912134
0.946158
0.979642
0.991293
1.00033
1.00838
1.01342
1.01319
1.0114
1.01128
1.01161
1.01195
0.875887
0.87586
0.875841
0.875819
0.875774
0.875746
0.875762
0.875828
0.875894
0.875895
0.875893
0.87588
0.875852
0.875845
0.875866
0.875915
0.87594
0.875976
0.876057
0.876224
0.876402
0.876525
0.876576
0.876547
0.87639
0.876223
0.876197
0.876215
0.876288
0.876313
0.876299
0.87625
0.87625
0.876272
0.876243
0.87624
0.876325
0.876404
0.876412
0.876393
0.876246
0.875912
0.875724
0.875691
0.875697
0.875789
0.875985
0.876159
0.876333
0.876452
0.876458
0.876364
0.876281
0.876278
0.876181
0.876075
0.876098
0.87622
0.87628
0.876253
0.876193
0.876121
0.876058
0.876071
0.876131
0.876223
0.876287
0.876284
0.876268
0.876275
0.876292
0.876307
0.876342
0.876354
0.876322
0.87618
0.876027
0.875972
0.875959
0.875973
0.875951
0.875954
0.876008
0.876077
0.876129
0.876121
0.876177
0.876862
0.880186
0.895232
0.920878
0.957417
0.993435
1.00621
1.01226
1.00896
1.00852
1.01027
1.01206
1.01192
0.875778
0.875773
0.875771
0.875772
0.87577
0.87574
0.875677
0.875613
0.875581
0.875576
0.875571
0.875538
0.875477
0.875471
0.875488
0.875478
0.875474
0.875517
0.875686
0.875859
0.875866
0.875847
0.875863
0.87597
0.875969
0.875862
0.875787
0.875784
0.875857
0.876013
0.876052
0.876066
0.876135
0.876218
0.876206
0.876212
0.876334
0.876547
0.876607
0.876597
0.876522
0.876336
0.876133
0.876028
0.876006
0.876033
0.876163
0.876207
0.876185
0.876221
0.876231
0.876156
0.876117
0.876156
0.87614
0.876024
0.876032
0.876167
0.876272
0.876262
0.876197
0.876097
0.876008
0.876026
0.876125
0.876258
0.876344
0.87635
0.87634
0.876314
0.876264
0.876229
0.876215
0.876199
0.87613
0.87598
0.875881
0.875878
0.875908
0.875958
0.876005
0.876069
0.876141
0.87615
0.87614
0.876114
0.876004
0.875917
0.876042
0.877321
0.882737
0.902813
0.934761
0.966481
0.991369
0.997927
1.00861
1.01228
1.01208
1.011
0.875706
0.875787
0.875848
0.875876
0.875899
0.875919
0.875931
0.87593
0.875872
0.875763
0.875695
0.875661
0.875655
0.875656
0.875656
0.875681
0.875782
0.875931
0.875977
0.875973
0.875931
0.875881
0.875862
0.875887
0.875891
0.875814
0.875732
0.875715
0.875744
0.875843
0.87594
0.876008
0.876063
0.876075
0.87604
0.876031
0.876118
0.876338
0.876519
0.876538
0.87646
0.876378
0.87634
0.876291
0.87626
0.876242
0.87623
0.876168
0.876019
0.875954
0.875912
0.875888
0.875889
0.875918
0.875956
0.875942
0.875926
0.876049
0.876335
0.876443
0.876407
0.876284
0.876145
0.876143
0.876216
0.876293
0.876357
0.876381
0.876378
0.876349
0.876217
0.876018
0.875946
0.875926
0.875902
0.875866
0.875844
0.87586
0.875941
0.876045
0.876132
0.876188
0.876186
0.876173
0.876145
0.876038
0.87588
0.875792
0.875799
0.875855
0.876221
0.878595
0.887852
0.913447
0.948116
0.984215
1.00555
1.011
1.00773
1.0087
0.875548
0.875613
0.875671
0.87572
0.875769
0.875817
0.87585
0.875888
0.875963
0.875989
0.875964
0.875906
0.875903
0.875931
0.875997
0.876097
0.876117
0.876118
0.876108
0.87605
0.875897
0.875711
0.875633
0.87558
0.8755
0.875475
0.875496
0.875504
0.875492
0.875493
0.875556
0.875602
0.875582
0.875409
0.875161
0.875104
0.875139
0.875258
0.875419
0.875582
0.875797
0.876056
0.876132
0.87612
0.876097
0.875995
0.875698
0.87564
0.875728
0.875776
0.875776
0.87579
0.875772
0.875682
0.875657
0.875699
0.875775
0.876011
0.876358
0.876498
0.876475
0.876389
0.876292
0.876237
0.876249
0.87628
0.87629
0.876296
0.87628
0.876212
0.876036
0.875813
0.875748
0.875766
0.875813
0.87589
0.875969
0.876037
0.876107
0.876174
0.876208
0.876207
0.876193
0.876133
0.876021
0.875888
0.875819
0.875783
0.8758
0.875906
0.876013
0.876115
0.876769
0.880689
0.895367
0.927357
0.962119
0.986549
0.998347
1.00867
0.874608
0.87468
0.874756
0.874841
0.874942
0.87506
0.875177
0.875294
0.875452
0.875594
0.875598
0.875568
0.875561
0.875586
0.875668
0.875696
0.875691
0.875688
0.875687
0.87567
0.875604
0.875498
0.87536
0.875286
0.875266
0.875236
0.87519
0.875108
0.874932
0.874862
0.874868
0.874812
0.874542
0.874197
0.874007
0.873907
0.873912
0.873972
0.874073
0.874224
0.874472
0.87486
0.875279
0.875401
0.875327
0.874983
0.874787
0.874865
0.875164
0.875607
0.87592
0.875989
0.875967
0.875826
0.875606
0.875571
0.875712
0.876048
0.876341
0.876433
0.876405
0.876321
0.876244
0.876207
0.876124
0.875897
0.875764
0.875752
0.875775
0.875808
0.875792
0.875725
0.875709
0.875749
0.875873
0.876047
0.876142
0.87618
0.876208
0.876227
0.876226
0.876199
0.876116
0.875973
0.875864
0.875815
0.875809
0.875844
0.875918
0.876043
0.876093
0.876097
0.876041
0.876144
0.877459
0.885456
0.906579
0.943171
0.983732
1.00737
0.873735
0.873732
0.873729
0.873725
0.873732
0.873782
0.873865
0.873954
0.873992
0.873977
0.873953
0.873948
0.873992
0.874111
0.874189
0.874199
0.874216
0.8743
0.87438
0.874394
0.874385
0.87435
0.874314
0.874385
0.874493
0.874496
0.874429
0.874345
0.874356
0.874464
0.874541
0.874486
0.874185
0.873848
0.873761
0.873716
0.873617
0.873478
0.873444
0.873505
0.873696
0.874032
0.874446
0.874615
0.874527
0.874263
0.874203
0.874314
0.87463
0.875129
0.875577
0.875698
0.875691
0.875567
0.875269
0.875064
0.875097
0.875225
0.875281
0.875268
0.875257
0.875305
0.875433
0.875501
0.875474
0.875288
0.875141
0.875149
0.875248
0.87546
0.875655
0.875754
0.875845
0.875961
0.87605
0.87611
0.876167
0.876189
0.876212
0.876184
0.876112
0.876002
0.87585
0.875774
0.875787
0.875845
0.875962
0.876032
0.876092
0.876106
0.876101
0.876023
0.875857
0.875736
0.875755
0.876288
0.879314
0.894046
0.92159
0.973482
0.87411
0.874095
0.874089
0.874083
0.874099
0.874209
0.874349
0.874379
0.874356
0.874312
0.874324
0.874434
0.874637
0.874824
0.87489
0.874906
0.874933
0.875038
0.875173
0.875199
0.87512
0.874948
0.874918
0.874947
0.875012
0.875185
0.875386
0.875383
0.875381
0.875498
0.875544
0.875515
0.875536
0.87569
0.876277
0.876732
0.876744
0.876624
0.876161
0.875524
0.875264
0.875262
0.875249
0.875132
0.874831
0.874602
0.874638
0.874998
0.87531
0.87528
0.875234
0.87535
0.875574
0.875586
0.875428
0.875158
0.874933
0.874673
0.874293
0.874177
0.874181
0.874243
0.874443
0.874617
0.874647
0.8746
0.874533
0.874554
0.874683
0.874957
0.875377
0.875668
0.87584
0.875988
0.876043
0.875992
0.875948
0.875938
0.875859
0.875694
0.8756
0.87558
0.875612
0.875685
0.875824
0.876005
0.876132
0.876166
0.876166
0.876137
0.876013
0.875839
0.87575
0.875704
0.875785
0.875876
0.876016
0.877359
0.883332
0.925751
0.880888
0.880649
0.880557
0.880544
0.880559
0.880597
0.880645
0.880856
0.881231
0.881298
0.881278
0.881312
0.881384
0.881367
0.881213
0.880763
0.880586
0.880556
0.880412
0.88005
0.879259
0.878462
0.87804
0.878006
0.878061
0.878206
0.878308
0.878249
0.877998
0.877976
0.878212
0.878542
0.878766
0.879148
0.879666
0.87982
0.879828
0.879657
0.879117
0.878233
0.877508
0.877103
0.876842
0.876637
0.876409
0.875939
0.875644
0.875606
0.875495
0.875166
0.874744
0.874628
0.874705
0.874786
0.874715
0.874711
0.874768
0.874669
0.874307
0.874137
0.874118
0.874148
0.874359
0.874616
0.874721
0.874856
0.875031
0.875208
0.87546
0.875445
0.875272
0.875258
0.875354
0.875406
0.875318
0.875005
0.874848
0.874869
0.874929
0.875005
0.875108
0.875286
0.875545
0.875731
0.875928
0.876061
0.876115
0.876124
0.876074
0.875904
0.87573
0.875647
0.875699
0.875848
0.876004
0.876069
0.876042
0.876022
0.876248
0.888084
0.890336
0.890022
0.888747
0.88805
0.887977
0.888053
0.888263
0.888921
0.890072
0.890475
0.890443
0.890413
0.890697
0.891115
0.89111
0.890805
0.890423
0.889839
0.889087
0.888329
0.887533
0.886743
0.88612
0.885635
0.885236
0.884933
0.884433
0.883483
0.883042
0.883041
0.883048
0.883022
0.882741
0.881703
0.880677
0.880369
0.880377
0.880629
0.880663
0.880599
0.880758
0.880823
0.880481
0.880149
0.880179
0.880256
0.880123
0.879464
0.878501
0.877584
0.876743
0.876161
0.876125
0.876162
0.876098
0.876111
0.876485
0.877107
0.877211
0.877026
0.876643
0.876188
0.875946
0.875973
0.876043
0.876209
0.876535
0.876643
0.876534
0.876115
0.875387
0.875096
0.875053
0.875001
0.874901
0.874649
0.874478
0.874492
0.87458
0.874709
0.874856
0.875094
0.875342
0.875658
0.875852
0.875925
0.87589
0.875739
0.875532
0.875438
0.875463
0.875564
0.875848
0.876131
0.876137
0.876114
0.876043
0.875816
0.875725
0.877438
0.904424
0.90402
0.903528
0.903185
0.902344
0.90119
0.900815
0.900837
0.901046
0.901163
0.901
0.900826
0.900959
0.901484
0.901618
0.901309
0.901199
0.901285
0.901101
0.900496
0.900003
0.899921
0.900029
0.899947
0.899767
0.899984
0.899876
0.89891
0.89824
0.898243
0.898612
0.89892
0.89868
0.897499
0.895611
0.893865
0.892754
0.891877
0.891145
0.890995
0.891173
0.891171
0.890388
0.889874
0.89013
0.89019
0.890032
0.889458
0.888796
0.888474
0.888026
0.886465
0.885097
0.884706
0.884113
0.883077
0.882695
0.882717
0.882615
0.882051
0.881084
0.880092
0.879248
0.878681
0.878072
0.87736
0.876943
0.87667
0.876326
0.875749
0.875104
0.874939
0.874954
0.874948
0.874887
0.874712
0.87462
0.874701
0.875033
0.875452
0.875787
0.875914
0.875829
0.875687
0.875417
0.875168
0.874941
0.874849
0.87489
0.87496
0.875124
0.875602
0.875946
0.876078
0.876045
0.875887
0.875709
0.87555
0.875583
0.875888
0.923691
0.923674
0.923688
0.923642
0.922911
0.92219
0.922043
0.921375
0.920421
0.920415
0.920426
0.92003
0.919845
0.919916
0.919831
0.919509
0.918718
0.918006
0.917665
0.916975
0.915604
0.914856
0.91489
0.914879
0.914335
0.913467
0.912822
0.912243
0.911603
0.910874
0.910584
0.910694
0.910686
0.910104
0.909565
0.908793
0.908134
0.908115
0.908085
0.907769
0.906943
0.905932
0.904769
0.903656
0.902534
0.900722
0.898325
0.897477
0.897633
0.897718
0.896921
0.895174
0.894746
0.894851
0.894792
0.893395
0.890624
0.8889
0.887892
0.886773
0.885869
0.88547
0.885061
0.884397
0.883469
0.882132
0.880175
0.879306
0.879109
0.879084
0.878959
0.878498
0.877788
0.877613
0.877665
0.877897
0.877838
0.877701
0.877575
0.877408
0.877213
0.876799
0.876256
0.875622
0.87507
0.874898
0.874764
0.874789
0.874882
0.875152
0.875558
0.87592
0.875861
0.875686
0.875381
0.875233
0.875261
0.875398
0.875672
0.876016
0.941435
0.94159
0.941984
0.942123
0.942018
0.941469
0.940897
0.940086
0.939295
0.938855
0.93885
0.939033
0.939033
0.938838
0.938425
0.937969
0.937806
0.93793
0.937908
0.937553
0.936669
0.935574
0.935348
0.935421
0.935311
0.934695
0.933656
0.932807
0.932227
0.931751
0.931013
0.930055
0.929169
0.928337
0.927628
0.926757
0.925038
0.924281
0.924016
0.923249
0.922926
0.922927
0.922472
0.921509
0.920457
0.919475
0.918516
0.917569
0.916678
0.915445
0.913292
0.910645
0.909382
0.909436
0.909739
0.909107
0.907146
0.905855
0.904563
0.902367
0.901132
0.900282
0.899445
0.898657
0.897673
0.896127
0.893868
0.891863
0.890749
0.88975
0.88845
0.886933
0.885178
0.883787
0.882564
0.881468
0.880506
0.879495
0.878535
0.877819
0.87695