/*--------------------------------*- C++ -*----------------------------------*\
  =========                 |
  \\      /  F ield         | OpenFOAM: The Open Source CFD Toolbox
   \\    /   O peration     | Website:  https://openfoam.org
    \\  /    A nd           | Version:  7
     \\/     M anipulation  |
\*---------------------------------------------------------------------------*/
FoamFile
{
    version     2.0;
    format      ascii;
    class       volVectorField;
    location    "5.5";
    object      U;
}
// * * * * * * * * * * * * * * * * * * * * * * * * * * * * * * * * * * * * * //

dimensions      [0 1 -1 0 0 0 0];

internalField   nonuniform List<vector> 
90000
(
(5.03933 -0.312455 0)
(5.03727 -0.296073 0)
(5.03562 -0.283151 0)
(5.03287 -0.269343 0)
(5.02985 -0.255961 0)
(5.02754 -0.247703 0)
(5.0247 -0.238839 0)
(5.02178 -0.230708 0)
(5.01875 -0.222811 0)
(5.01615 -0.217787 0)
(5.01298 -0.209961 0)
(5.01043 -0.206476 0)
(5.00718 -0.19907 0)
(5.00469 -0.194803 0)
(5.00138 -0.185708 0)
(4.9992 -0.180187 0)
(4.99694 -0.167287 0)
(4.9964 -0.162939 0)
(4.99471 -0.147363 0)
(4.99444 -0.142385 0)
(4.99294 -0.127951 0)
(4.99243 -0.122203 0)
(4.99094 -0.1098 0)
(4.99007 -0.102889 0)
(4.98862 -0.0918127 0)
(4.98782 -0.0861584 0)
(4.98603 -0.0735381 0)
(4.98569 -0.0707748 0)
(4.98347 -0.0564623 0)
(4.98289 -0.053605 0)
(4.98132 -0.0446228 0)
(4.97942 -0.0336084 0)
(4.97991 -0.0334022 0)
(4.97675 -0.0203294 0)
(4.97564 -0.0146723 0)
(4.97658 -0.0131118 0)
(4.97258 -0.000979208 0)
(4.97276 0.000876673 0)
(4.97207 0.00503909 0)
(4.97104 0.00895584 0)
(4.97089 0.0111665 0)
(4.97172 0.0128088 0)
(4.97171 0.0133474 0)
(4.97164 0.0128989 0)
(4.97176 0.00816555 0)
(4.97019 0.00435724 0)
(4.97143 -0.00859236 0)
(4.96975 -0.0114648 0)
(4.96943 -0.0195847 0)
(4.96931 -0.0222738 0)
(4.96832 -0.0229919 0)
(4.96694 -0.0231347 0)
(4.96528 -0.0222474 0)
(4.96404 -0.0195915 0)
(4.96338 -0.0140855 0)
(4.96395 -0.00900682 0)
(4.96339 -0.00343449 0)
(4.96309 -0.00147986 0)
(4.96349 0.00171207 0)
(4.96325 0.0021666 0)
(4.96337 -0.00065342 0)
(4.96256 -0.0031238 0)
(4.96307 -0.00797505 0)
(4.96341 -0.011606 0)
(4.9645 -0.0138852 0)
(4.96486 -0.0164333 0)
(4.96574 -0.0169692 0)
(4.96444 -0.0134628 0)
(4.96449 -0.0079798 0)
(4.96525 -0.00355324 0)
(4.96555 0.00121914 0)
(4.96542 0.00167002 0)
(4.96621 -0.00184457 0)
(4.96695 -0.00567122 0)
(4.96727 -0.00878423 0)
(4.96888 -0.0101079 0)
(4.9697 -0.0091804 0)
(4.96872 -0.00571112 0)
(4.96863 -0.0023125 0)
(4.96824 -0.00232724 0)
(4.96846 -0.00469959 0)
(4.96822 -0.00707825 0)
(4.96962 -0.00792126 0)
(4.97058 -0.00768694 0)
(4.97005 -0.00436683 0)
(4.96989 -0.00203595 0)
(4.96931 -0.00346532 0)
(4.96956 -0.00464307 0)
(4.96994 -0.00571716 0)
(4.97111 -0.00464404 0)
(4.97127 -0.00424299 0)
(4.97178 -0.00371157 0)
(4.97133 -0.00535035 0)
(4.97146 -0.0056554 0)
(4.97193 -0.00551528 0)
(4.97212 -0.00509733 0)
(4.97231 -0.0036462 0)
(4.97202 -0.00454625 0)
(4.97216 -0.00544915 0)
(4.97249 -0.00588089 0)
(5.03989 -0.323429 0)
(5.03978 -0.323023 0)
(5.0396 -0.322357 0)
(5.03933 -0.32118 0)
(5.03885 -0.319542 0)
(5.03831 -0.317703 0)
(5.03763 -0.315351 0)
(5.03686 -0.313019 0)
(5.0359 -0.309624 0)
(5.03502 -0.306806 0)
(5.03391 -0.302565 0)
(5.0329 -0.299465 0)
(5.03162 -0.2945 0)
(5.03049 -0.290789 0)
(5.02917 -0.285225 0)
(5.0279 -0.280988 0)
(5.02548 -0.274895 0)
(5.02293 -0.269946 0)
(5.01969 -0.26245 0)
(5.01679 -0.256178 0)
(5.0133 -0.246323 0)
(5.01046 -0.238712 0)
(5.00685 -0.22578 0)
(5.00437 -0.217688 0)
(5.0006 -0.200802 0)
(4.99889 -0.194099 0)
(4.99472 -0.173282 0)
(4.99366 -0.167212 0)
(4.98935 -0.144915 0)
(4.98791 -0.134968 0)
(4.98545 -0.12031 0)
(4.98227 -0.100043 0)
(4.98177 -0.0913466 0)
(4.9796 -0.0768527 0)
(4.97664 -0.0529097 0)
(4.97881 -0.0552244 0)
(4.97403 -0.0339332 0)
(4.97283 -0.0174149 0)
(4.97699 -0.024395 0)
(4.97086 -0.00202828 0)
(4.97026 0.00111282 0)
(4.96979 0.00545974 0)
(4.97069 0.00846835 0)
(4.96819 0.0151145 0)
(4.96791 0.0168893 0)
(4.96754 0.0141087 0)
(4.96869 0.0116663 0)
(4.96981 0.0054525 0)
(4.97076 0.00321124 0)
(4.972 -0.000858486 0)
(4.97294 -0.00413132 0)
(4.97377 -0.00680425 0)
(4.97363 -0.00915308 0)
(4.97255 -0.0107191 0)
(4.97227 -0.00731598 0)
(4.97215 -0.00630857 0)
(4.97164 -0.00451201 0)
(4.9707 -0.00382526 0)
(4.97011 -0.00109226 0)
(4.96905 -0.00272766 0)
(4.96902 -0.000622711 0)
(4.96726 -0.00551756 0)
(4.96742 -0.00743416 0)
(4.96778 -0.00965576 0)
(4.96846 -0.0111331 0)
(4.96914 -0.0112435 0)
(4.96925 -0.0115109 0)
(4.96987 -0.00728981 0)
(4.97017 -0.0057335 0)
(4.97056 -0.0032556 0)
(4.96996 -0.00205093 0)
(4.96873 3.61478e-05 0)
(4.9685 -0.00216336 0)
(4.96872 -0.00389907 0)
(4.96888 -0.00483494 0)
(4.96935 -0.00795956 0)
(4.97028 -0.00477031 0)
(4.97019 -0.00445486 0)
(4.97009 -0.00443366 0)
(4.96954 -0.00443236 0)
(4.96911 -0.00302944 0)
(4.96892 -0.00326757 0)
(4.96913 -0.00434715 0)
(4.96973 -0.00434459 0)
(4.96986 -0.00465625 0)
(4.96986 -0.00533757 0)
(4.96925 -0.00316872 0)
(4.96918 -0.0031343 0)
(4.96875 -0.00281173 0)
(4.96964 -0.00424885 0)
(4.96981 -0.00501679 0)
(4.97015 -0.00526819 0)
(4.97014 -0.00505744 0)
(4.9701 -0.00486674 0)
(4.97046 -0.00511271 0)
(4.97062 -0.00479832 0)
(4.97085 -0.00470591 0)
(4.97086 -0.00414163 0)
(4.97082 -0.00445589 0)
(4.97116 -0.0054791 0)
(5.03773 -0.323769 0)
(5.03772 -0.323836 0)
(5.03772 -0.323821 0)
(5.03771 -0.323857 0)
(5.03774 -0.323845 0)
(5.03767 -0.323676 0)
(5.03758 -0.323399 0)
(5.03754 -0.323312 0)
(5.03751 -0.323243 0)
(5.03743 -0.322958 0)
(5.03731 -0.32245 0)
(5.03723 -0.322069 0)
(5.03715 -0.321653 0)
(5.03704 -0.321254 0)
(5.03688 -0.320593 0)
(5.0367 -0.319683 0)
(5.03655 -0.318504 0)
(5.03634 -0.317419 0)
(5.03601 -0.316139 0)
(5.03553 -0.314651 0)
(5.03482 -0.312681 0)
(5.03397 -0.310329 0)
(5.03292 -0.306846 0)
(5.03194 -0.303571 0)
(5.03073 -0.298853 0)
(5.02951 -0.293987 0)
(5.02802 -0.288424 0)
(5.0262 -0.280595 0)
(5.02418 -0.272734 0)
(5.02208 -0.263648 0)
(5.01927 -0.249571 0)
(5.0178 -0.24424 0)
(5.01372 -0.22079 0)
(5.01182 -0.214136 0)
(5.00829 -0.196343 0)
(5.00433 -0.170339 0)
(5.004 -0.169785 0)
(4.99753 -0.132247 0)
(4.99707 -0.129143 0)
(4.99152 -0.0972425 0)
(4.99172 -0.0980143 0)
(4.98598 -0.0647035 0)
(4.9839 -0.0620541 0)
(4.98173 -0.0508197 0)
(4.97862 -0.0375447 0)
(4.98347 -0.0372106 0)
(4.97653 -0.0234711 0)
(4.97632 -0.0168132 0)
(4.97687 -0.0108625 0)
(4.97614 -0.00729908 0)
(4.9757 -0.00392041 0)
(4.97551 -0.00144828 0)
(4.9763 -0.00111899 0)
(4.97673 -0.00214447 0)
(4.97738 -0.00241513 0)
(4.97698 -0.00493457 0)
(4.97634 -0.0065135 0)
(4.97633 -0.00845421 0)
(4.97612 -0.00995578 0)
(4.97541 -0.0102904 0)
(4.97484 -0.012384 0)
(4.97376 -0.00984058 0)
(4.97378 -0.00875623 0)
(4.97378 -0.00801399 0)
(4.97397 -0.00622768 0)
(4.97465 -0.00677566 0)
(4.97463 -0.00435502 0)
(4.976 -0.00922371 0)
(4.97533 -0.0107009 0)
(4.97435 -0.0114002 0)
(4.97392 -0.0105049 0)
(4.97326 -0.0081508 0)
(4.97324 -0.00496101 0)
(4.97251 0.000537426 0)
(4.97253 0.000848309 0)
(4.97334 0.000357035 0)
(4.973 -0.00418717 0)
(4.97277 -0.00958379 0)
(4.97342 -0.0108608 0)
(4.97234 -0.00825515 0)
(4.97211 -0.00616138 0)
(4.97137 -0.00326119 0)
(4.97154 -0.00404687 0)
(4.97139 -0.0067078 0)
(4.97147 -0.00867928 0)
(4.97134 -0.00730949 0)
(4.97115 -0.00557074 0)
(4.97074 -0.0025219 0)
(4.97061 -0.00358018 0)
(4.97069 -0.00500639 0)
(4.97073 -0.00571749 0)
(4.97088 -0.00503329 0)
(4.9708 -0.00485803 0)
(4.97085 -0.00529037 0)
(4.97096 -0.00559714 0)
(4.97109 -0.00521063 0)
(4.97112 -0.00460623 0)
(4.9711 -0.0045509 0)
(4.97113 -0.00511908 0)
(4.97121 -0.00576248 0)
(5.03607 -0.321949 0)
(5.03603 -0.322008 0)
(5.03602 -0.322022 0)
(5.03601 -0.322045 0)
(5.03602 -0.322053 0)
(5.03602 -0.322036 0)
(5.03602 -0.321984 0)
(5.03598 -0.321998 0)
(5.03596 -0.32204 0)
(5.03592 -0.322014 0)
(5.03586 -0.321896 0)
(5.03586 -0.32187 0)
(5.03588 -0.321865 0)
(5.03591 -0.321886 0)
(5.03592 -0.322084 0)
(5.03594 -0.32208 0)
(5.03595 -0.322269 0)
(5.03615 -0.322406 0)
(5.0361 -0.322165 0)
(5.03602 -0.321872 0)
(5.03596 -0.321735 0)
(5.03585 -0.321449 0)
(5.03572 -0.321226 0)
(5.03563 -0.321003 0)
(5.03559 -0.320762 0)
(5.0356 -0.320432 0)
(5.03557 -0.320023 0)
(5.03544 -0.319409 0)
(5.03519 -0.318512 0)
(5.03486 -0.317373 0)
(5.03434 -0.316244 0)
(5.03371 -0.314186 0)
(5.03299 -0.311738 0)
(5.03205 -0.307132 0)
(5.03092 -0.302615 0)
(5.02942 -0.296155 0)
(5.02766 -0.28659 0)
(5.02549 -0.275611 0)
(5.02347 -0.264037 0)
(5.01963 -0.242217 0)
(5.01741 -0.229354 0)
(5.01252 -0.202228 0)
(5.00819 -0.175843 0)
(5.00675 -0.163808 0)
(4.99785 -0.107541 0)
(5.00136 -0.115779 0)
(4.99138 -0.0657579 0)
(4.98948 -0.0617718 0)
(4.98673 -0.0462162 0)
(4.98351 -0.0245372 0)
(4.9844 -0.0311014 0)
(4.97994 -0.0151158 0)
(4.97979 -0.0134617 0)
(4.97854 -0.0109098 0)
(4.97816 -0.00831147 0)
(4.97793 -0.00809177 0)
(4.9779 -0.00961842 0)
(4.97803 -0.00996144 0)
(4.97793 -0.0103051 0)
(4.97777 -0.0105468 0)
(4.97741 -0.0104004 0)
(4.97706 -0.00953605 0)
(4.97707 -0.00686633 0)
(4.97647 -0.00402213 0)
(4.97639 -0.00130103 0)
(4.97624 0.00126452 0)
(4.97629 0.000632491 0)
(4.97642 -0.00171311 0)
(4.97635 -0.00555745 0)
(4.97605 -0.00878804 0)
(4.97617 -0.0109578 0)
(4.97675 -0.0102357 0)
(4.97604 -0.00652369 0)
(4.97613 -0.00462679 0)
(4.97579 -0.00125995 0)
(4.97774 0.00298026 0)
(4.9749 -0.000914336 0)
(4.9751 -0.00288019 0)
(4.97515 -0.00571857 0)
(4.97494 -0.00646263 0)
(4.97485 -0.0055905 0)
(4.97457 -0.00466148 0)
(4.97518 -0.0030685 0)
(4.9742 -0.00356069 0)
(4.97419 -0.00471408 0)
(4.97406 -0.00641242 0)
(4.97402 -0.00558055 0)
(4.97388 -0.00450005 0)
(4.97382 -0.00212967 0)
(4.97368 -0.00277878 0)
(4.97363 -0.00375968 0)
(4.97372 -0.00456904 0)
(4.97372 -0.00419984 0)
(4.9737 -0.00407848 0)
(4.97371 -0.00446409 0)
(4.97369 -0.00534459 0)
(4.97355 -0.00531514 0)
(4.9734 -0.00470953 0)
(4.97319 -0.00442576 0)
(4.97318 -0.0048349 0)
(5.03585 -0.321649 0)
(5.03584 -0.32171 0)
(5.03583 -0.32173 0)
(5.03581 -0.321783 0)
(5.03579 -0.321838 0)
(5.03577 -0.321814 0)
(5.03577 -0.321784 0)
(5.03576 -0.321821 0)
(5.03576 -0.321859 0)
(5.03571 -0.321776 0)
(5.03572 -0.321729 0)
(5.03574 -0.321747 0)
(5.0358 -0.321792 0)
(5.03589 -0.321875 0)
(5.03592 -0.321899 0)
(5.03602 -0.322034 0)
(5.03607 -0.322283 0)
(5.03612 -0.322447 0)
(5.03616 -0.322534 0)
(5.03612 -0.322506 0)
(5.03608 -0.322517 0)
(5.03605 -0.322399 0)
(5.03601 -0.322333 0)
(5.0359 -0.322516 0)
(5.03585 -0.322835 0)
(5.03586 -0.323025 0)
(5.03588 -0.323048 0)
(5.03583 -0.323279 0)
(5.03575 -0.323282 0)
(5.03553 -0.323239 0)
(5.03553 -0.323683 0)
(5.03549 -0.32363 0)
(5.03544 -0.323437 0)
(5.03539 -0.32323 0)
(5.03521 -0.323366 0)
(5.03501 -0.323305 0)
(5.03491 -0.323057 0)
(5.03478 -0.322209 0)
(5.03458 -0.320984 0)
(5.03412 -0.318991 0)
(5.03335 -0.315067 0)
(5.03232 -0.310448 0)
(5.03074 -0.301471 0)
(5.02892 -0.291462 0)
(5.02568 -0.27447 0)
(5.0231 -0.257834 0)
(5.01806 -0.229191 0)
(5.0143 -0.205589 0)
(5.01073 -0.181861 0)
(5.00322 -0.128517 0)
(5.00539 -0.134748 0)
(4.99535 -0.0827818 0)
(4.99148 -0.0669012 0)
(4.99361 -0.0728641 0)
(4.98687 -0.0367962 0)
(4.98694 -0.0444136 0)
(4.98388 -0.0354662 0)
(4.98163 -0.0280431 0)
(4.98203 -0.0239518 0)
(4.98254 -0.0190365 0)
(4.98195 -0.0144162 0)
(4.98024 -0.0108346 0)
(4.97784 -0.00668044 0)
(4.9768 -0.00146613 0)
(4.97634 -0.0016256 0)
(4.97607 -0.00306234 0)
(4.97547 -0.00410918 0)
(4.97446 -0.00718832 0)
(4.97542 -0.00665133 0)
(4.97589 -0.00659402 0)
(4.97683 -0.0054918 0)
(4.97859 -0.00470915 0)
(4.97857 -0.00503929 0)
(4.97835 -0.00528903 0)
(4.9778 -0.00603664 0)
(4.97715 -0.007185 0)
(4.97631 -0.0045807 0)
(4.97626 -0.00344044 0)
(4.97664 -0.00271944 0)
(4.97677 -0.00268776 0)
(4.97735 -0.00643565 0)
(4.97718 -0.00748611 0)
(4.97732 -0.0083411 0)
(4.97691 -0.00617908 0)
(4.97697 -0.00384415 0)
(4.97706 -0.00361706 0)
(4.97731 -0.00517386 0)
(4.97712 -0.00590256 0)
(4.97698 -0.00610229 0)
(4.97677 -0.00426971 0)
(4.977 -0.00418016 0)
(4.9772 -0.00478309 0)
(4.9773 -0.00599845 0)
(4.97714 -0.00543782 0)
(4.97711 -0.00426127 0)
(4.97695 -0.00427843 0)
(4.9768 -0.00545194 0)
(4.9766 -0.00566975 0)
(4.97621 -0.00530554 0)
(4.97623 -0.005122 0)
(5.03668 -0.321348 0)
(5.03667 -0.321365 0)
(5.03665 -0.32126 0)
(5.0366 -0.321256 0)
(5.03655 -0.32135 0)
(5.0365 -0.321318 0)
(5.0365 -0.321232 0)
(5.03649 -0.321281 0)
(5.0365 -0.321359 0)
(5.03651 -0.321342 0)
(5.03653 -0.321279 0)
(5.03659 -0.321218 0)
(5.03667 -0.321175 0)
(5.0367 -0.32131 0)
(5.03678 -0.321569 0)
(5.03682 -0.321642 0)
(5.03683 -0.321689 0)
(5.03681 -0.321895 0)
(5.03676 -0.322043 0)
(5.03669 -0.322173 0)
(5.03663 -0.322136 0)
(5.03663 -0.321935 0)
(5.03651 -0.322255 0)
(5.03647 -0.322445 0)
(5.03647 -0.322323 0)
(5.03641 -0.322491 0)
(5.03635 -0.322803 0)
(5.03635 -0.322917 0)
(5.0364 -0.322883 0)
(5.03647 -0.323066 0)
(5.03634 -0.323875 0)
(5.03643 -0.324465 0)
(5.03647 -0.324522 0)
(5.03656 -0.324258 0)
(5.03635 -0.324604 0)
(5.03609 -0.325377 0)
(5.03619 -0.325765 0)
(5.03631 -0.325957 0)
(5.03641 -0.325675 0)
(5.03642 -0.325599 0)
(5.03635 -0.325737 0)
(5.03634 -0.325727 0)
(5.03634 -0.325614 0)
(5.03627 -0.325037 0)
(5.03603 -0.323916 0)
(5.03552 -0.321548 0)
(5.03469 -0.318449 0)
(5.0332 -0.310615 0)
(5.03139 -0.300776 0)
(5.02857 -0.284955 0)
(5.0253 -0.261109 0)
(5.02096 -0.236998 0)
(5.01458 -0.197421 0)
(5.01285 -0.177378 0)
(5.00139 -0.11076 0)
(5.00576 -0.11489 0)
(4.99411 -0.0608249 0)
(4.99048 -0.0440589 0)
(4.98805 -0.0245493 0)
(4.99088 -0.0225994 0)
(4.98569 -0.00609708 0)
(4.983 0.00183305 0)
(4.98212 0.00809475 0)
(4.97965 0.00326018 0)
(4.9784 -0.00459819 0)
(4.97827 -0.00663667 0)
(4.9759 -0.00898108 0)
(4.97565 -0.00883309 0)
(4.97612 -0.00734755 0)
(4.97762 -0.00441977 0)
(4.97985 2.0303e-05 0)
(4.97897 0.000391909 0)
(4.97894 -0.0021324 0)
(4.97882 -0.00455701 0)
(4.97908 -0.00638366 0)
(4.98017 -0.0080523 0)
(4.97871 -0.00682765 0)
(4.97862 -0.00469765 0)
(4.97908 -0.00246354 0)
(4.97925 -0.00172169 0)
(4.97887 -0.00349684 0)
(4.97896 -0.00528046 0)
(4.97915 -0.00725506 0)
(4.97977 -0.00702719 0)
(4.97944 -0.0058222 0)
(4.97949 -0.00452509 0)
(4.97953 -0.00367392 0)
(4.97933 -0.00454411 0)
(4.97953 -0.00503814 0)
(4.97972 -0.00461736 0)
(4.9796 -0.00379801 0)
(4.97952 -0.00311345 0)
(4.97981 -0.00364567 0)
(4.9798 -0.00464546 0)
(4.97979 -0.0051961 0)
(4.97968 -0.00513291 0)
(4.97964 -0.00495326 0)
(4.97946 -0.00512076 0)
(4.97929 -0.00481416 0)
(4.97947 -0.0047806 0)
(5.03753 -0.323185 0)
(5.03748 -0.323308 0)
(5.03741 -0.323247 0)
(5.03737 -0.323062 0)
(5.03721 -0.323238 0)
(5.03713 -0.323558 0)
(5.03712 -0.323511 0)
(5.03716 -0.323455 0)
(5.03716 -0.323538 0)
(5.03719 -0.323652 0)
(5.03724 -0.323647 0)
(5.03738 -0.323609 0)
(5.0373 -0.323803 0)
(5.03726 -0.324142 0)
(5.03738 -0.32433 0)
(5.03738 -0.324148 0)
(5.03746 -0.323976 0)
(5.03743 -0.324141 0)
(5.03737 -0.324367 0)
(5.03732 -0.324256 0)
(5.03728 -0.324265 0)
(5.03722 -0.324464 0)
(5.03722 -0.324471 0)
(5.03722 -0.324568 0)
(5.0372 -0.324818 0)
(5.03724 -0.324971 0)
(5.03731 -0.325134 0)
(5.03735 -0.32513 0)
(5.03747 -0.324844 0)
(5.03754 -0.324993 0)
(5.03752 -0.325584 0)
(5.03764 -0.325828 0)
(5.03771 -0.325652 0)
(5.03773 -0.325615 0)
(5.03777 -0.32605 0)
(5.03778 -0.326214 0)
(5.03785 -0.326332 0)
(5.0379 -0.326409 0)
(5.03792 -0.326392 0)
(5.03789 -0.326357 0)
(5.03769 -0.326358 0)
(5.03764 -0.326366 0)
(5.0376 -0.326369 0)
(5.03761 -0.326355 0)
(5.03767 -0.326278 0)
(5.03772 -0.326286 0)
(5.03778 -0.326332 0)
(5.03794 -0.326326 0)
(5.03811 -0.325784 0)
(5.03825 -0.324779 0)
(5.03807 -0.322253 0)
(5.03748 -0.318374 0)
(5.03593 -0.309731 0)
(5.03364 -0.296737 0)
(5.03003 -0.279137 0)
(5.02566 -0.248626 0)
(5.01953 -0.210713 0)
(5.01656 -0.187854 0)
(5.00986 -0.143648 0)
(5.00361 -0.0959436 0)
(5.00103 -0.0849402 0)
(5.00044 -0.0767956 0)
(4.99844 -0.0507385 0)
(4.99807 -0.0472913 0)
(4.99499 -0.0385418 0)
(4.99122 -0.0284059 0)
(4.98804 -0.0185687 0)
(4.98499 -0.0115853 0)
(4.97913 -0.0034382 0)
(4.98104 -0.00177109 0)
(4.98283 -0.00140851 0)
(4.98116 -0.00402681 0)
(4.98047 -0.00523076 0)
(4.98019 -0.00977056 0)
(4.98073 -0.00923586 0)
(4.98136 -0.00781286 0)
(4.98114 -0.0070771 0)
(4.98209 -0.00404067 0)
(4.9816 -0.00326718 0)
(4.98066 -0.00491357 0)
(4.98072 -0.00543225 0)
(4.98065 -0.0055625 0)
(4.98076 -0.00590049 0)
(4.98122 -0.00502537 0)
(4.98106 -0.00513249 0)
(4.9809 -0.00520346 0)
(4.98066 -0.00571538 0)
(4.98098 -0.00607283 0)
(4.98106 -0.00551422 0)
(4.98136 -0.0052319 0)
(4.98129 -0.00475548 0)
(4.98125 -0.00428534 0)
(4.98127 -0.00366833 0)
(4.98158 -0.00376396 0)
(4.98158 -0.00399963 0)
(4.98159 -0.00513488 0)
(4.98175 -0.00590166 0)
(4.98177 -0.00569994 0)
(4.98194 -0.00530502 0)
(4.98237 -0.00467557 0)
(5.03873 -0.325132 0)
(5.03864 -0.324921 0)
(5.03865 -0.324633 0)
(5.0384 -0.324888 0)
(5.03824 -0.325406 0)
(5.03827 -0.325552 0)
(5.03826 -0.325542 0)
(5.03825 -0.325609 0)
(5.03835 -0.325837 0)
(5.0384 -0.325942 0)
(5.03847 -0.325975 0)
(5.03855 -0.325895 0)
(5.03864 -0.325829 0)
(5.03855 -0.326053 0)
(5.03859 -0.32635 0)
(5.03859 -0.326309 0)
(5.03866 -0.32609 0)
(5.03859 -0.326242 0)
(5.03842 -0.326666 0)
(5.03832 -0.326775 0)
(5.03824 -0.326815 0)
(5.03822 -0.326948 0)
(5.03831 -0.326902 0)
(5.03851 -0.326732 0)
(5.03859 -0.326972 0)
(5.03863 -0.327544 0)
(5.03869 -0.327691 0)
(5.03872 -0.327303 0)
(5.03884 -0.327023 0)
(5.03871 -0.327281 0)
(5.03871 -0.327599 0)
(5.03883 -0.327832 0)
(5.03892 -0.328042 0)
(5.03895 -0.328031 0)
(5.03915 -0.3279 0)
(5.03923 -0.327867 0)
(5.03928 -0.327864 0)
(5.0393 -0.327871 0)
(5.03932 -0.327948 0)
(5.03931 -0.327978 0)
(5.03917 -0.327734 0)
(5.03916 -0.327657 0)
(5.03915 -0.327615 0)
(5.03923 -0.327478 0)
(5.03935 -0.327436 0)
(5.03945 -0.327482 0)
(5.03962 -0.327578 0)
(5.03993 -0.327561 0)
(5.04024 -0.327501 0)
(5.04079 -0.327235 0)
(5.04096 -0.327146 0)
(5.04113 -0.326835 0)
(5.04126 -0.32632 0)
(5.04119 -0.325096 0)
(5.04095 -0.323081 0)
(5.04036 -0.319397 0)
(5.03904 -0.31171 0)
(5.03692 -0.297924 0)
(5.03288 -0.273977 0)
(5.02951 -0.253275 0)
(5.02131 -0.200762 0)
(5.01666 -0.168036 0)
(5.00978 -0.123284 0)
(5.00406 -0.0734722 0)
(5.00653 -0.0542638 0)
(4.99878 -0.0170431 0)
(4.99846 0.000656466 0)
(4.99449 0.0221374 0)
(4.99121 0.0185143 0)
(4.98837 0.00373691 0)
(4.98572 -0.00419634 0)
(4.98438 -0.00854022 0)
(4.98344 -0.0094859 0)
(4.98376 -0.00930571 0)
(4.98394 -0.00652539 0)
(4.98437 -0.001174 0)
(4.98438 -0.00134022 0)
(4.98418 -0.00272329 0)
(4.98306 -0.00550674 0)
(4.98296 -0.00707992 0)
(4.98295 -0.00692916 0)
(4.98289 -0.0054966 0)
(4.98308 -0.0038886 0)
(4.98239 -0.00292417 0)
(4.98311 -0.0045259 0)
(4.98289 -0.00519166 0)
(4.98307 -0.00651716 0)
(4.98287 -0.00595117 0)
(4.98279 -0.00562004 0)
(4.98296 -0.00508081 0)
(4.98305 -0.00502648 0)
(4.98308 -0.00482398 0)
(4.98277 -0.00399899 0)
(4.98312 -0.00384612 0)
(4.9831 -0.0041284 0)
(4.98325 -0.0048343 0)
(4.98328 -0.00518882 0)
(4.98366 -0.00553948 0)
(4.9842 -0.00504674 0)
(4.9843 -0.00478015 0)
(5.04001 -0.32727 0)
(5.03981 -0.327482 0)
(5.0398 -0.327663 0)
(5.0398 -0.327724 0)
(5.0398 -0.327741 0)
(5.03985 -0.327699 0)
(5.03986 -0.32761 0)
(5.03987 -0.327616 0)
(5.04007 -0.327836 0)
(5.04009 -0.328077 0)
(5.04007 -0.328237 0)
(5.04007 -0.328263 0)
(5.04006 -0.328314 0)
(5.04004 -0.32843 0)
(5.04009 -0.328533 0)
(5.04006 -0.328434 0)
(5.04008 -0.328033 0)
(5.04006 -0.327902 0)
(5.04005 -0.328008 0)
(5.04016 -0.327992 0)
(5.04016 -0.328068 0)
(5.04011 -0.328207 0)
(5.04014 -0.328269 0)
(5.04018 -0.328379 0)
(5.04022 -0.328596 0)
(5.04022 -0.328616 0)
(5.04017 -0.328452 0)
(5.04014 -0.328489 0)
(5.04017 -0.328536 0)
(5.04031 -0.328473 0)
(5.04044 -0.328503 0)
(5.0405 -0.328701 0)
(5.04047 -0.329058 0)
(5.04046 -0.329257 0)
(5.04062 -0.329174 0)
(5.04078 -0.328955 0)
(5.04089 -0.328806 0)
(5.04096 -0.328785 0)
(5.041 -0.328845 0)
(5.041 -0.328836 0)
(5.04091 -0.328598 0)
(5.0409 -0.328493 0)
(5.04094 -0.328397 0)
(5.04105 -0.328216 0)
(5.0412 -0.327979 0)
(5.04133 -0.327713 0)
(5.04147 -0.327437 0)
(5.04163 -0.327246 0)
(5.04185 -0.326772 0)
(5.04237 -0.326149 0)
(5.04263 -0.325871 0)
(5.04268 -0.325709 0)
(5.04273 -0.325561 0)
(5.04278 -0.325323 0)
(5.04289 -0.325181 0)
(5.04295 -0.325014 0)
(5.04296 -0.32459 0)
(5.0429 -0.323506 0)
(5.04268 -0.32104 0)
(5.04205 -0.316464 0)
(5.04032 -0.306981 0)
(5.03803 -0.29523 0)
(5.03176 -0.260702 0)
(5.02944 -0.244449 0)
(5.0203 -0.17561 0)
(5.02057 -0.170186 0)
(5.01185 -0.10476 0)
(5.01319 -0.0980881 0)
(5.00924 -0.0673421 0)
(5.01453 -0.0606845 0)
(5.00269 -0.0355777 0)
(4.99797 -0.0246987 0)
(4.99644 -0.0182253 0)
(4.99004 -0.00857444 0)
(4.98622 -0.00148178 0)
(4.98572 -0.00207759 0)
(4.9853 -0.00507868 0)
(4.98448 -0.00971531 0)
(4.98454 -0.00998836 0)
(4.98467 -0.00941423 0)
(4.98493 -0.00721104 0)
(4.98584 -0.00335372 0)
(4.98574 -0.00296823 0)
(4.98519 -0.0036293 0)
(4.98551 -0.00506832 0)
(4.98504 -0.00690107 0)
(4.98504 -0.00677306 0)
(4.98495 -0.0061309 0)
(4.98532 -0.00528568 0)
(4.98509 -0.00527225 0)
(4.98496 -0.00542037 0)
(4.98485 -0.00500021 0)
(4.98481 -0.00438969 0)
(4.98471 -0.00379935 0)
(4.98456 -0.00402003 0)
(4.98482 -0.00510501 0)
(4.98497 -0.00547928 0)
(4.98513 -0.00530075 0)
(4.98553 -0.00491224 0)
(4.9854 -0.004836 0)
(5.04143 -0.329183 0)
(5.04145 -0.32918 0)
(5.04146 -0.329173 0)
(5.04149 -0.329195 0)
(5.04149 -0.329264 0)
(5.04159 -0.329163 0)
(5.04165 -0.329019 0)
(5.04168 -0.329027 0)
(5.04171 -0.329057 0)
(5.04173 -0.328988 0)
(5.0417 -0.328955 0)
(5.04176 -0.329034 0)
(5.04179 -0.329109 0)
(5.04177 -0.329167 0)
(5.04165 -0.329334 0)
(5.04159 -0.329692 0)
(5.04157 -0.329847 0)
(5.04145 -0.329895 0)
(5.04138 -0.329908 0)
(5.04133 -0.32983 0)
(5.04137 -0.329602 0)
(5.04138 -0.329405 0)
(5.04139 -0.329416 0)
(5.04142 -0.329655 0)
(5.04142 -0.329732 0)
(5.04136 -0.329763 0)
(5.04127 -0.32966 0)
(5.04133 -0.329467 0)
(5.04142 -0.329436 0)
(5.04147 -0.329455 0)
(5.04153 -0.329468 0)
(5.04159 -0.32963 0)
(5.04167 -0.32993 0)
(5.04185 -0.329843 0)
(5.04195 -0.329576 0)
(5.04217 -0.329338 0)
(5.04243 -0.329259 0)
(5.04272 -0.329166 0)
(5.04275 -0.329016 0)
(5.04275 -0.328919 0)
(5.04273 -0.328803 0)
(5.04273 -0.328662 0)
(5.04278 -0.328506 0)
(5.04288 -0.328283 0)
(5.04296 -0.327892 0)
(5.04296 -0.327478 0)
(5.04292 -0.327322 0)
(5.04292 -0.327197 0)
(5.04303 -0.326708 0)
(5.04348 -0.325898 0)
(5.04361 -0.325558 0)
(5.0436 -0.325386 0)
(5.04372 -0.324952 0)
(5.04372 -0.324811 0)
(5.04368 -0.324737 0)
(5.04364 -0.324761 0)
(5.04364 -0.324787 0)
(5.04363 -0.324795 0)
(5.04368 -0.324589 0)
(5.04357 -0.323669 0)
(5.04361 -0.322889 0)
(5.04341 -0.32183 0)
(5.04262 -0.319406 0)
(5.0412 -0.31337 0)
(5.03817 -0.299788 0)
(5.0356 -0.281963 0)
(5.02736 -0.231878 0)
(5.02819 -0.214527 0)
(5.01338 -0.117057 0)
(5.02314 -0.11408 0)
(5.00793 -0.0250788 0)
(5.0116 -0.0280085 0)
(5.00085 0.0145808 0)
(4.9951 0.0194625 0)
(4.99053 0.00923181 0)
(4.9889 -0.0027901 0)
(4.98651 -0.0117358 0)
(4.98651 -0.0119929 0)
(4.98684 -0.0109561 0)
(4.98748 -0.00723782 0)
(4.98852 -0.000492439 0)
(4.9883 -0.000793031 0)
(4.98756 -0.00304974 0)
(4.98716 -0.00527223 0)
(4.98659 -0.00628645 0)
(4.98648 -0.0060759 0)
(4.98669 -0.0048619 0)
(4.98682 -0.00524535 0)
(4.98678 -0.00542768 0)
(4.98664 -0.00581012 0)
(4.9863 -0.00548893 0)
(4.98646 -0.00501083 0)
(4.9866 -0.00442302 0)
(4.98637 -0.00442442 0)
(4.98612 -0.00459286 0)
(4.98609 -0.00480539 0)
(4.98614 -0.00489327 0)
(4.98613 -0.00459263 0)
(4.98623 -0.00462577 0)
(4.98632 -0.00479536 0)
(5.04258 -0.330116 0)
(5.0426 -0.330107 0)
(5.04262 -0.330165 0)
(5.0427 -0.330118 0)
(5.0428 -0.329943 0)
(5.04286 -0.329904 0)
(5.04288 -0.329945 0)
(5.04286 -0.329937 0)
(5.04283 -0.329904 0)
(5.04275 -0.329901 0)
(5.04276 -0.330028 0)
(5.04277 -0.330183 0)
(5.04271 -0.330288 0)
(5.04263 -0.330327 0)
(5.04261 -0.330216 0)
(5.04265 -0.330073 0)
(5.04266 -0.329977 0)
(5.04264 -0.329902 0)
(5.04263 -0.329722 0)
(5.04263 -0.329626 0)
(5.04266 -0.329654 0)
(5.04275 -0.329635 0)
(5.04269 -0.329574 0)
(5.04258 -0.329551 0)
(5.04245 -0.329543 0)
(5.04239 -0.329531 0)
(5.04234 -0.329471 0)
(5.0423 -0.329408 0)
(5.04231 -0.329395 0)
(5.04237 -0.329401 0)
(5.04247 -0.329389 0)
(5.04261 -0.329277 0)
(5.0427 -0.329213 0)
(5.04277 -0.329187 0)
(5.04294 -0.328924 0)
(5.04342 -0.328608 0)
(5.04361 -0.32844 0)
(5.04388 -0.328294 0)
(5.04403 -0.328054 0)
(5.04405 -0.327923 0)
(5.04406 -0.327819 0)
(5.04409 -0.327803 0)
(5.04409 -0.327828 0)
(5.04407 -0.327555 0)
(5.04395 -0.327321 0)
(5.0438 -0.327101 0)
(5.0437 -0.327082 0)
(5.04349 -0.327277 0)
(5.04374 -0.326568 0)
(5.04404 -0.325712 0)
(5.04398 -0.325522 0)
(5.04394 -0.325292 0)
(5.04404 -0.324722 0)
(5.04403 -0.324444 0)
(5.04393 -0.324424 0)
(5.04374 -0.324505 0)
(5.0436 -0.324634 0)
(5.04353 -0.324847 0)
(5.0436 -0.324899 0)
(5.04373 -0.324628 0)
(5.0437 -0.324294 0)
(5.04359 -0.323645 0)
(5.04345 -0.323454 0)
(5.04308 -0.323326 0)
(5.04253 -0.323049 0)
(5.04195 -0.321308 0)
(5.04103 -0.316739 0)
(5.03939 -0.303993 0)
(5.03555 -0.281363 0)
(5.03219 -0.253224 0)
(5.02279 -0.188498 0)
(5.02402 -0.173673 0)
(5.01366 -0.0920458 0)
(5.02259 -0.105844 0)
(5.00919 -0.0598711 0)
(5.00922 -0.0483379 0)
(5.00078 -0.0297717 0)
(4.99883 -0.0167937 0)
(4.99094 -0.00905985 0)
(4.99078 -0.0013832 0)
(4.98998 -0.00312844 0)
(4.98838 -0.00501159 0)
(4.98779 -0.0101968 0)
(4.98739 -0.00840803 0)
(4.98764 -0.00674493 0)
(4.98721 -0.00508584 0)
(4.98792 -0.00401902 0)
(4.9879 -0.00471243 0)
(4.98765 -0.0062323 0)
(4.98785 -0.00637562 0)
(4.98786 -0.00574548 0)
(4.98806 -0.00468952 0)
(4.98796 -0.00464301 0)
(4.98783 -0.00538683 0)
(4.98725 -0.00517987 0)
(4.98718 -0.0048812 0)
(4.98708 -0.00433303 0)
(4.98689 -0.00386031 0)
(4.98722 -0.00465555 0)
(4.98728 -0.00518138 0)
(5.04289 -0.330295 0)
(5.04288 -0.330367 0)
(5.04293 -0.330228 0)
(5.04324 -0.330039 0)
(5.04338 -0.329832 0)
(5.04338 -0.329609 0)
(5.04336 -0.329445 0)
(5.04344 -0.329437 0)
(5.04349 -0.329523 0)
(5.04349 -0.329545 0)
(5.04345 -0.329544 0)
(5.0434 -0.329592 0)
(5.04335 -0.329613 0)
(5.04324 -0.329615 0)
(5.04316 -0.329704 0)
(5.04313 -0.329824 0)
(5.0431 -0.329941 0)
(5.04319 -0.32987 0)
(5.04342 -0.329343 0)
(5.04341 -0.329076 0)
(5.04337 -0.329137 0)
(5.04337 -0.329198 0)
(5.04353 -0.328851 0)
(5.04345 -0.328632 0)
(5.04322 -0.328673 0)
(5.04301 -0.328566 0)
(5.04283 -0.328356 0)
(5.04274 -0.328474 0)
(5.04271 -0.328688 0)
(5.04278 -0.328653 0)
(5.04292 -0.328447 0)
(5.043 -0.328398 0)
(5.04303 -0.328436 0)
(5.04308 -0.328313 0)
(5.04334 -0.327783 0)
(5.04368 -0.327419 0)
(5.04376 -0.327296 0)
(5.04393 -0.327141 0)
(5.04413 -0.326975 0)
(5.0443 -0.326837 0)
(5.04438 -0.326666 0)
(5.04443 -0.326582 0)
(5.04447 -0.326548 0)
(5.0443 -0.326682 0)
(5.04404 -0.326877 0)
(5.04399 -0.326912 0)
(5.04392 -0.327106 0)
(5.04373 -0.327467 0)
(5.0439 -0.327043 0)
(5.04401 -0.326388 0)
(5.04388 -0.326122 0)
(5.0437 -0.325909 0)
(5.04381 -0.325164 0)
(5.0438 -0.324553 0)
(5.04373 -0.324527 0)
(5.04355 -0.324656 0)
(5.0433 -0.324966 0)
(5.04314 -0.325512 0)
(5.04336 -0.32585 0)
(5.04362 -0.325655 0)
(5.04367 -0.32531 0)
(5.04356 -0.32479 0)
(5.04342 -0.324512 0)
(5.04299 -0.324526 0)
(5.0425 -0.324766 0)
(5.04237 -0.325428 0)
(5.04255 -0.32566 0)
(5.04284 -0.324818 0)
(5.0428 -0.322491 0)
(5.04187 -0.31705 0)
(5.03888 -0.304024 0)
(5.03487 -0.279467 0)
(5.02549 -0.228027 0)
(5.02663 -0.190277 0)
(5.01277 -0.0911503 0)
(5.01821 -0.0762444 0)
(5.00496 -0.00796121 0)
(5.00393 0.00396745 0)
(4.99859 0.0244712 0)
(4.99226 0.00587878 0)
(4.9891 -0.00739764 0)
(4.98845 -0.010253 0)
(4.98867 -0.0103889 0)
(4.98931 -0.00749299 0)
(4.9901 -0.000702273 0)
(4.98976 -0.000799039 0)
(4.98912 -0.00272295 0)
(4.98843 -0.00553525 0)
(4.98835 -0.00606894 0)
(4.98856 -0.00563131 0)
(4.98884 -0.00473451 0)
(4.98877 -0.00474073 0)
(4.98834 -0.00535758 0)
(4.98854 -0.00646747 0)
(4.9877 -0.00577491 0)
(4.98788 -0.00460437 0)
(4.98789 -0.00321999 0)
(4.98773 -0.00366294 0)
(4.98791 -0.00434912 0)
(4.98774 -0.00534027 0)
(5.04279 -0.329076 0)
(5.04286 -0.329101 0)
(5.04285 -0.32915 0)
(5.04304 -0.328967 0)
(5.04321 -0.328777 0)
(5.04326 -0.328663 0)
(5.04332 -0.328476 0)
(5.0434 -0.328376 0)
(5.04354 -0.328609 0)
(5.04364 -0.328643 0)
(5.0437 -0.328656 0)
(5.04371 -0.328707 0)
(5.04372 -0.328645 0)
(5.04366 -0.328392 0)
(5.0436 -0.32842 0)
(5.04347 -0.328826 0)
(5.04341 -0.328872 0)
(5.04376 -0.32805 0)
(5.04364 -0.327512 0)
(5.04369 -0.327705 0)
(5.04363 -0.328152 0)
(5.0439 -0.328086 0)
(5.04402 -0.327273 0)
(5.04366 -0.326857 0)
(5.04332 -0.326914 0)
(5.04303 -0.326884 0)
(5.04286 -0.326857 0)
(5.04292 -0.327296 0)
(5.04291 -0.327759 0)
(5.04291 -0.327848 0)
(5.04297 -0.327617 0)
(5.04301 -0.327495 0)
(5.04303 -0.327513 0)
(5.04307 -0.327289 0)
(5.04327 -0.326672 0)
(5.04339 -0.326293 0)
(5.04341 -0.326214 0)
(5.04348 -0.326082 0)
(5.04361 -0.325935 0)
(5.04382 -0.325948 0)
(5.04396 -0.325788 0)
(5.044 -0.325531 0)
(5.04408 -0.325405 0)
(5.04398 -0.32557 0)
(5.04381 -0.325906 0)
(5.0438 -0.325962 0)
(5.04385 -0.326129 0)
(5.04391 -0.326591 0)
(5.04398 -0.326571 0)
(5.04387 -0.326379 0)
(5.04372 -0.32637 0)
(5.04358 -0.326181 0)
(5.04367 -0.325372 0)
(5.04362 -0.324591 0)
(5.04353 -0.324437 0)
(5.04341 -0.324488 0)
(5.04314 -0.324834 0)
(5.04281 -0.325735 0)
(5.04278 -0.326677 0)
(5.0432 -0.326712 0)
(5.04347 -0.326314 0)
(5.04352 -0.326067 0)
(5.04342 -0.325659 0)
(5.04287 -0.325475 0)
(5.0425 -0.32567 0)
(5.04212 -0.326029 0)
(5.04233 -0.326416 0)
(5.04303 -0.326256 0)
(5.04337 -0.325785 0)
(5.04335 -0.325783 0)
(5.04294 -0.32553 0)
(5.04214 -0.323199 0)
(5.0405 -0.316328 0)
(5.03774 -0.298122 0)
(5.03285 -0.267638 0)
(5.02709 -0.22216 0)
(5.01886 -0.161008 0)
(5.0151 -0.123999 0)
(5.0117 -0.084767 0)
(5.0215 -0.06955 0)
(5.00318 -0.0365033 0)
(4.99823 -0.0232327 0)
(4.99615 -0.0135219 0)
(4.99171 -0.00436641 0)
(4.99053 -0.00437126 0)
(4.98918 -0.00515668 0)
(4.98802 -0.00962686 0)
(4.98784 -0.00796928 0)
(4.98813 -0.00645651 0)
(4.98854 -0.00399723 0)
(4.98851 -0.00416781 0)
(4.98823 -0.00571994 0)
(4.98777 -0.00735011 0)
(4.9879 -0.00689418 0)
(4.98807 -0.0052796 0)
(4.98792 -0.0037647 0)
(4.98779 -0.0037955 0)
(4.98782 -0.00430096 0)
(4.98743 -0.00531973 0)
(4.98754 -0.0053951 0)