/*--------------------------------*- C++ -*----------------------------------*\
  =========                 |
  \\      /  F ield         | OpenFOAM: The Open Source CFD Toolbox
   \\    /   O peration     | Website:  https://openfoam.org
    \\  /    A nd           | Version:  7
     \\/     M anipulation  |
\*---------------------------------------------------------------------------*/
FoamFile
{
    version     2.0;
    format      ascii;
    class       volScalarField;
    location    "3";
    object      rho;
}
// * * * * * * * * * * * * * * * * * * * * * * * * * * * * * * * * * * * * * //

dimensions      [1 -3 0 0 0 0 0];

internalField   nonuniform List<scalar> 
90000
(
1.04342
1.05162
1.06022
1.06891
1.07766
1.08646
1.09443
1.10252
1.11038
1.11835
1.12593
1.13402
1.14203
1.15186
1.16289
1.17589
1.1893
1.20382
1.21782
1.23226
1.24589
1.25961
1.27239
1.28506
1.29668
1.30791
1.31813
1.32773
1.33561
1.34369
1.3495
1.3535
1.35791
1.36085
1.361
1.36067
1.36005
1.35951
1.35783
1.35228
1.3434
1.33487
1.32951
1.32861
1.32984
1.33278
1.33665
1.34031
1.34376
1.34458
1.34589
1.3475
1.34742
1.3462
1.34317
1.34074
1.33864
1.33847
1.33882
1.33986
1.34199
1.34265
1.3442
1.34557
1.34555
1.34487
1.34444
1.3437
1.34375
1.34412
1.34423
1.34547
1.34683
1.34889
1.348
1.34734
1.34625
1.34622
1.347
1.34848
1.34969
1.34946
1.34901
1.34927
1.34995
1.35057
1.35038
1.35032
1.35048
1.35107
1.35146
1.35146
1.35139
1.35148
1.3515
1.3513
1.3506
1.34839
1.34503
1.3378
1.03837
1.03892
1.04004
1.04164
1.04379
1.04667
1.04999
1.05379
1.05816
1.06316
1.0686
1.07456
1.08104
1.08806
1.09549
1.10379
1.11262
1.12265
1.13314
1.1448
1.15703
1.1699
1.18373
1.19745
1.21211
1.22662
1.24118
1.25585
1.27006
1.28328
1.29675
1.30845
1.32012
1.32855
1.33742
1.34544
1.34854
1.35068
1.3531
1.356
1.35981
1.36211
1.36318
1.36197
1.35911
1.35504
1.35079
1.34727
1.34545
1.34328
1.34351
1.34455
1.34639
1.34854
1.3508
1.35332
1.35418
1.35349
1.35148
1.34885
1.34617
1.34383
1.34344
1.34451
1.3476
1.35088
1.35342
1.35262
1.35066
1.34823
1.34662
1.34753
1.35048
1.35367
1.35338
1.35171
1.34886
1.34856
1.34978
1.35229
1.35332
1.35278
1.3518
1.35186
1.35253
1.35342
1.35333
1.35309
1.35312
1.35328
1.35369
1.35395
1.35391
1.35392
1.35374
1.35329
1.35242
1.35037
1.34707
1.33951
1.03997
1.04001
1.04007
1.04013
1.0402
1.04029
1.04042
1.04059
1.04083
1.04117
1.04161
1.0422
1.04312
1.04437
1.04588
1.04771
1.04989
1.05255
1.05571
1.05957
1.06411
1.06969
1.07612
1.08394
1.09281
1.10348
1.11524
1.12925
1.14428
1.16104
1.17986
1.19889
1.2191
1.24078
1.26134
1.28083
1.30241
1.31892
1.33536
1.34925
1.3582
1.3624
1.36505
1.36489
1.36445
1.36374
1.36283
1.36119
1.35787
1.35376
1.35141
1.35257
1.35479
1.35787
1.36032
1.36296
1.36277
1.3615
1.35921
1.35597
1.35318
1.34996
1.35037
1.35232
1.35498
1.35767
1.35897
1.35933
1.3583
1.35608
1.35528
1.35569
1.357
1.35813
1.35897
1.35853
1.35753
1.35638
1.3565
1.35707
1.35796
1.35822
1.35788
1.35741
1.35744
1.3578
1.35799
1.358
1.35794
1.35798
1.35829
1.35845
1.35837
1.35815
1.35781
1.35716
1.35623
1.35393
1.35037
1.34275
1.04286
1.04288
1.04288
1.0429
1.04293
1.04296
1.04299
1.04303
1.0431
1.04318
1.04327
1.04344
1.04356
1.04365
1.04371
1.04377
1.04387
1.04402
1.04423
1.04448
1.04479
1.0452
1.04575
1.04671
1.04801
1.04983
1.05219
1.05536
1.05949
1.06511
1.07189
1.08145
1.09236
1.10656
1.12332
1.14331
1.16477
1.19026
1.21672
1.24256
1.26913
1.29049
1.3129
1.32627
1.33965
1.34605
1.35292
1.35579
1.35677
1.35877
1.36368
1.36684
1.36891
1.36948
1.36911
1.36848
1.36724
1.36477
1.36354
1.36221
1.36231
1.3626
1.36322
1.36336
1.3629
1.36193
1.36162
1.36226
1.36343
1.36594
1.36657
1.36576
1.36425
1.36229
1.36287
1.36391
1.36555
1.36493
1.36376
1.36255
1.36275
1.36351
1.3642
1.3638
1.36321
1.36326
1.36361
1.36387
1.36369
1.3634
1.36347
1.36363
1.36359
1.36337
1.36293
1.36214
1.36065
1.3585
1.35509
1.3472
1.0456
1.0456
1.04561
1.04563
1.04567
1.0457
1.04573
1.04577
1.04579
1.04581
1.04583
1.04587
1.0459
1.0459
1.04587
1.04586
1.04588
1.04594
1.04601
1.04608
1.04616
1.04628
1.04649
1.04658
1.04667
1.04676
1.04688
1.04702
1.0472
1.04747
1.0479
1.04872
1.05
1.05203
1.0549
1.05956
1.06576
1.0754
1.08732
1.1047
1.12459
1.15116
1.17933
1.2112
1.24295
1.27187
1.30065
1.32164
1.34291
1.35508
1.36267
1.36481
1.36748
1.36752
1.36735
1.36576
1.36189
1.36138
1.36281
1.36607
1.36978
1.37256
1.37242
1.37096
1.36817
1.36452
1.36329
1.36381
1.36579
1.36853
1.37119
1.37108
1.36968
1.36757
1.36654
1.36749
1.36897
1.36986
1.36949
1.36823
1.36717
1.36743
1.36802
1.36845
1.36812
1.36774
1.36792
1.36821
1.36825
1.36801
1.36786
1.36802
1.368
1.36776
1.36729
1.36639
1.36506
1.36232
1.35892
1.35119
1.04745
1.04742
1.04741
1.04741
1.04741
1.04741
1.04743
1.04746
1.04746
1.04747
1.04749
1.04749
1.04751
1.04752
1.04752
1.04753
1.04754
1.04755
1.04756
1.04755
1.04752
1.04751
1.04751
1.04752
1.04753
1.04754
1.04757
1.04761
1.04769
1.04778
1.04797
1.048
1.04802
1.04803
1.04807
1.04817
1.04838
1.0489
1.04988
1.05181
1.05496
1.06081
1.06914
1.08325
1.10083
1.12674
1.15539
1.18975
1.22584
1.25801
1.2898
1.30892
1.32961
1.33732
1.34719
1.35041
1.35599
1.36199
1.36922
1.37328
1.37505
1.37513
1.37441
1.37203
1.36957
1.36763
1.36658
1.36746
1.36946
1.37024
1.37081
1.37059
1.36988
1.37006
1.3707
1.37138
1.37132
1.3712
1.37086
1.37058
1.37031
1.37006
1.37009
1.37033
1.37072
1.37066
1.37049
1.37055
1.37067
1.37074
1.37071
1.37067
1.37065
1.3705
1.36999
1.36908
1.36744
1.36539
1.36164
1.35381
1.04867
1.04866
1.04864
1.04859
1.04856
1.04855
1.04855
1.04855
1.04853
1.04853
1.04852
1.04851
1.0485
1.04848
1.04847
1.04847
1.04845
1.04843
1.04843
1.04844
1.04841
1.04833
1.0483
1.04829
1.04828
1.04823
1.04818
1.04815
1.04813
1.04813
1.04814
1.04813
1.04812
1.04809
1.04805
1.04802
1.04804
1.04801
1.04796
1.0479
1.04785
1.0479
1.04814
1.049
1.05079
1.05482
1.06133
1.07379
1.09039
1.11723
1.14767
1.18628
1.22508
1.26121
1.29645
1.32069
1.34669
1.35691
1.36505
1.36839
1.37127
1.36959
1.36472
1.36316
1.36492
1.3692
1.37209
1.37307
1.37288
1.37137
1.36869
1.36791
1.36858
1.37068
1.37245
1.37287
1.37258
1.37181
1.37104
1.37122
1.37164
1.37147
1.37098
1.37095
1.3712
1.37187
1.37183
1.3716
1.37156
1.37173
1.37212
1.37201
1.37182
1.37159
1.37144
1.37072
1.36868
1.36603
1.36305
1.3554
1.04928
1.04928
1.04927
1.04926
1.04922
1.04916
1.04913
1.04912
1.0491
1.04909
1.04908
1.04906
1.04902
1.04897
1.04895
1.04893
1.04887
1.04883
1.04882
1.04881
1.04878
1.04871
1.04866
1.04863
1.04859
1.04853
1.04851
1.04848
1.04842
1.04834
1.04832
1.04829
1.04827
1.04822
1.04815
1.04808
1.048
1.04794
1.04787
1.04779
1.04768
1.04756
1.04743
1.04733
1.0472
1.04718
1.04726
1.04779
1.04922
1.05289
1.05937
1.07275
1.09111
1.12161
1.15538
1.19713
1.23811
1.27157
1.30477
1.31909
1.33732
1.34316
1.35229
1.36106
1.371
1.37625
1.37621
1.37542
1.37112
1.36695
1.36634
1.36712
1.36962
1.37286
1.37303
1.37249
1.37142
1.3708
1.37103
1.37175
1.37218
1.37176
1.37131
1.37114
1.37139
1.37181
1.37215
1.37196
1.37182
1.37201
1.37235
1.37257
1.37241
1.37216
1.37187
1.37158
1.36985
1.36629
1.36319
1.35588
1.04947
1.04944
1.04941
1.04938
1.04935
1.04933
1.04931
1.04929
1.04927
1.04925
1.04924
1.04923
1.04918
1.0491
1.04903
1.04896
1.04889
1.04887
1.04886
1.04883
1.04876
1.04868
1.04863
1.04859
1.04852
1.04847
1.04845
1.04841
1.04833
1.04828
1.04826
1.04825
1.04824
1.04823
1.0482
1.04816
1.04811
1.04805
1.04796
1.04787
1.04775
1.04763
1.0475
1.04735
1.04723
1.04711
1.04697
1.04688
1.04687
1.04691
1.04709
1.04782
1.04966
1.05439
1.06268
1.07994
1.10297
1.14025
1.18091
1.22643
1.27072
1.30478
1.34101
1.35507
1.36594
1.37082
1.37159
1.36687
1.36176
1.36327
1.36723
1.37089
1.3726
1.37272
1.37188
1.36943
1.36951
1.37028
1.37172
1.37242
1.3721
1.37158
1.37142
1.37161
1.37186
1.3718
1.37182
1.37184
1.37198
1.37227
1.37242
1.37243
1.3724
1.37234
1.37209
1.37168
1.3704
1.36686
1.36305
1.35566
1.0493
1.04929
1.04929
1.0493
1.0493
1.04929
1.04927
1.04926
1.04926
1.04926
1.04925
1.0492
1.04914
1.0491
1.04907
1.04903
1.049
1.04895
1.0489
1.04884
1.04876
1.04871
1.04867
1.04861
1.04852
1.04848
1.04846
1.04843
1.04841
1.0484
1.04839
1.04837
1.04837
1.04838
1.04839
1.04837
1.0483
1.04821
1.04811
1.04802
1.04794
1.04789
1.04783
1.04775
1.04766
1.04754
1.04739
1.0472
1.04696
1.04685
1.04687
1.04694
1.04711
1.0474
1.0479
1.04925
1.0522
1.05967
1.0724
1.09827
1.13036
1.17642
1.22307
1.26418
1.30345
1.32137
1.34057
1.347
1.36106
1.3689
1.37482
1.37478
1.37399
1.37023
1.36682
1.3671
1.36882
1.37185
1.37252
1.37204
1.37084
1.37095
1.3716
1.37246
1.37231
1.37192
1.3715
1.37168
1.37219
1.37251
1.37248
1.37227
1.37233
1.37246
1.37236
1.37178
1.37046
1.36726
1.36297
1.35536
1.04907
1.04907
1.04906
1.04904
1.04898
1.0489
1.0489
1.04891
1.04892
1.04891
1.04887
1.04876
1.04871
1.0487
1.04869
1.04867
1.04864
1.04857
1.04848
1.04841
1.04837
1.04834
1.04831
1.04825
1.04818
1.04813
1.0481
1.04807
1.04806
1.04807
1.04808
1.04809
1.0481
1.04812
1.04815
1.04818
1.04821
1.04823
1.04823
1.0482
1.04819
1.04821
1.04824
1.04825
1.04823
1.04817
1.04805
1.04785
1.04758
1.04738
1.04732
1.04735
1.04745
1.04762
1.04789
1.04812
1.04836
1.04874
1.04963
1.05231
1.05814
1.07276
1.09516
1.13546
1.18194
1.23366
1.28489
1.32307
1.35497
1.36357
1.37146
1.37044
1.36555
1.36217
1.36458
1.3691
1.37283
1.37311
1.37223
1.3696
1.36972
1.37111
1.3729
1.37289
1.37249
1.37164
1.37141
1.37192
1.37256
1.37254
1.3723
1.3722
1.3724
1.37276
1.37268
1.37199
1.37043
1.36737
1.36306
1.35517
1.04851
1.0485
1.04848
1.04846
1.04846
1.04847
1.04848
1.04851
1.04852
1.04852
1.0485
1.04845
1.04839
1.04836
1.04837
1.04837
1.04837
1.0483
1.04822
1.04822
1.04821
1.0482
1.04817
1.04815
1.04812
1.04808
1.04804
1.04799
1.04797
1.04798
1.048
1.04802
1.04803
1.04806
1.04809
1.04814
1.0482
1.04827
1.04833
1.04837
1.04843
1.04849
1.04856
1.04866
1.04875
1.04877
1.04875
1.04869
1.04854
1.04831
1.0481
1.04804
1.04808
1.04817
1.04827
1.0484
1.04859
1.04893
1.04912
1.04917
1.0493
1.05006
1.0523
1.05956
1.0739
1.10515
1.14557
1.19885
1.25433
1.28894
1.32859
1.33688
1.34972
1.35936
1.37204
1.37516
1.37468
1.37166
1.36776
1.36801
1.37028
1.37354
1.37365
1.37296
1.37164
1.37159
1.37217
1.37294
1.37285
1.37236
1.37219
1.3724
1.37288
1.37318
1.37305
1.37228
1.37045
1.36722
1.36288
1.35506
1.04808
1.04809
1.04809
1.04809
1.0481
1.04811
1.04812
1.04813
1.04814
1.04813
1.04811
1.04808
1.04807
1.04807
1.04807
1.04807
1.04806
1.048
1.04798
1.04799
1.04799
1.04798
1.04799
1.048
1.048
1.04799
1.04797
1.04794
1.04792
1.04793
1.04794
1.04796
1.04799
1.04801
1.04803
1.04807
1.04812
1.04819
1.04828
1.04837
1.04846
1.04856
1.04868
1.04884
1.04901
1.04913
1.0492
1.04922
1.04921
1.04914
1.04899
1.04886
1.04886
1.0489
1.04894
1.04901
1.04911
1.0493
1.04948
1.04956
1.04962
1.04958
1.04937
1.04941
1.05013
1.05386
1.06256
1.08561
1.11846
1.17243
1.23096
1.28152
1.33604
1.35378
1.36746
1.37081
1.36709
1.36142
1.36429
1.36997
1.37475
1.37468
1.3735
1.37083
1.37103
1.37237
1.37377
1.37361
1.37264
1.37219
1.37233
1.37292
1.37334
1.37343
1.37324
1.3725
1.37053
1.36713
1.36282
1.35522
1.04783
1.04783
1.04784
1.04785
1.04786
1.04787
1.04788
1.04789
1.0479
1.0479
1.04791
1.04791
1.04792
1.04794
1.04796
1.04797
1.04797
1.04796
1.04796
1.04797
1.04798
1.04798
1.04798
1.04797
1.04796
1.04795
1.04795
1.04793
1.04791
1.0479
1.0479
1.0479
1.04791
1.04792
1.04794
1.04797
1.04802
1.04808
1.04817
1.04827
1.0484
1.04856
1.04875
1.04893
1.04909
1.04921
1.04931
1.04942
1.04955
1.04963
1.04963
1.0496
1.04956
1.04952
1.04945
1.04942
1.04945
1.04957
1.04983
1.04998
1.04998
1.04993
1.0498
1.04958
1.04929
1.0493
1.04967
1.0517
1.05714
1.07347
1.09968
1.15062
1.20818
1.2601
1.31143
1.32843
1.34499
1.35562
1.37233
1.37637
1.37593
1.37269
1.36905
1.36962
1.3723
1.37488
1.37472
1.37328
1.37235
1.37239
1.373
1.37364
1.37374
1.37368
1.37344
1.37268
1.37068
1.36708
1.36283
1.35555
1.04787
1.04788
1.04788
1.04789
1.0479
1.04791
1.04792
1.04793
1.04794
1.04795
1.04796
1.04797
1.04797
1.04799
1.04801
1.04803
1.04804
1.04806
1.0481
1.04815
1.04819
1.04825
1.04834
1.04838
1.04841
1.04845
1.04851
1.04853
1.04854
1.04854
1.04853
1.04851
1.04848
1.04844
1.04842
1.04841
1.04841
1.04843
1.04847
1.04854
1.04863
1.04874
1.04886
1.04898
1.04911
1.04922
1.04933
1.04946
1.0496
1.04978
1.04994
1.04999
1.05001
1.04999
1.04988
1.0497
1.04963
1.04967
1.04982
1.05008
1.05023
1.05024
1.05019
1.05
1.04965
1.0494
1.04943
1.0496
1.05002
1.05132
1.05463
1.06639
1.08799
1.13648
1.19425
1.25385
1.32022
1.34822
1.36686
1.37142
1.36731
1.36244
1.36589
1.37214
1.37591
1.37563
1.37387
1.37222
1.37239
1.37343
1.37387
1.37383
1.37387
1.37387
1.37369
1.37281
1.37052
1.36707
1.36326
1.35597
1.04808
1.04809
1.0481
1.04811
1.04812
1.04813
1.04819
1.04824
1.04824
1.04823
1.04824
1.04826
1.04831
1.04835
1.04839
1.04841
1.04846
1.04851
1.04856
1.04858
1.04863
1.04875
1.04887
1.04889
1.04891
1.04898
1.04909
1.04918
1.04921
1.04923
1.04925
1.04926
1.04926
1.04925
1.04921
1.04915
1.04913
1.04911
1.04908
1.04905
1.04903
1.04904
1.04907
1.04911
1.04915
1.04921
1.04931
1.04944
1.0496
1.0498
1.05002
1.05022
1.05028
1.05028
1.0502
1.04998
1.04972
1.04968
1.04974
1.04988
1.05005
1.05018
1.05022
1.05021
1.05008
1.04983
1.04973
1.04979
1.05011
1.05045
1.05065
1.05124
1.0533
1.06242
1.08122
1.1267
1.18335
1.24362
1.30261
1.32434
1.34426
1.3564
1.37456
1.37735
1.376
1.37244
1.3712
1.37215
1.37423
1.37479
1.37429
1.3738
1.37398
1.37421
1.3739
1.37265
1.37041
1.3676
1.36393
1.35635
1.04868
1.04868
1.04868
1.04869
1.0487
1.0487
1.0487
1.0487
1.04871
1.04872
1.04873
1.04876
1.04877
1.04877
1.04877
1.0488
1.04887
1.04892
1.04894
1.04898
1.04907
1.04923
1.0493
1.04933
1.04938
1.04952
1.04968
1.04977
1.04982
1.04985
1.04991
1.04999
1.05005
1.05008
1.05008
1.05007
1.05004
1.05
1.04995
1.04988
1.0498
1.04972
1.04962
1.04951
1.04942
1.0494
1.04943
1.04953
1.04965
1.04981
1.05003
1.0503
1.05045
1.05046
1.05039
1.05019
1.04989
1.04968
1.04968
1.04974
1.04982
1.04992
1.05012
1.05029
1.0503
1.05022
1.0501
1.05012
1.05032
1.05062
1.05079
1.05079
1.05079
1.05111
1.05275
1.06065
1.07789
1.12268
1.17975
1.24492
1.31873
1.34788
1.37058
1.37108
1.36432
1.3652
1.36955
1.37491
1.37586
1.37508
1.37339
1.37379
1.37471
1.37455
1.37382
1.37244
1.37052
1.36816
1.36418
1.35649
1.0494
1.04939
1.04939
1.04938
1.04937
1.04936
1.04935
1.04935
1.04936
1.04938
1.04941
1.04943
1.04944
1.04944
1.04942
1.04943
1.04947
1.04948
1.04949
1.04955
1.04971
1.0498
1.04982
1.04984
1.04994
1.05015
1.05022
1.05024
1.05027
1.05036
1.05048
1.0506
1.05068
1.05076
1.05081
1.05083
1.05083
1.05083
1.0508
1.05075
1.05069
1.0506
1.05046
1.05028
1.05009
1.04991
1.04978
1.04973
1.04974
1.0498
1.04995
1.05022
1.05049
1.05056
1.0505
1.05032
1.0501
1.04987
1.04974
1.04972
1.04973
1.04978
1.04997
1.05032
1.05046
1.05044
1.05036
1.05036
1.05049
1.0507
1.05082
1.05083
1.05085
1.05083
1.05086
1.05125
1.05287
1.06026
1.07697
1.1215
1.18015
1.24364
1.30878
1.32734
1.34606
1.36308
1.37616
1.37703
1.37524
1.37213
1.37306
1.37564
1.37566
1.37479
1.37343
1.37224
1.37124
1.36871
1.36419
1.35631
1.05026
1.05026
1.05026
1.05024
1.05022
1.05021
1.05019
1.05019
1.05019
1.0502
1.0502
1.05018
1.05015
1.05014
1.05014
1.05014
1.05013
1.0501
1.0501
1.05017
1.05026
1.05028
1.05028
1.05032
1.05044
1.05059
1.0506
1.05059
1.05061
1.05071
1.05086
1.05098
1.05106
1.05113
1.05117
1.05119
1.0512
1.0512
1.05118
1.05115
1.05115
1.05115
1.05109
1.05097
1.05076
1.05046
1.05013
1.04992
1.04988
1.0499
1.05001
1.05025
1.05058
1.05073
1.05067
1.05057
1.05049
1.05042
1.05028
1.05007
1.04993
1.0499
1.05
1.05035
1.05058
1.05058
1.05055
1.05055
1.0506
1.05069
1.05078
1.05081
1.05085
1.05091
1.05101
1.05111
1.05125
1.05169
1.05317
1.06031
1.07767
1.12466
1.18641
1.25753
1.32954
1.35504
1.37135
1.37017
1.3637
1.36786
1.37515
1.37708
1.37589
1.37322
1.37321
1.37333
1.37214
1.36863
1.36341
1.3561
1.05113
1.05114
1.05116
1.05117
1.05118
1.05119
1.05119
1.05118
1.05116
1.05114
1.05107
1.05097
1.05095
1.05094
1.05093
1.05091
1.05087
1.0508
1.05078
1.0508
1.05082
1.05079
1.05072
1.05073
1.05078
1.0508
1.05077
1.05076
1.05081
1.05093
1.05096
1.05092
1.05087
1.05087
1.0509
1.05094
1.051
1.05108
1.05113
1.05115
1.05116
1.05123
1.05129
1.05129
1.05119
1.05095
1.05063
1.05034
1.05014
1.05011
1.05017
1.05034
1.05054
1.05076
1.05089
1.05092
1.05098
1.0511
1.05112
1.05101
1.05058
1.05035
1.05034
1.05046
1.05063
1.05067
1.05069
1.05071
1.05074
1.05073
1.05071
1.05071
1.05077
1.05092
1.05112
1.05127
1.05131
1.05132
1.05141
1.05175
1.05328
1.06096
1.08057
1.13177
1.19819
1.26278
1.3168
1.33835
1.35438
1.3754
1.37808
1.3764
1.37194
1.37246
1.37489
1.37499
1.3729
1.3675
1.36267
1.35659
1.05176
1.05179
1.0518
1.05181
1.05182
1.05184
1.05186
1.05188
1.05187
1.05177
1.05153
1.05146
1.05145
1.05148
1.05149
1.05146
1.05138
1.05127
1.05121
1.05122
1.05122
1.05116
1.05102
1.05098
1.05102
1.05104
1.05099
1.05086
1.05074
1.05065
1.05057
1.05047
1.05029
1.05014
1.05011
1.05011
1.05015
1.05026
1.05047
1.05073
1.05099
1.05125
1.0514
1.05141
1.05135
1.0512
1.05102
1.05085
1.05066
1.05049
1.0505
1.05057
1.05065
1.05076
1.05096
1.05113
1.05131
1.05153
1.05159
1.05154
1.05121
1.05088
1.05082
1.0508
1.05077
1.0508
1.05089
1.05096
1.05097
1.05093
1.05085
1.05084
1.05088
1.05102
1.05122
1.05133
1.05133
1.05129
1.05124
1.0512
1.05124
1.05161
1.05356
1.06281
1.08765
1.14347
1.21283
1.29123
1.345
1.369
1.37333
1.36301
1.36637
1.37422
1.37646
1.37521
1.37141
1.36637
1.36298
1.35709
1.05192
1.05192
1.05185
1.05181
1.0518
1.0518
1.05185
1.05187
1.05182
1.05163
1.05141
1.05135
1.05135
1.05135
1.05134
1.05134
1.05136
1.05136
1.05125
1.05113
1.05115
1.05116
1.05108
1.05106
1.05115
1.0512
1.05118
1.05103
1.05079
1.05063
1.05052
1.05036
1.05004
1.04969
1.04959
1.04955
1.04953
1.04958
1.04983
1.05024
1.05072
1.05116
1.05143
1.0515
1.05149
1.05138
1.05121
1.0512
1.05124
1.05118
1.05111
1.05108
1.05101
1.05095
1.05099
1.05116
1.05139
1.05158
1.0516
1.05152
1.05132
1.05123
1.05117
1.05112
1.05106
1.05106
1.05121
1.05131
1.05133
1.05131
1.05125
1.0512
1.05117
1.05119
1.05126
1.0513
1.05128
1.05122
1.05114
1.05109
1.05107
1.05109
1.05117
1.05169
1.05456
1.06553
1.09804
1.15748
1.2341
1.29247
1.33394
1.34756
1.37344
1.37815
1.37609
1.37181
1.36981
1.36697
1.36396
1.35735
1.05124
1.05136
1.0514
1.05137
1.05135
1.05135
1.05141
1.0514
1.05128
1.05115
1.05113
1.05114
1.05119
1.05127
1.05133
1.05138
1.05139
1.05135
1.05116
1.05102
1.05104
1.05114
1.05119
1.0513
1.0515
1.05156
1.05155
1.05151
1.05142
1.05122
1.05097
1.05066
1.05014
1.04965
1.04956
1.04951
1.04949
1.04953
1.04975
1.05012
1.05063
1.05114
1.05151
1.05165
1.05163
1.05145
1.05131
1.05136
1.05156
1.05161
1.05152
1.05145
1.05138
1.05126
1.05116
1.05116
1.05124
1.05142
1.05146
1.05141
1.05142
1.05143
1.05131
1.05122
1.05123
1.05139
1.05153
1.05156
1.05161
1.05166
1.05165
1.0516
1.05144
1.0513
1.05128
1.05128
1.05126
1.0512
1.0511
1.05109
1.05111
1.05119
1.0513
1.05135
1.05145
1.05209
1.05602
1.07124
1.11204
1.17871
1.26344
1.32729
1.36941
1.37228
1.36162
1.36512
1.36822
1.3679
1.36428
1.35678
1.04992
1.04994
1.04995
1.04994
1.04999
1.05014
1.05013
1.05011
1.05012
1.05009
1.05008
1.05015
1.05035
1.05045
1.05052
1.05069
1.05094
1.05109
1.0511
1.05108
1.05111
1.05129
1.05182
1.0521
1.0522
1.05225
1.05224
1.05222
1.05214
1.05195
1.0518
1.05162
1.05125
1.05063
1.05034
1.0503
1.05033
1.0505
1.05072
1.05105
1.05152
1.05163
1.05159
1.05167
1.05177
1.05169
1.05146
1.05144
1.05155
1.05153
1.05135
1.05132
1.05143
1.05151
1.05139
1.05121
1.05123
1.05134
1.05147
1.05157
1.05162
1.05161
1.05143
1.05132
1.05141
1.05169
1.05173
1.05171
1.05174
1.05179
1.05179
1.05174
1.05159
1.05143
1.05141
1.05141
1.05141
1.05141
1.05136
1.05132
1.05133
1.05137
1.05139
1.05138
1.05128
1.05117
1.0513
1.05254
1.0584
1.08165
1.13043
1.20632
1.28709
1.32261
1.34279
1.3696
1.37092
1.36736
1.36125
1.3554
1.05001
1.0499
1.04984
1.04981
1.04979
1.04979
1.04978
1.04973
1.04972
1.04973
1.04971
1.04971
1.04982
1.04996
1.05008
1.05026
1.05062
1.05126
1.0516
1.05161
1.05164
1.05181
1.05231
1.05251
1.05252
1.05244
1.0523
1.05224
1.05212
1.05189
1.0518
1.05174
1.0515
1.05114
1.05098
1.05098
1.05117
1.05155
1.05186
1.05209
1.05212
1.05213
1.05218
1.05203
1.05147
1.05118
1.0512
1.05122
1.05111
1.05117
1.05131
1.05133
1.05149
1.05188
1.052
1.0519
1.05186
1.05189
1.05188
1.0519
1.05188
1.05172
1.05161
1.0516
1.05177
1.05191
1.05188
1.05175
1.05162
1.05156
1.05155
1.05155
1.05151
1.05141
1.0514
1.05145
1.05161
1.05174
1.05174
1.05171
1.05165
1.05157
1.0515
1.05128
1.05106
1.05096
1.05099
1.05108
1.05151
1.05399
1.06311
1.09789
1.15685
1.2414
1.32413
1.36008
1.36719
1.35318
1.35424
1.35377
1.04988
1.04977
1.04966
1.04955
1.04951
1.04947
1.04937
1.04922
1.04919
1.04918
1.04919
1.04923
1.04929
1.04947
1.04966
1.04979
1.04997
1.05053
1.05141
1.05159
1.05157
1.05138
1.05136
1.05134
1.05105
1.05072
1.05064
1.05058
1.05054
1.05052
1.05062
1.05096
1.05098
1.05076
1.05061
1.05059
1.05073
1.05129
1.05173
1.05176
1.05139
1.05119
1.05134
1.05135
1.05112
1.0509
1.05082
1.05058
1.05038
1.05048
1.05095
1.0514
1.05176
1.05211
1.05239
1.05244
1.05239
1.05239
1.0524
1.05237
1.05218
1.05176
1.05167
1.05172
1.05196
1.05204
1.05199
1.05169
1.05128
1.0512
1.05128
1.05143
1.0515
1.05154
1.0516
1.05177
1.05196
1.05202
1.05201
1.05196
1.05186
1.05165
1.0513
1.0511
1.051
1.051
1.05105
1.05124
1.05153
1.05173
1.05237
1.05646
1.0717
1.11951
1.19399
1.26625
1.31777
1.33351
1.35668
1.3555
1.04919
1.04911
1.049
1.04881
1.04865
1.04841
1.04796
1.04779
1.04778
1.04774
1.04766
1.04769
1.04775
1.04774
1.04757
1.04754
1.04774
1.04782
1.04806
1.04835
1.04835
1.04831
1.04837
1.04827
1.04771
1.04729
1.04725
1.04718
1.04715
1.04723
1.04765
1.04827
1.04859
1.04854
1.04849
1.0485
1.04869
1.04941
1.05006
1.05016
1.05005
1.04998
1.05027
1.05081
1.05118
1.0515
1.05162
1.05146
1.05097
1.05058
1.05062
1.05104
1.0517
1.0521
1.05231
1.05235
1.05235
1.05237
1.0524
1.05242
1.0522
1.05156
1.0513
1.0513
1.05144
1.05161
1.05161
1.05145
1.05119
1.0512
1.05136
1.0516
1.05179
1.0519
1.05204
1.05216
1.05216
1.05214
1.05209
1.05197
1.0517
1.05136
1.05111
1.05105
1.05107
1.05117
1.05139
1.05171
1.05194
1.05193
1.05186
1.0519
1.05299
1.06051
1.08768
1.14823
1.22947
1.30941
1.34805
1.35094
1.04686
1.04694
1.04699
1.047
1.047
1.047
1.04699
1.04697
1.04686
1.0466
1.04637
1.04636
1.04636
1.04619
1.04589
1.04577
1.04581
1.04601
1.04601
1.04587
1.04589
1.04611
1.04637
1.04633
1.04595
1.04523
1.04462
1.04432
1.04435
1.04468
1.04533
1.04573
1.04583
1.0459
1.04602
1.04613
1.0463
1.04687
1.04792
1.04828
1.0483
1.04829
1.0485
1.04918
1.05015
1.05101
1.05139
1.05137
1.05104
1.05023
1.04939
1.0493
1.04965
1.05001
1.05025
1.05046
1.05076
1.05119
1.05135
1.05131
1.05091
1.05017
1.04996
1.05011
1.05049
1.0509
1.05114
1.05121
1.0513
1.05157
1.05196
1.05212
1.05209
1.05208
1.05219
1.05227
1.05225
1.0521
1.05183
1.05154
1.05125
1.05123
1.05118
1.0512
1.05138
1.05166
1.05193
1.05212
1.05214
1.05206
1.05186
1.05169
1.05157
1.05188
1.05481
1.06827
1.10937
1.18142
1.25232
1.30962
1.04784
1.04797
1.04834
1.0489
1.04904
1.04905
1.04905
1.0489
1.04872
1.04879
1.04897
1.049
1.04896
1.04891
1.04892
1.0489
1.04861
1.04832
1.04826
1.04822
1.04843
1.04984
1.05164
1.05224
1.05216
1.05172
1.05106
1.05035
1.0496
1.04915
1.0489
1.04856
1.04821
1.04778
1.04731
1.04714
1.04712
1.04728
1.04831
1.04956
1.04977
1.0497
1.04933
1.04897
1.04898
1.04927
1.05009
1.05067
1.05062
1.05004
1.04867
1.04744
1.04724
1.04734
1.04754
1.0478
1.04815
1.04851
1.04862
1.04863
1.04863
1.04869
1.04884
1.04912
1.04991
1.05068
1.05098
1.05116
1.05142
1.05174
1.05207
1.05221
1.05215
1.05203
1.05199
1.05193
1.05172
1.05139
1.05116
1.05099
1.05105
1.05125
1.05147
1.05164
1.05187
1.0521
1.05219
1.0522
1.05209
1.05187
1.05177
1.05167
1.05166
1.05157
1.05128
1.05199
1.05711
1.0808
1.1321
1.24226
1.05424
1.05444
1.05475
1.05517
1.05619
1.0572
1.05741
1.05745
1.05739
1.05713
1.0571
1.05727
1.05783
1.0582
1.05809
1.05799
1.05807
1.05815
1.05776
1.0567
1.05635
1.05645
1.0573
1.05806
1.05839
1.05837
1.05788
1.05746
1.05723
1.05685
1.05596
1.05458
1.05318
1.0519
1.05072
1.05004
1.04994
1.05001
1.04998
1.04962
1.04969
1.04977
1.04937
1.04845
1.04816
1.04804
1.04803
1.04815
1.04802
1.04745
1.04685
1.04651
1.04654
1.04672
1.04698
1.04732
1.04754
1.04755
1.0475
1.04745
1.04754
1.04778
1.04839
1.04962
1.05019
1.0502
1.05004
1.04983
1.04998
1.05054
1.05086
1.05077
1.05039
1.05013
1.05015
1.05031
1.05047
1.05059
1.05077
1.05091
1.05135
1.05188
1.052
1.05204
1.05214
1.05222
1.05221
1.05205
1.05176
1.05173
1.05172
1.05186
1.05195
1.05187
1.05155
1.0506
1.04788
1.04911
1.05818
1.12708
1.06816
1.06782
1.06774
1.06783
1.06821
1.06908
1.06956
1.06965
1.0697
1.06974
1.06971
1.06956
1.06977
1.06997
1.06998
1.06909
1.06678
1.06611
1.06561
1.06431
1.06116
1.05883
1.0583
1.05838
1.05887
1.0592
1.05951
1.06052
1.06161
1.06176
1.06205
1.06272
1.06263
1.06102
1.05925
1.05911
1.0592
1.05914
1.05814
1.05618
1.05539
1.05507
1.05423
1.05281
1.05172
1.05106
1.05081
1.05083
1.05066
1.04974
1.04926
1.04945
1.05077
1.05275
1.05345
1.05342
1.05292
1.05179
1.05076
1.05048
1.05064
1.05083
1.0511
1.05168
1.05196
1.05174
1.05082
1.04939
1.04884
1.04886
1.04889
1.04877
1.0486
1.04857
1.04861
1.04878
1.04916
1.04962
1.05
1.05086
1.05152
1.05193
1.05198
1.0519
1.05184
1.0518
1.05174
1.0516
1.05155
1.05172
1.05208
1.05231
1.05229
1.0521
1.05167
1.05035
1.04808
1.04401
1.04226
1.06089
1.11512
1.11249
1.11047
1.11034
1.11029
1.11051
1.11108
1.11278
1.11391
1.1139
1.11388
1.1149
1.11558
1.11446
1.11257
1.11246
1.11162
1.1081
1.10467
1.10251
1.09993
1.09677
1.09411
1.09204
1.08966
1.08722
1.08616
1.08601
1.08598
1.08607
1.08565
1.08564
1.08664
1.08569
1.08308
1.08307
1.08422
1.08446
1.08371
1.08176
1.08004
1.07966
1.07936
1.07858
1.07724
1.07518
1.07172
1.07037
1.06947
1.06684
1.06321
1.06216
1.06247
1.06356
1.06401
1.06353
1.06148
1.05851
1.05623
1.05495
1.0543
1.05353
1.05175
1.05095
1.05074
1.0503
1.04957
1.04857
1.04816
1.04814
1.04815
1.04827
1.04839
1.0486
1.04908
1.04967
1.05042
1.05107
1.05115
1.05091
1.05091
1.05077
1.05032
1.05017
1.05025
1.05051
1.05085
1.05118
1.05145
1.05189
1.05234
1.0524
1.05233
1.05204
1.05137
1.04994
1.04769
1.04429
1.04032
1.04067
1.16049
1.15977
1.15833
1.15372
1.14891
1.14822
1.14872
1.15065
1.15104
1.1503
1.14852
1.14873
1.15011
1.15018
1.1486
1.14496
1.14334
1.14342
1.1437
1.14287
1.1395
1.13862
1.1383
1.13675
1.13606
1.13652
1.13657
1.13562
1.13317
1.13162
1.13193
1.13239
1.13111
1.12667
1.12135
1.1181
1.11632
1.1127
1.10547
1.10358
1.10349
1.10133
1.09862
1.09917
1.09949
1.09789
1.0964
1.09612
1.09557
1.09405
1.09017
1.08309
1.07517
1.07295
1.07289
1.07195
1.06893
1.06714
1.06685
1.06631
1.06476
1.06171
1.05703
1.05524
1.0551
1.05491
1.05454
1.05337
1.05259
1.05286
1.05277
1.05206
1.05191
1.05271
1.05374
1.0537
1.05353
1.0532
1.0525
1.05155
1.05063
1.0499
1.04943
1.04943
1.04956
1.04984
1.05033
1.05071
1.0514
1.05175
1.05213
1.05215
1.05192
1.05141
1.0507
1.04954
1.04742
1.04466
1.04179
1.03757
1.22128
1.22167
1.2231
1.2241
1.2235
1.21924
1.21518
1.21345
1.21225
1.21215
1.21228
1.21199
1.21028
1.20796
1.2065
1.20448
1.20253
1.20261
1.20264
1.19972
1.19466
1.19206
1.19142
1.19089
1.19002
1.18717
1.18452
1.18341
1.18131
1.17958
1.17946
1.1789
1.17574
1.17222
1.17223
1.17327
1.17277
1.17048
1.1669
1.1635
1.16039
1.15693
1.15228
1.14743
1.14376
1.14011
1.13512
1.13215
1.13231
1.1341
1.13363
1.12966
1.12291
1.11968
1.11789
1.11332
1.10614
1.10468
1.10378
1.10116
1.09893
1.09644
1.09129
1.08562
1.08151
1.07967
1.0787
1.07651
1.07227
1.06825
1.06595
1.06339
1.0604
1.05849
1.05685
1.05494
1.05368
1.05264
1.05154
1.05063
1.05014
1.04965
1.04945
1.04952
1.04993
1.0511
1.05212
1.052
1.05148
1.05108
1.05073
1.05055
1.05039
1.05032
1.04994
1.04903
1.04726
1.04467
1.04183
1.03693
1.28454
1.28339
1.281
1.27878
1.27722
1.27543
1.27493
1.27541
1.27568
1.27529
1.27429
1.27243
1.27073
1.26995
1.26899
1.26744
1.26699
1.26706
1.26685
1.26558
1.2612
1.25744
1.25736
1.25744
1.25672
1.25351
1.2503
1.24895
1.24786
1.24602
1.24363
1.24045
1.2365
1.23325
1.23017
1.22729
1.22466
1.22171
1.21832
1.21417
1.21198
1.21025
1.20694
1.20435
1.20234
1.1994
1.19514
1.19051
1.18711
1.18377
1.17768
1.16787
1.16348
1.16341
1.16242
1.15699
1.15066
1.14852
1.14408
1.13254
1.12812
1.12673
1.12307
1.11869
1.1135
1.10529
1.09863
1.09541
1.09249
1.0873
1.08162
1.07778
1.07365
1.06879
1.06547
1.06259
1.05992
1.05862
1.05677
1.05532
1.05488
1.05524
1.05536
1.05506
1.05524
1.05531
1.05486
1.05371
1.05236
1.05082
1.05012
1.05014
1.0502
1.05049
1.05039
1.0496
1.04743
1.04437
1.041
1.03605
1.35497
1.35439
1.3535
1.35182
1.35076
1.35022
1.34895
1.34652
1.34391
1.34304
1.34332
1.34325
1.34075
1.33769
1.33746
1.33687
1.33425
1.3331
1.3329
1.33227
1.33021
1.32752
1.32453
1.32132
1.31959
1.31793
1.31564
1.31339
1.31087
1.30893
1.30783
1.30614
1.30195
1.29764
1.29619
1.29514
1.29344
1.29053
1.28634
1.28164
1.27739
1.27375
1.26927
1.26503
1.26168
1.25783
1.25187
1.24802
1.24574
1.24322
1.23925
1.23387
1.22839
1.2235
1.21848
1.20892
1.20094
1.20068
1.19924
1.19301
1.18566
1.17605
1.16908
1.16766
1.16534
1.15997
1.14893
1.13981
1.13665
1.1341
1.12815
1.12074
1.11497
1.10907
1.10333
1.09845
1.09288
1.08727
1.08146
1.07618
1.07152
1.06785
1.06369
1.06024
1.05749
1.05574
1.05408
1.05269
1.05186
1.05094
1.05045
1.05074
1.0517
1.05238
1.05181
1.05005
1.04719
1.04307
1.03943
1.03514
1.42686
1.42569
1.42498
1.42463
1.4234
1.42025
1.41933
1.41955
1.41909
1.4174
1.4161
1.41415
1.41073
1.41009
1.41025
1.40905
1.40577
1.40339
1.40259
1.40222
1.40105
1.39883
1.39652
1.39373
1.389
1.38756
1.38749
1.38653
1.38395
1.38043
1.37756
1.37508
1.37166
1.3677
1.36458
1.36132
1.35811
1.35557
1.35293
1.34849
1.3437
1.34019
1.33652
1.33339
1.33032
1.32613
1.32004
1.31467
1.31037
1.30532
1.2991
1.29407
1.28898
1.2838
1.27947
1.27439
1.26809
1.26167
1.25525
1.24697
1.24053
1.23387
1.22695
1.22265
1.21596
1.207
1.19794
1.19079
1.18412
1.17737
1.17007
1.16144
1.15268
1.14464
1.13696
1.12943
1.12193
1.11377
1.10592
1.09795
1.09101
1.08442
1.07815
1.07234
1.0667
1.06333
1.06109
1.05897
1.05669
1.05689
1.05706
1.05723
1.05692
1.056
1.05413
1.05131
1.04729
1.04234
1.03923
1.03581
1.5034
1.50032
1.49856
1.49839
1.49897
1.49933
1.49855
1.49677
1.49502
1.49254
1.49004
1.48789
1.4877
1.48818
1.48697
1.48352
1.48039
1.47877
1.47794
1.47715