/*--------------------------------*- C++ -*----------------------------------*\
  =========                 |
  \\      /  F ield         | OpenFOAM: The Open Source CFD Toolbox
   \\    /   O peration     | Website:  https://openfoam.org
    \\  /    A nd           | Version:  7
     \\/     M anipulation  |
\*---------------------------------------------------------------------------*/
FoamFile
{
    version     2.0;
    format      ascii;
    class       volScalarField;
    location    "5";
    object      rho;
}
// * * * * * * * * * * * * * * * * * * * * * * * * * * * * * * * * * * * * * //

dimensions      [1 -3 0 0 0 0 0];

internalField   nonuniform List<scalar> 
90000
(
1.04707
1.05022
1.05383
1.05799
1.0623
1.06683
1.07129
1.07613
1.08081
1.08583
1.09056
1.09558
1.10033
1.10527
1.10991
1.11478
1.11923
1.1241
1.12858
1.13413
1.14079
1.1499
1.16009
1.1723
1.18453
1.19794
1.2102
1.22335
1.23487
1.24725
1.25753
1.26864
1.27768
1.28695
1.29472
1.30148
1.30699
1.31095
1.31487
1.31618
1.31706
1.31819
1.32098
1.32197
1.31943
1.30962
1.29759
1.28759
1.28061
1.27706
1.27779
1.28089
1.28608
1.29179
1.29764
1.30306
1.30586
1.30764
1.30965
1.31004
1.30851
1.30542
1.30094
1.29584
1.293
1.29276
1.29432
1.29913
1.30159
1.3051
1.3095
1.3094
1.3072
1.30292
1.29931
1.29728
1.29841
1.30097
1.30466
1.30562
1.30538
1.30365
1.30287
1.30322
1.30521
1.30936
1.30938
1.30936
1.30742
1.30691
1.30741
1.30866
1.30863
1.30791
1.30781
1.30844
1.3102
1.31029
1.31004
1.30966
1.04583
1.04615
1.04672
1.04755
1.04861
1.05012
1.05195
1.05419
1.05672
1.05966
1.06289
1.06647
1.0704
1.07471
1.07921
1.08412
1.08911
1.09444
1.10004
1.10573
1.11126
1.11731
1.1237
1.13095
1.13891
1.14779
1.15772
1.16784
1.1793
1.19064
1.203
1.21522
1.22795
1.24066
1.25306
1.26523
1.27741
1.28712
1.29802
1.30622
1.3138
1.3187
1.32215
1.32456
1.32494
1.32557
1.32774
1.32878
1.32762
1.32283
1.31575
1.30835
1.30357
1.30103
1.30147
1.30317
1.30575
1.3078
1.31109
1.31535
1.31872
1.32136
1.32085
1.31863
1.31396
1.30903
1.30684
1.30452
1.30575
1.30925
1.3125
1.31524
1.31754
1.31628
1.31372
1.30982
1.30753
1.30695
1.30791
1.31062
1.31385
1.31389
1.31242
1.31059
1.31116
1.3131
1.31636
1.31717
1.31648
1.31452
1.3141
1.31468
1.31513
1.31485
1.31437
1.31442
1.31509
1.31627
1.31654
1.31576
1.04958
1.04958
1.0496
1.04964
1.04978
1.04985
1.04995
1.05008
1.05022
1.05038
1.05059
1.05086
1.05123
1.05172
1.05234
1.05316
1.05413
1.05555
1.05735
1.05946
1.06177
1.06442
1.06744
1.07082
1.07462
1.07883
1.08384
1.08922
1.09576
1.10276
1.11133
1.12051
1.13157
1.14347
1.15684
1.1718
1.1871
1.20429
1.22152
1.23928
1.25696
1.27466
1.28861
1.30373
1.31316
1.32389
1.3289
1.33053
1.33239
1.33277
1.33432
1.33636
1.33734
1.33601
1.33307
1.32887
1.32528
1.32194
1.32186
1.32298
1.32479
1.32703
1.32869
1.33047
1.3307
1.32977
1.32671
1.32216
1.31796
1.31611
1.31748
1.32023
1.32391
1.32804
1.33055
1.32882
1.32366
1.3187
1.31752
1.31878
1.3217
1.32522
1.32528
1.32369
1.32188
1.3224
1.32464
1.32673
1.3266
1.32481
1.32301
1.32311
1.3235
1.32346
1.32307
1.32281
1.32312
1.32409
1.32396
1.32331
1.05367
1.05364
1.05363
1.05361
1.05361
1.05362
1.05366
1.05368
1.05367
1.05366
1.05368
1.05372
1.05379
1.05389
1.05407
1.05439
1.0549
1.05511
1.05523
1.05537
1.05557
1.05585
1.05624
1.05673
1.05732
1.05798
1.05876
1.05969
1.06083
1.06215
1.0643
1.06707
1.0706
1.07501
1.08043
1.08726
1.09513
1.10567
1.11684
1.13185
1.14801
1.16697
1.18842
1.21044
1.23361
1.25715
1.27814
1.29586
1.31244
1.32182
1.33268
1.33632
1.33786
1.33876
1.33849
1.33817
1.33741
1.33644
1.3356
1.33482
1.33463
1.3349
1.33548
1.3369
1.33826
1.33924
1.33878
1.33676
1.33173
1.32741
1.3255
1.32627
1.32823
1.33111
1.33421
1.3364
1.33748
1.33551
1.33171
1.32844
1.32817
1.32981
1.33181
1.33396
1.33327
1.33158
1.33096
1.33216
1.33374
1.33449
1.33342
1.33189
1.33177
1.33165
1.33131
1.33048
1.33047
1.33105
1.33157
1.33116
1.05792
1.05791
1.05791
1.05794
1.05801
1.05808
1.05813
1.05816
1.05819
1.05824
1.05833
1.05836
1.05835
1.05835
1.05847
1.05882
1.059
1.05903
1.05909
1.05923
1.0594
1.05956
1.05981
1.06016
1.06056
1.06098
1.06143
1.06196
1.06251
1.06328
1.06352
1.06375
1.06403
1.06441
1.0649
1.06551
1.06625
1.06736
1.06937
1.07253
1.07688
1.0829
1.09146
1.10188
1.11769
1.1346
1.15734
1.18237
1.2082
1.23524
1.26169
1.28255
1.301
1.31572
1.32344
1.33108
1.33614
1.3367
1.33678
1.33717
1.3385
1.34129
1.3417
1.34112
1.34066
1.34067
1.34036
1.33981
1.33905
1.33882
1.33783
1.33634
1.33442
1.33337
1.33386
1.33603
1.33785
1.34031
1.3415
1.34
1.33686
1.33415
1.33473
1.33652
1.33856
1.33909
1.33817
1.33675
1.33719
1.3385
1.33846
1.33759
1.33679
1.3368
1.337
1.33646
1.33566
1.33568
1.33617
1.33612
1.06158
1.06165
1.06172
1.06183
1.06198
1.06206
1.06205
1.06204
1.06205
1.06214
1.06228
1.06242
1.06251
1.06264
1.06293
1.06301
1.06298
1.06301
1.06322
1.06338
1.06347
1.06359
1.06383
1.06399
1.06409
1.06421
1.06444
1.06465
1.06483
1.06507
1.06538
1.06571
1.06599
1.06631
1.06669
1.06707
1.06736
1.06786
1.06782
1.06774
1.06776
1.06786
1.06819
1.06895
1.07065
1.07353
1.07859
1.08654
1.09768
1.1155
1.13517
1.16252
1.19178
1.22089
1.25165
1.278
1.29628
1.31541
1.32466
1.33028
1.33628
1.3405
1.34082
1.33989
1.33644
1.33455
1.33643
1.33807
1.33969
1.34152
1.34274
1.34226
1.34046
1.33693
1.33449
1.33517
1.33694
1.34032
1.34172
1.34155
1.341
1.33951
1.33784
1.33796
1.33835
1.33898
1.33922
1.33955
1.33986
1.34055
1.34129
1.34097
1.34015
1.33946
1.33927
1.33906
1.33878
1.33839
1.33857
1.33883
1.06395
1.06403
1.06408
1.06419
1.06434
1.06435
1.06435
1.06437
1.06442
1.06454
1.06469
1.06483
1.06498
1.06517
1.06537
1.06539
1.06545
1.06566
1.06572
1.06578
1.06596
1.06627
1.06653
1.06669
1.06683
1.06702
1.0672
1.06729
1.06739
1.0676
1.06792
1.06825
1.06849
1.06866
1.06877
1.06887
1.06897
1.06901
1.06899
1.06892
1.0688
1.06862
1.06848
1.0683
1.06809
1.0679
1.06792
1.06814
1.06878
1.0703
1.0736
1.08006
1.09016
1.10644
1.12834
1.15474
1.18692
1.2185
1.24931
1.27551
1.29261
1.30785
1.32155
1.32486
1.32389
1.32636
1.33595
1.33972
1.34125
1.34235
1.34229
1.34048
1.33819
1.33724
1.33729
1.33817
1.3393
1.33973
1.33994
1.34006
1.34054
1.34177
1.34133
1.34011
1.3385
1.33856
1.33883
1.3394
1.33995
1.34045
1.34109
1.3417
1.34166
1.34119
1.34029
1.33976
1.33935
1.33908
1.33918
1.3397
1.0655
1.0655
1.06549
1.06548
1.0655
1.06555
1.06559
1.06561
1.06563
1.06567
1.06572
1.06578
1.06588
1.06598
1.06607
1.06613
1.06618
1.06621
1.06626
1.06633
1.06649
1.06677
1.06693
1.06705
1.06709
1.06712
1.06715
1.0672
1.06731
1.06753
1.06783
1.06812
1.06832
1.06847
1.06858
1.06871
1.06886
1.06894
1.06894
1.06892
1.06884
1.06872
1.06857
1.06838
1.06811
1.06776
1.06737
1.06691
1.06628
1.06586
1.06583
1.06599
1.06663
1.06831
1.07149
1.07785
1.08917
1.10506
1.12932
1.16023
1.1945
1.22487
1.25659
1.29072
1.3099
1.32206
1.33264
1.33703
1.33878
1.33756
1.33347
1.33353
1.33493
1.33784
1.34116
1.34115
1.34072
1.33869
1.33651
1.33705
1.3389
1.34158
1.34166
1.34121
1.3397
1.3384
1.33856
1.33901
1.33963
1.34006
1.34057
1.34139
1.34199
1.34181
1.34102
1.34024
1.33966
1.33926
1.33932
1.3398
1.066
1.06599
1.06598
1.06597
1.06597
1.06598
1.06599
1.06598
1.06595
1.06589
1.06587
1.06587
1.06594
1.06597
1.06596
1.06591
1.06588
1.06588
1.0659
1.06593
1.066
1.06629
1.06657
1.06664
1.06666
1.06666
1.06666
1.06667
1.06677
1.067
1.0673
1.06753
1.06765
1.06774
1.06787
1.06806
1.0683
1.06844
1.06845
1.06842
1.06833
1.06817
1.06798
1.06771
1.06729
1.06673
1.06615
1.0655
1.06478
1.06423
1.06389
1.06377
1.06378
1.06391
1.06418
1.06455
1.06519
1.06678
1.07058
1.07808
1.09137
1.11458
1.14179
1.17443
1.21778
1.25156
1.27508
1.29536
1.30891
1.31546
1.32266
1.33376
1.33898
1.34239
1.34293
1.3415
1.33788
1.33569
1.33584
1.33758
1.34008
1.34117
1.3408
1.3398
1.3389
1.33874
1.33898
1.33918
1.33912
1.33925
1.33976
1.34068
1.34163
1.34162
1.34121
1.34067
1.34016
1.33944
1.33948
1.33983
1.06584
1.06584
1.06584
1.06582
1.06578
1.06576
1.06573
1.06566
1.06558
1.06557
1.06558
1.06561
1.06562
1.0656
1.06557
1.06553
1.06548
1.06543
1.06542
1.06543
1.06547
1.06563
1.06592
1.06605
1.06604
1.06594
1.06577
1.0657
1.0657
1.06577
1.06588
1.06587
1.06573
1.06557
1.06555
1.06559
1.06577
1.06595
1.06598
1.06597
1.06594
1.0659
1.0658
1.06559
1.06529
1.06499
1.06464
1.06406
1.0635
1.06321
1.06299
1.06275
1.06268
1.06274
1.06287
1.06291
1.06297
1.06307
1.06327
1.06378
1.06494
1.06748
1.07385
1.08554
1.10629
1.13848
1.17399
1.21681
1.25226
1.28548
1.31475
1.33084
1.33555
1.33961
1.33815
1.33078
1.3315
1.33423
1.33791
1.34054
1.34037
1.33946
1.33735
1.33787
1.33863
1.3397
1.33962
1.33905
1.3386
1.33871
1.33914
1.33983
1.34086
1.34108
1.34106
1.34099
1.34061
1.33978
1.33971
1.33997
1.06547
1.06548
1.06548
1.06546
1.06539
1.06525
1.06511
1.06509
1.06509
1.06511
1.06515
1.06515
1.06513
1.06509
1.06506
1.06505
1.06504
1.06501
1.06497
1.06495
1.06496
1.06497
1.06499
1.06498
1.06486
1.06459
1.0643
1.06405
1.0639
1.06387
1.06385
1.06374
1.06346
1.06316
1.06304
1.06303
1.06306
1.06312
1.06317
1.06325
1.06338
1.06344
1.06345
1.06348
1.06354
1.06352
1.06331
1.06283
1.06257
1.06248
1.06235
1.06206
1.06184
1.06184
1.06189
1.06197
1.0621
1.06237
1.06274
1.06284
1.06276
1.06236
1.06243
1.06314
1.06594
1.07243
1.0865
1.10747
1.14161
1.18183
1.22203
1.25797
1.28574
1.30502
1.31494
1.32245
1.3346
1.34177
1.34169
1.34113
1.33721
1.33502
1.33538
1.33727
1.34027
1.34046
1.33987
1.33904
1.33843
1.33883
1.33952
1.33997
1.3399
1.34025
1.34077
1.3412
1.34103
1.34061
1.34022
1.34042
1.06489
1.06487
1.06485
1.06475
1.06449
1.06439
1.06439
1.0644
1.06448
1.06454
1.06455
1.06452
1.06445
1.06435
1.06425
1.06418
1.06416
1.06417
1.06413
1.06411
1.06412
1.06412
1.06409
1.06396
1.06371
1.06341
1.06313
1.06294
1.06283
1.0627
1.06249
1.06217
1.06186
1.06164
1.06145
1.06132
1.06127
1.06126
1.06126
1.06131
1.06145
1.06159
1.06169
1.06185
1.06205
1.06208
1.06198
1.06179
1.06181
1.06186
1.06182
1.06155
1.06123
1.06118
1.06121
1.06126
1.06139
1.06178
1.06249
1.06292
1.06289
1.06266
1.06219
1.06222
1.06259
1.06344
1.06504
1.06841
1.07601
1.09049
1.116
1.15119
1.1981
1.23864
1.28297
1.31533
1.33182
1.33812
1.33916
1.33321
1.32944
1.33229
1.3374
1.34088
1.34102
1.34025
1.33806
1.33825
1.33916
1.34023
1.33992
1.33977
1.33959
1.33972
1.34045
1.34119
1.34116
1.34112
1.34114
1.34108
1.06445
1.06426
1.06396
1.06391
1.06391
1.06394
1.06395
1.06394
1.06395
1.06401
1.06402
1.0639
1.06383
1.06385
1.06386
1.06378
1.0637
1.0637
1.06366
1.06358
1.06357
1.06353
1.06338
1.06323
1.06307
1.0629
1.06271
1.06258
1.06246
1.06227
1.06192
1.06153
1.06125
1.06107
1.0609
1.0607
1.0605
1.06039
1.06037
1.06037
1.0604
1.06048
1.06057
1.06073
1.06091
1.06102
1.06107
1.06115
1.06126
1.06129
1.06123
1.06092
1.06055
1.06047
1.06047
1.06045
1.06053
1.06098
1.06193
1.06262
1.06283
1.06287
1.0627
1.06258
1.0628
1.06326
1.06389
1.06465
1.06546
1.06707
1.07056
1.08035
1.09767
1.13045
1.17165
1.21788
1.26083
1.28663
1.30863
1.31613
1.33007
1.33984
1.34265
1.34216
1.33858
1.33656
1.33736
1.33986
1.34176
1.34154
1.34046
1.33958
1.33957
1.34021
1.34092
1.34122
1.34142
1.34208
1.34235
1.34193
1.06256
1.06255
1.06255
1.06254
1.06256
1.06256
1.06255
1.06254
1.06255
1.06261
1.0627
1.06277
1.06283
1.06289
1.06294
1.06304
1.06314
1.06317
1.0632
1.06322
1.06321
1.06311
1.06289
1.06273
1.06268
1.06268
1.06264
1.06254
1.06243
1.06223
1.0619
1.06154
1.06129
1.06112
1.06097
1.06078
1.06058
1.06048
1.06046
1.06045
1.06047
1.06052
1.06057
1.06069
1.06084
1.06097
1.06107
1.06118
1.06148
1.06185
1.06191
1.06184
1.06146
1.06076
1.06031
1.06026
1.06033
1.06073
1.06161
1.06261
1.06311
1.06311
1.06293
1.06263
1.06269
1.06308
1.06372
1.06433
1.06456
1.06461
1.06483
1.06551
1.06741
1.07372
1.08664
1.11495
1.15318
1.20377
1.25302
1.29746
1.32632
1.3359
1.34044
1.3357
1.32929
1.3329
1.33956
1.34267
1.34237
1.34095
1.33986
1.33974
1.34062
1.34119
1.34103
1.3411
1.34181
1.34325
1.34328
1.3427
1.06209
1.06208
1.06207
1.06207
1.06206
1.06206
1.06206
1.06205
1.06205
1.06207
1.06211
1.06218
1.06228
1.06232
1.06236
1.06243
1.06247
1.06253
1.06269
1.06277
1.06277
1.06276
1.06278
1.06284
1.06288
1.06293
1.06299
1.06302
1.06302
1.06295
1.06282
1.06267
1.06252
1.06237
1.06221
1.062
1.06169
1.06129
1.06104
1.06101
1.06099
1.06093
1.0609
1.06097
1.06112
1.06123
1.06136
1.06162
1.06218
1.06291
1.06316
1.06313
1.06291
1.06239
1.06172
1.06122
1.06114
1.0613
1.06184
1.06259
1.06308
1.06309
1.06301
1.06286
1.06287
1.06313
1.0636
1.06392
1.06389
1.06385
1.06395
1.06424
1.06461
1.06518
1.06668
1.07098
1.08134
1.10459
1.14076
1.19178
1.23938
1.27678
1.30423
1.31541
1.32893
1.34222
1.34345
1.34273
1.33897
1.33871
1.33998
1.34228
1.34246
1.34186
1.34093
1.34127
1.34271
1.34396
1.34392
1.34328
1.06229
1.06229
1.06229
1.0623
1.0623
1.0623
1.0623
1.0623
1.06231
1.06232
1.06236
1.06246
1.06254
1.06263
1.06274
1.06281
1.0628
1.06279
1.0628
1.0629
1.06302
1.06309
1.06318
1.06328
1.06339
1.06353
1.06372
1.06394
1.06409
1.06414
1.06412
1.06403
1.06394
1.06389
1.06388
1.06388
1.06382
1.06357
1.06326
1.06304
1.06286
1.06281
1.06282
1.06286
1.06283
1.06267
1.06254
1.06257
1.06294
1.06385
1.06443
1.06449
1.06439
1.06404
1.06338
1.0627
1.06247
1.06257
1.06283
1.06314
1.06337
1.06334
1.06313
1.06286
1.06285
1.06311
1.06341
1.06345
1.06338
1.06335
1.06349
1.06385
1.06429
1.06469
1.06468
1.06483
1.06568
1.06876
1.07712
1.09755
1.13262
1.18491
1.23638
1.28972
1.32481
1.33787
1.34099
1.33177
1.3321
1.33634
1.34271
1.34379
1.34308
1.34075
1.34096
1.34252
1.34397
1.34409
1.34375
1.34356
1.0626
1.06256
1.06251
1.06246
1.0624
1.06239
1.06239
1.0624
1.06243
1.06249
1.06251
1.06249
1.0625
1.06265
1.06291
1.06298
1.06295
1.06291
1.0629
1.06294
1.06302
1.06309
1.06317
1.06325
1.06336
1.06348
1.06361
1.0638
1.06414
1.06451
1.06465
1.06469
1.06475
1.0648
1.06486
1.06502
1.06524
1.0653
1.06526
1.06507
1.06488
1.06483
1.06484
1.06482
1.06473
1.06446
1.06418
1.06417
1.06446
1.06525
1.0657
1.06579
1.06576
1.06553
1.06482
1.06421
1.06406
1.06413
1.06415
1.06409
1.064
1.06383
1.06344
1.0629
1.06284
1.06318
1.06354
1.06348
1.06337
1.06337
1.06351
1.06379
1.06408
1.06438
1.06481
1.06509
1.06524
1.0654
1.06601
1.06819
1.07576
1.09287
1.12826
1.17906
1.23185
1.27499
1.30476
1.31585
1.33288
1.34394
1.34483
1.34349
1.34
1.3403
1.34283
1.3451
1.34486
1.3433
1.34334
1.34418
1.06278
1.06266
1.06256
1.06255
1.0626
1.06261
1.06261
1.06263
1.06264
1.06264
1.06261
1.0626
1.06268
1.06289
1.06294
1.06294
1.06289
1.06287
1.06288
1.0629
1.06295
1.06301
1.06307
1.06316
1.06324
1.06335
1.06351
1.06377
1.06412
1.06443
1.06467
1.06485
1.06502
1.06516
1.06529
1.06559
1.06607
1.06634
1.06641
1.06644
1.06645
1.06642
1.06644
1.06643
1.06631
1.06586
1.06547
1.06546
1.0657
1.0662
1.06641
1.06646
1.06645
1.06617
1.06553
1.06538
1.06542
1.06541
1.06535
1.06513
1.06505
1.06492
1.0643
1.06348
1.06343
1.06382
1.06413
1.06416
1.06419
1.06424
1.06432
1.06446
1.06468
1.06496
1.06518
1.06525
1.0652
1.06532
1.06548
1.0656
1.06607
1.06789
1.07454
1.0916
1.12721
1.18091
1.23799
1.2967
1.3278
1.34131
1.33989
1.33116
1.33459
1.34155
1.34615
1.3459
1.34391
1.34252
1.34316
1.34494
1.06361
1.06361
1.06359
1.06358
1.06359
1.06361
1.06361
1.0636
1.06364
1.0637
1.06372
1.06372
1.06368
1.06371
1.06389
1.06409
1.0642
1.06428
1.06436
1.06444
1.06455
1.06461
1.06463
1.06466
1.06471
1.0648
1.06495
1.06513
1.06512
1.06501
1.06493
1.06491
1.06499
1.06521
1.06545
1.06568
1.06591
1.0663
1.06689
1.06712
1.06716
1.0672
1.06724
1.06723
1.06707
1.0665
1.06606
1.06601
1.06609
1.06609
1.06599
1.06593
1.06593
1.06576
1.06563
1.06562
1.06575
1.06606
1.06609
1.06608
1.06614
1.06604
1.06523
1.06475
1.0649
1.06532
1.06538
1.06542
1.06554
1.06562
1.06563
1.06558
1.06551
1.06552
1.06553
1.06547
1.0654
1.06543
1.06557
1.06575
1.06571
1.06567
1.066
1.06758
1.07429
1.09186
1.12988
1.18537
1.24162
1.28478
1.30959
1.32036
1.34281
1.34635
1.346
1.34279
1.34134
1.34269
1.345
1.34569
1.06523
1.06525
1.06526
1.06527
1.06528
1.06528
1.06524
1.06522
1.06533
1.06564
1.06573
1.06574
1.06572
1.0658
1.06618
1.0666
1.06668
1.06671
1.06674
1.06676
1.06676
1.06661
1.06652
1.06654
1.06659
1.0666
1.06659
1.06661
1.06659
1.06642
1.06614
1.06602
1.06599
1.06602
1.06602
1.06603
1.06612
1.06643
1.06702
1.06736
1.06743
1.06744
1.06743
1.06741
1.06727
1.06682
1.06622
1.0661
1.06609
1.066
1.06581
1.06569
1.06555
1.06539
1.06535
1.06536
1.06564
1.06617
1.06629
1.06643
1.0667
1.06667
1.06636
1.0663
1.06655
1.0668
1.06671
1.06664
1.06676
1.0669
1.06691
1.06683
1.06654
1.06631
1.06616
1.06599
1.06582
1.06571
1.06574
1.06585
1.06592
1.06596
1.06582
1.06575
1.06597
1.0678
1.07469
1.09571
1.13689
1.19256
1.26477
1.31017
1.33918
1.34161
1.3357
1.33488
1.33956
1.34568
1.34625
1.3457
1.0661
1.06611
1.06611
1.06611
1.06609
1.06602
1.066
1.06602
1.06618
1.06642
1.06654
1.06674
1.067
1.06743
1.06806
1.06822
1.06823
1.06823
1.06812
1.06802
1.06798
1.06781
1.06765
1.06757
1.06752
1.06755
1.06757
1.06749
1.06734
1.06715
1.06682
1.06661
1.06662
1.06658
1.06642
1.0661
1.06569
1.0656
1.06572
1.06609
1.06659
1.06712
1.06748
1.06749
1.06733
1.06691
1.06634
1.06623
1.06624
1.06615
1.06591
1.06579
1.06574
1.06549
1.06539
1.06543
1.06595
1.06659
1.0667
1.06697
1.06745
1.06748
1.06731
1.06729
1.06744
1.06746
1.0672
1.06698
1.06707
1.06751
1.06771
1.06767
1.06739
1.06708
1.06692
1.06681
1.06666
1.06648
1.06632
1.06628
1.06631
1.06635
1.06628
1.06615
1.06617
1.06613
1.06636
1.06869
1.07646
1.10242
1.14555
1.20531
1.27102
1.29458
1.3158
1.3314
1.34748
1.34747
1.3454
1.3439
1.06566
1.06566
1.06567
1.06566
1.06562
1.06539
1.06523
1.06522
1.06532
1.06536
1.0654
1.06578
1.06614
1.06634
1.06675
1.06723
1.06748
1.06758
1.06755
1.06741
1.06719
1.06711
1.06714
1.06719
1.06718
1.06724
1.06728
1.06723
1.06712
1.06698
1.06675
1.06643
1.06583
1.0652
1.06489
1.06464
1.06431
1.06431
1.06467
1.06524
1.0655
1.06565
1.06593
1.06633
1.06645
1.06641
1.06616
1.06601
1.06607
1.06603
1.066
1.06625
1.06665
1.06668
1.06643
1.06637
1.06678
1.06723
1.0672
1.06738
1.06784
1.06788
1.06764
1.06756
1.06765
1.0676
1.06715
1.06691
1.067
1.0675
1.0677
1.06767
1.06746
1.06725
1.06724
1.06734
1.06744
1.06743
1.06734
1.06717
1.06703
1.06698
1.0669
1.06669
1.0664
1.06635
1.06647
1.06661
1.06715
1.07037
1.07979
1.11247
1.15917
1.22509
1.29962
1.32482
1.34355
1.34065
1.33567
1.34047
1.05901
1.0587
1.05842
1.05826
1.05817
1.05801
1.05788
1.05785
1.05785
1.05787
1.05787
1.05801
1.05857
1.05907
1.05972
1.06086
1.06168
1.06215
1.06256
1.0627
1.06264
1.06266
1.06306
1.06384
1.0642
1.06432
1.06439
1.06453
1.06478
1.06479
1.06438
1.06326
1.06273
1.06279
1.06334
1.06399
1.0643
1.06486
1.06594
1.06631
1.06623
1.06582
1.0656
1.06565
1.06604
1.06618
1.06617
1.06599
1.06582
1.06588
1.06627
1.06668
1.06688
1.06724
1.06733
1.06729
1.06736
1.06741
1.06724
1.06732
1.0676
1.06775
1.06761
1.06755
1.06762
1.06752
1.067
1.06686
1.06694
1.06733
1.06769
1.06769
1.06756
1.06746
1.06749
1.06766
1.06789
1.06792
1.0679
1.06779
1.06769
1.06768
1.06765
1.06747
1.06704
1.06677
1.0668
1.0669
1.067
1.06711
1.0678
1.07214
1.08489
1.12528
1.18013
1.23968
1.29602
1.31004
1.33175
1.34399
1.0529
1.05227
1.0516
1.05075
1.05006
1.04989
1.04985
1.04976
1.04968
1.04968
1.04967
1.04965
1.04997
1.05062
1.05151
1.05351
1.05421
1.05426
1.05493
1.05609
1.05676
1.0577
1.0592
1.05959
1.05955
1.05958
1.05978
1.06015
1.06022
1.05993
1.05903
1.05857
1.05857
1.05897
1.06008
1.06155
1.06306
1.06466
1.0657
1.06581
1.06562
1.06525
1.06521
1.06527
1.06566
1.06607
1.06609
1.06565
1.0647
1.06458
1.06477
1.06507
1.06565
1.06671
1.06715
1.06722
1.06732
1.06712
1.06613
1.06585
1.06602
1.0663
1.06669
1.06686
1.067
1.06702
1.06688
1.06689
1.06695
1.06716
1.06748
1.0676
1.06761
1.06762
1.06773
1.06792
1.06804
1.06804
1.06798
1.06787
1.06786
1.06792
1.068
1.06796
1.06773
1.06753
1.06745
1.06737
1.06721
1.06714
1.0672
1.06736
1.06856
1.07522
1.09428
1.14331
1.20321
1.2722
1.32373
1.34115
1.05776
1.05736
1.05701
1.05643
1.05554
1.05498
1.05459
1.05408
1.0534
1.05315
1.0532
1.05338
1.05373
1.05445
1.05526
1.05562
1.05562
1.05573
1.05624
1.05632
1.05642
1.05676
1.05689
1.05675
1.05667
1.05706
1.05784
1.05805
1.05777
1.05747
1.05752
1.05818
1.05839
1.05848
1.05902
1.05977
1.06016
1.06015
1.05981
1.05899
1.05853
1.05853
1.05905
1.06089
1.06216
1.0622
1.06176
1.0599
1.05759
1.05717
1.05717
1.05736
1.05861
1.06134
1.06299
1.06323
1.06324
1.06312
1.06313
1.06353
1.06492
1.06554
1.06554
1.06521
1.06516
1.06553
1.06629
1.06702
1.06723
1.0673
1.06745
1.06764
1.06765
1.06767
1.06779
1.06798
1.06805
1.06802
1.06797
1.0679
1.06791
1.06796
1.06802
1.068
1.06795
1.06797
1.06795
1.06789
1.06775
1.06751
1.06755
1.06776
1.06788
1.06818
1.07033
1.07981
1.10731
1.16466
1.22343
1.2921
1.06523
1.06536
1.06529
1.06518
1.06413
1.0615
1.06098
1.06107
1.06108
1.06123
1.06196
1.06185
1.06007
1.05915
1.05922
1.05906
1.05721
1.05572
1.05592
1.05585
1.05487
1.05433
1.05443
1.05444
1.05492
1.05573
1.05579
1.0558
1.05678
1.05769
1.05807
1.05862
1.05875
1.05831
1.05683
1.05656
1.05648
1.05541
1.05185
1.04969
1.04961
1.04999
1.05124
1.05399
1.0576
1.05911
1.0592
1.05868
1.05636
1.05268
1.05103
1.05114
1.05235
1.05507
1.05759
1.05873
1.05887
1.05887
1.05894
1.05944
1.06122
1.06263
1.06283
1.06272
1.06234
1.06237
1.06339
1.06542
1.06641
1.06634
1.06585
1.06579
1.06614
1.06708
1.06757
1.06761
1.06751
1.06748
1.06768
1.06797
1.06803
1.06795
1.0678
1.06771
1.06775
1.06774
1.06762
1.06763
1.06772
1.06802
1.06849
1.0686
1.06853
1.06842
1.06816
1.06843
1.0719
1.08757
1.1232
1.21824
1.06603
1.06612
1.06616
1.06564
1.06294
1.06158
1.06139
1.06132
1.06251
1.06749
1.06932
1.06754
1.06417
1.06354
1.06388
1.06547
1.06642
1.0658
1.06288
1.05874
1.05664
1.05705
1.05928
1.06017
1.05994
1.0599
1.06062
1.06251
1.06489
1.06571
1.06563
1.06586
1.06609
1.06491
1.05969
1.0578
1.0577
1.0565
1.05293
1.05132
1.05136
1.052
1.05356
1.05581
1.05812
1.06039
1.06306
1.06522
1.06502
1.06306
1.05955
1.05672
1.05635
1.05718
1.05862
1.05989
1.06026
1.05989
1.0595
1.0595
1.06033
1.06088
1.0609
1.06011
1.05828
1.05745
1.05751
1.05821
1.05937
1.06034
1.06106
1.06182
1.06277
1.0638
1.06465
1.0654
1.06615
1.06685
1.06753
1.06794
1.06794
1.06786
1.06766
1.06732
1.06728
1.06734
1.06739
1.06751
1.06792
1.06853
1.06919
1.06923
1.06913
1.06877
1.068
1.06767
1.06776
1.06921
1.07559
1.12503
1.09251
1.09236
1.09241
1.09284
1.09355
1.09362
1.09367
1.09406
1.09463
1.09463
1.09183
1.08612
1.08436
1.08625
1.09077
1.09217
1.0909
1.08376
1.07931
1.07899
1.07918
1.08066
1.08543
1.08769
1.08698
1.08662
1.08736
1.08756
1.08644
1.08485
1.08437
1.08488
1.08652
1.08684
1.08493
1.08099
1.07937
1.07842
1.0765
1.07434
1.07306
1.07198
1.06918
1.0663
1.06606
1.06701
1.0688
1.07018
1.07081
1.07046
1.06814
1.06391
1.06171
1.06164
1.0618
1.06166
1.06083
1.05948
1.05859
1.05779
1.05692
1.05668
1.05705
1.05764
1.05737
1.05583
1.05477
1.05492
1.05575
1.0571
1.05838
1.0594
1.06019
1.06056
1.06088
1.06138
1.06244
1.06383
1.06424
1.06463
1.06507
1.06536
1.06577
1.06615
1.06652
1.06704
1.06757
1.06793
1.06823
1.06864
1.0691
1.06912
1.06885
1.06817
1.0677
1.06763
1.06784
1.06813
1.06857
1.08104
1.14479
1.14476
1.14473
1.14494
1.14628
1.14785
1.14931
1.15064
1.15099
1.15092
1.15009
1.14727
1.1429
1.14124
1.14064
1.13717
1.12814
1.12601
1.12546
1.12427
1.12278
1.12135
1.12015
1.11942
1.11813
1.11654
1.11481
1.11248
1.10845
1.1027
1.09992
1.09979
1.10113
1.10402
1.10412
1.10117
1.10015
1.10122
1.10371
1.10386
1.10248
1.0986
1.09282
1.088
1.08595
1.08502
1.0826
1.07744
1.07571
1.0751
1.07269
1.06844
1.06752
1.0679
1.06863
1.06873
1.06824
1.06621
1.06346
1.06095
1.05939
1.05933
1.05981
1.06147
1.06271
1.06218
1.06088
1.05993
1.05996
1.06092
1.06305
1.06428
1.06402
1.06291
1.06155
1.06107
1.06077
1.06065
1.06049
1.06049
1.06082
1.06164
1.06282
1.06402
1.06524
1.06638
1.06731
1.06762
1.06777
1.06806
1.06808
1.06797
1.06781
1.06751
1.06762
1.06809
1.06853
1.06872
1.0688
1.07027
1.20792
1.20671
1.20078
1.19756
1.19781
1.19758
1.19649
1.1965
1.19855
1.20009
1.19963
1.19808
1.198
1.19754
1.19236
1.18836
1.18891
1.19097
1.19128
1.18931
1.18465
1.18309
1.18375
1.18568
1.18559
1.18454
1.18391
1.18181
1.17701
1.17355
1.17058
1.16523
1.16293
1.16272
1.162
1.15997
1.15675
1.15025
1.14309
1.14171
1.14283
1.14338
1.14168
1.13926
1.13962
1.14026
1.1379
1.13072
1.12672
1.12394
1.11865
1.11131
1.10865
1.10883
1.10872
1.10626
1.10259
1.10115
1.09973
1.09566
1.08847
1.08317
1.08203
1.08214
1.08173
1.07944
1.07551
1.07159
1.069
1.06785
1.0672
1.06558
1.06236
1.06007
1.05984
1.05976
1.0594
1.05888
1.05842
1.05842
1.05885
1.06011
1.06154
1.06254
1.06312
1.06331
1.06406
1.06449
1.06416
1.06424
1.06483
1.06589
1.06701
1.06756
1.06816
1.06853
1.06872
1.06877
1.06869
1.0687
1.2852
1.28495
1.28221
1.27497
1.27257
1.27332
1.27357
1.27095
1.26699
1.2668
1.26685
1.26617
1.26613
1.26607
1.2655
1.26287
1.25728
1.25603
1.25614
1.25455
1.24989
1.24894
1.24837
1.2455
1.2406
1.23937
1.23932
1.23863
1.2356
1.23116
1.22833
1.22676
1.22457
1.22204
1.22167
1.22267
1.22252
1.21917
1.21448
1.21011
1.20534
1.20148
1.1976
1.19276
1.18898
1.18464
1.17675
1.1735
1.17348
1.17245
1.16859
1.16213
1.15848
1.15718
1.15484
1.14655
1.13221
1.12849
1.12755
1.12361
1.11888
1.11802
1.11611
1.10938
1.09958
1.09192
1.08834
1.08639
1.08437
1.08018
1.07549
1.07153
1.06726
1.06407
1.06434
1.06503
1.06464
1.06313
1.06302
1.06355
1.06525
1.06666
1.06666
1.0662
1.0649
1.06366
1.06279
1.06178
1.06156
1.06172
1.0624
1.06397
1.06554
1.06735
1.068
1.06821
1.06829
1.06827
1.06805
1.06823
1.34876
1.34737
1.34658
1.34647
1.34687
1.34893
1.34939
1.34872
1.34636
1.34073
1.3378
1.33745
1.33695
1.33606
1.33625
1.33635
1.33455
1.3316
1.32926
1.32607
1.32448
1.3244
1.32392
1.32159
1.31676
1.31322
1.31272
1.31187
1.30884
1.30562
1.3036
1.30174
1.29883
1.29452
1.2911
1.28814
1.28246
1.27799
1.27803
1.27802
1.27513
1.27064
1.26723
1.26082
1.2561
1.25529
1.25296
1.2471
1.24143
1.23474
1.22671
1.22371
1.22178
1.21797
1.21375
1.20862
1.20197
1.19673
1.18992
1.17725
1.17057
1.17065
1.17026
1.16737
1.15969
1.14687
1.13599
1.1329
1.13329
1.13115
1.12291
1.11458
1.10861
1.10273
1.09839
1.09437
1.09021
1.0842
1.0789
1.07476
1.07235
1.06911
1.06649
1.0639
1.06227
1.06146
1.06083
1.06087
1.06108
1.06213
1.06408
1.06612
1.0663
1.06615
1.06514
1.06464
1.06484
1.0656
1.06678
1.06836
1.43138
1.43062
1.42995
1.42942
1.42858
1.42775
1.42701
1.42432
1.4218
1.42168
1.42082
1.41705
1.41577
1.41531
1.41346
1.41025
1.4097
1.40984
1.40953
1.40719
1.40324
1.40051
1.39966
1.39842
1.39554
1.39154
1.38821
1.38656
1.3852
1.38299
1.3801
1.3772
1.37437
1.37151
1.36877
1.36517
1.36058
1.35643
1.35352
1.35015
1.34337
1.33955
1.3379
1.33514
1.33002
1.32445
1.32003
1.31596
1.30936
1.30258
1.29888
1.29523
1.29166
1.28628
1.27386
1.26234
1.26119
1.26035
1.25545
1.24552
1.23881
1.23098
1.21754
1.21185
1.20832
1.20347
1.19597
1.18256
1.17327
1.16905
1.16303
1.15428
1.14473
1.13679
1.12812
1.11962
1.1119
1.1046
1.09717
1.08977
1.08379
1.07747
1.07254
1.06851
1.06738
1.0661
1.06631
1.06686
1.0678
1.06937
1.06932
1.06867
1.06723
1.06513
1.06316
1.06315
1.06343
1.06443
1.06569
1.06814
1.51611
1.51481
1.51353
1.51171
1.51118
1.51086
1.50903
1.50498
1.50407
1.50432
1.50364
1.50093
1.50006
1.49834
1.49408
1.49232
1.49161
1.49107
1.49028
1.48861
1.48626
1.48212
1.47871
1.47693
1.47518
1.47239
1.46885
1.46582
1.46343
1.46181
1.45998
1.45679
1.452
1.44792
1.44495
1.44219
1.43818
1.43338
1.43007
1.42708
1.42293
1.41799
1.41345
1.40899
1.40319
1.39704
1.39289
1.38892
1.38361
1.37705
1.36948
1.36366
1.36015
1.35583
1.3486
1.34056
1.33397
1.32816
1.32076
1.30942
1.30359
1.29871
1.29109
1.28334
1.27094
1.26165
1.25765
1.25212
1.24198
1.23039
1.22217
1.21457
1.20544
1.19661
1.18721
1.1785
1.1695
1.16149
1.15361
1.14598
1.137
1.12788
1.11801
1.10888
1.10137
1.09384
1.08813
1.08148
1.07647
1.07146
1.06888
1.06657
1.06468
1.06347
1.06318
1.06323
1.06482
1.06716
1.06742
1.06695
1.60595
1.60516
1.60443
1.60138
1.59766
1.59754
1.5971
1.595
1.594
1.59295
1.58911
1.58747
1.5877
1.58681
1.58398
1.58134
1.57754
1.57561
1.57479
1.57395
1.57209
1.56816
1.56451
1.56342
1.56232
1.55988
1.5549
1.54899
1.54643
1.54549
1.54446
1.54241
1.53745
1.53154
1.52711
1.5238
1.52068
1.51672
1.51234
1.50814
1.50297
1.49728
1.49296
1.48897
1.48386
1.47803
1.47261
1.46731
1.46121
1.45464
1.44773
1.44136
1.43587
1.43053
1.42291
1.41415
1.40708
1.40119
1.39501
1.38736
1.37799
1.36731
1.3577
1.35151
1.34392
1.33521
1.32507
1.31346
1.30477
1.29632
1.28582
1.27475
1.26519
1.25442
1.24255
1.23184
1.22187
1.21118
1.19989
1.1891
1.17709
1.16548
1.15298
1.14233
1.1312
1.1206
1.10998
1.09926
1.0897
1.08078
1.0756
1.07229
1.06982
1.06853
1.06926
1.07116
1.0723
1.07141
1.06963
1.06623
1.69889
1.69863
1.69812
1.6968
1.69518
1.69422
1.69178
1.68618
1.68452
1.68482
1.68472
1.68378
1.67901
1.6759
1.67618
1.67577
1.67289
1.66921
1.6651
1.66392
1.66344
1.66251
1.65769
1.6526
1.65124
1.64995
1.64704
1.64259
1.63897
1.63404
1.63021
1.62834
1.62612
1.62186
1.6153
1.60959
1.60614
1.60311
1.59888
1.59365
1.58848
1.5828
1.57743
1.57271
1.56728
1.56067
1.55487
1.54941
1.54295
1.53606
1.52918
1.52122
1.51386
1.5082
1.5016
1.49306
1.48462
1.47699
1.46924
1.46017
1.45129
1.4432
1.43424
1.42466
1.41337
1.40325
1.39533
1.38589
1.3744
1.36373
1.35327
1.34148
1.33074
1.32035
1.30921
1.29612
1.28462
1.2739
1.26206
1.24933
1.23808
1.22709
1.21429
1.20163
1.19007
1.18032
1.1694
1.15788
1.14512
1.13329
1.12065
1.10947
1.0997
1.08999
1.08275
1.07727
1.07307
1.06909
1.06713
1.06592
1.80195
1.79698
1.79359
1.79326
1.79442
1.79507
1.79391
1.79151
1.78951
1.78563
1.78088
1.78038
1.78049
1.78006
1.77724
1.77102
1.76957
1.76923
1.76798
1.76274
1.75906
1.7582
1.75718
1.75261
1.74716
1.74453
1.74249
1.73875
1.73458
1.73091
1.72681
1.72223
1.71848
1.71517
1.71066
1.70268
1.69641
1.6933
1.69029
1.68577
1.68032
1.67426
1.66792
1.66251
1.65696
1.64946
1.64212
1.63631
1.62966
1.62113
1.61398
1.6071
1.59863
1.59127
1.58468
1.57645
1.56721
1.55815
1.5496
1.5407
1.53031
1.52055
1.51137
1.50146
1.4914
1.48088
1.46941
1.45824
1.44758
1.43692
1.42542
1.41297
1.40062
1.3888
1.3772
1.36431
1.35118
1.33842
1.32542
1.31123
1.29773
1.28424
1.27038
1.2561
1.24245
1.22855
1.21475
1.20095
1.18641
1.1728
1.15708
1.14205
1.12737
1.11377
1.1012
1.0893
1.08078
1.07498
1.07178
1.07144
1.90999
1.90863
1.90798
1.90604
1.89993
1.89584
1.89589
1.89694
1.89676
1.89537
1.89239
1.88673
1.88458
1.88441
1.88392
1.88272