/*--------------------------------*- C++ -*----------------------------------*\
  =========                 |
  \\      /  F ield         | OpenFOAM: The Open Source CFD Toolbox
   \\    /   O peration     | Website:  https://openfoam.org
    \\  /    A nd           | Version:  7
     \\/     M anipulation  |
\*---------------------------------------------------------------------------*/
FoamFile
{
    version     2.0;
    format      ascii;
    class       volScalarField;
    location    "13.5";
    object      T;
}
// * * * * * * * * * * * * * * * * * * * * * * * * * * * * * * * * * * * * * //

dimensions      [0 0 0 1 0 0 0];

internalField   nonuniform List<scalar> 
90000
(
0.800604
0.825047
0.848526
0.869538
0.887804
0.904178
0.918972
0.93256
0.944873
0.956236
0.966673
0.976124
0.984926
0.992831
1.00032
1.00676
1.01289
1.01792
1.02282
1.02659
1.03032
1.03306
1.03571
1.03736
1.03924
1.03999
1.04084
1.04137
1.0416
1.04149
1.04126
1.04074
1.03991
1.03862
1.03683
1.03467
1.03228
1.0315
1.03198
1.03285
1.03387
1.03489
1.03586
1.03666
1.03721
1.03758
1.03742
1.03676
1.03554
1.03427
1.03343
1.03286
1.03293
1.03337
1.03437
1.03526
1.03588
1.03561
1.03498
1.03378
1.03293
1.03253
1.03264
1.03323
1.03393
1.03391
1.03362
1.03288
1.03233
1.0322
1.03224
1.03245
1.03241
1.03204
1.03158
1.03123
1.03135
1.03149
1.0314
1.0312
1.03101
1.03104
1.031
1.0309
1.03076
1.03058
1.03056
1.03048
1.03032
1.03006
1.02988
1.02974
1.02971
1.02975
1.02981
1.02978
1.02968
1.02953
1.02935
1.02902
0.778538
0.778582
0.778755
0.779186
0.77996
0.781279
0.783233
0.786182
0.790079
0.795455
0.802049
0.810536
0.820217
0.831894
0.844404
0.858625
0.873011
0.888569
0.903699
0.919302
0.933913
0.947958
0.960976
0.97291
0.983777
0.993274
1.00206
1.00867
1.01519
1.01937
1.02349
1.02563
1.02779
1.02899
1.03006
1.03054
1.03238
1.03446
1.0364
1.03804
1.03915
1.03988
1.04007
1.03983
1.03952
1.03885
1.03718
1.03536
1.03401
1.03327
1.03338
1.03373
1.03465
1.03576
1.03715
1.03697
1.03637
1.03516
1.0337
1.03252
1.03254
1.0329
1.03386
1.035
1.03482
1.03428
1.03316
1.03245
1.03228
1.03249
1.03308
1.03303
1.0326
1.03179
1.03139
1.03141
1.03162
1.03164
1.03149
1.03128
1.03119
1.03125
1.03119
1.03101
1.03084
1.03076
1.03073
1.03063
1.03038
1.03014
1.03002
1.02992
1.02992
1.02996
1.02999
1.02993
1.02983
1.02966
1.02943
1.02912
0.777612
0.77757
0.77752
0.777468
0.77741
0.777345
0.777276
0.777206
0.777136
0.77708
0.777027
0.777039
0.777118
0.777319
0.777692
0.778364
0.779421
0.78117
0.783699
0.787651
0.792902
0.800544
0.809831
0.822208
0.835927
0.85265
0.869758
0.888825
0.907199
0.926072
0.943657
0.96025
0.975852
0.989094
1.00213
1.01225
1.02111
1.02557
1.02889
1.03027
1.03167
1.03256
1.03344
1.03335
1.03273
1.03083
1.02898
1.02938
1.03027
1.03127
1.03294
1.03426
1.03516
1.03503
1.03479
1.03359
1.03167
1.03071
1.03005
1.0303
1.0316
1.0333
1.03385
1.03364
1.03286
1.03175
1.03087
1.0309
1.03151
1.03238
1.03238
1.03197
1.03111
1.03047
1.03048
1.03091
1.03123
1.03102
1.03076
1.03062
1.0308
1.03087
1.03069
1.03048
1.03036
1.03044
1.03039
1.03023
1.02997
1.02979
1.0297
1.0297
1.02974
1.02981
1.02979
1.02971
1.02961
1.02945
1.02922
1.02895
0.776183
0.776137
0.776087
0.776032
0.775973
0.775911
0.775848
0.775783
0.775716
0.775649
0.775582
0.775517
0.775435
0.775351
0.775263
0.775172
0.77508
0.774988
0.774898
0.774825
0.774745
0.774751
0.774816
0.77506
0.775561
0.776576
0.778271
0.781376
0.786003
0.793777
0.80396
0.818929
0.836108
0.857873
0.879896
0.904293
0.926865
0.947357
0.965597
0.979463
0.99156
0.999465
1.00649
1.00996
1.01365
1.01563
1.01999
1.02437
1.02878
1.03199
1.03386
1.0337
1.0333
1.03231
1.02914
1.02645
1.02537
1.0256
1.02681
1.02914
1.03108
1.03185
1.03147
1.02984
1.02837
1.02741
1.02764
1.0289
1.0303
1.03027
1.02977
1.02886
1.02805
1.02831
1.02898
1.02942
1.02918
1.02879
1.02875
1.02908
1.02941
1.02927
1.02892
1.02889
1.02904
1.02916
1.02905
1.02881
1.02863
1.02865
1.02866
1.02869
1.02878
1.02887
1.02885
1.02883
1.02876
1.02859
1.02839
1.02822
0.774666
0.774629
0.774589
0.774548
0.774506
0.774464
0.77442
0.774375
0.774329
0.774281
0.774232
0.774181
0.774129
0.774074
0.774017
0.773959
0.773901
0.773844
0.773789
0.773734
0.773681
0.77363
0.773589
0.773524
0.773453
0.773383
0.773318
0.773266
0.773231
0.773259
0.773373
0.77375
0.774552
0.776371
0.779557
0.785994
0.795618
0.811809
0.831521
0.857487
0.883801
0.911214
0.936916
0.959155
0.979977
0.995968
1.00922
1.01514
1.01944
1.02253
1.02482
1.02562
1.02475
1.02192
1.02041
1.02085
1.02208
1.0247
1.02664
1.02801
1.02774
1.02719
1.02549
1.02412
1.0236
1.02438
1.02603
1.02723
1.02709
1.02664
1.02575
1.02506
1.02548
1.02638
1.02686
1.02668
1.02614
1.02601
1.02633
1.0268
1.02682
1.02661
1.02651
1.02666
1.02689
1.02692
1.02678
1.02665
1.02668
1.02674
1.02679
1.02689
1.02709
1.02723
1.02726
1.02722
1.02715
1.02705
1.02694
1.02688
0.773529
0.773508
0.773485
0.773462
0.773437
0.773413
0.773389
0.773364
0.773339
0.773314
0.773288
0.773261
0.773233
0.773205
0.773177
0.773149
0.773119
0.773091
0.773062
0.773034
0.773003
0.772973
0.772941
0.772908
0.772876
0.772846
0.772818
0.772791
0.772767
0.772744
0.772738
0.772707
0.772667
0.772634
0.772613
0.772634
0.772727
0.773067
0.773925
0.776155
0.780591
0.78999
0.804459
0.827935
0.854563
0.887721
0.917919
0.944847
0.9669
0.981377
0.99443
1.00124
1.00632
1.00924
1.01547
1.02075
1.02532
1.02752
1.02728
1.02676
1.02449
1.02061
1.01992
1.02033
1.02201
1.02417
1.02607
1.02568
1.02433
1.0222
1.02225
1.02289
1.02404
1.02476
1.02443
1.02377
1.02344
1.02366
1.0243
1.02468
1.02443
1.02405
1.02408
1.02442
1.02467
1.02463
1.02438
1.02439
1.02445
1.02455
1.02467
1.02489
1.02511
1.02522
1.02525
1.02522
1.0252
1.02514
1.02507
1.02511
0.772886
0.772876
0.772866
0.772856
0.772845
0.772834
0.772824
0.772813
0.772802
0.77279
0.772778
0.772765
0.772752
0.772739
0.772726
0.772713
0.7727
0.772687
0.772675
0.772664
0.772652
0.772641
0.772629
0.772619
0.772608
0.772598
0.772585
0.772572
0.772557
0.772542
0.772525
0.77251
0.772496
0.772481
0.772469
0.772456
0.772455
0.772442
0.772424
0.772406
0.772416
0.772486
0.772766
0.773714
0.77592
0.782066
0.792896
0.814706
0.842206
0.87683
0.910986
0.943269
0.971415
0.994044
1.01081
1.01691
1.02148
1.02356
1.02347
1.02091
1.01524
1.01606
1.01853
1.02166
1.02367
1.02388
1.0237
1.02195
1.02
1.02005
1.02101
1.02265
1.02334
1.02323
1.02257
1.02171
1.02196
1.02269
1.02301
1.02282
1.02248
1.02239
1.02267
1.02299
1.02297
1.02279
1.02269
1.02274
1.02283
1.02294
1.02309
1.02331
1.02349
1.02362
1.02365
1.02359
1.02353
1.0235
1.02351
1.02358
0.772552
0.772547
0.772543
0.772538
0.772533
0.772528
0.772523
0.772517
0.772512
0.772507
0.772502
0.772496
0.772491
0.772486
0.772481
0.772476
0.77247
0.772465
0.77246
0.772455
0.772451
0.772448
0.772445
0.772442
0.772438
0.772434
0.772427
0.772419
0.772411
0.772403
0.772395
0.772388
0.772379
0.77237
0.772362
0.772357
0.772351
0.772351
0.772349
0.772342
0.772331
0.772326
0.772306
0.77228
0.772272
0.772296
0.772435
0.773027
0.774712
0.779898
0.790623
0.812725
0.843924
0.884498
0.922769
0.953153
0.97924
0.99163
1.00285
1.00654
1.01063
1.01936
1.0248
1.02536
1.02503
1.02394
1.02013
1.01794
1.01828
1.02016
1.02239
1.02316
1.02284
1.02144
1.02072
1.02098
1.022
1.02289
1.02259
1.02173
1.0213
1.0216
1.02228
1.0224
1.02215
1.02173
1.02178
1.02191
1.02198
1.02207
1.02227
1.02254
1.02264
1.02266
1.02263
1.02259
1.02252
1.02244
1.02245
1.02254
0.772398
0.772394
0.772391
0.772388
0.772384
0.772381
0.772377
0.772374
0.77237
0.772367
0.772364
0.772361
0.772359
0.772356
0.772353
0.772351
0.772348
0.772344
0.772341
0.772338
0.772337
0.772336
0.772334
0.772332
0.772331
0.772328
0.772322
0.772315
0.77231
0.772308
0.772305
0.772302
0.772298
0.772294
0.772291
0.772291
0.772292
0.772292
0.772291
0.772284
0.772272
0.772262
0.772252
0.77224
0.772225
0.772207
0.772184
0.772163
0.772162
0.772189
0.772329
0.772939
0.774924
0.781391
0.795793
0.825797
0.862463
0.907269
0.946471
0.980873
1.00494
1.01806
1.02399
1.02386
1.02273
1.01793
1.01647
1.01809
1.02101
1.02335
1.02323
1.02266
1.02105
1.01977
1.0202
1.02186
1.0228
1.02264
1.02156
1.02074
1.02098
1.0219
1.02228
1.02202
1.02141
1.02136
1.02152
1.02165
1.02173
1.02184
1.02202
1.02222
1.02232
1.02229
1.02223
1.02213
1.02201
1.02199
1.02202
1.02207
0.772346
0.772343
0.772339
0.772336
0.772333
0.77233
0.772327
0.772323
0.77232
0.772316
0.772313
0.77231
0.772307
0.772304
0.772301
0.772298
0.772295
0.772292
0.772289
0.772286
0.772282
0.772278
0.772274
0.77227
0.772268
0.772266
0.772261
0.772256
0.772255
0.772255
0.772256
0.772257
0.772257
0.772256
0.772253
0.772252
0.772251
0.77225
0.772247
0.772239
0.772228
0.772216
0.772203
0.772187
0.772168
0.772145
0.772118
0.772092
0.772075
0.772064
0.772054
0.77205
0.772056
0.772107
0.772353
0.773509
0.777215
0.789798
0.813983
0.855981
0.90408
0.94493
0.977493
0.993451
1.00383
1.00791
1.01736
1.02305
1.02643
1.02596
1.02394
1.01956
1.01957
1.02008
1.02206
1.0239
1.02356
1.02169
1.02067
1.02087
1.02203
1.02276
1.02244
1.02139
1.02118
1.02141
1.02169
1.02168
1.02172
1.02188
1.02213
1.02223
1.02222
1.02215
1.02211
1.022
1.02182
1.02184
1.02188
1.02193
0.772322
0.772318
0.772315
0.772311
0.772306
0.772302
0.772298
0.772293
0.772289
0.772285
0.772281
0.772278
0.772274
0.77227
0.772265
0.77226
0.772256
0.772252
0.772248
0.772244
0.772239
0.772234
0.772231
0.772231
0.772231
0.772231
0.77223
0.772231
0.772232
0.772235
0.77224
0.772245
0.772246
0.772246
0.772246
0.772244
0.77224
0.772234
0.772227
0.772217
0.772206
0.772194
0.772179
0.772161
0.77214
0.772114
0.772085
0.772056
0.772033
0.772021
0.772016
0.772015
0.772019
0.772026
0.77204
0.772061
0.772099
0.772267
0.773006
0.776254
0.787875
0.813221
0.858317
0.909906
0.955028
0.990603
1.01503
1.02214
1.02519
1.02415
1.01734
1.01728
1.01957
1.02312
1.02482
1.02439
1.02223
1.02017
1.02051
1.02239
1.02335
1.02304
1.02172
1.02109
1.0214
1.0218
1.02188
1.0218
1.02184
1.0221
1.02231
1.02229
1.02224
1.02217
1.02208
1.02193
1.02181
1.02183
1.02186
1.02191
0.772252
0.77225
0.772247
0.772244
0.77224
0.772239
0.772237
0.772235
0.772233
0.772229
0.772226
0.772222
0.772219
0.772215
0.772211
0.772206
0.7722
0.772195
0.77219
0.772186
0.77218
0.772177
0.772176
0.772175
0.772174
0.772175
0.772176
0.772178
0.772181
0.772184
0.772188
0.77219
0.772193
0.772195
0.772197
0.772198
0.772198
0.772198
0.772199
0.7722
0.772198
0.77219
0.772175
0.772159
0.772141
0.772118
0.772091
0.772061
0.772031
0.772014
0.772007
0.772005
0.772004
0.772008
0.772021
0.772041
0.772066
0.772079
0.772073
0.77208
0.772189
0.772943
0.776573
0.790853
0.82151
0.874532
0.926899
0.96563
0.993321
1.00428
1.00995
1.01899
1.02544
1.02681
1.02608
1.02163
1.01982
1.02033
1.02255
1.02456
1.02406
1.02195
1.02106
1.02138
1.02229
1.02227
1.02198
1.02189
1.02214
1.02249
1.02248
1.02234
1.02225
1.02221
1.02211
1.02199
1.0219
1.02189
1.0219
1.02194
0.772205
0.772207
0.772209
0.77221
0.77221
0.772209
0.77221
0.77221
0.77221
0.772209
0.772207
0.772203
0.772199
0.772195
0.77219
0.772184
0.772177
0.772169
0.772161
0.772154
0.772147
0.772141
0.772135
0.772129
0.772122
0.772118
0.772118
0.772118
0.77212
0.772123
0.772123
0.77212
0.772117
0.772115
0.772109
0.772104
0.772101
0.772101
0.772103
0.772106
0.772109
0.772109
0.772107
0.772104
0.7721
0.772093
0.772082
0.772066
0.772043
0.772022
0.772012
0.772009
0.772007
0.772009
0.772021
0.772038
0.772054
0.772066
0.772067
0.772055
0.772034
0.772015
0.772026
0.772215
0.773311
0.779653
0.79897
0.843688
0.897538
0.952054
0.995612
1.01711
1.02336
1.02491
1.02097
1.016
1.01873
1.02334
1.02533
1.02478
1.0222
1.02026
1.02078
1.02265
1.02276
1.02241
1.02185
1.02201
1.02265
1.02271
1.02254
1.02237
1.02231
1.02227
1.02211
1.02202
1.02203
1.02202
1.02198
1.02203
0.772205
0.772207
0.772208
0.772209
0.772209
0.772209
0.772209
0.772208
0.772207
0.772205
0.772202
0.772197
0.772193
0.772187
0.772181
0.772174
0.772165
0.772156
0.772147
0.772138
0.77213
0.772121
0.77211
0.772099
0.772087
0.772078
0.77207
0.772065
0.772061
0.772055
0.772047
0.772036
0.772024
0.772017
0.77201
0.772004
0.772002
0.772004
0.772009
0.772017
0.772026
0.772037
0.772049
0.77206
0.772073
0.772085
0.772087
0.772086
0.772076
0.772058
0.772042
0.772029
0.772014
0.772002
0.771996
0.77199
0.771987
0.771989
0.771994
0.771996
0.772003
0.772013
0.772018
0.772013
0.772004
0.772046
0.772441
0.775047
0.786826
0.820328
0.878922
0.935389
0.973758
0.998595
1.00619
1.01476
1.02492
1.02754
1.02661
1.02166
1.01949
1.02027
1.0227
1.02361
1.02287
1.02171
1.0218
1.02263
1.02297
1.02277
1.02239
1.02241
1.02239
1.02227
1.02207
1.0221
1.02214
1.02211
1.02207
1.02216
0.772197
0.772199
0.7722
0.7722
0.7722
0.7722
0.772199
0.772198
0.772196
0.772193
0.77219
0.772187
0.772183
0.772178
0.772173
0.772166
0.772158
0.772149
0.77214
0.772132
0.772122
0.772112
0.772101
0.772089
0.772075
0.772061
0.772049
0.772037
0.772026
0.772016
0.772005
0.771993
0.771979
0.771969
0.771961
0.771957
0.771956
0.771957
0.771962
0.771969
0.771981
0.771999
0.772019
0.772041
0.772065
0.772087
0.772093
0.772093
0.772088
0.772076
0.77206
0.77204
0.772016
0.771997
0.771979
0.771958
0.771946
0.771944
0.771945
0.771953
0.771973
0.772005
0.772021
0.772022
0.772018
0.771993
0.771976
0.771986
0.772139
0.773316
0.78098
0.806293
0.859061
0.919402
0.976134
1.01082
1.02307
1.02503
1.02108
1.01566
1.0183
1.02337
1.02455
1.0234
1.02116
1.02121
1.0224
1.02326
1.02302
1.02233
1.02225
1.02244
1.02242
1.02217
1.02204
1.02214
1.02221
1.02216
1.02214
1.02228
0.772178
0.772179
0.772181
0.772182
0.772182
0.772183
0.772185
0.772188
0.772188
0.772184
0.772182
0.77218
0.772176
0.772172
0.772167
0.77216
0.772153
0.772147
0.77214
0.772133
0.772126
0.772117
0.772107
0.772097
0.772086
0.772073
0.772057
0.772039
0.772021
0.772005
0.771991
0.771977
0.771962
0.771952
0.771946
0.771944
0.771944
0.771946
0.771951
0.77196
0.771974
0.771993
0.772016
0.772042
0.77207
0.772091
0.772098
0.772097
0.772093
0.772082
0.772069
0.772046
0.772018
0.771994
0.771971
0.77195
0.771938
0.771936
0.771938
0.771945
0.771966
0.772
0.772019
0.77202
0.772017
0.771998
0.77197
0.771955
0.771954
0.771961
0.772042
0.772743
0.777352
0.797664
0.848425
0.91343
0.964846
0.992563
1.00581
1.01344
1.02473
1.02704
1.02523
1.02029
1.02029
1.02169
1.02382
1.02356
1.02228
1.02208
1.02235
1.02259
1.02232
1.02201
1.02209
1.02224
1.02223
1.02217
1.02219
1.02248
0.77213
0.772129
0.772129
0.772129
0.772128
0.772127
0.772126
0.772127
0.772124
0.77212
0.77212
0.772119
0.772114
0.77211
0.772107
0.772105
0.772103
0.772099
0.772094
0.772092
0.772088
0.772081
0.772077
0.772075
0.772071
0.772065
0.772056
0.772044
0.77203
0.772017
0.772006
0.771995
0.771986
0.771978
0.771971
0.771968
0.771969
0.77197
0.771972
0.771977
0.771985
0.771995
0.772009
0.772035
0.772062
0.772078
0.772084
0.772083
0.77208
0.772077
0.772069
0.772052
0.772025
0.772001
0.771982
0.771962
0.771943
0.771941
0.771946
0.771957
0.771974
0.771999
0.772017
0.772017
0.772011
0.771993
0.771969
0.77195
0.77195
0.771957
0.771982
0.772027
0.772106
0.772569
0.775938
0.794503
0.840377
0.905077
0.973287
1.00805
1.0245
1.02413
1.0179
1.01797
1.02123
1.02444
1.02431
1.02239
1.02141
1.02199
1.02288
1.0227
1.0219
1.02189
1.02218
1.02235
1.02219
1.02217
1.02237
1.02264
0.77201
0.772009
0.772008
0.772007
0.772007
0.772006
0.772004
0.772002
0.772002
0.772005
0.772011
0.772015
0.772018
0.772021
0.772024
0.772028
0.772033
0.772038
0.772041
0.772045
0.772051
0.772056
0.772059
0.772062
0.772066
0.772074
0.77208
0.772081
0.77208
0.772075
0.772067
0.77206
0.772055
0.772049
0.772042
0.772035
0.772026
0.772018
0.772009
0.772004
0.772
0.771997
0.771998
0.772007
0.772008
0.772004
0.771999
0.771995
0.771994
0.771997
0.772003
0.772008
0.77201
0.772015
0.772017
0.772012
0.771996
0.771989
0.771994
0.771993
0.771986
0.771988
0.772004
0.772008
0.772002
0.77199
0.771973
0.771961
0.771964
0.771988
0.77204
0.772102
0.772158
0.772183
0.772213
0.772548
0.775142
0.792508
0.839714
0.909977
0.97198
0.992566
1.00718
1.01736
1.02692
1.02649
1.02314
1.02055
1.02153
1.02329
1.0232
1.02211
1.02165
1.022
1.02258
1.02239
1.02211
1.0222
1.02262
1.02273
0.771914
0.771912
0.771912
0.771911
0.77191
0.77191
0.77191
0.771913
0.771916
0.77192
0.771926
0.771934
0.771944
0.771954
0.771964
0.771974
0.771983
0.771995
0.772007
0.772017
0.772026
0.77204
0.772053
0.772064
0.772082
0.772098
0.772109
0.772118
0.772121
0.772121
0.77212
0.772114
0.772105
0.772094
0.77208
0.772067
0.772049
0.772028
0.772015
0.772008
0.771994
0.771977
0.771976
0.771978
0.771974
0.771962
0.771944
0.771931
0.771929
0.771932
0.771945
0.771967
0.772002
0.772037
0.772048
0.772046
0.772035
0.772021
0.772015
0.772009
0.771989
0.771971
0.771964
0.771969
0.771967
0.771964
0.77197
0.771999
0.772037
0.772086
0.772138
0.772162
0.772173
0.772189
0.772182
0.77214
0.772069
0.772324
0.774891
0.795039
0.843013
0.915584
0.986242
1.01278
1.02499
1.0237
1.01791
1.02024
1.02422
1.02408
1.02263
1.02106
1.0215
1.02278
1.02271
1.022
1.022
1.02246
1.0228
1.02271
0.771885
0.771885
0.771884
0.771883
0.771882
0.771881
0.771882
0.771887
0.771893
0.7719
0.771907
0.771914
0.77192
0.771928
0.771936
0.771945
0.771957
0.771973
0.771991
0.772005
0.77202
0.772043
0.77206
0.772073
0.772096
0.772111
0.772114
0.772121
0.77213
0.772132
0.772131
0.772127
0.772116
0.772098
0.772082
0.772066
0.772041
0.772009
0.771999
0.771992
0.771971
0.771952
0.771955
0.771962
0.77196
0.771951
0.771936
0.771919
0.771909
0.771911
0.771924
0.771955
0.772003
0.772043
0.772056
0.772053
0.772041
0.772024
0.772011
0.771999
0.771984
0.77196
0.771939
0.771936
0.771945
0.771956
0.771996
0.772058
0.772132
0.772184
0.772202
0.772193
0.772182
0.772155
0.772099
0.772019
0.771933
0.771871
0.771885
0.772276
0.775463
0.798949
0.855972
0.925286
0.985134
0.998799
1.01133
1.02479
1.02657
1.02444
1.0202
1.02066
1.02274
1.02326
1.02223
1.02158
1.02205
1.02279
1.02277
1.0226
0.771963
0.771963
0.771963
0.771959
0.771948
0.771936
0.771932
0.77193
0.771927
0.771923
0.771921
0.771919
0.771919
0.771927
0.771941
0.771955
0.771964
0.771973
0.771981
0.771987
0.771995
0.772007
0.772017
0.77203
0.772045
0.772047
0.772045
0.772045
0.772048
0.772048
0.772048
0.772044
0.772036
0.772021
0.772016
0.772011
0.771988
0.771963
0.77196
0.771961
0.771956
0.771941
0.771944
0.771958
0.77196
0.771957
0.771944
0.771931
0.771924
0.771924
0.771934
0.771959
0.772006
0.772043
0.772043
0.772032
0.772012
0.771987
0.771969
0.771961
0.771963
0.771959
0.771939
0.771934
0.771944
0.771991
0.772057
0.772118
0.772187
0.772218
0.772216
0.772194
0.772136
0.772039
0.77195
0.771898
0.771862
0.771855
0.771866
0.771928
0.772016
0.772608
0.777203
0.806874
0.867924
0.943766
1.001
1.02063
1.02331
1.01682
1.01839
1.0225
1.02375
1.02274
1.02085
1.02123
1.02271
1.02292
1.02268
1.02231
0.772078
0.772076
0.772071
0.772063
0.772051
0.772035
0.772028
0.772026
0.772023
0.772015
0.772002
0.771989
0.771985
0.771985
0.771983
0.771969
0.771949
0.771949
0.771948
0.771927
0.771913
0.771914
0.771917
0.771918
0.771919
0.771918
0.771909
0.771901
0.771905
0.77191
0.77191
0.771906
0.77191
0.771917
0.771918
0.771924
0.771914
0.771908
0.771909
0.771928
0.771947
0.771947
0.771961
0.772009
0.772022
0.772023
0.772017
0.772015
0.772021
0.77201
0.771973
0.771971
0.771994
0.772004
0.771993
0.771958
0.771919
0.7719
0.7719
0.771916
0.771952
0.771991
0.772021
0.772034
0.772057
0.772101
0.772123
0.77215
0.772191
0.772215
0.772205
0.77214
0.772028
0.771885
0.771829
0.771819
0.771836
0.771878
0.771951
0.772065
0.772135
0.772147
0.77218
0.772923
0.779748
0.819626
0.890005
0.953278
0.994823
1.00564
1.02122
1.02587
1.02436
1.01994
1.02023
1.02257
1.02321
1.02268
1.02209
1.02213
0.772096
0.772088
0.772075
0.772057
0.772051
0.772052
0.772053
0.772051
0.772042
0.772027
0.772
0.771959
0.771939
0.77194
0.771939
0.771917
0.771899
0.7719
0.771891
0.77185
0.771832
0.771838
0.771846
0.771855
0.771867
0.771872
0.771868
0.771858
0.771867
0.771877
0.771877
0.771865
0.771864
0.771882
0.771889
0.771871
0.771862
0.771866
0.771885
0.771935
0.771964
0.771965
0.771989
0.77207
0.772096
0.772092
0.772075
0.772073
0.772073
0.77204
0.771966
0.771932
0.771941
0.771962
0.77196
0.771905
0.771851
0.771841
0.771845
0.771882
0.77198
0.77211
0.772176
0.772194
0.772208
0.772203
0.772169
0.772152
0.772163
0.772164
0.772119
0.772021
0.771896
0.771791
0.771778
0.771791
0.771861
0.771978
0.7721
0.772164
0.772164
0.772148
0.772055
0.771861
0.771901
0.77345
0.785927
0.834118
0.910986
0.983049
1.01771
1.0236
1.01735
1.01761
1.02167
1.02407
1.0232
1.02138
1.02158
1.02201
0.77205
0.772048
0.772047
0.772044
0.77204
0.772036
0.772031
0.77203
0.77203
0.772022
0.771998
0.77196
0.771934
0.771931
0.771935
0.771934
0.771915
0.771909
0.771897
0.771851
0.77182
0.771824
0.771827
0.771838
0.771871
0.771884
0.771885
0.771886
0.771903
0.771921
0.771923
0.771907
0.771897
0.771922
0.77196
0.771941
0.771911
0.771904
0.771904
0.771938
0.771971
0.771975
0.772004
0.772098
0.772128
0.772119
0.772085
0.772075
0.772063
0.772
0.771908
0.771887
0.771904
0.771946
0.771951
0.771907
0.771839
0.771824
0.771846
0.771919
0.772072
0.77222
0.772281
0.772285
0.772278
0.772242
0.772175
0.772084
0.772036
0.772002
0.771938
0.771869
0.771805
0.771768
0.771773
0.771833
0.771976
0.772114
0.772189
0.772189
0.772172
0.77207
0.771863
0.771682
0.77167
0.771707
0.771985
0.774892
0.795688
0.863142
0.937553
0.985125
1.00425
1.01685
1.02597
1.025
1.02099
1.02103
1.02208
1.02213
0.771954
0.771956
0.771966
0.77198
0.771992
0.772
0.772009
0.772024
0.772029
0.77202
0.772016
0.77202
0.772038
0.772046
0.772048
0.772048
0.772028
0.772018
0.772013
0.771982
0.771948
0.771943
0.771956
0.771974
0.772002
0.772037
0.772044
0.772045
0.772052
0.77208
0.772095
0.77209
0.772063
0.772059
0.77208
0.772076
0.772031
0.77197
0.771923
0.771918
0.771938
0.771931
0.771924
0.771981
0.772032
0.772023
0.771983
0.771976
0.771972
0.771915
0.771866
0.771869
0.771904
0.772009
0.772057
0.772051
0.772006
0.771975
0.771992
0.77206
0.772171
0.772259
0.772304
0.772305
0.77229
0.77224
0.772116
0.771956
0.771858
0.771791
0.771759
0.771767
0.771779
0.771811
0.771875
0.771992
0.772128
0.772198
0.772214
0.772197
0.772083
0.771861
0.771644
0.771637
0.771666
0.771813
0.772087
0.772155
0.772632
0.77938
0.813306
0.889218
0.97604
1.01208
1.02447
1.01997
1.01879
1.02186
1.02294
1.022
0.771942
0.771983
0.772022
0.772054
0.772079
0.772098
0.772113
0.77213
0.77215
0.772166
0.772172
0.772174
0.772174
0.77217
0.772167
0.772158
0.772126
0.772114
0.772121
0.772115
0.772069
0.772044
0.77205
0.772069
0.772073
0.772074
0.772075
0.772078
0.772084
0.772096
0.772118
0.772129
0.772122
0.772092
0.77209
0.772108
0.772099
0.772034
0.771877
0.771783
0.771798
0.771825
0.771815
0.771821
0.771849
0.771851
0.771846
0.771865
0.77188
0.771856
0.771863
0.771915
0.772024
0.772177
0.772285
0.772291
0.77226
0.772191
0.772159
0.772176
0.772214
0.77226
0.772254
0.772235
0.772203
0.772128
0.771979
0.771856
0.771766
0.771699
0.771703
0.771741
0.771854
0.772002
0.772105
0.772183
0.772225
0.772224
0.772191
0.772067
0.771863
0.771639
0.771593
0.771627
0.771813
0.772048
0.77218
0.772162
0.772003
0.771941
0.77313
0.787791
0.845132
0.924205
0.989273
1.00239
1.01907
1.02478
1.0235
1.0209
0.77205
0.772046
0.772044
0.772056
0.772092
0.772134
0.772146
0.77215
0.772158
0.772167
0.772178
0.77218
0.772174
0.772164
0.772155
0.772134
0.772096
0.772089
0.772095
0.77209
0.772055
0.772031
0.772028
0.772019
0.771993
0.771957
0.771922
0.77189
0.771859
0.771845
0.771849
0.771853
0.771856
0.771873
0.771923
0.771978
0.771981
0.771914
0.771741
0.771648
0.771656
0.771717
0.77174
0.771726
0.771732
0.771758
0.771809
0.771895
0.771934
0.771909
0.771904
0.771958
0.772092
0.772249
0.772355
0.772373
0.772353
0.772307
0.772236
0.772204
0.772187
0.772099
0.771972
0.771914
0.771899
0.771866
0.771806
0.771785
0.771755
0.771723
0.771744
0.771854
0.772064
0.772215
0.772272
0.772277
0.772246
0.772135
0.771973
0.771793
0.771653
0.77159
0.771626
0.771828
0.772111
0.77223
0.77221
0.772066
0.771772
0.771623
0.77165
0.771991
0.776092
0.807829
0.880479
0.963885
1.01316
1.02238
1.01773
1.01943
0.771989
0.772005
0.772006
0.772001
0.771999
0.771994
0.771978
0.771942
0.771898
0.771891
0.77189
0.771878
0.771835
0.77179
0.771745
0.771693
0.771655
0.771647
0.771647
0.771643
0.771625
0.771593
0.771554
0.771496
0.771435
0.771388
0.771334
0.771273
0.77123
0.771217
0.771217
0.771238
0.77132
0.77147
0.771616
0.771703
0.77172
0.771686
0.771594
0.771576
0.771609
0.77173
0.771795
0.7718
0.77178
0.771795
0.77185
0.771922
0.771936
0.771904
0.771884
0.771942
0.772078
0.77221
0.772295
0.772289
0.77222
0.772136
0.772066
0.772012
0.771924
0.771739
0.771578
0.771557
0.771576
0.7716
0.771645
0.771737
0.771759
0.771797
0.77189
0.772072
0.772214
0.77229
0.772298
0.772257
0.772089
0.771824
0.771622
0.771556
0.771557
0.771629
0.771893
0.772165
0.772292
0.772273
0.772132
0.771808
0.771591
0.771595
0.771747
0.772133
0.7722
0.773141
0.784164
0.841263
0.922488
0.981102
1.00446
1.02011
0.771754
0.77175
0.771744
0.771736
0.771725
0.771692
0.771661
0.771651
0.771613
0.771596
0.771603
0.771584
0.771533
0.771492
0.771441
0.771395
0.771383
0.771371
0.771352
0.771335
0.771318
0.771301
0.77127
0.771218
0.771196
0.771182
0.771125
0.771074
0.771073
0.771092
0.771117
0.77118
0.771326
0.771502
0.771657
0.771785
0.771807
0.771806
0.771842
0.77191
0.771997
0.772132
0.772271
0.772333
0.772344
0.772311
0.772291
0.772298
0.772289
0.772193
0.772024
0.77199
0.77196
0.771905
0.771856
0.771826
0.771713
0.771614
0.771628
0.771679
0.771661
0.771523
0.771373
0.77135
0.771375
0.771432
0.771543
0.771692
0.771864
0.772023
0.772168
0.772246
0.772258
0.772205
0.772061
0.771862
0.771637
0.771447
0.771404
0.771445
0.771548
0.771905
0.772222
0.772325
0.772294
0.772127
0.771791
0.771528
0.771531
0.77169
0.772079
0.772291
0.772252
0.772038
0.772095
0.775976
0.80327
0.881376
0.969815
1.01888
0.771624
0.77166
0.771668
0.771674
0.771677
0.771658
0.771654
0.771664
0.771638
0.771636
0.771682
0.771676
0.771609
0.771595
0.771592
0.771582
0.771567
0.771537
0.77155
0.771637
0.771671
0.771706
0.771794
0.77186
0.771862
0.771848
0.771794
0.771698
0.771685
0.77172
0.771743
0.771814
0.771935
0.772057
0.772291
0.772472
0.772462
0.77244
0.772398
0.772324
0.772296
0.772341
0.772524
0.772644
0.772605
0.772417
0.772261
0.772279
0.772308
0.772186
0.771921
0.771837
0.77179
0.771667
0.771496
0.771455
0.771427
0.771427
0.771461
0.771557
0.771563
0.771476
0.77135
0.771332
0.771385
0.771549
0.771804
0.772081
0.772293
0.772407
0.772372
0.77228
0.77204
0.771675
0.771449
0.771378
0.771325
0.771261
0.77127
0.77139
0.771828
0.772237
0.77229
0.77224
0.771989
0.77163
0.771383
0.771386
0.771539
0.772025
0.77233
0.772302
0.7721
0.771706
0.77157
0.771661
0.772693
0.786057
0.837719
0.959871
0.772796
0.772878
0.772974
0.773062
0.773125
0.7732
0.773248
0.773274
0.77332
0.77339
0.773464
0.773518
0.773582
0.773671
0.77371
0.77369
0.773676
0.773779
0.773876
0.773793
0.773694
0.773742
0.773917
0.774055
0.774054
0.774053
0.774063
0.773992
0.773818
0.773685
0.773657
0.773663
0.773624
0.773612
0.773626
0.773622
0.77364
0.773576
0.773196
0.772661
0.772532
0.772587
0.772871
0.773067
0.773024
0.772812
0.772695
0.772777
0.772821
0.772655
0.772235
0.771948
0.771843
0.771762
0.771716
0.77172
0.771649
0.771613
0.771637
0.771778
0.771934
0.772063
0.772151
0.772202
0.772287
0.772355
0.772394
0.772459
0.772533
0.772486
0.772354
0.772083
0.771702
0.771322
0.771261
0.771297
0.771302
0.771391
0.771689
0.772039
0.772393
0.772391
0.772232
0.771804
0.771417
0.771233
0.771244
0.771407
0.771908
0.772367
0.772346
0.772099
0.771669
0.771454
0.771487
0.771871
0.772043
0.772342
0.775587
0.855975
0.776399
0.776466
0.776527
0.776533
0.776496
0.776507
0.77658
0.776626
0.776633
0.776601
0.776376
0.776196
0.776108
0.775929
0.775843
0.775826
0.77578
0.775604
0.775344
0.775282
0.775368
0.775397
0.775407
0.775396
0.775269
0.775116
0.775105
0.775035
0.774766
0.774478
0.774207
0.773986
0.773975
0.773967
0.773825
0.77363
0.773522
0.773387
0.772992
0.772566
0.77248
0.772548
0.772819
0.772996
0.772961
0.772736
0.772626
0.772697
0.772803
0.772801
0.772671
0.772511
0.772484
0.772488
0.77253
0.772663
0.772874
0.773016
0.773018
0.773006
0.773065
0.773314
0.773607
0.773688
0.773638
0.773426
0.773006
0.772573
0.772244
0.771973
0.771779
0.771689
0.771526
0.771289
0.771292
0.771425
0.77185
0.772371
0.772901
0.772844
0.772634
0.772225
0.771695
0.771293
0.771157
0.771185
0.77139
0.771983
0.772493
0.772437
0.772077
0.771559
0.771301
0.771334
0.771632
0.772151
0.772139
0.771896
0.771696
0.783036
0.781271
0.781219
0.781192
0.781164
0.781067
0.780906
0.780881
0.780895
0.780869
0.780717
0.780498
0.780273
0.779864
0.779572
0.779543
0.779561
0.779553
0.779457
0.779343
0.77937
0.779477
0.779482
0.779254
0.779142
0.779269
0.779439
0.77951
0.779523
0.779291
0.778723
0.778539
0.778582
0.778846
0.77906
0.779009
0.778893
0.778906
0.779131
0.779092
0.778733
0.778495
0.778308
0.777916
0.777663
0.777537
0.777289
0.777092
0.777079
0.777186
0.777517
0.777651
0.77758
0.777561
0.77763
0.777676
0.777624
0.777443
0.777111
0.776513
0.775865
0.775649
0.775597
0.775548
0.775352
0.774889
0.774255
0.773628
0.77302
0.772473
0.772173
0.772088
0.772181
0.77249
0.772854
0.773184
0.773555
0.773964
0.773938
0.773728
0.773316
0.772528
0.771853
0.7715
0.771293
0.771341
0.771803
0.772464
0.773012
0.772834
0.772259
0.771569
0.77128
0.771308
0.771607
0.772171
0.772319
0.772084
0.771565
0.771417
0.772029
0.795835
0.7959
0.795819
0.795424
0.795034
0.794873
0.794826
0.794903
0.795062
0.795044
0.794884
0.794671
0.794628
0.794567
0.794254
0.793857
0.793729
0.793717
0.793714
0.793592
0.793335
0.793312
0.793321
0.793146
0.79279
0.792774
0.792748
0.792568
0.792126
0.791573
0.791067
0.790762
0.790734
0.790743
0.790645
0.790393
0.790358
0.790452
0.79032
0.789712
0.789251
0.788876
0.788286
0.787975
0.78776
0.787252
0.786458
0.785825
0.785373
0.784979
0.784545
0.78403
0.783489
0.782888
0.782368
0.781835
0.781245
0.780898
0.780571
0.779816
0.778821
0.778187
0.777827
0.777576
0.777365
0.776928
0.77674
0.776959
0.77717
0.777101
0.777063
0.777246
0.777464
0.777353
0.776956
0.776324
0.775602
0.774729
0.773668
0.77298
0.772501
0.772203
0.772378
0.772942
0.773537
0.774157
0.774008
0.773592
0.772611
0.77185
0.771457
0.771386
0.771831
0.772686
0.772754