/*--------------------------------*- C++ -*----------------------------------*\
  =========                 |
  \\      /  F ield         | OpenFOAM: The Open Source CFD Toolbox
   \\    /   O peration     | Website:  https://openfoam.org
    \\  /    A nd           | Version:  7
     \\/     M anipulation  |
\*---------------------------------------------------------------------------*/
FoamFile
{
    version     2.0;
    format      ascii;
    class       volScalarField;
    location    "8";
    object      p;
}
// * * * * * * * * * * * * * * * * * * * * * * * * * * * * * * * * * * * * * //

dimensions      [1 -1 -2 0 0 0 0];

internalField   nonuniform List<scalar> 
11200
(
0.194346
0.326403
0.461596
0.568763
0.655547
0.71177
0.746184
0.752462
0.77568
0.791806
0.822618
0.85541
0.882562
0.91265
0.907844
0.894595
0.887529
0.901983
0.915482
0.914935
0.910674
0.905378
0.897574
0.899629
0.910091
0.925714
0.943578
0.952326
0.943664
0.94981
0.0570385
0.0619223
0.0841225
0.145934
0.246495
0.387648
0.557033
0.701944
0.835011
0.90599
0.957724
0.945868
0.940014
0.908816
0.867823
0.855262
0.883365
0.91843
0.932971
0.913148
0.894344
0.895727
0.903231
0.911167
0.925186
0.940698
0.950689
0.957559
0.955576
0.957792
0.0588509
0.0589816
0.0596237
0.0594124
0.0585424
0.0648036
0.0978172
0.188559
0.320202
0.506533
0.677692
0.802464
0.904073
0.909298
0.901149
0.897946
0.895824
0.894515
0.890407
0.893977
0.905246
0.914666
0.915989
0.922342
0.927782
0.939921
0.953842
0.96369
0.965181
0.969095
0.0591357
0.0597398
0.0602279
0.0606624
0.0609698
0.0611544
0.0607184
0.0602127
0.0595671
0.074449
0.125752
0.256407
0.443757
0.663998
0.872464
0.927101
0.91553
0.887674
0.863514
0.873597
0.908305
0.920897
0.923711
0.92884
0.940464
0.946086
0.950115
0.959623
0.966294
0.972825
0.0609382
0.0617075
0.0621644
0.0624148
0.0623999
0.0619108
0.0609975
0.0602637
0.0600588
0.060012
0.0601821
0.0603579
0.0643217
0.128765
0.312396
0.558797
0.744184
0.817107
0.849564
0.874818
0.900736
0.911802
0.928136
0.934242
0.93966
0.95283
0.958991
0.965822
0.973482
0.97888
0.063404
0.0632461
0.062972
0.0626422
0.062246
0.0615352
0.0602647
0.059293
0.0593479
0.0598161
0.0601409
0.0603773
0.0607496
0.060886
0.0601438
0.0965116
0.220107
0.455792
0.717338
0.849641
0.897858
0.909427
0.936501
0.942245
0.950089
0.950113
0.955347
0.96476
0.973892
0.980408
0.0619758
0.0618036
0.0614877
0.0609339
0.0601182
0.0590368
0.0579027
0.0576363
0.0579992
0.05899
0.0595807
0.0596323
0.060148
0.0607124
0.0605712
0.0596388
0.059783
0.0753541
0.189982
0.446195
0.697954
0.824663
0.917254
0.934634
0.950408
0.949015
0.963777
0.974855
0.982951
0.987674
0.0595692
0.0594035
0.0591281
0.0587809
0.0582625
0.0575382
0.0570197
0.0570761
0.0576398
0.0588207
0.0594027
0.0593904
0.0598585
0.0614271
0.0624746
0.0636152
0.0661595
0.0712301
0.073244
0.0858998
0.188515
0.445372
0.72196
0.849452
0.948131
0.949698
0.975816
0.967629
0.975204
0.981091
0.0585349
0.0582516
0.0583185
0.0586061
0.0588756
0.058548
0.0579158
0.0580223
0.0586104
0.0597893
0.0604903
0.0604528
0.0607744
0.062083
0.0653516
0.0684709
0.071747
0.0755263
0.0803198
0.0849918
0.0871235
0.0993824
0.209673
0.48079
0.747624
0.867707
0.983634
0.97186
0.995478
0.995205
0.060648
0.0613439
0.0622738
0.0635776
0.0642688
0.0639771
0.063673
0.0641997
0.0657221
0.0677878
0.0704993
0.0715664
0.0716187
0.0720542
0.0739281
0.0757732
0.0768996
0.0788078
0.082777
0.0875273
0.0933193
0.100329
0.103652
0.120416
0.2465
0.535116
0.782029
0.891899
1.01174
1.00065
0.0644318
0.0657898
0.0672359
0.0688099
0.0697305
0.070132
0.0704626
0.0713101
0.0732776
0.0764993
0.0816943
0.0847138
0.0854995
0.0864525
0.0890633
0.0910041
0.0917405
0.0926285
0.0936383
0.0954516
0.0987531
0.104291
0.112608
0.120606
0.120825
0.146816
0.293259
0.605144
0.830182
0.953933
0.0746105
0.0759008
0.0779825
0.0805715
0.0829627
0.0848862
0.0853726
0.0849844
0.0849872
0.0864099
0.0908651
0.0951682
0.0975429
0.0995606
0.103162
0.108041
0.111937
0.115423
0.1185
0.119998
0.119776
0.118487
0.119536
0.12602
0.134811
0.139581
0.139892
0.186331
0.35433
0.781015
0.0933526
0.0961239
0.0993694
0.102387
0.10487
0.105971
0.105903
0.104906
0.105151
0.107349
0.111102
0.114951
0.116569
0.116413
0.117257
0.121042
0.125338
0.129152
0.13332
0.137858
0.14152
0.143421
0.143355
0.143845
0.14947
0.152521
0.155563
0.159245
0.160882
0.365173
0.116558
0.117212
0.118456
0.120669
0.123709
0.12722
0.128359
0.129184
0.130758
0.132794
0.136111
0.138425
0.138132
0.137909
0.139498
0.14189
0.142809
0.143453
0.145804
0.151266
0.158403
0.16409
0.167751
0.167745
0.167385
0.170272
0.175369
0.179318
0.181669
0.184468
0.14782
0.147814
0.148073
0.149545
0.152489
0.156395
0.158014
0.157062
0.154816
0.154949
0.156996
0.16143
0.16499
0.166567
0.168812
0.171276
0.172642
0.174188
0.174904
0.174386
0.175383
0.179946
0.186272
0.189054
0.191344
0.193763
0.195834
0.198559
0.202097
0.20737
0.183637
0.183047
0.182875
0.183145
0.184701
0.188833
0.192601
0.193844
0.193294
0.192757
0.193167
0.195734
0.197362
0.197241
0.198151
0.201237
0.20556
0.209434
0.210776
0.211535
0.211206
0.21041
0.211162
0.214881
0.21911
0.221755
0.222325
0.223793
0.225937
0.229704
0.231695
0.229756
0.229418
0.229638
0.230986
0.234522
0.239036
0.240883
0.240212
0.237424
0.236405
0.237337
0.240692
0.242513
0.242217
0.241222
0.240674
0.240929
0.24238
0.245449
0.247188
0.246684
0.2457
0.245659
0.24589
0.246773
0.248747
0.250521
0.250841
0.252025
0.29524
0.288445
0.287452
0.287527
0.288784
0.291649
0.295239
0.296861
0.296049
0.291818
0.288299
0.288254
0.288761
0.288513
0.288364
0.288699
0.288624
0.287283
0.285125
0.283006
0.282391
0.283517
0.285897
0.286102
0.285406
0.284157
0.283073
0.282191
0.282019
0.282105
0.375904
0.363258
0.360596
0.360376
0.36233
0.367307
0.368118
0.367039
0.363899
0.358676
0.356514
0.356563
0.354498
0.349861
0.349312
0.349087
0.347685
0.344484
0.342533
0.341685
0.339993
0.336721
0.333724
0.330841
0.32893
0.326765
0.324925
0.322727
0.320248
0.316332
0.478294
0.461397
0.45265
0.45169
0.455238
0.461708
0.461129
0.456539
0.448516
0.440803
0.440246
0.439979
0.435083
0.425698
0.42314
0.422081
0.41896
0.413169
0.406795
0.401971
0.399042
0.394415
0.389123
0.384445
0.380109
0.376435
0.372033
0.368634
0.366717
0.361426
0.605064
0.585313
0.570015
0.567401
0.571062
0.579391
0.578224
0.569294
0.553765
0.543196
0.543541
0.542995
0.53472
0.521242
0.515556
0.512308
0.506597
0.497422
0.489682
0.481694
0.474973
0.468463
0.46029
0.453665
0.446219
0.438838
0.431287
0.423185
0.415788
0.404001
0.759747
0.73611
0.716849
0.712059
0.71614
0.724643
0.721224
0.7065
0.683685
0.671411
0.672571
0.67045
0.655422
0.637056
0.629635
0.623108
0.613744
0.600711
0.587772
0.577488
0.566091
0.555388
0.543421
0.531602
0.520817
0.508989
0.498889
0.487146
0.47638
0.460065
0.941295
0.911484
0.892238
0.888415
0.895644
0.902393
0.894572
0.872351
0.840244
0.828458
0.830339
0.824461
0.798267
0.776116
0.768544
0.75927
0.742772
0.724837
0.706972
0.692049
0.677002
0.660214
0.643772
0.626981
0.611863
0.595382
0.57835
0.562669
0.549255
0.526756
1.16252
1.12695
1.10385
1.10071
1.11111
1.11509
1.10117
1.06986
1.02913
1.01655
1.01748
1.00621
0.967814
0.943504
0.933893
0.919816
0.896084
0.870492
0.84831
0.827343
0.807076
0.7837
0.760881
0.738928
0.716231
0.69463
0.672476
0.65031
0.631163
0.599912
1.44868
1.4146
1.3759
1.36651
1.36726
1.36319
1.34458
1.31533
1.26965
1.24853
1.24296
1.22557
1.17958
1.1446
1.12839
1.1071
1.07663
1.04338
1.01262
0.984312
0.95617
0.926778
0.896555
0.867707
0.838868
0.809568
0.781604
0.752802
0.728482
0.689562
1.70489
1.69003
1.67176
1.66011
1.64731
1.63177
1.6141
1.59238
1.56151
1.53167
1.51144
1.48665
1.44755
1.407
1.37307
1.33744
1.29757
1.25626
1.21447
1.17437
1.13483
1.09527
1.0566
1.01777
0.980589
0.943597
0.907801
0.872387
0.841384
0.791392
1.7594
1.75836
1.75442
1.75084
1.74958
1.74849
1.7466
1.74276
1.73527
1.7264
1.71622
1.70288
1.6834
1.66053
1.63427
1.60177
1.56271
1.51873
1.47103
1.42012
1.36713
1.31265
1.25835
1.20551
1.15356
1.10384
1.05723
1.01106
0.971763
0.909298
1.7034
1.71484
1.72028
1.72107
1.71572
1.71188
1.71859
1.72468
1.7272
1.72777
1.72946
1.7298
1.72685
1.72372
1.72065
1.71585
1.70833
1.69722
1.67883
1.65192
1.61544
1.56927
1.51362
1.45077
1.38421
1.31629
1.25002
1.18549
1.13129
1.04812
1.40545
1.42355
1.44656
1.48579
1.50063
1.50122
1.51332
1.53797
1.56255
1.596
1.61123
1.62401
1.65008
1.66785
1.67133
1.67793
1.69128
1.69496
1.69439
1.69272
1.68954
1.68311
1.67038
1.64934
1.61382
1.5629
1.49778
1.42121
1.34814
1.23092
1.08366
1.09082
1.09971
1.11749
1.13384
1.14522
1.16032
1.17987
1.20129
1.23263
1.26323
1.29205
1.33047
1.37328
1.41034
1.44999
1.49537
1.53714
1.57481
1.6088
1.62963
1.6485
1.66234
1.66152
1.65913
1.65347
1.64046
1.61455
1.57296
1.46322
1.00379
1.00438
1.0051
1.00619
1.00786
1.00967
1.01172
1.01453
1.01801
1.02318
1.03052
1.03915
1.05016
1.06622
1.08644
1.11167
1.14374
1.18495
1.23264
1.28871
1.34989
1.41032
1.47623
1.52884
1.57391
1.60532
1.6229
1.62279
1.62137
1.59941
1.00004
1.00005
1.00006
1.00008
1.0001
1.00014
1.00018
1.00024
1.00033
1.00047
1.0007
1.00104
1.00153
1.00238
1.00375
1.00595
1.00948
1.01519
1.02455
1.03867
1.06131
1.09282
1.13794
1.1977
1.26832
1.34672
1.42761
1.49658
1.54752
1.58039
1
1
1
1
1
1
1
1
1
1
1.00001
1.00001
1.00001
1.00002
1.00004
1.00007
1.00013
1.00025
1.00051
1.00104
1.00217
1.00449
1.0092
1.01853
1.0358
1.06573
1.11304
1.18224
1.26161
1.39598
1
1
1
1
1
1
1
1
1
1
1
1
1
1
1
1
1
1
1
1.00001
1.00002
1.00005
1.00013
1.00036
1.00098
1.00268
1.00688
1.01742
1.0365
1.11312
1
1
1
1
1
1
1
1
1
1
1
1
1
1
1
1
1
1
1
1
1
1
1
1
1.00001
1.00003
1.0001
1.00038
1.00114
1.01003
0.0578821
0.0573241
0.0587633
0.058535
0.0595738
0.0630542
0.0621378
0.0596819
0.0591678
0.0603255
0.0627869
0.0737581
0.0918663
0.116215
0.148811
0.188401
0.239587
0.304343
0.385548
0.488727
0.618374
0.778523
0.971239
1.20224
1.48065
1.71739
1.75933
1.68163
1.37668
1.0723
1.00307
1.00004
1
1
1
0.0570525
0.0571397
0.0587742
0.0579292
0.0589771
0.0627349
0.0612287
0.0590615
0.0599065
0.0608795
0.0628298
0.0772809
0.095984
0.125062
0.160256
0.200813
0.25214
0.318034
0.401627
0.508353
0.643407
0.810986
1.01357
1.25377
1.53228
1.73973
1.75886
1.65285
1.32832
1.05157
1.00168
1.00002
1
1
1
0.0561313
0.0561261
0.0584971
0.0565066
0.0571707
0.0610617
0.0600446
0.0588197
0.0601611
0.0615993
0.0645698
0.0825295
0.101375
0.129869
0.163721
0.204389
0.256276
0.323396
0.409259
0.518113
0.656085
0.828488
1.03788
1.2844
1.56985
1.75449
1.75698
1.63451
1.28677
1.03669
1.00098
1.00001
1
1
1
0.0556677
0.0559125
0.0581496
0.05601
0.0566834
0.0599064
0.0592503
0.0587495
0.0601022
0.0621534
0.0682805
0.0878798
0.105056
0.132383
0.165813
0.20661
0.259748
0.327434
0.415854
0.527732
0.669556
0.845645
1.06073
1.32067
1.61803
1.76877
1.76043
1.61616
1.23386
1.02389
1.00053
1
1
1
1
0.055635
0.0560254
0.0580721
0.0558115
0.056658
0.059244
0.0589981
0.0590569
0.0597393
0.0621676
0.0702874
0.0894931
0.107337
0.134211
0.167642
0.209196
0.266857
0.344901
0.443976
0.569769
0.724921
0.909719
1.12829
1.39788
1.676
1.77878
1.76157
1.55771
1.18046
1.01537
1.00029
1
1
1
1
0.0558272
0.0562927
0.057975
0.0556968
0.0567087
0.0589348
0.0590845
0.0596601
0.0593025
0.0610257
0.0716486
0.089129
0.11063
0.137831
0.17696
0.22811
0.295103
0.380121
0.485388
0.616994
0.778699
0.973491
1.20496
1.47399
1.71418
1.7824
1.74402
1.49604
1.14279
1.0101
1.00016
1
1
1
1
0.0559866
0.0565244
0.057951
0.0557127
0.0567029
0.0589079
0.0594309
0.0602229
0.0591023
0.0607358
0.0749409
0.0906426
0.117503
0.150535
0.193571
0.24511
0.310918
0.395684
0.502859
0.637525
0.804427
1.00596
1.243
1.51487
1.73706
1.78329
1.71932
1.45488
1.1117
1.0062
1.00008
1
1
1
1
0.0561328
0.05704
0.0578807
0.0566339
0.0580756
0.059023
0.0596589
0.0606072
0.0595725
0.0620185
0.079567
0.097735
0.12477
0.157758
0.199556
0.250912
0.317377
0.403055
0.513055
0.650679
0.822091
1.03101
1.27719
1.55836
1.76112
1.78407
1.70464
1.40971
1.08013
1.00355
1.00004
1
1
1
1
0.0566317
0.0581393
0.0585354
0.0584978
0.0604395
0.0594205
0.0596398
0.0604078
0.0603916
0.0638117
0.0824768
0.0998754
0.126688
0.159916
0.201838
0.253377
0.321771
0.407946
0.521849
0.667553
0.849809
1.06951
1.33156
1.62237
1.78418
1.78604
1.69477
1.34251
1.05497
1.002
1.00002
1
1
1
1
0.0573123
0.0591944
0.0590444
0.0597657
0.0618499
0.0601999
0.0596226
0.0596696
0.06041
0.0649075
0.0828858
0.100387
0.126697
0.160591
0.203324
0.258767
0.335179
0.439609
0.571014
0.736571
0.934916
1.16611
1.42956
1.68558
1.79637
1.78955
1.65301
1.27978
1.03719
1.00108
1.00001
1
1
1
1
0.0578574
0.0597172
0.0589343
0.0603487
0.0627023
0.0606982
0.059578
0.0585025
0.0591448
0.0661523
0.0821509
0.101269
0.127149
0.163379
0.219086
0.290611
0.378329
0.488998
0.625275
0.79231
0.992854
1.22763
1.48841
1.7206
1.80115
1.78263
1.58877
1.22595
1.02406
1.00057
1
1
1
1
1
0.0583098
0.0598595
0.0587852
0.0605239
0.0634559
0.0610894
0.0593016
0.0570035
0.0577793
0.0693647
0.0843354
0.108584
0.141219
0.185991
0.24496
0.313819
0.399782
0.510629
0.648568
0.818835
1.02555
1.26622
1.53154
1.74833
1.80274
1.76065
1.54462
1.17747
1.01501
1.00029
1
1
1
1
1
0.0586587
0.059705
0.0582482
0.060356
0.0638795
0.0614589
0.0593476
0.0566259
0.0575148
0.0742749
0.0937149
0.122041
0.155953
0.199728
0.253791
0.321631
0.409358
0.521797
0.664619
0.839842
1.05536
1.30949
1.58857
1.77848
1.80366
1.74394
1.49846
1.13396
1.00914
1.00015
1
1
1
1
1
0.0584588
0.0585962
0.0564702
0.0594134
0.063951
0.0614638
0.0592542
0.0576194
0.0596851
0.0794098
0.100722
0.12855
0.160837
0.202865
0.256852
0.324116
0.416269
0.533147
0.688398
0.886886
1.12558
1.39639
1.6647
1.80175
1.80544
1.73669
1.43377
1.09587
1.00506
1.00007
1
1
1
1
1
0.0581468
0.0571697
0.0543405
0.0585714
0.0633499
0.0612861
0.0591724
0.0588583
0.0635686
0.0818758
0.102467
0.129655
0.161644
0.203415
0.259471
0.336279
0.444399
0.593263
0.773556
0.986375
1.22766
1.48605
1.71681
1.81272
1.80917
1.71771
1.36251
1.06403
1.00262
1.00003
1
1
1
1
1
0.0586219
0.0564772
0.0533136
0.0585808
0.0615503
0.0604088
0.0586961
0.0590835
0.0659882
0.0817304
0.10202
0.128818
0.161466
0.20999
0.287369
0.388658
0.50928
0.65755
0.836163
1.04444
1.28275
1.53639
1.74877
1.81728
1.8059
1.6478
1.29285
1.04142
1.00137
1.00001
1
1
1
1
1
0.0593042
0.056478
0.0531911
0.0594196
0.0605001
0.0581372
0.0567408
0.0582222
0.0678887
0.079962
0.101301
0.131374
0.179678
0.244929
0.325877
0.421231
0.538886
0.686692
0.86751
1.08185
1.32916
1.589
1.77929
1.81875
1.78631
1.5946
1.2308
1.02638
1.0007
1.00001
1
1
1
1
1
0.0597806
0.0566389
0.0532936
0.0605129
0.0599587
0.0562183
0.0543462
0.0569746
0.0707918
0.0827346
0.111384
0.153894
0.204623
0.26506
0.339312
0.432953
0.554554
0.706887
0.897952
1.12961
1.39834
1.66169
1.8056
1.8189
1.76778
1.55111
1.18066
1.01627
1.00034
1
1
1
1
1
1
0.0598688
0.0567284
0.053803
0.0611283
0.05931
0.0550928
0.0529883
0.0565493
0.0744342
0.0943162
0.128095
0.166872
0.212025
0.270077
0.345205
0.438705
0.570066
0.744928
0.970506
1.2358
1.504
1.72696
1.82051
1.82038
1.76141
1.4974
1.13047
1.00875
1.00015
1
1
1
1
1
1
0.0595213
0.0566847
0.0558266
0.0614086
0.0580856
0.0538228
0.0526086
0.057706
0.0778452
0.101497
0.133425
0.170051
0.214023
0.271156
0.353439
0.474927
0.639743
0.847709
1.08074
1.33072
1.57442
1.76454
1.82726
1.82355
1.74954
1.4098
1.08403
1.00429
1.00006
1
1
1
1
1
1
0.0586664
0.0567191
0.0590299
0.0614894
0.0562172
0.0523519
0.0527784
0.0615973
0.0789516
0.104043
0.134637
0.171631
0.217763
0.291716
0.40948
0.554527
0.722124
0.918426
1.14196
1.38819
1.62642
1.79256
1.82991
1.81879
1.67534
1.32574
1.05432
1.00221
1.00003
1
1
1
1
1
1
0.0578418
0.0570599
0.0617619
0.0614374
0.0554952
0.0514003
0.0533
0.0643725
0.0782161
0.106026
0.135952
0.1821
0.253749
0.347224
0.463025
0.598022
0.761141
0.959061
1.19155
1.4512
1.68875
1.81572
1.82997
1.79705
1.61324
1.25934
1.03461
1.00109
1.00001
1
1
1
1
1
1
0.0573388
0.0576676
0.063976
0.0612961
0.0555592
0.0512576
0.0531139
0.0666
0.0794884
0.112143
0.15644
0.218029
0.289015
0.375306
0.484197
0.619961
0.794198
1.00981
1.27328
1.54748
1.75182
1.82925
1.82769
1.77524
1.56824
1.20124
1.02032
1.00048
1
1
1
1
1
1
1
0.0572055
0.0586485
0.0655585
0.0613805
0.0555409
0.0515548
0.0524303
0.0681604
0.0902138
0.130231
0.180712
0.236898
0.301422
0.387124
0.501593
0.648908
0.856623
1.12152
1.39662
1.63558
1.79225
1.8353
1.83075
1.76834
1.51477
1.14121
1.01049
1.0002
1
1
1
1
1
1
1
0.0574268
0.0603027
0.0667731
0.0614846
0.0550385
0.0526327
0.0537585
0.069931
0.102564
0.140298
0.186826
0.241718
0.307056
0.400009
0.544589
0.74675
0.981436
1.23468
1.48228
1.69247
1.81622
1.8389
1.8334
1.7577
1.41484
1.08737
1.00479
1.00008
1
1
1
1
1
1
1
0.0585624
0.0622402
0.0673208
0.0614038
0.0547082
0.0538605
0.0596535
0.0746541
0.108804
0.141806
0.186284
0.243378
0.327698
0.465957
0.645239
0.842905
1.06358
1.30646
1.55025
1.74372
1.83057
1.83962
1.82651
1.67389
1.3185
1.05386
1.00228
1.00003
1
1
1
1
1
1
1
0.0596795
0.062992
0.066765
0.0607692
0.0547028
0.0555694
0.0670743
0.0801921
0.109474
0.141041
0.188752
0.274599
0.401009
0.543356
0.708047
0.899355
1.12582
1.38402
1.63369
1.78964
1.83781
1.83579
1.79719
1.59987
1.24877
1.03297
1.00106
1.00001
1
1
1
1
1
1
1
0.0601576
0.0628184
0.0659323
0.0581034
0.0532363
0.0560768
0.0710984
0.0830235
0.108553
0.155746
0.233319
0.339247
0.450465
0.581539
0.748632
0.956245
1.2193
1.50153
1.71514
1.81823
1.8407
1.83004
1.76619
1.54694
1.18607
1.01775
1.00042
1
1
1
1
1
1
1
1
0.0601831
0.0624287
0.065581
0.0551688
0.0509261
0.0557593
0.0715139
0.0859495
0.122717
0.193855
0.279587
0.37048
0.473965
0.612782
0.811241
1.07272
1.35913
1.60499
1.76811
1.83408
1.84189
1.83199
1.75279
1.48172
1.12052
1.00832
1.00016
1
1
1
1
1
1
1
1
0.060896
0.0619925
0.0651414
0.0537339
0.0502565
0.0563494
0.0696269
0.0926284
0.154549
0.226824
0.298578
0.384483
0.50023
0.689187
0.945546
1.21233
1.46537
1.67513
1.80372
1.84208
1.84312
1.83501
1.73578
1.36711
1.06856
1.00343
1.00005
1
1
1
1
1
1
1
1
0.0618148
0.0616905
0.0631964
0.0528713
0.0505204
0.0569619
0.0678192
0.115118
0.180933
0.238669
0.305687
0.410314
0.59302
0.822051
1.0638
1.30875
1.54921
1.7379
1.82766
1.84466
1.84317
1.82015
1.63072
1.26409
1.03828
1.0014
1.00002
1
1
1
1
1
1
1
1
0.0626794
0.0621822
0.0594372
0.0503569
0.0501587
0.0598704
0.0777643
0.140874
0.190539
0.240594
0.329999
0.50972
0.707645
0.915879
1.14969
1.40509
1.64613
1.79123
1.83982
1.84489
1.83907
1.7767
1.54023
1.19302
1.02097
1.00058
1.00001
1
1
1
1
1
1
1
1
0.0648602
0.0634267
0.0554357
0.0472772
0.0462423
0.0675656
0.102355
0.153943
0.191344
0.260678
0.425574
0.60588
0.783672
0.99583
1.26057
1.53487
1.73298
1.82327
1.84523
1.84373
1.82629
1.7381
1.47515
1.13196
1.00991
1.0002
1
1
1
1
1
1
1
1
1
0.0685556
0.0653445
0.0528958
0.0451348
0.0452783
0.0791247
0.117562
0.155335
0.201139
0.346745
0.509395
0.669596
0.860415
1.12301
1.41763
1.64873
1.78636
1.84005
1.84757
1.84528
1.82524
1.71217
1.38739
1.07391
1.00389
1.00006
1
1
1
1
1
1
1
1
1
0.0714851
0.0674663
0.0521156
0.0440444
0.0510942
0.0887195
0.122924
0.153578
0.272631
0.424503
0.565497
0.744756
1.00176
1.29085
1.54693
1.72647
1.81867
1.84748
1.84934
1.84692
1.82818
1.66123
1.25974
1.03526
1.00132
1.00002
1
1
1
1
1
1
1
1
1
0.0731132
0.0680845
0.0515956
0.0443657
0.0656618
0.0925022
0.127784
0.198508
0.345952
0.476411
0.635928
0.890894
1.16765
1.42651
1.64686
1.78569
1.83688
1.8495
1.84997
1.84421
1.78448
1.51615
1.16491
1.01676
1.00045
1.00001
1
1
1
1
1
1
1
1
1
0.0735909
0.0626161
0.0507199
0.0494499
0.0785636
0.0938193
0.136003
0.274631
0.401383
0.535096
0.777099
1.05237
1.30741
1.54772
1.73698
1.82381
1.84461
1.84996
1.84535
1.8285
1.71135
1.41444
1.10646
1.00755
1.00015
1
1
1
1
1
1
1
1
1
1
0.0724678
0.0557094
0.0501421
0.054146
0.0820803
0.108457
0.198116
0.331028
0.448901
0.665366
0.936707
1.19721
1.45045
1.66785
1.80062
1.84046
1.84677
1.84953
1.83949
1.80406
1.65949
1.33266
1.05942
1.00283
1.00004
1
1
1
1
1
1
1
1
1
1
0.0722064
0.051471
0.0494667
0.0567997
0.0804156
0.141063
0.267106
0.382531
0.55507
0.825075
1.0892
1.35872
1.60007
1.75474
1.83389
1.84505
1.84658
1.84965
1.84061
1.79251
1.60334
1.22095
1.02524
1.00084
1.00001
1
1
1
1
1
1
1
1
1
1
0.0716324
0.0480273
0.0500816
0.0596996
0.0883826
0.198839
0.319507
0.457556
0.722535
0.989709
1.26488
1.5314
1.71332
1.80411
1.84827
1.84546
1.84647
1.84859
1.84512
1.78304
1.47013
1.11614
1.00902
1.00021
1
1
1
1
1
1
1
1
1
1
1
0.0702572
0.0445688
0.0463906
0.0705781
0.139515
0.257643
0.386709
0.627227
0.896777
1.17239
1.45805
1.6698
1.78515
1.82831
1.85216
1.84599
1.84812
1.84583
1.83434
1.67798
1.3179
1.05938
1.00319
1.00006
1
1
1
1
1
1
1
1
1
1
1
0.0664209
0.0415638
0.0419987
0.0962613
0.203503
0.327579
0.52212
0.809406
1.0888
1.38883
1.62115
1.7662
1.82305
1.83691
1.85359
1.8455
1.85159
1.83959
1.78496
1.56386
1.22015
1.02937
1.00104
1.00001
1
1
1
1
1
1
1
1
1
1
1
0.0607412
0.0387838
0.051182
0.142625
0.263969
0.44008
0.735301
1.02345
1.32437
1.57786
1.74037
1.82215
1.83627
1.83895
1.85511
1.84612
1.85289
1.83228
1.73594
1.47135
1.13472
1.01102
1.00027
1
1
1
1
1
1
1
1
1
1
1
1
0.0335402
0.0426667
0.0919851
0.200262
0.370165
0.660338
0.972681
1.27273
1.54118
1.71989
1.81227
1.84357
1.83905
1.83922
1.85784
1.84876
1.85237
1.83628
1.69175
1.33635
1.05709
1.00294
1.00005
1
1
1
1
1
1
1
1
1
1
1
1
0.0151389
0.043033
0.143549
0.308878
0.590112
0.925174
1.23635
1.51746
1.70424
1.80454
1.84333
1.84728
1.84013
1.84055
1.86075
1.85217
1.84214
1.81261
1.57141
1.17823
1.019
1.00065
1.00001
1
1
1
1
1
1
1
1
1
1
1
1
0.00545492
0.0555871
0.232541
0.531431
0.891052
1.22272
1.50867
1.69738
1.79942
1.84044
1.8518
1.84776
1.8403
1.84258
1.86326
1.85281
1.82365
1.70598
1.38452
1.0888
1.00638
1.00014
1
1
1
1
1
1
1
1
1
1
1
1
1
0.00770067
0.156306
0.458755
0.844682
1.21846
1.52014
1.70985
1.80099
1.83729
1.85051
1.85289
1.84759
1.84058
1.84486
1.86427
1.84192
1.80198
1.61113
1.2626
1.04088
1.00173
1.00003
1
1
1
1
1
1
1
1
1
1
1
1
1
0.0321155
0.332533
0.797944
1.24597
1.55764
1.73442
1.81168
1.83742
1.84613
1.85232
1.8535
1.84785
1.84061
1.8471
1.86405
1.82112
1.77888
1.50157
1.13817
1.01125
1.00029
1
1
1
1
1
1
1
1
1
1
1
1
1
1
0.20375
0.689716
1.27814
1.61555
1.76919
1.82591
1.84135
1.8441
1.84753
1.85346
1.8549
1.84726
1.83988
1.84902
1.85964
1.80441
1.69342
1.31179
1.04374
1.00174
1.00003
1
1
1
1
1
1
1
1
1
1
1
1
1
1
0.808606
1.37072
1.69452
1.80524
1.83851
1.84508
1.84469
1.8449
1.84944
1.8564
1.85564
1.84536
1.83739
1.84982
1.85402
1.78564
1.52622
1.14298
1.01036
1.00018
1
1
1
1
1
1
1
1
1
1
1
1
1
1
1
1.84577
1.84843
1.84991
1.85022
1.84974
1.84583
1.8441
1.84533
1.85236
1.85805
1.85513
1.84161
1.83454
1.84989
1.84439
1.71998
1.35167
1.04362
0.999638
0.999965
0.999999
1
1
1
1
1
1
1
1
1
1
1
1
1
1
1.84511
1.84742
1.84929
1.85009
1.85006
1.84657
1.84452
1.84391
1.849
1.85752
1.8568
1.84496
1.82935
1.83468
1.83824
1.69298
1.31474
1.0446
1.0014
1.00001
1
1
1
1
1
1
1
1
1
1
1
1
1
1
1
1.84622
1.84724
1.84921
1.85069
1.85075
1.84894
1.84596
1.84457
1.84635
1.85304
1.8553
1.84907
1.82928
1.82883
1.82493
1.61906
1.20545
1.01432
1.0002
1
1
1
1
1
1
1
1
1
1
1
1
1
1
1
1
1.84861
1.84833
1.84981
1.85078
1.85106
1.85108
1.84914
1.84654
1.84474
1.84748
1.85242
1.85484
1.83819
1.82738
1.81917
1.53324
1.13465
1.00704
1.00008
1
1
1
1
1
1
1
1
1
1
1
1
1
1
1
1
1.85017
1.8495
1.84986
1.85053
1.85133
1.8521
1.85236
1.84872
1.84436
1.84285
1.85122
1.85928
1.8491
1.81863
1.77105
1.42684
1.07818
1.00267
1.00002
1
1
1
1
1
1
1
1
1
1
1
1
1
1
1
1
1.85131
1.85015
1.8494
1.84927
1.85081
1.85272
1.85425
1.85097
1.84381
1.84023
1.84931
1.8637
1.85642
1.80565
1.70017
1.33418
1.04218
1.00099
1.00001
1
1
1
1
1
1
1
1
1
1
1
1
1
1
1
1
1.8515
1.85004
1.84822
1.84739
1.84905
1.85286
1.85476
1.8523
1.84361
1.83876
1.84694
1.86588
1.85832
1.79733
1.64307
1.24485
1.02073
1.00034
1
1
1
1
1
1
1
1
1
1
1
1
1
1
1
1
1
1.85035
1.84875
1.84675
1.84601
1.84713
1.85142
1.85417
1.85284
1.84418
1.83829
1.84346
1.8643
1.85732
1.79017
1.56854
1.15714
1.00917
1.00011
1
1
1
1
1
1
1
1
1
1
1
1
1
1
1
1
1
1.84879
1.84803
1.84603
1.84527
1.846
1.84856
1.85189
1.853
1.84605
1.83944
1.84117
1.85661
1.84825
1.74617
1.4656
1.09151
1.00354
1.00003
1
1
1
1
1
1
1
1
1
1
1
1
1
1
1
1
1
1.84766
1.84783
1.8461
1.84515
1.84582
1.84637
1.84901
1.85203
1.85004
1.84282
1.84055
1.85338
1.84315
1.70423
1.36111
1.05014
1.00129
1.00001
1
1
1
1
1
1
1
1
1
1
1
1
1
1
1
1
1
1.84728
1.84826
1.84759
1.84691
1.84776
1.84594
1.8458
1.85149
1.85275
1.84837
1.83854
1.84569
1.84094
1.66249
1.25574
1.02344
1.00041
1
1
1
1
1
1
1
1
1
1
1
1
1
1
1
1
1
1
1.84789
1.84954
1.84992
1.8502
1.85006
1.84569
1.84416
1.84841
1.85438
1.85693
1.8364
1.8258
1.81519
1.57558
1.16054
1.00966
1.00012
1
1
1
1
1
1
1
1
1
1
1
1
1
1
1
1
1
1
1.84878
1.85037
1.85204
1.85285
1.85192
1.84593
1.84364
1.84558
1.85569
1.86159
1.84347
1.80639
1.7718
1.47215
1.09843
1.0039
1.00004
1
1
1
1
1
1
1
1
1
1
1
1
1
1
1
1
1
1
1.84955
1.85053
1.85319
1.85387
1.85282
1.84693
1.84327
1.8442
1.85507
1.86286
1.852
1.80166
1.73334
1.36949
1.05129
1.00133
1.00001
1
1
1
1
1
1
1
1
1
1
1
1
1
1
1
1
1
1
1.85046
1.85062
1.85331
1.85392
1.85293
1.84835
1.8438
1.84342
1.85278
1.86271
1.85485
1.79922
1.67114
1.245
1.02201
1.00039
1
1
1
1
1
1
1
1
1
1
1
1
1
1
1
1
1
1
1
1.85074
1.84999
1.85086
1.85115
1.85103
1.85012
1.84495
1.84248
1.84851
1.86186
1.85239
1.77257
1.55858
1.15668
1.0094
1.00011
1
1
1
1
1
1
1
1
1
1
1
1
1
1
1
1
1
1
1
1.8492
1.84777
1.84697
1.84671
1.8485
1.85096
1.84836
1.84221
1.84245
1.86112
1.85284
1.75367
1.45796
1.08929
1.00325
1.00003
1
1
1
1
1
1
1
1
1
1
1
1
1
1
1
1
1
1
1
1.84829
1.84651
1.84488
1.8441
1.84657
1.85098
1.85131
1.84169
1.83449
1.84725
1.85084
1.7284
1.33357
1.0406
1.00097
1.00001
1
1
1
1
1
1
1
1
1
1
1
1
1
1
1
1
1
1
1
1.84828
1.84662
1.84423
1.84319
1.84433
1.8513
1.853
1.84722
1.82893
1.82719
1.82652
1.62794
1.22257
1.01798
1.00029
1
1
1
1
1
1
1
1
1
1
1
1
1
1
1
1
1
1
1
1
1.84832
1.848
1.84517
1.84445
1.84308
1.84893
1.85346
1.85488
1.83193
1.8156
1.80316
1.53831
1.13701
1.00681
1.00007
1
1
1
1
1
1
1
1
1
1
1
1
1
1
1
1
1
1
1
1
1.84878
1.85036
1.84866
1.84835
1.84471
1.84706
1.85319
1.85872
1.84553
1.8103
1.77732
1.41414
1.06556
1.00205
1.00002
1
1
1
1
1
1
1
1
1
1
1
1
1
1
1
1
1
1
1
1
1.8491
1.85142
1.85118
1.85198
1.84757
1.84533
1.85096
1.86087
1.85324
1.80106
1.68411
1.27765
1.02941
1.00059
1
1
1
1
1
1
1
1
1
1
1
1
1
1
1
1
1
1
1
1
1
1.84892
1.85164
1.85273
1.85427
1.849
1.84495
1.84745
1.86374
1.85654
1.78284
1.58467
1.1793
1.01153
1.00015
1
1
1
1
1
1
1
1
1
1
1
1
1
1
1
1
1
1
1
1
1
1.8486
1.85092
1.85312
1.85511
1.85087
1.84165
1.84215
1.86278
1.85792
1.77708
1.46784
1.08936
1.00336
1.00003
1
1
1
1
1
1
1
1
1
1
1
1
1
1
1
1
1
1
1
1
1
1.84862
1.84752
1.85049
1.85358
1.85205
1.84032
1.83244
1.8452
1.85023
1.71441
1.32597
1.0392
1.00094
1.00001
1
1
1
1
1
1
1
1
1
1
1
1
1
1
1
1
1
1
1
1
1
1.84775
1.84484
1.84576
1.84891
1.85049
1.84578
1.82911
1.83117
1.82764
1.61858
1.21109
1.01565
1.00023
1
1
1
1
1
1
1
1
1
1
1
1
1
1
1
1
1
1
1
1
1
1
1.84843
1.84384
1.84035
1.84036
1.84581
1.85422
1.83651
1.82389
1.81384
1.5138
1.10886
1.00459
1.00005
1
1
1
1
1
1
1
1
1
1
1
1
1
1
1
1
1
1
1
1
1
1
1.84952
1.84412
1.83819
1.83587
1.84376
1.85875
1.85226
1.8134
1.75262
1.35103
1.04585
1.00119
1.00001
1
1
1
1
1
1
1
1
1
1
1
1
1
1
1
1
1
1
1
1
1
1
1.85035
1.84606
1.83924
1.8358
1.84387
1.86284
1.86096
1.79821
1.63657
1.22328
1.01821
1.00028
1
1
1
1
1
1
1
1
1
1
1
1
1
1
1
1
1
1
1
1
1
1
1
1.84945
1.84855
1.84381
1.84093
1.84554
1.86671
1.86663
1.78188
1.51551
1.11601
1.00507
1.00006
1
1
1
1
1
1
1
1
1
1
1
1
1
1
1
1
1
1
1
1
1
1
1
1.8462
1.84936
1.84816
1.84722
1.84265
1.86338
1.86969
1.75089
1.35145
1.04452
1.00116
1.00001
1
1
1
1
1
1
1
1
1
1
1
1
1
1
1
1
1
1
1
1
1
1
1
1.84301
1.84735
1.85126
1.85447
1.83879
1.85028
1.85121
1.62233
1.20876
1.01584
1.00025
1
1
1
1
1
1
1
1
1
1
1
1
1
1
1
1
1
1
1
1
1
1
1
1
1.83911
1.84185
1.85224
1.8668
1.85277
1.83768
1.81225
1.49924
1.10435
1.00423
1.00004
1
1
1
1
1
1
1
1
1
1
1
1
1
1
1
1
1
1
1
1
1
1
1
1
1.83798
1.83601
1.84082
1.87057
1.8718
1.83345
1.74489
1.32728
1.03581
1.00085
1.00001
1
1
1
1
1
1
1
1
1
1
1
1
1
1
1
1
1
1
1
1
1
1
1
1
1.83829
1.8338
1.82961
1.86956
1.88067
1.81834
1.60508
1.17163
1.01093
1.00015
1
1
1
1
1
1
1
1
1
1
1
1
1
1
1
1
1
1
1
1
1
1
1
1
1
1.83902
1.83387
1.82615
1.87105
1.88133
1.76716
1.44543
1.0762
1.00256
1.00002
1
1
1
1
1
1
1
1
1
1
1
1
1
1
1
1
1
1
1
1
1
1
1
1
1
1.83519
1.83856
1.83344
1.87623
1.88565
1.70381
1.26315
1.02263
1.00043
1
1
1
1
1
1
1
1
1
1
1
1
1
1
1
1
1
1
1
1
1
1
1
1
1
1
1.82754
1.84824
1.85826
1.86692
1.86372
1.54322
1.11383
1.00531
1.00006
1
1
1
1
1
1
1
1
1
1
1
1
1
1
1
1
1
1
1
1
1
1
1
1
1
1
1.82281
1.8639
1.89824
1.8459
1.76553
1.3404
1.04114
1.00097
1.00001
1
1
1
1
1
1
1
1
1
1
1
1
1
1
1
1
1
1
1
1
1
1
1
1
1
1
1.83271
1.89293
1.91984
1.84319
1.62464
1.16712
1.01003
1.00014
1
1
1
1
1
1
1
1
1
1
1
1
1
1
1
1
1
1
1
1
1
1
1
1
1
1
1
1.85097
1.90276
1.92655
1.81718
1.39832
1.05403
1.00159
1.00002
1
1
1
1
1
1
1
1
1
1
1
1
1
1
1
1
1
1
1
1
1
1
1
1
1
1
1
1.86301
1.89674
1.91856
1.65118
1.19186
1.01352
1.00022
1
1
1
1
1
1
1
1
1
1
1
1
1
1
1
1
1
1
1
1
1
1
1
1
1
1
1
1
1.92185
1.9015
1.84091
1.42863
1.07027
1.00233
1.00002
1
1
1
1
1
1
1
1
1
1
1
1
1
1
1
1
1
1
1
1
1
1
1
1
1
1
1
1
2.04859
1.8392
1.70121
1.21147
1.01648
1.00032
1
1
1
1
1
1
1
1
1
1
1
1
1
1
1
1
1
1
1
1
1
1
1
1
1
1
1
1
1
2.13705
1.75394
1.42705
1.06956
1.00273
1.00003
1
1
1
1
1
1
1
1
1
1
1
1
1
1
1
1
1
1
1
1
1
1
1
1
1
1
1
1
1
2.16216
1.60821
1.20596
1.01811
1.00042
1
1
1
1
1
1
1
1
1
1
1
1
1
1
1
1
1
1
1
1
1
1
1
1
1
1
1
1
1
1
2.03811
1.4032
1.08104
1.00379
1.00006
1
1
1
1
1
1
1
1
1
1
1
1
1
1
1
1
1
1
1
1
1
1
1
1
1
1
1
1
1
1
1.81993
1.228
1.02289
1.00057
1.00001
1
1
1
1
1
1
1
1
1
1
1
1
1
1
1
1
1
1
1
1
1
1
1
1
1
1
1
1
1
1
1.5302
1.0903
1.0045
1.00006
1
1
1
1
1
1
1
1
1
1
1
1
1
1
1
1
1
1
1
1
1
1
1
1
1
1
1
1
1
1
1
1.20288
1.01815
1.00032
1
1
1
1
1
1
1
1
1
1
1
1
1
1
1
1
1
1
1
1
1
1
1
1
1
1
1
1
1
1
1
1
1
1
1
1
1
1
1
1
1
1
1
1
1
1
1
1
1
1
1
1
1
1
1
1
1
1
1
1
1
1
1
1
1
1
1
1
1
1
1
1
1
1
1
1
1
1
1
1
1
1
1
1
1
1
1
1
1
1
1
1
1
1
1
1
1
1
1
1
1
1
1
1
1
1
1
1
1
1
1
1
1
1
1
1
1
1
1
1
1
1
1
1
1
1
1
1
1
1
1
1
1
1
1
1
1
1
1
1
1
1
1
1
1
1
1
1
1
1
1
1
1
1
1
1
1
1
1
1
1
1
1
1
1
1
1
1
1
1
1
1
1
1
1
1
1
1
1
1
1
1
1
1
1
1
1
1
1
1
1
1
1
1
1
1
1
1
1
1
1
1
1
1
1
1
1
1
1
1
1
1
1
1
1
1
1
1
1
1
1
1
1
1
1
1
1
1
1
1
1
1
1
1
1
1
1
1
1
1
1
1
1
1
1
1
1
1
1
1
1
1
1
1
1
1
1
1
1
1
1
1