/*--------------------------------*- C++ -*----------------------------------*\
  =========                 |
  \\      /  F ield         | OpenFOAM: The Open Source CFD Toolbox
   \\    /   O peration     | Website:  https://openfoam.org
    \\  /    A nd           | Version:  7
     \\/     M anipulation  |
\*---------------------------------------------------------------------------*/
FoamFile
{
    version     2.0;
    format      ascii;
    class       volScalarField;
    location    "6.7";
    object      T;
}
// * * * * * * * * * * * * * * * * * * * * * * * * * * * * * * * * * * * * * //

dimensions      [0 0 0 1 0 0 0];

internalField   nonuniform List<scalar> 
1750
(
1.36213
1.49957
1.46563
1.4177
1.38091
1.39393
1.41582
1.43721
1.44268
1.43975
0.462324
0.893449
1.49435
1.80722
1.79647
1.75673
1.71158
1.63902
1.6108
1.57846
0.3741
0.371226
0.459784
0.968841
1.36484
1.55194
1.65781
1.65401
1.64951
1.61804
0.385223
0.402358
0.434484
0.451382
0.466832
0.695569
0.972067
1.21459
1.34037
1.41872
0.482615
0.490571
0.510891
0.525013
0.533447
0.538518
0.54755
0.602004
0.728828
1.00496
0.578689
0.579345
0.579272
0.589271
0.604599
0.616582
0.62645
0.633443
0.63718
0.657822
0.692851
0.692784
0.691416
0.691521
0.693263
0.694862
0.694692
0.696618
0.694377
0.687328
0.825273
0.813295
0.804921
0.797285
0.787894
0.778032
0.771572
0.764065
0.756834
0.751748
0.95876
0.942778
0.925876
0.910295
0.894158
0.876989
0.86288
0.84956
0.837224
0.819812
1.03
1.02341
1.0142
1.00302
0.989888
0.97469
0.957432
0.939896
0.923494
0.896993
1.03842
1.03794
1.03656
1.03485
1.03248
1.02837
1.02197
1.01272
1.00155
0.978386
1.02604
1.02837
1.03026
1.03151
1.03164
1.03159
1.03139
1.03063
1.02913
1.02278
1.00596
1.00815
1.01075
1.01384
1.01714
1.02024
1.02301
1.02504
1.02672
1.02649
1.00029
1.00051
1.00089
1.00154
1.00258
1.00415
1.00631
1.00905
1.01211
1.017
1
1.00001
1.00002
1.00004
1.00009
1.00019
1.00041
1.00085
1.00157
1.0042
0.531224
0.445089
0.384256
0.382552
0.476543
0.574043
0.690963
0.83583
0.971915
1.03402
1.03832
1.02321
1.00418
1.00018
1
0.530845
0.430277
0.367722
0.41556
0.508465
0.611338
0.738582
0.886561
1.00491
1.04115
1.03737
1.01764
1.00221
1.00007
1
0.509494
0.413389
0.364469
0.439795
0.521697
0.637016
0.779146
0.928585
1.02426
1.04311
1.0354
1.01347
1.00125
1.00003
1
0.494693
0.39133
0.365914
0.453241
0.548646
0.679344
0.836691
0.968576
1.03666
1.04389
1.03266
1.00899
1.00055
1.00001
1
0.482666
0.359631
0.388647
0.46064
0.597714
0.747856
0.886418
0.999151
1.0444
1.04428
1.02702
1.00483
1.00022
1
1
0.475228
0.339385
0.405424
0.501682
0.655068
0.796224
0.931967
1.02558
1.04842
1.04355
1.01899
1.00245
1.00009
1
1
0.485617
0.37187
0.419411
0.567665
0.707308
0.847478
0.979411
1.04355
1.05003
1.03848
1.0125
1.00111
1.00003
1
1
0.505586
0.398703
0.452915
0.619775
0.774216
0.916069
1.01841
1.05183
1.05046
1.0313
1.00713
1.0004
1.00001
1
1
0.512597
0.427581
0.523501
0.687903
0.847534
0.975372
1.04271
1.05482
1.0482
1.02234
1.00313
1.00013
1
1
1
0.496367
0.441971
0.611624
0.791322
0.926633
1.01836
1.05586
1.05563
1.04095
1.01242
1.00109
1.00003
1
1
1
0.300194
0.487752
0.717378
0.877407
0.988928
1.04752
1.05998
1.05547
1.02896
1.0055
1.00032
1.00001
1
1
1
0.105858
0.597756
0.823573
0.954334
1.03333
1.06083
1.06074
1.04504
1.01584
1.00181
1.00008
1
1
1
1
0.242417
0.710515
0.912432
1.01757
1.05869
1.06345
1.05714
1.03113
1.00683
1.00048
1.00001
1
1
1
1
0.484431
0.829904
1.00042
1.05335
1.0672
1.06382
1.045
1.01611
1.002
1.0001
1
1
1
1
1
0.835241
0.998054
1.05405
1.06606
1.0685
1.05616
1.0281
1.00531
1.00037
1.00001
1
1
1
1
1
1.06645
1.06778
1.06863
1.06777
1.06565
1.04048
1.00931
1.00038
1.00001
1
1
1
1
1
1
1.06614
1.06812
1.06919
1.06587
1.06166
1.03521
1.00873
1.00083
1.00003
1
1
1
1
1
1
1.06608
1.06956
1.07059
1.06557
1.05397
1.022
1.00301
1.00011
1
1
1
1
1
1
1
1.06679
1.07106
1.07119
1.06378
1.0446
1.01325
1.00117
1.00004
1
1
1
1
1
1
1
1.06752
1.07169
1.07145
1.0613
1.03174
1.00608
1.00036
1.00001
1
1
1
1
1
1
1
1.06785
1.07145
1.07047
1.05065
1.01995
1.00267
1.00011
1
1
1
1
1
1
1
1
1.07045
1.06969
1.06621
1.03984
1.01078
1.00087
1.00003
1
1
1
1
1
1
1
1
1.07796
1.06631
1.05943
1.02635
1.00458
1.00026
1.00001
1
1
1
1
1
1
1
1
1.08372
1.0619
1.04554
1.01439
1.00163
1.00006
1
1
1
1
1
1
1
1
1
1.08614
1.05524
1.03074
1.00682
1.00052
1.00002
1
1
1
1
1
1
1
1
1
1.08589
1.0452
1.01797
1.00249
1.00012
1
1
1
1
1
1
1
1
1
1
1.07622
1.03272
1.00853
1.00075
1.00003
1
1
1
1
1
1
1
1
1
1
1.06192
1.02083
1.00335
1.00017
1
1
1
1
1
1
1
1
1
1
1
1.04311
1.00972
1.00082
1.00003
1
1
1
1
1
1
1
1
1
1
1
1.01975
1.00259
1.00011
1
1
1
1
1
1
1
1
1
1
1
1
1
1
1
1
1
1
1
1
1
1
1
1
1
1
1
1
1
1
1
1
1
1
1
1
1
1
1
1
1
1
1
1
1
1
1
1
1
1
1
1
1
1
1
1
1
1
1
1
1
1
1
1
1
1
1
1
1
1
1
1
1
1
1
1
1
1
1
1
1
1
1
1
1
1
1
1
1
1
1
1
1
1
1
1
1
1
1
1
1
1
1
1
1
1
1
1
1
1
1
1
1
1
1
1
1
1
1
1
1
1
1
1
1
1
1
1
1
1
1
1
1
1
1
1
1
1
1
1
1
1
1
1
1
1
1
1
1
1
1
1
1
1
1
1
1
1
1
1
1
1
1
1
1
1
1
1
1
1
1
1
1
1
1
1
1
1
1
1
1
1
1
1
1
1
1
1
1
1
1
1
1
1
1
1
1
1
1
1
1
1
1
1
1
1
1
1
1
1
1
1
1
1
1
1
1
1
1
1
1
1
1
1
1
1
1
1
1
1
1
1
1
1
1
1
1
1
1
1
1
1
1
1
1
1
1
1
1
1
1
1
1
1
1
1
1
1
1
1
1
1
1
1
1
1
1
1
1
1
1
1
1
1
1
1
1
1
1
1
1
1
1
1
1
1
1
1
1
1
1
1
1
1
1
1
1
1
1
1
1
1
1
1
1
1
1
1
1
1
1
1
1
1
1
1
1
1
1
1
1
1
1
1
1
1
1
1
1
1
1
1
1
1
1
1
1
1
1
1
1
1
1
1
1
1
1
1
1
1
1
1
1
1
1
1
1
1
1
1
1
1
1.71483
1.13584
0.999999
1
1
1
1
1
1
1
1
1
1
1
1
1
1
1
1
1
2.51221
2.21521
1.59817
1.00673
1
1
1
1
1
1
1
1
1
1
1
1
1
1
1
1
2.40646
2.3139
2.25965
2.04686
1.2102
0.999999
1
1
1
1
1
1
1
1
1
1
1
1
1
1
2.31934
2.28517
2.31119
2.32369
2.11312
1.33346
0.999544
1
1
1
1
1
1
1
1
1
1
1
1
1
2.28646
2.28106
2.29496
2.30529
2.29427
2.07786
1.34718
0.999418
1
1
1
1
1
1
1
1
1
1
1
1
2.27993
2.28055
2.29059
2.2967
2.29651
2.27332
2.06976
1.32284
0.999295
1
1
1
1
1
1
1
1
1
1
1
2.27632
2.27931
2.28951
2.2968
2.29563
2.27554
2.22384
2.00051
1.25843
0.999225
1
1
1
1
1
1
1
1
1
1
2.27345
2.27789
2.28748
2.29466
2.29272
2.27692
2.25458
2.18596
1.86095
1.12977
0.999534
1
1
1
1
1
1
1
1
1
2.26834
2.27224
2.28004
2.28574
2.28453
2.2724
2.25277
2.23294
2.16889
1.72311
1.04361
0.999813
1
1
1
1
1
1
1
1
2.25911
2.26185
2.26907
2.27519
2.27571
2.26772
2.25023
2.22474
2.2066
2.0965
1.50019
1.00331
1
1
1
1
1
1
1
1
2.24848
2.24859
2.25513
2.26233
2.26587
2.26092
2.24657
2.2248
2.20538
2.18669
2.02993
1.29748
0.998812
1
1
1
1
1
1
1
2.23642
2.23469
2.24237
2.25242
2.25721
2.25466
2.24217
2.22094
2.20003
2.18541
2.16893
1.83673
1.10704
0.999512
1
1
1
1
1
1
2.22548
2.22448
2.23367
2.24579
2.25127
2.24996
2.23836
2.21732
2.19429
2.1759
2.15804
2.0887
1.53191
1.00942
0.999958
0.999999
1
1
1
1
2.21991
2.21964
2.22843
2.24072
2.24608
2.24566
2.23492
2.21304
2.18647
2.16444
2.14673
2.15434
1.97644
1.2729
1.00027
1
1
1
1
1
2.21383
2.21316
2.22161
2.23023
2.23196
2.22948
2.21764
2.19589
2.17095
2.15397
2.14608
2.15369
2.10571
1.68702
1.01689
0.999514
0.999991
1
1
1
1.63435
1.84696
1.93551
2.00526
2.05568
2.08855
2.11081
2.11392
2.10851
2.1004
2.10552
2.11842
2.10951
2.05795
1.55535
1.04488
1.00038
1
1
1
1.22085
1.56367
1.67835
1.77112
1.86339
1.92773
1.98178
2.01152
2.02569
2.03213
2.04009
2.05893
2.07985
2.0804
1.98107
1.41647
1.0222
1.00017
1
1
1.25163
1.41595
1.50374
1.59709
1.68768
1.77871
1.84923
1.90947
1.94172
1.96548
1.97622
1.99951
2.02533
2.05379
2.03213
1.82547
1.23149
1.00601
1.00003
1
1.30916
1.34099
1.36556
1.46763
1.55823
1.64947
1.72468
1.8
1.8515
1.88748
1.91145
1.93557
1.96836
1.99776
2.00519
1.97288
1.61488
1.0857
1.00104
1
1.37478
1.31006
1.26486
1.33791
1.43433
1.53335
1.62581
1.69589
1.76483
1.80757
1.84351
1.87208
1.90625
1.93594
1.96189
1.96216
1.82718
1.33021
1.01515
1.0001
1.37407
1.30237
1.25146
1.28743
1.35086
1.43801
1.5396
1.61833
1.69413
1.7459
1.78493
1.82045
1.85128
1.8818
1.91299
1.94257
1.90616
1.59185
1.09797
1.0015
1.36335
1.30204
1.26372
1.25936
1.29218
1.37063
1.4628
1.54489
1.61908
1.68352
1.72528
1.76598
1.7997
1.82853
1.86245
1.90526
1.90147
1.78436
1.31467
1.01463
1.34771
1.30544
1.26962
1.24443
1.24212
1.30227
1.38177
1.473
1.53613
1.61215
1.6618
1.70287
1.74464
1.77512
1.81411
1.85893
1.88422
1.83643
1.54304
1.08849
1.35108
1.32348
1.28083
1.23979
1.22326
1.26697
1.32108
1.40626
1.47913
1.54703
1.61419
1.65292
1.70075
1.73556
1.77394
1.8173
1.85511
1.82963
1.65252
1.23461
1.36188
1.33708
1.28687
1.24124
1.2257
1.25422
1.29098
1.36111
1.4381
1.4991
1.57185
1.61599
1.66039
1.70068
1.73367
1.77163
1.81351
1.81847
1.72441
1.42578
1.3601
1.33383
1.28475
1.24262
1.23183
1.2392
1.26243
1.31912
1.39622
1.45527
1.52243
1.57795
1.60824
1.65577
1.69035
1.72901
1.77648
1.8029
1.75803
1.61403
1.35393
1.32871
1.28557
1.24863
1.2336
1.23099
1.23759
1.27208
1.33619
1.40886
1.46215
1.53147
1.56573
1.61161
1.65224
1.69945
1.74323
1.77771
1.77236
1.76462
1.34554
1.32469
1.29067
1.25696
1.2387
1.2296
1.23348
1.2635
1.30308
1.37568
1.43259
1.49351
1.53734
1.5794
1.62304
1.66936
1.70283
1.73865
1.78523
1.88403
1.33719
1.32044
1.29316
1.26299
1.24204
1.2305
1.23445
1.26036
1.28756
1.34935
1.40817
1.46066
1.5086
1.54291
1.5909
1.63654
1.66611
1.7101
1.80001
1.98525
1.33037
1.32091
1.29338
1.2639
1.24061
1.2266
1.22854
1.24676
1.26665
1.31621
1.37532
1.42173
1.47741
1.50904
1.55114
1.59655
1.63853
1.68672
1.82056
2.06302
1.32031
1.30842
1.28441
1.25874
1.23605
1.22506
1.22781
1.23713
1.24759
1.27988
1.33789
1.38174
1.43431
1.48395
1.52079
1.56773
1.612
1.66021
1.82889
2.12708
1.29063
1.27437
1.26858
1.25421
1.23629
1.22875
1.22977
1.23535
1.24392
1.26877
1.30787
1.35905
1.39969
1.45666
1.49979
1.54064
1.57855
1.64864
1.85249
2.17336
1.24328
1.23034
1.24334
1.24746
1.23868
1.23327
1.2326
1.23324
1.24069
1.26053
1.27562
1.33062
1.3757
1.419
1.46934
1.51087
1.54871
1.64244
1.87756
2.19513
1.18881
1.18302
1.20918
1.232
1.2371
1.23262
1.23041
1.22675
1.23275
1.24844
1.25538
1.28953
1.3468
1.38673
1.43029
1.47501
1.52678
1.65555
1.89641
2.20126
1.15939
1.14367
1.16503
1.20408
1.22813
1.22919
1.22608
1.22093
1.22451
1.23341
1.2431
1.26802
1.31065
1.35925
1.39962
1.44366
1.49984
1.68633
1.89936
2.18147
1.14687
1.1068
1.12495
1.16978
1.20735
1.22273
1.22313
1.22066
1.21979
1.22091
1.22807
1.2543
1.28563
1.32974
1.36809
1.41001
1.49962
1.7332
1.89846
2.14496
1.16446
1.09982
1.09101
1.13147
1.17604
1.20864
1.21963
1.21851
1.21485
1.21276
1.21587
1.23715
1.25857
1.29635
1.33905
1.38923
1.52856
1.79271
1.88402
2.092
1.20845
1.1224
1.09296
1.09978
1.13588
1.18342
1.20933
1.214
1.21015
1.20759
1.20786
1.22242
1.23762
1.26661
1.30608
1.37954
1.5838
1.82505
1.86012
2.0233
1.24993
1.15913
1.10344
1.09172
1.10056
1.1463
1.18502
1.20565
1.20701
1.20578
1.20606
1.21104
1.21523
1.24039
1.28079
1.40191
1.6632
1.83062
1.83332
1.93924
1.30079
1.2167
1.16843
1.12186
1.10272
1.11413
1.14073
1.17591
1.19399
1.19836
1.19908
1.19487
1.19012
1.22141
1.30962
1.5117
1.68921
1.79426
1.77672
1.80666
)
;

boundaryField
{
    inlet
    {
        type            fixedValue;
        value           uniform 1;
    }
    outlet
    {
        type            inletOutlet;
        inletValue      uniform 1;
        value           nonuniform List<scalar> 
35
(
1.30084
1.21672
1.16852
1.12187
1.10262
1.11401
1.14062
1.17583
1.19387
1.19822
1.19894
1.19475
1.19001
1.2211
1.30858
1.51022
1.68845
1.79393
1.77644
1.80698
1.43968
1.57846
1.61794
1.41826
1.00441
0.657645
0.687265
0.751777
0.81981
0.896965
0.97838
1.02277
1.02649
1.017
1.0042
)
;
    }
    airfoil
    {
        type            zeroGradient;
    }
    top
    {
        type            symmetryPlane;
    }
    bottom
    {
        type            symmetryPlane;
    }
    defaultFaces
    {
        type            empty;
    }
}


// ************************************************************************* //
