/*--------------------------------*- C++ -*----------------------------------*\
  =========                 |
  \\      /  F ield         | OpenFOAM: The Open Source CFD Toolbox
   \\    /   O peration     | Website:  https://openfoam.org
    \\  /    A nd           | Version:  7
     \\/     M anipulation  |
\*---------------------------------------------------------------------------*/
FoamFile
{
    version     2.0;
    format      ascii;
    class       volScalarField;
    location    "6.9";
    object      rho;
}
// * * * * * * * * * * * * * * * * * * * * * * * * * * * * * * * * * * * * * //

dimensions      [1 -3 0 0 0 0 0];

internalField   nonuniform List<scalar> 
8400
(
0.230336
0.324605
0.424359
0.511899
0.592366
0.660375
0.710854
0.759824
0.787619
0.800906
0.823202
0.838496
0.848241
0.873263
0.903421
0.919624
0.941521
0.964554
0.963886
0.957987
0.957799
0.961998
0.973316
0.9879
1.00578
1.0235
1.03681
1.05037
1.06179
1.05988
0.153644
0.156174
0.167627
0.190853
0.233604
0.295599
0.378006
0.467534
0.568783
0.655797
0.729684
0.796367
0.833396
0.863606
0.883967
0.878862
0.874529
0.860551
0.831831
0.826536
0.83717
0.86202
0.894321
0.918693
0.934712
0.947746
0.951051
0.947937
0.954984
0.969819
0.172023
0.172548
0.173608
0.175182
0.176094
0.176664
0.176274
0.181256
0.201256
0.248926
0.313925
0.415314
0.530469
0.618024
0.694741
0.742774
0.779001
0.794432
0.798279
0.802497
0.80143
0.802532
0.811885
0.828218
0.853579
0.878452
0.893155
0.889269
0.891037
0.901781
0.169426
0.170487
0.17163
0.171875
0.172035
0.172891
0.172888
0.172213
0.16957
0.165579
0.164871
0.165581
0.182447
0.221614
0.287767
0.389881
0.512877
0.632804
0.742352
0.790904
0.806414
0.805157
0.803246
0.803153
0.822051
0.842185
0.855157
0.860251
0.86827
0.878307
0.164838
0.167714
0.170225
0.170227
0.170169
0.170373
0.170305
0.170016
0.16839
0.165062
0.164535
0.166189
0.174166
0.18436
0.186996
0.187248
0.200463
0.255074
0.3657
0.52206
0.651961
0.747735
0.784577
0.810503
0.854158
0.863242
0.866079
0.878682
0.898033
0.89759
0.169009
0.169064
0.168528
0.168255
0.168811
0.170625
0.172371
0.17589
0.181929
0.182448
0.182451
0.186933
0.198564
0.215941
0.224759
0.225066
0.225067
0.225281
0.227647
0.239803
0.29501
0.406375
0.572048
0.719617
0.797912
0.841207
0.891323
0.931957
0.963141
0.945737
0.178917
0.181819
0.185121
0.188839
0.192861
0.197361
0.204145
0.212482
0.220725
0.225419
0.227332
0.229116
0.230971
0.237359
0.244297
0.245079
0.24542
0.249456
0.258486
0.270373
0.27866
0.281911
0.292026
0.350294
0.452236
0.613469
0.775292
0.878079
0.944212
1.00312
0.22209
0.227639
0.232433
0.23592
0.236994
0.237126
0.238518
0.241358
0.246599
0.253016
0.253555
0.250229
0.250825
0.25554
0.264804
0.272977
0.281764
0.293348
0.308116
0.31936
0.325308
0.32701
0.327143
0.327455
0.329576
0.337632
0.384478
0.50762
0.677708
0.922189
0.262483
0.267909
0.273974
0.277307
0.27636
0.272702
0.272327
0.273902
0.27998
0.290769
0.297806
0.304751
0.313416
0.321596
0.330623
0.338667
0.342103
0.344262
0.350658
0.352365
0.350505
0.350556
0.351191
0.354784
0.361242
0.371332
0.389537
0.388913
0.391501
0.514612
0.319399
0.32874
0.340004
0.34545
0.345269
0.341974
0.339828
0.341077
0.346555
0.357088
0.365466
0.370029
0.372487
0.373973
0.377597
0.378401
0.375089
0.371501
0.373039
0.374638
0.377256
0.382062
0.393282
0.407067
0.417289
0.424785
0.424945
0.424726
0.426064
0.43017
0.388544
0.397621
0.409478
0.415341
0.416067
0.413224
0.405263
0.400873
0.401244
0.406803
0.41607
0.420672
0.420006
0.417283
0.41709
0.419458
0.423644
0.429598
0.437689
0.44739
0.455128
0.459944
0.463936
0.466505
0.467292
0.464966
0.461507
0.461475
0.464183
0.472837
0.469752
0.474156
0.484046
0.496792
0.500779
0.499691
0.492442
0.481759
0.479615
0.482985
0.491554
0.498377
0.499357
0.49955
0.501544
0.505945
0.507107
0.507471
0.509469
0.513011
0.512826
0.511007
0.506287
0.50153
0.495748
0.495428
0.498055
0.505888
0.515106
0.522247
0.572302
0.572534
0.574553
0.580532
0.590144
0.594243
0.593437
0.585403
0.574247
0.571666
0.574867
0.579603
0.579029
0.575529
0.57518
0.57522
0.573744
0.567455
0.56131
0.560339
0.560491
0.559703
0.559959
0.562046
0.566343
0.572753
0.578677
0.580728
0.578335
0.571349
0.70519
0.691811
0.686304
0.686955
0.692489
0.700152
0.702656
0.70042
0.689591
0.676459
0.673803
0.676747
0.676176
0.669577
0.664229
0.664916
0.664973
0.660737
0.65487
0.654179
0.654202
0.652942
0.649582
0.646221
0.643107
0.638095
0.631925
0.623736
0.614282
0.608797
0.865965
0.855415
0.832724
0.822476
0.819307
0.81897
0.82303
0.824137
0.819442
0.804861
0.792316
0.791436
0.790773
0.783628
0.768186
0.765633
0.764738
0.759913
0.749071
0.741558
0.737356
0.732505
0.724878
0.716112
0.70884
0.701624
0.697839
0.693406
0.69254
0.688965
1.02821
1.02381
1.01383
0.993712
0.972398
0.961589
0.96273
0.967044
0.963992
0.949395
0.926563
0.919453
0.919662
0.914123
0.8925
0.880037
0.877582
0.872652
0.861535
0.848267
0.838638
0.831295
0.822577
0.812833
0.804052
0.79635
0.788336
0.780772
0.772648
0.756096
1.20964
1.20575
1.1973
1.1823
1.15822
1.1348
1.12231
1.12428
1.12455
1.11183
1.08333
1.06439
1.06348
1.05908
1.03659
1.01442
1.00678
0.999341
0.98643
0.969357
0.953605
0.941047
0.930036
0.916524
0.901834
0.887523
0.873479
0.859308
0.846325
0.825613
1.4113
1.40671
1.39749
1.38388
1.3605
1.3288
1.30409
1.30187
1.30238
1.29062
1.25588
1.22753
1.22515
1.2197
1.19434
1.16518
1.15221
1.14104
1.12402
1.10324
1.08201
1.06341
1.04748
1.03052
1.01149
0.992496
0.975562
0.957827
0.942693
0.917716
1.63705
1.62808
1.61775
1.60373
1.58181
1.54623
1.50961
1.50352
1.50324
1.48862
1.44793
1.40925
1.40171
1.39218
1.3652
1.33383
1.31301
1.29414
1.27172
1.24756
1.22234
1.19831
1.17645
1.15438
1.13074
1.10721
1.08491
1.06262
1.04258
1.00896
1.89644
1.88004
1.86186
1.84634
1.82863
1.79349
1.76336
1.74651
1.72849
1.70437
1.66513
1.62465
1.60543
1.58674
1.55389
1.52029
1.49208
1.46287
1.43348
1.40456
1.37556
1.34552
1.31713
1.2896
1.26162
1.2332
1.20545
1.17823
1.15437
1.11419
2.04639
2.04422
2.04063
2.0333
2.0227
2.00642
1.9883
1.97183
1.95385
1.93404
1.90684
1.87267
1.84281
1.81426
1.77883
1.74065
1.70279
1.66346
1.62477
1.58737
1.55027
1.51282
1.47568
1.44001
1.40579
1.37187
1.33871
1.30488
1.27588
1.22805
2.04881
2.04881
2.05005
2.05115
2.05195
2.05298
2.05219
2.0492
2.04392
2.03645
2.03059
2.02417
2.0144
1.99946
1.98047
1.95771
1.92746
1.89002
1.84973
1.80764
1.76285
1.71606
1.66848
1.6215
1.57551
1.53116
1.48904
1.44701
1.41104
1.35301
1.93779
1.95042
1.97313
1.99119
1.99249
1.99598
2.00431
2.0105
2.01675
2.02233
2.02637
2.02527
2.02291
2.02375
2.02425
2.0227
2.01731
2.00882
1.99908
1.98413
1.96084
1.92842
1.88718
1.83969
1.78771
1.7327
1.67673
1.62059
1.57292
1.49742
1.63926
1.66571
1.68944
1.70854
1.72982
1.76429
1.78739
1.80655
1.83541
1.86388
1.8908
1.91933
1.93473
1.95041
1.97504
1.98768
1.99323
2.00107
2.00251
2.00222
2.00066
1.99699
1.99037
1.97905
1.95958
1.92881
1.88582
1.83153
1.77683
1.68065
1.43193
1.43762
1.44533
1.45408
1.46395
1.47698
1.49228
1.50903
1.52928
1.55436
1.58167
1.61563
1.65168
1.68712
1.72778
1.77206
1.8132
1.8535
1.88892
1.91808
1.947
1.96134
1.97351
1.97927
1.97867
1.97659
1.97106
1.95882
1.93898
1.87506
1.40093
1.40116
1.40149
1.40197
1.40261
1.40354
1.40481
1.40658
1.40895
1.41241
1.41717
1.42396
1.43371
1.44588
1.46285
1.4852
1.51492
1.54955
1.59379
1.64172
1.69602
1.75261
1.80369
1.85699
1.89437
1.92349
1.94668
1.95375
1.95266
1.94554
1.40001
1.40002
1.40002
1.40002
1.40003
1.40004
1.40006
1.40009
1.40013
1.4002
1.40032
1.40053
1.40089
1.40146
1.40246
1.40415
1.40712
1.41191
1.41968
1.43242
1.45081
1.47916
1.51653
1.5652
1.62585
1.69019
1.75567
1.8196
1.86698
1.90975
1.40001
1.40001
1.40001
1.40001
1.40001
1.40001
1.40001
1.40001
1.40001
1.40001
1.40001
1.40001
1.40001
1.40002
1.40003
1.40005
1.40009
1.40019
1.4004
1.40085
1.4018
1.40377
1.40773
1.41534
1.42907
1.45265
1.48843
1.54094
1.60176
1.7131
1.40001
1.40001
1.40001
1.40001
1.40001
1.40001
1.40001
1.40001
1.40001
1.40001
1.40001
1.40001
1.40001
1.40001
1.40001
1.40001
1.40001
1.40001
1.40001
1.40001
1.40002
1.40005
1.40011
1.40029
1.40077
1.40202
1.40498
1.41208
1.4245
1.47491
1.40001
1.40001
1.40001
1.40001
1.40001
1.40001
1.40001
1.40001
1.40001
1.40001
1.40001
1.40001
1.40001
1.40001
1.40001
1.40001
1.40001
1.40001
1.40001
1.40001
1.40001
1.40001
1.40001
1.40001
1.40001
1.40002
1.40007
1.40023
1.40065
1.4052
0.147759
0.151833
0.171688
0.169092
0.162891
0.167319
0.176801
0.215812
0.257533
0.312273
0.383191
0.468032
0.582533
0.725959
0.872368
1.03201
1.21363
1.41849
1.65931
1.9203
2.05405
2.04848
1.91749
1.61139
1.42563
1.40073
1.40001
1.40001
1.40001
1.40001
0.148611
0.154649
0.173319
0.167436
0.161259
0.166678
0.181388
0.219535
0.263868
0.321362
0.399227
0.505524
0.631236
0.759888
0.89992
1.06513
1.26018
1.48396
1.73849
1.9747
2.06822
2.04405
1.87591
1.56326
1.41466
1.40029
1.40001
1.40001
1.40001
1.40001
0.149828
0.15534
0.172103
0.166864
0.160906
0.165874
0.18567
0.223267
0.273007
0.341288
0.432472
0.537987
0.649423
0.773033
0.920846
1.11262
1.3283
1.55904
1.80858
2.01627
2.07359
2.03554
1.83228
1.52235
1.4085
1.40014
1.40001
1.40001
1.40001
1.40001
0.150388
0.155789
0.169903
0.166417
0.162034
0.167682
0.195814
0.240367
0.295387
0.365793
0.452947
0.549472
0.658222
0.792962
0.976328
1.17847
1.38757
1.61135
1.85865
2.04705
2.07472
2.02151
1.77589
1.48478
1.40453
1.40006
1.40001
1.40001
1.40001
1.40001
0.15093
0.155363
0.168331
0.16611
0.16411
0.174413
0.206691
0.253533
0.308135
0.374422
0.457384
0.553774
0.673066
0.844427
1.03069
1.2155
1.4221
1.65218
1.90582
2.06828
2.07571
1.99012
1.71055
1.45616
1.40231
1.40003
1.40001
1.40001
1.40001
1.40001
0.151231
0.154027
0.167626
0.166007
0.164814
0.178559
0.210655
0.257509
0.312257
0.377714
0.459155
0.56478
0.725684
0.89611
1.05968
1.244
1.465
1.71564
1.96543
2.07974
2.07533
1.9587
1.6508
1.43568
1.40113
1.40002
1.40001
1.40001
1.40001
1.40001
0.150519
0.152117
0.167001
0.164044
0.164007
0.179272
0.210385
0.257081
0.313402
0.381594
0.477261
0.621562
0.775358
0.921358
1.08722
1.30394
1.54874
1.80412
2.01604
2.08553
2.06232
1.90793
1.59361
1.4213
1.40053
1.40001
1.40001
1.40001
1.40001
1.40001
0.148632
0.150366
0.165623
0.160198
0.159886
0.177818
0.206914
0.255245
0.320689
0.411204
0.533118
0.662508
0.795138
0.946194
1.15649
1.38945
1.6217
1.86213
2.04691
2.08962
2.04476
1.85197
1.54535
1.41232
1.40024
1.40001
1.40001
1.40001
1.40001
1.40001
0.146653
0.149657
0.163239
0.157861
0.156679
0.177027
0.207821
0.27179
0.356942
0.449403
0.558281
0.675109
0.811269
1.00347
1.22772
1.44108
1.66852
1.91229
2.07531
2.09226
2.03371
1.80709
1.50467
1.40662
1.40011
1.40001
1.40001
1.40001
1.40001
1.40001
0.145143
0.149698
0.160265
0.156371
0.156034
0.18041
0.225047
0.297513
0.375646
0.460185
0.563518
0.685093
0.855534
1.07364
1.27048
1.4834
1.72949
1.97781
2.09659
2.09578
2.02565
1.74195
1.46501
1.40301
1.40004
1.40001
1.40001
1.40001
1.40001
1.40001
0.144689
0.15052
0.158278
0.155631
0.159031
0.191462
0.239945
0.305346
0.378405
0.463842
0.564675
0.720364
0.934441
1.11815
1.31132
1.56169
1.82426
2.03478
2.10408
2.09586
1.97529
1.65386
1.438
1.40135
1.40002
1.40001
1.40001
1.40001
1.40001
1.40001
0.14496
0.153207
0.157745
0.15529
0.16357
0.196672
0.244494
0.308541
0.377175
0.469685
0.607426
0.804424
0.981858
1.1584
1.3989
1.65894
1.89476
2.0659
2.1056
2.07668
1.90447
1.59459
1.42323
1.40063
1.40001
1.40001
1.40001
1.40001
1.40001
1.40001
0.146755
0.154919
0.157891
0.154255
0.164731
0.197264
0.24687
0.313598
0.397955
0.519527
0.690521
0.851678
1.01598
1.23432
1.48637
1.72309
1.94597
2.08932
2.10552
2.0531
1.85045
1.54631
1.41264
1.40026
1.40001
1.40001
1.40001
1.40001
1.40001
1.40001
0.148501
0.155233
0.158059
0.152366
0.164822
0.195695
0.254929
0.340756
0.455715
0.581129
0.725012
0.874618
1.06697
1.32045
1.54629
1.78141
2.00674
2.10827
2.10629
2.03898
1.79713
1.49759
1.40605
1.4001
1.40001
1.40001
1.40001
1.40001
1.40001
1.40001
0.148902
0.153395
0.157354
0.15042
0.165508
0.209272
0.283118
0.380021
0.489857
0.601926
0.736777
0.907856
1.15646
1.38304
1.61027
1.8689
2.06584
2.11713
2.11096
2.02545
1.71934
1.45673
1.40262
1.40004
1.40001
1.40001
1.40001
1.40001
1.40001
1.40001
0.147272
0.15025
0.157056
0.149524
0.167911
0.230371
0.301438
0.392699
0.498336
0.614027
0.756507
0.995982
1.22834
1.44932
1.71567
1.95226
2.09797
2.11996
2.10358
1.94611
1.62437
1.43104
1.40105
1.40002
1.40001
1.40001
1.40001
1.40001
1.40001
1.40001
0.14316
0.148144
0.157958
0.15138
0.173828
0.2367
0.30408
0.397308
0.497957
0.637783
0.852808
1.0841
1.29267
1.55093
1.80766
2.00842
2.11308
2.11966
2.0721
1.86842
1.56484
1.41754
1.40044
1.40001
1.40001
1.40001
1.40001
1.40001
1.40001
1.40001
0.140623
0.146622
0.161148
0.158784
0.175438
0.236266
0.30173
0.40293
0.534862
0.727491
0.943588
1.1403
1.37383
1.64693
1.88066
2.05517
2.12313
2.11473
2.0414
1.81178
1.51583
1.40857
1.40017
1.40001
1.40001
1.40001
1.40001
1.40001
1.40001
1.40001
0.140292
0.144419
0.161871
0.163892
0.175518
0.233705
0.323558
0.45324
0.628209
0.80498
0.987575
1.19964
1.48053
1.72903
1.95657
2.09697
2.12896
2.10974
2.01568
1.74116
1.46769
1.40351
1.40006
1.40001
1.40001
1.40001
1.40001
1.40001
1.40001
1.40001
0.140724
0.141939
0.159963
0.164396
0.181772
0.26001
0.384894
0.52633
0.679533
0.83832
1.02892
1.30489
1.57632
1.82024
2.03195
2.12461
2.13233
2.11472
1.97926
1.6444
1.43552
1.40137
1.40002
1.40001
1.40001
1.40001
1.40001
1.40001
1.40001
1.40001
0.144871
0.139606
0.153869
0.162045
0.203619
0.309991
0.429711
0.555596
0.703416
0.87907
1.13101
1.42218
1.67643
1.91802
2.08243
2.13574
2.13529
2.10028
1.87917
1.56227
1.41732
1.40047
1.40001
1.40001
1.40001
1.40001
1.40001
1.40001
1.40001
1.40001
0.153052
0.137186
0.145282
0.162865
0.23377
0.334253
0.439762
0.571118
0.735857
0.980697
1.27092
1.52422
1.78294
1.99165
2.11149
2.13749
2.12959
2.03777
1.78608
1.50461
1.40782
1.40016
1.40001
1.40001
1.40001
1.40001
1.40001
1.40001
1.40001
1.40001
0.158445
0.134773
0.138019
0.175115
0.255208
0.339371
0.436966
0.605856
0.853282
1.12056
1.36601
1.62218
1.87935
2.05032
2.12822
2.13383
2.10869
1.98584
1.71069
1.4622
1.40333
1.40006
1.40001
1.40001
1.40001
1.40001
1.40001
1.40001
1.40001
1.40001
0.16012
0.13111
0.136161
0.191308
0.261841
0.339654
0.483879
0.727278
0.976315
1.20597
1.45348
1.74146
1.96865
2.09791
2.13718
2.12939
2.08647
1.93869
1.62844
1.43198
1.40118
1.40002
1.40001
1.40001
1.40001
1.40001
1.40001
1.40001
1.40001
1.40001
0.156383
0.124224
0.14103
0.200222
0.265202
0.373556
0.604979
0.830014
1.04943
1.28488
1.5837
1.85897
2.04815
2.129
2.14062
2.13523
2.08073
1.86683
1.5421
1.41364
1.40036
1.40001
1.40001
1.40001
1.40001
1.40001
1.40001
1.40001
1.40001
1.40001
0.150032
0.118365
0.145982
0.20339
0.283965
0.485091
0.687198
0.891493
1.12692
1.42568
1.73173
1.96229
2.10131
2.14359
2.14431
2.13713
2.05239
1.74454
1.47603
1.40487
1.4001
1.40001
1.40001
1.40001
1.40001
1.40001
1.40001
1.40001
1.40001
1.40001
0.14314
0.115191
0.145288
0.219822
0.356487
0.555055
0.735413
0.969127
1.2812
1.59777
1.85375
2.04025
2.12962
2.14743
2.14536
2.11541
1.94036
1.63823
1.43887
1.4017
1.40003
1.40001
1.40001
1.40001
1.40001
1.40001
1.40001
1.40001
1.40001
1.40001
0.135279
0.113402
0.141971
0.255137
0.427395
0.597599
0.805614
1.13378
1.4609
1.73214
1.95606
2.09364
2.14326
2.14736
2.13849
2.06814
1.85598
1.5623
1.4182
1.40056
1.40001
1.40001
1.40001
1.40001
1.40001
1.40001
1.40001
1.40001
1.40001
1.40001
0.125935
0.119298
0.157779
0.300109
0.475605
0.65573
0.976492
1.31325
1.60292
1.85551
2.04371
2.12726
2.14928
2.14321
2.11963
2.02546
1.77955
1.49585
1.40709
1.40016
1.40001
1.40001
1.40001
1.40001
1.40001
1.40001
1.40001
1.40001
1.40001
1.40001
0.105458
0.124207
0.204412
0.348372
0.534709
0.817686
1.15139
1.46092
1.74758
1.97694
2.10122
2.14455
2.15062
2.14408
2.11128
1.97933
1.66599
1.44345
1.40213
1.40004
1.40001
1.40001
1.40001
1.40001
1.40001
1.40001
1.40001
1.40001
1.40001
1.40001
0.0863424
0.123131
0.237291
0.406972
0.643248
0.987793
1.30776
1.62602
1.90573
2.06179
2.12966
2.15019
2.15171
2.14777
2.10817
1.87607
1.54672
1.41562
1.40051
1.40001
1.40001
1.40001
1.40001
1.40001
1.40001
1.40001
1.40001
1.40001
1.40001
1.40001
0.0731054
0.131145
0.264684
0.500754
0.820456
1.15195
1.49443
1.81262
2.02706
2.10798
2.13995
2.15073
2.15105
2.13816
2.02053
1.7242
1.47416
1.40522
1.40012
1.40001
1.40001
1.40001
1.40001
1.40001
1.40001
1.40001
1.40001
1.40001
1.40001
1.40001
0.0588669
0.164978
0.332087
0.626816
0.996036
1.35192
1.71439
1.96386
2.1026
2.12712
2.14325
2.1503
2.14536
2.09849
1.91495
1.62132
1.43551
1.40157
1.40003
1.40001
1.40001
1.40001
1.40001
1.40001
1.40001
1.40001
1.40001
1.40001
1.40001
1.40001
0.0400182
0.189568
0.45702
0.820502
1.21089
1.6046
1.89811
2.06605
2.13942
2.13236
2.14698
2.15
2.13295
2.05388
1.83034
1.53551
1.413
1.40038
1.40001
1.40001
1.40001
1.40001
1.40001
1.40001
1.40001
1.40001
1.40001
1.40001
1.40001
1.40001
0.0262014
0.231016
0.636451
1.07221
1.48149
1.82129
2.02977
2.12403
2.14854
2.13466
2.15378
2.15249
2.12105
2.00563
1.71094
1.45793
1.40337
1.40007
1.40001
1.40001
1.40001
1.40001
1.40001
1.40001
1.40001
1.40001
1.40001
1.40001
1.40001
1.40001
0.0508152
0.40691
0.876491
1.34539
1.74305
1.99058
2.10733
2.14627
2.15061
2.13476
2.15671
2.15364
2.11853
1.9035
1.55874
1.41773
1.40067
1.40002
1.40001
1.40001
1.40001
1.40001
1.40001
1.40001
1.40001
1.40001
1.40001
1.40001
1.40001
1.40001
0.190728
0.648045
1.18017
1.65371
1.95568
2.09547
2.13827
2.15238
2.15156
2.13346
2.15718
2.14546
2.04613
1.72044
1.46576
1.40446
1.40011
1.40001
1.40001
1.40001
1.40001
1.40001
1.40001
1.40001
1.40001
1.40001
1.40001
1.40001
1.40001
1.40001
0.399167
0.929853
1.54976
1.93147
2.08948
2.13554
2.14658
2.15456
2.15407
2.1326
2.15477
2.10514
1.89864
1.58241
1.42389
1.4009
1.40002
1.40001
1.40001
1.40001
1.40001
1.40001
1.40001
1.40001
1.40001
1.40001
1.40001
1.40001
1.40001
1.40001
0.776179
1.407
1.89257
2.08667
2.13642
2.14438
2.14926
2.15743
2.1553
2.13154
2.13782
2.04844
1.76878
1.48598
1.40557
1.40012
1.40001
1.40001
1.40001
1.40001
1.40001
1.40001
1.40001
1.40001
1.40001
1.40001
1.40001
1.40001
1.40001
1.40001
1.40765
1.87584
2.09517
2.14171
2.14496
2.14584
2.1523
2.15972
2.15499
2.13015
2.11718
1.96645
1.60453
1.4207
1.40055
1.40001
1.40001
1.40001
1.40001
1.40001
1.40001
1.40001
1.40001
1.40001
1.40001
1.40001
1.40001
1.40001
1.40001
1.40001
2.15265
2.15353
2.15185
2.14951
2.14519
2.14697
2.15516
2.16065
2.1499
2.12006
2.08706
1.78443
1.45665
1.3996
1.39994
1.4
1.40001
1.40001
1.40001
1.40001
1.40001
1.40001
1.40001
1.40001
1.40001
1.40001
1.40001
1.40001
1.40001
1.40001
2.15224
2.15276
2.15176
2.15037
2.14605
2.14534
2.15245
2.16003
2.15364
2.11437
2.05133
1.73146
1.46184
1.40257
1.40003
1.40001
1.40001
1.40001
1.40001
1.40001
1.40001
1.40001
1.40001
1.40001
1.40001
1.40001
1.40001
1.40001
1.40001
1.40001
2.15107
2.151
2.1521
2.15172
2.14779
2.14481
2.14861
2.15844
2.15419
2.10663
2.00039
1.63871
1.42185
1.40035
1.40001
1.40001
1.40001
1.40001
1.40001
1.40001
1.40001
1.40001
1.40001
1.40001
1.40001
1.40001
1.40001
1.40001
1.40001
1.40001
2.15044
2.14971
2.15204
2.15343
2.15029
2.14399
2.14411
2.15734
2.15677
2.10519
1.92839
1.55198
1.40934
1.40012
1.40001
1.40001
1.40001
1.40001
1.40001
1.40001
1.40001
1.40001
1.40001
1.40001
1.40001
1.40001
1.40001
1.40001
1.40001
1.40001
2.15026
2.14929
2.15188
2.15484
2.15265
2.1442
2.13894
2.15148
2.15838
2.10379
1.82447
1.48784
1.40356
1.40003
1.40001
1.40001
1.40001
1.40001
1.40001
1.40001
1.40001
1.40001
1.40001
1.40001
1.40001
1.40001
1.40001
1.40001
1.40001
1.40001
2.15057
2.14918
2.1509
2.15483
2.15331
2.1455
2.13406
2.14309
2.15322
2.05144
1.7328
1.4495
1.40127
1.40001
1.40001
1.40001
1.40001
1.40001
1.40001
1.40001
1.40001
1.40001
1.40001
1.40001
1.40001
1.40001
1.40001
1.40001
1.40001
1.40001
2.15138
2.14929
2.14929
2.15267
2.15323
2.14811
2.13259
2.13897
2.1402
1.99585
1.64412
1.42246
1.40039
1.40001
1.40001
1.40001
1.40001
1.40001
1.40001
1.40001
1.40001
1.40001
1.40001
1.40001
1.40001
1.40001
1.40001
1.40001
1.40001
1.40001
2.15236
2.15024
2.14891
2.15016
2.15209
2.15273
2.13732
2.14064
2.13518
1.92961
1.55673
1.40949
1.40012
1.40001
1.40001
1.40001
1.40001
1.40001
1.40001
1.40001
1.40001
1.40001
1.40001
1.40001
1.40001
1.40001
1.40001
1.40001
1.40001
1.40001
2.15313
2.15177
2.14862
2.14647
2.14963
2.15652
2.14926
2.14113
2.12214
1.82833
1.48747
1.40343
1.40003
1.40001
1.40001
1.40001
1.40001
1.40001
1.40001
1.40001
1.40001
1.40001
1.40001
1.40001
1.40001
1.40001
1.40001
1.40001
1.40001
1.40001
2.15325
2.15246
2.14776
2.14264
2.14605
2.15772
2.15916
2.13199
2.05492
1.72069
1.44445
1.40109
1.40001
1.40001
1.40001
1.40001
1.40001
1.40001
1.40001
1.40001
1.40001
1.40001
1.40001
1.40001
1.40001
1.40001
1.40001
1.40001
1.40001
1.40001
2.15323
2.15288
2.14835
2.14028
2.14077
2.15886
2.16603
2.12335
1.98975
1.63214
1.42021
1.40033
1.40001
1.40001
1.40001
1.40001
1.40001
1.40001
1.40001
1.40001
1.40001
1.40001
1.40001
1.40001
1.40001
1.40001
1.40001
1.40001
1.40001
1.40001
2.15329
2.15283
2.14918
2.1392
2.13638
2.15847
2.16881
2.12323
1.91732
1.54235
1.40773
1.40009
1.40001
1.40001
1.40001
1.40001
1.40001
1.40001
1.40001
1.40001
1.40001
1.40001
1.40001
1.40001
1.40001
1.40001
1.40001
1.40001
1.40001
1.40001
2.15252
2.15107
2.14904
2.14122
2.13397
2.15606
2.16814
2.0926
1.81394
1.47534
1.40259
1.40002
1.40001
1.40001
1.40001
1.40001
1.40001
1.40001
1.40001
1.40001
1.40001
1.40001
1.40001
1.40001
1.40001
1.40001
1.40001
1.40001
1.40001
1.40001
2.15206
2.14913
2.14849
2.14453
2.13415
2.15729
2.16349
2.03279
1.70512
1.43733
1.4008
1.40001
1.40001
1.40001
1.40001
1.40001
1.40001
1.40001
1.40001
1.40001
1.40001
1.40001
1.40001
1.40001
1.40001
1.40001
1.40001
1.40001
1.40001
1.40001
2.15183
2.14683
2.14887
2.14768
2.14163
2.16183
2.16382
1.97862
1.60358
1.4151
1.40021
1.40001
1.40001
1.40001
1.40001
1.40001
1.40001
1.40001
1.40001
1.40001
1.40001
1.40001
1.40001
1.40001
1.40001
1.40001
1.40001
1.40001
1.40001
1.40001
2.15093
2.14395
2.14513
2.15249
2.15304
2.15821
2.14643
1.88495
1.51045
1.40498
1.40005
1.40001
1.40001
1.40001
1.40001
1.40001
1.40001
1.40001
1.40001
1.40001
1.40001
1.40001
1.40001
1.40001
1.40001
1.40001
1.40001
1.40001
1.40001
1.40001
2.15031
2.14095
2.13843
2.15498
2.17082
2.14483
2.0835
1.7658
1.45709
1.40157
1.40002
1.40001
1.40001
1.40001
1.40001
1.40001
1.40001
1.40001
1.40001
1.40001
1.40001
1.40001
1.40001
1.40001
1.40001
1.40001
1.40001
1.40001
1.40001
1.40001
2.1495
2.1394
2.13463
2.16474
2.18198
2.14083
2.02608
1.66322
1.42502
1.40042
1.40001
1.40001
1.40001
1.40001
1.40001
1.40001
1.40001
1.40001
1.40001
1.40001
1.40001
1.40001
1.40001
1.40001
1.40001
1.40001
1.40001
1.40001
1.40001
1.40001
2.14675
2.1396
2.13382
2.17409
2.18843
2.14105
1.94958
1.55078
1.40835
1.4001
1.40001
1.40001
1.40001
1.40001
1.40001
1.40001
1.40001
1.40001
1.40001
1.40001
1.40001
1.40001
1.40001
1.40001
1.40001
1.40001
1.40001
1.40001
1.40001
1.40001
2.14109
2.14081
2.13679
2.1824
2.19253
2.10203
1.82548
1.4784
1.40269
1.40002
1.40001
1.40001
1.40001
1.40001
1.40001
1.40001
1.40001
1.40001
1.40001
1.40001
1.40001
1.40001
1.40001
1.40001
1.40001
1.40001
1.40001
1.40001
1.40001
1.40001
2.13648
2.14335
2.14585
2.18884
2.19525
2.0529
1.70682
1.43531
1.4007
1.40001
1.40001
1.40001
1.40001
1.40001
1.40001
1.40001
1.40001
1.40001
1.40001
1.40001
1.40001
1.40001
1.40001
1.40001
1.40001
1.40001
1.40001
1.40001
1.40001
1.40001
2.12898
2.14804
2.15662
2.1892
2.19542
1.99053
1.58219
1.41174
1.40015
1.40001
1.40001
1.40001
1.40001
1.40001
1.40001
1.40001
1.40001
1.40001
1.40001
1.40001
1.40001
1.40001
1.40001
1.40001
1.40001
1.40001
1.40001
1.40001
1.40001
1.40001
2.12255
2.15341
2.17451
2.17793
2.15522
1.86023
1.49388
1.4036
1.40003
1.40001
1.40001
1.40001
1.40001
1.40001
1.40001
1.40001
1.40001
1.40001
1.40001
1.40001
1.40001
1.40001
1.40001
1.40001
1.40001
1.40001
1.40001
1.40001
1.40001
1.40001
2.12023
2.16459
2.19974
2.16432
2.08898
1.74148
1.44419
1.40097
1.40001
1.40001
1.40001
1.40001
1.40001
1.40001
1.40001
1.40001
1.40001
1.40001
1.40001
1.40001
1.40001
1.40001
1.40001
1.40001
1.40001
1.40001
1.40001
1.40001
1.40001
1.40001
2.12054
2.18002
2.21408
2.16518
2.01746
1.60807
1.41451
1.4002
1.40001
1.40001
1.40001
1.40001
1.40001
1.40001
1.40001
1.40001
1.40001
1.40001
1.40001
1.40001
1.40001
1.40001
1.40001
1.40001
1.40001
1.40001
1.40001
1.40001
1.40001
1.40001
2.12993
2.19704
2.22348
2.15097
1.89194
1.5025
1.40419
1.40004
1.40001
1.40001
1.40001
1.40001
1.40001
1.40001
1.40001
1.40001
1.40001
1.40001
1.40001
1.40001
1.40001
1.40001
1.40001
1.40001
1.40001
1.40001
1.40001
1.40001
1.40001
1.40001
2.15243
2.20894
2.22565
2.09127
1.74976
1.44647
1.40108
1.40001
1.40001
1.40001
1.40001
1.40001
1.40001
1.40001
1.40001
1.40001
1.40001
1.40001
1.40001
1.40001
1.40001
1.40001
1.40001
1.40001
1.40001
1.40001
1.40001
1.40001
1.40001
1.40001
2.17077
2.20959
2.22626
2.02688
1.61245
1.41521
1.40021
1.40001
1.40001
1.40001
1.40001
1.40001
1.40001
1.40001
1.40001
1.40001
1.40001
1.40001
1.40001
1.40001
1.40001
1.40001
1.40001
1.40001
1.40001
1.40001
1.40001
1.40001
1.40001
1.40001
2.19473
2.20983
2.20606
1.89074
1.49937
1.404
1.40004
1.40001
1.40001
1.40001
1.40001
1.40001
1.40001
1.40001
1.40001
1.40001
1.40001
1.40001
1.40001
1.40001
1.40001
1.40001
1.40001
1.40001
1.40001
1.40001
1.40001
1.40001
1.40001
1.40001
2.25559
2.19574
2.12454
1.73208
1.44395
1.40103
1.40001
1.40001
1.40001
1.40001
1.40001
1.40001
1.40001
1.40001
1.40001
1.40001
1.40001
1.40001
1.40001
1.40001
1.40001
1.40001
1.40001
1.40001
1.40001
1.40001
1.40001
1.40001
1.40001
1.40001
2.32873
2.15027
2.0306
1.60044
1.41455
1.40022
1.40001
1.40001
1.40001
1.40001
1.40001
1.40001
1.40001
1.40001
1.40001
1.40001
1.40001
1.40001
1.40001
1.40001
1.40001
1.40001
1.40001
1.40001
1.40001
1.40001
1.40001
1.40001
1.40001
1.40001
2.38563
2.11836
1.86602
1.49113
1.40388
1.40005
1.40001
1.40001
1.40001
1.40001
1.40001
1.40001
1.40001
1.40001
1.40001
1.40001
1.40001
1.40001
1.40001
1.40001
1.40001
1.40001
1.40001
1.40001
1.40001
1.40001
1.40001
1.40001
1.40001
1.40001
2.40916
2.04312
1.71032
1.43987
1.40108
1.40001
1.40001
1.40001
1.40001
1.40001
1.40001
1.40001
1.40001
1.40001
1.40001
1.40001
1.40001
1.40001
1.40001
1.40001
1.40001
1.40001
1.40001
1.40001
1.40001
1.40001
1.40001
1.40001
1.40001
1.40001
2.4153
1.94385
1.58553
1.41429
1.40025
1.40001
1.40001
1.40001
1.40001
1.40001
1.40001
1.40001
1.40001
1.40001
1.40001
1.40001
1.40001
1.40001
1.40001
1.40001
1.40001
1.40001
1.40001
1.40001
1.40001
1.40001
1.40001
1.40001
1.40001
1.40001
2.35677
1.82321
1.49398
1.40439
1.40006
1.40001
1.40001
1.40001
1.40001
1.40001
1.40001
1.40001
1.40001
1.40001
1.40001
1.40001
1.40001
1.40001
1.40001
1.40001
1.40001
1.40001
1.40001
1.40001
1.40001
1.40001
1.40001
1.40001
1.40001
1.40001
2.22478
1.70658
1.44568
1.40131
1.40002
1.40001
1.40001
1.40001
1.40001
1.40001
1.40001
1.40001
1.40001
1.40001
1.40001
1.40001
1.40001
1.40001
1.40001
1.40001
1.40001
1.40001
1.40001
1.40001
1.40001
1.40001
1.40001
1.40001
1.40001
1.40001
2.11032
1.59916
1.4165
1.40029
1.40001
1.40001
1.40001
1.40001
1.40001
1.40001
1.40001
1.40001
1.40001
1.40001
1.40001
1.40001
1.40001
1.40001
1.40001
1.40001
1.40001
1.40001
1.40001
1.40001
1.40001
1.40001
1.40001
1.40001
1.40001
1.40001
1.95366
1.49976
1.40456
1.40005
1.40001
1.40001
1.40001
1.40001
1.40001
1.40001
1.40001
1.40001
1.40001
1.40001
1.40001
1.40001
1.40001
1.40001
1.40001
1.40001
1.40001
1.40001
1.40001
1.40001
1.40001
1.40001
1.40001
1.40001
1.40001
1.40001
1.74788
1.44001
1.40087
1.40001
1.40001
1.40001
1.40001
1.40001
1.40001
1.40001
1.40001
1.40001
1.40001
1.40001
1.40001
1.40001
1.40001
1.40001
1.40001
1.40001
1.40001
1.40001
1.40001
1.40001
1.40001
1.40001
1.40001
1.40001
1.40001
1.40001
1.53186
1.40889
1.40008
1.40001
1.40001
1.40001
1.40001
1.40001
1.40001
1.40001
1.40001
1.40001
1.40001
1.40001
1.40001
1.40001
1.40001
1.40001
1.40001
1.40001
1.40001
1.40001
1.40001
1.40001
1.40001
1.40001
1.40001
1.40001
1.40001
1.40001
1.40001
1.40001
1.40001
1.40001
1.40001
1.40001
1.40001
1.40001
1.40001
1.40001
1.40001
1.40001
1.40001
1.40001
1.40001
1.40001
1.40001
1.40001
1.40001
1.40001
1.40001
1.40001
1.40001
1.40001
1.40001
1.40001
1.40001
1.40001
1.40001
1.40001
1.40001
1.40001
1.40001
1.40001
1.40001
1.40001
1.40001
1.40001
1.40001
1.40001
1.40001
1.40001
1.40001
1.40001
1.40001
1.40001
1.40001
1.40001
1.40001
1.40001
1.40001
1.40001
1.40001
1.40001
1.40001
1.40001
1.40001
1.40001
1.40001
1.40001
1.40001
1.40001
1.40001
1.40001
1.40001
1.40001
1.40001
1.40001
1.40001
1.40001
1.40001
1.40001
1.40001
1.40001
1.40001
1.40001
1.40001
1.40001
1.40001
1.40001
1.40001
1.40001
1.40001
1.40001
1.40001
1.40001
1.40001
1.40001
1.40001
1.40001
1.40001
1.40001
1.40001
1.40001
1.40001
1.40001
1.40001
1.40001
1.40001
1.40001
1.40001
1.40001
1.40001
1.40001
1.40001
1.40001
1.40001
1.40001
1.40001
1.40001
1.40001
1.40001
1.40001
1.40001
1.40001
1.40001
1.40001
1.40001
1.40001
1.40001
1.40001
1.40001
1.40001
1.40001
1.40001
1.40001
1.40001
1.40001
1.40001
1.40001
1.40001
1.40001
1.40001
1.40001
1.40001
1.40001
1.40001
1.40001
1.40001
1.40001
1.40001
1.40001
1.40001
1.40001
1.40001
1.40001
1.40001
1.40001
1.40001
1.40001
1.40001
1.40001
1.40001
1.40001
1.40001
1.40001
1.40001
1.40001
1.40001
1.40001
1.40001
1.40001
1.40001
1.40001
1.40001
1.40001
1.40001
1.40001
1.40001
1.40001
1.40001
1.40001
1.40001
1.40001
1.40001
1.40001
1.40001
1.40001
1.40001
1.40001
1.40001
1.40001
1.40001
1.40001
1.40001
1.40001
1.40001
1.40001
1.40001
1.40001
1.40001
1.40001
1.40001
1.40001
1.40001
1.40001
1.40001
1.40001
1.40001
1.40001
1.40001
1.40001
1.40001
1.40001
1.40001
1.40001
1.40001
1.40001
1.40001
1.40001
1.40001
1.40001
1.40001
1.40001
1.40001
1.40001
1.40001
1.40001
1.40001
1.40001
1.40001
1.40001
1.40001
1.40001
1.40001
1.40001
1.40001
1.40001
1.40001
1.40001
1.40001
1.40001
1.40001
1.40001
1.40001
1.40001
1.40001
1.40001
1.40001
1.40001
1.40001
1.40001
1.40001
1.40001
1.40001
1.40001
1.40001
1.40001
1.40001
1.40001
1.40001
1.40001
1.40001
1.40001
1.40001
1.40001
1.40001
1.40001
1.40001
1.40001
1.40001
1.40001
1.40001
1.40001
1.40001
1.40001
1.40001
1.40001
1.40001
1.40001
1.40001
1.40001
1.40001
1.40001
1.40001
1.40001
1.40001
1.40001
1.40001
1.40001
1.40001
1.40001