/*--------------------------------*- C++ -*----------------------------------*\
  =========                 |
  \\      /  F ield         | OpenFOAM: The Open Source CFD Toolbox
   \\    /   O peration     | Website:  https://openfoam.org
    \\  /    A nd           | Version:  7
     \\/     M anipulation  |
\*---------------------------------------------------------------------------*/
FoamFile
{
    version     2.0;
    format      ascii;
    class       volScalarField;
    location    "8.5";
    object      T;
}
// * * * * * * * * * * * * * * * * * * * * * * * * * * * * * * * * * * * * * //

dimensions      [0 0 0 1 0 0 0];

internalField   nonuniform List<scalar> 
90000
(
0.892687
0.900061
0.907578
0.914433
0.920589
0.925821
0.931114
0.935942
0.940827
0.945796
0.951407
0.957111
0.96312
0.969005
0.975015
0.980747
0.986477
0.991851
0.997213
1.00219
1.00713
1.01166
1.01616
1.02018
1.02418
1.02764
1.0309
1.03385
1.03634
1.03828
1.04043
1.04143
1.04204
1.04272
1.04258
1.04225
1.04163
1.0406
1.03901
1.03735
1.03535
1.03369
1.03196
1.03174
1.03202
1.03262
1.03353
1.03455
1.03505
1.03576
1.03589
1.03562
1.03519
1.03455
1.03359
1.03247
1.03171
1.03133
1.03148
1.0319
1.03267
1.033
1.03344
1.0333
1.03274
1.03197
1.03114
1.03055
1.03062
1.03101
1.03112
1.03122
1.03109
1.03079
1.0304
1.03035
1.0304
1.03027
1.03025
1.03019
1.03001
1.02983
1.02973
1.02954
1.02942
1.02924
1.02902
1.02889
1.02879
1.02868
1.02854
1.02841
1.02834
1.02828
1.02824
1.02818
1.02804
1.02785
1.02764
1.02728
0.885879
0.886146
0.886681
0.887559
0.888793
0.8902
0.891946
0.894063
0.896493
0.899009
0.901844
0.904928
0.908379
0.912081
0.916183
0.920581
0.925345
0.930286
0.935626
0.940959
0.946721
0.95234
0.95821
0.964096
0.969775
0.975724
0.981227
0.986788
0.992041
0.997154
1.00177
1.00624
1.01028
1.01408
1.01654
1.01946
1.02179
1.0233
1.02437
1.02706
1.03006
1.03217
1.03304
1.03359
1.03346
1.03298
1.03216
1.03122
1.03036
1.02967
1.02935
1.02901
1.02903
1.0292
1.02954
1.02981
1.03008
1.03038
1.03026
1.02991
1.02929
1.02879
1.02834
1.02809
1.02812
1.02847
1.02921
1.02918
1.02895
1.02846
1.02803
1.02769
1.028
1.02864
1.02888
1.02871
1.02827
1.02762
1.02768
1.02811
1.02837
1.02823
1.02792
1.02761
1.02767
1.02775
1.02768
1.02748
1.02728
1.02713
1.02713
1.0271
1.02701
1.02694
1.02691
1.02685
1.02682
1.0267
1.02659
1.02633
0.884361
0.884333
0.884297
0.88426
0.884221
0.884183
0.88415
0.884137
0.884149
0.884185
0.884257
0.88437
0.884584
0.884894
0.88533
0.8859
0.886672
0.887645
0.888921
0.890476
0.892472
0.89483
0.897788
0.901202
0.905331
0.90999
0.915429
0.921314
0.92821
0.935149
0.943011
0.951268
0.959346
0.968023
0.976518
0.984658
0.992148
1.0001
1.00668
1.01162
1.01493
1.01766
1.01942
1.02079
1.02159
1.02218
1.02224
1.02219
1.02188
1.02113
1.02049
1.02086
1.02168
1.02304
1.02439
1.02531
1.02579
1.02561
1.02489
1.02379
1.02241
1.02147
1.02093
1.02135
1.02266
1.02398
1.0249
1.02477
1.0241
1.0233
1.02266
1.02288
1.02356
1.02449
1.02474
1.02445
1.02391
1.02374
1.02393
1.02432
1.02446
1.02439
1.02425
1.02426
1.02432
1.02439
1.02433
1.0242
1.02423
1.02426
1.02425
1.02421
1.02421
1.02426
1.0243
1.02429
1.02422
1.02417
1.02413
1.02403
0.882336
0.882313
0.882288
0.882255
0.882217
0.882178
0.882136
0.882089
0.882038
0.881993
0.881955
0.881936
0.881885
0.881823
0.881756
0.881691
0.881629
0.881569
0.881518
0.881479
0.881479
0.8815
0.881563
0.881693
0.881996
0.88246
0.883195
0.884202
0.885687
0.887664
0.890441
0.893869
0.898697
0.904107
0.911264
0.919155
0.928656
0.938272
0.9492
0.959645
0.969254
0.978596
0.98555
0.992895
0.997363
1.00202
1.00433
1.00709
1.00835
1.0105
1.01295
1.01594
1.01777
1.01928
1.02006
1.02036
1.02028
1.01963
1.01858
1.01756
1.01661
1.01654
1.01712
1.01793
1.01876
1.01872
1.01875
1.01862
1.01828
1.0183
1.01849
1.01889
1.01922
1.0195
1.01944
1.0193
1.01921
1.01931
1.01943
1.01953
1.01965
1.01981
1.01986
1.02002
1.02004
1.02012
1.02027
1.02027
1.02031
1.02031
1.02036
1.02045
1.02057
1.02071
1.02073
1.02074
1.02076
1.02084
1.02094
1.02102
0.88045
0.880432
0.880414
0.880396
0.880376
0.880354
0.880329
0.880301
0.880266
0.880229
0.880193
0.880161
0.88013
0.880093
0.880054
0.880013
0.879969
0.879924
0.879879
0.879842
0.879814
0.879789
0.879762
0.879747
0.879693
0.87963
0.879566
0.879512
0.879468
0.879474
0.879518
0.87966
0.879958
0.880467
0.881369
0.882712
0.884969
0.888005
0.892839
0.898771
0.907454
0.916944
0.929141
0.941245
0.954425
0.966784
0.977774
0.98826
0.996052
1.00362
1.00707
1.00966
1.01124
1.01255
1.0135
1.01355
1.01275
1.01082
1.01117
1.01203
1.01358
1.01479
1.01556
1.01537
1.01485
1.01401
1.01347
1.01353
1.01402
1.01507
1.01589
1.01618
1.01593
1.01539
1.01513
1.01528
1.01578
1.01621
1.01613
1.01584
1.01586
1.01603
1.01634
1.01656
1.01648
1.01647
1.01661
1.01683
1.01699
1.017
1.01703
1.01714
1.01726
1.01741
1.01744
1.01746
1.01753
1.01765
1.01777
1.01795
0.879248
0.879238
0.879229
0.879221
0.879214
0.879206
0.879198
0.879189
0.879177
0.879163
0.879147
0.879131
0.879115
0.879097
0.879075
0.879055
0.879037
0.879013
0.878986
0.878957
0.878932
0.878907
0.878877
0.878839
0.878801
0.878771
0.878744
0.878719
0.878697
0.878674
0.878663
0.878622
0.878576
0.878546
0.878513
0.878513
0.878539
0.878622
0.878824
0.879244
0.880134
0.881647
0.884504
0.888583
0.895498
0.903925
0.916167
0.928823
0.943915
0.957634
0.970148
0.980824
0.987936
0.994519
0.997762
1.00127
1.00294
1.00611
1.00983
1.01314
1.01484
1.01525
1.01512
1.01422
1.01274
1.01168
1.0112
1.01169
1.01291
1.01436
1.01468
1.01445
1.01396
1.01326
1.0132
1.01356
1.01403
1.01444
1.01429
1.01398
1.01382
1.01395
1.01421
1.01448
1.01471
1.01461
1.01454
1.01464
1.01479
1.01491
1.01495
1.01506
1.01517
1.01527
1.01525
1.01524
1.0153
1.01542
1.01561
1.01581
0.878797
0.878796
0.878795
0.878793
0.87879
0.878788
0.878787
0.878787
0.878786
0.878784
0.878777
0.878772
0.878774
0.878773
0.878759
0.878739
0.878725
0.878717
0.878707
0.87869
0.878671
0.878659
0.878647
0.878628
0.878599
0.878574
0.878557
0.87854
0.878516
0.878482
0.878437
0.878387
0.878357
0.878338
0.87831
0.878286
0.878272
0.878264
0.878246
0.878224
0.878224
0.87824
0.878302
0.878463
0.878843
0.879615
0.88133
0.884282
0.889891
0.897679
0.90984
0.923479
0.940152
0.955757
0.970902
0.984096
0.995147
1.00454
1.00903
1.01188
1.01344
1.01381
1.01263
1.00906
1.00921
1.01012
1.01178
1.01336
1.01406
1.01401
1.01344
1.01228
1.01204
1.01226
1.013
1.01364
1.01346
1.01326
1.01312
1.01318
1.01327
1.01339
1.01337
1.01339
1.0135
1.0137
1.01398
1.01393
1.01386
1.0139
1.01399
1.01409
1.01412
1.01411
1.01404
1.01404
1.01409
1.01421
1.01435
1.01454
0.878547
0.878547
0.878547
0.878547
0.878549
0.878551
0.878554
0.878557
0.87856
0.878563
0.878569
0.878578
0.878588
0.878592
0.878588
0.878573
0.878561
0.878557
0.878556
0.878548
0.878531
0.87852
0.878518
0.878518
0.878508
0.878486
0.878476
0.878471
0.878462
0.878444
0.878419
0.878388
0.878353
0.878312
0.87827
0.878236
0.878203
0.878155
0.878092
0.87804
0.87801
0.877989
0.87798
0.877971
0.877959
0.877946
0.877948
0.877994
0.878187
0.878725
0.88007
0.882809
0.888315
0.8967
0.909911
0.924998
0.943388
0.959878
0.97505
0.986351
0.994293
1.00016
1.00301
1.00588
1.01105
1.01375
1.01529
1.01531
1.015
1.01301
1.01105
1.011
1.01157
1.013
1.01412
1.01402
1.01348
1.01254
1.01258
1.01291
1.0134
1.01351
1.01339
1.01308
1.01311
1.01335
1.01358
1.01367
1.01361
1.01364
1.01376
1.0138
1.01376
1.01368
1.01359
1.01358
1.01361
1.01372
1.01385
1.01398
0.878441
0.878441
0.878443
0.878445
0.878448
0.878452
0.878457
0.87846
0.87846
0.878459
0.878458
0.878461
0.878461
0.878455
0.878449
0.87845
0.878453
0.878448
0.878441
0.878431
0.878419
0.87841
0.878409
0.878406
0.878394
0.878379
0.878371
0.878363
0.878348
0.878322
0.87829
0.878255
0.878212
0.878172
0.878143
0.878105
0.878047
0.877979
0.877919
0.877865
0.877826
0.877803
0.877782
0.877765
0.877753
0.877743
0.877725
0.877711
0.877719
0.877734
0.877745
0.877778
0.877938
0.878477
0.879964
0.883299
0.889871
0.900603
0.916027
0.934524
0.95505
0.972578
0.989729
1.00286
1.01012
1.01282
1.01445
1.01407
1.01176
1.00965
1.0103
1.01206
1.01382
1.01431
1.01424
1.01352
1.01231
1.01231
1.01273
1.0134
1.01358
1.01345
1.01318
1.01299
1.01315
1.01338
1.01341
1.01344
1.01348
1.01362
1.01374
1.01371
1.01359
1.01347
1.01341
1.01342
1.01346
1.01355
1.01366
1.01376
0.878321
0.878319
0.878317
0.878316
0.878317
0.878318
0.878316
0.87831
0.878304
0.878297
0.878287
0.878276
0.878268
0.878264
0.878264
0.878273
0.878276
0.878274
0.878273
0.878269
0.878258
0.878249
0.878243
0.878232
0.878218
0.87821
0.8782
0.878185
0.878159
0.878126
0.878089
0.878048
0.878009
0.877974
0.877934
0.877883
0.877833
0.877799
0.877771
0.877743
0.87772
0.877705
0.87769
0.877673
0.877661
0.877636
0.87761
0.87761
0.877627
0.877654
0.877667
0.877668
0.877635
0.877561
0.877498
0.877538
0.877796
0.878752
0.881039
0.886618
0.896116
0.911711
0.931076
0.952394
0.971691
0.985251
0.995436
1.00088
1.0042
1.00934
1.01338
1.01556
1.01549
1.01482
1.01273
1.01178
1.01197
1.01287
1.01405
1.014
1.01364
1.01299
1.01301
1.01323
1.01353
1.01349
1.01335
1.01331
1.01348
1.01373
1.01376
1.01369
1.01353
1.01338
1.01335
1.01337
1.01344
1.01352
1.01358
1.01365
0.878043
0.878039
0.878035
0.878028
0.878019
0.878013
0.878007
0.878002
0.877996
0.877995
0.877998
0.878002
0.878001
0.877998
0.877994
0.877994
0.878
0.878003
0.877998
0.877981
0.877965
0.877956
0.877947
0.877943
0.877941
0.877933
0.877916
0.877893
0.877869
0.877845
0.877819
0.87779
0.87776
0.87773
0.877693
0.877647
0.877606
0.877572
0.877541
0.877511
0.877484
0.877468
0.877461
0.877452
0.877438
0.877433
0.877435
0.877449
0.877485
0.877543
0.877594
0.877608
0.877607
0.877587
0.877537
0.87749
0.877413
0.877399
0.877435
0.877654
0.878384
0.88064
0.885374
0.895832
0.911068
0.933259
0.955838
0.976669
0.996036
1.00776
1.01204
1.01418
1.01371
1.00993
1.00957
1.01072
1.01294
1.01456
1.0145
1.01392
1.01256
1.0126
1.01309
1.01365
1.01359
1.01342
1.0131
1.0132
1.01353
1.01375
1.01371
1.01348
1.01336
1.01332
1.01333
1.01338
1.01344
1.01349
1.01348
1.01352
0.877682
0.877676
0.877665
0.877651
0.877639
0.877628
0.877617
0.877605
0.877593
0.877584
0.877582
0.877581
0.877574
0.877566
0.877563
0.877563
0.87757
0.877578
0.877578
0.877575
0.877574
0.877574
0.877577
0.877584
0.877587
0.877583
0.877575
0.877569
0.877568
0.877567
0.877561
0.87755
0.877538
0.87752
0.877493
0.877458
0.877424
0.877394
0.877365
0.877335
0.877303
0.877276
0.877263
0.877255
0.877251
0.877253
0.877264
0.877289
0.877336
0.877411
0.877495
0.877554
0.877577
0.877578
0.877561
0.877514
0.877453
0.877392
0.87737
0.877367
0.877388
0.877465
0.877708
0.878464
0.88059
0.886172
0.897209
0.915723
0.939467
0.962581
0.981224
0.993154
1.00033
1.00328
1.01002
1.01361
1.0149
1.01476
1.01329
1.01187
1.012
1.01284
1.01395
1.01392
1.01351
1.01289
1.01293
1.01332
1.01364
1.01361
1.01335
1.01318
1.01322
1.01327
1.01329
1.01332
1.01339
1.01339
1.01335
1.01337
0.877306
0.877296
0.877273
0.877258
0.877249
0.877237
0.877228
0.877224
0.877217
0.877206
0.877201
0.877199
0.877194
0.877188
0.877187
0.877191
0.877204
0.877218
0.877228
0.877236
0.877243
0.877249
0.877256
0.877266
0.877276
0.877283
0.877291
0.877301
0.877308
0.87731
0.87731
0.877302
0.877282
0.877258
0.877252
0.877254
0.877251
0.877248
0.877246
0.877238
0.877216
0.877181
0.877136
0.877091
0.877072
0.877074
0.877085
0.87711
0.877159
0.877241
0.877335
0.877416
0.877483
0.877535
0.877557
0.877547
0.877503
0.877429
0.877342
0.877305
0.877307
0.877324
0.877365
0.877408
0.877463
0.877674
0.878505
0.881295
0.888521
0.903291
0.925891
0.950986
0.976507
0.996481
1.0084
1.01175
1.01363
1.01179
1.00878
1.00986
1.01231
1.01406
1.01402
1.01348
1.01229
1.0124
1.01307
1.01351
1.01344
1.01303
1.01276
1.01288
1.01312
1.01318
1.01317
1.01321
1.01326
1.01323
1.01315
1.01319
0.877055
0.877042
0.87703
0.877018
0.877005
0.87699
0.876976
0.876964
0.876954
0.876943
0.876927
0.876917
0.876913
0.876908
0.876904
0.876904
0.876907
0.876918
0.876935
0.876947
0.876952
0.876958
0.876968
0.876982
0.876993
0.877002
0.877012
0.877026
0.87704
0.877051
0.877065
0.877078
0.877084
0.877092
0.877105
0.877122
0.877143
0.877177
0.877195
0.877196
0.877191
0.877163
0.877106
0.87703
0.876969
0.876947
0.87694
0.876944
0.876975
0.877046
0.877136
0.877227
0.877309
0.877379
0.877427
0.877438
0.877424
0.87738
0.877302
0.877224
0.877186
0.877177
0.877181
0.877204
0.877236
0.877227
0.87717
0.877199
0.877477
0.878993
0.883461
0.895345
0.914225
0.941718
0.967309
0.983309
0.997549
1.00107
1.00761
1.01207
1.01422
1.01411
1.01274
1.01144
1.01172
1.01284
1.01364
1.01349
1.01271
1.01228
1.01242
1.01279
1.01292
1.01295
1.01297
1.0131
1.01309
1.01299
1.0129
1.01299
0.876882
0.876873
0.876863
0.876852
0.876839
0.876826
0.876814
0.876805
0.876797
0.876787
0.876773
0.876758
0.876748
0.876743
0.876743
0.876743
0.876747
0.876757
0.876769
0.87677
0.876771
0.876773
0.87678
0.876791
0.876801
0.876811
0.876826
0.876844
0.87686
0.876874
0.876892
0.876913
0.876939
0.876968
0.876992
0.877013
0.877042
0.87709
0.87713
0.877144
0.877145
0.877139
0.877116
0.877078
0.877033
0.876987
0.876934
0.87688
0.876862
0.876869
0.876912
0.876987
0.877066
0.87714
0.877202
0.877231
0.877227
0.877202
0.877164
0.877111
0.877038
0.87697
0.876942
0.876937
0.87696
0.87699
0.876985
0.87695
0.876862
0.876844
0.876987
0.877906
0.880782
0.890268
0.906726
0.934115
0.961806
0.98594
1.00504
1.01026
1.01291
1.01128
1.00808
1.00954
1.01235
1.01382
1.01355
1.01248
1.01172
1.01191
1.01253
1.01272
1.01261
1.01261
1.01279
1.01291
1.01287
1.01271
1.01266
1.01282
0.87688
0.876875
0.876869
0.876862
0.876854
0.876847
0.876839
0.876833
0.876826
0.876819
0.87681
0.876797
0.87678
0.876763
0.876753
0.876754
0.876755
0.876752
0.876746
0.876732
0.876723
0.876721
0.87672
0.87672
0.876721
0.876725
0.876735
0.876739
0.876743
0.876753
0.876766
0.876781
0.876799
0.876821
0.876846
0.876873
0.876909
0.876959
0.876993
0.877012
0.877028
0.877046
0.877056
0.877055
0.877044
0.87701
0.876949
0.876868
0.876799
0.876777
0.876779
0.876796
0.876836
0.876879
0.876918
0.876959
0.876976
0.87697
0.876951
0.876925
0.876865
0.876755
0.876677
0.876659
0.876667
0.876727
0.876785
0.876786
0.876762
0.876708
0.876673
0.876692
0.876798
0.877354
0.87947
0.886777
0.901821
0.928962
0.956771
0.978929
0.9949
1.00035
1.00592
1.01301
1.0139
1.01349
1.01145
1.011
1.01144
1.0125
1.01274
1.01247
1.01214
1.01231
1.0127
1.0127
1.01254
1.01242
1.01253
1.01274
0.876905
0.876906
0.876907
0.876907
0.876908
0.876906
0.876902
0.876904
0.876904
0.876902
0.876905
0.876905
0.876905
0.876902
0.876898
0.876895
0.876885
0.876868
0.876846
0.876826
0.87681
0.876796
0.876784
0.87677
0.87676
0.876753
0.876743
0.876719
0.876695
0.876687
0.876683
0.876678
0.876678
0.876686
0.876712
0.876748
0.8768
0.876875
0.876907
0.876916
0.876932
0.876967
0.877013
0.877043
0.877044
0.877029
0.876982
0.876905
0.876827
0.876763
0.87671
0.876686
0.876689
0.876682
0.876668
0.876673
0.876702
0.876728
0.87673
0.876724
0.876692
0.876596
0.876461
0.876401
0.876409
0.876471
0.876592
0.876651
0.876647
0.876618
0.876566
0.876538
0.876559
0.876578
0.876638
0.876988
0.878596
0.884875
0.899288
0.926182
0.955233
0.984684
1.00334
1.01113
1.01225
1.00869
1.00813
1.00995
1.01236
1.0129
1.01249
1.01152
1.01173
1.01242
1.0126
1.01242
1.01214
1.01225
1.01257
1.0126
0.876806
0.87681
0.876814
0.87682
0.876828
0.876833
0.876846
0.876881
0.876885
0.876885
0.876893
0.876911
0.876928
0.876932
0.876935
0.876942
0.876948
0.876948
0.876937
0.876917
0.876894
0.876869
0.87685
0.876835
0.87682
0.876804
0.876782
0.876748
0.87672
0.876701
0.87668
0.876652
0.876636
0.876636
0.876645
0.876666
0.876726
0.876802
0.87682
0.876832
0.87686
0.876909
0.876971
0.877018
0.877035
0.877027
0.876978
0.876899
0.876838
0.876783
0.87672
0.876651
0.876582
0.876521
0.876485
0.87647
0.876472
0.876497
0.876541
0.876558
0.876557
0.876519
0.876395
0.876289
0.876274
0.876311
0.876419
0.876504
0.876518
0.876509
0.876472
0.876433
0.876414
0.876435
0.876442
0.876441
0.876466
0.876725
0.878247
0.883676
0.898821
0.92547
0.955556
0.98046
0.994267
1.00017
1.00734
1.0132
1.0132
1.01242
1.01081
1.01109
1.0123
1.01267
1.01235
1.01183
1.01191
1.01234
1.01266
1.0125
0.876666
0.876674
0.876685
0.876697
0.876713
0.876735
0.876748
0.876772
0.87683
0.876846
0.876847
0.87687
0.876896
0.876897
0.876901
0.876925
0.876943
0.876946
0.876944
0.876933
0.876918
0.876903
0.876889
0.876872
0.876867
0.876865
0.876858
0.87684
0.87682
0.876793
0.876738
0.876669
0.876639
0.876633
0.876617
0.876595
0.876602
0.876635
0.876644
0.876647
0.876683
0.876784
0.876868
0.876909
0.876932
0.876926
0.876864
0.876781
0.876762
0.876752
0.876713
0.876645
0.876554
0.876432
0.876333
0.876307
0.876308
0.876322
0.876383
0.876477
0.876502
0.876499
0.876439
0.876308
0.87625
0.876262
0.876307
0.876358
0.876383
0.876383
0.876367
0.876342
0.87633
0.876329
0.876353
0.876387
0.87642
0.8764
0.87641
0.876625
0.878086
0.883578
0.89984
0.926663
0.958304
0.990679
1.00531
1.01189
1.01142
1.00762
1.00895
1.01184
1.01304
1.0125
1.01127
1.01138
1.01209
1.01254
1.01251
1.01222
0.876474
0.876484
0.876495
0.876507
0.876518
0.876531
0.876549
0.876565
0.8766
0.876654
0.876666
0.876656
0.876649
0.876655
0.8767
0.876764
0.876772
0.876763
0.876764
0.876788
0.87682
0.876833
0.876847
0.876872
0.876873
0.876869
0.876863
0.876864
0.87686
0.876831
0.876738
0.876669
0.876645
0.876619
0.876564
0.876517
0.876508
0.876501
0.876487
0.876462
0.876441
0.876437
0.876446
0.876457
0.876492
0.876547
0.876559
0.876569
0.876588
0.876613
0.876608
0.87659
0.876549
0.876441
0.876275
0.876183
0.876167
0.876168
0.876221
0.87638
0.876479
0.876481
0.876463
0.876378
0.876272
0.876246
0.876251
0.876264
0.876286
0.876297
0.876297
0.8763
0.876308
0.876317
0.876328
0.876329
0.876333
0.876328
0.876318
0.876255
0.876257
0.876465
0.878112
0.884031
0.902023
0.931599
0.962782
0.986003
0.997334
1.00249
1.01206
1.01345
1.01273
1.01047
1.01074
1.01172
1.01269
1.01262
1.01215
1.01195
0.876322
0.876316
0.876314
0.876312
0.876311
0.876307
0.876309
0.876334
0.876359
0.876359
0.876347
0.87633
0.876334
0.87636
0.87644
0.876545
0.876562
0.876551
0.876548
0.876573
0.876646
0.8767
0.87673
0.876773
0.876789
0.876782
0.876761
0.876762
0.876759
0.876718
0.876651
0.87662
0.876589
0.876524
0.876434
0.876398
0.876411
0.876413
0.876398
0.876349
0.876276
0.876175
0.876061
0.876037
0.876041
0.876069
0.876151
0.876259
0.876359
0.876472
0.876502
0.8765
0.876496
0.876451
0.876317
0.876174
0.876133
0.876127
0.876154
0.876269
0.876412
0.876451
0.876452
0.876404
0.87629
0.876226
0.876226
0.876243
0.87627
0.876279
0.876288
0.87632
0.876346
0.876347
0.876333
0.876297
0.876262
0.876224
0.876202
0.876143
0.876073
0.876006
0.876032
0.876345
0.878319
0.886068
0.906677
0.936859
0.97424
0.997462
1.01126
1.01124
1.00759
1.00813
1.01051
1.01281
1.01266
1.01215
1.01174
1.01183
0.876345
0.876321
0.876296
0.876264
0.876227
0.876195
0.876174
0.876157
0.876138
0.876107
0.87606
0.876042
0.876057
0.876126
0.876248
0.876322
0.876374
0.876456
0.876485
0.876479
0.876477
0.876502
0.876567
0.87667
0.876736
0.876738
0.876703
0.876623
0.876554
0.876475
0.876442
0.876434
0.876414
0.876333
0.876257
0.876258
0.87631
0.876327
0.876326
0.876298
0.876217
0.876092
0.875938
0.875834
0.87581
0.875816
0.875882
0.875999
0.876119
0.876301
0.876438
0.876469
0.876466
0.876431
0.876382
0.876248
0.876114
0.876096
0.876135
0.876206
0.876258
0.876284
0.876304
0.876283
0.876213
0.876195
0.876216
0.87627
0.876299
0.876294
0.876299
0.876329
0.876357
0.876358
0.876337
0.876283
0.87622
0.876153
0.876072
0.876022
0.875989
0.875958
0.875958
0.875982
0.876069
0.87658
0.879005
0.889632
0.912173
0.946174
0.979589
0.991255
1.00029
1.00836
1.01341
1.01318
1.01137
1.01129
1.01164
1.01198
0.876312
0.876303
0.876272
0.876227
0.876187
0.876143
0.87608
0.876013
0.875966
0.875929
0.875887
0.875825
0.875797
0.87582
0.875832
0.875831
0.875838
0.875837
0.875825
0.875831
0.875872
0.875941
0.876034
0.876167
0.876297
0.876378
0.876364
0.876248
0.876132
0.876118
0.876142
0.876209
0.876219
0.876186
0.876161
0.876182
0.876306
0.876331
0.876327
0.87632
0.876324
0.876291
0.876118
0.875915
0.875857
0.87585
0.875874
0.875946
0.876022
0.87619
0.876375
0.876406
0.876367
0.876328
0.87635
0.876317
0.876118
0.876033
0.876086
0.876172
0.876169
0.876153
0.876165
0.876152
0.876143
0.876165
0.876248
0.876348
0.876366
0.876348
0.876323
0.876315
0.876321
0.876323
0.876298
0.876213
0.876072
0.875987
0.875953
0.875965
0.875965
0.875978
0.876007
0.876065
0.876132
0.876142
0.876205
0.876895
0.880202
0.895225
0.920838
0.957349
0.993385
1.00619
1.01225
1.00896
1.00849
1.01025
1.01208
1.01194
0.876073
0.876102
0.876121
0.87612
0.876096
0.876006
0.875954
0.875939
0.875929
0.875915
0.875888
0.875832
0.875746
0.875681
0.875638
0.875583
0.875549
0.875538
0.875529
0.875537
0.875591
0.875672
0.87575
0.875816
0.87586
0.875921
0.875922
0.875854
0.875799
0.875769
0.875763
0.875818
0.876051
0.87616
0.876158
0.87617
0.876294
0.876399
0.876396
0.876381
0.876401
0.876413
0.876367
0.87628
0.876178
0.876128
0.876111
0.876076
0.876048
0.876104
0.876319
0.876367
0.876272
0.876208
0.876252
0.876237
0.876062
0.875948
0.876007
0.876171
0.876206
0.876163
0.876092
0.876087
0.876112
0.876186
0.876297
0.876381
0.87639
0.876363
0.8763
0.876229
0.876168
0.876129
0.876073
0.875999
0.875928
0.875908
0.875918
0.875966
0.876054
0.876104
0.876133
0.876137
0.876139
0.876111
0.876027
0.875931
0.876044
0.877293
0.882684
0.902739
0.934703
0.966458
0.991398
0.997938
1.00858
1.01228
1.01209
1.01101
0.875451
0.875494
0.875545
0.875594
0.875639
0.875697
0.875761
0.875827
0.875912
0.875968
0.875983
0.875986
0.875981
0.875967
0.875927
0.875897
0.875896
0.875915
0.875986
0.876091
0.87611
0.876102
0.876048
0.875983
0.875987
0.876028
0.875999
0.875843
0.875727
0.875683
0.875673
0.875688
0.875822
0.876149
0.876284
0.876286
0.876211
0.87617
0.876198
0.876267
0.876294
0.876282
0.876277
0.876351
0.876407
0.876382
0.876278
0.876099
0.875858
0.875796
0.875905
0.876054
0.876068
0.876067
0.876104
0.87608
0.875951
0.875907
0.875975
0.876206
0.876378
0.876368
0.876289
0.876204
0.876218
0.876279
0.87635
0.8764
0.876404
0.876376
0.876273
0.876068
0.875903
0.875851
0.875839
0.875868
0.875894
0.875911
0.875953
0.876071
0.87617
0.876184
0.876178
0.876164
0.876107
0.875999
0.875888
0.875835
0.875799
0.875831
0.876167
0.87852
0.887792
0.913412
0.948106
0.984222
1.00553
1.01101
1.00774
1.00871
0.874713
0.874776
0.874855
0.874962
0.875123
0.875363
0.875561
0.875674
0.875752
0.875814
0.875862
0.875887
0.875897
0.87592
0.875928
0.875915
0.875917
0.875984
0.876063
0.876071
0.876067
0.876051
0.875959
0.875817
0.87581
0.875839
0.87581
0.875614
0.875355
0.875318
0.87537
0.875418
0.875473
0.875643
0.875804
0.875812
0.87567
0.875386
0.875293
0.87529
0.875287
0.875377
0.875722
0.876086
0.87617
0.876155
0.876045
0.875734
0.875506
0.875511
0.875644
0.875874
0.87608
0.876121
0.876068
0.875919
0.875863
0.875883
0.875977
0.876198
0.876373
0.876376
0.876346
0.876295
0.876291
0.87631
0.876284
0.876244
0.876221
0.876174
0.87606
0.875901
0.875783
0.875763
0.875781
0.875863
0.876005
0.876073
0.876122
0.876203
0.876207
0.876202
0.876178
0.876101
0.875952
0.875838
0.875832
0.875812
0.875827
0.875902
0.875973
0.876065
0.876723
0.880663
0.895369
0.927356
0.962125
0.986568
0.998353
1.00866
0.874337
0.874332
0.87431
0.874344
0.874581
0.874906
0.874968
0.874939
0.874902
0.874902
0.874969
0.875069
0.875153
0.875221
0.87525
0.875262
0.875317
0.875389
0.875394
0.875374
0.875383
0.875398
0.875394
0.875348
0.875296
0.87526
0.875223
0.875138
0.87496
0.874821
0.874823
0.874823
0.874735
0.874683
0.87474
0.874693
0.874409
0.874225
0.874242
0.874234
0.874241
0.874414
0.874827
0.875239
0.875363
0.875315
0.875094
0.874939
0.874999
0.87523
0.875585
0.875944
0.876146
0.876173
0.876106
0.875944
0.875867
0.875906
0.876043
0.87617
0.876222
0.876237
0.876225
0.876213
0.876204
0.876112
0.875853
0.875691
0.875677
0.875703
0.875756
0.875772
0.875778
0.8758
0.875872
0.876016
0.876145
0.876207
0.87622
0.876232
0.876225
0.876185
0.876085
0.875907
0.875788
0.875791
0.875826
0.875878
0.87595
0.876039
0.876063
0.876067
0.876032
0.876145
0.87749
0.885502
0.906615
0.943178
0.983717
1.00734
0.874092
0.874087
0.874085
0.874092
0.874139
0.874182
0.874174
0.874183
0.874184
0.874088
0.873962
0.87391
0.873806
0.873607
0.873502
0.873498
0.873592
0.873665
0.873655
0.873646
0.873718
0.873839
0.87387
0.873897
0.874034
0.874309
0.874413
0.87441
0.874413
0.874446
0.874448
0.874414
0.874424
0.874494
0.874477
0.874332
0.873984
0.873681
0.873498
0.87341
0.873481
0.87376
0.874176
0.874546
0.874699
0.874652
0.8745
0.87446
0.874536
0.874769
0.875118
0.875467
0.875723
0.875806
0.875745
0.875538
0.875335
0.875318
0.875314
0.875187
0.875058
0.87504
0.875106
0.875321
0.875435
0.875425
0.875294
0.875196
0.875223
0.875364
0.875586
0.875784
0.875949
0.876059
0.876089
0.876114
0.876163
0.876216
0.876226
0.876168
0.876059
0.875942
0.875797
0.875737
0.875754
0.875844
0.875975
0.87604
0.876087
0.876083
0.876074
0.876002
0.875829
0.875696
0.875733
0.876293
0.879348
0.894058
0.92155
0.973402
0.8755
0.875443
0.875344
0.875185
0.875119
0.875116
0.875113
0.875067
0.874926
0.874611
0.874346
0.874214
0.874189
0.87428
0.874304
0.874277
0.874318
0.874462
0.874494
0.874492
0.874538
0.874649
0.874693
0.87466
0.874638
0.874715
0.874943
0.875116
0.875242
0.87551
0.875757
0.875785
0.875821
0.875822
0.875782
0.875792
0.875914
0.87631
0.87638
0.876326
0.876075
0.875637
0.875381
0.87537
0.875362
0.875325
0.875163
0.875126
0.875206
0.875308
0.875221
0.875065
0.875009
0.875097
0.875213
0.875199
0.875112
0.874936
0.874667
0.874349
0.874187
0.874185
0.874254
0.87444
0.874602
0.874614
0.874595
0.874607
0.874701
0.874904
0.875312
0.875701
0.875946
0.87607
0.876068
0.876021
0.875963
0.875928
0.875827
0.875671
0.875585
0.875558
0.875592
0.875673
0.875859
0.876052
0.876136
0.876132
0.876129
0.876099
0.875997
0.875811
0.875661
0.875656
0.87571
0.875848
0.876032
0.877385
0.883316
0.925649
0.883356
0.88339
0.883465
0.88347
0.88343
0.883304
0.88263
0.88181
0.881644
0.881478
0.881272
0.881231
0.881232
0.881189
0.881221
0.881257
0.881232
0.881074
0.88068
0.880044
0.879924
0.879892
0.879684
0.879005
0.878079
0.877706
0.877779
0.877898
0.877934
0.878031
0.878152
0.878213
0.878405
0.878469
0.878367
0.878379
0.878462
0.878643
0.878819
0.878842
0.878545
0.877844
0.877142
0.876716
0.876467
0.876132
0.875695
0.875505
0.87538
0.87523
0.875068
0.874647
0.874382
0.874374
0.874414
0.874459
0.87455
0.874633
0.874598
0.874348
0.874188
0.874193
0.874278
0.874484
0.874599
0.874721
0.874929
0.875242
0.875554
0.87554
0.875365
0.875354
0.875397
0.87539
0.875228
0.87498
0.874899
0.874911
0.874946
0.87503
0.875158
0.875318
0.875549
0.875746
0.876003
0.876093
0.876104
0.876093
0.875989
0.875834
0.875702
0.875591
0.875603
0.875711
0.875909
0.876039
0.876064
0.876083
0.87631
0.888056
0.887712
0.888598
0.889351
0.889386
0.889005
0.888648
0.888585
0.888645
0.888908
0.889279
0.889716
0.890053
0.890092
0.889848
0.88969
0.889722
0.889628
0.889158
0.888467
0.888241
0.888034
0.887612
0.886762
0.885877
0.885306
0.884902
0.884531
0.884109
0.883554
0.883141
0.883081
0.883067
0.882934
0.882543
0.882037
0.881319
0.88019
0.879382
0.87925
0.879483
0.880185
0.880456
0.880371
0.879782
0.879033
0.878821
0.878731
0.87874
0.878702
0.878571
0.878227
0.877481
0.876555
0.876097
0.875858
0.875736
0.875741
0.875959
0.876533
0.876869
0.876819
0.87681
0.876723
0.876355
0.875928
0.875857
0.876047
0.876557
0.876619
0.876301
0.875544
0.875089
0.875049
0.874959
0.874729
0.874557
0.874515
0.874532
0.874601
0.874735
0.874932
0.875162
0.875365
0.875698
0.875933
0.87592
0.875836
0.875597
0.875371
0.875377
0.875426
0.875514
0.875729
0.87598
0.876128
0.876125
0.876085
0.875852
0.875705
0.877423
0.904876
0.904554
0.904001
0.903682
0.903394
0.903003
0.902795
0.90279
0.902735
0.902412
0.902271
0.902443
0.902781
0.902672
0.902104
0.901121
0.900212
0.899761
0.899764
0.899876
0.899839
0.899354
0.89857
0.898415
0.898788
0.899102
0.898756
0.898034
0.897867
0.897686
0.897647
0.897697
0.897856
0.897729
0.897115
0.896163
0.894885
0.893326
0.892271
0.891901
0.891731
0.891231
0.889962
0.889159
0.889298
0.889375
0.888946
0.888224
0.888149
0.888181
0.888299
0.888133
0.886888
0.885255
0.88418
0.883174
0.88221
0.882018
0.881986
0.881699
0.880984
0.880335
0.879662
0.87887
0.877903
0.876796
0.876624
0.876671
0.876441
0.87583
0.875179
0.874953
0.875005
0.874952
0.874764
0.874596
0.874648
0.874783
0.875022
0.875444
0.875922
0.875996
0.875881
0.875688
0.87534
0.875109
0.874855
0.874751
0.874783
0.874886
0.875088
0.875562
0.875926
0.875977
0.876043
0.875985
0.875818
0.875572
0.8756
0.875917
0.922793
0.923302
0.923451
0.923399
0.923151
0.922777
0.92242
0.921961
0.921691
0.92167
0.921585
0.921188
0.920503
0.919884
0.919869
0.91993
0.919669
0.919141
0.918527
0.917726
0.917255
0.916684
0.91558
0.914701
0.914666
0.914642
0.914028
0.912873
0.912093
0.911672
0.910935
0.910153
0.909952
0.909652
0.908523
0.908045
0.908267
0.90796
0.907093
0.906827
0.906703
0.906129
0.90512
0.904253
0.903323
0.902362
0.901136
0.898718
0.896043
0.895445
0.895831
0.896042
0.895035
0.893265
0.893135
0.893173
0.892208
0.890057
0.888363
0.887053
0.885811
0.885039
0.884546
0.884084
0.883366
0.882042
0.880304
0.879532
0.879187
0.87854
0.878164
0.878378
0.87867
0.878364
0.877779
0.87773
0.877889
0.87782
0.877498
0.87729
0.877176
0.876898
0.876432
0.875652
0.87499
0.874855
0.874706
0.874709
0.874847
0.875191
0.875603
0.875919
0.87589
0.875778
0.875604
0.875426
0.8754
0.875425
0.875768
0.876089
0.942229
0.941865
0.94097
0.940481
0.940447
0.940675
0.940941
0.940802
0.940058
0.939718
0.939313
0.938533
0.938213
0.938112
0.937982
0.937773
0.937116
0.936726
0.936818
0.936833
0.936519
0.935936
0.935082
0.934426
0.934413
0.934452
0.934148
0.932897
0.931808
0.931761
0.93171
0.931278
0.930467
0.929559
0.928487
0.92736
0.926669
0.925642
0.923645
0.922871
0.922478
0.921378
0.92096
0.920988
0.920563
0.919603
0.918964
0.917656
0.916216
0.915164
0.913932
0.912771
0.911167
0.908703
0.90802
0.908119
0.907516
0.90581
0.904774
0.9036
0.901688
0.900164
0.899048
0.898261
0.897464
0.896121
0.893931
0.891814
0.890648
0.88971
0.888263
0.886723
0.885454
0.884069
0.882427
0.881263
0.880348
0.879594
0.878501
0.877517