/*--------------------------------*- C++ -*----------------------------------*\
  =========                 |
  \\      /  F ield         | OpenFOAM: The Open Source CFD Toolbox
   \\    /   O peration     | Website:  https://openfoam.org
    \\  /    A nd           | Version:  7
     \\/     M anipulation  |
\*---------------------------------------------------------------------------*/
FoamFile
{
    version     2.0;
    format      ascii;
    class       volScalarField;
    location    "7.5";
    object      rho;
}
// * * * * * * * * * * * * * * * * * * * * * * * * * * * * * * * * * * * * * //

dimensions      [1 -3 0 0 0 0 0];

internalField   nonuniform List<scalar> 
24000
(
0.541458
0.581406
0.62386
0.660386
0.70199
0.744432
0.782612
0.824853
0.869853
0.91487
0.961999
1.01242
1.06202
1.11384
1.16345
1.21162
1.25179
1.26927
1.2817
1.28527
1.28278
1.28188
1.2776
1.27157
1.26688
1.25913
1.25024
1.25617
1.26709
1.27832
1.28593
1.28749
1.28059
1.27015
1.27029
1.27702
1.28646
1.28694
1.28215
1.27885
1.2811
1.28731
1.28802
1.28465
1.28405
1.28635
1.28779
1.28747
1.28776
1.28884
0.512275
0.512343
0.51237
0.512432
0.512689
0.51342
0.514989
0.518063
0.5237
0.532582
0.546666
0.567261
0.597779
0.638557
0.694852
0.764172
0.848354
0.937062
1.01944
1.09443
1.14603
1.19025
1.21256
1.22823
1.23657
1.24005
1.25088
1.26863
1.28179
1.28742
1.2865
1.27685
1.2626
1.26085
1.26365
1.27234
1.28186
1.27955
1.27224
1.27179
1.27752
1.28096
1.279
1.27482
1.27627
1.27972
1.2797
1.2786
1.27952
1.28108
0.515025
0.515139
0.515288
0.515422
0.515516
0.515627
0.515848
0.515986
0.516004
0.516017
0.516132
0.516271
0.516292
0.516339
0.516919
0.519153
0.526605
0.542722
0.577124
0.629084
0.708551
0.804093
0.91356
1.02038
1.11281
1.19112
1.24635
1.27124
1.28105
1.28609
1.28137
1.25009
1.25137
1.25921
1.27285
1.27979
1.27811
1.26975
1.26654
1.26889
1.27689
1.27902
1.27307
1.27091
1.27308
1.27685
1.27573
1.27535
1.27619
1.27711
0.517448
0.517516
0.517646
0.517738
0.517748
0.517737
0.517816
0.518001
0.51805
0.518052
0.518035
0.518049
0.518125
0.518138
0.518131
0.518091
0.518019
0.517878
0.517784
0.517706
0.518651
0.523725
0.541971
0.583201
0.659649
0.773571
0.908167
1.03512
1.12932
1.1939
1.22583
1.23451
1.26392
1.27674
1.28942
1.28458
1.27141
1.26181
1.26535
1.27733
1.28322
1.27765
1.26803
1.26951
1.27633
1.27689
1.27317
1.27374
1.27546
1.27595
0.518667
0.518694
0.518694
0.518687
0.518679
0.518648
0.518627
0.518646
0.518658
0.518635
0.518564
0.518507
0.518513
0.518554
0.518514
0.518373
0.518255
0.51806
0.51781
0.517855
0.517852
0.517807
0.517673
0.517597
0.517811
0.521372
0.541703
0.595995
0.702222
0.849509
1.02142
1.16302
1.24843
1.26553
1.28149
1.27893
1.25953
1.26384
1.27927
1.28985
1.28587
1.26953
1.26762
1.27445
1.28039
1.27692
1.27285
1.27418
1.27567
1.27605
0.518872
0.518867
0.518827
0.518703
0.518664
0.518673
0.518697
0.518681
0.518593
0.518547
0.518501
0.518416
0.518366
0.518384
0.518371
0.518226
0.518168
0.518217
0.518393
0.51874
0.518935
0.518943
0.518877
0.518614
0.518435
0.518194
0.5181
0.517971
0.518789
0.531667
0.580521
0.710122
0.889753
1.04527
1.19287
1.21995
1.2496
1.2768
1.3021
1.29925
1.27723
1.26605
1.2718
1.28558
1.28418
1.27537
1.27358
1.27792
1.27738
1.27701
0.518934
0.518954
0.518918
0.518849
0.518833
0.518842
0.518861
0.518812
0.518704
0.518569
0.518419
0.518389
0.518404
0.51846
0.51857
0.518748
0.518972
0.519201
0.51953
0.519957
0.520061
0.520045
0.519891
0.519442
0.519016
0.518713
0.5185
0.518133
0.51779
0.517854
0.518019
0.520185
0.537686
0.624118
0.785062
0.99117
1.18939
1.25867
1.29267
1.28567
1.26021
1.26846
1.28692
1.29214
1.28284
1.27428
1.27816
1.28184
1.27862
1.27874
0.518213
0.518249
0.518296
0.518469
0.51861
0.518608
0.518604
0.518615
0.518658
0.518668
0.518662
0.518674
0.518804
0.519026
0.519246
0.519608
0.520055
0.520288
0.520474
0.520608
0.520611
0.520572
0.520325
0.519778
0.519272
0.518828
0.518479
0.518124
0.517754
0.517845
0.518188
0.518414
0.518958
0.519611
0.525642
0.583619
0.729149
0.934951
1.14945
1.20315
1.24645
1.28876
1.304
1.29747
1.27255
1.27392
1.28574
1.28515
1.27931
1.28106
0.518258
0.518276
0.518307
0.518421
0.518492
0.518476
0.518476
0.518499
0.518596
0.518747
0.518868
0.519079
0.519478
0.51973
0.519883
0.520261
0.520716
0.520793
0.520766
0.520731
0.520713
0.520649
0.520348
0.519773
0.519085
0.518504
0.518387
0.518235
0.518045
0.518401
0.51887
0.518889
0.519185
0.520206
0.521489
0.521546
0.523306
0.564765
0.698228
0.940937
1.1812
1.26562
1.29301
1.27799
1.26499
1.28294
1.29211
1.28509
1.27868
1.28411
0.518653
0.518682
0.518689
0.518672
0.518733
0.518824
0.518895
0.51894
0.518976
0.519021
0.519092
0.519344
0.519795
0.519941
0.51996
0.52012
0.520271
0.520241
0.520098
0.51988
0.519747
0.519633
0.519548
0.519239
0.518559
0.518364
0.518555
0.519173
0.519869
0.520615
0.520697
0.520071
0.519508
0.519971
0.520784
0.520881
0.520526
0.519114
0.519785
0.564557
0.723645
0.961571
1.18164
1.23285
1.26714
1.30339
1.29754
1.27594
1.27914
1.28836
0.519768
0.519764
0.519814
0.519808
0.519629
0.519357
0.519269
0.519277
0.519166
0.518986
0.518978
0.519144
0.519172
0.518905
0.518637
0.518549
0.518385
0.51828
0.518119
0.517814
0.517803
0.518092
0.518253
0.518397
0.518471
0.518669
0.519386
0.520668
0.522085
0.522365
0.522243
0.521367
0.520006
0.519268
0.51921
0.519254
0.519054
0.518627
0.51814
0.518062
0.521019
0.57995
0.770852
1.05892
1.23762
1.29505
1.27587
1.26714
1.28651
1.29102
0.519416
0.519393
0.519324
0.518997
0.518888
0.518844
0.518819
0.518642
0.517895
0.516909
0.516793
0.517044
0.517023
0.516597
0.516612
0.516612
0.516391
0.516224
0.516182
0.516081
0.516198
0.516941
0.516924
0.516601
0.516932
0.518251
0.519962
0.521396
0.522277
0.522395
0.52215
0.521187
0.518959
0.517277
0.517075
0.517151
0.517576
0.51766
0.517764
0.517647
0.518968
0.519615
0.526331
0.620192
0.862428
1.13593
1.21061
1.27021
1.29943
1.29231
0.516936
0.516048
0.515767
0.515728
0.515765
0.516159
0.516359
0.516297
0.515704
0.514847
0.5146
0.514774
0.515279
0.51541
0.515686
0.515762
0.515527
0.515492
0.515772
0.515914
0.516288
0.517431
0.517532
0.516813
0.516913
0.518236
0.520044
0.520556
0.520895
0.521282
0.521039
0.520029
0.517802
0.515714
0.515395
0.515567
0.516425
0.516789
0.517057
0.518295
0.519709
0.519388
0.518513
0.516521
0.542792
0.697947
1.0111
1.23076
1.28583
1.27839
0.51484
0.514294
0.514266
0.51439
0.514851
0.51489
0.514641
0.514729
0.515407
0.515496
0.515251
0.515647
0.517005
0.518157
0.518951
0.519167
0.518847
0.517382
0.515805
0.515482
0.516018
0.517424
0.517472
0.517877
0.519687
0.520072
0.5199
0.518999
0.518306
0.518339
0.518454
0.518269
0.517201
0.515281
0.514801
0.515047
0.516034
0.517643
0.519689
0.521486
0.520646
0.518978
0.517246
0.515851
0.515975
0.518864
0.597355
0.841405
1.12858
1.23998
0.521044
0.521493
0.521801
0.522095
0.522588
0.523059
0.523303
0.523834
0.526126
0.526981
0.527067
0.528176
0.530556
0.531068
0.53094
0.530963
0.53018
0.527368
0.523872
0.52242
0.522302
0.523081
0.523551
0.523473
0.522417
0.52199
0.522065
0.520829
0.519742
0.519014
0.519017
0.519364
0.519383
0.51914
0.519066
0.519683
0.521189
0.52294
0.524916
0.524873
0.523155
0.520689
0.516917
0.517781
0.521646
0.526173
0.524711
0.545614
0.70652
1.09409
0.534144
0.534407
0.534621
0.535077
0.536159
0.536757
0.536969
0.536701
0.53543
0.535171
0.534801
0.534764
0.535676
0.536344
0.536663
0.537073
0.536328
0.533707
0.530493
0.526404
0.522967
0.522222
0.522409
0.52261
0.522045
0.521874
0.522403
0.521899
0.520946
0.520576
0.520709
0.522331
0.526493
0.532069
0.534562
0.534344
0.533301
0.531458
0.528885
0.526594
0.524101
0.522669
0.526184
0.532135
0.536452
0.533955
0.526878
0.528158
0.531731
0.757621
0.554697
0.554678
0.554441
0.554424
0.554069
0.553447
0.55246
0.549516
0.546198
0.544472
0.542566
0.541918
0.542061
0.542341
0.542513
0.544996
0.548886
0.549573
0.549564
0.549806
0.55081
0.552802
0.555937
0.559566
0.562865
0.564086
0.563978
0.563299
0.560829
0.559345
0.560437
0.563661
0.567197
0.568157
0.567174
0.564399
0.561281
0.559205
0.55617
0.555508
0.557616
0.561864
0.56579
0.5647
0.561334
0.556281
0.557616
0.561367
0.562211
0.577154
0.613271
0.613283
0.611783
0.611036
0.610111
0.609052
0.609714
0.609597
0.608078
0.606825
0.605349
0.604878
0.605159
0.605461
0.605214
0.606584
0.61126
0.612921
0.612513
0.609594
0.608252
0.608051
0.607187
0.60565
0.60567
0.606723
0.607585
0.607894
0.607027
0.604181
0.600045
0.595596
0.592297
0.590544
0.587855
0.584386
0.584699
0.585396
0.58649
0.588388
0.591417
0.591003
0.589049
0.585449
0.580439
0.581141
0.582694
0.584462
0.582313
0.577858
0.668746
0.668518
0.666324
0.665025
0.66471
0.665374
0.666556
0.666755
0.666595
0.666673
0.666551
0.665621
0.665088
0.665265
0.665241
0.664542
0.663916
0.663466
0.662052
0.65737
0.655939
0.656319
0.655222
0.651267
0.645067
0.640205
0.639982
0.639966
0.639133
0.639213
0.640791
0.642405
0.641283
0.637141
0.635608
0.637188
0.640481
0.641912
0.641133
0.63959
0.636136
0.631729
0.626478
0.622314
0.619568
0.619429
0.618788
0.616628
0.613157
0.608638
0.749138
0.748685
0.74726
0.745715
0.745574
0.745777
0.744627
0.743051
0.743093
0.742655
0.741591
0.741247
0.740305
0.738557
0.736725
0.735798
0.735418
0.734344
0.733332
0.733039
0.733925
0.734313
0.733662
0.732087
0.729268
0.726274
0.724102
0.722189
0.718828
0.715881
0.715813
0.715477
0.713664
0.709766
0.705095
0.700934
0.69684
0.691322
0.68457
0.677425
0.671119
0.665939
0.66111
0.660524
0.660697
0.659624
0.656107
0.651111
0.646009
0.638863
0.839066
0.838875
0.837804
0.836131
0.836001
0.835902
0.834618
0.833965
0.832967
0.831147
0.831155
0.830701
0.828647
0.825763
0.82479
0.824714
0.823425
0.820369
0.817625
0.815654
0.813396
0.810366
0.807306
0.803843
0.799804
0.797641
0.795986
0.793711
0.789591
0.785157
0.780899
0.774473
0.767976
0.762568
0.75839
0.754362
0.748709
0.742699
0.737747
0.733328
0.731784
0.729399
0.726658
0.723459
0.718989
0.711048
0.702649
0.693311
0.686558
0.678997
0.937653
0.937193
0.937624
0.937729
0.936315
0.935071
0.934046
0.932059
0.931543
0.931004
0.929188
0.926432
0.925638
0.924777
0.922608
0.919435
0.917153
0.915405
0.913144
0.90999
0.906746
0.903797
0.900942
0.89772
0.893795
0.889326
0.884823
0.880145
0.874685
0.870091
0.866913
0.862195
0.856622
0.848658
0.842217
0.837933
0.832552
0.825731
0.818989
0.812444
0.804356
0.796113
0.785384
0.774978
0.763
0.751678
0.742249
0.732343
0.730307
0.72369
1.0303
1.02964
1.02766
1.02633
1.0265
1.02663
1.02582
1.02404
1.02191
1.02159
1.02129
1.01986
1.01751
1.01598
1.01466
1.01295
1.01093
1.00863
1.00628
1.00379
1.00084
0.997574
0.994128
0.990417
0.986293
0.981854
0.977029
0.972208
0.967103
0.961242
0.955063
0.947833
0.941416
0.934658
0.926368
0.916601
0.90782
0.898135
0.888344
0.87754
0.866957
0.855173
0.844031
0.833448
0.82286
0.815265
0.807494
0.801219
0.793345
0.776219
1.0804
1.08029
1.07983
1.07953
1.0793
1.07895
1.07846
1.07788
1.07744
1.07698
1.07625
1.07531
1.07475
1.07422
1.07345
1.07239
1.07129
1.0702
1.06896
1.06769
1.06631
1.06473
1.06298
1.06099
1.05856
1.05559
1.0521
1.04819
1.04417
1.03981
1.03521
1.03052
1.02461
1.01794
1.01053
1.00216
0.992775
0.983363
0.973364
0.962753
0.951994
0.940258
0.928984
0.916596
0.905014
0.891627
0.877932
0.862719
0.846823
0.821953
1.09224
1.09226
1.09227
1.09232
1.09239
1.09238
1.09237
1.09238
1.09238
1.09239
1.09237
1.09225
1.09216
1.09208
1.09195
1.09178
1.09158
1.09121
1.09086
1.09062
1.09037
1.09004
1.08964
1.08926
1.08888
1.08836
1.08756
1.08641
1.08501
1.08327
1.08099
1.07844
1.07616
1.07355
1.07017
1.06577
1.05994
1.05292
1.04496
1.03649
1.02683
1.0161
1.00348
0.989709
0.975049
0.95909
0.942817
0.924646
0.909172
0.885074
1.09536
1.09536
1.09524
1.09493
1.09465
1.09441
1.09412
1.09399
1.09396
1.09393
1.09394
1.09396
1.09395
1.09397
1.09406
1.0941
1.09401
1.094
1.09426
1.09461
1.09496
1.09503
1.09505
1.09507
1.0953
1.09564
1.0955
1.09502
1.09421
1.09298
1.09204
1.09184
1.09173
1.09113
1.09004
1.0892
1.08808
1.0858
1.08254
1.07901
1.075
1.06982
1.06288
1.05415
1.04364
1.03146
1.01763
1.00149
0.986489
0.958581
1.09976
1.09919
1.09908
1.09885
1.09842
1.09817
1.09799
1.0978
1.09764
1.09752
1.0973
1.09699
1.09705
1.09715
1.09703
1.09678
1.09652
1.09586
1.09515
1.09504
1.09513
1.09496
1.09422
1.09391
1.09441
1.09633
1.09835
1.09891
1.09853
1.09722
1.09523
1.09389
1.0938
1.09413
1.09473
1.09535
1.09533
1.09482
1.09363
1.09261
1.09201
1.09107
1.08929
1.08641
1.08228
1.07668
1.06912
1.05897
1.04748
1.02283
1.10868
1.10885
1.10919
1.10981
1.10998
1.10999
1.10993
1.10977
1.10998
1.11003
1.10928
1.10896
1.10911
1.10946
1.1093
1.10865
1.10781
1.10651
1.10568
1.10591
1.1064
1.10566
1.10389
1.10248
1.10162
1.10129
1.10114
1.1014
1.10124
1.10109
1.1012
1.10153
1.10174
1.10041
1.09796
1.09762
1.09828
1.09878
1.0984
1.09724
1.09623
1.09565
1.095
1.09393
1.09225
1.08993
1.08727
1.08374
1.07964
1.06802
1.14531
1.14503
1.14414
1.14369
1.1438
1.14379
1.14342
1.14224
1.14184
1.14116
1.13945
1.13927
1.13886
1.13688
1.13509
1.13434
1.13416
1.13358
1.13241
1.13213
1.13161
1.13063
1.13015
1.12972
1.12868
1.12673
1.1243
1.12232
1.11985
1.11659
1.11515
1.11564
1.1156
1.11413
1.11167
1.10854
1.10718
1.10648
1.10509
1.1035
1.10188
1.10024
1.09892
1.09805
1.09739
1.09637
1.09528
1.09476
1.09423
1.09106
1.21471
1.21481
1.21427
1.21269
1.21219
1.21154
1.21035
1.21005
1.20976
1.20872
1.20654
1.20615
1.20603
1.20464
1.20223
1.20089
1.19998
1.19862
1.19645
1.1941
1.19193
1.18935
1.18656
1.18393
1.18089
1.1778
1.17529
1.17298
1.17015
1.16678
1.16294
1.15938
1.15417
1.14924
1.14673
1.14389
1.13918
1.13471
1.1307
1.12718
1.12364
1.12011
1.11654
1.11341
1.11146
1.10971
1.10732
1.10536
1.10357
1.09924
1.30935
1.30901
1.30834
1.30659
1.3057
1.30573
1.30531
1.3041
1.30187
1.30132
1.30133
1.30034
1.29731
1.29554
1.29486
1.29372
1.29165
1.28907
1.28656
1.28405
1.28157
1.27886
1.27568
1.2724
1.26884
1.26499
1.2609
1.25651
1.25164
1.24624
1.24082
1.23507
1.22941
1.22332
1.2158
1.20847
1.20174
1.19422
1.1866
1.1786
1.1706
1.16272
1.15512
1.14758
1.13985
1.13317
1.12667
1.12017
1.1146
1.10714
1.37769
1.37693
1.37648
1.37653
1.3767
1.3764
1.3757
1.37462
1.37407
1.37405
1.37375
1.37264
1.37161
1.37099
1.37029
1.36932
1.3681
1.36673
1.36526
1.36382
1.36222
1.36038
1.35832
1.35603
1.35352
1.35064
1.34748
1.34389
1.34
1.33571
1.33089
1.32566
1.31966
1.31304
1.30617
1.29829
1.28979
1.28062
1.27088
1.26031
1.24934
1.23764
1.22546
1.21331
1.2011
1.18836
1.17672
1.16511
1.15512
1.14104
1.39806
1.39802
1.39798
1.39793
1.39787
1.3978
1.39771
1.39765
1.39759
1.39746
1.39734
1.39726
1.39715
1.39698
1.39682
1.39665
1.39643
1.39617
1.39589
1.39557
1.39521
1.39479
1.3943
1.39374
1.39308
1.3923
1.39137
1.3903
1.38903
1.38754
1.38575
1.38362
1.3811
1.37809
1.37451
1.37031
1.36527
1.35941
1.35246
1.34452
1.33523
1.32475
1.31298
1.2997
1.28543
1.27004
1.25374
1.23645
1.22097
1.19513
1.39995
1.39995
1.39995
1.39995
1.39995
1.39994
1.39994
1.39994
1.39993
1.39993
1.39992
1.39992
1.39991
1.39991
1.3999
1.39989
1.39988
1.39987
1.39985
1.39984
1.39981
1.39979
1.39976
1.39972
1.39967
1.39962
1.39954
1.39945
1.39934
1.39919
1.39899
1.39874
1.39841
1.39797
1.39739
1.39661
1.39557
1.39419
1.39233
1.38987
1.38661
1.38234
1.37678
1.36974
1.36081
1.34992
1.33688
1.32124
1.30544
1.27532
1.4
1.4
1.4
1.4
1.4
1.4
1.4
1.4
1.4
1.4
1.4
1.4
1.4
1.4
1.4
1.4
1.4
1.4
1.4
1.4
1.4
1.4
1.4
1.4
1.4
1.4
1.4
1.39999
1.39999
1.39999
1.39998
1.39997
1.39996
1.39994
1.39992
1.39988
1.39982
1.39973
1.39959
1.39937
1.39902
1.39848
1.39762
1.39628
1.39422
1.39111
1.38656
1.37984
1.37177
1.35146
1.40001
1.40001
1.40001
1.40001
1.40001
1.40001
1.40001
1.40001
1.40001
1.40001
1.40001
1.40001
1.40001
1.40001
1.40001
1.40001
1.40001
1.40001
1.40001
1.40001
1.40001
1.40001
1.40001
1.4
1.4
1.4
1.4
1.4
1.4
1.4
1.4
1.4
1.4
1.4
1.4
1.4
1.4
1.4
1.4
1.39999
1.39998
1.39996
1.39992
1.39985
1.39972
1.39945
1.39895
1.39798
1.39651
1.39071
1.40001
1.40001
1.40001
1.40001
1.40001
1.40001
1.40001
1.40001
1.40001
1.40001
1.40001
1.40001
1.40001
1.40001
1.40001
1.40001
1.40001
1.40001
1.40001
1.40001
1.40001
1.40001
1.40001
1.40001
1.40001
1.40001
1.40001
1.40001
1.40001
1.40001
1.40001
1.40001
1.40001
1.40001
1.40001
1.40001
1.40001
1.4
1.4
1.4
1.4
1.4
1.4
1.4
1.4
1.39999
1.39998
1.39994
1.39986
1.39929
1.40001
1.40001
1.40001
1.40001
1.40001
1.40001
1.40001
1.40001
1.40001
1.40001
1.40001
1.40001
1.40001
1.40001
1.40001
1.40001
1.40001
1.40001
1.40001
1.40001
1.40001
1.40001
1.40001
1.40001
1.40001
1.40001
1.40001
1.40001
1.40001
1.40001
1.40001
1.40001
1.40001
1.40001
1.40001
1.40001
1.40001
1.40001
1.40001
1.40001
1.40001
1.40001
1.40001
1.40001
1.4
1.4
1.4
1.4
1.4
1.39998
1.40001
1.40001
1.40001
1.40001
1.40001
1.40001
1.40001
1.40001
1.40001
1.40001
1.40001
1.40001
1.40001
1.40001
1.40001
1.40001
1.40001
1.40001
1.40001
1.40001
1.40001
1.40001
1.40001
1.40001
1.40001
1.40001
1.40001
1.40001
1.40001
1.40001
1.40001
1.40001
1.40001
1.40001
1.40001
1.40001
1.40001
1.40001
1.40001
1.40001
1.40001
1.40001
1.40001
1.40001
1.40001
1.40001
1.40001
1.40001
1.40001
1.4
1.40001
1.40001
1.40001
1.40001
1.40001
1.40001
1.40001
1.40001
1.40001
1.40001
1.40001
1.40001
1.40001
1.40001
1.40001
1.40001
1.40001
1.40001
1.40001
1.40001
1.40001
1.40001
1.40001
1.40001
1.40001
1.40001
1.40001
1.40001
1.40001
1.40001
1.40001
1.40001
1.40001
1.40001
1.40001
1.40001
1.40001
1.40001
1.40001
1.40001
1.40001
1.40001
1.40001
1.40001
1.40001
1.40001
1.40001
1.40001
1.40001
1.40001
0.51029
0.512154
0.514897
0.517364
0.518635
0.518875
0.518838
0.518153
0.518202
0.518661
0.519781
0.519473
0.517707
0.515928
0.520502
0.533521
0.55427
0.612984
0.668789
0.749072
0.839472
0.9403
1.03071
1.08045
1.09221
1.09522
1.10001
1.10863
1.14547
1.21452
1.31014
1.37822
1.39809
1.39995
1.4
1.40001
1.40001
1.40001
1.40001
1.40001
0.510319
0.512192
0.514947
0.517394
0.518646
0.518878
0.518693
0.518068
0.518116
0.518787
0.519807
0.519497
0.518121
0.516394
0.520245
0.532847
0.554423
0.614197
0.670735
0.751145
0.842481
0.943864
1.03269
1.08125
1.09225
1.09501
1.10004
1.10878
1.14597
1.21653
1.3114
1.37882
1.39818
1.39996
1.4
1.40001
1.40001
1.40001
1.40001
1.40001
0.510328
0.512228
0.514936
0.51737
0.518604
0.518872
0.518581
0.517972
0.517986
0.518862
0.51983
0.519522
0.518307
0.516445
0.51992
0.532513
0.553613
0.615077
0.671377
0.753755
0.844597
0.945675
1.03423
1.08208
1.09232
1.095
1.09995
1.10891
1.14637
1.21888
1.31229
1.37932
1.39828
1.39996
1.4
1.40001
1.40001
1.40001
1.40001
1.40001
0.510319
0.512251
0.514959
0.51737
0.518507
0.518842
0.518494
0.517853
0.517822
0.518863
0.519921
0.5196
0.518362
0.516315
0.519718
0.532581
0.552457
0.61622
0.671396
0.756386
0.847335
0.948117
1.03607
1.08275
1.09239
1.09529
1.09944
1.10904
1.14752
1.22012
1.31373
1.37985
1.39836
1.39996
1.4
1.40001
1.40001
1.40001
1.40001
1.40001
0.510287
0.512243
0.514983
0.517377
0.518409
0.518771
0.518421
0.517724
0.517631
0.518793
0.520088
0.519746
0.518337
0.515991
0.519642
0.532687
0.552247
0.617323
0.673701
0.758949
0.850285
0.950607
1.03848
1.08332
1.09246
1.09577
1.09909
1.10941
1.1489
1.2214
1.31576
1.38039
1.39844
1.39997
1.4
1.40001
1.40001
1.40001
1.40001
1.40001
0.510273
0.512211
0.514975
0.517333
0.518337
0.518672
0.518355
0.517602
0.51744
0.518686
0.520131
0.519768
0.518146
0.515628
0.519302
0.532607
0.553414
0.618764
0.679382
0.761734
0.852842
0.953703
1.04058
1.08391
1.09254
1.09613
1.09914
1.10978
1.14991
1.22283
1.31736
1.38109
1.39852
1.39997
1.4
1.40001
1.40001
1.40001
1.40001
1.40001
0.5103
0.51216
0.514951
0.517239
0.518271
0.518606
0.518285
0.51748
0.517279
0.518515
0.520096
0.519688
0.517723
0.514878
0.517453
0.532437
0.558099
0.621957
0.681869
0.764059
0.855861
0.95716
1.04257
1.08451
1.09256
1.09629
1.09935
1.10992
1.15092
1.2246
1.31888
1.38186
1.3986
1.39997
1.4
1.40001
1.40001
1.40001
1.40001
1.40001
0.510357
0.512157
0.514948
0.517194
0.518205
0.518591
0.518215
0.517368
0.517145
0.518339
0.52004
0.519657
0.517243
0.513863
0.516291
0.532727
0.562264
0.6258
0.683916
0.766449
0.859258
0.960263
1.04467
1.08514
1.09254
1.09636
1.0995
1.11012
1.15201
1.2267
1.32048
1.38256
1.39869
1.39997
1.4
1.40001
1.40001
1.40001
1.40001
1.40001
0.5104
0.512197
0.514963
0.517151
0.518136
0.518594
0.518183
0.517292
0.51705
0.518223
0.520002
0.519676
0.517153
0.513442
0.515929
0.533782
0.563628
0.627568
0.686827
0.769404
0.862763
0.963467
1.04692
1.08576
1.0925
1.09637
1.09971
1.1112
1.15314
1.22864
1.32214
1.38321
1.39876
1.39998
1.4
1.40001
1.40001
1.40001
1.40001
1.40001
0.510411
0.512209
0.514965
0.517087
0.518071
0.518616
0.518185
0.517263
0.516995
0.518143
0.52
0.519865
0.517245
0.51332
0.515828
0.535093
0.563901
0.628819
0.689777
0.772622
0.866272
0.966848
1.04921
1.08636
1.09253
1.09634
1.10026
1.11228
1.15432
1.23055
1.32392
1.38387
1.39884
1.39998
1.4
1.40001
1.40001
1.40001
1.40001
1.40001
0.510418
0.512207
0.514936
0.517016
0.51802
0.518664
0.518198
0.517259
0.516966
0.518057
0.520157
0.520322
0.517535
0.513239
0.515819
0.536933
0.565733
0.630475
0.692747
0.775892
0.869856
0.970452
1.0515
1.08695
1.09277
1.09634
1.10092
1.11258
1.15556
1.23259
1.32586
1.38458
1.39893
1.39998
1.4
1.40001
1.40001
1.40001
1.40001
1.40001
0.510453
0.5122
0.514843
0.516915
0.517972
0.518682
0.518216
0.517261
0.516953
0.517952
0.520369
0.520652
0.517714
0.513046
0.515841
0.539422
0.571371
0.632382
0.695829
0.779184
0.873612
0.974303
1.05382
1.08754
1.0931
1.0965
1.10132
1.11254
1.15686
1.23483
1.32785
1.38534
1.399
1.39998
1.4
1.40001
1.40001
1.40001
1.40001
1.40001
0.510527
0.512191
0.514766
0.516783
0.517915
0.518679
0.518248
0.51727
0.51695
0.517902
0.520411
0.520727
0.517719
0.512686
0.515938
0.542222
0.574556
0.633881
0.698929
0.782548
0.877693
0.978336
1.05619
1.08819
1.09346
1.09698
1.10116
1.11271
1.15828
1.23723
1.32985
1.38609
1.39908
1.39999
1.4
1.40001
1.40001
1.40001
1.40001
1.40001
0.510622
0.512181
0.514731
0.516681
0.51786
0.518668
0.518282
0.51728
0.516959
0.517961
0.520383
0.520734
0.517638
0.512468
0.516591
0.544965
0.576084
0.634155
0.702093
0.786071
0.882162
0.982482
1.05858
1.08887
1.09381
1.09747
1.09989
1.11444
1.15988
1.23974
1.33195
1.38683
1.39916
1.39999
1.4
1.40001
1.40001
1.40001
1.40001
1.40001
0.510714
0.512155
0.514711
0.516611
0.517823
0.518658
0.518298
0.517293
0.517052
0.518108
0.520354
0.520711
0.517629
0.512454
0.517403
0.547238
0.577413
0.633635
0.705532
0.789832
0.886866
0.986796
1.06096
1.08953
1.09415
1.09763
1.09933
1.11635
1.16157
1.24233
1.33416
1.38757
1.39923
1.39999
1.4
1.40001
1.40001
1.40001
1.40001
1.40001
0.510803
0.512087
0.514648
0.516543
0.517796
0.518661
0.518318
0.517394
0.517228
0.518186
0.520492
0.520635
0.517638
0.512492
0.517513
0.548289
0.578884
0.634165
0.709426
0.793933
0.891903
0.991302
1.06334
1.09014
1.09439
1.0976
1.09953
1.11744
1.16325
1.24501
1.33645
1.38833
1.3993
1.39999
1.4
1.40001
1.40001
1.40001
1.40001
1.40001
0.510908
0.512031
0.514487
0.516453
0.517744
0.518679
0.518445
0.517652
0.517444
0.518221
0.520524
0.520569
0.517654
0.512624
0.516637
0.548296
0.580601
0.638409
0.713703
0.798562
0.89729
0.995914
1.06569
1.0907
1.09446
1.0977
1.1
1.11842
1.16497
1.24777
1.33878
1.38908
1.39937
1.39999
1.4
1.40001
1.40001
1.40001
1.40001
1.40001
0.511018
0.512026
0.514325
0.516342
0.517708
0.518688
0.51871
0.517974
0.517718
0.518239
0.520469
0.520607
0.517921
0.51272
0.515542
0.547348
0.582643
0.642254
0.717942
0.803698
0.902865
1.00063
1.06803
1.09123
1.09446
1.09786
1.10007
1.11976
1.16686
1.25067
1.34118
1.38984
1.39943
1.39999
1.4
1.40001
1.40001
1.40001
1.40001
1.40001
0.511114
0.512039
0.514164
0.516215
0.517724
0.518745
0.518999
0.51836
0.518012
0.518286
0.520406
0.520597
0.518378
0.512599
0.515457
0.547303
0.58513
0.644808
0.722206
0.809118
0.908595
1.00551
1.07036
1.09179
1.09445
1.09786
1.09984
1.1214
1.16897
1.25383
1.34367
1.39058
1.39949
1.4
1.4
1.40001
1.40001
1.40001
1.40001
1.40001
0.511196
0.512029
0.513981
0.516039
0.517767
0.518847
0.519329
0.518779
0.51829
0.518432
0.520344
0.520555
0.518516
0.512594
0.515825
0.549505
0.588402
0.648041
0.726894
0.814701
0.914609
1.01058
1.07269
1.09238
1.09445
1.09766
1.09982
1.12301
1.17131
1.25725
1.34623
1.39133
1.39955
1.4
1.4
1.40001
1.40001
1.40001
1.40001
1.40001
0.511274
0.512012
0.513781
0.515823
0.517755
0.518984
0.519638
0.51918
0.518548
0.518607
0.520193
0.520464
0.518654
0.513863
0.517869
0.554083
0.592452
0.652232
0.732016
0.820541
0.921036
1.0158
1.07502
1.09295
1.09442
1.09702
1.10027
1.12456
1.17396
1.26084
1.34887
1.39205
1.39961
1.4
1.4
1.40001
1.40001
1.40001
1.40001
1.40001
0.511353
0.512016
0.513585
0.515618
0.517622
0.519131
0.519866
0.519525
0.518785
0.518711
0.519755
0.520071
0.519085
0.516457
0.521336
0.558628
0.596762
0.657096
0.737373
0.826778
0.927888
1.02113
1.0773
1.09345
1.0942
1.09653
1.10057
1.12601
1.1769
1.26458
1.35158
1.39277
1.39966
1.4
1.4
1.40001
1.40001
1.40001
1.40001
1.40001
0.511443
0.51203
0.51342
0.51546
0.51753
0.519212
0.520029
0.519764
0.519026
0.518751
0.519279
0.519184
0.519176
0.517392
0.523262
0.561353
0.60036
0.662241
0.742878
0.833539
0.935131
1.02657
1.07949
1.09383
1.0939
1.09635
1.10058
1.12728
1.18009
1.26855
1.35434
1.39346
1.39971
1.4
1.4
1.40001
1.40001
1.40001
1.40001
1.40001
0.511564
0.512036
0.513276
0.515331
0.517508
0.519238
0.52011
0.519903
0.519349
0.518705
0.518738
0.517814
0.518804
0.5174
0.524766
0.562961
0.601726
0.6674
0.748579
0.840882
0.942738
1.03209
1.08157
1.09407
1.09369
1.0963
1.10067
1.12843
1.18351
1.2728
1.35712
1.39412
1.39975
1.4
1.40001
1.40001
1.40001
1.40001
1.40001
1.40001
0.511726
0.511993
0.513137
0.515206
0.517519
0.519246
0.52013
0.519941
0.519643
0.518355
0.517939
0.516592
0.51839
0.517106
0.526733
0.565114
0.601005
0.67295
0.754685
0.848766
0.950674
1.03764
1.08351
1.09414
1.0936
1.09629
1.10197
1.12961
1.18716
1.27723
1.35994
1.39477
1.39979
1.4
1.40001
1.40001
1.40001
1.40001
1.40001
1.40001
0.511852
0.51193
0.513029
0.515111
0.517501
0.519206
0.520125
0.519937
0.519763
0.517933
0.517163
0.515623
0.51815
0.517146
0.528353
0.569071
0.600602
0.679873
0.761449
0.857117
0.958941
1.0432
1.08531
1.09416
1.09358
1.09633
1.10405
1.13116
1.19108
1.28181
1.36278
1.39538
1.39982
1.4
1.40001
1.40001
1.40001
1.40001
1.40001
1.40001
0.511912
0.511835
0.512982
0.515076
0.517485
0.519181
0.520097
0.519994
0.519773
0.51779
0.516537
0.514864
0.518211
0.517959
0.52898
0.572866
0.607296
0.688936
0.768987
0.865919
0.967545
1.04873
1.08694
1.09417
1.09359
1.09649
1.10538
1.13309
1.19531
1.28663
1.36564
1.39596
1.39985
1.4
1.40001
1.40001
1.40001
1.40001
1.40001
1.40001
0.511958
0.511776
0.512966
0.515094
0.517539
0.519177
0.520086
0.520059
0.519684
0.517733
0.516007
0.514383
0.518989
0.518827
0.529065
0.57603
0.621111
0.698347
0.777232
0.875248
0.976549
1.05422
1.08837
1.09419
1.0936
1.0964
1.10623
1.13517
1.19988
1.29176
1.3685
1.3965
1.39988
1.4
1.40001
1.40001
1.40001
1.40001
1.40001
1.40001
0.511989
0.511763
0.512983
0.515259
0.517573
0.519157
0.520076
0.52007
0.519556
0.517663
0.515559
0.514036
0.519525
0.519944
0.529752
0.579603
0.62914
0.705564
0.786169
0.88529
0.985967
1.05956
1.08961
1.09422
1.09362
1.09627
1.10721
1.13749
1.20475
1.29709
1.37134
1.397
1.39991
1.4
1.40001
1.40001
1.40001
1.40001
1.40001
1.40001
0.511955
0.511849
0.51316
0.515486
0.517565
0.518988
0.519834
0.519842
0.519451
0.517632
0.515159
0.513607
0.519261
0.521925
0.532059
0.582987
0.634976
0.711773
0.795804
0.896107
0.995669
1.06467
1.09066
1.09431
1.09383
1.0968
1.10942
1.14035
1.20981
1.30258
1.37415
1.39747
1.39993
1.4
1.40001
1.40001
1.40001
1.40001
1.40001
1.40001
0.511843
0.512002
0.513402
0.515776
0.517584
0.51862
0.519322
0.519578
0.51942
0.517668
0.51476
0.513161
0.517606
0.524684
0.534766
0.585156
0.642141
0.71887
0.806248
0.907614
1.0055
1.06946
1.09148
1.09465
1.09429
1.09779
1.11259
1.14382
1.21505
1.30827
1.3769
1.39789
1.39994
1.4
1.40001
1.40001
1.40001
1.40001
1.40001
1.40001
0.511724
0.512112
0.513581
0.516078
0.517674
0.518343
0.518904
0.519447
0.51944
0.517739
0.51441
0.512753
0.516572
0.527495
0.538598
0.586607
0.650772
0.727424
0.817538
0.919695
1.01536
1.07389
1.09208
1.09497
1.09448
1.09848
1.11478
1.1477
1.22069
1.31418
1.37958
1.39827
1.39996
1.4
1.40001
1.40001
1.40001
1.40001
1.40001
1.40001
0.511554
0.512244
0.513902
0.516332
0.517727
0.518113
0.518583
0.519351
0.519513
0.518063
0.514312
0.512258
0.516391
0.530633
0.543009
0.590097
0.660517
0.737013
0.8297
0.932414
1.02522
1.0779
1.09251
1.09507
1.09448
1.09903
1.1153
1.15174
1.22687
1.32029
1.38215
1.3986
1.39997
1.4
1.40001
1.40001
1.40001
1.40001
1.40001
1.40001
0.511289
0.512344
0.514291
0.516589
0.517693
0.517881
0.518214
0.51918
0.519836
0.518803
0.514856
0.512142
0.516847
0.534498
0.547088
0.599944
0.670897
0.747616
0.842787
0.945882
1.035
1.08142
1.09289
1.09508
1.09445
1.09958
1.11431
1.15602
1.23368
1.32658
1.38461
1.39889
1.39998
1.4
1.40001
1.40001
1.40001
1.40001
1.40001
1.40001
0.511089
0.512417
0.514634
0.516856
0.517654
0.517668
0.51778
0.518869
0.520027
0.51932
0.515459
0.51218
0.517988
0.537241
0.550122
0.609992
0.680377
0.759545
0.856825
0.960064
1.04448
1.08444
1.09331
1.09515
1.0947
1.10017
1.11374
1.16086
1.24113
1.33298
1.38692
1.39913
1.39999
1.4
1.40001
1.40001
1.40001
1.40001
1.40001
1.40001
0.510872
0.512471
0.514924
0.51707
0.517642
0.517526
0.517434
0.518349
0.520012
0.519528
0.515848
0.511728
0.518302
0.538065
0.552897
0.619698
0.689243
0.772801
0.871883
0.974812
1.05348
1.08701
1.09356
1.09536
1.09506
1.10125
1.1149
1.16674
1.24912
1.33944
1.38906
1.39934
1.39999
1.4
1.40001
1.40001
1.40001
1.40001
1.40001
1.40001
0.510652
0.512476
0.515144
0.517203
0.517708
0.517465
0.517294
0.517792
0.519874
0.519578
0.516278
0.51116
0.517627
0.538395
0.559258
0.631874
0.699415
0.787489
0.888107
0.989964
1.06178
1.08913
1.09362
1.09545
1.09537
1.10352
1.1206
1.17361
1.25758
1.34585
1.39101
1.39951
1.4
1.4
1.40001
1.40001
1.40001
1.40001
1.40001
1.40001
0.510539
0.512428
0.515279
0.517326
0.517964
0.517613
0.517359
0.517566
0.519793
0.519809
0.517187
0.511371
0.516384
0.540099
0.571432
0.644254
0.712094
0.803864
0.905649
1.00514
1.06917
1.09081
1.09362
1.09548
1.09568
1.10526
1.12642
1.18051
1.26649
1.35222
1.39276
1.39964
1.4
1.4
1.40001
1.40001
1.40001
1.40001
1.40001
1.40001
0.510559
0.512334
0.51532
0.517413
0.518251
0.518126
0.517598
0.517643
0.519912
0.520172
0.518592
0.513121