/*--------------------------------*- C++ -*----------------------------------*\
  =========                 |
  \\      /  F ield         | OpenFOAM: The Open Source CFD Toolbox
   \\    /   O peration     | Website:  https://openfoam.org
    \\  /    A nd           | Version:  7
     \\/     M anipulation  |
\*---------------------------------------------------------------------------*/
FoamFile
{
    version     2.0;
    format      ascii;
    class       volVectorField;
    location    "0.4";
    object      U;
}
// * * * * * * * * * * * * * * * * * * * * * * * * * * * * * * * * * * * * * //

dimensions      [0 1 -1 0 0 0 0];

internalField   nonuniform List<vector> 
8400
(
(2.09895 -0.475588 0)
(2.23738 -0.231274 0)
(2.29451 0.00201093 0)
(2.34567 0.150913 0)
(2.39355 0.14321 0)
(2.41278 0.177344 0)
(2.4399 0.232176 0)
(2.46576 0.216198 0)
(2.47437 0.163283 0)
(2.47932 0.144667 0)
(2.4733 0.11904 0)
(2.45475 0.0802159 0)
(2.48716 0.0577463 0)
(2.55314 0.0549156 0)
(2.61629 0.0519823 0)
(2.68123 0.0453822 0)
(2.74044 0.0309414 0)
(2.78881 0.0143529 0)
(2.83806 0.00334669 0)
(2.89065 -0.00112119 0)
(2.94257 -0.00143455 0)
(2.98316 -0.000636859 0)
(2.9983 -6.78965e-05 0)
(2.99996 -1.61853e-06 0)
(3 -1.39032e-08 0)
(3 -8.48508e-10 0)
(3 -4.0158e-10 0)
(3 -4.69961e-11 0)
(3 -5.8707e-13 0)
(3 2.58386e-15 0)
(2.03404 -1.43575 0)
(2.0717 -1.42677 0)
(2.09243 -1.3671 0)
(2.08831 -1.15777 0)
(2.07437 -0.930729 0)
(2.11546 -0.694938 0)
(2.14204 -0.523488 0)
(2.16315 -0.364171 0)
(2.20724 -0.261929 0)
(2.25223 -0.167964 0)
(2.29652 -0.0913892 0)
(2.33089 -0.0527604 0)
(2.3662 -0.0201612 0)
(2.43152 0.0123877 0)
(2.51472 0.024266 0)
(2.60244 0.0176537 0)
(2.68206 -0.00135919 0)
(2.75174 -0.0235306 0)
(2.81762 -0.0354614 0)
(2.88335 -0.0342827 0)
(2.94748 -0.0196674 0)
(2.98847 -0.00472691 0)
(2.99917 -0.000346623 0)
(2.99998 -6.66338e-06 0)
(3 -4.12657e-08 0)
(3 5.09967e-09 0)
(3 3.05036e-09 0)
(3 4.72598e-10 0)
(3 1.05457e-11 0)
(3 4.70386e-14 0)
(2.3197 -1.28285 0)
(2.3629 -1.24059 0)
(2.39719 -1.22958 0)
(2.42421 -1.24864 0)
(2.49458 -1.20483 0)
(2.49378 -1.24226 0)
(2.50388 -1.19351 0)
(2.51308 -1.13821 0)
(2.51111 -1.06775 0)
(2.49421 -0.956269 0)
(2.47075 -0.803656 0)
(2.4696 -0.66545 0)
(2.4925 -0.51454 0)
(2.51756 -0.384451 0)
(2.56179 -0.279385 0)
(2.62602 -0.209087 0)
(2.69864 -0.162521 0)
(2.76967 -0.125298 0)
(2.8384 -0.0898752 0)
(2.90916 -0.052358 0)
(2.96794 -0.0183327 0)
(2.99522 -0.00262503 0)
(2.99979 -0.000107815 0)
(3 -1.31351e-06 0)
(3 5.15998e-09 0)
(3 8.16872e-09 0)
(3 3.32879e-09 0)
(3 2.71706e-10 0)
(3 3.39947e-12 0)
(3 9.96797e-15 0)
(2.44066 -1.20733 0)
(2.45015 -1.21345 0)
(2.4667 -1.17475 0)
(2.4922 -1.10147 0)
(2.49958 -1.10458 0)
(2.51772 -1.0607 0)
(2.5355 -0.981702 0)
(2.55529 -0.922983 0)
(2.5764 -0.887586 0)
(2.6033 -0.836445 0)
(2.63694 -0.75438 0)
(2.67403 -0.661032 0)
(2.68814 -0.611065 0)
(2.69159 -0.549276 0)
(2.70081 -0.450325 0)
(2.73185 -0.339554 0)
(2.78335 -0.245915 0)
(2.84085 -0.168273 0)
(2.89972 -0.0999942 0)
(2.95355 -0.0426238 0)
(2.98871 -0.00933202 0)
(2.99907 -0.000687884 0)
(2.99998 -1.3658e-05 0)
(3 -7.81714e-08 0)
(3 1.44883e-08 0)
(3 9.3629e-09 0)
(3 1.9045e-09 0)
(3 6.64908e-11 0)
(3 4.48484e-13 0)
(3 2.14452e-15 0)
(2.52357 -1.06064 0)
(2.53698 -1.00429 0)
(2.54947 -0.964616 0)
(2.56265 -0.960722 0)
(2.57607 -0.89509 0)
(2.59321 -0.834006 0)
(2.60787 -0.80558 0)
(2.62559 -0.762507 0)
(2.64672 -0.699312 0)
(2.67096 -0.647182 0)
(2.69911 -0.610147 0)
(2.73537 -0.571947 0)
(2.77133 -0.51035 0)
(2.80157 -0.42957 0)
(2.82563 -0.341425 0)
(2.8497 -0.254899 0)
(2.87962 -0.176962 0)
(2.91711 -0.108346 0)
(2.95666 -0.0504288 0)
(2.98674 -0.013519 0)
(2.99841 -0.00143515 0)
(2.99995 -4.45294e-05 0)
(3 -4.32653e-07 0)
(3 1.14008e-08 0)
(3 1.03575e-08 0)
(3 3.79192e-09 0)
(3 2.92566e-10 0)
(3 3.78177e-12 0)
(3 1.54196e-14 0)
(3 3.75488e-15 0)
(2.59037 -0.850563 0)
(2.60111 -0.82645 0)
(2.61459 -0.793369 0)
(2.62943 -0.741395 0)
(2.64499 -0.704753 0)
(2.66258 -0.667933 0)
(2.68261 -0.617047 0)
(2.70491 -0.568254 0)
(2.72929 -0.524066 0)
(2.75563 -0.47372 0)
(2.78267 -0.414252 0)
(2.81072 -0.353084 0)
(2.84155 -0.29842 0)
(2.87459 -0.249311 0)
(2.90581 -0.198259 0)
(2.93164 -0.141311 0)
(2.9538 -0.0843136 0)
(2.9751 -0.0379356 0)
(2.99181 -0.0104363 0)
(2.99885 -0.00126587 0)
(2.99995 -5.02419e-05 0)
(3 -6.61152e-07 0)
(3 3.57177e-09 0)
(3 7.0449e-09 0)
(3 3.5755e-09 0)
(3 4.62608e-10 0)
(3 1.03897e-11 0)
(3 5.98001e-14 0)
(3 -2.98906e-15 0)
(3 3.78471e-16 0)
(2.66577 -0.655498 0)
(2.67922 -0.621607 0)
(2.69457 -0.585063 0)
(2.71166 -0.54977 0)
(2.73042 -0.509649 0)
(2.75079 -0.467512 0)
(2.77289 -0.426768 0)
(2.79639 -0.383989 0)
(2.82051 -0.33727 0)
(2.84481 -0.288421 0)
(2.86922 -0.238831 0)
(2.89374 -0.188981 0)
(2.91845 -0.140891 0)
(2.94263 -0.0978127 0)
(2.96411 -0.061717 0)
(2.98063 -0.0333435 0)
(2.99162 -0.0137701 0)
(2.99759 -0.0035933 0)
(2.99966 -0.000451447 0)
(2.99998 -2.12343e-05 0)
(3 -3.71431e-07 0)
(3 -6.43502e-10 0)
(3 2.84699e-09 0)
(3 1.70322e-09 0)
(3 2.99334e-10 0)
(3 1.02886e-11 0)
(3 7.75674e-14 0)
(3 -3.11904e-15 0)
(3 -2.17238e-15 0)
(3 -1.55721e-15 0)
(2.75825 -0.447183 0)
(2.77347 -0.41717 0)
(2.79053 -0.384518 0)
(2.80875 -0.350046 0)
(2.82794 -0.315101 0)
(2.84783 -0.279451 0)
(2.86794 -0.242138 0)
(2.88787 -0.203487 0)
(2.90744 -0.164738 0)
(2.92643 -0.12722 0)
(2.94452 -0.0922899 0)
(2.96124 -0.0614692 0)
(2.9759 -0.0364106 0)
(2.98745 -0.018414 0)
(2.99491 -0.00757054 0)
(2.99849 -0.00236947 0)
(2.99969 -0.000504113 0)
(2.99996 -6.07778e-05 0)
(3 -3.45862e-06 0)
(3 -8.92179e-08 0)
(3 -7.10203e-10 0)
(3 6.69595e-10 0)
(3 4.61956e-10 0)
(3 7.46387e-11 0)
(3 2.99155e-12 0)
(3 2.8314e-14 0)
(3 -4.12092e-15 0)
(3 -3.15189e-15 0)
(3 -5.17533e-16 0)
(3 -3.04728e-15 0)
(2.86058 -0.247766 0)
(2.87464 -0.222886 0)
(2.88957 -0.196522 0)
(2.90463 -0.169799 0)
(2.9194 -0.142901 0)
(2.9336 -0.116151 0)
(2.94706 -0.090414 0)
(2.95962 -0.0667796 0)
(2.971 -0.0462087 0)
(2.98083 -0.0293935 0)
(2.9887 -0.0167064 0)
(2.99432 -0.00813732 0)
(2.99771 -0.00320754 0)
(2.99932 -0.000958012 0)
(2.99986 -0.000206389 0)
(2.99998 -3.17412e-05 0)
(3 -3.43524e-06 0)
(3 -2.34398e-07 0)
(3 -5.43806e-09 0)
(3 1.92964e-09 0)
(3 1.05418e-09 0)
(3 2.23548e-10 0)
(3 1.30209e-11 0)
(3 -2.27907e-13 0)
(3 -2.45635e-13 0)
(3 -4.26506e-14 0)
(3 8.98367e-16 0)
(3 1.48038e-15 0)
(3 4.0361e-16 0)
(3 8.40864e-17 0)
(2.94765 -0.0906068 0)
(2.95604 -0.0758773 0)
(2.96429 -0.0610795 0)
(2.97194 -0.0471033 0)
(2.97883 -0.0345305 0)
(2.98485 -0.0238547 0)
(2.9899 -0.0153584 0)
(2.99385 -0.00906595 0)
(2.99667 -0.00479271 0)
(2.99845 -0.00219924 0)
(2.99941 -0.000842278 0)
(2.99982 -0.000256765 0)
(2.99996 -5.91249e-05 0)
(2.99999 -9.89044e-06 0)
(3 -1.20294e-06 0)
(3 -9.91151e-08 0)
(3 5.40043e-09 0)
(3 9.81911e-09 0)
(3 6.73431e-09 0)
(3 2.4816e-09 0)
(3 3.81984e-10 0)
(3 1.04226e-11 0)
(3 -8.04247e-13 0)
(3 -5.59609e-13 0)
(3 -1.40125e-13 0)
(3 -6.70718e-15 0)
(3 3.26754e-15 0)
(3 2.34507e-15 0)
(3 1.78045e-15 0)
(3 1.27287e-15 0)
(2.99101 -0.0153566 0)
(2.99328 -0.0111563 0)
(2.99526 -0.00756232 0)
(2.99688 -0.00478397 0)
(2.9981 -0.00280856 0)
(2.99895 -0.00151275 0)
(2.99949 -0.000734059 0)
(2.99978 -0.000313649 0)
(2.99992 -0.000115227 0)
(2.99998 -3.55477e-05 0)
(2.99999 -8.98435e-06 0)
(3 -1.80648e-06 0)
(3 -2.71314e-07 0)
(3 -1.87968e-08 0)
(3 1.09361e-08 0)
(3 1.24429e-08 0)
(3 1.10424e-08 0)
(3 7.21944e-09 0)
(3 2.5753e-09 0)
(3 3.00688e-10 0)
(3 8.33003e-12 0)
(3 -3.37401e-13 0)
(3 -3.32339e-13 0)
(3 -1.18433e-13 0)
(3 -5.63022e-15 0)
(3 1.82595e-15 0)
(3 6.12538e-16 0)
(3 7.56614e-16 0)
(3 -5.81349e-17 0)
(3 -1.13285e-15 0)
(2.99955 -0.000751129 0)
(2.99973 -0.000426968 0)
(2.99985 -0.000226779 0)
(2.99993 -0.000111721 0)
(2.99997 -5.04307e-05 0)
(2.99999 -2.06406e-05 0)
(3 -7.58207e-06 0)
(3 -2.4579e-06 0)
(3 -6.87034e-07 0)
(3 -1.59093e-07 0)
(3 -2.57452e-08 0)
(3 2.14433e-09 0)
(3 6.92455e-09 0)
(3 7.73929e-09 0)
(3 7.73491e-09 0)
(3 6.16295e-09 0)
(3 3.18424e-09 0)
(3 8.65846e-10 0)
(3 9.64586e-11 0)
(3 2.97524e-12 0)
(3 -4.4665e-14 0)
(3 -7.42409e-14 0)
(3 -2.6737e-14 0)
(3 6.01901e-16 0)
(3 2.62609e-15 0)
(3 1.74714e-15 0)
(3 1.52097e-15 0)
(3 -3.23469e-15 0)
(3 -2.54714e-15 0)
(3 -1.1925e-15 0)
(3 -6.98511e-06 0)
(3 -2.77618e-06 0)
(3 -1.22331e-06 0)
(3 -5.3446e-07 0)
(3 -2.11536e-07 0)
(3 -7.16537e-08 0)
(3 -1.9574e-08 0)
(3 -2.54627e-09 0)
(3 2.28403e-09 0)
(3 3.35576e-09 0)
(3 3.51193e-09 0)
(3 3.56969e-09 0)
(3 3.34549e-09 0)
(3 2.48664e-09 0)
(3 1.29323e-09 0)
(3 4.82846e-10 0)
(3 1.0025e-10 0)
(3 8.91076e-12 0)
(3 3.23543e-13 0)
(3 -5.01978e-15 0)
(3 -1.18469e-14 0)
(3 -3.59415e-15 0)
(3 -1.44066e-15 0)
(3 -3.23073e-16 0)
(3 -1.56938e-15 0)
(3 -1.92156e-15 0)
(3 -1.2279e-15 0)
(3 -8.06241e-16 0)
(3 1.34244e-15 0)
(3 1.06128e-15 0)
(3 7.80192e-09 0)
(3 5.25753e-09 0)
(3 3.43435e-09 0)
(3 2.81026e-09 0)
(3 2.4844e-09 0)
(3 2.1792e-09 0)
(3 1.9124e-09 0)
(3 1.7345e-09 0)
(3 1.5945e-09 0)
(3 1.32934e-09 0)
(3 9.75188e-10 0)
(3 5.7569e-10 0)
(3 2.61306e-10 0)
(3 9.48303e-11 0)
(3 2.25383e-11 0)
(3 3.49541e-12 0)
(3 3.22501e-13 0)
(3 1.4231e-14 0)
(3 -3.06081e-16 0)
(3 -2.41188e-15 0)
(3 -2.85754e-15 0)
(3 -3.21818e-15 0)
(3 -3.67884e-15 0)
(3 -3.11125e-15 0)
(3 -3.74543e-15 0)
(3 -3.8066e-15 0)
(3 -4.00986e-15 0)
(3 -1.84198e-15 0)
(3 -2.4498e-15 0)
(3 -6.99298e-16 0)
(3 1.16011e-09 0)
(3 1.06453e-09 0)
(3 8.67441e-10 0)
(3 6.79257e-10 0)
(3 5.44037e-10 0)
(3 4.31142e-10 0)
(3 3.2041e-10 0)
(3 2.0638e-10 0)
(3 1.05238e-10 0)
(3 5.57812e-11 0)
(3 2.53853e-11 0)
(3 7.95267e-12 0)
(3 1.92025e-12 0)
(3 3.84631e-13 0)
(3 5.69141e-14 0)
(3 4.5541e-15 0)
(3 7.87934e-16 0)
(3 -4.49784e-16 0)
(3 -3.39653e-16 0)
(3 1.06691e-16 0)
(3 2.94431e-16 0)
(3 4.17409e-16 0)
(3 7.35239e-16 0)
(3 3.38827e-16 0)
(3 3.71619e-16 0)
(3 -4.17714e-17 0)
(3 -9.90809e-16 0)
(3 -1.3929e-15 0)
(3 -2.17521e-15 0)
(3 3.1074e-16 0)
(3 8.46561e-12 0)
(3 8.68232e-12 0)
(3 9.16075e-12 0)
(3 8.91429e-12 0)
(3 7.2925e-12 0)
(3 5.02288e-12 0)
(3 2.96138e-12 0)
(3 1.36898e-12 0)
(3 5.70879e-13 0)
(3 2.41833e-13 0)
(3 8.29774e-14 0)
(3 1.97628e-14 0)
(3 7.34549e-15 0)
(3 2.52166e-15 0)
(3 7.51826e-16 0)
(3 6.834e-16 0)
(3 2.73877e-16 0)
(3 4.96403e-16 0)
(3 1.24199e-15 0)
(3 1.63736e-15 0)
(3 2.18019e-15 0)
(3 2.91931e-15 0)
(3 3.49005e-15 0)
(3 1.31865e-15 0)
(3 1.63638e-15 0)
(3 5.53138e-16 0)
(3 4.0609e-17 0)
(3 -3.76193e-17 0)
(3 1.37669e-16 0)
(3 5.23523e-16 0)
(3 2.72431e-14 0)
(3 2.26229e-14 0)
(3 2.06683e-14 0)
(3 1.74869e-14 0)
(3 1.22802e-14 0)
(3 8.40346e-15 0)
(3 5.11433e-15 0)
(3 2.83691e-15 0)
(3 2.31438e-15 0)
(3 2.13407e-15 0)
(3 1.79451e-15 0)
(3 1.46263e-15 0)
(3 1.60341e-15 0)
(3 3.8118e-16 0)
(3 8.22878e-17 0)
(3 3.39393e-16 0)
(3 -3.42127e-16 0)
(3 -8.75653e-16 0)
(3 -2.85911e-16 0)
(3 -3.74877e-16 0)
(3 -2.38115e-16 0)
(3 -4.56673e-16 0)
(3 -8.23766e-16 0)
(3 -6.23118e-16 0)
(3 -3.15684e-16 0)
(3 -7.16372e-16 0)
(3 -2.96094e-16 0)
(3 6.60355e-16 0)
(3 3.02087e-16 0)
(3 -1.71715e-15 0)
(3 1.69138e-15 0)
(3 1.14105e-15 0)
(3 8.05062e-16 0)
(3 1.8995e-16 0)
(3 -7.08092e-16 0)
(3 -1.17695e-15 0)
(3 -1.17774e-15 0)
(3 -1.5009e-15 0)
(3 -1.83087e-15 0)
(3 -1.83164e-15 0)
(3 -1.83638e-15 0)
(3 -1.23353e-15 0)
(3 -1.02479e-15 0)
(3 -1.54318e-16 0)
(3 -2.16465e-16 0)
(3 -7.44826e-16 0)
(3 -8.07208e-16 0)
(3 -1.0358e-15 0)
(3 -1.63152e-15 0)
(3 -1.24773e-15 0)
(3 -3.63327e-16 0)
(3 -1.61035e-15 0)
(3 -2.11427e-15 0)
(3 2.47214e-16 0)
(3 7.3518e-17 0)
(3 -1.31621e-15 0)
(3 4.29611e-17 0)
(3 1.05675e-15 0)
(3 4.09085e-16 0)
(3 -1.3086e-15 0)
(3 -2.68322e-15 0)
(3 -2.8254e-15 0)
(3 -3.1275e-15 0)
(3 -3.36255e-15 0)
(3 -2.67765e-15 0)
(3 -2.18343e-15 0)
(3 -1.79788e-15 0)
(3 -1.38083e-15 0)
(3 -1.04246e-15 0)
(3 -7.73629e-16 0)
(3 -5.82322e-16 0)
(3 -6.45751e-16 0)
(3 -1.04922e-16 0)
(3 5.02897e-16 0)
(3 6.28289e-17 0)
(3 -5.67183e-16 0)
(3 -5.95408e-16 0)
(3 -3.67124e-16 0)
(3 -7.68412e-16 0)
(3 1.08162e-17 0)
(3 3.94058e-16 0)
(3 5.10244e-16 0)
(3 6.86337e-16 0)
(3 5.27998e-16 0)
(3 -6.23848e-16 0)
(3 -1.01826e-15 0)
(3 -6.00883e-16 0)
(3 -4.67058e-16 0)
(3 -3.26143e-17 0)
(3 1.3818e-15 0)
(3 2.83581e-15 0)
(3 2.91227e-15 0)
(3 3.50322e-15 0)
(3 3.8938e-15 0)
(3 4.06189e-15 0)
(3 3.64738e-15 0)
(3 3.4547e-15 0)
(3 2.46399e-15 0)
(3 2.14161e-15 0)
(3 1.86753e-15 0)
(3 1.72703e-15 0)
(3 2.31223e-15 0)
(3 1.1562e-15 0)
(3 -2.37829e-16 0)
(3 -1.79122e-15 0)
(3 -2.76625e-15 0)
(3 -3.03187e-15 0)
(3 -8.90995e-16 0)
(3 7.29271e-16 0)
(3 8.36184e-16 0)
(3 4.80032e-16 0)
(3 1.64334e-15 0)
(3 1.59486e-15 0)
(3 1.00097e-16 0)
(3 3.27963e-16 0)
(3 1.6165e-15 0)
(3 2.50522e-17 0)
(3 4.3346e-16 0)
(3 1.10498e-15 0)
(3 1.23413e-15 0)
(3 1.5051e-16 0)
(3 8.70586e-16 0)
(3 1.03364e-15 0)
(3 1.31367e-15 0)
(3 1.80607e-15 0)
(3 2.19159e-15 0)
(3 2.37392e-15 0)
(3 2.65304e-15 0)
(3 3.23298e-15 0)
(3 2.32889e-15 0)
(3 1.58132e-15 0)
(3 4.53025e-16 0)
(3 -3.43499e-16 0)
(3 -1.14201e-15 0)
(3 -1.66722e-15 0)
(3 -2.05886e-15 0)
(3 -1.71538e-15 0)
(3 -3.89841e-17 0)
(3 4.55415e-16 0)
(3 3.61572e-16 0)
(3 -4.71258e-16 0)
(3 -4.09448e-16 0)
(3 8.93276e-16 0)
(3 1.31013e-15 0)
(3 1.55975e-15 0)
(3 2.35206e-15 0)
(3 2.19748e-15 0)
(3 7.29217e-16 0)
(3 1.00001e-15 0)
(3 -1.18893e-15 0)
(3 -2.53655e-16 0)
(3 -2.87257e-16 0)
(3 -5.5669e-16 0)
(3 -7.14806e-16 0)
(3 -8.40319e-16 0)
(3 -7.3281e-16 0)
(3 -5.02064e-16 0)
(3 1.48853e-16 0)
(3 1.28079e-15 0)
(3 1.5077e-15 0)
(3 1.1379e-15 0)
(3 8.77172e-17 0)
(3 -4.62212e-17 0)
(3 -1.67026e-16 0)
(3 -4.90723e-16 0)
(3 6.47178e-16 0)
(3 1.11567e-15 0)
(3 2.38018e-16 0)
(3 -1.60349e-15 0)
(3 -1.85019e-15 0)
(3 -5.65867e-16 0)
(3 -5.6707e-16 0)
(3 -1.59843e-15 0)
(3 -1.11667e-15 0)
(3 3.02162e-16 0)
(3 1.55496e-15 0)
(3 1.46248e-15 0)
(3 1.64711e-16 0)
(3 6.96859e-16 0)
(3 1.53919e-15 0)
(3 1.98673e-15 0)
(3 8.21994e-16 0)
(3 1.67439e-16 0)
(3 -7.79378e-16 0)
(3 -1.48547e-15 0)
(3 -1.70776e-15 0)
(3 -1.91934e-15 0)
(3 -1.77538e-15 0)
(3 -2.38378e-15 0)
(3 -1.93734e-15 0)
(3 -7.52443e-16 0)
(3 -5.44105e-17 0)
(3 1.12613e-15 0)
(3 2.74874e-15 0)
(3 3.26616e-15 0)
(3 2.58749e-15 0)
(3 1.87514e-15 0)
(3 1.29996e-15 0)
(3 1.45939e-16 0)
(3 -4.7649e-16 0)
(3 -1.40272e-15 0)
(3 -1.5635e-15 0)
(3 -1.86713e-15 0)
(3 -1.7983e-15 0)
(3 -1.24431e-15 0)
(3 -1.10919e-15 0)
(3 -6.78839e-16 0)
(3 -7.62918e-16 0)
(3 7.75117e-16 0)
(3 1.62697e-15 0)
(3 -1.24306e-15 0)
(3 -1.20573e-15 0)
(3 -9.17022e-16 0)
(3 -7.99828e-16 0)
(3 -9.37688e-16 0)
(3 -1.00755e-16 0)
(3 -3.06599e-16 0)
(3 -5.78353e-16 0)
(3 -7.49368e-16 0)
(3 -7.02025e-16 0)
(3 -7.30533e-16 0)
(3 -6.71568e-17 0)
(3 6.0372e-16 0)
(3 1.4074e-15 0)
(3 2.82738e-15 0)
(3 3.52775e-15 0)
(3 3.24877e-15 0)
(3 2.21151e-15 0)
(3 2.52389e-15 0)
(3 4.83771e-16 0)
(3 -7.40125e-16 0)
(3 -1.32134e-15 0)
(3 -9.19142e-16 0)
(3 3.27442e-16 0)
(3 5.54708e-16 0)
(3 -8.34934e-16 0)
(3 -5.53944e-16 0)
(3 6.89736e-17 0)
(3 2.37891e-16 0)
(3 -4.44599e-16 0)
(3 -6.80962e-16 0)
(3 -5.846e-16 0)
(3 -1.44854e-16 0)
(3 3.26934e-16 0)
(3 1.09718e-15 0)
(3 1.07295e-15 0)
(3 5.60089e-16 0)
(3 2.44488e-17 0)
(3 -6.64653e-16 0)
(3 -6.2623e-16 0)
(3 -4.76416e-16 0)
(3 -3.9543e-16 0)
(3 -6.34345e-16 0)
(3 -3.10515e-16 0)
(3 -4.11259e-16 0)
(3 3.40787e-16 0)
(3 2.79693e-16 0)
(3 -1.18196e-16 0)
(3 -1.27903e-16 0)
(3 -4.59316e-16 0)
(3 -5.48085e-16 0)
(3 -3.20223e-17 0)
(3 -2.46601e-16 0)
(3 -4.12564e-16 0)
(3 -5.85574e-17 0)
(3 -3.15678e-16 0)
(3 -5.75174e-16 0)
(3 4.75807e-16 0)
(3 -1.3031e-15 0)
(3 -1.13185e-15 0)
(3 -1.49014e-15 0)
(3 -1.65538e-15 0)
(3 -1.26506e-15 0)
(3 -5.81186e-16 0)
(3 -1.68838e-16 0)
(3 1.96713e-16 0)
(3 2.73466e-16 0)
(3 2.2582e-16 0)
(3 -4.51248e-16 0)
(3 -8.13127e-16 0)
(3 -7.31652e-16 0)
(3 -8.14116e-16 0)
(3 -8.53552e-16 0)
(3 -1.22204e-15 0)
(3 -1.52489e-15 0)
(3 -1.35175e-15 0)
(3 -1.50599e-15 0)
(3 -9.74461e-16 0)
(3 -1.68201e-15 0)
(3 -1.05608e-15 0)
(3 -3.12968e-16 0)
(3 4.39494e-17 0)
(3 -4.51218e-16 0)
(3 -6.78437e-16 0)
(3 -8.11894e-16 0)
(3 -3.37772e-16 0)
(3 2.07851e-16 0)
(3 8.38102e-16 0)
(3 5.12097e-16 0)
(3 2.01556e-15 0)
(3 1.96822e-16 0)
(3 2.22031e-16 0)
(3 1.75857e-16 0)
(3 -4.56283e-17 0)
(3 -3.23618e-16 0)
(3 -5.54788e-16 0)
(3 -2.99825e-16 0)
(3 -2.98055e-18 0)
(3 8.06871e-17 0)
(3 -1.66784e-16 0)
(3 -2.19402e-16 0)
(3 -1.40568e-16 0)
(3 1.22916e-16 0)
(3 3.67519e-16 0)
(3 4.8603e-16 0)
(3 3.97912e-16 0)
(3 1.51716e-16 0)
(3 4.08388e-17 0)
(3 -8.2182e-17 0)
(3 1.71082e-16 0)
(3 5.4404e-16 0)
(3 4.57981e-16 0)
(3 -3.77699e-17 0)
(3 -2.85149e-16 0)
(3 -7.73138e-16 0)
(3 -5.10814e-16 0)
(3 -8.05209e-16 0)
(3 -1.41909e-15 0)
(3 -1.27642e-15 0)
(3 -4.20392e-16 0)
(3 1.00059e-15 0)
(3 1.10003e-15 0)
(3 8.63752e-16 0)
(3 6.22752e-16 0)
(3 4.83021e-16 0)
(3 6.39221e-17 0)
(3 -3.54104e-17 0)
(3 -4.07602e-17 0)
(3 2.81913e-18 0)
(3 1.18104e-16 0)
(3 2.17971e-16 0)
(3 1.28972e-16 0)
(3 -2.57618e-17 0)
(3 2.28612e-17 0)
(3 -3.39628e-18 0)
(3 4.79448e-17 0)
(3 -6.61975e-17 0)
(3 -3.62021e-16 0)
(3 1.70367e-16 0)
(3 2.39829e-16 0)
(3 -2.04206e-16 0)
(3 -3.15545e-16 0)
(3 -2.76822e-17 0)
(3 2.57776e-16 0)
(3 4.15918e-16 0)
(3 8.71671e-18 0)
(3 -4.95035e-16 0)
(3 -5.42863e-16 0)
(3 -7.17312e-16 0)
(3 -1.35195e-15 0)
(3 1.51656e-15 0)
(3 1.67973e-15 0)
(3 1.76164e-15 0)
(3 1.78665e-15 0)
(3 1.94943e-15 0)
(3 2.18061e-15 0)
(3 2.35897e-15 0)
(3 2.34764e-15 0)
(3 2.65611e-15 0)
(3 2.84688e-15 0)
(3 1.92108e-15 0)
(3 1.50998e-15 0)
(3 7.97895e-16 0)
(3 -6.65931e-16 0)
(3 -1.13244e-15 0)
(3 -1.61153e-15 0)
(3 -1.44889e-15 0)
(3 -8.66024e-16 0)
(3 -6.86205e-17 0)
(3 -1.92391e-16 0)
(3 -1.06099e-15 0)
(3 -1.30201e-15 0)
(3 -8.52473e-16 0)
(3 -4.38198e-16 0)
(3 4.63825e-16 0)
(3 5.28994e-16 0)
(3 5.451e-16 0)
(3 5.79375e-16 0)
(3 8.50619e-16 0)
(3 8.69493e-17 0)
(3 8.88796e-16 0)
(3 9.60113e-16 0)
(3 1.19342e-15 0)
(3 1.27538e-15 0)
(3 1.36592e-15 0)
(3 1.74167e-15 0)
(3 1.88194e-15 0)
(3 1.75798e-15 0)
(3 1.67684e-15 0)
(3 1.56013e-15 0)
(3 1.09368e-15 0)
(3 8.94053e-16 0)
(3 6.25487e-16 0)
(3 3.95308e-16 0)
(3 1.48654e-16 0)
(3 -3.48599e-17 0)
(3 -2.38385e-16 0)
(3 -2.58175e-16 0)
(3 -3.04038e-16 0)
(3 5.43305e-17 0)
(3 -7.31286e-16 0)
(3 -1.1113e-15 0)
(3 -9.2534e-16 0)
(3 -7.20197e-16 0)
(3 -2.23605e-16 0)
(3 1.55506e-16 0)
(3 7.38989e-17 0)
(3 -7.91633e-17 0)
(3 -2.8834e-16 0)
(3 -2.81847e-16 0)
(1.91565 -1.22714 0)
(1.99079 -1.48051 0)
(2.27628 -1.29188 0)
(2.41602 -1.24956 0)
(2.50799 -1.08264 0)
(2.57669 -0.89516 0)
(2.65039 -0.691798 0)
(2.74086 -0.483099 0)
(2.84399 -0.277672 0)
(2.93712 -0.10903 0)
(2.98769 -0.0214982 0)
(2.99918 -0.0014894 0)
(2.99998 -3.24375e-05 0)
(3 -3.22785e-07 0)
(3 -2.71176e-09 0)
(3 -1.76502e-11 0)
(3 -8.50361e-14 0)
(3 2.25656e-15 0)
(3 -1.89255e-15 0)
(3 2.25255e-15 0)
(3 -8.15592e-16 0)
(3 -2.30008e-16 0)
(3 2.25145e-15 0)
(3 -1.20624e-15 0)
(3 -5.86104e-16 0)
(3 -1.46158e-15 0)
(3 -1.5334e-16 0)
(3 1.02481e-15 0)
(3 1.34833e-15 0)
(3 8.13017e-16 0)
(1.9053 -1.2032 0)
(2.00549 -1.46563 0)
(2.29674 -1.27721 0)
(2.42502 -1.24085 0)
(2.51335 -1.06954 0)
(2.58085 -0.880871 0)
(2.65478 -0.679936 0)
(2.74534 -0.473119 0)
(2.84761 -0.270703 0)
(2.93915 -0.105066 0)
(2.98854 -0.0198304 0)
(2.99934 -0.00119098 0)
(2.99999 -1.89027e-05 0)
(3 -1.21025e-07 0)
(3 -5.3939e-10 0)
(3 -2.03108e-12 0)
(3 -7.33902e-15 0)
(3 2.50914e-15 0)
(3 -6.26387e-16 0)
(3 1.97877e-15 0)
(3 -1.65893e-15 0)
(3 1.39884e-16 0)
(3 2.68711e-15 0)
(3 -1.1679e-15 0)
(3 -4.30709e-16 0)
(3 -8.92917e-16 0)
(3 -4.36986e-16 0)
(3 1.05143e-15 0)
(3 9.26445e-16 0)
(3 6.60623e-16 0)
(1.90359 -1.219 0)
(2.00858 -1.4685 0)
(2.29582 -1.27855 0)
(2.4217 -1.24679 0)
(2.50973 -1.07609 0)
(2.57669 -0.889465 0)
(2.64973 -0.690451 0)
(2.73928 -0.485172 0)
(2.84111 -0.282805 0)
(2.93422 -0.113702 0)
(2.98679 -0.0228295 0)
(2.99916 -0.00150246 0)
(2.99999 -2.63582e-05 0)
(3 -1.82105e-07 0)
(3 -8.53248e-10 0)
(3 -3.34031e-12 0)
(3 -1.32766e-14 0)
(3 2.66579e-15 0)
(3 -1.62619e-16 0)
(3 1.83828e-15 0)
(3 -2.6774e-15 0)
(3 4.11144e-17 0)
(3 3.66188e-15 0)
(3 -1.51661e-15 0)
(3 -4.20466e-16 0)
(3 -4.02195e-16 0)
(3 -4.92911e-16 0)
(3 2.67255e-16 0)
(3 9.14276e-16 0)
(3 1.02249e-15 0)
(1.90929 -1.21551 0)
(2.00957 -1.46891 0)
(2.29555 -1.27873 0)
(2.41982 -1.25042 0)
(2.50764 -1.07987 0)
(2.57426 -0.894456 0)
(2.64677 -0.696554 0)
(2.73571 -0.492191 0)
(2.83727 -0.289946 0)
(2.93126 -0.118935 0)
(2.98569 -0.0247183 0)
(2.99905 -0.00170464 0)
(2.99998 -3.08888e-05 0)
(3 -2.10079e-07 0)
(3 -9.33098e-10 0)
(3 -3.38607e-12 0)
(3 -1.27551e-14 0)
(3 3.20611e-15 0)
(3 6.5475e-16 0)
(3 2.15091e-15 0)
(3 -3.97136e-15 0)
(3 6.69765e-16 0)
(3 3.31327e-15 0)
(3 -3.11718e-15 0)
(3 -6.1468e-16 0)
(3 -4.69494e-17 0)
(3 1.16257e-16 0)
(3 -4.16428e-17 0)
(3 -3.31713e-18 0)
(3 8.79022e-16 0)
(1.90715 -1.22306 0)
(2.01109 -1.46983 0)
(2.29476 -1.27996 0)
(2.41766 -1.25417 0)
(2.50524 -1.08419 0)
(2.57151 -0.900161 0)
(2.64346 -0.703546 0)
(2.73172 -0.500219 0)
(2.83292 -0.298125 0)
(2.9278 -0.12505 0)
(2.98434 -0.0270395 0)
(2.9989 -0.00197783 0)
(2.99998 -3.81938e-05 0)
(3 -2.74269e-07 0)
(3 -1.29779e-09 0)
(3 -5.14432e-12 0)
(3 -1.81481e-14 0)
(3 4.09383e-15 0)
(3 -3.67686e-16 0)
(3 2.10997e-15 0)
(3 -4.90137e-15 0)
(3 9.27555e-16 0)
(3 3.60777e-15 0)
(3 -3.32641e-15 0)
(3 -8.41947e-16 0)
(3 7.96988e-16 0)
(3 3.61902e-16 0)
(3 -4.35349e-16 0)
(3 -2.49635e-16 0)
(3 3.16256e-16 0)
(1.91191 -1.22235 0)
(2.01243 -1.47049 0)
(2.29443 -1.27993 0)
(2.4155 -1.25813 0)
(2.5029 -1.08821 0)
(2.56882 -0.905572 0)
(2.64021 -0.710209 0)
(2.7278 -0.507957 0)
(2.82863 -0.306141 0)
(2.92433 -0.131184 0)
(2.98294 -0.0294553 0)
(2.99873 -0.00227665 0)
(2.99998 -4.63491e-05 0)
(3 -3.38801e-07 0)
(3 -1.57146e-09 0)
(3 -5.90104e-12 0)
(3 -1.89423e-14 0)
(3 3.36079e-15 0)
(3 -1.72766e-16 0)
(3 2.59758e-15 0)
(3 -3.90425e-15 0)
(3 4.38286e-16 0)
(3 3.3944e-15 0)
(3 -3.09225e-15 0)
(3 -8.75401e-16 0)
(3 8.31422e-16 0)
(3 8.37347e-17 0)
(3 -3.58134e-16 0)
(3 -6.34544e-16 0)
(3 -1.15665e-16 0)
(1.91141 -1.22773 0)
(2.01404 -1.47087 0)
(2.29383 -1.28079 0)
(2.4133 -1.26211 0)
(2.50052 -1.09244 0)
(2.56611 -0.911155 0)
(2.63697 -0.717013 0)
(2.72388 -0.515802 0)
(2.8243 -0.314291 0)
(2.92074 -0.137546 0)
(2.98141 -0.0320672 0)
(2.99853 -0.00262146 0)
(2.99997 -5.65375e-05 0)
(3 -4.28214e-07 0)
(3 -2.04431e-09 0)
(3 -8.06054e-12 0)
(3 -2.73743e-14 0)
(3 1.46621e-15 0)
(3 1.35141e-16 0)
(3 3.07944e-15 0)
(3 -3.20724e-15 0)
(3 -8.14739e-16 0)
(3 2.83124e-15 0)
(3 -1.87824e-15 0)
(3 -7.03032e-16 0)
(3 7.9533e-16 0)
(3 -4.104e-17 0)
(3 -2.13042e-16 0)
(3 -9.31254e-16 0)
(3 -1.91283e-16 0)
(1.91507 -1.22857 0)
(2.01574 -1.47128 0)
(2.29339 -1.28129 0)
(2.41115 -1.26612 0)
(2.49819 -1.09652 0)
(2.56344 -0.916573 0)
(2.63378 -0.723679 0)
(2.72002 -0.523576 0)
(2.82 -0.322472 0)
(2.91709 -0.144076 0)
(2.9798 -0.0348595 0)
(2.99831 -0.00301392 0)
(2.99996 -6.89131e-05 0)
(3 -5.38428e-07 0)
(3 -2.57852e-09 0)
(3 -9.95512e-12 0)
(3 -3.23717e-14 0)
(3 5.7245e-16 0)
(3 8.79487e-16 0)
(3 2.53519e-15 0)
(3 -2.43558e-15 0)
(3 -1.58218e-15 0)
(3 2.83782e-15 0)
(3 -1.22031e-15 0)
(3 -6.36214e-16 0)
(3 6.9201e-16 0)
(3 -2.12354e-17 0)
(3 -1.21909e-16 0)
(3 -1.19366e-15 0)
(3 -1.59028e-16 0)
(1.91604 -1.2327 0)
(2.01762 -1.47144 0)
(2.29297 -1.2821 0)
(2.40902 -1.27033 0)
(2.49592 -1.10066 0)
(2.56085 -0.922048 0)
(2.63067 -0.730343 0)
(2.71624 -0.531324 0)
(2.81575 -0.330675 0)
(2.9134 -0.150751 0)
(2.97809 -0.0378282 0)
(2.99806 -0.00345803 0)
(2.99996 -8.39238e-05 0)
(3 -6.78903e-07 0)
(3 -3.30457e-09 0)
(3 -1.30508e-11 0)
(3 -4.38824e-14 0)
(3 4.23653e-17 0)
(3 1.56742e-15 0)
(3 1.61463e-15 0)
(3 -2.34032e-15 0)
(3 -1.46577e-15 0)
(3 2.99397e-15 0)
(3 -6.23235e-16 0)
(3 -6.7642e-16 0)
(3 6.99503e-16 0)
(3 -8.58344e-17 0)
(3 -7.78169e-17 0)
(3 -7.52831e-16 0)
(3 1.40252e-16 0)
(1.91918 -1.23455 0)
(2.01966 -1.47244 0)
(2.29282 -1.28261 0)
(2.40693 -1.27466 0)
(2.4937 -1.1048 0)
(2.5583 -0.927521 0)
(2.62756 -0.737013 0)
(2.71245 -0.53909 0)
(2.81147 -0.338939 0)
(2.90965 -0.157585 0)
(2.97629 -0.0409769 0)
(2.99777 -0.00395837 0)
(2.99995 -0.000102091 0)
(3 -8.56861e-07 0)
(3 -4.22124e-09 0)
(3 -1.66766e-11 0)
(3 -5.33074e-14 0)
(3 -1.93981e-16 0)
(3 9.16397e-16 0)
(3 3.25562e-16 0)
(3 -1.28114e-15 0)
(3 -1.37001e-15 0)
(3 3.09731e-15 0)
(3 -9.92927e-17 0)
(3 -4.62529e-16 0)
(3 3.42287e-16 0)
(3 -1.30715e-16 0)
(3 9.94811e-18 0)
(3 -3.79318e-16 0)
(3 3.93947e-16 0)
(1.92028 -1.23803 0)
(2.02152 -1.47254 0)
(2.29255 -1.28359 0)
(2.40488 -1.27878 0)
(2.49144 -1.10896 0)
(2.55561 -0.933017 0)
(2.62425 -0.743736 0)
(2.70841 -0.546942 0)
(2.80695 -0.347337 0)
(2.90571 -0.164624 0)
(2.97437 -0.0443214 0)
(2.99746 -0.00451948 0)
(2.99993 -0.000123852 0)
(3 -1.07974e-06 0)
(3 -5.40154e-09 0)
(3 -2.15308e-11 0)
(3 -7.24679e-14 0)
(3 -4.53895e-16 0)
(3 6.84585e-16 0)
(3 -8.87736e-16 0)
(3 -5.9499e-16 0)
(3 -1.44958e-15 0)
(3 3.01516e-15 0)
(3 4.2352e-17 0)
(3 -2.92987e-16 0)
(3 -2.03475e-16 0)
(3 3.30401e-16 0)
(3 -2.54756e-17 0)
(3 -2.23762e-16 0)
(3 5.97735e-16 0)
(1.92273 -1.23983 0)
(2.02358 -1.47268 0)
(2.2924 -1.28424 0)
(2.40268 -1.28304 0)
(2.48891 -1.11312 0)
(2.5525 -0.938623 0)
(2.62042 -0.750634 0)
(2.7038 -0.555031 0)
(2.80189 -0.356042 0)
(2.90134 -0.172016 0)
(2.97223 -0.0479345 0)
(2.99709 -0.00515639 0)
(2.99992 -0.000150109 0)
(3 -1.3604e-06 0)
(3 -6.90819e-09 0)
(3 -2.77631e-11 0)
(3 -9.35026e-14 0)
(3 -1.03532e-15 0)
(3 1.58026e-16 0)
(3 -1.07617e-16 0)
(3 -6.36092e-16 0)
(3 -1.09319e-15 0)
(3 2.38537e-15 0)
(3 -3.16613e-16 0)
(3 -1.90397e-16 0)
(3 -1.46582e-16 0)
(3 1.07718e-15 0)
(3 -2.36853e-16 0)
(3 -3.6609e-16 0)
(3 5.96344e-16 0)
(1.92416 -1.24254 0)
(2.02551 -1.47237 0)
(2.29186 -1.28533 0)
(2.40026 -1.28699 0)
(2.48593 -1.1174 0)
(2.54886 -0.944298 0)
(2.616 -0.757684 0)
(2.69857 -0.563367 0)
(2.79619 -0.365123 0)
(2.8964 -0.179894 0)
(2.96974 -0.0519218 0)
(2.99665 -0.00589712 0)
(2.9999 -0.000182462 0)
(3 -1.71768e-06 0)
(3 -8.84298e-09 0)
(3 -3.57819e-11 0)
(3 -1.246e-13 0)
(3 -1.32132e-15 0)
(3 -6.92902e-16 0)
(3 5.77196e-16 0)
(3 -8.49814e-16 0)
(3 -2.92475e-16 0)
(3 1.07283e-15 0)
(3 -7.8801e-16 0)
(3 -1.2149e-16 0)
(3 -5.27683e-16 0)
(3 1.58058e-15 0)
(3 -3.97307e-16 0)
(3 -1.11672e-16 0)
(3 5.78463e-16 0)
(1.92681 -1.2441 0)
(2.02777 -1.47167 0)
(2.29126 -1.28579 0)
(2.39742 -1.29145 0)
(2.48269 -1.12151 0)
(2.54509 -0.950038 0)
(2.6116 -0.764801 0)
(2.69339 -0.571822 0)
(2.79037 -0.37447 0)
(2.89108 -0.188256 0)
(2.9669 -0.0563681 0)
(2.9961 -0.0067805 0)
(2.99988 -0.000223844 0)
(3 -2.19186e-06 0)
(3 -1.14125e-08 0)
(3 -4.63473e-11 0)
(3 -1.57881e-13 0)
(3 -1.68268e-15 0)
(3 -7.05358e-16 0)
(3 7.52751e-16 0)
(3 -1.06669e-15 0)
(3 1.1237e-16 0)
(3 2.69516e-16 0)
(3 -8.69869e-16 0)
(3 3.40697e-16 0)
(3 -8.58405e-16 0)
(3 1.60474e-15 0)
(3 -4.96021e-16 0)
(3 -1.03416e-16 0)
(3 5.96457e-16 0)
(1.92878 -1.24661 0)
(2.0299 -1.47103 0)
(2.29027 -1.2866 0)
(2.39464 -1.29565 0)
(2.47986 -1.12584 0)
(2.5422 -0.955809 0)
(2.60842 -0.771879 0)
(2.68956 -0.58016 0)
(2.78566 -0.383732 0)
(2.88621 -0.196807 0)
(2.96395 -0.0611976 0)
(2.99546 -0.0078259 0)
(2.99985 -0.000277636 0)
(3 -2.84435e-06 0)
(3 -1.49756e-08 0)
(3 -6.08578e-11 0)
(3 -2.09893e-13 0)
(3 -2.10104e-15 0)
(3 -7.26649e-16 0)
(3 1.3527e-15 0)
(3 -1.08527e-15 0)
(3 -3.06375e-16 0)
(3 -2.34707e-17 0)
(3 3.83669e-16 0)
(3 8.72019e-16 0)
(3 -1.17858e-15 0)
(3 4.91978e-16 0)
(3 -6.23714e-16 0)
(3 -1.78018e-16 0)
(3 6.4944e-16 0)
(1.93146 -1.24829 0)
(2.03215 -1.47037 0)
(2.28992 -1.28696 0)
(2.39245 -1.30048 0)
(2.47835 -1.13031 0)
(2.54109 -0.9619 0)
(2.6075 -0.779203 0)
(2.68832 -0.588545 0)
(2.78351 -0.392726 0)
(2.88304 -0.205075 0)
(2.96148 -0.0660973 0)
(2.99482 -0.00898876 0)
(2.99981 -0.000344818 0)
(3 -3.73602e-06 0)
(3 -2.00251e-08 0)
(3 -8.15994e-11 0)
(3 -2.8514e-13 0)
(3 -2.14175e-15 0)
(3 -2.91329e-16 0)
(3 1.62473e-15 0)
(3 -1.24182e-15 0)
(3 -1.15408e-15 0)
(3 6.72452e-16 0)
(3 1.53117e-15 0)
(3 2.96624e-15 0)
(3 -1.30732e-15 0)
(3 -1.30105e-16 0)
(3 -9.39277e-16 0)
(3 -1.92704e-16 0)
(3 5.68493e-16 0)
(1.93328 -1.2505 0)
(2.03422 -1.46945 0)
(2.2905 -1.28843 0)
(2.39144 -1.30553 0)
(2.47844 -1.13563 0)
(2.5422 -0.968836 0)
(2.60945 -0.787236 0)
(2.69052 -0.597226 0)
(2.78487 -0.401402 0)
(2.88269 -0.212579 0)
(2.96013 -0.0705854 0)
(2.9943 -0.0101401 0)
(2.99977 -0.000420072 0)
(3 -4.85677e-06 0)
(3 -2.68189e-08 0)
(3 -1.10594e-10 0)
(3 -3.87654e-13 0)
(3 -2.52263e-15 0)
(3 -2.10857e-16 0)
(3 1.41002e-15 0)
(3 -1.26062e-15 0)
(3 -1.50444e-15 0)
(3 1.23076e-15 0)
(3 1.24563e-15 0)
(3 4.48454e-15 0)
(3 -1.27775e-15 0)
(3 -1.04716e-15 0)
(3 -1.23481e-15 0)
(3 -2.7047e-16 0)
(3 3.4934e-16 0)
(1.93524 -1.25187 0)
(2.03708 -1.46861 0)
(2.29233 -1.29055 0)
(2.39174 -1.31095 0)
(2.48 -1.14048 0)
(2.54468 -0.973896 0)
(2.61257 -0.792275 0)
(2.69422 -0.602518 0)
(2.78874 -0.407097 0)
(2.88489 -0.218027 0)
(2.96026 -0.0740722 0)
(2.99403 -0.0111086 0)
(2.99974 -0.000491792 0)
(3 -6.07371e-06 0)
(3 -3.4894e-08 0)
(3 -1.47227e-10 0)
(3 -5.2897e-13 0)
(3 -2.77644e-15 0)
(3 -2.40215e-16 0)
(3 1.34029e-15 0)
(3 -3.04237e-15 0)
(3 -1.45027e-15 0)
(3 3.03448e-15 0)
(3 5.79592e-16 0)
(3 4.13627e-15 0)
(3 -9.54086e-16 0)
(3 -1.00446e-15 0)
(3 -1.86451e-15 0)
(3 -1.91966e-16 0)
(3 2.80733e-16 0)
(1.93642 -1.25319 0)
(2.03987 -1.46812 0)
(2.29389 -1.29213 0)
(2.3923 -1.31347 0)
(2.48143 -1.14229 0)
(2.54792 -0.976751 0)
(2.61786 -0.795619 0)
(2.69958 -0.605381 0)
(2.79211 -0.409133 0)
(2.88679 -0.21975 0)
(2.96109 -0.0755734 0)
(2.99405 -0.0117361 0)
(2.99973 -0.00054727 0)
(3 -7.16684e-06 0)
(3 -4.29498e-08 0)
(3 -1.86815e-10 0)
(3 -6.82157e-13 0)
(3 -2.10997e-15 0)
(3 -2.29612e-16 0)
(3 9.96541e-16 0)
(3 -3.28131e-15 0)
(3 -1.55498e-15 0)
(3 2.96974e-15 0)
(3 2.61385e-17 0)
(3 3.7974e-15 0)
(3 -8.05176e-16 0)
(3 -7.6187e-16 0)
(3 -1.67675e-15 0)
(3 -3.12341e-16 0)
(3 2.01538e-16 0)
(1.93688 -1.25364 0)
(2.04271 -1.4679 0)
(2.2975 -1.29401 0)
(2.40065 -1.31967 0)
(2.50257 -1.14844 0)
(2.58523 -0.985306 0)
(2.6648 -0.802257 0)
(2.74309 -0.607935 0)
(2.82187 -0.409168 0)
(2.89952 -0.219672 0)
(2.96345 -0.0759426 0)
(2.99421 -0.0119046 0)
(2.99973 -0.000576645 0)
(3 -7.92226e-06 0)
(3 -4.93633e-08 0)
(3 -2.20576e-10 0)
(3 -8.37815e-13 0)
(3 -2.01581e-15 0)
(3 -1.18037e-16 0)
(3 5.6073e-16 0)
(3 -2.13921e-15 0)
(3 -1.90136e-15 0)
(3 2.60704e-15 0)
(3 -2.1692e-16 0)
(3 3.04101e-15 0)