/*--------------------------------*- C++ -*----------------------------------*\
  =========                 |
  \\      /  F ield         | OpenFOAM: The Open Source CFD Toolbox
   \\    /   O peration     | Website:  https://openfoam.org
    \\  /    A nd           | Version:  7
     \\/     M anipulation  |
\*---------------------------------------------------------------------------*/
FoamFile
{
    version     2.0;
    format      ascii;
    class       volScalarField;
    location    "4.5";
    object      p;
}
// * * * * * * * * * * * * * * * * * * * * * * * * * * * * * * * * * * * * * //

dimensions      [1 -1 -2 0 0 0 0];

internalField   nonuniform List<scalar> 
3600
(
0.629064
0.648326
0.672594
0.70026
0.731371
0.765392
0.804249
0.844746
0.890935
0.932757
0.975437
1.0032
1.03189
1.02858
1.00031
0.999421
0.999997
0.983508
0.977235
0.986748
0.623396
0.624395
0.626807
0.631392
0.639248
0.652478
0.672385
0.701245
0.738168
0.787268
0.841972
0.897719
0.961479
0.989407
0.999443
1.00651
1.00298
0.985941
0.980205
0.987893
0.632678
0.63311
0.633816
0.634951
0.636549
0.639016
0.641694
0.644822
0.650455
0.662998
0.686536
0.731161
0.799849
0.898962
0.975501
0.998483
0.99056
0.976182
0.987113
0.989745
0.639903
0.640528
0.641201
0.641911
0.642846
0.644327
0.644665
0.644579
0.643512
0.641792
0.642243
0.645478
0.660114
0.704929
0.789653
0.897818
0.941115
0.968394
1.00826
0.997268
0.641363
0.641422
0.64139
0.640913
0.640291
0.639182
0.637182
0.634719
0.630946
0.626886
0.625217
0.62415
0.624902
0.629829
0.652296
0.70994
0.829048
0.945922
1.00399
0.99133
0.627245
0.625981
0.624616
0.623049
0.620684
0.617343
0.613349
0.607964
0.605619
0.605315
0.60788
0.611048
0.61003
0.608028
0.609068
0.617208
0.661791
0.775544
0.918807
0.951567
0.627849
0.627003
0.625995
0.624757
0.623235
0.621874
0.619956
0.61872
0.618533
0.618508
0.620089
0.621251
0.618485
0.615269
0.617903
0.629056
0.636316
0.658846
0.716017
0.855174
0.745283
0.743723
0.741925
0.739308
0.734426
0.733672
0.731979
0.729952
0.729309
0.723695
0.717461
0.709828
0.698609
0.685121
0.679902
0.672975
0.663341
0.645055
0.631317
0.686086
1.02052
1.01553
1.01112
1.00528
0.996846
0.987146
0.976234
0.962583
0.945755
0.92477
0.900555
0.873117
0.844917
0.815152
0.782019
0.745893
0.708259
0.670361
0.642743
0.651298
1.34593
1.34253
1.33902
1.33513
1.32964
1.32267
1.31397
1.30295
1.28922
1.27145
1.24731
1.21665
1.17715
1.1287
1.07422
1.01483
0.947267
0.878992
0.814805
0.743669
1.37851
1.37849
1.37865
1.37867
1.37807
1.37767
1.37742
1.37673
1.37523
1.37368
1.37134
1.36732
1.36089
1.34903
1.32913
1.30138
1.25839
1.19135
1.106
0.939954
1.22456
1.22669
1.23004
1.23288
1.23612
1.24026
1.24534
1.25113
1.25787
1.26611
1.27516
1.28565
1.29706
1.30763
1.31486
1.31358
1.31129
1.30517
1.28821
1.20429
1.03276
1.0335
1.03454
1.03606
1.03779
1.03992
1.04264
1.04613
1.05063
1.0565
1.06424
1.07454
1.08829
1.10616
1.12958
1.15801
1.18941
1.21904
1.24946
1.23851
1.00095
1.00099
1.00103
1.00109
1.00118
1.00128
1.00142
1.00162
1.00188
1.00227
1.00283
1.00367
1.00501
1.0072
1.01089
1.01728
1.02849
1.04702
1.07588
1.13009
1.00001
1.00001
1.00001
1.00001
1.00001
1.00002
1.00002
1.00002
1.00002
1.00003
1.00004
1.00006
1.00008
1.00013
1.00022
1.00041
1.00086
1.00199
1.00451
1.01939
0.615059
0.62309
0.632172
0.639064
0.64062
0.628621
0.628958
0.747432
1.02703
1.34914
1.37856
1.22242
1.03176
1.00091
1.00001
0.615779
0.623519
0.631633
0.63806
0.639452
0.629917
0.630769
0.751639
1.03605
1.35391
1.37859
1.21885
1.03017
1.00084
1.00001
0.616618
0.623886
0.631034
0.636967
0.638709
0.631559
0.632783
0.756176
1.04589
1.35897
1.3786
1.2147
1.02859
1.00078
1.00001
0.618042
0.624549
0.630568
0.635683
0.638297
0.633414
0.635293
0.762626
1.05776
1.36459
1.37868
1.20971
1.02686
1.00072
1.00001
0.619902
0.625661
0.630305
0.633691
0.638333
0.63539
0.638302
0.770589
1.07117
1.37048
1.37892
1.20363
1.02497
1.00065
1.00001
0.622182
0.627166
0.630342
0.630738
0.638504
0.637587
0.641763
0.779461
1.08639
1.37671
1.37894
1.19659
1.02297
1.00058
1.00001
0.625018
0.628526
0.630547
0.627752
0.638369
0.639848
0.645396
0.790023
1.10409
1.38321
1.3783
1.1885
1.02086
1.00051
1.00001
0.628293
0.629588
0.630282
0.625869
0.638069
0.641586
0.648713
0.802718
1.12438
1.39007
1.37755
1.17933
1.01867
1.00044
1
0.631931
0.630633
0.630278
0.624396
0.637893
0.642342
0.650881
0.817637
1.14768
1.39716
1.37757
1.16901
1.01641
1.00037
1
0.635414
0.632009
0.630561
0.622775
0.637414
0.642163
0.652138
0.836017
1.17442
1.40433
1.37652
1.15731
1.01413
1.00031
1
0.639235
0.633204
0.63023
0.619928
0.634535
0.641783
0.65541
0.859323
1.20497
1.41115
1.36978
1.14432
1.01189
1.00025
1
0.643187
0.634195
0.628174
0.615319
0.627322
0.642889
0.668713
0.888838
1.23851
1.41696
1.36147
1.13038
1.00974
1.00019
1
0.646912
0.634934
0.62575
0.610918
0.618995
0.645621
0.689904
0.922902
1.27484
1.4214
1.35316
1.11562
1.00772
1.00014
1
0.649539
0.636299
0.623825
0.607496
0.611935
0.648573
0.713825
0.961929
1.31269
1.42495
1.34268
1.09984
1.00588
1.0001
1
0.650598
0.637633
0.622006
0.604017
0.606914
0.652723
0.742754
1.0087
1.35138
1.42924
1.32818
1.08311
1.00426
1.00007
1
0.649507
0.638573
0.620963
0.600465
0.604666
0.656739
0.780358
1.06856
1.38976
1.43288
1.30702
1.06582
1.0029
1.00005
1
0.642162
0.639374
0.623271
0.598921
0.604491
0.674059
0.828856
1.14221
1.42516
1.43456
1.27704
1.04895
1.00184
1.00003
1
0.636813
0.6351
0.627935
0.602497
0.609174
0.706845
0.890359
1.22719
1.45405
1.4361
1.23749
1.03349
1.00107
1.00001
1
0.622411
0.63058
0.631446
0.613951
0.622286
0.746269
0.97566
1.3196
1.47279
1.43137
1.19051
1.02064
1.00056
1.00001
1
0.609931
0.619161
0.627282
0.623701
0.638322
0.812549
1.10541
1.40552
1.48236
1.4015
1.13931
1.01117
1.00025
1
1
1
1
1
1
1.00005
1.00311
1.07113
1.33426
1.51677
1.51836
1.50892
1.51723
1.53425
1.54063
1.45696
1
1
1
1
1.00006
1.00358
1.0773
1.34251
1.51881
1.51877
1.509
1.51733
1.5334
1.52345
1.32695
1
1
1
1
1.00007
1.00423
1.08481
1.3528
1.52147
1.51991
1.50944
1.51741
1.53202
1.49195
1.18836
1
1
1
1
1.00009
1.00509
1.09449
1.36762
1.52563
1.52227
1.51147
1.51701
1.5288
1.44194
1.0571
1
1
1
1
1.00011
1.00619
1.10592
1.38125
1.52756
1.524
1.51327
1.51585
1.52113
1.37772
0.929628
1
1
1
1
1.00014
1.00772
1.11934
1.39262
1.52846
1.52513
1.51353
1.51624
1.5027
1.29584
0.817901
1
1
1
1
1.00019
1.00976
1.13526
1.4066
1.5299
1.52524
1.51348
1.51532
1.47066
1.20587
0.711084
1
1
1
1
1.00027
1.01265
1.15501
1.42239
1.53126
1.52442
1.51245
1.51063
1.41918
1.10523
0.62587
1
1
1
1
1.00038
1.0166
1.17772
1.43757
1.53268
1.52506
1.50995
1.49686
1.34598
1.00574
0.546963
1
1
1
1.00001
1.00057
1.02228
1.20406
1.45232
1.53495
1.52468
1.50466
1.46659
1.24873
0.908114
0.497526
1
1
1
1.00001
1.00087
1.03005
1.23305
1.46651
1.53716
1.52248
1.49519
1.41416
1.13441
0.818844
0.454056
1
1
1
1.00002
1.00139
1.04104
1.26557
1.47906
1.53742
1.52167
1.4764
1.33116
1.00996
0.744289
0.446627
1
1
1
1.00003
1.00223
1.05589
1.29951
1.48932
1.53736
1.51954
1.44126
1.2233
0.888099
0.682617
0.456245
1
1
1
1.00006
1.00372
1.07625
1.33509
1.50097
1.53787
1.51254
1.37975
1.09356
0.77227
0.637816
0.489555
1
1
1
1.00012
1.00634
1.10327
1.37139
1.50609
1.53632
1.49131
1.2841
0.960862
0.676457
0.614985
0.541546
1
1
1
1.00023
1.01084
1.13985
1.40577
1.50493
1.52942
1.44238
1.16328
0.842743
0.60778
0.58312
0.610489
1
1
1.00001
1.00049
1.0192
1.1843
1.43948
1.50101
1.51402
1.35589
1.02069
0.74423
0.580804
0.571736
0.639924
1
1
1.00001
1.00106
1.03255
1.23759
1.46826
1.49882
1.46951
1.22513
0.887674
0.690682
0.584465
0.575838
0.635048
1
1
1.00004
1.00235
1.05626
1.30084
1.48572
1.48989
1.38273
1.0801
0.780801
0.645693
0.587363
0.588608
0.623697
1
1
1.0001
1.00529
1.09264
1.35152
1.485
1.46479
1.25481
0.929637
0.690246
0.633445
0.605366
0.59503
0.60639
1.55232
1.54592
1.53447
1.5182
1.50839
1.51803
1.51467
1.32726
1.06558
1.00271
1.00004
1
1
1
1
1.5516
1.54597
1.53501
1.51979
1.50822
1.51693
1.51364
1.32326
1.06181
1.00252
1.00004
1
1
1
1
1.55121
1.54604
1.53543
1.52139
1.50873
1.51616
1.51095
1.30946
1.05665
1.00218
1.00003
1
1
1
1
1.55071
1.54543
1.53583
1.52378
1.51006
1.51516
1.50709
1.29847
1.05215
1.00193
1.00003
1
1
1
1
1.54997
1.54431
1.5357
1.52629
1.51188
1.51345
1.50237
1.2883
1.0473
1.00166
1.00002
1
1
1
1
1.54863
1.54326
1.53547
1.52907
1.51479
1.51134
1.49658
1.27585
1.04192
1.00139
1.00002
1
1
1
1
1.54679
1.54199
1.53541
1.53172
1.51867
1.50966
1.48949
1.25974
1.03635
1.00113
1.00002
1
1
1
1
1.5444
1.54046
1.53509
1.53353
1.52249
1.5086
1.48092
1.24121
1.03083
1.0009
1.00001
1
1
1
1
1.54079
1.53884
1.53472
1.53444
1.52621
1.50803
1.47087
1.22064
1.02533
1.00069
1.00001
1
1
1
1
1.53575
1.53646
1.53383
1.53521
1.52948
1.50748
1.45916
1.19792
1.0201
1.00051
1.00001
1
1
1
1
1.52954
1.53311
1.53315
1.53687
1.53169
1.50541
1.44512
1.17226
1.0152
1.00035
1
1
1
1
1
1.52268
1.52894
1.53266
1.53847
1.53299
1.50033
1.42501
1.14463
1.011
1.00024
1
1
1
1
1
1.51705
1.5247
1.53132
1.5386
1.53411
1.49535
1.39765
1.11671
1.00748
1.00015
1
1
1
1
1
1.51344
1.52095
1.5296
1.53843
1.53487
1.48912
1.36407
1.08996
1.00478
1.00009
1
1
1
1
1
1.5121
1.5182
1.52853
1.53891
1.53636
1.48254
1.32318
1.06445
1.00278
1.00005
1
1
1
1
1
1.51215
1.51698
1.52803
1.54173
1.54051
1.47829
1.26932
1.04104
1.00142
1.00002
1
1
1
1
1
1.51667
1.51739
1.52635
1.54362
1.54234
1.4675
1.20353
1.02261
1.00064
1.00001
1
1
1
1
1
1.52391
1.52051
1.52108
1.53984
1.54145
1.41481
1.13367
1.01027
1.00024
1
1
1
1
1
1
1.53376
1.52228
1.5152
1.52609
1.52726
1.33367
1.07415
1.00377
1.00007
1
1
1
1
1
1
1.53828
1.52933
1.51366
1.51218
1.48919
1.2341
1.03112
1.00104
1.00002
1
1
1
1
1
1
1
1
1
1
1
1
1
1
1
1
1
1
1
1.00049
1.02866
1
1
1
1
1
1
1
1
1
1
1
1
1.00002
1.00288
1.07581
1
1
1
1
1
1
1
1
1
1
1
1
1.00007
1.00752
1.13098
1
1
1
1
1
1
1
1
1
1
1
1
1.00024
1.01638
1.19049
1
1
1
1
1
1
1
1
1
1
1
1.00001
1.00064
1.02925
1.25633
1
1
1
1
1
1
1
1
1
1
1
1.00002
1.00159
1.04954
1.32414
1
1
1
1
1
1
1
1
1
1
1
1.00005
1.00351
1.07605
1.39805
1
1
1
1
1
1
1
1
1
1
1
1.00014
1.00764
1.11392
1.46949
1
1
1
1
1
1
1
1
1
1
1
1.00037
1.01521
1.16011
1.5446
1
1
1
1
1
1
1
1
1
1
1.00001
1.00099
1.03039
1.21908
1.60994
1
1
1
1
1
1
1
1
1
1
1.00004
1.00253
1.05579
1.28666
1.66898
1
1
1
1
1
1
1
1
1
1
1.00015
1.00676
1.10192
1.35782
1.71524
1
1
1
1
1
1
1
1
1
1.00001
1.00047
1.01651
1.17096
1.435
1.72603
1
1
1
1
1
1
1
1
1
1.00003
1.00165
1.0424
1.27579
1.49043
1.70491
1
1
1
1
1
1
1
1
1
1.00011
1.00562
1.09909
1.41178
1.5256
1.63983
1
1
1
1
1
1
1
1
1.00001
1.00056
1.02101
1.20638
1.52087
1.55634
1.54685
1
1
1
1
1
1
1
1
1.00005
1.00265
1.06306
1.34141
1.56196
1.56136
1.49782
1
1
1
1
1
1
1
1
1.00028
1.01228
1.1522
1.43799
1.56349
1.55441
1.49903
1
1
1
1
1
1
1
1.00003
1.00159
1.04218
1.28099
1.50823
1.56149
1.54474
1.50815
1
1
1
1
1
1
1
1.00019
1.00823
1.12113
1.4037
1.50909
1.54932
1.53545
1.52595
1
1
1
1
1
1
1
1
1
1
1
1
1
1
1
1
1
1
1
1
1
1
1
1
1
1
1
1
1
1
1
1
1
1
1
1
1
1
1
1
1
1
1
1
1
1
1
1
1
1
1
1
1
1
1
1
1
1
1
1
1
1
1
1
1
1
1
1
1
1
1
1
1
1
1
1
1
1
1
1
1
1
1
1
1
1
1
1
1
1
1
1
1
1
1
1
1
1
1
1
1
1
1
1
1
1
1
1
1
1
1
1
1
1
1
1
1
1
1
1
1
1
1
1
1
1
1
1
1
1
1
1
1
1
1
1
1
1
1
1
1
1
1
1
1
1
1
1
1
1
1
1
1
1
1
1
1
1
1
1
1
1
1
1
1
1
1
1
1
1
1
1
1
1
1
1
1
1
1
1
1
1
1
1
1
1
1
1
1
1
1
1
1
1
1
1
1
1
1
1
1
1
1
1
1
1
1
1
1
1
1
1
1
1
1
1
1
1
1
1
1
1
1
1
1
1
1
1
1
1
1
1
1
1
1
1
1
1
1
1
1
1
1
1
1
1
1
1
1
1
1
1
1
1
1
1
1
1
1
1
1
1
1
1
1
1
1
1
1
1
1
1
1
1
1
1
1
1
1
1
1
1
1
1
1
1
1
1
1
1
1
1
1
1
1
1
1
1
1
1
1
1
1
1
1
1
1
1
1
1
1
1
1
1
1
1
1
1
1
1
1
1
1
1
1
1
1
1
1
1
1
1
1
1
1
1
1
1
1
1
1
1
1
1
1
1
1
1
1
1
1
1
1
1
1
1
1
1
1
1
1
1
1
1
1
1
1
1
1
1
1
1
1
1
1
1
1
1
1
1
1
1
1
1
1
1
1
1
1
1
1
1
1
1
1
1
1
1
1
1
1
1
1
1
1
1
1
1
1
1
1
1
1
1
1
1
1
1
1
1
1
1
1
1
1
1
1
1
1
1
1
1
1
1
1
1
1
1
1
1
1
1
1
1
1
1
1
1
1
1
1
1
1
1
1
1
1
1
1
1
1
1
1
1
1
1
1
1
1
1
1
1
1
1
1
1
1
1
1
1
1
1
1
1
1
1
1
1
1
1
1
1
1
1
1
1
1
1
1
1
1
1
1
1
1
1
1
1
1
1
1
1
1
1
1
1
1
1
1
1
1
1
1
1
1
1
1
1
1
1
1
1
1
1
1
1
1
1
1
1
1
1
1
1
1
1
1
1
1
1
1
1
1
1
1
1
1
1
1
1
1
1
1
1
1
1
1
1
1
1
1
1
1
1
1
1
1
1
1
1
1
1
1
1
1
1
1
1
1
1
1
1
1
1
1
1
1
1
1
1
1.02866
1.00049
1
1
1
1
1
1
1
1
1
1
1
1
1
1.07581
1.00288
1.00002
1
1
1
1
1
1
1
1
1
1
1
1
1.13098
1.00752
1.00007
1
1
1
1
1
1
1
1
1
1
1
1
1.19049
1.01638
1.00024
1
1
1
1
1
1
1
1
1
1
1
1
1.25633
1.02925
1.00064
1.00001
1
1
1
1
1
1
1
1
1
1
1
1.32414
1.04954
1.00159
1.00002
1
1
1
1
1
1
1
1
1
1
1
1.39805
1.07605
1.00351
1.00005
1
1
1
1
1
1
1
1
1
1
1
1.46949
1.11392
1.00764
1.00014
1
1
1
1
1
1
1
1
1
1
1
1.5446
1.16011
1.01521
1.00037
1
1
1
1
1
1
1
1
1
1
1
1.60994
1.21908
1.03039
1.00099
1.00001
1
1
1
1
1
1
1
1
1
1
1.66898
1.28666
1.05579
1.00253
1.00004
1
1
1
1
1
1
1
1
1
1
1.71524
1.35782
1.10192
1.00676
1.00015
1
1
1
1
1
1
1
1
1
1
1.72603
1.435
1.17096
1.01651
1.00047
1.00001
1
1
1
1
1
1
1
1
1
1.70491
1.49043
1.27579
1.0424
1.00165
1.00003
1
1
1
1
1
1
1
1
1
1.63983
1.5256
1.41178
1.09909
1.00562
1.00011
1
1
1
1
1
1
1
1
1
1.54685
1.55634
1.52087
1.20638
1.02101
1.00056
1.00001
1
1
1
1
1
1
1
1
1.49782
1.56136
1.56196
1.34141
1.06306
1.00265
1.00005
1
1
1
1
1
1
1
1
1.49903
1.55441
1.56349
1.43799
1.1522
1.01228
1.00028
1
1
1
1
1
1
1
1
1.50815
1.54474
1.56149
1.50823
1.28099
1.04218
1.00159
1.00003
1
1
1
1
1
1
1
1.52595
1.53545
1.54932
1.50909
1.4037
1.12113
1.00823
1.00019
1
1
1
1
1
1
1
1
1
1
1
1.00004
1.00271
1.06558
1.32726
1.51467
1.51803
1.50839
1.5182
1.53447
1.54592
1.55232
1
1
1
1
1.00004
1.00252
1.06181
1.32325
1.51364
1.51693
1.50822
1.51979
1.53501
1.54597
1.5516
1
1
1
1
1.00003
1.00218
1.05665
1.30946
1.51095
1.51616
1.50873
1.52139
1.53543
1.54604
1.55121
1
1
1
1
1.00003
1.00193
1.05215
1.29847
1.50709
1.51516
1.51006
1.52378
1.53583
1.54543
1.55071
1
1
1
1
1.00002
1.00166
1.0473
1.2883
1.50237
1.51345
1.51188
1.52629
1.5357
1.54431
1.54997
1
1
1
1
1.00002
1.00139
1.04192
1.27585
1.49658
1.51134
1.51479
1.52907
1.53547
1.54326
1.54863
1
1
1
1
1.00002
1.00113
1.03635
1.25974
1.48949
1.50966
1.51867
1.53172
1.53541
1.54199
1.54679
1
1
1
1
1.00001
1.0009
1.03083
1.24121
1.48092
1.5086
1.52249
1.53353
1.53509
1.54046
1.5444
1
1
1
1
1.00001
1.00069
1.02533
1.22064
1.47087
1.50803
1.52621
1.53444
1.53472
1.53884
1.54079
1
1
1
1
1.00001
1.00051
1.0201
1.19792
1.45916
1.50748
1.52948
1.53521
1.53383
1.53646
1.53575
1
1
1
1
1
1.00035
1.0152
1.17226
1.44512
1.50541
1.53169
1.53687
1.53315
1.53311
1.52954
1
1
1
1
1
1.00024
1.011
1.14463
1.42501
1.50034
1.53299
1.53847
1.53266
1.52895
1.52268
1
1
1
1
1
1.00015
1.00748
1.11671
1.39765
1.49535
1.53411
1.5386
1.53132
1.5247
1.51705
1
1
1
1
1
1.00009
1.00478
1.08996
1.36407
1.48912
1.53487
1.53843
1.5296
1.52095
1.51344
1
1
1
1
1
1.00005
1.00278
1.06445
1.32318
1.48254
1.53636
1.53891
1.52853
1.5182
1.5121
1
1
1
1
1
1.00002
1.00142
1.04104
1.26932
1.47829
1.54051
1.54173
1.52803
1.51698
1.51215
1
1
1
1
1
1.00001
1.00064
1.02261
1.20353
1.4675
1.54234
1.54362
1.52635
1.51739
1.51667
1
1
1
1
1
1
1.00024
1.01027
1.13367
1.41482
1.54145
1.53984
1.52108
1.52051
1.52391
1
1
1
1
1
1
1.00007
1.00377
1.07415
1.33367
1.52726
1.52609
1.5152
1.52228
1.53376
1
1
1
1
1
1
1.00002
1.00104
1.03112
1.2341
1.48919
1.51218
1.51366
1.52933
1.53828
1.45696
1.54063
1.53425
1.51723
1.50892
1.51836
1.51677
1.33426
1.07113
1.00311
1.00005
1
1
1
1
1.32695
1.52345
1.5334
1.51733
1.509
1.51877
1.51881
1.34251
1.0773
1.00358
1.00006
1
1
1
1
1.18836
1.49195
1.53202
1.51741
1.50944
1.51991
1.52147
1.3528
1.08481
1.00423
1.00007
1
1
1
1
1.0571
1.44194
1.5288
1.51701
1.51147
1.52227
1.52563
1.36762
1.09449
1.00509
1.00009
1
1
1
1
0.929629
1.37772
1.52113
1.51585
1.51327
1.524
1.52756
1.38125
1.10592
1.00619
1.00011
1
1
1
1
0.817901
1.29584
1.5027
1.51624
1.51353
1.52513
1.52846
1.39262
1.11934
1.00772
1.00014
1
1
1
1
0.711085
1.20587
1.47066
1.51532
1.51348
1.52524
1.5299
1.4066
1.13526
1.00976
1.00019
1
1
1
1
0.62587
1.10523
1.41918
1.51063
1.51245
1.52442
1.53126
1.42239
1.15501
1.01265
1.00027
1
1
1
1
0.546963
1.00574
1.34598
1.49686
1.50995
1.52506
1.53268
1.43757
1.17772
1.0166
1.00038
1
1
1
1
0.497527
0.908115
1.24873
1.46659
1.50466
1.52468
1.53495
1.45232
1.20406
1.02228
1.00057
1.00001
1
1
1
0.454056
0.818844
1.13441
1.41416
1.49519
1.52248
1.53716
1.46651
1.23305
1.03005
1.00087
1.00001
1
1
1
0.446628
0.74429
1.00996
1.33116
1.4764
1.52167
1.53742
1.47906
1.26557
1.04104
1.00139
1.00002
1
1
1
0.456245
0.682617
0.888098
1.2233
1.44126
1.51954
1.53736
1.48932
1.29951
1.05589
1.00223
1.00003
1
1
1
0.489555
0.637816
0.772272
1.09356
1.37975
1.51254
1.53787
1.50097
1.33509
1.07625
1.00372
1.00006
1
1
1
0.541547
0.614985
0.676457
0.960865
1.2841
1.49131
1.53632
1.50609
1.37139
1.10327
1.00634
1.00012
1
1
1
0.610488
0.583119
0.607778
0.84274
1.16328
1.44238
1.52942
1.50493
1.40577
1.13985
1.01084
1.00023
1
1
1
0.639925
0.571736
0.580804
0.744235
1.02069
1.35589
1.51402
1.50101
1.43948
1.1843
1.0192
1.00049
1.00001
1
1
0.635049
0.575839
0.584466
0.690682
0.887678
1.22513
1.46951
1.49882
1.46826
1.23759
1.03255
1.00106
1.00001
1
1
0.623698
0.588607
0.587362
0.645687
0.780799
1.0801
1.38273
1.48989
1.48572
1.30084
1.05626
1.00235
1.00004
1
1
0.60639
0.59503
0.605366
0.633447
0.690246
0.929632
1.25481
1.46479
1.485
1.35152
1.09264
1.00529
1.0001
1
1
1.00001
1.00091
1.03176
1.22242
1.37856
1.34914
1.02703
0.747439
0.62895
0.628612
0.640624
0.639063
0.632171
0.623088
0.615058
1.00001
1.00084
1.03017
1.21885
1.37859
1.35391
1.03605
0.751646
0.630762
0.629909
0.639452
0.638057
0.631632
0.623516
0.615776
1.00001
1.00078
1.02859
1.2147
1.3786
1.35897
1.04589
0.756179
0.632776
0.631551
0.638705
0.636962
0.631032
0.623882
0.616613
1.00001
1.00072
1.02686
1.20971
1.37868
1.36459
1.05776
0.762622
0.635286
0.633408
0.638287
0.635678
0.630563
0.624543
0.618035
1.00001
1.00065
1.02497
1.20363
1.37892
1.37048
1.07117
0.770586
0.638296
0.635386
0.638318
0.633688
0.630298
0.625653
0.619893
1.00001
1.00058
1.02297
1.19659
1.37894
1.37671
1.08639
0.779459
0.641758
0.637586
0.638491
0.630735
0.630333
0.627157
0.622174
1.00001
1.00051
1.02086
1.1885
1.3783
1.38321
1.10409
0.790022
0.645396
0.63985
0.638357
0.627745
0.630539
0.628518
0.625011
1
1.00044
1.01867
1.17933
1.37754
1.39007
1.12438
0.802717
0.64872
0.641594
0.638058
0.625859
0.630275
0.629582
0.62829
1
1.00037
1.01641
1.16901
1.37756
1.39716
1.14768
0.817634
0.650895
0.642356
0.637883
0.624385
0.630271
0.630628
0.631931
1
1.00031
1.01413
1.15731
1.37652
1.40433
1.17442
0.836014
0.652159
0.642182
0.637408
0.622767
0.630555
0.632006
0.635414
1
1.00025
1.01189
1.14432
1.36979
1.41115
1.20496
0.859314
0.65542
0.641802
0.634547
0.619929
0.630229
0.633204
0.639237
1
1.00019
1.00974
1.13038
1.36147
1.41696
1.23851
0.888827
0.668693
0.642899
0.627341
0.615327
0.628178
0.634199
0.643191
1
1.00014
1.00772
1.11562
1.35316
1.4214
1.27484
0.922898
0.689886
0.645629
0.619009
0.610923
0.625754
0.634941
0.646916
1
1.0001
1.00588
1.09984
1.34268
1.42495
1.31269
0.961933
0.713815
0.64858
0.611944
0.6075
0.623828
0.636304
0.649542
1
1.00007
1.00426
1.08311
1.32818
1.42924
1.35138
1.0087
0.742746
0.652734
0.606919
0.604022
0.62201
0.637636
0.6506
1
1.00005
1.0029
1.06582
1.30702
1.43288
1.38976
1.06856
0.780351
0.656749
0.604668
0.600468
0.620966
0.638574
0.649507
1
1.00003
1.00184
1.04895
1.27704
1.43456
1.42516
1.14221
0.828855
0.674038
0.60449
0.598922
0.62327
0.639374
0.642161
1
1.00001
1.00107
1.03349
1.23749
1.4361
1.45405
1.22719
0.89037
0.706836
0.609163
0.602489
0.627933
0.635098
0.636809
1
1.00001
1.00056
1.02064
1.19051
1.43137
1.47279
1.3196
0.975665
0.746276
0.622281
0.613948
0.631446
0.63058
0.622408
1
1
1.00025
1.01117
1.13931
1.4015
1.48236
1.40552
1.1054
0.812554
0.63833
0.623705
0.627284
0.619162
0.609932
1.00001
1.00001
1.00001
1.00001
1.00001
1.00002
1.00002
1.00002
1.00002
1.00003
1.00004
1.00006
1.00008
1.00013
1.00022
1.00041
1.00086
1.00199
1.00451
1.01939
1.00095
1.00099
1.00103
1.00109
1.00118
1.00128
1.00142
1.00162
1.00188
1.00227
1.00283
1.00367
1.00501
1.0072
1.01089
1.01728
1.02849
1.04702
1.07588
1.13009
1.03276
1.0335
1.03454
1.03606
1.03779
1.03992
1.04264
1.04613
1.05063
1.0565
1.06424
1.07454
1.08829
1.10616
1.12958
1.15801
1.18941
1.21904
1.24946
1.23851
1.22456
1.22669
1.23004
1.23288
1.23612
1.24026
1.24534
1.25113
1.25787
1.26611
1.27516
1.28565
1.29706
1.30763
1.31486
1.31358
1.31129
1.30517
1.28821
1.20429
1.37851
1.37849
1.37865
1.37867
1.37807
1.37767
1.37742
1.37673
1.37523
1.37368
1.37134
1.36732
1.36089
1.34903
1.32913
1.30138
1.25839
1.19135
1.106
0.939954
1.34593
1.34253
1.33902
1.33513
1.32964
1.32267
1.31397
1.30295
1.28922
1.27145
1.24731
1.21665
1.17715
1.1287
1.07423
1.01483
0.947267
0.878992
0.814805
0.743664
1.02053
1.01554
1.01113
1.00529
0.996848
0.987148
0.976236
0.962582
0.945749
0.924761
0.90055
0.873117
0.844921
0.815154
0.782018
0.745892
0.708258
0.670365
0.642736
0.651283
0.745288
0.743725
0.741928
0.739307
0.734438
0.733696
0.731994
0.729968
0.729317
0.723693
0.717462
0.709829
0.698601
0.685115
0.679903
0.672977
0.66334
0.645058
0.631308
0.686027
0.62784
0.626997
0.62599
0.624752
0.623232
0.621872
0.619953
0.618723
0.618535
0.618512
0.620096
0.621253
0.618478
0.615267
0.617905
0.629056
0.636311
0.658808
0.715963
0.855219
0.627234
0.625972
0.624608
0.623039
0.62067
0.617329
0.613334
0.607952
0.605617
0.605316
0.607892
0.611051
0.610027
0.608026
0.609068
0.617203
0.661739
0.775493
0.918734
0.95159
0.641359
0.641416
0.641383
0.640903
0.640281
0.63917
0.637169
0.634709
0.630936
0.626882
0.625218
0.624152
0.624903
0.629841
0.652286
0.709877
0.828969
0.945883
1.00416
0.991454
0.639903
0.640527
0.641201
0.641912
0.642849
0.644329
0.644664
0.644573
0.643503
0.641789
0.642241
0.645478
0.660121
0.704991
0.789463
0.89781
0.941109
0.968327
1.00816
0.997201
0.632677
0.633109
0.633817
0.634952
0.636553
0.639025
0.641698
0.64482
0.650451
0.662996
0.68654
0.731153
0.799861
0.899113
0.974721
0.998288
0.990506
0.976201
0.987452
0.990308
0.623394
0.624394
0.626807
0.631393
0.639246
0.652477
0.672382
0.701246
0.738164
0.787263
0.841971
0.897722
0.961515
0.989261
0.999035
1.00592
1.00244
0.986209
0.980149
0.988487
0.629063
0.648327
0.672593
0.700264
0.731371
0.765395
0.804247
0.844746
0.890932
0.932754
0.975435
1.0032
1.03189
1.02846
1.00659
0.999699
0.999744
0.983458
0.977961
0.984659
)
;

boundaryField
{
    inlet
    {
        type            fixedValue;
        value           uniform 1;
    }
    outlet
    {
        type            zeroGradient;
    }
    airfoil
    {
        type            zeroGradient;
    }
    top_fore
    {
        type            fixedValue;
        value           uniform 1;
    }
    top_wake
    {
        type            fixedValue;
        value           uniform 1;
    }
    bottom_fore
    {
        type            fixedValue;
        value           uniform 1;
    }
    bottom_wake
    {
        type            fixedValue;
        value           uniform 1;
    }
    defaultFaces
    {
        type            empty;
    }
}


// ************************************************************************* //
