/*--------------------------------*- C++ -*----------------------------------*\
  =========                 |
  \\      /  F ield         | OpenFOAM: The Open Source CFD Toolbox
   \\    /   O peration     | Website:  https://openfoam.org
    \\  /    A nd           | Version:  7
     \\/     M anipulation  |
\*---------------------------------------------------------------------------*/
FoamFile
{
    version     2.0;
    format      ascii;
    class       volScalarField;
    location    "0.4299";
    object      T;
}
// * * * * * * * * * * * * * * * * * * * * * * * * * * * * * * * * * * * * * //

dimensions      [0 0 0 1 0 0 0];

internalField   nonuniform List<scalar> 
324000
(
0.822866
0.932252
1.01713
1.12009
1.15602
1.14999
1.13174
1.1111
1.10668
1.1137
1.11557
1.11708
1.11871
1.12117
1.12201
1.12007
1.11348
1.10748
1.10595
1.10715
1.10882
1.10871
1.10676
1.10303
1.10009
1.10025
1.10156
1.10263
1.1025
1.10071
1.09588
1.08895
1.08206
1.0767
1.07236
1.06774
1.06249
1.0565
1.05049
1.0471
1.04429
1.04172
1.04075
1.04208
1.04807
1.05868
1.06017
1.05586
1.04264
1.01991
1.01059
1.01662
1.01462
1.00527
0.993582
0.988176
0.987911
0.988637
0.991017
0.994671
0.998024
0.999717
1.00004
1.00004
1.00001
1
1
1
1
1
1
1
1
1
1
1
1
1
1
1
0.559724
0.560466
0.646215
0.854975
1.03775
1.13828
1.16518
1.14713
1.14855
1.15107
1.14588
1.13533
1.13534
1.13836
1.14144
1.14099
1.13755
1.13492
1.13472
1.13458
1.13465
1.13448
1.1334
1.131
1.12958
1.13022
1.13041
1.13018
1.12969
1.12728
1.12217
1.11584
1.11041
1.10672
1.10386
1.10058
1.09661
1.09185
1.08776
1.08518
1.08315
1.08236
1.08311
1.08438
1.08545
1.08568
1.08035
1.06886
1.05175
1.03112
1.02043
1.02293
1.01857
1.00649
0.992947
0.987522
0.98732
0.988119
0.990658
0.994438
0.997878
0.99966
1.00003
1.00003
1.00001
1
1
1
1
1
1
1
1
1
1
1
1
1
1
1
0.558145
0.556476
0.555189
0.554308
0.647388
0.843005
1.02075
1.11617
1.16718
1.15931
1.14893
1.1358
1.13633
1.14041
1.14105
1.14063
1.14079
1.14208
1.14298
1.14246
1.14218
1.14241
1.14174
1.14097
1.14024
1.14119
1.14272
1.14373
1.14325
1.14054
1.13582
1.13049
1.12649
1.12422
1.12266
1.12064
1.11815
1.11586
1.11552
1.11676
1.11732
1.11673
1.11458
1.11165
1.10594
1.09683
1.08421
1.06899
1.05231
1.03546
1.03006
1.02935
1.02199
1.00692
0.99195
0.986812
0.986688
0.987606
0.99033
0.994221
0.997735
0.999603
1.00001
1.00003
1.00001
1
1
1
1
1
1
1
1
1
1
1
1
1
1
1
0.555581
0.554679
0.554275
0.554148
0.55422
0.554412
0.630679
0.851452
1.02277
1.09982
1.13536
1.13533
1.13504
1.13745
1.13521
1.13534
1.13988
1.14471
1.14528
1.14441
1.14253
1.14191
1.14207
1.14217
1.14222
1.14462
1.147
1.1481
1.14694
1.14393
1.1397
1.13472
1.13055
1.1284
1.12747
1.12666
1.127
1.12854
1.13218
1.13533
1.13576
1.13351
1.12742
1.12003
1.10992
1.09525
1.07465
1.05823
1.04671
1.03587
1.0346
1.0329
1.02358
1.00637
0.990703
0.986057
0.986017
0.987111
0.990028
0.994006
0.997591
0.999548
1
1.00002
1.00001
1
1
1
1
1
1
1
1
1
1
1
1
1
1
1
0.554336
0.554125
0.554092
0.554202
0.554532
0.55516
0.555939
0.556368
0.629782
0.844325
1.02957
1.12279
1.1343
1.13716
1.13421
1.13598
1.14094
1.14374
1.14375
1.14286
1.14079
1.14026
1.14064
1.1412
1.14208
1.14419
1.14738
1.14773
1.14606
1.14252
1.13775
1.13277
1.12898
1.12787
1.12797
1.12944
1.13298
1.13734
1.14183
1.14317
1.14188
1.13614
1.12663
1.11688
1.10306
1.07965
1.05484
1.04019
1.03329
1.03143
1.03351
1.03227
1.02253
1.00466
0.98931
0.985284
0.985343
0.986658
0.989741
0.993782
0.997442
0.999495
0.999992
1.00002
1.00001
1
1
1
1
1
1
1
1
1
1
1
1
1
1
1
0.553977
0.554055
0.554377
0.554931
0.555621
0.556383
0.556865
0.557289
0.557599
0.557695
0.652673
0.874139
1.02393
1.10517
1.12667
1.13467
1.14273
1.14507
1.14337
1.14163
1.14016
1.13967
1.13992
1.14037
1.14169
1.14336
1.14426
1.14359
1.14176
1.13802
1.13321
1.12908
1.12784
1.12859
1.13051
1.13352
1.13719
1.14131
1.14351
1.14255
1.13799
1.12848
1.11675
1.10273
1.0859
1.05682
1.02286
1.01234
1.01176
1.01657
1.02434
1.02525
1.01904
1.00229
0.987876
0.984543
0.984738
0.986262
0.989463
0.993542
0.997288
0.999444
0.999983
1.00001
1.00001
1
1
1
1
1
1
1
1
1
1
1
1
1
1
1
0.5543
0.554768
0.555391
0.556036
0.556664
0.557112
0.557423
0.557639
0.557728
0.557775
0.557782
0.56018
0.657314
0.858094
1.02554
1.10166
1.12174
1.13616
1.13635
1.1356
1.13606
1.13615
1.1365
1.13698
1.13825
1.13885
1.13837
1.13758
1.136
1.13321
1.1298
1.12743
1.12789
1.12961
1.13212
1.13481
1.13727
1.13974
1.13888
1.13405
1.12508
1.1128
1.09758
1.08041
1.05846
1.02719
0.994879
0.988331
0.991442
1.00024
1.01387
1.01694
1.01222
0.998081
0.986242
0.983908
0.984231
0.985925
0.989193
0.993292
0.997132
0.999395
0.999974
1.00001
1.00001
1
1
1
1
1
1
1
1
1
1
1
1
1
1
1
0.555199
0.555844
0.556424
0.556936
0.557293
0.557558
0.557699
0.557741
0.557764
0.557771
0.557769
0.557762
0.557766
0.560856
0.680633
0.866602
1.00382
1.09821
1.11252
1.12688
1.13178
1.13156
1.13181
1.13202
1.13241
1.13175
1.13135
1.1314
1.13102
1.12972
1.12753
1.12691
1.12787
1.12966
1.13211
1.1338
1.13507
1.13463
1.1306
1.12188
1.10685
1.0872
1.06828
1.05087
1.03092
1.00496
0.982171
0.974844
0.976256
0.982553
0.995167
1.00143
0.999295
0.991685
0.984553
0.983248
0.983739
0.985634
0.988936
0.993035
0.996978
0.999351
0.999967
1.00001
1.00001
1
1
1
1
1
1
1
1
1
1
1
1
1
1
1
0.556282
0.556816
0.557204
0.557472
0.557644
0.557738
0.557764
0.557753
0.557748
0.557756
0.557763
0.55776
0.557766
0.557779
0.557775
0.562768
0.684465
0.887694
1.03492
1.11012
1.11727
1.12418
1.12718
1.12682
1.12669
1.12575
1.12609
1.12891
1.12938
1.12871
1.12711
1.12665
1.12774
1.12948
1.13157
1.13217
1.13137
1.12739
1.11909
1.10588
1.08664
1.06453
1.04415
1.02716
1.01147
0.992673
0.97754
0.970614
0.969226
0.971215
0.978591
0.988386
0.989562
0.986421
0.982778
0.982438
0.983247
0.985384
0.988678
0.992774
0.996834
0.999314
0.999961
1.00001
1.00001
1
1
1
1
1
1
1
1
1
1
1
1
1
1
1
0.557162
0.557471
0.557636
0.557708
0.557754
0.55775
0.557744
0.55774
0.557747
0.557754
0.557764
0.557784
0.557785
0.557784
0.557788
0.557796
0.557809
0.571144
0.742589
0.944591
1.04531
1.10825
1.11398
1.12003
1.12042
1.12085
1.12415
1.12945
1.13005
1.12829
1.12632
1.1272
1.12895
1.13022
1.13077
1.13061
1.12713
1.11826
1.10461
1.0863
1.06388
1.04284
1.02598
1.0123
0.999031
0.984212
0.974395
0.968865
0.966606
0.96669
0.969537
0.976933
0.981369
0.981329
0.980899
0.9814
0.982781
0.985107
0.988375
0.992508
0.996705
0.999288
0.999957
1.00001
1
1
1
1
1
1
1
1
1
1
1
1
1
1
1
1
0.557621
0.557709
0.557735
0.557719
0.557713
0.557718
0.557747
0.557763
0.557774
0.557787
0.557788
0.557786
0.557785
0.557792
0.557837
0.557896
0.557962
0.558031
0.557987
0.595293
0.789025
0.990151
1.07249
1.11621
1.11783
1.12142
1.12907
1.13388
1.13261
1.12859
1.12766
1.12958
1.13096
1.1307
1.1305
1.12745
1.11874
1.10422
1.08734
1.06655
1.04501
1.02831
1.014
1.00203
0.989663
0.97878
0.97253
0.968115
0.965721
0.965492
0.966846
0.97141
0.976065
0.978171
0.97931
0.98053
0.982253
0.984682
0.987991
0.992256
0.996606
0.999259
0.999954
1
1
1
1
1
1
1
1
1
1
1
1
1
1
1
1
1
0.557702
0.557702
0.557704
0.557718
0.557737
0.55775
0.557767
0.557793
0.557806
0.557802
0.557798
0.557781
0.557816
0.55793
0.558092
0.558219
0.558316
0.558381
0.558349
0.55822
0.557872
0.633214
0.853519
1.04036
1.11383
1.1258
1.13755
1.13791
1.13505
1.13174
1.13206
1.13341
1.13223
1.13063
1.12786
1.12
1.10516
1.08757
1.06962
1.04868
1.0298
1.01622
1.00576
0.995532
0.984696
0.976768
0.971802
0.967687
0.96503
0.964952
0.966033
0.969324
0.973478
0.97624
0.978058
0.979664
0.981581
0.984109
0.987541
0.991998
0.996536
0.999266
0.999954
1
1
1
1
1
1
1
1
1
1
1
1
1
1
1
1
1
0.557713
0.557729
0.557739
0.557746
0.557758
0.557781
0.5578
0.557805
0.557807
0.5578
0.557803
0.557852
0.557979
0.558164
0.558399
0.558586
0.558641
0.55871
0.558724
0.558617
0.558409
0.557882
0.562393
0.706185
0.936253
1.0791
1.14145
1.13589
1.14059
1.13838
1.13727
1.1351
1.13137
1.12717
1.12065
1.10626
1.08685
1.06932
1.05239
1.03353
1.01919
1.00837
0.998465
0.989424
0.981426
0.975808
0.971312
0.967233
0.964564
0.964449
0.965526
0.968468
0.972185
0.975031
0.977057
0.978799
0.980795
0.983433
0.987089
0.991771
0.996444
0.99926
0.999953
1
1
1
1
1
1
1
1
1
1
1
1
1
1
1
1
1
0.55773
0.557736
0.557749
0.557772
0.557791
0.557798
0.557804
0.55781
0.557811
0.55783
0.557892
0.558002
0.558163
0.558378
0.558636
0.558819
0.558827
0.55886
0.558892
0.558856
0.558678
0.558402
0.558054
0.556721
0.598143
0.810782
1.0353
1.11113
1.149
1.14398
1.14222
1.13526
1.12523
1.11807
1.10671
1.08822
1.06935
1.05307
1.03633
1.01966
1.00837
0.999647
0.990824
0.983437
0.978627
0.974503
0.970152
0.966371
0.96417
0.964014
0.965132
0.968076
0.971374
0.973997
0.976005
0.977887
0.980028
0.982787
0.986618
0.991562
0.996472
0.999286
0.999956
1
1
1
1
1
1
1
1
1
1
1
1
1
1
1
1
1
0.557743
0.55776
0.557778
0.557789
0.557795
0.557801
0.557803
0.557814
0.557858
0.557941
0.558039
0.558159
0.558309
0.558515
0.558752
0.558885
0.558876
0.558884
0.558912
0.558887
0.558725
0.558438
0.557844
0.556513
0.553364
0.550432
0.682035
0.959369
1.13741
1.13767
1.13917
1.12823
1.11269
1.10304
1.08572
1.06633
1.05142
1.03995
1.02435
1.00932
0.999836
0.99193
0.983867
0.979273
0.976307
0.972218
0.967976
0.964975
0.96373
0.963676
0.96472
0.967492
0.97044
0.972803
0.974741
0.976737
0.979099
0.982143
0.986208
0.991299
0.996424
0.999306
0.999959
1
1
1
1
1
1
1
1
1
1
1
1
1
1
1
1
1
0.557766
0.557771
0.557779
0.55779
0.557796
0.557803
0.557838
0.557906
0.557971
0.55804
0.558138
0.558237
0.558359
0.558547
0.558784
0.558889
0.558876
0.558876
0.558902
0.558871
0.55874
0.557872
0.5559
0.553306
0.550323
0.548636
0.548518
0.604182
0.868486
1.05164
1.11004
1.10216
1.09931
1.08965
1.06639
1.04852
1.03774
1.02682
1.01234
1.00108
0.994672
0.987479
0.980684
0.977803
0.974156
0.969259
0.965262
0.963394
0.963084
0.963209
0.964091
0.966433
0.969351
0.971699
0.97357
0.975601
0.9781
0.981357
0.985726
0.991242
0.996504
0.999341
0.999962
1
1
1
1
1
1
1
1
1
1
1
1
1
1
1
1
1
0.557772
0.557782
0.557791
0.557815
0.557856
0.557907
0.557966
0.558029
0.558057
0.558093
0.558164
0.55821
0.558274
0.558444
0.558602
0.55859
0.55851
0.558468
0.558381
0.558045
0.557209
0.555248
0.552148
0.549751
0.548139
0.54755
0.547961
0.549136
0.554487
0.754302
0.939077
1.03859
1.06557
1.0586
1.04371
1.03821
1.03128
1.01743
1.00024
0.995807
0.992469
0.98623
0.981072
0.977727
0.971803
0.966006
0.962769
0.962081
0.961917
0.962197
0.963259
0.9651
0.967636
0.97026
0.97265
0.974828
0.97734
0.980716
0.98524
0.991035
0.996542
0.999382
0.999966
1
1
1
1
1
1
1
1
1
1
1
1
1
1
1
1
1
0.557785
0.557812
0.557852
0.557909
0.557985
0.558044
0.558084
0.558146
0.558117
0.558145
0.558223
0.558217
0.558175
0.558111
0.557987
0.557873
0.557614
0.557248
0.556711
0.555535
0.553618
0.551573
0.548947
0.547626
0.547544
0.547515
0.548232
0.551678
0.55696
0.561527
0.611166
0.797985
0.942233
0.998719
1.01674
1.02082
1.01655
1.00555
0.99254
0.994614
0.990515
0.984106
0.981096
0.97625
0.968674
0.962201
0.961021
0.960695
0.960257
0.960565
0.96197
0.963897
0.965894
0.968321
0.970977
0.973654
0.976494
0.980029
0.984928
0.991117
0.99666
0.999431
0.999971
1
1
1
1
1
1
1
1
1
1
1
1
1
1
1
1
1
0.557881
0.557923
0.55797
0.558028
0.558107
0.558145
0.558171
0.558205
0.558222
0.558225
0.558241
0.558213
0.558084
0.557882
0.557568
0.557268
0.556863
0.555955
0.554748
0.55308
0.550771
0.54861
0.547396
0.547279
0.547672
0.549272
0.552381
0.557877
0.564836
0.571518
0.577281
0.58141
0.65571
0.788112
0.914405
0.977216
0.991816
0.989026
0.993626
0.995562
0.988538
0.982308
0.979836
0.973326
0.964522
0.959016
0.959601
0.958755
0.958041
0.95832
0.959746
0.962231
0.964846
0.967017
0.969297
0.972077
0.975347
0.97928
0.984437
0.991012
0.996785
0.99949
0.999976
1
1
1
1
1
1
1
1
1
1
1
1
1
1
1
1
1
0.557985
0.558021
0.558067
0.558133
0.558201
0.558235
0.558254
0.558308
0.558419
0.558419
0.558351
0.558216
0.558006
0.557789
0.557455
0.556938
0.556256
0.554879
0.552758
0.550258
0.54813
0.5474
0.547483
0.547845
0.54951
0.554233
0.560032
0.564075
0.569495
0.575622
0.582111
0.589306
0.596256
0.601001
0.65776
0.775731
0.879892
0.947006
0.987179
0.985812
0.978834
0.978523
0.975969
0.967094
0.959752
0.960142
0.958551
0.955776
0.955523
0.956006
0.957264
0.959724
0.962833
0.965741
0.968362
0.970987
0.97419
0.978504
0.984341
0.991182
0.996966
0.999552
0.999981
1
1
1
1
1
1
1
1
1
1
1
1
1
1
1
1
1
0.558075
0.558136
0.558207
0.558294
0.558319
0.558365
0.558438
0.558439
0.558474
0.558497
0.558445
0.55836
0.55822
0.557989
0.557597
0.556776
0.555052
0.552525
0.549813
0.548146
0.547534
0.547697
0.548906
0.552119
0.55515
0.558503
0.564482
0.570518
0.576296
0.582558
0.589542
0.595899
0.602595
0.610161
0.616664
0.621903
0.65762
0.752241
0.848935
0.906823
0.943847
0.96818
0.966905
0.956981
0.957501
0.959636
0.955891
0.952386
0.953212
0.954583
0.955595
0.957301
0.960226
0.96343
0.966462
0.969683
0.973324
0.977723
0.983894
0.991274
0.997184
0.999621
0.999986
1
1
1
1
1
1
1
1
1
1
1
1
1
1
1
1
1
0.558196
0.558283
0.558349
0.558424
0.558463
0.55846
0.558494
0.558487
0.558406
0.558445
0.558422
0.55837
0.558261
0.557871
0.556649
0.554427
0.551454
0.549306
0.548182
0.548021
0.548879
0.550686
0.552083
0.555681
0.56106
0.564734
0.569058
0.576428
0.582798
0.589522
0.59648
0.602815
0.609446
0.616468
0.623475
0.630686
0.637542
0.644112
0.66559
0.732435
0.839329
0.905053
0.940504
0.945625
0.960823
0.958015
0.949663
0.948897
0.950642
0.952146
0.954124
0.956256
0.958258
0.960959
0.964261
0.967898
0.971982
0.977143
0.984003
0.991568
0.997438
0.999688
0.99999
1
1
1
1
1
1
1
1
1
1
1
1
1
1
1
1
1
0.558427
0.558454
0.558455
0.558466
0.5585
0.558465
0.55844
0.558492
0.558435
0.558412
0.558387
0.558031
0.556967
0.555075
0.552553
0.550406
0.549035
0.548318
0.548919
0.549781
0.550633
0.553872
0.557074
0.559192
0.564609
0.571722
0.577292
0.583245
0.589954
0.596074
0.602176
0.609122
0.615778
0.62193
0.629008
0.636516
0.643944
0.651371
0.65961
0.667127
0.686816
0.751213
0.840478
0.917902
0.955521
0.951753
0.943035
0.944621
0.946844
0.948635
0.950999
0.953861
0.956668
0.959254
0.962506
0.966486
0.970786
0.976243
0.983786
0.991905
0.997735
0.999755
0.999993
1
1
1
1
1
1
1
1
1
1
1
1
1
1
1
1
1
0.558499
0.558457
0.558335
0.558173
0.558074
0.557966
0.557772
0.557804
0.557774
0.557288
0.556237
0.554783
0.552848
0.550978
0.549517
0.548538
0.548766
0.548917
0.54954
0.551953
0.553099
0.555386
0.561577
0.566783
0.571107
0.578058
0.585231
0.590898
0.597461
0.603744
0.609482
0.616016
0.622557
0.629046
0.636204
0.642961
0.65041
0.658178
0.665786
0.673912
0.682595
0.691436
0.713371
0.786882
0.868702
0.915044
0.935298
0.947254
0.943859
0.943924
0.945539
0.948818
0.952841
0.956916
0.960752
0.964682
0.969557
0.976069
0.984037
0.992382
0.998053
0.999817
0.999995
1
1
1
1
1
1
1
1
1
1
1
1
1
1
1
1
1
0.558181
0.557918
0.557712
0.557523
0.557368
0.557264
0.556993
0.556354
0.555513
0.554356
0.552698
0.551131
0.549678
0.548528
0.548283
0.548077
0.548487
0.549461
0.550027
0.553086
0.558462
0.561763
0.566561
0.574531
0.581052
0.586024
0.5922
0.598095
0.603435
0.609382
0.615709
0.621383
0.627989
0.635108
0.641911
0.649455
0.657116
0.665039
0.672822
0.681022
0.68952
0.697891
0.70728
0.71893
0.755154
0.837646
0.913204
0.940438
0.937417
0.937766
0.940075
0.943677
0.948001
0.953009
0.958184
0.962971
0.968178
0.975302
0.984215
0.992983
0.998396
0.999871
0.999997
1
1
1
1
1
1
1
1
1
1
1
1
1
1
1
1
1
0.557684
0.557612
0.557504
0.55733
0.557018
0.556627
0.555965
0.554707
0.553001
0.551366
0.549739
0.54865
0.548167
0.547872
0.548076
0.548132
0.548452
0.551443
0.555701
0.558494
0.564496
0.572307
0.577157
0.582239
0.588202
0.593605
0.598434
0.604344
0.609664
0.615425
0.62224
0.628656
0.63488
0.641975
0.64886
0.656008
0.663696
0.671449
0.679566
0.687753
0.696082
0.705062
0.714427
0.723617
0.733705
0.755152
0.818308
0.884176
0.91953
0.93402
0.939104
0.942242
0.945608
0.949675
0.95497
0.960831
0.967282
0.975362
0.984746
0.993703
0.998738
0.999916
0.999999
1
1
1
1
1
1
1
1
1
1
1
1
1
1
1
1
1
0.557845
0.557803
0.557696
0.557493
0.55692
0.55556
0.553739
0.551862
0.550031
0.548863
0.548199
0.54808
0.548168
0.548265
0.548653
0.55134
0.554988
0.558285
0.563991
0.570132
0.573775
0.579103
0.584591
0.589158
0.594046
0.599472
0.604753
0.610515
0.61683
0.623073
0.628881
0.636158
0.643249
0.649951
0.657388
0.664743
0.672001
0.679475
0.687629
0.695895
0.70426
0.712575
0.72109
0.730633
0.740201
0.751249
0.767943
0.814005
0.881182
0.920997
0.932195
0.936893
0.941816
0.947561
0.952959
0.958501
0.965611
0.974993
0.985463
0.994569
0.999069
0.99995
0.999999
1
1
1
1
1
1
1
1
1
1
1
1
1
1
1
1
1
0.557432
0.556824
0.555832
0.554305
0.552546
0.550942
0.549686
0.548902
0.548346
0.548147
0.548378
0.548764
0.549453
0.552029
0.555275
0.558316
0.563021
0.567491
0.57109
0.57641
0.581155
0.585006
0.590439
0.595486
0.600613
0.606515
0.612629
0.618229
0.624547
0.630937
0.637247
0.643034
0.649488
0.656037
0.663028
0.670425
0.67794
0.685866
0.693585
0.701992
0.711236
0.720355
0.729702
0.739049
0.748186
0.757289
0.768725
0.784813
0.822604
0.875756
0.910568
0.926728
0.935886
0.943152
0.949632
0.956541
0.965333
0.975417
0.986531
0.995528
0.999365
0.999973
1
1
1
1
1
1
1
1
1
1
1
1
1
1
1
1
1
1
0.554462
0.552965
0.551631
0.550554
0.549717
0.54932
0.548905
0.548969
0.549592
0.549953
0.550565
0.55293
0.555366
0.557555
0.561591
0.565218
0.568869
0.573714
0.577877
0.581768
0.587799
0.592669
0.597673
0.603651
0.609336
0.614712
0.620489
0.626235
0.631833
0.637599
0.643981
0.650417
0.656886
0.663799
0.670541
0.677557
0.68529
0.692867
0.700939
0.709079
0.717181
0.726559
0.736569
0.746919
0.7569
0.766696
0.775759
0.78758
0.80517
0.837565
0.882295
0.913507
0.92854
0.937431
0.945096
0.953509
0.964135
0.976032
0.987996
0.996552
0.999608
0.999988
1
1
1
1
1
1
1
1
1
1
1
1
1
1
1
1
1
1
0.550834
0.549812
0.549204
0.549029
0.549006
0.549366
0.549943
0.550317
0.551261
0.553308
0.554731
0.556652
0.560452
0.563323
0.566721
0.571621
0.575773
0.580321
0.586016
0.591083
0.595771
0.601626
0.60651
0.611643
0.616962
0.622082
0.627179
0.632988
0.638524
0.644507
0.650378
0.656874
0.663608
0.670846
0.678216
0.685781
0.693251
0.701401
0.709556
0.718024
0.726563
0.735121
0.743796
0.753604
0.76477
0.775326
0.785318
0.794727
0.80738
0.826514
0.854762
0.889439
0.914875
0.930317
0.94176
0.95303
0.964608
0.977441
0.989816
0.997551
0.999786
0.999995
1
1
1
1
1
1
1
1
1
1
1
1
1
1
1
1
1
1
0.549078
0.548913
0.548795
0.549014
0.549349
0.54962
0.550709
0.551903
0.552883
0.555833
0.559739
0.561986
0.565489
0.571394
0.575651
0.5802
0.585508
0.590248
0.594936
0.599982
0.60436
0.609077
0.614061
0.618668
0.623565
0.628996
0.63445
0.639784
0.646022
0.652261
0.658769
0.66534
0.672093
0.678641
0.6859
0.69333
0.700964
0.708751
0.716958
0.725427
0.734695
0.743865
0.753273
0.762485
0.772153
0.783228
0.794469
0.804737
0.815243
0.829921
0.85269
0.876887
0.900986
0.921162
0.93755
0.951855
0.965488
0.979588
0.991898
0.998435
0.999901
0.999998
1
1
1
1
1
1
1
1
1
1
1
1
1
1
1
1
1
1
0.548575
0.548814
0.548863
0.549078
0.550074
0.551169
0.552566
0.556477
0.560638
0.562882
0.567302
0.573398
0.576953
0.580649
0.585636
0.589698
0.593921
0.598195
0.602275
0.606473
0.611277
0.615299
0.620351
0.625432
0.630802
0.636107
0.642056
0.648141
0.654131
0.660171
0.666493
0.67303
0.679844
0.686993
0.694024
0.70128
0.708909
0.716645
0.724674
0.732998
0.741434
0.750799
0.760802
0.771219
0.781306
0.791635
0.802575
0.813903
0.824608
0.836581
0.853047
0.875541
0.898849
0.920304
0.937992
0.952896
0.967677
0.98251
0.994105
0.999134
0.999962
1
1
1
1
1
1
1
1
1
1
1
1
1
1
1
1
1
1
1
0.550053
0.551386
0.553407
0.555203
0.557281
0.560882
0.564418
0.566876
0.570799
0.575158
0.577855
0.581531
0.585952
0.589119
0.592891
0.597035
0.60074
0.605082
0.609494
0.613948
0.618755
0.624071
0.629004
0.634432
0.639738
0.645448
0.650788
0.656498
0.66223
0.668503
0.674685
0.681042
0.687496
0.694381
0.701596
0.709111
0.716784
0.724942
0.733131
0.741688
0.750575
0.759624
0.76888
0.778739
0.789396
0.800087
0.81117
0.822622
0.834316
0.845925
0.858951
0.876259
0.897718
0.918901
0.937367
0.954113
0.970604
0.985952
0.996204
0.999607
0.999989
1
1
1
1
1
1
1
1
1
1
1
1
1
1
1
1
1
1
1
0.55483
0.556333
0.558664
0.561394
0.563618
0.566515
0.57054
0.573386
0.575901
0.580726
0.584497
0.587038
0.591286
0.596096
0.599686
0.603987
0.608767
0.613216
0.617943
0.622721
0.627405
0.632452
0.63729
0.642358
0.64753
0.652567
0.658261
0.663813
0.669669
0.675568
0.681935
0.688517
0.695507
0.702492
0.70981
0.717295
0.725073
0.733006
0.741553
0.750218
0.759238
0.768464
0.778076
0.787951
0.798182
0.80913
0.820308
0.831753
0.843249
0.855189
0.868238
0.883633
0.901842
0.920764
0.938946
0.957014
0.974805
0.989846
0.997965
0.999866
0.999998
1
1
1
1
1
1
1
1
1
1
1
1
1
1
1
1
1
1
1
0.560088
0.562657
0.564952
0.568664
0.572916
0.575649
0.578633
0.583512
0.587432
0.59015
0.594642
0.599057
0.602254
0.606235
0.610542
0.614459
0.618574
0.622732
0.626916
0.631317
0.6358
0.64013
0.645169
0.649768
0.654981
0.660533
0.665864
0.67185
0.67812
0.684401
0.690776
0.697419
0.704293
0.711484
0.718786
0.726356
0.734124
0.742185
0.750263
0.758856
0.767823
0.777382
0.787167
0.797174
0.807471
0.818103
0.829542
0.841611
0.853545
0.864633
0.875846
0.889488
0.906534
0.925251
0.944051
0.962734
0.980569
0.993791
0.999165
0.999969
1
1
1
1
1
1
1
1
1
1
1
1
1
1
1
1
1
1
1
1
0.570013
0.573503
0.576607
0.579323
0.582946
0.58659
0.589435
0.592561
0.59648
0.599531
0.602504
0.606454
0.610153
0.613239
0.617204
0.621227
0.625034
0.629281
0.633548
0.638076
0.642869
0.647841
0.652822
0.658518
0.663738
0.669245
0.675232
0.681014
0.686838
0.693115
0.699599
0.706145
0.712889
0.719938
0.727275
0.734775
0.742523
0.750629
0.759253
0.767923
0.776806
0.785982
0.795783
0.806147
0.816771
0.827461
0.838393
0.850178
0.862861
0.875734
0.888191
0.900713
0.914444
0.930478
0.949237
0.969223
0.986775
0.997013
0.999767
0.999996
1
1
1
1
1
1
1
1
1
1
1
1
1
1
1
1
1
1
1
1
0.578803
0.58157
0.585068
0.587764
0.590068
0.593565
0.597156
0.599836
0.602994
0.607213
0.610292
0.613475
0.617662
0.621907
0.625578
0.629727
0.634177
0.638525
0.643181
0.647771
0.652489
0.657496
0.662452
0.667374
0.672892
0.678232
0.68366
0.689503
0.695585
0.701506
0.70778
0.714554
0.7216
0.728654
0.735905
0.743639
0.751656
0.75974
0.767999
0.776855
0.7862
0.79581
0.805426
0.81533
0.825922
0.837152
0.848729
0.860406
0.872144
0.884291
0.897322
0.911261
0.926098
0.942295
0.960294
0.978758
0.993012
0.999027
0.999962
1
1
1
1
1
1
1
1
1
1
1
1
1
1
1
1
1
1
1
1
1
0.588813
0.591394
0.59425
0.597852
0.600841
0.603462
0.606917
0.610427
0.613399
0.616808
0.620803
0.624109
0.627563
0.631528
0.635536
0.639407
0.643437
0.647731
0.652004
0.65651
0.661148
0.66571
0.670704
0.675703
0.68064
0.686218
0.692002
0.697763
0.703684
0.710269
0.717003
0.723637
0.730453
0.737911
0.745578
0.753092
0.760834
0.76913
0.777879
0.786653
0.795579
0.805043
0.815097
0.825454
0.835959
0.846752
0.858118
0.87017
0.882677
0.895307
0.908077
0.921403
0.936098
0.95295
0.971397
0.987988
0.997459
0.999824
0.999997
1
1
1
1
1
1
1
1
1
1
1
1
1
1
1
1
1
1
1
1
1
0.59785
0.600762
0.603148
0.605779
0.609217
0.612213
0.614801
0.618199
0.62158
0.624353
0.627809
0.631769
0.635218
0.63872
0.64263
0.646758
0.650952
0.655107
0.659597
0.664259
0.66901
0.674159
0.679251
0.684606
0.690217
0.695841
0.701564
0.707553
0.713844
0.72006
0.72646
0.733359
0.740525
0.747548
0.754793
0.762565
0.770691
0.778859
0.787282
0.796228
0.805564
0.815132
0.824948
0.835253
0.846126
0.857371
0.868826
0.880539
0.892794
0.905873
0.919704
0.934216
0.949807
0.966802
0.983568
0.995352
0.999497
0.999986
1
1
1
1
1
1
1
1
1
1
1
1
1
1
1
1
1
1
1
1
1
1
0.606868
0.609683
0.612782
0.615316
0.617921
0.621291
0.624531
0.62737
0.630898
0.634612
0.637633
0.641281
0.645317
0.649167
0.653114
0.657162
0.661381
0.665883
0.670262
0.674809
0.679633
0.684322
0.689289
0.694424
0.699642
0.705115
0.710828
0.716683
0.722701
0.729099
0.735749
0.742461
0.74944
0.756781
0.764345
0.77202
0.780034
0.788394
0.797013
0.80594
0.815295
0.825068
0.835077
0.84528
0.855906
0.867189
0.879061
0.891265
0.903726
0.916694
0.930597
0.945858
0.962618
0.979679
0.993074
0.998976
0.999957
1
1
1
1
1
1
1
1
1
1
1
1
1
1
1
1
1
1
1
1
1
1
1
0.616321
0.618663
0.621416
0.624639
0.62743
0.630114
0.633388
0.636667
0.639552
0.643029
0.64697
0.65016
0.653712
0.65766
0.661518
0.665595
0.669733
0.673892
0.678462
0.683071
0.687691
0.692694
0.697758
0.702988
0.708485
0.714173
0.720022
0.726066
0.732365
0.738824
0.745549
0.75245
0.759552
0.766861
0.774469
0.782255
0.790268
0.798668
0.807497
0.816593
0.825836
0.835391
0.845499
0.856163
0.86717
0.878394
0.889872
0.901767
0.914407
0.928093
0.942995
0.95922
0.976128
0.990619
0.998237
0.999897
0.999999
1
1
1
1
1
1
1
1
1
1
1
1
1
1
1
1
1
1
1
1
1
1
1
0.625541
0.628379
0.630815
0.633479
0.636728
0.639803
0.642669
0.645972
0.649476
0.652581
0.655947
0.66002
0.663693
0.667391
0.671469
0.675543
0.679782
0.68424
0.688678
0.693304
0.698171
0.703098
0.70819
0.713468
0.71897
0.724647
0.730393
0.736425
0.74277
0.749173
0.755732
0.762674
0.769884
0.777088
0.784508
0.792444
0.800755
0.809138
0.817695
0.826789
0.836459
0.846399
0.856436
0.866765
0.877694
0.889308
0.901419
0.91386
0.926802
0.940737
0.956133
0.972692
0.987925
0.997204
0.999779
0.999996
1
1
1
1
1
1
1
1
1
1
1
1
1
1
1
1
1
1
1
1
1
1
1
1
0.634974
0.637581
0.64065
0.643384
0.646044
0.64917
0.652404
0.655468
0.658759
0.662469
0.665954
0.669261
0.673132
0.67709
0.680988
0.68506
0.689288
0.693651
0.698132
0.702798
0.707641
0.712529
0.717653
0.723089
0.728512
0.734129
0.740151
0.746257
0.75241
0.758976
0.765874
0.772725
0.779727
0.787218
0.795031
0.802871
0.810923
0.819507
0.828545
0.837748
0.847106
0.856879
0.867236
0.878064
0.889171
0.900552
0.912389
0.924969
0.938625
0.953626
0.969795
0.985314
0.995933
0.999572
0.999989
1
1
1
1
1
1
1
1
1
1
1
1
1
1
1
1
1
1
1
1
1
1
1
1
1
0.644857
0.647448
0.650003
0.653111
0.656154
0.658971
0.662124
0.665518
0.668746
0.672006
0.675756
0.679499
0.683103
0.686946
0.690973
0.695165
0.699407
0.703765
0.708427
0.713121
0.717893
0.723032
0.728248
0.733495
0.739154
0.744997
0.750771
0.756906
0.763433
0.769938
0.776546
0.783601
0.790921
0.798245
0.805809
0.813884
0.822302
0.830843
0.839635
0.848914
0.85866
0.868688
0.878966
0.889653
0.900889
0.912689
0.925044
0.938135
0.952334
0.967768
0.983135
0.994623
0.999282
0.999974
1
1
1
1
1
1
1
1
1
1
1
1
1
1
1
1
1
1
1
1
1
1
1
1
1
1
0.654679
0.657545
0.660372
0.662942
0.665928
0.669232
0.67226
0.675392
0.678954
0.682384
0.685736
0.689474
0.693317
0.697189
0.701268
0.705334
0.709642
0.7142
0.718681
0.723422
0.728427
0.733371
0.73858
0.744119
0.749623
0.75531
0.761405
0.767604
0.773863
0.780483
0.78738
0.794317
0.801451
0.809003
0.816854
0.824861
0.833147
0.841863
0.850949
0.860294
0.869941
0.880017
0.890561
0.901516
0.912871
0.92476
0.937462
0.951297
0.966332
0.981501
0.993473
0.998955
0.99995
0.999999
1
1
1
1
1
1
1
1
1
1
1
1
1
1
1
1
1
1
1
1
1
1
1
1
1
1
0.665037
0.667594
0.670483
0.673531
0.676405
0.679312
0.682609
0.685956
0.689116
0.692645
0.696398
0.699922
0.703704
0.707722
0.71171
0.715978
0.720336
0.724734
0.729449
0.734232
0.739072
0.74424
0.749535
0.7549
0.760582
0.766464
0.772415
0.778639
0.785151
0.791756
0.798515
0.805598
0.812947
0.820469
0.828264
0.836433
0.844923
0.853675
0.862746
0.872212
0.882073
0.8923
0.902915
0.913991
0.925631
0.937996
0.951343
0.965798
0.980541
0.992628
0.998653
0.999921
0.999999
1
1
1
1
1
1
1
1
1
1
1
1
1
1
1
1
1
1
1
1
1
1
1
1
1
1
1
0.675519
0.678301
0.681019
0.683853
0.686962
0.690114
0.693215
0.696456
0.699943
0.703334
0.706848
0.710742
0.714567
0.718456
0.722632
0.726829
0.731188
0.735773
0.740383
0.745172
0.750187
0.755288
0.760588
0.766125
0.771774
0.777615
0.78373
0.790008
0.796426
0.803087
0.809986
0.817068
0.824395
0.832039
0.839978
0.848188
0.856709
0.865584
0.874811
0.884386
0.89434
0.904712
0.915534
0.926876
0.938905
0.951876
0.9659
0.980223
0.992169
0.998436
0.999894
0.999998
1
1
1
1
1
1
1
1
1
1
1
1
1
1
1
1
1
1
1
1
1
1
1
1
1
1
1
1
0.686299
0.689
0.69197
0.694821
0.697754
0.700934
0.704112
0.707391
0.710784
0.714392
0.718054
0.721683
0.725584
0.729653
0.733735
0.73802
0.742451
0.746965
0.75167
0.756517
0.7615
0.766695
0.772056
0.777569
0.783306
0.789244
0.795343
0.801644
0.808155
0.814846
0.821749
0.828919
0.836361
0.844067
0.852068
0.860391
0.86904
0.87802
0.887357
0.897079
0.907207
0.91777
0.928845
0.940586
0.95321
0.96679
0.9806
0.992154
0.998353
0.999877
0.999998
1
1
1
1
1
1
1
1
1
1
1
1
1
1
1
1
1
1
1
1
1
1
1
1
1
1
1
1
1
0.697443
0.700143
0.702913
0.705986
0.709031
0.712052
0.715329
0.718716
0.722121
0.725608
0.729281
0.733144
0.737034
0.741026
0.745218
0.749521
0.75395
0.758541
0.763256
0.76813
0.773189
0.778406
0.783802
0.789394
0.795165
0.801127
0.807286
0.813623
0.820144
0.826888
0.833874
0.84111
0.848619
0.856425
0.864536
0.872962
0.881723
0.890842
0.900336
0.910227
0.920553
0.931388
0.942873
0.955192
0.968366
0.981623
0.992577
0.99842
0.999877
0.999997
1
1
1
1
1
1
1
1
1
1
1
1
1
1
1
1
1
1
1
1
1
1
1
1
1
1
1
1
1
1
0.708775
0.711586
0.714519
0.717354
0.720414
0.723679
0.72688
0.730188
0.733694
0.737317
0.740999
0.744773
0.74872
0.752808
0.756998
0.761333
0.76581
0.770413
0.775173
0.780098
0.785189
0.790458
0.795906
0.801538
0.807363
0.813369
0.819549
0.825919
0.832497
0.839304
0.846359
0.853685
0.861297
0.869208
0.877433
0.885992
0.894901
0.904182
0.913858
0.923969
0.934588
0.945841
0.957878
0.970641
0.983259
0.993396
0.998625
0.999893
0.999998
1
1
1
1
1
1
1
1
1
1
1
1
1
1
1
1
1
1
1
1
1
1
1
1
1
1
1
1
1
1
1
0.720549
0.723304
0.726165
0.729233
0.732312
0.735426
0.738739
0.742165
0.745639
0.749223
0.752957
0.756823
0.76079
0.76488
0.769118
0.773489
0.777988
0.782634
0.787435
0.792402
0.797543
0.802859
0.808358
0.814042
0.819903
0.825938
0.832156
0.838573
0.845213
0.852098
0.859247
0.866677
0.874402
0.88244
0.890808
0.899523
0.908608
0.918089
0.928004
0.938428
0.949474
0.961242
0.973566
0.985425
0.994521
0.998925
0.999921
0.999998
1
1
1
1
1
1
1
1
1
1
1
1
1
1
1
1
1
1
1
1
1
1
1
1
1
1
1
1
1
1
1
1
0.732578
0.735408
0.738341
0.741313
0.744425
0.747668
0.750966
0.754363
0.7579
0.761551
0.765305
0.769174
0.77318
0.77732
0.781587
0.785985
0.790521
0.795205
0.800052
0.805067
0.810257
0.815627
0.821176
0.826899
0.832793
0.838864
0.845129
0.851612
0.858336
0.865319
0.872579
0.880133
0.887998
0.896191
0.904731
0.913639
0.922943
0.932685
0.942936
0.953789
0.965277
0.977083
0.987999
0.995819
0.999257
0.999951