/*--------------------------------*- C++ -*----------------------------------*\
  =========                 |
  \\      /  F ield         | OpenFOAM: The Open Source CFD Toolbox
   \\    /   O peration     | Website:  https://openfoam.org
    \\  /    A nd           | Version:  7
     \\/     M anipulation  |
\*---------------------------------------------------------------------------*/
FoamFile
{
    version     2.0;
    format      ascii;
    class       volScalarField;
    location    "9";
    object      T;
}
// * * * * * * * * * * * * * * * * * * * * * * * * * * * * * * * * * * * * * //

dimensions      [0 0 0 1 0 0 0];

internalField   nonuniform List<scalar> 
90000
(
0.66503
0.805616
0.903173
0.935447
0.976434
1.02209
1.03461
1.04899
1.07736
1.10003
1.12237
1.14774
1.17409
1.19992
1.22614
1.25056
1.27197
1.2917
1.30676
1.32004
1.32511
1.32927
1.32756
1.3236
1.31782
1.31118
1.30293
1.29754
1.29201
1.28979
1.28786
1.28724
1.28603
1.28378
1.2796
1.27213
1.26289
1.25288
1.2442
1.23973
1.24047
1.24257
1.2461
1.25099
1.25527
1.25476
1.25131
1.24427
1.23364
1.22332
1.21469
1.20985
1.20644
1.20696
1.20772
1.20726
1.20473
1.1988
1.19017
1.18168
1.17517
1.17146
1.17108
1.17075
1.16916
1.16388
1.15662
1.15095
1.14708
1.14629
1.14691
1.14418
1.13861
1.13375
1.13105
1.13032
1.1289
1.1259
1.12266
1.12142
1.12165
1.12021
1.11799
1.11602
1.11494
1.11474
1.11418
1.11318
1.11277
1.1131
1.11425
1.11558
1.11662
1.11758
1.11893
1.12055
1.12168
1.12257
1.12418
1.12694
0.504785
0.50461
0.504416
0.504214
0.504003
0.503788
0.503556
0.503339
0.50296
0.50434
0.511624
0.527229
0.559099
0.605026
0.669824
0.741954
0.827631
0.910363
0.995031
1.07029
1.1373
1.19103
1.23632
1.27314
1.30087
1.32594
1.34478
1.36266
1.37175
1.38179
1.38256
1.38205
1.37853
1.37377
1.36586
1.36012
1.35607
1.35264
1.34955
1.3498
1.35092
1.34977
1.34854
1.34674
1.34249
1.33365
1.32466
1.31736
1.31104
1.30622
1.30364
1.30185
1.29956
1.29679
1.29275
1.28562
1.27725
1.26916
1.26187
1.25598
1.25143
1.24754
1.24339
1.23744
1.22932
1.22068
1.2132
1.20804
1.20431
1.20126
1.19454
1.18693
1.17927
1.17374
1.16982
1.16598
1.16026
1.15412
1.14942
1.14638
1.14183
1.13774
1.13383
1.13032
1.12757
1.12528
1.12369
1.12214
1.12092
1.12025
1.11945
1.11867
1.11884
1.12046
1.12252
1.12411
1.12506
1.12537
1.12561
1.12786
0.503051
0.502872
0.502678
0.502473
0.502258
0.502033
0.501795
0.501544
0.501286
0.501001
0.500631
0.500222
0.499808
0.499403
0.499022
0.498657
0.498313
0.497977
0.497687
0.497244
0.502102
0.521328
0.571369
0.643199
0.741109
0.839647
0.942711
1.02634
1.10347
1.16344
1.21724
1.26273
1.3025
1.33912
1.36707
1.39431
1.41353
1.42534
1.4338
1.43189
1.4274
1.42078
1.41098
1.39669
1.38104
1.36725
1.35568
1.3558
1.35953
1.36726
1.37422
1.37765
1.3758
1.37015
1.3608
1.34999
1.34015
1.33318
1.32946
1.32892
1.32819
1.32472
1.31782
1.30852
1.29931
1.29297
1.2879
1.28277
1.27657
1.26779
1.25846
1.24994
1.24206
1.23483
1.228
1.21985
1.2119
1.20397
1.19682
1.18961
1.18239
1.17489
1.16737
1.16092
1.15561
1.15078
1.14592
1.14151
1.13853
1.1367
1.13407
1.13078
1.12829
1.12741
1.12803
1.13017
1.13161
1.13158
1.13082
1.13071
0.500327
0.500124
0.499909
0.499687
0.499463
0.499234
0.499003
0.498769
0.498534
0.498297
0.498061
0.497828
0.497599
0.497372
0.497156
0.496935
0.496724
0.496513
0.496304
0.496111
0.495886
0.495627
0.495375
0.495147
0.494947
0.494754
0.494589
0.494347
0.497007
0.514509
0.567525
0.645077
0.755463
0.865094
0.984028
1.0791
1.16504
1.2314
1.29152
1.32959
1.36203
1.3817
1.39122
1.39144
1.38794
1.3903
1.39464
1.39889
1.40165
1.40329
1.40544
1.40531
1.40354
1.3978
1.39308
1.39032
1.38703
1.38607
1.38427
1.38265
1.38056
1.37676
1.3702
1.36369
1.35841
1.35416
1.35112
1.34872
1.34363
1.33588
1.32634
1.31758
1.31072
1.30383
1.29562
1.28653
1.27733
1.26859
1.26002
1.25117
1.2411
1.23006
1.21996
1.21126
1.20296
1.19426
1.18543
1.1776
1.171
1.16513
1.16025
1.15576
1.15156
1.14776
1.14438
1.14187
1.14137
1.14253
1.14234
1.13968
0.497751
0.497607
0.497457
0.497306
0.497156
0.497006
0.496857
0.496708
0.496559
0.496411
0.496264
0.496116
0.495965
0.495819
0.495674
0.495529
0.495385
0.49524
0.4951
0.494958
0.494813
0.49467
0.494533
0.494402
0.494275
0.494149
0.494024
0.493908
0.493761
0.493608
0.493459
0.493323
0.49319
0.493078
0.492918
0.493471
0.522118
0.597963
0.714793
0.860777
0.987133
1.10406
1.19862
1.28397
1.34475
1.39785
1.41873
1.42661
1.42505
1.42221
1.4182
1.41083
1.40254
1.39319
1.3955
1.40093
1.4062
1.41016
1.41103
1.40941
1.40482
1.39946
1.39525
1.3945
1.3955
1.39553
1.39299
1.38859
1.38336
1.37852
1.37429
1.37027
1.36527
1.36011
1.3538
1.34609
1.33892
1.3321
1.32444
1.31454
1.30358
1.29303
1.28309
1.27375
1.26405
1.25321
1.24293
1.23354
1.22439
1.21462
1.20439
1.19521
1.18836
1.18318
1.17804
1.17213
1.16686
1.16246
1.16055
1.15734
0.496004
0.495919
0.495829
0.495737
0.495645
0.495552
0.495459
0.495365
0.495271
0.495178
0.495086
0.494988
0.494887
0.494788
0.494689
0.494588
0.494485
0.494384
0.49428
0.494173
0.494063
0.493951
0.49384
0.49373
0.493626
0.493527
0.49343
0.493333
0.493238
0.493144
0.49305
0.492958
0.492867
0.492775
0.492686
0.492598
0.492489
0.492389
0.492303
0.492241
0.492133
0.504575
0.57131
0.705203
0.896016
1.05545
1.17282
1.25378
1.31084
1.35678
1.37372
1.38364
1.3904
1.39461
1.40227
1.41279
1.42006
1.42208
1.42112
1.41607
1.40897
1.40278
1.40315
1.40541
1.40801
1.41141
1.41007
1.40649
1.40224
1.3985
1.39647
1.39703
1.39582
1.39203
1.38704
1.38298
1.37955
1.37646
1.37153
1.36429
1.35613
1.34898
1.34187
1.33361
1.32387
1.31427
1.30434
1.29478
1.28532
1.27473
1.26362
1.253
1.24351
1.23447
1.22581
1.21808
1.21096
1.20301
1.1961
1.18709
0.494888
0.494839
0.494782
0.494723
0.494659
0.494595
0.494529
0.494462
0.494395
0.49433
0.494261
0.494186
0.494109
0.494031
0.493953
0.493872
0.49379
0.493706
0.493616
0.493523
0.493427
0.493334
0.493245
0.493161
0.49309
0.493023
0.492957
0.492891
0.492826
0.492754
0.49268
0.492607
0.492532
0.492452
0.492374
0.492302
0.49223
0.492159
0.492101
0.492041
0.491978
0.49189
0.491799
0.491715
0.491634
0.491572
0.543254
0.659809
0.838058
1.00083
1.13184
1.23554
1.32333
1.37155
1.3995
1.40525
1.40992
1.41456
1.41295
1.40558
1.40302
1.40367
1.40815
1.41321
1.4142
1.4129
1.41055
1.40755
1.40596
1.40535
1.40621
1.40659
1.40599
1.4038
1.40122
1.40038
1.40015
1.39827
1.3951
1.39086
1.38663
1.38294
1.37955
1.3755
1.36946
1.36249
1.35673
1.34986
1.34148
1.33259
1.32314
1.31396
1.3047
1.29481
1.28537
1.27593
1.26651
1.2574
1.24881
1.23453
0.494091
0.494051
0.494008
0.493962
0.493913
0.493863
0.493811
0.493758
0.493705
0.493648
0.493586
0.493518
0.49345
0.493382
0.493312
0.493243
0.493173
0.4931
0.493024
0.492946
0.492869
0.492802
0.492746
0.4927
0.492665
0.492631
0.492593
0.49255
0.492501
0.492445
0.492383
0.492317
0.492248
0.492179
0.492115
0.492053
0.491987
0.491928
0.491875
0.491818
0.491769
0.491714
0.49165
0.491588
0.491521
0.491503
0.491517
0.491527
0.491519
0.491498
0.529359
0.658247
0.856239
1.04064
1.16861
1.25708
1.31367
1.3628
1.37626
1.38737
1.39656
1.40485
1.41658
1.41636
1.4133
1.40794
1.40515
1.40411
1.40467
1.40761
1.41056
1.40931
1.40663
1.40462
1.40431
1.40555
1.40587
1.40492
1.4022
1.40008
1.39933
1.39909
1.39761
1.39492
1.3926
1.39007
1.38741
1.38573
1.38148
1.37494
1.369
1.36305
1.35755
1.34991
1.34133
1.33365
1.32554
1.31544
1.30698
1.2919
0.493446
0.493408
0.493367
0.493324
0.49328
0.493234
0.493186
0.493138
0.493087
0.493033
0.492975
0.492915
0.492857
0.492799
0.492742
0.492688
0.492636
0.492583
0.49253
0.492477
0.49243
0.492397
0.49238
0.492368
0.492358
0.492344
0.49232
0.492287
0.492245
0.492195
0.492139
0.492078
0.492016
0.491959
0.491905
0.491852
0.4918
0.491754
0.491711
0.491672
0.491638
0.491594
0.491536
0.491471
0.491423
0.491427
0.491472
0.491483
0.49147
0.491453
0.491438
0.491421
0.491378
0.493512
0.554556
0.736847
0.925608
1.08715
1.21645
1.32059
1.37417
1.38827
1.40084
1.40792
1.4072
1.39659
1.39626
1.3984
1.40351
1.40758
1.40711
1.40466
1.40272
1.40301
1.40516
1.40771
1.40683
1.40461
1.40147
1.40136
1.40271
1.40365
1.40319
1.40222
1.40119
1.40223
1.40179
1.3999
1.399
1.39736
1.39507
1.39329
1.38982
1.38755
1.38338
1.37747
1.37212
1.36598
1.35881
1.34592
0.49283
0.492795
0.492759
0.492722
0.492684
0.492646
0.492608
0.492569
0.492528
0.492486
0.492443
0.492402
0.492363
0.492324
0.492291
0.492261
0.492234
0.492206
0.49218
0.492154
0.492134
0.492136
0.492143
0.492142
0.492139
0.492127
0.492106
0.492076
0.492035
0.491992
0.49194
0.491875
0.49182
0.491771
0.491726
0.491684
0.491648
0.491621
0.491601
0.491584
0.491561
0.491521
0.491467
0.491399
0.491365
0.491382
0.491439
0.491437
0.491408
0.491378
0.491364
0.491356
0.491325
0.49128
0.491291
0.491363
0.491376
0.512707
0.663585
0.884549
1.0872
1.20515
1.30361
1.35188
1.37313
1.37765
1.38907
1.39913
1.40522
1.40426
1.40164
1.39665
1.39766
1.4012
1.40575
1.40565
1.40395
1.40024
1.39898
1.40114
1.40474
1.40444
1.40336
1.40247
1.40295
1.4049
1.40632
1.4058
1.40488
1.40541
1.40654
1.40769
1.40717
1.40614
1.40585
1.40433
1.40113
1.39804
1.39545
1.38735
0.492315
0.492292
0.492269
0.492246
0.492223
0.4922
0.492178
0.492155
0.492132
0.49211
0.492089
0.492067
0.492044
0.492022
0.49201
0.492001
0.491989
0.491976
0.49196
0.491951
0.491951
0.491957
0.491974
0.491979
0.491975
0.49196
0.491937
0.491912
0.491876
0.491831
0.49177
0.491702
0.491653
0.491613
0.49158
0.491555
0.491549
0.491552
0.491555
0.491557
0.491547
0.491511
0.491456
0.491384
0.491346
0.491365
0.491393
0.491384
0.491337
0.491291
0.491263
0.491259
0.491258
0.491245
0.491261
0.491339
0.491438
0.491562
0.491684
0.491683
0.510152
0.6556
0.871496
1.07986
1.23978
1.33441
1.37944
1.38621
1.39602
1.39657
1.38899
1.39024
1.39567
1.39958
1.40178
1.40022
1.39514
1.39417
1.3966
1.40136
1.40297
1.40203
1.40083
1.40129
1.40384
1.40626
1.40693
1.40674
1.40663
1.40768
1.40991
1.41178
1.4138
1.41381
1.41406
1.41508
1.41547
1.41385
1.4123
1.4102
0.49203
0.492018
0.492006
0.491992
0.491978
0.491965
0.491952
0.491939
0.491927
0.491919
0.491908
0.491893
0.491875
0.491859
0.491851
0.491844
0.491839
0.491833
0.491822
0.491812
0.491811
0.491814
0.491829
0.491829
0.491816
0.491795
0.491767
0.491731
0.491689
0.49164
0.491578
0.491523
0.491487
0.491462
0.491463
0.491483
0.491516
0.491539
0.491547
0.491553
0.491548
0.491515
0.491454
0.491381
0.491346
0.491347
0.491333
0.491307
0.491258
0.491216
0.491211
0.491216
0.491238
0.491273
0.491315
0.491379
0.491505
0.491814
0.491966
0.491903
0.491805
0.491785
0.491674
0.517847
0.68289
0.954568
1.15887
1.26573
1.3496
1.36236
1.3767
1.38804
1.40127
1.4007
1.398
1.38922
1.38777
1.39097
1.39812
1.40083
1.39927
1.39634
1.39686
1.40022
1.40359
1.4047
1.40509
1.40544
1.40662
1.40916
1.41191
1.4136
1.41496
1.41618
1.4171
1.41797
1.41951
1.42033
1.4199
1.41992
0.491884
0.491876
0.491866
0.491853
0.491839
0.491829
0.491817
0.491803
0.49179
0.49178
0.49177
0.491757
0.491738
0.491721
0.491704
0.491693
0.491688
0.491683
0.491675
0.491659
0.491648
0.491646
0.491639
0.491627
0.491608
0.491582
0.491548
0.491517
0.491487
0.491445
0.491401
0.491365
0.491361
0.491369
0.491402
0.491468
0.491528
0.491539
0.491538
0.491539
0.491528
0.491487
0.491422
0.491381
0.491362
0.49133
0.491289
0.491237
0.491183
0.491183
0.491202
0.491229
0.491289
0.491392
0.491477
0.491519
0.49163
0.491923
0.492026
0.491982
0.491867
0.491753
0.491547
0.491313
0.491015
0.49067
0.553453
0.807167
1.03932
1.21216
1.344
1.38391
1.39721
1.39685
1.38614
1.38004
1.3849
1.39444
1.39865
1.39715
1.3919
1.39221
1.39536
1.39945
1.40167
1.40177
1.40207
1.40327
1.40601
1.40877
1.41086
1.41256
1.41387
1.41623
1.41795
1.41898
1.41986
1.42169
1.42243
1.42333
0.491765
0.491748
0.491735
0.491722
0.491709
0.491696
0.491685
0.491672
0.491652
0.49163
0.491615
0.4916
0.491582
0.491568
0.491555
0.491539
0.491524
0.491509
0.491498
0.491487
0.49147
0.491456
0.491447
0.491436
0.491421
0.491402
0.491379
0.49136
0.491346
0.491327
0.491301
0.49129
0.491294
0.491319
0.491388
0.491506
0.491545
0.491542
0.49154
0.491531
0.491501
0.491447
0.491397
0.491391
0.491378
0.491328
0.491261
0.491174
0.491134
0.491169
0.491255
0.491342
0.491452
0.49159
0.491686
0.491683
0.491728
0.491931
0.49201
0.491967
0.491803
0.491488
0.491162
0.490965
0.490749
0.490576
0.490572
0.490715
0.49103
0.672329
0.953679
1.1634
1.29922
1.34697
1.36687
1.37797
1.39576
1.40224
1.39954
1.38949
1.38778
1.39151
1.39732
1.39974
1.39933
1.39911
1.39962
1.4017
1.40522
1.40765
1.40921
1.41089
1.41272
1.4153
1.41727
1.41839
1.41964
1.421
1.42266
1.42425
0.491627
0.491609
0.491593
0.491572
0.491557
0.491552
0.491544
0.491528
0.491489
0.491457
0.491448
0.491445
0.491437
0.491429
0.491421
0.491405
0.491389
0.491378
0.491369
0.491361
0.491349
0.491341
0.49134
0.491338
0.491331
0.49132
0.491301
0.491286
0.491285
0.49128
0.49127
0.491266
0.491271
0.491317
0.491444
0.491526
0.491544
0.491557
0.491554
0.491526
0.491479
0.491432
0.491406
0.491407
0.491386
0.491309
0.491194
0.491104
0.491106
0.491242
0.491467
0.491602
0.491718
0.491852
0.491852
0.491772
0.491759
0.491805
0.491735
0.49158
0.491373
0.491079
0.490793
0.490665
0.490568
0.490523
0.490643
0.491078
0.491763
0.492107
0.492004
0.590937
0.8478
1.09842
1.29058
1.37102
1.39992
1.39935
1.38957
1.38317
1.38788
1.39636
1.39841
1.39792
1.39697
1.39715
1.3987
1.40146
1.4044
1.40615
1.40749
1.40924
1.41118
1.41333
1.41527
1.41675
1.41817
1.41994
1.42147
1.42362
0.491544
0.491531
0.491516
0.491501
0.491491
0.491477
0.491457
0.491426
0.491379
0.491344
0.491338
0.49134
0.49135
0.491362
0.491365
0.491364
0.491359
0.491353
0.491349
0.491343
0.491334
0.491333
0.491332
0.491319
0.491308
0.491304
0.49129
0.491282
0.491286
0.491288
0.491283
0.491275
0.491281
0.491359
0.49148
0.49151
0.491521
0.49152
0.491508
0.491461
0.491426
0.491411
0.491416
0.491425
0.491405
0.491304
0.491129
0.49108
0.491147
0.491433
0.491716
0.491869
0.491987
0.492
0.491918
0.491781
0.491698
0.491537
0.491305
0.491074
0.490912
0.490753
0.490573
0.490457
0.490459
0.490538
0.490984
0.491697
0.492252
0.492221
0.491916
0.491494
0.490891
0.532695
0.797932
1.08665
1.26527
1.33447
1.36613
1.37829
1.39717
1.40173
1.3967
1.39361
1.39376
1.39546
1.39859
1.4015
1.40293
1.40412
1.40559
1.40738
1.40941
1.4109
1.41248
1.41424
1.41594
1.41758
1.41954
1.42214
0.491339
0.491332
0.491328
0.491326
0.491325
0.491323
0.491311
0.491283
0.491277
0.49128
0.491288
0.491306
0.491343
0.491383
0.491419
0.49145
0.491471
0.491479
0.491478
0.491474
0.491471
0.491462
0.491423
0.491371
0.491356
0.491361
0.49136
0.491345
0.491345
0.491347
0.491339
0.49131
0.491311
0.491344
0.491357
0.491353
0.491328
0.49132
0.491339
0.491346
0.491335
0.491337
0.491363
0.49143
0.491426
0.491307
0.491144
0.491167
0.491345
0.491625
0.491821
0.49204
0.492079
0.492039
0.491913
0.491695
0.491418
0.491108
0.490824
0.490677
0.490635
0.490606
0.490486
0.490433
0.490553
0.49098
0.49178
0.492418
0.492452
0.492054
0.491602
0.491237
0.490812
0.491497
0.492506
0.521764
0.743038
1.0317
1.26078
1.35747
1.39044
1.39319
1.39047
1.3869
1.39036
1.39385
1.3964
1.39841
1.399
1.40035
1.40234
1.40416
1.40601
1.40711
1.4085
1.41035
1.41219
1.4138
1.41547
1.4181
0.491275
0.491269
0.491269
0.491271
0.491284
0.491302
0.491302
0.4913
0.491307
0.491337
0.491388
0.491457
0.49154
0.491604
0.491644
0.491672
0.491673
0.49167
0.491657
0.491641
0.491621
0.491565
0.491451
0.491397
0.491397
0.491415
0.491424
0.491412
0.491391
0.4914
0.491405
0.491376
0.491253
0.491092
0.491062
0.491088
0.491124
0.49114
0.491202
0.491277
0.491268
0.491249
0.491279
0.491385
0.4914
0.491304
0.491275
0.491342
0.491543
0.491687
0.49182
0.491989
0.491996
0.491937
0.491715
0.491368
0.491046
0.490667
0.490464
0.490469
0.490537
0.490578
0.490589
0.490753
0.491255
0.492077
0.492734
0.492791
0.492565
0.491653
0.491423
0.49112
0.492453
0.494324
0.495808
0.496098
0.496313
0.506964
0.736305
1.04629
1.24772
1.31622
1.35616
1.37459
1.38494
1.38422
1.38643
1.38824
1.39029
1.3927
1.3947
1.3964
1.39809
1.39967
1.40128
1.40315
1.40502
1.40689
1.40857
1.41136
0.491382
0.491378
0.491383
0.49141
0.491465
0.491515
0.491531
0.491527
0.49152
0.491531
0.491576
0.491636
0.491695
0.491745
0.491755
0.491753
0.491751
0.491743
0.491722
0.491691
0.491652
0.491554
0.491409
0.491365
0.491367
0.491399
0.491423
0.491409
0.491346
0.491325
0.491306
0.491237
0.491067
0.490872
0.490839
0.490864
0.490924
0.49099
0.491108
0.491212
0.491218
0.491166
0.491176
0.491302
0.491472
0.491498
0.491476
0.491489
0.49158
0.491636
0.491602
0.491514
0.491465
0.491405
0.491259
0.491092
0.490849
0.490478
0.490378
0.49041
0.490533
0.49074
0.491166
0.491812
0.492614
0.493256
0.493282
0.493183
0.492496
0.491527
0.491526
0.493254
0.496463
0.498198
0.497657
0.497808
0.499688
0.501942
0.503771
0.522075
0.73019
1.02183
1.23814
1.31881
1.35346
1.36005
1.36813
1.36859
1.37283
1.37566
1.37832
1.38094
1.38303
1.3852
1.38733
1.3898
1.39197
1.39442
1.39641
1.39944
0.491643
0.49159
0.491549
0.491545
0.491545
0.491557
0.491568
0.491566
0.491558
0.49156
0.491586
0.491666
0.491687
0.491684
0.491679
0.491673
0.491655
0.491629
0.49161
0.491587
0.491521
0.491372
0.491211
0.491156
0.491169
0.491178
0.491171
0.491113
0.490961
0.490899
0.49092
0.490942
0.490878
0.490747
0.490742
0.490769
0.490837
0.490931
0.491129
0.4913
0.491314
0.491319
0.491439
0.491744
0.49186
0.491836
0.491673
0.491542
0.491527
0.491515
0.49137
0.491171
0.491103
0.491064
0.491019
0.49095
0.490765
0.49049
0.490448
0.490545
0.490945
0.491782
0.492691
0.493501
0.494022
0.493877
0.493815
0.493522
0.492791
0.493561
0.496044
0.498128
0.500076
0.501385
0.5021
0.503019
0.504809
0.508027
0.512327
0.513226
0.514025
0.532238
0.754218
1.02743
1.22111
1.28997
1.3261
1.33777
1.34862
1.34794
1.35102
1.35472
1.35828
1.36147
1.36417
1.36714
1.3699
1.37329
1.37588
1.37999
0.491606
0.491562
0.49152
0.491471
0.491395
0.491292
0.491206
0.491148
0.491103
0.491062
0.491031
0.491048
0.491089
0.491094
0.491099
0.491101
0.491077
0.491022
0.490967
0.490905
0.490784
0.490588
0.490436
0.490418
0.490463
0.490548
0.490561
0.490547
0.490517
0.490521
0.49057
0.490688
0.490742
0.49078
0.490818
0.490872
0.490967
0.491266
0.491758
0.491866
0.491838
0.491836
0.491973
0.492085
0.492099
0.492063
0.491791
0.491516
0.491488
0.491494
0.491311
0.491096
0.49107
0.491056
0.491013
0.490911
0.490923
0.491093
0.491435
0.492073
0.49313
0.494453
0.495033
0.4954
0.495217
0.494489
0.494447
0.495164
0.49727
0.500295
0.503391
0.503642
0.503514
0.504658
0.507716
0.510579
0.512545
0.51499
0.51749
0.519534
0.522458
0.523217
0.524337
0.556233
0.775429
1.03954
1.2123
1.26694
1.30181
1.31503
1.3215
1.32155
1.32438
1.32855
1.33294
1.33676
1.3401
1.34379
1.34707
1.35242
0.491117
0.491129
0.491133
0.49112
0.491055
0.490907
0.490753
0.4907
0.490669
0.490609
0.490531
0.490522
0.490561
0.490562
0.490573
0.490632
0.490639
0.490619
0.49056
0.490495
0.4904
0.490265
0.490196
0.490216
0.490305
0.490417
0.490507
0.490569
0.490626
0.490732
0.490936
0.491209
0.491437
0.491618
0.491727
0.491805
0.491953
0.49234
0.492557
0.492546
0.492491
0.492361
0.492218
0.492131
0.492109
0.49208
0.491879
0.491802
0.491852
0.491792
0.491478
0.491306
0.491304
0.491328
0.49136
0.491658
0.49243
0.493621
0.494898
0.495906
0.49674
0.497548
0.497538
0.49747
0.497515
0.497747
0.498779
0.500847
0.503766
0.506593
0.508698
0.509615
0.510224
0.511638
0.514022
0.51683
0.520206
0.52291
0.523982
0.526038
0.528195
0.529624
0.532545
0.535427
0.53652
0.587939
0.815144
1.05315
1.19845
1.24262
1.27829
1.28796
1.29191
1.29279
1.29633
1.30101
1.30525
1.3092
1.31228
1.31841
0.490991
0.490995
0.491039
0.491073
0.491064
0.490964
0.490736
0.490683
0.49068
0.490635
0.490535
0.490524
0.490571
0.490586
0.490577
0.490627
0.490695
0.490696
0.49063
0.490597
0.490672
0.490784
0.490815
0.49088
0.491112
0.491412
0.491547
0.491627
0.491739
0.491911
0.492127
0.492376
0.49264
0.492855
0.492982
0.493094
0.493197
0.493182
0.493108
0.492992
0.492821
0.49252
0.492161
0.491934
0.491859
0.491882
0.492055
0.492246
0.492264
0.492088
0.492043
0.492147
0.492319
0.49282
0.493873
0.495376
0.496936
0.498285
0.499736
0.500661
0.500655
0.500607
0.500999
0.501734
0.503059
0.505334
0.507534
0.509753
0.511678
0.512749
0.51424
0.516333
0.518392
0.520307
0.522223
0.525074
0.527091
0.528627
0.531526
0.532789
0.533678
0.536778
0.540278
0.542797
0.544269
0.545172
0.546433
0.625925
0.852866
1.06395
1.18843
1.22352
1.25512
1.26237
1.26642
1.26715
1.27044
1.27462
1.27749
1.28304
0.491213
0.491275
0.491321
0.491367
0.491483
0.491685
0.491787
0.491791
0.491764
0.491648
0.491582
0.491584
0.491574
0.491534
0.491538
0.491656
0.491883
0.491976
0.492033
0.492192
0.492592
0.492845
0.49286
0.492873
0.492989
0.493142
0.493158
0.493121
0.493125
0.493178
0.493278
0.49344
0.49355
0.493625
0.493714
0.493752
0.493714
0.493507
0.493121
0.492852
0.492658
0.492396
0.492182
0.492089
0.492093
0.492245
0.49263
0.493216
0.493949
0.494942
0.496298
0.497568
0.498817
0.500141
0.501447
0.502949
0.504059
0.50457
0.505236
0.505991
0.505859
0.505826
0.506575
0.508754
0.511878
0.51483
0.51703
0.518618
0.519812
0.520786
0.521944
0.523926
0.526245
0.527928
0.530315
0.534062
0.535174
0.535949
0.537666
0.539504
0.541947
0.545162
0.546842
0.54796
0.549935
0.552162
0.555594
0.557173
0.557855
0.666852
0.892417
1.08248
1.1835
1.21091
1.23877
1.2382
1.24136
1.24259
1.24509
1.25102
0.493609
0.493658
0.49371
0.493797
0.494015
0.494254
0.494277
0.494253
0.494181
0.494015
0.493887
0.493856
0.493817
0.493763
0.493762
0.493812
0.493908
0.493945
0.493972
0.494087
0.494182
0.494193
0.494226
0.494226
0.494191
0.494138
0.494061
0.494015
0.493997
0.493977
0.494004
0.494035
0.493975
0.49394
0.493985
0.494032
0.494031
0.49389
0.493663
0.493727
0.494149
0.494722
0.495265
0.496019
0.49711
0.498598
0.500283
0.501972
0.503668
0.505193
0.506256
0.507199
0.508384
0.509163
0.509266
0.50965
0.510275
0.510499
0.51091
0.511884
0.513331
0.515209
0.517114
0.519583
0.522112
0.524137
0.526335
0.527176
0.527999
0.529186
0.530349
0.532082
0.534738
0.537323
0.538775
0.540358
0.543004
0.543772
0.544105
0.546425
0.549954
0.55235
0.553901
0.555278
0.557311
0.559472
0.561943
0.564169
0.565449
0.566349
0.567356
0.720013
0.940921
1.10526
1.17991
1.19948
1.22105
1.21706
1.21884
1.22279
0.495257
0.495144
0.495104
0.495124
0.495119
0.495042
0.49494
0.494919
0.494924
0.494943
0.494991
0.494992
0.494944
0.494932
0.494898
0.494913
0.494922
0.494838
0.49484
0.494921
0.494881
0.494745
0.494809
0.495006
0.495035
0.495219
0.495485
0.495577
0.495772
0.496186
0.496716
0.497275
0.497919
0.498574
0.499242
0.500022
0.500987
0.502025
0.503136
0.504304
0.505557
0.506883
0.508268
0.509549
0.510708
0.511736
0.512446
0.512888
0.513458
0.514208
0.514422
0.514616
0.515138
0.515401
0.515374
0.515636
0.516753
0.51852
0.52063
0.522838
0.525401
0.528018
0.530167
0.531496
0.532367
0.53302
0.53385
0.534948
0.535976
0.537366
0.539317
0.541333
0.543702
0.546933
0.547584
0.54754
0.548766
0.551264
0.553349
0.555722
0.558062
0.559225
0.560988
0.562492
0.564026
0.566399
0.568093
0.570345
0.572282
0.573931
0.576406
0.577349
0.595769
0.778354
0.984513
1.12459
1.17412
1.18678
1.20269
1.20221
0.498825
0.498977
0.499166
0.499378
0.499597
0.499825
0.500068
0.500348
0.500679
0.501046
0.501444
0.501862
0.502254
0.502621
0.503002
0.503401
0.503818
0.5043
0.504779
0.505251
0.505831
0.506509
0.507212
0.50791
0.508591
0.509218
0.509815
0.510439
0.511041
0.511549
0.512044
0.512565
0.513064
0.513642
0.514282
0.514812
0.515286
0.515819
0.516411
0.516984
0.517558
0.518063
0.518468
0.518732
0.518988
0.519433
0.519542
0.519559
0.519808
0.520816
0.521599
0.522182
0.523146
0.524989
0.527173
0.529154
0.530919
0.532949
0.534902
0.536667
0.537983
0.538668
0.53958
0.539751
0.540051
0.54053
0.541188
0.542782
0.545259
0.547831
0.550294
0.551743
0.55265
0.55431
0.555764
0.556211
0.556913
0.5591
0.562459
0.564621
0.565507
0.566421
0.567572
0.569581
0.571882
0.574939
0.576595
0.577141
0.578453
0.580853
0.583527
0.584798
0.585812
0.587005
0.638987
0.847125
1.0318
1.13554
1.16678
1.18321
0.513679
0.513818
0.513983
0.514172
0.514368
0.514561
0.514766
0.514979
0.515215
0.515468
0.51574
0.516016
0.516263
0.516497
0.516731
0.516993
0.517287
0.517586
0.517859
0.518139
0.518437
0.51874
0.519031
0.519302
0.519558
0.519819
0.520131
0.520445
0.520753
0.521023
0.521275
0.521578
0.521901
0.522433
0.522941
0.523064
0.523226
0.523642
0.52416
0.524686
0.525287
0.526026
0.526617
0.527195
0.527913
0.528878
0.530149
0.531481
0.532871
0.534337
0.536069
0.537935
0.53965
0.54104
0.542357
0.543435
0.543938
0.544422
0.544753
0.54522
0.545637
0.545784
0.546197
0.547299
0.54862
0.550218
0.552271
0.554614
0.556759
0.558638
0.560409
0.560808
0.560745
0.561109
0.562751
0.565443
0.567343
0.569081
0.571147
0.572094
0.573162
0.574468
0.575969
0.578664
0.580558
0.581726
0.583042
0.583969
0.585355
0.587414
0.590637
0.592602
0.592913
0.594692
0.596583
0.597426
0.698915
0.926093
1.07218
1.15556
0.526143
0.526246
0.526364
0.526481
0.526599
0.526734
0.526913
0.527129
0.527389
0.527631
0.527825
0.528061
0.528214
0.528357
0.52855
0.528775
0.529216
0.529551
0.52971
0.529836
0.530034
0.530329
0.530642
0.530918
0.531195
0.53154
0.53198
0.532442
0.53291
0.53347
0.534135
0.534788
0.535385
0.535973
0.536649
0.537516
0.538484
0.539451
0.540433
0.541413
0.542289
0.543099
0.543961
0.544866
0.545698
0.546388
0.546963
0.5476
0.548337
0.548827
0.549128
0.549615
0.550148
0.550501
0.551088
0.551328
0.551272
0.551366
0.551932
0.552692
0.553717
0.555341
0.557375
0.559581
0.561852
0.563868
0.565492
0.566511
0.566705
0.567029
0.56794
0.568767
0.569615
0.570532
0.572525
0.575212
0.577315
0.578854
0.579221
0.579955
0.581135
0.582849
0.584649
0.58666
0.588694
0.588985
0.589756
0.592163
0.595124
0.596182
0.597267
0.599773
0.600637
0.601356
0.60327
0.605712
0.606434
0.627116
0.769389
1.06209
0.54141
0.541529
0.541675
0.541804
0.54192
0.542124
0.542439
0.542737
0.542976
0.543228
0.543496
0.543732
0.54393
0.544142
0.544385
0.544645
0.544944
0.54524
0.545513
0.545844
0.546178
0.54653
0.546911
0.547282
0.54769
0.54814
0.548525
0.548835
0.54916
0.549503
0.549845
0.550241
0.550508
0.550698
0.550913
0.55117
0.551473
0.551813
0.552174
0.552525
0.55283
0.553141
0.553527
0.553984
0.554467
0.554807
0.555091
0.555641
0.556373
0.556426
0.556442
0.556848
0.557756
0.558602
0.559385
0.560518
0.56217
0.563958
0.565781
0.567714
0.569502
0.570828
0.571822
0.572639
0.573252
0.573998
0.574824
0.575082
0.574853
0.575042
0.575928
0.578318
0.580873
0.582922
0.584424
0.585349
0.586381
0.586762
0.587464
0.588712
0.590255
0.592466
0.594616
0.595258
0.59653
0.598236
0.599142
0.60006
0.60203
0.60438
0.604707
0.605636
0.60807
0.609807
0.611211
0.612864
0.614373
0.615362
0.61603
0.80017
0.555081
0.555112
0.555186
0.555344
0.555568
0.555799
0.555995
0.556065
0.556074
0.556085
0.556212
0.556487
0.556686
0.556805
0.556896
0.557005
0.557144
0.557299
0.557519
0.557763
0.557991
0.558219
0.558449
0.558638
0.558993
0.55932
0.559487
0.559664
0.559904
0.560223
0.560583
0.561146
0.561964
0.562154
0.562167
0.562312
0.56274
0.563324
0.563874
0.564373
0.56481
0.565164
0.565588
0.566114
0.566801
0.567716
0.568755
0.569794
0.570836
0.572014
0.573327
0.574426
0.57538
0.576358
0.577159
0.577806
0.578468
0.579114
0.579666
0.580334
0.581111
0.581217
0.581144
0.581131
0.581104
0.581373
0.5825
0.584057
0.585835
0.587356
0.589027
0.59091
0.592597
0.59393
0.594142
0.594416
0.594804
0.595678
0.597201
0.599173
0.600994
0.60232
0.603981
0.604244
0.604383
0.605586
0.607756
0.609453
0.61062
0.612813
0.614172
0.614397
0.615524
0.617655
0.618948
0.620216
0.621526
0.622707
0.624097
0.625733
0.570519
0.570605
0.570702
0.570821
0.570974
0.57113
0.571263
0.571395
0.571512
0.571606
0.571729
0.571921
0.572137
0.572328
0.572496
0.572666
0.572841
0.573016
0.573202
0.5734
0.573589
0.573787
0.574082
0.57436
0.574571
0.574848
0.575229
0.575619
0.575928
0.576228
0.57674
0.577261
0.577572
0.577912
0.578361
0.578822
0.579206
0.579573
0.580001
0.580492
0.581076
0.581655
0.582171
0.582595
0.583034
0.583538
0.583997
0.58426
0.584424
0.584592
0.585005
0.585436
0.585795
0.586362
0.586671
0.586853
0.587219
0.587301
0.587267
0.587485
0.588221
0.589268
0.590337
0.591652
0.593258
0.595076
0.596802
0.598428
0.600019
0.601371
0.602344
0.60228
0.602532
0.602818
0.603185
0.60384
0.605091
0.606854
0.608574
0.610107
0.611452
0.61151
0.61189
0.613166
0.614362
0.615426
0.617348
0.619598
0.620213
0.620473
0.621596
0.62282
0.623796
0.625442
0.626865
0.62803
0.629495
0.630837
0.631836
0.633711
0.585677
0.585743
0.585839
0.585951
0.58606
0.586158
0.586245
0.58634
0.586489
0.586619
0.586714
0.586929
0.587076
0.587179
0.587335
0.587533
0.587718
0.587903
0.58815
0.588359
0.588532
0.588842
0.589004
0.58912
0.589301
0.589568
0.589847
0.590002
0.590131
0.590458
0.590695
0.590614
0.590603
0.590771
0.591234
0.591585
0.591682
0.591784
0.592017
0.592337
0.59269
0.593252
0.593714
0.593937
0.594152
0.594526
0.595109
0.595666
0.596023
0.59635
0.596763
0.597279
0.597814
0.598367
0.599197
0.600331
0.601565
0.602813
0.604137
0.605341
0.606338
0.6072
0.608019
0.608881
0.609741
0.610778
0.611291
0.611177
0.610959
0.61118
0.611477
0.611552
0.611834
0.612682
0.614286
0.616082
0.6176
0.619016
0.619865
0.620336
0.620906
0.621327
0.621757
0.622956
0.624881
0.626555
0.627444
0.628299
0.628864
0.629216
0.630259
0.632478
0.634015
0.63477
0.635692
0.636489
0.637334
0.638478
0.639419
0.640993
0.602155
0.602234
0.602321
0.602405
0.602515
0.60262
0.602687
0.602762
0.60287
0.602975
0.603105
0.603221
0.603292
0.603448
0.603625
0.603656
0.603699
0.603818
0.603994
0.604171
0.604404
0.60456
0.604684
0.604911
0.605166
0.605365
0.60554
0.605761
0.606048
0.606328
0.60672
0.607125
0.60737
0.607575
0.60783
0.608235
0.60862
0.608859
0.609049
0.609227
0.609527
0.60995
0.6104
0.61082
0.611248
0.611744
0.612289
0.61279
0.613366
0.613971
0.614476
0.614936
0.615423
0.615955
0.616614
0.616957
0.617076
0.617273
0.617678
0.618288
0.618703
0.61888
0.618814
0.618489
0.618417
0.618662
0.619372
0.619622
0.619908
0.620623
0.622059
0.623998
0.625766
0.627119
0.628366
0.629401
0.629976
0.630314
0.630446
0.630493
0.630911
0.632005
0.633545
0.634818
0.635958
0.637076
0.637318
0.637651
0.638607
0.639929
0.640911
0.641824
0.642506
0.642844
0.64361
0.644924
0.645863
0.646741
0.647688
0.649161
0.619518
0.61958
0.61965
0.619709
0.61979