/*--------------------------------*- C++ -*----------------------------------*\
  =========                 |
  \\      /  F ield         | OpenFOAM: The Open Source CFD Toolbox
   \\    /   O peration     | Website:  https://openfoam.org
    \\  /    A nd           | Version:  7
     \\/     M anipulation  |
\*---------------------------------------------------------------------------*/
FoamFile
{
    version     2.0;
    format      ascii;
    class       volScalarField;
    location    "5.8";
    object      p;
}
// * * * * * * * * * * * * * * * * * * * * * * * * * * * * * * * * * * * * * //

dimensions      [1 -1 -2 0 0 0 0];

internalField   nonuniform List<scalar> 
1750
(
0.212675
0.423061
0.529414
0.55765
0.5765
0.640785
0.730264
0.796974
0.842738
0.868705
0.021461
0.0796769
0.309238
0.57296
0.757591
0.829075
0.861465
0.831505
0.849722
0.871701
0.0224426
0.0240449
0.03613
0.132528
0.366093
0.581245
0.769352
0.852454
0.901869
0.904426
0.0315348
0.041218
0.0501777
0.060709
0.065843
0.120023
0.248653
0.461816
0.641061
0.780994
0.062971
0.0769835
0.0928582
0.0930686
0.0982877
0.106585
0.111897
0.127679
0.190346
0.43762
0.125179
0.13814
0.148124
0.149665
0.153823
0.16464
0.17902
0.188401
0.198039
0.206866
0.248484
0.24781
0.251692
0.26076
0.264229
0.265971
0.265718
0.264855
0.259464
0.25642
0.462883
0.446583
0.432353
0.414304
0.400643
0.388456
0.376043
0.366012
0.358355
0.347569
0.780685
0.738415
0.702494
0.665874
0.627219
0.593037
0.563326
0.535174
0.513266
0.480084
1.02756
1.00305
0.973008
0.939716
0.898717
0.854074
0.809571
0.761661
0.71952
0.65596
1.07134
1.06958
1.06612
1.06056
1.0511
1.03558
1.01306
0.982972
0.948659
0.878487
1.05086
1.05446
1.05782
1.0593
1.05907
1.05834
1.05695
1.05398
1.04881
1.02639
1.01199
1.01628
1.02129
1.02736
1.03339
1.03878
1.04334
1.04688
1.04833
1.04743
1.00061
1.00108
1.00185
1.00319
1.00525
1.00831
1.01233
1.01752
1.02324
1.03157
1.00001
1.00002
1.00004
1.00008
1.00019
1.0004
1.00085
1.00172
1.00315
1.00811
0.0222533
0.0181081
0.0178909
0.0249948
0.0562574
0.122445
0.25367
0.487776
0.81789
1.0422
1.07193
1.04577
1.00872
1.0004
1.00001
0.024264
0.0172513
0.0178397
0.0295697
0.0753847
0.166626
0.330128
0.599653
0.920392
1.07217
1.07284
1.03641
1.00476
1.00014
1
0.0272381
0.0156242
0.018617
0.0348645
0.0910964
0.200906
0.384903
0.68829
0.990678
1.08238
1.07239
1.02743
1.0025
1.00006
1
0.027599
0.0145463
0.0212438
0.0491905
0.113006
0.239101
0.469438
0.807338
1.04842
1.08747
1.06572
1.01775
1.00115
1.00002
1
0.0254562
0.0130753
0.0219364
0.0621834
0.137955
0.291688
0.587994
0.916112
1.08039
1.08912
1.05448
1.01038
1.00051
1.00001
1
0.0222084
0.0123013
0.0241775
0.0716843
0.185718
0.40691
0.715309
0.999383
1.09537
1.08933
1.04014
1.00542
1.00019
1
1
0.0157756
0.0171201
0.0369363
0.0976133
0.252481
0.522538
0.839089
1.06483
1.10166
1.07927
1.02617
1.00233
1.00007
1
1
0.0107288
0.0206199
0.0526891
0.15422
0.357254
0.653986
0.965789
1.10197
1.10319
1.06498
1.01466
1.00087
1.00002
1
1
0.00637813
0.0202348
0.0739728
0.225559
0.498607
0.820937
1.05876
1.11415
1.10279
1.04637
1.00653
1.00029
1.00001
1
1
0.0021751
0.0196651
0.122674
0.349919
0.664404
0.970407
1.10799
1.11697
1.0844
1.02587
1.00238
1.00008
1
1
1
0.00132786
0.0551525
0.234516
0.530554
0.853316
1.0708
1.12535
1.1161
1.06209
1.0122
1.00077
1.00002
1
1
1
0.00359381
0.126435
0.389979
0.740046
1.01809
1.12511
1.12866
1.09767
1.03501
1.00424
1.00018
1
1
1
1
0.0274636
0.235928
0.632937
0.958556
1.11553
1.13998
1.12742
1.06984
1.01519
1.00118
1.00004
1
1
1
1
0.14818
0.522178
0.906487
1.09251
1.14918
1.14224
1.10152
1.03483
1.0045
1.00023
1.00001
1
1
1
1
0.529148
0.893435
1.09404
1.14625
1.15521
1.12808
1.06157
1.01238
1.00095
1.00003
1
1
1
1
1
1.14976
1.15323
1.15571
1.15339
1.14886
1.08847
1.02215
1.00152
1.00002
1
1
1
1
1
1
1.14941
1.15444
1.15735
1.14948
1.13736
1.07573
1.02117
1.00235
1.0001
1
1
1
1
1
1
1.15021
1.15837
1.16056
1.14982
1.12165
1.05037
1.00762
1.00035
1.00001
1
1
1
1
1
1
1.15102
1.16074
1.16135
1.14524
1.09788
1.0304
1.0032
1.00013
1
1
1
1
1
1
1
1.15037
1.16147
1.16116
1.13454
1.07123
1.01563
1.00115
1.00003
1
1
1
1
1
1
1
1.15076
1.16127
1.15742
1.11279
1.04742
1.00714
1.00036
1.00001
1
1
1
1
1
1
1
1.16104
1.16011
1.15212
1.09041
1.02526
1.00249
1.00009
1
1
1
1
1
1
1
1
1.17723
1.15221
1.13402
1.05854
1.01164
1.00084
1.00002
1
1
1
1
1
1
1
1
1.18989
1.13952
1.10282
1.03476
1.00461
1.00022
1.00001
1
1
1
1
1
1
1
1
1.19769
1.12562
1.06992
1.01647
1.00149
1.00005
1
1
1
1
1
1
1
1
1
1.19803
1.10196
1.04115
1.00639
1.00038
1.00001
1
1
1
1
1
1
1
1
1
1.17205
1.07348
1.02066
1.00212
1.00008
1
1
1
1
1
1
1
1
1
1
1.14056
1.04728
1.00815
1.00048
1.00001
1
1
1
1
1
1
1
1
1
1
1.09896
1.02261
1.00215
1.00008
1
1
1
1
1
1
1
1
1
1
1
1.04946
1.00798
1.00041
1.00001
1
1
1
1
1
1
1
1
1
1
1
1.00931
1.00121
1.00005
1
1
1
1
1
1
1
1
1
1
1
1
1
1
1
1
1
1
1
1
1
1
1
1
1
1
1
1
1
1
1
1
1
1
1
1
1
1
1
1
1
1
1
1
1
1
1
1
1
1
1
1
1
1
1
1
1
1
1
1
1
1
1
1
1
1
1
1
1
1
1
1
1
1
1
1
1
1
1
1
1
1
1
1
1
1
1
1
1
1
1
1
1
1
1
1
1
1
1
1
1
1
1
1
1
1
1
1
1
1
1
1
1
1
1
1
1
1
1
1
1
1
1
1
1
1
1
1
1
1
1
1
1
1
1
1
1
1
1
1
1
1
1
1
1
1
1
1.07792
1
1
1
1
1
1
1
1
1
1.0113
1
1
1
1
1
1
1
1
1
1.00102
1
1
1
1
1
1
1
1
1
1.00005
1
1
1
1
1
1
1
1
1
1
1
1
1
1
1
1
1
1
1
1
1
1
1
1
1
1
1
1
1
1
1
1
1
1
1
1
1
1
1
1
1
1
1
1
1
1
1
1
1
1
1
1
1
1
1
1
1
1
1
1
1
1
1
1
1
1
1
1
1
1
1
1
1
1
1
1
1
1
1
1
1
1
1
1
1
1
1
1
1
1
1
1
1
1
1
1
1
1
1
1
1
1
1
1
1
1
1
1
1
1
1
1
1
1
1
1
1
1
1
1
1
1
1
1
1
1
1
1
1
1
1
1
1
1
1
1
1
1
1
1
1
1
1
1
1
1
1
1
1
1
1
1
1
1
1
1
1
1
1
1
1
1
1
1
1
1
1
1
1
8.26263
4.63544
1.397
0.999997
1
1
1
1
1
1
1
1
1
1
1
1
1
1
1
1
9.18231
8.3692
6.79317
2.6097
0.9999
1
1
1
1
1
1
1
1
1
1
1
1
1
1
1
8.59644
8.18016
8.43989
7.52598
3.98733
1.10662
0.999999
1
1
1
1
1
1
1
1
1
1
1
1
1
8.30695
8.11852
8.18576
8.15032
7.80671
4.53497
1.19798
0.999656
1
1
1
1
1
1
1
1
1
1
1
1
8.2136
8.14444
8.1564
8.00435
8.00367
7.64649
4.2823
1.16258
0.999617
1
1
1
1
1
1
1
1
1
1
1
8.12881
8.05731
8.0047
7.93187
7.92102
8.01079
7.7711
4.04862
1.11097
0.999603
1
1
1
1
1
1
1
1
1
1
8.02256
7.94823
7.91113
7.88204
7.87854
7.87305
7.89593
7.3316
3.29203
1.03141
1
1
1
1
1
1
1
1
1
1
7.91901
7.85086
7.83936
7.8319
7.80207
7.78903
7.79279
7.76949
6.80323
2.36588
0.996892
1.00001
1
1
1
1
1
1
1
1
7.84004
7.78031
7.78451
7.76337
7.7289
7.7154
7.72969
7.70021
7.62377
6.13789
1.77888
0.997291
1.00001
1
1
1
1
1
1
1
7.78369
7.72956
7.73148
7.68907
7.65212
7.63375
7.62384
7.56842
7.54227
7.20783
4.38172
1.21361
0.999128
1
1
1
1
1
1
1
7.72671
7.67615
7.66849
7.61075
7.57606
7.54688
7.51672
7.46987
7.3856
7.26665
6.67659
2.66142
1.0118
1
1
1
1
1
1
1
7.65794
7.60516
7.59208
7.52985
7.49898
7.47495
7.42811
7.41115
7.3385
7.22256
7.30795
5.67146
1.65025
0.99775
1
1
1
1
1
1
7.56724
7.51633
7.50853
7.45653
7.43618
7.40198
7.37669
7.35693
7.31542
7.24452
7.27815
6.75308
3.47683
1.08127
0.99965
0.99999
1
1
1
1
7.47396
7.43423
7.43368
7.39195
7.36212
7.31412
7.27667
7.26691
7.25742
7.22106
7.18402
7.02783
6.02554
1.98467
1.00386
1
1
1
1
1
7.21164
7.06714
7.0494
7.00764
6.993
6.98175
6.98524
7.01917
7.04088
7.05231
7.06266
7.04558
6.76765
3.84362
1.06979
0.997954
0.999948
1
1
1
2.36692
3.61541
4.30388
4.84625
5.25695
5.53308
5.7899
5.99219
6.18607
6.33587
6.50311
6.62937
6.64224
6.30404
2.87403
1.11546
1.00115
1.00001
1
1
0.713888
1.88569
2.56876
3.14177
3.71716
4.18358
4.58736
4.93769
5.21952
5.49045
5.73698
5.97951
6.266
6.39375
5.43349
2.18398
1.05063
1.00041
1
1
0.694347
1.28237
1.704
2.18433
2.64715
3.17139
3.59312
4.05839
4.38762
4.75101
5.03473
5.37498
5.69204
6.09445
5.8952
4.23089
1.54678
1.01341
1.00008
1
0.769256
1.00831
1.19329
1.63209
2.03457
2.45962
2.87946
3.29125
3.71108
4.0501
4.42417
4.7776
5.17014
5.53087
5.65177
5.35091
2.91751
1.16046
1.00206
1.00001
0.90528
0.921179
0.93121
1.18621
1.53876
1.90297
2.33391
2.67606
3.11664
3.45346
3.84536
4.19747
4.61895
4.92828
5.23591
5.30244
4.41847
1.81659
1.0268
1.00018
0.996733
0.934395
0.924447
1.07137
1.25744
1.52367
1.89002
2.26243
2.63454
3.03131
3.34233
3.76383
4.11359
4.46756
4.7694
5.1213
4.88524
2.98806
1.20794
1.00288
0.996564
0.939936
0.953931
0.994115
1.08151
1.31938
1.59075
1.9422
2.25774
2.67444
2.99551
3.38687
3.72391
4.03589
4.36318
4.81521
4.82697
3.89602
1.68538
1.02378
0.981628
0.946519
0.948943
0.933651
0.93915
1.1073
1.32597
1.64777
1.93366
2.28292
2.65721
2.97101
3.35227
3.60361
3.92999
4.38167
4.70952
4.48435
2.61519
1.1398
0.988229
0.975202
0.956504
0.925948
0.915565
1.01802
1.15498
1.37982
1.68259
1.94871
2.34156
2.64336
3.01627
3.31508
3.61456
4.02079
4.48756
4.5023
3.42261
1.50828
1.01203
1.00371
0.977189
0.934571
0.924424
0.995438
1.08371
1.24669
1.51345
1.77258
2.11236
2.42385
2.74681
3.08668
3.35871
3.71127
4.17762
4.39618
3.76794
2.10916
1.02315
1.01005
0.982335
0.948676
0.944127
0.960347
1.01158
1.14591
1.36615
1.6225
1.89402
2.21268
2.47528
2.82883
3.08476
3.37079
3.79122
4.2247
3.96522
3.01505
1.01808
1.00651
0.99291
0.969966
0.952766
0.94405
0.952191
1.03459
1.16953
1.44345
1.6632
1.97391
2.19838
2.54832
2.83643
3.14218
3.52456
3.9874
4.02942
4.06596
1.00219
0.996546
1.00036
0.986376
0.962559
0.942398
0.941216
1.00684
1.08771
1.29621
1.52914
1.77378
2.03221
2.30507
2.65515
2.96043
3.30593
3.7306
4.10504
5.01537
0.981716
0.984084
0.994554
0.989549
0.968874
0.944833
0.945232
1.00606
1.06674
1.2171
1.43565
1.64948
1.90822
2.1365
2.47633
2.77147
3.03506
3.45265
4.17429
5.94033
0.963704
0.972953
0.981545
0.983998
0.964537
0.940369
0.94383
0.975484
1.01926
1.13302
1.32821
1.52085
1.77316
1.9956
2.26265
2.56568
2.82652
3.20919
4.19952
6.82415
0.808193
0.935075
0.960434
0.973224
0.955675
0.935225
0.938193
0.945901
0.964696
1.04152
1.19071
1.3801
1.58581
1.86344
2.09791
2.38658
2.68654
3.06274
4.21455
7.54429
0.674369
0.843529
0.927838
0.962682
0.955138
0.945081
0.937389
0.93949
0.951452
1.01613
1.08633
1.28059
1.47009
1.72773
1.99829
2.2444
2.50827
2.91877
4.37145
8.14799
0.575628
0.736487
0.870323
0.943962
0.958227
0.951364
0.940153
0.931058
0.94297
0.997428
1.03168
1.17808
1.38978
1.59238
1.85148
2.09931
2.32622
2.79595
4.42914
8.35074
0.514196
0.64622
0.790416
0.898001
0.947849
0.944746
0.931616
0.912246
0.918339
0.957335
0.994689
1.08714
1.2816
1.48516
1.69355
1.93248
2.18314
2.75062
4.59699
8.55839
0.515495
0.589475
0.691715
0.815177
0.911049
0.933874
0.922524
0.903215
0.895019
0.906757
0.956758
1.04712
1.17416
1.36786
1.56132
1.78227
2.05061
2.77145
4.73541
8.44539
0.53136
0.535489
0.610349
0.731479
0.840505
0.906765
0.915823
0.902691
0.887249
0.88156
0.903195
0.994948
1.09811
1.2589
1.44567
1.64374
1.92899
2.85306
4.75806
8.01282
0.585452
0.539501
0.555404
0.646054
0.748557
0.850248
0.900257
0.897738
0.885052
0.875542
0.879664
0.935922
1.02015
1.1595
1.32762
1.51437
1.87948
3.09128
4.80668
7.52695
0.68575
0.602754
0.558856
0.579654
0.650651
0.772146
0.856689
0.883401
0.876019
0.865742
0.866669
0.901392
0.950964
1.06401
1.22081
1.41857
1.89793
3.30735
4.66395
6.87394
0.77304
0.684953
0.58376
0.562162
0.58262
0.678863
0.776893
0.845382
0.862397
0.857939
0.862455
0.87819
0.900579
0.991552
1.12723
1.33191
2.01031
3.58728
4.45453
6.13038
0.855444
0.786433
0.710945
0.61714
0.584392
0.604471
0.658791
0.745783
0.806379
0.829888
0.841006
0.840456
0.844724
0.911709
1.02815
1.40005
2.33729
3.59916
4.02785
4.92051
)
;

boundaryField
{
    inlet
    {
        type            fixedValue;
        value           uniform 1;
    }
    outlet
    {
        type            zeroGradient;
    }
    airfoil
    {
        type            zeroGradient;
    }
    top
    {
        type            symmetryPlane;
    }
    bottom
    {
        type            symmetryPlane;
    }
    defaultFaces
    {
        type            empty;
    }
}


// ************************************************************************* //
