/*--------------------------------*- C++ -*----------------------------------*\
  =========                 |
  \\      /  F ield         | OpenFOAM: The Open Source CFD Toolbox
   \\    /   O peration     | Website:  https://openfoam.org
    \\  /    A nd           | Version:  7
     \\/     M anipulation  |
\*---------------------------------------------------------------------------*/
FoamFile
{
    version     2.0;
    format      ascii;
    class       volScalarField;
    location    "13.5";
    object      p;
}
// * * * * * * * * * * * * * * * * * * * * * * * * * * * * * * * * * * * * * //

dimensions      [1 -1 -2 0 0 0 0];

internalField   nonuniform List<scalar> 
90000
(
0.555593
0.594831
0.636177
0.676829
0.71574
0.753013
0.788355
0.821012
0.851392
0.878139
0.902844
0.923428
0.9424
0.957166
0.97081
0.980821
0.989965
0.996241
1.00177
1.0056
1.00871
1.01086
1.01288
1.01269
1.01113
1.00693
1.00069
0.995154
0.990161
0.990716
0.992304
0.994609
0.997111
0.999665
1.00163
1.00322
1.004
1.00332
1.0011
0.999049
0.997628
0.997222
0.997663
0.998873
1.00066
1.00266
1.00314
1.00244
1.0008
0.999637
0.999618
0.999879
1.00094
1.00249
1.00243
1.00171
1.00084
1.00056
1.00094
1.00182
1.0021
1.00175
1.00106
1.00078
1.00098
1.0013
1.0013
1.00111
1.00098
1.00114
1.00136
1.00132
1.00113
1.00102
1.00099
1.00103
1.00123
1.00138
1.00131
1.00114
1.00082
1.0007
1.00067
1.00085
1.00113
1.00142
1.00161
1.00164
1.00155
1.00144
1.00124
1.00114
1.00109
1.00106
1.001
1.00089
1.00083
1.00082
1.00087
1.00107
0.523426
0.523887
0.525152
0.527895
0.532527
0.540033
0.550507
0.565184
0.583426
0.606565
0.632991
0.663883
0.696845
0.732472
0.768348
0.803768
0.837614
0.867807
0.895646
0.917418
0.936952
0.949608
0.961094
0.967398
0.973081
0.976026
0.980027
0.984991
0.99229
0.996472
0.999459
1.00252
1.00498
1.00702
1.00667
1.00592
1.0034
1.00017
0.997365
0.997069
0.997695
0.998854
1.00079
1.00289
1.00381
1.0032
1.0019
1.0001
0.998699
0.998846
0.999796
1.00163
1.00307
1.00276
1.00172
1.00054
1.00036
1.00064
1.00136
1.00207
1.00192
1.00123
1.00079
1.00081
1.00113
1.00135
1.00119
1.00105
1.00106
1.00126
1.00141
1.00129
1.0011
1.00102
1.00103
1.00109
1.0013
1.00142
1.00134
1.00105
1.00076
1.00068
1.0007
1.00089
1.00117
1.00145
1.00161
1.00161
1.00153
1.00139
1.00118
1.0011
1.00107
1.00105
1.001
1.00088
1.00082
1.00082
1.00087
1.00107
0.523347
0.523348
0.523348
0.523351
0.52336
0.52342
0.523573
0.52393
0.524597
0.525836
0.527897
0.531422
0.536769
0.54518
0.556801
0.573519
0.594573
0.622059
0.653716
0.690981
0.730619
0.772241
0.813571
0.85221
0.889231
0.920466
0.94832
0.967261
0.982049
0.990292
0.995841
0.998213
0.999837
1.00075
1.00055
0.997956
0.993098
0.993851
0.996374
0.998801
1.00209
1.00497
1.00582
1.00486
1.00327
1.00001
0.998111
0.997317
0.997848
1.00008
1.0028
1.00388
1.00325
1.0014
1.00011
0.999645
1.00026
1.00176
1.00272
1.00232
1.00126
1.00044
1.00055
1.00123
1.00167
1.00134
1.00091
1.00093
1.00133
1.00159
1.00139
1.00111
1.00098
1.00098
1.00111
1.00129
1.00149
1.00146
1.00126
1.00092
1.00069
1.00064
1.0008
1.00104
1.00133
1.00155
1.00164
1.00158
1.00149
1.00134
1.00113
1.00107
1.00105
1.00104
1.00098
1.00086
1.0008
1.00082
1.0009
1.00111
0.523374
0.523367
0.523358
0.523349
0.523343
0.523345
0.523335
0.523331
0.52333
0.52333
0.523334
0.523355
0.523406
0.523548
0.523891
0.524588
0.525836
0.528166
0.532025
0.538758
0.548865
0.564906
0.586392
0.616587
0.652716
0.697202
0.745433
0.794218
0.84183
0.880883
0.916787
0.938588
0.95747
0.965858
0.973362
0.977842
0.985483
0.99376
1.00205
1.00805
1.01098
1.00978
1.00825
1.00457
0.998495
0.995709
0.995873
0.997616
1.00109
1.00467
1.00498
1.0035
1.00084
0.998736
0.998765
1.0004
1.00224
1.00327
1.00263
1.0011
0.999763
1.00016
1.00135
1.00206
1.00156
1.00073
1.00077
1.00128
1.00176
1.00155
1.00107
1.00096
1.00106
1.00116
1.00123
1.00137
1.00143
1.00136
1.00112
1.00078
1.00071
1.00075
1.00087
1.00108
1.00134
1.0015
1.00156
1.00158
1.00146
1.00124
1.00108
1.00105
1.00105
1.00104
1.00098
1.00084
1.0008
1.00082
1.0009
1.00111
0.52339
0.52339
0.523389
0.523387
0.523385
0.523382
0.52338
0.523366
0.523349
0.523334
0.523322
0.523316
0.523315
0.523335
0.523327
0.523318
0.523311
0.523317
0.523338
0.523441
0.52367
0.524272
0.525489
0.528053
0.532619
0.541357
0.555082
0.578025
0.608888
0.651994
0.701873
0.758067
0.814616
0.86454
0.910053
0.942938
0.970384
0.983218
0.991636
0.996763
1.00052
1.00185
0.999576
0.994299
0.995204
0.997082
1.00136
1.00479
1.00621
1.00495
1.00193
0.999928
0.998247
0.998668
1.00105
1.00346
1.00322
1.00238
1.00085
0.999638
1.00019
1.00149
1.00208
1.00165
1.00083
1.00073
1.00122
1.0017
1.00164
1.00129
1.00104
1.00106
1.00111
1.00112
1.00122
1.00147
1.00156
1.00141
1.00103
1.00074
1.00071
1.00075
1.00093
1.00123
1.00151
1.0016
1.00164
1.00154
1.00137
1.00117
1.00106
1.00104
1.00103
1.00101
1.00095
1.00082
1.00078
1.00082
1.00093
1.00117
0.523397
0.523396
0.523396
0.523395
0.523394
0.523394
0.523393
0.523392
0.52339
0.523387
0.523382
0.523376
0.52337
0.523361
0.523349
0.523331
0.523315
0.523305
0.523303
0.523308
0.52336
0.523343
0.523327
0.523322
0.523366
0.523516
0.52389
0.52497
0.527336
0.532732
0.542518
0.561437
0.589535
0.632856
0.685332
0.747291
0.810494
0.863052
0.909565
0.936111
0.959195
0.97064
0.978629
0.986386
0.997749
1.00688
1.01271
1.01155
1.00938
1.00417
0.995939
0.996007
0.997363
1.0008
1.00466
1.00465
1.00332
1.00058
0.999051
0.999694
1.00138
1.00266
1.00212
1.00099
1.0004
1.00089
1.00179
1.00195
1.00162
1.00112
1.00101
1.00105
1.00111
1.0012
1.00146
1.00164
1.00153
1.0012
1.00084
1.00071
1.00075
1.00088
1.00108
1.00135
1.00154
1.00157
1.00157
1.00147
1.00126
1.00107
1.00102
1.00104
1.00105
1.00103
1.00095
1.00082
1.0008
1.00085
1.00096
1.00118
0.523401
0.5234
0.523399
0.523398
0.523397
0.523396
0.523394
0.523393
0.523392
0.52339
0.523388
0.523386
0.523384
0.523382
0.523379
0.523376
0.523371
0.523365
0.523357
0.52335
0.523338
0.523328
0.523321
0.523318
0.523323
0.52334
0.523407
0.523391
0.523385
0.523438
0.52362
0.524257
0.525914
0.530334
0.539245
0.558214
0.588116
0.636332
0.69555
0.76381
0.831752
0.888188
0.938735
0.970424
0.989381
0.997279
1.00322
1.00418
0.999896
0.993331
0.995002
0.998613
1.0031
1.00597
1.00476
1.00213
0.999273
0.998724
0.999404
1.00189
1.00284
1.00212
1.00104
1.00031
1.00075
1.00194
1.00206
1.00157
1.00101
1.0011
1.00125
1.00119
1.00108
1.00122
1.00155
1.00164
1.00144
1.00107
1.0008
1.0007
1.00079
1.00094
1.00117
1.00143
1.00156
1.00159
1.00159
1.00145
1.00126
1.00106
1.001
1.00102
1.00103
1.00098
1.00089
1.00078
1.00078
1.00084
1.00097
1.00121
0.523393
0.523392
0.523391
0.52339
0.523388
0.523387
0.523386
0.523384
0.523383
0.523382
0.52338
0.523379
0.523377
0.523376
0.523374
0.523373
0.523371
0.523369
0.523367
0.523365
0.523362
0.523359
0.523356
0.523353
0.523348
0.523344
0.52334
0.523346
0.523355
0.52337
0.523415
0.523403
0.523401
0.523442
0.523597
0.524213
0.525978
0.531121
0.542092
0.56636
0.604427
0.663568
0.734949
0.80854
0.877585
0.918961
0.953937
0.968021
0.978483
0.988773
1.00164
1.01162
1.01215
1.01043
1.00447
0.996099
0.996445
0.998422
1.00189
1.00459
1.00375
1.00148
0.999338
0.999877
1.00164
1.00297
1.00247
1.00128
1.0006
1.00096
1.00134
1.00135
1.00127
1.00145
1.00169
1.00161
1.0012
1.00094
1.00088
1.00082
1.0009
1.00108
1.00133
1.00154
1.00159
1.00159
1.0015
1.00131
1.00107
1.00097
1.001
1.00103
1.00105
1.00102
1.0009
1.00081
1.0008
1.00087
1.00101
1.00122
0.523379
0.523379
0.523378
0.523377
0.523376
0.523375
0.523374
0.523373
0.523372
0.523371
0.52337
0.523369
0.523368
0.523367
0.523367
0.523366
0.523365
0.523365
0.523364
0.523363
0.523363
0.523363
0.523364
0.523364
0.523364
0.523365
0.523365
0.523366
0.523367
0.523369
0.523369
0.523379
0.523391
0.523405
0.523436
0.523426
0.523432
0.523486
0.523729
0.524727
0.527596
0.536176
0.553958
0.591804
0.647693
0.724182
0.805819
0.876332
0.939407
0.975517
0.994402
1.00214
1.00577
1.00095
0.993016
0.994621
0.999115
1.00349
1.00496
1.00398
1.00044
0.998391
0.998857
1.00155
1.00309
1.00275
1.00125
1.00057
1.00084
1.0013
1.00125
1.00115
1.00131
1.00176
1.00174
1.00154
1.00106
1.00078
1.00085
1.00094
1.00099
1.00121
1.00144
1.00156
1.00159
1.00157
1.0015
1.00131
1.00111
1.00096
1.00098
1.00102
1.00102
1.00096
1.00085
1.00078
1.00079
1.00088
1.00106
1.00128
0.523362
0.523361
0.52336
0.52336
0.523359
0.523358
0.523358
0.523358
0.523358
0.523357
0.523357
0.523357
0.523357
0.523357
0.523357
0.523357
0.523357
0.523357
0.523357
0.523357
0.523358
0.523359
0.523361
0.523363
0.523365
0.523367
0.52337
0.523372
0.523374
0.523377
0.523377
0.523379
0.52338
0.523382
0.523383
0.52339
0.523398
0.523411
0.523405
0.523404
0.523425
0.523575
0.524178
0.526573
0.53323
0.552195
0.587474
0.650975
0.732902
0.817241
0.89434
0.933323
0.966337
0.975524
0.989264
1.00065
1.01125
1.01059
1.00745
0.999456
0.996067
0.997506
1.00146
1.0046
1.00378
1.00104
0.999707
1.00038
1.00179
1.00172
1.00129
1.00106
1.00152
1.00203
1.00185
1.00108
1.00075
1.00076
1.00092
1.00101
1.00115
1.00135
1.0015
1.00157
1.00159
1.00156
1.00142
1.0012
1.001
1.00097
1.00099
1.00101
1.00101
1.00096
1.00083
1.00079
1.00082
1.00095
1.00112
1.00126
0.523353
0.523352
0.523351
0.523351
0.52335
0.523349
0.523349
0.523349
0.523349
0.523349
0.523349
0.523349
0.523349
0.523349
0.52335
0.52335
0.523351
0.523351
0.523352
0.523353
0.523355
0.523357
0.523359
0.523362
0.523364
0.523367
0.523369
0.523371
0.523373
0.523375
0.523377
0.523378
0.523379
0.523378
0.523377
0.523375
0.523374
0.523372
0.523373
0.523374
0.523374
0.523367
0.52336
0.523376
0.523486
0.52409
0.526276
0.534407
0.553812
0.599487
0.669179
0.759789
0.852128
0.921285
0.976285
0.992329
1.00442
1.00397
0.997093
0.994188
0.997917
1.00338
1.0058
1.00473
1.00052
0.998385
0.999232
1.00203
1.00237
1.00174
1.00081
1.00109
1.00212
1.00212
1.00136
1.00064
1.00069
1.00093
1.00109
1.00117
1.00134
1.00156
1.00157
1.00157
1.00157
1.00152
1.00138
1.00114
1.00093
1.00094
1.00097
1.001
1.00098
1.00091
1.0008
1.00078
1.00082
1.00094
1.00112
1.00127
0.523355
0.523355
0.523355
0.523355
0.523355
0.523355
0.523355
0.523355
0.523355
0.523356
0.523356
0.523357
0.523357
0.523358
0.523359
0.523359
0.52336
0.523361
0.523362
0.523364
0.523365
0.523366
0.523368
0.523369
0.52337
0.523371
0.523372
0.523372
0.523372
0.523372
0.523372
0.523371
0.523371
0.52337
0.523368
0.523367
0.523364
0.523359
0.523354
0.52335
0.523347
0.523344
0.523343
0.523338
0.523329
0.523326
0.523344
0.523489
0.524181
0.527448
0.537455
0.567406
0.621507
0.709745
0.81231
0.885952
0.948559
0.963803
0.980407
0.993663
1.00821
1.01155
1.0089
1.00037
0.996113
0.997972
1.00202
1.0035
1.00222
1.00042
1.00066
1.00212
1.00264
1.00189
1.00053
1.0005
1.00086
1.00112
1.00116
1.00127
1.00158
1.00168
1.00163
1.00158
1.00156
1.00148
1.00125
1.00103
1.00091
1.00092
1.00096
1.00099
1.00096
1.00087
1.0008
1.00079
1.00085
1.00097
1.00115
1.0013
0.523366
0.523367
0.523367
0.523368
0.523369
0.52337
0.523371
0.523371
0.523372
0.523373
0.523374
0.523374
0.523374
0.523375
0.523375
0.523376
0.523376
0.523377
0.523377
0.523378
0.523378
0.523378
0.523378
0.523377
0.523376
0.523375
0.523373
0.523371
0.523369
0.523367
0.523365
0.523363
0.523361
0.52336
0.523357
0.523354
0.523351
0.523348
0.523344
0.523341
0.523339
0.523338
0.523338
0.523339
0.52334
0.52334
0.523345
0.523339
0.52334
0.523375
0.523598
0.52497
0.530046
0.548986
0.590717
0.671976
0.774373
0.867621
0.949427
0.982977
1.00124
1.0037
0.99745
0.994063
0.998419
1.00447
1.00523
1.00294
0.999197
0.999425
1.00179
1.00329
1.00266
1.00046
1.0001
1.00059
1.00124
1.00122
1.00121
1.00142
1.00181
1.00174
1.00161
1.00157
1.00152
1.00136
1.00113
1.00098
1.00092
1.00093
1.00097
1.00098
1.00092
1.00084
1.0008
1.00082
1.0009
1.00103
1.0012
1.00131
0.523385
0.523386
0.523387
0.523387
0.523388
0.523389
0.523389
0.52339
0.52339
0.52339
0.52339
0.523389
0.523388
0.523388
0.523387
0.523386
0.523385
0.523385
0.523384
0.523382
0.523381
0.523379
0.523376
0.523374
0.523372
0.52337
0.523367
0.523364
0.523361
0.523358
0.523356
0.523352
0.523348
0.523346
0.523345
0.523344
0.523343
0.523343
0.523343
0.523345
0.523349
0.523355
0.52336
0.523366
0.523371
0.523372
0.52337
0.523367
0.523362
0.52335
0.523337
0.523342
0.523419
0.524014
0.526767
0.539336
0.571217
0.645377
0.747741
0.844996
0.92847
0.955786
0.975995
0.991593
1.0098
1.01206
1.00784
0.99742
0.997677
1.00062
1.00441
1.00368
1.00077
0.999157
1.00003
1.00149
1.00144
1.00115
1.00126
1.0018
1.00197
1.00179
1.0016
1.00156
1.00147
1.00123
1.00104
1.00099
1.00094
1.00095
1.00096
1.00094
1.00087
1.00081
1.0008
1.00084
1.00095
1.00109
1.00122
1.0013
0.523401
0.523401
0.523401
0.5234
0.5234
0.523399
0.523399
0.523398
0.523396
0.523395
0.523393
0.523391
0.523389
0.523387
0.523385
0.523382
0.523379
0.523377
0.523373
0.523371
0.523368
0.523364
0.523361
0.523358
0.523354
0.523351
0.523346
0.523343
0.523341
0.523339
0.523336
0.523335
0.523334
0.523333
0.523333
0.523334
0.523337
0.523342
0.52335
0.52336
0.523371
0.523382
0.523391
0.5234
0.523406
0.523406
0.523403
0.523396
0.523383
0.523368
0.523351
0.523337
0.523324
0.523324
0.523356
0.523664
0.525321
0.534265
0.560347
0.627743
0.728088
0.836159
0.934024
0.978239
1.00079
1.00406
0.994453
0.994741
1.00081
1.00646
1.00509
1.00069
0.998314
0.999073
1.0019
1.002
1.0012
1.00102
1.00164
1.00215
1.00197
1.00165
1.0016
1.00157
1.00138
1.0011
1.001
1.00102
1.001
1.00098
1.00095
1.00088
1.0008
1.0008
1.00082
1.00089
1.00101
1.00112
1.00121
1.00129
0.523404
0.523403
0.523402
0.5234
0.523398
0.523397
0.523396
0.523393
0.523391
0.523389
0.523386
0.523384
0.523381
0.523378
0.523375
0.523371
0.523368
0.523364
0.523359
0.523356
0.523351
0.523348
0.523345
0.523341
0.523336
0.523332
0.523327
0.523325
0.523324
0.523323
0.523322
0.523321
0.523322
0.523324
0.523325
0.523329
0.523337
0.523348
0.523361
0.523375
0.523388
0.5234
0.523411
0.523418
0.523423
0.523425
0.523422
0.523413
0.5234
0.523382
0.523362
0.523342
0.523325
0.523314
0.523314
0.523319
0.523341
0.523532
0.524696
0.531623
0.554199
0.618451
0.720743
0.830019
0.920855
0.956439
0.976547
0.996198
1.01331
1.01154
1.00466
0.996083
0.997357
1.00173
1.00337
1.00188
1.00039
1.00108
1.00244
1.00235
1.00169
1.00154
1.0017
1.00159
1.00121
1.001
1.00103
1.00106
1.00104
1.00099
1.00092
1.0008
1.00076
1.00079
1.00084
1.00094
1.00106
1.00114
1.0012
1.00128
0.523395
0.523394
0.523393
0.523392
0.52339
0.523389
0.523387
0.523385
0.523383
0.523381
0.523377
0.523374
0.523372
0.523369
0.523365
0.523363
0.523361
0.523358
0.523354
0.523349
0.523344
0.523341
0.523338
0.523334
0.523331
0.523328
0.523325
0.523324
0.523323
0.523323
0.523322
0.523323
0.523325
0.52333
0.523336
0.523344
0.523354
0.523365
0.523376
0.523385
0.523393
0.523402
0.523409
0.523414
0.523419
0.523423
0.523419
0.52341
0.523398
0.523384
0.523368
0.523352
0.523337
0.523321
0.523315
0.523319
0.523327
0.523343
0.52337
0.523522
0.524451
0.530496
0.552175
0.615891
0.718312
0.836522
0.937653
0.985267
1.00366
1.00171
0.992079
0.995821
1.00301
1.00529
1.00271
0.999204
0.999734
1.0026
1.00282
1.00199
1.00137
1.00166
1.00185
1.00154
1.001
1.00097
1.00108
1.00108
1.00104
1.00099
1.00087
1.00072
1.00073
1.00079
1.00089
1.001
1.0011
1.00116
1.00119
1.00128
0.523383
0.523381
0.52338
0.523378
0.523376
0.523375
0.523374
0.523372
0.523368
0.523366
0.523363
0.523361
0.52336
0.52336
0.523358
0.523357
0.523356
0.523355
0.523353
0.523352
0.523351
0.52335
0.523348
0.523347
0.523346
0.523346
0.523346
0.523346
0.523349
0.52335
0.523352
0.523357
0.523362
0.523368
0.523374
0.523378
0.523382
0.523387
0.523389
0.523391
0.523394
0.523398
0.523401
0.523403
0.523405
0.52341
0.523406
0.523397
0.523386
0.523376
0.523369
0.523363
0.523354
0.52334
0.523331
0.523336
0.523346
0.523358
0.523372
0.523394
0.523426
0.523552
0.524408
0.530187
0.552733
0.618495
0.729667
0.847186
0.928876
0.964483
0.98229
1.00469
1.01385
1.00893
0.997643
0.998179
1.0019
1.00434
1.0028
1.00085
1.00124
1.00218
1.00199
1.00107
1.00088
1.00104
1.00115
1.00109
1.00105
1.00098
1.00084
1.0007
1.00072
1.00082
1.00094
1.00105
1.00114
1.00117
1.0012
1.00127
0.523343
0.523343
0.523342
0.523342
0.523342
0.523343
0.523344
0.523345
0.523346
0.523347
0.523349
0.523351
0.523353
0.523354
0.523354
0.523355
0.523357
0.523359
0.523362
0.523366
0.52337
0.523376
0.52338
0.523386
0.523392
0.523397
0.523403
0.523408
0.523414
0.523417
0.523421
0.523426
0.523427
0.523426
0.523424
0.52342
0.523415
0.523409
0.523401
0.523396
0.523392
0.523385
0.523379
0.523374
0.523372
0.523373
0.523371
0.523368
0.523367
0.52337
0.523376
0.523382
0.523384
0.523381
0.523373
0.523373
0.523374
0.523373
0.523377
0.523387
0.523409
0.523432
0.523437
0.523533
0.524433
0.530623
0.55699
0.628992
0.743353
0.873413
0.957342
0.996095
1.00519
0.994546
0.995521
1.00239
1.00656
1.00424
0.999856
1.00002
1.0023
1.00247
1.00144
1.00063
1.00092
1.00123
1.00118
1.00109
1.00108
1.00098
1.00072
1.00065
1.00072
1.00085
1.00099
1.00111
1.00116
1.00118
1.0012
1.00126
0.523314
0.523315
0.523316
0.523317
0.523319
0.523321
0.523324
0.523328
0.52333
0.523332
0.523335
0.523339
0.523343
0.523349
0.523355
0.523363
0.523372
0.523381
0.523391
0.523401
0.523411
0.523422
0.523433
0.523445
0.523456
0.523465
0.523475
0.523484
0.523488
0.523489
0.523489
0.523487
0.523482
0.523474
0.523464
0.523453
0.52344
0.523425
0.52341
0.523393
0.523375
0.523352
0.523335
0.523329
0.523324
0.523322
0.523324
0.523333
0.523347
0.523367
0.523396
0.523424
0.523435
0.523439
0.523439
0.523428
0.523405
0.523381
0.52337
0.523366
0.523371
0.52339
0.523409
0.523406
0.523397
0.523502
0.524674
0.532032
0.564948
0.646722
0.773499
0.891968
0.948424
0.973981
0.99833
1.01363
1.01042
0.999289
0.99819
1.00097
1.00381
1.00237
1.00029
1.00057
1.00143
1.00139
1.00108
1.00112
1.00109
1.00086
1.00064
1.00066
1.00077
1.0009
1.00105
1.00116
1.00118
1.00119
1.00121
1.00125
0.523305
0.523307
0.523309
0.52331
0.523312
0.523316
0.52332
0.523324
0.52333
0.523337
0.523346
0.523354
0.523363
0.523373
0.523382
0.523393
0.523404
0.523414
0.523425
0.523436
0.523447
0.523459
0.523471
0.523482
0.523493
0.523502
0.523512
0.523519
0.523522
0.523522
0.523519
0.523514
0.523506
0.523495
0.523482
0.523467
0.52345
0.52343
0.523405
0.52338
0.523354
0.523328
0.523304
0.523295
0.523292
0.523292
0.523297
0.523312
0.523338
0.523374
0.523417
0.523462
0.523482
0.523486
0.523486
0.523473
0.523437
0.523384
0.523344
0.523335
0.523334
0.523347
0.523381
0.523404
0.523408
0.523391
0.523374
0.523518
0.525226
0.535184
0.579541
0.674285
0.806621
0.928509
0.985498
1.00483
0.997581
0.99405
1.00062
1.00593
1.00433
0.999293
0.999401
1.0014
1.00175
1.00127
1.00096
1.00119
1.00109
1.00072
1.00062
1.00073
1.00083
1.00095
1.00111
1.00119
1.00119
1.00119
1.00122
1.00124
0.523328
0.523332
0.523338
0.523341
0.523345
0.523353
0.52336
0.523364
0.52337
0.523378
0.523383
0.52339
0.523397
0.523403
0.52341
0.523419
0.523427
0.523435
0.523444
0.523454
0.523463
0.523473
0.523483
0.523492
0.523501
0.523509
0.523515
0.52352
0.523525
0.523525
0.52352
0.523514
0.523506
0.523495
0.523482
0.523465
0.523446
0.523424
0.523399
0.523372
0.523346
0.523322
0.523301
0.523288
0.523285
0.523287
0.523295
0.523315
0.523345
0.523384
0.52343
0.52348
0.523504
0.523508
0.523507
0.523492
0.523452
0.523389
0.523333
0.523316
0.523316
0.52333
0.523369
0.523422
0.523445
0.523443
0.523427
0.52337
0.523363
0.523608
0.526398
0.541695
0.599409
0.716536
0.844673
0.937294
0.967574
0.991969
1.013
1.01042
1.00017
0.997226
0.999897
1.00276
1.00178
1.00069
1.00103
1.00139
1.00095
1.00058
1.00065
1.00084
1.00089
1.00098
1.00114
1.00119
1.00119
1.0012
1.00123
1.00121
0.523391
0.523393
0.523396
0.523398
0.523398
0.5234
0.523403
0.523405
0.523407
0.523412
0.523414
0.523416
0.523418
0.52342
0.523424
0.52343
0.523437
0.523443
0.52345
0.523456
0.523462
0.523468
0.523473
0.523478
0.523482
0.523485
0.523487
0.523489
0.523491
0.523493
0.523491
0.523487
0.523482
0.523474
0.523465
0.523453
0.523438
0.52342
0.5234
0.523378
0.523355
0.523335
0.523318
0.523302
0.523296
0.523302
0.523317
0.523336
0.52336
0.523389
0.523429
0.523475
0.523506
0.523511
0.523508
0.523491
0.523452
0.523393
0.523335
0.523315
0.523316
0.523333
0.52338
0.523448
0.523483
0.523481
0.523461
0.523405
0.523341
0.523327
0.523366
0.523909
0.528702
0.55387
0.631313
0.76065
0.898204
0.976198
1.0032
0.999392
0.993551
0.999927
1.00493
1.0032
0.999912
1.00017
1.00169
1.00144
1.00049
1.00051
1.00086
1.00088
1.0009
1.0011
1.00122
1.00121
1.0012
1.00123
1.00125
1.00117
0.523444
0.523442
0.52344
0.523438
0.523435
0.523432
0.523429
0.523427
0.523424
0.523424
0.523426
0.523427
0.523426
0.523425
0.523423
0.523421
0.523419
0.523417
0.523416
0.523415
0.523414
0.523413
0.523412
0.523411
0.523411
0.523411
0.523412
0.523414
0.523415
0.523418
0.523422
0.523427
0.523431
0.523437
0.523442
0.52344
0.523436
0.523433
0.523426
0.523417
0.523405
0.523393
0.523378
0.52336
0.523345
0.523347
0.523353
0.523357
0.523366
0.523381
0.5234
0.523426
0.523455
0.523472
0.523472
0.523461
0.523437
0.523397
0.52335
0.523325
0.523331
0.523359
0.523411
0.523466
0.523498
0.523495
0.523471
0.523415
0.523342
0.523318
0.523326
0.523359
0.52349
0.524716
0.533429
0.573694
0.678578
0.816709
0.922799
0.964384
0.98803
1.01199
1.00959
0.999665
0.998962
1.00132
1.00254
1.00071
1.00016
1.00079
1.00116
1.00093
1.00098
1.00122
1.00123
1.0012
1.00121
1.00126
1.00125
1.0011
0.523475
0.52347
0.523465
0.52346
0.523454
0.523447
0.523441
0.523434
0.523426
0.523419
0.523413
0.523408
0.523403
0.523397
0.523392
0.523387
0.523383
0.523379
0.523375
0.523371
0.523368
0.523366
0.523365
0.523364
0.523363
0.523363
0.523365
0.523367
0.52337
0.523374
0.523381
0.523391
0.523402
0.523415
0.523431
0.523447
0.523462
0.523473
0.523477
0.523478
0.523478
0.523474
0.523463
0.523444
0.523421
0.523398
0.523377
0.523364
0.523355
0.523351
0.523349
0.523356
0.523377
0.523406
0.52343
0.523438
0.523431
0.523416
0.523394
0.523378
0.523388
0.523415
0.523441
0.523468
0.523493
0.523486
0.523455
0.523399
0.523339
0.523323
0.523334
0.523388
0.523513
0.523603
0.523885
0.526428
0.54352
0.607932
0.732333
0.882259
0.966428
1.00275
0.999255
0.995147
1.00153
1.00487
1.00222
0.999203
1.00011
1.00157
1.00113
1.00083
1.00109
1.00132
1.0012
1.00118
1.00124
1.00128
1.00124
1.001
0.523478
0.523473
0.523467
0.523461
0.523455
0.523448
0.52344
0.523433
0.523424
0.523414
0.523405
0.523397
0.52339
0.523383
0.523378
0.523374
0.523371
0.523367
0.523365
0.523362
0.523359
0.523358
0.523358
0.523359
0.52336
0.523361
0.523362
0.523364
0.523368
0.523375
0.523381
0.523389
0.523404
0.523425
0.523446
0.523465
0.52348
0.523493
0.523505
0.523512
0.523512
0.523509
0.523503
0.523489
0.523467
0.523434
0.523396
0.523359
0.52333
0.523317
0.523315
0.523318
0.523334
0.523366
0.523404
0.523435
0.523461
0.523469
0.523469
0.52346
0.523461
0.523466
0.523462
0.523462
0.523467
0.523448
0.523413
0.523366
0.52334
0.523351
0.523397
0.52349
0.523604
0.523673
0.523694
0.523725
0.524298
0.529939
0.563038
0.659087
0.798722
0.923775
0.960754
0.989662
1.01252
1.00845
0.99791
0.998537
1.0023
1.00225
1.00092
1.00086
1.00142
1.0014
1.00117
1.00118
1.00131
1.00129
1.00121
1.00092
0.523471
0.523469
0.523465
0.52346
0.523454
0.52345
0.523445
0.523439
0.523434
0.523429
0.523422
0.523415
0.523408
0.5234
0.523392
0.523386
0.523383
0.523381
0.523379
0.523377
0.523374
0.523376
0.523381
0.523386
0.52339
0.523392
0.523395
0.523402
0.52341
0.523418
0.523425
0.523432
0.523439
0.523444
0.523452
0.523464
0.523477
0.523487
0.523498
0.523506
0.523503
0.523498
0.523492
0.523481
0.52346
0.523432
0.523399
0.523357
0.523317
0.523301
0.5233
0.523305
0.523323
0.523357
0.523406
0.523465
0.523515
0.523528
0.523526
0.523517
0.523504
0.523486
0.523465
0.523451
0.523437
0.523411
0.523382
0.523351
0.523364
0.523413
0.523515
0.523629
0.523682
0.523693
0.52369
0.523626
0.523458
0.523521
0.525303
0.538815
0.599909
0.724835
0.874653
0.970107
1.00204
0.995029
0.994968
1.0025
1.00464
1.00167
0.999781
1.00088
1.00179
1.00136
1.00102
1.00126
1.00137
1.00128
1.00106
1.00074
0.523462
0.523466
0.523471
0.523475
0.52348
0.523485
0.52349
0.523494
0.5235
0.523505
0.523508
0.52351
0.523513
0.523514
0.523514
0.523515
0.523515
0.523515
0.523512
0.523509
0.523506
0.523504
0.523508
0.523514
0.523516
0.523515
0.523512
0.523508
0.523505
0.523499
0.523482
0.523464
0.523458
0.523453
0.523443
0.523433
0.523422
0.523415
0.523418
0.523413
0.523403
0.523402
0.523408
0.52341
0.523407
0.523403
0.523392
0.523371
0.523344
0.523326
0.523329
0.52334
0.523363
0.523406
0.523461
0.523508
0.523534
0.52354
0.523531
0.52352
0.523505
0.523481
0.523453
0.523432
0.523415
0.523396
0.52337
0.523384
0.523431
0.523514
0.52364
0.523699
0.523707
0.523695
0.523604
0.523442
0.523304
0.523223
0.52324
0.523741
0.529063
0.559489
0.659109
0.804407
0.919572
0.965419
0.994953
1.01096
1.00654
0.997775
0.999689
1.0027
1.00202
1.00073
1.00099
1.00148
1.00141
1.00111
1.00092
1.00065
0.523544
0.523554
0.523565
0.523577
0.523588
0.523599
0.523609
0.523618
0.523628
0.523638
0.523648
0.523657
0.523665
0.523673
0.523682
0.523685
0.523687
0.523687
0.523686
0.52368
0.52367
0.523659
0.52365
0.523643
0.523635
0.523624
0.523608
0.523588
0.523565
0.523542
0.523513
0.523479
0.523444
0.523409
0.523375
0.52334
0.523304
0.523286
0.523275
0.523271
0.523272
0.523282
0.523308
0.523344
0.523371
0.523387
0.52341
0.523439
0.52345
0.523452
0.523462
0.523472
0.523482
0.523505
0.523525
0.523516
0.523511
0.523514
0.523503
0.523486
0.523469
0.523451
0.523434
0.523422
0.523422
0.523432
0.523454
0.523502
0.523549
0.523625
0.523689
0.523713
0.523687
0.523585
0.523412
0.523281
0.523229
0.523206
0.523259
0.523365
0.523558
0.525252
0.539778
0.601057
0.731739
0.890771
0.97466
1.00266
0.993353
0.995718
1.00458
1.00391
1.00053
1.00037
1.00158
1.00173
1.00124
1.00091
1.00082
1.00055
0.523613
0.523621
0.523629
0.523637
0.523646
0.523656
0.523665
0.523673
0.523681
0.52369
0.523698
0.523705
0.523712
0.523718
0.523723
0.523723
0.523724
0.523722
0.523715
0.523713
0.523712
0.523697
0.523681
0.523671
0.523662
0.523647
0.523626
0.523597
0.52356
0.523516
0.523472
0.523431
0.52339
0.523348
0.523309
0.52327
0.523224
0.523202
0.523196
0.523195
0.523201
0.523225
0.523266
0.523317
0.523375
0.523438
0.523511
0.523573
0.523599
0.523598
0.52359
0.523573
0.523563
0.523554
0.523533
0.523492
0.523461
0.523441
0.523429
0.523433
0.523434
0.523426
0.523428
0.523458
0.523509
0.523565
0.523632
0.523654
0.523658
0.523681
0.523685
0.523635
0.523516
0.523364
0.523257
0.523205
0.523204
0.52326
0.523419
0.523587
0.523661
0.523676
0.524137
0.529433
0.564462
0.670377
0.816256
0.93918
0.968828
0.998838
1.01025
1.00467
0.99847
1.00043
1.00254
1.00158
1.00089
1.00095
1.00075
1.00039
0.523592
0.523596
0.523601
0.523606
0.523611
0.523616
0.523622
0.523628
0.523634
0.52364
0.523642
0.523642
0.523646
0.523646
0.523638
0.523635
0.523635
0.52363
0.523631
0.523637
0.52363
0.523623
0.523614
0.523594
0.523575
0.523561
0.523548
0.523533
0.523511
0.523478
0.523439
0.523403
0.523367
0.523329
0.523289
0.523254
0.523223
0.523202
0.523198
0.523205
0.523229
0.523272
0.52333
0.523393
0.523458
0.523526
0.52359
0.523637
0.523664
0.52366
0.523628
0.523591
0.523576
0.523542
0.52347
0.523393
0.523369
0.523372
0.523391
0.523416
0.523436
0.52346
0.523515
0.523595
0.523662
0.523725
0.523743
0.523727
0.523703
0.523652
0.523544
0.523392
0.523255
0.523199
0.523197
0.523205
0.523285
0.523445
0.523635
0.52371
0.523697
0.523632
0.523398
0.523442
0.525498
0.542244
0.615897
0.760585
0.905902
0.987517
1.00218
0.991701
0.998886
1.00402
1.00271
1.00031
1.00058
1.00108
1.00056
1.00027
0.523428
0.523427
0.523418
0.523413
0.523411
0.523408
0.523411
0.523413
0.523414
0.523416
0.523412
0.52341
0.523411
0.523412
0.523402
0.523393
0.523389
0.523387
0.52339
0.5234
0.523415
0.523435
0.523454
0.523476
0.523498
0.523513
0.523513
0.523503
0.523488
0.523475
0.523466
0.523457
0.523451
0.523443
0.523423
0.523404
0.523399
0.523388
0.523368
0.523374
0.523408
0.523457
0.523486
0.523498
0.52352
0.523561
0.523596
0.523618
0.523641
0.523632
0.523569
0.523507
0.523483
0.523449
0.523391
0.523346
0.523333
0.523351
0.5234
0.523485
0.523577
0.523661
0.523719
0.523759
0.523775
0.523775
0.52377
0.523732
0.52362
0.523456
0.523283
0.523124
0.523103
0.523139
0.523205
0.523342
0.523536
0.52368
0.523748
0.523745
0.523677
0.523476
0.523148
0.523071
0.523148
0.523959
0.532008
0.575072
0.701174
0.856323
0.943304
0.974985
1.0094
1.00846
1.00298
0.999552
1.0014
1.00126
0.999987
1.00024
0.523256
0.523261
0.523264
0.523263
0.523262
0.523268
0.523278
0.52328
0.52328
0.523286
0.523288
0.523289
0.523288
0.523287
0.523288
0.523289
0.523291
0.523297
0.523308
0.523326
0.523355
0.523393
0.523433
0.523475
0.523511
0.523533
0.52355
0.523566
0.523579
0.523594
0.523618
0.523635
0.523646
0.523656
0.523657
0.523638
0.523607
0.523587
0.523554
0.523516
0.523521
0.523543
0.523534
0.523508
0.523514
0.523492
0.523436
0.523422
0.523428
0.523431
0.523378
0.52335
0.523357
0.523386
0.523385
0.523373
0.523391
0.523472
0.523608
0.523753
0.523862
0.523891
0.52388
0.52384
0.523802
0.523753
0.523664
0.523512
0.523325
0.523183
0.523067
0.523038
0.523065
0.523187
0.523396
0.523641
0.523778
0.523792
0.523779
0.523692
0.523467
0.523204
0.523016
0.523022
0.52314
0.523365
0.523759
0.526877
0.55285
0.64128
0.800959
0.935116
0.999526
0.999406
0.996071
1.00173
1.00319
1.00007
0.999397
1.00083
0.523236
0.523235
0.523236
0.523245
0.523262
0.523278
0.523287
0.523286
0.523287
0.5233
0.523306
0.523304
0.523308
0.523317
0.523327
0.523338
0.523352
0.523379
0.523419
0.523462
0.523526
0.523598
0.523644
0.523688
0.523726
0.523727
0.523718
0.52372
0.523724
0.523715
0.523708
0.523723
0.523737
0.523736
0.52373
0.523709
0.52366
0.523609
0.523583
0.523547
0.523507
0.523491
0.523446
0.523367
0.523378
0.52339
0.523326
0.523263
0.523268
0.523287
0.52329
0.523297
0.523298
0.523332
0.523469
0.523603
0.523693
0.523785
0.523906
0.523983
0.523986
0.523981
0.523942
0.523825
0.523661
0.523486
0.523307
0.523126
0.523047
0.523017
0.523002
0.523039
0.523198
0.523463
0.52371
0.52385
0.523854
0.523822
0.523686
0.523428
0.523175
0.52302
0.523006
0.523119
0.523429
0.523653
0.523711
0.523773
0.524928
0.537228
0.600024
0.742215
0.892484
0.953481
0.987948
1.0101
1.00555
0.99757
0.999306
1.00211
0.523508
0.523531
0.523556
0.523582
0.523606
0.523628
0.523642
0.523653
0.523664