/*--------------------------------*- C++ -*----------------------------------*\
  =========                 |
  \\      /  F ield         | OpenFOAM: The Open Source CFD Toolbox
   \\    /   O peration     | Website:  https://openfoam.org
    \\  /    A nd           | Version:  7
     \\/     M anipulation  |
\*---------------------------------------------------------------------------*/
FoamFile
{
    version     2.0;
    format      ascii;
    class       volScalarField;
    location    "5.5";
    object      T;
}
// * * * * * * * * * * * * * * * * * * * * * * * * * * * * * * * * * * * * * //

dimensions      [0 0 0 1 0 0 0];

internalField   nonuniform List<scalar> 
1750
(
1.36641
1.52465
1.48277
1.43849
1.39452
1.4101
1.43372
1.45177
1.45463
1.45431
0.464355
0.843443
1.41701
1.78444
1.78596
1.76351
1.72688
1.65441
1.61752
1.57284
0.387183
0.383227
0.434861
0.880176
1.28873
1.45842
1.59607
1.61285
1.61142
1.577
0.392357
0.415573
0.440225
0.459653
0.467414
0.605314
0.838636
1.11705
1.24903
1.3233
0.47738
0.492432
0.519282
0.531251
0.534755
0.537616
0.551594
0.57336
0.663459
0.901551
0.571767
0.572474
0.582094
0.593141
0.598159
0.607894
0.61858
0.632746
0.633099
0.637564
0.691083
0.689142
0.689272
0.69204
0.697418
0.697637
0.696309
0.697026
0.698219
0.696469
0.824401
0.811891
0.805313
0.797377
0.786457
0.777325
0.771776
0.764775
0.756419
0.74711
0.958554
0.941736
0.925481
0.910858
0.894661
0.876786
0.862598
0.849389
0.837091
0.820218
1.02951
1.0228
1.014
1.00344
0.990347
0.974814
0.957337
0.939318
0.923243
0.897275
1.03825
1.03727
1.03626
1.03512
1.03283
1.02844
1.02175
1.01245
1.00144
0.978487
1.02614
1.02827
1.03011
1.03173
1.03162
1.03155
1.03133
1.03059
1.02914
1.02283
1.00599
1.00821
1.01073
1.01379
1.01707
1.02021
1.02301
1.02501
1.02672
1.02649
1.00029
1.00052
1.00089
1.00153
1.00257
1.00414
1.0063
1.00905
1.01208
1.01698
1
1.00001
1.00002
1.00004
1.00009
1.00019
1.00041
1.00085
1.00156
1.0042
0.532081
0.448023
0.3989
0.385197
0.469471
0.574487
0.69578
0.837659
0.971504
1.03375
1.03838
1.02326
1.00421
1.00018
1
0.528815
0.444814
0.385394
0.417319
0.512165
0.61704
0.743022
0.887284
1.00384
1.04113
1.03782
1.01763
1.00219
1.00006
1
0.522903
0.426256
0.371571
0.447432
0.534077
0.642963
0.778966
0.926595
1.02415
1.04342
1.03538
1.01329
1.00121
1.00003
1
0.520442
0.403475
0.359092
0.456229
0.542209
0.671315
0.831095
0.969474
1.03795
1.04439
1.03255
1.00915
1.00057
1.00001
1
0.518866
0.383615
0.374479
0.459231
0.591384
0.73866
0.886571
1.00084
1.04549
1.04478
1.02744
1.00498
1.00022
1
1
0.511554
0.364971
0.402643
0.49158
0.645518
0.80035
0.934073
1.02557
1.04912
1.04391
1.01913
1.00239
1.00008
1
1
0.504425
0.34974
0.417105
0.561915
0.716282
0.854214
0.978357
1.04362
1.05039
1.03851
1.01228
1.0011
1.00003
1
1
0.496842
0.383956
0.432231
0.62403
0.77581
0.913285
1.01847
1.05201
1.05051
1.03085
1.00701
1.0004
1.00001
1
1
0.495253
0.427855
0.527881
0.698092
0.847501
0.975364
1.04289
1.05445
1.04689
1.02188
1.00309
1.00013
1
1
1
0.463731
0.457689
0.628424
0.78933
0.924378
1.01831
1.05505
1.05497
1.0402
1.01241
1.00107
1.00003
1
1
1
0.200696
0.454221
0.707084
0.875633
0.989023
1.04648
1.05906
1.05358
1.02901
1.00542
1.00032
1.00001
1
1
1
0.110593
0.60893
0.817166
0.954208
1.03323
1.06065
1.05998
1.04574
1.01643
1.002
1.00008
1
1
1
1
0.237291
0.710476
0.915058
1.01744
1.05889
1.06436
1.05759
1.03229
1.00703
1.00051
1.00002
1
1
1
1
0.488075
0.825629
0.998763
1.05329
1.06812
1.06519
1.04666
1.01566
1.00188
1.00009
1
1
1
1
1
0.835587
0.998889
1.05394
1.06591
1.06934
1.05724
1.02712
1.005
1.00033
1.00001
1
1
1
1
1
1.0664
1.0678
1.06888
1.06786
1.06522
1.03863
1.00954
1.00048
1.00001
1
1
1
1
1
1
1.06634
1.06845
1.06965
1.06647
1.06132
1.03506
1.00949
1.00085
1.00003
1
1
1
1
1
1
1.06656
1.06981
1.0707
1.06689
1.05464
1.0218
1.00279
1.00011
1
1
1
1
1
1
1
1.06646
1.07037
1.07077
1.06438
1.04335
1.01302
1.00117
1.00004
1
1
1
1
1
1
1
1.0662
1.07051
1.0702
1.05884
1.03206
1.00639
1.00038
1.00001
1
1
1
1
1
1
1
1.0674
1.07104
1.06964
1.0513
1.02067
1.00262
1.00011
1
1
1
1
1
1
1
1
1.072
1.07171
1.06843
1.04018
1.01022
1.00086
1.00003
1
1
1
1
1
1
1
1
1.07816
1.06641
1.05869
1.02575
1.00462
1.00027
1.00001
1
1
1
1
1
1
1
1
1.08359
1.06116
1.04565
1.01493
1.00166
1.00006
1
1
1
1
1
1
1
1
1
1.08638
1.05559
1.03041
1.00649
1.0005
1.00002
1
1
1
1
1
1
1
1
1
1.08577
1.04494
1.01796
1.00252
1.00012
1
1
1
1
1
1
1
1
1
1
1.07503
1.03316
1.00883
1.00079
1.00003
1
1
1
1
1
1
1
1
1
1
1.06261
1.02086
1.00326
1.00017
1
1
1
1
1
1
1
1
1
1
1
1.04339
1.00947
1.00081
1.00003
1
1
1
1
1
1
1
1
1
1
1
1.0196
1.00266
1.00011
1
1
1
1
1
1
1
1
1
1
1
1
1
1
1
1
1
1
1
1
1
1
1
1
1
1
1
1
1
1
1
1
1
1
1
1
1
1
1
1
1
1
1
1
1
1
1
1
1
1
1
1
1
1
1
1
1
1
1
1
1
1
1
1
1
1
1
1
1
1
1
1
1
1
1
1
1
1
1
1
1
1
1
1
1
1
1
1
1
1
1
1
1
1
1
1
1
1
1
1
1
1
1
1
1
1
1
1
1
1
1
1
1
1
1
1
1
1
1
1
1
1
1
1
1
1
1
1
1
1
1
1
1
1
1
1
1
1
1
1
1
1
1
1
1
1
1
1
1
1
1
1
1
1
1
1
1
1
1
1
1
1
1
1
1
1
1
1
1
1
1
1
1
1
1
1
1
1
1
1
1
1
1
1
1
1
1
1
1
1
1
1
1
1
1
1
1
1
1
1
1
1
1
1
1
1
1
1
1
1
1
1
1
1
1
1
1
1
1
1
1
1
1
1
1
1
1
1
1
1
1
1
1
1
1
1
1
1
1
1
1
1
1
1
1
1
1
1
1
1
1
1
1
1
1
1
1
1
1
1
1
1
1
1
1
1
1
1
1
1
1
1
1
1
1
1
1
1
1
1
1
1
1
1
1
1
1
1
1
1
1
1
1
1
1
1
1
1
1
1
1
1
1
1
1
1
1
1
1
1
1
1
1
1
1
1
1
1
1
1
1
1
1
1
1
1
1
1
1
1
1
1
1
1
1
1
1
1
1
1
1
1
1
1
1
1
1
1
1
1
1
1
1
1
1
1
1
1
1
1
1
1
1.37885
0.999997
1
1
1
1
1
1
1
1
1
1
1
1
1
1
1
1
1
1
2.36095
1.9801
1.26121
0.999998
1
1
1
1
1
1
1
1
1
1
1
1
1
1
1
1
2.36521
2.30352
2.34231
1.89264
1.07696
1
1
1
1
1
1
1
1
1
1
1
1
1
1
1
2.29491
2.26442
2.32533
2.31364
2.0504
1.22433
0.9998
1
1
1
1
1
1
1
1
1
1
1
1
1
2.25238
2.24331
2.27244
2.29053
2.30809
2.05767
1.27057
0.999433
1
1
1
1
1
1
1
1
1
1
1
1
2.23362
2.23528
2.26054
2.28276
2.29904
2.25134
1.96973
1.21782
0.999418
1
1
1
1
1
1
1
1
1
1
1
2.23125
2.23823
2.26073
2.27811
2.2879
2.26733
2.19682
1.85379
1.12389
0.999562
1
1
1
1
1
1
1
1
1
1
2.2343
2.2426
2.25933
2.27436
2.27962
2.26651
2.24801
2.17141
1.72514
1.04365
0.999849
1
1
1
1
1
1
1
1
1
2.23489
2.24226
2.25517
2.2688
2.27165
2.26197
2.23745
2.19848
2.07647
1.49082
1.00166
1
1
1
1
1
1
1
1
1
2.23176
2.23508
2.24584
2.25996
2.26419
2.25716
2.23458
2.20018
2.17319
2.01936
1.30097
0.998844
1
1
1
1
1
1
1
1
2.22358
2.22373
2.23441
2.24954
2.25562
2.25065
2.23104
2.19802
2.17265
2.14845
1.83781
1.11365
0.999496
1
1
1
1
1
1
1
2.21309
2.21264
2.2244
2.23974
2.24579
2.24256
2.22616
2.19283
2.16575
2.13653
2.0639
1.52478
1.00762
1
1
1
1
1
1
1
2.20562
2.20591
2.21722
2.23101
2.2358
2.23402
2.21879
2.18547
2.15454
2.12969
2.13381
1.96662
1.25922
0.999139
0.99999
1
1
1
1
1
2.19878
2.19827
2.20806
2.22122
2.22665
2.2271
2.21436
2.18584
2.15585
2.1348
2.13352
2.07272
1.66465
1.04075
1.00003
1
1
1
1
1
2.19488
2.1975
2.20827
2.21758
2.22051
2.21609
2.20242
2.18066
2.15563
2.13611
2.12632
2.09762
1.96535
1.28355
0.987894
0.999715
0.999999
1
1
1
1.62184
1.84216
1.92964
1.99386
2.04287
2.08406
2.10665
2.11383
2.10727
2.10019
2.09787
2.0882
2.07803
1.86422
1.23301
1.00549
1.00003
1
1
1
1.18473
1.5457
1.67439
1.781
1.86252
1.92361
1.97903
2.01286
2.03084
2.03293
2.04096
2.04938
2.05844
2.03868
1.73025
1.14294
1.00261
1.00001
1
1
1.19465
1.36722
1.45946
1.56615
1.68768
1.77326
1.8517
1.90276
1.94024
1.95426
1.97296
1.99004
2.01874
2.019
1.96568
1.52646
1.05034
1.0005
1
1
1.27558
1.30402
1.33619
1.42575
1.53188
1.63787
1.7239
1.80207
1.84447
1.88185
1.90476
1.93328
1.95427
1.98154
1.96976
1.81727
1.28756
1.01058
1.00006
1
1.34672
1.27214
1.25213
1.34505
1.42796
1.53173
1.61458
1.70422
1.7611
1.8087
1.84291
1.87702
1.9003
1.92398
1.94919
1.91979
1.59549
1.0958
1.0014
1.00001
1.36711
1.27658
1.22175
1.2555
1.32694
1.42739
1.52135
1.5998
1.67985
1.72699
1.77927
1.81243
1.84372
1.86291
1.90957
1.91025
1.79962
1.32399
1.01514
1.0001
1.35811
1.28844
1.23842
1.2384
1.26109
1.33201
1.43589
1.51459
1.60345
1.66356
1.71389
1.75609
1.78282
1.80947
1.85364
1.88834
1.85765
1.58684
1.1006
1.00143
1.34224
1.29667
1.25778
1.2269
1.23098
1.29029
1.37534
1.45684
1.53793
1.61511
1.66276
1.71275
1.73677
1.76813
1.80807
1.85454
1.84706
1.70042
1.26846
1.01164
1.32524
1.29768
1.25362
1.21233
1.2048
1.25049
1.31707
1.40294
1.47369
1.56076
1.61502
1.66329
1.69554
1.72214
1.75918
1.80712
1.82538
1.7558
1.43789
1.0516
1.3223
1.29897
1.25321
1.21041
1.19484
1.21709
1.25198
1.33598
1.40771
1.4882
1.55854
1.60182
1.64537
1.6728
1.70916
1.75865
1.80353
1.78313
1.59809
1.17119
1.32781
1.30348
1.25585
1.21444
1.2016
1.21497
1.23143
1.29115
1.36761
1.43507
1.51359
1.56011
1.60393
1.6391
1.67734
1.72436
1.77573
1.77821
1.665
1.33614
1.32782
1.30422
1.26006
1.22319
1.20992
1.20697
1.21754
1.26868
1.341
1.40504
1.47573
1.52711
1.56921
1.60889
1.64593
1.68636
1.73457
1.76336
1.68792
1.49248
1.32458
1.30229
1.2629
1.22794
1.20901
1.1968
1.2037
1.24124
1.30469
1.36952
1.42729
1.48775
1.52283
1.56985
1.60914
1.64335
1.69428
1.7381
1.69454
1.6288
1.31846
1.2972
1.26418
1.22935
1.20818
1.19721
1.20048
1.21966
1.25206
1.32263
1.37206
1.43897
1.47525
1.52469
1.57158
1.6128
1.66266
1.71024
1.71015
1.73545
1.30603
1.29535
1.26556
1.23324
1.21064
1.20025
1.20258
1.22022
1.2383
1.29287
1.34403
1.40257
1.44996
1.4898
1.54146
1.5848
1.62443
1.67266
1.72921
1.82093
1.29938
1.28462
1.26109
1.23346
1.21189
1.20135
1.20806
1.21902
1.23019
1.27441
1.32578
1.37605
1.42831
1.46384
1.50828
1.55442
1.59033
1.63699
1.729
1.89682
1.28863
1.25892
1.24847
1.23054
1.21044
1.20118
1.20606
1.20606
1.2125
1.24632
1.3032
1.34654
1.39449
1.43583
1.47371
1.5169
1.56142
1.61147
1.73752
1.95952
1.2484
1.2172
1.2216
1.22156
1.20895
1.20177
1.20109
1.19933
1.2053
1.22474
1.26613
1.31796
1.35679
1.40264
1.44668
1.48723
1.5276
1.58226
1.74277
2.00394
1.18882
1.16845
1.18621
1.20487
1.20622
1.20073
1.19889
1.1986
1.20499
1.22084
1.23163
1.28214
1.32903
1.36879
1.41614
1.46077
1.49825
1.56201
1.74519
2.0382
1.15393
1.12901
1.14225
1.17936
1.19954
1.19843
1.19549
1.1929
1.19932
1.21195
1.21806
1.24755
1.29556
1.33902
1.38143
1.42442
1.46722
1.55733
1.76426
2.06789
1.15311
1.10202
1.10462
1.14879
1.1827
1.19321
1.18849
1.18381
1.18539
1.19206
1.20424
1.22927
1.26297
1.30791
1.34923
1.39116
1.43778
1.54945
1.75806
2.05548
1.17181
1.09687
1.08299
1.11455
1.15154
1.17879
1.18389
1.18074
1.1774
1.17776
1.18703
1.21137
1.23623
1.27376
1.31252
1.35585
1.41318
1.55902
1.7582
2.0388
1.2173
1.12059
1.08453
1.08541
1.11286
1.155
1.17748
1.17808
1.17515
1.17235
1.1716
1.1873
1.20921
1.24188
1.27857
1.32087
1.39184
1.58292
1.75315
2.01302
1.25634
1.15436
1.09468
1.07599
1.08133
1.12242
1.15865
1.173
1.17162
1.16762
1.16467
1.17067
1.18207
1.211
1.24578
1.29167
1.38969
1.60933
1.73415
1.96384
1.30766
1.20946
1.15709
1.10951
1.08537
1.09456
1.11671
1.14476
1.15448
1.15341
1.15082
1.14612
1.14445
1.16571
1.19836
1.27093
1.42925
1.63383
1.68883
1.86455
)
;

boundaryField
{
    inlet
    {
        type            fixedValue;
        value           uniform 1;
    }
    outlet
    {
        type            inletOutlet;
        inletValue      uniform 1;
        value           nonuniform List<scalar> 
35
(
1.3078
1.20963
1.15725
1.10955
1.08523
1.09438
1.11645
1.14449
1.15419
1.15312
1.15052
1.14581
1.14415
1.16542
1.19804
1.2703
1.42783
1.63259
1.68824
1.86446
1.45435
1.5727
1.57649
1.32223
0.900672
0.637484
0.696473
0.747135
0.820203
0.897264
0.978489
1.02283
1.02649
1.01698
1.0042
)
;
    }
    airfoil
    {
        type            zeroGradient;
    }
    top
    {
        type            symmetryPlane;
    }
    bottom
    {
        type            symmetryPlane;
    }
    defaultFaces
    {
        type            empty;
    }
}


// ************************************************************************* //
