/*--------------------------------*- C++ -*----------------------------------*\
  =========                 |
  \\      /  F ield         | OpenFOAM: The Open Source CFD Toolbox
   \\    /   O peration     | Website:  https://openfoam.org
    \\  /    A nd           | Version:  7
     \\/     M anipulation  |
\*---------------------------------------------------------------------------*/
FoamFile
{
    version     2.0;
    format      ascii;
    class       volScalarField;
    location    "1.6";
    object      rho;
}
// * * * * * * * * * * * * * * * * * * * * * * * * * * * * * * * * * * * * * //

dimensions      [1 -3 0 0 0 0 0];

internalField   nonuniform List<scalar> 
1750
(
0.234306
0.403967
0.554496
0.757285
0.895953
0.950161
1.00004
1.07926
1.10014
1.12349
0.0864147
0.168461
0.337334
0.472859
0.669867
0.956512
1.05187
1.07444
1.06033
1.08589
0.0813484
0.0861383
0.110839
0.136209
0.217661
0.558186
0.966357
1.08512
1.0918
1.09778
0.106318
0.131238
0.142801
0.156224
0.196995
0.283686
0.503699
0.765644
0.944496
1.04743
0.205853
0.215698
0.219379
0.23948
0.28371
0.374684
0.469814
0.499782
0.557505
0.717668
0.303654
0.320009
0.344344
0.363242
0.386797
0.464558
0.567347
0.596886
0.606396
0.692373
0.501842
0.499965
0.501393
0.512343
0.537981
0.592795
0.686262
0.74067
0.758539
0.813962
0.799777
0.779135
0.764681
0.762031
0.768044
0.788934
0.825727
0.8582
0.882008
0.955383
1.16352
1.12987
1.09354
1.05605
1.04007
1.03174
1.02691
1.04241
1.06999
1.1428
1.38225
1.36115
1.33591
1.30288
1.27301
1.25031
1.23216
1.23402
1.24942
1.29866
1.41539
1.40948
1.40278
1.39308
1.38117
1.36974
1.36161
1.36165
1.3664
1.38122
1.40818
1.4056
1.40318
1.40138
1.39957
1.39778
1.39678
1.39684
1.39739
1.39881
1.40092
1.40077
1.40057
1.40029
1.40009
1.39996
1.39991
1.39992
1.39994
1.39998
1.40002
1.40002
1.40002
1.40002
1.40001
1.40001
1.4
1.4
1.4
1.4
1.40001
1.40001
1.40001
1.40001
1.40001
1.40001
1.40001
1.40001
1.40001
1.40001
0.088458
0.0708724
0.0792321
0.0869406
0.171615
0.299095
0.505982
0.825076
1.2013
1.39794
1.4205
1.41002
1.401
1.40002
1.40001
0.0764013
0.0543694
0.0757331
0.107438
0.205195
0.374216
0.620103
0.963459
1.30064
1.42413
1.42546
1.40958
1.40063
1.40001
1.40001
0.067618
0.0501247
0.0742613
0.130965
0.244677
0.430043
0.694823
1.05699
1.35778
1.43437
1.42848
1.40772
1.40039
1.40001
1.40001
0.0611085
0.048495
0.0782684
0.166643
0.294165
0.489264
0.79496
1.17544
1.41028
1.44224
1.42937
1.40571
1.40022
1.40001
1.40001
0.0571974
0.047577
0.0908913
0.190179
0.331459
0.565809
0.93375
1.29241
1.44292
1.44786
1.42634
1.40357
1.40011
1.40001
1.40001
0.047845
0.0579707
0.107783
0.206995
0.382956
0.705681
1.08572
1.37651
1.45848
1.45238
1.4207
1.40193
1.40005
1.40001
1.40001
0.0358593
0.0628299
0.121369
0.241925
0.504085
0.858988
1.21637
1.43544
1.46807
1.45382
1.41464
1.40094
1.40002
1.40001
1.40001
0.0256531
0.0604081
0.145061
0.329559
0.654747
1.01207
1.33815
1.47188
1.47373
1.44387
1.408
1.40036
1.40001
1.40001
1.40001
0.018644
0.05604
0.193952
0.468291
0.81236
1.18396
1.43238
1.48747
1.47666
1.43182
1.40386
1.40014
1.40001
1.40001
1.40001
0.0155214
0.0909663
0.287243
0.625334
1.00952
1.34426
1.4846
1.49423
1.46792
1.4191
1.40147
1.40004
1.40001
1.40001
1.40001
0.0172224
0.160883
0.445596
0.83488
1.22841
1.45384
1.50488
1.49698
1.45074
1.40909
1.40049
1.40002
1.40001
1.40001
1.40001
0.0405371
0.25987
0.683767
1.11055
1.39802
1.50862
1.51222
1.4859
1.42995
1.40337
1.40013
1.40001
1.40001
1.40001
1.40001
0.185134
0.519562
0.991218
1.33553
1.49821
1.52584
1.51511
1.46275
1.41343
1.40095
1.40003
1.40001
1.40001
1.40001
1.40001
0.429435
0.882637
1.28933
1.47928
1.53679
1.53047
1.49489
1.43353
1.40422
1.4002
1.40001
1.40001
1.40001
1.40001
1.40001
0.913359
1.27758
1.48334
1.53877
1.54476
1.52336
1.46191
1.41262
1.40091
1.40003
1.40001
1.40001
1.40001
1.40001
1.40001
1.54408
1.54723
1.5496
1.5469
1.5453
1.48899
1.42281
1.4013
1.40002
1.40001
1.40001
1.40001
1.40001
1.40001
1.40001
1.54517
1.54951
1.55214
1.54669
1.53501
1.47602
1.41923
1.40205
1.40009
1.40001
1.40001
1.40001
1.40001
1.40001
1.40001
1.54598
1.55297
1.55532
1.54589
1.51814
1.45057
1.4079
1.40038
1.40001
1.40001
1.40001
1.40001
1.40001
1.40001
1.40001
1.5466
1.55647
1.55699
1.54036
1.49783
1.43015
1.40318
1.40012
1.40001
1.40001
1.40001
1.40001
1.40001
1.40001
1.40001
1.54727
1.5595
1.55772
1.53028
1.47101
1.41547
1.40116
1.40004
1.40001
1.40001
1.40001
1.40001
1.40001
1.40001
1.40001
1.55064
1.56073
1.55713
1.5128
1.4452
1.40695
1.40035
1.40001
1.40001
1.40001
1.40001
1.40001
1.40001
1.40001
1.40001
1.55565
1.55578
1.54713
1.48682
1.42511
1.40251
1.4001
1.40001
1.40001
1.40001
1.40001
1.40001
1.40001
1.40001
1.40001
1.57139
1.54628
1.5298
1.4595
1.41194
1.40083
1.40003
1.40001
1.40001
1.40001
1.40001
1.40001
1.40001
1.40001
1.40001
1.58468
1.53784
1.50205
1.43381
1.40445
1.40023
1.40001
1.40001
1.40001
1.40001
1.40001
1.40001
1.40001
1.40001
1.40001
1.59086
1.52343
1.46874
1.41642
1.4015
1.40006
1.40001
1.40001
1.40001
1.40001
1.40001
1.40001
1.40001
1.40001
1.40001
1.59026
1.50014
1.44159
1.40663
1.4004
1.40002
1.40001
1.40001
1.40001
1.40001
1.40001
1.40001
1.40001
1.40001
1.40001
1.56899
1.47317
1.42015
1.40204
1.40009
1.40001
1.40001
1.40001
1.40001
1.40001
1.40001
1.40001
1.40001
1.40001
1.40001
1.53834
1.44576
1.408
1.40049
1.40002
1.40001
1.40001
1.40001
1.40001
1.40001
1.40001
1.40001
1.40001
1.40001
1.40001
1.49579
1.42128
1.40202
1.40008
1.40001
1.40001
1.40001
1.40001
1.40001
1.40001
1.40001
1.40001
1.40001
1.40001
1.40001
1.44276
1.40611
1.40031
1.40001
1.40001
1.40001
1.40001
1.40001
1.40001
1.40001
1.40001
1.40001
1.40001
1.40001
1.40001
1.40001
1.40001
1.40001
1.40001
1.40001
1.40001
1.40001
1.40001
1.40001
1.40001
1.40001
1.40001
1.40001
1.40001
1.40001
1.40001
1.40001
1.40001
1.40001
1.40001
1.40001
1.40001
1.40001
1.40001
1.40001
1.40001
1.40001
1.40001
1.40001
1.40001
1.40001
1.40001
1.40001
1.40001
1.40001
1.40001
1.40001
1.40001
1.40001
1.40001
1.40001
1.40001
1.40001
1.40001
1.40001
1.40001
1.40001
1.40001
1.40001
1.40001
1.40001
1.40001
1.40001
1.40001
1.40001
1.40001
1.40001
1.40001
1.40001
1.40001
1.40001
1.40001
1.40001
1.40001
1.40001
1.40001
1.40001
1.40001
1.40001
1.40001
1.40001
1.40001
1.40001
1.40001
1.40001
1.40001
1.40001
1.40001
1.40001
1.40001
1.40001
1.40001
1.40001
1.40001
1.40001
1.40001
1.40001
1.40001
1.40001
1.40001
1.40001
1.40001
1.40001
1.40001
1.40001
1.40001
1.40001
1.40001
1.40001
1.40001
1.40001
1.40001
1.40001
1.40001
1.40001
1.40001
1.40001
1.40001
1.40001
1.40001
1.40001
1.40001
1.40001
1.40001
1.40001
1.40001
1.40001
1.40001
1.40001
1.40001
1.40001
1.40001
1.40001
1.40001
1.40001
1.40001
1.40001
1.40001
1.40001
1.40001
1.40001
1.40001
1.40001
1.40001
1.40001
1.40001
1.40001
1.40001
1.40001
1.40001
1.40001
1.40001
1.40001
1.40001
1.40001
1.40001
1.40001
1.40001
1.40001
1.40001
1.40001
1.40001
1.40001
1.40001
1.40001
1.40001
1.40001
1.40001
1.40001
1.40001
1.40001
1.40001
1.40001
1.40001
1.40001
1.40001
1.40001
1.40001
1.40001
1.40001
1.40001
1.40001
1.40001
1.40001
1.40001
1.40001
1.40001
1.40001
1.40001
1.40001
1.40001
1.40001
1.40001
1.40001
1.40001
1.40001
1.40001
1.40001
1.40001
1.40001
1.40001
1.40001
1.40001
1.40001
1.40001
1.40001
1.40001
1.40001
1.40001
1.40001
1.40001
1.40001
1.40001
1.40001
1.40001
1.40001
1.40001
1.40001
1.40001
1.40001
1.40001
1.40001
1.40001
1.40001
1.40001
1.40001
1.40001
1.40001
1.40001
1.40001
1.40001
1.40001
1.40001
1.40001
1.40001
1.40001
1.40001
1.40001
1.40001
1.40001
1.40001
1.40001
1.40001
1.40001
1.40001
1.40001
1.40001
1.40001
1.40001
1.40001
1.40001
1.40001
1.40001
1.40001
1.40001
1.40001
1.40001
1.40001
1.40001
1.40001
1.40001
1.40001
1.40001
1.40001
1.40001
1.40001
1.40001
1.40001
1.40001
1.40001
1.40001
1.40001
1.40001
1.40001
1.40001
1.40001
1.40001
1.40001
1.40001
1.40001
1.40001
1.40001
1.40001
1.40001
1.40001
1.40001
1.40001
1.40001
1.40001
1.40001
1.40001
1.40001
1.40001
1.40001
1.40001
1.40001
1.40001
1.40001
1.40001
1.40001
1.40001
1.40001
1.40001
1.40001
1.40001
1.40001
1.40001
1.40001
1.40001
1.40001
1.40001
1.40001
1.40001
1.40001
1.40001
1.40001
1.40001
1.40001
1.40001
1.40001
1.40001
1.40001
1.40001
1.40001
1.40001
1.40001
1.40001
1.40001
1.40001
1.40001
1.40001
1.40001
1.40001
1.40001
1.40001
1.40001
1.40001
1.40001
1.40001
1.40001
1.40001
1.40001
1.40001
1.40001
1.40001
1.40001
1.40001
1.40001
1.40001
1.40001
1.40001
1.40001
1.40001
1.40001
1.40001
1.40001
1.40001
1.40001
1.40001
1.40001
2.4026
1.39976
1.40001
1.40001
1.40001
1.40001
1.40001
1.40001
1.40001
1.40001
1.40001
1.40001
1.40001
1.40001
1.40001
1.40001
1.40001
1.40001
1.40001
1.40001
5.70464
2.89556
1.41305
1.4
1.40001
1.40001
1.40001
1.40001
1.40001
1.40001
1.40001
1.40001
1.40001
1.40001
1.40001
1.40001
1.40001
1.40001
1.40001
1.40001
6.72899
5.27828
4.14575
2.06918
1.39948
1.40001
1.40001
1.40001
1.40001
1.40001
1.40001
1.40001
1.40001
1.40001
1.40001
1.40001
1.40001
1.40001
1.40001
1.40001
5.58958
4.8675
4.89818
4.32878
2.27605
1.39774
1.40001
1.40001
1.40001
1.40001
1.40001
1.40001
1.40001
1.40001
1.40001
1.40001
1.40001
1.40001
1.40001
1.40001
4.91446
4.65106
4.63875
4.54823
3.97055
1.91475
1.39819
1.40001
1.40001
1.40001
1.40001
1.40001
1.40001
1.40001
1.40001
1.40001
1.40001
1.40001
1.40001
1.40001
4.62183
4.50896
4.47225
4.39205
4.30159
3.13858
1.4969
1.4
1.40001
1.40001
1.40001
1.40001
1.40001
1.40001
1.40001
1.40001
1.40001
1.40001
1.40001
1.40001
4.49164
4.41314
4.38496
4.30844
4.34058
4.01964
2.06672
1.39754
1.40001
1.40001
1.40001
1.40001
1.40001
1.40001
1.40001
1.40001
1.40001
1.40001
1.40001
1.40001
4.43322
4.36352
4.33362
4.26465
4.30381
4.22025
3.058
1.47942
1.4
1.40001
1.40001
1.40001
1.40001
1.40001
1.40001
1.40001
1.40001
1.40001
1.40001
1.40001
4.41228
4.34842
4.32008
4.26912
4.30588
4.30293
3.82912
1.84949
1.39956
1.40001
1.40001
1.40001
1.40001
1.40001
1.40001
1.40001
1.40001
1.40001
1.40001
1.40001
4.41871
4.359
4.33005
4.277
4.26766
4.26035
4.14018
2.59689
1.40752
1.40001
1.40001
1.40001
1.40001
1.40001
1.40001
1.40001
1.40001
1.40001
1.40001
1.40001
4.41822
4.36378
4.33743
4.29228
4.27683
4.28519
4.27589
3.36669
1.54317
1.4
1.40001
1.40001
1.40001
1.40001
1.40001
1.40001
1.40001
1.40001
1.40001
1.40001
4.40694
4.36006
4.34157
4.30159
4.27683
4.28912
4.2974
3.86708
1.97595
1.39982
1.40001
1.40001
1.40001
1.40001
1.40001
1.40001
1.40001
1.40001
1.40001
1.40001
4.39146
4.35519
4.33504
4.30178
4.2866
4.31312
4.35177
4.20652
2.59008
1.40414
1.40001
1.40001
1.40001
1.40001
1.40001
1.40001
1.40001
1.40001
1.40001
1.40001
4.38668
4.36541
4.36114
4.33491
4.30239
4.31713
4.34951
4.32945
3.35074
1.62942
1.4
1.40001
1.40001
1.40001
1.40001
1.40001
1.40001
1.40001
1.40001
1.40001
4.40215
4.37409
4.37927
4.36517
4.32676
4.33615
4.3776
4.40338
3.73982
1.66762
1.38538
1.40001
1.40001
1.40001
1.40001
1.40001
1.40001
1.40001
1.40001
1.40001
1.98672
2.90877
3.43085
3.75836
3.94083
4.06825
4.21056
4.33202
4.31052
3.17681
1.73662
1.41039
1.40009
1.40001
1.40001
1.40001
1.40001
1.40001
1.40001
1.40001
0.678287
1.71828
2.33438
2.83984
3.22688
3.47623
3.74265
4.05842
4.22149
3.93078
2.78591
1.60903
1.40493
1.40004
1.40001
1.40001
1.40001
1.40001
1.40001
1.40001
0.450732
1.10002
1.58661
2.02642
2.48453
2.85547
3.14773
3.5015
3.88471
3.7684
3.52116
2.29245
1.48492
1.40128
1.40001
1.40001
1.40001
1.40001
1.40001
1.40001
0.483619
0.847821
1.16828
1.54622
1.90369
2.32174
2.66206
2.96692
3.30395
3.52775
3.54323
3.06449
1.84535
1.42052
1.40018
1.40001
1.40001
1.40001
1.40001
1.40001
0.563176
0.70672
0.831802
1.19764
1.52342
1.85674
2.22894
2.52182
2.81136
3.17716
3.39716
3.30266
2.45461
1.5323
1.40225
1.40002
1.40001
1.40001
1.40001
1.40001
0.664157
0.66252
0.668565
0.899202
1.23847
1.51059
1.80142
2.06999
2.37257
2.77089
3.12541
3.17245
2.84048
1.80121
1.41645
1.40012
1.40001
1.40001
1.40001
1.40001
0.755424
0.679436
0.682954
0.855923
1.06256
1.30228
1.50356
1.73882
1.97801
2.33574
2.77204
2.95608
2.86782
2.10529
1.46335
1.40075
1.40001
1.40001
1.40001
1.40001
0.763315
0.706035
0.721309
0.815811
0.924524
1.14054
1.33777
1.56668
1.77508
2.03529
2.42084
2.74321
2.75949
2.33096
1.56297
1.40344
1.40002
1.40001
1.40001
1.40001
0.747695
0.719327
0.746069
0.753219
0.776287
0.972148
1.17088
1.39891
1.6217
1.85196
2.18432
2.58432
2.6961
2.47701
1.69398
1.41067
1.40007
1.40001
1.40001
1.40001
0.72987
0.731728
0.74241
0.712764
0.702064
0.818774
1.00412
1.16368
1.40136
1.63587
1.97217
2.43427
2.61203
2.51332
1.82913
1.42482
1.4002
1.40001
1.40001
1.40001
0.731483
0.740194
0.744516
0.711712
0.701882
0.776034
0.921959
1.07031
1.24691
1.4184
1.71613
2.22327
2.46626
2.45274
1.91216
1.4445
1.40048
1.40001
1.40001
1.40001
0.729657
0.740624
0.751662
0.721434
0.709707
0.761549
0.868958
1.03316
1.18161
1.35797
1.6026
2.05303
2.35609
2.39065
1.95624
1.46116
1.40081
1.40001
1.40001
1.40001
0.719796
0.734096
0.751762
0.740934
0.735353
0.764766
0.80013
0.959854
1.11261
1.31094
1.56879
2.01451
2.32774
2.36904
1.95502
1.46668
1.401
1.40001
1.40001
1.40001
0.712123
0.727363
0.750617
0.764292
0.775417
0.780047
0.789034
0.873387
1.01068
1.20962
1.49125
1.9628
2.28556
2.32357
1.93396
1.46554
1.40103
1.40001
1.40001
1.40001
0.747821
0.748952
0.761568
0.796743
0.82001
0.813494
0.80267
0.864132
0.994088
1.13686
1.39781
1.85156
2.20293
2.24839
1.89243
1.46056
1.40097
1.40001
1.40001
1.40001
0.707252
0.779012
0.80818
0.847438
0.856676
0.84585
0.837356
0.873953
0.99539
1.12647
1.37735
1.82066
2.13946
2.17297
1.82215
1.44703
1.40068
1.40001
1.40001
1.40001
0.64805
0.783315
0.862514
0.898062
0.892547
0.871022
0.864648
0.87985
0.974933
1.12555
1.38477
1.83905
2.11011
2.09792
1.73122
1.42995
1.40037
1.40001
1.40001
1.40001
0.662969
0.807585
0.924591
0.958313
0.945246
0.90864
0.901134
0.905665
0.968098
1.15398
1.43324
1.8951
2.07861
2.00988
1.62787
1.41438
1.40014
1.40001
1.40001
1.40001
0.802075
0.905235
1.00576
1.04649
1.03412
0.9966
0.980374
0.967037
0.998532
1.21855
1.52965
1.94336
2.02964
1.89084
1.52341
1.40446
1.40003
1.40001
1.40001
1.40001
0.949384
1.03497
1.08069
1.11882
1.11954
1.09809
1.09865
1.06073
1.07373
1.31141
1.65928
1.94876
1.95406
1.72131
1.44199
1.40071
1.40001
1.40001
1.40001
1.40001
0.996458
1.05741
1.08759
1.12431
1.15716
1.15571
1.19566
1.19346
1.20031
1.45364
1.75844
1.89774
1.81279
1.53094
1.40644
1.40005
1.4
1.4
1.40001
1.40001
1.04533
1.05293
1.06518
1.1025
1.15125
1.20045
1.2624
1.32596
1.38707
1.57472
1.76145
1.76178
1.58719
1.42151
1.40032
1.4
1.4
1.40001
1.40001
1.40001
1.10415
1.08936
1.06662
1.0934
1.1418
1.22771
1.30259
1.38067
1.46259
1.58744
1.64831
1.55255
1.4291
1.40081
1.39999
1.4
1.4
1.40001
1.40001
1.40001
1.17825
1.16537
1.11296
1.10385
1.12441
1.20901
1.29085
1.37404
1.45391
1.50547
1.45994
1.41123
1.39976
1.39987
1.39999
1.4
1.40001
1.40001
1.40001
1.40001
1.19457
1.2077
1.19338
1.15705
1.15306
1.18547
1.22979
1.29069
1.33845
1.35437
1.37422
1.394
1.3994
1.39996
1.4
1.4
1.40001
1.40001
1.40001
1.40001
)
;

boundaryField
{
    inlet
    {
        type            calculated;
        value           uniform 1.40001;
    }
    outlet
    {
        type            calculated;
        value           nonuniform List<scalar> 
35
(
1.1953
1.2078
1.1933
1.1568
1.15278
1.18547
1.23011
1.29168
1.34051
1.35638
1.37452
1.3939
1.39939
1.39996
1.4
1.4
1.40001
1.40001
1.40001
1.40001
1.12507
1.08871
1.10111
1.05091
0.719043
0.691976
0.813121
0.954084
1.14142
1.29759
1.38087
1.39878
1.39998
1.4
1.40001
)
;
    }
    airfoil
    {
        type            calculated;
        value           nonuniform List<scalar> 
60
(
0.088458
0.0764013
0.067618
0.0611085
0.0571974
0.047845
0.0358593
0.0256531
0.018644
0.0155214
0.0172224
0.0405371
0.185134
0.429435
0.913359
1.54408
1.54517
1.54598
1.5466
1.54727
1.55064
1.55565
1.57139
1.58468
1.59086
1.59026
1.56899
1.53834
1.49579
1.44276
2.4026
5.70464
6.72899
5.58958
4.91446
4.62183
4.49164
4.43322
4.41228
4.41871
4.41822
4.40694
4.39146
4.38668
4.40215
1.98672
0.678287
0.450732
0.483619
0.563176
0.664157
0.755424
0.763315
0.747695
0.72987
0.731483
0.729657
0.719796
0.712123
0.747821
)
;
    }
    top
    {
        type            symmetryPlane;
    }
    bottom
    {
        type            symmetryPlane;
    }
    defaultFaces
    {
        type            empty;
    }
}


// ************************************************************************* //
