/*--------------------------------*- C++ -*----------------------------------*\
  =========                 |
  \\      /  F ield         | OpenFOAM: The Open Source CFD Toolbox
   \\    /   O peration     | Website:  https://openfoam.org
    \\  /    A nd           | Version:  7
     \\/     M anipulation  |
\*---------------------------------------------------------------------------*/
FoamFile
{
    version     2.0;
    format      ascii;
    class       volScalarField;
    location    "1";
    object      rho;
}
// * * * * * * * * * * * * * * * * * * * * * * * * * * * * * * * * * * * * * //

dimensions      [1 -3 0 0 0 0 0];

internalField   nonuniform List<scalar> 
90000
(
0.934847
0.942056
0.94998
0.957609
0.96522
0.97317
0.980597
0.987886
0.994888
1.00202
1.00892
1.01583
1.02258
1.0298
1.03704
1.04537
1.05552
1.06813
1.0819
1.09679
1.11134
1.12646
1.14099
1.15571
1.16986
1.18388
1.19719
1.21048
1.22309
1.23457
1.24615
1.25634
1.2658
1.27415
1.28227
1.28755
1.29413
1.29695
1.29951
1.30082
1.30112
1.30111
1.30179
1.30156
1.2979
1.28909
1.27964
1.27316
1.2678
1.2682
1.27032
1.27399
1.27808
1.28257
1.28763
1.2899
1.2915
1.29291
1.29308
1.29192
1.28952
1.28635
1.28306
1.28308
1.28415
1.2858
1.28752
1.29179
1.29285
1.2948
1.29578
1.29458
1.29323
1.29153
1.2925
1.29678
1.30883
1.32813
1.35516
1.38189
1.38969
1.39182
1.39239
1.39598
1.40166
1.40639
1.40958
1.41352
1.42006
1.42849
1.43621
1.43821
1.43694
1.43479
1.43359
1.43187
1.42646
1.41433
1.39445
1.36751
0.929712
0.930281
0.931232
0.932523
0.934103
0.936208
0.938762
0.941625
0.944834
0.948455
0.952543
0.957027
0.961887
0.967194
0.972992
0.97927
0.985963
0.993272
1.00129
1.01035
1.0199
1.0307
1.0422
1.05458
1.06783
1.0816
1.09619
1.11134
1.12696
1.14331
1.15869
1.17508
1.191
1.20584
1.22184
1.23539
1.24983
1.26096
1.27256
1.28258
1.28928
1.29393
1.30036
1.30171
1.30171
1.30276
1.30651
1.31084
1.31
1.30698
1.30254
1.29724
1.29186
1.28795
1.28669
1.28673
1.2874
1.28942
1.29261
1.29614
1.2994
1.30263
1.30378
1.30334
1.30229
1.29998
1.29771
1.29519
1.29312
1.29318
1.29635
1.30163
1.30574
1.30512
1.3045
1.30618
1.31333
1.32878
1.35916
1.39093
1.39774
1.39768
1.39753
1.39929
1.40303
1.40826
1.41316
1.4182
1.42426
1.43333
1.44311
1.44692
1.44633
1.44333
1.44147
1.44039
1.43574
1.42373
1.40355
1.37597
0.930756
0.931039
0.931382
0.931678
0.931951
0.932213
0.932464
0.932725
0.933021
0.933381
0.933808
0.934302
0.934857
0.935486
0.936199
0.937049
0.938055
0.93924
0.940666
0.94241
0.944479
0.947022
0.950011
0.953721
0.95793
0.963211
0.969078
0.976427
0.984787
0.99529
1.00654
1.02011
1.03509
1.05176
1.07082
1.0916
1.11282
1.13714
1.16096
1.18366
1.21002
1.23112
1.25263
1.27042
1.28875
1.29987
1.30418
1.30962
1.3097
1.30931
1.30962
1.31025
1.30915
1.30943
1.30808
1.30751
1.30645
1.30694
1.30835
1.31104
1.31399
1.31702
1.31899
1.31854
1.3168
1.31421
1.31034
1.30556
1.30267
1.30392
1.30664
1.31105
1.31515
1.317
1.31805
1.32006
1.3249
1.34014
1.36622
1.3999
1.40943
1.40948
1.40888
1.40775
1.40956
1.41318
1.41809
1.42301
1.42936
1.44045
1.45398
1.45904
1.45834
1.45522
1.45183
1.44977
1.44515
1.43342
1.41332
1.38589
0.932517
0.932767
0.932987
0.933186
0.933402
0.933635
0.93387
0.934121
0.934407
0.934728
0.935057
0.93538
0.93568
0.935965
0.936276
0.936604
0.936948
0.93722
0.937435
0.93762
0.937674
0.937682
0.937711
0.937824
0.938055
0.938422
0.9389
0.939534
0.940354
0.941439
0.942826
0.944819
0.947464
0.951338
0.95603
0.963001
0.971383
0.982918
0.996188
1.01438
1.03363
1.05887
1.08594
1.11622
1.14739
1.18093
1.20768
1.23762
1.25587
1.27717
1.28803
1.30084
1.30737
1.31026
1.31114
1.31292
1.31458
1.31962
1.32182
1.32466
1.32573
1.32694
1.32684
1.32641
1.32553
1.32401
1.32214
1.32162
1.32052
1.31939
1.31825
1.31762
1.31831
1.32004
1.32392
1.33125
1.34476
1.35842
1.37538
1.40185
1.4174
1.4226
1.42238
1.41941
1.41764
1.41923
1.42334
1.42925
1.4381
1.45086
1.46399
1.46767
1.46677
1.46367
1.45999
1.45745
1.45307
1.44103
1.42049
1.39312
0.932671
0.932865
0.933044
0.933231
0.933444
0.93366
0.933876
0.934121
0.934417
0.934734
0.93505
0.935356
0.935632
0.935873
0.936122
0.9364
0.936684
0.936927
0.937083
0.937155
0.937202
0.937259
0.937321
0.937339
0.937297
0.937089
0.93668
0.936314
0.936187
0.936185
0.936218
0.936336
0.936626
0.936977
0.9373
0.937691
0.938271
0.939258
0.940609
0.9428
0.945991
0.951218
0.958174
0.969053
0.983168
1.00255
1.02887
1.057
1.09411
1.13048
1.16814
1.20672
1.23606
1.26747
1.28396
1.30274
1.31189
1.31792
1.31964
1.32263
1.32385
1.32528
1.32504
1.32403
1.32436
1.3257
1.32949
1.33266
1.33383
1.33254
1.32887
1.32376
1.3205
1.32105
1.32384
1.33132
1.34694
1.36642
1.3848
1.40633
1.41896
1.42477
1.42939
1.42839
1.42592
1.42651
1.42889
1.43388
1.44452
1.46031
1.47219
1.47413
1.47301
1.46973
1.4659
1.46231
1.45693
1.4452
1.42462
1.39717
0.932205
0.93233
0.932449
0.932581
0.93272
0.932853
0.932987
0.93318
0.933421
0.933644
0.933887
0.934172
0.934423
0.93461
0.934795
0.935039
0.935359
0.935691
0.935949
0.936104
0.936208
0.936327
0.936446
0.936477
0.93644
0.936326
0.936171
0.936075
0.936064
0.936077
0.936144
0.936271
0.936535
0.936879
0.937177
0.937447
0.937888
0.938204
0.938321
0.938347
0.938413
0.938653
0.939197
0.940087
0.941406
0.94342
0.947
0.952237
0.962436
0.975665
0.9981
1.02374
1.06072
1.09864
1.14191
1.1841
1.2187
1.25389
1.27042
1.29161
1.29777
1.30766
1.31058
1.31596
1.32328
1.33043
1.33611
1.33673
1.33633
1.33399
1.32973
1.32657
1.32398
1.32435
1.32645
1.33292
1.34475
1.36216
1.38564
1.41297
1.42226
1.42508
1.42751
1.42958
1.43091
1.43154
1.43234
1.43623
1.44772
1.4655
1.47691
1.47773
1.47615
1.47258
1.46912
1.46495
1.45857
1.44773
1.42779
1.40055
0.93016
0.930289
0.930432
0.930593
0.930699
0.930787
0.930929
0.931141
0.93137
0.931587
0.931901
0.932209
0.932447
0.932697
0.933025
0.933389
0.933709
0.933967
0.93416
0.934328
0.934515
0.934766
0.934958
0.935028
0.93507
0.935155
0.935313
0.935402
0.935427
0.935452
0.935582
0.935858
0.936223
0.936711
0.937153
0.937494
0.937842
0.938315
0.938645
0.938792
0.938931
0.939195
0.939687
0.94034
0.941138
0.941846
0.942579
0.943308
0.94387
0.944472
0.945832
0.94847
0.954883
0.964502
0.983554
1.00703
1.04443
1.08407
1.1313
1.17694
1.21552
1.2551
1.27859
1.30696
1.31797
1.32607
1.33088
1.33187
1.32795
1.31813
1.31876
1.32211
1.3256
1.32912
1.33152
1.33559
1.34097
1.35334
1.37915
1.41211
1.42697
1.42766
1.42704
1.42836
1.42979
1.43126
1.43307
1.43842
1.45117
1.46827
1.47757
1.47816
1.47673
1.47362
1.47037
1.46649
1.45977
1.44786
1.4293
1.40231
0.929508
0.929641
0.929803
0.929987
0.930166
0.930343
0.930585
0.930858
0.931109
0.931369
0.931618
0.93184
0.932076
0.932343
0.932678
0.93304
0.933325
0.933543
0.933739
0.933919
0.934086
0.934276
0.934445
0.934501
0.934537
0.934618
0.934749
0.934934
0.935178
0.935508
0.935932
0.936318
0.936614
0.937045
0.937744
0.938374
0.938774
0.939157
0.939585
0.939975
0.940366
0.940888
0.941526
0.942119
0.942578
0.942916
0.943089
0.943177
0.943347
0.943361
0.94315
0.942748
0.942229
0.942274
0.942935
0.944934
0.950353
0.959392
0.978821
1.00304
1.0436
1.08547
1.13646
1.1827
1.22214
1.25352
1.27762
1.28858
1.29843
1.30663
1.32167
1.33014
1.33357
1.33439
1.33331
1.33002
1.33357
1.34886
1.38038
1.41158
1.42782
1.4286
1.42775
1.42694
1.42827
1.43108
1.43487
1.44332
1.45746
1.47148
1.47665
1.47714
1.47646
1.47449
1.47116
1.46601
1.45891
1.44745
1.42933
1.40234
0.930327
0.930462
0.930579
0.930795
0.930986
0.931204
0.931423
0.931665
0.931901
0.932121
0.932316
0.932502
0.932721
0.93297
0.933229
0.933489
0.933739
0.934022
0.93432
0.93464
0.934922
0.935198
0.935531
0.935898
0.936224
0.936503
0.936784
0.937042
0.937275
0.937524
0.937853
0.93827
0.938655
0.939003
0.939474
0.940128
0.940841
0.941469
0.941974
0.942314
0.942475
0.942549
0.942608
0.942639
0.942699
0.942805
0.942783
0.942698
0.942703
0.942676
0.94251
0.942102
0.941523
0.940992
0.940521
0.93992
0.93923
0.939283
0.940024
0.942184
0.948367
0.959008
0.981932
1.01151
1.05755
1.10749
1.16517
1.21278
1.26597
1.29792
1.32032
1.32502
1.33014
1.32746
1.31751
1.31885
1.3282
1.35396
1.38629
1.41096
1.42172
1.42319
1.42469
1.42593
1.42835
1.4312
1.4369
1.44754
1.46271
1.4728
1.47609
1.47683
1.47666
1.47483
1.47068
1.46513
1.45828
1.447
1.42915
1.40219
0.930918
0.931095
0.931274
0.931488
0.931755
0.932069
0.932326
0.932555
0.932804
0.933067
0.933326
0.93357
0.933822
0.934099
0.93437
0.934649
0.934985
0.935357
0.935677
0.935992
0.936359
0.936766
0.937212
0.937739
0.938289
0.938721
0.939056
0.939419
0.939829
0.940192
0.940479
0.940809
0.941253
0.941725
0.942123
0.942426
0.942642
0.942744
0.942735
0.942656
0.942503
0.942313
0.942235
0.942229
0.942271
0.942389
0.942405
0.942357
0.942185
0.941932
0.941656
0.941235
0.940591
0.939967
0.939449
0.938866
0.938076
0.937104
0.93672
0.936719
0.93693
0.937771
0.93994
0.944444
0.953398
0.971705
0.998985
1.04654
1.09969
1.15699
1.21451
1.24486
1.27889
1.28663
1.30213
1.31857
1.33712
1.36617
1.3941
1.40201
1.4122
1.41963
1.42458
1.42697
1.42866
1.43113
1.43755
1.44887
1.46093
1.47151
1.47575
1.47755
1.47723
1.47511
1.46982
1.46463
1.45809
1.44646
1.42846
1.40211
0.934298
0.934508
0.934734
0.934952
0.935191
0.935445
0.935687
0.935916
0.936164
0.93644
0.936718
0.936985
0.937238
0.937496
0.937764
0.938031
0.938305
0.938621
0.938922
0.939154
0.939367
0.939657
0.940099
0.940608
0.941028
0.941284
0.94144
0.941644
0.941853
0.941948
0.941995
0.942076
0.942223
0.942346
0.942378
0.942386
0.942414
0.942457
0.94244
0.942357
0.942212
0.942066
0.941921
0.941737
0.941553
0.941465
0.941418
0.941301
0.941045
0.940647
0.940213
0.939819
0.939393
0.938831
0.938165
0.937575
0.937408
0.937397
0.937185
0.936996
0.93705
0.93768
0.939201
0.940742
0.941565
0.94264
0.945226
0.953216
0.967924
1.00132
1.04333
1.10569
1.16957
1.22601
1.28774
1.3156
1.33408
1.36227
1.37439
1.38953
1.40749
1.42338
1.42784
1.42726
1.42681
1.42916
1.43573
1.44624
1.46013
1.47104
1.47834
1.47892
1.47762
1.47358
1.46914
1.46469
1.45845
1.44655
1.42828
1.40235
0.937345
0.937538
0.937698
0.93785
0.938008
0.938174
0.938352
0.938542
0.938731
0.938913
0.939102
0.93929
0.939454
0.939617
0.939785
0.93994
0.940069
0.940241
0.940405
0.940496
0.940629
0.940924
0.941344
0.941614
0.94159
0.941528
0.941513
0.94162
0.941961
0.942051
0.942065
0.942103
0.942201
0.942309
0.942343
0.942317
0.942209
0.94203
0.941809
0.941538
0.941213
0.94087
0.940563
0.940288
0.939987
0.9397
0.939492
0.939223
0.93877
0.938205
0.937674
0.937322
0.937085
0.937036
0.937107
0.937478
0.937983
0.938292
0.938521
0.938744
0.939105
0.939873
0.941019
0.941717
0.942119
0.942162
0.941942
0.941925
0.942569
0.945155
0.951873
0.970568
1.0006
1.05784
1.11764
1.19366
1.25175
1.30069
1.34803
1.38818
1.42476
1.42904
1.42734
1.42244
1.42562
1.43007
1.43669
1.44701
1.4604
1.47578
1.48093
1.48009
1.47639
1.47158
1.46858
1.46511
1.45881
1.44602
1.42806
1.40266
0.937797
0.937949
0.938095
0.938243
0.938396
0.93855
0.938703
0.938867
0.939039
0.939205
0.939369
0.939531
0.939676
0.939833
0.940023
0.940189
0.940349
0.94052
0.940574
0.940668
0.941026
0.941499
0.941726
0.941832
0.941794
0.941708
0.941699
0.941703
0.941749
0.941891
0.941954
0.941935
0.941849
0.941709
0.941552
0.941363
0.941109
0.940774
0.940357
0.939885
0.939408
0.938947
0.938542
0.938231
0.937922
0.937555
0.93732
0.937148
0.93691
0.936716
0.93671
0.936808
0.937119
0.937479
0.937843
0.938353
0.939117
0.939882
0.940505
0.941148
0.941816
0.942346
0.94274
0.942848
0.94284
0.942734
0.942405
0.941813
0.940696
0.940129
0.940279
0.94124
0.944427
0.954814
0.977538
1.02541
1.09979
1.18792
1.30953
1.37912
1.42179
1.42432
1.41045
1.41225
1.42384
1.43352
1.441
1.45218
1.46925
1.48173
1.482
1.47883
1.47414
1.47131
1.46976
1.466
1.45829
1.44468
1.42757
1.40271
0.937959
0.938089
0.938223
0.938366
0.938518
0.938666
0.938817
0.938978
0.93915
0.939322
0.939489
0.939673
0.939805
0.939903
0.940087
0.940369
0.940399
0.940223
0.940151
0.940372
0.941056
0.941241
0.941177
0.941032
0.94101
0.94106
0.94103
0.940952
0.940941
0.940982
0.941077
0.941075
0.940966
0.940731
0.940439
0.940121
0.939771
0.939375
0.938971
0.938649
0.938407
0.938193
0.937991
0.937833
0.93774
0.937655
0.937497
0.937334
0.937341
0.937462
0.937725
0.938094
0.938606
0.939209
0.939736
0.940272
0.941103
0.94225
0.943181
0.943515
0.943486
0.943324
0.943076
0.942924
0.942888
0.942825
0.94252
0.941533
0.940322
0.939978
0.939966
0.940104
0.940458
0.941109
0.943397
0.950402
0.971304
1.02178
1.10923
1.21927
1.33558
1.36596
1.38546
1.41071
1.42943
1.43827
1.45051
1.46653
1.48072
1.48335
1.47933
1.47473
1.47231
1.47302
1.47149
1.46572
1.45534
1.4437
1.42761
1.40243
0.937766
0.937874
0.937969
0.938054
0.938158
0.938264
0.938394
0.938522
0.938652
0.938781
0.938884
0.939077
0.939226
0.939256
0.939365
0.939562
0.939553
0.939331
0.939232
0.939445
0.940144
0.940449
0.940408
0.940297
0.94029
0.940422
0.940471
0.940398
0.940319
0.940327
0.940418
0.940478
0.940461
0.940373
0.940191
0.939915
0.939558
0.939201
0.939044
0.938959
0.938853
0.938796
0.938782
0.938791
0.938868
0.939019
0.939205
0.939422
0.939628
0.939843
0.940127
0.940494
0.94099
0.941613
0.942171
0.942569
0.943112
0.943884
0.944153
0.944175
0.944085
0.943604
0.943048
0.942734
0.942471
0.942152
0.941589
0.940762
0.940178
0.940096
0.940139
0.94044
0.941095
0.941951
0.94238
0.943314
0.947016
0.957226
0.983789
1.05378
1.15557
1.26363
1.3695
1.40469
1.4208
1.433
1.45302
1.47366
1.48172
1.47731
1.47485
1.47466
1.47583
1.47579
1.47252
1.46323
1.45397
1.44404
1.42789
1.40168
0.937122
0.937251
0.937373
0.937486
0.937604
0.937737
0.93788
0.938017
0.938167
0.938325
0.938464
0.938645
0.938899
0.939003
0.939079
0.939276
0.939338
0.939218
0.939103
0.939288
0.940114
0.940761
0.940793
0.940683
0.940643
0.940685
0.940745
0.94075
0.940803
0.941009
0.941084
0.94103
0.941021
0.941011
0.940906
0.940544
0.940316
0.940298
0.9403
0.940247
0.940178
0.940197
0.940375
0.94065
0.940873
0.941106
0.941502
0.942062
0.942449
0.942707
0.943006
0.943226
0.943242
0.943182
0.943182
0.943237
0.943442
0.943815
0.943957
0.943986
0.94389
0.943329
0.942197
0.941374
0.941378
0.94149
0.941428
0.941173
0.940771
0.940686
0.940827
0.941351
0.942084
0.94254
0.942698
0.94314
0.944843
0.950815
0.963032
0.985597
1.02334
1.10079
1.20301
1.28123
1.34071
1.3901
1.44567
1.4687
1.46523
1.46494
1.47151
1.4792
1.47877
1.47698
1.47012
1.46136
1.45363
1.44532
1.4278
1.40056
0.937227
0.937355
0.937468
0.937589
0.937736
0.937904
0.937998
0.938079
0.9382
0.938347
0.938525
0.938774
0.939059
0.939335
0.939529
0.939614
0.939655
0.939952
0.940213
0.940319
0.940615
0.94129
0.941805
0.941852
0.941792
0.94178
0.941852
0.942073
0.942386
0.942651
0.942745
0.942763
0.942746
0.942688
0.942477
0.942134
0.94208
0.942146
0.94246
0.942608
0.942605
0.942623
0.942728
0.942907
0.943086
0.94325
0.943559
0.944197
0.944507
0.944563
0.944604
0.944575
0.944282
0.943664
0.943127
0.943082
0.943238
0.943337
0.943343
0.943261
0.94283
0.941893
0.940974
0.94081
0.940926
0.941231
0.941459
0.941435
0.941456
0.941543
0.942037
0.942569
0.942514
0.942354
0.942416
0.942851
0.944355
0.949183
0.960542
0.980408
1.00034
1.02309
1.05731
1.12537
1.21801
1.30865
1.38249
1.41454
1.44282
1.46398
1.48473
1.48435
1.48031
1.47328
1.46826
1.46211
1.45705
1.4464
1.42579
1.39977
0.938618
0.938777
0.938947
0.93923
0.939644
0.939679
0.939435
0.939326
0.939314
0.93927
0.939337
0.939606
0.939928
0.940366
0.94078
0.941168
0.941301
0.941334
0.94148
0.941921
0.942554
0.942961
0.943218
0.943392
0.943363
0.943312
0.943316
0.943348
0.943452
0.94363
0.943771
0.943961
0.943945
0.943782
0.943472
0.943166
0.943094
0.943199
0.943724
0.944133
0.944213
0.944205
0.943999
0.943816
0.943784
0.943808
0.943969
0.944262
0.944485
0.944594
0.944632
0.944605
0.94434
0.943682
0.942943
0.942805
0.942959
0.943044
0.943037
0.942915
0.942393
0.941675
0.941402
0.941404
0.941451
0.941634
0.94225
0.942906
0.942846
0.942675
0.942644
0.942496
0.942179
0.941832
0.94167
0.942034
0.943565
0.947984
0.95868
0.978275
0.999537
1.01441
1.02317
1.03814
1.06621
1.13187
1.22053
1.31461
1.42221
1.45809
1.48193
1.47952
1.46389
1.46435
1.46689
1.46727
1.46046
1.44408
1.42255
1.3995
0.940259
0.940501
0.940902
0.941133
0.940993
0.940664
0.940631
0.940639
0.940543
0.940472
0.940462
0.940727
0.941267
0.94145
0.941709
0.942558
0.94297
0.943013
0.943138
0.943559
0.943928
0.943959
0.943927
0.943927
0.944076
0.94409
0.944018
0.94397
0.943954
0.944002
0.94402
0.943791
0.943174
0.942651
0.942462
0.942473
0.942639
0.943198
0.944504
0.945118
0.94519
0.945195
0.94502
0.944449
0.944056
0.943992
0.943995
0.944113
0.944572
0.94508
0.945165
0.94509
0.944691
0.943985
0.943482
0.943469
0.943531
0.943522
0.943407
0.943032
0.942822
0.942745
0.942801
0.943034
0.943244
0.943443
0.943885
0.944314
0.944169
0.943526
0.942643
0.942027
0.941516
0.940897
0.940616
0.941076
0.942895
0.947421
0.957245
0.975723
0.997159
1.01306
1.02185
1.02794
1.03374
1.04801
1.07504
1.14259
1.22963
1.32057
1.41228
1.42605
1.44261
1.46692
1.47271
1.46861
1.45532
1.43709
1.42106
1.4016
0.940881
0.941044
0.941162
0.941163
0.940974
0.940459
0.940345
0.940297
0.940239
0.940219
0.940292
0.940763
0.941143
0.941183
0.941232
0.941594
0.94236
0.943179
0.943628
0.943735
0.943733
0.943606
0.943319
0.943205
0.943169
0.943204
0.943439
0.943438
0.943205
0.942891
0.942617
0.942297
0.942002
0.941908
0.941949
0.942164
0.942717
0.943891
0.945237
0.945581
0.945681
0.945681
0.945393
0.94463
0.944049
0.943878
0.943835
0.943967
0.944685
0.945712
0.946031
0.945955
0.945513
0.944821
0.944594
0.944691
0.944821
0.944819
0.944586
0.94425
0.944128
0.944127
0.9445
0.945002
0.944969
0.944667
0.944604
0.944678
0.944558
0.943909
0.942623
0.941205
0.940224
0.939694
0.939814
0.940615
0.942711
0.947162
0.955994
0.972398
0.993575
1.0106
1.0211
1.02887
1.03493
1.04043
1.04686
1.06094
1.08878
1.15776
1.24723
1.34513
1.42483
1.46091
1.46753
1.45588
1.43635
1.42889
1.42275
1.40421
0.93931
0.939364
0.939367
0.939356
0.939351
0.939427
0.939639
0.939686
0.939684
0.939633
0.93967
0.940237
0.940936
0.941139
0.941542
0.942219
0.942806
0.943552
0.944496
0.94492
0.94495
0.94486
0.944742
0.944485
0.944196
0.944142
0.944085
0.943841
0.943379
0.942945
0.942598
0.942444
0.942388
0.94235
0.94241
0.942775
0.944106
0.945934
0.946235
0.946236
0.946366
0.946424
0.946194
0.945447
0.944899
0.944732
0.944495
0.944405
0.944788
0.94588
0.946611
0.9466
0.946072
0.945472
0.945429
0.945499
0.945812
0.946078
0.946014
0.945784
0.945631
0.945623
0.945795
0.945782
0.945417
0.944926
0.944813
0.944808
0.944604
0.943901
0.94252
0.941095
0.940089
0.939398
0.939398
0.940366
0.942785
0.946958
0.954553
0.96892
0.989458
1.00795
1.02057
1.02983
1.03663
1.04191
1.04713
1.05381
1.06044
1.07308
1.10144
1.17103
1.25416
1.33927
1.40675
1.41797
1.42849
1.43401
1.42637
1.4036
0.936165
0.93632
0.936311
0.936324
0.936614
0.937439
0.937678
0.937653
0.937758
0.938674
0.93954
0.939558
0.939623
0.940291
0.941539
0.942202
0.942611
0.943193
0.94377
0.944134
0.944328
0.944387
0.944398
0.944329
0.944031
0.943886
0.94387
0.943775
0.943225
0.942789
0.942723
0.942679
0.942632
0.942496
0.942281
0.942441
0.943481
0.9442
0.944302
0.94446
0.94492
0.945213
0.945188
0.944915
0.944593
0.944528
0.944305
0.943471
0.943301
0.943695
0.944754
0.945373
0.945183
0.944925
0.944937
0.945129
0.945763
0.946383
0.94644
0.946321
0.945959
0.945592
0.945554
0.945504
0.945107
0.94474
0.944723
0.94474
0.944466
0.943629
0.94218
0.940888
0.939964
0.938649
0.938031
0.938762
0.94119
0.945515
0.952645
0.965429
0.985155
1.00548
1.02071
1.03149
1.0386
1.04346
1.04809
1.05377
1.0603
1.06353
1.0666
1.07737
1.10944
1.17618
1.27173
1.37343
1.41688
1.43
1.42015
1.3924
0.929643
0.929557
0.929485
0.929464
0.929469
0.929651
0.930189
0.930683
0.93121
0.931775
0.932118
0.932321
0.932607
0.93299
0.933261
0.933507
0.933972
0.934766
0.9352
0.935112
0.935053
0.935209
0.936019
0.936611
0.936735
0.936893
0.937047
0.937051
0.936987
0.936974
0.936823
0.936039
0.935795
0.935885
0.935906
0.936184
0.936746
0.9368
0.936721
0.93662
0.936743
0.937556
0.938251
0.938412
0.938668
0.939375
0.94015
0.940861
0.941827
0.942989
0.943598
0.943528
0.943252
0.943178
0.943441
0.944235
0.945347
0.946094
0.946181
0.94616
0.946063
0.945226
0.943924
0.943703
0.943651
0.943725
0.944018
0.944141
0.943879
0.942916
0.941631
0.940545
0.939081
0.937559
0.93728
0.937916
0.940027
0.943987
0.950592
0.962513
0.981906
1.00363
1.02134
1.03303
1.0401
1.04486
1.04965
1.0564
1.06189
1.06392
1.06521
1.06649
1.06957
1.08147
1.11757
1.19318
1.28313
1.34013
1.35669
1.37268
0.92743
0.925779
0.925296
0.925288
0.925291
0.925365
0.925494
0.92542
0.924987
0.924769
0.924755
0.925043
0.925219
0.925061
0.924895
0.924876
0.925205
0.925508
0.925697
0.926017
0.926579
0.927329
0.928261
0.929493
0.930716
0.931706
0.932789
0.93353
0.933634
0.933647
0.933416
0.932639
0.932451
0.932514
0.932452
0.932203
0.931787
0.93107
0.930416
0.930361
0.930654
0.931683
0.93293
0.933407
0.933742
0.934381
0.935386
0.936699
0.938217
0.939209
0.93902
0.938167
0.937381
0.937358
0.937901
0.939346
0.941252
0.942576
0.942707
0.942634
0.942371
0.94109
0.939969
0.939827
0.939785
0.939993
0.940884
0.941277
0.940975
0.940143
0.939281
0.938041
0.936616
0.936358
0.936546
0.937255
0.939061
0.942458
0.948499
0.959528
0.978252
1.0014
1.02208
1.03589
1.04255
1.04672
1.05139
1.05903
1.06572
1.06709
1.06754
1.06812
1.06843
1.06831
1.07009
1.08281
1.12669
1.18882
1.26781
1.35644
0.929663
0.927401
0.926629
0.926623
0.926666
0.927002
0.92747
0.927478
0.92691
0.926291
0.926254
0.92666
0.927933
0.928835
0.928664
0.928018
0.927831
0.927824
0.927889
0.928357
0.928985
0.929547
0.930309
0.931363
0.932292
0.932996
0.933704
0.934691
0.936211
0.937645
0.938579
0.938953
0.939015
0.939111
0.939674
0.939954
0.939637
0.93839
0.937044
0.936796
0.936767
0.936776
0.936824
0.937004
0.937679
0.938493
0.939151
0.939473
0.939405
0.938916
0.937585
0.935969
0.935582
0.935734
0.936423
0.936599
0.936493
0.935928
0.934796
0.933864
0.933727
0.933957
0.93466
0.935426
0.935756
0.935831
0.936041
0.936568
0.936683
0.93653
0.935856
0.934429
0.933929
0.934265
0.935021
0.936193
0.938019
0.941
0.946395
0.955596
0.97137
0.995329
1.0208
1.03853
1.04583
1.0498
1.05455
1.06175
1.06772
1.06885
1.06912
1.06928
1.06925
1.06831
1.06687
1.06264
1.0584
1.07116
1.10253
1.20932
0.951432
0.950022
0.949962
0.950063
0.950004
0.949888
0.949982
0.950602
0.951377
0.952146
0.953547
0.955404
0.955934
0.955549
0.953402
0.952516
0.951708
0.949126
0.946376
0.946114
0.946028
0.945384
0.943824
0.942381
0.941966
0.942321
0.943368
0.944739
0.945924
0.946879
0.947115
0.946538
0.945489
0.94545
0.94626
0.947073
0.947004
0.946256
0.944406
0.942072
0.940278
0.939007
0.937655
0.937257
0.937372
0.938364
0.93927
0.93934
0.938767
0.93608
0.932329
0.931458
0.931515
0.932448
0.93444
0.934987
0.93473
0.933284
0.930811
0.929833
0.929959
0.930786
0.932376
0.933756
0.934051
0.933835
0.933391
0.933374
0.933501
0.933466
0.93286
0.93163
0.93118
0.931411
0.93215
0.933264
0.935105
0.938568
0.94388
0.951325
0.963589
0.985877
1.01632
1.0387
1.04835
1.05269
1.05755
1.0646
1.06884
1.0695
1.06974
1.06979
1.06949
1.06874
1.06751
1.0627
1.05292
1.03454
1.0289
1.08006
0.967251
0.967585
0.968865
0.969031
0.968194
0.967155
0.967026
0.967715
0.970968
0.974798
0.97642
0.977282
0.977502
0.977456
0.977366
0.976596
0.974438
0.971808
0.97137
0.971533
0.970933
0.966911
0.959896
0.958206
0.958523
0.960037
0.960792
0.961036
0.96056
0.958701
0.956162
0.953729
0.951547
0.949038
0.94772
0.948113
0.950689
0.952013
0.951685
0.948768
0.944623
0.942038
0.941293
0.941396
0.942057
0.943517
0.944326
0.944318
0.942822
0.939289
0.935528
0.934464
0.934537
0.935385
0.937675
0.939223
0.938994
0.937078
0.934332
0.933812
0.934194
0.935928
0.938898
0.941336
0.941642
0.940973
0.939119
0.937382
0.936494
0.935353
0.933132
0.932222
0.932425
0.933058
0.934013
0.934766
0.935635
0.937327
0.940526
0.946128
0.956976
0.976453
1.00387
1.03096
1.047
1.05434
1.05987
1.06771
1.07155
1.07198
1.07202
1.07183
1.071
1.06975
1.0679
1.06322
1.05085
1.03086
1.01338
1.02057
1.02083
1.01925
1.01621
1.01377
1.0118
1.01053
1.01042
1.01095
1.01237
1.01275
1.01256
1.01248
1.01289
1.01314
1.01291
1.01212
1.01004
1.00785
1.00794
1.01012
1.01122
1.00915
1.00521
1.00471
1.00459
1.00462
1.00678
1.01134
1.01228
1.01113
1.00728
1.00489
1.00312
0.999943
0.995551
0.994199
0.99492
0.995286
0.994033
0.986564
0.982211
0.981646
0.980192
0.979128
0.979239
0.980153
0.980605
0.980317
0.978955
0.976803
0.974253
0.970053
0.964943
0.963636
0.963567
0.96342
0.962822
0.960457
0.956536
0.953735
0.95171
0.949345
0.946712
0.945073
0.943899
0.942941
0.942089
0.940831
0.938881
0.935711
0.932407
0.93189
0.932314
0.933296
0.933752
0.934154
0.93527
0.938022
0.94226
0.947628
0.95584
0.970159
0.991388
1.01566
1.03756
1.05158
1.05986
1.06744
1.07159
1.07246
1.07302
1.07376
1.07415
1.07332
1.07029
1.06403
1.05025
1.02791
1.00877
1.00625
1.08847
1.09037
1.0915
1.09119
1.08623
1.07773
1.07622
1.07622
1.07666
1.07828
1.07922
1.0796
1.07971
1.0795
1.07778
1.07518
1.0749
1.07502
1.07297
1.06611
1.06341
1.06347
1.06334
1.06173
1.05487
1.04651
1.04527
1.04553
1.04536
1.04315
1.04109
1.04152
1.04372
1.04384
1.04206
1.04138
1.04194
1.04396
1.04439
1.04287
1.03822
1.03326
1.02905
1.02436
1.01904
1.01266
1.00588
1.00454
1.00431
1.00319
1.00203
1.00167
0.99982
0.994301
0.988314
0.984148
0.980963
0.979159
0.977752
0.975675
0.97219
0.966423
0.95868
0.954194
0.95377
0.953581
0.952552
0.949312
0.944562
0.94091
0.938113
0.935387
0.934657
0.935104
0.935183
0.935392
0.936443
0.939735
0.946572
0.95427
0.962125
0.972472
0.986688
1.0055
1.02669
1.04569
1.05951
1.06877
1.07534
1.07714
1.07868
1.08006
1.08012
1.07952
1.07629
1.06735
1.05099
1.0284
1.00906
1.0062
1.14541
1.14409
1.14264
1.14259
1.14297
1.14269
1.13898
1.13533
1.13502
1.13516
1.13639
1.13681
1.13608
1.13391
1.13359
1.13485
1.13626
1.13559
1.1337
1.13333
1.13347
1.13474
1.13539
1.13507
1.13259
1.12606
1.11995
1.11757
1.11485
1.11244
1.11245
1.11177
1.10788
1.10096
1.09347
1.08783
1.08693
1.08749
1.08691
1.08445
1.08404
1.08566
1.08626
1.08407
1.07895
1.07555
1.07242
1.06831
1.06425
1.05858
1.05171
1.0509
1.0508
1.04711
1.04144
1.03862
1.03455
1.03014
1.02764
1.02593
1.02457
1.02082
1.01225
1.0044
1.00054
0.999248
0.998153
0.993857
0.985177
0.978336
0.971901
0.966258
0.965886
0.965357
0.961095
0.953578
0.950619
0.95092
0.953838
0.959888
0.967316
0.976846
0.989904
1.00654
1.02395
1.04264
1.06127
1.07675
1.0854
1.08632
1.08632
1.08584
1.08486
1.08346
1.07985
1.07042
1.05395
1.03335
1.01891
1.01605
1.21112
1.21061
1.2106
1.21076
1.21105
1.21184
1.21373
1.21511
1.21456
1.20896
1.20284
1.2026
1.20203
1.19928
1.19789
1.19717
1.19589
1.19561
1.1958
1.19568
1.19451
1.19067
1.18703
1.18654
1.18732
1.18755
1.18642
1.18276
1.18084
1.18107
1.18223
1.18237
1.18114
1.17718
1.1702
1.16391
1.16092
1.15855
1.15634
1.15412
1.14995
1.14428
1.13897
1.13222
1.12686
1.12655
1.12712
1.12635
1.12378
1.12006
1.11514
1.11334
1.11139
1.10203
1.09186
1.0896
1.08607
1.08155
1.07787
1.07303
1.0678
1.06159
1.05588
1.05077
1.04134
1.03135
1.02785
1.02363
1.01678
1.01159
1.00546
0.997537
0.995459
0.993904
0.988719
0.982363
0.98108
0.979925
0.975766
0.972655
0.974188
0.980751
0.994404
1.01194
1.02977
1.04909
1.06804
1.08721
1.09425
1.09387
1.09309
1.0917
1.09013
1.08811
1.08426
1.07575
1.05993
1.04369
1.03596
1.03607
1.29068
1.28881
1.28687
1.28656
1.28681
1.28711
1.28671
1.28438
1.28219
1.2821
1.28204
1.28012
1.27527
1.27398
1.27419
1.2739
1.27309
1.27311
1.27253
1.26985
1.26715
1.26398
1.26219
1.26089
1.25754
1.25527
1.2546
1.25361
1.25073
1.2464
1.24339
1.24242
1.24097
1.23751
1.233
1.2279
1.22245
1.22089
1.22183
1.22243
1.22164
1.21842
1.21353
1.20855
1.20326
1.19779
1.19307
1.18889
1.18163
1.17212
1.16932
1.17022
1.17095
1.16732
1.15938
1.15486
1.14797
1.13952
1.13517
1.13202
1.12632
1.11678
1.11304
1.11074
1.10514
1.09539
1.0865
1.07567
1.06694
1.06519
1.06242
1.05593
1.04791
1.03731
1.02483
1.02082
1.02138
1.02153
1.01877
1.01641
1.01774
1.02011
1.02329
1.02955
1.03976
1.05401
1.06858
1.08217
1.09342
1.09868
1.10114
1.10171
1.1015
1.09919
1.09217
1.07878
1.05974
1.04264
1.03703
1.03837
1.36188
1.36179
1.36285
1.36357
1.36348
1.36283
1.36125
1.3583
1.35704
1.35734
1.35728
1.35603
1.35398
1.35064
1.34723
1.34652
1.34739
1.34784
1.34724
1.34325
1.33872
1.33773
1.33739
1.33646
1.33487
1.33305
1.3315
1.3299
1.32752
1.32381
1.31987
1.31729
1.31536
1.313
1.30969
1.30605
1.30062
1.29292
1.28815
1.28595
1.28382
1.28127
1.27847
1.27495
1.27087
1.26717
1.26418
1.26097
1.25668
1.25083
1.24402
1.23888
1.23469
1.22465
1.21746
1.21614
1.21289
1.20744
1.19839
1.19104
1.18795
1.1834
1.17587
1.16736
1.15796
1.14951
1.14344
1.13596
1.12767
1.12154
1.11201
1.10234
1.09915
1.09436
1.08594
1.0788
1.07151
1.0626
1.0555
1.05454
1.05697
1.06201
1.0673
1.06937
1.07134
1.07494
1.08014
1.08842
1.09961
1.11508
1.12736
1.12966
1.12979
1.12852
1.12152
1.10256
1.07316
1.05242
1.04864
1.05157
1.44951
1.44663
1.44622
1.44584
1.44596
1.4465
1.44618
1.44488
1.44316
1.43995
1.4392
1.43902
1.43724
1.43434
1.43216
1.4288
1.42633
1.42657
1.42637
1.42472
1.42075
1.41682
1.41507
1.41363
1.41189
1.40979
1.40709
1.40325
1.40046
1.39872
1.39693
1.39305
1.38978
1.38801
1.38595
1.38333
1.37984
1.37471
1.36796
1.36348
1.36093
1.35855
1.35519
1.35079
1.345
1.3386
1.33324
1.32778
1.32295
1.31939
1.31572
1.31012
1.30465
1.29936
1.29418
1.28772
1.27593
1.26943
1.26561
1.25949
1.25226
1.24625
1.23942
1.23161
1.22295
1.21457
1.20775
1.19856
1.18716
1.18089
1.17473
1.16669
1.15918
1.14862
1.13613
1.13252
1.12892
1.12304
1.11724
1.1126
1.10926
1.10856
1.11016
1.11473
1.12106
1.12485
1.12675
1.12859
1.13001
1.13189
1.13566
1.13772
1.13804
1.13762
1.13352
1.12019
1.10051
1.09122
1.09161
1.09866
1.53794
1.53633
1.5352
1.53414
1.53391
1.53402
1.53373
1.53092
1.52776
1.52777
1.52806
1.5271
1.52546
1.52125
1.51726
1.51709
1.51667
1.51547
1.51124
1.50704
1.5068
1.50655
1.50513
1.49923
1.49498
1.49456
1.49418
1.49183
1.48596
1.48144
1.47949
1.47757
1.47446
1.47078
1.46736
1.46234
1.45666
1.45282
1.44942
1.44376
1.43878
1.43625
1.43373
1.43031
1.4256
1.41951
1.41216
1.40615
1.40095
1.39624
1.39202
1.38659
1.37699
1.36801
1.36384
1.36044
1.35441
1.34568
1.3372
1.32918
1.31983
1.31247
1.30565
1.2983
1.29112
1.28099
1.27256
1.26562
1.2559
1.24592
1.23644
1.22592
1.21917
1.21284