/*--------------------------------*- C++ -*----------------------------------*\
  =========                 |
  \\      /  F ield         | OpenFOAM: The Open Source CFD Toolbox
   \\    /   O peration     | Website:  https://openfoam.org
    \\  /    A nd           | Version:  7
     \\/     M anipulation  |
\*---------------------------------------------------------------------------*/
FoamFile
{
    version     2.0;
    format      ascii;
    class       volScalarField;
    location    "1.8";
    object      rho;
}
// * * * * * * * * * * * * * * * * * * * * * * * * * * * * * * * * * * * * * //

dimensions      [1 -3 0 0 0 0 0];

internalField   nonuniform List<scalar> 
1750
(
0.187202
0.361471
0.465567
0.521286
0.697149
0.883773
1.0095
1.05368
1.0799
1.13177
0.0647976
0.0910578
0.255371
0.457233
0.62782
0.76364
0.967029
1.04843
1.06221
1.10526
0.0850317
0.0867782
0.106277
0.257938
0.367364
0.400986
0.624618
0.999113
1.1267
1.1398
0.123582
0.14048
0.177042
0.180185
0.188836
0.210388
0.28444
0.607445
0.976917
1.13284
0.215492
0.229908
0.242367
0.253974
0.27425
0.305928
0.362318
0.451858
0.586622
0.81456
0.337672
0.333366
0.334512
0.349222
0.370972
0.394883
0.442496
0.542763
0.611109
0.683178
0.521608
0.524075
0.523907
0.519271
0.518595
0.525288
0.556473
0.636276
0.727654
0.77819
0.815088
0.79105
0.768777
0.753381
0.7498
0.756711
0.784273
0.822709
0.841572
0.886678
1.19498
1.15478
1.11622
1.08509
1.04566
1.02216
1.02077
1.02006
1.01808
1.05587
1.4308
1.41015
1.38364
1.35621
1.32199
1.28091
1.24845
1.22201
1.20309
1.22197
1.45703
1.44714
1.43626
1.42538
1.41334
1.39649
1.37556
1.35532
1.34344
1.34968
1.43278
1.43008
1.42535
1.41903
1.41212
1.40654
1.40134
1.3961
1.39361
1.39449
1.40462
1.40492
1.40475
1.40408
1.40303
1.40168
1.40055
1.39998
1.39977
1.39981
1.40012
1.40014
1.40016
1.40015
1.40013
1.40008
1.40004
1.40001
1.4
1.4
1.40001
1.40001
1.40001
1.40001
1.40001
1.40001
1.40001
1.40001
1.40001
1.40001
0.0779263
0.0642159
0.0827446
0.121866
0.198911
0.327908
0.520035
0.834958
1.22816
1.44568
1.46495
1.43377
1.40404
1.4001
1.40001
0.0718389
0.0622681
0.0892607
0.151769
0.232174
0.377619
0.621387
0.982978
1.34777
1.47672
1.47095
1.4271
1.40219
1.40005
1.40001
0.0694915
0.0614904
0.0908642
0.155298
0.246927
0.420212
0.715728
1.10345
1.41777
1.48985
1.47295
1.42129
1.40129
1.40003
1.40001
0.0694747
0.0631983
0.0886661
0.151194
0.274195
0.517812
0.843804
1.22208
1.46941
1.49984
1.46887
1.41465
1.40067
1.40001
1.40001
0.0711548
0.0632704
0.0869171
0.156122
0.355297
0.623438
0.959927
1.32858
1.50686
1.50773
1.45912
1.40899
1.40031
1.40001
1.40001
0.0544864
0.0609763
0.0981208
0.218148
0.446627
0.722657
1.0982
1.43243
1.52896
1.51239
1.44536
1.40469
1.40013
1.40001
1.40001
0.0462387
0.054865
0.128706
0.292805
0.524614
0.854175
1.2636
1.50782
1.53911
1.50666
1.42992
1.40211
1.40005
1.40001
1.40001
0.0370666
0.0580866
0.159835
0.360343
0.640513
1.05167
1.40615
1.54543
1.5424
1.48602
1.41698
1.40087
1.40002
1.40001
1.40001
0.0304878
0.0853385
0.209876
0.455896
0.846973
1.24077
1.50648
1.56314
1.54349
1.46209
1.40817
1.4003
1.40001
1.40001
1.40001
0.0230277
0.111974
0.308195
0.641429
1.06469
1.40769
1.56731
1.57207
1.52446
1.43746
1.40317
1.4001
1.40001
1.40001
1.40001
0.014073
0.138627
0.471194
0.903753
1.28345
1.53535
1.59208
1.57667
1.49399
1.41728
1.40098
1.40003
1.40001
1.40001
1.40001
0.0419363
0.287584
0.729209
1.16037
1.47453
1.60166
1.60113
1.55369
1.4533
1.40609
1.40025
1.40001
1.40001
1.40001
1.40001
0.191289
0.57348
1.04765
1.40343
1.59063
1.6223
1.60341
1.50902
1.42287
1.40166
1.40006
1.40001
1.40001
1.40001
1.40001
0.457694
0.918171
1.3577
1.57433
1.63659
1.62742
1.56109
1.45378
1.40651
1.40031
1.40001
1.40001
1.40001
1.40001
1.40001
0.966322
1.35947
1.57319
1.63417
1.64437
1.60454
1.4975
1.41831
1.40123
1.40004
1.40001
1.40001
1.40001
1.40001
1.40001
1.63738
1.64313
1.64791
1.64455
1.63955
1.53985
1.43315
1.40122
1.40003
1.40001
1.40001
1.40001
1.40001
1.40001
1.40001
1.63743
1.64564
1.65063
1.63897
1.62074
1.52211
1.42831
1.40255
1.4001
1.40001
1.40001
1.40001
1.40001
1.40001
1.40001
1.63864
1.65134
1.65531
1.63821
1.59456
1.47557
1.40999
1.40041
1.40001
1.40001
1.40001
1.40001
1.40001
1.40001
1.40001
1.63935
1.65549
1.65675
1.63186
1.55366
1.4437
1.40396
1.40012
1.40001
1.40001
1.40001
1.40001
1.40001
1.40001
1.40001
1.63791
1.65677
1.65675
1.61383
1.51053
1.42204
1.40132
1.40004
1.40001
1.40001
1.40001
1.40001
1.40001
1.40001
1.40001
1.6401
1.65725
1.65306
1.58185
1.46966
1.40878
1.40037
1.40001
1.40001
1.40001
1.40001
1.40001
1.40001
1.40001
1.40001
1.65642
1.65465
1.64084
1.53977
1.4366
1.40307
1.4001
1.40001
1.40001
1.40001
1.40001
1.40001
1.40001
1.40001
1.40001
1.68109
1.64375
1.61427
1.48974
1.41543
1.40091
1.40003
1.40001
1.40001
1.40001
1.40001
1.40001
1.40001
1.40001
1.40001
1.70188
1.62271
1.56142
1.45081
1.40576
1.40023
1.40001
1.40001
1.40001
1.40001
1.40001
1.40001
1.40001
1.40001
1.40001
1.71249
1.60126
1.50794
1.42283
1.40175
1.40006
1.40001
1.40001
1.40001
1.40001
1.40001
1.40001
1.40001
1.40001
1.40001
1.71156
1.56165
1.46253
1.40864
1.40044
1.40001
1.40001
1.40001
1.40001
1.40001
1.40001
1.40001
1.40001
1.40001
1.40001
1.67347
1.51645
1.43014
1.40268
1.4001
1.40001
1.40001
1.40001
1.40001
1.40001
1.40001
1.40001
1.40001
1.40001
1.40001
1.6245
1.47188
1.41129
1.40059
1.40002
1.40001
1.40001
1.40001
1.40001
1.40001
1.40001
1.40001
1.40001
1.40001
1.40001
1.55362
1.43291
1.40283
1.4001
1.40001
1.40001
1.40001
1.40001
1.40001
1.40001
1.40001
1.40001
1.40001
1.40001
1.40001
1.46881
1.40906
1.40041
1.40001
1.40001
1.40001
1.40001
1.40001
1.40001
1.40001
1.40001
1.40001
1.40001
1.40001
1.40001
1.40001
1.40001
1.40001
1.40001
1.40001
1.40001
1.40001
1.40001
1.40001
1.40001
1.40001
1.40001
1.40001
1.40001
1.40001
1.40001
1.40001
1.40001
1.40001
1.40001
1.40001
1.40001
1.40001
1.40001
1.40001
1.40001
1.40001
1.40001
1.40001
1.40001
1.40001
1.40001
1.40001
1.40001
1.40001
1.40001
1.40001
1.40001
1.40001
1.40001
1.40001
1.40001
1.40001
1.40001
1.40001
1.40001
1.40001
1.40001
1.40001
1.40001
1.40001
1.40001
1.40001
1.40001
1.40001
1.40001
1.40001
1.40001
1.40001
1.40001
1.40001
1.40001
1.40001
1.40001
1.40001
1.40001
1.40001
1.40001
1.40001
1.40001
1.40001
1.40001
1.40001
1.40001
1.40001
1.40001
1.40001
1.40001
1.40001
1.40001
1.40001
1.40001
1.40001
1.40001
1.40001
1.40001
1.40001
1.40001
1.40001
1.40001
1.40001
1.40001
1.40001
1.40001
1.40001
1.40001
1.40001
1.40001
1.40001
1.40001
1.40001
1.40001
1.40001
1.40001
1.40001
1.40001
1.40001
1.40001
1.40001
1.40001
1.40001
1.40001
1.40001
1.40001
1.40001
1.40001
1.40001
1.40001
1.40001
1.40001
1.40001
1.40001
1.40001
1.40001
1.40001
1.40001
1.40001
1.40001
1.40001
1.40001
1.40001
1.40001
1.40001
1.40001
1.40001
1.40001
1.40001
1.40001
1.40001
1.40001
1.40001
1.40001
1.40001
1.40001
1.40001
1.40001
1.40001
1.40001
1.40001
1.40001
1.40001
1.40001
1.40001
1.40001
1.40001
1.40001
1.40001
1.40001
1.40001
1.40001
1.40001
1.40001
1.40001
1.40001
1.40001
1.40001
1.40001
1.40001
1.40001
1.40001
1.40001
1.40001
1.40001
1.40001
1.40001
1.40001
1.40001
1.40001
1.40001
1.40001
1.40001
1.40001
1.40001
1.40001
1.40001
1.40001
1.40001
1.40001
1.40001
1.40001
1.40001
1.40001
1.40001
1.40001
1.40001
1.40001
1.40001
1.40001
1.40001
1.40001
1.40001
1.40001
1.40001
1.40001
1.40001
1.40001
1.40001
1.40001
1.40001
1.40001
1.40001
1.40001
1.40001
1.40001
1.40001
1.40001
1.40001
1.40001
1.40001
1.40001
1.40001
1.40001
1.40001
1.40001
1.40001
1.40001
1.40001
1.40001
1.40001
1.40001
1.40001
1.40001
1.40001
1.40001
1.40001
1.40001
1.40001
1.40001
1.40001
1.40001
1.40001
1.40001
1.40001
1.40001
1.40001
1.40001
1.40001
1.40001
1.40001
1.40001
1.40001
1.40001
1.40001
1.40001
1.40001
1.40001
1.40001
1.40001
1.40001
1.40001
1.40001
1.40001
1.40001
1.40001
1.40001
1.40001
1.40001
1.40001
1.40001
1.40001
1.40001
1.40001
1.40001
1.40001
1.40001
1.40001
1.40001
1.40001
1.40001
1.40001
1.40001
1.40001
1.40001
1.40001
1.40001
1.40001
1.40001
1.40001
1.40001
1.40001
1.40001
1.40001
1.40001
1.40001
1.40001
1.40001
1.40001
1.40001
1.40001
1.40001
1.40001
1.40001
1.40001
1.40001
1.40001
1.40001
1.40001
1.40001
1.40001
1.40001
1.40001
1.40001
1.40001
1.40001
1.40001
1.40001
1.40001
1.40001
1.40001
1.40001
1.40001
1.40001
1.40001
1.40001
1.40001
1.40001
1.40001
1.40001
1.40001
1.40001
1.40001
1.40001
1.40001
1.40001
1.40001
1.40001
1.40001
1.40001
1.40001
1.40001
1.40001
1.40001
1.40001
1.40001
1.40001
1.40001
1.40001
1.40001
1.40001
1.40001
2.38936
1.39841
1.40001
1.40001
1.40001
1.40001
1.40001
1.40001
1.40001
1.40001
1.40001
1.40001
1.40001
1.40001
1.40001
1.40001
1.40001
1.40001
1.40001
1.40001
5.1035
2.35117
1.4
1.40001
1.40001
1.40001
1.40001
1.40001
1.40001
1.40001
1.40001
1.40001
1.40001
1.40001
1.40001
1.40001
1.40001
1.40001
1.40001
1.40001
6.80775
5.10918
3.78093
1.81343
1.39995
1.40001
1.40001
1.40001
1.40001
1.40001
1.40001
1.40001
1.40001
1.40001
1.40001
1.40001
1.40001
1.40001
1.40001
1.40001
5.59901
4.82349
4.85741
4.11914
2.08305
1.39834
1.40001
1.40001
1.40001
1.40001
1.40001
1.40001
1.40001
1.40001
1.40001
1.40001
1.40001
1.40001
1.40001
1.40001
4.86351
4.58645
4.6351
4.57776
3.85778
1.82108
1.39859
1.40001
1.40001
1.40001
1.40001
1.40001
1.40001
1.40001
1.40001
1.40001
1.40001
1.40001
1.40001
1.40001
4.60398
4.50476
4.49985
4.43377
4.30911
3.16113
1.51936
1.4
1.40001
1.40001
1.40001
1.40001
1.40001
1.40001
1.40001
1.40001
1.40001
1.40001
1.40001
1.40001
4.48654
4.42644
4.39431
4.32238
4.32596
4.07241
2.21818
1.39702
1.40001
1.40001
1.40001
1.40001
1.40001
1.40001
1.40001
1.40001
1.40001
1.40001
1.40001
1.40001
4.41044
4.35798
4.32728
4.27068
4.28204
4.23233
3.27474
1.55673
1.4
1.40001
1.40001
1.40001
1.40001
1.40001
1.40001
1.40001
1.40001
1.40001
1.40001
1.40001
4.35546
4.31097
4.2916
4.24513
4.2531
4.25544
4.00063
2.13487
1.39718
1.40001
1.40001
1.40001
1.40001
1.40001
1.40001
1.40001
1.40001
1.40001
1.40001
1.40001
4.3435
4.29679
4.26765
4.21504
4.21492
4.22632
4.15994
3.00805
1.48075
1.4
1.40001
1.40001
1.40001
1.40001
1.40001
1.40001
1.40001
1.40001
1.40001
1.40001
4.34799
4.29774
4.26434
4.20475
4.20936
4.22588
4.2409
3.71828
1.80109
1.39965
1.40001
1.40001
1.40001
1.40001
1.40001
1.40001
1.40001
1.40001
1.40001
1.40001
4.35985
4.30772
4.27357
4.21242
4.20749
4.21362
4.2267
4.04867
2.4581
1.40548
1.40001
1.40001
1.40001
1.40001
1.40001
1.40001
1.40001
1.40001
1.40001
1.40001
4.3591
4.31015
4.2801
4.22885
4.2074
4.20873
4.25121
4.24707
3.18158
1.50157
1.4
1.40001
1.40001
1.40001
1.40001
1.40001
1.40001
1.40001
1.40001
1.40001
4.33369
4.29709
4.27756
4.2352
4.22303
4.22792
4.28739
4.28053
3.73168
1.92739
1.40001
1.40001
1.40001
1.40001
1.40001
1.40001
1.40001
1.40001
1.40001
1.40001
4.32383
4.28962
4.26318
4.23417
4.23985
4.25173
4.29913
4.31928
4.04779
2.22569
1.3382
1.40001
1.40001
1.40001
1.40001
1.40001
1.40001
1.40001
1.40001
1.40001
1.98232
2.89222
3.34177
3.63598
3.86225
4.00869
4.12749
4.2604
4.2788
3.68126
2.02987
1.43489
1.40043
1.40001
1.40001
1.40001
1.40001
1.40001
1.40001
1.40001
0.656172
1.74891
2.35124
2.78139
3.14596
3.46693
3.69904
3.98216
4.19413
4.05683
3.24932
1.85245
1.42016
1.4002
1.40001
1.40001
1.40001
1.40001
1.40001
1.40001
0.404415
1.03539
1.59471
2.10233
2.48527
2.84795
3.18768
3.52791
3.93007
3.86507
3.76075
2.76553
1.61244
1.40536
1.40004
1.40001
1.40001
1.40001
1.40001
1.40001
0.456798
0.793099
1.06304
1.49822
1.9623
2.29227
2.65407
3.01099
3.42333
3.56156
3.63069
3.36191
2.19154
1.46356
1.40086
1.40001
1.40001
1.40001
1.40001
1.40001
0.594756
0.729599
0.854137
1.13913
1.51921
1.89523
2.19552
2.51994
2.86333
3.15027
3.43111
3.40642
2.82508
1.73097
1.41188
1.4001
1.40001
1.40001
1.40001
1.40001
0.729316
0.678979
0.721203
0.979183
1.23128
1.5835
1.88287
2.1693
2.44404
2.72665
3.1379
3.30907
3.17791
2.21195
1.4769
1.40106
1.40001
1.40001
1.40001
1.40001
0.744196
0.64708
0.643952
0.809493
1.01404
1.30966
1.60077
1.86539
2.14839
2.42142
2.79568
3.11259
3.12281
2.62906
1.6547
1.40756
1.40005
1.40001
1.40001
1.40001
0.725847
0.650981
0.660029
0.765739
0.879979
1.04473
1.30376
1.53372
1.83009
2.13567
2.47733
2.87137
2.98238
2.80422
1.93403
1.43353
1.40032
1.40001
1.40001
1.40001
0.705017
0.673371
0.713473
0.76405
0.830328
0.950712
1.12132
1.322
1.54282
1.8222
2.14866
2.57699
2.80643
2.77837
2.17978
1.49365
1.40145
1.40001
1.40001
1.40001
0.699333
0.702723
0.75465
0.750598
0.781754
0.901225
1.03011
1.22833
1.42201
1.64421
1.88519
2.27095
2.62794
2.67498
2.32327
1.58869
1.40499
1.40003
1.40001
1.40001
0.67858
0.705035
0.742712
0.720994
0.721318
0.830557
0.929593
1.12465
1.32637
1.53419
1.74196
2.05959
2.47745
2.58964
2.4097
1.70352
1.41308
1.4001
1.40001
1.40001
0.665819
0.691183
0.717022
0.697364
0.686653
0.754357
0.830692
0.955108
1.15487
1.37545
1.59702
1.89971
2.34373
2.51861
2.43397
1.81763
1.42708
1.40025
1.40001
1.40001
0.66409
0.681566
0.703167
0.697294
0.68652
0.725964
0.781371
0.871124
1.03828
1.18101
1.38886
1.69568
2.17125
2.40123
2.38907
1.89009
1.44555
1.40054
1.40001
1.40001
0.671206
0.681581
0.702383
0.701016
0.695012
0.715347
0.76322
0.86803
1.00392
1.14188
1.29045
1.53085
1.98681
2.28817
2.3217
1.92378
1.46053
1.40086
1.40001
1.40001
0.688722
0.687079
0.705083
0.713512
0.711697
0.713613
0.738685
0.840008
0.957052
1.11577
1.26926
1.50793
1.93836
2.26341
2.30687
1.92916
1.46659
1.4011
1.40001
1.40001
0.64023
0.70058
0.724052
0.733689
0.727186
0.718641
0.73032
0.798948
0.874308
1.04144
1.22462
1.49452
1.94338
2.25146
2.28308
1.91004
1.46392
1.40104
1.40001
1.40001
0.646006
0.711201
0.757418
0.771493
0.757951
0.736436
0.740051
0.788931
0.851447
0.976818
1.16809
1.43514
1.89396
2.19358
2.22522
1.86801
1.45665
1.4009
1.40001
1.40001
0.591031
0.692371
0.76825
0.816279
0.804583
0.776628
0.768659
0.800347
0.86449
0.976294
1.15358
1.4053
1.84344
2.1299
2.15051
1.79933
1.44361
1.40065
1.40001
1.40001
0.575367
0.678403
0.766156
0.84374
0.850257
0.832547
0.806755
0.816899
0.884547
0.981366
1.14969
1.41588
1.85724
2.09279
2.0694
1.70782
1.42717
1.40035
1.40001
1.40001
0.693543
0.743336
0.804443
0.899132
0.9199
0.908111
0.855268
0.842434
0.913166
1.02046
1.16775
1.47259
1.90375
2.05117
1.97187
1.60396
1.41243
1.40013
1.40001
1.40001
0.902318
0.926582
0.954913
1.0259
1.04668
1.0308
0.948559
0.908958
0.969535
1.10114
1.22614
1.56827
1.93
1.9911
1.84106
1.50232
1.40351
1.40003
1.40001
1.40001
1.02584
1.08067
1.10205
1.1201
1.1342
1.13378
1.07857
1.01752
1.04355
1.18773
1.33153
1.68104
1.91681
1.90149
1.66403
1.43034
1.40049
1.40001
1.40001
1.40001
1.12343
1.18006
1.16244
1.12585
1.12792
1.15171
1.16804
1.13664
1.14244
1.29139
1.47712
1.74281
1.84125
1.74
1.49095
1.4038
1.40003
1.4
1.40001
1.40001
1.21169
1.22539
1.19974
1.11864
1.11078
1.13937
1.18965
1.23226
1.26941
1.39516
1.55331
1.71755
1.68732
1.52404
1.41143
1.40015
1.4
1.4
1.40001
1.40001
1.23845
1.25465
1.23694
1.15816
1.13393
1.15269
1.19027
1.24384
1.29906
1.39616
1.51002
1.52468
1.46855
1.41134
1.40031
1.4
1.4
1.4
1.40001
1.40001
)
;

boundaryField
{
    inlet
    {
        type            calculated;
        value           uniform 1.40001;
    }
    outlet
    {
        type            calculated;
        value           nonuniform List<scalar> 
35
(
1.24133
1.25645
1.23789
1.15868
1.13396
1.15241
1.18972
1.24302
1.29795
1.3952
1.51054
1.52818
1.47213
1.41241
1.40035
1.4
1.4
1.4
1.40001
1.40001
1.13414
1.10712
1.14222
1.13501
0.816519
0.683211
0.777816
0.886009
1.05497
1.22115
1.34927
1.39441
1.3998
1.4
1.40001
)
;
    }
    airfoil
    {
        type            calculated;
        value           nonuniform List<scalar> 
60
(
0.0779263
0.0718389
0.0694915
0.0694747
0.0711548
0.0544864
0.0462387
0.0370666
0.0304878
0.0230277
0.014073
0.0419363
0.191289
0.457694
0.966322
1.63738
1.63743
1.63864
1.63935
1.63791
1.6401
1.65642
1.68109
1.70188
1.71249
1.71156
1.67347
1.6245
1.55362
1.46881
2.38936
5.1035
6.80775
5.59901
4.86351
4.60398
4.48654
4.41044
4.35546
4.3435
4.34799
4.35985
4.3591
4.33369
4.32383
1.98232
0.656172
0.404415
0.456798
0.594756
0.729316
0.744196
0.725847
0.705017
0.699333
0.67858
0.665819
0.66409
0.671206
0.688722
)
;
    }
    top
    {
        type            symmetryPlane;
    }
    bottom
    {
        type            symmetryPlane;
    }
    defaultFaces
    {
        type            empty;
    }
}


// ************************************************************************* //
