/*--------------------------------*- C++ -*----------------------------------*\
  =========                 |
  \\      /  F ield         | OpenFOAM: The Open Source CFD Toolbox
   \\    /   O peration     | Website:  https://openfoam.org
    \\  /    A nd           | Version:  7
     \\/     M anipulation  |
\*---------------------------------------------------------------------------*/
FoamFile
{
    version     2.0;
    format      ascii;
    class       volVectorField;
    location    "1.8";
    object      U;
}
// * * * * * * * * * * * * * * * * * * * * * * * * * * * * * * * * * * * * * //

dimensions      [0 1 -1 0 0 0 0];

internalField   nonuniform List<vector> 
1750
(
(2.38012 -0.184111 0)
(2.47597 0.105244 0)
(2.39222 0.570579 0)
(2.49628 0.666323 0)
(2.35073 0.441985 0)
(2.21601 0.154686 0)
(2.30947 0.0153848 0)
(2.53151 -0.0721828 0)
(2.72361 -0.0324274 0)
(2.85006 0.10159 0)
(2.34102 -1.81138 0)
(2.47155 -1.55529 0)
(2.25965 -0.583644 0)
(2.16842 0.377189 0)
(2.14277 0.429278 0)
(2.07894 0.064778 0)
(2.13269 -0.241227 0)
(2.27332 -0.181929 0)
(2.34891 -0.0228319 0)
(2.5022 0.0877749 0)
(2.75298 -1.95592 0)
(2.90888 -1.85782 0)
(2.87747 -1.89039 0)
(2.48222 -0.690529 0)
(2.63415 -0.283213 0)
(2.58656 -0.577328 0)
(2.38024 -0.581803 0)
(2.15908 -0.256058 0)
(2.13072 -0.0331674 0)
(2.30472 0.0450787 0)
(2.9993 -1.67465 0)
(3.11618 -1.59257 0)
(3.09473 -1.57744 0)
(3.07937 -1.66618 0)
(3.13348 -1.61975 0)
(3.13416 -1.62395 0)
(2.95383 -1.59262 0)
(2.56363 -0.903636 0)
(2.41897 -0.400834 0)
(2.37867 -0.113903 0)
(3.10198 -1.47379 0)
(3.06346 -1.56981 0)
(3.08337 -1.55849 0)
(3.12567 -1.39143 0)
(3.1094 -1.38805 0)
(3.08122 -1.38469 0)
(3.06454 -1.29125 0)
(2.97409 -1.23488 0)
(2.77784 -0.961017 0)
(2.57493 -0.492399 0)
(3.15803 -1.21977 0)
(3.18391 -1.12423 0)
(3.21335 -1.06662 0)
(3.18683 -1.1005 0)
(3.1718 -1.12244 0)
(3.13811 -1.16342 0)
(3.07708 -1.149 0)
(3.00091 -1.02037 0)
(2.91269 -0.873462 0)
(2.75424 -0.727255 0)
(3.1719 -0.865926 0)
(3.17289 -0.860248 0)
(3.17481 -0.864516 0)
(3.18733 -0.862802 0)
(3.18532 -0.839877 0)
(3.1781 -0.812059 0)
(3.1277 -0.802181 0)
(3.03815 -0.789462 0)
(2.97061 -0.764548 0)
(2.81505 -0.652545 0)
(3.13994 -0.463435 0)
(3.13858 -0.478077 0)
(3.14949 -0.500535 0)
(3.16167 -0.528111 0)
(3.14768 -0.571605 0)
(3.14586 -0.60998 0)
(3.13898 -0.629199 0)
(3.06953 -0.576162 0)
(2.98574 -0.514572 0)
(2.88533 -0.440303 0)
(3.07334 -0.12014 0)
(3.0777 -0.137546 0)
(3.09879 -0.195353 0)
(3.10813 -0.22189 0)
(3.113 -0.241145 0)
(3.13009 -0.30243 0)
(3.1003 -0.339547 0)
(3.04965 -0.343395 0)
(3.00639 -0.34218 0)
(2.94805 -0.310601 0)
(3.02345 0.0363548 0)
(3.0309 0.0251112 0)
(3.04152 0.00306107 0)
(3.04991 -0.0227878 0)
(3.05667 -0.0462322 0)
(3.06587 -0.0832221 0)
(3.06289 -0.128421 0)
(3.03787 -0.154884 0)
(3.00249 -0.155942 0)
(2.97601 -0.140038 0)
(3.0069 0.046246 0)
(3.01134 0.040277 0)
(3.01588 0.0310928 0)
(3.01863 0.0210778 0)
(3.02022 0.0107636 0)
(3.02174 -0.00371582 0)
(3.02152 -0.022424 0)
(3.01356 -0.0379494 0)
(3.00088 -0.0428117 0)
(2.99342 -0.0379733 0)
(2.9995 0.0243765 0)
(3.00176 0.0226863 0)
(3.00428 0.0198516 0)
(3.00656 0.0154562 0)
(3.00778 0.00925075 0)
(3.0062 0.00369255 0)
(3.00423 -0.000511348 0)
(3.00201 -0.00373751 0)
(3.00008 -0.00473902 0)
(2.99923 -0.00406866 0)
(2.99939 0.00336053 0)
(2.99969 0.00357235 0)
(2.99986 0.00348805 0)
(3.00024 0.003055 0)
(3.00044 0.00234309 0)
(3.00083 0.00128963 0)
(3.00065 0.000293656 0)
(3.00019 -9.41288e-05 0)
(3.00001 -0.000175002 0)
(2.99997 -0.000146617 0)
(2.99998 7.82887e-05 0)
(2.99998 0.000100557 0)
(2.99999 0.000111497 0)
(2.99999 0.000108443 0)
(3 9.31738e-05 0)
(3.00002 5.92637e-05 0)
(3.00001 2.59555e-05 0)
(3.00001 1.76532e-06 0)
(3 -2.61703e-06 0)
(3 -2.25922e-06 0)
(3 5.57209e-07 0)
(3 7.77495e-07 0)
(3 9.3932e-07 0)
(3 9.47757e-07 0)
(3 8.67419e-07 0)
(3 6.04336e-07 0)
(3 2.77969e-07 0)
(3 6.11185e-08 0)
(3 -2.20095e-08 0)
(3 -1.99226e-08 0)
(2.02415 -1.52162 0)
(2.23686 -1.57192 0)
(2.57917 -1.99826 0)
(2.85205 -1.84819 0)
(3.04862 -1.54742 0)
(3.13673 -1.2746 0)
(3.17493 -0.878903 0)
(3.14553 -0.465086 0)
(3.06973 -0.0981336 0)
(3.01678 0.0462315 0)
(3.00277 0.0506579 0)
(2.99821 0.0248781 0)
(2.99942 0.0028708 0)
(2.99999 6.37451e-05 0)
(3 4.40356e-07 0)
(1.97407 -1.4449 0)
(2.23787 -1.64424 0)
(2.65708 -1.80686 0)
(2.83444 -1.84008 0)
(3.04988 -1.52645 0)
(3.16526 -1.17063 0)
(3.18694 -0.692581 0)
(3.11674 -0.267011 0)
(3.03928 -0.00203705 0)
(3.00487 0.0647069 0)
(2.99806 0.0531104 0)
(2.9963 0.0196319 0)
(2.99961 0.00154527 0)
(2.99999 2.9437e-05 0)
(3 2.08909e-07 0)
(1.8672 -1.46973 0)
(2.24401 -1.70018 0)
(2.67503 -1.82173 0)
(2.85349 -1.82268 0)
(3.056 -1.50238 0)
(3.20314 -0.910511 0)
(3.17035 -0.501722 0)
(3.08278 -0.159176 0)
(3.01864 0.0394305 0)
(2.99819 0.0722186 0)
(2.99521 0.0536677 0)
(2.99683 0.0149955 0)
(2.99977 0.000898627 0)
(3 1.47866e-05 0)
(3 1.01424e-07 0)
(1.75721 -1.46482 0)
(2.26238 -1.84451 0)
(2.68249 -1.88397 0)
(2.90276 -1.73002 0)
(3.16286 -1.10504 0)
(3.19581 -0.75015 0)
(3.14599 -0.456632 0)
(3.06334 -0.120722 0)
(3.00572 0.0615468 0)
(2.99288 0.076655 0)
(2.98978 0.0490208 0)
(2.99722 0.0106119 0)
(2.99988 0.000463283 0)
(3 6.76518e-06 0)
(3 4.58256e-08 0)
(1.65582 -1.52961 0)
(2.24859 -1.87623 0)
(2.64894 -1.9159 0)
(3.02939 -1.3735 0)
(3.15121 -0.96784 0)
(3.16244 -0.789726 0)
(3.11951 -0.359106 0)
(3.0385 -0.0248578 0)
(2.99352 0.0842878 0)
(2.98823 0.0799652 0)
(2.99028 0.0434278 0)
(2.99836 0.00618678 0)
(2.99994 0.000213874 0)
(3 2.87278e-06 0)
(3 1.94619e-08 0)
(1.56667 -1.46673 0)
(2.16549 -1.87951 0)
(2.57523 -1.80089 0)
(3.02248 -1.05584 0)
(3.11922 -1.12434 0)
(3.1539 -0.640466 0)
(3.08946 -0.183367 0)
(3.01509 0.0429476 0)
(2.98661 0.0922835 0)
(2.98502 0.0806706 0)
(2.99144 0.0315473 0)
(2.99902 0.00333903 0)
(2.99997 8.81363e-05 0)
(3 1.13002e-06 0)
(3 7.71706e-09 0)
(1.36333 -1.46197 0)
(2.16673 -1.83665 0)
(2.70721 -1.56643 0)
(3.02014 -1.31347 0)
(3.14876 -0.952703 0)
(3.12904 -0.329562 0)
(3.05293 -0.0459156 0)
(2.99234 0.0878173 0)
(2.98223 0.0971127 0)
(2.98045 0.0689645 0)
(2.99408 0.0201121 0)
(2.99961 0.00143356 0)
(2.99999 3.259e-05 0)
(3 4.03329e-07 0)
(3 2.79236e-09 0)
(1.34308 -1.23974 0)
(2.1015 -1.75783 0)
(2.7814 -1.21169 0)
(2.99518 -1.29523 0)
(3.14669 -0.501932 0)
(3.11357 -0.229839 0)
(3.02428 0.0141379 0)
(2.9796 0.105074 0)
(2.97978 0.0992265 0)
(2.98433 0.0583798 0)
(2.99638 0.0126499 0)
(2.99983 0.000610909 0)
(3 1.15477e-05 0)
(3 1.36747e-07 0)
(3 9.44511e-10 0)
(1.33024 -1.11409 0)
(2.11127 -1.57997 0)
(2.80401 -1.35832 0)
(3.11524 -0.732026 0)
(3.15424 -0.398804 0)
(3.06873 -0.104671 0)
(2.99287 0.0863591 0)
(2.9712 0.115182 0)
(2.96808 0.100184 0)
(2.9851 0.0462679 0)
(2.99844 0.00541575 0)
(2.99994 0.000202912 0)
(3 3.56953e-06 0)
(3 4.17133e-08 0)
(3 2.90187e-10 0)
(1.19198 -0.858404 0)
(2.08 -1.43272 0)
(2.8246 -1.27208 0)
(3.11933 -0.438879 0)
(3.11992 -0.268867 0)
(3.01834 0.0278252 0)
(2.97279 0.120799 0)
(2.96605 0.118472 0)
(2.97233 0.0890308 0)
(2.99173 0.0251467 0)
(2.99929 0.00229593 0)
(2.99998 6.3494e-05 0)
(3 1.03605e-06 0)
(3 1.18661e-08 0)
(3 8.20556e-11 0)
(0.667213 -0.0282406 0)
(2.21847 -0.735245 0)
(2.99474 -0.561761 0)
(3.13407 -0.416111 0)
(3.06014 -0.0572335 0)
(2.98325 0.100038 0)
(2.96184 0.13139 0)
(2.96294 0.119937 0)
(2.97852 0.0600645 0)
(2.99581 0.011877 0)
(2.99979 0.000658044 0)
(3 1.59876e-05 0)
(3 2.5574e-07 0)
(3 2.96967e-09 0)
(3 2.06903e-11 0)
(0.365284 0.499851 0)
(2.55002 -0.423764 0)
(3.1123 -0.436538 0)
(3.10035 -0.118372 0)
(3.01 0.0550196 0)
(2.96005 0.134826 0)
(2.95641 0.132762 0)
(2.96125 0.100351 0)
(2.98585 0.0362485 0)
(2.99854 0.00418296 0)
(2.99995 0.000166389 0)
(3 3.49819e-06 0)
(3 5.41788e-08 0)
(3 6.33714e-10 0)
(3 4.46196e-12 0)
(1.14496 0.467723 0)
(2.86614 -0.327767 0)
(3.15403 -0.271692 0)
(3.03801 0.0387882 0)
(2.96941 0.120232 0)
(2.95157 0.14291 0)
(2.95345 0.130686 0)
(2.97168 0.0716971 0)
(2.99364 0.0162886 0)
(2.99958 0.00115951 0)
(2.99999 3.48687e-05 0)
(3 6.65146e-07 0)
(3 9.86997e-09 0)
(3 1.13756e-10 0)
(3 7.96797e-13 0)
(2.03948 0.248645 0)
(3.15806 -0.0861807 0)
(3.08878 0.0321094 0)
(2.97983 0.131838 0)
(2.94906 0.143228 0)
(2.94898 0.143217 0)
(2.9591 0.0990657 0)
(2.9845 0.0354927 0)
(2.99828 0.00421943 0)
(2.99993 0.000198405 0)
(3 5.13226e-06 0)
(3 9.3168e-08 0)
(3 1.32906e-09 0)
(3 1.4953e-11 0)
(3 1.02392e-13 0)
(2.68737 0.179084 0)
(3.11452 0.036718 0)
(2.99118 0.117309 0)
(2.94869 0.160824 0)
(2.94478 0.144469 0)
(2.95002 0.125451 0)
(2.97117 0.0667815 0)
(2.99446 0.012318 0)
(2.99965 0.00083976 0)
(2.99999 2.73247e-05 0)
(3 5.80714e-07 0)
(3 8.9242e-09 0)
(3 1.04426e-10 0)
(3 1.0296e-12 0)
(3 6.88958e-15 0)
(2.92876 0.150409 0)
(2.93704 0.152189 0)
(2.94093 0.160616 0)
(2.94138 0.16439 0)
(2.95475 0.134358 0)
(2.96079 0.101323 0)
(2.9912 0.0183819 0)
(2.99958 0.000687885 0)
(2.99999 1.51306e-05 0)
(3 6.36699e-07 0)
(3 -5.32987e-09 0)
(3 -6.89749e-10 0)
(3 -1.8177e-11 0)
(3 -1.45123e-13 0)
(3 -4.69942e-16 0)
(2.92544 0.150359 0)
(2.93232 0.1499 0)
(2.94061 0.155762 0)
(2.94265 0.169541 0)
(2.95353 0.133585 0)
(2.96866 0.0764216 0)
(2.99279 0.0170287 0)
(2.99923 0.00168699 0)
(2.99997 6.21239e-05 0)
(3 1.30936e-06 0)
(3 1.88633e-08 0)
(3 2.07171e-10 0)
(3 1.82881e-12 0)
(3 1.26666e-14 0)
(3 -1.63671e-16 0)
(2.92334 0.15202 0)
(2.93365 0.153616 0)
(2.94459 0.156544 0)
(2.94443 0.170631 0)
(2.95932 0.112934 0)
(2.97883 0.0491267 0)
(2.99655 0.0071057 0)
(2.99986 0.000242185 0)
(3 4.19984e-06 0)
(3 4.79154e-08 0)
(3 4.54855e-10 0)
(3 3.70077e-12 0)
(3 2.5622e-14 0)
(3 -1.05708e-15 0)
(3 -7.42156e-16 0)
(2.9232 0.153903 0)
(2.93239 0.157237 0)
(2.94627 0.154272 0)
(2.94848 0.158016 0)
(2.96521 0.0935696 0)
(2.98723 0.0290108 0)
(2.99881 0.00229973 0)
(2.99996 7.59633e-05 0)
(3 1.16461e-06 0)
(3 1.34999e-08 0)
(3 1.28345e-10 0)
(3 1.03886e-12 0)
(3 7.23057e-15 0)
(3 -5.84402e-16 0)
(3 -2.94679e-16 0)
(2.92311 0.156498 0)
(2.9313 0.162429 0)
(2.94714 0.153075 0)
(2.95644 0.141717 0)
(2.97187 0.0759342 0)
(2.9934 0.014058 0)
(2.99955 0.000856674 0)
(2.99999 1.88283e-05 0)
(3 2.53517e-07 0)
(3 2.69778e-09 0)
(3 2.4048e-11 0)
(3 1.86533e-13 0)
(3 2.33095e-15 0)
(3 1.29006e-16 0)
(3 -4.10568e-16 0)
(2.92385 0.160449 0)
(2.92525 0.169386 0)
(2.94884 0.147151 0)
(2.96131 0.125572 0)
(2.98334 0.0428345 0)
(2.99734 0.00549509 0)
(2.99988 0.00023729 0)
(3 4.26133e-06 0)
(3 5.68731e-08 0)
(3 5.82658e-10 0)
(3 5.13596e-12 0)
(3 4.05099e-14 0)
(3 2.71392e-15 0)
(3 8.10199e-16 0)
(3 -3.09189e-16 0)
(2.92446 0.157339 0)
(2.92112 0.177136 0)
(2.95452 0.13879 0)
(2.96933 0.102147 0)
(2.99067 0.0224678 0)
(2.99896 0.00213375 0)
(2.99997 5.54931e-05 0)
(3 1.00319e-06 0)
(3 1.13858e-08 0)
(3 1.14741e-10 0)
(3 9.55055e-13 0)
(3 7.97896e-15 0)
(3 2.38323e-15 0)
(3 6.09694e-16 0)
(3 -3.93145e-16 0)
(2.92117 0.154162 0)
(2.92501 0.190186 0)
(2.97615 0.107056 0)
(2.98253 0.0603301 0)
(2.99534 0.0107271 0)
(2.99972 0.000511464 0)
(2.99999 1.45991e-05 0)
(3 1.91816e-07 0)
(3 2.33798e-09 0)
(3 2.1782e-11 0)
(3 1.76045e-13 0)
(3 2.41654e-15 0)
(3 1.6158e-15 0)
(3 5.67663e-16 0)
(3 -1.16229e-16 0)
(2.92609 0.136086 0)
(2.93133 0.195865 0)
(2.97225 0.0953525 0)
(2.98673 0.0351567 0)
(2.99835 0.00345563 0)
(2.99992 0.000158131 0)
(3 2.64744e-06 0)
(3 3.98593e-08 0)
(3 4.07553e-10 0)
(3 3.7479e-12 0)
(3 2.72095e-14 0)
(3 8.07059e-16 0)
(3 1.4437e-15 0)
(3 5.72452e-16 0)
(3 -4.25051e-16 0)
(2.93474 0.118194 0)
(2.9411 0.168974 0)
(2.9805 0.0608676 0)
(2.99386 0.0153641 0)
(2.99944 0.00114582 0)
(2.99998 3.11904e-05 0)
(3 5.77655e-07 0)
(3 6.6451e-09 0)
(3 7.00131e-11 0)
(3 5.94713e-13 0)
(3 3.85592e-15 0)
(3 3.89381e-16 0)
(3 9.4794e-16 0)
(3 -2.03787e-16 0)
(3 -5.96746e-16 0)
(2.93156 0.0885552 0)
(2.94904 0.139815 0)
(2.98759 0.0367148 0)
(2.99764 0.00570881 0)
(2.99986 0.00027474 0)
(3 6.29401e-06 0)
(3 8.82359e-08 0)
(3 1.0489e-09 0)
(3 9.75886e-12 0)
(3 8.20497e-14 0)
(3 8.10698e-16 0)
(3 3.73869e-16 0)
(3 2.93182e-16 0)
(3 -1.01041e-15 0)
(3 -9.31767e-16 0)
(2.94464 0.0658037 0)
(2.96424 0.0967382 0)
(2.9929 0.0189502 0)
(2.9992 0.00177058 0)
(2.99997 5.60124e-05 0)
(3 1.0188e-06 0)
(3 1.30737e-08 0)
(3 1.35458e-10 0)
(3 1.1946e-12 0)
(3 9.90669e-15 0)
(3 6.43923e-16 0)
(3 2.98703e-16 0)
(3 -2.74119e-16 0)
(3 -1.72522e-15 0)
(3 -1.1265e-15 0)
(2.9536 0.041871 0)
(2.97578 0.0591501 0)
(2.9972 0.00675793 0)
(2.99982 0.000377755 0)
(3 8.91556e-06 0)
(3 1.2753e-07 0)
(3 1.50363e-09 0)
(3 1.43419e-11 0)
(3 1.12107e-13 0)
(3 7.93945e-16 0)
(3 8.71196e-16 0)
(3 4.90059e-16 0)
(3 -3.53097e-16 0)
(3 -1.37309e-15 0)
(3 -8.38523e-16 0)
(2.96852 0.0179238 0)
(2.98879 0.0250948 0)
(2.99918 0.00183439 0)
(2.99997 5.74838e-05 0)
(3 9.63421e-07 0)
(3 1.24883e-08 0)
(3 1.26024e-10 0)
(3 1.10391e-12 0)
(3 4.87895e-15 0)
(3 1.69021e-16 0)
(3 9.62148e-16 0)
(3 7.67058e-18 0)
(3 -3.37569e-16 0)
(3 -4.94888e-16 0)
(3 -5.92045e-16 0)
(2.98462 0.00549736 0)
(2.99657 0.00664585 0)
(2.99988 0.000240361 0)
(3 4.86741e-06 0)
(3 6.3975e-08 0)
(3 6.78095e-10 0)
(3 6.23581e-12 0)
(3 4.84231e-14 0)
(3 -2.01715e-15 0)
(3 1.24178e-16 0)
(3 1.02605e-15 0)
(3 -1.85181e-16 0)
(3 -2.43422e-16 0)
(3 -2.75179e-16 0)
(3 -6.74478e-16 0)
(3 -7.66886e-16 0)
(3 5.13703e-16 0)
(3 4.54384e-16 0)
(3 1.56343e-16 0)
(3 7.42864e-16 0)
(3 1.72951e-15 0)
(3 1.79334e-15 0)
(3 -2.86805e-16 0)
(3 -2.38401e-15 0)
(3 -1.95483e-16 0)
(3 9.98756e-16 0)
(3 4.00903e-16 0)
(3 -1.01471e-16 0)
(3 -8.68711e-16 0)
(3 -7.84484e-16 0)
(3 -4.6109e-16 0)
(3 1.03283e-15 0)
(3 6.38302e-16 0)
(3 5.9162e-16 0)
(3 6.45856e-16 0)
(3 -6.55679e-16 0)
(3 8.28992e-16 0)
(3 6.21303e-16 0)
(3 -1.55504e-15 0)
(3 -4.92661e-16 0)
(3 1.17266e-15 0)
(3 1.27047e-15 0)
(3 -1.15513e-16 0)
(3 -8.55104e-16 0)
(3 -6.41917e-16 0)
(3 9.99011e-17 0)
(3 1.38636e-15 0)
(3 1.04565e-15 0)
(3 1.82554e-15 0)
(3 6.31925e-16 0)
(3 -2.47443e-15 0)
(3 -1.0644e-15 0)
(3 4.74063e-16 0)
(3 -3.29321e-16 0)
(3 -9.36317e-16 0)
(3 -1.97791e-16 0)
(3 1.61604e-15 0)
(3 1.0483e-18 0)
(3 -2.28108e-16 0)
(3 -8.67313e-17 0)
(3 7.08556e-16 0)
(3 1.77806e-15 0)
(3 1.67631e-15 0)
(3 1.9244e-15 0)
(3 6.20866e-16 0)
(3 -3.21714e-15 0)
(3 -1.93514e-15 0)
(3 1.05111e-15 0)
(3 8.46798e-16 0)
(3 -1.5071e-15 0)
(3 -2.92057e-16 0)
(3 2.04855e-15 0)
(3 -6.71985e-17 0)
(3 9.20015e-17 0)
(3 7.20112e-16 0)
(3 2.12078e-15 0)
(3 2.52882e-15 0)
(3 1.21707e-15 0)
(3 1.25152e-15 0)
(3 -1.69791e-16 0)
(3 -4.18214e-15 0)
(3 -2.12273e-15 0)
(3 1.6092e-15 0)
(3 1.00701e-15 0)
(3 -1.63384e-15 0)
(3 -1.36201e-15 0)
(3 1.00405e-15 0)
(3 3.85668e-16 0)
(3 1.07342e-15 0)
(3 1.24843e-15 0)
(3 2.33411e-15 0)
(3 2.89179e-15 0)
(3 1.25046e-15 0)
(3 5.61527e-16 0)
(3 -2.13629e-15 0)
(3 -2.91549e-15 0)
(3 -7.53033e-16 0)
(3 1.31774e-15 0)
(3 1.64052e-15 0)
(3 -2.02252e-15 0)
(3 -2.20766e-15 0)
(3 1.49397e-16 0)
(3 5.32881e-16 0)
(3 1.54152e-15 0)
(3 1.89467e-15 0)
(3 1.77732e-15 0)
(3 3.35399e-15 0)
(3 1.15098e-15 0)
(3 6.25199e-16 0)
(3 -4.54171e-16 0)
(3 -2.91234e-15 0)
(3 1.15118e-17 0)
(3 1.97861e-15 0)
(3 3.46118e-16 0)
(3 -2.03339e-15 0)
(3 -2.46681e-15 0)
(3 -1.3624e-16 0)
(3 6.486e-16 0)
(3 1.93519e-15 0)
(3 2.09112e-15 0)
(3 -1.04317e-16 0)
(3 4.95596e-16 0)
(3 8.75988e-16 0)
(3 1.41974e-15 0)
(3 -1.04111e-16 0)
(3 -5.34486e-16 0)
(3 5.73659e-16 0)
(3 3.58855e-16 0)
(3 -5.40696e-16 0)
(3 -1.43679e-15 0)
(3 -2.50699e-15 0)
(3 -2.39548e-16 0)
(3 8.67332e-16 0)
(3 1.8645e-15 0)
(3 2.06112e-15 0)
(3 3.98265e-16 0)
(3 -1.41677e-15 0)
(3 -5.11359e-16 0)
(3 1.31359e-15 0)
(3 4.43287e-16 0)
(3 1.56581e-15 0)
(3 3.86757e-16 0)
(3 -1.2922e-15 0)
(3 -1.05693e-15 0)
(3 -9.19147e-16 0)
(3 -1.82696e-15 0)
(3 4.19212e-16 0)
(3 7.94967e-16 0)
(3 3.59624e-18 0)
(3 7.79341e-16 0)
(3 -9.12305e-16 0)
(3 -1.89606e-15 0)
(3 5.41616e-16 0)
(3 3.79269e-16 0)
(3 -4.13676e-16 0)
(3 2.39161e-15 0)
(3 -1.16174e-16 0)
(3 -1.28253e-15 0)
(3 9.58609e-16 0)
(3 -4.27478e-16 0)
(3 -1.30337e-15 0)
(3 1.94252e-16 0)
(3 2.92122e-16 0)
(3 -4.02106e-17 0)
(3 -5.88036e-16 0)
(3 6.77113e-16 0)
(3 1.41241e-15 0)
(3 2.27268e-15 0)
(3 2.8965e-15 0)
(3 3.77423e-15 0)
(3 1.48332e-15 0)
(3 -2.25813e-15 0)
(3 -2.56567e-15 0)
(3 -1.46644e-15 0)
(3 -4.70116e-16 0)
(3 8.28519e-16 0)
(3 2.14223e-15 0)
(3 2.23693e-15 0)
(3 1.00247e-15 0)
(3 9.92826e-16 0)
(3 5.74505e-16 0)
(3 -5.24098e-16 0)
(3 -1.715e-15 0)
(3 -5.10865e-16 0)
(3 -6.74857e-20 0)
(3 7.26491e-16 0)
(3 -5.48708e-16 0)
(3 -8.85586e-16 0)
(3 -5.73575e-16 0)
(3 -9.92732e-16 0)
(3 8.28139e-16 0)
(3 2.16156e-15 0)
(3 3.44253e-15 0)
(3 3.0759e-15 0)
(3 1.75548e-16 0)
(3 -5.80712e-16 0)
(3 -6.67166e-16 0)
(3 -1.09261e-15 0)
(3 -5.48237e-17 0)
(3 2.42238e-16 0)
(3 1.54397e-15 0)
(3 4.05765e-15 0)
(3 5.09307e-15 0)
(3 4.05989e-15 0)
(3 1.89205e-15 0)
(3 -2.16135e-15 0)
(3 -3.18564e-16 0)
(3 -5.33182e-16 0)
(3 1.85601e-16 0)
(3 2.09467e-15 0)
(3 2.68716e-15 0)
(3 3.98842e-15 0)
(3 1.76944e-15 0)
(3 6.93176e-16 0)
(3 4.24777e-16 0)
(3 -2.68282e-15 0)
(3 -1.25737e-15 0)
(3 3.60871e-16 0)
(3 1.18831e-15 0)
(3 1.96074e-15 0)
(3 2.6083e-15 0)
(3 1.07799e-15 0)
(3 5.26946e-16 0)
(3 -4.23628e-16 0)
(3 -1.1692e-15 0)
(3 -9.61626e-16 0)
(3 -1.29049e-15 0)
(3 -9.73879e-16 0)
(3 -9.85814e-16 0)
(3 -8.84319e-16 0)
(3 -4.40631e-16 0)
(3 -2.41321e-16 0)
(3 4.39499e-16 0)
(3 5.28226e-17 0)
(3 2.0789e-16 0)
(3 -1.84712e-15 0)
(3 -2.67631e-15 0)
(3 -3.38671e-15 0)
(3 -3.35102e-15 0)
(3 -2.74373e-15 0)
(3 -2.66527e-15 0)
(3 -1.24971e-15 0)
(3 -1.02454e-15 0)
(3 -1.19114e-15 0)
(3 -2.65788e-16 0)
(3 -2.90918e-15 0)
(3 -2.27337e-15 0)
(3 -1.42065e-15 0)
(3 -1.15262e-15 0)
(3 -1.02107e-15 0)
(3 -1.08838e-15 0)
(3 -1.74612e-15 0)
(3 -1.95838e-15 0)
(3 -2.31269e-15 0)
(3 1.15804e-16 0)
(3 -1.27429e-15 0)
(3 -7.09019e-16 0)
(3 -1.17653e-15 0)
(3 -2.19896e-16 0)
(3 -5.97107e-16 0)
(3 -1.94605e-15 0)
(3 -2.69699e-15 0)
(3 -1.34539e-15 0)
(3 8.82976e-16 0)
(3 9.0172e-16 0)
(3 2.77792e-15 0)
(3 1.27767e-15 0)
(3 1.22355e-16 0)
(3 -3.60918e-18 0)
(3 -5.87895e-17 0)
(3 -3.3152e-16 0)
(3 -4.14664e-16 0)
(3 8.16448e-17 0)
(3 6.1463e-16 0)
(3 1.25674e-16 0)
(3 3.23468e-15 0)
(3 3.05315e-15 0)
(3 2.94397e-15 0)
(3 8.70217e-16 0)
(3 -4.09161e-16 0)
(3 -3.58615e-16 0)
(3 2.08699e-16 0)
(3 -1.14038e-16 0)
(3 -1.02154e-15 0)
(3 -1.00953e-15 0)
(3 1.68102e-15 0)
(3 1.94974e-15 0)
(3 1.98997e-15 0)
(3 1.46856e-15 0)
(3 2.83308e-16 0)
(3 2.31241e-16 0)
(3 -1.22263e-16 0)
(3 4.1202e-16 0)
(3 3.98422e-16 0)
(3 -6.527e-16 0)
(3 2.23439e-16 0)
(3 -5.96356e-18 0)
(3 -6.54074e-17 0)
(3 2.15524e-16 0)
(3 9.21022e-16 0)
(3 1.90134e-15 0)
(3 2.16006e-15 0)
(3 1.50385e-15 0)
(3 1.26983e-15 0)
(3 8.29164e-16 0)
(3 1.05327e-15 0)
(3 1.03472e-15 0)
(3 1.42455e-15 0)
(3 1.86218e-15 0)
(3 2.04242e-15 0)
(3 1.47858e-15 0)
(3 1.66704e-15 0)
(3 1.02497e-15 0)
(3 6.76435e-16 0)
(3 8.1742e-16 0)
(3 1.33476e-15 0)
(3 1.50527e-15 0)
(3 1.38673e-15 0)
(3 1.34145e-15 0)
(3 1.20253e-15 0)
(3 8.36597e-16 0)
(3 -1.95548e-17 0)
(3 -4.25232e-16 0)
(3 -1.8961e-16 0)
(3 -9.35457e-16 0)
(3 -3.46217e-17 0)
(3 5.08835e-18 0)
(3 -2.98756e-17 0)
(3 -5.77426e-16 0)
(3 -9.36619e-16 0)
(3 -6.90009e-16 0)
(3 -1.27733e-15 0)
(3 -1.86264e-15 0)
(3 -1.56278e-15 0)
(3 9.73402e-17 0)
(3 -2.0762e-15 0)
(3 -2.21691e-15 0)
(3 -2.11629e-15 0)
(3 -2.35587e-15 0)
(3 -2.27283e-15 0)
(3 -2.4436e-15 0)
(3 -2.66999e-15 0)
(3 -1.74235e-15 0)
(3 -4.00632e-16 0)
(3 9.32647e-16 0)
(3 -4.03473e-15 0)
(3 -3.58663e-15 0)
(3 -3.29035e-15 0)
(3 -3.32393e-15 0)
(3 -3.45517e-15 0)
(3 -3.79011e-15 0)
(3 -2.40643e-15 0)
(3 -8.71729e-17 0)
(3 4.85329e-16 0)
(3 -3.54267e-17 0)
(3 -6.61084e-16 0)
(3 -4.85072e-16 0)
(3 -2.96347e-16 0)
(3 -3.03606e-16 0)
(3 -7.06649e-16 0)
(3 -6.10502e-16 0)
(3 -5.45123e-18 0)
(3 4.13777e-16 0)
(3 2.27321e-16 0)
(3 -7.43575e-18 0)
(2.92239 0.11045 0)
(3.00113 0.00122888 0)
(3 -3.91597e-06 0)
(3 3.39773e-10 0)
(3 -4.58847e-15 0)
(3 -1.74828e-15 0)
(3 -1.68278e-15 0)
(3 -2.20337e-15 0)
(3 -1.49463e-15 0)
(3 7.7836e-16 0)
(3 3.89008e-15 0)
(3 2.32529e-15 0)
(3 1.70377e-15 0)
(3 4.48822e-16 0)
(3 1.42212e-15 0)
(3 7.23925e-16 0)
(3 3.24226e-16 0)
(3 -2.32576e-15 0)
(3 -4.27374e-15 0)
(3 -7.06756e-16 0)
(2.13323 -0.643681 0)
(2.47193 -0.492327 0)
(3.00001 6.27376e-06 0)
(3 -9.00381e-11 0)
(3 -3.42437e-15 0)
(3 -1.96033e-15 0)
(3 -2.51434e-15 0)
(3 -8.79836e-16 0)
(3 2.45168e-16 0)
(3 1.78808e-15 0)
(3 3.99181e-15 0)
(3 4.0756e-16 0)
(3 1.82723e-15 0)
(3 1.04928e-15 0)
(3 1.61865e-15 0)
(3 6.38603e-16 0)
(3 6.48808e-16 0)
(3 -2.41972e-15 0)
(3 -3.65357e-15 0)
(3 -1.57375e-16 0)
(1.34972 -0.804568 0)
(1.17638 -1.03021 0)
(1.76458 -0.888839 0)
(2.85822 -0.202555 0)
(2.99967 0.000197169 0)
(3 -1.15802e-09 0)
(3 6.17675e-15 0)
(3 2.27248e-16 0)
(3 -8.92683e-18 0)
(3 2.5125e-15 0)
(3 3.42888e-15 0)
(3 3.52846e-16 0)
(3 1.51082e-15 0)
(3 1.51127e-15 0)
(3 1.69733e-15 0)
(3 9.03707e-16 0)
(3 1.24815e-15 0)
(3 -2.11102e-15 0)
(3 -3.33511e-15 0)
(3 -1.57448e-16 0)
(1.45693 -0.91118 0)
(1.32801 -1.0236 0)
(1.39407 -0.989271 0)
(1.51495 -0.899256 0)
(2.59461 -0.308217 0)
(3.00138 0.00100263 0)
(3 -1.75962e-06 0)
(3 1.05937e-08 0)
(3 8.49295e-13 0)
(3 3.65417e-16 0)
(3 2.55957e-15 0)
(3 8.24071e-16 0)
(3 1.52729e-15 0)
(3 1.36223e-15 0)
(3 8.99791e-16 0)
(3 1.62413e-15 0)
(3 1.73116e-15 0)
(3 -2.09262e-15 0)
(3 -3.5086e-15 0)
(3 -3.53635e-16 0)
(1.53095 -1.01589 0)
(1.45765 -1.02593 0)
(1.47753 -0.993898 0)
(1.51001 -0.992459 0)
(1.8066 -0.849206 0)
(2.75973 -0.192114 0)
(3.00096 0.000850311 0)
(3 -1.66001e-07 0)
(3 -5.99316e-13 0)
(3 1.32705e-14 0)
(3 2.35283e-15 0)
(3 5.39225e-16 0)
(3 1.49161e-15 0)
(3 1.3118e-15 0)
(3 3.81157e-16 0)
(3 2.07572e-15 0)
(3 1.4344e-15 0)
(3 -2.0705e-15 0)
(3 -3.84507e-15 0)
(3 -7.44446e-16 0)
(1.55608 -1.04125 0)
(1.5321 -1.03099 0)
(1.54943 -1.00494 0)
(1.5633 -1.00878 0)
(1.6205 -1.04753 0)
(2.05967 -0.747684 0)
(2.92695 -0.0587065 0)
(3 1.52508e-07 0)
(3 5.67533e-11 0)
(3 -1.79198e-13 0)
(3 2.38504e-15 0)
(3 4.1073e-16 0)
(3 8.15441e-16 0)
(3 1.16834e-15 0)
(3 2.68042e-17 0)
(3 2.04486e-15 0)
(3 1.28544e-15 0)
(3 -2.12228e-15 0)
(3 -3.03709e-15 0)
(3 -6.32287e-16 0)
(1.5807 -1.04844 0)
(1.57807 -1.04856 0)
(1.60029 -1.03886 0)
(1.61726 -1.03209 0)
(1.63825 -1.04139 0)
(1.85689 -0.989463 0)
(2.5699 -0.409408 0)
(3.00208 0.0019555 0)
(3 -4.89875e-07 0)
(3 2.27437e-11 0)
(3 1.47156e-13 0)
(3 1.53032e-16 0)
(3 6.48929e-16 0)
(3 5.95621e-16 0)
(3 3.97132e-16 0)
(3 1.35182e-15 0)
(3 8.22046e-16 0)
(3 -1.90129e-15 0)
(3 -2.58321e-15 0)
(3 -4.40614e-16 0)
(1.60888 -1.06649 0)
(1.61142 -1.06992 0)
(1.63475 -1.06772 0)
(1.64999 -1.05726 0)
(1.67579 -1.05368 0)
(1.74582 -1.0863 0)
(2.09678 -0.82231 0)
(2.90043 -0.0875705 0)
(3 3.5867e-07 0)
(3 -8.12547e-12 0)
(3 -1.56744e-13 0)
(3 1.90497e-15 0)
(3 -1.36966e-17 0)
(3 -1.37694e-15 0)
(3 7.88467e-16 0)
(3 1.12466e-15 0)
(3 5.90858e-16 0)
(3 -1.92262e-15 0)
(3 -2.11475e-15 0)
(3 2.38642e-16 0)
(1.63453 -1.08406 0)
(1.64009 -1.08722 0)
(1.66373 -1.08318 0)
(1.68039 -1.07043 0)
(1.71462 -1.06372 0)
(1.75256 -1.08289 0)
(1.96159 -0.99875 0)
(2.62515 -0.377991 0)
(3.00184 0.00193722 0)
(3 -6.10308e-07 0)
(3 -8.30896e-11 0)
(3 -1.10157e-13 0)
(3 -2.44703e-16 0)
(3 -1.9803e-15 0)
(3 5.52608e-16 0)
(3 1.35651e-15 0)
(3 7.50177e-16 0)
(3 -2.49026e-15 0)
(3 -2.08634e-15 0)
(3 6.78521e-16 0)
(1.65522 -1.09599 0)
(1.66234 -1.09942 0)
(1.69082 -1.09783 0)
(1.71031 -1.0878 0)
(1.74352 -1.08432 0)
(1.77218 -1.10889 0)
(1.84749 -1.10729 0)
(2.21863 -0.770299 0)
(2.94939 -0.0476318 0)
(3 -7.1241e-07 0)
(3 1.48036e-09 0)
(3 1.59318e-13 0)
(3 -1.13382e-17 0)
(3 -2.35462e-15 0)
(3 -1.01722e-16 0)
(3 1.49081e-15 0)
(3 1.50264e-15 0)
(3 -3.05579e-15 0)
(3 -2.50918e-15 0)
(3 -1.22356e-17 0)
(1.67676 -1.11121 0)
(1.68298 -1.11579 0)
(1.71154 -1.11372 0)
(1.73079 -1.10454 0)
(1.75748 -1.10095 0)
(1.79653 -1.12368 0)
(1.85974 -1.11836 0)
(2.12372 -0.954679 0)
(2.78461 -0.233778 0)
(3.00018 0.000493487 0)
(3 -6.77745e-09 0)
(3 1.53588e-12 0)
(3 9.21303e-16 0)
(3 -1.99495e-15 0)
(3 -7.55697e-18 0)
(3 1.11227e-15 0)
(3 1.81276e-15 0)
(3 -3.95774e-15 0)
(3 -4.19909e-15 0)
(3 -7.33823e-16 0)
(1.70035 -1.12707 0)
(1.70547 -1.13134 0)
(1.73196 -1.12898 0)
(1.74993 -1.1211 0)
(1.77938 -1.11298 0)
(1.82416 -1.13458 0)
(1.86414 -1.1437 0)
(1.95432 -1.1022 0)
(2.45348 -0.581121 0)
(2.99664 -0.00468844 0)
(3 2.24399e-07 0)
(3 -6.30895e-12 0)
(3 1.45173e-14 0)
(3 -1.02734e-15 0)
(3 -1.91452e-16 0)
(3 1.62039e-15 0)
(3 1.58649e-15 0)
(3 -4.50531e-15 0)
(3 -5.84892e-15 0)
(3 -1.06681e-15 0)
(1.7254 -1.14306 0)
(1.73082 -1.14717 0)
(1.75595 -1.14525 0)
(1.77276 -1.13748 0)
(1.80049 -1.12775 0)
(1.83448 -1.14827 0)
(1.87051 -1.16866 0)
(1.95082 -1.12078 0)
(2.32 -0.792522 0)
(2.94754 -0.0585542 0)
(3 -2.75202e-06 0)
(3 5.07029e-10 0)
(3 -5.66432e-13 0)
(3 9.12169e-16 0)
(3 7.3977e-16 0)
(3 1.92462e-15 0)
(3 4.56143e-16 0)
(3 -4.76617e-15 0)
(3 -6.54451e-15 0)
(3 -1.93675e-15 0)
(1.74434 -1.16068 0)
(1.74841 -1.1644 0)
(1.77223 -1.16304 0)
(1.78823 -1.15221 0)
(1.81376 -1.14288 0)
(1.84933 -1.15225 0)
(1.88745 -1.16916 0)
(1.9404 -1.15164 0)
(2.06572 -1.03698 0)
(2.68034 -0.370428 0)
(3 3.45253e-06 0)
(3 -4.26524e-11 0)
(3 6.41583e-13 0)
(3 1.56076e-15 0)
(3 9.06626e-16 0)
(3 2.46927e-15 0)
(3 2.19897e-16 0)
(3 -4.75776e-15 0)
(3 -7.58678e-15 0)
(3 -3.03843e-15 0)
(1.77692 -1.18421 0)
(1.78033 -1.18686 0)
(1.80341 -1.18306 0)
(1.82159 -1.17443 0)
(1.84493 -1.16764 0)
(1.87746 -1.16927 0)
(1.91073 -1.18315 0)
(1.93586 -1.18392 0)
(2.01455 -1.10361 0)
(2.65326 -0.39435 0)
(3.04002 0.0557195 0)
(3 -1.04957e-07 0)
(3 1.72354e-13 0)
(3 2.44474e-15 0)
(3 7.51477e-16 0)
(3 2.25497e-15 0)
(3 3.53303e-16 0)
(3 -5.07571e-15 0)
(3 -8.90795e-15 0)
(3 -2.98647e-15 0)
(2.14356 -1.08026 0)
(2.32506 -0.905151 0)
(2.09915 -1.0469 0)
(2.02395 -1.09819 0)
(1.97231 -1.12769 0)
(1.94967 -1.15206 0)
(1.95276 -1.17203 0)
(1.95042 -1.18549 0)
(1.98081 -1.15351 0)
(2.12838 -0.953198 0)
(2.70552 -0.377766 0)
(2.98791 -0.0258482 0)
(2.9999 -0.000290343 0)
(3 -1.70295e-06 0)
(3 -7.82299e-09 0)
(3 -3.17059e-11 0)
(3 -1.13984e-13 0)
(3 -4.50367e-15 0)
(3 -7.69112e-15 0)
(3 -3.18546e-15 0)
(2.39503 -1.16868 0)
(2.69223 -0.443823 0)
(2.48479 -0.71844 0)
(2.3423 -0.886345 0)
(2.20742 -1.00986 0)
(2.14634 -1.06044 0)
(2.08602 -1.11474 0)
(2.0306 -1.1509 0)
(2.01442 -1.13695 0)
(1.99631 -1.15834 0)
(2.21752 -0.938801 0)
(2.80792 -0.295101 0)
(2.99424 -0.0151851 0)
(2.99996 -0.000137444 0)
(3 -7.0172e-07 0)
(3 -3.01632e-09 0)
(3 -1.17156e-11 0)
(3 -4.37671e-14 0)
(3 -5.46524e-15 0)
(3 -2.9065e-15 0)
(2.85848 -0.355887 0)
(2.92979 -0.0127018 0)
(2.77095 -0.396638 0)
(2.61584 -0.619405 0)
(2.4987 -0.789842 0)
(2.33962 -0.955586 0)
(2.27428 -1.00147 0)
(2.18658 -1.0578 0)
(2.09652 -1.09712 0)
(2.04705 -1.15634 0)
(2.10849 -1.10284 0)
(2.42475 -0.770157 0)
(2.91015 -0.151469 0)
(2.99849 -0.00389605 0)
(2.99999 -2.63329e-05 0)
(3 -1.22921e-07 0)
(3 -5.01739e-10 0)
(3 -1.84184e-12 0)
(3 -1.06788e-14 0)
(3 -2.99223e-15 0)
(2.93645 -0.0192047 0)
(3.01575 0.389767 0)
(2.91433 -0.2083 0)
(2.79058 -0.494836 0)
(2.71237 -0.595845 0)
(2.55969 -0.799597 0)
(2.45021 -0.895979 0)
(2.33813 -0.976673 0)
(2.2733 -1.01931 0)
(2.15109 -1.122 0)
(2.14332 -1.09684 0)
(2.23002 -0.981064 0)
(2.68206 -0.473258 0)
(2.97784 -0.0454777 0)
(2.99978 -0.000591786 0)
(3 -3.19188e-06 0)
(3 -1.36582e-08 0)
(3 -5.18581e-11 0)
(3 -1.77913e-13 0)
(3 -2.90026e-15 0)
(2.97273 0.284246 0)
(2.98989 0.553382 0)
(2.96664 0.067134 0)
(2.99556 -0.0859641 0)
(2.83878 -0.449191 0)
(2.7902 -0.526902 0)
(2.60733 -0.747679 0)
(2.51633 -0.844338 0)
(2.45289 -0.929099 0)
(2.28682 -1.05345 0)
(2.22309 -1.0828 0)
(2.26371 -1.06809 0)
(2.41042 -0.860892 0)
(2.86633 -0.225453 0)
(2.99634 -0.00860426 0)
(2.99998 -6.3062e-05 0)
(3 -2.77337e-07 0)
(3 -1.03015e-09 0)
(3 -3.37964e-12 0)
(3 -1.13001e-14 0)
(3.13541 0.326649 0)
(3.12999 0.461835 0)
(3.06753 0.144559 0)
(3.06749 0.177283 0)
(2.98113 -0.168425 0)
(2.91512 -0.316954 0)
(2.77435 -0.526057 0)
(2.6845 -0.66172 0)
(2.60559 -0.800655 0)
(2.43957 -0.95277 0)
(2.33728 -1.03906 0)
(2.31473 -1.06491 0)
(2.40183 -0.972076 0)
(2.67145 -0.554873 0)
(2.97238 -0.0554791 0)
(2.99972 -0.000737977 0)
(3 -3.56623e-06 0)
(3 -1.33492e-08 0)
(3 -4.38214e-11 0)
(3 -1.21998e-13 0)
(3.10745 0.259716 0)
(3.14622 0.291445 0)
(3.15283 0.172597 0)
(3.14212 0.154259 0)
(3.10206 -0.027318 0)
(2.98907 -0.285506 0)
(2.90453 -0.406575 0)
(2.80094 -0.605061 0)
(2.72163 -0.716904 0)
(2.60396 -0.823679 0)
(2.46702 -0.969026 0)
(2.40372 -1.04687 0)
(2.43469 -0.995369 0)
(2.60792 -0.727159 0)
(2.90684 -0.189661 0)
(2.99783 -0.00545567 0)
(2.99999 -3.28836e-05 0)
(3 -1.24861e-07 0)
(3 -4.0715e-10 0)
(3 -1.1085e-12 0)
(3.08882 0.221332 0)
(3.11711 0.152108 0)
(3.15202 0.189459 0)
(3.22137 0.272806 0)
(3.18175 0.064066 0)
(3.04446 -0.236581 0)
(2.9922 -0.396254 0)
(2.90251 -0.593013 0)
(2.82108 -0.711358 0)
(2.72159 -0.77619 0)
(2.59948 -0.88803 0)
(2.49555 -1.01593 0)
(2.50568 -1.00912 0)
(2.57077 -0.882734 0)
(2.82648 -0.374532 0)
(2.99004 -0.0248242 0)
(2.99993 -0.000218184 0)
(3 -8.76626e-07 0)
(3 -2.89194e-09 0)
(3 -7.89407e-12 0)
(3.07212 0.169323 0)
(3.08394 0.133612 0)
(3.1164 0.24815 0)
(3.17808 0.359314 0)
(3.19369 0.177037 0)
(3.18736 0.0262219 0)
(3.087 -0.248726 0)
(3.06861 -0.389105 0)
(2.92801 -0.613706 0)
(2.82399 -0.714335 0)
(2.6975 -0.834405 0)
(2.58922 -0.968132 0)
(2.57443 -1.00268 0)
(2.6306 -0.900161 0)
(2.77304 -0.532728 0)
(2.97154 -0.069993 0)
(2.99965 -0.0010214 0)
(3 -4.61976e-06 0)
(3 -1.56053e-08 0)
(3 -4.28847e-11 0)
(3.06258 0.157077 0)
(3.05275 0.159423 0)
(3.1415 0.214649 0)
(3.20519 0.337455 0)
(3.2188 0.193733 0)
(3.21589 0.196026 0)
(3.14613 -0.0950076 0)
(3.13035 -0.177979 0)
(3.02171 -0.40324 0)
(2.92784 -0.535515 0)
(2.78919 -0.712985 0)
(2.68304 -0.874096 0)
(2.64702 -0.956579 0)
(2.67506 -0.884188 0)
(2.76661 -0.628251 0)
(2.94718 -0.140224 0)
(2.99881 -0.00358699 0)
(2.99999 -1.92762e-05 0)
(3 -6.64723e-08 0)
(3 -1.83069e-10 0)
(3.08408 0.149362 0)
(3.12097 0.15659 0)
(3.17117 0.192241 0)
(3.23724 0.270104 0)
(3.26658 0.163935 0)
(3.27541 0.188939 0)
(3.21537 -0.0358304 0)
(3.17408 -0.169405 0)
(3.0682 -0.336043 0)
(2.97637 -0.445462 0)
(2.87375 -0.572978 0)
(2.7752 -0.742831 0)
(2.72192 -0.884136 0)
(2.74106 -0.854989 0)
(2.78173 -0.669186 0)
(2.92217 -0.2257 0)
(2.99699 -0.00957627 0)
(2.99998 -6.39168e-05 0)