/*--------------------------------*- C++ -*----------------------------------*\
  =========                 |
  \\      /  F ield         | OpenFOAM: The Open Source CFD Toolbox
   \\    /   O peration     | Website:  https://openfoam.org
    \\  /    A nd           | Version:  7
     \\/     M anipulation  |
\*---------------------------------------------------------------------------*/
FoamFile
{
    version     2.0;
    format      ascii;
    class       volScalarField;
    location    "2";
    object      p;
}
// * * * * * * * * * * * * * * * * * * * * * * * * * * * * * * * * * * * * * //

dimensions      [1 -1 -2 0 0 0 0];

internalField   nonuniform List<scalar> 
90000
(
0.649521
0.687202
0.727483
0.767897
0.806203
0.844251
0.878478
0.912773
0.942326
0.97059
0.995018
1.01714
1.03552
1.05206
1.0645
1.07589
1.08342
1.09046
1.09419
1.09741
1.09863
1.09903
1.09827
1.09705
1.09516
1.09224
1.08982
1.08812
1.08747
1.08875
1.09223
1.09597
1.0992
1.10163
1.10341
1.10315
1.10236
1.10111
1.09993
1.09912
1.09878
1.0994
1.10096
1.1021
1.10192
1.10113
1.09991
1.09888
1.09928
1.10091
1.10307
1.10443
1.10451
1.10389
1.10342
1.10341
1.10432
1.10502
1.10508
1.10486
1.10463
1.10509
1.10578
1.10629
1.10664
1.10706
1.10751
1.10772
1.10786
1.10757
1.10784
1.10853
1.10849
1.10823
1.10768
1.10709
1.10666
1.10648
1.10629
1.10555
1.10443
1.10345
1.10219
1.10009
1.09633
1.08992
1.08155
1.07184
1.06319
1.05389
1.04456
1.0368
1.02979
1.02269
1.0158
1.00828
0.99931
0.986606
0.969935
0.961373
0.619533
0.620147
0.621708
0.624941
0.630394
0.638818
0.650805
0.66642
0.686915
0.710617
0.739564
0.770735
0.805673
0.841517
0.878153
0.914206
0.947557
0.978867
1.00517
1.02902
1.04626
1.06164
1.07121
1.07885
1.08431
1.08729
1.09014
1.0899
1.09256
1.09695
1.10119
1.10499
1.10723
1.10701
1.10611
1.10299
1.10068
1.09885
1.09851
1.09896
1.10041
1.10165
1.10227
1.10205
1.10093
1.099
1.09838
1.09919
1.10089
1.10339
1.10457
1.10457
1.1036
1.10272
1.10299
1.10412
1.10498
1.10528
1.10489
1.10446
1.10485
1.10564
1.10613
1.10642
1.10674
1.10721
1.10759
1.10764
1.10786
1.10767
1.1083
1.10865
1.10847
1.10832
1.10796
1.10753
1.10707
1.10677
1.10646
1.10561
1.10452
1.10364
1.10236
1.1001
1.09616
1.08977
1.08151
1.07191
1.06334
1.05402
1.04477
1.03711
1.03007
1.02285
1.01588
1.00848
0.999415
0.985722
0.969476
0.961052
0.61931
0.619423
0.619547
0.619679
0.619837
0.620048
0.620384
0.620971
0.622043
0.623811
0.626851
0.631514
0.638863
0.649243
0.6643
0.683782
0.709683
0.740231
0.777159
0.817212
0.860853
0.903869
0.947199
0.983849
1.02051
1.04659
1.07135
1.0867
1.09824
1.1048
1.10732
1.10776
1.107
1.10314
1.09807
1.0937
1.09491
1.09704
1.09876
1.1005
1.102
1.10225
1.10162
1.0994
1.09759
1.09731
1.09803
1.10044
1.10301
1.10475
1.10414
1.10235
1.1019
1.10244
1.10406
1.10545
1.10522
1.1045
1.10409
1.10439
1.10534
1.10608
1.10623
1.10632
1.10679
1.10734
1.10757
1.10757
1.10779
1.108
1.10859
1.10873
1.10857
1.10849
1.10833
1.10794
1.10739
1.10695
1.10645
1.10549
1.10453
1.10381
1.10254
1.10014
1.09608
1.08973
1.0815
1.07196
1.06345
1.05413
1.04504
1.03755
1.0304
1.02299
1.01602
1.00895
0.999348
0.984803
0.969112
0.960636
0.619226
0.619303
0.619376
0.619451
0.619533
0.619626
0.619758
0.619906
0.620061
0.62022
0.620399
0.620611
0.620881
0.621322
0.622078
0.623361
0.625663
0.62948
0.636052
0.64605
0.661921
0.683471
0.714125
0.75119
0.796815
0.846519
0.898125
0.947711
0.990329
1.02083
1.04631
1.05955
1.06881
1.07525
1.08279
1.09147
1.09644
1.10142
1.10441
1.10642
1.10538
1.10351
1.09929
1.09674
1.09688
1.09864
1.10195
1.10533
1.10559
1.10452
1.10263
1.10117
1.10159
1.10321
1.10497
1.10583
1.10499
1.10417
1.1042
1.10502
1.10606
1.10648
1.10642
1.10665
1.10715
1.10757
1.10758
1.10769
1.10804
1.10852
1.10881
1.1087
1.10854
1.10859
1.10853
1.10811
1.10751
1.10702
1.10636
1.10527
1.10446
1.1039
1.10266
1.10015
1.09598
1.08961
1.08138
1.07207
1.06357
1.05422
1.0453
1.03783
1.03052
1.02304
1.01614
1.00916
0.998988
0.983951
0.969017
0.960155
0.619144
0.619234
0.619324
0.619412
0.619497
0.619581
0.619663
0.619741
0.619827
0.61992
0.620028
0.620153
0.620319
0.620508
0.620689
0.620861
0.62104
0.621251
0.621538
0.62196
0.622756
0.624269
0.627181
0.632627
0.641923
0.65826
0.681577
0.71738
0.761223
0.815236
0.871687
0.927875
0.9798
1.02099
1.05635
1.07502
1.08988
1.09537
1.09773
1.10048
1.10042
1.09614
1.09553
1.09694
1.10107
1.10457
1.10652
1.10582
1.10359
1.10062
1.10016
1.10079
1.10338
1.1058
1.10553
1.10447
1.10375
1.1036
1.1046
1.10583
1.10614
1.10609
1.10623
1.10675
1.10733
1.10752
1.10754
1.10779
1.1083
1.10883
1.10887
1.10874
1.10876
1.10896
1.10883
1.10825
1.1077
1.1072
1.10634
1.10516
1.10456
1.10411
1.10287
1.10028
1.09599
1.08957
1.0813
1.07214
1.06356
1.05439
1.04573
1.03826
1.03079
1.02322
1.01666
1.00978
0.998705
0.983211
0.968858
0.959795
0.619075
0.619165
0.619257
0.619352
0.619444
0.619538
0.619634
0.619732
0.619832
0.619935
0.620041
0.620152
0.620271
0.62039
0.620505
0.620613
0.62073
0.620867
0.621025
0.621229
0.621426
0.621627
0.621851
0.62214
0.622551
0.623311
0.62488
0.628436
0.635107
0.648588
0.669961
0.704994
0.751404
0.810162
0.874763
0.933031
0.990073
1.02566
1.05362
1.06911
1.07695
1.0837
1.09355
1.10302
1.11058
1.11074
1.10986
1.1061
1.09889
1.09787
1.09925
1.10294
1.10684
1.10675
1.10461
1.10279
1.10285
1.10416
1.10596
1.10615
1.10605
1.10585
1.10646
1.10728
1.10752
1.10736
1.10751
1.10813
1.10867
1.10883
1.10873
1.10876
1.10899
1.10916
1.10889
1.10821
1.10783
1.10731
1.10633
1.10517
1.10474
1.10432
1.10305
1.1004
1.09599
1.08948
1.0812
1.07223
1.06365
1.05443
1.04582
1.03827
1.03062
1.0231
1.01674
1.00948
0.998322
0.982652
0.968646
0.959663
0.619009
0.619093
0.61918
0.619272
0.619365
0.619459
0.619556
0.619656
0.619762
0.619875
0.619983
0.620092
0.620213
0.620344
0.620468
0.620588
0.620708
0.620835
0.620971
0.621107
0.62125
0.621408
0.621589
0.621793
0.622024
0.622269
0.622523
0.622797
0.623122
0.623668
0.62486
0.627886
0.634327
0.648297
0.6722
0.712678
0.766624
0.834602
0.905739
0.96782
1.02209
1.05858
1.08325
1.09387
1.10018
1.10416
1.10225
1.09595
1.09733
1.10019
1.10457
1.10799
1.10711
1.10478
1.1023
1.10207
1.10304
1.10548
1.10623
1.10558
1.10551
1.10587
1.10686
1.10746
1.10739
1.1073
1.10784
1.10849
1.10879
1.10874
1.10874
1.10913
1.10945
1.10938
1.1088
1.10815
1.10804
1.1076
1.10646
1.10538
1.10498
1.10449
1.10318
1.10052
1.09598
1.08936
1.08107
1.0723
1.06361
1.05461
1.04617
1.03854
1.03069
1.0234
1.01748
1.01
0.99801
0.982252
0.967612
0.958852
0.618994
0.61907
0.619152
0.619239
0.619331
0.619426
0.619522
0.61962
0.619726
0.619842
0.619947
0.62005
0.620163
0.620294
0.620412
0.620529
0.620659
0.620795
0.620937
0.621089
0.621241
0.621405
0.621584
0.621785
0.621994
0.622204
0.622407
0.622616
0.622826
0.623071
0.62329
0.623518
0.623806
0.62433
0.62571
0.629574
0.638085
0.657527
0.690472
0.744634
0.813201
0.888346
0.961161
1.01071
1.04797
1.06766
1.07929
1.08908
1.1014
1.1109
1.11327
1.11216
1.10736
1.09953
1.10015
1.10228
1.10538
1.10699
1.10611
1.10514
1.10515
1.10632
1.10762
1.10752
1.10708
1.10727
1.1082
1.10877
1.10876
1.10867
1.10893
1.1095
1.10971
1.1094
1.10865
1.10835
1.10843
1.10803
1.10686
1.10596
1.10543
1.1047
1.10331
1.10065
1.09597
1.08921
1.08095
1.07235
1.06366
1.05465
1.04622
1.03848
1.03049
1.02353
1.01776
1.00989
0.997379
0.981568
0.967734
0.95911
0.618975
0.619043
0.619116
0.619196
0.61928
0.619371
0.619464
0.619563
0.619671
0.619783
0.619885
0.619982
0.620092
0.620221
0.620332
0.620448
0.620584
0.62072
0.620872
0.621037
0.621199
0.621374
0.621575
0.621779
0.621971
0.622162
0.622348
0.622545
0.622766
0.622963
0.62314
0.623336
0.62353
0.623738
0.623934
0.624187
0.624556
0.62552
0.628038
0.635249
0.65073
0.684427
0.736517
0.810974
0.892832
0.96569
1.03049
1.07075
1.09318
1.10134
1.10695
1.103
1.09664
1.09876
1.10342
1.1078
1.10786
1.1063
1.10375
1.1042
1.10554
1.10757
1.10785
1.10767
1.10703
1.1076
1.10871
1.10877
1.10848
1.10852
1.10921
1.1099
1.10984
1.10931
1.10857
1.10872
1.10882
1.10832
1.10723
1.10656
1.10589
1.10492
1.10344
1.10076
1.09594
1.08906
1.08092
1.07234
1.06367
1.05468
1.04628
1.03842
1.03033
1.02385
1.01786
1.00969
0.997319
0.981559
0.967412
0.958868
0.61899
0.619042
0.619092
0.619151
0.619218
0.619298
0.619397
0.619514
0.619644
0.619764
0.619868
0.619971
0.620094
0.620211
0.620321
0.62045
0.620577
0.620714
0.620897
0.621068
0.621198
0.62136
0.621589
0.621786
0.621939
0.622111
0.622301
0.622511
0.622715
0.622879
0.623057
0.623262
0.623447
0.623599
0.623772
0.623949
0.62419
0.624483
0.624814
0.625195
0.625931
0.628303
0.634641
0.652244
0.686051
0.746827
0.827242
0.912648
0.991254
1.03321
1.06743
1.07786
1.09183
1.10393
1.11459
1.11336
1.10997
1.10187
1.10202
1.10456
1.10771
1.10903
1.10806
1.10629
1.10699
1.1085
1.10937
1.109
1.10853
1.10878
1.10969
1.1102
1.10984
1.10912
1.10897
1.10932
1.10912
1.10835
1.10752
1.10714
1.10634
1.10515
1.10362
1.10089
1.09594
1.08898
1.08094
1.07241
1.06374
1.05464
1.04629
1.03823
1.03021
1.0241
1.01788
1.00942
0.997131
0.981464
0.96681
0.958877
0.618857
0.618963
0.619086
0.619223
0.619366
0.619514
0.619667
0.619818
0.619963
0.620088
0.620185
0.620285
0.620402
0.620493
0.620607
0.620737
0.620817
0.620927
0.621098
0.621182
0.621236
0.621374
0.621597
0.621738
0.621868
0.622048
0.622245
0.622445
0.622632
0.622803
0.622966
0.623153
0.623405
0.623603
0.623774
0.623984
0.624183
0.624375
0.624617
0.624886
0.625229
0.625583
0.625996
0.626884
0.629404
0.637779
0.65753
0.702939
0.772539
0.862691
0.953812
1.02325
1.07626
1.09483
1.10675
1.10731
1.10094
1.1003
1.10462
1.11002
1.10984
1.10783
1.10517
1.10568
1.10799
1.10975
1.10941
1.10827
1.10843
1.10936
1.11028
1.11031
1.10979
1.10939
1.10973
1.10995
1.10935
1.10831
1.10776
1.10743
1.10656
1.10534
1.10381
1.10102
1.09593
1.08901
1.08107
1.07253
1.06383
1.05465
1.04626
1.038
1.03027
1.02431
1.01784
1.00904
0.996914
0.981076
0.965988
0.958461
0.618899
0.618998
0.6191
0.619203
0.619306
0.619408
0.619505
0.619609
0.619728
0.619839
0.61994
0.620054
0.620164
0.620276
0.620417
0.620523
0.620611
0.620755
0.620937
0.621026
0.621118
0.6213
0.621515
0.621637
0.621779
0.621976
0.622177
0.622391
0.622577
0.622705
0.622839
0.623013
0.623225
0.6235
0.623827
0.624032
0.624232
0.624447
0.624696
0.624956
0.625146
0.625335
0.625662
0.62606
0.626439
0.626911
0.627993
0.63197
0.643389
0.67538
0.731978
0.821594
0.920609
0.995668
1.05246
1.07147
1.0887
1.10144
1.11548
1.11494
1.11172
1.10437
1.10423
1.10667
1.11022
1.11045
1.10887
1.1082
1.10885
1.11025
1.11067
1.11029
1.1099
1.11009
1.11049
1.11028
1.10922
1.10808
1.10762
1.10741
1.10671
1.10564
1.1041
1.10115
1.09596
1.08918
1.08134
1.07279
1.06389
1.05473
1.04622
1.03784
1.03056
1.02452
1.01765
1.00858
0.99668
0.980529
0.965105
0.957857
0.619143
0.619203
0.619261
0.619329
0.619398
0.619458
0.619509
0.619582
0.619685
0.619777
0.619874
0.619993
0.620089
0.620205
0.620345
0.62042
0.620514
0.620692
0.620852
0.620918
0.621026
0.621223
0.621414
0.621557
0.621729
0.621937
0.622145
0.622348
0.622496
0.622646
0.622833
0.623073
0.623323
0.623535
0.623752
0.623948
0.624149
0.624435
0.624816
0.625071
0.625232
0.625468
0.625738
0.625957
0.626216
0.626604
0.626963
0.627277
0.627879
0.630004
0.636812
0.658989
0.706183
0.79
0.892199
0.98375
1.06122
1.09167
1.106
1.10881
1.10236
1.10256
1.107
1.11175
1.11114
1.10806
1.10749
1.10818
1.11045
1.11101
1.11063
1.1103
1.11054
1.11101
1.1111
1.1105
1.10928
1.10846
1.10805
1.10733
1.10639
1.10561
1.10429
1.10131
1.09618
1.08957
1.08173
1.0731
1.06402
1.05482
1.0462
1.03794
1.03108
1.02468
1.01736
1.00816
0.996271
0.979693
0.96414
0.957153
0.618795
0.618871
0.618948
0.619025
0.619096
0.619173
0.619257
0.619353
0.619452
0.619558
0.619702
0.619825
0.619929
0.620075
0.620175
0.620261
0.62045
0.620621
0.62068
0.620806
0.621024
0.62119
0.621303
0.621456
0.621667
0.62189
0.622089
0.622287
0.622484
0.622665
0.622864
0.623072
0.623315
0.623598
0.623878
0.624109
0.62429
0.624539
0.624801
0.625033
0.625349
0.625792
0.626032
0.626256
0.626533
0.626759
0.626891
0.627032
0.627385
0.627793
0.628214
0.629393
0.633892
0.649943
0.690012
0.769323
0.876056
0.970578
1.04143
1.06779
1.08911
1.10399
1.11732
1.11646
1.11156
1.10502
1.10701
1.11037
1.11196
1.11133
1.11047
1.11095
1.11158
1.11177
1.11152
1.11048
1.10981
1.10951
1.10885
1.10752
1.10648
1.10577
1.10441
1.10141
1.09651
1.09005
1.08208
1.07334
1.0642
1.05497
1.04622
1.03843
1.03175
1.02477
1.01705
1.00788
0.995765
0.97847
0.962891
0.956349
0.618672
0.618746
0.618818
0.6189
0.618978
0.619034
0.619123
0.619237
0.619323
0.619448
0.619601
0.619712
0.619861
0.619964
0.620037
0.620212
0.620412
0.620489
0.620609
0.620851
0.62101
0.621087
0.621257
0.621492
0.621702
0.621934
0.622153
0.622323
0.622529
0.622807
0.623024
0.623155
0.623335
0.623554
0.62375
0.623991
0.624303
0.624651
0.624927
0.625129
0.625332
0.625582
0.625756
0.62591
0.626181
0.626426
0.626666
0.626952
0.627265
0.62758
0.627919
0.628338
0.628759
0.62958
0.632845
0.645701
0.681291
0.758891
0.863927
0.968869
1.05808
1.09292
1.10995
1.10722
1.10109
1.10568
1.11169
1.11322
1.11147
1.10938
1.11062
1.11224
1.11248
1.11197
1.1111
1.11053
1.11087
1.11102
1.11
1.10818
1.10705
1.10614
1.10452
1.10161
1.09701
1.09048
1.08223
1.07344
1.06438
1.05516
1.04657
1.03915
1.03231
1.02479
1.01692
1.0078
0.995221
0.976847
0.961522
0.955534
0.61852
0.618607
0.618675
0.618755
0.618837
0.618882
0.618974
0.619093
0.619188
0.619333
0.61947
0.619606
0.619766
0.619845
0.619964
0.620154
0.620314
0.620509
0.620732
0.620862
0.620957
0.62112
0.621371
0.621624
0.621822
0.622032
0.622281
0.622419
0.622574
0.622825
0.623009
0.623118
0.623327
0.623656
0.623907
0.624118
0.624286
0.624488
0.624711
0.624921
0.625193
0.62548
0.625721
0.625893
0.62609
0.626354
0.626645
0.626958
0.627288
0.627631
0.627967
0.628367
0.628668
0.629067
0.629478
0.630154
0.632849
0.644172
0.67817
0.755258
0.868604
0.970802
1.05022
1.0706
1.09285
1.11291
1.11946
1.11602
1.10645
1.1082
1.11228
1.1137
1.11301
1.11204
1.11129
1.11149
1.11228
1.11217
1.11072
1.10905
1.10795
1.10662
1.10469
1.10198
1.09764
1.09083
1.08234
1.07353
1.06453
1.05541
1.04726
1.03987
1.03268
1.02482
1.017
1.00786
0.99455
0.97498
0.96016
0.954557
0.618402
0.618517
0.618568
0.618639
0.618713
0.618749
0.618842
0.618948
0.619042
0.61918
0.619354
0.619515
0.619654
0.619833
0.620005
0.620176
0.62044
0.620674
0.620764
0.620865
0.621034
0.621263
0.621513
0.621753
0.621974
0.622222
0.622416
0.622502
0.622661
0.622948
0.623127
0.623165
0.623277
0.623576
0.623806
0.623979
0.624265
0.624589
0.624826
0.624991
0.625109
0.625327
0.625635
0.625961
0.626226
0.626528
0.626848
0.627159
0.627484
0.627802
0.62808
0.628423
0.628786
0.629026
0.629295
0.629699
0.630116
0.630787
0.633349
0.644507
0.68036
0.762825
0.877934
0.989301
1.07117
1.10177
1.11331
1.10393
1.10336
1.1113
1.11618
1.11405
1.11252
1.11227
1.11256
1.11299
1.11291
1.11155
1.10997
1.10957
1.1088
1.10712
1.10506
1.10262
1.09822
1.09102
1.08246
1.07362
1.06454
1.05569
1.04784
1.04019
1.03264
1.02482
1.01726
1.00792
0.993557
0.973152
0.959902
0.954687
0.618183
0.618245
0.618342
0.618399
0.618466
0.618613
0.618726
0.618806
0.618977
0.619117
0.619216
0.619406
0.619559
0.619698
0.619953
0.620284
0.620547
0.620685
0.620812
0.621003
0.621176
0.621359
0.621603
0.621872
0.622131
0.622383
0.622526
0.622581
0.622706
0.623011
0.623239
0.623278
0.623336
0.623657
0.62396
0.624101
0.624238
0.624474
0.624651
0.624808
0.625065
0.625349
0.62563
0.625912
0.62624
0.626638
0.626992
0.627304
0.627658
0.627967
0.628225
0.628532
0.628917
0.629211
0.629464
0.629673
0.629928
0.63039
0.630889
0.631584
0.634326
0.647056
0.686727
0.779178
0.901159
1.00081
1.06465
1.08556
1.10434
1.12194
1.12069
1.11463
1.11279
1.11403
1.11435
1.11351
1.1116
1.10928
1.10867
1.10934
1.10923
1.10753
1.10568
1.10342
1.09874
1.09124
1.08279
1.07385
1.06462
1.05587
1.04816
1.04039
1.03253
1.02491
1.01765
1.0078
0.992163
0.971569
0.959645
0.954655
0.618119
0.618199
0.618239
0.618258
0.618359
0.618529
0.618573
0.618616
0.618783
0.618868
0.618918
0.619081
0.619348
0.619587
0.619883
0.620244
0.620549
0.620793
0.620965
0.62111
0.621233
0.621401
0.621646
0.622029
0.622348
0.622445
0.622576
0.622732
0.622827
0.62308
0.623324
0.62335
0.623416
0.623724
0.623906
0.623988
0.624281
0.624549
0.624693
0.62487
0.625143
0.62543
0.625724
0.626033
0.626349
0.626662
0.62694
0.627215
0.627521
0.62787
0.628292
0.628648
0.628972
0.629251
0.62949
0.629758
0.630063
0.630389
0.630701
0.631213
0.631695
0.632429
0.635674
0.651651
0.70049
0.800557
0.928272
1.03961
1.09267
1.1164
1.11126
1.10848
1.11548
1.11673
1.11529
1.11346
1.1109
1.10904
1.10929
1.10967
1.1089
1.10765
1.10655
1.10425
1.09907
1.09161
1.08343
1.07423
1.06473
1.05612
1.04827
1.04023
1.03233
1.02517
1.01799
1.00725
0.990612
0.970106
0.959428
0.954602
0.617886
0.617907
0.617982
0.618119
0.61832
0.618467
0.618468
0.618496
0.618688
0.61877
0.618825
0.619
0.619271
0.619495
0.619801
0.620209
0.620589
0.620876
0.621063
0.621218
0.621385
0.621607
0.621922
0.622379
0.622636
0.622715
0.622871
0.623021
0.623158
0.623443
0.623577
0.623571
0.623796
0.624005
0.623997
0.624176
0.624477
0.624606
0.624728
0.624983
0.625268
0.62556
0.625879
0.6262
0.626514
0.626844
0.627189
0.627493
0.627757
0.628076
0.628455
0.628753
0.629017
0.62934
0.6297
0.629942
0.630164
0.63054
0.63091
0.631252
0.631541
0.632039
0.632517
0.633415
0.63789
0.659314
0.720217
0.840764
0.962753
1.0558
1.08044
1.10796
1.12299
1.1201
1.11647
1.11337
1.11175
1.11077
1.11113
1.11058
1.10895
1.10824
1.10753
1.10495
1.09938
1.09238
1.08437
1.07473
1.06501
1.05646
1.04829
1.03976
1.03213
1.02544
1.01803
1.00626
0.989029
0.968997
0.95916
0.954368
0.617675
0.617794
0.617963
0.618027
0.618131
0.618269
0.618275
0.618311
0.618514
0.618664
0.618759
0.618977
0.619317
0.61961
0.61996
0.620379
0.620707
0.620977
0.62113
0.621236
0.621363
0.621506
0.6217
0.621986
0.622315
0.622556
0.622651
0.622706
0.622922
0.623213
0.623286
0.623258
0.623501
0.623722
0.623809
0.624099
0.624359
0.624598
0.6249
0.625223
0.625511
0.625793
0.626103
0.626402
0.626697
0.627064
0.627445
0.62767
0.627942
0.628252
0.628569
0.628897
0.629154
0.629504
0.629857
0.630118
0.630522
0.630911
0.631185
0.631436
0.631734
0.632057
0.632361
0.632857
0.633383
0.634744
0.641704
0.67284
0.75539
0.885735
1.0074
1.09325
1.1146
1.10974
1.11298
1.11445
1.11484
1.11588
1.11519
1.11208
1.10945
1.10922
1.10844
1.10535
1.09992
1.09358
1.08533
1.07521
1.06562
1.05684
1.04815
1.03944
1.03214
1.02563
1.0176
1.00487
0.987453
0.968143
0.958594
0.95362
0.617591
0.617749
0.617898
0.617949
0.618038
0.618095
0.618136
0.618254
0.618482
0.618631
0.618769
0.619041
0.61938
0.619638
0.619923
0.620252
0.620574
0.620881
0.62114
0.621326
0.621484
0.621601
0.621746
0.621983
0.622324
0.62253
0.62259
0.622616
0.622843
0.623165
0.623261
0.623236
0.623443
0.623796
0.623937
0.624146
0.624428
0.624688
0.624988
0.625297
0.625583
0.625877
0.626196
0.626525
0.626849
0.627174
0.62754
0.627855
0.628134
0.628411
0.628696
0.629019
0.629272
0.629557
0.62992
0.630196
0.630506
0.630991
0.63147
0.631814
0.632075
0.632304
0.632582
0.632881
0.633225
0.633791
0.634394
0.636588
0.649201
0.694106
0.805676
0.944712
1.0411
1.08289
1.11374
1.11584
1.11773
1.11907
1.11739
1.11226
1.11067
1.11054
1.10894
1.10542
1.10103
1.09497
1.08591
1.07579
1.06652
1.05726
1.04782
1.03923
1.03232
1.02552
1.01653
1.00326
0.985805
0.967149
0.957662
0.95247
0.617577
0.61768
0.617771
0.617891
0.617966
0.618061
0.618236
0.618386
0.618537
0.618749
0.618992
0.619254
0.619559
0.619807
0.620003
0.620226
0.620495
0.620764
0.620993
0.621199
0.621418
0.621606
0.62179
0.622069
0.622374
0.622551
0.622677
0.622727
0.622851
0.623119
0.623228
0.623212
0.623383
0.623806
0.624018
0.624137
0.624416
0.624759
0.625095
0.625408
0.625703
0.626008
0.626348
0.62672
0.627105
0.627439
0.627719
0.628037
0.628379
0.628648
0.62891
0.629237
0.629527
0.62974
0.630131
0.630561
0.630866
0.631217
0.631621
0.632008
0.632366
0.632703
0.632979
0.633176
0.633389
0.633659
0.634089
0.634659
0.635476
0.639467
0.663183
0.733968
0.865481
1.00607
1.09349
1.10458
1.11585
1.11843
1.1149
1.11109
1.11297
1.11203
1.10896
1.10582
1.10256
1.0963
1.0863
1.0767
1.06759
1.05751
1.04758
1.03938
1.03267
1.02502
1.01483
1.00155
0.984262
0.965846
0.956257
0.950879
0.617591
0.61778
0.617875
0.617964
0.618097
0.618233
0.618404
0.618579
0.618681
0.618812
0.619015
0.619184
0.61935
0.619562
0.619782
0.620021
0.620318
0.620604
0.620842
0.621084
0.621257
0.62137
0.621516
0.621745
0.622043
0.622242
0.622365
0.622543
0.622748
0.622995
0.623231
0.623313
0.623445
0.623764
0.623967
0.624119
0.624408
0.62478
0.625152
0.625512
0.625849
0.626184
0.626547
0.62693
0.627347
0.627744
0.628028
0.628305
0.628582
0.628828
0.629
0.62919
0.629502
0.629813
0.630191
0.630721
0.631168
0.631523
0.63192
0.632249
0.632592
0.632963
0.633333
0.633663
0.633891
0.634037
0.634215
0.634461
0.635022
0.635656
0.637193
0.646334
0.68923
0.795089
0.948641
1.03454
1.0941
1.10513
1.10585
1.11361
1.11551
1.11181
1.10869
1.10712
1.10418
1.09687
1.0869
1.078
1.06848
1.05749
1.04773
1.04025
1.03291
1.024
1.01328
1.00024
0.982848
0.964052
0.954325
0.949001
0.617677
0.617872
0.617979
0.618054
0.61816
0.618304
0.618471
0.618691
0.618855
0.618928
0.619035
0.619218
0.619402
0.619579
0.6198
0.620034
0.620244
0.620447
0.620637
0.620824
0.621012
0.62119
0.621365
0.62158
0.621836
0.622044
0.622259
0.622443
0.622613
0.622862
0.62324
0.623512
0.623713
0.624053
0.624339
0.624464
0.624671
0.624991
0.625323
0.625649
0.625964
0.626281
0.626618
0.626994
0.627445
0.627924
0.628255
0.628533
0.628809
0.629098
0.629346
0.629548
0.629772
0.630022
0.630333
0.630741
0.631246
0.631833
0.632286
0.632615
0.632892
0.63315
0.633468
0.633814
0.634178
0.634519
0.634775
0.634931
0.635156
0.635536
0.636178
0.636949
0.640604
0.662306
0.735356
0.878082
1.02505
1.08061
1.09941
1.12173
1.11875
1.11193
1.10999
1.1093
1.10598
1.09748
1.08834
1.07983
1.06926
1.05751
1.04866
1.04125
1.03287
1.02294
1.01263
0.999633
0.981228
0.961452
0.952156
0.947359
0.617733
0.617908
0.618026
0.618118
0.618245
0.618406
0.618577
0.618776
0.618951
0.619058
0.619182
0.619387
0.6196
0.619735
0.619875
0.620025
0.620176
0.62035
0.620557
0.620788
0.621029
0.621207
0.621374
0.621568
0.621767
0.621966
0.622194
0.622415
0.622606
0.622834
0.623095
0.623287
0.623487
0.62379
0.624213
0.624611
0.624941
0.625265
0.625597
0.625923
0.626243
0.626588
0.627011
0.62742
0.627735
0.628041
0.628321
0.628536
0.628706
0.62898
0.629314
0.629676
0.630116
0.630527
0.63084
0.631164
0.631561
0.631965
0.632392
0.632884
0.633296
0.633649
0.633974
0.634233
0.634456
0.634736
0.635114
0.635457
0.635737
0.635999
0.636332
0.636754
0.637327
0.638744
0.648295
0.696462
0.810572
0.961901
1.06523
1.11378
1.11129
1.10701
1.11282
1.11139
1.10556
1.09848
1.09084
1.08166
1.06925
1.05821
1.0502
1.04179
1.03263
1.02308
1.01313
0.999408
0.978952
0.9584
0.950872
0.946662
0.617868
0.61799
0.618109
0.618236
0.618377
0.618505
0.618635
0.618797
0.618932
0.619045
0.619187
0.619353
0.619498
0.619622
0.619744
0.619885
0.620049
0.62022
0.620398
0.6206
0.620825
0.621071
0.621331
0.62157
0.621803
0.622048
0.62227
0.6225
0.622741
0.622936
0.623129
0.623353
0.623598
0.623899
0.624287
0.6247
0.625062
0.625395
0.625727
0.626066
0.62641
0.62677
0.627152
0.62754
0.627895
0.628215
0.628544
0.628866
0.629155
0.629416
0.629656
0.629893
0.630205
0.630611
0.63114
0.631702
0.632177
0.632581
0.632953
0.63326
0.633518
0.633832
0.63424
0.634661
0.635022
0.635304
0.63559
0.635967
0.636354
0.636676
0.63684
0.636886
0.637168
0.637843
0.638534
0.642855
0.669065
0.756754
0.898132
1.03597
1.07477
1.10523
1.11903
1.11419
1.10605
1.10056
1.09342
1.08236
1.06916
1.06016
1.05142
1.04178
1.03219
1.02341
1.01352
0.998204
0.975781
0.955392
0.950214
0.94633
0.618081
0.618182
0.618294
0.618425
0.618542
0.618646
0.618791
0.61891
0.619
0.619126
0.619282
0.619438
0.619605
0.619761
0.619834
0.619925
0.620091
0.620346
0.620508
0.620627
0.620803
0.621044
0.621244
0.621408
0.621559
0.621723
0.621927
0.62218
0.622505
0.62291
0.623367
0.623847
0.624268
0.624619
0.62498
0.625225
0.625442
0.625724
0.626052
0.62641
0.626827
0.62727
0.627612
0.62791
0.628185
0.628424
0.628616
0.628835
0.629156
0.629567
0.630064
0.630482
0.630822
0.631152
0.631538
0.631951
0.632406
0.632954
0.633444
0.63383
0.634153
0.63437
0.634643
0.635063
0.635529
0.635948
0.6363
0.636584
0.636845
0.637187
0.637476
0.637576
0.637556
0.637702
0.638172
0.638858
0.640816
0.653983
0.714095
0.845195
0.990353
1.09164
1.11312
1.10354
1.10578
1.10347
1.09505
1.08224
1.07029
1.06206
1.05196
1.04019
1.03148
1.02367
1.01301
0.995326
0.97184
0.954802
0.95005
0.945828
0.618271
0.618389
0.618498
0.618609
0.618709
0.618801
0.618903
0.619002
0.619118
0.619257
0.619425
0.619624
0.619876
0.620034
0.620071
0.6201
0.620221
0.620428
0.620712
0.6209
0.620978
0.621137
0.621391
0.621635
0.621845
0.622058
0.622297
0.622568
0.622881
0.623238
0.623567
0.623895
0.624187
0.624463
0.624761
0.625019
0.625283
0.625589
0.625959
0.626428
0.626981
0.627494
0.627919
0.628251
0.628569
0.628872
0.629133
0.629367
0.629637
0.629962
0.630287
0.630632
0.631106
0.631766
0.632293
0.632655
0.632957
0.633247
0.633622
0.634039
0.634518
0.634966
0.635327
0.635736
0.636174
0.636595
0.636999
0.637339
0.637561
0.637686
0.637884
0.638142
0.638344
0.638393
0.638385
0.638594
0.639403
0.64034
0.647291
0.683128
0.794991
0.954669
1.05172
1.08551
1.11077
1.1067
1.09617
1.08312
1.0735
1.06375
1.05042
1.03893
1.03146
1.02341
1.01081
0.990451
0.968066
0.953927
0.949458
0.944417
0.617602
0.617765
0.617927
0.618076
0.618204
0.61834
0.618506
0.618681
0.618877
0.619114
0.619379
0.619669
0.62
0.620218
0.620356
0.620512
0.620619
0.620749
0.620984
0.621227
0.621299
0.621397
0.621662
0.622016
0.622292
0.622539
0.622785
0.62303
0.623309
0.623623
0.623918
0.624198
0.62445
0.624669
0.624933
0.625221
0.625586
0.625988
0.626349
0.626783
0.627225
0.627478
0.627698
0.628039
0.628524
0.629049
0.629446
0.629843
0.630287
0.630663
0.630999
0.631334
0.63175
0.632213
0.632579
0.632923
0.633295
0.633684
0.634088
0.634513
0.634965
0.635486
0.636057
0.636549
0.636974
0.637334
0.637651
0.637934
0.638171
0.638322
0.638431
0.638598
0.638967
0.639292
0.639448
0.639409
0.639352
0.639869
0.640638
0.643883
0.667326
0.749363
0.904286
1.03746
1.10101
1.09986
1.09737
1.08882
1.07746
1.06397
1.04963
1.03863
1.03217
1.02235
1.00612
0.985808
0.96496
0.952414
0.947522
0.941793
0.617168
0.617309
0.617503
0.617655
0.617795
0.617978
0.618226
0.618519
0.618799
0.619102
0.619409
0.619685
0.619922
0.620113
0.620282
0.620474
0.620711
0.62098
0.621307
0.621652
0.621775
0.621903
0.622206
0.622648
0.622812
0.622997
0.62326
0.623455
0.623699
0.624005
0.624328
0.624691
0.625036
0.625277
0.62546
0.625747
0.626159
0.626474
0.626741
0.627121
0.627577
0.627853
0.628081
0.628448
0.628944
0.629376
0.629674
0.629993
0.630361
0.630786
0.631343
0.631885
0.632288
0.632748
0.633166
0.633487
0.633818
0.634232
0.634669
0.635097
0.635517
0.635952
0.636428
0.636992
0.637562
0.638026
0.638433
0.638763
0.63903
0.639261
0.639457
0.639532
0.639542
0.639839
0.640302
0.640591
0.640564
0.640436
0.640404
0.641176
0.643167
0.656249
0.717769
0.855428
1.00319
1.05863
1.09273
1.09273
1.082
1.06442
1.05114
1.04254
1.03343
1.01967
1.00237
0.983041
0.962645
0.950066
0.944109
0.938055
0.61685
0.61699
0.617136
0.61728
0.617442
0.617636
0.617877
0.618159
0.618475
0.618854
0.619295
0.619673
0.620018
0.62034
0.620553
0.62072
0.620919
0.621163
0.621465
0.621725
0.621825
0.621921
0.622163
0.622646
0.622878
0.622945
0.623256
0.623585
0.623729
0.623943
0.624246
0.624641
0.62495
0.62521
0.625465
0.625697
0.626062
0.626566
0.626878
0.627165
0.627581
0.628034
0.628502
0.629006
0.629538
0.630007
0.630382
0.630784
0.631228
0.631631
0.632029
0.632367
0.632614
0.632927
0.633353
0.633828
0.634372
0.635017
0.635673
0.63617
0.636625
0.637053
0.637409
0.637676
0.638018
0.638394
0.638779
0.639217
0.639706
0.640196
0.640614
0.640899
0.64099
0.640977
0.641015
0.641326
0.641618
0.641726
0.64152
0.641412
0.641878
0.642879
0.650071
0.69364
0.807816
0.964375
1.07205
1.08317
1.07699
1.06613
1.05935
1.0485
1.03361
1.01545
1.00022
0.981662
0.960096
0.945903
0.939725
0.934431
0.61689
0.616996
0.617128
0.617283
0.617467
0.617686
0.617935
0.618212
0.618511
0.618877
0.619243
0.619561
0.619882
0.620161
0.620407
0.620723
0.62099
0.621222
0.62154
0.62175
0.621829
0.621906
0.622106
0.622553
0.622907
0.622979
0.623179
0.623623
0.623808
0.623972
0.624315
0.62476
0.625271
0.625659
0.625882
0.626157
0.626507
0.626866
0.627306
0.627735
0.628017
0.628322
0.628779
0.629303
0.629762
0.630158
0.630578
0.63108
0.631687
0.632368
0.632931
0.633326
0.633645
0.633961
0.634357
0.634763
0.635176
0.635629
0.636186
0.636877
0.637468
0.637957
0.638432
0.638864
0.639263
0.639606
0.639864
0.640045
0.64024
0.640599
0.641104
0.641662
0.642157
0.642492
0.642591
0.642499
0.642437
0.642578
0.642798
0.642769
0.642394
0.642373
0.642909
0.646984
0.67415
0.769511
0.922391
1.02265
1.05395
1.06692
1.06498
1.05307
1.03048
1.01272
0.998665
0.979278
0.955468
0.940923
0.936095
0.932847
0.617681
0.617732
0.617708
0.61767
0.617787
0.617964
0.618162
0.618364
0.61854
0.618782
0.61908
0.619391
0.619635
0.619747
0.619812
0.619916
0.620155
0.62041
0.620626
0.620853
0.621095
0.621365
0.621655
0.622073
0.622555
0.622823
0.623155
0.623523
0.62369
0.62394
0.624421
0.624979
0.625522
0.626031
0.626305
0.626617
0.627091
0.627421
0.627713
0.628161
0.628534
0.628888
0.629407
0.630001
0.630502
0.630907
0.631295
0.631708
0.632108
0.63252
0.633009
0.633665
0.634374
0.634977
0.63552
0.636079
0.636633
0.637103
0.637504
0.637854
0.638175
0.638559
0.639049
0.639645
0.640337
0.640913
0.641386
0.641748
0.641983
0.642105
0.642223
0.642432
0.642774
0.643269
0.643739
0.644019
0.644086
0.643948
0.643854
0.64384
0.643757
0.643165
0.642914
0.643056
0.645014
0.661945
0.733385
0.872775
0.993048
1.05926
1.057
1.04614
1.02725
1.01293
0.99675
0.974356
0.949272
0.937027
0.934379
0.932195
0.618386
0.618369
0.618312
0.618322
0.618401
0.618427
0.618341
0.618371
0.61848
0.618461
0.61851
0.618814
0.618978
0.619011
0.619125
0.619297
0.619499
0.619749
0.619877
0.619969
0.620212
0.620546
0.620969
0.621424
0.621793
0.622227
0.622865
0.623228
0.623389
0.623749
0.624344
0.625071
0.62568