/*--------------------------------*- C++ -*----------------------------------*\
  =========                 |
  \\      /  F ield         | OpenFOAM: The Open Source CFD Toolbox
   \\    /   O peration     | Website:  https://openfoam.org
    \\  /    A nd           | Version:  7
     \\/     M anipulation  |
\*---------------------------------------------------------------------------*/
FoamFile
{
    version     2.0;
    format      ascii;
    class       volVectorField;
    location    "13";
    object      U;
}
// * * * * * * * * * * * * * * * * * * * * * * * * * * * * * * * * * * * * * //

dimensions      [0 1 -1 0 0 0 0];

internalField   nonuniform List<vector> 
90000
(
(0.930366 -0.375162 0)
(1.00787 -0.232359 0)
(1.08174 -0.0972794 0)
(1.17935 0.0096399 0)
(1.26522 0.093619 0)
(1.33367 0.173544 0)
(1.4162 0.247162 0)
(1.50875 0.303969 0)
(1.59793 0.347416 0)
(1.68552 0.391478 0)
(1.77636 0.417768 0)
(1.86319 0.445686 0)
(1.94546 0.460392 0)
(2.02136 0.475296 0)
(2.09163 0.481729 0)
(2.15593 0.488552 0)
(2.2139 0.486347 0)
(2.26873 0.489795 0)
(2.31953 0.48452 0)
(2.36624 0.480904 0)
(2.40885 0.472737 0)
(2.44669 0.468305 0)
(2.48153 0.459 0)
(2.51406 0.454097 0)
(2.54533 0.444803 0)
(2.57443 0.440432 0)
(2.60142 0.43349 0)
(2.62617 0.42872 0)
(2.64975 0.42364 0)
(2.67207 0.416489 0)
(2.69313 0.41089 0)
(2.71203 0.403501 0)
(2.72841 0.395114 0)
(2.74203 0.386383 0)
(2.75252 0.379311 0)
(2.76046 0.374515 0)
(2.76739 0.373303 0)
(2.77328 0.375559 0)
(2.77829 0.379907 0)
(2.78227 0.384902 0)
(2.78527 0.39044 0)
(2.78714 0.395795 0)
(2.78821 0.401295 0)
(2.78795 0.409514 0)
(2.78658 0.417615 0)
(2.78856 0.428199 0)
(2.78754 0.437039 0)
(2.78741 0.444969 0)
(2.78865 0.454514 0)
(2.7886 0.456763 0)
(2.79293 0.463876 0)
(2.79407 0.465336 0)
(2.79517 0.46894 0)
(2.79326 0.463732 0)
(2.7916 0.457763 0)
(2.79048 0.452241 0)
(2.78952 0.444726 0)
(2.79092 0.437659 0)
(2.78997 0.429868 0)
(2.79034 0.425896 0)
(2.79004 0.425756 0)
(2.78983 0.426131 0)
(2.79142 0.429388 0)
(2.79272 0.431457 0)
(2.79309 0.432828 0)
(2.79271 0.431385 0)
(2.79201 0.42757 0)
(2.7906 0.420475 0)
(2.78892 0.408885 0)
(2.78666 0.399099 0)
(2.78547 0.391063 0)
(2.78478 0.392206 0)
(2.7853 0.389698 0)
(2.78527 0.389003 0)
(2.78381 0.384071 0)
(2.78076 0.372738 0)
(2.77687 0.3596 0)
(2.77416 0.351005 0)
(2.77249 0.344019 0)
(2.77257 0.342219 0)
(2.76998 0.333034 0)
(2.76691 0.325281 0)
(2.76275 0.309464 0)
(2.76147 0.304368 0)
(2.7611 0.295179 0)
(2.75982 0.294059 0)
(2.75662 0.281914 0)
(2.75483 0.274185 0)
(2.75383 0.265848 0)
(2.75483 0.25988 0)
(2.7551 0.256673 0)
(2.7554 0.249295 0)
(2.75522 0.247212 0)
(2.75428 0.239281 0)
(2.75356 0.234739 0)
(2.75173 0.225871 0)
(2.75196 0.218434 0)
(2.75381 0.21425 0)
(2.7553 0.210541 0)
(2.75604 0.205383 0)
(0.417146 -0.498746 0)
(0.405338 -0.469061 0)
(0.393154 -0.425179 0)
(0.386466 -0.369515 0)
(0.387455 -0.299336 0)
(0.402688 -0.220196 0)
(0.433083 -0.13573 0)
(0.48096 -0.0526296 0)
(0.543635 0.0247546 0)
(0.616802 0.0946101 0)
(0.700628 0.149916 0)
(0.790818 0.19646 0)
(0.886688 0.228208 0)
(0.982853 0.254886 0)
(1.08003 0.274451 0)
(1.17517 0.287046 0)
(1.26809 0.299227 0)
(1.35791 0.308567 0)
(1.44488 0.315521 0)
(1.52628 0.325436 0)
(1.60474 0.332381 0)
(1.67889 0.342883 0)
(1.75079 0.351647 0)
(1.81999 0.361627 0)
(1.88719 0.370923 0)
(1.95194 0.380486 0)
(2.01543 0.389758 0)
(2.07748 0.399266 0)
(2.13882 0.409647 0)
(2.19926 0.417834 0)
(2.25824 0.42696 0)
(2.31601 0.434374 0)
(2.37213 0.441536 0)
(2.42558 0.448016 0)
(2.47536 0.455666 0)
(2.52174 0.461903 0)
(2.56282 0.468357 0)
(2.59903 0.474061 0)
(2.63021 0.483463 0)
(2.65748 0.491678 0)
(2.68059 0.502349 0)
(2.70034 0.508995 0)
(2.71656 0.515785 0)
(2.72931 0.518425 0)
(2.73793 0.521958 0)
(2.74494 0.52175 0)
(2.74953 0.520945 0)
(2.75176 0.514219 0)
(2.75378 0.506645 0)
(2.75426 0.493744 0)
(2.75565 0.479967 0)
(2.75661 0.464829 0)
(2.76104 0.45208 0)
(2.76671 0.441593 0)
(2.7704 0.43013 0)
(2.77263 0.423741 0)
(2.77383 0.419592 0)
(2.77345 0.417731 0)
(2.77578 0.419801 0)
(2.7794 0.421532 0)
(2.7847 0.425139 0)
(2.78976 0.431196 0)
(2.79242 0.436484 0)
(2.79216 0.436263 0)
(2.79114 0.432959 0)
(2.78989 0.425143 0)
(2.78944 0.414826 0)
(2.78781 0.403265 0)
(2.78843 0.399623 0)
(2.78565 0.393868 0)
(2.78517 0.391146 0)
(2.78546 0.391199 0)
(2.78536 0.388562 0)
(2.78453 0.384447 0)
(2.78168 0.374388 0)
(2.77952 0.364234 0)
(2.77573 0.349878 0)
(2.77408 0.345961 0)
(2.77277 0.340172 0)
(2.77171 0.338618 0)
(2.76823 0.32663 0)
(2.76413 0.315425 0)
(2.76069 0.30165 0)
(2.76045 0.299394 0)
(2.75999 0.291872 0)
(2.75854 0.289503 0)
(2.75485 0.27733 0)
(2.75306 0.271179 0)
(2.75243 0.261463 0)
(2.75286 0.258029 0)
(2.75399 0.252602 0)
(2.75476 0.246095 0)
(2.75433 0.244447 0)
(2.75264 0.237029 0)
(2.75126 0.233211 0)
(2.74934 0.223628 0)
(2.74955 0.21744 0)
(2.75114 0.212159 0)
(2.75324 0.208684 0)
(2.75389 0.204279 0)
(0.422741 -0.390017 0)
(0.406962 -0.372158 0)
(0.394555 -0.371231 0)
(0.38857 -0.360985 0)
(0.386352 -0.34565 0)
(0.380902 -0.323137 0)
(0.377766 -0.294269 0)
(0.376882 -0.258928 0)
(0.378962 -0.217655 0)
(0.383531 -0.172299 0)
(0.391626 -0.123922 0)
(0.405433 -0.0731513 0)
(0.43253 -0.0262265 0)
(0.466547 0.0187163 0)
(0.50805 0.058226 0)
(0.555107 0.0915866 0)
(0.60697 0.118656 0)
(0.663213 0.137885 0)
(0.722416 0.151418 0)
(0.784041 0.158354 0)
(0.846792 0.162895 0)
(0.910237 0.164434 0)
(0.974085 0.164974 0)
(1.03835 0.167037 0)
(1.10354 0.170658 0)
(1.16998 0.176547 0)
(1.23854 0.185629 0)
(1.30927 0.197746 0)
(1.38195 0.215559 0)
(1.45609 0.237712 0)
(1.53263 0.264052 0)
(1.61286 0.289991 0)
(1.69643 0.315124 0)
(1.78235 0.33651 0)
(1.86967 0.353732 0)
(1.95604 0.367259 0)
(2.04028 0.37471 0)
(2.1205 0.376029 0)
(2.19665 0.374469 0)
(2.26783 0.370112 0)
(2.33407 0.368393 0)
(2.39539 0.36527 0)
(2.45153 0.365621 0)
(2.50259 0.362629 0)
(2.54815 0.364296 0)
(2.58865 0.363553 0)
(2.62412 0.367792 0)
(2.65452 0.367883 0)
(2.68002 0.370199 0)
(2.7009 0.370125 0)
(2.71658 0.369251 0)
(2.72665 0.368 0)
(2.73371 0.364778 0)
(2.74156 0.370237 0)
(2.7504 0.376099 0)
(2.75753 0.384078 0)
(2.76292 0.395501 0)
(2.76846 0.408295 0)
(2.76991 0.419563 0)
(2.7706 0.428853 0)
(2.77401 0.43895 0)
(2.77933 0.441663 0)
(2.78016 0.441877 0)
(2.77759 0.430146 0)
(2.77759 0.419904 0)
(2.7786 0.409328 0)
(2.7807 0.400126 0)
(2.78198 0.393294 0)
(2.78265 0.38977 0)
(2.78318 0.389958 0)
(2.78411 0.390954 0)
(2.78444 0.389964 0)
(2.7837 0.384217 0)
(2.78116 0.374077 0)
(2.77833 0.358336 0)
(2.77484 0.347738 0)
(2.77477 0.344115 0)
(2.77393 0.341497 0)
(2.77291 0.337693 0)
(2.77026 0.332376 0)
(2.76677 0.320409 0)
(2.76165 0.303871 0)
(2.76019 0.298766 0)
(2.76032 0.294346 0)
(2.75943 0.288603 0)
(2.75627 0.282706 0)
(2.75246 0.271522 0)
(2.75137 0.267164 0)
(2.75144 0.258987 0)
(2.75147 0.256248 0)
(2.75175 0.248317 0)
(2.75273 0.243709 0)
(2.75248 0.241445 0)
(2.75073 0.234828 0)
(2.749 0.231046 0)
(2.74711 0.221659 0)
(2.74729 0.216079 0)
(2.75 0.209435 0)
(2.7519 0.206865 0)
(2.752 0.202369 0)
(0.505504 -0.319995 0)
(0.483428 -0.338872 0)
(0.500048 -0.34917 0)
(0.50562 -0.334044 0)
(0.492268 -0.300956 0)
(0.472104 -0.260752 0)
(0.449663 -0.242554 0)
(0.440452 -0.23099 0)
(0.438438 -0.2217 0)
(0.441557 -0.210804 0)
(0.447281 -0.194055 0)
(0.4551 -0.174287 0)
(0.45986 -0.15167 0)
(0.467965 -0.128526 0)
(0.475925 -0.104424 0)
(0.486339 -0.0806199 0)
(0.498302 -0.057392 0)
(0.5126 -0.0344634 0)
(0.527639 -0.00994018 0)
(0.545666 0.0145475 0)
(0.566313 0.0386459 0)
(0.590131 0.0601692 0)
(0.616332 0.0789126 0)
(0.64489 0.0949614 0)
(0.674823 0.110329 0)
(0.707183 0.12362 0)
(0.742383 0.135424 0)
(0.782153 0.14283 0)
(0.825826 0.146593 0)
(0.873144 0.14708 0)
(0.924588 0.147954 0)
(0.98108 0.151345 0)
(1.04329 0.158918 0)
(1.11214 0.169323 0)
(1.18727 0.183284 0)
(1.26786 0.198053 0)
(1.35196 0.219415 0)
(1.438 0.244861 0)
(1.52725 0.272692 0)
(1.61875 0.294593 0)
(1.71086 0.316428 0)
(1.80458 0.331622 0)
(1.89621 0.348619 0)
(1.98603 0.361616 0)
(2.07531 0.370644 0)
(2.16153 0.379035 0)
(2.24416 0.387924 0)
(2.32133 0.399718 0)
(2.39276 0.412608 0)
(2.45788 0.425193 0)
(2.51618 0.43902 0)
(2.56599 0.45166 0)
(2.60709 0.461264 0)
(2.63911 0.46993 0)
(2.66593 0.477539 0)
(2.68772 0.481643 0)
(2.7053 0.483157 0)
(2.71931 0.481496 0)
(2.72804 0.477075 0)
(2.73236 0.466864 0)
(2.73583 0.455521 0)
(2.73818 0.434811 0)
(2.74927 0.416401 0)
(2.7557 0.400963 0)
(2.75795 0.390586 0)
(2.76042 0.383272 0)
(2.76139 0.380761 0)
(2.76976 0.382802 0)
(2.77359 0.383927 0)
(2.78009 0.388709 0)
(2.78087 0.389808 0)
(2.77927 0.384284 0)
(2.77682 0.373639 0)
(2.77347 0.360505 0)
(2.77389 0.35267 0)
(2.77142 0.34367 0)
(2.77191 0.341859 0)
(2.77162 0.338407 0)
(2.77124 0.33382 0)
(2.76785 0.322753 0)
(2.76317 0.309667 0)
(2.76052 0.297179 0)
(2.76038 0.29646 0)
(2.75939 0.290196 0)
(2.75893 0.284713 0)
(2.75508 0.274938 0)
(2.75204 0.269221 0)
(2.75063 0.263788 0)
(2.75012 0.257083 0)
(2.74939 0.252757 0)
(2.74957 0.244634 0)
(2.75102 0.242048 0)
(2.75039 0.238161 0)
(2.74889 0.232589 0)
(2.7466 0.22836 0)
(2.74487 0.21997 0)
(2.74531 0.214226 0)
(2.7483 0.206782 0)
(2.75016 0.205074 0)
(2.75026 0.200516 0)
(1.96328 -1.20237 0)
(1.0338 -0.935492 0)
(0.819392 -0.673416 0)
(0.734853 -0.450142 0)
(0.660827 -0.260894 0)
(0.59441 -0.172843 0)
(0.561242 -0.207985 0)
(0.581036 -0.238124 0)
(0.597057 -0.229286 0)
(0.595875 -0.206723 0)
(0.577845 -0.179696 0)
(0.564048 -0.15865 0)
(0.553379 -0.150978 0)
(0.554469 -0.14312 0)
(0.553589 -0.133003 0)
(0.55499 -0.120628 0)
(0.556914 -0.105856 0)
(0.561065 -0.0883485 0)
(0.565867 -0.0699449 0)
(0.572025 -0.0534133 0)
(0.579778 -0.039227 0)
(0.588422 -0.0266422 0)
(0.597453 -0.0147065 0)
(0.606656 -0.00359247 0)
(0.616802 0.00673941 0)
(0.6277 0.0160752 0)
(0.638367 0.0263429 0)
(0.648559 0.0398044 0)
(0.659257 0.0569317 0)
(0.67468 0.0727148 0)
(0.693256 0.0875356 0)
(0.715358 0.100558 0)
(0.740089 0.113827 0)
(0.768892 0.125921 0)
(0.801612 0.139225 0)
(0.840812 0.149364 0)
(0.886766 0.150247 0)
(0.937973 0.146814 0)
(0.993812 0.146248 0)
(1.05455 0.149421 0)
(1.12134 0.155931 0)
(1.19436 0.166151 0)
(1.27333 0.175287 0)
(1.35495 0.193994 0)
(1.44152 0.223466 0)
(1.53508 0.247705 0)
(1.6329 0.274736 0)
(1.73643 0.290546 0)
(1.83851 0.312788 0)
(1.94301 0.324458 0)
(2.04894 0.335125 0)
(2.15329 0.337833 0)
(2.25096 0.343514 0)
(2.33822 0.343806 0)
(2.41535 0.347064 0)
(2.48313 0.347236 0)
(2.54198 0.352148 0)
(2.5917 0.352383 0)
(2.63218 0.35509 0)
(2.66306 0.353163 0)
(2.68556 0.354902 0)
(2.69705 0.34725 0)
(2.70924 0.349285 0)
(2.72415 0.350581 0)
(2.73579 0.358866 0)
(2.74488 0.367714 0)
(2.75012 0.377432 0)
(2.7568 0.387324 0)
(2.7614 0.392514 0)
(2.76651 0.395294 0)
(2.76512 0.382836 0)
(2.76514 0.368479 0)
(2.76522 0.356115 0)
(2.76523 0.347153 0)
(2.7649 0.343957 0)
(2.76615 0.340024 0)
(2.7677 0.33943 0)
(2.76793 0.334855 0)
(2.76597 0.324671 0)
(2.76311 0.31297 0)
(2.75895 0.301463 0)
(2.7581 0.294986 0)
(2.75881 0.293935 0)
(2.75895 0.286021 0)
(2.75778 0.279042 0)
(2.75388 0.267881 0)
(2.75188 0.2667 0)
(2.74966 0.261291 0)
(2.7488 0.254962 0)
(2.74871 0.249179 0)
(2.74951 0.242223 0)
(2.75053 0.240708 0)
(2.74916 0.234916 0)
(2.74795 0.230883 0)
(2.7447 0.22536 0)
(2.74282 0.218794 0)
(2.74295 0.212733 0)
(2.74595 0.205299 0)
(2.74824 0.203657 0)
(2.74835 0.198779 0)
(2.67876 -1.90013 0)
(2.67963 -1.90018 0)
(2.60215 -1.85401 0)
(2.43916 -1.70778 0)
(2.15025 -1.52285 0)
(1.96144 -1.23595 0)
(1.18629 -0.892265 0)
(0.965066 -0.620586 0)
(0.857693 -0.384653 0)
(0.774575 -0.197277 0)
(0.705288 -0.102771 0)
(0.675805 -0.118398 0)
(0.687593 -0.136424 0)
(0.700063 -0.124997 0)
(0.697651 -0.10424 0)
(0.68696 -0.0812386 0)
(0.671522 -0.0692125 0)
(0.665046 -0.0617141 0)
(0.663094 -0.0557271 0)
(0.659611 -0.0505308 0)
(0.65575 -0.0464648 0)
(0.654188 -0.0421298 0)
(0.653927 -0.0353535 0)
(0.654584 -0.0271393 0)
(0.656364 -0.0186406 0)
(0.659875 -0.0100269 0)
(0.664439 -3.96887e-05 0)
(0.670673 0.00945781 0)
(0.677848 0.0177606 0)
(0.685191 0.02592 0)
(0.691526 0.0340035 0)
(0.698759 0.0408643 0)
(0.707406 0.0472408 0)
(0.717503 0.0532561 0)
(0.728713 0.0592672 0)
(0.740562 0.0666486 0)
(0.749351 0.0819513 0)
(0.765631 0.0946104 0)
(0.784933 0.106152 0)
(0.807206 0.116748 0)
(0.832539 0.128116 0)
(0.862236 0.13858 0)
(0.897531 0.150786 0)
(0.940509 0.147812 0)
(0.989595 0.146009 0)
(1.0448 0.149066 0)
(1.10849 0.156151 0)
(1.1814 0.168829 0)
(1.26344 0.178407 0)
(1.35096 0.20486 0)
(1.44981 0.238835 0)
(1.55889 0.271793 0)
(1.67676 0.294631 0)
(1.79329 0.319826 0)
(1.91168 0.334461 0)
(2.02858 0.343442 0)
(2.14073 0.352212 0)
(2.24287 0.363691 0)
(2.33497 0.377367 0)
(2.41643 0.389266 0)
(2.48617 0.405483 0)
(2.54249 0.416915 0)
(2.58484 0.4264 0)
(2.62045 0.428038 0)
(2.65107 0.430297 0)
(2.67578 0.420092 0)
(2.69441 0.41488 0)
(2.70799 0.400298 0)
(2.71986 0.385406 0)
(2.7339 0.358465 0)
(2.74263 0.339626 0)
(2.74541 0.332585 0)
(2.74973 0.329289 0)
(2.75493 0.328724 0)
(2.75811 0.335717 0)
(2.75987 0.338323 0)
(2.76138 0.335588 0)
(2.75869 0.325775 0)
(2.75623 0.312503 0)
(2.75524 0.303889 0)
(2.75323 0.293902 0)
(2.75437 0.293403 0)
(2.75578 0.290426 0)
(2.75594 0.280953 0)
(2.75491 0.273199 0)
(2.75146 0.264684 0)
(2.75054 0.264774 0)
(2.74867 0.258592 0)
(2.74677 0.251673 0)
(2.74707 0.244884 0)
(2.74897 0.240536 0)
(2.74988 0.239205 0)
(2.74835 0.232618 0)
(2.74693 0.229886 0)
(2.74334 0.223634 0)
(2.74113 0.218293 0)
(2.74088 0.211711 0)
(2.74415 0.205467 0)
(2.74642 0.204652 0)
(2.7463 0.198822 0)
(2.68547 -1.91983 0)
(2.68643 -1.92223 0)
(2.68773 -1.92302 0)
(2.68913 -1.92354 0)
(2.69049 -1.9243 0)
(2.69212 -1.92513 0)
(2.69344 -1.92577 0)
(2.62223 -1.87217 0)
(2.44525 -1.71583 0)
(2.17424 -1.48531 0)
(1.88492 -1.15822 0)
(1.4011 -0.774465 0)
(1.08946 -0.498904 0)
(0.985279 -0.277387 0)
(0.887076 -0.12254 0)
(0.827455 -0.0462171 0)
(0.804767 -0.0501398 0)
(0.805029 -0.0661351 0)
(0.816708 -0.0579591 0)
(0.813384 -0.0452075 0)
(0.803987 -0.029813 0)
(0.792692 -0.0197518 0)
(0.787461 -0.0128101 0)
(0.784502 -0.00514328 0)
(0.777221 0.0020856 0)
(0.769382 0.00761479 0)
(0.76277 0.0128701 0)
(0.756759 0.0172935 0)
(0.751812 0.0210446 0)
(0.747036 0.0227418 0)
(0.744509 0.0256278 0)
(0.74366 0.0289886 0)
(0.743967 0.0327392 0)
(0.745672 0.0368629 0)
(0.7495 0.041636 0)
(0.754777 0.0486163 0)
(0.762312 0.0540728 0)
(0.768218 0.0604933 0)
(0.772838 0.0663005 0)
(0.780264 0.0699914 0)
(0.788591 0.0743251 0)
(0.798288 0.0780701 0)
(0.807735 0.0849673 0)
(0.815297 0.099212 0)
(0.83022 0.110961 0)
(0.848804 0.120669 0)
(0.870596 0.132177 0)
(0.898296 0.142036 0)
(0.932566 0.156051 0)
(0.977112 0.153256 0)
(1.0314 0.154298 0)
(1.09584 0.157376 0)
(1.17169 0.168364 0)
(1.25932 0.172423 0)
(1.35189 0.197053 0)
(1.4579 0.223414 0)
(1.57256 0.252053 0)
(1.69365 0.268037 0)
(1.81391 0.287849 0)
(1.93742 0.297731 0)
(2.05897 0.304869 0)
(2.17318 0.311233 0)
(2.27586 0.313121 0)
(2.36586 0.308829 0)
(2.44427 0.313576 0)
(2.51037 0.311577 0)
(2.56488 0.311837 0)
(2.60647 0.310325 0)
(2.63865 0.310883 0)
(2.66081 0.311685 0)
(2.68751 0.324637 0)
(2.70797 0.337761 0)
(2.72038 0.350418 0)
(2.72807 0.359027 0)
(2.73385 0.36161 0)
(2.73489 0.349581 0)
(2.73699 0.328655 0)
(2.74071 0.306412 0)
(2.74208 0.293262 0)
(2.74515 0.290676 0)
(2.74867 0.292031 0)
(2.74984 0.292624 0)
(2.7486 0.286526 0)
(2.74837 0.273422 0)
(2.74992 0.264636 0)
(2.74847 0.264044 0)
(2.74876 0.264642 0)
(2.74623 0.255295 0)
(2.74455 0.247913 0)
(2.74624 0.241213 0)
(2.74837 0.239936 0)
(2.74901 0.237101 0)
(2.74784 0.231053 0)
(2.74636 0.229569 0)
(2.74257 0.223077 0)
(2.73924 0.217924 0)
(2.73959 0.210691 0)
(2.74301 0.206285 0)
(2.74518 0.20657 0)
(2.74413 0.201431 0)
(2.70404 -1.93479 0)
(2.70625 -1.93545 0)
(2.70809 -1.937 0)
(2.71063 -1.93762 0)
(2.71255 -1.93944 0)
(2.71528 -1.93996 0)
(2.71746 -1.94235 0)
(2.71939 -1.94224 0)
(2.72075 -1.94307 0)
(2.72273 -1.94312 0)
(2.72398 -1.94461 0)
(2.72235 -1.94027 0)
(2.62806 -1.8558 0)
(2.42626 -1.66285 0)
(2.16064 -1.3738 0)
(1.87041 -1.01982 0)
(1.55555 -0.647913 0)
(1.19206 -0.354907 0)
(1.07963 -0.146582 0)
(0.97702 -0.0352471 0)
(0.942721 0.0018919 0)
(0.929673 -0.00181996 0)
(0.928033 0.00049288 0)
(0.93232 0.0112147 0)
(0.927551 0.0221981 0)
(0.915758 0.030197 0)
(0.908643 0.0319759 0)
(0.903295 0.0317436 0)
(0.895456 0.0361961 0)
(0.884048 0.0394145 0)
(0.87335 0.0447013 0)
(0.862765 0.0508351 0)
(0.852651 0.0564093 0)
(0.842655 0.0602114 0)
(0.833849 0.062059 0)
(0.825925 0.0632187 0)
(0.820363 0.0595523 0)
(0.815529 0.0557095 0)
(0.813393 0.0558497 0)
(0.812899 0.0569235 0)
(0.813285 0.0598325 0)
(0.815674 0.0637079 0)
(0.819303 0.0702555 0)
(0.82463 0.0762534 0)
(0.82603 0.0819343 0)
(0.830564 0.0852243 0)
(0.836871 0.0886061 0)
(0.84549 0.0912904 0)
(0.855268 0.0968232 0)
(0.863748 0.110756 0)
(0.881187 0.119156 0)
(0.90211 0.127451 0)
(0.92817 0.136269 0)
(0.961845 0.148695 0)
(1.00544 0.147609 0)
(1.06111 0.147665 0)
(1.12712 0.153055 0)
(1.20546 0.161521 0)
(1.2953 0.174696 0)
(1.39575 0.207241 0)
(1.51031 0.236065 0)
(1.63464 0.255945 0)
(1.76144 0.286771 0)
(1.89251 0.296749 0)
(2.01972 0.301246 0)
(2.13641 0.308995 0)
(2.2422 0.318384 0)
(2.33365 0.330402 0)
(2.41292 0.339709 0)
(2.47667 0.349172 0)
(2.53363 0.353398 0)
(2.58225 0.346519 0)
(2.62059 0.335922 0)
(2.65067 0.319187 0)
(2.67635 0.300838 0)
(2.6974 0.278552 0)
(2.70797 0.26941 0)
(2.71898 0.265272 0)
(2.7263 0.280169 0)
(2.73075 0.297344 0)
(2.73429 0.30218 0)
(2.73338 0.293613 0)
(2.73616 0.275375 0)
(2.73744 0.257764 0)
(2.74538 0.260296 0)
(2.74632 0.266975 0)
(2.7441 0.263751 0)
(2.74128 0.249622 0)
(2.74173 0.241212 0)
(2.74497 0.240034 0)
(2.7465 0.238855 0)
(2.74702 0.234142 0)
(2.74703 0.230237 0)
(2.74603 0.230868 0)
(2.74117 0.223885 0)
(2.7372 0.216115 0)
(2.73921 0.20881 0)
(2.74225 0.206009 0)
(2.74392 0.20674 0)
(2.7427 0.202982 0)
(2.72655 -1.94237 0)
(2.72804 -1.94365 0)
(2.73002 -1.94436 0)
(2.73157 -1.94581 0)
(2.73368 -1.94653 0)
(2.73523 -1.94813 0)
(2.73742 -1.94883 0)
(2.73896 -1.95058 0)
(2.74134 -1.95123 0)
(2.74284 -1.95329 0)
(2.7454 -1.95378 0)
(2.74711 -1.9565 0)
(2.74904 -1.95643 0)
(2.74975 -1.95794 0)
(2.75192 -1.95759 0)
(2.75222 -1.96039 0)
(2.7424 -1.93635 0)
(2.60657 -1.80029 0)
(2.36162 -1.53769 0)
(2.08907 -1.17142 0)
(1.83356 -0.791353 0)
(1.55689 -0.443598 0)
(1.25384 -0.176281 0)
(1.11789 -0.0244582 0)
(1.05551 0.0384366 0)
(1.03665 0.0382571 0)
(1.03365 0.0442258 0)
(1.03275 0.0581184 0)
(1.03301 0.0715641 0)
(1.02009 0.0805465 0)
(1.01391 0.0767694 0)
(1.01042 0.0702492 0)
(1.00093 0.0691091 0)
(0.987579 0.0669554 0)
(0.974642 0.0688147 0)
(0.962174 0.0689255 0)
(0.950049 0.07229 0)
(0.937042 0.0747376 0)
(0.924706 0.0793024 0)
(0.912236 0.081931 0)
(0.90049 0.0841516 0)
(0.889419 0.0844822 0)
(0.87923 0.0843762 0)
(0.871209 0.0799881 0)
(0.865291 0.076367 0)
(0.862754 0.0744999 0)
(0.861799 0.0753356 0)
(0.862883 0.0776195 0)
(0.86581 0.0832565 0)
(0.871095 0.0885388 0)
(0.872255 0.0929727 0)
(0.876931 0.0952928 0)
(0.883276 0.0973181 0)
(0.892038 0.0996861 0)
(0.90074 0.110037 0)
(0.916333 0.115844 0)
(0.934516 0.12657 0)
(0.960616 0.136683 0)
(0.996949 0.147339 0)
(1.04617 0.139956 0)
(1.10671 0.14564 0)
(1.18152 0.156758 0)
(1.2729 0.162839 0)
(1.37228 0.190978 0)
(1.48541 0.217431 0)
(1.60906 0.22338 0)
(1.73553 0.231727 0)
(1.86321 0.240615 0)
(1.987 0.255902 0)
(2.10571 0.266123 0)
(2.21575 0.27287 0)
(2.31262 0.270603 0)
(2.39561 0.269793 0)
(2.4648 0.275443 0)
(2.52302 0.283802 0)
(2.57337 0.30361 0)
(2.61302 0.3184 0)
(2.64466 0.325717 0)
(2.66678 0.329299 0)
(2.67865 0.310981 0)
(2.69001 0.281166 0)
(2.70309 0.24772 0)
(2.71943 0.239777 0)
(2.72609 0.251066 0)
(2.73183 0.269987 0)
(2.73476 0.273023 0)
(2.73128 0.254056 0)
(2.73246 0.236341 0)
(2.73801 0.239507 0)
(2.74117 0.240007 0)
(2.74072 0.235781 0)
(2.74457 0.227843 0)
(2.74547 0.231627 0)
(2.7445 0.230352 0)
(2.73848 0.22161 0)
(2.73615 0.212126 0)
(2.73871 0.205357 0)
(2.74131 0.202043 0)
(2.74287 0.202369 0)
(2.74203 0.200576 0)
(2.74246 -1.95591 0)
(2.74418 -1.95626 0)
(2.74517 -1.95779 0)
(2.74708 -1.95806 0)
(2.74807 -1.9597 0)
(2.75007 -1.95992 0)
(2.75105 -1.96166 0)
(2.75314 -1.96182 0)
(2.75405 -1.96372 0)
(2.75629 -1.96367 0)
(2.75716 -1.96571 0)
(2.7596 -1.9654 0)
(2.76033 -1.96769 0)
(2.76301 -1.96711 0)
(2.76362 -1.9698 0)
(2.76642 -1.96853 0)
(2.76793 -1.97311 0)
(2.76975 -1.97165 0)
(2.77044 -1.9724 0)
(2.77237 -1.97122 0)
(2.77262 -1.97294 0)
(2.7309 -1.89248 0)
(2.51186 -1.65614 0)
(2.21578 -1.28228 0)
(1.92957 -0.856192 0)
(1.68854 -0.484618 0)
(1.41889 -0.181476 0)
(1.23452 -0.00381086 0)
(1.14994 0.069204 0)
(1.12767 0.0677074 0)
(1.12252 0.0806349 0)
(1.12258 0.0964684 0)
(1.12075 0.108723 0)
(1.11242 0.108952 0)
(1.1103 0.102756 0)
(1.10482 0.0982812 0)
(1.09215 0.0990058 0)
(1.07871 0.0986719 0)
(1.06402 0.0996014 0)
(1.04985 0.0981317 0)
(1.03509 0.0962059 0)
(1.0195 0.0936031 0)
(1.00446 0.0894809 0)
(0.990198 0.086902 0)
(0.97567 0.0891213 0)
(0.961266 0.0930684 0)
(0.947065 0.0970738 0)
(0.934048 0.0983245 0)
(0.921913 0.0976623 0)
(0.91251 0.0911325 0)
(0.906397 0.0854278 0)
(0.902671 0.0843545 0)
(0.901185 0.0855325 0)
(0.90194 0.0899478 0)
(0.904395 0.0959951 0)
(0.903597 0.101017 0)
(0.905927 0.10508 0)
(0.911215 0.107273 0)
(0.918045 0.112264 0)
(0.926866 0.125151 0)
(0.945675 0.130908 0)
(0.969059 0.136797 0)
(1.00276 0.147191 0)
(1.05104 0.142975 0)
(1.10795 0.155864 0)
(1.17725 0.172544 0)
(1.26183 0.183293 0)
(1.36306 0.178526 0)
(1.47661 0.172573 0)
(1.60104 0.187442 0)
(1.73228 0.220877 0)
(1.86063 0.250933 0)
(1.98466 0.268648 0)
(2.10063 0.270147 0)
(2.20553 0.264113 0)
(2.30019 0.250796 0)
(2.38705 0.250712 0)
(2.46262 0.242438 0)
(2.52545 0.239515 0)
(2.56999 0.235199 0)
(2.60061 0.232868 0)
(2.62882 0.24358 0)
(2.65836 0.27202 0)
(2.67935 0.28086 0)
(2.69096 0.272522 0)
(2.70134 0.245772 0)
(2.70931 0.216719 0)
(2.72013 0.231793 0)
(2.72636 0.239836 0)
(2.72898 0.235146 0)
(2.7346 0.22129 0)
(2.73855 0.224987 0)
(2.74136 0.229722 0)
(2.73959 0.225207 0)
(2.73593 0.216868 0)
(2.73492 0.206491 0)
(2.73893 0.20037 0)
(2.74169 0.196599 0)
(2.74258 0.196485 0)
(2.74118 0.195331 0)
(2.75943 -1.96164 0)
(2.76019 -1.9627 0)
(2.7615 -1.96304 0)
(2.76232 -1.96414 0)
(2.76371 -1.96444 0)
(2.76448 -1.96566 0)
(2.76599 -1.96582 0)
(2.76674 -1.96712 0)
(2.7683 -1.96718 0)
(2.7691 -1.96842 0)
(2.77064 -1.96853 0)
(2.7716 -1.96952 0)
(2.7729 -1.97003 0)
(2.77414 -1.97062 0)
(2.7753 -1.97131 0)
(2.77673 -1.97151 0)
(2.77769 -1.97235 0)
(2.77926 -1.9722 0)
(2.78009 -1.97328 0)
(2.78188 -1.97275 0)
(2.7825 -1.97448 0)
(2.78399 -1.97337 0)
(2.78418 -1.9744 0)
(2.78572 -1.97333 0)
(2.78559 -1.97511 0)
(2.75636 -1.91321 0)
(2.57721 -1.68439 0)
(2.27665 -1.29569 0)
(1.97218 -0.838438 0)
(1.70843 -0.440726 0)
(1.47976 -0.141432 0)
(1.30774 0.036401 0)
(1.21813 0.0896902 0)
(1.20083 0.0989848 0)
(1.20236 0.115161 0)
(1.19657 0.132055 0)
(1.193 0.131576 0)
(1.19165 0.123463 0)
(1.18783 0.112703 0)
(1.17879 0.108256 0)
(1.16516 0.110094 0)
(1.14967 0.115585 0)
(1.13379 0.117391 0)
(1.12 0.121478 0)
(1.10567 0.119404 0)
(1.09116 0.115193 0)
(1.07563 0.108718 0)
(1.05832 0.103638 0)
(1.04047 0.0988843 0)
(1.02238 0.0997527 0)
(1.00447 0.103822 0)
(0.986353 0.105543 0)
(0.969967 0.106324 0)
(0.954992 0.105543 0)
(0.943017 0.0988388 0)
(0.933985 0.0954822 0)
(0.928461 0.0959769 0)
(0.925469 0.098676 0)
(0.923565 0.104666 0)
(0.923732 0.109463 0)
(0.923267 0.111535 0)
(0.925701 0.110951 0)
(0.932913 0.109602 0)
(0.945615 0.105307 0)
(0.963581 0.097158 0)
(0.98264 0.0996816 0)
(1.00529 0.120416 0)
(1.04184 0.145115 0)
(1.10061 0.149636 0)
(1.17731 0.137132 0)
(1.27236 0.125884 0)
(1.38078 0.131974 0)
(1.49518 0.166892 0)
(1.61432 0.201844 0)
(1.73766 0.222389 0)
(1.86181 0.226145 0)
(1.98673 0.222507 0)
(2.10656 0.223883 0)
(2.21708 0.244539 0)
(2.31132 0.266319 0)
(2.38748 0.281629 0)
(2.45112 0.27683 0)
(2.50852 0.2572 0)
(2.56093 0.228431 0)
(2.60135 0.219025 0)
(2.63042 0.215167 0)
(2.65209 0.250119 0)
(2.67199 0.253832 0)
(2.68586 0.240123 0)
(2.70186 0.205415 0)
(2.71538 0.223062 0)
(2.72379 0.228332 0)
(2.72894 0.224378 0)
(2.72974 0.211178 0)
(2.72864 0.208499 0)
(2.72945 0.200384 0)
(2.73518 0.193192 0)
(2.7401 0.187954 0)
(2.74121 0.18913 0)
(2.74091 0.189684 0)
(2.76887 -1.97145 0)
(2.76971 -1.9718 0)
(2.7704 -1.97239 0)
(2.77124 -1.97281 0)
(2.77205 -1.97329 0)
(2.77286 -1.97384 0)
(2.77386 -1.97407 0)
(2.77466 -1.97463 0)
(2.77568 -1.97481 0)
(2.77651 -1.97536 0)
(2.77763 -1.97541 0)
(2.77854 -1.9758 0)
(2.77954 -1.97603 0)
(2.78055 -1.97618 0)
(2.78156 -1.97633 0)
(2.78251 -1.97654 0)
(2.7837 -1.97631 0)
(2.78438 -1.97688 0)
(2.78544 -1.97676 0)
(2.78643 -1.9767 0)
(2.78728 -1.97686 0)
(2.78864 -1.97609 0)
(2.78895 -1.97698 0)
(2.79023 -1.97607 0)
(2.79045 -1.97722 0)
(2.79138 -1.97597 0)
(2.79167 -1.97613 0)
(2.7928 -1.97486 0)
(2.79264 -1.97594 0)
(2.74738 -1.8923 0)
(2.55072 -1.63 0)
(2.23418 -1.18436 0)
(1.94468 -0.713294 0)
(1.66785 -0.316515 0)
(1.47286 -0.0471844 0)
(1.32053 0.0961872 0)
(1.27541 0.10296 0)
(1.25675 0.119093 0)
(1.25495 0.138058 0)
(1.25226 0.150561 0)
(1.25058 0.14611 0)
(1.24763 0.139104 0)
(1.23624 0.128827 0)
(1.22737 0.121408 0)
(1.21528 0.121797 0)
(1.20463 0.125464 0)
(1.19337 0.130131 0)
(1.17901 0.13266 0)
(1.16293 0.1319 0)
(1.14644 0.130675 0)
(1.1279 0.127424 0)
(1.10725 0.121951 0)
(1.08588 0.116795 0)
(1.06526 0.109757 0)
(1.04472 0.109014 0)
(1.02406 0.110499 0)
(1.00349 0.1137 0)
(0.984234 0.117421 0)
(0.966445 0.115313 0)
(0.953062 0.110712 0)
(0.943444 0.105898 0)
(0.938238 0.102331 0)
(0.935044 0.102983 0)
(0.9327 0.103128 0)
(0.933247 0.100006 0)
(0.937162 0.0970959 0)
(0.942948 0.0953013 0)
(0.94754 0.0990411 0)
(0.952956 0.118674 0)
(0.970049 0.139172 0)
(1.00781 0.143304 0)
(1.06425 0.125175 0)
(1.13056 0.0938145 0)
(1.20805 0.0911047 0)
(1.29414 0.126786 0)
(1.39147 0.171621 0)
(1.50185 0.208948 0)
(1.6267 0.21344 0)
(1.75665 0.198473 0)
(1.88444 0.17776 0)
(2.00875 0.171537 0)
(2.12336 0.18283 0)
(2.22551 0.205494 0)
(2.31533 0.232331 0)
(2.39612 0.250728 0)
(2.46167 0.266623 0)
(2.5108 0.238077 0)
(2.55618 0.216196 0)
(2.59774 0.197088 0)
(2.63212 0.227664 0)
(2.65974 0.234824 0)
(2.68034 0.22847 0)
(2.69686 0.216588 0)
(2.70518 0.21894 0)
(2.70933 0.225919 0)
(2.71276 0.214852 0)
(2.72157 0.199254 0)
(2.73155 0.186845 0)
(2.73581 0.187349 0)
(2.73767 0.183569 0)
(2.77998 -1.97178 0)
(2.78049 -1.97216 0)
(2.78113 -1.97236 0)
(2.78171 -1.97269 0)
(2.78232 -1.97303 0)
(2.78293 -1.97338 0)
(2.78367 -1.97354 0)
(2.78427 -1.97389 0)
(2.78501 -1.97399 0)
(2.78563 -1.97429 0)
(2.78636 -1.97439 0)
(2.78711 -1.9744 0)
(2.78771 -1.97459 0)
(2.78834 -1.97472 0)
(2.78913 -1.97449 0)
(2.7896 -1.97481 0)
(2.7906 -1.97415 0)
(2.79082 -1.9747 0)
(2.79155 -1.9744 0)
(2.79194 -1.97464 0)
(2.79258 -1.97436 0)
(2.79321 -1.97398 0)
(2.79347 -1.97406 0)
(2.79369 -1.97418 0)
(2.79412 -1.97382 0)
(2.79413 -1.97399 0)
(2.79431 -1.97397 0)
(2.79441 -1.97401 0)
(2.79472 -1.97364 0)
(2.79474 -1.97357 0)
(2.79522 -1.97247 0)
(2.79486 -1.97294 0)
(2.7933 -1.96785 0)
(2.69705 -1.82186 0)
(2.42887 -1.44955 0)
(2.10165 -0.935505 0)
(1.82285 -0.474048 0)
(1.53856 -0.122711 0)
(1.39942 0.0568545 0)
(1.32547 0.117243 0)
(1.30814 0.1407 0)
(1.29695 0.151079 0)
(1.28906 0.158807 0)
(1.2917 0.150391 0)
(1.2939 0.138667 0)
(1.28692 0.13266 0)
(1.28058 0.136083 0)
(1.26876 0.143974 0)
(1.25521 0.142879 0)
(1.24291 0.146667 0)
(1.22982 0.145928 0)
(1.21598 0.143641 0)
(1.20026 0.141064 0)
(1.18201 0.138387 0)
(1.16163 0.138081 0)
(1.13895 0.136072 0)
(1.11473 0.131214 0)
(1.09004 0.123436 0)
(1.06446 0.117617 0)
(1.0396 0.11531 0)
(1.01561 0.116849 0)
(0.99313 0.119837 0)
(0.972038 0.118182 0)
(0.956747 0.110235 0)
(0.949155 0.101027 0)
(0.945517 0.0946192 0)
(0.944448 0.0914473 0)
(0.940323 0.093102 0)
(0.935145 0.0946988 0)
(0.928225 0.103222 0)
(0.925751 0.120584 0)
(0.937299 0.130076 0)
(0.960655 0.129535 0)
(0.993467 0.110088 0)
(1.03493 0.0753723 0)
(1.08929 0.0560606 0)
(1.15411 0.0670836 0)
(1.22363 0.121173 0)
(1.31032 0.176735 0)
(1.41745 0.203212 0)
(1.54136 0.201572 0)
(1.66873 0.175315 0)
(1.79496 0.161391 0)
(1.91765 0.159502 0)
(2.03565 0.180724 0)
(2.14747 0.187071 0)
(2.24143 0.200202 0)
(2.32663 0.20466 0)
(2.40437 0.223991 0)
(2.47056 0.213191 0)
(2.52929 0.20311 0)
(2.57952 0.203303 0)
(2.618 0.222266 0)
(2.64235 0.236143 0)
(2.65766 0.222729 0)
(2.67145 0.203249 0)
(2.69108 0.211962 0)
(2.70865 0.212056 0)
(2.71891 0.211595 0)
(2.7265 0.197157 0)
(2.78478 -1.97633 0)
(2.78522 -1.97647 0)
(2.78573 -1.97651 0)
(2.7863 -1.97646 0)
(2.78664 -1.97682 0)
(2.7873 -1.97663 0)
(2.78771 -1.97689 0)
(2.78832 -1.9768 0)
(2.78878 -1.97697 0)
(2.78937 -1.9769 0)
(2.7898 -1.97705 0)
(2.79043 -1.97678 0)
(2.79078 -1.97686 0)
(2.79109 -1.97695 0)
(2.79152 -1.97675 0)
(2.79177 -1.97675 0)
(2.79224 -1.97629 0)
(2.79252 -1.97608 0)
(2.79241 -1.97646 0)
(2.7928 -1.9761 0)
(2.79276 -1.97635 0)
(2.79311 -1.97584 0)
(2.79299 -1.97588 0)
(2.79296 -1.97575 0)
(2.79289 -1.97562 0)
(2.79294 -1.97527 0)
(2.7925 -1.97592 0)
(2.79316 -1.97462 0)
(2.7932 -1.97433 0)
(2.79367 -1.97305 0)
(2.79347 -1.97293 0)
(2.79418 -1.97082 0)
(2.79411 -1.97105 0)
(2.79459 -1.96935 0)
(2.79531 -1.96841 0)
(2.79594 -1.96703 0)
(2.75878 -1.89253 0)
(2.53063 -1.58888 0)
(2.2025 -1.08435 0)
(1.86426 -0.548586 0)
(1.62794 -0.147552 0)
(1.40676 0.0871238 0)
(1.35911 0.124526 0)
(1.34385 0.13669 0)
(1.33314 0.144311 0)
(1.33048 0.159189 0)
(1.33521 0.1567 0)
(1.3315 0.156984 0)
(1.32081 0.155487 0)
(1.31103 0.150967 0)
(1.29824 0.152553 0)
(1.2895 0.155766 0)
(1.28076 0.157391 0)
(1.2696 0.155056 0)
(1.25659 0.152213 0)
(1.24008 0.147975 0)
(1.22092 0.145489 0)
(1.19845 0.146413 0)
(1.17382 0.146036 0)
(1.14806 0.144422 0)
(1.11972 0.139027 0)
(1.09143 0.13024 0)
(1.06289 0.121246 0)
(1.0357 0.117816 0)
(1.01205 0.116874 0)
(0.990787 0.11278 0)
(0.974068 0.104064 0)
(0.961476 0.0951625 0)
(0.949109 0.0902975 0)
(0.939277 0.086231 0)
(0.932642 0.0916437 0)
(0.924292 0.0982761 0)
(0.922662 0.102336 0)
(0.927098 0.102862 0)
(0.94088 0.100966 0)
(0.962093 0.0903429 0)
(0.987282 0.0758344 0)
(1.01766 0.0619407 0)
(1.05829 0.0673785 0)