/*--------------------------------*- C++ -*----------------------------------*\
  =========                 |
  \\      /  F ield         | OpenFOAM: The Open Source CFD Toolbox
   \\    /   O peration     | Website:  https://openfoam.org
    \\  /    A nd           | Version:  7
     \\/     M anipulation  |
\*---------------------------------------------------------------------------*/
FoamFile
{
    version     2.0;
    format      ascii;
    class       volScalarField;
    location    "3";
    object      p;
}
// * * * * * * * * * * * * * * * * * * * * * * * * * * * * * * * * * * * * * //

dimensions      [1 -1 -2 0 0 0 0];

internalField   nonuniform List<scalar> 
24000
(
0.278134
0.313331
0.352484
0.386558
0.418639
0.454551
0.488154
0.520873
0.557361
0.595461
0.635536
0.677793
0.723497
0.769301
0.820371
0.86676
0.91505
0.940122
0.957215
0.95808
0.956751
0.954365
0.949004
0.937788
0.928143
0.915009
0.898962
0.904416
0.915699
0.930266
0.942474
0.949696
0.945984
0.934835
0.928438
0.933667
0.942353
0.948582
0.944462
0.93441
0.930606
0.934817
0.940239
0.936345
0.92958
0.929511
0.934328
0.934895
0.933688
0.948242
0.249392
0.249356
0.249321
0.249321
0.249468
0.249934
0.250858
0.252707
0.25603
0.262178
0.271451
0.286596
0.307533
0.338955
0.380115
0.436409
0.504899
0.580327
0.656862
0.722625
0.785411
0.825519
0.865946
0.877932
0.894393
0.896444
0.908736
0.922196
0.938985
0.952057
0.954814
0.95248
0.934614
0.924093
0.927677
0.940455
0.95248
0.95065
0.940596
0.92997
0.929639
0.93791
0.941812
0.933768
0.928815
0.930566
0.935343
0.935106
0.933424
0.948518
0.249969
0.24998
0.24998
0.249965
0.249976
0.250018
0.249975
0.249896
0.249835
0.249796
0.249802
0.249827
0.249765
0.249656
0.249705
0.250574
0.2533
0.262245
0.279324
0.314267
0.363309
0.436554
0.521985
0.619875
0.71971
0.805584
0.886524
0.919178
0.937042
0.947057
0.948967
0.935388
0.906316
0.917813
0.939969
0.957399
0.956457
0.946068
0.931628
0.927389
0.935791
0.945788
0.940711
0.929458
0.928005
0.9357
0.936919
0.934462
0.933058
0.948905
0.250285
0.250279
0.250243
0.250162
0.250128
0.250141
0.250128
0.250112
0.250098
0.250045
0.249965
0.249885
0.249794
0.249669
0.249566
0.249517
0.249504
0.249498
0.2495
0.249451
0.249523
0.250896
0.256292
0.276447
0.314913
0.39245
0.492582
0.6115
0.715578
0.796849
0.849934
0.87617
0.896877
0.939254
0.966184
0.964244
0.954135
0.935307
0.925837
0.931378
0.947947
0.947924
0.934094
0.925796
0.931113
0.939977
0.93652
0.932885
0.93247
0.95024
0.250196
0.250173
0.250145
0.250113
0.250053
0.249989
0.249928
0.24986
0.249805
0.249736
0.249545
0.249406
0.249364
0.249325
0.249255
0.249159
0.249123
0.249106
0.249098
0.249098
0.249096
0.249111
0.249193
0.249495
0.249762
0.250529
0.255034
0.276969
0.328433
0.421001
0.550491
0.708373
0.846051
0.918036
0.944679
0.953884
0.947232
0.923064
0.928491
0.946053
0.9537
0.94526
0.924229
0.925483
0.937516
0.939997
0.935145
0.930845
0.932785
0.951841
0.249979
0.249957
0.249946
0.249927
0.249867
0.24981
0.249756
0.249673
0.24959
0.249526
0.249469
0.249373
0.249247
0.249166
0.249112
0.249062
0.249044
0.249053
0.249101
0.249151
0.249155
0.249147
0.249187
0.249349
0.249685
0.250164
0.250566
0.250634
0.250663
0.251921
0.264708
0.312007
0.433828
0.586141
0.72107
0.858684
0.880771
0.913367
0.940901
0.96427
0.959035
0.927981
0.917117
0.930505
0.944505
0.940167
0.928873
0.929178
0.933693
0.953105
0.249922
0.249904
0.249895
0.249876
0.249837
0.249816
0.249791
0.249757
0.249702
0.249597
0.249525
0.249532
0.249572
0.249584
0.249567
0.249518
0.249513
0.249578
0.249713
0.24972
0.249692
0.249666
0.249649
0.249705
0.250035
0.250298
0.250176
0.250056
0.250149
0.250441
0.250853
0.251172
0.254327
0.272994
0.350477
0.490418
0.671671
0.856854
0.922334
0.952047
0.935637
0.907599
0.919222
0.944355
0.94544
0.930526
0.924112
0.930351
0.934423
0.954045
0.249921
0.249898
0.249874
0.249851
0.249835
0.24982
0.249826
0.249861
0.249923
0.249974
0.25002
0.250131
0.25029
0.250362
0.250409
0.250455
0.250527
0.250554
0.250527
0.250398
0.250176
0.250047
0.249952
0.24994
0.249833
0.249517
0.249332
0.249436
0.249661
0.250024
0.250652
0.251593
0.253216
0.25606
0.257403
0.263338
0.311615
0.430088
0.602781
0.787195
0.844571
0.895455
0.940681
0.957671
0.946039
0.917702
0.923358
0.935625
0.935458
0.951611
0.250035
0.250095
0.250167
0.250245
0.250278
0.250327
0.250444
0.250612
0.250774
0.250814
0.250851
0.250988
0.251076
0.251089
0.25111
0.251109
0.251073
0.250954
0.250795
0.250556
0.250287
0.250001
0.249765
0.249632
0.249343
0.248908
0.248918
0.249283
0.24955
0.249847
0.250514
0.25178
0.254387
0.256799
0.257623
0.258824
0.259799
0.261961
0.292942
0.391585
0.595077
0.824193
0.918252
0.945238
0.91563
0.905818
0.934846
0.939776
0.930332
0.950094
0.250574
0.250598
0.250635
0.250667
0.250715
0.250857
0.251069
0.251161
0.251244
0.251281
0.251281
0.251299
0.251302
0.25129
0.251269
0.251234
0.251127
0.250906
0.250674
0.25045
0.250096
0.249539
0.249315
0.24927
0.249042
0.248741
0.248823
0.249383
0.24966
0.249785
0.250364
0.251888
0.254707
0.256981
0.257343
0.258032
0.259239
0.260071
0.260865
0.262407
0.290825
0.404246
0.598273
0.805029
0.858893
0.907639
0.955087
0.944419
0.925539
0.950707
0.250725
0.250746
0.250773
0.250822
0.250896
0.251012
0.251172
0.251303
0.251401
0.251427
0.25143
0.251426
0.251396
0.25133
0.251248
0.251189
0.251088
0.250805
0.25049
0.25017
0.24957
0.249158
0.249192
0.249318
0.249189
0.249187
0.249614
0.250649
0.250897
0.250661
0.25076
0.252027
0.254654
0.256701
0.257147
0.257591
0.258665
0.2597
0.260382
0.261604
0.263709
0.266208
0.2993
0.424263
0.67075
0.870793
0.942044
0.914447
0.921512
0.957296
0.24959
0.24946
0.249243
0.249084
0.249072
0.249102
0.249157
0.249151
0.24911
0.249073
0.249048
0.249
0.248896
0.248765
0.248741
0.248866
0.249091
0.249109
0.249104
0.248832
0.248654
0.248657
0.248869
0.249548
0.250086
0.250669
0.251476
0.251822
0.251754
0.251217
0.250878
0.251424
0.252697
0.254126
0.255824
0.256905
0.257779
0.258689
0.25959
0.261168
0.263182
0.26456
0.265171
0.267563
0.321151
0.493943
0.742446
0.839853
0.926994
0.96693
0.246402
0.246283
0.246248
0.24625
0.246314
0.246431
0.246432
0.246418
0.246438
0.246515
0.246563
0.246562
0.246593
0.24667
0.246796
0.247327
0.248034
0.248319
0.248464
0.248249
0.2482
0.248391
0.249
0.250012
0.250839
0.251406
0.251927
0.251961
0.251809
0.251296
0.250377
0.250138
0.250503
0.251607
0.254045
0.256187
0.25717
0.257847
0.258742
0.260396
0.261463
0.262377
0.263328
0.264316
0.265264
0.27622
0.357615
0.610829
0.850342
0.953118
0.246426
0.246183
0.246056
0.245994
0.245932
0.245763
0.245399
0.245277
0.245325
0.245461
0.245439
0.24521
0.245127
0.24514
0.245366
0.246059
0.246924
0.247623
0.248531
0.249043
0.24959
0.250393
0.251242
0.251935
0.251963
0.25145
0.250952
0.250929
0.25091
0.250461
0.249863
0.249659
0.249778
0.25059
0.253089
0.255768
0.25713
0.25852
0.259714
0.260542
0.260863
0.261428
0.262409
0.263513
0.265385
0.267585
0.268749
0.307039
0.449589
0.797898
0.250593
0.251015
0.251632
0.251855
0.251709
0.25148
0.251803
0.252215
0.252555
0.252808
0.252617
0.251573
0.250801
0.250672
0.250718
0.250744
0.25089
0.251783
0.253178
0.253459
0.253703
0.253506
0.253207
0.25336
0.253279
0.252443
0.251279
0.251197
0.250877
0.250728
0.251438
0.252196
0.252506
0.253116
0.254869
0.257443
0.260295
0.262944
0.263939
0.26364
0.262729
0.262827
0.26365
0.265476
0.26811
0.270756
0.270837
0.271298
0.275844
0.532613
0.26217
0.262461
0.262768
0.262982
0.263356
0.263387
0.263031
0.262932
0.262717
0.261933
0.260635
0.258149
0.25678
0.256638
0.256273
0.254429
0.25307
0.25311
0.253961
0.254314
0.254081
0.253082
0.252717
0.253055
0.253122
0.252446
0.251393
0.250767
0.250728
0.251267
0.253289
0.257522
0.260074
0.260999
0.262352
0.264377
0.266113
0.267
0.266447
0.264003
0.262223
0.262879
0.265545
0.270174
0.272842
0.271939
0.270917
0.27203
0.273867
0.321246
0.273825
0.273759
0.273127
0.272646
0.27261
0.272752
0.272761
0.272381
0.271786
0.271921
0.272521
0.272606
0.271453
0.269765
0.269773
0.270861
0.271268
0.271899
0.274294
0.276809
0.277427
0.277132
0.276091
0.274965
0.274056
0.273007
0.272803
0.273816
0.276357
0.280144
0.284523
0.287201
0.287583
0.287541
0.287632
0.287942
0.287865
0.287521
0.286096
0.286335
0.288188
0.290811
0.294347
0.294078
0.293148
0.29198
0.292559
0.294841
0.295014
0.295838
0.310881
0.309613
0.309238
0.309226
0.309576
0.31028
0.310212
0.310083
0.31064
0.311571
0.312721
0.313868
0.31376
0.31354
0.313652
0.313108
0.312301
0.312292
0.312091
0.31171
0.311957
0.312801
0.313082
0.313249
0.313707
0.313754
0.312864
0.310867
0.308736
0.306657
0.304903
0.304668
0.304766
0.304382
0.303623
0.304087
0.304271
0.303738
0.304842
0.307232
0.310681
0.31084
0.309916
0.307696
0.304771
0.305065
0.306645
0.307976
0.307146
0.304582
0.357029
0.357306
0.357576
0.357346
0.356724
0.356704
0.356461
0.355742
0.355773
0.355949
0.355345
0.35402
0.354043
0.35434
0.353111
0.349409
0.348432
0.348475
0.347649
0.344156
0.342466
0.341457
0.340618
0.340512
0.340259
0.339647
0.338347
0.337697
0.338543
0.339189
0.337866
0.335077
0.334402
0.335869
0.340023
0.34489
0.347023
0.347783
0.347418
0.346113
0.343719
0.340718
0.338028
0.335005
0.334325
0.334556
0.33448
0.333252
0.330405
0.326724
0.416294
0.416016
0.415599
0.414798
0.414148
0.414242
0.414114
0.412583
0.41144
0.411644
0.411973
0.411482
0.411041
0.410978
0.410528
0.410179
0.410335
0.410187
0.409034
0.407296
0.406213
0.405097
0.403435
0.40107
0.398465
0.397533
0.396493
0.395059
0.395351
0.395882
0.395318
0.394575
0.393566
0.39226
0.391377
0.390159
0.387693
0.383981
0.379108
0.374043
0.368624
0.365836
0.36282
0.363221
0.364056
0.363143
0.360689
0.355292
0.351621
0.347876
0.489559
0.488326
0.486849
0.486434
0.486942
0.487096
0.485595
0.484674
0.484186
0.482534
0.48212
0.481773
0.480117
0.478128
0.477289
0.476437
0.474996
0.472796
0.470316
0.46866
0.467436
0.466037
0.463941
0.461999
0.460422
0.458612
0.455718
0.452336
0.448413
0.44397
0.441416
0.439864
0.437896
0.436226
0.435047
0.432363
0.427821
0.424085
0.421229
0.419667
0.41698
0.416395
0.415489
0.412927
0.408144
0.402262
0.396123
0.388691
0.384871
0.379655
0.573111
0.573012
0.571792
0.569454
0.568488
0.56892
0.568864
0.567769
0.56586
0.563809
0.563572
0.56323
0.561513
0.559007
0.557593
0.556266
0.554624
0.552666
0.55036
0.547905
0.545372
0.542804
0.54009
0.537035
0.533671
0.530426
0.526981
0.523445
0.520625
0.517429
0.513806
0.51049
0.506137
0.503794
0.503573
0.502182
0.49773
0.492657
0.487698
0.482087
0.47491
0.467545
0.459686
0.451087
0.441858
0.432814
0.424483
0.42111
0.418626
0.4114
0.651735
0.651644
0.650734
0.648781
0.647965
0.648269
0.648162
0.64736
0.645529
0.643659
0.643376
0.642861
0.641313
0.639204
0.637625
0.636227
0.634402
0.632236
0.630019
0.627592
0.625086
0.622363
0.61943
0.616487
0.613241
0.6096
0.605889
0.601872
0.597294
0.592778
0.58818
0.583888
0.580167
0.57637
0.571877
0.567595
0.562075
0.554203
0.545261
0.535681
0.526161
0.516065
0.507996
0.499092
0.492417
0.487178
0.479972
0.475066
0.468503
0.453465
0.696047
0.695858
0.695725
0.695415
0.694722
0.694443
0.69445
0.694313
0.693788
0.69276
0.692233
0.691855
0.691338
0.690618
0.689861
0.689151
0.688312
0.687167
0.685968
0.684785
0.683392
0.6818
0.680044
0.678123
0.676071
0.67371
0.671078
0.66843
0.665489
0.662118
0.658569
0.655003
0.651233
0.64834
0.645693
0.642236
0.637453
0.630722
0.622344
0.612146
0.602171
0.590864
0.580892
0.570957
0.559812
0.548369
0.536323
0.521413
0.507832
0.488497
0.708387
0.70825
0.708198
0.708166
0.708043
0.70792
0.707919
0.707938
0.707859
0.707486
0.707022
0.706807
0.706703
0.706681
0.706664
0.706622
0.706539
0.706342
0.706253
0.706255
0.706167
0.705923
0.705506
0.704978
0.704421
0.703778
0.702745
0.701809
0.701554
0.701132
0.700145
0.699084
0.697773
0.697533
0.698555
0.698779
0.698081
0.695824
0.690981
0.683388
0.673146
0.66167
0.648402
0.634875
0.62063
0.605116
0.590533
0.574781
0.562144
0.543236
0.710382
0.710215
0.710166
0.710219
0.710491
0.710837
0.710939
0.710942
0.710942
0.710951
0.710872
0.710662
0.710523
0.710382
0.710174
0.709995
0.70981
0.709562
0.709419
0.709334
0.709238
0.709047
0.708678
0.708414
0.708079
0.707606
0.707526
0.707829
0.708253
0.70831
0.708132
0.708272
0.709067
0.710706
0.713142
0.716325
0.720254
0.72499
0.725867
0.725179
0.722353
0.716913
0.70875
0.698441
0.686383
0.673294
0.658919
0.643926
0.630286
0.604984
0.710843
0.710919
0.711297
0.711545
0.711495
0.711459
0.711584
0.711804
0.712013
0.712293
0.712687
0.712707
0.712502
0.712426
0.712385
0.712108
0.711058
0.710749
0.710775
0.710692
0.710882
0.710989
0.710827
0.710659
0.710349
0.709366
0.708497
0.708208
0.708327
0.709274
0.709989
0.710326
0.710875
0.7122
0.714743
0.718246
0.722437
0.726718
0.730716
0.734162
0.738028
0.739362
0.738906
0.736868
0.732208
0.724991
0.715207
0.702847
0.689735
0.663923
0.721561
0.721598
0.721584
0.721435
0.721318
0.72138
0.721398
0.721421
0.721687
0.721945
0.721824
0.721285
0.721016
0.720849
0.720639
0.72009
0.71918
0.718988
0.719065
0.719103
0.719275
0.719262
0.719026
0.718874
0.717803
0.716465
0.716278
0.716265
0.715601
0.714716
0.714186
0.713952
0.714378
0.7155
0.716733
0.718598
0.721865
0.726056
0.730578
0.735239
0.739469
0.742697
0.746402
0.747691
0.747563
0.746747
0.744241
0.73938
0.733179
0.716685
0.754428
0.75454
0.754447
0.754095
0.753705
0.753113
0.752921
0.752953
0.75244
0.75185
0.751517
0.750841
0.75053
0.749997
0.748716
0.747462
0.746801
0.745611
0.744387
0.743913
0.743278
0.742246
0.74106
0.739755
0.738248
0.736896
0.735372
0.73439
0.733426
0.73183
0.729899
0.727575
0.725703
0.724468
0.723757
0.72391
0.724871
0.727478
0.731674
0.736894
0.741655
0.745702
0.749803
0.75319
0.756067
0.760013
0.761367
0.761232
0.760268
0.753962
0.820338
0.820365
0.819767
0.818744
0.818418
0.817515
0.816059
0.815887
0.815572
0.814499
0.812459
0.811664
0.811559
0.810836
0.809091
0.807367
0.806122
0.804655
0.802703
0.800588
0.798511
0.796521
0.794382
0.79196
0.789697
0.787363
0.784531
0.78133
0.777817
0.774194
0.770866
0.767434
0.763721
0.759663
0.755454
0.751908
0.749623
0.748846
0.748542
0.749427
0.752152
0.755934
0.760116
0.764174
0.767481
0.771548
0.773876
0.774182
0.773927
0.771191
0.910978
0.909421
0.908209
0.90815
0.908627
0.90833
0.907202
0.90487
0.903899
0.903805
0.903098
0.900929
0.899379
0.898368
0.897
0.895284
0.893283
0.891258
0.889186
0.886803
0.88418
0.881397
0.878459
0.875351
0.871926
0.868179
0.86427
0.859928
0.855354
0.850523
0.845174
0.839384
0.833205
0.82693
0.820371
0.813339
0.805977
0.799472
0.794122
0.789936
0.786834
0.785196
0.78491
0.785039
0.785524
0.786183
0.786612
0.786521
0.786569
0.785788
0.977975
0.977712
0.977348
0.9767
0.976
0.975946
0.97596
0.975633
0.974632
0.973614
0.973511
0.973283
0.9722
0.970853
0.970234
0.969612
0.96857
0.9672
0.965761
0.964215
0.962529
0.960689
0.958686
0.956477
0.953977
0.951198
0.948134
0.944717
0.940818
0.936544
0.931846
0.926603
0.920807
0.91434
0.907033
0.89919
0.89067
0.88153
0.872076
0.862991
0.854575
0.846838
0.840282
0.834651
0.830455
0.827245
0.824966
0.822415
0.821384
0.819704
0.998073
0.998029
0.997923
0.997889
0.997877
0.997829
0.997762
0.997633
0.997551
0.997497
0.997407
0.997273
0.997127
0.996965
0.996803
0.996638
0.996435
0.996186
0.995907
0.995588
0.995216
0.994797
0.994312
0.993743
0.993082
0.992313
0.991417
0.990348
0.989086
0.987591
0.985832
0.983731
0.98122
0.978205
0.974609
0.970292
0.965156
0.959084
0.952076
0.944108
0.935461
0.926328
0.916989
0.908053
0.899384
0.89145
0.884441
0.878227
0.873123
0.866798
0.999948
0.999946
0.999944
0.999942
0.999939
0.999937
0.999935
0.999932
0.999928
0.999924
0.999921
0.999915
0.999909
0.999902
0.999894
0.999886
0.999875
0.999862
0.999848
0.999831
0.99981
0.999784
0.999754
0.999716
0.999669
0.999611
0.999539
0.999448
0.999332
0.999183
0.99899
0.998739
0.998409
0.99797
0.997384
0.996596
0.995531
0.994093
0.992163
0.989612
0.986324
0.982219
0.977279
0.97159
0.96528
0.958571
0.951847
0.94528
0.939368
0.932197
0.999999
0.999999
0.999999
0.999999
0.999999
0.999999
0.999999
0.999999
0.999999
0.999999
0.999999
0.999999
0.999999
0.999999
0.999999
0.999998
0.999998
0.999998
0.999998
0.999998
0.999997
0.999997
0.999996
0.999995
0.999994
0.999993
0.999992
0.999989
0.999986
0.999982
0.999977
0.999969
0.999957
0.99994
0.999914
0.999876
0.999816
0.999722
0.999575
0.999343
0.998984
0.998439
0.997638
0.996515
0.995009
0.993091
0.990808
0.988264
0.985625
0.982146
1
1
1
1
1
1
1
1
1
1
1
1
1
1
1
1
1
1
1
1
1
1
1
1
1
1
1
1
1
1
1
1
0.999999
0.999999
0.999999
0.999998
0.999997
0.999995
0.999992
0.999986
0.999975
0.999955
0.999921
0.999862
0.999767
0.999619
0.999409
0.999133
0.998797
0.998299
1
1
1
1
1
1
1
1
1
1
1
1
1
1
1
1
1
1
1
1
1
1
1
1
1
1
1
1
1
1
1
1
1
1
1
1
1
1
1
1
1
0.999999
0.999999
0.999998
0.999996
0.999993
0.999987
0.999979
0.999968
0.99995
1
1
1
1
1
1
1
1
1
1
1
1
1
1
1
1
1
1
1
1
1
1
1
1
1
1
1
1
1
1
1
1
1
1
1
1
1
1
1
1
1
1
1
1
1
1
1
1
1
0.999999
1
1
1
1
1
1
1
1
1
1
1
1
1
1
1
1
1
1
1
1
1
1
1
1
1
1
1
1
1
1
1
1
1
1
1
1
1
1
1
1
1
1
1
1
1
1
1
1
1
1
1
1
1
1
1
1
1
1
1
1
1
1
1
1
1
1
1
1
1
1
1
1
1
1
1
1
1
1
1
1
1
1
1
1
1
1
1
1
1
1
1
1
1
1
1
1
1
1
1
1
0.248768
0.249419
0.249983
0.250295
0.250215
0.250031
0.249979
0.249971
0.249979
0.250556
0.250694
0.249785
0.246734
0.246679
0.250322
0.262138
0.273502
0.310925
0.357349
0.416842
0.490117
0.573482
0.652036
0.696312
0.708496
0.71046
0.710814
0.72164
0.754539
0.820349
0.912067
0.97836
0.998117
0.999949
0.999999
1
1
1
1
1
0.248767
0.249438
0.250031
0.25033
0.250227
0.25006
0.250056
0.250021
0.249947
0.250512
0.250639
0.24992
0.246975
0.246843
0.250431
0.262952
0.273138
0.31111
0.359745
0.418976
0.491926
0.576128
0.653988
0.696929
0.708647
0.710434
0.710734
0.72243
0.755769
0.822491
0.913331
0.978949
0.998204
0.999952
0.999999
1
1
1
1
1
0.248727
0.249443
0.250068
0.250376
0.250283
0.250099
0.25013
0.250048
0.249925
0.250337
0.250571
0.249915
0.247009
0.246841
0.251232
0.264285
0.272825
0.310836
0.360877
0.420271
0.493496
0.577995
0.655385
0.697469
0.708702
0.710198
0.710549
0.722867
0.756702
0.824436
0.914453
0.979397
0.998272
0.999955
0.999999
1
1
1
1
1
0.248678
0.249439
0.250094
0.250429
0.250397
0.25019
0.250222
0.250062
0.249908
0.250205
0.250477
0.249797
0.246978
0.246733
0.252093
0.265485
0.273126
0.311362
0.361993
0.421455
0.4955
0.580231
0.657045
0.698113
0.708691
0.710026
0.710457
0.722849
0.757356
0.82559
0.915588
0.979903
0.998345
0.999958
1
1
1
1
1
1
0.248613
0.249377
0.250106
0.25047
0.250458
0.250286
0.250333
0.250066
0.249887
0.250114
0.250363
0.249757
0.246924
0.246634
0.25227
0.265743
0.274686
0.314291
0.363572
0.422777
0.498228
0.582887
0.658965
0.698788
0.708659
0.710012
0.710423
0.722621
0.75802
0.826892
0.916764
0.980592
0.998431
0.999961
1
1
1
1
1
1
0.248562
0.249275
0.250104
0.250489
0.250482
0.250352
0.250437
0.250068
0.249863
0.250002
0.250273
0.249763
0.246946
0.246566
0.252102
0.265471
0.275704
0.316214
0.364898
0.425114
0.500724
0.58524
0.660662
0.69943
0.708692
0.710041
0.710417
0.72264
0.758796
0.828258
0.918544
0.981313
0.998525
0.999963
1
1
1
1
1
1
0.24854
0.249233
0.250072
0.250493
0.250485
0.250416
0.250518
0.250086
0.249843
0.249869
0.250248
0.249823
0.247146
0.246468
0.251694
0.265198
0.275868
0.316851
0.365995
0.427327
0.503249
0.587698
0.662434
0.700072
0.708733
0.710114
0.710469
0.723484
0.75985
0.829851
0.920314
0.98201
0.998606
0.999966
1
1
1
1
1
1
0.248535
0.249228
0.250039
0.250488
0.250484
0.25048
0.250588
0.250091
0.249823
0.249736
0.250266
0.25007
0.247601
0.246508
0.251603
0.264923
0.275795
0.317553
0.366905
0.429547
0.506013
0.590385
0.664345
0.700717
0.708696
0.710118
0.710681
0.72487
0.760961
0.831734
0.921879
0.982686
0.998682
0.999968
1
1
1
1
1
1
0.248544
0.24925
0.250042
0.250476
0.250519
0.250543
0.250648
0.250076
0.249784
0.249623
0.250333
0.250176
0.24813
0.246934
0.251712
0.264617
0.27568
0.319023
0.367806
0.43225
0.508877
0.593296
0.666333
0.701354
0.708508
0.710058
0.71124
0.725908
0.76195
0.833591
0.923504
0.983328
0.99876
0.999971
1
1
1
1
1
1
0.248547
0.249257
0.250055
0.250458
0.250559
0.250601
0.250706
0.250058
0.249715
0.24953
0.250328
0.250151
0.24853
0.247459
0.251978
0.26459
0.276089
0.321066
0.369405
0.435063
0.511682
0.596305
0.668341
0.701977
0.708361
0.709962
0.711613
0.726444
0.762888
0.835493
0.925248
0.983984
0.998842
0.999973
1
1
1
1
1
1
0.24854
0.249239
0.250052
0.250442
0.250564
0.250645
0.250756
0.250055
0.249648
0.249435
0.250219
0.250008
0.248759
0.247734
0.252101
0.264678
0.277593
0.323373
0.372182
0.437807
0.514455
0.599453
0.670343
0.702582
0.70829
0.709824
0.711718
0.727001
0.763929
0.837494
0.927086
0.984699
0.998924
0.999976
1
1
1
1
1
1
0.248544
0.249175
0.250012
0.250422
0.250564
0.250667
0.250794
0.250051
0.249562
0.249321
0.250104
0.249946
0.248915
0.247803
0.252103
0.264596
0.279067
0.325803
0.374882
0.440729
0.517419
0.602747
0.672347
0.703174
0.708216
0.709669
0.711752
0.728396
0.765359
0.83955
0.928975
0.985459
0.999003
0.999978
1
1
1
1
1
1
0.248599
0.249156
0.249962
0.25038
0.250561
0.250676
0.25081
0.250028
0.24942
0.249187
0.250027
0.249952
0.249079
0.247807
0.251891
0.264517
0.280327
0.328525
0.377492
0.44362
0.520957
0.606146
0.67441
0.703743
0.708092
0.709541
0.711935
0.729748
0.766954
0.84166
0.930945
0.986197
0.999078
0.99998
1
1
1
1
1
1
0.24868
0.249168
0.249951
0.250333
0.250546
0.250676
0.250802
0.249943
0.249259
0.249046
0.249977
0.249994
0.249235
0.247798
0.251143
0.26453
0.282246
0.331728
0.380221
0.446525
0.524834
0.609686
0.676565
0.704278
0.707897
0.70943
0.712949
0.730559
0.768395
0.843925
0.933013
0.986916
0.999153
0.999982
1
1
1
1
1
1
0.248732
0.249171
0.249948
0.250291
0.250501
0.250673
0.250722
0.249812
0.249122
0.248915
0.249935
0.25005
0.249301
0.247605
0.250003
0.264664
0.285631
0.335064
0.383041
0.449669
0.528789
0.613409
0.678756
0.704764
0.707774
0.709321
0.713726
0.731237
0.769944
0.846374
0.935151
0.987648
0.999226
0.999984
1
1
1
1
1
1
0.248766
0.249177
0.249914
0.250246
0.250451
0.25066
0.250619
0.249703
0.24901
0.24881
0.249898
0.250055
0.24928
0.246881
0.249212
0.264935
0.288713
0.337824
0.385931
0.453074
0.532915
0.61731
0.680922
0.705212
0.707759
0.709229
0.714218
0.731982
0.77171
0.848907
0.937355
0.988405
0.999297
0.999986
1
1
1
1
1
1
0.248812
0.249202
0.249836
0.250187
0.25039
0.250634
0.250523
0.249635
0.248921
0.24873
0.24985
0.250053
0.249243
0.246547
0.248973
0.266177
0.29101
0.339823
0.388917
0.456758
0.537277
0.621347
0.683084
0.705643
0.70781
0.70925
0.71484
0.732724
0.773574
0.851517
0.939648
0.989166
0.999365
0.999988
1
1
1
1
1
1
0.248888
0.249225
0.249785
0.250098
0.250292
0.250594
0.250433
0.249611
0.248864
0.24867
0.249794
0.250113
0.249338
0.246515
0.248965
0.269116
0.293466
0.341333
0.392065
0.460737
0.541845
0.625537
0.685263
0.706071
0.707876
0.709563
0.715584
0.733241
0.775477
0.854331
0.942032
0.98991
0.99943
0.999989
1
1
1
1
1
1
0.248991
0.249241
0.249742
0.249973
0.250155
0.250528
0.250348
0.249612
0.248839
0.248626
0.249735
0.250252
0.249592
0.246507
0.249051
0.271725
0.296309
0.342701
0.395443
0.464929
0.546658
0.629927
0.687429
0.706493
0.707896
0.70991
0.716258
0.733496
0.777523
0.857435
0.944488
0.990647
0.999491
0.999991
1
1
1
1
1
1
0.249111
0.249262
0.24969
0.249836
0.250029
0.250436
0.250264
0.249622
0.248833
0.248594
0.249658
0.250401
0.249818
0.246464
0.249163
0.273528
0.298938
0.344317
0.399101
0.469372
0.551835
0.634485
0.689548
0.706897
0.707913
0.710109
0.716773
0.733862
0.779824
0.860749
0.947005
0.991381
0.99955
0.999992
1
1
1
1
1
1
0.249244
0.249334
0.249615
0.249709
0.249943
0.25036
0.250193
0.249629
0.248834
0.248583
0.249539
0.250542
0.250039
0.246457
0.249211
0.27441
0.301105
0.346655
0.403085
0.474202
0.55739
0.639139
0.691598
0.707287
0.708095
0.710233
0.717099
0.734337
0.782394
0.864195
0.949585
0.992104
0.999604
0.999993
1
1
1
1
1
1
0.249402
0.249425
0.249523
0.249597
0.24989
0.250317
0.25016
0.249634
0.248845
0.248676
0.249524
0.250632
0.250286
0.24681
0.249671
0.274403
0.303086
0.349632
0.407393
0.479446
0.563221
0.643884
0.693573
0.707666
0.70834
0.710345
0.717229
0.734219
0.785173
0.867812
0.952226
0.992808
0.999655
0.999994
1
1
1
1
1
1
0.249568
0.249502
0.249427
0.249496
0.249858
0.250287
0.250156
0.249661
0.249012
0.248899
0.249681
0.250663
0.250471
0.24749
0.249976
0.273461
0.305261
0.352758
0.411992
0.48503
0.569313
0.648727
0.695449
0.707999
0.708427
0.710502
0.717257
0.734163
0.788235
0.871644
0.954915
0.993491
0.999702
0.999995
1
1
1
1
1
1
0.249715
0.249549
0.249316
0.249387
0.249833
0.250246
0.25017
0.249905
0.249426
0.249165
0.249685
0.250594
0.250548
0.247568
0.249797
0.273491
0.307995
0.356043
0.41692
0.490919
0.57571
0.653638
0.697205
0.70825
0.70846
0.710868
0.717439
0.735905
0.791665
0.875705
0.957644
0.994153
0.999745
0.999996
1
1
1
1
1
1
0.24987
0.249561
0.249186
0.249251
0.249772
0.250194
0.250314
0.250276
0.249846
0.249409
0.249574
0.250341
0.250575
0.247545
0.249973
0.276276
0.311689
0.359659
0.422239
0.497142
0.582477
0.658573
0.698826
0.708461
0.708476
0.711511
0.718793
0.73953
0.795278
0.879973
0.960407
0.994789
0.999784
0.999997
1
1
1
1
1
1
0.250005
0.249563
0.249095
0.249113
0.249639
0.250145
0.250483
0.250507
0.250317
0.249632
0.249484
0.249969
0.250714
0.248609
0.251793
0.281242
0.315715
0.363784
0.427934
0.503846
0.589704
0.663468
0.70033
0.70873
0.708561
0.712164
0.720688
0.74242
0.798797
0.884454
0.963202
0.995396
0.999819
0.999997
1
1
1
1
1
1
0.250094
0.249545
0.249073
0.249027
0.249536
0.250071
0.250533
0.250657
0.250771
0.249844
0.249452
0.249125
0.250943
0.250371
0.25459
0.285321
0.318947
0.368606
0.434004
0.511169
0.597244
0.668257
0.701763
0.709038
0.708785
0.712552
0.721301
0.744779
0.802378
0.889144
0.966011
0.995971
0.99985
0.999998
1
1
1
1
1
1
0.250145
0.249529
0.249071
0.248996
0.249468
0.249967
0.250542
0.250796
0.251029
0.250016
0.249331
0.247969
0.250922
0.250992
0.25616
0.288104
0.321382
0.373985
0.440406
0.519055
0.604973
0.672971
0.703125
0.709234
0.708909
0.712579
0.720673
0.747136
0.806251
0.894018
0.968823
0.996511
0.999877
0.999998
1
1
1
1
1
1
0.250166
0.24951
0.249088
0.249
0.249442
0.24984
0.250481
0.250868
0.251169
0.250086
0.248596
0.246964
0.250231
0.251062
0.257604
0.291268
0.323877
0.379843
0.447223
0.527465
0.612961
0.677607
0.704354
0.709295
0.708989
0.712576
0.719175
0.749517
0.810477
0.899107
0.971624
0.997013
0.999901
0.999999
1
1
1
1
1
1
0.25012
0.249519
0.24915
0.249111
0.249466
0.249743
0.250365
0.250898
0.251222
0.250145
0.248071
0.2462
0.249539
0.250956
0.259187
0.295469
0.328092
0.386428
0.454613
0.536431
0.621285
0.682077
0.705404
0.709297
0.709011
0.71312
0.718883
0.752104
0.815052
0.904428
0.974395
0.997474
0.999921
0.999999
1
1
1
1
1
1
0.250027
0.249593
0.249257
0.249262
0.249491
0.249724
0.250323
0.250912
0.251236
0.250277
0.247831
0.245799
0.249263
0.2513
0.260938
0.299261
0.334333
0.393678
0.462706
0.546038
0.629845
0.686285
0.706265
0.709221
0.708892
0.713667
0.719601
0.755296
0.820067
0.909956
0.977113
0.997893
0.999938
0.999999
1
1
1
1
1
1
0.249963
0.249703
0.249378
0.249458
0.249548
0.249727
0.250314
0.25093
0.251224
0.250488
0.247696
0.245583
0.249152
0.252846
0.263256
0.302301
0.340748
0.401263
0.471598
0.556287
0.638477
0.6902
0.706933
0.709144
0.708733
0.713588
0.721819
0.759062
0.825662
0.915692
0.979759
0.998268
0.999952
0.999999
1
1
1
1
1
1
0.249909
0.249816
0.249566
0.249705
0.249624
0.249682
0.250301
0.250937
0.251072
0.250514
0.247531
0.245415
0.248642
0.25505
0.266201
0.304894
0.347274
0.409211
0.481273
0.567104
0.647138
0.693782
0.707431
0.709149
0.70871
0.712549
0.724793
0.762887
0.831869
0.921638
0.982306
0.998599
0.999964
1
1
1
1
1
1
1
0.249676
0.249914
0.249894
0.249964
0.249714
0.249627
0.250174
0.250846
0.250847
0.250338
0.247246
0.245306
0.247629
0.257181
0.269811
0.307497
0.354416
0.417593
0.491792
0.578574
0.655782
0.696973
0.707802
0.709288
0.708763
0.711907
0.727509
0.76647
0.838574
0.927768
0.984732
0.998886
0.999973
1
1
1
1
1
1
1
0.249503
0.249961
0.250156
0.250196
0.249845
0.249614
0.249871
0.250617
0.250712
0.25022
0.246858
0.245089
0.246935
0.259459
0.274127
0.310949
0.362497
0.426627
0.503235
0.590704
0.664209
0.699708
0.70805
0.709656
0.709218
0.712025
0.729683
0.77004
0.845744
0.934013
0.987009
0.999131
0.999981
1
1
1
1
1
1
1
0.249374
0.249997
0.250349
0.250382
0.249963
0.249656
0.249654
0.250326
0.25062
0.250173
0.246602
0.244614
0.246843
0.262647
0.278672
0.316535
0.371479
0.436488
0.51582
0.603379
0.67218
0.70199
0.708185
0.709991
0.709696
0.712973
0.732225
0.774351
0.853383
0.940314
0.989126
0.999336
0.999986
1
1
1
1
1
1
1
0.249267
0.25
0.250463
0.250474
0.250045
0.249684
0.249476
0.249927
0.250524
0.250166
0.246695
0.244491
0.247608
0.266512
0.28254
0.32428
0.38105
0.447574
0.529548
0.616426
0.679596
0.703829
0.708246
0.710102
0.709728
0.714386
0.736231
0.780179
0.861436
0.946623
0.991062
0.999504
0.99999
1
1
1
1
1
1
1
0.249244
0.249939
0.250515
0.250425
0.25002
0.24971
0.249275
0.249399
0.250325
0.250091
0.247413
0.244691
0.248543
0.269031
0.285729
0.333088
0.391009
0.460207
0.544398
0.629718
0.686261
0.705281
0.708265
0.710066
0.709503
0.716198
0.740264
0.787137
0.869855
0.952892
0.9928
0.999639
0.999993
1
1
1
1
1
1
1
0.249282
0.249815
0.250496
0.250294
0.24996
0.24976
0.249059
0.248881
0.249762
0.249888
0.248281
0.244781
0.248904
0.27058
0.290103
0.343214
0.401714
0.474471
0.560336
0.642913
0.692031
0.706409
0.708233
0.709963
0.709459
0.718204
0.742457
0.794385
0.878714
0.959041
0.99433
0.999744
0.999996
1
1
1
1
1
1
1
0.249434
0.249731
0.250205
0.250152
0.249976
0.249914
0.249026
0.248624
0.249085
0.249884
0.249286
0.245195
0.248978
0.272118
0.298325
0.354419
0.413734
0.490293
0.577252
0.655759
0.69688
0.707247
0.70811
0.70993
0.710007
0.720429
0.74315
0.801943
0.88815
0.965028
0.995651
0.999824
0.999997
1
1
1
1
1
1
1
0.249587
0.249737
0.249923
0.24998
0.250053
0.250137
0.249518
0.248634
0.248689
0.249907
0.250431
0.247178
0.249657
0.274486
0.308708
0.36543
0.427618
0.507744
0.59498
0.667776
0.700742
0.707843
0.707975
0.710004
0.711124
0.723179
0.745434
0.810536
0.898231
0.970756
0.996759
0.999883
0.999998
1
1
1
1
1
1
1
0.250001
0.24978
0.249667
0.249799
0.250106
0.25027
0.250192
0.249034
0.248503
0.248807
0.250966
0.249308
0.251805
0.278946
0.319887
0.376182
0.443372
0.526705
0.613419
0.678642
0.703638
0.708243
0.707897
0.710139