/*--------------------------------*- C++ -*----------------------------------*\
  =========                 |
  \\      /  F ield         | OpenFOAM: The Open Source CFD Toolbox
   \\    /   O peration     | Website:  https://openfoam.org
    \\  /    A nd           | Version:  7
     \\/     M anipulation  |
\*---------------------------------------------------------------------------*/
FoamFile
{
    version     2.0;
    format      ascii;
    class       volVectorField;
    location    "6.8";
    object      U;
}
// * * * * * * * * * * * * * * * * * * * * * * * * * * * * * * * * * * * * * //

dimensions      [0 1 -1 0 0 0 0];

internalField   nonuniform List<vector> 
1750
(
(2.27268 0.195215 0)
(2.39313 0.532623 0)
(2.40234 0.782933 0)
(2.52124 0.670799 0)
(2.62339 0.51427 0)
(2.69588 0.369863 0)
(2.73013 0.236533 0)
(2.72213 0.1314 0)
(2.70711 0.117318 0)
(2.68942 0.116054 0)
(2.31256 -1.696 0)
(2.40378 -1.28322 0)
(2.36113 -0.384589 0)
(2.26806 0.219822 0)
(2.25325 0.270263 0)
(2.35303 0.14917 0)
(2.41397 0.233531 0)
(2.48219 0.19945 0)
(2.50856 0.137731 0)
(2.55371 0.0820729 0)
(2.64915 -2.00555 0)
(2.76004 -1.98738 0)
(2.82512 -1.8821 0)
(2.5457 -0.939055 0)
(2.43281 -0.510433 0)
(2.36997 -0.155437 0)
(2.37252 -5.1975e-05 0)
(2.42785 0.071398 0)
(2.4604 0.07432 0)
(2.5556 0.0565281 0)
(2.97463 -1.69833 0)
(2.9937 -1.74196 0)
(3.04404 -1.64036 0)
(3.15197 -1.73188 0)
(3.11311 -1.61922 0)
(2.94227 -1.25698 0)
(2.80898 -0.852795 0)
(2.676 -0.365746 0)
(2.71677 -0.203731 0)
(2.65595 0.0186907 0)
(3.09101 -1.49571 0)
(3.13767 -1.41717 0)
(3.09085 -1.52354 0)
(3.07887 -1.48374 0)
(3.07132 -1.31378 0)
(3.14227 -1.26648 0)
(3.15468 -1.28801 0)
(3.121 -1.20538 0)
(3.03871 -0.941441 0)
(2.92 -0.478548 0)
(3.13865 -1.27788 0)
(3.16288 -1.18497 0)
(3.17607 -1.09013 0)
(3.18013 -1.06585 0)
(3.1491 -1.09033 0)
(3.13639 -1.06987 0)
(3.13145 -1.0926 0)
(3.14132 -1.03973 0)
(3.14389 -1.09462 0)
(3.11583 -0.999946 0)
(3.1534 -0.86133 0)
(3.1467 -0.862699 0)
(3.15023 -0.865882 0)
(3.15033 -0.866588 0)
(3.1444 -0.863259 0)
(3.13712 -0.862434 0)
(3.13498 -0.857439 0)
(3.13309 -0.859043 0)
(3.13248 -0.850628 0)
(3.13882 -0.832971 0)
(3.1183 -0.501032 0)
(3.11474 -0.507934 0)
(3.11748 -0.537186 0)
(3.12001 -0.558444 0)
(3.12233 -0.583661 0)
(3.12111 -0.61204 0)
(3.12029 -0.618996 0)
(3.12441 -0.629042 0)
(3.1215 -0.628651 0)
(3.12578 -0.674815 0)
(3.0415 -0.142464 0)
(3.04664 -0.175484 0)
(3.05343 -0.209055 0)
(3.06471 -0.257106 0)
(3.07413 -0.303256 0)
(3.07619 -0.31967 0)
(3.08801 -0.385051 0)
(3.09382 -0.418115 0)
(3.099 -0.439702 0)
(3.10678 -0.487707 0)
(2.97728 0.0596936 0)
(2.9844 0.0421667 0)
(2.99269 0.0210631 0)
(3.00228 -0.00490602 0)
(3.01309 -0.0397956 0)
(3.02402 -0.0798752 0)
(3.03455 -0.117647 0)
(3.04524 -0.159658 0)
(3.05751 -0.209643 0)
(3.07201 -0.268474 0)
(2.96754 0.084441 0)
(2.96815 0.0826658 0)
(2.96975 0.082034 0)
(2.97241 0.0790366 0)
(2.97545 0.0727142 0)
(2.97957 0.0630927 0)
(2.98653 0.0470922 0)
(2.99565 0.0245254 0)
(3.00552 -0.00308335 0)
(3.02343 -0.0612459 0)
(2.97851 0.0575418 0)
(2.97556 0.0651834 0)
(2.97534 0.0673154 0)
(2.97422 0.0712875 0)
(2.97412 0.0717122 0)
(2.97438 0.0716831 0)
(2.97506 0.0709587 0)
(2.97633 0.0692659 0)
(2.97838 0.0664512 0)
(2.98565 0.051281 0)
(2.99497 0.0128001 0)
(2.99243 0.0182176 0)
(2.99013 0.0239389 0)
(2.98728 0.0311285 0)
(2.9846 0.0380548 0)
(2.98177 0.0458315 0)
(2.97987 0.0518339 0)
(2.97848 0.0566285 0)
(2.97803 0.0605016 0)
(2.97859 0.0602118 0)
(2.99972 0.000628108 0)
(2.99945 0.00110749 0)
(2.99903 0.00197748 0)
(2.99836 0.00334997 0)
(2.99724 0.00570998 0)
(2.99563 0.00916117 0)
(2.9935 0.0140591 0)
(2.99098 0.0202214 0)
(2.9882 0.0273137 0)
(2.98476 0.0385808 0)
(2.99999 8.02116e-06 0)
(2.99999 1.56336e-05 0)
(2.99998 3.3793e-05 0)
(2.99995 6.91427e-05 0)
(2.99988 0.000155981 0)
(2.99975 0.0003245 0)
(2.99945 0.000715169 0)
(2.99888 0.00139212 0)
(2.99792 0.00263351 0)
(2.99467 0.00640698 0)
(2.08052 -1.52072 0)
(2.22159 -1.5417 0)
(2.51048 -1.87678 0)
(2.83742 -1.86362 0)
(3.05681 -1.55497 0)
(3.13985 -1.29165 0)
(3.16245 -0.851823 0)
(3.11708 -0.42441 0)
(3.02255 -0.0787261 0)
(2.97085 0.0723833 0)
(2.96603 0.0882225 0)
(2.98182 0.050911 0)
(2.99638 0.00993082 0)
(2.99983 0.000425478 0)
(3 5.16178e-06 0)
(2.00104 -1.46032 0)
(2.26347 -1.63054 0)
(2.57211 -1.9582 0)
(2.89619 -1.66897 0)
(3.05669 -1.55194 0)
(3.16363 -1.10263 0)
(3.15993 -0.65946 0)
(3.08218 -0.281891 0)
(2.99701 -0.00915586 0)
(2.96386 0.090579 0)
(2.96641 0.0898034 0)
(2.98362 0.0456378 0)
(2.99785 0.00538615 0)
(2.99993 0.000156099 0)
(3 1.82434e-06 0)
(1.89912 -1.44847 0)
(2.25817 -1.6885 0)
(2.6113 -1.9387 0)
(2.91132 -1.598 0)
(3.03918 -1.53295 0)
(3.14357 -0.796477 0)
(3.13722 -0.543651 0)
(3.05899 -0.219426 0)
(2.98317 0.0332244 0)
(2.96265 0.0947429 0)
(2.96719 0.0807942 0)
(2.98888 0.0288245 0)
(2.99891 0.00261611 0)
(2.99997 6.45039e-05 0)
(3 7.24328e-07 0)
(1.74737 -1.48768 0)
(2.30509 -1.78432 0)
(2.62794 -1.92715 0)
(2.90707 -1.63081 0)
(3.12203 -1.18782 0)
(3.16651 -0.862272 0)
(3.11499 -0.523018 0)
(3.03754 -0.137304 0)
(2.97257 0.0732228 0)
(2.9626 0.0959084 0)
(2.97774 0.0625299 0)
(2.99407 0.0171444 0)
(2.99956 0.0011578 0)
(2.99999 2.40956e-05 0)
(3 2.61522e-07 0)
(1.51899 -1.44549 0)
(2.34328 -1.81788 0)
(2.60755 -1.91615 0)
(2.88087 -1.61514 0)
(3.11807 -0.942875 0)
(3.13626 -0.860409 0)
(3.09634 -0.332729 0)
(3.00424 -0.00128018 0)
(2.96273 0.101925 0)
(2.9625 0.0961315 0)
(2.97809 0.0609932 0)
(2.99576 0.0126002 0)
(2.9998 0.000529706 0)
(3 9.34415e-06 0)
(3 9.3345e-08 0)
(1.4126 -1.32442 0)
(2.31468 -1.83776 0)
(2.62737 -1.83596 0)
(2.94143 -1.36588 0)
(3.13455 -1.11771 0)
(3.15316 -0.54455 0)
(3.06183 -0.15162 0)
(2.98485 0.0510627 0)
(2.9591 0.10971 0)
(2.96301 0.0979294 0)
(2.98234 0.0513843 0)
(2.99798 0.00567657 0)
(2.99992 0.000198968 0)
(3 3.28813e-06 0)
(3 3.18252e-08 0)
(1.46324 -1.32104 0)
(2.235 -1.74521 0)
(2.65308 -1.70922 0)
(2.99463 -1.17298 0)
(3.14698 -0.942574 0)
(3.10809 -0.319173 0)
(3.03304 -0.0704333 0)
(2.96744 0.0922522 0)
(2.9573 0.112842 0)
(2.96509 0.0924808 0)
(2.99106 0.0250528 0)
(2.99915 0.00238421 0)
(2.99997 6.64531e-05 0)
(3 1.04313e-06 0)
(3 9.96679e-09 0)
(1.39879 -1.32753 0)
(2.16515 -1.73166 0)
(2.67403 -1.58603 0)
(3.07112 -0.961511 0)
(3.14143 -0.507111 0)
(3.09233 -0.282396 0)
(3.0014 0.0104113 0)
(2.95829 0.112696 0)
(2.95705 0.11252 0)
(2.97052 0.0751888 0)
(2.99386 0.0162795 0)
(2.99964 0.000980755 0)
(2.99999 2.122e-05 0)
(3 3.15652e-07 0)
(3 2.9188e-09 0)
(1.4338 -1.14822 0)
(1.94016 -1.68837 0)
(2.78477 -1.10891 0)
(3.08229 -0.909398 0)
(3.13023 -0.407739 0)
(3.04725 -0.100387 0)
(2.97154 0.089946 0)
(2.95453 0.120288 0)
(2.95948 0.102169 0)
(2.9849 0.040279 0)
(2.99747 0.00711929 0)
(2.99989 0.000280018 0)
(3 5.83222e-06 0)
(3 8.57029e-08 0)
(3 7.92094e-10 0)
(1.09397 -0.809602 0)
(2.09825 -1.30632 0)
(2.89398 -0.939394 0)
(3.10118 -0.60391 0)
(3.10384 -0.300512 0)
(2.99989 0.0327945 0)
(2.95713 0.119606 0)
(2.95356 0.121713 0)
(2.96487 0.0908572 0)
(2.9887 0.0306784 0)
(2.99916 0.00232992 0)
(2.99997 7.65802e-05 0)
(3 1.41879e-06 0)
(3 2.04557e-08 0)
(3 1.90357e-10 0)
(0.5209 0.0441599 0)
(2.29072 -0.333835 0)
(2.96537 -0.918393 0)
(3.11513 -0.293363 0)
(3.04682 -0.035879 0)
(2.97237 0.0988565 0)
(2.95084 0.130043 0)
(2.95296 0.118981 0)
(2.97394 0.0674119 0)
(2.99536 0.0126676 0)
(2.99972 0.000776896 0)
(2.99999 1.93591e-05 0)
(3 3.29346e-07 0)
(3 4.54782e-09 0)
(3 4.11133e-11 0)
(0.46029 0.486277 0)
(2.5305 -0.639716 0)
(3.09649 -0.424676 0)
(3.10368 -0.156714 0)
(3.00158 0.055878 0)
(2.95223 0.137219 0)
(2.94869 0.133688 0)
(2.95767 0.107336 0)
(2.98697 0.0339459 0)
(2.99866 0.00395917 0)
(2.99994 0.000172062 0)
(3 3.85652e-06 0)
(3 6.42354e-08 0)
(3 8.71953e-10 0)
(3 7.79217e-12 0)
(1.17099 0.491981 0)
(2.87055 -0.379623 0)
(3.14634 -0.182272 0)
(3.03739 0.0447652 0)
(2.9646 0.116281 0)
(2.94595 0.146027 0)
(2.94734 0.137456 0)
(2.97043 0.0727117 0)
(2.99307 0.0178265 0)
(2.99952 0.00129667 0)
(2.99999 3.82615e-05 0)
(3 7.44366e-07 0)
(3 1.13303e-08 0)
(3 1.44865e-10 0)
(3 1.22169e-12 0)
(2.01561 0.22425 0)
(3.14715 -0.0304644 0)
(3.0959 -0.0131994 0)
(2.97721 0.130739 0)
(2.94475 0.142456 0)
(2.94472 0.147359 0)
(2.95788 0.107596 0)
(2.98616 0.0342572 0)
(2.99846 0.00395465 0)
(2.99992 0.000206375 0)
(3 5.67795e-06 0)
(3 1.08563e-07 0)
(3 1.63988e-09 0)
(3 2.04336e-11 0)
(3 1.68415e-13 0)
(2.68999 0.179877 0)
(3.11257 0.0285872 0)
(2.98826 0.122118 0)
(2.94888 0.160612 0)
(2.94257 0.143118 0)
(2.95015 0.130545 0)
(2.97869 0.0534867 0)
(2.99542 0.0115845 0)
(2.99966 0.000824996 0)
(2.99999 2.56067e-05 0)
(3 5.7265e-07 0)
(3 9.82065e-09 0)
(3 1.35606e-10 0)
(3 1.55622e-12 0)
(3 1.47463e-14 0)
(2.9294 0.15033 0)
(2.93791 0.15194 0)
(2.94147 0.160241 0)
(2.94195 0.164159 0)
(2.96362 0.13246 0)
(2.9706 0.0824726 0)
(2.9903 0.0233324 0)
(2.99956 0.000846146 0)
(2.99999 1.53332e-05 0)
(3 7.01453e-07 0)
(3 -7.17199e-10 0)
(3 7.59352e-11 0)
(3 -1.14993e-12 0)
(3 -1.0561e-13 0)
(3 -2.16399e-16 0)
(2.92613 0.151017 0)
(2.93395 0.150475 0)
(2.94143 0.15627 0)
(2.94275 0.169423 0)
(2.95315 0.135033 0)
(2.96626 0.0854558 0)
(2.99248 0.0206997 0)
(2.99918 0.00186723 0)
(2.99996 6.85798e-05 0)
(3 1.41283e-06 0)
(3 2.17041e-08 0)
(3 2.74647e-10 0)
(3 2.97195e-12 0)
(3 2.28573e-14 0)
(3 -6.76932e-16 0)
(2.9243 0.153088 0)
(2.93407 0.154256 0)
(2.94515 0.156927 0)
(2.94318 0.169886 0)
(2.96209 0.109293 0)
(2.97816 0.0522603 0)
(2.99697 0.00581358 0)
(2.99987 0.000250556 0)
(3 4.09531e-06 0)
(3 4.82011e-08 0)
(3 4.59609e-10 0)
(3 3.75863e-12 0)
(3 2.85504e-14 0)
(3 -2.47312e-15 0)
(3 -9.97722e-16 0)
(2.92359 0.154426 0)
(2.93302 0.156822 0)
(2.94691 0.154431 0)
(2.94909 0.156246 0)
(2.96263 0.10254 0)
(2.98865 0.0254818 0)
(2.99864 0.0028562 0)
(2.99996 7.30507e-05 0)
(3 1.20626e-06 0)
(3 1.35346e-08 0)
(3 1.27591e-10 0)
(3 1.02063e-12 0)
(3 7.71028e-15 0)
(3 -1.73345e-15 0)
(3 4.73485e-16 0)
(2.92327 0.156205 0)
(2.93148 0.162433 0)
(2.94724 0.152111 0)
(2.95902 0.138029 0)
(2.97473 0.069809 0)
(2.99325 0.0151892 0)
(2.99961 0.000742239 0)
(2.99999 1.89453e-05 0)
(3 2.49827e-07 0)
(3 2.6877e-09 0)
(3 2.42135e-11 0)
(3 1.86081e-13 0)
(3 2.20448e-15 0)
(3 -1.41336e-15 0)
(3 1.18741e-15 0)
(2.92388 0.158511 0)
(2.92544 0.168389 0)
(2.94756 0.149235 0)
(2.95803 0.136814 0)
(2.98197 0.0462012 0)
(2.99727 0.00552594 0)
(2.99987 0.000251279 0)
(3 4.44257e-06 0)
(3 5.69503e-08 0)
(3 5.88651e-10 0)
(3 5.13879e-12 0)
(3 3.96434e-14 0)
(3 2.0313e-15 0)
(3 -1.50009e-16 0)
(3 1.87245e-15 0)
(2.92425 0.15874 0)
(2.92168 0.177013 0)
(2.95566 0.136733 0)
(2.97284 0.0938051 0)
(2.99133 0.021177 0)
(2.99901 0.00205109 0)
(2.99997 5.63143e-05 0)
(3 9.52744e-07 0)
(3 1.15192e-08 0)
(3 1.14637e-10 0)
(3 9.66914e-13 0)
(3 8.45436e-15 0)
(3 1.84476e-15 0)
(3 1.78143e-15 0)
(3 2.42714e-15 0)
(2.92075 0.153933 0)
(2.92414 0.189644 0)
(2.9751 0.10749 0)
(2.98156 0.0625451 0)
(2.99524 0.0111816 0)
(2.99971 0.000533822 0)
(2.99999 1.40631e-05 0)
(3 1.97942e-07 0)
(3 2.3087e-09 0)
(3 2.15055e-11 0)
(3 1.76253e-13 0)
(3 3.00127e-16 0)
(3 2.27453e-15 0)
(3 2.96929e-15 0)
(3 2.62235e-15 0)
(2.92609 0.136602 0)
(2.93114 0.196582 0)
(2.97219 0.0955669 0)
(2.98672 0.0353028 0)
(2.99839 0.00337495 0)
(2.99992 0.000155025 0)
(3 2.72854e-06 0)
(3 3.95131e-08 0)
(3 3.99903e-10 0)
(3 3.77844e-12 0)
(3 2.72755e-14 0)
(3 -3.84742e-15 0)
(3 2.27344e-15 0)
(3 3.58759e-15 0)
(3 2.43138e-15 0)
(2.93495 0.117485 0)
(2.94072 0.169852 0)
(2.98024 0.0612412 0)
(2.99384 0.0152274 0)
(2.99943 0.0011635 0)
(2.99998 3.17056e-05 0)
(3 5.79465e-07 0)
(3 6.46598e-09 0)
(3 7.21008e-11 0)
(3 5.71621e-13 0)
(3 1.95893e-15 0)
(3 -4.80066e-15 0)
(3 1.12167e-15 0)
(3 3.84182e-15 0)
(3 2.00595e-15 0)
(2.93159 0.088019 0)
(2.95003 0.138468 0)
(2.9879 0.0361136 0)
(2.99768 0.00564738 0)
(2.99986 0.000270814 0)
(3 6.23285e-06 0)
(3 8.52132e-08 0)
(3 1.10409e-09 0)
(3 9.26821e-12 0)
(3 8.08178e-14 0)
(3 -1.38136e-15 0)
(3 -5.0052e-15 0)
(3 7.48994e-16 0)
(3 3.68909e-15 0)
(3 1.58714e-15 0)
(2.94471 0.0649635 0)
(2.96385 0.0976983 0)
(2.99293 0.0191383 0)
(2.9992 0.00179998 0)
(2.99997 5.57999e-05 0)
(3 1.00222e-06 0)
(3 1.36307e-08 0)
(3 1.24252e-10 0)
(3 1.25983e-12 0)
(3 9.28669e-15 0)
(3 -1.8801e-15 0)
(3 -5.06612e-15 0)
(3 2.50155e-16 0)
(3 3.52621e-15 0)
(3 1.62064e-15 0)
(2.95291 0.0453356 0)
(2.9755 0.0592263 0)
(2.99713 0.00683098 0)
(2.99982 0.000377577 0)
(3 9.07221e-06 0)
(3 1.30882e-07 0)
(3 1.40403e-09 0)
(3 1.54106e-11 0)
(3 1.08172e-13 0)
(3 2.63579e-15 0)
(3 -1.13677e-15 0)
(3 -5.04929e-15 0)
(3 1.14006e-17 0)
(3 3.53448e-15 0)
(3 1.69621e-15 0)
(2.96922 0.0160352 0)
(2.989 0.0247153 0)
(2.99918 0.00181143 0)
(2.99997 5.72366e-05 0)
(3 9.45347e-07 0)
(3 1.20762e-08 0)
(3 1.34287e-10 0)
(3 1.00577e-12 0)
(3 9.68391e-15 0)
(3 1.95778e-15 0)
(3 -8.60769e-16 0)
(3 -4.5992e-15 0)
(3 -4.73208e-16 0)
(3 2.4567e-15 0)
(3 1.34599e-15 0)
(2.98452 0.00535764 0)
(2.99656 0.00668633 0)
(2.99988 0.00023156 0)
(3 4.58683e-06 0)
(3 6.07839e-08 0)
(3 6.57849e-10 0)
(3 5.51687e-12 0)
(3 5.01255e-14 0)
(3 1.68537e-15 0)
(3 2.00314e-15 0)
(3 -1.74557e-15 0)
(3 -4.29929e-15 0)
(3 -7.36071e-16 0)
(3 1.90151e-15 0)
(3 9.88142e-16 0)
(3 6.60576e-15 0)
(3 4.28392e-15 0)
(3 2.65104e-15 0)
(3 -5.61318e-16 0)
(3 -8.3097e-16 0)
(3 -2.58436e-15 0)
(3 -1.80458e-15 0)
(3 2.56188e-16 0)
(3 2.49967e-15 0)
(3 2.44328e-15 0)
(3 -2.41093e-15 0)
(3 -3.98778e-15 0)
(3 -6.31722e-16 0)
(3 1.45476e-15 0)
(3 7.90919e-16 0)
(3 5.92097e-15 0)
(3 7.12378e-15 0)
(3 4.91851e-15 0)
(3 -2.90155e-16 0)
(3 -2.47031e-15 0)
(3 -3.56216e-15 0)
(3 -2.66714e-15 0)
(3 5.65958e-16 0)
(3 3.4897e-15 0)
(3 2.58674e-15 0)
(3 -2.68136e-15 0)
(3 -3.37211e-15 0)
(3 -1.03259e-16 0)
(3 1.01962e-15 0)
(3 6.17097e-16 0)
(3 3.15613e-15 0)
(3 5.42748e-15 0)
(3 6.2226e-15 0)
(3 1.91519e-15 0)
(3 -2.58122e-15 0)
(3 -3.89599e-15 0)
(3 -2.87107e-15 0)
(3 1.98398e-16 0)
(3 3.73253e-15 0)
(3 2.28059e-15 0)
(3 -2.44424e-15 0)
(3 -2.16919e-15 0)
(3 2.8191e-16 0)
(3 7.37948e-16 0)
(3 6.059e-16 0)
(3 2.27842e-15 0)
(3 4.17866e-15 0)
(3 6.42411e-15 0)
(3 3.48595e-15 0)
(3 -2.47936e-15 0)
(3 -3.36472e-15 0)
(3 -1.44919e-15 0)
(3 6.11129e-16 0)
(3 2.14118e-15 0)
(3 1.0788e-15 0)
(3 -9.59607e-16 0)
(3 -1.80995e-15 0)
(3 2.33347e-16 0)
(3 1.15808e-15 0)
(3 7.19327e-16 0)
(3 2.14621e-15 0)
(3 3.50487e-15 0)
(3 6.21685e-15 0)
(3 2.64318e-15 0)
(3 -1.96013e-15 0)
(3 -2.89094e-15 0)
(3 2.23804e-16 0)
(3 1.25089e-15 0)
(3 9.17839e-16 0)
(3 5.27186e-16 0)
(3 -6.62549e-16 0)
(3 -1.74276e-15 0)
(3 2.1623e-16 0)
(3 1.97771e-15 0)
(3 1.06747e-15 0)
(3 2.0515e-15 0)
(3 3.298e-15 0)
(3 3.5729e-15 0)
(3 1.7343e-15 0)
(3 -9.43955e-16 0)
(3 -1.88148e-15 0)
(3 7.63937e-16 0)
(3 1.12194e-15 0)
(3 2.39815e-16 0)
(3 2.04171e-16 0)
(3 -9.61295e-16 0)
(3 -1.94365e-15 0)
(3 6.29295e-16 0)
(3 2.27248e-15 0)
(3 1.16527e-15 0)
(3 6.5592e-16 0)
(3 4.17822e-15 0)
(3 3.36898e-15 0)
(3 1.41153e-15 0)
(3 -8.68608e-16 0)
(3 -7.54057e-16 0)
(3 1.43482e-15 0)
(3 7.04051e-16 0)
(3 -4.63522e-16 0)
(3 5.0175e-17 0)
(3 -1.31316e-15 0)
(3 -1.51612e-15 0)
(3 2.35351e-16 0)
(3 2.00353e-15 0)
(3 1.57652e-15 0)
(3 5.07114e-16 0)
(3 4.87926e-15 0)
(3 3.07839e-15 0)
(3 1.07433e-15 0)
(3 -1.37835e-15 0)
(3 3.66459e-16 0)
(3 5.12443e-16 0)
(3 -1.77286e-15 0)
(3 2.93488e-16 0)
(3 9.51126e-16 0)
(3 -1.54789e-15 0)
(3 -1.42265e-15 0)
(3 5.44682e-17 0)
(3 1.20487e-15 0)
(3 1.45891e-15 0)
(3 1.41914e-16 0)
(3 3.21896e-15 0)
(3 6.37562e-16 0)
(3 -2.59116e-16 0)
(3 -8.62576e-17 0)
(3 1.86146e-15 0)
(3 1.51601e-16 0)
(3 -2.36427e-15 0)
(3 -1.21768e-16 0)
(3 6.68073e-16 0)
(3 -3.74131e-16 0)
(3 -4.09688e-16 0)
(3 -2.03792e-16 0)
(3 3.53898e-16 0)
(3 7.40888e-16 0)
(3 -1.47106e-15 0)
(3 4.13617e-16 0)
(3 9.36988e-17 0)
(3 -5.76889e-16 0)
(3 -4.16798e-16 0)
(3 2.4417e-15 0)
(3 1.24825e-15 0)
(3 -3.09806e-15 0)
(3 -7.28739e-18 0)
(3 5.45981e-16 0)
(3 -8.97696e-16 0)
(3 3.53421e-16 0)
(3 3.25726e-16 0)
(3 6.38574e-18 0)
(3 3.18834e-16 0)
(3 6.12901e-15 0)
(3 4.99083e-15 0)
(3 4.02823e-15 0)
(3 2.6734e-15 0)
(3 1.9115e-15 0)
(3 1.74287e-15 0)
(3 -1.99884e-15 0)
(3 -4.21685e-15 0)
(3 -4.50775e-15 0)
(3 -9.36917e-16 0)
(3 6.56689e-15 0)
(3 5.48126e-15 0)
(3 5.50636e-15 0)
(3 4.03321e-15 0)
(3 1.60623e-15 0)
(3 4.74096e-16 0)
(3 -6.97402e-18 0)
(3 -3.70082e-16 0)
(3 -1.19325e-15 0)
(3 -5.71919e-16 0)
(3 2.48803e-15 0)
(3 4.28059e-15 0)
(3 3.80367e-15 0)
(3 3.43515e-15 0)
(3 2.31406e-15 0)
(3 1.46815e-15 0)
(3 1.48892e-15 0)
(3 1.43578e-15 0)
(3 2.93468e-16 0)
(3 -1.38e-16 0)
(3 1.48908e-15 0)
(3 3.57886e-15 0)
(3 2.39149e-15 0)
(3 2.21315e-15 0)
(3 2.25913e-15 0)
(3 2.70943e-15 0)
(3 3.03743e-15 0)
(3 6.33499e-16 0)
(3 5.61588e-16 0)
(3 1.56893e-15 0)
(3 6.28313e-17 0)
(3 8.37217e-16 0)
(3 2.16815e-15 0)
(3 4.0579e-15 0)
(3 3.69805e-15 0)
(3 2.80884e-15 0)
(3 1.99654e-15 0)
(3 1.82786e-15 0)
(3 2.13414e-15 0)
(3 3.28202e-16 0)
(3 -1.62191e-15 0)
(3 -4.5105e-16 0)
(3 7.0175e-16 0)
(3 1.67346e-15 0)
(3 1.9221e-15 0)
(3 8.5528e-16 0)
(3 -1.09164e-15 0)
(3 4.92443e-16 0)
(3 4.45981e-16 0)
(3 -5.51413e-17 0)
(3 -2.1318e-15 0)
(3 -2.16831e-15 0)
(3 -1.73486e-15 0)
(3 -1.69518e-15 0)
(3 -1.75411e-15 0)
(3 -8.59726e-16 0)
(3 -2.29908e-16 0)
(3 2.3521e-16 0)
(3 -9.39288e-17 0)
(3 4.58501e-16 0)
(3 -2.65139e-15 0)
(3 -2.19856e-15 0)
(3 -1.97885e-15 0)
(3 -1.21521e-15 0)
(3 -6.68384e-16 0)
(3 2.1511e-16 0)
(3 1.39968e-15 0)
(3 2.1922e-15 0)
(3 3.21937e-15 0)
(3 1.86755e-15 0)
(3 -3.69336e-15 0)
(3 -2.72884e-15 0)
(3 -2.49349e-15 0)
(3 -1.83842e-15 0)
(3 -1.50245e-15 0)
(3 -1.4387e-15 0)
(3 -2.16039e-15 0)
(3 -1.75025e-15 0)
(3 4.12707e-16 0)
(3 7.86155e-16 0)
(3 -5.94581e-16 0)
(3 -8.26104e-16 0)
(3 -1.28895e-15 0)
(3 -1.92063e-15 0)
(3 -1.61591e-15 0)
(3 -2.91801e-15 0)
(3 -3.90966e-15 0)
(3 -3.6893e-15 0)
(3 -3.26766e-15 0)
(3 -1.70241e-15 0)
(3 1.21353e-15 0)
(3 7.05918e-16 0)
(3 -2.83431e-16 0)
(3 -1.40056e-15 0)
(3 -1.58146e-15 0)
(3 -1.81598e-15 0)
(3 -1.13576e-15 0)
(3 -7.21541e-16 0)
(3 -1.07252e-15 0)
(3 -7.73713e-16 0)
(3 -1.07459e-15 0)
(3 -1.8284e-15 0)
(3 -2.43324e-15 0)
(3 -3.23758e-15 0)
(3 -3.00087e-15 0)
(3 -2.01036e-15 0)
(3 -1.03168e-15 0)
(3 -9.46539e-16 0)
(3 -7.69593e-16 0)
(3 -1.31518e-18 0)
(3 -2.07048e-15 0)
(3 -2.40248e-15 0)
(3 -3.17472e-15 0)
(3 -3.26717e-15 0)
(3 -1.47991e-15 0)
(3 -5.99231e-16 0)
(3 -1.13146e-15 0)
(3 -1.09233e-15 0)
(3 -3.11998e-17 0)
(3 1.97342e-16 0)
(3 1.54044e-16 0)
(3 2.95333e-16 0)
(3 4.55322e-16 0)
(3 6.12884e-16 0)
(3 6.49998e-16 0)
(3 1.14741e-15 0)
(3 1.74375e-15 0)
(3 1.34227e-15 0)
(3 5.75898e-16 0)
(3 3.81923e-16 0)
(3 2.7469e-15 0)
(3 3.10026e-15 0)
(3 3.61169e-15 0)
(3 3.56836e-15 0)
(3 2.92692e-15 0)
(3 2.97666e-15 0)
(3 2.45715e-15 0)
(3 1.54724e-15 0)
(3 4.34656e-16 0)
(3 -1.01009e-16 0)
(3 3.44518e-15 0)
(3 4.2939e-15 0)
(3 4.85264e-15 0)
(3 5.45276e-15 0)
(3 4.91489e-15 0)
(3 3.49356e-15 0)
(3 3.05457e-15 0)
(3 2.85158e-15 0)
(3 1.64687e-15 0)
(3 -1.33883e-16 0)
(3 6.53542e-16 0)
(3 6.95356e-16 0)
(3 5.90364e-16 0)
(3 4.90972e-16 0)
(3 -1.02455e-16 0)
(3 -7.30519e-16 0)
(3 3.28951e-16 0)
(3 7.93219e-16 0)
(3 -2.58497e-16 0)
(3 -2.30124e-16 0)
(3 -1.94436e-15 0)
(3 -2.19709e-15 0)
(3 -2.08979e-15 0)
(3 -2.1973e-15 0)
(3 -1.9556e-15 0)
(3 -1.40306e-15 0)
(3 -1.45787e-15 0)
(3 -1.13197e-15 0)
(3 -6.49807e-16 0)
(3 -5.45529e-16 0)
(3 -7.63541e-16 0)
(3 -3.01881e-16 0)
(3 -7.76823e-17 0)
(3 -1.81333e-17 0)
(3 -1.77623e-16 0)
(3 -8.3468e-17 0)
(3 -2.20374e-16 0)
(3 -3.72676e-16 0)
(3 -6.57723e-17 0)
(3 -4.17842e-16 0)
(3 4.22096e-16 0)
(3 6.07975e-16 0)
(3 3.59403e-16 0)
(3 1.33824e-16 0)
(3 -3.01652e-17 0)
(3 4.93058e-17 0)
(3 5.93199e-18 0)
(3 -3.70826e-16 0)
(3 -5.06712e-16 0)
(3 3.79056e-16 0)
(2.48024 -0.506365 0)
(2.88737 -0.115784 0)
(3 4.87959e-07 0)
(3 -1.48071e-13 0)
(3 -1.11028e-15 0)
(3 -1.32386e-15 0)
(3 -3.08503e-15 0)
(3 -3.44963e-15 0)
(3 -1.69204e-15 0)
(3 -1.04685e-16 0)
(3 1.43227e-15 0)
(3 -1.89371e-15 0)
(3 -2.3339e-15 0)
(3 2.16093e-16 0)
(3 2.90132e-15 0)
(3 2.88673e-15 0)
(3 5.3556e-16 0)
(3 -1.54641e-15 0)
(3 -8.27215e-16 0)
(3 -1.61033e-17 0)
(1.22732 -0.607994 0)
(1.21595 -0.860218 0)
(2.42906 -0.676778 0)
(3.00049 -0.00979714 0)
(3 2.37908e-08 0)
(3 5.30628e-14 0)
(3 -3.0919e-15 0)
(3 -1.03672e-15 0)
(3 -1.28288e-15 0)
(3 4.88979e-16 0)
(3 2.39457e-15 0)
(3 -2.42025e-15 0)
(3 -1.78151e-15 0)
(3 -4.63486e-16 0)
(3 2.77073e-15 0)
(3 2.17757e-15 0)
(3 1.51559e-15 0)
(3 -1.71327e-15 0)
(3 -1.85377e-15 0)
(3 -4.03903e-16 0)
(1.3081 -0.798406 0)
(1.23867 -0.932475 0)
(1.35604 -0.93736 0)
(1.7439 -0.778253 0)
(2.85907 -0.130557 0)
(3 2.31587e-07 0)
(3 3.71725e-12 0)
(3 4.2226e-16 0)
(3 -8.29577e-16 0)
(3 2.87936e-16 0)
(3 2.29149e-15 0)
(3 -1.86156e-15 0)
(3 -1.97431e-15 0)
(3 -1.17273e-15 0)
(3 2.37025e-15 0)
(3 2.00831e-15 0)
(3 1.6885e-15 0)
(3 -1.08701e-15 0)
(3 -2.86689e-15 0)
(3 -6.916e-16 0)
(1.35774 -0.8977 0)
(1.31271 -0.920808 0)
(1.34032 -0.912859 0)
(1.34006 -0.910548 0)
(1.62943 -0.82953 0)
(2.73169 -0.243289 0)
(3.00034 0.00057058 0)
(3 -4.74108e-07 0)
(3 5.82162e-10 0)
(3 -1.47154e-12 0)
(3 9.35877e-15 0)
(3 -2.06804e-15 0)
(3 -2.03537e-15 0)
(3 -1.53672e-15 0)
(3 2.09851e-15 0)
(3 2.61971e-15 0)
(3 1.47124e-15 0)
(3 -7.68471e-16 0)
(3 -2.84403e-15 0)
(3 -9.04179e-16 0)
(1.36198 -0.920414 0)
(1.34565 -0.916569 0)
(1.36159 -0.907428 0)
(1.36635 -0.915431 0)
(1.37932 -0.918742 0)
(1.6021 -0.844147 0)
(2.66697 -0.261158 0)
(3.00089 0.00073815 0)
(3 -9.63115e-07 0)
(3 3.90964e-10 0)
(3 -2.05897e-14 0)
(3 -1.8504e-15 0)
(3 -3.5156e-15 0)
(3 -1.13255e-15 0)
(3 2.68287e-15 0)
(3 2.75155e-15 0)
(3 1.12125e-15 0)
(3 -4.58328e-16 0)
(3 -2.58007e-15 0)
(3 -1.35072e-15 0)
(1.35958 -0.916677 0)
(1.35739 -0.915272 0)
(1.36599 -0.913383 0)
(1.37037 -0.915483 0)
(1.38623 -0.912763 0)
(1.4082 -0.923685 0)
(1.67008 -0.837727 0)
(2.70961 -0.229365 0)
(3.00084 0.000720906 0)
(3 -1.01451e-06 0)
(3 3.02261e-10 0)
(3 -9.24255e-13 0)
(3 -6.57018e-16 0)
(3 -1.64798e-16 0)
(3 3.82634e-15 0)
(3 2.75197e-15 0)
(3 1.69734e-15 0)
(3 -1.1891e-15 0)
(3 -3.03317e-15 0)
(3 -1.60673e-15 0)
(1.35971 -0.914915 0)
(1.36061 -0.913503 0)
(1.36678 -0.913392 0)
(1.37347 -0.913259 0)
(1.39095 -0.914301 0)
(1.40848 -0.931598 0)
(1.42112 -0.942103 0)
(1.72725 -0.814873 0)
(2.76459 -0.181539 0)
(3.0009 0.000781464 0)
(3 -2.5211e-06 0)
(3 7.82338e-09 0)
(3 -2.04786e-11 0)
(3 4.50086e-14 0)
(3 4.50505e-15 0)
(3 2.74767e-15 0)
(3 1.50214e-15 0)
(3 -1.53096e-15 0)
(3 -2.81252e-15 0)
(3 -1.45209e-15 0)
(1.35929 -0.914114 0)
(1.36131 -0.911596 0)
(1.36718 -0.911802 0)
(1.37725 -0.916451 0)
(1.39397 -0.919598 0)
(1.40424 -0.936955 0)
(1.40939 -0.949139 0)
(1.41677 -0.95184 0)
(1.83017 -0.753359 0)
(2.86082 -0.0956604 0)
(3.00058 0.000437953 0)
(3 -1.76406e-06 0)
(3 6.80071e-09 0)
(3 -9.12331e-12 0)
(3 -4.91914e-14 0)
(3 2.6817e-15 0)
(3 1.51657e-15 0)
(3 -1.4741e-15 0)
(3 -2.55103e-15 0)
(3 -1.26275e-15 0)
(1.35949 -0.913709 0)
(1.36386 -0.913293 0)
(1.37231 -0.915942 0)
(1.3849 -0.923761 0)
(1.39961 -0.928659 0)
(1.40635 -0.941691 0)
(1.42165 -0.944385 0)
(1.43754 -0.96157 0)
(1.51776 -0.934491 0)
(2.1646 -0.631149 0)
(2.95841 -0.0371717 0)
(3.0002 0.000224719 0)
(3 -1.56262e-08 0)
(3 1.37905e-11 0)
(3 7.19317e-14 0)
(3 2.50955e-15 0)
(3 1.74199e-15 0)
(3 -1.76845e-15 0)
(3 -2.8221e-15 0)
(3 -1.26192e-15 0)
(1.366 -0.915214 0)
(1.3702 -0.918373 0)
(1.37976 -0.92362 0)
(1.39199 -0.933469 0)
(1.40565 -0.938327 0)
(1.4143 -0.947793 0)
(1.43294 -0.950186 0)
(1.45978 -0.959868 0)
(1.47781 -0.974053 0)
(1.51455 -0.951021 0)
(2.42928 -0.434382 0)
(2.99618 -0.00556372 0)
(3 1.83171e-09 0)
(3 -1.07326e-12 0)
(3 -4.02337e-14 0)
(3 1.61002e-15 0)
(3 1.99683e-15 0)
(3 -1.46804e-15 0)
(3 -2.69552e-15 0)
(3 -1.13665e-15 0)
(1.37567 -0.920853 0)
(1.37874 -0.926953 0)
(1.38968 -0.933275 0)
(1.40254 -0.939998 0)
(1.41522 -0.944321 0)
(1.42539 -0.952593 0)
(1.44439 -0.953273 0)
(1.46316 -0.962941 0)
(1.46806 -0.976103 0)
(1.4686 -0.982402 0)
(1.69555 -0.856646 0)
(2.70881 -0.214288 0)
(3.00147 0.00121976 0)
(2.99999 -4.41813e-06 0)
(3 -6.95629e-08 0)
(3 1.91468e-10 0)
(3 7.42958e-12 0)
(3 1.47172e-16 0)
(3 -2.86973e-15 0)
(3 -2.55166e-15 0)
(1.38938 -0.929112 0)
(1.39204 -0.936223 0)
(1.40372 -0.940119 0)
(1.41461 -0.944813 0)
(1.42506 -0.948022 0)
(1.435 -0.953795 0)
(1.45145 -0.956555 0)
(1.46367 -0.966153 0)
(1.47406 -0.973603 0)
(1.491 -0.973572 0)
(1.54692 -0.966718 0)
(1.95292 -0.735641 0)
(2.87519 -0.0934448 0)
(3.00062 0.000435946 0)
(3 -2.42977e-06 0)
(3 -2.47142e-09 0)
(3 -5.45466e-11 0)
(3 1.27041e-13 0)
(3 3.04676e-15 0)
(3 -2.90393e-15 0)
(1.40552 -0.938151 0)
(1.40696 -0.944487 0)
(1.41803 -0.945367 0)
(1.42538 -0.948774 0)
(1.43381 -0.950307 0)
(1.44088 -0.952865 0)
(1.45355 -0.95986 0)
(1.46708 -0.967855 0)
(1.48853 -0.970766 0)
(1.50955 -0.973494 0)
(1.51982 -0.990519 0)
(1.56611 -0.99183 0)
(2.40984 -0.472766 0)
(2.99149 -0.0099666 0)
(3.0001 9.91477e-05 0)
(3 2.21794e-06 0)
(3 9.7044e-09 0)
(3 -2.95856e-11 0)
(3 -1.84694e-12 0)
(3 -4.55451e-15 0)
(1.41883 -0.946589 0)
(1.42024 -0.951131 0)
(1.43041 -0.951089 0)
(1.4359 -0.953705 0)
(1.44224 -0.95403 0)
(1.44765 -0.954759 0)
(1.45583 -0.962775 0)
(1.47387 -0.971417 0)
(1.50229 -0.974582 0)
(1.52421 -0.985743 0)
(1.52969 -0.993568 0)
(1.55287 -0.979296 0)
(1.78546 -0.843453 0)
(2.67264 -0.243458 0)
(3.00056 -0.00433893 0)
(3 -1.63135e-06 0)
(3 4.48172e-09 0)
(3 2.37879e-10 0)
(3 -1.30272e-12 0)
(3 -9.86549e-14 0)
(1.44363 -0.954655 0)
(1.44686 -0.958597 0)
(1.45806 -0.955822 0)
(1.46225 -0.957796 0)
(1.46704 -0.956949 0)
(1.47071 -0.958983 0)
(1.47788 -0.969107 0)
(1.49543 -0.978252 0)
(1.51841 -0.981059 0)
(1.52825 -0.993825 0)
(1.53782 -0.993856 0)
(1.55948 -0.989878 0)
(1.58877 -1.01608 0)
(2.20493 -0.647061 0)
(3.01961 0.0156379 0)
(2.99957 0.000739158 0)
(3 2.94979e-05 0)
(3 8.97454e-08 0)
(3 2.71391e-10 0)
(3 7.95726e-13 0)
(2.04386 -0.828688 0)
(2.09458 -0.662812 0)
(1.9155 -0.790008 0)
(1.82695 -0.858713 0)
(1.76011 -0.901816 0)
(1.70872 -0.92121 0)
(1.66991 -0.940348 0)
(1.65269 -0.953376 0)
(1.64423 -0.96498 0)
(1.62818 -0.98344 0)
(1.61512 -0.982912 0)
(1.61254 -0.987766 0)
(1.60269 -1.01891 0)
(1.7209 -0.924452 0)
(2.32088 -0.571386 0)
(2.9584 -0.0526629 0)
(2.9997 -0.000758567 0)
(3 -4.14995e-06 0)
(3 -1.61241e-08 0)
(3 -5.56185e-11 0)
(2.60089 -0.922616 0)
(2.53433 -0.321845 0)
(2.26929 -0.581577 0)
(2.13553 -0.706181 0)
(2.06375 -0.759218 0)
(1.94956 -0.838279 0)
(1.89595 -0.862247 0)
(1.82726 -0.903309 0)
(1.7927 -0.926905 0)
(1.76412 -0.95131 0)
(1.72495 -0.96596 0)
(1.71165 -0.969222 0)
(1.66873 -0.997783 0)
(1.67872 -0.968735 0)
(1.80196 -0.910272 0)
(2.53069 -0.449275 0)
(2.97784 -0.034198 0)
(2.99984 -0.000344969 0)
(3 -1.88337e-06 0)
(3 -7.01364e-09 0)
(2.64194 -0.181851 0)
(2.70723 0.164943 0)
(2.51791 -0.253672 0)
(2.41644 -0.461353 0)
(2.27059 -0.627534 0)
(2.19856 -0.680508 0)
(2.0878 -0.75781 0)
(2.01784 -0.80446 0)
(1.95385 -0.851273 0)
(1.9088 -0.888397 0)
(1.84731 -0.931064 0)
(1.82094 -0.929711 0)
(1.76121 -0.955073 0)
(1.73044 -0.95689 0)
(1.72867 -0.980955 0)
(2.04486 -0.824752 0)
(2.77601 -0.258623 0)
(2.99474 -0.010615 0)
(2.99997 -7.00257e-05 0)
(3 -2.92876e-07 0)
(2.85821 0.153253 0)
(2.76151 0.39635 0)
(2.63198 -0.00289983 0)
(2.59952 -0.125595 0)
(2.47374 -0.37421 0)
(2.39171 -0.497634 0)
(2.24253 -0.65322 0)
(2.18568 -0.688642 0)
(2.09249 -0.773829 0)
(2.03271 -0.826532 0)
(1.97896 -0.872249 0)
(1.91575 -0.900895 0)
(1.87389 -0.900217 0)
(1.82306 -0.930493 0)
(1.77215 -0.974235 0)
(1.8367 -0.960771 0)
(2.31535 -0.663127 0)
(2.91533 -0.111535 0)
(2.99893 -0.00221362 0)
(2.99999 -1.03568e-05 0)
(2.91111 0.21461 0)
(2.87344 0.302837 0)
(2.69117 0.0576382 0)
(2.65474 -0.0437262 0)
(2.6116 -0.185892 0)
(2.4898 -0.390954 0)
(2.40813 -0.504543 0)
(2.29026 -0.62739 0)
(2.20958 -0.703246 0)
(2.13866 -0.773309 0)
(2.08239 -0.820183 0)
(2.00986 -0.86712 0)
(1.96646 -0.861892 0)
(1.91624 -0.90004 0)
(1.8431 -0.957109 0)
(1.85164 -0.96095 0)
(2.02838 -0.891602 0)
(2.66841 -0.388203 0)
(2.98655 -0.0239646 0)
(2.99989 -0.000184858 0)
(2.8593 0.193696 0)
(2.84973 0.176076 0)
(2.75 0.124325 0)
(2.73194 0.118881 0)
(2.69284 -0.0811226 0)
(2.58918 -0.272631 0)
(2.5391 -0.350641 0)
(2.40321 -0.514616 0)
(2.3454 -0.568485 0)
(2.25131 -0.674026 0)
(2.19455 -0.727959 0)
(2.11866 -0.78936 0)
(2.05469 -0.818024 0)
(2.01754 -0.85259 0)
(1.9284 -0.917162 0)
(1.88876 -0.94908 0)
(1.94131 -0.955656 0)
(2.28372 -0.742513 0)
(2.88999 -0.145066 0)
(2.99817 -0.00286039 0)
(2.81464 0.160201 0)
(2.8141 0.153682 0)
(2.7758 0.197399 0)
(2.76716 0.269201 0)
(2.7432 0.0915284 0)
(2.71689 -0.0214111 0)
(2.62799 -0.204098 0)
(2.5391 -0.336718 0)
(2.43952 -0.447962 0)
(2.3654 -0.54149 0)
(2.28352 -0.634429 0)
(2.21007 -0.704192 0)
(2.14145 -0.762161 0)
(2.09938 -0.811838 0)
(2.00766 -0.877068 0)
(1.94593 -0.926461 0)
(1.9554 -0.947775 0)
(2.13935 -0.854297 0)
(2.67148 -0.392663 0)
(2.98467 -0.0195662 0)
(2.81466 0.162177 0)
(2.79988 0.166322 0)
(2.80162 0.211299 0)
(2.80752 0.26392 0)
(2.77374 0.108952 0)
(2.76545 0.0760581 0)
(2.68878 -0.116967 0)
(2.63642 -0.215997 0)
(2.49583 -0.418448 0)
(2.44696 -0.466198 0)
(2.33999 -0.599906 0)
(2.27973 -0.661321 0)
(2.21009 -0.728561 0)
(2.15861 -0.791932 0)
(2.07547 -0.847966 0)
(2.0159 -0.888997 0)
(1.98558 -0.931095 0)
(2.07464 -0.916115 0)
(2.46352 -0.630341 0)
(2.90526 -0.104823 0)
(2.82808 0.156245 0)
(2.8067 0.169988 0)
(2.79817 0.198279 0)
(2.80006 0.207873 0)
(2.7819 0.143806 0)
(2.77927 0.110179 0)
(2.72509 -0.0722297 0)
(2.67521 -0.19326 0)
(2.57173 -0.34785 0)
(2.50105 -0.436624 0)
(2.4286 -0.521503 0)
(2.34739 -0.610984 0)
(2.29193 -0.664996 0)
(2.22281 -0.745595 0)
(2.15732 -0.792894 0)
(2.10233 -0.825186 0)
(2.04317 -0.895741 0)
(2.06884 -0.930485 0)
(2.24579 -0.862003 0)
(2.72564 -0.280309 0)
(2.82694 0.153618 0)
(2.80688 0.159931 0)
(2.78675 0.169602 0)
(2.78444 0.173128 0)
(2.77952 0.16153 0)
(2.79597 0.193912 0)
(2.77268 0.064743 0)
(2.72526 -0.0861064 0)
(2.6777 -0.181331 0)
(2.56771 -0.342971 0)
(2.51731 -0.381226 0)
(2.43157 -0.503815 0)
(2.36309 -0.575976 0)
(2.31171 -0.657594 0)
(2.22548 -0.73249 0)
(2.15769 -0.791904 0)
(2.08993 -0.877641 0)
(2.08221 -0.929828 0)
(2.18541 -0.909743 0)
(2.53287 -0.414149 0)
(2.82011 0.147539 0)
(2.80177 0.142424 0)
(2.78351 0.138831 0)