/*--------------------------------*- C++ -*----------------------------------*\
  =========                 |
  \\      /  F ield         | OpenFOAM: The Open Source CFD Toolbox
   \\    /   O peration     | Website:  https://openfoam.org
    \\  /    A nd           | Version:  7
     \\/     M anipulation  |
\*---------------------------------------------------------------------------*/
FoamFile
{
    version     2.0;
    format      ascii;
    class       volScalarField;
    location    "4.5";
    object      T;
}
// * * * * * * * * * * * * * * * * * * * * * * * * * * * * * * * * * * * * * //

dimensions      [0 0 0 1 0 0 0];

internalField   nonuniform List<scalar> 
57600
(
0.893793
0.903096
0.912728
0.921779
0.930321
0.938262
0.945873
0.953
0.959944
0.966438
0.972851
0.97879
0.984719
0.990107
0.995533
1.00031
1.00515
1.00924
1.01337
1.01663
1.01993
1.0222
1.02445
1.0257
1.02665
1.02677
1.0266
1.02595
1.02449
1.02317
1.0209
1.0187
1.01855
1.01876
1.01932
1.01993
1.02042
1.02098
1.0216
1.02156
1.0212
1.02039
1.01952
1.01895
1.01872
1.019
1.01972
1.02086
1.02084
1.0206
1.01988
1.01933
1.01898
1.01913
1.01961
1.01956
1.01927
1.01874
1.01822
1.01825
1.01843
1.01848
1.01825
1.01796
1.01778
1.01779
1.01771
1.01756
1.0174
1.01731
1.01722
1.01724
1.01726
1.01732
1.01726
1.0171
1.01677
1.01614
1.0151
1.01236
0.885826
0.88631
0.887258
0.888743
0.890757
0.893363
0.896486
0.900216
0.904395
0.909178
0.914303
0.920006
0.925895
0.932299
0.938709
0.945519
0.952157
0.959018
0.965603
0.972136
0.978388
0.98423
0.989903
0.994757
0.999536
1.00313
1.00665
1.00906
1.01093
1.01272
1.01619
1.0186
1.02006
1.02103
1.02178
1.02166
1.02102
1.02058
1.01981
1.01887
1.01841
1.0181
1.018
1.01822
1.01869
1.01932
1.01931
1.01924
1.01895
1.01857
1.01833
1.01824
1.01841
1.01871
1.01864
1.01833
1.01802
1.01767
1.01772
1.01786
1.01783
1.01764
1.01738
1.0173
1.01729
1.01719
1.01709
1.017
1.01692
1.01684
1.01678
1.01677
1.0168
1.0169
1.01682
1.01668
1.01638
1.01578
1.01477
1.01206
0.884793
0.884767
0.884741
0.884719
0.884702
0.88471
0.884746
0.88485
0.885044
0.885371
0.885857
0.886583
0.887583
0.889001
0.890852
0.893371
0.896466
0.90052
0.905254
0.911231
0.917823
0.925761
0.934091
0.943551
0.953155
0.963162
0.973148
0.98242
0.992105
0.999491
1.00562
1.00903
1.01123
1.01262
1.01381
1.01429
1.01455
1.01397
1.01267
1.01289
1.01348
1.01449
1.01583
1.0168
1.01707
1.01682
1.01608
1.01518
1.01462
1.01465
1.01537
1.01633
1.01649
1.01623
1.01569
1.01512
1.01526
1.01573
1.01602
1.01585
1.01554
1.01528
1.01544
1.0156
1.01553
1.01539
1.01536
1.01537
1.01534
1.01529
1.01528
1.01534
1.01545
1.01549
1.01547
1.01538
1.01514
1.01461
1.01365
1.01103
0.883456
0.883424
0.883385
0.883349
0.883314
0.883278
0.883238
0.883181
0.883132
0.883091
0.88305
0.883006
0.882963
0.882919
0.882919
0.882944
0.883051
0.883282
0.883674
0.884344
0.885363
0.887
0.889295
0.892812
0.897358
0.903871
0.911559
0.921516
0.932497
0.944888
0.957122
0.968201
0.978588
0.985651
0.992875
0.99647
1.00036
1.00211
1.00489
1.0076
1.01091
1.01284
1.0143
1.01427
1.01399
1.01305
1.0118
1.01047
1.01062
1.01163
1.01276
1.01352
1.01331
1.01254
1.01167
1.01176
1.01236
1.01301
1.01312
1.01277
1.01235
1.01244
1.0127
1.01285
1.01277
1.0127
1.01273
1.01281
1.01285
1.01288
1.01296
1.0131
1.0132
1.01327
1.01335
1.01332
1.01314
1.01267
1.01179
1.00926
0.882044
0.882027
0.882005
0.881982
0.881958
0.881934
0.88191
0.881881
0.881845
0.881807
0.88177
0.881731
0.881692
0.881654
0.881617
0.881592
0.881543
0.881494
0.881445
0.881398
0.881357
0.881342
0.881363
0.881452
0.881713
0.882283
0.883275
0.885163
0.888045
0.893098
0.89985
0.910212
0.921998
0.936579
0.951136
0.965206
0.978377
0.988305
0.99785
1.00209
1.00517
1.00688
1.00869
1.00858
1.00758
1.00638
1.00687
1.00795
1.0092
1.01024
1.01008
1.00976
1.00917
1.00878
1.00898
1.00964
1.01008
1.01009
1.00992
1.00972
1.00976
1.00994
1.01004
1.01009
1.01006
1.01008
1.01018
1.01026
1.01033
1.01042
1.01056
1.01066
1.01076
1.01087
1.011
1.01099
1.01087
1.01048
1.00966
1.00723
0.880993
0.880984
0.880974
0.880965
0.880955
0.880946
0.880935
0.880922
0.880908
0.880893
0.880876
0.880858
0.880839
0.880818
0.880795
0.88077
0.880745
0.880713
0.88068
0.880648
0.880616
0.880595
0.880572
0.880576
0.880546
0.880507
0.880467
0.880477
0.880535
0.88072
0.881215
0.882429
0.884654
0.889228
0.89595
0.907231
0.920319
0.937007
0.953376
0.967551
0.980267
0.986953
0.993982
0.996502
0.999292
1.00224
1.00645
1.00895
1.00968
1.00949
1.00837
1.00631
1.00635
1.00694
1.0079
1.00897
1.00887
1.00844
1.00773
1.00786
1.00821
1.00854
1.00842
1.0082
1.00823
1.00835
1.00844
1.00846
1.0085
1.00862
1.00881
1.00892
1.00897
1.00903
1.00914
1.00914
1.00903
1.00867
1.00788
1.00548
0.880412
0.880411
0.880409
0.880407
0.880405
0.880403
0.880401
0.880398
0.880394
0.88039
0.880385
0.880379
0.880373
0.880365
0.880356
0.880347
0.880337
0.880325
0.880313
0.880296
0.880278
0.880263
0.880246
0.880221
0.880201
0.880185
0.880171
0.88016
0.880164
0.8802
0.880178
0.880181
0.880215
0.88035
0.880754
0.881933
0.884302
0.889661
0.897741
0.911668
0.927622
0.946447
0.964286
0.978709
0.992909
0.999812
1.00427
1.00634
1.00754
1.00632
1.00417
1.00458
1.00606
1.0075
1.00803
1.008
1.00742
1.00671
1.00686
1.0075
1.0078
1.00767
1.00745
1.00727
1.00737
1.00755
1.00754
1.00754
1.00759
1.00775
1.00784
1.00786
1.00788
1.00792
1.008
1.00799
1.0079
1.00756
1.0068
1.00438
0.880129
0.88013
0.880132
0.880134
0.880138
0.880143
0.880145
0.880148
0.88015
0.880153
0.880156
0.880158
0.880159
0.88016
0.880161
0.880162
0.880162
0.880162
0.88016
0.880157
0.880152
0.880144
0.880136
0.880126
0.880115
0.880102
0.880091
0.880078
0.880061
0.880043
0.880037
0.880037
0.88004
0.880061
0.880048
0.880054
0.880099
0.880303
0.880902
0.882697
0.886335
0.894663
0.906427
0.924837
0.944366
0.962959
0.979404
0.987326
0.995593
0.998105
1.00277
1.00588
1.00868
1.00866
1.00829
1.00676
1.00558
1.00585
1.00689
1.00794
1.00783
1.00734
1.00684
1.00691
1.00719
1.00728
1.00718
1.00716
1.00729
1.00745
1.00752
1.00747
1.00741
1.00741
1.00746
1.00742
1.00734
1.007
1.00624
1.00383
0.879973
0.879976
0.879981
0.879986
0.879992
0.879997
0.880003
0.88001
0.880017
0.880025
0.880033
0.880041
0.880049
0.880057
0.880065
0.880073
0.88008
0.880088
0.880097
0.880101
0.880102
0.880101
0.880097
0.88009
0.880082
0.880077
0.880069
0.880056
0.880038
0.880017
0.879995
0.879974
0.879952
0.879934
0.879925
0.879917
0.879913
0.879909
0.879909
0.879936
0.880064
0.880573
0.881916
0.885847
0.89304
0.907741
0.926094
0.948297
0.969464
0.985565
0.999866
1.0041
1.00748
1.00728
1.00569
1.00463
1.00549
1.00696
1.00794
1.00789
1.0072
1.00663
1.00671
1.00725
1.00731
1.00717
1.00699
1.00707
1.00733
1.00734
1.00729
1.00725
1.00723
1.00722
1.0072
1.00717
1.00708
1.00676
1.00599
1.00358
0.879859
0.879864
0.879869
0.879875
0.879881
0.879888
0.879896
0.879903
0.879911
0.87992
0.87993
0.87994
0.87995
0.879961
0.879972
0.879985
0.879998
0.880012
0.880025
0.880036
0.880042
0.880044
0.880043
0.880039
0.880034
0.880027
0.880016
0.880003
0.879985
0.879961
0.87993
0.879893
0.879857
0.879825
0.879794
0.879764
0.879739
0.879712
0.879691
0.879692
0.879716
0.879753
0.879795
0.879908
0.880335
0.881993
0.886018
0.896346
0.91159
0.934566
0.958202
0.975184
0.99138
0.995331
1.00002
1.00347
1.00798
1.00884
1.00855
1.00703
1.00598
1.00633
1.00733
1.00772
1.00741
1.00688
1.00693
1.00727
1.0075
1.00737
1.00715
1.00715
1.00717
1.00713
1.00706
1.00704
1.00698
1.00665
1.00593
1.0035
0.879771
0.879774
0.879778
0.879783
0.87979
0.879795
0.879799
0.879804
0.879811
0.879819
0.879828
0.879837
0.879846
0.879856
0.879868
0.879879
0.879889
0.8799
0.879911
0.879921
0.87993
0.87994
0.879944
0.879944
0.879939
0.879927
0.879913
0.879895
0.879872
0.879843
0.879809
0.879771
0.879725
0.879671
0.879613
0.879557
0.879506
0.879472
0.879467
0.879468
0.879484
0.879521
0.879578
0.879632
0.879656
0.879686
0.879826
0.880538
0.882634
0.889525
0.901692
0.924185
0.949254
0.97186
0.993485
1.00094
1.00658
1.00695
1.00548
1.00478
1.00599
1.00765
1.008
1.00759
1.00666
1.00672
1.00728
1.00758
1.00745
1.00718
1.00709
1.00717
1.00714
1.00705
1.00698
1.007
1.00692
1.00657
1.00587
1.00349
0.879666
0.879666
0.879665
0.879665
0.879666
0.879666
0.879666
0.879667
0.879669
0.879673
0.879678
0.879684
0.87969
0.879698
0.879708
0.879718
0.879728
0.879741
0.879755
0.879768
0.87978
0.879794
0.879803
0.879803
0.879794
0.87978
0.879768
0.879753
0.87973
0.8797
0.879669
0.879632
0.87958
0.879514
0.879449
0.879395
0.879349
0.879312
0.879301
0.879303
0.879313
0.87934
0.879396
0.879489
0.879574
0.87961
0.879601
0.87955
0.879546
0.879787
0.880914
0.885685
0.895597
0.917215
0.942805
0.965935
0.986592
0.99284
0.998505
1.00314
1.00863
1.00907
1.00823
1.00615
1.00622
1.00701
1.00792
1.00776
1.00712
1.007
1.00713
1.00718
1.00707
1.00691
1.00694
1.00696
1.00685
1.00648
1.00578
1.00344
0.879536
0.879532
0.879528
0.879525
0.879522
0.879518
0.879515
0.879511
0.879507
0.879502
0.879498
0.879495
0.879492
0.879491
0.879491
0.879491
0.879493
0.879496
0.879502
0.87951
0.87952
0.879535
0.879558
0.879582
0.879596
0.879598
0.879592
0.879577
0.879557
0.879542
0.879529
0.879508
0.879471
0.879418
0.87936
0.879305
0.879252
0.879199
0.879172
0.879179
0.879193
0.87921
0.879246
0.87933
0.879444
0.87951
0.879513
0.879492
0.879427
0.879285
0.879159
0.87928
0.880044
0.883761
0.892445
0.913177
0.938794
0.965515
0.990589
1.00012
1.00692
1.00689
1.00422
1.00481
1.00666
1.00803
1.00789
1.00711
1.00672
1.00696
1.00722
1.0071
1.00679
1.00679
1.00691
1.00691
1.00674
1.00638
1.00567
1.00332
0.879409
0.879401
0.879392
0.879385
0.879377
0.879367
0.879356
0.879345
0.879332
0.879316
0.879301
0.879286
0.87927
0.879258
0.879249
0.879241
0.879232
0.879226
0.879225
0.879227
0.879235
0.879253
0.879279
0.879307
0.879339
0.879373
0.8794
0.879414
0.879422
0.87943
0.879438
0.879437
0.879426
0.879399
0.879361
0.879311
0.879253
0.879186
0.879118
0.879085
0.879084
0.879081
0.879086
0.879125
0.879222
0.87934
0.879388
0.879382
0.87934
0.879249
0.879099
0.878959
0.87895
0.879078
0.879772
0.882993
0.891014
0.911493
0.938314
0.964293
0.985961
0.993462
0.998889
1.00578
1.00876
1.00851
1.00679
1.00619
1.00658
1.00739
1.00729
1.00672
1.00661
1.00679
1.00691
1.00683
1.00662
1.00628
1.00553
1.00314
0.879311
0.879299
0.879288
0.879277
0.879266
0.879252
0.879239
0.879226
0.87921
0.879192
0.879174
0.879156
0.879137
0.879115
0.879099
0.879088
0.87908
0.879075
0.879075
0.879078
0.879084
0.879096
0.879111
0.879132
0.879161
0.879204
0.879255
0.879305
0.879345
0.879372
0.879389
0.879401
0.879404
0.8794
0.879387
0.879359
0.879313
0.879251
0.879172
0.879086
0.879008
0.878953
0.878934
0.878937
0.878974
0.879061
0.879152
0.879197
0.879203
0.879184
0.879109
0.878984
0.878905
0.878915
0.878989
0.879199
0.879845
0.882761
0.890981
0.911936
0.939437
0.968894
0.993241
1.0031
1.00717
1.00559
1.00413
1.00572
1.00755
1.00752
1.00678
1.00626
1.00655
1.00687
1.00682
1.00664
1.0065
1.0062
1.00537
1.00294
0.87925
0.879236
0.879221
0.879205
0.879189
0.879172
0.879157
0.879142
0.879126
0.879109
0.879091
0.879073
0.879053
0.879029
0.879011
0.879001
0.878996
0.878995
0.878996
0.879001
0.87901
0.879022
0.87904
0.879065
0.879098
0.879134
0.879174
0.879217
0.879263
0.879301
0.87933
0.879356
0.879369
0.879368
0.879359
0.879341
0.879315
0.879272
0.87921
0.879121
0.878996
0.878877
0.878824
0.878815
0.878817
0.878838
0.878892
0.878966
0.879064
0.879133
0.879139
0.879097
0.878998
0.87895
0.878949
0.878991
0.879076
0.879228
0.879803
0.88275
0.892076
0.914503
0.945123
0.971328
0.989432
0.996413
1.00268
1.00837
1.00823
1.00688
1.00572
1.00616
1.00699
1.00695
1.00658
1.00649
1.00652
1.00618
1.00516
1.00279
0.879251
0.879243
0.879235
0.879227
0.879217
0.879209
0.8792
0.879192
0.879183
0.879171
0.879157
0.879143
0.879125
0.879098
0.879073
0.879056
0.879041
0.879027
0.879018
0.879016
0.879014
0.879013
0.879017
0.879029
0.87905
0.879077
0.879102
0.879135
0.879186
0.879239
0.879268
0.879288
0.87931
0.879323
0.879318
0.879308
0.879292
0.87926
0.879204
0.879122
0.879006
0.878876
0.878783
0.878758
0.878757
0.878761
0.878774
0.87882
0.878944
0.879114
0.879176
0.879162
0.879103
0.879015
0.878927
0.878898
0.878905
0.87896
0.878997
0.879097
0.879775
0.883334
0.895296
0.919917
0.951027
0.982898
0.999391
1.00661
1.00613
1.00372
1.0051
1.00725
1.00718
1.00672
1.0063
1.00655
1.00654
1.00599
1.00497
1.0028
0.879346
0.879347
0.879351
0.879355
0.879356
0.879357
0.879357
0.879355
0.87935
0.879343
0.879336
0.879328
0.879312
0.879289
0.87927
0.87925
0.879212
0.879166
0.879138
0.879114
0.87909
0.87907
0.87905
0.87903
0.879014
0.879006
0.879004
0.879003
0.879001
0.878991
0.878972
0.878966
0.878974
0.878999
0.879035
0.879085
0.879132
0.87915
0.879137
0.879086
0.879019
0.878951
0.878902
0.87887
0.878828
0.878784
0.878766
0.878784
0.878892
0.87908
0.879164
0.879149
0.879107
0.879039
0.878917
0.878818
0.878802
0.878824
0.878926
0.878972
0.878988
0.879087
0.880122
0.884719
0.900089
0.928435
0.960005
0.984405
0.994323
1.00036
1.00781
1.00817
1.00717
1.00588
1.00622
1.00684
1.00661
1.00562
1.00485
1.00293
0.879341
0.879346
0.879351
0.879357
0.879362
0.879369
0.879375
0.879375
0.879371
0.879367
0.879362
0.879351
0.879325
0.879304
0.87929
0.879264
0.879209
0.879172
0.879147
0.8791
0.879063
0.879061
0.879055
0.879031
0.878992
0.878952
0.878917
0.878887
0.878854
0.878802
0.878722
0.878664
0.878656
0.878662
0.878698
0.878773
0.878871
0.878956
0.879
0.879007
0.879013
0.879034
0.879087
0.879128
0.879116
0.879034
0.878901
0.878833
0.878868
0.878973
0.879074
0.879111
0.87908
0.879026
0.878925
0.878793
0.878762
0.878786
0.878894
0.87903
0.879062
0.879089
0.879075
0.879262
0.880807
0.887646
0.907667
0.938234
0.974156
0.995487
1.00634
1.00612
1.00381
1.00537
1.00708
1.00701
1.00614
1.00537
1.00501
1.00313
0.879199
0.879208
0.879212
0.879213
0.879218
0.879232
0.879237
0.879228
0.879215
0.8792
0.879185
0.879165
0.879138
0.879132
0.879126
0.8791
0.879025
0.878975
0.878974
0.878966
0.878927
0.878912
0.87893
0.878935
0.878931
0.878921
0.878897
0.878856
0.878803
0.878736
0.878646
0.878552
0.878499
0.8785
0.87853
0.878597
0.878699
0.878804
0.87888
0.878938
0.878995
0.879072
0.879172
0.879254
0.879262
0.879208
0.879056
0.878867
0.878816
0.878831
0.878847
0.878894
0.878962
0.878987
0.878958
0.878871
0.878836
0.878868
0.878967
0.879063
0.879073
0.879058
0.879028
0.878926
0.878892
0.879284
0.881821
0.892914
0.918307
0.952275
0.981991
0.992912
0.999937
1.00797
1.00789
1.00655
1.00539
1.00564
1.00541
1.00335
0.878701
0.87871
0.878712
0.878716
0.878725
0.878728
0.878726
0.878723
0.878722
0.878727
0.878742
0.878749
0.878759
0.878778
0.878808
0.878821
0.878803
0.87879
0.878792
0.87882
0.878832
0.878815
0.878821
0.878867
0.878921
0.878966
0.879007
0.879032
0.87904
0.879021
0.878944
0.878843
0.878768
0.878709
0.878639
0.878602
0.878621
0.878719
0.878823
0.878894
0.87896
0.879034
0.879122
0.879214
0.879235
0.879196
0.879058
0.878848
0.878725
0.878713
0.878711
0.878737
0.878839
0.87895
0.879008
0.879011
0.879023
0.879059
0.879088
0.87909
0.87908
0.879042
0.878939
0.8788
0.878677
0.878677
0.878768
0.87974
0.884532
0.902062
0.932044
0.969562
0.994544
1.00615
1.00588
1.00373
1.00513
1.00634
1.00563
1.00314
0.878243
0.878253
0.878258
0.87827
0.878273
0.878271
0.878273
0.87828
0.87829
0.878307
0.878344
0.878385
0.878433
0.878494
0.878567
0.878647
0.878721
0.878754
0.878778
0.878839
0.878871
0.878866
0.878882
0.87895
0.879044
0.879152
0.879238
0.879288
0.879349
0.879404
0.879392
0.879329
0.879234
0.879113
0.878973
0.878847
0.878788
0.87881
0.878849
0.878872
0.878878
0.87888
0.878888
0.878948
0.879009
0.879
0.878925
0.87879
0.878709
0.878699
0.878695
0.878715
0.878809
0.878962
0.879043
0.879077
0.879123
0.879139
0.879122
0.87904
0.878927
0.878823
0.878744
0.878687
0.878654
0.878667
0.878775
0.878889
0.879201
0.881102
0.890093
0.914733
0.949802
0.979828
0.99274
1.00029
1.00754
1.0072
1.00559
1.00277
0.878244
0.87823
0.878209
0.878205
0.878209
0.878223
0.878242
0.878263
0.878274
0.878285
0.878306
0.878332
0.878374
0.878438
0.878527
0.878624
0.878757
0.87886
0.878863
0.878873
0.878909
0.878907
0.878918
0.878974
0.879063
0.879178
0.879259
0.879291
0.879331
0.879409
0.879426
0.87936
0.879228
0.879113
0.879049
0.878991
0.878895
0.878822
0.878831
0.878816
0.878699
0.878607
0.878585
0.87858
0.87861
0.878679
0.878745
0.878792
0.878868
0.878953
0.878969
0.878968
0.879018
0.879061
0.879046
0.879057
0.879096
0.879095
0.879026
0.87886
0.878669
0.87859
0.878604
0.878645
0.878709
0.878802
0.878922
0.878993
0.878997
0.879036
0.8796
0.883713
0.900065
0.93073
0.970926
0.994798
1.00616
1.00528
1.00355
1.0023
0.87898
0.878962
0.878947
0.878926
0.878909
0.878908
0.878907
0.878902
0.878882
0.878876
0.878886
0.878913
0.878933
0.878946
0.87895
0.878922
0.878893
0.878912
0.878911
0.878845
0.878752
0.878692
0.878678
0.878686
0.878705
0.878739
0.878788
0.878845
0.878906
0.878996
0.879058
0.87902
0.878808
0.87863
0.878639
0.87865
0.878605
0.878602
0.878645
0.878641
0.87859
0.878505
0.878429
0.878395
0.878422
0.878533
0.878724
0.878901
0.879027
0.879145
0.879207
0.879206
0.879198
0.879151
0.879033
0.878928
0.878897
0.878853
0.878772
0.878652
0.878534
0.878513
0.878557
0.878713
0.878917
0.878993
0.879011
0.87901
0.878944
0.878786
0.878646
0.878841
0.880612
0.890163
0.915522
0.951078
0.984815
0.992713
1.00199
1.00289
0.87937
0.879363
0.879354
0.87935
0.879346
0.879331
0.879311
0.879279
0.879229
0.879242
0.879271
0.879286
0.8793
0.879301
0.879247
0.879186
0.879132
0.879018
0.878781
0.878507
0.878324
0.878153
0.877962
0.8779
0.877902
0.877903
0.877914
0.877966
0.878094
0.878289
0.878363
0.878347
0.87824
0.878158
0.878163
0.878213
0.878348
0.878458
0.87851
0.878597
0.87872
0.878737
0.878679
0.878535
0.878519
0.878643
0.878842
0.878964
0.87905
0.87914
0.879187
0.879184
0.879165
0.879073
0.878837
0.878603
0.878516
0.878498
0.878518
0.878556
0.878556
0.878603
0.878741
0.878951
0.879061
0.879059
0.879027
0.878916
0.878728
0.878555
0.878492
0.878518
0.878671
0.879557
0.884163
0.902678
0.935985
0.973175
0.997696
1.00155
0.878393
0.87844
0.878469
0.87849
0.878501
0.878482
0.878464
0.878495
0.878519
0.878546
0.878596
0.878685
0.878751
0.878758
0.878771
0.878794
0.87879
0.87872
0.8785
0.878227
0.878121
0.877981
0.877727
0.877708
0.877735
0.877709
0.877705
0.877762
0.87791
0.878178
0.878345
0.878357
0.878327
0.87825
0.878197
0.878196
0.878363
0.8787
0.878871
0.879067
0.879358
0.879417
0.879365
0.879279
0.879238
0.879208
0.879081
0.878796
0.878605
0.878569
0.878572
0.87862
0.878635
0.878593
0.878483
0.878329
0.878266
0.878296
0.878376
0.87855
0.878811
0.878977
0.879039
0.879066
0.879072
0.879009
0.878856
0.878628
0.878485
0.878441
0.878471
0.878652
0.878927
0.878968
0.879211
0.881256
0.891814
0.921473
0.956665
0.986656
0.879431
0.879508
0.879567
0.879568
0.879554
0.879529
0.879528
0.879528
0.87951
0.879503
0.879518
0.879592
0.879666
0.879703
0.879768
0.879905
0.880058
0.88015
0.880252
0.880412
0.880397
0.880277
0.880265
0.880308
0.880467
0.880517
0.880498
0.880428
0.880192
0.879781
0.879352
0.879131
0.879078
0.87908
0.879045
0.878997
0.879184
0.87947
0.879495
0.879609
0.879807
0.879742
0.879599
0.879615
0.879634
0.879585
0.879282
0.878618
0.878123
0.878047
0.878058
0.878142
0.878241
0.878277
0.878281
0.878224
0.878203
0.878268
0.878491
0.878857
0.879149
0.879157
0.879083
0.878929
0.878748
0.878594
0.878457
0.878381
0.878386
0.878439
0.878698
0.878948
0.879073
0.879035
0.878836
0.878675
0.879463
0.8859
0.905176
0.957801
0.884882
0.88507
0.885175
0.885117
0.88491
0.884512
0.884075
0.883849
0.883829
0.883835
0.883809
0.883825
0.88395
0.884193
0.884321
0.884418
0.884557
0.884765
0.884858
0.884853
0.884949
0.884857
0.884302
0.884172
0.884232
0.884534
0.884655
0.884626
0.884355
0.883629
0.882689
0.882334
0.882022
0.881357
0.880641
0.880308
0.880268
0.880193
0.880054
0.87994
0.879749
0.879295
0.878864
0.878839
0.878894
0.878986
0.87896
0.878575
0.878126
0.878066
0.878108
0.878258
0.878398
0.878459
0.878538
0.878766
0.879046
0.879201
0.879174
0.879127
0.879102
0.878977
0.878705
0.878384
0.878165
0.878103
0.878149
0.878216
0.87841
0.878765
0.87903
0.879058
0.879005
0.878811
0.878476
0.878308
0.878118
0.878397
0.880951
0.910813
0.895856
0.895635
0.89536
0.895075
0.89472
0.894416
0.894005
0.893236
0.89302
0.893018
0.892868
0.892649
0.892434
0.892373
0.892306
0.89208
0.891614
0.891125
0.890543
0.889612
0.889163
0.88879
0.888089
0.887358
0.88703
0.886809
0.886467
0.88628
0.886466
0.887116
0.88739
0.887313
0.886832
0.885962
0.884972
0.884574
0.884403
0.884251
0.884038
0.883694
0.88306
0.881903
0.880865
0.880631
0.88061
0.880642
0.88092
0.881347
0.881345
0.88108
0.880834
0.880649
0.880304
0.879974
0.879957
0.880284
0.880451
0.880307
0.879881
0.879253
0.878784
0.878496
0.878251
0.878119
0.87803
0.878059
0.878226
0.878581
0.87894
0.879148
0.879094
0.878887
0.878579
0.878335
0.878263
0.878216
0.878356
0.878473
0.878239
0.884171
0.910024
0.909916
0.909681
0.90927
0.909036
0.909142
0.909255
0.909145
0.90874
0.908334
0.908257
0.908492
0.908532
0.908123
0.907819
0.907761
0.907618
0.907169
0.906502
0.905881
0.905243
0.904675
0.903943
0.90332
0.902846
0.902161
0.901185
0.899851
0.899033
0.899015
0.898849
0.897802
0.897454
0.897459
0.896897
0.895959
0.895246
0.894971
0.894839
0.894676
0.894274
0.892931
0.89112
0.890248
0.88946
0.888154
0.887526
0.887501
0.887269
0.886487
0.885331
0.884443
0.88349
0.882233
0.881412
0.881076
0.880665
0.880128
0.879516
0.878979
0.878671
0.878558
0.878449
0.878404
0.87852
0.878803
0.879422
0.879543
0.879434
0.879154
0.878752
0.878322
0.878048
0.878061
0.878124
0.878475
0.878722
0.878497
0.877517
0.876848
0.929587
0.929412
0.929197
0.928714
0.928281
0.928225
0.928055
0.927508
0.926609
0.926178
0.926181
0.925947
0.925222
0.92424
0.923633
0.923467
0.923207
0.922761
0.922113
0.920904
0.920517
0.920321
0.919695
0.919516
0.919398
0.91885
0.917766
0.917275
0.916863
0.916254
0.915596
0.914799
0.913956
0.91297
0.91144
0.909662
0.908208
0.90643
0.904417
0.904022
0.904199
0.903698
0.902154
0.90106
0.900475
0.89906
0.896898
0.895543
0.894327
0.892887
0.891233
0.889894
0.889078
0.888158
0.887028
0.886021
0.884724
0.883244
0.882977
0.882724
0.882106
0.881996
0.881827
0.881658
0.881505
0.881204
0.880924
0.880375
0.879637
0.878801
0.87831
0.878147
0.878029
0.87823
0.87872
0.879149
0.878945
0.878305
0.877029
0.875488
0.951045
0.950698
0.950285
0.950183
0.95011
0.949966
0.949599
0.949021
0.94876
0.948475
0.948108
0.947716
0.947204
0.94674
0.946323
0.945864
0.945368
0.944906
0.944314
0.943587
0.942698
0.941911
0.941195
0.940403
0.93952
0.938715
0.937437
0.936106
0.93555
0.935013
0.933651
0.932455
0.932223
0.931834
0.930793
0.92934
0.928204
0.926905
0.925515
0.924111
0.922715
0.921076
0.918284
0.916949
0.916713
0.915719
0.913714
0.912367
0.91111
0.908905
0.906663
0.904663
0.903553
0.902533
0.900759
0.898751
0.896993
0.894967
0.893081
0.891611
0.889921
0.888145
0.886355
0.884931
0.883476
0.882331
0.881054
0.880144
0.879575
0.879186
0.878845
0.879002
0.879342
0.879945
0.879889
0.879567
0.878744
0.877624
0.876613
0.875464
0.973943
0.973608
0.97325
0.972889
0.972553
0.972089
0.971773
0.971627
0.971314
0.970834
0.970217
0.969248
0.968814
0.968835
0.968618
0.967768
0.966534
0.966191
0.965997
0.965497
0.964618
0.963878
0.963271
0.962445
0.961491
0.960898
0.960176
0.959082
0.958014
0.957065
0.955959
0.954796
0.953647
0.952357
0.950951
0.949338
0.947839
0.946539
0.945025
0.94357
0.94232
0.940995
0.93931
0.937478
0.935848
0.933725
0.930165
0.928449
0.927378
0.92552
0.923722
0.921195
0.91814
0.915803
0.913884
0.911555
0.908899
0.906503
0.904106
0.901547
0.899165
0.896657
0.894456
0.892232
0.889978
0.888186
0.886337
0.885331
0.884273
0.883932
0.88338
0.883015
0.882488
0.88184
0.880754
0.879365
0.878316
0.877468
0.876893
0.876232
0.997454
0.997332
0.997103
0.99674
0.996284
0.995809
0.995054
0.994496
0.994465
0.994372
0.993987
0.993213
0.992577
0.99219
0.99172
0.991041
0.990262
0.989686
0.989207
0.98852
0.987727
0.986926
0.986064
0.985189
0.984146
0.983275
0.982582
0.981589
0.980339
0.979265
0.978167
0.976948
0.975849
0.97461
0.973224
0.971905
0.970499
0.968928
0.967271
0.965516
0.963635
0.961831
0.96
0.958053
0.956278
0.954525
0.95241
0.950122
0.947876
0.944862
0.942647
0.940695
0.938475
0.935359
0.932461
0.930207
0.9277
0.924766
0.922036
0.919187
0.916466
0.91364
0.91092
0.908031
0.905217
0.902011
0.899093
0.896139
0.893283
0.890778
0.888279
0.886097
0.884155
0.882366
0.881111
0.880126
0.879301
0.878945
0.879016
0.877646
1.0213
1.02114
1.02113
1.02105
1.02079
1.02035
1.01965
1.01907
1.01847
1.01773
1.01754
1.01748
1.01714
1.01624
1.01533
1.01474
1.01433
1.01352
1.01278
1.01217
1.01138
1.01053
1.00969
1.0088
1.00776
1.00688
1.00611
1.00503
1.00373
1.00263
1.00148
1.00013
0.998842
0.997523
0.995984
0.99438
0.99296
0.991463
0.989598
0.987814
0.986156
0.984317
0.982379
0.980375
0.978246
0.9759
0.97345
0.971109
0.968947
0.96657
0.964182
0.961015
0.957988
0.955453
0.952692
0.949492
0.946344
0.943233
0.939875
0.936529
0.933083
0.929726
0.926208
0.92258
0.918981
0.915224
0.911629
0.907901
0.904447
0.900825
0.897625
0.894325
0.891571
0.889197
0.887442
0.88635
0.885172
0.883893
0.882078
0.878553
1.04717
1.0465
1.04573
1.04561
1.04568
1.04555
1.04517
1.04452
1.04377
1.04316
1.04237
1.04198
1.04192
1.04162
1.0406
1.03965
1.03912
1.03849
1.03749
1.03665
1.03588
1.03513
1.03433
1.03334
1.03217
1.03126
1.03037
1.02917
1.02781
1.02661
1.02545
1.0241
1.02258
1.02115
1.0197
1.01815
1.01652
1.01483
1.01304
1.01107
1.00912
1.00719
1.0051
1.00295
1.00074
0.99845
0.996102
0.993558
0.991024
0.988227
0.985422
0.982852
0.980051
0.976713
0.973536
0.970536
0.967185
0.96376
0.960238
0.956693
0.953025
0.949357
0.945607
0.941868
0.937982
0.934176
0.93025
0.926368
0.922545
0.91841
0.914519
0.910295
0.906257
0.902062
0.898119
0.894304
0.890561
0.887138
0.883722
0.879593
1.07335
1.07303
1.07262
1.0721
1.07166
1.07104
1.07048
1.07036
1.0701
1.06947
1.06876
1.06798
1.06749
1.06718
1.06657
1.06535
1.06473
1.06426
1.06349
1.06224
1.06138
1.06069
1.05979
1.05878
1.05776
1.05668
1.05558
1.05429
1.05293
1.05168
1.05032
1.04881
1.04735
1.04584
1.04423
1.04257
1.04084
1.03908
1.03715
1.03513
1.03309
1.03096
1.02875
1.02642
1.02411
1.0216
1.01901
1.01649
1.01366
1.0109
1.00813
1.00487
1.00181
0.998814
0.995399
0.99187
0.988532
0.984888
0.981143
0.977296
0.973435
0.969438
0.965278
0.961078
0.956827
0.952462
0.947923
0.943488
0.938779
0.934258
0.929501
0.92476
0.919997
0.915174
0.9106
0.905707
0.901119
0.896226
0.89239
0.887591
1.0984
1.0982
1.09804
1.09777
1.09733
1.09673
1.09621
1.09573
1.09526
1.09496
1.09453
1.09386
1.09285
1.09235
1.09212
1.09162
1.09056
1.08966
1.08898
1.08816
1.08722
1.08637
1.08551
1.0845
1.08341
1.08236
1.08121
1.07993
1.07859
1.07726
1.07587
1.07442
1.07283
1.07122
1.06955
1.06779
1.066
1.06407
1.06212
1.05998
1.0578
1.05554
1.05317
1.0508
1.04822
1.04571
1.04296
1.04013
1.03732
1.03418
1.03113
1.02804
1.02469
1.02131
1.01779
1.01409
1.01048
1.00674
1.0028
0.998726
0.994635
0.990406
0.986149
0.981608
0.977195
0.972578
0.967886
0.963114
0.958325
0.953422
0.948572
0.943748
0.938708
0.933863
0.928745
0.923603
0.918105
0.912077
0.906672
0.898083
1.119
1.11878
1.11856
1.11839
1.11818
1.11786
1.11741
1.11696
1.11663
1.11642
1.11612
1.11568
1.11496
1.11444
1.11419
1.11379
1.11314
1.11252
1.1119
1.11124
1.11057
1.10989
1.10913
1.10828
1.10735
1.10643
1.10546
1.10437
1.10318
1.10192
1.10062
1.09923
1.09774
1.09614
1.09456
1.09286
1.09105
1.08921
1.08719
1.08516
1.08296
1.08065
1.07829
1.0758
1.07323
1.07054
1.0677
1.06476
1.06171
1.05847
1.05522
1.05179
1.04819
1.04478
1.04106
1.03709
1.03318
1.02928
1.0251
1.02085
1.01645
1.012
1.00744
1.00276
0.997998
0.993172
0.988205
0.983051
0.977942
0.972537
0.967211
0.961769
0.956329
0.95069
0.94505
0.939195
0.933082
0.926648
0.920663
0.911016
1.12987
1.1298
1.12977
1.12978
1.12978
1.12971
1.12957
1.12935
1.12907
1.12898
1.12892
1.12876
1.12849
1.12833
1.12817
1.12796
1.12769
1.12737
1.12706
1.12676
1.12639
1.12596
1.12558
1.12516
1.12463
1.12407
1.12351
1.12284
1.12208
1.12131
1.12045
1.11948
1.11845
1.11734
1.11617
1.1149
1.11348
1.1119
1.11018
1.10834
1.10651
1.10447
1.10236
1.1002
1.09779
1.09528
1.09251
1.08954
1.08659
1.08326
1.07991
1.07645
1.07258
1.06892
1.06516
1.06101
1.05689
1.05273
1.04825
1.04369
1.03906
1.03436
1.02952
1.02458
1.01949
1.01446
1.00921
1.0039
0.998373
0.992804
0.987125
0.981465
0.975746
0.969874
0.963981
0.957908
0.95178
0.945125
0.939144
0.929016
1.13265
1.13259
1.13253
1.13249
1.13244
1.13242
1.13243
1.13241
1.13235
1.13232
1.13228
1.13223
1.13218
1.13211
1.13206
1.132
1.13195
1.13192
1.1319
1.13188
1.13185
1.13183
1.13181
1.13178
1.13171
1.13159
1.13147
1.13132
1.13108
1.1308
1.13053
1.13014
1.12978
1.12945
1.12906
1.12857
1.12796
1.1272
1.12627
1.12518
1.12404
1.12281
1.12136
1.11978
1.11806
1.11625
1.11422
1.11187
1.10949
1.10682
1.10383
1.10063
1.09688
1.09319
1.0896
1.08547
1.08114
1.07679
1.07225
1.06741
1.06257
1.05757
1.05254
1.04724
1.04182
1.0364
1.0309
1.02527
1.01952
1.01359
1.00757
1.00163
0.995515
0.989317
0.982913
0.976414
0.969636
0.962475
0.955878
0.944888
1.13282
1.13283
1.13284
1.13283
1.1328
1.1328
1.13283
1.13286
1.13284
1.13282
1.13285
1.13288
1.13291
1.13292
1.13292
1.13291
1.13291
1.13291
1.13285
1.1327
1.13258
1.13249
1.13237
1.13229
1.13228
1.13225
1.13221
1.13218
1.13216
1.13213
1.13211
1.13211
1.13214
1.1322
1.13225
1.13232
1.13237
1.13228
1.13213
1.13197
1.1317
1.13128
1.1308
1.13021
1.12944
1.12858
1.12762
1.12639
1.12512
1.12388
1.12234
1.12041
1.1179
1.115
1.11183
1.10823
1.10443
1.10047
1.09611
1.09142
1.08654
1.08148
1.07624
1.07081
1.0651
1.05927
1.05345
1.04744
1.04144
1.03518
1.02888
1.02251
1.01615
1.00956
1.00288
0.99599
0.988944
0.981461
0.97462
0.963355
1.1316
1.13167
1.1317
1.13168
1.13163
1.1316
1.13164
1.13169
1.13171
1.13173
1.1318
1.13192
1.13206
1.13222
1.13226
1.13223
1.1323
1.13237
1.13232
1.13233
1.13235
1.13235
1.13234
1.13226
1.13224
1.13227
1.13221
1.13218
1.13231
1.13253
1.13258
1.13249
1.13223
1.1321
1.1321
1.13196
1.13181
1.13192
1.13211
1.13223
1.13249
1.13273
1.13275
1.1327
1.13259
1.13241
1.13212
1.13165
1.13112
1.1308
1.13056
1.13016
1.12945
1.12847
1.12713
1.12518
1.12255
1.11971
1.11668
1.11323
1.10914
1.10459
1.09964
1.09443
1.08884
1.08297