/*--------------------------------*- C++ -*----------------------------------*\
  =========                 |
  \\      /  F ield         | OpenFOAM: The Open Source CFD Toolbox
   \\    /   O peration     | Website:  https://openfoam.org
    \\  /    A nd           | Version:  7
     \\/     M anipulation  |
\*---------------------------------------------------------------------------*/
FoamFile
{
    version     2.0;
    format      ascii;
    class       volVectorField;
    location    "8";
    object      U;
}
// * * * * * * * * * * * * * * * * * * * * * * * * * * * * * * * * * * * * * //

dimensions      [0 1 -1 0 0 0 0];

internalField   nonuniform List<vector> 
90000
(
(3.04223 -0.134887 0)
(3.04192 -0.125722 0)
(3.04022 -0.115618 0)
(3.03851 -0.108408 0)
(3.03587 -0.100925 0)
(3.03336 -0.0953437 0)
(3.03054 -0.0900076 0)
(3.02778 -0.0851788 0)
(3.02511 -0.0813423 0)
(3.02238 -0.0769797 0)
(3.01989 -0.0738532 0)
(3.01728 -0.0700011 0)
(3.01506 -0.0667602 0)
(3.01329 -0.062766 0)
(3.01188 -0.0589933 0)
(3.01046 -0.0542615 0)
(3.00913 -0.0492472 0)
(3.00792 -0.04463 0)
(3.0063 -0.0380505 0)
(3.00516 -0.0340262 0)
(3.00359 -0.0283476 0)
(3.00165 -0.021531 0)
(3.00136 -0.0202473 0)
(2.9981 -0.0115011 0)
(2.99695 -0.0083882 0)
(2.99651 -0.00582833 0)
(2.99251 0.00163002 0)
(2.99209 0.00367062 0)
(2.99143 0.00606691 0)
(2.99043 0.00752349 0)
(2.99044 0.00925989 0)
(2.99041 0.0101389 0)
(2.99032 0.00957611 0)
(2.99002 0.00967941 0)
(2.99186 0.00499212 0)
(2.99266 0.000586029 0)
(2.99342 -0.00517665 0)
(2.99309 -0.00723632 0)
(2.99109 -0.0105509 0)
(2.99026 -0.0107725 0)
(2.98887 -0.00992195 0)
(2.98766 -0.00862977 0)
(2.98611 -0.0066524 0)
(2.98519 -0.00355281 0)
(2.98548 -0.00179603 0)
(2.98598 0.000156959 0)
(2.98587 0.00159127 0)
(2.98608 0.00148899 0)
(2.98669 -2.72817e-07 0)
(2.98742 -0.00232485 0)
(2.98806 -0.00436795 0)
(2.98798 -0.00623885 0)
(2.98812 -0.00700812 0)
(2.98824 -0.00688688 0)
(2.98738 -0.00460931 0)
(2.98683 -0.00258221 0)
(2.98601 -7.6676e-05 0)
(2.9865 0.000924145 0)
(2.98644 -0.000150614 0)
(2.98671 -0.00142069 0)
(2.98707 -0.00282045 0)
(2.98744 -0.00361434 0)
(2.98765 -0.00335065 0)
(2.98726 -0.00203942 0)
(2.98715 -0.000451304 0)
(2.98703 -0.000545069 0)
(2.98718 -0.00147328 0)
(2.9873 -0.00229426 0)
(2.98779 -0.00309963 0)
(2.98789 -0.00285104 0)
(2.98764 -0.00179254 0)
(2.98765 -0.000816277 0)
(2.98751 -0.00114098 0)
(2.98772 -0.00164399 0)
(2.98791 -0.00198686 0)
(2.98793 -0.00193857 0)
(2.98786 -0.00174497 0)
(2.98789 -0.00139512 0)
(2.98779 -0.00158907 0)
(2.98793 -0.00183752 0)
(2.98802 -0.00197364 0)
(2.98799 -0.00190835 0)
(2.98792 -0.0017605 0)
(2.98786 -0.00146399 0)
(2.98787 -0.00154167 0)
(2.98788 -0.00166707 0)
(2.98788 -0.00167068 0)
(2.98783 -0.00158666 0)
(2.98773 -0.00144714 0)
(2.98764 -0.00122279 0)
(2.98759 -0.00110868 0)
(2.98758 -0.00113491 0)
(2.98761 -0.00117644 0)
(2.98765 -0.00133855 0)
(2.98768 -0.00145834 0)
(2.98767 -0.0015578 0)
(2.98765 -0.00163982 0)
(2.98759 -0.00163072 0)
(2.98753 -0.00157553 0)
(2.98746 -0.00162863 0)
(3.04173 -0.143569 0)
(3.04152 -0.143064 0)
(3.04111 -0.142065 0)
(3.04053 -0.140613 0)
(3.0398 -0.13881 0)
(3.03882 -0.136246 0)
(3.03788 -0.133889 0)
(3.03656 -0.130198 0)
(3.03546 -0.12734 0)
(3.03388 -0.122948 0)
(3.03247 -0.119242 0)
(3.03091 -0.114912 0)
(3.02895 -0.110101 0)
(3.02685 -0.106514 0)
(3.02402 -0.101539 0)
(3.02132 -0.0973271 0)
(3.01826 -0.0922771 0)
(3.01507 -0.0862365 0)
(3.01193 -0.0802808 0)
(3.00884 -0.0731881 0)
(3.00568 -0.0656233 0)
(3.0027 -0.0570413 0)
(3.00079 -0.0503121 0)
(2.99724 -0.0390247 0)
(2.99595 -0.0321959 0)
(2.99483 -0.0253506 0)
(2.99133 -0.0120631 0)
(2.99204 -0.0102767 0)
(2.99007 -0.00319501 0)
(2.98742 0.00665607 0)
(2.98761 0.00773928 0)
(2.98776 0.0101905 0)
(2.98599 0.0145771 0)
(2.9857 0.0156021 0)
(2.98581 0.0156067 0)
(2.98643 0.0135189 0)
(2.98808 0.00923328 0)
(2.98874 0.00685078 0)
(2.99026 0.00354181 0)
(2.99181 -0.000812408 0)
(2.99219 -0.00282768 0)
(2.99264 -0.00420436 0)
(2.99254 -0.00458967 0)
(2.9917 -0.00337433 0)
(2.99131 -0.00194542 0)
(2.99069 -0.000841924 0)
(2.99004 0.000661684 0)
(2.98949 0.000753918 0)
(2.98985 0.00143418 0)
(2.98931 -0.000254795 0)
(2.98946 -0.00138006 0)
(2.98983 -0.00288464 0)
(2.99012 -0.00389794 0)
(2.99031 -0.00496042 0)
(2.99003 -0.00367794 0)
(2.98956 -0.00288434 0)
(2.98868 -0.00176059 0)
(2.98805 -0.00121342 0)
(2.98775 -0.000148384 0)
(2.98775 -0.000393461 0)
(2.98783 -0.000905843 0)
(2.98814 -0.00208511 0)
(2.98842 -0.00172996 0)
(2.98832 -0.00165571 0)
(2.98801 -0.00146357 0)
(2.98765 -0.00130499 0)
(2.98756 -0.000749132 0)
(2.98761 -0.000963739 0)
(2.98787 -0.00168374 0)
(2.98808 -0.00160201 0)
(2.98802 -0.00162481 0)
(2.98785 -0.00166238 0)
(2.98769 -0.00104561 0)
(2.98775 -0.00107383 0)
(2.98784 -0.00114633 0)
(2.98802 -0.00160549 0)
(2.988 -0.001605 0)
(2.98798 -0.00158997 0)
(2.98784 -0.00139549 0)
(2.98787 -0.00152215 0)
(2.98797 -0.00179146 0)
(2.98799 -0.00184065 0)
(2.98794 -0.00167845 0)
(2.98784 -0.0014896 0)
(2.98782 -0.0015003 0)
(2.98782 -0.00153184 0)
(2.98782 -0.00157312 0)
(2.98779 -0.00160055 0)
(2.98771 -0.00146984 0)
(2.9876 -0.00127456 0)
(2.9875 -0.00100438 0)
(2.98746 -0.00106089 0)
(2.98748 -0.00115789 0)
(2.98752 -0.00122851 0)
(2.98756 -0.00141554 0)
(2.98755 -0.00160073 0)
(2.98755 -0.00164999 0)
(2.98752 -0.00166691 0)
(2.98745 -0.00156284 0)
(2.98737 -0.00159043 0)
(3.04012 -0.143582 0)
(3.04008 -0.143562 0)
(3.04004 -0.143531 0)
(3.03998 -0.143459 0)
(3.03991 -0.143356 0)
(3.03981 -0.143211 0)
(3.03966 -0.142999 0)
(3.03942 -0.142709 0)
(3.03909 -0.142273 0)
(3.03868 -0.14165 0)
(3.03818 -0.140731 0)
(3.0376 -0.13956 0)
(3.03689 -0.137944 0)
(3.0361 -0.136069 0)
(3.03512 -0.133606 0)
(3.0341 -0.13096 0)
(3.03287 -0.127794 0)
(3.03136 -0.123846 0)
(3.02999 -0.120579 0)
(3.02771 -0.114523 0)
(3.02611 -0.11084 0)
(3.02344 -0.104042 0)
(3.02076 -0.0966161 0)
(3.01897 -0.0923268 0)
(3.01488 -0.0803788 0)
(3.01264 -0.0745118 0)
(3.00973 -0.0664809 0)
(3.00585 -0.0540337 0)
(3.00316 -0.0463627 0)
(3.00082 -0.0394289 0)
(2.99796 -0.0303583 0)
(2.99459 -0.0177721 0)
(2.99408 -0.0178018 0)
(2.9922 -0.0113598 0)
(2.99079 -0.00580978 0)
(2.9901 -0.00276065 0)
(2.98874 0.000483848 0)
(2.98793 0.0017279 0)
(2.98873 0.00359954 0)
(2.98916 0.00419197 0)
(2.98976 0.00388485 0)
(2.99077 0.00328648 0)
(2.99227 0.00114649 0)
(2.99267 -0.000222935 0)
(2.99207 -0.00231281 0)
(2.99185 -0.00402718 0)
(2.99167 -0.0045954 0)
(2.99108 -0.00512011 0)
(2.99052 -0.00501747 0)
(2.98998 -0.00388169 0)
(2.98999 -0.0032275 0)
(2.99014 -0.00207075 0)
(2.99034 -0.00184007 0)
(2.99065 -0.00227942 0)
(2.99105 -0.00345336 0)
(2.99097 -0.00481386 0)
(2.99058 -0.00498728 0)
(2.98995 -0.00462553 0)
(2.98915 -0.00343427 0)
(2.98891 -0.00200909 0)
(2.98869 -0.000355159 0)
(2.98883 -0.000350783 0)
(2.989 -0.00146376 0)
(2.9891 -0.00317626 0)
(2.98899 -0.00330305 0)
(2.98853 -0.00265411 0)
(2.98825 -0.00179714 0)
(2.98799 -0.000751976 0)
(2.98805 -0.00105514 0)
(2.98821 -0.00185358 0)
(2.98833 -0.00280731 0)
(2.98819 -0.00241057 0)
(2.98809 -0.00189254 0)
(2.98791 -0.00117582 0)
(2.9879 -0.00140706 0)
(2.98798 -0.00177584 0)
(2.98799 -0.0019802 0)
(2.98792 -0.0017797 0)
(2.98787 -0.00160995 0)
(2.98779 -0.0016837 0)
(2.98782 -0.00182813 0)
(2.98787 -0.00201493 0)
(2.98784 -0.00193181 0)
(2.98776 -0.00178438 0)
(2.98771 -0.0015971 0)
(2.98765 -0.00161859 0)
(2.98763 -0.00168511 0)
(2.98762 -0.0016887 0)
(2.98757 -0.00161352 0)
(2.98748 -0.00141945 0)
(2.98736 -0.0012751 0)
(2.98727 -0.00112295 0)
(2.98727 -0.00114241 0)
(2.9873 -0.00124161 0)
(2.98734 -0.00140154 0)
(2.98735 -0.00151136 0)
(2.98735 -0.00162433 0)
(2.98735 -0.00167792 0)
(2.9873 -0.00164597 0)
(2.98721 -0.00164058 0)
(3.03724 -0.143349 0)
(3.03723 -0.143349 0)
(3.03723 -0.143349 0)
(3.03723 -0.143365 0)
(3.03723 -0.14338 0)
(3.0372 -0.143376 0)
(3.03717 -0.143359 0)
(3.03712 -0.143327 0)
(3.03706 -0.143288 0)
(3.03699 -0.14323 0)
(3.03692 -0.14316 0)
(3.03685 -0.143049 0)
(3.03677 -0.142934 0)
(3.03666 -0.142773 0)
(3.03651 -0.142561 0)
(3.03626 -0.142259 0)
(3.03597 -0.1419 0)
(3.0356 -0.141316 0)
(3.03517 -0.140452 0)
(3.03471 -0.13957 0)
(3.03402 -0.137832 0)
(3.03337 -0.136307 0)
(3.03239 -0.133693 0)
(3.03132 -0.130533 0)
(3.03001 -0.126948 0)
(3.02837 -0.122126 0)
(3.02614 -0.115649 0)
(3.02403 -0.109735 0)
(3.02125 -0.101547 0)
(3.01743 -0.0895995 0)
(3.01515 -0.083276 0)
(3.01014 -0.0688516 0)
(3.00636 -0.0555937 0)
(3.00415 -0.0489516 0)
(2.99743 -0.0274929 0)
(2.99693 -0.0247197 0)
(2.99311 -0.014162 0)
(2.98976 -0.00137198 0)
(2.98996 -0.00248566 0)
(2.98843 0.0018613 0)
(2.98693 0.00632461 0)
(2.9872 0.00675644 0)
(2.98711 0.00611128 0)
(2.98752 0.00434057 0)
(2.98852 0.00173374 0)
(2.98883 4.74058e-05 0)
(2.98917 -0.000594954 0)
(2.98973 -0.00170062 0)
(2.9897 -0.00273406 0)
(2.98979 -0.00264635 0)
(2.98975 -0.00173076 0)
(2.98936 -0.00049618 0)
(2.98923 -0.000469797 0)
(2.98899 -0.000880977 0)
(2.98924 -0.002401 0)
(2.98933 -0.00320899 0)
(2.98937 -0.00418919 0)
(2.98955 -0.0039992 0)
(2.98942 -0.0034375 0)
(2.98929 -0.00242551 0)
(2.98913 -0.00141151 0)
(2.98885 -0.000253779 0)
(2.98825 -0.000452035 0)
(2.98828 -0.00101567 0)
(2.98846 -0.00174801 0)
(2.98849 -0.00229545 0)
(2.9883 -0.00168035 0)
(2.98808 -0.00140944 0)
(2.98793 -0.000812811 0)
(2.98794 -0.000968082 0)
(2.98806 -0.00135105 0)
(2.98814 -0.00170727 0)
(2.98809 -0.00150948 0)
(2.98794 -0.00129473 0)
(2.98777 -0.000960782 0)
(2.98774 -0.00110232 0)
(2.98775 -0.00137867 0)
(2.98771 -0.00155232 0)
(2.98767 -0.00150936 0)
(2.98758 -0.00149215 0)
(2.98758 -0.00156738 0)
(2.98763 -0.00176914 0)
(2.98763 -0.00173998 0)
(2.98758 -0.00165877 0)
(2.98753 -0.00155953 0)
(2.98743 -0.0015484 0)
(2.98741 -0.00156632 0)
(2.9874 -0.00162002 0)
(2.98738 -0.00160246 0)
(2.98733 -0.00150705 0)
(2.98723 -0.00125729 0)
(2.9871 -0.0011031 0)
(2.98709 -0.00109858 0)
(2.9871 -0.0011577 0)
(2.98713 -0.00128751 0)
(2.98717 -0.00148678 0)
(2.98721 -0.00163827 0)
(2.98721 -0.00169339 0)
(2.98718 -0.00164534 0)
(2.9871 -0.00158563 0)
(3.03427 -0.143222 0)
(3.03425 -0.143212 0)
(3.03423 -0.143196 0)
(3.03421 -0.143186 0)
(3.0342 -0.143178 0)
(3.03418 -0.143172 0)
(3.03418 -0.143172 0)
(3.03419 -0.14317 0)
(3.03421 -0.143181 0)
(3.03422 -0.143198 0)
(3.03425 -0.143206 0)
(3.03426 -0.14321 0)
(3.03428 -0.143212 0)
(3.03427 -0.143202 0)
(3.03424 -0.143185 0)
(3.03419 -0.14314 0)
(3.03413 -0.143085 0)
(3.03407 -0.143003 0)
(3.03402 -0.142912 0)
(3.03396 -0.142797 0)
(3.03391 -0.14267 0)
(3.03384 -0.142446 0)
(3.03373 -0.142195 0)
(3.03353 -0.141842 0)
(3.03326 -0.14132 0)
(3.03287 -0.140423 0)
(3.03244 -0.139401 0)
(3.0317 -0.137347 0)
(3.03088 -0.13509 0)
(3.02975 -0.131877 0)
(3.02788 -0.126044 0)
(3.02641 -0.122113 0)
(3.02294 -0.111381 0)
(3.02054 -0.104266 0)
(3.01639 -0.0923521 0)
(3.01187 -0.0768372 0)
(3.00862 -0.0674256 0)
(3.00316 -0.0509582 0)
(3.0001 -0.0402147 0)
(2.99543 -0.0252789 0)
(2.99374 -0.0214446 0)
(2.99187 -0.0152551 0)
(2.99016 -0.00942571 0)
(2.98944 -0.00752355 0)
(2.98887 -0.00481694 0)
(2.98859 -0.00324608 0)
(2.98783 -0.00241364 0)
(2.9883 -0.000952563 0)
(2.98802 -0.00039741 0)
(2.98804 0.000139325 0)
(2.9879 -0.000153895 0)
(2.98753 -0.00118202 0)
(2.98722 -0.00207719 0)
(2.98684 -0.0030281 0)
(2.98717 -0.00419501 0)
(2.98748 -0.00417712 0)
(2.98785 -0.00390375 0)
(2.98835 -0.00410561 0)
(2.98866 -0.00387573 0)
(2.98856 -0.00376816 0)
(2.98823 -0.00348975 0)
(2.98774 -0.00315874 0)
(2.98738 -0.00221943 0)
(2.98729 -0.00160313 0)
(2.98748 -0.000875388 0)
(2.98764 -0.000894742 0)
(2.98779 -0.00138604 0)
(2.98774 -0.00204697 0)
(2.98768 -0.0020616 0)
(2.9875 -0.00148533 0)
(2.98759 -0.00130076 0)
(2.98771 -0.00134614 0)
(2.98781 -0.00185999 0)
(2.98772 -0.00189003 0)
(2.98759 -0.00175229 0)
(2.98744 -0.00132488 0)
(2.98747 -0.00141553 0)
(2.9875 -0.00174631 0)
(2.98748 -0.00181161 0)
(2.9874 -0.00170111 0)
(2.98741 -0.00164771 0)
(2.98745 -0.0017033 0)
(2.9875 -0.00197505 0)
(2.98749 -0.00184347 0)
(2.98745 -0.00174763 0)
(2.98738 -0.00159069 0)
(2.98736 -0.00159594 0)
(2.98736 -0.00166239 0)
(2.98736 -0.0016682 0)
(2.98733 -0.00160287 0)
(2.98727 -0.00142464 0)
(2.98716 -0.00115314 0)
(2.98713 -0.00110634 0)
(2.98712 -0.00113772 0)
(2.98716 -0.00129592 0)
(2.98722 -0.00149746 0)
(2.98728 -0.00161189 0)
(2.98729 -0.0017069 0)
(2.98727 -0.00168376 0)
(2.98723 -0.00165685 0)
(3.03262 -0.143129 0)
(3.03261 -0.143126 0)
(3.03261 -0.143114 0)
(3.03261 -0.143103 0)
(3.0326 -0.143084 0)
(3.0326 -0.143072 0)
(3.0326 -0.143054 0)
(3.0326 -0.143034 0)
(3.03259 -0.143029 0)
(3.03259 -0.143022 0)
(3.03259 -0.143022 0)
(3.0326 -0.14302 0)
(3.03259 -0.14302 0)
(3.03259 -0.143014 0)
(3.0326 -0.143017 0)
(3.03264 -0.143022 0)
(3.03267 -0.14303 0)
(3.03274 -0.143056 0)
(3.03277 -0.143069 0)
(3.03279 -0.143086 0)
(3.03282 -0.14308 0)
(3.03283 -0.143102 0)
(3.03286 -0.143069 0)
(3.03286 -0.143011 0)
(3.03286 -0.142942 0)
(3.03286 -0.142876 0)
(3.03285 -0.142777 0)
(3.03283 -0.14264 0)
(3.03278 -0.142406 0)
(3.03269 -0.142089 0)
(3.0325 -0.141527 0)
(3.03218 -0.14056 0)
(3.03165 -0.139099 0)
(3.0308 -0.136502 0)
(3.02944 -0.132584 0)
(3.02776 -0.127749 0)
(3.02474 -0.118676 0)
(3.02164 -0.10991 0)
(3.01694 -0.0952483 0)
(3.01342 -0.0841301 0)
(3.00637 -0.0607063 0)
(3.0048 -0.0549397 0)
(2.99649 -0.0305867 0)
(2.99369 -0.0205155 0)
(2.99361 -0.0157376 0)
(2.98868 -0.0042949 0)
(2.98738 0.00176556 0)
(2.98731 0.00276908 0)
(2.9868 0.00360145 0)
(2.98626 0.00178988 0)
(2.98618 -0.000674502 0)
(2.98641 -0.000995722 0)
(2.98612 -0.0024288 0)
(2.9863 -0.00261635 0)
(2.9866 -0.00260967 0)
(2.98705 -0.00154003 0)
(2.98754 -0.00146172 0)
(2.98731 -0.00136275 0)
(2.98744 -0.00267484 0)
(2.98745 -0.00337051 0)
(2.98743 -0.00401226 0)
(2.9876 -0.00426616 0)
(2.9873 -0.00338597 0)
(2.98733 -0.00274671 0)
(2.98735 -0.00188107 0)
(2.9874 -0.000981313 0)
(2.98732 -0.00104383 0)
(2.98738 -0.00123489 0)
(2.98747 -0.00146673 0)
(2.98737 -0.00134816 0)
(2.98749 -0.00107578 0)
(2.9875 -0.00116203 0)
(2.98754 -0.00134038 0)
(2.98753 -0.00166321 0)
(2.98762 -0.00154457 0)
(2.98758 -0.00136967 0)
(2.98755 -0.00107997 0)
(2.98753 -0.00132262 0)
(2.98753 -0.00162746 0)
(2.98752 -0.00175313 0)
(2.98759 -0.00162885 0)
(2.9876 -0.00155135 0)
(2.98766 -0.00165498 0)
(2.98769 -0.00186243 0)
(2.98769 -0.0018114 0)
(2.98767 -0.00169322 0)
(2.98764 -0.0016178 0)
(2.98764 -0.00162572 0)
(2.98766 -0.00167734 0)
(2.98766 -0.00166376 0)
(2.98763 -0.00155015 0)
(2.98757 -0.00127475 0)
(2.98749 -0.00113527 0)
(2.98749 -0.0011178 0)
(2.98753 -0.00120019 0)
(2.9876 -0.00136155 0)
(2.98768 -0.00156604 0)
(2.98771 -0.00172064 0)
(2.9877 -0.00170094 0)
(2.98768 -0.00162927 0)
(3.03284 -0.143135 0)
(3.03284 -0.143132 0)
(3.03285 -0.14313 0)
(3.03286 -0.143122 0)
(3.03286 -0.143107 0)
(3.03288 -0.143101 0)
(3.03289 -0.14309 0)
(3.03289 -0.143059 0)
(3.03291 -0.143042 0)
(3.03293 -0.143031 0)
(3.03295 -0.143014 0)
(3.03296 -0.143011 0)
(3.03298 -0.14301 0)
(3.03299 -0.142997 0)
(3.033 -0.142985 0)
(3.03302 -0.142979 0)
(3.03304 -0.142966 0)
(3.03305 -0.14296 0)
(3.03307 -0.142961 0)
(3.03309 -0.142967 0)
(3.03311 -0.142976 0)
(3.03314 -0.142979 0)
(3.03316 -0.142986 0)
(3.03319 -0.143006 0)
(3.03325 -0.143021 0)
(3.03328 -0.143039 0)
(3.03331 -0.143042 0)
(3.03334 -0.143058 0)
(3.03336 -0.143032 0)
(3.03331 -0.143034 0)
(3.0334 -0.142957 0)
(3.03347 -0.142899 0)
(3.03352 -0.142826 0)
(3.03353 -0.142677 0)
(3.03348 -0.142435 0)
(3.03335 -0.141887 0)
(3.03301 -0.140803 0)
(3.0324 -0.139001 0)
(3.03103 -0.134993 0)
(3.02932 -0.130156 0)
(3.02616 -0.121325 0)
(3.02231 -0.109379 0)
(3.01726 -0.0947019 0)
(3.01391 -0.0828314 0)
(3.00591 -0.0546429 0)
(3.00344 -0.0500387 0)
(2.99986 -0.0377117 0)
(2.99515 -0.0206324 0)
(2.99323 -0.0165924 0)
(2.99392 -0.0159942 0)
(2.9905 -0.0104798 0)
(2.99034 -0.00779433 0)
(2.98971 -0.00502969 0)
(2.98908 -0.00263422 0)
(2.98761 -0.000712264 0)
(2.9875 1.68247e-05 0)
(2.98738 -0.000460283 0)
(2.98718 -0.0013466 0)
(2.98712 -0.00278403 0)
(2.98727 -0.00422458 0)
(2.98753 -0.00457342 0)
(2.98768 -0.0045825 0)
(2.98821 -0.00349564 0)
(2.98813 -0.00307958 0)
(2.98789 -0.00245844 0)
(2.98745 -0.00242149 0)
(2.98734 -0.00220903 0)
(2.98748 -0.00166642 0)
(2.98747 -0.00130036 0)
(2.98764 -0.00102711 0)
(2.98769 -0.00108337 0)
(2.98774 -0.00125296 0)
(2.98785 -0.00158521 0)
(2.98793 -0.0017201 0)
(2.98809 -0.00174675 0)
(2.98808 -0.00168583 0)
(2.98803 -0.00162833 0)
(2.98802 -0.00138362 0)
(2.98801 -0.00152819 0)
(2.98802 -0.00164644 0)
(2.98812 -0.0017578 0)
(2.98816 -0.00173111 0)
(2.9882 -0.00169824 0)
(2.98825 -0.00173111 0)
(2.9883 -0.00179966 0)
(2.98829 -0.00178129 0)
(2.98827 -0.0016247 0)
(2.98826 -0.00165673 0)
(2.98829 -0.00168832 0)
(2.98831 -0.00167683 0)
(2.98831 -0.00160407 0)
(2.98828 -0.00139006 0)
(2.98821 -0.00113619 0)
(2.98818 -0.0011366 0)
(2.98822 -0.00122904 0)
(2.98828 -0.00138508 0)
(2.98836 -0.00154757 0)
(2.98842 -0.00171064 0)
(2.98842 -0.00172757 0)
(2.98841 -0.00168554 0)
(3.03436 -0.143208 0)
(3.03437 -0.143205 0)
(3.03438 -0.143199 0)
(3.0344 -0.143198 0)
(3.03441 -0.143192 0)
(3.03442 -0.14318 0)
(3.03444 -0.143178 0)
(3.03445 -0.143173 0)
(3.03447 -0.143163 0)
(3.03449 -0.143148 0)
(3.03451 -0.143122 0)
(3.03453 -0.143101 0)
(3.03455 -0.143098 0)
(3.03457 -0.143084 0)
(3.03458 -0.143072 0)
(3.0346 -0.143069 0)
(3.03462 -0.143059 0)
(3.03464 -0.143043 0)
(3.03466 -0.143032 0)
(3.03468 -0.143021 0)
(3.03471 -0.143025 0)
(3.03473 -0.143022 0)
(3.03475 -0.14301 0)
(3.03477 -0.143004 0)
(3.0348 -0.143022 0)
(3.03482 -0.143032 0)
(3.03485 -0.143031 0)
(3.03488 -0.143037 0)
(3.0349 -0.143056 0)
(3.03494 -0.143061 0)
(3.03495 -0.14305 0)
(3.03495 -0.143071 0)
(3.03496 -0.143076 0)
(3.03496 -0.143111 0)
(3.03497 -0.143076 0)
(3.03489 -0.143043 0)
(3.03501 -0.142993 0)
(3.03508 -0.142928 0)
(3.03508 -0.142779 0)
(3.03498 -0.142391 0)
(3.03463 -0.14135 0)
(3.03399 -0.139482 0)
(3.03236 -0.134825 0)
(3.03016 -0.128684 0)
(3.02632 -0.118014 0)
(3.02204 -0.103954 0)
(3.01528 -0.0827103 0)
(3.01215 -0.0721634 0)
(3.00357 -0.0438871 0)
(3.00248 -0.0356677 0)
(2.99561 -0.0139086 0)
(2.99477 -0.0106191 0)
(2.99303 -0.00291692 0)
(2.99084 0.00260437 0)
(2.98989 0.00321904 0)
(2.98903 -1.48139e-05 0)
(2.98853 -0.00189063 0)
(2.988 -0.00292665 0)
(2.98799 -0.00293552 0)
(2.98813 -0.00303581 0)
(2.9884 -0.00235604 0)
(2.98875 -0.0023441 0)
(2.98907 -0.00275045 0)
(2.98902 -0.00299545 0)
(2.98867 -0.00336156 0)
(2.98846 -0.00334519 0)
(2.98842 -0.0028075 0)
(2.98848 -0.0020467 0)
(2.98849 -0.00115003 0)
(2.98851 -0.000962417 0)
(2.98843 -0.0012813 0)
(2.98867 -0.00136243 0)
(2.98879 -0.00134125 0)
(2.98888 -0.00126178 0)
(2.9889 -0.00126023 0)
(2.98889 -0.00158546 0)
(2.98882 -0.00168633 0)
(2.98882 -0.00184774 0)
(2.98881 -0.00147809 0)
(2.98884 -0.00142139 0)
(2.9889 -0.00152535 0)
(2.98896 -0.00167904 0)
(2.98901 -0.00176746 0)
(2.98907 -0.00176008 0)
(2.98912 -0.00178955 0)
(2.98912 -0.00182266 0)
(2.98911 -0.00180197 0)
(2.98909 -0.00165206 0)
(2.98911 -0.00172514 0)
(2.98914 -0.00171875 0)
(2.98916 -0.00167416 0)
(2.98915 -0.00153839 0)
(2.98912 -0.00125001 0)
(2.98902 -0.00117837 0)
(2.98908 -0.0012082 0)
(2.98911 -0.00127135 0)
(2.98919 -0.00145214 0)
(2.98925 -0.00166494 0)
(2.98926 -0.00171914 0)
(2.98926 -0.00167421 0)
(3.0362 -0.143282 0)
(3.03621 -0.14327 0)
(3.03622 -0.143265 0)
(3.03623 -0.143264 0)
(3.03624 -0.143264 0)
(3.03625 -0.143264 0)
(3.03627 -0.143266 0)
(3.03628 -0.143269 0)
(3.03628 -0.143263 0)
(3.03629 -0.143257 0)
(3.03631 -0.143246 0)
(3.03632 -0.143229 0)
(3.03632 -0.14321 0)
(3.03634 -0.143191 0)
(3.03635 -0.143187 0)
(3.03637 -0.14318 0)
(3.03638 -0.143174 0)
(3.03639 -0.143176 0)
(3.0364 -0.143175 0)
(3.03642 -0.143167 0)
(3.03643 -0.143175 0)
(3.03645 -0.14317 0)
(3.03646 -0.143168 0)
(3.03648 -0.143165 0)
(3.0365 -0.143176 0)
(3.03651 -0.143162 0)
(3.03653 -0.143161 0)
(3.03655 -0.143162 0)
(3.03657 -0.143191 0)
(3.03659 -0.143192 0)
(3.03661 -0.14321 0)
(3.03664 -0.143223 0)
(3.03666 -0.14327 0)
(3.03669 -0.143291 0)
(3.03672 -0.143307 0)
(3.03674 -0.143314 0)
(3.03671 -0.143291 0)
(3.03667 -0.143314 0)
(3.03664 -0.143297 0)
(3.03654 -0.143263 0)
(3.03664 -0.143207 0)
(3.03671 -0.143153 0)
(3.03669 -0.142989 0)
(3.03653 -0.1424 0)
(3.03598 -0.140815 0)
(3.035 -0.13808 0)
(3.03248 -0.131214 0)
(3.02963 -0.122908 0)
(3.02395 -0.105688 0)
(3.02031 -0.0933696 0)
(3.01226 -0.0675678 0)
(3.00968 -0.0575906 0)
(3.00317 -0.0341581 0)
(3.0018 -0.0298842 0)
(2.99868 -0.0203648 0)
(2.99933 -0.0169692 0)
(2.99519 -0.0105314 0)
(2.99341 -0.00695338 0)
(2.99263 -0.0037609 0)
(2.99064 -0.00151645 0)
(2.99004 -0.000101382 0)
(2.98991 -0.000479189 0)
(2.98962 -0.00197659 0)
(2.98975 -0.00363637 0)
(2.98979 -0.00455131 0)
(2.98998 -0.00398823 0)
(2.99031 -0.00317889 0)
(2.99015 -0.00201364 0)
(2.99008 -0.0015687 0)
(2.98972 -0.00167744 0)
(2.98933 -0.00195841 0)
(2.98956 -0.00156721 0)
(2.98973 -0.00134897 0)
(2.98978 -0.00112528 0)
(2.98981 -0.00130493 0)
(2.98981 -0.00150772 0)
(2.98976 -0.00183268 0)
(2.98974 -0.00181714 0)
(2.98977 -0.00172176 0)
(2.9898 -0.00148557 0)
(2.98982 -0.00155952 0)
(2.98986 -0.00162095 0)
(2.98992 -0.00169791 0)
(2.98996 -0.00167772 0)
(2.99 -0.00177591 0)
(2.98999 -0.00182167 0)
(2.98999 -0.00181501 0)
(2.98997 -0.00176958 0)
(2.98998 -0.00170046 0)
(2.99 -0.00170687 0)
(2.99003 -0.0016753 0)
(2.99003 -0.00160453 0)
(2.99 -0.00144696 0)
(2.9899 -0.00112661 0)
(2.98992 -0.00126707 0)
(2.98995 -0.00131404 0)
(2.99 -0.0014298 0)
(2.99005 -0.00164255 0)
(2.99007 -0.0017366 0)
(2.99007 -0.00172033 0)
(3.03768 -0.143341 0)
(3.03769 -0.143339 0)
(3.03769 -0.143335 0)
(3.0377 -0.14333 0)
(3.0377 -0.143328 0)
(3.03771 -0.143326 0)
(3.03771 -0.143325 0)
(3.03772 -0.143324 0)
(3.03773 -0.143324 0)
(3.03773 -0.143323 0)
(3.03773 -0.143316 0)
(3.03773 -0.143308 0)
(3.03773 -0.143293 0)
(3.03774 -0.143279 0)
(3.03775 -0.143272 0)
(3.03776 -0.143277 0)
(3.03776 -0.143277 0)
(3.03776 -0.143283 0)
(3.03777 -0.143284 0)
(3.03777 -0.14329 0)
(3.03778 -0.143296 0)
(3.03778 -0.143303 0)
(3.03778 -0.1433 0)
(3.03779 -0.143305 0)
(3.03779 -0.143322 0)
(3.03779 -0.143331 0)
(3.0378 -0.14332 0)
(3.0378 -0.143338 0)
(3.0378 -0.143369 0)
(3.03781 -0.143387 0)
(3.03783 -0.143394 0)
(3.03784 -0.143424 0)
(3.03786 -0.143449 0)
(3.03789 -0.143493 0)
(3.03791 -0.14351 0)
(3.03794 -0.143524 0)
(3.03796 -0.143557 0)
(3.03797 -0.143581 0)
(3.03799 -0.143593 0)
(3.038 -0.143616 0)
(3.03796 -0.143569 0)
(3.03792 -0.14357 0)
(3.03786 -0.14349 0)
(3.03793 -0.143421 0)
(3.03797 -0.143388 0)
(3.03794 -0.143243 0)
(3.03778 -0.142783 0)
(3.03734 -0.141525 0)
(3.03615 -0.138482 0)
(3.03429 -0.133313 0)
(3.03 -0.121254 0)
(3.02663 -0.109957 0)
(3.0184 -0.0843913 0)
(3.01629 -0.0732394 0)
(3.00601 -0.0393241 0)
(3.00681 -0.0336503 0)
(2.99969 -0.0104757 0)
(2.99884 -0.00770949 0)
(2.99567 0.00303421 0)
(2.99379 0.00274253 0)
(2.99185 -0.000509047 0)
(2.99119 -0.00205487 0)
(2.99054 -0.00355322 0)
(2.99074 -0.00366551 0)
(2.99113 -0.00323383 0)
(2.9921 -0.00203409 0)
(2.99181 -0.00218425 0)
(2.99151 -0.00235091 0)
(2.99103 -0.00237538 0)
(2.99079 -0.00274038 0)
(2.99047 -0.00228891 0)
(2.99066 -0.00155037 0)
(2.99063 -0.00109499 0)
(2.99069 -0.0011543 0)
(2.99071 -0.00132161 0)
(2.99073 -0.00173763 0)
(2.99075 -0.00174975 0)
(2.9907 -0.00174964 0)
(2.99073 -0.00164761 0)
(2.99073 -0.00160898 0)
(2.99074 -0.00164 0)
(2.99076 -0.00163714 0)
(2.99082 -0.00164435 0)
(2.99084 -0.0016748 0)
(2.99085 -0.00176051 0)
(2.99084 -0.0018448 0)
(2.99083 -0.00185967 0)
(2.9908 -0.00182836 0)
(2.99078 -0.00178043 0)
(2.9908 -0.00170716 0)
(2.99082 -0.00168604 0)
(2.99081 -0.00165506 0)
(2.99078 -0.00157647 0)
(2.99069 -0.00136126 0)
(2.99064 -0.00122644 0)
(2.99068 -0.00124966 0)
(2.99071 -0.00136844 0)
(2.99074 -0.00154932 0)
(2.99077 -0.00172111 0)
(2.99076 -0.00171042 0)
(3.0386 -0.143364 0)
(3.03861 -0.143364 0)
(3.03861 -0.143366 0)
(3.03861 -0.143367 0)
(3.03862 -0.14337 0)
(3.03862 -0.143377 0)
(3.03862 -0.143385 0)
(3.03863 -0.143388 0)
(3.03863 -0.143388 0)
(3.03863 -0.143392 0)
(3.03862 -0.143389 0)
(3.03862 -0.143381 0)
(3.03862 -0.143379 0)
(3.03862 -0.143381 0)
(3.03862 -0.143383 0)
(3.03862 -0.143381 0)
(3.03863 -0.143384 0)
(3.03862 -0.143407 0)
(3.03862 -0.143429 0)
(3.03862 -0.14344 0)
(3.03861 -0.143453 0)
(3.0386 -0.143466 0)
(3.0386 -0.143469 0)
(3.03858 -0.143485 0)
(3.03857 -0.143498 0)
(3.03856 -0.143499 0)
(3.03855 -0.143502 0)
(3.03854 -0.143518 0)
(3.03853 -0.143555 0)
(3.03853 -0.143575 0)
(3.03853 -0.143579 0)
(3.03853 -0.14362 0)
(3.03853 -0.143647 0)
(3.03854 -0.14366 0)
(3.03854 -0.143681 0)
(3.03855 -0.143687 0)
(3.03857 -0.143684 0)
(3.03858 -0.143721 0)
(3.0386 -0.143755 0)
(3.03863 -0.143784 0)
(3.03866 -0.143797 0)
(3.03868 -0.143794 0)
(3.0387 -0.143793 0)
(3.03868 -0.143734 0)
(3.03865 -0.143695 0)
(3.03859 -0.14357 0)
(3.03859 -0.143561 0)
(3.0386 -0.143452 0)
(3.03855 -0.143294 0)
(3.03835 -0.142785 0)
(3.03782 -0.141547 0)
(3.03661 -0.138254 0)
(3.03418 -0.131952 0)
(3.03065 -0.120982 0)
(3.02471 -0.103122 0)
(3.0206 -0.0876542 0)
(3.01218 -0.058226 0)
(3.01028 -0.0506242 0)
(3.00463 -0.0280966 0)
(3.00495 -0.027024 0)
(3.00036 -0.0172062 0)
(2.9982 -0.0119192 0)
(2.99591 -0.00629246 0)
(2.99438 -0.00305778 0)
(2.9928 -7.94812e-05 0)
(2.99255 -0.000546319 0)
(2.9921 -0.00189745 0)
(2.9917 -0.00357482 0)
(2.99192 -0.00399639 0)
(2.99193 -0.00340898 0)
(2.99213 -0.00208349 0)
(2.99208 -0.00151915 0)
(2.99185 -0.0013518 0)
(2.99168 -0.00190183 0)
(2.99146 -0.00174988 0)
(2.99146 -0.00163657 0)
(2.99154 -0.00153893 0)
(2.99154 -0.00149078 0)
(2.99154 -0.00160225 0)
(2.99154 -0.00184807 0)
(2.99151 -0.00167493 0)
(2.99152 -0.00160873 0)
(2.99153 -0.00154889 0)
(2.99154 -0.00158806 0)
(2.99155 -0.00170545 0)
(2.99155 -0.00175232 0)
(2.99152 -0.00183641 0)
(2.9915 -0.00186062 0)
(2.99147 -0.00181548 0)
(2.99146 -0.00174402 0)
(2.99146 -0.00167202 0)
(2.99146 -0.00167196 0)
(2.99143 -0.00165474 0)
(2.99135 -0.00150327 0)
(2.99123 -0.00132581 0)
(2.9913 -0.00129438 0)
(2.99126 -0.00137095 0)
(2.99127 -0.00149085 0)
(2.99131 -0.00167506 0)
(2.99129 -0.00173294 0)
(3.039 -0.143434 0)
(3.039 -0.143449 0)
(3.039 -0.143455 0)
(3.03901 -0.143467 0)
(3.03901 -0.143482 0)
(3.03901 -0.143484 0)
(3.03901 -0.14349 0)
(3.03901 -0.143501 0)
(3.03901 -0.143501 0)
(3.03901 -0.143507 0)
(3.039 -0.143517 0)
(3.03901 -0.143518 0)
(3.039 -0.14353 0)
(3.03899 -0.143548 0)
(3.039 -0.143551 0)
(3.039 -0.143559 0)
(3.03899 -0.143575 0)
(3.03899 -0.14359 0)
(3.03898 -0.143605 0)
(3.03898 -0.143611 0)
(3.03897 -0.14362 0)
(3.03895 -0.143644 0)
(3.03893 -0.143648 0)
(3.03891 -0.143648 0)
(3.03888 -0.143654 0)
(3.03885 -0.143667 0)
(3.03883 -0.143668 0)
(3.03881 -0.14368 0)
(3.0388 -0.143696 0)
(3.03879 -0.1437 0)
(3.03877 -0.143713 0)
(3.03876 -0.143736 0)
(3.03876 -0.14375 0)
(3.03875 -0.143764 0)
(3.03874 -0.143782 0)
(3.03874 -0.143789 0)
(3.03874 -0.143788 0)
(3.03875 -0.143802 0)
(3.03877 -0.143827 0)
(3.03879 -0.143853 0)
(3.03882 -0.143859 0)
(3.03886 -0.143872 0)
(3.03891 -0.143884 0)
(3.03895 -0.143887 0)
(3.03896 -0.143855 0)
(3.03895 -0.143828 0)
(3.03892 -0.143765 0)
(3.03886 -0.143671 0)
(3.03885 -0.143657 0)
(3.03881 -0.143602 0)
(3.03874 -0.143466 0)
(3.03862 -0.143311 0)
(3.03832 -0.142715 0)
(3.03766 -0.14113 0)
(3.03607 -0.136981 0)
(3.03351 -0.129432 0)
(3.02829 -0.114315 0)
(3.02388 -0.0984371 0)
(3.0147 -0.0695144 0)
(3.01167 -0.0531569 0)
(3.00492 -0.0269418 0)
(3.00116 -0.01294 0)
(2.99919 -0.0028552 0)
(2.99684 0.00402972 0)
(2.99476 0.00240869 0)
(2.99345 -0.00126396 0)
(2.99265 -0.00384021 0)
(2.99272 -0.00399322 0)
(2.99293 -0.00345883 0)
(2.9933 -0.00178353 0)
(2.99315 -0.00147794 0)
(2.99274 -0.00173025 0)
(2.99226 -0.00237236 0)
(2.99208 -0.00238681 0)
(2.99213 -0.00196819 0)
(2.9921 -0.00145033 0)
(2.992 -0.00112512 0)
(2.99201 -0.00137049 0)
(2.99199 -0.0017557 0)
(2.99199 -0.00188216 0)
(2.99203 -0.00180151 0)
(2.99202 -0.00160422 0)
(2.99201 -0.00157694 0)
(2.992 -0.00162561 0)
(2.99201 -0.00166433 0)
(2.99201 -0.00170576 0)
(2.99199 -0.00183453 0)
(2.99198 -0.00186279 0)
(2.99195 -0.00183384 0)
(2.99193 -0.00176294 0)
(2.99192 -0.00169933 0)
(2.9919 -0.00170728 0)
(2.99188 -0.00171981 0)
(2.99183 -0.00162496 0)
(2.99169 -0.00143978 0)
(2.9917 -0.00126608 0)
(2.99162 -0.0013524 0)
(2.99163 -0.00141266 0)
(2.99167 -0.00156936 0)
(2.99166 -0.0017041 0)
(3.03897 -0.143529 0)
(3.03897 -0.143548 0)
(3.03898 -0.143564 0)
(3.03898 -0.143564 0)
(3.03899 -0.143562 0)
(3.03898 -0.143584 0)
(3.03898 -0.14361 0)
(3.03898 -0.143617 0)
(3.03898 -0.143625 0)
(3.03898 -0.143647 0)
(3.03899 -0.14366 0)
(3.03899 -0.143661 0)
(3.03899 -0.143675 0)
(3.03898 -0.143698 0)
(3.03899 -0.143712 0)
(3.03899 -0.143721 0)
(3.03898 -0.143733 0)
(3.03897 -0.143743 0)
(3.03897 -0.143756 0)
(3.03896 -0.143769 0)
(3.03894 -0.143776 0)
(3.03892 -0.14378 0)
(3.0389 -0.143782 0)
(3.03888 -0.143784 0)
(3.03885 -0.143781 0)
(3.03882 -0.143779 0)
(3.03879 -0.143783 0)
(3.03877 -0.14378 0)
(3.03875 -0.143771 0)
(3.03874 -0.143765 0)
(3.03873 -0.143764 0)
(3.03871 -0.143771 0)
(3.0387 -0.143773 0)
(3.03869 -0.143777 0)
(3.03868 -0.143792 0)
(3.03867 -0.143803 0)
(3.03867 -0.143803 0)
(3.03867 -0.143815 0)
(3.03868 -0.143843 0)
(3.0387 -0.143869 0)
(3.03873 -0.143879 0)
(3.03876 -0.14389 0)
(3.0388 -0.143901 0)
(3.03885 -0.143924 0)
(3.0389 -0.143943 0)
(3.03893 -0.14394 0)
(3.03893 -0.143908 0)
(3.0389 -0.143856 0)
(3.03887 -0.14382 0)
(3.03881 -0.143774 0)
(3.03874 -0.143698 0)
(3.03867 -0.143599 0)
(3.03861 -0.143524 0)
(3.03853 -0.143473 0)
(3.03837 -0.143208 0)
(3.03804 -0.142392 0)
(3.03707 -0.139816 0)
(3.03532 -0.134583 0)
(3.03102 -0.122373 0)
(3.02708 -0.109037 0)
(3.01823 -0.0796219 0)
(3.01555 -0.0686684 0)
(3.00737 -0.0393075 0)
(3.00615 -0.033295 0)
(3.00224 -0.0217022 0)
(3.00069 -0.0159442 0)
(2.99778 -0.00870133 0)
(2.99611 -0.00456844 0)
(2.99341 -0.000688484 0)
(2.99297 -0.000897968 0)
(2.99242 -0.00181692 0)
(2.99195 -0.00355557 0)
(2.99224 -0.00355058 0)
(2.9925 -0.00268552 0)
(2.99263 -0.00193307 0)
(2.99263 -0.00137902 0)
(2.99235 -0.00147428 0)
(2.99206 -0.00180665 0)
(2.99206 -0.00182994 0)
(2.99215 -0.00180853 0)
(2.99224 -0.00160533 0)