/*--------------------------------*- C++ -*----------------------------------*\
  =========                 |
  \\      /  F ield         | OpenFOAM: The Open Source CFD Toolbox
   \\    /   O peration     | Website:  https://openfoam.org
    \\  /    A nd           | Version:  7
     \\/     M anipulation  |
\*---------------------------------------------------------------------------*/
FoamFile
{
    version     2.0;
    format      ascii;
    class       volScalarField;
    location    "2.3";
    object      T;
}
// * * * * * * * * * * * * * * * * * * * * * * * * * * * * * * * * * * * * * //

dimensions      [0 0 0 1 0 0 0];

internalField   nonuniform List<scalar> 
1750
(
1.23792
1.52138
1.51941
1.51374
1.5494
1.51521
1.45843
1.50235
1.50029
1.40033
0.397514
0.612433
1.07957
1.49011
1.77816
1.78117
1.7019
1.65
1.57744
1.4045
0.357275
0.354468
0.357818
0.520648
0.932431
1.49363
1.71658
1.69361
1.61483
1.41582
0.398705
0.398019
0.407066
0.434403
0.449024
0.627154
1.2336
1.34751
1.25812
1.24641
0.456789
0.483143
0.502318
0.517932
0.528327
0.525372
0.564648
0.705827
0.676341
0.855702
0.552641
0.568074
0.578454
0.581364
0.590865
0.603567
0.610756
0.617049
0.621963
0.674472
0.675964
0.677312
0.677044
0.679183
0.684586
0.689163
0.69307
0.694193
0.69702
0.719901
0.81262
0.804208
0.795453
0.784679
0.777115
0.771484
0.761032
0.755516
0.757894
0.775791
0.938998
0.925177
0.911407
0.896449
0.880775
0.870226
0.858205
0.841851
0.835929
0.840149
1.00562
0.998954
0.990423
0.980824
0.969232
0.956565
0.944839
0.929882
0.917307
0.908311
1.0158
1.01423
1.01209
1.00938
1.00578
1.00081
0.995143
0.988048
0.978471
0.965967
1.01144
1.01131
1.01081
1.00974
1.00816
1.00623
1.00431
1.00243
0.999878
0.994571
1.00269
1.00331
1.00391
1.00433
1.00425
1.00387
1.00307
1.00203
1.00117
1.00005
1.00013
1.00019
1.0003
1.00043
1.00056
1.00064
1.00061
1.0005
1.00031
1.00009
1
1
1.00001
1.00001
1.00001
1.00002
1.00002
1.00002
1.00002
1.00001
0.499513
0.417663
0.35697
0.365611
0.436312
0.544105
0.673704
0.822363
0.951443
1.01033
1.017
1.01116
1.00213
1.00009
1
0.495725
0.395572
0.35415
0.375072
0.462729
0.590045
0.730155
0.874264
0.981618
1.01812
1.01799
1.00923
1.00118
1.00003
1
0.488557
0.389433
0.350709
0.386313
0.498204
0.637029
0.774978
0.910938
0.998882
1.02085
1.01846
1.00714
1.00065
1.00002
1
0.479201
0.377011
0.34183
0.432763
0.561488
0.681451
0.819311
0.946716
1.01304
1.0228
1.01736
1.00486
1.00031
1.00001
1
0.46082
0.359968
0.356469
0.48721
0.590462
0.721822
0.866202
0.979861
1.02236
1.0239
1.01489
1.00294
1.00014
1
1
0.447321
0.341409
0.406174
0.507858
0.629025
0.777021
0.919783
1.00501
1.02647
1.02437
1.01157
1.00153
1.00005
1
1
0.448471
0.335312
0.433993
0.529612
0.681761
0.847187
0.962755
1.02017
1.02819
1.0226
1.00764
1.00069
1.00002
1
1
0.43369
0.361416
0.44079
0.602515
0.77214
0.904831
0.995328
1.02866
1.02877
1.01872
1.00424
1.00025
1.00001
1
1
0.445391
0.402562
0.492037
0.683213
0.838799
0.954183
1.01912
1.032
1.02893
1.01336
1.00189
1.00008
1
1
1
0.440447
0.446721
0.609168
0.775158
0.905335
0.997527
1.03135
1.03287
1.02421
1.00766
1.00075
1.00002
1
1
1
0.465618
0.489117
0.688264
0.860119
0.968377
1.02396
1.03536
1.03303
1.0181
1.00364
1.00022
1.00001
1
1
1
0.0774509
0.544213
0.802244
0.936894
1.01102
1.03606
1.03617
1.02792
1.01023
1.00124
1.00005
1
1
1
1
0.227651
0.690959
0.90009
0.996333
1.03324
1.03911
1.03591
1.01973
1.0043
1.00033
1.00001
1
1
1
1
0.472239
0.81588
0.978398
1.029
1.04127
1.03951
1.02764
1.00961
1.00125
1.00006
1
1
1
1
1
0.811551
0.973601
1.02932
1.0404
1.04231
1.03442
1.017
1.00348
1.00026
1.00001
1
1
1
1
1
1.04113
1.04198
1.04268
1.0419
1.04011
1.0241
1.00674
1.00045
1.00001
1
1
1
1
1
1
1.04106
1.0424
1.04328
1.04138
1.03802
1.02244
1.00629
1.00066
1.00003
1
1
1
1
1
1
1.04106
1.0432
1.04385
1.0416
1.03357
1.01381
1.00208
1.0001
1
1
1
1
1
1
1
1.0411
1.04367
1.04387
1.03942
1.02695
1.00886
1.00097
1.00004
1
1
1
1
1
1
1
1.04132
1.04418
1.04362
1.03615
1.02062
1.00457
1.00033
1.00001
1
1
1
1
1
1
1
1.0423
1.04456
1.04355
1.032
1.01314
1.00193
1.0001
1
1
1
1
1
1
1
1
1.04417
1.04405
1.0418
1.02475
1.00712
1.00074
1.00003
1
1
1
1
1
1
1
1
1.04832
1.04111
1.03646
1.01678
1.00342
1.00023
1.00001
1
1
1
1
1
1
1
1
1.05183
1.03826
1.02861
1.00991
1.00131
1.00006
1
1
1
1
1
1
1
1
1
1.05352
1.03463
1.01951
1.00461
1.00042
1.00002
1
1
1
1
1
1
1
1
1
1.05294
1.02789
1.0119
1.00195
1.00012
1
1
1
1
1
1
1
1
1
1
1.04709
1.02086
1.00582
1.00059
1.00002
1
1
1
1
1
1
1
1
1
1
1.03862
1.0133
1.00235
1.00014
1
1
1
1
1
1
1
1
1
1
1
1.0274
1.00604
1.00056
1.00002
1
1
1
1
1
1
1
1
1
1
1
1.01217
1.00178
1.00009
1
1
1
1
1
1
1
1
1
1
1
1
1
1
1
1
1
1
1
1
1
1
1
1
1
1
1
1
1
1
1
1
1
1
1
1
1
1
1
1
1
1
1
1
1
1
1
1
1
1
1
1
1
1
1
1
1
1
1
1
1
1
1
1
1
1
1
1
1
1
1
1
1
1
1
1
1
1
1
1
1
1
1
1
1
1
1
1
1
1
1
1
1
1
1
1
1
1
1
1
1
1
1
1
1
1
1
1
1
1
1
1
1
1
1
1
1
1
1
1
1
1
1
1
1
1
1
1
1
1
1
1
1
1
1
1
1
1
1
1
1
1
1
1
1
1
1
1
1
1
1
1
1
1
1
1
1
1
1
1
1
1
1
1
1
1
1
1
1
1
1
1
1
1
1
1
1
1
1
1
1
1
1
1
1
1
1
1
1
1
1
1
1
1
1
1
1
1
1
1
1
1
1
1
1
1
1
1
1
1
1
1
1
1
1
1
1
1
1
1
1
1
1
1
1
1
1
1
1
1
1
1
1
1
1
1
1
1
1
1
1
1
1
1
1
1
1
1
1
1
1
1
1
1
1
1
1
1
1
1
1
1
1
1
1
1
1
1
1
1
1
1
1
1
1
1
1
1
1
1
1
1
1
1
1
1
1
1
1
1
1
1
1
1
1
1
1
1
1
1
1
1
1
1
1
1
1
1
1
1
1
1
1
1
1
1
1
1
1
1
1
1
1
1
1
1
1
1
1
1
1
1
1
1
1
1
1
1
1
1
1
1
1
1
1
1
1
1
1
1
1
1
1
1
1
1
1
1
1
1
1
1
1.25995
0.999998
1
1
1
1
1
1
1
1
1
1
1
1
1
1
1
1
1
1
2.22574
1.89701
1.23312
0.999998
1
1
1
1
1
1
1
1
1
1
1
1
1
1
1
1
2.42765
2.31971
2.38727
1.7895
1.02224
1
1
1
1
1
1
1
1
1
1
1
1
1
1
1
2.32327
2.27614
2.35617
2.31344
1.85419
1.06245
0.999809
1
1
1
1
1
1
1
1
1
1
1
1
1
2.26111
2.25231
2.28354
2.28412
2.25445
1.7217
1.01815
1
1
1
1
1
1
1
1
1
1
1
1
1
2.22099
2.21856
2.24476
2.25137
2.25186
2.12961
1.50914
0.998384
1.00001
1
1
1
1
1
1
1
1
1
1
1
2.19633
2.19741
2.22366
2.23618
2.2394
2.19774
1.95694
1.20477
0.999271
1
1
1
1
1
1
1
1
1
1
1
2.18306
2.18468
2.20592
2.21414
2.21423
2.18325
2.08585
1.62745
1.01488
1
1
1
1
1
1
1
1
1
1
1
2.17327
2.17269
2.1897
2.19843
2.19995
2.17643
2.11841
1.90245
1.22698
0.999224
1
1
1
1
1
1
1
1
1
1
2.16574
2.16371
2.17704
2.18456
2.18568
2.16434
2.1188
2.02937
1.59078
1.01017
1
1
1
1
1
1
1
1
1
1
2.16163
2.15878
2.16698
2.17126
2.17034
2.14945
2.113
2.04463
1.81533
1.16232
0.999999
1
1
1
1
1
1
1
1
1
2.15987
2.15638
2.16017
2.16025
2.15612
2.13539
2.10419
2.05538
1.95439
1.44677
0.998654
1
1
1
1
1
1
1
1
1
2.15673
2.15291
2.1545
2.15073
2.14256
2.12101
2.09326
2.05438
1.99912
1.71335
1.06615
0.999999
1
1
1
1
1
1
1
1
2.15045
2.14661
2.14752
2.14215
2.13313
2.11357
2.08721
2.05721
2.02112
1.87252
1.29031
0.999999
1
1
1
1
1
1
1
1
2.13987
2.13713
2.13829
2.13238
2.12351
2.10621
2.08069
2.05402
2.01981
1.94759
1.48917
0.96717
1
1
1
1
1
1
1
1
1.59196
1.81545
1.91182
1.97546
2.01737
2.04075
2.04074
2.03137
2.01431
1.99681
1.89432
1.38103
1.02012
1.00015
1
1
1
1
1
1
1.18435
1.55785
1.66111
1.75185
1.84123
1.90938
1.94433
1.9616
1.97451
1.98151
1.97553
1.81009
1.27662
1.01057
1.00007
1
1
1
1
1
1.13792
1.35112
1.47008
1.57287
1.65811
1.76041
1.82806
1.87251
1.90592
1.94236
1.94698
1.92881
1.66501
1.13283
1.00246
1.00001
1
1
1
1
1.19162
1.2447
1.28829
1.40782
1.51032
1.60386
1.70281
1.77341
1.82959
1.86868
1.89096
1.90515
1.84129
1.4339
1.03621
1.00034
1
1
1
1
1.25961
1.18528
1.16488
1.26091
1.37994
1.47205
1.57521
1.66222
1.73568
1.77973
1.81539
1.86619
1.85721
1.68618
1.20156
1.00576
1.00003
1
1
1
1.28726
1.17617
1.12167
1.1945
1.29178
1.38981
1.48031
1.57284
1.63972
1.68616
1.73283
1.80979
1.83613
1.77467
1.43017
1.0418
1.0004
1
1
1
1.28211
1.18157
1.11762
1.15122
1.21582
1.31957
1.41166
1.50324
1.5688
1.61435
1.65483
1.7368
1.79858
1.7748
1.58746
1.1542
1.00379
1.00002
1
1
1.2711
1.18789
1.12661
1.11272
1.12933
1.23285
1.32842
1.42031
1.49671
1.55411
1.6005
1.67079
1.75015
1.75659
1.65875
1.30646
1.02021
1.00015
1
1
1.26628
1.2095
1.1492
1.09988
1.07997
1.15085
1.24735
1.32053
1.403
1.48062
1.54462
1.611
1.69322
1.72392
1.67615
1.43289
1.07018
1.00102
1
1
1.26104
1.21436
1.15038
1.10029
1.08262
1.13097
1.20303
1.27362
1.33183
1.40931
1.48153
1.5492
1.6296
1.68632
1.66083
1.50245
1.15082
1.00462
1.00002
1
1.24644
1.21038
1.14429
1.08877
1.0733
1.10538
1.16311
1.24194
1.29877
1.37063
1.43898
1.50222
1.5729
1.64174
1.63358
1.53105
1.23494
1.01569
1.00013
1
1.22736
1.19836
1.13576
1.08375
1.06505
1.0767
1.10621
1.19298
1.25801
1.33645
1.40656
1.4664
1.53163
1.60093
1.60468
1.53562
1.31199
1.04089
1.00053
1
1.2214
1.19324
1.13647
1.0873
1.06788
1.06372
1.0627
1.11827
1.18891
1.27352
1.35719
1.42452
1.49021
1.55982
1.58119
1.5283
1.35505
1.07859
1.0017
1.00001
1.22323
1.19398
1.14306
1.09755
1.07607
1.06441
1.06152
1.10284
1.16133
1.21343
1.30005
1.37223
1.43825
1.50926
1.5518
1.51123
1.3731
1.11432
1.00396
1.00002
1.22184
1.1944
1.14828
1.10527
1.0792
1.06391
1.06406
1.10453
1.15858
1.21773
1.28687
1.3507
1.40806
1.46963
1.52237
1.49299
1.37479
1.14216
1.00747
1.00005
1.21604
1.18241
1.14262
1.1013
1.07306
1.05401
1.05773
1.09327
1.14991
1.21401
1.27805
1.34217
1.39138
1.44378
1.49653
1.47197
1.3697
1.16344
1.01208
1.00011
1.23181
1.15326
1.1269
1.09249
1.06702
1.05343
1.05843
1.07736
1.10768
1.18408
1.24711
1.31798
1.36678
1.41305
1.46472
1.44351
1.35727
1.17887
1.01828
1.00021
1.21526
1.1175
1.10526
1.08736
1.06802
1.0567
1.06389
1.07977
1.09875
1.15262
1.21435
1.27494
1.327
1.36872
1.4187
1.40632
1.33265
1.17787
1.02429
1.00038
1.21766
1.09547
1.07705
1.08521
1.07653
1.06863
1.07137
1.08399
1.10076
1.14629
1.20937
1.26398
1.30307
1.33402
1.38038
1.37613
1.31231
1.17537
1.02679
1.00049
1.2273
1.09485
1.06642
1.08342
1.0938
1.08886
1.0846
1.09189
1.10937
1.14726
1.19951
1.2508
1.27822
1.30182
1.34974
1.34916
1.29266
1.16684
1.02627
1.00049
1.20563
1.08161
1.05484
1.0848
1.10752
1.10991
1.10817
1.10922
1.12786
1.15478
1.18396
1.22017
1.23623
1.25588
1.30566
1.30894
1.26259
1.15119
1.02368
1.00045
1.20519
1.08834
1.06034
1.08373
1.11423
1.14107
1.14023
1.1398
1.15012
1.15717
1.15978
1.17518
1.1817
1.20115
1.25703
1.26437
1.22874
1.12738
1.01794
1.00031
1.33573
1.19728
1.11942
1.10489
1.11543
1.14619
1.17005
1.16731
1.15204
1.14436
1.12621
1.12064
1.12304
1.14957
1.21707
1.22596
1.19341
1.09647
1.01041
1.00015
1.4065
1.31896
1.23367
1.17031
1.1357
1.14455
1.16201
1.16331
1.14128
1.10583
1.08081
1.06725
1.06815
1.12135
1.19042
1.19396
1.15781
1.06163
1.00411
1.00004
1.34264
1.26494
1.18965
1.14376
1.10361
1.0961
1.09698
1.09033
1.06347
1.02552
1.01083
1.01865
1.03797
1.10112
1.15126
1.14747
1.09976
1.0214
1.00067
1
)
;

boundaryField
{
    inlet
    {
        type            fixedValue;
        value           uniform 1;
    }
    outlet
    {
        type            inletOutlet;
        inletValue      uniform 1;
        value           nonuniform List<scalar> 
35
(
1.34036
1.26249
1.18728
1.14159
1.10159
1.09371
1.09491
1.08793
1.06093
1.02318
1.00882
1.01802
1.0388
1.10257
1.15067
1.14589
1.09617
1.01935
1.00056
1
1.39778
1.40159
1.41114
1.24371
0.855551
0.675866
0.720579
0.776576
0.840699
0.908644
0.966053
0.994544
1.00002
1.00008
1.00001
)
;
    }
    airfoil
    {
        type            zeroGradient;
    }
    top
    {
        type            symmetryPlane;
    }
    bottom
    {
        type            symmetryPlane;
    }
    defaultFaces
    {
        type            empty;
    }
}


// ************************************************************************* //
