/*--------------------------------*- C++ -*----------------------------------*\
  =========                 |
  \\      /  F ield         | OpenFOAM: The Open Source CFD Toolbox
   \\    /   O peration     | Website:  https://openfoam.org
    \\  /    A nd           | Version:  7
     \\/     M anipulation  |
\*---------------------------------------------------------------------------*/
FoamFile
{
    version     2.0;
    format      ascii;
    class       volScalarField;
    location    "6.2001";
    object      rho;
}
// * * * * * * * * * * * * * * * * * * * * * * * * * * * * * * * * * * * * * //

dimensions      [1 -3 0 0 0 0 0];

internalField   nonuniform List<scalar> 
324000
(
0.405555
0.583459
0.814184
0.971126
1.0528
1.03483
1.03645
1.03999
1.02698
1.01239
1.02104
1.0483
1.0723
1.0732
1.06628
1.06286
1.06703
1.07707
1.08584
1.08893
1.08985
1.09389
1.10125
1.10881
1.11266
1.11647
1.12185
1.12934
1.13587
1.13789
1.13948
1.14352
1.14985
1.15409
1.15566
1.15807
1.16285
1.16815
1.17027
1.17119
1.1732
1.17444
1.17475
1.17512
1.17609
1.17775
1.1795
1.18148
1.18403
1.18522
1.18377
1.18044
1.17871
1.1793
1.18074
1.18063
1.17919
1.17716
1.1749
1.17275
1.17196
1.17265
1.1739
1.173
1.17137
1.16965
1.16743
1.16638
1.16632
1.16786
1.16936
1.17146
1.17206
1.17328
1.17399
1.17558
1.17719
1.17706
1.1784
1.18144
0.248266
0.250203
0.302954
0.4998
0.743745
0.889301
0.981543
0.970638
0.971971
0.974141
0.992539
1.0117
0.998842
0.999218
1.00194
1.00973
1.0185
1.02367
1.02532
1.02838
1.03384
1.04093
1.0479
1.0526
1.05766
1.06381
1.07076
1.07736
1.0835
1.08923
1.09441
1.0995
1.10465
1.11046
1.1164
1.12186
1.1269
1.13221
1.1375
1.14215
1.14661
1.15178
1.15629
1.15894
1.16079
1.16291
1.16482
1.16626
1.16789
1.17075
1.17333
1.17278
1.17098
1.1703
1.17139
1.17432
1.17662
1.17682
1.17523
1.17312
1.17069
1.16918
1.16952
1.1713
1.17124
1.16982
1.16833
1.16646
1.16551
1.16596
1.1674
1.17071
1.17171
1.17327
1.17429
1.17696
1.1793
1.17833
1.17793
1.1794
0.248825
0.249113
0.249935
0.25063
0.290621
0.435998
0.650802
0.811955
0.943135
0.97976
1.00485
0.985884
0.944403
0.945995
0.961127
0.975838
0.987506
0.983114
0.978457
0.979826
0.985561
0.994982
1.00213
1.00547
1.00806
1.01446
1.02245
1.02802
1.03161
1.03588
1.04259
1.0494
1.05464
1.06
1.06676
1.07444
1.08158
1.08767
1.09382
1.10043
1.10677
1.1128
1.1193
1.12614
1.13332
1.13997
1.14506
1.14815
1.14961
1.15108
1.15352
1.15668
1.15944
1.16055
1.16089
1.16141
1.1628
1.16579
1.1698
1.17126
1.16973
1.16707
1.16517
1.16455
1.16583
1.16769
1.16804
1.16686
1.16614
1.16558
1.1658
1.16768
1.16829
1.1711
1.17383
1.17705
1.17968
1.17959
1.17897
1.17781
0.249749
0.250291
0.251234
0.252081
0.252721
0.253048
0.269805
0.37948
0.577942
0.765733
0.909298
0.920313
0.941169
0.95547
0.962392
0.967702
0.964391
0.961535
0.963305
0.967772
0.970137
0.969653
0.971127
0.97624
0.981973
0.984744
0.98705
0.99012
0.994041
0.998138
1.00163
1.00625
1.01101
1.01626
1.02245
1.02838
1.03411
1.04075
1.04763
1.05419
1.0604
1.0667
1.07347
1.08091
1.08851
1.09633
1.10385
1.1106
1.11639
1.12088
1.12443
1.12863
1.13441
1.14081
1.14552
1.14734
1.14803
1.14913
1.15163
1.15555
1.15958
1.16117
1.16025
1.1583
1.15702
1.15728
1.15985
1.1634
1.16561
1.16626
1.16588
1.16598
1.16501
1.16639
1.16906
1.17454
1.17892
1.17954
1.17923
1.17749
0.250866
0.251483
0.252241
0.252962
0.253538
0.253803
0.254082
0.254309
0.257343
0.333608
0.503698
0.721096
0.906491
0.953058
0.967805
0.963541
0.946753
0.947756
0.955568
0.962987
0.966896
0.963714
0.960198
0.962393
0.968926
0.973187
0.971399
0.970753
0.972292
0.97659
0.980236
0.980339
0.981771
0.985105
0.989656
0.994191
0.99824
1.00245
1.0077
1.01346
1.0191
1.02494
1.03087
1.03727
1.04445
1.05157
1.05859
1.06558
1.07245
1.07893
1.08472
1.09057
1.09699
1.10386
1.11099
1.11785
1.12358
1.12788
1.13115
1.13386
1.13679
1.14051
1.14466
1.14725
1.14724
1.14674
1.14742
1.14995
1.15473
1.16016
1.16342
1.16411
1.1631
1.16382
1.1642
1.1671
1.17068
1.17389
1.17693
1.17657
0.251982
0.252612
0.253253
0.253885
0.254153
0.25424
0.254433
0.254744
0.254975
0.255504
0.256005
0.309717
0.472247
0.688113
0.870835
0.905021
0.938101
0.950423
0.965063
0.967902
0.964843
0.959612
0.95999
0.96272
0.966002
0.967725
0.966473
0.966743
0.968499
0.968808
0.969468
0.969498
0.970113
0.971842
0.973331
0.974933
0.977602
0.980989
0.984004
0.986278
0.988896
0.992136
0.996787
1.00227
1.00769
1.01281
1.01767
1.02249
1.02778
1.03401
1.0416
1.04945
1.05696
1.06386
1.0703
1.07721
1.08474
1.09273
1.10026
1.10573
1.10933
1.1125
1.11631
1.12072
1.12521
1.12896
1.13182
1.13445
1.13786
1.14125
1.14582
1.15066
1.15453
1.1585
1.15943
1.16131
1.16208
1.16242
1.16406
1.16719
0.252958
0.2536
0.254243
0.254618
0.254709
0.254707
0.254743
0.254976
0.255217
0.25558
0.256372
0.256602
0.256503
0.29941
0.44427
0.673833
0.87572
0.935641
0.966982
0.96587
0.957064
0.958626
0.965036
0.96981
0.967928
0.964882
0.964793
0.966342
0.968559
0.967949
0.965987
0.966206
0.96712
0.969154
0.969083
0.969211
0.970235
0.972301
0.97398
0.97449
0.975364
0.977125
0.979143
0.982057
0.985539
0.989434
0.993009
0.99608
0.998463
1.00058
1.00377
1.00926
1.01659
1.02407
1.03103
1.03755
1.0442
1.0514
1.05922
1.06681
1.07304
1.07812
1.08237
1.08617
1.09063
1.09638
1.10328
1.11003
1.11607
1.12012
1.124
1.12751
1.13197
1.13803
1.14341
1.14913
1.15092
1.15077
1.15088
1.1514
0.253749
0.254464
0.255049
0.255201
0.255198
0.255129
0.255092
0.255194
0.255378
0.255653
0.256364
0.256697
0.256714
0.256551
0.256057
0.290516
0.427854
0.660027
0.868445
0.916831
0.953425
0.964017
0.978648
0.975813
0.967365
0.96321
0.966915
0.971404
0.971035
0.968042
0.965324
0.966224
0.969029
0.96894
0.967575
0.967601
0.968502
0.969529
0.97034
0.970704
0.971143
0.97167
0.972359
0.9733
0.973276
0.972996
0.974281
0.976963
0.980159
0.982939
0.984924
0.986457
0.988166
0.990887
0.994668
1.00022
1.00715
1.01438
1.02069
1.02685
1.03359
1.04022
1.04572
1.05024
1.05477
1.06006
1.06654
1.07443
1.08304
1.09017
1.09655
1.10111
1.1059
1.11096
1.11551
1.12096
1.12472
1.12784
1.1304
1.13145
0.254343
0.255202
0.255653
0.255674
0.255622
0.255484
0.255403
0.255413
0.255519
0.255833
0.256451
0.256692
0.256713
0.256628
0.256273
0.256038
0.256026
0.287951
0.4245
0.66781
0.886296
0.950058
0.9792
0.977037
0.969393
0.971875
0.976227
0.975987
0.971832
0.967186
0.967816
0.971412
0.972444
0.969798
0.967303
0.968391
0.970244
0.970068
0.969705
0.969536
0.969797
0.970026
0.970336
0.970814
0.970768
0.969977
0.969071
0.968086
0.967638
0.968973
0.971896
0.974717
0.976547
0.977683
0.979235
0.982248
0.986417
0.991177
0.995482
0.998446
1.00124
1.00567
1.0109
1.01597
1.02124
1.02706
1.03328
1.03986
1.04677
1.0529
1.05957
1.06576
1.07274
1.07898
1.08441
1.08974
1.09311
1.09616
1.09957
1.1029
0.254889
0.255803
0.256029
0.256029
0.255929
0.255718
0.255602
0.255601
0.255658
0.255947
0.256496
0.256685
0.256687
0.256649
0.256331
0.256115
0.256096
0.256099
0.256177
0.288939
0.432005
0.674401
0.895159
0.932886
0.965034
0.982938
0.98399
0.98003
0.971096
0.971783
0.976777
0.979564
0.976052
0.971039
0.971834
0.97394
0.973143
0.971247
0.970044
0.970684
0.971246
0.971076
0.971106
0.971123
0.971019
0.97066
0.969892
0.968899
0.967829
0.966712
0.965667
0.966117
0.967647
0.969662
0.97124
0.97178
0.972296
0.973847
0.977011
0.980615
0.983092
0.984421
0.985439
0.987289
0.990455
0.995349
1.00222
1.0097
1.01638
1.02165
1.02758
1.03316
1.03975
1.04567
1.05159
1.0572
1.06032
1.06316
1.06586
1.06959
0.255387
0.25616
0.256279
0.256283
0.256176
0.255881
0.255719
0.255711
0.255749
0.25602
0.256576
0.256701
0.256693
0.25664
0.25644
0.256192
0.256135
0.256144
0.25618
0.256297
0.25639
0.294394
0.454568
0.711733
0.921764
0.97136
0.984407
0.981865
0.974078
0.980881
0.986206
0.982722
0.976118
0.975314
0.979041
0.978753
0.975963
0.974322
0.974879
0.974984
0.974057
0.973273
0.972908
0.972422
0.97193
0.971905
0.971446
0.970544
0.969032
0.967423
0.966233
0.965801
0.965294
0.96458
0.964496
0.964154
0.964288
0.964416
0.964258
0.965576
0.969548
0.973566
0.97524
0.975643
0.976295
0.97772
0.980122
0.984492
0.990352
0.996156
1.00166
1.00641
1.01183
1.01636
1.0207
1.02493
1.02845
1.03263
1.03627
1.03968
0.255761
0.256378
0.256458
0.256461
0.256344
0.255945
0.255767
0.255758
0.255788
0.25605
0.25664
0.256792
0.256768
0.25665
0.256415
0.256294
0.25619
0.256178
0.256183
0.256243
0.256402
0.256449
0.256364
0.310737
0.499938
0.745854
0.92911
0.96044
0.974889
0.995902
0.994654
0.984266
0.977514
0.981653
0.985933
0.983362
0.978394
0.979088
0.979757
0.978867
0.977481
0.97734
0.976983
0.975885
0.974921
0.974487
0.973927
0.972857
0.971232
0.969332
0.967865
0.966822
0.965915
0.964659
0.96424
0.9643
0.964932
0.965104
0.964373
0.964181
0.964452
0.966049
0.968484
0.970034
0.971192
0.97242
0.973382
0.974191
0.975351
0.97774
0.981167
0.985074
0.989817
0.993733
0.998481
1.00334
1.00743
1.01075
1.01374
1.01716
0.256034
0.25651
0.256566
0.256568
0.256436
0.255966
0.255777
0.255772
0.255797
0.256052
0.256648
0.256841
0.256847
0.25671
0.256376
0.256315
0.256264
0.256194
0.256198
0.25623
0.256369
0.256453
0.256386
0.256291
0.256279
0.330968
0.564209
0.825591
0.957871
0.996781
0.991477
0.971284
0.978211
0.990748
0.989155
0.981117
0.980448
0.984116
0.984009
0.982549
0.981585
0.981511
0.980667
0.97905
0.978396
0.978014
0.977174
0.975816
0.974097
0.972333
0.970852
0.96949
0.967885
0.966252
0.965754
0.965819
0.96625
0.966568
0.965869
0.965367
0.965164
0.96533
0.964519
0.964678
0.965707
0.967322
0.968984
0.970743
0.971753
0.972882
0.975102
0.978194
0.982033
0.98543
0.989805
0.99303
0.993587
0.994201
0.995249
0.998764
0.25621
0.256607
0.256656
0.256646
0.256496
0.255976
0.255772
0.255772
0.255799
0.256016
0.256578
0.256839
0.256865
0.256798
0.25646
0.256395
0.256404
0.256303
0.256243
0.256263
0.256363
0.256436
0.256377
0.256293
0.256299
0.256363
0.257021
0.368393
0.634093
0.883068
0.93613
0.964737
0.99388
0.998674
0.985545
0.977957
0.982872
0.987414
0.985414
0.98331
0.984281
0.984099
0.983012
0.981721
0.98123
0.980693
0.979707
0.978129
0.976584
0.975306
0.97432
0.973122
0.971323
0.969708
0.969021
0.968591
0.968194
0.967384
0.966651
0.966545
0.966656
0.965904
0.964779
0.963969
0.963807
0.964297
0.965481
0.967388
0.969284
0.971708
0.973797
0.976059
0.978576
0.980638
0.982898
0.983153
0.982767
0.985144
0.987398
0.989082
0.256247
0.256651
0.256707
0.256692
0.256549
0.25603
0.255774
0.255771
0.255793
0.255953
0.256422
0.256758
0.256849
0.256837
0.256671
0.256493
0.256433
0.256354
0.256278
0.256301
0.256398
0.256449
0.256379
0.256298
0.256305
0.256392
0.256648
0.256774
0.27818
0.438967
0.731896
0.933276
0.997054
0.991283
0.969028
0.977728
0.990569
0.988541
0.982374
0.983042
0.985831
0.985198
0.982656
0.982359
0.982582
0.982053
0.980854
0.979046
0.977385
0.976207
0.975769
0.975125
0.974354
0.973528
0.972966
0.971855
0.970301
0.968772
0.968083
0.968264
0.968564
0.967177
0.965764
0.964693
0.964459
0.964766
0.965251
0.965993
0.967119
0.969556
0.972022
0.973742
0.974911
0.97626
0.978004
0.979842
0.981774
0.984302
0.98636
0.98778
0.256278
0.25667
0.256731
0.256718
0.256605
0.256123
0.255747
0.25574
0.255752
0.255888
0.256352
0.256712
0.256851
0.25685
0.256759
0.256537
0.256398
0.25631
0.256272
0.256311
0.256433
0.256481
0.256404
0.256308
0.256312
0.256393
0.256621
0.256799
0.256808
0.256756
0.318083
0.559132
0.841733
0.920324
0.958329
0.992364
0.996752
0.983165
0.979942
0.984873
0.986657
0.983244
0.981551
0.982538
0.983337
0.982943
0.981632
0.979695
0.97759
0.976633
0.975987
0.97538
0.975041
0.974713
0.974433
0.973389
0.971668
0.969827
0.969172
0.969497
0.969868
0.968886
0.967676
0.966566
0.966356
0.966596
0.966824
0.967175
0.968072
0.97015
0.970822
0.972502
0.973909
0.975841
0.978267
0.98052
0.982706
0.984037
0.985097
0.986596
0.256327
0.256642
0.256722
0.256714
0.256644
0.25633
0.255763
0.255677
0.255665
0.255741
0.256257
0.256708
0.256855
0.256858
0.256803
0.256654
0.256438
0.256301
0.256264
0.25631
0.256457
0.256503
0.25643
0.256319
0.256316
0.256393
0.256596
0.256759
0.256781
0.256772
0.256652
0.258793
0.383622
0.688846
0.917308
0.992819
0.987821
0.969087
0.98049
0.987898
0.983842
0.979099
0.980275
0.983412
0.983398
0.982963
0.981985
0.979388
0.977867
0.977162
0.976296
0.975276
0.974789
0.974489
0.974221
0.973355
0.972198
0.970764
0.970276
0.970611
0.970499
0.969917
0.9694
0.968993
0.968929
0.969181
0.969127
0.968998
0.96979
0.971409
0.972336
0.974258
0.975653
0.977456
0.979708
0.981975
0.98315
0.983121
0.983628
0.984586
0.256408
0.25653
0.256641
0.256654
0.256623
0.256423
0.255913
0.255653
0.255615
0.255637
0.255966
0.256585
0.256848
0.256861
0.25681
0.25673
0.256596
0.256411
0.256303
0.256337
0.256477
0.25652
0.256457
0.256346
0.256339
0.256398
0.256573
0.256726
0.256748
0.256742
0.25671
0.256574
0.256368
0.298196
0.526623
0.827909
0.915407
0.959992
0.995122
0.992063
0.976541
0.977131
0.982065
0.983263
0.982497
0.982067
0.98082
0.978819
0.97792
0.977841
0.976912
0.975417
0.974695
0.974468
0.974065
0.973291
0.97261
0.971923
0.971697
0.971905
0.971221
0.970301
0.969823
0.970011
0.970408
0.970844
0.971372
0.971579
0.97255
0.973554
0.97455
0.976742
0.978318
0.980125
0.981607
0.98267
0.982529
0.982705
0.983381
0.984002
0.256444
0.256495
0.256609
0.256635
0.256601
0.256417
0.255996
0.255689
0.255611
0.255627
0.25582
0.256374
0.256771
0.256838
0.256801
0.256745
0.256661
0.256517
0.256369
0.256375
0.256491
0.256536
0.256481
0.256375
0.256365
0.256413
0.256559
0.256692
0.256721
0.256718
0.256702
0.256633
0.25643
0.256376
0.256387
0.374136
0.688456
0.92157
0.991486
0.985745
0.968261
0.979476
0.984255
0.981511
0.981044
0.980949
0.979249
0.977852
0.978207
0.978142
0.976932
0.975423
0.974738
0.974706
0.974095
0.973313
0.972752
0.972617
0.972888
0.972848
0.971974
0.970645
0.969932
0.970139
0.970758
0.971215
0.972279
0.973155
0.974802
0.975795
0.977311
0.979267
0.980971
0.981842
0.982391
0.982422
0.982288
0.983501
0.98403
0.98445
0.256458
0.256502
0.256633
0.25667
0.256641
0.256457
0.256006
0.255702
0.255642
0.255655
0.25577
0.256119
0.256528
0.256753
0.256781
0.256759
0.256688
0.256522
0.25635
0.256353
0.256491
0.256549
0.256506
0.256402
0.256385
0.25642
0.256542
0.256658
0.256701
0.256701
0.256692
0.256649
0.25651
0.256402
0.256409
0.25646
0.29922
0.541409
0.843588
0.924562
0.964456
0.991992
0.985984
0.977875
0.979957
0.980018
0.977646
0.97769
0.979189
0.978257
0.976345
0.975151
0.975066
0.974774
0.973982
0.973113
0.972398
0.972464
0.972938
0.972694
0.971947
0.970743
0.970182
0.970428
0.971046
0.971511
0.972775
0.974059
0.975981
0.976807
0.978565
0.980586
0.982443
0.982461
0.982283
0.982663
0.983091
0.984757
0.985287
0.985465
0.256498
0.256612
0.256713
0.256713
0.256665
0.256519
0.256043
0.255712
0.255684
0.255703
0.255775
0.255973
0.256303
0.2566
0.256754
0.256763
0.256732
0.256593
0.256367
0.256351
0.256494
0.256553
0.256521
0.25642
0.256394
0.256418
0.256508
0.256629
0.25669
0.256692
0.256686
0.256657
0.256562
0.256438
0.256422
0.256469
0.256573
0.256618
0.394768
0.725154
0.93742
0.992499
0.981507
0.975412
0.981435
0.979696
0.976563
0.978576
0.979461
0.97765
0.975214
0.974856
0.97518
0.974672
0.973595
0.972533
0.971805
0.971894
0.972482
0.972084
0.971393
0.970641
0.970367
0.970916
0.971733
0.972529
0.973916
0.975261
0.976436
0.97676
0.978652
0.980999
0.982767
0.982829
0.98299
0.983525
0.984457
0.986053
0.986519
0.986857
0.256527
0.256721
0.256764
0.256742
0.25666
0.256514
0.256169
0.25577
0.2557
0.255714
0.25577
0.255887
0.25612
0.256419
0.256664
0.256743
0.256725
0.256606
0.256382
0.256386
0.256527
0.256555
0.256526
0.256431
0.256396
0.256406
0.256471
0.256609
0.256693
0.256696
0.256686
0.256663
0.256596
0.256502
0.256454
0.256471
0.256539
0.256609
0.256641
0.319153
0.59954
0.889804
0.935585
0.979179
0.98492
0.975048
0.976384
0.981143
0.979844
0.975424
0.974404
0.975244
0.974943
0.97409
0.972851
0.97178
0.971343
0.971529
0.971898
0.971479
0.970755
0.970458
0.970565
0.9717
0.972766
0.974219
0.975588
0.976683
0.97673
0.976721
0.978632
0.981259
0.983289
0.983612
0.984332
0.985125
0.985701
0.986603
0.987
0.987648
0.256611
0.256796
0.256815
0.256774
0.256671
0.256502
0.256221
0.255897
0.255736
0.255735
0.255776
0.255844
0.255991
0.256303
0.25662
0.256732
0.256714
0.256576
0.256372
0.256409
0.256537
0.256546
0.25652
0.256436
0.256408
0.256415
0.256462
0.2566
0.256715
0.256721
0.256702
0.256672
0.25662
0.256547
0.256495
0.256485
0.25652
0.256567
0.25661
0.256652
0.268256
0.46595
0.793849
0.971434
0.973339
0.968006
0.979884
0.983637
0.976768
0.973464
0.974897
0.975519
0.974852
0.973802
0.972505
0.97142
0.971346
0.972051
0.971902
0.971268
0.970549
0.970493
0.97076
0.971926
0.973286
0.97569
0.977061
0.977583
0.977105
0.976934
0.978848
0.981823
0.984171
0.9848
0.985794
0.986261
0.986163
0.986756
0.98725
0.988132
0.256699
0.25685
0.256856
0.256788
0.256717
0.256567
0.256232
0.256013
0.2559
0.255837
0.255826
0.255844
0.255915
0.256162
0.256572
0.256743
0.256726
0.256564
0.256351
0.256385
0.256496
0.256503
0.256486
0.256432
0.256413
0.256422
0.256465
0.256593
0.256729
0.256745
0.256728
0.256693
0.256647
0.256586
0.256536
0.2565
0.256509
0.256536
0.256572
0.256627
0.256651
0.25664
0.373751
0.721125
0.885553
0.958972
0.994553
0.985566
0.971575
0.973989
0.97653
0.975733
0.974614
0.973685
0.972495
0.971623
0.971999
0.973085
0.972682
0.9719
0.971195
0.971054
0.971172
0.972046
0.973772
0.976892
0.977611
0.977555
0.97708
0.977189
0.978927
0.982133
0.984357
0.985354
0.986499
0.986712
0.986481
0.987094
0.987836
0.988712
0.256743
0.256869
0.256873
0.256812
0.256762
0.256637
0.256301
0.256093
0.256015
0.255923
0.255887
0.255885
0.255919
0.256107
0.256489
0.256731
0.256721
0.256555
0.256335
0.256359
0.256465
0.256472
0.256464
0.256422
0.256393
0.256399
0.256435
0.256564
0.25673
0.256761
0.256746
0.256713
0.256674
0.256624
0.256571
0.256519
0.256508
0.256519
0.256541
0.25657
0.256609
0.256628
0.256599
0.305983
0.615262
0.901091
0.981408
0.964413
0.968379
0.977872
0.977633
0.975034
0.974486
0.97399
0.972468
0.972056
0.973086
0.974094
0.973735
0.97296
0.972442
0.972043
0.972106
0.972819
0.974956
0.977746
0.977625
0.97745
0.976943
0.977278
0.978839
0.982126
0.984338
0.985535
0.986751
0.986857
0.986879
0.987615
0.988442
0.989176
0.256658
0.256869
0.256885
0.256866
0.25682
0.256675
0.256352
0.256165
0.256116
0.256004
0.255943
0.255944
0.255978
0.256154
0.256512
0.256719
0.256701
0.256529
0.256326
0.256349
0.256442
0.256453
0.256454
0.256422
0.25637
0.256373
0.256415
0.256548
0.256728
0.256771
0.256756
0.256723
0.25669
0.256651
0.256598
0.256534
0.256509
0.25651
0.256523
0.256535
0.256542
0.256564
0.256571
0.256543
0.27204
0.487447
0.822731
0.923514
0.971366
0.98549
0.976483
0.974281
0.975872
0.974306
0.972243
0.972571
0.97432
0.974967
0.974685
0.973921
0.973577
0.973195
0.97344
0.974341
0.976881
0.978651
0.978009
0.977413
0.976873
0.977533
0.979063
0.982452
0.984511
0.985854
0.987203
0.987249
0.987326
0.988004
0.988598
0.989136
0.256451
0.256849
0.256933
0.256934
0.256898
0.256726
0.256358
0.256155
0.256171
0.256145
0.256063
0.256046
0.256064
0.256203
0.256514
0.256707
0.25669
0.256524
0.25634
0.256363
0.256438
0.256444
0.256441
0.256407
0.256348
0.256353
0.256406
0.256549
0.256735
0.256781
0.256762
0.256727
0.256696
0.256661
0.256608
0.256541
0.256512
0.256511
0.256519
0.256523
0.256507
0.256502
0.256522
0.256525
0.256518
0.256442
0.393606
0.753228
0.946003
0.981794
0.967708
0.975225
0.978254
0.973286
0.971944
0.973415
0.975213
0.975562
0.975218
0.974359
0.974055
0.974028
0.974816
0.976238
0.979169
0.979244
0.978563
0.977815
0.977427
0.978593
0.980092
0.983284
0.985039
0.98645
0.987673
0.987612
0.987639
0.988237
0.988555
0.989031
0.256159
0.256704
0.256994
0.257005
0.256962
0.256745
0.256337
0.256159
0.256206
0.256232
0.256156
0.256121
0.256141
0.256265
0.256496
0.25664
0.256621
0.256491
0.256368
0.256399
0.256449
0.256448
0.256443
0.2564
0.256309
0.256306
0.256367
0.256539
0.256742
0.256791
0.256766
0.256727
0.256695
0.256658
0.256605
0.256544
0.256537
0.256545
0.256554
0.256537
0.256499
0.256465
0.256502
0.256524
0.256516
0.256475
0.256482
0.338816
0.655696
0.914674
0.957158
0.987091
0.981859
0.971923
0.972999
0.974667
0.975502
0.97593
0.97553
0.974448
0.974171
0.974621
0.975974
0.978071
0.980505
0.980008
0.979282
0.979155
0.979477
0.980836
0.982197
0.984713
0.985794
0.986913
0.987876
0.987833
0.987909
0.98866
0.988787
0.988969
0.255932
0.256479
0.257006
0.257062
0.257006
0.256693
0.256256
0.256194
0.25628
0.256299
0.256209
0.256177
0.256208
0.256341
0.256526
0.256621
0.256593
0.256459
0.256372
0.25641
0.25648
0.256484
0.256477
0.256418
0.256279
0.256248
0.256312
0.256504
0.256735
0.256793
0.256766
0.256716
0.256677
0.256658
0.256618
0.256579
0.256593
0.256646
0.256663
0.256603
0.256507
0.256456
0.256496
0.256529
0.256527
0.25656
0.256738
0.256916
0.28909
0.572973
0.886704
0.980285
0.966876
0.969654
0.975782
0.975037
0.975501
0.975899
0.975141
0.974125
0.974026
0.975063
0.977258
0.979607
0.98102
0.980922
0.980576
0.98102
0.982116
0.98317
0.984751
0.98627
0.986536
0.9872
0.987841
0.988
0.988235
0.989314
0.989112
0.988979
0.255821
0.256306
0.256983
0.257101
0.257037
0.25666
0.256227
0.256198
0.256293
0.256313
0.256227
0.256209
0.256257
0.25642
0.256599
0.25666
0.256612
0.256448
0.256367
0.256405
0.256541
0.256571
0.25656
0.256465
0.256271
0.256212
0.256277
0.25647
0.256706
0.256784
0.256756
0.256696
0.256651
0.256653
0.256641
0.256623
0.25667
0.256774
0.256773
0.256672
0.256524
0.25646
0.256507
0.25654
0.256547
0.256666
0.256931
0.257328
0.257386
0.26004
0.469379
0.819222
0.924754
0.972779
0.981236
0.974528
0.975506
0.975768
0.974632
0.973815
0.974041
0.976054
0.979074
0.98097
0.981643
0.981653
0.982078
0.983129
0.984803
0.9853
0.987006
0.987808
0.987355
0.987571
0.987981
0.988287
0.988743
0.989924
0.989644
0.989303
0.255748
0.256231
0.256955
0.257107
0.257054
0.256719
0.256262
0.256183
0.25624
0.256254
0.25621
0.256215
0.256296
0.256493
0.25669
0.256733
0.256652
0.25644
0.256356
0.256394
0.25655
0.256596
0.25659
0.256497
0.256279
0.2562
0.256263
0.256451
0.256689
0.256777
0.256737
0.256656
0.256625
0.256635
0.256641
0.256663
0.25678
0.25689
0.25685
0.256703
0.256561
0.256514
0.256547
0.256564
0.256594
0.256782
0.257098
0.257389
0.257599
0.257527
0.257371
0.396265
0.764542
0.950087
0.977343
0.96882
0.980197
0.978243
0.97575
0.975706
0.97602
0.978766
0.981101
0.98199
0.982172
0.982401
0.983665
0.984865
0.986436
0.986765
0.988533
0.989089
0.988265
0.98833
0.988518
0.988997
0.989614
0.990507
0.990483
0.990418
0.255707
0.256196
0.25691
0.257096
0.257065
0.256839
0.256425
0.256192
0.256172
0.25612
0.256082
0.256144
0.256328
0.256585
0.256793
0.256807
0.256676
0.256416
0.256339
0.25638
0.256556
0.256613
0.256609
0.256524
0.256305
0.256205
0.256261
0.256445
0.256697
0.256787
0.25669
0.256585
0.256593
0.256629
0.256648
0.256751
0.256942
0.256989
0.256904
0.256682
0.256636
0.256653
0.256645
0.256645
0.256683
0.2569
0.257231
0.257379
0.257607
0.257605
0.257645
0.257668
0.347959
0.684295
0.914897
0.965174
0.992112
0.982679
0.978868
0.978743
0.979348
0.982456
0.9832
0.982598
0.982592
0.983266
0.985167
0.986303
0.987661
0.988122
0.989889
0.990258
0.989361
0.989492
0.989661
0.990203
0.99087
0.991426
0.991589
0.991892
0.255727
0.25614
0.256819
0.257069
0.257065
0.256964
0.256676
0.25627
0.256045
0.255942
0.255908
0.255983
0.256335
0.256757
0.256919
0.256895
0.256687
0.256377
0.256328
0.256372
0.256607
0.256727
0.256728
0.256646
0.256406
0.256266
0.256304
0.256471
0.256722
0.256762
0.256571
0.256506
0.25655
0.256625
0.256729
0.256955
0.257091
0.257083
0.256946
0.25667
0.256667
0.256799
0.256842
0.256839
0.256844
0.256978
0.257349
0.257361
0.257497
0.257544
0.257724
0.258187
0.25842
0.30177
0.62024
0.922243
0.988009
0.970683
0.982658
0.981567
0.982342
0.985228
0.984359
0.983537
0.983693
0.984771
0.986353
0.987384
0.988771
0.989717
0.991337
0.991717
0.99106
0.991316
0.991527
0.992112
0.992705
0.993053
0.993259
0.993631
0.255763
0.256048
0.256654
0.257043
0.257075
0.257062
0.256913
0.256402
0.255899
0.255782
0.255773
0.255876
0.256388
0.25693
0.257001
0.256947
0.256642
0.256353
0.256329
0.256375
0.256621
0.256803
0.25681
0.256748
0.25653
0.25635
0.256373
0.256525
0.256751
0.256725
0.256481
0.256448
0.256518
0.256667
0.256917
0.257151
0.257184
0.257156
0.256959
0.25668
0.256727
0.256961
0.257002
0.256975
0.256998
0.257052
0.257319
0.257677
0.257612
0.257552
0.257652
0.258562
0.259063
0.259391
0.275105
0.531603
0.870477
0.943723
0.991582
0.984621
0.986501
0.987409
0.985041
0.985403
0.987542
0.988077
0.98821
0.989034
0.990728
0.992313
0.993577
0.994002
0.99379
0.994077
0.994283
0.994833
0.995273
0.995504
0.995684
0.996036
0.255798
0.255947
0.256392
0.256989
0.257133
0.25714
0.257074
0.256584
0.255837
0.255656
0.255657
0.255798
0.256448
0.256987
0.257031
0.256963
0.256611
0.256407
0.25639
0.256418
0.256633
0.256831
0.256841
0.256792
0.256608
0.256419
0.256434
0.256593
0.25678
0.256696
0.256438
0.256427
0.256514
0.256757
0.257106
0.257215
0.257205
0.257148
0.256891
0.256721
0.256832
0.257149
0.257157
0.257069
0.257115
0.257163
0.257313
0.257793
0.258229
0.258078
0.257933
0.258964
0.260194
0.259959
0.260775
0.262326
0.458266
0.82912
0.983191
0.97482
0.993421
0.989024
0.986755
0.991691
0.995115
0.993589
0.993121
0.994014
0.995625
0.997065
0.99797
0.99814
0.998181
0.998292
0.998487
0.998812
0.999025
0.999085
0.999155
0.999519
0.255833
0.25589
0.256119
0.256802
0.257244
0.257272
0.257233
0.25685
0.255965
0.255561
0.255554
0.255725
0.256399
0.256954
0.257011
0.256964
0.256682
0.256481
0.256462
0.25648
0.256653
0.256846
0.256861
0.256825
0.256669
0.256481
0.25649
0.256664
0.256796
0.256657
0.256426
0.256428
0.256557
0.256928
0.257198
0.257197
0.257179
0.257105
0.256837
0.256772
0.256921
0.257341
0.257424
0.257259
0.257228
0.257573
0.257874
0.257915
0.258426
0.25891
0.258935
0.259342
0.261448
0.262406
0.261949
0.26421
0.265903
0.415209
0.799535
0.930301
1.00549
0.99075
0.993873
1.00557
1.00427
1.00072
1.0005
1.00187
1.0028
1.00368
1.00447
1.00431
1.00445
1.00441
1.00458
1.00458
1.00449
1.00441
1.00429
1.00466
0.255868
0.255871
0.255937
0.256467
0.257314
0.25749
0.257466
0.257143
0.256174
0.255521
0.255487
0.255662
0.256358
0.256908
0.256956
0.256929
0.256728
0.256543
0.256525
0.256541
0.256681
0.25686
0.256878
0.256859
0.25675
0.256585
0.256592
0.256744
0.256791
0.25662
0.256441
0.25647
0.256694
0.257122
0.257249
0.257229
0.257197
0.257101
0.256899
0.256873
0.257019
0.257513
0.257856
0.257815
0.257624
0.257917
0.258869
0.258949
0.258665
0.259244
0.260097
0.260044
0.261953
0.265623
0.26612
0.265374
0.268728
0.271457
0.375331
0.756937
0.977019
0.996162
1.01395
1.02137
1.01302
1.01018
1.01129
1.01209
1.01223
1.01333
1.01376
1.0131
1.01283
1.01262
1.01273
1.0127
1.01226
1.01221
1.01193
1.01239
0.25588
0.255858
0.255851
0.256188
0.25726
0.257706
0.257697
0.257385
0.256332
0.255522
0.255463
0.255626
0.25632
0.256887
0.256931
0.256901
0.256742
0.256598
0.256586
0.256606
0.256719
0.256886
0.256915
0.25691
0.256832
0.256683
0.256666
0.256771
0.256783
0.256602
0.256511
0.256593
0.256924
0.257269
0.257296
0.257267
0.257228
0.257167
0.257041
0.257022
0.257191
0.257649
0.258195
0.258417
0.258366
0.258337
0.259161
0.260369
0.26009
0.260375
0.262473
0.263847
0.264336
0.267731
0.271057
0.270344
0.272201
0.275922
0.277855
0.349768
0.692805
0.964308
1.02646
1.04187
1.02514
1.02116
1.02349
1.02391
1.02405
1.02537
1.0252
1.02424
1.02362
1.02336
1.02362
1.02362
1.02289
1.02279
1.0223
1.02278
0.255909
0.25586
0.25582
0.256039
0.257165
0.257844
0.257855
0.257546
0.25642
0.255534
0.255466
0.255627
0.256285
0.25687
0.256922
0.2569
0.256788
0.256665
0.256659
0.256691
0.256769
0.256922
0.256991
0.256986
0.256906
0.256724
0.256658
0.256747
0.256772
0.256648
0.256641
0.256763
0.25716
0.257385
0.257361
0.257293
0.257328
0.257477
0.257404
0.257396
0.257545
0.257865
0.258396
0.258909
0.259492
0.259421
0.259582
0.261037
0.262019
0.262856
0.265233
0.268543
0.26849
0.26964
0.273145
0.275523
0.278076
0.280321
0.283387
0.284524
0.317479
0.637279
0.964306
1.04156
1.03382
1.03496
1.03598
1.03618
1.03838
1.03889
1.03853
1.0374
1.03644
1.03606
1.03662
1.03647
1.03583
1.03546
1.03492
1.03545
0.255953
0.255856
0.255791
0.25596
0.257067
0.257918
0.25795
0.257654
0.256511
0.25561
0.255542
0.255711
0.256256
0.256868
0.256987
0.256976
0.256892
0.256761
0.256751
0.256788
0.256851
0.256972
0.257055
0.257049
0.25696
0.256751
0.256655
0.256731
0.256777
0.256792
0.256822
0.256966
0.257382
0.257748
0.257678
0.257594
0.257748
0.258071
0.258244
0.258419
0.258393
0.25834
0.258579
0.259398
0.260909
0.262149
0.261725
0.261726
0.263175
0.26492
0.267247
0.271146
0.272154
0.271795
0.27406
0.278521
0.282068
0.285861
0.289245
0.291861
0.2916
0.306191
0.555349
0.934399
1.02687
1.05
1.04686
1.04752
1.05364
1.0536
1.05263
1.05226
1.05141
1.05115
1.05177
1.05145
1.05077
1.04961
1.04897
1.04942
0.256021
0.255866
0.255752
0.25587
0.256904
0.257956
0.258029
0.257765
0.256682
0.255798
0.255719
0.255832
0.256266
0.256896
0.257041
0.257035
0.256943
0.256806
0.256801
0.256854
0.256921
0.257029
0.257083
0.257073
0.25697
0.256747
0.256648
0.256711
0.256888
0.257064
0.257107
0.257206
0.257642
0.25832
0.258459
0.258534
0.258603
0.258705
0.259012
0.259597
0.259649
0.259169
0.259331
0.260183
0.261795
0.264175
0.265115
0.264347
0.26529
0.26772
0.269701
0.273226
0.277646
0.277416
0.277964
0.282152
0.285528
0.28933
0.292971
0.297262
0.298064
0.299389
0.30113
0.493704
0.907173
1.03932
1.05902
1.06164
1.07008
1.06857
1.06813
1.06789
1.06678
1.06663
1.06618
1.0656
1.06474
1.06309
1.06257
1.06298
0.256077
0.255791
0.255625
0.255718
0.256712
0.258011
0.258169
0.257953
0.256927
0.255942
0.25583
0.255897
0.25623
0.256905
0.257087
0.257088
0.257002
0.256862
0.256862
0.256915
0.25697
0.257056
0.257075
0.257063
0.256973
0.256748
0.25665
0.256734
0.257154
0.257551
0.257525
0.257542
0.257923
0.258832
0.259247
0.259301
0.259328
0.259417
0.259777
0.260794
0.261694
0.261397
0.261694
0.262509
0.262962
0.264836
0.26743
0.269145
0.270813
0.273137
0.274269
0.276366
0.281534
0.284384
0.285324
0.287936
0.289868
0.29235
0.295637
0.300135
0.303403
0.305653
0.308993
0.309
0.461561
0.845606
1.04521
1.0777
1.08779
1.081
1.08366
1.08301
1.08182
1.08219
1.08065
1.07926
1.0779
1.07593
1.07548
1.07581
0.256112
0.255592