/*--------------------------------*- C++ -*----------------------------------*\
  =========                 |
  \\      /  F ield         | OpenFOAM: The Open Source CFD Toolbox
   \\    /   O peration     | Website:  https://openfoam.org
    \\  /    A nd           | Version:  7
     \\/     M anipulation  |
\*---------------------------------------------------------------------------*/
FoamFile
{
    version     2.0;
    format      ascii;
    class       volScalarField;
    location    "4.5";
    object      rho;
}
// * * * * * * * * * * * * * * * * * * * * * * * * * * * * * * * * * * * * * //

dimensions      [1 -3 0 0 0 0 0];

internalField   nonuniform List<scalar> 
90000
(
1.25031
1.25127
1.25294
1.25566
1.25873
1.26252
1.26624
1.27044
1.2743
1.2785
1.28222
1.28623
1.28963
1.29375
1.29758
1.30209
1.30633
1.31145
1.31665
1.32294
1.32949
1.33703
1.34436
1.35201
1.35854
1.36537
1.36984
1.37386
1.37765
1.37846
1.3788
1.37923
1.37897
1.37744
1.37312
1.36468
1.35601
1.35006
1.34682
1.3473
1.349
1.35166
1.3549
1.35741
1.35916
1.3604
1.36043
1.35981
1.35831
1.3556
1.35334
1.35207
1.3523
1.35349
1.35582
1.35924
1.36177
1.36289
1.36219
1.36087
1.35867
1.35786
1.35833
1.35983
1.36198
1.36249
1.36212
1.3608
1.35958
1.35939
1.36001
1.36146
1.36163
1.36143
1.36089
1.36086
1.36137
1.36197
1.36208
1.36171
1.36152
1.36158
1.3617
1.36194
1.3623
1.36254
1.36282
1.3631
1.36319
1.36331
1.36328
1.36293
1.36203
1.3599
1.35699
1.35367
1.35072
1.34717
1.3445
1.3418
1.25038
1.25064
1.25133
1.25243
1.25391
1.2558
1.25806
1.26069
1.26364
1.26692
1.27047
1.27423
1.27824
1.28198
1.28574
1.28946
1.29329
1.29722
1.30145
1.30589
1.31088
1.31618
1.32207
1.32847
1.33487
1.34189
1.34848
1.35522
1.36113
1.36649
1.37145
1.37523
1.37676
1.37833
1.37897
1.37868
1.37811
1.37582
1.37138
1.36609
1.36121
1.35783
1.35632
1.35676
1.35778
1.35933
1.36133
1.36322
1.36541
1.36535
1.36445
1.36235
1.36019
1.35849
1.35854
1.35956
1.36139
1.36382
1.3662
1.36663
1.36574
1.36388
1.36219
1.36223
1.36291
1.3644
1.36583
1.36542
1.36409
1.36263
1.36249
1.36303
1.36416
1.3644
1.36394
1.36338
1.36345
1.36406
1.36452
1.36436
1.36382
1.36359
1.36372
1.36404
1.36417
1.36442
1.36483
1.36494
1.36498
1.36502
1.36493
1.36451
1.36353
1.36132
1.35818
1.35483
1.35185
1.34851
1.34584
1.34287
1.25102
1.25103
1.25105
1.2511
1.25119
1.25133
1.25157
1.25194
1.25248
1.2532
1.25416
1.25536
1.25692
1.25874
1.2609
1.26327
1.26601
1.26894
1.27225
1.27576
1.27964
1.28379
1.28839
1.29341
1.29899
1.3051
1.31204
1.31919
1.32729
1.33602
1.3441
1.35285
1.36075
1.36832
1.37376
1.37822
1.38026
1.38087
1.3807
1.37995
1.37898
1.37643
1.37266
1.36886
1.36622
1.36469
1.36493
1.36561
1.36676
1.36798
1.36902
1.37005
1.36983
1.36855
1.36675
1.36462
1.36478
1.3658
1.36783
1.36961
1.37159
1.37139
1.36982
1.36798
1.36707
1.36769
1.36888
1.36995
1.36953
1.3683
1.36705
1.36713
1.36771
1.36831
1.3682
1.36776
1.3675
1.36767
1.36804
1.36805
1.3678
1.36745
1.36726
1.36729
1.36741
1.36756
1.36775
1.36792
1.36792
1.36791
1.3678
1.36735
1.36629
1.36404
1.36057
1.35705
1.35405
1.35057
1.34798
1.34493
1.25224
1.25223
1.25221
1.25218
1.25217
1.25218
1.2522
1.25224
1.2523
1.25235
1.25241
1.25248
1.25261
1.25282
1.25312
1.25355
1.25414
1.2549
1.25588
1.25713
1.25871
1.26062
1.26297
1.26568
1.26905
1.27288
1.27755
1.28283
1.28916
1.29602
1.30444
1.31314
1.32302
1.33325
1.34444
1.35402
1.36373
1.37025
1.37573
1.37992
1.38031
1.38048
1.38018
1.37908
1.37792
1.37571
1.37319
1.37122
1.37027
1.37052
1.37109
1.37202
1.37255
1.37262
1.37237
1.37133
1.37032
1.36965
1.37005
1.37102
1.37256
1.37381
1.37483
1.37427
1.37292
1.37158
1.37166
1.37237
1.37337
1.3733
1.37242
1.37134
1.37108
1.37151
1.37216
1.37208
1.37169
1.37142
1.37163
1.37194
1.37186
1.3715
1.37107
1.37106
1.37113
1.3712
1.37132
1.37154
1.37153
1.37146
1.37128
1.37074
1.36963
1.36732
1.3636
1.35995
1.35681
1.35327
1.35081
1.34778
1.2537
1.2537
1.2537
1.25369
1.25369
1.25368
1.25367
1.25366
1.25363
1.2536
1.25356
1.25356
1.25355
1.25356
1.25359
1.25365
1.25371
1.25376
1.25382
1.25391
1.25407
1.25428
1.25468
1.25528
1.25608
1.25716
1.25863
1.2605
1.26306
1.2662
1.2704
1.27542
1.28212
1.28955
1.29898
1.30953
1.32136
1.3335
1.34573
1.35648
1.36512
1.37138
1.3762
1.37853
1.37934
1.37935
1.37902
1.37904
1.37855
1.37742
1.37592
1.37495
1.3742
1.37401
1.37416
1.37423
1.37438
1.3742
1.37377
1.37345
1.37364
1.37427
1.3753
1.37603
1.37675
1.37625
1.3753
1.37465
1.37503
1.37549
1.37584
1.37533
1.37457
1.37415
1.37451
1.37507
1.37504
1.37472
1.37456
1.37478
1.37501
1.37485
1.37445
1.37419
1.37422
1.37428
1.37435
1.37452
1.37457
1.3745
1.37434
1.3738
1.37263
1.37035
1.3665
1.36265
1.35945
1.3558
1.35358
1.35072
1.25493
1.25494
1.25494
1.25494
1.25495
1.25495
1.25495
1.25495
1.25495
1.25495
1.25494
1.25491
1.2549
1.25489
1.25487
1.25484
1.25481
1.25477
1.25476
1.25477
1.2548
1.25488
1.25491
1.25495
1.25501
1.25508
1.25518
1.25535
1.25562
1.25604
1.2569
1.2582
1.26011
1.26287
1.26657
1.27206
1.27867
1.2881
1.29865
1.31119
1.3255
1.33831
1.35111
1.36227
1.36991
1.37549
1.37856
1.37994
1.37981
1.37952
1.379
1.37823
1.37728
1.37639
1.37615
1.37622
1.37638
1.37617
1.37561
1.37502
1.37448
1.37449
1.37488
1.37619
1.37719
1.37761
1.37752
1.37709
1.37661
1.37671
1.37699
1.3771
1.37687
1.37641
1.37618
1.3764
1.37667
1.37677
1.37665
1.37666
1.37681
1.37693
1.37676
1.37641
1.37624
1.3763
1.37645
1.37663
1.37668
1.37664
1.37652
1.37596
1.37471
1.37246
1.36867
1.36466
1.36134
1.35746
1.35574
1.35313
1.25573
1.25573
1.25573
1.25573
1.25573
1.25574
1.25575
1.25576
1.25578
1.25578
1.25578
1.25578
1.25579
1.2558
1.25581
1.25581
1.25581
1.25581
1.2558
1.25579
1.25578
1.25577
1.25575
1.25574
1.25574
1.25575
1.25578
1.25584
1.25595
1.25619
1.25622
1.25627
1.25638
1.2566
1.257
1.25786
1.25935
1.26192
1.26568
1.27187
1.27968
1.29107
1.30368
1.3188
1.33329
1.34834
1.35819
1.36839
1.37235
1.37561
1.37647
1.37723
1.37837
1.37932
1.37935
1.37908
1.37831
1.37722
1.37629
1.37576
1.37531
1.37534
1.37567
1.37592
1.37657
1.37738
1.37758
1.37809
1.37817
1.37804
1.37776
1.37773
1.37776
1.37776
1.37756
1.37731
1.37739
1.3776
1.37786
1.37787
1.37782
1.3779
1.37794
1.37781
1.37756
1.37747
1.37759
1.37778
1.37793
1.37788
1.37776
1.37723
1.37601
1.37364
1.3699
1.36588
1.36241
1.35829
1.35695
1.35471
1.25614
1.25615
1.25615
1.25615
1.25616
1.25617
1.25618
1.25619
1.25621
1.25622
1.25624
1.25626
1.25628
1.25629
1.2563
1.25632
1.25634
1.25637
1.2564
1.25642
1.25644
1.25646
1.25648
1.2565
1.25651
1.25653
1.25654
1.25654
1.25656
1.25659
1.25663
1.25669
1.25677
1.25688
1.25715
1.25716
1.2572
1.25732
1.25763
1.25829
1.25974
1.26269
1.26749
1.27505
1.28594
1.29915
1.31517
1.3313
1.34518
1.35922
1.36677
1.37321
1.37677
1.37871
1.37893
1.37885
1.37831
1.37725
1.37722
1.37753
1.37757
1.37718
1.3765
1.37594
1.37582
1.37612
1.37681
1.37805
1.37877
1.37872
1.37834
1.37807
1.37816
1.37833
1.37827
1.37797
1.37783
1.37795
1.37819
1.37841
1.37843
1.37843
1.3785
1.3785
1.3784
1.37821
1.37825
1.37835
1.37849
1.37851
1.37836
1.37779
1.37653
1.37429
1.37064
1.36669
1.36299
1.35879
1.35754
1.35551
1.25633
1.25634
1.25635
1.25636
1.25637
1.25638
1.2564
1.25642
1.25644
1.25646
1.25649
1.25652
1.25655
1.25658
1.25661
1.25664
1.25667
1.25671
1.25675
1.2568
1.25684
1.25688
1.25692
1.25697
1.25701
1.25705
1.25709
1.25713
1.25716
1.25719
1.25721
1.25724
1.25727
1.2573
1.25735
1.25742
1.25749
1.25757
1.25768
1.25794
1.25794
1.25805
1.25838
1.25942
1.26172
1.26582
1.27341
1.28359
1.29834
1.31409
1.33119
1.34758
1.3571
1.36679
1.37097
1.37449
1.37521
1.37707
1.37873
1.37963
1.37937
1.3787
1.37711
1.37579
1.37542
1.37582
1.37677
1.37755
1.37833
1.37839
1.37839
1.37848
1.37864
1.37863
1.37854
1.37838
1.37821
1.37827
1.37835
1.37851
1.37866
1.37877
1.37886
1.37885
1.37884
1.3788
1.37871
1.37872
1.37875
1.37878
1.37861
1.37806
1.37675
1.37452
1.371
1.36717
1.36327
1.35908
1.35776
1.35586
1.25647
1.25648
1.2565
1.25652
1.25655
1.25657
1.2566
1.25663
1.25666
1.25669
1.25672
1.25676
1.25679
1.25683
1.25687
1.25692
1.25696
1.25701
1.25706
1.25711
1.25716
1.25721
1.25726
1.25732
1.25736
1.25741
1.25746
1.25751
1.25756
1.2576
1.25764
1.25766
1.25767
1.25769
1.2577
1.25771
1.25771
1.25773
1.25774
1.25777
1.25784
1.25791
1.25804
1.25806
1.25816
1.25851
1.25948
1.26148
1.26605
1.27306
1.28515
1.29979
1.31744
1.33514
1.34893
1.36169
1.36934
1.3751
1.37694
1.37823
1.37807
1.37718
1.37675
1.37695
1.377
1.37696
1.37677
1.37675
1.37716
1.37774
1.37838
1.37892
1.379
1.37873
1.37856
1.37863
1.3787
1.37865
1.37857
1.37861
1.37874
1.37892
1.37904
1.37909
1.37914
1.37922
1.37913
1.37899
1.37893
1.37886
1.37866
1.37811
1.37687
1.37454
1.37098
1.36736
1.36344
1.35924
1.35778
1.35592
1.25674
1.25676
1.25679
1.25683
1.25685
1.25687
1.2569
1.25692
1.25695
1.25699
1.25703
1.25706
1.2571
1.25714
1.25719
1.25723
1.25727
1.25731
1.25736
1.2574
1.25745
1.2575
1.25755
1.2576
1.25765
1.25769
1.25774
1.25779
1.25783
1.25788
1.25791
1.25792
1.25794
1.25795
1.25795
1.25794
1.25793
1.25792
1.2579
1.25788
1.25786
1.25786
1.25788
1.25792
1.25797
1.25801
1.2581
1.2583
1.25878
1.25979
1.26229
1.26685
1.27599
1.2885
1.30593
1.3237
1.33956
1.35516
1.36237
1.37009
1.37216
1.37473
1.37693
1.37902
1.37891
1.37834
1.3771
1.37615
1.37643
1.37734
1.37839
1.37867
1.37864
1.37857
1.37869
1.37901
1.37909
1.37896
1.37877
1.37878
1.37888
1.37901
1.37913
1.37927
1.37947
1.37958
1.37952
1.3793
1.3791
1.37895
1.37866
1.3781
1.37693
1.37453
1.37089
1.36742
1.36363
1.35935
1.35782
1.35587
1.25714
1.25716
1.25717
1.25718
1.2572
1.25722
1.25725
1.25727
1.2573
1.25734
1.25737
1.25738
1.2574
1.25743
1.25747
1.2575
1.25754
1.25757
1.2576
1.25763
1.25766
1.2577
1.25775
1.25778
1.25783
1.25787
1.25791
1.25795
1.25799
1.25803
1.25807
1.25808
1.25809
1.2581
1.2581
1.25809
1.25807
1.25805
1.25803
1.25799
1.25795
1.25791
1.25788
1.25788
1.25789
1.25791
1.25794
1.258
1.25811
1.25829
1.25854
1.259
1.26032
1.26324
1.27005
1.28022
1.29627
1.3141
1.33241
1.34966
1.36055
1.37139
1.37515
1.37782
1.37766
1.37664
1.37589
1.37631
1.37716
1.37803
1.37827
1.37799
1.37801
1.37838
1.37894
1.37939
1.37929
1.37918
1.37909
1.37911
1.3791
1.37913
1.37922
1.37943
1.37981
1.37988
1.37982
1.37961
1.37931
1.37909
1.37873
1.37811
1.37698
1.37455
1.37085
1.36743
1.36377
1.35948
1.35795
1.35586
1.25759
1.2576
1.2576
1.2576
1.25759
1.25759
1.25761
1.25765
1.25767
1.25768
1.25769
1.25771
1.25772
1.25774
1.25776
1.25779
1.25781
1.25782
1.25784
1.25787
1.25789
1.25792
1.25795
1.25798
1.25801
1.25805
1.25808
1.25811
1.25814
1.25817
1.2582
1.25822
1.25824
1.25824
1.25824
1.25823
1.25822
1.2582
1.25817
1.25813
1.25808
1.25803
1.25798
1.25793
1.25792
1.25793
1.25796
1.258
1.25806
1.25814
1.25825
1.2584
1.25851
1.25871
1.25943
1.26135
1.26622
1.27449
1.28936
1.30653
1.32565
1.34475
1.35584
1.36694
1.36996
1.37327
1.37572
1.37854
1.37894
1.37877
1.37798
1.37753
1.37783
1.37857
1.37895
1.37923
1.3793
1.37953
1.37966
1.3796
1.37939
1.37934
1.37942
1.37969
1.38011
1.38019
1.38013
1.37996
1.37965
1.37937
1.37891
1.37819
1.37705
1.3746
1.3709
1.3675
1.36384
1.35974
1.35818
1.3559
1.25804
1.25803
1.25802
1.25801
1.25801
1.25801
1.25801
1.25802
1.25803
1.25804
1.25804
1.25803
1.25803
1.25803
1.25804
1.25805
1.25806
1.25807
1.25808
1.2581
1.25811
1.25812
1.25814
1.25816
1.25819
1.25821
1.25824
1.25826
1.25828
1.2583
1.25833
1.25836
1.25838
1.2584
1.2584
1.2584
1.2584
1.25839
1.25836
1.25833
1.25828
1.25823
1.25817
1.2581
1.25803
1.25801
1.25802
1.25804
1.25808
1.25812
1.25819
1.25829
1.2584
1.25845
1.25846
1.25853
1.25896
1.26022
1.26389
1.27089
1.28446
1.3011
1.32168
1.34195
1.35601
1.36959
1.37384
1.37749
1.37762
1.37674
1.37691
1.37785
1.37884
1.37907
1.37884
1.37875
1.37911
1.37987
1.38016
1.38001
1.37974
1.37968
1.37981
1.38005
1.38028
1.38045
1.38044
1.38034
1.38011
1.37976
1.3792
1.3784
1.37715
1.37461
1.37101
1.36762
1.36393
1.36003
1.3584
1.356
1.25856
1.25855
1.25853
1.25851
1.2585
1.25849
1.25849
1.25848
1.25847
1.25846
1.25845
1.25843
1.25841
1.2584
1.2584
1.25839
1.25838
1.25838
1.25838
1.25838
1.25838
1.25838
1.25838
1.25839
1.2584
1.25842
1.25843
1.25845
1.25846
1.25847
1.25849
1.25852
1.25856
1.25859
1.25862
1.25863
1.25863
1.25863
1.25862
1.2586
1.25856
1.25851
1.25844
1.25837
1.25828
1.25818
1.25812
1.25811
1.25812
1.25814
1.25818
1.25824
1.25834
1.25847
1.25855
1.25863
1.25861
1.25859
1.25876
1.25968
1.26267
1.26881
1.28169
1.29812
1.31898
1.33991
1.35304
1.36578
1.36932
1.3731
1.37707
1.37981
1.37975
1.37919
1.37823
1.37838
1.3795
1.38016
1.3803
1.38022
1.38016
1.38028
1.38048
1.38051
1.38052
1.38064
1.38076
1.38075
1.38061
1.38023
1.3796
1.37871
1.37728
1.3746
1.37107
1.36769
1.36396
1.3603
1.35862
1.35622
1.25908
1.25906
1.25905
1.25903
1.25901
1.25899
1.25898
1.25896
1.25894
1.25892
1.2589
1.25888
1.25886
1.25884
1.25882
1.2588
1.25878
1.25877
1.25876
1.25874
1.25874
1.25874
1.25873
1.25873
1.25872
1.25872
1.25872
1.25872
1.25872
1.25873
1.25873
1.25874
1.25876
1.2588
1.25884
1.25888
1.2589
1.25891
1.25891
1.2589
1.25887
1.25883
1.25877
1.25869
1.25858
1.25846
1.25831
1.2582
1.25817
1.25817
1.25819
1.25823
1.25831
1.25845
1.25862
1.25879
1.25885
1.25888
1.25887
1.2587
1.25878
1.25955
1.26225
1.26802
1.28029
1.29663
1.31834
1.33962
1.35556
1.36942
1.37487
1.37849
1.37843
1.37717
1.37766
1.379
1.37996
1.38011
1.38008
1.38014
1.38059
1.381
1.38099
1.38084
1.38079
1.3809
1.38106
1.3811
1.38099
1.38064
1.38004
1.37908
1.37745
1.3746
1.37104
1.36763
1.36399
1.36036
1.35887
1.35657
1.25954
1.25953
1.25951
1.2595
1.25948
1.25946
1.25945
1.25943
1.25941
1.25939
1.25937
1.25934
1.25932
1.25929
1.25927
1.25924
1.25922
1.25919
1.25917
1.25915
1.25912
1.2591
1.25908
1.25907
1.25905
1.25904
1.25902
1.25901
1.259
1.259
1.25898
1.25897
1.25897
1.259
1.25904
1.25909
1.25914
1.25917
1.25919
1.25918
1.25917
1.25914
1.25909
1.25901
1.25891
1.25878
1.25862
1.25845
1.25829
1.25823
1.25823
1.25825
1.25832
1.25845
1.25865
1.25892
1.25914
1.2592
1.2592
1.25914
1.25904
1.25893
1.25907
1.25985
1.26239
1.26793
1.28018
1.29641
1.31867
1.33987
1.35427
1.36586
1.37115
1.37483
1.37916
1.38036
1.37999
1.37927
1.37961
1.38039
1.38127
1.38147
1.38126
1.38103
1.38112
1.38129
1.3814
1.3814
1.38129
1.381
1.38046
1.37945
1.37761
1.37461
1.37095
1.36749
1.36406
1.36034
1.3591
1.35694
1.25986
1.25985
1.25984
1.25983
1.25983
1.25982
1.25981
1.2598
1.25979
1.25978
1.25976
1.25975
1.25973
1.25972
1.2597
1.25968
1.25965
1.25963
1.2596
1.25957
1.25953
1.2595
1.25946
1.25942
1.25938
1.25935
1.25931
1.25928
1.25926
1.25925
1.25923
1.25922
1.25922
1.25923
1.25926
1.25929
1.2593
1.25933
1.25938
1.25943
1.25944
1.25943
1.25941
1.25936
1.25929
1.25918
1.25905
1.25887
1.25866
1.25846
1.25838
1.25837
1.25838
1.25847
1.25867
1.25897
1.25929
1.2595
1.25953
1.25951
1.25941
1.25924
1.25919
1.25921
1.25945
1.26028
1.26281
1.26834
1.28054
1.29777
1.32063
1.34173
1.36012
1.37175
1.37679
1.37872
1.37727
1.37776
1.37929
1.38089
1.38134
1.38131
1.38123
1.38136
1.3817
1.38171
1.38165
1.38156
1.38149
1.38131
1.3808
1.37973
1.37776
1.37465
1.37087
1.36735
1.36404
1.36029
1.35913
1.35714
1.25999
1.26
1.26002
1.26003
1.26003
1.26003
1.26003
1.26003
1.26003
1.26003
1.26003
1.26002
1.26002
1.26001
1.26
1.25999
1.25997
1.25995
1.25992
1.25989
1.25985
1.25982
1.25977
1.25972
1.25966
1.2596
1.25953
1.25947
1.25942
1.25938
1.25936
1.25935
1.25933
1.25932
1.25932
1.25933
1.25937
1.25945
1.25954
1.25963
1.25967
1.25965
1.25966
1.25966
1.25964
1.2596
1.25953
1.2594
1.25921
1.25896
1.25872
1.25861
1.2586
1.25863
1.25876
1.25901
1.25931
1.2596
1.25976
1.25976
1.25972
1.25958
1.25937
1.25929
1.25931
1.25949
1.25988
1.26078
1.26321
1.26921
1.28175
1.30107
1.32353
1.34486
1.35936
1.36784
1.37242
1.37809
1.38099
1.38113
1.38074
1.38055
1.38096
1.3818
1.38207
1.382
1.38185
1.3817
1.38168
1.38154
1.38101
1.3799
1.37789
1.37474
1.3708
1.36719
1.36395
1.36027
1.35905
1.35712
1.25995
1.25997
1.25999
1.26002
1.26003
1.26005
1.26006
1.26006
1.26007
1.26008
1.26009
1.2601
1.26011
1.2601
1.2601
1.2601
1.2601
1.2601
1.26008
1.26005
1.26002
1.26
1.25997
1.25992
1.25987
1.25981
1.25974
1.25966
1.25958
1.25951
1.25944
1.2594
1.25937
1.25935
1.25935
1.25935
1.25936
1.25938
1.25941
1.25947
1.25957
1.25971
1.25983
1.2599
1.25994
1.25998
1.26
1.25999
1.25991
1.25971
1.25941
1.2591
1.25894
1.25893
1.25898
1.2591
1.25929
1.25956
1.25983
1.25993
1.25992
1.25984
1.25964
1.2594
1.25934
1.25938
1.25961
1.25998
1.2603
1.26106
1.26371
1.27063
1.28442
1.3055
1.32862
1.34967
1.36701
1.37548
1.37948
1.37885
1.37836
1.37967
1.38128
1.38201
1.38199
1.38186
1.38194
1.38195
1.38186
1.38156
1.38097
1.37998
1.37806
1.37485
1.37073
1.36702
1.36379
1.36012
1.3589
1.35697
1.25965
1.25968
1.25972
1.25976
1.2598
1.25985
1.25989
1.25993
1.25997
1.26
1.26004
1.26006
1.26007
1.26008
1.26009
1.2601
1.26011
1.26012
1.26012
1.26011
1.26011
1.2601
1.26009
1.26006
1.26003
1.25999
1.25993
1.25987
1.2598
1.25972
1.25962
1.25953
1.25944
1.25939
1.25938
1.25939
1.2594
1.25942
1.25944
1.25946
1.25949
1.25955
1.25964
1.25979
1.25998
1.26017
1.26034
1.26043
1.26044
1.26037
1.26018
1.25987
1.25954
1.25933
1.25928
1.25929
1.25935
1.25951
1.25981
1.26004
1.26008
1.26005
1.25993
1.25966
1.25944
1.25941
1.25951
1.25977
1.26019
1.26031
1.26051
1.26135
1.2646
1.27289
1.28849
1.31094
1.33458
1.3527
1.36552
1.37122
1.37625
1.38146
1.38178
1.38157
1.38123
1.38162
1.38216
1.38217
1.38198
1.38153
1.38092
1.38003
1.37817
1.37493
1.37064
1.36684
1.36357
1.35985
1.35864
1.35672
1.2592
1.25922
1.25924
1.25926
1.25929
1.25933
1.25937
1.25942
1.25948
1.25954
1.25962
1.25969
1.25977
1.25985
1.25992
1.25999
1.26004
1.26008
1.2601
1.26012
1.26014
1.26016
1.26017
1.26017
1.26016
1.26015
1.26014
1.26012
1.26008
1.26002
1.25994
1.25984
1.25973
1.25962
1.25954
1.25947
1.25943
1.25943
1.25944
1.25945
1.25945
1.25946
1.2595
1.2596
1.25978
1.26003
1.26032
1.26054
1.26063
1.26063
1.26057
1.26043
1.26019
1.25987
1.2596
1.2595
1.25949
1.25952
1.25966
1.25998
1.26024
1.26028
1.26023
1.26006
1.25975
1.25956
1.25956
1.25968
1.25999
1.26029
1.26029
1.26026
1.26047
1.26167
1.26602
1.2761
1.29411
1.31789
1.34133
1.36213
1.37323
1.37933
1.37942
1.37882
1.38015
1.38145
1.38224
1.38207
1.38178
1.38138
1.38096
1.38006
1.3781
1.37467
1.3705
1.36668
1.36329
1.35947
1.35832
1.35641
1.25903
1.25903
1.25903
1.25903
1.25903
1.25904
1.25906
1.25908
1.2591
1.25914
1.25918
1.25924
1.2593
1.25938
1.25946
1.25955
1.25965
1.25976
1.25989
1.26003
1.26015
1.26022
1.26025
1.26027
1.26031
1.26035
1.26038
1.2604
1.2604
1.2604
1.26039
1.26036
1.2603
1.2602
1.26008
1.25994
1.2598
1.25969
1.2596
1.25951
1.25942
1.2594
1.2594
1.25943
1.25954
1.25973
1.25999
1.26028
1.26054
1.26065
1.26064
1.26061
1.26054
1.26037
1.26007
1.25975
1.25961
1.25961
1.25969
1.25989
1.26023
1.26048
1.2605
1.26043
1.26021
1.25989
1.25973
1.25974
1.25986
1.26014
1.26028
1.26028
1.26011
1.2601
1.26048
1.2623
1.26819
1.28057
1.30162
1.32606
1.3481
1.36269
1.37021
1.37578
1.3818
1.38215
1.3819
1.38127
1.38143
1.38137
1.38108
1.38003
1.3778
1.37431
1.37038
1.36661
1.36295
1.35905
1.35801
1.35603
1.25902
1.25902
1.25902
1.25902
1.25903
1.25904
1.25905
1.25907
1.2591
1.25912
1.25915
1.25917
1.2592
1.25925
1.2593
1.25937
1.25945
1.25954
1.25965
1.25976
1.25989
1.26001
1.26015
1.26031
1.26044
1.26052
1.26056
1.2606
1.26064
1.2607
1.26076
1.26081
1.26084
1.26086
1.26085
1.26077
1.26061
1.26042
1.26021
1.25997
1.25971
1.25948
1.25936
1.25934
1.25937
1.25946
1.25961
1.25976
1.25995
1.2602
1.26042
1.26052
1.26057
1.26058
1.26049
1.26023
1.25991
1.25977
1.25978
1.2599
1.26014
1.26045
1.26062
1.26061
1.26051
1.26029
1.25999
1.25988
1.25989
1.26001
1.26021
1.26025
1.26018
1.25997
1.25981
1.25992
1.26063
1.26357
1.27142
1.28742
1.31112
1.33541
1.35855
1.37226
1.37956
1.37978
1.37899
1.38011
1.38105
1.38148
1.381
1.3797
1.37727
1.37397
1.37028
1.36649
1.36258
1.35881
1.35782
1.35561
1.25919
1.25917
1.25916
1.25917
1.25918
1.25918
1.25918
1.25919
1.2592
1.25921
1.25923
1.25925
1.25928
1.25932
1.25938
1.25944
1.25951
1.25959
1.25966
1.25972
1.25978
1.25984
1.25992
1.26001
1.26012
1.26024
1.26039
1.26056
1.26071
1.26083
1.26092
1.26103
1.26115
1.26121
1.26123
1.26123
1.26119
1.26105
1.26085
1.26058
1.26027
1.25995
1.25964
1.25941
1.25934
1.25935
1.25938
1.2594
1.25943
1.25955
1.25979
1.26013
1.26046
1.26063
1.26067
1.26064
1.26048
1.26022
1.26003
1.26
1.26008
1.26029
1.2605
1.26058
1.26057
1.26047
1.26026
1.26003
1.25997
1.26002
1.26018
1.2603
1.26026
1.2601
1.25986
1.25976
1.2598
1.26013
1.26143
1.26602
1.27648
1.29654
1.3211
1.34514
1.3612
1.36969
1.37567
1.38146
1.38158
1.38128
1.38036
1.37914
1.37693
1.3738
1.37007
1.36618
1.36216
1.35874
1.35765
1.35506
1.26001
1.25997
1.25994
1.2599
1.25988
1.25985
1.25982
1.25978
1.25975
1.25973
1.25973
1.25972
1.25971
1.2597
1.25969
1.25967
1.25966
1.25965
1.25965
1.25965
1.25966
1.25968
1.25969
1.25971
1.25973
1.25977
1.25986
1.25998
1.26012
1.26029
1.26048
1.26068
1.2609
1.26108
1.26121
1.26124
1.26122
1.26115
1.26104
1.2609
1.26072
1.2605
1.26028
1.26001
1.25971
1.25946
1.25934
1.25932
1.25933
1.25939
1.25953
1.25975
1.2601
1.26049
1.26074
1.26081
1.26082
1.26073
1.26047
1.26021
1.26012
1.26015
1.26021
1.26028
1.26035
1.26042
1.26037
1.26019
1.26009
1.2601
1.26021
1.26038
1.26039
1.26029
1.26004
1.25985
1.25984
1.2599
1.26007
1.26062
1.26278
1.26938
1.28385
1.30735
1.33212
1.35755
1.37138
1.37964
1.37939
1.37928
1.37924
1.37859
1.37678
1.37355
1.36948
1.36579
1.36177
1.35871
1.35737
1.35441
1.26085
1.26081
1.26078
1.26076
1.26073
1.26069
1.26066
1.26062
1.26058
1.26053
1.26048
1.26043
1.26036
1.26028
1.2602
1.26011
1.26001
1.25992
1.25982
1.25969
1.2596
1.25958
1.25955
1.25951
1.25949
1.25949
1.25949
1.25949
1.25953
1.25962
1.25974
1.25991
1.26009
1.26027
1.26046
1.26066
1.26086
1.26098
1.26098
1.26093
1.26087
1.26082
1.26078
1.26069
1.26052
1.26024
1.2599
1.25962
1.2595
1.2595
1.25956
1.25969
1.25988
1.26017
1.26056
1.26084
1.26089
1.26088
1.26077
1.26052
1.26025
1.26009
1.26002
1.26001
1.26006
1.26023
1.2603
1.26029
1.26025
1.26025
1.26032
1.26045
1.26048
1.26042
1.26023
1.25999
1.25991
1.25992
1.26002
1.26012
1.2603
1.26118
1.265
1.27441
1.29402
1.31952
1.34302
1.36313
1.36932
1.37611
1.37961
1.37861
1.37626
1.37249
1.36892
1.36562
1.36164
1.35858
1.35694
1.35378
1.26099
1.26101
1.26102
1.26103
1.26102
1.26101
1.26103
1.26105
1.26105
1.26104
1.26101
1.26097
1.26091
1.26086
1.2608
1.26069
1.26056
1.26042
1.26029
1.26016
1.26
1.25982
1.25966
1.25953
1.25945
1.2594
1.25937
1.25936
1.25937
1.2594
1.25943
1.25949
1.25957
1.25966
1.25977
1.25992
1.26009
1.26028
1.26048
1.26066
1.26083
1.26097
1.26102
1.26102
1.26098
1.26084
1.26064
1.26047
1.26031
1.26016
1.25999
1.25987
1.25986
1.25993
1.26015
1.26052
1.2608
1.26086
1.26081
1.26065
1.26045
1.26021
1.25998
1.25995
1.26
1.26012
1.26023
1.26033
1.26038
1.26042
1.26048
1.26053
1.26051
1.26045
1.2603
1.26009
1.25999
1.25998
1.26002
1.26008
1.26013
1.26019
1.26056
1.26238
1.26875
1.28262
1.30673
1.33275
1.35709
1.37227
1.37781
1.37611
1.37409
1.37115
1.36881
1.36537
1.36126
1.35821
1.3564
1.35326
1.26104
1.26109
1.26113
1.26117
1.26118
1.2612
1.26122
1.26123
1.26123
1.26124
1.26124
1.26123
1.26121
1.26115
1.26105
1.26093
1.26084
1.26076
1.26069
1.26063
1.26055
1.26047
1.26038
1.26029
1.26021
1.26014
1.26008
1.26001
1.25993
1.25984
1.25973
1.25963
1.25955
1.25952
1.25952
1.25957
1.25969
1.25985
1.26006
1.26034
1.26062
1.26086
1.26101
1.26103
1.26096
1.26082
1.26079
1.26084
1.26087
1.26085
1.26069
1.26033
1.25998
1.2599
1.25992
1.26004
1.26024
1.26037
1.26046
1.26054
1.26054
1.26043
1.26025
1.26012
1.26012
1.26016
1.2602
1.26029
1.26039
1.2605
1.26056
1.26055
1.26051
1.26042
1.26026
1.26011
1.26006
1.26006
1.26008
1.26011
1.26014
1.26018
1.26023
1.2604
1.26127
1.26491
1.27458
1.294
1.32051
1.34505
1.36202
1.36711
1.37198
1.37132
1.36857
1.36413
1.3604
1.35788
1.356
1.35278
1.26048
1.26054
1.2606
1.26066
1.26072
1.26077
1.26081
1.26085
1.2609
1.26094
1.26099
1.26103
1.26104
1.26105
1.26105
1.26107
1.26106
1.26103
1.261
1.26098
1.26098
1.261
1.26101
1.26104
1.26111
1.26119
1.26124
1.26126
1.26125
1.26121
1.26108
1.26085
1.26058
1.26031
1.26009
1.25993
1.25989
1.25994
1.26014
1.26045
1.26056
1.26058
1.2606
1.26059
1.2605
1.26048
1.26051
1.26069
1.2609
1.26093
1.26091
1.2607
1.26026
1.25997
1.25994
1.25997
1.26003
1.26011
1.26015
1.26023
1.26038
1.26054
1.26061
1.26063
1.26058
1.26041
1.26028
1.26027
1.26034
1.26048
1.26054
1.26052
1.26047
1.26036
1.26019
1.26009
1.26009
1.26012
1.26016
1.26018
1.26021
1.26028
1.26037
1.26049
1.26055
1.2609
1.26271
1.26884
1.28365
1.30785
1.3336
1.35675
1.36918
1.36873
1.36505
1.36178
1.35961
1.35811
1.35551
1.3521
1.26051
1.26051
1.26051
1.26051
1.26052
1.26052
1.26053
1.26055
1.26057
1.26059
1.26058
1.26056
1.26056
1.26059
1.26063
1.26061
1.26061
1.26064
1.26072
1.26086
1.26102
1.26111
1.26119
1.26131
1.26145
1.26159
1.26171
1.26184
1.26194
1.26192
1.26179
1.26159
1.26131
1.26104
1.26087
1.26075
1.26059
1.26055
1.26067
1.26073
1.26073
1.26064
1.26034
1.25988
1.25967
1.25965
1.25968
1.25989
1.26028
1.26063
1.26081
1.26076
1.26049
1.26039
1.2604
1.26039
1.26032
1.26021
1.26013
1.26008
1.26012
1.26041
1.26078
1.26086
1.26081
1.26063
1.26037
1.26024
1.26023
1.26027
1.26037
1.26044
1.26043
1.26036
1.26021
1.26011
1.26012
1.26017
1.26023
1.2603
1.26035
1.26044
1.26054
1.26059
1.26062
1.2606
1.26071
1.26141
1.26511
1.27468
1.29544
1.32086
1.34329
1.35429
1.35769
1.36179
1.36057
1.35791
1.35378
1.35147
1.26073
1.26064
1.26056
1.26048
1.2604
1.26031
1.26024
1.26019
1.26012
1.26004
1.25993
1.25981
1.25979
1.25977
1.25974
1.25968
1.25964
1.25965
1.25973
1.25991
1.26012
1.26028
1.26046
1.26067
1.26088
1.26106
1.26124
1.26145
1.26168
1.26165
1.26147
1.26126
1.26105
1.26098
1.26105
1.26118
1.2612
1.26127
1.26137
1.26139
1.26132
1.26104
1.26052
1.25982
1.25934
1.25925
1.25928
1.25946
1.25983
1.2602
1.26048
1.26069
1.26075
1.26081
1.26096
1.26103
1.26103
1.26087
1.26047
1.26014
1.2601
1.26022
1.26057
1.26081
1.26079
1.26065
1.26043
1.26026
1.26023
1.26023
1.26029
1.26041
1.26047
1.26047
1.2604
1.26029
1.26026
1.26028
1.26032
1.26039
1.26046
1.26056
1.26066
1.26069
1.26068
1.26064
1.26054
1.26037
1.26061
1.26215
1.26855
1.28339
1.30651
1.3307
1.34994
1.35946
1.35833
1.35436
1.35172
1.35068
1.26138
1.26123
1.26105
1.26085
1.26062
1.26037
1.26009
1.25979
1.2595
1.25923
1.25899
1.25882
1.25871
1.25864
1.25857
1.25852
1.25851
1.25854
1.25864
1.25878
1.25895
1.25914
1.25934
1.25953
1.25965
1.25972
1.25978
1.25986
1.26004
1.26006
1.25986
1.2598
1.25981
1.25991
1.26017
1.26051
1.26095
1.26143
1.26158
1.2616
1.26155
1.26128
1.26073
1.26008
1.25963
1.25939
1.25944
1.25974
1.26016
1.26041
1.26049
1.26052
1.26059
1.26082
1.26113
1.26128
1.2613
1.26121
1.26086
1.26042
1.26023
1.26026
1.26035
1.26044
1.26044
1.26041
1.26035
1.26034
1.26036
1.26038
1.26042
1.26054
1.26063
1.26064
1.26061
1.26051
1.2604
1.26038
1.2604
1.26045
1.26053
1.26063
1.2607
1.26071
1.2607
1.26064
1.26051
1.2603
1.26
1.25928
1.25983
1.26313
1.27257
1.29254
1.31593
1.33721
1.34502
1.34851
1.35222
1.35114
1.261
1.26085
1.26067
1.26047
1.26025
1.26005
1.25991
1.25978
1.25961
1.25942
1.25926
1.25911
1.25899
1.2589
1.25883
1.25878
1.25872
1.25872
1.2588
1.25892
1.25904
1.25924
1.25955
1.25965
1.25963
1.25963
1.25962
1.25958
1.25942
1.25903
1.25873
1.25868
1.2587
1.25886
1.25927
1.2599
1.26064
1.26105
1.26117
1.26125
1.26121
1.26102
1.26066
1.26036
1.26037
1.26052
1.26077
1.26114
1.26129
1.26116
1.26073
1.26038
1.26028
1.26028
1.26043
1.26062
1.26073
1.26076
1.26072
1.26063
1.26054
1.26052
1.26053
1.26048
1.2604
1.26033
1.26034
1.26049
1.26069
1.2608
1.26083
1.26083
1.2608
1.26076
1.26071
1.2606
1.26048
1.26045
1.26046
1.26052
1.26062
1.26069
1.26071
1.26069
1.26066
1.26058
1.26045
1.26022
1.25981
1.25919
1.25776
1.25681
1.25783
1.26395
1.2796
1.30302
1.32623
1.34322
1.35055
1.34926
1.26101
1.26082
1.26042
1.26017
1.26012
1.26013
1.26028
1.26032
1.26029
1.26039
1.26064
1.26085
1.26107
1.26132
1.26145
1.26154
1.26171
1.26186
1.26194
1.26204
1.26233
1.26281
1.26301
1.26303
1.26299
1.26275
1.26217
1.26134
1.26034
1.25948
1.25916
1.25912
1.25916
1.25938
1.25991
1.26046
1.26057
1.26044
1.26033
1.26031
1.26019
1.25991
1.25983
1.25987
1.26012
1.26067
1.26135
1.26176
1.26177
1.26154
1.26103
1.26044
1.25993
1.25961
1.2595
1.25945
1.25943
1.25957
1.25995
1.26038
1.2607
1.26092
1.26099
1.26093
1.26068
1.26044
1.26043
1.26054
1.26078
1.26099
1.26104
1.26102
1.26093
1.26078
1.26067
1.2606
1.26053
1.26053
1.26056
1.26064
1.26074
1.26076
1.26074
1.26069
1.26062
1.26053
1.26039
1.26019
1.25975
1.25908
1.25765
1.25553
1.25263
1.25279
1.25648
1.26775
1.28953
1.3128
1.33089
1.34029
1.26238
1.26226
1.26224
1.26225
1.26228
1.26239
1.26268
1.26326
1.2638
1.2643
1.26471
1.26497
1.26525
1.26566
1.26575
1.26562
1.2657
1.26586
1.26591
1.26603
1.26641
1.26682
1.26706
1.26725
1.26704
1.26634
1.26532
1.26436
1.26354
1.26294
1.26254
1.26218
1.26213
1.26233
1.2624
1.26216
1.26161
1.2609
1.26055
1.2605
1.2603
1.25975
1.25966
1.25968
1.2598
1.26015
1.26061
1.26105
1.26107
1.26086
1.26068
1.26055
1.26033
1.25997
1.25964
1.25941
1.25927
1.25928
1.2595
1.25992
1.2604
1.26096
1.26132
1.26135
1.26126
1.26099
1.26064
1.26043
1.26042
1.26054
1.26078
1.26089
1.26088
1.26077
1.26062
1.2606
1.26063
1.2607
1.26075
1.26081
1.26086
1.26086
1.26081
1.26072
1.26063
1.26055
1.26042
1.26022
1.25979
1.25901
1.25763
1.25529
1.2526
1.24943
1.24831
1.25017
1.25864
1.27649
1.29936
1.32816
1.27242
1.2718
1.27075
1.27
1.26997
1.27004
1.27007
1.27042
1.27105
1.27115
1.27083
1.27071
1.27068
1.27027
1.26901
1.26778
1.26733
1.26694
1.26676
1.26698
1.26716
1.26695
1.2667
1.2665
1.26631
1.26621
1.26653
1.26724
1.26745
1.26757
1.2677
1.26787
1.26792
1.26793
1.2679
1.26748
1.26647
1.26537
1.26455
1.264
1.26349
1.263
1.26259
1.26211
1.26149
1.26117
1.26115
1.26111
1.26091
1.26075
1.26075
1.26108
1.26181
1.26211
1.2621
1.26191
1.26138
1.26074
1.26024
1.26001
1.26
1.26028
1.26092
1.2613
1.26126
1.26106
1.26067
1.26018
1.25999
1.26005
1.26034
1.2607
1.26078
1.26075
1.26064
1.26069
1.26079
1.26089
1.26093
1.26093
1.26092
1.26091
1.26088
1.26081
1.26072
1.26064
1.26054
1.26034
1.25987
1.25893
1.25745
1.25506
1.25229
1.24936
1.24686
1.24435
1.24527
1.25052
1.26325
1.29558
1.29549
1.29481
1.29449
1.29451
1.29471
1.29462
1.29434
1.29404
1.29353
1.29334
1.29339
1.29334
1.29289
1.29141
1.28926
1.28724