/*--------------------------------*- C++ -*----------------------------------*\
  =========                 |
  \\      /  F ield         | OpenFOAM: The Open Source CFD Toolbox
   \\    /   O peration     | Website:  https://openfoam.org
    \\  /    A nd           | Version:  7
     \\/     M anipulation  |
\*---------------------------------------------------------------------------*/
FoamFile
{
    version     2.0;
    format      ascii;
    class       volScalarField;
    location    "0.6";
    object      rho;
}
// * * * * * * * * * * * * * * * * * * * * * * * * * * * * * * * * * * * * * //

dimensions      [1 -3 0 0 0 0 0];

internalField   nonuniform List<scalar> 
1750
(
0.219228
0.501976
0.769283
0.96559
1.10939
1.18459
1.24301
1.31341
1.38156
1.39917
0.229267
0.326249
0.501657
0.736653
0.89633
1.01679
1.1717
1.32377
1.38988
1.39967
0.251806
0.297717
0.37069
0.540532
0.776792
1.00502
1.20303
1.3501
1.39603
1.39993
0.333389
0.398452
0.495702
0.64701
0.865906
1.10854
1.30314
1.38696
1.39951
1.4
0.49472
0.612811
0.766223
0.943463
1.13626
1.30392
1.38452
1.3992
1.39999
1.40001
0.758647
0.912768
1.08335
1.2395
1.34744
1.39174
1.39953
1.39999
1.4
1.40001
1.10837
1.23227
1.32909
1.38147
1.39759
1.39987
1.4
1.4
1.40001
1.40001
1.34684
1.38155
1.39614
1.39958
1.39998
1.4
1.40001
1.40001
1.40001
1.40001
1.39772
1.39959
1.39996
1.4
1.4
1.40001
1.40001
1.40001
1.40001
1.40001
1.39998
1.4
1.4
1.40001
1.40001
1.40001
1.40001
1.40001
1.40001
1.40001
1.4
1.40001
1.40001
1.40001
1.40001
1.40001
1.40001
1.40001
1.40001
1.40001
1.40001
1.40001
1.40001
1.40001
1.40001
1.40001
1.40001
1.40001
1.40001
1.40001
1.40001
1.40001
1.40001
1.40001
1.40001
1.40001
1.40001
1.40001
1.40001
1.40001
1.40001
1.40001
1.40001
1.40001
1.40001
1.40001
1.40001
1.40001
1.40001
1.40001
1.40001
1.40001
1.40001
1.40001
1.40001
1.40001
1.40001
1.40001
1.40001
1.40001
0.0366506
0.132161
0.214901
0.291117
0.418004
0.646903
0.995564
1.29869
1.39253
1.39986
1.4
1.40001
1.40001
1.40001
1.40001
0.0459658
0.156834
0.232089
0.306395
0.440927
0.675968
1.01959
1.30813
1.39378
1.3999
1.4
1.40001
1.40001
1.40001
1.40001
0.0478795
0.155938
0.230526
0.304359
0.437701
0.669081
1.00854
1.30014
1.39218
1.39984
1.4
1.40001
1.40001
1.40001
1.40001
0.0495132
0.156162
0.233276
0.321314
0.470768
0.705686
1.02922
1.30385
1.39236
1.39984
1.4
1.40001
1.40001
1.40001
1.40001
0.0507124
0.159271
0.256441
0.369534
0.545369
0.79655
1.09858
1.32472
1.39381
1.39986
1.4
1.40001
1.40001
1.40001
1.40001
0.0546128
0.170996
0.26714
0.391935
0.598044
0.882722
1.17475
1.3514
1.39628
1.39991
1.4
1.40001
1.40001
1.40001
1.40001
0.063233
0.172194
0.25503
0.392187
0.63996
0.96948
1.24632
1.37321
1.39821
1.39996
1.4
1.40001
1.40001
1.40001
1.40001
0.0640821
0.151932
0.214836
0.394779
0.719326
1.08521
1.31435
1.38843
1.39932
1.39999
1.4
1.40001
1.40001
1.40001
1.40001
0.036979
0.0917339
0.188877
0.458596
0.88441
1.22316
1.3666
1.39678
1.39982
1.4
1.4
1.40001
1.40001
1.40001
1.40001
0.0117873
0.0661042
0.241457
0.671085
1.10224
1.33524
1.39492
1.40029
1.40001
1.4
1.4
1.40001
1.40001
1.40001
1.40001
0.0076089
0.103371
0.475091
0.946774
1.2847
1.39764
1.40617
1.40152
1.40005
1.4
1.4
1.40001
1.40001
1.40001
1.40001
0.0582664
0.282893
0.76103
1.212
1.40556
1.42414
1.41056
1.40117
1.40003
1.40001
1.4
1.40001
1.40001
1.40001
1.40001
0.205014
0.545499
1.08621
1.41711
1.46114
1.43557
1.40717
1.40042
1.40001
1.40001
1.40001
1.40001
1.40001
1.40001
1.40001
0.472775
0.912145
1.40502
1.51409
1.48079
1.42389
1.40227
1.40008
1.40001
1.40001
1.40001
1.40001
1.40001
1.40001
1.40001
0.976733
1.3636
1.57724
1.53986
1.45102
1.40638
1.40029
1.40001
1.40001
1.40001
1.40001
1.40001
1.40001
1.40001
1.40001
1.64618
1.63364
1.62132
1.48943
1.40678
1.40002
1.40001
1.4
1.40001
1.40001
1.40001
1.40001
1.40001
1.40001
1.40001
1.64718
1.63399
1.62077
1.50808
1.41742
1.40065
1.40001
1.40001
1.40001
1.40001
1.40001
1.40001
1.40001
1.40001
1.40001
1.6472
1.63356
1.6204
1.5072
1.41704
1.40062
1.40001
1.40001
1.40001
1.40001
1.40001
1.40001
1.40001
1.40001
1.40001
1.64546
1.63221
1.61906
1.50647
1.41686
1.40062
1.40001
1.40001
1.40001
1.40001
1.40001
1.40001
1.40001
1.40001
1.40001
1.63782
1.62595
1.613
1.50474
1.4166
1.4006
1.40001
1.40001
1.40001
1.40001
1.40001
1.40001
1.40001
1.40001
1.40001
1.6335
1.61495
1.60143
1.49849
1.41561
1.40057
1.40001
1.40001
1.40001
1.40001
1.40001
1.40001
1.40001
1.40001
1.40001
1.63478
1.60464
1.58824
1.48506
1.41259
1.40045
1.40001
1.40001
1.40001
1.40001
1.40001
1.40001
1.40001
1.40001
1.40001
1.64414
1.59881
1.57191
1.46541
1.40809
1.40027
1.40001
1.40001
1.40001
1.40001
1.40001
1.40001
1.40001
1.40001
1.40001
1.67624
1.59818
1.54405
1.44236
1.40402
1.40012
1.40001
1.40001
1.40001
1.40001
1.40001
1.40001
1.40001
1.40001
1.40001
1.70028
1.59312
1.50482
1.42179
1.40149
1.40004
1.40001
1.40001
1.40001
1.40001
1.40001
1.40001
1.40001
1.40001
1.40001
1.70657
1.56546
1.46283
1.40858
1.40041
1.40001
1.40001
1.40001
1.40001
1.40001
1.40001
1.40001
1.40001
1.40001
1.40001
1.68618
1.51658
1.4299
1.40258
1.40009
1.40001
1.40001
1.40001
1.40001
1.40001
1.40001
1.40001
1.40001
1.40001
1.40001
1.6212
1.47178
1.41126
1.40059
1.40002
1.40001
1.40001
1.40001
1.40001
1.40001
1.40001
1.40001
1.40001
1.40001
1.40001
1.5528
1.43368
1.4029
1.4001
1.40001
1.40001
1.40001
1.40001
1.40001
1.40001
1.40001
1.40001
1.40001
1.40001
1.40001
1.4696
1.40867
1.40038
1.40001
1.40001
1.40001
1.40001
1.40001
1.40001
1.40001
1.40001
1.40001
1.40001
1.40001
1.40001
1.40001
1.40001
1.40001
1.40001
1.40001
1.40001
1.40001
1.40001
1.40001
1.40001
1.40001
1.40001
1.40001
1.40001
1.40001
1.40001
1.40001
1.40001
1.40001
1.40001
1.40001
1.40001
1.40001
1.40001
1.40001
1.40001
1.40001
1.40001
1.40001
1.40001
1.40001
1.40001
1.40001
1.40001
1.40001
1.40001
1.40001
1.40001
1.40001
1.40001
1.40001
1.40001
1.40001
1.40001
1.40001
1.40001
1.40001
1.40001
1.40001
1.40001
1.40001
1.40001
1.40001
1.40001
1.40001
1.40001
1.40001
1.40001
1.40001
1.40001
1.40001
1.40001
1.40001
1.40001
1.40001
1.40001
1.40001
1.40001
1.40001
1.40001
1.40001
1.40001
1.40001
1.40001
1.40001
1.40001
1.40001
1.40001
1.40001
1.40001
1.40001
1.40001
1.40001
1.40001
1.40001
1.40001
1.40001
1.40001
1.40001
1.40001
1.40001
1.40001
1.40001
1.40001
1.40001
1.40001
1.40001
1.40001
1.40001
1.40001
1.40001
1.40001
1.40001
1.40001
1.40001
1.40001
1.40001
1.40001
1.40001
1.40001
1.40001
1.40001
1.40001
1.40001
1.40001
1.40001
1.40001
1.40001
1.40001
1.40001
1.40001
1.40001
1.40001
1.40001
1.40001
1.40001
1.40001
1.40001
1.40001
1.40001
1.40001
1.40001
1.40001
1.40001
1.40001
1.40001
1.40001
1.40001
1.40001
1.40001
1.40001
1.40001
1.40001
1.40001
1.40001
1.40001
1.40001
1.40001
1.40001
1.40001
1.40001
1.40001
1.40001
1.40001
1.40001
1.40001
1.40001
1.40001
1.40001
1.40001
1.40001
1.40001
1.40001
1.40001
1.40001
1.40001
1.40001
1.40001
1.40001
1.40001
1.40001
1.40001
1.40001
1.40001
1.40001
1.40001
1.40001
1.40001
1.40001
1.40001
1.40001
1.40001
1.40001
1.40001
1.40001
1.40001
1.40001
1.40001
1.40001
1.40001
1.40001
1.40001
1.40001
1.40001
1.40001
1.40001
1.40001
1.40001
1.40001
1.40001
1.40001
1.40001
1.40001
1.40001
1.40001
1.40001
1.40001
1.40001
1.40001
1.40001
1.40001
1.40001
1.40001
1.40001
1.40001
1.40001
1.40001
1.40001
1.40001
1.40001
1.40001
1.40001
1.40001
1.40001
1.40001
1.40001
1.40001
1.40001
1.40001
1.40001
1.40001
1.40001
1.40001
1.40001
1.40001
1.40001
1.40001
1.40001
1.40001
1.40001
1.40001
1.40001
1.40001
1.40001
1.40001
1.40001
1.40001
1.40001
1.40001
1.40001
1.40001
1.40001
1.40001
1.40001
1.40001
1.40001
1.40001
1.40001
1.40001
1.40001
1.40001
1.40001
1.40001
1.40001
1.40001
1.40001
1.40001
1.40001
1.40001
1.40001
1.40001
1.40001
1.40001
1.40001
1.40001
1.40001
1.40001
1.40001
1.40001
1.40001
1.40001
1.40001
1.40001
1.40001
1.40001
1.40001
1.40001
1.40001
1.40001
1.40001
1.40001
1.40001
1.40001
1.40001
1.40001
1.40001
1.40001
1.40001
1.40001
1.40001
1.40001
1.40001
1.40001
1.40001
1.40001
1.40001
1.40001
1.40001
1.40001
1.40001
1.40001
1.40001
1.40001
1.40001
1.40001
1.40001
1.40001
1.40001
1.40001
1.40001
1.40001
1.40001
1.40001
1.40001
1.40001
1.40001
1.40001
1.40001
1.40001
1.40001
1.40001
1.40001
1.40001
1.40001
1.40001
1.40001
1.40001
1.40001
1.40001
1.40001
1.40001
1.40001
1.40001
1.40001
1.40001
1.40001
1.40001
1.40001
1.40001
1.40001
2.42558
1.39659
1.40002
1.40001
1.40001
1.40001
1.40001
1.40001
1.40001
1.40001
1.40001
1.40001
1.40001
1.40001
1.40001
1.40001
1.40001
1.40001
1.40001
1.40001
4.59621
1.65943
1.39919
1.40001
1.40001
1.40001
1.40001
1.40001
1.40001
1.40001
1.40001
1.40001
1.40001
1.40001
1.40001
1.40001
1.40001
1.40001
1.40001
1.40001
6.64009
3.52691
1.49556
1.4
1.40001
1.40001
1.40001
1.40001
1.40001
1.40001
1.40001
1.40001
1.40001
1.40001
1.40001
1.40001
1.40001
1.40001
1.40001
1.40001
6.14335
4.61567
2.65042
1.39875
1.40001
1.40001
1.40001
1.40001
1.40001
1.40001
1.40001
1.40001
1.40001
1.40001
1.40001
1.40001
1.40001
1.40001
1.40001
1.40001
5.36395
4.68658
3.86783
1.74251
1.4
1.40001
1.40001
1.40001
1.40001
1.40001
1.40001
1.40001
1.40001
1.40001
1.40001
1.40001
1.40001
1.40001
1.40001
1.40001
4.71259
4.56474
4.33143
2.47843
1.39756
1.40001
1.40001
1.40001
1.40001
1.40001
1.40001
1.40001
1.40001
1.40001
1.40001
1.40001
1.40001
1.40001
1.40001
1.40001
4.32674
4.41216
4.46577
3.24293
1.49031
1.40001
1.40001
1.40001
1.40001
1.40001
1.40001
1.40001
1.40001
1.40001
1.40001
1.40001
1.40001
1.40001
1.40001
1.40001
4.13344
4.38217
4.46742
3.71531
1.72913
1.4
1.40001
1.40001
1.40001
1.40001
1.40001
1.40001
1.40001
1.40001
1.40001
1.40001
1.40001
1.40001
1.40001
1.40001
4.06202
4.3673
4.48871
3.98963
2.04443
1.4
1.40001
1.40001
1.40001
1.40001
1.40001
1.40001
1.40001
1.40001
1.40001
1.40001
1.40001
1.40001
1.40001
1.40001
4.05384
4.37535
4.53217
4.15823
2.34703
1.39996
1.40001
1.40001
1.40001
1.40001
1.40001
1.40001
1.40001
1.40001
1.40001
1.40001
1.40001
1.40001
1.40001
1.40001
4.08519
4.40201
4.58237
4.28021
2.60669
1.40314
1.40001
1.40001
1.40001
1.40001
1.40001
1.40001
1.40001
1.40001
1.40001
1.40001
1.40001
1.40001
1.40001
1.40001
4.13158
4.42245
4.61543
4.3622
2.83681
1.41723
1.40001
1.40001
1.40001
1.40001
1.40001
1.40001
1.40001
1.40001
1.40001
1.40001
1.40001
1.40001
1.40001
1.40001
4.16401
4.42093
4.61319
4.41294
3.03933
1.44137
1.40001
1.40001
1.40001
1.40001
1.40001
1.40001
1.40001
1.40001
1.40001
1.40001
1.40001
1.40001
1.40001
1.40001
4.17821
4.39577
4.58336
4.44044
3.34404
1.52418
1.40001
1.40001
1.40001
1.40001
1.40001
1.40001
1.40001
1.40001
1.40001
1.40001
1.40001
1.40001
1.40001
1.40001
4.25329
4.45731
4.62012
4.48657
3.22306
1.32433
1.4
1.40001
1.40001
1.40001
1.40001
1.40001
1.40001
1.40001
1.40001
1.40001
1.40001
1.40001
1.40001
1.40001
1.95354
2.99542
3.63828
3.90362
3.64888
2.61531
1.58469
1.40442
1.40003
1.40001
1.40001
1.40001
1.40001
1.40001
1.40001
1.40001
1.40001
1.40001
1.40001
1.40001
0.647505
1.6835
2.34816
2.9837
3.12387
2.9906
2.1649
1.47441
1.40093
1.40001
1.40001
1.40001
1.40001
1.40001
1.40001
1.40001
1.40001
1.40001
1.40001
1.40001
0.200525
0.801915
1.45312
2.09412
2.73494
2.78949
2.45486
1.63106
1.40587
1.40003
1.40001
1.40001
1.40001
1.40001
1.40001
1.40001
1.40001
1.40001
1.40001
1.40001
0.238708
0.582606
0.902206
1.47734
2.31969
2.59224
2.43477
1.73225
1.41413
1.40009
1.40001
1.40001
1.40001
1.40001
1.40001
1.40001
1.40001
1.40001
1.40001
1.40001
0.329293
0.590927
0.766509
1.19169
1.95503
2.3398
2.30006
1.72214
1.41629
1.40012
1.40001
1.40001
1.40001
1.40001
1.40001
1.40001
1.40001
1.40001
1.40001
1.40001
0.444718
0.62644
0.774084
1.19309
1.82883
2.13772
2.10225
1.65635
1.41345
1.40011
1.40001
1.40001
1.40001
1.40001
1.40001
1.40001
1.40001
1.40001
1.40001
1.40001
0.61768
0.738183
0.830736
1.25258
1.79067
1.97958
1.9095
1.55889
1.4073
1.40006
1.40001
1.40001
1.40001
1.40001
1.40001
1.40001
1.40001
1.40001
1.40001
1.40001
0.914229
1.00169
1.04095
1.38409
1.74174
1.8273
1.71778
1.46761
1.40212
1.40002
1.40001
1.40001
1.40001
1.40001
1.40001
1.40001
1.40001
1.40001
1.40001
1.40001
1.21055
1.24853
1.25339
1.44356
1.65626
1.66149
1.5299
1.41346
1.40022
1.40001
1.4
1.40001
1.40001
1.40001
1.40001
1.40001
1.40001
1.40001
1.40001
1.40001
1.2652
1.28511
1.30118
1.45144
1.5104
1.47727
1.41347
1.3999
1.39995
1.4
1.40001
1.40001
1.40001
1.40001
1.40001
1.40001
1.40001
1.40001
1.40001
1.40001
1.26567
1.28533
1.30479
1.36454
1.34689
1.3569
1.38945
1.39944
1.39999
1.4
1.40001
1.40001
1.40001
1.40001
1.40001
1.40001
1.40001
1.40001
1.40001
1.40001
1.24264
1.23922
1.24588
1.24679
1.26334
1.33899
1.39011
1.39957
1.4
1.4
1.40001
1.40001
1.40001
1.40001
1.40001
1.40001
1.40001
1.40001
1.40001
1.40001
1.20487
1.18689
1.19149
1.21219
1.25574
1.3397
1.39059
1.39961
1.4
1.40001
1.40001
1.40001
1.40001
1.40001
1.40001
1.40001
1.40001
1.40001
1.40001
1.40001
1.19522
1.17915
1.18561
1.21066
1.25616
1.34079
1.39099
1.39964
1.4
1.40001
1.40001
1.40001
1.40001
1.40001
1.40001
1.40001
1.40001
1.40001
1.40001
1.40001
1.19531
1.17931
1.18518
1.20944
1.25476
1.33956
1.39053
1.3996
1.4
1.4
1.40001
1.40001
1.40001
1.40001
1.40001
1.40001
1.40001
1.40001
1.40001
1.40001
1.02807
1.16389
1.18575
1.2142
1.26039
1.34435
1.39196
1.3997
1.4
1.40001
1.40001
1.40001
1.40001
1.40001
1.40001
1.40001
1.40001
1.40001
1.40001
1.40001
0.907326
1.10345
1.17759
1.22198
1.26943
1.35063
1.39337
1.39978
1.4
1.40001
1.40001
1.40001
1.40001
1.40001
1.40001
1.40001
1.40001
1.40001
1.40001
1.40001
0.923578
1.03147
1.13648
1.21522
1.28012
1.359
1.39498
1.39984
1.4
1.40001
1.40001
1.40001
1.40001
1.40001
1.40001
1.40001
1.40001
1.40001
1.40001
1.40001
0.958064
1.00276
1.10687
1.19743
1.29071
1.36781
1.39661
1.39991
1.4
1.40001
1.40001
1.40001
1.40001
1.40001
1.40001
1.40001
1.40001
1.40001
1.40001
1.40001
1.04987
1.03509
1.1127
1.19566
1.30151
1.37579
1.398
1.39996
1.4
1.40001
1.40001
1.40001
1.40001
1.40001
1.40001
1.40001
1.40001
1.40001
1.40001
1.40001
1.15352
1.13277
1.16501
1.22099
1.32036
1.38411
1.39906
1.39999
1.4
1.40001
1.40001
1.40001
1.40001
1.40001
1.40001
1.40001
1.40001
1.40001
1.40001
1.40001
1.23609
1.2395
1.25938
1.29208
1.35543
1.39312
1.39974
1.4
1.40001
1.40001
1.40001
1.40001
1.40001
1.40001
1.40001
1.40001
1.40001
1.40001
1.40001
1.40001
1.32356
1.33107
1.34621
1.36455
1.38816
1.39877
1.39998
1.4
1.40001
1.40001
1.40001
1.40001
1.40001
1.40001
1.40001
1.40001
1.40001
1.40001
1.40001
1.40001
1.38441
1.38664
1.39088
1.39548
1.399
1.39994
1.4
1.40001
1.40001
1.40001
1.40001
1.40001
1.40001
1.40001
1.40001
1.40001
1.40001
1.40001
1.40001
1.40001
1.39928
1.39939
1.39963
1.39986
1.39998
1.4
1.40001
1.40001
1.40001
1.40001
1.40001
1.40001
1.40001
1.40001
1.40001
1.40001
1.40001
1.40001
1.40001
1.40001
)
;

boundaryField
{
    inlet
    {
        type            calculated;
        value           uniform 1.40001;
    }
    outlet
    {
        type            calculated;
        value           nonuniform List<scalar> 
35
(
1.39921
1.39934
1.3996
1.39985
1.39998
1.4
1.40001
1.40001
1.40001
1.40001
1.40001
1.40001
1.40001
1.40001
1.40001
1.40001
1.40001
1.40001
1.40001
1.40001
1.39906
1.39964
1.39992
1.4
1.40001
1.40001
1.40001
1.40001
1.40001
1.40001
1.40001
1.40001
1.40001
1.40001
1.40001
)
;
    }
    airfoil
    {
        type            calculated;
        value           nonuniform List<scalar> 
60
(
0.0366506
0.0459658
0.0478795
0.0495132
0.0507124
0.0546128
0.063233
0.0640821
0.036979
0.0117873
0.0076089
0.0582664
0.205014
0.472775
0.976733
1.64618
1.64718
1.6472
1.64546
1.63782
1.6335
1.63478
1.64414
1.67624
1.70028
1.70657
1.68618
1.6212
1.5528
1.4696
2.42558
4.59621
6.64009
6.14335
5.36395
4.71259
4.32674
4.13344
4.06202
4.05384
4.08519
4.13158
4.16401
4.17821
4.25329
1.95354
0.647505
0.200525
0.238708
0.329293
0.444718
0.61768
0.914229
1.21055
1.2652
1.26567
1.24264
1.20487
1.19522
1.19531
)
;
    }
    top
    {
        type            symmetryPlane;
    }
    bottom
    {
        type            symmetryPlane;
    }
    defaultFaces
    {
        type            empty;
    }
}


// ************************************************************************* //
