/*--------------------------------*- C++ -*----------------------------------*\
  =========                 |
  \\      /  F ield         | OpenFOAM: The Open Source CFD Toolbox
   \\    /   O peration     | Website:  https://openfoam.org
    \\  /    A nd           | Version:  7
     \\/     M anipulation  |
\*---------------------------------------------------------------------------*/
FoamFile
{
    version     2.0;
    format      ascii;
    class       volScalarField;
    location    "0.6";
    object      T;
}
// * * * * * * * * * * * * * * * * * * * * * * * * * * * * * * * * * * * * * //

dimensions      [0 0 0 1 0 0 0];

internalField   nonuniform List<scalar> 
1750
(
0.892494
1.13268
1.13399
1.10074
1.0507
0.995994
0.974247
0.978081
0.993301
0.999623
0.518414
0.668891
0.818002
0.919781
0.932843
0.931102
0.949798
0.980678
0.996991
0.999884
0.414713
0.460263
0.52407
0.655862
0.801065
0.895036
0.952421
0.988077
0.998986
0.999979
0.519351
0.586345
0.658841
0.740214
0.833168
0.918126
0.975023
0.996728
0.999872
0.999999
0.655098
0.725666
0.797197
0.864963
0.927068
0.974487
0.995863
0.999778
0.999996
1
0.800778
0.858645
0.913119
0.957654
0.986296
0.997783
0.999865
0.999997
1
1
0.925203
0.957581
0.981841
0.995087
0.999334
0.999961
0.999999
1
1
1
0.987044
0.99527
0.998951
0.999878
0.999993
1
1
1
1
1
0.999389
0.999884
0.999987
0.999999
1
1
1
1
1
1
0.999993
0.999999
1
1
1
1
1
1
1
1
1
1
1
1
1
1
1
1
1
1
1
1
1
1
1
1
1
1
1
1
1
1
1
1
1
1
1
1
1
1
1
1
1
1
1
1
1
1
1
1
1
1
1
1
1
1
1
1
1
1
0.26803
0.32966
0.38534
0.467911
0.595946
0.749794
0.892752
0.975789
0.998097
0.99996
1
1
1
1
1
0.308107
0.360821
0.401458
0.485018
0.614796
0.765701
0.901543
0.97832
0.998408
0.99997
1
1
1
1
1
0.311782
0.36009
0.40055
0.483385
0.612992
0.76318
0.89852
0.976512
0.998017
0.999953
1
1
1
1
1
0.31639
0.360265
0.402857
0.500091
0.641927
0.787709
0.90784
0.977659
0.998056
0.999955
1
1
1
1
1
0.317107
0.362051
0.434452
0.551119
0.696217
0.831348
0.929703
0.982729
0.998404
0.999959
1
1
1
1
1
0.330426
0.38754
0.478787
0.593697
0.734948
0.863509
0.948182
0.988542
0.999015
0.999973
1
1
1
1
1
0.38598
0.420186
0.501914
0.617962
0.766458
0.8917
0.964165
0.99337
0.999512
0.999987
1
1
1
1
1
0.450274
0.436788
0.501181
0.640144
0.808144
0.924735
0.97967
0.996997
0.999809
0.999995
1
1
1
1
1
0.472025
0.418175
0.49235
0.693991
0.869775
0.95973
0.992018
0.999147
0.999948
0.999998
1
1
1
1
1
0.355657
0.367008
0.606997
0.821161
0.937017
0.986642
0.999061
1.00012
1
0.999999
1
1
1
1
1
0.0381205
0.367232
0.74706
0.91276
0.981751
1.00146
1.00208
1.00048
1.00001
1
1
1
1
1
1
0.0851761
0.557349
0.852283
0.975285
1.00735
1.0079
1.00338
1.00034
1.00001
1
1
1
1
1
1
0.223423
0.67863
0.938934
1.01665
1.0193
1.01112
1.00213
1.00012
1
1
1
1
1
1
1
0.487312
0.823353
1.01459
1.0351
1.02469
1.00709
1.00065
1.00002
1
1
1
1
1
1
1
0.831492
0.997847
1.05291
1.04152
1.01528
1.00189
1.00008
1
1
1
1
1
1
1
1
1.06862
1.06437
1.06167
1.02611
1.00201
1
1
1
1
1
1
1
1
1
1
1.06889
1.06446
1.06151
1.0313
1.00514
1.00019
1
1
1
1
1
1
1
1
1
1.06889
1.06434
1.06141
1.03105
1.00502
1.00018
1
1
1
1
1
1
1
1
1
1.06844
1.064
1.06106
1.03085
1.00497
1.00018
1
1
1
1
1
1
1
1
1
1.06649
1.06243
1.05948
1.03037
1.0049
1.00017
1
1
1
1
1
1
1
1
1
1.0654
1.0596
1.05643
1.02859
1.0046
1.00016
1
1
1
1
1
1
1
1
1
1.06579
1.05684
1.05286
1.02474
1.0037
1.00013
1
1
1
1
1
1
1
1
1
1.06841
1.05517
1.04836
1.01905
1.00236
1.00008
1
1
1
1
1
1
1
1
1
1.07685
1.05484
1.04066
1.01233
1.00117
1.00003
1
1
1
1
1
1
1
1
1
1.08302
1.05338
1.02979
1.00633
1.00043
1.00001
1
1
1
1
1
1
1
1
1
1.08461
1.04617
1.01803
1.00248
1.00012
1
1
1
1
1
1
1
1
1
1
1.07898
1.03304
1.00865
1.00074
1.00002
1
1
1
1
1
1
1
1
1
1
1.06154
1.02071
1.00327
1.00017
1
1
1
1
1
1
1
1
1
1
1
1.0429
1.00984
1.00084
1.00003
1
1
1
1
1
1
1
1
1
1
1
1.01987
1.00254
1.00011
1
1
1
1
1
1
1
1
1
1
1
1
1
1
1
1
1
1
1
1
1
1
1
1
1
1
1
1
1
1
1
1
1
1
1
1
1
1
1
1
1
1
1
1
1
1
1
1
1
1
1
1
1
1
1
1
1
1
1
1
1
1
1
1
1
1
1
1
1
1
1
1
1
1
1
1
1
1
1
1
1
1
1
1
1
1
1
1
1
1
1
1
1
1
1
1
1
1
1
1
1
1
1
1
1
1
1
1
1
1
1
1
1
1
1
1
1
1
1
1
1
1
1
1
1
1
1
1
1
1
1
1
1
1
1
1
1
1
1
1
1
1
1
1
1
1
1
1
1
1
1
1
1
1
1
1
1
1
1
1
1
1
1
1
1
1
1
1
1
1
1
1
1
1
1
1
1
1
1
1
1
1
1
1
1
1
1
1
1
1
1
1
1
1
1
1
1
1
1
1
1
1
1
1
1
1
1
1
1
1
1
1
1
1
1
1
1
1
1
1
1
1
1
1
1
1
1
1
1
1
1
1
1
1
1
1
1
1
1
1
1
1
1
1
1
1
1
1
1
1
1
1
1
1
1
1
1
1
1
1
1
1
1
1
1
1
1
1
1
1
1
1
1
1
1
1
1
1
1
1
1
1
1
1
1
1
1
1
1
1
1
1
1
1
1
1
1
1
1
1
1
1
1
1
1
1
1
1
1
1
1
1
1
1
1
1
1
1
1
1
1
1
1
1
1
1
1
1
1
1
1
1
1
1
1
1
1
1
1
1
1
1
1
1
1
1
1
1
1
1
1
1
1
1
1
1
1
1
1
1
1
1
1.2832
0.999205
1
1
1
1
1
1
1
1
1
1
1
1
1
1
1
1
1
1
1.79814
1.14426
0.999582
1
1
1
1
1
1
1
1
1
1
1
1
1
1
1
1
1
2.25785
1.75544
1.06016
1
1
1
1
1
1
1
1
1
1
1
1
1
1
1
1
1
2.21701
1.99133
1.64221
1.00036
1
1
1
1
1
1
1
1
1
1
1
1
1
1
1
1
2.12035
1.99832
1.9659
1.26641
0.999999
1
1
1
1
1
1
1
1
1
1
1
1
1
1
1
2.01051
1.98979
2.05722
1.62347
0.998357
1
1
1
1
1
1
1
1
1
1
1
1
1
1
1
1.93676
1.98312
2.07869
1.84511
1.07475
1
1
1
1
1
1
1
1
1
1
1
1
1
1
1
1.90558
1.99457
2.09034
1.96406
1.25444
0.999999
1
1
1
1
1
1
1
1
1
1
1
1
1
1
1.90639
2.00938
2.10778
2.04511
1.44935
0.999998
1
1
1
1
1
1
1
1
1
1
1
1
1
1
1.90978
2.02172
2.12636
2.09994
1.59999
0.999942
1
1
1
1
1
1
1
1
1
1
1
1
1
1
1.91988
2.03126
2.13984
2.13593
1.70591
1.00285
1
1
1
1
1
1
1
1
1
1
1
1
1
1
1.93013
2.0345
2.14139
2.15379
1.78371
1.01557
1
1
1
1
1
1
1
1
1
1
1
1
1
1
1.93805
2.03366
2.14011
2.16605
1.84336
1.03799
1
1
1
1
1
1
1
1
1
1
1
1
1
1
1.94203
2.02798
2.13017
2.16142
1.91726
1.10844
0.999999
1
1
1
1
1
1
1
1
1
1
1
1
1
1.97574
2.06484
2.16472
2.20114
1.90665
0.982798
1
1
1
1
1
1
1
1
1
1
1
1
1
1
1.48525
1.74207
1.92397
2.07585
2.03448
1.68956
1.11668
1.00188
1.00001
1
1
1
1
1
1
1
1
1
1
1
1.03182
1.408
1.61883
1.85809
1.89986
1.80209
1.43045
1.03887
1.00033
1
1
1
1
1
1
1
1
1
1
1
0.75654
1.08738
1.35338
1.63178
1.76511
1.72375
1.48804
1.11367
1.00221
1.00001
1
1
1
1
1
1
1
1
1
1
0.866908
0.968059
1.17235
1.44587
1.62198
1.60502
1.44564
1.13718
1.00496
1.00003
1
1
1
1
1
1
1
1
1
1
0.922594
0.966181
1.09064
1.3077
1.46542
1.45652
1.34592
1.12081
1.00548
1.00003
1
1
1
1
1
1
1
1
1
1
0.966027
0.964857
1.02297
1.1917
1.32871
1.32035
1.23862
1.08483
1.0043
1.00003
1
1
1
1
1
1
1
1
1
1
1.02393
0.986719
0.99321
1.12433
1.22274
1.2133
1.15348
1.04793
1.0022
1.00002
1
1
1
1
1
1
1
1
1
1
1.04458
1.02889
1.01006
1.08672
1.14299
1.13383
1.08761
1.01929
1.00061
1
1
1
1
1
1
1
1
1
1
1
1.0334
1.03109
1.01481
1.05116
1.08362
1.07326
1.03488
1.00373
1.00006
1
1
1
1
1
1
1
1
1
1
1
1.00282
1.00581
0.994449
1.02325
1.03086
1.02126
1.00375
0.999962
0.999985
1
1
1
1
1
1
1
1
1
1
1
0.971712
0.973742
0.972731
0.985028
0.984834
0.988278
0.997062
0.999839
0.999996
1
1
1
1
1
1
1
1
1
1
1
0.949427
0.946011
0.948985
0.953852
0.960678
0.982774
0.997221
0.999876
0.999998
1
1
1
1
1
1
1
1
1
1
1
0.940704
0.935265
0.937412
0.944529
0.958002
0.982904
0.997356
0.999889
0.999999
1
1
1
1
1
1
1
1
1
1
1
0.939835
0.934575
0.936386
0.944038
0.958098
0.983198
0.997468
0.999897
0.999999
1
1
1
1
1
1
1
1
1
1
1
0.939925
0.934666
0.936467
0.943706
0.957668
0.982841
0.99734
0.999884
0.999998
1
1
1
1
1
1
1
1
1
1
1
0.922544
0.930376
0.936128
0.945132
0.959363
0.984215
0.997738
0.999914
0.999999
1
1
1
1
1
1
1
1
1
1
1
0.918565
0.912336
0.931401
0.946761
0.962015
0.986023
0.998134
0.999935
0.999999
1
1
1
1
1
1
1
1
1
1
1
0.931299
0.886364
0.915244
0.943981
0.965119
0.988417
0.998585
0.999954
0.999999
1
1
1
1
1
1
1
1
1
1
1
0.936526
0.879674
0.906064
0.937885
0.968176
0.99092
0.999045
0.999972
1
1
1
1
1
1
1
1
1
1
1
1
0.949218
0.892463
0.909287
0.937315
0.971317
0.993178
0.999435
0.999986
1
1
1
1
1
1
1
1
1
1
1
1
0.958455
0.927522
0.928535
0.945191
0.976734
0.995514
0.999732
0.999995
1
1
1
1
1
1
1
1
1
1
1
1
0.965611
0.958792
0.959458
0.967576
0.986955
0.998044
0.999924
0.999999
1
1
1
1
1
1
1
1
1
1
1
1
0.980497
0.982155
0.985223
0.989765
0.996561
0.999645
0.999992
1
1
1
1
1
1
1
1
1
1
1
1
1
0.995202
0.996392
0.997554
0.998736
0.999711
0.999982
1
1
1
1
1
1
1
1
1
1
1
1
1
1
0.999737
0.999818
0.999893
0.999959
0.999994
1
1
1
1
1
1
1
1
1
1
1
1
1
1
1
)
;

boundaryField
{
    inlet
    {
        type            fixedValue;
        value           uniform 1;
    }
    outlet
    {
        type            inletOutlet;
        inletValue      uniform 1;
        value           nonuniform List<scalar> 
35
(
0.999789
0.999854
0.999915
0.999969
0.999996
1
1
1
1
1
1
1
1
1
1
1
1
1
1
1
0.999701
0.99991
0.999984
0.999999
1
1
1
1
1
1
1
1
1
1
1
)
;
    }
    airfoil
    {
        type            zeroGradient;
    }
    top
    {
        type            symmetryPlane;
    }
    bottom
    {
        type            symmetryPlane;
    }
    defaultFaces
    {
        type            empty;
    }
}


// ************************************************************************* //
