/*--------------------------------*- C++ -*----------------------------------*\
  =========                 |
  \\      /  F ield         | OpenFOAM: The Open Source CFD Toolbox
   \\    /   O peration     | Website:  https://openfoam.org
    \\  /    A nd           | Version:  7
     \\/     M anipulation  |
\*---------------------------------------------------------------------------*/
FoamFile
{
    version     2.0;
    format      ascii;
    class       volScalarField;
    location    "10.5";
    object      T;
}
// * * * * * * * * * * * * * * * * * * * * * * * * * * * * * * * * * * * * * //

dimensions      [0 0 0 1 0 0 0];

internalField   nonuniform List<scalar> 
90000
(
0.800476
0.825037
0.848521
0.869296
0.887646
0.904277
0.919045
0.932499
0.944793
0.956093
0.966501
0.97607
0.984955
0.992849
1.00024
1.00664
1.01278
1.01788
1.0228
1.0265
1.03033
1.03295
1.03569
1.03738
1.03894
1.03996
1.04084
1.04109
1.04157
1.04149
1.04121
1.04059
1.03972
1.03846
1.03675
1.03469
1.03244
1.03155
1.03198
1.03282
1.03388
1.0349
1.03587
1.03667
1.03723
1.03761
1.03746
1.03679
1.03556
1.03429
1.03345
1.03288
1.03295
1.03339
1.03435
1.03522
1.03579
1.03551
1.03487
1.03365
1.03284
1.03252
1.03262
1.03323
1.03395
1.03395
1.03366
1.03289
1.0323
1.03217
1.03223
1.03247
1.03243
1.03208
1.03163
1.0313
1.03139
1.03148
1.03136
1.03111
1.03093
1.03098
1.03094
1.03086
1.03072
1.03054
1.03053
1.03046
1.03032
1.03005
1.02989
1.02974
1.02972
1.02976
1.02982
1.02979
1.0297
1.02955
1.02937
1.02904
0.778439
0.778483
0.778657
0.779085
0.779857
0.781188
0.783148
0.786075
0.789967
0.795362
0.801955
0.810443
0.820135
0.831814
0.844309
0.858503
0.872941
0.888493
0.903652
0.919249
0.933758
0.947987
0.960899
0.972808
0.983909
0.993186
1.00204
1.0088
1.01516
1.01936
1.02353
1.0258
1.02801
1.02898
1.03005
1.03064
1.03253
1.03452
1.0364
1.03804
1.03921
1.03992
1.0401
1.03987
1.03956
1.03891
1.03725
1.03542
1.03405
1.0333
1.03338
1.03371
1.03465
1.0358
1.03714
1.03692
1.0363
1.03507
1.03358
1.03242
1.03247
1.03286
1.03385
1.03501
1.03486
1.03434
1.0332
1.03246
1.03224
1.03246
1.03308
1.03303
1.03261
1.03181
1.03144
1.03146
1.03164
1.03163
1.03144
1.0312
1.0311
1.03117
1.03114
1.03097
1.03079
1.03072
1.03069
1.03061
1.03037
1.03014
1.03002
1.02993
1.02992
1.02997
1.03
1.02994
1.02984
1.02966
1.02946
1.02914
0.77751
0.777467
0.777418
0.777365
0.777307
0.777243
0.777173
0.777103
0.777033
0.776977
0.776925
0.776937
0.777016
0.777218
0.777591
0.778267
0.779322
0.781078
0.783605
0.787555
0.79282
0.800451
0.809756
0.822128
0.835872
0.852626
0.869728
0.888863
0.907199
0.92607
0.943738
0.96032
0.975924
0.989178
1.0022
1.01227
1.0212
1.02566
1.029
1.03031
1.03178
1.03268
1.03352
1.03347
1.03283
1.03089
1.02905
1.02943
1.0303
1.03132
1.03285
1.03411
1.03513
1.03503
1.03476
1.0335
1.03158
1.03062
1.02996
1.03022
1.03154
1.03324
1.03382
1.03364
1.0329
1.03181
1.03091
1.03091
1.03149
1.03237
1.03237
1.03196
1.03113
1.0305
1.03051
1.03094
1.03123
1.03101
1.03071
1.03054
1.03071
1.03079
1.03062
1.03043
1.03031
1.0304
1.03036
1.03021
1.02995
1.02978
1.0297
1.0297
1.02974
1.02982
1.0298
1.02972
1.02962
1.02945
1.02924
1.02896
0.776083
0.776036
0.775986
0.775931
0.775872
0.775811
0.775748
0.775683
0.775616
0.775549
0.775481
0.775418
0.775337
0.775253
0.775168
0.775079
0.774989
0.774898
0.77481
0.774738
0.774666
0.774675
0.774745
0.774994
0.7755
0.776522
0.778221
0.781342
0.785987
0.793747
0.803959
0.819012
0.836137
0.857898
0.880029
0.90445
0.926964
0.947461
0.965855
0.979617
0.991912
0.999669
1.00643
1.01032
1.01376
1.01561
1.02008
1.02439
1.02881
1.03206
1.03362
1.03353
1.03328
1.03235
1.0291
1.02629
1.02525
1.02549
1.02674
1.0291
1.03101
1.03177
1.03141
1.02979
1.02839
1.02749
1.02774
1.02898
1.03034
1.03029
1.02976
1.02885
1.02807
1.02832
1.02895
1.02939
1.02917
1.02877
1.02872
1.02904
1.02933
1.02919
1.02884
1.02883
1.02899
1.02913
1.02902
1.02878
1.02861
1.02864
1.02866
1.0287
1.02879
1.02889
1.02887
1.02884
1.02876
1.02859
1.02841
1.02823
0.774575
0.774537
0.774497
0.774456
0.774415
0.774372
0.774328
0.774282
0.774236
0.774188
0.774139
0.774089
0.774039
0.773987
0.773932
0.773877
0.773821
0.773767
0.773713
0.773661
0.773613
0.773567
0.773532
0.773473
0.773407
0.773341
0.773282
0.773232
0.773209
0.773241
0.77336
0.773745
0.774556
0.776384
0.779585
0.786047
0.79567
0.811916
0.831646
0.857763
0.883943
0.911577
0.937035
0.959312
0.980124
0.996034
1.00936
1.01512
1.01945
1.02255
1.02466
1.02546
1.02471
1.02206
1.02029
1.02072
1.02194
1.02457
1.02658
1.02798
1.02769
1.0271
1.02541
1.02403
1.02363
1.02448
1.02617
1.02734
1.02717
1.02669
1.02577
1.02508
1.02551
1.02639
1.02681
1.02662
1.02611
1.02599
1.02631
1.02677
1.02676
1.02654
1.02643
1.0266
1.02684
1.02689
1.02676
1.02663
1.02666
1.02672
1.02678
1.0269
1.02709
1.02725
1.02727
1.02724
1.02716
1.02705
1.02696
1.02689
0.773459
0.773437
0.773415
0.773393
0.77337
0.773346
0.773322
0.773298
0.773272
0.773247
0.77322
0.773194
0.773169
0.773143
0.773117
0.773091
0.773064
0.773038
0.773011
0.772984
0.772956
0.772929
0.7729
0.77287
0.772842
0.772814
0.772788
0.772765
0.772746
0.772726
0.772724
0.772699
0.772672
0.772646
0.772637
0.772662
0.772765
0.773123
0.773991
0.776245
0.780667
0.790109
0.804687
0.8279
0.854852
0.8878
0.918115
0.944847
0.966673
0.981435
0.994336
1.00087
1.00634
1.00949
1.01526
1.02051
1.02526
1.02738
1.0272
1.02674
1.02447
1.02067
1.01986
1.02025
1.02197
1.02426
1.02619
1.02578
1.02441
1.02224
1.02226
1.02289
1.02408
1.02478
1.0244
1.02371
1.02339
1.02362
1.02428
1.02467
1.0244
1.02398
1.02402
1.02437
1.02464
1.0246
1.02436
1.02436
1.02444
1.02455
1.02468
1.0249
1.02512
1.02525
1.02527
1.02524
1.02521
1.02515
1.02508
1.02512
0.772843
0.772834
0.772825
0.772816
0.772806
0.772797
0.772786
0.772775
0.772764
0.772751
0.772739
0.772727
0.772716
0.772705
0.772694
0.772682
0.77267
0.772658
0.772645
0.772634
0.772622
0.772611
0.7726
0.77259
0.772579
0.772569
0.772557
0.772545
0.772531
0.77252
0.772508
0.772498
0.77249
0.772483
0.772478
0.772474
0.772476
0.772464
0.772446
0.772446
0.772463
0.77255
0.772837
0.773764
0.775981
0.782081
0.792868
0.814879
0.841961
0.876796
0.911176
0.943083
0.971026
0.994203
1.01059
1.01668
1.02136
1.02334
1.02345
1.02104
1.01546
1.01635
1.01855
1.02144
1.02355
1.02395
1.02378
1.022
1.02
1.02005
1.02098
1.02263
1.02337
1.02324
1.02254
1.02165
1.02189
1.02262
1.02297
1.02281
1.02242
1.02234
1.02262
1.02295
1.02294
1.02277
1.02268
1.02272
1.02282
1.02293
1.0231
1.02332
1.0235
1.02364
1.02367
1.0236
1.02354
1.02353
1.02352
1.02358
0.772548
0.772545
0.772542
0.772538
0.772534
0.77253
0.772526
0.772521
0.772516
0.77251
0.772503
0.772497
0.77249
0.772484
0.772478
0.772472
0.772464
0.772457
0.772449
0.772443
0.772437
0.772431
0.772426
0.772421
0.772417
0.772412
0.772407
0.772401
0.772395
0.77239
0.772383
0.772378
0.772373
0.772367
0.772361
0.772359
0.772355
0.772349
0.772346
0.772348
0.772352
0.772346
0.772329
0.772311
0.772299
0.772321
0.772454
0.773035
0.774683
0.779866
0.790491
0.812848
0.843841
0.884268
0.922477
0.953038
0.979173
0.991331
1.00319
1.00655
1.01092
1.02023
1.024
1.0251
1.02496
1.02406
1.02026
1.01799
1.01828
1.02013
1.0223
1.02312
1.02287
1.0215
1.02075
1.02097
1.02192
1.02281
1.02253
1.02169
1.02128
1.02159
1.02225
1.02237
1.02212
1.02171
1.02176
1.02191
1.02198
1.02208
1.02228
1.02255
1.02267
1.02268
1.02265
1.02261
1.02253
1.02246
1.02247
1.02254
0.772429
0.772427
0.772425
0.772422
0.77242
0.772417
0.772413
0.772409
0.772405
0.7724
0.772395
0.772388
0.772382
0.772375
0.77237
0.772365
0.772359
0.772353
0.772347
0.77234
0.772333
0.772328
0.772323
0.772318
0.772314
0.772311
0.772308
0.772304
0.7723
0.772295
0.77229
0.772286
0.772281
0.772276
0.772274
0.772273
0.772272
0.77227
0.77227
0.772271
0.772272
0.772269
0.772262
0.772253
0.772242
0.772225
0.772198
0.772165
0.772135
0.77215
0.772275
0.772875
0.774849
0.781244
0.795914
0.825364
0.862436
0.907343
0.946735
0.980295
1.00495
1.01921
1.02307
1.02374
1.02291
1.01856
1.01672
1.01819
1.02098
1.02326
1.02307
1.02262
1.02116
1.01985
1.02025
1.02185
1.02275
1.02257
1.0215
1.02069
1.02098
1.02191
1.02225
1.02199
1.02138
1.02133
1.0215
1.02164
1.02173
1.02184
1.02203
1.02223
1.02235
1.02231
1.02225
1.02216
1.02204
1.02204
1.02203
1.02207
0.772387
0.772385
0.772382
0.772379
0.772378
0.772375
0.77237
0.772364
0.772359
0.772355
0.77235
0.772342
0.772335
0.772329
0.772324
0.772319
0.772315
0.772309
0.772301
0.772294
0.772288
0.772282
0.772276
0.77227
0.772264
0.772259
0.772254
0.77225
0.772244
0.772238
0.772233
0.772225
0.772217
0.772215
0.772215
0.772214
0.772212
0.772213
0.772214
0.772215
0.772214
0.772209
0.772201
0.772191
0.772178
0.772165
0.772148
0.772124
0.772102
0.772076
0.772047
0.772016
0.772015
0.772055
0.772293
0.773421
0.777166
0.789869
0.81367
0.85642
0.903716
0.945766
0.977161
0.993191
1.00388
1.00841
1.01779
1.02318
1.02642
1.02589
1.0238
1.01955
1.01954
1.0201
1.02211
1.02391
1.02353
1.02161
1.0206
1.02083
1.02204
1.02275
1.02242
1.02134
1.02117
1.0214
1.02169
1.02167
1.02171
1.02188
1.02214
1.02225
1.02224
1.02218
1.02214
1.02203
1.02187
1.02188
1.02189
1.02193
0.77237
0.772367
0.772364
0.77236
0.772358
0.772355
0.772352
0.77235
0.772349
0.772348
0.772346
0.772341
0.772335
0.772329
0.772322
0.772315
0.772308
0.772303
0.772298
0.772291
0.772283
0.772274
0.772265
0.772255
0.772244
0.772236
0.772231
0.772224
0.772217
0.77221
0.772201
0.772192
0.772185
0.772181
0.772178
0.772174
0.77217
0.772168
0.772168
0.772168
0.772167
0.772165
0.772161
0.772156
0.772148
0.772138
0.772124
0.772106
0.772085
0.772061
0.77203
0.771998
0.771984
0.771977
0.771977
0.771988
0.772032
0.772231
0.773008
0.776415
0.787809
0.813353
0.859762
0.909675
0.954113
0.990375
1.01556
1.02219
1.02511
1.02409
1.01725
1.01716
1.01948
1.02311
1.02483
1.02439
1.02218
1.02009
1.02043
1.02235
1.02335
1.02304
1.0217
1.02106
1.02138
1.02181
1.02189
1.0218
1.02184
1.0221
1.02232
1.02231
1.02226
1.0222
1.02211
1.02198
1.02185
1.02186
1.02187
1.02192
0.772281
0.772278
0.772275
0.772272
0.772268
0.772265
0.772264
0.772263
0.772262
0.772261
0.772258
0.772255
0.772252
0.77225
0.772248
0.772243
0.772239
0.772237
0.772234
0.772227
0.772221
0.772217
0.772212
0.772203
0.772194
0.772184
0.772174
0.772166
0.772159
0.772152
0.772145
0.772138
0.772131
0.772126
0.772121
0.772117
0.772113
0.772112
0.772112
0.772115
0.772122
0.77213
0.772139
0.772148
0.772152
0.77215
0.772137
0.772123
0.772109
0.772092
0.772067
0.772032
0.771996
0.771974
0.771969
0.771974
0.771998
0.772048
0.772097
0.772147
0.772289
0.773085
0.776793
0.790929
0.82138
0.874429
0.927036
0.96569
0.993753
1.00451
1.01002
1.01881
1.02535
1.02674
1.02607
1.02166
1.0198
1.02028
1.02247
1.02452
1.02405
1.02195
1.02104
1.02135
1.02229
1.02227
1.02201
1.0219
1.02214
1.0225
1.02249
1.02237
1.02226
1.02223
1.02214
1.02203
1.02195
1.02193
1.02192
1.02196
0.77219
0.772189
0.772187
0.772185
0.772184
0.772183
0.772184
0.772184
0.772184
0.772183
0.772183
0.772184
0.772185
0.772185
0.772185
0.772185
0.772185
0.772184
0.772182
0.772177
0.772173
0.77217
0.772167
0.77216
0.772152
0.772143
0.772131
0.772118
0.772103
0.772088
0.772075
0.772062
0.772052
0.772044
0.772036
0.772028
0.77202
0.772017
0.772017
0.772017
0.772022
0.772033
0.77205
0.772071
0.772091
0.772105
0.772119
0.772133
0.772136
0.772134
0.772124
0.772098
0.772052
0.771996
0.771968
0.771967
0.771972
0.771992
0.772033
0.772084
0.77212
0.772118
0.772125
0.772295
0.773329
0.779636
0.799066
0.843783
0.897947
0.952465
0.995941
1.017
1.02319
1.02484
1.02094
1.01602
1.01874
1.02329
1.02527
1.02474
1.02219
1.02027
1.02078
1.02264
1.02278
1.02243
1.02187
1.02203
1.02265
1.02272
1.02256
1.0224
1.02233
1.0223
1.02215
1.02207
1.02206
1.02204
1.02201
1.02206
0.772132
0.772133
0.772133
0.772134
0.772135
0.772137
0.77214
0.772142
0.772144
0.772145
0.772146
0.772147
0.772149
0.77215
0.772152
0.772153
0.772153
0.772152
0.772149
0.772144
0.77214
0.772139
0.772137
0.772131
0.772123
0.772113
0.772102
0.77209
0.772076
0.772058
0.772038
0.772017
0.771998
0.771982
0.77197
0.771961
0.771953
0.771947
0.771947
0.771949
0.771955
0.771966
0.771984
0.772009
0.772037
0.772063
0.772088
0.772122
0.772146
0.772147
0.772146
0.772135
0.772098
0.772031
0.771964
0.77194
0.771941
0.771948
0.771963
0.771993
0.772036
0.772072
0.772085
0.772067
0.772003
0.772012
0.772373
0.775
0.78695
0.820618
0.879139
0.935645
0.9738
0.998354
1.00606
1.01473
1.02487
1.02748
1.02654
1.02162
1.01948
1.02027
1.02271
1.02362
1.02288
1.02172
1.02181
1.02263
1.02297
1.02277
1.02241
1.02244
1.02241
1.02229
1.0221
1.02214
1.02218
1.02214
1.0221
1.02218
0.772111
0.772114
0.772116
0.772119
0.772122
0.772125
0.772126
0.772127
0.772129
0.772131
0.772133
0.772135
0.772137
0.772138
0.772139
0.772139
0.77214
0.77214
0.772136
0.772132
0.772129
0.772126
0.772122
0.772115
0.772107
0.772098
0.772087
0.772074
0.772061
0.772045
0.772027
0.772007
0.771984
0.771961
0.771943
0.771933
0.771926
0.77192
0.77192
0.771924
0.771933
0.771946
0.771961
0.77198
0.772004
0.772032
0.772063
0.772101
0.772134
0.772143
0.772142
0.772132
0.772098
0.772042
0.771977
0.771927
0.771914
0.771915
0.77192
0.771934
0.771967
0.772022
0.772062
0.772067
0.772053
0.771993
0.771946
0.771956
0.772121
0.773333
0.781039
0.806463
0.859197
0.919366
0.975995
1.01075
1.02299
1.02495
1.02101
1.01564
1.01829
1.02338
1.02456
1.02339
1.02117
1.02123
1.0224
1.02325
1.023
1.02234
1.02227
1.02245
1.02244
1.02219
1.02207
1.02218
1.02225
1.02219
1.02217
1.02229
0.772066
0.772068
0.772071
0.772074
0.772077
0.772081
0.772085
0.77209
0.772095
0.772099
0.772103
0.772107
0.77211
0.772113
0.772116
0.772119
0.772121
0.772121
0.772121
0.77212
0.772117
0.772114
0.772111
0.772107
0.772102
0.772095
0.772087
0.772079
0.772069
0.772056
0.772044
0.77203
0.772013
0.771992
0.771972
0.771956
0.771943
0.771931
0.771928
0.771933
0.771943
0.771951
0.77196
0.771971
0.771987
0.77201
0.772042
0.772082
0.77212
0.772139
0.772137
0.772121
0.772084
0.772036
0.771987
0.771938
0.771911
0.771909
0.771909
0.771914
0.771937
0.771988
0.772049
0.772063
0.772052
0.772011
0.771973
0.771949
0.771945
0.771947
0.772023
0.772742
0.777375
0.797698
0.848361
0.913318
0.964755
0.992544
1.00578
1.01342
1.02474
1.02706
1.02524
1.02027
1.02031
1.0217
1.02382
1.02355
1.02228
1.0221
1.02237
1.0226
1.02233
1.02202
1.02211
1.02228
1.02226
1.0222
1.02222
1.02248
0.771991
0.77199
0.771988
0.771987
0.771986
0.771986
0.771986
0.771987
0.771989
0.771992
0.771995
0.771999
0.772003
0.772008
0.772014
0.772022
0.772031
0.77204
0.772049
0.772059
0.77207
0.772078
0.77208
0.772079
0.772076
0.772076
0.772077
0.77208
0.772083
0.772086
0.772087
0.772086
0.77208
0.772073
0.772065
0.772055
0.772042
0.772026
0.772012
0.772007
0.772005
0.772
0.771986
0.771974
0.77197
0.771974
0.771989
0.772021
0.772063
0.772103
0.772114
0.772102
0.772073
0.772033
0.772
0.771967
0.771939
0.771935
0.771937
0.771936
0.771941
0.771979
0.772041
0.772058
0.772044
0.772005
0.771991
0.771969
0.771942
0.771936
0.771946
0.771998
0.772107
0.772592
0.775946
0.794471
0.840346
0.905084
0.973298
1.00801
1.02449
1.02411
1.0179
1.01796
1.02122
1.02443
1.0243
1.02237
1.02142
1.02202
1.02291
1.02273
1.02189
1.0219
1.0222
1.02238
1.02223
1.02219
1.02238
1.02262
0.771902
0.7719
0.771899
0.771896
0.771895
0.771894
0.771893
0.771892
0.771893
0.771894
0.771898
0.771901
0.771906
0.771912
0.771921
0.771932
0.771942
0.771952
0.771966
0.771984
0.772
0.772015
0.77203
0.772042
0.772053
0.772065
0.772079
0.772094
0.772105
0.772113
0.772121
0.772125
0.772125
0.772124
0.772125
0.772123
0.772115
0.772103
0.772088
0.772071
0.772053
0.772032
0.772004
0.771964
0.771939
0.771934
0.771934
0.771945
0.771972
0.772004
0.772026
0.772022
0.77201
0.772006
0.772005
0.771996
0.771993
0.77201
0.772019
0.772014
0.771988
0.771977
0.771987
0.771997
0.771991
0.771983
0.772001
0.772011
0.771991
0.771972
0.77198
0.772027
0.772128
0.772176
0.772204
0.772537
0.775132
0.792506
0.839708
0.909936
0.971915
0.992567
1.00719
1.01735
1.02691
1.02648
1.02313
1.02052
1.02153
1.02333
1.02324
1.02211
1.02163
1.02199
1.02262
1.02243
1.02215
1.02222
1.02262
1.02271
0.771857
0.771851
0.77185
0.771849
0.771849
0.771848
0.771848
0.771848
0.771849
0.771852
0.771856
0.771859
0.771864
0.77187
0.771881
0.771896
0.771905
0.771915
0.771936
0.771963
0.771977
0.771986
0.771999
0.772019
0.772043
0.772063
0.772082
0.772098
0.772106
0.772112
0.77212
0.772127
0.772127
0.772127
0.772129
0.772128
0.772123
0.772115
0.772103
0.772084
0.772063
0.772038
0.772005
0.771958
0.771916
0.771903
0.771903
0.771908
0.771921
0.77194
0.771954
0.771956
0.771958
0.771977
0.772002
0.772012
0.772039
0.772079
0.772085
0.772068
0.772021
0.771974
0.771938
0.771924
0.771922
0.771934
0.771993
0.772074
0.772087
0.772075
0.772074
0.772096
0.772144
0.77218
0.772183
0.772148
0.772078
0.772333
0.774893
0.795006
0.842924
0.915502
0.9862
1.01278
1.02497
1.02368
1.01785
1.02021
1.02425
1.02411
1.02264
1.02104
1.02149
1.02283
1.02277
1.02202
1.02203
1.02247
1.0228
1.02269
0.771875
0.771869
0.771867
0.771865
0.771864
0.771864
0.771865
0.771866
0.771868
0.771873
0.771877
0.771881
0.771885
0.77189
0.771903
0.771912
0.771913
0.77192
0.771939
0.771964
0.77198
0.771986
0.771994
0.772016
0.772047
0.772064
0.772076
0.772086
0.77209
0.772095
0.772103
0.772107
0.772104
0.772103
0.772106
0.772108
0.772102
0.772096
0.772089
0.772076
0.772056
0.772031
0.771998
0.771956
0.771917
0.771896
0.771894
0.7719
0.771911
0.771921
0.771927
0.771927
0.771928
0.771946
0.771979
0.772018
0.772073
0.772105
0.772103
0.772071
0.772019
0.771973
0.771928
0.771893
0.771884
0.7719
0.771982
0.772114
0.772174
0.772172
0.772154
0.77215
0.772156
0.772158
0.772135
0.772056
0.771961
0.771873
0.771881
0.772258
0.775428
0.798897
0.855912
0.925258
0.985013
0.998774
1.01117
1.02485
1.02661
1.02445
1.02017
1.02064
1.02277
1.02339
1.0223
1.02158
1.02207
1.02281
1.02278
1.02259
0.772032
0.772021
0.772005
0.771994
0.771989
0.771988
0.771989
0.771989
0.771989
0.771988
0.771987
0.771983
0.771975
0.771973
0.771971
0.771962
0.771955
0.771956
0.771964
0.771978
0.77199
0.771995
0.771994
0.771992
0.771995
0.772006
0.772013
0.772011
0.772006
0.772003
0.771996
0.771986
0.771985
0.771987
0.771993
0.772002
0.77201
0.77202
0.772035
0.772039
0.772033
0.772016
0.77199
0.77196
0.771934
0.771918
0.771918
0.771941
0.771967
0.771974
0.771978
0.771973
0.771945
0.771915
0.771919
0.771973
0.772057
0.772096
0.772088
0.772043
0.772005
0.771983
0.771947
0.771895
0.77188
0.7719
0.771994
0.772133
0.772203
0.772206
0.772189
0.772164
0.772139
0.772086
0.772001
0.771922
0.771873
0.771844
0.77185
0.771895
0.77198
0.772593
0.77721
0.806857
0.867819
0.943711
1.00077
1.02085
1.02328
1.01676
1.01834
1.02251
1.02388
1.02285
1.02084
1.02119
1.02272
1.02293
1.02269
1.02231
0.772116
0.772103
0.77209
0.772075
0.77206
0.772054
0.77205
0.772048
0.772051
0.772051
0.772041
0.772031
0.772024
0.772009
0.771991
0.771976
0.77197
0.771973
0.771975
0.771971
0.771966
0.771969
0.771969
0.771966
0.771968
0.77197
0.77197
0.771967
0.771955
0.771936
0.7719
0.771875
0.771871
0.771868
0.771867
0.771873
0.771888
0.771915
0.771957
0.771988
0.772002
0.772008
0.772006
0.771995
0.771992
0.771992
0.771999
0.772032
0.772081
0.772086
0.772067
0.772027
0.771961
0.771874
0.771847
0.77187
0.771936
0.771992
0.77201
0.772005
0.772011
0.772036
0.772036
0.771998
0.77198
0.772003
0.772071
0.772156
0.772202
0.772205
0.772191
0.772149
0.772072
0.771961
0.771844
0.771813
0.771827
0.77186
0.771931
0.772013
0.772098
0.772142
0.772197
0.77296
0.779775
0.819494
0.8899
0.95347
0.994487
1.00566
1.02114
1.02601
1.02455
1.01989
1.02013
1.02245
1.02322
1.02272
1.02211
1.02213
0.772081
0.772062
0.772054
0.772053
0.772051
0.772047
0.772038
0.772025
0.772007
0.771997
0.771999
0.771995
0.771968
0.771927
0.771916
0.771924
0.771927
0.771921
0.77192
0.771926
0.771934
0.771946
0.771952
0.77196
0.771966
0.771969
0.771969
0.771968
0.77196
0.771942
0.771901
0.771857
0.771854
0.771851
0.771836
0.771828
0.77183
0.771856
0.771901
0.771948
0.772007
0.77202
0.772012
0.772011
0.77203
0.772046
0.77205
0.77207
0.772114
0.772118
0.77209
0.772028
0.771937
0.771827
0.771799
0.771822
0.771885
0.771911
0.771934
0.771975
0.772043
0.772109
0.772138
0.772142
0.772137
0.772149
0.772167
0.772172
0.77218
0.772173
0.772141
0.772066
0.771965
0.771848
0.771768
0.771775
0.771815
0.771943
0.772045
0.772096
0.77214
0.772137
0.772075
0.771893
0.771931
0.773465
0.785956
0.833937
0.910857
0.983428
1.01766
1.02377
1.01798
1.01738
1.02138
1.02403
1.02321
1.02141
1.02161
1.022
0.771961
0.771959
0.771958
0.771961
0.771962
0.771952
0.771942
0.771934
0.771931
0.771935
0.771931
0.771902
0.771859
0.771849
0.771854
0.77188
0.771905
0.771906
0.771901
0.771907
0.771938
0.771979
0.77201
0.772035
0.772051
0.772057
0.772061
0.772062
0.772057
0.772047
0.772031
0.771991
0.771967
0.771977
0.771978
0.771955
0.771922
0.77192
0.771942
0.771995
0.772024
0.77203
0.772006
0.771991
0.772011
0.772042
0.772047
0.772067
0.772107
0.772103
0.772059
0.771982
0.771891
0.771812
0.771801
0.771839
0.771913
0.771919
0.771928
0.771999
0.772094
0.772148
0.772185
0.772214
0.772227
0.772227
0.772209
0.772142
0.772055
0.772009
0.771965
0.771918
0.771863
0.771808
0.77176
0.771777
0.771889
0.77206
0.772115
0.772138
0.772124
0.772046
0.771874
0.77173
0.771698
0.771728
0.771997
0.774869
0.795731
0.863036
0.937243
0.985257
1.00411
1.01695
1.02611
1.02511
1.02102
1.02106
1.02211
1.02211
0.771747
0.771757
0.77177
0.771783
0.771797
0.771812
0.771832
0.771854
0.771869
0.771865
0.771843
0.771832
0.771832
0.77184
0.771856
0.771895
0.77196
0.771974
0.77197
0.771985
0.772037
0.772102
0.772136
0.77216
0.772197
0.772212
0.772219
0.77223
0.772229
0.772211
0.772211
0.772208
0.772169
0.772147
0.772124
0.772074
0.772017
0.771998
0.772018
0.772024
0.77201
0.77201
0.771955
0.771883
0.771879
0.771884
0.771901
0.771944
0.771995
0.771993
0.771948
0.771902
0.771878
0.771887
0.771934
0.772046
0.772135
0.772132
0.772111
0.772127
0.772157
0.77217
0.77219
0.772226
0.772253
0.77225
0.772198
0.772032
0.771862
0.7718
0.771789
0.771801
0.771817
0.771804
0.771831
0.771908
0.772046
0.772125
0.772152
0.772132
0.77203
0.771829
0.77168
0.77167
0.771695
0.771834
0.772098
0.772157
0.772628
0.7793
0.813443
0.888982
0.975317
1.01222
1.02466
1.02009
1.01879
1.02186
1.02296
1.02198
0.771687
0.771717
0.771741
0.77176
0.771774
0.771798
0.771844
0.771886
0.771909
0.771924
0.771939
0.771956
0.771978
0.771997
0.772031
0.772079
0.772092
0.772086
0.772085
0.772114
0.77216
0.772168
0.772173
0.772188
0.772229
0.77225
0.772253
0.77226
0.772257
0.772228
0.772221
0.772224
0.772199
0.772152
0.772101
0.772035
0.771997
0.772007
0.772017
0.771976
0.771951
0.771946
0.771867
0.771769
0.771761
0.771767
0.771794
0.771842
0.771867
0.771852
0.771848
0.771883
0.771966
0.772062
0.772175
0.772295
0.772361
0.772362
0.772341
0.772294
0.772221
0.77217
0.772144
0.772141
0.772169
0.772163
0.772082
0.771895
0.771729
0.7717
0.77172
0.771771
0.771839
0.771945
0.772028
0.772109
0.772163
0.772152
0.772115
0.772006
0.771821
0.771643
0.77163
0.771662
0.771833
0.772059
0.772182
0.772163
0.771994
0.771931
0.773125
0.787719
0.844743
0.923925
0.989138
1.00237
1.01913
1.0248
1.02352
1.0209
0.771868
0.771881
0.771911
0.771958
0.771968
0.771982
0.772016
0.772028
0.772017
0.772004
0.772017
0.772034
0.772036
0.772043
0.772076
0.77211
0.772117
0.772103
0.772103
0.772122
0.772122
0.772079
0.772021
0.772009
0.772013
0.772033
0.772032
0.77202
0.77203
0.772039
0.77199
0.771957
0.77196
0.771945
0.771921
0.771889
0.771823
0.771806
0.77183
0.771819
0.771834
0.77184
0.771773
0.771692
0.771691
0.771707
0.771775
0.77185
0.771858
0.771839
0.77186
0.771933
0.772036
0.772142
0.772247
0.772346
0.772412
0.772421
0.772416
0.772377
0.772271
0.772049
0.771884
0.771859
0.771869
0.77188
0.771853
0.771769
0.7717
0.771704
0.771745
0.77185
0.772013
0.772139
0.772207
0.772212
0.772202
0.772111
0.771951
0.771773
0.771646
0.771616
0.771655
0.771842
0.772113
0.772225
0.772208
0.77206
0.771753
0.771617
0.771647
0.771992
0.776059
0.807592
0.880133
0.963769
1.01335
1.02243
1.01773
1.01943
0.77192
0.771914
0.771918
0.771934
0.771971
0.771981
0.771969
0.771952
0.771946
0.771903
0.771879
0.771885
0.771856
0.771834
0.771846
0.771832
0.771792
0.771794
0.771785
0.771733
0.771657
0.771565
0.771474
0.771413
0.771402
0.771413
0.771431
0.771413
0.771395
0.771423
0.77143
0.771403
0.771408
0.771433
0.771451
0.771498
0.771541
0.771541
0.771576
0.77168
0.771777
0.771853
0.771907
0.771968
0.77202
0.772024
0.771991
0.771888
0.771807
0.771842
0.771905
0.771961
0.772034
0.772117
0.772195
0.772265
0.772289
0.772269
0.772228
0.772154
0.772014
0.771754
0.771558
0.771534
0.771553
0.771601
0.771636
0.771673
0.771694
0.771747
0.771869
0.772039
0.772149
0.772204
0.772236
0.772217
0.77209
0.771878
0.771676
0.771567
0.771579
0.771659
0.771902
0.772163
0.772276
0.772259
0.772109
0.771801
0.771587
0.771586
0.771743
0.772126
0.772199
0.773138
0.78407
0.841052
0.922517
0.981096
1.00447
1.02012
0.772025
0.771999
0.771994
0.771992
0.771985
0.771942
0.771898
0.771865
0.771817
0.771765
0.771708
0.771636
0.771554
0.771526
0.771544
0.771554
0.771555
0.771546
0.77151
0.771459
0.771405
0.771337
0.771252
0.771158
0.771089
0.771094
0.771171
0.771244
0.771238
0.771235
0.771267
0.771357
0.771438
0.77147
0.771493
0.771555
0.771639
0.771651
0.771683
0.771811
0.772097
0.772318
0.772324
0.772298
0.772314
0.772359
0.772365
0.772356
0.772316
0.772236
0.772131
0.772014
0.771959
0.771949
0.771924
0.771861
0.771782
0.771726
0.771715
0.771712
0.771679
0.771562
0.771413
0.771362
0.771378
0.77143
0.771493
0.77159
0.77177
0.771984
0.77217
0.772206
0.772183
0.77213
0.772033
0.771871
0.771691
0.771552
0.771469
0.771472
0.771575
0.771936
0.772223
0.772312
0.772274
0.772094
0.771774
0.77154
0.771541
0.771692
0.772055
0.772273
0.772247
0.772053
0.772116
0.775979
0.803218
0.88139
0.969869
1.01887
0.7718
0.771905
0.771936
0.771942
0.77194
0.771914
0.771883
0.771898
0.771927
0.771919
0.771863
0.771755
0.771631
0.771596
0.771604
0.771608
0.771599
0.771614
0.771664
0.771686
0.771686
0.771677
0.771646
0.771582
0.77154
0.77156
0.771632
0.771734
0.771826
0.771841
0.771852
0.771932
0.772071
0.772178
0.772292
0.7724
0.772415
0.772399
0.772379
0.772423
0.772556
0.772651
0.772609
0.772384
0.772277
0.772281
0.772339
0.772397
0.772396
0.772316
0.772135
0.771922
0.77178
0.771707
0.771601
0.771524
0.771498
0.771496
0.771518
0.771524
0.771516
0.771478
0.771395
0.771342
0.771363
0.771462
0.771657
0.771899
0.772184
0.772375
0.772356
0.772249
0.771989
0.77167
0.771418
0.771339
0.77134
0.771337
0.77135
0.771493
0.771885
0.772254
0.772279
0.772218
0.771952
0.771609
0.771399
0.771407
0.771556
0.772017
0.772303
0.772275
0.772078
0.77172
0.771584
0.771681
0.772708
0.786057
0.837734
0.95989
0.772769
0.772847
0.772953
0.773082
0.773148
0.77318
0.773214
0.773267
0.773339
0.773478
0.773648
0.773708
0.77366
0.773527
0.773503
0.773501
0.773547
0.773727
0.773988
0.774165
0.77418
0.774143
0.774065
0.773969
0.773872
0.773779
0.773723
0.773738
0.773741
0.773733
0.773755
0.773753
0.773682
0.773636
0.773663
0.773646
0.773581
0.773558
0.773443
0.77317
0.773025
0.772972
0.77289
0.772714
0.772579
0.772571
0.77267
0.772833
0.772854
0.772724
0.772399
0.772066
0.77188
0.771779
0.771693
0.771663
0.771668
0.771656
0.771658
0.771687
0.77176
0.771935
0.772114
0.77216
0.772218
0.772275
0.772285
0.772319
0.772453
0.772471
0.772354
0.772058
0.771716
0.771332
0.771189
0.771219
0.771291
0.77141
0.771737
0.772081
0.772399
0.77238
0.772215
0.771787
0.771401
0.771265
0.771282
0.771453
0.771937
0.772353
0.772312
0.772062
0.771639
0.771449
0.771492
0.771888
0.772055
0.772352
0.775595
0.856053
0.776213
0.776229
0.776309
0.776468
0.776492
0.776488
0.776506
0.776499
0.77646
0.776481
0.776542
0.776542
0.776446
0.776054
0.775835
0.775847
0.775871
0.775931
0.775989
0.776011
0.776015
0.775913
0.775602
0.775222
0.775059
0.774983
0.774932
0.774947
0.774915
0.774676
0.774414
0.774227
0.774066
0.77394
0.77388
0.77378
0.773497
0.773353
0.773213
0.773034
0.773024
0.773012
0.77291
0.772731
0.772613
0.77257
0.772573
0.772616
0.772711
0.772786
0.772812
0.772796
0.772611
0.772481
0.772497
0.772703
0.773091
0.773143
0.773128
0.773073
0.773059
0.773193
0.77348
0.773564
0.773507
0.77332
0.772944
0.772502
0.772189
0.771996
0.771784
0.771663
0.771542
0.77126
0.77121
0.771297
0.771659
0.77226
0.772845
0.7728
0.772579
0.772187
0.771688
0.771303
0.771189
0.771225
0.771455
0.77205
0.772493
0.772419
0.772022
0.771524
0.771282
0.771314
0.771625
0.772139
0.772141
0.771911
0.771693
0.783063
0.781297
0.781271
0.781298
0.781446
0.781487
0.78148
0.781469
0.78142
0.781276
0.78111
0.781103
0.78119
0.781164
0.780937
0.780363
0.78002
0.780021
0.779985
0.779791
0.779568
0.779414
0.779183
0.779043
0.779058
0.779068
0.778885
0.778663
0.778686
0.778796
0.778868
0.778865
0.778766
0.778584
0.778573
0.778654
0.77888
0.778967
0.778806
0.778728
0.778803
0.779014
0.779021
0.778883
0.778497
0.777946
0.777347
0.776906
0.776813
0.776864
0.777092
0.777415
0.777774
0.777867
0.777706
0.777639
0.77765
0.777613
0.777404
0.776943
0.776222
0.775689
0.775604
0.775529
0.775266
0.774797
0.774216
0.773543
0.772922
0.772497
0.772297
0.772277
0.772263
0.772377
0.772699
0.773036
0.773388
0.77377
0.773855
0.77365
0.773191
0.772491
0.771881
0.771502
0.771328
0.771405
0.771912
0.772567
0.773029
0.772811
0.7722
0.771535
0.771261
0.771285
0.771592
0.772172
0.772298
0.772047
0.771556
0.771413
0.772028
0.794258
0.794245
0.794259
0.794303
0.794435
0.794603
0.79466
0.794656
0.79466
0.794713
0.794702
0.794551
0.794407
0.794447
0.794479
0.794247
0.793826
0.793617
0.793577
0.793559
0.793427
0.793295
0.793313
0.793424
0.793402
0.793132
0.792571
0.792111
0.792101
0.79225
0.79217
0.791737
0.790955
0.790263
0.790129
0.79025
0.790258
0.789973
0.789532
0.789319
0.789239
0.789137
0.788872
0.788365
0.787731
0.78709
0.786469
0.785877
0.785273
0.784656
0.784166
0.783865
0.783597
0.783158
0.782591
0.782073
0.781431
0.780786
0.780402
0.779987
0.779232
0.778512
0.777956
0.777595
0.777314
0.777257
0.777161
0.776985
0.776983
0.77714
0.777415
0.777285
0.777278
0.77719
0.776925
0.776416
0.775701
0.774762
0.773614
0.772902
0.772521
0.77225
0.772362
0.772875
0.773576
0.774169
0.773978
0.773511
0.772516
0.771779
0.771448
0.771347
0.771832