/*--------------------------------*- C++ -*----------------------------------*\
  =========                 |
  \\      /  F ield         | OpenFOAM: The Open Source CFD Toolbox
   \\    /   O peration     | Website:  https://openfoam.org
    \\  /    A nd           | Version:  7
     \\/     M anipulation  |
\*---------------------------------------------------------------------------*/
FoamFile
{
    version     2.0;
    format      ascii;
    class       volVectorField;
    location    "2.5";
    object      U;
}
// * * * * * * * * * * * * * * * * * * * * * * * * * * * * * * * * * * * * * //

dimensions      [0 1 -1 0 0 0 0];

internalField   nonuniform List<vector> 
90000
(
(5.00742 -0.141837 0)
(5.00884 -0.134404 0)
(5.00749 -0.126216 0)
(5.00689 -0.118043 0)
(5.00896 -0.116464 0)
(5.00745 -0.109189 0)
(5.00535 -0.101995 0)
(5.00502 -0.101164 0)
(5.00364 -0.0968729 0)
(5.0026 -0.0947908 0)
(5.00092 -0.091593 0)
(4.99937 -0.089979 0)
(4.99761 -0.0866811 0)
(4.99632 -0.0851731 0)
(4.99483 -0.0828842 0)
(4.99334 -0.0820969 0)
(4.99177 -0.0793611 0)
(4.99051 -0.0779728 0)
(4.98931 -0.0756207 0)
(4.98814 -0.0741526 0)
(4.98689 -0.0713907 0)
(4.98599 -0.0705622 0)
(4.98469 -0.0665138 0)
(4.98398 -0.0641518 0)
(4.98317 -0.0595788 0)
(4.98284 -0.0573281 0)
(4.98219 -0.0526062 0)
(4.98179 -0.049384 0)
(4.98141 -0.0453461 0)
(4.98103 -0.0404144 0)
(4.98104 -0.0377181 0)
(4.9803 -0.0292693 0)
(4.98074 -0.0295853 0)
(4.97952 -0.0194751 0)
(4.97945 -0.0180688 0)
(4.979 -0.0131457 0)
(4.9779 -0.00501499 0)
(4.97851 -0.00597337 0)
(4.9764 0.00266994 0)
(4.97649 0.0039929 0)
(4.97561 0.00869786 0)
(4.97513 0.010652 0)
(4.97415 0.0133677 0)
(4.97258 0.0128542 0)
(4.97223 0.0101388 0)
(4.9706 0.00620546 0)
(4.9703 -0.00453875 0)
(4.9697 -0.0125049 0)
(4.97026 -0.0268569 0)
(4.96907 -0.0304556 0)
(4.96701 -0.0386851 0)
(4.96568 -0.0395518 0)
(4.96333 -0.0395282 0)
(4.96018 -0.0372106 0)
(4.95725 -0.0338685 0)
(4.95352 -0.0257947 0)
(4.95231 -0.0220926 0)
(4.95088 -0.0158943 0)
(4.9508 -0.0128963 0)
(4.95088 -0.00689729 0)
(4.95131 -0.00600542 0)
(4.95254 -0.00859592 0)
(4.95353 -0.0110332 0)
(4.95566 -0.0177539 0)
(4.95486 -0.0200811 0)
(4.95698 -0.0243839 0)
(4.95706 -0.025154 0)
(4.95649 -0.0241807 0)
(4.95503 -0.0203346 0)
(4.95386 -0.0166518 0)
(4.95251 -0.00775133 0)
(4.95234 -0.00441406 0)
(4.95327 -0.00643096 0)
(4.95468 -0.0104889 0)
(4.95516 -0.0132567 0)
(4.95714 -0.018518 0)
(4.95723 -0.0193974 0)
(4.95694 -0.01707 0)
(4.95703 -0.0144295 0)
(4.95633 -0.00889225 0)
(4.95684 -0.0112193 0)
(4.95659 -0.0125418 0)
(4.95695 -0.0157543 0)
(4.95844 -0.0139469 0)
(4.95862 -0.0138483 0)
(4.95851 -0.013387 0)
(4.95817 -0.0119486 0)
(4.9582 -0.0123514 0)
(4.95877 -0.0128359 0)
(4.95951 -0.0130498 0)
(4.95977 -0.0125159 0)
(4.95962 -0.0120023 0)
(4.95968 -0.0124709 0)
(4.95971 -0.0132888 0)
(4.96048 -0.0141594 0)
(4.96085 -0.0141737 0)
(4.96112 -0.0125075 0)
(4.96112 -0.0118573 0)
(4.96105 -0.0131611 0)
(4.96141 -0.0137267 0)
(5.00673 -0.147192 0)
(5.00667 -0.147296 0)
(5.00657 -0.147301 0)
(5.00644 -0.147319 0)
(5.00624 -0.147066 0)
(5.0061 -0.147017 0)
(5.00584 -0.146524 0)
(5.00555 -0.145839 0)
(5.00507 -0.144365 0)
(5.00465 -0.142538 0)
(5.00435 -0.140893 0)
(5.0039 -0.13885 0)
(5.00352 -0.136702 0)
(5.00333 -0.13446 0)
(5.00306 -0.132103 0)
(5.00268 -0.130273 0)
(5.00212 -0.127857 0)
(5.00168 -0.12594 0)
(5.00118 -0.123411 0)
(5.00059 -0.121529 0)
(4.99992 -0.118548 0)
(4.9993 -0.117125 0)
(4.99851 -0.114722 0)
(4.99766 -0.112642 0)
(4.99676 -0.110128 0)
(4.99568 -0.107564 0)
(4.99453 -0.105321 0)
(4.99294 -0.101634 0)
(4.99154 -0.100056 0)
(4.98939 -0.0945804 0)
(4.98767 -0.092736 0)
(4.98506 -0.0849168 0)
(4.98342 -0.0827047 0)
(4.98079 -0.0737431 0)
(4.9795 -0.0693864 0)
(4.97737 -0.060412 0)
(4.97612 -0.0533899 0)
(4.97545 -0.0485561 0)
(4.97355 -0.036188 0)
(4.97446 -0.0368777 0)
(4.97267 -0.0248442 0)
(4.97429 -0.0243192 0)
(4.97189 -0.014691 0)
(4.97437 -0.010987 0)
(4.9717 -0.00469943 0)
(4.97163 1.95281e-05 0)
(4.97091 0.00535133 0)
(4.97099 0.00660882 0)
(4.9712 0.00517054 0)
(4.97172 0.00285217 0)
(4.97271 -0.00304494 0)
(4.97276 -0.0075854 0)
(4.97328 -0.01717 0)
(4.97284 -0.0202098 0)
(4.97099 -0.0223703 0)
(4.97042 -0.0221883 0)
(4.96999 -0.0199329 0)
(4.96953 -0.0181325 0)
(4.96919 -0.0160724 0)
(4.96818 -0.0125846 0)
(4.96752 -0.0100815 0)
(4.96702 -0.00608169 0)
(4.96626 -0.00398198 0)
(4.96614 -0.00530594 0)
(4.96657 -0.0111235 0)
(4.96733 -0.0169083 0)
(4.96815 -0.0221608 0)
(4.9684 -0.0251306 0)
(4.96792 -0.0238687 0)
(4.9672 -0.0194278 0)
(4.96648 -0.0155773 0)
(4.96499 -0.00959554 0)
(4.96422 -0.00370256 0)
(4.96415 -0.00503344 0)
(4.96439 -0.0103341 0)
(4.96447 -0.0127053 0)
(4.96476 -0.0205342 0)
(4.9657 -0.0171728 0)
(4.96541 -0.0150074 0)
(4.96457 -0.0125601 0)
(4.96502 -0.0086947 0)
(4.96332 -0.0094299 0)
(4.96315 -0.0113182 0)
(4.96329 -0.0147605 0)
(4.96381 -0.0169029 0)
(4.9636 -0.0153606 0)
(4.96326 -0.0128118 0)
(4.96303 -0.0107259 0)
(4.96309 -0.011689 0)
(4.96341 -0.013253 0)
(4.96351 -0.014292 0)
(4.9635 -0.0140196 0)
(4.96342 -0.0125335 0)
(4.96343 -0.0125823 0)
(4.96354 -0.0131401 0)
(4.96394 -0.0142828 0)
(4.9639 -0.0144288 0)
(4.964 -0.0136357 0)
(4.96393 -0.0120966 0)
(4.96417 -0.0126325 0)
(5.00467 -0.147709 0)
(5.00467 -0.147767 0)
(5.00467 -0.147848 0)
(5.00466 -0.147939 0)
(5.00461 -0.147902 0)
(5.00463 -0.147847 0)
(5.00469 -0.147858 0)
(5.00474 -0.147841 0)
(5.00478 -0.147927 0)
(5.00476 -0.147885 0)
(5.00473 -0.147838 0)
(5.0046 -0.147565 0)
(5.00445 -0.147177 0)
(5.00431 -0.146694 0)
(5.00421 -0.146325 0)
(5.00403 -0.145683 0)
(5.00382 -0.145294 0)
(5.00351 -0.144475 0)
(5.00324 -0.143616 0)
(5.00301 -0.142311 0)
(5.00265 -0.140999 0)
(5.00226 -0.13951 0)
(5.00179 -0.137953 0)
(5.00118 -0.135904 0)
(5.00061 -0.134001 0)
(4.99995 -0.131032 0)
(4.99945 -0.128849 0)
(4.99867 -0.125321 0)
(4.99807 -0.123312 0)
(4.99701 -0.1193 0)
(4.99619 -0.116377 0)
(4.99503 -0.111676 0)
(4.99411 -0.108451 0)
(4.99249 -0.102748 0)
(4.99119 -0.0985798 0)
(4.98926 -0.0915888 0)
(4.98746 -0.0850687 0)
(4.98587 -0.0797122 0)
(4.98297 -0.0674679 0)
(4.98252 -0.0666876 0)
(4.97856 -0.0491351 0)
(4.97817 -0.0492888 0)
(4.97476 -0.0339418 0)
(4.974 -0.0307521 0)
(4.97234 -0.0208905 0)
(4.97169 -0.0171382 0)
(4.97131 -0.0140593 0)
(4.97031 -0.00824819 0)
(4.97144 -0.00833615 0)
(4.9698 -0.00420406 0)
(4.96937 -0.00226608 0)
(4.96898 -0.00397127 0)
(4.97016 -0.00674679 0)
(4.97126 -0.0080569 0)
(4.97279 -0.0110271 0)
(4.97438 -0.0139165 0)
(4.97633 -0.0190759 0)
(4.97741 -0.0206756 0)
(4.97908 -0.0224818 0)
(4.97867 -0.0221419 0)
(4.97749 -0.0208758 0)
(4.97594 -0.0189043 0)
(4.97441 -0.0160356 0)
(4.97331 -0.011115 0)
(4.97291 -0.00784133 0)
(4.97286 -0.00790187 0)
(4.97337 -0.00952688 0)
(4.97435 -0.0135437 0)
(4.9748 -0.0162773 0)
(4.9761 -0.0194112 0)
(4.97615 -0.0185573 0)
(4.97521 -0.0164137 0)
(4.97386 -0.0142592 0)
(4.97277 -0.00788292 0)
(4.97183 -0.00456028 0)
(4.97169 -0.00489109 0)
(4.97215 -0.00988808 0)
(4.97195 -0.01243 0)
(4.97316 -0.0193128 0)
(4.9726 -0.0189019 0)
(4.97156 -0.0168666 0)
(4.97044 -0.0120829 0)
(4.96985 -0.00917197 0)
(4.96986 -0.0114497 0)
(4.97006 -0.0141395 0)
(4.96995 -0.0160838 0)
(4.96955 -0.0148265 0)
(4.96909 -0.0127819 0)
(4.96873 -0.0105702 0)
(4.96878 -0.0118325 0)
(4.96878 -0.0133993 0)
(4.96865 -0.0129871 0)
(4.96842 -0.0121092 0)
(4.9682 -0.0120598 0)
(4.9682 -0.0126208 0)
(4.96839 -0.0141299 0)
(4.96835 -0.0135736 0)
(4.96822 -0.01286 0)
(4.968 -0.0127974 0)
(4.9681 -0.0131029 0)
(5.00182 -0.145387 0)
(5.00181 -0.145462 0)
(5.00184 -0.145655 0)
(5.00185 -0.145781 0)
(5.00187 -0.145802 0)
(5.00188 -0.145827 0)
(5.00185 -0.145963 0)
(5.00184 -0.146224 0)
(5.00185 -0.146284 0)
(5.0019 -0.14637 0)
(5.00197 -0.146589 0)
(5.00202 -0.146693 0)
(5.0021 -0.146819 0)
(5.00199 -0.147092 0)
(5.00197 -0.147374 0)
(5.00203 -0.147424 0)
(5.002 -0.147705 0)
(5.00185 -0.147928 0)
(5.0016 -0.148153 0)
(5.00142 -0.14868 0)
(5.0013 -0.14831 0)
(5.00132 -0.148086 0)
(5.00127 -0.148032 0)
(5.0011 -0.148056 0)
(5.00087 -0.148 0)
(5.00064 -0.147479 0)
(5.00052 -0.146819 0)
(5.00041 -0.146164 0)
(5.00025 -0.14562 0)
(5.00003 -0.144945 0)
(4.99978 -0.143772 0)
(4.99933 -0.142678 0)
(4.99875 -0.140908 0)
(4.99818 -0.139389 0)
(4.99741 -0.13608 0)
(4.99691 -0.1339 0)
(4.99608 -0.129245 0)
(4.99543 -0.126049 0)
(4.99427 -0.120337 0)
(4.99331 -0.116105 0)
(4.99149 -0.107722 0)
(4.99055 -0.103902 0)
(4.98789 -0.0902567 0)
(4.98695 -0.0876912 0)
(4.98402 -0.0738953 0)
(4.98187 -0.0644878 0)
(4.9803 -0.0599263 0)
(4.9771 -0.0407986 0)
(4.97731 -0.0436536 0)
(4.97466 -0.033237 0)
(4.97431 -0.0291881 0)
(4.97442 -0.0246688 0)
(4.97383 -0.0189139 0)
(4.97267 -0.0161653 0)
(4.97227 -0.0130764 0)
(4.97202 -0.0106683 0)
(4.97267 -0.0103125 0)
(4.97363 -0.00988064 0)
(4.97497 -0.0113429 0)
(4.97532 -0.0129958 0)
(4.97563 -0.01698 0)
(4.97592 -0.0187935 0)
(4.97535 -0.0187717 0)
(4.9748 -0.0198047 0)
(4.97385 -0.0170496 0)
(4.97356 -0.0144631 0)
(4.97436 -0.0111324 0)
(4.97401 -0.00796279 0)
(4.97406 -0.00828653 0)
(4.97558 -0.0125164 0)
(4.97631 -0.0146826 0)
(4.9778 -0.0195693 0)
(4.9776 -0.0197906 0)
(4.97614 -0.0168262 0)
(4.97569 -0.013873 0)
(4.97462 -0.00825776 0)
(4.97425 -0.00660058 0)
(4.97438 -0.00811584 0)
(4.97491 -0.01154 0)
(4.97573 -0.0156539 0)
(4.97533 -0.0172842 0)
(4.97478 -0.0163395 0)
(4.97419 -0.0138187 0)
(4.97352 -0.00958778 0)
(4.97357 -0.0101352 0)
(4.97382 -0.0123427 0)
(4.97391 -0.0154429 0)
(4.9736 -0.0148182 0)
(4.97315 -0.0133464 0)
(4.9728 -0.010823 0)
(4.97279 -0.0121516 0)
(4.97275 -0.0142684 0)
(4.97253 -0.0139214 0)
(4.97233 -0.0128227 0)
(4.97224 -0.012106 0)
(4.97234 -0.0127702 0)
(4.97238 -0.0142319 0)
(4.97221 -0.0139326 0)
(4.97191 -0.0127608 0)
(4.97183 -0.0127372 0)
(5.00006 -0.146806 0)
(5.00002 -0.146885 0)
(4.99999 -0.146976 0)
(5.00005 -0.147132 0)
(5.00007 -0.147156 0)
(5.00009 -0.147093 0)
(5.00014 -0.147081 0)
(5 -0.147312 0)
(4.99993 -0.147482 0)
(4.99997 -0.147773 0)
(5.00005 -0.147804 0)
(5.00015 -0.147746 0)
(5.00004 -0.147928 0)
(5.00003 -0.148208 0)
(5.0001 -0.14829 0)
(5.00023 -0.148303 0)
(5.00006 -0.148701 0)
(4.99987 -0.148986 0)
(4.99984 -0.149215 0)
(4.99987 -0.149412 0)
(4.99982 -0.149755 0)
(4.99983 -0.149904 0)
(4.99988 -0.149843 0)
(4.99986 -0.149919 0)
(4.99964 -0.150406 0)
(4.99952 -0.150826 0)
(4.99948 -0.150799 0)
(4.99948 -0.150684 0)
(4.99943 -0.150655 0)
(4.99933 -0.150809 0)
(4.9991 -0.150577 0)
(4.99921 -0.150471 0)
(4.99927 -0.150397 0)
(4.9993 -0.150249 0)
(4.99929 -0.149894 0)
(4.99922 -0.14937 0)
(4.99908 -0.148568 0)
(4.99883 -0.147534 0)
(4.9985 -0.146303 0)
(4.99806 -0.144425 0)
(4.99751 -0.142112 0)
(4.99677 -0.138443 0)
(4.99583 -0.134238 0)
(4.99474 -0.128156 0)
(4.99359 -0.122056 0)
(4.99168 -0.111018 0)
(4.99091 -0.105455 0)
(4.98713 -0.0850114 0)
(4.9876 -0.0833582 0)
(4.98234 -0.0567876 0)
(4.98315 -0.0571764 0)
(4.97897 -0.0323292 0)
(4.97932 -0.0342275 0)
(4.9752 -0.0173854 0)
(4.97501 -0.0188184 0)
(4.97276 -0.0106841 0)
(4.97212 -0.0099476 0)
(4.97193 -0.00798263 0)
(4.97152 -0.00944737 0)
(4.97131 -0.0109717 0)
(4.9722 -0.015204 0)
(4.97273 -0.0161179 0)
(4.97366 -0.0159581 0)
(4.97416 -0.016184 0)
(4.97451 -0.0159113 0)
(4.9748 -0.0128407 0)
(4.97452 -0.0113023 0)
(4.97433 -0.0101727 0)
(4.97412 -0.00944303 0)
(4.97403 -0.0103299 0)
(4.97439 -0.0112316 0)
(4.97521 -0.0129125 0)
(4.97613 -0.0151494 0)
(4.9765 -0.0166384 0)
(4.97609 -0.0159058 0)
(4.97503 -0.0136712 0)
(4.97494 -0.0130263 0)
(4.97425 -0.0106778 0)
(4.97457 -0.0104642 0)
(4.97512 -0.0116562 0)
(4.97568 -0.013788 0)
(4.97606 -0.0169551 0)
(4.97583 -0.0168709 0)
(4.97495 -0.0148723 0)
(4.97487 -0.0123208 0)
(4.97495 -0.0107955 0)
(4.97528 -0.0117271 0)
(4.97549 -0.0139006 0)
(4.97543 -0.0139955 0)
(4.97517 -0.013494 0)
(4.97494 -0.0111171 0)
(4.97499 -0.0117084 0)
(4.9749 -0.012902 0)
(4.97504 -0.0135709 0)
(4.97496 -0.0128541 0)
(4.97494 -0.0125957 0)
(4.97499 -0.0132052 0)
(4.97495 -0.013909 0)
(4.97472 -0.0137869 0)
(4.97453 -0.0128418 0)
(4.99967 -0.14625 0)
(4.99973 -0.146445 0)
(4.99975 -0.146707 0)
(4.99974 -0.146793 0)
(4.99973 -0.146772 0)
(4.99973 -0.146798 0)
(4.99986 -0.147062 0)
(4.99988 -0.147235 0)
(4.9999 -0.14724 0)
(4.99989 -0.147397 0)
(4.99981 -0.147729 0)
(4.9997 -0.147939 0)
(4.99976 -0.148342 0)
(4.99981 -0.148462 0)
(4.99985 -0.148462 0)
(4.99979 -0.148721 0)
(4.99973 -0.148963 0)
(4.9997 -0.149115 0)
(4.99974 -0.149197 0)
(4.9997 -0.149446 0)
(4.99957 -0.149754 0)
(4.99962 -0.150146 0)
(4.99965 -0.150178 0)
(4.99973 -0.150188 0)
(4.99973 -0.150436 0)
(4.99966 -0.150636 0)
(4.99966 -0.150851 0)
(4.99977 -0.150949 0)
(4.99971 -0.151209 0)
(4.99971 -0.151542 0)
(4.99982 -0.151662 0)
(4.99991 -0.151817 0)
(4.99998 -0.151929 0)
(5.00003 -0.151926 0)
(5.00004 -0.151841 0)
(5.00002 -0.151848 0)
(4.99988 -0.151713 0)
(4.99988 -0.151658 0)
(4.99987 -0.151644 0)
(4.99983 -0.15162 0)
(4.99976 -0.151547 0)
(4.99966 -0.151142 0)
(4.99964 -0.150522 0)
(4.99961 -0.149517 0)
(4.99948 -0.147855 0)
(4.99916 -0.14565 0)
(4.9985 -0.141502 0)
(4.99779 -0.137335 0)
(4.99665 -0.130061 0)
(4.99466 -0.119403 0)
(4.99371 -0.112681 0)
(4.99017 -0.0926167 0)
(4.9896 -0.0882283 0)
(4.98534 -0.0656329 0)
(4.98466 -0.0620896 0)
(4.98104 -0.0421349 0)
(4.98015 -0.0409281 0)
(4.97761 -0.0307721 0)
(4.97773 -0.0305815 0)
(4.97551 -0.0262163 0)
(4.97664 -0.0207818 0)
(4.97611 -0.0180642 0)
(4.9761 -0.0158973 0)
(4.97571 -0.0134914 0)
(4.9755 -0.0118779 0)
(4.97476 -0.0120381 0)
(4.97449 -0.0122617 0)
(4.97413 -0.0125391 0)
(4.97356 -0.0145675 0)
(4.97325 -0.0141206 0)
(4.97382 -0.0126555 0)
(4.97412 -0.0119722 0)
(4.97472 -0.0118668 0)
(4.97478 -0.0120422 0)
(4.97552 -0.0158639 0)
(4.97549 -0.0168555 0)
(4.97502 -0.0161197 0)
(4.97458 -0.0149597 0)
(4.97471 -0.0134531 0)
(4.9749 -0.0120008 0)
(4.97507 -0.0119606 0)
(4.97559 -0.013235 0)
(4.97602 -0.0155063 0)
(4.97624 -0.0157125 0)
(4.97585 -0.0146011 0)
(4.97585 -0.0134842 0)
(4.97573 -0.0120595 0)
(4.97605 -0.0123744 0)
(4.97629 -0.013073 0)
(4.9763 -0.0139358 0)
(4.97608 -0.0135825 0)
(4.97602 -0.0123804 0)
(4.97621 -0.0118365 0)
(4.97642 -0.0123067 0)
(4.97646 -0.0130302 0)
(4.97642 -0.0129747 0)
(4.97644 -0.0129777 0)
(4.97658 -0.013448 0)
(4.97629 -0.0136803 0)
(4.97637 -0.0133971 0)
(5.00063 -0.147334 0)
(5.0007 -0.14743 0)
(5.00075 -0.147429 0)
(5.0007 -0.147239 0)
(5.00066 -0.147185 0)
(5.00065 -0.147145 0)
(5.00073 -0.146956 0)
(5.0008 -0.14686 0)
(5.0008 -0.147005 0)
(5.00081 -0.147138 0)
(5.00082 -0.147048 0)
(5.0008 -0.14707 0)
(5.00073 -0.147221 0)
(5.00072 -0.147275 0)
(5.00074 -0.14724 0)
(5.00074 -0.147218 0)
(5.00085 -0.147365 0)
(5.0009 -0.147483 0)
(5.00089 -0.147506 0)
(5.00077 -0.147683 0)
(5.00084 -0.148027 0)
(5.00082 -0.148265 0)
(5.00082 -0.148298 0)
(5.00092 -0.148493 0)
(5.00101 -0.148862 0)
(5.00102 -0.148981 0)
(5.001 -0.149106 0)
(5.00097 -0.149219 0)
(5.00095 -0.149366 0)
(5.00121 -0.149689 0)
(5.00132 -0.150141 0)
(5.00129 -0.150369 0)
(5.00135 -0.150503 0)
(5.00152 -0.150838 0)
(5.00154 -0.151192 0)
(5.00149 -0.151147 0)
(5.0014 -0.150932 0)
(5.00135 -0.151066 0)
(5.00129 -0.151405 0)
(5.0012 -0.151468 0)
(5.00101 -0.151453 0)
(5.00112 -0.151405 0)
(5.00138 -0.151389 0)
(5.00165 -0.151321 0)
(5.0018 -0.151102 0)
(5.00186 -0.150887 0)
(5.00195 -0.150503 0)
(5.00208 -0.149867 0)
(5.00215 -0.14873 0)
(5.00203 -0.146979 0)
(5.00149 -0.143615 0)
(5.00044 -0.138787 0)
(4.99924 -0.132663 0)
(4.99657 -0.119725 0)
(4.99537 -0.111515 0)
(4.99132 -0.0893894 0)
(4.9906 -0.0809624 0)
(4.98553 -0.0555871 0)
(4.98542 -0.0483379 0)
(4.98125 -0.0273638 0)
(4.98097 -0.020773 0)
(4.97956 -0.0105543 0)
(4.97978 -0.00929322 0)
(4.97896 -0.00287848 0)
(4.97661 -0.00554228 0)
(4.97492 -0.0110394 0)
(4.97436 -0.0136103 0)
(4.97388 -0.0144201 0)
(4.97412 -0.014872 0)
(4.97445 -0.0140623 0)
(4.975 -0.0131132 0)
(4.97592 -0.0106268 0)
(4.97561 -0.0109092 0)
(4.97509 -0.0115159 0)
(4.9755 -0.0135742 0)
(4.97561 -0.0153552 0)
(4.976 -0.0167748 0)
(4.97601 -0.0162577 0)
(4.97597 -0.0146738 0)
(4.97619 -0.0136531 0)
(4.97606 -0.012716 0)
(4.97598 -0.0128458 0)
(4.97631 -0.0135816 0)
(4.97697 -0.0145764 0)
(4.97683 -0.0150953 0)
(4.97668 -0.0144115 0)
(4.97674 -0.0134789 0)
(4.97684 -0.0128954 0)
(4.97685 -0.0127947 0)
(4.97702 -0.0131983 0)
(4.97708 -0.0135573 0)
(4.97687 -0.0133195 0)
(4.97696 -0.0128334 0)
(4.97703 -0.0122457 0)
(4.97728 -0.0123801 0)
(4.97731 -0.0126924 0)
(4.97741 -0.0131548 0)
(4.97751 -0.0133038 0)
(4.97735 -0.0135976 0)
(4.97768 -0.0133255 0)
(5.00221 -0.148403 0)
(5.0022 -0.148414 0)
(5.0022 -0.14841 0)
(5.00221 -0.148401 0)
(5.00221 -0.148383 0)
(5.00221 -0.148377 0)
(5.00223 -0.148397 0)
(5.00225 -0.148417 0)
(5.00226 -0.148412 0)
(5.00226 -0.148408 0)
(5.00216 -0.148512 0)
(5.0021 -0.148567 0)
(5.00205 -0.148639 0)
(5.00204 -0.148709 0)
(5.00201 -0.148718 0)
(5.00199 -0.148689 0)
(5.00201 -0.148575 0)
(5.00204 -0.148522 0)
(5.00196 -0.148569 0)
(5.00193 -0.148737 0)
(5.002 -0.148893 0)
(5.00201 -0.14885 0)
(5.00188 -0.148722 0)
(5.00186 -0.148698 0)
(5.00183 -0.148694 0)
(5.00181 -0.148707 0)
(5.0018 -0.148785 0)
(5.00184 -0.148978 0)
(5.00191 -0.14912 0)
(5.00201 -0.149242 0)
(5.00209 -0.149401 0)
(5.00213 -0.149487 0)
(5.00217 -0.14952 0)
(5.00229 -0.149575 0)
(5.00252 -0.149537 0)
(5.00276 -0.14951 0)
(5.00291 -0.149533 0)
(5.00299 -0.149565 0)
(5.00304 -0.149735 0)
(5.00302 -0.149926 0)
(5.00295 -0.150048 0)
(5.00286 -0.150191 0)
(5.00273 -0.150094 0)
(5.00272 -0.15015 0)
(5.00283 -0.149991 0)
(5.00311 -0.149526 0)
(5.00335 -0.149186 0)
(5.00351 -0.14932 0)
(5.00408 -0.149339 0)
(5.00421 -0.149319 0)
(5.00435 -0.149115 0)
(5.00445 -0.148723 0)
(5.00436 -0.147893 0)
(5.00403 -0.146373 0)
(5.00333 -0.142622 0)
(5.00247 -0.138156 0)
(5.00084 -0.128698 0)
(4.99901 -0.11946 0)
(4.99591 -0.102817 0)
(4.9932 -0.0884453 0)
(4.99056 -0.0725095 0)
(4.98821 -0.0552684 0)
(4.98798 -0.0496907 0)
(4.98667 -0.0337703 0)
(4.98803 -0.036051 0)
(4.98539 -0.0279183 0)
(4.98089 -0.0224963 0)
(4.98008 -0.0181352 0)
(4.97874 -0.015665 0)
(4.97754 -0.0120386 0)
(4.97806 -0.0119041 0)
(4.97832 -0.0119797 0)
(4.97738 -0.01374 0)
(4.97676 -0.0137903 0)
(4.97691 -0.014559 0)
(4.97701 -0.0151589 0)
(4.97723 -0.0152102 0)
(4.97807 -0.0151785 0)
(4.97799 -0.0149883 0)
(4.9778 -0.0146106 0)
(4.97743 -0.0139964 0)
(4.97717 -0.0136032 0)
(4.97727 -0.0134788 0)
(4.97748 -0.0135737 0)
(4.97783 -0.0141164 0)
(4.97801 -0.0142395 0)
(4.97799 -0.0140473 0)
(4.97801 -0.0137857 0)
(4.97775 -0.0131783 0)
(4.97783 -0.013216 0)
(4.97809 -0.0134104 0)
(4.97802 -0.0133826 0)
(4.97789 -0.013132 0)
(4.97775 -0.0126196 0)
(4.97808 -0.0123656 0)
(4.97819 -0.0124851 0)
(4.97826 -0.0127035 0)
(4.97831 -0.0129268 0)
(4.9783 -0.0133644 0)
(4.97858 -0.0133928 0)
(5.00394 -0.150191 0)
(5.00386 -0.150126 0)
(5.00381 -0.150054 0)
(5.00383 -0.149993 0)
(5.00382 -0.14993 0)
(5.0038 -0.149918 0)
(5.00377 -0.149902 0)
(5.00374 -0.149836 0)
(5.00374 -0.149801 0)
(5.00375 -0.14979 0)
(5.00371 -0.149685 0)
(5.00368 -0.14962 0)
(5.00367 -0.149614 0)
(5.00365 -0.149651 0)
(5.00365 -0.149671 0)
(5.00362 -0.14966 0)
(5.00358 -0.14961 0)
(5.00353 -0.149578 0)
(5.00351 -0.149604 0)
(5.00352 -0.149688 0)
(5.00356 -0.149769 0)
(5.0035 -0.149643 0)
(5.00334 -0.149403 0)
(5.00331 -0.149234 0)
(5.00334 -0.149096 0)
(5.0034 -0.149059 0)
(5.00353 -0.149107 0)
(5.00358 -0.149226 0)
(5.00366 -0.14943 0)
(5.00379 -0.149559 0)
(5.00386 -0.149293 0)
(5.0039 -0.149153 0)
(5.00391 -0.149082 0)
(5.00412 -0.148903 0)
(5.00428 -0.148869 0)
(5.00445 -0.148743 0)
(5.00448 -0.148639 0)
(5.00449 -0.148603 0)
(5.00451 -0.148583 0)
(5.00453 -0.148517 0)
(5.00459 -0.148393 0)
(5.0047 -0.148305 0)
(5.00476 -0.148102 0)
(5.00471 -0.148103 0)
(5.00469 -0.147966 0)
(5.00479 -0.147603 0)
(5.00497 -0.147379 0)
(5.0051 -0.147483 0)
(5.00519 -0.147417 0)
(5.00526 -0.14749 0)
(5.00538 -0.147407 0)
(5.00555 -0.147381 0)
(5.00582 -0.147735 0)
(5.00609 -0.148038 0)
(5.00631 -0.147639 0)
(5.00626 -0.147257 0)
(5.00613 -0.146225 0)
(5.00572 -0.143824 0)
(5.00491 -0.140104 0)
(5.00321 -0.132505 0)
(5.00134 -0.123843 0)
(4.99758 -0.103163 0)
(4.99706 -0.0954427 0)
(4.99165 -0.0655434 0)
(4.99167 -0.0502571 0)
(4.99143 -0.0361002 0)
(4.98667 -0.0188778 0)
(4.98558 -0.0107148 0)
(4.98365 -0.0034901 0)
(4.9827 -0.00467132 0)
(4.98196 -0.0110789 0)
(4.98076 -0.013408 0)
(4.97925 -0.0157194 0)
(4.97901 -0.0155521 0)
(4.97918 -0.0148375 0)
(4.97948 -0.0139635 0)
(4.9794 -0.012305 0)
(4.97982 -0.0135579 0)
(4.97966 -0.014269 0)
(4.97941 -0.0150314 0)
(4.97923 -0.0153743 0)
(4.97919 -0.0146911 0)
(4.9789 -0.013384 0)
(4.97885 -0.0129258 0)
(4.97911 -0.0133242 0)
(4.9794 -0.0138139 0)
(4.97937 -0.0144178 0)
(4.97938 -0.0141346 0)
(4.97935 -0.0137466 0)
(4.97915 -0.0134305 0)
(4.97905 -0.0133597 0)
(4.97905 -0.0133787 0)
(4.97907 -0.0131449 0)
(4.97907 -0.0128454 0)
(4.97906 -0.0124427 0)
(4.97918 -0.0125458 0)
(4.97919 -0.0126111 0)
(4.97912 -0.0127032 0)
(4.97907 -0.013027 0)
(4.97928 -0.013302 0)
(5.00581 -0.150847 0)
(5.00582 -0.150815 0)
(5.00582 -0.150815 0)
(5.00581 -0.150819 0)
(5.00579 -0.150834 0)
(5.00579 -0.150897 0)
(5.00578 -0.150938 0)
(5.00571 -0.150871 0)
(5.00565 -0.150819 0)
(5.00565 -0.150731 0)
(5.00571 -0.150558 0)
(5.00569 -0.150405 0)
(5.00567 -0.150342 0)
(5.0057 -0.150332 0)
(5.00573 -0.150338 0)
(5.00573 -0.150329 0)
(5.00573 -0.150293 0)
(5.00573 -0.150262 0)
(5.00574 -0.150219 0)
(5.00577 -0.150093 0)
(5.00576 -0.149896 0)
(5.00575 -0.149797 0)
(5.00575 -0.149552 0)
(5.0057 -0.149276 0)
(5.00562 -0.149136 0)
(5.00576 -0.148956 0)
(5.00598 -0.148882 0)
(5.00604 -0.148887 0)
(5.00607 -0.148893 0)
(5.00607 -0.148824 0)
(5.00615 -0.148627 0)
(5.00621 -0.1484 0)
(5.00629 -0.148203 0)
(5.00646 -0.148117 0)
(5.00662 -0.148007 0)
(5.00664 -0.147701 0)
(5.00662 -0.14746 0)
(5.00657 -0.147338 0)
(5.00655 -0.147343 0)
(5.00652 -0.147363 0)
(5.00651 -0.147366 0)
(5.00664 -0.147054 0)
(5.00673 -0.146758 0)
(5.00677 -0.146834 0)
(5.0069 -0.146766 0)
(5.00712 -0.1464 0)
(5.00709 -0.146119 0)
(5.007 -0.146029 0)
(5.00695 -0.145842 0)
(5.00693 -0.145656 0)
(5.00692 -0.145571 0)
(5.00692 -0.145817 0)
(5.00693 -0.146232 0)
(5.00701 -0.146515 0)
(5.00726 -0.146859 0)
(5.0073 -0.146896 0)
(5.00731 -0.146809 0)
(5.00716 -0.146432 0)
(5.00711 -0.146002 0)
(5.00707 -0.145244 0)
(5.00679 -0.143949 0)
(5.00595 -0.140424 0)
(5.00492 -0.134722 0)
(5.0024 -0.121618 0)
(5.00191 -0.114336 0)
(4.9974 -0.0829215 0)
(4.99775 -0.0838907 0)
(4.99264 -0.0534297 0)
(4.99284 -0.0526687 0)
(4.99038 -0.0396514 0)
(4.99251 -0.0364754 0)
(4.98794 -0.0264788 0)
(4.98502 -0.0207113 0)
(4.98412 -0.0178431 0)
(4.98163 -0.0137964 0)
(4.9816 -0.0131335 0)
(4.98116 -0.0138008 0)
(4.98088 -0.0143842 0)
(4.98092 -0.0159554 0)
(4.98084 -0.0158649 0)
(4.98061 -0.015629 0)
(4.98076 -0.0144389 0)
(4.98065 -0.0138482 0)
(4.98047 -0.0136059 0)
(4.98031 -0.0136702 0)
(4.98033 -0.0138599 0)
(4.98036 -0.0140166 0)
(4.98045 -0.0140332 0)
(4.98036 -0.0139201 0)
(4.98025 -0.0138375 0)
(4.97991 -0.0135448 0)
(4.97987 -0.0134096 0)
(4.98005 -0.0131032 0)
(4.98005 -0.0129532 0)
(4.98016 -0.0127903 0)
(4.97999 -0.0125642 0)
(4.97996 -0.0125409 0)
(4.97981 -0.0125445 0)
(4.97972 -0.0127919 0)
(4.9799 -0.0133078 0)
(5.00734 -0.151628 0)
(5.0075 -0.151478 0)
(5.00756 -0.151424 0)
(5.00762 -0.151282 0)
(5.00758 -0.151194 0)
(5.00752 -0.151079 0)
(5.0075 -0.150831 0)
(5.00749 -0.150723 0)
(5.0075 -0.150704 0)
(5.00744 -0.15055 0)
(5.00739 -0.150394 0)
(5.00736 -0.150398 0)
(5.00735 -0.15033 0)
(5.0074 -0.150073 0)
(5.00746 -0.150049 0)
(5.00747 -0.150168 0)
(5.00751 -0.150141 0)
(5.00758 -0.149924 0)
(5.00753 -0.149791 0)
(5.00747 -0.149819 0)
(5.00738 -0.149762 0)
(5.00755 -0.149345 0)
(5.00754 -0.148994 0)
(5.00747 -0.148931 0)
(5.00749 -0.14885 0)
(5.0076 -0.148611 0)
(5.00764 -0.148408 0)
(5.00761 -0.148352 0)
(5.00754 -0.148381 0)
(5.00743 -0.14833 0)
(5.00747 -0.147955 0)
(5.00756 -0.147723 0)
(5.00759 -0.147703 0)
(5.00771 -0.147751 0)
(5.00793 -0.147711 0)
(5.00791 -0.147322 0)
(5.00793 -0.146974 0)
(5.00803 -0.146835 0)
(5.00807 -0.146805 0)
(5.00799 -0.146806 0)
(5.00788 -0.146722 0)
(5.00785 -0.146619 0)
(5.00787 -0.146582 0)
(5.0079 -0.14668 0)
(5.00803 -0.146565 0)
(5.00827 -0.146037 0)
(5.00814 -0.145801 0)
(5.008 -0.145667 0)
(5.00788 -0.145491 0)
(5.00781 -0.145217 0)
(5.00768 -0.145001 0)
(5.00763 -0.145094 0)
(5.00781 -0.145335 0)
(5.00781 -0.145588 0)
(5.00788 -0.146014 0)
(5.00793 -0.146244 0)
(5.008 -0.146353 0)
(5.00796 -0.146205 0)
(5.00782 -0.145947 0)
(5.00782 -0.145705 0)
(5.00775 -0.145695 0)
(5.00767 -0.145748 0)
(5.00761 -0.145546 0)
(5.00733 -0.144283 0)
(5.00675 -0.141096 0)
(5.0052 -0.133606 0)
(5.00384 -0.12422 0)
(4.99909 -0.0995196 0)
(4.99959 -0.0944359 0)
(4.99202 -0.0522221 0)
(4.99571 -0.0524799 0)
(4.98997 -0.0176351 0)
(4.99004 -0.0187307 0)
(4.98734 -0.00289523 0)
(4.98393 -0.00650793 0)
(4.98202 -0.0118845 0)
(4.98116 -0.0154741 0)
(4.98151 -0.0160343 0)
(4.98176 -0.0158129 0)
(4.98208 -0.0144006 0)
(4.98202 -0.0133967 0)
(4.98181 -0.0136602 0)
(4.98148 -0.0143252 0)
(4.98098 -0.0147465 0)
(4.98067 -0.0143197 0)
(4.98067 -0.0140286 0)
(4.98075 -0.0137134 0)
(4.98083 -0.0138223 0)
(4.98078 -0.0139536 0)
(4.98068 -0.0140271 0)
(4.98071 -0.0137933 0)
(4.98069 -0.0133702 0)
(4.98073 -0.0131164 0)
(4.98068 -0.0130228 0)
(4.98076 -0.0130545 0)
(4.98066 -0.0127022 0)
(4.98057 -0.0125179 0)
(4.98032 -0.0124187 0)
(4.98029 -0.0127068 0)
(4.98039 -0.0131551 0)
(5.00832 -0.150827 0)
(5.00832 -0.150816 0)
(5.00833 -0.150814 0)
(5.00829 -0.150752 0)
(5.00826 -0.150702 0)
(5.00825 -0.150701 0)
(5.00824 -0.15072 0)
(5.00824 -0.150639 0)
(5.00824 -0.150397 0)
(5.00824 -0.150304 0)
(5.0082 -0.150072 0)
(5.00812 -0.149928 0)
(5.00814 -0.150003 0)
(5.00818 -0.150234 0)
(5.00821 -0.150257 0)
(5.00825 -0.150183 0)
(5.00824 -0.150023 0)
(5.00817 -0.149912 0)
(5.00816 -0.149973 0)
(5.00813 -0.150168 0)
(5.00826 -0.149982 0)
(5.0082 -0.1498 0)
(5.0081 -0.149798 0)
(5.00806 -0.149573 0)
(5.00806 -0.149273 0)
(5.00798 -0.149084 0)
(5.00805 -0.148712 0)
(5.00806 -0.148386 0)
(5.00797 -0.148258 0)
(5.00781 -0.148011 0)
(5.00783 -0.147436 0)
(5.00788 -0.147144 0)
(5.00793 -0.147142 0)
(5.00798 -0.14721 0)
(5.00817 -0.147302 0)
(5.00817 -0.147001 0)
(5.00812 -0.146502 0)
(5.00825 -0.146254 0)
(5.00834 -0.146275 0)
(5.00831 -0.146371 0)
(5.00822 -0.146449 0)
(5.00819 -0.146484 0)
(5.00819 -0.146471 0)
(5.00832 -0.146162 0)
(5.00836 -0.146013 0)
(5.00838 -0.145953 0)
(5.00823 -0.145587 0)
(5.00814 -0.145372 0)
(5.00802 -0.145203 0)
(5.00795 -0.144822 0)
(5.00795 -0.144482 0)
(5.00799 -0.144476 0)
(5.008 -0.144608 0)
(5.00795 -0.144969 0)
(5.008 -0.145277 0)
(5.00805 -0.145699 0)
(5.008 -0.145944 0)
(5.008 -0.146018 0)
(5.00799 -0.146097 0)
(5.00787 -0.146077 0)
(5.0078 -0.146049 0)
(5.00776 -0.146309 0)
(5.00771 -0.146371 0)
(5.0077 -0.146472 0)
(5.00774 -0.146431 0)
(5.00768 -0.145881 0)
(5.00734 -0.144193 0)
(5.0063 -0.140396 0)
(5.00455 -0.132259 0)
(5.00131 -0.117775 0)
(4.99954 -0.104792 0)
(4.99535 -0.0739454 0)
(4.99615 -0.0714316 0)
(4.99272 -0.043823 0)
(4.99634 -0.0483493 0)
(4.98844 -0.0310285 0)
(4.98773 -0.0265355 0)
(4.98537 -0.0199142 0)
(4.98419 -0.016427 0)
(4.98308 -0.0127592 0)
(4.98231 -0.0140236 0)
(4.9816 -0.0149339 0)
(4.98147 -0.0160113 0)
(4.98108 -0.0155982 0)
(4.98099 -0.0146435 0)
(4.98118 -0.0136186 0)
(4.98115 -0.0135552 0)
(4.98103 -0.0139697 0)
(4.98105 -0.014547 0)
(4.98101 -0.0143339 0)
(4.98104 -0.0137434 0)
(4.98102 -0.0133602 0)
(4.98101 -0.0131761 0)
(4.98101 -0.0133508 0)
(4.98111 -0.0133596 0)
(4.98103 -0.0128504 0)
(4.98092 -0.0124846 0)
(4.98084 -0.0124431 0)
(4.98067 -0.0128224 0)
(4.98077 -0.0131367 0)
(5.00816 -0.150024 0)
(5.00818 -0.149949 0)
(5.00816 -0.149863 0)
(5.00815 -0.149859 0)
(5.00816 -0.149833 0)
(5.00819 -0.14978 0)
(5.00819 -0.149726 0)
(5.00822 -0.149658 0)
(5.00822 -0.149574 0)
(5.00819 -0.149528 0)
(5.00819 -0.149513 0)
(5.00824 -0.149537 0)
(5.0083 -0.149572 0)
(5.00832 -0.149606 0)
(5.00832 -0.149622 0)
(5.00832 -0.149624 0)
(5.00827 -0.149599 0)
(5.00825 -0.149596 0)
(5.00824 -0.149616 0)
(5.0082 -0.149634 0)
(5.00814 -0.149653 0)
(5.00806 -0.149714 0)
(5.00799 -0.14968 0)
(5.00798 -0.149406 0)
(5.00795 -0.149137 0)
(5.0079 -0.149014 0)
(5.00789 -0.148944 0)
(5.00792 -0.148813 0)
(5.00794 -0.148586 0)
(5.00786 -0.14838 0)
(5.0077 -0.148234 0)
(5.00754 -0.14817 0)
(5.00752 -0.148206 0)
(5.00758 -0.148253 0)
(5.00764 -0.148312 0)
(5.00776 -0.148264 0)
(5.00766 -0.147699 0)
(5.0078 -0.147182 0)
(5.00802 -0.146962 0)
(5.00814 -0.146997 0)
(5.00814 -0.147256 0)
(5.0082 -0.147338 0)
(5.00822 -0.147277 0)
(5.00827 -0.147192 0)
(5.0083 -0.147092 0)
(5.00821 -0.146936 0)
(5.00801 -0.146681 0)
(5.00785 -0.146498 0)
(5.00783 -0.146443 0)
(5.00783 -0.146252 0)
(5.00785 -0.145783 0)
(5.00784 -0.145496 0)
(5.00784 -0.145502 0)
(5.00783 -0.145601 0)
(5.00779 -0.145728 0)
(5.00769 -0.145948 0)
(5.00754 -0.14625 0)
(5.00741 -0.146378 0)
(5.00742 -0.146245 0)
(5.00756 -0.146135 0)
(5.00758 -0.146132 0)
(5.0076 -0.146215 0)
(5.00748 -0.146434 0)
(5.0074 -0.14655 0)
(5.00743 -0.146587 0)
(5.00755 -0.146473 0)
(5.00766 -0.146489 0)
(5.00752 -0.146272 0)
(5.00711 -0.145508 0)
(5.00624 -0.142898 0)
(5.00502 -0.137622 0)
(5.00228 -0.124168 0)
(5.001 -0.111904 0)
(4.99495 -0.0799541 0)
(4.99679 -0.0688176 0)
(4.99107 -0.0365292 0)
(4.9891 -0.0186311 0)
(4.98986 -0.0173778 0)
(4.98715 -0.00397643 0)
(4.98302 -0.00961044 0)
(4.98128 -0.0158875 0)
(4.98129 -0.0167006 0)
(4.98146 -0.0163507 0)
(4.98151 -0.0151655 0)
(4.98208 -0.0124194 0)
(4.98202 -0.0126543 0)
(4.98152 -0.0138338 0)
(4.98127 -0.0144673 0)
(4.98119 -0.0142913 0)
(4.98093 -0.0140727 0)
(4.98103 -0.0132675 0)
(4.98099 -0.0132024 0)
(4.98089 -0.0135461 0)
(4.98101 -0.0135396 0)
(4.98123 -0.0131348 0)
(4.98124 -0.0127088 0)
(4.98119 -0.0125905 0)
(4.98122 -0.0125843 0)
(4.98096 -0.0127882 0)
(4.98099 -0.0128933 0)
(5.00774 -0.148034 0)
(5.00775 -0.148038 0)
(5.00777 -0.14804 0)
(5.00779 -0.148042 0)
(5.00782 -0.148044 0)
(5.00786 -0.148037 0)
(5.00792 -0.148013 0)
(5.00797 -0.14797 0)
(5.00798 -0.147958 0)
(5.00805 -0.147981 0)
(5.00819 -0.148002 0)
(5.00824 -0.148031 0)
(5.00826 -0.148114 0)
(5.00825 -0.148202 0)