/*--------------------------------*- C++ -*----------------------------------*\
  =========                 |
  \\      /  F ield         | OpenFOAM: The Open Source CFD Toolbox
   \\    /   O peration     | Website:  https://openfoam.org
    \\  /    A nd           | Version:  7
     \\/     M anipulation  |
\*---------------------------------------------------------------------------*/
FoamFile
{
    version     2.0;
    format      ascii;
    class       volScalarField;
    location    "2";
    object      p;
}
// * * * * * * * * * * * * * * * * * * * * * * * * * * * * * * * * * * * * * //

dimensions      [1 -1 -2 0 0 0 0];

internalField   nonuniform List<scalar> 
90000
(
0.420637
0.447202
0.476256
0.505479
0.534546
0.563011
0.591324
0.619105
0.646613
0.673363
0.699451
0.72448
0.748799
0.771442
0.793764
0.81356
0.833337
0.850287
0.867017
0.881205
0.895174
0.90656
0.917727
0.926246
0.934612
0.940844
0.94703
0.951466
0.954984
0.957583
0.957986
0.956313
0.952637
0.945119
0.934459
0.923628
0.912066
0.909687
0.912152
0.916382
0.921518
0.926514
0.931
0.934934
0.937787
0.940516
0.941782
0.940871
0.938359
0.933663
0.929304
0.924922
0.925004
0.92619
0.929217
0.934079
0.939925
0.942328
0.941149
0.937626
0.933165
0.929716
0.93082
0.934347
0.938378
0.941931
0.941595
0.939398
0.935749
0.935206
0.937073
0.94006
0.94158
0.941646
0.940507
0.940655
0.942759
0.948142
0.956739
0.969761
0.986673
1.00695
1.026
1.0365
1.04177
1.04774
1.05403
1.06239
1.07052
1.0738
1.07837
1.08301
1.08496
1.08629
1.08709
1.0871
1.08733
1.08754
1.08847
1.0874
0.399288
0.399353
0.399572
0.400057
0.400974
0.402434
0.404742
0.407991
0.41266
0.418741
0.426845
0.436828
0.449287
0.464112
0.481286
0.501583
0.52346
0.548887
0.575124
0.604122
0.633323
0.663535
0.693482
0.722511
0.750358
0.775848
0.798903
0.818297
0.837263
0.85044
0.863692
0.872946
0.881881
0.887521
0.892004
0.897403
0.909873
0.91999
0.928962
0.934648
0.939416
0.941596
0.943228
0.943304
0.942704
0.941645
0.939741
0.934413
0.928869
0.925532
0.925258
0.926647
0.929128
0.934234
0.939422
0.942894
0.942309
0.939938
0.93575
0.930988
0.929092
0.929637
0.932541
0.936569
0.94205
0.941863
0.939462
0.935672
0.934406
0.93527
0.938017
0.94149
0.941472
0.939918
0.939496
0.94024
0.943101
0.948412
0.956163
0.968646
0.986616
1.0072
1.02531
1.03611
1.04061
1.04658
1.05339
1.06218
1.07035
1.07372
1.07862
1.08331
1.08511
1.08631
1.08691
1.0869
1.0872
1.0875
1.08843
1.08765
0.399294
0.399294
0.399288
0.39928
0.39927
0.399258
0.399243
0.399231
0.399229
0.399243
0.399281
0.399364
0.399554
0.399895
0.40045
0.40133
0.402613
0.404623
0.407476
0.411779
0.417643
0.426068
0.436812
0.451597
0.469149
0.491884
0.51751
0.548287
0.581437
0.618915
0.657426
0.69837
0.739578
0.780135
0.822509
0.857376
0.886593
0.903377
0.915624
0.921297
0.926662
0.929952
0.932174
0.934018
0.932827
0.928825
0.920112
0.916377
0.918645
0.923683
0.92993
0.938465
0.945103
0.946392
0.945272
0.943445
0.93634
0.928768
0.926125
0.926578
0.928333
0.935174
0.942984
0.943353
0.942433
0.938612
0.934384
0.933264
0.934411
0.939152
0.942221
0.942129
0.939966
0.938468
0.938853
0.940947
0.944747
0.948674
0.955512
0.967948
0.986982
1.00746
1.02501
1.03542
1.03939
1.04539
1.05288
1.06265
1.07006
1.07357
1.07918
1.08364
1.0852
1.08618
1.08663
1.08679
1.0872
1.08717
1.08825
1.08793
0.399287
0.399284
0.399282
0.399276
0.399269
0.39926
0.39925
0.399241
0.399235
0.399234
0.399233
0.399244
0.399224
0.399199
0.399173
0.399149
0.399128
0.399114
0.39911
0.39912
0.399156
0.399225
0.399383
0.399715
0.400302
0.40133
0.402989
0.405844
0.410194
0.417399
0.427517
0.443201
0.463363
0.491863
0.526083
0.570005
0.616346
0.665989
0.714561
0.757891
0.79689
0.827477
0.850351
0.87312
0.881244
0.891906
0.897828
0.911217
0.924418
0.938809
0.947983
0.953668
0.953064
0.951342
0.946692
0.933629
0.924536
0.92245
0.923463
0.928839
0.93747
0.946443
0.946768
0.944603
0.937241
0.932475
0.930957
0.933312
0.938945
0.944028
0.942731
0.939626
0.937258
0.937246
0.939205
0.942867
0.94529
0.948042
0.954523
0.967224
0.987282
1.00736
1.0252
1.03498
1.03887
1.04515
1.0532
1.06368
1.07012
1.07363
1.07961
1.08391
1.08525
1.08611
1.08657
1.08687
1.08741
1.08727
1.0883
1.08829
0.399268
0.399266
0.399264
0.399262
0.39926
0.399257
0.399253
0.399249
0.399246
0.399242
0.399238
0.399231
0.399221
0.399208
0.399189
0.39917
0.399157
0.399149
0.399146
0.399147
0.399152
0.399162
0.399198
0.399191
0.399177
0.399161
0.399146
0.399141
0.399152
0.399203
0.399329
0.399605
0.400202
0.401494
0.403833
0.408677
0.416619
0.431469
0.45254
0.485634
0.525928
0.577666
0.633532
0.69378
0.751363
0.808619
0.855928
0.893531
0.911353
0.925123
0.933719
0.940889
0.940464
0.936152
0.923504
0.917849
0.921125
0.926833
0.936259
0.943419
0.946801
0.947143
0.942971
0.934604
0.929883
0.929235
0.932531
0.939782
0.943849
0.943792
0.940723
0.936152
0.935871
0.938437
0.941817
0.944226
0.944695
0.947102
0.954152
0.967941
0.986976
1.00663
1.02562
1.03434
1.0384
1.04499
1.05396
1.06439
1.07026
1.07351
1.0799
1.08395
1.08508
1.08595
1.08659
1.08718
1.08782
1.08756
1.08837
1.08855
0.399293
0.39929
0.399287
0.399284
0.39928
0.399276
0.399273
0.39927
0.399267
0.399264
0.39926
0.399256
0.399249
0.399241
0.399234
0.399226
0.39922
0.399213
0.399208
0.399201
0.399195
0.39919
0.399186
0.399185
0.399178
0.399168
0.399158
0.39915
0.399147
0.399152
0.399165
0.399219
0.399203
0.399188
0.399181
0.399193
0.399253
0.399433
0.399911
0.401171
0.403962
0.410001
0.421975
0.441526
0.476039
0.51907
0.580297
0.644312
0.709077
0.768467
0.809675
0.849874
0.869665
0.888711
0.897303
0.917195
0.933388
0.947895
0.955148
0.954476
0.952443
0.940764
0.926961
0.926011
0.927427
0.933366
0.941407
0.947501
0.946359
0.939697
0.933769
0.934016
0.93762
0.942105
0.944118
0.944175
0.944207
0.946817
0.955033
0.968974
0.985604
1.00508
1.02603
1.0345
1.03984
1.04743
1.0572
1.06644
1.07043
1.07324
1.08018
1.08391
1.08493
1.08598
1.08707
1.08797
1.08868
1.08847
1.08871
1.08871
0.399314
0.39931
0.399306
0.3993
0.399294
0.399289
0.399285
0.399281
0.399278
0.399274
0.39927
0.399264
0.399259
0.399254
0.399248
0.399243
0.399237
0.399231
0.399225
0.399219
0.399213
0.39921
0.399209
0.399208
0.399207
0.399203
0.399201
0.399197
0.399193
0.399188
0.399185
0.399183
0.399185
0.39919
0.399194
0.399197
0.399206
0.399241
0.399249
0.399257
0.399279
0.399329
0.399467
0.399861
0.401063
0.403783
0.411233
0.425028
0.453947
0.495356
0.556354
0.626611
0.703259
0.781398
0.847942
0.901527
0.922107
0.936773
0.945237
0.944917
0.936326
0.916012
0.919055
0.927555
0.938625
0.945567
0.946558
0.945662
0.93907
0.931376
0.931697
0.936162
0.942923
0.944618
0.944035
0.940798
0.941528
0.946579
0.956843
0.969592
0.984732
1.00405
1.02681
1.03497
1.04231
1.05129
1.06088
1.06821
1.07049
1.0732
1.0804
1.08384
1.08486
1.08611
1.08749
1.08858
1.0893
1.08917
1.08908
1.08886
0.39929
0.399287
0.399285
0.399282
0.399278
0.399274
0.39927
0.399265
0.399262
0.399259
0.399255
0.399244
0.399235
0.399227
0.39922
0.399215
0.399209
0.399201
0.399193
0.399186
0.399175
0.399163
0.399155
0.399148
0.399143
0.399139
0.399137
0.399136
0.399136
0.399137
0.399137
0.399136
0.399137
0.399139
0.399145
0.399153
0.399166
0.39918
0.399202
0.399232
0.399267
0.399301
0.399351
0.399362
0.399378
0.3994
0.399453
0.399623
0.400293
0.40219
0.408172
0.420695
0.449848
0.494013
0.567104
0.647836
0.726918
0.797135
0.841193
0.875574
0.89263
0.90596
0.933916
0.94839
0.955486
0.954024
0.949257
0.935922
0.928648
0.929215
0.935053
0.945012
0.946919
0.945309
0.939507
0.937901
0.940748
0.948962
0.959074
0.97016
0.98215
1.0036
1.02798
1.03771
1.04606
1.05492
1.06362
1.06861
1.06998
1.07326
1.0805
1.08373
1.08484
1.0864
1.08802
1.08924
1.08994
1.08982
1.08951
1.08895
0.399277
0.399275
0.399272
0.39927
0.399268
0.399265
0.399261
0.399256
0.399251
0.399246
0.399245
0.39924
0.39923
0.39922
0.399211
0.399205
0.399198
0.399188
0.399183
0.399174
0.399153
0.399122
0.399106
0.399097
0.399092
0.399087
0.399083
0.39908
0.399078
0.399078
0.399078
0.399078
0.399081
0.399089
0.399102
0.39912
0.399141
0.399163
0.399188
0.399215
0.399243
0.399272
0.399302
0.399331
0.399357
0.399378
0.399396
0.399398
0.399377
0.399327
0.399333
0.399445
0.400079
0.402113
0.409644
0.426421
0.466762
0.526066
0.613142
0.704986
0.803006
0.878076
0.922695
0.937908
0.947016
0.944755
0.926305
0.922834
0.928364
0.937715
0.945684
0.947735
0.946037
0.938256
0.934311
0.936713
0.945519
0.95159
0.959242
0.967118
0.980829
1.00442
1.02974
1.04205
1.0488
1.05696
1.06443
1.0685
1.06909
1.07359
1.0808
1.08378
1.08516
1.08678
1.08835
1.0895
1.09028
1.09026
1.08979
1.08896
0.399327
0.399324
0.399321
0.399318
0.399317
0.399312
0.399304
0.399296
0.399289
0.399284
0.399283
0.39928
0.39927
0.399261
0.399255
0.399247
0.399237
0.399226
0.399217
0.399208
0.399197
0.399174
0.399154
0.399148
0.399144
0.399136
0.399127
0.399122
0.399118
0.399116
0.399115
0.399115
0.399121
0.399131
0.399141
0.399154
0.399168
0.399188
0.399209
0.399228
0.399248
0.399272
0.399294
0.399306
0.399318
0.399334
0.399341
0.399328
0.399302
0.399269
0.399225
0.399158
0.399077
0.399049
0.399084
0.399317
0.40051
0.404706
0.41819
0.450393
0.510579
0.603207
0.702103
0.781099
0.848217
0.881312
0.892602
0.92558
0.942385
0.954917
0.953698
0.948662
0.934597
0.93104
0.933712
0.943145
0.950706
0.953174
0.954369
0.962968
0.980714
1.00757
1.03128
1.04498
1.05026
1.05444
1.06035
1.0645
1.06846
1.0749
1.08222
1.08487
1.08646
1.08798
1.08928
1.09016
1.09076
1.09057
1.08996
1.08896
0.399335
0.399332
0.399329
0.399327
0.399327
0.399322
0.399318
0.399317
0.399315
0.39931
0.399309
0.399309
0.399303
0.399297
0.399293
0.399288
0.399282
0.399279
0.399279
0.399276
0.399269
0.399258
0.399252
0.399251
0.39925
0.399249
0.399248
0.399244
0.399242
0.399239
0.399233
0.399228
0.399229
0.39923
0.399228
0.399231
0.39924
0.399252
0.399263
0.399277
0.399299
0.399318
0.399328
0.399331
0.399333
0.399345
0.399352
0.399338
0.399313
0.399287
0.399255
0.3992
0.39911
0.399039
0.399021
0.399018
0.399028
0.399072
0.399264
0.400147
0.403427
0.416972
0.4474
0.516518
0.60961
0.723513
0.826118
0.908189
0.931546
0.94768
0.943138
0.926554
0.922043
0.931696
0.944916
0.951889
0.951763
0.946055
0.947883
0.95975
0.984394
1.01031
1.03368
1.04213
1.04346
1.0488
1.05592
1.0626
1.06882
1.07743
1.08249
1.0846
1.08641
1.08788
1.08859
1.08914
1.08971
1.09011
1.09001
1.08968
0.399267
0.399267
0.399267
0.399266
0.399265
0.399265
0.399267
0.39927
0.399272
0.399272
0.399271
0.399272
0.399274
0.399277
0.399281
0.399286
0.399295
0.399304
0.39931
0.399318
0.399327
0.399336
0.399345
0.399358
0.399374
0.399382
0.399382
0.399379
0.399374
0.399363
0.399347
0.399329
0.399309
0.399289
0.399272
0.399263
0.399256
0.399251
0.399253
0.399265
0.399283
0.399298
0.399307
0.399315
0.399326
0.399347
0.399368
0.399362
0.399349
0.399338
0.399318
0.399281
0.399218
0.399136
0.399072
0.399049
0.399049
0.39906
0.399101
0.399172
0.399259
0.399432
0.400174
0.404113
0.417976
0.457715
0.542297
0.650267
0.75024
0.84491
0.868049
0.899108
0.921968
0.9535
0.959805
0.956657
0.940735
0.938955
0.94605
0.965626
0.986927
1.01175
1.03036
1.03787
1.04087
1.04733
1.05605
1.0635
1.07141
1.07991
1.08254
1.08481
1.08664
1.08796
1.08829
1.08873
1.08934
1.09011
1.09003
1.08948
0.399206
0.399208
0.399209
0.39921
0.399215
0.399221
0.399226
0.39923
0.399235
0.399241
0.399248
0.399257
0.399267
0.399277
0.399288
0.3993
0.399315
0.399329
0.399344
0.399361
0.399379
0.399396
0.399414
0.399436
0.399456
0.399464
0.399464
0.399462
0.399454
0.399438
0.399415
0.399387
0.399354
0.399315
0.399279
0.399252
0.399235
0.399224
0.399217
0.399213
0.399208
0.399202
0.399197
0.399198
0.399208
0.399233
0.399266
0.399294
0.399317
0.399346
0.399355
0.39934
0.399303
0.399245
0.399172
0.399107
0.399073
0.39906
0.399058
0.399081
0.399163
0.399269
0.399294
0.39931
0.399458
0.400514
0.407102
0.427423
0.49169
0.589623
0.711964
0.844541
0.908197
0.944539
0.949403
0.937285
0.921808
0.934188
0.956318
0.973128
0.985881
1.00351
1.0281
1.03729
1.04155
1.04863
1.05808
1.06755
1.07454
1.07914
1.08201
1.08511
1.0869
1.08798
1.08835
1.08872
1.08949
1.09049
1.09078
1.08974
0.399215
0.39922
0.399223
0.399226
0.399233
0.399239
0.399242
0.399245
0.399251
0.399259
0.399266
0.399274
0.399283
0.399293
0.399305
0.399319
0.399334
0.399349
0.399366
0.399386
0.399404
0.399422
0.399446
0.399468
0.39948
0.39949
0.399495
0.39949
0.399477
0.39946
0.39944
0.399414
0.399378
0.399333
0.399288
0.399243
0.399201
0.399167
0.399149
0.399138
0.399124
0.399104
0.399094
0.399088
0.399088
0.399101
0.39914
0.399203
0.399274
0.399337
0.399376
0.399372
0.399348
0.399306
0.399248
0.399172
0.399084
0.39902
0.399004
0.399007
0.399049
0.399158
0.399278
0.399343
0.399335
0.39928
0.399285
0.399567
0.402378
0.413695
0.459665
0.542872
0.668428
0.791734
0.852676
0.890265
0.919434
0.95472
0.972758
0.977108
0.974639
0.996227
1.02829
1.03817
1.04359
1.05283
1.06686
1.07323
1.07734
1.07793
1.08205
1.08523
1.08685
1.08785
1.08862
1.08905
1.08989
1.09053
1.09052
1.09038
0.399257
0.39926
0.399263
0.399267
0.399275
0.399279
0.399281
0.399283
0.399287
0.399291
0.399296
0.399302
0.399308
0.399316
0.399327
0.399339
0.399351
0.399364
0.399379
0.399396
0.399411
0.399428
0.399446
0.399459
0.399468
0.399477
0.399488
0.399483
0.399466
0.399451
0.399438
0.399418
0.399387
0.39935
0.399309
0.399268
0.399229
0.399193
0.399159
0.399134
0.399112
0.399082
0.39905
0.399037
0.39903
0.39903
0.399053
0.399125
0.399226
0.399315
0.399374
0.399382
0.399362
0.399321
0.399271
0.399206
0.399112
0.399007
0.398963
0.398963
0.398988
0.399073
0.399223
0.399339
0.399361
0.399347
0.399269
0.399166
0.399158
0.399277
0.400642
0.407052
0.44145
0.513675
0.640881
0.792217
0.897091
0.937568
0.96482
0.951652
0.960754
0.996495
1.03221
1.03929
1.04748
1.06306
1.07448
1.07704
1.07492
1.07715
1.08293
1.0857
1.087
1.08821
1.0898
1.09052
1.09085
1.09084
1.09064
1.09022
0.399281
0.39928
0.399279
0.39928
0.39928
0.399278
0.399277
0.399278
0.39928
0.399281
0.399284
0.399289
0.399295
0.399302
0.399311
0.39932
0.39933
0.399342
0.399358
0.399374
0.39939
0.399408
0.399423
0.399434
0.399443
0.399459
0.399477
0.39947
0.399453
0.399447
0.399441
0.399421
0.399388
0.399355
0.399332
0.399314
0.399299
0.39928
0.399254
0.399218
0.399178
0.399127
0.399063
0.399027
0.399016
0.399012
0.399021
0.399072
0.399166
0.399268
0.399357
0.399386
0.399368
0.399325
0.399283
0.399238
0.399169
0.39906
0.398973
0.398965
0.398987
0.399055
0.399178
0.39932
0.399362
0.39935
0.399289
0.399177
0.399128
0.399122
0.399149
0.399269
0.400132
0.404591
0.43134
0.499557
0.62777
0.752074
0.862438
0.905287
0.960022
1.01422
1.03705
1.03937
1.0507
1.07253
1.0788
1.07417
1.0726
1.07763
1.08411
1.08607
1.08721
1.08935
1.09211
1.09274
1.09238
1.09142
1.0909
1.0903
0.399269
0.399265
0.399261
0.399255
0.399248
0.399239
0.399231
0.399223
0.399212
0.399202
0.399198
0.399196
0.399194
0.399192
0.399191
0.399192
0.399198
0.399207
0.39922
0.399237
0.39926
0.399284
0.399305
0.399325
0.399342
0.39936
0.399378
0.399391
0.399396
0.3994
0.399394
0.399376
0.399346
0.399339
0.399346
0.399371
0.399396
0.399404
0.399401
0.399376
0.399329
0.399269
0.399192
0.399107
0.399038
0.399005
0.399001
0.399019
0.399065
0.399126
0.399202
0.399285
0.399317
0.399304
0.399289
0.399285
0.399263
0.399195
0.399085
0.39903
0.399038
0.399071
0.399154
0.399279
0.399359
0.399351
0.39929
0.399185
0.399137
0.399135
0.399161
0.399288
0.399494
0.39965
0.40023
0.403665
0.425923
0.491862
0.616473
0.796537
0.929887
1.00851
1.01476
1.02493
1.05146
1.07412
1.07034
1.06855
1.07304
1.08193
1.08528
1.08649
1.08804
1.09149
1.09417
1.094
1.09323
1.09184
1.09111
1.09058
0.399236
0.39922
0.399205
0.399191
0.399175
0.399159
0.399142
0.399125
0.39911
0.399098
0.399086
0.399072
0.399063
0.399061
0.399061
0.399063
0.39907
0.399081
0.399094
0.399111
0.399129
0.399141
0.399152
0.399165
0.399182
0.399199
0.399216
0.399238
0.39927
0.399307
0.399318
0.399317
0.399321
0.39934
0.399381
0.399451
0.39951
0.399525
0.399525
0.399513
0.39947
0.399404
0.399316
0.399202
0.399092
0.399017
0.398964
0.398948
0.398954
0.398976
0.399016
0.399086
0.399155
0.399211
0.399273
0.399326
0.399336
0.399321
0.399256
0.399159
0.399112
0.39911
0.399135
0.39921
0.399296
0.399308
0.399276
0.399205
0.399192
0.399213
0.399293
0.399436
0.399643
0.399763
0.399768
0.399781
0.40012
0.403229
0.423192
0.505758
0.654097
0.865089
0.944823
1.02061
1.06199
1.06074
1.0594
1.06747
1.08013
1.08621
1.08631
1.08708
1.09039
1.09397
1.09542
1.09357
1.09235
1.09195
1.09152
1.0912
0.399226
0.399205
0.399184
0.399163
0.399143
0.399123
0.399104
0.399087
0.399074
0.399063
0.399052
0.399042
0.399031
0.399023
0.399023
0.399031
0.399044
0.399056
0.399071
0.399093
0.399112
0.399113
0.399103
0.399095
0.399093
0.399097
0.399105
0.399114
0.399133
0.399171
0.399221
0.399261
0.399294
0.399338
0.399401
0.399485
0.39956
0.399581
0.399581
0.399569
0.399527
0.39946
0.399364
0.399219
0.399087
0.398998
0.398924
0.398893
0.398895
0.398909
0.398936
0.398995
0.399049
0.399105
0.399204
0.399322
0.399364
0.399362
0.399328
0.399241
0.399147
0.399116
0.399114
0.399132
0.399182
0.399227
0.399229
0.399249
0.399305
0.399393
0.399484
0.399604
0.399741
0.399767
0.399765
0.39972
0.399569
0.399448
0.399772
0.404346
0.438143
0.559667
0.79132
1.00052
1.04802
1.03956
1.05591
1.07954
1.08606
1.08496
1.08439
1.08768
1.09266
1.09581
1.09272
1.08984
1.09033
1.0919
1.09234
1.09207
0.399286
0.399269
0.399252
0.399234
0.399217
0.399201
0.399187
0.399175
0.399166
0.399158
0.399155
0.399153
0.399155
0.399157
0.399153
0.399152
0.399168
0.39919
0.399192
0.399188
0.399174
0.399147
0.399122
0.399113
0.399115
0.399108
0.399079
0.39904
0.399019
0.399018
0.399049
0.399119
0.399201
0.399283
0.399352
0.399407
0.399481
0.399539
0.399557
0.399561
0.399538
0.399468
0.399357
0.399159
0.399047
0.399036
0.399016
0.39897
0.398937
0.398923
0.398928
0.398989
0.399032
0.399057
0.399138
0.399274
0.399355
0.399358
0.399321
0.399236
0.399144
0.399099
0.399091
0.39909
0.399109
0.399155
0.399225
0.399326
0.399478
0.39958
0.399629
0.3997
0.399746
0.399742
0.399679
0.399558
0.399289
0.399191
0.399228
0.399321
0.400465
0.411793
0.50318
0.726403
0.936818
1.00523
1.08151
1.09491
1.08898
1.0812
1.08474
1.09075
1.09479
1.09292
1.09035
1.08941
1.09022
1.0923
1.09328
1.0927
0.39946
0.399458
0.399458
0.399457
0.399451
0.399444
0.399438
0.399436
0.399433
0.399417
0.399406
0.399408
0.399405
0.399403
0.399416
0.399426
0.399428
0.399429
0.399423
0.399406
0.399369
0.399328
0.399284
0.399203
0.399128
0.399109
0.399086
0.399011
0.398918
0.398886
0.398884
0.398905
0.398977
0.399048
0.399072
0.3991
0.399186
0.399304
0.399353
0.399393
0.399407
0.399367
0.399269
0.399142
0.399106
0.399123
0.39918
0.399184
0.399178
0.399128
0.399053
0.399034
0.399037
0.399036
0.399071
0.399183
0.399297
0.399312
0.399271
0.399191
0.399119
0.399079
0.399079
0.399091
0.399114
0.399183
0.39929
0.399444
0.399589
0.399657
0.399691
0.399719
0.399705
0.399618
0.399478
0.399291
0.399111
0.399116
0.399177
0.399333
0.399579
0.400052
0.406232
0.461029
0.673822
0.91299
1.0669
1.07893
1.0669
1.08025
1.09116
1.09322
1.09193
1.09038
1.09058
1.08986
1.09178
1.09354
1.09422
1.09366
0.399609
0.399608
0.399614
0.39962
0.399615
0.399617
0.399632
0.399638
0.399639
0.399631
0.39961
0.399596
0.399586
0.399574
0.399561
0.399552
0.399544
0.399534
0.399515
0.399489
0.399438
0.399383
0.399363
0.399333
0.39927
0.399194
0.399106
0.398946
0.398784
0.398735
0.398728
0.398733
0.398791
0.398834
0.398842
0.398879
0.399001
0.399147
0.399207
0.399243
0.399284
0.399274
0.399193
0.399128
0.399118
0.399148
0.399245
0.399296
0.399316
0.399321
0.399261
0.399157
0.399072
0.399023
0.399003
0.399032
0.399108
0.399163
0.39914
0.399114
0.399102
0.399117
0.399158
0.399242
0.399348
0.399404
0.399458
0.399538
0.399604
0.399661
0.399693
0.399676
0.399583
0.399404
0.399244
0.399093
0.399076
0.399107
0.399272
0.399582
0.399853
0.400192
0.400558
0.403952
0.440314
0.602757
0.862614
0.982147
1.04153
1.09855
1.09972
1.09563
1.08992
1.09133
1.09407
1.09641
1.09744
1.09593
1.09479
1.09309
0.399592
0.399586
0.399581
0.399581
0.399583
0.399596
0.399615
0.399623
0.39963
0.399629
0.399619
0.399602
0.399584
0.399563
0.399533
0.399519
0.39952
0.399508
0.399466
0.399454
0.399441
0.399417
0.399394
0.399373
0.399333
0.399243
0.399133
0.399026
0.398879
0.398739
0.398685
0.398682
0.398737
0.398778
0.398799
0.398861
0.398995
0.399116
0.399162
0.399175
0.399198
0.399222
0.399188
0.399119
0.399093
0.399113
0.399212
0.399287
0.399297
0.399315
0.399297
0.399204
0.399079
0.398981
0.398935
0.398911
0.398928
0.398981
0.399005
0.399033
0.399159
0.399295
0.399368
0.399484
0.399597
0.3996
0.399581
0.39957
0.399585
0.399613
0.399599
0.399516
0.399328
0.399194
0.399091
0.399079
0.399088
0.399221
0.399505
0.399775
0.400002
0.400198
0.400397
0.401115
0.403946
0.429175
0.536581
0.782354
0.986621
1.08851
1.08541
1.08366
1.08782
1.09521
1.10153
1.10296
1.10146
1.09818
1.09578
1.09301
0.399228
0.39922
0.399201
0.399181
0.399176
0.399176
0.399181
0.399201
0.399216
0.399214
0.399205
0.399199
0.399193
0.39919
0.399194
0.399217
0.399283
0.399313
0.399325
0.399374
0.399401
0.399384
0.399373
0.399393
0.399397
0.399351
0.399246
0.399185
0.399144
0.399092
0.399072
0.399083
0.399141
0.399184
0.399223
0.399258
0.399302
0.399314
0.399298
0.399241
0.399181
0.399178
0.399189
0.399135
0.39903
0.39901
0.399065
0.399167
0.399199
0.399232
0.399241
0.399172
0.399071
0.398973
0.398929
0.398885
0.398857
0.398906
0.398986
0.399085
0.399308
0.39949
0.399514
0.399605
0.399689
0.399672
0.399595
0.399547
0.399487
0.399401
0.399307
0.399148
0.399062
0.399063
0.399072
0.399128
0.39927
0.399498
0.399688
0.399888
0.400052
0.400039
0.400169
0.400674
0.402595
0.408358
0.424666
0.504852
0.682156
0.910567
0.988698
1.07274
1.08927
1.10263
1.10599
1.1053
1.09758
1.09588
1.09516
1.09341
0.398669
0.398665
0.398666
0.398674
0.398674
0.398672
0.398676
0.398709
0.398751
0.398775
0.398796
0.398856
0.398921
0.398967
0.399063
0.399145
0.399161
0.399207
0.399276
0.39928
0.39931
0.399404
0.399473
0.399523
0.399563
0.399568
0.399552
0.399489
0.399414
0.399397
0.399402
0.39942
0.399457
0.399533
0.399573
0.399548
0.399544
0.399551
0.399494
0.399363
0.399213
0.399102
0.399035
0.39897
0.39882
0.398714
0.398715
0.398761
0.398841
0.39895
0.399093
0.399179
0.399137
0.399062
0.39909
0.399105
0.399104
0.399224
0.399374
0.399449
0.399548
0.399596
0.39959
0.399648
0.399688
0.399653
0.399556
0.399412
0.399219
0.399056
0.398916
0.398856
0.398915
0.399005
0.399201
0.399438
0.399644
0.399753
0.399785
0.399926
0.399883
0.399785
0.399864
0.400394
0.402068
0.406968
0.418759
0.436744
0.481171
0.595073
0.806041
1.02354
1.06359
1.09219
1.10037
1.09151
1.08697
1.09513
1.09575
1.09434
0.398472
0.398472
0.398477
0.398492
0.398512
0.398528
0.398543
0.39857
0.398609
0.398664
0.398745
0.39881
0.398887
0.398996
0.399088
0.399148
0.399257
0.399352
0.399355
0.399373
0.399485
0.399613
0.399688
0.399738
0.39976
0.399757
0.399726
0.399626
0.399523
0.399496
0.399476
0.399468
0.399486
0.399554
0.399561
0.399533
0.399569
0.399574
0.39949
0.399345
0.399198
0.399066
0.39891
0.398809
0.398686
0.398488
0.398431
0.398443
0.398524
0.398704
0.398954
0.39919
0.399327
0.399371
0.399378
0.399358
0.399441
0.399704
0.399781
0.399773
0.399726
0.399647
0.399634
0.399611
0.399537
0.399408
0.399277
0.399115
0.398937
0.39881
0.398736
0.398757
0.398897
0.399208
0.399597
0.39977
0.399857
0.39983
0.399775
0.399645
0.39946
0.399455
0.399596
0.400219
0.401837
0.406204
0.416083
0.433095
0.451907
0.473983
0.549345
0.712862
0.884585
1.03538
1.06995
1.06792
1.08523
1.10034
1.09782
1.09592
0.398772
0.398744
0.398668
0.398636
0.398635
0.39862
0.398595
0.39859
0.398601
0.398645
0.398735
0.398832
0.399012
0.399148
0.399145
0.399137
0.399157
0.399222
0.399304
0.399355
0.399353
0.399334
0.399324
0.399357
0.39938
0.399342
0.39932
0.399341
0.399304
0.399228
0.399201
0.399234
0.399269
0.399124
0.399019
0.399055
0.399075
0.398935
0.398871
0.398919
0.398938
0.398909
0.39872
0.398629
0.39865
0.398525
0.398362
0.398344
0.398428
0.398729
0.399088
0.399365
0.399496
0.399526
0.39946
0.39942
0.39961
0.399881
0.399912
0.399894
0.399804
0.399596
0.399295
0.399055
0.398898
0.398835
0.398815
0.398798
0.398775
0.398745
0.398747
0.398836
0.399198
0.399638
0.399926
0.399958
0.399927
0.399793
0.399489
0.399142
0.399097
0.399187
0.399514
0.400414
0.402173
0.405678
0.413265
0.428088
0.448231
0.466226
0.479754
0.509057
0.636021
0.838295
1.00518
1.05122
1.10378
1.10711
1.1001
1.09725
0.399138
0.399096
0.39907
0.399031
0.398978
0.398951
0.398909
0.398832
0.398812
0.398811
0.398781
0.39868
0.398602
0.398607
0.398662
0.398635
0.39858
0.398622
0.398621
0.398583
0.398636
0.398697
0.398697
0.398683
0.398707
0.398701
0.398679
0.398716
0.398668
0.398576
0.398612
0.398578
0.398273
0.397635
0.397444
0.397458
0.397512
0.397647
0.397909
0.398234
0.398521
0.398626
0.398689
0.398878
0.399266
0.399342
0.39915
0.398923
0.398819
0.398892
0.399169
0.399385
0.399404
0.399344
0.399204
0.399185
0.399379
0.399613
0.399651
0.399633
0.399434
0.398965
0.398511
0.398291
0.398265
0.398279
0.398369
0.398542
0.398716
0.398706
0.398811
0.39917
0.399581
0.399804
0.399975
0.39995
0.399782
0.399368
0.398887
0.398787
0.398851
0.399079
0.399772
0.400975
0.402569
0.405338
0.410932
0.422494
0.442616
0.463686
0.477474
0.482308
0.496888
0.55918
0.750462
0.962609
1.08879
1.08961
1.09001
1.09897
0.399402
0.399439
0.399456
0.399446
0.399334
0.399252
0.399261
0.399244
0.399166
0.3991
0.398983
0.398786
0.398659
0.398496
0.398227
0.397934
0.397841
0.397845
0.397899
0.398016
0.398175
0.398309
0.398408
0.398487
0.398503
0.398502
0.398544
0.39852
0.398507
0.398641
0.398767
0.398701
0.398263
0.397444
0.397136
0.397101
0.39717
0.397483
0.397993
0.398644
0.399176
0.399418
0.399569
0.399832
0.400194
0.400174
0.399813
0.399648
0.399741
0.399923
0.399952
0.399777
0.399346
0.39889
0.398657
0.398609
0.398634
0.398771
0.398828
0.398785
0.398618
0.398313
0.398006
0.3979
0.397898
0.397962
0.398113
0.398361
0.398613
0.399003
0.399398
0.399677
0.399753
0.399718
0.399516
0.399277
0.398941
0.39854
0.398472
0.398551
0.398715
0.399365
0.400402
0.401444
0.402643
0.404569
0.40854
0.418013
0.436042
0.458489
0.47612
0.482335
0.484839
0.490436
0.532212
0.675976
0.905865
1.00067
1.07737
1.10478
0.398972
0.399054
0.399064
0.39904
0.39904
0.399066
0.39921
0.399322
0.399318
0.399165
0.399108
0.399144
0.399044
0.398729
0.398282
0.397874
0.397775
0.397779
0.397813
0.397915
0.398134
0.398493
0.398677
0.398772
0.398969
0.399371
0.399488
0.399539
0.399775
0.400209
0.400399
0.400374
0.39997
0.399037
0.398668
0.398552
0.398415
0.398486
0.39909
0.400165
0.400297
0.400213
0.400122
0.400158
0.400437
0.40045
0.400084
0.399793
0.399807
0.400055
0.400105
0.399775
0.398963
0.398388
0.398253
0.39822
0.398219
0.398317
0.398368
0.398296
0.398174
0.398032
0.397864
0.397804
0.397825
0.397963
0.398358
0.398921
0.399422
0.399779
0.39988
0.399828
0.399569
0.398967
0.398502
0.398285
0.398102
0.398119
0.398184
0.398382
0.399139
0.400068
0.400799
0.401396
0.402005
0.403343
0.406479
0.41417
0.430034
0.451267
0.472285
0.482407
0.48504
0.48748
0.491319
0.515381
0.616359
0.836056
1.0328
1.09541
0.401003
0.401151
0.401305
0.40146
0.401643
0.401907
0.402159
0.402207
0.402187
0.40222
0.402276
0.402226
0.402168
0.402156
0.402076
0.401697
0.401215
0.401114
0.401111
0.401287
0.40176
0.402292
0.402793
0.403322
0.403705
0.4039
0.403928
0.403951
0.40402
0.404084
0.404194
0.404212
0.403764
0.402687
0.401877
0.401413
0.401208
0.401319
0.401845
0.402011
0.401855
0.40135
0.401009
0.400886
0.400789
0.400748
0.400703
0.400744
0.400815
0.400819
0.400405
0.399704
0.398996
0.398545
0.398414
0.398452
0.398531
0.39859
0.398567
0.398537
0.398587
0.398672
0.398902
0.399178
0.399428
0.399715
0.39996
0.400035
0.400099
0.400098
0.399952
0.39954
0.398927
0.398294
0.39811
0.398083
0.398061
0.398217
0.398744
0.399634
0.400464
0.400694
0.400856
0.400753
0.401036
0.402296
0.405286
0.411683
0.424698
0.44393
0.465388
0.480218
0.485915
0.488531
0.491456
0.494251
0.505628
0.583776
0.760286
0.991114
0.409539
0.409536
0.409496
0.409379
0.409045
0.408698
0.408674
0.408789
0.408771
0.40845
0.408304
0.408342
0.408342
0.408194
0.407831
0.407299
0.406604
0.406094
0.405998
0.406043
0.406237
0.40647
0.406609
0.406754
0.406853
0.40678
0.4064
0.406021
0.405601
0.405364
0.405359
0.405285
0.40487
0.404235
0.403759
0.403296
0.402698
0.402518
0.40248
0.402164
0.401473
0.400978
0.400874
0.400903
0.400922
0.400848
0.40077
0.40086
0.400828
0.400627
0.400511
0.400224
0.400174
0.400174
0.400298
0.400731
0.400967
0.401001
0.400873
0.400779
0.400884
0.401307
0.401895
0.40232
0.402387
0.402245
0.401787
0.400876
0.399974
0.399384
0.398926
0.398689
0.398446
0.398139
0.39814
0.398323
0.398864
0.399824
0.400775
0.401364
0.401194
0.400807
0.400057
0.399975
0.400442
0.401949
0.404964
0.410336
0.420397
0.436383
0.456899
0.475704
0.485534
0.489351
0.491289
0.493622
0.496423
0.504247
0.546393
0.802369
0.42143
0.421302
0.420828
0.42012
0.419388
0.41875
0.418247
0.417889
0.417754
0.417761
0.417813
0.417893
0.417975
0.418029
0.417994
0.417761
0.417148
0.416682
0.416274
0.415282
0.414518
0.41425
0.413823
0.412839
0.41236
0.412172
0.412076
0.412017
0.412046
0.412344
0.412403
0.412237
0.412145
0.41224
0.412621
0.412687
0.41266
0.412816
0.413173
0.413026
0.412891
0.413034
0.413038
0.412739
0.412133
0.41127
0.410281
0.409546
0.409212
0.409208
0.40952
0.410096
0.410522
0.410427
0.410367
0.410525
0.410581
0.410329
0.409354
0.40769
0.40654
0.406271
0.40618
0.406
0.405483
0.40464
0.403453
0.401954
0.400617
0.399835
0.399576
0.399701
0.400043
0.400804
0.40173
0.402613
0.403325
0.403139
0.402841
0.402182
0.401025
0.39991
0.399647
0.399858
0.400588
0.402528
0.406148
0.411217
0.418391
0.429721
0.446962
0.467928
0.483294
0.489448
0.49224
0.494489
0.496859
0.500102
0.503865
0.603292
0.446501
0.44627
0.44572
0.445404
0.445389
0.445394
0.444969
0.444194
0.443842
0.443845
0.444104
0.444259
0.444141
0.444141
0.444311
0.444395
0.444263
0.44367
0.443625
0.443749
0.443469
0.442706
0.441656
0.440812
0.440586
0.44042
0.440126
0.439729
0.439296
0.43874
0.437692
0.437015
0.437016
0.436933
0.436494
0.435767
0.434989
0.434425
0.43419
0.434197
0.434261
0.434082
0.433438
0.432454
0.431484
0.430442