/*--------------------------------*- C++ -*----------------------------------*\
  =========                 |
  \\      /  F ield         | OpenFOAM: The Open Source CFD Toolbox
   \\    /   O peration     | Website:  https://openfoam.org
    \\  /    A nd           | Version:  7
     \\/     M anipulation  |
\*---------------------------------------------------------------------------*/
FoamFile
{
    version     2.0;
    format      ascii;
    class       volScalarField;
    location    "2";
    object      rho;
}
// * * * * * * * * * * * * * * * * * * * * * * * * * * * * * * * * * * * * * //

dimensions      [1 -3 0 0 0 0 0];

internalField   nonuniform List<scalar> 
90000
(
0.741179
0.76791
0.797767
0.82825
0.85909
0.889615
0.920134
0.950199
0.98002
1.00901
1.03718
1.06409
1.09009
1.11415
1.13767
1.1584
1.17893
1.19643
1.21361
1.22813
1.24231
1.25387
1.2652
1.27391
1.28246
1.28895
1.29539
1.30013
1.30397
1.3069
1.30771
1.3064
1.30316
1.29625
1.28607
1.27586
1.26436
1.26279
1.26537
1.2698
1.2752
1.28043
1.28511
1.2892
1.29228
1.29503
1.29667
1.29587
1.29348
1.28885
1.28476
1.28066
1.28102
1.28232
1.28546
1.29051
1.29661
1.29915
1.29806
1.2946
1.29032
1.28718
1.28851
1.29225
1.29643
1.30018
1.29996
1.29789
1.2943
1.29401
1.29598
1.29901
1.30058
1.30083
1.29992
1.30013
1.30232
1.30776
1.31633
1.32918
1.34567
1.36534
1.38374
1.39372
1.39862
1.40408
1.40962
1.41709
1.42579
1.43043
1.43612
1.44163
1.44428
1.44605
1.44715
1.44735
1.4479
1.44888
1.45141
1.45344
0.72039
0.720479
0.72074
0.721301
0.722343
0.723987
0.72658
0.730224
0.735455
0.742258
0.751293
0.762401
0.776208
0.792587
0.811505
0.833767
0.857751
0.885454
0.914009
0.945364
0.977015
1.0096
1.04194
1.07304
1.10286
1.12987
1.15424
1.17455
1.19431
1.20799
1.22172
1.2312
1.24021
1.2455
1.2496
1.25466
1.26671
1.27625
1.28465
1.29
1.29459
1.29662
1.29811
1.29818
1.29765
1.29683
1.29524
1.2902
1.2851
1.28214
1.28248
1.28415
1.28696
1.29235
1.29761
1.30112
1.30064
1.2983
1.29429
1.28965
1.2883
1.28901
1.29215
1.29639
1.30217
1.302
1.2996
1.29584
1.29495
1.29587
1.29867
1.30228
1.30226
1.30066
1.30052
1.30134
1.30427
1.30959
1.31729
1.32955
1.34707
1.36706
1.38459
1.39469
1.39844
1.40351
1.40913
1.41686
1.42596
1.43106
1.43757
1.44359
1.44625
1.44795
1.44883
1.44899
1.44955
1.45039
1.45246
1.45392
0.721249
0.721288
0.721325
0.721362
0.7214
0.72144
0.721482
0.721532
0.721598
0.721686
0.721808
0.721985
0.722292
0.722794
0.723566
0.724727
0.726364
0.728862
0.732348
0.737531
0.744526
0.754473
0.767072
0.784229
0.804508
0.83052
0.859735
0.894495
0.931719
0.973278
1.01563
1.05986
1.10375
1.14596
1.18906
1.22374
1.25249
1.26826
1.27981
1.28494
1.28992
1.29284
1.29481
1.29622
1.29493
1.29084
1.28208
1.27838
1.28078
1.28619
1.29275
1.3015
1.30822
1.3095
1.30829
1.30625
1.29892
1.29133
1.2893
1.28984
1.29157
1.29857
1.30629
1.30684
1.30593
1.30219
1.29811
1.29738
1.29852
1.30327
1.3063
1.30621
1.30407
1.30261
1.30307
1.30524
1.30908
1.313
1.31973
1.33185
1.35036
1.37026
1.38731
1.39674
1.39941
1.40388
1.40954
1.41807
1.42702
1.43276
1.44058
1.44676
1.44931
1.4508
1.45144
1.45168
1.45218
1.45241
1.45403
1.45491
0.722603
0.722644
0.72269
0.722732
0.722776
0.722819
0.722863
0.722911
0.722966
0.723028
0.723093
0.723177
0.723221
0.723263
0.723304
0.723349
0.723402
0.723468
0.723548
0.723649
0.723782
0.723969
0.724244
0.724756
0.725588
0.726962
0.729101
0.732688
0.73807
0.746845
0.759029
0.777621
0.801282
0.834204
0.873275
0.922523
0.974208
1.02869
1.08161
1.12783
1.16892
1.20044
1.2237
1.24662
1.25441
1.26469
1.26991
1.28241
1.29462
1.30798
1.3164
1.32153
1.32082
1.31896
1.31425
1.30104
1.29243
1.29048
1.29147
1.29675
1.30532
1.31455
1.31429
1.31218
1.30493
1.30052
1.29917
1.30151
1.30718
1.31217
1.31073
1.30757
1.30527
1.30534
1.30729
1.31095
1.31334
1.31605
1.32241
1.33477
1.35424
1.37378
1.39119
1.3997
1.40188
1.40608
1.41177
1.42107
1.42953
1.43568
1.44423
1.45039
1.45274
1.45403
1.4546
1.45486
1.45526
1.45509
1.45618
1.45656
0.724004
0.724036
0.724072
0.72411
0.724148
0.724186
0.724225
0.724264
0.724305
0.724345
0.724386
0.724424
0.72446
0.724493
0.724517
0.724543
0.724577
0.724619
0.724667
0.724722
0.724782
0.72485
0.724953
0.724998
0.725034
0.725067
0.725103
0.725151
0.725221
0.725341
0.725548
0.725949
0.726746
0.728399
0.731333
0.737302
0.746979
0.764766
0.789755
0.828281
0.874742
0.933418
0.995824
1.06196
1.12347
1.18331
1.23124
1.26866
1.28591
1.29913
1.30713
1.31358
1.31308
1.30866
1.29583
1.29011
1.29361
1.2994
1.30871
1.31552
1.31937
1.31905
1.31482
1.30637
1.30192
1.30094
1.30415
1.31135
1.31564
1.31525
1.31207
1.30768
1.30722
1.30972
1.31306
1.31539
1.31579
1.31813
1.32506
1.33852
1.35693
1.37612
1.39479
1.40215
1.40434
1.40854
1.41483
1.42451
1.43258
1.43869
1.44757
1.45338
1.45544
1.45665
1.45735
1.45779
1.45814
1.45768
1.45829
1.45842
0.725103
0.725121
0.72514
0.725159
0.725178
0.725197
0.725217
0.725239
0.72526
0.725281
0.725303
0.725322
0.72534
0.725357
0.725373
0.72539
0.725409
0.725427
0.725447
0.725464
0.725482
0.725503
0.725526
0.725552
0.725569
0.725582
0.725595
0.725611
0.725632
0.725663
0.725706
0.725807
0.725802
0.725804
0.725816
0.725854
0.725946
0.726192
0.726806
0.72839
0.731857
0.739263
0.75375
0.777085
0.817356
0.867017
0.935903
1.00725
1.07788
1.14186
1.18534
1.22699
1.24715
1.26636
1.27452
1.29377
1.30913
1.3232
1.33013
1.32928
1.32706
1.31504
1.30165
1.30019
1.30152
1.30729
1.31528
1.32119
1.32005
1.31336
1.30746
1.30756
1.31098
1.31539
1.31728
1.31725
1.31724
1.31976
1.32777
1.34142
1.35746
1.37659
1.39725
1.40434
1.40774
1.41279
1.41973
1.42901
1.43523
1.44092
1.45007
1.45534
1.45716
1.45848
1.45959
1.4603
1.46069
1.46024
1.46027
1.46011
0.725739
0.725744
0.725749
0.725753
0.725756
0.725761
0.725767
0.725773
0.725779
0.725786
0.725791
0.725795
0.7258
0.725805
0.72581
0.725814
0.725817
0.725821
0.725826
0.72583
0.725834
0.725843
0.725854
0.725866
0.725876
0.725883
0.725891
0.725897
0.725904
0.725909
0.725916
0.725923
0.725936
0.725952
0.725969
0.725985
0.726007
0.726064
0.726086
0.726109
0.726145
0.726217
0.726399
0.7269
0.728405
0.73178
0.740888
0.757567
0.791775
0.840106
0.9099
0.988928
1.07256
1.15559
1.22352
1.27701
1.29688
1.31138
1.3199
1.31964
1.31109
1.29097
1.29408
1.30256
1.31347
1.32066
1.32154
1.3205
1.31378
1.30603
1.30628
1.31059
1.31724
1.31886
1.31822
1.31482
1.31547
1.32039
1.33049
1.34294
1.35771
1.37669
1.39899
1.40576
1.41131
1.41775
1.4245
1.4325
1.43695
1.44233
1.45152
1.45636
1.45802
1.45951
1.46088
1.46178
1.46223
1.46195
1.46174
1.4614
0.725992
0.725993
0.725994
0.725994
0.725994
0.725993
0.725992
0.725991
0.72599
0.725991
0.72599
0.725981
0.725973
0.725968
0.725965
0.725963
0.725961
0.725956
0.725951
0.725947
0.72594
0.725931
0.725926
0.725924
0.725922
0.725923
0.725926
0.725931
0.725937
0.725944
0.725951
0.725956
0.725961
0.72597
0.725985
0.726002
0.726026
0.72605
0.726086
0.726134
0.726187
0.726237
0.726308
0.726331
0.726359
0.726393
0.726468
0.726689
0.727533
0.729898
0.737265
0.752481
0.787066
0.838536
0.920974
1.01067
1.09613
1.17073
1.21639
1.25159
1.26866
1.28187
1.30916
1.32361
1.33065
1.3292
1.32433
1.31095
1.30353
1.30402
1.30971
1.31969
1.32145
1.31977
1.31401
1.31201
1.3148
1.32293
1.3329
1.34377
1.35551
1.3766
1.40042
1.40888
1.41558
1.42182
1.42789
1.43385
1.43736
1.44295
1.45214
1.45666
1.45832
1.46012
1.46174
1.4628
1.46327
1.46311
1.46276
1.46217
0.726099
0.726098
0.726097
0.726095
0.726094
0.726092
0.726089
0.726085
0.726081
0.726077
0.726077
0.726075
0.726064
0.726054
0.726046
0.726041
0.726035
0.726026
0.726022
0.726014
0.72599
0.725953
0.725934
0.725925
0.725922
0.72592
0.725918
0.725919
0.725921
0.725926
0.72593
0.725934
0.72594
0.725955
0.725977
0.726006
0.726041
0.726078
0.726118
0.726163
0.726207
0.726251
0.726295
0.72634
0.726381
0.726414
0.726443
0.72645
0.72643
0.726381
0.726394
0.72654
0.727339
0.729876
0.739117
0.75941
0.80689
0.875495
0.973397
1.07373
1.17652
1.25205
1.2958
1.31102
1.32076
1.3187
1.30038
1.29719
1.30272
1.31212
1.32014
1.32193
1.3202
1.31239
1.30829
1.31059
1.31933
1.32528
1.33281
1.34057
1.35401
1.37724
1.40202
1.41313
1.41807
1.42345
1.4289
1.43416
1.43684
1.44338
1.45261
1.45679
1.45873
1.46064
1.46222
1.46321
1.46383
1.46377
1.46332
1.46254
0.726227
0.726225
0.726222
0.72622
0.726221
0.726217
0.726208
0.726201
0.726194
0.726191
0.726192
0.72619
0.72618
0.726172
0.726167
0.72616
0.726149
0.726137
0.726128
0.72612
0.726108
0.726081
0.726057
0.726053
0.72605
0.726042
0.726034
0.72603
0.72603
0.726031
0.726033
0.726037
0.726047
0.726065
0.726083
0.726104
0.726129
0.72616
0.726193
0.726224
0.726256
0.726293
0.726328
0.726351
0.726374
0.726402
0.726412
0.7264
0.726375
0.72634
0.726288
0.726205
0.726104
0.72609
0.726138
0.726437
0.727931
0.733142
0.749568
0.78793
0.857496
0.960838
1.06914
1.15296
1.22263
1.25616
1.26738
1.29973
1.3164
1.32907
1.32783
1.32255
1.30823
1.30471
1.30731
1.3167
1.32409
1.32646
1.32761
1.33602
1.35341
1.37986
1.40314
1.41566
1.41888
1.42026
1.42488
1.43019
1.43619
1.44472
1.454
1.45779
1.45997
1.4618
1.46311
1.46386
1.46436
1.46417
1.46361
1.46272
0.726292
0.72629
0.726288
0.726288
0.726289
0.726284
0.726281
0.726282
0.726282
0.726279
0.726281
0.726281
0.726274
0.726269
0.726269
0.726266
0.726262
0.726261
0.726262
0.726262
0.726257
0.726245
0.726241
0.726241
0.726243
0.726244
0.726245
0.726244
0.726244
0.726244
0.726239
0.726238
0.726242
0.726246
0.726249
0.726257
0.726271
0.726287
0.726303
0.726325
0.726355
0.726385
0.726404
0.726415
0.726427
0.72645
0.726462
0.72645
0.726426
0.7264
0.726363
0.726295
0.72618
0.726094
0.726081
0.72608
0.726095
0.726156
0.726406
0.727525
0.73161
0.748115
0.784498
0.8645
0.969418
1.09313
1.19923
1.28075
1.30369
1.32036
1.3161
1.29976
1.29555
1.30525
1.31831
1.32526
1.32479
1.31902
1.32078
1.33244
1.35653
1.38208
1.40527
1.41246
1.41131
1.41377
1.41991
1.42797
1.43626
1.44719
1.45415
1.45744
1.45981
1.46157
1.46232
1.4628
1.4633
1.46372
1.46369
1.46348
0.726268
0.726269
0.72627
0.726271
0.726272
0.726274
0.726278
0.726284
0.726288
0.72629
0.726291
0.726293
0.726298
0.726303
0.72631
0.726319
0.726333
0.726346
0.726356
0.726368
0.726382
0.726396
0.72641
0.726428
0.726452
0.726465
0.726466
0.726466
0.726463
0.726452
0.726433
0.726413
0.726392
0.72637
0.726354
0.726347
0.726341
0.726336
0.726339
0.726358
0.726386
0.726408
0.726423
0.726437
0.726455
0.726487
0.726515
0.726509
0.726496
0.726489
0.72647
0.726428
0.726351
0.72625
0.726172
0.726145
0.726146
0.72616
0.726216
0.726314
0.72643
0.726653
0.727592
0.732486
0.749429
0.796575
0.893028
1.01317
1.12032
1.21857
1.24228
1.27359
1.2963
1.32732
1.33299
1.32975
1.31349
1.31175
1.31878
1.33812
1.35887
1.38335
1.40206
1.40769
1.40769
1.41124
1.41914
1.42824
1.43849
1.44965
1.45411
1.45751
1.4599
1.46152
1.46189
1.46229
1.46287
1.46369
1.46371
1.4633
0.726241
0.726244
0.726247
0.72625
0.726257
0.726266
0.726274
0.726281
0.726289
0.726299
0.726311
0.726324
0.726339
0.726354
0.726369
0.726387
0.726407
0.726427
0.726447
0.726471
0.726496
0.72652
0.726545
0.726576
0.726606
0.726619
0.726619
0.726618
0.72661
0.726592
0.726565
0.726531
0.726491
0.726445
0.726403
0.726373
0.726353
0.726341
0.726334
0.726329
0.726325
0.72632
0.726317
0.72632
0.726337
0.726373
0.726418
0.726456
0.726488
0.726528
0.726541
0.726523
0.726476
0.726406
0.726317
0.726235
0.726193
0.726177
0.726176
0.726208
0.726316
0.726456
0.72649
0.726514
0.726706
0.728032
0.736169
0.760844
0.836054
0.947438
1.08088
1.21813
1.28109
1.31604
1.32193
1.30996
1.29463
1.30714
1.32927
1.34561
1.35789
1.37529
1.39984
1.40646
1.40737
1.41157
1.42023
1.43137
1.44156
1.44898
1.45369
1.45772
1.46006
1.46142
1.46186
1.46223
1.46296
1.46404
1.46445
1.46357
0.726298
0.726305
0.72631
0.726316
0.726325
0.726335
0.726341
0.726346
0.726355
0.726367
0.726379
0.72639
0.726403
0.726418
0.726435
0.726455
0.726475
0.726496
0.726519
0.726546
0.726571
0.726596
0.726627
0.726657
0.726676
0.726692
0.726699
0.726694
0.726679
0.726659
0.726636
0.726603
0.726559
0.726502
0.726443
0.726385
0.72633
0.726288
0.726268
0.726257
0.726241
0.726217
0.726205
0.726199
0.726199
0.726219
0.726272
0.726355
0.726449
0.726531
0.726583
0.726579
0.726548
0.726496
0.726425
0.726329
0.726216
0.726136
0.726117
0.726121
0.726179
0.726323
0.72648
0.726568
0.726558
0.726488
0.726495
0.726856
0.730368
0.744298
0.798856
0.894435
1.03253
1.16355
1.22665
1.26458
1.29363
1.32822
1.34608
1.34944
1.34673
1.36814
1.4
1.40639
1.40821
1.41437
1.42752
1.43679
1.44448
1.44811
1.45363
1.45782
1.46003
1.46126
1.46207
1.4625
1.46331
1.46412
1.46424
1.46424
0.726393
0.726398
0.726402
0.726408
0.726418
0.726424
0.726427
0.72643
0.726435
0.726441
0.726448
0.726455
0.726464
0.726475
0.726489
0.726506
0.726522
0.72654
0.726562
0.726585
0.726606
0.726629
0.726654
0.726674
0.726686
0.7267
0.726716
0.72671
0.726688
0.726671
0.726656
0.726631
0.726593
0.726546
0.726493
0.72644
0.726388
0.726339
0.726296
0.726264
0.726239
0.726203
0.726164
0.726148
0.726139
0.726139
0.726169
0.726264
0.726396
0.726514
0.726593
0.726605
0.72658
0.726529
0.726465
0.726382
0.72626
0.726124
0.726071
0.726072
0.726107
0.726219
0.726417
0.72657
0.726601
0.726584
0.726483
0.726354
0.726347
0.7265
0.728218
0.736178
0.777537
0.861903
1.00439
1.16436
1.26973
1.31018
1.3373
1.32394
1.33292
1.36887
1.40343
1.40604
1.4106
1.4223
1.43504
1.44068
1.44261
1.4473
1.45452
1.45838
1.46021
1.46163
1.46321
1.4639
1.46427
1.46445
1.46443
1.46415
0.726447
0.726446
0.726445
0.726446
0.726446
0.726445
0.726444
0.726445
0.726447
0.726449
0.726453
0.726459
0.726468
0.726478
0.72649
0.726502
0.726516
0.726534
0.726555
0.726577
0.7266
0.726623
0.726643
0.726658
0.726671
0.726691
0.726716
0.726707
0.726685
0.726679
0.72667
0.726645
0.726603
0.726562
0.726532
0.72651
0.726491
0.726468
0.726435
0.726389
0.726338
0.726271
0.72619
0.726145
0.726131
0.726127
0.726138
0.726205
0.726327
0.726461
0.726578
0.726617
0.726594
0.72654
0.726489
0.726432
0.726344
0.726203
0.72609
0.72608
0.72611
0.726202
0.726367
0.726553
0.72661
0.726595
0.726517
0.726373
0.726312
0.726307
0.726344
0.7265
0.727597
0.733177
0.765695
0.845209
0.98834
1.123
1.23766
1.27973
1.33292
1.38751
1.40688
1.40502
1.41218
1.43084
1.43972
1.43839
1.44097
1.44779
1.45586
1.45886
1.46043
1.46278
1.4655
1.4661
1.46584
1.46509
1.46477
1.46431
0.726446
0.726442
0.726437
0.72643
0.72642
0.726408
0.726399
0.726389
0.726374
0.726361
0.726357
0.726354
0.726352
0.726351
0.72635
0.726351
0.726359
0.726372
0.72639
0.726412
0.726442
0.726474
0.726503
0.726529
0.726553
0.726576
0.726601
0.726618
0.726624
0.726629
0.726623
0.7266
0.726561
0.726552
0.726561
0.726594
0.726628
0.726639
0.726636
0.726604
0.726543
0.726465
0.726365
0.726256
0.726169
0.726126
0.726121
0.726144
0.726204
0.726283
0.726384
0.726492
0.726536
0.72652
0.726503
0.7265
0.726473
0.726385
0.726243
0.726173
0.726184
0.72623
0.72634
0.726506
0.72661
0.726601
0.726524
0.726389
0.72633
0.726328
0.726363
0.726531
0.726801
0.727006
0.727747
0.732044
0.759164
0.837016
0.978565
1.16807
1.30128
1.38082
1.38297
1.38933
1.41072
1.4335
1.43179
1.43391
1.44114
1.45229
1.45728
1.45936
1.46127
1.46486
1.46754
1.4674
1.46676
1.46563
1.46509
1.46467
0.726416
0.726396
0.726377
0.726359
0.726339
0.726318
0.726296
0.726274
0.726255
0.72624
0.726225
0.726207
0.726196
0.726194
0.726194
0.726196
0.726206
0.726221
0.726238
0.726261
0.726285
0.726301
0.726314
0.726332
0.726355
0.726376
0.726398
0.726427
0.72647
0.726519
0.726533
0.726532
0.726538
0.726562
0.726616
0.726707
0.726785
0.726806
0.726807
0.72679
0.726735
0.72665
0.726537
0.726389
0.726246
0.72615
0.726081
0.72606
0.726068
0.726095
0.726148
0.72624
0.726332
0.726407
0.726489
0.72656
0.726574
0.726556
0.726472
0.726347
0.726289
0.726287
0.726322
0.726422
0.726534
0.72655
0.72651
0.72642
0.726407
0.726435
0.72654
0.726729
0.727
0.727162
0.727172
0.72719
0.727622
0.731524
0.756064
0.852175
1.01746
1.23876
1.31556
1.38357
1.42058
1.42031
1.42208
1.43221
1.44777
1.45671
1.45849
1.45992
1.4635
1.46721
1.46876
1.46705
1.46601
1.46587
1.46559
1.46536
0.726412
0.726385
0.726358
0.726332
0.726306
0.72628
0.726256
0.726234
0.726216
0.726202
0.726189
0.726176
0.726162
0.726153
0.726154
0.726164
0.726181
0.726198
0.726216
0.726244
0.72627
0.726272
0.726259
0.726249
0.726247
0.726253
0.726263
0.726275
0.726301
0.72635
0.726415
0.726468
0.72651
0.726566
0.726649
0.726757
0.726856
0.726886
0.726886
0.726871
0.726818
0.726731
0.726607
0.726417
0.726248
0.726132
0.726037
0.725997
0.726
0.726019
0.726054
0.726132
0.726202
0.726276
0.726405
0.726559
0.726617
0.726614
0.726572
0.726462
0.726341
0.726301
0.726299
0.726323
0.72639
0.726452
0.726457
0.726484
0.726558
0.726674
0.726793
0.726952
0.727133
0.727174
0.727173
0.727117
0.726924
0.726769
0.727183
0.732903
0.774107
0.914452
1.16097
1.36159
1.4073
1.40057
1.4177
1.44366
1.45406
1.45576
1.45687
1.4605
1.4656
1.46895
1.4661
1.46357
1.46416
1.4659
1.46645
1.46625
0.726496
0.726475
0.726453
0.726431
0.726409
0.726389
0.726371
0.726356
0.726344
0.726335
0.726331
0.72633
0.726332
0.726336
0.726331
0.72633
0.726351
0.72638
0.726383
0.726378
0.72636
0.726325
0.726292
0.72628
0.726283
0.726275
0.726238
0.726188
0.726161
0.726159
0.726199
0.726291
0.726397
0.726503
0.726592
0.726664
0.72676
0.726837
0.726861
0.726865
0.726837
0.726746
0.726601
0.726343
0.726199
0.726187
0.726163
0.726104
0.726061
0.726043
0.726051
0.726132
0.726187
0.726218
0.726321
0.726499
0.726607
0.726612
0.726567
0.726462
0.726344
0.726285
0.726273
0.726272
0.726298
0.72636
0.726455
0.726589
0.726787
0.726921
0.726988
0.727084
0.727149
0.727146
0.727068
0.726913
0.726565
0.726442
0.72649
0.72661
0.728073
0.742216
0.849595
1.09199
1.30048
1.36832
1.44122
1.46002
1.45699
1.45268
1.45698
1.46341
1.46765
1.46602
1.4638
1.46326
1.46415
1.4663
1.46738
1.46688
0.726731
0.726728
0.726728
0.726727
0.72672
0.72671
0.726704
0.726701
0.726698
0.726677
0.726664
0.726666
0.726664
0.726661
0.726678
0.726692
0.726696
0.726696
0.726689
0.726667
0.726619
0.726566
0.72651
0.726405
0.726307
0.726283
0.726254
0.726156
0.726037
0.725996
0.725994
0.726023
0.726117
0.726209
0.726239
0.726275
0.726387
0.72654
0.726602
0.726652
0.72667
0.726617
0.726488
0.726321
0.72628
0.726303
0.726379
0.726387
0.726383
0.726321
0.726224
0.726197
0.7262
0.726195
0.726236
0.726381
0.726532
0.726554
0.726504
0.726409
0.72632
0.726262
0.72626
0.726275
0.726305
0.726399
0.726543
0.726748
0.726937
0.727028
0.727076
0.727118
0.727102
0.726994
0.726814
0.726573
0.726343
0.72635
0.726428
0.72663
0.726949
0.72756
0.73535
0.801563
1.03656
1.27738
1.42631
1.44413
1.4364
1.45133
1.46327
1.46581
1.4647
1.46341
1.46407
1.46373
1.46567
1.46751
1.46829
1.46782
0.726935
0.726933
0.726941
0.726949
0.726943
0.726946
0.726965
0.726973
0.726974
0.726964
0.726937
0.726919
0.726906
0.726889
0.726872
0.726859
0.726848
0.726836
0.726811
0.726777
0.726711
0.726639
0.726614
0.726575
0.726494
0.726395
0.726282
0.726074
0.725864
0.725807
0.725803
0.72581
0.725886
0.725942
0.725953
0.726002
0.726161
0.72635
0.726425
0.726466
0.726512
0.726499
0.726391
0.726307
0.726295
0.726335
0.726461
0.726536
0.726572
0.72658
0.726505
0.726369
0.726253
0.72618
0.726148
0.726185
0.726282
0.72636
0.726336
0.726316
0.726302
0.726319
0.726367
0.726469
0.726607
0.726689
0.726768
0.726878
0.726963
0.727036
0.727087
0.727069
0.726952
0.726723
0.726518
0.726323
0.726302
0.726341
0.726555
0.726958
0.727308
0.727748
0.728224
0.732569
0.77691
0.959517
1.23133
1.3521
1.41303
1.47011
1.47189
1.46797
1.46247
1.4642
1.46745
1.47007
1.47118
1.46979
1.4688
1.46731
0.726924
0.726918
0.726911
0.72691
0.726912
0.726929
0.726954
0.726963
0.726969
0.726968
0.726954
0.726932
0.726907
0.726879
0.726838
0.726818
0.726818
0.726802
0.726747
0.726733
0.726716
0.726684
0.726654
0.726627
0.726576
0.72646
0.726317
0.726181
0.725991
0.725813
0.725751
0.725749
0.725822
0.725877
0.725904
0.725986
0.726161
0.72632
0.726375
0.726385
0.726407
0.726434
0.726389
0.726297
0.726263
0.72629
0.726418
0.726524
0.726548
0.726579
0.726556
0.726438
0.726275
0.726138
0.726063
0.726026
0.726045
0.726117
0.726161
0.726211
0.726388
0.726564
0.726648
0.726783
0.726937
0.726949
0.726936
0.726926
0.726947
0.726987
0.726971
0.726867
0.72663
0.726457
0.726326
0.726308
0.726321
0.726493
0.726862
0.727212
0.727505
0.72776
0.72802
0.728955
0.73261
0.763935
0.889642
1.15375
1.35931
1.45998
1.4577
1.45612
1.46032
1.46807
1.47486
1.47649
1.47505
1.47193
1.46974
1.46728
0.726462
0.726452
0.726427
0.7264
0.726392
0.726391
0.726398
0.726424
0.72644
0.726438
0.726425
0.726416
0.726406
0.7264
0.726403
0.726431
0.726517
0.726554
0.72657
0.726632
0.726666
0.726644
0.726629
0.726655
0.726661
0.726602
0.726465
0.726389
0.726337
0.726275
0.726257
0.726274
0.726353
0.726411
0.726463
0.726509
0.726572
0.72658
0.726557
0.726478
0.726392
0.726384
0.726395
0.726321
0.726181
0.726157
0.726227
0.726364
0.726421
0.726476
0.72649
0.726402
0.726272
0.726136
0.726062
0.725992
0.725955
0.726021
0.726135
0.726281
0.726591
0.726827
0.726844
0.72695
0.727066
0.727048
0.726959
0.726903
0.726829
0.726718
0.726599
0.726397
0.726291
0.726293
0.726304
0.726377
0.726561
0.726857
0.727103
0.727361
0.727572
0.727556
0.727726
0.728384
0.73088
0.738343
0.759104
0.854804
1.05167
1.28893
1.36642
1.44593
1.46212
1.47572
1.47945
1.4788
1.47129
1.4697
1.46915
1.46772
0.725744
0.725738
0.72574
0.72575
0.725749
0.725747
0.725752
0.725795
0.72585
0.725879
0.725906
0.725981
0.726064
0.726121
0.726245
0.72635
0.726369
0.726427
0.726513
0.726515
0.726553
0.726675
0.726764
0.726827
0.726882
0.72689
0.72687
0.726787
0.72669
0.726678
0.726686
0.726712
0.726764
0.726867
0.726921
0.726889
0.726885
0.726894
0.72682
0.726645
0.726445
0.726295
0.726201
0.726111
0.725911
0.725778
0.725781
0.725844
0.725956
0.726108
0.726302
0.726418
0.726366
0.726256
0.726281
0.726289
0.726285
0.726439
0.726646
0.726761
0.726908
0.726965
0.72695
0.727017
0.727074
0.727033
0.726915
0.726735
0.726487
0.726277
0.726097
0.726026
0.726104
0.72622
0.726474
0.726783
0.727049
0.72719
0.727231
0.727412
0.727355
0.727228
0.727331
0.728022
0.730197
0.736546
0.751733
0.774612
0.828855
0.959558
1.18403
1.39702
1.43717
1.46631
1.47418
1.46552
1.461
1.46895
1.46977
1.46872
0.725494
0.725495
0.725501
0.72552
0.725546
0.725568
0.725587
0.725622
0.725673
0.725745
0.725849
0.725933
0.726032
0.726173
0.726293
0.726368
0.726508
0.726629
0.72663
0.72665
0.726794
0.726957
0.727051
0.727115
0.727144
0.727141
0.727101
0.72697
0.726837
0.726808
0.726786
0.726777
0.726801
0.726894
0.726905
0.726871
0.726919
0.726927
0.726818
0.72663
0.726437
0.72626
0.726051
0.725916
0.725752
0.725494
0.725427
0.725444
0.725555
0.725795
0.726128
0.726441
0.726616
0.726662
0.726663
0.726633
0.726736
0.727076
0.727197
0.727191
0.727138
0.727032
0.727011
0.726979
0.726885
0.726722
0.726559
0.726355
0.726127
0.725964
0.725872
0.725901
0.726083
0.726488
0.726992
0.727215
0.727326
0.72729
0.727218
0.727047
0.726806
0.726801
0.726985
0.727797
0.729899
0.735559
0.748304
0.770011
0.793701
0.820973
0.908505
1.08666
1.26437
1.41405
1.44534
1.44291
1.45928
1.47415
1.47196
1.47046
0.725886
0.72585
0.725752
0.725711
0.72571
0.725691
0.725659
0.725653
0.725667
0.725724
0.725841
0.725968
0.726202
0.726378
0.726374
0.726363
0.726388
0.726473
0.726579
0.726639
0.726634
0.726606
0.726591
0.726633
0.726662
0.726613
0.726584
0.726612
0.726563
0.726467
0.726434
0.726479
0.726525
0.726339
0.726208
0.726257
0.726284
0.726103
0.72602
0.726081
0.726105
0.726065
0.725814
0.725693
0.725717
0.725553
0.725349
0.72533
0.725444
0.72584
0.726311
0.72667
0.72683
0.726864
0.726776
0.726722
0.726967
0.727329
0.727376
0.727353
0.727238
0.72697
0.726579
0.726271
0.726069
0.725991
0.725967
0.725948
0.725922
0.725886
0.725889
0.726005
0.726477
0.727047
0.727417
0.727458
0.727417
0.727242
0.726846
0.726394
0.726337
0.726455
0.726881
0.728053
0.730337
0.734879
0.74468
0.763679
0.789086
0.81152
0.828189
0.863005
1.00499
1.21932
1.38357
1.4275
1.47694
1.48099
1.47436
1.47196
0.72637
0.726317
0.726283
0.726233
0.726164
0.72613
0.726076
0.725977
0.725951
0.725949
0.725911
0.725779
0.725677
0.725685
0.725756
0.725721
0.72565
0.725707
0.725705
0.725655
0.725726
0.725803
0.725802
0.72578
0.725809
0.7258
0.72577
0.725818
0.725756
0.725636
0.725683
0.72564
0.725247
0.724421
0.724174
0.724193
0.724261
0.724435
0.724773
0.725194
0.725565
0.725699
0.72578
0.726025
0.726531
0.726633
0.726388
0.726098
0.725966
0.72606
0.726418
0.726692
0.726709
0.72663
0.726453
0.726434
0.726695
0.727005
0.727052
0.727026
0.726762
0.726148
0.725567
0.725294
0.725263
0.725281
0.725397
0.72562
0.725848
0.725836
0.725973
0.726439
0.726973
0.72726
0.727478
0.727446
0.727227
0.726688
0.726064
0.725937
0.726022
0.726319
0.727221
0.728786
0.730855
0.734443
0.741676
0.756541
0.782053
0.808352
0.825438
0.831432
0.848865
0.920747
1.1273
1.34075
1.46214
1.46408
1.46498
1.47398
0.726726
0.726774
0.726797
0.726784
0.726638
0.72653
0.726542
0.72652
0.726419
0.726334
0.72618
0.725924
0.72576
0.725547
0.725196
0.724815
0.724699
0.724705
0.724778
0.724932
0.725142
0.725317
0.725444
0.725542
0.725558
0.725555
0.725609
0.725575
0.725558
0.725733
0.725899
0.725815
0.725248
0.724185
0.72378
0.723732
0.723822
0.724226
0.724886
0.725728
0.726416
0.726729
0.726925
0.727271
0.727749
0.727725
0.727262
0.727059
0.727182
0.727416
0.727446
0.72721
0.726638
0.72604
0.725753
0.725705
0.725742
0.725927
0.725999
0.725938
0.725709
0.725304
0.724914
0.724791
0.724791
0.724874
0.725067
0.725386
0.725713
0.726219
0.726732
0.727095
0.727192
0.727146
0.72688
0.726568
0.726134
0.725616
0.725534
0.725638
0.725851
0.726696
0.728045
0.729398
0.730955
0.733453
0.738595
0.750804
0.773764
0.801918
0.823787
0.831486
0.834587
0.841388
0.890166
1.04865
1.28667
1.38045
1.4543
1.48002
0.726175
0.726281
0.726293
0.726261
0.726262
0.726295
0.726482
0.726626
0.72662
0.726421
0.726345
0.726392
0.726261
0.72585
0.725266
0.724734
0.724612
0.724617
0.724663
0.724797
0.725087
0.725557
0.725793
0.725912
0.726163
0.726679
0.726831
0.726897
0.727202
0.727769
0.728029
0.728
0.72748
0.72627
0.72579
0.725637
0.725457
0.725547
0.726326
0.727713
0.727879
0.72777
0.727654
0.727702
0.72807
0.728089
0.727617
0.727252
0.727275
0.727601
0.727664
0.727225
0.726145
0.725393
0.725237
0.725208
0.725209
0.725341
0.725406
0.725307
0.725137
0.724943
0.724732
0.724665
0.724694
0.724874
0.725386
0.726112
0.726759
0.727223
0.727356
0.727289
0.726953
0.726169
0.725565
0.725286
0.725055
0.725077
0.725164
0.725422
0.726407
0.727615
0.728569
0.729348
0.730139
0.731876
0.73594
0.745873
0.766156
0.792938
0.819085
0.83158
0.834834
0.837843
0.842519
0.871022
0.985309
1.21649
1.41216
1.47068
0.728818
0.729011
0.729213
0.729415
0.729653
0.729997
0.730327
0.730392
0.730366
0.730409
0.730483
0.730419
0.730342
0.730326
0.73022
0.729726
0.729092
0.728954
0.728949
0.729178
0.729793
0.730484
0.731134
0.731816
0.732307
0.732559
0.732596
0.732626
0.73272
0.732808
0.732956
0.73298
0.732399
0.731003
0.729962
0.729374
0.729117
0.729263
0.729941
0.730145
0.729938
0.729273
0.728824
0.728663
0.728537
0.728478
0.728419
0.728475
0.728579
0.72859
0.728063
0.727147
0.726207
0.725617
0.725452
0.725504
0.72561
0.725691
0.725663
0.725622
0.725683
0.725788
0.726079
0.726439
0.726767
0.727145
0.727467
0.727563
0.727644
0.727644
0.727455
0.726921
0.726125
0.725303
0.725063
0.725031
0.725007
0.725212
0.725899
0.727059
0.728139
0.728442
0.728653
0.728519
0.728889
0.730526
0.734402
0.742671
0.759372
0.783752
0.810574
0.82889
0.835902
0.83912
0.842706
0.846122
0.859758
0.948685
1.14087
1.3675
0.739934
0.739931
0.739882
0.739733
0.739307
0.73887
0.738845
0.739001
0.738981
0.738574
0.738387
0.738437
0.738439
0.738251
0.737779
0.737079
0.736153
0.73547
0.735339
0.735397
0.735651
0.735956
0.736132
0.73631
0.736431
0.736335
0.735844
0.735354
0.73482
0.734505
0.734487
0.734376
0.733817
0.732986
0.732382
0.731803
0.731056
0.730839
0.730795
0.730385
0.72948
0.728809
0.728651
0.728683
0.728703
0.728603
0.728497
0.728616
0.72858
0.728332
0.728194
0.727827
0.727735
0.727726
0.727876
0.728429
0.728751
0.728803
0.728646
0.728532
0.728669
0.729216
0.729975
0.730534
0.730624
0.730442
0.72985
0.728669
0.727496
0.726729
0.726133
0.725825
0.725509
0.725108
0.725111
0.725351
0.726057
0.727309
0.728548
0.72932
0.7291
0.7286
0.727625
0.727518
0.728124
0.730079
0.733987
0.740931
0.753866
0.774226
0.800025
0.823337
0.835428
0.840111
0.842491
0.845349
0.84878
0.858184
0.907576
1.17305
0.755059
0.754899
0.754301
0.753405
0.752482
0.751659
0.750994
0.750556
0.750422
0.750437
0.750515
0.750628
0.750739
0.750812
0.750769
0.750473
0.749687
0.749077
0.748542
0.74726
0.746269
0.745917
0.74536
0.744085
0.743487
0.743262
0.743149
0.743079
0.743116
0.743494
0.743561
0.743337
0.743204
0.74332
0.743812
0.743911
0.743891
0.744105
0.744588
0.744404
0.744203
0.744364
0.744352
0.743941
0.74315
0.742054
0.740796
0.739855
0.739438
0.739438
0.739854
0.740614
0.741165
0.741037
0.740948
0.741148
0.74122
0.7409
0.739655
0.73752
0.736034
0.735679
0.735559
0.735325
0.734655
0.733565
0.732028
0.730082
0.728347
0.72733
0.726994
0.727155
0.727599
0.728586
0.72979
0.730941
0.731867
0.731627
0.731244
0.730391
0.728891
0.727444
0.727096
0.727367
0.728312
0.730824
0.735507
0.742051
0.751283
0.765759
0.787574
0.813726
0.832657
0.840219
0.843649
0.846403
0.849305
0.853278
0.85784
0.968529
0.787108
0.786825
0.786141
0.785744
0.785724
0.785729
0.785192
0.78421
0.783766
0.783769
0.784096
0.784293
0.784149
0.784153
0.784372
0.784469
0.784298
0.783522
0.783447
0.783586
0.783221
0.782234
0.780874
0.779776
0.779493
0.779299
0.778948
0.778463
0.777927
0.777237
0.775926
0.775077
0.775079
0.774976
0.774425
0.773518
0.772559
0.771855
0.771546
0.771552
0.771625
0.771388
0.770545
0.76927
0.768032
0.766721
0.765
0.763166
0.761626
0.760517
0.759701
0.758969
0.75802
0.756318
0.754146
0.752869
0.751717
0.75022
0.749178
0.748009
0.746129
0.744015
0.74248
0.741429
0.740885
0.740025
0.739422
0.739588
0.739602
0.739399
0.739733
0.740395
0.740565
0.740278
0.739759
0.738759
0.737109
0.73471
0.731729
0.729772
0.728697
0.728245
0.728912
0.730596
0.73318
0.736591
0.740364
0.7448
0.750769
0.760882
0.777369
0.800725
0.823961
0.836877
0.842965
0.847289
0.85231
0.857026
0.85952
0.882937
0.818166
0.818044
0.818341
0.818927
0.818988
0.818702