/*--------------------------------*- C++ -*----------------------------------*\
  =========                 |
  \\      /  F ield         | OpenFOAM: The Open Source CFD Toolbox
   \\    /   O peration     | Website:  https://openfoam.org
    \\  /    A nd           | Version:  7
     \\/     M anipulation  |
\*---------------------------------------------------------------------------*/
FoamFile
{
    version     2.0;
    format      ascii;
    class       volScalarField;
    location    "1";
    object      p;
}
// * * * * * * * * * * * * * * * * * * * * * * * * * * * * * * * * * * * * * //

dimensions      [1 -1 -2 0 0 0 0];

internalField   nonuniform List<scalar> 
32400
(
0.715963
0.736384
0.759016
0.782177
0.805237
0.828383
0.851302
0.874307
0.89704
0.919628
0.942073
0.963706
0.985704
1.00545
1.02632
1.04367
1.06148
1.0768
1.08871
1.10167
1.10824
1.11215
1.11323
1.11155
1.10709
1.1009
1.08758
1.0821
1.08308
1.08628
1.09101
1.09604
1.09606
1.0943
1.08794
1.08047
1.07479
1.06948
1.07072
1.07094
1.06692
1.05319
1.03494
1.02128
1.01767
1.01672
1.01517
1.01373
1.01375
1.01463
1.01538
1.01484
1.01233
1.00626
0.993392
0.974973
0.967747
0.96454
0.960661
0.958894
0.700888
0.702101
0.704501
0.708278
0.713668
0.720692
0.729621
0.7403
0.753063
0.767721
0.784476
0.803281
0.823649
0.846285
0.869325
0.894573
0.919302
0.944926
0.969962
0.993153
1.01552
1.03458
1.05098
1.06266
1.0704
1.07641
1.08935
1.09692
1.10038
1.10132
1.10032
1.09917
1.09557
1.08732
1.08123
1.07973
1.07716
1.07607
1.07412
1.0701
1.0617
1.04973
1.035
1.02426
1.01833
1.01578
1.01443
1.01351
1.01405
1.01474
1.01497
1.01458
1.01212
1.00566
0.992267
0.973842
0.967311
0.964709
0.961342
0.959494
0.701054
0.701073
0.701107
0.701164
0.701261
0.701429
0.701675
0.702211
0.703076
0.704436
0.706467
0.709534
0.713796
0.72006
0.728282
0.740074
0.754798
0.774639
0.798325
0.827204
0.860654
0.897087
0.937274
0.976156
1.01694
1.04931
1.07556
1.08711
1.09233
1.09239
1.09242
1.08921
1.08074
1.07694
1.07874
1.08354
1.0842
1.08199
1.07699
1.06608
1.05554
1.04648
1.03854
1.02672
1.01779
1.01391
1.01344
1.01452
1.01531
1.01474
1.01427
1.01396
1.01174
1.00447
0.990394
0.973276
0.967497
0.964655
0.961414
0.959476
0.701673
0.701673
0.701668
0.701659
0.701644
0.701621
0.701612
0.701589
0.701545
0.701484
0.701433
0.701407
0.70137
0.701432
0.701817
0.702576
0.703913
0.706257
0.710037
0.716395
0.725938
0.741091
0.762142
0.792043
0.829535
0.875668
0.923906
0.969351
1.00817
1.03216
1.05236
1.06044
1.06622
1.07672
1.08756
1.09161
1.08929
1.08514
1.07364
1.06246
1.05371
1.04975
1.04164
1.02758
1.01669
1.0123
1.01414
1.01671
1.01622
1.0146
1.01381
1.01364
1.01132
1.00336
0.988257
0.972521
0.967263
0.964532
0.961438
0.959409
0.70184
0.701843
0.701844
0.701839
0.701824
0.701818
0.701831
0.701749
0.701624
0.701493
0.701365
0.701286
0.701219
0.701132
0.701123
0.70121
0.701314
0.701356
0.701387
0.70157
0.701944
0.702874
0.704746
0.708781
0.716227
0.730645
0.753766
0.790502
0.837956
0.895324
0.950952
1.00433
1.04568
1.07008
1.07988
1.08415
1.08187
1.0738
1.06774
1.06317
1.05999
1.05403
1.04122
1.02281
1.013
1.01318
1.01626
1.01729
1.01577
1.01423
1.01421
1.01381
1.01101
1.0025
0.98719
0.972448
0.96729
0.964634
0.961384
0.959655
0.70158
0.701583
0.701585
0.701583
0.701588
0.701631
0.701635
0.701567
0.701484
0.701394
0.701308
0.701227
0.701154
0.701088
0.701068
0.701087
0.701123
0.701173
0.701194
0.701212
0.701227
0.701203
0.701161
0.701073
0.701148
0.701664
0.703312
0.707631
0.71777
0.738044
0.7727
0.824172
0.886377
0.950638
0.992539
1.03211
1.04335
1.05383
1.0668
1.07148
1.0681
1.05851
1.03593
1.01819
1.01312
1.01573
1.0186
1.01748
1.01507
1.01459
1.01533
1.01469
1.01132
1.00265
0.988051
0.973376
0.96773
0.964623
0.96092
0.959551
0.701353
0.701366
0.70135
0.701323
0.701307
0.701322
0.701304
0.701254
0.701207
0.701161
0.70112
0.701083
0.701047
0.701008
0.701029
0.701067
0.701104
0.701109
0.701121
0.70109
0.701039
0.700933
0.700856
0.700755
0.700692
0.700611
0.70053
0.700277
0.700298
0.700985
0.704436
0.713576
0.736244
0.773557
0.833597
0.903595
0.969
1.02776
1.05629
1.06412
1.06137
1.04796
1.02596
1.01596
1.01786
1.01946
1.01817
1.01454
1.01403
1.01608
1.01692
1.01566
1.01204
1.00426
0.991268
0.974775
0.967936
0.96404
0.960107
0.959186
0.701282
0.701272
0.701248
0.701227
0.701218
0.70123
0.701219
0.701194
0.701171
0.701153
0.701139
0.701136
0.701139
0.701154
0.701193
0.701249
0.701301
0.701341
0.701364
0.701365
0.701365
0.701318
0.701227
0.701043
0.700889
0.700644
0.700468
0.700104
0.699891
0.699599
0.699284
0.699184
0.700099
0.703828
0.716484
0.742726
0.797419
0.864948
0.931977
0.993839
1.01195
1.01862
1.01815
1.02436
1.02533
1.02143
1.01267
1.0113
1.01488
1.01903
1.01837
1.0163
1.01301
1.00687
0.993878
0.975497
0.967636
0.963299
0.959406
0.958803
0.701407
0.701379
0.701342
0.70132
0.701324
0.701377
0.701419
0.701401
0.701404
0.701447
0.701487
0.701493
0.701427
0.701462
0.701616
0.701737
0.70183
0.701905
0.701941
0.701954
0.701948
0.701902
0.701739
0.701501
0.701262
0.701035
0.700857
0.700661
0.700419
0.700114
0.69958
0.699135
0.698623
0.698027
0.697457
0.698801
0.706143
0.724988
0.769032
0.83822
0.90886
0.974786
1.00552
1.01999
1.01819
1.00781
1.00617
1.01152
1.01858
1.01939
1.01736
1.01527
1.0141
1.00838
0.993963
0.975412
0.967133
0.962577
0.958806
0.958415
0.702774
0.702763
0.702751
0.70276
0.702835
0.702875
0.702848
0.702842
0.702892
0.702931
0.702953
0.70296
0.70296
0.702977
0.70299
0.702974
0.702941
0.70289
0.70278
0.70261
0.702412
0.70222
0.702096
0.702096
0.702062
0.701839
0.701413
0.701067
0.700707
0.700375
0.69982
0.699249
0.698424
0.697526
0.696781
0.695637
0.694728
0.693645
0.696637
0.711094
0.750793
0.80671
0.873321
0.940976
0.966362
0.985172
1.00356
1.02061
1.0214
1.01694
1.0121
1.01447
1.01497
1.00915
0.99371
0.97504
0.966456
0.962004
0.958412
0.958051
0.704222
0.704215
0.704228
0.704263
0.70432
0.704338
0.704298
0.70424
0.704283
0.704327
0.704335
0.704325
0.704309
0.70429
0.704265
0.70421
0.704114
0.703984
0.703799
0.703565
0.703324
0.703094
0.702865
0.70259
0.702214
0.701776
0.70135
0.700937
0.700556
0.700213
0.699839
0.699269
0.698508
0.697599
0.696787
0.695515
0.694435
0.692733
0.69032
0.684612
0.686161
0.6939
0.724906
0.783218
0.865092
0.953201
0.99389
1.01507
1.01193
1.00369
1.00898
1.01672
1.01561
1.00754
0.990948
0.973754
0.965489
0.961527
0.958061
0.957653
0.704682
0.704672
0.704666
0.704658
0.704655
0.704643
0.704622
0.704601
0.704574
0.704546
0.70452
0.704488
0.704454
0.704427
0.704393
0.704329
0.704237
0.704142
0.704067
0.704026
0.703985
0.703884
0.703685
0.703372
0.702976
0.702573
0.702213
0.701877
0.701525
0.701092
0.700581
0.699939
0.699256
0.698535
0.697733
0.696712
0.695367
0.693356
0.690836
0.685826
0.679013
0.667971
0.664961
0.673664
0.71555
0.79206
0.87857
0.952473
0.975354
0.994467
1.01817
1.01875
1.01446
1.00294
0.98941
0.974068
0.965983
0.960953
0.957115
0.956863
0.704176
0.704178
0.704172
0.704164
0.704171
0.704166
0.70415
0.704136
0.704122
0.704122
0.70414
0.704137
0.704143
0.704169
0.704189
0.704196
0.704201
0.704195
0.70417
0.704125
0.704044
0.703964
0.703921
0.703948
0.704057
0.704152
0.704185
0.704127
0.703893
0.703371
0.702675
0.701922
0.701152
0.700329
0.699435
0.698394
0.697073
0.695137
0.692091
0.68699
0.678534
0.666986
0.656233
0.65299
0.657089
0.675948
0.730976
0.814262
0.914616
0.979423
1.013
1.01222
1.00535
0.999596
0.992791
0.976695
0.966254
0.960098
0.955964
0.955778
0.705038
0.705059
0.705057
0.705026
0.705052
0.705088
0.705096
0.705104
0.705115
0.705138
0.70518
0.705221
0.705282
0.705345
0.70538
0.705415
0.705447
0.705454
0.705423
0.705409
0.705427
0.7053
0.705016
0.705211
0.7056
0.705876
0.706073
0.706174
0.706025
0.705411
0.704639
0.703934
0.703194
0.702245
0.70107
0.699746
0.6984
0.696562
0.693006
0.686825
0.677053
0.664608
0.655011
0.652316
0.652102
0.653077
0.659898
0.686963
0.752759
0.845709
0.938625
0.97278
0.997134
1.0054
0.999982
0.983415
0.965525
0.95728
0.953512
0.954082
0.708232
0.7083
0.708333
0.708309
0.708346
0.708444
0.708504
0.708539
0.708587
0.708656
0.708741
0.708822
0.708915
0.709024
0.709103
0.709149
0.709168
0.709147
0.709107
0.709096
0.709054
0.708841
0.708519
0.708224
0.707907
0.707481
0.707009
0.706559
0.706053
0.705507
0.704942
0.704371
0.7038
0.703242
0.702491
0.701254
0.699
0.695473
0.690152
0.682167
0.671011
0.659153
0.652314
0.651098
0.651134
0.651515
0.652207
0.654762
0.665514
0.705049
0.783657
0.891742
0.979434
1.0026
0.996315
0.980914
0.960964
0.952675
0.949767
0.951702
0.712155
0.712178
0.71217
0.712178
0.712223
0.712269
0.712297
0.712307
0.712302
0.71229
0.712282
0.712301
0.712336
0.71236
0.71238
0.712401
0.712389
0.712368
0.712355
0.712282
0.712064
0.711739
0.711366
0.711007
0.710673
0.71029
0.709754
0.709038
0.708251
0.707527
0.706853
0.706161
0.705393
0.704537
0.703458
0.701706
0.698593
0.693628
0.686169
0.675602
0.663143
0.652956
0.648943
0.648478
0.648448
0.64856
0.648905
0.649473
0.650578
0.654744
0.673072
0.731642
0.828049
0.927098
0.962819
0.964296
0.957902
0.952267
0.94811
0.949945
0.714795
0.714817
0.714836
0.714866
0.714886
0.714892
0.714889
0.714882
0.714862
0.714811
0.714737
0.714663
0.714595
0.714526
0.714443
0.714345
0.714236
0.714118
0.713986
0.713827
0.713618
0.713366
0.71307
0.712807
0.712683
0.712611
0.712429
0.711996
0.711388
0.710735
0.710061
0.709381
0.708665
0.707778
0.706391
0.70385
0.699409
0.692526
0.682613
0.670093
0.658262
0.650997
0.648494
0.648072
0.647942
0.647892
0.647949
0.648158
0.648603
0.650033
0.65281
0.661739
0.697381
0.776601
0.873816
0.932905
0.951051
0.947725
0.944012
0.946247
0.716561
0.71658
0.716593
0.716606
0.716605
0.716594
0.716569
0.716537
0.71652
0.716511
0.7165
0.716478
0.716488
0.716493
0.716477
0.71646
0.716441
0.716416
0.716407
0.716435
0.716478
0.716509
0.716519
0.716456
0.716221
0.715875
0.715699
0.715626
0.715537
0.715266
0.714575
0.713508
0.712193
0.710458
0.707944
0.704229
0.698596
0.690515
0.680393
0.669305
0.658791
0.652494
0.650728
0.650497
0.650474
0.65052
0.650559
0.650721
0.650947
0.651566
0.653364
0.657801
0.665841
0.687183
0.738895
0.81466
0.879272
0.914589
0.926256
0.939852
0.728715
0.728759
0.728767
0.728782
0.728783
0.728759
0.728723
0.728709
0.728764
0.728811
0.728733
0.728775
0.728959
0.729031
0.728972
0.729197
0.729476
0.729565
0.729457
0.729588
0.729917
0.730089
0.730125
0.730027
0.729504
0.728553
0.727686
0.727148
0.726682
0.725947
0.724617
0.722606
0.720035
0.71701
0.712754
0.706737
0.69919
0.690556
0.6819
0.673912
0.668043
0.666088
0.666218
0.666857
0.668076
0.669439
0.67081
0.672161
0.673653
0.675253
0.677184
0.678517
0.680396
0.689541
0.712032
0.74993
0.804476
0.863468
0.89904
0.934501
0.743654
0.743643
0.743628
0.743603
0.743541
0.743449
0.743378
0.743318
0.743262
0.743192
0.743115
0.743031
0.742945
0.742839
0.742718
0.742583
0.742412
0.742178
0.741889
0.741588
0.741263
0.740856
0.7403
0.739532
0.738545
0.737359
0.735976
0.73445
0.732833
0.731059
0.728932
0.726204
0.722664
0.717985
0.712219
0.705318
0.697234
0.688346
0.680022
0.674599
0.673146
0.6735
0.674813
0.676984
0.679757
0.682861
0.686005
0.689567
0.693676
0.698174
0.703292
0.709566
0.716621
0.724264
0.73716
0.761396
0.799028
0.843328
0.884078
0.933573
0.753474
0.753481
0.753494
0.753641
0.753864
0.753972
0.75404
0.754065
0.754082
0.754092
0.75402
0.753986
0.754034
0.754061
0.754075
0.754076
0.754032
0.753918
0.753767
0.753585
0.753366
0.7531
0.752764
0.752341
0.751811
0.751111
0.750137
0.748846
0.747268
0.74539
0.743068
0.740036
0.735976
0.730556
0.723717
0.715577
0.706471
0.697139
0.689454
0.686743
0.687403
0.689656
0.69325
0.697374
0.701507
0.705801
0.710581
0.715997
0.722094
0.729031
0.736981
0.745733
0.755153
0.763822
0.772346
0.784785
0.806528
0.841602
0.880111
0.934483
0.801096
0.801026
0.801129
0.801397
0.801505
0.801541
0.801672
0.801838
0.801964
0.802051
0.802035
0.802054
0.802098
0.802086
0.802024
0.801994
0.801977
0.801874
0.801615
0.801264
0.80085
0.800336
0.799689
0.798881
0.797872
0.796605
0.794985
0.792917
0.790365
0.787302
0.783652
0.779328
0.774285
0.768545
0.762172
0.755432
0.74957
0.747166
0.747648
0.749766
0.753832
0.759339
0.765198
0.770835
0.776437
0.78236
0.788806
0.795863
0.80356
0.811869
0.820925
0.830834
0.841432
0.852069
0.861385
0.86971
0.879724
0.896054
0.917958
0.956339
0.868221
0.867997
0.867684
0.867334
0.867107
0.866965
0.866693
0.86645
0.866233
0.865956
0.86545
0.864911
0.864491
0.863991
0.863303
0.862554
0.861794
0.860929
0.859888
0.858659
0.857237
0.855603
0.853728
0.851581
0.849133
0.846354
0.843214
0.839672
0.835701
0.831313
0.826582
0.821658
0.816697
0.811764
0.80741
0.805661
0.806265
0.808323
0.812175
0.817773
0.824297
0.830877
0.837226
0.843551
0.850147
0.857209
0.864797
0.872891
0.881465
0.890516
0.90001
0.909903
0.920187
0.930733
0.940584
0.948253
0.953567
0.95868
0.96594
0.982167
0.963216
0.96204
0.961107
0.960224
0.959103
0.95774
0.956465
0.955168
0.953784
0.952269
0.950412
0.948186
0.94599
0.943936
0.941945
0.93999
0.938002
0.935871
0.933535
0.931
0.928295
0.925435
0.922424
0.919267
0.915983
0.912597
0.90914
0.905653
0.90218
0.898812
0.895666
0.892762
0.890236
0.889178
0.889695
0.891212
0.893935
0.897994
0.903037
0.90846
0.913767
0.918819
0.923769
0.928811
0.934043
0.939468
0.945041
0.950711
0.956421
0.962108
0.967694
0.973085
0.978215
0.983048
0.987364
0.990606
0.992418
0.993398
0.994458
0.997121
1.01941
1.01862
1.01777
1.01684
1.0158
1.01467
1.01342
1.01206
1.01067
1.00925
1.00774
1.00587
1.00355
1.00109
0.998632
0.996179
0.993688
0.991101
0.988402
0.985608
0.982737
0.97987
0.977094
0.974377
0.971707
0.969124
0.966685
0.964474
0.962569
0.960927
0.959561
0.959114
0.959458
0.960271
0.961603
0.963545
0.965998
0.968726
0.971452
0.973998
0.976343
0.978559
0.980726
0.982877
0.985
0.987064
0.989036
0.99089
0.992602
0.994148
0.995511
0.996674
0.997637
0.998414
0.999014
0.999411
0.999602
0.999676
0.999731
0.999862
1.01737
1.01679
1.0161
1.01529
1.01452
1.0137
1.01282
1.01192
1.01095
1.00997
1.00919
1.00882
1.0088
1.00873
1.00824
1.00711
1.00574
1.00449
1.00336
1.00224
1.0011
0.999903
0.998692
0.99755
0.996485
0.995522
0.994696
0.994037
0.993514
0.993127
0.993062
0.993191
0.993459
0.993848
0.994359
0.994955
0.99557
0.996144
0.996647
0.997082
0.997471
0.997829
0.998164
0.998476
0.998761
0.999015
0.999235
0.999422
0.999577
0.999701
0.999797
0.999868
0.999918
0.999953
0.999975
0.999988
0.999993
0.999995
0.999996
0.999998
1.0079
1.0076
1.00731
1.00704
1.00674
1.00641
1.00609
1.00577
1.00541
1.00504
1.00467
1.00426
1.0038
1.00336
1.00294
1.00256
1.00219
1.00179
1.00141
1.00112
1.00088
1.00071
1.00051
1.00028
1.00008
0.999919
0.999796
0.999706
0.99964
0.99961
0.999614
0.99963
0.999657
0.999694
0.999737
0.99978
0.999818
0.999849
0.999875
0.999896
0.999914
0.99993
0.999945
0.999957
0.999967
0.999976
0.999983
0.999988
0.999992
0.999995
0.999997
0.999998
0.999999
0.999999
1
1
1
1
1
1
1.00118
1.00113
1.00108
1.00102
1.00097
1.00092
1.00087
1.00082
1.00077
1.00072
1.00067
1.00059
1.00051
1.00042
1.00036
1.00032
1.00028
1.00024
1.00021
1.00018
1.00015
1.00009
1.00006
1.00004
1.00003
1.00002
1.00001
1
0.999996
0.999994
0.999993
0.999994
0.999994
0.999995
0.999996
0.999997
0.999997
0.999998
0.999998
0.999999
0.999999
0.999999
0.999999
1
1
1
1
1
1
1
1
1
1
1
1
1
1
1
1
1
1.00004
1.00004
1.00004
1.00004
1.00003
1.00003
1.00003
1.00003
1.00003
1.00002
1.00002
1.00002
1.00002
1.00001
1.00001
1.00001
1.00001
1.00001
1.00001
1.00001
1
1
1
1
1
1
1
1
1
1
1
1
1
1
1
1
1
1
1
1
1
1
1
1
1
1
1
1
1
1
1
1
1
1
1
1
1
1
1
1
1
1
1
1
1
1
1
1
1
1
1
1
1
1
1
1
1
1
1
1
1
1
1
1
1
1
1
1
1
1
1
1
1
1
1
1
1
1
1
1
1
1
1
1
1
1
1
1
1
1
1
1
1
1
1
1
1
1
1
1
1
1
1
1
1
1
1
1
1
1
1
1
1
1
1
1
1
1
1
1
1
1
1
1
1
1
1
1
1
1
1
1
1
1
1
1
1
1
1
1
1
1
1
1
1
1
1
1
1
1
1
1
1
1
1
1
1
1
1
1
1
1
1
1
1
1
1
1
1
1
1
1
1
1
1
1
1
1
1
1
1
1
1
1
1
1
1
1
1
1
1
1
1
1
1
1
1
1
1
1
1
1
1
1
1
1
1
1
1
1
1
1
1
1
1
1
1
1
1
1
1
1
1
1
1
1
1
1
1
1
1
1
1
1
1
1
1
1
1
1
1
1
1
1
1
1
1
1
1
1
1
1
1
1
1
1
1
1
1
1
1
1
1
1
1
1
1
1
1
1
1
1
1
1
1
1
1
1
1
1
1
1
1
1
1
1
1
1
1
1
1
1
1
1
1
1
1
1
1
1
1
1
1
1
1
1
1
1
1
1
1
1
1
1
1
1
1
1
1
1
1
1
1
1
1
1
1
1
1
1
1
1
1
1
1
1
1
1
1
1
1
1
1
1
1
1
1
1
1
1
1
1
1
1
1
1
1
1
1
1
1
1
1
1
1
1
1
1
1
1
1
1
1
1
1
1
1
1
1
1
1
1
1
1
1
1
1
1
1
1
1
1
1
1
1
1
1
1
1
1
1
1
1
1
1
1
1
1
1
1
1
1
1
1
1
1
1
1
1
1
1
1
1
1
1
1
1
1
1
1
1
1
1
1
1
1
1
1
1
1
1
1
1
1
1
1
1
1
1
1
1
1
1
1
1
1
1
1
1
1
1
1
1
1
1
1
1
1
1
1
1
1
1
1
1
1
1
1
1
1
1
1
1
1
1
1
1
1
1
1
1
1
1
1
1
1
1
1
1
1
1
1
1
1
1
1
1
1
1
1
1
1
1
1
1
1
1
1
1
1
1
1
1
1
1
1
1
1
1
1
1
1
1
1
1
1
1
1
1
1
1
1
1
1
1
1
1
1
1
1
1
1
1
1
1
1
1
1
1
1
1
1
1
1
1
1
1
1
1
1
1
1
1
1
1
1
1
1
1
1
1
1
1
1
1
1
1
1
1
1
1
1
1
1
1
1
1
1
1
1
1
1
1
1
1
1
1
1
1
1
1
1
1
1
1
1
1
1
1
1
1
1
1
1
1
1
1
1
1
1
1
1
1
1
1
1
1
1
1
1
1
1
1
1
1
1
1
1
1
1
1
1
1
1
1
1
1
1
1
1
1
1
1
1
1
1
1
1
1
1
1
1
1
1
1
1
1
1
1
1
1
1
1
1
1
1
1
1
1
1
1
1
1
1
1
1
1
1
1
1
1
1
1
1
1
1
1
1
1
1
1
1
1
1
1
1
1
1
1
1
1
1
1
1
1
1
1
1
1
1
1
1
1
1
1
1
1
1
1
1
1
1
1
1
1
1
1
1
1
1
1
1
1
1
1
1
1
1
1
1
1
1
1
1
1
1
1
1
1
1
1
1
1
1
1
1
1
1
1
1
1
1
1
1
1
1
1
1
1
1
1
1
1
1
1
1
1
1
1
1
1
1
1
1
1
1
1
1
1
1
1
1
1
1
1
1
1
1
1
1
1
1
1
1
1
1
1
1
1
1
1
1
1
1
1
1
1
1
1
1
1
1
1
1
1
1
1
1
1
1
1
1
1
1
1
1
1
1
1
1
1
1
1
1
1
1
1
1
1
1
1
1
1
1
1
1
1
1
1
1
1
1
1
1
1
1
1
1
1
1
1
1
1
1
1
1
1
1
1
1
1
1
1
1
1
1
1
1
1
1
1
1
1
1
1
1
1
1
1
1
1
1
1
1
1
1
1
1
1
1
1
1
1
1
1
1
1
1
1
1
1
1
1
1
1
1
1
1
1
1
1
1
1
1
1
1
1
1
1
1
1
1
1
1
1
1
1
1
1
1
1
1
1
1
1
1
1
1
1
1
1
1
1
1
1
1
1
1
1
1
1
1
1
1
1
1
1
1
1
1
0.699773
0.700367
0.701063
0.701646
0.701828
0.701573
0.701318
0.701218
0.701325
0.702754
0.704223
0.704697
0.704168
0.704994
0.708176
0.712122
0.714752
0.716534
0.728636
0.743653
0.753375
0.801095
0.86866
0.964601
1.02033
1.01811
1.00828
1.00124
1.00005
1
1
1
1
1
1
1
1
1
1
1
1
1
1
1
1
0.699905
0.700514
0.701074
0.701613
0.701806
0.701548
0.701266
0.70107
0.701151
0.702661
0.704157
0.704683
0.704153
0.704962
0.708185
0.712117
0.714729
0.71656
0.728699
0.743691
0.753433
0.801472
0.869745
0.966682
1.02153
1.01907
1.00872
1.00131
1.00005
1
1
1
1
1
1
1
1
1
1
1
1
1
1
1
1
0.699853
0.700445
0.701052
0.701564
0.701761
0.701508
0.701218
0.700953
0.701042
0.702487
0.703931
0.704586
0.704144
0.704951
0.708158
0.712081
0.714695
0.716536
0.728713
0.743711
0.753432
0.801713
0.870673
0.968709
1.02267
1.0201
1.00921
1.0014
1.00005
1
1
1
1
1
1
1
1
1
1
1
1
1
1
1
1
0.699806
0.700414
0.701028
0.701497
0.70169
0.701451
0.701165
0.700881
0.700992
0.702399
0.703777
0.704509
0.704111
0.704929
0.708085
0.712012
0.714641
0.716485
0.728736
0.743705
0.753387
0.801948
0.871728
0.971015
1.02386
1.02113
1.00974
1.00149
1.00006
1
1
1
1
1
1
1
1
1
1
1
1
1
1
1
1
0.699774
0.700332
0.700968
0.701415
0.701607
0.701388
0.701097
0.700801
0.700969
0.702362
0.703686
0.704468
0.703974
0.70479
0.707902
0.711844
0.714543
0.716406
0.728744
0.743667
0.753301
0.802135
0.872915
0.973489
1.02507
1.0222
1.01032
1.00158
1.00006
1
1
1
1
1
1
1
1
1
1
1
1
1
1
1
1
0.699695
0.70026
0.700895
0.701313
0.70151
0.701318
0.701001
0.700697
0.700973
0.70236
0.703633
0.704451
0.703872
0.704671
0.707788
0.711732
0.714469
0.716347
0.728738
0.743604
0.753108
0.802297
0.874287
0.976073
1.02635
1.02331
1.01093
1.00169
1.00006
1
1
1
1
1
1
1
1
1
1
1
1
1
1
1
1
0.699619
0.700162
0.700786
0.70121
0.701407
0.701228
0.700867
0.700559
0.700999
0.702356
0.703633
0.704453
0.703838
0.704636
0.707788
0.711763
0.714448
0.716308
0.728703
0.74352
0.752758
0.802498
0.875822
0.978724
1.02771
1.02448
1.01156
1.0018
1.00007
1
1
1
1
1
1
1
1
1
1
1
1
1
1
1
1
0.699479
0.700072
0.700674
0.701098
0.701301
0.701123
0.7007
0.700379
0.700973
0.702259
0.703673
0.704463
0.703829
0.704637
0.707825
0.71178
0.714381
0.716221
0.728633
0.743418
0.75261
0.80282
0.87737
0.981423
1.02918
1.02569
1.01221
1.00191
1.00007
1
1
1
1
1
1
1
1
1
1
1
1
1
1
1
1
0.699345
0.699955
0.700537
0.700972
0.70119
0.701003
0.700511
0.700165
0.700733
0.702043
0.703633
0.704442
0.703756
0.704589
0.707774
0.711671
0.714199
0.716031
0.728536
0.743288
0.752618
0.803196
0.878883
0.984178
1.03076
1.027
1.01289
1.00204
1.00008
1
1
1
1
1
1
1
1
1
1
1
1
1
1
1
1
0.699167
0.699829
0.700397
0.700835
0.70107
0.700871
0.700324
0.699975
0.700507
0.701816
0.703396
0.704357
0.703459
0.704337
0.707543
0.711384
0.713882
0.715706
0.728398
0.743126
0.752513
0.803517
0.88045
0.986972
1.03241
1.02844
1.0136
1.00217
1.00008
1
1
1
1
1
1
1
1
1
1
1
1
1
1
1
1
0.69901
0.699666
0.700237
0.700682
0.700941
0.700731
0.700159
0.699849
0.700384
0.70163
0.703167
0.704219
0.703137
0.704036
0.707261
0.711112
0.71366
0.715492
0.728203
0.742945
0.752268
0.803865
0.882119
0.989721
1.03411
1.03001
1.01437
1.0023
1.00009
1
1
1
1
1
1
1
1
1
1
1
1
1
1
1
1
0.69882
0.699487
0.700078
0.70052
0.700806
0.700588
0.700022
0.699778
0.700302
0.701493
0.702998
0.70403
0.702924
0.703827
0.707101
0.710969
0.713526
0.715382
0.728051
0.742749
0.751898
0.804259
0.883874
0.992412
1.03592
1.03175
1.01521
1.00245
1.0001
1
1
1
1
1
1
1
1
1
1
1
1
1
1
1
1
0.698643
0.69928
0.699895
0.700342
0.70066
0.700431
0.699907
0.699745
0.70027
0.701404
0.702867
0.70382
0.702726
0.703661
0.707062
0.71097
0.713472
0.715364
0.727952
0.742593
0.751628
0.804714
0.885724
0.995089
1.03794
1.03362
1.01611
1.0026
1.0001
1
1
1
1
1
1
1
1
1
1
1
1
1
1
1
1
0.698414
0.699073
0.699707
0.700152
0.700492
0.700252
0.699804
0.699754
0.700305
0.701364
0.702782
0.703616
0.702517
0.703574
0.707185
0.711013
0.713302
0.715233
0.727631
0.742479
0.751482
0.805243
0.887666
0.997849
1.04025
1.03556
1.01706
1.00277
1.00011
1
1
1
1
1
1
1
1
1
1
1
1
1
1
1
1
0.698198
0.698843
0.69949
0.699932
0.700294
0.700051
0.699697
0.699821
0.700388
0.701367
0.702731
0.703446
0.702369
0.703628
0.707327
0.710941
0.712631
0.7146
0.726689
0.742101
0.75119
0.80586
0.889717
1.00076
1.04272
1.03754
1.01806
1.00294
1.00012
1
1
1
1
1
1
1
1
1
1
1
1
1
1
1
1
0.697955
0.698605
0.699258
0.699686
0.700064
0.699828
0.699559
0.69986
0.700374
0.701362
0.702693
0.703325
0.702416
0.703764
0.707357
0.710481
0.711966
0.713753
0.725758
0.741304
0.750593
0.806556
0.891955
1.00379
1.04516
1.03957
1.01912
1.00313
1.00013
1
1
1
1
1
1
1
1
1
1
1
1
1
1
1
1
0.697716
0.698345
0.699
0.699403
0.699793
0.699575
0.699346
0.699727
0.700137
0.701273
0.702641
0.703282
0.70262
0.703679
0.707048
0.709664
0.711543
0.713153
0.724935
0.740694
0.750296
0.807378
0.894445
1.00688
1.04752
1.04173
1.02025
1.00333
1.00014
1
1
1
1
1
1
1
1
1
1
1
1
1
1
1
1
0.697463
0.69807
0.698721
0.699084
0.699473
0.699282
0.699026
0.699334
0.699936
0.701125
0.702483
0.703279
0.702677
0.703283
0.706366
0.709041
0.711241
0.712672
0.724122
0.74023
0.75047
0.808347
0.897086
1.00999
1.04987
1.04406
1.02147
1.00355
1.00014
1
1
1
1
1
1
1
1
1
1
1
1
1
1
1
1
0.6972
0.69778
0.698419
0.698724
0.699098
0.69894
0.698697
0.698998
0.69975
0.70095
0.702159
0.702937
0.702277
0.702988
0.705877
0.708507
0.711045
0.712247
0.723332
0.739843
0.750487
0.80938
0.899735
1.01321
1.05237
1.04653
1.02275
1.00377
1.00015
1
1
1
1
1
1
1
1
1
1
1
1
1
1
1
1
0.696923
0.697472
0.698095
0.698325
0.698671
0.698553
0.698388
0.698834
0.699589
0.700739
0.701786
0.702091
0.70154
0.702586
0.705409
0.708055
0.710876
0.711816
0.722573
0.739494
0.750384
0.810376
0.902391
1.01665
1.05516
1.04908
1.02408
1.004
1.00016
1
1
1
1
1
1
1
1
1
1
1
1
1
1
1
1
0.696638
0.697138
0.697744
0.697895
0.698208
0.698119
0.698061
0.698914
0.699494
0.700468
0.70149
0.70155
0.700985
0.701959
0.704799
0.707752
0.710711
0.711317
0.721795
0.739137
0.750439
0.811369
0.905132
1.02029
1.05824
1.05169
1.02546
1.00424
1.00017
1
1
1
1
1
1
1
1
1
1
1
1
1
1
1
1
0.696336
0.696762
0.697362
0.697445
0.697721
0.697644
0.697691
0.699097
0.699398
0.700062
0.701149
0.701175
0.700542
0.701293
0.704154
0.707558
0.710549
0.710757
0.720907
0.738839
0.750619
0.81237
0.908002
1.02406
1.06149
1.05444
1.0269
1.0045
1.00018
1
1
1
1
1
1
1
1
1
1
1
1
1
1
1
1
0.696013
0.696343
0.696941
0.696968
0.697227
0.697128
0.697261
0.699093
0.699027
0.699497
0.700545
0.700615
0.700207
0.700932
0.703892
0.707282
0.710285
0.710095
0.7198
0.738443
0.75087
0.81348
0.911023
1.02797
1.06493
1.05745
1.02842
1.00475
1.00019
1
1
1
1
1
1
1
1
1
1
1
1
1
1
1
1
0.69565
0.695887
0.696482
0.696466
0.696736
0.696634
0.696692
0.698783
0.698453
0.698845
0.699613
0.699706
0.699871
0.701066
0.704106
0.706973
0.709756
0.70924
0.718408
0.737374
0.751033
0.814768
0.914224
1.03221
1.06865
1.06074
1.03
1.00502
1.0002
1
1
1
1
1
1
1
1
1
1
1
1
1
1
1
1
0.69524
0.695393
0.695965
0.695939
0.696243
0.696237
0.69619
0.697795
0.697833
0.698134
0.698552
0.69862
0.699294
0.701339
0.704308
0.706622
0.709127
0.708163
0.716711
0.735997
0.751202
0.81621
0.917693
1.03678
1.07262
1.06421
1.03164
1.00528
1.00021
1
1
1
1
1
1
1
1
1
1
1
1
1
1
1
1
0.694779
0.694878
0.695395
0.695384
0.69571
0.695897
0.695895
0.697075
0.696877
0.697244
0.697713
0.697953
0.698876
0.701369
0.704254
0.706051
0.708474
0.706973
0.714733
0.734801
0.751453
0.817768
0.92148
1.04147
1.07666
1.06784
1.03337
1.00555
1.00022
1
1
1
1
1
1
1
1
1
1
1
1
1
1
1
1
0.694251
0.694335
0.694798
0.694816
0.695091
0.695283
0.695383
0.696652
0.696161
0.696702
0.697336
0.6978
0.698847
0.701008
0.703533
0.70558
0.707768
0.705729
0.712444
0.73362
0.751791
0.81946
0.925478
1.04619
1.08086
1.07168
1.03518
1.00583
1.00023
1
1
1
1
1
1
1
1
1
1
1
1
1
1
1
1
0.693584
0.693683
0.694134
0.694221
0.694392
0.694209
0.694176
0.695711
0.695886
0.696695
0.697451
0.698102
0.698732
0.699639
0.702248
0.705217
0.707001
0.704364
0.709747
0.732139
0.752214
0.821213
0.929634
1.05121
1.08542
1.07573
1.03706
1.0061
1.00024
1
1
1
1
1
1
1
1
1
1
1
1
1
1
1
1
0.692594
0.692716
0.693216
0.693472
0.693627
0.693472
0.693626
0.694725
0.695923
0.696936
0.697661
0.698168
0.6982
0.698275
0.70157
0.704784
0.70606
0.702596
0.70657
0.7299
0.75265
0.822992
0.93413
1.05677
1.0904
1.07991
1.03897
1.00636
1.00025
1
1
1
1
1
1
1
1
1
1
1
1
1
1
1
1
0.691459
0.691613
0.692184
0.692658
0.693025
0.693222
0.693801
0.694627
0.695886
0.696899
0.697636
0.697908
0.696961
0.697476
0.701324
0.704109
0.704446
0.70006
0.70298
0.726767
0.752968
0.825036
0.939282
1.06301
1.09567
1.08426
1.04089
1.0066
1.00026
1
1
1
1
1
1
1
1
1
1
1
1
1
1
1
1
0.690998
0.69119
0.691804
0.692372
0.692913
0.693441
0.69389
0.694909
0.695711
0.696657
0.697323
0.696612
0.69612
0.697281
0.701241
0.702925
0.701842
0.696696
0.699157
0.723493
0.753249
0.827704
0.945195
1.0698
1.10124
1.08882
1.04283
1.00683
1.00026
1
1
1
1
1
1
1
1
1
1
1
1
1
1
1
1
0.691988
0.692182
0.692637
0.692985
0.693209
0.693384
0.693444
0.694631
0.694983
0.695357
0.695679
0.695259
0.695937
0.697652
0.700913
0.701177
0.698658
0.693047
0.695184
0.720804
0.753735
0.831017
0.951702
1.07694
1.10709
1.09363
1.04478
1.00704
1.00026
1
1
1
1
1
1
1
1
1
1
1
1
1
1
1
1
0.693153
0.693232
0.693365
0.693317
0.692985
0.692886
0.692852
0.694008
0.693582
0.69352
0.693935
0.694892
0.696377
0.697767
0.699703
0.698813
0.694908
0.689341
0.690876
0.71862
0.754867
0.834763
0.958522
1.08421
1.11327
1.0987
1.04674
1.00722
1.00026
1
1
1
1
1
1
1
1
1
1
1
1
1
1
1
1
0.693292
0.693292
0.693194
0.692851
0.69243
0.69241
0.692515
0.693309
0.692857
0.692775
0.693381
0.695055
0.696358
0.697643
0.697984
0.695446
0.690174
0.685179
0.685811
0.715824
0.756667
0.838978
0.965735
1.09187
1.11995
1.104
1.04864
1.00736
1.00026
1
1
1
1
1
1
1
1
1
1
1
1
1
1
1
1
0.692897
0.692797
0.692571
0.692233
0.691969
0.692133
0.6924
0.692542
0.692802
0.692804
0.693342
0.694794
0.69582
0.697661
0.695471
0.690419
0.6841
0.680416
0.680082
0.71058
0.758592
0.843693
0.973728
1.10033
1.12711
1.10944
1.05045
1.00745
1.00026
1
1
1
1
1
1
1
1
1
1
1
1
1
1
1
1
0.69243
0.692263
0.691967
0.6917
0.691565
0.691836
0.692506
0.692076
0.692318
0.692338
0.69294
0.694119
0.695156
0.697037
0.691468
0.682962
0.676763
0.675146
0.674797
0.706539
0.760484
0.8493
0.983051
1.1097
1.13449
1.11501
1.05213
1.00749
1.00025
1
1
1
1
1
1
1
1
1
1
1
1
1
1
1
1
0.692015
0.691817
0.691415
0.691109
0.691099
0.691447
0.692558
0.692282
0.691559
0.6913
0.691991
0.693203
0.694508
0.693736
0.684426
0.673336
0.66858
0.669494
0.670776
0.705698
0.763678
0.8563
0.993671
1.11962
1.14206
1.12075
1.05366
1.00748
1.00024
1
1
1
1
1
1
1
1
1
1
1
1
1
1
1
1
0.691663
0.691429
0.690922
0.690509
0.69056
0.691
0.692024
0.691961
0.690785
0.69012
0.690667
0.691358
0.69206
0.685561
0.674574
0.662709
0.660046
0.66375
0.668108
0.706372
0.768485
0.864585
1.0053
1.12985
1.1501
1.12666
1.05501
1.0074
1.00023
1
1
1
1
1
1
1
1
1
1
1
1
1
1
1
1
0.691246
0.690958
0.690396
0.689984
0.689977
0.690428
0.690425
0.69036
0.690073
0.688543
0.687659
0.685501
0.682662
0.675429
0.663979
0.652326
0.651343
0.658287
0.666407
0.707069
0.774075
0.873759
1.01784
1.14065
1.15893
1.13264
1.05608
1.00723
1.00021
1
1
1
1
1
1
1
1
1
1
1
1
1
1
1
1
0.690019
0.689343
0.688674
0.687957
0.68765
0.687411
0.686577
0.686098
0.686236
0.681951
0.678309
0.674503
0.670813
0.665216
0.65362
0.642741
0.642771
0.653179
0.664695
0.708247
0.780179
0.883969
1.03152
1.15237
1.16856
1.13861
1.05682
1.00699
1.0002
1
1
1
1
1
1
1
1
1
1
1
1
1
1
1
1
0.685053
0.682668
0.681715
0.680029
0.679125
0.67831
0.67781
0.676938
0.675166
0.669849
0.66635
0.662555
0.659445
0.655024
0.64354
0.633824
0.634572
0.648236
0.662376
0.711004
0.78783
0.895585
1.04665
1.16493
1.17874
1.14454
1.05717
1.00669
1.00018
1
1
1
1
1
1
1
1
1
1
1
1
1
1
1
1
0.677454
0.674597
0.672982
0.671067
0.669372
0.667777
0.666649
0.665454
0.663742
0.659105
0.655133
0.651056
0.648353
0.644273
0.633834
0.625641
0.626931
0.643537
0.661174
0.716784
0.797454
0.908949
1.06332
1.17807
1.18941
1.15031
1.05721
1.0063
1.00016
1
1
1
1
1
1
1
1
1
1
1
1
1
1
1
1
0.667755
0.66567
0.664017
0.662158
0.660066
0.657442
0.655221
0.653415
0.652122
0.64854
0.644524
0.640112
0.637515
0.633153
0.625174
0.618486
0.620243
0.639833
0.663308
0.726444
0.808015
0.924017
1.0816
1.19167
1.20054
1.15568
1.05662
1.00582
1.00014
1
1
1
1
1
1
1
1
1
1
1
1
1
1
1
1
0.65426
0.653347
0.652148
0.650678
0.649269
0.646319
0.64351
0.641236
0.639357
0.637094
0.633921
0.629499
0.62682
0.62296
0.618107
0.612647
0.614963
0.637991
0.668741
0.73628
0.819525
0.941034
1.10129
1.20573
1.21204
1.16044
1.05537
1.00531
1.00012
1
1
1
1
1
1
1
1
1
1
1
1
1
1
1
1
0.639992
0.639356
0.63841
0.637371
0.636502
0.634524
0.63213
0.630045
0.62829
0.626524
0.62376
0.619624
0.617166
0.614312
0.612545
0.608284
0.611254
0.637712
0.673555
0.746761
0.834423
0.959566
1.12221
1.22038
1.22385
1.16462
1.05374