/*--------------------------------*- C++ -*----------------------------------*\
  =========                 |
  \\      /  F ield         | OpenFOAM: The Open Source CFD Toolbox
   \\    /   O peration     | Website:  https://openfoam.org
    \\  /    A nd           | Version:  7
     \\/     M anipulation  |
\*---------------------------------------------------------------------------*/
FoamFile
{
    version     2.0;
    format      ascii;
    class       volScalarField;
    location    "2";
    object      p;
}
// * * * * * * * * * * * * * * * * * * * * * * * * * * * * * * * * * * * * * //

dimensions      [1 -1 -2 0 0 0 0];

internalField   nonuniform List<scalar> 
90000
(
0.0639112
0.0962411
0.12376
0.155606
0.183349
0.199594
0.220888
0.246287
0.263266
0.280955
0.302867
0.323605
0.34685
0.371096
0.397759
0.426761
0.45699
0.490182
0.525008
0.560827
0.596251
0.633168
0.669526
0.70562
0.738617
0.772301
0.797313
0.823589
0.837887
0.84897
0.85252
0.849505
0.846775
0.842676
0.830376
0.820305
0.820403
0.820379
0.811737
0.803436
0.798523
0.791936
0.786308
0.781045
0.780289
0.777332
0.77046
0.769283
0.766422
0.760508
0.761701
0.767562
0.770474
0.773407
0.778975
0.784056
0.784693
0.783277
0.778831
0.772895
0.766411
0.762231
0.761002
0.764404
0.769551
0.777911
0.787334
0.793439
0.795001
0.790791
0.782402
0.77015
0.760587
0.751566
0.752234
0.755751
0.761904
0.765956
0.767938
0.768214
0.764892
0.759205
0.753835
0.755768
0.763038
0.775068
0.782666
0.790243
0.792166
0.79737
0.800554
0.80705
0.816076
0.824633
0.829223
0.840051
0.864483
0.875271
0.888032
0.901168
0.0361108
0.0361023
0.036091
0.0360781
0.0360646
0.0360564
0.0360519
0.0360438
0.0360299
0.036018
0.0360057
0.0360026
0.0359625
0.0361244
0.0371561
0.0394074
0.0437233
0.050122
0.060182
0.0722817
0.0896083
0.109702
0.137327
0.168954
0.209404
0.255409
0.312507
0.373561
0.441479
0.512629
0.58304
0.653771
0.707613
0.760796
0.792539
0.81958
0.828833
0.839512
0.82917
0.814908
0.803493
0.793256
0.783719
0.781517
0.777386
0.779579
0.785522
0.788641
0.790832
0.794028
0.796701
0.79649
0.793592
0.793131
0.791204
0.784608
0.777462
0.772916
0.77191
0.770895
0.773935
0.776824
0.781879
0.784075
0.78409
0.78384
0.780552
0.774611
0.76626
0.76038
0.756702
0.758032
0.759603
0.764432
0.768718
0.77229
0.77729
0.773022
0.766293
0.759027
0.755543
0.756783
0.760445
0.768709
0.778883
0.790039
0.79505
0.800805
0.802168
0.80561
0.809538
0.815079
0.82481
0.833702
0.835038
0.845603
0.869355
0.878149
0.884635
0.90465
0.0362609
0.03626
0.0362643
0.0362672
0.036267
0.0362703
0.0362797
0.0362808
0.0362753
0.0362704
0.0362714
0.0362685
0.0362644
0.0362557
0.036246
0.0362551
0.0362222
0.0361872
0.0361548
0.0361398
0.0361378
0.0361059
0.0360646
0.0360362
0.0360238
0.0360426
0.0360516
0.0371082
0.0430178
0.0541957
0.0758296
0.104666
0.148332
0.197967
0.264167
0.33266
0.407088
0.480408
0.548939
0.615784
0.676816
0.733312
0.769554
0.812353
0.831103
0.852189
0.863891
0.868403
0.862556
0.858407
0.846218
0.825597
0.798886
0.767852
0.733621
0.706372
0.701218
0.709775
0.729918
0.761023
0.79172
0.80914
0.818508
0.810249
0.794498
0.7758
0.758519
0.750936
0.75159
0.758588
0.771498
0.782993
0.78732
0.791759
0.781975
0.768535
0.755086
0.751764
0.754113
0.759902
0.766171
0.774507
0.784592
0.793864
0.7998
0.800934
0.797637
0.799448
0.805534
0.808585
0.813294
0.821761
0.833306
0.831671
0.829887
0.842248
0.863188
0.874899
0.888018
0.909767
0.0361714
0.0361752
0.03618
0.0361872
0.0361924
0.0361955
0.0362017
0.0362071
0.0362108
0.0362176
0.0362252
0.0362292
0.0362353
0.0362385
0.0362399
0.0362383
0.0362387
0.0362366
0.0362348
0.0362425
0.0362367
0.0362097
0.0361891
0.0361839
0.0361904
0.0362156
0.0362306
0.0362281
0.0362266
0.0362426
0.036279
0.0362911
0.0362951
0.0363017
0.0363243
0.0363394
0.0407656
0.0507815
0.0748069
0.108549
0.157799
0.217532
0.291946
0.368089
0.455894
0.534979
0.604039
0.672448
0.72057
0.757623
0.792014
0.794022
0.798551
0.787218
0.774716
0.781176
0.785057
0.776289
0.770886
0.772234
0.767523
0.7621
0.761432
0.7657
0.769897
0.767639
0.770039
0.766925
0.769958
0.774632
0.780281
0.777943
0.774186
0.766016
0.761736
0.759586
0.761623
0.765032
0.772073
0.777653
0.779629
0.779331
0.781133
0.787122
0.79419
0.801431
0.804991
0.810415
0.819327
0.821632
0.828522
0.837425
0.839548
0.839003
0.837466
0.852152
0.87445
0.881703
0.892111
0.913251
0.0363203
0.0363207
0.0363181
0.0363149
0.0363127
0.0363106
0.0363099
0.0363123
0.0363183
0.0363246
0.03633
0.0363399
0.0363515
0.0363587
0.036363
0.0363602
0.0363508
0.0363366
0.0363257
0.0363172
0.036297
0.0362636
0.0362481
0.0362491
0.0362624
0.0362823
0.0362891
0.0362889
0.0362842
0.0363044
0.0363566
0.03637
0.0363704
0.036362
0.0363467
0.0363315
0.036319
0.0363009
0.0362776
0.036243
0.0361883
0.0360919
0.0359968
0.0375495
0.0498709
0.0718688
0.114807
0.169863
0.25217
0.344906
0.449928
0.548809
0.659061
0.732078
0.812494
0.845625
0.848677
0.836547
0.822777
0.799832
0.767604
0.725335
0.703268
0.711115
0.73302
0.75859
0.782147
0.796194
0.798798
0.789418
0.768214
0.747123
0.735562
0.734292
0.747219
0.765465
0.779409
0.785858
0.78135
0.779948
0.779444
0.785116
0.795877
0.805293
0.816386
0.821498
0.823021
0.81817
0.818552
0.817282
0.822912
0.832509
0.841851
0.844389
0.843541
0.860207
0.87376
0.879923
0.892791
0.912751
0.0363378
0.0363366
0.0363343
0.0363305
0.0363283
0.0363274
0.0363288
0.0363316
0.036335
0.0363367
0.0363387
0.0363482
0.0363652
0.036371
0.0363718
0.036368
0.0363525
0.0363335
0.0363197
0.0363044
0.0362744
0.0362492
0.0362496
0.0362561
0.0362754
0.0362941
0.0363022
0.0363031
0.0362977
0.036317
0.0363643
0.0363785
0.0363804
0.036383
0.0363836
0.0363463
0.0362649
0.036206
0.0361684
0.0361332
0.0360682
0.0359703
0.035935
0.0359593
0.0359988
0.035993
0.0359508
0.0358971
0.0358694
0.0370323
0.0467709
0.0835836
0.137299
0.237503
0.357354
0.477449
0.594536
0.657661
0.723406
0.734378
0.74145
0.732066
0.734409
0.746207
0.759833
0.772027
0.780083
0.79434
0.790929
0.77496
0.763433
0.75766
0.756332
0.756749
0.76226
0.771069
0.779932
0.785889
0.786857
0.781377
0.781948
0.784448
0.798632
0.81161
0.818649
0.818448
0.816174
0.819064
0.827772
0.831103
0.835178
0.844469
0.846708
0.847785
0.852769
0.868797
0.875427
0.879978
0.894841
0.915106
0.0362685
0.0362679
0.0362672
0.0362657
0.0362623
0.0362609
0.0362625
0.036266
0.0362669
0.0362625
0.0362632
0.0362749
0.0362904
0.0362947
0.0362934
0.0362789
0.036246
0.0362235
0.0362155
0.036208
0.0361975
0.0362003
0.0362324
0.0362587
0.0362631
0.0362647
0.0362655
0.0362553
0.0362446
0.0362708
0.0363085
0.0363118
0.0363055
0.0362932
0.0362712
0.0362298
0.03618
0.0361318
0.0360941
0.036057
0.0359864
0.0359024
0.0358929
0.0359362
0.0359638
0.0359573
0.0359172
0.0358674
0.0358368
0.0358325
0.0358684
0.0358771
0.0358761
0.035905
0.0368176
0.0585192
0.103757
0.193087
0.308059
0.442257
0.581025
0.687751
0.751051
0.785177
0.785746
0.778297
0.771417
0.760327
0.737004
0.727081
0.739005
0.754982
0.768146
0.777078
0.775719
0.770099
0.770403
0.77547
0.787057
0.79603
0.803058
0.807306
0.808448
0.811559
0.816511
0.820347
0.823596
0.82153
0.8276
0.832223
0.837633
0.84355
0.844488
0.848253
0.851095
0.863572
0.883022
0.88947
0.903209
0.918776
0.0362658
0.0362663
0.0362667
0.036267
0.0362671
0.0362652
0.0362641
0.0362653
0.0362639
0.0362579
0.0362661
0.0362745
0.0362751
0.0362716
0.0362492
0.036184
0.0361086
0.0360892
0.0360901
0.0360913
0.03609
0.0360948
0.0360986
0.0360971
0.0360925
0.0360899
0.0360881
0.0360812
0.0360959
0.0361538
0.0362029
0.0362035
0.0361923
0.0361833
0.0361737
0.0361522
0.0361215
0.0360853
0.0360509
0.0360111
0.0359473
0.0358956
0.0358992
0.0359397
0.0359594
0.0359561
0.0359239
0.035864
0.0358033
0.0357652
0.0357248
0.0356954
0.0357125
0.0358122
0.0359379
0.0358941
0.0357797
0.0356051
0.0352312
0.0522612
0.0984669
0.207151
0.337588
0.466441
0.592658
0.634819
0.692739
0.699659
0.715277
0.731558
0.760653
0.780544
0.793108
0.795633
0.788917
0.780554
0.775456
0.774661
0.779497
0.790712
0.802979
0.818379
0.81997
0.817088
0.815251
0.818664
0.828278
0.834932
0.838157
0.832669
0.833525
0.843052
0.849516
0.855663
0.860612
0.866084
0.872221
0.88099
0.9006
0.914508
0.0363017
0.036302
0.0363014
0.0362995
0.0362936
0.0362823
0.0362722
0.036261
0.0362459
0.0362446
0.0362557
0.0362658
0.0362649
0.0362455
0.0361685
0.036053
0.0359732
0.0359306
0.0359121
0.0359078
0.0359033
0.0358846
0.0358663
0.0358663
0.0358679
0.0358704
0.0358819
0.0359096
0.0359773
0.0360974
0.036144
0.0361336
0.0361036
0.0360917
0.0360891
0.0360911
0.0360882
0.0360733
0.0360543
0.0360243
0.0359588
0.0358969
0.035895
0.0359271
0.0359337
0.0359275
0.0358917
0.0358136
0.0357337
0.0356234
0.0354423
0.0352534
0.0351973
0.0351691
0.0351134
0.0350176
0.0349951
0.0349526
0.0348776
0.0347602
0.034476
0.034098
0.0361703
0.0579018
0.120895
0.237829
0.378332
0.515684
0.664261
0.721328
0.765486
0.772306
0.7863
0.789518
0.781183
0.77967
0.785345
0.788318
0.793711
0.805727
0.817999
0.819228
0.818612
0.817382
0.817521
0.819561
0.825265
0.834314
0.838262
0.836853
0.837645
0.841848
0.84647
0.8524
0.864576
0.875055
0.877538
0.887145
0.899472
0.913873
0.0362606
0.0362501
0.0362346
0.0362116
0.0361866
0.0361708
0.0361569
0.0361373
0.0361283
0.0361292
0.0361287
0.0361274
0.0361232
0.0360955
0.036008
0.0359162
0.0358553
0.0358116
0.0357901
0.0357865
0.0357838
0.0357743
0.035767
0.0357645
0.0357591
0.0357615
0.0357764
0.0358345
0.035976
0.0361035
0.0361172
0.0360885
0.0360315
0.0360073
0.035993
0.0360066
0.0360158
0.0360102
0.0360084
0.0359959
0.0359467
0.0358728
0.0358508
0.0358668
0.0358634
0.03585
0.0357872
0.0355534
0.0352004
0.0349796
0.0348369
0.034663
0.0344757
0.0343421
0.034318
0.0343276
0.0344177
0.0345448
0.0345568
0.03449
0.034152
0.0338869
0.0338844
0.0339505
0.0339668
0.0338811
0.0390738
0.0899003
0.182521
0.343601
0.504118
0.598632
0.696371
0.720595
0.755799
0.780075
0.816589
0.809668
0.805815
0.810459
0.81457
0.814953
0.816369
0.821001
0.828606
0.833197
0.836767
0.839886
0.83872
0.838584
0.841656
0.847936
0.852929
0.855249
0.860207
0.870455
0.881333
0.894669
0.906322
0.91476
0.0361676
0.0361493
0.0361294
0.0361113
0.036094
0.0360756
0.036058
0.0360378
0.0360286
0.036025
0.0360152
0.0359953
0.0359742
0.0359281
0.0358482
0.0358023
0.0357803
0.0357686
0.0357626
0.0357566
0.0357485
0.0357462
0.0357428
0.0357304
0.0357086
0.0357073
0.0357344
0.035846
0.0360056
0.0360711
0.0360755
0.0360536
0.0359753
0.0358737
0.0357841
0.035682
0.035611
0.0356162
0.0357083
0.0357683
0.0357577
0.0356988
0.0355973
0.0354983
0.0354079
0.0353006
0.0351639
0.0349702
0.0347518
0.0345493
0.0343992
0.0343027
0.0342337
0.0341495
0.0340942
0.034085
0.0341297
0.0342453
0.0342599
0.0342056
0.0339428
0.0338355
0.0338457
0.0339623
0.0343195
0.035308
0.036769
0.0376091
0.0379887
0.0440909
0.0724327
0.166776
0.295643
0.459221
0.638222
0.718768
0.768082
0.787453
0.80965
0.824004
0.812427
0.822204
0.824885
0.830256
0.834078
0.835733
0.834231
0.829145
0.826721
0.832967
0.842711
0.851492
0.85319
0.850429
0.853004
0.864113
0.882438
0.900969
0.90624
0.913982
0.0359823
0.0359807
0.0359791
0.0359864
0.0360053
0.0360097
0.036007
0.0360012
0.0359903
0.0359819
0.0359722
0.0359568
0.0359282
0.0358871
0.0358507
0.0358123
0.0357951
0.0357944
0.0357904
0.0357737
0.0357365
0.0357224
0.0357205
0.0357077
0.0356645
0.0356464
0.0356655
0.0357951
0.0359594
0.035977
0.035957
0.0358816
0.0356671
0.035344
0.0350735
0.0347967
0.0345877
0.0345818
0.0347495
0.0348649
0.0348388
0.0346803
0.0344439
0.0343426
0.034363
0.0345665
0.0348159
0.0348351
0.0347695
0.0345682
0.0343392
0.0342635
0.0342337
0.034129
0.0339617
0.0339198
0.0339401
0.0340822
0.034163
0.0341361
0.033927
0.0339435
0.0343832
0.0355711
0.0374805
0.0393253
0.0405965
0.0412197
0.0412317
0.0413349
0.0414167
0.0417254
0.0425171
0.0728762
0.151027
0.312537
0.475659
0.638922
0.71605
0.774416
0.789063
0.845424
0.837867
0.838075
0.834422
0.836322
0.83198
0.834899
0.843371
0.853012
0.857497
0.857044
0.857694
0.861821
0.866534
0.876907
0.888539
0.900764
0.907013
0.916923
0.0360755
0.0360779
0.0360717
0.0360697
0.0360811
0.0360855
0.0360833
0.0360783
0.0360702
0.0360465
0.0360267
0.0360239
0.0360062
0.0359395
0.0358729
0.0358386
0.0358188
0.0357962
0.0357618
0.0357085
0.0356131
0.0355813
0.0355715
0.0355143
0.0353212
0.0351982
0.0352361
0.0352712
0.0352602
0.0352138
0.0350959
0.0348392
0.0344384
0.0340922
0.0338895
0.0337175
0.0336559
0.0336809
0.0339576
0.0342092
0.0341891
0.0340059
0.0338525
0.0338481
0.0339276
0.0343267
0.0347449
0.0347779
0.0347321
0.0345687
0.0343644
0.0342737
0.0342088
0.0340455
0.0338783
0.0338591
0.0338928
0.0340428
0.034198
0.0345041
0.0353125
0.0367785
0.038445
0.039932
0.0411791
0.0420655
0.0425182
0.042353
0.0420845
0.0419991
0.0427835
0.0448451
0.0475639
0.0494486
0.0512701
0.0513944
0.0737952
0.156872
0.307032
0.491423
0.653632
0.741278
0.76936
0.814978
0.855893
0.868222
0.853356
0.849666
0.843561
0.838506
0.843238
0.851063
0.86348
0.868884
0.87082
0.875432
0.885448
0.898822
0.903329
0.912962
0.0358778
0.0358781
0.0358736
0.0358698
0.0358574
0.0357905
0.03568
0.0355854
0.035501
0.0354069
0.0353175
0.0352551
0.0352161
0.035167
0.0350666
0.0349386
0.0348614
0.0348106
0.0347283
0.0346339
0.03454
0.0345246
0.0344908
0.0342867
0.0339577
0.033926
0.0340654
0.034198
0.0342032
0.0341884
0.0341407
0.0340365
0.0338229
0.0335912
0.0334769
0.0334208
0.0333997
0.0334339
0.0337829
0.0341678
0.0341645
0.033957
0.0337558
0.0337329
0.0337944
0.0341182
0.0345303
0.0345902
0.0345772
0.0344889
0.0343172
0.0342428
0.0341716
0.0340462
0.0340035
0.0340647
0.0343126
0.0350681
0.0366335
0.0386167
0.0405439
0.0420418
0.042708
0.0426843
0.0428046
0.0431579
0.0431668
0.0427126
0.0430621
0.0449918
0.048159
0.0511532
0.0522354
0.0525864
0.0533176
0.054215
0.0543109
0.0545883
0.0551534
0.0798492
0.182128
0.326172
0.513203
0.673742
0.743541
0.78676
0.829051
0.883344
0.876116
0.845309
0.85658
0.857458
0.862126
0.863254
0.872617
0.88544
0.893935
0.902214
0.901246
0.913039
0.0339583
0.033897
0.0338336
0.0337798
0.0337264
0.0336635
0.033608
0.0335478
0.0334543
0.0333842
0.0333836
0.0334292
0.0334997
0.0335179
0.0335121
0.0335251
0.0335976
0.0336653
0.0336874
0.0337065
0.0338278
0.0339905
0.0339944
0.0338034
0.0335812
0.0335938
0.0338321
0.0340136
0.0340179
0.0339898
0.0340013
0.0340848
0.0341019
0.0340498
0.0339461
0.0338127
0.03371
0.0337165
0.0340071
0.0344921
0.0345293
0.0342977
0.0337806
0.0336989
0.0337208
0.0339487
0.0343782
0.0344787
0.0345061
0.034471
0.034395
0.0345343
0.0350955
0.0362207
0.0375568
0.0387259
0.0398639
0.0410001
0.0419878
0.0428011
0.0436148
0.0441244
0.0440717
0.0436689
0.0434406
0.0437214
0.0445705
0.046498
0.0491745
0.0511657
0.0528574
0.0545183
0.0546038
0.0541442
0.0541162
0.0551698
0.0577659
0.0604887
0.0618763
0.0624894
0.0638214
0.064465
0.105635
0.194745
0.362593
0.542095
0.705615
0.779405
0.804554
0.819983
0.898587
0.892736
0.878125
0.865224
0.864914
0.878384
0.888156
0.898378
0.904113
0.92575
0.032482
0.0324766
0.0324555
0.032445
0.0324442
0.0324451
0.0324488
0.0324566
0.0324731
0.032507
0.0325705
0.0326672
0.0327622
0.032864
0.0329967
0.0332115
0.033409
0.0334942
0.0335523
0.0336777
0.0340078
0.0342123
0.0341571
0.0338842
0.0338003
0.0338605
0.034135
0.0342416
0.0342372
0.0342461
0.0344287
0.0348031
0.0348886
0.0348759
0.0347642
0.0344436
0.0342356
0.0342214
0.0342734
0.0345641
0.0347334
0.0347472
0.0345601
0.034288
0.0342514
0.0342794
0.0344623
0.0349078
0.035683
0.0369183
0.0385309
0.0401233
0.0413149
0.0421252
0.0430117
0.0440122
0.0445599
0.0445723
0.0444674
0.0443565
0.0444584
0.0446562
0.0446151
0.0448886
0.0459137
0.0480061
0.0509097
0.0537558
0.0551571
0.055019
0.0550214
0.0556853
0.0560302
0.0560592
0.0563769
0.0577912
0.0608874
0.0642311
0.0654854
0.0654782
0.0659762
0.0678588
0.0690479
0.0700051
0.0721871
0.112456
0.221357
0.388897
0.573923
0.721258
0.807967
0.829415
0.8666
0.882905
0.895403
0.888345
0.89199
0.893094
0.894864
0.923315
0.0326818
0.0327104
0.0327393
0.0327969
0.0328541
0.0328892
0.0329421
0.0330491
0.0331773
0.033294
0.0333989
0.0334779
0.0335838
0.0337755
0.033885
0.0339169
0.0339648
0.0341286
0.0345649
0.0350273
0.0351089
0.0350687
0.0347757
0.0346353
0.0346689
0.034832
0.0348863
0.0348655
0.0348641
0.0349207
0.0351013
0.0353964
0.0356558
0.0357305
0.0356787
0.0353095
0.0352037
0.035338
0.035574
0.0356599
0.0359259
0.0366256
0.0377163
0.03846
0.0387573
0.0390893
0.0397039
0.0407099
0.0419164
0.0430424
0.0441184
0.0450606
0.0454265
0.04539
0.0454356
0.0457885
0.0459155
0.0458731
0.0455957
0.045486
0.0458556
0.047044
0.04902
0.0514361
0.053543
0.0549134
0.0561123
0.0572743
0.0573376
0.0568973
0.0561862
0.0563923
0.0577967
0.0606752
0.0634786
0.064814
0.0655587
0.066963
0.0677282
0.0677488
0.0684531
0.0715173
0.0742365
0.0746215
0.0756544
0.0770986
0.078708
0.0821287
0.132759
0.264023
0.419395
0.595467
0.783237
0.819227
0.852696
0.887721
0.922526
0.916216
0.918713
0.935765
0.034283
0.0342929
0.0343346
0.0344046
0.0344843
0.0345456
0.034624
0.0346705
0.0346792
0.0346786
0.0347102
0.034796
0.0348106
0.0347148
0.0342689
0.0340541
0.0340545
0.034256
0.0352989
0.0360318
0.0360483
0.0357563
0.0355071
0.0355315
0.0357975
0.036057
0.036017
0.0360251
0.0361423
0.0365106
0.0368259
0.0370586
0.0374963
0.0383261
0.039247
0.0396602
0.0398005
0.0401012
0.0409653
0.0423388
0.0434081
0.043526
0.043484
0.0436056
0.0441506
0.0450054
0.0455995
0.0457464
0.0457672
0.045856
0.0462338
0.046919
0.0471028
0.0469282
0.046726
0.0468554
0.0472896
0.0481683
0.049474
0.0514203
0.0537007
0.0554465
0.0564893
0.0572447
0.0578765
0.058012
0.058197
0.0585867
0.0587468
0.0593091
0.0604914
0.0619082
0.0638348
0.0664953
0.0690564
0.0696248
0.0696114
0.0698562
0.0706413
0.0720915
0.0740952
0.0766486
0.0791483
0.0794661
0.0796429
0.0808954
0.0836247
0.0871234
0.088302
0.0887093
0.0909951
0.156332
0.31237
0.526554
0.734654
0.819545
0.857453
0.875813
0.898987
0.948921
0.0365799
0.0366207
0.0367001
0.0368123
0.0369137
0.0370412
0.0372213
0.037273
0.0373318
0.037389
0.0375878
0.038226
0.0384022
0.0382447
0.0377936
0.0377002
0.0379143
0.0383966
0.0387057
0.0391085
0.0395804
0.0398042
0.0398662
0.0399876
0.0402865
0.0408487
0.0416555
0.0423798
0.0427235
0.042847
0.0429699
0.0432574
0.043976
0.0446377
0.0447799
0.0449019
0.0451671
0.0457603
0.0466568
0.0472573
0.0472872
0.0470807
0.0467636
0.0467456
0.0469389
0.0475449
0.0482592
0.0482974
0.0480859
0.048051
0.0482608
0.0491348
0.0503577
0.0512225
0.0518074
0.0524485
0.0535434
0.0549043
0.0563295
0.0577931
0.0592619
0.0601987
0.0602051
0.0599909
0.0599654
0.0598754
0.0599651
0.0606128
0.0623175
0.0648893
0.0678032
0.069827
0.0702203
0.070545
0.0714368
0.0716551
0.071935
0.0731032
0.0757618
0.0785193
0.0797906
0.0806058
0.0821888
0.0840665
0.0855525
0.0867313
0.0885261
0.0900965
0.0920401
0.0940478
0.095931
0.0973489
0.0983895
0.141216
0.251475
0.459137
0.620487
0.746539
0.838667
0.906482
0.0427559
0.0428636
0.0429443
0.0430027
0.0430631
0.0433237
0.0437783
0.0442996
0.0452468
0.0458048
0.0455105
0.0450179
0.0451289
0.0451102
0.0448328
0.0447314
0.0450163
0.0452935
0.0452552
0.0449663
0.0447718
0.0447713
0.0449039
0.0452999
0.0459573
0.0466176
0.0469712
0.0470877
0.0470761
0.0470471
0.0470799
0.047291
0.0476822
0.0477178
0.0476288
0.0476459
0.0478577
0.0483972
0.0490031
0.0494649
0.0497294
0.0497007
0.0494353
0.0493709
0.0495794
0.0502933
0.0514173
0.0523884
0.0530882
0.0537897
0.0546562
0.0556991
0.0568504
0.0579954
0.0591193
0.0598094
0.0601816
0.0604322
0.0607674
0.0611326
0.0617392
0.0625448
0.0627424
0.0629046
0.0634183
0.0646822
0.0664052
0.0682032
0.0697671
0.0708061
0.0719491
0.0732941
0.0734533
0.0734115
0.0738556
0.0750932
0.0768416
0.0791096
0.0820511
0.0844169
0.0844781
0.0844709
0.0852297
0.0871423
0.0898107
0.0929732
0.0942665
0.0944367
0.0957769
0.0985233
0.101321
0.103685
0.106064
0.106409
0.107171
0.119589
0.167517
0.280638
0.388147
0.595036
0.0463954
0.0463587
0.0462976
0.0463192
0.0464864
0.0469156
0.0480361
0.0499379
0.05073
0.050657
0.0493986
0.0472375
0.0469367
0.0469749
0.0471734
0.0478164
0.0487906
0.0495612
0.0496875
0.0495801
0.0494708
0.0494606
0.0493812
0.0493673
0.0497805
0.0505825
0.0506836
0.0506451
0.0506566
0.0508279
0.051257
0.0517774
0.0524327
0.0528032
0.0528325
0.052879
0.0530961
0.0537478
0.0546482
0.055114
0.0554052
0.0559085
0.056355
0.0566565
0.0570779
0.0576459
0.058074
0.0585722
0.0592654
0.060032
0.0606723
0.0611373
0.0615822
0.0622191
0.06314
0.0638774
0.064186
0.0645016
0.0646089
0.0647038
0.0650191
0.065921
0.0675234
0.0693805
0.0709507
0.0720864
0.0732106
0.0743242
0.0753656
0.0754493
0.0752405
0.0755034
0.0764139
0.0780399
0.0803231
0.0829094
0.0849246
0.0857547
0.0867888
0.0884419
0.0888912
0.0892471
0.090589
0.0926437
0.0955327
0.0987095
0.0995178
0.100215
0.101062
0.102698
0.105136
0.107587
0.110361
0.112068
0.113126
0.11573
0.119685
0.125653
0.131161
0.176874
0.0527622
0.0528592
0.0530183
0.0532011
0.0535198
0.053761
0.0537075
0.0536627
0.0537139
0.0533773
0.0528091
0.0527654
0.052958
0.0538848
0.0544194
0.0546175
0.0553436
0.0560258
0.0559946
0.0554733
0.0549398
0.0548496
0.0548628
0.0549662
0.0553662
0.0556493
0.0556234
0.0555706
0.0556457
0.0560059
0.0566556
0.0571686
0.0575713
0.0580773
0.0585237
0.0589082
0.0593851
0.0599154
0.0602095
0.0603455
0.0605165
0.0609573
0.0617372
0.0626219
0.0631876
0.0634748
0.0636714
0.063809
0.0639132
0.0640484
0.0643336
0.0647894
0.0654326
0.0661321
0.0668762
0.0678741
0.0690137
0.0700813
0.0711845
0.0723953
0.073394
0.0738965
0.0744473
0.0755371
0.0767224
0.0771399
0.0774315
0.0779094
0.0788044
0.0799224
0.0808417
0.0817139
0.0832295
0.0854653
0.0876274
0.0898777
0.0913658
0.0912526
0.0911779
0.0920509
0.0940688
0.0964174
0.0986115
0.100883
0.102153
0.102924
0.104193
0.106037
0.107422
0.108973
0.11214
0.113861
0.115226
0.117399
0.118693
0.120664
0.125941
0.132286
0.139221
0.149289
0.0586397
0.058693
0.058741
0.0588066
0.0590808
0.0595575
0.0596587
0.0596256
0.0595416
0.0595134
0.059522
0.0596327
0.0598539
0.0602013
0.0604624
0.0605043
0.0605774
0.0607242
0.060744
0.0606472
0.0606097
0.0606883
0.0608477
0.0611239
0.0617601
0.0621856
0.0620818
0.0620268
0.0622067
0.0622782
0.0623259
0.0623973
0.0624002
0.0625417
0.0628724
0.063482
0.0639598
0.0639401
0.063974
0.0644765
0.065695
0.0669821
0.0680408
0.0688338
0.0694587
0.0699095
0.0705332
0.0711681
0.0715956
0.0720625
0.0727432
0.073492
0.0741591
0.0745414
0.0747848
0.0752264
0.0759851
0.0768564
0.0776282
0.078387
0.0793047
0.0798836
0.0800622
0.08035
0.0811351
0.0819508
0.0824552
0.0831404
0.0845214
0.0866773
0.0891208
0.0913643
0.0930376
0.0934901
0.0934649
0.0941946
0.0955094
0.0962579
0.0967393
0.0974694
0.100139
0.103724
0.105511
0.107455
0.107674
0.108183
0.109595
0.11222
0.115379
0.117647
0.11992
0.121313
0.120744
0.121462
0.124137
0.128235
0.13334
0.139966
0.14602
0.154284
0.0643222
0.0644881
0.0644838
0.0642904
0.0641744
0.0641614
0.0642029
0.0644286
0.0648501
0.0653962
0.065829
0.0659229
0.0659432
0.0659956
0.0661378
0.0664396
0.0668635
0.0671839
0.0674572
0.0677385
0.0680727
0.0685203
0.0690859
0.0695867
0.0699675
0.0702239
0.0704456
0.0707089
0.0707767
0.0706999
0.0706993
0.0708486
0.0712684
0.0719131
0.0726909
0.0732076
0.0732781
0.0733106
0.0736083
0.0747632
0.0754832
0.0754553
0.0754002
0.0754628
0.0757981
0.0762578
0.0767277
0.0772579
0.0777883
0.0784247
0.0793297
0.0799668
0.0801452
0.0802943
0.0805877
0.0811302
0.0817086
0.0819778
0.082051
0.0821912
0.0827977
0.0840294
0.0853749
0.086802
0.0886197
0.0909674
0.093026
0.0941786
0.0949218
0.0956587
0.096563
0.0978746
0.0993238
0.0995147
0.0990418
0.0989672
0.099866
0.102627
0.1056
0.107451
0.108962
0.111189
0.112077
0.112576
0.113838
0.115671
0.11772
0.119677
0.122506
0.124079
0.124566
0.126298
0.128142
0.12939
0.132187
0.136203
0.139164
0.144234
0.151475
0.160544
0.0735111
0.0735933
0.0734865
0.0731581
0.07312
0.0731599
0.0732418
0.0733709
0.073592
0.073948
0.074432
0.0747913
0.0748408
0.0748333
0.0748389
0.0749682
0.0753928
0.0758212
0.076026
0.0761178
0.0762059
0.0764267
0.0768039
0.0768902
0.076922
0.0770267
0.0772558
0.0775287
0.0777845
0.0780436
0.0783205
0.0786695
0.0790983
0.0795889
0.0801446
0.0805247
0.0805577
0.0805416
0.0806014
0.0810545
0.0812108
0.0812707
0.0814506
0.0818481
0.0823762
0.0831195
0.0836526
0.0836278
0.0832463
0.0830616
0.0832891
0.084178
0.0851945
0.0861267
0.0873488
0.089157
0.0910409
0.0923841
0.0934023
0.0941968
0.0946052
0.0951259
0.0961984
0.0976825
0.0988912
0.0999769
0.101264
0.102277
0.102337
0.102111
0.101819
0.101903
0.102971
0.104832
0.107087
0.108596
0.110239
0.112538
0.115416
0.117291
0.117413
0.118011
0.118813
0.119455
0.12082
0.123292
0.126024
0.128414
0.129884
0.130466
0.131013
0.132365
0.135642
0.138514
0.141396
0.143656
0.144577
0.147619
0.156936
0.171399
0.0818869
0.0819043
0.0819031
0.0819112
0.0820172
0.0824713
0.0827395
0.0827522
0.0827578
0.0827937
0.0828846
0.0830977
0.0832357
0.0832901
0.0833464
0.0834466
0.0837465
0.0838914
0.0838946
0.0839222
0.0840234
0.0842571
0.0845878
0.0848675
0.0850956
0.0852454
0.0854164
0.0856354
0.0858629
0.0861405
0.0864106
0.0864589
0.0863313
0.0862111
0.0862929
0.0866375
0.0871216
0.0875006
0.0878966
0.0884134
0.089115
0.0899928
0.0908773
0.0916058
0.0921392
0.0927162
0.09389
0.0948168
0.0951208
0.0955691
0.0963815
0.0973086
0.098283
0.0986567
0.0988295
0.0993543
0.100352
0.101474
0.102687
0.104043
0.104754
0.104732
0.104716
0.104827
0.104866
0.104784
0.104959
0.105801
0.106857
0.108103
0.109324
0.110647
0.112127
0.114634
0.117977
0.121033
0.12253
0.122751
0.123302
0.124097
0.124197
0.124344
0.125741
0.128164
0.131426
0.133831
0.13504
0.136512
0.137127
0.138224
0.140062
0.141906
0.143838
0.146309
0.149018
0.15193
0.154353
0.158396
0.165254
0.177846
0.0912675
0.0913194
0.0913819
0.0914672
0.0915562
0.0916771
0.0918327
0.091908
0.0919546
0.0920199
0.0921496
0.0922963
0.0924184
0.0925213
0.0927166
0.093014
0.0931261
0.0932536
0.0934757
0.0936596
0.0938804
0.0941599
0.0944909
0.0947908
0.0950683
0.0953327
0.0956537
0.0959757
0.096329
0.096684
0.0970929
0.0975676
0.098103
0.0985265
0.0989029
0.0993002
0.0997844
0.100124
0.100412
0.100728
0.101146
0.101616
0.102036
0.102405
0.102816
0.103308
0.104157
0.104998
0.105406
0.106218
0.107043
0.107402
0.107862
0.108139
0.108487
0.109222
0.109292
0.108865
0.108489
0.108783
0.110006
0.111274
0.112319
0.113609
0.115217
0.116328
0.11692
0.11754
0.119139
0.121813
0.12497
0.127552
0.128159
0.128118
0.128136
0.129052
0.12953
0.129325
0.129276
0.129988
0.131612
0.134343
0.136955
0.139724
0.142082
0.144292
0.144642
0.144487
0.145283
0.14732
0.150447
0.152478
0.154093
0.156353
0.156966
0.158044
0.161086
0.168944
0.177144
0.185735
0.103887
0.103915
0.103913
0.103927
0.104014
0.10423
0.104447
0.104607
0.104768
0.104831
0.104881
0.104972
0.105141
0.105418
0.105647
0.105804
0.105888
0.105926
0.106118
0.106372
0.106487
0.106813
0.107216
0.107353
0.107445
0.107639
0.107941
0.108263
0.108529
0.108874
0.109267
0.109604
0.10989
0.110077
0.110341
0.110729
0.111211
0.111512
0.111776
0.112118
0.112543
0.113049
0.113605
0.114039
0.114402
0.114741
0.114849
0.114636
0.114347
0.114448
0.115047
0.115986
0.116807
0.11757
0.11851
0.119959
0.120906
0.121178
0.121554
0.122356
0.123268
0.12426
0.125598
0.127174
0.128871
0.130618
0.132125
0.133004
0.133251
0.13321
0.133578
0.134764
0.135679
0.135628
0.135057
0.135137
0.136158
0.138044
0.140774
0.143309
0.146142
0.148904
0.150647
0.152103
0.151873
0.151905
0.152749
0.154151
0.155615
0.157835
0.160621
0.163027
0.164219
0.16577
0.166115
0.166733
0.170352
0.179101
0.188859
0.198613
0.116905
0.116926
0.117062
0.117301
0.11735
0.117351
0.117393
0.117619
0.117737
0.117717
0.117711
0.117779
0.118076
0.118412
0.118539
0.118541
0.118534
0.118635
0.118937
0.119164
0.119498
0.119828
0.119833
0.119794
0.119859
0.120206
0.120542
0.120726
0.121095
0.121529
0.121786
0.12195
0.122107
0.122387
0.122763
0.123053
0.123241
0.123523
0.123923
0.124238
0.124374
0.124569
0.125033
0.125669
0.126198
0.126647
0.127247
0.128085
0.129071
0.130369
0.131296
0.131414
0.131459
0.131664
0.132163
0.133212
0.134369
0.135399
0.136748
0.138142
0.138798
0.139254
0.140255
0.140625
0.140407
0.140308
0.14077
0.14224
0.143618
0.143671
0.143246
0.143344
0.144716
0.147511
0.150431
0.152364
0.154103
0.156391
0.15861
0.159556
0.160274
0.1601
0.160153
0.160133
0.160345
0.160986
0.162913
0.165901
0.16925
0.171335
0.172334
0.173999
0.174431
0.175008
0.176999
0.180376
0.185211
0.19037
0.197434
0.208759
0.132765
0.132862
0.132939
0.132991
0.133117
0.133383
0.133451
0.133415
0.133396
0.133491
0.133861
0.134018
0.134079
0.134223
0.134436
0.134584
0.134653
0.134712
0.134873
0.135171
0.135424
0.135681
0.135938
0.136092
0.136153
0.136231
0.13638
0.13677
0.137239
0.137542
0.137773
0.137959
0.138259
0.13871
0.139226
0.13958
0.139797
0.140069
0.140502
0.141067
0.141505
0.141878
0.142282
0.142825
0.143432
0.14399
0.144451
0.144722
0.144911
0.14524
0.145835
0.14665
0.147534
0.148228
0.149011
0.149731
0.149745
0.149432
0.149396
0.149821
0.150779
0.151963
0.153224
0.153799
0.153998
0.154242
0.154632
0.155501
0.157152
0.159283
0.16137
0.162751
0.163498
0.164385
0.165879
0.167482
0.167825
0.168289
0.168174
0.16822
0.168208
0.168426
0.169194
0.171183
0.174074
0.177645
0.180592
0.182254
0.18408
0.184492
0.184201
0.18418
0.185061
0.186461
0.188495
0.191866
0.196145
0.201394
0.208393
0.219914
0.1511
0.151125
0.15121
0.151425
0.151629
0.151648
0.151623
0.151612
0.151759
0.151963
0.151995
0.152061
0.152298
0.15254
0.15261
0.152739
0.152897
0.152887
0.152968
0.153289
0.153329
0.153319
0.153573
0.153978
0.154146
0.154205
0.15428
0.154462
0.154809
0.155101
0.155254
0.155386
0.155666
0.156201
0.156625
0.156848
0.157044
0.157291
0.15758
0.157893
0.158242
0.158634
0.158993
0.159319
0.159615
0.159958
0.160381
0.160851
0.161283
0.161622
0.161967
0.16229
0.162551
0.162772
0.163151
0.163803
0.164693
0.165794
0.167137
0.167945
0.167996
0.168163
0.168837
0.16989
0.171129
0.172859
0.174625
0.175897
0.176252
0.17663
0.177585
0.179497
0.180634
0.180512
0.18036
0.180777
0.181401
0.181893
0.182519
0.183736
0.185615
0.187974
0.190595
0.192713
0.194065
0.195379
0.195327
0.195162
0.194798
0.195041
0.195716
0.197187
0.19918
0.201319
0.203567
0.205917
0.207713
0.211068
0.218375
0.232378
0.172406