/*--------------------------------*- C++ -*----------------------------------*\
  =========                 |
  \\      /  F ield         | OpenFOAM: The Open Source CFD Toolbox
   \\    /   O peration     | Website:  https://openfoam.org
    \\  /    A nd           | Version:  7
     \\/     M anipulation  |
\*---------------------------------------------------------------------------*/
FoamFile
{
    version     2.0;
    format      ascii;
    class       volVectorField;
    location    "7.0001";
    object      U;
}
// * * * * * * * * * * * * * * * * * * * * * * * * * * * * * * * * * * * * * //

dimensions      [0 1 -1 0 0 0 0];

internalField   nonuniform List<vector> 
60000
(
(3.0335 -1.19257 0)
(2.94183 -0.974157 0)
(2.93256 -0.705401 0)
(2.91884 -0.770256 0)
(2.94147 -0.801516 0)
(2.82602 -0.482585 0)
(2.89287 -0.310682 0)
(2.94083 -0.410717 0)
(2.97583 -0.439357 0)
(2.87294 -0.171761 0)
(2.90166 -0.153237 0)
(2.96683 -0.194278 0)
(2.89756 -0.0468711 0)
(2.89707 -0.00660382 0)
(2.95964 -0.0211238 0)
(2.92019 0.0377179 0)
(2.90016 0.100366 0)
(2.88683 0.100726 0)
(2.89374 0.0853894 0)
(2.90478 0.0826485 0)
(2.90021 0.0789726 0)
(2.89264 0.0765837 0)
(2.89159 0.0823184 0)
(2.89411 0.0827368 0)
(2.8945 0.0790676 0)
(2.89426 0.0753408 0)
(2.89693 0.0800042 0)
(2.8902 0.0823817 0)
(2.88402 0.0827096 0)
(2.87991 0.0816473 0)
(2.87459 0.0816879 0)
(2.87342 0.0833838 0)
(2.8722 0.0819638 0)
(2.87431 0.0898865 0)
(2.87584 0.0873547 0)
(2.87403 0.0823554 0)
(2.86971 0.0757472 0)
(2.8664 0.0704006 0)
(2.86242 0.0651491 0)
(2.85899 0.0623374 0)
(2.858 0.054136 0)
(2.85919 0.050869 0)
(2.86103 0.0533179 0)
(2.86442 0.0613631 0)
(2.86836 0.0723396 0)
(2.87171 0.0802926 0)
(2.87544 0.084102 0)
(2.87578 0.0830243 0)
(2.87673 0.0807669 0)
(2.8768 0.0781439 0)
(2.87466 0.0727262 0)
(2.87117 0.0691598 0)
(2.86899 0.0595537 0)
(2.86763 0.0619993 0)
(2.87029 0.0680943 0)
(2.87488 0.0737036 0)
(2.88049 0.0807145 0)
(2.88478 0.0811828 0)
(2.88771 0.079157 0)
(2.88848 0.0761123 0)
(2.88744 0.0717214 0)
(2.88604 0.0682352 0)
(2.88436 0.0690097 0)
(2.88776 0.072407 0)
(2.8906 0.0750818 0)
(2.89385 0.0770135 0)
(2.89664 0.0792958 0)
(2.89861 0.0790197 0)
(2.89896 0.075129 0)
(2.89827 0.070342 0)
(2.89998 0.0671746 0)
(2.90154 0.0688482 0)
(2.9043 0.0736034 0)
(2.90792 0.0785778 0)
(2.90942 0.0797811 0)
(2.90963 0.0757735 0)
(2.90771 0.0701879 0)
(2.90932 0.0661497 0)
(2.91149 0.0685832 0)
(2.91457 0.0743352 0)
(2.91558 0.0751832 0)
(2.91645 0.0733907 0)
(2.91395 0.0679295 0)
(2.91781 0.0681718 0)
(2.91945 0.0713316 0)
(2.92196 0.0768146 0)
(2.92573 0.080232 0)
(2.92583 0.0791088 0)
(2.9243 0.0708229 0)
(2.92391 0.0717213 0)
(2.92485 0.0731346 0)
(2.92687 0.0760728 0)
(2.92804 0.0775622 0)
(2.9283 0.0765943 0)
(2.92795 0.0752511 0)
(2.92773 0.0746217 0)
(2.928 0.0744285 0)
(2.92774 0.0711882 0)
(2.92756 0.0656628 0)
(2.92782 0.0628728 0)
(3.11415 -1.30356 0)
(3.1141 -1.3035 0)
(3.11407 -1.30347 0)
(3.11404 -1.30338 0)
(3.11415 -1.30316 0)
(3.11393 -1.30294 0)
(3.1137 -1.30235 0)
(3.11328 -1.30298 0)
(3.10819 -1.30005 0)
(3.08936 -1.24576 0)
(3.08969 -1.22342 0)
(3.08598 -1.21491 0)
(3.03511 -1.09811 0)
(3.01812 -0.963488 0)
(3.02819 -0.933979 0)
(2.98471 -0.814874 0)
(2.91969 -0.576878 0)
(2.92119 -0.544921 0)
(2.93275 -0.42852 0)
(2.87773 -0.208232 0)
(2.85733 -0.188136 0)
(2.86282 -0.158523 0)
(2.85107 0.00458009 0)
(2.84673 0.0411801 0)
(2.83985 0.0216151 0)
(2.82358 0.0642788 0)
(2.83117 0.0943381 0)
(2.83413 0.106519 0)
(2.82284 0.134484 0)
(2.81583 0.141543 0)
(2.81699 0.15294 0)
(2.82082 0.164274 0)
(2.82299 0.162091 0)
(2.82502 0.149526 0)
(2.82363 0.128185 0)
(2.82462 0.106743 0)
(2.81759 0.07789 0)
(2.82308 0.0676855 0)
(2.82471 0.0566347 0)
(2.82761 0.0425206 0)
(2.83037 0.0448118 0)
(2.83365 0.0521583 0)
(2.83977 0.0685749 0)
(2.84197 0.0876463 0)
(2.8393 0.107596 0)
(2.83821 0.111464 0)
(2.83429 0.10861 0)
(2.83016 0.0997198 0)
(2.82755 0.0929635 0)
(2.8271 0.0848546 0)
(2.82603 0.0801769 0)
(2.82473 0.0759986 0)
(2.82987 0.0737251 0)
(2.83308 0.0754877 0)
(2.83798 0.0791495 0)
(2.84737 0.087441 0)
(2.85086 0.0912679 0)
(2.85416 0.0920422 0)
(2.85511 0.0898022 0)
(2.85373 0.0834191 0)
(2.85342 0.0799271 0)
(2.85369 0.0719299 0)
(2.8541 0.0741429 0)
(2.85661 0.0765056 0)
(2.86113 0.0808768 0)
(2.86404 0.0830281 0)
(2.86671 0.0830211 0)
(2.86779 0.0783896 0)
(2.86772 0.0736397 0)
(2.86995 0.0683941 0)
(2.87224 0.0717477 0)
(2.87502 0.0763816 0)
(2.87982 0.0818572 0)
(2.8824 0.0817652 0)
(2.8842 0.0770035 0)
(2.88464 0.0711756 0)
(2.88496 0.0661498 0)
(2.88766 0.0695581 0)
(2.89143 0.0757689 0)
(2.89464 0.0786101 0)
(2.89702 0.0785481 0)
(2.89812 0.0737666 0)
(2.89532 0.06832 0)
(2.90275 0.0719687 0)
(2.90556 0.0755392 0)
(2.91035 0.0819458 0)
(2.91289 0.0840799 0)
(2.91416 0.0809126 0)
(2.91206 0.0732934 0)
(2.91467 0.0688533 0)
(2.91641 0.0712702 0)
(2.9197 0.0754032 0)
(2.92108 0.0764874 0)
(2.92209 0.0739823 0)
(2.92255 0.0714622 0)
(2.92294 0.0722295 0)
(2.92369 0.0741923 0)
(2.92403 0.073168 0)
(2.92407 0.0695251 0)
(2.92504 0.0639079 0)
(3.11195 -1.30324 0)
(3.11164 -1.30317 0)
(3.11092 -1.30291 0)
(3.11074 -1.30291 0)
(3.11043 -1.30266 0)
(3.11015 -1.3023 0)
(3.11028 -1.30225 0)
(3.10974 -1.30165 0)
(3.1095 -1.30137 0)
(3.1087 -1.30108 0)
(3.10811 -1.30089 0)
(3.10772 -1.30072 0)
(3.10788 -1.30081 0)
(3.10793 -1.30078 0)
(3.10747 -1.30046 0)
(3.10665 -1.30015 0)
(3.10604 -1.3004 0)
(3.10458 -1.29757 0)
(3.09685 -1.27912 0)
(3.07891 -1.24112 0)
(3.05241 -1.16703 0)
(3.01546 -1.06196 0)
(2.98932 -0.890095 0)
(2.97312 -0.816208 0)
(2.93127 -0.694156 0)
(2.89406 -0.53273 0)
(2.88199 -0.418203 0)
(2.88604 -0.362637 0)
(2.84682 -0.18761 0)
(2.85053 -0.166758 0)
(2.82786 -0.080869 0)
(2.8259 -0.0457574 0)
(2.81874 -0.000528904 0)
(2.81476 0.000219112 0)
(2.80782 0.0268934 0)
(2.81455 0.037644 0)
(2.81233 0.048656 0)
(2.81507 0.0515625 0)
(2.81476 0.0543396 0)
(2.81579 0.060845 0)
(2.8131 0.0623228 0)
(2.80668 0.0802587 0)
(2.80633 0.0800062 0)
(2.80496 0.0905496 0)
(2.80229 0.0907026 0)
(2.79712 0.0870695 0)
(2.79274 0.079507 0)
(2.79081 0.0728361 0)
(2.79095 0.0650086 0)
(2.7932 0.0656541 0)
(2.79382 0.0590014 0)
(2.79913 0.0619446 0)
(2.80315 0.0670382 0)
(2.80878 0.0734862 0)
(2.81381 0.0808293 0)
(2.81776 0.0800165 0)
(2.81844 0.0773615 0)
(2.81738 0.0690069 0)
(2.81545 0.0664444 0)
(2.81448 0.0630499 0)
(2.81477 0.0655573 0)
(2.81663 0.0690524 0)
(2.81843 0.0726904 0)
(2.82358 0.0799206 0)
(2.8255 0.0813405 0)
(2.82716 0.0802067 0)
(2.82787 0.0738311 0)
(2.82913 0.0674823 0)
(2.83067 0.0623013 0)
(2.83392 0.0687458 0)
(2.83694 0.0721276 0)
(2.84293 0.0771174 0)
(2.84576 0.0779007 0)
(2.84862 0.0789423 0)
(2.84983 0.0726705 0)
(2.84992 0.0653017 0)
(2.85391 0.0667646 0)
(2.85724 0.0689167 0)
(2.86074 0.0721591 0)
(2.86549 0.0739601 0)
(2.86854 0.0711465 0)
(2.86965 0.0678376 0)
(2.87004 0.0631699 0)
(2.87779 0.0694257 0)
(2.88265 0.0766021 0)
(2.8873 0.0819691 0)
(2.89152 0.0818646 0)
(2.89353 0.0772747 0)
(2.89214 0.0705692 0)
(2.89719 0.0727644 0)
(2.90038 0.0765876 0)
(2.90423 0.0789619 0)
(2.90725 0.0778293 0)
(2.90924 0.0757464 0)
(2.91068 0.0707912 0)
(2.91278 0.0676835 0)
(2.91477 0.0674583 0)
(2.91582 0.0673989 0)
(2.91634 0.0698392 0)
(2.91862 0.0682562 0)
(3.10794 -1.30158 0)
(3.10773 -1.30142 0)
(3.10707 -1.30119 0)
(3.10658 -1.30105 0)
(3.10634 -1.30103 0)
(3.10622 -1.30091 0)
(3.1055 -1.3004 0)
(3.10543 -1.30036 0)
(3.10533 -1.29965 0)
(3.10519 -1.29946 0)
(3.10409 -1.29944 0)
(3.10348 -1.29932 0)
(3.10318 -1.29932 0)
(3.10316 -1.29938 0)
(3.10267 -1.29938 0)
(3.10213 -1.29936 0)
(3.10172 -1.29936 0)
(3.10141 -1.29911 0)
(3.10152 -1.29905 0)
(3.1015 -1.29912 0)
(3.1012 -1.29881 0)
(3.10093 -1.2984 0)
(3.10065 -1.2984 0)
(3.10067 -1.29823 0)
(3.10076 -1.29808 0)
(3.09881 -1.2937 0)
(3.09101 -1.2727 0)
(3.07382 -1.23098 0)
(3.04176 -1.12663 0)
(3.0175 -1.03233 0)
(2.97442 -0.86812 0)
(2.94451 -0.739774 0)
(2.89512 -0.531125 0)
(2.88191 -0.440383 0)
(2.82378 -0.221245 0)
(2.84063 -0.149124 0)
(2.80404 -0.0116008 0)
(2.8113 0.0342405 0)
(2.78274 0.117115 0)
(2.77526 0.135219 0)
(2.77171 0.165173 0)
(2.76677 0.159134 0)
(2.76242 0.14452 0)
(2.77087 0.121616 0)
(2.77473 0.0934158 0)
(2.78079 0.0784326 0)
(2.78206 0.0670778 0)
(2.78342 0.0622378 0)
(2.78545 0.0618596 0)
(2.7863 0.0616083 0)
(2.78692 0.0627333 0)
(2.79224 0.0746276 0)
(2.79342 0.0847703 0)
(2.79263 0.097014 0)
(2.79045 0.0958279 0)
(2.78723 0.090901 0)
(2.78392 0.0832757 0)
(2.78037 0.0766963 0)
(2.77871 0.071255 0)
(2.78211 0.0684099 0)
(2.78455 0.0729572 0)
(2.78808 0.0767391 0)
(2.792 0.0830592 0)
(2.79471 0.0819949 0)
(2.79455 0.08085 0)
(2.79331 0.0763314 0)
(2.79233 0.0738025 0)
(2.79495 0.0703209 0)
(2.79845 0.0677895 0)
(2.8017 0.070643 0)
(2.80774 0.0774956 0)
(2.8106 0.0810349 0)
(2.81293 0.0800916 0)
(2.81388 0.0703957 0)
(2.81378 0.0667731 0)
(2.81449 0.0655751 0)
(2.82066 0.0717766 0)
(2.82453 0.0763953 0)
(2.82757 0.0782976 0)
(2.8318 0.079751 0)
(2.83414 0.0744755 0)
(2.83538 0.0672774 0)
(2.84024 0.0692793 0)
(2.8453 0.0734798 0)
(2.85302 0.0789841 0)
(2.85751 0.0797102 0)
(2.8618 0.0784563 0)
(2.86362 0.0720161 0)
(2.86484 0.0685725 0)
(2.87023 0.0734719 0)
(2.8753 0.0775932 0)
(2.88024 0.0783585 0)
(2.88439 0.0769425 0)
(2.88757 0.0726411 0)
(2.89072 0.0721378 0)
(2.89416 0.0712083 0)
(2.89728 0.0695835 0)
(2.89988 0.0641972 0)
(2.90206 0.0623571 0)
(2.90623 0.0644916 0)
(3.10385 -1.30051 0)
(3.10373 -1.30027 0)
(3.10359 -1.30013 0)
(3.10285 -1.30006 0)
(3.10264 -1.30003 0)
(3.10249 -1.3001 0)
(3.10234 -1.3 0)
(3.10211 -1.29959 0)
(3.10212 -1.29905 0)
(3.10209 -1.29863 0)
(3.10207 -1.29849 0)
(3.10162 -1.2986 0)
(3.10109 -1.29866 0)
(3.10096 -1.29882 0)
(3.10095 -1.29889 0)
(3.1009 -1.29885 0)
(3.10067 -1.29878 0)
(3.10027 -1.29891 0)
(3.09995 -1.29877 0)
(3.09966 -1.29861 0)
(3.09944 -1.29837 0)
(3.0995 -1.29816 0)
(3.09914 -1.29847 0)
(3.09876 -1.29897 0)
(3.09827 -1.29883 0)
(3.09848 -1.29804 0)
(3.09919 -1.29756 0)
(3.09879 -1.29798 0)
(3.09837 -1.29875 0)
(3.09841 -1.29924 0)
(3.09832 -1.29904 0)
(3.09824 -1.29892 0)
(3.0971 -1.29563 0)
(3.08903 -1.27501 0)
(3.06078 -1.19697 0)
(3.03072 -1.09108 0)
(2.98455 -0.908515 0)
(2.95346 -0.752382 0)
(2.91192 -0.531353 0)
(2.90664 -0.435506 0)
(2.8609 -0.236352 0)
(2.86319 -0.175257 0)
(2.82415 -0.0728535 0)
(2.82587 -0.0466163 0)
(2.79943 0.00375485 0)
(2.80119 0.0131357 0)
(2.79375 0.0299124 0)
(2.79384 0.0343965 0)
(2.78809 0.0485817 0)
(2.78324 0.0575339 0)
(2.77722 0.075163 0)
(2.77612 0.0860548 0)
(2.77453 0.096078 0)
(2.76987 0.0933395 0)
(2.76484 0.0876776 0)
(2.76283 0.0750795 0)
(2.76331 0.0687444 0)
(2.76215 0.0658569 0)
(2.76579 0.0650214 0)
(2.76916 0.0663534 0)
(2.77463 0.0712364 0)
(2.77889 0.0805661 0)
(2.77953 0.0836125 0)
(2.77958 0.0840913 0)
(2.77763 0.0771975 0)
(2.77618 0.0689048 0)
(2.77672 0.0614379 0)
(2.77849 0.0641129 0)
(2.78151 0.0678767 0)
(2.78517 0.0743768 0)
(2.78989 0.0793695 0)
(2.78997 0.079439 0)
(2.7884 0.0770957 0)
(2.78804 0.0731139 0)
(2.78763 0.0613626 0)
(2.7912 0.0620405 0)
(2.7949 0.0664492 0)
(2.79954 0.0727343 0)
(2.80154 0.07351 0)
(2.80298 0.0686092 0)
(2.80361 0.0645862 0)
(2.80702 0.0637481 0)
(2.81075 0.0659739 0)
(2.81767 0.0750865 0)
(2.82198 0.0833997 0)
(2.82716 0.0860397 0)
(2.82936 0.0777905 0)
(2.82997 0.0722615 0)
(2.83419 0.0694422 0)
(2.83932 0.0724567 0)
(2.84504 0.0753577 0)
(2.85045 0.0753141 0)
(2.85479 0.0715362 0)
(2.85849 0.0704651 0)
(2.86295 0.0699114 0)
(2.86754 0.0710697 0)
(2.87182 0.0707499 0)
(2.87568 0.0678936 0)
(2.87906 0.0649432 0)
(2.8857 0.0634271 0)
(3.10108 -1.29966 0)
(3.10105 -1.29968 0)
(3.10093 -1.29963 0)
(3.10081 -1.29949 0)
(3.10063 -1.29905 0)
(3.1006 -1.29871 0)
(3.10059 -1.29869 0)
(3.10049 -1.29887 0)
(3.1004 -1.29903 0)
(3.10005 -1.29879 0)
(3.1002 -1.29787 0)
(3.10041 -1.29762 0)
(3.10048 -1.29786 0)
(3.10003 -1.29811 0)
(3.09997 -1.29812 0)
(3.09994 -1.29812 0)
(3.09988 -1.29826 0)
(3.09975 -1.29838 0)
(3.09939 -1.29831 0)
(3.09896 -1.29806 0)
(3.09895 -1.29805 0)
(3.09903 -1.2978 0)
(3.09928 -1.29748 0)
(3.09925 -1.2973 0)
(3.09837 -1.29775 0)
(3.098 -1.29855 0)
(3.09832 -1.29816 0)
(3.09879 -1.29776 0)
(3.09852 -1.29808 0)
(3.09819 -1.29867 0)
(3.09816 -1.29876 0)
(3.0982 -1.29833 0)
(3.0981 -1.2985 0)
(3.09832 -1.29826 0)
(3.09868 -1.29828 0)
(3.09884 -1.29858 0)
(3.09892 -1.29855 0)
(3.09884 -1.29864 0)
(3.09679 -1.29229 0)
(3.08635 -1.25866 0)
(3.05062 -1.13643 0)
(3.01723 -0.990613 0)
(2.95029 -0.710668 0)
(2.931 -0.559298 0)
(2.85784 -0.278559 0)
(2.87371 -0.20039 0)
(2.81717 -0.026152 0)
(2.82457 0.0177716 0)
(2.78652 0.109754 0)
(2.76997 0.133419 0)
(2.76776 0.156319 0)
(2.76077 0.14227 0)
(2.75931 0.109328 0)
(2.76057 0.0861636 0)
(2.76833 0.0801675 0)
(2.76366 0.0665371 0)
(2.76472 0.0654747 0)
(2.76885 0.0663836 0)
(2.76934 0.0661797 0)
(2.77533 0.0757785 0)
(2.77783 0.081945 0)
(2.77774 0.0831236 0)
(2.77642 0.0822426 0)
(2.7735 0.0777075 0)
(2.77003 0.0694565 0)
(2.77176 0.0636035 0)
(2.77287 0.0622966 0)
(2.77531 0.0648213 0)
(2.7794 0.0727542 0)
(2.78177 0.0805201 0)
(2.78165 0.0803296 0)
(2.78119 0.0774429 0)
(2.7786 0.069365 0)
(2.77561 0.0634513 0)
(2.77687 0.0654809 0)
(2.77993 0.0688989 0)
(2.78445 0.0744232 0)
(2.78615 0.0780439 0)
(2.78556 0.0771762 0)
(2.78457 0.0733871 0)
(2.78501 0.0632265 0)
(2.78873 0.0663694 0)
(2.79237 0.0721971 0)
(2.79925 0.0768551 0)
(2.80084 0.0780368 0)
(2.80217 0.0743962 0)
(2.80198 0.0709181 0)
(2.80261 0.0667263 0)
(2.80757 0.069999 0)
(2.81198 0.0763907 0)
(2.81712 0.0793626 0)
(2.82094 0.0781396 0)
(2.82421 0.0750443 0)
(2.82786 0.0696649 0)
(2.83263 0.0689157 0)
(2.83755 0.0679436 0)
(2.84195 0.0664958 0)
(2.84603 0.0630197 0)
(2.85019 0.0638562 0)
(2.85835 0.0643495 0)
(3.10023 -1.29802 0)
(3.10017 -1.29801 0)
(3.10008 -1.29804 0)
(3.10004 -1.29771 0)
(3.10008 -1.29759 0)
(3.10016 -1.29757 0)
(3.10038 -1.29753 0)
(3.10042 -1.29753 0)
(3.10037 -1.29766 0)
(3.10023 -1.29771 0)
(3.09986 -1.2974 0)
(3.09999 -1.29715 0)
(3.10045 -1.29691 0)
(3.10043 -1.29667 0)
(3.10031 -1.29651 0)
(3.10012 -1.29657 0)
(3.10003 -1.29683 0)
(3.09998 -1.29702 0)
(3.09965 -1.29698 0)
(3.09889 -1.29705 0)
(3.09869 -1.2975 0)
(3.09901 -1.29769 0)
(3.0991 -1.29751 0)
(3.09909 -1.29713 0)
(3.09856 -1.29692 0)
(3.098 -1.29766 0)
(3.09811 -1.29826 0)
(3.09823 -1.29807 0)
(3.09832 -1.29779 0)
(3.09831 -1.2978 0)
(3.09837 -1.29786 0)
(3.09841 -1.29784 0)
(3.09851 -1.29768 0)
(3.09861 -1.29759 0)
(3.09885 -1.29759 0)
(3.09921 -1.29773 0)
(3.09932 -1.29775 0)
(3.09932 -1.2977 0)
(3.09915 -1.29751 0)
(3.09916 -1.29725 0)
(3.09925 -1.29718 0)
(3.09942 -1.29715 0)
(3.09988 -1.29733 0)
(3.09879 -1.29318 0)
(3.078 -1.23152 0)
(3.04871 -1.11828 0)
(2.99641 -0.897808 0)
(2.97044 -0.731615 0)
(2.91785 -0.461004 0)
(2.92243 -0.366524 0)
(2.87304 -0.161263 0)
(2.86739 -0.112729 0)
(2.82918 -0.0320492 0)
(2.80692 0.017414 0)
(2.80954 0.0347704 0)
(2.79389 0.0521509 0)
(2.78927 0.066413 0)
(2.78579 0.0740855 0)
(2.78057 0.0830345 0)
(2.77898 0.0935619 0)
(2.77558 0.0922703 0)
(2.77218 0.0851513 0)
(2.76947 0.0726238 0)
(2.76779 0.0600224 0)
(2.76814 0.0562258 0)
(2.77011 0.0585076 0)
(2.77224 0.0620175 0)
(2.77876 0.0732078 0)
(2.78126 0.0792361 0)
(2.78075 0.0825821 0)
(2.77896 0.0796445 0)
(2.77603 0.0706369 0)
(2.77317 0.0591089 0)
(2.77304 0.0597724 0)
(2.77445 0.0629171 0)
(2.77835 0.070399 0)
(2.78091 0.075672 0)
(2.78118 0.0758313 0)
(2.77943 0.0717908 0)
(2.7776 0.0652145 0)
(2.77863 0.0624695 0)
(2.78142 0.0667294 0)
(2.78498 0.0752743 0)
(2.7897 0.0840421 0)
(2.78914 0.0828509 0)
(2.78706 0.0779097 0)
(2.78525 0.067943 0)
(2.78762 0.0686465 0)
(2.78999 0.0711278 0)
(2.79537 0.0739313 0)
(2.79736 0.0743264 0)
(2.79851 0.0709146 0)
(2.80029 0.0675049 0)
(2.80322 0.0680991 0)
(2.80719 0.0686402 0)
(2.81089 0.0687801 0)
(2.81387 0.0672294 0)
(2.81705 0.0642656 0)
(2.82111 0.0621839 0)
(2.82917 0.0615126 0)
(3.10027 -1.2969 0)
(3.10034 -1.297 0)
(3.10028 -1.29681 0)
(3.1003 -1.29621 0)
(3.10056 -1.29585 0)
(3.10073 -1.29596 0)
(3.10083 -1.29625 0)
(3.1006 -1.29664 0)
(3.10056 -1.29683 0)
(3.1004 -1.29687 0)
(3.10012 -1.29668 0)
(3.10018 -1.29638 0)
(3.10044 -1.2964 0)
(3.10023 -1.29655 0)
(3.10016 -1.29656 0)
(3.10018 -1.29653 0)
(3.1001 -1.29668 0)
(3.09998 -1.29684 0)
(3.09972 -1.29657 0)
(3.09898 -1.29647 0)
(3.09861 -1.29707 0)
(3.09872 -1.29744 0)
(3.0989 -1.2976 0)
(3.09875 -1.29764 0)
(3.09824 -1.29769 0)
(3.09811 -1.29767 0)
(3.09814 -1.29764 0)
(3.09828 -1.29772 0)
(3.09832 -1.29779 0)
(3.09838 -1.29795 0)
(3.09839 -1.29804 0)
(3.09845 -1.29801 0)
(3.09887 -1.29776 0)
(3.09907 -1.29762 0)
(3.09922 -1.29762 0)
(3.09929 -1.29764 0)
(3.09951 -1.2976 0)
(3.09962 -1.29743 0)
(3.09972 -1.29718 0)
(3.09978 -1.2968 0)
(3.09983 -1.2965 0)
(3.09997 -1.29634 0)
(3.10016 -1.29655 0)
(3.10064 -1.29677 0)
(3.10135 -1.29659 0)
(3.1015 -1.29663 0)
(3.10141 -1.29674 0)
(3.10134 -1.2968 0)
(3.09487 -1.27582 0)
(3.07824 -1.20397 0)
(3.02722 -0.99783 0)
(2.98775 -0.770957 0)
(2.93121 -0.493733 0)
(2.88215 -0.248586 0)
(2.90732 -0.176652 0)
(2.82978 0.0255615 0)
(2.82326 0.0508014 0)
(2.79269 0.110617 0)
(2.78432 0.118087 0)
(2.77809 0.113584 0)
(2.77446 0.0933591 0)
(2.77422 0.079908 0)
(2.77419 0.0680889 0)
(2.77521 0.0651612 0)
(2.77844 0.0668992 0)
(2.77635 0.0646603 0)
(2.78056 0.0764766 0)
(2.78334 0.0849094 0)
(2.78225 0.0858714 0)
(2.77855 0.0814559 0)
(2.77422 0.0709291 0)
(2.7722 0.0657033 0)
(2.77004 0.0587958 0)
(2.77184 0.0605783 0)
(2.77733 0.0707252 0)
(2.77978 0.0768829 0)
(2.77972 0.0784656 0)
(2.77813 0.0741696 0)
(2.77544 0.0662143 0)
(2.7752 0.0615685 0)
(2.7765 0.0627554 0)
(2.78088 0.072932 0)
(2.78452 0.0796109 0)
(2.78517 0.0810299 0)
(2.78406 0.0781365 0)
(2.78148 0.0703693 0)
(2.7798 0.0656826 0)
(2.78165 0.0679754 0)
(2.78373 0.0739822 0)
(2.78695 0.0774012 0)
(2.78656 0.0766549 0)
(2.78572 0.0735945 0)
(2.78644 0.0692442 0)
(2.78878 0.0666209 0)
(2.79081 0.0671175 0)
(2.79225 0.0651895 0)
(2.79341 0.0622105 0)
(2.79534 0.0608702 0)
(2.79807 0.0637609 0)
(2.80439 0.0643573 0)
(3.10035 -1.29628 0)
(3.10039 -1.29618 0)
(3.10049 -1.29595 0)
(3.10055 -1.29597 0)
(3.10058 -1.29604 0)
(3.10076 -1.29629 0)
(3.10079 -1.29637 0)
(3.1007 -1.29635 0)
(3.10064 -1.29626 0)
(3.10033 -1.2962 0)
(3.10017 -1.2966 0)
(3.10025 -1.29675 0)
(3.10032 -1.29661 0)
(3.10031 -1.29661 0)
(3.09974 -1.29718 0)
(3.09971 -1.29727 0)
(3.0999 -1.29716 0)
(3.09998 -1.29695 0)
(3.0994 -1.29711 0)
(3.09877 -1.29756 0)
(3.09858 -1.29788 0)
(3.09856 -1.2982 0)
(3.09863 -1.29804 0)
(3.09889 -1.29762 0)
(3.09837 -1.29789 0)
(3.09811 -1.29821 0)
(3.09787 -1.2983 0)
(3.09821 -1.29815 0)
(3.0985 -1.29814 0)
(3.09855 -1.2982 0)
(3.09854 -1.29834 0)
(3.09858 -1.29845 0)
(3.09909 -1.29807 0)
(3.09942 -1.29763 0)
(3.09947 -1.29759 0)
(3.0995 -1.2977 0)
(3.09983 -1.29763 0)
(3.10039 -1.29698 0)
(3.10045 -1.29683 0)
(3.10044 -1.29671 0)
(3.10045 -1.29645 0)
(3.10054 -1.2963 0)
(3.10061 -1.29637 0)
(3.1009 -1.29662 0)
(3.1016 -1.29649 0)
(3.1016 -1.29628 0)
(3.10155 -1.29626 0)
(3.1013 -1.29646 0)
(3.10122 -1.29658 0)
(3.10115 -1.29673 0)
(3.10123 -1.29643 0)
(3.1003 -1.29842 0)
(3.09616 -1.28748 0)
(3.07324 -1.20357 0)
(3.04171 -1.04652 0)
(2.97869 -0.755068 0)
(2.9624 -0.578843 0)
(2.89327 -0.288962 0)
(2.88435 -0.18346 0)
(2.83078 -0.0507297 0)
(2.82875 -0.020187 0)
(2.80528 0.0238036 0)
(2.80161 0.0452462 0)
(2.7982 0.0650263 0)
(2.7918 0.0741968 0)
(2.78465 0.0864721 0)
(2.78269 0.0962237 0)
(2.77907 0.0927389 0)
(2.77323 0.0806398 0)
(2.77082 0.0679491 0)
(2.76746 0.0509234 0)
(2.76675 0.0529326 0)
(2.76909 0.0575339 0)
(2.77595 0.0687553 0)
(2.77859 0.0762221 0)
(2.77938 0.0808534 0)
(2.77763 0.0765979 0)
(2.77309 0.0664914 0)
(2.77102 0.0567774 0)
(2.77258 0.0601635 0)
(2.77801 0.0709002 0)
(2.78117 0.0791586 0)
(2.78485 0.08437 0)
(2.78368 0.0816933 0)
(2.77996 0.0705914 0)
(2.77872 0.0641672 0)
(2.77894 0.0646591 0)
(2.78124 0.0701556 0)
(2.78282 0.0750619 0)
(2.78303 0.0759197 0)
(2.78223 0.0733466 0)
(2.78189 0.068691 0)
(2.78117 0.066953 0)
(2.78202 0.0666857 0)
(2.78219 0.0667817 0)
(2.78172 0.0658943 0)
(2.78171 0.0635196 0)
(2.78263 0.059313 0)
(2.78458 0.0595702 0)
(2.7878 0.0591409 0)
(3.09967 -1.29749 0)
(3.0996 -1.29758 0)
(3.09964 -1.29761 0)
(3.0997 -1.29764 0)
(3.0998 -1.29774 0)
(3.09982 -1.29789 0)
(3.09982 -1.29791 0)
(3.0999 -1.29767 0)
(3.09992 -1.29744 0)
(3.09976 -1.29722 0)
(3.09995 -1.29747 0)
(3.09996 -1.29761 0)
(3.09988 -1.29779 0)
(3.09993 -1.29768 0)
(3.09991 -1.29764 0)
(3.09952 -1.29771 0)
(3.0992 -1.29817 0)
(3.09911 -1.29884 0)
(3.09897 -1.29889 0)
(3.09869 -1.2986 0)
(3.09873 -1.2984 0)
(3.09879 -1.29826 0)
(3.09867 -1.29829 0)
(3.0987 -1.29821 0)
(3.09859 -1.29833 0)
(3.09828 -1.29863 0)
(3.09814 -1.29879 0)
(3.09812 -1.2988 0)
(3.09855 -1.2986 0)
(3.09876 -1.29849 0)
(3.09882 -1.29851 0)
(3.09881 -1.29867 0)
(3.0995 -1.29835 0)
(3.09996 -1.2975 0)
(3.10001 -1.29732 0)
(3.09997 -1.29751 0)
(3.10005 -1.2976 0)
(3.10072 -1.29685 0)
(3.10089 -1.29637 0)
(3.10088 -1.29629 0)
(3.10082 -1.29609 0)
(3.10089 -1.29605 0)
(3.10097 -1.2961 0)
(3.1012 -1.29633 0)
(3.10176 -1.2962 0)
(3.10226 -1.29569 0)
(3.10236 -1.2955 0)
(3.10166 -1.29592 0)
(3.10097 -1.29668 0)
(3.10091 -1.29651 0)
(3.10067 -1.29652 0)
(3.09948 -1.29785 0)
(3.09964 -1.29905 0)
(3.10052 -1.29917 0)
(3.10148 -1.29899 0)
(3.10215 -1.29849 0)
(3.10098 -1.29122 0)
(3.07228 -1.19107 0)
(3.03215 -1.00522 0)
(2.94413 -0.63799 0)
(2.9359 -0.451637 0)
(2.85207 -0.140767 0)
(2.86885 -0.0735475 0)
(2.80854 0.0733235 0)
(2.78555 0.118928 0)
(2.77935 0.137728 0)
(2.77759 0.118203 0)
(2.77357 0.0904159 0)
(2.77706 0.0790873 0)
(2.77093 0.0621568 0)
(2.77309 0.0599525 0)
(2.77212 0.0581862 0)
(2.77959 0.0716393 0)
(2.78324 0.0828919 0)
(2.77891 0.0812272 0)
(2.77632 0.0768091 0)
(2.77264 0.0680698 0)
(2.76977 0.059591 0)
(2.77045 0.0597906 0)
(2.77615 0.0682983 0)
(2.78197 0.0818833 0)
(2.78444 0.0876758 0)
(2.78368 0.0851311 0)
(2.77979 0.0748265 0)
(2.77687 0.0655226 0)
(2.77655 0.0626561 0)
(2.77915 0.0672215 0)
(2.78112 0.0732952 0)
(2.7823 0.0774632 0)
(2.78161 0.0754027 0)
(2.78042 0.0709043 0)
(2.78029 0.0665598 0)
(2.77888 0.0665134 0)
(2.77878 0.0666881 0)
(2.77869 0.0660623 0)
(2.77796 0.0627987 0)
(2.77671 0.060675 0)
(2.77702 0.0623315 0)
(2.77812 0.0630128 0)
(2.7784 0.0613594 0)
(3.09944 -1.29781 0)
(3.09921 -1.29827 0)
(3.09923 -1.29866 0)
(3.09931 -1.29876 0)
(3.09938 -1.29872 0)
(3.09935 -1.29854 0)
(3.09929 -1.29849 0)
(3.0993 -1.29848 0)
(3.09939 -1.29826 0)
(3.09947 -1.29815 0)
(3.09952 -1.29817 0)
(3.09972 -1.29817 0)
(3.09967 -1.29827 0)
(3.09949 -1.29833 0)
(3.09953 -1.2981 0)
(3.09978 -1.2979 0)
(3.09998 -1.29787 0)
(3.09953 -1.29848 0)
(3.09912 -1.29877 0)
(3.09908 -1.29873 0)
(3.09908 -1.2986 0)
(3.09908 -1.29843 0)
(3.09909 -1.29823 0)
(3.09939 -1.29779 0)
(3.0995 -1.29768 0)
(3.09915 -1.29795 0)
(3.09912 -1.29802 0)
(3.09927 -1.29811 0)
(3.09935 -1.29823 0)
(3.09938 -1.29802 0)
(3.09938 -1.29806 0)
(3.09939 -1.29824 0)
(3.09994 -1.29794 0)
(3.10058 -1.29689 0)
(3.10066 -1.29634 0)
(3.10069 -1.29642 0)
(3.1009 -1.29659 0)
(3.10143 -1.29617 0)
(3.10162 -1.29565 0)
(3.10174 -1.29555 0)
(3.10181 -1.29537 0)
(3.10197 -1.29533 0)
(3.10216 -1.29569 0)
(3.10236 -1.29589 0)
(3.10275 -1.29585 0)
(3.10298 -1.29545 0)
(3.10325 -1.2951 0)
(3.10188 -1.29575 0)
(3.10085 -1.29661 0)
(3.10056 -1.29676 0)
(3.1003 -1.29675 0)
(3.09953 -1.29744 0)
(3.09942 -1.29869 0)
(3.10033 -1.2992 0)
(3.10128 -1.299 0)
(3.10224 -1.29883 0)
(3.10329 -1.2979 0)
(3.10362 -1.29679 0)
(3.10339 -1.2958 0)
(3.10217 -1.29591 0)
(3.09328 -1.26765 0)
(3.04768 -1.11209 0)
(3.00742 -0.889216 0)
(2.9257 -0.513633 0)
(2.93291 -0.372698 0)
(2.86241 -0.108774 0)
(2.86263 -0.0729576 0)
(2.80831 0.00270252 0)
(2.81035 0.0262052 0)
(2.79174 0.047993 0)
(2.78921 0.0622315 0)
(2.78377 0.075511 0)
(2.7821 0.0878097 0)
(2.7781 0.0867767 0)
(2.77177 0.0759605 0)
(2.76735 0.0607874 0)
(2.76737 0.0502015 0)
(2.76867 0.053761 0)
(2.77402 0.0646574 0)
(2.78258 0.0814443 0)
(2.78456 0.0895221 0)
(2.7833 0.0875756 0)
(2.77916 0.077733 0)
(2.77453 0.0644039 0)
(2.77307 0.0595038 0)
(2.77515 0.0636803 0)
(2.77817 0.0712299 0)
(2.78102 0.0781076 0)
(2.78065 0.0765319 0)
(2.77955 0.0713253 0)
(2.77707 0.0648408 0)
(2.77613 0.0658873 0)
(2.77665 0.0668624 0)
(2.77673 0.0668467 0)
(2.77616 0.0644166 0)
(2.77559 0.0600957 0)
(2.77469 0.0594079 0)
(2.77447 0.0604572 0)
(2.77466 0.0619305 0)
(2.77485 0.0596833 0)
(3.09935 -1.2977 0)
(3.09947 -1.29782 0)
(3.09951 -1.29794 0)
(3.09957 -1.29819 0)
(3.09954 -1.29813 0)
(3.09954 -1.2981 0)
(3.09953 -1.29807 0)
(3.09953 -1.29803 0)
(3.09957 -1.298 0)
(3.09963 -1.29801 0)
(3.09968 -1.29798 0)
(3.09989 -1.29767 0)
(3.10005 -1.29738 0)
(3.10011 -1.29719 0)
(3.09995 -1.29724 0)
(3.10007 -1.29741 0)
(3.10013 -1.29743 0)
(3.10016 -1.29756 0)
(3.10009 -1.29769 0)
(3.10002 -1.29771 0)
(3.09974 -1.29763 0)
(3.09965 -1.29764 0)
(3.09961 -1.29765 0)
(3.09986 -1.29737 0)
(3.09988 -1.29726 0)
(3.09962 -1.29728 0)
(3.0996 -1.29728 0)
(3.09991 -1.29701 0)
(3.10014 -1.29691 0)
(3.10008 -1.29719 0)
(3.10016 -1.29718 0)
(3.10026 -1.29722 0)
(3.10086 -1.29652 0)
(3.10104 -1.2962 0)
(3.10115 -1.29578 0)
(3.10109 -1.29578 0)
(3.10144 -1.29574 0)
(3.10164 -1.29583 0)
(3.10195 -1.29576 0)
(3.10221 -1.29565 0)
(3.10225 -1.29572 0)
(3.10217 -1.29587 0)
(3.10222 -1.29634 0)
(3.10257 -1.29692 0)
(3.10269 -1.29695 0)
(3.10283 -1.29663 0)
(3.10307 -1.29619 0)
(3.10216 -1.29604 0)
(3.10158 -1.29619 0)
(3.10065 -1.29664 0)
(3.10011 -1.29711 0)
(3.09968 -1.29741 0)
(3.09937 -1.29845 0)
(3.10021 -1.29926 0)
(3.10114 -1.29961 0)
(3.10215 -1.29957 0)
(3.10367 -1.29866 0)
(3.10428 -1.29639 0)
(3.10396 -1.29456 0)
(3.10257 -1.29318 0)
(3.10148 -1.29548 0)
(3.10189 -1.29933 0)
(3.10186 -1.29954 0)
(3.0992 -1.29011 0)
(3.08198 -1.20816 0)
(3.00937 -0.909196 0)
(2.98097 -0.658142 0)
(2.87484 -0.263355 0)
(2.89364 -0.158228 0)
(2.81512 0.0522999 0)
(2.79268 0.0904085 0)
(2.78274 0.136181 0)
(2.77327 0.117563 0)
(2.77051 0.0861696 0)
(2.77387 0.0723132 0)
(2.76969 0.0570346 0)
(2.77104 0.0549716 0)
(2.77578 0.0639388 0)
(2.78489 0.0886433 0)
(2.78421 0.094408 0)
(2.78216 0.0911326 0)
(2.77706 0.0808796 0)
(2.77357 0.0707005 0)
(2.76957 0.0594888 0)
(2.77103 0.061692 0)
(2.77661 0.071238 0)
(2.77919 0.0807343 0)
(2.78019 0.0786481 0)
(2.77739 0.0738627 0)
(2.77526 0.0673708 0)
(2.77299 0.0655752 0)
(2.77278 0.0663394 0)
(2.77416 0.0673989 0)
(2.77388 0.0662384 0)
(2.77221 0.0624005 0)
(2.77188 0.0591073 0)
(2.77215 0.0592498 0)
(2.77247 0.0608904 0)
(2.77294 0.062074 0)
(2.77258 0.0577895 0)
(3.0997 -1.29673 0)
(3.09997 -1.29686 0)
(3.10006 -1.29698 0)
(3.10001 -1.29723 0)
(3.10007 -1.29735 0)
(3.10008 -1.29735 0)
(3.10008 -1.29732 0)
(3.10009 -1.29721 0)
(3.10011 -1.29718 0)
(3.10007 -1.29724 0)
(3.09996 -1.29734 0)
(3.10026 -1.29709 0)
(3.10046 -1.29676 0)
(3.10035 -1.29665 0)
(3.10027 -1.29665 0)
(3.10035 -1.29668 0)
(3.10058 -1.29659 0)
(3.10066 -1.29661 0)
(3.10055 -1.29667 0)
(3.10051 -1.29656 0)
(3.1008 -1.29622 0)
(3.10088 -1.29623 0)
(3.10082 -1.29637 0)
(3.10099 -1.29608 0)
(3.10104 -1.29578 0)
(3.10106 -1.29583 0)
(3.10096 -1.29602 0)
(3.10121 -1.29609 0)
(3.10141 -1.29595 0)
(3.1014 -1.29579 0)
(3.10117 -1.29583 0)
(3.10162 -1.2954 0)
(3.10196 -1.2952 0)
(3.10182 -1.29534 0)
(3.10154 -1.29549 0)
(3.10153 -1.29528 0)
(3.10136 -1.29549 0)
(3.1013 -1.29624 0)
(3.10164 -1.29657 0)
(3.10201 -1.2965 0)
(3.10198 -1.29677 0)
(3.10145 -1.29751 0)
(3.10144 -1.29816 0)
(3.10197 -1.29841 0)
(3.10215 -1.29836 0)
(3.10278 -1.29799 0)
(3.10328 -1.29714 0)
(3.10291 -1.29622 0)
(3.10237 -1.29586 0)
(3.10137 -1.29609 0)
(3.10035 -1.29683 0)
(3.10002 -1.29729 0)
(3.09921 -1.29861 0)
(3.09914 -1.29901 0)
(3.10093 -1.2999 0)
(3.10195 -1.3001 0)
(3.10373 -1.29977 0)
(3.10504 -1.29666 0)
(3.10463 -1.29388 0)
(3.10341 -1.29258 0)
(3.10212 -1.2949 0)
(3.10213 -1.29963 0)
(3.10198 -1.3003 0)
(3.10189 -1.29912 0)
(3.10234 -1.29748 0)
(3.1026 -1.29734 0)
(3.10193 -1.30078 0)
(3.07606 -1.22326 0)
(3.03556 -1.03228 0)
(2.95753 -0.670264 0)
(2.94372 -0.466798 0)
(2.86273 -0.147927 0)
(2.86164 -0.0970889 0)
(2.81078 -0.00680562 0)
(2.80717 0.0206925 0)
(2.79868 0.048046 0)
(2.78931 0.0697529 0)
(2.77501 0.0866599 0)
(2.77918 0.101227 0)
(2.77227 0.0943859 0)
(2.76716 0.076741 0)
(2.76283 0.0557501 0)
(2.76331 0.0523093 0)
(2.76542 0.0567242 0)
(2.77165 0.0674954 0)
(2.77723 0.0775331 0)
(2.77811 0.0793273 0)
(2.7761 0.0753668 0)
(2.77143 0.0676025 0)
(2.76881 0.0643761 0)
(2.76912 0.0659756 0)
(2.77065 0.0674764 0)
(2.77092 0.0670928 0)
(2.76991 0.063691 0)
(2.7673 0.0582426 0)
(2.76813 0.058311 0)
(2.76893 0.0596497 0)
(2.77077 0.0616819 0)
(2.77098 0.061134 0)
(2.76913 0.054387 0)
(3.10015 -1.29699 0)
(3.10027 -1.29672 0)
(3.10023 -1.29666 0)
(3.10024 -1.2965 0)
(3.10028 -1.29647 0)
(3.10023 -1.29653 0)
(3.10018 -1.29665 0)
(3.10042 -1.29656 0)
(3.10064 -1.29628 0)
(3.10063 -1.29628 0)
(3.10047 -1.29648 0)
(3.10077 -1.29635 0)
(3.10144 -1.29557 0)
(3.10151 -1.29536 0)
(3.10135 -1.29534 0)
(3.10132 -1.29544 0)
(3.10176 -1.29551 0)
(3.10233 -1.29514 0)
(3.10235 -1.29506 0)
(3.10231 -1.29514 0)
(3.10223 -1.29525 0)
(3.10272 -1.29515 0)
(3.10286 -1.29507 0)
(3.10269 -1.29496 0)
(3.10254 -1.29479 0)
(3.10231 -1.29471 0)
(3.10256 -1.29556 0)
(3.1027 -1.29611 0)
(3.10263 -1.2958 0)
(3.10265 -1.29489 0)
(3.10234 -1.29371 0)
(3.10188 -1.29401 0)
(3.10191 -1.2949 0)
(3.10174 -1.29521 0)
(3.10117 -1.29596 0)
(3.10112 -1.2958 0)
(3.10073 -1.29625 0)
(3.10019 -1.29775 0)
(3.10045 -1.29832 0)
(3.10092 -1.29778 0)
(3.10132 -1.29751 0)
(3.10073 -1.29842 0)
(3.10058 -1.29976 0)
(3.10074 -1.30031 0)
(3.10126 -1.30033 0)
(3.1026 -1.29946 0)
(3.10356 -1.29832 0)
(3.10378 -1.29647 0)
(3.10327 -1.29557 0)
(3.10227 -1.29523 0)
(3.1011 -1.29591 0)
(3.10053 -1.29709 0)
(3.09981 -1.29784 0)
(3.09921 -1.29832 0)
(3.10107 -1.29985 0)
(3.10198 -1.30032 0)
(3.10344 -1.30045 0)
(3.10501 -1.29743 0)
(3.10442 -1.2932 0)
(3.10406 -1.29229 0)
(3.1033 -1.29442 0)
(3.1025 -1.29973 0)
(3.10199 -1.30085 0)
(3.10091 -1.30066 0)
(3.10056 -1.29884 0)
(3.09995 -1.29975 0)
(3.09894 -1.30173 0)
(3.09925 -1.30261 0)
(3.09746 -1.30239 0)
(3.09631 -1.30202 0)
(3.08552 -1.2581 0)
(3.01956 -1.00571 0)
(2.97776 -0.69915 0)