/*--------------------------------*- C++ -*----------------------------------*\
  =========                 |
  \\      /  F ield         | OpenFOAM: The Open Source CFD Toolbox
   \\    /   O peration     | Website:  https://openfoam.org
    \\  /    A nd           | Version:  7
     \\/     M anipulation  |
\*---------------------------------------------------------------------------*/
FoamFile
{
    version     2.0;
    format      ascii;
    class       volVectorField;
    location    "2.1";
    object      U;
}
// * * * * * * * * * * * * * * * * * * * * * * * * * * * * * * * * * * * * * //

dimensions      [0 1 -1 0 0 0 0];

internalField   nonuniform List<vector> 
1750
(
(2.60417 -0.566281 0)
(2.66727 -0.234484 0)
(2.74588 -0.0544052 0)
(2.78879 -0.21324 0)
(2.70772 -0.162908 0)
(2.54236 0.0151948 0)
(2.4465 0.151002 0)
(2.38007 0.0752023 0)
(2.42787 -0.0503932 0)
(2.55624 -0.0194424 0)
(2.7893 -1.11244 0)
(2.81135 -0.889094 0)
(2.90939 -0.657245 0)
(3.02199 -0.726113 0)
(2.98548 -0.635487 0)
(2.52035 -0.0756484 0)
(2.4937 0.170039 0)
(2.47052 0.0439213 0)
(2.5043 -0.0807891 0)
(2.57067 -0.0337026 0)
(3.14919 -1.29201 0)
(3.19181 -1.42835 0)
(3.20554 -1.40176 0)
(3.25611 -1.37666 0)
(3.24421 -1.38366 0)
(2.97972 -0.862293 0)
(2.8875 -0.239438 0)
(2.86044 -0.163769 0)
(2.72613 -0.18449 0)
(2.60124 -0.0483984 0)
(3.22239 -1.45251 0)
(3.20162 -1.32709 0)
(3.21764 -1.27396 0)
(3.22774 -1.22895 0)
(3.28422 -1.16737 0)
(3.27789 -1.19737 0)
(3.21443 -1.02291 0)
(3.16638 -0.815791 0)
(2.99816 -0.735596 0)
(2.72019 -0.228388 0)
(3.30081 -0.978917 0)
(3.30399 -0.988709 0)
(3.30335 -0.945333 0)
(3.31359 -0.921561 0)
(3.31273 -0.933542 0)
(3.29962 -0.946984 0)
(3.27675 -0.96752 0)
(3.22025 -0.985744 0)
(3.15903 -1.11626 0)
(2.91797 -0.609491 0)
(3.29635 -0.742714 0)
(3.29918 -0.759011 0)
(3.28415 -0.80813 0)
(3.28483 -0.813907 0)
(3.28651 -0.838499 0)
(3.28062 -0.850164 0)
(3.26166 -0.852119 0)
(3.23914 -0.821141 0)
(3.20126 -0.771456 0)
(3.02978 -0.694161 0)
(3.24539 -0.442992 0)
(3.26765 -0.527838 0)
(3.2738 -0.529016 0)
(3.26497 -0.501946 0)
(3.2632 -0.571155 0)
(3.24192 -0.652495 0)
(3.24238 -0.672531 0)
(3.22366 -0.676526 0)
(3.19941 -0.712133 0)
(3.10367 -0.578144 0)
(3.16578 -0.181241 0)
(3.19264 -0.225149 0)
(3.20821 -0.301388 0)
(3.21229 -0.311808 0)
(3.215 -0.343509 0)
(3.21018 -0.399017 0)
(3.20628 -0.412983 0)
(3.19918 -0.448801 0)
(3.198 -0.489213 0)
(3.1331 -0.465631 0)
(3.06405 0.126016 0)
(3.09103 0.090033 0)
(3.11581 0.0513237 0)
(3.13686 -0.000140183 0)
(3.15892 -0.0721391 0)
(3.1779 -0.141785 0)
(3.18814 -0.158223 0)
(3.19959 -0.162327 0)
(3.20098 -0.187576 0)
(3.13672 -0.192188 0)
(2.95601 0.415486 0)
(2.99872 0.373278 0)
(3.03623 0.327541 0)
(3.06601 0.285997 0)
(3.09048 0.242212 0)
(3.11855 0.188442 0)
(3.15288 0.1508 0)
(3.17841 0.108352 0)
(3.17859 0.0461444 0)
(3.1392 0.0024788 0)
(2.93054 0.422639 0)
(2.96046 0.40446 0)
(2.98993 0.38315 0)
(3.02138 0.354824 0)
(3.05157 0.323857 0)
(3.08167 0.288148 0)
(3.11352 0.240249 0)
(3.13178 0.186652 0)
(3.13562 0.12624 0)
(3.10269 0.059038 0)
(2.93952 0.311762 0)
(2.95514 0.310312 0)
(2.97844 0.296863 0)
(2.99868 0.279696 0)
(3.02042 0.260661 0)
(3.04439 0.234766 0)
(3.06538 0.200294 0)
(3.07674 0.156601 0)
(3.07418 0.106183 0)
(3.04672 0.0448629 0)
(2.97615 0.0793296 0)
(2.97669 0.0957719 0)
(2.9809 0.10781 0)
(2.99 0.108212 0)
(2.99424 0.105903 0)
(3.0025 0.0978441 0)
(3.01154 0.0809174 0)
(3.0164 0.0571434 0)
(3.01473 0.0320326 0)
(3.00702 0.00904403 0)
(2.99892 0.00333261 0)
(2.99858 0.00481233 0)
(2.9984 0.0066459 0)
(2.99884 0.00798571 0)
(2.99931 0.00819145 0)
(2.9997 0.00779243 0)
(3.00043 0.00634705 0)
(3.00087 0.00402243 0)
(3.00073 0.00178945 0)
(3.00026 0.000342349 0)
(2.99999 2.89949e-05 0)
(2.99998 4.54723e-05 0)
(2.99998 7.05009e-05 0)
(2.99998 9.5933e-05 0)
(2.99999 0.000104089 0)
(2.99999 0.000100919 0)
(3 8.35745e-05 0)
(3.00001 5.14954e-05 0)
(3.00001 2.08541e-05 0)
(3 3.42908e-06 0)
(2.56868 -1.06887 0)
(2.72919 -1.05388 0)
(3.10774 -1.16097 0)
(3.21879 -1.41374 0)
(3.2676 -1.00062 0)
(3.25752 -0.707974 0)
(3.21696 -0.449895 0)
(3.14694 -0.19123 0)
(3.01813 0.215897 0)
(2.92575 0.430645 0)
(2.90711 0.433286 0)
(2.90878 0.291318 0)
(2.97728 0.0644666 0)
(2.9992 0.0023421 0)
(2.99999 2.04002e-05 0)
(2.54607 -1.08617 0)
(2.73956 -1.10927 0)
(3.14481 -1.23243 0)
(3.20523 -1.23218 0)
(3.22827 -0.906744 0)
(3.22303 -0.663837 0)
(3.18904 -0.433587 0)
(3.10706 -0.0674546 0)
(2.9808 0.285188 0)
(2.89269 0.459697 0)
(2.88861 0.436375 0)
(2.92437 0.251712 0)
(2.98665 0.0378506 0)
(2.99966 0.000946401 0)
(3 7.90341e-06 0)
(2.51272 -1.15603 0)
(2.76893 -1.22878 0)
(3.09337 -1.28575 0)
(3.136 -1.18203 0)
(3.19893 -0.926801 0)
(3.21312 -0.66789 0)
(3.18034 -0.276174 0)
(3.05543 0.0912111 0)
(2.92455 0.380138 0)
(2.86282 0.489789 0)
(2.87452 0.434613 0)
(2.92378 0.219908 0)
(2.99176 0.0221342 0)
(2.99985 0.000425468 0)
(3 3.3135e-06 0)
(2.48836 -1.19268 0)
(2.76457 -1.31622 0)
(3.05367 -1.32718 0)
(3.12812 -1.16851 0)
(3.20679 -0.918646 0)
(3.23975 -0.440753 0)
(3.12968 -0.0648503 0)
(3.0053 0.180669 0)
(2.86317 0.462332 0)
(2.83932 0.50689 0)
(2.85685 0.40096 0)
(2.94744 0.149155 0)
(2.99624 0.0108109 0)
(2.99994 0.000168098 0)
(3 1.25011e-06 0)
(2.44929 -1.20478 0)
(2.73507 -1.34022 0)
(3.0456 -1.28869 0)
(3.19022 -0.971599 0)
(3.26209 -0.648882 0)
(3.1855 -0.237839 0)
(3.08822 -0.0294475 0)
(2.9396 0.286322 0)
(2.82341 0.508481 0)
(2.82041 0.516403 0)
(2.86127 0.397927 0)
(2.96105 0.108823 0)
(2.99824 0.00496716 0)
(2.99998 6.41822e-05 0)
(3 4.50243e-07 0)
(2.27423 -1.22354 0)
(2.65524 -1.40878 0)
(3.04515 -1.16381 0)
(3.23232 -0.745272 0)
(3.21295 -0.472166 0)
(3.13208 -0.252463 0)
(3.02706 0.0548017 0)
(2.8656 0.419226 0)
(2.79219 0.547756 0)
(2.79885 0.520731 0)
(2.86488 0.341769 0)
(2.97738 0.0597041 0)
(2.99933 0.00189012 0)
(2.99999 2.1854e-05 0)
(3 1.49392e-07 0)
(2.22831 -1.18348 0)
(2.64673 -1.51902 0)
(3.09892 -0.787806 0)
(3.18734 -0.668753 0)
(3.16591 -0.520355 0)
(3.07834 -0.1337 0)
(2.9477 0.240221 0)
(2.8142 0.501014 0)
(2.76242 0.577027 0)
(2.77988 0.50799 0)
(2.90468 0.234297 0)
(2.98982 0.0274824 0)
(2.99978 0.000615767 0)
(3 6.65279e-06 0)
(3 4.50428e-08 0)
(2.16063 -1.17029 0)
(2.64691 -1.52977 0)
(3.08931 -0.767328 0)
(3.10894 -0.744805 0)
(3.14013 -0.374613 0)
(2.99377 0.149603 0)
(2.87948 0.377175 0)
(2.76012 0.564354 0)
(2.74209 0.584776 0)
(2.7932 0.47682 0)
(2.92796 0.169923 0)
(2.99573 0.0107204 0)
(2.99993 0.000181955 0)
(3 1.85152e-06 0)
(3 1.23705e-08 0)
(2.07937 -1.00777 0)
(2.66319 -1.37791 0)
(3.05113 -0.998034 0)
(3.12546 -0.551899 0)
(3.04806 0.0274478 0)
(2.94421 0.280646 0)
(2.79538 0.505405 0)
(2.71729 0.601222 0)
(2.72998 0.583962 0)
(2.83031 0.369717 0)
(2.96932 0.0731255 0)
(2.99885 0.00300388 0)
(2.99998 4.33706e-05 0)
(3 4.35758e-07 0)
(3 2.96362e-09 0)
(1.94707 -0.788353 0)
(2.64089 -1.20346 0)
(3.06119 -0.904144 0)
(3.03803 -0.00433496 0)
(2.98767 0.181358 0)
(2.86115 0.38595 0)
(2.72243 0.593796 0)
(2.69233 0.617155 0)
(2.73227 0.524049 0)
(2.88188 0.255629 0)
(2.98863 0.0288756 0)
(2.99973 0.000730838 0)
(3 9.25928e-06 0)
(3 9.0296e-08 0)
(3 6.15923e-10 0)
(1.64599 -0.279138 0)
(2.64569 -0.918576 0)
(3.05941 -0.334223 0)
(2.99666 0.13614 0)
(2.90563 0.282252 0)
(2.74544 0.545871 0)
(2.67043 0.642892 0)
(2.67681 0.627917 0)
(2.75924 0.47594 0)
(2.94039 0.135389 0)
(2.99696 0.00829858 0)
(2.99995 0.000152558 0)
(3 1.77209e-06 0)
(3 1.66606e-08 0)
(3 1.11441e-10 0)
(1.36535 0.500317 0)
(2.77688 -0.503032 0)
(2.98915 0.064191 0)
(2.92002 0.238165 0)
(2.77536 0.492264 0)
(2.66689 0.630816 0)
(2.64052 0.655385 0)
(2.64994 0.626399 0)
(2.8193 0.346823 0)
(2.97725 0.0525852 0)
(2.99934 0.00178875 0)
(2.99999 2.70602e-05 0)
(3 2.95044e-07 0)
(3 2.67749e-09 0)
(3 1.73916e-11 0)
(1.49268 0.755517 0)
(2.87737 -0.0472551 0)
(2.96261 0.194155 0)
(2.78028 0.505547 0)
(2.67006 0.62059 0)
(2.6169 0.67377 0)
(2.62777 0.65086 0)
(2.70536 0.51652 0)
(2.93186 0.145197 0)
(2.9961 0.0108795 0)
(2.99991 0.000253059 0)
(3 3.41075e-06 0)
(3 3.65069e-08 0)
(3 3.27523e-10 0)
(3 2.12208e-12 0)
(2.04784 0.612002 0)
(2.93463 0.366608 0)
(2.81083 0.494797 0)
(2.65883 0.646648 0)
(2.60754 0.677387 0)
(2.59486 0.696414 0)
(2.64078 0.558076 0)
(2.8413 0.279201 0)
(2.98128 0.044929 0)
(2.99945 0.00151099 0)
(2.99999 2.4312e-05 0)
(3 2.9726e-07 0)
(3 3.01962e-09 0)
(3 2.6222e-11 0)
(3 1.70838e-13 0)
(2.44827 0.658928 0)
(2.79439 0.548776 0)
(2.63501 0.666491 0)
(2.58937 0.705776 0)
(2.58501 0.691283 0)
(2.55773 0.725773 0)
(2.69918 0.466716 0)
(2.93221 0.119222 0)
(2.99783 0.00501201 0)
(2.99997 8.68398e-05 0)
(3 1.06097e-06 0)
(3 1.06015e-08 0)
(3 9.14661e-11 0)
(3 6.92353e-13 0)
(3 3.32702e-15 0)
(2.53982 0.692016 0)
(2.55788 0.695463 0)
(2.57121 0.710854 0)
(2.56628 0.718094 0)
(2.57738 0.690854 0)
(2.5996 0.62386 0)
(2.90001 0.13598 0)
(3.00583 -0.0106204 0)
(3.00039 -0.000628299 0)
(3.00001 -9.92549e-06 0)
(3 -6.89529e-08 0)
(3 -4.46884e-10 0)
(3 -2.71135e-12 0)
(3 -1.5636e-14 0)
(3 -1.15706e-16 0)
(2.52828 0.687497 0)
(2.55374 0.677259 0)
(2.56647 0.702777 0)
(2.54653 0.737198 0)
(2.56953 0.679185 0)
(2.70213 0.466804 0)
(2.92344 0.116316 0)
(2.99767 0.00341572 0)
(2.99997 4.0054e-05 0)
(3 2.9353e-07 0)
(3 1.86908e-09 0)
(3 1.08612e-11 0)
(3 5.89161e-14 0)
(3 3.23281e-16 0)
(3 4.42366e-16 0)
(2.52616 0.689916 0)
(2.5495 0.662385 0)
(2.56016 0.709949 0)
(2.538 0.759358 0)
(2.57571 0.648011 0)
(2.77674 0.317524 0)
(2.98852 0.0149192 0)
(2.99994 8.51303e-05 0)
(3 1.41137e-07 0)
(3 6.53725e-10 0)
(3 3.63422e-12 0)
(3 2.24858e-14 0)
(3 -2.71174e-17 0)
(3 -3.39115e-16 0)
(3 1.07367e-16 0)
(2.52716 0.703918 0)
(2.54891 0.663647 0)
(2.55082 0.710261 0)
(2.53446 0.76541 0)
(2.61616 0.610621 0)
(2.89097 0.153612 0)
(2.99726 0.00396323 0)
(2.99999 8.85315e-06 0)
(3 3.40404e-08 0)
(3 4.53425e-11 0)
(3 2.12667e-13 0)
(3 3.58968e-15 0)
(3 1.23659e-15 0)
(3 -3.06577e-16 0)
(3 8.87012e-18 0)
(2.52493 0.714307 0)
(2.52538 0.70566 0)
(2.54786 0.723581 0)
(2.54472 0.738926 0)
(2.77534 0.366505 0)
(2.97596 0.0347803 0)
(2.99985 0.000176103 0)
(3 5.74968e-07 0)
(3 -6.2553e-10 0)
(3 9.72214e-12 0)
(3 4.70297e-13 0)
(3 5.35327e-15 0)
(3 1.11992e-15 0)
(3 -3.35487e-16 0)
(3 3.92518e-17 0)
(2.51329 0.738657 0)
(2.50866 0.750705 0)
(2.54838 0.732172 0)
(2.57734 0.692044 0)
(2.84605 0.230198 0)
(2.99513 0.00683707 0)
(2.99998 2.81144e-05 0)
(3 -4.73275e-08 0)
(3 2.58967e-10 0)
(3 1.14655e-11 0)
(3 7.13473e-13 0)
(3 6.30234e-15 0)
(3 1.30239e-15 0)
(3 2.77715e-16 0)
(3 5.43871e-16 0)
(2.51253 0.72821 0)
(2.45691 0.808923 0)
(2.55542 0.727087 0)
(2.70979 0.496489 0)
(2.96047 0.0565517 0)
(2.99963 0.000472175 0)
(3 -2.15361e-07 0)
(3 3.31731e-09 0)
(3 1.01301e-10 0)
(3 2.53475e-12 0)
(3 5.9363e-15 0)
(3 9.99216e-16 0)
(3 1.41928e-15 0)
(3 7.04893e-16 0)
(3 9.25029e-16 0)
(2.47859 0.726025 0)
(2.40346 0.86862 0)
(2.68523 0.634961 0)
(2.87473 0.252385 0)
(2.9946 0.00833385 0)
(2.99998 2.44676e-05 0)
(3 1.98932e-07 0)
(3 6.46921e-10 0)
(3 5.99015e-13 0)
(3 2.92645e-14 0)
(3 1.96307e-15 0)
(3 1.4353e-15 0)
(3 1.2434e-15 0)
(3 1.39439e-15 0)
(3 1.25506e-15 0)
(2.49081 0.675615 0)
(2.46272 0.926995 0)
(2.75538 0.493805 0)
(2.95488 0.0742378 0)
(2.99951 0.000620952 0)
(3 8.05219e-07 0)
(3 -4.20643e-09 0)
(3 -5.7344e-12 0)
(3 -1.94089e-13 0)
(3 5.46426e-15 0)
(3 -8.64174e-16 0)
(3 5.60749e-16 0)
(3 9.27489e-16 0)
(3 1.65068e-15 0)
(3 1.51291e-15 0)
(2.53471 0.601498 0)
(2.51453 0.819435 0)
(2.88956 0.220568 0)
(2.99489 0.00913457 0)
(2.99998 3.03153e-05 0)
(3 5.46632e-08 0)
(3 5.5958e-10 0)
(3 3.08648e-12 0)
(3 1.47109e-13 0)
(3 1.44881e-15 0)
(3 -1.99683e-15 0)
(3 1.59452e-16 0)
(3 7.8507e-16 0)
(3 1.91807e-15 0)
(3 1.73013e-15 0)
(2.57722 0.481911 0)
(2.63622 0.627818 0)
(2.95328 0.0849771 0)
(2.99926 0.00118488 0)
(3 2.37625e-06 0)
(3 1.69191e-08 0)
(3 -2.23374e-11 0)
(3 1.66281e-13 0)
(3 8.73882e-15 0)
(3 -5.63908e-17 0)
(3 -1.56707e-15 0)
(3 -2.45133e-16 0)
(3 7.19845e-16 0)
(3 2.52071e-15 0)
(3 2.11229e-15 0)
(2.63258 0.377006 0)
(2.7705 0.387575 0)
(2.98758 0.0203736 0)
(2.99992 0.000119067 0)
(3 2.84591e-07 0)
(3 -7.18935e-10 0)
(3 -1.42947e-13 0)
(3 -1.38674e-14 0)
(3 3.427e-15 0)
(3 3.65279e-17 0)
(3 -1.39404e-15 0)
(3 -4.08734e-16 0)
(3 4.3786e-16 0)
(3 3.02197e-15 0)
(3 2.36446e-15 0)
(2.72911 0.231837 0)
(2.88197 0.192807 0)
(2.9975 0.00392294 0)
(2.99999 1.2437e-05 0)
(3 1.92158e-08 0)
(3 2.70981e-10 0)
(3 9.66002e-13 0)
(3 2.3985e-14 0)
(3 1.26574e-16 0)
(3 2.25786e-16 0)
(3 -1.39484e-15 0)
(3 -1.21736e-15 0)
(3 5.57395e-16 0)
(3 3.35395e-15 0)
(3 2.61301e-15 0)
(2.80663 0.132236 0)
(2.95663 0.0645344 0)
(2.99961 0.000548462 0)
(3 1.2482e-06 0)
(3 3.67485e-09 0)
(3 -1.86244e-11 0)
(3 -7.90582e-14 0)
(3 -2.79284e-15 0)
(3 1.55109e-15 0)
(3 6.49489e-16 0)
(3 -1.87149e-15 0)
(3 -1.52143e-15 0)
(3 2.20238e-16 0)
(3 3.10611e-15 0)
(3 2.66154e-15 0)
(2.91697 0.0193714 0)
(2.99228 0.0107307 0)
(2.99997 3.24734e-05 0)
(3 7.84948e-09 0)
(3 -6.4653e-11 0)
(3 -4.22553e-12 0)
(3 -8.62575e-14 0)
(3 1.16852e-15 0)
(3 1.7901e-15 0)
(3 5.3305e-16 0)
(3 -1.92815e-15 0)
(3 -1.56454e-15 0)
(3 -2.33024e-16 0)
(3 2.14335e-15 0)
(3 2.25168e-15 0)
(3 6.62713e-16 0)
(3 -5.73933e-16 0)
(3 9.45189e-16 0)
(3 3.70553e-15 0)
(3 1.60578e-16 0)
(3 -1.98675e-15 0)
(3 -1.74346e-16 0)
(3 3.28188e-16 0)
(3 1.76671e-15 0)
(3 -9.91864e-17 0)
(3 -2.08587e-15 0)
(3 -1.17602e-15 0)
(3 -6.9217e-16 0)
(3 1.60552e-15 0)
(3 1.99686e-15 0)
(3 -3.18012e-16 0)
(3 -5.40387e-16 0)
(3 1.59126e-15 0)
(3 3.30544e-15 0)
(3 -4.00646e-16 0)
(3 -2.05688e-15 0)
(3 -8.09948e-16 0)
(3 3.57363e-16 0)
(3 1.49528e-15 0)
(3 -8.31632e-16 0)
(3 -1.85901e-15 0)
(3 -5.49943e-16 0)
(3 -8.74218e-16 0)
(3 1.51906e-15 0)
(3 1.85045e-15 0)
(3 -1.22077e-15 0)
(3 4.44981e-16 0)
(3 1.60874e-15 0)
(3 1.91031e-15 0)
(3 -5.34604e-16 0)
(3 -1.87197e-15 0)
(3 -9.76183e-16 0)
(3 2.40714e-16 0)
(3 1.32713e-15 0)
(3 -9.70993e-16 0)
(3 -1.56873e-15 0)
(3 -1.62503e-16 0)
(3 -5.91155e-16 0)
(3 1.12602e-15 0)
(3 1.37072e-15 0)
(3 -7.58515e-16 0)
(3 1.30945e-16 0)
(3 2.99232e-16 0)
(3 1.80013e-15 0)
(3 3.80156e-16 0)
(3 -1.73669e-15 0)
(3 -5.44504e-16 0)
(3 2.73903e-16 0)
(3 8.31953e-16 0)
(3 -9.37454e-16 0)
(3 -1.9056e-15 0)
(3 -2.32119e-17 0)
(3 -2.09944e-16 0)
(3 1.01787e-15 0)
(3 1.10974e-15 0)
(3 -1.32706e-15 0)
(3 -3.59734e-16 0)
(3 3.37781e-16 0)
(3 1.34135e-15 0)
(3 8.61826e-16 0)
(3 -6.63616e-16 0)
(3 -2.77324e-16 0)
(3 -8.19372e-17 0)
(3 3.87842e-16 0)
(3 -1.0564e-15 0)
(3 -2.65796e-15 0)
(3 -3.44969e-16 0)
(3 7.474e-16 0)
(3 1.16739e-15 0)
(3 9.14892e-16 0)
(3 1.44965e-17 0)
(3 -3.64152e-16 0)
(3 2.66873e-16 0)
(3 1.12152e-15 0)
(3 1.1808e-15 0)
(3 2.7982e-16 0)
(3 1.08821e-16 0)
(3 -6.14224e-16 0)
(3 -5.01298e-16 0)
(3 -1.29997e-15 0)
(3 -2.29085e-15 0)
(3 -8.91446e-16 0)
(3 5.86335e-16 0)
(3 1.68599e-15 0)
(3 8.00658e-16 0)
(3 2.57837e-16 0)
(3 -7.25902e-17 0)
(3 -4.09485e-16 0)
(3 1.00734e-15 0)
(3 1.84706e-15 0)
(3 3.96135e-16 0)
(3 -5.70198e-16 0)
(3 -4.4681e-16 0)
(3 -9.62281e-16 0)
(3 -2.01793e-15 0)
(3 -1.63506e-15 0)
(3 -7.54856e-16 0)
(3 9.54868e-16 0)
(3 1.75007e-15 0)
(3 5.71746e-16 0)
(3 1.54823e-16 0)
(3 -6.642e-16 0)
(3 -5.94143e-16 0)
(3 9.31626e-16 0)
(3 1.96157e-15 0)
(3 1.69723e-16 0)
(3 -1.24424e-16 0)
(3 -3.22138e-16 0)
(3 -1.13408e-15 0)
(3 -2.14411e-15 0)
(3 -9.94906e-16 0)
(3 -1.51832e-16 0)
(3 1.39175e-15 0)
(3 2.04817e-15 0)
(3 2.57043e-16 0)
(3 3.77655e-16 0)
(3 -3.20682e-16 0)
(3 8.75068e-17 0)
(3 -3.53148e-16 0)
(3 5.71605e-16 0)
(3 1.67292e-16 0)
(3 3.26327e-16 0)
(3 -6.09629e-16 0)
(3 -1.16295e-15 0)
(3 -7.98686e-16 0)
(3 -1.35046e-16 0)
(3 9.1969e-18 0)
(3 3.22131e-16 0)
(3 1.22509e-15 0)
(3 4.18357e-16 0)
(3 6.52798e-16 0)
(3 2.52541e-16 0)
(3 -8.31299e-17 0)
(3 -5.44804e-16 0)
(3 -2.22843e-16 0)
(3 2.3768e-16 0)
(3 1.03878e-15 0)
(3 6.79676e-16 0)
(3 -6.48532e-17 0)
(3 -1.00137e-15 0)
(3 -5.01374e-17 0)
(3 3.97617e-16 0)
(3 -9.42022e-18 0)
(3 1.67693e-16 0)
(3 7.19022e-17 0)
(3 -7.1518e-16 0)
(3 -1.12866e-15 0)
(3 -1.59165e-15 0)
(3 -1.76374e-15 0)
(3 -1.26368e-15 0)
(3 -1.86357e-16 0)
(3 6.88459e-16 0)
(3 1.02167e-15 0)
(3 1.27234e-15 0)
(3 9.36712e-16 0)
(3 -4.63868e-16 0)
(3 -7.17438e-16 0)
(3 -2.21378e-16 0)
(3 -3.01409e-16 0)
(3 3.77162e-16 0)
(3 -9.53363e-17 0)
(3 1.26737e-15 0)
(3 2.30745e-15 0)
(3 1.1298e-15 0)
(3 -3.63324e-16 0)
(3 -1.1433e-15 0)
(3 -7.44385e-16 0)
(3 -4.44378e-16 0)
(3 6.31238e-16 0)
(3 1.26554e-15 0)
(3 -2.35506e-17 0)
(3 -2.42506e-16 0)
(3 8.09835e-16 0)
(3 5.74704e-16 0)
(3 -1.20979e-15 0)
(3 -3.18194e-15 0)
(3 -2.82931e-15 0)
(3 -9.11927e-16 0)
(3 -1.90397e-16 0)
(3 8.94805e-16 0)
(3 1.70293e-15 0)
(3 1.03564e-15 0)
(3 -1.69794e-16 0)
(3 -1.35191e-16 0)
(3 -8.38867e-16 0)
(3 -1.42381e-15 0)
(3 -1.41425e-15 0)
(3 9.70652e-16 0)
(3 1.69428e-15 0)
(3 2.4456e-15 0)
(3 3.14571e-15 0)
(3 3.63645e-15 0)
(3 1.52103e-15 0)
(3 4.8273e-16 0)
(3 -3.08331e-18 0)
(3 -4.31881e-16 0)
(3 -1.84358e-16 0)
(3 -1.4342e-16 0)
(3 7.75379e-16 0)
(3 9.61304e-16 0)
(3 9.80779e-16 0)
(3 1.0988e-15 0)
(3 2.35907e-15 0)
(3 1.55559e-15 0)
(3 -1.33171e-18 0)
(3 -5.24368e-16 0)
(3 1.99599e-17 0)
(3 -8.96527e-16 0)
(3 -9.60247e-16 0)
(3 -1.46665e-15 0)
(3 -1.92915e-15 0)
(3 -1.60297e-15 0)
(3 -1.34665e-15 0)
(3 -8.93946e-16 0)
(3 -3.52599e-17 0)
(3 -6.94083e-17 0)
(3 6.55627e-16 0)
(3 8.94534e-16 0)
(3 -3.46116e-16 0)
(3 -1.33442e-15 0)
(3 -3.10037e-15 0)
(3 -3.0447e-15 0)
(3 -4.10187e-15 0)
(3 -3.00635e-15 0)
(3 4.90339e-16 0)
(3 -1.91405e-15 0)
(3 -9.3515e-16 0)
(3 -2.48187e-16 0)
(3 -1.55902e-15 0)
(3 -1.86969e-15 0)
(3 -1.83008e-15 0)
(3 -2.1818e-15 0)
(3 -2.42623e-15 0)
(3 -2.09298e-15 0)
(3 -9.40667e-16 0)
(3 -2.86378e-15 0)
(3 -2.76159e-15 0)
(3 -2.04094e-15 0)
(3 -1.20392e-15 0)
(3 -6.20034e-16 0)
(3 8.72693e-16 0)
(3 4.15296e-16 0)
(3 -3.61299e-16 0)
(3 -9.82979e-16 0)
(3 -7.83936e-16 0)
(3 -3.26264e-16 0)
(3 -6.76784e-16 0)
(3 2.23915e-16 0)
(3 1.33338e-15 0)
(3 1.83309e-15 0)
(3 1.70329e-15 0)
(3 7.28795e-16 0)
(3 1.20599e-15 0)
(3 1.44929e-15 0)
(3 1.2207e-15 0)
(3 -2.0434e-15 0)
(3 -2.42002e-15 0)
(3 -2.21151e-15 0)
(3 -1.99554e-15 0)
(3 -3.83498e-16 0)
(3 -1.82722e-16 0)
(3 -1.11342e-16 0)
(3 8.60481e-16 0)
(3 1.37635e-15 0)
(3 1.46008e-15 0)
(3 -2.80214e-15 0)
(3 -2.19377e-15 0)
(3 -2.01627e-15 0)
(3 -2.17828e-15 0)
(3 -2.63143e-15 0)
(3 -2.47001e-15 0)
(3 -1.35505e-15 0)
(3 -1.22161e-15 0)
(3 -7.55427e-16 0)
(3 -5.06364e-16 0)
(3 1.09805e-15 0)
(3 1.37071e-15 0)
(3 1.08569e-15 0)
(3 -5.27397e-16 0)
(3 -1.40774e-15 0)
(3 -1.72733e-15 0)
(3 -1.79471e-15 0)
(3 -1.48655e-15 0)
(3 -9.56423e-16 0)
(3 -9.37929e-16 0)
(3 3.2333e-15 0)
(3 2.82594e-15 0)
(3 2.5138e-15 0)
(3 2.28428e-15 0)
(3 1.88861e-15 0)
(3 8.64886e-16 0)
(3 -8.77121e-17 0)
(3 2.20296e-16 0)
(3 3.39943e-16 0)
(3 8.11422e-17 0)
(3 2.9005e-15 0)
(3 2.69932e-15 0)
(3 2.44502e-15 0)
(3 2.56704e-15 0)
(3 1.90865e-15 0)
(3 8.90491e-16 0)
(3 6.69907e-16 0)
(3 5.09457e-16 0)
(3 3.68809e-16 0)
(3 1.87345e-16 0)
(3 9.3315e-16 0)
(3 6.26445e-16 0)
(3 -3.77876e-16 0)
(3 -8.44178e-16 0)
(3 -7.26791e-16 0)
(3 -2.3472e-16 0)
(3 9.00153e-17 0)
(3 1.71612e-16 0)
(3 -4.20771e-16 0)
(3 -2.17171e-16 0)
(3 1.0685e-16 0)
(3 -6.3996e-16 0)
(3 -6.97183e-16 0)
(3 -6.02953e-16 0)
(3 2.24341e-16 0)
(3 9.74721e-16 0)
(3 1.24824e-15 0)
(3 1.21769e-15 0)
(3 7.71287e-16 0)
(3 4.48704e-16 0)
(3 4.09327e-16 0)
(3 7.80216e-16 0)
(3 2.06305e-15 0)
(3 2.58714e-15 0)
(3 2.75838e-15 0)
(3 2.85723e-15 0)
(3 2.34137e-15 0)
(3 1.44883e-15 0)
(3 8.88971e-16 0)
(3 -8.56996e-18 0)
(3 1.53997e-16 0)
(3 9.57236e-16 0)
(3 1.17037e-15 0)
(3 1.40312e-15 0)
(3 1.18399e-15 0)
(3 7.22714e-16 0)
(3 4.10139e-16 0)
(3 1.09861e-16 0)
(3 -1.06639e-16 0)
(3 -2.55734e-16 0)
(2.84842 -0.0476131 0)
(2.99348 -0.00838575 0)
(3 2.56557e-09 0)
(3 4.62151e-15 0)
(3 -2.14433e-15 0)
(3 -4.85937e-16 0)
(3 1.01946e-16 0)
(3 -9.87752e-16 0)
(3 -3.69118e-15 0)
(3 -2.58559e-15 0)
(3 -6.10861e-16 0)
(3 -6.79937e-16 0)
(3 -1.65577e-15 0)
(3 1.70749e-15 0)
(3 3.00804e-15 0)
(3 3.47481e-15 0)
(3 1.44798e-15 0)
(3 1.76937e-17 0)
(3 3.1011e-17 0)
(3 3.13992e-17 0)
(2.60591 -0.280996 0)
(2.89011 -0.13601 0)
(3.00029 0.000321895 0)
(3 -1.16229e-06 0)
(3 1.66038e-09 0)
(3 1.23705e-11 0)
(3 -1.57887e-14 0)
(3 -3.02012e-15 0)
(3 -3.66381e-15 0)
(3 -3.17265e-15 0)
(3 -1.15158e-15 0)
(3 1.4292e-15 0)
(3 -2.61861e-16 0)
(3 2.13706e-15 0)
(3 3.01303e-15 0)
(3 3.78624e-15 0)
(3 1.7724e-15 0)
(3 -2.55646e-16 0)
(3 -5.55417e-16 0)
(3 -1.57547e-16 0)
(2.51652 -0.501869 0)
(2.71782 -0.444101 0)
(2.99533 -0.0063396 0)
(3.00002 2.73348e-05 0)
(3 -3.02148e-10 0)
(3 1.36273e-11 0)
(3 2.35821e-15 0)
(3 -2.71521e-15 0)
(3 -3.07336e-15 0)
(3 -3.67895e-15 0)
(3 -8.81103e-16 0)
(3 2.00193e-15 0)
(3 7.47771e-16 0)
(3 2.86538e-15 0)
(3 2.47357e-15 0)
(3 3.91199e-15 0)
(3 2.18957e-15 0)
(3 -3.97301e-16 0)
(3 -8.91685e-16 0)
(3 -6.75899e-17 0)
(2.29326 -0.740239 0)
(2.24774 -1.00088 0)
(2.87212 -0.206937 0)
(2.99969 -0.00054093 0)
(3 -1.34409e-10 0)
(3 1.24729e-11 0)
(3 2.69717e-13 0)
(3 -2.81969e-15 0)
(3 -1.54494e-15 0)
(3 -3.8374e-15 0)
(3 -1.51047e-16 0)
(3 3.0462e-15 0)
(3 1.89847e-15 0)
(3 3.85021e-15 0)
(3 2.27222e-15 0)
(3 3.74548e-15 0)
(3 2.21853e-15 0)
(3 -4.47789e-16 0)
(3 -7.91675e-16 0)
(3 1.70917e-16 0)
(2.1802 -0.856086 0)
(2.10053 -1.06382 0)
(2.61977 -0.66249 0)
(2.951 -0.106037 0)
(3.00002 0.000185433 0)
(3 3.48247e-07 0)
(3 3.81158e-10 0)
(3 5.17563e-13 0)
(3 -1.05972e-15 0)
(3 -3.51106e-15 0)
(3 -6.54253e-16 0)
(3 2.30272e-15 0)
(3 2.38002e-15 0)
(3 5.0175e-15 0)
(3 1.17478e-15 0)
(3 3.36133e-15 0)
(3 2.21635e-15 0)
(3 3.13238e-16 0)
(3 -3.96622e-16 0)
(3 3.81213e-16 0)
(2.20041 -0.902075 0)
(2.13353 -1.02587 0)
(2.31005 -0.958271 0)
(2.52967 -0.633972 0)
(2.95643 -0.0502405 0)
(3.00009 0.000136645 0)
(3 8.61326e-07 0)
(3 -7.23474e-10 0)
(3 -1.82292e-11 0)
(3 2.97302e-14 0)
(3 7.86996e-16 0)
(3 2.25635e-15 0)
(3 2.54801e-15 0)
(3 5.21824e-15 0)
(3 2.06403e-15 0)
(3 2.38011e-15 0)
(3 2.2202e-15 0)
(3 6.30485e-16 0)
(3 4.3297e-17 0)
(3 5.19141e-16 0)
(2.22068 -0.913719 0)
(2.19442 -0.954899 0)
(2.23865 -0.924484 0)
(2.36786 -0.841408 0)
(2.74505 -0.356062 0)
(2.99241 -0.0101931 0)
(3.00002 3.1675e-05 0)
(3 9.84164e-07 0)
(3 3.413e-09 0)
(3 -7.94497e-12 0)
(3 -3.22234e-13 0)
(3 2.92104e-15 0)
(3 3.0269e-15 0)
(3 4.04771e-15 0)
(3 2.40811e-15 0)
(3 2.30835e-15 0)
(3 2.13187e-15 0)
(3 5.54482e-16 0)
(3 2.25216e-16 0)
(3 1.23207e-15 0)
(2.24562 -0.890325 0)
(2.24875 -0.884009 0)
(2.25663 -0.906752 0)
(2.25158 -0.937835 0)
(2.37604 -0.77258 0)
(2.85621 -0.169605 0)
(2.99911 -0.00124945 0)
(3 -1.00709e-06 0)
(3 1.46049e-09 0)
(3 7.44472e-11 0)
(3 -1.58529e-13 0)
(3 -1.85858e-14 0)
(3 2.54163e-15 0)
(3 4.10148e-15 0)
(3 2.51163e-15 0)
(3 2.56037e-15 0)
(3 1.21119e-15 0)
(3 2.84135e-16 0)
(3 8.35779e-16 0)
(3 1.45596e-15 0)
(2.24851 -0.880572 0)
(2.26746 -0.856502 0)
(2.27207 -0.892551 0)
(2.25547 -0.935075 0)
(2.25633 -0.903156 0)
(2.50966 -0.56673 0)
(2.956 -0.047761 0)
(3.00004 6.04392e-05 0)
(3 1.4348e-06 0)
(3 -2.76406e-09 0)
(3 -2.864e-11 0)
(3 2.59693e-15 0)
(3 3.25852e-15 0)
(3 2.24788e-15 0)
(3 2.69076e-15 0)
(3 2.40597e-15 0)
(3 9.11938e-16 0)
(3 4.49347e-16 0)
(3 1.76952e-15 0)
(3 1.81195e-15 0)
(2.2464 -0.875443 0)
(2.27051 -0.86919 0)
(2.28427 -0.886361 0)
(2.27384 -0.905621 0)
(2.27409 -0.883452 0)
(2.38129 -0.761317 0)
(2.73839 -0.312009 0)
(2.99448 -0.00685118 0)
(3.00001 1.26877e-05 0)
(3 5.29845e-07 0)
(3 -5.93855e-10 0)
(3 -2.98248e-11 0)
(3 -3.62764e-13 0)
(3 2.86419e-15 0)
(3 3.16444e-15 0)
(3 2.41828e-15 0)
(3 1.02063e-15 0)
(3 3.91004e-16 0)
(3 2.38655e-15 0)
(3 2.76195e-15 0)
(2.25551 -0.881724 0)
(2.27107 -0.880018 0)
(2.28489 -0.882462 0)
(2.29013 -0.883071 0)
(2.28618 -0.879781 0)
(2.27831 -0.888791 0)
(2.51097 -0.607561 0)
(2.9319 -0.0809751 0)
(2.99988 -0.000129771 0)
(3 9.47051e-08 0)
(3 9.32555e-09 0)
(3 4.91781e-11 0)
(3 -2.83411e-13 0)
(3 -2.38714e-14 0)
(3 3.55137e-15 0)
(3 3.50751e-15 0)
(3 1.07759e-15 0)
(3 2.17188e-17 0)
(3 2.1752e-15 0)
(3 2.70815e-15 0)
(2.26358 -0.884543 0)
(2.27219 -0.884594 0)
(2.28663 -0.881748 0)
(2.29618 -0.876778 0)
(2.2962 -0.888273 0)
(2.26838 -0.907869 0)
(2.35796 -0.806071 0)
(2.67847 -0.394128 0)
(2.9882 -0.0143292 0)
(3 1.27215e-05 0)
(3 1.83627e-07 0)
(3 6.83175e-11 0)
(3 1.21345e-13 0)
(3 -2.09687e-14 0)
(3 1.71592e-15 0)
(3 3.67564e-15 0)
(3 1.28291e-15 0)
(3 -1.67199e-16 0)
(3 1.72127e-15 0)
(3 2.32188e-15 0)
(2.27074 -0.885977 0)
(2.27592 -0.885904 0)
(2.29284 -0.885684 0)
(2.30604 -0.893008 0)
(2.30351 -0.897038 0)
(2.29311 -0.905661 0)
(2.34562 -0.85686 0)
(2.57014 -0.599331 0)
(2.93206 -0.0924538 0)
(2.99977 -0.000285614 0)
(3 4.25468e-07 0)
(3 1.38101e-08 0)
(3 1.99416e-10 0)
(3 1.79049e-12 0)
(3 -4.46737e-17 0)
(3 3.18665e-15 0)
(3 1.58422e-15 0)
(3 7.09052e-16 0)
(3 1.76862e-15 0)
(3 2.18616e-15 0)
(2.28118 -0.887088 0)
(2.28605 -0.891485 0)
(2.30505 -0.892324 0)
(2.31576 -0.906606 0)
(2.32095 -0.89582 0)
(2.32085 -0.891685 0)
(2.35045 -0.866942 0)
(2.39794 -0.841573 0)
(2.7066 -0.411243 0)
(2.98283 -0.0259615 0)
(2.99991 -0.000155233 0)
(3 -4.00301e-07 0)
(3 -7.03088e-10 0)
(3 1.16408e-12 0)
(3 6.74588e-14 0)
(3 4.37931e-15 0)
(3 1.70753e-15 0)
(3 5.93253e-16 0)
(3 1.75099e-15 0)
(3 2.11563e-15 0)
(2.29839 -0.893258 0)
(2.30569 -0.903167 0)
(2.32626 -0.902471 0)
(2.33666 -0.910746 0)
(2.33896 -0.896028 0)
(2.34708 -0.885931 0)
(2.3705 -0.879244 0)
(2.39415 -0.84791 0)
(2.68031 -0.477921 0)
(3.00424 0.0145821 0)
(3.00032 0.000616435 0)
(3.00001 4.25793e-05 0)
(3 1.23475e-07 0)
(3 3.38918e-10 0)
(3 1.28207e-12 0)
(3 8.15858e-15 0)
(3 2.15286e-15 0)
(3 1.34962e-15 0)
(3 1.92262e-15 0)
(3 2.02929e-15 0)
(2.29894 -0.850081 0)
(2.63684 -0.658859 0)
(2.46987 -0.801961 0)
(2.4029 -0.868355 0)
(2.37478 -0.886262 0)
(2.36613 -0.885739 0)
(2.37865 -0.879461 0)
(2.38532 -0.884036 0)
(2.47242 -0.752441 0)
(2.74447 -0.393688 0)
(2.97294 -0.0567714 0)
(2.99928 -0.00218366 0)
(2.99999 -3.28587e-05 0)
(3 -3.65605e-07 0)
(3 -3.42303e-09 0)
(3 -2.8137e-11 0)
(3 -2.01717e-13 0)
(3 6.13399e-16 0)
(3 2.55689e-15 0)
(3 2.02762e-15 0)
(1.93747 -0.945291 0)
(2.78637 -0.319355 0)
(2.72307 -0.501182 0)
(2.5747 -0.707643 0)
(2.4786 -0.813132 0)
(2.42789 -0.853267 0)
(2.40677 -0.866537 0)
(2.39991 -0.881804 0)
(2.42407 -0.849226 0)
(2.4898 -0.759473 0)
(2.81593 -0.317945 0)
(2.98346 -0.0387654 0)
(2.99958 -0.00125442 0)
(2.99999 -1.8281e-05 0)
(3 -1.91188e-07 0)
(3 -1.69476e-09 0)
(3 -1.31425e-11 0)
(3 -8.65565e-14 0)
(3 3.24892e-15 0)
(3 2.11838e-15 0)
(2.07378 -0.367073 0)
(2.851 0.192189 0)
(2.91101 -0.0801362 0)
(2.78365 -0.39868 0)
(2.64448 -0.629864 0)
(2.54775 -0.749044 0)
(2.47908 -0.816662 0)
(2.43427 -0.870066 0)
(2.4363 -0.848529 0)
(2.45082 -0.837629 0)
(2.58369 -0.67187 0)
(2.89723 -0.204494 0)
(2.99384 -0.0166324 0)
(2.99989 -0.000346444 0)
(3 -4.0951e-06 0)
(3 -3.74104e-08 0)
(3 -2.95699e-10 0)
(3 -2.05478e-12 0)
(3 -8.1465e-15 0)
(3 1.72675e-15 0)
(2.25208 0.141203 0)
(2.76617 0.764901 0)
(2.975 0.0778691 0)
(2.93192 -0.16308 0)
(2.82583 -0.361463 0)
(2.69245 -0.574659 0)
(2.60308 -0.69449 0)
(2.51582 -0.807505 0)
(2.46948 -0.835844 0)
(2.46439 -0.839237 0)
(2.52198 -0.758659 0)
(2.7156 -0.507034 0)
(2.96221 -0.0874953 0)
(2.99867 -0.0040336 0)
(2.99998 -5.77106e-05 0)
(3 -5.63281e-07 0)
(3 -4.58352e-09 0)
(3 -3.27364e-11 0)
(3 -2.0208e-13 0)
(3 5.29797e-16 0)
(2.49501 0.795194 0)
(2.73675 1.21634 0)
(3.00465 0.554894 0)
(3.04358 0.074136 0)
(2.94995 -0.228308 0)
(2.82677 -0.425723 0)
(2.72759 -0.563121 0)
(2.61955 -0.707929 0)
(2.55111 -0.777013 0)
(2.4954 -0.837633 0)
(2.51403 -0.823009 0)
(2.63607 -0.649172 0)
(2.84278 -0.316925 0)
(2.98868 -0.0276216 0)
(2.99978 -0.000642497 0)
(3 -6.91975e-06 0)
(3 -5.80959e-08 0)
(3 -4.23113e-10 0)
(3 -2.71593e-12 0)
(3 -1.23651e-14 0)
(2.57942 0.976765 0)
(2.79347 1.29376 0)
(3.00024 0.833446 0)
(3.0732 0.616652 0)
(3.02999 0.074539 0)
(2.94915 -0.208684 0)
(2.83196 -0.43495 0)
(2.7285 -0.595181 0)
(2.64829 -0.698704 0)
(2.55992 -0.798987 0)
(2.52969 -0.823488 0)
(2.55019 -0.791645 0)
(2.75493 -0.495851 0)
(2.94623 -0.128148 0)
(2.99791 -0.0055642 0)
(2.99997 -7.48421e-05 0)
(3 -6.53947e-07 0)
(3 -4.76531e-09 0)
(3 -3.0427e-11 0)
(3 -1.48601e-13 0)
(2.64578 1.0327 0)
(2.95491 1.27461 0)
(3.12195 0.829427 0)
(3.11583 0.706193 0)
(3.07207 0.455335 0)
(3.01223 0.127863 0)
(2.94732 -0.139934 0)
(2.85031 -0.386167 0)
(2.74645 -0.586825 0)
(2.64154 -0.72641 0)
(2.56393 -0.810022 0)
(2.56098 -0.803761 0)
(2.62091 -0.720111 0)
(2.85366 -0.31698 0)
(2.98873 -0.029748 0)
(2.9998 -0.000604668 0)
(3 -5.55871e-06 0)
(3 -4.03747e-08 0)
(3 -2.57158e-10 0)
(3 -1.25925e-12 0)
(2.59574 0.964653 0)
(2.89495 0.982792 0)
(3.18133 0.788181 0)
(3.22265 0.692352 0)
(3.1681 0.525732 0)
(3.07215 0.229267 0)
(3.00858 0.0601136 0)
(2.92384 -0.197343 0)
(2.85318 -0.388877 0)
(2.7488 -0.575883 0)
(2.63363 -0.741298 0)
(2.59084 -0.794872 0)
(2.60946 -0.757457 0)
(2.78217 -0.467342 0)
(2.95674 -0.106883 0)
(2.99875 -0.00351692 0)
(2.99999 -3.86455e-05 0)
(3 -2.91443e-07 0)
(3 -1.89073e-09 0)
(3 -9.43894e-12 0)
(2.60243 0.882023 0)
(2.8296 0.863809 0)
(3.13649 0.82487 0)
(3.24889 0.96555 0)
(3.26179 0.486333 0)
(3.15138 0.197426 0)
(3.07639 0.0608333 0)
(2.9839 -0.156414 0)
(2.92224 -0.301511 0)
(2.82707 -0.466269 0)
(2.70792 -0.644341 0)
(2.62732 -0.765548 0)
(2.62941 -0.745873 0)
(2.69736 -0.647779 0)
(2.91784 -0.207644 0)
(2.99465 -0.015351 0)
(2.99992 -0.000224335 0)
(3 -1.81892e-06 0)
(3 -1.21462e-08 0)
(3 -6.15913e-11 0)
(2.74124 0.81272 0)
(2.7907 0.797515 0)
(3.03666 0.925014 0)
(3.1992 1.07575 0)
(3.22504 0.729176 0)
(3.23492 0.493904 0)
(3.13938 0.156648 0)
(3.09625 -0.0118328 0)
(2.99074 -0.262357 0)
(2.89065 -0.422807 0)
(2.78302 -0.56187 0)
(2.68271 -0.708137 0)
(2.66175 -0.731697 0)
(2.68138 -0.649759 0)
(2.82231 -0.384079 0)
(2.98042 -0.0480286 0)
(2.99959 -0.00113752 0)
(3 -1.0272e-05 0)
(3 -7.02295e-08 0)
(3 -3.54567e-10 0)
(2.84759 0.754748 0)
(2.87731 0.741313 0)
(3.0894 0.924707 0)
(3.18267 1.0957 0)
(3.17865 0.783841 0)
(3.16331 0.753734 0)
(3.17217 0.456058 0)
(3.15607 0.242227 0)
(3.08247 -0.0596695 0)
(2.99434 -0.256018 0)
(2.8774 -0.442083 0)
(2.75814 -0.622937 0)
(2.70261 -0.710809 0)
(2.71609 -0.6844 0)
(2.80399 -0.463278 0)
(2.95089 -0.116963 0)
(2.99823 -0.00456851 0)
(2.99998 -4.97981e-05 0)
(3 -3.51306e-07 0)