/*--------------------------------*- C++ -*----------------------------------*\
  =========                 |
  \\      /  F ield         | OpenFOAM: The Open Source CFD Toolbox
   \\    /   O peration     | Website:  https://openfoam.org
    \\  /    A nd           | Version:  7
     \\/     M anipulation  |
\*---------------------------------------------------------------------------*/
FoamFile
{
    version     2.0;
    format      ascii;
    class       volScalarField;
    location    "10";
    object      T;
}
// * * * * * * * * * * * * * * * * * * * * * * * * * * * * * * * * * * * * * //

dimensions      [0 0 0 1 0 0 0];

internalField   nonuniform List<scalar> 
90000
(
0.839318
0.851672
0.864318
0.876094
0.887065
0.897173
0.906692
0.915556
0.924024
0.931987
0.939711
0.947026
0.954216
0.961041
0.967804
0.97419
0.980605
0.986616
0.992717
0.998404
1.00422
1.00951
1.015
1.0199
1.02503
1.02951
1.03423
1.03817
1.04239
1.04571
1.0493
1.05183
1.05472
1.05645
1.05828
1.05972
1.06012
1.06034
1.06031
1.05991
1.05895
1.05725
1.05493
1.05314
1.04989
1.04786
1.04596
1.04607
1.04649
1.04714
1.04845
1.05009
1.05138
1.05178
1.05189
1.05208
1.05179
1.05107
1.05022
1.04925
1.04835
1.04732
1.04644
1.04646
1.04695
1.04766
1.04891
1.0503
1.05083
1.0503
1.04881
1.04718
1.04568
1.04486
1.04487
1.04531
1.04632
1.04615
1.04543
1.04419
1.0432
1.04256
1.04288
1.04369
1.04355
1.04316
1.04263
1.04222
1.04265
1.04297
1.04271
1.04221
1.04163
1.0414
1.04145
1.04126
1.04096
1.04065
1.04033
1.03979
0.827712
0.827895
0.828307
0.828993
0.830017
0.831419
0.833191
0.83538
0.83795
0.840974
0.844371
0.848242
0.852457
0.857166
0.862162
0.867634
0.873322
0.879514
0.885794
0.892596
0.899363
0.906604
0.913669
0.92121
0.928451
0.936129
0.94342
0.951072
0.958259
0.965659
0.972592
0.979566
0.986092
0.992448
0.998648
1.00409
1.01
1.01424
1.01894
1.02243
1.02587
1.02813
1.03012
1.03306
1.03944
1.04329
1.0468
1.04836
1.04965
1.05033
1.05033
1.05002
1.04899
1.04787
1.04694
1.04615
1.04571
1.04527
1.04462
1.04379
1.04369
1.04403
1.04486
1.04599
1.04706
1.04744
1.04711
1.04649
1.04571
1.04503
1.0445
1.04346
1.04375
1.04398
1.04424
1.04409
1.04361
1.04278
1.04206
1.04125
1.0414
1.04171
1.04195
1.04177
1.04136
1.0408
1.04089
1.04124
1.04153
1.04122
1.04084
1.04043
1.04048
1.04057
1.04025
1.04
1.03982
1.03966
1.03936
1.03887
0.824775
0.824683
0.824584
0.824502
0.824386
0.82426
0.824127
0.823991
0.823852
0.823723
0.823612
0.82352
0.823444
0.823403
0.823421
0.82349
0.82362
0.823842
0.824224
0.824819
0.825651
0.826816
0.828277
0.83021
0.832541
0.835568
0.839091
0.843591
0.848592
0.854847
0.86153
0.869765
0.878231
0.888311
0.898393
0.910032
0.921507
0.934106
0.946323
0.958867
0.97143
0.982986
0.995997
1.00588
1.01329
1.01778
1.02227
1.02493
1.02759
1.02931
1.0309
1.03192
1.03296
1.03313
1.03293
1.03231
1.03204
1.03243
1.03379
1.03558
1.03786
1.03962
1.04093
1.04092
1.04056
1.0394
1.03778
1.03629
1.03543
1.03508
1.0359
1.03784
1.03981
1.03968
1.03905
1.03769
1.03629
1.03499
1.03542
1.03685
1.03772
1.03757
1.037
1.03635
1.03597
1.03651
1.03736
1.03756
1.03732
1.03687
1.03692
1.03717
1.03727
1.0371
1.03675
1.03674
1.03672
1.03662
1.03637
1.03609
0.820729
0.82067
0.820603
0.82053
0.820453
0.820364
0.820265
0.820179
0.820101
0.820008
0.819891
0.819769
0.819661
0.819571
0.819484
0.819391
0.819292
0.819223
0.819107
0.818992
0.818889
0.818769
0.818634
0.818534
0.818483
0.818448
0.818432
0.818459
0.818539
0.818703
0.819033
0.8196
0.820444
0.821808
0.823662
0.826541
0.830229
0.835749
0.84227
0.851491
0.861656
0.874879
0.888648
0.904936
0.920063
0.935622
0.950126
0.962512
0.974907
0.983402
0.992934
0.998343
1.00511
1.00839
1.01194
1.01364
1.01823
1.02229
1.0269
1.02967
1.0318
1.03328
1.03345
1.03312
1.0314
1.02907
1.02689
1.02513
1.02559
1.02747
1.02972
1.03178
1.03285
1.03246
1.03089
1.02928
1.028
1.02872
1.02999
1.0311
1.03172
1.03124
1.03037
1.02951
1.02978
1.03057
1.03141
1.03139
1.03111
1.03098
1.0312
1.03167
1.03188
1.0318
1.03163
1.03165
1.03174
1.03174
1.03166
1.03167
0.817956
0.817914
0.817867
0.817822
0.817785
0.817737
0.817673
0.817616
0.817555
0.817468
0.817363
0.81727
0.817196
0.817134
0.817077
0.817007
0.816944
0.816898
0.816874
0.816861
0.81684
0.816803
0.816774
0.816765
0.816759
0.816739
0.816709
0.816707
0.816722
0.816765
0.816804
0.816825
0.816829
0.816842
0.816861
0.816888
0.816936
0.817037
0.817252
0.817763
0.8186
0.820071
0.822131
0.825857
0.830835
0.839503
0.849663
0.864987
0.880533
0.900426
0.918865
0.93858
0.956981
0.972688
0.988299
0.99935
1.00841
1.0125
1.01654
1.01923
1.02129
1.02247
1.02225
1.02028
1.0163
1.0166
1.01791
1.01993
1.02239
1.02401
1.02466
1.025
1.02428
1.02291
1.02266
1.02314
1.02445
1.02529
1.02554
1.02519
1.02466
1.02453
1.02465
1.02485
1.02554
1.02605
1.026
1.02568
1.02566
1.0259
1.02624
1.02659
1.02669
1.02682
1.02698
1.02708
1.02718
1.02714
1.02716
1.0273
0.816005
0.815978
0.815955
0.815927
0.815904
0.815904
0.815906
0.815898
0.815879
0.815861
0.815847
0.815835
0.815826
0.815818
0.815813
0.815799
0.815792
0.815796
0.815817
0.815878
0.815892
0.815886
0.815893
0.815939
0.815997
0.816031
0.816053
0.816082
0.816127
0.816188
0.816259
0.816333
0.8164
0.816465
0.816534
0.816603
0.816663
0.81673
0.816779
0.816821
0.816868
0.816908
0.816959
0.817039
0.817186
0.8175
0.818078
0.819293
0.821255
0.825313
0.831046
0.841883
0.85459
0.874576
0.89423
0.918493
0.938723
0.956705
0.972319
0.981965
0.99252
0.996521
1.00211
1.0041
1.01022
1.01511
1.02035
1.02293
1.02378
1.02371
1.02285
1.01957
1.01668
1.01692
1.01812
1.02097
1.02424
1.02448
1.02414
1.02282
1.0211
1.02116
1.02177
1.02283
1.0236
1.02319
1.02274
1.02238
1.02258
1.0231
1.02358
1.02379
1.02363
1.02363
1.02377
1.02393
1.02395
1.02396
1.02408
1.02434
0.815365
0.815371
0.815379
0.815384
0.815389
0.815397
0.815403
0.81541
0.815426
0.815455
0.815478
0.81549
0.815518
0.815561
0.81557
0.815572
0.815576
0.815592
0.815634
0.815682
0.815708
0.815722
0.81575
0.815814
0.815884
0.815933
0.81597
0.816004
0.816039
0.816086
0.816152
0.816225
0.816287
0.81634
0.816408
0.816489
0.816564
0.816661
0.816747
0.816743
0.816714
0.816674
0.816641
0.816641
0.816652
0.816683
0.816771
0.816926
0.817095
0.81726
0.817466
0.817868
0.818605
0.82042
0.823538
0.830758
0.840779
0.859034
0.878474
0.904632
0.928602
0.95278
0.974955
0.992406
1.01039
1.01642
1.02084
1.0232
1.02351
1.02131
1.01483
1.01328
1.01449
1.01792
1.02153
1.02321
1.02389
1.02343
1.02179
1.01962
1.0197
1.0208
1.02219
1.02299
1.02284
1.02202
1.02104
1.02114
1.02172
1.02229
1.02232
1.02223
1.02228
1.02258
1.02282
1.02282
1.02258
1.02255
1.02271
1.02307
0.815561
0.815571
0.815587
0.815607
0.815625
0.815638
0.815651
0.815671
0.815686
0.815704
0.815731
0.815749
0.815782
0.815853
0.815888
0.815885
0.815888
0.815906
0.815984
0.816043
0.816059
0.816073
0.816117
0.816172
0.8162
0.81622
0.816244
0.816267
0.816289
0.816325
0.816383
0.81643
0.816469
0.816529
0.816622
0.816717
0.816807
0.816898
0.816984
0.817032
0.817031
0.817013
0.816982
0.816967
0.81696
0.81695
0.816946
0.816951
0.816969
0.81698
0.816985
0.817012
0.81707
0.817073
0.817066
0.817122
0.817368
0.818317
0.820415
0.825971
0.83485
0.852928
0.873687
0.903532
0.930017
0.955718
0.977192
0.988779
1.00049
1.00396
1.0082
1.01591
1.02149
1.02473
1.02507
1.0248
1.02242
1.01891
1.0191
1.0197
1.02175
1.02387
1.02377
1.02338
1.02192
1.02079
1.02081
1.02143
1.02236
1.02235
1.02201
1.02164
1.02182
1.02219
1.02243
1.02235
1.02218
1.02219
1.02238
1.02267
0.816155
0.816168
0.816187
0.816207
0.816219
0.81623
0.816251
0.816281
0.816293
0.816292
0.8163
0.816331
0.816384
0.816429
0.816449
0.816458
0.816488
0.816548
0.816581
0.816601
0.816608
0.816617
0.816632
0.816634
0.816637
0.816643
0.816652
0.816666
0.816684
0.816713
0.816742
0.816764
0.816791
0.816839
0.81691
0.817003
0.817096
0.817164
0.817187
0.817183
0.817163
0.817122
0.817082
0.817055
0.817034
0.81701
0.816986
0.816962
0.816926
0.816847
0.81671
0.816638
0.816617
0.816587
0.816525
0.816475
0.816447
0.816393
0.816294
0.81632
0.816482
0.817237
0.819192
0.825084
0.835052
0.856456
0.881722
0.915584
0.946454
0.975597
1.00395
1.01678
1.02256
1.02538
1.02513
1.02184
1.01402
1.01524
1.01812
1.02268
1.02605
1.02589
1.02478
1.02249
1.02085
1.02103
1.02201
1.02313
1.02303
1.02238
1.02154
1.02163
1.02212
1.02242
1.02241
1.02205
1.02206
1.02222
1.02263
1.02278
0.816736
0.816747
0.816755
0.816761
0.81677
0.816789
0.816814
0.816836
0.816854
0.81687
0.816892
0.816922
0.816939
0.816938
0.816938
0.81695
0.816994
0.817048
0.817065
0.817065
0.817056
0.817029
0.816999
0.816973
0.816957
0.816948
0.816939
0.816934
0.816939
0.816946
0.816941
0.81693
0.816931
0.81695
0.817013
0.817084
0.817136
0.817162
0.817177
0.817182
0.817163
0.817108
0.817035
0.817007
0.81698
0.816933
0.816847
0.816731
0.816622
0.816502
0.816312
0.816148
0.816106
0.816075
0.816021
0.816
0.816015
0.816009
0.81597
0.815851
0.815715
0.815629
0.815601
0.815658
0.815954
0.817094
0.820231
0.828835
0.844655
0.873112
0.907213
0.942652
0.968876
0.989165
1.00033
1.00657
1.01103
1.02191
1.02548
1.02684
1.02675
1.02445
1.02137
1.02134
1.02156
1.0231
1.02445
1.0243
1.02297
1.02186
1.02185
1.02234
1.02282
1.02273
1.02217
1.02205
1.02227
1.02282
1.02302
1.02297
0.817173
0.81718
0.817188
0.817197
0.817218
0.817258
0.817264
0.817266
0.817266
0.81727
0.817287
0.817295
0.817293
0.817287
0.817287
0.817307
0.817349
0.81735
0.817348
0.817336
0.817298
0.817229
0.817165
0.817123
0.817098
0.817077
0.817049
0.817023
0.817011
0.817003
0.816981
0.816948
0.816948
0.816991
0.817061
0.8171
0.817128
0.817152
0.81717
0.817179
0.817156
0.817086
0.816989
0.816854
0.816696
0.81654
0.81642
0.816338
0.816278
0.816205
0.816056
0.815863
0.815773
0.815726
0.81568
0.815668
0.8157
0.815743
0.81574
0.815687
0.815632
0.815616
0.815581
0.81553
0.815535
0.815584
0.815693
0.81594
0.816708
0.81908
0.826033
0.841996
0.870565
0.908133
0.944001
0.98236
1.00834
1.02204
1.02493
1.02639
1.02316
1.01667
1.01764
1.02025
1.02387
1.02579
1.02557
1.02397
1.02172
1.0218
1.02265
1.02344
1.02331
1.02244
1.02173
1.02203
1.02296
1.02331
1.02327
1.02304
0.81729
0.817301
0.817313
0.817329
0.817342
0.817344
0.817345
0.817346
0.817354
0.817359
0.817358
0.817362
0.817368
0.817374
0.817399
0.817412
0.81741
0.817396
0.817384
0.817363
0.817288
0.817224
0.817187
0.817133
0.817082
0.817044
0.817013
0.816984
0.81696
0.816931
0.816908
0.816904
0.816884
0.816849
0.816796
0.816713
0.81664
0.816623
0.816626
0.816626
0.816571
0.816458
0.816318
0.816176
0.816039
0.815962
0.815969
0.815988
0.815979
0.815938
0.815813
0.815611
0.815492
0.815453
0.815424
0.815417
0.815461
0.815546
0.815564
0.81558
0.815637
0.81569
0.815683
0.815641
0.815636
0.815661
0.815713
0.81584
0.815934
0.815963
0.816053
0.816491
0.818894
0.82537
0.845253
0.874686
0.918641
0.955925
0.977875
1.00065
1.00393
1.01503
1.01969
1.02524
1.02607
1.02585
1.0237
1.0216
1.02181
1.02292
1.02426
1.02401
1.02255
1.02171
1.02189
1.0229
1.02346
1.02349
1.02322
1.02305
0.817382
0.817397
0.817412
0.817423
0.817434
0.817447
0.81746
0.817474
0.817491
0.8175
0.817508
0.817511
0.817511
0.817515
0.817536
0.81754
0.817537
0.817537
0.817537
0.817526
0.817469
0.817386
0.817355
0.817322
0.817264
0.817183
0.817102
0.817034
0.816976
0.816919
0.816837
0.816701
0.816556
0.816431
0.81633
0.816229
0.816125
0.816064
0.816028
0.815953
0.815846
0.81576
0.815689
0.815632
0.815625
0.815648
0.815709
0.815774
0.815782
0.815762
0.815665
0.815499
0.815392
0.815348
0.815316
0.81531
0.815365
0.815464
0.815486
0.815535
0.815654
0.815756
0.815762
0.815755
0.815765
0.815779
0.81577
0.815786
0.815844
0.815865
0.815835
0.815729
0.815579
0.815625
0.816369
0.818979
0.830815
0.851584
0.89249
0.935362
0.973362
1.01142
1.01863
1.02524
1.02463
1.02073
1.01771
1.01964
1.02329
1.02517
1.0248
1.02287
1.02103
1.02133
1.02296
1.02373
1.02361
1.02297
1.02285
1.02299
0.81737
0.817368
0.817364
0.817356
0.817336
0.817312
0.817302
0.8173
0.817299
0.817296
0.817291
0.81729
0.817282
0.817273
0.817272
0.817278
0.817275
0.817272
0.817274
0.817263
0.817176
0.817075
0.817033
0.816994
0.816913
0.816748
0.816658
0.816648
0.816629
0.81657
0.816443
0.816317
0.816234
0.816157
0.816071
0.815978
0.81589
0.815813
0.815702
0.815494
0.81537
0.815352
0.815352
0.81537
0.815411
0.815465
0.815549
0.81564
0.815698
0.815712
0.815706
0.815688
0.815663
0.815606
0.815533
0.815502
0.815516
0.815555
0.815595
0.815645
0.815726
0.815807
0.815834
0.815841
0.815837
0.815832
0.815801
0.81578
0.815778
0.815769
0.815719
0.815605
0.815456
0.815348
0.815337
0.815371
0.815657
0.816854
0.822834
0.836891
0.873774
0.916351
0.954838
0.99376
0.99887
1.00805
1.01423
1.02432
1.02604
1.02552
1.0224
1.0206
1.02092
1.02275
1.02454
1.02408
1.02263
1.02229
1.02256
1.02303
0.81657
0.81656
0.816544
0.816514
0.816462
0.816425
0.816424
0.816441
0.816449
0.81645
0.816452
0.816467
0.816474
0.816458
0.816441
0.81644
0.816447
0.816446
0.81643
0.816402
0.81634
0.816226
0.816086
0.815974
0.815917
0.815914
0.815912
0.815918
0.815954
0.81597
0.815956
0.815949
0.815953
0.815943
0.815927
0.815893
0.81584
0.815736
0.815545
0.8153
0.815178
0.815163
0.815169
0.815213
0.815287
0.815378
0.815496
0.815653
0.815809
0.815885
0.815889
0.815881
0.815906
0.815912
0.815898
0.815867
0.815834
0.815787
0.815752
0.815757
0.815808
0.815967
0.816011
0.815998
0.815969
0.815903
0.815879
0.815859
0.815836
0.815796
0.815698
0.815536
0.815367
0.815268
0.815267
0.8153
0.815417
0.815553
0.815711
0.816166
0.819447
0.828484
0.860052
0.901712
0.948512
0.997832
1.01184
1.02357
1.02355
1.01938
1.01658
1.01893
1.02312
1.02484
1.02432
1.02241
1.0216
1.02206
1.0229
1.02287
0.815448
0.815416
0.815394
0.815369
0.815359
0.815358
0.815364
0.815387
0.815391
0.815382
0.815374
0.815376
0.815385
0.815385
0.815382
0.81539
0.815416
0.815419
0.815401
0.815359
0.815304
0.815185
0.815071
0.815063
0.815097
0.815222
0.815398
0.815486
0.815487
0.815479
0.815495
0.815592
0.815722
0.815754
0.815765
0.815771
0.815732
0.815597
0.8154
0.815185
0.815031
0.814992
0.815003
0.815066
0.815219
0.815395
0.815541
0.815654
0.815747
0.815803
0.815787
0.815773
0.815811
0.815952
0.815953
0.815944
0.815946
0.81592
0.815796
0.815725
0.815728
0.815891
0.815977
0.815944
0.81586
0.815845
0.81585
0.81586
0.815856
0.815812
0.815707
0.815567
0.815405
0.815389
0.815417
0.815466
0.81556
0.81566
0.815709
0.815684
0.815663
0.815794
0.817585
0.823797
0.852055
0.890898
0.938666
0.983316
0.994086
1.00552
1.01367
1.02465
1.02608
1.02544
1.02167
1.02029
1.02115
1.02301
1.02301
1.02235
0.815285
0.815228
0.815211
0.815204
0.815206
0.815218
0.81523
0.815233
0.815231
0.815229
0.815237
0.815239
0.815236
0.815211
0.815164
0.815149
0.815152
0.815149
0.815115
0.815024
0.814887
0.814798
0.814775
0.814789
0.814831
0.814969
0.815213
0.815281
0.815261
0.815256
0.815325
0.815566
0.815793
0.815851
0.815881
0.815903
0.815887
0.815797
0.81564
0.815471
0.815337
0.81522
0.81519
0.815244
0.815434
0.815643
0.815695
0.8157
0.81571
0.815753
0.815738
0.81569
0.815701
0.815883
0.816052
0.816039
0.816029
0.816011
0.815917
0.815702
0.815547
0.815585
0.815847
0.815934
0.815846
0.815682
0.815668
0.815667
0.815661
0.815596
0.815437
0.815344
0.815373
0.815513
0.815654
0.815714
0.815742
0.815733
0.815717
0.81567
0.815614
0.815462
0.81512
0.815035
0.816293
0.82136
0.846718
0.88409
0.935603
0.991984
1.01087
1.02384
1.02332
1.01879
1.0174
1.01995
1.02308
1.02342
1.02247
1.02151
0.815309
0.815269
0.815282
0.815285
0.815281
0.815272
0.815251
0.815195
0.815115
0.81507
0.815065
0.815065
0.815057
0.815013
0.814998
0.815017
0.81503
0.81502
0.814957
0.814794
0.81466
0.814591
0.814568
0.814573
0.814585
0.814628
0.814831
0.815025
0.815034
0.81506
0.81522
0.815545
0.815748
0.815797
0.81583
0.815887
0.815903
0.815851
0.81567
0.815431
0.815332
0.81525
0.815195
0.815249
0.815529
0.815707
0.815717
0.815689
0.81568
0.815718
0.815712
0.815614
0.815561
0.815658
0.815924
0.815929
0.815881
0.815851
0.815867
0.815783
0.815453
0.815215
0.815289
0.815494
0.8155
0.815417
0.815423
0.815471
0.815474
0.815425
0.815277
0.815249
0.815337
0.815559
0.815731
0.815785
0.815782
0.815753
0.815686
0.81558
0.815361
0.815089
0.814787
0.814604
0.81459
0.81469
0.815898
0.820524
0.844439
0.8834
0.933772
0.984394
0.99357
1.00612
1.01478
1.0252
1.02496
1.02267
1.02021
1.02104
0.815933
0.815928
0.815924
0.815931
0.815945
0.815937
0.815883
0.815765
0.815715
0.815695
0.815676
0.815653
0.815605
0.815591
0.815593
0.815567
0.815514
0.815455
0.81536
0.815173
0.81494
0.81486
0.814845
0.81482
0.81479
0.814824
0.815012
0.815066
0.815053
0.815066
0.815201
0.815507
0.815635
0.815656
0.815704
0.815781
0.815835
0.815811
0.815655
0.815439
0.815357
0.815285
0.81519
0.815217
0.815496
0.815727
0.815749
0.81574
0.815672
0.815605
0.815522
0.815428
0.815399
0.815449
0.815726
0.815811
0.815763
0.815692
0.815707
0.815649
0.815322
0.814992
0.815005
0.815135
0.815171
0.815145
0.815187
0.815397
0.815471
0.815453
0.815371
0.815366
0.81543
0.815569
0.815698
0.815731
0.815713
0.815595
0.815321
0.814982
0.814785
0.814661
0.814562
0.814567
0.814654
0.814847
0.815018
0.815152
0.816213
0.820651
0.844519
0.8841
0.940152
0.99674
1.01231
1.02367
1.02215
1.01562
1.01793
1.0224
0.815664
0.815672
0.8157
0.815726
0.815733
0.815724
0.815657
0.815548
0.815483
0.81543
0.815394
0.815387
0.815384
0.815352
0.815287
0.81525
0.81524
0.815204
0.815023
0.814694
0.814471
0.814427
0.814464
0.814597
0.814634
0.814631
0.81464
0.814626
0.814613
0.814654
0.814857
0.815024
0.815052
0.815126
0.815237
0.815315
0.815435
0.815467
0.815316
0.815005
0.814905
0.814881
0.814802
0.814884
0.815372
0.815724
0.815754
0.815724
0.815674
0.815434
0.815233
0.815157
0.815045
0.814943
0.815058
0.815169
0.815147
0.815159
0.81532
0.815316
0.815053
0.814882
0.814971
0.815067
0.815029
0.81495
0.814993
0.815305
0.815527
0.815533
0.815492
0.815454
0.815476
0.815512
0.815586
0.815593
0.815507
0.815201
0.8147
0.814379
0.814367
0.814421
0.814522
0.814729
0.814915
0.815145
0.815188
0.815176
0.815102
0.815064
0.815914
0.820668
0.848012
0.891534
0.944214
0.988928
0.998396
1.00952
1.02268
1.02377
0.814298
0.81444
0.814577
0.814654
0.814691
0.81472
0.814728
0.814714
0.814628
0.814439
0.81434
0.814344
0.814421
0.814427
0.814421
0.814449
0.814449
0.814241
0.813749
0.813654
0.813701
0.813704
0.813742
0.813847
0.813824
0.813877
0.814022
0.814226
0.814587
0.814813
0.81482
0.814791
0.814853
0.815046
0.815061
0.814834
0.81466
0.814536
0.814383
0.814291
0.814301
0.814214
0.813954
0.814006
0.814509
0.815273
0.815515
0.815475
0.815448
0.815421
0.815267
0.814961
0.81449
0.814034
0.813962
0.814044
0.814142
0.814236
0.81439
0.814551
0.814637
0.814735
0.815088
0.815301
0.815233
0.815055
0.815066
0.815252
0.815478
0.815512
0.815505
0.815455
0.815428
0.815364
0.815179
0.815018
0.814844
0.814512
0.814163
0.814154
0.814233
0.81445
0.81477
0.814966
0.815116
0.815243
0.81524
0.815182
0.814868
0.814561
0.814439
0.814545
0.815988
0.822663
0.853309
0.900062
0.959944
1.00514
1.02123
1.02152
0.811229
0.811142
0.81104
0.811055
0.811501
0.812127
0.812148
0.812139
0.81195
0.811681
0.811658
0.811746
0.811944
0.811968
0.811937
0.811816
0.811771
0.811763
0.811701
0.811594
0.811601
0.811736
0.811948
0.811902
0.811936
0.812402
0.812771
0.81294
0.813275
0.813656
0.813669
0.813515
0.813235
0.812992
0.812954
0.812971
0.812948
0.812867
0.812757
0.812669
0.812453
0.812082
0.812002
0.812143
0.812616
0.812796
0.812856
0.813069
0.813842
0.814512
0.814494
0.814127
0.813359
0.81291
0.812879
0.813003
0.813184
0.813195
0.813178
0.813274
0.813694
0.81443
0.815096
0.815279
0.815204
0.815003
0.814992
0.81511
0.81522
0.815249
0.815247
0.815225
0.81507
0.814578
0.814092
0.813908
0.813857
0.813824
0.813891
0.814043
0.814374
0.814731
0.814932
0.815018
0.815074
0.815159
0.81512
0.814793
0.814337
0.814226
0.814292
0.814581
0.814831
0.81507
0.816725
0.825944
0.861004
0.915005
0.964424
0.999732
0.810979
0.810962
0.811013
0.811475
0.811901
0.811895
0.811882
0.811858
0.811617
0.811344
0.811348
0.811446
0.811429
0.811405
0.811403
0.811347
0.811289
0.81123
0.811039
0.810922
0.81102
0.811163
0.810986
0.810348
0.810309
0.810391
0.810389
0.810395
0.810602
0.810787
0.810653
0.810472
0.810375
0.810263
0.810274
0.810603
0.81121
0.811316
0.811301
0.811072
0.810248
0.809911
0.810027
0.810282
0.810225
0.809753
0.809456
0.809488
0.81009
0.811509
0.811843
0.811716
0.811289
0.811094
0.811167
0.81153
0.812326
0.812754
0.812707
0.812496
0.812465
0.812651
0.813133
0.813806
0.814247
0.814289
0.814178
0.813729
0.813151
0.813024
0.813122
0.813271
0.813261
0.81309
0.813055
0.813091
0.813257
0.813564
0.814045
0.814405
0.814679
0.814841
0.814897
0.814931
0.8149
0.814786
0.814444
0.813953
0.813909
0.814106
0.814509
0.814817
0.815084
0.81511
0.815089
0.815163
0.817399
0.832133
0.868858
0.960482
0.808091
0.807984
0.807956
0.807991
0.808184
0.808802
0.809776
0.810101
0.810089
0.810045
0.810058
0.810324
0.810489
0.810546
0.81068
0.811026
0.811271
0.81137
0.811327
0.811121
0.81111
0.811139
0.810999
0.810046
0.808915
0.808645
0.80842
0.808321
0.808247
0.807731
0.807001
0.806805
0.806859
0.807177
0.807713
0.808347
0.809504
0.810234
0.810265
0.810094
0.809825
0.80985
0.810134
0.81019
0.809711
0.808484
0.807535
0.807438
0.807695
0.808815
0.810478
0.810826
0.810706
0.810221
0.81021
0.81032
0.810529
0.810809
0.811176
0.811205
0.81112
0.81071
0.810412
0.810411
0.81063
0.810918
0.810938
0.810818
0.810673
0.810654
0.810744
0.810955
0.811194
0.811464
0.811748
0.812073
0.812529
0.813174
0.813826
0.81416
0.814425
0.814412
0.814208
0.813944
0.813768
0.81356
0.813313
0.813392
0.813801
0.814344
0.814753
0.814859
0.815037
0.814998
0.814593
0.814171
0.81431
0.815073
0.818718
0.869015
0.808948
0.808981
0.808999
0.809055
0.809197
0.809433
0.809992
0.811219
0.812147
0.812368
0.812516
0.812669
0.812844
0.81311
0.813474
0.813898
0.814635
0.815435
0.815643
0.81558
0.815112
0.814535
0.813763
0.811509
0.809293
0.80884
0.808942
0.809587
0.80976
0.809636
0.809058
0.808502
0.808436
0.808606
0.809135
0.809942
0.810637
0.81109
0.811488
0.811823
0.812277
0.813181
0.814598
0.815439
0.815285
0.814323
0.812632
0.811237
0.810894
0.811171
0.811977
0.812313
0.812189
0.812105
0.812133
0.811944
0.811827
0.811956
0.81216
0.812172
0.811984
0.811143
0.809786
0.80936
0.809365
0.809557
0.80981
0.809852
0.80983
0.809691
0.809667
0.809749
0.809903
0.810107
0.810379
0.810671
0.811015
0.811484
0.811936
0.812072
0.811988
0.81161
0.811394
0.811448
0.811689
0.812012
0.812557
0.813244
0.81383
0.814314
0.814703
0.814681
0.814429
0.813999
0.813601
0.813722
0.81399
0.814362
0.814585
0.821633
0.820224
0.820275
0.82036
0.820491
0.820487
0.820403
0.820593
0.821874
0.823374
0.824401
0.824491
0.824468
0.824568
0.824719
0.824583
0.824523
0.824713
0.825483
0.825853
0.825573
0.824054
0.823061
0.822798
0.822456
0.821403
0.820971
0.821232
0.822238
0.822564
0.822472
0.821826
0.820288
0.818813
0.81781
0.817517
0.81744
0.81715
0.816352
0.815879
0.815956
0.816255
0.817008
0.818271
0.819253
0.819466
0.819196
0.818108
0.816518
0.815274
0.814679
0.814572
0.814443
0.813904
0.81335
0.813009
0.812357
0.811705
0.811453
0.811345
0.811363
0.811395
0.810983
0.80977
0.809287
0.809292
0.809512
0.809821
0.809931
0.810081
0.810363
0.810559
0.810814
0.811153
0.811519
0.811964
0.811952
0.811888
0.811674
0.811142
0.810657
0.810155
0.809696
0.809686
0.809761
0.810011
0.810471
0.811192
0.811974
0.812893
0.812877
0.812667
0.812464
0.812487
0.812577
0.812982
0.8137
0.814017
0.814331
0.814328
0.81449
0.83541
0.835285
0.83515
0.834865
0.834048
0.833237
0.833289
0.834317
0.835166
0.83513
0.834182
0.832782
0.832606
0.832338
0.831526
0.831461
0.831675
0.831865
0.83137
0.829627
0.829092
0.829249
0.830527
0.832147
0.832287
0.831792
0.831649
0.832008
0.832335
0.832413
0.831942
0.830577
0.830605
0.830874
0.830137
0.827338
0.825388
0.825143
0.825221
0.825264
0.825196
0.824375
0.822422
0.820979
0.82072
0.820927
0.821748
0.822171
0.822132
0.821848
0.821127
0.82049
0.820472
0.820415
0.820116
0.819223
0.817117
0.814831
0.814474
0.814815
0.816443
0.818442
0.81867
0.818312
0.817572
0.816349
0.815322
0.815263
0.815839
0.816613
0.816541
0.816081
0.815269
0.814527
0.814029
0.813279
0.812447
0.811424
0.810725
0.810403
0.810043
0.809802
0.809857
0.810257
0.811092
0.812199
0.812678
0.812529
0.81203
0.811242
0.810613
0.810626
0.810775
0.811034
0.811682
0.812512
0.813358
0.813227
0.812955
0.812994
0.857569
0.857752
0.857802
0.857601
0.857123
0.857077
0.857311
0.857356
0.857434
0.857306
0.855609
0.853499
0.853123
0.852825
0.85197
0.851448
0.851452
0.851255
0.850745
0.850574
0.850422
0.850243
0.850305
0.850773
0.850835
0.849798
0.84838
0.848366
0.848492
0.848024
0.847369
0.847528
0.848269
0.848321
0.847467
0.845718
0.845191
0.845325
0.845852
0.845884
0.844962
0.843218
0.843144
0.843343
0.843001
0.840932
0.839756
0.839459
0.838745
0.838247
0.837769
0.836758
0.836462
0.836531
0.836663
0.836557
0.835642
0.833291
0.831506
0.830444
0.829555
0.829029
0.828686
0.828169
0.827236
0.825706
0.823878
0.822013
0.820904
0.820349
0.819722
0.818515
0.816789
0.815482
0.814591
0.813815
0.813216
0.812805
0.812546
0.812737
0.813335
0.814037
0.814795
0.815027
0.814778
0.814422
0.813406
0.81216
0.811036
0.810663
0.81044
0.810498
0.810915
0.81165
0.812647
0.812567
0.811955
0.811234
0.811228
0.811648
0.875627
0.875381
0.874565
0.874256
0.874256
0.874406
0.875403
0.876157
0.876009
0.87448
0.87216
0.871888
0.87237
0.873238
0.873103
0.871728
0.8704
0.870373
0.871152
0.871696
0.871696
0.87146
0.870567
0.870225
0.870132
0.86988
0.869931
0.870149
0.869797
0.868318
0.868116
0.868253
0.867977
0.866421
0.863833
0.862688
0.862393
0.861836
0.860679
0.859555
0.858694
0.858461
0.85886
0.85976
0.859667
0.858354
0.85744
0.857585
0.857504
0.856414
0.854026
0.850966
0.848132
0.847263
0.847346
0.847159
0.846586
0.846495
0.846505
0.846114
0.844284
0.840933
0.838084
0.836961
0.836729
0.836737
0.836495
0.835198
0.832388
0.830275
0.8302
0.829987
0.828798
0.828014
0.82785
0.827358
0.826755
0.826372
0.825517
0.824358
0.82328
0.822295
0.821204
0.819568
0.81757
0.815536
0.813364
0.812241
0.811294
0.811264
0.81173
0.812558
0.813896
0.813731
0.813371
0.812212
0.810961
0.810775
0.810833
0.811469
0.897383
0.896919
0.896631
0.896392
0.896361
0.896628
0.897308
0.897373
0.8968
0.895454
0.894378
0.894286
0.894626
0.894944
0.894883
0.894472
0.893809
0.893311
0.892934
0.892851
0.892815
0.892459
0.891597
0.89106
0.890726
0.890187
0.889524
0.889389
0.889377
0.888946
0.88818
0.88805
0.887842
0.887054
0.88661
0.88649
0.886386
0.885921
0.884691
0.88357
0.882388
0.881229
0.880356
0.87996
0.879648
0.878578
0.876777
0.87633
0.876598
0.876643
0.8759
0.874092
0.87195
0.870981
0.870332
0.868882
0.866313
0.865412
0.865407
0.865077
0.864085
0.863062
0.861701
0.859436
0.857158
0.856111
0.855768
0.85497
0.852877
0.850127
0.848369
0.847214
0.845735
0.843366
0.841205
0.839483
0.837591
0.835306
0.833168
0.830917
0.828534
0.826408
0.824375
0.822589
0.82101
0.820049
0.82042
0.820582
0.820791
0.820413
0.819941
0.81894
0.81784
0.815755
0.81356
0.811958
0.810991
0.811227
0.812129
0.813322
0.919442
0.918448
0.917893
0.917585
0.917518
0.917616
0.918321
0.918812
0.918763
0.918178
0.917619
0.917554
0.917329
0.916467
0.915819
0.915877
0.915959
0.915609
0.914764
0.914119
0.913721
0.913661
0.913712
0.913661
0.91283
0.911533
0.911247
0.91127
0.911236
0.910916
0.910083
0.908977
0.907964
0.907269
0.906886
0.906383
0.905879
0.905251
0.903505
0.902163
0.902043
0.901988
0.901129
0.900202
0.899808
0.899334
0.898443
0.896929
0.89504
0.893576
0.892536
0.891357
0.889648
0.888969
0.888715
0.887968
0.886356
0.885001
0.883345
0.880155
0.878445
0.878189
0.877556
0.876528
0.874944
0.872212
0.86917
0.867509
0.866749
0.86547
0.862963
0.860535
0.859222
0.857791
0.85592
0.854146
0.852257
0.85012
0.848204
0.846902
0.845816
0.844057
0.842148
0.840794
0.83932
0.837838
0.836277
0.834539
0.831637
0.828733
0.825565
0.822393
0.819366
0.817456
0.815656
0.81615
0.817532
0.817838
0.817458
0.815661
0.942223
0.941418
0.940995
0.941016
0.941205
0.941071
0.940022
0.938995
0.938922
0.939265
0.939559
0.939448
0.939041
0.938817
0.938466
0.937641
0.937319
0.9373
0.937155
0.93664
0.935617
0.935043
0.935064
0.935147
0.934853
0.933883
0.932422
0.931581
0.931472
0.931371
0.93103
0.930314
0.929449
0.928704
0.928
0.927336
0.926782
0.92636
0.925714
0.924116
0.92312
0.922667
0.922072
0.921181
0.91943
0.917624
0.91749
0.917396
0.916831
0.915511
0.914082
0.912874
0.911667
0.910307
0.908882
0.906577
0.905037
0.904707
0.903987
0.902145
0.900348
0.899258
0.897314
0.895836
0.894832
0.893782
0.891991
0.889106
0.886836
0.885758
0.884476
0.882279
0.880179
0.87856
0.87658
0.87429
0.872049
0.869649
0.867218
0.864345
0.861784
0.859191
0.856273
0.853027
0.850316
0.846967
0.843857
0.841099
0.837963
0.83546
0.833162
0.83296
0.83201
0.831776
0.830674
0.829199
0.826977
0.824164
0.821135
0.816313
0.964458
0.96432
0.96443
0.964621
0.96456
0.963788
0.963121
0.963132
0.963186
0.962861
0.96189
0.961403
0.961484
0.96155
0.961473
0.961094
0.960381
0.959612
0.959529
0.95949
0.958697
0.957895
0.957664
0.957199
0.956496
0.956348
0.956138
0.955606
0.954386
0.953367
0.952994
0.952705
0.952184
0.951341
0.950388
0.949329
0.948577
0.948205
0.947749
0.947055
0.945234
0.943244
0.94303
0.942913
0.942226
0.940758
0.939195
0.93819
0.937267
0.936017
0.934735
0.933563
0.932312
0.93108
0.929793
0.928174
0.926606
0.925196
0.923648
0.92051
0.918495
0.918232
0.917521
0.916119
0.913609
0.910945
0.908832
0.907105
0.905192
0.902927
0.900913
0.898741
0.89588
0.893308
0.891138
0.888794
0.88674
0.884494
0.881648
0.878838
0.875869
0.873442
0.871298
0.868829
0.866783
0.86463
0.862147
0.859607
0.858041
0.855892
0.85372
0.851386
0.848428
0.844704
0.840601
0.836665
0.832509
0.828575
0.82583
0.825621
0.989248
0.989225
0.989001
0.987823
0.986786
0.986694
0.986989
0.987415
0.987352
0.987005
0.986197
0.985124
0.984979
0.984933
0.984831
0.984448
0.983478
0.983234
0.983263
0.983029
0.982354
0.981342
0.980803
0.980585
0.980286
0.979649
0.978694
0.977884
0.977232
0.976686
0.975973
0.975118
0.974373
0.973749
0.97313
0.971843
0.970427
0.970085
0.96988
0.969416
0.968494
0.966687
0.964938
0.964031
0.963432
0.96255
0.961102
0.959714
0.95863
0.957229
0.955836
0.954662
0.953359
0.951923
0.950477
0.948692
0.946778
0.945349
0.944108
0.942281
0.939938
0.937982
0.936432
0.935082
0.933415
0.931468
0.928778