/*--------------------------------*- C++ -*----------------------------------*\
  =========                 |
  \\      /  F ield         | OpenFOAM: The Open Source CFD Toolbox
   \\    /   O peration     | Website:  https://openfoam.org
    \\  /    A nd           | Version:  7
     \\/     M anipulation  |
\*---------------------------------------------------------------------------*/
FoamFile
{
    version     2.0;
    format      ascii;
    class       volVectorField;
    location    "10";
    object      U;
}
// * * * * * * * * * * * * * * * * * * * * * * * * * * * * * * * * * * * * * //

dimensions      [0 1 -1 0 0 0 0];

internalField   nonuniform List<vector> 
90000
(
(5.05703 -0.482848 0)
(5.05374 -0.455712 0)
(5.05084 -0.42999 0)
(5.04801 -0.40459 0)
(5.04573 -0.38379 0)
(5.04328 -0.362288 0)
(5.04133 -0.345525 0)
(5.03907 -0.326641 0)
(5.03735 -0.313093 0)
(5.03519 -0.295899 0)
(5.03356 -0.284697 0)
(5.03137 -0.26857 0)
(5.02978 -0.259348 0)
(5.02752 -0.243622 0)
(5.026 -0.23594 0)
(5.02375 -0.220812 0)
(5.02239 -0.214634 0)
(5.02006 -0.198696 0)
(5.01891 -0.194621 0)
(5.0164 -0.178137 0)
(5.01534 -0.174994 0)
(5.01276 -0.158424 0)
(5.01191 -0.156522 0)
(5.00913 -0.139239 0)
(5.00852 -0.138168 0)
(5.00562 -0.120525 0)
(5.00539 -0.120264 0)
(5.00229 -0.102247 0)
(5.00247 -0.102459 0)
(4.99907 -0.0843625 0)
(4.99988 -0.0847543 0)
(4.99601 -0.0664063 0)
(4.99751 -0.0666415 0)
(4.99286 -0.0493321 0)
(4.99386 -0.0472253 0)
(4.991 -0.0363234 0)
(4.98823 -0.025926 0)
(4.98905 -0.0222595 0)
(4.98809 -0.0150094 0)
(4.98681 -0.00937694 0)
(4.98427 -0.00511048 0)
(4.98226 -0.00235559 0)
(4.97854 0.00378241 0)
(4.97579 0.00909694 0)
(4.97495 0.0125195 0)
(4.97363 0.00952183 0)
(4.97261 0.00700681 0)
(4.97144 0.00323823 0)
(4.97035 0.00225688 0)
(4.96912 -0.00237588 0)
(4.96764 -0.00449229 0)
(4.96637 -0.00558799 0)
(4.9657 -0.0102499 0)
(4.96532 -0.00637278 0)
(4.96554 -0.00316763 0)
(4.967 -0.000891344 0)
(4.96766 0.000123485 0)
(4.96855 0.000250456 0)
(4.96914 0.000260876 0)
(4.96957 0.00173707 0)
(4.97005 0.00194022 0)
(4.97004 0.00297756 0)
(4.97137 0.00106336 0)
(4.97117 2.99015e-05 0)
(4.97059 -0.00115898 0)
(4.96995 -0.00335715 0)
(4.96849 -0.00391345 0)
(4.96881 -0.00384536 0)
(4.96884 -0.000591698 0)
(4.96926 0.000516821 0)
(4.97078 0.00224604 0)
(4.97181 0.00173815 0)
(4.97172 0.00389844 0)
(4.97306 0.00133286 0)
(4.97297 0.000231929 0)
(4.97274 -0.000702778 0)
(4.97215 -0.00289378 0)
(4.97262 -0.00111235 0)
(4.97315 -7.26755e-05 0)
(4.97347 0.000927386 0)
(4.97394 0.00110814 0)
(4.97393 0.000313858 0)
(4.97375 -0.000461947 0)
(4.97354 -0.00229683 0)
(4.97374 -0.000871109 0)
(4.97393 0.000135197 0)
(4.97422 0.000622989 0)
(4.97426 0.000258542 0)
(4.97409 -0.000310299 0)
(4.97389 -0.00133521 0)
(4.97427 -0.000303597 0)
(4.97436 0.000219391 0)
(4.97471 0.000348844 0)
(4.97474 0.000114834 0)
(4.9747 -0.000792799 0)
(4.9749 -0.000101599 0)
(4.97499 0.000114256 0)
(4.9751 0.00010501 0)
(4.97521 0.00014439 0)
(4.97532 0.000126423 0)
(5.0591 -0.503795 0)
(5.05847 -0.503385 0)
(5.05743 -0.502646 0)
(5.05598 -0.501091 0)
(5.05433 -0.499215 0)
(5.05245 -0.496339 0)
(5.05048 -0.493014 0)
(5.04832 -0.488439 0)
(5.04616 -0.483615 0)
(5.0438 -0.477044 0)
(5.04152 -0.47057 0)
(5.03899 -0.461843 0)
(5.03664 -0.453775 0)
(5.03395 -0.442589 0)
(5.03161 -0.432963 0)
(5.02883 -0.419314 0)
(5.02658 -0.40845 0)
(5.02362 -0.391455 0)
(5.02157 -0.379798 0)
(5.01836 -0.359876 0)
(5.01645 -0.347115 0)
(5.01304 -0.324035 0)
(5.01156 -0.31137 0)
(5.00783 -0.284939 0)
(5.0068 -0.272212 0)
(5.00279 -0.242767 0)
(5.00244 -0.231208 0)
(4.99789 -0.198164 0)
(4.99855 -0.18905 0)
(4.9934 -0.152649 0)
(4.99531 -0.146553 0)
(4.98943 -0.107771 0)
(4.99172 -0.102668 0)
(4.98591 -0.0663159 0)
(4.98853 -0.0626056 0)
(4.98231 -0.0271912 0)
(4.98528 -0.0264348 0)
(4.97858 0.00555461 0)
(4.98032 0.00766175 0)
(4.97436 0.0308556 0)
(4.97401 0.0355016 0)
(4.96918 0.047992 0)
(4.96848 0.0514382 0)
(4.96639 0.0440016 0)
(4.96816 0.0375332 0)
(4.96525 0.0170101 0)
(4.9687 0.0121473 0)
(4.96737 -0.000413218 0)
(4.96995 -0.00098912 0)
(4.96873 -0.00607365 0)
(4.96906 -0.00784401 0)
(4.96916 -0.00776721 0)
(4.97071 -0.00717721 0)
(4.9732 -0.00697502 0)
(4.97424 -0.00546634 0)
(4.9749 -0.00204552 0)
(4.9753 0.00215494 0)
(4.97432 0.00420965 0)
(4.97338 0.00590534 0)
(4.97308 0.00860383 0)
(4.97303 0.00820523 0)
(4.97289 0.00557622 0)
(4.97305 0.00213135 0)
(4.9723 -0.00470871 0)
(4.97229 -0.00688344 0)
(4.97204 -0.0103008 0)
(4.9715 -0.0102398 0)
(4.97273 -0.00692062 0)
(4.97356 -0.00190434 0)
(4.97397 0.00273453 0)
(4.97388 0.00706692 0)
(4.97383 0.00882888 0)
(4.97425 0.00712002 0)
(4.97384 0.00213371 0)
(4.97386 -0.00204645 0)
(4.97434 -0.00438539 0)
(4.97445 -0.0033765 0)
(4.97465 -0.000153037 0)
(4.97476 0.0031066 0)
(4.97488 0.0051772 0)
(4.97479 0.00332693 0)
(4.97454 0.000205543 0)
(4.97455 -0.0026219 0)
(4.9747 -0.00200451 0)
(4.97484 -0.000505754 0)
(4.97524 0.00196816 0)
(4.97523 0.00173676 0)
(4.97488 -0.000296285 0)
(4.97471 -0.00151425 0)
(4.97474 -0.000347709 0)
(4.97483 0.00109932 0)
(4.97514 0.00216672 0)
(4.97515 0.00127124 0)
(4.97509 -0.000414383 0)
(4.97501 -8.49682e-05 0)
(4.97523 0.000515402 0)
(4.97531 0.000579346 0)
(4.97535 0.000244414 0)
(4.97541 0.000359025 0)
(4.97549 0.000331506 0)
(5.05802 -0.504462 0)
(5.05802 -0.504495 0)
(5.05802 -0.504453 0)
(5.05804 -0.504508 0)
(5.05799 -0.504408 0)
(5.058 -0.504285 0)
(5.05797 -0.5041 0)
(5.05798 -0.503942 0)
(5.05801 -0.503847 0)
(5.05801 -0.503729 0)
(5.05798 -0.503545 0)
(5.05791 -0.503237 0)
(5.05783 -0.502934 0)
(5.05769 -0.502444 0)
(5.05754 -0.501963 0)
(5.05731 -0.501193 0)
(5.05706 -0.500385 0)
(5.0567 -0.499024 0)
(5.05629 -0.497542 0)
(5.05577 -0.495635 0)
(5.05512 -0.493076 0)
(5.05431 -0.490091 0)
(5.05339 -0.486254 0)
(5.05231 -0.481477 0)
(5.05109 -0.475639 0)
(5.04952 -0.468145 0)
(5.04784 -0.460148 0)
(5.04564 -0.449107 0)
(5.04356 -0.438539 0)
(5.04086 -0.423008 0)
(5.03853 -0.409598 0)
(5.03517 -0.387872 0)
(5.03297 -0.373384 0)
(5.02894 -0.343574 0)
(5.02724 -0.330929 0)
(5.02246 -0.293787 0)
(5.02127 -0.282088 0)
(5.01626 -0.239637 0)
(5.01607 -0.232643 0)
(5.01125 -0.188433 0)
(5.01186 -0.185697 0)
(5.00822 -0.146679 0)
(5.01252 -0.146054 0)
(5.0061 -0.113607 0)
(5.01329 -0.103667 0)
(4.9996 -0.0683229 0)
(5.00177 -0.0594771 0)
(4.99346 -0.040799 0)
(4.99488 -0.033901 0)
(4.9891 -0.0241838 0)
(4.98814 -0.0170237 0)
(4.98552 -0.0103471 0)
(4.98721 -0.00364223 0)
(4.98587 -0.000311957 0)
(4.98502 0.0029914 0)
(4.98453 0.00538292 0)
(4.98046 0.00949356 0)
(4.97969 0.00955492 0)
(4.9778 0.00648166 0)
(4.97741 0.00409755 0)
(4.97673 -0.00324384 0)
(4.97735 -0.00496198 0)
(4.97656 -0.0109786 0)
(4.97663 -0.0124671 0)
(4.9772 -0.011859 0)
(4.97812 -0.0102521 0)
(4.98025 -0.00495229 0)
(4.97905 -0.00152585 0)
(4.97983 0.00271126 0)
(4.97936 0.00714885 0)
(4.97841 0.00748665 0)
(4.97767 0.0055132 0)
(4.97645 -0.000806492 0)
(4.9766 -0.00280733 0)
(4.97673 -0.00331294 0)
(4.9778 -0.001879 0)
(4.97814 0.000241728 0)
(4.97822 0.0054624 0)
(4.97771 0.00508818 0)
(4.97757 0.00359139 0)
(4.9765 -0.00254308 0)
(4.97656 -0.0037418 0)
(4.97709 -0.0028791 0)
(4.97709 -0.0021254 0)
(4.97759 0.000517788 0)
(4.97734 2.00821e-05 0)
(4.97708 -0.000998841 0)
(4.97661 -0.00252459 0)
(4.97666 -0.00172665 0)
(4.97669 -0.000252854 0)
(4.9766 -8.10833e-05 0)
(4.97658 -0.000502594 0)
(4.97623 -0.00164675 0)
(4.97625 -0.00125807 0)
(4.97614 -0.000470077 0)
(4.97614 -0.000260733 0)
(4.9762 -1.36671e-05 0)
(4.97623 0.000127747 0)
(4.97622 0.000525382 0)
(4.97625 0.000263785 0)
(5.05789 -0.50312 0)
(5.0579 -0.503099 0)
(5.05791 -0.503155 0)
(5.05793 -0.503095 0)
(5.05796 -0.503059 0)
(5.05797 -0.503106 0)
(5.05801 -0.503147 0)
(5.05809 -0.503181 0)
(5.05817 -0.503091 0)
(5.05822 -0.502993 0)
(5.05826 -0.502961 0)
(5.0583 -0.502913 0)
(5.05836 -0.502794 0)
(5.05843 -0.502643 0)
(5.05846 -0.502616 0)
(5.05846 -0.502735 0)
(5.0585 -0.502713 0)
(5.05855 -0.503053 0)
(5.05852 -0.502798 0)
(5.05858 -0.50254 0)
(5.05861 -0.502458 0)
(5.05858 -0.502619 0)
(5.05864 -0.502734 0)
(5.05872 -0.502645 0)
(5.05877 -0.502272 0)
(5.05878 -0.501817 0)
(5.05872 -0.501389 0)
(5.05861 -0.501036 0)
(5.05848 -0.500539 0)
(5.05833 -0.499763 0)
(5.05825 -0.498559 0)
(5.05808 -0.496785 0)
(5.05782 -0.494467 0)
(5.05735 -0.490873 0)
(5.05673 -0.486329 0)
(5.05557 -0.47884 0)
(5.05424 -0.470461 0)
(5.05187 -0.455038 0)
(5.04983 -0.442031 0)
(5.04566 -0.413926 0)
(5.04347 -0.396813 0)
(5.03701 -0.349792 0)
(5.03676 -0.331351 0)
(5.02816 -0.261449 0)
(5.03156 -0.249481 0)
(5.0212 -0.16865 0)
(5.02568 -0.169268 0)
(5.0143 -0.0937921 0)
(5.01865 -0.102443 0)
(5.00785 -0.0426161 0)
(5.00975 -0.0511279 0)
(5.00168 -0.0115921 0)
(5.00144 -0.0165649 0)
(4.99415 0.00457881 0)
(4.98987 0.00435846 0)
(4.98824 0.0104273 0)
(4.98593 0.00455681 0)
(4.98495 0.00162737 0)
(4.98458 -0.00481404 0)
(4.98342 -0.00516659 0)
(4.98405 -0.0101751 0)
(4.98101 -0.00761505 0)
(4.98081 -0.00645307 0)
(4.98082 -0.00491386 0)
(4.98165 -0.000262489 0)
(4.98219 0.00523439 0)
(4.98385 0.00710271 0)
(4.98315 0.00708505 0)
(4.98223 0.00517849 0)
(4.98063 0.00135296 0)
(4.97989 -0.000383121 0)
(4.98024 -0.00429427 0)
(4.9791 -0.000225401 0)
(4.97891 0.00233699 0)
(4.97973 0.00327785 0)
(4.98047 0.00763471 0)
(4.98103 0.00547557 0)
(4.98078 0.00250781 0)
(4.98004 -0.000590611 0)
(4.98036 -0.00358943 0)
(4.97907 0.000875234 0)
(4.97934 0.00180007 0)
(4.97977 0.00290463 0)
(4.97991 0.00125711 0)
(4.97975 -0.000202076 0)
(4.97934 -0.00265218 0)
(4.97891 -0.00204241 0)
(4.97891 -0.00101277 0)
(4.97892 0.000164578 0)
(4.97884 0.000596847 0)
(4.97858 0.000474817 0)
(4.97838 0.000702921 0)
(4.97779 0.00113166 0)
(4.9778 0.00112452 0)
(4.97771 0.000879524 0)
(4.97786 8.1255e-05 0)
(4.97786 0.000119178 0)
(4.97792 0.000290279 0)
(4.97787 0.000746827 0)
(4.9779 0.000344365 0)
(5.0597 -0.50227 0)
(5.05972 -0.502274 0)
(5.05975 -0.502287 0)
(5.0598 -0.502306 0)
(5.05985 -0.502323 0)
(5.05985 -0.502329 0)
(5.05996 -0.502411 0)
(5.06002 -0.502639 0)
(5.05994 -0.502807 0)
(5.05984 -0.502904 0)
(5.05975 -0.502974 0)
(5.05978 -0.502876 0)
(5.05983 -0.502781 0)
(5.05987 -0.50275 0)
(5.05988 -0.502774 0)
(5.05988 -0.502869 0)
(5.05994 -0.502974 0)
(5.05996 -0.502913 0)
(5.05997 -0.502823 0)
(5.05996 -0.502761 0)
(5.05993 -0.502839 0)
(5.05997 -0.502836 0)
(5.06006 -0.502845 0)
(5.06018 -0.50275 0)
(5.06028 -0.502731 0)
(5.06036 -0.502773 0)
(5.06041 -0.502852 0)
(5.06045 -0.502975 0)
(5.0605 -0.503152 0)
(5.06059 -0.503062 0)
(5.0606 -0.503114 0)
(5.06066 -0.502941 0)
(5.06092 -0.502797 0)
(5.06122 -0.502794 0)
(5.06145 -0.502823 0)
(5.06157 -0.502752 0)
(5.06162 -0.502539 0)
(5.06162 -0.502154 0)
(5.06163 -0.501422 0)
(5.06144 -0.500603 0)
(5.06103 -0.498763 0)
(5.06034 -0.495869 0)
(5.05945 -0.490761 0)
(5.05798 -0.482684 0)
(5.05626 -0.471129 0)
(5.05312 -0.450269 0)
(5.05042 -0.430013 0)
(5.04455 -0.386893 0)
(5.04227 -0.364053 0)
(5.03366 -0.295042 0)
(5.03406 -0.281795 0)
(5.02364 -0.196767 0)
(5.02562 -0.198974 0)
(5.01485 -0.120267 0)
(5.01454 -0.130215 0)
(5.00598 -0.0810405 0)
(5.01207 -0.0912992 0)
(5.00141 -0.0582563 0)
(5.00299 -0.0582575 0)
(4.99485 -0.0398743 0)
(4.99477 -0.0319033 0)
(4.9925 -0.020984 0)
(4.99068 -0.0101684 0)
(4.98685 -0.000621795 0)
(4.98371 0.00890273 0)
(4.98322 0.0099163 0)
(4.98157 0.00918188 0)
(4.98014 0.00189511 0)
(4.97984 -0.00268819 0)
(4.97929 -0.00999566 0)
(4.97916 -0.0107838 0)
(4.97969 -0.0085541 0)
(4.98071 -0.00231267 0)
(4.97995 0.00237071 0)
(4.98175 0.00905641 0)
(4.98175 0.00975035 0)
(4.98112 0.00548626 0)
(4.98092 -0.000927037 0)
(4.98059 -0.00460212 0)
(4.98093 -0.0045579 0)
(4.98078 -0.0032034 0)
(4.98137 0.000963417 0)
(4.98165 0.00232806 0)
(4.98104 0.000628501 0)
(4.98071 -0.000933546 0)
(4.98034 -0.00280866 0)
(4.98065 -0.00219314 0)
(4.98081 -0.00146499 0)
(4.98081 7.15597e-05 0)
(4.98063 8.92808e-05 0)
(4.98013 -0.001022 0)
(4.97987 -0.00151235 0)
(4.97988 -0.00126731 0)
(4.98007 -0.0003869 0)
(4.98013 0.00049701 0)
(4.98021 0.000513578 0)
(4.98029 0.000713413 0)
(4.98049 0.000737452 0)
(4.98034 0.00121564 0)
(4.98036 0.000423955 0)
(5.06131 -0.503974 0)
(5.06128 -0.504033 0)
(5.06125 -0.50407 0)
(5.06124 -0.504121 0)
(5.06124 -0.504156 0)
(5.06127 -0.504164 0)
(5.0612 -0.504095 0)
(5.06114 -0.504063 0)
(5.06113 -0.504025 0)
(5.06113 -0.503991 0)
(5.06114 -0.503939 0)
(5.06115 -0.503947 0)
(5.06116 -0.503967 0)
(5.06118 -0.503928 0)
(5.0612 -0.503921 0)
(5.06119 -0.504011 0)
(5.06123 -0.504101 0)
(5.06125 -0.504057 0)
(5.06132 -0.503865 0)
(5.06137 -0.50383 0)
(5.06117 -0.504094 0)
(5.06114 -0.504433 0)
(5.06128 -0.504667 0)
(5.06138 -0.504678 0)
(5.06141 -0.504349 0)
(5.06155 -0.504124 0)
(5.06172 -0.504243 0)
(5.06194 -0.504272 0)
(5.06219 -0.504423 0)
(5.06245 -0.504316 0)
(5.0626 -0.504372 0)
(5.06267 -0.504633 0)
(5.06281 -0.504637 0)
(5.06297 -0.504793 0)
(5.06313 -0.504894 0)
(5.06322 -0.504953 0)
(5.06323 -0.505076 0)
(5.06318 -0.50498 0)
(5.06312 -0.504905 0)
(5.06306 -0.50503 0)
(5.06298 -0.505333 0)
(5.06296 -0.505427 0)
(5.06298 -0.505422 0)
(5.06304 -0.505334 0)
(5.0631 -0.505024 0)
(5.06314 -0.504392 0)
(5.06298 -0.503087 0)
(5.06243 -0.500743 0)
(5.06156 -0.495882 0)
(5.05985 -0.486814 0)
(5.05783 -0.472822 0)
(5.05348 -0.445459 0)
(5.05029 -0.41921 0)
(5.04125 -0.356964 0)
(5.04007 -0.329239 0)
(5.02515 -0.22779 0)
(5.03153 -0.215322 0)
(5.01452 -0.107191 0)
(5.0235 -0.112522 0)
(5.00591 -0.0291917 0)
(5.01007 -0.0319827 0)
(4.99903 0.0181036 0)
(4.99755 0.0195201 0)
(4.99262 0.0432381 0)
(4.98631 0.0308289 0)
(4.98159 0.0118522 0)
(4.98024 0.00227624 0)
(4.97944 -0.00318554 0)
(4.979 -0.00801278 0)
(4.97957 -0.00843306 0)
(4.98009 -0.00562491 0)
(4.982 0.000567511 0)
(4.98326 0.008693 0)
(4.98293 0.00814428 0)
(4.98209 0.0075371 0)
(4.98087 0.00263727 0)
(4.98027 0.000274699 0)
(4.98036 -0.000100699 0)
(4.98061 -0.000704852 0)
(4.98132 0.00170725 0)
(4.98176 0.0031384 0)
(4.98198 0.00240643 0)
(4.9815 0.000934848 0)
(4.98088 -0.000515892 0)
(4.98115 -0.00300012 0)
(4.98149 -0.00364609 0)
(4.98211 -0.00128502 0)
(4.98226 0.000378499 0)
(4.98219 0.000439818 0)
(4.98203 -0.000485664 0)
(4.98203 -0.00025334 0)
(4.98234 0.000242673 0)
(4.98273 0.000827062 0)
(4.98282 0.000202446 0)
(4.98283 -0.000186157 0)
(4.98283 -0.000394164 0)
(4.98307 -3.40659e-06 0)
(4.9833 0.000454574 0)
(4.98315 0.000875201 0)
(4.98301 0.000213884 0)
(5.06242 -0.504515 0)
(5.06244 -0.50454 0)
(5.0624 -0.504484 0)
(5.06239 -0.504414 0)
(5.06237 -0.504418 0)
(5.06235 -0.504443 0)
(5.06231 -0.504382 0)
(5.06232 -0.504303 0)
(5.06234 -0.504352 0)
(5.06241 -0.504453 0)
(5.06247 -0.504334 0)
(5.06254 -0.50421 0)
(5.06262 -0.504158 0)
(5.06252 -0.504342 0)
(5.06244 -0.504636 0)
(5.0625 -0.504735 0)
(5.06256 -0.504739 0)
(5.06259 -0.504834 0)
(5.06257 -0.504992 0)
(5.06256 -0.50511 0)
(5.06263 -0.505242 0)
(5.06272 -0.505268 0)
(5.06278 -0.505311 0)
(5.06274 -0.505494 0)
(5.06272 -0.505572 0)
(5.06286 -0.505528 0)
(5.06304 -0.505669 0)
(5.0632 -0.505995 0)
(5.0634 -0.506266 0)
(5.0636 -0.506253 0)
(5.06377 -0.506208 0)
(5.06387 -0.506381 0)
(5.06396 -0.506489 0)
(5.06397 -0.506716 0)
(5.06399 -0.506913 0)
(5.06403 -0.507079 0)
(5.06404 -0.507253 0)
(5.064 -0.507342 0)
(5.06385 -0.507325 0)
(5.06381 -0.507272 0)
(5.06374 -0.507198 0)
(5.06364 -0.507233 0)
(5.06366 -0.50741 0)
(5.06385 -0.507495 0)
(5.06396 -0.50749 0)
(5.06412 -0.507395 0)
(5.06444 -0.507283 0)
(5.06469 -0.507313 0)
(5.06479 -0.507294 0)
(5.06488 -0.507147 0)
(5.06503 -0.506669 0)
(5.06519 -0.506001 0)
(5.06516 -0.503963 0)
(5.06456 -0.500331 0)
(5.06328 -0.491602 0)
(5.06036 -0.476168 0)
(5.05689 -0.451175 0)
(5.05011 -0.406641 0)
(5.04642 -0.368708 0)
(5.03597 -0.286285 0)
(5.0359 -0.262729 0)
(5.02526 -0.166943 0)
(5.02677 -0.167533 0)
(5.01998 -0.101548 0)
(5.0317 -0.1129 0)
(5.00956 -0.0591689 0)
(5.00584 -0.051891 0)
(5.00198 -0.0363591 0)
(4.99657 -0.0198729 0)
(4.99366 -0.00800696 0)
(4.98245 0.000831177 0)
(4.98512 0.0107899 0)
(4.98432 0.00912332 0)
(4.98233 -8.66859e-05 0)
(4.98143 -0.00194291 0)
(4.98267 -0.0101039 0)
(4.9805 -0.00717571 0)
(4.98119 -0.00346068 0)
(4.98208 0.00185891 0)
(4.98324 0.00532862 0)
(4.98306 0.00484766 0)
(4.98248 0.00188489 0)
(4.9815 -0.000731409 0)
(4.98223 -0.00350614 0)
(4.98248 -0.00304599 0)
(4.98292 -0.000746615 0)
(4.98368 0.000292073 0)
(4.98372 7.71903e-05 0)
(4.98358 -0.000797578 0)
(4.98402 -0.00200506 0)
(4.98431 -0.00177899 0)
(4.98462 -0.000698215 0)
(4.98495 0.000529846 0)
(4.98509 0.000752384 0)
(4.98509 0.000691159 0)
(4.98518 0.000747514 0)
(4.98551 0.000824123 0)
(4.98544 0.000950255 0)
(4.9854 0.000963013 0)
(4.98533 0.000385219 0)
(5.06377 -0.505073 0)
(5.06379 -0.505097 0)
(5.06381 -0.505057 0)
(5.06381 -0.505079 0)
(5.06383 -0.505145 0)
(5.06384 -0.505097 0)
(5.06386 -0.50499 0)
(5.06391 -0.504938 0)
(5.06392 -0.505044 0)
(5.06401 -0.505171 0)
(5.06405 -0.505111 0)
(5.06406 -0.504912 0)
(5.06414 -0.504811 0)
(5.06407 -0.505031 0)
(5.06398 -0.50525 0)
(5.06395 -0.505508 0)
(5.06401 -0.505628 0)
(5.06407 -0.505534 0)
(5.06411 -0.50548 0)
(5.0639 -0.505901 0)
(5.064 -0.506277 0)
(5.06412 -0.506277 0)
(5.06426 -0.506218 0)
(5.0642 -0.506468 0)
(5.06428 -0.506603 0)
(5.06443 -0.50662 0)
(5.06457 -0.506737 0)
(5.0647 -0.506971 0)
(5.06487 -0.50712 0)
(5.06504 -0.507139 0)
(5.06511 -0.50731 0)
(5.06516 -0.507539 0)
(5.06524 -0.507526 0)
(5.06533 -0.507528 0)
(5.06533 -0.507793 0)
(5.06538 -0.508109 0)
(5.06548 -0.508322 0)
(5.06553 -0.508532 0)
(5.06555 -0.508604 0)
(5.06552 -0.508566 0)
(5.06552 -0.508542 0)
(5.06556 -0.508538 0)
(5.06564 -0.508559 0)
(5.06572 -0.508498 0)
(5.06575 -0.508421 0)
(5.06574 -0.508256 0)
(5.06588 -0.508012 0)
(5.06595 -0.507962 0)
(5.06597 -0.507982 0)
(5.06603 -0.507938 0)
(5.06619 -0.507859 0)
(5.06652 -0.507896 0)
(5.06699 -0.507844 0)
(5.06713 -0.507827 0)
(5.06738 -0.507618 0)
(5.06747 -0.50705 0)
(5.06741 -0.505835 0)
(5.06694 -0.503298 0)
(5.0659 -0.496858 0)
(5.06357 -0.48319 0)
(5.06051 -0.461069 0)
(5.05322 -0.412856 0)
(5.04985 -0.372417 0)
(5.03453 -0.267384 0)
(5.04328 -0.234292 0)
(5.02355 -0.0954648 0)
(5.03535 -0.0976137 0)
(5.01384 0.00309758 0)
(5.01668 0.00444867 0)
(5.00502 0.0570112 0)
(4.9949 0.0480629 0)
(4.9871 0.0190641 0)
(4.98647 0.00577735 0)
(4.98383 -0.00837228 0)
(4.98363 -0.00932506 0)
(4.98443 -0.00934991 0)
(4.98529 -0.00382178 0)
(4.98692 0.00985325 0)
(4.98702 0.0126533 0)
(4.98651 0.0106048 0)
(4.98465 0.00475789 0)
(4.98406 -0.00318668 0)
(4.98444 -0.00416131 0)
(4.98499 -0.00327271 0)
(4.98551 -0.0011045 0)
(4.98598 0.00316468 0)
(4.98642 0.00177522 0)
(4.98609 0.00034599 0)
(4.98607 -0.00200805 0)
(4.98605 -0.00204336 0)
(4.98637 -0.00105701 0)
(4.9867 1.25473e-05 0)
(4.98648 7.08749e-05 0)
(4.98661 -0.000655758 0)
(4.98629 4.14273e-05 0)
(4.98651 0.000477555 0)
(4.98672 0.00126122 0)
(4.9868 0.00096707 0)
(4.98696 0.00045698 0)
(4.98688 -0.000253433 0)
(5.06555 -0.506023 0)
(5.06556 -0.506007 0)
(5.06556 -0.506045 0)
(5.06556 -0.506128 0)
(5.06556 -0.506122 0)
(5.06558 -0.506096 0)
(5.0656 -0.506122 0)
(5.06559 -0.50625 0)
(5.06557 -0.506314 0)
(5.06555 -0.506453 0)
(5.0656 -0.506548 0)
(5.06562 -0.50647 0)
(5.06563 -0.506382 0)
(5.06564 -0.506431 0)
(5.06565 -0.506434 0)
(5.06566 -0.506405 0)
(5.06571 -0.506337 0)
(5.06548 -0.506543 0)
(5.06539 -0.506913 0)
(5.06551 -0.507072 0)
(5.06554 -0.507068 0)
(5.06558 -0.507042 0)
(5.06559 -0.507124 0)
(5.06559 -0.507238 0)
(5.06567 -0.507293 0)
(5.06574 -0.507307 0)
(5.06579 -0.50741 0)
(5.0659 -0.50752 0)
(5.06602 -0.507485 0)
(5.06608 -0.507549 0)
(5.06612 -0.507754 0)
(5.06619 -0.507734 0)
(5.0663 -0.507614 0)
(5.06633 -0.507778 0)
(5.06631 -0.508239 0)
(5.06642 -0.508424 0)
(5.06654 -0.508518 0)
(5.06662 -0.508763 0)
(5.06673 -0.508845 0)
(5.06678 -0.508839 0)
(5.0669 -0.508825 0)
(5.06706 -0.508797 0)
(5.0672 -0.508739 0)
(5.06716 -0.508714 0)
(5.06705 -0.508614 0)
(5.06693 -0.50842 0)
(5.06688 -0.508242 0)
(5.06688 -0.508151 0)
(5.06687 -0.508096 0)
(5.06686 -0.507937 0)
(5.06704 -0.507488 0)
(5.06758 -0.507177 0)
(5.06788 -0.506966 0)
(5.06804 -0.506778 0)
(5.06817 -0.506718 0)
(5.06844 -0.506377 0)
(5.06843 -0.506061 0)
(5.0683 -0.506402 0)
(5.06828 -0.505937 0)
(5.06817 -0.505377 0)
(5.06812 -0.504352 0)
(5.06783 -0.502215 0)
(5.06702 -0.496242 0)
(5.06473 -0.484621 0)
(5.06102 -0.457289 0)
(5.05474 -0.415112 0)
(5.04902 -0.353868 0)
(5.03962 -0.270793 0)
(5.03691 -0.223578 0)
(5.02923 -0.136768 0)
(5.03635 -0.132584 0)
(5.02147 -0.0825483 0)
(5.01395 -0.0536641 0)
(5.00864 -0.0366203 0)
(5.00332 -0.0187306 0)
(4.99773 -0.00638258 0)
(4.99066 0.00734751 0)
(4.98927 0.00737227 0)
(4.98884 0.00390872 0)
(4.98677 -0.00468751 0)
(4.98696 -0.00609016 0)
(4.98714 -0.00587933 0)
(4.98835 -0.00292188 0)
(4.98849 0.000213281 0)
(4.98959 0.00325233 0)
(4.98948 0.00293322 0)
(4.98872 0.000612259 0)
(4.98832 -0.00334773 0)
(4.98836 -0.00311818 0)
(4.98862 -0.00140948 0)
(4.98887 0.00028165 0)
(4.98882 0.000191305 0)
(4.98854 -0.000414927 0)
(4.98788 -0.000913165 0)
(4.98787 -0.0001478 0)
(4.98768 0.00065731 0)
(4.98776 0.00162969 0)
(4.98792 0.00117647 0)
(4.98804 0.000228882 0)
(4.98746 -0.000204126 0)
(5.06705 -0.507477 0)
(5.06706 -0.507512 0)
(5.06704 -0.507591 0)
(5.06705 -0.507627 0)
(5.06706 -0.507648 0)
(5.06706 -0.507711 0)
(5.06704 -0.507771 0)
(5.06704 -0.507767 0)
(5.06702 -0.507756 0)
(5.067 -0.507762 0)
(5.06696 -0.507791 0)
(5.06694 -0.507847 0)
(5.06696 -0.507875 0)
(5.06698 -0.507856 0)
(5.067 -0.50781 0)
(5.06699 -0.507784 0)
(5.06691 -0.507694 0)
(5.06677 -0.507748 0)
(5.06674 -0.507869 0)
(5.06672 -0.50792 0)
(5.06669 -0.507982 0)
(5.06671 -0.507972 0)
(5.06676 -0.507843 0)
(5.06673 -0.507779 0)
(5.06674 -0.507842 0)
(5.06674 -0.507888 0)
(5.06673 -0.507964 0)
(5.06673 -0.508046 0)
(5.06674 -0.508075 0)
(5.06672 -0.50821 0)
(5.06669 -0.508312 0)
(5.06673 -0.508474 0)
(5.06675 -0.508483 0)
(5.0668 -0.508461 0)
(5.06679 -0.508678 0)
(5.0668 -0.509028 0)
(5.06688 -0.509273 0)
(5.06697 -0.509355 0)
(5.06712 -0.509273 0)
(5.06735 -0.509141 0)
(5.06749 -0.509085 0)
(5.06777 -0.508967 0)
(5.06807 -0.508795 0)
(5.06804 -0.508717 0)
(5.06793 -0.508619 0)
(5.06778 -0.508451 0)
(5.06765 -0.508215 0)
(5.06756 -0.507988 0)
(5.06749 -0.50788 0)
(5.06742 -0.50775 0)
(5.06742 -0.507336 0)
(5.06784 -0.506805 0)
(5.06816 -0.50652 0)
(5.06821 -0.506321 0)
(5.0684 -0.505901 0)
(5.0686 -0.505624 0)
(5.06874 -0.505515 0)
(5.06863 -0.50556 0)
(5.06852 -0.505699 0)
(5.0683 -0.505954 0)
(5.06832 -0.505888 0)
(5.06843 -0.505486 0)
(5.06852 -0.50522 0)
(5.06855 -0.504924 0)
(5.06837 -0.504198 0)
(5.06768 -0.501654 0)
(5.06604 -0.494087 0)
(5.06264 -0.475557 0)
(5.05659 -0.433076 0)
(5.04729 -0.370907 0)
(5.04035 -0.271933 0)
(5.03091 -0.168871 0)
(5.02803 -0.0960743 0)
(5.0144 -0.0135384 0)
(5.02068 0.00608604 0)
(5.00869 0.0576555 0)
(4.998 0.0417377 0)
(4.99658 0.0132297 0)
(4.99331 -0.00400422 0)
(4.99085 -0.0106522 0)
(4.99139 -0.0101183 0)
(4.99345 -0.00303558 0)
(4.99403 0.00821816 0)
(4.99385 0.0108421 0)
(4.99284 0.00695657 0)
(4.99139 0.00225285 0)
(4.99027 -0.00339969 0)
(4.9902 -0.00345346 0)
(4.991 -0.000978001 0)
(4.99104 0.00154073 0)
(4.9908 0.00114301 0)
(4.99015 -6.94923e-05 0)
(4.98931 -0.00145819 0)
(4.98916 -0.00102746 0)
(4.98964 0.000490217 0)
(4.98899 0.00213438 0)
(4.98871 0.00136594 0)
(4.98853 0.00066139 0)
(4.98798 -0.00048218 0)
(4.98784 -0.000284724 0)
(5.06808 -0.507661 0)
(5.06808 -0.507667 0)
(5.06807 -0.507714 0)
(5.06806 -0.5077 0)
(5.06808 -0.507622 0)
(5.06802 -0.507686 0)
(5.06794 -0.507891 0)
(5.06795 -0.507973 0)
(5.06795 -0.507945 0)
(5.06799 -0.507901 0)
(5.06798 -0.507975 0)
(5.06787 -0.508153 0)
(5.06781 -0.50821 0)
(5.06781 -0.508148 0)
(5.06783 -0.508026 0)
(5.06786 -0.507947 0)
(5.06773 -0.507946 0)
(5.06758 -0.507965 0)
(5.06755 -0.507995 0)
(5.06751 -0.507972 0)
(5.06749 -0.508049 0)
(5.06752 -0.508216 0)
(5.0676 -0.50808 0)
(5.06756 -0.50795 0)
(5.0675 -0.507973 0)
(5.06745 -0.508008 0)
(5.06739 -0.508003 0)
(5.06731 -0.508051 0)
(5.06725 -0.508115 0)
(5.0672 -0.508143 0)
(5.06714 -0.508166 0)
(5.06706 -0.508101 0)
(5.06702 -0.508028 0)
(5.06692 -0.507959 0)
(5.06673 -0.508176 0)
(5.06672 -0.508542 0)
(5.06685 -0.508779 0)
(5.06696 -0.508874 0)
(5.06711 -0.508781 0)
(5.06734 -0.508612 0)
(5.06747 -0.508572 0)
(5.0678 -0.508424 0)
(5.06814 -0.508188 0)
(5.06841 -0.507901 0)
(5.06856 -0.507636 0)
(5.06858 -0.507446 0)
(5.06851 -0.507218 0)
(5.06838 -0.50696 0)
(5.06818 -0.506921 0)
(5.06792 -0.506948 0)
(5.06762 -0.506816 0)
(5.06781 -0.506103 0)
(5.06802 -0.505672 0)
(5.06817 -0.505403 0)
(5.06838 -0.505124 0)
(5.06855 -0.50497 0)
(5.06878 -0.504905 0)
(5.06861 -0.505125 0)
(5.06841 -0.505324 0)
(5.0683 -0.505427 0)
(5.06826 -0.505733 0)
(5.06828 -0.505748 0)
(5.06833 -0.505612 0)
(5.06843 -0.505276 0)
(5.06842 -0.505187 0)
(5.06826 -0.505332 0)
(5.068 -0.505924 0)
(5.06786 -0.506108 0)
(5.0675 -0.504618 0)
(5.06641 -0.499385 0)
(5.06329 -0.480585 0)
(5.05907 -0.453873 0)
(5.04772 -0.363408 0)
(5.04687 -0.327814 0)
(5.03017 -0.185711 0)
(5.03873 -0.172115 0)
(5.02223 -0.102216 0)
(5.03246 -0.0815902 0)
(5.01358 -0.0450449 0)
(5.00522 -0.0231825 0)
(5.00213 -0.0096242 0)
(4.9984 0.00449464 0)
(4.99646 0.0052762 0)
(4.99373 0.00357509 0)
(4.99111 -0.00375797 0)
(4.9907 -0.00430693 0)
(4.99073 -0.00402182 0)
(4.99125 -0.00038045 0)
(4.99086 0.00176815 0)
(4.99058 0.00172374 0)
(4.98982 -1.02689e-05 0)
(4.98853 -0.00265193 0)
(4.98847 -0.00209448 0)
(4.98903 -9.39952e-05 0)
(4.98881 0.0012737 0)
(4.98863 0.0012159 0)
(4.98809 -0.000193506 0)
(4.98776 -0.000569553 0)
(4.98767 -0.000423038 0)
(4.98757 1.88725e-05 0)
(5.06774 -0.509042 0)
(5.06773 -0.509046 0)
(5.06772 -0.508999 0)
(5.06768 -0.509047 0)
(5.06765 -0.509129 0)
(5.06765 -0.509097 0)
(5.06766 -0.509072 0)
(5.06768 -0.509115 0)
(5.06773 -0.50917 0)
(5.06772 -0.50911 0)
(5.06774 -0.509039 0)
(5.06777 -0.509019 0)
(5.06769 -0.509107 0)
(5.06766 -0.509239 0)
(5.06766 -0.509232 0)
(5.06753 -0.508917 0)
(5.06747 -0.508708 0)
(5.06744 -0.508681 0)
(5.06749 -0.508777 0)
(5.06745 -0.508915 0)
(5.06742 -0.508887 0)
(5.0678 -0.50846 0)
(5.06788 -0.508077 0)
(5.06789 -0.50799 0)
(5.06794 -0.508234 0)
(5.06791 -0.50837 0)
(5.06792 -0.508257 0)
(5.06787 -0.508113 0)
(5.06777 -0.508116 0)
(5.06767 -0.508146 0)
(5.06757 -0.508034 0)
(5.06733 -0.507903 0)
(5.06712 -0.507733 0)
(5.06692 -0.507543 0)
(5.06668 -0.507475 0)
(5.06646 -0.507644 0)
(5.06646 -0.507914 0)
(5.06652 -0.507979 0)
(5.06662 -0.507975 0)
(5.06676 -0.507892 0)
(5.06696 -0.507802 0)
(5.06736 -0.507607 0)
(5.06793 -0.507133 0)
(5.06844 -0.5068 0)
(5.06882 -0.506589 0)
(5.069 -0.506097 0)
(5.06896 -0.506045 0)
(5.06871 -0.506004 0)
(5.06851 -0.505975 0)
(5.06826 -0.506024 0)
(5.06784 -0.506154 0)
(5.06756 -0.506073 0)
(5.06781 -0.505713 0)
(5.068 -0.50543 0)
(5.06821 -0.505097 0)
(5.06839 -0.504872 0)
(5.06867 -0.504769 0)
(5.06859 -0.504891 0)
(5.06818 -0.505299 0)
(5.06806 -0.505658 0)
(5.06804 -0.506081 0)
(5.06812 -0.506255 0)
(5.06817 -0.506204 0)
(5.06825 -0.505892 0)
(5.06824 -0.505761 0)
(5.06806 -0.505816 0)
(5.06775 -0.506401 0)
(5.06759 -0.506865 0)
(5.06772 -0.507116 0)
(5.06769 -0.506974 0)
(5.06754 -0.506626 0)
(5.06714 -0.505014 0)
(5.06576 -0.499243 0)
(5.06332 -0.482455 0)
(5.05412 -0.429281 0)
(5.05242 -0.379571 0)
(5.02842 -0.199402 0)
(5.04597 -0.180717 0)
(5.01763 -0.0129671 0)
(5.01641 -0.0119002 0)
(5.00901 0.0588525 0)
(4.99624 0.036379 0)
(4.99011 0.00584309 0)
(4.99181 -0.00173591 0)
(4.99055 -0.00743761 0)
(4.99034 -0.00646457 0)
(4.98945 -0.000324117 0)
(4.98828 0.0079044 0)
(4.98758 0.00659051 0)
(4.98655 0.00178597 0)
(4.98577 -0.002662 0)
(4.98591 -0.00248638 0)
(4.98682 0.000371475 0)
(4.98707 0.00312288 0)
(4.98677 0.00220401 0)
(4.98671 -7.7364e-05 0)
(4.98615 -0.00158165 0)
(4.98622 -0.00106246 0)
(4.98636 -0.000389734 0)
(4.98605 0.000253847 0)
(5.06691 -0.508077 0)
(5.06689 -0.508033 0)
(5.06689 -0.508004 0)
(5.06684 -0.508053 0)
(5.06683 -0.508115 0)
(5.06684 -0.508097 0)
(5.06685 -0.508064 0)
(5.06686 -0.508119 0)
(5.06687 -0.508132 0)
(5.06689 -0.508037 0)
(5.06695 -0.507968 0)
(5.06697 -0.508003 0)
(5.067 -0.508062 0)
(5.06706 -0.508092 0)
(5.06709 -0.507981 0)
(5.06708 -0.507794 0)
(5.06714 -0.507655 0)
(5.06722 -0.507646 0)
(5.06725 -0.507675 0)
(5.06727 -0.507723 0)
(5.06727 -0.507816 0)
(5.06758 -0.507563 0)
(5.06787 -0.507165 0)
(5.06793 -0.506952 0)
(5.06808 -0.507091 0)
(5.06822 -0.507381 0)
(5.06839 -0.507299 0)
(5.06847 -0.507077 0)
(5.06842 -0.507054 0)
(5.06828 -0.507169 0)
(5.06809 -0.507194 0)
(5.06798 -0.506841 0)
(5.06778 -0.506051 0)
(5.06739 -0.505766 0)
(5.067 -0.506024 0)
(5.06662 -0.506186 0)
(5.06637 -0.506178 0)
(5.06636 -0.505981 0)
(5.06638 -0.505878 0)
(5.0664 -0.505862 0)
(5.06683 -0.505371 0)
(5.06727 -0.505227 0)
(5.06769 -0.505048 0)
(5.06838 -0.504977 0)
(5.06865 -0.504799 0)
(5.06892 -0.504709 0)
(5.069 -0.504714 0)
(5.06876 -0.504907 0)
(5.06854 -0.505026 0)
(5.06848 -0.505069 0)
(5.06829 -0.505187 0)
(5.06793 -0.505362 0)
(5.06771 -0.50533 0)
(5.06769 -0.50512 0)
(5.06786 -0.504738 0)
(5.06808 -0.504374 0)
(5.06844 -0.504156 0)
(5.06829 -0.504486 0)
(5.06804 -0.504923 0)
(5.06791 -0.505375 0)
(5.06784 -0.506174 0)
(5.06797 -0.506661 0)
(5.06804 -0.506623 0)
(5.068 -0.506324 0)
(5.06799 -0.506157 0)
(5.0677 -0.506248 0)
(5.06747 -0.506596 0)
(5.0674 -0.506904 0)
(5.06742 -0.507184 0)
(5.06742 -0.50723 0)
(5.06742 -0.507132 0)
(5.06729 -0.507007 0)
(5.06703 -0.506501 0)
(5.06694 -0.506101 0)
(5.06655 -0.504384 0)
(5.06543 -0.496759 0)
(5.06129 -0.47399 0)
(5.05544 -0.422329 0)
(5.0428 -0.319964 0)
(5.03989 -0.262858 0)
(5.02588 -0.129331 0)
(5.0447 -0.132782 0)
(5.01137 -0.0544367 0)
(5.00369 -0.036029 0)
(5.00241 -0.0213883 0)
(4.98795 -0.00630284 0)
(4.98202 0.00972981 0)
(4.98101 0.00625472 0)
(4.98086 -0.000672784 0)
(4.98176 -0.00498194 0)
(4.98229 -0.00419144 0)
(4.98371 -0.000130612 0)
(4.98495 0.00279813 0)
(4.98476 0.00246784 0)
(4.98416 -0.000962284 0)
(4.98381 -0.00398177 0)
(4.98409 -0.00279854 0)
(4.98427 -0.000895353 0)
(4.9847 0.000500681 0)
(4.98465 0.000197767 0)
(5.06637 -0.507664 0)
(5.06636 -0.507652 0)
(5.06636 -0.507635 0)
(5.06635 -0.507629 0)
(5.06636 -0.507716 0)