/*--------------------------------*- C++ -*----------------------------------*\
  =========                 |
  \\      /  F ield         | OpenFOAM: The Open Source CFD Toolbox
   \\    /   O peration     | Website:  https://openfoam.org
    \\  /    A nd           | Version:  7
     \\/     M anipulation  |
\*---------------------------------------------------------------------------*/
FoamFile
{
    version     2.0;
    format      ascii;
    class       volScalarField;
    location    "2.5";
    object      T;
}
// * * * * * * * * * * * * * * * * * * * * * * * * * * * * * * * * * * * * * //

dimensions      [0 0 0 1 0 0 0];

internalField   nonuniform List<scalar> 
3600
(
0.881478
0.891458
0.903193
0.915492
0.928096
0.940926
0.954195
0.96701
0.979938
0.991625
1.0036
1.01278
1.01916
1.01663
1.00745
1.00947
1.01124
1.00722
1.00742
1.02926
0.875702
0.876175
0.877264
0.879241
0.882547
0.887747
0.89539
0.905909
0.919329
0.935722
0.954139
0.97274
0.993222
0.998846
1.00341
1.01075
1.01058
1.00456
1.00632
1.02962
0.875445
0.87542
0.875487
0.875851
0.876148
0.876264
0.876586
0.877539
0.879744
0.884525
0.893334
0.910202
0.934101
0.963211
0.989434
1.00181
1.00243
0.997767
1.00375
1.0297
0.875045
0.875168
0.87534
0.875397
0.875107
0.874747
0.874433
0.874295
0.874349
0.875127
0.876858
0.879546
0.884893
0.898543
0.924559
0.955647
0.976361
0.98649
1.00525
1.03184
0.873102
0.872802
0.872514
0.872098
0.871368
0.870927
0.870351
0.869941
0.870138
0.870161
0.870179
0.87061
0.86994
0.869489
0.873518
0.891971
0.927587
0.97076
1.00439
1.03471
0.866847
0.86626
0.86556
0.864607
0.863807
0.863398
0.862921
0.862853
0.86352
0.863549
0.862476
0.861542
0.859769
0.857965
0.858131
0.860151
0.872103
0.908279
0.969901
1.02768
0.87313
0.873012
0.872865
0.872625
0.872379
0.872178
0.871821
0.870942
0.870372
0.869388
0.866631
0.863942
0.862271
0.862629
0.863562
0.865491
0.867656
0.873524
0.901369
0.994054
0.925075
0.924833
0.92431
0.923152
0.922052
0.92079
0.918801
0.915917
0.912727
0.909099
0.904131
0.897901
0.895499
0.894846
0.891463
0.885814
0.88177
0.877732
0.878022
0.922635
1.01064
1.00953
1.00785
1.00576
1.00345
1.0005
0.996775
0.99236
0.987092
0.980897
0.97394
0.966027
0.957685
0.94743
0.934895
0.920828
0.90728
0.892269
0.882226
0.901217
1.08137
1.08064
1.07987
1.07915
1.07818
1.07673
1.07497
1.07274
1.06989
1.06632
1.06169
1.05567
1.04793
1.0381
1.02577
1.0104
0.991961
0.972151
0.950567
0.93853
1.0854
1.08517
1.08486
1.08455
1.08421
1.08379
1.08331
1.08261
1.08167
1.08062
1.07921
1.07729
1.0749
1.07164
1.06703
1.06063
1.05171
1.04024
1.02566
0.99961
1.05063
1.051
1.05123
1.05156
1.0521
1.05269
1.05333
1.05407
1.05489
1.0558
1.05668
1.05747
1.0583
1.05829
1.05767
1.05593
1.05197
1.0457
1.03767
1.02158
1.00699
1.00713
1.00729
1.00752
1.00781
1.00816
1.00859
1.00914
1.00982
1.01067
1.01175
1.01307
1.0147
1.01663
1.01878
1.02115
1.02352
1.02375
1.02222
1.01467
1.00018
1.00019
1.0002
1.00021
1.00022
1.00023
1.00025
1.00028
1.00031
1.00036
1.00043
1.00052
1.00065
1.00084
1.0011
1.00148
1.00203
1.00263
1.00299
1.00243
1
1
1
1
1
1
1
1
1
1
1.00001
1.00001
1.00001
1.00001
1.00002
1.00003
1.00004
1.00006
1.00008
1.00008
0.8738
0.875552
0.87545
0.874847
0.87354
0.867546
0.873341
0.925489
1.01217
1.08205
1.08563
1.05017
1.0068
1.00018
1
0.873994
0.875634
0.875421
0.874428
0.874089
0.868474
0.873902
0.926851
1.0148
1.08298
1.08586
1.04956
1.00652
1.00017
1
0.874301
0.875772
0.875389
0.873828
0.874567
0.869601
0.874537
0.928053
1.01755
1.08393
1.08604
1.04887
1.00624
1.00016
1
0.874613
0.875832
0.875354
0.873034
0.874742
0.870711
0.875414
0.929742
1.0206
1.08506
1.0862
1.04803
1.00593
1.00015
1
0.874963
0.875815
0.875015
0.872262
0.874488
0.871783
0.876576
0.931941
1.02405
1.08635
1.08652
1.04706
1.00559
1.00013
1
0.87543
0.875823
0.874678
0.871842
0.873156
0.87272
0.878124
0.93438
1.02795
1.0878
1.08708
1.04595
1.00522
1.00012
1
0.876099
0.875855
0.874245
0.871805
0.870999
0.873401
0.880102
0.937185
1.03235
1.08939
1.08755
1.04463
1.00482
1.00011
1
0.87705
0.87596
0.87383
0.871867
0.869172
0.87378
0.882472
0.941073
1.03728
1.09113
1.08779
1.04308
1.0044
1.0001
1
0.878451
0.876167
0.873538
0.871357
0.868103
0.873906
0.885339
0.945925
1.04278
1.09299
1.08791
1.0413
1.00396
1.00008
1
0.880343
0.876725
0.873301
0.870342
0.867497
0.874031
0.88891
0.951601
1.04894
1.0949
1.08812
1.03924
1.00349
1.00007
1
0.882733
0.877636
0.873153
0.869128
0.867326
0.875714
0.893388
0.958723
1.05581
1.09683
1.08853
1.03685
1.00301
1.00006
1
0.885276
0.879115
0.873217
0.867675
0.867958
0.879861
0.898527
0.96777
1.06333
1.09874
1.08861
1.03407
1.00252
1.00005
1
0.887817
0.881039
0.873561
0.866329
0.869176
0.883531
0.903471
0.978488
1.07147
1.10067
1.08734
1.03082
1.00204
1.00004
1
0.890023
0.883299
0.874429
0.866057
0.869682
0.885988
0.908592
0.991186
1.08027
1.10277
1.08558
1.02717
1.00159
1.00003
1
0.891386
0.885323
0.87627
0.866929
0.870024
0.888287
0.916434
1.00639
1.08948
1.10517
1.08325
1.02315
1.00118
1.00002
1
0.891909
0.886601
0.877642
0.868742
0.871092
0.891841
0.930198
1.02418
1.09874
1.10765
1.07961
1.01881
1.00082
1.00001
1
0.891965
0.887443
0.878691
0.869559
0.871843
0.897473
0.949156
1.04428
1.10729
1.10976
1.0741
1.01433
1.00053
1.00001
1
0.889645
0.887894
0.881049
0.869587
0.872159
0.906552
0.973156
1.0658
1.11426
1.11112
1.06586
1.00998
1.00031
1
1
0.886849
0.887788
0.884276
0.872604
0.875831
0.924654
1.0022
1.08759
1.1197
1.11132
1.05463
1.00623
1.00016
1
1
0.883918
0.885967
0.886443
0.881566
0.889174
0.953919
1.03672
1.10724
1.12331
1.1051
1.04113
1.0034
1.00007
1
1
1
1
1
1
1.00001
1.00092
1.02128
1.09201
1.13082
1.13073
1.12948
1.13249
1.13586
1.13687
1.11889
1
1
1
1
1.00002
1.00106
1.02329
1.09393
1.13133
1.1308
1.12949
1.13242
1.13574
1.1335
1.08928
1
1
1
1
1.00002
1.00125
1.02543
1.09584
1.13197
1.131
1.12956
1.13233
1.1354
1.12727
1.05537
1
1
1
1
1.00003
1.00151
1.02806
1.09874
1.13266
1.13127
1.12967
1.13221
1.13464
1.11717
1.02067
1
1
1
1
1.00003
1.00185
1.03149
1.10276
1.13326
1.13159
1.12985
1.13182
1.13319
1.10353
0.984462
1
1
1
1
1.00004
1.0023
1.03535
1.10528
1.13387
1.13206
1.13014
1.13147
1.12973
1.08528
0.949995
1
1
1
1
1.00006
1.00292
1.03962
1.10796
1.13472
1.13269
1.1305
1.1311
1.12334
1.06354
0.914616
1
1
1
1
1.00008
1.00377
1.04478
1.11113
1.13549
1.13363
1.13123
1.13004
1.11255
1.03727
0.884286
1
1
1
1
1.00011
1.00496
1.05068
1.11411
1.13593
1.13462
1.13135
1.12746
1.09621
1.00865
0.85416
1
1
1
1
1.00017
1.00662
1.05755
1.1171
1.13618
1.13488
1.13103
1.12179
1.07343
0.978239
0.835359
1
1
1
1
1.00026
1.00902
1.06528
1.11981
1.1363
1.13483
1.12966
1.11112
1.04425
0.948012
0.816217
1
1
1
1.00001
1.00041
1.0123
1.07362
1.12278
1.13651
1.13471
1.12572
1.09334
1.01012
0.921358
0.817772
1
1
1
1.00001
1.00067
1.01691
1.0824
1.125
1.13643
1.13381
1.118
1.06743
0.972044
0.898013
0.823781
1
1
1
1.00002
1.00111
1.02296
1.0908
1.1268
1.13618
1.13148
1.10346
1.03442
0.934773
0.881817
0.841015
1
1
1
1.00003
1.00191
1.03083
1.09956
1.1292
1.1359
1.12644
1.08212
0.995667
0.898963
0.874898
0.86398
1
1
1
1.00007
1.00327
1.04093
1.10747
1.12981
1.13505
1.11632
1.05096
0.959736
0.874396
0.863538
0.88862
1
1
1
1.00014
1.00574
1.05331
1.1145
1.12902
1.13196
1.09716
1.01445
0.927091
0.86577
0.864606
0.898533
1
1
1
1.00031
1.00991
1.06709
1.12106
1.12798
1.12239
1.06827
0.974877
0.90266
0.866653
0.867437
0.896417
1
1
1.00001
1.00069
1.01684
1.08338
1.1256
1.12578
1.10373
1.03024
0.938664
0.891076
0.869582
0.873732
0.892124
1
1
1.00003
1.0016
1.02805
1.09619
1.12506
1.12039
1.07346
0.988527
0.90997
0.888013
0.881503
0.878514
0.884354
1.13923
1.13791
1.1358
1.13258
1.12953
1.13071
1.13045
1.08954
1.01939
1.00079
1.00001
1
1
1
1
1.13898
1.13782
1.13578
1.13295
1.12976
1.13051
1.13029
1.08738
1.01828
1.00073
1.00001
1
1
1
1
1.13877
1.13777
1.13579
1.13325
1.12998
1.13034
1.12958
1.0846
1.01696
1.00064
1.00001
1
1
1
1
1.13851
1.13756
1.13579
1.13359
1.13022
1.13015
1.12895
1.08232
1.01562
1.00056
1.00001
1
1
1
1
1.1382
1.13729
1.13577
1.13398
1.13061
1.13
1.12841
1.0796
1.01406
1.00048
1.00001
1
1
1
1
1.13778
1.13695
1.13567
1.13442
1.13107
1.12986
1.12779
1.07617
1.01241
1.0004
1.00001
1
1
1
1
1.13717
1.13651
1.13555
1.1349
1.1316
1.12971
1.12683
1.07205
1.01076
1.00033
1
1
1
1
1
1.13636
1.136
1.13537
1.13536
1.13215
1.12948
1.1254
1.06726
1.00908
1.00026
1
1
1
1
1
1.13532
1.13551
1.13525
1.13566
1.13254
1.12918
1.12324
1.06174
1.00746
1.0002
1
1
1
1
1
1.13423
1.13489
1.13509
1.13586
1.13282
1.12881
1.12022
1.05575
1.00593
1.00014
1
1
1
1
1
1.1331
1.13422
1.13483
1.13601
1.13328
1.12834
1.11641
1.04931
1.00455
1.0001
1
1
1
1
1
1.13211
1.13359
1.13464
1.13633
1.13425
1.12746
1.11158
1.04244
1.00332
1.00007
1
1
1
1
1
1.13136
1.13311
1.1347
1.13687
1.13567
1.12672
1.10532
1.03494
1.00228
1.00004
1
1
1
1
1
1.13093
1.13273
1.1349
1.13742
1.13723
1.12685
1.0973
1.02701
1.00144
1.00003
1
1
1
1
1
1.13077
1.1325
1.13515
1.13813
1.13818
1.12795
1.08696
1.01901
1.00082
1.00001
1
1
1
1
1
1.13081
1.13235
1.13526
1.1385
1.13838
1.12708
1.07337
1.01191
1.00041
1.00001
1
1
1
1
1
1.13212
1.13217
1.13422
1.13827
1.13824
1.11868
1.05628
1.00651
1.00018
1
1
1
1
1
1
1.1333
1.13257
1.13242
1.13588
1.13634
1.10637
1.03899
1.00303
1.00007
1
1
1
1
1
1
1.13487
1.13252
1.13112
1.13295
1.13321
1.0916
1.02271
1.00114
1.00002
1
1
1
1
1
1
1.13574
1.13401
1.13098
1.13097
1.12745
1.06679
1.00918
1.0003
1
1
1
1
1
1
1
1
1
1
1
1
1
1
1
1
1
1
1
1
1.00014
1.00813
1
1
1
1
1
1
1
1
1
1
1
1
1
1.00084
1.02114
1
1
1
1
1
1
1
1
1
1
1
1
1.00002
1.0022
1.0359
1
1
1
1
1
1
1
1
1
1
1
1
1.00007
1.00482
1.05134
1
1
1
1
1
1
1
1
1
1
1
1
1.00019
1.00862
1.0679
1
1
1
1
1
1
1
1
1
1
1
1
1.00047
1.01459
1.08447
1
1
1
1
1
1
1
1
1
1
1
1.00001
1.00103
1.02221
1.102
1
1
1
1
1
1
1
1
1
1
1
1.00004
1.00226
1.03287
1.11856
1
1
1
1
1
1
1
1
1
1
1
1.00011
1.00449
1.04525
1.13541
1
1
1
1
1
1
1
1
1
1
1
1.00029
1.00894
1.06043
1.14989
1
1
1
1
1
1
1
1
1
1
1.00001
1.00074
1.01627
1.07668
1.16244
1
1
1
1
1
1
1
1
1
1
1.00004
1.00198
1.02928
1.09308
1.17233
1
1
1
1
1
1
1
1
1
1
1.00013
1.00487
1.04784
1.11001
1.17458
1
1
1
1
1
1
1
1
1
1.00001
1.00048
1.01253
1.07456
1.12209
1.17053
1
1
1
1
1
1
1
1
1
1.00003
1.00166
1.02916
1.10722
1.13045
1.1577
1
1
1
1
1
1
1
1
1
1.00016
1.0063
1.05912
1.13206
1.13736
1.13823
1
1
1
1
1
1
1
1
1.00001
1.00078
1.01884
1.09277
1.14089
1.14037
1.12731
1
1
1
1
1
1
1
1
1.00008
1.00366
1.04432
1.1147
1.14175
1.13917
1.12745
1
1
1
1
1
1
1
1.00001
1.00047
1.01271
1.07756
1.13008
1.14132
1.13736
1.12936
1
1
1
1
1
1
1
1.00005
1.00242
1.03504
1.10706
1.1305
1.13878
1.1355
1.13316
1
1
1
1
1
1
1
1
1
1
1
1
1
1
1
1
1
1
1
1
1
1
1
1
1
1
1
1
1
1
1
1
1
1
1
1
1
1
1
1
1
1
1
1
1
1
1
1
1
1
1
1
1
1
1
1
1
1
1
1
1
1
1
1
1
1
1
1
1
1
1
1
1
1
1
1
1
1
1
1
1
1
1
1
1
1
1
1
1
1
1
1
1
1
1
1
1
1
1
1
1
1
1
1
1
1
1
1
1
1
1
1
1
1
1
1
1
1
1
1
1
1
1
1
1
1
1
1
1
1
1
1
1
1
1
1
1
1
1
1
1
1
1
1
1
1
1
1
1
1
1
1
1
1
1
1
1
1
1
1
1
1
1
1
1
1
1
1
1
1
1
1
1
1
1
1
1
1
1
1
1
1
1
1
1
1
1
1
1
1
1
1
1
1
1
1
1
1
1
1
1
1
1
1
1
1
1
1
1
1
1
1
1
1
1
1
1
1
1
1
1
1
1
1
1
1
1
1
1
1
1
1
1
1
1
1
1
1
1
1
1
1
1
1
1
1
1
1
1
1
1
1
1
1
1
1
1
1
1
1
1
1
1
1
1
1
1
1
1
1
1
1
1
1
1
1
1
1
1
1
1
1
1
1
1
1
1
1
1
1
1
1
1
1
1
1
1
1
1
1
1
1
1
1
1
1
1
1
1
1
1
1
1
1
1
1
1
1
1
1
1
1
1
1
1
1
1
1
1
1
1
1
1
1
1
1
1
1
1
1
1
1
1
1
1
1
1
1
1
1
1
1
1
1
1
1
1
1
1
1
1
1
1
1
1
1
1
1
1
1
1
1
1
1
1
1
1
1
1
1
1
1
1
1
1
1
1
1
1
1
1
1
1
1
1
1
1
1
1
1
1
1
1
1
1
1
1
1
1
1
1
1
1
1
1
1
1
1
1
1
1
1
1
1
1
1
1
1
1
1
1
1
1
1
1
1
1
1
1
1
1
1
1
1
1
1
1
1
1
1
1
1
1
1
1
1
1
1
1
1
1
1
1
1
1
1
1
1
1
1
1
1
1
1
1
1
1
1
1
1
1
1
1
1
1
1
1
1
1
1
1
1
1
1
1
1
1
1
1
1
1
1
1
1
1
1
1
1
1
1
1
1
1
1
1
1
1
1
1
1
1
1
1
1
1
1
1
1
1
1
1
1
1
1
1
1
1
1
1
1
1
1
1
1
1
1
1
1
1
1
1
1
1
1
1
1
1
1
1
1
1
1
1
1
1
1
1
1
1
1
1
1
1
1
1
1
1
1
1
1
1
1
1
1
1
1
1
1
1
1
1
1
1
1
1
1
1
1
1
1
1.00813
1.00014
1
1
1
1
1
1
1
1
1
1
1
1
1
1.02114
1.00084
1
1
1
1
1
1
1
1
1
1
1
1
1
1.0359
1.0022
1.00002
1
1
1
1
1
1
1
1
1
1
1
1
1.05134
1.00482
1.00007
1
1
1
1
1
1
1
1
1
1
1
1
1.0679
1.00862
1.00019
1
1
1
1
1
1
1
1
1
1
1
1
1.08447
1.01459
1.00047
1
1
1
1
1
1
1
1
1
1
1
1
1.102
1.02221
1.00103
1.00001
1
1
1
1
1
1
1
1
1
1
1
1.11856
1.03287
1.00226
1.00004
1
1
1
1
1
1
1
1
1
1
1
1.13541
1.04525
1.00449
1.00011
1
1
1
1
1
1
1
1
1
1
1
1.14989
1.06043
1.00894
1.00029
1
1
1
1
1
1
1
1
1
1
1
1.16244
1.07668
1.01627
1.00074
1.00001
1
1
1
1
1
1
1
1
1
1
1.17233
1.09308
1.02928
1.00198
1.00004
1
1
1
1
1
1
1
1
1
1
1.17458
1.11001
1.04784
1.00487
1.00013
1
1
1
1
1
1
1
1
1
1
1.17053
1.12209
1.07456
1.01253
1.00048
1.00001
1
1
1
1
1
1
1
1
1
1.1577
1.13045
1.10722
1.02916
1.00166
1.00003
1
1
1
1
1
1
1
1
1
1.13823
1.13736
1.13206
1.05912
1.0063
1.00016
1
1
1
1
1
1
1
1
1
1.12731
1.14037
1.14089
1.09277
1.01884
1.00078
1.00001
1
1
1
1
1
1
1
1
1.12745
1.13917
1.14175
1.1147
1.04432
1.00366
1.00008
1
1
1
1
1
1
1
1
1.12936
1.13736
1.14132
1.13008
1.07756
1.01271
1.00047
1.00001
1
1
1
1
1
1
1
1.13316
1.1355
1.13878
1.1305
1.10706
1.03505
1.00242
1.00005
1
1
1
1
1
1
1
1
1
1
1
1.00001
1.00079
1.01939
1.08954
1.13045
1.13071
1.12953
1.13258
1.1358
1.13791
1.13923
1
1
1
1
1.00001
1.00073
1.01828
1.08738
1.13029
1.13051
1.12976
1.13295
1.13578
1.13782
1.13898
1
1
1
1
1.00001
1.00064
1.01696
1.0846
1.12958
1.13034
1.12998
1.13325
1.13579
1.13777
1.13877
1
1
1
1
1.00001
1.00056
1.01562
1.08232
1.12895
1.13015
1.13022
1.13359
1.13579
1.13756
1.13851
1
1
1
1
1.00001
1.00048
1.01406
1.0796
1.12841
1.13
1.13061
1.13398
1.13577
1.13729
1.1382
1
1
1
1
1.00001
1.0004
1.01241
1.07617
1.12779
1.12986
1.13107
1.13442
1.13567
1.13695
1.13778
1
1
1
1
1
1.00033
1.01076
1.07205
1.12683
1.12971
1.1316
1.1349
1.13555
1.13651
1.13717
1
1
1
1
1
1.00026
1.00908
1.06726
1.1254
1.12948
1.13215
1.13536
1.13537
1.136
1.13636
1
1
1
1
1
1.0002
1.00746
1.06174
1.12324
1.12918
1.13254
1.13566
1.13525
1.13551
1.13532
1
1
1
1
1
1.00014
1.00593
1.05575
1.12022
1.12881
1.13282
1.13586
1.13509
1.13489
1.13423
1
1
1
1
1
1.0001
1.00455
1.04931
1.11641
1.12834
1.13328
1.13601
1.13483
1.13422
1.1331
1
1
1
1
1
1.00007
1.00332
1.04244
1.11158
1.12746
1.13425
1.13633
1.13464
1.13359
1.13211
1
1
1
1
1
1.00004
1.00228
1.03494
1.10532
1.12672
1.13567
1.13687
1.1347
1.13311
1.13136
1
1
1
1
1
1.00003
1.00144
1.02701
1.0973
1.12685
1.13723
1.13742
1.1349
1.13273
1.13093
1
1
1
1
1
1.00001
1.00082
1.01901
1.08696
1.12795
1.13818
1.13813
1.13515
1.1325
1.13077
1
1
1
1
1
1.00001
1.00041
1.01191
1.07337
1.12708
1.13838
1.1385
1.13526
1.13235
1.13081
1
1
1
1
1
1
1.00018
1.00651
1.05628
1.11868
1.13824
1.13827
1.13422
1.13217
1.13212
1
1
1
1
1
1
1.00007
1.00303
1.03899
1.10637
1.13634
1.13588
1.13242
1.13257
1.1333
1
1
1
1
1
1
1.00002
1.00114
1.02271
1.0916
1.13321
1.13295
1.13112
1.13252
1.13487
1
1
1
1
1
1
1
1.0003
1.00918
1.06679
1.12745
1.13097
1.13098
1.13401
1.13574
1.11889
1.13687
1.13586
1.13249
1.12948
1.13073
1.13082
1.09201
1.02128
1.00092
1.00001
1
1
1
1
1.08928
1.1335
1.13574
1.13242
1.12949
1.1308
1.13133
1.09393
1.02329
1.00106
1.00002
1
1
1
1
1.05537
1.12727
1.1354
1.13233
1.12956
1.131
1.13197
1.09584
1.02543
1.00125
1.00002
1
1
1
1
1.02067
1.11717
1.13464
1.13221
1.12967
1.13127
1.13266
1.09874
1.02806
1.00151
1.00003
1
1
1
1
0.984462
1.10353
1.13319
1.13182
1.12985
1.13159
1.13326
1.10276
1.03149
1.00185
1.00003
1
1
1
1
0.949995
1.08528
1.12973
1.13147
1.13014
1.13206
1.13387
1.10528
1.03535
1.0023
1.00004
1
1
1
1
0.914616
1.06354
1.12334
1.1311
1.1305
1.13269
1.13472
1.10796
1.03962
1.00292
1.00006
1
1
1
1
0.884286
1.03727
1.11255
1.13004
1.13123
1.13363
1.13549
1.11113
1.04478
1.00377
1.00008
1
1
1
1
0.85416
1.00865
1.09621
1.12746
1.13135
1.13462
1.13593
1.11411
1.05068
1.00496
1.00011
1
1
1
1
0.835359
0.978239
1.07343
1.12179
1.13103
1.13488
1.13618
1.1171
1.05755
1.00662
1.00017
1
1
1
1
0.816217
0.948012
1.04425
1.11112
1.12966
1.13483
1.1363
1.11981
1.06528
1.00902
1.00026
1
1
1
1
0.817772
0.921358
1.01012
1.09334
1.12572
1.13471
1.13651
1.12278
1.07362
1.0123
1.00041
1.00001
1
1
1
0.823782
0.898013
0.972044
1.06743
1.118
1.13381
1.13643
1.125
1.0824
1.01691
1.00067
1.00001
1
1
1
0.841015
0.881817
0.934773
1.03442
1.10346
1.13148
1.13618
1.1268
1.0908
1.02296
1.00111
1.00002
1
1
1
0.86398
0.874898
0.898963
0.995667
1.08212
1.12644
1.1359
1.1292
1.09956
1.03083
1.00191
1.00003
1
1
1
0.88862
0.863538
0.874396
0.959736
1.05096
1.11632
1.13505
1.12981
1.10747
1.04093
1.00327
1.00007
1
1
1
0.898534
0.864606
0.86577
0.927091
1.01445
1.09716
1.13196
1.12902
1.1145
1.05331
1.00574
1.00014
1
1
1
0.896417
0.867437
0.866653
0.902659
0.974877
1.06827
1.12239
1.12798
1.12106
1.06709
1.00991
1.00031
1
1
1
0.892124
0.873732
0.869582
0.891076
0.938664
1.03024
1.10373
1.12578
1.1256
1.08338
1.01684
1.00069
1.00001
1
1
0.884354
0.878514
0.881503
0.888014
0.90997
0.988527
1.07346
1.12039
1.12506
1.09619
1.02805
1.0016
1.00003
1
1
1
1.00018
1.0068
1.05017
1.08563
1.08205
1.01217
0.925491
0.873342
0.867546
0.873539
0.874846
0.87545
0.875553
0.8738
1
1.00017
1.00652
1.04956
1.08586
1.08298
1.0148
0.926852
0.873903
0.868473
0.874089
0.874427
0.875421
0.875635
0.873995
1
1.00016
1.00624
1.04887
1.08604
1.08393
1.01755
0.928054
0.874537
0.869601
0.874566
0.873828
0.875389
0.875773
0.874301
1
1.00015
1.00593
1.04803
1.0862
1.08506
1.0206
0.929742
0.875415
0.870711
0.874742
0.873034
0.875354
0.875832
0.874613
1
1.00013
1.00559
1.04706
1.08652
1.08635
1.02405
0.931941
0.876576
0.871783
0.874489
0.872262
0.875016
0.875816
0.874963
1
1.00012
1.00522
1.04595
1.08708
1.0878
1.02795
0.934381
0.878124
0.87272
0.873159
0.871841
0.874678
0.875824
0.87543
1
1.00011
1.00482
1.04463
1.08755
1.08939
1.03235
0.937186
0.880102
0.873401
0.871001
0.871804
0.874246
0.875856
0.876099
1
1.0001
1.0044
1.04308
1.08779
1.09113
1.03728
0.941074
0.882472
0.87378
0.869172
0.871866
0.87383
0.87596
0.877051
1
1.00008
1.00396
1.0413
1.08791
1.09299
1.04278
0.945926
0.885339
0.873905
0.868102
0.871357
0.873538
0.876167
0.878451
1
1.00007
1.00349
1.03924
1.08812
1.0949
1.04894
0.951601
0.88891
0.874029
0.867496
0.870342
0.873301
0.876725
0.880344
1
1.00006
1.00301
1.03685
1.08853
1.09683
1.05581
0.958723
0.893388
0.875713
0.867325
0.869128
0.873153
0.877636
0.882733
1
1.00005
1.00252
1.03407
1.08861
1.09874
1.06333
0.967769
0.898528
0.879858
0.867956
0.867675
0.873217
0.879115
0.885276
1
1.00004
1.00204
1.03082
1.08734
1.10067
1.07147
0.978487
0.903473
0.88353
0.869174
0.866329
0.873561
0.881039
0.887817
1
1.00003
1.00159
1.02717
1.08558
1.10277
1.08027
0.991186
0.908595
0.885989
0.869681
0.866057
0.874428
0.883298
0.890023
1
1.00002
1.00118
1.02315
1.08325
1.10517
1.08948
1.00639
0.916435
0.888288
0.870024
0.866929
0.87627
0.885323
0.891386
1
1.00001
1.00082
1.01881
1.07961
1.10765
1.09874
1.02418
0.930197
0.891842
0.871092
0.868742
0.877643
0.886601
0.891909
1
1.00001
1.00053
1.01433
1.0741
1.10976
1.10729
1.04428
0.949155
0.897474
0.871844
0.86956
0.878692
0.887443
0.891965
1
1
1.00031
1.00998
1.06586
1.11112
1.11426
1.0658
0.973156
0.906552
0.87216
0.869588
0.88105
0.887894
0.889645
1
1
1.00016
1.00623
1.05463
1.11132
1.1197
1.08759
1.0022
0.924652
0.87583
0.872604
0.884276
0.887787
0.886849
1
1
1.00007
1.0034
1.04113
1.1051
1.12331
1.10724
1.03672
0.953919
0.889173
0.881566
0.886443
0.885967
0.883918
1
1
1
1
1
1
1
1
1
1
1.00001
1.00001
1.00001
1.00001
1.00002
1.00003
1.00004
1.00006
1.00008
1.00008
1.00018
1.00019
1.0002
1.00021
1.00022
1.00023
1.00025
1.00028
1.00031
1.00036
1.00043
1.00052
1.00065
1.00084
1.0011
1.00148
1.00203
1.00263
1.00299
1.00243
1.00699
1.00713
1.00729
1.00752
1.00781
1.00816
1.00859
1.00914
1.00982
1.01067
1.01175
1.01307
1.0147
1.01663
1.01878
1.02115
1.02352
1.02375
1.02222
1.01467
1.05063
1.051
1.05123
1.05156
1.0521
1.05269
1.05333
1.05407
1.05489
1.0558
1.05668
1.05747
1.0583
1.05829
1.05767
1.05593
1.05197
1.0457
1.03767
1.02158
1.0854
1.08517
1.08486
1.08455
1.08421
1.08379
1.08331
1.08261
1.08167
1.08062
1.07921
1.07729
1.0749
1.07164
1.06703
1.06063
1.05171
1.04024
1.02566
0.999609
1.08137
1.08064
1.07987
1.07915
1.07818
1.07673
1.07497
1.07274
1.06989
1.06632
1.06169
1.05567
1.04793
1.0381
1.02577
1.0104
0.991961
0.972152
0.950567
0.938532
1.01064
1.00953
1.00785
1.00576
1.00345
1.0005
0.996775
0.99236
0.987092
0.980897
0.97394
0.966027
0.957685
0.94743
0.934895
0.920828
0.907281
0.89227
0.882224
0.901221
0.925076
0.924834
0.92431
0.923152
0.922053
0.92079
0.918801
0.915916
0.912726
0.909098
0.904129
0.8979
0.895499
0.894846
0.891463
0.885812
0.881771
0.877725
0.878016
0.922655
0.873131
0.873013
0.872866
0.872626
0.87238
0.872179
0.871821
0.870941
0.870372
0.869388
0.86663
0.863942
0.862272
0.862629
0.863562
0.865488
0.867652
0.873485
0.901336
0.994137
0.866848
0.86626
0.865559
0.864607
0.863807
0.863398
0.862921
0.862854
0.863521
0.863549
0.862476
0.861543
0.859769
0.857965
0.858131
0.860141
0.872055
0.907951
0.969864
1.02782
0.873102
0.872803
0.872514
0.872098
0.871368
0.870927
0.870352
0.869941
0.870139
0.870161
0.870181
0.870609
0.869946
0.869477
0.87351
0.891868
0.927376
0.970461
1.00448
1.0348
0.875045
0.875169
0.87534
0.875396
0.875106
0.874747
0.874433
0.874295
0.874349
0.875126
0.876861
0.879542
0.884904
0.898605
0.924136
0.955523
0.976532
0.986512
1.00532
1.03184
0.875445
0.87542
0.875488
0.875853
0.876148
0.876265
0.876584
0.877542
0.879737
0.884539
0.893325
0.91019
0.934158
0.963349
0.988757
1.00136
1.00254
0.99795
1.0037
1.02945
0.875703
0.876176
0.877263
0.879245
0.88254
0.887762
0.895366
0.905944
0.919285
0.935762
0.954125
0.97271
0.993321
0.998737
1.00333
1.01073
1.01078
1.00501
1.00637
1.02959
0.881473
0.891468
0.90318
0.915509
0.928075
0.940951
0.954167
0.967036
0.979912
0.991637
1.00359
1.01276
1.01917
1.01651
1.00919
1.00996
1.01147
1.00856
1.00753
1.02894
)
;

boundaryField
{
    inlet
    {
        type            fixedValue;
        value           uniform 1;
    }
    outlet
    {
        type            inletOutlet;
        inletValue      uniform 1;
        value           nonuniform List<scalar> 
30
(
1.00008
1.00243
1.01467
1.02157
0.99961
0.938538
0.901227
0.922663
0.994145
1.02782
1.0348
1.03184
1.02946
1.02959
1.02895
1.02926
1.02962
1.02971
1.03185
1.03471
1.02769
0.994062
0.922643
0.901223
0.938536
0.999611
1.02157
1.01467
1.00243
1.00008
)
;
    }
    airfoil
    {
        type            zeroGradient;
    }
    top_fore
    {
        type            fixedValue;
        value           uniform 1;
    }
    top_wake
    {
        type            fixedValue;
        value           uniform 1;
    }
    bottom_fore
    {
        type            fixedValue;
        value           uniform 1;
    }
    bottom_wake
    {
        type            fixedValue;
        value           uniform 1;
    }
    defaultFaces
    {
        type            empty;
    }
}


// ************************************************************************* //
