/*--------------------------------*- C++ -*----------------------------------*\
  =========                 |
  \\      /  F ield         | OpenFOAM: The Open Source CFD Toolbox
   \\    /   O peration     | Website:  https://openfoam.org
    \\  /    A nd           | Version:  7
     \\/     M anipulation  |
\*---------------------------------------------------------------------------*/
FoamFile
{
    version     2.0;
    format      ascii;
    class       volVectorField;
    location    "2.5";
    object      U;
}
// * * * * * * * * * * * * * * * * * * * * * * * * * * * * * * * * * * * * * //

dimensions      [0 1 -1 0 0 0 0];

internalField   nonuniform List<vector> 
90000
(
(5.05761 -0.482973 0)
(5.05427 -0.455727 0)
(5.05138 -0.43014 0)
(5.0485 -0.404721 0)
(5.04615 -0.383563 0)
(5.04375 -0.362569 0)
(5.04174 -0.345414 0)
(5.03947 -0.326591 0)
(5.03772 -0.313312 0)
(5.03545 -0.295668 0)
(5.0338 -0.284832 0)
(5.03155 -0.268644 0)
(5.0299 -0.259063 0)
(5.02765 -0.243707 0)
(5.0261 -0.236251 0)
(5.0237 -0.220394 0)
(5.02227 -0.214576 0)
(5.01985 -0.19886 0)
(5.01861 -0.194465 0)
(5.01611 -0.178174 0)
(5.01503 -0.174773 0)
(5.01247 -0.158384 0)
(5.01161 -0.156338 0)
(5.00887 -0.139134 0)
(5.0083 -0.137984 0)
(5.00548 -0.120356 0)
(5.00535 -0.120282 0)
(5.00224 -0.101934 0)
(5.00255 -0.102555 0)
(4.99911 -0.0839673 0)
(4.99997 -0.0846949 0)
(4.99608 -0.0664454 0)
(4.99711 -0.0661255 0)
(4.99321 -0.0510789 0)
(4.99204 -0.0445194 0)
(4.99169 -0.0372576 0)
(4.99095 -0.028945 0)
(4.98703 -0.0192108 0)
(4.98731 -0.0155982 0)
(4.98782 -0.00987718 0)
(4.9861 -0.00443363 0)
(4.98281 -0.00306094 0)
(4.9787 0.00555772 0)
(4.97606 0.00682927 0)
(4.97551 0.0135612 0)
(4.97392 0.00972304 0)
(4.97257 0.00730084 0)
(4.97132 0.00413773 0)
(4.97001 0.00236558 0)
(4.96847 -0.00329121 0)
(4.96715 -0.00352767 0)
(4.96657 -0.00767815 0)
(4.96621 -0.00830184 0)
(4.96562 -0.00464138 0)
(4.96454 -0.00327887 0)
(4.9667 -0.00147122 0)
(4.96735 -0.0010071 0)
(4.96825 -0.000871771 0)
(4.96922 0.000861896 0)
(4.96967 0.00196392 0)
(4.97054 0.00184012 0)
(4.97021 0.00267183 0)
(4.97108 0.00122297 0)
(4.97087 0.000246523 0)
(4.9705 -0.000493773 0)
(4.97007 -0.00296243 0)
(4.96881 -0.00393035 0)
(4.96915 -0.00398709 0)
(4.96889 -0.000631628 0)
(4.96916 0.000390931 0)
(4.9707 0.00221898 0)
(4.97184 0.00188523 0)
(4.97209 0.00380525 0)
(4.97319 0.00119847 0)
(4.97305 0.000208055 0)
(4.97276 -0.00065036 0)
(4.97203 -0.00290786 0)
(4.97254 -0.00107133 0)
(4.97312 -2.43361e-05 0)
(4.97356 0.000983598 0)
(4.97412 0.00117138 0)
(4.97412 0.00038537 0)
(4.97392 -0.00045064 0)
(4.97362 -0.00215006 0)
(4.97369 -0.00061982 0)
(4.97402 -7.35333e-05 0)
(4.97442 0.000395219 0)
(4.97444 0.000103003 0)
(4.97428 -0.000560324 0)
(4.97426 -0.000919855 0)
(4.97443 -0.000473318 0)
(4.97472 0.000170181 0)
(4.97482 0.000145884 0)
(4.97477 -0.000320145 0)
(4.97482 -0.000372671 0)
(4.97494 1.59259e-05 0)
(4.97506 0.000357093 0)
(4.97515 0.000320808 0)
(4.97521 0.000274614 0)
(4.97535 8.36071e-05 0)
(5.05967 -0.503852 0)
(5.05901 -0.503408 0)
(5.05793 -0.502635 0)
(5.05646 -0.501074 0)
(5.05477 -0.499102 0)
(5.05285 -0.496237 0)
(5.05083 -0.49293 0)
(5.04861 -0.488225 0)
(5.0464 -0.483528 0)
(5.04396 -0.476984 0)
(5.04162 -0.470454 0)
(5.03904 -0.4618 0)
(5.03663 -0.453648 0)
(5.0339 -0.442352 0)
(5.03155 -0.433003 0)
(5.02865 -0.419012 0)
(5.02633 -0.408008 0)
(5.02335 -0.391415 0)
(5.02118 -0.379509 0)
(5.01796 -0.359738 0)
(5.01604 -0.346712 0)
(5.01271 -0.323876 0)
(5.01119 -0.310929 0)
(5.00745 -0.284582 0)
(5.00645 -0.272174 0)
(5.00234 -0.242014 0)
(5.00222 -0.231218 0)
(4.99761 -0.197417 0)
(4.99843 -0.18889 0)
(4.99329 -0.152827 0)
(4.99478 -0.145217 0)
(4.98937 -0.10849 0)
(4.99156 -0.1029 0)
(4.98578 -0.0657773 0)
(4.98887 -0.063791 0)
(4.98232 -0.0263187 0)
(4.98516 -0.0258421 0)
(4.97844 0.00521759 0)
(4.98049 0.00715307 0)
(4.97456 0.0307676 0)
(4.97522 0.0348164 0)
(4.96949 0.048751 0)
(4.96822 0.0519425 0)
(4.96581 0.0442684 0)
(4.96797 0.0351123 0)
(4.96575 0.0164202 0)
(4.96788 0.00934394 0)
(4.96761 0.000732786 0)
(4.97014 -0.000242394 0)
(4.96815 -0.00637249 0)
(4.96882 -0.00748462 0)
(4.96943 -0.00792584 0)
(4.97168 -0.00802512 0)
(4.97329 -0.00772182 0)
(4.97342 -0.00581651 0)
(4.97555 -0.00138568 0)
(4.97471 0.00210508 0)
(4.97286 0.0036633 0)
(4.97325 0.00689136 0)
(4.97337 0.00908156 0)
(4.97337 0.00833591 0)
(4.97314 0.00555229 0)
(4.97293 0.00220128 0)
(4.97193 -0.00406892 0)
(4.97202 -0.0059762 0)
(4.97218 -0.00991142 0)
(4.97162 -0.0100216 0)
(4.97318 -0.00693876 0)
(4.97374 -0.00205924 0)
(4.9737 0.00235483 0)
(4.97386 0.00719761 0)
(4.974 0.00892928 0)
(4.97446 0.00714433 0)
(4.97385 0.00196156 0)
(4.97395 -0.00202507 0)
(4.97418 -0.00438381 0)
(4.97424 -0.0034051 0)
(4.97449 -0.000159306 0)
(4.9747 0.00302817 0)
(4.97505 0.0051527 0)
(4.97505 0.00333114 0)
(4.97481 0.000199675 0)
(4.97472 -0.00235107 0)
(4.97462 -0.00178719 0)
(4.97503 0.000367172 0)
(4.97516 0.00195786 0)
(4.97521 0.00148012 0)
(4.97503 -0.000397425 0)
(4.97496 -0.00128709 0)
(4.97508 -0.000287992 0)
(4.97519 0.00136554 0)
(4.97526 0.00139957 0)
(4.97523 0.000451504 0)
(4.97522 -0.000741354 0)
(4.97535 -7.1623e-05 0)
(4.97544 0.000585812 0)
(4.97552 0.000920909 0)
(4.97552 0.000601443 0)
(4.97553 0.000495507 0)
(4.97565 2.52392e-05 0)
(5.0584 -0.504814 0)
(5.05839 -0.504841 0)
(5.05837 -0.504743 0)
(5.05839 -0.50486 0)
(5.05833 -0.504716 0)
(5.05823 -0.504529 0)
(5.05821 -0.50444 0)
(5.05819 -0.504302 0)
(5.05815 -0.504151 0)
(5.0581 -0.504135 0)
(5.05802 -0.503963 0)
(5.05783 -0.50342 0)
(5.05768 -0.50296 0)
(5.05754 -0.502497 0)
(5.05738 -0.502014 0)
(5.05711 -0.501151 0)
(5.05678 -0.500259 0)
(5.05634 -0.498884 0)
(5.05588 -0.497411 0)
(5.05536 -0.495527 0)
(5.05475 -0.492983 0)
(5.054 -0.489814 0)
(5.05313 -0.485936 0)
(5.05199 -0.481062 0)
(5.05067 -0.475321 0)
(5.04903 -0.467865 0)
(5.04737 -0.459671 0)
(5.04532 -0.448941 0)
(5.04338 -0.438224 0)
(5.04081 -0.422777 0)
(5.03854 -0.409744 0)
(5.03511 -0.387273 0)
(5.03299 -0.373843 0)
(5.02891 -0.344127 0)
(5.02708 -0.330263 0)
(5.02245 -0.293798 0)
(5.02136 -0.282344 0)
(5.01621 -0.238904 0)
(5.01608 -0.233029 0)
(5.01107 -0.188184 0)
(5.01178 -0.186206 0)
(5.00836 -0.147063 0)
(5.01278 -0.146326 0)
(5.00567 -0.114426 0)
(5.01271 -0.103463 0)
(4.99946 -0.0680707 0)
(5.00102 -0.0603222 0)
(4.99295 -0.0417637 0)
(4.99454 -0.033377 0)
(4.98864 -0.0236547 0)
(4.98816 -0.0159771 0)
(4.98535 -0.00961922 0)
(4.98729 -0.00435145 0)
(4.98647 -0.000582447 0)
(4.98547 0.00323155 0)
(4.98398 0.00545677 0)
(4.98087 0.00939862 0)
(4.97994 0.00957798 0)
(4.9781 0.00679291 0)
(4.97797 0.00416679 0)
(4.97712 -0.0029485 0)
(4.97719 -0.00503985 0)
(4.97624 -0.0108833 0)
(4.97637 -0.0122662 0)
(4.97715 -0.0116097 0)
(4.97829 -0.0101927 0)
(4.98045 -0.00501235 0)
(4.97951 -0.00114589 0)
(4.97952 0.00263007 0)
(4.9795 0.00717949 0)
(4.97856 0.00765824 0)
(4.97754 0.00554066 0)
(4.97632 -0.00097467 0)
(4.97659 -0.00289807 0)
(4.97684 -0.00322244 0)
(4.97773 -0.00167584 0)
(4.97779 0.000320458 0)
(4.97798 0.00550271 0)
(4.97765 0.00516739 0)
(4.97789 0.00378969 0)
(4.9768 -0.00231197 0)
(4.97681 -0.00351768 0)
(4.97706 -0.00336056 0)
(4.97748 -0.000543685 0)
(4.97753 0.00011358 0)
(4.97726 -0.000335249 0)
(4.97695 -0.00174642 0)
(4.97671 -0.00242617 0)
(4.97678 -0.00166911 0)
(4.97688 0.000169034 0)
(4.97684 9.77918e-06 0)
(4.97669 -0.000640332 0)
(4.97649 -0.00185181 0)
(4.97655 -0.00156223 0)
(4.97666 -0.000770962 0)
(4.97662 -7.42379e-06 0)
(4.97661 -0.000241856 0)
(4.97655 -0.000384141 0)
(4.97648 6.47049e-05 0)
(4.97657 -0.000192899 0)
(5.05826 -0.503675 0)
(5.05827 -0.503681 0)
(5.05829 -0.50363 0)
(5.05832 -0.503586 0)
(5.05833 -0.503606 0)
(5.05836 -0.503608 0)
(5.05839 -0.503538 0)
(5.05844 -0.503447 0)
(5.05846 -0.50349 0)
(5.05846 -0.503651 0)
(5.05846 -0.503644 0)
(5.05845 -0.503513 0)
(5.05848 -0.50345 0)
(5.0585 -0.503499 0)
(5.05848 -0.503415 0)
(5.05846 -0.503319 0)
(5.05847 -0.503134 0)
(5.05841 -0.503505 0)
(5.05839 -0.503318 0)
(5.05846 -0.503025 0)
(5.05851 -0.50279 0)
(5.05849 -0.502568 0)
(5.05857 -0.50236 0)
(5.05869 -0.502184 0)
(5.05873 -0.502013 0)
(5.0587 -0.501845 0)
(5.05866 -0.501663 0)
(5.05861 -0.501373 0)
(5.05856 -0.501005 0)
(5.05847 -0.500309 0)
(5.05849 -0.49893 0)
(5.05843 -0.497089 0)
(5.05821 -0.494702 0)
(5.05768 -0.49103 0)
(5.0569 -0.486237 0)
(5.05555 -0.478492 0)
(5.05407 -0.470189 0)
(5.05158 -0.455098 0)
(5.04941 -0.441968 0)
(5.0452 -0.414062 0)
(5.04303 -0.396771 0)
(5.03675 -0.350002 0)
(5.03673 -0.331921 0)
(5.0281 -0.261624 0)
(5.0313 -0.249503 0)
(5.02083 -0.168704 0)
(5.02536 -0.170103 0)
(5.0136 -0.0941507 0)
(5.01805 -0.102282 0)
(5.0075 -0.0425604 0)
(5.00992 -0.050842 0)
(5.00132 -0.0110519 0)
(5.00011 -0.0157075 0)
(4.99362 0.00546435 0)
(4.98936 0.00509468 0)
(4.98785 0.0111148 0)
(4.98649 0.00454889 0)
(4.98615 0.00132318 0)
(4.98598 -0.00489799 0)
(4.98438 -0.00490836 0)
(4.9839 -0.00933308 0)
(4.98054 -0.00752343 0)
(4.98045 -0.0065109 0)
(4.98074 -0.00484598 0)
(4.98188 0.000107579 0)
(4.98234 0.00549786 0)
(4.98397 0.00717605 0)
(4.98331 0.0070911 0)
(4.98235 0.00509647 0)
(4.98087 0.00188423 0)
(4.98009 -0.000592794 0)
(4.97971 -0.00516021 0)
(4.9787 0.000814229 0)
(4.97907 0.00277929 0)
(4.98021 0.00349068 0)
(4.98057 0.00789877 0)
(4.98076 0.00546522 0)
(4.98054 0.00213042 0)
(4.98007 -0.000258122 0)
(4.98107 -0.00360236 0)
(4.97916 0.000747405 0)
(4.97938 0.00161042 0)
(4.97956 0.00348887 0)
(4.98012 0.000823021 0)
(4.9798 -0.000405113 0)
(4.97939 -0.00290852 0)
(4.9789 -0.00169332 0)
(4.97895 -0.0005823 0)
(4.97907 0.000574607 0)
(4.97905 0.000839328 0)
(4.97889 0.000725788 0)
(4.97867 0.000500744 0)
(4.97833 0.000679777 0)
(4.97837 0.000622345 0)
(4.97852 0.000550078 0)
(4.97845 0.00110001 0)
(4.97831 0.00149137 0)
(4.97824 0.00157285 0)
(4.97799 0.00184706 0)
(4.97827 0.000649584 0)
(5.05978 -0.502549 0)
(5.05982 -0.502504 0)
(5.05986 -0.50241 0)
(5.05992 -0.502364 0)
(5.05998 -0.502381 0)
(5.06003 -0.502383 0)
(5.06008 -0.502365 0)
(5.0601 -0.502348 0)
(5.06012 -0.502325 0)
(5.06015 -0.502298 0)
(5.0602 -0.5023 0)
(5.06026 -0.502313 0)
(5.06035 -0.502295 0)
(5.06047 -0.50226 0)
(5.06054 -0.502261 0)
(5.06054 -0.502282 0)
(5.06053 -0.502266 0)
(5.06055 -0.502234 0)
(5.06056 -0.502231 0)
(5.06058 -0.502233 0)
(5.06061 -0.502305 0)
(5.06066 -0.502406 0)
(5.06067 -0.502437 0)
(5.06072 -0.502462 0)
(5.06082 -0.502507 0)
(5.06096 -0.502515 0)
(5.06105 -0.502422 0)
(5.06111 -0.502288 0)
(5.06117 -0.502289 0)
(5.06127 -0.502203 0)
(5.0614 -0.502034 0)
(5.06153 -0.502099 0)
(5.06157 -0.502265 0)
(5.06156 -0.50231 0)
(5.0615 -0.502219 0)
(5.06136 -0.502169 0)
(5.06118 -0.502313 0)
(5.06108 -0.502243 0)
(5.06103 -0.501561 0)
(5.06094 -0.500538 0)
(5.06074 -0.498457 0)
(5.06028 -0.495586 0)
(5.05951 -0.490463 0)
(5.05809 -0.482421 0)
(5.05628 -0.470917 0)
(5.05294 -0.450097 0)
(5.05013 -0.429835 0)
(5.04422 -0.386611 0)
(5.04209 -0.363591 0)
(5.03366 -0.294646 0)
(5.03401 -0.28075 0)
(5.02371 -0.196852 0)
(5.02539 -0.19852 0)
(5.01483 -0.120328 0)
(5.01503 -0.131545 0)
(5.00644 -0.0805845 0)
(5.01182 -0.0915805 0)
(5.00106 -0.0585477 0)
(5.00325 -0.0582666 0)
(4.99514 -0.0394456 0)
(4.99519 -0.0306671 0)
(4.99328 -0.020416 0)
(4.99101 -0.0102116 0)
(4.98683 -0.000562886 0)
(4.98344 0.00929359 0)
(4.98289 0.0104561 0)
(4.98118 0.00971708 0)
(4.97994 0.00248359 0)
(4.97992 -0.00320796 0)
(4.97955 -0.0100067 0)
(4.97915 -0.0107927 0)
(4.97981 -0.00812711 0)
(4.98072 -0.00190482 0)
(4.98008 0.00228439 0)
(4.98184 0.0090027 0)
(4.98179 0.00982388 0)
(4.98091 0.00539117 0)
(4.98084 -0.000392329 0)
(4.98064 -0.00465282 0)
(4.98116 -0.00474768 0)
(4.98071 -0.0032913 0)
(4.98151 0.00128753 0)
(4.98182 0.00259186 0)
(4.98095 0.00101792 0)
(4.98052 -0.000947599 0)
(4.98041 -0.00290356 0)
(4.98082 -0.00226196 0)
(4.98092 -0.00184337 0)
(4.98119 0.000312902 0)
(4.98101 0.000215601 0)
(4.98072 -0.000790402 0)
(4.98051 -0.00209676 0)
(4.98044 -0.00188385 0)
(4.9805 -0.00109353 0)
(4.98063 -0.000259482 0)
(4.98057 -0.000314 0)
(4.98048 -0.000333929 0)
(4.98051 -0.00017407 0)
(4.98031 0.00073335 0)
(4.98044 -3.36558e-05 0)
(5.06169 -0.504296 0)
(5.06171 -0.504232 0)
(5.06173 -0.504195 0)
(5.06176 -0.504206 0)
(5.0618 -0.504172 0)
(5.06184 -0.504131 0)
(5.06189 -0.504125 0)
(5.06192 -0.504158 0)
(5.06194 -0.504167 0)
(5.06196 -0.504188 0)
(5.06196 -0.504228 0)
(5.06195 -0.504276 0)
(5.06196 -0.504321 0)
(5.062 -0.504359 0)
(5.06203 -0.504402 0)
(5.06199 -0.504466 0)
(5.06197 -0.504536 0)
(5.06191 -0.504591 0)
(5.06171 -0.504497 0)
(5.06168 -0.504434 0)
(5.06176 -0.504399 0)
(5.06191 -0.504353 0)
(5.06209 -0.504349 0)
(5.06226 -0.504367 0)
(5.06242 -0.504328 0)
(5.06259 -0.50424 0)
(5.06271 -0.504129 0)
(5.06275 -0.50408 0)
(5.06276 -0.504072 0)
(5.06276 -0.504101 0)
(5.06274 -0.504101 0)
(5.0627 -0.504067 0)
(5.06259 -0.504312 0)
(5.0625 -0.504369 0)
(5.0624 -0.504358 0)
(5.06228 -0.504687 0)
(5.06234 -0.504489 0)
(5.06245 -0.504428 0)
(5.0626 -0.50505 0)
(5.06278 -0.505315 0)
(5.06296 -0.505325 0)
(5.06311 -0.505376 0)
(5.06319 -0.505388 0)
(5.06324 -0.505293 0)
(5.0633 -0.505022 0)
(5.0632 -0.504614 0)
(5.06301 -0.503578 0)
(5.06255 -0.501359 0)
(5.06175 -0.496428 0)
(5.06007 -0.487101 0)
(5.05803 -0.473092 0)
(5.05355 -0.445269 0)
(5.05032 -0.41935 0)
(5.04114 -0.356703 0)
(5.04009 -0.329447 0)
(5.02516 -0.227508 0)
(5.03146 -0.216112 0)
(5.01398 -0.106922 0)
(5.02282 -0.111904 0)
(5.00605 -0.0284071 0)
(5.01158 -0.0321028 0)
(5.0004 0.017008 0)
(4.99829 0.0194158 0)
(4.9925 0.042924 0)
(4.98535 0.0312012 0)
(4.98084 0.0127465 0)
(4.97986 0.0032147 0)
(4.97901 -0.00356283 0)
(4.97937 -0.00817688 0)
(4.97993 -0.00839428 0)
(4.98016 -0.00554127 0)
(4.98185 0.00074613 0)
(4.98326 0.00868273 0)
(4.98301 0.00802016 0)
(4.98223 0.00746065 0)
(4.98095 0.00285469 0)
(4.9803 0.000424317 0)
(4.98039 1.49709e-05 0)
(4.98066 -0.000603146 0)
(4.98136 0.00165303 0)
(4.98175 0.00308528 0)
(4.98198 0.00225545 0)
(4.98151 0.000901548 0)
(4.98073 -0.000805293 0)
(4.98116 -0.0030528 0)
(4.98161 -0.00367765 0)
(4.9824 -0.00112709 0)
(4.98264 0.000362561 0)
(4.98258 0.000421981 0)
(4.98243 -3.48442e-05 0)
(4.98249 0.00041317 0)
(4.98237 0.000603163 0)
(4.98261 0.000741425 0)
(4.98269 0.000287328 0)
(4.98274 0.000186515 0)
(4.98279 0.000788138 0)
(4.98287 0.00144909 0)
(4.98295 0.00162931 0)
(4.98275 0.0013976 0)
(4.98251 0.00054677 0)
(5.06279 -0.505044 0)
(5.06278 -0.504976 0)
(5.06277 -0.504968 0)
(5.06276 -0.505055 0)
(5.06276 -0.505063 0)
(5.06279 -0.504987 0)
(5.06281 -0.505006 0)
(5.06283 -0.50504 0)
(5.06285 -0.505001 0)
(5.06283 -0.505058 0)
(5.06279 -0.505169 0)
(5.06277 -0.505201 0)
(5.06273 -0.505307 0)
(5.06272 -0.505485 0)
(5.06277 -0.505557 0)
(5.06287 -0.505538 0)
(5.063 -0.505576 0)
(5.06312 -0.505676 0)
(5.06322 -0.505706 0)
(5.06328 -0.505707 0)
(5.06336 -0.5057 0)
(5.06342 -0.505758 0)
(5.06343 -0.505945 0)
(5.06343 -0.506135 0)
(5.06343 -0.506168 0)
(5.06346 -0.506123 0)
(5.0635 -0.506075 0)
(5.06353 -0.506039 0)
(5.0635 -0.506046 0)
(5.06344 -0.506069 0)
(5.06338 -0.506098 0)
(5.06326 -0.506204 0)
(5.06311 -0.506422 0)
(5.06303 -0.506443 0)
(5.06293 -0.506605 0)
(5.0629 -0.506851 0)
(5.06304 -0.506827 0)
(5.0631 -0.506752 0)
(5.06319 -0.506718 0)
(5.0633 -0.506789 0)
(5.0636 -0.506869 0)
(5.06376 -0.506895 0)
(5.06386 -0.507023 0)
(5.06401 -0.50723 0)
(5.06423 -0.507171 0)
(5.06438 -0.507082 0)
(5.06466 -0.507374 0)
(5.06507 -0.507524 0)
(5.06523 -0.507437 0)
(5.06532 -0.50727 0)
(5.06537 -0.506885 0)
(5.06532 -0.506115 0)
(5.06502 -0.504152 0)
(5.06417 -0.500419 0)
(5.06285 -0.491548 0)
(5.06001 -0.475992 0)
(5.05674 -0.451328 0)
(5.04997 -0.405783 0)
(5.04648 -0.368361 0)
(5.03626 -0.285119 0)
(5.03662 -0.261989 0)
(5.02594 -0.166349 0)
(5.02727 -0.169255 0)
(5.01978 -0.102001 0)
(5.03089 -0.112143 0)
(5.00959 -0.0580509 0)
(5.00618 -0.0514529 0)
(5.00217 -0.036574 0)
(4.99728 -0.0199853 0)
(4.99416 -0.00808422 0)
(4.98231 0.000877576 0)
(4.98527 0.010835 0)
(4.98453 0.00897979 0)
(4.98255 -0.000234918 0)
(4.98176 -0.00148349 0)
(4.98237 -0.010474 0)
(4.98065 -0.00697287 0)
(4.98138 -0.00320368 0)
(4.98222 0.00205088 0)
(4.98331 0.00533785 0)
(4.98308 0.00474425 0)
(4.98248 0.00178167 0)
(4.98148 -0.000954863 0)
(4.98222 -0.00338855 0)
(4.98251 -0.00298823 0)
(4.98321 -0.00116045 0)
(4.98402 0.000772334 0)
(4.98423 -0.000335807 0)
(4.98389 -0.000957284 0)
(4.98401 -0.00236837 0)
(4.98406 -0.00161662 0)
(4.98378 -0.000402839 0)
(4.9843 0.00060044 0)
(4.98432 0.000138071 0)
(4.98443 -0.000387453 0)
(4.98458 -0.000408908 0)
(4.98484 0.000478019 0)
(4.9848 0.0013509 0)
(4.98453 0.00129829 0)
(4.98417 0.000397149 0)
(5.06379 -0.505428 0)
(5.06381 -0.505345 0)
(5.06381 -0.505401 0)
(5.06379 -0.505585 0)
(5.06383 -0.505711 0)
(5.06386 -0.505686 0)
(5.06393 -0.505552 0)
(5.06392 -0.505648 0)
(5.06389 -0.505955 0)
(5.06393 -0.505935 0)
(5.064 -0.505852 0)
(5.06396 -0.506014 0)
(5.06393 -0.506253 0)
(5.06401 -0.50633 0)
(5.06408 -0.506458 0)
(5.06416 -0.506669 0)
(5.06428 -0.506699 0)
(5.06442 -0.506611 0)
(5.06455 -0.506677 0)
(5.06468 -0.506886 0)
(5.06482 -0.506895 0)
(5.06494 -0.506628 0)
(5.06508 -0.506487 0)
(5.06499 -0.50677 0)
(5.06495 -0.506955 0)
(5.06496 -0.50692 0)
(5.06497 -0.506926 0)
(5.06493 -0.507079 0)
(5.06489 -0.507309 0)
(5.06492 -0.507356 0)
(5.06498 -0.507347 0)
(5.06495 -0.507594 0)
(5.06487 -0.507796 0)
(5.06478 -0.507814 0)
(5.06482 -0.507851 0)
(5.06484 -0.507864 0)
(5.06493 -0.507894 0)
(5.06499 -0.507909 0)
(5.06505 -0.507916 0)
(5.06515 -0.507968 0)
(5.0653 -0.508047 0)
(5.06542 -0.508097 0)
(5.06552 -0.508198 0)
(5.06563 -0.508294 0)
(5.06576 -0.508268 0)
(5.0658 -0.508118 0)
(5.06593 -0.508077 0)
(5.06616 -0.508088 0)
(5.06626 -0.508079 0)
(5.06636 -0.508052 0)
(5.06653 -0.508017 0)
(5.06675 -0.507853 0)
(5.06692 -0.507779 0)
(5.06684 -0.508089 0)
(5.06717 -0.50735 0)
(5.06714 -0.50691 0)
(5.06699 -0.505741 0)
(5.06669 -0.502764 0)
(5.06595 -0.496455 0)
(5.06376 -0.482704 0)
(5.06075 -0.460896 0)
(5.05336 -0.412932 0)
(5.04985 -0.372847 0)
(5.03419 -0.267565 0)
(5.0429 -0.23367 0)
(5.02386 -0.0958774 0)
(5.03554 -0.0958741 0)
(5.01445 0.00360065 0)
(5.01748 0.00411133 0)
(5.00532 0.0566678 0)
(4.9954 0.0475931 0)
(4.9876 0.0190875 0)
(4.98699 0.00574086 0)
(4.98404 -0.00873492 0)
(4.98373 -0.00908952 0)
(4.98448 -0.0091051 0)
(4.98536 -0.00340026 0)
(4.98717 0.0102336 0)
(4.98731 0.0129751 0)
(4.98675 0.0106712 0)
(4.98473 0.00463243 0)
(4.98407 -0.0033635 0)
(4.98445 -0.00424861 0)
(4.98497 -0.00339158 0)
(4.98551 -0.00093598 0)
(4.98647 0.00251867 0)
(4.98639 0.00152676 0)
(4.98615 2.39453e-05 0)
(4.98606 -0.00163262 0)
(4.98588 -0.00187671 0)
(4.98559 -0.00110716 0)
(4.98592 0.000318211 0)
(4.98556 0.00016312 0)
(4.98547 5.31427e-05 0)
(4.98546 -7.44172e-05 0)
(4.98554 0.000142015 0)
(4.9857 0.00106277 0)
(4.98575 0.00133007 0)
(4.98558 0.00115789 0)
(4.98565 0.000301601 0)
(5.06506 -0.506397 0)
(5.06512 -0.506436 0)
(5.06508 -0.506559 0)
(5.0651 -0.50675 0)
(5.06513 -0.506754 0)
(5.06517 -0.506712 0)
(5.06509 -0.506935 0)
(5.0651 -0.507093 0)
(5.06511 -0.507034 0)
(5.06515 -0.506893 0)
(5.06523 -0.506764 0)
(5.06524 -0.50689 0)
(5.06533 -0.507046 0)
(5.06545 -0.507053 0)
(5.06555 -0.50711 0)
(5.06562 -0.507258 0)
(5.06569 -0.507248 0)
(5.06581 -0.507209 0)
(5.06585 -0.507349 0)
(5.06595 -0.507468 0)
(5.06606 -0.50742 0)
(5.06616 -0.507463 0)
(5.0662 -0.507599 0)
(5.06626 -0.507515 0)
(5.06629 -0.507519 0)
(5.06627 -0.50766 0)
(5.06627 -0.507673 0)
(5.06636 -0.50766 0)
(5.06624 -0.507901 0)
(5.06621 -0.508248 0)
(5.06629 -0.508431 0)
(5.06634 -0.508392 0)
(5.06636 -0.508354 0)
(5.06635 -0.508373 0)
(5.06636 -0.508371 0)
(5.06637 -0.50837 0)
(5.06639 -0.508433 0)
(5.06652 -0.508463 0)
(5.06666 -0.508423 0)
(5.06677 -0.508301 0)
(5.06681 -0.508238 0)
(5.06685 -0.508186 0)
(5.06689 -0.508035 0)
(5.0667 -0.508063 0)
(5.0666 -0.508127 0)
(5.06666 -0.508215 0)
(5.06682 -0.508204 0)
(5.06693 -0.508147 0)
(5.0671 -0.508054 0)
(5.06734 -0.507857 0)
(5.0676 -0.507685 0)
(5.06793 -0.507187 0)
(5.0681 -0.506951 0)
(5.06812 -0.506988 0)
(5.0681 -0.506607 0)
(5.06801 -0.506558 0)
(5.06776 -0.506745 0)
(5.06793 -0.506016 0)
(5.06813 -0.505249 0)
(5.06824 -0.504932 0)
(5.06825 -0.504207 0)
(5.06794 -0.50252 0)
(5.06699 -0.496701 0)
(5.0645 -0.484922 0)
(5.06075 -0.456876 0)
(5.05489 -0.415071 0)
(5.04927 -0.352919 0)
(5.04029 -0.273229 0)
(5.03624 -0.220448 0)
(5.02914 -0.139008 0)
(5.03579 -0.132038 0)
(5.02168 -0.0822299 0)
(5.01544 -0.0550065 0)
(5.00863 -0.0366964 0)
(5.00399 -0.0186538 0)
(4.99775 -0.00596987 0)
(4.9906 0.0078404 0)
(4.98963 0.00806144 0)
(4.98953 0.00447829 0)
(4.98718 -0.00451136 0)
(4.98703 -0.00601329 0)
(4.98713 -0.00593641 0)
(4.98838 -0.00285099 0)
(4.9886 -6.63962e-05 0)
(4.9898 0.00311008 0)
(4.98968 0.00254556 0)
(4.98892 0.000549406 0)
(4.98816 -0.00375064 0)
(4.98815 -0.00343198 0)
(4.98811 -0.001516 0)
(4.98815 5.34501e-06 0)
(4.98795 9.45995e-05 0)
(4.98742 -0.000811877 0)
(4.98666 -0.000638349 0)
(4.98669 -7.08406e-05 0)
(4.98656 0.000622062 0)
(4.98667 0.00147567 0)
(4.98653 0.000960189 0)
(4.9867 0.000553075 0)
(4.98669 0.000252172 0)
(5.06631 -0.507695 0)
(5.06631 -0.50767 0)
(5.0663 -0.507596 0)
(5.06633 -0.507502 0)
(5.06633 -0.507498 0)
(5.06627 -0.507596 0)
(5.06626 -0.507603 0)
(5.06626 -0.507657 0)
(5.06634 -0.507755 0)
(5.06636 -0.507771 0)
(5.06644 -0.507768 0)
(5.06647 -0.507759 0)
(5.06655 -0.507824 0)
(5.06666 -0.50797 0)
(5.06671 -0.508064 0)
(5.06678 -0.50814 0)
(5.06679 -0.508194 0)
(5.0668 -0.508205 0)
(5.06684 -0.508267 0)
(5.06688 -0.508359 0)
(5.06691 -0.508379 0)
(5.06698 -0.508343 0)
(5.06699 -0.508476 0)
(5.06704 -0.508605 0)
(5.06703 -0.508434 0)
(5.06715 -0.508185 0)
(5.06712 -0.50829 0)
(5.06703 -0.50874 0)
(5.06707 -0.508811 0)
(5.06718 -0.508692 0)
(5.06719 -0.508802 0)
(5.06708 -0.509226 0)
(5.06713 -0.50938 0)
(5.06719 -0.509241 0)
(5.06723 -0.509113 0)
(5.06727 -0.508997 0)
(5.06748 -0.508882 0)
(5.06757 -0.508796 0)
(5.06766 -0.508763 0)
(5.06774 -0.508635 0)
(5.06774 -0.508603 0)
(5.06769 -0.508553 0)
(5.06743 -0.508435 0)
(5.06721 -0.508364 0)
(5.06716 -0.508334 0)
(5.06714 -0.508275 0)
(5.06721 -0.50822 0)
(5.06742 -0.507778 0)
(5.0676 -0.507482 0)
(5.06772 -0.507501 0)
(5.06811 -0.506969 0)
(5.06846 -0.50659 0)
(5.06862 -0.506428 0)
(5.06865 -0.506125 0)
(5.06851 -0.506047 0)
(5.06834 -0.506135 0)
(5.06806 -0.506291 0)
(5.06793 -0.506095 0)
(5.06821 -0.505659 0)
(5.06829 -0.505499 0)
(5.06844 -0.50537 0)
(5.06853 -0.505444 0)
(5.06849 -0.505604 0)
(5.06835 -0.505365 0)
(5.06809 -0.504578 0)
(5.06752 -0.501893 0)
(5.0661 -0.493978 0)
(5.06288 -0.475443 0)
(5.05655 -0.432748 0)
(5.04732 -0.371508 0)
(5.03979 -0.272303 0)
(5.0306 -0.168762 0)
(5.0289 -0.0974908 0)
(5.01483 -0.0139746 0)
(5.02073 0.00626229 0)
(5.0088 0.0581377 0)
(4.99785 0.0416519 0)
(4.99888 0.0147516 0)
(4.99502 -0.00314181 0)
(4.99108 -0.0106568 0)
(4.99135 -0.0103043 0)
(4.99305 -0.00363306 0)
(4.99422 0.00913011 0)
(4.99432 0.0100843 0)
(4.99315 0.00654331 0)
(4.99142 0.00157655 0)
(4.99027 -0.00340946 0)
(4.99011 -0.00344701 0)
(4.9908 -0.00104577 0)
(4.99051 0.00172714 0)
(4.99018 0.00128918 0)
(4.98932 4.91885e-05 0)
(4.98821 -0.00164754 0)
(4.98803 -0.00104373 0)
(4.98829 0.000637741 0)
(4.98785 0.00219412 0)
(4.98771 0.00154355 0)
(4.98756 0.00041065 0)
(4.98778 0.000115809 0)
(4.98763 0.000468581 0)
(5.06746 -0.507714 0)
(5.06745 -0.507718 0)
(5.06744 -0.507735 0)
(5.06741 -0.50783 0)
(5.0674 -0.507901 0)
(5.06738 -0.507919 0)
(5.06738 -0.507944 0)
(5.06741 -0.507958 0)
(5.06746 -0.507959 0)
(5.0675 -0.508002 0)
(5.06754 -0.50809 0)
(5.06758 -0.508129 0)
(5.06761 -0.508112 0)
(5.06763 -0.50809 0)
(5.06764 -0.508122 0)
(5.06763 -0.508147 0)
(5.06763 -0.508124 0)
(5.06764 -0.508104 0)
(5.06763 -0.508099 0)
(5.0676 -0.50809 0)
(5.06748 -0.508129 0)
(5.06733 -0.508241 0)
(5.06732 -0.508256 0)
(5.06734 -0.50824 0)
(5.06736 -0.508259 0)
(5.0674 -0.508318 0)
(5.06746 -0.508261 0)
(5.06755 -0.508255 0)
(5.0674 -0.508445 0)
(5.06731 -0.508578 0)
(5.06729 -0.508788 0)
(5.06736 -0.508935 0)
(5.06737 -0.508945 0)
(5.06738 -0.508731 0)
(5.06746 -0.50852 0)
(5.06751 -0.508424 0)
(5.06765 -0.508445 0)
(5.06779 -0.508599 0)
(5.068 -0.508513 0)
(5.06816 -0.508242 0)
(5.06817 -0.508177 0)
(5.068 -0.508022 0)
(5.06791 -0.507964 0)
(5.0678 -0.507748 0)
(5.06771 -0.507447 0)
(5.06759 -0.507555 0)
(5.06767 -0.507133 0)
(5.0678 -0.506435 0)
(5.06782 -0.506471 0)
(5.06779 -0.506502 0)
(5.06826 -0.505932 0)
(5.06866 -0.505664 0)
(5.06876 -0.505584 0)
(5.06862 -0.505545 0)
(5.06852 -0.505547 0)
(5.0683 -0.505616 0)
(5.06795 -0.505614 0)
(5.06795 -0.505509 0)
(5.06818 -0.505474 0)
(5.06823 -0.505407 0)
(5.06834 -0.505335 0)
(5.06845 -0.50531 0)
(5.06844 -0.505439 0)
(5.06832 -0.505652 0)
(5.06815 -0.505744 0)
(5.06802 -0.505912 0)
(5.06805 -0.506026 0)
(5.06802 -0.505588 0)
(5.06764 -0.504022 0)
(5.06645 -0.499052 0)
(5.06317 -0.480512 0)
(5.05895 -0.454025 0)
(5.04786 -0.36353 0)
(5.04713 -0.327692 0)
(5.03042 -0.187061 0)
(5.03888 -0.171268 0)
(5.02183 -0.10333 0)
(5.0351 -0.0810747 0)
(5.014 -0.0438994 0)
(5.00497 -0.0234784 0)
(5.00182 -0.0102452 0)
(4.99788 0.00364835 0)
(4.99638 0.00491161 0)
(4.99406 0.00287364 0)
(4.99144 -0.00373866 0)
(4.99057 -0.00474072 0)
(4.99051 -0.00440972 0)
(4.991 -0.000461602 0)
(4.99069 0.00174554 0)
(4.99037 0.00174352 0)
(4.98959 0.000167135 0)
(4.98779 -0.00272036 0)
(4.98751 -0.00223873 0)
(4.9878 -0.000326517 0)
(4.98765 0.00122403 0)
(4.98767 0.0012179 0)
(4.98754 0.000277946 0)
(4.98798 -0.000699241 0)
(4.98832 -4.78938e-05 0)
(4.98836 0.000668599 0)
(5.06792 -0.508728 0)
(5.06794 -0.508685 0)
(5.06796 -0.508632 0)
(5.06797 -0.50862 0)
(5.06798 -0.508626 0)
(5.06802 -0.508579 0)
(5.06805 -0.508523 0)
(5.06806 -0.508513 0)
(5.06808 -0.508534 0)
(5.06812 -0.508515 0)
(5.06814 -0.508476 0)
(5.06815 -0.508457 0)
(5.06814 -0.508412 0)
(5.06809 -0.508356 0)
(5.06806 -0.508378 0)
(5.068 -0.508434 0)
(5.06791 -0.50843 0)
(5.06796 -0.508137 0)
(5.06798 -0.507975 0)
(5.0679 -0.507964 0)
(5.06737 -0.508243 0)
(5.0672 -0.508352 0)
(5.06711 -0.508382 0)
(5.0671 -0.50839 0)
(5.06722 -0.508398 0)
(5.06729 -0.508397 0)
(5.06728 -0.508409 0)
(5.0672 -0.508418 0)
(5.06717 -0.508488 0)
(5.06707 -0.508553 0)
(5.06705 -0.508778 0)
(5.06711 -0.508931 0)
(5.06715 -0.508934 0)
(5.06723 -0.508852 0)
(5.06729 -0.508743 0)
(5.0674 -0.508549 0)
(5.06754 -0.508539 0)
(5.0677 -0.508549 0)
(5.06802 -0.508196 0)
(5.06826 -0.507882 0)
(5.06841 -0.507594 0)
(5.06846 -0.507227 0)
(5.06835 -0.506926 0)
(5.06827 -0.506179 0)
(5.06818 -0.506032 0)
(5.06803 -0.506444 0)
(5.06793 -0.506151 0)
(5.06785 -0.50599 0)
(5.06775 -0.506316 0)
(5.0677 -0.506304 0)
(5.0683 -0.505787 0)
(5.06848 -0.505649 0)
(5.06866 -0.505516 0)
(5.06843 -0.505206 0)
(5.06834 -0.505107 0)
(5.06815 -0.504973 0)
(5.06788 -0.504962 0)
(5.06796 -0.505463 0)
(5.06802 -0.50568 0)
(5.06816 -0.505917 0)
(5.06821 -0.505817 0)
(5.06827 -0.505573 0)
(5.06829 -0.505527 0)
(5.0682 -0.505648 0)
(5.06799 -0.505906 0)
(5.06774 -0.506217 0)
(5.0677 -0.50672 0)
(5.06778 -0.506754 0)
(5.06784 -0.506721 0)
(5.06775 -0.506503 0)
(5.06757 -0.506276 0)
(5.06714 -0.50492 0)
(5.06583 -0.499242 0)
(5.06352 -0.48234 0)
(5.0544 -0.429116 0)
(5.05262 -0.379585 0)
(5.02845 -0.199322 0)
(5.04603 -0.181456 0)
(5.01716 -0.0120411 0)
(5.01567 -0.0110598 0)
(5.00886 0.0585144 0)
(4.99593 0.0358004 0)
(4.99029 0.00576597 0)
(4.99241 -0.00242678 0)
(4.99041 -0.00752092 0)
(4.99003 -0.00650711 0)
(4.98905 -0.000283176 0)
(4.98808 0.00817948 0)
(4.98754 0.006736 0)
(4.98666 0.0017213 0)
(4.98575 -0.00223966 0)
(4.98555 -0.00212699 0)
(4.98583 0.000390174 0)
(4.98581 0.00274598 0)
(4.9857 0.00193637 0)
(4.98611 -0.000211042 0)
(4.98629 -0.00125431 0)
(4.98677 -0.00105471 0)
(4.98781 0.000377155 0)
(4.98802 0.000658941 0)
(5.06794 -0.50772 0)
(5.06797 -0.507679 0)
(5.068 -0.507632 0)
(5.068 -0.507587 0)
(5.068 -0.507579 0)
(5.06801 -0.507536 0)
(5.06804 -0.507489 0)
(5.06812 -0.507493 0)
(5.06823 -0.507473 0)
(5.0683 -0.507569 0)
(5.06828 -0.507655 0)
(5.06833 -0.507595 0)
(5.06833 -0.507429 0)
(5.06828 -0.507337 0)
(5.06828 -0.507535 0)
(5.0682 -0.507732 0)
(5.06823 -0.50737 0)
(5.06823 -0.507118 0)
(5.06816 -0.507055 0)
(5.06773 -0.507001 0)
(5.06753 -0.506991 0)
(5.06742 -0.507117 0)
(5.06727 -0.507434 0)
(5.06716 -0.507595 0)
(5.06731 -0.507554 0)
(5.06744 -0.50728 0)
(5.06728 -0.507087 0)
(5.06715 -0.507137 0)
(5.06693 -0.507453 0)
(5.06687 -0.507596 0)
(5.06688 -0.507637 0)
(5.06698 -0.507583 0)
(5.06707 -0.507682 0)
(5.06718 -0.507591 0)
(5.06741 -0.507157 0)
(5.06755 -0.50695 0)
(5.06767 -0.506945 0)
(5.06793 -0.506594 0)
(5.06847 -0.506082 0)
(5.06856 -0.506034 0)
(5.06866 -0.50581 0)
(5.0686 -0.505662 0)
(5.06857 -0.505161 0)
(5.06839 -0.504597 0)
(5.06821 -0.504604 0)
(5.06808 -0.504851 0)
(5.06796 -0.505004 0)
(5.06791 -0.505136 0)
(5.06787 -0.505489 0)
(5.06786 -0.505603 0)
(5.06825 -0.505244 0)
(5.06832 -0.505164 0)
(5.06846 -0.505051 0)
(5.06833 -0.504647 0)
(5.0682 -0.504319 0)
(5.06795 -0.504109 0)
(5.06789 -0.504452 0)
(5.06785 -0.505166 0)
(5.06809 -0.505821 0)
(5.06831 -0.506525 0)
(5.06812 -0.506532 0)
(5.06795 -0.506196 0)
(5.06794 -0.505975 0)
(5.06793 -0.505871 0)
(5.0678 -0.505911 0)
(5.06756 -0.506204 0)
(5.06741 -0.506711 0)
(5.06748 -0.506988 0)
(5.06754 -0.506979 0)
(5.06754 -0.506895 0)
(5.06744 -0.506677 0)
(5.06726 -0.506658 0)
(5.06717 -0.506564 0)
(5.06705 -0.506154 0)
(5.06663 -0.504387 0)
(5.06542 -0.496672 0)
(5.06122 -0.474079 0)
(5.05519 -0.422583 0)
(5.04236 -0.318768 0)
(5.03999 -0.263481 0)
(5.02591 -0.129023 0)
(5.04471 -0.134259 0)
(5.01114 -0.0551396 0)
(5.00352 -0.036249 0)
(5.00216 -0.0213425 0)
(4.98755 -0.00559332 0)
(4.98166 0.00957414 0)
(4.98066 0.00600838 0)
(4.98072 -0.00110751 0)
(4.98186 -0.00518133 0)
(4.98227 -0.00408191 0)
(4.98312 7.17824e-05 0)
(4.98375 0.00285388 0)
(4.98348 0.0022039 0)
(4.98326 -0.0014123 0)
(4.98365 -0.00404073 0)
(4.98392 -0.00272747 0)
(4.98536 -0.000215086 0)
(4.98599 0.000410361 0)
(4.98711 0.000311318 0)
(5.06763 -0.507951 0)
(5.06766 -0.507887 0)
(5.06771 -0.507859 0)
(5.06777 -0.507849 0)
(5.06777 -0.50788 0)
(5.06775 -0.507925 0)