/*--------------------------------*- C++ -*----------------------------------*\
  =========                 |
  \\      /  F ield         | OpenFOAM: The Open Source CFD Toolbox
   \\    /   O peration     | Website:  https://openfoam.org
    \\  /    A nd           | Version:  7
     \\/     M anipulation  |
\*---------------------------------------------------------------------------*/
FoamFile
{
    version     2.0;
    format      ascii;
    class       volScalarField;
    location    "7";
    object      p;
}
// * * * * * * * * * * * * * * * * * * * * * * * * * * * * * * * * * * * * * //

dimensions      [1 -1 -2 0 0 0 0];

internalField   nonuniform List<scalar> 
24000
(
0.431891
0.466144
0.504135
0.543092
0.582569
0.622692
0.663159
0.70383
0.743956
0.783347
0.819874
0.855936
0.88494
0.915682
0.936403
0.958885
0.972745
0.98541
0.994226
0.999599
1.00149
1.00282
1.00105
0.995923
0.986107
0.979275
0.983309
0.98959
0.996418
1.00337
1.00391
0.999886
0.992721
0.98811
0.989565
0.995462
1.00009
0.998442
0.993781
0.993155
0.995302
0.997764
0.996131
0.994887
0.995939
0.997073
0.997132
0.997144
0.997155
0.996567
0.404134
0.404244
0.404581
0.405376
0.406986
0.410047
0.415007
0.423006
0.434534
0.451273
0.473907
0.502883
0.54047
0.582552
0.634499
0.687139
0.743513
0.79922
0.84501
0.893959
0.921658
0.948763
0.962122
0.970398
0.972353
0.984681
0.995629
1.00405
1.00878
1.00864
1.00418
0.993474
0.987967
0.988442
0.993528
1.00032
0.99996
0.995181
0.992183
0.993853
0.99824
0.997792
0.994028
0.994082
0.996266
0.997611
0.997184
0.997181
0.997102
0.996066
0.403568
0.403527
0.403432
0.403361
0.403405
0.403383
0.403308
0.40328
0.403272
0.40339
0.403826
0.404768
0.406729
0.410075
0.41707
0.428105
0.448364
0.477024
0.521407
0.575668
0.645975
0.721011
0.79533
0.87062
0.928313
0.971872
0.986782
0.996877
1.00151
1.00066
0.989342
0.986442
0.988854
0.996003
1.00157
1.00077
0.995397
0.991723
0.992676
0.998919
0.999521
0.995523
0.992963
0.994603
0.99769
0.997435
0.997128
0.997433
0.997056
0.995881
0.403525
0.403506
0.403533
0.403552
0.403516
0.403454
0.403401
0.403348
0.40327
0.403255
0.403236
0.403205
0.40314
0.403069
0.403113
0.403252
0.403544
0.404201
0.406281
0.410717
0.421989
0.442462
0.483411
0.54261
0.629541
0.725312
0.810956
0.888581
0.925789
0.957471
0.96533
0.98781
1.00112
1.01016
1.00601
0.994789
0.988775
0.991283
1.00007
1.00372
0.999143
0.991698
0.992321
0.997153
0.998399
0.996796
0.997275
0.997596
0.996528
0.995321
0.403754
0.40378
0.403842
0.403877
0.403862
0.403832
0.403797
0.403782
0.403768
0.403784
0.403847
0.403903
0.403974
0.404053
0.404121
0.404223
0.404335
0.404483
0.404363
0.404108
0.403974
0.404113
0.40504
0.408227
0.419482
0.444604
0.500804
0.585706
0.695122
0.81162
0.905439
0.971814
0.985669
0.998476
0.995958
0.981269
0.98611
0.99927
1.00673
1.00375
0.990927
0.988695
0.995161
0.99885
0.99722
0.996315
0.997854
0.997726
0.995886
0.995405
0.404074
0.404159
0.404213
0.404255
0.4043
0.404342
0.404396
0.404469
0.404557
0.404705
0.404863
0.404884
0.404909
0.405005
0.405123
0.405203
0.405263
0.405262
0.405184
0.405035
0.404844
0.404621
0.404285
0.404052
0.40382
0.403908
0.405504
0.41225
0.43844
0.493215
0.599081
0.731332
0.831003
0.927316
0.945031
0.966171
0.99624
1.01359
1.01136
0.993939
0.985274
0.992208
1.00184
1.00031
0.995241
0.996148
0.998706
0.997482
0.995049
0.995274
0.403834
0.403871
0.403923
0.404038
0.404207
0.404365
0.404487
0.404654
0.404893
0.405096
0.405281
0.405408
0.405497
0.405581
0.405612
0.405644
0.405685
0.405608
0.405469
0.405298
0.405088
0.404832
0.404464
0.404037
0.403612
0.40302
0.402333
0.402249
0.402677
0.404902
0.416811
0.449744
0.537358
0.664415
0.8038
0.934296
0.981804
1.00377
0.997068
0.97676
0.984853
1.00266
1.003
0.996697
0.994286
0.997762
0.998973
0.996753
0.994646
0.995541
0.403819
0.403883
0.403945
0.404222
0.404335
0.404349
0.404448
0.404726
0.404947
0.405068
0.405222
0.405377
0.405478
0.405584
0.405678
0.405655
0.405523
0.405325
0.405171
0.404997
0.404798
0.404573
0.40428
0.403912
0.403498
0.40293
0.402162
0.401759
0.40181
0.402281
0.403384
0.405097
0.410944
0.430558
0.502561
0.630275
0.771075
0.89419
0.941087
0.964776
1.00798
1.01406
1.00434
0.98915
0.993837
1.00099
0.999388
0.993938
0.994353
0.996055
0.403888
0.403944
0.40401
0.404145
0.404248
0.404366
0.404543
0.404707
0.404828
0.404979
0.4052
0.405344
0.405473
0.40568
0.405728
0.405623
0.405394
0.405145
0.404999
0.404839
0.404624
0.404398
0.404177
0.40401
0.403828
0.403449
0.402624
0.401997
0.402049
0.402519
0.403499
0.404749
0.405242
0.405593
0.408288
0.423341
0.485432
0.611218
0.796929
0.929974
1.00235
1.00076
0.980283
0.986594
1.00211
1.00212
0.994918
0.992338
0.995269
0.996485
0.403186
0.403167
0.403146
0.403119
0.403149
0.403224
0.403223
0.403181
0.40316
0.403162
0.403238
0.40337
0.403522
0.403794
0.403921
0.403813
0.40365
0.403562
0.403587
0.403659
0.403834
0.404037
0.404333
0.404755
0.404895
0.40486
0.404308
0.403356
0.403055
0.403123
0.403568
0.404073
0.404265
0.404199
0.404014
0.404173
0.406046
0.421706
0.488212
0.638203
0.830419
0.905618
0.954672
0.998077
1.01157
1.00306
0.988182
0.991679
0.997805
0.99679
0.401528
0.401532
0.401593
0.401626
0.401616
0.401582
0.401553
0.401534
0.401525
0.401606
0.401759
0.401805
0.401847
0.402077
0.402533
0.402731
0.402725
0.402702
0.402794
0.40302
0.403422
0.404078
0.404849
0.405655
0.405998
0.405997
0.405739
0.404937
0.403968
0.40368
0.403715
0.403483
0.403125
0.402848
0.402892
0.403774
0.404037
0.404101
0.406232
0.429902
0.511021
0.687834
0.89307
0.977242
1.0026
0.978507
0.983762
0.998321
0.99879
0.995311
0.401004
0.400994
0.401084
0.401132
0.401145
0.401106
0.401047
0.401066
0.401183
0.401523
0.401709
0.401677
0.401665
0.401804
0.402294
0.402812
0.40277
0.402665
0.402747
0.403038
0.403399
0.40419
0.405337
0.406136
0.40641
0.40641
0.40618
0.40547
0.404318
0.403751
0.403681
0.403346
0.402443
0.402146
0.402291
0.403624
0.405041
0.405264
0.404943
0.405037
0.408714
0.446271
0.565132
0.740174
0.911042
0.941599
0.994122
1.0048
0.997133
0.993347
0.401397
0.401543
0.40178
0.401971
0.40211
0.402263
0.40249
0.402647
0.402845
0.403177
0.403329
0.403448
0.403565
0.403646
0.403834
0.40428
0.404369
0.404118
0.403783
0.403589
0.403616
0.403868
0.404467
0.40498
0.405296
0.405733
0.406052
0.405689
0.404648
0.404139
0.404155
0.403674
0.402463
0.402165
0.402405
0.404099
0.405878
0.406156
0.406041
0.405417
0.404477
0.405081
0.414228
0.477634
0.64193
0.845827
0.990325
0.992205
0.981681
0.992282
0.405781
0.405917
0.405967
0.406011
0.405973
0.405845
0.405826
0.40589
0.40601
0.405967
0.405745
0.405624
0.405577
0.405473
0.40504
0.404633
0.404472
0.404063
0.403096
0.402643
0.402669
0.402326
0.40145
0.401338
0.401438
0.402248
0.404027
0.404342
0.403576
0.403232
0.403617
0.403714
0.402772
0.402144
0.402654
0.40438
0.406058
0.406339
0.406252
0.40525
0.403299
0.402657
0.40303
0.405722
0.42972
0.551225
0.776152
0.881153
0.958671
0.999916
0.408475
0.408326
0.408116
0.407816
0.407237
0.406322
0.405904
0.405851
0.405829
0.405721
0.405598
0.405451
0.405373
0.405474
0.405474
0.405225
0.404797
0.404028
0.402923
0.402437
0.402396
0.401718
0.39926
0.398063
0.3981
0.399013
0.401719
0.403043
0.402931
0.402843
0.403058
0.403912
0.40416
0.404042
0.40417
0.40446
0.404734
0.405184
0.405073
0.403975
0.402307
0.401909
0.402304
0.403303
0.404819
0.41514
0.475955
0.669395
0.892639
0.986713
0.407067
0.406226
0.404891
0.403503
0.402385
0.401509
0.401265
0.401281
0.401736
0.402015
0.402016
0.402229
0.40284
0.402999
0.403035
0.403067
0.402944
0.402276
0.40183
0.401961
0.402504
0.402377
0.40003
0.397279
0.396704
0.397368
0.400373
0.403221
0.403598
0.403596
0.403856
0.405434
0.406843
0.406901
0.405869
0.403485
0.401985
0.401884
0.402035
0.401768
0.401088
0.400897
0.401562
0.40434
0.405844
0.405115
0.406429
0.443104
0.569656
0.835208
0.410017
0.408889
0.405988
0.405294
0.405073
0.404919
0.405119
0.405992
0.406435
0.406596
0.406889
0.407287
0.40779
0.408242
0.408217
0.408083
0.408101
0.408427
0.409888
0.414025
0.418009
0.418493
0.417188
0.413841
0.409834
0.407433
0.407258
0.407581
0.407696
0.407691
0.407751
0.408462
0.410497
0.411052
0.409697
0.405006
0.401842
0.401495
0.401588
0.401856
0.402088
0.403009
0.404993
0.406755
0.405966
0.403791
0.40164
0.40257
0.414896
0.605084
0.442074
0.438604
0.435354
0.43537
0.435135
0.432499
0.431138
0.431235
0.43091
0.429692
0.429005
0.428753
0.429751
0.430599
0.430331
0.428724
0.427837
0.427641
0.428198
0.432341
0.436752
0.437114
0.435221
0.433034
0.430795
0.428029
0.425122
0.422501
0.41906
0.417373
0.416356
0.413684
0.412152
0.411536
0.411066
0.410127
0.407512
0.405301
0.405363
0.407917
0.410726
0.411651
0.410771
0.408695
0.404518
0.40272
0.401575
0.40291
0.404324
0.440333
0.483074
0.483277
0.482403
0.480985
0.480751
0.477981
0.474511
0.47478
0.473538
0.471004
0.471798
0.471823
0.470525
0.468611
0.466923
0.465699
0.463929
0.461273
0.457403
0.454436
0.451932
0.448179
0.446424
0.446561
0.448142
0.450083
0.451566
0.451697
0.449169
0.444406
0.440743
0.436249
0.431511
0.430813
0.431914
0.434449
0.434871
0.433442
0.430319
0.428118
0.425824
0.422855
0.417792
0.412544
0.406436
0.406496
0.408189
0.411787
0.410665
0.409127
0.53625
0.5346
0.53467
0.534997
0.533419
0.533332
0.535076
0.535284
0.533451
0.531823
0.531538
0.531004
0.531177
0.532434
0.53146
0.529306
0.528185
0.527395
0.526184
0.522564
0.516276
0.514519
0.512536
0.507727
0.503439
0.499103
0.497866
0.498598
0.496922
0.493899
0.493176
0.49056
0.483691
0.47825
0.475088
0.470965
0.465649
0.460024
0.454789
0.448091
0.441327
0.435218
0.430945
0.427633
0.4284
0.429636
0.427918
0.423932
0.416795
0.409089
0.620912
0.620463
0.618501
0.616431
0.61492
0.614825
0.615072
0.612498
0.61021
0.608999
0.606781
0.603697
0.601312
0.599315
0.596783
0.594482
0.591718
0.587127
0.586262
0.585705
0.582163
0.580983
0.581141
0.579142
0.573885
0.567378
0.563999
0.559888
0.548982
0.541011
0.53942
0.535211
0.530669
0.52661
0.520057
0.512589
0.504912
0.497591
0.492642
0.488353
0.483085
0.477503
0.475019
0.471189
0.466124
0.458268
0.44891
0.439338
0.430803
0.426775
0.71387
0.710812
0.708549
0.708186
0.709738
0.710734
0.709538
0.706047
0.701669
0.701226
0.7014
0.699838
0.695191
0.693296
0.691991
0.689987
0.686517
0.682159
0.677955
0.674257
0.670198
0.665097
0.660274
0.655913
0.648766
0.642609
0.641058
0.638839
0.632321
0.624785
0.617554
0.605578
0.599841
0.596275
0.59042
0.581246
0.572972
0.565653
0.557506
0.549754
0.54032
0.53043
0.519586
0.508967
0.497129
0.485066
0.475859
0.466307
0.465127
0.457705
0.827885
0.826944
0.824147
0.820327
0.818592
0.81917
0.819245
0.817197
0.812197
0.809189
0.809272
0.808169
0.802728
0.797881
0.796101
0.793744
0.789861
0.785239
0.780596
0.775817
0.771041
0.765892
0.760109
0.754745
0.748923
0.741839
0.734229
0.72623
0.717142
0.708121
0.701541
0.693397
0.684888
0.672418
0.661394
0.651467
0.641484
0.629914
0.618688
0.606052
0.594309
0.581778
0.570001
0.558067
0.546477
0.53723
0.528535
0.520389
0.510317
0.491853
0.942349
0.940474
0.937132
0.934485
0.934526
0.935221
0.934386
0.931505
0.926119
0.925008
0.924936
0.922738
0.916193
0.912951
0.911674
0.908873
0.90433
0.899481
0.894677
0.889803
0.884123
0.877593
0.871158
0.864667
0.85748
0.849502
0.840844
0.832362
0.823231
0.812997
0.802332
0.789534
0.778607
0.768429
0.754687
0.740742
0.727849
0.714589
0.700569
0.686177
0.672334
0.657907
0.644577
0.629974
0.616192
0.600568
0.585447
0.568424
0.551944
0.528482
1.02405
1.02354
1.02242
1.02034
1.01941
1.01959
1.01939
1.01817
1.0152
1.01424
1.01381
1.01226
1.00945
1.00742
1.00557
1.00322
1.00042
0.997284
0.993822
0.990166
0.985991
0.981284
0.976127
0.970541
0.964264
0.957223
0.94967
0.941117
0.93198
0.921537
0.91042
0.899209
0.886092
0.872128
0.858111
0.842773
0.826295
0.809814
0.792147
0.774644
0.756048
0.737831
0.71867
0.699624
0.680764
0.66111
0.642628
0.622931
0.607599
0.58393
1.05207
1.05194
1.0518
1.05163
1.05132
1.05116
1.05113
1.05104
1.0508
1.05048
1.05027
1.05005
1.04971
1.04925
1.04872
1.0481
1.04732
1.04634
1.04515
1.0439
1.04254
1.04084
1.03886
1.03653
1.03382
1.03057
1.02666
1.02205
1.01654
1.01031
1.00304
0.994402
0.98488
0.973703
0.961063
0.946864
0.931283
0.914148
0.895499
0.875719
0.854821
0.833484
0.81119
0.788952
0.766195
0.744323
0.722618
0.70066
0.68193
0.648979
1.05593
1.05586
1.05573
1.0557
1.05567
1.05562
1.05564
1.05564
1.05552
1.05539
1.05538
1.05535
1.05523
1.05502
1.05489
1.05482
1.05475
1.05467
1.05467
1.05467
1.05461
1.05455
1.05453
1.05448
1.05431
1.05402
1.05343
1.05243
1.0511
1.04944
1.04732
1.04456
1.04113
1.03688
1.03126
1.02389
1.01473
1.00357
0.989941
0.973629
0.955035
0.934151
0.911232
0.886662
0.860485
0.833885
0.806523
0.778987
0.753804
0.712972
1.05536
1.05534
1.05532
1.05529
1.05527
1.05526
1.05526
1.05529
1.05528
1.05522
1.05514
1.05511
1.05515
1.05516
1.05525
1.0553
1.05523
1.05534
1.05535
1.05515
1.05487
1.05466
1.05453
1.05456
1.05472
1.05492
1.05504
1.0551
1.05527
1.0553
1.05521
1.05492
1.05447
1.05384
1.05306
1.05193
1.05011
1.04726
1.04296
1.03656
1.02752
1.01536
0.999854
0.980575
0.957852
0.931686
0.903439
0.872664
0.844638
0.798194
1.04991
1.04999
1.05003
1.05001
1.04991
1.04991
1.05013
1.05033
1.05047
1.05066
1.05072
1.05089
1.05142
1.05168
1.05172
1.05191
1.05233
1.05256
1.0527
1.05293
1.05312
1.05327
1.05343
1.05342
1.0533
1.05339
1.05351
1.05362
1.05382
1.0542
1.05464
1.05477
1.05463
1.05451
1.05453
1.05448
1.05426
1.05409
1.05387
1.05338
1.05218
1.0498
1.04555
1.03866
1.02799
1.01274
0.992409
0.966489
0.939601
0.888757
1.03521
1.03536
1.0357
1.03609
1.03632
1.03626
1.03624
1.03648
1.03705
1.03762
1.03765
1.03773
1.03831
1.03893
1.03915
1.03948
1.04
1.04045
1.04086
1.04133
1.0419
1.04256
1.04326
1.04393
1.04463
1.04542
1.04624
1.04701
1.04759
1.04817
1.04891
1.04975
1.05043
1.05101
1.05183
1.05254
1.05273
1.05293
1.05328
1.05338
1.05339
1.05332
1.0531
1.05256
1.05132
1.0484
1.04244
1.03168
1.01682
0.978154
1.01375
1.01386
1.01399
1.01417
1.01434
1.01461
1.01502
1.01506
1.01517
1.01555
1.01624
1.01646
1.01655
1.0169
1.01755
1.01807
1.01853
1.01908
1.01975
1.02049
1.02129
1.02209
1.02297
1.02397
1.02499
1.02613
1.02736
1.0287
1.03009
1.03155
1.03313
1.03474
1.03656
1.03849
1.04013
1.04177
1.04381
1.04544
1.04709
1.04851
1.04975
1.05086
1.05156
1.05215
1.05212
1.05204
1.05174
1.05071
1.04823
1.03432
1.00193
1.00197
1.00205
1.00212
1.00212
1.00215
1.00222
1.00237
1.00244
1.00246
1.00254
1.00269
1.00283
1.00296
1.00312
1.00329
1.00348
1.00369
1.00394
1.00423
1.00457
1.00494
1.00536
1.00583
1.00639
1.00702
1.00776
1.00859
1.00956
1.01065
1.01191
1.01336
1.01501
1.01684
1.01896
1.02123
1.02374
1.02659
1.02942
1.03256
1.03569
1.03876
1.0417
1.04454
1.04674
1.04843
1.04994
1.05035
1.05028
1.049
1.00007
1.00008
1.00008
1.00008
1.00009
1.00009
1.00009
1.0001
1.00011
1.00011
1.00012
1.00013
1.00014
1.00015
1.00016
1.00017
1.00019
1.00021
1.00023
1.00026
1.00029
1.00033
1.00038
1.00044
1.00051
1.0006
1.00071
1.00085
1.00103
1.00125
1.00153
1.00188
1.00234
1.00293
1.00366
1.00461
1.00581
1.00731
1.00918
1.01147
1.01423
1.01749
1.02121
1.0253
1.02974
1.03427
1.0384
1.04224
1.04533
1.04761
1
1
1
1
1
1
1
1
1
1
1
1
1
1
1
1
1
1
1
1
1.00001
1.00001
1.00001
1.00001
1.00001
1.00001
1.00002
1.00002
1.00003
1.00004
1.00006
1.00008
1.0001
1.00015
1.00021
1.0003
1.00045
1.00066
1.00097
1.00145
1.00215
1.00317
1.00462
1.00667
1.00943
1.01298
1.01744
1.02264
1.02786
1.03599
1
1
1
1
1
1
1
1
1
1
1
1
1
1
1
1
1
1
1
1
1
1
1
1
1
1
1
1
1
1
1
1
1
1
1
1.00001
1.00001
1.00002
1.00003
1.00005
1.00009
1.00017
1.00032
1.00057
1.00104
1.00184
1.00318
1.00537
1.00824
1.01566
1
1
1
1
1
1
1
1
1
1
1
1
1
1
1
1
1
1
1
1
1
1
1
1
1
1
1
1
1
1
1
1
1
1
1
1
1
1
1
1
1
1
1.00001
1.00001
1.00003
1.00008
1.00018
1.00041
1.00083
1.00289
1
1
1
1
1
1
1
1
1
1
1
1
1
1
1
1
1
1
1
1
1
1
1
1
1
1
1
1
1
1
1
1
1
1
1
1
1
1
1
1
1
1
1
1
1
1
1
1.00001
1.00003
1.0002
1
1
1
1
1
1
1
1
1
1
1
1
1
1
1
1
1
1
1
1
1
1
1
1
1
1
1
1
1
1
1
1
1
1
1
1
1
1
1
1
1
1
1
1
1
1
1
1
1
1.00001
1
1
1
1
1
1
1
1
1
1
1
1
1
1
1
1
1
1
1
1
1
1
1
1
1
1
1
1
1
1
1
1
1
1
1
1
1
1
1
1
1
1
1
1
1
1
1
1
1
1
1
1
1
1
1
1
1
1
1
1
1
1
1
1
1
1
1
1
1
1
1
1
1
1
1
1
1
1
1
1
1
1
1
1
1
1
1
1
1
1
1
1
1
1
1
1
1
1
1
1
0.404683
0.404147
0.403624
0.403565
0.403745
0.403981
0.403777
0.403727
0.403784
0.403215
0.401655
0.401332
0.401369
0.405307
0.408539
0.407537
0.410173
0.442468
0.482809
0.5383
0.620745
0.717113
0.829248
0.943742
1.02476
1.05222
1.05597
1.05536
1.04976
1.03505
1.01359
1.00188
1.00007
1
1
1
1
1
1
1
0.404715
0.404143
0.403655
0.403635
0.403764
0.403895
0.403699
0.403631
0.403632
0.403198
0.401894
0.401764
0.401834
0.404999
0.408432
0.407657
0.410091
0.44264
0.483521
0.540033
0.622563
0.720085
0.833186
0.946467
1.02602
1.05249
1.05604
1.05531
1.04956
1.03472
1.0132
1.00179
1.00007
1
1
1
1
1
1
1
0.404724
0.404125
0.403677
0.403675
0.40378
0.403827
0.403604
0.403552
0.403531
0.40318
0.402108
0.40202
0.40252
0.404833
0.407772
0.406931
0.40879
0.441138
0.484378
0.541534
0.626452
0.722444
0.835721
0.949007
1.02698
1.05275
1.05613
1.05525
1.04941
1.03439
1.01283
1.00173
1.00006
1
1
1
1
1
1
1
0.404732
0.404123
0.403687
0.403676
0.403768
0.403768
0.403509
0.403455
0.403469
0.40316
0.402256
0.40217
0.402746
0.404722
0.406877
0.406051
0.408257
0.439623
0.486546
0.544178
0.629572
0.725143
0.837633
0.95143
1.02821
1.05306
1.05622
1.05521
1.04916
1.03399
1.01255
1.00166
1.00006
1
1
1
1
1
1
1
0.404741
0.404134
0.403696
0.403637
0.403751
0.403715
0.403433
0.403354
0.403427
0.403181
0.402397
0.402261
0.402726
0.404606
0.406477
0.405834
0.408486
0.439498
0.487982
0.546865
0.631515
0.727724
0.840775
0.954041
1.03006
1.05334
1.05628
1.05516
1.04895
1.03354
1.01228
1.00158
1.00006
1
1
1
1
1
1
1
0.404746
0.404137
0.403703
0.403613
0.403759
0.403663
0.403355
0.403278
0.403409
0.403278
0.402567
0.402285
0.402577
0.404306
0.406347
0.405896
0.409428
0.440308
0.488845
0.548152
0.633756
0.73137
0.845472
0.957373
1.03168
1.05359
1.05632
1.0551
1.04893
1.03318
1.01196
1.00149
1.00005
1
1
1
1
1
1
1
0.404746
0.404128
0.403699
0.403615
0.403771
0.403605
0.403267
0.403206
0.403422
0.403403
0.402824
0.402272
0.402224
0.403304
0.406202
0.406175
0.409933
0.441269
0.489791
0.548676
0.636096
0.735346
0.849595
0.960987
1.03302
1.05382
1.05633
1.05502
1.04904
1.03283
1.01154
1.00141
1.00005
1
1
1
1
1
1
1
0.404715
0.404094
0.403694
0.403625
0.403784
0.403546
0.403179
0.403126
0.403444
0.403543
0.40322
0.402296
0.402071
0.402616
0.40582
0.407032
0.409838
0.44215
0.491691
0.549926
0.639167
0.73893
0.853618
0.964651
1.03436
1.05406
1.05632
1.05492
1.04907
1.03241
1.01113
1.00133
1.00004
1
1
1
1
1
1
1
0.404646
0.404058
0.403702
0.403658
0.403798
0.403485
0.403096
0.403058
0.403479
0.403664
0.403631
0.402674
0.402174
0.402398
0.405175
0.407565
0.409732
0.44449
0.492916
0.554703
0.643106
0.742715
0.857908
0.968052
1.03575
1.05428
1.05628
1.05483
1.0489
1.03181
1.01076
1.00125
1.00004
1
1
1
1
1
1
1
0.404603
0.404038
0.403727
0.403721
0.4038
0.403423
0.403012
0.403002
0.403543
0.403774
0.403971
0.403449
0.402572
0.402387
0.404822
0.407597
0.409826
0.446542
0.492267
0.558426
0.646621
0.746847
0.862346
0.971318
1.03725
1.05449
1.05624
1.05474
1.04854
1.03121
1.01039
1.00117
1.00004
1
1
1
1
1
1
1
0.404552
0.404021
0.403762
0.403761
0.403777
0.403362
0.402935
0.402955
0.40363
0.403905
0.404265
0.403919
0.402915
0.402441
0.404673
0.407202
0.410712
0.447588
0.491153
0.560862
0.649781
0.751494
0.866942
0.974811
1.03875
1.05469
1.05612
1.05465
1.04827
1.03067
1.00999
1.0011
1.00003
1
1
1
1
1
1
1
0.404478
0.404002
0.403784
0.403772
0.403761
0.403301
0.402871
0.402914
0.40374
0.404122
0.404556
0.404221
0.403088
0.402434
0.404597
0.406604
0.413416
0.44914
0.49165
0.564359
0.653238
0.756225
0.871853
0.978787
1.04018
1.05489
1.05593
1.05453
1.04805
1.03015
1.00958
1.00102
1.00003
1
1
1
1
1
1
1
0.40439
0.403986
0.403791
0.403757
0.403765
0.403253
0.402823
0.40288
0.40385
0.40443
0.40489
0.404536
0.403212
0.402307
0.404474
0.406553
0.416308
0.453057
0.496076
0.569028
0.657151
0.760893
0.877102
0.982989
1.04157
1.05509
1.05584
1.05428
1.0477
1.02958
1.00916
1.00094
1.00003
1
1
1
1
1
1
1
0.404278
0.403942
0.403767
0.403755
0.403781
0.403235
0.402796
0.402853
0.403928
0.404711
0.405296
0.404921
0.403355
0.401917
0.404075
0.407309
0.418205
0.457982
0.501828
0.573477
0.661196
0.765681
0.882566
0.98699
1.04292
1.05528
1.0558
1.05391
1.04724
1.02895
1.00874
1.00087
1.00002
1
1
1
1
1
1
1
0.404125
0.403839
0.403702
0.403813
0.403814
0.403232
0.402789
0.40284
0.403998
0.404974
0.405751
0.405378
0.403523
0.401444
0.403468
0.407592
0.419445
0.461333
0.503366
0.577274
0.665009
0.770921
0.888259
0.99092
1.04424
1.05544
1.05578
1.0536
1.04679
1.02828
1.00831
1.0008
1.00002
1
1
1
1
1
1
1
0.403916
0.403749
0.403676
0.403933
0.403851
0.403233
0.402788
0.402845
0.404135
0.40529
0.40622
0.405834
0.403655
0.400958
0.402862
0.407319
0.420365
0.463492
0.503246
0.58078
0.668801
0.777038
0.894288
0.995041
1.04551
1.05557
1.05575
1.05334
1.04633
1.02759
1.00787
1.00072
1.00002
1
1
1
1
1
1
1
0.403643
0.403673
0.403683
0.404011
0.40387
0.403236
0.402791
0.402956
0.404372
0.405644
0.406633
0.406172
0.403661
0.400448
0.402139
0.406614
0.421129
0.465191
0.501805
0.584886
0.673422
0.783869
0.900608
0.999373
1.04673
1.05567
1.05574
1.05307
1.04582
1.02686
1.00743
1.00066
1.00002
1
1
1
1
1
1
1
0.403331
0.403588
0.403706
0.404063
0.403875
0.403237
0.402846
0.403192
0.404556
0.405871
0.406882
0.406317
0.403417
0.399872
0.401224
0.406325
0.42188
0.466676
0.502587
0.59027
0.679828
0.790699
0.9071
1.00368
1.04791
1.05577
1.05576
1.05291
1.04527
1.02608
1.00698
1.00059
1.00001
1
1
1
1
1
1
1
0.403077
0.403476
0.403716
0.404098
0.40389
0.403254
0.403012
0.403414
0.404595
0.40592
0.406953
0.406327
0.403049
0.399178
0.400345
0.406424
0.422731
0.467478
0.509577
0.597162
0.687185
0.797455
0.913855
1.00786
1.04904
1.05588
1.05585
1.05293
1.04472
1.02526
1.00652
1.00053
1.00001
1
1
1
1
1
1
1
0.402901
0.403395
0.403723
0.404135
0.40393
0.403322
0.403205
0.403567
0.404579
0.405906
0.406948
0.406228
0.402569
0.398364
0.399882
0.407065
0.423947
0.4675
0.519699
0.604731
0.694139
0.804474
0.920982
1.0121
1.05012
1.05597
1.0559
1.05309
1.04415
1.02439
1.00606
1.00046
1.00001
1
1
1
1
1
1
1
0.402787
0.403351
0.403777
0.404187
0.40397
0.403494
0.403381
0.403668
0.404512
0.405852
0.406906
0.406081
0.401967
0.397574
0.399817
0.408115
0.426042
0.46788
0.528139
0.611385
0.701025
0.812202
0.928448
1.01639
1.05111
1.05603
1.05586
1.05306
1.04352
1.02348
1.0056
1.00041
1.00001
1
1
1
1
1
1
1
0.402691
0.403327
0.403884
0.404264
0.404041
0.403717
0.403575
0.403746
0.404336
0.405727
0.406832
0.405953
0.401475
0.397107
0.399868
0.409979
0.428951
0.472318
0.534332
0.61641
0.708235
0.820649
0.936126
1.02058
1.05201
1.05607
1.0557
1.05276
1.04283
1.02253
1.00514
1.00035
1.00001
1
1
1
1
1
1
1
0.402618
0.403259
0.403912
0.404327
0.40421
0.403954
0.40379
0.403822
0.404135
0.405514
0.406703
0.405832
0.401162
0.397003
0.400004
0.412652
0.432154
0.479252
0.539682
0.620396
0.715944
0.829539
0.94398
1.02465
1.05282
1.0561
1.05555
1.05261
1.04211
1.02153
1.00469
1.00031
1.00001
1
1
1
1
1
1
1
0.40259
0.40319
0.403893
0.404356
0.404371
0.404149
0.403983
0.403893
0.404023
0.405327
0.406477
0.405625
0.400913
0.397016
0.400281
0.415449
0.435001
0.481432
0.544685
0.624545
0.724347
0.838965
0.952075
1.02861
1.05353
1.05609
1.05546
1.05272
1.04138
1.02048
1.00424
1.00026
1
1
1
1
1
1
1
1
0.402606
0.403189
0.403865
0.404359
0.404447
0.40427
0.404131
0.403942
0.403959
0.405108
0.406062
0.405208
0.400654
0.397042
0.400263
0.418067
0.437301
0.481252
0.54961
0.630371
0.733641
0.848984
0.960379
1.03242
1.05417
1.05603
1.05542
1.05289
1.04057
1.01937
1.0038
1.00022
1
1
1
1
1
1
1
1
0.402633
0.403229
0.403906
0.404336
0.404467
0.404339
0.404251
0.403975
0.403871
0.404681
0.405353
0.404672
0.400462
0.397093
0.40003
0.420702
0.440005
0.479801
0.555202
0.638497
0.743688
0.859437
0.96883
1.03602
1.05471
1.05595
1.05536
1.05285
1.03961
1.0182
1.00338
1.00018
1
1
1
1
1
1
1
1
0.402749
0.403265
0.403926
0.404306
0.404454
0.404365
0.404356
0.404009
0.403659
0.404069
0.40458
0.40418
0.400439
0.397932
0.400893
0.424181
0.444567
0.48165
0.562662
0.64759
0.754138
0.870329
0.977411
1.03939
1.05514
1.05585
1.05514
1.0523
1.03847
1.01703
1.00298
1.00015
1
1
1
1
1
1
1
1
0.40293
0.403324
0.403928
0.404238
0.40439
0.404365
0.404457
0.404024
0.403375
0.403477
0.404025
0.403798
0.400778
0.399611
0.403905
0.428719
0.449207
0.492124
0.572572
0.657171
0.764924
0.881917
0.986041
1.04249
1.05546
1.05573
1.05474
1.05125
1.03725
1.01585
1.0026
1.00012
1
1
1
1
1
1
1
1
0.40311
0.403442
0.403898
0.404093
0.404313
0.404357
0.404549
0.403933
0.403072
0.402981
0.403696
0.403668
0.401577
0.400537
0.406236
0.431272
0.450688
0.504304
0.582244
0.667454
0.776421
0.894259
0.994539
1.04529
1.05569
1.05561
1.05453
1.05036
1.03608
1.01466
1.00224
1.0001
1
1
1
1
1
1
1
1
0.403312
0.403594
0.403836
0.403908
0.404235
0.404348
0.404547
0.403765
0.402808
0.402588
0.403475
0.403759
0.402483
0.40102
0.406874
0.431536
0.449197
0.512042
0.589365
0.678525
0.789073
0.907112
1.00288
1.04776
1.05584
1.05558
1.0546
1.04971
1.03491
1.01344
1.0019
1.00008
1
1
1
1
1
1
1
1
0.403585
0.403765
0.403765
0.403689
0.404104
0.404285
0.404368
0.403657
0.402606
0.402262
0.403235
0.403963
0.403475
0.401513
0.406933
0.431304
0.448576
0.517929
0.594812
0.690606
0.802893
0.920325
1.01095
1.04988
1.05595
1.05561
1.05497
1.0491
1.03357
1.01219
1.00159
1.00006
1
1
1
1
1
1
1
1
0.403946
0.403936
0.403733
0.403465
0.403887
0.404146
0.404207
0.403658
0.402494
0.402008
0.402863
0.404043
0.404339
0.40164
0.406538
0.431876
0.452844
0.527551
0.601524
0.703901
0.817592
0.933853
1.01858
1.05163
1.05607
1.0557
1.05516
1.04847
1.03201
1.01094
1.00131
1.00004
1
1
1
1
1
1
1
1
0.404376
0.404069
0.403699
0.403323
0.403627
0.403975
0.404105
0.403687
0.402468
0.401885
0.402446
0.404018
0.404846
0.401305
0.405134
0.432954
0.468266
0.542666
0.61375
0.71843
0.83298
0.94759
1.02569
1.05303
1.0562
1.05581
1.05518
1.0477
1.03028
1.00969
1.00106
1.00003
1
1
1
1
1
1
1
1
0.404728
0.404189
0.403643
0.40323
0.403439
0.403809
0.404032
0.40372
0.40279
0.402018
0.402339
0.40376
0.405182
0.401075
0.404587
0.433881
0.483019
0.554962
0.629039
0.73374
0.849401
0.961587
1.03218
1.0541
1.05633
1.05584
1.05497
1.04663
1.02843
1.00847
1.00084
1.00002
1
1
1
1
1
1
1
1
0.404901
0.40426
0.403591
0.403192
0.403309
0.403648
0.403912
0.403961
0.403986
0.402895
0.402954
0.403437
0.405591
0.402143
0.404796
0.435399
0.491534
0.562488
0.6438
0.749847
0.867259
0.975555
1.03789
1.05488
1.05639
1.05583
1.05432
1.04536
1.02647
1.0073
1.00065
1.00002
1
1
1
1
1
1
1
1
0.404995
0.404267
0.403515
0.403192
0.403226
0.403459
0.403774
0.404292
0.404922
0.403843
0.403329
0.402936
0.406139
0.40566
0.407997
0.438973
0.498538
0.567999
0.658956
0.767356
0.886169
0.989098
1.04276
1.05543
1.0564
1.05571
1.05341
1.04405
1.02442
1.00618
1.0005
1.00001
1
1
1
1
1
1
1
1
0.405009
0.404227
0.4035
0.403187
0.403196
0.403303
0.403647
0.404509
0.405419
0.404435
0.403139
0.402106
0.406474
0.408855
0.41096
0.446622
0.508695
0.576049
0.676066
0.78659
0.905606
1.00196
1.04679
1.05578
1.05638
1.05561
1.05261
1.04272
1.0223
1.00514
1.00037
1.00001
1
1
1
1
1
1
1
1
0.404762
0.404098
0.403569
0.403262
0.403248
0.403252
0.403532
0.404619
0.405655
0.404911
0.402694
0.40078
0.406588
0.410581
0.412795
0.459407
0.521054
0.592166
0.695453
0.807529
0.925506
1.01394
1.04998
1.05598
1.05632
1.05572
1.05195
1.04121
1.02012
1.00417
1.00026
1.00001
1
1
1
1
1
1
1
1
0.404314
0.404105
0.403789
0.403502
0.403409
0.403276
0.403479
0.404708
0.405803
0.405332
0.402393
0.399374
0.40543
0.410981
0.416908
0.473226
0.531102
0.611597
0.715882
0.830428
0.945825
1.02468
1.05237
1.05607
1.05629
1.05575
1.05124
1.03936
1.01787
1.0033
1.00018
1
1
1
1
1
1
1
1
1
0.403946
0.404045
0.404057
0.403886
0.403635
0.40333
0.403382
0.404753
0.405879
0.405508
0.402071
0.398064
0.402135
0.411092
0.426457
0.485704
0.539958
0.631132
0.737078
0.855223
0.966058
1.03386
1.05405
1.0561
1.05634
1.05559
1.05068
1.03711
1.01554
1.00253
1.00012
1
1
1
1
1
1
1
1
1
0.403484
0.404007
0.404341
0.404276
0.40395
0.403431
0.403247
0.404618
0.405598
0.405277
0.40113
0.396842
0.398953
0.41227
0.439399
0.496901
0.5541
0.653288
0.760713
0.881322
0.985376
1.04133
1.05517
1.0561
1.05636
1.05523
1.05034
1.03453
1.0132
1.00188
1.00008
1
1
1
1
1
1
1
1
1
0.403209
0.403934
0.404455
0.404486
0.404244
0.403708
0.403283
0.40415
0.40507
0.404783
0.399948
0.39561
0.397677
0.417543
0.451096
0.505419
0.577375
0.678109
0.787799
0.908317
1.00325
1.04706
1.05586
1.05609
1.05632
1.05468
1.04916
1.03166
1.01094
1.00135
1.00005
1
1
1
1
1
1
1
1
1
0.403105
0.403813
0.404461
0.404572
0.404413
0.403983
0.403458
0.403454
0.40429
0.404011
0.399389
0.395067
0.397629
0.426864
0.462181
0.514322
0.601688
0.70312
0.818122
0.93583
1.01897
1.05108
1.05624
1.05608
1.05616
1.05396
1.04666
1.02864
1.00883
1.00093
1.00003
1
1
1
1
1
1
1
1
1
0.403183
0.403685
0.404254
0.404536
0.404451
0.404147
0.403549
0.402758
0.402884
0.402775
0.399895
0.396107
0.400373
0.438994
0.471975
0.531437
0.627348
0.73003
0.850788
0.962832
1.03188
1.05367
1.05641
1.05606
1.05596
1.05324
1.04471
1.02568
1.0069
1.00061
1.00002
1
1
1
1
1
1
1
1
1
0.403585
0.403661
0.403807
0.404218
0.404402
0.404244
0.404327
0.402513
0.401708
0.401451
0.402317
0.399729
0.405983
0.446003
0.480555
0.559593
0.655562
0.76234
0.885263
0.988199
1.04176
1.05516
1.0565
1.05599
1.05577
1.05293
1.04267
1.0224
1.00516
1.00038
1.00001
1
1
1
1
1
1
1
1
1
0.404034
0.4037
0.403373
0.403784
0.404358
0.404681
0.405076
0.403361
0.401664
0.400051
0.40523
0.404919
0.410179
0.449159
0.496825
0.589329
0.684681
0.800154
0.920845
1.0106
1.04859
1.05589
1.05655
1.05597
1.05569
1.05282
1.04
1.0187
1.00366
1.00022
1
1
1
1
1
1
1
1
1
1
0.404325
0.403674
0.403233
0.403444
0.404141
0.40489
0.405657
0.40466
0.401836
0.398588
0.406084
0.409986
0.413743
0.455178
0.528513
0.619256
0.718594
0.841564
0.955862
1.02865
1.05276
1.05617
1.05659
1.05602
1.05569
1.05108
1.03638
1.01506
1.00246
1.00012
1
1
1
1
1
1
1
1
1
1
0.404396
0.403849
0.403402
0.403348
0.403879
0.404838
0.405841
0.405248
0.401701
0.396392
0.401733
0.412528
0.41989
0.479357
0.561161
0.649303
0.760807
0.885274
0.988189
1.04171
1.05499
1.05623
1.05663
1.05606
1.05509
1.04834