/*--------------------------------*- C++ -*----------------------------------*\
  =========                 |
  \\      /  F ield         | OpenFOAM: The Open Source CFD Toolbox
   \\    /   O peration     | Website:  https://openfoam.org
    \\  /    A nd           | Version:  7
     \\/     M anipulation  |
\*---------------------------------------------------------------------------*/
FoamFile
{
    version     2.0;
    format      ascii;
    class       volVectorField;
    location    "9";
    object      U;
}
// * * * * * * * * * * * * * * * * * * * * * * * * * * * * * * * * * * * * * //

dimensions      [0 1 -1 0 0 0 0];

internalField   nonuniform List<vector> 
11200
(
(2.5094 -0.552869 0)
(2.50546 -0.193845 0)
(2.48439 0.0751749 0)
(2.48897 0.240896 0)
(2.49487 0.349262 0)
(2.51416 0.434545 0)
(2.52815 0.449587 0)
(2.56532 0.427244 0)
(2.59331 0.394215 0)
(2.6165 0.331555 0)
(2.65251 0.281499 0)
(2.66956 0.209053 0)
(2.68061 0.179445 0)
(2.6872 0.135713 0)
(2.71411 0.152915 0)
(2.72918 0.19194 0)
(2.74568 0.22044 0)
(2.74401 0.208267 0)
(2.73997 0.18444 0)
(2.75456 0.165598 0)
(2.77334 0.165035 0)
(2.78909 0.17066 0)
(2.79807 0.172827 0)
(2.80452 0.173748 0)
(2.8121 0.179502 0)
(2.81807 0.17082 0)
(2.82516 0.146795 0)
(2.83402 0.136994 0)
(2.84185 0.148352 0)
(2.84897 0.138778 0)
(2.67034 -1.43554 0)
(2.68261 -1.42395 0)
(2.66349 -1.24925 0)
(2.60027 -0.989158 0)
(2.54501 -0.725057 0)
(2.4522 -0.321553 0)
(2.46617 -0.199514 0)
(2.40648 0.0781176 0)
(2.42205 0.0922756 0)
(2.43405 0.168832 0)
(2.44384 0.152376 0)
(2.49192 0.183079 0)
(2.51462 0.140669 0)
(2.52124 0.118011 0)
(2.55453 0.130454 0)
(2.56348 0.142999 0)
(2.56591 0.156013 0)
(2.56668 0.159291 0)
(2.58801 0.150068 0)
(2.62207 0.165283 0)
(2.65291 0.169357 0)
(2.6752 0.171974 0)
(2.68838 0.177144 0)
(2.70184 0.171133 0)
(2.71556 0.160637 0)
(2.72701 0.150479 0)
(2.7403 0.137461 0)
(2.75646 0.126293 0)
(2.77367 0.123688 0)
(2.79491 0.107495 0)
(2.84094 -1.53971 0)
(2.89484 -1.54357 0)
(2.91279 -1.60221 0)
(2.94508 -1.59682 0)
(2.96284 -1.61305 0)
(2.95563 -1.55857 0)
(2.90289 -1.40392 0)
(2.75704 -1.04372 0)
(2.66178 -0.757009 0)
(2.51237 -0.329237 0)
(2.47755 -0.136747 0)
(2.40077 0.120807 0)
(2.37727 0.190676 0)
(2.41339 0.254028 0)
(2.4237 0.218951 0)
(2.43843 0.168557 0)
(2.45333 0.150534 0)
(2.4759 0.124493 0)
(2.49526 0.14325 0)
(2.51457 0.171257 0)
(2.53412 0.180376 0)
(2.54965 0.162513 0)
(2.56703 0.143026 0)
(2.58335 0.14625 0)
(2.59834 0.142627 0)
(2.61109 0.137234 0)
(2.62759 0.143322 0)
(2.64925 0.141086 0)
(2.6698 0.133504 0)
(2.70155 0.117821 0)
(2.97776 -1.62969 0)
(2.99395 -1.64793 0)
(3.01703 -1.65099 0)
(3.03454 -1.6538 0)
(3.05034 -1.65181 0)
(3.0702 -1.65556 0)
(3.0764 -1.65216 0)
(3.08471 -1.65683 0)
(3.08846 -1.66729 0)
(3.04567 -1.59628 0)
(2.93657 -1.37087 0)
(2.75474 -0.865551 0)
(2.69026 -0.531423 0)
(2.55773 -0.118157 0)
(2.54272 0.00799254 0)
(2.47183 0.0987007 0)
(2.49136 0.140743 0)
(2.50306 0.155451 0)
(2.49458 0.158528 0)
(2.48793 0.156723 0)
(2.47873 0.162531 0)
(2.48627 0.161258 0)
(2.49725 0.145268 0)
(2.50685 0.138554 0)
(2.5126 0.149128 0)
(2.51842 0.13386 0)
(2.53279 0.118324 0)
(2.5505 0.109337 0)
(2.56604 0.108534 0)
(2.59588 0.0999537 0)
(3.05906 -1.64403 0)
(3.06816 -1.63823 0)
(3.07205 -1.64404 0)
(3.07725 -1.64164 0)
(3.08229 -1.63573 0)
(3.08638 -1.64068 0)
(3.08742 -1.64385 0)
(3.08971 -1.64963 0)
(3.08948 -1.6579 0)
(3.0808 -1.66845 0)
(3.07483 -1.67446 0)
(3.07409 -1.67321 0)
(3.0624 -1.6333 0)
(2.92951 -1.28897 0)
(2.80761 -0.757214 0)
(2.56663 -0.129514 0)
(2.56421 0.0658818 0)
(2.51272 0.211726 0)
(2.49444 0.192953 0)
(2.48487 0.173139 0)
(2.48382 0.14093 0)
(2.48865 0.136462 0)
(2.48646 0.13064 0)
(2.48695 0.133783 0)
(2.48573 0.127426 0)
(2.48387 0.127366 0)
(2.49025 0.126954 0)
(2.49673 0.118381 0)
(2.50235 0.114201 0)
(2.52013 0.10172 0)
(3.07818 -1.63398 0)
(3.08002 -1.63262 0)
(3.08225 -1.63412 0)
(3.0851 -1.63694 0)
(3.08611 -1.63878 0)
(3.08616 -1.64028 0)
(3.08567 -1.64608 0)
(3.08581 -1.6537 0)
(3.08133 -1.65866 0)
(3.07281 -1.66318 0)
(3.06666 -1.66488 0)
(3.06034 -1.6605 0)
(3.06135 -1.65325 0)
(3.0582 -1.65685 0)
(3.05349 -1.66009 0)
(2.95843 -1.436 0)
(2.83435 -0.936314 0)
(2.70506 -0.403296 0)
(2.6341 -0.0990518 0)
(2.55214 0.0805848 0)
(2.5221 0.109497 0)
(2.50816 0.131197 0)
(2.48816 0.119788 0)
(2.48626 0.118691 0)
(2.48631 0.112355 0)
(2.4889 0.109306 0)
(2.48757 0.108251 0)
(2.48529 0.103676 0)
(2.48518 0.103071 0)
(2.49477 0.0944246 0)
(3.07361 -1.63813 0)
(3.07408 -1.64223 0)
(3.07543 -1.64935 0)
(3.07515 -1.65725 0)
(3.07374 -1.6597 0)
(3.07216 -1.66364 0)
(3.06872 -1.67297 0)
(3.06484 -1.67587 0)
(3.06365 -1.6623 0)
(3.0615 -1.65695 0)
(3.05389 -1.65557 0)
(3.0473 -1.65335 0)
(3.04911 -1.65033 0)
(3.04801 -1.65461 0)
(3.04024 -1.65941 0)
(3.02691 -1.65045 0)
(3.02065 -1.63936 0)
(2.98016 -1.52512 0)
(2.86871 -1.06754 0)
(2.71456 -0.442286 0)
(2.65804 -0.100618 0)
(2.55009 0.138347 0)
(2.48755 0.124222 0)
(2.5133 0.14993 0)
(2.51018 0.114962 0)
(2.50944 0.0971631 0)
(2.5031 0.0884537 0)
(2.49719 0.0853614 0)
(2.49359 0.084838 0)
(2.49752 0.08046 0)
(3.05911 -1.64974 0)
(3.05719 -1.65065 0)
(3.0574 -1.65367 0)
(3.05713 -1.65603 0)
(3.05613 -1.66008 0)
(3.05747 -1.66149 0)
(3.05866 -1.66635 0)
(3.05758 -1.66702 0)
(3.05748 -1.66127 0)
(3.05682 -1.65004 0)
(3.03757 -1.64108 0)
(3.03516 -1.64253 0)
(3.04103 -1.64091 0)
(3.0399 -1.64233 0)
(3.03256 -1.64507 0)
(3.02424 -1.63336 0)
(3.02216 -1.6013 0)
(3.00787 -1.61111 0)
(3.01437 -1.59064 0)
(3.00656 -1.49312 0)
(2.92055 -1.07893 0)
(2.78307 -0.489207 0)
(2.71164 -0.125971 0)
(2.59206 0.0949606 0)
(2.54036 0.112488 0)
(2.56768 0.13559 0)
(2.55273 0.0954932 0)
(2.54693 0.0931593 0)
(2.53239 0.103747 0)
(2.52467 0.10253 0)
(3.04799 -1.65378 0)
(3.04766 -1.65712 0)
(3.04906 -1.6594 0)
(3.04879 -1.65979 0)
(3.04839 -1.66335 0)
(3.05065 -1.66213 0)
(3.04531 -1.65165 0)
(3.04383 -1.64364 0)
(3.03475 -1.62763 0)
(3.03529 -1.60419 0)
(3.0282 -1.59504 0)
(3.00805 -1.59228 0)
(3.00602 -1.5848 0)
(3.01424 -1.57404 0)
(3.02369 -1.58032 0)
(3.04446 -1.56221 0)
(3.04278 -1.55711 0)
(3.0419 -1.54962 0)
(3.04208 -1.53978 0)
(3.04077 -1.52161 0)
(3.04659 -1.49671 0)
(3.03639 -1.40749 0)
(2.96496 -0.971042 0)
(2.83175 -0.465698 0)
(2.76123 -0.113008 0)
(2.65008 0.0929724 0)
(2.60538 0.113375 0)
(2.61963 0.127103 0)
(2.60094 0.0787646 0)
(2.59132 0.0654863 0)
(3.03331 -1.65149 0)
(3.03197 -1.65137 0)
(3.03073 -1.64884 0)
(3.03177 -1.63981 0)
(3.02946 -1.64155 0)
(3.03227 -1.64188 0)
(3.03702 -1.60958 0)
(3.04528 -1.59917 0)
(3.05315 -1.58472 0)
(3.05877 -1.55751 0)
(3.05843 -1.54534 0)
(3.05417 -1.54964 0)
(3.04721 -1.53462 0)
(3.05661 -1.51004 0)
(3.06498 -1.50769 0)
(3.0756 -1.50747 0)
(3.07616 -1.47659 0)
(3.07952 -1.45313 0)
(3.08325 -1.43595 0)
(3.07831 -1.43934 0)
(3.06628 -1.44179 0)
(3.05036 -1.43646 0)
(3.05894 -1.38943 0)
(3.06415 -1.29178 0)
(3.00686 -0.875432 0)
(2.8803 -0.430029 0)
(2.80978 -0.0897115 0)
(2.69872 0.104851 0)
(2.65975 0.116522 0)
(2.6698 0.114846 0)
(3.03482 -1.5805 0)
(3.03302 -1.58417 0)
(3.03065 -1.59347 0)
(3.03474 -1.58474 0)
(3.03297 -1.58535 0)
(3.03035 -1.58785 0)
(3.034 -1.5817 0)
(3.04399 -1.58296 0)
(3.0556 -1.56908 0)
(3.06503 -1.53417 0)
(3.06145 -1.52031 0)
(3.05067 -1.52821 0)
(3.04209 -1.5041 0)
(3.05019 -1.46441 0)
(3.06214 -1.45338 0)
(3.07478 -1.44051 0)
(3.0793 -1.41623 0)
(3.08246 -1.3934 0)
(3.09635 -1.36134 0)
(3.11176 -1.32605 0)
(3.11158 -1.31062 0)
(3.08752 -1.32755 0)
(3.06955 -1.33684 0)
(3.08238 -1.31444 0)
(3.09818 -1.2917 0)
(3.08957 -1.18127 0)
(3.02478 -0.774104 0)
(2.88164 -0.328871 0)
(2.8405 -0.0453496 0)
(2.73249 0.106747 0)
(3.06247 -1.49549 0)
(3.06089 -1.4818 0)
(3.06342 -1.46652 0)
(3.06527 -1.45443 0)
(3.06785 -1.43962 0)
(3.06611 -1.43965 0)
(3.07077 -1.44819 0)
(3.08695 -1.43897 0)
(3.09138 -1.43296 0)
(3.08986 -1.43221 0)
(3.08584 -1.43355 0)
(3.06689 -1.45517 0)
(3.05191 -1.45116 0)
(3.05608 -1.40538 0)
(3.06878 -1.39097 0)
(3.07691 -1.38605 0)
(3.07543 -1.37408 0)
(3.07457 -1.35239 0)
(3.08266 -1.32862 0)
(3.09936 -1.30426 0)
(3.10872 -1.2903 0)
(3.11629 -1.26307 0)
(3.11306 -1.25256 0)
(3.08971 -1.26649 0)
(3.08441 -1.23062 0)
(3.11028 -1.22616 0)
(3.12019 -1.21193 0)
(3.08504 -1.03233 0)
(3.05072 -0.679915 0)
(2.85493 -0.108327 0)
(3.07182 -1.40758 0)
(3.06843 -1.40782 0)
(3.06705 -1.40721 0)
(3.06895 -1.40424 0)
(3.06704 -1.41016 0)
(3.06536 -1.42401 0)
(3.07418 -1.42222 0)
(3.09217 -1.37953 0)
(3.10291 -1.34257 0)
(3.10481 -1.31282 0)
(3.11586 -1.29245 0)
(3.10616 -1.29076 0)
(3.09488 -1.29233 0)
(3.09001 -1.29654 0)
(3.09786 -1.29571 0)
(3.10364 -1.29095 0)
(3.101 -1.28221 0)
(3.09312 -1.2821 0)
(3.0907 -1.27416 0)
(3.09395 -1.25842 0)
(3.09835 -1.23324 0)
(3.11067 -1.21229 0)
(3.12274 -1.18954 0)
(3.12301 -1.17535 0)
(3.10621 -1.18124 0)
(3.10373 -1.1696 0)
(3.11225 -1.14073 0)
(3.12428 -1.13477 0)
(3.12586 -1.13135 0)
(3.01475 -0.580972 0)
(3.0932 -1.28432 0)
(3.09562 -1.27168 0)
(3.09664 -1.26028 0)
(3.10157 -1.25275 0)
(3.10443 -1.25162 0)
(3.10061 -1.25909 0)
(3.09541 -1.26976 0)
(3.0961 -1.27668 0)
(3.09823 -1.27666 0)
(3.10366 -1.26888 0)
(3.10967 -1.25908 0)
(3.10804 -1.25926 0)
(3.10642 -1.25187 0)
(3.10272 -1.21669 0)
(3.1155 -1.1806 0)
(3.12606 -1.17324 0)
(3.12532 -1.16462 0)
(3.12376 -1.1562 0)
(3.123 -1.15204 0)
(3.11332 -1.15801 0)
(3.10393 -1.16008 0)
(3.10662 -1.15134 0)
(3.12017 -1.13309 0)
(3.12782 -1.11735 0)
(3.13022 -1.09937 0)
(3.1244 -1.09049 0)
(3.11604 -1.08252 0)
(3.11968 -1.08831 0)
(3.12512 -1.07332 0)
(3.12672 -1.04875 0)
(3.10403 -1.1896 0)
(3.1089 -1.17621 0)
(3.11546 -1.16525 0)
(3.12242 -1.16155 0)
(3.12138 -1.16421 0)
(3.11689 -1.17604 0)
(3.11539 -1.18418 0)
(3.11627 -1.17033 0)
(3.11704 -1.16387 0)
(3.12281 -1.14489 0)
(3.13254 -1.12097 0)
(3.12893 -1.11749 0)
(3.11633 -1.12998 0)
(3.11321 -1.13864 0)
(3.11711 -1.13475 0)
(3.12047 -1.13613 0)
(3.12153 -1.12452 0)
(3.12021 -1.09256 0)
(3.13226 -1.06854 0)
(3.13361 -1.06059 0)
(3.12855 -1.06194 0)
(3.12239 -1.06395 0)
(3.12256 -1.06065 0)
(3.12749 -1.0488 0)
(3.13336 -1.03418 0)
(3.13481 -1.02894 0)
(3.12966 -1.02189 0)
(3.12764 -1.00487 0)
(3.12635 -1.00655 0)
(3.12894 -0.998451 0)
(3.11644 -1.05765 0)
(3.11342 -1.04146 0)
(3.12988 -1.02379 0)
(3.13625 -1.02253 0)
(3.14181 -1.02505 0)
(3.13981 -1.03314 0)
(3.13333 -1.05168 0)
(3.1277 -1.06482 0)
(3.12685 -1.04628 0)
(3.13252 -1.03279 0)
(3.13414 -1.02342 0)
(3.13567 -1.01753 0)
(3.13526 -1.01722 0)
(3.13258 -1.00918 0)
(3.13377 -0.997285 0)
(3.13226 -0.996888 0)
(3.12719 -1.00617 0)
(3.12356 -1.01863 0)
(3.12539 -1.01596 0)
(3.13142 -1.00232 0)
(3.13328 -0.988994 0)
(3.13587 -0.975688 0)
(3.13352 -0.972976 0)
(3.12915 -0.975165 0)
(3.13098 -0.966302 0)
(3.13453 -0.962536 0)
(3.13506 -0.959155 0)
(3.13373 -0.949948 0)
(3.13272 -0.943613 0)
(3.13099 -0.940157 0)
(3.1258 -0.937997 0)
(3.12877 -0.918274 0)
(3.1302 -0.904531 0)
(3.13695 -0.902443 0)
(3.14421 -0.907402 0)
(3.14714 -0.911421 0)
(3.14178 -0.927546 0)
(3.13345 -0.947621 0)
(3.13058 -0.940184 0)
(3.13709 -0.920313 0)
(3.13762 -0.90985 0)
(3.13844 -0.914615 0)
(3.13562 -0.921389 0)
(3.13276 -0.92551 0)
(3.13421 -0.91886 0)
(3.13806 -0.913739 0)
(3.14028 -0.906957 0)
(3.13912 -0.895736 0)
(3.13697 -0.893667 0)
(3.13324 -0.896211 0)
(3.13309 -0.90115 0)
(3.13488 -0.899397 0)
(3.13605 -0.895568 0)
(3.13588 -0.892991 0)
(3.13312 -0.892621 0)
(3.13273 -0.890215 0)
(3.13455 -0.885852 0)
(3.13597 -0.886027 0)
(3.13534 -0.88321 0)
(3.13423 -0.878816 0)
(3.12633 -0.809156 0)
(3.12976 -0.797713 0)
(3.13305 -0.775546 0)
(3.13385 -0.759977 0)
(3.14334 -0.778581 0)
(3.14465 -0.785191 0)
(3.1433 -0.794511 0)
(3.13473 -0.81288 0)
(3.13101 -0.812072 0)
(3.13658 -0.799995 0)
(3.13922 -0.788121 0)
(3.14403 -0.790648 0)
(3.13897 -0.798795 0)
(3.13412 -0.79844 0)
(3.13495 -0.797517 0)
(3.13616 -0.797948 0)
(3.13656 -0.802534 0)
(3.13658 -0.804746 0)
(3.13713 -0.803364 0)
(3.13703 -0.799368 0)
(3.1352 -0.799603 0)
(3.13475 -0.801499 0)
(3.13434 -0.80448 0)
(3.13503 -0.80451 0)
(3.13482 -0.804872 0)
(3.134 -0.806168 0)
(3.13332 -0.809783 0)
(3.13368 -0.812716 0)
(3.13457 -0.813187 0)
(3.13409 -0.816216 0)
(3.11826 -0.667493 0)
(3.12118 -0.662575 0)
(3.127 -0.643468 0)
(3.1269 -0.618535 0)
(3.13476 -0.62598 0)
(3.13678 -0.649883 0)
(3.13688 -0.654757 0)
(3.12749 -0.671434 0)
(3.1224 -0.679541 0)
(3.12605 -0.677478 0)
(3.13512 -0.666943 0)
(3.13783 -0.667337 0)
(3.13485 -0.677703 0)
(3.12888 -0.681996 0)
(3.12659 -0.684979 0)
(3.13078 -0.690617 0)
(3.13223 -0.690727 0)
(3.13256 -0.692473 0)
(3.13109 -0.699913 0)
(3.12918 -0.708798 0)
(3.13012 -0.709012 0)
(3.13197 -0.712035 0)
(3.13169 -0.721179 0)
(3.131 -0.722948 0)
(3.1317 -0.727348 0)
(3.13359 -0.727227 0)
(3.13283 -0.728476 0)
(3.13095 -0.736315 0)
(3.13085 -0.740026 0)
(3.13166 -0.745135 0)
(3.10124 -0.519693 0)
(3.1029 -0.517992 0)
(3.10946 -0.504302 0)
(3.11108 -0.47886 0)
(3.11997 -0.481658 0)
(3.12375 -0.505442 0)
(3.1242 -0.510228 0)
(3.11133 -0.533224 0)
(3.1054 -0.545542 0)
(3.11159 -0.542578 0)
(3.12183 -0.534986 0)
(3.12534 -0.540637 0)
(3.12159 -0.550918 0)
(3.11742 -0.551585 0)
(3.11783 -0.559085 0)
(3.1206 -0.570763 0)
(3.12143 -0.574921 0)
(3.1225 -0.579927 0)
(3.12293 -0.581664 0)
(3.12208 -0.59136 0)
(3.12178 -0.602868 0)
(3.12353 -0.601196 0)
(3.12537 -0.60926 0)
(3.12488 -0.617 0)
(3.1246 -0.625821 0)
(3.1251 -0.637812 0)
(3.12556 -0.639336 0)
(3.12551 -0.647283 0)
(3.12713 -0.665668 0)
(3.12678 -0.675586 0)
(3.07062 -0.369363 0)
(3.07431 -0.368262 0)
(3.08304 -0.359062 0)
(3.08793 -0.333739 0)
(3.09787 -0.32768 0)
(3.10186 -0.359232 0)
(3.09992 -0.366541 0)
(3.08914 -0.390461 0)
(3.0822 -0.406849 0)
(3.0901 -0.404823 0)
(3.10253 -0.398274 0)
(3.10537 -0.406644 0)
(3.10162 -0.420205 0)
(3.09839 -0.420974 0)
(3.10181 -0.432304 0)
(3.10498 -0.449542 0)
(3.10466 -0.451772 0)
(3.1066 -0.460053 0)
(3.10878 -0.476246 0)
(3.10806 -0.478584 0)
(3.11045 -0.494884 0)
(3.11183 -0.505566 0)
(3.11348 -0.515979 0)
(3.11474 -0.529115 0)
(3.11481 -0.535179 0)
(3.11691 -0.552707 0)
(3.11735 -0.567715 0)
(3.11871 -0.573611 0)
(3.12047 -0.582954 0)
(3.12119 -0.598513 0)
(3.03816 -0.222505 0)
(3.03628 -0.22099 0)
(3.04654 -0.209733 0)
(3.05437 -0.186599 0)
(3.06649 -0.177371 0)
(3.07016 -0.207795 0)
(3.06539 -0.22435 0)
(3.06018 -0.24827 0)
(3.05239 -0.267354 0)
(3.06056 -0.266041 0)
(3.07456 -0.259361 0)
(3.07968 -0.270619 0)
(3.0761 -0.286406 0)
(3.07244 -0.289528 0)
(3.07761 -0.304542 0)
(3.08089 -0.319711 0)
(3.08233 -0.333692 0)
(3.08423 -0.337487 0)
(3.08835 -0.353351 0)
(3.08987 -0.369702 0)
(3.09129 -0.37893 0)
(3.09459 -0.394877 0)
(3.09658 -0.406125 0)
(3.09879 -0.422555 0)
(3.10056 -0.438648 0)
(3.10224 -0.444651 0)
(3.10426 -0.461117 0)
(3.10567 -0.479004 0)
(3.10722 -0.48873 0)
(3.11002 -0.510439 0)
(2.99723 -0.072595 0)
(2.99412 -0.0741404 0)
(3.00182 -0.0633874 0)
(3.01105 -0.0420325 0)
(3.02574 -0.0356223 0)
(3.02857 -0.0610365 0)
(3.02039 -0.0836274 0)
(3.01979 -0.108775 0)
(3.01321 -0.127951 0)
(3.0227 -0.126487 0)
(3.03825 -0.12089 0)
(3.0456 -0.135473 0)
(3.04133 -0.153925 0)
(3.03696 -0.155219 0)
(3.04485 -0.177564 0)
(3.04857 -0.195523 0)
(3.05062 -0.204297 0)
(3.05612 -0.218394 0)
(3.06032 -0.231855 0)
(3.06333 -0.252795 0)
(3.06521 -0.264982 0)
(3.07025 -0.282837 0)
(3.07437 -0.302034 0)
(3.07581 -0.311848 0)
(3.08079 -0.337497 0)
(3.08361 -0.353331 0)
(3.08682 -0.369413 0)
(3.08998 -0.388044 0)
(3.09274 -0.40723 0)
(3.09687 -0.433404 0)
(2.94428 0.0747993 0)
(2.94243 0.0721291 0)
(2.94669 0.0779986 0)
(2.95615 0.0940561 0)
(2.96944 0.102615 0)
(2.97414 0.0855449 0)
(2.96747 0.0588299 0)
(2.97076 0.0286847 0)
(2.96535 0.0056979 0)
(2.97519 0.00715049 0)
(2.99013 0.0130951 0)
(2.99906 -0.00211655 0)
(2.99686 -0.0221751 0)
(2.99426 -0.0276094 0)
(3.00187 -0.0483242 0)
(3.00746 -0.0722496 0)
(3.01058 -0.0802438 0)
(3.01877 -0.0956961 0)
(3.02509 -0.114432 0)
(3.02744 -0.130026 0)
(3.03303 -0.153265 0)
(3.03835 -0.167533 0)
(3.0444 -0.187921 0)
(3.04954 -0.210823 0)
(3.05351 -0.226166 0)
(3.05892 -0.247993 0)
(3.06405 -0.270516 0)
(3.06818 -0.288421 0)
(3.07227 -0.307764 0)
(3.07836 -0.338449 0)
(2.88151 0.228731 0)
(2.88049 0.222769 0)
(2.88134 0.220453 0)
(2.88731 0.226151 0)
(2.89761 0.233286 0)
(2.9046 0.224823 0)
(2.91034 0.199151 0)
(2.91453 0.167892 0)
(2.90884 0.147483 0)
(2.91474 0.150471 0)
(2.92415 0.152112 0)
(2.9412 0.126902 0)
(2.94186 0.1064 0)
(2.94309 0.101813 0)
(2.95327 0.0796126 0)
(2.95855 0.0565969 0)
(2.96386 0.0416225 0)
(2.97265 0.0277102 0)
(2.98243 0.00477896 0)
(2.98696 -0.0130579 0)
(2.99376 -0.0353491 0)
(3.00126 -0.055007 0)
(3.00922 -0.0768118 0)
(3.01552 -0.0972152 0)
(3.02292 -0.12276 0)
(3.02965 -0.143851 0)
(3.03612 -0.165986 0)
(3.04284 -0.191087 0)
(3.04877 -0.213635 0)
(3.05775 -0.250068 0)
(2.82401 0.355496 0)
(2.82559 0.34892 0)
(2.82626 0.345881 0)
(2.82821 0.348261 0)
(2.83442 0.346828 0)
(2.84471 0.333963 0)
(2.84753 0.323971 0)
(2.85059 0.31054 0)
(2.85391 0.294126 0)
(2.85569 0.29448 0)
(2.86279 0.287077 0)
(2.87605 0.262244 0)
(2.88136 0.244291 0)
(2.88631 0.235681 0)
(2.89791 0.213517 0)
(2.90445 0.193607 0)
(2.91231 0.172438 0)
(2.92246 0.15174 0)
(2.93216 0.131679 0)
(2.94184 0.106696 0)
(2.94987 0.0848394 0)
(2.96005 0.059406 0)
(2.96969 0.0348803 0)
(2.97815 0.0126523 0)
(2.98828 -0.0158364 0)
(2.99622 -0.0380822 0)
(3.00576 -0.0660326 0)
(3.01418 -0.0914905 0)
(3.02195 -0.116423 0)
(3.03379 -0.156856 0)
(2.81337 0.383162 0)
(2.8135 0.382735 0)
(2.81366 0.381469 0)
(2.81373 0.380661 0)
(2.81484 0.379021 0)
(2.81609 0.377037 0)
(2.81673 0.37665 0)
(2.81807 0.375436 0)
(2.81952 0.374295 0)
(2.82095 0.373395 0)
(2.82469 0.368222 0)
(2.8288 0.360361 0)
(2.83148 0.355588 0)
(2.83628 0.347575 0)
(2.84311 0.335331 0)
(2.85057 0.321184 0)
(2.85921 0.304772 0)
(2.86809 0.286685 0)
(2.87908 0.262373 0)
(2.88849 0.240346 0)
(2.90144 0.210553 0)
(2.91215 0.185784 0)
(2.9251 0.154991 0)
(2.93679 0.126346 0)
(2.94877 0.0966849 0)
(2.96036 0.0670869 0)
(2.97195 0.0366498 0)
(2.9826 0.00821478 0)
(2.99284 -0.0205121 0)
(3.00778 -0.0649316 0)
(2.82856 0.360914 0)
(2.82763 0.36052 0)
(2.8266 0.358272 0)
(2.82637 0.356312 0)
(2.82685 0.359242 0)
(2.82661 0.364604 0)
(2.82415 0.371093 0)
(2.82429 0.378502 0)
(2.82154 0.378209 0)
(2.82029 0.374597 0)
(2.82285 0.368319 0)
(2.82471 0.368063 0)
(2.82444 0.371286 0)
(2.82399 0.372887 0)
(2.82549 0.370886 0)
(2.82659 0.367916 0)
(2.82826 0.365123 0)
(2.83162 0.361201 0)
(2.83649 0.354661 0)
(2.84278 0.344353 0)
(2.85119 0.328916 0)
(2.86128 0.309354 0)
(2.87386 0.283714 0)
(2.88668 0.255719 0)
(2.90192 0.220864 0)
(2.91567 0.188107 0)
(2.93113 0.150387 0)
(2.94507 0.11568 0)
(2.95837 0.0817309 0)
(2.97748 0.030563 0)
(2.89416 0.239554 0)
(2.89192 0.249727 0)
(2.88866 0.244886 0)
(2.88811 0.239025 0)
(2.87446 0.259351 0)
(2.87255 0.278419 0)
(2.87207 0.287413 0)
(2.86761 0.295865 0)
(2.85972 0.310604 0)
(2.85542 0.312935 0)
(2.85533 0.313412 0)
(2.84526 0.330601 0)
(2.84275 0.343818 0)
(2.84266 0.341663 0)
(2.83832 0.348158 0)
(2.83526 0.356063 0)
(2.83422 0.356538 0)
(2.83362 0.358091 0)
(2.83361 0.35889 0)
(2.8343 0.358671 0)
(2.83545 0.357065 0)
(2.83728 0.354391 0)
(2.84077 0.350055 0)
(2.84634 0.34197 0)
(2.85503 0.327321 0)
(2.86623 0.306231 0)
(2.88122 0.275042 0)
(2.89689 0.239893 0)
(2.91383 0.200719 0)
(2.93888 0.139261 0)
(2.97766 0.0517989 0)
(2.97357 0.0618658 0)
(2.97149 0.0685767 0)
(2.97024 0.0659336 0)
(2.9623 0.0762304 0)
(2.95792 0.0878882 0)
(2.95436 0.100211 0)
(2.9507 0.109001 0)
(2.94404 0.122542 0)
(2.93609 0.139557 0)
(2.93294 0.144076 0)
(2.91893 0.171269 0)
(2.91223 0.189196 0)
(2.90336 0.207969 0)
(2.89342 0.22823 0)
(2.88639 0.245945 0)
(2.87375 0.274418 0)
(2.86975 0.282175 0)
(2.8565 0.308393 0)
(2.8523 0.319173 0)
(2.85005 0.3251 0)
(2.8433 0.340369 0)
(2.84192 0.343322 0)
(2.8432 0.341603 0)
(2.84373 0.341268 0)
(2.84532 0.339853 0)
(2.84924 0.335109 0)
(2.85596 0.325403 0)
(2.86637 0.307822 0)
(2.89029 0.258905 0)
(2.9989 0.00242121 0)
(2.99869 0.00281343 0)
(2.99844 0.00340389 0)
(2.99814 0.00397114 0)
(2.99762 0.0046848 0)
(2.9969 0.00597441 0)
(2.99623 0.00745465 0)
(2.99548 0.00911295 0)
(2.99423 0.0118434 0)
(2.99289 0.014325 0)
(2.99053 0.0189045 0)
(2.98809 0.0229375 0)
(2.98359 0.0329149 0)
(2.98037 0.039065 0)
(2.97325 0.0535212 0)
(2.96661 0.0669775 0)
(2.95743 0.0860352 0)
(2.94572 0.111236 0)
(2.93562 0.131577 0)
(2.91753 0.171479 0)
(2.90874 0.191582 0)
(2.88956 0.232425 0)
(2.8778 0.259281 0)
(2.86946 0.279004 0)
(2.85552 0.310897 0)
(2.85291 0.317269 0)
(2.84985 0.326915 0)
(2.84978 0.32801 0)
(2.85057 0.327917 0)
(2.85757 0.319304 0)
(2.99999 2.77363e-05 0)
(2.99998 3.20302e-05 0)
(2.99998 4.07906e-05 0)
(2.99997 4.90766e-05 0)
(2.99997 6.27981e-05 0)
(2.99995 8.29845e-05 0)
(2.99994 0.000112179 0)
(2.99992 0.000153085 0)
(2.99989 0.000207896 0)
(2.99984 0.000301803 0)
(2.99977 0.000410802 0)
(2.99964 0.000642223 0)
(2.99947 0.000947349 0)
(2.99918 0.0015104 0)
(2.99875 0.00224838 0)
(2.99798 0.00370367 0)
(2.99682 0.00585126 0)
(2.99495 0.00934641 0)
(2.99192 0.015191 0)
(2.98739 0.0236837 0)
(2.98051 0.0375655 0)
(2.97089 0.0562799 0)
(2.95813 0.0826995 0)
(2.94184 0.116759 0)
(2.9241 0.153892 0)
(2.90507 0.19618 0)
(2.88688 0.236413 0)
(2.87302 0.268868 0)
(2.86281 0.29347 0)
(2.85849 0.308307 0)
(3 1.61709e-07 0)
(3 1.92754e-07 0)
(3 2.35688e-07 0)
(3 3.00387e-07 0)
(3 3.8033e-07 0)
(3 5.11884e-07 0)
(3 6.93489e-07 0)
(3 9.70147e-07 0)
(3 1.37954e-06 0)
(3 2.02046e-06 0)
(3 3.04316e-06 0)
(3 4.77692e-06 0)
(3 7.99118e-06 0)
(2.99999 1.32831e-05 0)
(2.99999 2.3198e-05 0)
(2.99998 4.25269e-05 0)
(2.99995 7.95164e-05 0)
(2.99991 0.000157588 0)
(2.99982 0.000306742 0)
(2.99963 0.000651486 0)
(2.99926 0.00130482 0)
(2.99843 0.00281286 0)
(2.99689 0.00563189 0)
(2.99376 0.0115301 0)
(2.98833 0.0217814 0)
(2.9787 0.0408053 0)
(2.96544 0.0671598 0)
(2.94517 0.109253 0)
(2.92587 0.150463 0)
(2.8939 0.221564 0)
(3 7.38824e-10 0)
(3 8.79622e-10 0)
(3 1.10426e-09 0)
(3 1.39402e-09 0)
(3 1.82152e-09 0)
(3 2.40966e-09 0)
(3 3.30598e-09 0)
(3 4.59553e-09 0)
(3 6.58829e-09 0)
(3 9.72452e-09 0)
(3 1.47476e-08 0)
(3 2.36228e-08 0)
(3 3.93346e-08 0)
(3 6.77746e-08 0)
(3 1.21097e-07 0)
(3 2.31196e-07 0)
(3 4.58341e-07 0)
(3 9.61935e-07 0)
(3 2.10899e-06 0)
(3 4.92046e-06 0)
(2.99999 1.1919e-05 0)
(2.99998 3.08191e-05 0)
(2.99995 8.05269e-05 0)
(2.99987 0.000222999 0)
(2.99966 0.00059668 0)
(2.99906 0.00167896 0)
(2.99769 0.00420141 0)
(2.99411 0.0109943 0)
(2.98823 0.0222225 0)
(2.96561 0.0691765 0)
(3 2.58153e-12 0)
(3 3.11174e-12 0)
(3 3.92577e-12 0)
(3 5.02361e-12 0)
(3 6.62415e-12 0)
(3 8.81851e-12 0)
(3 1.21884e-11 0)
(3 1.69676e-11 0)
(3 2.45623e-11 0)
(3 3.61654e-11 0)
(3 5.55998e-11 0)
(3 8.81777e-11 0)
(3 1.48681e-10 0)
(3 2.53272e-10 0)
(3 4.63642e-10 0)
(3 8.76894e-10 0)
(3 1.79222e-09 0)
(3 3.76326e-09 0)
(3 8.64813e-09 0)
(3 2.04433e-08 0)
(3 5.34309e-08 0)
(3 1.42984e-07 0)
(3 4.26342e-07 0)
(3 1.28018e-06 0)
(3 4.29975e-06 0)
(2.99999 1.43558e-05 0)
(2.99996 5.19233e-05 0)
(2.99985 0.000184303 0)
(2.99955 0.000587769 0)
(2.99616 0.00464185 0)
(2.57861 -1.39729 0)
(2.64478 -1.40504 0)
(2.7984 -1.49911 0)
(2.94319 -1.62446 0)
(3.04808 -1.64137 0)
(3.07647 -1.63619 0)
(3.07336 -1.6365 0)
(3.06553 -1.65164 0)
(3.05085 -1.65898 0)
(3.02404 -1.66938 0)
(3.03515 -1.57982 0)
(3.05796 -1.51601 0)
(3.07385 -1.41083 0)
(3.09234 -1.29392 0)
(3.09718 -1.19831 0)
(3.11562 -1.07145 0)
(3.12528 -0.94498 0)
(3.12838 -0.812057 0)
(3.12229 -0.668843 0)
(3.10625 -0.518446 0)
(3.08271 -0.365844 0)
(3.05097 -0.212197 0)
(3.00708 -0.0594668 0)
(2.95045 0.0872618 0)
(2.88221 0.244053 0)
(2.82198 0.362 0)
(2.81377 0.383323 0)
(2.83069 0.358887 0)
(2.90165 0.221174 0)
(2.98018 0.0456237 0)
(2.99908 0.00209768 0)
(2.99999 2.42539e-05 0)
(3 1.41281e-07 0)
(3 6.35088e-10 0)
(3 2.20564e-12 0)
(2.57925 -1.39499 0)
(2.65497 -1.41544 0)
(2.81591 -1.51881 0)
(2.96207 -1.63032 0)
(3.05545 -1.64359 0)
(3.07568 -1.64197 0)
(3.06808 -1.64485 0)
(3.06029 -1.65534 0)
(3.04551 -1.67061 0)
(3.01733 -1.67951 0)
(3.05382 -1.52261 0)
(3.06081 -1.527 0)
(3.09284 -1.39003 0)
(3.10237 -1.29918 0)
(3.1151 -1.19924 0)
(3.13019 -1.06282 0)
(3.14122 -0.935282 0)
(3.14765 -0.788295 0)
(3.1427 -0.633292 0)
(3.12567 -0.470241 0)
(3.09678 -0.305751 0)
(3.05617 -0.1464 0)
(3.00486 0.00429769 0)
(2.94124 0.149812 0)
(2.86575 0.290919 0)
(2.81682 0.374249 0)
(2.81478 0.382235 0)
(2.83702 0.348008 0)
(2.91406 0.192433 0)
(2.98515 0.0335972 0)
(2.9995 0.00107669 0)
(3 1.02002e-05 0)
(3 6.01418e-08 0)
(3 2.96544e-10 0)
(3 1.08109e-12 0)
(2.55879 -1.39197 0)
(2.64633 -1.41206 0)
(2.80656 -1.532 0)
(2.96569 -1.63206 0)
(3.05746 -1.64853 0)
(3.07772 -1.64782 0)
(3.06991 -1.65616 0)
(3.05927 -1.66342 0)
(3.04157 -1.67521 0)
(3.01896 -1.67949 0)
(3.06917 -1.53364 0)
(3.0627 -1.52677 0)
(3.09844 -1.39775 0)
(3.10808 -1.30164 0)
(3.12991 -1.18284 0)
(3.14719 -1.03866 0)
(3.15991 -0.871367 0)
(3.14891 -0.708569 0)
(3.12825 -0.545772 0)
(3.09642 -0.383133 0)
(3.05863 -0.226159 0)
(3.01503 -0.07535 0)
(2.96353 0.0684759 0)
(2.90126 0.20836 0)
(2.84328 0.323731 0)
(2.81127 0.383201 0)
(2.81389 0.37947 0)
(2.84174 0.336008 0)
(2.92588 0.163899 0)
(2.98958 0.023124 0)
(2.9997 0.000634431 0)
(3 5.42725e-06 0)
(3 3.11706e-08 0)
(3 1.51813e-10 0)
(3 5.50294e-13 0)
(2.54289 -1.38377 0)
(2.63434 -1.41771 0)
(2.79699 -1.5447 0)
(2.96709 -1.63079 0)
(3.05974 -1.66102 0)
(3.08319 -1.66639 0)
(3.07817 -1.67598 0)
(3.06612 -1.67785 0)
(3.03808 -1.68483 0)
(3.03445 -1.64592 0)
(3.07458 -1.53976 0)
(3.08398 -1.49484 0)
(3.11327 -1.36287 0)
(3.1332 -1.22841 0)
(3.14021 -1.08964 0)
(3.14287 -0.941461 0)
(3.13323 -0.788717 0)
(3.12316 -0.656061 0)
(3.10739 -0.510027 0)
(3.084 -0.367156 0)
(3.05155 -0.222094 0)
(3.00965 -0.074924 0)
(2.95778 0.0680658 0)
(2.89607 0.20774 0)
(2.83503 0.329628 0)
(2.80919 0.386493 0)
(2.81276 0.379572 0)
(2.84776 0.316084 0)
(2.9397 0.134544 0)
(2.99335 0.0151264 0)
(2.99984 0.000341669 0)
(3 2.76569e-06 0)
(3 1.56982e-08 0)
(3 7.60128e-11 0)
(3 2.75451e-13 0)
(2.5339 -1.37849 0)
(2.62586 -1.42007 0)
(2.79432 -1.54886 0)
(2.97173 -1.63293 0)
(3.0658 -1.66602 0)
(3.09004 -1.67358 0)
(3.08395 -1.68845 0)
(3.07185 -1.68814 0)
(3.04017 -1.68874 0)
(3.04954 -1.58601 0)
(3.06347 -1.55825 0)
(3.08898 -1.44236 0)
(3.10222 -1.30451 0)
(3.11351 -1.15737 0)
(3.11886 -1.04802 0)
(3.12864 -0.927088 0)
(3.13217 -0.811478 0)
(3.12201 -0.688148 0)
(3.10691 -0.544268 0)
(3.08102 -0.396523 0)
(3.04685 -0.246193 0)
(3.00464 -0.0951702 0)
(2.95265 0.0520125 0)
(2.89206 0.198319 0)
(2.83101 0.335723 0)
(2.80856 0.388874 0)
(2.81182 0.379488 0)
(2.86707 0.284647 0)
(2.95286 0.11111 0)
(2.99573 0.0102598 0)
(2.99991 0.000191569 0)
(3 1.42813e-06 0)
(3 7.91487e-09 0)
(3 3.78404e-11 0)
(3 1.36405e-13 0)
(2.53013 -1.37326 0)
(2.6193 -1.42595 0)
(2.79564 -1.54796 0)
(2.97549 -1.63363 0)
(3.06929 -1.66482 0)
(3.09345 -1.67535 0)
(3.08425 -1.69454 0)
(3.07091 -1.69309 0)
(3.04079 -1.68728 0)
(3.04307 -1.57024 0)
(3.03211 -1.56999 0)
(3.06991 -1.41206 0)
(3.0918 -1.30439 0)
(3.10885 -1.17434 0)
(3.11758 -1.08713 0)
(3.1265 -0.95909 0)
(3.12901 -0.835566 0)
(3.12284 -0.693894 0)
(3.1097 -0.544785 0)
(3.08772 -0.384993 0)
(3.05535 -0.223049 0)
(3.01142 -0.0663643 0)
(2.95561 0.0860839 0)
(2.88903 0.237545 0)
(2.8247 0.358749 0)
(2.80815 0.390575 0)
(2.8176 0.383132 0)
(2.87701 0.277064 0)
(2.96189 0.0930388 0)
(2.99719 0.00672654 0)
(2.99995 0.000105984 0)
(3 7.38713e-07 0)
(3 3.99013e-09 0)
(3 1.87735e-11 0)
(3 6.70955e-14 0)
(2.52843 -1.36939 0)
(2.61542 -1.42808 0)
(2.80256 -1.54729 0)
(2.9866 -1.63374 0)
(3.0749 -1.65776 0)
(3.09379 -1.6762 0)
(3.08462 -1.70051 0)
(3.06465 -1.70027 0)
(3.03749 -1.68843 0)
(3.03447 -1.56353 0)
(3.01503 -1.57114 0)
(3.06507 -1.3947 0)
(3.08139 -1.32517 0)
(3.10158 -1.19311 0)
(3.11963 -1.09252 0)
(3.13818 -0.952443 0)
(3.14777 -0.815407 0)
(3.14682 -0.644908 0)
(3.13183 -0.481764 0)
(3.10094 -0.307409 0)
(3.05592 -0.137656 0)
(3.0013 0.0193016 0)
(2.93381 0.16826 0)
(2.86182 0.299885 0)
(2.81396 0.379081 0)
(2.8076 0.390333 0)
(2.82011 0.379472 0)
(2.88073 0.276216 0)
(2.96831 0.0736685 0)
(2.99809 0.00423373 0)
(2.99997 5.57455e-05 0)
(3 3.7051e-07 0)
(3 1.97176e-09 0)
(3 9.18072e-12 0)
(3 3.26561e-14 0)
(2.52845 -1.36663 0)
(2.61103 -1.43291 0)
(2.80509 -1.54827 0)
(2.98598 -1.62896 0)
(3.07082 -1.65017 0)
(3.08916 -1.67517 0)
(3.08594 -1.70003 0)
(3.05635 -1.7044 0)
(3.02683 -1.69011 0)
(3.02866 -1.54177 0)
(3.01294 -1.57095 0)
(3.06356 -1.40651 0)
(3.08357 -1.32495 0)
(3.11075 -1.18713 0)
(3.14612 -1.05145 0)
(3.16317 -0.894412 0)
(3.16386 -0.731556 0)
(3.13452 -0.555021 0)
(3.10129 -0.386907 0)
(3.05782 -0.221827 0)
(3.011 -0.0661762 0)
(2.95958 0.0777584 0)
(2.90135 0.209493 0)
(2.84406 0.320181 0)
(2.80824 0.386169 0)
(2.80626 0.389307 0)
(2.82307 0.35537 0)
(2.89412 0.224747 0)
(2.97831 0.0483261 0)
(2.99897 0.00223114 0)
(2.99999 2.67642e-05 0)
(3 1.76281e-07 0)
(3 9.39609e-10 0)
(3 4.36618e-12 0)
(3 1.54981e-14 0)
(2.52854 -1.366 0)
(2.60714 -1.44042 0)
(2.79853 -1.5473 0)
(2.97974 -1.6243 0)
(3.06802 -1.6448 0)
(3.09072 -1.66892 0)
(3.08767 -1.68958 0)
(3.05516 -1.69764 0)
(3.03017 -1.68949 0)
(3.04787 -1.5406 0)
(3.02927 -1.56221 0)
(3.0747 -1.39796 0)
(3.10647 -1.29055 0)
(3.13379 -1.13797 0)
(3.14349 -0.998373 0)
(3.13529 -0.822182 0)
(3.11764 -0.646343 0)
(3.10777 -0.514263 0)
(3.08092 -0.360139 0)
(3.04878 -0.221767 0)
(3.00752 -0.0790583 0)
(2.95715 0.0622336 0)
(2.89876 0.196102 0)
(2.83831 0.32021 0)
(2.80566 0.390572 0)
(2.80519 0.389693 0)
(2.83678 0.335244 0)
(2.92744 0.1732 0)
(2.98699 0.0325417 0)
(2.99948 0.00123336 0)
(2.99999 1.30641e-05 0)
(3 8.35278e-08 0)
(3 4.41346e-10 0)
(3 2.0379e-12 0)
(3 6.96556e-15 0)
(2.52751 -1.3668 0)
(2.60281 -1.44718 0)
(2.79432 -1.54457 0)
(2.97638 -1.61682 0)
(3.07556 -1.63417 0)
(3.09987 -1.6608 0)
(3.09361 -1.68403 0)
(3.06108 -1.69147 0)
(3.03726 -1.67291 0)
(3.06673 -1.55954 0)
(3.06715 -1.51554 0)
(3.10469 -1.34477 0)
(3.11606 -1.22498 0)
(3.12018 -1.06719 0)
(3.1204 -0.940888 0)
(3.12348 -0.813119 0)
(3.1201 -0.666521 0)
(3.1032 -0.545522 0)
(3.0789 -0.393699 0)
(3.04312 -0.244624 0)
(3.00142 -0.0941473 0)
(2.95158 0.0549676 0)
(2.89418 0.201991 0)
(2.83232 0.338582 0)
(2.80434 0.39491 0)