/*--------------------------------*- C++ -*----------------------------------*\
  =========                 |
  \\      /  F ield         | OpenFOAM: The Open Source CFD Toolbox
   \\    /   O peration     | Website:  https://openfoam.org
    \\  /    A nd           | Version:  7
     \\/     M anipulation  |
\*---------------------------------------------------------------------------*/
FoamFile
{
    version     2.0;
    format      ascii;
    class       volScalarField;
    location    "2.5";
    object      p;
}
// * * * * * * * * * * * * * * * * * * * * * * * * * * * * * * * * * * * * * //

dimensions      [1 -1 -2 0 0 0 0];

internalField   nonuniform List<scalar> 
90000
(
0.551679
0.563182
0.575656
0.587005
0.597124
0.60797
0.618329
0.627887
0.637312
0.647598
0.658557
0.671153
0.685041
0.700423
0.716095
0.732339
0.748287
0.764708
0.78053
0.796804
0.812218
0.82833
0.84338
0.859149
0.873435
0.888665
0.902011
0.916443
0.928575
0.94195
0.952321
0.964024
0.972346
0.981947
0.987997
0.994145
0.99922
1.00218
1.0029
1.00322
1.00257
1.00163
0.999336
0.994491
0.985744
0.977288
0.971142
0.969555
0.970473
0.973812
0.978776
0.984347
0.989918
0.993748
0.9965
0.996665
0.996272
0.995068
0.993048
0.990783
0.987959
0.985143
0.984506
0.986023
0.989258
0.993226
0.998221
0.998934
1.00017
0.99954
0.997855
0.994687
0.990999
0.988663
0.988393
0.989148
0.991183
0.991323
0.991167
0.989905
0.988575
0.989023
0.990314
0.990325
0.99126
0.992391
0.993113
0.993768
0.993122
0.992694
0.992508
0.99209
0.992294
0.992975
0.993253
0.99366
0.993769
0.992963
0.991841
0.991435
0.542036
0.542361
0.543123
0.544194
0.545503
0.547374
0.549999
0.552924
0.556129
0.559861
0.564287
0.569148
0.574637
0.58078
0.587916
0.595673
0.604476
0.613928
0.624689
0.635998
0.648631
0.661672
0.676216
0.690925
0.706987
0.723038
0.740481
0.757668
0.775917
0.793831
0.812216
0.830136
0.847841
0.865458
0.881579
0.898437
0.911601
0.927091
0.9371
0.948314
0.954644
0.961977
0.965193
0.970155
0.978655
0.988934
0.995303
0.999914
1.00033
0.999233
0.997155
0.994326
0.991434
0.988551
0.986039
0.986146
0.986054
0.985498
0.986055
0.987735
0.991041
0.994362
0.996532
0.999079
0.99871
0.997328
0.995181
0.992235
0.990971
0.991166
0.991095
0.992709
0.996502
0.995896
0.993913
0.990969
0.988437
0.98588
0.986748
0.990264
0.992784
0.992777
0.991099
0.989238
0.98987
0.992468
0.994582
0.993869
0.992232
0.990979
0.991937
0.992968
0.993346
0.992519
0.992641
0.993626
0.993944
0.99336
0.992564
0.991981
0.542254
0.542195
0.542091
0.542054
0.541957
0.541882
0.54187
0.541866
0.541827
0.5418
0.541839
0.541946
0.542066
0.542191
0.542415
0.54274
0.543189
0.543767
0.54475
0.546117
0.547991
0.550323
0.553343
0.556945
0.561538
0.566889
0.573795
0.581711
0.591814
0.602971
0.61697
0.631845
0.65019
0.669345
0.69232
0.715617
0.742258
0.769256
0.798137
0.827363
0.855447
0.884672
0.909727
0.936679
0.95207
0.965633
0.971529
0.977592
0.979516
0.981417
0.98214
0.983085
0.983298
0.982471
0.980868
0.98097
0.981912
0.985301
0.989747
0.995257
1.0004
1.00266
1.00327
1.00208
0.998214
0.993256
0.987784
0.983341
0.982322
0.98447
0.990116
0.996165
0.999717
0.999046
0.995463
0.990289
0.984319
0.984978
0.988273
0.992502
0.994409
0.992887
0.990337
0.9891
0.989914
0.991862
0.993637
0.993317
0.992383
0.992261
0.992692
0.993119
0.992739
0.992125
0.992248
0.992905
0.993679
0.993576
0.99295
0.991798
0.541564
0.541494
0.541449
0.5414
0.541358
0.541332
0.541326
0.54135
0.541372
0.541357
0.541318
0.541279
0.54124
0.541174
0.541104
0.541057
0.54104
0.541122
0.541046
0.540982
0.540961
0.540972
0.540978
0.540985
0.541021
0.541086
0.54127
0.541581
0.542105
0.54287
0.544181
0.545978
0.548648
0.552183
0.557404
0.563885
0.573267
0.584442
0.600401
0.618101
0.642178
0.667696
0.700197
0.733163
0.768999
0.805198
0.836744
0.869764
0.892246
0.917397
0.931062
0.947261
0.95473
0.964283
0.966784
0.972542
0.979734
0.989893
0.995838
1.00036
1.00271
1.00267
1.00197
0.998926
0.994612
0.99057
0.987267
0.986365
0.988845
0.991885
0.995394
0.995346
0.994545
0.992525
0.990483
0.989531
0.989644
0.991152
0.992489
0.992656
0.992314
0.991945
0.991606
0.991687
0.991653
0.991793
0.992225
0.992904
0.992452
0.99253
0.992327
0.992854
0.992776
0.992395
0.992281
0.99274
0.99367
0.993649
0.993189
0.992185
0.541631
0.541604
0.541584
0.54157
0.541569
0.541579
0.541576
0.541568
0.54157
0.541572
0.54156
0.541538
0.541516
0.541494
0.541458
0.541405
0.541343
0.541265
0.541192
0.54116
0.541137
0.541111
0.541092
0.541098
0.541122
0.541147
0.541175
0.541258
0.541395
0.541672
0.541756
0.541855
0.541987
0.542154
0.542368
0.54266
0.543119
0.543799
0.544948
0.546734
0.549712
0.553868
0.560864
0.569932
0.584907
0.602898
0.630367
0.660301
0.700102
0.740362
0.785152
0.828557
0.867269
0.906485
0.932888
0.959743
0.970434
0.979768
0.985715
0.989737
0.992107
0.991493
0.98699
0.976753
0.978157
0.981397
0.988831
0.994986
0.998136
0.996119
0.995138
0.992058
0.988365
0.986452
0.987566
0.991122
0.994949
0.995483
0.994089
0.990925
0.989276
0.989929
0.991977
0.993677
0.993073
0.991281
0.990161
0.990758
0.992351
0.993864
0.993263
0.992368
0.991917
0.992076
0.992236
0.992513
0.993036
0.99351
0.993508
0.992692
0.541386
0.541391
0.541383
0.541374
0.541406
0.541511
0.541533
0.541536
0.541537
0.541531
0.541518
0.541494
0.541489
0.541507
0.541538
0.541561
0.541585
0.541612
0.541631
0.541634
0.54163
0.541638
0.541665
0.541711
0.541752
0.541786
0.541832
0.541904
0.542012
0.542131
0.542276
0.542428
0.542593
0.542803
0.543051
0.543315
0.543609
0.543942
0.544265
0.54453
0.544888
0.545433
0.546027
0.546526
0.547128
0.54812
0.550322
0.554074
0.561618
0.572649
0.592047
0.616508
0.653102
0.692589
0.74285
0.789932
0.83443
0.871763
0.900112
0.922212
0.936917
0.949055
0.954081
0.967356
0.981055
0.991544
1.00068
1.00235
1.00167
0.997015
0.98768
0.980687
0.98096
0.983595
0.990137
0.997481
0.998083
0.997283
0.994755
0.991854
0.989493
0.990634
0.992868
0.994813
0.994089
0.992143
0.989717
0.989862
0.991526
0.993385
0.994124
0.993104
0.991947
0.992035
0.992343
0.992561
0.992612
0.992925
0.993045
0.99275
0.54114
0.541147
0.541162
0.541198
0.541282
0.541394
0.541441
0.541457
0.541472
0.541491
0.54151
0.541523
0.541556
0.541636
0.541715
0.541767
0.541838
0.541952
0.542003
0.542021
0.542044
0.542098
0.542181
0.542226
0.542249
0.542291
0.542387
0.542536
0.542647
0.542707
0.542766
0.542831
0.542928
0.543082
0.543281
0.543505
0.543741
0.543944
0.544097
0.544277
0.544549
0.544867
0.545141
0.545397
0.545667
0.545835
0.545929
0.546088
0.546352
0.546781
0.547631
0.549432
0.553415
0.560405
0.574416
0.594659
0.628678
0.668481
0.72022
0.772282
0.826439
0.874993
0.917711
0.959241
0.978182
0.987467
0.995953
0.997271
0.991484
0.971807
0.971584
0.975147
0.98362
0.992581
0.997197
0.997657
0.996351
0.992583
0.988415
0.989346
0.992235
0.994712
0.994341
0.993642
0.991755
0.990083
0.990102
0.99127
0.992217
0.992264
0.992381
0.992163
0.99225
0.992317
0.992323
0.992405
0.99254
0.992776
0.993112
0.992948
0.541211
0.541266
0.541335
0.541423
0.541524
0.541606
0.541666
0.54172
0.541779
0.541851
0.541917
0.541976
0.542156
0.54234
0.542383
0.54241
0.542467
0.542569
0.542653
0.542719
0.542807
0.542918
0.542953
0.542963
0.54298
0.543047
0.543181
0.543266
0.543276
0.543259
0.543252
0.543264
0.543318
0.543415
0.543531
0.543657
0.543764
0.543848
0.543938
0.544087
0.544296
0.544467
0.544613
0.544793
0.545005
0.545244
0.545425
0.545478
0.545484
0.545439
0.545301
0.545093
0.544737
0.544602
0.544723
0.545529
0.548104
0.554227
0.566056
0.587432
0.619414
0.663016
0.719918
0.772965
0.832517
0.873787
0.908609
0.932289
0.947625
0.956473
0.98019
0.991012
0.998947
1.00089
0.999963
0.99235
0.98369
0.985026
0.98737
0.993502
0.999186
0.998645
0.996267
0.991185
0.988887
0.989283
0.991349
0.993761
0.993405
0.991966
0.990929
0.991374
0.992482
0.992667
0.992475
0.992203
0.992219
0.992299
0.992532
0.992953
0.541832
0.54191
0.542011
0.542115
0.542204
0.542279
0.542353
0.542448
0.542533
0.542627
0.542701
0.542825
0.543132
0.543281
0.54327
0.54327
0.543335
0.543486
0.543611
0.543714
0.54381
0.543845
0.543839
0.54383
0.543844
0.543902
0.543936
0.543927
0.543898
0.543848
0.543781
0.543763
0.543771
0.543795
0.543854
0.543856
0.543827
0.543821
0.543846
0.543925
0.544027
0.544081
0.544127
0.544212
0.544339
0.544489
0.544577
0.544581
0.544551
0.544422
0.544218
0.543995
0.543718
0.543181
0.542493
0.542312
0.542328
0.542446
0.542837
0.54404
0.546952
0.553713
0.56707
0.591087
0.629227
0.68393
0.749449
0.81185
0.885607
0.942636
0.977556
0.986208
0.996028
0.995495
0.985705
0.968914
0.972874
0.98137
0.993233
1.00062
1.00021
0.99711
0.99096
0.988539
0.988954
0.991659
0.994178
0.99407
0.992447
0.990156
0.990274
0.991476
0.992372
0.992543
0.992459
0.992253
0.992147
0.992071
0.992193
0.992781
0.542565
0.542716
0.542783
0.542803
0.542822
0.54286
0.542924
0.543009
0.543114
0.54322
0.543327
0.543485
0.543598
0.543645
0.543673
0.543718
0.543811
0.543951
0.544084
0.544173
0.544198
0.544199
0.544197
0.544209
0.544233
0.544234
0.544195
0.544105
0.54405
0.544017
0.544002
0.543989
0.543956
0.543891
0.543816
0.543741
0.543637
0.543564
0.543507
0.543443
0.543316
0.543197
0.543166
0.543134
0.543122
0.543157
0.543219
0.543252
0.543237
0.543173
0.54308
0.542983
0.542782
0.542194
0.541599
0.541394
0.541255
0.541159
0.541154
0.541206
0.54139
0.541805
0.542521
0.5442
0.547703
0.557862
0.575667
0.613358
0.663821
0.735984
0.809338
0.85955
0.916187
0.933716
0.949184
0.9651
0.989335
1.0001
1.00087
1.00039
0.993337
0.986644
0.986759
0.988676
0.993216
0.996239
0.995812
0.992659
0.990277
0.98999
0.990853
0.992102
0.992142
0.992007
0.992113
0.992369
0.992263
0.991989
0.99201
0.992645
0.543461
0.543524
0.543596
0.543686
0.54376
0.543829
0.5439
0.544018
0.544129
0.544169
0.544188
0.544218
0.544267
0.544289
0.544305
0.544334
0.544398
0.544514
0.544618
0.544638
0.544634
0.544627
0.544611
0.544603
0.5446
0.544577
0.544503
0.544364
0.544234
0.544172
0.544143
0.544114
0.544043
0.543946
0.543847
0.543731
0.543584
0.543386
0.543189
0.542965
0.542663
0.54244
0.542297
0.542065
0.541861
0.541818
0.541827
0.54187
0.541922
0.542027
0.542082
0.542069
0.541947
0.54155
0.541176
0.540977
0.540809
0.540659
0.540617
0.540639
0.540766
0.541067
0.541467
0.541686
0.541715
0.541846
0.54255
0.545617
0.552582
0.574008
0.606457
0.669682
0.743428
0.819511
0.908632
0.957412
0.984736
0.994364
0.996476
0.985945
0.975551
0.978799
0.987514
0.99566
0.997928
0.997235
0.993494
0.988674
0.989061
0.990892
0.992665
0.992355
0.991099
0.991238
0.991767
0.99239
0.992304
0.991837
0.991917
0.992607
0.544258
0.54441
0.544443
0.544448
0.544445
0.54444
0.544436
0.544407
0.544306
0.544251
0.54423
0.544211
0.544205
0.544212
0.544247
0.544308
0.544372
0.544434
0.544446
0.544414
0.544393
0.544395
0.544406
0.5444
0.544374
0.544297
0.544147
0.54407
0.544007
0.543919
0.543819
0.543773
0.543754
0.543671
0.543457
0.543205
0.543017
0.542873
0.542713
0.542478
0.542206
0.541977
0.541686
0.541232
0.541019
0.540981
0.540976
0.541005
0.541102
0.541308
0.541467
0.541477
0.541401
0.541226
0.540976
0.540764
0.540581
0.540416
0.540355
0.54039
0.54056
0.540948
0.541553
0.542048
0.542152
0.542091
0.541726
0.541562
0.541707
0.542634
0.545241
0.554785
0.572855
0.619088
0.679842
0.762663
0.844643
0.889558
0.937027
0.945967
0.975638
0.986849
0.999633
0.999809
0.997681
0.991154
0.987858
0.988641
0.991515
0.994105
0.993694
0.991113
0.990196
0.990732
0.991989
0.992401
0.99187
0.991692
0.992276
0.993049
0.544699
0.544695
0.54468
0.544654
0.544576
0.544504
0.544481
0.54444
0.544323
0.544169
0.544063
0.543979
0.543933
0.543945
0.543985
0.544026
0.54405
0.544076
0.544096
0.544068
0.544042
0.544014
0.54395
0.543906
0.543899
0.543881
0.543813
0.543622
0.543406
0.543364
0.543367
0.543338
0.543175
0.542862
0.542715
0.542675
0.542642
0.542584
0.542452
0.542229
0.541981
0.54174
0.541406
0.54097
0.540793
0.540759
0.540748
0.540751
0.540813
0.540982
0.541187
0.541272
0.541227
0.541075
0.541132
0.541201
0.54117
0.54089
0.540481
0.540421
0.540533
0.540933
0.541553
0.542096
0.542271
0.542211
0.542024
0.541838
0.541858
0.541944
0.542084
0.542331
0.543059
0.546708
0.556089
0.587026
0.635623
0.718393
0.810174
0.89093
0.966444
0.98086
0.99646
0.993385
0.97875
0.978785
0.983925
0.992884
0.996319
0.99546
0.991788
0.989337
0.990137
0.991966
0.992211
0.991636
0.991073
0.991568
0.99318
0.993243
0.545172
0.545117
0.545056
0.544989
0.544903
0.544805
0.54469
0.544554
0.544404
0.544258
0.544125
0.544008
0.543883
0.543707
0.543529
0.543414
0.543331
0.543219
0.543018
0.542804
0.54271
0.54261
0.542445
0.542402
0.542393
0.542344
0.542177
0.54211
0.542112
0.542144
0.542225
0.542269
0.542218
0.542184
0.542195
0.542256
0.542354
0.542392
0.542376
0.542253
0.542012
0.541691
0.541303
0.540968
0.540781
0.540734
0.540726
0.540729
0.540778
0.540922
0.541126
0.541281
0.541313
0.541386
0.541802
0.542082
0.542086
0.541858
0.541434
0.541328
0.541372
0.541504
0.541723
0.542051
0.542292
0.542281
0.542146
0.541943
0.541895
0.541945
0.541961
0.54189
0.541747
0.541723
0.541939
0.543398
0.548596
0.56796
0.605023
0.680661
0.769491
0.842738
0.925458
0.935762
0.960518
0.976296
0.995842
0.998752
0.996486
0.990053
0.987986
0.989479
0.993453
0.993396
0.991869
0.990282
0.990728
0.992923
0.993739
0.993128
0.54364
0.543589
0.543529
0.543469
0.543399
0.543306
0.543203
0.54311
0.543015
0.542901
0.54276
0.542607
0.542492
0.542387
0.542283
0.542201
0.542141
0.542074
0.541963
0.541836
0.541747
0.54162
0.541419
0.541331
0.541292
0.541221
0.541186
0.541188
0.541246
0.54144
0.541647
0.54177
0.541949
0.542028
0.542039
0.542129
0.542416
0.542706
0.542801
0.54279
0.542665
0.542358
0.542015
0.541777
0.541624
0.541607
0.541628
0.541621
0.54154
0.541491
0.541545
0.541682
0.541778
0.541943
0.542479
0.542897
0.542919
0.542772
0.542603
0.542517
0.542382
0.542174
0.542072
0.542143
0.542375
0.542432
0.542326
0.542155
0.542069
0.542045
0.541988
0.541829
0.541655
0.541592
0.541596
0.541663
0.54184
0.54267
0.545553
0.55879
0.585702
0.65546
0.745032
0.838317
0.944092
0.969324
0.992582
0.991375
0.978452
0.979008
0.985358
0.994821
0.995709
0.993808
0.988906
0.989365
0.992272
0.994502
0.993808
0.99191
0.542573
0.542531
0.542453
0.542428
0.542422
0.542418
0.542406
0.542385
0.542355
0.542295
0.542193
0.542051
0.54189
0.541712
0.541541
0.541346
0.541239
0.541196
0.54116
0.541109
0.541041
0.540929
0.540786
0.54059
0.540449
0.540427
0.540425
0.540434
0.540524
0.540831
0.541178
0.541325
0.54151
0.541704
0.541769
0.541882
0.542166
0.542469
0.542614
0.542643
0.542599
0.542422
0.542166
0.541983
0.54186
0.5419
0.542128
0.542211
0.542193
0.542067
0.541966
0.541961
0.542048
0.542299
0.542846
0.543289
0.543343
0.5433
0.543281
0.543251
0.543001
0.5426
0.542518
0.542602
0.542722
0.5427
0.542587
0.542481
0.542444
0.542419
0.542333
0.542141
0.541846
0.541706
0.541725
0.541851
0.54206
0.542236
0.542397
0.542791
0.544373
0.553079
0.574166
0.638571
0.72329
0.812158
0.912281
0.927453
0.955051
0.975048
0.99734
0.99868
0.994594
0.987019
0.987815
0.992585
0.995091
0.994343
0.991152
0.991034
0.542377
0.542381
0.54237
0.542331
0.54232
0.542297
0.542273
0.54229
0.542325
0.542328
0.542287
0.542154
0.541974
0.541818
0.541679
0.541401
0.541157
0.541135
0.54116
0.541179
0.541169
0.541127
0.541058
0.540965
0.540877
0.540843
0.540832
0.540844
0.540923
0.541155
0.541613
0.542045
0.542155
0.542163
0.542125
0.542137
0.542263
0.542401
0.542493
0.54252
0.542468
0.542289
0.54204
0.541847
0.541831
0.541972
0.542483
0.542792
0.542827
0.542811
0.542605
0.542449
0.54245
0.542527
0.542717
0.543221
0.543644
0.543681
0.543672
0.543563
0.543089
0.542662
0.542642
0.542813
0.54294
0.542898
0.542801
0.542785
0.542808
0.542855
0.542841
0.542734
0.542415
0.542134
0.542144
0.542243
0.54244
0.542502
0.542423
0.542339
0.542179
0.542266
0.543167
0.549865
0.568142
0.628475
0.714593
0.818745
0.935745
0.96741
0.992621
0.990123
0.972469
0.978437
0.990973
0.998103
0.996334
0.990206
0.988761
0.991104
0.542321
0.542505
0.542647
0.542698
0.542702
0.542695
0.542613
0.542524
0.542527
0.542564
0.542563
0.542481
0.54242
0.542445
0.542454
0.542325
0.542037
0.541995
0.541987
0.541975
0.541994
0.542037
0.542033
0.541989
0.5419
0.54184
0.541827
0.541836
0.541854
0.541888
0.542018
0.542427
0.542625
0.542634
0.542534
0.5424
0.542412
0.542451
0.542472
0.54246
0.542344
0.541926
0.541582
0.541527
0.541558
0.541839
0.542743
0.543382
0.543447
0.543454
0.543357
0.542928
0.542718
0.542665
0.542653
0.542883
0.543488
0.543604
0.543581
0.543403
0.542796
0.542472
0.542501
0.54271
0.542785
0.542742
0.54265
0.542654
0.54281
0.543214
0.543455
0.543403
0.543153
0.542907
0.542852
0.542837
0.542813
0.542741
0.542502
0.542177
0.54199
0.541984
0.541993
0.542138
0.542992
0.54863
0.565804
0.626268
0.712187
0.812011
0.90737
0.932091
0.953828
0.989716
0.998659
0.997363
0.987229
0.986024
0.9884
0.994226
0.542538
0.542613
0.542662
0.542715
0.54274
0.542738
0.542646
0.542515
0.542524
0.54254
0.542474
0.542393
0.542399
0.542483
0.542546
0.542442
0.542315
0.542316
0.54235
0.54236
0.542426
0.542582
0.542574
0.542489
0.54246
0.542484
0.542521
0.542541
0.542535
0.542504
0.542456
0.542567
0.542766
0.542806
0.542738
0.54259
0.542645
0.542778
0.542791
0.542698
0.54224
0.541729
0.541618
0.54158
0.541596
0.54187
0.542986
0.543825
0.543904
0.543923
0.543882
0.543427
0.542857
0.542723
0.54269
0.542895
0.543081
0.543054
0.542892
0.542443
0.542201
0.542204
0.54243
0.542935
0.543021
0.542989
0.542836
0.54281
0.542975
0.543446
0.543781
0.543744
0.543585
0.5434
0.543171
0.543002
0.542892
0.54276
0.542518
0.542247
0.542033
0.541967
0.542034
0.542424
0.542671
0.542829
0.543533
0.548732
0.56667
0.627603
0.717644
0.835223
0.940877
0.981222
0.993787
0.978399
0.972098
0.982302
0.995755
0.995619
0.540942
0.541511
0.541776
0.54189
0.54204
0.542114
0.542106
0.541912
0.541656
0.541635
0.541669
0.541877
0.542097
0.542213
0.542268
0.542161
0.542075
0.5421
0.542154
0.542168
0.542265
0.542446
0.542422
0.542277
0.542218
0.542292
0.542321
0.542337
0.542417
0.542478
0.542613
0.542861
0.542972
0.543
0.542944
0.542998
0.543295
0.543407
0.543371
0.542992
0.541997
0.541638
0.54158
0.541524
0.541533
0.541819
0.542931
0.543969
0.544107
0.544109
0.544022
0.543577
0.542725
0.542387
0.542344
0.542533
0.542773
0.54281
0.542484
0.541777
0.54163
0.541676
0.542336
0.543519
0.543803
0.543767
0.543469
0.543205
0.543247
0.543515
0.543707
0.54367
0.54358
0.54344
0.543101
0.542528
0.542194
0.542065
0.542
0.541963
0.542
0.54211
0.542498
0.543124
0.543199
0.543188
0.543031
0.542887
0.543362
0.548287
0.569762
0.632941
0.735695
0.838797
0.909463
0.941601
0.971527
1.00052
1.00025
0.991695
0.53976
0.540233
0.541894
0.542287
0.542304
0.542423
0.542443
0.542339
0.541972
0.541914
0.541791
0.541545
0.541489
0.541545
0.541837
0.541965
0.54192
0.541812
0.541752
0.54179
0.541896
0.541874
0.541617
0.541326
0.541271
0.541341
0.541441
0.541384
0.541396
0.541757
0.542464
0.542757
0.542866
0.543015
0.543267
0.543668
0.544013
0.544076
0.54403
0.543683
0.542591
0.541537
0.541157
0.541049
0.541088
0.541429
0.54247
0.543131
0.54322
0.543055
0.543061
0.543124
0.542742
0.541906
0.541519
0.541633
0.54231
0.542846
0.542821
0.542096
0.541339
0.541362
0.542207
0.543776
0.544268
0.544243
0.543909
0.54349
0.543375
0.543466
0.543518
0.543471
0.543394
0.543176
0.542641
0.541984
0.541764
0.541784
0.54188
0.542131
0.542398
0.542656
0.54315
0.543449
0.543437
0.543372
0.543115
0.542508
0.541926
0.541979
0.54296
0.549392
0.578012
0.647029
0.753536
0.895617
0.962608
0.99586
0.988794
0.975846
0.539705
0.540413
0.540579
0.540647
0.540696
0.54069
0.540636
0.540598
0.540422
0.539896
0.539578
0.539611
0.540062
0.540725
0.540802
0.540745
0.540681
0.540569
0.540351
0.540041
0.539562
0.539176
0.538917
0.538743
0.538493
0.537752
0.536475
0.535877
0.535875
0.536165
0.536998
0.537935
0.538589
0.539321
0.540332
0.541681
0.542692
0.542856
0.542854
0.542647
0.542101
0.541186
0.539712
0.538389
0.538096
0.538338
0.539257
0.539993
0.540112
0.540255
0.540832
0.54173
0.541775
0.541048
0.540309
0.540426
0.54139
0.542746
0.543128
0.54291
0.54217
0.541643
0.542055
0.543213
0.544088
0.544159
0.543842
0.543403
0.543182
0.542784
0.54228
0.542174
0.542207
0.54221
0.54211
0.541815
0.541838
0.542038
0.54234
0.542727
0.542901
0.543104
0.543327
0.543468
0.54339
0.543062
0.542395
0.541792
0.54174
0.541865
0.542153
0.54253
0.544288
0.552195
0.589286
0.667461
0.781264
0.885959
0.926815
0.970074
0.53618
0.536235
0.536284
0.536262
0.536163
0.536119
0.536119
0.53617
0.536177
0.535898
0.535411
0.535347
0.535636
0.536702
0.537384
0.53748
0.53761
0.537792
0.537811
0.537685
0.537234
0.536516
0.535821
0.535242
0.534644
0.533632
0.531574
0.529562
0.529135
0.529111
0.529156
0.529453
0.529885
0.530392
0.531219
0.532588
0.534229
0.535972
0.537781
0.53822
0.538201
0.537835
0.536601
0.534936
0.534416
0.534592
0.535404
0.536657
0.537696
0.539021
0.540574
0.540673
0.540406
0.539478
0.538739
0.538771
0.539539
0.541476
0.542675
0.542648
0.542191
0.541458
0.540805
0.540798
0.541208
0.541938
0.542362
0.542323
0.541703
0.540556
0.540056
0.540136
0.540534
0.541157
0.541739
0.542151
0.542436
0.542655
0.542802
0.542967
0.543041
0.543124
0.54317
0.542961
0.542475
0.541887
0.541526
0.54157
0.541832
0.542475
0.543018
0.543323
0.543325
0.543501
0.545568
0.557301
0.605607
0.696227
0.833063
0.960513
0.527969
0.527943
0.527943
0.527949
0.527977
0.528066
0.528293
0.528683
0.529215
0.529491
0.529542
0.529605
0.529977
0.531349
0.532662
0.532782
0.532769
0.532877
0.53351
0.533801
0.533662
0.533334
0.533406
0.533482
0.533374
0.532814
0.531351
0.528426
0.525642
0.525034
0.524904
0.524871
0.525081
0.525203
0.525394
0.526084
0.527691
0.529989
0.532496
0.534303
0.53466
0.534597
0.533958
0.532811
0.532602
0.53274
0.533091
0.53352
0.53407
0.534786
0.536276
0.536955
0.536902
0.536207
0.534477
0.533817
0.53392
0.53493
0.537096
0.538072
0.53808
0.537642
0.536423
0.5359
0.535943
0.536323
0.537191
0.537898
0.538141
0.53831
0.538547
0.539173
0.540058
0.540957
0.54183
0.542297
0.54254
0.542697
0.542794
0.542868
0.542941
0.542744
0.542118
0.541419
0.540907
0.540949
0.541169
0.541713
0.542532
0.542993
0.543284
0.543404
0.543384
0.543145
0.542575
0.542858
0.546206
0.567215
0.622445
0.787717
0.529526
0.529603
0.529666
0.529685
0.529785
0.529969
0.530277
0.530773
0.531097
0.531249
0.531527
0.531766
0.532228
0.533508
0.534568
0.535003
0.535384
0.535934
0.536408
0.536593
0.536866
0.53737
0.537791
0.538285
0.538857
0.539136
0.539197
0.538878
0.536685
0.534756
0.53457
0.534394
0.533598
0.532433
0.532243
0.532412
0.533147
0.534047
0.534923
0.535758
0.536436
0.537132
0.537643
0.537567
0.537336
0.537317
0.537149
0.536085
0.535185
0.535167
0.53592
0.537261
0.537432
0.537005
0.535212
0.532867
0.531483
0.53141
0.53164
0.532719
0.533437
0.533465
0.532972
0.532032
0.532055
0.532437
0.533228
0.533867
0.534422
0.534963
0.535502
0.536304
0.537808
0.538852
0.539655
0.540896
0.541121
0.54081
0.540443
0.540384
0.540326
0.53995
0.539797
0.539916
0.540285
0.541038
0.541812
0.542383
0.542999
0.543117
0.543239
0.543207
0.542899
0.54229
0.542149
0.542318
0.54259
0.543784
0.549359
0.625391
0.543674
0.54354
0.54346
0.543376
0.54337
0.543926
0.545159
0.54558
0.545526
0.545182
0.545078
0.545246
0.546024
0.546681
0.547318
0.548379
0.54872
0.548372
0.546361
0.545315
0.545463
0.5457
0.545642
0.545801
0.546673
0.548045
0.548474
0.548497
0.548004
0.546931
0.546781
0.546758
0.546366
0.544359
0.541238
0.539037
0.537756
0.537625
0.537858
0.538226
0.538327
0.538268
0.538141
0.537814
0.537543
0.537519
0.537215
0.535653
0.533093
0.532443
0.532585
0.533825
0.534841
0.53495
0.534404
0.532925
0.531635
0.530682
0.530525
0.530879
0.532133
0.532957
0.532955
0.532421
0.531675
0.531821
0.532771
0.534363
0.535677
0.536584
0.537381
0.537351
0.536583
0.535349
0.53475
0.534904
0.53518
0.535235
0.535355
0.535681
0.536134
0.536618
0.537349
0.538331
0.539705
0.540858
0.541756
0.54225
0.542797
0.542731
0.542273
0.541674
0.541165
0.54129
0.541823
0.542536
0.543007
0.543235
0.543406
0.555107
0.572375
0.57198
0.572247
0.573151
0.573158
0.571829
0.56999
0.569575
0.569385
0.569251
0.56923
0.56927
0.568655
0.568231
0.567621
0.566015
0.564324
0.560759
0.555693
0.554206
0.554392
0.554535
0.554249
0.553068
0.552768
0.55281
0.553605
0.554366
0.554117
0.553915
0.554398
0.555679
0.556017
0.555082
0.550829
0.545739
0.54491
0.545528
0.547586
0.548117
0.547827
0.546525
0.545356
0.54529
0.545199
0.544583
0.542784
0.539829
0.53709
0.536139
0.536262
0.537162
0.538242
0.539368
0.541319
0.542622
0.542361
0.540667
0.537559
0.535751
0.536046
0.537882
0.540354
0.540953
0.54078
0.54079
0.540663
0.539788
0.538882
0.538908
0.538996
0.538685
0.537149
0.534702
0.533417
0.533391
0.533391
0.533438
0.533559
0.533704
0.533905
0.534278
0.534852
0.535698
0.536647
0.538098
0.539194
0.5396
0.539519
0.538932
0.538706
0.538817
0.539501
0.540765
0.542248
0.542667
0.543026
0.54308
0.542624
0.543356
0.612856
0.612936
0.613366
0.614671
0.615507
0.615283
0.613151
0.611804
0.611722
0.611804
0.613062
0.614516
0.614541
0.613927
0.612696
0.612177
0.612857
0.612985
0.610437
0.606662
0.604909
0.603749
0.602984
0.602055
0.600458
0.599095
0.598447
0.598012
0.597993
0.598975
0.59898
0.597678
0.596183
0.595265
0.593685
0.58987
0.586119
0.585422
0.585805
0.585808
0.584684
0.582785
0.581813
0.581706
0.581782
0.581909
0.580822
0.576664
0.572883
0.571042
0.569182
0.568137
0.567152
0.565195
0.563738
0.563872
0.563908
0.562822
0.55953
0.555796
0.553464
0.552133
0.550728
0.54896
0.547527
0.545741
0.54393
0.542066
0.53936
0.537969
0.538092
0.537789
0.536589
0.534602
0.533418
0.533453
0.533568
0.53368
0.533985
0.534749
0.535815
0.536984
0.538092
0.53805
0.537839
0.537377
0.536316
0.535691
0.534986
0.534928
0.535081
0.535452
0.536606
0.538756
0.541508
0.542222
0.5418
0.541155
0.541045
0.541763
0.65833
0.658324
0.658621
0.65986
0.660536
0.660461
0.658879
0.657642
0.657508
0.656249
0.651348
0.648369
0.648449
0.648978
0.648802
0.648941
0.650539
0.651259
0.650053
0.647929
0.647848
0.648257
0.647738
0.644017
0.640487
0.639957
0.639288
0.638482
0.638864
0.640522
0.640849
0.639183
0.637108
0.637245
0.636996
0.633581
0.630726
0.629531
0.628419
0.6267
0.622063
0.616264
0.613129
0.610315
0.606837
0.60638
0.607101
0.606078
0.603411
0.603106
0.603386
0.602846
0.600745
0.595665
0.58638
0.582523
0.581719
0.579872
0.577111
0.57661
0.576453
0.575335
0.571828
0.565505
0.558099
0.555966
0.556469
0.557589
0.556659
0.552227
0.547159
0.546192
0.546943
0.548793
0.548851
0.548392
0.547865
0.546736
0.546193
0.545701
0.545039
0.543933
0.542408
0.540041
0.538577
0.536719
0.535647
0.535336
0.534823
0.534917
0.535348
0.536483
0.538339
0.539324
0.538889
0.537956
0.5378
0.538063
0.539268
0.54152
0.721304
0.721155
0.721008
0.720692
0.719785
0.71902
0.719026
0.720529
0.722213
0.721721
0.717393
0.712148
0.711359
0.71193
0.712331
0.711074
0.708799
0.708139
0.707545
0.706669
0.706769
0.707277
0.706249
0.701237
0.698845
0.698986
0.69877
0.695959
0.693302
0.693245
0.692554
0.68971
0.687159
0.684921
0.682976
0.682902
0.683006
0.68166
0.678569
0.678362
0.678548
0.676808
0.67285
0.670565
0.668386
0.665405
0.662117
0.65757
0.651704
0.650049
0.65022
0.649617
0.648158
0.645197
0.640814
0.63836
0.636003
0.630014
0.624764
0.623852
0.622682
0.620287
0.617997
0.614985
0.608973
0.601973
0.597865
0.597056
0.596089
0.591917
0.5843
0.578882
0.57582
0.573199
0.56954
0.565604
0.561937
0.558619
0.555114
0.55193
0.549095
0.545809
0.542269
0.540286
0.539326
0.537991
0.537187
0.537444
0.538635
0.539882
0.541099
0.540938
0.540166
0.539215
0.536848
0.535698
0.535757
0.536172
0.537617
0.539831
0.779222
0.779812
0.779893
0.779654
0.779454
0.77852
0.776789
0.776432
0.77669
0.776961
0.776253
0.774679
0.774064
0.772949
0.770555
0.768453
0.768177
0.768346
0.768004
0.767255
0.766681
0.76504
0.763187
0.762247
0.760784
0.757952
0.75631
0.755546
0.75471
0.753416
0.751757
0.749155
0.747029
0.745468
0.744055
0.742579
0.74041
0.737265
0.73288
0.728976
0.727083
0.724339
0.72059
0.719748
0.718762
0.716444
0.713914
0.710823
0.707589
0.704829
0.702298
0.698954
0.692546
0.683794
0.680914
0.681075
0.680349
0.675216
0.66938
0.667581
0.663693
0.655307
0.650995
0.648486
0.646129
0.642861
0.636549
0.627726
0.622161
0.619808
0.616548
0.610696
0.604958
0.600167
0.595557
0.590679
0.58653
0.582708
0.578187
0.573835
0.569789
0.565885
0.563236
0.561839
0.56039
0.559014
0.556566
0.553741
0.551869
0.550106
0.548385
0.54567
0.541143
0.538625
0.536659
0.535885
0.536524
0.538683
0.540728
0.539916
0.850469
0.849562
0.849528
0.849331
0.847563
0.844201
0.84331
0.843868
0.844366
0.844159
0.843828
0.841985
0.839219
0.838883
0.838093
0.835578
0.834164
0.832892
0.831261
0.830027
0.829175
0.82716
0.826068
0.825915
0.825281
0.823087
0.819931
0.817291
0.815429
0.814091
0.812615
0.81003
0.807432
0.80579
0.804582
0.8027
0.799842
0.797501
0.795411
0.792006
0.789282
0.787547
0.785531
0.782611
0.779217
0.775861
0.769911
0.762879
0.761027
0.760455
0.759629
0.757565
0.753321
0.747851
0.742987
0.739408
0.734212
0.725282
0.722552
0.722561
0.720712
0.715501
0.708162
0.699583
0.697083
0.696063
0.693564
0.688258
0.678278
0.67163
0.668941
0.66519
0.65876
0.651651
0.646463
0.641186
0.635292
0.629188
0.623106
0.616378
0.609366
0.602943
0.595927
0.589003
0.582198
0.577059
0.571156
0.56539
0.559378
0.55426
0.550107
0.54664
0.543674
0.542632
0.544021
0.546053
0.546014
0.545169
0.543304
0.539102
0.924805
0.923062
0.922138
0.922216
0.922283
0.920657
0.91621
0.914417
0.914819
0.916269
0.916428
0.915855
0.914471
0.911528
0.90844
0.90814
0.90829
0.907689
0.904515
0.900649
0.89961
0.899076
0.898399
0.897295
0.896092
0.893824
0.890621
0.8884
0.887057
0.885484
0.883393
0.880587
0.874709
0.871287
0.871445
0.871189
0.869153
0.864749
0.861081
0.858766
0.855949
0.852158
0.848428
0.845311
0.842825
0.840234
0.836526
0.831778
0.827912
0.824191
0.819907
0.815959
0.811808
0.806161
0.801263
0.797934
0.794134
0.788724
0.782909
0.778753
0.773076
0.765571
0.760836
0.755072
0.75066
0.746082
0.738031
0.731364
0.726772
0.721141
0.71363
0.706348
0.699278
0.691663
0.684515
0.678421
0.672004
0.664975
0.657876
0.650111
0.642972
0.636085
0.629004
0.622831
0.616025
0.608563
0.601165
0.594454
0.589611
0.585111
0.579809
0.574151
0.571485
0.567819
0.564722
0.560353
0.55527
0.548688
0.543154
0.539281
1.00514
1.00465