/*--------------------------------*- C++ -*----------------------------------*\
  =========                 |
  \\      /  F ield         | OpenFOAM: The Open Source CFD Toolbox
   \\    /   O peration     | Website:  https://openfoam.org
    \\  /    A nd           | Version:  7
     \\/     M anipulation  |
\*---------------------------------------------------------------------------*/
FoamFile
{
    version     2.0;
    format      ascii;
    class       volScalarField;
    location    "2.7";
    object      p;
}
// * * * * * * * * * * * * * * * * * * * * * * * * * * * * * * * * * * * * * //

dimensions      [1 -1 -2 0 0 0 0];

internalField   nonuniform List<scalar> 
1750
(
0.169028
0.326522
0.476371
0.55336
0.518504
0.564636
0.706372
0.737688
0.75832
0.930451
0.019525
0.0574678
0.163484
0.3203
0.472569
0.666425
0.816825
0.818254
0.821971
0.915324
0.0241011
0.0250591
0.0249342
0.032549
0.108974
0.278338
0.504827
0.750571
0.810411
0.857771
0.0405771
0.0462665
0.0466823
0.0505277
0.0685268
0.0774839
0.10918
0.292767
0.600614
0.779682
0.0768244
0.0871688
0.0919009
0.0978783
0.100628
0.112849
0.113746
0.121767
0.227014
0.475343
0.132316
0.143463
0.155924
0.160772
0.16024
0.162604
0.172071
0.184421
0.191392
0.218881
0.257837
0.256997
0.255739
0.256894
0.260889
0.265584
0.266995
0.263776
0.253824
0.259192
0.473224
0.454762
0.436045
0.416611
0.404726
0.391625
0.37631
0.366463
0.353694
0.3498
0.810314
0.761166
0.72078
0.674649
0.634624
0.600432
0.563001
0.540096
0.516237
0.493162
1.08081
1.04717
1.01068
0.969392
0.919023
0.872461
0.824577
0.775952
0.734257
0.679837
1.1237
1.11625
1.10621
1.09352
1.07727
1.05638
1.02981
0.995948
0.962576
0.901908
1.08698
1.09124
1.09131
1.08988
1.08418
1.07551
1.06529
1.05281
1.03931
1.01342
1.01988
1.02666
1.03323
1.04012
1.0458
1.04801
1.04682
1.04338
1.03724
1.02308
1.00098
1.00167
1.00278
1.00433
1.00654
1.0091
1.01145
1.01332
1.0135
1.0108
1.00001
1.00003
1.00005
1.0001
1.0002
1.00035
1.00059
1.00089
1.00116
1.00113
0.0232611
0.0200074
0.0209119
0.0293545
0.0624791
0.127599
0.258545
0.502925
0.862374
1.10285
1.12793
1.07884
1.01451
1.00064
1.00001
0.024835
0.0200849
0.0223461
0.0333732
0.0731465
0.169488
0.344568
0.629896
0.978236
1.13604
1.12987
1.06145
1.00759
1.00023
1
0.0280791
0.0196643
0.0225368
0.0364762
0.0910189
0.214586
0.411468
0.724838
1.05134
1.14744
1.1256
1.04549
1.00415
1.0001
1
0.0295924
0.017058
0.0217463
0.0505303
0.134502
0.26449
0.490834
0.842822
1.11704
1.15441
1.11204
1.03069
1.00195
1.00004
1
0.0277821
0.014944
0.0232492
0.0686805
0.160152
0.31319
0.604615
0.973795
1.1583
1.15765
1.09511
1.01738
1.00079
1.00001
1
0.0250858
0.0136324
0.0316378
0.086134
0.192168
0.40773
0.758284
1.07787
1.17457
1.1585
1.06823
1.00838
1.00029
1
1
0.0207076
0.0178746
0.0443676
0.10985
0.256358
0.553493
0.901618
1.14535
1.18065
1.13764
1.04236
1.00366
1.0001
1
1
0.0137604
0.024735
0.0549657
0.158642
0.390263
0.703413
1.03187
1.18412
1.18183
1.10942
1.02356
1.00138
1.00003
1
1
0.00757062
0.0227589
0.0832813
0.246139
0.529202
0.865304
1.1404
1.19792
1.17156
1.0751
1.01047
1.00043
1.00001
1
1
0.00256673
0.026685
0.147689
0.37669
0.697965
1.03834
1.1987
1.20083
1.14284
1.04256
1.00367
1.00012
1
1
1
0.002672
0.0658825
0.247358
0.555912
0.913161
1.16125
1.2173
1.1979
1.10302
1.01883
1.00111
1.00003
1
1
1
0.00776906
0.138137
0.408271
0.789541
1.10067
1.22321
1.22151
1.16438
1.05614
1.00665
1.00028
1.00001
1
1
1
0.0291651
0.256173
0.689361
1.02998
1.21043
1.23889
1.21462
1.11273
1.02296
1.00159
1.00005
1
1
1
1
0.164348
0.566133
0.974402
1.18339
1.25179
1.24097
1.16621
1.05275
1.00625
1.0003
1.00001
1
1
1
1
0.573228
0.968994
1.18637
1.2443
1.25812
1.20847
1.09459
1.01733
1.00117
1.00004
1
1
1
1
1
1.2468
1.25273
1.2577
1.2533
1.24281
1.14036
1.03271
1.00139
1.00002
1
1
1
1
1
1
1.24596
1.25468
1.26097
1.24859
1.22776
1.12606
1.03197
1.00283
1.0001
1
1
1
1
1
1
1.24631
1.26155
1.26685
1.2503
1.20078
1.07629
1.00976
1.00038
1.00001
1
1
1
1
1
1
1.24878
1.26659
1.2683
1.24039
1.15847
1.04518
1.00401
1.00012
1
1
1
1
1
1
1
1.25067
1.26878
1.26824
1.22017
1.11429
1.02196
1.00134
1.00003
1
1
1
1
1
1
1
1.25178
1.26925
1.26464
1.18722
1.07124
1.00903
1.00036
1.00001
1
1
1
1
1
1
1
1.26404
1.2644
1.25096
1.14422
1.03594
1.00301
1.0001
1
1
1
1
1
1
1
1
1.29454
1.24927
1.21863
1.09322
1.01652
1.00094
1.00002
1
1
1
1
1
1
1
1
1.31831
1.23302
1.16773
1.05045
1.00553
1.00023
1
1
1
1
1
1
1
1
1
1.32853
1.20546
1.10995
1.02358
1.00181
1.00005
1
1
1
1
1
1
1
1
1
1.32776
1.16581
1.06338
1.00862
1.00043
1.00001
1
1
1
1
1
1
1
1
1
1.28657
1.11839
1.03015
1.00266
1.00009
1
1
1
1
1
1
1
1
1
1
1.23068
1.07376
1.01163
1.0006
1.00001
1
1
1
1
1
1
1
1
1
1
1.15855
1.03318
1.0028
1.00009
1
1
1
1
1
1
1
1
1
1
1
1.06968
1.00912
1.0004
1.00001
1
1
1
1
1
1
1
1
1
1
1
1
1
1
1
1
1
1
1
1
1
1
1
1
1
1
1
1
1
1
1
1
1
1
1
1
1
1
1
1
1
1
1
1
1
1
1
1
1
1
1
1
1
1
1
1
1
1
1
1
1
1
1
1
1
1
1
1
1
1
1
1
1
1
1
1
1
1
1
1
1
1
1
1
1
1
1
1
1
1
1
1
1
1
1
1
1
1
1
1
1
1
1
1
1
1
1
1
1
1
1
1
1
1
1
1
1
1
1
1
1
1
1
1
1
1
1
1
1
1
1
1
1
1
1
1
1
1
1
1
1
1
1
1
1
1
1
1
1
1
1
1
1
1
1
1
1
1
1
1
1
1
1
1
1
1
1
1
1
1
1
1
1
1
1
1
1
1
1
1
1
1
1
1
1
1
1
1
1
1
1
1
1
1
1
1
1
1
1
1
1
1
1
1
1
1
1
1
1
1
1
1
1
1
1
1
1
1
1
1
1
1
1
1
1
1
1
1
1
1
1
1
1
1
1
1
1
1
1
1
1
1
1
1
1
1
1
1
1
1
1
1
1
1
1
1
1
1
1
1
1
1
1
1
1
1
1
1
1
1
1
1
1
1
1
1
1
1
1
1
1
1
1
1
1
1
1
1
1
1
1
1
1
1
1
1
1
1
1
1
1
1
1
1
1
1
1
1
1
1
1
1
1
1
1
1
1
1
1
1
1
1
1
1
1
1
1
1
1
1
1
1
1
1
1
1
1
1
1
1
1
1
1
1
1
1
1
1
1
1
1
1
1
1
1
1
1
1
1
1
1
2.13624
0.999236
1
1
1
1
1
1
1
1
1
1
1
1
1
1
1
1
1
1
7.64863
2.80387
0.999993
1
1
1
1
1
1
1
1
1
1
1
1
1
1
1
1
1
11.6002
8.34597
6.82342
2.27799
0.999705
1
1
1
1
1
1
1
1
1
1
1
1
1
1
1
9.28792
7.91667
8.29883
7.34497
3.18288
1.01882
0.999958
1
1
1
1
1
1
1
1
1
1
1
1
1
8.0941
7.70581
7.7625
7.63421
6.99282
2.90708
1.00278
1
1
1
1
1
1
1
1
1
1
1
1
1
7.53842
7.39605
7.39988
7.23506
7.25984
6.54156
2.41997
0.996544
1.00001
1
1
1
1
1
1
1
1
1
1
1
7.24681
7.1776
7.19174
7.08295
7.04659
6.8324
5.11178
1.54425
0.998195
1
1
1
1
1
1
1
1
1
1
1
7.09822
7.03203
7.03097
6.93427
6.87041
6.78775
6.57255
3.5928
1.07845
1
1
1
1
1
1
1
1
1
1
1
6.96225
6.88958
6.87306
6.78693
6.75367
6.68849
6.6097
5.57074
2.00741
0.996686
1
1
1
1
1
1
1
1
1
1
6.84008
6.77078
6.75093
6.70049
6.69727
6.66249
6.63282
6.26039
3.66608
1.11211
1
1
1
1
1
1
1
1
1
1
6.74872
6.69284
6.68286
6.64625
6.61892
6.58264
6.5581
6.48057
5.5822
1.94922
0.9966
1
1
1
1
1
1
1
1
1
6.69456
6.64348
6.63834
6.59999
6.53982
6.48999
6.46836
6.42775
6.05024
3.51227
1.10376
1
1
1
1
1
1
1
1
1
6.64095
6.58842
6.56974
6.51402
6.48523
6.44138
6.42588
6.39885
6.23655
5.01621
1.6373
0.997588
1
1
1
1
1
1
1
1
6.58222
6.52584
6.50227
6.44496
6.43083
6.41211
6.40545
6.36198
6.24885
5.89114
2.9807
1.06168
0.999998
1
1
1
1
1
1
1
6.49659
6.4438
6.42518
6.37535
6.37139
6.36673
6.36345
6.32568
6.25313
6.00254
4.06292
1.13556
0.994619
1
1
1
1
1
1
1
2.1814
3.58097
4.36558
4.91529
5.3104
5.60902
5.84196
5.97589
6.11858
6.0806
5.88606
3.12139
1.20304
1.00339
1.00002
1
1
1
1
1
0.607386
1.89297
2.62558
3.26224
3.88266
4.423
4.83256
5.19051
5.51831
5.86865
5.95886
5.27046
2.57854
1.11924
1.00172
1.00001
1
1
1
1
0.413127
1.06052
1.65495
2.24128
2.73114
3.35584
3.86384
4.31634
4.74404
5.23145
5.69655
5.48695
4.42931
1.90705
1.04024
1.00037
1
1
1
1
0.487152
0.778548
1.01571
1.50783
2.01597
2.46833
3.02997
3.50222
4.01917
4.52136
5.05334
5.2272
5.0951
3.39255
1.36766
1.00848
1.00005
1
1
1
0.648963
0.678807
0.733269
1.04841
1.47125
1.86563
2.33432
2.79613
3.3166
3.83137
4.34037
4.79503
4.94759
4.40994
2.20152
1.07816
1.00083
1
1
1
0.753555
0.641517
0.635222
0.870303
1.15569
1.50466
1.86828
2.32572
2.75778
3.19596
3.65666
4.19708
4.6865
4.62445
3.41916
1.42348
1.01132
1.00007
1
1
0.750949
0.644071
0.62269
0.746946
0.926955
1.25325
1.57439
1.98688
2.39932
2.74576
3.09968
3.58565
4.23364
4.48201
4.03351
2.15636
1.0766
1.00081
1
1
0.727704
0.655387
0.643766
0.669495
0.720484
0.981166
1.29508
1.6432
2.05542
2.38466
2.73119
3.14202
3.71091
4.18761
4.05548
2.91153
1.30877
1.00683
1.00004
1
0.730166
0.701315
0.695374
0.665527
0.655582
0.800912
1.06433
1.31757
1.68462
2.00336
2.38391
2.77618
3.25328
3.83862
3.94047
3.40395
1.73295
1.03411
1.00027
1
0.745374
0.736266
0.714406
0.672833
0.662701
0.772968
0.954609
1.17285
1.42544
1.70405
2.04272
2.42576
2.82592
3.43364
3.76214
3.58132
2.23904
1.12082
1.0016
1.00001
0.738964
0.730549
0.702137
0.652745
0.641991
0.72758
0.861672
1.07029
1.28271
1.53675
1.81354
2.16994
2.51142
3.02245
3.54332
3.48521
2.68994
1.30638
1.00749
1.00004
0.709344
0.701321
0.673459
0.636929
0.634583
0.669243
0.728799
0.926839
1.13892
1.39103
1.65166
1.97091
2.28918
2.70784
3.27191
3.37307
2.91206
1.59205
1.02751
1.00021
0.670024
0.667203
0.658653
0.645262
0.640893
0.641508
0.634515
0.738874
0.941271
1.19022
1.45486
1.7548
2.05416
2.43384
2.99349
3.25718
3.03055
1.89558
1.07242
1.00082
0.6493
0.647202
0.662053
0.662771
0.650404
0.637173
0.625639
0.683493
0.839096
1.03249
1.26721
1.54529
1.8173
2.15547
2.69784
3.09458
3.00008
2.12889
1.15094
1.00267
0.642549
0.641591
0.663757
0.668171
0.64904
0.624847
0.619722
0.668777
0.789473
0.968692
1.17539
1.41855
1.67515
1.96318
2.43215
2.92073
2.91107
2.32673
1.26594
1.00752
0.586392
0.630902
0.655555
0.6482
0.619296
0.573549
0.578616
0.625609
0.726222
0.901437
1.09777
1.3208
1.56479
1.83663
2.24461
2.74697
2.80311
2.40891
1.40841
1.01827
0.502039
0.583837
0.626974
0.607227
0.58075
0.548344
0.55241
0.5761
0.61513
0.777575
0.95688
1.17545
1.41113
1.67262
2.03434
2.53661
2.65821
2.40519
1.54499
1.03837
0.480237
0.52864
0.589176
0.591816
0.573349
0.553192
0.55266
0.573245
0.586696
0.693657
0.853347
1.01344
1.24928
1.48054
1.78769
2.27136
2.49399
2.36285
1.65679
1.06749
0.483896
0.497371
0.549139
0.579194
0.570597
0.562673
0.554736
0.57259
0.585686
0.668859
0.815648
0.966038
1.16645
1.37557
1.6486
2.10966
2.40371
2.32971
1.74943
1.10402
0.463049
0.474102
0.501011
0.552095
0.56269
0.55917
0.549682
0.55753
0.573748
0.640812
0.750108
0.903993
1.07842
1.2719
1.51776
1.95992
2.30491
2.25989
1.7898
1.1476
0.484032
0.47695
0.477194
0.517831
0.550705
0.551011
0.546589
0.541593
0.553597
0.614511
0.687127
0.809332
0.960799
1.13009
1.35592
1.75323
2.1331
2.12774
1.78345
1.1833
0.626318
0.556269
0.50779
0.513251
0.538724
0.550032
0.548854
0.54317
0.553349
0.596151
0.661458
0.777923
0.917059
1.07629
1.28664
1.65737
2.03811
2.04541
1.75653
1.19608
0.704119
0.62516
0.55487
0.519885
0.530071
0.556769
0.560748
0.557013
0.566805
0.597406
0.640093
0.745671
0.879526
1.03774
1.22475
1.55982
1.94439
1.96374
1.71179
1.19151
0.765636
0.700429
0.625368
0.552546
0.547762
0.569388
0.588947
0.590582
0.596037
0.613827
0.643042
0.733717
0.840217
0.977118
1.15125
1.4749
1.84451
1.87379
1.64492
1.17163
0.936101
0.922239
0.844807
0.774474
0.70896
0.672878
0.677325
0.674194
0.665953
0.657978
0.661417
0.720464
0.799816
0.91918
1.09387
1.42396
1.71504
1.72211
1.49045
1.10775
)
;

boundaryField
{
    inlet
    {
        type            fixedValue;
        value           uniform 1;
    }
    outlet
    {
        type            zeroGradient;
    }
    airfoil
    {
        type            zeroGradient;
    }
    top
    {
        type            symmetryPlane;
    }
    bottom
    {
        type            symmetryPlane;
    }
    defaultFaces
    {
        type            empty;
    }
}


// ************************************************************************* //
