/*--------------------------------*- C++ -*----------------------------------*\
  =========                 |
  \\      /  F ield         | OpenFOAM: The Open Source CFD Toolbox
   \\    /   O peration     | Website:  https://openfoam.org
    \\  /    A nd           | Version:  7
     \\/     M anipulation  |
\*---------------------------------------------------------------------------*/
FoamFile
{
    version     2.0;
    format      ascii;
    class       volScalarField;
    location    "6.5";
    object      p;
}
// * * * * * * * * * * * * * * * * * * * * * * * * * * * * * * * * * * * * * //

dimensions      [1 -1 -2 0 0 0 0];

internalField   nonuniform List<scalar> 
90000
(
0.106722
0.144428
0.180743
0.206237
0.235974
0.267422
0.284147
0.303645
0.330218
0.35286
0.375311
0.400994
0.428099
0.460335
0.492396
0.526347
0.564305
0.604967
0.646706
0.689887
0.733993
0.77796
0.821257
0.862402
0.896808
0.924842
0.944836
0.953266
0.950716
0.946588
0.940177
0.932898
0.923913
0.918162
0.911518
0.905834
0.899007
0.898701
0.89853
0.896919
0.890732
0.879978
0.867207
0.852245
0.845611
0.849937
0.857728
0.868637
0.885165
0.905929
0.924442
0.938204
0.947912
0.943848
0.93129
0.911695
0.892744
0.876452
0.869936
0.87104
0.880207
0.895872
0.912312
0.923589
0.929938
0.921713
0.907755
0.893151
0.887596
0.888389
0.897875
0.908421
0.920636
0.916891
0.907232
0.897234
0.894865
0.901659
0.909657
0.914102
0.908109
0.89986
0.897033
0.902281
0.911242
0.908248
0.902098
0.899241
0.901969
0.909548
0.913528
0.911103
0.911007
0.915703
0.923343
0.928593
0.932307
0.93646
0.94149
0.949601
0.0762371
0.0762138
0.076189
0.0761649
0.0761424
0.0761203
0.0760976
0.0760751
0.0760551
0.0760367
0.0760293
0.0759834
0.0762663
0.0775365
0.0803729
0.0850954
0.0932994
0.104297
0.120803
0.141013
0.16789
0.200458
0.241177
0.289457
0.348014
0.412422
0.483263
0.553916
0.618177
0.677708
0.726443
0.77355
0.807817
0.840931
0.85865
0.876362
0.879664
0.885052
0.883041
0.883054
0.879868
0.882015
0.880391
0.883422
0.894788
0.904097
0.907085
0.91205
0.918282
0.921742
0.922342
0.915316
0.903444
0.891208
0.884915
0.883509
0.883929
0.887134
0.894245
0.899855
0.908669
0.916119
0.92235
0.915935
0.907884
0.900369
0.896426
0.897228
0.900522
0.90802
0.913105
0.915207
0.909772
0.901476
0.896094
0.896688
0.904092
0.912914
0.913545
0.906355
0.900204
0.898722
0.903295
0.910853
0.907813
0.901936
0.899428
0.901044
0.907721
0.910829
0.908651
0.909593
0.91465
0.922086
0.927684
0.930271
0.934337
0.940311
0.945847
0.952131
0.0763066
0.0763041
0.0763031
0.0762995
0.0762958
0.0762913
0.0762876
0.0762831
0.0762807
0.0762784
0.0762788
0.0762804
0.0762749
0.0762856
0.0762502
0.076213
0.076179
0.0761529
0.0761325
0.0761216
0.0761119
0.0761088
0.0761049
0.0761167
0.0761018
0.076486
0.0806028
0.0897084
0.108628
0.134486
0.173182
0.216758
0.273611
0.333248
0.40404
0.474937
0.547045
0.616947
0.681337
0.745517
0.7996
0.858719
0.903264
0.944499
0.962321
0.965166
0.960481
0.954866
0.943255
0.923624
0.897365
0.867271
0.83834
0.837324
0.847875
0.861799
0.881994
0.902391
0.922993
0.93225
0.932185
0.922694
0.906005
0.890305
0.879702
0.880882
0.887253
0.90002
0.913575
0.919505
0.914158
0.905051
0.898135
0.897435
0.901609
0.907268
0.913971
0.90779
0.903181
0.899919
0.900002
0.903721
0.909376
0.906797
0.904097
0.903069
0.903421
0.9062
0.908582
0.908509
0.911275
0.915417
0.92076
0.922724
0.925441
0.930871
0.937211
0.942726
0.945231
0.952133
0.0762246
0.0762214
0.0762215
0.0762197
0.0762161
0.0762123
0.0762109
0.0762105
0.0762106
0.0762082
0.0762085
0.0762089
0.0762117
0.076213
0.0762158
0.0762177
0.0762189
0.0762207
0.0762273
0.0762352
0.0762397
0.076242
0.0762461
0.0762521
0.0762584
0.0762733
0.0762746
0.0762687
0.0762611
0.0762589
0.0762662
0.0762653
0.0762593
0.0762511
0.077242
0.0817574
0.0961016
0.118068
0.15677
0.204582
0.272765
0.346238
0.437246
0.530865
0.614565
0.69695
0.753238
0.805582
0.828729
0.854023
0.854578
0.856746
0.861004
0.875937
0.890324
0.902867
0.912415
0.919639
0.927376
0.928262
0.915341
0.899689
0.891095
0.892397
0.897559
0.901915
0.907485
0.910031
0.914189
0.907872
0.903469
0.898615
0.896391
0.895794
0.902171
0.910764
0.912388
0.907439
0.900244
0.899725
0.903691
0.909755
0.909491
0.905779
0.90258
0.901552
0.903522
0.907181
0.909144
0.911204
0.913053
0.916103
0.919862
0.926158
0.932641
0.937597
0.940988
0.944306
0.948834
0.956249
0.0761811
0.0761901
0.0762005
0.0762108
0.0762187
0.0762254
0.0762331
0.0762415
0.0762479
0.0762518
0.0762553
0.0762597
0.0762637
0.0762677
0.0762725
0.0762756
0.0762757
0.0762742
0.076275
0.0762796
0.0762813
0.0762789
0.0762783
0.07628
0.0762838
0.0762895
0.0762996
0.0763085
0.0763104
0.0763125
0.0763143
0.0763101
0.0763019
0.0762961
0.0762847
0.0762758
0.0762681
0.0762547
0.0762357
0.0762176
0.0762158
0.0762253
0.079816
0.0910074
0.121556
0.16721
0.241409
0.329262
0.437894
0.555183
0.666827
0.781444
0.854199
0.907932
0.910972
0.918142
0.920408
0.918805
0.907454
0.888015
0.858992
0.862425
0.874176
0.88957
0.90639
0.915472
0.919859
0.917386
0.905859
0.894182
0.89304
0.895788
0.90298
0.912402
0.910541
0.905546
0.899262
0.897871
0.900296
0.901925
0.908193
0.910185
0.907411
0.902909
0.901218
0.903809
0.907751
0.909232
0.909942
0.910537
0.913495
0.918893
0.925408
0.930519
0.933331
0.938509
0.944879
0.951507
0.954519
0.95753
0.0763495
0.0763506
0.0763524
0.0763548
0.0763567
0.0763579
0.0763588
0.0763587
0.0763574
0.0763558
0.0763559
0.0763558
0.0763527
0.0763487
0.0763445
0.0763398
0.0763348
0.0763294
0.07632
0.0763141
0.0763142
0.0763113
0.0763047
0.0763005
0.0762985
0.0762949
0.0762917
0.0762949
0.0762947
0.0762885
0.0762798
0.0762721
0.0762698
0.0762632
0.0762511
0.076249
0.0762634
0.0762642
0.0762448
0.0762302
0.0762405
0.0762878
0.0763036
0.0762926
0.076275
0.0762619
0.0762699
0.0762579
0.0807794
0.0979297
0.146583
0.226877
0.346009
0.474652
0.586886
0.691296
0.748553
0.80712
0.821037
0.836639
0.849916
0.874766
0.899378
0.916241
0.929955
0.929462
0.926171
0.909615
0.891512
0.886388
0.888233
0.894643
0.902744
0.917306
0.915874
0.907601
0.897063
0.892251
0.898296
0.910429
0.911558
0.909481
0.903199
0.900083
0.899823
0.903817
0.910298
0.912003
0.910971
0.913728
0.91879
0.924347
0.927895
0.930741
0.934874
0.940059
0.945736
0.949676
0.952586
0.958783
0.0763629
0.0763623
0.0763606
0.0763604
0.0763615
0.0763599
0.0763575
0.0763544
0.0763492
0.0763421
0.0763389
0.0763374
0.076335
0.076331
0.0763222
0.0763115
0.0763053
0.0763012
0.0762957
0.076283
0.0762683
0.0762635
0.0762593
0.0762538
0.0762517
0.0762477
0.0762386
0.0762268
0.076219
0.0762096
0.0761979
0.0761888
0.0762002
0.0762236
0.0762242
0.0762214
0.0762339
0.0762517
0.0762635
0.0762911
0.0763184
0.076323
0.0763225
0.0763273
0.0763319
0.0763322
0.0763343
0.0763446
0.076329
0.0763023
0.0762867
0.0762792
0.0762645
0.0827371
0.118377
0.178442
0.281471
0.406853
0.547593
0.697299
0.801407
0.873642
0.886002
0.904104
0.917736
0.919942
0.908413
0.875596
0.879166
0.889124
0.902361
0.911114
0.914356
0.912017
0.903028
0.895744
0.895633
0.89685
0.903701
0.911942
0.910944
0.904126
0.899499
0.900428
0.905791
0.908645
0.908336
0.909264
0.911392
0.913759
0.92075
0.926667
0.930074
0.933464
0.93918
0.945518
0.948946
0.950663
0.954173
0.960349
0.0763405
0.0763386
0.0763364
0.0763338
0.0763299
0.0763233
0.0763169
0.0763121
0.0763068
0.0762979
0.0762874
0.0762807
0.0762771
0.0762737
0.0762692
0.0762621
0.0762494
0.0762356
0.0762281
0.0762208
0.0762052
0.0761941
0.0761923
0.0761903
0.0761818
0.0761605
0.0761433
0.0761451
0.0761533
0.0761483
0.0761427
0.076152
0.0761776
0.0762048
0.0762253
0.0762338
0.0762307
0.0762236
0.0762472
0.0763232
0.0763747
0.0763715
0.076357
0.076343
0.0763443
0.0763549
0.0763595
0.076366
0.0763679
0.0763635
0.076364
0.076366
0.0763442
0.076317
0.0763217
0.076359
0.0763779
0.0775892
0.103562
0.164335
0.286059
0.436226
0.572166
0.696132
0.766238
0.831279
0.847832
0.859061
0.892533
0.921958
0.929834
0.923919
0.918892
0.898969
0.883615
0.886065
0.892994
0.908361
0.919838
0.916762
0.904743
0.895749
0.896806
0.901906
0.90719
0.91158
0.911098
0.911021
0.915071
0.921626
0.925469
0.928653
0.930387
0.933719
0.938872
0.944655
0.951291
0.954397
0.956747
0.962366
0.0762731
0.0762715
0.0762689
0.0762658
0.0762601
0.0762423
0.0762217
0.0762164
0.0762154
0.0762115
0.0762021
0.0762012
0.0762126
0.0762145
0.0762095
0.0762022
0.0761903
0.0761722
0.0761621
0.0761552
0.0761532
0.0761658
0.0761681
0.0761599
0.0761461
0.0761247
0.0761218
0.0761539
0.0761793
0.0761747
0.0761685
0.076171
0.0761767
0.0761855
0.0761993
0.0762158
0.0762265
0.0762429
0.0762833
0.0763531
0.0764033
0.0764065
0.0763975
0.0763941
0.0764118
0.076419
0.0764089
0.0763999
0.0763955
0.076394
0.0763975
0.076393
0.0763435
0.0762928
0.0762905
0.0763159
0.0763283
0.0763423
0.0764046
0.0765286
0.0765454
0.0800263
0.119047
0.191836
0.323795
0.487926
0.6666
0.802159
0.888477
0.904663
0.913939
0.915744
0.905212
0.876077
0.879665
0.896038
0.91082
0.921437
0.919939
0.904983
0.888612
0.890094
0.901288
0.912371
0.912327
0.910397
0.909636
0.911071
0.916331
0.923591
0.929478
0.931073
0.933062
0.937459
0.944291
0.948246
0.949846
0.953044
0.956944
0.962778
0.0762512
0.0762529
0.0762525
0.0762492
0.0762451
0.076235
0.0762157
0.0762171
0.0762337
0.0762366
0.0762279
0.0762222
0.0762291
0.0762297
0.0762206
0.0762153
0.0762228
0.0762221
0.0762153
0.0762157
0.0762243
0.0762399
0.0762566
0.0762493
0.0762358
0.0762289
0.0762312
0.0762308
0.0762246
0.0762191
0.0762244
0.076241
0.0762601
0.0762678
0.0762667
0.0762622
0.0762657
0.0762818
0.0763188
0.0763913
0.0764583
0.0764694
0.0764569
0.0764451
0.0764474
0.0764428
0.0764184
0.0763979
0.0763889
0.0764001
0.0764239
0.0764194
0.0763659
0.0762988
0.0762698
0.0762476
0.07624
0.0762333
0.0763025
0.0764911
0.0765565
0.0765186
0.0763102
0.0759707
0.0757655
0.0875262
0.149195
0.286333
0.469654
0.622868
0.750946
0.838152
0.86333
0.867747
0.898827
0.932734
0.930276
0.926179
0.903045
0.885204
0.885514
0.898037
0.91734
0.917269
0.913827
0.909117
0.909859
0.915631
0.925355
0.930176
0.931197
0.931804
0.933447
0.938487
0.94486
0.950854
0.952924
0.955596
0.959522
0.965051
0.0762678
0.0762675
0.0762684
0.0762721
0.0762776
0.0762847
0.076293
0.0762994
0.0763043
0.0763119
0.0763204
0.0763281
0.0763314
0.0763272
0.076323
0.076332
0.076342
0.0763395
0.076344
0.0763687
0.0763966
0.0763984
0.0763886
0.0763633
0.0763377
0.0763232
0.076319
0.0763146
0.0763027
0.0762925
0.0762827
0.0762791
0.0762888
0.0763012
0.0762954
0.0762834
0.0762782
0.0762861
0.0763148
0.0763828
0.0764619
0.076484
0.0764771
0.0764507
0.0764358
0.0764227
0.0763866
0.0763695
0.0763652
0.0763846
0.0764308
0.0764366
0.076411
0.0763637
0.0763045
0.0762137
0.0760917
0.0760538
0.0761053
0.076368
0.0765265
0.0764976
0.0762984
0.0759412
0.0756993
0.0756935
0.075671
0.0756079
0.0829365
0.147672
0.269
0.456557
0.67282
0.828239
0.899377
0.92445
0.921122
0.902579
0.868999
0.876705
0.901149
0.921665
0.920974
0.916301
0.907691
0.907885
0.913745
0.92404
0.928879
0.930755
0.930622
0.931602
0.937458
0.94493
0.949013
0.951069
0.953857
0.957097
0.960417
0.965265
0.0763558
0.0763668
0.0763769
0.0763872
0.0763949
0.0763986
0.0764023
0.0764075
0.0764108
0.076413
0.0764178
0.0764244
0.0764275
0.0764247
0.0764212
0.0764187
0.0764212
0.0764382
0.0764709
0.0765051
0.0765145
0.0765141
0.0765069
0.0764848
0.0764462
0.0764064
0.0763777
0.0763518
0.0763179
0.0763009
0.0762936
0.0762913
0.0762953
0.0762912
0.0762675
0.0762547
0.0762539
0.0762672
0.076294
0.0763423
0.0764001
0.0764278
0.0764222
0.0763987
0.0763996
0.0763966
0.0763666
0.0763151
0.0762976
0.0763283
0.0764151
0.0764365
0.0764237
0.076404
0.0763643
0.076245
0.0759908
0.075854
0.0758736
0.0760499
0.0761241
0.0760969
0.076016
0.0758434
0.0756172
0.0754245
0.0752313
0.0752437
0.0753974
0.0754487
0.0753296
0.0868031
0.149572
0.325695
0.529672
0.705017
0.789238
0.844677
0.863172
0.907351
0.940652
0.936838
0.921954
0.903459
0.904034
0.910388
0.923762
0.93175
0.930494
0.92981
0.930876
0.935193
0.943244
0.948973
0.950382
0.952851
0.956903
0.960818
0.963323
0.967205
0.0763777
0.0764
0.0764219
0.076431
0.076436
0.076443
0.0764491
0.0764496
0.0764467
0.0764442
0.0764452
0.076443
0.0764382
0.0764281
0.0764111
0.0764048
0.0764188
0.0764907
0.0765443
0.0765456
0.0765355
0.0765339
0.0765337
0.0765199
0.0764755
0.0764204
0.0763892
0.076364
0.0763347
0.0763145
0.0763041
0.0762951
0.0762849
0.0762538
0.0761963
0.0761797
0.0761793
0.076201
0.0762363
0.076238
0.0762508
0.0762702
0.0762787
0.0763092
0.0763718
0.0763811
0.0763599
0.0762933
0.0762601
0.0762784
0.0763853
0.076425
0.0764124
0.0764
0.076372
0.0762555
0.0759886
0.0757182
0.075588
0.0754912
0.0753775
0.0752665
0.0752401
0.0752258
0.0751311
0.0749081
0.0748238
0.0749846
0.0753633
0.0755208
0.0754643
0.0752488
0.0748785
0.0745981
0.0973257
0.195997
0.393976
0.648584
0.825871
0.915123
0.929016
0.927269
0.889529
0.897778
0.911087
0.923777
0.928965
0.930535
0.930213
0.931668
0.935038
0.941922
0.94746
0.950139
0.951472
0.954162
0.958455
0.962262
0.964022
0.967978
0.0763211
0.0763344
0.076346
0.0763586
0.0763736
0.0763879
0.076396
0.0763971
0.076395
0.076392
0.0763897
0.0763833
0.0763495
0.0763196
0.07632
0.0763442
0.0764289
0.0765323
0.0765496
0.076549
0.0765243
0.0765094
0.0765065
0.0764895
0.0764327
0.0763886
0.0763784
0.0763645
0.0763444
0.0763426
0.0763337
0.0763006
0.0762517
0.0762038
0.0761416
0.0760867
0.0760723
0.0760741
0.0761047
0.0761386
0.0761512
0.0761329
0.0761292
0.0761668
0.0762472
0.0762627
0.076232
0.0761858
0.0761651
0.0761806
0.076281
0.0763234
0.0763283
0.0763325
0.0763135
0.0762074
0.075963
0.0756089
0.0752524
0.0749556
0.074709
0.0746299
0.0746586
0.0747436
0.0747517
0.0746838
0.0746937
0.0749089
0.0753009
0.0755105
0.0754745
0.0752411
0.0748512
0.0745691
0.0746644
0.0751328
0.0791962
0.134882
0.318658
0.552463
0.711478
0.831881
0.856644
0.924592
0.93762
0.93539
0.925813
0.926198
0.929276
0.936419
0.943363
0.94894
0.948836
0.949775
0.952559
0.956891
0.960501
0.963075
0.965113
0.969525
0.0762117
0.0762048
0.0762005
0.0762008
0.0762125
0.0762257
0.0762318
0.076236
0.0762432
0.0762659
0.0762814
0.0762673
0.0762246
0.0762206
0.0762483
0.0763678
0.0765175
0.0765364
0.0765322
0.0765063
0.0764623
0.0764562
0.0764587
0.0764402
0.0763841
0.0763749
0.0763724
0.0763568
0.0763588
0.0763713
0.0763644
0.0763201
0.0762398
0.0761977
0.0761626
0.0760965
0.076067
0.0760681
0.0761019
0.0761609
0.0761525
0.0760595
0.0760314
0.0760371
0.0760569
0.0760531
0.076003
0.0758863
0.0757548
0.0756243
0.0754743
0.0753668
0.0753786
0.0754271
0.0754712
0.0754496
0.0753478
0.0751541
0.0748498
0.0745119
0.0743154
0.0743185
0.0744425
0.0747022
0.0747553
0.0746978
0.0746929
0.0748593
0.0751019
0.0752817
0.0752808
0.0752191
0.0750443
0.0752433
0.0758497
0.0771376
0.0791773
0.0798785
0.0803052
0.107845
0.231131
0.462462
0.720437
0.875435
0.896576
0.926408
0.925726
0.936984
0.938701
0.944868
0.94702
0.948443
0.949941
0.952159
0.956542
0.959968
0.961311
0.963822
0.96668
0.970889
0.0760596
0.0760582
0.076054
0.0760408
0.0760292
0.0760237
0.0760234
0.0760245
0.0760252
0.0760369
0.0760819
0.0760925
0.0760855
0.0761011
0.0761982
0.076357
0.0764218
0.0764198
0.0763932
0.0763628
0.0763664
0.0763803
0.0763785
0.0763522
0.076304
0.0762826
0.0762827
0.0762976
0.076361
0.0763846
0.076376
0.076301
0.0761515
0.0760717
0.0759935
0.0758988
0.0758501
0.075864
0.075933
0.0759715
0.0759773
0.07597
0.0759791
0.075976
0.0759358
0.0758666
0.0757751
0.075597
0.0752851
0.0749239
0.0746309
0.0744693
0.0744531
0.0744839
0.0745608
0.074624
0.0746474
0.0746517
0.0745562
0.0743221
0.0741982
0.0742303
0.0745179
0.0751569
0.0755403
0.0754933
0.0751584
0.0749052
0.0749913
0.0751356
0.0751934
0.0757851
0.0775156
0.0797497
0.0803557
0.0802308
0.0805935
0.0821206
0.0849705
0.0864436
0.0868732
0.0952232
0.204814
0.418179
0.636337
0.846884
0.879574
0.933037
0.947682
0.954873
0.944367
0.946021
0.948603
0.954981
0.961146
0.961425
0.961735
0.964945
0.968281
0.972152
0.0759922
0.0759987
0.076023
0.0760245
0.075994
0.0759273
0.0759089
0.0759022
0.0758904
0.0758421
0.0758041
0.0758128
0.0758578
0.0759559
0.0760686
0.0761052
0.0760967
0.0760362
0.075945
0.0759185
0.0759077
0.0758946
0.0758794
0.0758468
0.0758278
0.0758229
0.0758221
0.0758606
0.0760607
0.0761389
0.0761241
0.0760489
0.0758606
0.0755533
0.0752194
0.0750556
0.0750468
0.075082
0.075152
0.0752252
0.0753254
0.0754742
0.0756101
0.0756165
0.0755503
0.0754307
0.0752815
0.075079
0.0748058
0.0744953
0.0742498
0.074155
0.0741601
0.0742012
0.0742861
0.0744389
0.0745473
0.0745634
0.0744956
0.0742866
0.0742237
0.0743887
0.0749882
0.0758049
0.0764727
0.0768098
0.0765645
0.0758905
0.075763
0.0759618
0.0768572
0.0784193
0.0804515
0.0831917
0.0842742
0.0841123
0.0843606
0.0853809
0.087652
0.0903222
0.0933528
0.094315
0.0943979
0.0960008
0.179755
0.379649
0.632181
0.850314
0.887833
0.939822
0.951582
0.964247
0.957337
0.958588
0.959502
0.962215
0.965552
0.968818
0.969767
0.973009
0.0757367
0.0757037
0.0756673
0.075643
0.0756359
0.0756261
0.0755748
0.0753667
0.0750577
0.0749596
0.0749608
0.0749645
0.0749648
0.0749752
0.0750353
0.0751331
0.0751573
0.0751402
0.0751164
0.0751185
0.0751515
0.0752214
0.0752776
0.0753165
0.0753429
0.0753376
0.0753197
0.0753275
0.0753757
0.0753773
0.0753561
0.0752916
0.0751596
0.074988
0.0748072
0.0747019
0.074689
0.0747182
0.0747735
0.0747847
0.0747787
0.074765
0.0747418
0.0746959
0.0746942
0.0747208
0.0747319
0.0746904
0.0745816
0.0743514
0.0740967
0.0740443
0.074062
0.0741206
0.0742158
0.0743974
0.0747215
0.0749606
0.0750013
0.074902
0.0749393
0.0753799
0.0762277
0.0769882
0.0775388
0.0781898
0.0789142
0.0797066
0.0804932
0.0813456
0.0822359
0.0827469
0.0833178
0.0849961
0.0874226
0.0895496
0.0909373
0.091797
0.0919555
0.0931816
0.0966407
0.0984092
0.0994163
0.100782
0.10263
0.103738
0.178324
0.367162
0.614489
0.840594
0.884646
0.947951
0.968676
0.972592
0.96263
0.958082
0.966096
0.970381
0.971493
0.973963
0.0745802
0.0745646
0.0745359
0.0744822
0.0744367
0.0743864
0.0742521
0.0740676
0.0740178
0.074027
0.0740681
0.074118
0.0741888
0.0743051
0.0744219
0.0745209
0.0746228
0.074728
0.0747865
0.0748129
0.0748523
0.0749091
0.0749615
0.0749766
0.0749671
0.074921
0.0748548
0.0748482
0.074877
0.0749033
0.074898
0.0748757
0.0749044
0.0749314
0.0748809
0.0747222
0.0745932
0.0745314
0.0744902
0.0744135
0.074317
0.0742863
0.0743029
0.0743431
0.0744219
0.0745114
0.0745619
0.0745569
0.0745396
0.0743808
0.0741275
0.0740787
0.0741012
0.0741963
0.0743912
0.0748797
0.075776
0.076724
0.077487
0.0781034
0.0785844
0.0790235
0.0797809
0.0803954
0.0802846
0.0803508
0.0811579
0.0826125
0.0841974
0.0858131
0.0875152
0.0892288
0.0900003
0.0900796
0.091338
0.0936155
0.0951865
0.0966704
0.0985985
0.0995118
0.10043
0.102891
0.104386
0.10557
0.107656
0.109636
0.110534
0.111482
0.1799
0.357742
0.614786
0.84625
0.897244
0.956126
0.974202
0.974458
0.975471
0.967189
0.970189
0.977174
0.0744401
0.0744215
0.0743383
0.0741321
0.0740734
0.0740715
0.074079
0.0741292
0.0742356
0.0743594
0.0744686
0.0745772
0.074705
0.0748339
0.0748939
0.0748941
0.0748682
0.0748202
0.0748174
0.0748202
0.074802
0.0747337
0.0746441
0.0746219
0.0746063
0.0745429
0.0744451
0.0744363
0.0745279
0.0746303
0.0746053
0.0746265
0.0748703
0.0750996
0.0750918
0.0749452
0.0746299
0.0744478
0.0743854
0.0743048
0.0742248
0.0742166
0.0742546
0.0743107
0.0743919
0.0745214
0.0746267
0.074747
0.0749186
0.0751829
0.0754732
0.07585
0.0762987
0.0769138
0.0776804
0.0786172
0.079586
0.0805123
0.0812894
0.0820583
0.0828012
0.0831273
0.0834663
0.083971
0.084234
0.0845624
0.0853042
0.0869959
0.0891509
0.0913387
0.0932343
0.0948961
0.095998
0.0961387
0.0964065
0.0973685
0.0991045
0.101631
0.104696
0.106166
0.105985
0.106444
0.107995
0.110382
0.113192
0.114797
0.115571
0.116991
0.11916
0.120621
0.184563
0.355964
0.613068
0.858746
0.909058
0.962989
0.992813
0.972109
0.972284
0.973959
0.0754794
0.0753869
0.0753765
0.0753769
0.0753976
0.0754376
0.0754613
0.0754909
0.0755449
0.0755519
0.0755507
0.0755657
0.075574
0.0755667
0.0755419
0.075482
0.0753854
0.0752854
0.0752182
0.0751634
0.0750431
0.0748207
0.0746293
0.074548
0.0745062
0.0744402
0.074376
0.0743797
0.0744988
0.0746215
0.0746085
0.0746322
0.0748575
0.0751274
0.0751596
0.0751035
0.0748184
0.0746133
0.0745825
0.0745295
0.0745234
0.0745909
0.0748536
0.0753202
0.075859
0.0764306
0.0770622
0.0779813
0.0792164
0.0803506
0.0813987
0.0824715
0.0831287
0.0834484
0.0838235
0.0844279
0.0846817
0.0848072
0.0849402
0.0852687
0.0859517
0.086517
0.0871382
0.0882227
0.0901936
0.0922914
0.0943098
0.095853
0.0968593
0.0976944
0.0985945
0.0990104
0.0995137
0.100351
0.101962
0.103954
0.106444
0.107973
0.109204
0.110504
0.110989
0.11185
0.114041
0.117073
0.119092
0.120034
0.120791
0.121683
0.123611
0.12744
0.128133
0.128405
0.191426
0.373692
0.640378
0.877117
0.933898
0.959132
0.992361
0.982874
0.0756483
0.0756524
0.0756761
0.075718
0.0757695
0.075816
0.0758217
0.0758064
0.0757123
0.0755664
0.0754555
0.0753624
0.0752527
0.0751452
0.0750548
0.0749673
0.0749047
0.0748506
0.0748369
0.0748313
0.0746874
0.0744215
0.0744056
0.074497
0.0745535
0.074585
0.0746855
0.0749069
0.0752622
0.0755733
0.0759375
0.076419
0.0766694
0.0770731
0.0776967
0.0783479
0.0790362
0.0796095
0.0800116
0.080301
0.0805838
0.0809762
0.0814201
0.0819508
0.082611
0.0833697
0.0842611
0.0852314
0.0859542
0.0863215
0.0865931
0.0871657
0.087766
0.0880132
0.0882519
0.0885345
0.0885224
0.0887037
0.0893934
0.0904811
0.091808
0.0936533
0.0956761
0.0974904
0.0990275
0.100499
0.10181
0.102208
0.102088
0.102008
0.10248
0.103875
0.105505
0.107263
0.109333
0.111703
0.11352
0.113412
0.11344
0.114329
0.116636
0.119559
0.121914
0.122991
0.123165
0.124054
0.126563
0.129217
0.130077
0.131905
0.134143
0.135407
0.136314
0.137328
0.211557
0.407744
0.670038
0.892994
0.958445
0.978574
0.0768086
0.0770074
0.0771357
0.0771905
0.0772595
0.0773904
0.0775804
0.0777739
0.0779443
0.0781003
0.0782262
0.0782922
0.0783202
0.0783892
0.0784939
0.078589
0.0786801
0.078837
0.0790686
0.0792182
0.0793812
0.0797386
0.0803719
0.081045
0.0814134
0.0819517
0.0825519
0.0827801
0.083098
0.0836992
0.0843997
0.0848149
0.0850892
0.0855466
0.0860452
0.0865498
0.0871529
0.0877309
0.0880923
0.088347
0.0886868
0.0891355
0.0892986
0.0893582
0.0893712
0.0894022
0.0895847
0.0900121
0.0902895
0.0904035
0.0905683
0.090988
0.0920364
0.0932809
0.0942475
0.0951308
0.0965285
0.0982834
0.0999669
0.101461
0.102551
0.103336
0.104191
0.104935
0.105157
0.105589
0.106113
0.106417
0.106684
0.107164
0.108616
0.111351
0.11452
0.116516
0.116886
0.117664
0.118043
0.118496
0.1195
0.121469
0.124092
0.126196
0.128018
0.128455
0.129166
0.130417
0.132478
0.135611
0.137326
0.13741
0.138948
0.141489
0.143731
0.145214
0.146664
0.14777
0.22571
0.455592
0.735697
0.937423
0.0859108
0.0859911
0.0860942
0.0862092
0.0863126
0.0864182
0.0865494
0.0867219
0.0869595
0.0871659
0.0872755
0.0873502
0.0874434
0.0875792
0.0877453
0.0878975
0.0880547
0.0882843
0.0884454
0.0885165
0.0886102
0.0887868
0.0890642
0.0894306
0.0895695
0.0895703
0.0895821
0.0896315
0.0898844
0.0901966
0.09028
0.0903466
0.0904218
0.0905601
0.0908979
0.0913929
0.0920309
0.0925512
0.0929238
0.0932637
0.0937634
0.0944274
0.0948183
0.0951274
0.0955427
0.0961411
0.0967994
0.0975177
0.0983215
0.0992681
0.100355
0.101438
0.102436
0.103541
0.104678
0.105821
0.106764
0.107452
0.108052
0.108868
0.10932
0.109199
0.109181
0.109356
0.109447
0.109865
0.11114
0.113394
0.115767
0.117918
0.119416
0.12041
0.121784
0.122807
0.122699
0.12269
0.123418
0.125491
0.127962
0.13022
0.132288
0.132618
0.132924
0.134177
0.136116
0.138444
0.139401
0.140833
0.143767
0.144465
0.145011
0.147066
0.150542
0.151945
0.152245
0.154307
0.155775
0.164512
0.254102
0.646725
0.0933602
0.0934422
0.09354
0.0936318
0.0937309
0.0938419
0.0939768
0.0941333
0.0942781
0.0944009
0.0945011
0.0946254
0.0948117
0.0950566
0.0953449
0.0956775
0.0960496
0.0962851
0.096311
0.096338
0.0964794
0.0967912
0.0971159
0.0973762
0.0976999
0.097982
0.0982054
0.098405
0.0985533
0.0986894
0.0988584
0.0990717
0.0994256
0.0999649
0.100592
0.101208
0.101857
0.102569
0.103239
0.103838
0.1044
0.105026
0.105825
0.106642
0.107404
0.108199
0.10892
0.109463
0.109886
0.110291
0.110801
0.111425
0.111792
0.111916
0.112041
0.112429
0.112632
0.11265
0.112743
0.11316
0.114135
0.115112
0.116019
0.117131
0.118773
0.120585
0.122399
0.124039
0.125575
0.127159
0.127428
0.127123
0.127002
0.127534
0.128777
0.130379
0.132216
0.134389
0.13655
0.137767
0.138708
0.139064
0.139749
0.140985
0.143117
0.146366
0.148408
0.148628
0.149742
0.151519
0.152909
0.153941
0.156069
0.15873
0.159163
0.159974
0.162641
0.165866
0.166059
0.259532
0.103731
0.103858
0.104038
0.104217
0.104402
0.104583
0.104761
0.104921
0.105084
0.105269
0.105482
0.105792
0.106037
0.106206
0.106418
0.106716
0.107065
0.107415
0.107748
0.108021
0.108209
0.108352
0.108502
0.108732
0.109009
0.1093
0.109571
0.109784
0.109977
0.110215
0.110525
0.110908
0.111224
0.111475
0.111706
0.112002
0.112244
0.112474
0.11284
0.113154
0.113316
0.113422
0.113568
0.113788
0.114039
0.114467
0.114744
0.114923
0.115205
0.115602
0.116059
0.116795
0.117365
0.117669
0.118007
0.118702
0.11973
0.120801
0.121743
0.12287
0.124433
0.126468
0.128435
0.129858
0.130804
0.131563
0.132013
0.132015
0.132231
0.13285
0.133256
0.133511
0.134023
0.13546
0.138035
0.140933
0.142826
0.143511
0.144348
0.14473
0.145165
0.146318
0.14834
0.150666
0.15246
0.153651
0.155499
0.155866
0.156076
0.15776
0.161331
0.163342
0.163777
0.165284
0.167427
0.169207
0.170241
0.171273
0.173105
0.175353
0.114096
0.114187
0.114302
0.114422
0.114562
0.114668
0.114722
0.114777
0.114851
0.114963
0.115085
0.115167
0.115267
0.115417
0.115548
0.115645
0.115785
0.115925
0.116136
0.116439
0.116614
0.116696
0.116803
0.116935
0.117155
0.117448
0.117709
0.117936
0.118203
0.118504
0.11892
0.11931
0.119466
0.119576
0.1199
0.120213
0.120308
0.120448
0.1209
0.121778
0.122069
0.122199
0.122478
0.123046
0.123707
0.124168
0.124593
0.125116
0.125846
0.126818
0.127869
0.12891
0.130094
0.131394
0.132579
0.133491
0.134296
0.135081
0.135827
0.136353
0.136569
0.13679
0.137237
0.137833
0.138052
0.138252
0.138285
0.138412
0.138789
0.139889
0.141962
0.144388
0.146577
0.148162
0.149499
0.150735
0.151681
0.151694
0.151806
0.15263
0.154203
0.156265
0.158062
0.159979
0.161903
0.161917
0.162269
0.163632
0.165264
0.167475
0.169761
0.171406
0.171456
0.171863
0.174371
0.176869
0.177863
0.179747
0.181142
0.183213
0.126041
0.12611
0.126199
0.126332
0.126445
0.126485
0.126491
0.126502
0.126617
0.126841
0.127
0.127258
0.127464
0.127516
0.127604
0.127808
0.128039
0.128154
0.128294
0.128552
0.128878
0.12918
0.129432
0.129638
0.129842
0.130047
0.130246
0.130496
0.130697
0.130835
0.130958
0.131171
0.131557
0.13201
0.132403
0.132797
0.133292
0.133819
0.134281
0.134781
0.135405
0.136035
0.136482
0.136858
0.137272
0.137737
0.138247
0.138813
0.139266
0.139555
0.139872
0.14027
0.140563
0.140842
0.141199
0.141483
0.141779
0.142139
0.142801
0.143247
0.143215
0.143127
0.143381
0.144078
0.145196
0.146584
0.148527
0.150765
0.152755
0.154287
0.155493
0.156761
0.158184
0.158606
0.158669
0.158656
0.158952
0.159774
0.161333
0.163048
0.164872
0.167116
0.168695
0.169042
0.169522
0.170456
0.171593
0.173004
0.175338
0.177647
0.17797
0.178605
0.179649
0.181377
0.18311
0.184609
0.187098
0.18827
0.189016
0.19123
0.138883
0.138997
0.139017
0.139004
0.138978
0.139029
0.139266
0.139607
0.139705
0.139738
0.139817
0.13993
0.140051
0.140158
0.140309
0.140475
0.140602
0.140714
0.140939
0.141116
0.141241
0.141383
0.141601
0.141819
0.142054
0.14229
0.142544
0.142886
0.143162
0.143246
0.14337
0.143607
0.143957
0.144307
0.144565
0.144725
0.144994
0.145129
0.145175
0.145264
0.145607
0.146051
0.146223
0.146371
0.146645
0.147154
0.147779
0.148762
0.149434
0.149651
0.14997
0.15064
0.150853
0.150999
0.15135
0.15209
0.152955
0.153856
0.154988
0.156454
0.157994
0.159496
0.160763
0.161739
0.162561
0.163403
0.164258
0.165056
0.166131
0.166605
0.166403
0.166173
0.166255
0.166601
0.166987
0.167891
0.169333
0.171471
0.173726
0.175719
0.176852
0.177355
0.178287
0.178565
0.178756
0.179963
0.182046
0.184217
0.185711
0.186486
0.187437
0.188344
0.190347
0.192293
0.192772
0.19434
0.195574
0.196061
0.197304
0.200109
0.153347
0.153385
0.153439
0.153514
0.153599
0.153712
0.153793
0.153846
0.153921
0.154126
0.154242
0.1543
0.154392
0.154526
0.154712
0.154875
0.155
0.155149
0.155304
0.155491
0.155716
0.155968
0.156182
0.156387
0.1566
0.156839
0.157103
0.157396
0.157628
0.15793
0.158216
0.158388
0.158542
0.158861
0.159241
0.159564
0.159785
0.160038
0.160391
0.160843
0.161316
0.16173
0.162183
0.162594
0.162885
0.163151
0.16346
0.163836
0.16441
0.165147
0.165886
0.166624
0.167448
0.168223
0.168785
0.169223
0.16964
0.170124
0.170527
0.170827
0.171142
0.171615
0.172316
0.172884
0.17312
0.173054
0.172649
0.172448
0.172768
0.173758
0.174713
0.175438
0.176552
0.178422
0.180936
0.183196
0.184939
0.186417
0.186956
0.187551
0.187739
0.187675
0.187956
0.189205
0.191161
0.19282
0.194111
0.19609
0.196244
0.196437
0.197088
0.198421
0.200583
0.20157
0.202924
0.20418
0.205004
0.206213
0.207264
0.209104
0.17002
0.170097
0.170187
0.170284
0.170387
0.170487
0.17058
0.170665
0.170765
0.170875
0.171006
0.171155
0.171236
0.171322
0.171572
0.171733
0.171725
0.171735
0.171841
0.171981
0.172201
0.172373
0.172426
0.172488
0.172552
0.17278
0.17309
0.173148
0.173239
0.173429
0.173686
0.173944
0.174211
0.174466
0.17475
0.175049
0.175368
0.175652
0.175936
0.176244
0.176483
0.176664
0.176949
0.177438
0.177775
0.177964
0.178162
0.178455
0.178885
0.179266
0.179456
0.179524
0.179706
0.180183
0.180624
0.180959
0.181382
0.182137
0.182737
0.182874
0.182941
0.183093
0.183505
0.184464
0.185883
0.187384
0.188729
0.189993
0.19108
0.192397
0.194032
0.195718
0.1969
0.197515
0.197885
0.198417
0.198643
0.198565
0.198233
0.198205
0.19858
0.199735
0.201249
0.202911
0.204859
0.205997
0.206814
0.206919
0.207205
0.207793
0.209037
0.21061
0.211711
0.213372
0.214595
0.214677
0.215333
0.216553
0.217992
0.220028
0.188816
0.188882
0.188954
0.189016
0.189079
0.189125
0.18918
0.189244
0.189298
0.189419
0.189553
0.189546
0.189563
0.189767
0.189972
0.189979
0.190007
0.190189
0.190333
0.190398
0.190486
0.190678
0.190912
0.19106
0.191157
0.191253
0.191453
0.191718
0.19192