/*--------------------------------*- C++ -*----------------------------------*\
  =========                 |
  \\      /  F ield         | OpenFOAM: The Open Source CFD Toolbox
   \\    /   O peration     | Website:  https://openfoam.org
    \\  /    A nd           | Version:  7
     \\/     M anipulation  |
\*---------------------------------------------------------------------------*/
FoamFile
{
    version     2.0;
    format      ascii;
    class       volScalarField;
    location    "8.9";
    object      T;
}
// * * * * * * * * * * * * * * * * * * * * * * * * * * * * * * * * * * * * * //

dimensions      [0 0 0 1 0 0 0];

internalField   nonuniform List<scalar> 
1750
(
1.11437
1.28142
1.37149
1.41327
1.43039
1.4099
1.37121
1.34509
1.34515
1.3411
0.676035
0.799125
1.01267
1.1333
1.20645
1.25336
1.29829
1.33242
1.35807
1.34997
0.608412
0.603737
0.589046
0.600848
0.678266
0.818857
1.01174
1.16926
1.23106
1.28125
0.611997
0.609703
0.592731
0.569694
0.57401
0.586986
0.620898
0.751267
0.888704
1.09558
0.632812
0.649988
0.655514
0.653513
0.653484
0.663899
0.680865
0.694507
0.693261
0.789624
0.731531
0.739667
0.753821
0.755452
0.75202
0.747353
0.743133
0.736939
0.72869
0.73373
0.857052
0.835183
0.818849
0.818713
0.818273
0.813628
0.804137
0.787264
0.785442
0.789296
0.952357
0.94887
0.933676
0.910372
0.897663
0.889416
0.88416
0.875088
0.862676
0.848075
1.05882
1.04836
1.03509
1.01464
0.991774
0.967518
0.955847
0.946511
0.931058
0.905477
1.21346
1.1771
1.14837
1.11828
1.09229
1.0654
1.0384
1.01862
1.00171
0.974453
1.30564
1.28934
1.26923
1.24242
1.20817
1.17581
1.14279
1.10889
1.08234
1.0453
1.2974
1.29436
1.2925
1.28873
1.28035
1.26763
1.24768
1.21839
1.18625
1.13665
1.1957
1.21938
1.24562
1.25594
1.26185
1.26412
1.26308
1.25853
1.25097
1.2242
1.03689
1.05709
1.08644
1.12182
1.15461
1.18526
1.20873
1.22619
1.22945
1.23529
1.00096
1.00209
1.00493
1.01119
1.02433
1.04562
1.07886
1.12216
1.16486
1.23835
0.749726
0.656719
0.602569
0.59905
0.626645
0.747675
0.866098
0.958446
1.09728
1.24791
1.31416
1.29846
1.16643
1.02004
1.00043
0.782637
0.653755
0.569105
0.591093
0.662748
0.802083
0.899699
1.00759
1.15605
1.2861
1.31995
1.27737
1.11139
1.00775
1.00012
0.806985
0.653971
0.556949
0.606365
0.716133
0.823742
0.927789
1.06916
1.2007
1.31165
1.32127
1.24629
1.07363
1.00345
1.00004
0.813731
0.640205
0.552085
0.651619
0.74624
0.841128
0.968802
1.11397
1.24456
1.33248
1.32122
1.2169
1.04338
1.00126
1.00001
0.8054
0.622795
0.543093
0.676916
0.758894
0.877728
1.03882
1.16359
1.29328
1.34553
1.31976
1.16732
1.01724
1.00034
1
0.788289
0.604509
0.533001
0.685468
0.789823
0.955792
1.09156
1.21951
1.33125
1.35051
1.2946
1.09642
1.00557
1.00009
1
0.766709
0.598487
0.589915
0.751103
0.881212
1.02703
1.14786
1.28463
1.35291
1.35054
1.2302
1.04706
1.00169
1.00002
1
0.720225
0.595347
0.690854
0.813933
0.955192
1.08026
1.20752
1.33332
1.36549
1.3289
1.16563
1.01958
1.00043
1
1
0.684485
0.649488
0.732726
0.861836
1.01452
1.15133
1.2872
1.3681
1.37216
1.29239
1.09858
1.00566
1.0001
1
1
0.669536
0.692615
0.770578
0.926874
1.10923
1.24163
1.3483
1.38366
1.3736
1.22593
1.03555
1.00113
1.00002
1
1
0.656297
0.715004
0.860273
1.06853
1.21439
1.31798
1.38629
1.38831
1.321
1.11192
1.00801
1.00018
1
1
1
0.490871
0.770992
1.01942
1.18453
1.29783
1.36959
1.40113
1.38725
1.22622
1.04118
1.00162
1.00003
1
1
1
0.388284
0.913396
1.16269
1.28156
1.37076
1.39448
1.40552
1.31581
1.11138
1.00846
1.00019
1
1
1
1
0.730838
1.11818
1.28229
1.36055
1.41261
1.40328
1.37624
1.20454
1.03059
1.00102
1.00002
1
1
1
1
1.1201
1.30487
1.36935
1.40347
1.42331
1.40649
1.27452
1.06482
1.00268
1.00004
1
1
1
1
1
1.40335
1.40033
1.4008
1.41567
1.42598
1.35767
1.09465
0.995656
0.999637
0.999994
1
1
1
1
1
1.40134
1.39904
1.39702
1.41074
1.41971
1.29934
1.05795
1.00158
1.00002
1
1
1
1
1
1
1.38747
1.3991
1.41185
1.41495
1.39532
1.2036
1.01311
1.00005
1
1
1
1
1
1
1
1.37872
1.4011
1.42661
1.41849
1.35212
1.08972
1.00154
1
1
1
1
1
1
1
1
1.37534
1.40244
1.43576
1.41454
1.25097
1.02421
1.00013
1
1
1
1
1
1
1
1
1.38344
1.41143
1.44265
1.37674
1.14277
1.00433
1.00001
1
1
1
1
1
1
1
1
1.40984
1.4155
1.44598
1.30624
1.03903
1.00026
1
1
1
1
1
1
1
1
1
1.44903
1.40905
1.38851
1.15208
1.00486
1.00001
1
1
1
1
1
1
1
1
1
1.49061
1.37538
1.28146
1.04584
1.00039
1
1
1
1
1
1
1
1
1
1
1.5087
1.33811
1.14108
1.00492
1.00001
1
1
1
1
1
1
1
1
1
1
1.49475
1.26125
1.05112
1.00063
1
1
1
1
1
1
1
1
1
1
1
1.43364
1.17595
1.01237
1.00006
1
1
1
1
1
1
1
1
1
1
1
1.3455
1.08879
1.00218
1.00001
1
1
1
1
1
1
1
1
1
1
1
1.22611
1.03272
1.00031
1
1
1
1
1
1
1
1
1
1
1
1
1.1037
1.00517
1.00002
1
1
1
1
1
1
1
1
1
1
1
1
1
1
1
1
1
1
1
1
1
1
1
1
1
1
1
1
1
1
1
1
1
1
1
1
1
1
1
1
1
1
1
1
1
1
1
1
1
1
1
1
1
1
1
1
1
1
1
1
1
1
1
1
1
1
1
1
1
1
1
1
1
1
1
1
1
1
1
1
1
1
1
1
1
1
1
1
1
1
1
1
1
1
1
1
1
1
1
1
1
1
1
1
1
1
1
1
1
1
1
1
1
1
1
1
1
1
1
1
1
1
1
1
1
1
1
1
1
1
1
1
1
1
1
1
1
1
1
1
1
1
1
1
1
1
1
1
1
1
1
1
1
1
1
1
1
1
1
1
1
1
1
1
1
1
1
1
1
1
1
1
1
1
1
1
1
1
1
1
1
1
1
1
1
1
1
1
1
1
1
1
1
1
1
1
1
1
1
1
1
1
1
1
1
1
1
1
1
1
1
1
1
1
1
1
1
1
1
1
1
1
1
1
1
1
1
1
1
1
1
1
1
1
1
1
1
1
1
1
1
1
1
1
1
1
1
1
1
1
1
1
1
1
1
1
1
1
1
1
1
1
1
1
1
1
1
1
1
1
1
1
1
1
1
1
1
1
1
1
1
1
1
1
1
1
1
1
1
1
1
1
1
1
1
1
1
1
1
1
1
1
1
1
1
1
1
1
1
1
1
1
1
1
1
1
1
1
1
1
1
1
1
1
1
1
1
1
1
1
1
1
1
1
1
1
1
1
1
1
1
1
1
1
1
1
1
1
1
1
1
1
1
1
1
1
1
1
1
1
1
1
1.19518
1.00484
1
1
1
1
1
1
1
1
1
1
1
1
1
1
1
1
1
1
1.41632
1.08009
0.999776
1
1
1
1
1
1
1
1
1
1
1
1
1
1
1
1
1
1.6281
1.24141
1.00491
0.999986
1
1
1
1
1
1
1
1
1
1
1
1
1
1
1
1
1.74363
1.48151
1.14784
1.00022
1
1
1
1
1
1
1
1
1
1
1
1
1
1
1
1
1.71838
1.58371
1.48016
1.09213
0.999873
1
1
1
1
1
1
1
1
1
1
1
1
1
1
1
1.64676
1.6242
1.64716
1.41002
1.04108
0.999914
1
1
1
1
1
1
1
1
1
1
1
1
1
1
1.58537
1.6157
1.66457
1.65178
1.29714
1.00724
0.999981
0.999999
1
1
1
1
1
1
1
1
1
1
1
1
1.58569
1.60998
1.64956
1.64953
1.53071
1.15298
1.00071
1
1
1
1
1
1
1
1
1
1
1
1
1
1.58865
1.6011
1.62192
1.64095
1.6447
1.39484
1.03759
0.999957
0.999999
1
1
1
1
1
1
1
1
1
1
1
1.59282
1.59931
1.61104
1.63615
1.6553
1.58569
1.2245
1.0038
0.999991
1
1
1
1
1
1
1
1
1
1
1
1.59556
1.60112
1.61426
1.63453
1.64959
1.61313
1.43939
1.08128
1.00015
1
1
1
1
1
1
1
1
1
1
1
1.59847
1.60445
1.61833
1.63264
1.63726
1.62739
1.57764
1.26937
1.00893
0.99999
1
1
1
1
1
1
1
1
1
1
1.60287
1.60912
1.62127
1.63153
1.63344
1.63316
1.6219
1.45255
1.10182
1.00043
0.999999
1
1
1
1
1
1
1
1
1
1.60846
1.61294
1.62324
1.63028
1.63103
1.63107
1.62871
1.56343
1.29254
1.01859
1.00015
1
1
1
1
1
1
1
1
1
1.61482
1.61895
1.62691
1.63115
1.63272
1.6329
1.63627
1.6071
1.44574
1.05432
0.995199
0.9997
0.999997
1
1
1
1
1
1
1
1.24055
1.46232
1.54494
1.58859
1.61354
1.62598
1.63331
1.6301
1.57663
1.41478
1.11041
1.0063
1.00013
1
1
1
1
1
1
1
0.754596
1.23417
1.39624
1.48258
1.54213
1.5882
1.61426
1.62514
1.6176
1.59527
1.39975
1.099
1.00548
1.00011
1
1
1
1
1
1
0.772047
1.02451
1.19836
1.3379
1.43453
1.50676
1.56342
1.59787
1.61471
1.60935
1.56634
1.33945
1.06459
1.00269
1.00004
1
1
1
1
1
0.915869
0.943904
1.02564
1.15066
1.30045
1.40313
1.48336
1.54067
1.5899
1.59893
1.60112
1.52706
1.25039
1.02913
1.00079
1.00001
1
1
1
1
0.979304
0.891848
0.927995
1.02056
1.14487
1.28479
1.37495
1.46398
1.53256
1.57042
1.59542
1.58853
1.46053
1.15234
1.00958
1.00017
1
1
1
1
0.988982
0.858239
0.8554
0.966955
1.05248
1.1758
1.27246
1.37464
1.46764
1.51793
1.56624
1.58547
1.555
1.35611
1.06906
1.00228
1.00003
1
1
1
1.02682
0.848867
0.772845
0.89928
0.98915
1.09282
1.19028
1.27904
1.39747
1.45156
1.5163
1.56953
1.56891
1.48673
1.21089
1.01919
1.00037
1
1
1
1.01754
0.853357
0.761196
0.82318
0.930324
1.01853
1.12463
1.21204
1.32216
1.39147
1.46131
1.53179
1.5638
1.54801
1.37848
1.08496
1.00301
1.00004
1
1
1.00417
0.872604
0.787715
0.788617
0.852303
0.94798
1.05242
1.15371
1.24139
1.33186
1.3928
1.478
1.54242
1.54869
1.49124
1.22975
1.02121
1.00037
1
1
0.989771
0.901357
0.826421
0.794111
0.808415
0.898633
0.984675
1.10362
1.1886
1.27551
1.33704
1.41418
1.49594
1.5409
1.5262
1.35909
1.08362
1.00276
1.00003
1
0.986784
0.926749
0.856377
0.792342
0.78284
0.868109
0.931072
1.02941
1.13646
1.21995
1.30011
1.35959
1.44785
1.51985
1.52398
1.45394
1.18743
1.01407
1.0002
1
0.98415
0.939522
0.861727
0.783557
0.759553
0.832974
0.904699
0.973227
1.09269
1.17292
1.2601
1.32111
1.39681
1.48307
1.51774
1.50233
1.31548
1.04956
1.00109
1.00001
0.97291
0.934929
0.859649
0.783835
0.757646
0.791721
0.881104
0.946664
1.02725
1.12045
1.19441
1.28088
1.34275
1.43006
1.50004
1.49972
1.40975
1.13516
1.00613
1.00007
0.945896
0.917739
0.857632
0.788319
0.762647
0.785553
0.84672
0.928201
0.987194
1.08635
1.15475
1.24081
1.31188
1.392
1.47048
1.49247
1.44194
1.22825
1.02308
1.00034
0.944071
0.915528
0.861206
0.80151
0.779075
0.790087
0.816401
0.904369
0.965908
1.05179
1.12847
1.19387
1.27554
1.35249
1.43371
1.48277
1.45696
1.30192
1.05715
1.00149
1.04499
0.887973
0.839059
0.798948
0.787662
0.794747
0.808892
0.895488
0.958251
1.01773
1.11276
1.17238
1.24622
1.31341
1.39652
1.46773
1.46515
1.37807
1.1195
1.00518
1.14456
0.906415
0.826102
0.794304
0.785858
0.789764
0.801151
0.877925
0.951014
0.994885
1.08088
1.15379
1.21346
1.28262
1.36123
1.44124
1.46464
1.41099
1.20337
1.0192
1.20079
0.941743
0.814745
0.784528
0.775619
0.770343
0.802268
0.86238
0.93541
0.987758
1.04479
1.13389
1.19578
1.25667
1.32457
1.40654
1.45865
1.42991
1.27877
1.05224
1.2629
1.00901
0.81946
0.776673
0.768675
0.763584
0.808793
0.861636
0.906755
0.983876
1.03859
1.10312
1.1738
1.23432
1.29505
1.36911
1.44271
1.43367
1.33816
1.1159
1.32564
1.08164
0.845502
0.773045
0.768318
0.766544
0.816643
0.860307
0.887494
0.965399
1.03071
1.08373
1.14555
1.20876
1.26915
1.33512
1.4133
1.43174
1.37592
1.20901
1.34608
1.16318
0.947883
0.781914
0.767179
0.769614
0.81771
0.855913
0.887663
0.941549
1.00648
1.06614
1.12274
1.18319
1.24025
1.30072
1.37297
1.42196
1.39031
1.31119
1.33403
1.22597
1.05917
0.840574
0.764871
0.76894
0.815206
0.849085
0.891959
0.941093
0.983587
1.04245
1.09978
1.16063
1.21524
1.2673
1.33077
1.39939
1.40007
1.40921
1.30633
1.23678
1.11422
0.965598
0.781952
0.765781
0.807222
0.838517
0.88906
0.937441
0.971329
1.02352
1.07681
1.13305
1.18931
1.24007
1.29649
1.3682
1.42427
1.48961
1.29718
1.23487
1.15017
1.05235
0.838803
0.763899
0.793565
0.826649
0.880821
0.923324
0.958893
1.00969
1.05918
1.10999
1.16392
1.21495
1.26418
1.33352
1.43509
1.56254
1.30313
1.23662
1.17899
1.11736
1.01642
0.830782
0.795006
0.819088
0.866455
0.898885
0.938621
0.984791
1.02981
1.07908
1.12775
1.17633
1.22371
1.31004
1.46567
1.6506
)
;

boundaryField
{
    inlet
    {
        type            fixedValue;
        value           uniform 1;
    }
    outlet
    {
        type            inletOutlet;
        inletValue      uniform 1;
        value           nonuniform List<scalar> 
35
(
1.30322
1.23662
1.17893
1.11737
1.01685
0.831234
0.795089
0.818792
0.866086
0.898663
0.938617
0.984695
1.02973
1.07918
1.12781
1.17634
1.22372
1.31003
1.46565
1.65059
1.34107
1.34973
1.28108
1.0955
0.789708
0.733958
0.789579
0.848083
0.905224
0.97435
1.0453
1.13666
1.22421
1.2353
1.23835
)
;
    }
    airfoil
    {
        type            zeroGradient;
    }
    top
    {
        type            symmetryPlane;
    }
    bottom
    {
        type            symmetryPlane;
    }
    defaultFaces
    {
        type            empty;
    }
}


// ************************************************************************* //
