/*--------------------------------*- C++ -*----------------------------------*\
  =========                 |
  \\      /  F ield         | OpenFOAM: The Open Source CFD Toolbox
   \\    /   O peration     | Website:  https://openfoam.org
    \\  /    A nd           | Version:  7
     \\/     M anipulation  |
\*---------------------------------------------------------------------------*/
FoamFile
{
    version     2.0;
    format      ascii;
    class       volScalarField;
    location    "8.9";
    object      p;
}
// * * * * * * * * * * * * * * * * * * * * * * * * * * * * * * * * * * * * * //

dimensions      [1 -1 -2 0 0 0 0];

internalField   nonuniform List<scalar> 
1750
(
0.246084
0.485949
0.617707
0.630774
0.635709
0.695215
0.777906
0.82402
0.909726
0.981637
0.0254329
0.103635
0.377822
0.658649
0.841408
0.881388
0.89469
0.894132
0.961687
0.990501
0.0253519
0.0269968
0.0446031
0.172883
0.465648
0.711926
0.879597
0.981583
0.99325
0.969606
0.0351496
0.0461117
0.0557003
0.0642228
0.0779978
0.18566
0.377391
0.641653
0.787619
0.914551
0.066995
0.0806689
0.097213
0.103422
0.105636
0.114806
0.117317
0.168156
0.295667
0.600553
0.135298
0.138861
0.15053
0.159236
0.168799
0.174701
0.182688
0.191044
0.193512
0.251601
0.265428
0.260261
0.260797
0.267327
0.268965
0.270274
0.272228
0.272526
0.269843
0.267884
0.485869
0.460959
0.444416
0.427333
0.413041
0.399325
0.387601
0.377054
0.367514
0.352124
0.8238
0.776093
0.729718
0.688132
0.648044
0.610978
0.577388
0.544441
0.521724
0.48894
1.09249
1.06586
1.02924
0.988393
0.942053
0.892592
0.841574
0.787055
0.738996
0.668664
1.13318
1.13068
1.12668
1.11993
1.11034
1.09436
1.06923
1.03347
0.99229
0.911089
1.09118
1.09989
1.10518
1.11031
1.11193
1.11182
1.1106
1.10699
1.10089
1.0761
1.02039
1.02802
1.03729
1.04792
1.06002
1.07161
1.08147
1.08843
1.09452
1.09383
1.001
1.00174
1.00311
1.00533
1.00892
1.01444
1.02199
1.03161
1.04255
1.06004
1.00002
1.00003
1.00006
1.00014
1.0003
1.00066
1.00143
1.00297
1.00547
1.01463
0.0269022
0.0214737
0.0215955
0.0286777
0.0608459
0.135807
0.273054
0.510619
0.862742
1.10914
1.1352
1.08194
1.01514
1.00066
1.00001
0.0287968
0.0211189
0.0216374
0.0339743
0.085015
0.182414
0.343407
0.621744
0.978984
1.14225
1.13606
1.06351
1.00765
1.00023
1
0.0315729
0.018704
0.0208756
0.0399923
0.10777
0.21095
0.394993
0.721406
1.06204
1.15321
1.12785
1.04457
1.00394
1.0001
1
0.0298403
0.0171059
0.0229611
0.0564546
0.124464
0.243674
0.489542
0.857613
1.12496
1.15729
1.11089
1.02973
1.00196
1.00004
1
0.0280061
0.0157686
0.0294876
0.0671381
0.144731
0.310454
0.622258
0.975038
1.15726
1.15805
1.09249
1.01753
1.00079
1.00001
1
0.0238565
0.0164738
0.0345399
0.0780412
0.186054
0.431564
0.756245
1.06898
1.17108
1.15245
1.06732
1.00814
1.00028
1
1
0.0206014
0.0203692
0.0376866
0.108139
0.282818
0.549298
0.890534
1.14382
1.17664
1.13366
1.04225
1.00368
1.0001
1
1
0.0131904
0.0231688
0.0528566
0.163088
0.384049
0.685376
1.03418
1.18354
1.17796
1.11044
1.02369
1.00144
1.00003
1
1
0.00576149
0.0215244
0.093661
0.252711
0.516503
0.868506
1.13934
1.19672
1.17223
1.07629
1.01038
1.00042
1.00001
1
1
0.00308132
0.0291665
0.148514
0.370819
0.700515
1.04081
1.19794
1.20104
1.14803
1.04319
1.00394
1.00013
1
1
1
0.00399081
0.0672642
0.234405
0.547339
0.920762
1.16483
1.21894
1.20223
1.10227
1.01912
1.00113
1.00003
1
1
1
0.00626975
0.133654
0.417664
0.796424
1.09956
1.22475
1.22325
1.16477
1.05463
1.00646
1.00027
1.00001
1
1
1
0.0298861
0.257114
0.689308
1.0298
1.21034
1.23839
1.21706
1.10951
1.02216
1.00151
1.00005
1
1
1
1
0.162325
0.567849
0.974442
1.18236
1.25098
1.23901
1.16262
1.05376
1.00657
1.00031
1.00001
1
1
1
1
0.573639
0.968209
1.18804
1.24503
1.25655
1.20327
1.09758
1.01919
1.0013
1.00004
1
1
1
1
1
1.24747
1.25402
1.25807
1.25403
1.24111
1.14268
1.03487
1.00136
1.00002
1
1
1
1
1
1
1.24585
1.25473
1.25977
1.24888
1.22941
1.12975
1.02837
1.00273
1.00011
1
1
1
1
1
1
1.24512
1.25898
1.26423
1.24616
1.19739
1.07643
1.01024
1.0004
1.00001
1
1
1
1
1
1
1.24599
1.26516
1.26668
1.23477
1.1603
1.04677
1.00424
1.00012
1
1
1
1
1
1
1
1.25108
1.27062
1.26837
1.22458
1.11613
1.0212
1.00125
1.00003
1
1
1
1
1
1
1
1.25657
1.27161
1.26775
1.18957
1.06918
1.00906
1.00037
1.00001
1
1
1
1
1
1
1
1.264
1.26457
1.2496
1.14165
1.03677
1.00303
1.00009
1
1
1
1
1
1
1
1
1.2922
1.24703
1.21825
1.09449
1.01632
1.00092
1.00002
1
1
1
1
1
1
1
1
1.31767
1.23283
1.16781
1.05022
1.00552
1.00023
1
1
1
1
1
1
1
1
1
1.3285
1.20693
1.10988
1.02341
1.00181
1.00005
1
1
1
1
1
1
1
1
1
1.32493
1.166
1.06467
1.00896
1.00044
1.00001
1
1
1
1
1
1
1
1
1
1.28957
1.11907
1.02957
1.00257
1.00009
1
1
1
1
1
1
1
1
1
1
1.23266
1.07225
1.0114
1.00059
1.00001
1
1
1
1
1
1
1
1
1
1
1.15654
1.034
1.00288
1.00009
1
1
1
1
1
1
1
1
1
1
1
1.07007
1.00902
1.00039
1.00001
1
1
1
1
1
1
1
1
1
1
1
1
1
1
1
1
1
1
1
1
1
1
1
1
1
1
1
1
1
1
1
1
1
1
1
1
1
1
1
1
1
1
1
1
1
1
1
1
1
1
1
1
1
1
1
1
1
1
1
1
1
1
1
1
1
1
1
1
1
1
1
1
1
1
1
1
1
1
1
1
1
1
1
1
1
1
1
1
1
1
1
1
1
1
1
1
1
1
1
1
1
1
1
1
1
1
1
1
1
1
1
1
1
1
1
1
1
1
1
1
1
1
1
1
1
1
1
1
1
1
1
1
1
1
1
1
1
1
1
1
1
1
1
1
1
1
1
1
1
1
1
1
1
1
1
1
1
1
1
1
1
1
1
1
1
1
1
1
1
1
1
1
1
1
1
1
1
1
1
1
1
1
1
1
1
1
1
1
1
1
1
1
1
1
1
1
1
1
1
1
1
1
1
1
1
1
1
1
1
1
1
1
1
1
1
1
1
1
1
1
1
1
1
1
1
1
1
1
1
1
1
1
1
1
1
1
1
1
1
1
1
1
1
1
1
1
1
1
1
1
1
1
1
1
1
1
1
1
1
1
1
1
1
1
1
1
1
1
1
1
1
1
1
1
1
1
1
1
1
1
1
1
1
1
1
1
1
1
1
1
1
1
1
1
1
1
1
1
1
1
1
1
1
1
1
1
1
1
1
1
1
1
1
1
1
1
1
1
1
1
1
1
1
1
1
1
1
1
1
1
1
1
1
1
1
1
1
1
1
1
1
1
1
1
1
1
1
1
1
1
1
1
1
1
1
1
1
1
1
1
1
4.52335
1.627
0.999997
1
1
1
1
1
1
1
1
1
1
1
1
1
1
1
1
1
10.6846
7.21297
3.6863
1.12046
0.999999
1
1
1
1
1
1
1
1
1
1
1
1
1
1
1
8.84665
7.78593
7.70126
5.6231
1.6395
0.999879
1
1
1
1
1
1
1
1
1
1
1
1
1
1
8.0235
7.70326
7.92135
7.89838
6.25825
1.99741
0.999136
1
1
1
1
1
1
1
1
1
1
1
1
1
7.77489
7.72499
7.84704
7.90277
7.79237
6.49297
2.2031
0.998317
1
1
1
1
1
1
1
1
1
1
1
1
7.81242
7.82817
7.88341
7.84181
7.79514
7.77022
6.46524
2.15632
0.998305
1
1
1
1
1
1
1
1
1
1
1
7.85472
7.8751
7.86187
7.82773
7.81193
7.81789
7.78409
6.42924
2.03949
0.998128
1
1
1
1
1
1
1
1
1
1
7.8583
7.85884
7.82949
7.80066
7.8155
7.80958
7.8172
7.78343
6.2265
1.87617
0.997886
1.00001
1
1
1
1
1
1
1
1
7.84441
7.81606
7.78804
7.77698
7.79151
7.77624
7.77613
7.72445
7.56428
5.42638
1.50767
0.998353
1.00001
1
1
1
1
1
1
1
7.80262
7.7695
7.75483
7.75033
7.74697
7.72221
7.69941
7.65831
7.62712
7.43716
4.2685
1.18872
0.999204
1
1
1
1
1
1
1
7.75881
7.72997
7.72208
7.70644
7.68325
7.64963
7.61765
7.58337
7.53031
7.43542
6.8923
2.92
1.03169
0.999856
0.999998
1
1
1
1
1
7.71325
7.68634
7.67628
7.64567
7.60927
7.57079
7.55177
7.51508
7.47753
7.42129
7.53044
6.40716
2.07309
1.00184
1
1
1
1
1
1
7.6575
7.62878
7.61326
7.5783
7.54511
7.51786
7.50233
7.48063
7.47293
7.45021
7.52259
7.40747
5.0178
1.41066
0.99899
0.999963
1
1
1
1
7.60119
7.56882
7.5449
7.50626
7.47547
7.45495
7.4451
7.43534
7.43411
7.42829
7.42368
7.38908
7.0878
3.4545
1.08942
1.00022
1
1
1
1
7.38138
7.25278
7.20551
7.15981
7.1363
7.12623
7.13314
7.14737
7.16514
7.15842
7.14205
7.13504
7.15993
6.01111
1.93081
0.977324
0.998682
0.999991
1
1
2.47471
3.81816
4.39959
4.87834
5.3138
5.63673
5.89567
6.09308
6.28409
6.40437
6.48831
6.57585
6.74627
6.73181
5.11127
1.72188
1.01803
1.00012
1
1
0.689006
1.97561
2.73402
3.33307
3.7968
4.28087
4.67666
5.03785
5.34446
5.59076
5.75364
5.90779
6.1578
6.44914
6.33651
4.12979
1.42526
1.00853
1.00005
1
0.638001
1.22127
1.68133
2.27402
2.8139
3.2794
3.70934
4.12265
4.46404
4.82043
5.06568
5.2763
5.5665
5.91295
6.10818
5.71048
3.01363
1.16654
1.00222
1.00001
0.770037
1.02933
1.17663
1.54834
2.04391
2.51374
2.97516
3.38601
3.77835
4.137
4.48545
4.74478
5.08559
5.40496
5.66021
5.63831
4.79
1.99251
1.0384
1.00029
0.927713
0.912664
0.96414
1.26922
1.59
1.97037
2.39397
2.79854
3.21284
3.55641
3.94815
4.25663
4.61238
4.96644
5.14871
5.38729
5.24744
3.42739
1.31247
1.00571
0.974282
0.896749
0.892382
1.0494
1.28804
1.61881
1.97264
2.33442
2.69773
3.04634
3.42416
3.77853
4.12781
4.50651
4.69266
4.99183
5.17315
4.56033
2.09556
1.05378
0.977694
0.917032
0.92121
0.973804
1.05624
1.30629
1.6238
1.96582
2.30086
2.66165
3.01137
3.40994
3.74133
4.08308
4.3354
4.62965
4.98972
4.87563
3.28889
1.3226
1.0093
0.978382
0.97442
0.965523
0.989037
1.16848
1.38814
1.68208
1.99914
2.35921
2.70231
3.08191
3.41378
3.69826
3.98804
4.25411
4.63833
4.82315
4.13952
2.00939
1.04467
1.02378
0.999293
0.953658
0.945432
1.06602
1.2321
1.47209
1.74172
2.06773
2.4189
2.73792
3.07311
3.36431
3.64617
3.93337
4.2974
4.68385
4.30723
3.13854
1.05702
1.03661
1.00287
0.955123
0.943905
0.984275
1.07992
1.27745
1.53195
1.78964
2.13541
2.44793
2.76358
3.09312
3.36467
3.69442
4.00783
4.39203
4.39018
4.6195
1.04957
1.03241
1.00612
0.976471
0.964567
0.984717
1.01324
1.14693
1.36458
1.62243
1.92807
2.2577
2.53405
2.85804
3.13208
3.44955
3.70082
4.0803
4.61965
6.15145
1.03726
1.02664
1.01932
1.00706
0.995045
0.984608
0.991725
1.09982
1.25829
1.4897
1.74988
2.06755
2.3352
2.62195
2.91225
3.19663
3.44596
3.81445
4.85225
7.80613
1.0148
1.01208
1.02377
1.01857
0.994312
0.967267
0.962621
1.03759
1.15447
1.36365
1.57808
1.8565
2.12052
2.37498
2.69614
2.9658
3.26784
3.58633
5.06444
9.48708
0.991523
0.996729
1.01449
1.01617
0.989661
0.962878
0.958626
0.996204
1.05407
1.23155
1.44297
1.66606
1.93783
2.17747
2.51319
2.78799
3.084
3.50291
5.55379
10.8161
0.988154
0.994504
1.00435
1.00943
0.988137
0.968457
0.969361
1.00107
1.03739
1.15814
1.34827
1.55165
1.81302
2.04277
2.31723
2.61812
2.852
3.48077
6.02552
11.2854
0.862852
0.974017
0.994385
1.00335
0.990789
0.981119
0.988435
0.998414
1.02158
1.11707
1.27163
1.44824
1.68641
1.93769
2.14443
2.43726
2.69699
3.58549
6.43165
11.2642
0.736151
0.899758
0.972887
0.998908
0.996453
0.991499
0.986391
0.977837
0.986399
1.0545
1.17851
1.34842
1.52471
1.78011
2.01442
2.24225
2.60309
3.936
6.79977
10.8054
0.653079
0.806915
0.923371
0.984556
1.00049
0.995739
0.984343
0.972207
0.979788
1.0311
1.09728
1.25833
1.42722
1.62239
1.88406
2.13245
2.62163
4.53811
6.79223
9.99311
0.586798
0.709451
0.841943
0.943444
0.992351
0.994507
0.985765
0.973685
0.983519
1.01686
1.04195
1.15685
1.34744
1.52385
1.72198
2.01712
2.82623
5.15317
6.71022
9.04114
0.572961
0.640525
0.750401
0.870652
0.960402
0.987276
0.982869
0.975323
0.97894
0.991858
1.00315
1.08237
1.23771
1.42625
1.6009
1.97232
3.30019
5.63816
6.50311
8.00053
0.578744
0.58247
0.666976
0.785341
0.898283
0.964818
0.977041
0.975226
0.970837
0.970402
0.974082
1.03758
1.14435
1.31236
1.50773
2.12696
3.89007
5.76836
6.2194
6.94569
0.633694
0.586876
0.6082
0.702916
0.816683
0.917724
0.964855
0.969429
0.961522
0.954334
0.956782
1.00493
1.06248
1.19996
1.54115
2.5801
4.32237
5.61947
5.82543
5.99904
0.707633
0.63721
0.610036
0.639917
0.730116
0.848076
0.930704
0.955744
0.945473
0.935074
0.936534
0.967411
1.00434
1.19292
1.78329
3.15841
4.38271
5.31153
5.26874
5.16842
0.804382
0.72009
0.628623
0.626565
0.656947
0.760257
0.862028
0.922611
0.932304
0.92502
0.925007
0.939543
0.983891
1.32721
2.33768
3.62172
4.24766
4.84047
4.73488
4.5955
0.934518
0.865806
0.759928
0.665452
0.65321
0.678409
0.744495
0.830044
0.885733
0.908933
0.939223
1.03958
1.35096
2.03337
2.84646
3.484
3.74693
3.99953
3.94238
3.84171
)
;

boundaryField
{
    inlet
    {
        type            fixedValue;
        value           uniform 1;
    }
    outlet
    {
        type            zeroGradient;
    }
    airfoil
    {
        type            zeroGradient;
    }
    top
    {
        type            symmetryPlane;
    }
    bottom
    {
        type            symmetryPlane;
    }
    defaultFaces
    {
        type            empty;
    }
}


// ************************************************************************* //
