/*--------------------------------*- C++ -*----------------------------------*\
  =========                 |
  \\      /  F ield         | OpenFOAM: The Open Source CFD Toolbox
   \\    /   O peration     | Website:  https://openfoam.org
    \\  /    A nd           | Version:  7
     \\/     M anipulation  |
\*---------------------------------------------------------------------------*/
FoamFile
{
    version     2.0;
    format      ascii;
    class       volScalarField;
    location    "12";
    object      rho;
}
// * * * * * * * * * * * * * * * * * * * * * * * * * * * * * * * * * * * * * //

dimensions      [1 -3 0 0 0 0 0];

internalField   nonuniform List<scalar> 
90000
(
0.909928
0.950443
0.993454
1.03602
1.07697
1.11621
1.15345
1.1877
1.21945
1.24721
1.27271
1.29382
1.31319
1.32826
1.34214
1.35236
1.36161
1.36812
1.37375
1.37781
1.3811
1.38336
1.38574
1.38567
1.38432
1.38045
1.37463
1.36944
1.36476
1.36534
1.367
1.3694
1.37198
1.37457
1.37662
1.3782
1.37925
1.37866
1.37651
1.3746
1.37326
1.37311
1.37356
1.37479
1.37669
1.37878
1.37956
1.37895
1.37744
1.37639
1.37656
1.37687
1.378
1.37975
1.37972
1.37902
1.3782
1.37803
1.37845
1.37942
1.37982
1.37958
1.37901
1.37893
1.3792
1.37965
1.37973
1.37964
1.37966
1.37993
1.38033
1.38038
1.38029
1.3802
1.38017
1.38022
1.38041
1.38063
1.38068
1.38062
1.38044
1.38044
1.38052
1.38073
1.38105
1.38137
1.38163
1.38178
1.38179
1.38176
1.38166
1.38157
1.38157
1.38162
1.38168
1.38172
1.38174
1.38181
1.38192
1.38218
0.877056
0.877572
0.878958
0.881958
0.887023
0.895226
0.90664
0.922565
0.942285
0.967168
0.995468
1.02834
1.06325
1.10067
1.13815
1.17489
1.20991
1.24092
1.26941
1.29155
1.31134
1.32415
1.33576
1.34213
1.34783
1.35062
1.35439
1.35919
1.36636
1.37056
1.37355
1.3766
1.37902
1.38104
1.38075
1.3801
1.37773
1.37476
1.37206
1.37226
1.37305
1.37437
1.37649
1.37862
1.37972
1.3792
1.37804
1.37644
1.3753
1.37554
1.37663
1.37857
1.38011
1.37988
1.37895
1.37776
1.37777
1.37807
1.37886
1.37971
1.37964
1.3791
1.37878
1.37894
1.37934
1.37968
1.37959
1.37957
1.37969
1.38001
1.38034
1.38035
1.38021
1.38015
1.38017
1.38025
1.38045
1.38066
1.38068
1.3805
1.38035
1.38039
1.38052
1.38075
1.38108
1.38139
1.3816
1.38174
1.38178
1.38171
1.38159
1.38154
1.38156
1.38161
1.38165
1.38168
1.38172
1.38179
1.38191
1.38217
0.877392
0.877415
0.877442
0.877477
0.877529
0.877625
0.87784
0.878298
0.879111
0.880574
0.882968
0.887018
0.893117
0.902634
0.915678
0.934284
0.957552
0.987648
1.02207
1.06217
1.10448
1.14836
1.19147
1.23119
1.26877
1.29998
1.32751
1.34599
1.3603
1.36818
1.37349
1.37565
1.37713
1.37785
1.37764
1.37504
1.37012
1.37084
1.37342
1.3761
1.37959
1.38246
1.38349
1.38253
1.38091
1.37771
1.37588
1.37534
1.37591
1.37821
1.38088
1.38212
1.38152
1.37969
1.37847
1.37805
1.37867
1.38017
1.38119
1.3808
1.37983
1.37916
1.37931
1.38004
1.38057
1.38029
1.3799
1.38
1.38048
1.38089
1.38081
1.38065
1.38053
1.38054
1.38065
1.38083
1.38106
1.3811
1.38097
1.38073
1.38061
1.38068
1.3809
1.3812
1.38152
1.38176
1.38189
1.38197
1.38197
1.3819
1.38177
1.38173
1.38176
1.3818
1.38182
1.38185
1.38187
1.38196
1.38209
1.38235
0.878151
0.878168
0.878187
0.878209
0.878236
0.878276
0.878303
0.878342
0.878387
0.878436
0.878493
0.878572
0.878695
0.878913
0.879385
0.880273
0.881796
0.884567
0.889093
0.896896
0.908491
0.926686
0.950828
0.984314
1.02398
1.07208
1.12365
1.17501
1.22456
1.26455
1.30092
1.32263
1.34135
1.3494
1.35656
1.36061
1.36773
1.37544
1.38319
1.38876
1.39142
1.39016
1.3886
1.38498
1.37902
1.37649
1.37668
1.37845
1.38189
1.38556
1.38555
1.38416
1.38153
1.37951
1.37954
1.38113
1.3829
1.38389
1.38323
1.38169
1.38038
1.38079
1.38199
1.38271
1.38225
1.3814
1.38143
1.38196
1.38249
1.38235
1.38198
1.38192
1.382
1.38207
1.3821
1.38218
1.38225
1.38219
1.38196
1.38169
1.38172
1.38182
1.38196
1.3822
1.38244
1.38261
1.38269
1.38278
1.38275
1.3826
1.38247
1.38244
1.38247
1.38249
1.38248
1.38245
1.38246
1.38252
1.38262
1.38285
0.879094
0.87912
0.879148
0.879176
0.879204
0.87923
0.879261
0.879275
0.879288
0.879306
0.87933
0.879363
0.879405
0.879474
0.879512
0.879549
0.879592
0.879648
0.879737
0.879904
0.880231
0.881007
0.882497
0.885556
0.890922
0.901054
0.916806
0.942776
0.977325
1.02482
1.07911
1.13921
1.19882
1.25045
1.29677
1.32961
1.35676
1.36922
1.37727
1.38181
1.3851
1.38597
1.38369
1.37842
1.37934
1.38128
1.38552
1.38897
1.39029
1.38886
1.38573
1.3838
1.38209
1.38242
1.38469
1.38698
1.38668
1.38577
1.38421
1.38301
1.38351
1.38475
1.38532
1.38484
1.38403
1.38382
1.38429
1.38478
1.38472
1.3844
1.3842
1.38421
1.38421
1.38416
1.38419
1.38433
1.38435
1.38416
1.38375
1.3835
1.3835
1.38355
1.38372
1.38402
1.38422
1.38428
1.38427
1.38422
1.3841
1.38393
1.38381
1.38376
1.38374
1.38371
1.38365
1.38358
1.38356
1.3836
1.3837
1.3839
0.879947
0.879966
0.879987
0.880008
0.880029
0.880052
0.880074
0.880097
0.880119
0.88014
0.880161
0.880181
0.8802
0.880218
0.88023
0.880236
0.880247
0.880265
0.880294
0.880335
0.880438
0.88045
0.880467
0.880504
0.88059
0.880805
0.881288
0.882601
0.885413
0.891731
0.903069
0.924689
0.956422
1.0045
1.062
1.12856
1.19548
1.25012
1.29784
1.32465
1.34777
1.35906
1.36675
1.37414
1.38498
1.39365
1.39917
1.39793
1.39568
1.39042
1.38241
1.38226
1.38347
1.38678
1.39061
1.39042
1.38908
1.38634
1.3848
1.38539
1.38702
1.38823
1.38762
1.38648
1.38581
1.38629
1.38714
1.38728
1.38693
1.38646
1.38641
1.38641
1.38641
1.38643
1.3866
1.38664
1.38644
1.38602
1.3856
1.38547
1.3855
1.38559
1.38576
1.386
1.38609
1.38605
1.38598
1.38588
1.3857
1.38551
1.38542
1.38536
1.38532
1.38524
1.38514
1.38503
1.38499
1.38501
1.38507
1.38522
0.880566
0.880577
0.880589
0.880601
0.880613
0.880626
0.880638
0.880651
0.880664
0.880677
0.88069
0.880704
0.880717
0.880731
0.880744
0.880757
0.880768
0.880778
0.880787
0.880796
0.8808
0.880807
0.880818
0.880835
0.880861
0.880905
0.881022
0.881018
0.881036
0.881117
0.881357
0.882135
0.884104
0.889285
0.899635
0.92137
0.95521
1.00876
1.07357
1.14672
1.21822
1.27631
1.32738
1.35892
1.37779
1.38529
1.39115
1.39167
1.38741
1.38101
1.38269
1.38617
1.39049
1.3933
1.39202
1.38937
1.38658
1.38598
1.38659
1.38901
1.3899
1.38911
1.38798
1.38727
1.38764
1.38882
1.38881
1.38838
1.38783
1.38793
1.38812
1.38805
1.38788
1.38795
1.38821
1.38817
1.38789
1.38744
1.38707
1.387
1.38704
1.38718
1.3874
1.3876
1.38761
1.38756
1.38748
1.38733
1.38715
1.38695
1.38685
1.38679
1.38672
1.38662
1.38647
1.38635
1.38633
1.38634
1.38641
1.38654
0.880921
0.880926
0.880931
0.880937
0.880942
0.880948
0.880954
0.88096
0.880966
0.880972
0.880978
0.880984
0.880991
0.880998
0.881004
0.881011
0.881019
0.881026
0.881033
0.881041
0.881048
0.881057
0.881065
0.881074
0.881081
0.881088
0.881098
0.88112
0.881147
0.881179
0.881262
0.881256
0.881268
0.881326
0.881524
0.882267
0.884356
0.890373
0.903082
0.930769
0.973579
1.03869
1.11589
1.19359
1.26524
1.30741
1.34277
1.35683
1.36718
1.37733
1.38979
1.39981
1.40015
1.3984
1.39243
1.38409
1.3844
1.3863
1.38968
1.3923
1.39145
1.38919
1.38704
1.38753
1.38922
1.39043
1.38994
1.38872
1.38812
1.38849
1.38893
1.38894
1.38881
1.38895
1.38911
1.38895
1.38846
1.3881
1.38796
1.38795
1.38806
1.3882
1.38842
1.38862
1.38859
1.3885
1.38836
1.38814
1.38791
1.38782
1.38781
1.38776
1.3877
1.38759
1.38747
1.38735
1.38733
1.38737
1.38747
1.38758
0.881089
0.881092
0.881094
0.881096
0.881099
0.881101
0.881104
0.881106
0.881109
0.881112
0.881116
0.881119
0.881123
0.881127
0.881132
0.881136
0.881141
0.881147
0.881153
0.881159
0.881167
0.881175
0.881183
0.881192
0.881202
0.881212
0.881221
0.881231
0.881243
0.881256
0.881267
0.88129
0.881314
0.88134
0.88139
0.881386
0.881398
0.88147
0.881769
0.882958
0.886331
0.896305
0.916742
0.95943
1.02141
1.10427
1.19086
1.26377
1.3275
1.36347
1.38211
1.38983
1.39354
1.38879
1.38105
1.38261
1.38703
1.39132
1.39282
1.39183
1.38829
1.38629
1.38673
1.38936
1.39081
1.39043
1.38898
1.38828
1.38861
1.38911
1.38911
1.38898
1.38911
1.38951
1.38945
1.38918
1.38865
1.38833
1.38834
1.38834
1.3884
1.38863
1.38886
1.38896
1.38895
1.38888
1.38874
1.38855
1.38836
1.38825
1.38825
1.38825
1.38819
1.38805
1.38791
1.38785
1.38786
1.38793
1.38804
1.38817
0.881161
0.881162
0.881163
0.881165
0.881166
0.881167
0.881169
0.881171
0.881173
0.881175
0.881178
0.88118
0.881184
0.881187
0.881191
0.881196
0.881201
0.881206
0.881212
0.881218
0.881226
0.881234
0.881242
0.881252
0.881262
0.881272
0.881282
0.881293
0.881302
0.881312
0.881318
0.881326
0.881334
0.881341
0.881349
0.881363
0.881376
0.881394
0.881387
0.88139
0.881424
0.881609
0.88233
0.885145
0.892902
0.914699
0.954636
1.02486
1.11353
1.20231
1.28178
1.32123
1.3544
1.36355
1.37715
1.38841
1.3989
1.39825
1.39514
1.38724
1.38387
1.38527
1.38917
1.39222
1.39139
1.3887
1.38732
1.38805
1.38955
1.38951
1.3891
1.3889
1.38933
1.38978
1.38957
1.38879
1.38841
1.38838
1.38846
1.38849
1.38859
1.38882
1.38907
1.38908
1.38906
1.38899
1.38878
1.38856
1.38839
1.38841
1.38841
1.3884
1.38836
1.38826
1.38813
1.3881
1.38815
1.38826
1.38837
1.38847
0.881207
0.881208
0.881209
0.88121
0.881211
0.881213
0.881215
0.881217
0.88122
0.881222
0.881225
0.881229
0.881233
0.881237
0.881242
0.881247
0.881252
0.881258
0.881264
0.881271
0.881278
0.881286
0.881294
0.881302
0.88131
0.881318
0.881326
0.881333
0.881339
0.881345
0.881349
0.881352
0.881354
0.881355
0.881356
0.881357
0.881358
0.881358
0.881359
0.88136
0.881358
0.881354
0.881356
0.881383
0.881522
0.882243
0.884814
0.894279
0.9166
0.968045
1.04497
1.14225
1.23878
1.30896
1.36361
1.37949
1.39164
1.39125
1.38452
1.38176
1.38545
1.39088
1.39322
1.39212
1.38792
1.3858
1.38664
1.38947
1.38996
1.38936
1.38848
1.38877
1.38979
1.38978
1.38902
1.38827
1.38829
1.38843
1.38853
1.38861
1.38878
1.38904
1.38912
1.38909
1.38905
1.38895
1.38877
1.3885
1.38836
1.3884
1.38844
1.38842
1.38836
1.38825
1.38817
1.38817
1.38823
1.38836
1.3885
1.38862
0.881259
0.881261
0.881263
0.881266
0.881269
0.881272
0.881275
0.881279
0.881282
0.881286
0.881289
0.881294
0.881299
0.881304
0.88131
0.881315
0.881319
0.881325
0.88133
0.881336
0.881341
0.881345
0.88135
0.881355
0.881359
0.881362
0.881365
0.881367
0.881368
0.881367
0.881367
0.881365
0.881363
0.881361
0.881358
0.881355
0.881352
0.881348
0.881344
0.881339
0.881336
0.881332
0.881328
0.881326
0.881323
0.881327
0.881354
0.881533
0.882359
0.886202
0.897849
0.932085
0.992752
1.08881
1.1973
1.27308
1.33628
1.35148
1.36798
1.38112
1.39544
1.39875
1.3961
1.38761
1.38334
1.38517
1.38922
1.39081
1.38962
1.38788
1.38815
1.3896
1.39014
1.3894
1.38806
1.38805
1.38835
1.38848
1.38851
1.38861
1.38891
1.38907
1.38906
1.38903
1.38899
1.38888
1.38861
1.38839
1.38833
1.38837
1.38842
1.38841
1.38833
1.3882
1.38817
1.38819
1.38827
1.38841
1.38855
1.38865
0.881328
0.88133
0.881334
0.881337
0.881341
0.881345
0.881349
0.881353
0.881357
0.881361
0.881365
0.881368
0.881373
0.881377
0.881381
0.881385
0.881388
0.881391
0.881395
0.881397
0.881398
0.8814
0.881402
0.881402
0.881401
0.8814
0.881398
0.881395
0.881391
0.881387
0.881381
0.881376
0.88137
0.881365
0.881359
0.881353
0.881348
0.881342
0.881336
0.881331
0.881328
0.881326
0.881328
0.88133
0.881336
0.881343
0.881359
0.88136
0.881367
0.881417
0.88169
0.883313
0.889264
0.911145
0.95846
1.04804
1.15784
1.25451
1.33681
1.37009
1.38801
1.39076
1.38464
1.38126
1.38556
1.39152
1.39235
1.39015
1.38648
1.38674
1.38915
1.39063
1.39004
1.38785
1.38757
1.38804
1.38861
1.38851
1.38847
1.38866
1.38905
1.38902
1.38895
1.38892
1.38887
1.3887
1.38843
1.3883
1.3883
1.38834
1.38839
1.38837
1.38827
1.38814
1.38815
1.3882
1.38832
1.38846
1.38857
1.38865
0.881393
0.881396
0.8814
0.881404
0.881408
0.88141
0.881412
0.881416
0.881419
0.881421
0.881423
0.881425
0.881428
0.881432
0.881433
0.881433
0.881435
0.881436
0.881437
0.881437
0.881436
0.881435
0.881433
0.88143
0.881427
0.881423
0.881418
0.881413
0.881407
0.881401
0.881394
0.881388
0.88138
0.881373
0.881367
0.881361
0.881355
0.881349
0.881344
0.881342
0.881343
0.881346
0.881351
0.881358
0.881368
0.881378
0.881388
0.881397
0.881404
0.881401
0.881395
0.881404
0.881496
0.882193
0.885423
0.90003
0.936499
1.0189
1.12949
1.23119
1.31616
1.34355
1.36366
1.37902
1.39686
1.39906
1.3949
1.3846
1.38489
1.3879
1.3917
1.39099
1.38812
1.38655
1.38746
1.38885
1.38876
1.3884
1.38846
1.38896
1.38917
1.38903
1.38888
1.38886
1.38878
1.38852
1.3883
1.38826
1.38828
1.38832
1.38835
1.38832
1.38819
1.3881
1.38812
1.3882
1.38835
1.38848
1.38858
1.38865
0.881438
0.88144
0.881442
0.881444
0.881446
0.881447
0.881449
0.88145
0.881451
0.881452
0.881453
0.881453
0.881454
0.881455
0.881455
0.881455
0.881455
0.881455
0.881454
0.881452
0.881452
0.88145
0.881446
0.881442
0.881438
0.881433
0.881427
0.881421
0.881415
0.881408
0.881402
0.881396
0.88139
0.881386
0.88138
0.881376
0.881371
0.881367
0.881366
0.881367
0.88137
0.881377
0.881385
0.881395
0.881406
0.881417
0.881427
0.881432
0.881432
0.881427
0.881419
0.881411
0.88139
0.881379
0.88141
0.881764
0.883705
0.894138
0.924146
0.999627
1.10891
1.22245
1.32161
1.36551
1.38764
1.39111
1.38165
1.38199
1.38807
1.39373
1.39241
1.38805
1.38571
1.38648
1.38935
1.38936
1.38852
1.38827
1.38885
1.38934
1.38918
1.3889
1.3889
1.38888
1.38869
1.38836
1.38824
1.38825
1.3883
1.38833
1.38833
1.38825
1.38812
1.38808
1.38812
1.38823
1.38839
1.38851
1.3886
1.38866
0.881461
0.881462
0.881462
0.881463
0.881463
0.881464
0.881464
0.881464
0.881465
0.881465
0.881464
0.881463
0.881463
0.881463
0.881462
0.881461
0.88146
0.881459
0.881457
0.881456
0.881454
0.881452
0.881448
0.881445
0.881442
0.881438
0.881432
0.881426
0.88142
0.881415
0.88141
0.881406
0.881402
0.881398
0.881394
0.881389
0.881387
0.881388
0.881391
0.881397
0.881404
0.881413
0.881421
0.881429
0.881437
0.881444
0.881452
0.881456
0.881454
0.881447
0.881437
0.881422
0.881403
0.881382
0.88136
0.881358
0.881377
0.881592
0.882961
0.891089
0.917204
0.98946
1.10098
1.21593
1.30878
1.34439
1.3644
1.38371
1.40055
1.3988
1.392
1.38353
1.38481
1.38919
1.39079
1.3893
1.38781
1.38843
1.3897
1.3896
1.38895
1.38885
1.38904
1.38894
1.38855
1.38829
1.38829
1.38832
1.38835
1.38834
1.38831
1.38819
1.38808
1.38809
1.38814
1.38829
1.38845
1.38855
1.38862
1.38867
0.881471
0.881471
0.881471
0.881471
0.881471
0.88147
0.881469
0.881468
0.881467
0.881465
0.881464
0.881464
0.881464
0.881462
0.88146
0.881458
0.881457
0.881457
0.881457
0.881456
0.881454
0.881452
0.88145
0.881448
0.881446
0.881444
0.88144
0.881437
0.881433
0.881429
0.881425
0.881422
0.881419
0.881417
0.881418
0.881418
0.881418
0.881422
0.881427
0.881431
0.881435
0.881437
0.881441
0.881445
0.88145
0.881454
0.88146
0.881465
0.881461
0.881454
0.881446
0.881436
0.881421
0.881399
0.881373
0.881362
0.881363
0.881373
0.881408
0.881598
0.882716
0.889845
0.914958
0.986761
1.09872
1.22299
1.32546
1.37248
1.39086
1.38902
1.3796
1.38338
1.39054
1.39281
1.39022
1.38671
1.38721
1.39001
1.39015
1.38932
1.38873
1.38904
1.38926
1.38896
1.3884
1.3883
1.38839
1.38839
1.38838
1.38837
1.38829
1.38814
1.38808
1.38811
1.3882
1.38836
1.38851
1.38858
1.38864
1.38868
0.881451
0.88145
0.881449
0.881449
0.881448
0.881447
0.881446
0.881446
0.881446
0.881446
0.881446
0.881447
0.881448
0.88145
0.881452
0.881454
0.881455
0.881455
0.881455
0.881455
0.881455
0.881456
0.881456
0.881455
0.881455
0.881455
0.881456
0.881457
0.88146
0.881462
0.881463
0.881464
0.881465
0.881467
0.881468
0.881466
0.881466
0.881466
0.881465
0.881461
0.881457
0.881454
0.881452
0.881451
0.881449
0.881447
0.881448
0.881454
0.881455
0.881451
0.881447
0.881444
0.881437
0.881424
0.881408
0.881394
0.881393
0.881406
0.881434
0.881476
0.881522
0.881686
0.882722
0.889542
0.915644
0.989693
1.11049
1.23361
1.31704
1.35265
1.3703
1.39236
1.40133
1.39643
1.38522
1.38573
1.38937
1.39175
1.39022
1.38826
1.38866
1.38961
1.38943
1.38854
1.38831
1.38843
1.3885
1.38844
1.38842
1.38839
1.38829
1.38815
1.38811
1.38816
1.38827
1.38844
1.38857
1.38861
1.38866
1.38869
0.88142
0.88142
0.88142
0.88142
0.881421
0.881421
0.881422
0.881423
0.881424
0.881426
0.881427
0.881429
0.881432
0.881435
0.881438
0.881441
0.881444
0.881448
0.881451
0.881454
0.881458
0.881461
0.881466
0.881473
0.881481
0.881488
0.881496
0.881506
0.881514
0.881519
0.881526
0.881529
0.881529
0.881528
0.881526
0.881521
0.881515
0.881507
0.881498
0.881487
0.881474
0.881464
0.881452
0.881436
0.881427
0.881422
0.88142
0.88142
0.881424
0.881433
0.881445
0.881458
0.881463
0.881463
0.881459
0.881447
0.881436
0.88144
0.881459
0.881487
0.881518
0.881551
0.881571
0.881694
0.882766
0.890047
0.920468
1.0013
1.12543
1.26069
1.34501
1.38334
1.39259
1.38208
1.38307
1.38989
1.39401
1.39168
1.38732
1.38748
1.38973
1.38992
1.3889
1.3881
1.3884
1.38866
1.38857
1.38845
1.38847
1.38841
1.38819
1.3881
1.38813
1.38822
1.38834
1.3885
1.38861
1.38864
1.38868
1.38871
0.881414
0.881415
0.881415
0.881415
0.881416
0.881417
0.881419
0.881421
0.881422
0.881424
0.881426
0.881429
0.881432
0.881435
0.881439
0.881443
0.881447
0.881453
0.881461
0.881469
0.881478
0.881488
0.881499
0.88151
0.88152
0.88153
0.88154
0.881549
0.881556
0.881563
0.881568
0.881571
0.881569
0.881566
0.881562
0.881555
0.881546
0.881535
0.88152
0.881502
0.881483
0.881464
0.881445
0.881425
0.88141
0.881405
0.881404
0.881404
0.881409
0.881424
0.881448
0.88148
0.881504
0.881509
0.881508
0.8815
0.881483
0.881466
0.881471
0.881486
0.881502
0.881516
0.881534
0.881528
0.881518
0.881648
0.883048
0.891687
0.929565
1.02089
1.15681
1.27941
1.33655
1.36208
1.38601
1.40104
1.39783
1.38672
1.38565
1.3884
1.39122
1.38982
1.38776
1.38805
1.38889
1.38883
1.38849
1.3885
1.38848
1.38829
1.38812
1.38812
1.38818
1.38828
1.38841
1.38855
1.38863
1.38867
1.38871
1.38871
0.881421
0.881423
0.881424
0.881425
0.881427
0.881429
0.881431
0.881434
0.881438
0.881441
0.881445
0.881449
0.881454
0.88146
0.881467
0.881474
0.881481
0.881488
0.881495
0.881502
0.88151
0.881518
0.881526
0.881534
0.881542
0.881548
0.881555
0.881562
0.881567
0.881571
0.881575
0.881579
0.881577
0.881571
0.881566
0.881559
0.881551
0.881538
0.881523
0.881505
0.881485
0.881463
0.881442
0.881422
0.881408
0.881404
0.881404
0.881405
0.881414
0.881432
0.881463
0.881499
0.881531
0.881542
0.88154
0.881532
0.881514
0.881488
0.881471
0.881477
0.88149
0.8815
0.881512
0.88152
0.881519
0.881499
0.881505
0.881686
0.883714
0.895374
0.94605
1.05109
1.192
1.31623
1.37269
1.3921
1.38503
1.38152
1.38806
1.39333
1.39173
1.38677
1.38688
1.38888
1.3892
1.38872
1.38837
1.38858
1.38848
1.38813
1.38809
1.38817
1.38826
1.38833
1.38846
1.38856
1.38863
1.38867
1.38872
1.3887
0.881468
0.881473
0.881476
0.881479
0.881483
0.881484
0.881487
0.881493
0.881496
0.881499
0.881504
0.881509
0.881511
0.881513
0.881515
0.881518
0.881522
0.881523
0.881524
0.881526
0.881528
0.881531
0.881535
0.88154
0.881544
0.881547
0.88155
0.881551
0.881552
0.881552
0.881553
0.881554
0.881549
0.881543
0.88154
0.881536
0.88153
0.881522
0.881515
0.881504
0.881489
0.88147
0.88145
0.881433
0.88142
0.881416
0.881419
0.881427
0.88144
0.881459
0.88148
0.881508
0.881537
0.881553
0.881551
0.88154
0.881521
0.8815
0.881476
0.881476
0.88149
0.881502
0.88151
0.881526
0.881551
0.881555
0.881553
0.881527
0.881533
0.881829
0.88512
0.902943
0.968444
1.09641
1.23106
1.32561
1.3557
1.37978
1.40039
1.39781
1.38761
1.38472
1.38738
1.39022
1.38924
1.38812
1.38844
1.38877
1.38834
1.38798
1.38813
1.38827
1.38831
1.38838
1.38851
1.38856
1.38861
1.38868
1.38872
1.38867
0.88157
0.881571
0.881573
0.881573
0.881573
0.881573
0.881572
0.881572
0.88157
0.881569
0.881567
0.881566
0.881563
0.881558
0.881553
0.881547
0.881543
0.88154
0.881538
0.881534
0.88153
0.881525
0.881518
0.881511
0.881504
0.881496
0.881487
0.881481
0.881477
0.881474
0.881471
0.881469
0.881468
0.881469
0.881473
0.88148
0.881489
0.8815
0.881506
0.881508
0.881509
0.881507
0.881502
0.881495
0.881484
0.881478
0.881483
0.881486
0.881486
0.881486
0.881489
0.881494
0.881505
0.881518
0.881519
0.881514
0.881507
0.881501
0.881487
0.881482
0.881498
0.881511
0.881527
0.881556
0.881588
0.881596
0.881584
0.881557
0.881528
0.881512
0.881559
0.882196
0.887825
0.916919
1.004
1.14399
1.2857
1.36357
1.39045
1.38675
1.38108
1.3874
1.39237
1.39065
1.38735
1.38759
1.38907
1.38881
1.38788
1.38791
1.38824
1.38829
1.38831
1.38841
1.38851
1.38853
1.38857
1.38865
1.38869
1.38861
0.881646
0.881645
0.881643
0.88164
0.881637
0.881633
0.881628
0.881622
0.881615
0.881608
0.881601
0.881594
0.881588
0.88158
0.88157
0.881558
0.881545
0.881532
0.881519
0.881507
0.881494
0.88148
0.881465
0.881451
0.881437
0.881424
0.881411
0.881401
0.881396
0.881393
0.881391
0.881391
0.881394
0.881405
0.881421
0.88144
0.881463
0.881487
0.881513
0.881542
0.881572
0.881593
0.881601
0.881604
0.881601
0.881588
0.881571
0.881548
0.881524
0.881499
0.881465
0.881442
0.881438
0.88144
0.881449
0.881465
0.881483
0.881495
0.881503
0.881512
0.881537
0.88156
0.881577
0.881593
0.881608
0.88161
0.881591
0.881557
0.881524
0.881505
0.881513
0.881543
0.881683
0.883118
0.893334
0.939581
1.05564
1.20223
1.31091
1.35253
1.37593
1.39944
1.39702
1.38714
1.38637
1.3887
1.3899
1.38807
1.38752
1.38814
1.38855
1.38835
1.38837
1.38856
1.38855
1.38852
1.38857
1.38866
1.38868
1.38853
0.881663
0.88166
0.881659
0.881656
0.881652
0.881647
0.881642
0.881634
0.881626
0.881616
0.881605
0.881593
0.88158
0.881567
0.881554
0.881541
0.881526
0.88151
0.881492
0.881475
0.881461
0.881448
0.881434
0.88142
0.881406
0.881395
0.881384
0.881372
0.881366
0.881364
0.881363
0.881364
0.881371
0.881386
0.881406
0.88143
0.881462
0.881501
0.881543
0.881587
0.881633
0.88167
0.881682
0.881683
0.881678
0.881659
0.881625
0.881585
0.881543
0.881488
0.881422
0.881389
0.881387
0.881392
0.881412
0.881443
0.881472
0.881507
0.881551
0.881593
0.881631
0.881649
0.881641
0.881625
0.881616
0.881604
0.881564
0.881524
0.881513
0.881516
0.881531
0.881586
0.881711
0.881801
0.882135
0.885143
0.90507
0.978073
1.114
1.26968
1.35395
1.38998
1.3866
1.3826
1.3889
1.39218
1.38953
1.3865
1.38741
1.38889
1.38847
1.38822
1.38846
1.38866
1.38851
1.38848
1.38857
1.38865
1.38864
1.38842
0.881624
0.881621
0.881618
0.881613
0.881609
0.881605
0.8816
0.881595
0.88159
0.881586
0.88158
0.881574
0.881566
0.881557
0.881547
0.881535
0.881522
0.881508
0.881495
0.88148
0.881466
0.881451
0.881435
0.88142
0.881406
0.881396
0.88139
0.881387
0.881383
0.881378
0.881378
0.881382
0.881393
0.88141
0.881434
0.881462
0.881494
0.881527
0.881565
0.881608
0.881652
0.88169
0.881704
0.881703
0.881692
0.881667
0.88163
0.881587
0.881536
0.881466
0.881396
0.881368
0.881369
0.881379
0.881409
0.881444
0.881487
0.881557
0.881645
0.881707
0.88172
0.881711
0.881687
0.881645
0.881612
0.881567
0.881511
0.881495
0.881505
0.881539
0.881614
0.881719
0.881821
0.881888
0.881915
0.881954
0.882631
0.889265
0.927558
1.03464
1.18374
1.3119
1.34888
1.37739
1.39978
1.39571
1.38515
1.38578
1.38957
1.38956
1.38828
1.38821
1.38877
1.38876
1.38851
1.38848
1.38862
1.38865
1.3886
1.38834
0.88152
0.881528
0.881536
0.881542
0.881545
0.881549
0.881553
0.881557
0.881559
0.88156
0.88156
0.881558
0.881556
0.881556
0.881555
0.881554
0.881554
0.881553
0.881553
0.881553
0.881552
0.881549
0.881544
0.881538
0.88153
0.881521
0.881515
0.881512
0.881509
0.881503
0.881494
0.88149
0.881492
0.881498
0.881505
0.881513
0.881524
0.881538
0.881556
0.881575
0.881596
0.88162
0.881639
0.88164
0.881635
0.881619
0.881592
0.881561
0.881518
0.881456
0.881394
0.881366
0.881368
0.881392
0.881446
0.881497
0.881551
0.881622
0.881725
0.881766
0.881762
0.88173
0.881694
0.881651
0.881597
0.881528
0.881489
0.881488
0.881521
0.881613
0.881765
0.881879
0.881924
0.881929
0.881912
0.881826
0.881597
0.881671
0.8838
0.89965
0.969313
1.10634
1.26227
1.35761
1.38925
1.38234
1.38231
1.38977
1.39199
1.38908
1.38721
1.3883
1.38917
1.38873
1.38838
1.38858
1.38871
1.38865
1.38846
1.38815
0.881459
0.881471
0.881484
0.881495
0.881508
0.881521
0.881534
0.881547
0.881559
0.88157
0.88158
0.88159
0.8816
0.881613
0.881625
0.881637
0.881652
0.881666
0.881676
0.881687
0.881701
0.881709
0.881709
0.88171
0.881708
0.881703
0.881695
0.881684
0.88167
0.881654
0.881634
0.88161
0.881587
0.881565
0.881542
0.881537
0.88153
0.881509
0.881488
0.881479
0.881477
0.881484
0.881501
0.881511
0.881525
0.881544
0.881544
0.881528
0.881504
0.881477
0.881444
0.88142
0.881432
0.881483
0.881566
0.881607
0.881619
0.881664
0.881743
0.881773
0.881771
0.881725
0.881665
0.881629
0.881582
0.881511
0.8815
0.881525
0.881609
0.881749
0.881918
0.88197
0.881964
0.881926
0.881798
0.881593
0.881407
0.8813
0.881328
0.881938
0.888259
0.923656
1.0349
1.18991
1.30792
1.35353
1.38265
1.39836
1.39397
1.38527
1.38717
1.39018
1.38949
1.38814
1.38836
1.38884
1.38877
1.3885
1.38834
1.38808
0.881468
0.881482
0.881497
0.881513
0.881532
0.881551
0.881569
0.881587
0.881604
0.881621
0.881639
0.881654
0.881666
0.881682
0.881696
0.881707
0.88172
0.881733
0.881743
0.881755
0.881769
0.881781
0.881783
0.881781
0.88178
0.881775
0.881766
0.88175
0.881727
0.881705
0.881682
0.881655
0.881628
0.881596
0.881539
0.881507
0.881496
0.88147
0.881432
0.881416
0.881417
0.88143
0.881451
0.881467
0.881493
0.881524
0.881534
0.881545
0.881553
0.881557
0.88156
0.881551
0.881559
0.881607
0.881659
0.881674
0.881661
0.881683
0.881723
0.881732
0.881716
0.881656
0.881618
0.881609
0.881575
0.881573
0.881597
0.881667
0.881758
0.881878
0.881977
0.88199
0.881949
0.881801
0.881584
0.881387
0.881315
0.881285
0.881357
0.881497
0.881759
0.883818
0.900907
0.970855
1.11382
1.2783
1.36202
1.38998
1.38086
1.38322
1.39202
1.39136
1.38801
1.38778
1.38894
1.3891
1.3886
1.38831
1.38823
1.38797
0.881571
0.881577
0.88158
0.881584
0.881588
0.881593
0.8816
0.88161
0.881623
0.881637
0.88165
0.881663
0.881674
0.881686
0.881694
0.881699
0.881704
0.881707
0.881709
0.881711
0.881714
0.88172
0.88172
0.881713
0.88171
0.881708
0.881706
0.8817
0.881689
0.881676
0.881653
0.881617
0.881596
0.881574
0.881517
0.881479
0.881476
0.881456
0.881418
0.881404
0.881409
0.881435
0.881462
0.881478
0.881526
0.881589
0.881599
0.881615
0.881639
0.881647
0.881646
0.881634
0.881624
0.88165
0.88167
0.881679
0.881686
0.881663
0.881627
0.881624
0.88162
0.881616
0.881618
0.881638
0.881687
0.881747
0.881811
0.881855
0.881878
0.881935
0.881961
0.881914
0.881767
0.881584
0.881402
0.881297
0.881293
0.881364
0.881546
0.88178
0.881898
0.88194
0.882528
0.888839
0.929453
1.04716
1.20205
1.32729
1.35687
1.38641
1.39761
1.39204
1.38595
1.38784
1.38991
1.38893
1.38825
1.38832
1.38814
1.38779
0.881639
0.881638
0.881626
0.881615
0.881615
0.881611
0.881599
0.88159
0.88158
0.881561
0.881551
0.881548
0.881541
0.881528
0.881518
0.881509
0.881499
0.88149
0.88148
0.881467
0.88146
0.881456
0.881454
0.881456
0.881459
0.881458
0.881466
0.881484
0.881499
0.881523
0.881546
0.881554
0.881557
0.881557
0.881534
0.881515
0.881516
0.881502
0.881496
0.881505
0.881532
0.881585
0.881614
0.881637
0.881685
0.881716
0.881695
0.88167
0.881661
0.881654
0.88164
0.881623
0.881624
0.881606
0.881594
0.881599
0.881624
0.881618
0.881596
0.881575
0.881589
0.881638
0.881722
0.881842
0.881923
0.881977
0.881981
0.881955
0.881929
0.881872
0.881782
0.881627
0.881478
0.881408
0.881337
0.881319
0.881399
0.88159
0.88181
0.881917
0.881945
0.881907
0.881681
0.881741
0.884194
0.903763
0.98723
1.1441
1.29362
1.37469
1.38947
1.37912
1.38629
1.3914
1.39007
1.38765
1.38792
1.38843
1.38793
1.38765
0.881572
0.881544
0.881508
0.881489
0.881478
0.881454
0.881425
0.881402
0.881379
0.881356
0.881331
0.881307
0.8813
0.881294
0.881282
0.881279
0.881279
0.881278
0.881278
0.881279
0.881284
0.881285
0.881286
0.881295
0.881299
0.881303
0.881333
0.881369
0.881398
0.881438
0.881489
0.881545
0.881605
0.881657
0.881705
0.881735
0.88174
0.881744
0.881756
0.881769
0.881783
0.881804
0.881806
0.881791
0.881777
0.881762
0.881722
0.881672
0.881634
0.881595
0.881533
0.881509
0.881528
0.881508
0.881504
0.881525
0.881583
0.881601
0.881612
0.881644
0.881719
0.881837
0.881974
0.882083
0.882092
0.882074
0.882037
0.881959
0.881794
0.881607
0.881428
0.881299
0.881304
0.881332
0.881384
0.881513
0.881704
0.881881
0.881954
0.881966
0.881909
0.881723
0.881415
0.881302
0.881372
0.882296
0.89173
0.941297
1.08022
1.24328
1.33143
1.36292
1.39678
1.39582
1.39034
1.3869
1.38872
1.38859
1.38732
1.38759
0.88143
0.881407
0.881383
0.881361
0.881341
0.881322
0.8813
0.881288
0.881275
0.881251
0.881228
0.881214
0.881211
0.881213
0.881213
0.881216
0.881225
0.88124
0.881257
0.881273
0.88129
0.8813
0.881309
0.881322
0.881322
0.881334
0.881383
0.881429
0.881475
0.881552
0.881665
0.881786
0.881865
0.881913
0.881944
0.881955
0.88195
0.881945
0.881948
0.881936
0.881909
0.881892
0.881869
0.881829
0.88176
0.881673
0.881581
0.881504
0.881443
0.88139
0.881372
0.881375
0.881423
0.881485
0.881514
0.881575
0.881637
0.881708
0.88183
0.881956
0.882034
0.882114
0.882163
0.882171
0.882147
0.882079
0.881925
0.88169
0.881461
0.881268
0.88118
0.881202
0.88126
0.881405
0.881643
0.881874
0.882013
0.882026
0.882001
0.881885
0.881656
0.881399
0.881243
0.88127
0.881375
0.881573
0.882004
0.885665
0.915838
1.01545
1.18656
1.32296
1.38676
1.38671
1.38352
1.3891
1.39054
1.38742
1.38675
1.38817
0.881355
0.881346
0.881336
0.881324
0.881321
0.881318
0.881317
0.881318
0.881318
0.881315
0.881314
0.881311
0.881317
0.881331
0.881354
0.881385
0.88142
0.881457
0.881498
0.881525
0.881548
0.881579
0.881605
0.881618
0.881631
0.881665
0.881706
0.881721
0.881746
0.881794
0.881859
0.881943
0.882004
0.882014
0.882018
0.882022
0.882009
0.881991
0.881966
0.881927
0.88187
0.881783
0.88169
0.881597
0.881495
0.881397
0.8813
0.881233
0.881223
0.88124
0.881297
0.881352
0.881417
0.881548
0.881742
0.881852
0.881944
0.882058
0.882179
0.882227
0.88222
0.882214
0.882196
0.882125
0.881988
0.881745
0.881456
0.881255
0.88114
0.881109
0.881134
0.881214
0.88142
0.881742
0.88202
0.882131
0.88212
0.882065
0.881858
0.881555
0.881298
0.881199
0.881219
0.88134
0.881674
0.881903
0.881927
0.881969
0.883327
0.897806
0.96956
1.12456
1.28055
1.34174
1.37581
1.39749
1.39292
1.38498
1.3867
1.38948
0.881721
0.881736
0.881755
0.881763
0.881765
0.881775
0.8818
0.881816
0.881818
0.881814
0.881815
0.88182
0.881822
0.881823
0.88183
0.881841
0.881856
0.881869
0.881873
0.881878
0.881882
0.881879
0.881874
0.881875
0.881877
0.881865
0.881855
0.881869
0.881878
0.88187
0.881867
0.881843
0.881816
0.881829
0.881832
0.881828
0.881838
0.881854
0.881822
0.881736
0.881604
0.881479
0.881433
0.881399
0.881343
0.88128
0.881213
0.88117
0.881163
0.881211
0.881344
0.881524
0.881723
0.881959