/*--------------------------------*- C++ -*----------------------------------*\
  =========                 |
  \\      /  F ield         | OpenFOAM: The Open Source CFD Toolbox
   \\    /   O peration     | Website:  https://openfoam.org
    \\  /    A nd           | Version:  7
     \\/     M anipulation  |
\*---------------------------------------------------------------------------*/
FoamFile
{
    version     2.0;
    format      ascii;
    class       volScalarField;
    location    "1";
    object      rho;
}
// * * * * * * * * * * * * * * * * * * * * * * * * * * * * * * * * * * * * * //

dimensions      [1 -3 0 0 0 0 0];

internalField   nonuniform List<scalar> 
1750
(
0.308222
0.558531
0.754292
0.829601
0.89712
0.960286
1.04141
1.14686
1.2048
1.27117
0.162099
0.210269
0.405873
0.636261
0.818825
0.963376
1.05459
1.11157
1.13941
1.22374
0.217876
0.250655
0.237636
0.288044
0.40925
0.629659
0.833964
0.94445
0.996453
1.17054
0.286581
0.313509
0.31364
0.322392
0.362163
0.42394
0.565574
0.759754
0.955297
1.20179
0.379332
0.414828
0.41991
0.438712
0.474001
0.538051
0.647856
0.814208
1.0104
1.26056
0.506578
0.53559
0.53473
0.54485
0.585082
0.669605
0.806546
0.98437
1.17603
1.3472
0.678149
0.703025
0.719143
0.749351
0.805053
0.906169
1.05565
1.21899
1.34149
1.39351
0.920944
0.937199
0.960061
0.994488
1.05581
1.15793
1.27984
1.36612
1.39572
1.39983
1.19124
1.19687
1.21284
1.24048
1.28577
1.34315
1.38507
1.3984
1.39994
1.4
1.35702
1.35849
1.36389
1.37359
1.38638
1.39627
1.39959
1.39999
1.4
1.40001
1.39692
1.39715
1.3978
1.39878
1.39961
1.39995
1.4
1.4
1.40001
1.40001
1.39992
1.39994
1.39996
1.39999
1.4
1.4
1.40001
1.40001
1.40001
1.40001
1.4
1.4
1.4
1.4
1.40001
1.40001
1.40001
1.40001
1.40001
1.40001
1.40001
1.40001
1.40001
1.40001
1.40001
1.40001
1.40001
1.40001
1.40001
1.40001
1.40001
1.40001
1.40001
1.40001
1.40001
1.40001
1.40001
1.40001
1.40001
1.40001
0.142877
0.164489
0.170305
0.203403
0.277181
0.407953
0.619028
0.907348
1.1989
1.36055
1.39703
1.39992
1.4
1.40001
1.40001
0.181397
0.165751
0.158266
0.177586
0.242195
0.397687
0.657904
1.00019
1.27662
1.38308
1.39909
1.39998
1.4
1.40001
1.40001
0.184554
0.12682
0.102323
0.13831
0.21764
0.383379
0.7016
1.0868
1.32503
1.39227
1.39968
1.4
1.4
1.40001
1.40001
0.156965
0.0882577
0.0734276
0.135405
0.235891
0.464463
0.837391
1.19166
1.36397
1.39785
1.40003
1.40001
1.40001
1.40001
1.40001
0.107802
0.0669436
0.0626008
0.148799
0.31425
0.607219
0.976889
1.27753
1.38868
1.40081
1.40022
1.40001
1.40001
1.40001
1.40001
0.0660089
0.0508639
0.0770036
0.197275
0.411847
0.725907
1.10123
1.3456
1.40288
1.40259
1.40032
1.40001
1.40001
1.40001
1.40001
0.0402165
0.0435566
0.126773
0.267372
0.508513
0.867947
1.2355
1.39368
1.41005
1.4038
1.40027
1.40001
1.40001
1.40001
1.40001
0.0189439
0.0504309
0.170981
0.338672
0.63351
1.05163
1.34758
1.42036
1.41515
1.40359
1.40017
1.40001
1.40001
1.40001
1.40001
0.0112378
0.0616344
0.209303
0.443583
0.829485
1.2276
1.41384
1.43217
1.41733
1.40236
1.40008
1.40001
1.40001
1.40001
1.40001
0.0126844
0.0969385
0.276889
0.627823
1.05051
1.35748
1.44471
1.43766
1.41358
1.40114
1.40003
1.40001
1.40001
1.40001
1.40001
0.0222971
0.154779
0.437633
0.868279
1.25192
1.44114
1.46056
1.43908
1.40816
1.40041
1.40001
1.40001
1.40001
1.40001
1.40001
0.044527
0.267374
0.697724
1.12101
1.41116
1.481
1.46939
1.42889
1.40321
1.40011
1.40001
1.40001
1.40001
1.40001
1.40001
0.184271
0.516822
0.989017
1.34492
1.49213
1.49587
1.46795
1.4169
1.40109
1.40003
1.40001
1.40001
1.40001
1.40001
1.40001
0.426711
0.875832
1.28296
1.47607
1.51384
1.50044
1.44543
1.40644
1.40027
1.40001
1.40001
1.40001
1.40001
1.40001
1.40001
0.904551
1.2689
1.47234
1.51978
1.51784
1.47512
1.41899
1.40147
1.40005
1.40001
1.40001
1.40001
1.40001
1.40001
1.40001
1.5272
1.53074
1.52988
1.52516
1.50243
1.44193
1.4045
1.40002
1.40001
1.40001
1.40001
1.40001
1.40001
1.40001
1.40001
1.52636
1.53023
1.52935
1.5223
1.50379
1.44806
1.40744
1.40029
1.40001
1.40001
1.40001
1.40001
1.40001
1.40001
1.40001
1.52685
1.53241
1.5313
1.52204
1.49335
1.43437
1.404
1.40013
1.40001
1.40001
1.40001
1.40001
1.40001
1.40001
1.40001
1.53013
1.54009
1.53873
1.52228
1.48223
1.42398
1.40214
1.40006
1.40001
1.40001
1.40001
1.40001
1.40001
1.40001
1.40001
1.53859
1.5483
1.54559
1.52061
1.46561
1.41375
1.4009
1.40003
1.40001
1.40001
1.40001
1.40001
1.40001
1.40001
1.40001
1.54645
1.55345
1.5486
1.51092
1.44479
1.40651
1.40031
1.40001
1.40001
1.40001
1.40001
1.40001
1.40001
1.40001
1.40001
1.55557
1.5559
1.54834
1.48761
1.4254
1.40252
1.40009
1.40001
1.40001
1.40001
1.40001
1.40001
1.40001
1.40001
1.40001
1.57063
1.54746
1.53136
1.45976
1.41188
1.40082
1.40003
1.40001
1.40001
1.40001
1.40001
1.40001
1.40001
1.40001
1.40001
1.5842
1.5369
1.502
1.43471
1.4046
1.40023
1.40001
1.40001
1.40001
1.40001
1.40001
1.40001
1.40001
1.40001
1.40001
1.5913
1.52489
1.46878
1.41608
1.40147
1.40006
1.40001
1.40001
1.40001
1.40001
1.40001
1.40001
1.40001
1.40001
1.40001
1.59024
1.50014
1.44158
1.40666
1.4004
1.40002
1.40001
1.40001
1.40001
1.40001
1.40001
1.40001
1.40001
1.40001
1.40001
1.56853
1.47328
1.42021
1.40204
1.40009
1.40001
1.40001
1.40001
1.40001
1.40001
1.40001
1.40001
1.40001
1.40001
1.40001
1.53945
1.44534
1.40782
1.40048
1.40002
1.40001
1.40001
1.40001
1.40001
1.40001
1.40001
1.40001
1.40001
1.40001
1.40001
1.49532
1.42144
1.40207
1.40008
1.40001
1.40001
1.40001
1.40001
1.40001
1.40001
1.40001
1.40001
1.40001
1.40001
1.40001
1.44275
1.40613
1.40031
1.40001
1.40001
1.40001
1.40001
1.40001
1.40001
1.40001
1.40001
1.40001
1.40001
1.40001
1.40001
1.40001
1.40001
1.40001
1.40001
1.40001
1.40001
1.40001
1.40001
1.40001
1.40001
1.40001
1.40001
1.40001
1.40001
1.40001
1.40001
1.40001
1.40001
1.40001
1.40001
1.40001
1.40001
1.40001
1.40001
1.40001
1.40001
1.40001
1.40001
1.40001
1.40001
1.40001
1.40001
1.40001
1.40001
1.40001
1.40001
1.40001
1.40001
1.40001
1.40001
1.40001
1.40001
1.40001
1.40001
1.40001
1.40001
1.40001
1.40001
1.40001
1.40001
1.40001
1.40001
1.40001
1.40001
1.40001
1.40001
1.40001
1.40001
1.40001
1.40001
1.40001
1.40001
1.40001
1.40001
1.40001
1.40001
1.40001
1.40001
1.40001
1.40001
1.40001
1.40001
1.40001
1.40001
1.40001
1.40001
1.40001
1.40001
1.40001
1.40001
1.40001
1.40001
1.40001
1.40001
1.40001
1.40001
1.40001
1.40001
1.40001
1.40001
1.40001
1.40001
1.40001
1.40001
1.40001
1.40001
1.40001
1.40001
1.40001
1.40001
1.40001
1.40001
1.40001
1.40001
1.40001
1.40001
1.40001
1.40001
1.40001
1.40001
1.40001
1.40001
1.40001
1.40001
1.40001
1.40001
1.40001
1.40001
1.40001
1.40001
1.40001
1.40001
1.40001
1.40001
1.40001
1.40001
1.40001
1.40001
1.40001
1.40001
1.40001
1.40001
1.40001
1.40001
1.40001
1.40001
1.40001
1.40001
1.40001
1.40001
1.40001
1.40001
1.40001
1.40001
1.40001
1.40001
1.40001
1.40001
1.40001
1.40001
1.40001
1.40001
1.40001
1.40001
1.40001
1.40001
1.40001
1.40001
1.40001
1.40001
1.40001
1.40001
1.40001
1.40001
1.40001
1.40001
1.40001
1.40001
1.40001
1.40001
1.40001
1.40001
1.40001
1.40001
1.40001
1.40001
1.40001
1.40001
1.40001
1.40001
1.40001
1.40001
1.40001
1.40001
1.40001
1.40001
1.40001
1.40001
1.40001
1.40001
1.40001
1.40001
1.40001
1.40001
1.40001
1.40001
1.40001
1.40001
1.40001
1.40001
1.40001
1.40001
1.40001
1.40001
1.40001
1.40001
1.40001
1.40001
1.40001
1.40001
1.40001
1.40001
1.40001
1.40001
1.40001
1.40001
1.40001
1.40001
1.40001
1.40001
1.40001
1.40001
1.40001
1.40001
1.40001
1.40001
1.40001
1.40001
1.40001
1.40001
1.40001
1.40001
1.40001
1.40001
1.40001
1.40001
1.40001
1.40001
1.40001
1.40001
1.40001
1.40001
1.40001
1.40001
1.40001
1.40001
1.40001
1.40001
1.40001
1.40001
1.40001
1.40001
1.40001
1.40001
1.40001
1.40001
1.40001
1.40001
1.40001
1.40001
1.40001
1.40001
1.40001
1.40001
1.40001
1.40001
1.40001
1.40001
1.40001
1.40001
1.40001
1.40001
1.40001
1.40001
1.40001
1.40001
1.40001
1.40001
1.40001
1.40001
1.40001
1.40001
1.40001
1.40001
1.40001
1.40001
1.40001
1.40001
1.40001
1.40001
1.40001
1.40001
1.40001
1.40001
1.40001
1.40001
1.40001
1.40001
1.40001
1.40001
1.40001
1.40001
1.40001
1.40001
1.40001
1.40001
1.40001
1.40001
1.40001
1.40001
1.40001
1.40001
1.40001
1.40001
1.40001
1.40001
1.40001
1.40001
1.40001
1.40001
1.40001
1.40001
1.40001
1.40001
1.40001
1.40001
1.40001
1.40001
1.40001
1.40001
1.40001
1.40001
1.40001
1.40001
1.40001
1.40001
1.40001
1.40001
1.40001
1.40001
1.40001
1.40001
1.40001
1.40001
1.40001
1.40001
1.40001
1.40001
1.40001
1.40001
2.4541
1.39736
1.40001
1.40001
1.40001
1.40001
1.40001
1.40001
1.40001
1.40001
1.40001
1.40001
1.40001
1.40001
1.40001
1.40001
1.40001
1.40001
1.40001
1.40001
4.99307
2.09852
1.4
1.40001
1.40001
1.40001
1.40001
1.40001
1.40001
1.40001
1.40001
1.40001
1.40001
1.40001
1.40001
1.40001
1.40001
1.40001
1.40001
1.40001
7.04971
4.85919
2.94922
1.44201
1.39993
1.40001
1.40001
1.40001
1.40001
1.40001
1.40001
1.40001
1.40001
1.40001
1.40001
1.40001
1.40001
1.40001
1.40001
1.40001
5.81222
4.95266
4.66484
2.90706
1.42629
1.40001
1.40001
1.40001
1.40001
1.40001
1.40001
1.40001
1.40001
1.40001
1.40001
1.40001
1.40001
1.40001
1.40001
1.40001
4.85064
4.52369
4.65348
4.14062
2.136
1.39771
1.40001
1.40001
1.40001
1.40001
1.40001
1.40001
1.40001
1.40001
1.40001
1.40001
1.40001
1.40001
1.40001
1.40001
4.48158
4.38527
4.48207
4.3631
3.26476
1.51526
1.4
1.40001
1.40001
1.40001
1.40001
1.40001
1.40001
1.40001
1.40001
1.40001
1.40001
1.40001
1.40001
1.40001
4.37851
4.31604
4.30542
4.25515
3.86224
1.99061
1.39954
1.40001
1.40001
1.40001
1.40001
1.40001
1.40001
1.40001
1.40001
1.40001
1.40001
1.40001
1.40001
1.40001
4.37338
4.32029
4.21644
4.17546
4.12277
2.72117
1.41064
1.40001
1.40001
1.40001
1.40001
1.40001
1.40001
1.40001
1.40001
1.40001
1.40001
1.40001
1.40001
1.40001
4.38531
4.33196
4.19197
4.15521
4.16525
3.37507
1.57125
1.4
1.40001
1.40001
1.40001
1.40001
1.40001
1.40001
1.40001
1.40001
1.40001
1.40001
1.40001
1.40001
4.42051
4.35863
4.20332
4.1823
4.20105
3.80524
1.9344
1.4
1.40001
1.40001
1.40001
1.40001
1.40001
1.40001
1.40001
1.40001
1.40001
1.40001
1.40001
1.40001
4.44166
4.38582
4.2623
4.21459
4.21549
4.06445
2.47166
1.39765
1.40001
1.40001
1.40001
1.40001
1.40001
1.40001
1.40001
1.40001
1.40001
1.40001
1.40001
1.40001
4.44339
4.38213
4.30268
4.2078
4.19909
4.14763
3.05945
1.46538
1.4
1.40001
1.40001
1.40001
1.40001
1.40001
1.40001
1.40001
1.40001
1.40001
1.40001
1.40001
4.41698
4.36294
4.31539
4.20576
4.17896
4.20092
3.51224
1.64231
1.4
1.40001
1.40001
1.40001
1.40001
1.40001
1.40001
1.40001
1.40001
1.40001
1.40001
1.40001
4.37214
4.34812
4.30419
4.19758
4.13891
4.16275
3.85402
2.13297
1.4
1.40001
1.40001
1.40001
1.40001
1.40001
1.40001
1.40001
1.40001
1.40001
1.40001
1.40001
4.37613
4.37161
4.31708
4.23419
4.18329
4.21683
3.95043
2.00849
1.36233
1.40001
1.40001
1.40001
1.40001
1.40001
1.40001
1.40001
1.40001
1.40001
1.40001
1.40001
2.00765
2.97107
3.45182
3.72088
3.88203
4.04982
4.07373
3.30887
1.91649
1.42283
1.40019
1.40001
1.40001
1.40001
1.40001
1.40001
1.40001
1.40001
1.40001
1.40001
0.559196
1.72793
2.43918
2.90408
3.20083
3.5214
3.77636
3.64342
2.8417
1.67557
1.40761
1.40005
1.40001
1.40001
1.40001
1.40001
1.40001
1.40001
1.40001
1.40001
0.376238
1.00523
1.59951
2.1743
2.57882
2.86921
3.24107
3.38375
3.22654
2.22167
1.47439
1.40093
1.40001
1.40001
1.40001
1.40001
1.40001
1.40001
1.40001
1.40001
0.436895
0.81032
1.10915
1.54248
1.96116
2.2649
2.64142
3.00752
3.0404
2.64895
1.68773
1.40861
1.40005
1.40001
1.40001
1.40001
1.40001
1.40001
1.40001
1.40001
0.578155
0.761154
0.899279
1.19429
1.48357
1.78784
2.10628
2.56264
2.81476
2.73311
1.96008
1.4368
1.40032
1.40001
1.40001
1.40001
1.40001
1.40001
1.40001
1.40001
0.684284
0.68179
0.716978
0.999889
1.23474
1.49105
1.7815
2.24147
2.57618
2.60902
2.11105
1.48628
1.4012
1.40001
1.40001
1.40001
1.40001
1.40001
1.40001
1.40001
0.768847
0.661279
0.645734
0.822246
1.05885
1.23535
1.51493
1.98811
2.42819
2.49621
2.17651
1.53429
1.40263
1.40002
1.40001
1.40001
1.40001
1.40001
1.40001
1.40001
0.829317
0.691576
0.657348
0.758683
0.918506
1.03093
1.25416
1.68551
2.25114
2.38398
2.14295
1.54277
1.40311
1.40002
1.40001
1.40001
1.40001
1.40001
1.40001
1.40001
0.842297
0.738032
0.715375
0.729041
0.790051
0.92583
1.13332
1.58869
2.15018
2.28446
2.06665
1.52714
1.40275
1.40002
1.40001
1.40001
1.40001
1.40001
1.40001
1.40001
0.852369
0.78134
0.754577
0.714353
0.73793
0.907079
1.12275
1.60269
2.12441
2.20964
1.95737
1.48983
1.4017
1.40001
1.40001
1.40001
1.40001
1.40001
1.40001
1.40001
0.867082
0.821582
0.795266
0.732573
0.749032
0.92584
1.15539
1.68755
2.10368
2.13288
1.81407
1.44697
1.40066
1.40001
1.40001
1.40001
1.40001
1.40001
1.40001
1.40001
0.898179
0.875757
0.866841
0.795909
0.798934
0.991923
1.26668
1.80237
2.0606
2.02012
1.65202
1.41668
1.40015
1.40001
1.40001
1.40001
1.40001
1.40001
1.40001
1.40001
0.941643
0.969691
0.981825
0.914844
0.907613
1.11536
1.42949
1.85749
1.97865
1.85566
1.51006
1.40339
1.40002
1.40001
1.40001
1.40001
1.40001
1.40001
1.40001
1.40001
1.03841
1.08463
1.13019
1.09573
1.0877
1.28696
1.57336
1.84973
1.85879
1.65116
1.42682
1.40033
1.4
1.4
1.40001
1.40001
1.40001
1.40001
1.40001
1.40001
1.24
1.23907
1.28155
1.2872
1.29237
1.42594
1.62355
1.76574
1.69258
1.47779
1.40244
1.39998
1.4
1.4
1.40001
1.40001
1.40001
1.40001
1.40001
1.40001
1.15947
1.31925
1.35641
1.3685
1.38396
1.46508
1.61873
1.61922
1.49773
1.40619
1.39963
1.39994
1.4
1.40001
1.40001
1.40001
1.40001
1.40001
1.40001
1.40001
1.08895
1.29718
1.35941
1.37561
1.39449
1.46587
1.51738
1.45154
1.39741
1.39658
1.39963
1.39999
1.4
1.40001
1.40001
1.40001
1.40001
1.40001
1.40001
1.40001
0.969329
1.20593
1.33665
1.36986
1.3907
1.40637
1.37143
1.35736
1.38161
1.39748
1.39989
1.4
1.40001
1.40001
1.40001
1.40001
1.40001
1.40001
1.40001
1.40001
0.905753
1.09328
1.24182
1.31027
1.3327
1.31529
1.30673
1.34383
1.38449
1.39879
1.39998
1.4
1.40001
1.40001
1.40001
1.40001
1.40001
1.40001
1.40001
1.40001
0.93065
1.0087
1.10604
1.19401
1.252
1.27829
1.30065
1.34865
1.38847
1.39933
1.39999
1.4
1.40001
1.40001
1.40001
1.40001
1.40001
1.40001
1.40001
1.40001
0.9948
1.01334
1.02979
1.10445
1.18576
1.25499
1.3023
1.3571
1.39185
1.39957
1.4
1.4
1.40001
1.40001
1.40001
1.40001
1.40001
1.40001
1.40001
1.40001
1.088
1.06823
1.04914
1.08317
1.15137
1.22356
1.29924
1.36394
1.39453
1.39975
1.4
1.40001
1.40001
1.40001
1.40001
1.40001
1.40001
1.40001
1.40001
1.40001
1.19518
1.16903
1.11866
1.114
1.15444
1.20805
1.29824
1.36878
1.39636
1.39988
1.4
1.40001
1.40001
1.40001
1.40001
1.40001
1.40001
1.40001
1.40001
1.40001
1.23912
1.23429
1.21229
1.18187
1.19285
1.21956
1.30387
1.37383
1.39764
1.39994
1.4
1.40001
1.40001
1.40001
1.40001
1.40001
1.40001
1.40001
1.40001
1.40001
1.29016
1.29428
1.29256
1.28627
1.28775
1.2945
1.34372
1.38682
1.39913
1.39999
1.4
1.40001
1.40001
1.40001
1.40001
1.40001
1.40001
1.40001
1.40001
1.40001
)
;

boundaryField
{
    inlet
    {
        type            calculated;
        value           uniform 1.40001;
    }
    outlet
    {
        type            calculated;
        value           nonuniform List<scalar> 
35
(
1.29004
1.29405
1.2921
1.28564
1.28674
1.293
1.34245
1.38631
1.39908
1.39999
1.4
1.40001
1.40001
1.40001
1.40001
1.40001
1.40001
1.40001
1.40001
1.40001
1.27116
1.22396
1.16884
1.19958
1.25789
1.34541
1.39314
1.39982
1.4
1.40001
1.40001
1.40001
1.40001
1.40001
1.40001
)
;
    }
    airfoil
    {
        type            calculated;
        value           nonuniform List<scalar> 
60
(
0.142877
0.181397
0.184554
0.156965
0.107802
0.0660089
0.0402165
0.0189439
0.0112378
0.0126844
0.0222971
0.044527
0.184271
0.426711
0.904551
1.5272
1.52636
1.52685
1.53013
1.53859
1.54645
1.55557
1.57063
1.5842
1.5913
1.59024
1.56853
1.53945
1.49532
1.44275
2.4541
4.99307
7.04971
5.81222
4.85064
4.48158
4.37851
4.37338
4.38531
4.42051
4.44166
4.44339
4.41698
4.37214
4.37613
2.00765
0.559196
0.376238
0.436895
0.578155
0.684284
0.768847
0.829317
0.842297
0.852369
0.867082
0.898179
0.941643
1.03841
1.24
)
;
    }
    top
    {
        type            symmetryPlane;
    }
    bottom
    {
        type            symmetryPlane;
    }
    defaultFaces
    {
        type            empty;
    }
}


// ************************************************************************* //
