/*--------------------------------*- C++ -*----------------------------------*\
  =========                 |
  \\      /  F ield         | OpenFOAM: The Open Source CFD Toolbox
   \\    /   O peration     | Website:  https://openfoam.org
    \\  /    A nd           | Version:  7
     \\/     M anipulation  |
\*---------------------------------------------------------------------------*/
FoamFile
{
    version     2.0;
    format      ascii;
    class       volVectorField;
    location    "0.08";
    object      U;
}
// * * * * * * * * * * * * * * * * * * * * * * * * * * * * * * * * * * * * * //

dimensions      [0 1 -1 0 0 0 0];

internalField   nonuniform List<vector> 
12750
(
(2.13953 0.516359 0)
(2.43661 0.582419 0)
(2.53498 0.452879 0)
(2.55551 0.247115 0)
(2.59353 0.126476 0)
(2.66346 0.0587438 0)
(2.77571 0.0180972 0)
(2.89954 0.00208158 0)
(2.97704 -0.000339994 0)
(2.99812 -7.26608e-05 0)
(2.99997 -5.23402e-06 0)
(3.00001 -1.17977e-06 0)
(3.00001 -3.16073e-07 0)
(3 -1.1173e-08 0)
(3 1.03501e-10 0)
(3 1.89978e-12 0)
(3 1.41368e-14 0)
(3 -2.25632e-16 0)
(3 2.25373e-17 0)
(3 1.68313e-16 0)
(3 1.85343e-16 0)
(3 -1.15899e-16 0)
(3 -7.19678e-17 0)
(3 0 0)
(3 0 0)
(3 4.93536e-17 0)
(3 1.37941e-16 0)
(3 5.65704e-17 0)
(3 8.51375e-17 0)
(3 3.17481e-16 0)
(1.88063 -0.6129 0)
(2.09526 -0.554989 0)
(2.26825 -0.588133 0)
(2.42407 -0.567763 0)
(2.56869 -0.431633 0)
(2.71523 -0.255163 0)
(2.8533 -0.114883 0)
(2.95062 -0.0346126 0)
(2.9918 -0.00535465 0)
(2.99954 -0.00032984 0)
(3.00001 -1.03235e-05 0)
(3.00001 -1.02767e-06 0)
(3 4.12586e-07 0)
(3 5.19272e-08 0)
(3 9.09492e-10 0)
(3 6.32716e-12 0)
(3 2.10639e-14 0)
(3 -2.14765e-15 0)
(3 8.89446e-17 0)
(3 2.54863e-16 0)
(3 7.83595e-17 0)
(3 -2.8462e-17 0)
(3 8.59316e-17 0)
(3 1.25507e-16 0)
(3 1.67383e-16 0)
(3 -5.61056e-17 0)
(3 2.03915e-17 0)
(3 -5.99843e-20 0)
(3 1.85775e-16 0)
(3 5.68915e-16 0)
(2.51471 -0.911902 0)
(2.62634 -0.832289 0)
(2.71787 -0.687784 0)
(2.77676 -0.477535 0)
(2.82833 -0.27132 0)
(2.89657 -0.121503 0)
(2.96086 -0.0382165 0)
(2.99288 -0.00685623 0)
(2.99965 -0.000587573 0)
(3.00007 -4.17729e-05 0)
(3.00004 -1.08799e-05 0)
(3.00001 9.18833e-08 0)
(3 1.04516e-07 0)
(3 3.02001e-09 0)
(3 4.09525e-11 0)
(3 7.93953e-13 0)
(3 1.31095e-13 0)
(3 3.22762e-15 0)
(3 7.55949e-16 0)
(3 4.71817e-16 0)
(3 -5.22339e-17 0)
(3 -9.55913e-17 0)
(3 2.95011e-17 0)
(3 3.23783e-16 0)
(3 8.01911e-17 0)
(3 -2.19013e-20 0)
(3 7.10868e-17 0)
(3 7.10796e-17 0)
(3 1.50552e-16 0)
(3 1.23203e-16 0)
(2.77312 -0.520058 0)
(2.82718 -0.400249 0)
(2.87477 -0.273243 0)
(2.91768 -0.157851 0)
(2.95708 -0.0705518 0)
(2.98605 -0.0207265 0)
(2.99828 -0.00314383 0)
(3.00026 -0.00017714 0)
(3.00023 -3.72579e-08 0)
(3.00009 1.19833e-05 0)
(3.00001 3.52831e-06 0)
(3 1.82434e-07 0)
(3 2.22337e-09 0)
(3 4.7786e-11 0)
(3 3.38263e-12 0)
(3 -2.0378e-14 0)
(3 5.40192e-16 0)
(3 1.98363e-16 0)
(3 9.84797e-17 0)
(3 3.7654e-17 0)
(3 3.74892e-17 0)
(3 -2.48847e-18 0)
(3 -3.32183e-17 0)
(3 5.5608e-17 0)
(3 -1.73102e-16 0)
(3 -4.76067e-17 0)
(3 6.6432e-17 0)
(3 1.16384e-16 0)
(3 4.87405e-16 0)
(3 -3.33787e-16 0)
(2.90912 -0.176801 0)
(2.93829 -0.111221 0)
(2.9647 -0.0565266 0)
(2.98559 -0.0213092 0)
(2.997 -0.0050126 0)
(3.00011 -0.000526101 0)
(3.00031 3.85744e-05 0)
(3.00022 6.60623e-05 0)
(3.00007 3.71523e-05 0)
(3.00001 5.55417e-06 0)
(3 1.50134e-07 0)
(3 4.6138e-10 0)
(3 -3.60595e-10 0)
(3 -7.33147e-11 0)
(3 -4.06287e-12 0)
(3 -5.77015e-14 0)
(3 -3.20933e-16 0)
(3 4.29952e-17 0)
(3 -2.90198e-16 0)
(3 -2.47751e-16 0)
(3 -5.10225e-17 0)
(3 3.73135e-18 0)
(3 -9.97554e-18 0)
(3 -2.32416e-16 0)
(3 -9.12272e-16 0)
(3 -4.60119e-16 0)
(3 1.81546e-16 0)
(3 1.92836e-16 0)
(3 -3.10352e-16 0)
(3 -6.36846e-17 0)
(2.98185 -0.0289065 0)
(2.99164 -0.0124169 0)
(2.99777 -0.00372883 0)
(2.99994 -0.000672863 0)
(3.00022 -3.70428e-05 0)
(3.00018 3.49069e-05 0)
(3.0001 4.7686e-05 0)
(3.00002 2.0157e-05 0)
(3 2.06647e-06 0)
(3 5.05022e-08 0)
(3 -3.50016e-09 0)
(3 -1.66036e-09 0)
(3 -2.09339e-10 0)
(3 -5.40003e-12 0)
(3 -3.61304e-14 0)
(3 -9.68392e-17 0)
(3 -3.03881e-17 0)
(3 -2.95361e-17 0)
(3 -1.45024e-16 0)
(3 -1.21046e-16 0)
(3 -6.91628e-17 0)
(3 -8.36761e-17 0)
(3 -9.07284e-17 0)
(3 2.8933e-17 0)
(3 9.92158e-17 0)
(3 4.05931e-17 0)
(3 -5.80168e-17 0)
(3 -4.71224e-17 0)
(3 -2.2191e-16 0)
(3 4.40246e-16 0)
(2.99944 -0.00127207 0)
(3.00008 -0.000320826 0)
(3.00015 -8.20346e-05 0)
(3.00011 -1.44047e-05 0)
(3.00008 1.12356e-05 0)
(3.00002 1.45237e-05 0)
(3 3.87506e-06 0)
(3 2.53876e-07 0)
(3 -1.38261e-08 0)
(3 -1.05229e-08 0)
(3 -2.39794e-09 0)
(3 -1.79217e-10 0)
(3 -2.6091e-12 0)
(3 -1.79954e-14 0)
(3 -2.19217e-16 0)
(3 -1.57051e-17 0)
(3 2.71353e-17 0)
(3 -5.43056e-17 0)
(3 -1.1641e-16 0)
(3 -8.81581e-17 0)
(3 5.5168e-17 0)
(3 9.11399e-17 0)
(3 -6.94197e-18 0)
(3 4.72831e-17 0)
(3 5.46621e-16 0)
(3 3.47061e-16 0)
(3 -1.0859e-16 0)
(3 -1.68423e-16 0)
(3 4.03938e-16 0)
(3 -1.22804e-17 0)
(3.00007 -3.07461e-05 0)
(3.00006 -2.6457e-05 0)
(3.00004 -1.0073e-05 0)
(3.00002 8.32925e-08 0)
(3 1.53417e-06 0)
(3 2.76403e-07 0)
(3 -2.73858e-08 0)
(3 -2.84484e-08 0)
(3 -1.12084e-08 0)
(3 -1.63034e-09 0)
(3 -5.21705e-11 0)
(3 -6.54536e-13 0)
(3 -5.21317e-15 0)
(3 1.78603e-17 0)
(3 4.20605e-17 0)
(3 -9.96287e-18 0)
(3 -6.06211e-17 0)
(3 -1.70162e-16 0)
(3 -1.09223e-16 0)
(3 -9.87871e-17 0)
(3 -8.89598e-17 0)
(3 1.11529e-16 0)
(3 -8.4673e-17 0)
(3 2.53302e-16 0)
(3 2.02127e-16 0)
(3 4.90913e-16 0)
(3 1.90386e-16 0)
(3 7.92833e-17 0)
(3 1.42822e-17 0)
(3 -5.68363e-16 0)
(3.00002 -1.03893e-05 0)
(3.00001 -3.98404e-06 0)
(3 -5.90237e-07 0)
(3 5.15416e-08 0)
(3 -3.05324e-08 0)
(3 -3.41674e-08 0)
(3 -2.05211e-08 0)
(3 -5.26057e-09 0)
(3 -3.67843e-10 0)
(3 -8.91679e-12 0)
(3 -8.84178e-14 0)
(3 5.31701e-17 0)
(3 5.03167e-16 0)
(3 -5.31458e-18 0)
(3 -2.62391e-17 0)
(3 -9.9398e-18 0)
(3 -1.49044e-20 0)
(3 0 0)
(3 0 0)
(3 1.17806e-17 0)
(3 4.26251e-16 0)
(3 2.35388e-16 0)
(3 1.63857e-16 0)
(3 -1.42022e-16 0)
(3 3.94367e-17 0)
(3 -6.84183e-17 0)
(3 -1.21272e-16 0)
(3 -4.73326e-17 0)
(3 -1.35482e-16 0)
(3 3.64808e-17 0)
(3 -5.70863e-07 0)
(3 -4.1842e-08 0)
(3 -2.46525e-08 0)
(3 -2.59705e-08 0)
(3 -1.92536e-08 0)
(3 -7.48685e-09 0)
(3 -9.941e-10 0)
(3 -4.53241e-11 0)
(3 -8.24599e-13 0)
(3 1.0973e-14 0)
(3 1.58086e-14 0)
(3 2.62569e-15 0)
(3 -5.80084e-17 0)
(3 -7.74238e-17 0)
(3 -2.73943e-17 0)
(3 -8.76116e-18 0)
(3 1.61013e-17 0)
(3 1.0574e-16 0)
(3 1.19891e-16 0)
(3 1.45874e-16 0)
(3 1.50586e-16 0)
(3 -2.65486e-17 0)
(3 2.42774e-16 0)
(3 -3.53826e-16 0)
(3 -1.94854e-16 0)
(3 -1.03051e-16 0)
(3 -1.92788e-17 0)
(3 -3.48934e-20 0)
(3 1.03125e-16 0)
(3 2.00262e-16 0)
(3 -1.45492e-08 0)
(3 -1.50196e-08 0)
(3 -1.21253e-08 0)
(3 -6.05546e-09 0)
(3 -1.26978e-09 0)
(3 -1.05625e-10 0)
(3 -3.51968e-12 0)
(3 -2.16485e-14 0)
(3 2.27214e-14 0)
(3 6.48308e-15 0)
(3 6.57195e-16 0)
(3 8.50677e-17 0)
(3 1.64517e-18 0)
(3 3.10112e-17 0)
(3 -6.16822e-17 0)
(3 -6.20049e-17 0)
(3 -3.58732e-17 0)
(3 -1.43553e-17 0)
(3 1.17049e-17 0)
(3 2.09571e-16 0)
(3 1.3181e-16 0)
(3 1.52204e-16 0)
(3 7.3664e-17 0)
(3 2.18198e-16 0)
(3 1.05323e-16 0)
(3 -4.33166e-19 0)
(3 -1.16477e-16 0)
(3 1.90869e-17 0)
(3 6.77189e-17 0)
(3 3.67906e-17 0)
(3 -5.62087e-09 0)
(3 -3.0298e-09 0)
(3 -8.65117e-10 0)
(3 -1.20843e-10 0)
(3 -6.83713e-12 0)
(3 -1.65356e-13 0)
(3 2.0337e-14 0)
(3 1.11208e-14 0)
(3 1.62657e-15 0)
(3 6.11697e-17 0)
(3 1.49158e-16 0)
(3 1.28564e-16 0)
(3 1.87091e-16 0)
(3 6.80407e-17 0)
(3 -1.0408e-18 0)
(3 -2.007e-17 0)
(3 -2.16399e-17 0)
(3 1.9314e-17 0)
(3 1.26715e-17 0)
(3 -1.93155e-17 0)
(3 -2.35078e-17 0)
(3 -3.56657e-17 0)
(3 -2.0736e-17 0)
(3 3.86414e-17 0)
(3 -5.01414e-18 0)
(3 -1.39931e-16 0)
(3 -1.82399e-16 0)
(3 -3.03819e-17 0)
(3 -9.78026e-17 0)
(3 -1.37155e-16 0)
(3 -3.66804e-10 0)
(3 -6.23125e-11 0)
(3 -5.08083e-12 0)
(3 -1.88377e-13 0)
(3 2.15056e-14 0)
(3 1.32735e-14 0)
(3 2.42731e-15 0)
(3 1.35756e-16 0)
(3 -9.79732e-17 0)
(3 -5.86805e-17 0)
(3 -5.34956e-17 0)
(3 -3.34939e-17 0)
(3 -1.49455e-17 0)
(3 -9.03004e-18 0)
(3 1.80673e-17 0)
(3 -1.67005e-17 0)
(3 -5.41664e-17 0)
(3 -5.41689e-17 0)
(3 -1.32626e-16 0)
(3 -8.72346e-17 0)
(3 -3.43751e-16 0)
(3 -3.3873e-16 0)
(3 -1.9297e-16 0)
(3 -9.67658e-18 0)
(3 3.61133e-17 0)
(3 -1.26618e-17 0)
(3 0 0)
(3 -6.20534e-17 0)
(3 -1.5046e-16 0)
(3 -5.96543e-17 0)
(3 -1.43384e-13 0)
(3 5.0998e-14 0)
(3 3.76838e-14 0)
(3 1.42985e-14 0)
(3 3.00517e-15 0)
(3 2.74147e-16 0)
(3 -1.38244e-16 0)
(3 -2.28032e-17 0)
(3 -7.62425e-17 0)
(3 3.69671e-17 0)
(3 -2.14562e-16 0)
(3 -1.88918e-16 0)
(3 -1.65698e-16 0)
(3 -5.01202e-17 0)
(3 1.68593e-17 0)
(3 1.68606e-17 0)
(3 1.68696e-17 0)
(3 1.66123e-17 0)
(3 -1.12205e-17 0)
(3 -8.43604e-17 0)
(3 -7.62742e-17 0)
(3 -2.08685e-16 0)
(3 -1.19996e-16 0)
(3 -6.73834e-17 0)
(3 -4.14258e-18 0)
(3 -3.37512e-17 0)
(3 3.37393e-17 0)
(3 3.37366e-17 0)
(3 -3.37508e-17 0)
(3 -1.09228e-17 0)
(3 1.28844e-14 0)
(3 7.45082e-15 0)
(3 1.98124e-15 0)
(3 3.39722e-16 0)
(3 6.33117e-17 0)
(3 1.14248e-17 0)
(3 6.11311e-17 0)
(3 7.09591e-17 0)
(3 1.29483e-16 0)
(3 9.85385e-17 0)
(3 1.21094e-16 0)
(3 7.66346e-17 0)
(3 4.38077e-17 0)
(3 2.23358e-17 0)
(3 0 0)
(3 1.57673e-17 0)
(3 -4.7305e-17 0)
(3 -4.73071e-17 0)
(3 5.92893e-19 0)
(3 -4.82938e-17 0)
(3 -1.7093e-16 0)
(3 -9.14163e-17 0)
(3 -5.37605e-17 0)
(3 -1.03266e-16 0)
(3 -7.59747e-17 0)
(3 -1.83494e-16 0)
(3 -5.90481e-17 0)
(3 0 0)
(3 0 0)
(3 1.86498e-16 0)
(3 1.35531e-16 0)
(3 2.7672e-17 0)
(3 -4.13074e-18 0)
(3 -2.57901e-17 0)
(3 2.58603e-18 0)
(3 7.3659e-18 0)
(3 3.60995e-16 0)
(3 2.18085e-16 0)
(3 2.50271e-16 0)
(3 1.04572e-16 0)
(3 1.03223e-16 0)
(3 4.98694e-17 0)
(3 8.89011e-18 0)
(3 5.88641e-21 0)
(3 -1.47454e-17 0)
(3 -1.47449e-17 0)
(3 3.35661e-17 0)
(3 1.47393e-17 0)
(3 1.47383e-17 0)
(3 4.66742e-17 0)
(3 2.19157e-16 0)
(3 1.9568e-16 0)
(3 9.93109e-17 0)
(3 4.59159e-17 0)
(3 2.36144e-17 0)
(3 -2.71148e-17 0)
(3 -1.06304e-16 0)
(3 -5.65864e-17 0)
(3 -2.50459e-17 0)
(3 -4.23686e-18 0)
(3 6.09069e-17 0)
(3 7.22955e-17 0)
(3 6.8457e-17 0)
(3 5.85222e-17 0)
(3 4.59116e-17 0)
(3 3.09294e-17 0)
(3 -4.50729e-19 0)
(3 -6.88266e-18 0)
(3 -2.89408e-17 0)
(3 -2.06542e-17 0)
(3 -2.7552e-17 0)
(3 -6.89903e-18 0)
(3 2.39889e-17 0)
(3 3.08769e-17 0)
(3 4.46525e-17 0)
(3 3.08909e-17 0)
(3 2.1871e-16 0)
(3 1.23743e-16 0)
(3 1.07737e-16 0)
(3 -4.27024e-18 0)
(3 1.6768e-17 0)
(3 1.52258e-17 0)
(3 2.89941e-17 0)
(3 -1.98423e-16 0)
(3 -1.17873e-16 0)
(3 1.37703e-16 0)
(3 1.08592e-16 0)
(3 -1.75042e-16 0)
(3 -1.26746e-16 0)
(3 -1.97197e-16 0)
(3 -1.11344e-16 0)
(3 -9.62003e-17 0)
(3 -9.28404e-17 0)
(3 -8.47248e-17 0)
(3 -7.55792e-17 0)
(3 -5.44802e-17 0)
(3 -3.02504e-16 0)
(3 -2.4223e-16 0)
(3 -2.07373e-16 0)
(3 -1.68558e-16 0)
(3 -1.1673e-16 0)
(3 -5.12347e-17 0)
(3 -1.95518e-17 0)
(3 1.90773e-17 0)
(3 3.86137e-17 0)
(3 3.86049e-17 0)
(3 1.18213e-17 0)
(3 -3.05716e-17 0)
(3 -2.05858e-17 0)
(3 1.28658e-17 0)
(3 -1.92988e-16 0)
(3 -1.06465e-16 0)
(3 -1.45264e-17 0)
(3 2.2829e-17 0)
(3 1.2785e-16 0)
(3 6.24358e-17 0)
(3 9.12848e-17 0)
(3 8.36067e-17 0)
(3 7.72813e-17 0)
(3 1.45833e-16 0)
(3 2.18051e-17 0)
(3 1.73275e-17 0)
(3 6.13271e-18 0)
(3 7.12134e-18 0)
(3 1.0327e-17 0)
(3 4.31602e-18 0)
(3 -1.70016e-18 0)
(3 -1.69726e-17 0)
(3 -4.05972e-17 0)
(3 -3.31351e-17 0)
(3 -7.88856e-18 0)
(3 -8.59281e-18 0)
(3 -1.80427e-17 0)
(3 -6.01477e-18 0)
(3 -1.20343e-17 0)
(3 -1.20257e-17 0)
(3 -6.01349e-17 0)
(3 -5.61393e-17 0)
(3 -7.81658e-18 0)
(3 4.35583e-18 0)
(3 2.46362e-17 0)
(3 -1.81822e-16 0)
(3 -1.34953e-16 0)
(3 1.37022e-16 0)
(3 7.21555e-17 0)
(3 5.26854e-17 0)
(3 -2.40547e-17 0)
(3 1.32642e-16 0)
(3 7.18646e-17 0)
(3 2.48628e-17 0)
(3 -1.76129e-17 0)
(3 -1.52557e-17 0)
(3 1.99461e-18 0)
(3 7.73692e-18 0)
(3 -3.12229e-17 0)
(3 -2.81576e-17 0)
(3 -2.81138e-17 0)
(3 -2.1876e-17 0)
(3 1.68573e-18 0)
(3 -1.18574e-17 0)
(3 -1.45503e-17 0)
(3 -2.81002e-17 0)
(3 -2.64171e-17 0)
(3 -1.68583e-17 0)
(3 4.54497e-18 0)
(3 1.12306e-17 0)
(3 -1.12437e-17 0)
(3 1.12351e-17 0)
(3 1.4851e-18 0)
(3 -2.98047e-17 0)
(3 -1.49418e-17 0)
(3 -1.12418e-17 0)
(3 -4.93039e-17 0)
(3 -2.2478e-17 0)
(3 -7.05499e-17 0)
(3 -5.16249e-17 0)
(3 -1.51485e-17 0)
(3 1.05077e-16 0)
(3 -3.40079e-17 0)
(3 -1.69212e-16 0)
(3 2.37665e-17 0)
(3 1.19831e-17 0)
(3 -1.72834e-17 0)
(3 -2.22617e-17 0)
(3 -2.08754e-17 0)
(3 -1.83159e-17 0)
(3 -2.62582e-17 0)
(3 -3.54283e-17 0)
(3 -1.935e-17 0)
(3 -6.52014e-18 0)
(3 -5.87239e-18 0)
(3 1.38186e-18 0)
(3 9.67052e-18 0)
(3 -5.24866e-18 0)
(3 0 0)
(3 -7.35164e-17 0)
(3 -8.26114e-17 0)
(3 -9.33772e-17 0)
(3 -8.13077e-17 0)
(3 -3.35643e-17 0)
(3 -1.17974e-17 0)
(3 1.69109e-16 0)
(3 1.17776e-16 0)
(3 5.41351e-17 0)
(3 -4.31009e-17 0)
(3 -3.10347e-17 0)
(3 2.10017e-17 0)
(3 1.53621e-17 0)
(3 -6.98111e-16 0)
(3 -2.53625e-16 0)
(3 2.06749e-17 0)
(3 9.56925e-17 0)
(3 9.04026e-17 0)
(3 8.49594e-17 0)
(3 1.02574e-16 0)
(3 8.14685e-17 0)
(3 1.15578e-16 0)
(3 1.16574e-16 0)
(3 9.01834e-17 0)
(3 4.79597e-17 0)
(3 2.09917e-16 0)
(3 1.80811e-16 0)
(3 1.43238e-16 0)
(3 9.81662e-17 0)
(3 5.11148e-17 0)
(3 1.37084e-17 0)
(3 9.81941e-18 0)
(3 8.41349e-18 0)
(3 -4.90741e-17 0)
(3 6.98868e-17 0)
(3 8.83339e-17 0)
(3 5.57072e-17 0)
(3 7.00178e-17 0)
(3 2.76843e-17 0)
(3 -1.96253e-17 0)
(3 -1.14982e-17 0)
(3 1.9632e-17 0)
(3 -8.63072e-17 0)
(3 4.14684e-18 0)
(3 1.24867e-16 0)
(3 -2.50738e-17 0)
(3 -2.83742e-17 0)
(3 -3.21627e-18 0)
(3 1.52267e-17 0)
(3 1.15975e-17 0)
(3 4.59196e-18 0)
(3 3.20984e-17 0)
(3 4.6629e-17 0)
(3 3.18719e-17 0)
(3 1.55633e-17 0)
(3 5.64462e-18 0)
(3 2.45915e-17 0)
(3 2.29326e-17 0)
(3 3.89091e-17 0)
(3 2.75222e-17 0)
(3 7.68957e-17 0)
(3 1.01992e-16 0)
(3 8.13461e-17 0)
(3 5.35517e-17 0)
(3 -4.27789e-18 0)
(3 -8.55427e-18 0)
(3 0 0)
(3 0 0)
(3 1.27357e-16 0)
(3 1.26038e-16 0)
(3 -8.38481e-17 0)
(3 1.56995e-17 0)
(3 0 0)
(3 5.08689e-16 0)
(3 1.53122e-16 0)
(3 2.61593e-20 0)
(3 -5.55451e-17 0)
(3 -6.2143e-17 0)
(3 -6.21417e-17 0)
(3 -7.34806e-17 0)
(3 -6.54225e-17 0)
(3 -1.12304e-16 0)
(3 -1.26812e-16 0)
(3 -1.04999e-16 0)
(3 -6.56498e-17 0)
(3 -1.92746e-16 0)
(3 -1.68462e-16 0)
(3 -1.0899e-16 0)
(3 -1.25941e-16 0)
(3 -1.08997e-16 0)
(3 -5.75457e-17 0)
(3 2.09936e-18 0)
(3 1.83543e-17 0)
(3 7.47707e-17 0)
(3 -5.35616e-17 0)
(3 -3.92636e-17 0)
(3 -1.87737e-17 0)
(3 -4.32346e-19 0)
(3 -1.7144e-17 0)
(3 1.7145e-17 0)
(3 1.71358e-17 0)
(3 8.45988e-17 0)
(3 -1.71389e-17 0)
(3 1.71461e-17 0)
(3 -1.30532e-16 0)
(3 -4.94516e-17 0)
(3 -3.16418e-17 0)
(3 -2.22715e-17 0)
(3 -7.85769e-18 0)
(3 -2.9424e-18 0)
(3 -4.01028e-18 0)
(3 -4.011e-18 0)
(3 -4.00886e-18 0)
(3 1.60599e-17 0)
(3 -2.66979e-18 0)
(3 3.60461e-17 0)
(3 -1.16646e-17 0)
(3 -1.32097e-17 0)
(3 -4.00635e-18 0)
(3 -8.01588e-18 0)
(3 -8.01558e-18 0)
(3 5.08958e-16 0)
(3 5.00264e-16 0)
(3 3.34003e-16 0)
(3 9.47868e-17 0)
(3 1.2412e-17 0)
(3 -1.29362e-17 0)
(3 1.02074e-17 0)
(3 -7.29785e-17 0)
(3 -1.60223e-17 0)
(3 9.24195e-17 0)
(3 3.62718e-17 0)
(3 0 0)
(3 7.62386e-17 0)
(3 9.37104e-17 0)
(3 1.00302e-16 0)
(3 8.42123e-17 0)
(3 7.3018e-17 0)
(3 5.31519e-17 0)
(3 1.8194e-17 0)
(3 1.69323e-18 0)
(3 -5.61419e-17 0)
(3 -5.65131e-17 0)
(3 -5.27733e-17 0)
(3 -4.27018e-17 0)
(3 -2.9652e-17 0)
(3 -1.71363e-17 0)
(3 1.60485e-17 0)
(3 4.43401e-17 0)
(3 3.68583e-17 0)
(3 4.08213e-17 0)
(3 6.32792e-17 0)
(3 -5.39259e-17 0)
(3 5.18083e-17 0)
(3 4.01914e-17 0)
(3 2.90546e-17 0)
(3 -1.77392e-17 0)
(3 -1.04346e-17 0)
(3 1.24363e-17 0)
(3 4.99439e-21 0)
(3 -1.10139e-16 0)
(3 -1.488e-16 0)
(3 -2.64919e-17 0)
(3 3.63539e-21 0)
(3 1.49729e-17 0)
(3 3.18454e-17 0)
(3 4.94992e-17 0)
(3 5.34382e-17 0)
(3 4.99899e-17 0)
(3 4.69765e-17 0)
(3 4.35886e-17 0)
(3 5.96469e-17 0)
(3 3.49719e-17 0)
(3 -2.4057e-18 0)
(3 -2.54055e-17 0)
(3 -7.56911e-17 0)
(3 -6.39554e-17 0)
(3 -4.43e-17 0)
(3 -4.5513e-17 0)
(3 -3.30509e-17 0)
(3 -1.17688e-17 0)
(3 -5.25618e-16 0)
(3 -4.79864e-16 0)
(3 -2.90401e-16 0)
(3 -6.47619e-17 0)
(3 -3.62381e-17 0)
(3 -1.5017e-17 0)
(3 -2.94018e-17 0)
(3 -1.39919e-17 0)
(3 -2.13905e-17 0)
(3 5.08666e-17 0)
(3 5.71024e-18 0)
(3 0 0)
(3 -3.41705e-17 0)
(3 -1.36081e-17 0)
(3 2.30278e-17 0)
(3 1.54938e-17 0)
(3 1.21532e-17 0)
(3 8.44664e-18 0)
(3 1.13267e-17 0)
(3 1.73752e-17 0)
(3 4.79239e-17 0)
(3 4.90306e-17 0)
(3 5.5021e-17 0)
(3 5.04004e-17 0)
(3 3.17319e-17 0)
(3 6.0089e-18 0)
(3 -2.28796e-17 0)
(3 -5.37366e-17 0)
(3 -7.69901e-17 0)
(3 -6.42374e-17 0)
(3 -2.79322e-17 0)
(3 -1.39684e-17 0)
(3 -1.41517e-16 0)
(3 -1.09949e-16 0)
(3 -5.97068e-17 0)
(3 1.74902e-17 0)
(3 1.40846e-17 0)
(3 -3.92271e-17 0)
(3 -7.82538e-17 0)
(3 1.8601e-17 0)
(3 1.0772e-16 0)
(3 4.62378e-17 0)
(3 1.53537e-17 0)
(3 1.75047e-17 0)
(3 -1.11733e-16 0)
(3 -1.06838e-16 0)
(3 -9.0953e-17 0)
(3 -6.56995e-17 0)
(3 -4.41153e-17 0)
(3 -1.00235e-17 0)
(3 -7.06718e-18 0)
(3 1.55235e-18 0)
(3 5.3849e-19 0)
(3 2.79894e-17 0)
(3 3.22122e-17 0)
(3 3.29174e-17 0)
(3 4.34313e-17 0)
(3 2.16945e-17 0)
(3 -3.0546e-17 0)
(3 -1.57876e-17 0)
(3 -6.11228e-18 0)
(3 -9.78143e-18 0)
(3 1.27367e-17 0)
(3 2.19831e-17 0)
(3 3.58672e-17 0)
(3 2.06949e-17 0)
(3 4.74204e-17 0)
(3 -3.57582e-17 0)
(3 -1.22202e-17 0)
(3 -7.0812e-17 0)
(3 -2.63638e-17 0)
(3 -5.77934e-17 0)
(3 1.22181e-17 0)
(3 1.76629e-17 0)
(3 4.50134e-18 0)
(3 2.81505e-18 0)
(3 -3.98767e-18 0)
(3 6.51539e-17 0)
(3 7.1776e-17 0)
(3 5.39944e-17 0)
(3 5.12886e-17 0)
(3 3.98632e-17 0)
(3 2.07416e-17 0)
(3 -6.40855e-18 0)
(3 2.5585e-18 0)
(3 1.99804e-17 0)
(3 1.48773e-17 0)
(3 7.4908e-17 0)
(3 1.06195e-16 0)
(3 2.63552e-17 0)
(3 7.40516e-18 0)
(3 -5.70769e-18 0)
(3 3.51131e-17 0)
(3 2.00875e-17 0)
(3 -5.70679e-18 0)
(3 2.94834e-17 0)
(3 1.77185e-17 0)
(3 6.81449e-17 0)
(3 6.75183e-17 0)
(3 9.4168e-17 0)
(3 -1.16541e-17 0)
(3 3.24198e-18 0)
(3 -5.73867e-17 0)
(3 -2.80326e-17 0)
(3 4.13479e-17 0)
(3 4.13453e-17 0)
(3 4.65283e-17 0)
(3 1.02367e-17 0)
(3 5.28516e-18 0)
(3 -7.43024e-18 0)
(3 -3.29183e-17 0)
(3 -4.00124e-17 0)
(3 -3.88108e-17 0)
(3 -2.9416e-17 0)
(3 -2.42532e-17 0)
(3 5.31282e-17 0)
(3 5.0236e-17 0)
(3 5.96868e-17 0)
(3 6.22598e-17 0)
(3 6.70946e-17 0)
(3 2.53631e-17 0)
(3 1.40035e-17 0)
(3 -9.85935e-18 0)
(3 -1.77371e-18 0)
(3 4.60393e-17 0)
(3 4.52513e-17 0)
(3 -1.25611e-17 0)
(3 5.68805e-17 0)
(3 1.71795e-17 0)
(3 -2.53674e-17 0)
(3 3.61475e-17 0)
(3 6.01535e-17 0)
(3 7.88746e-18 0)
(3 -6.82385e-17 0)
(3 -1.75157e-17 0)
(3 -1.58147e-17 0)
(3 -3.75684e-18 0)
(3 -5.07359e-17 0)
(3 -4.49605e-17 0)
(3 -3.929e-17 0)
(3 -3.87322e-17 0)
(3 -3.71069e-17 0)
(3 -3.05517e-17 0)
(3 1.60834e-17 0)
(3 1.17483e-17 0)
(3 1.90276e-18 0)
(3 -3.60132e-19 0)
(3 -2.37949e-17 0)
(3 -1.9333e-17 0)
(3 2.71463e-17 0)
(3 3.31204e-17 0)
(3 4.48389e-17 0)
(3 3.52881e-17 0)
(3 3.8975e-17 0)
(3 -1.49562e-17 0)
(3 -3.77649e-17 0)
(3 -7.58007e-18 0)
(3 -5.95559e-17 0)
(3 -2.53227e-17 0)
(3 -2.17859e-17 0)
(3 -1.49347e-17 0)
(3 -4.62552e-17 0)
(3 4.45455e-17 0)
(3 -2.82133e-17 0)
(3 1.90928e-17 0)
(3 1.74193e-17 0)
(3 1.50866e-17 0)
(3 1.07951e-17 0)
(3 8.11308e-18 0)
(3 2.71717e-17 0)
(3 3.95579e-17 0)
(3 3.98686e-17 0)
(3 1.98367e-17 0)
(3 -2.12686e-17 0)
(3 -4.99655e-17 0)
(3 -1.22454e-16 0)
(3 -1.1278e-16 0)
(3 -7.95433e-17 0)
(3 -7.70618e-18 0)
(3 -2.49558e-17 0)
(3 1.09343e-17 0)
(3 -2.32995e-17 0)
(3 4.65814e-18 0)
(3 -4.27485e-18 0)
(3 -1.84807e-17 0)
(3 -1.97744e-17 0)
(3 -1.26935e-17 0)
(3 -1.00973e-20 0)
(3 1.86469e-17 0)
(3 2.47672e-17 0)
(3 -5.21801e-17 0)
(3 -1.16714e-17 0)
(3 3.19479e-17 0)
(3 2.3442e-17 0)
(3 -1.67852e-17 0)
(3 3.74377e-19 0)
(3 -5.44325e-18 0)
(3 -5.44723e-18 0)
(3 2.06341e-18 0)
(3 -6.53362e-18 0)
(3 -4.16379e-18 0)
(3 6.52666e-18 0)
(3 -1.71787e-15 0)
(3 -1.69103e-15 0)
(3 -1.58137e-15 0)
(3 -1.26059e-15 0)
(3 -5.04365e-16 0)
(3 -2.02117e-16 0)
(3 -7.28063e-17 0)
(3 -3.06592e-17 0)
(3 -4.13503e-17 0)
(3 -2.8543e-17 0)
(3 -6.71565e-18 0)
(3 -1.52429e-17 0)
(3 1.82784e-17 0)
(3 -2.17736e-17 0)
(3 -1.48368e-17 0)
(3 8.70637e-18 0)
(3 -4.88668e-18 0)
(3 2.93121e-17 0)
(3 -4.35457e-17 0)
(3 -1.04836e-17 0)
(3 -1.03495e-17 0)
(3 1.44873e-17 0)
(3 -3.05301e-18 0)
(3 9.15545e-18 0)
(3 1.70554e-17 0)
(3 1.51691e-17 0)
(3 2.34003e-17 0)
(3 1.01743e-17 0)
(3 1.77411e-17 0)
(3 3.13969e-17 0)
(3 -1.62742e-15 0)
(3 -1.60993e-15 0)
(3 -1.37777e-15 0)
(3 -9.95837e-16 0)
(3 -6.86867e-16 0)
(3 -2.55515e-16 0)
(3 -7.02011e-17 0)
(3 -1.41913e-17 0)
(3 -1.80838e-17 0)
(3 -2.89436e-18 0)
(3 0 0)
(3 0 0)
(3 -4.06942e-18 0)
(3 -4.0706e-18 0)
(3 -4.07017e-18 0)
(3 2.44176e-17 0)
(3 1.38684e-17 0)
(3 1.0929e-17 0)
(3 -6.10229e-17 0)
(3 -4.01171e-17 0)
(3 -1.26323e-17 0)
(3 -4.14735e-18 0)
(0.748633 0.198952 0)
(1.57223 -0.589627 0)
(2.33798 -0.992857 0)
(2.69822 -0.663496 0)
(2.87071 -0.260599 0)
(2.96718 -0.0573306 0)
(2.9971 -0.00538516 0)
(3.00005 -0.00021221 0)
(3.00003 -1.80503e-05 0)
(3 -2.41802e-06 0)
(3 -3.69809e-08 0)
(3 -7.06659e-09 0)
(3 -1.16905e-09 0)
(3 -1.96755e-11 0)
(3 -7.2748e-14 0)
(3 5.65357e-16 0)
(3 7.16886e-17 0)
(3 -1.34256e-16 0)
(3 2.54896e-17 0)
(3 -2.79323e-17 0)
(3 2.62577e-17 0)
(3 2.41626e-17 0)
(3 -3.54873e-17 0)
(3 8.67783e-18 0)
(3 -6.52855e-17 0)
(3 1.08066e-16 0)
(3 2.38483e-17 0)
(3 2.95881e-17 0)
(3 -1.1405e-16 0)
(3 4.83964e-18 0)
(3 3.6305e-17 0)
(3 -2.27097e-17 0)
(3 2.12172e-17 0)
(3 -1.24747e-17 0)
(3 -4.81811e-18 0)
(0.993736 0.300162 0)
(1.75356 -0.593522 0)
(2.41633 -0.951479 0)
(2.72787 -0.600761 0)
(2.88493 -0.222387 0)
(2.97396 -0.042717 0)
(2.99842 -0.00298092 0)
(3.00006 -9.78643e-05 0)
(3.00003 -1.5569e-05 0)
(3 -1.47901e-06 0)
(3 -2.24389e-08 0)
(3 -7.54509e-09 0)
(3 -7.91002e-10 0)
(3 -8.49129e-12 0)
(3 -2.48889e-14 0)
(3 1.45171e-16 0)
(3 5.13793e-18 0)
(3 -1.07226e-16 0)
(3 2.8276e-17 0)
(3 -2.12583e-17 0)
(3 2.4466e-17 0)
(3 2.46603e-17 0)
(3 -4.06307e-17 0)
(3 2.5518e-17 0)
(3 -8.61298e-17 0)
(3 1.3632e-16 0)
(3 -1.88572e-17 0)
(3 6.53864e-17 0)
(3 -1.16477e-16 0)
(3 3.72976e-17 0)
(3 -1.08286e-17 0)
(3 -1.65737e-17 0)
(3 1.53299e-17 0)
(3 -8.57521e-18 0)
(3 -6.13477e-18 0)
(0.990564 0.301628 0)
(1.74576 -0.591029 0)
(2.40722 -0.956928 0)
(2.72118 -0.611396 0)
(2.88022 -0.23036 0)
(2.97195 -0.0456182 0)
(2.99816 -0.00333364 0)
(3.00006 -0.000108518 0)
(3.00003 -1.56375e-05 0)
(3 -1.67703e-06 0)
(3 -2.49551e-08 0)
(3 -7.53396e-09 0)
(3 -9.28312e-10 0)
(3 -1.09134e-11 0)
(3 -3.22859e-14 0)
(3 1.99999e-16 0)
(3 -6.73721e-17 0)
(3 -4.49208e-17 0)
(3 -1.82392e-17 0)
(3 -3.97403e-17 0)
(3 -1.52266e-18 0)
(3 2.47902e-17 0)
(3 -4.16978e-17 0)
(3 3.95432e-17 0)
(3 -9.96842e-17 0)
(3 4.53678e-17 0)
(3 3.46804e-17 0)
(3 8.9014e-17 0)
(3 -6.48635e-17 0)
(3 8.67933e-18 0)
(3 -1.19701e-17 0)
(3 -1.9761e-17 0)
(3 1.64774e-17 0)
(3 -1.1033e-17 0)
(3 -2.56978e-18 0)
(0.988243 0.302787 0)
(1.73993 -0.590082 0)
(2.40144 -0.960729 0)
(2.71708 -0.618209 0)
(2.87735 -0.235348 0)
(2.97073 -0.0473985 0)
(2.99801 -0.00354129 0)
(3.00005 -0.000114368 0)
(3.00003 -1.57476e-05 0)
(3 -1.78846e-06 0)
(3 -2.65495e-08 0)
(3 -7.58761e-09 0)
(3 -9.97447e-10 0)
(3 -1.22521e-11 0)
(3 -3.69339e-14 0)
(3 2.54145e-16 0)
(3 -1.06138e-16 0)
(3 -3.83813e-17 0)
(3 -3.95054e-17 0)
(3 3.22381e-17 0)
(3 -2.54719e-17 0)
(3 -5.04086e-18 0)
(3 -1.11893e-17 0)
(3 4.06882e-17 0)
(3 -1.11267e-16 0)
(3 4.22726e-17 0)
(3 -1.54137e-17 0)
(3 2.93224e-16 0)
(3 -1.11772e-16 0)
(3 -6.32922e-18 0)
(3 1.53651e-17 0)
(3 -7.59418e-18 0)
(3 1.65601e-17 0)
(3 -1.11604e-17 0)
(3 7.7272e-20 0)
(0.985791 0.304121 0)
(1.73406 -0.588324 0)
(2.39512 -0.96455 0)
(2.71251 -0.625706 0)
(2.87409 -0.24104 0)
(2.96928 -0.0495242 0)
(2.99781 -0.00380989 0)
(3.00005 -0.000121954 0)
(3.00003 -1.56653e-05 0)
(3 -1.88721e-06 0)
(3 -2.79987e-08 0)
(3 -7.53859e-09 0)
(3 -1.09911e-09 0)
(3 -1.46881e-11 0)
(3 -4.47158e-14 0)
(3 3.34485e-16 0)
(3 -1.3961e-16 0)
(3 -6.66441e-17 0)
(3 -5.52381e-17 0)
(3 7.45594e-17 0)
(3 -3.15452e-17 0)
(3 -1.09721e-17 0)
(3 3.50255e-18 0)
(3 4.95606e-17 0)
(3 -1.10049e-16 0)
(3 -1.36862e-17 0)
(3 -2.60422e-16 0)
(3 4.10397e-16 0)
(3 -1.28136e-16 0)
(3 2.00623e-17 0)
(3 2.95713e-17 0)
(3 -1.15119e-17 0)
(3 1.75587e-17 0)
(3 -1.42766e-17 0)
(3 2.20651e-17 0)
(0.983398 0.305388 0)
(1.72812 -0.586966 0)
(2.38887 -0.968391 0)
(2.70799 -0.633045 0)
(2.87085 -0.246653 0)
(2.96783 -0.0516547 0)
(2.9976 -0.00408828 0)
(3.00005 -0.000131498 0)
(3.00003 -1.5912e-05 0)
(3 -2.06663e-06 0)
(3 -3.14904e-08 0)
(3 -7.62097e-09 0)
(3 -1.17832e-09 0)
(3 -1.67656e-11 0)
(3 -5.11289e-14 0)
(3 2.21713e-16 0)
(3 -2.34263e-16 0)
(3 4.07921e-17 0)
(3 -4.21027e-17 0)
(3 8.14218e-17 0)
(3 -4.27603e-17 0)
(3 -8.43604e-18 0)
(3 1.43638e-17 0)
(3 4.14204e-17 0)
(3 -5.32409e-17 0)
(3 -3.82522e-17 0)
(3 6.26119e-17 0)
(3 -8.38785e-17 0)
(3 -3.00267e-17 0)
(3 1.65977e-18 0)
(3 4.11373e-17 0)
(3 -1.83133e-17 0)
(3 2.80192e-18 0)
(3 -6.70219e-18 0)
(3 4.35022e-17 0)
(0.980939 0.306699 0)
(1.72221 -0.585403 0)
(2.38256 -0.97217 0)
(2.70342 -0.640504 0)
(2.86754 -0.252412 0)
(2.96631 -0.0538704 0)
(2.99738 -0.00438158 0)
(3.00004 -0.000140077 0)
(3.00003 -1.58354e-05 0)
(3 -2.14157e-06 0)
(3 -3.27865e-08 0)
(3 -7.56308e-09 0)
(3 -1.28207e-09 0)
(3 -2.00024e-11 0)
(3 -6.34858e-14 0)
(3 -7.94004e-17 0)
(3 -2.36198e-18 0)
(3 1.14036e-16 0)
(3 8.50437e-18 0)
(3 -2.89815e-17 0)
(3 5.41991e-18 0)
(3 -3.25003e-17 0)
(3 3.94074e-17 0)
(3 -2.03356e-17 0)
(3 -2.83472e-17 0)
(3 1.83423e-17 0)
(3 3.29766e-17 0)
(3 1.01062e-17 0)
(3 -3.21732e-17 0)
(3 -5.49998e-18 0)
(3 4.31028e-17 0)
(3 -9.63439e-18 0)
(3 4.76789e-18 0)
(3 -4.39692e-18 0)
(3 5.46918e-17 0)
(0.978476 0.308011 0)
(1.71628 -0.583901 0)
(2.37623 -0.975923 0)
(2.6988 -0.647979 0)
(2.86417 -0.258287 0)
(2.96473 -0.0561899 0)
(2.99714 -0.00470542 0)
(3.00003 -0.000151711 0)
(3.00003 -1.60796e-05 0)
(3 -2.32115e-06 0)
(3 -3.69979e-08 0)
(3 -7.62798e-09 0)
(3 -1.3676e-09 0)
(3 -2.28956e-11 0)
(3 -7.35245e-14 0)
(3 -1.39148e-16 0)
(3 5.15899e-18 0)
(3 1.36615e-16 0)
(3 2.37391e-18 0)
(3 -2.91287e-17 0)
(3 5.44289e-18 0)
(3 -3.88678e-17 0)
(3 4.27855e-17 0)
(3 -2.50511e-17 0)
(3 -2.79516e-17 0)
(3 6.3996e-17 0)
(3 -9.48071e-18 0)
(3 -2.56395e-18 0)
(3 -2.08894e-17 0)
(3 -3.90653e-17 0)
(3 6.06874e-17 0)
(3 -4.46544e-18 0)
(3 6.41505e-18 0)
(3 -6.75773e-18 0)
(3 5.71284e-17 0)
(0.97598 0.30934 0)
(1.71036 -0.582353 0)
(2.36987 -0.979635 0)
(2.69414 -0.655491 0)
(2.86075 -0.264243 0)
(2.96309 -0.0585752 0)
(2.99688 -0.00504408 0)
(3.00003 -0.000162871 0)
(3.00003 -1.60766e-05 0)
(3.00001 -2.42595e-06 0)
(3 -3.95372e-08 0)
(3 -7.60217e-09 0)
(3 -1.4672e-09 0)
(3 -2.69822e-11 0)
(3 -9.08366e-14 0)
(3 -6.92545e-17 0)
(3 5.55072e-18 0)
(3 1.41624e-16 0)
(3 -1.78655e-17 0)
(3 -2.20832e-18 0)
(3 -1.64227e-17 0)
(3 -2.55754e-17 0)
(3 1.8628e-17 0)
(3 -2.87605e-17 0)
(3 -1.3151e-18 0)
(3 1.0963e-16 0)
(3 -4.74023e-17 0)
(3 -3.32865e-17 0)
(3 -4.10057e-17 0)
(3 -3.28736e-17 0)
(3 7.9057e-17 0)
(3 -2.30446e-17 0)
(3 3.65799e-17 0)
(3 -2.22866e-17 0)
(3 3.30535e-17 0)
(0.973462 0.310681 0)
(1.70442 -0.5808 0)
(2.36347 -0.983313 0)
(2.68944 -0.663045 0)
(2.85726 -0.270324 0)
(2.9614 -0.0610643 0)
(2.99661 -0.00541254 0)
(3.00002 -0.000176476 0)
(3.00003 -1.627e-05 0)
(3.00001 -2.57956e-06 0)
(3 -4.37212e-08 0)
(3 -7.6273e-09 0)
(3 -1.55914e-09 0)
(3 -3.1064e-11 0)
(3 -1.03041e-13 0)
(3 -2.28845e-16 0)
(3 -2.49527e-17 0)
(3 1.80858e-16 0)
(3 -4.56016e-17 0)
(3 2.05331e-18 0)
(3 5.50124e-18 0)
(3 -4.84143e-17 0)
(3 -5.99887e-18 0)
(3 -2.61576e-17 0)
(3 -6.19854e-18 0)
(3 1.26468e-16 0)
(3 -4.67793e-17 0)
(3 -6.3446e-17 0)
(3 -2.20409e-17 0)
(3 -2.25576e-17 0)
(3 7.61611e-17 0)
(3 -3.51463e-17 0)
(3 3.39145e-17 0)
(3 8.62501e-18 0)
(3 2.99861e-17 0)
(0.970918 0.312035 0)
(1.69849 -0.579229 0)
(2.35703 -0.986949 0)
(2.68469 -0.670631 0)
(2.85372 -0.276502 0)
(2.95964 -0.0636372 0)
(2.99631 -0.00580397 0)
(3.00001 -0.000190887 0)
(3.00003 -1.63706e-05 0)
(3.00001 -2.71359e-06 0)
(3 -4.77197e-08 0)
(3 -7.6325e-09 0)
(3 -1.6553e-09 0)
(3 -3.60282e-11 0)
(3 -1.25486e-13 0)
(3 -2.12808e-16 0)
(3 -2.68299e-17 0)
(3 2.0397e-16 0)
(3 -7.50585e-17 0)
(3 2.66979e-17 0)
(3 3.55562e-18 0)
(3 -2.59464e-17 0)
(3 -3.3897e-17 0)
(3 -1.08516e-17 0)
(3 4.21561e-18 0)
(3 1.3664e-16 0)
(3 -7.45185e-17 0)
(3 -7.21356e-17 0)
(3 -8.91535e-18 0)
(3 5.50302e-18 0)
(3 9.01732e-17 0)
(3 -4.63739e-17 0)
(3 1.90394e-17 0)
(3 1.40527e-17 0)
(3 2.35812e-17 0)
(0.968347 0.313403 0)
(1.69256 -0.577645 0)
(2.35056 -0.990547 0)
(2.67991 -0.678253 0)
(2.85011 -0.282792 0)
(2.95781 -0.0663083 0)
(2.99599 -0.00622459 0)
(3 -0.000207264 0)
(3.00003 -1.65516e-05 0)
(3.00001 -2.86169e-06 0)
(3 -5.24591e-08 0)
(3 -7.6453e-09 0)
(3 -1.75021e-09 0)
(3 -4.14653e-11 0)
(3 -1.50357e-13 0)
(3 -1.88021e-16 0)
(3 7.68653e-17 0)
(3 4.3637e-17 0)
(3 -1.76624e-17 0)
(3 4.1058e-17 0)
(3 -1.83442e-17 0)
(3 -3.26332e-17 0)
(3 -3.40089e-17 0)
(3 2.88637e-18 0)
(3 -2.67463e-17 0)
(3 8.84643e-17 0)
(3 -5.55796e-17 0)
(3 -6.72236e-17 0)
(3 2.21346e-17 0)
(3 3.63451e-17 0)
(3 6.10511e-17 0)
(3 -4.9655e-17 0)
(3 2.87083e-19 0)
(3 2.77216e-17 0)
(3 2.15637e-18 0)
(0.965749 0.314786 0)
(1.68662 -0.576048 0)
(2.34405 -0.994104 0)
(2.67508 -0.685906 0)
(2.84645 -0.289188 0)
(2.95592 -0.0690747 0)
(2.99565 -0.00667395 0)
(2.99999 -0.000225299 0)
(3.00003 -1.67255e-05 0)
(3.00001 -3.00855e-06 0)
(3 -5.75501e-08 0)
(3 -7.65386e-09 0)
(3 -1.8459e-09 0)
(3 -4.76473e-11 0)
(3 -1.8181e-13 0)
(3 -2.99264e-16 0)
(3 9.02221e-17 0)
(3 2.7791e-17 0)
(3 -6.1836e-17 0)
(3 1.06945e-17 0)
(3 -1.77861e-17 0)
(3 -6.05663e-17 0)
(3 -2.17955e-17 0)
(3 3.75976e-17 0)
(3 -5.27785e-17 0)
(3 5.89026e-17 0)
(3 -3.21953e-17 0)
(3 -7.51639e-17 0)
(3 2.27725e-17 0)
(3 4.83275e-17 0)
(3 6.60685e-17 0)
(3 -3.82402e-17 0)
(3 -2.84258e-17 0)
(3 3.47829e-17 0)
(3 7.01082e-18 0)
(0.963124 0.316183 0)
(1.68069 -0.574438 0)
(2.33751 -0.997622 0)
(2.67021 -0.693591 0)
(2.84273 -0.295693 0)
(2.95397 -0.071941 0)
(2.99528 -0.00715474 0)
(2.99997 -0.00024535 0)
(3.00003 -1.69195e-05 0)
(3.00001 -3.15748e-06 0)
(3 -6.30665e-08 0)
(3 -7.66227e-09 0)
(3 -1.94188e-09 0)
(3 -5.45131e-11 0)
(3 -2.17448e-13 0)
(3 -2.99697e-16 0)
(3 1.12667e-17 0)
(3 3.85432e-17 0)
(3 -8.74498e-17 0)
(3 1.74318e-19 0)
(3 -5.74055e-17 0)
(3 -4.43368e-17 0)
(3 -2.90952e-18 0)
(3 6.11942e-17 0)
(3 -5.01852e-18 0)
(3 2.20739e-17 0)
(3 -5.40754e-17 0)
(3 -8.05005e-17 0)
(3 9.48605e-17 0)
(3 4.57573e-17 0)
(3 2.01212e-17 0)
(3 -4.42595e-17 0)
(3 -3.62703e-17 0)
(3 1.42641e-17 0)
(3 -1.37042e-18 0)
(0.960469 0.317595 0)
(1.67475 -0.572816 0)
(2.33094 -1.0011 0)
(2.66529 -0.701306 0)