/*--------------------------------*- C++ -*----------------------------------*\
  =========                 |
  \\      /  F ield         | OpenFOAM: The Open Source CFD Toolbox
   \\    /   O peration     | Website:  https://openfoam.org
    \\  /    A nd           | Version:  7
     \\/     M anipulation  |
\*---------------------------------------------------------------------------*/
FoamFile
{
    version     2.0;
    format      ascii;
    class       volScalarField;
    location    "2";
    object      rho;
}
// * * * * * * * * * * * * * * * * * * * * * * * * * * * * * * * * * * * * * //

dimensions      [1 -3 0 0 0 0 0];

internalField   nonuniform List<scalar> 
60000
(
0.213611
0.238139
0.253936
0.290715
0.338801
0.351993
0.381961
0.42485
0.443106
0.481349
0.606183
0.643346
0.654067
0.682718
0.755137
0.806414
0.810273
0.825016
0.839587
0.856097
0.857399
0.85093
0.844814
0.836368
0.82815
0.815819
0.810998
0.818145
0.821132
0.823924
0.830433
0.830896
0.828022
0.823968
0.822106
0.826149
0.836764
0.847387
0.857433
0.857555
0.85231
0.841313
0.830675
0.829767
0.835034
0.846781
0.856148
0.86338
0.864368
0.863472
0.863884
0.867263
0.872441
0.872743
0.870359
0.865533
0.867002
0.87029
0.87461
0.875584
0.866778
0.848844
0.823204
0.786698
0.745812
0.709594
0.687006
0.673982
0.669626
0.685745
0.736824
0.785865
0.808517
0.811687
0.808423
0.81693
0.883765
0.92496
0.927141
0.91076
0.844236
0.822
0.809934
0.817306
0.894024
1.00715
1.02607
1.02214
0.994497
0.930444
0.831556
0.782373
0.76697
0.76191
0.768727
0.761703
0.770248
0.824
0.915238
0.974201
0.186752
0.186817
0.186721
0.186754
0.187859
0.188178
0.188007
0.187796
0.187759
0.189469
0.197844
0.207939
0.222887
0.249561
0.285285
0.332798
0.386284
0.432683
0.493278
0.557429
0.614007
0.654196
0.693614
0.726513
0.759546
0.785088
0.813986
0.841275
0.843248
0.845041
0.84598
0.838972
0.830423
0.830418
0.833356
0.838001
0.842747
0.840736
0.840181
0.834987
0.823947
0.817582
0.819498
0.828226
0.838404
0.844642
0.846846
0.84899
0.851254
0.855531
0.85924
0.863523
0.86499
0.864214
0.85872
0.857691
0.860119
0.862661
0.869311
0.871509
0.861468
0.841238
0.814326
0.778713
0.742492
0.709243
0.679913
0.662929
0.653737
0.65671
0.684218
0.720434
0.742508
0.755836
0.760208
0.7746
0.854894
0.899755
0.898582
0.875444
0.801985
0.780211
0.778141
0.789441
0.887042
1.00318
1.01151
1.00523
0.96925
0.896606
0.803633
0.747933
0.723042
0.710422
0.72107
0.73262
0.753327
0.823316
0.921109
0.975631
0.187734
0.18805
0.188112
0.188511
0.189244
0.189149
0.189008
0.188947
0.189115
0.189441
0.189622
0.189845
0.190439
0.190786
0.190422
0.190295
0.190491
0.191234
0.192898
0.199601
0.212616
0.235397
0.269188
0.313571
0.363624
0.431335
0.503806
0.581693
0.647919
0.69418
0.753081
0.791042
0.821479
0.842887
0.855771
0.856393
0.851675
0.841958
0.827094
0.812704
0.799744
0.79969
0.808636
0.827266
0.844022
0.847615
0.84856
0.848342
0.846902
0.849439
0.854539
0.861648
0.862716
0.858981
0.852768
0.854602
0.856298
0.862026
0.871122
0.872382
0.858325
0.835304
0.808008
0.774983
0.740865
0.708745
0.674431
0.653307
0.641489
0.637809
0.649423
0.673898
0.687505
0.697889
0.712378
0.730725
0.818633
0.860991
0.858807
0.835325
0.76385
0.741102
0.742367
0.758703
0.876904
0.983899
0.989734
0.980954
0.943911
0.870837
0.789432
0.730243
0.695742
0.675268
0.670562
0.701768
0.738006
0.823132
0.923188
0.976377
0.188177
0.188854
0.189509
0.190034
0.190125
0.19004
0.189822
0.189816
0.190379
0.1905
0.189894
0.189781
0.190424
0.191812
0.191456
0.190384
0.190347
0.190676
0.191937
0.193127
0.193292
0.193378
0.193608
0.193629
0.193726
0.193982
0.194026
0.200353
0.222855
0.25825
0.308726
0.384528
0.46479
0.551995
0.629146
0.685272
0.733625
0.767497
0.790779
0.798262
0.802205
0.803058
0.808654
0.824325
0.837242
0.843363
0.847235
0.847563
0.847061
0.849511
0.855348
0.860023
0.859396
0.852451
0.848116
0.848785
0.853568
0.863456
0.874067
0.873689
0.857404
0.831625
0.803183
0.771938
0.739816
0.708236
0.673455
0.649361
0.640104
0.63797
0.645055
0.657726
0.663233
0.668679
0.677978
0.696899
0.770219
0.820146
0.824655
0.805354
0.740722
0.716083
0.717132
0.73275
0.859639
0.949135
0.95995
0.949521
0.919256
0.851061
0.784996
0.723801
0.683116
0.655658
0.64334
0.671938
0.722989
0.821444
0.921584
0.975846
0.188804
0.189232
0.189874
0.190181
0.190394
0.190425
0.190424
0.190675
0.191288
0.191395
0.190877
0.190349
0.190549
0.191996
0.192325
0.191211
0.190294
0.1904
0.191219
0.192764
0.193232
0.193374
0.193489
0.193442
0.193486
0.193766
0.193875
0.193826
0.193724
0.193747
0.193984
0.194113
0.193964
0.19801
0.21718
0.257532
0.319153
0.405742
0.516896
0.61809
0.696001
0.752823
0.7774
0.804624
0.815902
0.832176
0.847212
0.844694
0.846605
0.852717
0.859798
0.860095
0.858202
0.848948
0.844563
0.844708
0.851739
0.864312
0.875079
0.87383
0.858878
0.833714
0.802377
0.770548
0.739665
0.709377
0.676627
0.652257
0.644905
0.64472
0.655753
0.671576
0.674824
0.668875
0.667452
0.681186
0.737873
0.794804
0.807251
0.790965
0.734804
0.706965
0.703686
0.712836
0.830653
0.909586
0.922673
0.916297
0.899902
0.840383
0.784334
0.726806
0.679854
0.64776
0.631956
0.651219
0.709389
0.808267
0.908077
0.973955
0.189361
0.189605
0.189748
0.189858
0.190339
0.190574
0.190533
0.190528
0.191248
0.191876
0.191878
0.191332
0.1912
0.191736
0.192661
0.192512
0.191152
0.190724
0.191011
0.192342
0.193138
0.193251
0.193325
0.193293
0.1933
0.193557
0.193716
0.19367
0.193489
0.193404
0.193502
0.193681
0.193687
0.193518
0.193435
0.193447
0.193596
0.193993
0.194601
0.215447
0.264996
0.349278
0.449113
0.560197
0.647671
0.732089
0.789187
0.829368
0.851588
0.863736
0.869287
0.862471
0.857405
0.84579
0.840823
0.84248
0.851748
0.865982
0.875656
0.874597
0.862442
0.838202
0.804358
0.771807
0.742699
0.712464
0.679215
0.654565
0.650327
0.656738
0.682089
0.706713
0.703165
0.679445
0.671392
0.683052
0.730486
0.781693
0.79895
0.784163
0.738821
0.705573
0.693044
0.700288
0.794386
0.869907
0.888758
0.895738
0.883688
0.831958
0.78136
0.73321
0.680902
0.644752
0.626652
0.63519
0.687074
0.786062
0.888268
0.970994
0.189256
0.189211
0.189199
0.189243
0.189781
0.189971
0.190086
0.190386
0.191389
0.192145
0.192196
0.192115
0.19182
0.191813
0.192448
0.192808
0.192422
0.19124
0.191068
0.191562
0.192805
0.192979
0.193088
0.193193
0.193191
0.193335
0.193468
0.193446
0.193291
0.193148
0.193183
0.193342
0.193373
0.193346
0.193339
0.193367
0.193493
0.193926
0.194296
0.194369
0.194385
0.194362
0.194083
0.201761
0.240186
0.311613
0.434219
0.586851
0.728434
0.822903
0.859106
0.861287
0.861472
0.849694
0.839266
0.841948
0.853709
0.86867
0.871831
0.873217
0.866314
0.844184
0.810959
0.777875
0.748678
0.716212
0.680827
0.66054
0.661797
0.679682
0.718972
0.747786
0.738002
0.700903
0.683868
0.693389
0.731324
0.774742
0.792059
0.777936
0.743485
0.705149
0.685169
0.692686
0.765997
0.831434
0.863927
0.884193
0.87075
0.827466
0.781864
0.738913
0.683383
0.643463
0.621552
0.619084
0.657236
0.765684
0.87808
0.968786
0.188392
0.189137
0.189201
0.188653
0.188157
0.188149
0.188407
0.190356
0.192017
0.192099
0.192132
0.19228
0.19224
0.191983
0.192042
0.192628
0.192764
0.191976
0.190885
0.190874
0.191485
0.192302
0.192503
0.192829
0.193024
0.193032
0.193078
0.193072
0.192999
0.192902
0.192951
0.193142
0.193154
0.193145
0.193214
0.193317
0.193447
0.193782
0.194127
0.194181
0.194198
0.194179
0.194006
0.19367
0.193432
0.193416
0.193476
0.207344
0.277802
0.425734
0.612067
0.741987
0.820725
0.834304
0.841624
0.846932
0.856644
0.870671
0.864877
0.869125
0.870348
0.851715
0.820441
0.786827
0.75562
0.720614
0.685698
0.668291
0.671804
0.698643
0.752258
0.781875
0.767767
0.719436
0.695713
0.703658
0.733143
0.770685
0.785621
0.773516
0.746448
0.709202
0.688793
0.697466
0.759493
0.815981
0.856126
0.876285
0.861658
0.82561
0.785323
0.744556
0.690101
0.643941
0.617333
0.604714
0.629177
0.746314
0.871362
0.961681
0.188687
0.18946
0.189708
0.189542
0.188063
0.187774
0.18783
0.188193
0.190255
0.191776
0.192084
0.192368
0.192395
0.192107
0.191958
0.1925
0.192854
0.19241
0.190699
0.190263
0.19052
0.191423
0.191824
0.191886
0.192107
0.192504
0.192627
0.192663
0.192658
0.192639
0.192668
0.192935
0.193067
0.19308
0.193126
0.193177
0.193277
0.193556
0.193926
0.193997
0.194008
0.193978
0.193789
0.193492
0.193325
0.193347
0.193481
0.19348
0.193331
0.193301
0.214473
0.312297
0.483432
0.675238
0.804216
0.843569
0.856591
0.860486
0.860284
0.870941
0.877486
0.861895
0.832803
0.798676
0.762232
0.72451
0.690413
0.678843
0.684657
0.715876
0.770962
0.798302
0.792545
0.735697
0.707619
0.712923
0.735484
0.766969
0.777936
0.770046
0.749001
0.712272
0.697789
0.715414
0.76903
0.811009
0.848316
0.873309
0.859352
0.82667
0.789087
0.750807
0.701508
0.647082
0.61621
0.597347
0.612276
0.711706
0.830946
0.924808
0.188541
0.188714
0.189451
0.189688
0.189504
0.188797
0.188745
0.188843
0.189249
0.190005
0.190823
0.191803
0.192017
0.191824
0.19147
0.191819
0.192639
0.192492
0.190839
0.189906
0.189993
0.190672
0.191108
0.191182
0.191311
0.191842
0.192325
0.192358
0.192291
0.192297
0.192366
0.192631
0.193026
0.193112
0.193143
0.193135
0.193158
0.193339
0.193737
0.193848
0.193857
0.193815
0.193611
0.193318
0.193207
0.193272
0.193342
0.193251
0.193081
0.193096
0.193156
0.193307
0.193583
0.244382
0.387145
0.602722
0.733834
0.820472
0.861093
0.883176
0.890902
0.875137
0.843892
0.806315
0.766512
0.728653
0.702925
0.693909
0.702163
0.731732
0.77247
0.794438
0.798334
0.757269
0.719935
0.720771
0.736068
0.76105
0.769491
0.76483
0.748816
0.721798
0.716756
0.733653
0.769438
0.811812
0.864542
0.879552
0.862137
0.829701
0.793144
0.759035
0.716203
0.656811
0.619957
0.599605
0.603929
0.677135
0.767721
0.860074
0.188723
0.188549
0.188524
0.189191
0.189377
0.189299
0.189337
0.189502
0.189654
0.190067
0.190244
0.190528
0.190704
0.19071
0.190645
0.190679
0.19117
0.191418
0.190991
0.189915
0.18973
0.189924
0.190372
0.190538
0.19066
0.191064
0.191917
0.192178
0.192139
0.192143
0.192215
0.1924
0.192828
0.193142
0.193214
0.193186
0.193172
0.193289
0.193646
0.193768
0.19378
0.193732
0.193507
0.193123
0.192945
0.192995
0.193018
0.192924
0.19292
0.19296
0.19301
0.193165
0.193493
0.19392
0.194149
0.215263
0.320276
0.528755
0.727017
0.865453
0.888958
0.882803
0.851953
0.807696
0.768279
0.738967
0.728151
0.72019
0.725946
0.745821
0.760259
0.77552
0.788048
0.770159
0.733489
0.727395
0.734723
0.751839
0.759881
0.7583
0.749616
0.732239
0.733223
0.753088
0.78522
0.828176
0.881744
0.886118
0.862243
0.833058
0.797718
0.766038
0.725886
0.667516
0.631775
0.61101
0.615657
0.667834
0.726191
0.802797
0.187823
0.187775
0.187732
0.187734
0.187892
0.188329
0.189482
0.189708
0.189671
0.189743
0.19001
0.190042
0.189902
0.189851
0.189946
0.190088
0.190194
0.190282
0.190222
0.189839
0.189624
0.189703
0.189918
0.189968
0.190088
0.190452
0.191265
0.191925
0.192049
0.192102
0.192187
0.192358
0.192714
0.193058
0.193212
0.193199
0.193217
0.193376
0.193671
0.193711
0.193691
0.193642
0.19342
0.192903
0.19263
0.192684
0.192677
0.192615
0.19272
0.192895
0.192987
0.19311
0.193421
0.193932
0.194459
0.195426
0.196201
0.201413
0.281191
0.480998
0.707965
0.843267
0.841658
0.806257
0.776449
0.762032
0.758337
0.750585
0.74608
0.750267
0.74939
0.754226
0.766872
0.76805
0.745745
0.732126
0.732067
0.74133
0.750883
0.752571
0.74855
0.742724
0.750889
0.770359
0.800539
0.845911
0.897242
0.898685
0.871605
0.838445
0.803113
0.771442
0.737749
0.689907
0.645707
0.629819
0.638141
0.676944
0.719233
0.783514
0.187465
0.187521
0.187403
0.186866
0.186857
0.186956
0.187281
0.18814
0.188704
0.188973
0.189094
0.189077
0.189117
0.189134
0.189109
0.189161
0.189484
0.189607
0.189596
0.189499
0.189527
0.189642
0.189767
0.189723
0.18976
0.190017
0.19065
0.191414
0.191861
0.192145
0.192322
0.192453
0.192725
0.193059
0.193214
0.193245
0.193296
0.193511
0.193568
0.193496
0.193268
0.193159
0.192984
0.192546
0.192347
0.192414
0.192426
0.192325
0.192403
0.192756
0.192981
0.193148
0.193461
0.193997
0.194815
0.196245
0.197349
0.19739
0.197123
0.196782
0.260576
0.488531
0.759876
0.805615
0.796155
0.792098
0.78978
0.779241
0.763818
0.753892
0.746427
0.742937
0.747292
0.755761
0.750427
0.733659
0.729117
0.730312
0.742382
0.74722
0.748586
0.751355
0.761769
0.782772
0.814031
0.857904
0.907235
0.903139
0.873917
0.843106
0.809543
0.777813
0.741656
0.701444
0.675469
0.674409
0.674834
0.695351
0.734488
0.796149
0.187476
0.187526
0.187503
0.186788
0.18634
0.18635
0.186475
0.186766
0.186821
0.187051
0.187625
0.187835
0.187913
0.188157
0.188336
0.188271
0.188227
0.188389
0.188997
0.189398
0.189505
0.189689
0.189757
0.189629
0.189583
0.189737
0.190213
0.191017
0.191782
0.192222
0.192262
0.192245
0.192316
0.192805
0.193184
0.193232
0.193208
0.193163
0.193132
0.193049
0.192689
0.192409
0.192301
0.192164
0.192106
0.192174
0.192237
0.192128
0.192163
0.19244
0.192845
0.193167
0.193561
0.194235
0.195486
0.197169
0.197782
0.197773
0.197486
0.196204
0.195316
0.19643
0.291921
0.56947
0.766031
0.818775
0.821561
0.80727
0.787357
0.758977
0.749308
0.744269
0.740675
0.743745
0.744821
0.732148
0.72367
0.724486
0.733535
0.744155
0.750164
0.756883
0.76827
0.788924
0.821497
0.862836
0.906493
0.914611
0.887616
0.851155
0.815524
0.785561
0.751552
0.714118
0.698789
0.707558
0.727907
0.755118
0.774883
0.829115
0.185834
0.185784
0.185752
0.186063
0.186292
0.186294
0.186248
0.18627
0.186172
0.18587
0.185731
0.18575
0.186268
0.18723
0.187384
0.187404
0.187434
0.187539
0.18791
0.188445
0.189057
0.189586
0.189678
0.189527
0.189385
0.189462
0.189767
0.190434
0.191452
0.191925
0.191827
0.191678
0.191687
0.191838
0.192212
0.192299
0.192383
0.192458
0.192516
0.192534
0.192292
0.191797
0.191658
0.19171
0.191937
0.192088
0.192109
0.191998
0.192045
0.192319
0.192743
0.193173
0.19371
0.194675
0.196262
0.197916
0.198305
0.198131
0.197415
0.196201
0.195731
0.195848
0.196144
0.2149
0.378523
0.653993
0.810831
0.829283
0.815911
0.789514
0.762537
0.750412
0.7451
0.741916
0.74042
0.731339
0.720424
0.721872
0.728014
0.737926
0.749278
0.758814
0.769057
0.787795
0.822157
0.861189
0.89703
0.918134
0.897968
0.862681
0.8266
0.795006
0.760792
0.728462
0.726887
0.74331
0.769561
0.805073
0.838669
0.892877
0.184113
0.18431
0.18471
0.185016
0.185146
0.185194
0.185255
0.185564
0.185724
0.185633
0.18497
0.184672
0.184757
0.185565
0.186061
0.186089
0.186484
0.187254
0.187365
0.187407
0.187528
0.18798
0.188792
0.188975
0.188928
0.188963
0.189117
0.189403
0.189875
0.190397
0.190767
0.190737
0.190679
0.190755
0.191169
0.191269
0.191402
0.191504
0.191526
0.19165
0.191734
0.191582
0.191257
0.191261
0.191721
0.192096
0.192105
0.191967
0.192022
0.192331
0.192969
0.193576
0.194222
0.19523
0.196634
0.198165
0.198882
0.198753
0.198303
0.198407
0.198207
0.198031
0.198232
0.198366
0.198569
0.242697
0.438893
0.693104
0.813244
0.817829
0.796091
0.768731
0.753711
0.748002
0.744888
0.739047
0.728323
0.721726
0.724607
0.730763
0.743669
0.756062
0.766901
0.785083
0.817444
0.857245
0.894568
0.918204
0.907453
0.87616
0.842722
0.812612
0.777278
0.747113
0.752776
0.773816
0.80876
0.849746
0.890591
0.950646
0.18357
0.183663
0.184023
0.184402
0.184772
0.184907
0.184923
0.185107
0.185418
0.185424
0.185026
0.184397
0.184368
0.184591
0.185201
0.185416
0.185595
0.186214
0.186537
0.186487
0.186422
0.186587
0.187174
0.187917
0.188108
0.188129
0.188156
0.188246
0.188419
0.188743
0.189191
0.189541
0.189724
0.18983
0.190155
0.190814
0.191033
0.191046
0.190775
0.190738
0.191002
0.19114
0.191055
0.191066
0.191502
0.192074
0.192135
0.1922
0.192435
0.192978
0.193702
0.194555
0.19528
0.195934
0.196817
0.19821
0.19952
0.199776
0.1998
0.199923
0.199605
0.199311
0.199605
0.200754
0.201836
0.201657
0.202217
0.259933
0.459153
0.698886
0.798557
0.798158
0.777382
0.774823
0.768639
0.763132
0.749395
0.728951
0.722862
0.727237
0.737812
0.750892
0.76473
0.782325
0.809276
0.843227
0.881113
0.916256
0.921153
0.896691
0.863327
0.82946
0.792749
0.771791
0.780683
0.80374
0.842158
0.886864
0.933296
0.991074
0.183467
0.183524
0.184334
0.184522
0.184511
0.184546
0.184712
0.184681
0.184568
0.184484
0.184501
0.184429
0.184213
0.184213
0.184453
0.184726
0.184904
0.1853
0.18563
0.185629
0.185565
0.185736
0.186506
0.186926
0.186937
0.186949
0.187005
0.187184
0.187603
0.187886
0.188117
0.1885
0.188922
0.189212
0.189575
0.190467
0.190851
0.190881
0.190526
0.190319
0.190533
0.19085
0.190901
0.19099
0.191365
0.192103
0.193096
0.193856
0.194381
0.194678
0.194924
0.19583
0.196481
0.197175
0.198189
0.199338
0.200001
0.199867
0.199875
0.200173
0.200167
0.200171
0.201112
0.203715
0.207336
0.209853
0.209431
0.209311
0.210256
0.269138
0.449844
0.661888
0.76868
0.799277
0.805131
0.801804
0.784466
0.755486
0.735159
0.73428
0.741614
0.751397
0.763077
0.778936
0.798877
0.823953
0.864983
0.912925
0.929187
0.914269
0.882794
0.844688
0.807583
0.79501
0.804287
0.828309
0.867241
0.909936
0.95323
1.00145
0.18361
0.183749
0.184433
0.184528
0.184489
0.184522
0.184636
0.184542
0.184037
0.183956
0.1841
0.184268
0.184244
0.184043
0.184051
0.184162
0.18431
0.184685
0.185186
0.185296
0.18528
0.185353
0.186034
0.186752
0.186791
0.186584
0.186479
0.186543
0.187212
0.187625
0.187759
0.187993
0.188466
0.188955
0.189412
0.190259
0.190812
0.190912
0.190824
0.190432
0.190438
0.190591
0.190935
0.191652
0.19267
0.19405
0.195866
0.19742
0.197636
0.197264
0.197016
0.197354
0.197905
0.198479
0.199383
0.200137
0.199931
0.199497
0.199552
0.200196
0.201006
0.202474
0.205823
0.209562
0.212376
0.216015
0.218646
0.219698
0.220089
0.220646
0.222251
0.2648
0.408267
0.596819
0.734288
0.782677
0.795217
0.78737
0.771335
0.763612
0.762478
0.765004
0.769076
0.777919
0.792225
0.813905
0.857417
0.909887
0.926631
0.920597
0.896054
0.857415
0.824359
0.818472
0.8274
0.852388
0.888807
0.927839
0.965826
1.00818
0.184412
0.184404
0.184364
0.184355
0.184377
0.18441
0.184495
0.184275
0.183895
0.183989
0.184115
0.183905
0.183794
0.183871
0.184152
0.184271
0.184268
0.18427
0.184412
0.184931
0.185477
0.185635
0.185776
0.186166
0.187007
0.187238
0.187064
0.186961
0.187016
0.187398
0.187844
0.188332
0.188663
0.189074
0.189591
0.190465
0.19193
0.192738
0.192857
0.192708
0.192572
0.192941
0.194205
0.195649
0.19682
0.197984
0.19904
0.199662
0.199664
0.199278
0.199149
0.199285
0.199152
0.199048
0.199644
0.200319
0.200245
0.200203
0.201215
0.204318
0.208817
0.213872
0.218459
0.22001
0.220147
0.221897
0.225386
0.227253
0.22856
0.230447
0.233793
0.236579
0.239069
0.254364
0.332554
0.470907
0.621794
0.705003
0.725644
0.730241
0.744613
0.764558
0.776871
0.787957
0.805362
0.83128
0.875949
0.922112
0.932453
0.930067
0.910122
0.868057
0.833831
0.831855
0.842783
0.875367
0.917638
0.955767
0.99024
1.0274
0.18588
0.185987
0.186055
0.185981
0.185617
0.185434
0.185472
0.185649
0.185681
0.185489
0.1852
0.184731
0.184503
0.184729
0.18485
0.184995
0.185057
0.185087
0.185187
0.185535
0.186107
0.186619
0.186836
0.186989
0.187294
0.187958
0.188961
0.189776
0.190411
0.191312
0.191876
0.192139
0.192489
0.192877
0.193044
0.193281
0.194098
0.196232
0.197754
0.19787
0.197869
0.1982
0.199223
0.199468
0.199663
0.199864
0.199632
0.199489
0.199537
0.199483
0.199623
0.199744
0.19953
0.199868
0.201298
0.204141
0.207158
0.210734
0.215995
0.221466
0.225709
0.22928
0.23171
0.231601
0.23035
0.230312
0.232124
0.235041
0.237514
0.240669
0.2454
0.250138
0.255446
0.259804
0.259892
0.259189
0.272389
0.328217
0.411452
0.494092
0.566799
0.638282
0.703216
0.747614
0.775045
0.802757
0.840287
0.887504
0.920792
0.932256
0.921099
0.886193
0.854936
0.854291
0.868266
0.908206
0.956518
0.991337
1.01716
1.04169
0.187446
0.186759
0.186921
0.187061
0.187096
0.187127
0.18712
0.187101
0.187006
0.186908
0.186823
0.186611
0.186627
0.186914
0.187174
0.187578
0.18848
0.189386
0.18969
0.190361
0.191403
0.191813
0.192361
0.193849
0.194874
0.19544
0.196262
0.196624
0.196591
0.196874
0.198109
0.198788
0.198941
0.199359
0.199694
0.199439
0.199434
0.200362
0.201462
0.201694
0.202015
0.202094
0.201633
0.200677
0.200729
0.200629
0.19965
0.199379
0.19968
0.200676
0.202493
0.20544
0.209361
0.213989
0.219162
0.224123
0.228838
0.233568
0.237906
0.240055
0.240964
0.242231
0.24373
0.2432
0.241814
0.242085
0.24338
0.246393
0.250859
0.25589
0.260744
0.264898
0.268478
0.271847
0.274983
0.277366
0.278662
0.277717
0.274504
0.260065
0.25721
0.278281
0.331925
0.405645
0.480647
0.553742
0.607252
0.659297
0.721774
0.800249
0.867937
0.877735
0.875895
0.885767
0.910965
0.95216
0.99676
1.01847
1.03165
1.04517
0.197328
0.197792
0.198124
0.19822
0.197251
0.196393
0.196457
0.196462
0.196216
0.195983
0.195918
0.195844
0.196497
0.197286
0.197674
0.198179
0.199213
0.199778
0.199945
0.200677
0.200926
0.200911
0.201569
0.20216
0.202403
0.202935
0.2034
0.203274
0.203111
0.203368
0.204268
0.205113
0.205736
0.206156
0.20622
0.206044
0.205575
0.204847
0.203992
0.203861
0.204423
0.205607
0.205347
0.205363
0.206413
0.208694
0.211797
0.215002
0.218404
0.222865
0.228601
0.234004
0.238053
0.241725
0.244161
0.245808
0.247593
0.249404
0.250975
0.250818
0.250706
0.251273
0.253264
0.254391
0.25576
0.258108
0.261471
0.265615
0.270421
0.275341
0.2791
0.281932
0.284428
0.286996
0.289708
0.29276
0.293918
0.295078
0.295819
0.291175
0.276378
0.266571
0.267694
0.270908
0.276077
0.282791
0.292267
0.304515
0.325937
0.373326
0.474695
0.642824
0.789502
0.862721
0.908932
0.952749
0.996369
1.01377
1.03327
1.04678
0.209732
0.210574
0.210752
0.209377
0.208148
0.207946
0.20777
0.207801
0.207788
0.207292
0.207149
0.207113
0.207623
0.208043
0.208291
0.208716
0.209141
0.209058
0.208908
0.208589
0.207998
0.207648
0.207761
0.208538
0.209006
0.209066
0.209267
0.210034
0.211354
0.212235
0.211996
0.211499
0.211616
0.21229
0.213884
0.216328
0.218287
0.219659
0.220529
0.221589
0.223854
0.227332
0.230389
0.233284
0.236994
0.240662
0.243387
0.245413
0.247517
0.250005
0.25267
0.255281
0.256846
0.257488
0.257526
0.257572
0.257708
0.258062
0.258933
0.25894
0.259359
0.261051
0.264861
0.270577
0.276437
0.281392
0.285593
0.289554
0.29346
0.296596
0.298572
0.300002
0.302053
0.304566
0.307485
0.311409
0.314644
0.315847
0.31618
0.312916
0.297979
0.28202
0.281536
0.285198
0.291006
0.297637
0.302915
0.308958
0.31346
0.318258
0.321711
0.33827
0.412925
0.562086
0.724112
0.83593
0.928273
0.983577
1.01591
1.03293
0.222031
0.22183
0.221428
0.221383
0.221831
0.222496
0.222455
0.221764
0.221732
0.222043
0.224143
0.225535
0.225307
0.224949
0.225127
0.226595
0.227709
0.228473
0.229568
0.230084
0.230143
0.230508
0.231782
0.233209
0.233943
0.234084
0.234189
0.235165
0.237861
0.239405
0.239953
0.240654
0.242186
0.244471
0.24671
0.249876
0.253428
0.253886
0.253806
0.254376
0.256536
0.259234
0.259876
0.260106
0.260856
0.262508
0.263516
0.264025
0.264498
0.264936
0.265766
0.267144
0.267123
0.266897
0.267958
0.268844
0.269407
0.271096
0.275093
0.280484
0.285884
0.291541
0.297065
0.301816
0.305446
0.308027
0.31074
0.313344
0.314801
0.315959
0.317712
0.320146
0.32302
0.326124
0.329741
0.334718
0.33823
0.339005
0.33907
0.335516
0.320369
0.298462
0.293335
0.296868
0.301851
0.308166
0.312997
0.317047
0.321815
0.326156
0.331466
0.336284
0.341349
0.345536
0.3769
0.450226
0.556847
0.69719
0.799874
0.921927
0.251864
0.252051
0.252645
0.253618
0.254303
0.255021
0.255382
0.255462
0.255332
0.255239
0.255711
0.258245
0.25906
0.259117
0.259337
0.260023
0.260279
0.260252
0.260101
0.260385
0.261597
0.262455
0.263071
0.263913
0.264496
0.264787
0.265105
0.265872
0.267202
0.268299
0.268863
0.269331
0.270067
0.271131
0.272666
0.273223
0.272945
0.272951
0.273445
0.274898
0.27544
0.275041
0.274841
0.27521
0.276942
0.277266
0.27742
0.278119
0.280214
0.282009
0.283833
0.286405
0.289927
0.293976
0.298325
0.302911
0.307484
0.312452
0.317669
0.322179
0.326362
0.330085
0.332213
0.333716
0.333943
0.33386
0.334681
0.335897
0.335903
0.336478
0.338463
0.34179
0.345616
0.349318
0.353153
0.357501
0.360604
0.361504
0.361813
0.359472
0.346221
0.32111
0.308247
0.310177
0.314072
0.318731
0.324074
0.327465
0.331189
0.335742
0.341476
0.347198
0.352486
0.358026
0.364768
0.372473
0.380489
0.398596
0.435839
0.573367
0.282469
0.283426
0.28357
0.283641
0.283729
0.28406
0.284343
0.28437
0.284513
0.284702
0.284864
0.285086
0.285296
0.285332
0.285732
0.287126
0.287453
0.28708
0.286782
0.286936
0.287884
0.289645
0.290855
0.29124
0.29141
0.291684
0.292198
0.293059
0.294083
0.294786
0.295404
0.296095
0.296746
0.297572
0.29897
0.300942
0.301479
0.302052
0.303131
0.30485
0.306769
0.308336
0.309738
0.311645
0.314105
0.316803
0.319602
0.322401
0.325179
0.328229
0.331609
0.334899
0.337479
0.339769
0.342333
0.344807
0.347031
0.348729
0.350407
0.351755
0.353074
0.354705
0.354955
0.35527
0.356316
0.357021
0.358156
0.359987
0.361361
0.362947
0.365529
0.369193
0.373017
0.376397
0.379571
0.382767
0.385144
0.385875
0.385977
0.383324
0.370033
0.342917
0.321892
0.320899
0.324814
0.329338
0.334656
0.339212
0.342559
0.346231
0.350292
0.356375
0.363483
0.370718
0.378416
0.387424
0.39602
0.407256
0.417845
0.43853
0.321995
0.322714
0.323161
0.323289
0.323733
0.324254
0.324233
0.324469
0.325175
0.325616
0.326557
0.327525
0.32759
0.327797
0.328743
0.329942
0.330195
0.330257
0.330341
0.330496
0.331136
0.332672
0.334183
0.335193
0.336169
0.336329
0.336505
0.337005
0.338095
0.339817
0.341042
0.341733
0.342525
0.344036
0.345788
0.347069
0.348098
0.34943
0.350583
0.351634
0.352934
0.354336
0.355485
0.356397
0.357505
0.358849
0.360217
0.361804
0.363284
0.364511
0.365795
0.366191
0.366526
0.367328
0.368051
0.369146
0.370238
0.370948
0.372321
0.373158
0.373677
0.375065
0.377545
0.380237
0.382656
0.384879
0.387026
0.389637
0.392827
0.396037
0.398722
0.400884
0.402858
0.404831
0.406945
0.409106
0.410521
0.410861
0.410596
0.406923
0.39251
0.363019
0.336344
0.331562
0.334534
0.339036
0.343554
0.348586
0.353128
0.358099
0.363201
0.368677
0.376503
0.385302
0.393248
0.4031
0.413511
0.424556
0.435185
0.457062
0.367383
0.36746
0.368395
0.369699
0.370568
0.370666
0.370409
0.369514
0.369513
0.370498
0.371802
0.372912
0.37397
0.374138
0.374059
0.373866
0.373921
0.37555
0.376561
0.376957
0.377229
0.377363
0.377752
0.378548
0.379227
0.379774
0.380288
0.380747
0.38127
0.381771
0.382215
0.382741
0.383814
0.384418
0.38476
0.38512
0.385811
0.386506
0.387295
0.388197
0.389128
0.389989
0.390764
0.39172
0.392776
0.39332
0.393751
0.394618
0.395557
0.396352
0.397217
0.398326
0.399444
0.40047
0.401758
0.403075
0.404509
0.406193
0.408036
0.410001
0.411993
0.413739
0.415271
0.416792
0.418352
0.41996
0.421322
0.422463
0.42377
0.424885
0.425689
0.4263
0.426995
0.427947
0.42912
0.430332
0.430992
0.431035
0.430098
0.425201
0.409896
0.379053
0.34899
0.341102
0.343066
0.347976
0.353231
0.35889
0.36543
0.372317
0.38013
0.387442
0.394489
0.402971
0.411563
0.420277
0.431944
0.444071
0.454999
0.477051
0.410299
0.410653
0.411409
0.41209
0.412098
0.41195
0.41225
0.412539
0.412511
0.41238
0.412554
0.414546
0.415553
0.415566
0.415609
0.415916
0.41601
0.416273
0.417187
0.41757
0.417584
0.417875
0.418446
0.418481
0.418407
0.418434
0.418946
0.419076
0.419073
0.418924
0.41884
0.418958
0.419411
0.420023
0.420175
0.42021
0.420346
0.420779
0.421459
0.422251
0.422704
0.423043
0.423432
0.423912
0.424618
0.425423
0.426153
0.426858
0.427706
0.428577
0.429268
0.430021
0.430771
0.431248
0.431759
0.432359
0.432932
0.433566
0.434311
0.43505
0.435756
0.43638
0.436768
0.437055
0.43758
0.438652
0.438918
0.439004
0.439757
0.440467
0.441056
0.441752
0.442367
0.44304
0.443972
0.444468
0.444529
0.444208
0.442451
0.436859
0.421939
0.391786
0.36018
0.351223
0.353079
0.358148
0.364499
0.371337
0.378745
0.385463
0.39271
0.401371
0.408766
0.417415
0.427976
0.437822
0.44903
0.463185
0.475821
0.499825
0.431181
0.431696
0.43188
0.431871
0.431873
0.431721
0.431662
0.431681
0.431666
0.431536
0.431561
0.431876
0.43263
0.433614
0.434136
0.434185
0.434175
0.434237
0.434641
0.434928
0.434986
0.435103
0.435412
0.435495
0.435495
0.435557
0.435765
0.43619
0.436276
0.436112
0.43548
0.435369
0.435507
0.435908
0.436266
0.436326
0.436277
0.436339
0.436624
0.437495
0.43836
0.438491
0.438624
0.439032
0.439672
0.440489
0.441264
0.441855
0.442576
0.44339
0.443965
0.444674
0.445259
0.44548
0.445882
0.44647
0.446531
0.446532
0.446863
0.44746
0.448031
0.448628
0.449199
0.449517
0.449872
0.450541
0.450975
0.451089
0.451293
0.451869
0.452807
0.453519
0.453982
0.454213
0.454276
0.454201
0.453634
0.452202
0.44937
0.443091
0.428739
0.40108
0.369104
0.356883
0.35765
0.361578
0.367933
0.375718
0.38405
0.392876
0.401034
0.410572
0.421271
0.431154
0.44341
0.457424
0.470011
0.484413
0.498639
0.524308
0.432303
0.432631
0.432642
0.432598
0.43244
0.432381
0.432353
0.432452
0.432636
0.432731
0.432771
0.432753
0.432645
0.432621
0.432588
0.432621
0.432789
0.433114
0.433617
0.434288
0.434658
0.434771
0.435118
0.437153
0.439025
0.439175
0.439206
0.439402
0.439727
0.439809
0.439699
0.43924
0.439192
0.439482
0.440309
0.440487
0.440399
0.440501
0.440947
0.441766
0.443152
0.443558
0.443492
0.44366
0.444292
0.445236
0.44626
0.44697
0.44756
0.448373
0.44963
0.450098
0.450387
0.450922
0.45195
0.452397
0.452853
0.453484
0.45426
0.454898
0.455459
0.456003
0.456768
0.457611
0.458251
0.458721
0.458921
0.458921
0.458536
0.458577
0.458886
0.45904
0.459131
0.459126
0.458993
0.458531
0.457494
0.455485
0.452046
0.445571
0.432751
0.410897
0.382221
0.3636
0.361728
0.363858
0.36932
0.377849
0.387707
0.399286
0.411588
0.423016
0.436681
0.450653
0.463579
0.478936
0.495181
0.511032
0.526064
0.554498
0.431815
0.43171
0.431205
0.431172
0.431239
0.431569
0.431695
0.431814
0.432216
0.432879
0.433032
0.432978
0.432882
0.432898
0.433206
0.433439
0.433309
0.433221
0.433401
0.434036
0.434539
0.434776
0.435574
0.437186
0.438952
0.440645
0.441209
0.441254
0.441066
0.441125
0.441577
0.441721
0.441679
0.441848
0.442552
0.443932
0.444428
0.444657
0.44502
0.445633
0.446745
0.448696
0.449621
0.449836
0.450237
0.450936
0.452022
0.452857
0.453532
0.454146
0.454848
0.455694
0.456493
0.457168
0.457898
0.458813
0.459761
0.460451
0.461522
0.462596
0.462772
0.463053
0.463642
0.464555
0.465945
0.466804
0.467016
0.467001
0.466968
0.467344
0.467544
0.466764
0.464924
0.463596
0.46289
0.462384
0.461692
0.460176
0.456786
0.450619
0.441801
0.42995
0.414334
0.398999
0.393541
0.394621
0.398994
0.407309
0.419344
0.432274
0.445781
0.459499
0.471503
0.485072
0.499256
0.512231
0.526797