/*--------------------------------*- C++ -*----------------------------------*\
  =========                 |
  \\      /  F ield         | OpenFOAM: The Open Source CFD Toolbox
   \\    /   O peration     | Website:  https://openfoam.org
    \\  /    A nd           | Version:  7
     \\/     M anipulation  |
\*---------------------------------------------------------------------------*/
FoamFile
{
    version     2.0;
    format      ascii;
    class       volScalarField;
    location    "4.8";
    object      T;
}
// * * * * * * * * * * * * * * * * * * * * * * * * * * * * * * * * * * * * * //

dimensions      [0 0 0 1 0 0 0];

internalField   nonuniform List<scalar> 
1750
(
1.31629
1.47095
1.45731
1.4437
1.42287
1.43046
1.45123
1.46628
1.45859
1.44692
0.428269
0.796228
1.40918
1.76106
1.79177
1.76472
1.7289
1.66535
1.61581
1.56222
0.358224
0.361851
0.407201
0.826153
1.20347
1.40924
1.51596
1.56123
1.56483
1.54538
0.392494
0.405219
0.438817
0.459854
0.468121
0.563204
0.769189
1.00824
1.16286
1.2563
0.486364
0.492635
0.508035
0.527445
0.540519
0.537259
0.546475
0.552784
0.614694
0.819438
0.577975
0.578074
0.579692
0.593244
0.606096
0.615262
0.62052
0.630537
0.636044
0.641777
0.691744
0.691526
0.691435
0.689663
0.691408
0.694487
0.697945
0.700987
0.700231
0.695227
0.825519
0.812429
0.80426
0.797552
0.788835
0.778143
0.769772
0.760961
0.753428
0.746498
0.958481
0.942913
0.925668
0.909787
0.894161
0.877119
0.86307
0.848789
0.837603
0.821565
1.03011
1.02339
1.01393
1.00276
0.989829
0.974825
0.957602
0.9401
0.923224
0.896482
1.03829
1.03775
1.03644
1.03479
1.03253
1.02854
1.02202
1.01264
1.00155
0.978381
1.02583
1.02843
1.03013
1.03149
1.0317
1.03165
1.03139
1.03058
1.02912
1.02278
1.00589
1.00809
1.01077
1.01383
1.01709
1.02021
1.02304
1.02501
1.02675
1.02648
1.00029
1.00051
1.00089
1.00153
1.00258
1.00413
1.0063
1.00905
1.01212
1.017
1
1.00001
1.00002
1.00004
1.00009
1.00019
1.00041
1.00085
1.00157
1.0042
0.525282
0.433517
0.36989
0.388729
0.482165
0.575035
0.691258
0.835575
0.971541
1.03426
1.03836
1.02319
1.00425
1.00019
1
0.527771
0.424615
0.365159
0.429032
0.508017
0.61026
0.738287
0.886607
1.00511
1.0414
1.03781
1.01795
1.00222
1.00007
1
0.520373
0.416715
0.364468
0.446415
0.517862
0.6335
0.7788
0.929192
1.02456
1.04336
1.03554
1.01336
1.00123
1.00003
1
0.506133
0.405028
0.379862
0.452453
0.548767
0.681618
0.836587
0.968655
1.03697
1.04404
1.03256
1.00876
1.00054
1.00001
1
0.48257
0.372019
0.398142
0.451931
0.591726
0.747801
0.886348
0.999086
1.0444
1.0442
1.02646
1.00478
1.00022
1
1
0.473583
0.355852
0.402156
0.509369
0.66064
0.796868
0.932049
1.02554
1.04808
1.04295
1.01913
1.00253
1.00009
1
1
0.498953
0.408599
0.406262
0.562907
0.706848
0.847146
0.979689
1.04345
1.04971
1.03839
1.0129
1.00114
1.00003
1
1
0.516255
0.417592
0.458524
0.621593
0.772414
0.91617
1.01851
1.05171
1.05029
1.0318
1.00695
1.00039
1.00001
1
1
0.51868
0.437669
0.540886
0.691446
0.845826
0.974337
1.04263
1.05471
1.04871
1.02193
1.00301
1.00013
1
1
1
0.528664
0.484025
0.613802
0.787559
0.926431
1.01821
1.05571
1.05551
1.04061
1.01232
1.0011
1.00003
1
1
1
0.452446
0.532258
0.708488
0.87274
0.988471
1.04797
1.05993
1.05539
1.02897
1.00567
1.00033
1.00001
1
1
1
0.106238
0.565829
0.826102
0.957994
1.0335
1.06103
1.0608
1.04523
1.01606
1.00184
1.00008
1
1
1
1
0.242827
0.713008
0.913304
1.01713
1.05898
1.06377
1.05784
1.03135
1.00669
1.00046
1.00001
1
1
1
1
0.483332
0.830806
1.00096
1.05323
1.06745
1.06405
1.04517
1.01589
1.00193
1.00009
1
1
1
1
1
0.835519
0.997517
1.05412
1.06622
1.06863
1.0556
1.02776
1.00544
1.00039
1.00001
1
1
1
1
1
1.0665
1.06791
1.06877
1.06794
1.06512
1.03998
1.00951
1.00036
1.00001
1
1
1
1
1
1
1.06615
1.06819
1.06923
1.0664
1.06162
1.03579
1.00838
1.0008
1.00003
1
1
1
1
1
1
1.06596
1.06928
1.07042
1.06574
1.05358
1.02187
1.00301
1.00011
1
1
1
1
1
1
1
1.06626
1.07082
1.07101
1.06319
1.04437
1.01335
1.00119
1.00004
1
1
1
1
1
1
1
1.06747
1.0719
1.07135
1.0605
1.03238
1.00612
1.00036
1.00001
1
1
1
1
1
1
1
1.06866
1.07201
1.07099
1.05138
1.01979
1.00265
1.00011
1
1
1
1
1
1
1
1
1.0707
1.07002
1.06637
1.03945
1.01058
1.00086
1.00003
1
1
1
1
1
1
1
1
1.07765
1.06575
1.0589
1.02664
1.0047
1.00026
1.00001
1
1
1
1
1
1
1
1
1.08366
1.06195
1.0458
1.01435
1.0016
1.00007
1
1
1
1
1
1
1
1
1
1.08612
1.05535
1.0306
1.00677
1.00052
1.00001
1
1
1
1
1
1
1
1
1
1.08542
1.04516
1.01817
1.00254
1.00012
1
1
1
1
1
1
1
1
1
1
1.07654
1.03289
1.00847
1.00074
1.00003
1
1
1
1
1
1
1
1
1
1
1.06224
1.0206
1.00331
1.00017
1
1
1
1
1
1
1
1
1
1
1
1.04285
1.00982
1.00083
1.00003
1
1
1
1
1
1
1
1
1
1
1
1.01977
1.00259
1.00011
1
1
1
1
1
1
1
1
1
1
1
1
1
1
1
1
1
1
1
1
1
1
1
1
1
1
1
1
1
1
1
1
1
1
1
1
1
1
1
1
1
1
1
1
1
1
1
1
1
1
1
1
1
1
1
1
1
1
1
1
1
1
1
1
1
1
1
1
1
1
1
1
1
1
1
1
1
1
1
1
1
1
1
1
1
1
1
1
1
1
1
1
1
1
1
1
1
1
1
1
1
1
1
1
1
1
1
1
1
1
1
1
1
1
1
1
1
1
1
1
1
1
1
1
1
1
1
1
1
1
1
1
1
1
1
1
1
1
1
1
1
1
1
1
1
1
1
1
1
1
1
1
1
1
1
1
1
1
1
1
1
1
1
1
1
1
1
1
1
1
1
1
1
1
1
1
1
1
1
1
1
1
1
1
1
1
1
1
1
1
1
1
1
1
1
1
1
1
1
1
1
1
1
1
1
1
1
1
1
1
1
1
1
1
1
1
1
1
1
1
1
1
1
1
1
1
1
1
1
1
1
1
1
1
1
1
1
1
1
1
1
1
1
1
1
1
1
1
1
1
1
1
1
1
1
1
1
1
1
1
1
1
1
1
1
1
1
1
1
1
1
1
1
1
1
1
1
1
1
1
1
1
1
1
1
1
1
1
1
1
1
1
1
1
1
1
1
1
1
1
1
1
1
1
1
1
1
1
1
1
1
1
1
1
1
1
1
1
1
1
1
1
1
1
1
1
1
1
1
1
1
1
1
1
1
1
1
1
1
1
1
1
1
1
1
1
1
1
1
1
1
1
1
1
1
1
1
1
1
1
1
1
1.2503
0.999998
1
1
1
1
1
1
1
1
1
1
1
1
1
1
1
1
1
1
2.18825
1.8626
1.21729
0.999999
1
1
1
1
1
1
1
1
1
1
1
1
1
1
1
1
2.4088
2.30207
2.36459
1.81573
1.04279
1
1
1
1
1
1
1
1
1
1
1
1
1
1
1
2.30758
2.26261
2.33756
2.31864
2.0186
1.18396
0.999832
1
1
1
1
1
1
1
1
1
1
1
1
1
2.2466
2.23621
2.2725
2.29133
2.30474
2.01561
1.21985
0.999511
1
1
1
1
1
1
1
1
1
1
1
1
2.21542
2.21985
2.2541
2.2806
2.2966
2.25286
1.93188
1.16722
0.999468
1
1
1
1
1
1
1
1
1
1
1
2.2116
2.22253
2.25209
2.27328
2.28239
2.25514
2.15533
1.73757
1.06167
0.999765
1
1
1
1
1
1
1
1
1
1
2.21456
2.22615
2.24741
2.26612
2.27072
2.2545
2.23219
2.12511
1.59521
1.01123
1
1
1
1
1
1
1
1
1
1
2.21433
2.22342
2.23917
2.25643
2.25968
2.25084
2.22581
2.18335
2.02645
1.39795
0.998607
1
1
1
1
1
1
1
1
1
2.21043
2.21488
2.22842
2.24538
2.24986
2.24521
2.22595
2.19554
2.15004
1.87411
1.14961
0.999368
1
1
1
1
1
1
1
1
2.20171
2.2028
2.21658
2.23414
2.23992
2.23675
2.2194
2.18734
2.15812
2.11522
1.64817
1.02449
1
1
1
1
1
1
1
1
2.19169
2.19222
2.20604
2.22294
2.22885
2.22571
2.20866
2.17789
2.15178
2.11443
1.96665
1.32108
0.998935
1.00001
1
1
1
1
1
1
2.18431
2.18527
2.19801
2.21227
2.21771
2.21371
2.19705
2.16894
2.14422
2.11227
2.07916
1.74176
1.0689
0.999693
0.999997
1
1
1
1
1
2.17733
2.17697
2.18715
2.19994
2.205
2.20378
2.19135
2.16876
2.14172
2.11438
2.10594
1.99177
1.40972
1.00244
0.999999
1
1
1
1
1
2.17322
2.17591
2.18668
2.19512
2.19689
2.19284
2.18127
2.16394
2.13833
2.11336
2.09858
2.04801
1.74592
1.05171
0.99793
0.99997
1
1
1
1
1.60887
1.8289
1.91389
1.98063
2.03787
2.07418
2.09753
2.10506
2.09936
2.08552
2.07801
2.0655
2.01753
1.60016
1.06985
1.0008
1
1
1
1
1.20616
1.56991
1.6789
1.76595
1.84135
1.91731
1.96937
2.00978
2.02496
2.02674
2.0289
2.04151
2.03854
1.97055
1.48086
1.03697
1.00035
1
1
1
1.1883
1.37008
1.4814
1.59616
1.68353
1.76758
1.84141
1.90181
1.94108
1.95563
1.96788
1.98848
2.01387
1.99082
1.84217
1.2915
1.0106
1.00007
1
1
1.25145
1.28834
1.30567
1.41158
1.54075
1.63297
1.72586
1.79012
1.8524
1.87755
1.90351
1.92631
1.96173
1.96109
1.94641
1.65401
1.12093
1.00205
1.00001
1
1.31385
1.24344
1.21872
1.29947
1.40594
1.50923
1.61246
1.69278
1.75594
1.80408
1.83407
1.86319
1.8872
1.91842
1.93199
1.84041
1.38645
1.02325
1.00018
1
1.3381
1.25015
1.20238
1.25515
1.32856
1.4232
1.51147
1.60864
1.67124
1.73855
1.77497
1.81253
1.82786
1.85837
1.90118
1.88068
1.64634
1.14379
1.00267
1.00001
1.33463
1.25923
1.20841
1.21753
1.25634
1.35255
1.43281
1.52693
1.59928
1.66864
1.72151
1.75839
1.78585
1.80697
1.85935
1.87021
1.76381
1.35318
1.02276
1.00017
1.33546
1.28457
1.2307
1.20492
1.19393
1.25886
1.35308
1.43409
1.52642
1.58933
1.66038
1.69089
1.73209
1.75614
1.80702
1.84884
1.81316
1.54668
1.09844
1.00161
1.33951
1.30329
1.2496
1.20596
1.19104
1.2311
1.29937
1.37029
1.46301
1.53446
1.59803
1.63942
1.67127
1.70484
1.75232
1.81153
1.80791
1.69642
1.2676
1.01145
1.3329
1.30045
1.24795
1.20397
1.18838
1.21648
1.26671
1.33491
1.41515
1.49502
1.55343
1.60239
1.63062
1.66778
1.71248
1.76991
1.79185
1.72761
1.43301
1.05525
1.31875
1.29133
1.23922
1.1978
1.18646
1.19838
1.22792
1.29791
1.36317
1.4485
1.50634
1.55914
1.59195
1.62777
1.669
1.71824
1.76646
1.72693
1.52767
1.13967
1.30706
1.2818
1.23756
1.20173
1.19027
1.18841
1.19257
1.24668
1.30593
1.37985
1.44602
1.49976
1.5418
1.58027
1.61859
1.66827
1.73198
1.72277
1.61005
1.27425
1.2991
1.27845
1.24302
1.21308
1.19618
1.18656
1.18659
1.2313
1.28288
1.33633
1.40536
1.45573
1.5049
1.54566
1.58842
1.63674
1.69742
1.71528
1.65155
1.42317
1.29283
1.27543
1.24699
1.21581
1.19422
1.18224
1.18246
1.21937
1.26762
1.31687
1.37816
1.42719
1.4745
1.51864
1.56039
1.60481
1.65806
1.69788
1.64746
1.54478
1.2879
1.27414
1.24624
1.215
1.19033
1.1764
1.17534
1.19877
1.24046
1.28891
1.34044
1.39159
1.43442
1.4837
1.5258
1.56628
1.61989
1.67272
1.64773
1.64684
1.28041
1.26253
1.2394
1.21142
1.18907
1.17645
1.17544
1.18517
1.20718
1.25595
1.29227
1.35017
1.39171
1.43998
1.49255
1.53751
1.58613
1.64409
1.6572
1.72049
1.25623
1.23411
1.22761
1.21068
1.19054
1.17993
1.18027
1.18254
1.1916
1.23242
1.26752
1.31349
1.3679
1.41097
1.46124
1.51125
1.55376
1.61128
1.67482
1.78085
1.21579
1.19624
1.20574
1.20589
1.19474
1.18634
1.18147
1.17581
1.17902
1.20788
1.2504
1.28809
1.34129
1.38484
1.42892
1.47669
1.51838
1.57224
1.67432
1.83811
1.18238
1.15982
1.1745
1.19092
1.1936
1.18621
1.17829
1.16691
1.16927
1.18133
1.22317
1.26272
1.30419
1.35067
1.39416
1.44226
1.48787
1.5431
1.67038
1.88273
1.16317
1.12782
1.13178
1.16419
1.18616
1.18256
1.17566
1.16638
1.16765
1.17326
1.19171
1.23224
1.27198
1.31605
1.36156
1.40957
1.4532
1.51559
1.67127
1.91971
1.16491
1.10066
1.0916
1.13544
1.16816
1.17591
1.17239
1.1659
1.1649
1.16672
1.16846
1.20038
1.2415
1.2828
1.32777
1.37781
1.41906
1.4915
1.6647
1.93353
1.1776
1.09384
1.07517
1.10368
1.1392
1.16015
1.16331
1.15955
1.15947
1.15673
1.15227
1.17105
1.20584
1.2505
1.29075
1.3396
1.38658
1.47616
1.66406
1.93763
1.22566
1.12041
1.08251
1.0822
1.10055
1.13464
1.15108
1.15046
1.14937
1.14287
1.13665
1.1501
1.1742
1.21459
1.2555
1.30298
1.35408
1.46329
1.65218
1.92829
1.26524
1.15621
1.09503
1.06942
1.06885
1.1023
1.13193
1.14195
1.13857
1.1303
1.12516
1.13712
1.15045
1.18365
1.22468
1.2711
1.32536
1.46046
1.63618
1.89834
1.30259
1.20117
1.14438
1.09402
1.06555
1.07251
1.09206
1.11388
1.11693
1.11034
1.10713
1.10976
1.11253
1.13999
1.17687
1.22477
1.30286
1.47127
1.60064
1.83027
)
;

boundaryField
{
    inlet
    {
        type            fixedValue;
        value           uniform 1;
    }
    outlet
    {
        type            inletOutlet;
        inletValue      uniform 1;
        value           nonuniform List<scalar> 
35
(
1.3025
1.20095
1.14405
1.09364
1.0652
1.07223
1.0919
1.1137
1.11667
1.10999
1.10669
1.10941
1.11226
1.13978
1.17672
1.22456
1.30223
1.46996
1.59978
1.82962
1.44674
1.5621
1.54505
1.25535
0.81841
0.641725
0.695144
0.746554
0.821562
0.896467
0.978375
1.02278
1.02648
1.017
1.0042
)
;
    }
    airfoil
    {
        type            zeroGradient;
    }
    top
    {
        type            symmetryPlane;
    }
    bottom
    {
        type            symmetryPlane;
    }
    defaultFaces
    {
        type            empty;
    }
}


// ************************************************************************* //
