/*--------------------------------*- C++ -*----------------------------------*\
  =========                 |
  \\      /  F ield         | OpenFOAM: The Open Source CFD Toolbox
   \\    /   O peration     | Website:  https://openfoam.org
    \\  /    A nd           | Version:  7
     \\/     M anipulation  |
\*---------------------------------------------------------------------------*/
FoamFile
{
    version     2.0;
    format      ascii;
    class       volVectorField;
    location    "10";
    object      U;
}
// * * * * * * * * * * * * * * * * * * * * * * * * * * * * * * * * * * * * * //

dimensions      [0 1 -1 0 0 0 0];

internalField   nonuniform List<vector> 
32400
(
(3.08631 -0.2911 0)
(3.08132 -0.269366 0)
(3.07695 -0.249433 0)
(3.07238 -0.228696 0)
(3.06889 -0.213217 0)
(3.06476 -0.195106 0)
(3.06175 -0.183353 0)
(3.05766 -0.166637 0)
(3.05491 -0.157611 0)
(3.05067 -0.141519 0)
(3.04806 -0.134337 0)
(3.04358 -0.118616 0)
(3.0411 -0.112303 0)
(3.03651 -0.097297 0)
(3.03409 -0.0907967 0)
(3.02953 -0.0770704 0)
(3.02715 -0.0697426 0)
(3.0225 -0.0562846 0)
(3.02163 -0.0503722 0)
(3.0154 -0.0355259 0)
(3.0151 -0.0284628 0)
(3.01173 -0.0188105 0)
(3.00831 -0.0109821 0)
(3.00678 -0.00494912 0)
(3.00392 -0.000309044 0)
(3.00047 0.00519532 0)
(3.00083 0.00977003 0)
(2.99814 0.00567954 0)
(2.9961 0.00320738 0)
(2.99444 0.000872379 0)
(2.99309 -0.00199569 0)
(2.9919 -0.00274409 0)
(2.99142 -0.00263701 0)
(2.99152 -4.60634e-05 0)
(2.99262 0.0013445 0)
(2.99416 0.00190173 0)
(2.99462 0.00212972 0)
(2.99526 0.000797696 0)
(2.99489 -0.000230749 0)
(2.99396 -0.00210302 0)
(2.99298 -0.00102819 0)
(2.99306 -0.000456473 0)
(2.99333 0.00047766 0)
(2.99363 0.000441067 0)
(2.99352 5.42583e-05 0)
(2.99314 -0.00109624 0)
(2.99295 -0.000295791 0)
(2.99299 0.000109372 0)
(2.99299 0.000265707 0)
(2.99294 0.000141904 0)
(2.99289 -4.82141e-05 0)
(2.99281 -1.77575e-05 0)
(2.99267 1.47424e-05 0)
(2.99253 -0.000255398 0)
(2.99224 2.44043e-05 0)
(2.99222 9.89843e-05 0)
(2.99217 5.62162e-05 0)
(2.992 -4.98311e-05 0)
(2.99185 -0.000286449 0)
(2.99167 -1.29999e-05 0)
(3.0891 -0.30825 0)
(3.08776 -0.307443 0)
(3.08559 -0.305883 0)
(3.08259 -0.302916 0)
(3.07917 -0.299148 0)
(3.07504 -0.292996 0)
(3.07096 -0.28653 0)
(3.06608 -0.276429 0)
(3.06172 -0.266941 0)
(3.05617 -0.252478 0)
(3.05168 -0.239813 0)
(3.04562 -0.22094 0)
(3.04135 -0.205534 0)
(3.03483 -0.18196 0)
(3.03151 -0.165709 0)
(3.02429 -0.13665 0)
(3.02268 -0.122036 0)
(3.01475 -0.0892604 0)
(3.01413 -0.0755146 0)
(3.00677 -0.0458987 0)
(3.00538 -0.0302889 0)
(3.00057 -0.00793125 0)
(2.99706 0.0067516 0)
(2.99438 0.0193698 0)
(2.99166 0.0301412 0)
(2.99011 0.0290372 0)
(2.99067 0.0236028 0)
(2.98927 0.01045 0)
(2.99166 0.00418739 0)
(2.993 -0.00115673 0)
(2.99325 -0.0036582 0)
(2.99404 -0.00452487 0)
(2.99401 -0.00315195 0)
(2.99454 0.000674774 0)
(2.99446 0.00462554 0)
(2.99427 0.00543895 0)
(2.99393 0.00441604 0)
(2.99333 0.0012414 0)
(2.99307 -0.00231684 0)
(2.99299 -0.00377608 0)
(2.99322 -0.00210796 0)
(2.99309 0.000181886 0)
(2.99305 0.00240008 0)
(2.99288 0.00154487 0)
(2.99256 -0.000802263 0)
(2.99256 -0.00147629 0)
(2.9928 -0.000596061 0)
(2.99272 0.000924925 0)
(2.99251 0.00072241 0)
(2.99239 0.000216631 0)
(2.99247 -0.000252995 0)
(2.99241 -7.87532e-05 0)
(2.99224 -0.000178365 0)
(2.99209 -0.000118339 0)
(2.99187 0.000238133 0)
(2.99186 0.00030412 0)
(2.99181 0.000123347 0)
(2.99168 -0.000248592 0)
(2.99152 2.48546e-05 0)
(2.99137 0.000150575 0)
(3.08643 -0.308645 0)
(3.08634 -0.308598 0)
(3.08623 -0.308508 0)
(3.08609 -0.308404 0)
(3.08592 -0.308243 0)
(3.08567 -0.308055 0)
(3.08529 -0.307733 0)
(3.08471 -0.307327 0)
(3.08396 -0.306608 0)
(3.08301 -0.305507 0)
(3.08182 -0.303803 0)
(3.08027 -0.301267 0)
(3.07839 -0.297815 0)
(3.07584 -0.29241 0)
(3.0731 -0.28607 0)
(3.06929 -0.275744 0)
(3.06553 -0.265417 0)
(3.05985 -0.247829 0)
(3.05541 -0.233804 0)
(3.04761 -0.20637 0)
(3.04354 -0.190906 0)
(3.03431 -0.154945 0)
(3.03123 -0.140658 0)
(3.02234 -0.103368 0)
(3.02174 -0.0923996 0)
(3.0146 -0.0637057 0)
(3.0188 -0.0543837 0)
(3.00461 -0.0309768 0)
(3.00459 -0.0221526 0)
(2.99985 -0.0133937 0)
(2.99959 -0.00760804 0)
(2.99876 -0.00173713 0)
(2.99563 0.00296575 0)
(2.99451 0.00769326 0)
(2.99276 0.00765334 0)
(2.99077 0.00389578 0)
(2.99042 0.00187568 0)
(2.98962 -0.00383055 0)
(2.99034 -0.00445346 0)
(2.99168 -0.00356151 0)
(2.99259 -0.00127286 0)
(2.99271 0.0020679 0)
(2.99205 0.00192205 0)
(2.99083 -8.20944e-05 0)
(2.99065 -0.00256277 0)
(2.99119 -0.00197706 0)
(2.99169 0.000603084 0)
(2.99155 0.000897845 0)
(2.99108 0.000164144 0)
(2.99101 -0.000661213 0)
(2.99125 -0.000359543 0)
(2.99125 -5.65965e-05 0)
(2.99107 -0.000222565 0)
(2.99089 -0.000358518 0)
(2.99089 -9.0747e-05 0)
(2.99088 7.4996e-05 0)
(2.99083 -0.000194447 0)
(2.99077 -0.000241811 0)
(2.99069 -0.000209297 0)
(2.99055 -0.000242686 0)
(3.08148 -0.308632 0)
(3.08145 -0.308622 0)
(3.08139 -0.30855 0)
(3.0813 -0.308489 0)
(3.08122 -0.308441 0)
(3.08117 -0.308396 0)
(3.08108 -0.308371 0)
(3.08096 -0.308312 0)
(3.08084 -0.308248 0)
(3.08072 -0.308138 0)
(3.08059 -0.307982 0)
(3.08047 -0.307854 0)
(3.08033 -0.307683 0)
(3.08015 -0.307409 0)
(3.07981 -0.307049 0)
(3.07925 -0.306485 0)
(3.07854 -0.305468 0)
(3.07755 -0.30368 0)
(3.07625 -0.300783 0)
(3.0742 -0.295562 0)
(3.07168 -0.288519 0)
(3.06715 -0.275038 0)
(3.0629 -0.261106 0)
(3.05385 -0.230895 0)
(3.04918 -0.210233 0)
(3.03417 -0.156277 0)
(3.03364 -0.134966 0)
(3.0165 -0.0708354 0)
(3.01767 -0.061199 0)
(3.00362 -0.0166291 0)
(3.00355 -0.0113576 0)
(2.99538 0.00823205 0)
(2.99317 0.013085 0)
(2.99063 0.00929498 0)
(2.99087 0.00465305 0)
(2.989 -0.000627047 0)
(2.98875 -0.0012326 0)
(2.98911 -0.000916183 0)
(2.99007 0.00061018 0)
(2.99093 0.00324647 0)
(2.99133 0.00239303 0)
(2.99048 0.0006334 0)
(2.98948 -0.00136107 0)
(2.98869 -0.00114993 0)
(2.98916 -0.000813097 0)
(2.98987 0.000745144 0)
(2.99004 0.000339473 0)
(2.98961 -0.000184497 0)
(2.9893 0.000233909 0)
(2.98944 0.000599505 0)
(2.98974 0.000555846 0)
(2.98971 0.000213092 0)
(2.98955 -0.000371404 0)
(2.98954 -0.00017194 0)
(2.98968 0.000376768 0)
(2.98969 0.000418102 0)
(2.98962 0.000209178 0)
(2.98961 -5.35995e-05 0)
(2.98962 -3.60066e-05 0)
(2.98955 0.000106607 0)
(3.07753 -0.30864 0)
(3.0775 -0.30863 0)
(3.07746 -0.308617 0)
(3.07743 -0.308619 0)
(3.07741 -0.308618 0)
(3.0774 -0.308633 0)
(3.07739 -0.308644 0)
(3.0774 -0.308673 0)
(3.07743 -0.308706 0)
(3.07744 -0.308701 0)
(3.07746 -0.308677 0)
(3.07746 -0.308668 0)
(3.07746 -0.308674 0)
(3.07743 -0.308597 0)
(3.07739 -0.308547 0)
(3.07735 -0.308454 0)
(3.0773 -0.308364 0)
(3.07725 -0.308244 0)
(3.0772 -0.308095 0)
(3.07713 -0.307871 0)
(3.07706 -0.307529 0)
(3.07686 -0.306825 0)
(3.07641 -0.305273 0)
(3.07534 -0.302372 0)
(3.07349 -0.296701 0)
(3.06969 -0.285843 0)
(3.06494 -0.2701 0)
(3.05553 -0.238204 0)
(3.04923 -0.212051 0)
(3.03359 -0.153139 0)
(3.03047 -0.133982 0)
(3.01508 -0.0747312 0)
(3.01576 -0.0694745 0)
(3.00376 -0.0416221 0)
(3.00611 -0.0318877 0)
(2.99789 -0.0180115 0)
(2.99525 -0.00806765 0)
(2.99386 -0.00104435 0)
(2.99041 0.0059555 0)
(2.98969 0.00590932 0)
(2.98772 0.00134327 0)
(2.98728 -0.00300847 0)
(2.9872 -0.00516148 0)
(2.9878 -0.00298462 0)
(2.98863 0.000626304 0)
(2.989 0.00154025 0)
(2.98862 0.00041647 0)
(2.98795 -0.00155285 0)
(2.98826 -0.00114319 0)
(2.98871 -4.18969e-05 0)
(2.9888 4.68611e-05 0)
(2.98862 -0.00072587 0)
(2.98867 -0.000736808 0)
(2.98887 -0.000411054 0)
(2.98907 7.9786e-05 0)
(2.98901 -9.98317e-05 0)
(2.98887 -0.000545349 0)
(2.98891 -0.000564128 0)
(2.98897 -0.000379499 0)
(2.98898 -0.000202978 0)
(3.07694 -0.308737 0)
(3.07696 -0.308744 0)
(3.07698 -0.30875 0)
(3.077 -0.308747 0)
(3.07702 -0.30874 0)
(3.07704 -0.308738 0)
(3.07706 -0.308734 0)
(3.07708 -0.308721 0)
(3.07711 -0.308705 0)
(3.07714 -0.308688 0)
(3.07716 -0.308675 0)
(3.07719 -0.308661 0)
(3.07723 -0.308638 0)
(3.07726 -0.308596 0)
(3.07727 -0.308567 0)
(3.07732 -0.30857 0)
(3.0774 -0.30854 0)
(3.07747 -0.308507 0)
(3.07757 -0.308512 0)
(3.0777 -0.308507 0)
(3.07783 -0.30848 0)
(3.07794 -0.308413 0)
(3.07817 -0.30833 0)
(3.0783 -0.308216 0)
(3.07848 -0.308032 0)
(3.07867 -0.30749 0)
(3.07857 -0.306291 0)
(3.07759 -0.303115 0)
(3.07545 -0.296678 0)
(3.06993 -0.280369 0)
(3.06405 -0.259314 0)
(3.04897 -0.208336 0)
(3.04477 -0.178193 0)
(3.0209 -0.0926879 0)
(3.02405 -0.0770735 0)
(3.00574 -0.0144877 0)
(3.00158 -0.00768911 0)
(2.99749 0.0189187 0)
(2.9904 0.0127524 0)
(2.98798 0.00443804 0)
(2.98708 -0.00180729 0)
(2.98711 -0.0032515 0)
(2.98777 -0.00237285 0)
(2.98933 0.00116532 0)
(2.98898 0.00230377 0)
(2.98819 0.000952689 0)
(2.98784 -0.000710072 0)
(2.98808 -0.000701159 0)
(2.98869 6.96468e-05 0)
(2.98901 0.000913361 0)
(2.98874 8.40161e-05 0)
(2.98863 -0.000374811 0)
(2.98903 -0.000312417 0)
(2.98932 0.000182484 0)
(2.9893 0.000274568 0)
(2.9892 0.000118077 0)
(2.98912 8.86103e-05 0)
(2.98915 7.64181e-05 0)
(2.98922 -7.00378e-05 0)
(2.98927 5.42052e-05 0)
(3.07893 -0.308707 0)
(3.07897 -0.308716 0)
(3.07901 -0.308725 0)
(3.07905 -0.308735 0)
(3.07909 -0.308747 0)
(3.07913 -0.308752 0)
(3.07918 -0.308744 0)
(3.0792 -0.308737 0)
(3.07924 -0.308734 0)
(3.07929 -0.30874 0)
(3.07936 -0.308721 0)
(3.07944 -0.308681 0)
(3.07949 -0.308649 0)
(3.07955 -0.30861 0)
(3.07962 -0.308544 0)
(3.07968 -0.308482 0)
(3.07975 -0.308444 0)
(3.07986 -0.308354 0)
(3.07998 -0.308236 0)
(3.08009 -0.308136 0)
(3.08017 -0.30809 0)
(3.08025 -0.308055 0)
(3.0803 -0.308025 0)
(3.08058 -0.308027 0)
(3.08081 -0.308038 0)
(3.08097 -0.308024 0)
(3.08113 -0.30803 0)
(3.08126 -0.30798 0)
(3.08141 -0.307851 0)
(3.08142 -0.307235 0)
(3.08092 -0.305064 0)
(3.07903 -0.299319 0)
(3.07514 -0.285733 0)
(3.06579 -0.256566 0)
(3.05674 -0.220877 0)
(3.03874 -0.152064 0)
(3.03368 -0.126886 0)
(3.01808 -0.06154 0)
(3.02149 -0.0598678 0)
(3.00516 -0.0287365 0)
(3.00012 -0.0182353 0)
(2.99892 -0.00676746 0)
(2.99161 0.00239597 0)
(2.9905 0.00519376 0)
(2.98883 0.00258399 0)
(2.98709 -0.00206384 0)
(2.98881 -0.00325069 0)
(2.98958 -0.0016317 0)
(2.99016 0.000746302 0)
(2.98989 0.000543087 0)
(2.98922 -0.00122182 0)
(2.98946 -0.00120177 0)
(2.98997 -0.000156312 0)
(2.99022 0.000137984 0)
(2.99003 -0.000282422 0)
(2.99002 -0.000740078 0)
(2.99011 -0.00051661 0)
(2.99015 -0.00029502 0)
(2.99021 -0.000346846 0)
(2.99031 -0.000236735 0)
(3.08149 -0.309261 0)
(3.08153 -0.30926 0)
(3.08158 -0.309245 0)
(3.08163 -0.309224 0)
(3.08169 -0.309196 0)
(3.08176 -0.309147 0)
(3.08178 -0.309131 0)
(3.08186 -0.309095 0)
(3.08194 -0.309055 0)
(3.082 -0.309047 0)
(3.08207 -0.30902 0)
(3.08215 -0.308945 0)
(3.0822 -0.308902 0)
(3.08226 -0.308875 0)
(3.08233 -0.308774 0)
(3.08238 -0.308664 0)
(3.08242 -0.308604 0)
(3.08246 -0.308545 0)
(3.08253 -0.308407 0)
(3.08255 -0.308303 0)
(3.08254 -0.308225 0)
(3.08252 -0.308103 0)
(3.08248 -0.307962 0)
(3.08245 -0.307811 0)
(3.0825 -0.307734 0)
(3.08251 -0.307738 0)
(3.08256 -0.307783 0)
(3.08269 -0.30785 0)
(3.08291 -0.307961 0)
(3.08325 -0.308015 0)
(3.0835 -0.308197 0)
(3.08366 -0.308429 0)
(3.08366 -0.308188 0)
(3.08293 -0.305868 0)
(3.08072 -0.299317 0)
(3.07383 -0.279407 0)
(3.06613 -0.250408 0)
(3.0448 -0.180074 0)
(3.04371 -0.14187 0)
(3.01826 -0.0454034 0)
(3.01812 -0.0334204 0)
(3.00655 0.0147427 0)
(2.99866 0.0132998 0)
(2.99318 0.00450566 0)
(2.99023 -0.00186101 0)
(2.98983 -0.00315215 0)
(2.9907 -0.00193945 0)
(2.992 0.00185033 0)
(2.99157 0.00148385 0)
(2.99059 -0.000585214 0)
(2.99009 -0.00148356 0)
(2.99061 -0.000669589 0)
(2.99128 0.000525188 0)
(2.99124 0.000359004 0)
(2.99106 -0.000319331 0)
(2.99124 -0.000399331 0)
(2.99136 -0.000170093 0)
(2.99137 -7.64076e-05 0)
(2.99145 -0.000171582 0)
(2.99159 -3.04911e-05 0)
(3.08356 -0.308794 0)
(3.08361 -0.308801 0)
(3.08368 -0.308806 0)
(3.08374 -0.308808 0)
(3.0838 -0.308812 0)
(3.08388 -0.308809 0)
(3.08397 -0.308803 0)
(3.08406 -0.308795 0)
(3.08415 -0.308767 0)
(3.0842 -0.308774 0)
(3.08426 -0.308751 0)
(3.08433 -0.308655 0)
(3.08436 -0.308631 0)
(3.08439 -0.308601 0)
(3.08447 -0.308439 0)
(3.08451 -0.308311 0)
(3.08453 -0.308253 0)
(3.08456 -0.308149 0)
(3.08455 -0.307988 0)
(3.08447 -0.307806 0)
(3.08435 -0.307595 0)
(3.08418 -0.307428 0)
(3.08397 -0.307323 0)
(3.08373 -0.307305 0)
(3.08345 -0.307384 0)
(3.08327 -0.307507 0)
(3.08327 -0.307643 0)
(3.08335 -0.307791 0)
(3.08353 -0.308018 0)
(3.08379 -0.308285 0)
(3.08415 -0.308407 0)
(3.08447 -0.308722 0)
(3.08464 -0.308824 0)
(3.0849 -0.309107 0)
(3.08483 -0.308917 0)
(3.08436 -0.307999 0)
(3.083 -0.304321 0)
(3.07854 -0.292597 0)
(3.07118 -0.266644 0)
(3.05534 -0.211034 0)
(3.04726 -0.167072 0)
(3.02632 -0.0783201 0)
(3.03201 -0.0744436 0)
(3.01277 -0.0346805 0)
(3.00561 -0.0196037 0)
(3.00322 -0.00704427 0)
(2.9945 0.00501741 0)
(2.99292 0.00358313 0)
(2.99107 -0.000993006 0)
(2.99122 -0.00420007 0)
(2.99196 -0.00223625 0)
(2.9929 0.000626569 0)
(2.99284 0.000697519 0)
(2.99224 -0.000599592 0)
(2.99228 -0.00132869 0)
(2.99242 -0.00068677 0)
(2.99246 -0.000187223 0)
(2.99241 -0.000366067 0)
(2.99252 -0.000337724 0)
(2.99259 -0.000141886 0)
(3.08443 -0.308114 0)
(3.08445 -0.308115 0)
(3.08453 -0.308121 0)
(3.08461 -0.308126 0)
(3.08468 -0.308129 0)
(3.08475 -0.308136 0)
(3.08484 -0.308129 0)
(3.08494 -0.308086 0)
(3.08504 -0.308084 0)
(3.08514 -0.308119 0)
(3.08528 -0.308043 0)
(3.08535 -0.307966 0)
(3.08538 -0.307963 0)
(3.08543 -0.307935 0)
(3.08551 -0.307824 0)
(3.08557 -0.30776 0)
(3.08563 -0.30772 0)
(3.08566 -0.30762 0)
(3.08563 -0.307494 0)
(3.08553 -0.307394 0)
(3.08541 -0.307352 0)
(3.08525 -0.307332 0)
(3.0851 -0.307209 0)
(3.08489 -0.307031 0)
(3.08459 -0.307006 0)
(3.08422 -0.307163 0)
(3.08394 -0.307386 0)
(3.08385 -0.307509 0)
(3.08373 -0.307879 0)
(3.08378 -0.308379 0)
(3.08402 -0.308744 0)
(3.08431 -0.309 0)
(3.08462 -0.30909 0)
(3.085 -0.30921 0)
(3.08514 -0.309296 0)
(3.08517 -0.309332 0)
(3.08505 -0.309448 0)
(3.08457 -0.308352 0)
(3.08373 -0.305766 0)
(3.08054 -0.29713 0)
(3.07411 -0.275466 0)
(3.05653 -0.219724 0)
(3.0512 -0.166871 0)
(3.02371 -0.0596581 0)
(3.02418 -0.0394208 0)
(3.00875 0.0159819 0)
(3.00036 0.0147446 0)
(2.99495 0.000798932 0)
(2.99276 -0.00387334 0)
(2.99352 -0.0034198 0)
(2.99613 0.00214 0)
(2.99551 0.00209084 0)
(2.99401 0.000493118 0)
(2.99316 -0.000986314 0)
(2.99328 -0.000881679 0)
(2.99345 -8.82851e-05 0)
(2.99334 -9.26398e-05 0)
(2.99311 -0.000373957 0)
(2.99306 -0.000280748 0)
(2.99308 -1.55738e-06 0)
(3.08467 -0.30694 0)
(3.08472 -0.307014 0)
(3.08478 -0.307067 0)
(3.08486 -0.3071 0)
(3.08492 -0.307182 0)
(3.08499 -0.307247 0)
(3.08507 -0.307255 0)
(3.08514 -0.307294 0)
(3.08518 -0.307381 0)
(3.08522 -0.307458 0)
(3.08525 -0.307481 0)
(3.08529 -0.307527 0)
(3.08535 -0.307594 0)
(3.08542 -0.307587 0)
(3.0855 -0.307564 0)
(3.08559 -0.307537 0)
(3.08568 -0.307541 0)
(3.08574 -0.307526 0)
(3.08576 -0.307474 0)
(3.08573 -0.307458 0)
(3.0857 -0.307467 0)
(3.08562 -0.307495 0)
(3.08549 -0.307535 0)
(3.08529 -0.307598 0)
(3.085 -0.307707 0)
(3.08456 -0.307769 0)
(3.08409 -0.307851 0)
(3.0837 -0.308037 0)
(3.08349 -0.30832 0)
(3.08351 -0.308467 0)
(3.08359 -0.308464 0)
(3.0838 -0.308502 0)
(3.08417 -0.308605 0)
(3.08472 -0.308778 0)
(3.08516 -0.308925 0)
(3.08526 -0.308977 0)
(3.08532 -0.309233 0)
(3.08524 -0.309205 0)
(3.08489 -0.308752 0)
(3.08434 -0.307456 0)
(3.08379 -0.306153 0)
(3.08124 -0.299996 0)
(3.07463 -0.277118 0)
(3.06199 -0.232517 0)
(3.04666 -0.165689 0)
(3.02917 -0.08923 0)
(3.02259 -0.0648764 0)
(3.01739 -0.0368865 0)
(3.00368 -0.0112892 0)
(3.00007 -6.53401e-05 0)
(2.99699 0.00426322 0)
(2.9943 0.00160058 0)
(2.99309 -0.00292396 0)
(2.9934 -0.00224912 0)
(2.99388 -0.000407195 0)
(2.99378 0.000179906 0)
(2.9936 -0.000771331 0)
(2.9932 -0.000624804 0)
(2.99318 -0.000210872 0)
(2.99322 0.000138569 0)
(3.08449 -0.306302 0)
(3.08451 -0.306414 0)
(3.08454 -0.306487 0)
(3.08457 -0.306523 0)
(3.08458 -0.306624 0)
(3.08461 -0.306746 0)
(3.08466 -0.306914 0)
(3.08471 -0.307135 0)
(3.08476 -0.30734 0)
(3.0848 -0.307496 0)
(3.08483 -0.307612 0)
(3.08484 -0.307795 0)
(3.08486 -0.308001 0)
(3.0849 -0.308095 0)
(3.08496 -0.308114 0)
(3.08504 -0.308137 0)
(3.08511 -0.308157 0)
(3.08516 -0.308129 0)
(3.08521 -0.308098 0)
(3.08528 -0.308129 0)
(3.08535 -0.308169 0)
(3.08537 -0.308169 0)
(3.08537 -0.308159 0)
(3.08527 -0.308183 0)
(3.08504 -0.30821 0)
(3.08471 -0.308121 0)
(3.08432 -0.307943 0)
(3.08397 -0.30795 0)
(3.08366 -0.30809 0)
(3.08344 -0.308097 0)
(3.08344 -0.307918 0)
(3.08359 -0.307737 0)
(3.08373 -0.307665 0)
(3.08414 -0.307571 0)
(3.08475 -0.307671 0)
(3.08524 -0.308083 0)
(3.0854 -0.30832 0)
(3.08539 -0.308559 0)
(3.08509 -0.308546 0)
(3.08464 -0.30801 0)
(3.08429 -0.307635 0)
(3.08412 -0.307682 0)
(3.08353 -0.307125 0)
(3.08113 -0.300337 0)
(3.07417 -0.27724 0)
(3.05835 -0.224677 0)
(3.03961 -0.145254 0)
(3.02228 -0.056817 0)
(3.01453 -0.0139018 0)
(3.00718 0.0207123 0)
(2.99471 0.00513365 0)
(2.99304 -0.00265564 0)
(2.99349 -0.00302078 0)
(2.99545 0.000613354 0)
(2.99424 0.00186186 0)
(2.99352 0.000468333 0)
(2.99304 -0.001014 0)
(2.99314 -0.000525867 0)
(2.99344 0.000292667 0)
(2.99334 0.000172593 0)
(3.08397 -0.307212 0)
(3.08396 -0.307313 0)
(3.08397 -0.307353 0)
(3.08395 -0.307456 0)
(3.08393 -0.307608 0)
(3.0839 -0.307702 0)
(3.08382 -0.307846 0)
(3.0837 -0.307996 0)
(3.08365 -0.308094 0)
(3.08365 -0.308259 0)
(3.08372 -0.308456 0)
(3.08383 -0.308645 0)
(3.08394 -0.308831 0)
(3.08406 -0.308967 0)
(3.08417 -0.309019 0)
(3.08428 -0.30897 0)
(3.08438 -0.308881 0)
(3.08446 -0.308836 0)
(3.08454 -0.308803 0)
(3.08469 -0.308767 0)
(3.08489 -0.308736 0)
(3.08504 -0.308665 0)
(3.0851 -0.308551 0)
(3.0851 -0.30849 0)
(3.08502 -0.308468 0)
(3.08487 -0.308308 0)
(3.08465 -0.308051 0)
(3.08439 -0.307964 0)
(3.08413 -0.308029 0)
(3.08387 -0.307938 0)
(3.08364 -0.30758 0)
(3.08346 -0.306993 0)
(3.08351 -0.306627 0)
(3.08366 -0.306497 0)
(3.08414 -0.306421 0)
(3.08479 -0.306674 0)
(3.0851 -0.307231 0)
(3.08491 -0.308073 0)
(3.08462 -0.308668 0)
(3.08452 -0.308698 0)
(3.08433 -0.308506 0)
(3.08395 -0.308255 0)
(3.08374 -0.308278 0)
(3.0838 -0.308489 0)
(3.08344 -0.306888 0)
(3.08112 -0.299135 0)
(3.07193 -0.268071 0)
(3.05987 -0.2218 0)
(3.03487 -0.126952 0)
(3.02895 -0.0812242 0)
(3.01866 -0.0480501 0)
(3.0057 -0.0163305 0)
(3.00158 -0.00499687 0)
(2.9952 0.00349724 0)
(2.99256 0.00114037 0)
(2.99191 -0.00269564 0)
(2.99241 -0.00190167 0)
(2.99346 4.91531e-05 0)
(2.99353 0.000178623 0)
(2.99337 -0.000234196 0)
(3.0833 -0.308057 0)
(3.08323 -0.308073 0)
(3.08315 -0.308129 0)
(3.08304 -0.308269 0)
(3.08299 -0.308357 0)
(3.08299 -0.308387 0)
(3.08297 -0.308466 0)
(3.08295 -0.308536 0)
(3.08294 -0.308576 0)
(3.08289 -0.308722 0)
(3.08285 -0.308905 0)
(3.08285 -0.309051 0)
(3.08288 -0.309186 0)
(3.08294 -0.309272 0)
(3.08302 -0.309323 0)
(3.08312 -0.309328 0)
(3.08326 -0.309261 0)
(3.08342 -0.309252 0)
(3.08361 -0.309275 0)
(3.08393 -0.309265 0)
(3.08435 -0.309237 0)
(3.08454 -0.309215 0)
(3.0849 -0.30912 0)
(3.08514 -0.308982 0)
(3.08526 -0.308921 0)
(3.08535 -0.308773 0)
(3.08542 -0.308386 0)
(3.08535 -0.307882 0)
(3.08497 -0.307641 0)
(3.08452 -0.307535 0)
(3.08407 -0.307287 0)
(3.08361 -0.306914 0)
(3.08341 -0.306696 0)
(3.08345 -0.306652 0)
(3.08367 -0.3066 0)
(3.08413 -0.306503 0)
(3.08452 -0.306687 0)
(3.08429 -0.30766 0)
(3.08418 -0.308776 0)
(3.08433 -0.308971 0)
(3.08442 -0.30881 0)
(3.0843 -0.308385 0)
(3.08393 -0.308181 0)
(3.084 -0.307817 0)
(3.08422 -0.307893 0)
(3.08445 -0.307527 0)
(3.08401 -0.305286 0)
(3.08078 -0.294236 0)
(3.06903 -0.258489 0)
(3.05198 -0.192398 0)
(3.02641 -0.0816554 0)
(3.02117 -0.0364299 0)
(3.00644 0.0184051 0)
(2.99493 0.00830682 0)
(2.99239 -0.00206854 0)
(2.99285 -0.00247423 0)
(2.9949 0.00116588 0)
(2.99447 0.00109276 0)
(2.99386 1.45704e-05 0)
(2.9937 -0.000281489 0)
(3.08388 -0.308493 0)
(3.08379 -0.308334 0)
(3.08366 -0.308215 0)
(3.08353 -0.308108 0)
(3.08343 -0.308001 0)
(3.08336 -0.307909 0)
(3.08333 -0.307804 0)
(3.08335 -0.307673 0)
(3.08336 -0.307555 0)
(3.08328 -0.307489 0)
(3.08313 -0.30745 0)
(3.08293 -0.307393 0)
(3.08275 -0.307313 0)
(3.08269 -0.307279 0)
(3.08261 -0.307252 0)
(3.08255 -0.307292 0)
(3.08257 -0.307369 0)
(3.08266 -0.307536 0)
(3.08289 -0.30771 0)
(3.08333 -0.307873 0)
(3.08394 -0.30801 0)
(3.08439 -0.308136 0)
(3.08488 -0.308203 0)
(3.08529 -0.308253 0)
(3.0856 -0.308404 0)
(3.08576 -0.308449 0)
(3.08587 -0.308258 0)
(3.08595 -0.3078 0)
(3.08566 -0.30712 0)
(3.08514 -0.306902 0)
(3.08471 -0.306914 0)
(3.08414 -0.307115 0)
(3.08374 -0.307641 0)
(3.0836 -0.30792 0)
(3.08363 -0.307797 0)
(3.08374 -0.307388 0)
(3.08389 -0.306925 0)
(3.08361 -0.307731 0)
(3.08391 -0.308955 0)
(3.08448 -0.309132 0)
(3.08468 -0.308863 0)
(3.08474 -0.308336 0)
(3.0845 -0.307779 0)
(3.08436 -0.307167 0)
(3.0846 -0.30708 0)
(3.08479 -0.307168 0)
(3.08499 -0.307453 0)
(3.08488 -0.307358 0)
(3.08357 -0.304797 0)
(3.07732 -0.285889 0)
(3.06723 -0.250117 0)
(3.04074 -0.148999 0)
(3.03216 -0.0966877 0)
(3.02159 -0.0520839 0)
(3.00734 -0.0180524 0)
(3.00421 -0.00502909 0)
(2.99672 0.00320496 0)
(2.99428 0.000907981 0)
(2.99363 -0.00171513 0)
(2.99419 -0.00050055 0)
(3.08522 -0.307764 0)
(3.08512 -0.307558 0)
(3.08512 -0.307285 0)
(3.08515 -0.307026 0)
(3.08517 -0.306761 0)
(3.08518 -0.306401 0)
(3.08512 -0.306002 0)
(3.085 -0.305657 0)
(3.08485 -0.305448 0)
(3.08467 -0.305358 0)
(3.08443 -0.305284 0)
(3.08414 -0.305145 0)
(3.0838 -0.305021 0)
(3.08345 -0.305239 0)
(3.0832 -0.305627 0)
(3.08312 -0.305685 0)
(3.083 -0.305687 0)
(3.08288 -0.305834 0)
(3.08285 -0.306332 0)
(3.08319 -0.306852 0)
(3.08363 -0.30727 0)
(3.08414 -0.307644 0)
(3.08465 -0.307942 0)
(3.08502 -0.308177 0)
(3.08531 -0.308473 0)
(3.0857 -0.308536 0)
(3.08564 -0.30806 0)
(3.08557 -0.307465 0)
(3.08542 -0.306969 0)
(3.08498 -0.307077 0)
(3.08467 -0.307874 0)
(3.08471 -0.30896 0)
(3.08449 -0.309987 0)
(3.08423 -0.310796 0)
(3.08415 -0.310187 0)
(3.08402 -0.308316 0)
(3.08388 -0.307451 0)
(3.08339 -0.307672 0)
(3.08389 -0.308795 0)
(3.08482 -0.309157 0)
(3.08532 -0.308716 0)
(3.0855 -0.308078 0)
(3.08533 -0.307552 0)
(3.08495 -0.306993 0)
(3.08486 -0.306889 0)
(3.08492 -0.306926 0)
(3.08486 -0.307818 0)
(3.08489 -0.308299 0)
(3.08462 -0.308705 0)
(3.08399 -0.307938 0)
(3.08185 -0.301501 0)
(3.07244 -0.272118 0)
(3.05978 -0.216061 0)
(3.03006 -0.0844378 0)
(3.02446 -0.0489693 0)
(3.01379 0.02121 0)
(2.9963 0.00571413 0)
(2.9935 -0.00197157 0)
(2.99424 -0.0016128 0)
(2.99626 0.00140015 0)
(3.08649 -0.30721 0)
(3.08629 -0.306699 0)
(3.08622 -0.30622 0)
(3.08611 -0.30596 0)
(3.08597 -0.305778 0)
(3.08597 -0.305395 0)
(3.08599 -0.304965 0)
(3.08597 -0.304768 0)
(3.086 -0.304582 0)
(3.08601 -0.304295 0)
(3.08591 -0.304121 0)
(3.08571 -0.304098 0)
(3.08542 -0.304095 0)
(3.08501 -0.304208 0)
(3.08466 -0.304594 0)
(3.08455 -0.304803 0)
(3.08435 -0.304877 0)
(3.08411 -0.304945 0)
(3.08395 -0.305455 0)
(3.08394 -0.306073 0)
(3.08389 -0.306744 0)
(3.08415 -0.307229 0)
(3.08441 -0.30766 0)
(3.0846 -0.308133 0)
(3.08471 -0.30868 0)
(3.08494 -0.309004 0)
(3.08483 -0.308335 0)
(3.08479 -0.307463 0)
(3.0847 -0.306839 0)
(3.08445 -0.306818 0)
(3.08446 -0.307664 0)
(3.08495 -0.309448 0)
(3.08511 -0.310694 0)
(3.08511 -0.311342 0)
(3.08516 -0.310926 0)
(3.08479 -0.308594 0)
(3.08424 -0.306946 0)
(3.08395 -0.306797 0)
(3.08463 -0.307464 0)
(3.08528 -0.307819 0)
(3.08583 -0.307552 0)
(3.08588 -0.307235 0)
(3.08574 -0.307282 0)
(3.08529 -0.307356 0)
(3.08502 -0.307485 0)
(3.08458 -0.30773 0)
(3.08435 -0.30845 0)
(3.08422 -0.30903 0)
(3.08421 -0.309135 0)
(3.08418 -0.309075 0)
(3.08403 -0.308097 0)
(3.08352 -0.305294 0)
(3.07952 -0.290243 0)
(3.06921 -0.253103 0)
(3.04616 -0.16371 0)
(3.02781 -0.0805224 0)
(3.02732 -0.0566223 0)
(3.00507 -0.0143071 0)
(2.99868 -0.000300714 0)
(2.99642 0.000583104 0)
(3.08628 -0.306577 0)
(3.08627 -0.306236 0)
(3.08628 -0.306122 0)
(3.08621 -0.306141 0)
(3.08613 -0.306224 0)
(3.08608 -0.306361 0)
(3.08602 -0.306574 0)
(3.08597 -0.307076 0)
(3.08592 -0.307604 0)
(3.08586 -0.307729 0)
(3.0863 -0.30823 0)
(3.08651 -0.308612 0)
(3.08655 -0.309154 0)
(3.0864 -0.309488 0)
(3.08627 -0.310006 0)
(3.08587 -0.310484 0)
(3.08527 -0.310626 0)
(3.08488 -0.310488 0)
(3.08451 -0.310263 0)
(3.08409 -0.310274 0)
(3.08371 -0.310705 0)
(3.08351 -0.310792 0)
(3.08313 -0.310828 0)
(3.08261 -0.31133 0)
(3.0826 -0.310776 0)
(3.08297 -0.309987 0)
(3.0833 -0.308882 0)
(3.084 -0.307819 0)
(3.08449 -0.307492 0)
(3.0847 -0.30764 0)
(3.08498 -0.308597 0)
(3.08541 -0.310429 0)
(3.08558 -0.311515 0)
(3.08561 -0.312003 0)
(3.08584 -0.311389 0)
(3.0858 -0.308448 0)
(3.08506 -0.306219 0)
(3.08469 -0.305973 0)
(3.08518 -0.306685 0)
(3.08535 -0.307131 0)
(3.08544 -0.307041 0)
(3.08541 -0.306892 0)
(3.08498 -0.307673 0)
(3.08473 -0.30857 0)
(3.08439 -0.30891 0)
(3.0838 -0.309092 0)
(3.08368 -0.309152 0)
(3.08371 -0.309175 0)
(3.08378 -0.3091 0)
(3.0841 -0.308455 0)
(3.08415 -0.30809 0)
(3.0842 -0.306849 0)
(3.08385 -0.306043 0)
(3.08178 -0.300231 0)
(3.07391 -0.275722 0)
(3.05194 -0.206629 0)
(3.03403 -0.105836 0)
(3.01778 -0.0270146 0)
(3.00311 0.0161277 0)
(2.99092 0.000502833 0)
(3.08325 -0.306752 0)
(3.08323 -0.307292 0)
(3.08336 -0.307705 0)
(3.08356 -0.307993 0)
(3.0837 -0.308392 0)
(3.08367 -0.308735 0)
(3.08359 -0.308833 0)
(3.08351 -0.309347 0)
(3.08389 -0.310237 0)
(3.08413 -0.311869 0)
(3.08426 -0.312516 0)
(3.08583 -0.313983 0)
(3.08696 -0.314431 0)
(3.08745 -0.314646 0)
(3.08802 -0.314743 0)
(3.08808 -0.314739 0)
(3.08792 -0.31462 0)
(3.08766 -0.314028 0)
(3.08697 -0.313139 0)
(3.08612 -0.312685 0)
(3.08509 -0.312924 0)
(3.08376 -0.313197 0)
(3.08292 -0.313168 0)
(3.08217 -0.312959 0)
(3.08218 -0.312086 0)
(3.08263 -0.310312 0)
(3.08331 -0.308378 0)
(3.08437 -0.307004 0)
(3.08509 -0.307026 0)
(3.08523 -0.307433 0)
(3.08568 -0.308149 0)
(3.08616 -0.308378 0)
(3.08624 -0.308372 0)
(3.0861 -0.308649 0)
(3.08594 -0.308513 0)
(3.08533 -0.307499 0)
(3.08473 -0.307182 0)
(3.08493 -0.30728 0)
(3.08498 -0.307477 0)
(3.08492 -0.307494 0)
(3.08456 -0.307227 0)
(3.08368 -0.307958 0)
(3.0832 -0.309235 0)
(3.08329 -0.309849 0)
(3.08335 -0.309877 0)
(3.08331 -0.309801 0)
(3.08321 -0.309494 0)
(3.08325 -0.308583 0)
(3.08353 -0.308014 0)
(3.08394 -0.307321 0)
(3.0841 -0.30689 0)
(3.08372 -0.306554 0)
(3.08361 -0.306623 0)
(3.08312 -0.307307 0)
(3.08211 -0.306595 0)
(3.07632 -0.290784 0)
(3.06589 -0.252587 0)
(3.03577 -0.140322 0)
(3.03569 -0.099742 0)
(3.00769 -0.0300843 0)
(3.08017 -0.304095 0)
(3.08019 -0.303764 0)
(3.08012 -0.303267 0)
(3.08014 -0.302924 0)
(3.08011 -0.302799 0)
(3.0801 -0.302782 0)
(3.07997 -0.302803 0)
(3.08015 -0.303682 0)
(3.08081 -0.305557 0)
(3.08069 -0.307493 0)
(3.08132 -0.307598 0)
(3.08325 -0.309208 0)
(3.08696 -0.312536 0)
(3.0875 -0.315223 0)
(3.088 -0.316088 0)
(3.08777 -0.315867 0)
(3.0876 -0.315494 0)
(3.08763 -0.314618 0)
(3.08747 -0.312479 0)
(3.087 -0.311154 0)
(3.08634 -0.311174 0)
(3.08502 -0.311172 0)
(3.08433 -0.311207 0)
(3.08296 -0.311366 0)
(3.08232 -0.311408 0)
(3.08285 -0.310127 0)
(3.08391 -0.306207 0)
(3.08397 -0.303121 0)
(3.08524 -0.304668 0)
(3.08565 -0.307373 0)
(3.08618 -0.308477 0)
(3.08602 -0.308169 0)
(3.08531 -0.307507 0)
(3.0846 -0.306881 0)
(3.08393 -0.306845 0)
(3.08357 -0.307198 0)
(3.08313 -0.3085 0)
(3.08341 -0.31027 0)
(3.08386 -0.310708 0)
(3.08345 -0.31043 0)
(3.08257 -0.309987 0)
(3.08149 -0.309971 0)
(3.08123 -0.310551 0)
(3.08156 -0.310988 0)
(3.08265 -0.310542 0)
(3.08315 -0.310176 0)
(3.08355 -0.309053 0)
(3.08321 -0.30766 0)
(3.08353 -0.306983 0)
(3.0836 -0.306706 0)
(3.08347 -0.306672 0)
(3.08331 -0.30674 0)
(3.08266 -0.307736 0)
(3.08216 -0.308363 0)
(3.08209 -0.309221 0)
(3.08171 -0.308112 0)
(3.07981 -0.300084 0)
(3.07032 -0.269706 0)
(3.05383 -0.191738 0)
(3.01922 -0.0524617 0)
(3.07136 -0.273684 0)
(3.07092 -0.274365 0)
(3.07049 -0.274756 0)
(3.07011 -0.274793 0)
(3.06971 -0.274817 0)
(3.06993 -0.275864 0)
(3.06988 -0.276968 0)
(3.06936 -0.278463 0)
(3.06978 -0.281184 0)
(3.06946 -0.283576 0)
(3.06952 -0.283849 0)
(3.0704 -0.284601 0)
(3.0742 -0.289032 0)
(3.07508 -0.292771 0)
(3.07556 -0.294182 0)
(3.07559 -0.294375 0)
(3.07399 -0.29285 0)
(3.0727 -0.291216 0)
(3.07128 -0.288608 0)
(3.07195 -0.285173 0)
(3.07285 -0.284385 0)
(3.07317 -0.284728 0)
(3.07356 -0.286104 0)
(3.07473 -0.288318 0)
(3.07587 -0.292116 0)
(3.07804 -0.294336 0)
(3.07921 -0.29434 0)
(3.08148 -0.294862 0)
(3.08317 -0.296435 0)
(3.08229 -0.300315 0)
(3.07952 -0.302059 0)
(3.07621 -0.301524 0)
(3.07449 -0.301414 0)
(3.07582 -0.301691 0)
(3.07646 -0.302037 0)
(3.07721 -0.303883 0)
(3.07847 -0.308486 0)
(3.08078 -0.31187 0)
(3.08259 -0.31149 0)
(3.08289 -0.310855 0)
(3.08247 -0.310824 0)
(3.08118 -0.310885 0)
(3.08104 -0.309535 0)
(3.08199 -0.308836 0)
(3.0829 -0.308276 0)
(3.08354 -0.307954 0)
(3.08376 -0.307679 0)
(3.08334 -0.307271 0)
(3.08323 -0.307204 0)
(3.08322 -0.307196 0)
(3.08291 -0.307543 0)
(3.08214 -0.308643 0)
(3.08174 -0.309709 0)
(3.08155 -0.309842 0)
(3.08188 -0.309608 0)
(3.08241 -0.308994 0)
(3.08328 -0.306888 0)
(3.08271 -0.302732 0)
(3.07831 -0.287425 0)
(3.0505 -0.186607 0)
(3.0723 -0.271232 0)
(3.07119 -0.270661 0)
(3.07185 -0.267567 0)
(3.07131 -0.264376 0)
(3.06959 -0.263731 0)
(3.06927 -0.261226 0)
(3.06922 -0.25758 0)
(3.06849 -0.25555 0)
(3.06759 -0.254211 0)
(3.06635 -0.254618 0)
(3.06762 -0.257568 0)
(3.06768 -0.26152 0)
(3.06814 -0.262944 0)
(3.0699 -0.264724 0)
(3.07017 -0.26745 0)
(3.0701 -0.268933 0)
(3.06901 -0.270091 0)
(3.06791 -0.270283 0)
(3.06639 -0.272143 0)
(3.06878 -0.276519 0)
(3.06991 -0.28121 0)
(3.06901 -0.284901 0)
(3.0709 -0.292074 0)
(3.07307 -0.296617 0)
(3.07454 -0.301124 0)
(3.07512 -0.301883 0)
(3.07591 -0.301213 0)
(3.07687 -0.298586 0)
(3.07667 -0.296866 0)
(3.07676 -0.297233 0)
(3.07657 -0.29664 0)
(3.07553 -0.296365 0)
(3.07598 -0.302005 0)
(3.0763 -0.307801 0)
(3.07708 -0.309296 0)
(3.07869 -0.308768 0)
(3.07978 -0.30718 0)
(3.08002 -0.304856 0)
(3.08142 -0.304744 0)
(3.08331 -0.307674 0)
(3.08461 -0.309079 0)
(3.08474 -0.306478 0)
(3.08266 -0.303514 0)
(3.08219 -0.303521 0)
(3.0828 -0.304093 0)
(3.08342 -0.304135 0)
(3.08344 -0.30398 0)
(3.08214 -0.30508 0)
(3.08166 -0.305851 0)
(3.08131 -0.30751 0)
(3.08044 -0.309735 0)
(3.08107 -0.311827 0)
(3.08133 -0.311581 0)
(3.08263 -0.310523 0)
(3.08394 -0.308875 0)