/*--------------------------------*- C++ -*----------------------------------*\
  =========                 |
  \\      /  F ield         | OpenFOAM: The Open Source CFD Toolbox
   \\    /   O peration     | Website:  https://openfoam.org
    \\  /    A nd           | Version:  7
     \\/     M anipulation  |
\*---------------------------------------------------------------------------*/
FoamFile
{
    version     2.0;
    format      ascii;
    class       volScalarField;
    location    "7.5";
    object      rho;
}
// * * * * * * * * * * * * * * * * * * * * * * * * * * * * * * * * * * * * * //

dimensions      [1 -3 0 0 0 0 0];

internalField   nonuniform List<scalar> 
90000
(
0.182075
0.22208
0.264629
0.295061
0.314706
0.350416
0.386661
0.414452
0.45064
0.49458
0.53457
0.574918
0.619453
0.662405
0.701643
0.740128
0.772417
0.795556
0.817815
0.829011
0.837599
0.840111
0.839308
0.833292
0.830869
0.832195
0.826965
0.825235
0.831036
0.837503
0.84285
0.849976
0.854992
0.859363
0.860142
0.861379
0.865182
0.874284
0.884279
0.892559
0.900383
0.907733
0.914773
0.921105
0.926685
0.932547
0.940645
0.950702
0.962676
0.976422
0.989547
0.999563
1.00584
1.00486
1.00098
0.996931
0.99278
0.993117
0.996374
1.00271
1.01036
1.0194
1.02545
1.02917
1.028
1.02408
1.01932
1.01471
1.01577
1.01835
1.02311
1.02701
1.03024
1.02949
1.02584
1.02081
1.02028
1.02231
1.02423
1.02359
1.02328
1.0244
1.03011
1.03837
1.04626
1.04958
1.05486
1.06048
1.06591
1.07079
1.07567
1.07977
1.08417
1.0873
1.09009
1.09455
1.09729
1.10057
1.10322
1.10671
0.144562
0.144583
0.144611
0.144645
0.144692
0.144744
0.144813
0.144869
0.145474
0.148162
0.153536
0.162831
0.176698
0.197506
0.22336
0.258545
0.30179
0.353407
0.412117
0.475334
0.535447
0.597387
0.647505
0.689738
0.72514
0.750528
0.7595
0.767924
0.770524
0.765136
0.762575
0.759011
0.760183
0.761399
0.763144
0.761024
0.763934
0.770751
0.775557
0.780881
0.789718
0.802126
0.815426
0.828355
0.839552
0.849485
0.859204
0.8678
0.875784
0.883346
0.889766
0.894557
0.898912
0.903173
0.908372
0.916015
0.925861
0.938118
0.950288
0.961775
0.970379
0.978764
0.978699
0.979656
0.981276
0.985036
0.990213
0.997435
1.00525
1.01296
1.02121
1.02078
1.01799
1.01485
1.01419
1.01644
1.02061
1.02432
1.02469
1.02353
1.02289
1.02759
1.03655
1.04346
1.04896
1.05268
1.05917
1.06446
1.06969
1.07402
1.07927
1.08317
1.08722
1.0896
1.0924
1.09651
1.09962
1.10362
1.10579
1.10827
0.145263
0.145347
0.145446
0.145552
0.145668
0.145789
0.145918
0.146049
0.146205
0.146286
0.146369
0.146455
0.146551
0.146647
0.146761
0.146869
0.147007
0.147092
0.148569
0.155454
0.169151
0.192874
0.227778
0.273068
0.330533
0.396467
0.462234
0.522572
0.580684
0.623921
0.66618
0.696061
0.724803
0.739434
0.752915
0.749979
0.747259
0.73932
0.728288
0.716337
0.70534
0.699346
0.701402
0.710263
0.724384
0.743365
0.764183
0.780477
0.789647
0.791429
0.790565
0.791326
0.795619
0.806461
0.821973
0.838067
0.850765
0.85943
0.865557
0.870579
0.878095
0.888937
0.900795
0.912014
0.923911
0.936367
0.948322
0.95977
0.967577
0.97392
0.97695
0.980177
0.984387
0.991033
0.999247
1.00858
1.01744
1.01679
1.01405
1.01571
1.02136
1.03139
1.03953
1.04493
1.04923
1.05391
1.06138
1.06668
1.0715
1.07629
1.08177
1.08562
1.08964
1.09144
1.09419
1.09802
1.10202
1.10663
1.10882
1.11138
0.146348
0.146443
0.146542
0.146644
0.146743
0.146849
0.146949
0.147052
0.147149
0.14725
0.14735
0.147453
0.147552
0.147653
0.14775
0.147848
0.147942
0.148034
0.148129
0.148181
0.148227
0.148283
0.14834
0.148413
0.148466
0.149489
0.156931
0.173791
0.203719
0.248161
0.302844
0.37611
0.450813
0.525404
0.592341
0.645189
0.686339
0.707075
0.720065
0.715478
0.707261
0.695096
0.692226
0.692735
0.690907
0.690897
0.695459
0.703019
0.710604
0.718505
0.725686
0.732111
0.734806
0.738429
0.743992
0.752792
0.761152
0.768402
0.77406
0.780849
0.789435
0.802176
0.817293
0.830401
0.840405
0.849206
0.859644
0.87255
0.886759
0.900028
0.91339
0.926584
0.939328
0.951559
0.961733
0.968968
0.973739
0.979558
0.989102
1.00251
1.01833
1.03057
1.03452
1.03762
1.04257
1.05265
1.06115
1.06655
1.0711
1.07673
1.08219
1.08614
1.09023
1.09192
1.09476
1.09864
1.10279
1.10737
1.11015
1.11427
0.147307
0.147368
0.14743
0.147491
0.147553
0.147616
0.14768
0.147744
0.147809
0.147874
0.147939
0.148006
0.148073
0.148143
0.148209
0.148276
0.148339
0.14841
0.148479
0.148552
0.148622
0.148694
0.148766
0.148839
0.14892
0.148962
0.149003
0.149046
0.149092
0.149147
0.14918
0.149446
0.155335
0.177257
0.215601
0.279356
0.361385
0.453808
0.542682
0.613466
0.664584
0.689862
0.69799
0.700067
0.695722
0.687235
0.676378
0.663286
0.659554
0.664894
0.678595
0.696459
0.710858
0.714853
0.709181
0.701322
0.697984
0.702563
0.712541
0.723917
0.733173
0.73796
0.742189
0.750759
0.761361
0.771787
0.782637
0.794707
0.808646
0.822512
0.834866
0.846519
0.859229
0.87207
0.885821
0.899204
0.914518
0.932922
0.951058
0.968177
0.980938
0.98955
1.00014
1.01438
1.02815
1.04071
1.0444
1.05235
1.0612
1.0696
1.07468
1.08007
1.08575
1.08942
1.09342
1.09717
1.10128
1.10584
1.10991
1.11476
0.147903
0.147942
0.147984
0.148026
0.148069
0.148113
0.148158
0.148204
0.148254
0.148302
0.148354
0.148407
0.148464
0.148522
0.14858
0.148636
0.148696
0.148754
0.148819
0.148886
0.148946
0.149004
0.14906
0.149112
0.149163
0.149213
0.149265
0.149313
0.149357
0.149395
0.149418
0.149444
0.149443
0.149435
0.14943
0.149433
0.149444
0.158191
0.186477
0.246257
0.333954
0.446294
0.526724
0.5978
0.639172
0.657997
0.662091
0.655241
0.656884
0.662244
0.666111
0.672845
0.686673
0.697004
0.695336
0.688656
0.683633
0.67895
0.680896
0.68715
0.696671
0.702426
0.702278
0.701008
0.704143
0.71271
0.723659
0.732435
0.739272
0.748385
0.759112
0.770803
0.783177
0.796307
0.809421
0.823841
0.840051
0.857248
0.876156
0.895198
0.914387
0.935608
0.956098
0.973337
0.985499
0.994482
1.0085
1.02533
1.03823
1.04767
1.05352
1.06
1.06752
1.07617
1.08506
1.08794
1.08829
1.09051
1.09544
1.10514
0.148338
0.148368
0.1484
0.148435
0.148468
0.148506
0.148544
0.148583
0.148626
0.148673
0.148722
0.148772
0.148821
0.148873
0.148925
0.148976
0.149026
0.149077
0.149126
0.14917
0.149211
0.149249
0.149286
0.149318
0.149349
0.149384
0.149419
0.149452
0.149476
0.149492
0.1495
0.149507
0.149513
0.149507
0.149504
0.14951
0.149533
0.149575
0.149625
0.149696
0.14974
0.157813
0.189186
0.247866
0.346292
0.448959
0.550056
0.605102
0.647534
0.660206
0.667805
0.668425
0.672274
0.675522
0.676576
0.678961
0.682232
0.680685
0.677556
0.676059
0.676489
0.680922
0.686087
0.687889
0.68756
0.688136
0.692154
0.697333
0.700918
0.703338
0.708619
0.716695
0.7255
0.734097
0.744178
0.754834
0.768786
0.785003
0.802088
0.820716
0.840787
0.859838
0.877488
0.893955
0.911415
0.93123
0.949847
0.964504
0.977266
0.991534
1.00513
1.01755
1.02804
1.03801
1.04725
1.05672
1.06505
1.07056
1.07252
1.07879
0.148693
0.148719
0.148749
0.148782
0.148815
0.148852
0.148891
0.148929
0.14897
0.149015
0.149061
0.149102
0.149142
0.149182
0.149219
0.149254
0.149294
0.14933
0.149359
0.149382
0.149399
0.149417
0.149438
0.149459
0.149479
0.149503
0.14953
0.149551
0.149564
0.149571
0.149577
0.149585
0.149578
0.149561
0.149559
0.149564
0.14959
0.149638
0.149695
0.149748
0.149803
0.149829
0.149835
0.149833
0.149809
0.160739
0.200898
0.286873
0.396623
0.497029
0.576439
0.615824
0.642709
0.651518
0.66208
0.679955
0.688507
0.684906
0.681006
0.676049
0.672699
0.673212
0.675802
0.679558
0.68244
0.68229
0.681156
0.681631
0.684006
0.686691
0.688982
0.692327
0.696472
0.700166
0.704853
0.712293
0.720591
0.732093
0.745539
0.75973
0.775102
0.788978
0.804138
0.819981
0.837221
0.855568
0.873324
0.889479
0.907574
0.925025
0.940536
0.955305
0.968203
0.979702
0.990357
1.00145
1.0136
1.02597
1.03445
1.04648
0.149015
0.149041
0.149072
0.149106
0.149139
0.149174
0.149211
0.149243
0.149278
0.149317
0.149353
0.149385
0.149413
0.149434
0.14945
0.149465
0.149485
0.149506
0.149522
0.149531
0.149533
0.149537
0.149546
0.14956
0.149577
0.1496
0.149623
0.149634
0.149639
0.149643
0.149648
0.149647
0.149628
0.149605
0.149603
0.14961
0.149639
0.149686
0.149725
0.149759
0.149776
0.149773
0.149775
0.149782
0.149784
0.149753
0.149705
0.149708
0.151442
0.179038
0.241163
0.346524
0.460664
0.559613
0.621356
0.66917
0.680085
0.685832
0.688207
0.68102
0.673775
0.673012
0.675103
0.679963
0.683623
0.682512
0.679309
0.677898
0.67853
0.680525
0.682934
0.683766
0.685321
0.687965
0.691304
0.69572
0.701262
0.706347
0.713483
0.721236
0.731344
0.743188
0.751955
0.76417
0.777164
0.788917
0.80184
0.816323
0.83117
0.845761
0.861239
0.87673
0.89182
0.905512
0.918925
0.931787
0.944157
0.956072
0.967991
0.985004
0.149333
0.149356
0.149383
0.14941
0.149437
0.149465
0.149491
0.149514
0.149536
0.149558
0.149576
0.14959
0.149601
0.14961
0.149613
0.149613
0.149614
0.149617
0.149626
0.149627
0.149622
0.149622
0.149625
0.149635
0.149654
0.149679
0.1497
0.149707
0.149709
0.14971
0.149709
0.149699
0.14967
0.149653
0.149653
0.149663
0.14969
0.149724
0.149725
0.149709
0.149689
0.14969
0.149707
0.149744
0.149765
0.149763
0.149792
0.149854
0.149925
0.150046
0.150137
0.150152
0.164032
0.219887
0.319959
0.456178
0.559888
0.634214
0.676441
0.679721
0.680333
0.680314
0.680598
0.682755
0.683955
0.682218
0.678952
0.677023
0.677881
0.680221
0.681245
0.681021
0.681447
0.683118
0.686025
0.689111
0.692214
0.697376
0.702022
0.708471
0.712389
0.716751
0.72328
0.728311
0.738004
0.749448
0.758435
0.767351
0.779212
0.790284
0.800535
0.809754
0.820666
0.834503
0.84806
0.860234
0.872381
0.884021
0.893108
0.910291
0.149604
0.149616
0.149628
0.149638
0.149649
0.149662
0.149676
0.149689
0.1497
0.149709
0.149713
0.149708
0.149702
0.149701
0.149695
0.149679
0.149672
0.149673
0.149672
0.149664
0.149658
0.149659
0.149666
0.149687
0.149717
0.149753
0.14978
0.14979
0.149795
0.149794
0.149784
0.149751
0.14973
0.149731
0.149733
0.149744
0.149743
0.149729
0.149693
0.149651
0.149642
0.149647
0.149681
0.149734
0.149778
0.149866
0.149977
0.150059
0.150161
0.150274
0.150301
0.150296
0.150265
0.150211
0.150089
0.160508
0.218849
0.325534
0.47943
0.583549
0.664186
0.67673
0.682415
0.685451
0.685451
0.683555
0.681648
0.681937
0.682274
0.682063
0.680992
0.679761
0.680487
0.683766
0.687984
0.691145
0.693561
0.695466
0.698496
0.702695
0.707694
0.710876
0.715417
0.719948
0.723741
0.729737
0.735996
0.741944
0.746374
0.753582
0.763668
0.772132
0.778164
0.783531
0.793882
0.803601
0.813256
0.82317
0.831712
0.847071
0.149732
0.149734
0.149736
0.14974
0.149746
0.149752
0.149755
0.149757
0.149759
0.149759
0.149754
0.149738
0.149727
0.149721
0.14971
0.149689
0.149681
0.149681
0.149679
0.149672
0.149672
0.149677
0.149698
0.149742
0.149798
0.149852
0.149882
0.149895
0.149896
0.149888
0.149851
0.149807
0.149798
0.149802
0.149807
0.149803
0.149771
0.149718
0.149675
0.149643
0.149638
0.149644
0.14968
0.149758
0.149908
0.150088
0.150191
0.150237
0.150275
0.150319
0.150325
0.150311
0.150245
0.150097
0.149957
0.149883
0.149776
0.14961
0.167574
0.245446
0.39097
0.526989
0.617903
0.673789
0.678859
0.681667
0.68951
0.691986
0.689993
0.685216
0.682548
0.682164
0.684142
0.687954
0.691404
0.693886
0.696072
0.698591
0.701873
0.704621
0.706877
0.709209
0.71202
0.716269
0.719576
0.722119
0.727166
0.732278
0.736681
0.738719
0.741025
0.748307
0.757191
0.76395
0.766624
0.771954
0.778325
0.784492
0.79197
0.802687
0.149738
0.149739
0.149741
0.149749
0.149764
0.149771
0.149771
0.149769
0.149766
0.149761
0.149744
0.14972
0.149714
0.14971
0.149699
0.149681
0.149676
0.149677
0.149681
0.149687
0.1497
0.149732
0.149789
0.149862
0.149921
0.14996
0.149975
0.149973
0.149962
0.149933
0.149873
0.149825
0.149814
0.149815
0.149816
0.149797
0.149722
0.149689
0.14968
0.149662
0.149653
0.149657
0.149698
0.14987
0.150178
0.150335
0.150373
0.150358
0.150308
0.150315
0.150308
0.15025
0.150124
0.149933
0.14981
0.149749
0.149659
0.149568
0.14956
0.149587
0.149683
0.19426
0.298821
0.462823
0.58447
0.658404
0.693102
0.694652
0.694114
0.688258
0.686802
0.688591
0.692115
0.694758
0.69637
0.698365
0.700435
0.702819
0.705434
0.707005
0.709096
0.71162
0.714581
0.718384
0.721517
0.723648
0.726295
0.729244
0.732627
0.736703
0.738362
0.739785
0.744074
0.750067
0.755418
0.756592
0.757784
0.759719
0.761924
0.770678
0.149765
0.149769
0.149781
0.149796
0.149801
0.149801
0.149799
0.149798
0.149793
0.149788
0.149788
0.149786
0.149775
0.149755
0.149749
0.14975
0.149756
0.149766
0.149788
0.149816
0.149844
0.149883
0.149935
0.149977
0.150007
0.15001
0.150005
0.149988
0.149954
0.149889
0.149803
0.149751
0.149746
0.149754
0.149757
0.14974
0.149695
0.149689
0.149706
0.149723
0.149727
0.149734
0.149803
0.150106
0.15046
0.150499
0.150486
0.150418
0.150278
0.150194
0.150138
0.15007
0.149935
0.149771
0.149694
0.149671
0.149625
0.149579
0.149615
0.149801
0.150149
0.150632
0.150907
0.166984
0.247221
0.395693
0.555825
0.637125
0.684108
0.683503
0.691845
0.698905
0.700336
0.699724
0.702016
0.705078
0.70717
0.709178
0.710024
0.711113
0.712543
0.714906
0.718038
0.720935
0.724011
0.726574
0.728875
0.73135
0.733951
0.736061
0.738839
0.740759
0.742371
0.744719
0.74932
0.751257
0.754743
0.758381
0.760644
0.765756
0.149811
0.149826
0.149844
0.14985
0.149854
0.149858
0.149862
0.149865
0.149871
0.149889
0.149904
0.149904
0.149899
0.149883
0.149875
0.149876
0.149879
0.149883
0.149899
0.149921
0.14993
0.149945
0.149984
0.149991
0.149987
0.149976
0.149943
0.149883
0.149808
0.149711
0.149647
0.149646
0.14966
0.149705
0.149719
0.14972
0.149743
0.149801
0.149881
0.149946
0.149958
0.149967
0.150044
0.15033
0.150559
0.150569
0.15054
0.150429
0.150135
0.149921
0.149887
0.149862
0.149787
0.149686
0.149643
0.149644
0.149658
0.149685
0.149873
0.150345
0.151053
0.151443
0.151621
0.151518
0.151225
0.153682
0.204755
0.349054
0.528982
0.633745
0.692998
0.697738
0.704286
0.704303
0.713016
0.712837
0.715322
0.716684
0.71647
0.717419
0.719057
0.721606
0.7248
0.726424
0.728422
0.730294
0.732077
0.7342
0.736338
0.738977
0.742156
0.743977
0.744304
0.745907
0.748346
0.751889
0.755286
0.758411
0.761514
0.764746
0.149917
0.149921
0.149927
0.149935
0.149943
0.149951
0.149958
0.149965
0.149983
0.150016
0.150029
0.150029
0.150025
0.150007
0.149976
0.149961
0.149951
0.149939
0.149931
0.149927
0.149919
0.149903
0.149876
0.149861
0.149856
0.149845
0.149811
0.149746
0.149663
0.149592
0.149579
0.149584
0.149611
0.149677
0.14977
0.149861
0.149953
0.150077
0.150209
0.150227
0.150198
0.150186
0.150219
0.150384
0.15052
0.15053
0.150502
0.150363
0.150031
0.149745
0.149714
0.149723
0.149712
0.149666
0.149639
0.149678
0.149871
0.150231
0.150707
0.151316
0.152103
0.152086
0.15184
0.151813
0.152305
0.153153
0.154263
0.155293
0.192741
0.322726
0.510285
0.624774
0.695781
0.709226
0.73055
0.723148
0.729114
0.726299
0.726927
0.730627
0.731638
0.733187
0.734984
0.735417
0.736927
0.73937
0.741978
0.743483
0.744526
0.744838
0.745966
0.747546
0.748345
0.749627
0.75113
0.754914
0.758812
0.761784
0.764595
0.766413
0.150037
0.150033
0.150034
0.150042
0.150046
0.150044
0.150042
0.150045
0.150063
0.15008
0.150079
0.150076
0.150067
0.150038
0.149988
0.149943
0.149911
0.14987
0.149813
0.149758
0.149709
0.149681
0.149677
0.14969
0.149732
0.149743
0.149735
0.149703
0.149619
0.14958
0.149585
0.14959
0.149642
0.149828
0.150086
0.150207
0.15023
0.150284
0.150371
0.150363
0.150285
0.150258
0.150266
0.150283
0.150257
0.150255
0.150249
0.150188
0.149978
0.149722
0.149664
0.149675
0.149686
0.149724
0.149777
0.149973
0.150569
0.151562
0.152282
0.152542
0.152895
0.153255
0.153126
0.153378
0.154472
0.156573
0.159549
0.161792
0.162851
0.164029
0.190065
0.307826
0.493286
0.644955
0.71535
0.735484
0.757511
0.746412
0.750906
0.752364
0.748815
0.752016
0.752445
0.753465
0.754879
0.755655
0.757162
0.757531
0.757501
0.757605
0.758976
0.76134
0.762804
0.763255
0.763528
0.76456
0.765442
0.766387
0.768215
0.769856
0.150045
0.150031
0.150031
0.15003
0.150014
0.149974
0.14996
0.149958
0.149952
0.149937
0.149909
0.149884
0.149853
0.149812
0.149771
0.149729
0.149678
0.149622
0.149572
0.149544
0.149532
0.149533
0.149543
0.149585
0.149678
0.149722
0.149727
0.149708
0.149703
0.149749
0.149847
0.149888
0.149957
0.150194
0.150446
0.15047
0.150441
0.150386
0.150382
0.150365
0.150264
0.150219
0.150232
0.15021
0.15011
0.15007
0.150076
0.150067
0.149954
0.149755
0.149685
0.149714
0.149877
0.15034
0.150943
0.151503
0.152147
0.153194
0.154072
0.153896
0.153916
0.154583
0.155614
0.156907
0.158415
0.161284
0.164777
0.166966
0.168649
0.1709
0.173052
0.174861
0.19364
0.294422
0.478664
0.65143
0.735226
0.764124
0.791232
0.788254
0.777673
0.77987
0.775675
0.780784
0.781852
0.782129
0.78203
0.780885
0.781363
0.781233
0.781308
0.781358
0.781552
0.78141
0.780956
0.781778
0.782649
0.783116
0.783834
0.784766
0.149712
0.14965
0.149617
0.149588
0.149569
0.149563
0.149558
0.149546
0.14953
0.149519
0.149515
0.149504
0.149476
0.149472
0.149479
0.149496
0.149492
0.149467
0.149446
0.149449
0.149461
0.149481
0.149517
0.14958
0.149675
0.14985
0.150003
0.150038
0.150078
0.150233
0.150383
0.150413
0.150439
0.150524
0.150606
0.150612
0.150585
0.150464
0.150384
0.150327
0.150238
0.150203
0.150241
0.150223
0.150123
0.150057
0.150062
0.150092
0.150174
0.150216
0.150235
0.150461
0.151143
0.152271
0.153456
0.154462
0.154752
0.155049
0.155902
0.156071
0.156375
0.157367
0.159798
0.163222
0.16662
0.168492
0.17032
0.172731
0.174819
0.176646
0.179405
0.183858
0.18639
0.187792
0.196649
0.280068
0.463067
0.659786
0.76369
0.80767
0.818059
0.82491
0.813224
0.818281
0.812263
0.816482
0.816333
0.815054
0.813808
0.812072
0.811003
0.810789
0.81159
0.811634
0.811148
0.810949
0.810464
0.810239
0.809377
0.807303
0.149148
0.149147
0.149149
0.149155
0.149167
0.149183
0.149198
0.149209
0.149223
0.149255
0.149294
0.149312
0.14933
0.149362
0.149412
0.149465
0.149531
0.149618
0.149725
0.149822
0.149892
0.149965
0.150052
0.150142
0.150266
0.150448
0.150568
0.150628
0.150692
0.150772
0.15083
0.150842
0.150828
0.150776
0.150703
0.150674
0.150628
0.150491
0.150384
0.150395
0.150463
0.150533
0.150509
0.150348
0.150196
0.150174
0.150255
0.15056
0.151233
0.15209
0.152917
0.153668
0.154507
0.155436
0.156342
0.157725
0.158167
0.158249
0.158715
0.160201
0.162178
0.164656
0.167448
0.17036
0.173514
0.175471
0.176752
0.178717
0.181398
0.184454
0.187561
0.191348
0.193943
0.196246
0.198428
0.20011
0.202049
0.272616
0.446695
0.65899
0.791755
0.836549
0.850771
0.871365
0.853951
0.858218
0.850286
0.85253
0.853445
0.853205
0.852072
0.849985
0.848538
0.847392
0.847409
0.847204
0.846041
0.846002
0.845697
0.843937
0.149225
0.14926
0.149291
0.149313
0.149351
0.149414
0.149502
0.149601
0.149687
0.149778
0.149893
0.150023
0.150116
0.150196
0.150291
0.150391
0.150493
0.150612
0.15074
0.15083
0.150879
0.150913
0.150954
0.15102
0.151082
0.151122
0.151167
0.151174
0.151159
0.15114
0.151133
0.151133
0.151113
0.151034
0.150852
0.150695
0.150572
0.150504
0.150532
0.150641
0.150835
0.150966
0.151085
0.151355
0.151444
0.151558
0.151906
0.152665
0.153965
0.155515
0.157104
0.158374
0.159258
0.159817
0.160227
0.161047
0.162389
0.163601
0.165057
0.167318
0.170342
0.173433
0.176565
0.178495
0.180088
0.182258
0.184126
0.185918
0.188485
0.192473
0.195855
0.197917
0.200086
0.202258
0.20471
0.208161
0.21221
0.21579
0.217209
0.267449
0.435606
0.654348
0.813553
0.874585
0.885894
0.91302
0.892804
0.897372
0.890851
0.892135
0.893544
0.894291
0.892806
0.88987
0.888935
0.888943
0.888561
0.888707
0.887727
0.885226
0.150428
0.150541
0.150634
0.150694
0.15076
0.150845
0.150938
0.151039
0.151102
0.151133
0.151162
0.151187
0.15121
0.151242
0.151277
0.151313
0.151354
0.151391
0.151431
0.151467
0.151482
0.151498
0.151538
0.151539
0.151503
0.151479
0.151469
0.151419
0.151321
0.15129
0.151271
0.15127
0.151264
0.151163
0.150862
0.15079
0.150829
0.150856
0.15096
0.151322
0.152057
0.153082
0.154216
0.155417
0.156578
0.157585
0.158435
0.159381
0.160398
0.161195
0.162071
0.163038
0.163841
0.16439
0.165024
0.166144
0.168302
0.171399
0.174501
0.177366
0.18042
0.182537
0.184343
0.185988
0.187029
0.188495
0.191052
0.194001
0.197232
0.200362
0.203016
0.205043
0.207414
0.209882
0.213017
0.217309
0.220153
0.22239
0.225246
0.226739
0.228551
0.270037
0.426218
0.652999
0.831279
0.908156
0.919158
0.952374
0.933949
0.935739
0.930074
0.931188
0.932621
0.934109
0.933528
0.930913
0.928528
0.928538
0.928954
0.928388
0.152293
0.152276
0.152249
0.152199
0.152142
0.152112
0.152088
0.152055
0.152008
0.151958
0.151885
0.151778
0.151757
0.151781
0.151793
0.151785
0.15179
0.151817
0.151807
0.151793
0.151804
0.151841
0.151857
0.1518
0.151626
0.151585
0.151603
0.15162
0.151621
0.151663
0.151822
0.152118
0.152533
0.152887
0.153271
0.153766
0.154481
0.155339
0.156411
0.157661
0.158839
0.159804
0.160794
0.161927
0.163087
0.164192
0.165154
0.165957
0.166306
0.166622
0.167273
0.168561
0.170321
0.172203
0.174407
0.177107
0.180015
0.183055
0.185599
0.187142
0.188979
0.190288
0.190927
0.192113
0.193916
0.196705
0.199944
0.203846
0.207343
0.208889
0.210681
0.212658
0.214675
0.21778
0.220919
0.225306
0.228418
0.228613
0.230612
0.234629
0.239981
0.242961
0.244435
0.273526
0.420422
0.653905
0.847642
0.944168
0.952491
0.984452
0.9743
0.972979
0.966003
0.966913
0.96989
0.970117
0.969636
0.968536
0.967219
0.967938
0.151803
0.151784
0.151725
0.151622
0.151611
0.151629
0.151679
0.151696
0.151719
0.151753
0.151755
0.15174
0.151747
0.151825
0.151915
0.151958
0.152042
0.152209
0.152348
0.152474
0.152654
0.152962
0.153328
0.153659
0.153952
0.154284
0.15474
0.155355
0.156085
0.156934
0.157864
0.158791
0.159648
0.160584
0.16163
0.162692
0.163752
0.164788
0.165668
0.166216
0.166592
0.167015
0.167703
0.168548
0.169378
0.170291
0.171289
0.172194
0.173391
0.175103
0.177163
0.179598
0.182274
0.185204
0.18778
0.189687
0.191132
0.192508
0.193645
0.19427
0.195046
0.196682
0.198534
0.200586
0.204153
0.207942
0.211315
0.213642
0.215249
0.216307
0.217548
0.219501
0.222745
0.227869
0.23155
0.233174
0.235672
0.237562
0.240103
0.24471
0.248391
0.251241
0.254329
0.256128
0.258297
0.281148
0.421823
0.662502
0.863202
0.977844
0.985917
1.01458
1.00805
1.00608
1.00118
0.998266
1.00143
1.00459
1.0041
1.00523
0.153768
0.154024
0.154328
0.154632
0.154916
0.155173
0.155456
0.155788
0.156163
0.156627
0.157074
0.157422
0.157763
0.158182
0.158671
0.159203
0.159737
0.160259
0.160785
0.161282
0.161798
0.162367
0.162943
0.163496
0.16406
0.164675
0.165312
0.165916
0.166531
0.167171
0.167724
0.168231
0.168835
0.169551
0.170259
0.171029
0.171789
0.172433
0.173044
0.173698
0.174506
0.175511
0.176618
0.17777
0.179109
0.180692
0.182668
0.18489
0.187219
0.189274
0.191081
0.192812
0.194221
0.195534
0.196882
0.197657
0.198187
0.198885
0.200057
0.201718
0.203741
0.206857
0.210377
0.214041
0.216715
0.21855
0.220045
0.220767
0.221808
0.22371
0.226495
0.230627
0.234336
0.23763
0.240358
0.240556
0.241744
0.245684
0.25034
0.254996
0.257186
0.259041
0.261807
0.265852
0.271731
0.273427
0.274841
0.292274
0.431905
0.682155
0.887065
1.00915
1.01655
1.04137
1.03805
1.03348
1.0316
1.03125
1.03392
1.03907
0.165663
0.165853
0.166052
0.166257
0.16647
0.16668
0.166902
0.167144
0.167392
0.167654
0.167931
0.168209
0.168491
0.168786
0.169095
0.169409
0.16974
0.170072
0.170403
0.170758
0.17114
0.17154
0.171981
0.172467
0.173008
0.173571
0.174134
0.1747
0.175291
0.17586
0.176476
0.17721
0.177995
0.178838
0.179768
0.18076
0.181824
0.18302
0.18438
0.186007
0.187674
0.189251
0.190647
0.192067
0.193529
0.194966
0.196329
0.197657
0.198772
0.1998
0.200853
0.201637
0.202195
0.202759
0.204085
0.205558
0.206976
0.208751
0.21141
0.214469
0.217732
0.220178
0.222277
0.224117
0.225228
0.226197
0.226908
0.228339
0.230829
0.234559
0.238552
0.242594
0.245165
0.245405
0.247029
0.249903
0.252754
0.257056
0.261223
0.263885
0.266911
0.269655
0.272189
0.275898
0.279486
0.282488
0.287017
0.288337
0.290158
0.308465
0.452984
0.71254
0.924562
1.02902
1.04982
1.07133
1.0711
1.06208
1.06193
1.0666
0.175441
0.175701
0.175973
0.176238
0.176502
0.176793
0.177125
0.177487
0.177858
0.178234
0.178623
0.179021
0.179442
0.179894
0.18036
0.180851
0.181361
0.181879
0.182454
0.183039
0.183663
0.184351
0.185053
0.185775
0.186553
0.187352
0.188204
0.189073
0.189975
0.190927
0.191906
0.19286
0.1938
0.19465
0.195462
0.196304
0.197183
0.198083
0.199032
0.200002
0.200889
0.201718
0.202577
0.203454
0.204178
0.204833
0.205467
0.206262
0.207072
0.20809
0.209417
0.210591
0.211905
0.213552
0.215662
0.218331
0.221045
0.223607
0.225603
0.227501
0.229096
0.230061
0.231006
0.231805
0.233149
0.234925
0.237768
0.241113
0.24447
0.248089
0.250616
0.252219
0.254036
0.255446
0.257207
0.260766
0.265241
0.269232
0.271797
0.272984
0.274974
0.27797
0.282643
0.286125
0.288055
0.292855
0.297116
0.299209
0.303443
0.30522
0.307816
0.330881
0.482853
0.737185
0.968418
1.05649
1.08258
1.09081
1.0976
1.09677
0.191195
0.191434
0.191721
0.192019
0.192312
0.192598
0.192884
0.19318
0.193485
0.193832
0.194203
0.194575
0.19494
0.195303
0.195687
0.196096
0.196523
0.196974
0.19743
0.197913
0.198392
0.19885
0.199318
0.199773
0.200212
0.20069
0.201189
0.201703
0.202238
0.202791
0.203355
0.203927
0.204501
0.205083
0.205715
0.206329
0.206949
0.207596
0.208291
0.208997
0.209763
0.210622
0.211628
0.212624
0.213678
0.214888
0.216208
0.217755
0.219445
0.221299
0.223162
0.225289
0.227414
0.229402
0.230975
0.232237
0.233701
0.23498
0.235928
0.237053
0.238064
0.239233
0.240522
0.242679
0.245319
0.248847
0.252057
0.255256
0.25775
0.259171
0.26051
0.261361
0.263134
0.266706
0.270212
0.273802
0.277555
0.279311
0.281283
0.284277
0.286976
0.290005
0.293928
0.297958
0.301712
0.304497
0.306814
0.311284
0.314867
0.317459
0.322568
0.324841
0.326345
0.355653
0.505979
0.770585
1.01047
1.08118
1.1125
1.1288
0.204054
0.204237
0.204423
0.204607
0.204813
0.20506
0.20534
0.20559
0.205808
0.206038
0.206344
0.206676
0.206993
0.207324
0.207676
0.208042
0.208411
0.208795
0.209209
0.209637
0.210085
0.210567
0.211075
0.211586
0.212104
0.212638
0.213205
0.21379
0.214379
0.215007
0.215684
0.216432
0.217278
0.218228
0.21926
0.220333
0.221413
0.22246
0.22348
0.224504
0.225607
0.226751
0.227999
0.229353
0.230793
0.232169
0.233456
0.234602
0.235737
0.236843
0.237836
0.238851
0.240021
0.241241
0.241966
0.242573
0.243523
0.244655
0.246037
0.247473
0.249763
0.25244
0.25565
0.258652
0.261356
0.263765
0.265562
0.267148
0.268673
0.269556
0.271054
0.273651
0.277159
0.280513
0.284357
0.287347
0.28949
0.291144
0.293409
0.29612
0.299909
0.303975
0.30622
0.309791
0.314101
0.315594
0.318574
0.322253
0.324453
0.32922
0.332991
0.335879
0.339699
0.342174
0.343992
0.382473
0.545889
0.817207
1.05283
1.12414
0.219482
0.219715
0.219992
0.220268
0.220542
0.220801
0.221048
0.221288
0.221621
0.222028
0.22236
0.222634
0.222944
0.223329
0.223759
0.22417
0.224568
0.224989
0.225433
0.225923
0.226455
0.227
0.227543
0.228097
0.228672
0.229285
0.22991
0.230544
0.231204
0.231871
0.232554
0.233244
0.233926
0.234627
0.235338
0.236084
0.236839
0.23762
0.238418
0.239216
0.239991
0.240738
0.241469
0.2422
0.242946
0.243745
0.244619
0.245428
0.246326
0.247248
0.248157
0.249125
0.250392
0.252123
0.25386
0.255653
0.257571
0.26015
0.262737
0.265405
0.267599
0.269874
0.27191
0.273697
0.275395
0.276316
0.277406
0.278325
0.279824
0.282688
0.285797
0.289435
0.292693
0.295603
0.298332
0.299878
0.301177
0.303614
0.306951
0.309826
0.312751
0.317008
0.320963
0.322689
0.325292
0.328938
0.331448
0.33365
0.338646
0.34222
0.343454
0.346629
0.349277
0.35264
0.357396
0.360396
0.361776
0.41563
0.589248
0.944071
0.235607
0.235816
0.236018
0.236212
0.236428
0.236678
0.23698
0.237273
0.23755
0.23779
0.238051
0.238355
0.238694
0.239037
0.239365
0.239702
0.240062
0.240429
0.2408
0.241184
0.241567
0.241952
0.242359
0.242814
0.243311
0.243808
0.244309
0.244845
0.245431
0.246033
0.246626
0.247202
0.247777
0.248384
0.249006
0.249655
0.250348
0.251098
0.251973
0.252936
0.253939
0.254946
0.255952
0.257028
0.258185
0.259422
0.260783
0.262258
0.263852
0.2655
0.267275
0.269063
0.270768
0.272242
0.273939
0.275823
0.277521
0.278885
0.280286
0.281734
0.282644
0.283623
0.2844
0.28541
0.287003
0.28875
0.29094
0.293506
0.296819
0.300095
0.303587
0.306495
0.308549
0.310678
0.311878
0.313502
0.316123
0.318922
0.321918
0.325852
0.32884
0.331078
0.333971
0.33602
0.337836
0.341022
0.344894
0.349025
0.352069
0.354332
0.357926
0.360682
0.363265
0.366677
0.369247
0.371483
0.373998
0.375922
0.377111
0.554106
0.253588
0.25378
0.253994
0.254235
0.254482
0.254748
0.255025
0.255277
0.255555
0.255889
0.256211
0.256514
0.256841
0.257202
0.257571
0.25795
0.258337
0.258732
0.259141
0.259565
0.260013
0.260483
0.260975
0.261487
0.262005
0.262518
0.263082
0.263718
0.264363
0.264999
0.265665
0.266389
0.267146
0.267915
0.268703
0.269511
0.270364
0.271257
0.272178
0.273106
0.274053
0.275064
0.276118
0.277169
0.278222
0.279279
0.280333
0.281406
0.282466
0.283482
0.284539
0.285686
0.286784
0.287601
0.288493
0.289582
0.290526
0.291339
0.292547
0.2941
0.295676
0.297413
0.299643
0.302459
0.305286
0.308619
0.311727
0.31473
0.317194
0.318936
0.320579
0.321973
0.323486
0.324669
0.326565
0.32911
0.332226
0.335538
0.338167
0.340753
0.343661
0.34495
0.346928
0.350466
0.353929
0.356558
0.35946
0.361946
0.363247
0.365963
0.368782
0.370942
0.374079
0.376655
0.378607
0.380507
0.382687
0.384963
0.386861
0.388639
0.273757
0.273905
0.274106
0.274349
0.274614
0.274869
0.275101
0.275332
0.275588
0.275862
0.276158
0.276486
0.276805
0.27711
0.277452
0.277824
0.2782
0.278584
0.278987
0.27941
0.279852
0.280305
0.28076
0.281223
0.281696
0.282189
0.282693
0.283203
0.283726
0.284293
0.284905
0.285545
0.286202
0.286864
0.287558
0.288262
0.28897
0.28968
0.29037
0.291104
0.291883
0.29269
0.293528
0.294389
0.295287
0.296217
0.297138
0.298173
0.299318
0.300446
0.301554
0.302766
0.304326
0.306093
0.30779
0.309435
0.31136
0.313455
0.315591
0.317642
0.319943
0.322247
0.324539
0.326649
0.328446
0.329835
0.330912
0.332101
0.332955
0.334037
0.334966
0.33657
0.338817
0.341613
0.344599
0.347774
0.350271
0.352826
0.355252
0.356821
0.358654
0.361369
0.363709
0.365758
0.368123
0.370227
0.371803
0.373557
0.376158
0.378391
0.380178
0.382353
0.383751
0.384847
0.386709
0.388676
0.39019
0.39161
0.392746
0.394233
0.296379
0.296596
0.296833
0.297064
0.297285
0.297495
0.297728
0.298028
0.298343
0.298628
0.298893
0.299167
0.29948
0.299821
0.300157
0.300482
0.300823
0.301187