/*--------------------------------*- C++ -*----------------------------------*\
  =========                 |
  \\      /  F ield         | OpenFOAM: The Open Source CFD Toolbox
   \\    /   O peration     | Website:  https://openfoam.org
    \\  /    A nd           | Version:  7
     \\/     M anipulation  |
\*---------------------------------------------------------------------------*/
FoamFile
{
    version     2.0;
    format      ascii;
    class       volScalarField;
    location    "2";
    object      p;
}
// * * * * * * * * * * * * * * * * * * * * * * * * * * * * * * * * * * * * * //

dimensions      [1 -1 -2 0 0 0 0];

internalField   nonuniform List<scalar> 
3600
(
0.577195
0.594207
0.615545
0.639931
0.667429
0.697316
0.731284
0.767427
0.811605
0.85158
0.90709
0.931037
0.958931
0.964144
0.950515
0.976005
1.03064
1.0465
1.05833
1.06534
0.569726
0.570227
0.571744
0.575069
0.580897
0.592299
0.609727
0.636346
0.671454
0.719434
0.77318
0.830999
0.881967
0.921826
0.9381
0.98386
1.02719
1.04019
1.06198
1.0686
0.576085
0.576341
0.576912
0.577999
0.580082
0.582235
0.585844
0.591247
0.597747
0.609859
0.629764
0.670117
0.726295
0.816695
0.901882
0.964135
0.998308
1.02909
1.07297
1.07301
0.588166
0.589346
0.590934
0.592601
0.594301
0.596199
0.598311
0.600385
0.601032
0.600883
0.599981
0.600633
0.60798
0.637735
0.715204
0.827196
0.928511
1.01758
1.08949
1.08271
0.598363
0.598719
0.598896
0.599082
0.599422
0.599489
0.599219
0.598391
0.596523
0.592913
0.586094
0.579994
0.579538
0.582187
0.600516
0.651148
0.79985
0.981451
1.08167
1.0851
0.59311
0.592252
0.591115
0.589945
0.588701
0.586848
0.584495
0.580665
0.575698
0.569238
0.563317
0.562311
0.564148
0.566005
0.568208
0.576331
0.629396
0.780235
1.0029
1.06717
0.594994
0.593489
0.592843
0.591822
0.590027
0.587815
0.585713
0.583201
0.580825
0.578306
0.576156
0.575822
0.576891
0.575893
0.576103
0.582189
0.602037
0.653405
0.793945
1.00068
0.720294
0.717168
0.714118
0.71105
0.707328
0.702845
0.696544
0.694349
0.690763
0.68723
0.684244
0.678539
0.668451
0.654017
0.641489
0.63864
0.643277
0.666178
0.705514
0.827578
1.01579
1.01073
1.00542
1.00039
0.99341
0.984585
0.974109
0.961779
0.947058
0.929224
0.908219
0.882551
0.851917
0.820296
0.788846
0.756795
0.731908
0.715811
0.724691
0.777508
1.25003
1.24833
1.2462
1.24325
1.23908
1.2344
1.22883
1.22208
1.21332
1.20198
1.18708
1.1675
1.14316
1.11254
1.07631
1.03498
0.99147
0.94661
0.903924
0.857908
1.24534
1.24452
1.24339
1.24204
1.24034
1.238
1.23617
1.23342
1.2293
1.22401
1.21703
1.20784
1.19659
1.18166
1.16139
1.13596
1.10496
1.07076
1.03558
0.969634
1.09885
1.0995
1.10004
1.1009
1.10212
1.10345
1.10495
1.10661
1.10852
1.11009
1.1119
1.11231
1.11216
1.11016
1.10442
1.09396
1.07784
1.05565
1.03063
1.00462
1.00775
1.00789
1.00806
1.00826
1.00851
1.00881
1.00919
1.00966
1.01026
1.01099
1.0119
1.01294
1.01409
1.01529
1.01629
1.01619
1.01504
1.01194
1.00743
1.00168
1.00014
1.00015
1.00015
1.00016
1.00016
1.00017
1.00018
1.0002
1.00021
1.00024
1.00026
1.0003
1.00035
1.00041
1.00047
1.00053
1.00053
1.00047
1.00033
1.00012
1
1
1
1
1
1
1
1
1
1
1
1
1
1
1.00001
1.00001
1.00001
1.00001
1
1
0.564799
0.569685
0.575968
0.586919
0.598075
0.593902
0.5967
0.723219
1.02033
1.25222
1.24611
1.09776
1.0076
1.00014
1
0.566866
0.571368
0.576089
0.585664
0.597803
0.594473
0.598939
0.728789
1.02848
1.25604
1.24662
1.09621
1.00732
1.00013
1
0.568364
0.572801
0.576229
0.584177
0.597476
0.59486
0.600884
0.734628
1.03769
1.26014
1.24675
1.09455
1.00704
1.00013
1
0.57042
0.574587
0.577269
0.582778
0.59696
0.594979
0.601683
0.741453
1.0484
1.26426
1.24707
1.09257
1.00673
1.00012
1
0.573034
0.576519
0.57865
0.581668
0.596543
0.594497
0.601248
0.749397
1.06045
1.26878
1.2479
1.09038
1.00639
1.00011
1
0.576148
0.578635
0.580233
0.58088
0.596007
0.593195
0.60049
0.759076
1.07425
1.27388
1.24897
1.08799
1.00602
1.0001
1
0.579765
0.580775
0.581866
0.580264
0.595069
0.592316
0.600748
0.771057
1.08997
1.27942
1.24956
1.0853
1.00561
1.0001
1
0.583786
0.582727
0.582997
0.579517
0.593909
0.592091
0.602965
0.785838
1.10765
1.28527
1.2497
1.08212
1.00518
1.00009
1
0.588082
0.584572
0.583497
0.57754
0.592953
0.593812
0.610384
0.803689
1.12747
1.29154
1.24967
1.07845
1.00472
1.00008
1
0.592317
0.586272
0.583314
0.574767
0.591341
0.597998
0.621012
0.823805
1.14952
1.29833
1.24897
1.07428
1.00424
1.00007
1
0.596603
0.588077
0.582435
0.571633
0.587662
0.602325
0.63145
0.845551
1.17403
1.30562
1.24818
1.06957
1.00373
1.00006
1
0.600485
0.589923
0.581851
0.568731
0.581711
0.606245
0.645097
0.870871
1.20055
1.31332
1.24648
1.06415
1.0032
1.00005
1
0.603995
0.591762
0.581371
0.566323
0.574458
0.609618
0.663678
0.901442
1.22936
1.32127
1.24257
1.05799
1.00268
1.00004
1
0.606756
0.593409
0.580696
0.564108
0.567742
0.61137
0.686997
0.939677
1.26002
1.32913
1.23633
1.05124
1.00217
1.00003
1
0.608649
0.594993
0.579594
0.561413
0.564107
0.610465
0.716006
0.987766
1.29212
1.33667
1.22751
1.04398
1.0017
1.00002
1
0.609436
0.596928
0.579078
0.559432
0.563609
0.616698
0.754447
1.04821
1.32352
1.34385
1.21509
1.03629
1.00126
1.00002
1
0.606404
0.59832
0.583535
0.559445
0.56602
0.645389
0.805367
1.11836
1.35262
1.35037
1.19764
1.02838
1.00088
1.00001
1
0.597735
0.597908
0.59242
0.569646
0.577431
0.680995
0.867437
1.19636
1.37852
1.35445
1.17405
1.0208
1.00058
1.00001
1
0.587398
0.597835
0.598787
0.584318
0.592343
0.720409
0.952313
1.2785
1.40056
1.35458
1.14625
1.0141
1.00034
1
1
0.577856
0.587279
0.601117
0.599262
0.611807
0.785845
1.07752
1.35466
1.41831
1.34092
1.11399
1.00851
1.00018
1
1
1
1
1
1
1.00005
1.00302
1.07133
1.33942
1.51829
1.51708
1.50677
1.51777
1.53447
1.54001
1.4548
1
1
1
1
1.00006
1.00358
1.07864
1.3503
1.52066
1.51646
1.50594
1.5177
1.53408
1.52276
1.32542
1
1
1
1
1.00007
1.00427
1.08684
1.36017
1.52085
1.51562
1.5049
1.51748
1.53273
1.49169
1.18658
1
1
1
1
1.00009
1.00508
1.09611
1.37247
1.52267
1.51461
1.50363
1.51679
1.52911
1.44181
1.05642
1
1
1
1
1.00011
1.00622
1.10825
1.38996
1.52565
1.5132
1.50255
1.51472
1.52182
1.37847
0.928768
1
1
1
1
1.00014
1.00779
1.12225
1.403
1.52652
1.51271
1.50224
1.51284
1.50406
1.29672
0.818364
1
1
1
1
1.00019
1.00987
1.13813
1.41617
1.52869
1.51268
1.502
1.51
1.4728
1.20733
0.711343
1
1
1
1
1.00027
1.01272
1.15717
1.43081
1.53017
1.5129
1.50133
1.50453
1.42114
1.10655
0.627089
1
1
1
1
1.00039
1.0167
1.17918
1.44517
1.53145
1.51456
1.50141
1.491
1.3483
1.00709
0.548013
1
1
1
1.00001
1.00057
1.02227
1.204
1.45662
1.53277
1.51836
1.5005
1.46232
1.25092
0.908832
0.498235
1
1
1
1.00001
1.00088
1.02997
1.23217
1.46686
1.53341
1.5232
1.49627
1.41234
1.13734
0.81951
0.454221
1
1
1
1.00002
1.00138
1.04092
1.26368
1.47699
1.53369
1.52684
1.48256
1.33288
1.01247
0.743695
0.445427
1
1
1
1.00003
1.00227
1.05608
1.29872
1.48452
1.53399
1.52546
1.44887
1.22542
0.890961
0.682959
0.455302
1
1
1
1.00006
1.00378
1.07702
1.33469
1.4918
1.53261
1.51652
1.38471
1.09597
0.774365
0.63847
0.488178
1
1
1
1.00012
1.0065
1.10442
1.36855
1.49365
1.52813
1.48949
1.28395
0.956102
0.673711
0.613002
0.539333
1
1
1
1.00024
1.0111
1.13929
1.39975
1.49097
1.51667
1.43146
1.15348
0.837251
0.60628
0.581059
0.605775
1
1
1.00001
1.0005
1.01914
1.1817
1.42327
1.48102
1.4926
1.33551
1.00974
0.725965
0.567431
0.559638
0.625477
1
1
1.00001
1.00104
1.032
1.22803
1.44114
1.46787
1.43722
1.19909
0.868467
0.670538
0.563983
0.555726
0.615702
1
1
1.00003
1.00217
1.05203
1.27601
1.4407
1.44549
1.34482
1.05343
0.757588
0.625035
0.564261
0.562865
0.600444
1
1
1.00008
1.00447
1.08056
1.31362
1.43224
1.4126
1.21978
0.902327
0.667004
0.612053
0.580566
0.567737
0.577995
1.54995
1.54499
1.53409
1.51791
1.50716
1.51746
1.51411
1.32853
1.06528
1.00262
1.00004
1
1
1
1
1.54827
1.54368
1.53411
1.51882
1.50738
1.51744
1.51268
1.32016
1.06161
1.00249
1.00004
1
1
1
1
1.54706
1.54257
1.53408
1.51956
1.50796
1.51756
1.51129
1.30846
1.05673
1.00218
1.00003
1
1
1
1
1.5456
1.54121
1.53381
1.52054
1.50845
1.51726
1.51048
1.29848
1.05207
1.0019
1.00003
1
1
1
1
1.54366
1.53957
1.53303
1.52172
1.50829
1.51632
1.50796
1.28608
1.0468
1.00163
1.00002
1
1
1
1
1.54126
1.5376
1.53196
1.52345
1.50792
1.51352
1.50055
1.27073
1.04143
1.00137
1.00002
1
1
1
1
1.53852
1.53556
1.53091
1.5261
1.5082
1.51
1.49282
1.25533
1.03619
1.00113
1.00002
1
1
1
1
1.5356
1.53374
1.53026
1.52965
1.51096
1.50574
1.48403
1.23948
1.031
1.00091
1.00001
1
1
1
1
1.53267
1.53266
1.53073
1.53255
1.51541
1.50255
1.47284
1.22107
1.02576
1.0007
1.00001
1
1
1
1
1.53004
1.53165
1.53096
1.53523
1.52217
1.50186
1.45955
1.19934
1.02066
1.00052
1.00001
1
1
1
1
1.5274
1.5308
1.53143
1.53768
1.53088
1.50584
1.44358
1.17478
1.0158
1.00037
1
1
1
1
1
1.52466
1.53013
1.53254
1.53999
1.53846
1.51046
1.42392
1.14766
1.0114
1.00024
1
1
1
1
1
1.52149
1.52949
1.53434
1.54245
1.54239
1.51155
1.39807
1.11857
1.00764
1.00015
1
1
1
1
1
1.51829
1.52782
1.5356
1.54494
1.54347
1.50947
1.3618
1.08935
1.00475
1.00009
1
1
1
1
1
1.51646
1.52406
1.53531
1.5458
1.54346
1.49664
1.31494
1.06231
1.0027
1.00004
1
1
1
1
1
1.51687
1.52024
1.53072
1.54326
1.5409
1.47082
1.26181
1.03982
1.0014
1.00002
1
1
1
1
1
1.51918
1.5185
1.52335
1.53679
1.53516
1.44578
1.20496
1.02233
1.00063
1.00001
1
1
1
1
1
1.52207
1.51851
1.51686
1.5307
1.53038
1.41299
1.14013
1.01056
1.00024
1
1
1
1
1
1
1.53109
1.5196
1.51296
1.52543
1.52895
1.34744
1.07536
1.00387
1.00007
1
1
1
1
1
1
1.5372
1.52885
1.51546
1.51648
1.49849
1.23199
1.02988
1.00102
1.00002
1
1
1
1
1
1
1
1
1
1
1
1
1
1
1
1
1
1
1
1.0005
1.02865
1
1
1
1
1
1
1
1
1
1
1
1
1.00002
1.00288
1.07582
1
1
1
1
1
1
1
1
1
1
1
1
1.00007
1.00754
1.13095
1
1
1
1
1
1
1
1
1
1
1
1
1.00024
1.01637
1.19052
1
1
1
1
1
1
1
1
1
1
1
1.00001
1.00064
1.02928
1.25628
1
1
1
1
1
1
1
1
1
1
1
1.00002
1.00159
1.04951
1.3242
1
1
1
1
1
1
1
1
1
1
1
1.00005
1.00352
1.07609
1.39796
1
1
1
1
1
1
1
1
1
1
1
1.00014
1.00764
1.11386
1.46958
1
1
1
1
1
1
1
1
1
1
1
1.00037
1.01523
1.16016
1.54446
1
1
1
1
1
1
1
1
1
1
1.00001
1.00099
1.03036
1.21905
1.61005
1
1
1
1
1
1
1
1
1
1
1.00004
1.00253
1.05582
1.28663
1.6689
1
1
1
1
1
1
1
1
1
1
1.00015
1.00675
1.10185
1.35789
1.71541
1
1
1
1
1
1
1
1
1
1.00001
1.00046
1.01652
1.17098
1.43494
1.72607
1
1
1
1
1
1
1
1
1
1.00003
1.00166
1.04237
1.27568
1.49049
1.70499
1
1
1
1
1
1
1
1
1
1.00011
1.00559
1.09903
1.41192
1.52572
1.64026
1
1
1
1
1
1
1
1
1.00001
1.00056
1.02112
1.20655
1.52067
1.55601
1.54633
1
1
1
1
1
1
1
1
1.00005
1.00266
1.06289
1.34147
1.56225
1.56106
1.49749
1
1
1
1
1
1
1
1
1.00028
1.01214
1.15229
1.43853
1.56352
1.5544
1.4989
1
1
1
1
1
1
1
1.00003
1.0016
1.04273
1.28086
1.50688
1.56155
1.54487
1.5082
1
1
1
1
1
1
1
1.00018
1.0083
1.1194
1.39978
1.50967
1.54967
1.53584
1.52682
1
1
1
1
1
1
1
1
1
1
1
1
1
1
1
1
1
1
1
1
1
1
1
1
1
1
1
1
1
1
1
1
1
1
1
1
1
1
1
1
1
1
1
1
1
1
1
1
1
1
1
1
1
1
1
1
1
1
1
1
1
1
1
1
1
1
1
1
1
1
1
1
1
1
1
1
1
1
1
1
1
1
1
1
1
1
1
1
1
1
1
1
1
1
1
1
1
1
1
1
1
1
1
1
1
1
1
1
1
1
1
1
1
1
1
1
1
1
1
1
1
1
1
1
1
1
1
1
1
1
1
1
1
1
1
1
1
1
1
1
1
1
1
1
1
1
1
1
1
1
1
1
1
1
1
1
1
1
1
1
1
1
1
1
1
1
1
1
1
1
1
1
1
1
1
1
1
1
1
1
1
1
1
1
1
1
1
1
1
1
1
1
1
1
1
1
1
1
1
1
1
1
1
1
1
1
1
1
1
1
1
1
1
1
1
1
1
1
1
1
1
1
1
1
1
1
1
1
1
1
1
1
1
1
1
1
1
1
1
1
1
1
1
1
1
1
1
1
1
1
1
1
1
1
1
1
1
1
1
1
1
1
1
1
1
1
1
1
1
1
1
1
1
1
1
1
1
1
1
1
1
1
1
1
1
1
1
1
1
1
1
1
1
1
1
1
1
1
1
1
1
1
1
1
1
1
1
1
1
1
1
1
1
1
1
1
1
1
1
1
1
1
1
1
1
1
1
1
1
1
1
1
1
1
1
1
1
1
1
1
1
1
1
1
1
1
1
1
1
1
1
1
1
1
1
1
1
1
1
1
1
1
1
1
1
1
1
1
1
1
1
1
1
1
1
1
1
1
1
1
1
1
1
1
1
1
1
1
1
1
1
1
1
1
1
1
1
1
1
1
1
1
1
1
1
1
1
1
1
1
1
1
1
1
1
1
1
1
1
1
1
1
1
1
1
1
1
1
1
1
1
1
1
1
1
1
1
1
1
1
1
1
1
1
1
1
1
1
1
1
1
1
1
1
1
1
1
1
1
1
1
1
1
1
1
1
1
1
1
1
1
1
1
1
1
1
1
1
1
1
1
1
1
1
1
1
1
1
1
1
1
1
1
1
1
1
1
1
1
1
1
1
1
1
1
1
1
1
1
1
1
1
1
1
1
1
1
1
1
1
1
1
1
1
1
1
1
1
1
1
1
1
1
1
1
1
1
1
1
1
1
1
1
1
1
1
1
1
1
1
1
1
1
1
1
1
1
1
1
1
1
1
1
1
1
1
1
1
1
1
1
1
1
1
1
1
1
1
1
1
1
1
1
1
1
1
1
1
1
1
1
1
1
1
1
1
1
1
1
1
1.02865
1.0005
1
1
1
1
1
1
1
1
1
1
1
1
1
1.07582
1.00288
1.00002
1
1
1
1
1
1
1
1
1
1
1
1
1.13095
1.00754
1.00007
1
1
1
1
1
1
1
1
1
1
1
1
1.19052
1.01637
1.00024
1
1
1
1
1
1
1
1
1
1
1
1
1.25628
1.02928
1.00064
1.00001
1
1
1
1
1
1
1
1
1
1
1
1.3242
1.04951
1.00159
1.00002
1
1
1
1
1
1
1
1
1
1
1
1.39796
1.07609
1.00352
1.00005
1
1
1
1
1
1
1
1
1
1
1
1.46958
1.11386
1.00764
1.00014
1
1
1
1
1
1
1
1
1
1
1
1.54446
1.16016
1.01523
1.00037
1
1
1
1
1
1
1
1
1
1
1
1.61005
1.21905
1.03036
1.00099
1.00001
1
1
1
1
1
1
1
1
1
1
1.6689
1.28663
1.05582
1.00253
1.00004
1
1
1
1
1
1
1
1
1
1
1.71541
1.35789
1.10185
1.00675
1.00015
1
1
1
1
1
1
1
1
1
1
1.72607
1.43494
1.17098
1.01652
1.00046
1.00001
1
1
1
1
1
1
1
1
1
1.70499
1.49049
1.27568
1.04237
1.00166
1.00003
1
1
1
1
1
1
1
1
1
1.64026
1.52572
1.41192
1.09903
1.00559
1.00011
1
1
1
1
1
1
1
1
1
1.54633
1.55601
1.52067
1.20655
1.02112
1.00056
1.00001
1
1
1
1
1
1
1
1
1.49749
1.56106
1.56225
1.34147
1.06289
1.00266
1.00005
1
1
1
1
1
1
1
1
1.4989
1.5544
1.56352
1.43853
1.15229
1.01214
1.00028
1
1
1
1
1
1
1
1
1.5082
1.54487
1.56155
1.50688
1.28086
1.04273
1.0016
1.00003
1
1
1
1
1
1
1
1.52682
1.53584
1.54967
1.50966
1.39978
1.1194
1.0083
1.00018
1
1
1
1
1
1
1
1
1
1
1
1.00004
1.00262
1.06528
1.32853
1.51411
1.51746
1.50716
1.51791
1.53409
1.54499
1.54995
1
1
1
1
1.00004
1.00249
1.06161
1.32016
1.51268
1.51744
1.50738
1.51882
1.53411
1.54368
1.54827
1
1
1
1
1.00003
1.00218
1.05673
1.30846
1.51129
1.51756
1.50796
1.51956
1.53408
1.54257
1.54706
1
1
1
1
1.00003
1.0019
1.05207
1.29848
1.51048
1.51726
1.50845
1.52054
1.53381
1.54121
1.5456
1
1
1
1
1.00002
1.00163
1.0468
1.28608
1.50796
1.51632
1.50829
1.52172
1.53303
1.53957
1.54366
1
1
1
1
1.00002
1.00137
1.04143
1.27073
1.50055
1.51352
1.50792
1.52345
1.53196
1.5376
1.54126
1
1
1
1
1.00002
1.00113
1.03619
1.25533
1.49282
1.51
1.5082
1.5261
1.53091
1.53556
1.53852
1
1
1
1
1.00001
1.00091
1.031
1.23948
1.48403
1.50574
1.51096
1.52965
1.53026
1.53374
1.5356
1
1
1
1
1.00001
1.0007
1.02576
1.22107
1.47284
1.50255
1.51541
1.53255
1.53073
1.53266
1.53267
1
1
1
1
1.00001
1.00052
1.02066
1.19934
1.45955
1.50186
1.52217
1.53523
1.53096
1.53165
1.53004
1
1
1
1
1
1.00037
1.0158
1.17478
1.44358
1.50584
1.53088
1.53768
1.53143
1.5308
1.5274
1
1
1
1
1
1.00024
1.0114
1.14766
1.42392
1.51046
1.53846
1.53999
1.53254
1.53013
1.52466
1
1
1
1
1
1.00015
1.00764
1.11857
1.39807
1.51155
1.54239
1.54245
1.53434
1.52949
1.52149
1
1
1
1
1
1.00009
1.00475
1.08935
1.3618
1.50947
1.54347
1.54494
1.5356
1.52782
1.51829
1
1
1
1
1
1.00004
1.0027
1.06231
1.31494
1.49664
1.54346
1.54581
1.53531
1.52406
1.51646
1
1
1
1
1
1.00002
1.0014
1.03982
1.26181
1.47082
1.5409
1.54326
1.53072
1.52024
1.51687
1
1
1
1
1
1.00001
1.00063
1.02233
1.20496
1.44578
1.53516
1.53679
1.52335
1.5185
1.51918
1
1
1
1
1
1
1.00024
1.01056
1.14013
1.41299
1.53038
1.5307
1.51686
1.51851
1.52207
1
1
1
1
1
1
1.00007
1.00387
1.07536
1.34744
1.52895
1.52543
1.51296
1.5196
1.53109
1
1
1
1
1
1
1.00002
1.00102
1.02988
1.23199
1.49849
1.51648
1.51546
1.52885
1.5372
1.4548
1.54001
1.53447
1.51777
1.50677
1.51708
1.51829
1.33942
1.07133
1.00302
1.00005
1
1
1
1
1.32542
1.52276
1.53408
1.5177
1.50594
1.51646
1.52066
1.3503
1.07864
1.00358
1.00006
1
1
1
1
1.18658
1.49169
1.53273
1.51748
1.5049
1.51562
1.52085
1.36017
1.08684
1.00427
1.00007
1
1
1
1
1.05642
1.44181
1.52911
1.51679
1.50363
1.51461
1.52267
1.37247
1.09611
1.00508
1.00009
1
1
1
1
0.928768
1.37847
1.52182
1.51472
1.50255
1.5132
1.52565
1.38996
1.10825
1.00622
1.00011
1
1
1
1
0.818364
1.29672
1.50406
1.51284
1.50224
1.51271
1.52652
1.403
1.12225
1.00779
1.00014
1
1
1
1
0.711343
1.20733
1.4728
1.51
1.502
1.51268
1.52869
1.41617
1.13813
1.00987
1.00019
1
1
1
1
0.627089
1.10655
1.42114
1.50453
1.50133
1.5129
1.53017
1.43081
1.15717
1.01272
1.00027
1
1
1
1
0.548013
1.00709
1.3483
1.491
1.50141
1.51456
1.53145
1.44517
1.17918
1.0167
1.00039
1
1
1
1
0.498235
0.908831
1.25092
1.46232
1.5005
1.51836
1.53278
1.45662
1.204
1.02227
1.00057
1.00001
1
1
1
0.454221
0.81951
1.13734
1.41234
1.49627
1.5232
1.53341
1.46686
1.23217
1.02997
1.00088
1.00001
1
1
1
0.445427
0.743694
1.01247
1.33288
1.48256
1.52684
1.53369
1.47699
1.26368
1.04092
1.00138
1.00002
1
1
1
0.455302
0.68296
0.890962
1.22542
1.44887
1.52546
1.53399
1.48452
1.29872
1.05608
1.00227
1.00003
1
1
1
0.488178
0.63847
0.774364
1.09597
1.38471
1.51652
1.53261
1.4918
1.33469
1.07702
1.00378
1.00006
1
1
1
0.539333
0.613003
0.673712
0.956103
1.28394
1.48949
1.52813
1.49365
1.36855
1.10442
1.0065
1.00012
1
1
1
0.605776
0.581059
0.606279
0.83725
1.15348
1.43146
1.51667
1.49097
1.39975
1.13929
1.0111
1.00024
1
1
1
0.625477
0.559638
0.567431
0.725965
1.00974
1.33551
1.4926
1.48102
1.42327
1.1817
1.01914
1.0005
1.00001
1
1
0.615702
0.555726
0.563983
0.670539
0.868468
1.19909
1.43722
1.46787
1.44114
1.22803
1.032
1.00104
1.00001
1
1
0.600443
0.562865
0.564261
0.625034
0.757588
1.05343
1.34482
1.44549
1.4407
1.27601
1.05203
1.00217
1.00003
1
1
0.577995
0.567737
0.580566
0.612053
0.667004
0.902326
1.21978
1.4126
1.43224
1.31362
1.08056
1.00447
1.00008
1
1
1
1.00014
1.0076
1.09776
1.24611
1.25222
1.02033
0.723218
0.596703
0.593903
0.598074
0.586918
0.575967
0.569684
0.564798
1
1.00013
1.00732
1.09621
1.24662
1.25604
1.02848
0.728787
0.598937
0.594474
0.597803
0.585662
0.576088
0.571368
0.566864
1
1.00013
1.00704
1.09455
1.24675
1.26014
1.03769
0.734627
0.600882
0.594862
0.597475
0.584175
0.576229
0.5728
0.568362
1
1.00012
1.00673
1.09257
1.24707
1.26426
1.0484
0.741454
0.601686
0.594981
0.596959
0.582776
0.577269
0.574586
0.570419
1
1.00011
1.00639
1.09038
1.2479
1.26878
1.06045
0.749398
0.601254
0.594501
0.596543
0.581665
0.578648
0.576518
0.573034
1
1.0001
1.00602
1.08799
1.24897
1.27388
1.07425
0.759075
0.600496
0.593199
0.596007
0.580876
0.580231
0.578634
0.576148
1
1.0001
1.00561
1.0853
1.24956
1.27942
1.08997
0.771055
0.600751
0.59232
0.595071
0.580261
0.581865
0.580774
0.579765
1
1.00009
1.00518
1.08212
1.2497
1.28527
1.10765
0.785835
0.602965
0.592094
0.59391
0.579517
0.582996
0.582727
0.583786
1
1.00008
1.00472
1.07845
1.24967
1.29154
1.12747
0.803686
0.610379
0.593812
0.592953
0.577541
0.583497
0.584573
0.588083
1
1.00007
1.00424
1.07428
1.24897
1.29833
1.14952
0.823803
0.621008
0.597997
0.591341
0.574768
0.583315
0.586272
0.592318
1
1.00006
1.00373
1.06957
1.24818
1.30562
1.17403
0.845551
0.631448
0.602325
0.587664
0.571635
0.582436
0.588078
0.596604
1
1.00005
1.0032
1.06415
1.24648
1.31332
1.20055
0.870872
0.645096
0.606245
0.581713
0.568732
0.581852
0.589924
0.600486
1
1.00004
1.00268
1.05799
1.24257
1.32127
1.22936
0.901443
0.663677
0.609618
0.574461
0.566324
0.581372
0.591764
0.603996
1
1.00003
1.00217
1.05124
1.23633
1.32913
1.26002
0.939677
0.686996
0.611372
0.567744
0.564109
0.580697
0.59341
0.606756
1
1.00002
1.0017
1.04398
1.22751
1.33667
1.29212
0.987765
0.716005
0.610468
0.564108
0.561414
0.579594
0.594994
0.608649
1
1.00002
1.00126
1.03629
1.21509
1.34385
1.32352
1.04821
0.754446
0.616696
0.563609
0.559432
0.579078
0.596928
0.609436
1
1.00001
1.00088
1.02838
1.19764
1.35037
1.35262
1.11836
0.805367
0.645383
0.566019
0.559445
0.583534
0.598319
0.606403
1
1.00001
1.00058
1.0208
1.17405
1.35445
1.37852
1.19636
0.86744
0.680996
0.57743
0.569644
0.592419
0.597907
0.597735
1
1
1.00034
1.0141
1.14625
1.35458
1.40056
1.2785
0.952313
0.720412
0.592344
0.584317
0.598787
0.597835
0.587398
1
1
1.00018
1.00851
1.11399
1.34092
1.41831
1.35466
1.07751
0.785845
0.611808
0.599262
0.601117
0.587279
0.577856
1
1
1
1
1
1
1
1
1
1
1
1
1
1
1.00001
1.00001
1.00001
1.00001
1
1
1.00014
1.00015
1.00015
1.00016
1.00016
1.00017
1.00018
1.0002
1.00021
1.00024
1.00026
1.0003
1.00035
1.00041
1.00047
1.00053
1.00053
1.00047
1.00033
1.00012
1.00775
1.00789
1.00806
1.00826
1.00851
1.00881
1.00919
1.00966
1.01026
1.01099
1.0119
1.01294
1.01409
1.01529
1.01629
1.01619
1.01504
1.01194
1.00743
1.00168
1.09885
1.0995
1.10004
1.1009
1.10212
1.10345
1.10495
1.10661
1.10852
1.11009
1.1119
1.11231
1.11216
1.11016
1.10442
1.09396
1.07784
1.05565
1.03063
1.00462
1.24534
1.24452
1.24339
1.24204
1.24034
1.238
1.23617
1.23342
1.2293
1.22401
1.21703
1.20784
1.19659
1.18166
1.16139
1.13596
1.10496
1.07076
1.03558
0.969631
1.25003
1.24833
1.2462
1.24325
1.23908
1.2344
1.22883
1.22208
1.21332
1.20198
1.18708
1.1675
1.14316
1.11254
1.07631
1.03498
0.991471
0.946605
0.903918
0.857911
1.01579
1.01073
1.00542
1.00039
0.99341
0.984584
0.974108
0.961778
0.947057
0.929223
0.908219
0.882551
0.851918
0.820296
0.788846
0.756793
0.73191
0.715803
0.724695
0.777534
0.720293
0.717167
0.714118
0.71105
0.707329
0.702845
0.696546
0.694351
0.690762
0.687232
0.684246
0.67854
0.668451
0.654017
0.641489
0.638641
0.643275
0.666189
0.705561
0.827693
0.595002
0.593487
0.592837
0.591819
0.590027
0.587815
0.585713
0.583199
0.580826
0.578307
0.576154
0.575823
0.576892
0.575892
0.576101
0.582194
0.602045
0.653449
0.794163
1.00079
0.59311
0.592251
0.591115
0.589945
0.588701
0.586848
0.584494
0.580664
0.575698
0.569238
0.563315
0.562311
0.564146
0.566006
0.568207
0.576335
0.629461
0.780323
1.00296
1.0671
0.598362
0.598719
0.598896
0.599082
0.599421
0.599488
0.599219
0.598391
0.596523
0.592913
0.58609
0.579992
0.579537
0.582189
0.600447
0.651087
0.799947
0.981544
1.08157
1.08494
0.588163
0.589344
0.590932
0.592598
0.594299
0.596199
0.598311
0.600385
0.601032
0.600884
0.59998
0.600633
0.607979
0.637792
0.714441
0.827555
0.928739
1.01783
1.08951
1.08253
0.576083
0.576339
0.576911
0.577996
0.580082
0.582235
0.585848
0.591248
0.597749
0.609864
0.629753
0.670139
0.726338
0.816398
0.900856
0.964873
0.999422
1.03001
1.07339
1.07299
0.569726
0.570226
0.571746
0.575062
0.580904
0.59228
0.609748
0.636319
0.671477
0.719446
0.773154
0.831067
0.881979
0.921679
0.938214
0.98474
1.02597
1.04029
1.06189
1.0683
0.577204
0.594193
0.615566
0.639904
0.667459
0.697286
0.731319
0.767412
0.811634
0.851594
0.907083
0.931051
0.959
0.96417
0.956402
0.981263
1.03482
1.05422
1.05818
1.06519
)
;

boundaryField
{
    inlet
    {
        type            fixedValue;
        value           uniform 1;
    }
    outlet
    {
        type            zeroGradient;
    }
    airfoil
    {
        type            zeroGradient;
    }
    top_fore
    {
        type            fixedValue;
        value           uniform 1;
    }
    top_wake
    {
        type            fixedValue;
        value           uniform 1;
    }
    bottom_fore
    {
        type            fixedValue;
        value           uniform 1;
    }
    bottom_wake
    {
        type            fixedValue;
        value           uniform 1;
    }
    defaultFaces
    {
        type            empty;
    }
}


// ************************************************************************* //
