/*--------------------------------*- C++ -*----------------------------------*\
  =========                 |
  \\      /  F ield         | OpenFOAM: The Open Source CFD Toolbox
   \\    /   O peration     | Website:  https://openfoam.org
    \\  /    A nd           | Version:  7
     \\/     M anipulation  |
\*---------------------------------------------------------------------------*/
FoamFile
{
    version     2.0;
    format      ascii;
    class       volScalarField;
    location    "2.5";
    object      p;
}
// * * * * * * * * * * * * * * * * * * * * * * * * * * * * * * * * * * * * * //

dimensions      [1 -1 -2 0 0 0 0];

internalField   nonuniform List<scalar> 
24000
(
0.205067
0.241343
0.276264
0.302129
0.332454
0.362741
0.387948
0.418234
0.452842
0.491035
0.534432
0.584643
0.641772
0.706749
0.774867
0.842432
0.895113
0.934291
0.952
0.961917
0.963325
0.959348
0.947705
0.9359
0.916889
0.89507
0.867381
0.871091
0.886825
0.908085
0.928501
0.941752
0.944579
0.934476
0.909043
0.899436
0.90875
0.927944
0.935568
0.931483
0.923426
0.924916
0.929546
0.938052
0.952577
0.968454
0.98101
0.986929
0.988275
1.01581
0.176211
0.176191
0.176123
0.175943
0.175799
0.175694
0.175863
0.176539
0.1771
0.178188
0.181631
0.188595
0.202437
0.22382
0.261036
0.310961
0.382655
0.457943
0.537204
0.610406
0.673767
0.734472
0.775475
0.817105
0.84384
0.871999
0.87939
0.897543
0.912903
0.937633
0.952912
0.954369
0.947224
0.915317
0.892327
0.898541
0.916335
0.938068
0.936399
0.925916
0.918585
0.923353
0.931108
0.937858
0.952713
0.970674
0.983496
0.989466
0.990236
1.01667
0.175339
0.175291
0.175256
0.175239
0.175103
0.175265
0.176478
0.178049
0.178341
0.17823
0.177911
0.177813
0.177731
0.177447
0.177285
0.177548
0.177531
0.177866
0.183306
0.197088
0.22749
0.272689
0.342337
0.430192
0.541629
0.669558
0.786458
0.874051
0.907661
0.935141
0.945671
0.942541
0.917437
0.881824
0.890912
0.92059
0.937938
0.937118
0.930237
0.91812
0.916513
0.925494
0.931974
0.937193
0.953449
0.972942
0.98621
0.990847
0.991661
1.01751
0.1741
0.174216
0.174308
0.174232
0.174214
0.175051
0.177739
0.17863
0.178513
0.178338
0.177972
0.177952
0.178157
0.178083
0.177692
0.177437
0.177185
0.176883
0.176664
0.176517
0.17633
0.176231
0.176262
0.176482
0.185906
0.215841
0.2907
0.397122
0.52704
0.644143
0.725685
0.802332
0.833925
0.877101
0.907399
0.953636
0.950598
0.933172
0.92233
0.91103
0.915341
0.929987
0.931248
0.935472
0.95529
0.977561
0.988968
0.990614
0.993169
1.01961
0.172323
0.173466
0.174034
0.174016
0.173991
0.174583
0.177103
0.178422
0.178442
0.178086
0.177406
0.177519
0.178009
0.178045
0.17773
0.177256
0.176939
0.176588
0.17618
0.175997
0.175982
0.176006
0.17616
0.176505
0.176893
0.177431
0.17799
0.178195
0.188533
0.221801
0.300768
0.419288
0.588986
0.776996
0.871434
0.926667
0.925519
0.92612
0.920037
0.906885
0.925843
0.934918
0.92887
0.9338
0.960086
0.981857
0.990236
0.98794
0.995257
1.02244
0.169642
0.169821
0.170893
0.172747
0.17361
0.174609
0.176062
0.176734
0.176783
0.17689
0.17729
0.177694
0.177634
0.177383
0.176831
0.176654
0.176533
0.176067
0.175619
0.175539
0.175588
0.17577
0.176072
0.176426
0.176729
0.177265
0.177969
0.178337
0.178504
0.178533
0.178591
0.178768
0.201251
0.278624
0.431423
0.610184
0.745223
0.863487
0.886983
0.908608
0.94588
0.941361
0.923566
0.93516
0.96632
0.986413
0.99374
0.98503
0.998284
1.02671
0.167863
0.168235
0.169274
0.170882
0.171007
0.171167
0.172856
0.173797
0.173914
0.174748
0.176266
0.176397
0.176086
0.176006
0.175947
0.176133
0.176212
0.175837
0.175168
0.175026
0.175035
0.17523
0.17563
0.175953
0.176221
0.176751
0.177715
0.178163
0.178365
0.178348
0.17831
0.178713
0.180012
0.181119
0.182868
0.208559
0.315031
0.50406
0.724877
0.873968
0.935332
0.916788
0.919445
0.94594
0.972873
0.982718
0.98936
0.986376
1.00311
1.03124
0.166207
0.166712
0.167029
0.167575
0.168044
0.168607
0.16917
0.170239
0.17176
0.171934
0.172007
0.172524
0.173188
0.173965
0.175172
0.175979
0.176152
0.175922
0.175333
0.175019
0.174936
0.175017
0.175323
0.175616
0.175874
0.17632
0.177192
0.177802
0.178165
0.17826
0.178276
0.178781
0.180493
0.181808
0.182602
0.183228
0.183151
0.189734
0.262953
0.443047
0.682731
0.807634
0.902398
0.956287
0.979728
0.979254
0.990095
0.992418
1.00801
1.03518
0.163979
0.164419
0.165361
0.166519
0.166742
0.166706
0.166769
0.167589
0.168617
0.169247
0.169843
0.170331
0.171177
0.172654
0.173535
0.174224
0.174914
0.175238
0.175336
0.17521
0.174925
0.174888
0.174929
0.17488
0.174951
0.175301
0.175939
0.17673
0.177684
0.178044
0.178232
0.179172
0.181116
0.181918
0.182726
0.182727
0.182219
0.181545
0.181606
0.18502
0.239636
0.452316
0.726954
0.923398
0.952491
0.978344
0.997875
1.00459
1.01403
1.03794
0.163629
0.164149
0.164761
0.165266
0.165366
0.165569
0.166123
0.166953
0.167615
0.168097
0.16847
0.168968
0.169847
0.171145
0.172108
0.172393
0.172743
0.17385
0.174585
0.174568
0.1741
0.173808
0.173687
0.173219
0.173089
0.173443
0.174304
0.175325
0.176234
0.177082
0.177911
0.179394
0.181326
0.182047
0.181982
0.181656
0.180905
0.180668
0.180979
0.182336
0.184028
0.188651
0.26167
0.513761
0.817703
0.971788
1.01092
1.021
1.01935
1.04052
0.162839
0.163773
0.165017
0.165163
0.165294
0.165609
0.16603
0.166348
0.166578
0.166957
0.16745
0.168236
0.169423
0.170132
0.170158
0.170085
0.170055
0.170307
0.171059
0.171222
0.170974
0.170717
0.170893
0.170825
0.170754
0.171144
0.172344
0.173825
0.174804
0.175749
0.177002
0.179289
0.181136
0.181153
0.180647
0.18002
0.179896
0.180136
0.180855
0.183138
0.185671
0.186126
0.18553
0.201118
0.405449
0.80076
1.00262
1.02753
1.01805
1.04294
0.162058
0.162844
0.163489
0.16423
0.164744
0.164806
0.164772
0.164801
0.165177
0.165732
0.165887
0.166294
0.167254
0.167852
0.167916
0.16778
0.167655
0.167763
0.168326
0.168592
0.16861
0.168472
0.168421
0.16863
0.168962
0.169521
0.170616
0.172074
0.17371
0.175501
0.17742
0.178956
0.17958
0.179705
0.17929
0.17916
0.179516
0.180058
0.181835
0.18464
0.186453
0.186012
0.185385
0.186556
0.188994
0.340943
0.799857
0.972436
1.01614
1.04989
0.161001
0.161728
0.161966
0.161961
0.162049
0.162121
0.162148
0.162461
0.163571
0.164448
0.164484
0.164549
0.165181
0.16586
0.165885
0.165899
0.166075
0.166606
0.167621
0.168167
0.168259
0.168207
0.167958
0.168158
0.168713
0.169325
0.170437
0.172658
0.175464
0.177679
0.178584
0.178509
0.178457
0.178738
0.178766
0.178898
0.179525
0.182125
0.186199
0.188415
0.189052
0.18862
0.189355
0.192493
0.194789
0.196932
0.327659
0.743634
1.00283
1.06016
0.159657
0.159883
0.160055
0.160204
0.160213
0.160265
0.160503
0.161382
0.163146
0.164009
0.164015
0.163953
0.164355
0.165299
0.165337
0.165263
0.165441
0.166116
0.167784
0.168989
0.169276
0.169612
0.170488
0.17236
0.173751
0.174342
0.174776
0.175784
0.178011
0.179601
0.180081
0.179447
0.178511
0.17856
0.180004
0.183438
0.188162
0.192283
0.194475
0.193738
0.192581
0.19343
0.19686
0.2005
0.203511
0.203703
0.205157
0.362197
0.84526
1.04058
0.163795
0.164123
0.164441
0.165091
0.165606
0.165682
0.165708
0.166125
0.167724
0.169796
0.170902
0.171797
0.173611
0.175034
0.175109
0.174712
0.174761
0.175484
0.177865
0.179709
0.180382
0.181154
0.182521
0.184212
0.184647
0.184149
0.183167
0.182447
0.182636
0.184148
0.186034
0.186817
0.187404
0.188515
0.191453
0.196234
0.201698
0.202378
0.201205
0.199753
0.201066
0.204945
0.209957
0.21344
0.215309
0.218143
0.218936
0.222014
0.395334
0.893429
0.1841
0.184818
0.185535
0.186142
0.186472
0.186986
0.188331
0.188931
0.189279
0.190028
0.190827
0.191667
0.192805
0.193126
0.193024
0.192829
0.192202
0.191351
0.191168
0.190776
0.190181
0.190202
0.190666
0.191492
0.191534
0.19124
0.19115
0.189725
0.189543
0.191237
0.195484
0.200929
0.205801
0.209787
0.212794
0.215173
0.216516
0.216578
0.217118
0.21924
0.222806
0.225821
0.227638
0.230073
0.232768
0.23381
0.235996
0.235805
0.238515
0.593038
0.20211
0.202988
0.203842
0.204542
0.205019
0.205356
0.206019
0.206742
0.207443
0.208519
0.208948
0.209255
0.211138
0.213249
0.213226
0.21393
0.21573
0.216232
0.216337
0.216582
0.216817
0.216334
0.215145
0.215049
0.216342
0.219438
0.223243
0.227112
0.231436
0.235118
0.237506
0.238802
0.239146
0.239346
0.239312
0.238744
0.238113
0.237717
0.238322
0.239758
0.242761
0.244159
0.24589
0.246061
0.245936
0.247556
0.251108
0.254579
0.253715
0.319353
0.235217
0.236255
0.23835
0.239029
0.239056
0.239208
0.241121
0.242033
0.242105
0.242959
0.24465
0.245888
0.24763
0.249796
0.251401
0.253147
0.255424
0.256294
0.256417
0.256622
0.257326
0.257919
0.257902
0.25823
0.259414
0.259721
0.259341
0.25856
0.257923
0.256745
0.256108
0.255886
0.254227
0.251696
0.249589
0.249338
0.250166
0.253059
0.257169
0.261614
0.264489
0.266549
0.267913
0.267789
0.268355
0.270079
0.271973
0.271897
0.273662
0.276362
0.281245
0.281377
0.282432
0.28445
0.284725
0.284777
0.285205
0.285641
0.285593
0.285566
0.285933
0.286634
0.28694
0.287255
0.287316
0.287125
0.287456
0.287517
0.287108
0.287221
0.287289
0.287338
0.287469
0.287224
0.286709
0.285289
0.284328
0.284884
0.284942
0.283726
0.283233
0.28383
0.286202
0.291294
0.296329
0.29968
0.301683
0.30361
0.303251
0.302278
0.299669
0.296985
0.295239
0.293588
0.293142
0.294933
0.295246
0.293213
0.293719
0.297898
0.333157
0.334176
0.336344
0.337496
0.337585
0.337572
0.337608
0.338359
0.338894
0.338978
0.338963
0.339442
0.341004
0.34208
0.342326
0.342567
0.343149
0.344032
0.344306
0.34429
0.344156
0.343812
0.343138
0.342672
0.342517
0.342166
0.342158
0.343104
0.343817
0.343775
0.343671
0.343344
0.342638
0.341815
0.340708
0.338488
0.334942
0.330325
0.325162
0.32049
0.315836
0.316017
0.317747
0.320917
0.32539
0.326952
0.325784
0.321447
0.320301
0.322646
0.396045
0.396869
0.397743
0.397783
0.39797
0.399738
0.401145
0.401007
0.400914
0.401083
0.401283
0.402658
0.403757
0.403802
0.403547
0.403498
0.403546
0.403553
0.403264
0.402541
0.401697
0.401113
0.40062
0.399861
0.398612
0.396735
0.394578
0.39221
0.389885
0.387732
0.385386
0.382959
0.381022
0.379004
0.3763
0.373206
0.370809
0.368779
0.369352
0.370171
0.37122
0.37271
0.372632
0.370832
0.366262
0.359184
0.3528
0.347568
0.344415
0.343105
0.450808
0.451307
0.451375
0.451589
0.45307
0.455736
0.457086
0.457659
0.458326
0.459365
0.460384
0.461381
0.463133
0.465039
0.465565
0.466162
0.467139
0.467607
0.467784
0.467684
0.466987
0.4657
0.464315
0.462831
0.461012
0.458611
0.455978
0.453673
0.451348
0.448662
0.445738
0.44251
0.440109
0.438562
0.436498
0.43389
0.4314
0.428549
0.425528
0.421795
0.417325
0.412144
0.405785
0.398556
0.391629
0.384829
0.382236
0.383558
0.382977
0.377908
0.473241
0.474075
0.474789
0.475499
0.476963
0.479473
0.4807
0.480861
0.481518
0.48358
0.485808
0.487732
0.490051
0.492113
0.494214
0.496832
0.500357
0.501858
0.502055
0.502863
0.504274
0.505522
0.50632
0.506471
0.506423
0.506002
0.504915
0.503473
0.501843
0.499768
0.497207
0.494566
0.491979
0.489434
0.486767
0.483627
0.480014
0.476242
0.472014
0.467468
0.462339
0.457234
0.452184
0.447898
0.444305
0.440811
0.435994
0.429713
0.422866
0.412404
0.471579
0.471968
0.472734
0.473079
0.47372
0.47478
0.475563
0.476364
0.477723
0.479206
0.480949
0.482653
0.484165
0.485924
0.488293
0.491021
0.493847
0.497057
0.500923
0.504359
0.507667
0.51088
0.513759
0.516257
0.518319
0.520065
0.520987
0.521554
0.52261
0.523397
0.523588
0.523622
0.523447
0.522614
0.521077
0.519261
0.517487
0.515605
0.513442
0.510948
0.507804
0.504041
0.499779
0.495198
0.490096
0.483345
0.476238
0.468814
0.460991
0.445424
0.46875
0.469114
0.469641
0.470124
0.470684
0.471327
0.472188
0.473129
0.47397
0.474905
0.476114
0.477495
0.478984
0.480612
0.48244
0.484489
0.4869
0.489797
0.493125
0.496586
0.500203
0.503833
0.507202
0.510536
0.513606
0.516527
0.519503
0.522147
0.524392
0.527171
0.528767
0.529988
0.531642
0.53357
0.535156
0.536625
0.538093
0.538261
0.538182
0.53785
0.536842
0.535016
0.532643
0.529788
0.526436
0.52231
0.516803
0.509834
0.502891
0.483328
0.46956
0.469835
0.470282
0.470853
0.471303
0.471903
0.472405
0.472812
0.473391
0.47411
0.474985
0.476071
0.477381
0.478905
0.480624
0.482482
0.484568
0.486784
0.488966
0.491139
0.493641
0.496736
0.500187
0.503975
0.507839
0.511566
0.51527
0.518434
0.521176
0.525161
0.529664
0.532386
0.533981
0.535392
0.537129
0.539276
0.541365
0.543461
0.545423
0.546165
0.546566
0.546765
0.546748
0.546231
0.545188
0.543639
0.540955
0.536206
0.526782
0.504162
0.476801
0.476837
0.476943
0.477148
0.477722
0.478143
0.478381
0.478693
0.479271
0.479411
0.47931
0.479464
0.480205
0.481864
0.483529
0.484104
0.484628
0.485762
0.487505
0.48936
0.491414
0.494283
0.497708
0.501382
0.505298
0.509236
0.512973
0.516372
0.519897
0.52398
0.528114
0.5316
0.534461
0.538152
0.541422
0.544001
0.546565
0.549073
0.551324
0.553653
0.556581
0.558511
0.559613
0.560428
0.560875
0.560566
0.558457
0.554533
0.546857
0.526649
0.504599
0.504083
0.503885
0.503997
0.504555
0.505204
0.505776
0.506042
0.506003
0.505539
0.503842
0.503133
0.503322
0.504523
0.504854
0.504866
0.505382
0.506023
0.506463
0.506468
0.506593
0.508309
0.511437
0.513804
0.516382
0.519227
0.522589
0.526596
0.530641
0.534475
0.538239
0.541766
0.544951
0.548513
0.552651
0.556826
0.560757
0.564353
0.567187
0.569861
0.572645
0.573954
0.574488
0.574849
0.575034
0.574624
0.572201
0.567834
0.562
0.549807
0.564413
0.563449
0.562884
0.562566
0.562826
0.563463
0.563153
0.561964
0.561744
0.561072
0.559745
0.559516
0.558944
0.557566
0.557107
0.557139
0.557092
0.556461
0.555183
0.55438
0.554137
0.553922
0.553675
0.553945
0.55417
0.554688
0.556201
0.558588
0.560873
0.563077
0.565676
0.568651
0.571647
0.574632
0.577246
0.5795
0.581845
0.584721
0.587162
0.58868
0.589804
0.590563
0.591264
0.591628
0.591293
0.589868
0.587738
0.583976
0.575877
0.575026
0.654805
0.652853
0.65212
0.652443
0.652958
0.652433
0.651407
0.650128
0.648516
0.648398
0.648322
0.647115
0.645261
0.643825
0.642961
0.642052
0.640557
0.638949
0.637499
0.635964
0.634453
0.632695
0.630975
0.629602
0.62775
0.626412
0.625697
0.624806
0.624584
0.624896
0.624992
0.625038
0.625729
0.626413
0.627679
0.62944
0.630811
0.632345
0.633717
0.635015
0.636121
0.636908
0.637784
0.638299
0.63807
0.636528
0.634083
0.630614
0.626992
0.631893
0.772018
0.77165
0.77037
0.768334
0.76765
0.768001
0.767718
0.766323
0.763618
0.762732
0.762742
0.761885
0.759515
0.757345
0.755869
0.754423
0.752533
0.750325
0.748111
0.745841
0.743389
0.740696
0.737712
0.734823
0.731982
0.728811
0.725631
0.722685
0.719805
0.71707
0.714449
0.712049
0.709925
0.707965
0.706312
0.704876
0.703595
0.702593
0.701742
0.700887
0.700202
0.699558
0.698543
0.697183
0.695744
0.693984
0.691606
0.691612
0.69403
0.704675
0.894295
0.89407
0.893189
0.891302
0.890298
0.890452
0.890249
0.889073
0.886556
0.885747
0.88558
0.884521
0.88228
0.88042
0.878972
0.877446
0.87548
0.873108
0.870747
0.868373
0.865688
0.862674
0.859529
0.856192
0.852596
0.848757
0.844726
0.840512
0.836139
0.831676
0.82714
0.822604
0.818087
0.813606
0.809292
0.805128
0.801138
0.797505
0.794202
0.791131
0.788456
0.786273
0.784488
0.782622
0.780336
0.779994
0.781689
0.784557
0.788839
0.804265
0.97455
0.973846
0.973599
0.973725
0.973706
0.97321
0.972505
0.971527
0.971323
0.97122
0.970609
0.969561
0.968818
0.968154
0.967316
0.966359
0.965274
0.964056
0.962787
0.961357
0.959736
0.958016
0.956125
0.954005
0.951699
0.94916
0.946339
0.943264
0.939936
0.936381
0.932552
0.928463
0.924182
0.919686
0.915078
0.910425
0.905704
0.901106
0.896757
0.892598
0.888809
0.88577
0.883407
0.881073
0.880037
0.881248
0.88403
0.888407
0.894258
0.909685
0.997738
0.997725
0.997715
0.99767
0.997617
0.997527
0.997422
0.997387
0.997345
0.99725
0.99712
0.997003
0.996876
0.996747
0.996604
0.996426
0.996232
0.996018
0.995765
0.995473
0.995147
0.994784
0.994362
0.993874
0.993323
0.99269
0.991955
0.99111
0.990141
0.989037
0.987776
0.986341
0.984733
0.982933
0.98095
0.978811
0.976503
0.974087
0.971664
0.969237
0.966907
0.964968
0.963389
0.96217
0.962212
0.963105
0.96493
0.967837
0.971431
0.97869
0.999939
0.999937
0.999935
0.999934
0.999932
0.99993
0.999927
0.999923
0.99992
0.999917
0.999912
0.999907
0.999902
0.999896
0.999889
0.99988
0.999871
0.99986
0.999847
0.999831
0.999814
0.999793
0.999767
0.999737
0.999701
0.999657
0.999604
0.99954
0.99946
0.999364
0.999246
0.999101
0.998926
0.998715
0.998462
0.998166
0.997821
0.997429
0.997006
0.996554
0.99609
0.995674
0.995322
0.995129
0.995168
0.995367
0.995767
0.996382
0.997077
0.998174
0.999999
0.999999
0.999999
0.999999
0.999999
0.999999
0.999999
0.999999
0.999999
0.999999
0.999999
0.999999
0.999999
0.999999
0.999999
0.999998
0.999998
0.999998
0.999998
0.999998
0.999997
0.999997
0.999996
0.999996
0.999995
0.999994
0.999993
0.999992
0.99999
0.999987
0.999984
0.99998
0.999975
0.999969
0.99996
0.999949
0.999935
0.999919
0.999899
0.999877
0.999853
0.99983
0.99981
0.999802
0.999804
0.999815
0.999838
0.999872
0.999906
0.99995
1
1
1
1
1
1
1
1
1
1
1
1
1
1
1
1
1
1
1
1
1
1
1
1
1
1
1
1
1
1
1
1
1
1
1
0.999999
0.999999
0.999999
0.999999
0.999998
0.999998
0.999997
0.999997
0.999997
0.999997
0.999997
0.999998
0.999998
0.999999
0.999999
1
1
1
1
1
1
1
1
1
1
1
1
1
1
1
1
1
1
1
1
1
1
1
1
1
1
1
1
1
1
1
1
1
1
1
1
1
1
1
1
1
1
1
1
1
1
1
1
1
1
1
1
1
1
1
1
1
1
1
1
1
1
1
1
1
1
1
1
1
1
1
1
1
1
1
1
1
1
1
1
1
1
1
1
1
1
1
1
1
1
1
1
1
1
1
1
1
1
1
1
1
1
1
1
1
1
1
1
1
1
1
1
1
1
1
1
1
1
1
1
1
1
1
1
1
1
1
1
1
1
1
1
1
1
1
1
1
1
1
1
1
1
1
1
1
1
1
1
1
1
0.176527
0.176241
0.175279
0.173676
0.171165
0.169342
0.167468
0.16558
0.163545
0.1629
0.162379
0.161327
0.160459
0.159163
0.163031
0.183292
0.20075
0.234522
0.281164
0.332733
0.39585
0.449796
0.472594
0.471273
0.468422
0.469423
0.476789
0.505642
0.565133
0.656174
0.772596
0.894908
0.975072
0.997816
0.999941
0.999999
1
1
1
1
0.176626
0.176084
0.174251
0.17219
0.169921
0.168548
0.166843
0.164804
0.162993
0.162174
0.161803
0.160593
0.159774
0.158499
0.161907
0.183135
0.200498
0.235197
0.282339
0.334161
0.397384
0.44967
0.472037
0.470847
0.467851
0.469501
0.477307
0.507131
0.566228
0.657522
0.774396
0.896408
0.975735
0.997937
0.999945
0.999999
1
1
1
1
0.17665
0.174918
0.172456
0.170744
0.168983
0.167504
0.166092
0.164053
0.162481
0.161672
0.161236
0.159946
0.159048
0.157803
0.160706
0.183087
0.200958
0.236509
0.282775
0.335906
0.398364
0.449487
0.471092
0.470412
0.467305
0.469691
0.477978
0.507371
0.567269
0.658707
0.775557
0.897401
0.97628
0.998016
0.999947
0.999999
1
1
1
1
0.176483
0.172651
0.170829
0.169192
0.167782
0.166335
0.165114
0.163294
0.161959
0.161205
0.160681
0.159315
0.158368
0.157191
0.160547
0.183047
0.201289
0.237999
0.283333
0.337385
0.398965
0.449816
0.469938
0.469874
0.466853
0.469687
0.478166
0.507066
0.568313
0.660496
0.777547
0.899193
0.976844
0.998088
0.99995
0.999999
1
1
1
1
0.175464
0.170897
0.169191
0.167652
0.16635
0.165356
0.164136
0.162558
0.161369
0.160695
0.160113
0.158655
0.157822
0.156638
0.160703
0.18287
0.200972
0.238495
0.28399
0.338122
0.399625
0.449881
0.469081
0.469299
0.466414
0.469582
0.478003
0.507055
0.569522
0.661932
0.780014
0.901271
0.977439
0.998165
0.999953
0.999999
1
1
1
1
0.173116
0.169161
0.167581
0.166291
0.165199
0.164324
0.163198
0.161871
0.160715
0.160077
0.159475
0.157876
0.15741
0.156265
0.16072
0.182724
0.201015
0.238525
0.284865
0.338806
0.400248
0.449801
0.468284
0.46867
0.465981
0.469426
0.477799
0.508617
0.571053
0.663466
0.781862
0.902766
0.978157
0.998251
0.999956
1
1
1
1
1
0.171675
0.16773
0.1663
0.165128
0.164171
0.163186
0.162344
0.161226
0.160098
0.159315
0.158725
0.157041
0.15708
0.156045
0.160615
0.182605
0.202398
0.23874
0.285753
0.34017
0.40073
0.449329
0.467393
0.468004
0.465548
0.469283
0.477825
0.511425
0.572369
0.665217
0.783808
0.90433
0.978887
0.998343
0.999959
1
1
1
1
1
0.170157
0.166677
0.165328
0.164077
0.16305
0.162124
0.161583
0.160573
0.159515
0.158517
0.157889
0.156271
0.156771
0.155898
0.16028
0.182685
0.203982
0.240148
0.286433
0.341334
0.401176
0.447526
0.466492
0.467355
0.46512
0.468789
0.478321
0.51296
0.573503
0.667076
0.785944
0.906071
0.979575
0.998429
0.999961
1
1
1
1
1
0.167311
0.165486
0.16423
0.162854
0.161822
0.161119
0.160751
0.159939
0.158931
0.157762
0.157043
0.155525
0.1564
0.155591
0.159578
0.183256
0.204864
0.241247
0.286658
0.341633
0.401656
0.446457
0.465655
0.466724
0.464696
0.468151
0.479118
0.513875
0.574577
0.669178
0.788301
0.908018
0.980275
0.998512
0.999964
1
1
1
1
1
0.164074
0.163358
0.162427
0.161235
0.16042
0.15994
0.159686
0.159192
0.158315
0.157035
0.15613
0.154684
0.155892
0.154715
0.159335
0.183528
0.205537
0.241823
0.286415
0.341613
0.402112
0.446388
0.464944
0.466135
0.464278
0.467789
0.479324
0.514645
0.57607
0.671425
0.790755
0.910034
0.981004
0.998598
0.999967
1
1
1
1
1
0.162111
0.161184
0.160412
0.159455
0.1589
0.158545
0.158502
0.158205
0.157598
0.156265
0.155095
0.153707
0.155268
0.154099
0.159576
0.183726
0.205621
0.242429
0.285824
0.341843
0.402364
0.447028
0.464352
0.465587
0.463869
0.467495
0.479166
0.514863
0.578229
0.673685
0.793323
0.912074
0.981765
0.998684
0.999969
1
1
1
1
1
0.16083
0.159529
0.158661
0.157845
0.157445
0.157264
0.157366
0.157096
0.156747
0.155398
0.153984
0.152658
0.154703
0.153909
0.159774
0.184112
0.204647
0.243154
0.285951
0.343284
0.40264
0.447698
0.463839
0.465062
0.463472
0.46729
0.478606
0.514553
0.580343
0.676044
0.79608
0.914182
0.982543
0.998768
0.999972
1
1
1
1
1
0.159545
0.158026
0.157167
0.156404
0.156165
0.156165
0.156344
0.156076
0.155771
0.154436
0.15288
0.151662
0.154316
0.15395
0.159718
0.184211
0.203677
0.243911
0.287427
0.34529
0.404273
0.448141
0.463346
0.46456
0.463108
0.467227
0.478423
0.514629
0.582337
0.678545
0.798947
0.91637
0.983326
0.998852
0.999974
1
1
1
1
1
0.1581
0.156641
0.155821
0.155078
0.15497
0.155128
0.155363
0.155146
0.154788
0.153445
0.151832
0.15075
0.15405
0.154218
0.159622
0.184165
0.203699
0.244841
0.289461
0.347101
0.406933
0.448395
0.462833
0.464097
0.462787
0.467262
0.478908
0.516777
0.584523
0.681164
0.801867
0.918644
0.984111
0.998935
0.999977
1
1
1
1
1
0.15662
0.155382
0.154558
0.153856
0.153821
0.154109
0.15437
0.154219
0.153842
0.152481
0.150872
0.14992
0.15374
0.154553
0.159686
0.184112
0.205009
0.2461
0.291071
0.348961
0.40837
0.448552
0.462339
0.463668
0.462502
0.467414
0.480575
0.519535
0.586833
0.683904
0.804928
0.921014
0.984905
0.999016
0.999979
1
1
1
1
1
0.155233
0.154219
0.153412
0.152755
0.152778
0.153107
0.153386
0.153272
0.152941
0.151597
0.15004
0.149195
0.15321
0.154855
0.160219
0.183995
0.206156
0.247702
0.29267
0.350985
0.409585
0.448751
0.461921
0.463267
0.462234
0.467466
0.481812
0.520983
0.589122
0.686864
0.808221
0.923476
0.985712
0.999095
0.999981
1
1
1
1
1
0.154008
0.153123
0.152376
0.15178
0.151851
0.15216
0.152456
0.152338
0.152056
0.15079
0.149333
0.148616
0.152712
0.154903
0.160303
0.182917
0.207224
0.249737
0.294712
0.353153
0.411088
0.449062
0.46158
0.462896
0.461958
0.467128
0.482181
0.522272
0.591542
0.690067
0.811723
0.926016
0.986533
0.999172
0.999983
1
1
1
1
1
0.152948
0.152121
0.151432
0.150919
0.150994
0.151281
0.151574
0.151461
0.151227
0.150087
0.148719
0.148174
0.15231
0.154867
0.159837
0.18144
0.2091
0.252028
0.296944
0.355327
0.412652
0.449539
0.461309
0.462565
0.461674
0.466803
0.482395
0.523769
0.594174
0.693408
0.815367
0.928631
0.987354
0.999247
0.999985
1
1
1
1
1
0.152017
0.151249
0.150598
0.150169
0.150204
0.150472
0.150745
0.150672
0.150502
0.149484
0.148168
0.147827
0.151912
0.154793
0.159375
0.181395
0.211273
0.253915
0.299144
0.357488
0.414416
0.450233
0.4611
0.462288
0.461435
0.466847
0.483893
0.52542
0.596927
0.696871
0.819159
0.931328
0.988169
0.999319
0.999987
1
1
1
1
1
0.151187
0.150503
0.149889
0.149548
0.149531
0.149763
0.15003
0.150017
0.149913
0.148956
0.147609
0.147486
0.151382
0.154647
0.159388
0.183138
0.212913
0.255192
0.30132
0.3599
0.416742
0.451057
0.460939
0.462071
0.461286
0.467325
0.486356
0.52732
0.59972
0.700536
0.823129
0.934114
0.988981
0.999387
0.999988
1
1
1
1
1
0.150471
0.14988
0.149299
0.149061
0.14901
0.149191
0.149467
0.149519
0.149458
0.148484
0.147009
0.147015
0.150302
0.154121
0.159811
0.186038
0.214456
0.256119
0.303664
0.362979
0.419456
0.451819
0.460823
0.461913
0.461206
0.468104
0.487862
0.529314
0.60259
0.704473
0.827308
0.936985
0.989791
0.999453
0.99999
1
1
1
1
1
0.149874
0.149389
0.148842
0.1487
0.148627
0.148757
0.149038
0.149152
0.149104
0.148127
0.146468
0.146351
0.148769
0.153758
0.1601
0.187929
0.216114
0.256932
0.306424
0.366728
0.422094
0.452494
0.460726
0.461804
0.461163
0.468494
0.488679
0.531321
0.605649
0.708711
0.831724
0.93993
0.990594
0.999515
0.999991
1
1
1
1
1
0.149386
0.149033
0.148528
0.148461
0.148356
0.148417
0.148701
0.14888
0.148836
0.147968
0.146205
0.145947
0.147765
0.153737
0.160141
0.188598
0.217996
0.257795
0.309796
0.370615
0.424581
0.453173
0.46058
0.461728
0.461141
0.468542
0.489012
0.533503
0.609057
0.713222
0.836369
0.942941
0.991382
0.999574
0.999993
1
1
1
1
1
0.148998
0.148787
0.14836
0.148342
0.148168
0.148119
0.148412
0.148682
0.148685
0.147977
0.146272
0.145942
0.147343
0.153935
0.160316
0.188678
0.220476
0.259438
0.313814
0.374457
0.427028
0.453914
0.460349
0.461666
0.461133
0.468415
0.489155
0.536059
0.612866
0.717981
0.841228
0.946016
0.992153
0.999628
0.999994
1
1
1
1
1
0.148709
0.148617
0.148303
0.148313
0.148034
0.147828
0.148131
0.148519
0.148668
0.14824
0.14671
0.146069
0.147248
0.155211
0.162432
0.188337
0.22368
0.26325
0.318249
0.378414
0.429562
0.454692
0.460138
0.461616
0.461168
0.468122
0.490246
0.539066
0.616932
0.722956
0.846297
0.949144
0.992902
0.999678
0.999995
1
1
1
1
1
0.148501
0.148507
0.148298
0.148325
0.147925
0.147544
0.147823
0.148354
0.14879
0.148455
0.146972
0.146015
0.147422
0.157214
0.1651
0.189641
0.227382
0.267832
0.322647
0.38258
0.432257
0.455431
0.459955
0.461597
0.461254
0.46832
0.493192
0.542386
0.621152
0.728162
0.851609
0.952317
0.993629
0.999725
0.999996
1
1
1
1
1
0.148324
0.148431
0.148332
0.148337
0.14779
0.147327
0.147493
0.148168
0.148834
0.148506
0.14709
0.145881
0.147863
0.157934
0.165742
0.194183
0.23119
0.271912
0.326892
0.387057
0.435102
0.456134
0.459775
0.461619
0.461379
0.469506
0.495753
0.545769
0.625579
0.733671
0.857163
0.955523
0.994328
0.999767
0.999996
1
1
1
1
1
0.148136
0.148361
0.148381
0.148307
0.147667
0.14717
0.147186
0.147901
0.148783
0.148488
0.147159
0.145522
0.148001
0.157886
0.165326
0.197132
0.234023
0.275975
0.331398
0.392009
0.438032
0.456792
0.459585
0.461638
0.461592
0.471104
0.498021
0.549227
0.630257
0.739519
0.862937
0.958759
0.994994
0.999804
0.999997
1
1
1
1
1
0.147943
0.148282
0.148435
0.148289
0.147602
0.147069
0.14698
0.147522
0.148538
0.14831
0.147165
0.144876
0.147851
0.157561
0.16507
0.198477
0.235731
0.280434
0.336645
0.39738
0.44091
0.457371
0.459387
0.461581
0.46206
0.472458
0.500012
0.552841
0.635234
0.745728
0.868956
0.96201
0.995624
0.999838
0.999998
1
1
1
1
1
0.147779
0.148203
0.148481
0.148294
0.147586
0.147036
0.146918
0.147302
0.14831
0.148159
0.147028
0.144653
0.147366
0.157357
0.166891
0.200968
0.237162
0.285552
0.342708
0.402855
0.443604
0.457863
0.459224
0.46152
0.462977
0.47357
0.501343
0.556572
0.640597
0.752343
0.875255
0.965252
0.996215
0.999867
0.999998
1
1
1
1
1
0.147681
0.148137
0.148522
0.148317
0.147598
0.14708
0.146973
0.147331
0.148408
0.148234
0.146922
0.144629
0.147063
0.157498
0.172388
0.207615
0.240283
0.291523
0.349237
0.408267
0.446105
0.458296
0.459131
0.461531
0.464162
0.475315
0.50244
0.56048
0.646464
0.759442
0.881803
0.968461
0.996763
0.999893
0.999999
1
1
1
1
1
0.147645
0.148096
0.148546
0.148343
0.147731
0.147186
0.147067
0.147446
0.148686
0.148599
0.147126
0.144831
0.147113
0.159024
0.177442
0.213093
0.246369
0.298128
0.35603
0.413733
0.448499
0.458713
0.459091
0.461769
0.465039
0.478075
0.50491
0.564792
0.652894
0.767005
0.888556
0.971618
0.997266
0.999915
0.999999
1
1
1
1
1
0.147665
0.148087
0.148565
0.148355
0.147876
0.147347
0.147141
0.147426
0.148765
0.14884
0.147975
0.145746
0.147654
0.160947
0.180493
0.21598
0.252109
0.304731
0.36323
0.419372
0.450782
0.459144
0.459074
0.461981
0.465325
0.479627
0.509132
0.569674
0.659819
0.77502
0.895511
0.974701
0.997722
0.999933
0.999999
1
1
1
1
1
0.147742
0.148134
0.148605
0.14839
0.147973
0.147666
0.147262
0.147358
0.148672
0.148763
0.148172
0.146019
0.14774
0.162641
0.182918
0.217721
0.257462
0.311326
0.370968
0.425113
0.452831
0.459527
0.459277
0.462067
0.465078
0.47966
0.512675
0.575031
0.667166
0.783516
0.902655
0.97769
0.99813
0.999949
0.999999
1
1
1
1
1
0.147897
0.148171
0.148616
0.148385
0.148069
0.147992
0.147532
0.147397
0.148286
0.148168
0.147654
0.145544
0.147151
0.16474
0.186778
0.219275
0.263596
0.3184
0.379196
0.430723
0.454554
0.459932
0.459554
0.462114
0.464719
0.478979
0.516292
0.580909
0.674895
0.79247
0.909958
0.98056
0.998491
0.999961
1
1
1
1
1
1
0.148085
0.1482
0.148594
0.148347
0.148154
0.148174
0.147803
0.147489
0.147758
0.147261
0.146941
0.145187
0.14708
0.169559
0.192598
0.222513
0.271174
0.32629
0.387796
0.43601
0.455961
0.460226
0.459786
0.462244
0.464796
0.479553
0.521047
0.587376
0.683043
0.801926
0.917406
0.983286
0.998803
0.999971
1
1
1
1
1
1
0.148316
0.148306
0.148498
0.148278
0.148187
0.148281
0.147952
0.147342
0.147079
0.146132
0.14642
0.145452
0.148955
0.175891
0.197143
0.229905
0.279927
0.335144
0.396655
0.440844
0.457103
0.460405
0.459905
0.462675
0.465808
0.483937
0.526501
0.594372
0.69185
0.811927
0.924943
0.985841
0.999069
0.999979
1
1
1
1
1
1
0.148582
0.148423
0.148376
0.148206
0.148213
0.148329
0.14804
0.147081
0.146259
0.144937
0.145857
0.14605
0.152382
0.179764
0.199892
0.237848
0.288393
0.344965
0.40565
0.445156
0.458014
0.460504
0.459931
0.463338
0.467586
0.48823
0.531287
0.601849
0.701568
0.822474
0.932517
0.988205
0.999292
0.999985
1
1
1
1
1
1
0.14882
0.148512
0.148248
0.148125
0.14823
0.148336
0.148104
0.146937
0.145549
0.144018
0.145502
0.146902
0.155392
0.181875
0.202796
0.245529
0.296465
0.355658
0.414629
0.448883
0.458713
0.460563
0.459872
0.463984
0.469482
0.49047
0.535368
0.609955
0.712238
0.833572
0.940053
0.990356
0.999474
0.99999
1
1
1
1
1
1
0.149054
0.148524
0.148087
0.147984
0.148213
0.148343
0.148234
0.146926
0.145208
0.143572
0.145716
0.149515
0.158042
0.18317
0.208965
0.254783
0.305558
0.367127
0.423347
0.451994
0.45923
0.460615
0.459824
0.46415
0.471321
0.49318
0.540261
0.618839
0.723678
0.845192
0.947478
0.99228
0.999619
0.999993
1
1
1
1
1