/*--------------------------------*- C++ -*----------------------------------*\
  =========                 |
  \\      /  F ield         | OpenFOAM: The Open Source CFD Toolbox
   \\    /   O peration     | Website:  https://openfoam.org
    \\  /    A nd           | Version:  7
     \\/     M anipulation  |
\*---------------------------------------------------------------------------*/
FoamFile
{
    version     2.0;
    format      ascii;
    class       volScalarField;
    location    "7.1";
    object      p;
}
// * * * * * * * * * * * * * * * * * * * * * * * * * * * * * * * * * * * * * //

dimensions      [1 -1 -2 0 0 0 0];

internalField   nonuniform List<scalar> 
1750
(
0.246581
0.469249
0.580847
0.595537
0.60702
0.682018
0.775638
0.815646
0.878116
0.918433
0.0233658
0.0882335
0.341602
0.612338
0.792115
0.869333
0.897417
0.876909
0.895879
0.918942
0.0234621
0.025411
0.0402437
0.152626
0.41597
0.63371
0.808031
0.912191
0.964338
0.957195
0.0314363
0.0404887
0.0547107
0.0671028
0.0725707
0.137738
0.288168
0.527751
0.707884
0.853633
0.073898
0.0805954
0.0945533
0.103804
0.106699
0.109817
0.115791
0.144563
0.221029
0.505995
0.142549
0.146366
0.148595
0.157756
0.17026
0.179155
0.18675
0.193648
0.201498
0.225178
0.267994
0.267387
0.26375
0.262633
0.266547
0.273669
0.272875
0.272643
0.26573
0.255018
0.483547
0.463057
0.445712
0.4295
0.414205
0.398155
0.384359
0.374634
0.368954
0.359418
0.820306
0.777593
0.730149
0.687208
0.647945
0.611519
0.579137
0.544168
0.52084
0.487718
1.09171
1.06523
1.02917
0.988315
0.94263
0.892055
0.840751
0.787907
0.739143
0.668271
1.13399
1.13265
1.12733
1.11942
1.10982
1.09385
1.06856
1.0334
0.992876
0.911304
1.09074
1.09952
1.10611
1.11083
1.11147
1.11133
1.11038
1.10714
1.10105
1.07598
1.02037
1.02811
1.03727
1.04828
1.06011
1.07125
1.08128
1.08852
1.09452
1.09372
1.001
1.00178
1.0031
1.00533
1.00895
1.01437
1.02192
1.03159
1.0425
1.05996
1.00002
1.00003
1.00006
1.00014
1.0003
1.00066
1.00142
1.00296
1.00545
1.0146
0.0293025
0.0211261
0.0220645
0.0282341
0.0667329
0.139676
0.264374
0.500486
0.860893
1.11009
1.13382
1.08059
1.01438
1.00063
1.00001
0.030384
0.0206822
0.0232102
0.0375883
0.0851529
0.172803
0.33174
0.623742
0.987955
1.14266
1.1325
1.06187
1.00769
1.00023
1
0.0290244
0.0189758
0.0239254
0.0454904
0.0958628
0.195672
0.400563
0.737429
1.06484
1.15148
1.12577
1.04692
1.00435
1.0001
1
0.0290646
0.0182017
0.0231467
0.0516504
0.118064
0.251334
0.510564
0.855281
1.11838
1.15578
1.11596
1.03083
1.00191
1.00004
1
0.0281721
0.0172952
0.0244521
0.0583584
0.15382
0.341566
0.618136
0.962121
1.15401
1.15773
1.09374
1.01643
1.00074
1.00001
1
0.0215075
0.0163796
0.0315039
0.0852098
0.207886
0.422825
0.741328
1.07
1.17171
1.15614
1.06508
1.00835
1.00029
1
1
0.0171408
0.0159806
0.0429776
0.124427
0.273101
0.524239
0.896751
1.14734
1.17808
1.13341
1.04238
1.00374
1.0001
1
1
0.0114682
0.0210565
0.0595874
0.16083
0.37288
0.698038
1.03851
1.18338
1.17958
1.10901
1.02422
1.00137
1.00003
1
1
0.00591684
0.026135
0.0899639
0.230886
0.51493
0.877931
1.13938
1.19738
1.17182
1.07817
1.01072
1.00046
1.00001
1
1
0.00476876
0.031432
0.136077
0.376471
0.712104
1.03581
1.19851
1.20186
1.14767
1.04299
1.00377
1.00012
1
1
1
0.00721676
0.0635378
0.232698
0.561201
0.917726
1.16216
1.21914
1.20241
1.10195
1.01864
1.00112
1.00003
1
1
1
0.00342583
0.123998
0.432742
0.790914
1.09765
1.22491
1.224
1.16339
1.05411
1.00637
1.00027
1.00001
1
1
1
0.0324832
0.26974
0.68575
1.03051
1.2109
1.23734
1.21566
1.10991
1.02273
1.00155
1.00005
1
1
1
1
0.15941
0.568088
0.976024
1.1824
1.25027
1.23799
1.16184
1.05451
1.00664
1.00032
1.00001
1
1
1
1
0.574575
0.966202
1.18797
1.2452
1.25623
1.20426
1.09815
1.01886
1.00132
1.00004
1
1
1
1
1
1.24747
1.25379
1.25775
1.25403
1.24234
1.1443
1.03368
1.00128
1.00003
1
1
1
1
1
1
1.24583
1.25452
1.25964
1.24816
1.22954
1.12843
1.02873
1.00279
1.00011
1
1
1
1
1
1
1.24523
1.25945
1.26472
1.24542
1.19754
1.07672
1.01035
1.0004
1.00001
1
1
1
1
1
1
1.24683
1.26601
1.26715
1.23563
1.16101
1.04665
1.00419
1.00012
1
1
1
1
1
1
1
1.25157
1.27045
1.26868
1.22605
1.11518
1.02109
1.00125
1.00003
1
1
1
1
1
1
1
1.25539
1.2708
1.26733
1.18835
1.06928
1.00912
1.00037
1.00001
1
1
1
1
1
1
1
1.26302
1.26381
1.24853
1.14211
1.03712
1.00302
1.00009
1
1
1
1
1
1
1
1
1.29266
1.24774
1.21915
1.09435
1.01617
1.00092
1.00002
1
1
1
1
1
1
1
1
1.31784
1.23314
1.16749
1.0501
1.00554
1.00023
1
1
1
1
1
1
1
1
1
1.32841
1.20663
1.11016
1.0236
1.00182
1.00005
1
1
1
1
1
1
1
1
1
1.32596
1.16616
1.06433
1.00885
1.00043
1.00001
1
1
1
1
1
1
1
1
1
1.28958
1.11857
1.02956
1.00258
1.00009
1
1
1
1
1
1
1
1
1
1
1.23175
1.07262
1.0115
1.00059
1.00001
1
1
1
1
1
1
1
1
1
1
1.1568
1.03399
1.00287
1.00009
1
1
1
1
1
1
1
1
1
1
1
1.07014
1.00896
1.00039
1.00001
1
1
1
1
1
1
1
1
1
1
1
1
1
1
1
1
1
1
1
1
1
1
1
1
1
1
1
1
1
1
1
1
1
1
1
1
1
1
1
1
1
1
1
1
1
1
1
1
1
1
1
1
1
1
1
1
1
1
1
1
1
1
1
1
1
1
1
1
1
1
1
1
1
1
1
1
1
1
1
1
1
1
1
1
1
1
1
1
1
1
1
1
1
1
1
1
1
1
1
1
1
1
1
1
1
1
1
1
1
1
1
1
1
1
1
1
1
1
1
1
1
1
1
1
1
1
1
1
1
1
1
1
1
1
1
1
1
1
1
1
1
1
1
1
1
1
1
1
1
1
1
1
1
1
1
1
1
1
1
1
1
1
1
1
1
1
1
1
1
1
1
1
1
1
1
1
1
1
1
1
1
1
1
1
1
1
1
1
1
1
1
1
1
1
1
1
1
1
1
1
1
1
1
1
1
1
1
1
1
1
1
1
1
1
1
1
1
1
1
1
1
1
1
1
1
1
1
1
1
1
1
1
1
1
1
1
1
1
1
1
1
1
1
1
1
1
1
1
1
1
1
1
1
1
1
1
1
1
1
1
1
1
1
1
1
1
1
1
1
1
1
1
1
1
1
1
1
1
1
1
1
1
1
1
1
1
1
1
1
1
1
1
1
1
1
1
1
1
1
1
1
1
1
1
1
1
1
1
1
1
1
1
1
1
1
1
1
1
1
1
1
1
1
1
1
1
1
1
1
1
1
1
1
1
1
1
1
1
1
1
1
1
1
1
1
1
1
1
1
1
1
1
1
1
1
1
1
1
1
1
1
4.23265
1.44284
0.999998
1
1
1
1
1
1
1
1
1
1
1
1
1
1
1
1
1
10.7897
7.02411
3.24999
1.04843
1
1
1
1
1
1
1
1
1
1
1
1
1
1
1
1
8.92964
7.81504
7.63592
5.46077
1.55665
0.999932
1
1
1
1
1
1
1
1
1
1
1
1
1
1
8.01727
7.66852
7.8867
7.88731
6.07357
1.90204
0.999148
1
1
1
1
1
1
1
1
1
1
1
1
1
7.7415
7.68464
7.79894
7.80273
7.76881
6.30026
2.05779
0.998308
1
1
1
1
1
1
1
1
1
1
1
1
7.72123
7.71677
7.76866
7.76504
7.71432
7.62094
6.09483
1.92846
0.998317
1
1
1
1
1
1
1
1
1
1
1
7.73741
7.75361
7.75334
7.73987
7.70984
7.70707
7.63614
5.802
1.70265
0.998317
1
1
1
1
1
1
1
1
1
1
7.7562
7.75403
7.74376
7.72342
7.69389
7.66655
7.68194
7.59463
5.24076
1.44191
0.998516
1.00001
1
1
1
1
1
1
1
1
7.75234
7.74266
7.71841
7.68891
7.64889
7.61276
7.56837
7.50009
7.1338
3.89718
1.13305
0.999468
1
1
1
1
1
1
1
1
7.71604
7.69096
7.6604
7.63007
7.58894
7.54079
7.50403
7.45206
7.52969
6.98939
2.91398
1.02311
1
1
1
1
1
1
1
1
7.64882
7.61096
7.57971
7.54971
7.50914
7.45787
7.43937
7.4135
7.44396
7.46803
6.08236
1.9767
0.998809
1
1
1
1
1
1
1
7.56306
7.51744
7.4903
7.4642
7.43378
7.39792
7.39316
7.37512
7.37449
7.38632
7.32952
4.87293
1.34217
0.998542
0.999998
1
1
1
1
1
7.47655
7.43242
7.417
7.39974
7.38107
7.35977
7.35998
7.3256
7.33137
7.32961
7.33196
6.87084
3.1556
1.05614
0.99975
0.999989
1
1
1
1
7.40267
7.37246
7.37167
7.36391
7.34935
7.34039
7.32662
7.27179
7.25131
7.23817
7.23351
7.04011
5.86247
1.8928
1.00238
0.999998
1
1
1
1
7.2788
7.20612
7.1958
7.18165
7.16192
7.1623
7.14383
7.10857
7.11301
7.11553
7.09732
6.97996
6.89206
4.07399
1.11606
0.996211
0.999858
0.999999
1
1
2.40099
3.74552
4.4236
4.97051
5.40347
5.68894
5.93665
6.10487
6.26255
6.41444
6.54305
6.61302
6.74839
6.433
3.22255
1.17557
1.00207
1.00001
1
1
0.713404
1.9748
2.68545
3.25407
3.81739
4.30858
4.72918
5.0728
5.34873
5.60849
5.84582
5.99485
6.25454
6.45021
5.79097
2.57922
1.09514
1.00106
1.00001
1
0.627291
1.24796
1.74395
2.28894
2.75718
3.26354
3.68843
4.14566
4.49433
4.82749
5.15516
5.35866
5.70102
6.12949
5.90836
4.72373
1.83372
1.02781
1.0002
1
0.71997
0.985881
1.15844
1.6045
2.08133
2.52815
2.95089
3.35086
3.72765
4.0861
4.46885
4.76053
5.12228
5.5203
5.63074
5.5053
3.46013
1.30149
1.00526
1.00003
0.89388
0.887271
0.907988
1.20697
1.56139
1.9648
2.41446
2.78275
3.1848
3.51727
3.9187
4.2948
4.61254
4.95982
5.20491
5.39372
4.80612
2.20396
1.06253
1.00058
0.969441
0.889881
0.872213
1.04386
1.27542
1.57874
1.96763
2.34365
2.73085
3.07589
3.4488
3.87025
4.18673
4.49186
4.75613
5.14135
5.05814
3.60511
1.38805
1.00789
0.9494
0.885469
0.886857
0.936388
1.05132
1.31714
1.62371
1.97447
2.28467
2.66382
2.98162
3.4134
3.75844
4.0384
4.31251
4.72018
4.96053
4.46697
2.21883
1.06994
0.938577
0.906028
0.907316
0.905125
0.916101
1.08998
1.34096
1.67089
1.95602
2.30211
2.6391
3.01461
3.403
3.66033
3.97295
4.35053
4.76679
4.5846
3.08401
1.30727
0.954975
0.949624
0.939072
0.903807
0.898385
1.03483
1.19208
1.45089
1.7476
2.03127
2.3944
2.72135
3.10343
3.38979
3.66897
3.99784
4.42726
4.53825
3.83651
1.88668
0.979212
0.967788
0.94736
0.907175
0.89884
0.975211
1.08783
1.28674
1.56507
1.81814
2.15385
2.46955
2.7739
3.10735
3.36581
3.6529
4.05612
4.43421
4.19064
2.89311
0.987774
0.970647
0.945137
0.915685
0.901806
0.923881
0.974966
1.12073
1.36599
1.62391
1.87627
2.2115
2.47771
2.79687
3.09409
3.41757
3.79027
4.22211
4.18517
4.06892
0.980758
0.965702
0.954241
0.934146
0.916347
0.914877
0.924018
1.02487
1.19682
1.46612
1.6917
1.99667
2.2954
2.57343
2.88087
3.20654
3.51094
3.91446
4.24926
5.27452
0.967122
0.95867
0.963419
0.954948
0.936463
0.920691
0.925701
1.00911
1.12539
1.35361
1.58404
1.82336
2.11604
2.37784
2.68365
2.99679
3.23714
3.6442
4.37711
6.46729
0.948796
0.950819
0.962451
0.957576
0.936023
0.910516
0.909417
0.971377
1.05335
1.23934
1.47091
1.66552
1.93867
2.16558
2.47646
2.76302
3.04399
3.44241
4.51489
7.61832
0.935298
0.945121
0.952008
0.951497
0.928696
0.904769
0.900957
0.930182
0.974694
1.10243
1.3229
1.5018
1.75718
2.01379
2.25416
2.57422
2.87575
3.23192
4.60372
8.50683
0.821383
0.920538
0.939274
0.945512
0.927134
0.909109
0.905145
0.924223
0.952693
1.05175
1.22198
1.40199
1.6021
1.9083
2.14028
2.42443
2.68797
3.10607
4.74456
9.14174
0.705136
0.849626
0.918779
0.94436
0.934197
0.924678
0.915627
0.924742
0.948972
1.02573
1.13769
1.33306
1.49502
1.76595
2.02093
2.27439
2.49228
3.02848
5.07408
9.60434
0.612015
0.760968
0.87513
0.935876
0.944347
0.936886
0.922749
0.915997
0.931624
0.992687
1.04988
1.21949
1.41154
1.60619
1.86677
2.10499
2.36965
3.08163
5.3703
9.64172
0.552278
0.676245
0.806079
0.90432
0.941161
0.935319
0.920359
0.901705
0.909908
0.950866
1.00234
1.11071
1.308
1.49636
1.70329
1.95073
2.25892
3.25295
5.57316
9.37036
0.545877
0.617849
0.720665
0.838873
0.918809
0.929844
0.918378
0.900023
0.896906
0.911732
0.960899
1.05691
1.20038
1.39914
1.58301
1.7882
2.15556
3.52631
5.64332
8.86109
0.565497
0.569518
0.644637
0.762733
0.866442
0.914398
0.914433
0.899679
0.888976
0.887768
0.917383
1.01466
1.1237
1.27531
1.46137
1.69777
2.23165
3.98719
5.59923
8.10651
0.620841
0.570013
0.58698
0.683103
0.788649
0.874322
0.903811
0.895413
0.879562
0.867873
0.87793
0.95149
1.05007
1.18253
1.34814
1.60482
2.48644
4.39751
5.44217
7.2515
0.703744
0.626308
0.593068
0.623781
0.69694
0.80908
0.874629
0.88693
0.872629
0.859243
0.863129
0.906593
0.978243
1.08999
1.24584
1.6612
2.83525
4.60034
5.2074
6.31507
0.799457
0.713678
0.617061
0.601706
0.622437
0.722321
0.814166
0.86463
0.868123
0.861111
0.866781
0.884151
0.916934
1.00785
1.20304
1.84049
3.28621
4.56351
4.9257
5.42894
0.901059
0.83272
0.74951
0.652645
0.625042
0.648491
0.706542
0.78576
0.832226
0.847376
0.855132
0.855364
0.865393
1.0197
1.4331
2.34527
3.33979
4.24798
4.28188
4.2515
)
;

boundaryField
{
    inlet
    {
        type            fixedValue;
        value           uniform 1;
    }
    outlet
    {
        type            zeroGradient;
    }
    airfoil
    {
        type            zeroGradient;
    }
    top
    {
        type            symmetryPlane;
    }
    bottom
    {
        type            symmetryPlane;
    }
    defaultFaces
    {
        type            empty;
    }
}


// ************************************************************************* //
