/*--------------------------------*- C++ -*----------------------------------*\
  =========                 |
  \\      /  F ield         | OpenFOAM: The Open Source CFD Toolbox
   \\    /   O peration     | Website:  https://openfoam.org
    \\  /    A nd           | Version:  7
     \\/     M anipulation  |
\*---------------------------------------------------------------------------*/
FoamFile
{
    version     2.0;
    format      ascii;
    class       volScalarField;
    location    "8";
    object      rho;
}
// * * * * * * * * * * * * * * * * * * * * * * * * * * * * * * * * * * * * * //

dimensions      [1 -3 0 0 0 0 0];

internalField   nonuniform List<scalar> 
90000
(
1.04386
1.05184
1.06029
1.06955
1.0782
1.08645
1.09451
1.10288
1.11062
1.11844
1.12605
1.13415
1.14207
1.15178
1.16282
1.17578
1.18917
1.20364
1.21765
1.23212
1.24571
1.25944
1.27216
1.28485
1.29646
1.30762
1.31791
1.32739
1.33529
1.34355
1.34913
1.35325
1.35812
1.3605
1.36075
1.36052
1.36017
1.35979
1.35812
1.35249
1.34341
1.33477
1.32955
1.32865
1.32986
1.33277
1.33645
1.34004
1.3432
1.34441
1.34616
1.34707
1.34677
1.34565
1.34332
1.34123
1.33898
1.33851
1.33879
1.33965
1.34165
1.34223
1.34394
1.3455
1.34555
1.34506
1.34457
1.34351
1.34343
1.3438
1.34417
1.34571
1.34712
1.34913
1.34812
1.34738
1.34636
1.34643
1.34724
1.3487
1.34979
1.34949
1.34897
1.34921
1.34989
1.35058
1.35054
1.35056
1.35073
1.35123
1.35146
1.35141
1.35132
1.3514
1.35163
1.35195
1.35223
1.35262
1.35273
1.35248
1.03872
1.03929
1.0403
1.04196
1.04428
1.04704
1.05021
1.0541
1.05853
1.06343
1.06881
1.07478
1.08125
1.0882
1.09562
1.10389
1.11273
1.12268
1.13312
1.14482
1.15695
1.16988
1.18363
1.19728
1.21203
1.22637
1.24097
1.25562
1.26972
1.28305
1.29649
1.3083
1.31976
1.32826
1.33804
1.34506
1.34818
1.35105
1.35368
1.35635
1.35981
1.36214
1.36332
1.36213
1.35917
1.35511
1.3507
1.3469
1.34515
1.34304
1.34345
1.34435
1.3461
1.34817
1.3507
1.35376
1.35447
1.35371
1.35162
1.34883
1.34591
1.34321
1.34331
1.34441
1.34737
1.35131
1.35367
1.35252
1.35028
1.34773
1.34648
1.34757
1.35074
1.35394
1.3536
1.35182
1.34903
1.34871
1.34997
1.35252
1.3534
1.3528
1.35176
1.35181
1.35247
1.35346
1.35348
1.35336
1.35337
1.35353
1.35375
1.3538
1.35372
1.35372
1.35378
1.35394
1.35427
1.35461
1.35469
1.35453
1.0403
1.04034
1.0404
1.04047
1.04055
1.04065
1.04078
1.04095
1.04119
1.04151
1.04193
1.04249
1.04336
1.04458
1.04606
1.0479
1.05009
1.05273
1.05587
1.05971
1.06425
1.06977
1.07617
1.08395
1.09279
1.10343
1.11515
1.12917
1.14406
1.16087
1.17963
1.19852
1.21909
1.24054
1.26092
1.28084
1.30229
1.31871
1.33533
1.34931
1.35827
1.3625
1.36506
1.36485
1.36464
1.3641
1.36299
1.36088
1.35729
1.35339
1.35118
1.35233
1.35439
1.35747
1.36023
1.36307
1.36291
1.36173
1.35955
1.35604
1.35283
1.34976
1.35017
1.352
1.35452
1.35766
1.35935
1.35928
1.35814
1.3555
1.35523
1.35565
1.35704
1.35846
1.35921
1.35866
1.35766
1.35663
1.35679
1.35727
1.35806
1.35819
1.35783
1.35737
1.35741
1.35786
1.35805
1.35818
1.35815
1.35818
1.35833
1.35831
1.35821
1.358
1.35784
1.35784
1.35797
1.35841
1.35844
1.3582
1.04327
1.04329
1.04331
1.04332
1.04335
1.04338
1.04342
1.04347
1.04353
1.04361
1.04371
1.04391
1.04392
1.04394
1.04398
1.04405
1.04417
1.04432
1.04449
1.04469
1.04497
1.04535
1.04587
1.04682
1.04809
1.04986
1.05217
1.05531
1.05941
1.06493
1.0717
1.08126
1.09208
1.10641
1.12309
1.14299
1.16463
1.19011
1.21658
1.24237
1.26923
1.29084
1.31312
1.32639
1.34
1.34654
1.35347
1.35568
1.35651
1.35854
1.36334
1.36637
1.36853
1.36916
1.36889
1.36842
1.36741
1.36525
1.36394
1.36241
1.36216
1.36244
1.36264
1.36278
1.36234
1.36185
1.36187
1.36249
1.36351
1.36545
1.36654
1.36559
1.3641
1.36258
1.3632
1.36414
1.36569
1.36513
1.36403
1.36277
1.36286
1.36349
1.3641
1.36368
1.3631
1.36316
1.36361
1.36398
1.36388
1.36357
1.3635
1.36347
1.36338
1.36316
1.36284
1.36264
1.36268
1.36296
1.36305
1.36282
1.0461
1.04611
1.04611
1.04611
1.04611
1.04612
1.04615
1.04619
1.04621
1.04625
1.04629
1.0463
1.04629
1.04626
1.04622
1.04621
1.04622
1.04627
1.04633
1.04636
1.04642
1.04651
1.04672
1.04678
1.0468
1.04681
1.04687
1.047
1.04718
1.04743
1.0478
1.04859
1.04985
1.05189
1.05479
1.05946
1.06565
1.07527
1.0872
1.10461
1.12463
1.15132
1.17957
1.21142
1.24323
1.27217
1.30105
1.32191
1.3432
1.35495
1.3624
1.36437
1.3668
1.36749
1.36735
1.36574
1.36201
1.3617
1.36315
1.36652
1.36999
1.3725
1.37223
1.37042
1.36746
1.3643
1.36334
1.36397
1.36591
1.36855
1.37085
1.37076
1.36959
1.36787
1.367
1.3678
1.36903
1.36995
1.36967
1.36847
1.36727
1.36749
1.36798
1.36842
1.36811
1.36774
1.368
1.3685
1.36846
1.36817
1.36795
1.36795
1.36783
1.36753
1.3671
1.36687
1.36688
1.36703
1.36714
1.3669
1.04792
1.04793
1.04793
1.04793
1.04793
1.04794
1.04794
1.04794
1.04794
1.04796
1.048
1.04801
1.04803
1.04804
1.04802
1.048
1.04799
1.048
1.04801
1.048
1.04798
1.04795
1.04791
1.04786
1.04782
1.04776
1.04772
1.04772
1.04773
1.04774
1.04781
1.04777
1.04771
1.04771
1.04773
1.04781
1.04799
1.04851
1.04954
1.05159
1.05491
1.06089
1.06928
1.0834
1.10099
1.12695
1.15559
1.19016
1.22609
1.25818
1.28994
1.30886
1.32906
1.33691
1.34688
1.3502
1.35584
1.36198
1.36944
1.37392
1.37549
1.37525
1.37412
1.37128
1.36869
1.3671
1.36649
1.36759
1.36986
1.37034
1.37035
1.37026
1.3699
1.37023
1.37109
1.37159
1.37142
1.3713
1.371
1.37075
1.37043
1.37004
1.36996
1.37017
1.37062
1.37054
1.37055
1.3707
1.37089
1.37084
1.37073
1.37062
1.3706
1.37039
1.37003
1.36968
1.36968
1.36978
1.36997
1.36983
1.04907
1.04907
1.04907
1.04908
1.04909
1.0491
1.04908
1.04905
1.04901
1.04899
1.04899
1.04899
1.04901
1.049
1.04899
1.04895
1.04891
1.04889
1.04888
1.04887
1.04884
1.0488
1.04874
1.04868
1.04861
1.04854
1.04847
1.04839
1.04828
1.04817
1.04805
1.04794
1.04783
1.04775
1.04767
1.04757
1.04757
1.04754
1.04751
1.04752
1.04759
1.0478
1.04827
1.04931
1.05121
1.05526
1.06173
1.07411
1.09062
1.11734
1.14768
1.18624
1.22491
1.26091
1.29598
1.32021
1.34636
1.3569
1.36512
1.36895
1.37171
1.36977
1.36451
1.3627
1.36427
1.36811
1.37186
1.37321
1.37309
1.37147
1.36811
1.36769
1.36845
1.37078
1.37271
1.37306
1.37271
1.37185
1.37111
1.37136
1.37178
1.37153
1.37091
1.37085
1.37112
1.37192
1.37189
1.37176
1.37179
1.3719
1.37211
1.37198
1.37175
1.3716
1.37149
1.37125
1.37109
1.37116
1.37139
1.37132
1.0495
1.04951
1.04951
1.04951
1.04951
1.04951
1.04952
1.04953
1.04951
1.04948
1.04944
1.04943
1.04941
1.0494
1.04938
1.04935
1.04932
1.04928
1.04923
1.04918
1.04915
1.04911
1.04906
1.049
1.04893
1.04886
1.0488
1.04871
1.0486
1.0485
1.04839
1.04827
1.04814
1.04802
1.04789
1.04775
1.04761
1.04748
1.04734
1.04725
1.04722
1.04723
1.04723
1.04725
1.04727
1.04737
1.04764
1.04831
1.04973
1.05325
1.05952
1.07272
1.09093
1.12127
1.15491
1.19663
1.23762
1.27132
1.30452
1.31933
1.33787
1.34364
1.35264
1.36113
1.37013
1.37547
1.37613
1.37543
1.37136
1.36719
1.3663
1.36694
1.36942
1.37286
1.3731
1.37259
1.37149
1.3708
1.37105
1.37182
1.37227
1.3718
1.37126
1.37107
1.37134
1.37187
1.37227
1.37206
1.37201
1.37227
1.37249
1.37253
1.37231
1.37212
1.37213
1.37207
1.37188
1.37184
1.3719
1.372
1.0495
1.0495
1.0495
1.0495
1.0495
1.0495
1.0495
1.04951
1.04955
1.04958
1.04957
1.04954
1.04948
1.04941
1.0494
1.04939
1.04938
1.04934
1.04928
1.04923
1.04921
1.04919
1.04916
1.04911
1.04905
1.04899
1.0489
1.04878
1.04867
1.04858
1.0485
1.04841
1.04829
1.04816
1.04802
1.04789
1.04776
1.04762
1.04744
1.04728
1.04721
1.04716
1.04707
1.047
1.04701
1.04706
1.04712
1.04717
1.04722
1.04731
1.04751
1.04817
1.04977
1.05415
1.06216
1.0793
1.10239
1.13985
1.18063
1.22636
1.27102
1.30528
1.34134
1.35516
1.36528
1.3701
1.37113
1.3666
1.36173
1.36346
1.36749
1.3709
1.37255
1.37272
1.37181
1.36935
1.36949
1.37032
1.3717
1.37235
1.37208
1.37158
1.37134
1.37151
1.3718
1.37179
1.37188
1.37193
1.37212
1.37243
1.37258
1.37252
1.37248
1.37243
1.37244
1.37239
1.37225
1.37214
1.37207
1.37218
1.04943
1.04942
1.04942
1.04942
1.04941
1.04941
1.04942
1.04943
1.04948
1.0495
1.04948
1.04944
1.0494
1.0494
1.04939
1.04938
1.04936
1.04933
1.0493
1.04929
1.04928
1.04926
1.04923
1.04917
1.04913
1.04908
1.04901
1.04892
1.04881
1.0487
1.04858
1.04846
1.04834
1.04822
1.04811
1.04802
1.04792
1.04782
1.04769
1.04755
1.04745
1.04738
1.0473
1.0472
1.04716
1.04716
1.04717
1.04721
1.04732
1.04746
1.0476
1.04755
1.04742
1.04743
1.04762
1.0487
1.05149
1.05897
1.07187
1.098
1.13042
1.17667
1.22357
1.26473
1.30379
1.32131
1.33986
1.34631
1.36077
1.369
1.37493
1.37486
1.374
1.37009
1.36664
1.36695
1.36879
1.37183
1.37236
1.37192
1.37075
1.37088
1.37151
1.37242
1.37228
1.37186
1.37154
1.37176
1.37228
1.37257
1.37252
1.37247
1.37254
1.37271
1.37271
1.37264
1.37251
1.37232
1.3722
1.37228
1.04874
1.04873
1.04871
1.0487
1.0487
1.04869
1.04868
1.04868
1.0487
1.0487
1.04867
1.04866
1.04866
1.04868
1.04869
1.04869
1.04869
1.04869
1.0487
1.04872
1.04873
1.04872
1.04868
1.04866
1.04866
1.04866
1.04866
1.04865
1.04864
1.04862
1.04854
1.04844
1.04836
1.0483
1.04824
1.04818
1.0481
1.04803
1.04794
1.04783
1.04771
1.0476
1.04748
1.04745
1.04744
1.04746
1.04751
1.04763
1.04779
1.04794
1.04805
1.04806
1.04805
1.04802
1.04801
1.04786
1.04779
1.04796
1.04878
1.05158
1.05774
1.07286
1.09565
1.13616
1.18257
1.234
1.28478
1.32235
1.35466
1.3637
1.37159
1.37053
1.36551
1.36202
1.36437
1.36892
1.3728
1.37296
1.37205
1.3694
1.36957
1.37102
1.37278
1.37284
1.37239
1.37149
1.37143
1.37192
1.37248
1.37244
1.37233
1.3724
1.37272
1.37296
1.37292
1.37284
1.37273
1.37252
1.37235
1.37241
1.04828
1.04826
1.04825
1.04823
1.0482
1.04819
1.04819
1.04818
1.04817
1.04816
1.04816
1.04816
1.04816
1.04817
1.04818
1.04819
1.04821
1.04823
1.04825
1.04829
1.04831
1.0483
1.04831
1.04831
1.04834
1.04837
1.0484
1.04842
1.04842
1.04842
1.04843
1.04844
1.04845
1.04845
1.04845
1.04842
1.04837
1.04834
1.04829
1.0482
1.04806
1.04791
1.04781
1.0478
1.04781
1.04785
1.04795
1.04811
1.04832
1.04852
1.04866
1.04876
1.04885
1.04885
1.04879
1.04867
1.0485
1.0484
1.0483
1.04834
1.04857
1.04959
1.05235
1.0602
1.07476
1.10561
1.14563
1.19854
1.25352
1.28852
1.32868
1.33717
1.34996
1.35949
1.37186
1.37489
1.37444
1.37131
1.36743
1.36777
1.37016
1.37348
1.37347
1.37266
1.3714
1.37142
1.37204
1.37271
1.37261
1.37216
1.37221
1.37254
1.37301
1.37323
1.37315
1.37309
1.37302
1.37281
1.37259
1.37263
1.04792
1.0479
1.04789
1.04786
1.04781
1.04779
1.04778
1.04778
1.04779
1.04778
1.04778
1.04778
1.04778
1.04779
1.0478
1.04781
1.04784
1.04785
1.04787
1.0479
1.04793
1.04796
1.04798
1.04801
1.04805
1.04809
1.04813
1.04817
1.04819
1.04823
1.04829
1.04837
1.04845
1.04849
1.0485
1.04852
1.04857
1.0486
1.04859
1.04853
1.0484
1.04824
1.0481
1.04802
1.04802
1.04808
1.04819
1.04836
1.04858
1.04879
1.04897
1.04913
1.04931
1.04951
1.0496
1.04958
1.04952
1.04934
1.04902
1.04878
1.04877
1.04885
1.04908
1.04958
1.05075
1.0546
1.06295
1.08537
1.11788
1.17199
1.23102
1.28203
1.3364
1.35401
1.36723
1.37067
1.36659
1.36092
1.36389
1.36985
1.37465
1.37457
1.37324
1.37046
1.37071
1.37218
1.37339
1.3732
1.37228
1.37209
1.37236
1.37303
1.3733
1.37334
1.37339
1.37345
1.37337
1.37316
1.37296
1.37302
1.04793
1.04791
1.04789
1.04786
1.04784
1.04782
1.04781
1.0478
1.04779
1.04778
1.04777
1.04776
1.04775
1.04774
1.04773
1.04771
1.04771
1.04771
1.04771
1.04772
1.04773
1.04774
1.04775
1.04778
1.04782
1.04787
1.04791
1.04796
1.04801
1.04807
1.04815
1.04823
1.04831
1.0484
1.04852
1.04864
1.04874
1.04883
1.04884
1.04881
1.04874
1.04865
1.04855
1.04842
1.04831
1.0483
1.04837
1.04853
1.04871
1.04889
1.04905
1.04921
1.04938
1.0496
1.04991
1.05006
1.05006
1.05004
1.04985
1.04949
1.04924
1.04919
1.04921
1.04939
1.04963
1.04982
1.05021
1.05193
1.05686
1.07291
1.09949
1.15087
1.20861
1.26065
1.31075
1.3287
1.34449
1.35562
1.37229
1.37612
1.37565
1.37219
1.3687
1.36937
1.37233
1.37432
1.37406
1.37271
1.37205
1.37239
1.37316
1.37363
1.37351
1.37348
1.37367
1.37383
1.37369
1.37353
1.37346
1.37352
1.04822
1.0482
1.04818
1.04817
1.04816
1.04814
1.04812
1.0481
1.04807
1.04805
1.04802
1.04799
1.04796
1.04793
1.0479
1.04787
1.04784
1.04783
1.04781
1.04781
1.04781
1.04782
1.04783
1.04786
1.04789
1.04793
1.04798
1.04803
1.0481
1.04818
1.04828
1.04839
1.04851
1.04862
1.04871
1.0488
1.04888
1.04896
1.04903
1.04907
1.04907
1.04907
1.04906
1.04902
1.04896
1.04889
1.04885
1.04887
1.0489
1.04894
1.04903
1.04916
1.04931
1.04956
1.04991
1.05019
1.05027
1.05028
1.05022
1.04998
1.04965
1.0495
1.04949
1.04956
1.04969
1.04991
1.04998
1.04993
1.05
1.0509
1.05413
1.0662
1.0883
1.13681
1.19446
1.254
1.31948
1.34862
1.36679
1.3715
1.36674
1.36171
1.36539
1.37216
1.37586
1.37488
1.37261
1.37188
1.3724
1.37375
1.37382
1.37364
1.37356
1.37384
1.37409
1.37408
1.37389
1.37393
1.37409
1.37408
1.04912
1.04913
1.04913
1.04913
1.04913
1.04913
1.04912
1.0491
1.04908
1.04906
1.04902
1.049
1.04897
1.04894
1.04889
1.04882
1.04874
1.04866
1.04859
1.04851
1.04843
1.04837
1.04832
1.04829
1.04828
1.04828
1.04832
1.04835
1.04837
1.0484
1.04847
1.04856
1.04867
1.04877
1.04886
1.04892
1.04897
1.04904
1.04912
1.04922
1.04932
1.04943
1.04951
1.04954
1.04955
1.04955
1.04951
1.04943
1.04932
1.04919
1.0491
1.04911
1.04921
1.04938
1.04969
1.05012
1.05029
1.0503
1.05025
1.05013
1.0499
1.04967
1.0496
1.04961
1.04976
1.05008
1.05027
1.05029
1.05028
1.05016
1.05021
1.05085
1.05322
1.06265
1.08171
1.12654
1.18333
1.24383
1.30091
1.32512
1.34372
1.3567
1.37475
1.37724
1.37558
1.37036
1.37049
1.37193
1.3745
1.37512
1.37435
1.37341
1.37375
1.37434
1.37447
1.37415
1.3741
1.37441
1.37469
1.3746
1.04989
1.04992
1.04993
1.04994
1.04995
1.04997
1.04999
1.05001
1.05002
1.05002
1.05003
1.05003
1.05002
1.05
1.04997
1.0499
1.04985
1.04979
1.04972
1.04961
1.04947
1.04934
1.04923
1.04913
1.04905
1.04899
1.04893
1.04888
1.04883
1.04881
1.04883
1.04887
1.04892
1.04899
1.04906
1.0491
1.04915
1.04923
1.04934
1.04947
1.0496
1.04974
1.04985
1.04997
1.05009
1.05013
1.05015
1.05013
1.05
1.04972
1.04943
1.04928
1.04926
1.04931
1.0495
1.04984
1.05014
1.05023
1.05021
1.05016
1.05004
1.04983
1.04964
1.04962
1.04974
1.05005
1.05041
1.05057
1.05057
1.05051
1.05047
1.05049
1.05061
1.05117
1.05303
1.06077
1.07792
1.12196
1.17949
1.24496
1.31756
1.34915
1.36983
1.37175
1.36259
1.36371
1.36884
1.37509
1.37598
1.37503
1.37304
1.3733
1.37455
1.37467
1.3744
1.37417
1.37446
1.37503
1.37507
1.37493
1.05023
1.05027
1.0503
1.05034
1.05038
1.05042
1.05046
1.05049
1.05053
1.05057
1.05059
1.05061
1.05063
1.05064
1.05065
1.05065
1.05067
1.05067
1.05066
1.05061
1.05055
1.05048
1.05039
1.05028
1.05018
1.05008
1.05
1.04992
1.04987
1.04981
1.04975
1.04969
1.04969
1.0497
1.04969
1.04963
1.04962
1.04964
1.04969
1.04975
1.04983
1.04994
1.05007
1.05024
1.05046
1.0506
1.05062
1.05063
1.05059
1.05038
1.04997
1.04956
1.0494
1.04941
1.04952
1.04973
1.04997
1.05013
1.05016
1.05018
1.05021
1.05016
1.04995
1.04978
1.04979
1.05001
1.0504
1.05062
1.05066
1.05066
1.05063
1.05064
1.05069
1.05082
1.051
1.05141
1.05286
1.05987
1.07676
1.12065
1.1798
1.24513
1.30458
1.32907
1.34516
1.36434
1.37674
1.37686
1.37473
1.37158
1.37254
1.37535
1.37566
1.37494
1.37387
1.37415
1.37502
1.37545
1.37532
1.37517
1.05035
1.05042
1.05048
1.05054
1.05061
1.05067
1.05073
1.05077
1.05081
1.05085
1.05089
1.05094
1.051
1.05105
1.05111
1.05118
1.05124
1.05129
1.05132
1.05135
1.05137
1.05138
1.05137
1.05132
1.05123
1.05114
1.05105
1.05098
1.05092
1.05085
1.05076
1.05063
1.05051
1.05041
1.05031
1.05019
1.05008
1.05002
1.05
1.04999
1.05005
1.05017
1.0503
1.05045
1.05068
1.05092
1.05102
1.05104
1.05104
1.05094
1.05062
1.05015
1.04976
1.04965
1.04968
1.04983
1.05004
1.05018
1.05021
1.05028
1.05046
1.05052
1.05045
1.05022
1.05015
1.0502
1.05036
1.05052
1.05065
1.0507
1.05071
1.05073
1.05077
1.05087
1.05109
1.05118
1.05122
1.05148
1.05289
1.05987
1.07778
1.1241
1.18558
1.25777
1.32821
1.35757
1.37276
1.3702
1.36268
1.36719
1.37459
1.37669
1.37574
1.37327
1.3736
1.37503
1.37558
1.37543
1.37526
1.37542
1.05036
1.05042
1.05047
1.05053
1.0506
1.05066
1.05072
1.0508
1.05087
1.05093
1.05099
1.05105
1.0511
1.05116
1.05123
1.05132
1.0514
1.05144
1.05147
1.05152
1.0516
1.05169
1.05172
1.05171
1.05167
1.0516
1.05151
1.05147
1.05144
1.0514
1.05134
1.05125
1.05113
1.05098
1.05081
1.05066
1.05052
1.05039
1.05026
1.05014
1.05005
1.05003
1.05003
1.05007
1.0502
1.05049
1.05098
1.05127
1.05129
1.05127
1.05113
1.05085
1.05055
1.05038
1.05037
1.0504
1.05041
1.05048
1.05057
1.05064
1.05076
1.05084
1.05083
1.0507
1.05055
1.05048
1.05046
1.05049
1.05061
1.05074
1.05081
1.05086
1.05091
1.05097
1.05105
1.05122
1.05131
1.05129
1.05128
1.05154
1.05315
1.06064
1.08117
1.12984
1.19772
1.26482
1.31508
1.3389
1.35438
1.3762
1.37774
1.37597
1.37164
1.37237
1.37511
1.37641
1.37588
1.37503
1.37517
1.37572
1.05032
1.05033
1.05036
1.05039
1.05043
1.05048
1.05052
1.05057
1.05062
1.05067
1.05074
1.05079
1.05085
1.05089
1.05095
1.05105
1.05118
1.05125
1.05131
1.05138
1.05149
1.05162
1.05172
1.05173
1.05171
1.05165
1.05161
1.05162
1.05162
1.0516
1.05154
1.05147
1.05139
1.05129
1.05116
1.05104
1.05093
1.0508
1.05064
1.0504
1.0501
1.04994
1.04992
1.04991
1.04994
1.05016
1.05072
1.0513
1.05145
1.05145
1.0514
1.05127
1.0511
1.05105
1.0511
1.05113
1.05105
1.05094
1.05094
1.051
1.05106
1.05109
1.05109
1.05105
1.051
1.05087
1.05072
1.05067
1.05072
1.05087
1.05103
1.0511
1.05114
1.05116
1.05119
1.05122
1.05123
1.05119
1.0511
1.05109
1.05116
1.05157
1.05367
1.06232
1.0881
1.14225
1.21167
1.29481
1.34342
1.37145
1.37136
1.36205
1.3661
1.37406
1.37719
1.37634
1.37454
1.37469
1.37558
1.37595
1.05051
1.0505
1.05052
1.05055
1.05056
1.05056
1.05052
1.05053
1.05055
1.05057
1.05057
1.05057
1.05055
1.05054
1.05057
1.05063
1.05069
1.05072
1.05076
1.05083
1.05096
1.05107
1.05115
1.05126
1.05133
1.0513
1.05128
1.05128
1.05132
1.05134
1.05133
1.05134
1.05134
1.05131
1.05132
1.05135
1.05135
1.05132
1.05116
1.05083
1.05034
1.0499
1.04979
1.04979
1.04982
1.05005
1.05066
1.05135
1.05157
1.05158
1.05156
1.05146
1.0513
1.05124
1.0513
1.05137
1.05134
1.05124
1.05123
1.05121
1.05117
1.05119
1.05121
1.05121
1.05125
1.05129
1.05123
1.05116
1.05117
1.05126
1.05137
1.05139
1.05135
1.05129
1.05124
1.0512
1.05116
1.05108
1.05102
1.051
1.05101
1.05108
1.05121
1.05172
1.05465
1.06495
1.09834
1.1566
1.23072
1.29897
1.3292
1.34662
1.37257
1.37773
1.37645
1.37252
1.37364
1.37561
1.37633
1.376
1.05089
1.0509
1.05092
1.05093
1.05093
1.05082
1.05067
1.05066
1.05069
1.05069
1.05069
1.05067
1.05062
1.05062
1.05065
1.05068
1.05066
1.05062
1.05061
1.05055
1.05042
1.05037
1.05034
1.05033
1.05035
1.05047
1.05064
1.0508
1.05101
1.05114
1.05116
1.05118
1.05127
1.05153
1.05182
1.05188
1.05189
1.05187
1.05176
1.0515
1.05108
1.05065
1.05052
1.05051
1.05052
1.05066
1.0511
1.05156
1.05167
1.05167
1.05156
1.05137
1.0513
1.0512
1.05118
1.05123
1.05136
1.05144
1.05143
1.05131
1.0512
1.05117
1.05118
1.05126
1.05141
1.0516
1.05172
1.0517
1.05168
1.05169
1.05166
1.0516
1.05147
1.05139
1.05134
1.05125
1.05113
1.05102
1.05102
1.05108
1.05119
1.05133
1.05146
1.05147
1.05151
1.05205
1.05603
1.07029
1.11292
1.17764
1.26134
1.33271
1.36458
1.37343
1.36255
1.36625
1.37268
1.3765
1.37611
1.37539
1.05131
1.05136
1.0514
1.05144
1.05148
1.05151
1.05153
1.05153
1.05146
1.05141
1.0514
1.05139
1.05133
1.05114
1.05107
1.05105
1.05099
1.05079
1.05057
1.05041
1.05023
1.05011
1.05005
1.05001
1.05001
1.05009
1.05037
1.05072
1.05096
1.0511
1.05124
1.0514
1.05164
1.05206
1.05241
1.05246
1.05246
1.05241
1.05225
1.05192
1.05138
1.05108
1.05106
1.05106
1.05104
1.05104
1.05126
1.05164
1.05179
1.05179
1.05158
1.05131
1.0513
1.05117
1.05091
1.05086
1.051
1.0513
1.05162
1.05177
1.0517
1.05151
1.05133
1.05136
1.05151
1.05167
1.05183
1.05196
1.05198
1.05195
1.05184
1.05154
1.05145
1.05146
1.05148
1.05145
1.05132
1.05127
1.0513
1.0514
1.05153
1.0516
1.0516
1.05156
1.05138
1.0511
1.05118
1.05228
1.05839
1.07988
1.13164
1.20907
1.27778
1.32522
1.34423
1.37093
1.37696
1.3761
1.37301
1.37475
1.05125
1.05131
1.05137
1.05145
1.05155
1.05173
1.05199
1.05207
1.05209
1.05209
1.05209
1.05208
1.05203
1.05194
1.05191
1.05184
1.05177
1.05176
1.05175
1.05166
1.05144
1.05123
1.05116
1.05113
1.05113
1.05114
1.05118
1.0514
1.05155
1.05157
1.05165
1.05181
1.0521
1.05232
1.05235
1.05233
1.05226
1.05212
1.05194
1.05169
1.05128
1.05104
1.05103
1.05113
1.05116
1.05114
1.05122
1.05153
1.05192
1.05216
1.05212
1.05181
1.05156
1.05121
1.05074
1.05057
1.0507
1.0512
1.0519
1.05234
1.05232
1.05212
1.05186
1.05171
1.05172
1.05171
1.05176
1.05191
1.052
1.05198
1.05173
1.05135
1.05128
1.05132
1.05143
1.05156
1.05162
1.05165
1.0517
1.05177
1.05181
1.05179
1.05173
1.05152
1.05115
1.05091
1.05092
1.05098
1.05131
1.05355
1.06335
1.09618
1.1583
1.24114
1.32291
1.36246
1.37326
1.36222
1.36652
1.37394
1.05044
1.05053
1.05065
1.05078
1.05095
1.05112
1.05124
1.05132
1.05139
1.05145
1.05151
1.05155
1.05153
1.05144
1.05138
1.05136
1.05137
1.05138
1.05135
1.05125
1.05109
1.05102
1.05102
1.05104
1.05107
1.05107
1.05109
1.05125
1.05139
1.0513
1.05117
1.05124
1.05129
1.05117
1.05091
1.05075
1.05074
1.05069
1.05053
1.05049
1.05044
1.05037
1.0504
1.05063
1.05076
1.05064
1.05043
1.05058
1.05141
1.0525
1.05291
1.05282
1.05239
1.05158
1.0508
1.05058
1.05074
1.05135
1.05209
1.05249
1.05249
1.05235
1.05225
1.05212
1.05187
1.05165
1.05159
1.05169
1.0518
1.05178
1.0516
1.05133
1.0513
1.05142
1.05168
1.0519
1.05199
1.05201
1.05199
1.05197
1.05195
1.05188
1.05164
1.05131
1.05104
1.05096
1.05098
1.05112
1.0515
1.0517
1.05236
1.05636
1.07233
1.11728
1.19374
1.26814
1.32168
1.3433
1.37133
1.37677
1.04614
1.04616
1.0462
1.04627
1.04638
1.0465
1.04663
1.04681
1.04703
1.04729
1.04758
1.04789
1.04815
1.04835
1.04853
1.04881
1.04913
1.04931
1.04932
1.04933
1.04941
1.04954
1.0496
1.04964
1.04963
1.04948
1.04935
1.04925
1.04896
1.04861
1.0486
1.0487
1.04862
1.04861
1.04873
1.04928
1.04998
1.0501
1.05008
1.04987
1.0493
1.04896
1.04894
1.04902
1.04924
1.0494
1.04958
1.05006
1.0513
1.05251
1.053
1.05301
1.05275
1.05209
1.05127
1.05084
1.05096
1.05147
1.05197
1.05228
1.05228
1.05217
1.05215
1.05208
1.05171
1.05122
1.05113
1.05116
1.05137
1.05158
1.05161
1.05162
1.05174
1.05198
1.05208
1.05212
1.05216
1.05214
1.05208
1.05194
1.05172
1.05152
1.05132
1.05116
1.05111
1.05119
1.05137
1.05161
1.05184
1.05184
1.05181
1.05189
1.05312
1.06033
1.08828
1.14753
1.23246
1.32004
1.3616
1.37199
1.04223
1.04218
1.04215
1.04215
1.04216
1.04218
1.04225
1.04251
1.04284
1.04303
1.0433
1.04367
1.04405
1.0444
1.0448
1.04531
1.04582
1.04621
1.04648
1.04669
1.04695
1.04735
1.04772
1.04785
1.04785
1.04777
1.04762
1.04729
1.04685
1.04682
1.04679
1.0465
1.04642
1.04645
1.04672
1.04792
1.04969
1.04998
1.04998
1.04966
1.04876
1.04787
1.04767
1.04763
1.04761
1.04764
1.04791
1.04878
1.05021
1.05131
1.05196
1.05227
1.05217
1.05165
1.05087
1.05018
1.05
1.05017
1.05022
1.05013
1.05008
1.05009
1.05044
1.05098
1.05107
1.05101
1.05098
1.05107
1.05138
1.05179
1.0519
1.05201
1.05222
1.0523
1.05229
1.05225
1.05222
1.05215
1.05194
1.05156
1.05127
1.05126
1.05125
1.05128
1.05147
1.0517
1.05188
1.05201
1.05202
1.05194
1.0518
1.0517
1.05172
1.05211
1.05528
1.06915
1.11206
1.18987
1.2638
1.33102
1.04398
1.04393
1.04383
1.04361
1.04353
1.04361
1.04383
1.04417
1.04518
1.04578
1.0458
1.04597
1.04648
1.0467
1.04691
1.04746
1.04777
1.04761
1.04748
1.04741
1.04743
1.04779
1.04854
1.04927
1.04971
1.05008
1.0504
1.05042
1.05015
1.04996
1.05009
1.05034
1.05028
1.04992
1.04993
1.05078
1.05232
1.0527
1.0526
1.05205
1.05086
1.04965
1.04927
1.04915
1.04889
1.04856
1.04822
1.04791
1.04788
1.04795
1.04815
1.04857
1.04888
1.04884
1.04859
1.04817
1.04774
1.04774
1.0479
1.04817
1.04822
1.04817
1.04844
1.04932
1.05029
1.05075
1.05104
1.05142
1.05183
1.05198
1.05197
1.05206
1.05219
1.05218
1.05208
1.05183
1.0516
1.05142
1.05123
1.05109
1.05113
1.05125
1.05145
1.05173
1.05199
1.05207
1.05209
1.05208
1.05196
1.05177
1.05173
1.05169
1.05173
1.05184
1.05202
1.05315
1.05974
1.08665
1.14402
1.26487
1.06026
1.05954
1.0588
1.0582
1.05818
1.05858
1.05903
1.0591
1.05899
1.05893
1.05923
1.05935
1.05918
1.0587
1.05732
1.05581
1.05574
1.05573
1.05452
1.05222
1.05169
1.05178
1.05252
1.05324
1.05332
1.05334
1.0535
1.05406
1.05426
1.05385
1.05371
1.05356
1.05275
1.05205
1.05203
1.05236
1.0525
1.05226
1.05132
1.04992
1.04873
1.04835
1.04876
1.04904
1.04884
1.04851
1.04812
1.04751
1.04728
1.04724
1.0471
1.04703
1.04702
1.04694
1.04679
1.04677
1.04696
1.04767
1.04839
1.04836
1.048
1.04768
1.04772
1.04817
1.049
1.04991
1.05073
1.05113
1.05116
1.05082
1.05015
1.0499
1.04993
1.05006
1.05024
1.05034
1.05043
1.05055
1.05082
1.05106
1.05162
1.05199
1.0521
1.05215
1.05219
1.05218
1.05209
1.05191
1.0517
1.05168
1.05172
1.05186
1.05204
1.05215
1.0522
1.05214
1.05234
1.05515
1.06788
1.14686
1.0767
1.0743
1.07233
1.07175
1.07174
1.07195
1.07243
1.07353
1.07438
1.07473
1.07475
1.0744
1.07387
1.07382
1.07344
1.07133
1.06835
1.0652
1.06261
1.06213
1.06266
1.06307
1.06324
1.06321
1.06258
1.06232
1.06267
1.06369
1.06404
1.06367
1.06257
1.06095
1.05814
1.05503
1.0542
1.05433
1.05428
1.05397
1.05352
1.05283
1.05183
1.05174
1.05231
1.05317
1.05412
1.05412
1.0532
1.05287
1.05293
1.05277
1.05218
1.05076
1.04975
1.04904
1.04855
1.04852
1.04932
1.05178
1.05363
1.0537
1.05338
1.05264
1.05127
1.05007
1.04971
1.04968
1.05011
1.05051
1.05028
1.04954
1.0486
1.04818
1.04816
1.04827
1.04863
1.04896
1.04923
1.04958
1.0501
1.05113
1.05179
1.05212
1.05211
1.0521
1.05201
1.05181
1.05152
1.05151
1.05155
1.05179
1.05213
1.0523
1.0524
1.05235
1.05229
1.05202
1.05173
1.05176
1.05267
1.0777
1.11245
1.11035
1.10791
1.10522
1.10376
1.10312
1.10291
1.10308
1.10398
1.10476
1.10472
1.10439
1.10494
1.10589
1.1057
1.10385
1.09864
1.09597
1.09616
1.09611
1.09593
1.09703
1.09725
1.09672
1.09638
1.09633
1.09664
1.09749
1.0978
1.09714
1.09682
1.09614
1.09385
1.0893
1.08491
1.08263
1.08197
1.0814
1.07906
1.07814
1.07798
1.07617
1.07485
1.07462
1.07395
1.07273
1.07094
1.07018
1.0704
1.07127
1.07119
1.06824
1.06445
1.06216
1.05968
1.05747
1.05727
1.05785
1.05798
1.0575
1.05651
1.05508
1.05315
1.05143
1.04965
1.04904
1.04919
1.04921
1.04895
1.04873
1.04841
1.04823
1.04825
1.04842
1.0488
1.04955
1.05045
1.05103
1.05118
1.05106
1.05109
1.05087
1.05048
1.05045
1.05043
1.05047
1.05066
1.05106
1.05152
1.05217
1.0524
1.05242
1.05238
1.05227
1.05197
1.05175
1.05161
1.05172
1.05183
1.05608
1.16393
1.16314
1.16164
1.15868
1.1567
1.15642
1.15704
1.15767
1.15745
1.15667
1.15571
1.15489
1.1547
1.15377
1.15022
1.14907
1.1485
1.14571
1.14102
1.1399
1.14043
1.14031
1.13726
1.13428
1.13363
1.13291
1.13126
1.12822
1.12622
1.12547
1.12373
1.12187
1.12222
1.12218
1.11934
1.11704
1.11676
1.11646
1.11453
1.11277
1.11284
1.11226
1.10953
1.10484
1.10033
1.09589
1.08928
1.08444
1.08411
1.08556
1.08538
1.08276
1.08099
1.08097
1.08042
1.07742
1.07182
1.06744
1.06494
1.06236
1.06031
1.05952
1.05963
1.0596
1.05853
1.05568
1.05344
1.05342
1.053
1.05246
1.05253
1.0537
1.05404
1.05359
1.05324
1.05342
1.05348
1.05304
1.05208
1.05135
1.05075
1.05012
1.04963
1.04962
1.04968
1.04983
1.05018
1.05061
1.05151
1.052
1.0522
1.0521
1.05179
1.05148
1.05139
1.05151
1.05182
1.05224
1.05233
1.05276
1.2176
1.21676
1.21601
1.21398
1.21073
1.20997
1.20954
1.2093
1.20942
1.20986
1.2104
1.21015
1.20826
1.20687
1.20637
1.20521
1.20383
1.20266
1.20046
1.19924
1.19984
1.20005
1.1985
1.19546
1.19194
1.19095
1.19134
1.19131
1.18841
1.18482
1.18357
1.18254
1.18069
1.17641
1.17046
1.16624
1.16354
1.16007
1.1564
1.15559
1.15646
1.157
1.1556
1.15321
1.15066
1.14743
1.14323
1.13834
1.13508
1.13244
1.12804
1.12086
1.1167
1.1167
1.11748
1.11554
1.11011
1.10727
1.10511
1.09875
1.093
1.09053
1.08941
1.08875
1.087
1.08245
1.07657
1.07327
1.07159
1.06941
1.06616
1.06355
1.06117
1.05874
1.05632
1.05487
1.05343
1.05191
1.05085
1.05051
1.05028
1.04997
1.04965
1.0497
1.05039
1.05143
1.05213
1.05194
1.05145
1.05132
1.05097
1.05039
1.05035
1.05049
1.05074
1.05145
1.05203
1.05234
1.05228
1.05197
1.28612
1.28536
1.28454
1.2835
1.28242
1.28147
1.27955
1.27784
1.27768
1.27726
1.27489
1.27323
1.27324
1.27267
1.26908
1.26728
1.2673
1.26631
1.26398
1.26273
1.26013
1.25733
1.25701
1.25617
1.2536
1.24956
1.24742
1.24647
1.24529
1.24232
1.23837
1.23754
1.23807
1.23765
1.2346
1.23036
1.2272
1.22448
1.22159
1.21845
1.21524
1.21213
1.20823
1.20419
1.20064
1.19431
1.18666
1.1856
1.18596
1.18433
1.1798
1.17395
1.16991
1.16768
1.16372
1.15301
1.14285
1.14236
1.142
1.13789
1.13396
1.1299
1.12175
1.11387
1.10971
1.10707
1.10366
1.09726
1.09039
1.0864
1.08273
1.07793
1.07301
1.06888
1.06517
1.06242
1.05993
1.05703
1.05591
1.05625
1.05575
1.05549
1.05527
1.05547
1.05584
1.05561
1.05479
1.05341
1.05229
1.05117
1.05039
1.05014
1.05023
1.05064
1.05137
1.05225
1.05224
1.05217
1.05173
1.05128
1.3531
1.35251
1.35194
1.35107
1.34949
1.34895
1.34836
1.34701
1.3461
1.34518
1.34346
1.34114
1.3402
1.34052
1.34033
1.3379
1.33536
1.33274
1.33093
1.33093
1.33073
1.32932
1.32689
1.32398
1.31971
1.31785
1.3173
1.31657
1.31491
1.31176
1.30805
1.30458
1.30171
1.29945
1.29702
1.29286
1.28862
1.28568
1.28301
1.28002
1.2769
1.27393
1.27072
1.26808
1.26521
1.26092
1.25536
1.25077
1.24708
1.24297
1.2351
1.22593
1.22448
1.22389
1.22117
1.21447
1.20745
1.20203
1.19278
1.18488
1.18429
1.18272
1.17712
1.16735
1.15596
1.15189
1.15012
1.1475
1.13997
1.13022
1.12504
1.12089
1.11602
1.10992
1.1043
1.09851
1.09256
1.08637
1.08083
1.07671
1.07232
1.06794
1.06347
1.06057
1.05765
1.0555
1.05369
1.05251
1.05188
1.0512
1.0507
1.051
1.05183
1.05281
1.05275
1.05223
1.0519
1.05124
1.05055
1.0506
1.42615
1.42582
1.42541
1.42459
1.42371
1.42281
1.4206
1.41838
1.41837
1.41846
1.41753
1.41585
1.41305
1.41002
1.40982
1.40961
1.40826
1.40478
1.40258
1.40177
1.40105
1.39868
1.39399
1.3928
1.39238
1.3913
1.3883
1.38439
1.38163
1.37945
1.3771
1.37406
1.37058
1.36799
1.36577
1.36308
1.3599
1.35661
1.3525
1.34826
1.34493
1.34164
1.3369
1.33198
1.3281
1.32464
1.3188
1.31273
1.31002
1.3073
1.30239
1.29612
1.29058
1.28545
1.2791
1.27028
1.26439
1.26103
1.25595
1.24868
1.24288
1.23647
1.22798
1.21985
1.21164
1.20651
1.20029
1.19285
1.18515
1.17676
1.16809
1.16026
1.15367
1.14605
1.1378
1.12918
1.12157
1.1138
1.10621
1.09842
1.09143
1.08446
1.07794
1.07244
1.06694
1.06322
1.05961
1.05802
1.05691
1.05746
1.05723
1.05734
1.05699
1.05622
1.05498
1.05364
1.05184
1.051
1.05048
1.05072
1.50195
1.50116
1.50094
1.50055
1.49985
1.499
1.49806
1.49597
1.49283
1.49226
1.49251
1.49211
1.4904
1.48662
1.48377
1.48378
1.48366
1.48224
1.47731
1.47466
1.47408
1.47303