/*--------------------------------*- C++ -*----------------------------------*\
  =========                 |
  \\      /  F ield         | OpenFOAM: The Open Source CFD Toolbox
   \\    /   O peration     | Website:  https://openfoam.org
    \\  /    A nd           | Version:  7
     \\/     M anipulation  |
\*---------------------------------------------------------------------------*/
FoamFile
{
    version     2.0;
    format      ascii;
    class       volScalarField;
    location    "2.6";
    object      p;
}
// * * * * * * * * * * * * * * * * * * * * * * * * * * * * * * * * * * * * * //

dimensions      [1 -1 -2 0 0 0 0];

internalField   nonuniform List<scalar> 
1750
(
0.174447
0.328956
0.480268
0.503828
0.506761
0.612162
0.726382
0.728913
0.809873
0.977834
0.0181225
0.0614964
0.147864
0.2993
0.487115
0.727899
0.824988
0.785727
0.842101
0.941423
0.0210161
0.0236231
0.0288429
0.0402277
0.12555
0.275623
0.553543
0.75184
0.801814
0.897574
0.0363002
0.0367011
0.0432319
0.0566139
0.0774136
0.0793526
0.119896
0.391534
0.619714
0.760892
0.0777232
0.0792538
0.0815722
0.0931858
0.106215
0.116494
0.113436
0.141454
0.273859
0.460159
0.140796
0.148117
0.152425
0.153211
0.154664
0.161075
0.173008
0.186496
0.195594
0.218379
0.257094
0.257028
0.257685
0.258575
0.260832
0.263625
0.264156
0.259943
0.255768
0.269453
0.472835
0.454425
0.43224
0.418051
0.406863
0.39128
0.377135
0.365927
0.351163
0.352971
0.804591
0.762118
0.717487
0.672375
0.63789
0.599689
0.56642
0.545236
0.517643
0.499459
1.07429
1.04324
1.00843
0.964898
0.918156
0.874364
0.825052
0.780029
0.738304
0.689327
1.11833
1.11063
1.10126
1.0879
1.07136
1.05183
1.02549
0.993656
0.962163
0.904525
1.08375
1.08709
1.08696
1.0844
1.0777
1.06897
1.05862
1.04581
1.033
1.00882
1.01934
1.02531
1.03099
1.03706
1.04146
1.04259
1.04109
1.03698
1.0302
1.01719
1.00094
1.00156
1.0025
1.00384
1.00569
1.00766
1.00939
1.01037
1.01004
1.00724
1.00001
1.00002
1.00005
1.00009
1.00016
1.00028
1.00045
1.00062
1.00072
1.00063
0.0226864
0.0187891
0.0198967
0.0334685
0.0708248
0.133361
0.258099
0.494873
0.853678
1.09801
1.12413
1.07719
1.01439
1.00063
1.00001
0.0221519
0.0184153
0.0221021
0.040124
0.0837862
0.164045
0.331903
0.625274
0.980688
1.1344
1.12708
1.06126
1.00753
1.00022
1
0.0233125
0.0183116
0.0244833
0.0401939
0.0872681
0.196812
0.409777
0.733358
1.0554
1.14597
1.12549
1.04458
1.00398
1.0001
1
0.0252761
0.0174975
0.0254929
0.0439291
0.106482
0.265243
0.505433
0.845124
1.11289
1.15164
1.11007
1.02963
1.00193
1.00004
1
0.026304
0.0151523
0.0247413
0.0598487
0.166704
0.333232
0.60365
0.96084
1.15354
1.15466
1.09307
1.01773
1.0008
1.00001
1
0.0252238
0.0132255
0.0257609
0.0854557
0.209837
0.406473
0.74256
1.07479
1.17307
1.15626
1.0693
1.00866
1.0003
1.00001
1
0.021844
0.0140317
0.0385285
0.117284
0.264348
0.532669
0.90317
1.14867
1.18041
1.13868
1.04298
1.00364
1.0001
1
1
0.0154544
0.0221236
0.060501
0.159482
0.361657
0.706101
1.03847
1.18481
1.18218
1.11132
1.02314
1.00136
1.00003
1
1
0.0103642
0.0256477
0.0822138
0.240675
0.53538
0.875287
1.13905
1.19815
1.17384
1.0749
1.01053
1.00044
1.00001
1
1
0.00366889
0.0274561
0.138123
0.377975
0.715357
1.03619
1.19778
1.20136
1.14268
1.04253
1.0038
1.00012
1
1
1
0.000902302
0.0537119
0.25886
0.563993
0.908807
1.16087
1.2169
1.19859
1.10211
1.01851
1.00104
1.00003
1
1
1
0.00537842
0.137644
0.414776
0.791965
1.09906
1.2223
1.22084
1.16231
1.05552
1.00652
1.00028
1.00001
1
1
1
0.0288988
0.267756
0.681158
1.0255
1.21315
1.23898
1.21293
1.11315
1.02352
1.00165
1.00005
1
1
1
1
0.163847
0.553764
0.975988
1.1847
1.25316
1.24142
1.16819
1.05451
1.0065
1.00031
1.00001
1
1
1
1
0.576928
0.973084
1.18569
1.24534
1.25931
1.20977
1.09633
1.01736
1.00117
1.00004
1
1
1
1
1
1.24713
1.25304
1.25697
1.25395
1.24298
1.14096
1.03126
1.00124
1.00003
1
1
1
1
1
1
1.24557
1.25353
1.25873
1.24712
1.22687
1.12511
1.03006
1.00263
1.0001
1
1
1
1
1
1
1.24518
1.25979
1.26548
1.24743
1.19844
1.07754
1.01024
1.0004
1.00001
1
1
1
1
1
1
1.24651
1.26596
1.2679
1.24017
1.15999
1.04497
1.00391
1.00012
1
1
1
1
1
1
1
1.25114
1.27058
1.26855
1.22314
1.11389
1.02165
1.00133
1.00003
1
1
1
1
1
1
1
1.25578
1.27152
1.26613
1.18617
1.07139
1.0092
1.00036
1.00001
1
1
1
1
1
1
1
1.26403
1.26445
1.25147
1.14427
1.03577
1.00295
1.00009
1
1
1
1
1
1
1
1
1.29305
1.24762
1.21762
1.09369
1.01649
1.00094
1.00002
1
1
1
1
1
1
1
1
1.3182
1.23324
1.1679
1.05047
1.00557
1.00023
1
1
1
1
1
1
1
1
1
1.32887
1.20662
1.10979
1.02335
1.00179
1.00005
1
1
1
1
1
1
1
1
1
1.32544
1.16531
1.06421
1.00888
1.00044
1.00001
1
1
1
1
1
1
1
1
1
1.28909
1.11883
1.02969
1.00258
1.00009
1
1
1
1
1
1
1
1
1
1
1.23122
1.07295
1.01158
1.0006
1.00001
1
1
1
1
1
1
1
1
1
1
1.1575
1.03362
1.00284
1.00009
1
1
1
1
1
1
1
1
1
1
1
1.06975
1.00913
1.00041
1.00001
1
1
1
1
1
1
1
1
1
1
1
1
1
1
1
1
1
1
1
1
1
1
1
1
1
1
1
1
1
1
1
1
1
1
1
1
1
1
1
1
1
1
1
1
1
1
1
1
1
1
1
1
1
1
1
1
1
1
1
1
1
1
1
1
1
1
1
1
1
1
1
1
1
1
1
1
1
1
1
1
1
1
1
1
1
1
1
1
1
1
1
1
1
1
1
1
1
1
1
1
1
1
1
1
1
1
1
1
1
1
1
1
1
1
1
1
1
1
1
1
1
1
1
1
1
1
1
1
1
1
1
1
1
1
1
1
1
1
1
1
1
1
1
1
1
1
1
1
1
1
1
1
1
1
1
1
1
1
1
1
1
1
1
1
1
1
1
1
1
1
1
1
1
1
1
1
1
1
1
1
1
1
1
1
1
1
1
1
1
1
1
1
1
1
1
1
1
1
1
1
1
1
1
1
1
1
1
1
1
1
1
1
1
1
1
1
1
1
1
1
1
1
1
1
1
1
1
1
1
1
1
1
1
1
1
1
1
1
1
1
1
1
1
1
1
1
1
1
1
1
1
1
1
1
1
1
1
1
1
1
1
1
1
1
1
1
1
1
1
1
1
1
1
1
1
1
1
1
1
1
1
1
1
1
1
1
1
1
1
1
1
1
1
1
1
1
1
1
1
1
1
1
1
1
1
1
1
1
1
1
1
1
1
1
1
1
1
1
1
1
1
1
1
1
1
1
1
1
1
1
1
1
1
1
1
1
1
1
1
1
1
1
1
1
1
1
1
1
1
1
1
1
1
1
1
1
1
1
1
1
1
2.13767
0.99918
1
1
1
1
1
1
1
1
1
1
1
1
1
1
1
1
1
1
7.6039
2.76337
0.999993
1
1
1
1
1
1
1
1
1
1
1
1
1
1
1
1
1
11.6072
8.31968
6.73635
2.19854
0.999742
1
1
1
1
1
1
1
1
1
1
1
1
1
1
1
9.26939
7.88885
8.2686
7.2778
3.07265
1.01065
1
1
1
1
1
1
1
1
1
1
1
1
1
1
8.0718
7.67775
7.73918
7.60809
6.9265
2.80853
0.997005
1.00001
1
1
1
1
1
1
1
1
1
1
1
1
7.51314
7.35765
7.35743
7.19686
7.17193
6.18796
2.21445
0.996876
1.00001
1
1
1
1
1
1
1
1
1
1
1
7.23244
7.14523
7.15498
7.04801
7.03881
6.7912
4.88496
1.42708
0.998525
1
1
1
1
1
1
1
1
1
1
1
7.07096
6.9988
6.98714
6.88149
6.85922
6.81516
6.50108
3.3317
1.04724
1
1
1
1
1
1
1
1
1
1
1
6.92516
6.85467
6.83658
6.74827
6.72208
6.65306
6.5204
5.22297
1.74233
0.997484
1
1
1
1
1
1
1
1
1
1
6.79083
6.72842
6.73165
6.70003
6.65068
6.60228
6.57552
6.20163
3.37016
1.06322
1
1
1
1
1
1
1
1
1
1
6.70294
6.65098
6.66074
6.62461
6.59902
6.52821
6.52874
6.41702
5.18146
1.72011
0.997474
1
1
1
1
1
1
1
1
1
6.65086
6.60223
6.59226
6.53977
6.52537
6.46701
6.45546
6.37906
5.83437
3.00669
1.03971
1
1
1
1
1
1
1
1
1
6.60495
6.55204
6.52362
6.46207
6.44112
6.41051
6.42701
6.38404
6.22938
4.69001
1.41857
0.998452
1
1
1
1
1
1
1
1
6.55181
6.49427
6.46617
6.40808
6.38573
6.35386
6.36333
6.36693
6.2667
5.54542
2.53443
1.02567
1
1
1
1
1
1
1
1
6.4743
6.4211
6.4059
6.36311
6.33724
6.30774
6.30911
6.31468
6.24408
5.93495
3.52469
0.99969
0.999802
1
1
1
1
1
1
1
2.20552
3.61424
4.36955
4.89741
5.31352
5.61656
5.8133
5.96042
6.11813
6.09054
5.66235
2.71893
1.12915
1.00179
1.00001
1
1
1
1
1
0.562443
1.87403
2.67748
3.34929
3.88893
4.4618
4.8768
5.21478
5.5503
5.88204
5.90688
4.97281
2.26553
1.07656
1.00092
1.00001
1
1
1
1
0.379334
0.977908
1.59101
2.2726
2.83321
3.3356
3.89616
4.33551
4.79225
5.28173
5.67299
5.45757
4.04792
1.66216
1.02333
1.00019
1
1
1
1
0.492616
0.775107
0.984227
1.41753
2.02622
2.49442
3.00749
3.48634
4.0034
4.54424
5.09522
5.22597
5.01685
3.00501
1.23505
1.00425
1.00002
1
1
1
0.647742
0.667424
0.751739
1.06813
1.46724
1.94435
2.34902
2.84461
3.32516
3.80358
4.3468
4.84053
4.92892
4.21512
1.94108
1.04713
1.00044
1
1
1
0.746037
0.627378
0.617117
0.859605
1.1296
1.54571
1.93542
2.38782
2.85608
3.23244
3.64371
4.22222
4.67075
4.55545
3.13498
1.30599
1.00653
1.00004
1
1
0.758528
0.636626
0.612785
0.701939
0.856034
1.18549
1.56694
1.95619
2.42899
2.78975
3.15665
3.64438
4.25682
4.38878
3.76256
1.89317
1.04559
1.0004
1
1
0.749463
0.669724
0.654907
0.689955
0.730558
0.910711
1.24754
1.56345
1.98294
2.34526
2.74558
3.18977
3.75967
4.11228
3.96749
2.62067
1.20041
1.00333
1.00002
1
0.745664
0.707652
0.709915
0.680645
0.694452
0.845684
1.08342
1.36256
1.65358
1.97742
2.3379
2.75662
3.26172
3.83416
3.87592
3.16802
1.52251
1.01803
1.00012
1
0.719509
0.704755
0.698338
0.650087
0.651622
0.78668
0.965683
1.21961
1.4695
1.75945
2.05017
2.42505
2.84656
3.4663
3.71731
3.4024
1.97315
1.07098
1.00075
1
0.675603
0.681819
0.668425
0.623818
0.615311
0.699795
0.806879
1.04523
1.2976
1.57973
1.85689
2.18927
2.55633
3.09425
3.5192
3.41293
2.44409
1.20049
1.00371
1.00002
0.653348
0.659265
0.650869
0.624722
0.620326
0.663188
0.691376
0.819397
1.05969
1.34521
1.63972
1.95185
2.28725
2.762
3.30235
3.33884
2.71149
1.41302
1.0137
1.00009
0.6524
0.649547
0.646715
0.634766
0.640681
0.657773
0.664876
0.74447
0.918909
1.1479
1.41546
1.7157
2.01511
2.43467
3.0333
3.20609
2.86606
1.65488
1.03777
1.00034
0.657648
0.644862
0.64497
0.641093
0.641139
0.633536
0.640981
0.726132
0.860057
1.06386
1.29767
1.56136
1.83847
2.18424
2.74334
3.03167
2.86187
1.89245
1.08627
1.00116
0.657865
0.643461
0.638378
0.628175
0.607082
0.572186
0.583434
0.667363
0.780416
0.975542
1.20019
1.43874
1.70021
2.01087
2.49707
2.86026
2.79389
2.09731
1.16777
1.00356
0.593832
0.625636
0.622397
0.597532
0.570525
0.538886
0.545177
0.594548
0.656942
0.842134
1.05514
1.29374
1.54717
1.83917
2.27193
2.69671
2.67779
2.19136
1.27246
1.0087
0.503234
0.574301
0.606233
0.589152
0.568137
0.54108
0.544888
0.586054
0.621806
0.72835
0.919803
1.10507
1.35295
1.6104
1.99616
2.48662
2.55456
2.23197
1.36846
1.01722
0.486417
0.529355
0.584262
0.589389
0.571136
0.549893
0.547711
0.584595
0.620985
0.715106
0.879925
1.04805
1.25947
1.48358
1.82201
2.33334
2.47246
2.24468
1.46201
1.02999
0.463393
0.489227
0.545586
0.578659
0.565408
0.549203
0.541548
0.567521
0.606552
0.690966
0.828726
0.999456
1.18473
1.3938
1.70584
2.21001
2.38525
2.21991
1.53781
1.04788
0.451786
0.473986
0.493993
0.54496
0.55011
0.546067
0.5398
0.542231
0.567881
0.648312
0.734219
0.887638
1.05794
1.25032
1.52835
2.00372
2.22734
2.13154
1.57576
1.06885
0.507956
0.494537
0.490747
0.514976
0.543119
0.545931
0.542769
0.539964
0.551635
0.617256
0.700905
0.825287
0.979703
1.15445
1.41303
1.8463
2.09922
2.04586
1.58118
1.08259
0.651446
0.571435
0.511635
0.510795
0.538414
0.557139
0.555831
0.547331
0.559756
0.603904
0.675434
0.802198
0.949632
1.11732
1.34819
1.76864
2.03099
1.9868
1.56272
1.084
0.715891
0.607199
0.533764
0.518503
0.540915
0.57707
0.580787
0.57183
0.581506
0.611792
0.65874
0.767512
0.899139
1.05501
1.26558
1.65707
1.92323
1.89468
1.51976
1.07866
0.814523
0.729113
0.650543
0.579542
0.577901
0.601986
0.622472
0.620512
0.619176
0.629519
0.657436
0.749862
0.857078
0.990136
1.20144
1.59235
1.831
1.80325
1.4466
1.063
0.967681
0.951946
0.896719
0.832936
0.765537
0.717509
0.713277
0.706729
0.691733
0.682968
0.681602
0.736196
0.816366
0.947397
1.17669
1.55055
1.70144
1.63216
1.28734
1.03005
)
;

boundaryField
{
    inlet
    {
        type            fixedValue;
        value           uniform 1;
    }
    outlet
    {
        type            zeroGradient;
    }
    airfoil
    {
        type            zeroGradient;
    }
    top
    {
        type            symmetryPlane;
    }
    bottom
    {
        type            symmetryPlane;
    }
    defaultFaces
    {
        type            empty;
    }
}


// ************************************************************************* //
