/*--------------------------------*- C++ -*----------------------------------*\
  =========                 |
  \\      /  F ield         | OpenFOAM: The Open Source CFD Toolbox
   \\    /   O peration     | Website:  https://openfoam.org
    \\  /    A nd           | Version:  7
     \\/     M anipulation  |
\*---------------------------------------------------------------------------*/
FoamFile
{
    version     2.0;
    format      ascii;
    class       volVectorField;
    location    "4.5";
    object      U;
}
// * * * * * * * * * * * * * * * * * * * * * * * * * * * * * * * * * * * * * //

dimensions      [0 1 -1 0 0 0 0];

internalField   nonuniform List<vector> 
90000
(
(5.0573 -0.482903 0)
(5.05402 -0.455798 0)
(5.05114 -0.430052 0)
(5.0483 -0.404533 0)
(5.04607 -0.383804 0)
(5.04364 -0.362255 0)
(5.04171 -0.345351 0)
(5.03951 -0.326633 0)
(5.0378 -0.31308 0)
(5.03563 -0.295753 0)
(5.03403 -0.284627 0)
(5.03189 -0.268513 0)
(5.03035 -0.259018 0)
(5.0282 -0.243501 0)
(5.02675 -0.236056 0)
(5.02444 -0.22026 0)
(5.02306 -0.214681 0)
(5.02061 -0.198694 0)
(5.0193 -0.19426 0)
(5.01676 -0.178108 0)
(5.01565 -0.175165 0)
(5.013 -0.158494 0)
(5.01209 -0.156189 0)
(5.00939 -0.139328 0)
(5.0088 -0.138392 0)
(5.00588 -0.120779 0)
(5.00562 -0.120559 0)
(5.00243 -0.102439 0)
(5.00267 -0.10308 0)
(4.99909 -0.0843931 0)
(4.99991 -0.0850932 0)
(4.99586 -0.0667621 0)
(4.9971 -0.0667145 0)
(4.99263 -0.050854 0)
(4.9919 -0.0453489 0)
(4.99121 -0.0373892 0)
(4.98981 -0.0286036 0)
(4.9866 -0.0193676 0)
(4.98714 -0.0157323 0)
(4.98704 -0.00917865 0)
(4.98484 -0.00563467 0)
(4.9822 -0.00108931 0)
(4.97785 0.0036967 0)
(4.9752 0.00577495 0)
(4.97409 0.0147144 0)
(4.97366 0.0100479 0)
(4.97259 0.0078533 0)
(4.97137 0.00363515 0)
(4.97049 0.00227879 0)
(4.96926 -0.00278242 0)
(4.96778 -0.00527982 0)
(4.96651 -0.00549493 0)
(4.96615 -0.0104115 0)
(4.96535 -0.00751762 0)
(4.96474 -0.0023472 0)
(4.96627 -0.000761724 0)
(4.96709 -0.000307427 0)
(4.96816 -0.000217748 0)
(4.96901 0.00114627 0)
(4.96925 0.00180129 0)
(4.9697 0.00155562 0)
(4.97029 0.00278734 0)
(4.97121 0.00127904 0)
(4.971 0.000259537 0)
(4.97045 -0.0008207 0)
(4.96988 -0.00353208 0)
(4.96868 -0.00388939 0)
(4.96891 -0.00357603 0)
(4.96905 -0.000620572 0)
(4.96948 0.000545679 0)
(4.97095 0.00222736 0)
(4.97212 0.001763 0)
(4.97205 0.00376758 0)
(4.97317 0.00127587 0)
(4.97302 0.00032238 0)
(4.97269 -0.000543212 0)
(4.97211 -0.00288026 0)
(4.97254 -0.00126375 0)
(4.97306 -0.000225896 0)
(4.9734 0.000934549 0)
(4.97396 0.00114236 0)
(4.97402 0.000328271 0)
(4.97393 -0.000421505 0)
(4.97372 -0.00228254 0)
(4.97374 -0.000864768 0)
(4.97387 0.000122907 0)
(4.97411 0.000528417 0)
(4.97416 0.000135359 0)
(4.97402 -0.000481497 0)
(4.97382 -0.00150871 0)
(4.97422 -0.000382942 0)
(4.9743 0.000176944 0)
(4.97465 0.000376809 0)
(4.97468 0.000106668 0)
(4.97469 -0.000709135 0)
(4.97485 -5.43625e-05 0)
(4.97498 6.17547e-05 0)
(4.97509 1.60437e-05 0)
(4.97516 -6.29972e-06 0)
(4.97533 -2.65137e-05 0)
(5.05928 -0.503681 0)
(5.05864 -0.503229 0)
(5.0576 -0.502466 0)
(5.05618 -0.50087 0)
(5.05454 -0.498952 0)
(5.05266 -0.496082 0)
(5.05068 -0.4927 0)
(5.04852 -0.488173 0)
(5.04636 -0.483403 0)
(5.04401 -0.47682 0)
(5.04175 -0.470391 0)
(5.03927 -0.461646 0)
(5.03697 -0.453599 0)
(5.03433 -0.442364 0)
(5.03201 -0.432839 0)
(5.02915 -0.418814 0)
(5.0269 -0.408085 0)
(5.02389 -0.39118 0)
(5.02175 -0.379213 0)
(5.01855 -0.359439 0)
(5.01664 -0.34698 0)
(5.01319 -0.324142 0)
(5.01156 -0.310803 0)
(5.00795 -0.284793 0)
(5.00699 -0.272638 0)
(5.00286 -0.24275 0)
(5.00262 -0.231899 0)
(4.99796 -0.19822 0)
(4.9988 -0.189992 0)
(4.99347 -0.153425 0)
(4.99497 -0.146069 0)
(4.98944 -0.109548 0)
(4.99144 -0.103085 0)
(4.98569 -0.0669091 0)
(4.98858 -0.0636283 0)
(4.98212 -0.0266406 0)
(4.98505 -0.026048 0)
(4.9781 0.00499042 0)
(4.97961 0.00818558 0)
(4.97389 0.0315219 0)
(4.97391 0.0352613 0)
(4.96873 0.0504527 0)
(4.9673 0.0505363 0)
(4.96565 0.0431375 0)
(4.96776 0.0349055 0)
(4.96568 0.0167356 0)
(4.96866 0.0119783 0)
(4.96727 0.000698322 0)
(4.97028 -0.000677385 0)
(4.96879 -0.00562007 0)
(4.96927 -0.00804811 0)
(4.9692 -0.00790198 0)
(4.97015 -0.00740504 0)
(4.97226 -0.00744103 0)
(4.97427 -0.004541 0)
(4.9747 -0.00145555 0)
(4.97393 0.00123741 0)
(4.97328 0.00413927 0)
(4.97374 0.00725445 0)
(4.9731 0.00917548 0)
(4.97289 0.00844256 0)
(4.97277 0.00573048 0)
(4.97291 0.00212391 0)
(4.97225 -0.00410585 0)
(4.97213 -0.00685336 0)
(4.9721 -0.010395 0)
(4.97169 -0.0102148 0)
(4.97307 -0.0067862 0)
(4.97377 -0.00172016 0)
(4.97427 0.00280516 0)
(4.97414 0.00693336 0)
(4.97413 0.00868662 0)
(4.9744 0.00679791 0)
(4.97396 0.00191671 0)
(4.97397 -0.00168398 0)
(4.97421 -0.0041656 0)
(4.97435 -0.0033158 0)
(4.97466 -0.000497448 0)
(4.97479 0.00276466 0)
(4.97486 0.00525304 0)
(4.97478 0.00339794 0)
(4.97457 0.000185477 0)
(4.97469 -0.00254121 0)
(4.97483 -0.00190259 0)
(4.97492 -0.000411153 0)
(4.97519 0.00193079 0)
(4.97513 0.00165844 0)
(4.97476 -0.000408803 0)
(4.97462 -0.00165135 0)
(4.97467 -0.000456102 0)
(4.9748 0.00103602 0)
(4.97509 0.00217197 0)
(4.97512 0.00130438 0)
(4.97508 -0.000442142 0)
(4.97511 -5.95226e-05 0)
(4.97513 0.000273172 0)
(4.97523 0.000361346 0)
(4.97529 0.000126158 0)
(4.97536 0.000202257 0)
(4.97551 0.000209156 0)
(5.05794 -0.504586 0)
(5.05797 -0.504563 0)
(5.05797 -0.504469 0)
(5.05794 -0.504484 0)
(5.05792 -0.504322 0)
(5.05793 -0.504234 0)
(5.05789 -0.504027 0)
(5.05789 -0.503893 0)
(5.05792 -0.503858 0)
(5.05794 -0.503682 0)
(5.05793 -0.503343 0)
(5.05791 -0.503024 0)
(5.05788 -0.502787 0)
(5.05776 -0.502361 0)
(5.05757 -0.501769 0)
(5.0573 -0.50082 0)
(5.05703 -0.499912 0)
(5.05666 -0.498555 0)
(5.05624 -0.497082 0)
(5.05572 -0.495245 0)
(5.05511 -0.49286 0)
(5.05433 -0.4899 0)
(5.05341 -0.486048 0)
(5.0523 -0.481289 0)
(5.0511 -0.475836 0)
(5.04954 -0.468569 0)
(5.04789 -0.460483 0)
(5.04583 -0.449803 0)
(5.04386 -0.439006 0)
(5.04125 -0.423644 0)
(5.03891 -0.410367 0)
(5.03543 -0.38811 0)
(5.03323 -0.37441 0)
(5.02905 -0.344443 0)
(5.02715 -0.33053 0)
(5.02245 -0.294049 0)
(5.02128 -0.282115 0)
(5.01608 -0.2391 0)
(5.01577 -0.232314 0)
(5.01076 -0.187559 0)
(5.01135 -0.18531 0)
(5.00779 -0.146294 0)
(5.01208 -0.145952 0)
(5.00492 -0.112709 0)
(5.01172 -0.102862 0)
(4.9993 -0.0679524 0)
(5.0016 -0.0596495 0)
(4.99365 -0.041441 0)
(4.99445 -0.03188 0)
(4.98929 -0.0226534 0)
(4.98902 -0.0159144 0)
(4.98608 -0.0105323 0)
(4.98671 -0.00461251 0)
(4.98516 -0.00162566 0)
(4.98524 0.00368844 0)
(4.98596 0.00516394 0)
(4.98172 0.00985768 0)
(4.98024 0.00992488 0)
(4.97798 0.00691809 0)
(4.97765 0.00436022 0)
(4.97695 -0.002881 0)
(4.97759 -0.00432936 0)
(4.97662 -0.0107405 0)
(4.97675 -0.0123088 0)
(4.97738 -0.0119389 0)
(4.97825 -0.0106478 0)
(4.98041 -0.00490422 0)
(4.97946 -0.00107993 0)
(4.97992 0.00317017 0)
(4.97977 0.00709552 0)
(4.97888 0.00728868 0)
(4.97804 0.0052104 0)
(4.97685 -0.000779425 0)
(4.9768 -0.00274363 0)
(4.97663 -0.00312978 0)
(4.97757 -0.00152341 0)
(4.97795 0.000269052 0)
(4.9781 0.00535018 0)
(4.9776 0.00493005 0)
(4.97763 0.00357716 0)
(4.97652 -0.00239193 0)
(4.9765 -0.00366012 0)
(4.97708 -0.0029422 0)
(4.97721 -0.00225204 0)
(4.9777 0.0004125 0)
(4.97738 -2.96173e-06 0)
(4.97705 -0.000949853 0)
(4.97654 -0.0024677 0)
(4.97657 -0.00171333 0)
(4.97663 -0.000235176 0)
(4.97656 -4.57485e-05 0)
(4.97653 -0.000468234 0)
(4.9763 -0.00155422 0)
(4.97631 -0.00117888 0)
(4.97622 -0.000389935 0)
(4.97613 -0.000159443 0)
(4.97609 -3.5048e-05 0)
(4.9761 -5.42421e-06 0)
(4.97615 0.000376369 0)
(4.97629 0.000257876 0)
(5.05772 -0.502756 0)
(5.05773 -0.502816 0)
(5.05774 -0.502848 0)
(5.05775 -0.502933 0)
(5.05776 -0.50296 0)
(5.05781 -0.502925 0)
(5.05784 -0.502997 0)
(5.05789 -0.503186 0)
(5.05802 -0.503225 0)
(5.05815 -0.503322 0)
(5.05828 -0.503434 0)
(5.0584 -0.503487 0)
(5.0585 -0.503398 0)
(5.05854 -0.503442 0)
(5.05854 -0.503486 0)
(5.05854 -0.503598 0)
(5.05857 -0.503554 0)
(5.05857 -0.50387 0)
(5.05859 -0.503625 0)
(5.05864 -0.503441 0)
(5.05871 -0.503378 0)
(5.05877 -0.503351 0)
(5.05881 -0.503317 0)
(5.05885 -0.503252 0)
(5.05889 -0.503155 0)
(5.05892 -0.502943 0)
(5.05894 -0.502617 0)
(5.05894 -0.502258 0)
(5.05891 -0.501642 0)
(5.05884 -0.500911 0)
(5.05869 -0.499288 0)
(5.05845 -0.49729 0)
(5.05811 -0.49472 0)
(5.05753 -0.49096 0)
(5.05671 -0.486097 0)
(5.05537 -0.478202 0)
(5.05396 -0.469755 0)
(5.05156 -0.454545 0)
(5.0495 -0.441174 0)
(5.04533 -0.413155 0)
(5.04314 -0.395873 0)
(5.03677 -0.349472 0)
(5.03654 -0.331014 0)
(5.0278 -0.260688 0)
(5.03119 -0.248813 0)
(5.02093 -0.168051 0)
(5.02575 -0.169006 0)
(5.01453 -0.0930213 0)
(5.01868 -0.101397 0)
(5.00813 -0.0412623 0)
(5.01036 -0.0502355 0)
(5.00247 -0.011455 0)
(5.00222 -0.0165901 0)
(4.99467 0.00414459 0)
(4.98984 0.00385621 0)
(4.98839 0.0106942 0)
(4.98666 0.00475357 0)
(4.98577 0.00171409 0)
(4.9853 -0.00433055 0)
(4.98398 -0.00471995 0)
(4.98422 -0.00966074 0)
(4.98127 -0.00748882 0)
(4.98109 -0.00652168 0)
(4.98115 -0.00495584 0)
(4.98202 -0.000309466 0)
(4.98242 0.00501474 0)
(4.98391 0.00744235 0)
(4.98341 0.00729843 0)
(4.98252 0.00540326 0)
(4.98101 0.00153798 0)
(4.9803 -0.00115097 0)
(4.98002 -0.00265715 0)
(4.98014 -0.0011098 0)
(4.97935 0.00200225 0)
(4.97939 0.00345058 0)
(4.98007 0.00776962 0)
(4.98094 0.00534248 0)
(4.98069 0.00216014 0)
(4.9799 -0.00062776 0)
(4.98067 -0.00284149 0)
(4.97907 0.000809408 0)
(4.97926 0.00155783 0)
(4.97967 0.00265859 0)
(4.97993 0.00114315 0)
(4.97985 -0.000223035 0)
(4.97945 -0.00260904 0)
(4.97896 -0.00205612 0)
(4.97892 -0.00103675 0)
(4.97888 8.10732e-05 0)
(4.97881 0.00060446 0)
(4.97858 0.000474901 0)
(4.97824 0.000720101 0)
(4.97801 0.00115858 0)
(4.97792 0.00112803 0)
(4.97781 0.00079316 0)
(4.97783 -5.58716e-05 0)
(4.97774 -3.98883e-06 0)
(4.97777 0.000189011 0)
(4.97778 0.000568213 0)
(4.97798 5.25741e-05 0)
(5.05944 -0.501863 0)
(5.05951 -0.501928 0)
(5.0596 -0.501932 0)
(5.0597 -0.501883 0)
(5.05982 -0.50186 0)
(5.05993 -0.501994 0)
(5.06006 -0.50203 0)
(5.06017 -0.501938 0)
(5.06021 -0.502011 0)
(5.06023 -0.502052 0)
(5.06025 -0.50207 0)
(5.06027 -0.502056 0)
(5.0603 -0.501934 0)
(5.06032 -0.501928 0)
(5.0603 -0.502098 0)
(5.06028 -0.502137 0)
(5.06023 -0.502076 0)
(5.06024 -0.502124 0)
(5.06037 -0.502168 0)
(5.06056 -0.502157 0)
(5.06074 -0.502177 0)
(5.06087 -0.502244 0)
(5.06095 -0.502328 0)
(5.06101 -0.502323 0)
(5.06109 -0.50238 0)
(5.06117 -0.502437 0)
(5.06121 -0.502644 0)
(5.06128 -0.502659 0)
(5.06133 -0.502754 0)
(5.06136 -0.502551 0)
(5.06142 -0.502518 0)
(5.06136 -0.502577 0)
(5.06134 -0.502635 0)
(5.0613 -0.502601 0)
(5.06124 -0.502553 0)
(5.06119 -0.502482 0)
(5.06113 -0.502431 0)
(5.06109 -0.502295 0)
(5.06102 -0.501742 0)
(5.0609 -0.500736 0)
(5.06066 -0.498886 0)
(5.06015 -0.496026 0)
(5.05934 -0.490881 0)
(5.05788 -0.482644 0)
(5.0561 -0.470787 0)
(5.05292 -0.449692 0)
(5.05036 -0.429262 0)
(5.04476 -0.386196 0)
(5.0427 -0.363501 0)
(5.03413 -0.294188 0)
(5.03454 -0.281289 0)
(5.02427 -0.196512 0)
(5.02641 -0.199357 0)
(5.0156 -0.121586 0)
(5.0153 -0.131337 0)
(5.00516 -0.0815049 0)
(5.01119 -0.0912347 0)
(5.00104 -0.0580624 0)
(5.00316 -0.0578456 0)
(4.99506 -0.0393135 0)
(4.9947 -0.0311444 0)
(4.99243 -0.0209451 0)
(4.99044 -0.0105633 0)
(4.98661 -0.000857095 0)
(4.98372 0.00892576 0)
(4.98329 0.00996608 0)
(4.9817 0.00919469 0)
(4.98023 0.00216139 0)
(4.97987 -0.00227006 0)
(4.97931 -0.0098277 0)
(4.97926 -0.0108521 0)
(4.97984 -0.00868676 0)
(4.9809 -0.00267295 0)
(4.98018 0.00245312 0)
(4.98154 0.00926194 0)
(4.98152 0.00984824 0)
(4.98095 0.00543153 0)
(4.98084 -0.000626364 0)
(4.98051 -0.00471821 0)
(4.98088 -0.00470517 0)
(4.98063 -0.00348807 0)
(4.98159 0.00119173 0)
(4.98177 0.00221944 0)
(4.98092 0.00061223 0)
(4.98077 -0.00109895 0)
(4.98049 -0.00284166 0)
(4.98079 -0.00219903 0)
(4.98086 -0.00143137 0)
(4.9808 6.59508e-05 0)
(4.98062 0.000135632 0)
(4.98016 -0.00111496 0)
(4.97989 -0.00150419 0)
(4.97996 -0.00129538 0)
(4.98015 -0.000183043 0)
(4.98021 0.000511339 0)
(4.98019 0.000525247 0)
(4.98018 0.000432801 0)
(4.98032 0.00036219 0)
(4.9803 0.00106861 0)
(4.98045 0.0005062 0)
(5.06164 -0.503624 0)
(5.06166 -0.503637 0)
(5.06171 -0.50365 0)
(5.06177 -0.50366 0)
(5.06181 -0.503688 0)
(5.06189 -0.503749 0)
(5.06192 -0.503723 0)
(5.06196 -0.503683 0)
(5.06199 -0.503715 0)
(5.06203 -0.503714 0)
(5.06207 -0.503734 0)
(5.06211 -0.503825 0)
(5.06216 -0.503814 0)
(5.0622 -0.503763 0)
(5.0622 -0.503842 0)
(5.06221 -0.503818 0)
(5.06223 -0.503751 0)
(5.0622 -0.503907 0)
(5.06221 -0.50407 0)
(5.06221 -0.504007 0)
(5.06221 -0.50392 0)
(5.06217 -0.504047 0)
(5.06217 -0.504216 0)
(5.06223 -0.504172 0)
(5.06233 -0.504074 0)
(5.06246 -0.504016 0)
(5.06237 -0.504365 0)
(5.06233 -0.504628 0)
(5.06234 -0.504701 0)
(5.06238 -0.504626 0)
(5.06247 -0.504586 0)
(5.06255 -0.504726 0)
(5.06253 -0.504847 0)
(5.06248 -0.504944 0)
(5.06239 -0.505175 0)
(5.06238 -0.505172 0)
(5.06256 -0.505086 0)
(5.06276 -0.505201 0)
(5.06302 -0.505012 0)
(5.06301 -0.505237 0)
(5.06296 -0.505256 0)
(5.06306 -0.505219 0)
(5.06313 -0.505151 0)
(5.06316 -0.50506 0)
(5.06315 -0.504825 0)
(5.06309 -0.504276 0)
(5.06294 -0.502956 0)
(5.06244 -0.500468 0)
(5.06156 -0.495458 0)
(5.05987 -0.486462 0)
(5.05785 -0.472712 0)
(5.05348 -0.445439 0)
(5.05032 -0.419368 0)
(5.04131 -0.357004 0)
(5.04026 -0.329509 0)
(5.02499 -0.227804 0)
(5.03107 -0.215267 0)
(5.01396 -0.106672 0)
(5.02326 -0.112055 0)
(5.00577 -0.028788 0)
(5.01022 -0.0312253 0)
(4.99882 0.0187238 0)
(4.99672 0.020139 0)
(4.9917 0.0435662 0)
(4.98572 0.0308589 0)
(4.9815 0.0117809 0)
(4.98082 0.00203648 0)
(4.97921 -0.00284085 0)
(4.9788 -0.0076954 0)
(4.97929 -0.00846003 0)
(4.98006 -0.00581695 0)
(4.98215 0.000158145 0)
(4.98337 0.00856236 0)
(4.98296 0.00819174 0)
(4.98198 0.00762083 0)
(4.98073 0.00273525 0)
(4.98022 0.000302282 0)
(4.98031 -0.00011351 0)
(4.98056 -0.000673643 0)
(4.98121 0.00152123 0)
(4.98167 0.00304008 0)
(4.98197 0.00238725 0)
(4.98149 0.000918014 0)
(4.98082 -0.0006733 0)
(4.98129 -0.00317991 0)
(4.98173 -0.00374265 0)
(4.98229 -0.00124871 0)
(4.98231 0.00044746 0)
(4.9822 0.000508252 0)
(4.98201 -0.000453009 0)
(4.98209 -0.000302924 0)
(4.98245 0.000256252 0)
(4.98282 0.000860637 0)
(4.98291 0.000193703 0)
(4.98283 -0.000162517 0)
(4.98281 -0.000308323 0)
(4.98305 0.000241574 0)
(4.98326 0.000526606 0)
(4.98314 0.000647541 0)
(4.98309 2.29005e-05 0)
(5.06263 -0.504875 0)
(5.06262 -0.504882 0)
(5.06262 -0.504894 0)
(5.06262 -0.504858 0)
(5.06266 -0.504719 0)
(5.06268 -0.504663 0)
(5.0627 -0.504651 0)
(5.06271 -0.504639 0)
(5.06275 -0.504644 0)
(5.06278 -0.504649 0)
(5.0628 -0.504669 0)
(5.06283 -0.504728 0)
(5.06286 -0.504733 0)
(5.06289 -0.50471 0)
(5.06287 -0.504819 0)
(5.06288 -0.504853 0)
(5.06292 -0.504809 0)
(5.0629 -0.504965 0)
(5.06287 -0.505199 0)
(5.06282 -0.505125 0)
(5.06275 -0.505 0)
(5.06261 -0.505262 0)
(5.06263 -0.505493 0)
(5.06271 -0.505448 0)
(5.06284 -0.505326 0)
(5.06296 -0.505325 0)
(5.06284 -0.505683 0)
(5.06287 -0.505966 0)
(5.06296 -0.506067 0)
(5.06306 -0.506096 0)
(5.06315 -0.506154 0)
(5.06325 -0.506352 0)
(5.06345 -0.506505 0)
(5.06375 -0.506391 0)
(5.06421 -0.506221 0)
(5.06437 -0.50649 0)
(5.06419 -0.506967 0)
(5.06411 -0.507249 0)
(5.06406 -0.507386 0)
(5.06398 -0.507406 0)
(5.06397 -0.507358 0)
(5.06398 -0.507322 0)
(5.06402 -0.507198 0)
(5.06403 -0.507161 0)
(5.06402 -0.50726 0)
(5.06412 -0.507367 0)
(5.0643 -0.50736 0)
(5.06435 -0.507309 0)
(5.06453 -0.507106 0)
(5.06475 -0.506964 0)
(5.06495 -0.506731 0)
(5.06506 -0.5062 0)
(5.06497 -0.504226 0)
(5.06433 -0.500531 0)
(5.06304 -0.491667 0)
(5.06017 -0.476163 0)
(5.05674 -0.451123 0)
(5.04996 -0.406498 0)
(5.04636 -0.36894 0)
(5.03591 -0.286007 0)
(5.03597 -0.262369 0)
(5.02519 -0.166457 0)
(5.02614 -0.166414 0)
(5.01944 -0.102229 0)
(5.03128 -0.113107 0)
(5.00967 -0.0592338 0)
(5.0065 -0.0520711 0)
(5.00183 -0.0357639 0)
(4.99655 -0.0197029 0)
(4.99339 -0.00809051 0)
(4.98272 0.000681977 0)
(4.98523 0.0107085 0)
(4.98437 0.00899993 0)
(4.98222 -2.48323e-05 0)
(4.98138 -0.00162485 0)
(4.98221 -0.0107994 0)
(4.98053 -0.00722654 0)
(4.9813 -0.00333131 0)
(4.98216 0.00195539 0)
(4.98321 0.00518738 0)
(4.983 0.00470335 0)
(4.98238 0.0018827 0)
(4.98137 -0.000915692 0)
(4.98223 -0.00363329 0)
(4.9826 -0.00321924 0)
(4.98319 -0.000809095 0)
(4.98388 0.000473194 0)
(4.98383 2.3762e-05 0)
(4.98359 -0.000793971 0)
(4.98402 -0.00197512 0)
(4.98428 -0.00176671 0)
(4.98478 -0.000744703 0)
(4.98499 0.000484284 0)
(4.98508 0.00090171 0)
(4.98517 0.000580299 0)
(4.98524 0.000581525 0)
(4.98554 0.000495774 0)
(4.98547 0.00083746 0)
(4.98542 0.000858121 0)
(4.98537 0.000344338 0)
(5.06408 -0.505222 0)
(5.06408 -0.505216 0)
(5.06406 -0.505254 0)
(5.06405 -0.505314 0)
(5.06406 -0.505299 0)
(5.06406 -0.505317 0)
(5.06406 -0.50539 0)
(5.06408 -0.505389 0)
(5.06411 -0.50541 0)
(5.06412 -0.505436 0)
(5.06412 -0.505486 0)
(5.06412 -0.505574 0)
(5.06414 -0.505536 0)
(5.06413 -0.505599 0)
(5.06404 -0.505892 0)
(5.06407 -0.505945 0)
(5.06412 -0.506005 0)
(5.0641 -0.506297 0)
(5.06404 -0.506335 0)
(5.06403 -0.506067 0)
(5.06378 -0.506317 0)
(5.06377 -0.506796 0)
(5.0639 -0.506886 0)
(5.06403 -0.506795 0)
(5.06417 -0.506778 0)
(5.06425 -0.507013 0)
(5.06426 -0.507141 0)
(5.06436 -0.507366 0)
(5.06447 -0.507437 0)
(5.06464 -0.507444 0)
(5.06477 -0.507667 0)
(5.06489 -0.50772 0)
(5.06507 -0.507512 0)
(5.06527 -0.507535 0)
(5.06542 -0.507867 0)
(5.0656 -0.508025 0)
(5.06575 -0.508072 0)
(5.06582 -0.508187 0)
(5.06579 -0.508353 0)
(5.06566 -0.508411 0)
(5.06553 -0.508345 0)
(5.06551 -0.508302 0)
(5.06547 -0.508165 0)
(5.06544 -0.508069 0)
(5.06549 -0.508072 0)
(5.06561 -0.508091 0)
(5.06568 -0.508038 0)
(5.06579 -0.507997 0)
(5.06597 -0.508033 0)
(5.0661 -0.508024 0)
(5.06622 -0.507968 0)
(5.06635 -0.507962 0)
(5.06668 -0.507853 0)
(5.06696 -0.507666 0)
(5.06716 -0.507314 0)
(5.06736 -0.506779 0)
(5.06739 -0.505687 0)
(5.06701 -0.503328 0)
(5.06597 -0.497506 0)
(5.06352 -0.483785 0)
(5.06047 -0.460985 0)
(5.05328 -0.412757 0)
(5.0497 -0.371847 0)
(5.03427 -0.266984 0)
(5.04297 -0.234044 0)
(5.02342 -0.0951112 0)
(5.03581 -0.0981169 0)
(5.01398 0.00358513 0)
(5.01672 0.00485082 0)
(5.00492 0.056811 0)
(4.99525 0.047955 0)
(4.98743 0.0191133 0)
(4.98677 0.00600054 0)
(4.98372 -0.00848273 0)
(4.98348 -0.00941597 0)
(4.98424 -0.00941205 0)
(4.98516 -0.00363068 0)
(4.98703 0.0100879 0)
(4.98716 0.0127873 0)
(4.98659 0.0104163 0)
(4.98457 0.00454477 0)
(4.9839 -0.00326737 0)
(4.98432 -0.00423513 0)
(4.98498 -0.00354489 0)
(4.98582 -0.0011404 0)
(4.98632 0.00330491 0)
(4.98648 0.00171839 0)
(4.98613 0.00036478 0)
(4.98608 -0.00195403 0)
(4.98606 -0.00204037 0)
(4.98637 -0.00113582 0)
(4.98679 -3.41494e-05 0)
(4.98656 1.57706e-05 0)
(4.98649 -0.000564969 0)
(4.98644 2.42218e-05 0)
(4.98656 0.000456837 0)
(4.98668 0.00113226 0)
(4.98678 0.000781815 0)
(4.98696 0.00029027 0)
(4.98689 -0.000334492 0)
(5.06562 -0.506491 0)
(5.06562 -0.506501 0)
(5.06562 -0.506556 0)
(5.06562 -0.506579 0)
(5.06564 -0.506557 0)
(5.06565 -0.506566 0)
(5.06566 -0.506634 0)
(5.0657 -0.506616 0)
(5.06573 -0.506627 0)
(5.06564 -0.506815 0)
(5.06563 -0.506996 0)
(5.0656 -0.506928 0)
(5.06565 -0.506804 0)
(5.06565 -0.506885 0)
(5.06553 -0.507031 0)
(5.06553 -0.507285 0)
(5.06558 -0.507386 0)
(5.06556 -0.507248 0)
(5.06537 -0.507235 0)
(5.06528 -0.507497 0)
(5.06529 -0.507529 0)
(5.06536 -0.507595 0)
(5.06543 -0.507679 0)
(5.06548 -0.507767 0)
(5.06555 -0.50782 0)
(5.06559 -0.507802 0)
(5.06569 -0.507801 0)
(5.06577 -0.507832 0)
(5.0659 -0.507853 0)
(5.06602 -0.507804 0)
(5.06609 -0.507885 0)
(5.06617 -0.507994 0)
(5.06629 -0.507884 0)
(5.06645 -0.507801 0)
(5.06654 -0.508069 0)
(5.06667 -0.508289 0)
(5.06677 -0.508302 0)
(5.06682 -0.508321 0)
(5.0667 -0.508528 0)
(5.06667 -0.508615 0)
(5.06669 -0.508603 0)
(5.06676 -0.508516 0)
(5.06685 -0.508474 0)
(5.06689 -0.508613 0)
(5.0669 -0.508631 0)
(5.06696 -0.508452 0)
(5.067 -0.508271 0)
(5.06701 -0.508184 0)
(5.06704 -0.508094 0)
(5.06705 -0.507939 0)
(5.06713 -0.50759 0)
(5.06733 -0.507185 0)
(5.06747 -0.50693 0)
(5.06776 -0.506606 0)
(5.06808 -0.506383 0)
(5.06837 -0.506136 0)
(5.06845 -0.506054 0)
(5.06836 -0.506292 0)
(5.06825 -0.506478 0)
(5.06809 -0.506035 0)
(5.06807 -0.504534 0)
(5.06797 -0.501886 0)
(5.06714 -0.495842 0)
(5.06459 -0.484336 0)
(5.06065 -0.457286 0)
(5.05428 -0.414926 0)
(5.04881 -0.35395 0)
(5.03959 -0.269756 0)
(5.03727 -0.223387 0)
(5.02982 -0.138462 0)
(5.03652 -0.13293 0)
(5.0213 -0.0825168 0)
(5.01479 -0.0544514 0)
(5.00829 -0.0367087 0)
(5.00385 -0.0190798 0)
(4.99733 -0.00636893 0)
(4.99019 0.00756878 0)
(4.98925 0.00775206 0)
(4.98904 0.00415891 0)
(4.98676 -0.00471884 0)
(4.98673 -0.00601829 0)
(4.98693 -0.00584309 0)
(4.98831 -0.00298403 0)
(4.98882 -4.1333e-05 0)
(4.98988 0.00318777 0)
(4.98963 0.00293118 0)
(4.98872 0.000740886 0)
(4.98829 -0.00321897 0)
(4.98835 -0.00304381 0)
(4.98861 -0.00142176 0)
(4.98895 0.000200818 0)
(4.98889 0.000110391 0)
(4.98865 -0.000539604 0)
(4.9879 -0.000862911 0)
(4.98789 -7.84193e-05 0)
(4.98761 0.0007087 0)
(4.9877 0.00157347 0)
(4.98784 0.00111113 0)
(4.98805 0.000268213 0)
(4.98746 -0.000311392 0)
(5.06677 -0.507621 0)
(5.06678 -0.507627 0)
(5.06678 -0.507682 0)
(5.06677 -0.507725 0)
(5.06677 -0.507803 0)
(5.06679 -0.507907 0)
(5.06684 -0.508067 0)
(5.06688 -0.508184 0)
(5.06685 -0.508089 0)
(5.06685 -0.507939 0)
(5.06687 -0.507888 0)
(5.06683 -0.508047 0)
(5.06679 -0.508271 0)
(5.06678 -0.508438 0)
(5.06681 -0.508478 0)
(5.0668 -0.508534 0)
(5.06667 -0.508569 0)
(5.06651 -0.50838 0)
(5.06652 -0.508204 0)
(5.06654 -0.50817 0)
(5.06659 -0.508158 0)
(5.06671 -0.508213 0)
(5.06676 -0.508232 0)
(5.06678 -0.508251 0)
(5.06679 -0.508241 0)
(5.06682 -0.508311 0)
(5.06687 -0.508515 0)
(5.06687 -0.508577 0)
(5.06685 -0.508666 0)
(5.06681 -0.508764 0)
(5.0668 -0.508705 0)
(5.06681 -0.508706 0)
(5.06683 -0.508804 0)
(5.0669 -0.508806 0)
(5.06701 -0.508754 0)
(5.06715 -0.508797 0)
(5.06718 -0.508908 0)
(5.06712 -0.508989 0)
(5.06705 -0.508989 0)
(5.06711 -0.508908 0)
(5.06716 -0.508874 0)
(5.06732 -0.508746 0)
(5.06752 -0.508557 0)
(5.06768 -0.508627 0)
(5.06778 -0.508639 0)
(5.06785 -0.508561 0)
(5.06793 -0.5083 0)
(5.06793 -0.508015 0)
(5.06781 -0.507961 0)
(5.06767 -0.507832 0)
(5.06766 -0.507182 0)
(5.06759 -0.506815 0)
(5.06739 -0.506703 0)
(5.06789 -0.506084 0)
(5.06823 -0.505731 0)
(5.06843 -0.505555 0)
(5.06862 -0.505499 0)
(5.06853 -0.505851 0)
(5.06839 -0.506206 0)
(5.06833 -0.506348 0)
(5.06835 -0.506165 0)
(5.06854 -0.505157 0)
(5.06852 -0.504666 0)
(5.0684 -0.504546 0)
(5.06806 -0.50416 0)
(5.06731 -0.501806 0)
(5.06574 -0.494024 0)
(5.06254 -0.475436 0)
(5.05668 -0.43278 0)
(5.04761 -0.371059 0)
(5.0406 -0.274144 0)
(5.0305 -0.168476 0)
(5.02827 -0.0965677 0)
(5.01475 -0.0155626 0)
(5.02059 0.0065283 0)
(5.00817 0.057768 0)
(4.99747 0.0415258 0)
(4.99826 0.0144472 0)
(4.99354 -0.00386994 0)
(4.99037 -0.0106764 0)
(4.99087 -0.0102045 0)
(4.99321 -0.00269909 0)
(4.99429 0.00865032 0)
(4.99424 0.00979525 0)
(4.99306 0.0066141 0)
(4.99128 0.00235267 0)
(4.99015 -0.00336581 0)
(4.99014 -0.00339128 0)
(4.99104 -0.00089699 0)
(4.99108 0.0015685 0)
(4.99083 0.00114144 0)
(4.99019 -0.000177245 0)
(4.9894 -0.00154586 0)
(4.98928 -0.00103378 0)
(4.98968 0.000539809 0)
(4.98892 0.00223069 0)
(4.98862 0.0013705 0)
(4.98842 0.000602826 0)
(4.98799 -0.000504483 0)
(4.98786 -0.000324699 0)
(5.06743 -0.507888 0)
(5.06745 -0.50799 0)
(5.06749 -0.50804 0)
(5.06752 -0.5081 0)
(5.06753 -0.508141 0)
(5.06754 -0.508125 0)
(5.06754 -0.508137 0)
(5.0675 -0.508239 0)
(5.06751 -0.508378 0)
(5.06756 -0.508495 0)
(5.06757 -0.508548 0)
(5.06757 -0.508609 0)
(5.06759 -0.508657 0)
(5.06759 -0.508646 0)
(5.06753 -0.508556 0)
(5.06743 -0.508423 0)
(5.06738 -0.508302 0)
(5.06738 -0.508258 0)
(5.06739 -0.508243 0)
(5.06743 -0.508144 0)
(5.06746 -0.508031 0)
(5.06754 -0.508127 0)
(5.06764 -0.508268 0)
(5.06772 -0.508308 0)
(5.06779 -0.508339 0)
(5.06783 -0.508369 0)
(5.06776 -0.508405 0)
(5.06769 -0.508432 0)
(5.06755 -0.50845 0)
(5.06746 -0.508474 0)
(5.06732 -0.508503 0)
(5.06726 -0.50849 0)
(5.06725 -0.508457 0)
(5.0672 -0.508409 0)
(5.06714 -0.508379 0)
(5.06716 -0.508358 0)
(5.06718 -0.508334 0)
(5.06714 -0.508348 0)
(5.06712 -0.508417 0)
(5.06714 -0.508432 0)
(5.06723 -0.508374 0)
(5.06746 -0.508173 0)
(5.06773 -0.508025 0)
(5.06797 -0.507878 0)
(5.06819 -0.50789 0)
(5.06848 -0.507654 0)
(5.06874 -0.507018 0)
(5.06867 -0.50706 0)
(5.06837 -0.507106 0)
(5.06814 -0.506682 0)
(5.06789 -0.506348 0)
(5.06754 -0.506153 0)
(5.06744 -0.5056 0)
(5.06798 -0.505212 0)
(5.06811 -0.505108 0)
(5.06827 -0.504964 0)
(5.06848 -0.504891 0)
(5.06849 -0.505191 0)
(5.06826 -0.505758 0)
(5.06822 -0.505973 0)
(5.0682 -0.505901 0)
(5.06837 -0.50547 0)
(5.06833 -0.505056 0)
(5.06827 -0.504983 0)
(5.06817 -0.505065 0)
(5.06796 -0.5054 0)
(5.0678 -0.505905 0)
(5.06772 -0.505933 0)
(5.06747 -0.504395 0)
(5.06647 -0.499328 0)
(5.06339 -0.480726 0)
(5.05916 -0.454514 0)
(5.04781 -0.363983 0)
(5.04691 -0.328224 0)
(5.03015 -0.185891 0)
(5.03885 -0.172526 0)
(5.02213 -0.10301 0)
(5.03448 -0.0805745 0)
(5.01271 -0.0444128 0)
(5.00452 -0.0236575 0)
(5.00164 -0.010241 0)
(4.99841 0.00431102 0)
(4.99678 0.00505249 0)
(4.99419 0.00311033 0)
(4.99134 -0.0036012 0)
(4.99063 -0.00412475 0)
(4.99066 -0.00392938 0)
(4.99127 -0.000239956 0)
(4.99094 0.00189254 0)
(4.99065 0.00185004 0)
(4.98987 6.1305e-06 0)
(4.9886 -0.00271888 0)
(4.98855 -0.00215304 0)
(4.98915 -0.000131373 0)
(4.98886 0.00134721 0)
(4.98862 0.00132866 0)
(4.98805 -8.16538e-05 0)
(4.9877 -0.000585592 0)
(4.98764 -0.00043712 0)
(4.9876 4.76274e-05 0)
(5.06754 -0.508289 0)
(5.06741 -0.508465 0)
(5.06728 -0.508574 0)
(5.06721 -0.508856 0)
(5.0673 -0.509023 0)
(5.06734 -0.50919 0)
(5.06732 -0.509201 0)
(5.06731 -0.509237 0)
(5.06739 -0.50936 0)
(5.06742 -0.509436 0)
(5.06744 -0.509432 0)
(5.06749 -0.509431 0)
(5.06743 -0.509503 0)
(5.06737 -0.509538 0)
(5.06735 -0.509647 0)
(5.06739 -0.509722 0)
(5.06736 -0.509558 0)
(5.06733 -0.509332 0)
(5.06733 -0.509211 0)
(5.06748 -0.509044 0)
(5.06752 -0.508897 0)
(5.0676 -0.50891 0)
(5.0677 -0.509083 0)
(5.06788 -0.50915 0)
(5.06816 -0.508831 0)
(5.06819 -0.5087 0)
(5.06819 -0.508641 0)
(5.06799 -0.508485 0)
(5.06793 -0.508437 0)
(5.06784 -0.508371 0)
(5.06771 -0.508249 0)
(5.06755 -0.508161 0)
(5.06749 -0.508077 0)
(5.06739 -0.50795 0)
(5.06725 -0.507768 0)
(5.06709 -0.507677 0)
(5.06696 -0.507568 0)
(5.06687 -0.507508 0)
(5.06685 -0.507637 0)
(5.06689 -0.507659 0)
(5.06699 -0.507657 0)
(5.06724 -0.507391 0)
(5.0677 -0.506762 0)
(5.0681 -0.506905 0)
(5.06858 -0.506743 0)
(5.06894 -0.506455 0)
(5.06907 -0.506312 0)
(5.06886 -0.505937 0)
(5.06855 -0.505775 0)
(5.06828 -0.505646 0)
(5.06788 -0.505541 0)
(5.06748 -0.50547 0)
(5.06738 -0.505378 0)
(5.06786 -0.505298 0)
(5.06798 -0.505254 0)
(5.06809 -0.505112 0)
(5.06823 -0.505013 0)
(5.0683 -0.504911 0)
(5.0682 -0.505271 0)
(5.06819 -0.505626 0)
(5.06821 -0.505986 0)
(5.06814 -0.506114 0)
(5.06807 -0.505975 0)
(5.06806 -0.505884 0)
(5.06794 -0.505853 0)
(5.06783 -0.50591 0)
(5.06765 -0.506199 0)
(5.06755 -0.506433 0)
(5.06771 -0.506827 0)
(5.06774 -0.506837 0)
(5.06756 -0.506554 0)
(5.06714 -0.505101 0)
(5.06578 -0.499495 0)
(5.06336 -0.48279 0)
(5.05412 -0.429591 0)
(5.05249 -0.379269 0)
(5.02878 -0.199645 0)
(5.04629 -0.180775 0)
(5.01719 -0.0114698 0)
(5.01631 -0.0116116 0)
(5.00883 0.0584531 0)
(4.99647 0.0361238 0)
(4.99052 0.00553236 0)
(4.99247 -0.00209128 0)
(4.99052 -0.00736175 0)
(4.99027 -0.00639722 0)
(4.98939 -0.000216383 0)
(4.9883 0.00799465 0)
(4.98764 0.00672145 0)
(4.98666 0.00197723 0)
(4.98587 -0.0026026 0)
(4.98602 -0.00248103 0)
(4.98695 0.000300394 0)
(4.98718 0.00313735 0)
(4.98684 0.00228247 0)
(4.98667 0.000127356 0)
(4.98622 -0.00163375 0)
(4.98601 -0.00105941 0)
(4.98623 -0.000347157 0)
(4.9861 0.000245757 0)
(5.06678 -0.507867 0)
(5.06677 -0.507887 0)
(5.06676 -0.507888 0)
(5.06676 -0.507939 0)
(5.06678 -0.508013 0)
(5.06679 -0.508046 0)
(5.06681 -0.50808 0)
(5.06681 -0.508084 0)
(5.06686 -0.508215 0)
(5.06689 -0.50835 0)
(5.0669 -0.508375 0)
(5.06693 -0.508414 0)
(5.06695 -0.50844 0)
(5.06697 -0.508437 0)
(5.06699 -0.508441 0)
(5.067 -0.508452 0)
(5.06701 -0.508479 0)
(5.06702 -0.508473 0)
(5.06724 -0.508254 0)
(5.06735 -0.50811 0)
(5.06747 -0.508094 0)
(5.06752 -0.508167 0)
(5.06756 -0.508291 0)
(5.0678 -0.50826 0)
(5.06822 -0.507861 0)
(5.06829 -0.507737 0)
(5.06829 -0.507566 0)
(5.06818 -0.507386 0)
(5.06812 -0.507321 0)
(5.06809 -0.507242 0)
(5.06816 -0.507076 0)
(5.06828 -0.506751 0)
(5.06816 -0.506506 0)
(5.06784 -0.50631 0)
(5.06747 -0.506199 0)
(5.06718 -0.506155 0)
(5.06704 -0.505926 0)
(5.06696 -0.505718 0)
(5.06694 -0.505885 0)
(5.06694 -0.506055 0)
(5.06717 -0.505553 0)
(5.06732 -0.505547 0)
(5.06767 -0.505356 0)
(5.06847 -0.505264 0)
(5.0686 -0.50527 0)
(5.06881 -0.505343 0)
(5.06897 -0.505221 0)
(5.06866 -0.504835 0)
(5.06824 -0.504691 0)
(5.06816 -0.504654 0)
(5.06799 -0.504577 0)
(5.06782 -0.504567 0)
(5.06778 -0.504836 0)
(5.06781 -0.504964 0)
(5.06779 -0.50494 0)
(5.06781 -0.504855 0)
(5.06786 -0.504638 0)
(5.06793 -0.504513 0)
(5.068 -0.504754 0)
(5.06808 -0.505236 0)
(5.06815 -0.505876 0)
(5.06813 -0.506422 0)
(5.06788 -0.506551 0)
(5.06774 -0.506483 0)
(5.06761 -0.506374 0)
(5.06744 -0.50638 0)
(5.06741 -0.50649 0)
(5.06742 -0.506578 0)
(5.06748 -0.506797 0)
(5.06738 -0.507014 0)
(5.06733 -0.507009 0)
(5.0672 -0.506935 0)
(5.06709 -0.506765 0)
(5.06688 -0.506423 0)
(5.06644 -0.504574 0)
(5.06537 -0.49672 0)
(5.06143 -0.473997 0)
(5.05557 -0.42196 0)
(5.04303 -0.319199 0)
(5.04026 -0.262307 0)
(5.02607 -0.129675 0)
(5.04443 -0.133377 0)
(5.01119 -0.0547881 0)
(5.00382 -0.0362854 0)
(5.00258 -0.0215103 0)
(4.98813 -0.00636494 0)
(4.98214 0.00957506 0)
(4.98102 0.00619676 0)
(4.98088 -0.000565066 0)
(4.98189 -0.00484891 0)
(4.98246 -0.00406498 0)
(4.98389 -9.3003e-05 0)
(4.98511 0.00281834 0)
(4.98489 0.00251656 0)
(4.98422 -0.000904965 0)
(4.98378 -0.00383311 0)
(4.98403 -0.00277662 0)
(4.98401 -0.000798191 0)
(4.98464 0.00055643 0)
(4.98469 0.000279357 0)
(5.06646 -0.507548 0)
(5.06646 -0.507672 0)
(5.06648 -0.507694 0)
(5.06649 -0.507694 0)
(5.0665 -0.507689 0)
(5.06651 -0.507725 0)