/*--------------------------------*- C++ -*----------------------------------*\
  =========                 |
  \\      /  F ield         | OpenFOAM: The Open Source CFD Toolbox
   \\    /   O peration     | Website:  https://openfoam.org
    \\  /    A nd           | Version:  7
     \\/     M anipulation  |
\*---------------------------------------------------------------------------*/
FoamFile
{
    version     2.0;
    format      ascii;
    class       volScalarField;
    location    "3";
    object      p;
}
// * * * * * * * * * * * * * * * * * * * * * * * * * * * * * * * * * * * * * //

dimensions      [1 -1 -2 0 0 0 0];

internalField   nonuniform List<scalar> 
60000
(
0.0631126
0.111516
0.157548
0.179318
0.208531
0.254507
0.297857
0.339933
0.38535
0.432817
0.479216
0.51992
0.553021
0.579823
0.596197
0.603478
0.597048
0.585235
0.567997
0.559411
0.548877
0.538723
0.533272
0.530821
0.532626
0.539734
0.547408
0.558793
0.56857
0.5764
0.580325
0.580525
0.578974
0.57673
0.576336
0.578443
0.582747
0.58699
0.59177
0.595385
0.597084
0.599218
0.601877
0.603609
0.603931
0.604231
0.605767
0.609317
0.611214
0.612036
0.612037
0.608259
0.602196
0.598997
0.597561
0.599398
0.602905
0.609737
0.614892
0.619131
0.618635
0.614155
0.612269
0.614618
0.621341
0.626819
0.63093
0.631014
0.62883
0.627725
0.629641
0.630183
0.628081
0.628658
0.631184
0.619891
0.611984
0.647714
0.82213
0.929061
1.01701
1.10223
1.1018
1.02723
0.990693
0.972628
0.961041
0.951778
0.945343
0.95316
0.966816
0.972995
0.974393
0.973199
0.973625
0.983911
0.978261
0.940988
0.902698
0.753392
0.0212221
0.021206
0.0211918
0.0211749
0.0211642
0.0211298
0.0221951
0.0265984
0.0360823
0.0524019
0.0761289
0.111897
0.161085
0.224203
0.298756
0.381538
0.460947
0.526347
0.586273
0.62419
0.640438
0.633258
0.623671
0.60523
0.590415
0.574735
0.56191
0.554213
0.549327
0.548607
0.547615
0.552095
0.562353
0.578735
0.592564
0.602564
0.609712
0.614627
0.618385
0.620152
0.619237
0.617235
0.614397
0.61075
0.607498
0.607175
0.610215
0.612355
0.612111
0.610083
0.605558
0.601217
0.598762
0.599463
0.603104
0.608041
0.612174
0.613292
0.608664
0.6044
0.606014
0.610952
0.617782
0.624616
0.627276
0.625284
0.62294
0.624736
0.630144
0.634414
0.638815
0.636957
0.63438
0.637457
0.642307
0.634762
0.621082
0.660587
0.826739
0.925592
1.01862
1.10841
1.10207
1.03102
0.994295
0.972425
0.959637
0.951379
0.94534
0.955011
0.96832
0.973506
0.972225
0.969507
0.970175
0.978701
0.973779
0.933822
0.901239
0.759365
0.0212137
0.0212045
0.021197
0.0211862
0.0211794
0.021174
0.021159
0.0211203
0.0210812
0.021038
0.0210037
0.0209705
0.0209629
0.02091
0.0243308
0.0352864
0.0607251
0.101531
0.163703
0.244469
0.339066
0.415904
0.501128
0.56283
0.610144
0.642196
0.654768
0.640473
0.623316
0.606985
0.586008
0.577332
0.568071
0.565518
0.560501
0.564245
0.574476
0.592913
0.611322
0.622231
0.626607
0.623777
0.616473
0.609132
0.606208
0.606026
0.606421
0.607673
0.609009
0.609864
0.611978
0.61341
0.613264
0.611475
0.610335
0.610236
0.611053
0.610945
0.611547
0.615035
0.622275
0.628997
0.633127
0.630929
0.629033
0.630061
0.633902
0.640185
0.646441
0.645532
0.639642
0.637649
0.64208
0.654875
0.664653
0.655216
0.62391
0.65607
0.822597
0.922923
1.02163
1.10815
1.09217
1.03031
0.997019
0.975541
0.960852
0.951084
0.94553
0.955927
0.96938
0.972955
0.968627
0.966445
0.968496
0.975138
0.969862
0.927677
0.898665
0.765128
0.0211272
0.0211208
0.0211116
0.0211031
0.0210915
0.02108
0.0210686
0.021061
0.0210532
0.0210499
0.0210448
0.0210351
0.0210301
0.0210267
0.0210055
0.0209733
0.0209403
0.0209079
0.0208977
0.0208513
0.0267728
0.0464155
0.0820633
0.145156
0.219867
0.320577
0.421759
0.508827
0.577444
0.630308
0.660778
0.654981
0.633529
0.612858
0.58605
0.577777
0.570366
0.565271
0.564819
0.567433
0.583332
0.602366
0.616532
0.625667
0.628575
0.624675
0.614194
0.602262
0.596252
0.596273
0.602177
0.608639
0.609705
0.606708
0.603532
0.605365
0.611304
0.618334
0.62447
0.624381
0.622699
0.621783
0.621145
0.623974
0.628494
0.634926
0.636864
0.635655
0.632671
0.633249
0.636621
0.640798
0.648324
0.658524
0.666597
0.658062
0.627588
0.651146
0.819514
0.922118
1.02363
1.10022
1.07683
1.0263
0.996989
0.976844
0.96335
0.952421
0.94636
0.956221
0.968999
0.9717
0.966826
0.966122
0.968914
0.973237
0.966021
0.922182
0.893747
0.769791
0.0210705
0.021061
0.0210495
0.0210387
0.0210299
0.0210193
0.021009
0.0210016
0.0209938
0.0209909
0.0209883
0.0209932
0.0209899
0.020989
0.0209994
0.0210083
0.0210207
0.0210398
0.0210654
0.021105
0.0210744
0.02105
0.0210259
0.0210409
0.0210078
0.0249646
0.0431909
0.0876297
0.15694
0.251745
0.367444
0.471841
0.538209
0.592343
0.619405
0.622454
0.610778
0.593156
0.577855
0.57281
0.577521
0.583519
0.591797
0.606438
0.617132
0.621167
0.616728
0.613727
0.609666
0.606393
0.602813
0.603705
0.608722
0.612752
0.613383
0.606324
0.60219
0.605037
0.6158
0.624498
0.624112
0.623316
0.628688
0.636091
0.641082
0.639225
0.635596
0.634533
0.63743
0.642636
0.645663
0.648518
0.659972
0.674004
0.68144
0.672056
0.637143
0.645511
0.80945
0.918466
1.02394
1.08552
1.0626
1.02267
0.995223
0.977689
0.965733
0.954568
0.94856
0.957453
0.968821
0.971594
0.966751
0.966959
0.970493
0.971371
0.961094
0.916821
0.88716
0.773569
0.0209693
0.0209647
0.0209634
0.0209619
0.0209635
0.0209673
0.0209721
0.0209789
0.0209868
0.020993
0.0210029
0.0210165
0.0210386
0.0210568
0.0210756
0.0210947
0.0211184
0.0211406
0.0211701
0.0211895
0.0212139
0.0212298
0.0212426
0.0212571
0.0212796
0.0212477
0.0212258
0.0211959
0.0211793
0.0211109
0.0298675
0.0613675
0.124278
0.208448
0.323478
0.410563
0.492234
0.537568
0.568236
0.586101
0.591579
0.589015
0.598799
0.601025
0.60026
0.602834
0.603606
0.60985
0.612032
0.608567
0.6032
0.597724
0.598432
0.605362
0.614374
0.617393
0.614178
0.612738
0.615302
0.622197
0.626455
0.622716
0.621484
0.629288
0.638611
0.639947
0.633235
0.627957
0.628996
0.638781
0.645957
0.652531
0.668737
0.678901
0.683925
0.676854
0.628051
0.631075
0.789504
0.910658
1.01526
1.06753
1.05066
1.01945
0.993518
0.978234
0.967883
0.956645
0.9512
0.958991
0.969578
0.972035
0.965609
0.965949
0.970465
0.967851
0.955192
0.912346
0.88113
0.777279
0.021001
0.0210128
0.0210273
0.0210447
0.0210616
0.0210781
0.021096
0.0211171
0.0211353
0.0211547
0.0211675
0.021182
0.0211976
0.0212152
0.0212288
0.0212422
0.0212541
0.0212676
0.0212792
0.0212912
0.0213018
0.0212969
0.0212861
0.0212692
0.0212579
0.021254
0.021251
0.021237
0.0212213
0.02121
0.0211681
0.0211223
0.0210946
0.0210371
0.0259214
0.0466985
0.0951813
0.169531
0.259988
0.347213
0.42594
0.481769
0.528195
0.558053
0.574486
0.596447
0.604697
0.622308
0.620586
0.615068
0.60587
0.603916
0.60202
0.599836
0.602065
0.607303
0.612249
0.615965
0.615964
0.616768
0.623851
0.63076
0.634085
0.634027
0.635708
0.637944
0.637258
0.629802
0.628466
0.634681
0.64519
0.659164
0.674979
0.686168
0.693472
0.685671
0.636237
0.633903
0.766803
0.899902
1.00171
1.0488
1.03508
1.01604
0.993078
0.980502
0.970979
0.959204
0.954526
0.960555
0.970106
0.972045
0.963987
0.961257
0.967878
0.95964
0.948396
0.909039
0.876542
0.782901
0.0211836
0.0212016
0.0212201
0.0212356
0.0212456
0.0212488
0.0212539
0.0212594
0.0212676
0.0212739
0.0212767
0.0212767
0.0212762
0.0212776
0.0212766
0.0212723
0.0212679
0.0212697
0.0212709
0.0212714
0.0212685
0.0212613
0.0212423
0.021229
0.0212121
0.0211959
0.0211869
0.0211846
0.0211748
0.0211612
0.0211493
0.0211463
0.0211464
0.0211439
0.02111
0.0210909
0.0210757
0.0210699
0.0210441
0.0319987
0.0618179
0.120309
0.195076
0.289866
0.372553
0.457778
0.522138
0.56876
0.5942
0.610339
0.60745
0.609892
0.609112
0.603438
0.600931
0.606473
0.613537
0.618906
0.617879
0.618726
0.622345
0.628509
0.635866
0.636772
0.63342
0.629451
0.631437
0.634063
0.637824
0.643234
0.649098
0.661178
0.677766
0.688261
0.694552
0.697105
0.651605
0.649473
0.75718
0.881438
0.986249
1.02323
1.01294
1.00753
0.991822
0.983567
0.97537
0.963391
0.958452
0.962033
0.970608
0.97307
0.961768
0.958629
0.967087
0.961694
0.941934
0.906034
0.872898
0.788456
0.021315
0.0213162
0.0213165
0.0213152
0.0213138
0.0213089
0.0213027
0.0212962
0.0212914
0.021289
0.0212875
0.021283
0.0212761
0.021271
0.0212675
0.0212629
0.0212584
0.0212525
0.0212502
0.0212465
0.0212439
0.0212357
0.0212268
0.0212185
0.021207
0.021194
0.021189
0.0211891
0.0211901
0.0211881
0.0211837
0.0211858
0.0211838
0.0211725
0.0211623
0.0211589
0.0211523
0.0211421
0.0211385
0.0211387
0.0211583
0.0212115
0.0212495
0.0243375
0.043057
0.084979
0.161182
0.25524
0.365573
0.465055
0.537512
0.572472
0.598824
0.598532
0.599679
0.607193
0.610654
0.61633
0.617876
0.622571
0.627483
0.632351
0.639214
0.638409
0.63412
0.630063
0.630221
0.632185
0.638551
0.647183
0.651746
0.66475
0.678149
0.684326
0.705507
0.713962
0.669811
0.677511
0.766004
0.869253
0.96372
0.986185
0.98769
0.997112
0.991243
0.987397
0.979419
0.968029
0.962799
0.964559
0.971206
0.973491
0.960716
0.954902
0.966157
0.959144
0.937766
0.902548
0.868377
0.791422
0.0212964
0.0212936
0.0212902
0.0212864
0.0212846
0.0212828
0.0212794
0.0212765
0.0212756
0.0212767
0.0212756
0.0212737
0.0212696
0.0212642
0.0212616
0.0212631
0.021264
0.0212605
0.0212532
0.0212474
0.0212423
0.0212368
0.0212313
0.0212294
0.0212247
0.0212158
0.02121
0.0212127
0.0212191
0.0212194
0.0212206
0.0212203
0.0212164
0.0212069
0.0211942
0.0211856
0.0211825
0.0211796
0.0211835
0.0211976
0.0212375
0.021303
0.0213815
0.0214321
0.0214636
0.0214716
0.0214726
0.0214572
0.0377366
0.0832002
0.171198
0.277785
0.396484
0.4835
0.539514
0.585547
0.596476
0.610687
0.617651
0.629713
0.635673
0.634722
0.63693
0.63618
0.630937
0.629131
0.631096
0.636094
0.642967
0.648562
0.657521
0.673388
0.678795
0.688106
0.718562
0.729902
0.697304
0.717797
0.777564
0.862628
0.932784
0.946446
0.966791
0.98385
0.989536
0.989148
0.984755
0.974093
0.970441
0.96942
0.97278
0.973301
0.959633
0.951032
0.963972
0.955462
0.93131
0.89966
0.864618
0.796176
0.0213252
0.0213238
0.0213264
0.0213285
0.0213311
0.0213341
0.0213344
0.0213328
0.0213371
0.021345
0.0213478
0.0213458
0.0213417
0.0213355
0.0213279
0.0213229
0.0213204
0.021314
0.0213051
0.021294
0.0212832
0.0212715
0.021261
0.0212545
0.0212499
0.0212434
0.0212397
0.0212421
0.0212477
0.0212551
0.0212585
0.0212592
0.0212613
0.0212575
0.0212504
0.0212506
0.0212587
0.0212699
0.0212739
0.0212878
0.0213315
0.0213937
0.0214698
0.021541
0.0215805
0.0215928
0.0215981
0.0216115
0.0215903
0.0215328
0.0214896
0.0236934
0.0451336
0.107231
0.195861
0.318103
0.419471
0.513467
0.585987
0.61756
0.633036
0.63524
0.637375
0.63125
0.625402
0.627695
0.633293
0.642394
0.649703
0.654989
0.665129
0.67746
0.68133
0.694543
0.730276
0.746727
0.726038
0.74417
0.792962
0.861194
0.895611
0.913392
0.942842
0.97011
0.988996
0.992046
0.98896
0.982109
0.979002
0.976676
0.976136
0.973719
0.957909
0.947122
0.960211
0.952306
0.923173
0.898224
0.863044
0.803556
0.0213974
0.021397
0.0214
0.0214036
0.021406
0.0214109
0.0214141
0.0214119
0.021413
0.0214186
0.021417
0.0214075
0.0213972
0.0213856
0.0213701
0.0213542
0.0213406
0.021328
0.0213122
0.0212957
0.0212789
0.021263
0.0212496
0.0212401
0.0212361
0.0212382
0.0212432
0.021252
0.0212709
0.0212912
0.0213066
0.0213225
0.0213377
0.0213459
0.021351
0.0213625
0.0213817
0.021396
0.0214032
0.021417
0.02145
0.0215081
0.02158
0.0216419
0.0216748
0.0216842
0.0216965
0.0217092
0.0216899
0.0216008
0.0215217
0.0215416
0.0216161
0.0218249
0.0220477
0.0283944
0.0638189
0.132287
0.259198
0.382783
0.510134
0.590712
0.613095
0.616037
0.62298
0.628971
0.635986
0.645962
0.652566
0.657287
0.671584
0.679201
0.681983
0.700324
0.735837
0.760638
0.752017
0.773179
0.806257
0.833864
0.842432
0.879798
0.918993
0.962131
0.986039
0.992105
0.99254
0.989041
0.985689
0.983414
0.980424
0.973697
0.955437
0.944182
0.954101
0.948297
0.91979
0.894051
0.862693
0.809044
0.0214908
0.0214837
0.0214762
0.0214676
0.0214603
0.0214591
0.0214585
0.021454
0.0214521
0.0214538
0.0214466
0.0214333
0.0214201
0.021405
0.0213871
0.0213686
0.0213527
0.0213366
0.0213188
0.0213004
0.0212844
0.0212728
0.0212647
0.02126
0.0212638
0.0212804
0.0212989
0.0213196
0.0213526
0.02139
0.0214237
0.0214565
0.0214858
0.0215077
0.0215244
0.0215417
0.0215628
0.0215753
0.0215768
0.0215755
0.0215984
0.021638
0.0216911
0.0217427
0.021774
0.0217872
0.0218022
0.0218219
0.0218072
0.0217749
0.0218253
0.021957
0.0222236
0.0226275
0.0230377
0.0231709
0.0232871
0.02343
0.0234825
0.0429908
0.107082
0.232456
0.378036
0.501297
0.597003
0.619026
0.634139
0.647388
0.657765
0.660951
0.672681
0.675141
0.684129
0.703305
0.734633
0.765419
0.774875
0.794359
0.820628
0.82314
0.834163
0.86437
0.899487
0.949253
0.980981
0.989556
0.991127
0.990905
0.989735
0.987604
0.982875
0.971787
0.952964
0.942095
0.948654
0.942195
0.918635
0.890418
0.864207
0.814361
0.0214273
0.0214222
0.0214174
0.0214123
0.0214068
0.0214038
0.0214049
0.0214104
0.0214183
0.0214198
0.0214144
0.0214093
0.0214043
0.0213961
0.0213851
0.0213738
0.0213636
0.0213533
0.0213432
0.0213343
0.0213287
0.0213297
0.0213352
0.0213411
0.0213575
0.0213905
0.0214272
0.0214632
0.0215136
0.0215677
0.0216152
0.0216553
0.0216908
0.0217177
0.0217363
0.0217527
0.0217664
0.0217611
0.0217505
0.0217433
0.0217503
0.0217625
0.0217783
0.0218098
0.0218648
0.021921
0.0219701
0.0220394
0.0221418
0.0223198
0.0225581
0.0228194
0.0231089
0.023406
0.0235981
0.0237312
0.0238454
0.0239109
0.0238439
0.0236436
0.023525
0.0235351
0.0405217
0.107544
0.244056
0.405425
0.521178
0.589055
0.64659
0.6649
0.672947
0.670744
0.689968
0.70618
0.729424
0.768912
0.791139
0.80946
0.823534
0.818021
0.819778
0.839603
0.882388
0.943919
0.981498
0.990995
0.994066
0.99395
0.992775
0.989375
0.982482
0.969201
0.951412
0.939984
0.944396
0.936956
0.917208
0.889158
0.867426
0.820136
0.0214246
0.0214228
0.0214195
0.021416
0.0214118
0.0214088
0.021414
0.0214282
0.0214431
0.0214518
0.0214553
0.0214582
0.0214608
0.0214615
0.0214616
0.0214623
0.0214627
0.0214631
0.0214666
0.0214732
0.0214833
0.0215022
0.0215235
0.0215419
0.0215701
0.0216119
0.0216563
0.0216999
0.0217538
0.0218187
0.0218728
0.0219105
0.021944
0.0219743
0.0219876
0.0219954
0.0219999
0.0219843
0.0219604
0.0219575
0.0219519
0.0219323
0.021937
0.0219869
0.022107
0.0222484
0.0224127
0.0226063
0.0228275
0.0230992
0.0233496
0.0235484
0.0237403
0.0238966
0.0239848
0.0240659
0.0241482
0.0241512
0.0239806
0.0236133
0.0235448
0.0237623
0.0244329
0.0254397
0.0261014
0.0518635
0.126741
0.251024
0.407093
0.533457
0.580426
0.643918
0.701257
0.714268
0.723907
0.76385
0.79012
0.808321
0.818836
0.816713
0.81757
0.827022
0.875325
0.945718
0.997081
1.00839
1.00924
1.0036
0.997772
0.992279
0.983006
0.969169
0.952374
0.939256
0.940982
0.931748
0.914373
0.891448
0.869703
0.823196
0.0214869
0.0214907
0.0214938
0.0214947
0.0214935
0.0214942
0.0215042
0.0215241
0.0215571
0.0215877
0.0216061
0.0216183
0.0216286
0.0216369
0.0216493
0.0216681
0.0216851
0.0217008
0.0217218
0.0217475
0.0217754
0.021805
0.0218324
0.0218595
0.0218909
0.0219272
0.0219654
0.0220041
0.0220514
0.0221152
0.0221619
0.0221862
0.0222101
0.0222233
0.0222218
0.0222204
0.0222281
0.0222197
0.0221996
0.0222007
0.0222138
0.0222418
0.0222954
0.02242
0.0226286
0.0228812
0.0231477
0.0233875
0.0236315
0.0238805
0.0240631
0.024191
0.0242887
0.024321
0.0243393
0.0243917
0.0244809
0.024448
0.024186
0.0242393
0.0246312
0.0255262
0.0267286
0.0280044
0.0292534
0.0298562
0.030677
0.0314255
0.0513961
0.126778
0.241708
0.382698
0.521913
0.595759
0.665458
0.743385
0.78723
0.825772
0.836794
0.822733
0.81609
0.829197
0.880185
0.937181
1.00032
1.01437
1.01732
1.01453
1.006
0.995222
0.982491
0.969096
0.955092
0.94081
0.939337
0.928974
0.912355
0.895208
0.872851
0.827284
0.0216829
0.0216982
0.0217136
0.0217287
0.0217431
0.0217608
0.021784
0.0218126
0.021849
0.0218887
0.02192
0.0219496
0.0219783
0.0220009
0.0220266
0.0220568
0.0220844
0.02211
0.0221381
0.0221727
0.0222019
0.0222234
0.0222425
0.0222601
0.0222766
0.0222983
0.0223277
0.0223511
0.0223783
0.0224124
0.0224367
0.0224512
0.0224716
0.022486
0.0224983
0.0225174
0.0225509
0.0226016
0.0226522
0.022708
0.0227946
0.022921
0.0230891
0.0232882
0.0235312
0.0238144
0.024062
0.0242908
0.02453
0.0246965
0.02477
0.0248373
0.0248702
0.0248113
0.0247306
0.0247182
0.0248337
0.0250834
0.0255628
0.0264287
0.0275814
0.0287817
0.0297937
0.0307045
0.0317853
0.0328904
0.0336343
0.0346092
0.0349127
0.0349835
0.0351423
0.0476013
0.106766
0.236049
0.399441
0.526571
0.62873
0.733625
0.792282
0.816884
0.824104
0.845099
0.897357
0.949267
1.03559
1.03959
1.02891
1.01806
1.00518
0.995813
0.982357
0.973084
0.960151
0.943723
0.937093
0.926592
0.912015
0.899353
0.876897
0.833056
0.022236
0.0222625
0.0222893
0.0223157
0.0223402
0.0223639
0.0223869
0.0224115
0.0224394
0.0224666
0.022489
0.022508
0.022527
0.0225432
0.0225534
0.0225621
0.0225695
0.0225753
0.0225857
0.0225996
0.0226109
0.0226272
0.022641
0.0226344
0.0226254
0.0226304
0.0226566
0.022659
0.0226613
0.0226774
0.0227099
0.0227593
0.0228268
0.0229099
0.0230218
0.0231517
0.0232842
0.0234184
0.0235567
0.0237201
0.0238893
0.0240875
0.0242886
0.0244538
0.0246292
0.0247988
0.0249447
0.0250931
0.0253113
0.0253656
0.0253599
0.025396
0.0254234
0.02531
0.0252763
0.0254074
0.0259736
0.0271141
0.0285003
0.029901
0.0311071
0.0321836
0.033168
0.0339674
0.0348488
0.0357309
0.0359308
0.0361516
0.036605
0.0370107
0.0377772
0.0386716
0.0403004
0.0415059
0.0572023
0.106522
0.214558
0.382652
0.568459
0.697479
0.738308
0.789359
0.876482
0.979876
1.10382
1.105
1.06113
1.03608
1.00758
0.985501
0.976626
0.975464
0.965688
0.95116
0.941132
0.926609
0.913972
0.903375
0.881924
0.838187
0.0229486
0.022946
0.0229431
0.0229388
0.0229329
0.022929
0.0229267
0.0229246
0.0229247
0.0229241
0.0229182
0.0229127
0.022911
0.0229133
0.0229163
0.0229147
0.0229046
0.0229004
0.0229064
0.0229189
0.0229395
0.0229699
0.0229921
0.0229895
0.0229832
0.022995
0.0230352
0.0230888
0.0231391
0.0232107
0.0233204
0.0234925
0.0236895
0.0238973
0.0241175
0.0243349
0.0245386
0.0247071
0.0248677
0.0250458
0.0252194
0.0253866
0.0255083
0.0255946
0.0256426
0.0256562
0.025682
0.0257507
0.0259413
0.026046
0.026086
0.0262089
0.0265079
0.0270586
0.0278682
0.0288913
0.0301491
0.0314837
0.0326903
0.0337147
0.0345288
0.0353062
0.0362015
0.0368227
0.0372647
0.0379219
0.0380174
0.0381247
0.0385941
0.0397677
0.0414145
0.0433804
0.0452991
0.0476215
0.0490625
0.049396
0.0499043
0.0562605
0.11076
0.243727
0.418858
0.548141
0.646309
0.771544
0.888718
0.940222
0.97782
1.02301
1.01803
0.991063
0.987738
0.978787
0.961838
0.948056
0.942291
0.92862
0.92113
0.909924
0.886938
0.843669
0.0229408
0.022943
0.0229512
0.0229535
0.0229546
0.0229575
0.0229652
0.0229831
0.0230082
0.0230307
0.0230508
0.0230762
0.0231038
0.0231367
0.023186
0.0232529
0.0233236
0.0233972
0.0234768
0.023557
0.0236449
0.0237562
0.0238812
0.0239932
0.0240782
0.0241673
0.0243202
0.0244705
0.0246027
0.0247604
0.0249368
0.0251124
0.0252773
0.0254261
0.0255535
0.0256814
0.0258034
0.025925
0.0260515
0.0261828
0.0263464
0.02645
0.0265001
0.02659
0.0266245
0.0265563
0.0265664
0.0266969
0.0270392
0.0276171
0.0283921
0.0293666
0.0305212
0.0317772
0.0330233
0.0341476
0.0351825
0.0360464
0.036697
0.0372605
0.0377318
0.0381447
0.0387433
0.0391668
0.0392959
0.0396038
0.0402154
0.0411139
0.0425073
0.0443864
0.0465481
0.0487146
0.0502642
0.0520307
0.052721
0.053376
0.0544031
0.0556929
0.056835
0.0578219
0.0707819
0.113318
0.145678
0.187595
0.248642
0.367845
0.5511
0.765544
0.882613
0.950929
0.992054
0.991979
0.977903
0.958032
0.947602
0.926261
0.922509
0.917183
0.892221
0.849759
0.0237427
0.0238165
0.0238933
0.0239822
0.0240648
0.0241357
0.0242272
0.0243445
0.024457
0.0245443
0.0246237
0.0247141
0.0248139
0.0249126
0.0250191
0.0251306
0.0252365
0.0253311
0.0254221
0.0255126
0.0256126
0.0257433
0.0258655
0.0259566
0.0260246
0.026114
0.0262239
0.0263125
0.0263894
0.0264557
0.0265224
0.0265798
0.0266293
0.0266897
0.0267426
0.0267934
0.026872
0.0270092
0.0271975
0.0274491
0.0276903
0.0278954
0.0281407
0.0285472
0.0290876
0.0296984
0.0304008
0.0312546
0.032238
0.0333188
0.0344217
0.0354809
0.0363553
0.0370932
0.0377616
0.0383459
0.0389314
0.0393904
0.0396939
0.0399952
0.0402812
0.0404769
0.0408609
0.0413606
0.0418516
0.0427547
0.0444195
0.0467026
0.0490912
0.0511196
0.0528995
0.0544911
0.055523
0.0561154
0.0570889
0.0580988
0.0591801
0.0605774
0.062296
0.0642315
0.0661809
0.0681374
0.0735576
0.0866716
0.10955
0.126987
0.140889
0.203942
0.379745
0.621269
0.819983
0.887349
0.953394
0.963335
0.965821
0.951983
0.934778
0.922897
0.893078
0.859477
0.0262589
0.0262889
0.026319
0.0263494
0.0263816
0.026425
0.0264764
0.0265214
0.0265713
0.0266067
0.0266494
0.0266972
0.0267523
0.0268174
0.0268888
0.0269587
0.0270262
0.0270957
0.0271768
0.0272636
0.0273485
0.0274384
0.0275623
0.0277001
0.0278316
0.0279495
0.0280494
0.0281663
0.0283126
0.0284644
0.0286195
0.028801
0.0289957
0.0292289
0.0295324
0.029907
0.0303561
0.0308622
0.0313959
0.0319866
0.0326507
0.0333785
0.0341708
0.0349779
0.0358062
0.0366227
0.0373857
0.0380415
0.0385929
0.0391164
0.0396053
0.0400529
0.0403841
0.0406748
0.0409796
0.0412809
0.0416545
0.0419656
0.0422143
0.0426027
0.043176
0.0438449
0.0448125
0.0463501
0.0484999
0.0507472
0.0527884
0.0546707
0.0561086
0.0574195
0.0585084
0.0593557
0.0598237
0.0604414
0.0614504
0.0629499
0.0646949
0.0666864
0.068659
0.0704091
0.0721475
0.0743114
0.0784928
0.0887458
0.108271
0.133225
0.144943
0.145348
0.145582
0.168721
0.271713
0.465008
0.68879
0.83789
0.918062
0.94831
0.958107
0.944294
0.906569
0.876513
0.0286812
0.0287408
0.0288307
0.0289314
0.0290271
0.0291074
0.0291793
0.0292591
0.0293692
0.0295037
0.0296339
0.0297575
0.0298905
0.0300353
0.0301921
0.0303497
0.0305248
0.0307272
0.0309373
0.0311623
0.0314079
0.0316718
0.0319595
0.0322757
0.0326104
0.0329609
0.0333187
0.0337148
0.0341365
0.034551
0.0349783
0.0354357
0.0358849
0.0363207
0.0367897
0.0372467
0.0376661
0.0380659
0.0384767
0.0389078
0.0393291
0.039787
0.0402383
0.04065
0.041022
0.0413394
0.041655
0.0419734
0.0422968
0.04262
0.0428919
0.0431875
0.0434265
0.043738
0.0441893
0.0447192
0.0453867
0.046293
0.0474779
0.0488969
0.0505409
0.0524306
0.0544063
0.0562597
0.0578634
0.0593352
0.0604234
0.0613246
0.0620491
0.0626617
0.0633761
0.0640896
0.0650777
0.0663733
0.068059
0.0700389
0.0719215
0.0737537
0.0756075
0.0770328
0.0784468
0.0803255
0.0839571
0.0927138
0.111176
0.134905
0.150999
0.155111
0.157301
0.158027
0.158256
0.159248
0.196691
0.326864
0.532487
0.727255
0.878722
0.916969
0.92122
0.896147
0.0354265
0.0355229
0.0356276
0.0357427
0.035865
0.0359817
0.0361057
0.0362411
0.036369
0.0365019
0.0366498
0.0368004
0.0369581
0.0371294
0.037314
0.0375037
0.0376888
0.0378749
0.0380782
0.0382894
0.0385136
0.0387528
0.0390058
0.0392674
0.0395191
0.0397611
0.0400144
0.0402623
0.0405095
0.0407676
0.0410288
0.0412859
0.0415483
0.0418222
0.0420893
0.0423571
0.0426296
0.0429021
0.0431847
0.0434786
0.0437869
0.0441144
0.0444177
0.0447438
0.0450865
0.045481
0.0459325
0.046417
0.046956
0.0475741
0.0482829
0.0491559
0.0501792
0.051344
0.0526334
0.0540415
0.0555313
0.0569994
0.0584904
0.059875
0.0612331
0.0624579
0.0634961
0.064469
0.0651736
0.0658456
0.0663269
0.0668611
0.0676933
0.0685333
0.0695789
0.0710231
0.0727875
0.0746189
0.0763044
0.0779777
0.0795254
0.0809231
0.0822964
0.0834136
0.0844617
0.0858865
0.088626
0.095456
0.111795
0.135881
0.155782
0.163268
0.165184
0.166545
0.167866
0.169249
0.169733
0.170302
0.177623
0.244183
0.419541
0.65465
0.839814
0.891216
0.0419414
0.0420328
0.0421355
0.0422478
0.0423708
0.0424894
0.0426042
0.042733
0.0428748
0.0430242
0.0431802
0.0433298
0.0434725
0.0436291
0.0438049
0.043986
0.0441515
0.0443119
0.0444879
0.0446735
0.0448527
0.0450289
0.0452065
0.0453834
0.0455687
0.0457704
0.0459996
0.0462555
0.0465386
0.0468362
0.047163
0.0475193
0.0479012
0.0482915
0.0487016
0.0491307
0.049585
0.0500674
0.0505642
0.0510953
0.0516773
0.052325
0.0530521
0.0538348
0.0546842
0.0555412
0.0564416
0.0573568
0.0582981
0.0592702
0.0603081
0.0613198
0.062353
0.0633868
0.0643443
0.0652947
0.0661268
0.0668668
0.0675685
0.0682218
0.0688801
0.0694522
0.0700284
0.070747
0.0713498
0.0720167
0.072977
0.0741376
0.0755008
0.0770956
0.0787474
0.0803521
0.0819001
0.0833748
0.0845816
0.0856451
0.086672
0.0875644
0.0883825
0.089241
0.0900573
0.0910673
0.0928977
0.0972834
0.108453
0.131956
0.1566
0.167378
0.170386
0.172256
0.174416
0.175983
0.177297
0.179729
0.181026
0.181179
0.181526
0.225877
0.381537
0.732043
0.0513416
0.051462
0.0515867
0.0517178
0.0518525
0.0520089
0.052175
0.0523279
0.0524878
0.0526562
0.0528227
0.0529993
0.0531943
0.0533913
0.053588
0.0537952
0.0540212
0.054262
0.054516
0.0547836
0.0550657
0.0553697
0.0556895
0.0560339
0.0563965
0.0567804
0.0571777
0.0575833
0.0579926
0.0584103
0.0588311
0.059253
0.0596748
0.0601163
0.0605686
0.0610403
0.0615395
0.0620696
0.0626376
0.063254
0.0639095
0.0645714
0.0652273
0.0658677
0.0664595
0.0670482
0.0676231
0.0682116
0.0688214
0.0694392
0.0700557
0.0706655
0.0712755
0.0718577
0.0724342
0.0730372
0.0736052
0.0742107
0.0748599
0.0755704
0.0763512
0.0772896
0.0783132
0.0794035
0.0806585
0.0819761
0.083266
0.0845491
0.0857689
0.0868618
0.0879075
0.0888361
0.0896013
0.0903021
0.0909092
0.0914268
0.091956
0.0924899
0.0930332
0.0935627
0.0940796
0.0946819
0.095693
0.0982776
0.10581
0.123889
0.150906
0.168103
0.17364
0.176236
0.178747
0.181124
0.183031
0.185262
0.187823
0.189557
0.189942
0.190409
0.192095
0.345167
0.0638145
0.0639474
0.0640967
0.0642474
0.0643957
0.0645355
0.0646819
0.0648632
0.0650549
0.0652346
0.0654182
0.0656125
0.0658135
0.066027
0.066256
0.0664924
0.0667286
0.0669723
0.0672277
0.0674905
0.0677602
0.0680322
0.0683112
0.068595
0.0688863
0.0691808
0.0694768
0.0697777
0.0700908
0.0704185
0.0707656
0.0711326
0.0715204
0.0719317
0.072366
0.0728161
0.0732803
0.0737491
0.0742117
0.0746505
0.0750645
0.0754713
0.0758919
0.076345
0.0768421
0.0773774
0.0779582
0.0785683
0.0791645
0.0797395
0.0802937
0.0808718
0.0814884
0.0821794
0.0829236
0.0837008
0.0845008
0.0853006
0.086116
0.0869291
0.0877223
0.0884629
0.0891965
0.0899375
0.0906287
0.0912669
0.0918515
0.0923703
0.0928041
0.0931505
0.0934886
0.093858
0.0942011
0.0945065
0.0947979
0.0950943
0.0954128
0.0957118
0.0959796
0.0962334
0.0964658
0.0967462
0.0972941
0.0988952
0.103857
0.116383
0.138622
0.162371
0.174167
0.178169
0.180946
0.18374
0.186115
0.188261
0.191012
0.193904
0.196002
0.19729
0.198234
0.203513
0.0788499
0.0789447
0.0790426
0.0791443
0.0792595
0.0794027
0.0795455
0.0796683
0.0797907
0.0799351
0.0800949
0.0802533
0.0804076
0.080563
0.0807251
0.0808969
0.0810757
0.0812556
0.0814363
0.0816226
0.0818159
0.0820169
0.082224
0.0824383
0.0826592
0.0828837
0.0831107
0.0833416
0.0835777
0.0838207
0.0840746
0.0843386
0.0846102
0.0848904
0.0851757
0.0854681
0.085769
0.0860764
0.0863888
0.086701
0.0870115
0.0873233
0.0876502
0.0879935
0.0883484
0.0887086
0.0890722
0.0894351
0.0898093
0.0901825
0.0905497
0.0909049
0.0912446
0.0915664
0.0918957
0.0922611
0.0926764
0.0931311
0.0935644
0.0938924
0.0941202
0.0943154
0.0945355
0.0947887
0.095065
0.0953327
0.0955889
0.0958163
0.0959884
0.0961254
0.0962695
0.0964572
0.096666
0.096851
0.0969863
0.0971015
0.0972165
0.0973091
0.0973609
0.0973934
0.097439
0.0975433
0.0978735
0.0989885
0.102172
0.110311
0.126016
0.147712
0.167264
0.177376
0.18139
0.184183
0.187039
0.189273
0.192045
0.195843
0.199905
0.201819
0.20342
0.206946
0.0907093
0.0907518
0.090803
0.0908618
0.0909272
0.0909896
0.0910481
0.0911112
0.0911792
0.0912485
0.0913179
0.0913876
0.0914591
0.0915346
0.0916131
0.0916939
0.0917776
0.0918654
0.091957
0.0920503
0.0921431
0.0922339
0.092321
0.0924071
0.092493
0.0925784
0.0926628
0.0927452
0.0928248
0.0929062
0.0930009
0.0931063
0.0932134
0.0933239
0.0934392
0.093556
0.0936737
0.0938001
0.0939376
0.0940717
0.0941868
0.0942892
0.0943956
0.0945143
0.0946534
0.0948318
0.0950467
0.0952507
0.0954208
0.0955761
0.0957165
0.0958194
0.0958894
0.0959617
0.0960779
0.0962739
0.0965312
0.0968043
0.0970258
0.0971423
0.0971933
0.0972338
0.0972896
0.09737
0.0974646
0.0975471
0.0976096
0.0976656
0.0977163
0.0977352
0.0977302
0.0977343
0.0977589
0.0977864
0.0977843
0.0977785
0.0977716
0.0977517
0.0977055
0.0976641
0.09767
0.0977372
0.0979949
0.0989709
0.101503
0.107169
0.117881
0.134023
0.152537
0.167591
0.177263
0.183238
0.187293
0.190516
0.19339
0.19732
0.202871
0.20635
0.2072
0.210854
0.0964057
0.0964121
0.09642
0.0964283
0.0964422
0.0964581
0.0964686
0.0964869
0.0965105
0.0965226
0.0965353
0.0965504
0.0965667
0.0965841
0.0966003
0.0966147
0.0966316
0.0966564
0.0966861
0.0967173
0.0967528
0.0967903
0.0968242
0.0968536
0.0968794
0.0969079
0.0969513
0.0969864
0.0969894
0.0969873
0.0969991
0.0970105
0.0970066
0.0970103
0.0970255
0.0970301
0.097019
0.0970229
0.0970673
0.0971652
0.0972293
0.0972617
0.0972978
0.0973531
0.0974265
0.0975416
0.0977131
0.097791
0.097821
0.0978826
0.0979486
0.0979607
0.0979402
0.0979207
0.0979348
0.0980105
0.0981293
0.0981514
0.0981291
0.0981253
0.098137
0.0981307
0.0981079
0.0980744
0.0980202
0.0979729
0.0979398
0.0979197
0.0979111
0.0979001
0.0978622
0.0978462
0.0978384
0.0978285
0.0977993
0.0977879
0.0977786
0.0977518
0.0977442
0.0977549
0.0978073
0.0980281
0.0984558
0.0993946
0.101539
0.106335
0.114894
0.127202
0.142452
0.156984
0.168358
0.177345
0.185058
0.191436
0.196372
0.200082
0.205039
0.210383
0.211505
0.214473
0.0976101
0.0975706
0.0975488
0.0975506
0.0975636
0.0975675
0.0975636
0.0975591
0.0975639
0.0975984
0.0976558
0.0976709
0.0976626
0.0976619
0.0976818
0.0976853
0.0976862
0.0977094
0.0977435
0.0977848
0.0978586
0.0979516
0.0980306
0.0981041
0.098172
0.0982283
0.0983016
0.0983654
0.0983772
0.0983834
0.0983835
0.0983538
0.0983029
0.0982988
0.0982999
0.0982643
0.0981695
0.0981314
0.0981541
0.0982756
0.0983459
0.0983216
0.0982993
0.0983329
0.0984079
0.0984156
0.0984055
0.0984135
0.0984412
0.0984565
0.0984567
0.0984424
0.0984352
0.0984549
0.0984542
0.0984426
0.0983958
0.098261
0.0981
0.0980255
0.0980321
0.0980751
0.0980844
0.0980584
0.0980069
0.0979317
0.0979061
0.097894
0.0978925
0.0978882
0.0978629
0.0978661
0.097878
0.0979217
0.0980276
0.0982475
0.0985548
0.0989458
0.0995211
0.100106
0.100704
0.101375
0.102097
0.102949
0.10424
0.107327
0.114448
0.125402
0.138877
0.152024
0.162948
0.172419
0.181124
0.189579
0.196736