/*--------------------------------*- C++ -*----------------------------------*\
  =========                 |
  \\      /  F ield         | OpenFOAM: The Open Source CFD Toolbox
   \\    /   O peration     | Website:  https://openfoam.org
    \\  /    A nd           | Version:  7
     \\/     M anipulation  |
\*---------------------------------------------------------------------------*/
FoamFile
{
    version     2.0;
    format      ascii;
    class       volScalarField;
    location    "3";
    object      rho;
}
// * * * * * * * * * * * * * * * * * * * * * * * * * * * * * * * * * * * * * //

dimensions      [1 -3 0 0 0 0 0];

internalField   nonuniform List<scalar> 
60000
(
0.108692
0.144987
0.177298
0.201534
0.230426
0.267422
0.3006
0.334025
0.37127
0.411546
0.449809
0.482567
0.508728
0.533698
0.551466
0.562411
0.562563
0.560225
0.553076
0.550785
0.546754
0.542298
0.54287
0.54612
0.553089
0.564688
0.577226
0.59247
0.606683
0.61931
0.628984
0.635681
0.640915
0.645638
0.651526
0.659129
0.668266
0.677163
0.686339
0.694395
0.700798
0.70768
0.714862
0.720939
0.725702
0.730541
0.736552
0.744276
0.75051
0.755506
0.759798
0.759922
0.758142
0.758668
0.760689
0.765516
0.772042
0.780821
0.787555
0.79347
0.794601
0.79255
0.793317
0.797646
0.805921
0.812852
0.818632
0.820573
0.820647
0.822094
0.825806
0.82781
0.82716
0.828134
0.830795
0.820602
0.815102
0.85137
1.02078
1.09637
1.09202
1.03169
0.947785
0.881932
0.858097
0.850602
0.846733
0.843998
0.841027
0.845901
0.851668
0.850039
0.843462
0.835308
0.833723
0.842934
0.84892
0.848243
0.859815
0.767156
0.0764051
0.0764373
0.076483
0.07653
0.0765955
0.0766464
0.0775293
0.0809979
0.0881075
0.0998367
0.116683
0.141871
0.175165
0.218054
0.267626
0.321382
0.37294
0.416195
0.454409
0.482311
0.497698
0.499794
0.499416
0.493744
0.489127
0.483527
0.479522
0.479087
0.481817
0.488061
0.494462
0.50401
0.516759
0.533412
0.549167
0.562946
0.575049
0.58551
0.594919
0.602958
0.609843
0.616755
0.622951
0.627922
0.632975
0.640261
0.650421
0.660147
0.66833
0.675186
0.679859
0.684229
0.689652
0.697339
0.707257
0.718122
0.728253
0.735841
0.737223
0.738575
0.743686
0.751422
0.761192
0.771118
0.777425
0.779267
0.781022
0.785945
0.794064
0.801495
0.808362
0.80809
0.807063
0.809894
0.814076
0.808905
0.805066
0.847469
1.0097
1.07226
1.06541
1.01282
0.942029
0.882901
0.860353
0.850105
0.844966
0.842457
0.839689
0.845876
0.851905
0.850626
0.843358
0.833972
0.831382
0.838877
0.844397
0.841656
0.858422
0.774796
0.0767571
0.076825
0.0769076
0.0769902
0.0770943
0.0772038
0.0773264
0.0774074
0.0774943
0.0775713
0.0776715
0.0777798
0.0779519
0.0780679
0.0807445
0.0886802
0.106146
0.132925
0.172765
0.223798
0.281318
0.328578
0.377167
0.411126
0.436846
0.455721
0.46759
0.465113
0.460727
0.455142
0.446024
0.443872
0.441328
0.443486
0.44547
0.452248
0.463214
0.478095
0.493468
0.505061
0.513957
0.519457
0.522222
0.524652
0.529545
0.536568
0.544587
0.553543
0.563078
0.572793
0.583578
0.594085
0.603358
0.611315
0.619599
0.628723
0.638359
0.647154
0.655734
0.665712
0.677739
0.689254
0.698985
0.703641
0.708414
0.714781
0.723484
0.734463
0.745975
0.750999
0.749881
0.75005
0.754029
0.763696
0.769384
0.763939
0.756576
0.800413
0.966644
1.03265
1.03159
0.990683
0.930763
0.881355
0.861852
0.851344
0.844419
0.840518
0.838089
0.844946
0.851714
0.850321
0.842164
0.833
0.830168
0.835767
0.839858
0.835233
0.855244
0.782316
0.077209
0.0773108
0.0774153
0.0775293
0.0776423
0.0777626
0.0778898
0.0780329
0.0781811
0.078347
0.0785137
0.0786736
0.0788552
0.079037
0.079209
0.0793607
0.0795074
0.0796534
0.0798488
0.0800109
0.0846455
0.0982752
0.121797
0.160896
0.20678
0.26661
0.324313
0.372071
0.407131
0.431958
0.449744
0.44873
0.441439
0.433782
0.421196
0.418091
0.415621
0.414612
0.416506
0.421187
0.432523
0.446524
0.457882
0.466879
0.472975
0.475961
0.475238
0.473958
0.476363
0.482576
0.49256
0.50352
0.511604
0.517488
0.523459
0.532524
0.544191
0.556665
0.568353
0.57537
0.581087
0.587851
0.59517
0.604538
0.614543
0.625197
0.632993
0.639435
0.645597
0.653225
0.65948
0.663444
0.668833
0.672986
0.673334
0.669331
0.671282
0.724525
0.894767
0.977424
0.993368
0.965889
0.916584
0.877696
0.86133
0.851112
0.844181
0.839035
0.836342
0.843081
0.850316
0.849362
0.841903
0.833975
0.830435
0.833761
0.835375
0.828637
0.849127
0.788476
0.0779319
0.0780318
0.0781344
0.0782448
0.0783652
0.0784863
0.0786131
0.0787533
0.0788979
0.0790615
0.0792314
0.0794273
0.0796068
0.0797992
0.0800286
0.0802602
0.0805085
0.0807829
0.0810841
0.081432
0.0815973
0.0817879
0.0819827
0.0822813
0.0825062
0.0859725
0.099233
0.127851
0.170037
0.227403
0.292942
0.348969
0.382962
0.409299
0.420838
0.423552
0.419229
0.412404
0.406797
0.405542
0.408842
0.41323
0.418846
0.428182
0.436307
0.4411
0.441053
0.44233
0.443444
0.445039
0.446674
0.450779
0.457708
0.464556
0.46996
0.470901
0.473669
0.480409
0.491477
0.501728
0.506711
0.512088
0.521347
0.531627
0.540265
0.544428
0.548106
0.554126
0.563016
0.571902
0.576272
0.578249
0.584786
0.589429
0.589607
0.588656
0.595281
0.649844
0.814702
0.917306
0.956233
0.939051
0.90285
0.873647
0.858995
0.849902
0.843138
0.837272
0.834712
0.841162
0.848733
0.849015
0.842669
0.836104
0.83175
0.831973
0.830656
0.821694
0.840632
0.792896
0.0786144
0.0787221
0.0788459
0.0789741
0.0791155
0.079268
0.0794292
0.0796018
0.0797836
0.0799663
0.0801652
0.0803805
0.0806263
0.080868
0.0811177
0.0813747
0.081651
0.0819303
0.0822371
0.0825224
0.0828273
0.0831122
0.0833917
0.0836821
0.0839904
0.0841789
0.0844045
0.0846019
0.0848212
0.0849491
0.0917657
0.113389
0.152419
0.203963
0.270508
0.318356
0.360638
0.382159
0.397485
0.406437
0.410622
0.410431
0.416363
0.418422
0.41946
0.42211
0.424024
0.428604
0.431388
0.431097
0.430049
0.428985
0.431597
0.437259
0.444268
0.448448
0.449458
0.451482
0.455467
0.462026
0.46761
0.46893
0.472062
0.479457
0.48798
0.492431
0.492736
0.494515
0.499307
0.507157
0.512268
0.515805
0.524066
0.52799
0.532911
0.544041
0.553775
0.602695
0.756264
0.869018
0.917506
0.911407
0.88927
0.868348
0.855377
0.847306
0.840914
0.834513
0.832528
0.838779
0.847461
0.849125
0.842924
0.837526
0.83308
0.829937
0.825958
0.815322
0.831488
0.796326
0.0796879
0.0798365
0.0800001
0.0801773
0.0803584
0.0805438
0.0807392
0.0809495
0.0811577
0.0813742
0.0815779
0.0817917
0.082014
0.0822481
0.0824763
0.0827096
0.0829437
0.0831879
0.0834321
0.0836827
0.0839343
0.0841453
0.0843435
0.0845273
0.0847297
0.0849538
0.0851806
0.085374
0.085564
0.0857519
0.0858796
0.0859846
0.0861173
0.0862101
0.0903174
0.105568
0.13806
0.1843
0.241221
0.292974
0.336868
0.363971
0.385727
0.399941
0.408166
0.419606
0.4247
0.434242
0.433812
0.431925
0.4282
0.428628
0.428896
0.428821
0.430914
0.434878
0.43881
0.442247
0.443516
0.445517
0.450616
0.456022
0.459785
0.461329
0.463693
0.466907
0.468879
0.467433
0.468422
0.472355
0.478057
0.484829
0.492826
0.50116
0.515196
0.539245
0.557815
0.59842
0.72306
0.834691
0.880547
0.884227
0.871516
0.860967
0.850831
0.84436
0.838265
0.831314
0.830105
0.836011
0.845824
0.849318
0.843425
0.837221
0.834238
0.826858
0.822266
0.810639
0.822691
0.799591
0.0812331
0.0813981
0.0815713
0.0817412
0.0819008
0.0820467
0.0822025
0.0823647
0.0825394
0.0827137
0.0828832
0.0830501
0.0832202
0.0834005
0.0835778
0.0837501
0.0839254
0.0841213
0.0843188
0.0845175
0.0847092
0.0848907
0.0850382
0.085202
0.085356
0.0855123
0.0856891
0.0858849
0.0860567
0.0862147
0.0863731
0.0865531
0.0867398
0.0869106
0.0869922
0.0871094
0.0872256
0.0873557
0.0874385
0.0962091
0.118566
0.15893
0.2082
0.269309
0.317851
0.363213
0.393197
0.414594
0.426066
0.433481
0.43188
0.433259
0.432932
0.430101
0.429984
0.433392
0.437695
0.441719
0.441994
0.443345
0.446038
0.450145
0.455141
0.456332
0.45529
0.454257
0.456159
0.45847
0.461081
0.463978
0.466514
0.47189
0.481083
0.491286
0.511712
0.553297
0.579371
0.613448
0.710727
0.801594
0.846742
0.854164
0.847646
0.849084
0.844377
0.840785
0.835888
0.829073
0.828078
0.833241
0.844035
0.850572
0.844686
0.839427
0.838619
0.832559
0.820884
0.807722
0.814503
0.800711
0.0827022
0.0828171
0.0829361
0.0830551
0.0831777
0.0832942
0.0834111
0.083531
0.0836598
0.0837991
0.0839451
0.0840857
0.084223
0.0843678
0.0845189
0.0846689
0.0848212
0.0849714
0.0851337
0.0852938
0.0854584
0.0856078
0.0857547
0.0859025
0.0860409
0.0861747
0.0863308
0.0865006
0.0866718
0.0868317
0.0869813
0.087147
0.0872962
0.0874134
0.087528
0.0876545
0.0877606
0.0878487
0.0879469
0.088047
0.0881859
0.0884141
0.0885971
0.0915829
0.106635
0.137737
0.189676
0.253497
0.320173
0.372507
0.405841
0.42054
0.43266
0.431644
0.431677
0.435194
0.437325
0.440889
0.442516
0.445666
0.448802
0.451799
0.456148
0.456061
0.454318
0.452565
0.453046
0.454273
0.457778
0.462094
0.463508
0.469131
0.477545
0.486485
0.519283
0.574028
0.605291
0.6373
0.710219
0.771508
0.809647
0.816661
0.821834
0.836443
0.837928
0.837399
0.833556
0.827802
0.82702
0.831746
0.842439
0.851689
0.848218
0.842964
0.845842
0.838552
0.823757
0.806615
0.806512
0.798151
0.0837918
0.0838865
0.0839849
0.0840858
0.0841949
0.0843066
0.0844163
0.0845302
0.0846525
0.0847835
0.0849109
0.085039
0.0851626
0.0852835
0.0854124
0.0855538
0.0856951
0.0858253
0.0859462
0.0860728
0.0862024
0.0863309
0.0864594
0.0865974
0.0867267
0.0868427
0.0869662
0.0871128
0.0872689
0.0874042
0.0875392
0.0876656
0.0877763
0.0878645
0.0879374
0.0880148
0.0880992
0.0881803
0.0882842
0.0884157
0.0886005
0.0888674
0.0891971
0.0894234
0.0895894
0.089682
0.0897502
0.0897857
0.103057
0.136603
0.196565
0.267068
0.338972
0.383514
0.408447
0.42943
0.434603
0.441942
0.445419
0.451486
0.454843
0.454572
0.455952
0.455656
0.453047
0.45214
0.453157
0.455646
0.459142
0.46185
0.465571
0.47289
0.477323
0.488056
0.527351
0.586583
0.624775
0.65898
0.701575
0.739369
0.765994
0.77641
0.800625
0.823868
0.832324
0.833761
0.832702
0.828217
0.828886
0.832502
0.841851
0.852151
0.852489
0.849441
0.855803
0.847786
0.829078
0.809214
0.801272
0.795774
0.0849743
0.0850596
0.0851609
0.0852633
0.0853679
0.0854757
0.0855773
0.0856754
0.0857918
0.0859208
0.0860372
0.0861416
0.0862413
0.0863352
0.0864246
0.0865219
0.0866272
0.0867231
0.0868144
0.0869009
0.0869883
0.0870727
0.0871595
0.0872575
0.0873598
0.0874545
0.0875551
0.0876711
0.0877938
0.0879186
0.0880272
0.0881232
0.0882195
0.0882944
0.0883566
0.0884357
0.0885348
0.0886453
0.0887442
0.0888668
0.0890563
0.0893123
0.0896191
0.0899174
0.0901033
0.0902047
0.090287
0.0903629
0.0903157
0.0901671
0.0900898
0.0920709
0.109154
0.154313
0.215256
0.294706
0.353354
0.402728
0.437987
0.452314
0.459045
0.45897
0.458956
0.45553
0.451816
0.45262
0.455116
0.459539
0.46308
0.465559
0.470254
0.47646
0.479845
0.49192
0.530375
0.586335
0.624845
0.652082
0.679967
0.702787
0.716925
0.739017
0.780549
0.81322
0.82956
0.832863
0.832545
0.831216
0.83285
0.835996
0.84301
0.852482
0.855725
0.858442
0.868595
0.861871
0.837858
0.817562
0.800375
0.795034
0.0861886
0.0862587
0.086342
0.0864295
0.0865152
0.08661
0.0867006
0.0867763
0.086862
0.0869626
0.0870438
0.0871031
0.0871614
0.0872166
0.0872612
0.0873048
0.0873559
0.0874111
0.0874594
0.0875073
0.0875539
0.0876008
0.0876532
0.0877153
0.0877907
0.0878807
0.0879774
0.088083
0.0882143
0.0883465
0.0884614
0.0885773
0.0886917
0.0887856
0.0888711
0.0889751
0.0891031
0.0892191
0.0893229
0.0894431
0.089596
0.0898289
0.0901048
0.0903517
0.0904983
0.0905638
0.0906327
0.0906904
0.0906474
0.0904151
0.0902381
0.0903063
0.0905441
0.0911931
0.0918875
0.0984365
0.126826
0.177032
0.265029
0.340662
0.409208
0.446256
0.454713
0.454053
0.455224
0.456304
0.458696
0.463765
0.467031
0.469211
0.476205
0.480962
0.483619
0.496506
0.527231
0.570489
0.602232
0.626392
0.642133
0.647649
0.656428
0.703194
0.763332
0.807378
0.827232
0.832404
0.83431
0.835601
0.837603
0.840835
0.845863
0.852595
0.85713
0.867805
0.883067
0.879952
0.854797
0.829151
0.805435
0.794282
0.0873142
0.0873493
0.0873866
0.0874225
0.0874644
0.0875252
0.0875887
0.0876407
0.0877008
0.0877725
0.0878182
0.0878473
0.0878774
0.0879031
0.087921
0.087938
0.0879618
0.087985
0.0880039
0.0880215
0.0880444
0.0880771
0.0881173
0.0881665
0.0882368
0.0883417
0.0884556
0.0885766
0.0887283
0.0888957
0.0890544
0.0892149
0.0893688
0.0895014
0.0896186
0.089739
0.0898705
0.0899747
0.0900502
0.0901139
0.0902185
0.0903748
0.0905633
0.0907379
0.0908584
0.0909216
0.0909949
0.0910804
0.0910556
0.0910164
0.0911853
0.0916013
0.092412
0.0936172
0.0948381
0.0952639
0.0956311
0.0960676
0.0962186
0.112368
0.160518
0.247425
0.339352
0.407397
0.454038
0.459597
0.464468
0.470251
0.475794
0.47731
0.484069
0.4868
0.492495
0.502783
0.523938
0.551891
0.573578
0.591089
0.604609
0.606093
0.624165
0.680489
0.750166
0.801242
0.826458
0.833132
0.835868
0.839543
0.84332
0.846511
0.8496
0.852818
0.858211
0.875275
0.899067
0.900054
0.878153
0.846414
0.818562
0.797411
0.087848
0.0878787
0.0879119
0.087946
0.0879808
0.0880234
0.0880763
0.0881411
0.0882135
0.0882664
0.0882992
0.0883333
0.0883681
0.088393
0.0884096
0.0884254
0.0884439
0.0884613
0.0884783
0.088498
0.0885261
0.0885729
0.0886335
0.088699
0.0887915
0.0889333
0.0890953
0.0892563
0.0894584
0.0896788
0.0898826
0.0900663
0.0902394
0.0903844
0.0904979
0.0905991
0.0906884
0.0907114
0.0907214
0.0907376
0.0907797
0.0908358
0.0909003
0.0910103
0.0911873
0.0913768
0.0915512
0.091789
0.0921233
0.0926743
0.0933957
0.0941743
0.095028
0.0959006
0.0964826
0.0969052
0.0972629
0.097456
0.0972582
0.0966732
0.0963195
0.0963495
0.11135
0.163942
0.261986
0.361124
0.42324
0.458642
0.488403
0.493577
0.498803
0.500084
0.512435
0.51862
0.526476
0.547105
0.563357
0.57546
0.58308
0.583296
0.59983
0.654034
0.736779
0.80454
0.834863
0.842035
0.845718
0.849976
0.854581
0.856759
0.857076
0.857186
0.86221
0.881682
0.914244
0.922206
0.904958
0.871653
0.838784
0.806617
0.0884222
0.0884491
0.0884728
0.0884968
0.0885219
0.0885521
0.0886006
0.088673
0.0887485
0.0888055
0.0888465
0.0888861
0.0889252
0.088959
0.0889917
0.0890267
0.0890617
0.0890981
0.0891435
0.0891986
0.0892672
0.0893662
0.0894772
0.089585
0.0897136
0.089884
0.0900693
0.0902518
0.0904663
0.0907073
0.0909172
0.0910755
0.0912134
0.0913337
0.0913927
0.091437
0.0914712
0.0914476
0.0914061
0.0914163
0.0914138
0.0913753
0.0913966
0.0915633
0.0919473
0.0923939
0.0929094
0.0935131
0.0941951
0.0950168
0.0957589
0.096335
0.0968859
0.097339
0.0976167
0.0978838
0.0981429
0.0981525
0.0976538
0.0965836
0.0963875
0.0970222
0.09895
0.101817
0.103701
0.12819
0.187882
0.283113
0.38868
0.455716
0.478819
0.516831
0.550267
0.54872
0.541878
0.556131
0.570657
0.578145
0.580692
0.581228
0.59411
0.638271
0.727158
0.816335
0.861048
0.871041
0.874001
0.875593
0.877799
0.878243
0.875561
0.872466
0.87498
0.891735
0.92804
0.944123
0.932669
0.904264
0.865914
0.821449
0.0890219
0.0890518
0.0890798
0.089102
0.0891222
0.0891491
0.0891933
0.0892708
0.089391
0.0895141
0.0895958
0.0896575
0.0897151
0.0897693
0.0898376
0.0899283
0.090017
0.0901058
0.0902113
0.0903317
0.0904595
0.0905918
0.0907176
0.0908343
0.0909613
0.0911032
0.0912476
0.0913881
0.0915483
0.0917478
0.0919015
0.0919998
0.0920959
0.0921541
0.0921618
0.0921732
0.092214
0.0922086
0.0921769
0.0921985
0.09225
0.0923473
0.0925211
0.0929069
0.093541
0.0943081
0.0951212
0.0958562
0.0965976
0.0973402
0.0978674
0.0982224
0.0984909
0.0985889
0.0986567
0.09883
0.099104
0.0990075
0.0982343
0.0983811
0.0995017
0.10206
0.105466
0.109054
0.112495
0.114099
0.116299
0.118329
0.138954
0.201629
0.292867
0.398904
0.491281
0.523631
0.548643
0.584188
0.604458
0.615387
0.609009
0.597323
0.600855
0.638066
0.724914
0.818321
0.886642
0.905529
0.912738
0.916022
0.915331
0.911863
0.905546
0.899928
0.900275
0.911083
0.944006
0.966511
0.961479
0.940504
0.902134
0.845267
0.0899231
0.0899867
0.0900521
0.0901186
0.0901856
0.0902601
0.0903533
0.0904637
0.0905966
0.090738
0.0908584
0.0909731
0.0910833
0.0911747
0.0912752
0.0913887
0.0914932
0.0915923
0.0917
0.0918276
0.0919415
0.0920316
0.0921092
0.0921775
0.0922401
0.0923187
0.0924213
0.0925053
0.0925974
0.0927063
0.0927963
0.0928585
0.0929388
0.0929994
0.0930558
0.0931304
0.0932506
0.0934211
0.0935876
0.0937676
0.0940369
0.0944209
0.0949234
0.0955139
0.0962342
0.0970763
0.0978218
0.0985146
0.0992349
0.0997226
0.0999183
0.10009
0.100179
0.100012
0.0997965
0.0997716
0.100114
0.100831
0.102183
0.104612
0.107848
0.111185
0.113968
0.116451
0.119352
0.122273
0.12421
0.126764
0.127519
0.127681
0.128079
0.142182
0.198435
0.309493
0.426966
0.515189
0.577153
0.630632
0.639059
0.628915
0.630115
0.657289
0.733589
0.82898
0.937054
0.964685
0.966968
0.96333
0.957464
0.953249
0.945307
0.941206
0.938747
0.942082
0.964446
0.98832
0.990927
0.97731
0.944
0.879044
0.0918747
0.0919664
0.092058
0.0921467
0.0922299
0.0923108
0.0923905
0.0924747
0.092569
0.0926623
0.092743
0.092814
0.0928815
0.0929414
0.0929847
0.0930233
0.0930598
0.0930929
0.0931381
0.0931957
0.0932472
0.0933177
0.0933756
0.0933636
0.0933527
0.0933735
0.0934666
0.0934864
0.0935049
0.0935652
0.0936791
0.0938449
0.0940659
0.0943339
0.0946868
0.0950915
0.0955014
0.095912
0.096328
0.0968109
0.097305
0.0978788
0.0984571
0.0989333
0.0994447
0.0999471
0.100387
0.100838
0.101496
0.101641
0.101607
0.101687
0.101759
0.10144
0.101366
0.10175
0.103373
0.106586
0.110433
0.114254
0.117515
0.120411
0.123007
0.1251
0.127405
0.12967
0.130168
0.130727
0.131874
0.132896
0.134841
0.13707
0.14114
0.14414
0.163545
0.213624
0.313177
0.454108
0.575914
0.628728
0.628273
0.658953
0.742053
0.863437
1.01592
1.05661
1.04091
1.02737
1.00827
0.991634
0.985901
0.988051
0.985621
0.984948
0.996369
1.01259
1.0206
1.01307
0.985737
0.919429
0.0941698
0.0941683
0.0941655
0.0941587
0.0941467
0.0941419
0.094142
0.0941429
0.0941501
0.094155
0.0941458
0.0941417
0.094146
0.0941595
0.0941751
0.0941765
0.0941617
0.0941661
0.0941908
0.0942375
0.0943091
0.094414
0.0945002
0.0945013
0.0944987
0.0945403
0.0946701
0.0948418
0.0950056
0.0952334
0.0955742
0.0960976
0.0966926
0.0973189
0.0979799
0.0986288
0.0992313
0.0997243
0.100186
0.100692
0.10118
0.101645
0.101982
0.102225
0.102369
0.102424
0.102512
0.102727
0.103295
0.103584
0.103678
0.104004
0.104835
0.10639
0.108675
0.11153
0.114985
0.118589
0.121795
0.124474
0.126584
0.128598
0.130896
0.132472
0.133596
0.13526
0.135471
0.135735
0.136905
0.139834
0.143932
0.148782
0.153507
0.159026
0.162671
0.16355
0.164737
0.173046
0.228713
0.345544
0.472714
0.560643
0.648334
0.776634
0.918445
1.00088
1.04532
1.07992
1.06693
1.04178
1.04134
1.03784
1.0274
1.02279
1.03118
1.04094
1.05212
1.04867
1.02419
0.962491
0.0942663
0.0942746
0.0943032
0.0943137
0.0943215
0.0943333
0.0943613
0.0944204
0.0945023
0.09458
0.094651
0.0947367
0.0948275
0.0949328
0.0950867
0.0952933
0.0955116
0.0957386
0.0959829
0.0962265
0.0964887
0.0968152
0.0971829
0.0975177
0.0977737
0.0980376
0.0984826
0.0989195
0.0993115
0.0997816
0.100308
0.100831
0.101322
0.101766
0.102145
0.102521
0.102874
0.103221
0.103576
0.103939
0.104387
0.104666
0.104801
0.105061
0.105172
0.104997
0.105036
0.105422
0.106398
0.108024
0.110171
0.112838
0.115967
0.11934
0.122662
0.125637
0.128329
0.13055
0.132207
0.133626
0.134805
0.135837
0.137341
0.138383
0.138692
0.139456
0.140962
0.143185
0.146637
0.151252
0.156503
0.161694
0.16539
0.169598
0.17118
0.172715
0.175028
0.178425
0.180989
0.18317
0.198178
0.240312
0.278952
0.334217
0.416406
0.554258
0.745047
0.936973
1.01956
1.06689
1.09491
1.09321
1.0823
1.06986
1.07097
1.06675
1.07776
1.08117
1.05995
1.00381
0.0966784
0.0969067
0.0971423
0.0974144
0.0976703
0.0978917
0.0981716
0.0985238
0.0988603
0.0991252
0.0993677
0.0996418
0.099942
0.100237
0.100553
0.100881
0.101189
0.101464
0.101727
0.101988
0.102272
0.10264
0.102981
0.103235
0.103425
0.103677
0.103988
0.104241
0.104466
0.104664
0.104865
0.10504
0.105191
0.105373
0.10553
0.105677
0.1059
0.106287
0.106814
0.107514
0.108178
0.108752
0.109444
0.110594
0.112128
0.113849
0.115801
0.118132
0.120766
0.123609
0.126465
0.129178
0.131398
0.133261
0.13494
0.136403
0.13786
0.13899
0.139731
0.140467
0.141168
0.141653
0.142613
0.143841
0.145046
0.147278
0.151347
0.156865
0.162586
0.167395
0.171572
0.175258
0.177639
0.179027
0.181261
0.183549
0.186025
0.189131
0.192928
0.197151
0.201869
0.206056
0.217486
0.244064
0.287394
0.31893
0.339302
0.412297
0.599375
0.834254
1.00694
1.06076
1.11193
1.11565
1.11853
1.11412
1.11299
1.11071
1.08696
1.04364
0.104252
0.10434
0.104427
0.104515
0.104607
0.104731
0.104876
0.105003
0.105143
0.105241
0.105358
0.105488
0.105638
0.105817
0.106013
0.106203
0.106384
0.10657
0.106789
0.107023
0.10725
0.107487
0.107818
0.10819
0.108549
0.108874
0.109152
0.109477
0.109889
0.11032
0.110765
0.111284
0.11184
0.112502
0.113352
0.114389
0.115623
0.117
0.11844
0.120023
0.121784
0.123698
0.125772
0.127869
0.130005
0.132098
0.134038
0.135691
0.137068
0.138366
0.139574
0.140674
0.141484
0.142194
0.142937
0.143671
0.144586
0.145336
0.145931
0.146877
0.148285
0.149945
0.152338
0.156064
0.161199
0.16651
0.171291
0.17565
0.178951
0.181944
0.184427
0.186354
0.187418
0.188826
0.191097
0.194419
0.198266
0.202622
0.206889
0.210668
0.21437
0.218923
0.227716
0.248469
0.285461
0.329328
0.351552
0.352194
0.352626
0.381644
0.49695
0.706539
0.927136
1.05252
1.11387
1.1457
1.15925
1.14972
1.12067
1.08551
0.110858
0.111034
0.111295
0.111586
0.111864
0.1121
0.112313
0.112548
0.112867
0.113251
0.113621
0.113974
0.114352
0.114761
0.115201
0.115639
0.116125
0.116684
0.117259
0.117868
0.118527
0.11923
0.119996
0.120838
0.121728
0.122657
0.123605
0.124651
0.12576
0.126843
0.127953
0.129135
0.130288
0.131401
0.132594
0.133752
0.134807
0.135808
0.136833
0.137906
0.13895
0.140083
0.141195
0.142206
0.143115
0.143888
0.14465
0.145416
0.146193
0.146968
0.147619
0.148333
0.148915
0.149681
0.150789
0.152095
0.153733
0.155925
0.158764
0.162154
0.166041
0.170462
0.175044
0.179302
0.182953
0.18627
0.188709
0.19073
0.192352
0.193722
0.195322
0.196918
0.1991
0.201936
0.205601
0.209857
0.213872
0.217762
0.221657
0.224638
0.227587
0.23146
0.238902
0.256413
0.291307
0.333291
0.360627
0.36839
0.372633
0.374239
0.374697
0.376299
0.422274
0.56844
0.788002
0.978119
1.11887
1.15499
1.15485
1.12693
0.129027
0.129278
0.129549
0.129847
0.130162
0.130463
0.130781
0.131128
0.131455
0.131794
0.132171
0.132554
0.132955
0.133389
0.133856
0.134336
0.134803
0.135271
0.135782
0.136312
0.136875
0.137476
0.138112
0.138768
0.139399
0.140004
0.140638
0.141257
0.141873
0.142513
0.14316
0.143794
0.144438
0.145109
0.145759
0.146407
0.147065
0.14772
0.148399
0.149104
0.149842
0.150629
0.151358
0.152147
0.152979
0.153939
0.155029
0.156198
0.157493
0.158975
0.160674
0.162763
0.165189
0.167937
0.170962
0.174233
0.177661
0.18101
0.184377
0.187479
0.190501
0.193212
0.195507
0.197646
0.199197
0.20068
0.201743
0.202924
0.204748
0.206587
0.208858
0.211958
0.215716
0.219588
0.223131
0.22662
0.229826
0.232709
0.235522
0.237801
0.239935
0.242813
0.248326
0.261873
0.292663
0.335246
0.36886
0.382072
0.385939
0.388618
0.390981
0.393473
0.394384
0.395302
0.404852
0.484848
0.68424
0.932237
1.11595
1.14372
0.145468
0.145694
0.145949
0.146226
0.146531
0.146824
0.147107
0.147425
0.147775
0.148143
0.148526
0.148893
0.149243
0.149626
0.150056
0.150497
0.1509
0.15129
0.151718
0.152167
0.1526
0.153025
0.153454
0.153883
0.154335
0.154828
0.15539
0.156017
0.15671
0.157436
0.158232
0.159095
0.160014
0.160949
0.161926
0.162942
0.164015
0.165147
0.166308
0.167543
0.168891
0.170388
0.172063
0.173863
0.175809
0.177766
0.17981
0.181877
0.183991
0.186165
0.188473
0.19071
0.192983
0.195248
0.197339
0.19941
0.201223
0.202833
0.204359
0.205779
0.20721
0.208454
0.209706
0.211261
0.21257
0.214021
0.216083
0.218559
0.221446
0.22479
0.228226
0.231547
0.234732
0.237743
0.240194
0.242342
0.244405
0.246196
0.247834
0.249546
0.251172
0.253176
0.2568
0.265437
0.286806
0.328808
0.370374
0.388871
0.394625
0.398185
0.402062
0.404704
0.406803
0.410563
0.413288
0.41329
0.413735
0.470306
0.661148
1.00308
0.16799
0.168269
0.168556
0.168858
0.169168
0.169528
0.16991
0.170261
0.170627
0.171013
0.171393
0.171797
0.172242
0.172692
0.173139
0.173611
0.174125
0.174672
0.17525
0.175857
0.176498
0.177187
0.177911
0.17869
0.179508
0.180374
0.181267
0.182177
0.183094
0.184029
0.184968
0.18591
0.18685
0.187833
0.18884
0.189888
0.190998
0.192174
0.193434
0.194799
0.196247
0.197705
0.199144
0.200542
0.20183
0.203108
0.204355
0.205631
0.206954
0.208292
0.209628
0.210947
0.212265
0.213521
0.21476
0.216055
0.217275
0.218571
0.21996
0.221479
0.223148
0.225139
0.227297
0.229579
0.232176
0.234886
0.23753
0.240148
0.242622
0.244825
0.246918
0.248769
0.250292
0.251684
0.252886
0.253907
0.25495
0.256002
0.257072
0.258113
0.259128
0.260308
0.262287
0.267338
0.281822
0.314962
0.36129
0.390122
0.400037
0.404832
0.409288
0.413286
0.41633
0.419831
0.42388
0.426684
0.427466
0.428312
0.430964
0.606769
0.196099
0.19639
0.196716
0.197046
0.197369
0.197674
0.197994
0.19839
0.198808
0.199199
0.199598
0.20002
0.200457
0.200921
0.201419
0.201931
0.202443
0.202971
0.203524
0.204093
0.204676
0.205264
0.205867
0.20648
0.20711
0.207747
0.208387
0.209039
0.209717
0.210428
0.211179
0.211974
0.212811
0.213697
0.21463
0.215594
0.216585
0.217584
0.218567
0.219499
0.22038
0.221247
0.222145
0.223114
0.224176
0.225316
0.226547
0.22783
0.229075
0.230269
0.231416
0.232612
0.233889
0.235319
0.236856
0.238454
0.240085
0.241704
0.243345
0.244975
0.246563
0.248048
0.249516
0.250993
0.252362
0.25362
0.254774
0.255802
0.25666
0.257339
0.257997
0.258716
0.259387
0.259984
0.260553
0.261129
0.261749
0.262331
0.262852
0.263345
0.263795
0.264338
0.265401
0.268509
0.278065
0.301502
0.341036
0.381077
0.400944
0.40808
0.412978
0.417667
0.421458
0.424788
0.429088
0.433702
0.437125
0.439255
0.440798
0.448869
0.228156
0.228355
0.228561
0.228775
0.229017
0.229317
0.229616
0.229873
0.23013
0.230433
0.230767
0.231099
0.231422
0.231747
0.232086
0.232445
0.232818
0.233193
0.233569
0.233956
0.234358
0.234775
0.235203
0.235646
0.236102
0.236564
0.237032
0.237509
0.237995
0.238495
0.239018
0.239561
0.240119
0.240694
0.241279
0.241877
0.242491
0.243119
0.243755
0.24439
0.245021
0.245654
0.246316
0.24701
0.247726
0.24845
0.24918
0.249906
0.250655
0.2514
0.252132
0.25284
0.253517
0.25416
0.254819
0.255548
0.256373
0.25727
0.258121
0.258766
0.259217
0.259606
0.260046
0.260547
0.261086
0.261606
0.262106
0.262555
0.262895
0.263161
0.263438
0.2638
0.264204
0.264563
0.264824
0.265044
0.265264
0.265441
0.265539
0.265593
0.265675
0.265871
0.266508
0.268665
0.274806
0.290233
0.319032
0.356996
0.389904
0.406919
0.413768
0.418434
0.423048
0.426502
0.430807
0.436816
0.443335
0.446454
0.448984
0.454442
0.252409
0.252494
0.252598
0.252716
0.252847
0.252972
0.25309
0.253217
0.253353
0.253493
0.253632
0.253772
0.253916
0.254067
0.254224
0.254386
0.254553
0.254728
0.254911
0.255097
0.255283
0.255465
0.255639
0.25581
0.255982
0.256152
0.25632
0.256484
0.256643
0.256805
0.256993
0.257202
0.257414
0.257633
0.257861
0.258091
0.258323
0.258573
0.258844
0.259108
0.259335
0.25954
0.259754
0.259992
0.260271
0.260625
0.261046
0.261443
0.261773
0.262074
0.262346
0.262546
0.262684
0.26283
0.263064
0.263457
0.263964
0.264493
0.264917
0.26514
0.265241
0.265324
0.265438
0.265598
0.265778
0.265932
0.266049
0.266157
0.266257
0.26629
0.266278
0.266282
0.266325
0.266373
0.266366
0.266349
0.266331
0.266287
0.26619
0.266091
0.266097
0.26622
0.266716
0.268609
0.273492
0.284309
0.304266
0.333387
0.365449
0.390982
0.407281
0.417142
0.423562
0.428564
0.433011
0.439198
0.448067
0.45362
0.454938
0.460529
0.263677
0.263689
0.263704
0.26372
0.263747
0.263778
0.263798
0.263834
0.26388
0.263904
0.263928
0.263958
0.26399
0.264024
0.264055
0.264084
0.264117
0.264165
0.264223
0.264285
0.264355
0.264429
0.264497
0.264557
0.26461
0.264669
0.264755
0.264824
0.264829
0.264825
0.264847
0.264868
0.26486
0.264866
0.264894
0.2649
0.264877
0.264884
0.264968
0.265157
0.265283
0.26535
0.265425
0.265539
0.265689
0.265919
0.266253
0.266399
0.266454
0.26657
0.266695
0.266717
0.266677
0.266643
0.266674
0.266832
0.267066
0.267101
0.267055
0.267046
0.267068
0.267056
0.267013
0.266951
0.266847
0.266751
0.266683
0.266642
0.266624
0.266601
0.266524
0.266485
0.266465
0.266443
0.266383
0.266351
0.266324
0.266263
0.266225
0.266225
0.266304
0.266712
0.267529
0.269347
0.273507
0.282713
0.298781
0.321263
0.348229
0.373247
0.392469
0.407412
0.419966
0.430086
0.437827
0.443651
0.451553
0.459989
0.461695
0.466191
0.26601
0.265932
0.265889
0.265892
0.265917
0.265924
0.265916
0.265907
0.265916
0.265983
0.266094
0.266124
0.266108
0.266106
0.266145
0.266152
0.266154
0.266199
0.266265
0.266346
0.26649
0.266673
0.26683
0.266979
0.267117
0.267231
0.267378
0.267503
0.267526
0.267538
0.267538
0.26748
0.26738
0.26737
0.267371
0.2673
0.267112
0.267035
0.267078
0.267313
0.267452
0.267407
0.267367
0.267437
0.267591
0.267609
0.26759
0.267606
0.267659
0.267684
0.267681
0.267651
0.267636
0.267676
0.267675
0.267655
0.267567
0.267307
0.266993
0.266842
0.266854
0.266937
0.266955
0.266906
0.266809
0.266662
0.266607
0.266579
0.266573
0.266561
0.266498
0.266496
0.266506
0.266571
0.266753
0.26716
0.26774
0.268482
0.269585
0.270719
0.271887
0.273197
0.274604
0.276254
0.278746
0.284641
0.297989
0.318097
0.342144
0.364934
0.383465
0.399241
0.413495
0.427117
0.438482
0.445969
0.45387
0.46358
0.468763
0.474939
0.26862
0.268627
0.268616
0.268611
0.268624
0.268637
0.268615
0.268584
0.268601
0.268714
0.268736
0.268707
0.268571
0.268427
0.26839
0.268377
0.268429
0.268465
0.268475
0.268544
0.268571
0.268554
0.268507
0.268506
0.268571
0.268655
0.268682
0.268724
0.268737
0.268724
0.268714
0.268703
0.268713
0.26876
0.268766
0.26876
0.268766
0.268768
0.268719
0.268586
0.26849
0.268481
0.2685
0.268511
0.268494
0.268355
0.268083
0.267944
0.267857
0.267643
0.267425
0.267359
0.267372
0.267615
0.267835
0.267867
0.267768
0.267328
0.266986
0.266865
0.266867
0.267164
0.267479
0.267468
0.267386
0.267469
0.26796
0.268707
0.269282
0.269725
0.270392
0.271461
0.272752
0.274127
0.275597
0.277036
0.27831
0.279615
0.280683
0.281632
0.282574
0.283327
0.284259
0.285985
0.288817
0.293297
0.301782
0.318603
0.341592
0.362997
0.381113
0.396948
0.41057
0.422957
0.43577
0.446612
0.455162
0.464323
0.473282
0.484536
0.271197
0.271229
0.271275
0.271324
0.271357
0.271332
0.271232
0.271208
0.271183
0.271151
0.27116
0.271267
0.271402
0.271376
0.27131
0.271365