/*--------------------------------*- C++ -*----------------------------------*\
  =========                 |
  \\      /  F ield         | OpenFOAM: The Open Source CFD Toolbox
   \\    /   O peration     | Website:  https://openfoam.org
    \\  /    A nd           | Version:  7
     \\/     M anipulation  |
\*---------------------------------------------------------------------------*/
FoamFile
{
    version     2.0;
    format      ascii;
    class       volVectorField;
    location    "5.5";
    object      U;
}
// * * * * * * * * * * * * * * * * * * * * * * * * * * * * * * * * * * * * * //

dimensions      [0 1 -1 0 0 0 0];

internalField   nonuniform List<vector> 
90000
(
(5.02505 -0.227007 0)
(5.02428 -0.215159 0)
(5.02338 -0.204321 0)
(5.02208 -0.194228 0)
(5.02057 -0.18572 0)
(5.01899 -0.178284 0)
(5.01722 -0.171529 0)
(5.01533 -0.165507 0)
(5.01348 -0.160436 0)
(5.01137 -0.15492 0)
(5.00947 -0.150763 0)
(5.00746 -0.146803 0)
(5.00537 -0.141794 0)
(5.00356 -0.139711 0)
(5.00141 -0.134787 0)
(4.99956 -0.133055 0)
(4.99743 -0.128961 0)
(4.9954 -0.1257 0)
(4.99318 -0.121055 0)
(4.99156 -0.117164 0)
(4.99041 -0.111053 0)
(4.98971 -0.105523 0)
(4.98921 -0.0993296 0)
(4.98854 -0.090154 0)
(4.98858 -0.0861707 0)
(4.9874 -0.0730513 0)
(4.98775 -0.0723546 0)
(4.98599 -0.0572047 0)
(4.98627 -0.0574077 0)
(4.98426 -0.0434593 0)
(4.98431 -0.0426201 0)
(4.98214 -0.0293418 0)
(4.98208 -0.0287598 0)
(4.97961 -0.0166519 0)
(4.97925 -0.015504 0)
(4.97735 -0.00714306 0)
(4.97604 -0.00126008 0)
(4.97593 0.00138376 0)
(4.97317 0.0079879 0)
(4.97379 0.0102389 0)
(4.97278 0.0136066 0)
(4.97225 0.0156131 0)
(4.97351 0.0172954 0)
(4.97057 0.0150606 0)
(4.97007 0.0119733 0)
(4.97046 0.00328629 0)
(4.96955 -0.00370023 0)
(4.97043 -0.0176434 0)
(4.96906 -0.0194823 0)
(4.96896 -0.0290261 0)
(4.96817 -0.030661 0)
(4.96631 -0.0307837 0)
(4.96418 -0.0293668 0)
(4.9617 -0.0258387 0)
(4.95907 -0.0204983 0)
(4.95806 -0.0176932 0)
(4.95554 -0.0113176 0)
(4.95473 -0.00877125 0)
(4.95485 -0.00654024 0)
(4.95586 -0.00285376 0)
(4.95631 -0.00318249 0)
(4.95691 -0.00582859 0)
(4.95788 -0.0111564 0)
(4.95834 -0.0129496 0)
(4.95967 -0.0177825 0)
(4.96 -0.0195727 0)
(4.96005 -0.0190502 0)
(4.96058 -0.0196898 0)
(4.95942 -0.0138235 0)
(4.95882 -0.0074159 0)
(4.95883 -0.00659464 0)
(4.95894 -0.00273827 0)
(4.95917 -0.00385482 0)
(4.95936 -0.00814777 0)
(4.96002 -0.0101816 0)
(4.96205 -0.0120459 0)
(4.96236 -0.0123968 0)
(4.96225 -0.0103263 0)
(4.96335 -0.00969659 0)
(4.96183 -0.00590184 0)
(4.96211 -0.00660057 0)
(4.96195 -0.00762406 0)
(4.96378 -0.0104149 0)
(4.96424 -0.0106837 0)
(4.96438 -0.00995382 0)
(4.96442 -0.00738572 0)
(4.96437 -0.00609046 0)
(4.96436 -0.0066453 0)
(4.96433 -0.00740033 0)
(4.96565 -0.00860667 0)
(4.9659 -0.00861789 0)
(4.96607 -0.00834768 0)
(4.96593 -0.00847259 0)
(4.96598 -0.00885566 0)
(4.96655 -0.00907142 0)
(4.96673 -0.0090805 0)
(4.96695 -0.00892554 0)
(4.96662 -0.00758536 0)
(4.96654 -0.00772766 0)
(4.96732 -0.00903931 0)
(5.02472 -0.233928 0)
(5.02462 -0.233658 0)
(5.02443 -0.232999 0)
(5.02421 -0.232307 0)
(5.02388 -0.230963 0)
(5.02342 -0.229621 0)
(5.02288 -0.228024 0)
(5.02228 -0.226092 0)
(5.02167 -0.224116 0)
(5.02098 -0.221554 0)
(5.02031 -0.219098 0)
(5.01958 -0.216385 0)
(5.01874 -0.212938 0)
(5.01796 -0.210039 0)
(5.01704 -0.206312 0)
(5.01617 -0.203014 0)
(5.01523 -0.199115 0)
(5.01437 -0.1953 0)
(5.01361 -0.191315 0)
(5.0125 -0.188072 0)
(5.01071 -0.184139 0)
(5.00842 -0.17997 0)
(5.00603 -0.176802 0)
(5.00302 -0.170782 0)
(5.0004 -0.166225 0)
(4.99706 -0.157633 0)
(4.99481 -0.152267 0)
(4.99127 -0.139719 0)
(4.9899 -0.134955 0)
(4.98624 -0.118317 0)
(4.98579 -0.115041 0)
(4.98189 -0.0949571 0)
(4.98179 -0.0918182 0)
(4.97828 -0.0731621 0)
(4.97808 -0.0680541 0)
(4.97535 -0.0520551 0)
(4.97511 -0.045401 0)
(4.97339 -0.0324169 0)
(4.97249 -0.023459 0)
(4.97274 -0.0200455 0)
(4.9713 -0.00952618 0)
(4.97181 -0.00750327 0)
(4.97102 -0.00276147 0)
(4.97007 0.00280934 0)
(4.97115 0.00580558 0)
(4.97014 0.0109227 0)
(4.96977 0.0125765 0)
(4.96966 0.008898 0)
(4.97036 0.00684876 0)
(4.9718 0.00231639 0)
(4.97315 -0.00177835 0)
(4.97401 -0.00953373 0)
(4.97362 -0.012116 0)
(4.97302 -0.0160654 0)
(4.97243 -0.0162453 0)
(4.97162 -0.0155278 0)
(4.97073 -0.0148087 0)
(4.96986 -0.0121251 0)
(4.96917 -0.00974956 0)
(4.96858 -0.00772842 0)
(4.96846 -0.00571765 0)
(4.96787 -0.00222279 0)
(4.96768 -0.00279634 0)
(4.96726 -0.00465612 0)
(4.96778 -0.0107688 0)
(4.96723 -0.0111732 0)
(4.96832 -0.0170937 0)
(4.96909 -0.0158607 0)
(4.96835 -0.0151052 0)
(4.96735 -0.0135522 0)
(4.96621 -0.00873486 0)
(4.96567 -0.00554173 0)
(4.96526 -0.00192199 0)
(4.96518 -0.00232396 0)
(4.96531 -0.00653242 0)
(4.96583 -0.00917142 0)
(4.96563 -0.0134894 0)
(4.96677 -0.0114644 0)
(4.96669 -0.00923634 0)
(4.96606 -0.00676607 0)
(4.96554 -0.00541026 0)
(4.96529 -0.00696539 0)
(4.96539 -0.00844628 0)
(4.96604 -0.00986188 0)
(4.96622 -0.0095752 0)
(4.96623 -0.00789665 0)
(4.96652 -0.00537566 0)
(4.96601 -0.0072179 0)
(4.9659 -0.00822752 0)
(4.96603 -0.0100946 0)
(4.96686 -0.00897945 0)
(4.967 -0.00870082 0)
(4.96684 -0.00775904 0)
(4.9667 -0.0079758 0)
(4.96702 -0.00914846 0)
(4.96716 -0.00932534 0)
(4.96723 -0.00797128 0)
(4.96711 -0.00775686 0)
(4.96704 -0.00849801 0)
(4.96747 -0.00896137 0)
(5.02231 -0.234424 0)
(5.02232 -0.234385 0)
(5.02225 -0.234266 0)
(5.02221 -0.234223 0)
(5.02215 -0.234208 0)
(5.02211 -0.234172 0)
(5.02207 -0.234161 0)
(5.02204 -0.234191 0)
(5.02199 -0.234065 0)
(5.02188 -0.233793 0)
(5.02176 -0.23347 0)
(5.0217 -0.233219 0)
(5.02158 -0.232681 0)
(5.02146 -0.232129 0)
(5.02129 -0.231467 0)
(5.02111 -0.230908 0)
(5.02083 -0.22965 0)
(5.02047 -0.228353 0)
(5.02015 -0.226994 0)
(5.01982 -0.22524 0)
(5.0194 -0.223037 0)
(5.01891 -0.220767 0)
(5.01829 -0.218142 0)
(5.01761 -0.215863 0)
(5.01664 -0.212267 0)
(5.01564 -0.209214 0)
(5.01443 -0.204717 0)
(5.01312 -0.199964 0)
(5.01186 -0.194915 0)
(5.0101 -0.187538 0)
(5.00881 -0.182048 0)
(5.00645 -0.171489 0)
(5.00485 -0.164989 0)
(5.00206 -0.152869 0)
(4.99983 -0.143406 0)
(4.99724 -0.132547 0)
(4.99377 -0.115455 0)
(4.99239 -0.109792 0)
(4.98781 -0.0849969 0)
(4.9874 -0.084778 0)
(4.9818 -0.0567392 0)
(4.98152 -0.0583955 0)
(4.97669 -0.0352967 0)
(4.97555 -0.0311012 0)
(4.97454 -0.024515 0)
(4.97249 -0.0150916 0)
(4.97534 -0.0144027 0)
(4.97149 -0.00805421 0)
(4.9711 -0.00483643 0)
(4.9707 -0.0013677 0)
(4.97102 -0.000818113 0)
(4.9721 -9.11521e-05 0)
(4.97342 -0.00398301 0)
(4.97426 -0.00581733 0)
(4.97544 -0.00745293 0)
(4.97727 -0.0124261 0)
(4.97794 -0.0135579 0)
(4.97854 -0.0155778 0)
(4.97843 -0.0157366 0)
(4.97799 -0.0156746 0)
(4.97729 -0.0146002 0)
(4.97653 -0.013457 0)
(4.97545 -0.0111463 0)
(4.97444 -0.00840427 0)
(4.97437 -0.00809193 0)
(4.9742 -0.00873775 0)
(4.97456 -0.0108149 0)
(4.97504 -0.0119186 0)
(4.97571 -0.0172724 0)
(4.97622 -0.0151858 0)
(4.97557 -0.0133903 0)
(4.97449 -0.00994561 0)
(4.97347 -0.00712653 0)
(4.97261 -0.00226483 0)
(4.97208 -0.00181508 0)
(4.9723 -0.00332512 0)
(4.97257 -0.00770826 0)
(4.97229 -0.00862098 0)
(4.97251 -0.0125655 0)
(4.97202 -0.0116565 0)
(4.97131 -0.0101734 0)
(4.97089 -0.00600891 0)
(4.97051 -0.00612118 0)
(4.97052 -0.00746912 0)
(4.97069 -0.0107184 0)
(4.97052 -0.0105941 0)
(4.97038 -0.00952688 0)
(4.96999 -0.00584695 0)
(4.96992 -0.00570624 0)
(4.96963 -0.00634749 0)
(4.9699 -0.00882063 0)
(4.9699 -0.00897614 0)
(4.96994 -0.00881288 0)
(4.96985 -0.00893308 0)
(4.96985 -0.00911455 0)
(4.96976 -0.009436 0)
(4.96963 -0.00959529 0)
(4.96944 -0.00860647 0)
(4.96946 -0.00829839 0)
(4.96969 -0.00874225 0)
(5.02004 -0.232422 0)
(5.02004 -0.232424 0)
(5.02003 -0.232441 0)
(5.02001 -0.232454 0)
(5.02 -0.232446 0)
(5.01998 -0.232452 0)
(5.0201 -0.232663 0)
(5.02009 -0.23279 0)
(5.02004 -0.232798 0)
(5.02001 -0.232921 0)
(5.02 -0.233042 0)
(5.01998 -0.233076 0)
(5.01994 -0.233103 0)
(5.01991 -0.233045 0)
(5.01985 -0.233131 0)
(5.01976 -0.233165 0)
(5.01962 -0.23302 0)
(5.01952 -0.233164 0)
(5.01954 -0.233295 0)
(5.01955 -0.233148 0)
(5.01958 -0.232984 0)
(5.01959 -0.232925 0)
(5.01958 -0.232989 0)
(5.01951 -0.232776 0)
(5.01938 -0.232578 0)
(5.01922 -0.232245 0)
(5.01911 -0.231966 0)
(5.01901 -0.231282 0)
(5.01894 -0.230782 0)
(5.01879 -0.229618 0)
(5.01838 -0.228243 0)
(5.01783 -0.226459 0)
(5.01717 -0.223906 0)
(5.01639 -0.220977 0)
(5.01547 -0.217233 0)
(5.01425 -0.211857 0)
(5.01283 -0.205313 0)
(5.0113 -0.197609 0)
(5.00901 -0.185809 0)
(5.00745 -0.178324 0)
(5.00373 -0.1601 0)
(5.00135 -0.149032 0)
(4.99774 -0.131915 0)
(4.99339 -0.108389 0)
(4.99265 -0.104827 0)
(4.98568 -0.0670637 0)
(4.98692 -0.0733193 0)
(4.98085 -0.041271 0)
(4.97936 -0.0418163 0)
(4.97754 -0.0323917 0)
(4.97597 -0.0262826 0)
(4.97828 -0.0238782 0)
(4.97667 -0.0178543 0)
(4.97498 -0.0144466 0)
(4.97588 -0.0124431 0)
(4.97605 -0.0107116 0)
(4.97615 -0.00891172 0)
(4.97647 -0.00801073 0)
(4.97726 -0.00835113 0)
(4.97808 -0.00962521 0)
(4.97813 -0.0100081 0)
(4.97806 -0.00994164 0)
(4.97771 -0.0103252 0)
(4.97713 -0.0101237 0)
(4.97741 -0.010024 0)
(4.97634 -0.00782266 0)
(4.97645 -0.00668685 0)
(4.97657 -0.00633828 0)
(4.97723 -0.00852092 0)
(4.97823 -0.00978551 0)
(4.97908 -0.0127057 0)
(4.97885 -0.0131832 0)
(4.97792 -0.0125763 0)
(4.97664 -0.0109406 0)
(4.97625 -0.00727244 0)
(4.976 -0.00416041 0)
(4.97583 -0.00178119 0)
(4.9759 -0.00313682 0)
(4.97627 -0.00715499 0)
(4.9764 -0.0102307 0)
(4.97599 -0.0121354 0)
(4.97549 -0.0111507 0)
(4.97501 -0.00904215 0)
(4.97453 -0.00639374 0)
(4.97467 -0.00771464 0)
(4.97471 -0.00941659 0)
(4.9746 -0.0101715 0)
(4.97431 -0.00932904 0)
(4.97404 -0.00739871 0)
(4.97369 -0.00611266 0)
(4.97377 -0.00653275 0)
(4.97379 -0.00830518 0)
(4.97382 -0.00772291 0)
(4.97372 -0.00789462 0)
(4.97359 -0.00843135 0)
(4.97333 -0.009058 0)
(4.97315 -0.00879276 0)
(4.97293 -0.00817306 0)
(4.97279 -0.00747111 0)
(4.97288 -0.00776678 0)
(5.01917 -0.232445 0)
(5.01918 -0.232577 0)
(5.0192 -0.232618 0)
(5.01922 -0.232672 0)
(5.01919 -0.232809 0)
(5.0192 -0.232854 0)
(5.01921 -0.232914 0)
(5.01912 -0.233032 0)
(5.01911 -0.233158 0)
(5.01912 -0.233182 0)
(5.01914 -0.233225 0)
(5.01907 -0.233448 0)
(5.01906 -0.233555 0)
(5.01906 -0.233487 0)
(5.0189 -0.233665 0)
(5.01876 -0.234012 0)
(5.01878 -0.234122 0)
(5.0188 -0.234215 0)
(5.01878 -0.234332 0)
(5.01883 -0.234506 0)
(5.01879 -0.234881 0)
(5.01873 -0.235344 0)
(5.01884 -0.235735 0)
(5.01891 -0.23572 0)
(5.01889 -0.235503 0)
(5.01873 -0.235644 0)
(5.01854 -0.236036 0)
(5.01846 -0.236205 0)
(5.01844 -0.236438 0)
(5.01832 -0.23648 0)
(5.01845 -0.236147 0)
(5.01854 -0.23617 0)
(5.0186 -0.236147 0)
(5.01864 -0.236147 0)
(5.01865 -0.236009 0)
(5.01859 -0.235546 0)
(5.01847 -0.234869 0)
(5.01825 -0.233792 0)
(5.01784 -0.23243 0)
(5.01724 -0.230082 0)
(5.01637 -0.226663 0)
(5.01523 -0.221058 0)
(5.01385 -0.214044 0)
(5.01176 -0.203419 0)
(5.00988 -0.193782 0)
(5.00567 -0.172378 0)
(5.00424 -0.163499 0)
(4.99841 -0.131916 0)
(4.99615 -0.118829 0)
(4.99216 -0.0965321 0)
(4.98693 -0.0653525 0)
(4.98841 -0.0658118 0)
(4.98274 -0.0380098 0)
(4.98021 -0.0256962 0)
(4.98248 -0.0312844 0)
(4.97825 -0.0179046 0)
(4.9772 -0.0147446 0)
(4.97741 -0.0121681 0)
(4.97754 -0.0109266 0)
(4.97732 -0.0114904 0)
(4.97721 -0.0113542 0)
(4.977 -0.011544 0)
(4.97696 -0.0121187 0)
(4.97721 -0.0117283 0)
(4.97734 -0.0112884 0)
(4.97704 -0.010175 0)
(4.97683 -0.00628303 0)
(4.97654 -0.00410384 0)
(4.9766 -0.00442781 0)
(4.97685 -0.0064335 0)
(4.97751 -0.00820673 0)
(4.97791 -0.00953702 0)
(4.978 -0.0130217 0)
(4.97788 -0.0123829 0)
(4.97763 -0.0107483 0)
(4.97754 -0.00855043 0)
(4.97765 -0.00690833 0)
(4.97742 -0.00441361 0)
(4.977 -0.0049555 0)
(4.97724 -0.00621204 0)
(4.97758 -0.00813637 0)
(4.97754 -0.010529 0)
(4.97735 -0.0105122 0)
(4.97695 -0.00943663 0)
(4.97698 -0.00846557 0)
(4.97684 -0.00705403 0)
(4.97709 -0.00739251 0)
(4.97706 -0.00820403 0)
(4.97694 -0.00826062 0)
(4.9767 -0.00739306 0)
(4.97691 -0.00785905 0)
(4.97693 -0.00814174 0)
(4.97683 -0.00900297 0)
(4.97678 -0.00869822 0)
(4.97659 -0.00846172 0)
(4.97644 -0.00873692 0)
(4.97626 -0.0094423 0)
(4.97613 -0.00930373 0)
(4.97595 -0.00864325 0)
(4.97597 -0.00872647 0)
(5.01961 -0.232252 0)
(5.01954 -0.232313 0)
(5.01951 -0.232438 0)
(5.01952 -0.232517 0)
(5.01951 -0.232418 0)
(5.01948 -0.232409 0)
(5.01937 -0.232631 0)
(5.01941 -0.232694 0)
(5.01943 -0.232821 0)
(5.01934 -0.232946 0)
(5.01934 -0.23319 0)
(5.01936 -0.233259 0)
(5.01931 -0.23302 0)
(5.01914 -0.232945 0)
(5.01898 -0.233349 0)
(5.01906 -0.233547 0)
(5.01913 -0.233491 0)
(5.01919 -0.233517 0)
(5.01881 -0.234024 0)
(5.01884 -0.23451 0)
(5.01899 -0.234589 0)
(5.01909 -0.234714 0)
(5.01906 -0.234969 0)
(5.019 -0.23525 0)
(5.01896 -0.235554 0)
(5.01901 -0.235651 0)
(5.01895 -0.235981 0)
(5.01893 -0.236395 0)
(5.01896 -0.236789 0)
(5.01903 -0.236909 0)
(5.01912 -0.237013 0)
(5.01921 -0.237312 0)
(5.01936 -0.237458 0)
(5.01952 -0.23762 0)
(5.01958 -0.238092 0)
(5.01958 -0.238323 0)
(5.0195 -0.238487 0)
(5.01933 -0.238355 0)
(5.01936 -0.238301 0)
(5.01946 -0.238147 0)
(5.01947 -0.237937 0)
(5.01949 -0.237625 0)
(5.01943 -0.237142 0)
(5.01925 -0.236227 0)
(5.01886 -0.234532 0)
(5.01816 -0.232069 0)
(5.01699 -0.226912 0)
(5.01549 -0.22087 0)
(5.01339 -0.209674 0)
(5.01077 -0.195655 0)
(5.00729 -0.176133 0)
(5.00493 -0.159376 0)
(4.99916 -0.12535 0)
(4.9967 -0.10984 0)
(4.99567 -0.0958358 0)
(4.98864 -0.0475538 0)
(4.98961 -0.0606629 0)
(4.98461 -0.0410024 0)
(4.98225 -0.0251261 0)
(4.98179 -0.028489 0)
(4.98021 -0.0232623 0)
(4.97936 -0.0180983 0)
(4.98016 -0.0176199 0)
(4.97992 -0.014657 0)
(4.97907 -0.0131206 0)
(4.97654 -0.0114247 0)
(4.97664 -0.00589125 0)
(4.97643 -0.00541197 0)
(4.97591 -0.00680384 0)
(4.97616 -0.00813516 0)
(4.97646 -0.00852943 0)
(4.97662 -0.00856672 0)
(4.97679 -0.00872129 0)
(4.97768 -0.0090925 0)
(4.97847 -0.0100385 0)
(4.9784 -0.0100018 0)
(4.97814 -0.00966903 0)
(4.97775 -0.00938959 0)
(4.9771 -0.00792011 0)
(4.97719 -0.0069804 0)
(4.97726 -0.00655923 0)
(4.97762 -0.00760356 0)
(4.97816 -0.0103121 0)
(4.9783 -0.0110835 0)
(4.97805 -0.0105749 0)
(4.97802 -0.00935256 0)
(4.97817 -0.00847946 0)
(4.97835 -0.00761939 0)
(4.9786 -0.00764771 0)
(4.97868 -0.00730637 0)
(4.97852 -0.00667542 0)
(4.97863 -0.00685227 0)
(4.97863 -0.0075204 0)
(4.97878 -0.00860304 0)
(4.97861 -0.00880519 0)
(4.97867 -0.00836491 0)
(4.97863 -0.00854168 0)
(4.97854 -0.00848911 0)
(4.97851 -0.00814934 0)
(4.97852 -0.00763722 0)
(5.02028 -0.234625 0)
(5.0202 -0.234584 0)
(5.02021 -0.234421 0)
(5.02018 -0.23445 0)
(5.02001 -0.234766 0)
(5.02003 -0.234913 0)
(5.02008 -0.234872 0)
(5.02007 -0.235005 0)
(5.02012 -0.23516 0)
(5.02005 -0.23503 0)
(5.02 -0.234863 0)
(5.01992 -0.234785 0)
(5.01978 -0.234958 0)
(5.01981 -0.235235 0)
(5.01983 -0.235206 0)
(5.01983 -0.234908 0)
(5.01996 -0.234645 0)
(5.0199 -0.234811 0)
(5.0199 -0.235111 0)
(5.01996 -0.235394 0)
(5.0201 -0.235716 0)
(5.02015 -0.235812 0)
(5.02011 -0.235591 0)
(5.02014 -0.235507 0)
(5.02019 -0.235661 0)
(5.02027 -0.23576 0)
(5.02031 -0.23557 0)
(5.0203 -0.235432 0)
(5.02025 -0.235701 0)
(5.02036 -0.235971 0)
(5.02054 -0.236113 0)
(5.02069 -0.236251 0)
(5.02069 -0.236512 0)
(5.02071 -0.236802 0)
(5.0209 -0.236934 0)
(5.02114 -0.237069 0)
(5.02136 -0.237348 0)
(5.02141 -0.237575 0)
(5.02139 -0.237645 0)
(5.02139 -0.237712 0)
(5.02137 -0.237696 0)
(5.0214 -0.237904 0)
(5.02133 -0.237942 0)
(5.02125 -0.237915 0)
(5.02111 -0.237961 0)
(5.02094 -0.237607 0)
(5.02088 -0.237424 0)
(5.02081 -0.237002 0)
(5.02073 -0.236057 0)
(5.02055 -0.234188 0)
(5.02012 -0.231607 0)
(5.01882 -0.224306 0)
(5.01763 -0.218505 0)
(5.0144 -0.199349 0)
(5.01175 -0.183818 0)
(5.00734 -0.160257 0)
(5.00438 -0.134301 0)
(4.99844 -0.0978707 0)
(4.99423 -0.0760093 0)
(4.99291 -0.060892 0)
(4.98933 -0.0416121 0)
(4.98394 -0.0125706 0)
(4.98464 -0.0109362 0)
(4.9871 -0.0116269 0)
(4.9819 -0.00239188 0)
(4.97843 -0.00541263 0)
(4.97872 -0.0066259 0)
(4.97831 -0.00781263 0)
(4.97724 -0.00995656 0)
(4.97772 -0.0104097 0)
(4.97781 -0.00956545 0)
(4.9783 -0.00767264 0)
(4.97836 -0.00577545 0)
(4.97879 -0.00623223 0)
(4.97893 -0.00765128 0)
(4.97898 -0.00977782 0)
(4.97962 -0.0115933 0)
(4.97895 -0.011198 0)
(4.97847 -0.00965433 0)
(4.9786 -0.00769137 0)
(4.97877 -0.00680816 0)
(4.97875 -0.00712512 0)
(4.97901 -0.00813539 0)
(4.97936 -0.00926347 0)
(4.9796 -0.0103443 0)
(4.97945 -0.00950345 0)
(4.97936 -0.00902044 0)
(4.97952 -0.00874765 0)
(4.97975 -0.00864786 0)
(4.97979 -0.00833136 0)
(4.97965 -0.00777727 0)
(4.97942 -0.0069071 0)
(4.97994 -0.00738344 0)
(4.98007 -0.00781395 0)
(4.98015 -0.00857716 0)
(4.98026 -0.00885445 0)
(4.98025 -0.00885751 0)
(4.9803 -0.00893919 0)
(4.98034 -0.00888813 0)
(4.98041 -0.00866167 0)
(5.02149 -0.237178 0)
(5.02138 -0.237342 0)
(5.02131 -0.237507 0)
(5.0213 -0.237518 0)
(5.02128 -0.237587 0)
(5.02133 -0.237803 0)
(5.02135 -0.237876 0)
(5.02137 -0.237862 0)
(5.02136 -0.237733 0)
(5.02136 -0.237618 0)
(5.02137 -0.237541 0)
(5.02137 -0.23756 0)
(5.02137 -0.237631 0)
(5.02142 -0.237701 0)
(5.02143 -0.237627 0)
(5.0214 -0.237338 0)
(5.02139 -0.237364 0)
(5.02153 -0.237412 0)
(5.02161 -0.237396 0)
(5.02167 -0.23744 0)
(5.02165 -0.23738 0)
(5.02164 -0.237204 0)
(5.02159 -0.237302 0)
(5.0216 -0.237539 0)
(5.02168 -0.237638 0)
(5.02172 -0.237607 0)
(5.02167 -0.237532 0)
(5.02155 -0.237503 0)
(5.02154 -0.237489 0)
(5.02162 -0.237505 0)
(5.02173 -0.237647 0)
(5.02185 -0.237944 0)
(5.02193 -0.238144 0)
(5.02201 -0.238067 0)
(5.02215 -0.238 0)
(5.0223 -0.238046 0)
(5.02244 -0.238173 0)
(5.0225 -0.238254 0)
(5.0225 -0.238244 0)
(5.02249 -0.238208 0)
(5.02246 -0.238144 0)
(5.02241 -0.238084 0)
(5.02236 -0.238019 0)
(5.02226 -0.237984 0)
(5.02213 -0.237957 0)
(5.02211 -0.237763 0)
(5.02223 -0.237701 0)
(5.02245 -0.237639 0)
(5.02274 -0.237379 0)
(5.02315 -0.236586 0)
(5.02332 -0.236099 0)
(5.02337 -0.235986 0)
(5.02337 -0.235157 0)
(5.0233 -0.233822 0)
(5.02292 -0.230632 0)
(5.02198 -0.224901 0)
(5.02038 -0.215067 0)
(5.01736 -0.197358 0)
(5.01581 -0.184584 0)
(5.00913 -0.143057 0)
(5.00481 -0.120484 0)
(5.00481 -0.112305 0)
(4.99704 -0.0715817 0)
(4.99414 -0.0341041 0)
(4.99451 -0.052341 0)
(4.99566 -0.0473525 0)
(4.98962 -0.0265415 0)
(4.98872 -0.0219972 0)
(4.98654 -0.0180778 0)
(4.98522 -0.0141511 0)
(4.98112 -0.00759509 0)
(4.98132 -0.00661198 0)
(4.98117 -0.00758719 0)
(4.98055 -0.00899042 0)
(4.9805 -0.0110599 0)
(4.9807 -0.0114941 0)
(4.98103 -0.0113045 0)
(4.98145 -0.010561 0)
(4.98171 -0.00903272 0)
(4.9813 -0.00843843 0)
(4.98082 -0.00835851 0)
(4.9802 -0.00871566 0)
(4.98023 -0.0088627 0)
(4.98037 -0.0087697 0)
(4.98074 -0.0088779 0)
(4.98084 -0.0090685 0)
(4.98086 -0.00911106 0)
(4.9809 -0.00943407 0)
(4.9808 -0.00919672 0)
(4.98086 -0.00882733 0)
(4.98094 -0.00821726 0)
(4.98076 -0.0075889 0)
(4.98095 -0.00748502 0)
(4.98108 -0.00755179 0)
(4.98139 -0.00786355 0)
(4.98141 -0.00799005 0)
(4.98148 -0.00858492 0)
(4.98165 -0.00857902 0)
(4.98171 -0.00852038 0)
(4.98174 -0.00837841 0)
(5.02357 -0.239608 0)
(5.02355 -0.23963 0)
(5.02355 -0.239634 0)
(5.02355 -0.239618 0)
(5.02356 -0.239624 0)
(5.02357 -0.239638 0)
(5.02359 -0.239659 0)
(5.02359 -0.239599 0)
(5.02359 -0.239516 0)
(5.02357 -0.239469 0)
(5.0236 -0.239472 0)
(5.02366 -0.239467 0)
(5.02369 -0.239438 0)
(5.02366 -0.239423 0)
(5.02362 -0.239386 0)
(5.02359 -0.23936 0)
(5.02357 -0.239373 0)
(5.02356 -0.239378 0)
(5.02352 -0.239311 0)
(5.02349 -0.239301 0)
(5.02342 -0.239314 0)
(5.02329 -0.239235 0)
(5.02322 -0.239183 0)
(5.02318 -0.239115 0)
(5.02316 -0.239025 0)
(5.02314 -0.238825 0)
(5.02317 -0.238548 0)
(5.02321 -0.238444 0)
(5.02322 -0.238516 0)
(5.02323 -0.238656 0)
(5.02326 -0.238854 0)
(5.02333 -0.239029 0)
(5.02342 -0.239022 0)
(5.02355 -0.238874 0)
(5.0237 -0.238787 0)
(5.02386 -0.238814 0)
(5.02402 -0.238868 0)
(5.02418 -0.238838 0)
(5.02425 -0.238781 0)
(5.02428 -0.23871 0)
(5.02431 -0.238555 0)
(5.02432 -0.238353 0)
(5.02431 -0.238138 0)
(5.02431 -0.237935 0)
(5.0243 -0.237621 0)
(5.02431 -0.237286 0)
(5.02439 -0.237074 0)
(5.02456 -0.236976 0)
(5.02489 -0.236478 0)
(5.0251 -0.235825 0)
(5.02526 -0.235111 0)
(5.02539 -0.234719 0)
(5.02542 -0.234676 0)
(5.02549 -0.234647 0)
(5.02569 -0.234875 0)
(5.02597 -0.234764 0)
(5.0261 -0.233964 0)
(5.02609 -0.232284 0)
(5.02555 -0.227853 0)
(5.02433 -0.221391 0)
(5.02235 -0.210114 0)
(5.01777 -0.180806 0)
(5.01517 -0.16961 0)
(5.00894 -0.136194 0)
(5.00482 -0.0951825 0)
(5.00085 -0.059784 0)
(5.00242 -0.0554053 0)
(4.99377 -0.0155807 0)
(4.99616 -0.0130455 0)
(4.99099 0.00701039 0)
(4.98746 0.00499221 0)
(4.98438 -0.00457821 0)
(4.98357 -0.0108903 0)
(4.9826 -0.0122366 0)
(4.98287 -0.0120079 0)
(4.98338 -0.0108378 0)
(4.98383 -0.00814256 0)
(4.98417 -0.00709525 0)
(4.984 -0.00780318 0)
(4.98319 -0.00908685 0)
(4.98281 -0.0108464 0)
(4.98197 -0.00981065 0)
(4.982 -0.00904525 0)
(4.98221 -0.00766024 0)
(4.98177 -0.00765484 0)
(4.98229 -0.00870255 0)
(4.98256 -0.00920739 0)
(4.98262 -0.00967654 0)
(4.98271 -0.00934446 0)
(4.98274 -0.00897035 0)
(4.98274 -0.00854307 0)
(4.98273 -0.00820659 0)
(4.98239 -0.00778449 0)
(4.98237 -0.00756315 0)
(4.98253 -0.00753201 0)
(4.98262 -0.00787307 0)
(4.9827 -0.0084133 0)
(4.98281 -0.00871005 0)
(4.98279 -0.00878765 0)
(4.98269 -0.00885799 0)
(5.02553 -0.240679 0)
(5.02553 -0.240675 0)
(5.02556 -0.240618 0)
(5.02558 -0.240543 0)
(5.02559 -0.240535 0)
(5.02565 -0.240587 0)
(5.02565 -0.240667 0)
(5.02561 -0.240731 0)
(5.02555 -0.240731 0)
(5.02562 -0.240598 0)
(5.02567 -0.240489 0)
(5.02566 -0.240391 0)
(5.02561 -0.240364 0)
(5.02556 -0.24025 0)
(5.02553 -0.240135 0)
(5.02551 -0.240181 0)
(5.02547 -0.240224 0)
(5.0256 -0.240087 0)
(5.02557 -0.23989 0)
(5.02543 -0.23981 0)
(5.02534 -0.239906 0)
(5.02531 -0.240021 0)
(5.02531 -0.240157 0)
(5.02519 -0.240059 0)
(5.02504 -0.239729 0)
(5.02501 -0.23961 0)
(5.02505 -0.239386 0)
(5.02509 -0.239182 0)
(5.02516 -0.239118 0)
(5.02523 -0.239114 0)
(5.02524 -0.239124 0)
(5.02524 -0.239126 0)
(5.02529 -0.239038 0)
(5.02535 -0.238844 0)
(5.02552 -0.23867 0)
(5.02572 -0.238572 0)
(5.02595 -0.238458 0)
(5.02618 -0.23829 0)
(5.0263 -0.238197 0)
(5.02634 -0.238132 0)
(5.02642 -0.237902 0)
(5.02645 -0.237626 0)
(5.02645 -0.237464 0)
(5.02646 -0.237277 0)
(5.02646 -0.2369 0)
(5.0264 -0.236639 0)
(5.02636 -0.236682 0)
(5.02641 -0.236673 0)
(5.02664 -0.236121 0)
(5.02677 -0.235399 0)
(5.02676 -0.234792 0)
(5.02676 -0.234175 0)
(5.02677 -0.233814 0)
(5.02678 -0.233773 0)
(5.02674 -0.233999 0)
(5.02695 -0.23438 0)
(5.02725 -0.234534 0)
(5.02759 -0.234597 0)
(5.02766 -0.234128 0)
(5.02756 -0.233253 0)
(5.02731 -0.231519 0)
(5.02691 -0.229444 0)
(5.02544 -0.221566 0)
(5.02337 -0.213391 0)
(5.01966 -0.192414 0)
(5.0174 -0.17745 0)
(5.00957 -0.128826 0)
(5.00738 -0.114069 0)
(5.00283 -0.079498 0)
(5.00135 -0.0625371 0)
(4.99988 -0.0528749 0)
(4.99979 -0.042768 0)
(4.99537 -0.0312011 0)
(4.99102 -0.0202156 0)
(4.98961 -0.0152195 0)
(4.98579 -0.00749246 0)
(4.98579 -0.00680002 0)
(4.9853 -0.00850752 0)
(4.98431 -0.0113402 0)
(4.98419 -0.0120066 0)
(4.98414 -0.011829 0)
(4.98425 -0.0103485 0)
(4.98454 -0.00780991 0)
(4.9844 -0.00737572 0)
(4.98425 -0.00767757 0)
(4.98404 -0.00916348 0)
(4.98416 -0.0095893 0)
(4.98439 -0.00967359 0)
(4.98436 -0.00921908 0)
(4.9842 -0.00910337 0)
(4.98401 -0.00908918 0)
(4.98394 -0.00895497 0)
(4.98402 -0.00856851 0)
(4.98387 -0.00750665 0)
(4.98367 -0.00735379 0)
(4.98373 -0.00756442 0)
(4.98376 -0.00800667 0)
(4.98376 -0.00823294 0)
(4.9838 -0.0084839 0)
(4.98383 -0.00873923 0)
(5.02685 -0.241629 0)
(5.02685 -0.241623 0)
(5.02687 -0.24158 0)
(5.02695 -0.241462 0)
(5.02695 -0.241353 0)
(5.02696 -0.241345 0)
(5.027 -0.241418 0)
(5.02708 -0.241457 0)
(5.02719 -0.241344 0)
(5.02721 -0.241275 0)
(5.02722 -0.241251 0)
(5.02723 -0.241172 0)
(5.0272 -0.241064 0)
(5.02716 -0.240932 0)
(5.02714 -0.240886 0)
(5.02711 -0.240925 0)
(5.02706 -0.240851 0)
(5.02707 -0.240692 0)
(5.02708 -0.240487 0)
(5.027 -0.240367 0)
(5.02692 -0.240414 0)
(5.02686 -0.24053 0)
(5.0268 -0.240498 0)
(5.02669 -0.240322 0)
(5.02659 -0.240158 0)
(5.02656 -0.239719 0)
(5.0266 -0.23914 0)
(5.02663 -0.239015 0)
(5.02666 -0.238978 0)
(5.02672 -0.238768 0)
(5.02673 -0.23863 0)
(5.02672 -0.238616 0)
(5.02671 -0.238548 0)
(5.02679 -0.238214 0)
(5.0269 -0.237687 0)
(5.02698 -0.23738 0)
(5.02702 -0.237327 0)
(5.02714 -0.237274 0)
(5.02731 -0.237162 0)
(5.02743 -0.237074 0)
(5.02744 -0.237045 0)
(5.02742 -0.236977 0)
(5.02744 -0.236875 0)
(5.02745 -0.236687 0)
(5.02735 -0.236464 0)
(5.02731 -0.236494 0)
(5.02727 -0.236726 0)
(5.02732 -0.236766 0)
(5.0276 -0.236061 0)
(5.02755 -0.235554 0)
(5.02741 -0.235187 0)
(5.02729 -0.234577 0)
(5.02719 -0.234015 0)
(5.02715 -0.233898 0)
(5.02711 -0.233921 0)
(5.02715 -0.234176 0)
(5.02735 -0.234584 0)
(5.02765 -0.234792 0)
(5.02779 -0.234404 0)
(5.02788 -0.234159 0)
(5.02792 -0.234033 0)
(5.0278 -0.233456 0)
(5.02756 -0.233041 0)
(5.0271 -0.232351 0)
(5.02622 -0.230516 0)
(5.02495 -0.225548 0)
(5.02253 -0.214171 0)
(5.01973 -0.196271 0)
(5.01359 -0.160826 0)
(5.01141 -0.142198 0)
(5.00134 -0.0826087 0)
(5.00399 -0.0643396 0)
(4.99692 -0.0216021 0)
(4.99937 -0.0171974 0)
(4.99268 0.00854986 0)
(4.98932 0.00532493 0)
(4.98689 -0.00568924 0)
(4.98574 -0.0119699 0)
(4.98479 -0.0134692 0)
(4.985 -0.0129639 0)
(4.98524 -0.0106343 0)
(4.98603 -0.00622895 0)
(4.98588 -0.00640961 0)
(4.98522 -0.00827745 0)
(4.98555 -0.00888495 0)
(4.98496 -0.00950644 0)
(4.9851 -0.00914423 0)
(4.98527 -0.00866417 0)
(4.98512 -0.00872146 0)
(4.9849 -0.00900725 0)
(4.98469 -0.00949586 0)
(4.98445 -0.00928549 0)
(4.98467 -0.00857846 0)
(4.98486 -0.0079276 0)
(4.98484 -0.00752221 0)
(4.98458 -0.0077031 0)
(4.98452 -0.00782423 0)
(4.98447 -0.00815105 0)
(4.98464 -0.00890058 0)
(4.98469 -0.00925992 0)
(5.02738 -0.241291 0)
(5.02752 -0.241292 0)
(5.02756 -0.241287 0)
(5.02761 -0.241285 0)
(5.02767 -0.241353 0)
(5.02769 -0.241448 0)
(5.02771 -0.241577 0)
(5.02786 -0.241465 0)
(5.02801 -0.2412 0)
(5.02806 -0.241135 0)
(5.02812 -0.240989 0)
(5.02812 -0.240775 0)
(5.02807 -0.240594 0)
(5.0281 -0.24046 0)
(5.02816 -0.240387 0)
(5.02815 -0.24034 0)
(5.02804 -0.240304 0)
(5.02795 -0.240208 0)
(5.02791 -0.240129 0)
(5.02787 -0.240115 0)
(5.02784 -0.240041 0)
(5.02774 -0.240005 0)
(5.0276 -0.240114 0)
(5.02738 -0.240178 0)
(5.02738 -0.239717 0)
(5.02743 -0.239021 0)
(5.0274 -0.238799 0)
(5.02738 -0.238805 0)
(5.02736 -0.238823 0)
(5.0273 -0.238745 0)
(5.02727 -0.238515 0)
(5.02727 -0.238296 0)
(5.02728 -0.238152 0)
(5.02727 -0.237948 0)
(5.02721 -0.237552 0)
(5.02716 -0.237027 0)
(5.02721 -0.236749 0)
(5.02724 -0.236726 0)
(5.02732 -0.236757 0)
(5.02743 -0.236695 0)
(5.02749 -0.236373 0)
(5.02758 -0.236152 0)
(5.02762 -0.236077 0)
(5.0276 -0.23605 0)
(5.02752 -0.236284 0)
(5.02749 -0.236668 0)
(5.02748 -0.236889 0)
(5.02765 -0.236784 0)
(5.02773 -0.236563 0)
(5.02766 -0.23618 0)
(5.02745 -0.235947 0)
(5.02721 -0.235294 0)
(5.02712 -0.234272 0)
(5.02706 -0.23389 0)
(5.02702 -0.233895 0)
(5.02699 -0.234107 0)
(5.02708 -0.234409 0)
(5.02724 -0.23475 0)
(5.02751 -0.234973 0)
(5.0278 -0.234748 0)
(5.02791 -0.23459 0)
(5.02792 -0.2341 0)
(5.02752 -0.233822 0)
(5.02726 -0.23379 0)
(5.02667 -0.233843 0)
(5.0262 -0.234083 0)
(5.02616 -0.233872 0)
(5.02587 -0.230959 0)
(5.02507 -0.226629 0)
(5.02191 -0.209563 0)
(5.01915 -0.197339 0)
(5.01207 -0.153701 0)
(5.00997 -0.136305 0)
(5.00335 -0.087392 0)
(5.00346 -0.075651 0)
(5.00202 -0.0563974 0)
(4.99949 -0.0425407 0)
(4.99649 -0.0295581 0)
(4.99231 -0.0183856 0)
(4.98784 -0.0127526 0)
(4.98675 -0.00644767 0)
(4.98588 -0.00776945 0)
(4.98495 -0.00971776 0)
(4.98428 -0.0125746 0)
(4.98518 -0.0109507 0)
(4.98542 -0.00979649 0)
(4.98565 -0.0081758 0)
(4.98558 -0.00808742 0)
(4.98532 -0.00878847 0)
(4.98508 -0.00999652 0)
(4.98505 -0.0100853 0)
(4.98499 -0.00941801 0)
(4.98515 -0.00858447 0)
(4.98518 -0.00824692 0)
(4.98523 -0.00815733 0)
(4.98492 -0.00789737 0)
(4.98481 -0.00776197 0)
(4.98484 -0.00810965 0)
(4.98491 -0.00850932 0)
(4.98492 -0.0092296 0)
(5.0273 -0.239801 0)
(5.02742 -0.239787 0)
(5.02754 -0.239786 0)
(5.02768 -0.239903 0)
(5.02778 -0.240038 0)
(5.02796 -0.239982 0)
(5.0281 -0.239844 0)
(5.02813 -0.239784 0)
(5.02814 -0.239636 0)
(5.02811 -0.239541 0)
(5.02809 -0.239503 0)
(5.02803 -0.239535 0)
(5.02796 -0.239477 0)
(5.02809 -0.239261 0)
(5.0281 -0.239224 0)
(5.02809 -0.239202 0)
(5.02802 -0.239218 0)
(5.02798 -0.239276 0)
(5.02791 -0.239337 0)
(5.0279 -0.239271 0)
(5.02799 -0.239089 0)
(5.02796 -0.23883 0)
(5.0279 -0.238803 0)
(5.02781 -0.238722 0)
(5.02776 -0.238229 0)
(5.02758 -0.237832 0)
(5.02744 -0.23777 0)
(5.02737 -0.237871 0)
(5.02731 -0.237947 0)
(5.02724 -0.237956 0)
(5.0272 -0.237942 0)
(5.02718 -0.237917 0)
(5.02718 -0.237792 0)
(5.02716 -0.237534 0)
(5.02707 -0.237227 0)
(5.02693 -0.236949 0)
(5.02678 -0.236789 0)
(5.02676 -0.236773 0)
(5.02681 -0.236791 0)
(5.02684 -0.2368 0)
(5.02692 -0.236762 0)
(5.02703 -0.236622 0)
(5.02716 -0.23646 0)
(5.02726 -0.236392 0)
(5.0273 -0.236514 0)
(5.02734 -0.236888 0)
(5.02746 -0.237133 0)
(5.0276 -0.237105 0)
(5.02759 -0.236901 0)
(5.0275 -0.236821 0)
(5.02735 -0.236716 0)
(5.02721 -0.236167 0)
(5.02705 -0.23528 0)
(5.02683 -0.234871 0)
(5.02675 -0.234906 0)
(5.02675 -0.235044 0)
(5.02679 -0.235207 0)
(5.02683 -0.235503 0)
(5.02695 -0.235735 0)
(5.02733 -0.235928 0)
(5.02756 -0.235759 0)
(5.02763 -0.235279 0)
(5.02748 -0.234843 0)
(5.02727 -0.23458 0)
(5.02663 -0.234798 0)
(5.026 -0.23523 0)
(5.02602 -0.235419 0)
(5.02647 -0.235495 0)
(5.02654 -0.23486 0)
(5.02622 -0.233879 0)
(5.02526 -0.230312 0)
(5.0231 -0.221864 0)
(5.02053 -0.207485 0)
(5.01397 -0.17103 0)
(5.01278 -0.150931 0)
(5.00216 -0.0790578 0)
(5.00603 -0.0689613 0)
(4.99657 -0.0146404 0)
(4.99624 -0.00884216 0)
(4.99162 0.0106801 0)
(4.98607 -0.00118525 0)
(4.98381 -0.0108463 0)
(4.98418 -0.013163 0)
(4.98459 -0.0128744 0)
(4.98559 -0.0105831 0)
(4.98634 -0.0059505 0)
(4.98616 -0.00655363 0)
(4.98546 -0.00811188 0)
(4.98489 -0.00973962 0)
(4.9849 -0.00981977 0)
(4.98495 -0.00913386 0)
(4.98529 -0.00875322 0)
(4.98532 -0.00851953 0)
(4.98517 -0.00870697 0)
(4.98506 -0.00881249 0)
(4.9848 -0.00826778 0)
(4.98473 -0.00777095 0)
(4.98482 -0.00801095 0)
(4.98467 -0.00904405 0)
(4.98474 -0.00925749 0)
(5.02653 -0.237066 0)
(5.02668 -0.237065 0)