/*--------------------------------*- C++ -*----------------------------------*\
  =========                 |
  \\      /  F ield         | OpenFOAM: The Open Source CFD Toolbox
   \\    /   O peration     | Website:  https://openfoam.org
    \\  /    A nd           | Version:  7
     \\/     M anipulation  |
\*---------------------------------------------------------------------------*/
FoamFile
{
    version     2.0;
    format      ascii;
    class       volScalarField;
    location    "5";
    object      rho;
}
// * * * * * * * * * * * * * * * * * * * * * * * * * * * * * * * * * * * * * //

dimensions      [1 -3 0 0 0 0 0];

internalField   nonuniform List<scalar> 
90000
(
0.543304
0.578562
0.615663
0.653882
0.686149
0.71656
0.751115
0.783749
0.814048
0.846433
0.880202
0.913424
0.946597
0.980925
1.01563
1.04951
1.08404
1.11719
1.15133
1.18233
1.21341
1.23828
1.26175
1.27377
1.27947
1.2838
1.28783
1.28695
1.28613
1.28496
1.28461
1.28261
1.28006
1.27709
1.27351
1.27
1.26601
1.26142
1.25581
1.25565
1.25839
1.26322
1.26889
1.27463
1.27965
1.28431
1.28742
1.29138
1.29078
1.28722
1.28069
1.27459
1.27155
1.27248
1.27583
1.28132
1.28662
1.29101
1.29089
1.28876
1.28426
1.27998
1.27743
1.27912
1.28388
1.28872
1.29104
1.29034
1.28769
1.2839
1.28404
1.28567
1.28937
1.29185
1.29118
1.28854
1.28729
1.28815
1.29049
1.29249
1.29208
1.29095
1.29093
1.29175
1.29249
1.29284
1.2928
1.29294
1.29298
1.29265
1.2918
1.29051
1.28817
1.28427
1.28142
1.27895
1.27643
1.27363
1.27125
1.26731
0.513541
0.513556
0.513573
0.513622
0.51374
0.514005
0.514677
0.515987
0.517895
0.521002
0.525541
0.532225
0.540916
0.553187
0.568368
0.588527
0.612358
0.642874
0.677467
0.719937
0.76619
0.819168
0.874989
0.931823
0.986089
1.03462
1.08077
1.11735
1.15195
1.17622
1.19973
1.21294
1.22646
1.23189
1.2385
1.24103
1.24455
1.2461
1.25236
1.26102
1.27105
1.27774
1.28286
1.28653
1.28726
1.28712
1.28644
1.2831
1.27382
1.26555
1.26223
1.26379
1.26529
1.26844
1.27337
1.27786
1.28288
1.28394
1.28161
1.27609
1.27053
1.27054
1.27327
1.27557
1.27887
1.28377
1.28315
1.28059
1.27652
1.27615
1.27848
1.283
1.28405
1.28349
1.28068
1.27905
1.27991
1.28269
1.28491
1.28476
1.28288
1.28223
1.28289
1.28464
1.28542
1.28509
1.28504
1.28554
1.28615
1.28575
1.28495
1.28372
1.28118
1.27776
1.27518
1.27251
1.26968
1.26706
1.26461
1.26108
0.51446
0.514515
0.514578
0.514648
0.51472
0.514814
0.514868
0.51492
0.514974
0.515024
0.515076
0.51514
0.515217
0.515304
0.515391
0.515488
0.515581
0.515732
0.516038
0.516878
0.518676
0.522629
0.529231
0.541384
0.558695
0.585108
0.617774
0.661709
0.711149
0.770667
0.83266
0.898931
0.964001
1.02509
1.08364
1.13177
1.17938
1.21427
1.24643
1.26248
1.27297
1.27778
1.28209
1.28489
1.28584
1.2838
1.27527
1.26009
1.24978
1.25254
1.25925
1.26607
1.27462
1.28076
1.2841
1.28371
1.28156
1.27531
1.26789
1.26405
1.26436
1.26645
1.27268
1.2814
1.283
1.2817
1.27748
1.27196
1.27055
1.27209
1.2766
1.28209
1.28182
1.27908
1.27507
1.27531
1.27669
1.27994
1.28233
1.28113
1.27949
1.27959
1.28045
1.28114
1.28144
1.28158
1.2818
1.28192
1.28179
1.28141
1.28095
1.27979
1.27734
1.27393
1.27135
1.26869
1.26585
1.26356
1.26127
1.25769
0.515822
0.515888
0.51596
0.516035
0.516114
0.516191
0.51627
0.516352
0.51644
0.516529
0.516621
0.516715
0.516812
0.516909
0.517007
0.517104
0.517201
0.517297
0.517395
0.517511
0.517554
0.517594
0.517636
0.517684
0.517733
0.517794
0.517846
0.518048
0.518755
0.521212
0.526408
0.538163
0.556512
0.588042
0.62872
0.686616
0.752277
0.83172
0.912169
0.988741
1.05923
1.11261
1.16109
1.18891
1.21485
1.22574
1.23413
1.23938
1.25666
1.26957
1.28312
1.2897
1.29533
1.29426
1.29194
1.28735
1.27335
1.26253
1.26071
1.26258
1.26744
1.2766
1.28564
1.28721
1.28511
1.27761
1.27124
1.26966
1.27117
1.27751
1.28356
1.28337
1.28038
1.27438
1.27371
1.27505
1.27977
1.28222
1.2812
1.27805
1.27764
1.27857
1.28047
1.28072
1.27991
1.27998
1.28081
1.28121
1.28072
1.28005
1.27969
1.27866
1.27596
1.27293
1.27028
1.26714
1.26392
1.26183
1.25955
1.25629
0.517214
0.517259
0.517307
0.517358
0.51741
0.517464
0.517517
0.517572
0.517627
0.517682
0.517738
0.517792
0.517844
0.517894
0.517945
0.517993
0.518041
0.518088
0.518137
0.518182
0.518228
0.518274
0.51832
0.518367
0.518412
0.518456
0.518496
0.518546
0.518569
0.518593
0.518617
0.518645
0.518671
0.518703
0.518725
0.519158
0.520905
0.527489
0.541031
0.570097
0.612414
0.67771
0.755205
0.848417
0.944481
1.03464
1.1227
1.1905
1.24057
1.25873
1.27372
1.27973
1.28629
1.28611
1.28296
1.27141
1.26086
1.26327
1.26857
1.27934
1.28808
1.29342
1.29064
1.28688
1.27702
1.27116
1.27088
1.27348
1.28203
1.28843
1.2867
1.28214
1.27528
1.27338
1.27486
1.2809
1.2848
1.28353
1.27935
1.27763
1.2782
1.28048
1.28176
1.281
1.28008
1.28019
1.28075
1.28095
1.2804
1.28009
1.27974
1.27867
1.27599
1.27314
1.27033
1.26685
1.26389
1.26176
1.25925
1.25564
0.518085
0.51811
0.518136
0.518163
0.51819
0.518217
0.518244
0.518271
0.518298
0.518326
0.518352
0.518378
0.518403
0.518428
0.518451
0.518475
0.518497
0.518521
0.518543
0.518566
0.518586
0.518607
0.518626
0.518645
0.518663
0.518683
0.518703
0.518724
0.518744
0.518767
0.518789
0.518815
0.518838
0.518864
0.518889
0.518901
0.518913
0.518928
0.518941
0.518961
0.518978
0.519327
0.521364
0.530251
0.550027
0.592725
0.656409
0.751879
0.858569
0.96553
1.06426
1.12958
1.19241
1.21817
1.24477
1.24915
1.26431
1.28076
1.29831
1.30816
1.3074
1.30459
1.29277
1.27482
1.26929
1.27109
1.2779
1.28851
1.2977
1.29565
1.28807
1.27772
1.27424
1.27684
1.28423
1.28925
1.28783
1.28187
1.27891
1.2795
1.2824
1.28388
1.2831
1.28154
1.28094
1.28177
1.28196
1.28128
1.28064
1.28061
1.28047
1.27909
1.27641
1.27402
1.27094
1.26724
1.26442
1.26219
1.25954
1.25584
0.51855
0.51856
0.518571
0.518583
0.518594
0.518605
0.518616
0.518627
0.518638
0.518649
0.51866
0.51867
0.51868
0.518688
0.518697
0.518705
0.518714
0.518723
0.518731
0.51874
0.518748
0.518758
0.518768
0.518779
0.518791
0.518805
0.518822
0.518839
0.518858
0.518879
0.5189
0.518922
0.518942
0.518962
0.518981
0.519001
0.519024
0.519045
0.519065
0.519085
0.51911
0.519125
0.519127
0.519125
0.519123
0.519116
0.519212
0.52174
0.53109
0.5628
0.616274
0.709063
0.819773
0.94538
1.06779
1.16301
1.24252
1.27163
1.28911
1.29893
1.29879
1.29152
1.26609
1.26554
1.27143
1.28579
1.29763
1.30213
1.30038
1.28929
1.27709
1.27506
1.2782
1.28798
1.29369
1.29246
1.28525
1.28094
1.28125
1.28462
1.2871
1.28626
1.28449
1.28347
1.28432
1.28482
1.28375
1.28214
1.28212
1.28267
1.28212
1.28001
1.27768
1.27542
1.27209
1.2683
1.26591
1.2632
1.26037
1.25658
0.518778
0.518781
0.518785
0.51879
0.518794
0.518798
0.518802
0.518807
0.518811
0.518816
0.51882
0.518824
0.518828
0.518831
0.518836
0.51884
0.518845
0.518849
0.518854
0.518858
0.518864
0.518873
0.518884
0.518897
0.518911
0.51893
0.51895
0.51897
0.518992
0.519013
0.519033
0.519051
0.519068
0.519081
0.519095
0.519109
0.519122
0.519133
0.519145
0.519155
0.519166
0.519183
0.519193
0.5192
0.519204
0.519203
0.519194
0.519189
0.519193
0.519207
0.519222
0.52036
0.526724
0.554399
0.608333
0.713329
0.842266
0.976367
1.09133
1.16591
1.22178
1.24269
1.25424
1.27692
1.29822
1.31456
1.31386
1.30984
1.28925
1.27328
1.27378
1.27945
1.29164
1.30117
1.29908
1.28903
1.28176
1.282
1.28636
1.29086
1.29001
1.2875
1.28585
1.28682
1.28799
1.28724
1.28522
1.28424
1.2849
1.28526
1.28425
1.28196
1.2801
1.27811
1.27441
1.27064
1.2679
1.26503
1.26192
1.25817
0.518898
0.5189
0.518904
0.518907
0.51891
0.518912
0.518915
0.518918
0.518921
0.518924
0.518928
0.518931
0.518935
0.518939
0.518944
0.51895
0.518957
0.518964
0.518973
0.518981
0.518989
0.519
0.519014
0.519032
0.519052
0.519074
0.519094
0.519111
0.519128
0.519145
0.519157
0.519166
0.519172
0.519178
0.519185
0.51919
0.519193
0.519197
0.519202
0.519211
0.51922
0.51923
0.519243
0.519255
0.519262
0.519269
0.51928
0.519294
0.519316
0.519346
0.519372
0.519392
0.519404
0.519417
0.519418
0.52075
0.529785
0.56848
0.644092
0.770071
0.918451
1.06739
1.19426
1.26293
1.28744
1.30377
1.30341
1.28995
1.26108
1.26796
1.28247
1.29749
1.30376
1.30163
1.29089
1.27987
1.2806
1.28725
1.29321
1.29246
1.29013
1.28719
1.2877
1.28988
1.28987
1.28862
1.2862
1.28635
1.28773
1.28741
1.28546
1.28347
1.28238
1.28034
1.27643
1.27281
1.26982
1.26651
1.26333
1.25971
0.518965
0.518968
0.518973
0.518977
0.518982
0.518987
0.518993
0.518999
0.519006
0.519012
0.51902
0.519027
0.519037
0.519046
0.519054
0.519064
0.519075
0.519088
0.519099
0.519108
0.519118
0.51913
0.519145
0.519161
0.51918
0.519195
0.519205
0.519212
0.519218
0.519223
0.519226
0.519225
0.519219
0.519215
0.519214
0.519213
0.519209
0.519206
0.519206
0.519211
0.519223
0.519236
0.519255
0.519275
0.519295
0.519323
0.519349
0.519375
0.519406
0.51943
0.51945
0.519467
0.519462
0.519447
0.519427
0.519409
0.519407
0.519411
0.519488
0.523376
0.545949
0.612206
0.741099
0.901536
1.04512
1.15395
1.21392
1.24151
1.25644
1.29151
1.31044
1.31354
1.30998
1.28856
1.27607
1.27754
1.2863
1.29755
1.2971
1.29299
1.28664
1.287
1.29057
1.29211
1.29097
1.28731
1.28677
1.28875
1.28951
1.28842
1.28615
1.2848
1.2841
1.28211
1.27809
1.27481
1.27132
1.26735
1.26424
1.26095
0.51907
0.519077
0.519085
0.519095
0.519105
0.519114
0.519125
0.519136
0.519145
0.519155
0.519166
0.519176
0.519186
0.519198
0.519208
0.519217
0.519227
0.519237
0.519242
0.519247
0.519252
0.51926
0.51927
0.519279
0.519288
0.51929
0.519289
0.519287
0.519283
0.519278
0.519273
0.519265
0.519248
0.519229
0.519225
0.519224
0.519217
0.519207
0.519206
0.519209
0.519226
0.519257
0.519293
0.519326
0.519361
0.519398
0.51943
0.519464
0.519495
0.51951
0.519524
0.519522
0.519506
0.51947
0.519429
0.519404
0.519401
0.519403
0.519433
0.519477
0.51952
0.519549
0.522121
0.543081
0.611998
0.740953
0.911112
1.09267
1.21854
1.27903
1.2957
1.30303
1.28942
1.26534
1.27126
1.28748
1.29948
1.29922
1.29431
1.28464
1.28425
1.28866
1.29337
1.29274
1.28826
1.28572
1.28791
1.29123
1.29052
1.28745
1.28553
1.28592
1.28545
1.28298
1.27918
1.27591
1.27209
1.2676
1.26464
1.26162
0.519243
0.519251
0.51926
0.51927
0.519279
0.519288
0.519295
0.519303
0.519311
0.519318
0.519325
0.51933
0.519337
0.519343
0.519348
0.519354
0.519356
0.519353
0.519349
0.51935
0.519349
0.51935
0.519356
0.519359
0.519359
0.519357
0.519353
0.519347
0.519339
0.51933
0.519319
0.519306
0.519292
0.519272
0.519258
0.519256
0.519256
0.519258
0.519264
0.519281
0.519309
0.519348
0.519386
0.519418
0.519455
0.519491
0.519522
0.519552
0.519575
0.519586
0.519591
0.519586
0.519564
0.51951
0.519445
0.519424
0.519423
0.519428
0.519443
0.519481
0.519539
0.519587
0.519616
0.519631
0.519609
0.521955
0.547576
0.626516
0.792148
0.977953
1.10236
1.21666
1.23247
1.26612
1.2863
1.30951
1.30845
1.30001
1.28053
1.28039
1.28508
1.29445
1.29426
1.28898
1.28431
1.28559
1.2913
1.29173
1.28935
1.28594
1.28551
1.28707
1.28636
1.28367
1.2801
1.27659
1.27242
1.26795
1.26504
1.26225
0.519388
0.519392
0.519396
0.519399
0.519403
0.519407
0.51941
0.519412
0.519415
0.519419
0.519421
0.519421
0.519421
0.519421
0.519419
0.51942
0.519419
0.519405
0.519394
0.519393
0.519394
0.519392
0.519392
0.519399
0.519402
0.519402
0.5194
0.519396
0.519391
0.519383
0.519375
0.519363
0.519348
0.519344
0.519342
0.519342
0.519343
0.519348
0.519354
0.519369
0.519397
0.519431
0.519459
0.519485
0.519512
0.51954
0.519569
0.519594
0.519611
0.519623
0.519636
0.519635
0.519616
0.519552
0.519508
0.519507
0.519507
0.519506
0.519526
0.519574
0.5196
0.519618
0.519641
0.519642
0.519628
0.519616
0.519611
0.519619
0.527806
0.566838
0.690999
0.875131
1.06415
1.23186
1.27351
1.30119
1.29824
1.27243
1.26872
1.28025
1.2975
1.29686
1.29008
1.28066
1.28161
1.28949
1.29326
1.29142
1.28523
1.28478
1.28713
1.28783
1.28656
1.28347
1.28069
1.27704
1.27159
1.26742
1.26557
1.26313
0.519439
0.519441
0.519442
0.519444
0.519445
0.519447
0.519451
0.519454
0.519455
0.519455
0.519456
0.519457
0.519461
0.519459
0.519453
0.51945
0.519445
0.519429
0.519421
0.519419
0.519416
0.519415
0.519415
0.519418
0.519421
0.519425
0.519428
0.519431
0.51943
0.519427
0.519421
0.519415
0.519416
0.519416
0.519417
0.519426
0.519447
0.519456
0.51946
0.51947
0.519483
0.519497
0.519508
0.519517
0.51953
0.51955
0.519574
0.519587
0.519589
0.519606
0.51964
0.519645
0.519633
0.519598
0.519602
0.519614
0.519614
0.519613
0.519625
0.51963
0.519625
0.519636
0.519637
0.519622
0.519617
0.519618
0.519632
0.51969
0.519778
0.519869
0.52104
0.536427
0.626188
0.795005
0.985781
1.16303
1.20407
1.24512
1.27133
1.30566
1.30802
1.29799
1.27659
1.27713
1.28525
1.29554
1.2938
1.28568
1.28251
1.28509
1.28938
1.28836
1.28521
1.28325
1.28098
1.27666
1.27057
1.26689
1.26621
1.26416
0.519443
0.519441
0.519441
0.519442
0.519438
0.519433
0.519429
0.519422
0.519414
0.519412
0.519412
0.519415
0.519415
0.519414
0.519412
0.519414
0.519416
0.519412
0.519401
0.519395
0.519395
0.519396
0.519398
0.519404
0.519415
0.519427
0.519438
0.519448
0.519455
0.519461
0.519469
0.519484
0.519506
0.519512
0.519518
0.519543
0.519567
0.519567
0.519556
0.519547
0.519536
0.519531
0.519526
0.519514
0.519508
0.519512
0.51951
0.519513
0.519533
0.519584
0.519626
0.519633
0.519627
0.519634
0.519654
0.519677
0.519676
0.519672
0.51967
0.51965
0.519625
0.519621
0.519616
0.519607
0.519605
0.51962
0.5197
0.519838
0.520005
0.520182
0.520224
0.520252
0.520233
0.52642
0.587956
0.731396
0.947645
1.16536
1.24948
1.29455
1.29323
1.26774
1.2685
1.28338
1.29711
1.29655
1.28624
1.27879
1.28134
1.29079
1.29042
1.28671
1.28311
1.28301
1.28108
1.27519
1.2701
1.26642
1.26697
1.26533
0.519378
0.519377
0.519375
0.519373
0.519371
0.519372
0.519372
0.519374
0.519377
0.519381
0.519384
0.519386
0.519387
0.51939
0.519395
0.519402
0.519406
0.519409
0.51941
0.519418
0.519437
0.519457
0.519474
0.519492
0.519511
0.519529
0.519547
0.519565
0.519582
0.519602
0.519625
0.519644
0.519647
0.519648
0.519655
0.519661
0.51966
0.519655
0.51964
0.519616
0.519587
0.519565
0.519538
0.519501
0.519481
0.519471
0.519464
0.519469
0.519508
0.519586
0.519628
0.519665
0.519686
0.519682
0.519678
0.519685
0.519684
0.519676
0.519677
0.519659
0.519605
0.5196
0.519604
0.519604
0.519607
0.519653
0.519826
0.52002
0.520192
0.520294
0.520312
0.520295
0.520244
0.520127
0.519917
0.522138
0.566779
0.69651
0.908092
1.11835
1.19329
1.24072
1.27137
1.30926
1.30721
1.29085
1.27464
1.27735
1.2893
1.2948
1.29017
1.28298
1.28244
1.28316
1.28027
1.27341
1.26941
1.26793
1.26774
1.26596
0.519341
0.519341
0.519342
0.519342
0.519344
0.519348
0.519354
0.519361
0.519368
0.519375
0.519384
0.519397
0.519411
0.519421
0.519431
0.519444
0.519462
0.51948
0.519498
0.519517
0.519536
0.519555
0.519577
0.519598
0.519619
0.519641
0.519664
0.519683
0.519699
0.519711
0.519708
0.519687
0.51967
0.51967
0.519679
0.519682
0.519683
0.519679
0.519664
0.519642
0.519625
0.519602
0.519541
0.519463
0.519447
0.519436
0.519433
0.519452
0.519514
0.519608
0.519687
0.519737
0.519745
0.51973
0.519688
0.519674
0.519664
0.51965
0.519661
0.519654
0.519603
0.519593
0.519604
0.519646
0.519689
0.519807
0.520012
0.520156
0.520275
0.520332
0.520328
0.520283
0.520131
0.519906
0.51969
0.519693
0.519741
0.520843
0.556689
0.672379
0.895946
1.14095
1.24725
1.29723
1.2931
1.26641
1.27207
1.2885
1.29861
1.29467
1.28144
1.27988
1.28397
1.28351
1.27779
1.27162
1.26955
1.27076
1.26907
1.26605
0.519345
0.519348
0.519348
0.519346
0.519347
0.519353
0.51937
0.519394
0.519421
0.519448
0.519476
0.51951
0.51952
0.519517
0.519517
0.519523
0.519531
0.519539
0.519545
0.519554
0.519564
0.519582
0.519603
0.519625
0.519643
0.51966
0.519676
0.519686
0.519694
0.519708
0.519698
0.519649
0.519621
0.519622
0.519627
0.519623
0.519626
0.519631
0.519627
0.519621
0.519629
0.519622
0.519556
0.519463
0.519457
0.519465
0.519495
0.519553
0.519646
0.519752
0.519811
0.519804
0.51979
0.519756
0.519684
0.519606
0.519566
0.519555
0.519587
0.519656
0.519659
0.519652
0.519682
0.519782
0.519908
0.52011
0.520212
0.520225
0.520282
0.520336
0.520314
0.520182
0.519945
0.519732
0.519636
0.519648
0.519735
0.519923
0.520005
0.520551
0.550027
0.672034
0.890957
1.12445
1.19079
1.24411
1.28304
1.3085
1.30516
1.28254
1.2745
1.27987
1.28747
1.28415
1.27605
1.27111
1.27391
1.27301
1.26967
1.26592
0.519458
0.519471
0.51949
0.519497
0.519496
0.519494
0.519503
0.519524
0.519557
0.519597
0.519613
0.519612
0.519604
0.519584
0.519581
0.51958
0.519574
0.519557
0.519549
0.519547
0.519547
0.519554
0.519574
0.519601
0.519626
0.519639
0.519643
0.519648
0.51966
0.519648
0.519581
0.519484
0.51946
0.519462
0.519494
0.519564
0.519591
0.519608
0.519622
0.519626
0.519625
0.519647
0.519652
0.519608
0.519592
0.519597
0.51962
0.519659
0.519757
0.519879
0.519894
0.519866
0.519786
0.519667
0.519565
0.519483
0.519474
0.519476
0.519512
0.519657
0.519854
0.519917
0.519919
0.519982
0.520162
0.520331
0.520334
0.520284
0.520294
0.52028
0.520183
0.519972
0.519767
0.519668
0.519643
0.519691
0.519899
0.520096
0.520197
0.520185
0.520031
0.520294
0.552768
0.675608
0.919825
1.16931
1.25947
1.2965
1.28857
1.26437
1.27514
1.29176
1.28952
1.27994
1.27349
1.27565
1.27833
1.27422
1.26829
1.26578
0.5197
0.519681
0.519671
0.519674
0.519676
0.519675
0.519664
0.519671
0.519685
0.519686
0.519682
0.519667
0.519636
0.519602
0.519575
0.519555
0.519534
0.519504
0.519474
0.519467
0.519468
0.519474
0.519501
0.519539
0.519555
0.519558
0.51956
0.519576
0.519572
0.519524
0.519412
0.51937
0.519369
0.519386
0.519436
0.519533
0.519613
0.519646
0.519708
0.519801
0.519817
0.5198
0.519819
0.519799
0.519699
0.519668
0.519661
0.519673
0.519746
0.519872
0.519912
0.519869
0.519778
0.519617
0.519453
0.51942
0.519449
0.519478
0.519539
0.519739
0.52006
0.520233
0.520208
0.520209
0.520314
0.520394
0.520385
0.520351
0.520248
0.520083
0.519884
0.519723
0.519683
0.519698
0.519738
0.519873
0.520099
0.520239
0.520234
0.520116
0.519742
0.519243
0.518991
0.519632
0.559931
0.708062
0.94129
1.16234
1.22479
1.25403
1.30165
1.30344
1.29103
1.27511
1.27733
1.2852
1.28213
1.27084
1.26663
1.26682
0.519734
0.519709
0.519695
0.519698
0.519701
0.519695
0.519674
0.519643
0.519614
0.519587
0.519557
0.519507
0.519461
0.519424
0.519392
0.519385
0.519387
0.519387
0.519391
0.519406
0.519406
0.519411
0.519463
0.519513
0.51952
0.519521
0.519523
0.51954
0.519543
0.519499
0.51945
0.519437
0.519437
0.519474
0.519572
0.519586
0.51959
0.51964
0.519807
0.519954
0.519967
0.519926
0.519925
0.519899
0.519763
0.51966
0.519638
0.519637
0.519679
0.51972
0.5198
0.519846
0.519808
0.519631
0.519449
0.519419
0.519501
0.519659
0.519796
0.520007
0.520274
0.520411
0.520414
0.520385
0.520374
0.520394
0.520361
0.520227
0.520022
0.519798
0.519616
0.519616
0.519697
0.519848
0.519984
0.520118
0.520267
0.520268
0.52018
0.519867
0.519341
0.518953
0.518951
0.519166
0.519557
0.521567
0.573429
0.7431
1.01884
1.20983
1.29447
1.28927
1.26623
1.27597
1.28941
1.28949
1.27987
1.26589
1.26606
1.26945
0.51973
0.519709
0.519692
0.519665
0.51962
0.51957
0.519524
0.519487
0.51947
0.519457
0.519436
0.519403
0.519385
0.519375
0.519352
0.519335
0.519347
0.519353
0.519366
0.519416
0.519435
0.519461
0.519575
0.519723
0.519756
0.519783
0.519825
0.519843
0.519844
0.519851
0.519896
0.519901
0.519845
0.519811
0.519845
0.51986
0.519826
0.519847
0.520005
0.52008
0.520081
0.519992
0.519919
0.519898
0.519755
0.519611
0.519597
0.519615
0.519596
0.519572
0.519639
0.519859
0.519932
0.51988
0.519739
0.519686
0.519777
0.520025
0.52017
0.520301
0.520468
0.520537
0.52054
0.520488
0.520404
0.520333
0.520209
0.520008
0.519794
0.519631
0.519584
0.519641
0.519832
0.520109
0.520252
0.520307
0.520311
0.520208
0.519888
0.519376
0.518987
0.518859
0.518995
0.519704
0.520373
0.520437
0.520177
0.524038
0.595631
0.810008
1.08903
1.18083
1.24404
1.29541
1.30351
1.29358
1.2665
1.26348
1.27343
1.27275
0.519452
0.519445
0.519445
0.519458
0.51948
0.519483
0.519478
0.519461
0.519447
0.519456
0.519473
0.519477
0.51948
0.519476
0.519476
0.519514
0.519543
0.519544
0.519569
0.519694
0.519756
0.519801
0.519942
0.520098
0.520138
0.520162
0.520193
0.520197
0.520158
0.52013
0.520142
0.520174
0.520111
0.519943
0.519937
0.519947
0.519912
0.519917
0.519897
0.519856
0.519803
0.519655
0.51953
0.519541
0.519476
0.519394
0.519408
0.519437
0.519425
0.519441
0.519601
0.519985
0.520275
0.520317
0.520258
0.520106
0.520138
0.52029
0.520361
0.520398
0.520509
0.520544
0.520518
0.520398
0.520167
0.520008
0.519911
0.519785
0.519663
0.519594
0.51965
0.519834
0.520047
0.520285
0.520351
0.520394
0.520221
0.519772
0.519195
0.518854
0.518711
0.518817
0.519416
0.520254
0.520486
0.520375
0.519759
0.519109
0.518791
0.534207
0.636567
0.89752
1.16639
1.26749
1.29144
1.26868
1.25792
1.27156
1.28021
1.27292
0.519596
0.519579
0.519556
0.519524
0.519492
0.519467
0.519463
0.519478
0.519508
0.519523
0.519524
0.519518
0.519517
0.519528
0.519563
0.519645
0.519686
0.51967
0.519653
0.519703
0.51984
0.519852
0.519874
0.519983
0.520151
0.520215
0.520207
0.520176
0.520154
0.520151
0.520191
0.520241
0.520176
0.519964
0.519901
0.519861
0.519702
0.519544
0.519449
0.519334
0.519174
0.519047
0.519072
0.519111
0.519083
0.519119
0.51932
0.51943
0.519435
0.519468
0.519676
0.520104
0.520408
0.520449
0.520371
0.52025
0.520311
0.520398
0.520418
0.520434
0.520359
0.520185
0.519935
0.51961
0.519472
0.519504
0.519541
0.519532
0.519547
0.519619
0.519774
0.519955
0.520139
0.520326
0.520323
0.520117
0.519527
0.518842
0.518401
0.518405
0.518477
0.519025
0.519974
0.520379
0.520281
0.519616
0.518731
0.51835
0.518429
0.519279
0.519616
0.55417
0.711017
0.961822
1.17378
1.22583
1.26281
1.29272
1.28718
1.26497
0.519766
0.519738
0.519609
0.519514
0.519524
0.519524
0.519506
0.51952
0.519548
0.519555
0.519523
0.519435
0.519397
0.5194
0.519408
0.519423
0.519446
0.519436
0.519412
0.519361
0.519259
0.519228
0.519228
0.519233
0.519319
0.519488
0.519573
0.519641
0.519753
0.51993
0.520002
0.519972
0.519855
0.519704
0.51936
0.518837
0.518731
0.518843
0.518866
0.518763
0.518623
0.518611
0.518699
0.518868
0.518857
0.518876
0.519165
0.519581
0.519609
0.519582
0.5197
0.520092
0.520287
0.520278
0.520184
0.520133
0.520195
0.520205
0.520097
0.519844
0.519587
0.51926
0.518928
0.518802
0.518843
0.518947
0.519074
0.519193
0.519277
0.519336
0.519537
0.519701
0.519764
0.519673
0.519472
0.519037
0.518467
0.518007
0.517951
0.518028
0.518605
0.519662
0.520282
0.520127
0.51942
0.518404
0.518004
0.518061
0.518709
0.519806
0.519894
0.519265
0.52102
0.584134
0.793338
1.08613
1.23755
1.28288
1.27044
1.25708
0.519521
0.51948
0.519327
0.519107
0.519006
0.519
0.519032
0.519036
0.518945
0.51883
0.518794
0.518742
0.518726
0.518713
0.518689
0.518675
0.518679
0.518702
0.518694
0.518604
0.518319
0.518102
0.518096
0.518126
0.518137
0.518254
0.518514
0.518543
0.518544
0.518641
0.518882
0.518965
0.51894
0.518859
0.518621
0.518295
0.518295
0.518359
0.518335
0.518384
0.51849
0.518519
0.518735
0.519251
0.519329
0.519368
0.51961
0.519713
0.5197
0.519658
0.519789
0.519872
0.519848
0.519703
0.519512
0.519425
0.519375
0.519341
0.519257
0.519174
0.519068
0.518851
0.51857
0.518489
0.518548
0.518703
0.518921
0.519086
0.519302
0.519661
0.519808
0.519716
0.519566
0.519206
0.5188
0.518256
0.517967
0.517798
0.517936
0.518616
0.5197
0.520523
0.520383
0.519606
0.518521
0.517888
0.517955
0.518582
0.519808
0.520296
0.519887
0.51883
0.518419
0.518686
0.529439
0.643344
0.892144
1.13557
1.20926
1.25943
0.518994
0.518923
0.518795
0.518617
0.518528
0.518526
0.518538
0.518512
0.518373
0.518305
0.518313
0.518355
0.518422
0.518515
0.5186
0.518609
0.518627
0.518676
0.518676
0.518606
0.518344
0.51808
0.518056
0.518107
0.518232
0.518357
0.518594
0.518718
0.518672
0.518707
0.519025
0.519244
0.519246
0.519138
0.51916
0.519278
0.519279
0.519292
0.519381
0.519718
0.520042
0.520247
0.520614
0.520877
0.520873
0.520952
0.521126
0.521152
0.52098
0.520515
0.520204
0.520028
0.519882
0.519651
0.519392
0.519297
0.51925
0.519209
0.519193
0.519206
0.51918
0.519054
0.518915
0.518927
0.519079
0.519491
0.519974
0.520316
0.520715
0.5209
0.520773
0.520234
0.519468
0.518782
0.518389
0.517984
0.517966
0.518555
0.519832
0.520928
0.521477
0.521197
0.520442
0.519169
0.51832
0.518172
0.519111
0.520642
0.521526
0.521045
0.519886
0.518733
0.519478
0.520785
0.521099
0.520773
0.556725
0.722167
1.01094
1.23013
0.518758
0.51875
0.518701
0.51858
0.518539
0.518557
0.518553
0.518486
0.518419
0.518422
0.518478
0.518604
0.518747
0.518916
0.519145
0.519202
0.519171
0.519203
0.519358
0.519511
0.519508
0.519366
0.519241
0.519275
0.519423
0.519456
0.519546
0.519896
0.520083
0.520058
0.520094
0.520571
0.521321
0.521475
0.5215
0.521603
0.521848
0.52193
0.52193
0.52184
0.521793
0.521853
0.521869
0.521769
0.521574
0.521434
0.521356
0.5213
0.521014
0.520469
0.520242
0.520159
0.520073
0.519932
0.519762
0.519597
0.519553
0.519617
0.519855
0.520232
0.52057
0.520942
0.521302
0.521572
0.521885
0.522218
0.522106
0.521882
0.521711
0.521488
0.520921
0.520095
0.519517
0.518904
0.518949
0.519465
0.520891
0.522463
0.523583
0.523465
0.522842
0.521668
0.52046
0.519178
0.519522
0.521293
0.523338
0.523733
0.523177
0.521996
0.520293
0.521361
0.523027
0.523272
0.5229
0.521679
0.522052
0.52577
0.591029
0.921874
0.521449
0.521497
0.521502
0.521572
0.521867
0.522525
0.523046
0.523073
0.522856
0.522757
0.522864
0.523321
0.523969
0.52456
0.525248
0.525691
0.525834
0.525972
0.526107
0.526143
0.52609
0.525925
0.52569
0.525496
0.525409
0.525406
0.525394
0.525366
0.525482
0.525619
0.525588
0.525496
0.525445
0.525368
0.525258
0.525254
0.525142
0.524784
0.524332
0.523932
0.523782
0.523834
0.524031
0.524112
0.524048
0.523826
0.523595
0.523528
0.523404
0.523296
0.52332
0.523482
0.523832
0.523953
0.523944
0.523817
0.523775
0.523859
0.5241
0.524368
0.524665
0.524984
0.52518
0.52525
0.525207
0.524967
0.524415
0.523684
0.523459
0.523317
0.52282
0.522643
0.522834
0.523469
0.52443
0.525312
0.526201
0.526146
0.525811
0.524975
0.523726
0.522101
0.521871
0.523277
0.52544
0.527674
0.527359
0.526206
0.52401
0.522812
0.524366
0.527188
0.526766
0.525852
0.524498
0.525558
0.526987
0.528189
0.527873
0.612257
0.53105
0.531056
0.531136
0.53112
0.530957
0.530965
0.530971
0.530908
0.530713
0.530452
0.530359
0.530367
0.530607
0.530947
0.530986
0.530941
0.531008
0.531207
0.531179
0.530709
0.530229
0.529988
0.52968
0.529113
0.528429
0.528286
0.528266
0.528113
0.52777
0.527456
0.52726
0.527088
0.52692
0.526792
0.526705
0.526489
0.525866
0.524691
0.524172
0.524042
0.523983
0.524091
0.524401
0.524579
0.52455
0.524257
0.52413
0.524257
0.524533
0.524763
0.525033
0.525406
0.526167
0.527174
0.527669
0.527973
0.528079
0.52818
0.528377
0.52844
0.528205
0.527977
0.528055
0.527898
0.527372
0.526643
0.526323
0.526086
0.525914
0.526035
0.526745
0.528269
0.529917
0.531361
0.531608
0.531282
0.530253
0.528969
0.527702
0.527289
0.528098
0.530132
0.532561
0.534978
0.534822
0.533447
0.531519
0.530076
0.531491
0.534169
0.536617
0.535914
0.534549
0.534762
0.535988
0.537461
0.537134
0.536109
0.536209
0.536812
0.542489
0.542135
0.541946
0.541922
0.541872
0.541753
0.541559
0.541522
0.54159
0.541578
0.541368
0.541238
0.5414
0.541452
0.541231
0.541126
0.541229
0.541859
0.542544
0.542646
0.542731
0.54307
0.543435
0.543773
0.54417
0.544558
0.544804
0.545009
0.545279
0.545456
0.545643
0.546057
0.546208
0.546343
0.546932
0.547389
0.547673
0.548224
0.548973
0.549159
0.549164
0.549638
0.550653
0.550759
0.550767
0.551062
0.551888
0.553087
0.553509
0.553266
0.552974
0.552929
0.553005
0.553415
0.553839
0.553841
0.553605
0.553053
0.552442
0.551827
0.551383
0.551236
0.551096
0.550731
0.550518
0.550698
0.551215
0.551936
0.552374
0.552554
0.552669
0.552528
0.552319
0.552115
0.551806
0.551395
0.550855
0.550959
0.551389
0.552179
0.552972
0.553481
0.553094
0.552017
0.550716
0.549752
0.550371
0.551771
0.553319
0.553024
0.552084
0.550707
0.5509
0.551548
0.551868
0.551602
0.551616
0.552129
0.552593
0.552474
0.5756
0.575371
0.575434
0.575531
0.575178
0.574771
0.574698
0.574808
0.575244
0.575461
0.57542
0.575266
0.575155
0.574964
0.574841
0.574906
0.574884
0.574593
0.574527
0.574576
0.574548
0.574349
0.574214
0.574216
0.57435
0.574499
0.574439
0.574297
0.574331
0.574607
0.574999
0.575218
0.57539
0.575552
0.575733
0.575939
0.576037
0.575993
0.575663
0.574787
0.573655
0.572722
0.572092
0.571728
0.571396
0.570784
0.570482
0.570417
0.570196
0.56963
0.568695
0.567438
0.565903
0.564654
0.564119
0.563863
0.563812
0.563796
0.563661
0.563391
0.562985
0.562697
0.562821
0.563214
0.563822
0.564762
0.565612
0.56615
0.566346
0.566503
0.566374
0.565899
0.565198
0.564443
0.563881
0.56398
0.564374
0.564799
0.5653
0.565201
0.564806
0.564115
0.563177
0.562701
0.563164
0.564185
0.565524
0.565418
0.56451
0.563222
0.562578
0.56317
0.56403
0.564271
0.563942
0.564007
0.563823
0.563306
0.562543
0.562007
0.603648
0.60364
0.603645
0.603636
0.603556
0.603348
0.603027
0.602659
0.60236
0.60234
0.602423
0.602388
0.60224
0.602236
0.602212
0.601821
0.601429
0.601506
0.601541
0.601355
0.601084
0.600614
0.600052
0.600028
0.600084
0.599878
0.599194
0.59804
0.597051
0.596444
0.595893
0.595212
0.594528
0.593985
0.593593
0.593228
0.593066
0.59315
0.593208
0.593319
0.593625
0.594127
0.594554
0.594706
0.594619
0.594554
0.594621
0.594729
0.594704
0.594418
0.594002
0.594025
0.594346
0.594833
0.595692
0.596904
0.597139
0.597277
0.597763
0.598111
0.598287
0.598615
0.598626
0.59843
0.597949
0.597258
0.596315
0.595167
0.594099
0.593223
0.592366
0.591535
0.590903
0.590278
0.58965
0.589624
0.58962
0.589464
0.588824
0.587998
0.587149
0.586558
0.586236
0.585892
0.585656
0.58519
0.584213
0.583015
0.581502
0.581591
0.581514
0.581108
0.580559
0.579476
0.57854
0.57802
0.577365
0.576559
0.576924
0.577023
0.637867
0.637643
0.637598
0.637779
0.637822
0.637568
0.637171
0.637038
0.636884
0.636614
0.636482
0.636488
0.636533
0.636763
0.636771
0.636755
0.63693
0.636866
0.636962
0.637246
0.637172
0.637213
0.637494
0.63751
0.637487
0.637513
0.637558
0.637458
0.637138
0.63713
0.637205
0.637077
0.636653
0.636558
0.636508
0.636248
0.635678
0.635053
0.634829
0.634981
0.63502
0.634375
0.633333
0.632775
0.632643
0.632739
0.632976
0.63303
0.632968
0.632406
0.631419
0.630716
0.630042
0.629217
0.628272
0.627205
0.626233
0.625445
0.624504
0.623119
0.6215
0.61981
0.618225
0.617292
0.616575
0.615387
0.613864
0.612499
0.611658
0.611385
0.611545
0.611904
0.612552
0.612791
0.612599
0.612358
0.611946
0.611353
0.610296
0.609314
0.608242
0.607371
0.606671
0.605815
0.605125
0.604393
0.603786
0.603226