/*--------------------------------*- C++ -*----------------------------------*\
  =========                 |
  \\      /  F ield         | OpenFOAM: The Open Source CFD Toolbox
   \\    /   O peration     | Website:  https://openfoam.org
    \\  /    A nd           | Version:  7
     \\/     M anipulation  |
\*---------------------------------------------------------------------------*/
FoamFile
{
    version     2.0;
    format      ascii;
    class       volScalarField;
    location    "2.5";
    object      T;
}
// * * * * * * * * * * * * * * * * * * * * * * * * * * * * * * * * * * * * * //

dimensions      [0 0 0 1 0 0 0];

internalField   nonuniform List<scalar> 
24000
(
0.614497
0.792524
0.865884
0.914715
0.989231
1.02602
1.04103
1.08373
1.13297
1.17531
1.22442
1.2703
1.32115
1.35484
1.37743
1.4221
1.42157
1.41538
1.41445
1.40405
1.37783
1.34684
1.31953
1.31529
1.32443
1.33854
1.35053
1.34951
1.3443
1.34639
1.35292
1.35664
1.3486
1.33955
1.34105
1.34803
1.35613
1.36404
1.37054
1.37361
1.37599
1.38055
1.39403
1.41169
1.41385
1.40302
1.37019
1.31732
1.29225
1.27467
0.427429
0.426877
0.426279
0.425612
0.424858
0.424092
0.423296
0.422523
0.421225
0.427106
0.467985
0.545878
0.663459
0.836279
0.98347
1.11396
1.24524
1.36014
1.37835
1.36958
1.35919
1.34709
1.3399
1.34345
1.35991
1.37964
1.3839
1.37762
1.37062
1.37438
1.3762
1.37291
1.35601
1.34964
1.35424
1.35931
1.36507
1.36791
1.37227
1.37543
1.37816
1.38254
1.3951
1.4136
1.41862
1.40921
1.37542
1.32432
1.30201
1.29056
0.423442
0.422973
0.422491
0.421886
0.421105
0.420285
0.419572
0.418906
0.418054
0.417058
0.416551
0.415989
0.415472
0.415507
0.416028
0.416798
0.434625
0.539387
0.683833
0.776907
0.882226
0.990267
1.07142
1.13398
1.18497
1.22888
1.27794
1.33197
1.37845
1.38766
1.38499
1.37109
1.34428
1.34721
1.35361
1.35981
1.36615
1.36954
1.37413
1.37689
1.37918
1.38279
1.3945
1.41366
1.42121
1.41193
1.37596
1.32419
1.30398
1.29653
0.418568
0.418186
0.417786
0.417053
0.416169
0.415468
0.414986
0.414582
0.414097
0.41344
0.413384
0.413381
0.413343
0.413507
0.414155
0.415231
0.416619
0.418841
0.422316
0.426494
0.431469
0.440442
0.453619
0.490812
0.572022
0.686595
0.814066
0.978594
1.14576
1.24271
1.30553
1.3329
1.3355
1.34827
1.35518
1.36066
1.36505
1.36725
1.37403
1.37743
1.37922
1.38247
1.3929
1.41098
1.4219
1.41209
1.37454
1.32249
1.30296
1.29675
0.414801
0.414547
0.414022
0.413138
0.412581
0.412375
0.412243
0.412109
0.411965
0.411899
0.411876
0.41197
0.412178
0.412483
0.413202
0.414323
0.415553
0.417415
0.420436
0.424016
0.427273
0.434058
0.446747
0.46241
0.474947
0.480892
0.484792
0.486355
0.522166
0.668151
0.892694
1.09675
1.25094
1.32589
1.34197
1.35883
1.36246
1.36191
1.37367
1.3783
1.37994
1.38259
1.39102
1.40655
1.42161
1.41275
1.37651
1.32295
1.30373
1.29543
0.412594
0.412174
0.411509
0.411232
0.41123
0.411316
0.411345
0.41132
0.411401
0.411523
0.411577
0.411638
0.411884
0.412273
0.412839
0.413634
0.414701
0.415963
0.418343
0.421241
0.424375
0.42961
0.441477
0.454409
0.466498
0.475707
0.48135
0.483446
0.482836
0.481652
0.48129
0.490365
0.718041
0.953778
1.12824
1.26105
1.31885
1.34482
1.37331
1.38247
1.38256
1.38398
1.38942
1.40071
1.41901
1.41314
1.38207
1.33061
1.30386
1.28854
0.41155
0.411136
0.411115
0.411155
0.411172
0.411253
0.41133
0.411359
0.411526
0.41161
0.411552
0.411432
0.411513
0.411857
0.412123
0.412508
0.413237
0.414299
0.415968
0.418944
0.422087
0.426704
0.437395
0.450165
0.460319
0.46974
0.476416
0.47838
0.478053
0.477982
0.478514
0.479197
0.48164
0.485803
0.548853
0.76157
1.00824
1.20266
1.33678
1.38503
1.3848
1.38763
1.38734
1.39281
1.4129
1.41256
1.38975
1.34543
1.31068
1.28252
0.411416
0.411294
0.41137
0.411472
0.411412
0.411399
0.411408
0.411341
0.411232
0.411155
0.411046
0.41078
0.410401
0.410352
0.410466
0.410738
0.411244
0.412095
0.413637
0.416827
0.420284
0.424902
0.434707
0.447281
0.457279
0.465756
0.472503
0.47513
0.47501
0.474999
0.475743
0.47774
0.481086
0.487307
0.4919
0.491759
0.492255
0.665495
1.00113
1.28081
1.38513
1.39005
1.38003
1.38092
1.39984
1.41108
1.39663
1.3627
1.32014
1.27076
0.411794
0.411652
0.411335
0.411025
0.410609
0.410387
0.410346
0.410269
0.410028
0.409758
0.409446
0.40891
0.408379
0.40823
0.408298
0.408612
0.409354
0.410295
0.411898
0.41526
0.419196
0.4242
0.433295
0.444877
0.455142
0.464239
0.471496
0.473899
0.473706
0.473619
0.474238
0.476849
0.480895
0.486707
0.493684
0.494132
0.494337
0.499174
0.505558
0.81965
1.25286
1.36514
1.36042
1.36098
1.37961
1.40327
1.39911
1.37485
1.33091
1.25945
0.410701
0.410084
0.409667
0.409391
0.408934
0.408821
0.408789
0.408666
0.408372
0.407989
0.407424
0.406748
0.406494
0.406539
0.406872
0.407582
0.408594
0.409686
0.411419
0.414803
0.418948
0.424137
0.432509
0.443023
0.453711
0.463319
0.470942
0.473551
0.473347
0.473318
0.474026
0.477068
0.482142
0.486565
0.493641
0.500524
0.505041
0.509909
0.517731
0.519873
0.695276
1.11802
1.27549
1.32389
1.35175
1.3836
1.39223
1.37781
1.33843
1.24895
0.407813
0.407216
0.407013
0.406786
0.406592
0.407146
0.407772
0.407771
0.407617
0.40726
0.406722
0.406389
0.406347
0.406476
0.407015
0.407973
0.409157
0.410516
0.412577
0.415678
0.419949
0.425836
0.432876
0.441812
0.452519
0.462575
0.470213
0.474392
0.475513
0.476923
0.480613
0.487646
0.495042
0.4974
0.498834
0.50538
0.514552
0.520341
0.525811
0.531201
0.532808
0.599214
0.97913
1.20906
1.29842
1.34179
1.36784
1.3652
1.33819
1.23969
0.405596
0.405613
0.405596
0.405377
0.405375
0.406095
0.408149
0.408578
0.408417
0.40778
0.407688
0.408664
0.410713
0.411945
0.412827
0.414034
0.415673
0.417348
0.418807
0.42091
0.424876
0.429959
0.435069
0.441686
0.451297
0.462618
0.474371
0.484495
0.49227
0.499219
0.504052
0.507416
0.510981
0.512048
0.512963
0.516437
0.525888
0.530741
0.532759
0.536922
0.542055
0.545974
0.561624
0.908593
1.16011
1.2863
1.31956
1.33238
1.31915
1.22674
0.409074
0.40932
0.409275
0.409251
0.409464
0.410383
0.413368
0.416341
0.41663
0.416444
0.416633
0.418968
0.421708
0.422737
0.42345
0.424227
0.425057
0.42579
0.426515
0.428123
0.431334
0.434893
0.438972
0.444894
0.457388
0.47662
0.493071
0.503836
0.511987
0.516868
0.517793
0.518469
0.520201
0.522492
0.52643
0.532805
0.541066
0.544918
0.54532
0.547771
0.552811
0.559538
0.563101
0.572913
0.86907
1.14481
1.26985
1.28914
1.27784
1.20005
0.426828
0.424761
0.423861
0.424106
0.425444
0.425676
0.425101
0.425043
0.426006
0.427511
0.427939
0.428102
0.428838
0.430502
0.431864
0.432416
0.432975
0.433684
0.434856
0.437556
0.440523
0.444723
0.452461
0.464463
0.481538
0.49992
0.514447
0.52124
0.525211
0.525034
0.523878
0.524078
0.527345
0.535101
0.544351
0.550959
0.555458
0.559585
0.562285
0.565302
0.570297
0.574957
0.579833
0.580078
0.590676
0.87775
1.14088
1.23015
1.22706
1.17024
0.437621
0.437548
0.43804
0.439038
0.440321
0.442214
0.442832
0.442414
0.44246
0.444089
0.444282
0.444334
0.44509
0.446842
0.448286
0.449729
0.452268
0.455518
0.459127
0.463698
0.468836
0.474833
0.48166
0.489721
0.502115
0.515629
0.527299
0.533468
0.534221
0.533399
0.534588
0.539354
0.547944
0.558281
0.565542
0.568486
0.570017
0.572316
0.575461
0.580053
0.583865
0.588074
0.591216
0.596762
0.59722
0.613304
0.872919
1.09681
1.14915
1.13324
0.470147
0.471014
0.470875
0.470827
0.472179
0.473039
0.472063
0.470915
0.470896
0.471731
0.473568
0.47431
0.475167
0.476595
0.478328
0.480051
0.482515
0.48531
0.486755
0.488028
0.490167
0.493151
0.496057
0.500972
0.510415
0.522453
0.533964
0.54626
0.555579
0.562401
0.568573
0.57504
0.580109
0.582665
0.584561
0.58462
0.585151
0.586988
0.59033
0.594427
0.598027
0.600503
0.604737
0.609931
0.614508
0.615513
0.626295
0.805986
0.999626
1.07514
0.495796
0.496212
0.496235
0.495993
0.495889
0.496376
0.497425
0.49761
0.497664
0.498513
0.499846
0.499878
0.499625
0.500027
0.50141
0.501742
0.502381
0.504196
0.506122
0.507371
0.509168
0.511742
0.515471
0.521329
0.530824
0.546733
0.567112
0.583658
0.591248
0.594623
0.596507
0.59818
0.598583
0.597895
0.598239
0.600323
0.603909
0.607447
0.611228
0.613524
0.616836
0.618842
0.620916
0.623962
0.627357
0.631365
0.634721
0.638382
0.699901
0.919756
0.525847
0.526227
0.526617
0.527072
0.527691
0.528263
0.528691
0.529426
0.530197
0.530091
0.530246
0.531154
0.531908
0.532726
0.533958
0.534884
0.536165
0.537015
0.538238
0.541012
0.543826
0.546102
0.549113
0.553697
0.56069
0.572734
0.588925
0.604367
0.612337
0.612857
0.612385
0.612255
0.612991
0.614819
0.617777
0.623322
0.629007
0.63237
0.633257
0.634531
0.63512
0.636712
0.638693
0.640668
0.643809
0.646993
0.65097
0.65534
0.655688
0.678596
0.558207
0.558349
0.558481
0.558755
0.559492
0.559962
0.560026
0.560261
0.560949
0.561676
0.562154
0.562559
0.563003
0.563793
0.564116
0.564407
0.565211
0.566185
0.567257
0.568271
0.569516
0.571007
0.572845
0.575286
0.579183
0.586943
0.600914
0.617591
0.633599
0.64132
0.643268
0.644284
0.645604
0.647369
0.649357
0.651558
0.651577
0.651112
0.650278
0.650545
0.652175
0.654185
0.656217
0.658283
0.660145
0.662541
0.665911
0.668646
0.669988
0.665601
0.586894
0.586945
0.58704
0.587366
0.58755
0.587531
0.587574
0.587916
0.588156
0.588266
0.588471
0.588797
0.589097
0.589393
0.589755
0.590119
0.590427
0.590763
0.591247
0.591936
0.592754
0.593649
0.594844
0.596657
0.599358
0.604655
0.615979
0.630699
0.644773
0.657285
0.664237
0.665914
0.666766
0.666775
0.666261
0.665528
0.665223
0.664824
0.665145
0.666649
0.668985
0.671112
0.672396
0.673454
0.67455
0.676314
0.678653
0.679945
0.679844
0.673118
0.601929
0.60195
0.601977
0.602005
0.602027
0.602058
0.602092
0.602123
0.602149
0.602148
0.602123
0.602113
0.602173
0.602352
0.602381
0.602377
0.602401
0.602486
0.60264
0.602889
0.603233
0.603647
0.604258
0.605338
0.606895
0.609491
0.614062
0.622348
0.638181
0.658131
0.669309
0.672948
0.675601
0.677189
0.677419
0.67798
0.679395
0.681161
0.682717
0.683776
0.684912
0.685903
0.686185
0.686478
0.687648
0.689456
0.690376
0.690664
0.689402
0.679983
0.604034
0.604
0.603988
0.603975
0.603951
0.603941
0.603945
0.603944
0.603942
0.603943
0.603862
0.603806
0.603839
0.60406
0.604196
0.604196
0.60422
0.60432
0.604487
0.604701
0.604997
0.605402
0.605907
0.606596
0.607679
0.609454
0.612365
0.616975
0.624556
0.636696
0.653227
0.668737
0.676195
0.679281
0.680423
0.681884
0.683899
0.685945
0.68802
0.689897
0.691289
0.692586
0.694326
0.695901
0.697239
0.698083
0.698434
0.698154
0.695485
0.686151
0.60398
0.603982
0.603971
0.603947
0.603954
0.603941
0.603946
0.60394
0.603923
0.604022
0.604063
0.60399
0.603998
0.604156
0.604363
0.604507
0.604568
0.604666
0.604811
0.605042
0.605499
0.60592
0.606311
0.606925
0.607911
0.609578
0.611781
0.614789
0.619639
0.626708
0.636497
0.648865
0.660637
0.670981
0.678497
0.681607
0.683702
0.685775
0.688045
0.69082
0.693795
0.696414
0.699546
0.703023
0.704012
0.704195
0.703955
0.703149
0.699701
0.692456
0.607281
0.607475
0.607493
0.60749
0.607382
0.607241
0.607391
0.607436
0.606824
0.60587
0.605672
0.605691
0.605779
0.606205
0.606777
0.606918
0.606761
0.606714
0.607034
0.607839
0.608237
0.608358
0.608631
0.609801
0.610841
0.611147
0.611863
0.613869
0.617627
0.623119
0.630717
0.640784
0.651158
0.660019
0.668084
0.675003
0.680738
0.68596
0.68951
0.692472
0.695646
0.698541
0.701096
0.704936
0.706867
0.707458
0.708006
0.709075
0.707225
0.699037
0.612475
0.61258
0.612888
0.612986
0.612988
0.612689
0.612123
0.61212
0.611944
0.611677
0.611614
0.611636
0.612019
0.61255
0.612598
0.612473
0.612562
0.612912
0.612938
0.612959
0.613408
0.613661
0.613678
0.613962
0.614828
0.615624
0.616197
0.61696
0.618655
0.622569
0.630045
0.639611
0.647818
0.65571
0.664727
0.673042
0.67944
0.685091
0.691283
0.696963
0.702167
0.706661
0.710793
0.713554
0.714782
0.715709
0.716841
0.717167
0.714065
0.707956
0.628335
0.628765
0.629076
0.629143
0.629161
0.62934
0.629762
0.63013
0.63047
0.630615
0.630657
0.630905
0.631092
0.63096
0.630562
0.630439
0.630482
0.630396
0.630299
0.630842
0.631919
0.632024
0.631853
0.632456
0.633588
0.634993
0.638257
0.640476
0.640553
0.641823
0.644225
0.645028
0.647471
0.653795
0.663771
0.676024
0.686156
0.693659
0.699335
0.702947
0.705934
0.709096
0.713122
0.718578
0.722128
0.723945
0.724348
0.723526
0.719077
0.719875
0.65639
0.656418
0.656452
0.656443
0.656538
0.656818
0.656828
0.656896
0.657119
0.657102
0.657126
0.657424
0.657533
0.657511
0.657497
0.657569
0.657776
0.658142
0.658296
0.658277
0.658415
0.659001
0.659134
0.659127
0.659441
0.660585
0.66199
0.663154
0.664408
0.666762
0.670121
0.673811
0.678117
0.683747
0.689536
0.694615
0.698219
0.701708
0.706276
0.711744
0.717736
0.723607
0.727698
0.731487
0.736197
0.738892
0.740805
0.742365
0.741621
0.743703
0.691944
0.691954
0.691837
0.691774
0.691851
0.691904
0.691819
0.691801
0.691901
0.692048
0.692058
0.692058
0.692184
0.692357
0.692384
0.6925
0.692545
0.69253
0.692656
0.692812
0.692853
0.692963
0.693245
0.693673
0.694092
0.694554
0.695337
0.696975
0.698437
0.699467
0.700848
0.703269
0.706165
0.708866
0.711669
0.715462
0.721135
0.727791
0.734267
0.739945
0.744644
0.74916
0.752989
0.756381
0.759539
0.761685
0.763521
0.764473
0.762743
0.762288
0.731392
0.731277
0.731453
0.731635
0.731585
0.731466
0.731353
0.73126
0.731226
0.731189
0.731163
0.731103
0.731034
0.731045
0.731036
0.730872
0.730791
0.730803
0.730746
0.730635
0.730551
0.7305
0.730603
0.730903
0.731013
0.73114
0.731606
0.732345
0.733126
0.734205
0.735764
0.73769
0.739861
0.742467
0.745479
0.748661
0.751839
0.754729
0.757789
0.760843
0.763469
0.766782
0.770527
0.773277
0.776307
0.778859
0.780776
0.781616
0.781558
0.785015
0.774347
0.773755
0.773395
0.773529
0.77371
0.773642
0.773582
0.773312
0.77302
0.773019
0.772866
0.772485
0.772401
0.772373
0.772195
0.771892
0.771891
0.771842
0.771653
0.771385
0.770904
0.770744
0.770742
0.770519
0.770339
0.77033
0.770333
0.770463
0.770961
0.771745
0.772657
0.773717
0.77511
0.776864
0.778786
0.780899
0.78327
0.785829
0.788649
0.791852
0.794996
0.79808
0.801604
0.805133
0.807314
0.808103
0.808971
0.81102
0.811898
0.815015
0.820039
0.819948
0.819592
0.819415
0.819445
0.819221
0.818912
0.818873
0.818661
0.818302
0.818152
0.817975
0.817635
0.817298
0.816973
0.816544
0.816234
0.815941
0.815548
0.815084
0.81465
0.814053
0.813629
0.813313
0.812933
0.812371
0.81171
0.8117
0.811919
0.812033
0.811939
0.811914
0.812561
0.813801
0.815181
0.816549
0.817954
0.819511
0.821274
0.82315
0.82528
0.827138
0.829172
0.831968
0.833833
0.834905
0.835978
0.837457
0.838702
0.842966
0.871102
0.87106
0.87074
0.870045
0.869889
0.869931
0.869664
0.869283
0.868856
0.86869
0.868553
0.868072
0.86736
0.866992
0.866724
0.866269
0.865527
0.864851
0.864285
0.863663
0.862996
0.862091
0.861249
0.860603
0.859842
0.858944
0.858039
0.857069
0.856385
0.855778
0.854902
0.85443
0.8545
0.854663
0.854544
0.85473
0.85513
0.855731
0.856674
0.857896
0.859371
0.860557
0.861744
0.86347
0.865021
0.866149
0.867347
0.869031
0.870794
0.876682
0.92597
0.925717
0.925554
0.925087
0.924512
0.924455
0.92433
0.923718
0.92295
0.922873
0.922752
0.922084
0.921162
0.920788
0.920424
0.919783
0.918921
0.918086
0.917366
0.916572
0.915582
0.914464
0.913333
0.91229
0.911223
0.909938
0.908592
0.907192
0.905736
0.904406
0.903018
0.901663
0.900411
0.899223
0.898287
0.897351
0.896575
0.896298
0.8961
0.895931
0.896347
0.896826
0.896689
0.897182
0.898672
0.899999
0.901336
0.903268
0.905645
0.913289
0.972494
0.972221
0.972092
0.971899
0.971386
0.971222
0.971205
0.970966
0.970298
0.969927
0.969818
0.969549
0.968994
0.968426
0.967935
0.967468
0.966908
0.96621
0.965466
0.964713
0.963899
0.962987
0.962009
0.960938
0.959796
0.958575
0.957245
0.955827
0.954287
0.952713
0.951052
0.949302
0.947569
0.945757
0.94402
0.942377
0.940691
0.939254
0.938032
0.936804
0.935999
0.935645
0.935234
0.934625
0.935132
0.936488
0.938098
0.940315
0.943171
0.951388
0.995242
0.995209
0.995127
0.994952
0.99492
0.994916
0.994859
0.99468
0.994554
0.99448
0.994381
0.994226
0.994034
0.993861
0.993688
0.99349
0.993268
0.993015
0.992731
0.992418
0.992075
0.991687
0.991254
0.990772
0.990237
0.989651
0.988992
0.98826
0.987442
0.986539
0.985555
0.984463
0.983297
0.98204
0.980692
0.97933
0.9779
0.976447
0.975102
0.973797
0.972578
0.971695
0.971032
0.970346
0.970374
0.971089
0.972342
0.974181
0.976532
0.982202
0.99973
0.999726
0.999722
0.999714
0.999705
0.999699
0.999692
0.999682
0.999671
0.999659
0.999646
0.999632
0.999615
0.999596
0.999576
0.999552
0.999526
0.999496
0.999462
0.999423
0.999378
0.999326
0.999265
0.999196
0.999114
0.999021
0.998911
0.998782
0.99863
0.998451
0.998243
0.997998
0.997714
0.997387
0.997009
0.996588
0.99612
0.995602
0.995068
0.994525
0.993969
0.993483
0.993108
0.992795
0.99275
0.992951
0.993412
0.994145
0.995066
0.996863
0.999995
0.999995
0.999995
0.999995
0.999995
0.999994
0.999994
0.999994
0.999994
0.999993
0.999993
0.999993
0.999992
0.999992
0.999991
0.999991
0.99999
0.999989
0.999988
0.999987
0.999985
0.999983
0.999981
0.999979
0.999975
0.999972
0.999967
0.999961
0.999954
0.999944
0.999933
0.999918
0.9999
0.999877
0.999848
0.999812
0.999769
0.999716
0.999657
0.999591
0.999518
0.999446
0.999385
0.999338
0.999329
0.999351
0.999409
0.999506
0.999623
0.999806
1
1
1
1
1
1
1
1
1
1
1
1
1
1
1
1
1
1
1
1
1
1
1
1
1
1
1
1
0.999999
0.999999
0.999999
0.999999
0.999998
0.999998
0.999997
0.999997
0.999995
0.999994
0.999992
0.99999
0.999988
0.999985
0.999983
0.999981
0.99998
0.999981
0.999983
0.999987
0.999991
0.999996
1
1
1
1
1
1
1
1
1
1
1
1
1
1
1
1
1
1
1
1
1
1
1
1
1
1
1
1
1
1
1
1
1
1
1
1
1
1
1
1
1
1
1
1
1
1
1
1
1
1
1
1
1
1
1
1
1
1
1
1
1
1
1
1
1
1
1
1
1
1
1
1
1
1
1
1
1
1
1
1
1
1
1
1
1
1
1
1
1
1
1
1
1
1
1
1
1
1
1
1
0.428607
0.427893
0.423919
0.418952
0.414985
0.412725
0.411991
0.411677
0.411813
0.410971
0.408146
0.405603
0.408404
0.426979
0.440538
0.468469
0.495297
0.525574
0.558051
0.586839
0.601906
0.604082
0.603948
0.606853
0.61245
0.628045
0.656343
0.69186
0.731931
0.774496
0.820075
0.871323
0.926006
0.972565
0.995304
0.999735
0.999995
1
1
1
0.428563
0.427785
0.423762
0.4188
0.414867
0.412676
0.412218
0.411876
0.411833
0.410916
0.40806
0.405553
0.408582
0.427054
0.44468
0.468756
0.496028
0.52647
0.558915
0.587544
0.602091
0.604139
0.603902
0.606475
0.612758
0.628199
0.656869
0.692616
0.732642
0.774953
0.820925
0.872044
0.926286
0.972837
0.995409
0.999748
0.999996
1
1
1
0.428519
0.427788
0.423877
0.41887
0.414865
0.41278
0.41234
0.411994
0.412087
0.410981
0.407993
0.405507
0.408824
0.425814
0.445333
0.468991
0.49647
0.52703
0.559436
0.587961
0.602193
0.604185
0.60386
0.60643
0.613172
0.62833
0.657234
0.69317
0.732909
0.775447
0.821483
0.872419
0.927231
0.973431
0.995497
0.999757
0.999996
1
1
1
0.428469
0.427819
0.423981
0.418933
0.414884
0.412918
0.412405
0.41214
0.412364
0.411308
0.407991
0.405643
0.40956
0.425305
0.445358
0.47089
0.497126
0.527705
0.560289
0.588624
0.602331
0.604238
0.603865
0.606544
0.613446
0.628639
0.65768
0.693649
0.733488
0.776055
0.821967
0.873157
0.928329
0.973967
0.995652
0.999767
0.999996
1
1
1
0.428425
0.427829
0.424042
0.418959
0.415032
0.413054
0.412433
0.412301
0.412446
0.411458
0.408205
0.405802
0.409712
0.425222
0.445096
0.472034
0.497916
0.528332
0.560925
0.589128
0.602481
0.604367
0.603918
0.606636
0.613492
0.628995
0.658051
0.694282
0.734074
0.776504
0.822535
0.874099
0.928831
0.974296
0.99579
0.999776
0.999996
1
1
1
0.428377
0.427809
0.424074
0.418965
0.415244
0.413164
0.412436
0.412333
0.412466
0.411498
0.408476
0.405811
0.409433
0.425102
0.444406
0.472253
0.498444
0.528989
0.561801
0.589623
0.602637
0.604589
0.604073
0.606641
0.613423
0.629525
0.658492
0.694822
0.734572
0.777154
0.823217
0.874747
0.929425
0.974677
0.995904
0.999786
0.999996
1
1
1
0.428345
0.427779
0.424095
0.418993
0.415363
0.413196
0.412302
0.41218
0.412424
0.411506
0.408707
0.405715
0.408772
0.424986
0.443851
0.472395
0.498884
0.529712
0.562703
0.590186
0.602799
0.604824
0.604369
0.606583
0.613232
0.629954
0.658987
0.695366
0.73526
0.77789
0.824072
0.875421
0.930001
0.975114
0.996023
0.999796
0.999997
1
1
1
0.428315
0.427822
0.42414
0.41907
0.415417
0.413196
0.41217
0.411301
0.41172
0.411203
0.408951
0.405357
0.408727
0.425115
0.44383
0.473076
0.499387
0.530463
0.563563
0.590747
0.602969
0.605026
0.604549
0.606438
0.613155
0.63021
0.659516
0.696061
0.735924
0.778533
0.824764
0.876155
0.93065
0.975658
0.996151
0.999806
0.999997
1
1
1
0.428281
0.427923
0.424285
0.419259
0.415451
0.413167
0.412191
0.410879
0.410324
0.410009
0.409081
0.40513
0.409081
0.427354
0.444643
0.47424
0.499974
0.531235
0.5645
0.591325
0.60314
0.605157
0.604705
0.606218
0.613158
0.630437
0.660089
0.69672
0.736562
0.779223
0.825456
0.877004
0.931626
0.976197
0.99629
0.999816
0.999997
1
1
1
0.428218
0.427957
0.424468
0.419425
0.415491
0.413142
0.412235
0.410862
0.409819
0.409407
0.409034
0.405061
0.409412
0.429186
0.445991
0.475152
0.50068
0.53208
0.565491
0.591926
0.603293
0.605212
0.604846
0.606106
0.613337
0.63083
0.660698
0.697409
0.737252
0.779956
0.826205
0.877905
0.932609
0.976706
0.996431
0.999826
0.999997
1
1
1
0.428151
0.427931
0.424565
0.41951
0.415552
0.41318
0.41224
0.410951
0.409769
0.409331
0.408818
0.404974
0.409428
0.429787
0.44692
0.475888
0.501547
0.533063
0.566547
0.592538
0.603415
0.605222
0.604875
0.606142
0.613737
0.631432
0.661329
0.698128
0.737992
0.780709
0.827033
0.878819
0.933463
0.977228
0.996568
0.999836
0.999997
1
1
1
0.428103
0.427689
0.424605
0.419569
0.415632
0.413267
0.41221
0.410973
0.409939
0.409747
0.408797
0.404934
0.40933
0.430165
0.447399
0.476463
0.502501
0.534108
0.567665
0.593137
0.603494
0.605194
0.604826
0.606352
0.614153
0.632008
0.661997
0.698848
0.738765
0.781477
0.827943
0.879789
0.934327
0.977783
0.996708
0.999846
0.999998
1
1
1
0.428089
0.427527
0.424623
0.419606
0.415685
0.41335
0.412221
0.410946
0.410115
0.410608
0.409846
0.406547
0.410308
0.430711
0.447682
0.476887
0.503457
0.535245
0.5688
0.593727
0.60353
0.605142
0.604637
0.60649
0.614446
0.632621
0.662723
0.699629
0.739549
0.782295
0.828874
0.880823
0.935238
0.97837
0.996852
0.999856
0.999998
1
1
1
0.428079
0.427466
0.424633
0.419617
0.415695
0.413441
0.412309
0.410924
0.410072
0.410841
0.411172
0.409858
0.413492
0.431596
0.448
0.477255
0.504521
0.536459
0.569939
0.594314
0.603536
0.605132
0.604506
0.606589
0.614711
0.633329
0.663507
0.700432
0.740364
0.783183
0.829847
0.881903
0.936236
0.978978
0.996999
0.999866
0.999998
1
1
1
0.428059
0.427363
0.424617
0.419615
0.415675
0.41348
0.412317
0.410896
0.409583
0.410525
0.411371
0.411151
0.415062
0.432137
0.448507
0.477643
0.505704
0.537797
0.571109
0.594908
0.603541
0.605151
0.604491
0.606749
0.615138
0.634076
0.66433
0.701242
0.741238
0.784136
0.830894
0.883035
0.93733
0.9796
0.997146
0.999875
0.999998
1
1
1
0.428049
0.427146
0.424417
0.41953
0.415629
0.413493
0.412322
0.410561
0.408987
0.409907
0.411033
0.411422
0.415696
0.432451
0.449251
0.478131
0.506928
0.539291
0.572348
0.595503
0.603699
0.605157
0.604507
0.607039
0.615676
0.634869
0.665177
0.702102
0.742183
0.785131
0.83202
0.884243
0.938474
0.980236
0.997294
0.999884
0.999998
1
1
1
0.428076
0.42697
0.424285
0.419378
0.415591
0.413519
0.412245
0.41015
0.408767
0.409758
0.410721
0.411411
0.415886
0.432897
0.450208
0.478836
0.508202
0.540877
0.573648
0.596099
0.603836
0.605155
0.604498
0.60727
0.616126
0.635718
0.666057
0.703023
0.743183
0.78618
0.833211
0.885527
0.939645
0.980893
0.997443
0.999894
0.999998
1
1
1
0.42811
0.426839
0.424222
0.419319
0.415586
0.413559
0.412035
0.410028
0.408732
0.409756
0.410637
0.41103
0.415851
0.433496
0.451382
0.479846
0.509572
0.542583
0.57497
0.596702
0.603879
0.605136
0.604465
0.607289
0.616512
0.636613
0.666982
0.703999
0.744234
0.7873
0.834457
0.886875
0.940857
0.981572
0.997592
0.999903
0.999999
1
1
1
0.428148
0.426737
0.424142
0.419318
0.415607
0.413603
0.411993
0.409983
0.408719
0.409788
0.410578
0.410008
0.414911
0.434163
0.452759
0.481161
0.511058
0.544419
0.576359
0.5973
0.603899
0.605009
0.604379
0.607047
0.616883
0.637534
0.667954
0.705019
0.745359
0.788498
0.835771
0.888288
0.942135
0.982269
0.997742
0.999911
0.999999
1
1
1
0.428212
0.426704
0.424063
0.41931
0.415613
0.413716
0.411983
0.409986
0.408711
0.40983
0.410465
0.409272
0.413919
0.435015
0.454338
0.482653
0.512665
0.546282
0.577814
0.597898
0.603901
0.604736
0.604312
0.606702
0.61727
0.63844
0.668972
0.706115
0.746566
0.789773
0.837164
0.889768
0.943485
0.982982
0.99789
0.999919
0.999999
1
1
1
0.428301
0.42672
0.424021
0.41929
0.415637
0.413959
0.412094
0.410062
0.408707
0.409659
0.410343
0.409023
0.413773
0.436595
0.456251
0.484253
0.514372
0.548152
0.579317
0.598492
0.603831
0.604584
0.604307
0.606762
0.617679
0.639319
0.670045
0.707294
0.747849
0.791125
0.838625
0.891319
0.944879
0.98371
0.998038
0.999927
0.999999
1
1
1
0.428403
0.426736
0.42397
0.419283
0.415786
0.414344
0.412692
0.410593
0.408854
0.409569
0.410231
0.408909
0.414241
0.43863
0.458422
0.485972
0.516177
0.550041
0.580867
0.599076
0.603767
0.604526
0.604412
0.607999
0.618124
0.640173
0.671182
0.708551
0.7492
0.792551
0.84015
0.892943
0.946306
0.984455
0.998184
0.999935
0.999999
1
1
1
0.428533
0.426748
0.423885
0.419288
0.415935
0.414629
0.413225
0.411368
0.409698
0.409579
0.410234
0.408835
0.414436
0.440148
0.46051
0.487818
0.518161
0.551976
0.58246
0.599649
0.603773
0.60452
0.604539
0.610012
0.618803
0.641028
0.672391
0.709892
0.750623
0.794048
0.841742
0.894648
0.947791
0.985216
0.998328
0.999942
0.999999
1
1
1
0.42876
0.426809
0.42383
0.419327
0.415963
0.414693
0.413365
0.411558
0.410097
0.40953
0.41056
0.408823
0.414147
0.44136
0.462362
0.489769
0.520384
0.554011
0.584082
0.600209
0.603788
0.604533
0.604547
0.610783
0.619635
0.641925
0.673692
0.711325
0.752114
0.795606
0.84341
0.896441
0.949355
0.985992
0.99847
0.999949
0.999999
1
1
1
0.429045
0.427024
0.423801
0.419323
0.415844
0.414606
0.413378
0.411509
0.410128
0.409368
0.410896
0.408904
0.413934
0.442482
0.463949
0.491799
0.522832
0.556195
0.585732
0.600756
0.603796
0.604494
0.604481
0.610898
0.620247
0.642885
0.675101
0.712845
0.753666
0.797232
0.845167
0.898336
0.950997
0.98678
0.998607
0.999955
0.999999
1
1
1
0.429377
0.427267
0.423774
0.419223
0.41574
0.414542
0.413359
0.411202
0.409591
0.409064
0.410571
0.408916
0.414524
0.44382
0.465392
0.493868
0.525407
0.558532
0.587413
0.601298
0.603805
0.604458
0.604465
0.610528
0.620738
0.643941
0.676617
0.714447
0.755282
0.79893
0.847028
0.900352
0.952713
0.987579
0.998741
0.999961
1
1
1
1
0.429744
0.427509
0.423707
0.419133
0.41572
0.414554
0.413519
0.411064
0.408745
0.407821
0.408798
0.408799
0.416126
0.445261
0.466887
0.495957
0.527996
0.561026
0.589111
0.601827
0.603812
0.604468
0.604467
0.609561
0.62119
0.645104
0.678224
0.716129
0.756967
0.800711
0.849007
0.902496
0.954496
0.988383
0.99887
0.999966
1
1
1
1
0.430061
0.427739
0.423613
0.419066
0.415755
0.414609
0.413828
0.41124
0.40845
0.406836
0.408114
0.409556
0.418459
0.446179
0.46856
0.498126
0.530537
0.563655
0.590825
0.602338
0.60383
0.604753
0.604602
0.609063
0.621696
0.646343
0.679895
0.717888
0.758734
0.802608
0.851127
0.90476
0.956323
0.989188
0.998993
0.999971
1
1
1
1
0.430338
0.427922
0.423407
0.418927
0.415833
0.414722
0.41391
0.411474
0.408585
0.406626
0.408392
0.413151
0.421775
0.446855
0.470543
0.500547
0.533084
0.5664
0.592529
0.602817
0.603924
0.605229
0.60512
0.609057
0.622454
0.647679
0.681624
0.719737
0.760611
0.804651
0.853396
0.907124
0.958203
0.989993
0.99911
0.999976
1
1
1
1
0.430594
0.428085
0.423088
0.418551
0.415831
0.41472
0.413914
0.411589
0.408763
0.406685
0.409553
0.415453
0.424612
0.447694
0.472958
0.503422
0.535786
0.569244
0.594193
0.603243
0.604044
0.605432
0.605339
0.609349
0.623589
0.649173
0.683408
0.721685
0.762623
0.806841
0.855807
0.909593
0.960156
0.990795
0.999221
0.99998
1
1
1
1
0.430786
0.428182
0.422882
0.418111
0.415292
0.414441
0.413891
0.411693
0.408754
0.406788
0.410494
0.416532
0.425516
0.448824
0.475688
0.506704
0.53879
0.572161
0.595782
0.603601
0.604111
0.605483
0.605335
0.609645
0.625012
0.650845
0.685275
0.723751
0.764779
0.809183
0.85836
0.912192
0.962176
0.991592
0.999325
0.999983
1
1
1
1
0.430926
0.428237
0.422796
0.417914
0.414847
0.414055
0.413769
0.411833
0.408579
0.406659
0.411136
0.417094
0.425496
0.450581
0.478463
0.510053
0.542136
0.575128
0.597262
0.603875
0.604136
0.605479
0.605153
0.610169
0.626532
0.652655
0.687249
0.725941
0.767092
0.811677
0.861056
0.914944
0.964263
0.992377
0.999421
0.999986
1
1
1
1
0.431038
0.428299
0.422755
0.417873
0.414801
0.414007
0.413775
0.412078
0.408301
0.406351
0.411644
0.417636
0.424711
0.453264
0.481261
0.513261
0.54578
0.578128
0.598611
0.604057
0.60413
0.605433
0.605104
0.610952
0.627942
0.654569
0.689364
0.728269
0.769569
0.814311
0.863905
0.917858
0.966405
0.993145
0.999509
0.999989
1
1
1
1
0.431083
0.428397
0.422738
0.417835
0.414937
0.414343
0.41424
0.412646
0.408451
0.406336
0.411876
0.418548
0.424639
0.45692
0.484317
0.516411
0.549702
0.581155
0.599811
0.604148
0.604078
0.605345
0.605301
0.611686
0.629183
0.656599
0.691651
0.730734
0.772197
0.817088
0.866923
0.920925
0.968589
0.993891
0.999589
0.999991
1
1
1
1
0.431045
0.428576
0.422869
0.417792
0.415049
0.414684
0.41474
0.413387
0.409758
0.40723
0.411596
0.419189
0.427423
0.461412
0.487854
0.519771
0.553894
0.584192
0.600859
0.604197
0.60388
0.605234
0.605731
0.612967
0.630458
0.658784
0.694135
0.733343
0.774966
0.820013
0.870129
0.924145
0.970808
0.99461
0.999661
0.999993
1
1
1
1
0.431041
0.428771
0.423179
0.417803
0.415075
0.41478
0.414848
0.413525
0.410284
0.407882
0.410545
0.419825
0.432015
0.465464
0.491818
0.523658
0.55829
0.587201
0.601761
0.604226
0.603693
0.605223
0.606294
0.61516
0.632039
0.661161
0.69682
0.73609
0.777856
0.823096
0.873537
0.927509
0.973055
0.995299
0.999724
0.999995
1
1
1
1
0.431024
0.429033
0.423682
0.418171
0.415077
0.41473
0.414443
0.413071
0.409995
0.407651
0.409226
0.421713
0.436869
0.468182
0.495997
0.528182
0.562805
0.590128
0.602529
0.604243
0.603607
0.605263
0.606924
0.616871
0.633948
0.663748
0.699704
0.73898
0.780877
0.826367
0.877162
0.931017
0.975326
0.99595
0.999779
0.999996
1
1
1
1
0.430938
0.429359
0.424199
0.418636
0.415236
0.41434
0.413662
0.412226
0.409345
0.406805
0.408656
0.425486
0.442055
0.470304
0.500326
0.533291
0.567444
0.592911
0.603178
0.604259
0.603585
0.60538
0.607485
0.6177
0.636035
0.666524
0.702771
0.742028
0.78406
0.829875
0.881022
0.93468
0.977606
0.99656