/*--------------------------------*- C++ -*----------------------------------*\
  =========                 |
  \\      /  F ield         | OpenFOAM: The Open Source CFD Toolbox
   \\    /   O peration     | Website:  https://openfoam.org
    \\  /    A nd           | Version:  7
     \\/     M anipulation  |
\*---------------------------------------------------------------------------*/
FoamFile
{
    version     2.0;
    format      ascii;
    class       volScalarField;
    location    "3.6";
    object      rho;
}
// * * * * * * * * * * * * * * * * * * * * * * * * * * * * * * * * * * * * * //

dimensions      [1 -3 0 0 0 0 0];

internalField   nonuniform List<scalar> 
1750
(
0.202998
0.349878
0.458247
0.518332
0.578758
0.5886
0.64077
0.664085
0.690074
0.730373
0.0653436
0.101199
0.224163
0.369672
0.503125
0.570569
0.651165
0.658739
0.664256
0.718466
0.0783026
0.0962154
0.100856
0.144606
0.237574
0.403372
0.510536
0.593774
0.669969
0.756669
0.104945
0.137278
0.171385
0.196857
0.203509
0.215512
0.236409
0.315102
0.448677
0.691159
0.183173
0.214744
0.252202
0.27466
0.2764
0.281569
0.295068
0.322887
0.322065
0.425071
0.318005
0.320931
0.33874
0.363869
0.374032
0.383647
0.405455
0.422834
0.43118
0.437454
0.516896
0.517046
0.516138
0.518621
0.530813
0.541129
0.534674
0.531859
0.532071
0.528008
0.798148
0.771903
0.756404
0.740877
0.721183
0.700057
0.684968
0.670163
0.655521
0.640484
1.15927
1.11669
1.07259
1.03595
0.995851
0.954361
0.921548
0.887313
0.858138
0.815875
1.4215
1.39868
1.36771
1.33234
1.29169
1.24509
1.19469
1.14208
1.09533
1.02254
1.46984
1.46794
1.4645
1.45862
1.44887
1.43271
1.40853
1.37515
1.33704
1.2608
1.45001
1.45386
1.45741
1.45814
1.45779
1.4569
1.45461
1.44911
1.44085
1.41198
1.41209
1.41615
1.4212
1.42731
1.43311
1.43854
1.44269
1.44393
1.44266
1.43566
1.40062
1.40107
1.40184
1.40318
1.4053
1.40832
1.41246
1.41713
1.42232
1.42437
1.40001
1.40002
1.40004
1.40009
1.40019
1.40041
1.40088
1.40171
1.40317
1.40629
0.0729073
0.0622412
0.0724533
0.0959485
0.172417
0.316831
0.521084
0.821328
1.19294
1.43734
1.47059
1.4457
1.40876
1.4004
1.40001
0.0702886
0.0582919
0.0747639
0.121372
0.224965
0.390392
0.617451
0.951253
1.3124
1.47067
1.47167
1.43573
1.40451
1.40014
1.40001
0.0654342
0.0557378
0.0739925
0.142399
0.260213
0.426953
0.691186
1.06433
1.38872
1.48057
1.47111
1.42618
1.40243
1.40007
1.40001
0.0621986
0.0538482
0.0792049
0.157952
0.288541
0.480573
0.814712
1.19479
1.44401
1.48485
1.46276
1.41779
1.40119
1.40003
1.40001
0.0594683
0.0534322
0.0988327
0.173501
0.321858
0.594705
0.948953
1.29937
1.47597
1.48639
1.45417
1.41072
1.40051
1.40001
1.40001
0.0525236
0.0594552
0.114885
0.204281
0.399454
0.72302
1.0783
1.38984
1.49302
1.48704
1.44073
1.40528
1.40019
1.40001
1.40001
0.0398157
0.0612035
0.123868
0.261981
0.526168
0.851911
1.2209
1.46208
1.49963
1.47931
1.42558
1.40229
1.40007
1.40001
1.40001
0.0314859
0.0578477
0.142415
0.341845
0.654617
1.01602
1.3585
1.49838
1.50104
1.46431
1.41406
1.40086
1.40003
1.40001
1.40001
0.0254096
0.0637224
0.197966
0.463186
0.808896
1.20278
1.45254
1.51042
1.49973
1.44449
1.40651
1.40028
1.40001
1.40001
1.40001
0.0206531
0.102654
0.30085
0.631078
1.02681
1.35677
1.50331
1.51337
1.48222
1.42606
1.40249
1.40009
1.40001
1.40001
1.40001
0.0162689
0.146943
0.447952
0.8553
1.24388
1.4677
1.52186
1.51341
1.46165
1.41225
1.40075
1.40002
1.40001
1.40001
1.40001
0.0402345
0.256008
0.697749
1.12242
1.40825
1.52238
1.52571
1.49697
1.43486
1.40419
1.40019
1.40001
1.40001
1.40001
1.40001
0.187604
0.541969
1.00108
1.34194
1.5082
1.53758
1.52615
1.4687
1.41481
1.40114
1.40004
1.40001
1.40001
1.40001
1.40001
0.431074
0.875766
1.29219
1.48923
1.5471
1.54088
1.49907
1.4337
1.40439
1.40023
1.40001
1.40001
1.40001
1.40001
1.40001
0.916291
1.2836
1.4873
1.54254
1.55232
1.52534
1.45955
1.41218
1.40094
1.40004
1.40001
1.40001
1.40001
1.40001
1.40001
1.54611
1.54967
1.55254
1.55009
1.54385
1.48449
1.42248
1.40156
1.40002
1.40001
1.40001
1.40001
1.40001
1.40001
1.40001
1.54595
1.551
1.55405
1.54691
1.53348
1.4754
1.42183
1.40235
1.40011
1.40001
1.40001
1.40001
1.40001
1.40001
1.40001
1.54631
1.55402
1.55623
1.54764
1.51916
1.4495
1.40729
1.40036
1.40001
1.40001
1.40001
1.40001
1.40001
1.40001
1.40001
1.54564
1.55536
1.5564
1.54147
1.49541
1.43034
1.40327
1.40013
1.40001
1.40001
1.40001
1.40001
1.40001
1.40001
1.40001
1.54527
1.55644
1.5553
1.52888
1.47158
1.41584
1.40118
1.40004
1.40001
1.40001
1.40001
1.40001
1.40001
1.40001
1.40001
1.54831
1.55834
1.55445
1.51239
1.44685
1.40693
1.40036
1.40001
1.40001
1.40001
1.40001
1.40001
1.40001
1.40001
1.40001
1.55791
1.55909
1.55127
1.48815
1.42432
1.4025
1.4001
1.40001
1.40001
1.40001
1.40001
1.40001
1.40001
1.40001
1.40001
1.57174
1.54708
1.5291
1.45795
1.41186
1.40084
1.40003
1.40001
1.40001
1.40001
1.40001
1.40001
1.40001
1.40001
1.40001
1.5849
1.53646
1.50161
1.43485
1.40456
1.40022
1.40001
1.40001
1.40001
1.40001
1.40001
1.40001
1.40001
1.40001
1.40001
1.59176
1.52445
1.46864
1.41593
1.40146
1.40006
1.40001
1.40001
1.40001
1.40001
1.40001
1.40001
1.40001
1.40001
1.40001
1.59024
1.49977
1.44125
1.40657
1.40039
1.40002
1.40001
1.40001
1.40001
1.40001
1.40001
1.40001
1.40001
1.40001
1.40001
1.56683
1.47335
1.42071
1.40213
1.40009
1.40001
1.40001
1.40001
1.40001
1.40001
1.40001
1.40001
1.40001
1.40001
1.40001
1.53892
1.44618
1.40786
1.40048
1.40002
1.40001
1.40001
1.40001
1.40001
1.40001
1.40001
1.40001
1.40001
1.40001
1.40001
1.49616
1.42099
1.40201
1.40008
1.40001
1.40001
1.40001
1.40001
1.40001
1.40001
1.40001
1.40001
1.40001
1.40001
1.40001
1.4429
1.40604
1.4003
1.40001
1.40001
1.40001
1.40001
1.40001
1.40001
1.40001
1.40001
1.40001
1.40001
1.40001
1.40001
1.40001
1.40001
1.40001
1.40001
1.40001
1.40001
1.40001
1.40001
1.40001
1.40001
1.40001
1.40001
1.40001
1.40001
1.40001
1.40001
1.40001
1.40001
1.40001
1.40001
1.40001
1.40001
1.40001
1.40001
1.40001
1.40001
1.40001
1.40001
1.40001
1.40001
1.40001
1.40001
1.40001
1.40001
1.40001
1.40001
1.40001
1.40001
1.40001
1.40001
1.40001
1.40001
1.40001
1.40001
1.40001
1.40001
1.40001
1.40001
1.40001
1.40001
1.40001
1.40001
1.40001
1.40001
1.40001
1.40001
1.40001
1.40001
1.40001
1.40001
1.40001
1.40001
1.40001
1.40001
1.40001
1.40001
1.40001
1.40001
1.40001
1.40001
1.40001
1.40001
1.40001
1.40001
1.40001
1.40001
1.40001
1.40001
1.40001
1.40001
1.40001
1.40001
1.40001
1.40001
1.40001
1.40001
1.40001
1.40001
1.40001
1.40001
1.40001
1.40001
1.40001
1.40001
1.40001
1.40001
1.40001
1.40001
1.40001
1.40001
1.40001
1.40001
1.40001
1.40001
1.40001
1.40001
1.40001
1.40001
1.40001
1.40001
1.40001
1.40001
1.40001
1.40001
1.40001
1.40001
1.40001
1.40001
1.40001
1.40001
1.40001
1.40001
1.40001
1.40001
1.40001
1.40001
1.40001
1.40001
1.40001
1.40001
1.40001
1.40001
1.40001
1.40001
1.40001
1.40001
1.40001
1.40001
1.40001
1.40001
1.40001
1.40001
1.40001
1.40001
1.40001
1.40001
1.40001
1.40001
1.40001
1.40001
1.40001
1.40001
1.40001
1.40001
1.40001
1.40001
1.40001
1.40001
1.40001
1.40001
1.40001
1.40001
1.40001
1.40001
1.40001
1.40001
1.40001
1.40001
1.40001
1.40001
1.40001
1.40001
1.40001
1.40001
1.40001
1.40001
1.40001
1.40001
1.40001
1.40001
1.40001
1.40001
1.40001
1.40001
1.40001
1.40001
1.40001
1.40001
1.40001
1.40001
1.40001
1.40001
1.40001
1.40001
1.40001
1.40001
1.40001
1.40001
1.40001
1.40001
1.40001
1.40001
1.40001
1.40001
1.40001
1.40001
1.40001
1.40001
1.40001
1.40001
1.40001
1.40001
1.40001
1.40001
1.40001
1.40001
1.40001
1.40001
1.40001
1.40001
1.40001
1.40001
1.40001
1.40001
1.40001
1.40001
1.40001
1.40001
1.40001
1.40001
1.40001
1.40001
1.40001
1.40001
1.40001
1.40001
1.40001
1.40001
1.40001
1.40001
1.40001
1.40001
1.40001
1.40001
1.40001
1.40001
1.40001
1.40001
1.40001
1.40001
1.40001
1.40001
1.40001
1.40001
1.40001
1.40001
1.40001
1.40001
1.40001
1.40001
1.40001
1.40001
1.40001
1.40001
1.40001
1.40001
1.40001
1.40001
1.40001
1.40001
1.40001
1.40001
1.40001
1.40001
1.40001
1.40001
1.40001
1.40001
1.40001
1.40001
1.40001
1.40001
1.40001
1.40001
1.40001
1.40001
1.40001
1.40001
1.40001
1.40001
1.40001
1.40001
1.40001
1.40001
1.40001
1.40001
1.40001
1.40001
1.40001
1.40001
1.40001
1.40001
1.40001
1.40001
1.40001
1.40001
1.40001
1.40001
1.40001
1.40001
1.40001
1.40001
1.40001
1.40001
1.40001
1.40001
1.40001
1.40001
1.40001
1.40001
1.40001
1.40001
1.40001
1.40001
1.40001
1.40001
1.40001
1.40001
1.40001
1.40001
1.40001
1.40001
1.40001
1.40001
1.40001
1.40001
1.40001
1.40001
1.40001
1.40001
1.40001
1.40001
1.40001
1.40001
1.40001
1.40001
1.40001
1.40001
1.40001
1.40001
3.86491
2.31627
1.4
1.40001
1.40001
1.40001
1.40001
1.40001
1.40001
1.40001
1.40001
1.40001
1.40001
1.40001
1.40001
1.40001
1.40001
1.40001
1.40001
1.40001
5.80547
4.78775
3.48108
1.64771
1.4
1.40001
1.40001
1.40001
1.40001
1.40001
1.40001
1.40001
1.40001
1.40001
1.40001
1.40001
1.40001
1.40001
1.40001
1.40001
5.06698
4.6821
4.82477
4.13502
2.04842
1.39968
1.40001
1.40001
1.40001
1.40001
1.40001
1.40001
1.40001
1.40001
1.40001
1.40001
1.40001
1.40001
1.40001
1.40001
4.77079
4.64991
4.76024
4.7762
4.40226
2.3086
1.39807
1.40001
1.40001
1.40001
1.40001
1.40001
1.40001
1.40001
1.40001
1.40001
1.40001
1.40001
1.40001
1.40001
4.68849
4.64384
4.68649
4.66545
4.6636
4.24281
2.13516
1.39806
1.40001
1.40001
1.40001
1.40001
1.40001
1.40001
1.40001
1.40001
1.40001
1.40001
1.40001
1.40001
4.66028
4.63141
4.63657
4.61241
4.5976
4.63753
3.94714
1.8418
1.39845
1.40001
1.40001
1.40001
1.40001
1.40001
1.40001
1.40001
1.40001
1.40001
1.40001
1.40001
4.6525
4.61739
4.60063
4.56964
4.56535
4.60871
4.61847
3.40693
1.55163
1.39979
1.40001
1.40001
1.40001
1.40001
1.40001
1.40001
1.40001
1.40001
1.40001
1.40001
4.64861
4.60996
4.58623
4.54991
4.53315
4.53699
4.56978
4.39407
2.5079
1.40288
1.40001
1.40001
1.40001
1.40001
1.40001
1.40001
1.40001
1.40001
1.40001
1.40001
4.63996
4.60209
4.57408
4.53393
4.50489
4.49829
4.54612
4.63477
4.00859
1.83185
1.39817
1.40001
1.40001
1.40001
1.40001
1.40001
1.40001
1.40001
1.40001
1.40001
4.62759
4.58633
4.55184
4.50918
4.47967
4.46644
4.52149
4.60578
4.5408
3.13427
1.49146
1.4
1.40001
1.40001
1.40001
1.40001
1.40001
1.40001
1.40001
1.40001
4.60338
4.55601
4.52221
4.48222
4.45446
4.45045
4.49526
4.55439
4.51143
4.03498
2.04668
1.39724
1.40001
1.40001
1.40001
1.40001
1.40001
1.40001
1.40001
1.40001
4.55597
4.51378
4.49082
4.45952
4.4381
4.44269
4.4735
4.503
4.50294
4.49477
3.23217
1.51384
1.4
1.40001
1.40001
1.40001
1.40001
1.40001
1.40001
1.40001
4.5
4.46874
4.45732
4.43649
4.41861
4.41766
4.44148
4.45823
4.48797
4.53937
4.03998
2.08735
1.39844
1.40001
1.40001
1.40001
1.40001
1.40001
1.40001
1.40001
4.45731
4.43119
4.42096
4.40366
4.39415
4.39075
4.40502
4.42299
4.4586
4.51146
4.39621
3.07331
1.50064
1.40001
1.40001
1.40001
1.40001
1.40001
1.40001
1.40001
4.43104
4.40449
4.38848
4.36907
4.35889
4.35836
4.376
4.40047
4.44243
4.48669
4.46537
3.90036
1.82241
1.37771
1.39988
1.4
1.40001
1.40001
1.40001
1.40001
1.97306
2.76125
3.16603
3.44395
3.65576
3.80105
3.94247
4.06308
4.17947
4.30238
4.40727
4.34772
3.30076
1.7341
1.40872
1.40007
1.40001
1.40001
1.40001
1.40001
0.764148
1.70207
2.18053
2.54212
2.86917
3.13676
3.35266
3.55825
3.73995
3.92583
4.18225
4.30688
4.14144
2.8441
1.58861
1.40369
1.40003
1.40001
1.40001
1.40001
0.615233
1.17173
1.58349
1.95338
2.24108
2.56502
2.82112
3.08364
3.29702
3.51794
3.80925
4.13741
4.09947
3.71834
2.27269
1.46565
1.40078
1.40001
1.40001
1.40001
0.679082
0.951117
1.14941
1.51332
1.83667
2.10932
2.38933
2.6449
2.91432
3.15932
3.4443
3.77385
3.91353
3.90874
3.28111
1.8344
1.41606
1.40012
1.40001
1.40001
0.819513
0.865385
0.914321
1.17198
1.47584
1.74145
2.03461
2.2635
2.54928
2.82378
3.12136
3.38949
3.63608
3.81712
3.68426
2.61362
1.53911
1.40231
1.40002
1.40001
0.909562
0.868261
0.885443
1.05886
1.24839
1.47672
1.72081
1.98299
2.20888
2.50524
2.7997
3.05586
3.31401
3.62337
3.60468
3.16343
1.90307
1.42149
1.40016
1.40001
0.900311
0.859224
0.893307
0.988062
1.10654
1.32124
1.51584
1.77309
1.99071
2.25972
2.52411
2.80691
2.99646
3.3297
3.52163
3.43806
2.49374
1.51869
1.40176
1.40001
0.879205
0.862096
0.894037
0.92699
0.968697
1.15459
1.3505
1.59037
1.82831
2.0581
2.31586
2.58268
2.79583
3.06781
3.39859
3.41032
2.91746
1.77226
1.41189
1.40008
0.888239
0.892767
0.916132
0.917375
0.916443
1.01893
1.19077
1.38128
1.64596
1.86051
2.11237
2.34839
2.60601
2.86799
3.19054
3.36361
3.20846
2.1828
1.46198
1.40067
0.918175
0.926679
0.937909
0.926624
0.926964
1.01045
1.11319
1.25383
1.47174
1.69237
1.90839
2.14371
2.37684
2.64575
2.94568
3.25913
3.22954
2.59067
1.59968
1.40446
0.932188
0.934554
0.942044
0.930359
0.939876
0.981838
1.05443
1.19852
1.36058
1.57004
1.76873
2.01057
2.22322
2.45453
2.71014
3.0748
3.19057
2.92266
1.85653
1.42029
0.924992
0.924084
0.930293
0.930167
0.939034
0.948582
0.981144
1.12208
1.25254
1.45631
1.65637
1.88717
2.1097
2.31715
2.54922
2.88603
3.10285
3.0001
2.1679
1.46968
0.904365
0.905323
0.925244
0.937831
0.939417
0.93651
0.942255
1.0248
1.13138
1.30223
1.49897
1.72128
1.96103
2.16391
2.38196
2.69864
2.99875
2.97824
2.41107
1.57193
0.879335
0.891875
0.932071
0.95583
0.950185
0.9401
0.943097
1.00855
1.08795
1.19244
1.37377
1.5607
1.80075
2.01867
2.22598
2.50628
2.87089
2.9501
2.63907
1.74124
0.863846
0.887109
0.930351
0.962632
0.959965
0.947963
0.948626
0.99737
1.06256
1.1642
1.31556
1.49162
1.71107
1.92594
2.12823
2.37636
2.7386
2.90044
2.73066
1.9799
0.753868
0.87243
0.925787
0.960589
0.958281
0.940464
0.936143
0.962787
1.01858
1.12343
1.25409
1.42906
1.62417
1.83329
2.02101
2.24327
2.59368
2.82752
2.74623
2.23444
0.680253
0.830471
0.911214
0.952045
0.948898
0.929943
0.91741
0.919437
0.945793
1.05047
1.15801
1.34155
1.5237
1.70989
1.89457
2.09646
2.42617
2.74088
2.71538
2.49075
0.606024
0.762632
0.876562
0.933929
0.938882
0.931189
0.915599
0.906851
0.91453
1.00093
1.09341
1.24025
1.4365
1.6062
1.79525
1.9931
2.29736
2.65911
2.69585
2.75674
0.576825
0.704542
0.819918
0.899448
0.928231
0.926885
0.913991
0.897617
0.901464
0.963063
1.05433
1.17679
1.35168
1.51265
1.68907
1.87396
2.1439
2.52833
2.6772
2.97958
0.602749
0.670591
0.745029
0.839116
0.90048
0.909033
0.901749
0.882277
0.885879
0.93111
1.00209
1.11575
1.26277
1.41524
1.58195
1.7493
1.98523
2.35522
2.64124
3.15023
0.618147
0.633182
0.672675
0.777517
0.855779
0.881491
0.8785
0.864622
0.870989
0.901758
0.948363
1.05446
1.18113
1.32595
1.48899
1.65405
1.86508
2.21356
2.6127
3.28669
0.65015
0.636928
0.650294
0.722675
0.798644
0.850594
0.85604
0.847775
0.855549
0.872175
0.896598
0.977306
1.09678
1.2402
1.39205
1.55837
1.75228
2.07778
2.58161
3.3673
0.693939
0.674642
0.660735
0.68942
0.734314
0.806506
0.836638
0.836903
0.835616
0.847716
0.870078
0.929558
1.01708
1.15746
1.29328
1.45535
1.63785
1.94552
2.50301
3.40584
0.780234
0.761062
0.700116
0.677302
0.683878
0.738919
0.799891
0.81967
0.81716
0.814374
0.836765
0.897528
0.957685
1.07964
1.21441
1.36728
1.54048
1.84545
2.45458
3.39217
0.80605
0.857487
0.838372
0.779795
0.726374
0.74107
0.759816
0.786167
0.795285
0.793654
0.805563
0.845778
0.884434
0.975895
1.10013
1.24227
1.40626
1.70221
2.33036
3.27845
)
;

boundaryField
{
    inlet
    {
        type            calculated;
        value           uniform 1.40001;
    }
    outlet
    {
        type            calculated;
        value           nonuniform List<scalar> 
35
(
0.80489
0.856367
0.837744
0.779502
0.726163
0.740955
0.759678
0.786063
0.795173
0.793607
0.805543
0.845563
0.884106
0.975674
1.09991
1.24227
1.40646
1.70271
2.33235
3.28441
0.729643
0.718036
0.756393
0.690951
0.424676
0.437614
0.528015
0.640462
0.815918
1.02255
1.26084
1.41203
1.43572
1.4244
1.4063
)
;
    }
    airfoil
    {
        type            calculated;
        value           nonuniform List<scalar> 
60
(
0.0729073
0.0702886
0.0654342
0.0621986
0.0594683
0.0525236
0.0398157
0.0314859
0.0254096
0.0206531
0.0162689
0.0402345
0.187604
0.431074
0.916291
1.54611
1.54595
1.54631
1.54564
1.54527
1.54831
1.55791
1.57174
1.5849
1.59176
1.59024
1.56683
1.53892
1.49616
1.4429
3.86491
5.80547
5.06698
4.77079
4.68849
4.66028
4.6525
4.64861
4.63996
4.62759
4.60338
4.55597
4.5
4.45731
4.43104
1.97306
0.764148
0.615233
0.679082
0.819513
0.909562
0.900311
0.879205
0.888239
0.918175
0.932188
0.924992
0.904365
0.879335
0.863846
)
;
    }
    top
    {
        type            symmetryPlane;
    }
    bottom
    {
        type            symmetryPlane;
    }
    defaultFaces
    {
        type            empty;
    }
}


// ************************************************************************* //
