/*--------------------------------*- C++ -*----------------------------------*\
  =========                 |
  \\      /  F ield         | OpenFOAM: The Open Source CFD Toolbox
   \\    /   O peration     | Website:  https://openfoam.org
    \\  /    A nd           | Version:  7
     \\/     M anipulation  |
\*---------------------------------------------------------------------------*/
FoamFile
{
    version     2.0;
    format      ascii;
    class       volVectorField;
    location    "3.6";
    object      U;
}
// * * * * * * * * * * * * * * * * * * * * * * * * * * * * * * * * * * * * * //

dimensions      [0 1 -1 0 0 0 0];

internalField   nonuniform List<vector> 
1750
(
(2.28329 0.106098 0)
(2.50606 0.410496 0)
(2.53035 0.769163 0)
(2.60783 0.628576 0)
(2.65404 0.448004 0)
(2.76196 0.306685 0)
(2.81713 0.204091 0)
(2.86403 0.0475782 0)
(2.88409 -0.0211424 0)
(2.70878 -0.0843033 0)
(2.31566 -1.8319 0)
(2.40901 -1.27765 0)
(2.38208 -0.472976 0)
(2.37291 0.0186367 0)
(2.43559 -0.0147961 0)
(2.49934 0.142309 0)
(2.53365 -0.0121425 0)
(2.60893 0.0571206 0)
(2.65876 0.0419605 0)
(2.58998 -0.021535 0)
(2.63596 -2.05705 0)
(2.9846 -2.22271 0)
(2.95662 -1.97748 0)
(2.75537 -1.33916 0)
(2.67339 -0.99245 0)
(2.55976 -0.436992 0)
(2.69805 -0.424325 0)
(2.68194 -0.190161 0)
(2.68769 -0.0800143 0)
(2.58745 -0.018065 0)
(2.93676 -1.83887 0)
(2.99574 -1.77555 0)
(3.05187 -1.56916 0)
(3.13036 -1.53598 0)
(3.09839 -1.62883 0)
(3.06318 -1.55162 0)
(3.04108 -1.4085 0)
(2.92236 -0.920683 0)
(2.90879 -0.784801 0)
(2.80074 -0.330555 0)
(3.05636 -1.57588 0)
(3.01708 -1.71181 0)
(3.02845 -1.55183 0)
(3.06627 -1.44655 0)
(3.1155 -1.38667 0)
(3.13856 -1.34976 0)
(3.1564 -1.23372 0)
(3.16612 -1.28433 0)
(3.15911 -1.27099 0)
(3.05107 -0.945626 0)
(3.16224 -1.19153 0)
(3.17632 -1.13799 0)
(3.1416 -1.17474 0)
(3.13511 -1.16297 0)
(3.13838 -1.085 0)
(3.16149 -1.0507 0)
(3.14252 -1.10725 0)
(3.1311 -1.07574 0)
(3.13468 -1.03114 0)
(3.15192 -1.03699 0)
(3.15584 -0.870479 0)
(3.15831 -0.87787 0)
(3.15803 -0.875628 0)
(3.14977 -0.875003 0)
(3.12766 -0.892009 0)
(3.12717 -0.906056 0)
(3.13488 -0.89554 0)
(3.13746 -0.887799 0)
(3.13747 -0.887816 0)
(3.14364 -0.879278 0)
(3.1104 -0.482664 0)
(3.12462 -0.522478 0)
(3.12666 -0.573818 0)
(3.12503 -0.575898 0)
(3.12367 -0.597885 0)
(3.12222 -0.620514 0)
(3.12618 -0.60757 0)
(3.13358 -0.630161 0)
(3.13527 -0.63802 0)
(3.13725 -0.668939 0)
(3.04509 -0.172041 0)
(3.05108 -0.190324 0)
(3.06702 -0.24607 0)
(3.07282 -0.280026 0)
(3.08032 -0.318868 0)
(3.08467 -0.347265 0)
(3.09428 -0.39985 0)
(3.10372 -0.435247 0)
(3.11132 -0.459533 0)
(3.12045 -0.50141 0)
(2.99243 0.0168898 0)
(2.99849 0.00311671 0)
(3.00637 -0.0150175 0)
(3.01603 -0.0449459 0)
(3.02381 -0.0710701 0)
(3.03429 -0.105726 0)
(3.0464 -0.146889 0)
(3.05673 -0.179195 0)
(3.06965 -0.221818 0)
(3.08682 -0.28194 0)
(2.98284 0.0467762 0)
(2.98338 0.0464758 0)
(2.98478 0.0440951 0)
(2.98669 0.040609 0)
(2.98957 0.035111 0)
(2.99449 0.0254655 0)
(3.00155 0.0108679 0)
(3.01105 -0.010638 0)
(3.02199 -0.0359239 0)
(3.04209 -0.0883959 0)
(2.98721 0.0349678 0)
(2.98739 0.0354481 0)
(2.98615 0.0379402 0)
(2.98641 0.0390069 0)
(2.98661 0.0389376 0)
(2.98718 0.038508 0)
(2.98846 0.0374939 0)
(2.99123 0.0356519 0)
(2.99511 0.0318734 0)
(3.00651 0.0148964 0)
(2.99675 0.00792966 0)
(2.9957 0.0107328 0)
(2.99436 0.0139344 0)
(2.99282 0.0174265 0)
(2.99114 0.0221389 0)
(2.99051 0.0245 0)
(2.9887 0.028886 0)
(2.99108 0.0298456 0)
(2.99202 0.0293537 0)
(2.9965 0.0266084 0)
(2.99982 0.000388772 0)
(2.99967 0.000707348 0)
(2.99944 0.00114358 0)
(2.999 0.00202232 0)
(2.99833 0.00342316 0)
(2.99751 0.00516693 0)
(2.99614 0.00834441 0)
(2.99559 0.0107471 0)
(2.99335 0.015171 0)
(2.99615 0.0173875 0)
(3 5.04413e-06 0)
(2.99999 9.6799e-06 0)
(2.99999 2.05021e-05 0)
(2.99997 4.18532e-05 0)
(2.99993 9.71089e-05 0)
(2.99984 0.000197176 0)
(2.99966 0.000433463 0)
(2.99936 0.000818381 0)
(2.99877 0.00153745 0)
(2.99807 0.00300943 0)
(2.01265 -1.48138 0)
(2.19699 -1.55749 0)
(2.48862 -1.9177 0)
(2.85398 -1.86578 0)
(3.05497 -1.53089 0)
(3.13714 -1.27135 0)
(3.14641 -0.882123 0)
(3.11339 -0.513831 0)
(3.04179 -0.146103 0)
(2.98906 0.0264514 0)
(2.98269 0.0463703 0)
(2.9887 0.0297942 0)
(2.99764 0.00583902 0)
(2.99989 0.000258939 0)
(3 3.19826e-06 0)
(1.978 -1.49794 0)
(2.18249 -1.6677 0)
(2.53443 -1.95519 0)
(2.83237 -1.86023 0)
(3.09735 -1.37149 0)
(3.12562 -1.20468 0)
(3.1415 -0.780964 0)
(3.09694 -0.350099 0)
(3.0185 -0.0501644 0)
(2.98264 0.0471574 0)
(2.98253 0.0465745 0)
(2.99175 0.0223975 0)
(2.99887 0.00289088 0)
(2.99996 8.82246e-05 0)
(3 1.07793e-06 0)
(1.86529 -1.46572 0)
(2.12898 -1.62156 0)
(2.52586 -1.93454 0)
(2.88318 -1.69103 0)
(3.04554 -1.52924 0)
(3.13154 -1.12272 0)
(3.14642 -0.599474 0)
(3.067 -0.200799 0)
(2.99994 0.00305729 0)
(2.98006 0.0542287 0)
(2.98312 0.0460957 0)
(2.99357 0.0182766 0)
(2.99938 0.00165249 0)
(2.99998 3.94578e-05 0)
(3 4.35749e-07 0)
(1.74557 -1.42943 0)
(2.15106 -1.64973 0)
(2.59777 -1.86011 0)
(2.92098 -1.53927 0)
(3.04212 -1.5039 0)
(3.15537 -0.772172 0)
(3.12816 -0.429397 0)
(3.04738 -0.144408 0)
(2.98851 0.0314494 0)
(2.97896 0.0574343 0)
(2.98415 0.0452113 0)
(2.99561 0.0123953 0)
(2.9997 0.00078321 0)
(2.99999 1.62619e-05 0)
(3 1.67483e-07 0)
(1.53265 -1.4186 0)
(2.18285 -1.74701 0)
(2.62704 -1.84353 0)
(2.91236 -1.60225 0)
(3.14625 -1.13775 0)
(3.15974 -0.653317 0)
(3.1049 -0.363658 0)
(3.02425 -0.0726168 0)
(2.98152 0.0512213 0)
(2.97839 0.0587335 0)
(2.98617 0.0376882 0)
(2.99744 0.00688435 0)
(2.99987 0.00033778 0)
(3 6.14363e-06 0)
(3 6.10575e-08 0)
(1.35003 -1.3702 0)
(2.15717 -1.82382 0)
(2.55471 -1.90696 0)
(2.86284 -1.61648 0)
(3.11446 -0.771985 0)
(3.13719 -0.688039 0)
(3.07848 -0.265925 0)
(3.00349 -0.00203717 0)
(2.97771 0.0613591 0)
(2.97823 0.0587152 0)
(2.99067 0.0246767 0)
(2.99862 0.0036531 0)
(2.99995 0.000125076 0)
(3 2.12919e-06 0)
(3 2.08213e-08 0)
(1.29559 -1.39494 0)
(2.11979 -1.8063 0)
(2.48727 -1.90612 0)
(3.00026 -1.16261 0)
(3.14945 -0.936415 0)
(3.12841 -0.457565 0)
(3.03995 -0.0938608 0)
(2.98642 0.0453751 0)
(2.97603 0.0648192 0)
(2.98067 0.0500436 0)
(2.9934 0.0177065 0)
(2.99943 0.00149738 0)
(2.99998 4.24335e-05 0)
(3 6.81645e-07 0)
(3 6.58252e-09 0)
(1.21544 -1.32282 0)
(2.10994 -1.76368 0)
(2.67643 -1.55384 0)
(3.06385 -0.863522 0)
(3.14597 -0.776203 0)
(3.08436 -0.234021 0)
(3.01524 -0.0215804 0)
(2.9779 0.0636353 0)
(2.97567 0.0653345 0)
(2.98553 0.0389754 0)
(2.99656 0.00974562 0)
(2.99978 0.000582492 0)
(2.99999 1.32936e-05 0)
(3 2.03318e-07 0)
(3 1.93474e-09 0)
(1.24718 -1.14656 0)
(1.99856 -1.63135 0)
(2.76523 -0.985476 0)
(3.08466 -1.01617 0)
(3.12626 -0.380099 0)
(3.0639 -0.141919 0)
(2.99233 0.0345819 0)
(2.9739 0.0718202 0)
(2.97618 0.0634134 0)
(2.98805 0.0333707 0)
(2.99851 0.00423818 0)
(2.99994 0.000183061 0)
(3 3.75508e-06 0)
(3 5.56685e-08 0)
(3 5.20536e-10 0)
(1.26726 -0.875983 0)
(2.0509 -1.4739 0)
(2.84553 -1.10579 0)
(3.12276 -0.70047 0)
(3.1091 -0.268516 0)
(3.0237 -0.0245722 0)
(2.97752 0.0684786 0)
(2.97256 0.0747944 0)
(2.97877 0.0573615 0)
(2.99354 0.0174596 0)
(2.99938 0.00175056 0)
(2.99998 5.61921e-05 0)
(3 1.02783e-06 0)
(3 1.46081e-08 0)
(3 1.31542e-10 0)
(0.81775 -0.162496 0)
(2.24181 -0.888039 0)
(2.98581 -0.871294 0)
(3.12184 -0.285712 0)
(3.07061 -0.12593 0)
(2.99152 0.049245 0)
(2.97139 0.0805195 0)
(2.97206 0.0771576 0)
(2.98353 0.0431799 0)
(2.9971 0.00772347 0)
(2.99983 0.000493754 0)
(3 1.32621e-05 0)
(3 2.36212e-07 0)
(3 3.33122e-09 0)
(3 2.9745e-11 0)
(0.329065 0.433621 0)
(2.5327 -0.267258 0)
(3.09906 -0.406593 0)
(3.11436 -0.195601 0)
(3.01575 0.014623 0)
(2.97483 0.0812212 0)
(2.97006 0.0833679 0)
(2.97564 0.0637372 0)
(2.99182 0.0209402 0)
(2.99889 0.00302844 0)
(2.99995 0.000127151 0)
(3 2.93706e-06 0)
(3 4.9492e-08 0)
(3 6.79722e-10 0)
(3 5.92297e-12 0)
(1.13735 0.442059 0)
(2.86769 -0.419561 0)
(3.16052 -0.275074 0)
(3.05953 -0.0301242 0)
(2.98581 0.0621432 0)
(2.96898 0.0891913 0)
(2.97022 0.083027 0)
(2.98314 0.0435401 0)
(2.99588 0.0106482 0)
(2.99972 0.00073952 0)
(2.99999 2.52846e-05 0)
(3 5.34421e-07 0)
(3 8.77775e-09 0)
(3 1.18671e-10 0)
(3 1.01771e-12 0)
(2.03669 0.224624 0)
(3.17069 -0.126302 0)
(3.11423 -0.0486136 0)
(2.99815 0.0773588 0)
(2.96857 0.0880194 0)
(2.96816 0.0898067 0)
(2.97757 0.0594697 0)
(2.99132 0.0220787 0)
(2.99888 0.00287858 0)
(2.99994 0.000150581 0)
(3 4.07308e-06 0)
(3 7.96106e-08 0)
(3 1.25218e-09 0)
(3 1.66128e-11 0)
(3 1.38591e-13 0)
(2.69843 0.114332 0)
(3.13757 -0.00812793 0)
(3.01366 0.0661128 0)
(2.97165 0.101054 0)
(2.96644 0.0900557 0)
(2.97206 0.0777292 0)
(2.98408 0.0418192 0)
(2.99651 0.00861914 0)
(2.99974 0.000628554 0)
(2.99999 2.2311e-05 0)
(3 5.16042e-07 0)
(3 9.00408e-09 0)
(3 1.36587e-10 0)
(3 1.96015e-12 0)
(3 1.37575e-14 0)
(2.95649 0.0950714 0)
(2.96251 0.096219 0)
(2.96534 0.101383 0)
(2.96552 0.10397 0)
(2.97905 0.0829696 0)
(2.97977 0.0574701 0)
(2.99391 0.0143919 0)
(2.99956 0.000839904 0)
(2.99999 1.03963e-05 0)
(3 9.30164e-07 0)
(3 -5.01989e-09 0)
(3 -7.14901e-11 0)
(3 4.25601e-12 0)
(3 2.1238e-13 0)
(3 -1.36769e-15 0)
(2.95426 0.0953817 0)
(2.95939 0.0953087 0)
(2.9654 0.0982207 0)
(2.96593 0.106346 0)
(2.9717 0.0841119 0)
(2.9786 0.057248 0)
(2.99446 0.0143272 0)
(2.99932 0.0015232 0)
(2.99997 6.41618e-05 0)
(3 1.45501e-06 0)
(3 2.37486e-08 0)
(3 3.15488e-10 0)
(3 2.90425e-12 0)
(3 1.54561e-14 0)
(3 -1.06994e-15 0)
(2.95351 0.0965542 0)
(2.95998 0.0972775 0)
(2.96728 0.0983742 0)
(2.9667 0.104808 0)
(2.97676 0.0692796 0)
(2.98796 0.0301463 0)
(2.99782 0.00451717 0)
(2.99988 0.000226465 0)
(3 4.50759e-06 0)
(3 6.00322e-08 0)
(3 6.31577e-10 0)
(3 5.62751e-12 0)
(3 4.22006e-14 0)
(3 -1.35282e-15 0)
(3 -1.01326e-15 0)
(2.9531 0.0975292 0)
(2.95928 0.0993677 0)
(2.96771 0.0973308 0)
(2.97241 0.0953538 0)
(2.97742 0.067082 0)
(2.99188 0.0191138 0)
(2.99892 0.00234384 0)
(2.99996 7.39687e-05 0)
(3 1.41887e-06 0)
(3 1.76047e-08 0)
(3 1.81882e-10 0)
(3 1.59142e-12 0)
(3 1.21508e-14 0)
(3 -1.74686e-15 0)
(3 -1.05493e-15 0)
(2.95327 0.098299 0)
(2.95708 0.102478 0)
(2.96735 0.095935 0)
(2.97194 0.0922983 0)
(2.98466 0.0435564 0)
(2.99514 0.0112027 0)
(2.99966 0.000649412 0)
(2.99999 2.12323e-05 0)
(3 3.09281e-07 0)
(3 3.74582e-09 0)
(3 3.66778e-11 0)
(3 3.13275e-13 0)
(3 3.7479e-15 0)
(3 -2.45811e-15 0)
(3 -1.33285e-15 0)
(2.95441 0.101281 0)
(2.95451 0.105652 0)
(2.96846 0.0930082 0)
(2.97526 0.0860339 0)
(2.98896 0.0292525 0)
(2.99799 0.00419863 0)
(2.99988 0.00024641 0)
(3 4.85743e-06 0)
(3 7.4535e-08 0)
(3 8.36456e-10 0)
(3 7.96687e-12 0)
(3 6.91179e-14 0)
(3 1.85306e-15 0)
(3 -2.18835e-15 0)
(3 -1.30089e-15 0)
(2.9536 0.0993135 0)
(2.95319 0.111089 0)
(2.97724 0.0840872 0)
(2.98628 0.0560663 0)
(2.99376 0.0161495 0)
(2.99919 0.00170383 0)
(2.99997 5.61245e-05 0)
(3 1.175e-06 0)
(3 1.53796e-08 0)
(3 1.68373e-10 0)
(3 1.5476e-12 0)
(3 1.38281e-14 0)
(3 1.02844e-15 0)
(3 -2.31134e-15 0)
(3 -1.49997e-15 0)
(2.95161 0.0968807 0)
(2.95432 0.120279 0)
(2.98255 0.069892 0)
(2.98685 0.0443795 0)
(2.99666 0.00792496 0)
(2.99975 0.000491997 0)
(2.99999 1.56861e-05 0)
(3 2.45937e-07 0)
(3 3.1683e-09 0)
(3 3.24849e-11 0)
(3 2.92214e-13 0)
(3 4.78012e-15 0)
(3 8.03407e-16 0)
(3 -2.343e-15 0)
(3 -1.69638e-15 0)
(2.95473 0.085096 0)
(2.95929 0.123344 0)
(2.98345 0.0602018 0)
(2.99157 0.0228337 0)
(2.99872 0.00273702 0)
(2.99993 0.000151532 0)
(3 3.07455e-06 0)
(3 4.99789e-08 0)
(3 5.69984e-10 0)
(3 5.72332e-12 0)
(3 5.18461e-14 0)
(3 2.69949e-15 0)
(3 3.65646e-16 0)
(3 -2.21357e-15 0)
(3 -1.1656e-15 0)
(2.95942 0.0742233 0)
(2.96489 0.105605 0)
(2.98833 0.0382572 0)
(2.99584 0.0109254 0)
(2.99954 0.000992262 0)
(2.99998 3.09154e-05 0)
(3 6.67226e-07 0)
(3 8.42348e-09 0)
(3 9.94976e-11 0)
(3 8.81367e-13 0)
(3 9.79021e-15 0)
(3 2.00967e-15 0)
(3 -4.87631e-17 0)
(3 -2.12524e-15 0)
(3 -6.33908e-16 0)
(2.95778 0.0550753 0)
(2.96892 0.0890738 0)
(2.99188 0.0250936 0)
(2.99824 0.00439929 0)
(2.99988 0.000239728 0)
(3 6.76335e-06 0)
(3 1.0112e-07 0)
(3 1.40033e-09 0)
(3 1.32634e-11 0)
(3 1.26524e-13 0)
(3 3.48464e-15 0)
(3 2.69081e-15 0)
(3 -3.66105e-16 0)
(3 -2.20784e-15 0)
(3 1.17284e-15 0)
(2.96576 0.0414754 0)
(2.97759 0.0623323 0)
(2.99527 0.0129023 0)
(2.99938 0.00139824 0)
(2.99997 5.42447e-05 0)
(3 1.07547e-06 0)
(3 1.63253e-08 0)
(3 1.68047e-10 0)
(3 1.79769e-12 0)
(3 1.73659e-14 0)
(3 2.99616e-15 0)
(3 3.44029e-15 0)
(3 -7.18864e-16 0)
(3 -2.60097e-15 0)
(3 1.00982e-15 0)
(2.97133 0.0267087 0)
(2.98524 0.037285 0)
(2.99805 0.00479599 0)
(2.99986 0.000305973 0)
(3 8.325e-06 0)
(3 1.39272e-07 0)
(3 1.70642e-09 0)
(3 2.00771e-11 0)
(3 1.62196e-13 0)
(3 5.25324e-15 0)
(3 2.09293e-15 0)
(3 3.00057e-15 0)
(3 -3.61338e-16 0)
(3 -2.51986e-15 0)
(3 5.26314e-16 0)
(2.98076 0.00901569 0)
(2.99287 0.0165961 0)
(2.99944 0.00129598 0)
(2.99998 4.7081e-05 0)
(3 8.9336e-07 0)
(3 1.29073e-08 0)
(3 1.55468e-10 0)
(3 1.34136e-12 0)
(3 1.60574e-14 0)
(3 3.87496e-15 0)
(3 1.68684e-15 0)
(3 2.63243e-15 0)
(3 2.49717e-16 0)
(3 -2.17394e-15 0)
(3 4.36248e-16 0)
(2.99034 0.00391073 0)
(2.9978 0.00438406 0)
(2.99991 0.000177158 0)
(3 3.93261e-06 0)
(3 5.76708e-08 0)
(3 6.73768e-10 0)
(3 6.49201e-12 0)
(3 6.61766e-14 0)
(3 2.387e-15 0)
(3 2.16972e-15 0)
(3 1.31763e-15 0)
(3 2.20296e-15 0)
(3 2.21229e-16 0)
(3 -2.02615e-15 0)
(3 5.59122e-16 0)
(3 2.6021e-16 0)
(3 -2.99424e-15 0)
(3 -1.29876e-15 0)
(3 -1.47768e-16 0)
(3 3.39421e-16 0)
(3 1.36606e-15 0)
(3 3.335e-15 0)
(3 3.40503e-15 0)
(3 1.3997e-15 0)
(3 6.75113e-16 0)
(3 1.09745e-15 0)
(3 1.98627e-15 0)
(3 -6.82251e-16 0)
(3 -1.95851e-15 0)
(3 1.03017e-15 0)
(3 -4.41779e-16 0)
(3 -3.58066e-15 0)
(3 -1.92879e-15 0)
(3 -4.1069e-16 0)
(3 1.15914e-15 0)
(3 1.67425e-15 0)
(3 3.15216e-15 0)
(3 4.61134e-15 0)
(3 1.06715e-15 0)
(3 -3.63882e-16 0)
(3 8.10174e-16 0)
(3 1.9087e-15 0)
(3 -1.32011e-15 0)
(3 -2.23669e-15 0)
(3 1.31103e-15 0)
(3 -2.85228e-15 0)
(3 -3.94839e-15 0)
(3 -6.94592e-16 0)
(3 1.29903e-16 0)
(3 -1.83221e-16 0)
(3 1.04733e-15 0)
(3 2.64896e-15 0)
(3 4.29035e-15 0)
(3 7.79585e-16 0)
(3 -6.77641e-16 0)
(3 5.88432e-16 0)
(3 1.5205e-15 0)
(3 -1.78593e-15 0)
(3 -2.38461e-15 0)
(3 9.6301e-16 0)
(3 -4.83295e-15 0)
(3 -3.68659e-15 0)
(3 1.93131e-16 0)
(3 7.97369e-16 0)
(3 -4.67999e-16 0)
(3 2.80576e-16 0)
(3 1.58505e-15 0)
(3 3.29674e-15 0)
(3 5.26097e-16 0)
(3 -8.70828e-16 0)
(3 4.71149e-16 0)
(3 1.37928e-15 0)
(3 -2.20898e-15 0)
(3 -2.5036e-15 0)
(3 5.11299e-16 0)
(3 -6.60028e-15 0)
(3 -3.09773e-15 0)
(3 1.06451e-15 0)
(3 3.19395e-16 0)
(3 -1.02016e-15 0)
(3 -1.03668e-15 0)
(3 1.68201e-15 0)
(3 3.58302e-15 0)
(3 9.69479e-18 0)
(3 -1.16973e-15 0)
(3 6.719e-17 0)
(3 1.57417e-15 0)
(3 -1.56945e-15 0)
(3 -2.42477e-15 0)
(3 9.73835e-17 0)
(3 -5.72963e-15 0)
(3 -2.78351e-15 0)
(3 -1.4486e-16 0)
(3 -1.26319e-15 0)
(3 -1.11226e-15 0)
(3 -2.07683e-15 0)
(3 1.7178e-15 0)
(3 3.81497e-15 0)
(3 -2.62889e-16 0)
(3 -1.50548e-15 0)
(3 2.25929e-16 0)
(3 2.36196e-15 0)
(3 -1.26963e-15 0)
(3 -2.82514e-15 0)
(3 -9.64417e-17 0)
(3 -4.31164e-15 0)
(3 -2.88097e-15 0)
(3 -1.97952e-15 0)
(3 -2.05204e-15 0)
(3 -1.94282e-16 0)
(3 -1.34924e-15 0)
(3 1.05622e-15 0)
(3 3.94588e-15 0)
(3 -5.61136e-16 0)
(3 -2.22055e-15 0)
(3 4.41686e-16 0)
(3 2.89137e-15 0)
(3 -9.69132e-16 0)
(3 -3.22307e-15 0)
(3 -4.46343e-16 0)
(3 -3.34241e-15 0)
(3 -4.24481e-15 0)
(3 -3.3991e-15 0)
(3 -2.20627e-15 0)
(3 1.98178e-16 0)
(3 -3.96684e-16 0)
(3 6.34956e-16 0)
(3 4.058e-15 0)
(3 -2.69531e-18 0)
(3 -1.89331e-15 0)
(3 6.21412e-16 0)
(3 2.18662e-15 0)
(3 -1.45152e-15 0)
(3 -2.5892e-15 0)
(3 -5.01195e-16 0)
(3 -1.04424e-16 0)
(3 -3.98088e-15 0)
(3 -4.52956e-15 0)
(3 -1.32121e-15 0)
(3 -1.25304e-16 0)
(3 -5.32834e-16 0)
(3 1.69613e-15 0)
(3 2.79278e-15 0)
(3 -1.63458e-16 0)
(3 -9.90453e-16 0)
(3 6.78494e-16 0)
(3 8.47313e-16 0)
(3 -1.54748e-15 0)
(3 -1.04938e-15 0)
(3 3.26968e-16 0)
(3 6.31847e-16 0)
(3 -6.84695e-16 0)
(3 -1.36679e-15 0)
(3 -9.89662e-16 0)
(3 -1.08823e-15 0)
(3 -4.48512e-16 0)
(3 6.67353e-16 0)
(3 2.50434e-16 0)
(3 7.80715e-16 0)
(3 1.82653e-16 0)
(3 -1.60432e-16 0)
(3 7.58815e-16 0)
(3 -4.10051e-16 0)
(3 -6.09473e-16 0)
(3 1.76237e-16 0)
(3 -2.05863e-15 0)
(3 -2.35687e-15 0)
(3 -4.04864e-15 0)
(3 -5.82764e-15 0)
(3 -6.51563e-15 0)
(3 -3.45733e-15 0)
(3 -6.13213e-16 0)
(3 7.63891e-16 0)
(3 3.07879e-16 0)
(3 8.33662e-16 0)
(3 -2.54121e-15 0)
(3 -2.72298e-15 0)
(3 -1.5369e-15 0)
(3 -1.0231e-15 0)
(3 -5.98126e-16 0)
(3 1.87258e-16 0)
(3 5.14062e-16 0)
(3 1.9696e-15 0)
(3 -8.83897e-16 0)
(3 2.99556e-16 0)
(3 -4.55828e-15 0)
(3 -2.16358e-15 0)
(3 -4.89338e-17 0)
(3 3.30834e-15 0)
(3 4.92883e-15 0)
(3 5.0557e-15 0)
(3 2.96905e-15 0)
(3 2.19545e-15 0)
(3 1.05092e-15 0)
(3 5.22176e-16 0)
(3 -3.74062e-15 0)
(3 -4.69873e-15 0)
(3 -2.40844e-15 0)
(3 -1.04195e-15 0)
(3 1.60016e-15 0)
(3 3.99291e-15 0)
(3 5.65865e-15 0)
(3 5.05553e-15 0)
(3 3.11798e-15 0)
(3 -1.39401e-16 0)
(3 -4.65676e-15 0)
(3 -2.49964e-15 0)
(3 -9.4707e-16 0)
(3 3.14316e-16 0)
(3 1.53394e-15 0)
(3 2.96219e-15 0)
(3 3.11415e-15 0)
(3 4.16422e-15 0)
(3 3.5387e-15 0)
(3 6.15016e-16 0)
(3 -7.79352e-16 0)
(3 2.07349e-16 0)
(3 2.87723e-16 0)
(3 1.7951e-15 0)
(3 2.09462e-15 0)
(3 1.39426e-15 0)
(3 1.15959e-16 0)
(3 6.69386e-16 0)
(3 1.14514e-15 0)
(3 2.42621e-16 0)
(3 1.3587e-15 0)
(3 7.4061e-16 0)
(3 3.92101e-16 0)
(3 -1.45171e-16 0)
(3 -2.87573e-16 0)
(3 -7.17386e-16 0)
(3 -1.2642e-15 0)
(3 -1.65217e-15 0)
(3 -5.37245e-16 0)
(3 1.00322e-16 0)
(3 -4.1723e-16 0)
(3 -3.49825e-16 0)
(3 -1.5999e-15 0)
(3 -2.45227e-15 0)
(3 -2.94195e-15 0)
(3 -3.73501e-15 0)
(3 -3.61954e-15 0)
(3 -2.23911e-15 0)
(3 -9.84067e-16 0)
(3 5.81626e-18 0)
(3 -1.52486e-15 0)
(3 -1.09059e-15 0)
(3 -2.29161e-15 0)
(3 -3.31873e-15 0)
(3 -4.82373e-15 0)
(3 -5.38934e-15 0)
(3 -4.29316e-15 0)
(3 -3.41376e-15 0)
(3 -2.76367e-15 0)
(3 -1.03181e-15 0)
(3 -8.79715e-16 0)
(3 -2.57663e-15 0)
(3 -2.86435e-15 0)
(3 -3.72302e-15 0)
(3 -4.10815e-15 0)
(3 -3.60251e-15 0)
(3 -4.09908e-15 0)
(3 -4.31854e-15 0)
(3 -1.29998e-15 0)
(3 -8.03329e-17 0)
(3 6.52293e-16 0)
(3 8.77288e-16 0)
(3 9.35527e-16 0)
(3 2.17088e-15 0)
(3 3.55748e-15 0)
(3 3.05236e-15 0)
(3 1.67979e-15 0)
(3 1.3792e-15 0)
(3 1.26638e-15 0)
(3 7.01667e-16 0)
(3 2.28733e-15 0)
(3 3.66888e-15 0)
(3 5.75136e-15 0)
(3 6.37014e-15 0)
(3 6.28905e-15 0)
(3 6.08254e-15 0)
(3 6.39084e-15 0)
(3 3.93147e-15 0)
(3 8.96125e-16 0)
(3 -2.57293e-16 0)
(3 3.9849e-15 0)
(3 4.59595e-15 0)
(3 4.25941e-15 0)
(3 3.67176e-15 0)
(3 3.50561e-15 0)
(3 3.29841e-15 0)
(3 1.42231e-15 0)
(3 1.78349e-15 0)
(3 1.68054e-15 0)
(3 1.78229e-16 0)
(3 3.2655e-15 0)
(3 3.18207e-15 0)
(3 2.55733e-15 0)
(3 7.43291e-16 0)
(3 -1.97678e-15 0)
(3 -2.18607e-15 0)
(3 -2.33113e-15 0)
(3 -1.39866e-15 0)
(3 -2.75231e-16 0)
(3 3.61044e-16 0)
(3 1.20971e-15 0)
(3 1.16593e-15 0)
(3 1.09303e-15 0)
(3 4.88851e-16 0)
(3 -1.61937e-15 0)
(3 -2.12164e-15 0)
(3 -2.28018e-15 0)
(3 -1.78114e-15 0)
(3 -2.00862e-15 0)
(3 -2.84645e-16 0)
(3 1.75172e-17 0)
(3 -4.53453e-16 0)
(3 -1.91536e-15 0)
(3 -2.70399e-16 0)
(3 9.06057e-16 0)
(3 1.2381e-15 0)
(3 7.71659e-16 0)
(3 -7.7438e-16 0)
(3 -1.34689e-15 0)
(3 -1.57992e-15 0)
(3 -2.15625e-15 0)
(3 -2.43935e-15 0)
(3 -1.82626e-15 0)
(3 -1.08624e-15 0)
(3 -3.91811e-16 0)
(3 4.24473e-16 0)
(3 1.11338e-15 0)
(3 6.96295e-16 0)
(3 4.2042e-16 0)
(3 -8.15558e-16 0)
(3 -3.69087e-15 0)
(3 -2.64209e-15 0)
(3 -2.27094e-15 0)
(3 -2.06293e-15 0)
(3 -1.53383e-15 0)
(3 -1.08893e-15 0)
(3 4.74343e-16 0)
(3 6.64941e-16 0)
(3 1.41999e-15 0)
(3 1.39795e-15 0)
(3 -2.16654e-15 0)
(3 -2.09711e-15 0)
(3 -1.11741e-15 0)
(3 -5.75118e-16 0)
(3 -3.48232e-16 0)
(3 -7.28258e-16 0)
(3 -7.12101e-16 0)
(3 -4.61087e-16 0)
(3 -1.05903e-16 0)
(3 3.81161e-16 0)
(3 -3.4729e-16 0)
(3 -1.09606e-16 0)
(3 4.90416e-16 0)
(3 7.02604e-16 0)
(3 5.8061e-16 0)
(3 2.90103e-17 0)
(3 -5.22618e-16 0)
(3 -7.42388e-16 0)
(3 -7.59995e-16 0)
(3 -8.75985e-16 0)
(1.94437 -0.579645 0)
(2.44757 -0.436445 0)
(3.00001 4.2569e-06 0)
(3 -2.63408e-11 0)
(3 -3.6018e-15 0)
(3 -8.42777e-16 0)
(3 1.4358e-15 0)
(3 -5.76832e-16 0)
(3 -5.08254e-16 0)
(3 -8.05004e-17 0)
(3 1.26647e-16 0)
(3 2.79626e-15 0)
(3 3.73238e-15 0)
(3 3.15867e-15 0)
(3 1.01935e-15 0)
(3 -1.67382e-16 0)
(3 -2.41675e-15 0)
(3 -3.78946e-15 0)
(3 -2.41095e-15 0)
(3 -3.71342e-16 0)
(1.13472 -0.654259 0)
(1.10721 -0.8817 0)
(1.8339 -0.824695 0)
(2.93981 -0.112093 0)
(3 3.15555e-07 0)
(3 1.59275e-12 0)
(3 8.09958e-16 0)
(3 -8.37413e-16 0)
(3 2.03299e-15 0)
(3 5.27266e-16 0)
(3 -8.22681e-16 0)
(3 2.45573e-15 0)
(3 3.78923e-15 0)
(3 2.41295e-15 0)
(3 1.48376e-15 0)
(3 -1.94347e-16 0)
(3 -3.03633e-15 0)
(3 -4.00388e-15 0)
(3 -2.23586e-15 0)
(3 -2.44925e-16 0)
(1.25912 -0.812988 0)
(1.18521 -0.887234 0)
(1.27218 -0.892406 0)
(1.56785 -0.840978 0)
(2.69459 -0.284741 0)
(2.99995 0.00036091 0)
(3 -1.80231e-09 0)
(3 1.08485e-14 0)
(3 1.46401e-15 0)
(3 3.96685e-16 0)
(3 4.59343e-16 0)
(3 3.69548e-15 0)
(3 3.45668e-15 0)
(3 1.49048e-15 0)
(3 1.28098e-15 0)
(3 -2.7617e-16 0)
(3 -4.04278e-15 0)
(3 -3.93509e-15 0)
(3 -1.2891e-15 0)
(3 1.35182e-17 0)
(1.29369 -0.891055 0)
(1.25714 -0.896884 0)
(1.29794 -0.889024 0)
(1.32597 -0.901507 0)
(1.50672 -0.852463 0)
(2.52658 -0.385392 0)
(3.0014 0.00136176 0)
(3 -2.34361e-06 0)
(3 3.1876e-09 0)
(3 -9.04515e-15 0)
(3 2.95596e-15 0)
(3 4.82894e-15 0)
(3 2.11436e-15 0)
(3 1.18742e-15 0)
(3 4.94758e-16 0)
(3 -6.30827e-16 0)
(3 -4.26248e-15 0)
(3 -3.55394e-15 0)
(3 -7.18789e-16 0)
(3 5.84928e-16 0)
(1.31881 -0.918179 0)
(1.30582 -0.911244 0)
(1.32785 -0.904121 0)
(1.35538 -0.914037 0)
(1.36633 -0.936026 0)
(1.52517 -0.877823 0)
(2.56244 -0.313938 0)
(3.00166 0.0011861 0)
(3 -2.33699e-06 0)
(3 6.35225e-09 0)
(3 -1.28257e-12 0)
(3 7.10389e-15 0)
(3 1.75405e-15 0)
(3 6.26387e-16 0)
(3 -1.19281e-15 0)
(3 -1.53423e-15 0)
(3 -3.81155e-15 0)
(3 -3.24791e-15 0)
(3 -2.45401e-17 0)
(3 1.05071e-15 0)
(1.3391 -0.928667 0)
(1.33832 -0.921373 0)
(1.35291 -0.916719 0)
(1.37323 -0.925448 0)
(1.40098 -0.939616 0)
(1.44276 -0.95121 0)
(1.73154 -0.844668 0)
(2.72728 -0.201862 0)
(3.00118 0.000903383 0)
(3 -2.74257e-06 0)
(3 1.20161e-12 0)
(3 8.2331e-15 0)
(3 2.1951e-15 0)
(3 -1.25163e-16 0)
(3 -2.64826e-15 0)
(3 -2.69796e-15 0)
(3 -3.14363e-15 0)
(3 -2.70339e-15 0)
(3 3.05844e-16 0)
(3 1.28736e-15 0)
(1.3554 -0.937158 0)
(1.35832 -0.937174 0)
(1.37584 -0.935696 0)
(1.39918 -0.93697 0)
(1.42812 -0.948288 0)
(1.4577 -0.972566 0)
(1.50507 -0.982334 0)
(2.0001 -0.743693 0)
(2.90799 -0.074975 0)
(3.00002 0.000230812 0)
(3 -7.95057e-11 0)
(3 -2.84923e-15 0)
(3 4.21016e-15 0)
(3 -1.28635e-15 0)
(3 -3.36516e-15 0)
(3 -2.86951e-15 0)
(3 -2.70338e-15 0)
(3 -2.22441e-15 0)
(3 3.58881e-16 0)
(3 1.37207e-15 0)
(1.36958 -0.947196 0)
(1.37402 -0.951759 0)
(1.3931 -0.952075 0)
(1.41629 -0.956527 0)
(1.44271 -0.964417 0)
(1.46585 -0.989519 0)
(1.472 -1.0141 0)
(1.58053 -0.98955 0)
(2.37497 -0.485939 0)
(2.99901 -0.00227443 0)
(3 -1.3242e-06 0)
(3 3.70179e-09 0)
(3 1.79307e-12 0)
(3 -1.1356e-16 0)
(3 -4.58983e-15 0)
(3 -4.41321e-15 0)
(3 -2.51444e-15 0)
(3 -2.33762e-15 0)
(3 1.1396e-16 0)
(3 1.20667e-15 0)
(1.38349 -0.958913 0)
(1.38837 -0.965373 0)
(1.40815 -0.967592 0)
(1.42867 -0.973013 0)
(1.45077 -0.979705 0)
(1.46766 -1.00152 0)
(1.50129 -1.00329 0)
(1.56147 -0.991342 0)
(1.82351 -0.856037 0)
(2.7292 -0.20144 0)
(3.00138 0.00105152 0)
(3 -3.37016e-08 0)
(3 -4.97379e-11 0)
(3 1.39952e-14 0)
(3 -4.46604e-15 0)
(3 -5.71572e-15 0)
(3 -1.0965e-15 0)
(3 -2.19076e-15 0)
(3 -9.05856e-16 0)
(3 8.36937e-16 0)
(1.40051 -0.970516 0)
(1.40576 -0.977783 0)
(1.42533 -0.980575 0)
(1.44113 -0.984958 0)
(1.46165 -0.9884 0)
(1.48614 -1.00555 0)
(1.54209 -0.996488 0)
(1.57876 -1.01736 0)
(1.61713 -1.02234 0)
(2.11541 -0.690157 0)
(2.94324 -0.0460627 0)
(3 -3.03999e-08 0)
(3 1.49318e-10 0)
(3 -1.63904e-14 0)
(3 -5.89775e-15 0)
(3 -4.89624e-15 0)
(3 -1.7862e-16 0)
(3 -2.15081e-15 0)
(3 -1.39529e-15 0)
(3 4.21669e-16 0)
(1.42375 -0.983363 0)
(1.42762 -0.990389 0)
(1.44497 -0.992036 0)
(1.45719 -0.994895 0)
(1.47681 -0.992976 0)
(1.50575 -1.01042 0)
(1.56305 -1.01155 0)
(1.58036 -1.04139 0)
(1.5718 -1.0729 0)
(1.73808 -0.999761 0)
(2.59599 -0.335542 0)
(3.00219 0.00170691 0)
(3 -5.78912e-08 0)
(3 -3.02734e-11 0)
(3 -3.41754e-14 0)
(3 -4.13754e-15 0)
(3 5.80128e-16 0)
(3 -1.13034e-15 0)
(3 -1.4818e-15 0)
(3 -1.07449e-16 0)
(1.44778 -0.999483 0)
(1.4505 -1.00458 0)
(1.46527 -1.00472 0)
(1.47606 -1.0044 0)
(1.49563 -1.00023 0)
(1.52507 -1.01753 0)
(1.56879 -1.0276 0)
(1.58202 -1.05401 0)
(1.5953 -1.05938 0)
(1.70324 -1.01394 0)
(2.16869 -0.721931 0)
(2.92986 -0.0633388 0)
(3 -4.23371e-08 0)
(3 9.58332e-11 0)
(3 1.73301e-12 0)
(3 1.06413e-15 0)
(3 -1.5624e-17 0)
(3 -1.39936e-15 0)
(3 -2.22407e-15 0)
(3 -5.62346e-16 0)
(1.46822 -1.01734 0)
(1.47118 -1.02066 0)
(1.48538 -1.01972 0)
(1.49685 -1.0165 0)
(1.5136 -1.01233 0)
(1.53564 -1.02691 0)
(1.57121 -1.0415 0)
(1.59553 -1.06446 0)
(1.63377 -1.05901 0)
(1.68493 -1.06348 0)
(1.75467 -1.02643 0)
(2.58905 -0.355482 0)
(3.00181 0.00151713 0)
(3 -1.54083e-06 0)
(3 -8.92577e-09 0)
(3 2.12819e-11 0)
(3 2.6461e-13 0)
(3 -4.0956e-16 0)
(3 -2.94306e-15 0)
(3 -8.81157e-16 0)
(1.48551 -1.03285 0)
(1.48856 -1.03632 0)
(1.50267 -1.03594 0)
(1.51271 -1.03023 0)
(1.52599 -1.02687 0)
(1.54723 -1.03606 0)
(1.57849 -1.05332 0)
(1.61043 -1.07019 0)
(1.64404 -1.0691 0)
(1.66449 -1.08293 0)
(1.72138 -1.05936 0)
(2.1982 -0.715443 0)
(2.92871 -0.0825024 0)
(3 2.42817e-07 0)
(3 -6.56231e-09 0)
(3 -8.01411e-11 0)
(3 1.9154e-14 0)
(3 5.6255e-15 0)
(3 -2.42476e-15 0)
(3 -7.37897e-16 0)
(1.50841 -1.05154 0)
(1.51179 -1.05659 0)
(1.52642 -1.05695 0)
(1.53509 -1.04911 0)
(1.54633 -1.04128 0)
(1.5635 -1.04873 0)
(1.59153 -1.06552 0)
(1.62302 -1.07834 0)
(1.64857 -1.08547 0)
(1.67822 -1.09538 0)
(1.72933 -1.09364 0)
(1.90557 -0.974459 0)
(2.83591 -0.161884 0)
(3.01219 0.0169017 0)
(3.00006 7.88109e-05 0)
(3 8.09427e-08 0)
(3 1.2381e-10 0)
(3 2.58567e-13 0)
(3 -6.20079e-16 0)
(3 -5.65416e-16 0)
(2.06412 -0.924528 0)
(2.15925 -0.776052 0)
(1.95594 -0.90565 0)
(1.86617 -0.963049 0)
(1.80561 -0.987688 0)
(1.75404 -1.01426 0)
(1.73195 -1.03401 0)
(1.72112 -1.05552 0)
(1.71814 -1.07843 0)
(1.72353 -1.09002 0)
(1.74564 -1.09375 0)
(1.78054 -1.0822 0)
(2.03004 -0.865265 0)
(2.83628 -0.185937 0)
(2.99737 -0.00679642 0)
(2.99998 -4.18261e-05 0)
(3 -1.84935e-07 0)
(3 -6.89815e-10 0)
(3 -2.35271e-12 0)
(3 -6.92484e-15 0)
(2.56357 -0.95423 0)
(2.58478 -0.35053 0)
(2.32626 -0.639755 0)
(2.20207 -0.777555 0)
(2.0763 -0.873414 0)
(2.01598 -0.905196 0)
(1.92273 -0.968386 0)
(1.89003 -0.993631 0)
(1.84599 -1.04251 0)
(1.82898 -1.06128 0)
(1.81079 -1.07757 0)
(1.80779 -1.0697 0)
(1.83691 -1.04943 0)
(2.25215 -0.750424 0)
(2.91366 -0.118999 0)
(2.9989 -0.00277662 0)
(2.99999 -1.51984e-05 0)
(3 -6.48814e-08 0)
(3 -2.40885e-10 0)
(3 -7.54899e-13 0)
(2.86178 -0.235071 0)
(2.83307 0.10528 0)
(2.61221 -0.253937 0)
(2.48379 -0.463575 0)
(2.3416 -0.664405 0)
(2.22537 -0.774204 0)
(2.13496 -0.852266 0)
(2.06684 -0.901802 0)
(1.99666 -0.972248 0)
(1.96245 -1.00518 0)
(1.91223 -1.03944 0)
(1.86735 -1.04349 0)
(1.85566 -1.05425 0)
(1.97613 -0.984973 0)
(2.53955 -0.524066 0)
(2.97464 -0.0417115 0)
(2.99978 -0.000550147 0)
(3 -2.60872e-06 0)
(3 -1.04025e-08 0)
(3 -3.37324e-11 0)
(2.94807 0.0287433 0)
(2.89855 0.314294 0)
(2.73076 -0.161782 0)
(2.63432 -0.341802 0)
(2.56416 -0.430196 0)
(2.39409 -0.644244 0)
(2.33708 -0.703715 0)
(2.20202 -0.833679 0)
(2.16283 -0.860833 0)
(2.08891 -0.933235 0)
(2.03691 -0.972248 0)
(1.99418 -0.994675 0)
(1.91209 -1.05661 0)
(1.93831 -1.0459 0)
(2.20014 -0.847515 0)
(2.76817 -0.297287 0)
(2.99417 -0.0106588 0)
(2.99996 -7.90643e-05 0)
(3 -3.28024e-07 0)
(3 -1.07979e-09 0)
(2.83683 0.168347 0)
(2.85487 0.244842 0)
(2.75055 -0.0374429 0)
(2.77129 -0.0981892 0)
(2.67105 -0.341361 0)
(2.57561 -0.475728 0)
(2.463 -0.606434 0)
(2.36574 -0.718575 0)
(2.28495 -0.790269 0)
(2.21021 -0.854188 0)
(2.15664 -0.893447 0)
(2.11026 -0.950176 0)
(2.00971 -1.02477 0)
(1.97169 -1.04442 0)
(2.02487 -1.02982 0)
(2.4929 -0.639433 0)
(2.93868 -0.102946 0)
(2.99924 -0.00162014 0)
(3 -7.73161e-06 0)
(3 -2.56288e-08 0)
(2.87054 0.161417 0)
(2.87067 0.220999 0)
(2.83748 0.165841 0)
(2.82865 0.2096 0)
(2.7654 -0.103373 0)
(2.73179 -0.233243 0)
(2.56066 -0.486229 0)
(2.52464 -0.539867 0)
(2.37313 -0.713777 0)
(2.32929 -0.748829 0)
(2.23911 -0.846217 0)
(2.22303 -0.893066 0)
(2.10364 -0.981983 0)
(2.03479 -1.02987 0)
(2.04352 -1.03949 0)
(2.21563 -0.926191 0)
(2.76735 -0.334358 0)
(2.99302 -0.0147548 0)
(2.99996 -0.000106842 0)
(3 -3.67042e-07 0)
(2.90773 0.140466 0)
(2.89637 0.158156 0)
(2.86795 0.199139 0)
(2.85245 0.262478 0)
(2.8248 0.0573343 0)
(2.79655 -0.0705185 0)
(2.69247 -0.275326 0)
(2.60315 -0.417008 0)
(2.50752 -0.555436 0)
(2.41275 -0.658696 0)
(2.33553 -0.763204 0)
(2.33574 -0.808552 0)
(2.19237 -0.924268 0)
(2.11503 -0.986205 0)
(2.08091 -1.0269 0)
(2.15014 -0.989035 0)
(2.55038 -0.607073 0)
(2.94668 -0.0925717 0)
(2.99945 -0.00117281 0)
(3 -4.79929e-06 0)
(2.94425 0.103749 0)
(2.92488 0.0927076 0)
(2.8792 0.163107 0)
(2.88683 0.194483 0)
(2.85645 0.0280555 0)
(2.83262 -0.0810273 0)
(2.78427 -0.173187 0)
(2.66067 -0.375165 0)
(2.60396 -0.424553 0)
(2.4769 -0.594666 0)
(2.44606 -0.642894 0)
(2.40717 -0.744941 0)
(2.30153 -0.837555 0)
(2.20072 -0.918896 0)
(2.12487 -0.998095 0)
(2.17579 -0.983218 0)
(2.34229 -0.852319 0)
(2.85559 -0.229875 0)
(2.99609 -0.0089191 0)
(2.99997 -4.63159e-05 0)
(2.9355 0.0942013 0)
(2.91326 0.0803584 0)
(2.87776 0.119666 0)
(2.88243 0.138523 0)
(2.88525 0.0660254 0)
(2.88955 0.00791542 0)
(2.8455 -0.130253 0)
(2.72746 -0.318618 0)
(2.666 -0.382936 0)
(2.57046 -0.512533 0)
(2.52493 -0.589632 0)
(2.46412 -0.70968 0)
(2.36923 -0.795817 0)
(2.29537 -0.840678 0)
(2.20434 -0.940764 0)
(2.20317 -0.974753 0)
(2.29939 -0.896058 0)
(2.64565 -0.503896 0)
(2.97659 -0.0402168 0)
(2.99978 -0.000400179 0)
(2.908 0.0972435 0)
(2.89393 0.0900819 0)
(2.88207 0.112352 0)
(2.88571 0.138625 0)
(2.8951 0.10789 0)
(2.92634 0.167322 0)
(2.88603 0.0131355 0)
(2.83371 -0.12729 0)
(2.72125 -0.307295 0)
(2.67772 -0.376028 0)
(2.58072 -0.547612 0)
(2.5438 -0.633015 0)
(2.43297 -0.752064 0)
(2.36712 -0.791292 0)
(2.28049 -0.887371 0)
(2.24149 -0.963308 0)
(2.29808 -0.944954 0)
(2.52596 -0.687924 0)
(2.91163 -0.145733 0)
(2.99834 -0.00268815 0)
(2.91743 0.102891 0)
(2.91407 0.0956765 0)
(2.90846 0.109622 0)