/*--------------------------------*- C++ -*----------------------------------*\
  =========                 |
  \\      /  F ield         | OpenFOAM: The Open Source CFD Toolbox
   \\    /   O peration     | Website:  https://openfoam.org
    \\  /    A nd           | Version:  7
     \\/     M anipulation  |
\*---------------------------------------------------------------------------*/
FoamFile
{
    version     2.0;
    format      ascii;
    class       volScalarField;
    location    "2.5";
    object      p;
}
// * * * * * * * * * * * * * * * * * * * * * * * * * * * * * * * * * * * * * //

dimensions      [1 -1 -2 0 0 0 0];

internalField   nonuniform List<scalar> 
90000
(
0.442675
0.482044
0.522833
0.559563
0.595106
0.629471
0.663247
0.69609
0.729309
0.763308
0.79436
0.827891
0.858005
0.888177
0.91646
0.941021
0.965303
0.982979
0.999311
1.00934
1.01536
1.02022
1.01955
1.01734
1.01309
1.00668
0.999383
0.991773
0.983217
0.982158
0.985268
0.99405
1.013
1.03455
1.05108
1.06177
1.0635
1.06215
1.05799
1.05429
1.05186
1.05205
1.05385
1.05819
1.06216
1.0635
1.06264
1.06047
1.05803
1.05763
1.05986
1.06476
1.06934
1.07076
1.07022
1.06905
1.06854
1.07118
1.07463
1.07569
1.07551
1.07567
1.07684
1.07817
1.07869
1.07898
1.07995
1.08094
1.08113
1.08094
1.08112
1.08228
1.08236
1.08257
1.08453
1.08662
1.08872
1.09036
1.09148
1.09227
1.09357
1.09491
1.09643
1.0975
1.09781
1.09707
1.09388
1.08816
1.08136
1.07356
1.06506
1.05767
1.0493
1.03984
1.02893
1.01781
1.00595
0.993917
0.983442
0.97682
0.408598
0.408778
0.409314
0.410392
0.412261
0.415502
0.420313
0.427432
0.437306
0.450983
0.468757
0.491131
0.520096
0.552735
0.594092
0.637953
0.687353
0.73911
0.785675
0.830728
0.868335
0.901072
0.925043
0.94418
0.96167
0.968388
0.975741
0.979562
0.983134
0.989821
1.00076
1.01664
1.0355
1.05465
1.0662
1.06805
1.06272
1.05571
1.05215
1.0509
1.05354
1.05725
1.06112
1.06517
1.06479
1.063
1.05953
1.05724
1.05723
1.05975
1.06509
1.06991
1.07122
1.06989
1.06782
1.06751
1.06949
1.07389
1.07599
1.07556
1.07528
1.07602
1.07775
1.07885
1.07891
1.0795
1.08081
1.08165
1.08153
1.08131
1.08181
1.0831
1.08308
1.08369
1.08526
1.08726
1.08941
1.09119
1.0922
1.09297
1.09428
1.09544
1.09687
1.09783
1.09808
1.0972
1.09381
1.08814
1.08134
1.07338
1.06481
1.05757
1.04878
1.03928
1.02864
1.01797
1.00639
0.994701
0.984846
0.97691
0.408494
0.408501
0.408501
0.408495
0.408491
0.408499
0.408531
0.408586
0.408703
0.408914
0.409311
0.409971
0.41118
0.413181
0.416681
0.422618
0.431717
0.446853
0.467172
0.496471
0.532235
0.576716
0.626852
0.681453
0.740207
0.796942
0.850973
0.902705
0.944965
0.981408
1.00845
1.029
1.04728
1.06422
1.06622
1.05943
1.04616
1.04067
1.04638
1.05469
1.061
1.06445
1.06671
1.0668
1.06422
1.06024
1.05748
1.05773
1.05966
1.06453
1.0696
1.07222
1.07063
1.06766
1.06651
1.0679
1.07206
1.07627
1.07636
1.07537
1.07549
1.07721
1.07931
1.07972
1.07961
1.0805
1.08192
1.08244
1.08216
1.08216
1.08305
1.08419
1.08422
1.08469
1.08598
1.08813
1.09039
1.09221
1.09314
1.09396
1.09515
1.09617
1.09747
1.09826
1.0984
1.09725
1.09361
1.08803
1.08128
1.0729
1.06477
1.0572
1.04803
1.03852
1.02836
1.01813
1.00683
0.995433
0.985959
0.977551
0.408416
0.408426
0.40843
0.408428
0.408418
0.408412
0.408414
0.408424
0.408439
0.408458
0.408476
0.408489
0.408501
0.408517
0.408551
0.408602
0.40873
0.409007
0.409529
0.410552
0.412425
0.416138
0.422712
0.434572
0.453179
0.483165
0.52284
0.577789
0.643651
0.717229
0.791202
0.856691
0.914736
0.965539
0.997597
1.01734
1.03444
1.04659
1.058
1.0679
1.07484
1.07389
1.06886
1.06293
1.05824
1.05536
1.05694
1.06045
1.06704
1.07328
1.07307
1.07057
1.06664
1.06537
1.06627
1.07108
1.07612
1.07632
1.07547
1.07514
1.07594
1.07843
1.08016
1.08001
1.08026
1.08139
1.08274
1.08286
1.08264
1.08301
1.0842
1.08509
1.08508
1.08543
1.08678
1.0891
1.09137
1.09319
1.0941
1.09492
1.09597
1.09682
1.098
1.09868
1.09871
1.09731
1.09357
1.08804
1.0812
1.07253
1.06471
1.05672
1.04717
1.03789
1.02812
1.01826
1.00711
0.996237
0.987
0.978506
0.408339
0.408349
0.408359
0.408367
0.408373
0.408377
0.408383
0.408393
0.40841
0.40843
0.408445
0.408458
0.408469
0.408484
0.408509
0.408548
0.408607
0.408653
0.408705
0.408768
0.40884
0.408947
0.409105
0.409369
0.409838
0.410859
0.412938
0.417498
0.426953
0.444983
0.477217
0.5267
0.595638
0.683932
0.787529
0.886088
0.977737
1.0248
1.05177
1.05631
1.0603
1.06309
1.06439
1.06168
1.0535
1.05556
1.06299
1.07123
1.07544
1.07555
1.07158
1.06453
1.06237
1.06438
1.07011
1.07645
1.07697
1.07489
1.07401
1.07496
1.07824
1.08009
1.08016
1.08011
1.08106
1.08275
1.08331
1.08304
1.08329
1.08436
1.08559
1.08585
1.08576
1.08607
1.08768
1.09019
1.09247
1.09428
1.09524
1.09603
1.09672
1.09746
1.09854
1.09913
1.099
1.09731
1.09352
1.08799
1.08094
1.0721
1.06454
1.05617
1.0465
1.03741
1.02789
1.01833
1.00729
0.996861
0.987525
0.97963
0.408293
0.408301
0.408311
0.408323
0.408335
0.408346
0.408355
0.408364
0.408378
0.4084
0.408429
0.408458
0.40848
0.408495
0.40851
0.408535
0.408572
0.408622
0.408674
0.408734
0.408805
0.40889
0.408997
0.409143
0.409322
0.409527
0.409788
0.410117
0.41054
0.411188
0.41244
0.415336
0.422067
0.438208
0.473138
0.537849
0.636099
0.750241
0.858379
0.928624
0.979785
1.01221
1.02938
1.03843
1.04851
1.0603
1.07562
1.08266
1.08029
1.0763
1.06602
1.0587
1.06147
1.06867
1.07674
1.07955
1.07651
1.0734
1.07371
1.07691
1.08074
1.08087
1.08017
1.08045
1.08243
1.08415
1.08388
1.08345
1.08444
1.08588
1.08667
1.0864
1.08638
1.08682
1.089
1.09155
1.09381
1.09551
1.09643
1.09712
1.09749
1.09826
1.09913
1.09967
1.09936
1.09749
1.09369
1.08802
1.08063
1.07179
1.06433
1.05567
1.04591
1.03714
1.02774
1.01829
1.00732
0.997457
0.988529
0.980255
0.408282
0.408289
0.408298
0.408313
0.40833
0.408346
0.408357
0.408366
0.408376
0.408393
0.408419
0.408448
0.408471
0.408489
0.408507
0.408528
0.408565
0.408608
0.40866
0.408717
0.408776
0.408846
0.408928
0.409033
0.409178
0.409374
0.409628
0.409919
0.410253
0.41064
0.411116
0.411751
0.412633
0.413961
0.416243
0.421329
0.433767
0.46634
0.525249
0.616822
0.71532
0.812858
0.895479
0.964645
1.02127
1.04563
1.06439
1.07049
1.07321
1.06459
1.05531
1.05966
1.0693
1.07767
1.07927
1.0775
1.07329
1.07248
1.07519
1.08093
1.08235
1.08048
1.08023
1.0813
1.08403
1.08503
1.0842
1.08422
1.08573
1.08718
1.08722
1.08683
1.08679
1.08773
1.09046
1.09286
1.09515
1.09674
1.09763
1.09814
1.0983
1.09907
1.09971
1.10016
1.09969
1.09766
1.09379
1.08794
1.08018
1.07152
1.06409
1.05522
1.04547
1.03688
1.02766
1.01816
1.00726
0.99801
0.989251
0.981393
0.408302
0.408308
0.408316
0.408331
0.408348
0.408366
0.408382
0.408396
0.408408
0.408424
0.408447
0.408469
0.408489
0.408508
0.408525
0.408547
0.408574
0.408609
0.40865
0.408694
0.408742
0.408797
0.408865
0.408955
0.409075
0.409236
0.409436
0.409685
0.409973
0.410305
0.410715
0.411234
0.411947
0.412956
0.414321
0.416325
0.419322
0.42441
0.434134
0.453125
0.483432
0.530313
0.590384
0.669141
0.767783
0.854907
0.945238
0.987617
1.02272
1.03601
1.05485
1.07009
1.08546
1.08506
1.08204
1.07039
1.06923
1.07344
1.08169
1.08557
1.08387
1.08086
1.08072
1.08389
1.08627
1.08554
1.08458
1.0855
1.08722
1.08793
1.08744
1.08719
1.08731
1.08929
1.09199
1.09429
1.09662
1.09802
1.09877
1.09906
1.09922
1.09995
1.10051
1.10072
1.10005
1.09792
1.09398
1.08791
1.07969
1.07139
1.06393
1.05496
1.04537
1.03673
1.02786
1.01812
1.00721
0.998518
0.990009
0.982035
0.40836
0.408366
0.408374
0.408385
0.408398
0.408412
0.408427
0.408445
0.408466
0.408486
0.408505
0.408521
0.408537
0.408555
0.408574
0.408597
0.408622
0.408653
0.408687
0.408723
0.408762
0.408805
0.408859
0.408932
0.409026
0.409155
0.409321
0.409519
0.409742
0.409989
0.410319
0.410764
0.411375
0.412214
0.413351
0.414967
0.417294
0.420898
0.426983
0.437666
0.453989
0.470335
0.481781
0.494041
0.517526
0.566261
0.644504
0.751094
0.862947
0.956423
1.03273
1.05934
1.07316
1.07892
1.06882
1.06411
1.07226
1.08385
1.08915
1.08687
1.07863
1.07861
1.08215
1.08751
1.08744
1.08557
1.08557
1.08731
1.08862
1.08807
1.08726
1.08792
1.08856
1.09106
1.09321
1.09573
1.09801
1.09908
1.09967
1.09985
1.10019
1.10089
1.10135
1.10123
1.10043
1.09826
1.09409
1.0877
1.07921
1.0713
1.06382
1.05485
1.04543
1.03668
1.0273
1.01768
1.00708
0.99908
0.990686
0.982595
0.408396
0.408407
0.408416
0.408423
0.40843
0.408438
0.408447
0.408461
0.408481
0.408504
0.408527
0.408545
0.408561
0.408578
0.408599
0.408623
0.408651
0.408681
0.408716
0.408753
0.408791
0.408832
0.408879
0.408943
0.409024
0.409125
0.409236
0.409351
0.409505
0.409711
0.409986
0.410366
0.410865
0.41154
0.412478
0.413774
0.415657
0.418495
0.42309
0.431298
0.445017
0.462297
0.475511
0.48002
0.481237
0.483499
0.490618
0.5148
0.564795
0.659959
0.782196
0.890569
0.978643
1.01972
1.04296
1.06679
1.0862
1.09673
1.0933
1.08031
1.07449
1.07912
1.08839
1.09086
1.08748
1.08501
1.08678
1.08935
1.08916
1.08804
1.08774
1.08899
1.09046
1.09262
1.0944
1.09724
1.09924
1.09996
1.10048
1.10082
1.10132
1.1019
1.10212
1.10169
1.10089
1.09882
1.09458
1.08744
1.07878
1.07134
1.06384
1.05489
1.0456
1.0367
1.02699
1.01751
1.0072
0.999735
0.991343
0.982979
0.408387
0.408397
0.408405
0.408412
0.40842
0.408429
0.408434
0.408441
0.408454
0.408475
0.408497
0.408515
0.40853
0.408547
0.408566
0.408587
0.408613
0.408642
0.408672
0.408702
0.40873
0.408763
0.408794
0.408832
0.40889
0.408962
0.409053
0.409165
0.409304
0.409485
0.409716
0.410021
0.410431
0.410975
0.411722
0.412767
0.414247
0.416437
0.419879
0.425873
0.43663
0.453209
0.4701
0.47911
0.480638
0.480767
0.480881
0.481411
0.48371
0.493985
0.52331
0.595788
0.706019
0.838369
0.960686
1.04392
1.07189
1.08743
1.08221
1.07093
1.07816
1.0901
1.09489
1.09022
1.08493
1.08545
1.08934
1.09116
1.08939
1.0879
1.08913
1.09085
1.09269
1.0937
1.09596
1.09885
1.10023
1.10075
1.10138
1.102
1.10257
1.10299
1.10283
1.1022
1.10138
1.09906
1.09418
1.08687
1.07866
1.07159
1.06387
1.05497
1.04583
1.03671
1.02669
1.0176
1.00754
1.00042
0.991923
0.983239
0.408359
0.408367
0.408372
0.408378
0.408387
0.408394
0.408404
0.408409
0.408409
0.408414
0.408428
0.408452
0.40847
0.408478
0.408487
0.408502
0.408527
0.40855
0.40857
0.408594
0.408627
0.408654
0.408673
0.408699
0.408743
0.408806
0.408887
0.408988
0.409104
0.409253
0.409445
0.409691
0.410027
0.41047
0.411066
0.411904
0.413071
0.414752
0.417324
0.421585
0.429318
0.442943
0.461198
0.475915
0.48037
0.480627
0.48071
0.480871
0.481068
0.48139
0.482388
0.487036
0.503692
0.555504
0.657132
0.796033
0.9169
1.00565
1.03893
1.06702
1.09046
1.1031
1.09843
1.08462
1.08358
1.08935
1.09386
1.09224
1.089
1.08883
1.09142
1.09333
1.09451
1.09514
1.09804
1.10042
1.10098
1.10155
1.10257
1.10337
1.1039
1.10414
1.10351
1.10269
1.10186
1.09932
1.09396
1.08654
1.07875
1.07185
1.06385
1.05504
1.04602
1.03677
1.02658
1.01729
1.00781
1.00105
0.992466
0.983474
0.408336
0.408338
0.40834
0.408339
0.408341
0.408353
0.408361
0.408362
0.408359
0.408365
0.408376
0.408387
0.408395
0.408406
0.408416
0.408422
0.40843
0.408447
0.408473
0.408498
0.408523
0.408549
0.408573
0.4086
0.408635
0.408684
0.408745
0.408822
0.408917
0.409033
0.409193
0.409397
0.409665
0.410029
0.410502
0.411159
0.412082
0.413364
0.41529
0.418343
0.42364
0.433623
0.450008
0.468183
0.478976
0.480703
0.480836
0.480899
0.480984
0.481205
0.481607
0.482086
0.482834
0.485506
0.496033
0.534473
0.622074
0.75707
0.907942
1.02749
1.07548
1.09451
1.08878
1.07663
1.08757
1.0977
1.09619
1.08996
1.0885
1.09117
1.09449
1.09481
1.09502
1.09692
1.10015
1.10126
1.10137
1.10247
1.10415
1.10487
1.10531
1.10518
1.1041
1.10322
1.10224
1.09935
1.09374
1.08644
1.07913
1.07198
1.06369
1.05503
1.04615
1.03676
1.02645
1.0173
1.00823
1.00162
0.992851
0.98363
0.408323
0.408325
0.408327
0.408325
0.408323
0.408331
0.408335
0.408332
0.408337
0.408349
0.408354
0.408351
0.408355
0.408372
0.408388
0.4084
0.408405
0.408407
0.408425
0.408448
0.408467
0.408484
0.408508
0.408537
0.408573
0.408618
0.408669
0.408724
0.408793
0.408884
0.40901
0.409178
0.409388
0.40967
0.410044
0.410545
0.411261
0.41225
0.413665
0.415863
0.419508
0.426245
0.43876
0.456966
0.473475
0.480471
0.481081
0.481153
0.481157
0.481295
0.481578
0.481965
0.482539
0.483336
0.484212
0.486063
0.493427
0.522637
0.60453
0.746833
0.894031
1.00195
1.04542
1.07247
1.10375
1.10467
1.09936
1.08805
1.08941
1.09574
1.09726
1.09538
1.09579
1.09907
1.10164
1.10153
1.10192
1.10393
1.10584
1.10624
1.10657
1.1061
1.10474
1.10384
1.10267
1.09937
1.09358
1.08662
1.07968
1.07198
1.06323
1.05482
1.04609
1.03663
1.02637
1.01761
1.00882
1.00195
0.993056
0.983853
0.408327
0.40833
0.408332
0.408329
0.408329
0.408336
0.408339
0.40834
0.408341
0.408351
0.408362
0.408365
0.408366
0.408377
0.408386
0.408399
0.408413
0.40842
0.408429
0.408449
0.408467
0.408482
0.408496
0.408522
0.408558
0.408599
0.408644
0.408691
0.408747
0.408818
0.408909
0.409035
0.409196
0.409406
0.409698
0.410082
0.410601
0.411356
0.412409
0.413967
0.416508
0.420945
0.429428
0.444552
0.463644
0.477371
0.481253
0.481488
0.481545
0.481551
0.481677
0.482019
0.482518
0.483116
0.483862
0.484755
0.485722
0.487434
0.493563
0.520746
0.599303
0.740069
0.912369
1.03421
1.08842
1.09938
1.08628
1.08736
1.09748
1.10105
1.09785
1.0946
1.0972
1.10174
1.10202
1.10142
1.10299
1.10601
1.10735
1.10765
1.10791
1.10686
1.10523
1.10442
1.10299
1.09931
1.09364
1.08722
1.0802
1.07163
1.06261
1.05439
1.04572
1.0363
1.02641
1.01813
1.00945
1.00211
0.993009
0.984177
0.408331
0.40833
0.408331
0.408336
0.408338
0.408335
0.408338
0.408346
0.408349
0.408353
0.408361
0.40837
0.408384
0.408399
0.408403
0.408402
0.408412
0.408437
0.408466
0.408483
0.408495
0.408513
0.408538
0.408563
0.408592
0.408626
0.408666
0.408704
0.408742
0.40879
0.408855
0.408943
0.409066
0.409217
0.409424
0.409709
0.410091
0.410647
0.411438
0.412557
0.414316
0.417275
0.422716
0.433332
0.450913
0.469505
0.479697
0.481611
0.481745
0.481837
0.481915
0.482134
0.482585
0.483111
0.483714
0.484434
0.485309
0.486605
0.488015
0.489703
0.495244
0.521779
0.606824
0.763265
0.927899
1.01863
1.06249
1.08955
1.11055
1.10472
1.09422
1.09495
1.10172
1.1042
1.10216
1.10232
1.10549
1.10836
1.10841
1.10891
1.10921
1.10756
1.10583
1.10502
1.10332
1.09943
1.09421
1.0881
1.08063
1.07109
1.06222
1.05401
1.04522
1.03591
1.0266
1.01875
1.01003
1.00217
0.992828
0.984728
0.408329
0.408332
0.408336
0.408339
0.408343
0.408347
0.408353
0.408357
0.408359
0.408368
0.408377
0.408384
0.408398
0.40842
0.40843
0.408431
0.408438
0.408463
0.408484
0.408494
0.408508
0.408535
0.408562
0.408579
0.408599
0.408627
0.40866
0.408694
0.408723
0.408754
0.408793
0.408844
0.408924
0.409038
0.409188
0.409402
0.409687
0.410076
0.41066
0.411492
0.412715
0.414721
0.418218
0.42496
0.438014
0.457331
0.474059
0.480985
0.481733
0.481871
0.481964
0.482147
0.482541
0.483025
0.483565
0.484248
0.485137
0.48632
0.48774
0.489135
0.490107
0.491292
0.497012
0.530363
0.624635
0.793651
0.972038
1.06639
1.10125
1.09959
1.08893
1.10126
1.10863
1.10415
1.10195
1.10462
1.10961
1.10991
1.10926
1.11043
1.11041
1.10827
1.1067
1.1057
1.1036
1.09988
1.09528
1.08891
1.08009
1.07049
1.06215
1.05392
1.0449
1.03569
1.02696
1.01931
1.01047
1.00232
0.992693
0.985592
0.408339
0.408344
0.408351
0.408358
0.408365
0.408373
0.408382
0.40839
0.408399
0.408412
0.408423
0.408433
0.408449
0.408475
0.408489
0.408494
0.408503
0.408524
0.408557
0.408573
0.408575
0.408582
0.408611
0.40863
0.408637
0.408656
0.408685
0.408706
0.408723
0.408739
0.408756
0.408767
0.4088
0.408868
0.408973
0.409122
0.409335
0.409624
0.41004
0.410661
0.41155
0.412916
0.415212
0.419386
0.427706
0.443183
0.463121
0.47733
0.481631
0.481941
0.482059
0.482183
0.482459
0.482853
0.483362
0.484051
0.484982
0.48622
0.487573
0.488868
0.489819
0.490467
0.491045
0.492551
0.500665
0.543237
0.664984
0.841234
0.991506
1.0494
1.08323
1.11581
1.11277
1.10434
1.10297
1.10953
1.11285
1.11039
1.11039
1.11221
1.11176
1.10922
1.10771
1.10646
1.104
1.10084
1.09653
1.0894
1.07955
1.07037
1.06246
1.05405
1.04483
1.03569
1.02742
1.01967
1.01068
1.00259
0.993079
0.986666
0.408389
0.408394
0.408396
0.4084
0.408409
0.408423
0.408436
0.408448
0.40846
0.40847
0.408478
0.408484
0.408493
0.408511
0.408536
0.408547
0.408548
0.408553
0.408574
0.408604
0.408615
0.408613
0.408611
0.408635
0.40865
0.408654
0.408672
0.408686
0.408685
0.408684
0.40871
0.408733
0.408736
0.408755
0.408824
0.40893
0.409079
0.409289
0.409584
0.410027
0.410682
0.411642
0.413172
0.4158
0.420783
0.430889
0.448442
0.4679
0.479299
0.481899
0.482123
0.482264
0.482474
0.482785
0.483228
0.483863
0.484791
0.486084
0.487318
0.488548
0.48968
0.490237
0.490807
0.491708
0.492644
0.494863
0.507927
0.56879
0.711664
0.907971
1.04528
1.10524
1.10738
1.09564
1.10764
1.11564
1.11224
1.10945
1.11254
1.11432
1.11239
1.11
1.10883
1.10709
1.10477
1.10216
1.09747
1.08924
1.07907
1.07078
1.06314
1.05433
1.04492
1.03583
1.02784
1.01976
1.0107
1.00313
0.994327
0.987771
0.408492
0.408485
0.408483
0.408499
0.408515
0.40852
0.408521
0.40852
0.408521
0.40852
0.408517
0.408525
0.408536
0.408545
0.408552
0.40856
0.40857
0.408572
0.408568
0.408578
0.408586
0.408583
0.408589
0.408604
0.408609
0.408595
0.408603
0.408616
0.408615
0.408627
0.408651
0.408661
0.408654
0.408675
0.408733
0.408815
0.408922
0.409071
0.409283
0.409589
0.410059
0.410751
0.411786
0.413479
0.416469
0.422358
0.434245
0.45318
0.471372
0.480413
0.482092
0.482337
0.482537
0.482801
0.483211
0.483827
0.484717
0.485845
0.48698
0.488069
0.489188
0.490059
0.490863
0.491658
0.492499
0.493494
0.494465
0.497845
0.519688
0.609262
0.783998
0.9682
1.04624
1.08353
1.12319
1.1202
1.11168
1.11195
1.11698
1.11647
1.11287
1.11117
1.11016
1.108
1.10596
1.10381
1.09836
1.08885
1.07908
1.07168
1.06422
1.0547
1.04512
1.03619
1.02812
1.0195
1.01059
1.00401
0.995779
0.988489
0.408603
0.408603
0.408602
0.408603
0.408605
0.408604
0.408592
0.40859
0.408598
0.408604
0.408605
0.408606
0.408606
0.408602
0.408594
0.408586
0.408582
0.408578
0.408578
0.408577
0.40857
0.408565
0.408552
0.408549
0.408562
0.408565
0.40857
0.40859
0.408597
0.408596
0.408615
0.40864
0.408653
0.408659
0.408698
0.408763
0.40885
0.408963
0.40911
0.409321
0.409641
0.410129
0.41084
0.411935
0.413769
0.417136
0.424004
0.437517
0.457174
0.473962
0.481325
0.482439
0.482678
0.482899
0.483269
0.483868
0.484738
0.485672
0.486545
0.487469
0.488589
0.489832
0.490965
0.491926
0.492713
0.493389
0.494183
0.494909
0.495982
0.502551
0.544238
0.668837
0.873782
1.03209
1.1084
1.11447
1.1036
1.11858
1.12196
1.11635
1.11305
1.11292
1.11141
1.10848
1.10731
1.10476
1.09847
1.08852
1.07991
1.07349
1.06526
1.05497
1.04567
1.03657
1.02805
1.01889
1.01058
1.00491
0.997026
0.988895
0.408641
0.408636
0.408631
0.408626
0.408622
0.408619
0.408617
0.408614
0.408611
0.408607
0.408599
0.408588
0.408573
0.408557
0.408542
0.408532
0.408524
0.408517
0.408516
0.408519
0.408532
0.408543
0.40855
0.408558
0.408564
0.408558
0.408555
0.408569
0.408584
0.408607
0.40862
0.408619
0.408643
0.408702
0.408745
0.40878
0.408843
0.40895
0.409061
0.409193
0.409384
0.409689
0.410161
0.410874
0.412022
0.414
0.41778
0.425625
0.440516
0.460589
0.476165
0.482106
0.482956
0.483224
0.483556
0.484098
0.484836
0.485503
0.486085
0.486895
0.488022
0.48942
0.490718
0.491817
0.492763
0.493534
0.494181
0.49472
0.495519
0.496403
0.498513
0.513131
0.587318
0.759012
0.95942
1.04935
1.09155
1.13167
1.12564
1.1163
1.11515
1.11528
1.11229
1.10937
1.10855
1.1057
1.09853
1.08899
1.08198
1.07503
1.06571
1.05496
1.04616
1.03691
1.02778
1.01825
1.01087
1.00526
0.997261
0.98876
0.408664
0.408659
0.408652
0.408646
0.408639
0.408632
0.408625
0.40862
0.408616
0.408612
0.408608
0.408603
0.408599
0.408594
0.408588
0.408584
0.408581
0.408577
0.408571
0.408561
0.40855
0.408546
0.408545
0.408544
0.408544
0.408542
0.408542
0.408555
0.408569
0.408588
0.408621
0.40866
0.408698
0.408751
0.408801
0.408834
0.408876
0.408948
0.409051
0.409137
0.409234
0.409391
0.409662
0.410111
0.410839
0.41206
0.414214
0.418435
0.427274
0.443433
0.463728
0.477731
0.482601
0.483696
0.484055
0.484468
0.484929
0.485139
0.485552
0.486332
0.487509
0.489092
0.490675
0.491772
0.492527
0.493149
0.493965
0.494641
0.495344
0.496251
0.497358
0.498444
0.503222
0.537958
0.657215
0.869357
1.0377
1.11855
1.11767
1.11046
1.11923
1.11716
1.11175
1.11056
1.10975
1.10612
1.09846
1.09067
1.08457
1.07633
1.06454
1.05456
1.04639
1.03703
1.02742
1.01797
1.01118
1.00532
0.996975
0.988346
0.408668
0.408662
0.408655
0.408651
0.408647
0.408643
0.408638
0.408636
0.408632
0.408627
0.408622
0.408615
0.408607
0.408599
0.40859
0.408582
0.408574
0.408574
0.408582
0.408589
0.408596
0.408604
0.408609
0.408605
0.408608
0.408628
0.408645
0.40866
0.408679
0.408696
0.408715
0.408739
0.408766
0.408803
0.408832
0.408859
0.408894
0.408941
0.408992
0.409032
0.409064
0.409129
0.409281
0.409574
0.410058
0.410841
0.412155
0.414495
0.419212
0.429024
0.446018
0.465919
0.479254
0.483768
0.484441
0.484667
0.484736
0.484778
0.485195
0.486026
0.487264
0.488868
0.490441
0.491806
0.49235
0.492798
0.493522
0.49454
0.49547
0.496418
0.497379
0.498217
0.499071
0.500834
0.51366
0.587023
0.763362
0.975414
1.05424
1.10567
1.12728
1.12038
1.11195
1.11256
1.11118
1.10638
1.09933
1.0938
1.08692
1.07529
1.06336
1.05459
1.04652
1.03691
1.02711
1.01822
1.01148
1.00515
0.996151
0.987795
0.408711
0.408709
0.408708
0.408707
0.408704
0.408702
0.408702
0.408702
0.408703
0.408704
0.408706
0.408709
0.408708
0.408704
0.408713
0.408723
0.408732
0.40874
0.408746
0.408749
0.408752
0.408748
0.408743
0.408758
0.408773
0.40878
0.408784
0.40879
0.408793
0.408795
0.408795
0.408783
0.408786
0.408797
0.408797
0.408805
0.408808
0.408796
0.408802
0.408854
0.408907
0.408948
0.409028
0.409212
0.409558
0.410107
0.410982
0.412408
0.414938
0.420082
0.430611
0.447931
0.468043
0.481782
0.484322
0.484386
0.484352
0.484551
0.485115
0.485987
0.487283
0.48872
0.490136
0.491343
0.491846
0.492448
0.493327
0.4944
0.495601
0.49671
0.497638
0.498397
0.498922
0.499769
0.500637
0.505201
0.542119
0.671423
0.889936
1.06366
1.11774
1.10839
1.11174
1.11599
1.11276
1.10753
1.10204
1.09677
1.08701
1.07365
1.06333
1.05526
1.04687
1.03667
1.02698
1.01923
1.01214
1.00481
0.99498
0.987633
0.408801
0.408805
0.408806
0.408805
0.408813
0.408824
0.408833
0.408841
0.408849
0.408858
0.40887
0.408882
0.40889
0.408898
0.408908
0.408922
0.408935
0.408943
0.408945
0.408945
0.408942
0.408936
0.408929
0.408922
0.408915
0.408908
0.4089
0.40889
0.408874
0.408849
0.408817
0.408787
0.408766
0.408741
0.408719
0.408714
0.408704
0.408693
0.408707
0.408734
0.408777
0.408846
0.408934
0.40907
0.409309
0.409706
0.410319
0.411262
0.412775
0.41544
0.420897
0.431829
0.449541
0.469772
0.482163
0.48413
0.484037
0.484373
0.485177
0.486347
0.487645
0.488686
0.489922
0.490771
0.491455
0.492313
0.493351
0.494455
0.495523
0.496679
0.497912
0.498683
0.499228
0.499704
0.50035
0.501035
0.502881
0.517481
0.606842
0.800285
1.00068
1.07173
1.11774
1.11751
1.1129
1.10942
1.10614
1.09909
1.0865
1.07315
1.06408
1.05722
1.04759
1.03652
1.02779
1.02059
1.01271
1.00439
0.994403
0.98855
0.408987
0.408982
0.408986
0.408999
0.409005
0.409006
0.40901
0.409015
0.409019
0.409023
0.409025
0.409026
0.409028
0.409029
0.409031
0.409033
0.409033
0.409031
0.409024
0.409014
0.409002
0.408991
0.408976
0.408952
0.408926
0.408899
0.408873
0.40885
0.408823
0.408794
0.40877
0.408754
0.408733
0.408692
0.408662
0.408661
0.408654
0.408671
0.408715
0.408751
0.408782
0.408829
0.408901
0.409018
0.409214
0.409528
0.409979
0.410627
0.411608
0.413113
0.415818
0.421549
0.432685
0.45012
0.469808
0.481407
0.48399
0.484903
0.485954
0.48718
0.487954
0.488724
0.489258
0.489861
0.490894
0.492216
0.493547
0.494849
0.495847
0.496738
0.497734
0.498529
0.499118
0.499833
0.500422
0.500975
0.501496
0.502434
0.509137
0.556517
0.717438
0.943077
1.09305
1.10862
1.11336
1.11503
1.11089
1.10008
1.08586
1.07382
1.06794
1.05977
1.04805
1.03688
1.02945
1.02171
1.01276
1.00393
0.995512
0.99009
0.409106
0.409106
0.409103
0.409102
0.409101
0.409096
0.409087
0.409076
0.409066
0.409057
0.40905
0.409044
0.409037
0.40903
0.409024
0.409014
0.409005
0.408997
0.408986
0.408982
0.408979
0.408976
0.408967
0.40895
0.408934
0.408908
0.40888
0.408862
0.408839
0.408817
0.408811
0.408807
0.408799
0.408784
0.408765
0.408748
0.408745
0.40875
0.408744
0.408748
0.408792
0.408859
0.408931
0.409029
0.409182
0.409426
0.409779
0.410239
0.41087
0.411802
0.413278
0.41606
0.421837
0.432668
0.449631
0.46879
0.480381
0.485138
0.487304
0.487909
0.488173
0.488121
0.488252
0.4889
0.49034
0.492158
0.493655
0.495088
0.496115
0.496935
0.497809
0.498317
0.498772
0.499551
0.500378
0.501107
0.501661
0.502157
0.502576
0.504704
0.527715
0.652053
0.884212
1.02042
1.10011
1.11808
1.11249
1.09939
1.0868
1.07791
1.07186
1.06132
1.04778
1.03815
1.03052
1.02168
1.01222
1.004
0.997913
0.991387
0.409126
0.40912
0.409114
0.409106
0.409096
0.40909
0.409087
0.409084
0.409079
0.409073
0.40907
0.409065
0.409056
0.409044
0.409027
0.409009
0.408991
0.408974
0.408965
0.408964
0.408968
0.40897
0.408961
0.408961
0.408965
0.408957
0.408952
0.408961
0.408964
0.408957
0.408959
0.408962
0.408954
0.408936
0.408916
0.408905
0.408902
0.408885
0.408865
0.408896
0.408959
0.409012
0.409048
0.409092
0.40916
0.409311
0.409555
0.409881
0.410308
0.410947
0.411897
0.413396
0.416264
0.421984
0.432655
0.449426
0.46849
0.482432
0.487797
0.487902
0.487395
0.487298
0.487582
0.48846
0.490006
0.491809
0.493513
0.494871
0.496051
0.496905
0.497494
0.497892
0.498732
0.499718
0.500488
0.501122
0.501706
0.502097
0.502546
0.502553
0.502413
0.51493
0.593991
0.806062
1.03486
1.09558
1.10925
1.10069
1.09067
1.08334
1.07398
1.05963
1.0477
1.03941
1.03125
1.02106
1.01143
1.00482
0.999514
0.991546
0.409003
0.408988
0.408972
0.408956
0.408943
0.408931
0.408922
0.408915
0.408909
0.408906
0.408906
0.408901
0.408899
0.408899
0.408899
0.408911
0.408918
0.408932
0.408951
0.408967
0.408994
0.409016
0.409018
0.409021
0.409029
0.409038
0.409053
0.40909
0.409132
0.409174
0.409219
0.409244
0.409259
0.409271
0.409282
0.409283
0.409252
0.409205
0.409196
0.409189
0.409164
0.409096
0.409066
0.409092
0.409109
0.409159
0.40931
0.409552
0.409889
0.410372
0.411107
0.412164
0.413763
0.416741
0.422295
0.432331
0.448894
0.469069
0.482747
0.486109
0.48658
0.48686
0.4874
0.488452
0.490004
0.491676
0.49333
0.494752
0.495477
0.495908
0.496893
0.497744
0.498547
0.499602
0.50061
0.501425
0.5021
0.50257
0.50273
0.502458
0.501813
0.501364
0.506712
0.56444
0.746964
0.956508
1.0782
1.09643
1.09651
1.09005
1.07509
1.05676
1.04775
1.04
1.03106
1.01985
1.01148
1.00568
0.999564
0.990277
0.409041
0.40903
0.409021
0.409015
0.409008
0.409004
0.409001
0.408997
0.408993
0.408993
0.408991
0.408987
0.409001
0.409013
0.40902
0.409045
0.409062
0.409093
0.409144
0.409164
0.409212
0.409291
0.409311
0.409338
0.409392
0.409418
0.409447
0.409487
0.409517
0.409554
0.409567
0.409568
0.409579
0.409586
0.409582
0.409556
0.409483
0.409397
0.409334
0.409285
0.409233
0.409145
0.409017
0.408985
0.409058
0.40912
0.409225
0.409414
0.409709
0.410122
0.410739
0.411588
0.412755
0.414518
0.417358
0.422548
0.432291
0.447992
0.465782
0.478638
0.485705
0.487393
0.488191
0.48927
0.490598
0.491823
0.493172
0.494192
0.494722
0.495221
0.496193
0.497732
0.498832
0.499806
0.500705
0.501475
0.502192
0.502807
0.50313
0.502917
0.501872
0.501255
0.501702
0.505383
0.537955
0.692025
0.934762
1.06548
1.09256
1.08914
1.07089
1.05737
1.0504
1.04062
1.02912
1.0188
1.01243
1.00619
0.999058
0.987841
0.409269
0.409284
0.409306
0.409315
0.409315
0.409316
0.409326
0.409348
0.409366
0.409385
0.40941
0.409436
0.409473
0.40954
0.409577
0.4096
0.409645
0.409673
0.409688
0.409741
0.409831
0.409868
0.409865
0.409842
0.409849
0.409879
0.409898
0.409891
0.409867
0.409829
0.409755
0.409674
0.409666
0.40966
0.409601
0.409505
0.409391
0.409271
0.409194
0.40916
0.409145
0.409106
0.409027
0.408988
0.409049
0.409158
0.409288
0.409474
0.409744
0.410129
0.410686
0.41145
0.412411
0.413583
0.415189
0.417821
0.422563
0.431166
0.445154
0.462057
0.476869
0.485525
0.488931
0.490433
0.491668
0.49264
0.492549
0.492642
0.493431
0.494682
0.496005
0.497483
0.499081
0.50023
0.501138
0.501949
0.502614
0.50307
0.503279
0.502953
0.502008
0.501822
0.501991
0.502802
0.504713
0.527787
0.641143
0.865242
1.03021
1.07257
1.06587
1.06499
1.05733
1.04205
1.02806
1.02007
1.01361
1.00546
0.996202
0.985925
0.410004
0.41002
0.410036
0.410047
0.410045
0.410044
0.41006
0.410069
0.410082
0.410091
0.410098
0.410115
0.410128
0.410151
0.410164
0.410164
0.410165
0.410163
0.410154
0.41015
0.410143
0.410131
0.410139
0.410152
0.410137
0.410135
0.410165
0.410145
0.410056
0.409906
0.409721
0.409638
0.409589
0.409482
0.4094
0.409365
0.409296
0.4092
0.409124
0.409048
0.409042
0.409084
0.409144
0.40925
0.409412
0.409585
0.409776
0.409947
0.410105
0.410378
0.410867
0.411543
0.41233
0.413162
0.41415
0.415574
0.417883
0.422094
0.429871
0.442543
0.458999
0.474758
0.484859
0.490651
0.491495
0.491347
0.49111
0.491538
0.492688
0.494213
0.495864
0.497536
0.499148
0.500366
0.501298
0.502135
0.502871
0.503454
0.503762
0.503482
0.502208
0.501874
0.502756
0.50328
0.504246
0.505888
0.518082
0.607689
0.816544
1.01012
1.05692
1.0738
1.06513
1.04531
1.02895
1.02244
1.01404
1.00319
0.99382
0.987355
0.410378
0.410367
0.410354
0.410342
0.410321
0.410297
0.410298
0.410288
0.410275
0.410267
0.410219
0.410213
0.410226
0.41016
0.410096
0.410122
0.410147
0.410134
0.41015
0.410182
0.410171
0.410128
0.410109
0.410093
0.410017
0.409919
0.4099
0.409849
0.40973
0.409597
0.409474
0.409424
0.40941
0.409362
0.409302
0.409313
0.409316
0.409238
0.409143
0.40915
0.40927
0.409459
0.409681
0.409957
0.410166
0.410337
0.41048
0.410595
0.410653
0.410739
0.411078
0.411577
0.412049
0.412574
0.413251
0.414242
0.415697
0.417969
0.421988
0.428993
0.440237
0.455929
0.47087
0.481926
0.488236
0.489586
0.490243
0.491295
0.492657
0.494281
0.49589
0.497395
0.498963
0.500517
0.501565
0.50236
0.50296
0.503321
0.503451
0.503451
0.502906
0.502331
0.503025
0.504164
0.504878
0.505763
0.507183
0.515196
0.576995
0.75881
0.953672
1.05578
1.05297
1.03951
1.03445
1.02585
1.01286
0.999274
0.994501
0.990088
0.410467
0.410442
0.410426
0.41042
0.410406
0.410395
0.410395
0.41038
0.410375
0.410373
0.410354
0.410359
0.410321
0.410245
0.410252
0.410298
0.410287
0.410299
0.410369
0.410407
0.410408
0.410371
0.41033
0.410288
0.410188