/*--------------------------------*- C++ -*----------------------------------*\
  =========                 |
  \\      /  F ield         | OpenFOAM: The Open Source CFD Toolbox
   \\    /   O peration     | Website:  https://openfoam.org
    \\  /    A nd           | Version:  7
     \\/     M anipulation  |
\*---------------------------------------------------------------------------*/
FoamFile
{
    version     2.0;
    format      ascii;
    class       volScalarField;
    location    "2.5";
    object      T;
}
// * * * * * * * * * * * * * * * * * * * * * * * * * * * * * * * * * * * * * //

dimensions      [0 0 0 1 0 0 0];

internalField   nonuniform List<scalar> 
90000
(
0.806593
0.834103
0.859073
0.87938
0.896624
0.91153
0.925216
0.937581
0.949458
0.961206
0.971506
0.982455
0.992171
1.00183
1.01079
1.01847
1.02587
1.03103
1.03571
1.03845
1.04007
1.04106
1.0407
1.03978
1.03824
1.03609
1.0337
1.03113
1.02829
1.02769
1.02868
1.0313
1.03687
1.04309
1.04776
1.05072
1.05072
1.05024
1.04883
1.04731
1.04618
1.0455
1.04523
1.04555
1.04578
1.04539
1.04467
1.04366
1.04278
1.04266
1.04325
1.04458
1.04587
1.04612
1.04593
1.04555
1.04533
1.04604
1.04694
1.04706
1.04693
1.0469
1.04714
1.04743
1.04742
1.04742
1.04761
1.04782
1.04789
1.04789
1.04799
1.04841
1.04847
1.04855
1.04909
1.04966
1.05021
1.05056
1.05072
1.05076
1.05092
1.0511
1.05122
1.0512
1.0511
1.05071
1.04949
1.04749
1.04519
1.04264
1.04002
1.03784
1.0354
1.03266
1.02961
1.02679
1.02419
1.02163
1.01912
1.01723
0.779708
0.779818
0.780181
0.780928
0.782216
0.78441
0.787633
0.792323
0.798713
0.807386
0.818299
0.831516
0.847814
0.865172
0.885732
0.906225
0.92731
0.947682
0.964513
0.980037
0.992394
1.00277
1.01021
1.01605
1.02136
1.02327
1.02553
1.02683
1.0279
1.02994
1.03299
1.03734
1.04266
1.04794
1.05144
1.05179
1.05036
1.04825
1.04687
1.04566
1.04599
1.04603
1.046
1.04571
1.04474
1.04353
1.04204
1.04122
1.04106
1.04167
1.04312
1.04437
1.04467
1.0443
1.04369
1.04338
1.04388
1.04504
1.04545
1.04523
1.04495
1.04507
1.04544
1.04558
1.04547
1.04555
1.04582
1.04597
1.04596
1.04595
1.04612
1.04654
1.04658
1.04677
1.0472
1.04773
1.04828
1.04864
1.04875
1.04878
1.04895
1.04908
1.04919
1.04918
1.04911
1.04874
1.04761
1.04585
1.04379
1.04141
1.03889
1.03675
1.03413
1.03129
1.02822
1.02549
1.02296
1.0207
1.01873
1.01697
0.779179
0.779149
0.779111
0.779065
0.779013
0.778962
0.778921
0.778883
0.778892
0.778948
0.779107
0.779433
0.780104
0.781278
0.783404
0.787075
0.792723
0.802094
0.814284
0.831135
0.850426
0.872611
0.895527
0.91851
0.941368
0.962108
0.980872
0.998259
1.01222
1.02389
1.0322
1.03829
1.04352
1.04824
1.04909
1.04729
1.04407
1.04192
1.04314
1.04509
1.04559
1.04521
1.04441
1.04335
1.04181
1.03998
1.03876
1.03879
1.03932
1.04059
1.0419
1.04268
1.04223
1.04137
1.04082
1.04114
1.04219
1.04324
1.04318
1.04275
1.04262
1.04298
1.04347
1.04344
1.04333
1.04352
1.04383
1.04397
1.04392
1.04396
1.04427
1.04465
1.04471
1.04487
1.04522
1.04579
1.04637
1.04675
1.04685
1.04691
1.04706
1.04717
1.04731
1.04731
1.04728
1.04689
1.0458
1.04421
1.04232
1.03995
1.03762
1.03541
1.03269
1.02986
1.02694
1.02432
1.02181
1.01964
1.01789
1.01645
0.778302
0.778265
0.778222
0.778171
0.778113
0.778054
0.777997
0.777942
0.777887
0.777831
0.777774
0.777711
0.777642
0.77757
0.777506
0.777432
0.777429
0.777494
0.777694
0.7782
0.779235
0.781406
0.785346
0.792506
0.803604
0.820926
0.842451
0.869907
0.899866
0.929715
0.95726
0.979899
0.998951
1.01501
1.02494
1.03115
1.03662
1.04045
1.04395
1.04697
1.04689
1.04565
1.04277
1.03975
1.03748
1.03592
1.03623
1.0371
1.03886
1.04058
1.04053
1.03982
1.03874
1.03811
1.03836
1.03968
1.04101
1.04099
1.0407
1.04037
1.04053
1.04113
1.04152
1.04144
1.04148
1.04176
1.04207
1.04217
1.04215
1.04229
1.0427
1.04305
1.0431
1.04323
1.0436
1.04422
1.04481
1.04522
1.04535
1.04544
1.04559
1.04568
1.04582
1.04585
1.04582
1.04541
1.04435
1.04284
1.04098
1.0386
1.03641
1.03413
1.03137
1.02866
1.02591
1.02339
1.02082
1.01866
1.01684
1.01562
0.777244
0.777207
0.777168
0.777125
0.77708
0.777033
0.776985
0.776938
0.776893
0.776849
0.776801
0.77675
0.776697
0.776643
0.776594
0.776552
0.77652
0.776479
0.776442
0.776409
0.776373
0.776365
0.776382
0.776453
0.776645
0.777166
0.778332
0.781007
0.786672
0.797436
0.816163
0.842901
0.876476
0.914419
0.953885
0.988128
1.01751
1.03185
1.04048
1.0406
1.04039
1.03968
1.03831
1.03649
1.03325
1.03363
1.03551
1.03775
1.03879
1.03911
1.0381
1.03612
1.03538
1.036
1.03765
1.0393
1.03946
1.03887
1.03848
1.03869
1.03954
1.03995
1.03994
1.03993
1.04021
1.04069
1.04086
1.04083
1.04093
1.0413
1.04174
1.04193
1.04196
1.04208
1.04255
1.04325
1.04385
1.0443
1.04447
1.04458
1.04467
1.04474
1.04488
1.0449
1.04485
1.04436
1.0433
1.04179
1.03989
1.03749
1.03542
1.0331
1.03038
1.02779
1.02515
1.02271
1.02006
1.01783
1.0157
1.01466
0.776287
0.77626
0.776231
0.776202
0.776173
0.776142
0.77611
0.776077
0.776047
0.776021
0.775997
0.775973
0.775944
0.775911
0.775878
0.77585
0.775829
0.775817
0.775806
0.775797
0.775797
0.775802
0.775819
0.775855
0.77591
0.775979
0.776079
0.776216
0.776407
0.77673
0.777408
0.779059
0.783006
0.792557
0.812838
0.847803
0.894058
0.939991
0.977525
0.998808
1.01302
1.02102
1.02448
1.02641
1.02911
1.03271
1.0372
1.03947
1.03892
1.03792
1.03511
1.0331
1.0339
1.03598
1.03818
1.03897
1.0381
1.03718
1.03729
1.03819
1.03918
1.03912
1.03894
1.03906
1.03968
1.04018
1.04012
1.04006
1.04039
1.04085
1.04121
1.0412
1.04128
1.04147
1.04214
1.04286
1.04348
1.04392
1.0441
1.0442
1.04422
1.04433
1.04443
1.04444
1.04433
1.04377
1.04268
1.04112
1.03913
1.03675
1.03475
1.0324
1.02968
1.02723
1.02467
1.02225
1.01952
1.01725
1.01501
1.01362
0.775602
0.775586
0.775571
0.775557
0.775545
0.77553
0.775514
0.775496
0.775479
0.775466
0.775458
0.775451
0.77544
0.775426
0.775412
0.775397
0.775396
0.775398
0.775403
0.775412
0.775421
0.775437
0.77546
0.775495
0.775553
0.775639
0.775755
0.775892
0.776053
0.776245
0.776484
0.776809
0.777265
0.777965
0.779201
0.782045
0.78916
0.807746
0.83915
0.882367
0.921723
0.956046
0.98265
1.00402
1.02085
1.0282
1.03373
1.03565
1.03647
1.03401
1.03133
1.03253
1.0353
1.03755
1.03802
1.0376
1.03633
1.0363
1.03705
1.03859
1.03894
1.03842
1.03846
1.0388
1.03958
1.03989
1.03972
1.03977
1.04025
1.0407
1.04083
1.04082
1.04092
1.04125
1.04206
1.04276
1.04342
1.04383
1.04401
1.04409
1.04408
1.04422
1.04428
1.04429
1.04412
1.04349
1.04235
1.04072
1.03862
1.0363
1.03434
1.03194
1.02924
1.02688
1.02439
1.02193
1.01915
1.0169
1.01457
1.01299
0.775201
0.775193
0.775187
0.775184
0.775182
0.77518
0.775177
0.775172
0.775167
0.775164
0.775164
0.775164
0.775163
0.77516
0.775157
0.775157
0.77516
0.775167
0.775178
0.77519
0.775205
0.775223
0.775249
0.775286
0.775341
0.775418
0.775517
0.775642
0.775789
0.775958
0.776169
0.776438
0.776811
0.777343
0.778067
0.77913
0.780717
0.783413
0.788555
0.798588
0.814336
0.83808
0.8668
0.901205
0.939339
0.969318
0.998083
1.01105
1.02137
1.02515
1.03054
1.0349
1.03935
1.03929
1.03853
1.03539
1.035
1.03622
1.03848
1.03957
1.03911
1.03835
1.03836
1.03926
1.03995
1.0398
1.03961
1.03989
1.04037
1.04067
1.04061
1.04068
1.0408
1.0414
1.04219
1.04288
1.04354
1.04391
1.04407
1.04411
1.04412
1.04427
1.04433
1.0443
1.04408
1.04341
1.04224
1.04053
1.03829
1.03609
1.03413
1.03171
1.02906
1.02668
1.02429
1.02174
1.01891
1.01673
1.01442
1.0125
0.775011
0.775008
0.775008
0.775008
0.775009
0.775011
0.775013
0.775017
0.775022
0.775027
0.775031
0.775033
0.775035
0.775038
0.775042
0.775048
0.775056
0.775066
0.77508
0.775093
0.775109
0.775127
0.775151
0.775184
0.77523
0.775294
0.775377
0.775477
0.77559
0.775717
0.775889
0.776122
0.776445
0.77689
0.777496
0.778357
0.779596
0.781506
0.784706
0.79025
0.798544
0.806683
0.812442
0.818773
0.830991
0.855214
0.89053
0.932966
0.971941
1.00189
1.02488
1.03265
1.03673
1.03813
1.03531
1.03383
1.03607
1.03918
1.04061
1.04
1.0378
1.03778
1.03876
1.04028
1.0403
1.03984
1.03984
1.04031
1.0407
1.0406
1.04051
1.04077
1.04102
1.04176
1.04241
1.04313
1.04378
1.04406
1.0442
1.04423
1.04428
1.04443
1.04446
1.04439
1.04411
1.04342
1.04219
1.0404
1.03809
1.03602
1.03405
1.03164
1.02904
1.02661
1.02405
1.0215
1.01874
1.0167
1.01438
1.01224
0.774915
0.774918
0.77492
0.774921
0.774921
0.774922
0.774924
0.774928
0.774935
0.774945
0.774954
0.774962
0.774967
0.774973
0.774981
0.774991
0.775003
0.775016
0.775032
0.775049
0.775067
0.775085
0.775107
0.775136
0.775173
0.77522
0.775273
0.77533
0.775409
0.775518
0.775663
0.775864
0.77613
0.776489
0.776989
0.777681
0.778686
0.780196
0.782626
0.786924
0.79398
0.80267
0.809272
0.811481
0.812032
0.81315
0.816827
0.829434
0.854342
0.897286
0.944565
0.981439
1.00899
1.02118
1.02788
1.0346
1.04005
1.04289
1.04195
1.03845
1.03685
1.03812
1.0407
1.04135
1.04044
1.03976
1.04024
1.04096
1.04095
1.04065
1.04069
1.04107
1.04153
1.04219
1.04272
1.04352
1.04409
1.04428
1.0444
1.04448
1.04458
1.0447
1.04468
1.04453
1.04424
1.04357
1.04231
1.0403
1.03798
1.03604
1.03407
1.03166
1.02908
1.0266
1.02394
1.02141
1.0187
1.01676
1.01442
1.01212
0.774843
0.774846
0.774849
0.77485
0.774853
0.774856
0.774856
0.774857
0.774862
0.77487
0.77488
0.774888
0.774895
0.774902
0.77491
0.774918
0.774928
0.774941
0.774954
0.774967
0.774979
0.774995
0.775009
0.775027
0.775055
0.77509
0.775135
0.775193
0.775265
0.77536
0.775483
0.775645
0.775863
0.776153
0.776551
0.777109
0.777899
0.779067
0.780895
0.784055
0.789653
0.798091
0.806522
0.811056
0.811724
0.811727
0.811754
0.811997
0.813158
0.818497
0.833652
0.868878
0.915523
0.963735
1.00361
1.02882
1.03687
1.04084
1.03929
1.03606
1.03799
1.04129
1.04266
1.04139
1.03996
1.04008
1.04112
1.04164
1.04115
1.04075
1.04112
1.04164
1.04221
1.04254
1.04319
1.044
1.04439
1.04453
1.04469
1.04485
1.04497
1.04503
1.04495
1.04473
1.04443
1.04369
1.04226
1.0402
1.03799
1.03614
1.03412
1.03172
1.02917
1.02661
1.02383
1.02142
1.01877
1.01691
1.01453
1.01209
0.774779
0.774782
0.774782
0.774784
0.774787
0.77479
0.774794
0.774794
0.774792
0.774794
0.7748
0.774811
0.77482
0.774823
0.774826
0.774832
0.774842
0.774852
0.77486
0.774871
0.774886
0.774899
0.774907
0.774919
0.774941
0.774973
0.775014
0.775065
0.775126
0.775204
0.775306
0.775436
0.775615
0.775851
0.776169
0.776616
0.777239
0.778135
0.779505
0.781764
0.785825
0.792861
0.802052
0.809427
0.811616
0.811654
0.811663
0.811715
0.811789
0.811931
0.812421
0.814799
0.823418
0.849532
0.895732
0.949456
0.989765
1.01673
1.02651
1.03454
1.04118
1.04486
1.04365
1.0401
1.03975
1.04133
1.04251
1.04206
1.04115
1.04112
1.04184
1.04239
1.04276
1.04298
1.04381
1.04448
1.04463
1.04478
1.04505
1.04526
1.04538
1.0454
1.0452
1.04492
1.04462
1.04383
1.04228
1.04021
1.03809
1.03628
1.03417
1.03178
1.02925
1.02663
1.02378
1.0213
1.01882
1.01709
1.01473
1.01215
0.774724
0.774723
0.774723
0.774722
0.774723
0.774729
0.774729
0.774729
0.774726
0.774729
0.774733
0.774737
0.774741
0.774745
0.77475
0.77475
0.774752
0.774759
0.774773
0.774784
0.774795
0.774806
0.774818
0.774831
0.774849
0.774874
0.774905
0.774945
0.774994
0.775055
0.775139
0.775247
0.775389
0.775583
0.775835
0.776186
0.776679
0.777363
0.778391
0.780016
0.782818
0.788036
0.796422
0.80551
0.810928
0.811717
0.811716
0.811717
0.811739
0.811832
0.812014
0.812238
0.812597
0.813931
0.819332
0.838964
0.880141
0.934269
0.986457
1.02358
1.03761
1.0428
1.04121
1.03788
1.04084
1.04357
1.04315
1.04148
1.04108
1.04182
1.04273
1.04283
1.04292
1.04349
1.04441
1.04473
1.04476
1.04506
1.0455
1.04569
1.04579
1.04573
1.04541
1.04511
1.04478
1.04391
1.0423
1.04026
1.03828
1.03641
1.0342
1.03182
1.02931
1.02663
1.02371
1.02126
1.01892
1.01728
1.01492
1.01226
0.774681
0.774681
0.774681
0.77468
0.774678
0.774681
0.774682
0.77468
0.774682
0.774687
0.774688
0.774686
0.774688
0.774696
0.774703
0.774707
0.774708
0.774708
0.774716
0.774726
0.774733
0.77474
0.77475
0.774764
0.774783
0.774807
0.774833
0.774861
0.774897
0.774944
0.77501
0.775099
0.77521
0.77536
0.77556
0.775827
0.77621
0.776739
0.777496
0.778669
0.780608
0.784162
0.790666
0.799888
0.808141
0.811654
0.811837
0.811832
0.811817
0.811868
0.811993
0.812174
0.812442
0.812818
0.813232
0.814139
0.817871
0.832724
0.872187
0.931065
0.982148
1.01539
1.02832
1.03611
1.04499
1.04533
1.04396
1.04096
1.04134
1.04307
1.04344
1.04296
1.04311
1.04405
1.04482
1.0448
1.04491
1.04545
1.04596
1.04606
1.04614
1.046
1.04561
1.04531
1.04494
1.04396
1.04231
1.04038
1.03852
1.03648
1.03413
1.0318
1.02931
1.02658
1.02366
1.02131
1.01907
1.01739
1.01503
1.01238
0.774654
0.774654
0.774654
0.774652
0.774651
0.774654
0.774654
0.774654
0.774654
0.774658
0.774662
0.774662
0.774662
0.774666
0.77467
0.774675
0.77468
0.774684
0.774688
0.774698
0.774707
0.774714
0.774721
0.774734
0.774753
0.774774
0.774797
0.77482
0.774847
0.774882
0.774928
0.774994
0.77508
0.775191
0.775347
0.775553
0.775831
0.776235
0.776799
0.777633
0.778991
0.781348
0.785807
0.793605
0.803207
0.810102
0.811978
0.812
0.811996
0.811985
0.812035
0.81219
0.812423
0.812705
0.813057
0.813478
0.813932
0.814755
0.817828
0.831672
0.869477
0.927573
0.987817
1.02554
1.04125
1.04403
1.04045
1.04069
1.04345
1.04439
1.04352
1.04271
1.04345
1.04474
1.04492
1.04477
1.0452
1.04601
1.04636
1.04644
1.04651
1.04621
1.04575
1.04548
1.04504
1.04397
1.04236
1.0406
1.03873
1.03645
1.03401
1.03172
1.02921
1.02647
1.02363
1.02142
1.01923
1.01743
1.01505
1.0125
0.774627
0.774625
0.774625
0.774626
0.774627
0.774625
0.774626
0.774629
0.774629
0.77463
0.774634
0.774638
0.774644
0.77465
0.774651
0.77465
0.774655
0.774668
0.774684
0.774693
0.774698
0.774707
0.774719
0.774731
0.774745
0.774762
0.774781
0.7748
0.774819
0.774844
0.774878
0.774924
0.774989
0.775068
0.775178
0.775331
0.775536
0.775835
0.776259
0.776859
0.777802
0.779382
0.782266
0.787822
0.79681
0.80612
0.811265
0.8121
0.812095
0.81211
0.812136
0.812234
0.812447
0.812697
0.81298
0.813317
0.813727
0.814337
0.815002
0.815813
0.818581
0.831998
0.872838
0.937075
0.992871
1.02035
1.03311
1.04091
1.04684
1.04529
1.04252
1.04274
1.04463
1.04542
1.04493
1.045
1.04589
1.04665
1.04666
1.04679
1.04686
1.04641
1.04592
1.04566
1.04515
1.04402
1.04254
1.04088
1.03889
1.03635
1.03394
1.03162
1.02906
1.02632
1.02363
1.02154
1.01935
1.01742
1.015
1.01265
0.774601
0.774602
0.774604
0.774606
0.774607
0.774609
0.774612
0.774614
0.774614
0.774619
0.774623
0.774626
0.774633
0.774645
0.774649
0.774648
0.774652
0.774665
0.774677
0.774682
0.774689
0.774703
0.774715
0.774722
0.774731
0.774745
0.77476
0.774777
0.774792
0.774808
0.774828
0.774854
0.774895
0.774955
0.775035
0.77515
0.775303
0.775512
0.775826
0.776273
0.77693
0.778005
0.77987
0.783434
0.790224
0.800026
0.808423
0.811858
0.812102
0.812128
0.812157
0.812236
0.812421
0.81265
0.812903
0.813222
0.813637
0.814193
0.814864
0.815525
0.815983
0.816553
0.81942
0.836318
0.880457
0.947139
1.00663
1.035
1.04459
1.04407
1.04107
1.0444
1.04646
1.04533
1.04488
1.04564
1.04703
1.0471
1.04691
1.04722
1.04721
1.04663
1.04618
1.04587
1.04525
1.04417
1.04287
1.04113
1.03876
1.03621
1.03394
1.03159
1.02894
1.0262
1.02366
1.02164
1.01942
1.01742
1.01495
1.01285
0.77459
0.774592
0.774595
0.774599
0.774602
0.774607
0.774611
0.774614
0.774618
0.774624
0.77463
0.774635
0.774643
0.774656
0.774664
0.774667
0.774671
0.774682
0.774699
0.774707
0.774707
0.77471
0.774725
0.774734
0.774736
0.774746
0.774761
0.774772
0.77478
0.774788
0.774795
0.774799
0.774814
0.774849
0.774905
0.774985
0.7751
0.775256
0.775479
0.775813
0.776291
0.777024
0.778253
0.780476
0.784861
0.792861
0.802931
0.810051
0.812093
0.812172
0.81221
0.812258
0.812382
0.812566
0.812802
0.813122
0.813557
0.814139
0.814778
0.815391
0.815841
0.816144
0.816412
0.817139
0.821184
0.842499
0.897893
0.964304
1.0122
1.02933
1.03896
1.04818
1.04745
1.04534
1.04519
1.04701
1.04792
1.04725
1.04723
1.04772
1.0476
1.04692
1.04649
1.04612
1.04541
1.04448
1.04325
1.0413
1.03864
1.03619
1.03402
1.03161
1.02888
1.02613
1.02373
1.02167
1.01942
1.01744
1.01505
1.01306
0.774601
0.774603
0.774604
0.774605
0.774609
0.774616
0.774623
0.774629
0.774635
0.77464
0.774644
0.774646
0.774651
0.77466
0.774674
0.774679
0.77468
0.774682
0.774694
0.774711
0.774715
0.774713
0.774711
0.774724
0.774732
0.774733
0.774743
0.774747
0.774746
0.774744
0.774756
0.774766
0.774766
0.774775
0.774811
0.774867
0.774947
0.77506
0.775219
0.775458
0.77581
0.776326
0.777147
0.778554
0.781203
0.786508
0.795532
0.805318
0.810975
0.812178
0.812251
0.812305
0.812395
0.812535
0.812737
0.81303
0.813463
0.81407
0.814652
0.815234
0.815768
0.816029
0.816295
0.816717
0.817155
0.818231
0.824779
0.854734
0.916135
0.986239
1.02857
1.04562
1.04621
1.04309
1.04643
1.04864
1.04774
1.04699
1.04782
1.04831
1.0478
1.04719
1.04685
1.04635
1.04568
1.04491
1.04357
1.0413
1.03854
1.03632
1.03421
1.03167
1.02886
1.02611
1.02378
1.02164
1.01936
1.01753
1.01536
1.01322
0.774642
0.774638
0.774637
0.774645
0.774654
0.774655
0.774655
0.774654
0.774654
0.774652
0.774649
0.774653
0.774658
0.774662
0.774666
0.77467
0.774674
0.774676
0.774673
0.774679
0.774683
0.774681
0.774683
0.774691
0.774693
0.774685
0.774689
0.774695
0.774694
0.774699
0.774711
0.774715
0.77471
0.774721
0.77475
0.774792
0.774849
0.774929
0.775043
0.775207
0.77546
0.775833
0.776389
0.777298
0.778897
0.782022
0.788238
0.797927
0.807026
0.811475
0.812252
0.812349
0.812432
0.812547
0.812731
0.813013
0.813426
0.813954
0.814488
0.815002
0.815532
0.815942
0.816318
0.81669
0.817084
0.817551
0.818009
0.819668
0.830584
0.873442
0.944031
1.00512
1.02852
1.03929
1.05052
1.04977
1.04758
1.04766
1.04904
1.04891
1.04796
1.04755
1.04728
1.04668
1.04608
1.04544
1.04388
1.04124
1.03857
1.03657
1.0345
1.03175
1.02888
1.02615
1.02381
1.02151
1.01927
1.01771
1.01566
1.01322
0.774689
0.774688
0.774687
0.774688
0.774688
0.774687
0.77468
0.774679
0.774683
0.774686
0.774686
0.774686
0.774685
0.774683
0.774678
0.774673
0.77467
0.774667
0.774666
0.774665
0.77466
0.774657
0.774649
0.774647
0.774654
0.774654
0.774657
0.774667
0.774671
0.774671
0.774681
0.774693
0.774701
0.774705
0.774725
0.774759
0.774802
0.77486
0.774938
0.775051
0.775224
0.775486
0.775868
0.776457
0.777441
0.779241
0.782877
0.78992
0.799932
0.808288
0.8119
0.81241
0.812505
0.812597
0.81276
0.813033
0.813435
0.81387
0.814279
0.814715
0.815245
0.815833
0.816366
0.816816
0.817183
0.8175
0.817873
0.818213
0.818724
0.821975
0.84272
0.898758
0.974907
1.02488
1.04694
1.04837
1.04543
1.04948
1.05041
1.04891
1.04806
1.04807
1.04769
1.04691
1.04654
1.04577
1.04397
1.04117
1.0388
1.03706
1.03477
1.03179
1.02898
1.0262
1.02374
1.02128
1.01919
1.01785
1.01581
1.0131
0.774695
0.774693
0.77469
0.774687
0.774685
0.774683
0.774681
0.774679
0.774678
0.774675
0.774672
0.774666
0.774658
0.774648
0.77464
0.774634
0.774629
0.774625
0.774624
0.774625
0.774632
0.774636
0.774638
0.774641
0.774642
0.774639
0.774637
0.774644
0.774652
0.774665
0.774674
0.774675
0.774687
0.774718
0.77474
0.774758
0.77479
0.774847
0.774906
0.774975
0.775077
0.775241
0.775494
0.775877
0.776494
0.777555
0.779573
0.78372
0.791457
0.801633
0.80937
0.812273
0.812648
0.812756
0.812898
0.813143
0.813483
0.81379
0.81406
0.814441
0.814974
0.815636
0.816247
0.816763
0.817206
0.817567
0.81787
0.818122
0.818497
0.81891
0.819928
0.827168
0.86319
0.934701
1.00255
1.02964
1.04175
1.05295
1.05139
1.04898
1.04874
1.04879
1.04802
1.04726
1.04697
1.0461
1.04401
1.04129
1.03936
1.03747
1.03488
1.03175
1.02905
1.02622
1.0236
1.02102
1.01917
1.01778
1.01563
1.01277
0.774699
0.774696
0.774692
0.774689
0.774685
0.774681
0.774677
0.774674
0.774672
0.774669
0.774667
0.774665
0.774662
0.774659
0.774655
0.774652
0.77465
0.774647
0.774644
0.774639
0.774633
0.774631
0.774629
0.774628
0.774627
0.774625
0.774625
0.774631
0.774638
0.774648
0.774664
0.774684
0.774704
0.774732
0.774758
0.774775
0.774797
0.774837
0.774892
0.774939
0.77499
0.775074
0.775218
0.775459
0.77585
0.776506
0.777661
0.779912
0.784576
0.792943
0.803198
0.810135
0.8125
0.812994
0.813141
0.813321
0.813529
0.81362
0.81381
0.814176
0.814731
0.815479
0.816226
0.81674
0.817094
0.817384
0.817767
0.818083
0.818413
0.818838
0.819356
0.819867
0.822207
0.839459
0.893735
0.973482
1.02673
1.04983
1.04952
1.04751
1.0499
1.04938
1.04799
1.04766
1.04737
1.04626
1.04401
1.04174
1.04006
1.03781
1.03454
1.03158
1.02902
1.02619
1.02343
1.02086
1.01914
1.01762
1.0153
1.01231
0.774695
0.774691
0.774687
0.774684
0.774682
0.77468
0.774677
0.774676
0.774674
0.774672
0.774668
0.774664
0.774659
0.774654
0.774649
0.774644
0.77464
0.774639
0.774642
0.774645
0.774648
0.774652
0.774654
0.774652
0.774653
0.774664
0.774673
0.77468
0.774689
0.774697
0.774706
0.774717
0.77473
0.77475
0.774766
0.774781
0.7748
0.774825
0.774852
0.774874
0.77489
0.774925
0.775006
0.775163
0.775422
0.775842
0.776547
0.777801
0.780315
0.785481
0.79426
0.804281
0.810872
0.813049
0.813327
0.813414
0.813438
0.813452
0.813645
0.814035
0.814618
0.815373
0.816113
0.816755
0.817008
0.817217
0.817556
0.818034
0.81847
0.818915
0.819365
0.819757
0.820159
0.821007
0.827336
0.862927
0.936191
1.00778
1.03124
1.04574
1.052
1.05028
1.04814
1.04825
1.0478
1.04635
1.04423
1.0426
1.04069
1.03752
1.03415
1.03151
1.02898
1.02609
1.02324
1.02082
1.01904
1.01734
1.01478
1.01175
0.774711
0.774709
0.774709
0.774708
0.774706
0.774705
0.774705
0.774704
0.774704
0.774705
0.774706
0.774707
0.774706
0.774704
0.774709
0.774714
0.774718
0.774722
0.774725
0.774726
0.774728
0.774725
0.774723
0.774731
0.774739
0.77474
0.774741
0.774744
0.774743
0.774742
0.774741
0.774733
0.774734
0.77474
0.774739
0.774743
0.774745
0.774738
0.774742
0.774769
0.774798
0.774819
0.774861
0.774959
0.775144
0.775439
0.775908
0.776673
0.778029
0.780766
0.786303
0.795223
0.805331
0.812115
0.813267
0.813271
0.813253
0.813346
0.813612
0.814021
0.814629
0.815304
0.815967
0.816534
0.816767
0.817049
0.817462
0.817965
0.81853
0.819051
0.819486
0.819842
0.820091
0.820495
0.820914
0.823158
0.841385
0.899577
0.980379
1.03441
1.04982
1.04728
1.04827
1.04925
1.04824
1.04663
1.04493
1.04339
1.04071
1.03704
1.03408
1.0316
1.02899
1.02591
1.0231
1.02094
1.01898
1.01692
1.01403
1.01128
0.774752
0.774754
0.774754
0.774754
0.774758
0.774764
0.774768
0.774772
0.774776
0.774781
0.774787
0.774794
0.774798
0.774802
0.774808
0.774815
0.774822
0.774826
0.774826
0.774826
0.774824
0.77482
0.774816
0.774812
0.774808
0.774803
0.774797
0.774791
0.774781
0.774766
0.774747
0.77473
0.774717
0.774702
0.774689
0.774685
0.77468
0.774674
0.774682
0.774696
0.774719
0.774756
0.774803
0.774876
0.775003
0.775216
0.775544
0.776049
0.776861
0.778288
0.78119
0.78693
0.796037
0.806194
0.812255
0.81316
0.813109
0.813265
0.813642
0.814193
0.814803
0.815287
0.815864
0.81626
0.816579
0.816981
0.817468
0.817988
0.818492
0.819036
0.819615
0.819978
0.820238
0.82047
0.820784
0.821119
0.822016
0.829207
0.871888
0.94969
1.01565
1.03651
1.04984
1.04974
1.04826
1.04704
1.046
1.04401
1.04056
1.03685
1.03418
1.03201
1.02905
1.02573
1.02319
1.02107
1.01883
1.0164
1.01347
1.01115
0.774843
0.774841
0.774843
0.77485
0.774853
0.774853
0.774855
0.774857
0.774859
0.774861
0.774862
0.774863
0.774863
0.774864
0.774865
0.774866
0.774866
0.774865
0.774861
0.774855
0.774849
0.774842
0.774833
0.77482
0.774806
0.77479
0.774776
0.774762
0.774747
0.77473
0.774716
0.774706
0.774694
0.77467
0.774653
0.774651
0.774647
0.774656
0.774679
0.774698
0.774716
0.774742
0.774781
0.774843
0.774947
0.775114
0.775354
0.7757
0.776227
0.777034
0.778482
0.781528
0.787371
0.79633
0.806198
0.811871
0.81309
0.813516
0.814013
0.81459
0.814947
0.815302
0.815546
0.815825
0.816309
0.816931
0.817556
0.818169
0.81864
0.819062
0.819532
0.819907
0.820189
0.820533
0.820823
0.821098
0.821354
0.821803
0.825086
0.848294
0.918077
0.9978
1.04398
1.0474
1.04822
1.04844
1.04728
1.04429
1.04035
1.03694
1.03509
1.03255
1.02902
1.02569
1.02342
1.0211
1.01849
1.01583
1.01341
1.01119
0.774897
0.774896
0.774895
0.774894
0.774893
0.77489
0.774885
0.774879
0.774873
0.774868
0.774864
0.774861
0.774857
0.774853
0.77485
0.774845
0.77484
0.774836
0.77483
0.774828
0.774827
0.774825
0.774821
0.774812
0.774803
0.774789
0.774773
0.774763
0.77475
0.774737
0.774732
0.774728
0.774721
0.774712
0.7747
0.774689
0.774688
0.774692
0.774689
0.774691
0.774716
0.774753
0.774792
0.774844
0.774924
0.775052
0.775239
0.775483
0.775821
0.776321
0.777115
0.778605
0.781676
0.787359
0.796073
0.805663
0.811309
0.813625
0.814667
0.814939
0.815044
0.815008
0.815064
0.815364
0.816042
0.816899
0.817604
0.818278
0.818763
0.819152
0.819566
0.81981
0.820031
0.820406
0.820807
0.821162
0.821433
0.821673
0.821876
0.82291
0.834286
0.891836
0.979161
1.02137
1.04412
1.04926
1.04773
1.0441
1.04053
1.03789
1.03598
1.03281
1.02876
1.02585
1.02343
1.02079
1.01793
1.01547
1.01365
1.01119
0.774898
0.774894
0.774891
0.774886
0.774881
0.774877
0.774875
0.774874
0.774871
0.774868
0.774866
0.774863
0.774858
0.774852
0.774843
0.774832
0.774823
0.774812
0.774808
0.774808
0.774811
0.774814
0.77481
0.774811
0.774813
0.774809
0.774806
0.77481
0.77481
0.774805
0.774804
0.774803
0.774796
0.774783
0.774771
0.774765
0.774764
0.774755
0.774744
0.774762
0.774797
0.774827
0.774845
0.774868
0.774903
0.774981
0.775108
0.77528
0.775508
0.775851
0.776363
0.77717
0.778706
0.781747
0.787342
0.795948
0.805458
0.812332
0.814897
0.814928
0.814674
0.814606
0.814738
0.81515
0.815879
0.81673
0.817532
0.818173
0.818731
0.819135
0.819417
0.819611
0.820015
0.820489
0.820863
0.821172
0.821457
0.821646
0.821858
0.821861
0.821806
0.827994
0.865826
0.951164
1.02597
1.04381
1.04688
1.04444
1.04139
1.03911
1.03628
1.03208
1.0285
1.02592
1.02338
1.02026
1.01728
1.01531
1.01365
1.01091
0.774821
0.774813
0.774804
0.774795
0.774788
0.774782
0.774777
0.774773
0.774769
0.774767
0.774767
0.774765
0.774764
0.774764
0.774764
0.77477
0.774774
0.774782
0.774793
0.774802
0.774816
0.774828
0.77483
0.774832
0.774837
0.774842
0.77485
0.77487
0.774892
0.774912
0.774933
0.774943
0.774949
0.774955
0.77496
0.77496
0.774941
0.774915
0.77491
0.774907
0.774895
0.77486
0.774845
0.774859
0.774867
0.774889
0.774966
0.775093
0.775272
0.775531
0.775927
0.776498
0.777358
0.778952
0.7819
0.787155
0.795656
0.805767
0.812474
0.814076
0.814281
0.814401
0.814648
0.81514
0.815874
0.816664
0.817443
0.818112
0.818456
0.818663
0.819133
0.819541
0.819929
0.820437
0.820923
0.821316
0.821641
0.821866
0.821941
0.821813
0.821508
0.821287
0.823877
0.851938
0.929384
1.00175
1.03802
1.04311
1.04273
1.0407
1.03639
1.03101
1.02826
1.0258
1.02302
1.01948
1.01688
1.01509
1.01328
1.01021
0.774832
0.774825
0.77482
0.774816
0.774812
0.77481
0.774807
0.774804
0.774802
0.774801
0.774799
0.774797
0.774804
0.77481
0.774814
0.774828
0.774838
0.774856
0.774884
0.774896
0.774922
0.774966
0.774978
0.774993
0.775023
0.775038
0.775055
0.775077
0.775092
0.77511
0.775113
0.77511
0.775113
0.775115
0.775112
0.775096
0.775053
0.775006
0.774972
0.774947
0.774921
0.774875
0.774809
0.774791
0.77483
0.774861
0.774914
0.775012
0.775167
0.775387
0.775719
0.776178
0.776808
0.777754
0.77927
0.78202
0.787123
0.795188
0.804131
0.81046
0.813868
0.81465
0.815015
0.81552
0.816148
0.816728
0.817364
0.817844
0.818097
0.818338
0.818804
0.819536
0.820064
0.820535
0.82097
0.821341
0.821682
0.821971
0.822122
0.822022
0.821527
0.821223
0.821418
0.823153
0.839023
0.907497
0.994727
1.03442
1.04139
1.04027
1.035
1.03095
1.02869
1.02563
1.02204
1.01878
1.01673
1.01487
1.01279
1.00912
0.774948
0.774956
0.774968
0.774969
0.774969
0.774969
0.774974
0.774985
0.774993
0.775002
0.775014
0.775026
0.775045
0.77508
0.7751
0.775114
0.77514
0.775156
0.775165
0.775194
0.775243
0.775264
0.775263
0.775253
0.775258
0.775276
0.775287
0.775283
0.77527
0.77525
0.775209
0.775162
0.775155
0.775151
0.775116
0.77506
0.774994
0.774926
0.774884
0.774867
0.774861
0.774843
0.774805
0.774787
0.77482
0.774876
0.774941
0.775037
0.775179
0.775386
0.775686
0.776099
0.776617
0.777245
0.778103
0.779504
0.782015
0.786525
0.793742
0.802277
0.809572
0.813745
0.815363
0.816077
0.81666
0.817116
0.817071
0.817115
0.81749
0.818085
0.818716
0.81942
0.82018
0.820732
0.82117
0.82156
0.821874
0.822086
0.822182
0.82203
0.821581
0.821482
0.821539
0.821876
0.82274
0.833935
0.885992
0.970917
1.02328
1.03507
1.03321
1.03261
1.03012
1.02559
1.02136
1.01877
1.01665
1.01426
1.01157
1.00821
0.775343
0.77535
0.775357
0.775359
0.775357
0.775356
0.775364
0.775366
0.775372
0.775373
0.775375
0.775381
0.775386
0.775395
0.775399
0.775399
0.775401
0.775399
0.775395
0.775393
0.77539
0.775385
0.775392
0.775405
0.775401
0.775402
0.775421
0.775411
0.775364
0.775286
0.775188
0.77514
0.775109
0.775047
0.774998
0.774974
0.774933
0.774878
0.774837
0.774799
0.774797
0.774823
0.774859
0.774919
0.775007
0.775098
0.775196
0.775283
0.775366
0.775511
0.775774
0.776139
0.776565
0.777012
0.777538
0.778294
0.779522
0.781756
0.785846
0.792408
0.800736
0.808526
0.813422
0.816199
0.816582
0.816509
0.816395
0.816597
0.817142
0.817866
0.81865
0.819445
0.82021
0.820791
0.821239
0.82164
0.821989
0.822261
0.822401
0.822268
0.821665
0.821496
0.821882
0.822083
0.822491
0.823229
0.829091
0.871033
0.953872
1.01675
1.03004
1.03447
1.03195
1.02627
1.02136
1.01901
1.01637
1.01315
1.0105
1.00828
0.775542
0.775534
0.775525
0.775516
0.775502
0.775485
0.775484
0.775479
0.77547
0.775463
0.775432
0.775426
0.775432
0.775392
0.775351
0.775364
0.775375
0.775367
0.775376
0.775393
0.775387
0.775365
0.77536
0.775356
0.775322
0.775274
0.775266
0.77524
0.775178
0.77511
0.775046
0.775016
0.775006
0.774977
0.774938
0.774941
0.77494
0.774894
0.774842
0.774846
0.774912
0.775016
0.775138
0.775289
0.775403
0.775494
0.775568
0.775627
0.775654
0.775697
0.775877
0.776145
0.776401
0.776683
0.777045
0.777571
0.778346
0.779559
0.781698
0.78539
0.79122
0.799188
0.806605
0.812001
0.815041
0.815677
0.815984
0.816481
0.817127
0.817898
0.818662
0.819377
0.82012
0.820857
0.821356
0.821735
0.822021
0.822192
0.822245
0.822242
0.821977
0.82169
0.821991
0.822482
0.822774
0.823155
0.823798
0.827628
0.857025
0.932376
0.998719
1.02923
1.02829
1.02438
1.02236
1.01944
1.01554
1.01157
1.01038
1.00874
0.775581
0.775567
0.775557
0.775553
0.775543
0.775535
0.775534
0.775524
0.77552
0.775518
0.775506
0.775505
0.775479
0.775433
0.775435
0.775455
0.775444
0.775448
0.775483
0.775504
0.775505
0.775486
0.775466
0.775447
0.775399
0.775318
0.775277
0.775243
0.775188
0.775142
0.775113
0.775097
0.775119
0.775177
0.775228
0.77527
0.775333
0.775371
0.775384