/*--------------------------------*- C++ -*----------------------------------*\
  =========                 |
  \\      /  F ield         | OpenFOAM: The Open Source CFD Toolbox
   \\    /   O peration     | Website:  https://openfoam.org
    \\  /    A nd           | Version:  7
     \\/     M anipulation  |
\*---------------------------------------------------------------------------*/
FoamFile
{
    version     2.0;
    format      ascii;
    class       volScalarField;
    location    "1.4001";
    object      T;
}
// * * * * * * * * * * * * * * * * * * * * * * * * * * * * * * * * * * * * * //

dimensions      [0 0 0 1 0 0 0];

internalField   nonuniform List<scalar> 
324000
(
0.839245
0.9426
1.06534
1.1764
1.24022
1.23624
1.22104
1.20692
1.19587
1.1984
1.20805
1.21695
1.21187
1.20541
1.20046
1.19758
1.19771
1.19819
1.19818
1.19794
1.19823
1.20068
1.20117
1.20057
1.19923
1.19907
1.19966
1.19986
1.19962
1.19913
1.19829
1.19716
1.19614
1.19548
1.19487
1.19437
1.19404
1.19377
1.19319
1.19187
1.19032
1.18877
1.18638
1.18099
1.17495
1.17122
1.16883
1.16697
1.16528
1.1634
1.16217
1.1624
1.16484
1.17016
1.17164
1.17137
1.16704
1.1539
1.13278
1.10454
1.0712
1.04178
1.02804
1.01992
1.01316
1.00897
1.00584
1.00222
0.998389
0.994261
0.990095
0.988224
0.985418
0.983771
0.982726
0.981256
0.981824
0.983118
0.986196
0.992692
0.557259
0.556377
0.610836
0.868351
1.06318
1.13875
1.2035
1.23014
1.22178
1.23297
1.23721
1.23091
1.21473
1.20634
1.20314
1.20079
1.20021
1.19955
1.19873
1.19883
1.20038
1.203
1.20265
1.2004
1.19889
1.19979
1.20065
1.20031
1.19944
1.19889
1.19831
1.1972
1.19615
1.1956
1.19508
1.19455
1.19419
1.19398
1.19349
1.19257
1.1912
1.18856
1.18498
1.18003
1.17508
1.17197
1.16963
1.16778
1.16602
1.16414
1.16258
1.16274
1.1651
1.16966
1.17099
1.17006
1.16724
1.15575
1.13806
1.11813
1.09447
1.06912
1.05279
1.04307
1.0357
1.03117
1.02762
1.0235
1.01872
1.01359
1.00749
1.00343
0.998556
0.995513
0.993011
0.989834
0.989589
0.989531
0.992015
0.997156
0.556514
0.555669
0.554231
0.552457
0.585426
0.734345
0.932058
1.11359
1.21321
1.25357
1.24748
1.22527
1.19093
1.19296
1.19531
1.1969
1.19711
1.19606
1.19504
1.19546
1.19838
1.19893
1.19791
1.19542
1.19573
1.19702
1.1976
1.19676
1.19569
1.19565
1.19528
1.19421
1.19343
1.19306
1.19268
1.19217
1.19193
1.19189
1.19157
1.19082
1.18929
1.18639
1.18224
1.17787
1.17421
1.17161
1.16933
1.16749
1.16577
1.16377
1.16204
1.16241
1.16466
1.16808
1.16898
1.16813
1.16527
1.15648
1.14091
1.1269
1.11218
1.09603
1.08321
1.07342
1.06576
1.06025
1.05613
1.05144
1.04531
1.03825
1.0302
1.0232
1.01616
1.01151
1.00736
1.00237
1.00058
0.999188
1.00209
1.00539
0.55491
0.553681
0.552433
0.551307
0.550133
0.548919
0.548626
0.678537
0.938814
1.08653
1.14346
1.16806
1.16784
1.17868
1.18712
1.18838
1.18765
1.18663
1.186
1.18669
1.18962
1.18978
1.18846
1.18679
1.1879
1.18942
1.18936
1.18835
1.1876
1.18785
1.1877
1.18689
1.18631
1.18632
1.18599
1.18551
1.18566
1.18596
1.1859
1.18559
1.18444
1.18175
1.17813
1.17489
1.17225
1.17023
1.16819
1.16632
1.16467
1.16254
1.16062
1.16074
1.16273
1.16501
1.16547
1.16491
1.16237
1.15561
1.14262
1.13175
1.12319
1.11516
1.10889
1.1019
1.09477
1.08939
1.08482
1.08009
1.07408
1.06695
1.05836
1.05048
1.04188
1.03537
1.02929
1.02197
1.01733
1.01364
1.01677
1.01777
0.552938
0.551766
0.550611
0.54956
0.548831
0.548294
0.547574
0.547312
0.547505
0.643637
0.818628
0.998391
1.11093
1.15792
1.16318
1.17271
1.17621
1.17774
1.17711
1.1783
1.17981
1.17854
1.17669
1.1781
1.17989
1.17961
1.17811
1.17738
1.17812
1.1783
1.17761
1.17701
1.17714
1.17705
1.17678
1.17679
1.17729
1.17806
1.17845
1.17851
1.17782
1.17557
1.17344
1.17149
1.16955
1.16774
1.16582
1.16402
1.16252
1.16023
1.15811
1.15879
1.15913
1.16017
1.16116
1.16091
1.1592
1.15352
1.1432
1.13366
1.12805
1.12569
1.12535
1.12214
1.11691
1.11215
1.1083
1.10454
1.09948
1.09308
1.08538
1.07796
1.07009
1.06399
1.05749
1.04917
1.04273
1.03703
1.0404
1.03937
0.551007
0.549995
0.549114
0.54839
0.547878
0.547498
0.547146
0.547039
0.547089
0.547823
0.54977
0.585224
0.76622
0.942654
1.04919
1.13203
1.15046
1.16371
1.16783
1.17247
1.17159
1.16782
1.16834
1.17168
1.17221
1.1699
1.1681
1.16913
1.17053
1.16988
1.16861
1.1687
1.16903
1.16881
1.16839
1.16867
1.16953
1.17024
1.1709
1.17117
1.17084
1.16972
1.16826
1.16738
1.16615
1.16459
1.16279
1.16119
1.15987
1.15771
1.15579
1.15612
1.15616
1.15642
1.15715
1.1573
1.15612
1.1512
1.14209
1.13393
1.13076
1.13041
1.13252
1.13217
1.12874
1.12523
1.12225
1.11944
1.11579
1.11101
1.10506
1.0993
1.09375
1.08915
1.08381
1.07653
1.07043
1.0646
1.06763
1.06468
0.549378
0.548628
0.548049
0.547595
0.547252
0.547017
0.546859
0.546816
0.546897
0.547301
0.548983
0.554875
0.565303
0.584733
0.726315
0.895587
1.03202
1.12849
1.15073
1.16287
1.16374
1.16032
1.16353
1.16657
1.16543
1.16264
1.16293
1.16508
1.1658
1.16423
1.16354
1.16392
1.16408
1.16353
1.1631
1.16364
1.16445
1.16489
1.16561
1.16594
1.16561
1.16514
1.1649
1.16447
1.16331
1.16195
1.16031
1.15886
1.15773
1.15556
1.15342
1.15368
1.15325
1.15318
1.15397
1.15447
1.1535
1.14913
1.14054
1.13324
1.13168
1.13241
1.13582
1.1365
1.13289
1.13005
1.12785
1.12573
1.12299
1.11943
1.11571
1.11266
1.10997
1.10786
1.10467
1.09963
1.09569
1.0908
1.09145
1.08484
0.548215
0.547722
0.547359
0.547096
0.546888
0.546743
0.546687
0.546701
0.546757
0.547042
0.548322
0.552613
0.562637
0.575091
0.581436
0.581938
0.694513
0.87425
1.0223
1.12214
1.14434
1.15002
1.1656
1.1652
1.16157
1.15759
1.16111
1.16467
1.16395
1.16131
1.16132
1.16229
1.16189
1.16083
1.16082
1.16125
1.16165
1.16187
1.16255
1.16278
1.16257
1.16256
1.16254
1.16234
1.16152
1.16038
1.15889
1.15762
1.15653
1.15417
1.1519
1.15192
1.15126
1.15098
1.15191
1.15242
1.15149
1.14733
1.13862
1.13167
1.13106
1.13249
1.13676
1.13806
1.13386
1.13101
1.12925
1.12739
1.12489
1.12183
1.11951
1.11809
1.1182
1.11818
1.11712
1.11455
1.11221
1.10808
1.10582
1.0936
0.547468
0.547166
0.546942
0.5468
0.546693
0.546608
0.546602
0.546617
0.546669
0.546878
0.547704
0.550707
0.55891
0.571706
0.580517
0.582
0.58216
0.582282
0.679866
0.868752
1.0369
1.12782
1.16398
1.16282
1.15323
1.15764
1.16531
1.16607
1.1623
1.1601
1.16122
1.16232
1.16117
1.15975
1.16039
1.16057
1.1603
1.16066
1.16161
1.16156
1.16136
1.16149
1.16176
1.16147
1.16074
1.15973
1.15835
1.15742
1.15627
1.15336
1.1511
1.15074
1.1499
1.14958
1.15065
1.15108
1.15009
1.14595
1.13689
1.13029
1.13005
1.1321
1.13802
1.13778
1.13359
1.13084
1.12917
1.12714
1.12456
1.12186
1.12016
1.12015
1.12115
1.12268
1.12254
1.1212
1.11975
1.11514
1.11032
1.09407
0.547025
0.546856
0.546716
0.546621
0.546584
0.546565
0.546565
0.546577
0.546619
0.546754
0.5473
0.549437
0.555754
0.567716
0.57864
0.58195
0.582132
0.582268
0.582626
0.583
0.684142
0.890537
1.0524
1.11731
1.1447
1.16275
1.17118
1.16865
1.16067
1.16135
1.16438
1.16363
1.16009
1.16
1.16105
1.1609
1.15991
1.16031
1.16132
1.1611
1.16109
1.16146
1.16167
1.16122
1.16059
1.15965
1.15835
1.15716
1.1559
1.15258
1.15025
1.14996
1.14906
1.14876
1.14989
1.15049
1.14938
1.14506
1.13565
1.12913
1.12901
1.13166
1.13808
1.13638
1.13297
1.12998
1.12804
1.12576
1.12302
1.12096
1.12014
1.12072
1.12254
1.12423
1.12435
1.12317
1.12112
1.11536
1.10893
1.08949
0.546772
0.546679
0.546595
0.546526
0.546524
0.546546
0.546555
0.546562
0.546591
0.546688
0.547055
0.548476
0.553107
0.563597
0.575863
0.581477
0.582166
0.582324
0.582584
0.583134
0.583673
0.58588
0.693537
0.90796
1.08768
1.16047
1.17232
1.16565
1.16008
1.16648
1.16755
1.16373
1.16014
1.16193
1.16246
1.16134
1.16019
1.16061
1.1615
1.16119
1.16149
1.16254
1.16237
1.16167
1.16112
1.16021
1.15889
1.15779
1.15607
1.15224
1.14967
1.14924
1.1487
1.14838
1.14964
1.15053
1.14921
1.14465
1.13499
1.12854
1.12833
1.13146
1.13717
1.13527
1.1312
1.12811
1.12562
1.12319
1.12074
1.11934
1.11955
1.12071
1.12288
1.12461
1.12444
1.12289
1.1205
1.11372
1.10269
1.07608
0.546643
0.546579
0.546523
0.546486
0.546489
0.546521
0.546539
0.54655
0.546583
0.546662
0.546913
0.547861
0.551066
0.55947
0.572166
0.580426
0.582131
0.582274
0.582495
0.582967
0.583722
0.58454
0.584921
0.591021
0.745839
0.95552
1.10412
1.14217
1.16234
1.17401
1.17099
1.1609
1.16185
1.16507
1.16416
1.16044
1.16054
1.16137
1.1616
1.16185
1.16306
1.16424
1.16365
1.16289
1.16238
1.16144
1.16019
1.15897
1.15664
1.15248
1.14967
1.14899
1.14903
1.14889
1.1498
1.15046
1.14926
1.14461
1.13482
1.12839
1.12807
1.1317
1.13613
1.13378
1.1298
1.12546
1.12248
1.11998
1.11805
1.11768
1.11836
1.12013
1.12262
1.1243
1.12396
1.122
1.11759
1.10774
1.08925
1.05374
0.546581
0.546526
0.546479
0.546461
0.546469
0.5465
0.546524
0.546543
0.546589
0.54666
0.546833
0.54747
0.549637
0.55581
0.567605
0.578718
0.582002
0.582225
0.582387
0.582767
0.583464
0.584356
0.584966
0.585107
0.58529
0.612781
0.80064
1.02567
1.1493
1.1723
1.16526
1.15845
1.16668
1.16714
1.16297
1.16012
1.16175
1.16281
1.16232
1.16323
1.16591
1.1659
1.16499
1.16446
1.1639
1.16296
1.16194
1.16055
1.15756
1.15312
1.15003
1.14916
1.14959
1.14926
1.14986
1.15061
1.15011
1.14546
1.13524
1.12889
1.12866
1.13251
1.13556
1.13293
1.12839
1.12335
1.11964
1.11695
1.11556
1.11591
1.11723
1.11935
1.12189
1.12318
1.12269
1.11952
1.1136
1.0989
1.07243
1.03137
0.54654
0.546496
0.546459
0.546451
0.54646
0.546486
0.546514
0.546551
0.54662
0.546687
0.546801
0.547203
0.548641
0.553068
0.563124
0.575826
0.581739
0.582274
0.582391
0.58266
0.583248
0.584145
0.584803
0.584943
0.585145
0.585672
0.586351
0.672699
0.901333
1.082
1.13489
1.15765
1.17293
1.1695
1.15956
1.16058
1.16401
1.16359
1.16338
1.16538
1.16788
1.16696
1.16568
1.16572
1.16516
1.16429
1.16372
1.16226
1.15855
1.15399
1.15051
1.14954
1.14973
1.14925
1.14973
1.15062
1.15021
1.14631
1.13627
1.13019
1.13008
1.13374
1.13545
1.13277
1.12761
1.12162
1.11736
1.11484
1.11473
1.11532
1.1165
1.11867
1.12079
1.12123
1.1204
1.11647
1.10594
1.08519
1.05505
1.01376
0.546512
0.546487
0.546453
0.546447
0.546453
0.546471
0.546509
0.546566
0.546653
0.546718
0.546799
0.547045
0.547965
0.551068
0.559056
0.572176
0.581274
0.582373
0.582409
0.582556
0.583002
0.583766
0.584557
0.584835
0.585023
0.585462
0.586414
0.5869
0.592656
0.754101
1.00023
1.13874
1.16833
1.16153
1.15662
1.1641
1.16569
1.1625
1.16339
1.16759
1.16823
1.1668
1.16636
1.16662
1.16604
1.16549
1.1653
1.16366
1.15946
1.15479
1.1509
1.14997
1.14964
1.14897
1.1492
1.15048
1.1505
1.14726
1.13783
1.13219
1.13228
1.13542
1.13603
1.13308
1.12754
1.1205
1.11586
1.11408
1.11434
1.11514
1.11628
1.11787
1.11916
1.11911
1.11782
1.1112
1.09618
1.07098
1.04059
1.00254
0.546504
0.5465
0.546452
0.546445
0.546448
0.546464
0.546509
0.546585
0.546688
0.546747
0.546809
0.546969
0.547552
0.549625
0.555625
0.567638
0.580256
0.582422
0.582391
0.582486
0.582778
0.583402
0.584288
0.584753
0.584955
0.585332
0.586156
0.586989
0.587114
0.587175
0.648445
0.875953
1.0691
1.12845
1.15401
1.16933
1.16651
1.16092
1.16458
1.16931
1.16789
1.1661
1.16734
1.16736
1.16652
1.16642
1.16623
1.16414
1.15989
1.1555
1.15153
1.15018
1.149
1.14788
1.1482
1.15007
1.15071
1.14802
1.13948
1.13441
1.13474
1.13735
1.13732
1.13383
1.12769
1.12003
1.11531
1.11415
1.11449
1.11532
1.11602
1.11691
1.11726
1.11709
1.1145
1.10477
1.08539
1.05744
1.02984
0.996138
0.546533
0.546528
0.546461
0.546443
0.546446
0.546464
0.546521
0.546616
0.54672
0.546775
0.546824
0.546937
0.547312
0.548688
0.552952
0.562534
0.576599
0.582384
0.582516
0.582533
0.582701
0.583184
0.584042
0.584654
0.584903
0.585235
0.58601
0.586947
0.587168
0.587273
0.587443
0.587892
0.732403
0.982927
1.12716
1.1648
1.1576
1.15952
1.16856
1.17023
1.1663
1.16633
1.1686
1.16778
1.16661
1.1667
1.16623
1.16363
1.15986
1.15597
1.15192
1.1497
1.14767
1.14648
1.14687
1.14926
1.15061
1.14826
1.14089
1.13668
1.13725
1.13951
1.13907
1.13496
1.1281
1.12028
1.11515
1.11451
1.11492
1.1156
1.11545
1.11616
1.11584
1.11507
1.1106
1.09739
1.07475
1.04596
1.02157
0.993371
0.546576
0.546559
0.546471
0.546441
0.546444
0.546468
0.54654
0.546656
0.546751
0.546798
0.546837
0.546929
0.547184
0.548092
0.551004
0.558238
0.571043
0.58151
0.582689
0.58266
0.582728
0.583073
0.583841
0.584533
0.584832
0.585153
0.585842
0.586911
0.587216
0.587318
0.587492
0.587791
0.58807
0.636806
0.858968
1.06848
1.12939
1.15823
1.17263
1.16909
1.16525
1.16783
1.16947
1.16771
1.16658
1.16619
1.16526
1.16271
1.15973
1.15614
1.15244
1.14838
1.14615
1.14526
1.14558
1.14807
1.14995
1.14797
1.14183
1.13868
1.13955
1.14168
1.14085
1.13624
1.12898
1.12096
1.11594
1.11506
1.11517
1.1152
1.11547
1.11601
1.11458
1.11285
1.10579
1.0891
1.06402
1.03625
1.01527
0.991957
0.546597
0.546579
0.546491
0.546453
0.546457
0.546487
0.546572
0.546701
0.546778
0.546814
0.546853
0.546937
0.547128
0.54771
0.549672
0.554992
0.565757
0.578677
0.582742
0.582773
0.582795
0.583026
0.583663
0.584422
0.584783
0.585086
0.585665
0.586756
0.587234
0.587335
0.587532
0.587776
0.588088
0.588511
0.588896
0.732849
0.993618
1.13486
1.16777
1.16163
1.16536
1.1715
1.17015
1.16688
1.16669
1.16619
1.16459
1.16196
1.15959
1.15625
1.15227
1.14754
1.145
1.14432
1.14437
1.14675
1.14885
1.14736
1.14249
1.14046
1.14163
1.1437
1.14247
1.1375
1.13006
1.12211
1.11706
1.11544
1.11527
1.11554
1.11611
1.11604
1.11392
1.11059
1.10006
1.07995
1.0537
1.02885
1.01054
0.990321
0.546614
0.5466
0.546528
0.546497
0.546501
0.546528
0.546612
0.54674
0.546801
0.546828
0.546871
0.546959
0.547118
0.547498
0.548747
0.552519
0.561269
0.574286
0.582227
0.582823
0.582868
0.583023
0.583493
0.584277
0.584745
0.58504
0.585501
0.586499
0.587168
0.587315
0.587522
0.587786
0.588066
0.588454
0.589037
0.5894
0.650122
0.881278
1.08364
1.13912
1.16945
1.17454
1.16783
1.16653
1.16672
1.1661
1.16377
1.16121
1.1595
1.15633
1.15246
1.14722
1.14431
1.14381
1.14368
1.14559
1.14771
1.1466
1.1429
1.14191
1.14347
1.14546
1.14379
1.13855
1.13104
1.12326
1.11829
1.11616
1.11604
1.1162
1.11689
1.11676
1.11394
1.10776
1.09292
1.06985
1.04357
1.02269
1.00637
0.988428
0.54664
0.546628
0.546564
0.546539
0.546545
0.54657
0.54665
0.546767
0.546821
0.546851
0.546897
0.546988
0.54713
0.547396
0.548163
0.550717
0.557499
0.569456
0.580043
0.582713
0.582882
0.583018
0.583351
0.584065
0.584732
0.585024
0.585373
0.586146
0.586982
0.587302
0.587539
0.58779
0.588094
0.58845
0.589033
0.589543
0.589844
0.59261
0.771676
1.0325
1.15909
1.17175
1.16203
1.1674
1.16763
1.1664
1.16323
1.16077
1.15925
1.15664
1.15336
1.14773
1.14412
1.14395
1.14346
1.14465
1.14659
1.14582
1.14329
1.14313
1.14516
1.14687
1.1448
1.13931
1.13191
1.12431
1.11938
1.11721
1.117
1.11759
1.11811
1.11789
1.11339
1.10344
1.0844
1.05966
1.03432
1.01731
1.00283
0.986813
0.546672
0.546667
0.546628
0.546581
0.546582
0.546598
0.546672
0.546787
0.546842
0.546871
0.54692
0.54701
0.547151
0.547355
0.547836
0.549476
0.554424
0.564838
0.576737
0.581773
0.582611
0.582894
0.583187
0.58381
0.584657
0.584995
0.585263
0.585771
0.586609
0.587213
0.58756
0.58784
0.588105
0.588423
0.588945
0.589581
0.589931
0.590309
0.590593
0.69293
0.94449
1.1138
1.14921
1.17221
1.16978
1.16711
1.16312
1.16059
1.15915
1.15729
1.15476
1.14926
1.1445
1.1441
1.14342
1.14395
1.1456
1.14515
1.14377
1.14427
1.14684
1.14808
1.14552
1.13995
1.13268
1.12532
1.12038
1.11825
1.11865
1.11892
1.11901
1.11799
1.11095
1.097
1.07471
1.04981
1.02639
1.01292
1.00035
0.985636
0.546705
0.546712
0.546681
0.546618
0.54661
0.546621
0.546689
0.546812
0.546863
0.546886
0.546925
0.547013
0.547159
0.547343
0.547663
0.548682
0.552059
0.56035
0.572658
0.580453
0.582167
0.582609
0.582971
0.583557
0.584521
0.584942
0.585166
0.585521
0.58625
0.586986
0.587462
0.587841
0.588131
0.588442
0.588884
0.589484
0.589898
0.590253
0.590681
0.590998
0.617664
0.861781
1.09062
1.17095
1.16562
1.16729
1.16295
1.16053
1.15962
1.15857
1.15607
1.15083
1.14471
1.14399
1.14324
1.14332
1.14466
1.1447
1.14445
1.14569
1.1486
1.14921
1.14605
1.14045
1.1333
1.12586
1.12118
1.11959
1.11997
1.12024
1.11935
1.11646
1.10599
1.08844
1.0645
1.04073
1.02021
1.00946
0.998567
0.984585
0.546734
0.546752
0.54672
0.546648
0.546636
0.546647
0.546714
0.546838
0.546878
0.546895
0.546928
0.547013
0.547161
0.547344
0.54758
0.548221
0.550395
0.556371
0.567542
0.578043
0.581691
0.582444
0.582847
0.583383
0.584341
0.584914
0.585125
0.585406
0.586015
0.586786
0.587332
0.587788
0.58814
0.588455
0.588847
0.589386
0.589907
0.59026
0.590672
0.591132
0.591567
0.591951
0.783765
1.04358
1.12789
1.16329
1.16145
1.16162
1.1608
1.15906
1.15693
1.15196
1.14455
1.14392
1.14309
1.14275
1.14374
1.14436
1.14525
1.14749
1.1505
1.15029
1.14674
1.141
1.1334
1.12633
1.12157
1.12116
1.12125
1.12098
1.11831
1.11205
1.098
1.07805
1.05474
1.0333
1.0159
1.0065
0.996298
0.982975
0.546764
0.546787
0.546753
0.546673
0.546667
0.546679
0.546746
0.546866
0.5469
0.546907
0.546929
0.547
0.547151
0.54735
0.547557
0.547969
0.549334
0.553327
0.562256
0.574028
0.580599
0.582316
0.582827
0.583341
0.58414
0.584837
0.585088
0.585343
0.585855
0.586639
0.587254
0.587698
0.588057
0.588406
0.588827
0.589324
0.58987
0.590319
0.590727
0.591224
0.591712
0.592124
0.592499
0.697333
0.982054
1.14596
1.15302
1.16257
1.16173
1.15893
1.15675
1.15151
1.14396
1.14283
1.14257
1.14239
1.1432
1.14404
1.14605
1.14921
1.1522
1.15132
1.14785
1.14191
1.1339
1.12658
1.12285
1.12289
1.12191
1.12025
1.11477
1.10461
1.08773
1.06695
1.04592
1.02715
1.01234
1.00356
0.99368
0.981074
0.546786
0.54682
0.546786
0.546705
0.546707
0.546721
0.546786
0.546901
0.546927
0.546923
0.546933
0.546987
0.547134
0.547356
0.547561
0.547845
0.548678
0.551238
0.55775
0.568981
0.578531
0.582038
0.582903
0.583415
0.584035
0.584624
0.584978
0.585272
0.58571
0.586463
0.587205
0.587687
0.58804
0.588389
0.588827
0.589309
0.589816
0.590314
0.590691
0.591171
0.591819
0.592268
0.592639
0.5929
0.646567
0.93923
1.08737
1.15948
1.15732
1.15732
1.15596
1.1509
1.14464
1.14242
1.14244
1.1424
1.14305
1.14382
1.14654
1.15044
1.15326
1.15225
1.14916
1.14336
1.13501
1.12748
1.12421
1.12363
1.12167
1.11789
1.10858
1.0946
1.07638
1.05632
1.03801
1.02181
1.00897
1.0009
0.991507
0.979533
0.546826
0.546868
0.546847
0.54676
0.546753
0.546763
0.546822
0.546933
0.546956
0.546946
0.546945
0.546982
0.547121
0.547362
0.547582
0.547797
0.548299
0.549902
0.554336
0.563525
0.574911
0.581544
0.582978
0.583391
0.583871
0.584362
0.584751
0.585154
0.585574
0.586272
0.58712
0.587703
0.588062
0.5884
0.588811
0.589297
0.589777
0.59028
0.590752
0.591168
0.591753
0.592521
0.59276
0.592936
0.5932
0.614123
0.886612
1.12026
1.14031
1.15619
1.15433
1.15009
1.14614
1.14256
1.14267
1.14299
1.14329
1.14369
1.1467
1.15116
1.15365
1.15292
1.15069
1.14509
1.13632
1.12914
1.12576
1.12354
1.11982
1.11304
1.09997
1.08309
1.06514
1.04691
1.03114
1.01689
1.00552
0.998371
0.98973
0.978419
0.546854
0.546909
0.546901
0.546825
0.546795
0.546803
0.546862
0.546963
0.546982
0.546971
0.546964
0.546989
0.547114
0.547366
0.547603
0.547785
0.548111
0.549103
0.551983
0.55867
0.569546
0.579919
0.583026
0.583347
0.583605
0.584032
0.584475
0.584927
0.585409
0.586102
0.587088
0.587783
0.588106
0.588405
0.588797
0.589274
0.589758
0.590254
0.59082
0.591344
0.591795
0.592535
0.592994
0.593048
0.593201
0.593648
0.602386
0.855374
1.06394
1.15472
1.15035
1.14942
1.14812
1.1429
1.14285
1.14356
1.14297
1.14337
1.14685
1.15178
1.15378
1.15387
1.15232
1.14701
1.13849
1.1304
1.12626
1.12256
1.11617
1.10588
1.0899
1.07183
1.05543
1.03885
1.0246
1.01241
1.00264
0.99616
0.988136
0.97742
0.546876
0.546951
0.54695
0.546891
0.546832
0.546835
0.546889
0.546989
0.547008
0.546996
0.546988
0.547003
0.54711
0.54737
0.547622
0.547784
0.548028
0.548698
0.550561
0.555012
0.563791
0.575825
0.582688
0.583358
0.58354
0.583788
0.584162
0.584642
0.5852
0.585983
0.586974
0.58777
0.58816
0.588482
0.58886
0.589298
0.589752
0.590242
0.590797
0.591428
0.591984
0.592511
0.593011
0.593261
0.593442
0.593854
0.594506
0.594994
0.828811
1.1047
1.13114
1.1515
1.14925
1.14238
1.14224
1.143
1.14199
1.14282
1.14741
1.15255
1.15411
1.15471
1.15369
1.14912
1.14084
1.13286
1.12611
1.12
1.11033
1.09714
1.07992
1.06202
1.04729
1.03236
1.01936
1.00868
0.999921
0.993889
0.986463
0.976392
0.546893
0.546984
0.546998
0.546954
0.546868
0.546861
0.546895
0.547002
0.547038
0.547025
0.547016
0.547024
0.547107
0.54737
0.547633
0.547787
0.547991
0.548514
0.549829
0.552685
0.55872
0.569587
0.58071
0.5835
0.583622
0.583746
0.583968
0.584361
0.584932
0.585823
0.586925
0.587694
0.588147
0.5885
0.588891
0.58933
0.589793
0.59031
0.590818
0.591396
0.59203
0.592576
0.592945
0.593307
0.593699
0.593994
0.594627
0.595042
0.595173
0.803821
1.05019
1.15278
1.1486
1.14012
1.14162
1.14173
1.1401
1.14235
1.14895
1.15337
1.15466
1.15565
1.15488
1.151
1.14396
1.13359
1.12484
1.11567
1.10252
1.08732
1.07108
1.05465
1.04084
1.02657
1.01436
1.00474
0.997082
0.991637
0.984752
0.975317
0.546913
0.547005
0.547037
0.547001
0.546897
0.546876
0.546902
0.547018
0.547073
0.547062
0.547043
0.547045
0.547103
0.547339
0.547627
0.547792
0.547983
0.548432
0.549472
0.551435
0.555255
0.563051
0.575537
0.583121
0.583793
0.583854
0.583948
0.584206
0.5847
0.585552
0.586879
0.587704
0.588087
0.588478
0.588907
0.589326
0.589771
0.590322
0.590975
0.591476
0.592
0.592596
0.593056
0.59327
0.593668
0.594299
0.594649
0.595238
0.595438
0.595559
0.787613
1.08843
1.12487
1.13757
1.14017
1.13978
1.13917
1.14285
1.15068
1.15367
1.15507
1.15631
1.15592
1.15298
1.14499
1.13263
1.12188
1.10944
1.09375
1.07843
1.06368
1.04866
1.03576
1.02202
1.0099
1.00116
0.994852
0.989788
0.983106
0.974267
0.546923
0.54701
0.547061
0.547031
0.54691
0.546881
0.546906
0.54703
0.547105
0.547095
0.547059
0.547058
0.547091
0.547276
0.547586
0.547793
0.547985
0.548399
0.549289
0.550797
0.553313
0.558312
0.5683
0.580091
0.583724
0.584077
0.584112
0.584208
0.584555
0.585299
0.586645
0.587714
0.58806
0.588393
0.588891
0.589348
0.589737
0.590263
0.591041
0.591716
0.592132
0.592546
0.593127
0.59339
0.593641
0.594426
0.595047
0.595304
0.595654
0.596025
0.596297
0.778766
1.05256
1.13525
1.13878
1.13879
1.14013
1.14501
1.15271
1.15466
1.15576
1.1568
1.15657
1.15375
1.14434
1.13014
1.11723
1.1017
1.08462
1.06986
1.05695
1.04279
1.03039
1.01732
1.00639
0.999046
0.993334
0.988011
0.981235
0.973037
0.546916
0.547004
0.54707
0.547044
0.546916
0.546883
0.546909
0.547047
0.547127
0.547117
0.547058
0.547048
0.547068
0.547207
0.547525
0.547789
0.547996
0.548393
0.549206
0.550429
0.552254
0.555547
0.56217
0.572953
0.581671
0.584066
0.584311
0.584324
0.584495
0.585089
0.586289
0.587664
0.588038
0.588357
0.588869
0.58944
0.589865
0.590314
0.591021
0.591796
0.592374
0.592624
0.593027
0.593568
0.593899
0.594498
0.595408
0.595527
0.595671
0.596041
0.596728
0.597108
0.791408
1.08348
1.11424
1.13308
1.14294
1.14805
1.15307
1.1549
1.15668
1.1572
1.15681
1.15351
1.14156
1.12608
1.1109
1.09341
1.07642
1.0617
1.04956
1.03743
1.02581
1.01302
1.00396
0.997792
0.991986
0.986303
0.979258
0.9717
0.546885
0.546976
0.547071
0.547051
0.546935
0.546922
0.546954
0.547082
0.547149
0.547134
0.547053
0.54703
0.547046
0.547151
0.547448
0.547769
0.547999
0.548397
0.549169
0.55023
0.551695
0.554
0.55808
0.565974
0.576604
0.583217
0.584432
0.584436
0.584489
0.58489
0.585844
0.587163
0.588
0.5884
0.588861
0.589423
0.589948
0.590484
0.591153
0.591801
0.592409
0.592813
0.593026
0.593595
0.594149
0.594672
0.595462
0.595864
0.595852
0.596063
0.596698
0.59752
0.597976
0.811513
1.04883
1.12801
1.14424
1.14834
1.15373
1.15621
1.15776
1.15757
1.15698
1.15163
1.13659
1.12001
1.1029
1.085
1.06853
1.0547
1.04321
1.03146
1.02099
1.01004
1.00268
0.996604
0.99016
0.984029
0.977053
0.970388
0.546847
0.546933
0.547067
0.547073
0.547004
0.546965
0.546986
0.547088
0.547169
0.547162
0.547073
0.547025
0.547039
0.547123
0.547373
0.547701
0.547976
0.548365
0.549126
0.55013
0.55142
0.55314
0.555675
0.561085
0.571247
0.581136
0.584363
0.584449
0.584413
0.584672
0.585472
0.586647
0.587718
0.588355
0.588806
0.589383
0.589876
0.590421
0.591222
0.591827
0.59234
0.59297
0.593192
0.593582
0.594258
0.594724
0.595329
0.596094
0.596368
0.596559
0.596913
0.597793
0.598139
0.59886
0.854202
1.08648
1.13513
1.14714
1.15508
1.15803
1.15873
1.15804
1.15649
1.14734
1.12973
1.11172
1.094
1.0764
1.06032
1.04694
1.03626
1.02541
1.01633
1.00754
1.00084
0.994441
0.987673
0.981441
0.974883
0.969174
0.546819
0.546914
0.547088
0.547142
0.547077
0.54699
0.546996
0.547078
0.547185
0.547191
0.547121
0.547039
0.547043
0.547117
0.547324
0.547611
0.547899
0.548302
0.54903
0.550042
0.551265
0.552691
0.554428
0.557907
0.565527
0.576877
0.58396
0.584318
0.584282
0.584541
0.585232
0.586246
0.587409
0.588022
0.588407
0.58909
0.589742
0.590329
0.591172
0.591919
0.592342
0.592978
0.593535
0.593728
0.59439
0.595028
0.595413
0.596075
0.596758
0.597295
0.59768
0.598285
0.59889
0.598912
0.606048
0.890085
1.0709
1.14228
1.15872
1.15849
1.15897
1.15834
1.15417
1.14031
1.1212
1.10245
1.08491
1.06812
1.05372
1.0399
1.02933
1.02001
1.01312
1.00538
0.998087
0.991429
0.984635
0.978932
0.97331
0.96829
0.5468
0.546911
0.547119
0.547203
0.547139
0.547008
0.546988
0.547048
0.547187
0.547224
0.547181
0.54708
0.547068
0.547121
0.547287
0.547539
0.547829
0.548215
0.54889
0.549893
0.551116
0.552412
0.553781
0.556101
0.56077
0.569143
0.580342
0.58371
0.584115
0.584586
0.585201
0.586009
0.587086
0.587694
0.588085
0.588718
0.589546
0.590331
0.591148
0.591966
0.592496
0.593017
0.593802
0.594082
0.594552
0.59525
0.595732
0.596172
0.596858
0.597636
0.598181
0.59865
0.599281
0.599785
0.599905
0.621492
0.954665
1.13617
1.15627
1.15879
1.15831
1.15617
1.14804
1.13091
1.11159
1.09355
1.07602
1.0593
1.0463
1.03346
1.02335
1.01617
1.0103
1.00258
0.994813
0.988074
0.981542
0.977018
0.972559
0.96769
0.546794
0.54691
0.547135
0.547253
0.547199
0.547035
0.546958
0.546987
0.547146
0.547244
0.547236
0.547149
0.54711
0.547142
0.547263
0.547485
0.547777
0.54815
0.54876
0.549692
0.550919
0.552165
0.553377
0.555097
0.55801
0.563296
0.572394
0.580573
0.583642
0.584777
0.585518
0.586017
0.586653
0.587319
0.587862
0.588559
0.589416
0.590267
0.591097
0.591954
0.592616
0.593151
0.593865
0.594459
0.594865
0.595437
0.595954
0.59638
0.596891
0.597619
0.59842
0.598698
0.599229
0.600163
0.60067
0.600665
0.686724
1.05891
1.13501
1.15704
1.15501
1.14973
1.13781
1.12027
1.10237
1.08533
1.06813
1.05254
1.03992
1.02785
1.02017
1.01476
1.00774
0.999227
0.991262
0.98422
0.979081
0.976119
0.972368
0.967284
0.54682
0.546918
0.547137
0.547286
0.547254
0.547085
0.54695
0.546949
0.547058
0.547237
0.547262
0.54723
0.547175
0.547184
0.547261
0.54745
0.547738
0.548107
0.548665
0.549494
0.550667
0.551913
0.553049
0.554477
0.556621
0.559901
0.565817
0.575045
0.581875
0.584614
0.585749
0.586072
0.586484
0.587063
0.587705
0.588476
0.589368
0.590217
0.591007
0.591886
0.592594
0.593139
0.593772
0.594612
0.59518
0.595706
0.596341
0.596994
0.59759
0.597799
0.598444
0.59912
0.59968
0.600467
0.601153
0.60137
0.601344
0.796369
1.07324
1.15513
1.14769
1.13912
1.12459
1.10951
1.09466
1.0772
1.06039
1.04673
1.03517
1.0253
1.01968
1.01338
1.00527
0.995475
0.987004
0.980665
0.977891
0.975728
0.971935
0.966667
0.546837
0.546888
0.547089
0.547307
0.54731
0.547185
0.546983
0.546925
0.54697
0.547169
0.547251
0.547252
0.547229
0.547232
0.547281
0.547428
0.547691
0.548047
0.548596
0.54935
0.550387
0.551627
0.552763
0.554014
0.555815
0.558062
0.561618
0.568625
0.577934
0.583749
0.585753
0.586048
0.586454
0.587001
0.587637
0.588403
0.589322
0.590198
0.590958
0.591782
0.592518
0.593215
0.593898
0.594619
0.595431
0.595942
0.59646
0.5972
0.598189
0.598726
0.599014
0.599781
0.600834
0.601755
0.602052
0.602201
0.601897
0.603138
0.891345
1.12031
1.12832
1.12715
1.11436
1.10083
1.08782
1.07066
1.05419
1.04191
1.0315
1.02377
1.01825
1.01037
1.00137
0.991606
0.983216
0.979289
0.97777
0.975163
0.970946
0.965777
0.54683
0.546851
0.547024
0.54732
0.547392
0.547315
0.547097
0.54692
0.546878
0.546958
0.54714
0.547217
0.547254
0.547268
0.547297
0.547404
0.547622
0.547966
0.54852
0.549264
0.550189
0.55133
0.552474
0.553697
0.555167
0.556961
0.559397
0.563686
0.571025
0.579124
0.584676
0.586071
0.58659
0.587122
0.587666
0.588385
0.589374
0.590207
0.590918
0.591736
0.592461
0.593264
0.594328
0.595082
0.59577
0.596559
0.596763
0.597208
0.598145
0.599242
0.599962
0.600555
0.601411
0.60231
0.602531
0.602643
0.602712
0.601698
0.620863
0.906812
1.07753
1.10961
1.10164
1.09325
1.08172
1.06458
1.05075
1.03953
1.02871
1.02084
1.01506
1.00644
0.997206
0.988771
0.982042
0.979568
0.977295
0.973856
0.969472
0.964731
0.546827
0.546839
0.547005
0.547364
0.547482
0.547433
0.54722
0.546944
0.546809
0.546837
0.547002
0.547178
0.547257
0.547289
0.547306
0.547368
0.547539
0.547869
0.548423
0.549199
0.550097
0.551053
0.552193
0.553445
0.554654
0.556184
0.55816
0.560811
0.565155
0.571983
0.57967
0.584773
0.58666
0.587395
0.58786
0.588477
0.589472
0.590295
0.590944
0.591754
0.592415
0.593127
0.594368
0.595446
0.59598
0.59676
0.5975
0.597993
0.598489
0.599289
0.600253
0.601124
0.601909
0.602435
0.602546
0.602723
0.602885
0.602698
0.600523
0.623637
0.883192
1.06094
1.0862
1.08474
1.07561
1.05951
1.04803
1.03687
1.02592
1.0178
1.01023
1.00056
0.992992
0.987616
0.982149
0.979259
0.975767
0.972025
0.967691
0.963468
0.546854
0.546857
0.547005
0.547396
0.547556
0.54753
0.547348
0.547004
0.546795
0.546801
0.546944
0.547159
0.547274
0.547289
0.547299
0.547329
0.547451
0.547751
0.548307
0.549142
0.550031
0.550845
0.551924
0.553174
0.554317
0.555657
0.55731
0.559241
0.562096
0.566701
0.573512
0.580544
0.585552
0.587454
0.588114
0.588696
0.589553
0.590361
0.590938
0.591737
0.592454
0.593124
0.594216
0.59556
0.596017
0.596638
0.597738
0.59879
0.599744
0.600012
0.600333
0.60122
0.602593
0.603215
0.603401
0.603601
0.603835
0.603505
0.602104
0.600763
0.612856
0.814595
1.0226
1.07125
1.06609
1.05406
1.04551
1.03334
1.02234
1.01329
1.00407
0.994372
0.990411
0.98696
0.981933
0.977915
0.973353
0.969031
0.965499
0.962291
0.546946
0.546928
0.547021
0.547392
0.547598
0.547591
0.547458
0.547101
0.546815
0.546805
0.546932
0.547186
0.547319
0.547323
0.547309
0.547305
0.54737
0.54763
0.548201
0.549065
0.549967
0.55073
0.551667
0.552863
0.554026
0.555275
0.556642
0.558228
0.560516
0.563538
0.568174
0.5746
0.580977
0.586503
0.588219
0.588896
0.589629
0.590363
0.590831
0.591563
0.592488
0.593217
0.594143
0.595556
0.59642
0.596848
0.597731
0.598984
0.600408
0.601335
0.601445
0.601756
0.602945