/*--------------------------------*- C++ -*----------------------------------*\
  =========                 |
  \\      /  F ield         | OpenFOAM: The Open Source CFD Toolbox
   \\    /   O peration     | Website:  https://openfoam.org
    \\  /    A nd           | Version:  7
     \\/     M anipulation  |
\*---------------------------------------------------------------------------*/
FoamFile
{
    version     2.0;
    format      ascii;
    class       volScalarField;
    location    "10";
    object      rho;
}
// * * * * * * * * * * * * * * * * * * * * * * * * * * * * * * * * * * * * * //

dimensions      [1 -3 0 0 0 0 0];

internalField   nonuniform List<scalar> 
90000
(
1.25019
1.25115
1.25282
1.25555
1.25861
1.26241
1.26612
1.27032
1.27418
1.27838
1.2821
1.28612
1.28953
1.29362
1.29752
1.30198
1.30628
1.31139
1.31657
1.32295
1.32942
1.3371
1.34428
1.35216
1.35868
1.36493
1.37037
1.3741
1.37645
1.37905
1.37978
1.37963
1.379
1.37717
1.3727
1.36449
1.35637
1.35056
1.34707
1.34753
1.34921
1.35171
1.35486
1.35749
1.35935
1.36045
1.36043
1.35986
1.35839
1.35568
1.35337
1.35202
1.35218
1.35337
1.35575
1.35923
1.3617
1.36282
1.36212
1.36082
1.35869
1.35801
1.3585
1.36001
1.36216
1.36258
1.36217
1.36085
1.35963
1.3596
1.36015
1.36152
1.36159
1.36131
1.36087
1.36087
1.3614
1.36203
1.36208
1.36169
1.36149
1.36154
1.36168
1.3619
1.36219
1.36259
1.36286
1.36312
1.36336
1.36364
1.36388
1.36396
1.36388
1.36371
1.36373
1.36387
1.3641
1.36432
1.36437
1.3645
1.25027
1.25053
1.25121
1.25231
1.25379
1.25568
1.25795
1.26058
1.26354
1.26682
1.27038
1.27414
1.27816
1.28189
1.28566
1.28937
1.29322
1.29717
1.30138
1.3059
1.31078
1.31624
1.32205
1.32838
1.33513
1.34182
1.3486
1.35526
1.36124
1.3671
1.37076
1.37504
1.37848
1.37832
1.37862
1.3786
1.37822
1.3762
1.37169
1.36613
1.36125
1.35796
1.35646
1.35691
1.35795
1.35941
1.36129
1.36318
1.36544
1.36542
1.36452
1.36235
1.36012
1.35829
1.35847
1.35956
1.36136
1.36374
1.36612
1.36662
1.36577
1.36398
1.36232
1.36237
1.36306
1.36453
1.36587
1.36544
1.36412
1.36279
1.36257
1.36308
1.3641
1.36437
1.3639
1.36341
1.36349
1.36412
1.36455
1.36437
1.3638
1.36353
1.36369
1.36401
1.36415
1.36428
1.36468
1.36494
1.36511
1.36534
1.36555
1.36551
1.36537
1.36515
1.36516
1.36528
1.36547
1.36563
1.36561
1.36574
1.25094
1.25095
1.25097
1.25102
1.2511
1.25125
1.25149
1.25186
1.2524
1.25312
1.25409
1.25529
1.25686
1.25869
1.26083
1.26323
1.26594
1.26892
1.27222
1.27574
1.27965
1.28377
1.28843
1.29334
1.29909
1.3051
1.31197
1.31963
1.32733
1.33586
1.34448
1.35299
1.36067
1.36853
1.37421
1.37905
1.38033
1.38105
1.38087
1.37998
1.37902
1.3766
1.37291
1.36902
1.36624
1.36465
1.36489
1.3655
1.36663
1.36785
1.36894
1.36999
1.36987
1.36858
1.36676
1.36462
1.36471
1.36564
1.36771
1.36965
1.37168
1.37148
1.3699
1.36809
1.36721
1.36784
1.369
1.36995
1.36957
1.36832
1.3671
1.36718
1.36769
1.36828
1.36819
1.36779
1.36756
1.36772
1.36808
1.36805
1.36779
1.36742
1.36725
1.36729
1.36735
1.36751
1.36774
1.36795
1.36812
1.36823
1.36835
1.36833
1.36822
1.36799
1.36783
1.36784
1.36789
1.36802
1.36804
1.36806
1.25219
1.25219
1.25217
1.25215
1.25212
1.25212
1.25213
1.25217
1.25222
1.25228
1.25234
1.25241
1.25253
1.25273
1.25302
1.25346
1.25405
1.25483
1.25583
1.25709
1.2587
1.26061
1.26295
1.2657
1.26906
1.27292
1.27765
1.28283
1.28931
1.29624
1.30445
1.31334
1.32337
1.33361
1.34417
1.35528
1.36345
1.371
1.37562
1.37988
1.3805
1.38049
1.38018
1.37902
1.37765
1.37543
1.37305
1.37095
1.36992
1.37023
1.37092
1.37178
1.37249
1.37265
1.37241
1.37133
1.37017
1.36945
1.36992
1.37103
1.37261
1.37386
1.37488
1.37436
1.3731
1.37174
1.37184
1.37245
1.37335
1.37328
1.37244
1.37138
1.3711
1.3715
1.37215
1.37208
1.37174
1.37147
1.37169
1.37196
1.37186
1.3715
1.37107
1.37106
1.37112
1.37115
1.37126
1.37152
1.37169
1.37173
1.37178
1.37172
1.37158
1.37133
1.37106
1.371
1.371
1.37108
1.37108
1.37102
1.25367
1.25366
1.25366
1.25366
1.25365
1.25365
1.25364
1.25362
1.25358
1.25355
1.25353
1.25352
1.2535
1.25349
1.25351
1.25355
1.25361
1.25368
1.25376
1.25387
1.25402
1.25423
1.25462
1.25522
1.25606
1.25716
1.25865
1.26057
1.26312
1.26629
1.27058
1.27559
1.28221
1.28983
1.29926
1.3096
1.32149
1.334
1.34533
1.3572
1.36544
1.37173
1.37586
1.37871
1.37894
1.3793
1.37894
1.37867
1.37792
1.37694
1.37575
1.3746
1.37392
1.374
1.37424
1.37441
1.37445
1.37415
1.37368
1.3734
1.37356
1.37425
1.37535
1.37613
1.37698
1.37644
1.37551
1.37472
1.37503
1.37546
1.37587
1.37535
1.37459
1.37414
1.37446
1.37504
1.37505
1.3748
1.37462
1.37479
1.37498
1.37483
1.37443
1.37416
1.37419
1.37424
1.37432
1.37449
1.3747
1.37478
1.37477
1.37472
1.37462
1.37444
1.37421
1.374
1.37396
1.374
1.374
1.37393
1.25492
1.25491
1.25491
1.25491
1.25491
1.25491
1.25491
1.25491
1.2549
1.2549
1.25489
1.25487
1.25486
1.25484
1.25482
1.25478
1.25474
1.2547
1.25471
1.25472
1.25476
1.25486
1.25488
1.25491
1.25497
1.25506
1.25518
1.25537
1.25566
1.2561
1.25696
1.25828
1.2602
1.2629
1.26681
1.27192
1.27918
1.28772
1.29912
1.31128
1.32514
1.33891
1.35075
1.36243
1.36906
1.37548
1.3786
1.37952
1.37938
1.37921
1.37878
1.37783
1.37654
1.37609
1.37642
1.37665
1.37661
1.37629
1.37564
1.37493
1.37435
1.37441
1.37489
1.37629
1.37737
1.37784
1.37774
1.37718
1.37658
1.37667
1.37697
1.37721
1.37694
1.37642
1.37607
1.37634
1.3767
1.37687
1.37674
1.37662
1.37677
1.37692
1.37678
1.37644
1.37622
1.37627
1.37638
1.37657
1.37677
1.37693
1.37694
1.37691
1.37684
1.37672
1.37651
1.37627
1.3762
1.37624
1.37627
1.37624
1.25575
1.25575
1.25575
1.25575
1.25575
1.25576
1.25577
1.25577
1.25577
1.25577
1.25577
1.25577
1.25577
1.25578
1.25578
1.25577
1.25576
1.25575
1.25574
1.25573
1.25572
1.25571
1.2557
1.25568
1.25568
1.2557
1.25575
1.25583
1.25594
1.25618
1.25622
1.25628
1.2564
1.25662
1.25703
1.25787
1.25942
1.26183
1.26592
1.27155
1.28004
1.29082
1.3037
1.3185
1.3335
1.34764
1.35768
1.36793
1.37218
1.37606
1.37659
1.37667
1.37749
1.37885
1.37954
1.37935
1.37866
1.37751
1.3765
1.37573
1.3752
1.37525
1.37562
1.37593
1.37663
1.37761
1.37781
1.37815
1.37817
1.378
1.37773
1.37775
1.37781
1.37775
1.37748
1.37725
1.37738
1.37767
1.37795
1.37786
1.37775
1.37785
1.37792
1.37783
1.37756
1.37743
1.3775
1.37768
1.37792
1.37809
1.37813
1.37818
1.37818
1.37814
1.37799
1.37774
1.37764
1.37768
1.37775
1.37777
1.2562
1.2562
1.25621
1.25622
1.25622
1.25623
1.25624
1.25625
1.25626
1.25627
1.25628
1.25629
1.2563
1.25631
1.25632
1.25632
1.25632
1.25633
1.25635
1.25636
1.25637
1.25638
1.25639
1.2564
1.2564
1.25642
1.25643
1.25644
1.25645
1.25648
1.25653
1.2566
1.25668
1.25679
1.25706
1.25707
1.25712
1.25726
1.25758
1.2582
1.25977
1.26247
1.2676
1.2747
1.28587
1.29882
1.31468
1.33116
1.34494
1.35812
1.36628
1.37342
1.37631
1.37845
1.37881
1.37881
1.37851
1.37768
1.37739
1.37764
1.37758
1.37714
1.37643
1.37585
1.37584
1.37626
1.37704
1.37816
1.37871
1.37863
1.3783
1.37805
1.37818
1.37834
1.37827
1.37796
1.37788
1.37802
1.37827
1.37847
1.37841
1.37837
1.37847
1.37851
1.37841
1.37814
1.37814
1.37822
1.37842
1.37869
1.37876
1.3788
1.37889
1.37893
1.37885
1.37863
1.37847
1.37851
1.3786
1.37867
1.25644
1.25645
1.25647
1.25648
1.25649
1.25651
1.25653
1.25654
1.25656
1.25657
1.25659
1.25661
1.25662
1.25664
1.25665
1.25667
1.25669
1.2567
1.25672
1.25675
1.25676
1.25678
1.2568
1.25682
1.25684
1.25686
1.25689
1.25691
1.25693
1.25695
1.25697
1.25699
1.25702
1.25706
1.25711
1.25719
1.25728
1.25738
1.25751
1.25775
1.2578
1.25793
1.2583
1.25926
1.26157
1.26556
1.27311
1.28324
1.29823
1.31403
1.3301
1.34702
1.35727
1.36671
1.3703
1.37386
1.37516
1.37732
1.37894
1.37978
1.3795
1.37878
1.37705
1.37565
1.37542
1.3759
1.37698
1.37784
1.37831
1.37833
1.3783
1.3784
1.3786
1.37865
1.37858
1.37842
1.37831
1.37835
1.3784
1.37855
1.37865
1.37872
1.37882
1.37884
1.37883
1.37869
1.37855
1.37854
1.37861
1.37883
1.37908
1.37918
1.37926
1.37934
1.37931
1.37919
1.37897
1.379
1.37909
1.37917
1.25666
1.25667
1.25669
1.25672
1.25674
1.25676
1.25677
1.2568
1.25682
1.25685
1.25686
1.25688
1.25689
1.25691
1.25694
1.25696
1.25699
1.25702
1.25704
1.25706
1.25708
1.2571
1.25712
1.25714
1.25716
1.25718
1.2572
1.25722
1.25724
1.25725
1.25726
1.25728
1.25729
1.25731
1.25733
1.25735
1.25738
1.25742
1.25747
1.25752
1.25761
1.25772
1.2579
1.25796
1.25807
1.25837
1.25925
1.26117
1.26565
1.27273
1.28494
1.29947
1.31703
1.33482
1.34876
1.36149
1.36901
1.37523
1.37707
1.37832
1.37814
1.37725
1.37675
1.37675
1.37679
1.377
1.37701
1.37711
1.37731
1.37763
1.37809
1.37859
1.37886
1.3787
1.37863
1.3787
1.37877
1.37871
1.37858
1.37861
1.37873
1.37889
1.37906
1.37906
1.37911
1.37909
1.37891
1.37877
1.37875
1.37886
1.37914
1.37938
1.37952
1.37959
1.37959
1.37953
1.37937
1.37934
1.37941
1.37948
1.25695
1.25697
1.25699
1.25702
1.25704
1.25706
1.25708
1.25711
1.25714
1.25716
1.25718
1.25719
1.25721
1.25722
1.25725
1.25729
1.25731
1.25734
1.25736
1.25739
1.2574
1.25741
1.25743
1.25745
1.25746
1.25747
1.25748
1.25749
1.25749
1.25749
1.25749
1.25748
1.25749
1.25749
1.2575
1.25751
1.25751
1.25752
1.25753
1.25755
1.25757
1.2576
1.25765
1.25774
1.25784
1.25797
1.25812
1.25823
1.25852
1.25938
1.26184
1.2665
1.27581
1.28816
1.30542
1.32376
1.33946
1.35514
1.36251
1.37032
1.37229
1.3748
1.37689
1.37892
1.37881
1.3783
1.3774
1.37649
1.37672
1.37722
1.37796
1.37833
1.37855
1.37856
1.37878
1.37913
1.37912
1.37898
1.37877
1.37878
1.37887
1.379
1.37915
1.37926
1.3794
1.37939
1.37927
1.37902
1.37893
1.37899
1.37918
1.37946
1.37969
1.3798
1.37981
1.37979
1.37973
1.37964
1.37968
1.37971
1.25729
1.25732
1.25734
1.25736
1.25738
1.25739
1.25741
1.25743
1.25745
1.25748
1.2575
1.2575
1.25751
1.25753
1.25756
1.25759
1.25761
1.25763
1.25765
1.25767
1.25769
1.2577
1.25772
1.25773
1.25773
1.25773
1.25773
1.25773
1.25773
1.25772
1.2577
1.25768
1.25767
1.25765
1.25764
1.25763
1.25762
1.25761
1.2576
1.2576
1.2576
1.25761
1.25763
1.25767
1.25772
1.2578
1.25789
1.25805
1.25815
1.25816
1.25824
1.25863
1.26
1.26297
1.26991
1.28006
1.29622
1.31409
1.33237
1.35012
1.3609
1.37147
1.37498
1.37767
1.3775
1.37634
1.37607
1.37656
1.37742
1.37814
1.378
1.37776
1.37786
1.37835
1.37904
1.3795
1.37936
1.37914
1.3791
1.3791
1.37911
1.37914
1.37924
1.37947
1.37967
1.37966
1.37955
1.37931
1.37916
1.37919
1.37932
1.37956
1.3798
1.37999
1.38003
1.38004
1.38004
1.38
1.37997
1.37994
1.25767
1.25768
1.2577
1.25772
1.25773
1.25774
1.25775
1.25777
1.25778
1.25781
1.25782
1.25782
1.25782
1.25784
1.25787
1.25789
1.25789
1.25791
1.25793
1.25794
1.25796
1.25797
1.25799
1.25799
1.25799
1.25799
1.25799
1.25799
1.25798
1.25796
1.25794
1.25792
1.2579
1.25787
1.25784
1.25781
1.25779
1.25775
1.25772
1.25769
1.25767
1.25767
1.25769
1.25772
1.25776
1.25783
1.2579
1.25799
1.25809
1.25818
1.2583
1.25827
1.25829
1.25848
1.25921
1.2611
1.26617
1.27448
1.28941
1.30667
1.32595
1.3451
1.35578
1.3667
1.36945
1.37266
1.37545
1.37858
1.37903
1.37887
1.37802
1.37747
1.37777
1.37858
1.37905
1.37936
1.37932
1.37942
1.37963
1.37959
1.37942
1.37939
1.37947
1.37974
1.37996
1.37994
1.37984
1.3797
1.37953
1.3795
1.37956
1.37971
1.37992
1.38016
1.3803
1.38034
1.38039
1.38037
1.3803
1.38021
1.25806
1.25807
1.25808
1.2581
1.2581
1.2581
1.2581
1.25811
1.25812
1.25813
1.25814
1.25814
1.25814
1.25815
1.25817
1.25817
1.25818
1.25818
1.2582
1.25821
1.25822
1.25824
1.25825
1.25825
1.25825
1.25825
1.25826
1.25825
1.25825
1.25824
1.25823
1.25821
1.25818
1.25816
1.25813
1.25809
1.25804
1.25799
1.25794
1.25789
1.25784
1.25781
1.25781
1.25783
1.25786
1.25792
1.25798
1.25804
1.25812
1.25821
1.25832
1.25838
1.25841
1.25839
1.25835
1.25839
1.2588
1.2601
1.26398
1.27099
1.28465
1.3014
1.32173
1.34189
1.35558
1.36906
1.37344
1.37743
1.37758
1.3771
1.3769
1.37764
1.37857
1.37899
1.37893
1.37892
1.37921
1.37981
1.38016
1.38002
1.37978
1.37977
1.37989
1.38005
1.38019
1.38015
1.38012
1.3801
1.38002
1.3799
1.37992
1.37996
1.38009
1.38032
1.38056
1.3807
1.38077
1.38075
1.38068
1.38053
1.25852
1.25852
1.25853
1.25853
1.25853
1.25853
1.25852
1.25851
1.25851
1.25851
1.25851
1.25851
1.25851
1.25851
1.25851
1.25852
1.25851
1.25851
1.25851
1.25852
1.25852
1.25853
1.25853
1.25853
1.25854
1.25854
1.25855
1.25855
1.25856
1.25856
1.25855
1.25855
1.25854
1.25852
1.25849
1.25846
1.25841
1.25836
1.2583
1.25823
1.25815
1.25808
1.25803
1.25802
1.25802
1.25804
1.25807
1.25811
1.25817
1.25826
1.25838
1.25849
1.25856
1.25856
1.25856
1.25853
1.2584
1.25839
1.25866
1.25965
1.2628
1.26895
1.28179
1.29802
1.31878
1.33986
1.35254
1.36523
1.36893
1.3732
1.37686
1.37966
1.37962
1.37909
1.37833
1.37854
1.37951
1.38013
1.38027
1.38024
1.38028
1.38042
1.38051
1.38045
1.38038
1.38036
1.38045
1.38053
1.3805
1.38042
1.38035
1.38031
1.38036
1.38053
1.38081
1.38107
1.38117
1.38116
1.38109
1.38091
1.25899
1.25899
1.25898
1.25898
1.25897
1.25896
1.25895
1.25894
1.25893
1.25892
1.25892
1.25891
1.2589
1.25889
1.25889
1.25889
1.25888
1.25887
1.25886
1.25886
1.25886
1.25885
1.25884
1.25884
1.25884
1.25883
1.25883
1.25884
1.25886
1.25889
1.2589
1.25891
1.25891
1.25891
1.25889
1.25887
1.25884
1.25879
1.25873
1.25865
1.25857
1.25848
1.25839
1.2583
1.25823
1.25818
1.25817
1.25819
1.25822
1.25829
1.2584
1.25856
1.2587
1.25878
1.25879
1.25878
1.25871
1.25859
1.25845
1.25847
1.25872
1.25959
1.2624
1.26807
1.28032
1.29651
1.31796
1.33945
1.35496
1.36937
1.37464
1.37842
1.3782
1.37712
1.37766
1.37897
1.38003
1.38011
1.38012
1.38027
1.38081
1.38108
1.38097
1.38072
1.38056
1.38064
1.3808
1.38092
1.38091
1.38091
1.38082
1.38068
1.38068
1.3808
1.38106
1.3814
1.38155
1.38157
1.38151
1.38132
1.25946
1.25945
1.25944
1.25943
1.25942
1.2594
1.25939
1.25938
1.25936
1.25935
1.25933
1.25932
1.2593
1.25928
1.25927
1.25926
1.25924
1.25923
1.25922
1.2592
1.25919
1.25918
1.25917
1.25916
1.25915
1.25914
1.25914
1.25914
1.25916
1.25919
1.25921
1.25924
1.25927
1.25929
1.25928
1.25927
1.25925
1.25922
1.25916
1.2591
1.25902
1.25892
1.2588
1.25867
1.25852
1.25839
1.2583
1.25828
1.25829
1.25833
1.25843
1.25857
1.25875
1.25894
1.25906
1.25909
1.25907
1.25899
1.25881
1.25867
1.25864
1.25871
1.25903
1.25992
1.26253
1.26792
1.28003
1.2963
1.31825
1.3402
1.35351
1.36695
1.3703
1.37467
1.37872
1.38016
1.37999
1.3795
1.37978
1.38049
1.38131
1.38142
1.38128
1.3809
1.38092
1.38103
1.3811
1.38119
1.3813
1.38134
1.38128
1.38109
1.38104
1.38112
1.38132
1.38163
1.38189
1.38193
1.38188
1.38171
1.25987
1.25986
1.25985
1.25984
1.25983
1.25982
1.2598
1.25979
1.25977
1.25975
1.25973
1.25971
1.25969
1.25966
1.25963
1.25961
1.25958
1.25956
1.25953
1.25951
1.25948
1.25946
1.25944
1.25943
1.25941
1.2594
1.25939
1.25939
1.25938
1.25939
1.25942
1.25946
1.25949
1.25952
1.25956
1.25958
1.25958
1.25956
1.25953
1.25949
1.25945
1.25938
1.25927
1.25912
1.25894
1.25874
1.25856
1.25846
1.25844
1.25845
1.2585
1.25861
1.25879
1.25901
1.25924
1.2594
1.25942
1.2594
1.25929
1.25907
1.2589
1.25888
1.25894
1.25915
1.25957
1.26041
1.26282
1.26811
1.28051
1.29769
1.3203
1.34302
1.35873
1.37204
1.37623
1.37889
1.37764
1.37812
1.37951
1.38089
1.38136
1.38129
1.38107
1.38118
1.38145
1.38144
1.38134
1.38138
1.38155
1.38166
1.3816
1.38148
1.38141
1.38148
1.3816
1.3818
1.38209
1.38225
1.38219
1.38203
1.26019
1.26018
1.26018
1.26017
1.26016
1.26015
1.26014
1.26012
1.26011
1.26009
1.26007
1.26004
1.26002
1.25999
1.25995
1.25991
1.25988
1.25984
1.25979
1.25975
1.25971
1.25967
1.25962
1.25958
1.25955
1.25954
1.25954
1.25953
1.25954
1.25956
1.25958
1.2596
1.25963
1.25967
1.25971
1.25977
1.2598
1.25978
1.25977
1.25978
1.25977
1.25975
1.25968
1.25957
1.25943
1.25924
1.25901
1.25881
1.2587
1.25868
1.2587
1.25875
1.25887
1.25906
1.25932
1.25957
1.25972
1.25972
1.25966
1.2595
1.25926
1.25906
1.25905
1.2591
1.25935
1.25971
1.26001
1.26066
1.26303
1.26879
1.28237
1.30068
1.32352
1.34672
1.35773
1.36892
1.37257
1.37746
1.38102
1.381
1.38064
1.38044
1.38078
1.38156
1.38183
1.38173
1.38153
1.3816
1.38175
1.38185
1.38182
1.38178
1.38181
1.38181
1.38183
1.38192
1.38215
1.38239
1.38242
1.38232
1.26038
1.26038
1.26038
1.26038
1.26037
1.26036
1.26036
1.26035
1.26033
1.26032
1.2603
1.26028
1.26025
1.26023
1.26019
1.26016
1.26011
1.26007
1.26002
1.25997
1.25991
1.25983
1.25976
1.2597
1.25964
1.2596
1.25958
1.25955
1.25953
1.25949
1.25946
1.25944
1.25943
1.25943
1.25946
1.25951
1.25959
1.2597
1.25982
1.25989
1.25994
1.25995
1.25996
1.25995
1.2599
1.25981
1.25965
1.25944
1.25921
1.25907
1.25903
1.25904
1.25909
1.25919
1.25937
1.25961
1.25986
1.25996
1.25994
1.25984
1.25963
1.25932
1.25914
1.25913
1.25922
1.25946
1.25989
1.26002
1.26013
1.26078
1.2637
1.27043
1.28547
1.30547
1.32842
1.351
1.36544
1.37521
1.37902
1.37895
1.37839
1.37957
1.38114
1.38185
1.38178
1.38157
1.38167
1.38193
1.38193
1.38188
1.38192
1.38205
1.38217
1.38212
1.38202
1.38204
1.38214
1.38235
1.38253
1.38249
1.26042
1.26043
1.26043
1.26043
1.26043
1.26043
1.26042
1.26042
1.26042
1.26041
1.26039
1.26038
1.26037
1.26035
1.26033
1.26031
1.26027
1.26023
1.26019
1.26014
1.26008
1.26002
1.25995
1.25988
1.2598
1.25971
1.25961
1.25952
1.25946
1.25943
1.25941
1.25938
1.25935
1.25933
1.25933
1.25934
1.25937
1.25943
1.25953
1.25965
1.25979
1.25992
1.26003
1.26012
1.26019
1.26021
1.2602
1.26011
1.25993
1.25969
1.25949
1.2594
1.2594
1.25943
1.25951
1.25969
1.25995
1.26012
1.26015
1.2601
1.25997
1.25969
1.25934
1.25919
1.25921
1.25933
1.25965
1.26
1.26021
1.26014
1.26029
1.26121
1.2649
1.27289
1.28972
1.31094
1.33327
1.35495
1.36374
1.37149
1.37607
1.38122
1.3818
1.38155
1.38102
1.38128
1.38193
1.38214
1.382
1.38185
1.38198
1.3823
1.38234
1.38229
1.3822
1.38215
1.38216
1.38224
1.38246
1.38259
1.26034
1.26036
1.26037
1.26038
1.26039
1.26039
1.2604
1.2604
1.26039
1.26039
1.26038
1.26038
1.26039
1.2604
1.26039
1.26039
1.26037
1.26035
1.26032
1.26029
1.26027
1.26024
1.2602
1.26014
1.26007
1.25997
1.25985
1.25971
1.25957
1.25947
1.25939
1.25934
1.2593
1.25926
1.25925
1.25925
1.25928
1.25932
1.25938
1.25946
1.25958
1.25973
1.2599
1.26007
1.26024
1.26039
1.26045
1.26045
1.26043
1.2603
1.26006
1.25982
1.25966
1.25961
1.25961
1.25964
1.25978
1.26008
1.26031
1.26031
1.26025
1.26009
1.25978
1.25943
1.25932
1.25936
1.25954
1.25988
1.26019
1.26027
1.26023
1.26015
1.26045
1.26178
1.26663
1.27598
1.29519
1.31815
1.34046
1.36271
1.37239
1.37899
1.37951
1.37877
1.37992
1.38154
1.38209
1.38198
1.38165
1.38178
1.38219
1.38246
1.38239
1.38236
1.38231
1.38223
1.38217
1.38219
1.3823
1.38256
1.2598
1.25984
1.25988
1.25993
1.25999
1.26005
1.26012
1.26019
1.26025
1.26031
1.26035
1.26038
1.2604
1.26042
1.26044
1.26044
1.26044
1.26046
1.26047
1.26048
1.2605
1.2605
1.26049
1.26048
1.26044
1.26038
1.2603
1.2602
1.26006
1.2599
1.25973
1.25958
1.25947
1.25939
1.25934
1.25931
1.2593
1.25931
1.25933
1.25937
1.25943
1.25951
1.25966
1.25987
1.26011
1.26034
1.26051
1.26056
1.26056
1.26054
1.26045
1.26025
1.26
1.25975
1.25965
1.25964
1.25968
1.25983
1.26012
1.2604
1.26045
1.26041
1.26026
1.25997
1.25965
1.25956
1.25961
1.25983
1.26015
1.26031
1.26031
1.26026
1.2601
1.26016
1.26067
1.26251
1.26876
1.28041
1.30241
1.32691
1.34642
1.36412
1.36963
1.37542
1.38127
1.38188
1.38166
1.38103
1.38131
1.3821
1.38244
1.3824
1.38235
1.38241
1.38239
1.3823
1.38219
1.38214
1.38224
1.3825
1.25949
1.25951
1.25954
1.25957
1.25962
1.25968
1.25974
1.2598
1.25988
1.25995
1.26002
1.26009
1.26016
1.26023
1.26031
1.26041
1.26051
1.2606
1.26066
1.26069
1.26072
1.26074
1.26075
1.26077
1.26077
1.26076
1.26074
1.26071
1.26066
1.26059
1.26049
1.26035
1.2602
1.26005
1.2599
1.25976
1.25962
1.25952
1.25944
1.2594
1.2594
1.25941
1.25946
1.25958
1.25976
1.25998
1.26022
1.2604
1.26048
1.26048
1.26048
1.26044
1.26031
1.26006
1.25978
1.25966
1.25966
1.25974
1.25992
1.26016
1.26042
1.26053
1.26053
1.26045
1.26022
1.25996
1.25988
1.25991
1.26009
1.26029
1.26033
1.26029
1.26016
1.26001
1.26
1.26014
1.26093
1.26364
1.27223
1.28711
1.31132
1.33682
1.35653
1.3724
1.37843
1.37982
1.37872
1.37987
1.3816
1.38243
1.38234
1.38213
1.38227
1.38243
1.3824
1.3823
1.38217
1.38214
1.38219
1.38242
1.25952
1.25954
1.25956
1.25958
1.25962
1.25966
1.2597
1.25974
1.25978
1.25983
1.25988
1.25993
1.25999
1.26006
1.26014
1.26023
1.26032
1.26042
1.26052
1.26061
1.2607
1.26078
1.26084
1.26088
1.2609
1.26093
1.26095
1.26096
1.26096
1.26096
1.26095
1.26092
1.26085
1.26074
1.2606
1.26044
1.26025
1.26005
1.2598
1.25958
1.25946
1.25943
1.25943
1.25944
1.25948
1.25955
1.25966
1.25982
1.26003
1.26028
1.26045
1.26048
1.26047
1.26037
1.26018
1.25995
1.25981
1.2598
1.25984
1.25998
1.2602
1.26046
1.26058
1.26059
1.26054
1.26038
1.26018
1.2601
1.26012
1.26025
1.26035
1.26033
1.26022
1.26005
1.25996
1.25996
1.26
1.26027
1.26162
1.26585
1.27752
1.29596
1.32104
1.3468
1.35919
1.36987
1.3753
1.38147
1.38234
1.38212
1.38162
1.38187
1.38232
1.38241
1.38234
1.38227
1.38217
1.38216
1.38219
1.38239
1.25972
1.25972
1.25972
1.25972
1.25973
1.25974
1.25974
1.25975
1.25977
1.25979
1.25982
1.25986
1.25991
1.25995
1.25999
1.26003
1.26007
1.26013
1.26019
1.26026
1.26034
1.26041
1.26048
1.26055
1.26063
1.26071
1.26078
1.26084
1.26089
1.26093
1.26095
1.26096
1.26096
1.26093
1.26085
1.26075
1.26064
1.26049
1.26029
1.26004
1.25981
1.25961
1.25949
1.25945
1.25944
1.25943
1.25946
1.25953
1.25967
1.25991
1.26022
1.26049
1.26057
1.26057
1.26053
1.26045
1.26031
1.26013
1.26
1.25996
1.26003
1.26019
1.2604
1.26054
1.26055
1.26051
1.26039
1.26023
1.26019
1.26021
1.2603
1.26037
1.26033
1.2602
1.26003
1.25998
1.26001
1.26007
1.26018
1.26066
1.26298
1.26918
1.28483
1.30706
1.33168
1.35749
1.37068
1.37948
1.37989
1.37957
1.38062
1.38204
1.38231
1.38222
1.38209
1.38221
1.38222
1.3822
1.38224
1.38242
1.26026
1.26022
1.26018
1.26015
1.26012
1.26008
1.26004
1.26001
1.25997
1.25994
1.25992
1.2599
1.25988
1.25987
1.25986
1.25985
1.25984
1.25984
1.25985
1.25984
1.25982
1.2598
1.25979
1.2598
1.25984
1.25991
1.26
1.2601
1.26021
1.26032
1.26044
1.26055
1.26065
1.26072
1.26075
1.26075
1.26071
1.26064
1.26053
1.26042
1.26032
1.26019
1.26004
1.25985
1.25966
1.25957
1.25955
1.25957
1.2597
1.2599
1.26012
1.26036
1.2606
1.26071
1.26071
1.26071
1.26068
1.26057
1.26036
1.26013
1.26003
1.26003
1.2601
1.26023
1.26037
1.26042
1.26039
1.26032
1.26024
1.26023
1.26026
1.26033
1.26036
1.26035
1.26026
1.26015
1.26012
1.26013
1.26021
1.26023
1.26036
1.26121
1.26516
1.2744
1.29466
1.3196
1.34209
1.36343
1.36936
1.37634
1.38168
1.38216
1.38187
1.38157
1.38192
1.38223
1.3822
1.38221
1.38234
1.38248
1.26077
1.26075
1.26071
1.26068
1.26064
1.26059
1.26054
1.26047
1.2604
1.26032
1.26024
1.26016
1.26008
1.25998
1.25989
1.25981
1.25973
1.25967
1.25961
1.25957
1.25952
1.25948
1.25945
1.25945
1.25945
1.25946
1.25948
1.25952
1.25958
1.25966
1.25977
1.2599
1.26002
1.26014
1.26024
1.26033
1.26044
1.26054
1.26058
1.26065
1.2607
1.26072
1.2607
1.26059
1.26042
1.26027
1.26013
1.26002
1.26002
1.26008
1.26018
1.26026
1.26038
1.26056
1.26073
1.26079
1.26079
1.26074
1.26058
1.26038
1.26016
1.26002
1.26
1.26001
1.26007
1.26019
1.2603
1.26036
1.26038
1.26035
1.26032
1.26033
1.26037
1.26039
1.26038
1.26034
1.26028
1.26024
1.26024
1.26025
1.2602
1.26021
1.26056
1.26232
1.26908
1.28246
1.30676
1.33371
1.35593
1.37281
1.37949
1.37959
1.37966
1.3808
1.38214
1.38215
1.38206
1.38226
1.38248
1.38246
1.26108
1.26106
1.26104
1.261
1.26095
1.26089
1.26082
1.26076
1.2607
1.26064
1.26058
1.26052
1.26046
1.2604
1.26033
1.26024
1.26014
1.26004
1.25994
1.25987
1.25981
1.25976
1.25973
1.25968
1.25962
1.25957
1.25956
1.25956
1.25956
1.25956
1.25959
1.25965
1.25974
1.25983
1.25991
1.26004
1.26026
1.26044
1.26057
1.26072
1.26084
1.26088
1.26087
1.26082
1.26076
1.26077
1.26077
1.26074
1.26068
1.26055
1.26035
1.26027
1.26026
1.26028
1.26036
1.26044
1.26049
1.26051
1.26052
1.2605
1.26039
1.26019
1.26004
1.26002
1.26003
1.26007
1.26016
1.26034
1.2605
1.26053
1.2605
1.2604
1.26034
1.26034
1.26038
1.2604
1.26039
1.26035
1.26033
1.26031
1.26027
1.26023
1.26022
1.26031
1.26123
1.26474
1.27532
1.29367
1.32054
1.3468
1.36153
1.37103
1.37767
1.38206
1.38198
1.38156
1.3819
1.38251
1.38257
1.38244
1.26088
1.2609
1.26093
1.26096
1.26098
1.26098
1.26093
1.2609
1.2609
1.26089
1.26089
1.26086
1.26082
1.26081
1.26078
1.26077
1.26077
1.26077
1.26077
1.2608
1.26086
1.26092
1.26096
1.26097
1.26097
1.26092
1.26079
1.26065
1.26051
1.26035
1.26014
1.25999
1.25995
1.25994
1.25997
1.26011
1.26035
1.26043
1.26052
1.26067
1.26071
1.26072
1.26074
1.26071
1.26068
1.2607
1.26085
1.26096
1.26096
1.2609
1.26066
1.26036
1.26023
1.26019
1.26015
1.26007
1.26
1.26001
1.2601
1.26031
1.26048
1.2605
1.26046
1.26036
1.26021
1.26014
1.26016
1.26028
1.26051
1.26063
1.26063
1.26053
1.26035
1.26028
1.26029
1.26035
1.2604
1.2604
1.26039
1.26039
1.26037
1.26033
1.26033
1.26037
1.26044
1.26082
1.26286
1.26884
1.2849
1.30816
1.3346
1.36172
1.37334
1.38032
1.37896
1.38012
1.3819
1.38254
1.38245
1.38219
1.26071
1.2607
1.26071
1.26075
1.26079
1.26077
1.26074
1.26075
1.26074
1.26071
1.26074
1.2608
1.26081
1.26081
1.26081
1.26086
1.26094
1.261
1.26108
1.2612
1.26136
1.26153
1.26174
1.26195
1.26201
1.26201
1.26199
1.26191
1.26171
1.26144
1.2612
1.26103
1.26087
1.2607
1.26056
1.26054
1.26057
1.26058
1.26057
1.26057
1.26049
1.26028
1.26006
1.26001
1.26
1.26009
1.2604
1.26078
1.26095
1.26095
1.26085
1.2607
1.26058
1.26049
1.26035
1.26009
1.25985
1.25981
1.25987
1.26004
1.26034
1.26066
1.2608
1.2608
1.2607
1.26042
1.26024
1.26025
1.26038
1.2606
1.26067
1.26061
1.26041
1.26027
1.26026
1.26028
1.26038
1.26046
1.26048
1.26049
1.26049
1.26048
1.26047
1.26048
1.26053
1.26057
1.26072
1.26155
1.26567
1.27566
1.29765
1.32537
1.3467
1.36666
1.37231
1.37978
1.38215
1.38197
1.38154
1.38197
1.26027
1.26026
1.26026
1.26027
1.26026
1.26017
1.26013
1.2601
1.26004
1.26003
1.26005
1.26003
1.25998
1.26
1.2601
1.26028
1.26038
1.26046
1.26058
1.26078
1.26104
1.26133
1.26157
1.26173
1.26183
1.2619
1.2619
1.26184
1.26168
1.26151
1.26151
1.26151
1.26141
1.26127
1.26115
1.26109
1.26107
1.26102
1.26088
1.26065
1.2604
1.26003
1.25965
1.2595
1.25949
1.25953
1.25968
1.25993
1.26024
1.26055
1.26084
1.26107
1.26116
1.26116
1.26107
1.26079
1.26033
1.25999
1.25996
1.26004
1.26024
1.26061
1.26093
1.26099
1.26095
1.26076
1.26044
1.26029
1.2603
1.26038
1.26052
1.26056
1.2605
1.26036
1.26029
1.2603
1.26038
1.26051
1.26061
1.26063
1.26062
1.26061
1.26059
1.2606
1.26061
1.26061
1.26058
1.26059
1.26097
1.26304
1.27088
1.28679
1.31323
1.34215
1.36327
1.37706
1.37973
1.37892
1.38028
1.38218
1.25967
1.25956
1.25947
1.25939
1.25932
1.25924
1.25917
1.25904
1.25896
1.25896
1.25895
1.25892
1.25889
1.25882
1.25882
1.25889
1.25891
1.25892
1.259
1.25915
1.25933
1.25953
1.25971
1.2599
1.26014
1.26034
1.26048
1.26057
1.26062
1.26068
1.26076
1.26084
1.26092
1.26096
1.26097
1.261
1.26104
1.26109
1.26106
1.2609
1.26054
1.26006
1.25972
1.25954
1.25951
1.25957
1.25964
1.25974
1.25994
1.26018
1.26048
1.26091
1.26133
1.26146
1.26145
1.26137
1.26119
1.2609
1.26058
1.26037
1.26034
1.26042
1.26064
1.26086
1.26091
1.26086
1.26071
1.26053
1.26037
1.26034
1.26035
1.26043
1.26054
1.26055
1.2605
1.26045
1.26046
1.26057
1.26072
1.26076
1.26075
1.26071
1.26067
1.26067
1.26067
1.26065
1.26059
1.26049
1.26049
1.26066
1.26189
1.26653
1.28005
1.30194
1.33043
1.35631
1.36643
1.37469
1.38146
1.38222
1.25994
1.25975
1.25962
1.25954
1.25947
1.25939
1.25931
1.25921
1.25911
1.25899
1.25892
1.25888
1.25883
1.25875
1.2587
1.25874
1.25879
1.25877
1.25884
1.25891
1.25891
1.25887
1.25881
1.25882
1.25888
1.25895
1.25908
1.25928
1.2595
1.25963
1.2597
1.25975
1.2598
1.25986
1.25995
1.26009
1.26037
1.26069
1.26091
1.26104
1.26106
1.26096
1.26094
1.26095
1.26093
1.26083
1.26051
1.26006
1.2599
1.26
1.26021
1.26037
1.26058
1.26085
1.26104
1.26114
1.26125
1.26132
1.26128
1.26109
1.26075
1.26044
1.26032
1.26032
1.2604
1.26065
1.26089
1.26091
1.26084
1.26059
1.26043
1.26045
1.26057
1.26072
1.26074
1.26068
1.26063
1.26066
1.26078
1.26084
1.26083
1.26076
1.2607
1.26067
1.26065
1.26061
1.26055
1.26049
1.26046
1.26048
1.26059
1.26122
1.2644
1.27306
1.29397
1.32035
1.34808
1.37019
1.37848
1.37992
1.26206
1.26215
1.26225
1.26234
1.26244
1.26258
1.26276
1.26284
1.26282
1.26274
1.26264
1.26258
1.26257
1.2625
1.26242
1.26237
1.26231
1.26224
1.26214
1.26187
1.26127
1.26033
1.25957
1.25941
1.25942
1.25945
1.25962
1.25993
1.26009
1.26012
1.26012
1.26005
1.25969
1.25944
1.2594
1.2594
1.2595
1.25978
1.26026
1.26082
1.26111
1.26128
1.26145
1.26164
1.26188
1.2619
1.2617
1.26131
1.26072
1.26006
1.25982
1.25978
1.25964
1.25957
1.25959
1.2598
1.26037
1.26106
1.26132
1.26129
1.26111
1.26069
1.26021
1.26004
1.26006
1.26022
1.26071
1.26115
1.26121
1.26112
1.26084
1.26064
1.26067
1.26083
1.26092
1.2609
1.26082
1.2608
1.26087
1.26092
1.26089
1.26078
1.26066
1.26062
1.26061
1.26058
1.26056
1.26054
1.26052
1.26053
1.26061
1.26071
1.26107
1.26275
1.26924
1.28428
1.31166
1.33963
1.35828
1.37311
1.26778
1.26787
1.26804
1.26821
1.2684
1.26854
1.26849
1.26822
1.26798
1.26794
1.26789
1.26773
1.26757
1.26749
1.26751
1.26757
1.26742
1.26726
1.26718
1.26708
1.26672
1.26558
1.26482
1.26471
1.2645
1.2639
1.26349
1.2635
1.26346
1.26321
1.26273
1.2621
1.26132
1.26052
1.26
1.25975
1.25965
1.25972
1.26006
1.26045
1.26085
1.26115
1.26113
1.26117
1.26145
1.26155
1.26146
1.26137
1.26126
1.26104
1.26059
1.26015
1.25975
1.25929
1.25915
1.2592
1.25947
1.25998
1.2605
1.26087
1.261
1.26101
1.26078
1.26027
1.25998
1.26004
1.26031
1.26078
1.26121
1.2613
1.26128
1.26107
1.26083
1.26081
1.26091
1.26103
1.26103
1.26097
1.26092
1.26091
1.26089
1.2608
1.26067
1.2606
1.26059
1.26061
1.26064
1.26066
1.26066
1.26068
1.26071
1.2607
1.26072
1.26083
1.26175
1.26587
1.27843
1.30099
1.33001
1.36355
1.27332
1.2734
1.27333
1.27293
1.27241
1.2715
1.27019
1.26992
1.26972
1.26912
1.26855
1.26834
1.26825
1.26815
1.26807
1.26805
1.26831
1.26859
1.26845
1.26834
1.26852
1.26895
1.26972
1.27032
1.27039
1.27023
1.27002
1.27026
1.27038
1.26988
1.26921
1.26866
1.26787
1.26681
1.26571
1.26466
1.26368
1.26296
1.26281
1.26284
1.26269
1.26245
1.26201
1.26162
1.26148
1.26141
1.26152
1.26198
1.26235
1.26268
1.26286
1.26279
1.26246
1.26171
1.26066
1.25999
1.25993
1.25996
1.26005
1.2602
1.26061
1.26121
1.26143
1.26137
1.26095
1.26034
1.26018
1.26028
1.26064
1.26115
1.26132
1.26127
1.26101
1.26075
1.26073
1.26087
1.26104
1.26106
1.26101
1.26094
1.26088
1.2608
1.2607
1.26066
1.26069
1.26077
1.26085
1.26086
1.26084
1.26079
1.26069
1.26059
1.26053
1.26052
1.26061
1.26119
1.26398
1.2734
1.29208
1.33193
1.2984
1.2976
1.29678
1.2957
1.29442
1.29295
1.29138
1.29004
1.28902
1.28756
1.28636
1.28621
1.28592
1.28501
1.28401
1.28346
1.28273
1.28234