/*--------------------------------*- C++ -*----------------------------------*\
  =========                 |
  \\      /  F ield         | OpenFOAM: The Open Source CFD Toolbox
   \\    /   O peration     | Website:  https://openfoam.org
    \\  /    A nd           | Version:  7
     \\/     M anipulation  |
\*---------------------------------------------------------------------------*/
FoamFile
{
    version     2.0;
    format      ascii;
    class       volScalarField;
    location    "6";
    object      T;
}
// * * * * * * * * * * * * * * * * * * * * * * * * * * * * * * * * * * * * * //

dimensions      [0 0 0 1 0 0 0];

internalField   nonuniform List<scalar> 
57600
(
0.893715
0.903014
0.912641
0.921688
0.930225
0.938161
0.945769
0.952892
0.959832
0.966324
0.972735
0.978673
0.984604
0.989992
0.99542
1.00021
1.00506
1.00915
1.0133
1.01657
1.01988
1.02217
1.02443
1.0257
1.02668
1.02682
1.02665
1.02601
1.02457
1.02324
1.02093
1.01886
1.01861
1.0188
1.01936
1.01995
1.0204
1.02094
1.02156
1.02151
1.02115
1.02032
1.01946
1.01884
1.01874
1.01903
1.0198
1.02096
1.02094
1.02069
1.01994
1.01932
1.01892
1.01909
1.0196
1.01958
1.01931
1.0188
1.01825
1.01823
1.01836
1.01844
1.01824
1.01798
1.0178
1.0178
1.01772
1.01757
1.01742
1.01733
1.01725
1.01724
1.01734
1.01734
1.01729
1.01715
1.01697
1.01674
1.01655
1.01635
0.885755
0.886237
0.887181
0.888664
0.890677
0.893281
0.896403
0.900132
0.904307
0.909085
0.91421
0.919913
0.925805
0.93221
0.938617
0.945431
0.952076
0.958944
0.965535
0.972082
0.978343
0.984199
0.989885
0.994753
0.999546
1.00316
1.00669
1.0091
1.01098
1.01277
1.01624
1.01867
1.0201
1.02107
1.02179
1.02166
1.02101
1.02055
1.01977
1.01883
1.0184
1.01808
1.01798
1.01818
1.01869
1.01936
1.0194
1.01933
1.01905
1.01866
1.01836
1.01821
1.01837
1.0187
1.01863
1.01834
1.01806
1.01772
1.01774
1.01783
1.01777
1.0176
1.01737
1.01732
1.01731
1.01721
1.0171
1.01701
1.01694
1.01686
1.01678
1.01682
1.01684
1.01687
1.01686
1.01676
1.01662
1.0164
1.01622
1.01605
0.884745
0.884718
0.884687
0.88466
0.884635
0.884642
0.884676
0.884776
0.884967
0.88529
0.885776
0.886506
0.887514
0.888938
0.89079
0.89331
0.896411
0.900473
0.905213
0.911195
0.917795
0.925741
0.934082
0.943552
0.953166
0.963181
0.973179
0.982454
0.992141
0.999535
1.00569
1.00909
1.01127
1.01266
1.01383
1.01428
1.01452
1.01395
1.01265
1.01287
1.01345
1.01449
1.01582
1.0168
1.01709
1.01687
1.01616
1.01526
1.0147
1.01473
1.0154
1.01628
1.01647
1.01621
1.0157
1.01516
1.01531
1.01578
1.01601
1.01582
1.0155
1.01526
1.01544
1.01561
1.01554
1.0154
1.01537
1.01539
1.01536
1.01531
1.0153
1.01536
1.01545
1.01551
1.01551
1.01547
1.01537
1.01522
1.01511
1.01502
0.883415
0.883382
0.883344
0.8833
0.883258
0.883219
0.883184
0.883133
0.883082
0.883035
0.88299
0.882948
0.882911
0.882867
0.882866
0.882891
0.883001
0.883236
0.883635
0.884311
0.885334
0.886979
0.889282
0.892809
0.897364
0.903887
0.911584
0.921544
0.932527
0.944915
0.957152
0.968219
0.978601
0.985661
0.992881
0.996468
1.00035
1.00209
1.00486
1.00756
1.01087
1.01283
1.01432
1.01429
1.01403
1.0131
1.01185
1.01053
1.01065
1.01164
1.01275
1.01349
1.01329
1.01252
1.01169
1.01181
1.0124
1.01305
1.01309
1.01274
1.01232
1.01243
1.01271
1.01287
1.01278
1.01271
1.01275
1.01282
1.01287
1.0129
1.01298
1.01313
1.01324
1.01329
1.01332
1.01335
1.01332
1.01328
1.01325
1.01326
0.882005
0.881984
0.881962
0.881939
0.881914
0.881888
0.881861
0.881831
0.881794
0.881755
0.881715
0.881675
0.881636
0.881599
0.881564
0.881541
0.881495
0.881451
0.881406
0.881367
0.881323
0.881323
0.88135
0.881447
0.881718
0.882298
0.883299
0.885194
0.888078
0.893128
0.899874
0.910225
0.922002
0.936573
0.951127
0.965192
0.978358
0.988271
0.997809
1.00205
1.00513
1.00684
1.0087
1.0086
1.00762
1.00642
1.0069
1.00797
1.00922
1.01024
1.01006
1.00973
1.00914
1.00879
1.00901
1.0097
1.01013
1.01011
1.00991
1.00969
1.00974
1.00994
1.01004
1.0101
1.01007
1.0101
1.0102
1.01028
1.01035
1.01043
1.01057
1.0107
1.01079
1.01088
1.011
1.01107
1.0111
1.01111
1.01112
1.01118
0.880959
0.880948
0.880936
0.880925
0.880913
0.880901
0.880889
0.880875
0.88086
0.880845
0.880828
0.880809
0.88079
0.88077
0.880749
0.880727
0.880704
0.880675
0.880646
0.880619
0.880594
0.880575
0.880563
0.880573
0.880546
0.880515
0.880489
0.880503
0.880566
0.880754
0.881248
0.882459
0.88468
0.889247
0.895959
0.907225
0.920305
0.936985
0.953346
0.96752
0.980238
0.986939
0.99399
0.996533
0.999341
1.00229
1.00648
1.00898
1.00969
1.00948
1.00834
1.00627
1.00633
1.00694
1.00794
1.00903
1.00891
1.00845
1.0077
1.00783
1.00819
1.00855
1.00842
1.00821
1.00824
1.00837
1.00846
1.00848
1.00852
1.00864
1.00884
1.00894
1.00899
1.00904
1.00914
1.00922
1.00925
1.0093
1.00935
1.00943
0.880372
0.880369
0.880366
0.880363
0.880361
0.880358
0.880355
0.880352
0.880349
0.880346
0.880342
0.880337
0.880332
0.880328
0.880323
0.880318
0.880313
0.880306
0.880297
0.880286
0.880275
0.880261
0.880248
0.880233
0.88022
0.880208
0.880196
0.880196
0.880203
0.880243
0.880216
0.880216
0.880247
0.880377
0.880774
0.881942
0.884301
0.88965
0.897723
0.91165
0.927608
0.94644
0.96429
0.978735
0.99296
0.999873
1.0043
1.00639
1.00754
1.00629
1.00413
1.00453
1.00602
1.0075
1.00809
1.00804
1.00743
1.0067
1.00683
1.00747
1.00779
1.00767
1.00746
1.00729
1.00739
1.00757
1.00756
1.00756
1.00761
1.00776
1.00786
1.0079
1.00791
1.00795
1.008
1.00807
1.00813
1.00819
1.00823
1.00826
0.880092
0.880093
0.880094
0.880097
0.8801
0.880103
0.880106
0.880108
0.88011
0.880113
0.880117
0.880121
0.880126
0.880132
0.880138
0.880143
0.880148
0.880154
0.880158
0.880162
0.880162
0.880162
0.880159
0.880154
0.880147
0.880139
0.880129
0.880118
0.880107
0.880092
0.880087
0.880083
0.880083
0.880095
0.88007
0.880062
0.880096
0.88029
0.880879
0.882666
0.886302
0.894639
0.90642
0.924851
0.944402
0.963004
0.979438
0.987366
0.995597
0.998076
1.00272
1.00582
1.00866
1.00865
1.00832
1.00681
1.0056
1.00585
1.00686
1.00792
1.00781
1.00734
1.00685
1.00693
1.00723
1.0073
1.00719
1.00717
1.00731
1.0075
1.00751
1.00745
1.00742
1.00743
1.00744
1.0075
1.00758
1.00763
1.00769
1.00767
0.879943
0.879947
0.879951
0.879956
0.879961
0.879967
0.879974
0.87998
0.879988
0.879996
0.880005
0.880015
0.880026
0.880038
0.880051
0.880062
0.880074
0.880086
0.880098
0.880108
0.880116
0.880124
0.880129
0.88013
0.880128
0.880123
0.880116
0.880106
0.880089
0.880067
0.880042
0.880021
0.879997
0.879972
0.879951
0.879933
0.879915
0.879903
0.879889
0.879909
0.88003
0.880539
0.881891
0.885837
0.893048
0.907758
0.926115
0.948308
0.969465
0.985549
0.999816
1.00403
1.00745
1.00726
1.00572
1.00466
1.00552
1.00696
1.00792
1.00787
1.00719
1.00663
1.00672
1.00727
1.00734
1.00719
1.00701
1.00708
1.00732
1.00737
1.00732
1.00728
1.00724
1.00722
1.0072
1.00723
1.00733
1.00741
1.00745
1.00742
0.879846
0.87985
0.879855
0.879862
0.87987
0.879876
0.879882
0.879891
0.879902
0.879911
0.879921
0.879931
0.879944
0.879957
0.879969
0.879982
0.879995
0.880007
0.880018
0.880029
0.88004
0.88005
0.880058
0.880066
0.880071
0.880071
0.880066
0.880053
0.880033
0.88001
0.879982
0.879948
0.879908
0.879866
0.879832
0.879802
0.879769
0.879715
0.879673
0.879656
0.879662
0.879687
0.879744
0.879882
0.880328
0.881994
0.886024
0.896354
0.911581
0.934566
0.958167
0.975129
0.991313
0.995298
1.00002
1.00349
1.00801
1.00885
1.00854
1.00701
1.00597
1.00633
1.00734
1.00774
1.00743
1.0069
1.00694
1.00727
1.00749
1.00738
1.00718
1.0072
1.00718
1.00713
1.00708
1.0071
1.0072
1.00731
1.00736
1.00733
0.879772
0.879776
0.87978
0.879787
0.879792
0.879796
0.879804
0.879813
0.879819
0.879826
0.879834
0.879842
0.879851
0.879859
0.879868
0.879879
0.879889
0.8799
0.879911
0.879923
0.879935
0.879946
0.879955
0.879965
0.879974
0.879976
0.879973
0.879959
0.879933
0.879899
0.879861
0.87982
0.879777
0.879729
0.879678
0.879624
0.879569
0.879514
0.879469
0.879446
0.879443
0.879452
0.879489
0.879558
0.879611
0.879667
0.879824
0.880553
0.882659
0.889539
0.901686
0.924161
0.949194
0.971802
0.993443
1.00096
1.00659
1.00696
1.00546
1.00475
1.00597
1.00765
1.00801
1.00762
1.00669
1.00674
1.00729
1.00758
1.00745
1.00719
1.00711
1.00719
1.00716
1.00705
1.007
1.00705
1.00712
1.00722
1.00729
1.00726
0.879689
0.879689
0.879691
0.879695
0.879695
0.879693
0.879689
0.879688
0.879689
0.87969
0.879693
0.879696
0.879699
0.879704
0.879709
0.879716
0.879725
0.879734
0.879744
0.879753
0.879763
0.879771
0.87978
0.87979
0.879803
0.879815
0.879817
0.87981
0.879788
0.879755
0.879717
0.879677
0.87963
0.879573
0.879515
0.879461
0.87941
0.879361
0.87932
0.879293
0.87929
0.879295
0.879319
0.879385
0.879483
0.879577
0.879586
0.879558
0.879569
0.879827
0.880944
0.885681
0.895566
0.917168
0.942735
0.965903
0.986585
0.992877
0.99851
1.00313
1.00862
1.00907
1.00824
1.00618
1.00625
1.00703
1.00793
1.00776
1.00711
1.00702
1.00716
1.00721
1.0071
1.00692
1.00694
1.00702
1.00706
1.00713
1.00721
1.00719
0.879574
0.87957
0.879567
0.879563
0.879558
0.879552
0.879546
0.879539
0.879532
0.879525
0.879519
0.879512
0.879505
0.879498
0.879491
0.879485
0.87948
0.879478
0.879477
0.879476
0.879475
0.879475
0.879479
0.879489
0.879506
0.879532
0.879558
0.879574
0.879574
0.87956
0.87954
0.879516
0.879486
0.879452
0.879418
0.879379
0.879333
0.879284
0.879229
0.879176
0.879165
0.879174
0.879191
0.879234
0.879323
0.879436
0.879485
0.87948
0.879454
0.879359
0.879219
0.87932
0.880045
0.883723
0.892391
0.913137
0.938791
0.965545
0.990624
1.00014
1.00692
1.00689
1.00423
1.00485
1.00669
1.00806
1.0079
1.0071
1.00671
1.00697
1.00724
1.00713
1.00682
1.0068
1.00692
1.00697
1.00696
1.00701
1.00711
1.0071
0.879476
0.879465
0.879452
0.879439
0.879426
0.879413
0.8794
0.879387
0.879371
0.879353
0.879336
0.879318
0.8793
0.879281
0.87926
0.879237
0.879213
0.879197
0.879188
0.87918
0.879172
0.879169
0.879171
0.879177
0.879193
0.879218
0.87925
0.879289
0.87933
0.879363
0.879383
0.879396
0.879405
0.879408
0.879405
0.879388
0.879355
0.879305
0.879234
0.879151
0.87909
0.879064
0.879058
0.879064
0.879103
0.879196
0.879304
0.879346
0.879339
0.879294
0.879205
0.87903
0.878957
0.879069
0.879727
0.882938
0.891006
0.911507
0.938356
0.964366
0.985898
0.993449
0.998887
1.00583
1.00879
1.00853
1.00678
1.00618
1.00657
1.0074
1.00731
1.00675
1.00663
1.0068
1.00693
1.00688
1.00684
1.0069
1.00698
1.00696
0.879415
0.879395
0.879376
0.879357
0.879336
0.879316
0.879297
0.879278
0.879258
0.879237
0.879217
0.879196
0.879174
0.879151
0.879127
0.879103
0.879078
0.879052
0.879028
0.879012
0.879004
0.879001
0.878999
0.879
0.879007
0.87902
0.879041
0.879074
0.879131
0.87921
0.879281
0.879329
0.87937
0.879403
0.879413
0.879412
0.879401
0.879365
0.8793
0.87921
0.879101
0.878992
0.878917
0.878895
0.878899
0.878932
0.879011
0.879109
0.879185
0.879207
0.879186
0.879095
0.878957
0.878917
0.878964
0.879148
0.87981
0.882776
0.891042
0.911965
0.9394
0.968864
0.993225
1.00315
1.00721
1.0056
1.00412
1.0057
1.00755
1.00753
1.00681
1.00629
1.00657
1.00688
1.00683
1.00669
1.00675
1.00681
1.00682
1.0068
0.879365
0.879346
0.879327
0.879308
0.879288
0.879268
0.879248
0.879226
0.879202
0.879177
0.879152
0.879127
0.879102
0.879079
0.879057
0.879035
0.87901
0.878982
0.878954
0.878936
0.87893
0.878928
0.878926
0.878928
0.878935
0.878949
0.878971
0.879001
0.87904
0.879103
0.879193
0.879283
0.87934
0.879371
0.879384
0.879385
0.879379
0.879356
0.879313
0.879244
0.879138
0.878989
0.87885
0.878787
0.878773
0.878771
0.878789
0.878859
0.878996
0.879147
0.879189
0.879171
0.879081
0.87898
0.878951
0.878973
0.879037
0.879208
0.879827
0.882787
0.892094
0.914442
0.945078
0.971339
0.989445
0.996433
1.00267
1.00837
1.00824
1.00689
1.00575
1.00619
1.00702
1.00697
1.00657
1.00657
1.00675
1.00675
1.00661
1.00664
0.879304
0.879299
0.879294
0.879287
0.87928
0.879272
0.879263
0.879252
0.87924
0.879228
0.879217
0.879204
0.87919
0.879176
0.87916
0.879141
0.879115
0.879083
0.879047
0.87901
0.878979
0.878956
0.878935
0.878922
0.878919
0.878921
0.87893
0.878948
0.878975
0.87901
0.879058
0.87912
0.879186
0.879249
0.879309
0.879348
0.879351
0.879334
0.879294
0.87923
0.879142
0.87902
0.878869
0.878752
0.878718
0.878713
0.87872
0.878757
0.878878
0.879084
0.8792
0.879196
0.879145
0.879053
0.878946
0.878897
0.878893
0.878932
0.878984
0.879099
0.879787
0.883323
0.895269
0.91987
0.95101
0.982917
0.999385
1.00661
1.00613
1.00373
1.00513
1.00728
1.00721
1.00673
1.00632
1.00657
1.00677
1.00662
1.00642
1.00657
0.879335
0.879346
0.879347
0.879347
0.879351
0.87936
0.879363
0.879365
0.879366
0.879366
0.879365
0.879361
0.879355
0.879348
0.87934
0.879327
0.87931
0.879288
0.879257
0.879216
0.879171
0.879116
0.879058
0.879016
0.878979
0.878941
0.87891
0.878892
0.878883
0.878876
0.878875
0.878874
0.87888
0.878906
0.878951
0.879017
0.87909
0.87915
0.879168
0.879153
0.879114
0.879067
0.879005
0.878928
0.878848
0.878781
0.878748
0.878753
0.878848
0.879039
0.879168
0.879166
0.879117
0.879055
0.878948
0.878831
0.8788
0.878807
0.878884
0.87895
0.878984
0.879096
0.880125
0.884695
0.900054
0.928398
0.959981
0.984413
0.994298
1.00037
1.00785
1.0082
1.00719
1.00589
1.00625
1.00694
1.00681
1.00628
1.0063
1.00661
0.879298
0.879309
0.879321
0.879333
0.879344
0.879352
0.87936
0.879368
0.87937
0.87937
0.879372
0.879374
0.879373
0.879371
0.879365
0.879355
0.879341
0.879322
0.879294
0.879258
0.879211
0.879149
0.879095
0.879059
0.879018
0.878967
0.878915
0.87886
0.878807
0.878763
0.878722
0.878676
0.878639
0.878633
0.878645
0.878685
0.87876
0.878859
0.878948
0.878998
0.879039
0.879095
0.879154
0.879177
0.879164
0.879089
0.878961
0.878864
0.878873
0.878938
0.87901
0.879063
0.879059
0.879019
0.878945
0.878822
0.878766
0.878775
0.878849
0.878999
0.879053
0.879091
0.879075
0.879254
0.880772
0.887595
0.907635
0.938209
0.974098
0.995498
1.00635
1.00615
1.00381
1.00539
1.00714
1.0071
1.00635
1.00606
1.00639
1.00671
0.879089
0.879106
0.879122
0.879141
0.879153
0.879153
0.879151
0.879156
0.879165
0.879167
0.879168
0.879174
0.879183
0.879178
0.879161
0.879147
0.879135
0.879125
0.879118
0.879099
0.879046
0.879015
0.879018
0.879009
0.87896
0.878936
0.878919
0.878883
0.87882
0.878743
0.878672
0.878615
0.878559
0.878516
0.878523
0.87855
0.878589
0.878656
0.878745
0.878839
0.878945
0.87908
0.879204
0.879277
0.87929
0.879256
0.879139
0.878968
0.878858
0.878832
0.878816
0.878823
0.878891
0.878957
0.878951
0.878897
0.878854
0.878875
0.878958
0.879053
0.879059
0.879047
0.879022
0.878911
0.878857
0.879243
0.881785
0.892872
0.918277
0.952274
0.981867
0.992971
0.999932
1.00804
1.00797
1.00663
1.00568
1.0061
1.00684
1.0068
0.878536
0.878544
0.878554
0.878559
0.878554
0.878552
0.878557
0.878573
0.878583
0.878591
0.878603
0.878613
0.878626
0.878651
0.878678
0.878703
0.878725
0.878757
0.878812
0.878872
0.878918
0.878956
0.87897
0.87896
0.878958
0.878987
0.879009
0.87901
0.879003
0.878982
0.878947
0.878914
0.878865
0.878807
0.878766
0.878701
0.878627
0.878603
0.878633
0.878725
0.87885
0.879003
0.879129
0.879221
0.879256
0.879237
0.879136
0.878968
0.8788
0.87871
0.878682
0.878687
0.878776
0.878918
0.878993
0.879005
0.879024
0.879067
0.879098
0.879085
0.87907
0.879036
0.878939
0.878787
0.87866
0.878656
0.878744
0.879717
0.884523
0.902032
0.932014
0.969573
0.994545
1.00621
1.00596
1.00379
1.00535
1.00706
1.00697
1.00669
0.878146
0.878135
0.878137
0.878141
0.878132
0.878125
0.878127
0.878136
0.878147
0.878169
0.878187
0.8782
0.878221
0.878262
0.878319
0.878378
0.878444
0.878541
0.878653
0.878754
0.878845
0.878915
0.87898
0.879078
0.879126
0.879133
0.879156
0.879204
0.879262
0.8793
0.879305
0.879317
0.879331
0.879296
0.879181
0.879017
0.878859
0.878763
0.878716
0.878711
0.878759
0.878838
0.878879
0.878922
0.878998
0.879024
0.878986
0.878878
0.878778
0.87871
0.878682
0.878688
0.878786
0.878953
0.879028
0.879052
0.879099
0.879135
0.879129
0.879072
0.878946
0.878827
0.878736
0.878676
0.878636
0.878649
0.878758
0.878871
0.879189
0.881098
0.890106
0.914666
0.949827
0.979803
0.992763
1.00031
1.00786
1.00783
1.00703
1.00634
0.878195
0.878186
0.878162
0.878147
0.878134
0.878133
0.878144
0.878165
0.878183
0.878204
0.878231
0.87823
0.878216
0.878218
0.878253
0.878325
0.878433
0.878561
0.878659
0.878738
0.878802
0.878862
0.878963
0.879097
0.879153
0.879168
0.879189
0.87923
0.879286
0.879342
0.879346
0.879345
0.879368
0.87935
0.879233
0.879073
0.87894
0.878862
0.878791
0.878688
0.878643
0.878633
0.878625
0.878616
0.87862
0.87868
0.878759
0.878805
0.878863
0.878943
0.878969
0.878977
0.879038
0.879062
0.879032
0.879028
0.879067
0.879091
0.879048
0.878905
0.878726
0.878604
0.878601
0.878629
0.878708
0.878808
0.878929
0.878995
0.879006
0.879054
0.879626
0.883727
0.900082
0.930722
0.970849
0.994777
1.00646
1.00587
1.00497
1.00611
0.879103
0.879092
0.879066
0.879062
0.879068
0.879063
0.879036
0.878997
0.878954
0.878911
0.878858
0.878789
0.878725
0.878671
0.878637
0.878624
0.878627
0.878643
0.878675
0.878708
0.878724
0.87874
0.878776
0.878839
0.878917
0.878962
0.878942
0.878912
0.878878
0.878817
0.878764
0.878758
0.878828
0.878905
0.878876
0.878809
0.878729
0.878707
0.878707
0.878643
0.878568
0.87854
0.878537
0.878527
0.878498
0.878535
0.878681
0.878855
0.878982
0.879104
0.879192
0.879195
0.879185
0.879133
0.879014
0.878881
0.878849
0.878836
0.878783
0.878692
0.878593
0.878531
0.878562
0.878709
0.87891
0.879018
0.879025
0.879016
0.878949
0.878789
0.878657
0.878858
0.880631
0.89016
0.915496
0.951081
0.984856
0.993329
1.0029
1.00703
0.879611
0.879601
0.879575
0.879534
0.87949
0.87945
0.879411
0.879361
0.879293
0.879208
0.879117
0.879051
0.879005
0.878931
0.878844
0.87881
0.878777
0.878722
0.878645
0.878565
0.878483
0.87839
0.878314
0.878307
0.878315
0.878302
0.878232
0.878065
0.877884
0.877799
0.877808
0.877973
0.87819
0.878232
0.878296
0.87841
0.87847
0.878498
0.878503
0.878518
0.878596
0.878723
0.878753
0.878726
0.87867
0.878707
0.87883
0.878942
0.879016
0.879098
0.87915
0.879156
0.879131
0.879025
0.878815
0.878587
0.878484
0.878475
0.878497
0.878568
0.87859
0.878637
0.878771
0.878957
0.879067
0.879073
0.879041
0.87892
0.878731
0.878551
0.878488
0.878518
0.878667
0.879552
0.884161
0.902682
0.935858
0.974046
0.998123
1.00559
0.878749
0.878728
0.878676
0.878589
0.878495
0.878388
0.878261
0.878255
0.878264
0.878253
0.878252
0.878282
0.87836
0.878417
0.878426
0.878439
0.878425
0.878416
0.87847
0.878475
0.878401
0.878304
0.878246
0.87826
0.878307
0.87831
0.87824
0.878007
0.877724
0.877602
0.877625
0.877889
0.878166
0.878164
0.878202
0.878328
0.87844
0.878582
0.878701
0.878829
0.879029
0.879275
0.879352
0.879323
0.879287
0.879269
0.879186
0.878944
0.878635
0.878506
0.878489
0.878522
0.878552
0.878518
0.878468
0.878366
0.878269
0.878282
0.878332
0.878539
0.878837
0.879015
0.879105
0.879097
0.87909
0.879017
0.878847
0.878625
0.878443
0.87842
0.878457
0.878635
0.878918
0.87897
0.87922
0.88131
0.891865
0.922275
0.956824
0.990385
0.879761
0.879753
0.879703
0.879612
0.879464
0.879264
0.879164
0.879167
0.87926
0.879249
0.879123
0.879106
0.879175
0.879337
0.87953
0.879695
0.879826
0.879932
0.880052
0.880095
0.880072
0.880083
0.880099
0.880256
0.880652
0.880878
0.88088
0.880735
0.880357
0.879875
0.879443
0.879213
0.87911
0.879007
0.879009
0.878992
0.879016
0.879246
0.879374
0.879377
0.879456
0.879584
0.879582
0.879562
0.879583
0.879569
0.879423
0.878965
0.878314
0.878016
0.877992
0.878031
0.878145
0.87824
0.878284
0.878271
0.878217
0.878266
0.87848
0.878831
0.87911
0.879178
0.879154
0.879035
0.878813
0.878583
0.878432
0.878348
0.878347
0.878403
0.878677
0.87893
0.879068
0.879028
0.878838
0.878752
0.879604
0.886329
0.905972
0.961399
0.885284
0.885279
0.885327
0.885324
0.885271
0.884957
0.884748
0.884547
0.884182
0.884165
0.884132
0.883852
0.883712
0.88375
0.883979
0.884315
0.884363
0.884269
0.884263
0.88432
0.884075
0.883816
0.883833
0.884005
0.884433
0.88463
0.884656
0.884635
0.884351
0.883768
0.882993
0.882268
0.882015
0.881741
0.881167
0.880431
0.880073
0.880097
0.880088
0.880007
0.879823
0.879479
0.879045
0.878789
0.878779
0.878823
0.878881
0.878768
0.878326
0.878073
0.878065
0.878139
0.878321
0.878452
0.87855
0.878755
0.879053
0.879302
0.879257
0.87906
0.878994
0.878946
0.878803
0.878541
0.878236
0.878108
0.878128
0.878172
0.878342
0.878701
0.87902
0.879066
0.879008
0.878797
0.878505
0.878358
0.878411
0.878928
0.881854
0.914154
0.896099
0.896327
0.89646
0.896467
0.896354
0.896081
0.895763
0.895408
0.894878
0.894203
0.893305
0.892633
0.89247
0.892366
0.892237
0.892052
0.891833
0.891371
0.890711
0.890071
0.889422
0.888725
0.888089
0.887483
0.887372
0.88742
0.887151
0.886347
0.886054
0.886182
0.886545
0.886623
0.886527
0.886231
0.88544
0.884449
0.884303
0.884408
0.88447
0.88426
0.883622
0.882579
0.881412
0.880667
0.880424
0.880406
0.880528
0.881018
0.881409
0.881305
0.881037
0.880813
0.880478
0.880066
0.879954
0.880096
0.880424
0.880391
0.879991
0.879161
0.87863
0.878484
0.878332
0.878229
0.878099
0.878069
0.878168
0.878491
0.878862
0.879119
0.879077
0.878931
0.878608
0.878351
0.878266
0.878289
0.878599
0.878984
0.879143
0.887111
0.909759
0.909905
0.90987
0.909537
0.909068
0.908985
0.909218
0.90944
0.909265
0.908654
0.907842
0.9075
0.907545
0.907757
0.90769
0.907469
0.907343
0.90686
0.905982
0.905642
0.905402
0.904948
0.904254
0.90353
0.902901
0.902207
0.901694
0.901235
0.900668
0.899965
0.898939
0.897355
0.896691
0.896844
0.896557
0.895478
0.895212
0.895153
0.894932
0.894489
0.894107
0.893323
0.891744
0.890428
0.889368
0.888171
0.887483
0.887245
0.886977
0.886404
0.885384
0.884411
0.883472
0.88238
0.881341
0.880843
0.880536
0.88021
0.879674
0.878977
0.878571
0.878538
0.87849
0.8785
0.878629
0.878863
0.879311
0.879537
0.879445
0.879179
0.878793
0.878351
0.87808
0.878087
0.878133
0.878509
0.878997
0.878991
0.878775
0.879703
0.929349
0.929312
0.929197
0.928929
0.928672
0.928406
0.92816
0.927915
0.927582
0.927104
0.92626
0.925508
0.925056
0.924777
0.924555
0.923897
0.923145
0.922681
0.921927
0.920835
0.920421
0.92017
0.919425
0.918784
0.918567
0.918122
0.91727
0.917029
0.917233
0.91697
0.915777
0.914522
0.913613
0.912874
0.911926
0.91033
0.908752
0.90736
0.905113
0.903492
0.903525
0.90344
0.90215
0.900605
0.900108
0.899277
0.897625
0.895856
0.894139
0.892541
0.891178
0.889876
0.888992
0.888104
0.886946
0.885946
0.884653
0.883339
0.882988
0.882781
0.882323
0.882021
0.881705
0.881713
0.881638
0.881311
0.880938
0.880391
0.879735
0.878902
0.87836
0.878126
0.878075
0.878221
0.878621
0.879203
0.879182
0.878892
0.878376
0.878421
0.950753
0.950378
0.949761
0.949488
0.949415
0.949194
0.949
0.949088
0.949196
0.948963
0.948353
0.947494
0.946901
0.946766
0.946523
0.946078
0.945197
0.944568
0.94418
0.943689
0.942972
0.942137
0.941212
0.940269
0.939462
0.938572
0.937679
0.936848
0.935949
0.935056
0.93408
0.932488
0.930841
0.930698
0.930766
0.930091
0.928438
0.926901
0.925465
0.924046
0.922723
0.921364
0.918957
0.916451
0.916108
0.915736
0.914079
0.912303
0.910808
0.908527
0.906679
0.905051
0.90374
0.902526
0.900678
0.898621
0.896809
0.89489
0.893104
0.891559
0.889889
0.888209
0.886362
0.884958
0.883574
0.882459
0.881181
0.880178
0.87964
0.879247
0.878814
0.878943
0.879305
0.87988
0.879832
0.879619
0.879051
0.87833
0.878131
0.878238
0.974031
0.973516
0.973004
0.972681
0.972364
0.971988
0.97166
0.971216
0.97101
0.970993
0.970784
0.970062
0.969154
0.968659
0.968176
0.967651
0.966788
0.965945
0.965803
0.965623
0.964923
0.963818
0.962925
0.962218
0.961365
0.960626
0.959934
0.958979
0.957878
0.956991
0.956122
0.954937
0.953622
0.952192
0.950979
0.949774
0.948114
0.946412
0.9448
0.943249
0.942059
0.940868
0.939346
0.937524
0.935717
0.933981
0.931
0.928275
0.926985
0.925141
0.923495
0.921471
0.918468
0.915791
0.91382
0.911528
0.908922
0.906337
0.904114
0.901627
0.89914
0.896631
0.894374
0.892246
0.890039
0.888223
0.886433
0.885266
0.884361
0.883956
0.883193
0.882891
0.882477
0.881837
0.880852
0.879462
0.878624
0.878281
0.878347
0.878821
0.997847
0.997481
0.997015
0.996423
0.995915
0.995387
0.994967
0.99473
0.994323
0.993956
0.993945
0.993705
0.99292
0.992002
0.99141
0.990871
0.99042
0.989951
0.98931
0.988456
0.987612
0.986683
0.985952
0.98532
0.984552
0.983372
0.982315
0.981259
0.980059
0.979186
0.978275
0.977053
0.975663
0.974343
0.973204
0.971976
0.970496
0.968939
0.967319
0.96552
0.963739
0.961924
0.959994
0.958063
0.956128
0.954337
0.952428
0.950163
0.94792
0.944873
0.942497
0.940658
0.938547
0.935674
0.932484
0.930039
0.92756
0.924676
0.922012
0.919306
0.916501
0.913507
0.910843
0.907962
0.905207
0.90205
0.899179
0.896285
0.89342
0.890904
0.888257
0.886147
0.884127
0.882422
0.881144
0.880272
0.879634
0.879802
0.880458
0.880248
1.02196
1.02173
1.02141
1.02099
1.02041
1.01979
1.01931
1.01896
1.01846
1.01796
1.01783
1.01757
1.01684
1.01606
1.01549
1.015
1.01417
1.01352
1.01293
1.012
1.01085
1.01025
1.00973
1.00911
1.00826
1.007
1.00575
1.00474
1.00358
1.00255
1.0015
1.00023
0.998814
0.997299
0.995923
0.994559
0.99299
0.991309
0.989608
0.987831
0.986092
0.984327
0.982414
0.980341
0.978174
0.975918
0.97352
0.971095
0.96887
0.966533
0.964124
0.961174
0.957905
0.95539
0.952723
0.949546
0.946299
0.943164
0.939871
0.936584
0.933122
0.929664
0.926155
0.922525
0.918981
0.915215
0.911669
0.907985
0.90451
0.900918
0.897558
0.894358
0.891352
0.889128
0.887194
0.886447
0.88546
0.884661
0.883627
0.88154
1.04724
1.04668
1.04597
1.04578
1.04562
1.04527
1.04482
1.04433
1.04386
1.04323
1.0427
1.04238
1.04176
1.04085
1.04045
1.03999
1.03912
1.03817
1.03751
1.03673
1.03576
1.03501
1.03423
1.03337
1.0325
1.03141
1.03005
1.02896
1.02787
1.02668
1.02539
1.02401
1.02265
1.02113
1.0196
1.0181
1.01646
1.0147
1.01291
1.01109
1.00919
1.00722
1.00512
1.00297
1.00069
0.998367
0.996082
0.993611
0.991037
0.988304
0.985376
0.982765
0.980057
0.976736
0.973491
0.970482
0.967222
0.963748
0.960195
0.956749
0.953017
0.949373
0.94561
0.941868
0.937971
0.934135
0.930247
0.92634
0.922495
0.918415
0.914586
0.910194
0.906303
0.901986
0.898085
0.894357
0.890908
0.888064
0.885402
0.882555
1.07332
1.07297
1.07258
1.0722
1.07144
1.07088
1.07066
1.07033
1.06984
1.06924
1.06868
1.06816
1.06768
1.06688
1.06606
1.06559
1.06507
1.06404
1.06305
1.06231
1.0614
1.06058
1.05984
1.05882
1.05753
1.05646
1.05549
1.0543
1.05297
1.05169
1.05035
1.04884
1.04735
1.04582
1.0442
1.04253
1.04072
1.03889
1.03701
1.03509
1.03305
1.03095
1.02881
1.02646
1.02408
1.02162
1.01904
1.01649
1.01372
1.01089
1.00813
1.00491
1.00173
0.998743
0.995477
0.991871
0.988489
0.984918
0.981124
0.97733
0.973498
0.969416
0.965282
0.961095
0.956753
0.952422
0.947902
0.943477
0.938766
0.934215
0.929507
0.924797
0.920058
0.915191
0.910612
0.905776
0.901567
0.897281
0.894016
0.890345
1.09831
1.09807
1.0978
1.09751
1.09714
1.09667
1.09594
1.09555
1.09527
1.09485
1.09432
1.09365
1.09303
1.09255
1.09199
1.09107
1.09039
1.08986
1.0891
1.08806
1.08722
1.08639
1.08544
1.08444
1.0834
1.0823
1.08115
1.07999
1.07867
1.0773
1.07592
1.07442
1.07289
1.0713
1.06958
1.06779
1.06597
1.06402
1.06201
1.05996
1.05779
1.05557
1.05323
1.05088
1.0483
1.04569
1.04303
1.04011
1.03728
1.03431
1.03111
1.02803
1.02473
1.02122
1.01778
1.01416
1.0105
1.00673
1.00281
0.998736
0.994713
0.990432
0.986111
0.981629
0.97721
0.97252
0.967873
0.963098
0.958268
0.953403
0.948549
0.943746
0.938725
0.933876
0.928785
0.923768
0.918612
0.91319
0.908483
0.900953
1.11907
1.11889
1.11866
1.11836
1.11788
1.11748
1.1172
1.11699
1.11677
1.11644
1.11594
1.11524
1.11494
1.11471
1.1142
1.11354
1.11301
1.11239
1.11175
1.11113
1.11041
1.10965
1.10888
1.10802
1.10713
1.10621
1.10522
1.10416
1.103
1.10175
1.10055
1.09921
1.09775
1.09627
1.09468
1.09297
1.09119
1.08937
1.08732
1.08524
1.08303
1.08069
1.07832
1.07584
1.07325
1.07048
1.06766
1.06478
1.06162
1.05854
1.0553
1.05183
1.04825
1.04474
1.04107
1.03719
1.03322
1.02927
1.02505
1.02085
1.01652
1.01207
1.00746
1.00275
0.998011
0.993122
0.98815
0.983035
0.977884
0.972535
0.967276
0.961796
0.956345
0.950694
0.945059
0.939415
0.933688
0.927821
0.922507
0.913924
1.13013
1.13009
1.13004
1.12995
1.12982
1.12969
1.12959
1.12946
1.12931
1.12919
1.12907
1.12888
1.12863
1.12842
1.12822
1.12796
1.12762
1.12731
1.12701
1.12665
1.12628
1.12591
1.1255
1.12499
1.12451
1.12402
1.12338
1.12267
1.12194
1.12112
1.12023
1.11927
1.11821
1.11715
1.11605
1.11485
1.11352
1.11207
1.11045
1.10865
1.10679
1.10476
1.10256
1.1003
1.09788
1.09517
1.09234
1.08941
1.08631
1.0831
1.07993
1.0765
1.07277
1.06897
1.0652
1.06117
1.0569
1.05262
1.04813
1.04363
1.03912
1.03444
1.02955
1.02463
1.01954
1.0144
1.0091
1.00385
0.99834
0.992783
0.98717
0.98147
0.975734
0.969905
0.964068
0.958173
0.952443
0.946394
0.941074
0.931954
1.13272
1.13274
1.13277
1.13279
1.13283
1.13286
1.13288
1.13288
1.13285
1.13285
1.13285
1.1328
1.13276
1.13277
1.13275
1.13266
1.13257
1.13249
1.13239
1.1323
1.13222
1.13211
1.13199
1.13184
1.13168
1.13149
1.13126
1.13101
1.13076
1.13046
1.13017
1.1299
1.12956
1.12915
1.12867
1.12816
1.12759
1.12695
1.12619
1.12523
1.12415
1.12293
1.12149
1.11993
1.11824
1.1163
1.11419
1.11192
1.10939
1.10651
1.10359
1.10049
1.09689
1.09322
1.08969
1.08575
1.08131
1.0767
1.07206
1.06727
1.06256
1.05767
1.0526
1.04731
1.04194
1.03637
1.03078
1.02521
1.0195
1.0136
1.00762
1.00164
0.995475
0.989344
0.983015
0.976725
0.970372
0.963818
0.957881
0.947883
1.13216
1.13223
1.1323
1.13231
1.13231
1.13235
1.13238
1.13243
1.1325
1.1325
1.13251
1.13255
1.13259
1.1326
1.1326
1.13263
1.13269
1.13276
1.13283
1.13292
1.13297
1.13297
1.13299
1.13301
1.13298
1.13292
1.1329
1.13286
1.13273
1.13264
1.13265
1.13266
1.13258
1.13242
1.13225
1.13202
1.13178
1.13168
1.13165
1.13158
1.13142
1.13124
1.13089
1.13031
1.12963
1.12885
1.12784
1.1267
1.12535
1.12387
1.12227
1.12035
1.11779
1.11482
1.1117
1.10834
1.10456
1.10046
1.09606
1.09137
1.08652
1.08145
1.0762
1.07077
1.06519
1.05934
1.05338
1.04741
1.04144
1.03518
1.02892
1.02251
1.01611
1.00959
1.00303
0.996336
0.989711
0.98284
0.976675
0.966412
1.1313
1.13123
1.13121
1.13123
1.13125
1.13124
1.13128
1.13131
1.13128
1.13127
1.1313
1.13134
1.13135
1.13135
1.13137
1.13148
1.13156
1.13162
1.13173
1.13191
1.13203
1.13212
1.13222
1.13233
1.1325
1.13263
1.1326
1.13261
1.13266
1.13264
1.13265
1.13272
1.13274
1.13268
1.13266
1.1327
1.13264
1.13238
1.13208
1.13194
1.13195
1.13202
1.13217
1.13241
1.13255
1.13249
1.13232
1.13204
1.13159
1.13107
1.13063
1.13013
1.12933
1.12822
1.12683
1.12503
1.12263
1.11984
1.11679
1.11337
1.10932
1.10469
1.09958
1.09429
1.0888