/*--------------------------------*- C++ -*----------------------------------*\
  =========                 |
  \\      /  F ield         | OpenFOAM: The Open Source CFD Toolbox
   \\    /   O peration     | Website:  https://openfoam.org
    \\  /    A nd           | Version:  7
     \\/     M anipulation  |
\*---------------------------------------------------------------------------*/
FoamFile
{
    version     2.0;
    format      ascii;
    class       volScalarField;
    location    "3";
    object      T;
}
// * * * * * * * * * * * * * * * * * * * * * * * * * * * * * * * * * * * * * //

dimensions      [0 0 0 1 0 0 0];

internalField   nonuniform List<scalar> 
1750
(
1.26191
1.48738
1.48636
1.42346
1.40996
1.4135
1.45291
1.56088
1.595
1.57613
0.385173
0.659678
1.18304
1.50376
1.64632
1.67237
1.67131
1.66369
1.66233
1.6531
0.362546
0.35521
0.356866
0.561254
0.82849
1.05765
1.23826
1.35355
1.46607
1.58415
0.406702
0.413161
0.425034
0.446133
0.474018
0.478648
0.529098
0.720921
0.973675
1.32338
0.487162
0.507627
0.511565
0.519588
0.532749
0.545575
0.545553
0.549861
0.572242
0.938026
0.57447
0.582575
0.583673
0.583516
0.58986
0.605123
0.61738
0.630237
0.631381
0.647711
0.688362
0.687698
0.690006
0.692211
0.690751
0.68915
0.689291
0.692886
0.691411
0.684495
0.825199
0.813755
0.80081
0.790791
0.782792
0.776678
0.76781
0.7572
0.74824
0.745887
0.957232
0.942219
0.924142
0.906223
0.889158
0.87356
0.858611
0.843514
0.83134
0.816485
1.02898
1.02176
1.01204
0.999418
0.985425
0.968974
0.951885
0.934457
0.91829
0.894275
1.03746
1.03641
1.03469
1.03174
1.02779
1.02206
1.01418
1.00386
0.992689
0.972082
1.02578
1.02797
1.02931
1.02911
1.02803
1.02642
1.02405
1.02077
1.01695
1.00872
1.00606
1.0081
1.01066
1.01325
1.01564
1.01737
1.01792
1.01734
1.01598
1.012
1.0003
1.00051
1.00089
1.00151
1.00242
1.00361
1.00493
1.00611
1.0071
1.00672
1
1.00001
1.00002
1.00004
1.00008
1.00016
1.0003
1.00051
1.0008
1.00111
0.520019
0.455204
0.395762
0.401051
0.462964
0.561791
0.687241
0.835418
0.972084
1.03426
1.03832
1.02382
1.00441
1.00019
1
0.520425
0.441809
0.396313
0.411721
0.486815
0.598963
0.738985
0.889288
1.00557
1.04154
1.03862
1.01821
1.00222
1.00007
1
0.506607
0.431692
0.400845
0.408975
0.502133
0.639742
0.787634
0.929856
1.02361
1.04349
1.03644
1.01307
1.00117
1.00003
1
0.497662
0.410064
0.385745
0.430594
0.555383
0.696039
0.834874
0.966324
1.03708
1.04431
1.03181
1.00859
1.00054
1.00001
1
0.501098
0.38832
0.370604
0.476062
0.614296
0.738443
0.879309
1.00004
1.0455
1.04454
1.02644
1.00513
1.00023
1
1
0.517363
0.380433
0.390885
0.527879
0.645759
0.782346
0.932326
1.02753
1.0489
1.04328
1.02
1.00251
1.00008
1
1
0.528335
0.385867
0.443408
0.559849
0.695984
0.851501
0.981288
1.04356
1.05007
1.03906
1.01263
1.00106
1.00003
1
1
0.506342
0.38195
0.478495
0.606922
0.768597
0.918967
1.01736
1.0515
1.05032
1.03179
1.00684
1.00041
1.00001
1
1
0.506556
0.424272
0.51139
0.69189
0.856252
0.973349
1.04213
1.05459
1.04778
1.02155
1.00308
1.00012
1
1
1
0.488902
0.460406
0.60546
0.790136
0.925473
1.0181
1.05561
1.05536
1.04052
1.01224
1.00108
1.00003
1
1
1
0.27111
0.464747
0.721677
0.878685
0.986447
1.04773
1.05969
1.05473
1.02853
1.00541
1.0003
1.00001
1
1
1
0.104512
0.58331
0.818966
0.954602
1.03428
1.06089
1.06051
1.04482
1.01594
1.00183
1.00008
1
1
1
1
0.237251
0.716309
0.913199
1.01588
1.05941
1.0643
1.05752
1.03154
1.00683
1.00049
1.00001
1
1
1
1
0.488617
0.827036
0.999805
1.05379
1.06807
1.06478
1.046
1.01612
1.00196
1.00009
1
1
1
1
1
0.836132
0.998476
1.05431
1.0664
1.06932
1.05661
1.02801
1.0052
1.00035
1.00001
1
1
1
1
1
1.06666
1.068
1.06893
1.06812
1.06551
1.0392
1.00942
1.00047
1.00001
1
1
1
1
1
1
1.06638
1.06825
1.06921
1.06607
1.06173
1.03485
1.00884
1.00086
1.00003
1
1
1
1
1
1
1.06629
1.06948
1.07044
1.06557
1.05402
1.02205
1.00294
1.00011
1
1
1
1
1
1
1
1.06651
1.07084
1.07091
1.06356
1.04388
1.01306
1.00117
1.00004
1
1
1
1
1
1
1
1.06684
1.07167
1.07112
1.06084
1.03168
1.00614
1.00037
1.00001
1
1
1
1
1
1
1
1.06805
1.07179
1.06996
1.05055
1.02022
1.00268
1.00011
1
1
1
1
1
1
1
1
1.07153
1.07029
1.06686
1.03991
1.0106
1.00086
1.00003
1
1
1
1
1
1
1
1
1.07784
1.06626
1.05909
1.02602
1.00456
1.00026
1.00001
1
1
1
1
1
1
1
1
1.08339
1.06124
1.04548
1.01463
1.00164
1.00007
1
1
1
1
1
1
1
1
1
1.08602
1.05549
1.03057
1.00666
1.00051
1.00001
1
1
1
1
1
1
1
1
1
1.08548
1.04528
1.0181
1.00252
1.00012
1
1
1
1
1
1
1
1
1
1
1.07581
1.03307
1.00868
1.00077
1.00003
1
1
1
1
1
1
1
1
1
1
1.06305
1.02044
1.0032
1.00016
1
1
1
1
1
1
1
1
1
1
1
1.04269
1.00978
1.00085
1.00003
1
1
1
1
1
1
1
1
1
1
1
1.01972
1.00263
1.00011
1
1
1
1
1
1
1
1
1
1
1
1
1
1
1
1
1
1
1
1
1
1
1
1
1
1
1
1
1
1
1
1
1
1
1
1
1
1
1
1
1
1
1
1
1
1
1
1
1
1
1
1
1
1
1
1
1
1
1
1
1
1
1
1
1
1
1
1
1
1
1
1
1
1
1
1
1
1
1
1
1
1
1
1
1
1
1
1
1
1
1
1
1
1
1
1
1
1
1
1
1
1
1
1
1
1
1
1
1
1
1
1
1
1
1
1
1
1
1
1
1
1
1
1
1
1
1
1
1
1
1
1
1
1
1
1
1
1
1
1
1
1
1
1
1
1
1
1
1
1
1
1
1
1
1
1
1
1
1
1
1
1
1
1
1
1
1
1
1
1
1
1
1
1
1
1
1
1
1
1
1
1
1
1
1
1
1
1
1
1
1
1
1
1
1
1
1
1
1
1
1
1
1
1
1
1
1
1
1
1
1
1
1
1
1
1
1
1
1
1
1
1
1
1
1
1
1
1
1
1
1
1
1
1
1
1
1
1
1
1
1
1
1
1
1
1
1
1
1
1
1
1
1
1
1
1
1
1
1
1
1
1
1
1
1
1
1
1
1
1
1
1
1
1
1
1
1
1
1
1
1
1
1
1
1
1
1
1
1
1
1
1
1
1
1
1
1
1
1
1
1
1
1
1
1
1
1
1
1
1
1
1
1
1
1
1
1
1
1
1
1
1
1
1
1
1
1
1
1
1
1
1
1
1
1
1
1
1
1
1
1
1
1
1
1
1
1
1
1
1
1
1
1
1
1
1
1
1
1
1
1
1
1.25819
0.999936
1
1
1
1
1
1
1
1
1
1
1
1
1
1
1
1
1
1
2.02643
1.55047
0.999997
1
1
1
1
1
1
1
1
1
1
1
1
1
1
1
1
1
2.40202
2.25438
2.35381
1.54045
0.999735
1
1
1
1
1
1
1
1
1
1
1
1
1
1
1
2.29012
2.23382
2.33789
2.29742
1.73097
1.02177
0.999955
1
1
1
1
1
1
1
1
1
1
1
1
1
2.22567
2.21817
2.26375
2.28037
2.2266
1.68849
1.01766
1
1
1
1
1
1
1
1
1
1
1
1
1
2.18858
2.18999
2.22366
2.24319
2.25653
2.15606
1.52904
0.998733
1
1
1
1
1
1
1
1
1
1
1
1
2.17105
2.17867
2.20751
2.2207
2.22873
2.20808
2.06433
1.39171
0.998626
1
1
1
1
1
1
1
1
1
1
1
2.16272
2.17074
2.1939
2.20623
2.20872
2.1925
2.12308
1.81144
1.11186
0.999787
1
1
1
1
1
1
1
1
1
1
2.15463
2.15912
2.17815
2.1888
2.19234
2.17941
2.14498
2.0414
1.50586
1.00149
1
1
1
1
1
1
1
1
1
1
2.14512
2.14563
2.16137
2.17271
2.18043
2.1702
2.14617
2.09691
1.86671
1.20511
0.999242
1
1
1
1
1
1
1
1
1
2.13591
2.13495
2.14834
2.16048
2.16874
2.16085
2.13741
2.09467
1.99253
1.5416
1.00878
1
1
1
1
1
1
1
1
1
2.13221
2.13105
2.14092
2.15133
2.15614
2.14984
2.12839
2.09422
2.04668
1.84121
1.17955
0.999369
1
1
1
1
1
1
1
1
2.13145
2.13016
2.13715
2.14441
2.14364
2.13707
2.11636
2.08637
2.04662
1.94578
1.50182
1.00643
1
1
1
1
1
1
1
1
2.12965
2.12777
2.13239
2.13725
2.13468
2.12755
2.10781
2.07735
2.04447
1.99842
1.76524
1.12615
1
1
1
1
1
1
1
1
2.12558
2.12416
2.128
2.12983
2.12573
2.11364
2.09209
2.06419
2.03852
2.00523
1.89733
1.34209
0.978809
1
1
1
1
1
1
1
1.59551
1.82151
1.90652
1.96462
2.00953
2.03853
2.04134
2.03418
2.0215
2.00387
1.97996
1.79853
1.25215
1.0081
1.00005
1
1
1
1
1
1.15471
1.55288
1.67356
1.77034
1.83897
1.90426
1.94119
1.96113
1.96708
1.97743
1.9732
1.95174
1.68357
1.15396
1.00344
1.00002
1
1
1
1
1.13419
1.32552
1.45257
1.57912
1.67796
1.75179
1.82103
1.86234
1.89123
1.91808
1.94558
1.94069
1.90199
1.51117
1.05842
1.00074
1
1
1
1
1.22078
1.25507
1.29089
1.39051
1.52238
1.61544
1.69403
1.75426
1.80128
1.84262
1.88042
1.90366
1.90296
1.80607
1.31983
1.01537
1.00011
1
1
1
1.28515
1.21073
1.20554
1.29868
1.40012
1.50501
1.58419
1.66163
1.71438
1.76383
1.79874
1.83812
1.88147
1.86597
1.6319
1.13097
1.00241
1.00001
1
1
1.33069
1.21516
1.15576
1.22139
1.29931
1.41024
1.49244
1.57704
1.64548
1.69705
1.72573
1.76543
1.8326
1.84245
1.74584
1.34496
1.02167
1.00017
1
1
1.3273
1.22637
1.15838
1.16562
1.19885
1.29721
1.39819
1.48046
1.57048
1.63293
1.67056
1.70351
1.76735
1.81066
1.78917
1.54583
1.1027
1.00168
1.00001
1
1.31566
1.24417
1.18263
1.15841
1.1538
1.2116
1.31518
1.39776
1.48695
1.5581
1.60922
1.64367
1.70423
1.77738
1.77862
1.66715
1.26345
1.01295
1.00009
1
1.29922
1.24454
1.18959
1.1466
1.1359
1.18778
1.26991
1.35285
1.42243
1.48993
1.54222
1.58409
1.64072
1.72387
1.75822
1.70979
1.43624
1.05574
1.00066
1
1.27304
1.23804
1.18144
1.12651
1.11575
1.15928
1.22529
1.31229
1.37755
1.4394
1.48958
1.53702
1.59007
1.66085
1.72517
1.70001
1.5376
1.15362
1.0043
1.00002
1.25211
1.22804
1.17305
1.12134
1.10661
1.12887
1.16071
1.25172
1.32321
1.38718
1.44281
1.49121
1.54711
1.61029
1.68498
1.68327
1.58388
1.26691
1.01683
1.00013
1.24584
1.22103
1.17134
1.12525
1.11218
1.12191
1.12759
1.17716
1.2562
1.31652
1.38521
1.43807
1.49582
1.5627
1.64222
1.66651
1.61415
1.36718
1.04986
1.00064
1.24321
1.21548
1.16949
1.13092
1.11862
1.11798
1.12159
1.15916
1.21946
1.27162
1.33683
1.39337
1.44668
1.51043
1.59149
1.64409
1.60877
1.43356
1.10354
1.00243
1.23771
1.20887
1.16674
1.13014
1.11409
1.10277
1.1074
1.14287
1.19396
1.24819
1.30587
1.36614
1.41922
1.47547
1.54511
1.60989
1.59373
1.47649
1.17374
1.00788
1.22392
1.20211
1.16332
1.12462
1.0981
1.07929
1.08368
1.11181
1.15471
1.21293
1.27186
1.33451
1.38979
1.44523
1.50719
1.57417
1.5725
1.49015
1.24208
1.02057
1.233
1.18883
1.15072
1.11117
1.08423
1.06441
1.06576
1.08109
1.10287
1.15858
1.21676
1.28566
1.34344
1.40091
1.46007
1.53228
1.54777
1.48876
1.28789
1.04197
1.23917
1.16515
1.13835
1.10475
1.0789
1.05945
1.05857
1.07066
1.09051
1.12875
1.18456
1.24691
1.30738
1.36412
1.42064
1.49009
1.52511
1.48197
1.32403
1.07144
1.20001
1.12409
1.11998
1.0988
1.07159
1.05145
1.04909
1.06141
1.08076
1.11282
1.16635
1.22499
1.28347
1.3407
1.39419
1.45863
1.50276
1.46948
1.33999
1.11167
1.14617
1.08281
1.08446
1.08483
1.05978
1.03895
1.03014
1.03969
1.05999
1.09106
1.13178
1.19355
1.25081
1.30907
1.35941
1.41877
1.47192
1.44879
1.34806
1.1514
1.13475
1.05482
1.04529
1.05943
1.04987
1.03941
1.02764
1.02468
1.03517
1.07204
1.10492
1.15936
1.21941
1.27553
1.3258
1.37681
1.43247
1.4201
1.3431
1.18671
1.1392
1.03957
1.01096
1.0321
1.04332
1.03864
1.02889
1.02079
1.02033
1.05138
1.08284
1.13403
1.19777
1.25315
1.30015
1.34533
1.40053
1.39606
1.3325
1.2129
1.17837
1.05021
1.01054
1.00904
1.02884
1.03495
1.03124
1.02112
1.02006
1.03646
1.062
1.10509
1.16652
1.22369
1.26659
1.30383
1.3583
1.36671
1.31385
1.23018
1.34394
1.14879
1.04513
1.01374
1.01887
1.02976
1.03039
1.02352
1.02402
1.0367
1.05561
1.09927
1.14926
1.19632
1.23104
1.26282
1.31607
1.3331
1.29076
1.22958
1.44884
1.25081
1.10326
1.03786
1.02325
1.02981
1.03302
1.03148
1.03641
1.04637
1.06454
1.10365
1.14199
1.18128
1.20789
1.2332
1.28273
1.30626
1.26994
1.22309
1.4386
1.30082
1.1836
1.12312
1.08012
1.05744
1.06138
1.06903
1.07574
1.07904
1.0855
1.10714
1.12563
1.15017
1.16321
1.18007
1.22538
1.25593
1.23079
1.19814
)
;

boundaryField
{
    inlet
    {
        type            fixedValue;
        value           uniform 1;
    }
    outlet
    {
        type            inletOutlet;
        inletValue      uniform 1;
        value           nonuniform List<scalar> 
35
(
1.43685
1.30005
1.18373
1.12369
1.08074
1.05812
1.06219
1.07009
1.07687
1.08013
1.08627
1.10767
1.12593
1.15013
1.16284
1.17984
1.22562
1.25494
1.22952
1.19449
1.575
1.65339
1.58632
1.32734
0.940465
0.648096
0.684386
0.746026
0.81657
0.894342
0.972107
1.00864
1.0119
1.00665
1.00109
)
;
    }
    airfoil
    {
        type            zeroGradient;
    }
    top
    {
        type            symmetryPlane;
    }
    bottom
    {
        type            symmetryPlane;
    }
    defaultFaces
    {
        type            empty;
    }
}


// ************************************************************************* //
