/*--------------------------------*- C++ -*----------------------------------*\
  =========                 |
  \\      /  F ield         | OpenFOAM: The Open Source CFD Toolbox
   \\    /   O peration     | Website:  https://openfoam.org
    \\  /    A nd           | Version:  7
     \\/     M anipulation  |
\*---------------------------------------------------------------------------*/
FoamFile
{
    version     2.0;
    format      ascii;
    class       volScalarField;
    location    "5.2";
    object      rho;
}
// * * * * * * * * * * * * * * * * * * * * * * * * * * * * * * * * * * * * * //

dimensions      [1 -3 0 0 0 0 0];

internalField   nonuniform List<scalar> 
1750
(
0.424975
0.593508
0.733925
0.85585
0.9527
0.9565
0.941062
0.933376
0.953346
0.962162
0.272563
0.357306
0.484546
0.6406
0.758704
0.836055
0.88788
0.930988
0.984799
0.976973
0.288004
0.294295
0.293031
0.310089
0.372064
0.482433
0.664998
0.835902
0.92403
0.975178
0.336633
0.346147
0.328552
0.310739
0.322895
0.344672
0.369311
0.455042
0.593152
0.850938
0.426244
0.433309
0.422657
0.421518
0.430202
0.457733
0.484593
0.509313
0.500313
0.547356
0.568929
0.600579
0.609453
0.599829
0.593395
0.589938
0.585072
0.572499
0.559291
0.543197
0.761259
0.769531
0.773222
0.753153
0.720145
0.698177
0.688183
0.682424
0.675529
0.65519
1.06328
1.02415
0.990658
0.940542
0.905777
0.888777
0.870349
0.848296
0.82806
0.780486
1.39139
1.32515
1.26872
1.19519
1.12013
1.0858
1.05268
1.00609
0.963141
0.895386
1.83582
1.72544
1.63316
1.53858
1.42464
1.32668
1.26825
1.20632
1.14601
1.05683
2.27037
2.19716
2.10916
1.99178
1.8624
1.72228
1.59683
1.48838
1.39611
1.25806
2.30258
2.30041
2.2904
2.26569
2.22164
2.15043
2.04335
1.91071
1.78219
1.57333
1.97782
2.06156
2.15531
2.20722
2.21363
2.20981
2.1978
2.16552
2.11507
1.95916
1.49948
1.55974
1.64492
1.75651
1.87178
1.97823
2.05803
2.10823
2.10295
2.08351
1.40283
1.40652
1.41477
1.43319
1.47013
1.534
1.63337
1.77188
1.91987
2.15106
0.276413
0.24641
0.251345
0.319052
0.406895
0.556678
0.819733
1.13477
1.46467
1.95912
2.34328
2.29822
1.86541
1.45553
1.40134
0.271901
0.231096
0.233873
0.338055
0.451094
0.661802
0.978632
1.25368
1.63097
2.15263
2.39657
2.24218
1.71711
1.42476
1.40044
0.26877
0.22462
0.232346
0.374551
0.526811
0.767068
1.04879
1.33124
1.79927
2.30353
2.40777
2.16956
1.60571
1.41016
1.40015
0.275658
0.226176
0.262428
0.426435
0.587765
0.821728
1.10375
1.48322
2.00993
2.40978
2.40422
2.02542
1.50103
1.40313
1.40004
0.285754
0.235334
0.281831
0.435812
0.606044
0.882306
1.23594
1.72976
2.227
2.4739
2.35672
1.82824
1.44684
1.4011
1.40002
0.285569
0.243654
0.279364
0.423162
0.647697
1.03822
1.49949
1.94777
2.40481
2.51076
2.26207
1.68536
1.42049
1.40035
1.40001
0.254744
0.244656
0.271757
0.43988
0.878273
1.29538
1.69632
2.15982
2.52825
2.51663
2.123
1.53708
1.40536
1.40008
1.40001
0.191497
0.230173
0.299258
0.663302
1.10303
1.47839
1.89848
2.41601
2.57754
2.4376
1.83087
1.4446
1.40118
1.40002
1.40001
0.119872
0.227524
0.460635
0.881398
1.26379
1.68743
2.21838
2.59645
2.58778
2.2331
1.62607
1.41477
1.40029
1.40001
1.40001
0.0846702
0.291739
0.651345
1.05553
1.48241
2.01913
2.52797
2.66289
2.54025
1.99522
1.49402
1.40342
1.40006
1.40001
1.40001
0.0764238
0.411099
0.84079
1.31569
1.89844
2.36462
2.70342
2.67815
2.3565
1.71138
1.42396
1.40056
1.40001
1.40001
1.40001
0.0769024
0.571777
1.15445
1.7882
2.28905
2.62317
2.76185
2.6237
2.07034
1.50833
1.40484
1.40009
1.40001
1.40001
1.40001
0.257746
0.9557
1.67876
2.23039
2.60496
2.77579
2.76809
2.39568
1.68624
1.42373
1.40065
1.40001
1.40001
1.40001
1.40001
0.727842
1.56725
2.22392
2.5759
2.80407
2.81522
2.61546
1.94183
1.47186
1.40298
1.40006
1.40001
1.40001
1.40001
1.40001
1.64938
2.32001
2.64793
2.77975
2.85646
2.81762
2.23969
1.55264
1.40732
1.40013
1.40001
1.40001
1.40001
1.40001
1.40001
2.89183
2.8485
2.80865
2.83779
2.86551
2.52529
1.65251
1.39036
1.39871
1.39998
1.4
1.40001
1.40001
1.40001
1.40001
2.89125
2.85494
2.8102
2.8409
2.8536
2.31928
1.581
1.40639
1.40006
1.40001
1.40001
1.40001
1.40001
1.40001
1.40001
2.82682
2.86617
2.89356
2.86761
2.79773
1.95662
1.42721
1.40012
1.40001
1.40001
1.40001
1.40001
1.40001
1.40001
1.40001
2.78526
2.87457
2.97125
2.8666
2.49086
1.63705
1.40513
1.40002
1.40001
1.40001
1.40001
1.40001
1.40001
1.40001
1.40001
2.77182
2.90009
3.02227
2.85795
2.17285
1.47522
1.40055
1.40001
1.40001
1.40001
1.40001
1.40001
1.40001
1.40001
1.40001
2.79868
2.94163
3.04531
2.73405
1.7466
1.40898
1.40004
1.40001
1.40001
1.40001
1.40001
1.40001
1.40001
1.40001
1.40001
2.90318
2.96623
3.03741
2.27742
1.49606
1.40084
1.40001
1.40001
1.40001
1.40001
1.40001
1.40001
1.40001
1.40001
1.40001
3.14443
3.0083
2.79247
1.8152
1.41464
1.40005
1.40001
1.40001
1.40001
1.40001
1.40001
1.40001
1.40001
1.40001
1.40001
3.38406
2.90697
2.33926
1.50874
1.40094
1.40001
1.40001
1.40001
1.40001
1.40001
1.40001
1.40001
1.40001
1.40001
1.40001
3.49378
2.71579
1.83608
1.41561
1.40006
1.40001
1.40001
1.40001
1.40001
1.40001
1.40001
1.40001
1.40001
1.40001
1.40001
3.45743
2.35418
1.54613
1.40182
1.40001
1.40001
1.40001
1.40001
1.40001
1.40001
1.40001
1.40001
1.40001
1.40001
1.40001
3.13592
1.96054
1.43613
1.40021
1.40001
1.40001
1.40001
1.40001
1.40001
1.40001
1.40001
1.40001
1.40001
1.40001
1.40001
2.75285
1.66651
1.40699
1.40003
1.40001
1.40001
1.40001
1.40001
1.40001
1.40001
1.40001
1.40001
1.40001
1.40001
1.40001
2.2657
1.49074
1.40093
1.40001
1.40001
1.40001
1.40001
1.40001
1.40001
1.40001
1.40001
1.40001
1.40001
1.40001
1.40001
1.7651
1.41549
1.40006
1.40001
1.40001
1.40001
1.40001
1.40001
1.40001
1.40001
1.40001
1.40001
1.40001
1.40001
1.40001
1.40001
1.40001
1.40001
1.40001
1.40001
1.40001
1.40001
1.40001
1.40001
1.40001
1.40001
1.40001
1.40001
1.40001
1.40001
1.40001
1.40001
1.40001
1.40001
1.40001
1.40001
1.40001
1.40001
1.40001
1.40001
1.40001
1.40001
1.40001
1.40001
1.40001
1.40001
1.40001
1.40001
1.40001
1.40001
1.40001
1.40001
1.40001
1.40001
1.40001
1.40001
1.40001
1.40001
1.40001
1.40001
1.40001
1.40001
1.40001
1.40001
1.40001
1.40001
1.40001
1.40001
1.40001
1.40001
1.40001
1.40001
1.40001
1.40001
1.40001
1.40001
1.40001
1.40001
1.40001
1.40001
1.40001
1.40001
1.40001
1.40001
1.40001
1.40001
1.40001
1.40001
1.40001
1.40001
1.40001
1.40001
1.40001
1.40001
1.40001
1.40001
1.40001
1.40001
1.40001
1.40001
1.40001
1.40001
1.40001
1.40001
1.40001
1.40001
1.40001
1.40001
1.40001
1.40001
1.40001
1.40001
1.40001
1.40001
1.40001
1.40001
1.40001
1.40001
1.40001
1.40001
1.40001
1.40001
1.40001
1.40001
1.40001
1.40001
1.40001
1.40001
1.40001
1.40001
1.40001
1.40001
1.40001
1.40001
1.40001
1.40001
1.40001
1.40001
1.40001
1.40001
1.40001
1.40001
1.40001
1.40001
1.40001
1.40001
1.40001
1.40001
1.40001
1.40001
1.40001
1.40001
1.40001
1.40001
1.40001
1.40001
1.40001
1.40001
1.40001
1.40001
1.40001
1.40001
1.40001
1.40001
1.40001
1.40001
1.40001
1.40001
1.40001
1.40001
1.40001
1.40001
1.40001
1.40001
1.40001
1.40001
1.40001
1.40001
1.40001
1.40001
1.40001
1.40001
1.40001
1.40001
1.40001
1.40001
1.40001
1.40001
1.40001
1.40001
1.40001
1.40001
1.40001
1.40001
1.40001
1.40001
1.40001
1.40001
1.40001
1.40001
1.40001
1.40001
1.40001
1.40001
1.40001
1.40001
1.40001
1.40001
1.40001
1.40001
1.40001
1.40001
1.40001
1.40001
1.40001
1.40001
1.40001
1.40001
1.40001
1.40001
1.40001
1.40001
1.40001
1.40001
1.40001
1.40001
1.40001
1.40001
1.40001
1.40001
1.40001
1.40001
1.40001
1.40001
1.40001
1.40001
1.40001
1.40001
1.40001
1.40001
1.40001
1.40001
1.40001
1.40001
1.40001
1.40001
1.40001
1.40001
1.40001
1.40001
1.40001
1.40001
1.40001
1.40001
1.40001
1.40001
1.40001
1.40001
1.40001
1.40001
1.40001
1.40001
1.40001
1.40001
1.40001
1.40001
1.40001
1.40001
1.40001
1.40001
1.40001
1.40001
1.40001
1.40001
1.40001
1.40001
1.40001
1.40001
1.40001
1.40001
1.40001
1.40001
1.40001
1.40001
1.40001
1.40001
1.40001
1.40001
1.40001
1.40001
1.40001
1.40001
1.40001
1.40001
1.40001
1.40001
1.40001
1.40001
1.40001
1.40001
1.40001
1.40001
1.40001
1.40001
1.40001
1.40001
1.40001
1.40001
1.40001
1.40001
1.40001
1.40001
1.40001
1.40001
1.40001
1.40001
1.40001
1.40001
1.40001
1.40001
1.40001
1.40001
1.40001
1.40001
1.40001
1.40001
1.40001
1.40001
1.40001
1.40001
1.40001
1.40001
1.40001
1.40001
1.40001
1.40001
1.40001
1.40001
1.40001
1.40001
1.40001
1.40001
1.40001
1.40001
1.40001
1.40001
1.40001
1.40001
1.40001
1.40001
1.40001
1.40001
1.40001
1.40001
1.40001
1.40001
1.40001
1.40001
1.40001
1.40001
1.40001
1.40001
1.40001
1.40001
1.40001
2.09527
1.4126
1.40001
1.40001
1.40001
1.40001
1.40001
1.40001
1.40001
1.40001
1.40001
1.40001
1.40001
1.40001
1.40001
1.40001
1.40001
1.40001
1.40001
1.40001
3.0151
1.59468
1.39943
1.40001
1.40001
1.40001
1.40001
1.40001
1.40001
1.40001
1.40001
1.40001
1.40001
1.40001
1.40001
1.40001
1.40001
1.40001
1.40001
1.40001
4.03747
2.12457
1.41279
1.39997
1.40001
1.40001
1.40001
1.40001
1.40001
1.40001
1.40001
1.40001
1.40001
1.40001
1.40001
1.40001
1.40001
1.40001
1.40001
1.40001
4.4711
3.09075
1.76317
1.4006
1.40001
1.40001
1.40001
1.40001
1.40001
1.40001
1.40001
1.40001
1.40001
1.40001
1.40001
1.40001
1.40001
1.40001
1.40001
1.40001
4.30081
3.70527
2.89407
1.58713
1.39974
1.4
1.40001
1.40001
1.40001
1.40001
1.40001
1.40001
1.40001
1.40001
1.40001
1.40001
1.40001
1.40001
1.40001
1.40001
3.83227
3.68022
3.55614
2.49066
1.49729
1.3998
1.4
1.40001
1.40001
1.40001
1.40001
1.40001
1.40001
1.40001
1.40001
1.40001
1.40001
1.40001
1.40001
1.40001
3.46326
3.56248
3.7139
3.39035
2.07408
1.41648
1.39996
1.4
1.40001
1.40001
1.40001
1.40001
1.40001
1.40001
1.40001
1.40001
1.40001
1.40001
1.40001
1.40001
3.4369
3.52009
3.64729
3.54311
2.99446
1.72512
1.40135
1.40001
1.40001
1.40001
1.40001
1.40001
1.40001
1.40001
1.40001
1.40001
1.40001
1.40001
1.40001
1.40001
3.45859
3.49183
3.53697
3.4828
3.34582
2.48167
1.50051
1.39995
1.4
1.40001
1.40001
1.40001
1.40001
1.40001
1.40001
1.40001
1.40001
1.40001
1.40001
1.40001
3.50385
3.48829
3.45529
3.46919
3.49594
3.18614
1.92333
1.40838
1.39999
1.4
1.40001
1.40001
1.40001
1.40001
1.40001
1.40001
1.40001
1.40001
1.40001
1.40001
3.50751
3.49912
3.48317
3.49131
3.50011
3.39631
2.67929
1.57271
1.40035
1.40001
1.40001
1.40001
1.40001
1.40001
1.40001
1.40001
1.40001
1.40001
1.40001
1.40001
3.51062
3.5185
3.51124
3.49275
3.46227
3.40755
3.19699
2.08013
1.42554
1.4
1.40001
1.40001
1.40001
1.40001
1.40001
1.40001
1.40001
1.40001
1.40001
1.40001
3.51694
3.52497
3.50941
3.47833
3.43296
3.44074
3.46299
2.87458
1.62489
1.40084
1.40001
1.40001
1.40001
1.40001
1.40001
1.40001
1.40001
1.40001
1.40001
1.40001
3.52632
3.52862
3.50732
3.46801
3.43949
3.46371
3.47572
3.1992
2.1892
1.47173
1.40081
1.40001
1.40001
1.40001
1.40001
1.40001
1.40001
1.40001
1.40001
1.40001
3.55102
3.53877
3.50145
3.4668
3.45284
3.46375
3.46997
3.3417
2.76548
1.51147
1.3907
1.39915
1.4
1.4
1.40001
1.40001
1.40001
1.40001
1.40001
1.40001
1.73399
2.60831
3.05882
3.26104
3.36153
3.41294
3.45633
3.44211
3.41091
2.58697
1.64517
1.41641
1.40043
1.40001
1.40001
1.40001
1.40001
1.40001
1.40001
1.40001
0.466193
1.50577
2.27636
2.73681
3.01788
3.21295
3.3521
3.44042
3.44708
3.26632
2.45363
1.62435
1.41465
1.40036
1.40001
1.40001
1.40001
1.40001
1.40001
1.40001
0.18049
0.803632
1.4385
2.05464
2.51371
2.8196
3.09384
3.29343
3.41261
3.38664
3.18634
2.2981
1.55133
1.4071
1.40013
1.40001
1.40001
1.40001
1.40001
1.40001
0.23443
0.600787
0.967972
1.39381
1.91561
2.33913
2.69436
2.99045
3.23462
3.34741
3.33162
2.97524
2.04416
1.47585
1.40252
1.40004
1.40001
1.40001
1.40001
1.40001
0.293851
0.49407
0.733186
1.05312
1.42378
1.87548
2.24135
2.61784
2.92806
3.18554
3.28693
3.24578
2.68832
1.77005
1.42576
1.40054
1.40001
1.40001
1.40001
1.40001
0.344073
0.38321
0.498421
0.832564
1.14583
1.51444
1.88102
2.24344
2.60983
2.92384
3.14391
3.2329
3.11506
2.33213
1.56028
1.40611
1.40009
1.40001
1.40001
1.40001
0.420853
0.369836
0.374337
0.609194
0.917854
1.22737
1.57814
1.90007
2.30912
2.58993
2.89903
3.17042
3.17367
2.8477
1.92196
1.44831
1.40105
1.40002
1.40001
1.40001
0.466872
0.397793
0.395561
0.561496
0.766145
1.01369
1.30424
1.6324
1.99969
2.2932
2.60328
2.95183
3.14312
3.09649
2.45423
1.61183
1.40972
1.40014
1.40001
1.40001
0.463535
0.423197
0.441492
0.542101
0.67479
0.889097
1.12268
1.4306
1.74392
2.07981
2.33825
2.69434
3.01066
3.09122
2.89049
1.97964
1.45257
1.40116
1.40002
1.40001
0.442448
0.427394
0.466726
0.507252
0.564912
0.785891
0.989668
1.27558
1.55852
1.87991
2.15346
2.46841
2.81569
3.04159
2.99252
2.4599
1.61
1.4077
1.4001
1.40001
0.43222
0.438297
0.48397
0.478362
0.483119
0.645263
0.863453
1.07678
1.36797
1.63263
1.9599
2.20836
2.57183
2.91042
2.97367
2.7053
1.90351
1.44046
1.40066
1.40001
0.439681
0.461616
0.498461
0.478607
0.48254
0.619576
0.793586
0.954119
1.19909
1.44233
1.76358
2.02127
2.31018
2.68332
2.92825
2.867
2.2104
1.52432
1.40347
1.40004
0.440861
0.46724
0.500146
0.485032
0.487954
0.600329
0.747034
0.913459
1.1046
1.33925
1.61025
1.89743
2.14611
2.48675
2.84223
2.90281
2.55391
1.70098
1.41403
1.40018
0.430682
0.463263
0.498729
0.487904
0.485896
0.56369
0.673703
0.862235
1.03142
1.24809
1.48451
1.77341
2.01826
2.31906
2.70253
2.88612
2.78469
2.0188
1.45821
1.40108
0.427987
0.45028
0.486273
0.486015
0.48794
0.53868
0.590825
0.746136
0.909083
1.1097
1.32282
1.57856
1.84206
2.09991
2.48009
2.81294
2.77945
2.27462
1.56044
1.40489
0.522304
0.46033
0.489076
0.498134
0.517914
0.548486
0.578866
0.723348
0.876219
1.03712
1.25657
1.47223
1.74627
1.98993
2.30553
2.69014
2.74359
2.47372
1.70676
1.41522
0.601404
0.501117
0.511978
0.525105
0.535229
0.551489
0.588199
0.726112
0.864147
1.0111
1.21602
1.42685
1.66665
1.91157
2.18191
2.55781
2.7189
2.62611
1.91316
1.44439
0.714285
0.586198
0.526683
0.526034
0.533026
0.543691
0.590573
0.717736
0.835493
0.976401
1.16211
1.36927
1.56622
1.8008
2.05025
2.39524
2.67218
2.6397
2.15609
1.52157
0.833645
0.713441
0.548331
0.516386
0.521709
0.521393
0.591795
0.698985
0.781662
0.929321
1.0894
1.29195
1.47679
1.67975
1.91452
2.23075
2.57897
2.62187
2.33971
1.67304
0.970298
0.864103
0.597128
0.509111
0.512366
0.513644
0.594716
0.683592
0.740885
0.890986
1.03572
1.2073
1.39824
1.59058
1.79415
2.07689
2.44728
2.59274
2.45416
1.89872
1.02849
0.988628
0.757609
0.521052
0.508889
0.511018
0.593203
0.668387
0.721679
0.864941
0.994163
1.14347
1.3208
1.50645
1.69687
1.92748
2.2818
2.53583
2.48985
2.19607
1.01911
1.0839
0.981249
0.603252
0.505939
0.508692
0.578384
0.646636
0.716604
0.84312
0.952358
1.09362
1.25408
1.42094
1.60962
1.8078
2.11104
2.44331
2.47583
2.51782
0.990889
1.07707
1.04198
0.800248
0.527173
0.505969
0.55604
0.613452
0.702215
0.817389
0.905356
1.03023
1.18811
1.34368
1.51053
1.69667
1.95009
2.30518
2.49812
2.80481
0.980431
1.05756
1.09379
1.00605
0.618179
0.503615
0.538269
0.585205
0.685174
0.779913
0.865832
0.985097
1.12136
1.27419
1.42571
1.59932
1.81823
2.16343
2.53579
3.03498
0.985299
1.03288
1.09454
1.07166
0.879581
0.587711
0.536029
0.572606
0.657921
0.720684
0.804657
0.920476
1.02455
1.16
1.30314
1.45846
1.6423
1.96282
2.51253
3.28502
)
;

boundaryField
{
    inlet
    {
        type            calculated;
        value           uniform 1.40001;
    }
    outlet
    {
        type            calculated;
        value           nonuniform List<scalar> 
35
(
0.985484
1.03294
1.09444
1.07164
0.879493
0.587715
0.535985
0.572677
0.658119
0.72091
0.804873
0.920516
1.02472
1.16021
1.30319
1.45853
1.64229
1.96289
2.51333
3.28694
0.962425
0.977232
0.97568
0.851564
0.547617
0.543343
0.655435
0.780661
0.895496
1.05699
1.25823
1.57346
1.95939
2.08382
2.15154
)
;
    }
    airfoil
    {
        type            calculated;
        value           nonuniform List<scalar> 
60
(
0.276413
0.271901
0.26877
0.275658
0.285754
0.285569
0.254744
0.191497
0.119872
0.0846702
0.0764238
0.0769024
0.257746
0.727842
1.64938
2.89183
2.89125
2.82682
2.78526
2.77182
2.79868
2.90318
3.14443
3.38406
3.49378
3.45743
3.13592
2.75285
2.2657
1.7651
2.09527
3.0151
4.03747
4.4711
4.30081
3.83227
3.46326
3.4369
3.45859
3.50385
3.50751
3.51062
3.51694
3.52632
3.55102
1.73399
0.466193
0.18049
0.23443
0.293851
0.344073
0.420853
0.466872
0.463535
0.442448
0.43222
0.439681
0.440861
0.430682
0.427987
)
;
    }
    top
    {
        type            symmetryPlane;
    }
    bottom
    {
        type            symmetryPlane;
    }
    defaultFaces
    {
        type            empty;
    }
}


// ************************************************************************* //
