/*--------------------------------*- C++ -*----------------------------------*\
  =========                 |
  \\      /  F ield         | OpenFOAM: The Open Source CFD Toolbox
   \\    /   O peration     | Website:  https://openfoam.org
    \\  /    A nd           | Version:  7
     \\/     M anipulation  |
\*---------------------------------------------------------------------------*/
FoamFile
{
    version     2.0;
    format      ascii;
    class       volScalarField;
    location    "6.5";
    object      p;
}
// * * * * * * * * * * * * * * * * * * * * * * * * * * * * * * * * * * * * * //

dimensions      [1 -1 -2 0 0 0 0];

internalField   nonuniform List<scalar> 
90000
(
0.552734
0.588817
0.627621
0.66547
0.702022
0.736669
0.769375
0.80005
0.82802
0.854027
0.876671
0.897624
0.914971
0.930852
0.943449
0.954839
0.963489
0.970984
0.976394
0.981241
0.984311
0.986969
0.988534
0.987971
0.985172
0.979944
0.972868
0.96677
0.961025
0.961405
0.96301
0.965433
0.968222
0.970944
0.973126
0.974607
0.975176
0.974413
0.972477
0.970029
0.968202
0.966775
0.967431
0.968105
0.969839
0.97217
0.972632
0.971844
0.969983
0.968228
0.96715
0.967608
0.968863
0.970214
0.970179
0.969381
0.967831
0.966537
0.966813
0.967547
0.967425
0.966779
0.965549
0.964864
0.964951
0.965087
0.964749
0.96411
0.963555
0.963222
0.962811
0.96219
0.961545
0.961035
0.960299
0.959336
0.958526
0.958025
0.957555
0.956854
0.955945
0.955071
0.954218
0.95349
0.952928
0.952351
0.951776
0.951251
0.950778
0.950243
0.949622
0.948914
0.948252
0.947642
0.946946
0.946022
0.944742
0.943247
0.942146
0.940512
0.523402
0.523812
0.525041
0.527517
0.531991
0.538732
0.54872
0.561726
0.578906
0.599279
0.623983
0.651223
0.68186
0.713678
0.746815
0.779267
0.810103
0.838974
0.863627
0.88584
0.902124
0.916907
0.926233
0.935029
0.939829
0.944745
0.948742
0.95526
0.962945
0.968055
0.971307
0.974317
0.97682
0.978413
0.977892
0.976947
0.974897
0.9714
0.968496
0.967091
0.967419
0.968288
0.96973
0.971969
0.97409
0.97349
0.972014
0.969661
0.967592
0.967082
0.967455
0.968614
0.970125
0.970668
0.969804
0.968012
0.966926
0.966606
0.967086
0.967774
0.96737
0.966283
0.965408
0.964893
0.965092
0.965194
0.964776
0.964108
0.963545
0.963293
0.962905
0.962264
0.961664
0.961127
0.960307
0.959323
0.958507
0.958074
0.95758
0.956818
0.955902
0.955037
0.954206
0.953526
0.952987
0.952381
0.951764
0.951247
0.950785
0.950241
0.949592
0.948875
0.948209
0.947608
0.946918
0.945983
0.944699
0.94323
0.942134
0.940497
0.523328
0.523329
0.523329
0.523332
0.523344
0.523397
0.523539
0.523857
0.524487
0.525576
0.527489
0.530506
0.5354
0.542468
0.553034
0.566984
0.5861
0.609205
0.638046
0.670118
0.706349
0.743815
0.782038
0.819597
0.854461
0.887858
0.914164
0.935779
0.949781
0.960341
0.965444
0.968557
0.969947
0.971169
0.970951
0.968944
0.964011
0.964056
0.966036
0.968192
0.971711
0.975013
0.976684
0.975881
0.974534
0.970705
0.967805
0.966196
0.966408
0.967791
0.970582
0.972349
0.97182
0.970103
0.967923
0.96651
0.966702
0.968035
0.968793
0.968208
0.966726
0.965558
0.965197
0.965602
0.965902
0.965378
0.964564
0.964028
0.963773
0.963523
0.96296
0.962323
0.961924
0.961338
0.960335
0.959341
0.958675
0.958259
0.957626
0.956723
0.955866
0.955007
0.954215
0.953623
0.953107
0.952484
0.951867
0.951389
0.950873
0.950277
0.949588
0.948863
0.948223
0.94766
0.946976
0.945995
0.944673
0.943223
0.942168
0.940552
0.523361
0.523355
0.523346
0.523338
0.523331
0.523333
0.523327
0.523324
0.523323
0.523323
0.523327
0.523346
0.523389
0.523509
0.523806
0.524384
0.52547
0.527334
0.530668
0.535948
0.544714
0.557256
0.576152
0.600316
0.632831
0.670522
0.714623
0.760027
0.803232
0.844793
0.876471
0.904674
0.920645
0.934565
0.941372
0.947374
0.953054
0.961601
0.970559
0.977566
0.981703
0.981284
0.98004
0.976969
0.969873
0.965521
0.964907
0.965924
0.96923
0.97259
0.974032
0.973213
0.970114
0.967415
0.965798
0.966717
0.968797
0.970038
0.96916
0.967205
0.965277
0.965251
0.965966
0.966572
0.966038
0.965008
0.964326
0.964213
0.964052
0.96352
0.962866
0.962442
0.962105
0.96136
0.960268
0.959365
0.958828
0.958291
0.957544
0.956643
0.95583
0.954949
0.954214
0.953692
0.953173
0.952525
0.95187
0.951416
0.950886
0.950268
0.949561
0.948839
0.948201
0.947645
0.946957
0.945954
0.944624
0.943214
0.942179
0.940569
0.523387
0.523387
0.523386
0.523386
0.523384
0.523382
0.52338
0.523368
0.523351
0.523336
0.523324
0.523317
0.523315
0.523334
0.523323
0.523315
0.523308
0.52331
0.523331
0.523402
0.523586
0.524036
0.525018
0.52688
0.530604
0.536917
0.548388
0.565494
0.592287
0.62652
0.67133
0.720839
0.77299
0.82362
0.866276
0.905187
0.932027
0.951476
0.959254
0.966324
0.970127
0.972385
0.970567
0.965896
0.964149
0.965606
0.969283
0.973246
0.975686
0.974872
0.972906
0.968921
0.966645
0.965485
0.967007
0.970021
0.970679
0.96948
0.967556
0.9657
0.965383
0.966312
0.967074
0.966686
0.965673
0.964839
0.964558
0.964527
0.964148
0.963478
0.962947
0.962698
0.962258
0.9614
0.960373
0.959488
0.958988
0.95838
0.957531
0.956642
0.955822
0.954931
0.95425
0.953798
0.953279
0.95263
0.951967
0.951501
0.950934
0.950269
0.949529
0.94882
0.948207
0.947676
0.946987
0.945931
0.944578
0.943212
0.942208
0.940609
0.523402
0.523401
0.5234
0.5234
0.5234
0.5234
0.523399
0.523398
0.523396
0.523393
0.52339
0.523384
0.523378
0.523369
0.52336
0.523342
0.523325
0.523313
0.523309
0.523311
0.523352
0.523338
0.523322
0.523316
0.523339
0.523439
0.523717
0.52443
0.526198
0.529795
0.537466
0.550532
0.573875
0.606404
0.652441
0.706077
0.7636
0.820341
0.862138
0.899433
0.918499
0.937355
0.944508
0.953185
0.962604
0.973443
0.981047
0.981416
0.980095
0.975572
0.967476
0.964092
0.964699
0.967666
0.971242
0.97286
0.971505
0.968358
0.965263
0.965105
0.966335
0.967764
0.967404
0.966303
0.965231
0.964926
0.965056
0.964772
0.964087
0.963431
0.963116
0.962902
0.962303
0.961232
0.960295
0.95967
0.959066
0.958295
0.957393
0.956628
0.955836
0.954937
0.954309
0.953874
0.953312
0.952673
0.952043
0.951501
0.950942
0.950285
0.94953
0.948817
0.94821
0.94766
0.94697
0.945907
0.94454
0.943222
0.942259
0.940669
0.52341
0.523409
0.523408
0.523407
0.523407
0.523406
0.523405
0.523404
0.523403
0.523402
0.5234
0.523399
0.523397
0.523395
0.523393
0.52339
0.523386
0.523381
0.523373
0.523366
0.523354
0.523343
0.523335
0.523331
0.523333
0.523343
0.523402
0.523385
0.523372
0.523401
0.523523
0.523865
0.524998
0.527681
0.534265
0.546516
0.570476
0.605555
0.657359
0.716556
0.77968
0.840264
0.888015
0.929778
0.952148
0.964362
0.970433
0.973566
0.970868
0.962778
0.963338
0.965736
0.970483
0.974569
0.973802
0.971527
0.967055
0.964206
0.964287
0.966547
0.968672
0.968158
0.966955
0.965538
0.965089
0.96553
0.965473
0.964748
0.964002
0.963445
0.963467
0.963184
0.962327
0.9613
0.96041
0.959827
0.959171
0.958273
0.957327
0.956609
0.95579
0.954919
0.954379
0.953974
0.953398
0.952789
0.952169
0.951501
0.950881
0.950237
0.949503
0.948805
0.9482
0.947642
0.946931
0.945843
0.944517
0.943251
0.942293
0.940714
0.523405
0.523405
0.523404
0.523402
0.523402
0.5234
0.523399
0.523398
0.523397
0.523396
0.523395
0.523394
0.523393
0.523391
0.52339
0.523388
0.523387
0.523385
0.523384
0.523381
0.52338
0.523377
0.523375
0.523372
0.523369
0.523366
0.523359
0.523362
0.52337
0.523382
0.523403
0.523459
0.523449
0.523463
0.523551
0.523873
0.524989
0.527891
0.535649
0.550703
0.580972
0.624224
0.686274
0.755192
0.819024
0.875592
0.906125
0.93364
0.942657
0.952806
0.966032
0.976495
0.981546
0.980128
0.975164
0.965933
0.962271
0.963086
0.96655
0.970672
0.970193
0.968152
0.965374
0.96491
0.965562
0.966284
0.965643
0.964669
0.963835
0.963686
0.963692
0.96316
0.962046
0.961221
0.960716
0.960036
0.959064
0.958066
0.957405
0.956758
0.955879
0.955027
0.954509
0.954062
0.953462
0.952872
0.952257
0.951584
0.950901
0.950214
0.949476
0.948804
0.948241
0.94769
0.946968
0.945801
0.944466
0.943268
0.942336
0.940758
0.523387
0.523387
0.523386
0.523385
0.523384
0.523384
0.523383
0.523383
0.523382
0.523381
0.523381
0.52338
0.52338
0.523379
0.523379
0.523378
0.523378
0.523378
0.523378
0.523378
0.523378
0.523379
0.52338
0.523382
0.523384
0.523386
0.523387
0.523389
0.523391
0.523395
0.523395
0.523401
0.523414
0.523429
0.523459
0.523452
0.523452
0.523477
0.523608
0.524099
0.52587
0.530497
0.542894
0.566447
0.610956
0.671208
0.745264
0.819239
0.880479
0.930521
0.956728
0.968164
0.972897
0.97147
0.962265
0.961379
0.963886
0.969074
0.972534
0.971151
0.968225
0.964747
0.964487
0.965637
0.967095
0.966734
0.965498
0.964111
0.96386
0.964356
0.96407
0.963103
0.961956
0.961232
0.960979
0.960301
0.959111
0.957921
0.957386
0.956798
0.955916
0.955156
0.954687
0.954142
0.953535
0.95297
0.952284
0.951544
0.950869
0.950203
0.949483
0.948842
0.948269
0.94768
0.946927
0.94577
0.944459
0.943314
0.942408
0.940841
0.523364
0.523364
0.523363
0.523363
0.523362
0.523362
0.523362
0.523361
0.523361
0.523361
0.523361
0.523361
0.523362
0.523362
0.523363
0.523364
0.523365
0.523366
0.523367
0.523369
0.523371
0.523374
0.523377
0.52338
0.523384
0.523388
0.523392
0.523396
0.523401
0.523404
0.523408
0.523409
0.523411
0.523414
0.523415
0.523423
0.523431
0.523442
0.523435
0.523425
0.523433
0.523495
0.523805
0.524943
0.528909
0.539056
0.564235
0.606706
0.675
0.754668
0.828131
0.886407
0.918655
0.939021
0.949391
0.963056
0.974539
0.979237
0.977392
0.971205
0.962576
0.962901
0.965141
0.968361
0.968023
0.96607
0.964169
0.963959
0.964954
0.96501
0.964107
0.962489
0.961735
0.961711
0.961292
0.960181
0.958753
0.957958
0.957437
0.956768
0.955946
0.955299
0.954808
0.954197
0.953625
0.953086
0.952338
0.951531
0.950845
0.95017
0.949453
0.948844
0.948264
0.947652
0.946881
0.945695
0.944486
0.943386
0.942473
0.94091
0.523353
0.523352
0.523352
0.523351
0.523351
0.52335
0.52335
0.523349
0.523349
0.523349
0.52335
0.52335
0.52335
0.523351
0.523352
0.523353
0.523354
0.523356
0.523357
0.52336
0.523363
0.523366
0.523369
0.523373
0.523376
0.52338
0.523384
0.523388
0.523391
0.523394
0.523398
0.5234
0.523402
0.523403
0.523402
0.523402
0.523401
0.5234
0.523399
0.523396
0.523393
0.523384
0.52337
0.523373
0.52342
0.523667
0.524812
0.528579
0.540631
0.567205
0.619752
0.694561
0.777735
0.859607
0.918004
0.955641
0.96573
0.972346
0.968143
0.959863
0.961301
0.965912
0.970399
0.969748
0.966853
0.963361
0.96338
0.965219
0.966311
0.965353
0.962946
0.961847
0.962206
0.962265
0.961507
0.959685
0.958408
0.958096
0.957557
0.956771
0.955979
0.955479
0.954923
0.954245
0.953728
0.953168
0.952374
0.95148
0.950816
0.95014
0.949432
0.948854
0.948265
0.947633
0.946823
0.945649
0.944531
0.943461
0.942527
0.940958
0.523356
0.523356
0.523355
0.523355
0.523355
0.523354
0.523354
0.523354
0.523354
0.523354
0.523354
0.523355
0.523355
0.523355
0.523356
0.523357
0.523358
0.523359
0.523361
0.523362
0.523364
0.523366
0.523368
0.52337
0.523372
0.523374
0.523375
0.523377
0.523378
0.523379
0.52338
0.52338
0.52338
0.52338
0.523381
0.523378
0.523375
0.523372
0.523368
0.523364
0.523359
0.523353
0.523349
0.523341
0.523329
0.523324
0.523334
0.523394
0.523717
0.525047
0.530496
0.545382
0.583085
0.645608
0.732991
0.825627
0.880893
0.927561
0.938716
0.954173
0.966303
0.977183
0.97573
0.970961
0.962293
0.9624
0.964755
0.967806
0.966837
0.963712
0.96177
0.962071
0.963306
0.962781
0.960887
0.959283
0.958481
0.958247
0.957633
0.956792
0.95617
0.955658
0.955005
0.954286
0.953836
0.953216
0.952312
0.951447
0.950803
0.950092
0.94942
0.948873
0.948256
0.947593
0.946763
0.945617
0.94458
0.943535
0.942584
0.941
0.523371
0.523371
0.523371
0.523372
0.523372
0.523372
0.523372
0.523372
0.523373
0.523373
0.523373
0.523373
0.523373
0.523373
0.523373
0.523373
0.523373
0.523373
0.523373
0.523373
0.523372
0.523371
0.523371
0.523371
0.52337
0.523369
0.523367
0.523366
0.523365
0.523363
0.523362
0.523361
0.52336
0.52336
0.523359
0.523355
0.523351
0.523347
0.523345
0.523341
0.523336
0.523334
0.523332
0.52333
0.52333
0.523329
0.523322
0.523321
0.523331
0.523354
0.523458
0.523946
0.526438
0.534561
0.560748
0.61185
0.696658
0.792563
0.872214
0.936924
0.957175
0.970162
0.968481
0.959782
0.960711
0.965883
0.970266
0.968682
0.964276
0.961233
0.961485
0.96432
0.964128
0.962452
0.959966
0.958947
0.959051
0.958504
0.957593
0.95677
0.956451
0.955883
0.955028
0.95432
0.953945
0.953266
0.952245
0.951428
0.950785
0.950049
0.949396
0.948871
0.94823
0.94755
0.946701
0.945598
0.944644
0.943609
0.942655
0.941048
0.523395
0.523395
0.523395
0.523395
0.523396
0.523396
0.523396
0.523396
0.523396
0.523395
0.523394
0.523394
0.523392
0.523391
0.523389
0.523388
0.523386
0.523384
0.523382
0.523379
0.523376
0.523373
0.523369
0.523367
0.523365
0.523364
0.523362
0.523358
0.523354
0.52335
0.523346
0.523343
0.523341
0.523336
0.523332
0.52333
0.523329
0.523329
0.52333
0.52333
0.523333
0.523337
0.523341
0.523345
0.523348
0.523349
0.523348
0.523351
0.523358
0.523365
0.523367
0.523373
0.523404
0.523594
0.524762
0.529526
0.548036
0.58883
0.669181
0.769153
0.848386
0.913865
0.930547
0.94789
0.964071
0.976852
0.975031
0.968631
0.960096
0.960655
0.964049
0.966578
0.964556
0.960737
0.959267
0.95968
0.959526
0.958531
0.957396
0.95702
0.956741
0.956032
0.955105
0.954526
0.954025
0.953215
0.952175
0.951434
0.950764
0.950013
0.949463
0.948836
0.948165
0.947492
0.946639
0.945638
0.944729
0.943693
0.942734
0.941104
0.523415
0.523415
0.523414
0.523414
0.523413
0.523412
0.523411
0.52341
0.523408
0.523407
0.523405
0.523403
0.5234
0.523396
0.523393
0.523389
0.523385
0.523381
0.523376
0.523372
0.523368
0.523364
0.52336
0.523353
0.523346
0.523339
0.523331
0.523325
0.523319
0.523314
0.52331
0.523308
0.523307
0.523306
0.523306
0.523308
0.523312
0.523317
0.523324
0.523334
0.523345
0.523355
0.523367
0.523379
0.523384
0.523386
0.523387
0.523386
0.523384
0.523377
0.523369
0.52336
0.523351
0.523348
0.523358
0.523447
0.524101
0.52711
0.540656
0.575368
0.650773
0.749723
0.845533
0.922659
0.953534
0.967855
0.965816
0.956784
0.959565
0.965845
0.968958
0.966675
0.960567
0.958964
0.959892
0.960822
0.959713
0.957954
0.957225
0.957444
0.95698
0.955943
0.955073
0.954763
0.954147
0.953099
0.952157
0.951514
0.950773
0.950022
0.949475
0.948849
0.948116
0.947447
0.946595
0.945692
0.944828
0.943775
0.94281
0.941161
0.523423
0.523422
0.52342
0.523418
0.523416
0.523414
0.523412
0.52341
0.523407
0.523404
0.523402
0.523398
0.523395
0.523391
0.523385
0.52338
0.523375
0.523368
0.523361
0.523354
0.523347
0.52334
0.523334
0.523326
0.523319
0.523312
0.523306
0.523302
0.523297
0.523292
0.523291
0.52329
0.52329
0.523291
0.523293
0.523298
0.523304
0.523314
0.523327
0.523343
0.523359
0.523374
0.52339
0.523407
0.523417
0.52342
0.52342
0.523419
0.52341
0.523392
0.523371
0.523349
0.523329
0.523314
0.523311
0.523315
0.523334
0.523403
0.523816
0.525974
0.536722
0.567364
0.640877
0.741597
0.835505
0.903364
0.930479
0.946532
0.966941
0.976802
0.973211
0.961818
0.957196
0.959083
0.962495
0.96156
0.958766
0.957443
0.95783
0.957826
0.956994
0.955845
0.955307
0.954992
0.954163
0.952974
0.952211
0.951601
0.950767
0.950058
0.9495
0.948804
0.94805
0.947396
0.946569
0.945771
0.944931
0.943852
0.942876
0.941208
0.523417
0.523415
0.523413
0.523411
0.523408
0.523405
0.523402
0.5234
0.523397
0.523393
0.52339
0.523386
0.523382
0.523378
0.523373
0.523367
0.523361
0.523354
0.523347
0.52334
0.523333
0.523325
0.523318
0.523311
0.523304
0.523298
0.523293
0.523289
0.523286
0.523283
0.523282
0.523282
0.523283
0.523286
0.52329
0.523297
0.523308
0.52332
0.523335
0.523351
0.523366
0.523382
0.523399
0.523415
0.52343
0.523435
0.523436
0.523433
0.523423
0.523403
0.523378
0.523349
0.523323
0.523305
0.523299
0.523301
0.52331
0.523339
0.523386
0.523453
0.523753
0.525471
0.534813
0.564902
0.636216
0.73721
0.846485
0.921835
0.957431
0.967063
0.960656
0.95488
0.959791
0.965424
0.964087
0.95979
0.9572
0.957717
0.958815
0.957987
0.956292
0.95556
0.955731
0.955209
0.953972
0.952925
0.952408
0.951701
0.95078
0.950138
0.949519
0.948756
0.948005
0.947363
0.946577
0.94587
0.945027
0.94392
0.94294
0.941255
0.523399
0.523397
0.523396
0.523394
0.523391
0.523389
0.523385
0.52338
0.523377
0.523375
0.523371
0.523367
0.523364
0.523361
0.523357
0.523353
0.523349
0.523344
0.523339
0.523334
0.52333
0.523324
0.523319
0.523314
0.523309
0.523305
0.523301
0.523298
0.523296
0.523295
0.523293
0.523294
0.523297
0.523301
0.523306
0.523313
0.523321
0.52333
0.52334
0.523352
0.523366
0.523381
0.523396
0.52341
0.523423
0.523433
0.523434
0.523431
0.523423
0.52341
0.523389
0.523362
0.523334
0.523309
0.5233
0.523303
0.523313
0.523335
0.52337
0.52343
0.523467
0.523487
0.523687
0.5253
0.53394
0.565387
0.638719
0.747014
0.849471
0.90613
0.934115
0.951096
0.972865
0.97193
0.965836
0.956469
0.957136
0.960091
0.959551
0.957002
0.955696
0.956087
0.956177
0.955222
0.953843
0.953107
0.952635
0.951735
0.950783
0.95022
0.949519
0.948679
0.947966
0.947348
0.946608
0.94597
0.945114
0.943979
0.943
0.941304
0.523359
0.523358
0.523357
0.523357
0.523356
0.523356
0.523356
0.523356
0.523356
0.523356
0.523355
0.523354
0.523352
0.52335
0.523348
0.523347
0.523346
0.523346
0.523345
0.523344
0.523343
0.523342
0.523341
0.52334
0.523338
0.523336
0.523335
0.523333
0.523332
0.52333
0.523327
0.523328
0.52333
0.52333
0.523331
0.523332
0.523332
0.523335
0.52334
0.523345
0.523351
0.523359
0.523368
0.523378
0.52339
0.523406
0.523422
0.523424
0.52342
0.523416
0.523406
0.523389
0.523366
0.523336
0.523313
0.523314
0.523324
0.52334
0.523363
0.523404
0.52345
0.523462
0.523433
0.523401
0.523574
0.525295
0.53449
0.570773
0.648231
0.758739
0.873928
0.934418
0.964315
0.963617
0.953748
0.956424
0.962804
0.962402
0.958811
0.955059
0.955523
0.957301
0.956488
0.954551
0.953521
0.953456
0.95289
0.951797
0.950845
0.950307
0.949523
0.948654
0.947969
0.947337
0.946661
0.946067
0.945186
0.944049
0.943071
0.941353
0.523315
0.523317
0.523319
0.523321
0.523324
0.523328
0.523331
0.523334
0.523336
0.523338
0.52334
0.523342
0.523345
0.523349
0.523354
0.523359
0.523364
0.523369
0.523374
0.523379
0.523383
0.523388
0.523393
0.523397
0.523399
0.5234
0.523401
0.523399
0.523396
0.523391
0.523385
0.523379
0.523371
0.523363
0.523354
0.523345
0.523337
0.523328
0.523319
0.52331
0.523303
0.5233
0.523301
0.523306
0.52332
0.523342
0.523369
0.523396
0.523417
0.523432
0.523439
0.52344
0.523431
0.523406
0.523369
0.523344
0.52334
0.523342
0.523347
0.523362
0.523399
0.523431
0.523415
0.523387
0.523333
0.523312
0.523533
0.525744
0.536776
0.578767
0.667368
0.781271
0.880212
0.91733
0.93926
0.963699
0.971364
0.965294
0.953728
0.954321
0.958264
0.958105
0.955563
0.953873
0.953959
0.953861
0.952993
0.951669
0.951035
0.950397
0.949451
0.948612
0.948035
0.947375
0.946761
0.946181
0.945242
0.944092
0.943127
0.941385
0.523291
0.523294
0.523296
0.5233
0.523304
0.523308
0.523313
0.523319
0.523325
0.523333
0.52334
0.523348
0.523355
0.523364
0.523372
0.523381
0.52339
0.523399
0.523408
0.523418
0.523428
0.523436
0.523445
0.523454
0.52346
0.523462
0.523463
0.523463
0.52346
0.523452
0.523441
0.523427
0.52341
0.523391
0.523373
0.523354
0.523333
0.523313
0.523294
0.523275
0.523255
0.523243
0.523241
0.523242
0.523253
0.523276
0.52331
0.523351
0.523398
0.523446
0.523491
0.523509
0.523512
0.523504
0.523469
0.523416
0.523366
0.523332
0.523319
0.523316
0.523325
0.52336
0.523384
0.523375
0.523357
0.523332
0.523307
0.523343
0.5237
0.52668
0.541276
0.593769
0.690843
0.813168
0.909121
0.951621
0.961909
0.950703
0.95208
0.959638
0.961444
0.957651
0.953207
0.953539
0.95478
0.954082
0.952492
0.951596
0.951299
0.950491
0.949371
0.948699
0.948117
0.9474
0.946826
0.946277
0.94525
0.944138
0.943199
0.941427
0.523289
0.523293
0.523297
0.523302
0.523306
0.523311
0.523317
0.523322
0.523329
0.523336
0.523344
0.523354
0.523364
0.523374
0.523384
0.523393
0.523402
0.523412
0.523421
0.523432
0.523442
0.523452
0.523461
0.52347
0.523479
0.523485
0.523488
0.523488
0.523485
0.52348
0.52347
0.523455
0.523435
0.523413
0.523389
0.523363
0.523336
0.523309
0.523285
0.523263
0.523243
0.523225
0.523217
0.523219
0.52323
0.523251
0.523282
0.523324
0.52338
0.523446
0.523513
0.523561
0.523572
0.523571
0.52355
0.523493
0.52341
0.523332
0.523293
0.523283
0.523278
0.523294
0.523343
0.52338
0.523385
0.523383
0.523365
0.523361
0.523363
0.523413
0.523943
0.528231
0.549036
0.614474
0.727283
0.836501
0.905676
0.930293
0.955949
0.969347
0.96401
0.952427
0.952522
0.955788
0.955487
0.953358
0.952013
0.952042
0.951655
0.95039
0.949323
0.948852
0.9482
0.94747
0.947008
0.946374
0.945236
0.944133
0.943217
0.941446
0.523305
0.523307
0.523309
0.523312
0.523315
0.523319
0.523324
0.523329
0.523333
0.523338
0.523343
0.523348
0.523355
0.523363
0.523371
0.523381
0.523391
0.523401
0.523411
0.52342
0.52343
0.523439
0.523448
0.523457
0.523465
0.523473
0.523482
0.523486
0.523485
0.523479
0.523469
0.523457
0.523444
0.523429
0.523409
0.523385
0.523359
0.523331
0.523299
0.52327
0.523248
0.523229
0.523219
0.523224
0.523237
0.523257
0.523284
0.523318
0.523366
0.523429
0.523501
0.523564
0.523592
0.523591
0.523576
0.523534
0.523456
0.523353
0.523284
0.523267
0.523261
0.523267
0.523312
0.523386
0.523419
0.523425
0.523415
0.523383
0.523359
0.523352
0.523319
0.523369
0.524229
0.53107
0.563012
0.643181
0.764614
0.881289
0.942953
0.959578
0.948631
0.949567
0.956578
0.958591
0.955347
0.951393
0.951746
0.952698
0.951685
0.95016
0.949451
0.948967
0.948215
0.947471
0.947083
0.946341
0.94518
0.944221
0.943305
0.941489
0.523313
0.523313
0.523313
0.523312
0.523311
0.52331
0.523308
0.523306
0.523304
0.523303
0.523301
0.5233
0.523299
0.523299
0.5233
0.523302
0.523305
0.523309
0.523314
0.523322
0.52333
0.52334
0.523349
0.523359
0.52337
0.523381
0.523392
0.523406
0.52342
0.523431
0.523438
0.523442
0.523444
0.523444
0.523442
0.523436
0.523425
0.523408
0.523386
0.523358
0.523327
0.523298
0.523272
0.523264
0.523272
0.523281
0.523292
0.523313
0.523344
0.523383
0.523434
0.523499
0.523562
0.523579
0.523564
0.523535
0.523486
0.523404
0.523308
0.523265
0.523258
0.523262
0.5233
0.523379
0.523433
0.523442
0.523436
0.523393
0.523347
0.52333
0.523302
0.523252
0.523145
0.523268
0.525032
0.536665
0.582539
0.686647
0.807312
0.891068
0.924166
0.950811
0.965797
0.961187
0.950436
0.950683
0.953722
0.953294
0.951085
0.949819
0.949987
0.94931
0.948267
0.947735
0.947337
0.946352
0.945125
0.944278
0.943341
0.941484
0.523292
0.523285
0.523279
0.523273
0.523267
0.52326
0.523252
0.523244
0.523238
0.523231
0.523225
0.52322
0.523215
0.523209
0.523204
0.523202
0.523201
0.523201
0.523202
0.523205
0.523211
0.523218
0.523227
0.523237
0.523248
0.523262
0.523279
0.5233
0.523324
0.523352
0.523385
0.523418
0.523447
0.523472
0.523493
0.523512
0.523525
0.52353
0.52353
0.523522
0.523501
0.52347
0.523433
0.523393
0.523357
0.523325
0.523303
0.523298
0.523301
0.52331
0.523331
0.523373
0.523436
0.523497
0.523521
0.523517
0.523504
0.523469
0.523398
0.523322
0.523294
0.52329
0.523303
0.52336
0.523424
0.523435
0.523427
0.523387
0.523335
0.523317
0.523295
0.523265
0.523222
0.523131
0.523013
0.523321
0.526741
0.54789
0.614401
0.732283
0.862587
0.933677
0.955743
0.947437
0.947428
0.954736
0.956169
0.95278
0.949747
0.950253
0.950537
0.949427
0.948236
0.948026
0.947406
0.946142
0.945026
0.944346
0.943383
0.941487
0.52328
0.523265
0.523252
0.52324
0.523227
0.523215
0.523207
0.523199
0.523191
0.523184
0.523178
0.523173
0.523168
0.523162
0.523157
0.523153
0.523151
0.523152
0.523153
0.523155
0.523157
0.523163
0.523171
0.523183
0.523196
0.523211
0.52323
0.523252
0.523277
0.523308
0.523347
0.523393
0.523443
0.52349
0.523531
0.523568
0.523598
0.523617
0.52362
0.523621
0.523615
0.523598
0.523565
0.523516
0.523452
0.523381
0.523314
0.523268
0.523254
0.523254
0.523259
0.523278
0.523319
0.523382
0.523458
0.523512
0.523529
0.523533
0.523515
0.523453
0.523376
0.523334
0.523322
0.523334
0.523377
0.523397
0.523393
0.523374
0.523336
0.523322
0.523328
0.523346
0.52331
0.523206
0.523074
0.522857
0.52269
0.52346
0.530732
0.567243
0.662632
0.787256
0.88507
0.920707
0.948314
0.96317
0.958283
0.948249
0.949244
0.952125
0.951031
0.948686
0.948293
0.948419
0.947527
0.946027
0.945094
0.944428
0.943366
0.941486
0.523324
0.52331
0.523294
0.523278
0.523263
0.523247
0.523232
0.523219
0.523205
0.523192
0.52318
0.52317
0.523162
0.523157
0.523154
0.523152
0.523148
0.523146
0.523149
0.523152
0.523155
0.52316
0.523168
0.523177
0.523187
0.523201
0.523219
0.52324
0.523267
0.523299
0.523337
0.523381
0.523431
0.523483
0.523536
0.523577
0.523603
0.523624
0.523635
0.523632
0.523623
0.523606
0.523579
0.523537
0.52348
0.523415
0.523348
0.523282
0.523234
0.523224
0.52323
0.523249
0.523281
0.523333
0.523412
0.523504
0.523567
0.523584
0.523583
0.523546
0.523458
0.52336
0.523308
0.523296
0.523304
0.523335
0.523363
0.523367
0.523372
0.523383
0.523411
0.523411
0.523356
0.523231
0.523064
0.522774
0.522395
0.522065
0.522209
0.524613
0.540953
0.602137
0.718613
0.853468
0.929497
0.953858
0.944449
0.945603
0.954075
0.953618
0.949543
0.947839
0.949289
0.948797
0.94698
0.945618
0.945343
0.944571
0.943362
0.941485
0.523431
0.523427
0.523423
0.523418
0.523413
0.523407
0.5234
0.523392
0.523383
0.523372
0.523361
0.523349
0.523338
0.523327
0.523317
0.52331
0.523302
0.523295
0.523289
0.523285
0.52328
0.523276
0.523276
0.523279
0.523282
0.523285
0.52329
0.523297
0.523306
0.523319
0.523339
0.523361
0.523387
0.52342
0.52346
0.523495
0.523521
0.523544
0.523561
0.523559
0.52355
0.52354
0.523523
0.523489
0.523445
0.523412
0.523385
0.523349
0.523299
0.523257
0.52326
0.523281
0.523307
0.523347
0.523408
0.523495
0.52358
0.523604
0.523599
0.52356
0.523478
0.523355
0.523267
0.523257
0.523264
0.523302
0.523355
0.523421
0.523475
0.523507
0.523492
0.523449
0.523361
0.523216
0.522939
0.52258
0.522197
0.521942
0.521861
0.521914
0.52267
0.528853
0.561927
0.655637
0.781667
0.884877
0.918616
0.947699
0.960037
0.95464
0.946347
0.948172
0.950652
0.948804
0.946101
0.945604
0.945664
0.944705
0.943303
0.941545
0.523558
0.52356
0.523562
0.523563
0.523564
0.523566
0.523568
0.523569
0.523568
0.523568
0.523566
0.523564
0.523561
0.523557
0.523552
0.523546
0.523539
0.523531
0.523522
0.523509
0.523493
0.523475
0.523457
0.523438
0.523418
0.523398
0.523382
0.523367
0.523349
0.523332
0.523315
0.523301
0.523295
0.523293
0.523296
0.523303
0.523315
0.523335
0.523352
0.523363
0.523372
0.523382
0.523386
0.523387
0.523397
0.523418
0.523438
0.523446
0.523441
0.523418
0.523428
0.523446
0.52344
0.52345
0.523459
0.523482
0.523532
0.523571
0.523567
0.523523
0.523434
0.523328
0.523256
0.523245
0.523257
0.523309
0.523427
0.523559
0.523614
0.523602
0.523543
0.52345
0.523289
0.523032
0.522707
0.52236
0.522101
0.521923
0.521929
0.522042
0.522118
0.522322
0.524379
0.539538
0.599912
0.718632
0.853857
0.930661
0.950535
0.941008
0.945178
0.953307
0.951614
0.946498
0.945309
0.946448
0.946019
0.944429
0.943263
0.941744
0.523585
0.523592
0.523592
0.523591
0.523592
0.523592
0.523593
0.523595
0.523595
0.523597
0.523598
0.523596
0.523595
0.523595
0.523596
0.523597
0.523596
0.523596
0.523597
0.523587
0.52357
0.523552
0.523526
0.523501
0.523472
0.523438
0.523408
0.52338
0.52335
0.523317
0.523281
0.523248
0.523223
0.523204
0.523192
0.52319
0.523189
0.523196
0.523214
0.523234
0.52325
0.523268
0.523289
0.523317
0.52336
0.523429
0.523519
0.523576
0.523594
0.523603
0.523615
0.523611
0.52357
0.523523
0.523476
0.523424
0.523427
0.523445
0.523453
0.523418
0.523366
0.523322
0.523284
0.523279
0.523319
0.523418
0.523573
0.523679
0.523683
0.523643
0.523545
0.523353
0.523066
0.522747
0.522463
0.522255
0.522052
0.522039
0.522087
0.522227
0.522255
0.522232
0.522132
0.522581
0.528463
0.562093
0.660218
0.789593
0.886593
0.920161
0.951779
0.957946
0.95141
0.944145
0.945665
0.947448
0.945893
0.943866
0.943435
0.942089
0.523545
0.523541
0.523537
0.523532
0.523531
0.523531
0.523528
0.523523
0.523519
0.523516
0.523513
0.52351
0.523505
0.523502
0.523499
0.523501
0.523512
0.523512
0.523511
0.523516
0.523503
0.523486
0.523478
0.523448
0.523408
0.523383
0.52337
0.52336
0.523345
0.523322
0.52329
0.523255
0.523227
0.523208
0.52319
0.523189
0.523199
0.523202
0.523219
0.52324
0.523241
0.52325
0.523282
0.523339
0.523406
0.523482
0.523576
0.523663
0.523687
0.523689
0.523689
0.523675
0.523621
0.523537
0.523404
0.52331
0.523318
0.523343
0.523363
0.523367
0.523363
0.523375
0.523393
0.523424
0.523486
0.523565
0.523657
0.523715
0.523704
0.523623
0.523415
0.523091
0.522783
0.522504
0.522358
0.522196
0.522197
0.522242
0.522295
0.522341
0.522317
0.522222
0.522012
0.521618
0.521664
0.523786
0.540954
0.60629
0.732993
0.866466
0.936976
0.948595
0.938119
0.943822
0.950061
0.948229
0.94469
0.943447
0.943634
0.942289
0.523256
0.523248
0.523243
0.523236
0.523226
0.52322
0.523216
0.523213
0.523211
0.523209
0.523207
0.523206
0.523206
0.523207
0.52321
0.523212
0.523218
0.523225
0.523228
0.523245
0.523274
0.523279
0.523287
0.523304
0.523319
0.523337
0.523362
0.523377
0.523387
0.523398
0.523403
0.523396
0.523385
0.523376
0.523361
0.523365
0.523391
0.523413
0.523425
0.52342
0.523396
0.523393
0.523407
0.523434
0.523469
0.523517
0.523589
0.523658
0.523667
0.523653
0.523653
0.523651
0.523587
0.523455
0.523301
0.523245
0.523268
0.523323
0.523352
0.523404
0.523512
0.523586
0.523606
0.523604
0.52361
0.523631
0.523672
0.523679
0.523606
0.52342
0.523149
0.522849
0.522594
0.522431
0.522333
0.522362
0.522434
0.522452
0.522434
0.522391
0.522288
0.522069
0.521767
0.521534
0.521346
0.521392
0.522239
0.529574
0.569632
0.677214
0.807698
0.892137
0.922213
0.953941
0.953564
0.948075
0.943603
0.94459
0.944117
0.942172
0.523
0.523001
0.522998
0.52299
0.522985
0.522984
0.522985
0.522986
0.52299
0.522995
0.523001
0.523009
0.523019
0.523029
0.52304
0.523053
0.523066
0.523081
0.523102
0.523134
0.523176
0.52322
0.523262
0.523306
0.523356
0.523403
0.523454
0.523513
0.52356
0.523588
0.5236
0.523604
0.523609
0.523616
0.523621
0.523662
0.523683
0.523678
0.523653
0.523601
0.523519
0.523475
0.523467
0.523465
0.52347
0.523479
0.523513
0.52356
0.523529
0.523475
0.523477
0.52349
0.523436
0.523333
0.52325
0.523239
0.523307
0.523448
0.523538
0.523637
0.523759
0.523784
0.523768
0.523713
0.523649
0.523598
0.52354
0.523446
0.523286
0.523118
0.522911
0.522753
0.522541
0.522517
0.522553
0.522624
0.522618
0.522564
0.522489
0.522332
0.522082
0.521803
0.521613
0.52146
0.521488
0.521638
0.521635
0.521807
0.524609
0.546462
0.622503
0.760725
0.881741
0.945607
0.944518
0.939399
0.945025
0.946257
0.943545
0.94156