/*--------------------------------*- C++ -*----------------------------------*\
  =========                 |
  \\      /  F ield         | OpenFOAM: The Open Source CFD Toolbox
   \\    /   O peration     | Website:  https://openfoam.org
    \\  /    A nd           | Version:  7
     \\/     M anipulation  |
\*---------------------------------------------------------------------------*/
FoamFile
{
    version     2.0;
    format      ascii;
    class       volScalarField;
    location    "6.5";
    object      T;
}
// * * * * * * * * * * * * * * * * * * * * * * * * * * * * * * * * * * * * * //

dimensions      [0 0 0 1 0 0 0];

internalField   nonuniform List<scalar> 
90000
(
0.853101
0.872747
0.89187
0.908815
0.923845
0.937065
0.948811
0.959271
0.968442
0.976698
0.983709
0.990073
0.995237
0.999887
1.00349
1.00675
1.00917
1.01124
1.01269
1.01397
1.01468
1.01543
1.01559
1.01533
1.01438
1.01265
1.01034
1.00837
1.00643
1.00649
1.00687
1.00747
1.00819
1.00891
1.00944
1.00985
1.00982
1.00953
1.00894
1.00817
1.00755
1.007
1.00713
1.00728
1.00771
1.0083
1.00828
1.00799
1.0074
1.0068
1.00633
1.00642
1.00671
1.00702
1.00696
1.00667
1.00615
1.00561
1.00564
1.00577
1.00569
1.00542
1.00498
1.00467
1.00464
1.00462
1.00446
1.0042
1.00395
1.00378
1.0036
1.00333
1.00306
1.00283
1.00254
1.00218
1.00187
1.00165
1.00144
1.00116
1.00082
1.00048
1.00015
0.999857
0.999607
0.999352
0.999095
0.998848
0.998614
0.998359
0.998074
0.997762
0.99746
0.997169
0.996844
0.99644
0.995911
0.995298
0.994812
0.994047
0.835544
0.835762
0.836431
0.837784
0.840202
0.843803
0.849055
0.855752
0.864365
0.874216
0.885698
0.897762
0.910715
0.92347
0.936176
0.947913
0.958586
0.96813
0.976029
0.982953
0.987921
0.99238
0.995134
0.997727
0.999222
1.00089
1.00223
1.00429
1.00663
1.0082
1.00916
1.01006
1.01081
1.01125
1.01107
1.01071
1.00998
1.00883
1.00786
1.00713
1.00712
1.00724
1.00751
1.00808
1.00861
1.00837
1.00787
1.00706
1.00639
1.00606
1.00612
1.00634
1.00669
1.00668
1.0064
1.0058
1.00547
1.00524
1.00532
1.0054
1.00524
1.00487
1.00455
1.0043
1.0043
1.00426
1.00407
1.00381
1.00358
1.00343
1.00324
1.00297
1.00271
1.00246
1.00214
1.00176
1.00143
1.0012
1.00096
1.00064
1.00028
0.999919
0.999571
0.99927
0.999009
0.998726
0.998439
0.998176
0.997929
0.997653
0.997338
0.996997
0.996667
0.996351
0.996003
0.995571
0.99502
0.994397
0.993897
0.993109
0.8351
0.835077
0.83505
0.835022
0.834989
0.834985
0.835019
0.835133
0.835399
0.835899
0.836815
0.838289
0.840698
0.84418
0.849362
0.856095
0.865112
0.875624
0.888238
0.901563
0.915917
0.929979
0.94375
0.956726
0.968476
0.979464
0.987998
0.994879
0.999418
1.00281
1.00449
1.00555
1.00606
1.00656
1.00653
1.00597
1.00457
1.00459
1.00511
1.00552
1.00639
1.00723
1.00768
1.00745
1.00709
1.00603
1.00513
1.00445
1.00449
1.00486
1.00564
1.00606
1.0059
1.00534
1.0046
1.00403
1.00408
1.00443
1.00457
1.00436
1.00386
1.00348
1.00331
1.00339
1.0034
1.00321
1.00291
1.00268
1.00255
1.00242
1.00218
1.00192
1.00172
1.00147
1.0011
1.00072
1.00043
1.0002
0.999916
0.999549
0.999194
0.998832
0.998488
0.998205
0.997946
0.997653
0.997361
0.997108
0.996847
0.996561
0.996239
0.9959
0.99558
0.995277
0.994933
0.99449
0.993936
0.993333
0.992862
0.992114
0.834396
0.834368
0.834335
0.8343
0.834263
0.834228
0.834188
0.834146
0.834103
0.834057
0.83401
0.83397
0.833928
0.833938
0.834018
0.834228
0.834684
0.835523
0.837078
0.839579
0.843758
0.849693
0.858508
0.869428
0.883606
0.899169
0.916477
0.93316
0.948306
0.962196
0.972519
0.981487
0.986579
0.990993
0.993267
0.995338
0.997339
1.00022
1.0032
1.00555
1.00696
1.00688
1.00657
1.00567
1.00361
1.00223
1.00194
1.00224
1.00319
1.00415
1.00456
1.00432
1.00339
1.00253
1.00194
1.0022
1.0028
1.00314
1.00288
1.00228
1.00167
1.00161
1.00179
1.00192
1.00174
1.0014
1.00116
1.00107
1.00098
1.00078
1.00054
1.00035
1.00019
0.999912
0.999529
0.999201
0.998965
0.998727
0.998427
0.998084
0.997764
0.997417
0.997108
0.996862
0.99662
0.996337
0.996053
0.995828
0.995586
0.995318
0.995018
0.994709
0.994419
0.994148
0.993832
0.993413
0.992891
0.99234
0.991913
0.991234
0.833524
0.833499
0.833472
0.833443
0.833414
0.833382
0.83335
0.833314
0.833273
0.833232
0.833191
0.833149
0.833107
0.833073
0.833024
0.832974
0.832923
0.832875
0.832831
0.832813
0.83285
0.833003
0.833411
0.834246
0.83598
0.838958
0.844396
0.852384
0.864609
0.879502
0.898006
0.917058
0.935999
0.953333
0.967432
0.979933
0.988424
0.994445
0.996958
0.999374
1.00079
1.00181
1.00133
0.999952
0.999499
0.999865
1.00089
1.0021
1.00277
1.0026
1.00207
1.00094
1.00012
0.999883
1.00037
1.00124
1.00148
1.00117
1.0006
1.00001
0.999856
1.00013
1.00035
1.00022
0.999909
0.999628
0.999522
0.999484
0.999344
0.999121
0.998938
0.998827
0.998656
0.998362
0.998019
0.997721
0.997525
0.997298
0.997002
0.996696
0.996408
0.996091
0.995829
0.995635
0.995423
0.995172
0.994918
0.994723
0.994501
0.99425
0.993974
0.993707
0.993462
0.993237
0.99296
0.992566
0.992081
0.991588
0.991211
0.990603
0.832719
0.832699
0.832679
0.832657
0.832636
0.832613
0.83259
0.832567
0.832542
0.832516
0.83249
0.832462
0.832434
0.832404
0.832373
0.832339
0.832304
0.83227
0.832239
0.832208
0.83219
0.832154
0.832114
0.832077
0.832051
0.832068
0.832163
0.832465
0.833272
0.834961
0.838606
0.844784
0.855661
0.87021
0.889773
0.910902
0.932102
0.951532
0.965179
0.976946
0.982892
0.988717
0.991032
0.993847
0.996852
1.00042
1.0026
1.00298
1.00264
1.00137
0.998918
0.998026
0.99822
0.999148
1.00023
1.00081
1.00041
0.999473
0.998451
0.998471
0.998845
0.999263
0.999169
0.998836
0.998509
0.998388
0.998418
0.998329
0.998114
0.997909
0.997803
0.997719
0.997514
0.997177
0.996883
0.99668
0.996479
0.996232
0.995947
0.9957
0.995444
0.995151
0.994931
0.99477
0.994571
0.994352
0.994138
0.993948
0.993752
0.993529
0.993277
0.993037
0.992825
0.992626
0.992381
0.99202
0.991566
0.991122
0.990787
0.990234
0.832132
0.83212
0.832108
0.832095
0.832081
0.832068
0.832054
0.83204
0.832025
0.83201
0.831995
0.83198
0.831964
0.831948
0.831932
0.831915
0.831898
0.83188
0.831861
0.831842
0.831821
0.831801
0.831782
0.831764
0.831749
0.831734
0.831737
0.831719
0.83169
0.831692
0.831732
0.831876
0.832397
0.833662
0.836799
0.842612
0.853823
0.869544
0.891465
0.914469
0.937349
0.957831
0.973352
0.986548
0.993327
0.997161
0.99902
1.00009
0.999325
0.996886
0.997027
0.997761
0.999238
1.00039
1.00017
0.999564
0.998283
0.997391
0.997436
0.998128
0.998782
0.998654
0.998302
0.997857
0.997756
0.997887
0.997865
0.997654
0.997421
0.997262
0.997259
0.997165
0.996902
0.996591
0.99633
0.996149
0.995947
0.995677
0.995385
0.99516
0.994906
0.994636
0.994458
0.99432
0.994131
0.993938
0.993743
0.993528
0.993328
0.993124
0.992895
0.992676
0.992483
0.992301
0.99207
0.991725
0.9913
0.990888
0.990574
0.990056
0.831778
0.831772
0.831765
0.831758
0.831751
0.831744
0.831737
0.831729
0.831722
0.831714
0.831706
0.831698
0.83169
0.831682
0.831674
0.831665
0.831657
0.831648
0.83164
0.831631
0.831623
0.831614
0.831605
0.831596
0.831587
0.831578
0.831567
0.831561
0.831558
0.831555
0.831558
0.831569
0.831555
0.831557
0.831591
0.831734
0.832255
0.83363
0.837333
0.844463
0.858518
0.877501
0.902986
0.928794
0.951028
0.969477
0.979095
0.987541
0.990303
0.993404
0.997494
1.00059
1.0021
1.0017
1.00031
0.997583
0.996532
0.996786
0.997866
0.999055
0.998921
0.998335
0.997504
0.997394
0.997592
0.99782
0.997644
0.997346
0.997104
0.99707
0.997062
0.996909
0.996589
0.996341
0.996198
0.995989
0.995702
0.995395
0.99519
0.99499
0.994721
0.994463
0.994299
0.994151
0.993961
0.99378
0.993587
0.993376
0.993164
0.992954
0.99273
0.992527
0.992356
0.992187
0.991963
0.991599
0.991176
0.990794
0.990496
0.989994
0.831588
0.831585
0.831582
0.831579
0.831575
0.831572
0.831568
0.831565
0.831561
0.831557
0.831554
0.83155
0.831546
0.831542
0.831538
0.831535
0.831531
0.831527
0.831523
0.831519
0.831516
0.831512
0.831509
0.831506
0.831503
0.8315
0.831497
0.831494
0.831492
0.831489
0.831486
0.831485
0.831486
0.831489
0.831496
0.83149
0.831484
0.831492
0.831549
0.831775
0.832611
0.83481
0.84072
0.851739
0.871779
0.896826
0.925125
0.950983
0.971248
0.987085
0.995172
0.998586
0.999847
0.999391
0.996694
0.996311
0.99706
0.998606
0.999609
0.999217
0.998366
0.997339
0.997225
0.997576
0.998004
0.997894
0.997533
0.997121
0.997055
0.997199
0.997122
0.996839
0.996506
0.996288
0.996209
0.996007
0.995652
0.995289
0.995127
0.994949
0.994676
0.994438
0.994287
0.994114
0.993926
0.993749
0.993535
0.993311
0.993105
0.9929
0.992683
0.992496
0.992327
0.992147
0.991914
0.991549
0.991138
0.990773
0.990486
0.989992
0.83149
0.831488
0.831486
0.831485
0.831483
0.831481
0.831479
0.831477
0.831476
0.831474
0.831472
0.83147
0.831469
0.831467
0.831466
0.831464
0.831463
0.831461
0.83146
0.831459
0.831458
0.831457
0.831456
0.831456
0.831455
0.831455
0.831455
0.831454
0.831454
0.831453
0.831452
0.83145
0.831449
0.831448
0.831445
0.831446
0.831447
0.831448
0.831443
0.831434
0.831435
0.831461
0.831602
0.832135
0.834018
0.838842
0.850704
0.869799
0.898457
0.92869
0.954247
0.973232
0.983289
0.989519
0.992685
0.996842
1.00028
1.00166
1.00113
0.999337
0.996806
0.996894
0.997539
0.998469
0.99836
0.997786
0.997217
0.997143
0.997418
0.997452
0.997182
0.996693
0.996452
0.996443
0.99632
0.995987
0.995557
0.995312
0.995149
0.994946
0.994691
0.994479
0.994317
0.994128
0.99395
0.993777
0.993548
0.993303
0.993093
0.992887
0.992671
0.992494
0.992322
0.992135
0.991893
0.991518
0.991138
0.990786
0.990496
0.990003
0.831438
0.831437
0.831436
0.831435
0.831434
0.831432
0.831431
0.83143
0.831429
0.831428
0.831427
0.831426
0.831425
0.831424
0.831424
0.831423
0.831422
0.831422
0.831421
0.831421
0.831421
0.831421
0.831421
0.831422
0.831422
0.831422
0.831422
0.831422
0.831421
0.831421
0.83142
0.83142
0.831419
0.831417
0.831415
0.831413
0.83141
0.831408
0.831405
0.831401
0.831397
0.83139
0.831379
0.831377
0.831396
0.831507
0.832042
0.833824
0.839558
0.851996
0.87544
0.905926
0.936696
0.96452
0.983343
0.995052
0.998069
0.999901
0.998622
0.996104
0.996521
0.997873
0.999203
0.99901
0.998136
0.997135
0.997097
0.99761
0.997929
0.997641
0.996917
0.996559
0.996651
0.996679
0.996445
0.995896
0.995498
0.995393
0.995227
0.994985
0.994738
0.994571
0.994391
0.994177
0.99401
0.993831
0.993584
0.993307
0.993103
0.992896
0.992684
0.992511
0.992333
0.992138
0.991882
0.991513
0.991155
0.990814
0.990518
0.990021
0.83141
0.831409
0.831408
0.831407
0.831406
0.831406
0.831405
0.831404
0.831403
0.831403
0.831402
0.831402
0.831401
0.8314
0.8314
0.831399
0.831399
0.831398
0.831398
0.831398
0.831397
0.831397
0.831397
0.831396
0.831395
0.831395
0.831394
0.831393
0.831392
0.831391
0.831389
0.831388
0.831386
0.831384
0.831383
0.83138
0.831377
0.831374
0.83137
0.831366
0.831362
0.831356
0.831351
0.831344
0.831337
0.831329
0.831331
0.831356
0.831503
0.832126
0.834708
0.841762
0.859224
0.886234
0.920681
0.953415
0.971572
0.986189
0.989612
0.994334
0.997988
1.00124
1.00082
0.999438
0.996889
0.996914
0.997587
0.998467
0.998175
0.997233
0.99665
0.996722
0.997072
0.996903
0.99632
0.995842
0.995578
0.995501
0.995308
0.995041
0.994842
0.994674
0.994463
0.99423
0.994084
0.993888
0.9936
0.993329
0.993127
0.992908
0.992706
0.99254
0.992349
0.992138
0.991875
0.991513
0.99118
0.990847
0.990545
0.990042
0.831392
0.831392
0.831391
0.831391
0.83139
0.83139
0.831389
0.831389
0.831389
0.831388
0.831387
0.831387
0.831386
0.831385
0.831384
0.831384
0.831383
0.831382
0.831381
0.831379
0.831378
0.831377
0.831375
0.831374
0.831373
0.831371
0.831369
0.831367
0.831365
0.831363
0.831361
0.831359
0.831357
0.831356
0.831354
0.83135
0.831347
0.831343
0.83134
0.831336
0.831333
0.831329
0.831326
0.831323
0.831321
0.831318
0.831313
0.831312
0.831315
0.831323
0.831367
0.831591
0.832763
0.83661
0.84895
0.871882
0.906742
0.941807
0.968719
0.989377
0.995598
0.999371
0.998837
0.996191
0.996442
0.997953
0.999241
0.99877
0.997473
0.996554
0.996622
0.997454
0.997381
0.996857
0.996102
0.995776
0.9958
0.995626
0.995335
0.995069
0.994959
0.994774
0.994499
0.994271
0.994144
0.993925
0.993605
0.993343
0.99314
0.992915
0.992716
0.992554
0.992353
0.992137
0.991866
0.991514
0.991206
0.990875
0.990572
0.990057
0.83138
0.83138
0.83138
0.831379
0.831379
0.831379
0.831378
0.831378
0.831377
0.831376
0.831375
0.831374
0.831373
0.831372
0.83137
0.831369
0.831367
0.831366
0.831364
0.831362
0.831359
0.831357
0.831354
0.831352
0.831351
0.831349
0.831347
0.831344
0.831341
0.831338
0.831334
0.831332
0.83133
0.831326
0.831323
0.831321
0.831319
0.831318
0.831316
0.831315
0.831314
0.831315
0.831315
0.831316
0.831316
0.831314
0.831313
0.831313
0.831315
0.831316
0.831314
0.831313
0.831325
0.83141
0.831955
0.834205
0.842976
0.861666
0.895935
0.933733
0.960929
0.981885
0.987073
0.992408
0.997331
1.00116
1.00063
0.998776
0.996237
0.996391
0.997379
0.998102
0.997496
0.996361
0.995904
0.996007
0.99595
0.995639
0.99528
0.995155
0.995056
0.994827
0.994525
0.99434
0.994169
0.993908
0.993581
0.993344
0.993134
0.992904
0.992735
0.992541
0.992333
0.99212
0.991846
0.991522
0.991227
0.990893
0.990586
0.990063
0.831368
0.831368
0.831367
0.831366
0.831366
0.831365
0.831364
0.831363
0.831362
0.831361
0.83136
0.831358
0.831356
0.831354
0.831352
0.831349
0.831347
0.831344
0.831342
0.831339
0.831337
0.831334
0.831331
0.831327
0.831323
0.831319
0.831315
0.831311
0.831307
0.831304
0.831301
0.831299
0.831298
0.831296
0.831295
0.831295
0.831296
0.831297
0.831298
0.831301
0.831305
0.831309
0.831313
0.831317
0.831318
0.831318
0.831317
0.831316
0.831314
0.831309
0.831303
0.831297
0.831291
0.831288
0.831292
0.831331
0.831633
0.833047
0.839471
0.855578
0.888312
0.926412
0.959831
0.984838
0.994438
0.998611
0.997967
0.995221
0.996009
0.997857
0.998763
0.998092
0.996284
0.995807
0.99608
0.996324
0.995986
0.995445
0.995208
0.99526
0.995109
0.994781
0.994502
0.994388
0.994182
0.993849
0.993549
0.993348
0.993119
0.992888
0.99272
0.992527
0.992301
0.992089
0.991814
0.991521
0.991238
0.990898
0.990588
0.990058
0.831353
0.831352
0.831351
0.83135
0.831349
0.831348
0.831347
0.831345
0.831344
0.831342
0.83134
0.831338
0.831336
0.831334
0.831331
0.831328
0.831325
0.831322
0.831318
0.831314
0.83131
0.831307
0.831303
0.831298
0.831294
0.83129
0.831287
0.831284
0.831281
0.831279
0.831277
0.831275
0.831275
0.831275
0.831275
0.831277
0.831279
0.831282
0.831287
0.831292
0.831299
0.831305
0.831311
0.831318
0.831321
0.831321
0.831321
0.83132
0.831315
0.831305
0.831294
0.831283
0.831272
0.831264
0.831262
0.831263
0.83127
0.8313
0.83149
0.8325
0.83759
0.851868
0.884232
0.923619
0.956497
0.978349
0.986824
0.991779
0.99802
1.001
0.999963
0.996647
0.995256
0.995804
0.99679
0.996499
0.995657
0.995249
0.995352
0.995325
0.995059
0.994688
0.994521
0.994406
0.994144
0.993766
0.993529
0.99334
0.993084
0.992867
0.992695
0.992482
0.992248
0.99204
0.991775
0.991516
0.991241
0.990893
0.99058
0.990044
0.831336
0.831335
0.831334
0.831332
0.831331
0.831329
0.831328
0.831326
0.831324
0.831322
0.83132
0.831318
0.831316
0.831313
0.831311
0.831308
0.831304
0.831301
0.831297
0.831293
0.831289
0.831285
0.831281
0.831278
0.831274
0.831271
0.831268
0.831266
0.831264
0.831262
0.831261
0.831261
0.831261
0.831261
0.831263
0.831265
0.831269
0.831274
0.83128
0.831286
0.831292
0.831299
0.831306
0.831313
0.831318
0.831319
0.831319
0.831318
0.831312
0.831302
0.831289
0.831275
0.831262
0.831253
0.831249
0.83125
0.831253
0.831264
0.831285
0.831314
0.831452
0.832255
0.836678
0.850732
0.882107
0.921643
0.959969
0.984386
0.99545
0.998176
0.996246
0.99448
0.995928
0.997559
0.997151
0.995883
0.995098
0.99525
0.99556
0.995307
0.99479
0.994549
0.994584
0.994419
0.99404
0.993714
0.99355
0.99333
0.993047
0.992851
0.992661
0.992427
0.992192
0.991988
0.991739
0.991512
0.991238
0.990883
0.990567
0.990025
0.831315
0.831315
0.831314
0.831313
0.831311
0.83131
0.831308
0.831305
0.831303
0.831302
0.831299
0.831297
0.831296
0.831294
0.831291
0.831289
0.831286
0.831284
0.831281
0.831279
0.831276
0.831274
0.831271
0.831269
0.831266
0.831264
0.831262
0.83126
0.831259
0.831258
0.831256
0.831257
0.831258
0.831259
0.831261
0.831263
0.831266
0.831269
0.831273
0.831278
0.831284
0.83129
0.831297
0.831302
0.831307
0.831311
0.831311
0.831309
0.831305
0.831297
0.831287
0.831274
0.831261
0.831249
0.831243
0.831244
0.831248
0.831257
0.831272
0.831298
0.831314
0.831323
0.831414
0.832166
0.836248
0.850917
0.883115
0.925563
0.961016
0.979052
0.987782
0.99301
0.999614
0.999358
0.9976
0.994835
0.995025
0.995883
0.995722
0.994966
0.994561
0.994681
0.994674
0.994384
0.993956
0.993733
0.993578
0.9933
0.993013
0.992841
0.992626
0.992367
0.992144
0.991947
0.991716
0.991511
0.991235
0.990872
0.990557
0.990012
0.831287
0.831286
0.831285
0.831285
0.831284
0.831284
0.831284
0.831284
0.831283
0.831283
0.831282
0.831281
0.831279
0.831278
0.831277
0.831276
0.831276
0.831275
0.831275
0.831275
0.831274
0.831273
0.831272
0.831271
0.83127
0.831269
0.831268
0.831267
0.831266
0.831265
0.831264
0.831264
0.831265
0.831264
0.831264
0.831263
0.831263
0.831263
0.831265
0.831267
0.83127
0.831273
0.831276
0.83128
0.831285
0.831292
0.831299
0.8313
0.831297
0.831294
0.831288
0.83128
0.831269
0.831255
0.831244
0.831244
0.831248
0.831254
0.831264
0.831281
0.831301
0.831306
0.831293
0.831277
0.831355
0.832158
0.836496
0.853409
0.886919
0.929343
0.969039
0.988315
0.997315
0.997061
0.99404
0.99481
0.996686
0.99656
0.995494
0.994364
0.994494
0.995008
0.994756
0.994164
0.993838
0.993807
0.993626
0.993292
0.993007
0.992843
0.992602
0.992335
0.992123
0.991925
0.991712
0.991518
0.991234
0.990872
0.990559
0.99001
0.831257
0.831258
0.831259
0.83126
0.831261
0.831262
0.831263
0.831264
0.831265
0.831265
0.831265
0.831266
0.831267
0.831269
0.831272
0.831274
0.831276
0.831278
0.83128
0.831282
0.831284
0.831286
0.831288
0.831289
0.83129
0.831291
0.831291
0.83129
0.831288
0.831286
0.831283
0.83128
0.831276
0.831271
0.831267
0.831262
0.831258
0.831253
0.831249
0.831244
0.831241
0.83124
0.831239
0.831242
0.831247
0.831257
0.831268
0.83128
0.831289
0.831295
0.831298
0.831298
0.831293
0.831281
0.831264
0.831252
0.83125
0.83125
0.831251
0.831257
0.831273
0.831287
0.83128
0.831266
0.831241
0.83123
0.831331
0.832363
0.837556
0.856967
0.8948
0.937783
0.970905
0.982626
0.989409
0.99688
0.999192
0.997427
0.993985
0.994148
0.995294
0.995239
0.994474
0.993951
0.993964
0.993926
0.993654
0.993253
0.993056
0.992861
0.992573
0.992314
0.992135
0.991931
0.991734
0.991543
0.991241
0.990874
0.990564
0.99001
0.831237
0.831239
0.83124
0.831241
0.831243
0.831244
0.831246
0.831249
0.831252
0.831255
0.831258
0.831261
0.831264
0.831268
0.831272
0.831276
0.83128
0.831284
0.831288
0.831292
0.831296
0.8313
0.831303
0.831307
0.83131
0.831311
0.831312
0.831312
0.83131
0.831306
0.831301
0.831294
0.831286
0.831277
0.831268
0.831259
0.831249
0.831239
0.831231
0.831222
0.831213
0.831207
0.831206
0.831206
0.831211
0.831221
0.831236
0.831254
0.831274
0.831295
0.831315
0.831323
0.831324
0.83132
0.831304
0.831279
0.831256
0.83124
0.831234
0.831232
0.831236
0.831251
0.831261
0.831256
0.831248
0.831235
0.831224
0.83124
0.831403
0.832795
0.839661
0.863713
0.903886
0.948596
0.980367
0.993677
0.996505
0.993111
0.993471
0.995687
0.996212
0.995093
0.993759
0.99385
0.994206
0.993994
0.993513
0.993241
0.993144
0.992896
0.99256
0.992349
0.992162
0.991938
0.991752
0.991572
0.991245
0.990889
0.990586
0.990023
0.831229
0.831231
0.831233
0.831235
0.831236
0.831238
0.831241
0.831243
0.831246
0.831249
0.831253
0.831257
0.831262
0.831267
0.831271
0.831275
0.831279
0.831283
0.831287
0.831292
0.831296
0.8313
0.831304
0.831308
0.831312
0.831315
0.831316
0.831316
0.831314
0.831311
0.831306
0.831299
0.83129
0.83128
0.831269
0.831257
0.831244
0.831232
0.831221
0.83121
0.8312
0.831192
0.831188
0.831189
0.831194
0.831203
0.831216
0.831236
0.831261
0.83129
0.83132
0.831341
0.831346
0.831345
0.831335
0.831309
0.83127
0.831235
0.831217
0.831212
0.83121
0.831216
0.831238
0.831253
0.831255
0.831253
0.831245
0.831243
0.831243
0.831264
0.831508
0.83352
0.843268
0.87273
0.918124
0.956546
0.978812
0.986504
0.994438
0.998507
0.996973
0.993555
0.99355
0.994502
0.994415
0.993785
0.993388
0.99339
0.993273
0.992888
0.992563
0.99241
0.992203
0.99197
0.991814
0.991609
0.991247
0.990894
0.990601
0.990038
0.831229
0.83123
0.831231
0.831232
0.831234
0.831235
0.831238
0.83124
0.831242
0.831244
0.831246
0.831249
0.831252
0.831255
0.831259
0.831263
0.831267
0.831272
0.831276
0.83128
0.831285
0.831289
0.831293
0.831297
0.8313
0.831304
0.831307
0.831309
0.831308
0.831305
0.8313
0.831294
0.831288
0.831281
0.831272
0.831261
0.83125
0.831237
0.831222
0.831209
0.831198
0.831189
0.831184
0.831186
0.831191
0.8312
0.831212
0.831227
0.831248
0.831277
0.83131
0.831338
0.83135
0.831349
0.831342
0.831321
0.831286
0.83124
0.831208
0.831199
0.831196
0.831198
0.831218
0.831251
0.831265
0.831267
0.831262
0.831248
0.831235
0.831231
0.831215
0.831237
0.831634
0.834851
0.849764
0.884669
0.9313
0.971317
0.990983
0.995777
0.992484
0.992711
0.99472
0.995326
0.994377
0.993215
0.993326
0.993607
0.993301
0.992843
0.992619
0.992466
0.99223
0.991991
0.991856
0.99161
0.991238
0.990928
0.990634
0.990057
0.831226
0.831226
0.831226
0.831226
0.831225
0.831225
0.831224
0.831223
0.831223
0.831222
0.831221
0.831221
0.83122
0.83122
0.83122
0.831221
0.831222
0.831224
0.831226
0.831229
0.831233
0.831237
0.831241
0.831246
0.83125
0.831255
0.83126
0.831266
0.831273
0.831277
0.83128
0.831282
0.831282
0.831282
0.831281
0.831278
0.831274
0.831266
0.831256
0.831243
0.831229
0.831215
0.831203
0.831199
0.831202
0.831205
0.83121
0.831219
0.831233
0.831252
0.831275
0.831304
0.831332
0.831339
0.831332
0.831318
0.831295
0.831258
0.831214
0.831194
0.83119
0.831191
0.831208
0.831244
0.831267
0.83127
0.831267
0.831247
0.831225
0.831217
0.831203
0.83118
0.83113
0.831185
0.832005
0.837465
0.858553
0.902451
0.946679
0.974149
0.984618
0.992907
0.997442
0.996117
0.99293
0.993009
0.993922
0.993794
0.993128
0.992746
0.99279
0.992582
0.992263
0.992086
0.991944
0.99162
0.991226
0.990948
0.990646
0.990057
0.83121
0.831207
0.831204
0.831202
0.831199
0.831196
0.831192
0.831189
0.831186
0.831184
0.831181
0.831179
0.831176
0.831174
0.831171
0.83117
0.831169
0.831169
0.831169
0.831171
0.831173
0.831176
0.83118
0.831185
0.831189
0.831195
0.831203
0.831212
0.831223
0.831235
0.83125
0.831265
0.831278
0.831289
0.831299
0.831308
0.831314
0.831316
0.831317
0.831313
0.831303
0.831288
0.831271
0.831252
0.831236
0.831221
0.83121
0.831207
0.831209
0.831213
0.831223
0.831242
0.83127
0.831298
0.831308
0.831306
0.831299
0.831282
0.83125
0.831215
0.831202
0.8312
0.831205
0.831231
0.831259
0.831263
0.831259
0.83124
0.831215
0.831206
0.831195
0.831181
0.831161
0.831118
0.831061
0.831203
0.832802
0.84274
0.872538
0.919446
0.965273
0.988196
0.994677
0.992192
0.992001
0.994189
0.994627
0.993625
0.992716
0.992869
0.992945
0.992614
0.992259
0.992176
0.991963
0.991556
0.991196
0.990967
0.990657
0.990056
0.8312
0.831194
0.831188
0.831182
0.831176
0.831171
0.831167
0.831164
0.83116
0.831157
0.831154
0.831152
0.83115
0.831147
0.831145
0.831142
0.831142
0.831142
0.831142
0.831143
0.831144
0.831146
0.83115
0.831155
0.831161
0.831168
0.831176
0.831185
0.831197
0.831211
0.831228
0.831249
0.831272
0.831293
0.831311
0.831328
0.831342
0.831351
0.831353
0.831353
0.83135
0.831342
0.831327
0.831304
0.831275
0.831242
0.831211
0.831189
0.831183
0.831183
0.831185
0.831194
0.831212
0.831241
0.831275
0.831299
0.831306
0.831308
0.831299
0.83127
0.831235
0.831215
0.83121
0.831215
0.831234
0.831242
0.831239
0.831229
0.831211
0.831204
0.831206
0.831213
0.831195
0.831146
0.831085
0.830985
0.830905
0.831262
0.834674
0.851617
0.892795
0.939696
0.972303
0.983613
0.992158
0.996663
0.995239
0.992254
0.992546
0.993401
0.993075
0.992381
0.992253
0.992276
0.991992
0.991517
0.991209
0.990981
0.990642
0.990047
0.831217
0.831211
0.831203
0.831196
0.831189
0.831182
0.831175
0.831169
0.831163
0.831157
0.831152
0.831148
0.831144
0.831142
0.83114
0.831139
0.831137
0.831137
0.831138
0.831139
0.83114
0.831143
0.831146
0.83115
0.831154
0.83116
0.831168
0.831178
0.831189
0.831204
0.831221
0.831241
0.831263
0.831287
0.831311
0.831329
0.831342
0.831352
0.831356
0.831355
0.831351
0.831343
0.83133
0.831311
0.831284
0.831254
0.831224
0.831193
0.83117
0.831166
0.831168
0.831177
0.831191
0.831215
0.83125
0.831292
0.83132
0.831327
0.831326
0.831308
0.831267
0.831223
0.8312
0.831193
0.831197
0.831209
0.831221
0.831222
0.831224
0.831228
0.831239
0.831237
0.83121
0.831152
0.831075
0.83094
0.830766
0.830612
0.830676
0.831794
0.839468
0.86719
0.914273
0.962231
0.98683
0.994046
0.991149
0.991441
0.993942
0.993809
0.992601
0.992104
0.992519
0.992361
0.991799
0.991369
0.991261
0.991004
0.990622
0.990035
0.831263
0.831261
0.831259
0.831257
0.831255
0.831252
0.831249
0.831246
0.831242
0.831237
0.831232
0.831227
0.831221
0.831217
0.831212
0.831209
0.831205
0.831202
0.831199
0.831197
0.831195
0.831193
0.831193
0.831194
0.831195
0.831196
0.831198
0.831201
0.831205
0.831211
0.831219
0.831229
0.831241
0.831255
0.831273
0.83129
0.831302
0.831312
0.83132
0.831319
0.831315
0.83131
0.831303
0.831287
0.831266
0.831251
0.831238
0.831221
0.831198
0.831178
0.831179
0.831188
0.8312
0.831218
0.831246
0.831286
0.831323
0.831332
0.83133
0.831312
0.831274
0.831218
0.831177
0.831171
0.831174
0.83119
0.831214
0.831243
0.831267
0.831279
0.831271
0.83125
0.831209
0.83114
0.831012
0.830847
0.830671
0.830552
0.830512
0.830535
0.830881
0.833775
0.849139
0.889876
0.937607
0.972185
0.98284
0.991895
0.995678
0.994108
0.991629
0.99217
0.99288
0.992321
0.991492
0.991322
0.991327
0.991027
0.990591
0.990042
0.831318
0.83132
0.83132
0.831321
0.831322
0.831323
0.831323
0.831324
0.831324
0.831324
0.831323
0.831322
0.831321
0.831319
0.831317
0.831314
0.831311
0.831308
0.831304
0.831298
0.83129
0.831282
0.831274
0.831265
0.831255
0.831246
0.831238
0.831231
0.831223
0.831215
0.831207
0.831201
0.831198
0.831196
0.831197
0.8312
0.831206
0.831215
0.831223
0.831228
0.831232
0.831236
0.831238
0.831237
0.831242
0.831251
0.83126
0.831263
0.83126
0.831248
0.831253
0.83126
0.831257
0.831262
0.831266
0.831277
0.831299
0.831315
0.831312
0.831292
0.83125
0.831202
0.831168
0.831162
0.831167
0.83119
0.831243
0.831303
0.831325
0.831318
0.831289
0.831245
0.83117
0.831051
0.830902
0.830742
0.830621
0.830538
0.830539
0.83059
0.830623
0.830715
0.83167
0.838789
0.866168
0.914224
0.962277
0.987132
0.992979
0.990053
0.991264
0.993647
0.993132
0.991601
0.991222
0.991551
0.991416
0.990933
0.990573
0.990092
0.83133
0.831333
0.831333
0.831332
0.831333
0.831333
0.831333
0.831334
0.831334
0.831335
0.831336
0.831335
0.831335
0.831335
0.831335
0.831336
0.831335
0.831335
0.831336
0.831331
0.831323
0.831315
0.831303
0.831291
0.831278
0.831262
0.831249
0.831236
0.831222
0.831207
0.83119
0.831175
0.831163
0.831154
0.831148
0.831146
0.831146
0.831149
0.831157
0.831166
0.831173
0.831181
0.83119
0.831203
0.831223
0.831254
0.831295
0.831319
0.831326
0.831329
0.831334
0.831332
0.831313
0.831292
0.831271
0.831247
0.831248
0.831255
0.831257
0.831241
0.831216
0.831196
0.831177
0.831175
0.831192
0.831236
0.831305
0.83135
0.831351
0.831332
0.831285
0.831195
0.831064
0.830917
0.830786
0.830688
0.830594
0.830586
0.830607
0.83067
0.830681
0.83067
0.830625
0.830832
0.833589
0.849204
0.891727
0.940332
0.972676
0.983289
0.993118
0.994989
0.993073
0.990873
0.99132
0.991836
0.99137
0.99076
0.99062
0.990191
0.83131
0.831308
0.831306
0.831304
0.831303
0.831304
0.831302
0.8313
0.831298
0.831296
0.831295
0.831293
0.831291
0.831289
0.831288
0.831289
0.831294
0.831294
0.831293
0.831295
0.831289
0.831282
0.831278
0.831264
0.831246
0.831234
0.831228
0.831224
0.831218
0.831207
0.831192
0.831176
0.831163
0.831153
0.831144
0.831143
0.831147
0.831148
0.831156
0.831166
0.831166
0.83117
0.831184
0.83121
0.831241
0.831274
0.831316
0.831354
0.831363
0.831364
0.831364
0.831357
0.831333
0.831295
0.831234
0.831191
0.831194
0.831204
0.831212
0.831214
0.831211
0.831216
0.831223
0.831237
0.831264
0.831299
0.831337
0.831361
0.831356
0.831318
0.831222
0.831072
0.83093
0.830801
0.830732
0.830657
0.830656
0.830675
0.830698
0.830717
0.830706
0.830663
0.830568
0.830388
0.830409
0.831396
0.839453
0.86888
0.919568
0.96641
0.989095
0.992275
0.989078
0.990741
0.992591
0.992056
0.991022
0.990633
0.990678
0.990252
0.831176
0.831172
0.83117
0.831166
0.831161
0.831158
0.831157
0.831155
0.831154
0.831153
0.831152
0.831151
0.831151
0.831151
0.831152
0.831153
0.831155
0.831158
0.831159
0.831167
0.83118
0.831182
0.831186
0.831193
0.8312
0.831209
0.83122
0.831227
0.831232
0.831236
0.831238
0.831235
0.831229
0.831225
0.831217
0.831219
0.83123
0.83124
0.831246
0.831243
0.831232
0.831231
0.831237
0.831248
0.831264
0.831285
0.831317
0.831347
0.831351
0.831344
0.831344
0.831343
0.831314
0.831253
0.831182
0.831156
0.831167
0.831191
0.831204
0.831227
0.831275
0.831307
0.831315
0.831314
0.831315
0.831323
0.831339
0.83134
0.831306
0.83122
0.831095
0.830957
0.830838
0.830763
0.830716
0.830728
0.83076
0.830766
0.830757
0.830737
0.83069
0.830591
0.830454
0.830348
0.830262
0.830283
0.830671
0.8341
0.852618
0.898503
0.946511
0.974341
0.983872
0.993652
0.993576
0.992053
0.990733
0.990995
0.990835
0.990214
0.831051
0.831051
0.83105
0.831046
0.831044
0.831043
0.831043
0.831044
0.831045
0.831047
0.83105
0.831054
0.831059
0.831063
0.831068
0.831074
0.83108
0.831086
0.831096
0.83111
0.831129
0.831149
0.831168
0.831188
0.83121
0.831231
0.831254
0.83128
0.831301
0.831313
0.831319
0.83132
0.831323
0.831326
0.831328
0.831347
0.831355
0.831353
0.831342
0.831318
0.831281
0.831262
0.831258
0.831256
0.831258
0.831262
0.831277
0.831297
0.831283
0.831258
0.831259
0.831265
0.83124
0.831192
0.831154
0.831149
0.83118
0.831243
0.831283
0.831328
0.831382
0.831391
0.831383
0.831357
0.831328
0.831303
0.831274
0.831229
0.831155
0.831077
0.830981
0.830906
0.830809
0.830795
0.830811
0.830843
0.830839
0.830813
0.830779
0.830708
0.830595
0.830468
0.830382
0.830312
0.830325
0.830393
0.83039
0.830467
0.831772
0.84201
0.875744
0.929753
0.971363
0.991479
0.991097
0.989517
0.991219
0.991508
0.990691
0.990035
0.831016
0.831016
0.831017
0.831019
0.831022
0.831026
0.83103
0.831034
0.83104
0.831048
0.831056
0.831067
0.831078
0.831088
0.831097
0.831105
0.831113
0.831123
0.831136
0.831154
0.83118
0.831218
0.831262
0.831298
0.831326
0.831342
0.831345