/*--------------------------------*- C++ -*----------------------------------*\
  =========                 |
  \\      /  F ield         | OpenFOAM: The Open Source CFD Toolbox
   \\    /   O peration     | Website:  https://openfoam.org
    \\  /    A nd           | Version:  7
     \\/     M anipulation  |
\*---------------------------------------------------------------------------*/
FoamFile
{
    version     2.0;
    format      ascii;
    class       volVectorField;
    location    "6.5";
    object      U;
}
// * * * * * * * * * * * * * * * * * * * * * * * * * * * * * * * * * * * * * //

dimensions      [0 1 -1 0 0 0 0];

internalField   nonuniform List<vector> 
90000
(
(2.14433 -0.377658 0)
(2.12565 -0.34644 0)
(2.10431 -0.302378 0)
(2.09127 -0.274306 0)
(2.07493 -0.233573 0)
(2.06704 -0.21133 0)
(2.05443 -0.175952 0)
(2.04969 -0.159249 0)
(2.03981 -0.129819 0)
(2.03691 -0.118291 0)
(2.0293 -0.0951954 0)
(2.02731 -0.0881827 0)
(2.02186 -0.0714565 0)
(2.02033 -0.0679758 0)
(2.01687 -0.0571862 0)
(2.01597 -0.055925 0)
(2.01388 -0.0493126 0)
(2.01362 -0.0488499 0)
(2.01214 -0.0450371 0)
(2.01236 -0.0443655 0)
(2.01037 -0.0414249 0)
(2.01044 -0.03932 0)
(2.0081 -0.0361647 0)
(2.00703 -0.0326165 0)
(2.00486 -0.0286733 0)
(2.00327 -0.0226164 0)
(2.00212 -0.0179967 0)
(2.00296 -0.0121924 0)
(2.00392 -0.0103218 0)
(2.00382 -0.0104456 0)
(2.00308 -0.0109131 0)
(2.00194 -0.0120201 0)
(2.00094 -0.013096 0)
(2.00027 -0.0149947 0)
(2.0004 -0.0158549 0)
(2.00049 -0.0170658 0)
(2.00131 -0.0169399 0)
(2.0019 -0.0168886 0)
(2.00316 -0.0162238 0)
(2.00425 -0.0154178 0)
(2.00469 -0.0146173 0)
(2.00539 -0.0148852 0)
(2.00529 -0.0150037 0)
(2.00499 -0.0157441 0)
(2.00432 -0.0169974 0)
(2.00303 -0.0181455 0)
(2.00349 -0.0185412 0)
(2.00391 -0.0184093 0)
(2.00468 -0.0176935 0)
(2.00518 -0.016905 0)
(2.00573 -0.0167706 0)
(2.00572 -0.0168663 0)
(2.00542 -0.0175108 0)
(2.00512 -0.0185352 0)
(2.00531 -0.0192087 0)
(2.00556 -0.018996 0)
(2.00594 -0.0185613 0)
(2.00642 -0.0184127 0)
(2.00635 -0.0184775 0)
(2.00615 -0.0189393 0)
(2.00627 -0.01963 0)
(2.00648 -0.0196919 0)
(2.00676 -0.0197575 0)
(2.00745 -0.0195499 0)
(2.00754 -0.0195815 0)
(2.0078 -0.0200957 0)
(2.00799 -0.020517 0)
(2.00829 -0.0206205 0)
(2.00853 -0.0207796 0)
(2.00885 -0.0210257 0)
(2.00917 -0.0213592 0)
(2.00955 -0.0215473 0)
(2.00994 -0.0217153 0)
(2.01047 -0.0220877 0)
(2.01096 -0.0224522 0)
(2.01148 -0.0226612 0)
(2.01184 -0.0228769 0)
(2.01238 -0.0231946 0)
(2.01279 -0.0235071 0)
(2.01327 -0.0236223 0)
(2.01384 -0.0236158 0)
(2.01436 -0.0237623 0)
(2.01486 -0.0238687 0)
(2.01545 -0.0241428 0)
(2.01592 -0.0244191 0)
(2.01633 -0.0246367 0)
(2.01665 -0.0249027 0)
(2.01706 -0.0252736 0)
(2.0175 -0.0256396 0)
(2.0179 -0.0258473 0)
(2.01836 -0.0260343 0)
(2.01883 -0.0261265 0)
(2.01925 -0.0263245 0)
(2.01966 -0.0266278 0)
(2.02019 -0.0270437 0)
(2.02082 -0.0274699 0)
(2.02164 -0.0277303 0)
(2.02253 -0.027962 0)
(2.02316 -0.0283003 0)
(2.0242 -0.0291025 0)
(2.16347 -0.409176 0)
(2.16309 -0.408796 0)
(2.16206 -0.407631 0)
(2.16015 -0.405254 0)
(2.15682 -0.40072 0)
(2.15226 -0.394196 0)
(2.14558 -0.383495 0)
(2.13812 -0.371146 0)
(2.12785 -0.351969 0)
(2.11821 -0.333677 0)
(2.10482 -0.305522 0)
(2.09462 -0.283104 0)
(2.07921 -0.247737 0)
(2.07022 -0.224272 0)
(2.05409 -0.185439 0)
(2.04758 -0.163907 0)
(2.03226 -0.126434 0)
(2.02857 -0.108488 0)
(2.01529 -0.0764923 0)
(2.01407 -0.0621489 0)
(2.00399 -0.0376438 0)
(2.00391 -0.0264821 0)
(1.99699 -0.00914185 0)
(1.99616 -0.00203783 0)
(1.99323 0.00751972 0)
(1.99213 0.00851437 0)
(1.99175 0.00842198 0)
(1.99108 0.00446402 0)
(1.99028 -0.00136826 0)
(1.99195 -0.00788117 0)
(1.99409 -0.0127358 0)
(1.996 -0.0159461 0)
(1.99709 -0.0173537 0)
(1.99815 -0.0186266 0)
(1.9986 -0.0186408 0)
(1.9993 -0.018351 0)
(2.00001 -0.0178293 0)
(2.0013 -0.0149284 0)
(2.00099 -0.0142716 0)
(2.00167 -0.0130962 0)
(2.00139 -0.0131983 0)
(2.00088 -0.0142182 0)
(2.00011 -0.0164952 0)
(1.99963 -0.0183109 0)
(1.99945 -0.0200499 0)
(1.99989 -0.0198572 0)
(2.00053 -0.0191164 0)
(2.00133 -0.0175917 0)
(2.00196 -0.0161437 0)
(2.00255 -0.0158426 0)
(2.00244 -0.0163547 0)
(2.00215 -0.0178187 0)
(2.0018 -0.0194618 0)
(2.00173 -0.0198119 0)
(2.0021 -0.0193879 0)
(2.00255 -0.0186361 0)
(2.00329 -0.0176923 0)
(2.00349 -0.0180475 0)
(2.00341 -0.0189334 0)
(2.00333 -0.0197855 0)
(2.00356 -0.0198478 0)
(2.00413 -0.0193712 0)
(2.00456 -0.0191486 0)
(2.00512 -0.0193818 0)
(2.00527 -0.0198203 0)
(2.00549 -0.0203775 0)
(2.00582 -0.0204718 0)
(2.0063 -0.0205213 0)
(2.00664 -0.0208025 0)
(2.00695 -0.0211103 0)
(2.00723 -0.0213607 0)
(2.00769 -0.0214681 0)
(2.00814 -0.021735 0)
(2.00862 -0.0221594 0)
(2.00916 -0.0224135 0)
(2.00975 -0.0225731 0)
(2.01016 -0.0228985 0)
(2.01063 -0.0232294 0)
(2.01101 -0.023469 0)
(2.01159 -0.0235204 0)
(2.01221 -0.0235543 0)
(2.01275 -0.0237368 0)
(2.01322 -0.0238709 0)
(2.01374 -0.0241583 0)
(2.01417 -0.024432 0)
(2.01457 -0.0246551 0)
(2.01488 -0.0249485 0)
(2.01529 -0.0253544 0)
(2.01573 -0.0256934 0)
(2.01614 -0.0258753 0)
(2.01664 -0.0260457 0)
(2.01712 -0.0261283 0)
(2.01751 -0.0263386 0)
(2.01786 -0.026672 0)
(2.01834 -0.0271009 0)
(2.01895 -0.0274957 0)
(2.01979 -0.0277171 0)
(2.02068 -0.0279363 0)
(2.02128 -0.0283057 0)
(2.02226 -0.0291321 0)
(2.16268 -0.409084 0)
(2.16264 -0.409064 0)
(2.1626 -0.409035 0)
(2.16256 -0.408989 0)
(2.16251 -0.408928 0)
(2.16242 -0.408823 0)
(2.16227 -0.408638 0)
(2.16195 -0.408324 0)
(2.16138 -0.407748 0)
(2.16049 -0.40662 0)
(2.1591 -0.404716 0)
(2.15704 -0.401514 0)
(2.1539 -0.396449 0)
(2.14971 -0.389088 0)
(2.1436 -0.377854 0)
(2.13654 -0.364092 0)
(2.12652 -0.343394 0)
(2.11694 -0.322741 0)
(2.10326 -0.291286 0)
(2.09322 -0.266456 0)
(2.07783 -0.227283 0)
(2.06982 -0.203481 0)
(2.05548 -0.163318 0)
(2.05053 -0.145083 0)
(2.03932 -0.110477 0)
(2.03689 -0.0986014 0)
(2.02746 -0.0746577 0)
(2.02738 -0.067596 0)
(2.01662 -0.0514211 0)
(2.01418 -0.0433066 0)
(2.00838 -0.035319 0)
(2.00761 -0.0307268 0)
(2.00555 -0.026443 0)
(2.00414 -0.0226576 0)
(2.0032 -0.0186597 0)
(2.00123 -0.013789 0)
(2.00028 -0.0107595 0)
(1.99946 -0.00893814 0)
(1.99801 -0.00952575 0)
(1.9966 -0.011841 0)
(1.99537 -0.0157796 0)
(1.99491 -0.0180423 0)
(1.99462 -0.0213409 0)
(1.99513 -0.0216769 0)
(1.99627 -0.0207354 0)
(1.99859 -0.0185601 0)
(1.99905 -0.0169777 0)
(2.00037 -0.0149839 0)
(2.00042 -0.0150314 0)
(1.99984 -0.0164234 0)
(1.99917 -0.0179547 0)
(1.99848 -0.0204325 0)
(1.99877 -0.0203494 0)
(1.99971 -0.0193824 0)
(2.00068 -0.0180949 0)
(2.00144 -0.0170536 0)
(2.00139 -0.0176425 0)
(2.00116 -0.0186932 0)
(2.00074 -0.0203489 0)
(2.00111 -0.0202723 0)
(2.00194 -0.019558 0)
(2.00261 -0.0188022 0)
(2.00296 -0.018971 0)
(2.00297 -0.0195817 0)
(2.00308 -0.0204992 0)
(2.00348 -0.020587 0)
(2.00399 -0.0203261 0)
(2.00433 -0.0205119 0)
(2.00461 -0.0209103 0)
(2.00488 -0.0213534 0)
(2.00529 -0.02137 0)
(2.00569 -0.021507 0)
(2.00615 -0.0218388 0)
(2.00662 -0.0222975 0)
(2.00728 -0.0224517 0)
(2.0078 -0.0225824 0)
(2.00821 -0.02301 0)
(2.00863 -0.0233725 0)
(2.00909 -0.0234778 0)
(2.00972 -0.0234465 0)
(2.0103 -0.0235472 0)
(2.01081 -0.0237254 0)
(2.01124 -0.0238777 0)
(2.01174 -0.0241916 0)
(2.01215 -0.0244749 0)
(2.01257 -0.0247109 0)
(2.01292 -0.0250629 0)
(2.01337 -0.025478 0)
(2.01377 -0.0257583 0)
(2.01422 -0.0259118 0)
(2.01477 -0.0260761 0)
(2.01524 -0.0261524 0)
(2.01564 -0.0263878 0)
(2.01601 -0.0267436 0)
(2.01649 -0.0271691 0)
(2.01712 -0.0275287 0)
(2.01798 -0.0277102 0)
(2.01885 -0.0279109 0)
(2.01949 -0.028311 0)
(2.02054 -0.0291668 0)
(2.16125 -0.408816 0)
(2.16122 -0.408815 0)
(2.16118 -0.408823 0)
(2.16114 -0.408825 0)
(2.1611 -0.408841 0)
(2.16105 -0.408836 0)
(2.161 -0.408852 0)
(2.16094 -0.408825 0)
(2.16089 -0.408783 0)
(2.16083 -0.408724 0)
(2.16078 -0.408665 0)
(2.16071 -0.40857 0)
(2.16062 -0.408461 0)
(2.16049 -0.408243 0)
(2.16022 -0.40794 0)
(2.15973 -0.407369 0)
(2.15893 -0.406261 0)
(2.15769 -0.404253 0)
(2.15564 -0.40068 0)
(2.15264 -0.395056 0)
(2.14774 -0.385365 0)
(2.14162 -0.372736 0)
(2.13177 -0.351202 0)
(2.12228 -0.329225 0)
(2.10627 -0.290962 0)
(2.09572 -0.261553 0)
(2.07446 -0.208216 0)
(2.06709 -0.178958 0)
(2.04576 -0.123976 0)
(2.04169 -0.102974 0)
(2.02342 -0.0614579 0)
(2.0211 -0.0490229 0)
(2.00993 -0.0253204 0)
(2.00836 -0.018117 0)
(2.00272 -0.00678892 0)
(2.0007 -0.00422192 0)
(1.99895 -0.00443238 0)
(1.99754 -0.00931592 0)
(1.99602 -0.0146165 0)
(1.99574 -0.0156158 0)
(1.99403 -0.0189319 0)
(1.99433 -0.0189865 0)
(1.99476 -0.0190039 0)
(1.99588 -0.0176217 0)
(1.99815 -0.0159667 0)
(1.99982 -0.0131835 0)
(1.99924 -0.0137678 0)
(1.99867 -0.0149258 0)
(1.99755 -0.0169646 0)
(1.99638 -0.0190564 0)
(1.99661 -0.020273 0)
(1.99714 -0.0195685 0)
(1.9985 -0.0185262 0)
(1.99961 -0.0171286 0)
(2.0003 -0.0165419 0)
(1.99993 -0.0174278 0)
(1.99916 -0.0188767 0)
(1.99904 -0.0199032 0)
(1.99944 -0.0197219 0)
(2.00017 -0.0192095 0)
(2.00096 -0.0184401 0)
(2.00099 -0.0187154 0)
(2.00093 -0.0193606 0)
(2.00091 -0.0202832 0)
(2.00126 -0.0203117 0)
(2.00174 -0.0199727 0)
(2.00217 -0.0202086 0)
(2.00233 -0.0205413 0)
(2.00257 -0.0210931 0)
(2.00291 -0.0211868 0)
(2.0033 -0.0211802 0)
(2.00368 -0.0214816 0)
(2.00414 -0.0219562 0)
(2.00466 -0.0222105 0)
(2.00529 -0.0223393 0)
(2.00572 -0.0226715 0)
(2.00625 -0.0230858 0)
(2.00667 -0.0233451 0)
(2.00722 -0.023409 0)
(2.00787 -0.0234225 0)
(2.00843 -0.0235843 0)
(2.00896 -0.0237209 0)
(2.00941 -0.023919 0)
(2.00994 -0.0242111 0)
(2.0104 -0.0244734 0)
(2.01087 -0.0247085 0)
(2.01126 -0.0251069 0)
(2.01179 -0.0255054 0)
(2.01221 -0.0257251 0)
(2.01272 -0.0258548 0)
(2.01334 -0.0260057 0)
(2.01383 -0.0260986 0)
(2.01426 -0.0263655 0)
(2.01473 -0.0267428 0)
(2.01526 -0.0271601 0)
(2.01594 -0.0274853 0)
(2.01685 -0.027675 0)
(2.01775 -0.0279057 0)
(2.01845 -0.0283246 0)
(2.01962 -0.0291711 0)
(2.15984 -0.408562 0)
(2.1598 -0.408562 0)
(2.15977 -0.408555 0)
(2.15974 -0.408548 0)
(2.1597 -0.408547 0)
(2.15967 -0.408541 0)
(2.15963 -0.408534 0)
(2.15961 -0.408539 0)
(2.15959 -0.408548 0)
(2.15958 -0.408557 0)
(2.15956 -0.408568 0)
(2.15953 -0.408592 0)
(2.15951 -0.408603 0)
(2.15947 -0.408633 0)
(2.15943 -0.40861 0)
(2.1594 -0.408562 0)
(2.15938 -0.408507 0)
(2.15935 -0.40844 0)
(2.15931 -0.40835 0)
(2.15924 -0.408215 0)
(2.1591 -0.407945 0)
(2.15879 -0.407468 0)
(2.15819 -0.406478 0)
(2.15708 -0.404367 0)
(2.15499 -0.400528 0)
(2.15158 -0.393548 0)
(2.14556 -0.381495 0)
(2.13756 -0.364059 0)
(2.12475 -0.335191 0)
(2.11261 -0.305044 0)
(2.09298 -0.256094 0)
(2.08101 -0.221856 0)
(2.05956 -0.16573 0)
(2.05141 -0.140324 0)
(2.03561 -0.0975768 0)
(2.03124 -0.0836898 0)
(2.02104 -0.0628754 0)
(2.02056 -0.053263 0)
(2.01136 -0.0406728 0)
(2.01016 -0.0337664 0)
(2.00498 -0.0264942 0)
(2.00348 -0.0201395 0)
(2.00144 -0.015312 0)
(1.99998 -0.00898288 0)
(1.99904 -0.00883215 0)
(1.9977 -0.0103723 0)
(1.99577 -0.0145096 0)
(1.99495 -0.017987 0)
(1.99468 -0.0222749 0)
(1.99521 -0.0224751 0)
(1.99679 -0.0207185 0)
(1.9987 -0.0184016 0)
(1.99953 -0.0159521 0)
(2.00005 -0.01602 0)
(1.99926 -0.0174385 0)
(1.9982 -0.0192759 0)
(1.99803 -0.0211634 0)
(1.9987 -0.0207585 0)
(1.99993 -0.0192945 0)
(2.00037 -0.0181254 0)
(2.00053 -0.0185343 0)
(2.00019 -0.0192699 0)
(1.99995 -0.0203597 0)
(2.00024 -0.0203653 0)
(2.00086 -0.0200971 0)
(2.00117 -0.0199885 0)
(2.00145 -0.020382 0)
(2.00161 -0.0209865 0)
(2.00177 -0.0211968 0)
(2.00214 -0.0211546 0)
(2.00247 -0.0214069 0)
(2.00287 -0.0217031 0)
(2.00324 -0.0220256 0)
(2.00383 -0.022173 0)
(2.00438 -0.0222179 0)
(2.00481 -0.0226594 0)
(2.00537 -0.0231055 0)
(2.00585 -0.0232276 0)
(2.00649 -0.0232366 0)
(2.00714 -0.023328 0)
(2.00768 -0.0235228 0)
(2.00822 -0.0236771 0)
(2.00869 -0.0239421 0)
(2.0092 -0.0242481 0)
(2.00969 -0.0244983 0)
(2.01016 -0.024731 0)
(2.01057 -0.025185 0)
(2.01114 -0.0255752 0)
(2.01161 -0.0257657 0)
(2.01219 -0.0259528 0)
(2.01286 -0.026145 0)
(2.01336 -0.0262055 0)
(2.01381 -0.0264586 0)
(2.01433 -0.026796 0)
(2.0149 -0.0271845 0)
(2.01565 -0.0275224 0)
(2.01662 -0.0276863 0)
(2.01755 -0.0278909 0)
(2.01829 -0.0283364 0)
(2.01952 -0.0292244 0)
(2.15906 -0.408405 0)
(2.15906 -0.408402 0)
(2.15905 -0.408406 0)
(2.15905 -0.408403 0)
(2.15904 -0.408406 0)
(2.15904 -0.408405 0)
(2.15904 -0.408406 0)
(2.15903 -0.408403 0)
(2.15903 -0.408409 0)
(2.15904 -0.408406 0)
(2.15904 -0.408413 0)
(2.15905 -0.408413 0)
(2.15906 -0.408422 0)
(2.15907 -0.408422 0)
(2.15907 -0.408429 0)
(2.1591 -0.408443 0)
(2.15913 -0.40847 0)
(2.15916 -0.408485 0)
(2.15918 -0.408523 0)
(2.1592 -0.408528 0)
(2.1592 -0.40858 0)
(2.15923 -0.408533 0)
(2.15927 -0.408496 0)
(2.15929 -0.408448 0)
(2.15931 -0.408381 0)
(2.15927 -0.408242 0)
(2.15911 -0.407908 0)
(2.15876 -0.407123 0)
(2.15781 -0.405217 0)
(2.15589 -0.401311 0)
(2.15174 -0.392903 0)
(2.14546 -0.379602 0)
(2.13335 -0.352948 0)
(2.12132 -0.324241 0)
(2.09849 -0.26914 0)
(2.08636 -0.231967 0)
(2.0571 -0.159649 0)
(2.05147 -0.129101 0)
(2.02792 -0.0709477 0)
(2.02642 -0.0554276 0)
(2.01282 -0.0239006 0)
(2.00923 -0.016193 0)
(2.00386 -0.00322634 0)
(2.00073 -0.00333889 0)
(1.99717 -0.00919971 0)
(1.99625 -0.0144548 0)
(1.99394 -0.0179062 0)
(1.99526 -0.0200175 0)
(1.99583 -0.0203098 0)
(1.99757 -0.0189252 0)
(2.00067 -0.014973 0)
(2.00085 -0.0149536 0)
(2.00038 -0.0151662 0)
(1.99926 -0.016968 0)
(1.99782 -0.0197226 0)
(1.99785 -0.0203937 0)
(1.99847 -0.0200794 0)
(1.99986 -0.0187038 0)
(2.00058 -0.0175032 0)
(2.00068 -0.0180272 0)
(2.00027 -0.0190325 0)
(1.99997 -0.0201483 0)
(2.00035 -0.0201759 0)
(2.00099 -0.0199858 0)
(2.00144 -0.0195539 0)
(2.00171 -0.0198773 0)
(2.00184 -0.0204753 0)
(2.00198 -0.0208136 0)
(2.00227 -0.0210264 0)
(2.00262 -0.02099 0)
(2.00294 -0.0212845 0)
(2.00327 -0.0217942 0)
(2.00364 -0.0220879 0)
(2.00426 -0.0222869 0)
(2.00468 -0.0224015 0)
(2.00522 -0.0228559 0)
(2.00571 -0.0232841 0)
(2.00632 -0.0233551 0)
(2.00703 -0.0233157 0)
(2.00759 -0.0233586 0)
(2.00811 -0.023572 0)
(2.00862 -0.0237356 0)
(2.00906 -0.0240357 0)
(2.00951 -0.0243597 0)
(2.01 -0.0246114 0)
(2.01042 -0.024859 0)
(2.01086 -0.0253441 0)
(2.01137 -0.0257047 0)
(2.01189 -0.025747 0)
(2.0125 -0.0258346 0)
(2.01318 -0.0260006 0)
(2.01366 -0.0261205 0)
(2.01411 -0.0264497 0)
(2.01461 -0.0268599 0)
(2.01519 -0.0272262 0)
(2.01599 -0.0274564 0)
(2.01699 -0.0276609 0)
(2.01791 -0.0279277 0)
(2.01864 -0.0283671 0)
(2.01986 -0.0292315 0)
(2.15917 -0.408416 0)
(2.15919 -0.408421 0)
(2.15921 -0.408419 0)
(2.15922 -0.408426 0)
(2.15925 -0.408425 0)
(2.15927 -0.408434 0)
(2.15929 -0.408433 0)
(2.15931 -0.408441 0)
(2.15934 -0.40844 0)
(2.15937 -0.40845 0)
(2.1594 -0.408449 0)
(2.15943 -0.40846 0)
(2.15947 -0.408458 0)
(2.1595 -0.40847 0)
(2.15954 -0.40847 0)
(2.15958 -0.408485 0)
(2.15963 -0.408488 0)
(2.15967 -0.408504 0)
(2.15972 -0.408508 0)
(2.15977 -0.408524 0)
(2.15983 -0.40853 0)
(2.15988 -0.408544 0)
(2.15993 -0.408571 0)
(2.15999 -0.408588 0)
(2.16003 -0.408621 0)
(2.16008 -0.408627 0)
(2.16009 -0.408658 0)
(2.16017 -0.408616 0)
(2.16023 -0.408594 0)
(2.16027 -0.408541 0)
(2.16024 -0.40842 0)
(2.16011 -0.407964 0)
(2.15956 -0.406812 0)
(2.15812 -0.403749 0)
(2.15462 -0.397013 0)
(2.14846 -0.383671 0)
(2.13657 -0.3583 0)
(2.12294 -0.325328 0)
(2.09982 -0.268669 0)
(2.08592 -0.227184 0)
(2.05992 -0.157563 0)
(2.05192 -0.131235 0)
(2.03362 -0.0814341 0)
(2.03134 -0.0724799 0)
(2.01729 -0.0513377 0)
(2.01583 -0.0410364 0)
(2.00832 -0.0303398 0)
(2.00607 -0.0224616 0)
(2.00403 -0.0157843 0)
(2.00166 -0.00920076 0)
(2.00092 -0.00969233 0)
(1.99894 -0.0125027 0)
(1.99751 -0.0169605 0)
(1.99655 -0.0227904 0)
(1.99705 -0.0232192 0)
(1.99862 -0.0218543 0)
(2.00095 -0.0186061 0)
(2.0017 -0.0165983 0)
(2.00156 -0.0168173 0)
(2.00062 -0.018285 0)
(2.00005 -0.0206902 0)
(2.00048 -0.0208716 0)
(2.00139 -0.0202252 0)
(2.00195 -0.0193805 0)
(2.00246 -0.0197137 0)
(2.00239 -0.0201969 0)
(2.00254 -0.0208814 0)
(2.00297 -0.0210403 0)
(2.00325 -0.0208084 0)
(2.00367 -0.0211979 0)
(2.00388 -0.0214901 0)
(2.00411 -0.021798 0)
(2.00471 -0.0218416 0)
(2.00517 -0.0218407 0)
(2.00557 -0.0223335 0)
(2.00617 -0.0229924 0)
(2.00671 -0.0230715 0)
(2.00742 -0.0230089 0)
(2.00803 -0.0231187 0)
(2.0085 -0.0233889 0)
(2.00899 -0.0236233 0)
(2.00942 -0.0238022 0)
(2.00982 -0.0241117 0)
(2.01023 -0.024386 0)
(2.01071 -0.0245722 0)
(2.01108 -0.0248436 0)
(2.01153 -0.025367 0)
(2.01198 -0.0257561 0)
(2.01251 -0.0258657 0)
(2.01312 -0.0259753 0)
(2.01377 -0.0261351 0)
(2.0142 -0.0262346 0)
(2.01461 -0.0265814 0)
(2.01509 -0.026938 0)
(2.01567 -0.0272966 0)
(2.0165 -0.0275111 0)
(2.01748 -0.0276442 0)
(2.01835 -0.0279289 0)
(2.01906 -0.0284209 0)
(2.02025 -0.0292994 0)
(2.15992 -0.408547 0)
(2.15995 -0.408551 0)
(2.15997 -0.408554 0)
(2.16 -0.40856 0)
(2.16003 -0.408564 0)
(2.16006 -0.408569 0)
(2.16009 -0.408574 0)
(2.16013 -0.408578 0)
(2.16016 -0.408584 0)
(2.1602 -0.408592 0)
(2.16024 -0.408594 0)
(2.16028 -0.408602 0)
(2.16032 -0.408608 0)
(2.16036 -0.408616 0)
(2.1604 -0.408617 0)
(2.16045 -0.408628 0)
(2.16049 -0.408632 0)
(2.16054 -0.408644 0)
(2.16059 -0.408645 0)
(2.16064 -0.408661 0)
(2.16069 -0.408663 0)
(2.16075 -0.408682 0)
(2.1608 -0.408682 0)
(2.16086 -0.408703 0)
(2.16092 -0.408704 0)
(2.16097 -0.408729 0)
(2.16103 -0.408731 0)
(2.16107 -0.408753 0)
(2.16111 -0.408758 0)
(2.16115 -0.408785 0)
(2.16118 -0.408777 0)
(2.16118 -0.408783 0)
(2.16125 -0.408757 0)
(2.16129 -0.408728 0)
(2.16128 -0.408631 0)
(2.16117 -0.40825 0)
(2.1606 -0.407057 0)
(2.15904 -0.403826 0)
(2.15486 -0.395574 0)
(2.14758 -0.37961 0)
(2.13239 -0.346031 0)
(2.11737 -0.307093 0)
(2.08756 -0.234705 0)
(2.07572 -0.188874 0)
(2.04226 -0.105784 0)
(2.03916 -0.0789343 0)
(2.01903 -0.0306373 0)
(2.01403 -0.0192324 0)
(2.00805 -0.00084303 0)
(2.00357 -0.00207317 0)
(1.99935 -0.011026 0)
(1.99828 -0.0160024 0)
(1.99711 -0.0208466 0)
(1.9977 -0.0214645 0)
(1.9994 -0.0204874 0)
(2.00284 -0.0159863 0)
(2.00333 -0.0157067 0)
(2.00275 -0.0161135 0)
(2.00132 -0.0183894 0)
(2.00041 -0.0206012 0)
(2.00065 -0.0208485 0)
(2.00173 -0.0201783 0)
(2.00295 -0.0189601 0)
(2.00319 -0.0191321 0)
(2.0031 -0.0196817 0)
(2.00301 -0.0207439 0)
(2.00336 -0.0209194 0)
(2.00385 -0.0206229 0)
(2.00411 -0.0208448 0)
(2.00441 -0.0211625 0)
(2.00461 -0.0218435 0)
(2.00499 -0.0219725 0)
(2.0057 -0.0219421 0)
(2.00596 -0.0219979 0)
(2.00649 -0.0225396 0)
(2.00699 -0.0231502 0)
(2.00762 -0.0232662 0)
(2.00828 -0.0230889 0)
(2.00871 -0.0229873 0)
(2.00916 -0.0232704 0)
(2.00967 -0.0235402 0)
(2.01002 -0.0238012 0)
(2.01042 -0.0242023 0)
(2.01084 -0.0244814 0)
(2.01129 -0.0246589 0)
(2.01165 -0.025022 0)
(2.01208 -0.0254871 0)
(2.01253 -0.0256836 0)
(2.01306 -0.0257804 0)
(2.01365 -0.0259282 0)
(2.01424 -0.0260915 0)
(2.01459 -0.0262181 0)
(2.01501 -0.0265654 0)
(2.01548 -0.0269127 0)
(2.01606 -0.0272329 0)
(2.01689 -0.0274657 0)
(2.01781 -0.0276812 0)
(2.01864 -0.0280087 0)
(2.01934 -0.0284883 0)
(2.02052 -0.029359 0)
(2.16086 -0.408719 0)
(2.16088 -0.408721 0)
(2.1609 -0.408725 0)
(2.16093 -0.408726 0)
(2.16096 -0.408731 0)
(2.16098 -0.408732 0)
(2.16101 -0.408737 0)
(2.16104 -0.408737 0)
(2.16107 -0.408743 0)
(2.1611 -0.408744 0)
(2.16113 -0.408751 0)
(2.16116 -0.408751 0)
(2.16119 -0.408759 0)
(2.16122 -0.40876 0)
(2.16126 -0.408768 0)
(2.16129 -0.408769 0)
(2.16133 -0.40878 0)
(2.16136 -0.408783 0)
(2.1614 -0.408793 0)
(2.16144 -0.408793 0)
(2.16147 -0.408805 0)
(2.16151 -0.408806 0)
(2.16155 -0.408819 0)
(2.16159 -0.408819 0)
(2.16162 -0.408835 0)
(2.16166 -0.408836 0)
(2.1617 -0.408854 0)
(2.16174 -0.408856 0)
(2.16178 -0.408876 0)
(2.16182 -0.408875 0)
(2.16186 -0.408894 0)
(2.16189 -0.408892 0)
(2.16191 -0.408898 0)
(2.16193 -0.408895 0)
(2.16193 -0.408899 0)
(2.16197 -0.408885 0)
(2.162 -0.40888 0)
(2.16201 -0.408854 0)
(2.16198 -0.408703 0)
(2.16172 -0.408129 0)
(2.16076 -0.406317 0)
(2.15823 -0.40095 0)
(2.15186 -0.388382 0)
(2.14091 -0.362836 0)
(2.12097 -0.316697 0)
(2.10222 -0.265136 0)
(2.07276 -0.18695 0)
(2.06024 -0.147203 0)
(2.03876 -0.0865088 0)
(2.03248 -0.0722538 0)
(2.02152 -0.0515307 0)
(2.0145 -0.0376943 0)
(2.01 -0.0271912 0)
(2.00759 -0.018699 0)
(2.00411 -0.00906486 0)
(2.00327 -0.0108892 0)
(2.00172 -0.0138076 0)
(2.00022 -0.0184262 0)
(1.99965 -0.0238748 0)
(2.0007 -0.0232843 0)
(2.00274 -0.0208811 0)
(2.00396 -0.0181344 0)
(2.00419 -0.0183106 0)
(2.0039 -0.0192137 0)
(2.00332 -0.0209436 0)
(2.00346 -0.0211066 0)
(2.00408 -0.0206454 0)
(2.0044 -0.0203392 0)
(2.00468 -0.0207109 0)
(2.00483 -0.0214624 0)
(2.00499 -0.021872 0)
(2.00552 -0.0218102 0)
(2.00607 -0.0216229 0)
(2.00658 -0.0220651 0)
(2.00699 -0.0227386 0)
(2.00737 -0.0230112 0)
(2.00801 -0.0229135 0)
(2.00858 -0.0228089 0)
(2.00903 -0.0230464 0)
(2.00944 -0.0233176 0)
(2.00992 -0.0235426 0)
(2.01027 -0.0238188 0)
(2.01072 -0.0242056 0)
(2.01116 -0.024497 0)
(2.01155 -0.0246638 0)
(2.01195 -0.0250875 0)
(2.01237 -0.0255822 0)
(2.01284 -0.0257616 0)
(2.01335 -0.0258298 0)
(2.0139 -0.0259532 0)
(2.01443 -0.0260885 0)
(2.01478 -0.0262269 0)
(2.01523 -0.026628 0)
(2.01569 -0.0269758 0)
(2.01624 -0.0272914 0)
(2.01704 -0.0274428 0)
(2.01795 -0.0276748 0)
(2.01877 -0.0280519 0)
(2.01947 -0.0285234 0)
(2.02066 -0.0293734 0)
(2.16164 -0.408872 0)
(2.16165 -0.408874 0)
(2.16167 -0.408875 0)
(2.16168 -0.408878 0)
(2.1617 -0.408879 0)
(2.16172 -0.408881 0)
(2.16173 -0.408881 0)
(2.16175 -0.408885 0)
(2.16177 -0.408886 0)
(2.16179 -0.408888 0)
(2.16181 -0.408887 0)
(2.16183 -0.408891 0)
(2.16185 -0.408891 0)
(2.16187 -0.408894 0)
(2.16189 -0.408894 0)
(2.16191 -0.408897 0)
(2.16193 -0.408899 0)
(2.16195 -0.408905 0)
(2.16197 -0.408908 0)
(2.16199 -0.408912 0)
(2.16201 -0.408913 0)
(2.16204 -0.408921 0)
(2.16206 -0.408922 0)
(2.16208 -0.408931 0)
(2.1621 -0.408932 0)
(2.16212 -0.408942 0)
(2.16214 -0.408944 0)
(2.16216 -0.408956 0)
(2.16219 -0.408956 0)
(2.16221 -0.40897 0)
(2.16223 -0.408971 0)
(2.16225 -0.408983 0)
(2.16228 -0.40899 0)
(2.16229 -0.408998 0)
(2.16231 -0.409002 0)
(2.16232 -0.408994 0)
(2.16233 -0.408992 0)
(2.16234 -0.408976 0)
(2.16235 -0.408967 0)
(2.16237 -0.408955 0)
(2.16238 -0.408927 0)
(2.16236 -0.408841 0)
(2.1622 -0.408479 0)
(2.16156 -0.40721 0)
(2.15939 -0.402934 0)
(2.15417 -0.391737 0)
(2.14165 -0.364793 0)
(2.12473 -0.322499 0)
(2.09403 -0.248702 0)
(2.07336 -0.185024 0)
(2.04447 -0.104412 0)
(2.02865 -0.058091 0)
(2.02065 -0.0246419 0)
(2.00995 -0.0051487 0)
(2.00771 0.000169937 0)
(2.00352 -0.0104437 0)
(2.00113 -0.0168265 0)
(2.00028 -0.0214759 0)
(2.00106 -0.0220446 0)
(2.00364 -0.020317 0)
(2.00578 -0.0172327 0)
(2.00545 -0.0173223 0)
(2.00426 -0.0185913 0)
(2.00327 -0.0210008 0)
(2.00338 -0.0212534 0)
(2.00433 -0.0204561 0)
(2.00479 -0.0195592 0)
(2.00489 -0.0200421 0)
(2.0047 -0.0210127 0)
(2.00475 -0.0220118 0)
(2.00519 -0.0219462 0)
(2.00598 -0.0211718 0)
(2.00638 -0.0216061 0)
(2.00677 -0.0222946 0)
(2.00692 -0.0229419 0)
(2.00748 -0.022897 0)
(2.0082 -0.0224307 0)
(2.00869 -0.0226678 0)
(2.00912 -0.0231175 0)
(2.00953 -0.0233804 0)
(2.00989 -0.0235217 0)
(2.01035 -0.0239124 0)
(2.0108 -0.0243057 0)
(2.01125 -0.0245144 0)
(2.0116 -0.0247269 0)
(2.01204 -0.0252007 0)
(2.01246 -0.0256055 0)
(2.01294 -0.0257373 0)
(2.01345 -0.0258161 0)
(2.01399 -0.0259564 0)
(2.0145 -0.0260834 0)
(2.01485 -0.0262989 0)
(2.01531 -0.026708 0)
(2.01576 -0.0270255 0)
(2.01631 -0.0272994 0)
(2.01711 -0.0274008 0)
(2.01798 -0.0276718 0)
(2.01881 -0.0281186 0)
(2.01951 -0.0285933 0)
(2.02071 -0.0294298 0)
(2.16214 -0.408958 0)
(2.16215 -0.408958 0)
(2.16215 -0.408959 0)
(2.16216 -0.40896 0)
(2.16217 -0.408961 0)
(2.16218 -0.408962 0)
(2.16219 -0.408963 0)
(2.1622 -0.408965 0)
(2.16221 -0.408965 0)
(2.16222 -0.408967 0)
(2.16223 -0.408968 0)
(2.16224 -0.408971 0)
(2.16225 -0.408973 0)
(2.16226 -0.408974 0)
(2.16227 -0.408979 0)
(2.16228 -0.40898 0)
(2.16229 -0.408984 0)
(2.1623 -0.408986 0)
(2.16231 -0.408993 0)
(2.16232 -0.408993 0)
(2.16233 -0.408997 0)
(2.16234 -0.409 0)
(2.16235 -0.409007 0)
(2.16236 -0.409009 0)
(2.16237 -0.409016 0)
(2.16238 -0.40902 0)
(2.16239 -0.409023 0)
(2.1624 -0.409027 0)
(2.16241 -0.409031 0)
(2.16242 -0.409033 0)
(2.16243 -0.409035 0)
(2.16245 -0.409033 0)
(2.16246 -0.409033 0)
(2.16247 -0.409035 0)
(2.16248 -0.409035 0)
(2.16249 -0.409032 0)
(2.1625 -0.40903 0)
(2.16251 -0.409023 0)
(2.16252 -0.409013 0)
(2.16252 -0.409004 0)
(2.16253 -0.408987 0)
(2.16254 -0.408979 0)
(2.16255 -0.408964 0)
(2.16255 -0.408938 0)
(2.16253 -0.408866 0)
(2.16238 -0.408582 0)
(2.16173 -0.407345 0)
(2.15969 -0.403176 0)
(2.15329 -0.390224 0)
(2.14145 -0.363384 0)
(2.11701 -0.305066 0)
(2.09668 -0.24869 0)
(2.06355 -0.159252 0)
(2.05031 -0.117429 0)
(2.03087 -0.0710949 0)
(2.02877 -0.0544949 0)
(2.01566 -0.0371846 0)
(2.01094 -0.0264264 0)
(2.00886 -0.0177528 0)
(2.00605 -0.0116399 0)
(2.00447 -0.012928 0)
(2.00198 -0.0171429 0)
(2.00112 -0.0228367 0)
(2.00166 -0.0229147 0)
(2.00359 -0.0213363 0)
(2.00504 -0.0194508 0)
(2.00498 -0.0195885 0)
(2.00431 -0.020817 0)
(2.00396 -0.0221728 0)
(2.00444 -0.0221489 0)
(2.00561 -0.0209219 0)
(2.00612 -0.021199 0)
(2.00614 -0.0218167 0)
(2.00621 -0.0228666 0)
(2.00664 -0.0229976 0)
(2.0075 -0.0224706 0)
(2.00818 -0.0225063 0)
(2.00867 -0.0228033 0)
(2.00907 -0.023155 0)
(2.00951 -0.0233663 0)
(2.0098 -0.0235551 0)
(2.01033 -0.0240036 0)
(2.01077 -0.0243364 0)
(2.01123 -0.0245091 0)
(2.01158 -0.0248216 0)
(2.012 -0.0253299 0)
(2.01244 -0.0256344 0)
(2.01296 -0.0256754 0)
(2.01349 -0.0258068 0)
(2.01407 -0.0259704 0)
(2.01455 -0.0260947 0)
(2.01489 -0.0263763 0)
(2.01533 -0.0267866 0)
(2.01578 -0.0270628 0)
(2.01636 -0.0272957 0)
(2.01715 -0.0273806 0)
(2.01799 -0.0277183 0)
(2.01881 -0.0281882 0)
(2.01951 -0.028666 0)
(2.02073 -0.0294993 0)
(2.1624 -0.408996 0)
(2.16241 -0.408997 0)
(2.16241 -0.408997 0)
(2.16241 -0.408999 0)
(2.16242 -0.409 0)
(2.16242 -0.409002 0)
(2.16242 -0.409003 0)
(2.16243 -0.409005 0)
(2.16243 -0.409007 0)
(2.16244 -0.409008 0)
(2.16244 -0.409011 0)
(2.16244 -0.409012 0)
(2.16245 -0.409015 0)
(2.16245 -0.409017 0)
(2.16246 -0.409019 0)
(2.16246 -0.409023 0)
(2.16246 -0.409026 0)
(2.16247 -0.409029 0)
(2.16247 -0.409032 0)
(2.16247 -0.409037 0)
(2.16248 -0.409038 0)
(2.16248 -0.409041 0)
(2.16249 -0.409047 0)
(2.16249 -0.409052 0)
(2.16249 -0.409053 0)
(2.1625 -0.409056 0)
(2.16251 -0.409058 0)
(2.16251 -0.409059 0)
(2.16252 -0.409062 0)
(2.16252 -0.409063 0)
(2.16253 -0.409063 0)
(2.16254 -0.409062 0)
(2.16254 -0.409062 0)
(2.16255 -0.409061 0)
(2.16256 -0.409057 0)
(2.16256 -0.409052 0)
(2.16257 -0.409047 0)
(2.16258 -0.40904 0)
(2.16259 -0.409031 0)
(2.1626 -0.409022 0)
(2.1626 -0.409011 0)
(2.1626 -0.409001 0)
(2.1626 -0.40899 0)
(2.1626 -0.408985 0)
(2.1626 -0.408972 0)
(2.1626 -0.408955 0)
(2.16259 -0.408942 0)
(2.16255 -0.408887 0)
(2.16236 -0.408555 0)
(2.1616 -0.407097 0)
(2.15863 -0.40124 0)
(2.15157 -0.385429 0)
(2.13237 -0.342407 0)
(2.11366 -0.290589 0)
(2.06924 -0.18327 0)
(2.05972 -0.130258 0)
(2.02686 -0.0457304 0)
(2.01694 -0.0278857 0)
(2.01338 -0.000224143 0)
(2.00526 -0.00583671 0)
(2.00195 -0.0146461 0)
(2.00044 -0.0210816 0)
(2.00106 -0.0219593 0)
(2.00283 -0.0210196 0)
(2.00528 -0.0177686 0)
(2.00502 -0.0181288 0)
(2.00397 -0.0201229 0)
(2.00306 -0.0224312 0)
(2.00356 -0.0224293 0)
(2.00516 -0.0207854 0)
(2.00582 -0.0203062 0)
(2.00558 -0.0210987 0)
(2.0055 -0.0225837 0)
(2.00579 -0.0229226 0)
(2.00662 -0.02253 0)
(2.00747 -0.0219235 0)
(2.00818 -0.0224254 0)
(2.00854 -0.0230178 0)
(2.00892 -0.0232288 0)
(2.00933 -0.0232569 0)
(2.00971 -0.0236448 0)
(2.01018 -0.024128 0)
(2.01069 -0.0243517 0)
(2.01112 -0.024469 0)
(2.01156 -0.0249071 0)
(2.01195 -0.025406 0)
(2.01242 -0.0255933 0)
(2.01294 -0.0256507 0)
(2.01351 -0.025835 0)
(2.0141 -0.0259875 0)
(2.01451 -0.0260973 0)
(2.0149 -0.0264542 0)
(2.01532 -0.0268315 0)
(2.01577 -0.0270614 0)
(2.01638 -0.0272837 0)
(2.01715 -0.0273734 0)
(2.01797 -0.0277883 0)
(2.01876 -0.0282821 0)
(2.01946 -0.0287554 0)
(2.0207 -0.0295897 0)
(2.16252 -0.409014 0)
(2.16252 -0.409015 0)
(2.16252 -0.409016 0)
(2.16252 -0.409017 0)
(2.16252 -0.40902 0)
(2.16252 -0.409021 0)
(2.16252 -0.409023 0)
(2.16252 -0.409026 0)
(2.16252 -0.409028 0)
(2.16252 -0.409031 0)
(2.16252 -0.409033 0)
(2.16253 -0.409034 0)
(2.16253 -0.409037 0)
(2.16253 -0.409039 0)
(2.16253 -0.40904 0)
(2.16253 -0.409041 0)
(2.16253 -0.409043 0)
(2.16253 -0.409045 0)
(2.16253 -0.409048 0)
(2.16253 -0.40905 0)
(2.16253 -0.409052 0)
(2.16253 -0.409053 0)
(2.16254 -0.409053 0)
(2.16254 -0.409056 0)
(2.16254 -0.409058 0)
(2.16254 -0.409058 0)
(2.16255 -0.409057 0)
(2.16255 -0.409057 0)
(2.16256 -0.409058 0)
(2.16257 -0.409057 0)
(2.16257 -0.409056 0)
(2.16258 -0.409052 0)
(2.16258 -0.409051 0)
(2.16259 -0.409048 0)
(2.1626 -0.409044 0)
(2.16261 -0.409041 0)
(2.16261 -0.409038 0)
(2.16262 -0.409034 0)
(2.16263 -0.409029 0)
(2.16263 -0.409024 0)
(2.16264 -0.409015 0)
(2.16265 -0.409004 0)
(2.16264 -0.408999 0)
(2.16264 -0.408994 0)
(2.16263 -0.40899 0)
(2.16262 -0.408989 0)
(2.16261 -0.408988 0)
(2.1626 -0.40899 0)
(2.16258 -0.408992 0)
(2.16255 -0.408996 0)
(2.16248 -0.408918 0)
(2.16219 -0.408387 0)
(2.16085 -0.40587 0)
(2.15664 -0.3964 0)
(2.14384 -0.36967 0)
(2.12408 -0.319382 0)
(2.08872 -0.229382 0)
(2.07046 -0.171768 0)
(2.03978 -0.0877544 0)
(2.03872 -0.0724191 0)
(2.01877 -0.0444473 0)
(2.0125 -0.0324682 0)
(2.01047 -0.021978 0)
(2.00558 -0.0127808 0)
(2.00431 -0.0138767 0)
(2.00171 -0.0183031 0)
(2.00083 -0.0242923 0)
(2.00193 -0.0238362 0)
(2.00466 -0.0212285 0)
(2.00563 -0.0197314 0)
(2.00541 -0.0202365 0)
(2.00451 -0.022231 0)
(2.00459 -0.0234156 0)
(2.0055 -0.0229865 0)
(2.00673 -0.0217242 0)
(2.00772 -0.0221236 0)
(2.00798 -0.0227995 0)
(2.00835 -0.0230877 0)
(2.00881 -0.0230344 0)
(2.00917 -0.0232921 0)
(2.00966 -0.0237352 0)
(2.01007 -0.0241255 0)
(2.01062 -0.0242693 0)
(2.01099 -0.0245034 0)
(2.0115 -0.0250239 0)
(2.0119 -0.0254314 0)
(2.01241 -0.0255064 0)
(2.01294 -0.0256314 0)
(2.0135 -0.0258446 0)
(2.01408 -0.025973 0)
(2.01446 -0.0261629 0)
(2.0149 -0.0265496 0)
(2.01532 -0.0268533 0)
(2.01579 -0.0270618 0)
(2.01643 -0.0272774 0)
(2.01715 -0.0273872 0)
(2.01797 -0.0278724 0)
(2.01876 -0.0283609 0)
(2.01946 -0.0288287 0)
(2.02072 -0.0296661 0)
(2.16256 -0.409037 0)
(2.16256 -0.409038 0)
(2.16255 -0.40904 0)
(2.16255 -0.40904 0)
(2.16255 -0.409041 0)
(2.16255 -0.409042 0)
(2.16255 -0.409043 0)