/*--------------------------------*- C++ -*----------------------------------*\
  =========                 |
  \\      /  F ield         | OpenFOAM: The Open Source CFD Toolbox
   \\    /   O peration     | Website:  https://openfoam.org
    \\  /    A nd           | Version:  7
     \\/     M anipulation  |
\*---------------------------------------------------------------------------*/
FoamFile
{
    version     2.0;
    format      ascii;
    class       volVectorField;
    location    "4.2";
    object      U;
}
// * * * * * * * * * * * * * * * * * * * * * * * * * * * * * * * * * * * * * //

dimensions      [0 1 -1 0 0 0 0];

internalField   nonuniform List<vector> 
8400
(
(2.44392 -0.6623 0)
(2.47973 -0.360187 0)
(2.47877 -0.0502582 0)
(2.51689 -0.0234272 0)
(2.50309 0.123903 0)
(2.5063 0.239089 0)
(2.52891 0.229705 0)
(2.54276 0.291096 0)
(2.57329 0.328247 0)
(2.5967 0.300172 0)
(2.62568 0.293816 0)
(2.6584 0.303776 0)
(2.66879 0.273353 0)
(2.68421 0.224007 0)
(2.71384 0.199889 0)
(2.72474 0.173981 0)
(2.7204 0.121549 0)
(2.72393 0.0670218 0)
(2.74279 0.05956 0)
(2.74995 0.0721355 0)
(2.76867 0.110591 0)
(2.77249 0.142046 0)
(2.77917 0.159704 0)
(2.78443 0.151521 0)
(2.78212 0.116408 0)
(2.79315 0.0795537 0)
(2.8086 0.0478354 0)
(2.81016 0.0357013 0)
(2.81815 0.0319753 0)
(2.84622 0.024331 0)
(2.57228 -1.38631 0)
(2.61448 -1.4106 0)
(2.6471 -1.39413 0)
(2.66098 -1.30133 0)
(2.63526 -1.12869 0)
(2.59297 -0.914644 0)
(2.56554 -0.757219 0)
(2.53773 -0.56799 0)
(2.51367 -0.338434 0)
(2.51987 -0.239805 0)
(2.52549 -0.171972 0)
(2.52159 -0.0327113 0)
(2.55025 -0.0348825 0)
(2.55981 -0.00993484 0)
(2.57062 0.055946 0)
(2.58055 0.0541031 0)
(2.59813 0.0611281 0)
(2.60747 0.072281 0)
(2.61393 0.0682259 0)
(2.61355 0.0840049 0)
(2.63087 0.0557713 0)
(2.6338 0.0442712 0)
(2.63755 0.0453375 0)
(2.6435 0.0632411 0)
(2.64399 0.0863504 0)
(2.66714 0.0806255 0)
(2.68362 0.0784663 0)
(2.70156 0.0706212 0)
(2.7196 0.048787 0)
(2.75139 0.0247022 0)
(2.83924 -1.49244 0)
(2.88352 -1.51958 0)
(2.91172 -1.5511 0)
(2.95531 -1.57483 0)
(2.98625 -1.61466 0)
(3.00592 -1.65983 0)
(3.0337 -1.69803 0)
(3.05435 -1.70958 0)
(3.03331 -1.6445 0)
(2.97428 -1.49183 0)
(2.88532 -1.32201 0)
(2.77079 -1.0057 0)
(2.72212 -0.772338 0)
(2.6296 -0.462363 0)
(2.5988 -0.278584 0)
(2.57023 -0.0825568 0)
(2.53618 0.100948 0)
(2.51763 0.200173 0)
(2.51853 0.217213 0)
(2.52829 0.178321 0)
(2.53177 0.119626 0)
(2.56879 0.0808238 0)
(2.58937 0.0498262 0)
(2.60395 0.0401968 0)
(2.60543 0.0300488 0)
(2.61188 0.0364306 0)
(2.63892 0.0482515 0)
(2.66177 0.0409138 0)
(2.68378 0.0238221 0)
(2.71969 0.00803932 0)
(3.00889 -1.63385 0)
(3.02769 -1.65616 0)
(3.03845 -1.68056 0)
(3.05478 -1.69905 0)
(3.06776 -1.72445 0)
(3.07442 -1.74644 0)
(3.07654 -1.74455 0)
(3.08617 -1.74335 0)
(3.09698 -1.73912 0)
(3.09815 -1.73524 0)
(3.09495 -1.73226 0)
(3.08519 -1.73067 0)
(3.08507 -1.72548 0)
(3.06695 -1.66388 0)
(3.00981 -1.50037 0)
(2.92203 -1.27819 0)
(2.85851 -0.982538 0)
(2.79807 -0.637048 0)
(2.76894 -0.399418 0)
(2.73536 -0.223889 0)
(2.69158 -0.0940108 0)
(2.66452 -0.0161661 0)
(2.64765 0.0224004 0)
(2.64252 0.0256736 0)
(2.63611 0.00664021 0)
(2.66 0.0221347 0)
(2.6762 0.0209889 0)
(2.68295 0.00359124 0)
(2.70804 -0.0246111 0)
(2.7352 -0.0253632 0)
(3.07253 -1.73693 0)
(3.06853 -1.73772 0)
(3.06924 -1.74153 0)
(3.07282 -1.74927 0)
(3.07364 -1.75593 0)
(3.08082 -1.76256 0)
(3.0975 -1.75682 0)
(3.10331 -1.74506 0)
(3.10398 -1.74075 0)
(3.10463 -1.72644 0)
(3.09986 -1.72134 0)
(3.07818 -1.70823 0)
(3.05124 -1.6738 0)
(3.07375 -1.63549 0)
(3.08735 -1.63164 0)
(3.07753 -1.65866 0)
(3.07807 -1.6323 0)
(3.08539 -1.60381 0)
(3.06398 -1.45733 0)
(3.00283 -1.19397 0)
(2.91819 -0.810802 0)
(2.85114 -0.483402 0)
(2.80301 -0.257831 0)
(2.78024 -0.131784 0)
(2.7797 -0.0531716 0)
(2.75373 0.0271689 0)
(2.73761 0.0202279 0)
(2.7334 0.0109955 0)
(2.78427 0.0377117 0)
(2.79964 0.0328585 0)
(3.08717 -1.75344 0)
(3.0811 -1.75615 0)
(3.08225 -1.75474 0)
(3.08583 -1.74883 0)
(3.08869 -1.74094 0)
(3.08769 -1.72772 0)
(3.09166 -1.70421 0)
(3.08846 -1.65768 0)
(3.08705 -1.61775 0)
(3.11066 -1.5812 0)
(3.11919 -1.57046 0)
(3.08399 -1.61115 0)
(3.06393 -1.62854 0)
(3.07463 -1.55821 0)
(3.09767 -1.52671 0)
(3.09518 -1.54124 0)
(3.0974 -1.55996 0)
(3.09899 -1.52338 0)
(3.10098 -1.50635 0)
(3.10611 -1.49392 0)
(3.10659 -1.48676 0)
(3.08931 -1.43207 0)
(3.03766 -1.19073 0)
(2.98343 -0.882505 0)
(2.98033 -0.649345 0)
(2.94251 -0.427077 0)
(2.94442 -0.278647 0)
(2.90874 -0.114734 0)
(2.89689 -0.0419386 0)
(2.86556 0.0147402 0)
(3.11563 -1.60985 0)
(3.11879 -1.58077 0)
(3.11916 -1.57326 0)
(3.11836 -1.56373 0)
(3.11179 -1.56035 0)
(3.09297 -1.58059 0)
(3.08615 -1.58845 0)
(3.09037 -1.57364 0)
(3.09752 -1.54903 0)
(3.10753 -1.52271 0)
(3.12379 -1.51009 0)
(3.11219 -1.52533 0)
(3.09627 -1.55487 0)
(3.08473 -1.52904 0)
(3.08521 -1.50902 0)
(3.10884 -1.46061 0)
(3.1242 -1.43851 0)
(3.12009 -1.44817 0)
(3.10433 -1.39053 0)
(3.10346 -1.35333 0)
(3.10684 -1.34466 0)
(3.12126 -1.31293 0)
(3.11159 -1.33436 0)
(3.11351 -1.33107 0)
(3.1149 -1.31173 0)
(3.09562 -1.19262 0)
(3.08175 -0.990245 0)
(3.06572 -0.729455 0)
(3.04801 -0.593019 0)
(2.99801 -0.294501 0)
(3.10849 -1.54304 0)
(3.11272 -1.53291 0)
(3.11424 -1.53811 0)
(3.11541 -1.5429 0)
(3.11929 -1.53801 0)
(3.10927 -1.54681 0)
(3.0901 -1.57579 0)
(3.0803 -1.55323 0)
(3.08726 -1.50132 0)
(3.09053 -1.48808 0)
(3.10998 -1.45832 0)
(3.1324 -1.42759 0)
(3.13261 -1.42288 0)
(3.12125 -1.40066 0)
(3.11409 -1.34021 0)
(3.11963 -1.32392 0)
(3.12979 -1.30442 0)
(3.12416 -1.30006 0)
(3.11164 -1.29997 0)
(3.10244 -1.31878 0)
(3.10705 -1.3001 0)
(3.11571 -1.26752 0)
(3.12023 -1.25622 0)
(3.12312 -1.23514 0)
(3.13189 -1.20151 0)
(3.13225 -1.20201 0)
(3.1264 -1.19538 0)
(3.1245 -1.19741 0)
(3.12653 -1.17289 0)
(3.10889 -0.901219 0)
(3.11324 -1.41812 0)
(3.11372 -1.40633 0)
(3.13956 -1.38191 0)
(3.15399 -1.34808 0)
(3.16133 -1.31351 0)
(3.17205 -1.29862 0)
(3.15884 -1.30045 0)
(3.13399 -1.31829 0)
(3.12595 -1.29844 0)
(3.124 -1.26494 0)
(3.13877 -1.2327 0)
(3.15326 -1.22293 0)
(3.13921 -1.24847 0)
(3.12429 -1.26606 0)
(3.11876 -1.24406 0)
(3.11875 -1.24383 0)
(3.1244 -1.23962 0)
(3.13003 -1.2287 0)
(3.12504 -1.22742 0)
(3.12712 -1.22246 0)
(3.1276 -1.21757 0)
(3.12819 -1.20117 0)
(3.12285 -1.16571 0)
(3.12287 -1.15259 0)
(3.12287 -1.14455 0)
(3.11637 -1.14917 0)
(3.11943 -1.13629 0)
(3.12969 -1.12478 0)
(3.14403 -1.10327 0)
(3.14964 -1.09185 0)
(3.12754 -1.2567 0)
(3.12271 -1.24442 0)
(3.12799 -1.22843 0)
(3.1391 -1.22046 0)
(3.14987 -1.21528 0)
(3.15862 -1.21008 0)
(3.15181 -1.21681 0)
(3.1312 -1.24435 0)
(3.119 -1.25464 0)
(3.11311 -1.22242 0)
(3.12598 -1.19895 0)
(3.13658 -1.1922 0)
(3.13344 -1.19642 0)
(3.13126 -1.20406 0)
(3.11987 -1.18862 0)
(3.12131 -1.17306 0)
(3.13301 -1.16063 0)
(3.14174 -1.13973 0)
(3.13924 -1.12737 0)
(3.13851 -1.08961 0)
(3.13968 -1.07126 0)
(3.13561 -1.06121 0)
(3.12404 -1.0699 0)
(3.12061 -1.06875 0)
(3.12066 -1.072 0)
(3.12223 -1.06555 0)
(3.1379 -1.05132 0)
(3.14502 -1.03631 0)
(3.15205 -1.02118 0)
(3.15542 -1.00925 0)
(3.142 -1.13508 0)
(3.13353 -1.12769 0)
(3.13213 -1.0973 0)
(3.14059 -1.07212 0)
(3.14386 -1.06178 0)
(3.15688 -1.05958 0)
(3.15687 -1.0622 0)
(3.14976 -1.08034 0)
(3.1401 -1.09439 0)
(3.13636 -1.0684 0)
(3.14399 -1.05025 0)
(3.14812 -1.03839 0)
(3.15192 -1.02091 0)
(3.15007 -1.0183 0)
(3.14339 -1.01373 0)
(3.13868 -0.995906 0)
(3.14042 -0.987707 0)
(3.14179 -0.985846 0)
(3.13648 -0.995649 0)
(3.13404 -0.995191 0)
(3.13159 -1.0007 0)
(3.13402 -0.993555 0)
(3.13144 -1.00062 0)
(3.13065 -0.992508 0)
(3.1333 -0.986933 0)
(3.13859 -0.974777 0)
(3.14248 -0.96373 0)
(3.14989 -0.947758 0)
(3.15065 -0.944785 0)
(3.14976 -0.947869 0)
(3.1508 -0.970022 0)
(3.1371 -0.972337 0)
(3.12742 -0.957372 0)
(3.13638 -0.933438 0)
(3.14009 -0.9169 0)
(3.15195 -0.914525 0)
(3.15719 -0.921664 0)
(3.15364 -0.926563 0)
(3.14375 -0.945762 0)
(3.13462 -0.939862 0)
(3.13655 -0.921352 0)
(3.142 -0.919558 0)
(3.14427 -0.922729 0)
(3.14362 -0.930534 0)
(3.13672 -0.928477 0)
(3.13261 -0.923553 0)
(3.13325 -0.923801 0)
(3.13448 -0.924447 0)
(3.13529 -0.924766 0)
(3.13325 -0.923139 0)
(3.13181 -0.921771 0)
(3.13359 -0.916575 0)
(3.13543 -0.907811 0)
(3.1367 -0.898647 0)
(3.13864 -0.890623 0)
(3.14195 -0.881274 0)
(3.14288 -0.880512 0)
(3.14448 -0.882634 0)
(3.143 -0.88973 0)
(3.15031 -0.891119 0)
(3.14984 -0.804542 0)
(3.14063 -0.811414 0)
(3.13129 -0.814838 0)
(3.1311 -0.800247 0)
(3.13873 -0.777623 0)
(3.14347 -0.75833 0)
(3.154 -0.764331 0)
(3.14741 -0.78368 0)
(3.14239 -0.795624 0)
(3.13415 -0.803912 0)
(3.13227 -0.794316 0)
(3.13626 -0.786563 0)
(3.14297 -0.785306 0)
(3.14322 -0.78864 0)
(3.13922 -0.792317 0)
(3.13731 -0.791269 0)
(3.13632 -0.787918 0)
(3.13754 -0.786787 0)
(3.13881 -0.784743 0)
(3.13904 -0.781504 0)
(3.13675 -0.778631 0)
(3.13228 -0.781487 0)
(3.13137 -0.783764 0)
(3.13196 -0.788882 0)
(3.13344 -0.79635 0)
(3.13588 -0.80114 0)
(3.13795 -0.806994 0)
(3.14334 -0.80907 0)
(3.14988 -0.808588 0)
(3.15916 -0.804213 0)
(3.1372 -0.62429 0)
(3.13472 -0.632767 0)
(3.12303 -0.647635 0)
(3.11774 -0.649963 0)
(3.12239 -0.642929 0)
(3.12801 -0.62716 0)
(3.13984 -0.609744 0)
(3.14446 -0.625829 0)
(3.13142 -0.64086 0)
(3.12438 -0.648449 0)
(3.1187 -0.657756 0)
(3.12312 -0.657248 0)
(3.13352 -0.656934 0)
(3.13589 -0.65936 0)
(3.13349 -0.666897 0)
(3.13074 -0.6693 0)
(3.12761 -0.674825 0)
(3.12775 -0.682468 0)
(3.12904 -0.686821 0)
(3.1291 -0.691744 0)
(3.12913 -0.699474 0)
(3.1289 -0.701416 0)
(3.12833 -0.707256 0)
(3.12979 -0.710833 0)
(3.13246 -0.716165 0)
(3.13575 -0.722038 0)
(3.14119 -0.722741 0)
(3.1473 -0.722753 0)
(3.15365 -0.715482 0)
(3.15733 -0.719286 0)
(3.11828 -0.463196 0)
(3.11654 -0.470978 0)
(3.11273 -0.480077 0)
(3.09911 -0.490782 0)
(3.0976 -0.492103 0)
(3.10375 -0.482926 0)
(3.11486 -0.464315 0)
(3.12775 -0.472112 0)
(3.11914 -0.491029 0)
(3.11349 -0.507336 0)
(3.10521 -0.520953 0)
(3.10591 -0.519998 0)
(3.11642 -0.521727 0)
(3.12274 -0.52848 0)
(3.12068 -0.538403 0)
(3.11849 -0.540411 0)
(3.11871 -0.54897 0)
(3.11816 -0.561622 0)
(3.1176 -0.564702 0)
(3.11947 -0.570197 0)
(3.12193 -0.577448 0)
(3.12237 -0.58371 0)
(3.12176 -0.597501 0)
(3.12407 -0.599506 0)
(3.12757 -0.60585 0)
(3.13207 -0.604172 0)
(3.13582 -0.610843 0)
(3.13749 -0.611786 0)
(3.14113 -0.623091 0)
(3.14701 -0.643499 0)
(3.08984 -0.277549 0)
(3.08705 -0.302934 0)
(3.088 -0.310679 0)
(3.07742 -0.334025 0)
(3.06866 -0.346266 0)
(3.07009 -0.343816 0)
(3.08249 -0.32923 0)
(3.102 -0.320375 0)
(3.10098 -0.335071 0)
(3.09475 -0.357781 0)
(3.08624 -0.380844 0)
(3.08281 -0.383854 0)
(3.09126 -0.383581 0)
(3.10343 -0.396849 0)
(3.10187 -0.407899 0)
(3.09973 -0.409798 0)
(3.10133 -0.420067 0)
(3.10266 -0.439998 0)
(3.10139 -0.446701 0)
(3.10402 -0.457028 0)
(3.10782 -0.466561 0)
(3.1096 -0.475843 0)
(3.11014 -0.487008 0)
(3.11218 -0.499425 0)
(3.11601 -0.508897 0)
(3.12108 -0.524189 0)
(3.12585 -0.533922 0)
(3.13034 -0.546418 0)
(3.13457 -0.563493 0)
(3.1419 -0.575679 0)
(3.04012 -0.100615 0)
(3.04952 -0.127969 0)
(3.04379 -0.150391 0)
(3.04283 -0.157604 0)
(3.03646 -0.18742 0)
(3.03276 -0.204016 0)
(3.04443 -0.201966 0)
(3.06421 -0.18315 0)
(3.06938 -0.18602 0)
(3.06831 -0.208709 0)
(3.05862 -0.240822 0)
(3.05164 -0.247302 0)
(3.05825 -0.245993 0)
(3.07587 -0.264636 0)
(3.07511 -0.280127 0)
(3.07322 -0.280544 0)
(3.07703 -0.295192 0)
(3.0789 -0.314442 0)
(3.07872 -0.330371 0)
(3.08166 -0.341412 0)
(3.08642 -0.349557 0)
(3.09073 -0.365293 0)
(3.09237 -0.381746 0)
(3.09487 -0.393677 0)
(3.10033 -0.405006 0)
(3.10686 -0.418403 0)
(3.11211 -0.426418 0)
(3.11716 -0.437038 0)
(3.12117 -0.444118 0)
(3.12689 -0.460072 0)
(2.97955 0.0567809 0)
(2.99062 0.0345089 0)
(2.99328 0.0058092 0)
(3.00028 -0.010633 0)
(2.99774 -0.0503536 0)
(2.99109 -0.0687915 0)
(2.99748 -0.0664242 0)
(3.01375 -0.0419771 0)
(3.02182 -0.0407848 0)
(3.0271 -0.0633276 0)
(3.02112 -0.103747 0)
(3.01285 -0.117182 0)
(3.01857 -0.11444 0)
(3.03698 -0.1341 0)
(3.03948 -0.152828 0)
(3.03876 -0.156452 0)
(3.04346 -0.169711 0)
(3.04777 -0.193787 0)
(3.04754 -0.208468 0)
(3.0515 -0.222687 0)
(3.05855 -0.238007 0)
(3.0637 -0.249177 0)
(3.06742 -0.267948 0)
(3.07183 -0.286268 0)
(3.07862 -0.301218 0)
(3.08574 -0.311373 0)
(3.09344 -0.330898 0)
(3.09946 -0.346902 0)
(3.10462 -0.36298 0)
(3.11321 -0.391051 0)
(2.90976 0.19204 0)
(2.91807 0.180603 0)
(2.93223 0.153177 0)
(2.94299 0.132763 0)
(2.94567 0.0982773 0)
(2.93748 0.0774095 0)
(2.93967 0.0714996 0)
(2.9523 0.0886175 0)
(2.96038 0.0941946 0)
(2.97505 0.0699085 0)
(2.97317 0.0273233 0)
(2.96712 0.0138997 0)
(2.96896 0.0177854 0)
(2.98785 -0.00830315 0)
(2.99276 -0.0267035 0)
(2.99536 -0.0325926 0)
(3.00418 -0.0504901 0)
(3.00923 -0.0718668 0)
(3.01034 -0.0886934 0)
(3.01555 -0.106113 0)
(3.02351 -0.122385 0)
(3.03071 -0.136481 0)
(3.03808 -0.160531 0)
(3.04335 -0.175484 0)
(3.05126 -0.191643 0)
(3.0612 -0.213324 0)
(3.06869 -0.226796 0)
(3.0761 -0.244345 0)
(3.0831 -0.264752 0)
(3.09297 -0.29028 0)
(2.84769 0.310499 0)
(2.84938 0.308594 0)
(2.86704 0.286818 0)
(2.87691 0.257583 0)
(2.87619 0.249132 0)
(2.87679 0.242331 0)
(2.8818 0.226093 0)
(2.88764 0.221809 0)
(2.89189 0.222123 0)
(2.90947 0.195386 0)
(2.91454 0.15831 0)
(2.91389 0.156228 0)
(2.9195 0.150831 0)
(2.93634 0.117468 0)
(2.9406 0.100964 0)
(2.9469 0.088563 0)
(2.95584 0.0735431 0)
(2.96484 0.0473593 0)
(2.96905 0.0284904 0)
(2.97491 0.0131592 0)
(2.98607 -0.0111936 0)
(2.99471 -0.0286397 0)
(3.00259 -0.0466092 0)
(3.01162 -0.0699321 0)
(3.02094 -0.0873666 0)
(3.03097 -0.104069 0)
(3.04168 -0.129081 0)
(3.05048 -0.149296 0)
(3.05857 -0.167988 0)
(3.07165 -0.201134 0)
(2.81663 0.373472 0)
(2.8176 0.371501 0)
(2.8218 0.365708 0)
(2.82561 0.358826 0)
(2.82706 0.356392 0)
(2.82954 0.351824 0)
(2.83197 0.346665 0)
(2.83563 0.340313 0)
(2.84176 0.33222 0)
(2.84916 0.321643 0)
(2.85895 0.300061 0)
(2.86331 0.285088 0)
(2.86664 0.280073 0)
(2.87828 0.258252 0)
(2.88708 0.234294 0)
(2.89374 0.219062 0)
(2.90592 0.195231 0)
(2.91444 0.176318 0)
(2.92456 0.149929 0)
(2.93252 0.130746 0)
(2.94383 0.106928 0)
(2.95455 0.0844286 0)
(2.96516 0.0618136 0)
(2.97647 0.0383472 0)
(2.98843 0.0144442 0)
(2.99998 -0.00544006 0)
(3.01199 -0.0290073 0)
(3.02296 -0.0537321 0)
(3.03221 -0.075171 0)
(3.04717 -0.109141 0)
(2.81922 0.366391 0)
(2.81998 0.365482 0)
(2.82133 0.365408 0)
(2.82304 0.367782 0)
(2.82304 0.37311 0)
(2.82095 0.376447 0)
(2.82072 0.376262 0)
(2.82061 0.374385 0)
(2.82171 0.369353 0)
(2.82399 0.364003 0)
(2.8257 0.362366 0)
(2.8272 0.362888 0)
(2.83058 0.360167 0)
(2.83586 0.35241 0)
(2.84149 0.341525 0)
(2.84643 0.332357 0)
(2.8546 0.317126 0)
(2.86365 0.298562 0)
(2.8727 0.280201 0)
(2.8846 0.256062 0)
(2.89611 0.232305 0)
(2.90823 0.207124 0)
(2.92266 0.17674 0)
(2.93503 0.153595 0)
(2.95032 0.124402 0)
(2.96475 0.0972341 0)
(2.97834 0.0714508 0)
(2.9912 0.0455749 0)
(3.00267 0.019967 0)
(3.02015 -0.018555 0)
(2.85457 0.299129 0)
(2.85033 0.306788 0)
(2.84797 0.323401 0)
(2.84307 0.333509 0)
(2.83824 0.35801 0)
(2.84057 0.372533 0)
(2.83294 0.367009 0)
(2.82859 0.349276 0)
(2.83136 0.346292 0)
(2.83199 0.349459 0)
(2.83133 0.361465 0)
(2.83287 0.367386 0)
(2.83075 0.366692 0)
(2.83016 0.363077 0)
(2.83081 0.359299 0)
(2.8318 0.35927 0)
(2.83333 0.35886 0)
(2.836 0.356742 0)
(2.83945 0.352285 0)
(2.84406 0.345228 0)
(2.85134 0.333226 0)
(2.86083 0.31809 0)
(2.87333 0.297758 0)
(2.88762 0.273093 0)
(2.90378 0.244651 0)
(2.9199 0.216245 0)
(2.93755 0.183247 0)
(2.95332 0.152773 0)
(2.96758 0.123019 0)
(2.9888 0.0777134 0)
(2.93226 0.153737 0)
(2.92212 0.175998 0)
(2.91773 0.178244 0)
(2.91717 0.181036 0)
(2.90283 0.212307 0)
(2.90239 0.238147 0)
(2.90116 0.236913 0)
(2.88707 0.248126 0)
(2.88032 0.254667 0)
(2.87113 0.273622 0)
(2.86481 0.303407 0)
(2.86306 0.308896 0)
(2.86308 0.308728 0)
(2.85 0.324314 0)
(2.84619 0.336048 0)
(2.84445 0.335717 0)
(2.84022 0.345168 0)
(2.84003 0.348998 0)
(2.84063 0.348262 0)
(2.84111 0.34752 0)
(2.84206 0.347139 0)
(2.84421 0.346273 0)
(2.84859 0.343431 0)
(2.85487 0.338695 0)
(2.86385 0.32905 0)
(2.87584 0.314203 0)
(2.89108 0.292999 0)
(2.9074 0.267492 0)
(2.92389 0.238454 0)
(2.94936 0.188738 0)
(2.99071 0.0213751 0)
(2.98869 0.0247365 0)
(2.98584 0.0296419 0)
(2.98223 0.0359397 0)
(2.97906 0.0424809 0)
(2.97557 0.0550577 0)
(2.97464 0.0592496 0)
(2.96807 0.0718895 0)
(2.96128 0.0818155 0)
(2.95304 0.0952879 0)
(2.94326 0.118271 0)
(2.93635 0.139207 0)
(2.92773 0.157992 0)
(2.92073 0.171297 0)
(2.9036 0.208607 0)
(2.89777 0.221395 0)
(2.88354 0.249243 0)
(2.87522 0.269024 0)
(2.86809 0.287032 0)
(2.86013 0.303927 0)
(2.85354 0.32155 0)
(2.85152 0.323198 0)
(2.8514 0.3313 0)
(2.85318 0.332239 0)
(2.85658 0.331786 0)
(2.86155 0.329593 0)
(2.86856 0.325986 0)
(2.87753 0.321576 0)
(2.88767 0.312102 0)
(2.90866 0.284891 0)
(2.99972 0.000593757 0)
(2.99964 0.000734218 0)
(2.99949 0.000979029 0)
(2.99932 0.00126488 0)
(2.99906 0.00174837 0)
(2.99877 0.00241699 0)
(2.99846 0.00319909 0)
(2.99794 0.00421297 0)
(2.99708 0.00564749 0)
(2.99569 0.00800406 0)
(2.99401 0.0111523 0)
(2.99174 0.0165485 0)
(2.98956 0.02071 0)
(2.98482 0.0297941 0)
(2.97902 0.0412744 0)
(2.97309 0.0538585 0)
(2.96259 0.0759399 0)
(2.9553 0.0906069 0)
(2.93864 0.127275 0)
(2.92936 0.147155 0)
(2.91297 0.181831 0)
(2.89761 0.216527 0)
(2.88953 0.236342 0)
(2.87404 0.272197 0)
(2.86942 0.288903 0)
(2.8697 0.295192 0)
(2.87006 0.310813 0)
(2.87336 0.312204 0)
(2.87944 0.309904 0)
(2.89176 0.303684 0)
(3 5.12484e-06 0)
(3 6.53251e-06 0)
(3 8.65002e-06 0)
(2.99999 1.22018e-05 0)
(2.99999 1.68689e-05 0)
(2.99999 2.50629e-05 0)
(2.99998 3.61013e-05 0)
(2.99997 5.20843e-05 0)
(2.99995 8.07723e-05 0)
(2.99993 0.000123418 0)
(2.99988 0.000212963 0)
(2.99981 0.000337948 0)
(2.9997 0.000556982 0)
(2.99949 0.000896519 0)
(2.9991 0.00160268 0)
(2.99852 0.00270523 0)
(2.99754 0.00448343 0)
(2.99585 0.00777395 0)
(2.99323 0.0125587 0)
(2.98908 0.0209431 0)
(2.98284 0.0329726 0)
(2.97425 0.0501658 0)
(2.96247 0.0745076 0)
(2.94829 0.103729 0)
(2.93286 0.138257 0)
(2.91754 0.175083 0)
(2.90477 0.209003 0)
(2.89656 0.236349 0)
(2.89071 0.259335 0)
(2.89453 0.277199 0)
(3 2.7491e-08 0)
(3 3.46684e-08 0)
(3 4.66497e-08 0)
(3 6.37013e-08 0)
(3 8.96509e-08 0)
(3 1.29675e-07 0)
(3 1.90378e-07 0)
(3 2.85184e-07 0)
(3 4.42602e-07 0)
(3 7.31742e-07 0)
(3 1.24437e-06 0)
(3 2.23179e-06 0)
(3 3.81483e-06 0)
(3 7.20791e-06 0)
(2.99999 1.402e-05 0)
(2.99998 2.80074e-05 0)
(2.99997 5.68118e-05 0)
(2.99993 0.00011768 0)
(2.99986 0.000251751 0)
(2.99969 0.000535643 0)
(2.99936 0.00113809 0)
(2.99865 0.00243343 0)
(2.9973 0.00491121 0)
(2.99465 0.00992455 0)
(2.99019 0.0185712 0)
(2.98296 0.0332035 0)
(2.97306 0.0540391 0)
(2.95994 0.0841839 0)
(2.9476 0.114403 0)
(2.93078 0.167811 0)
(3 1.19645e-10 0)
(3 1.53558e-10 0)
(3 2.05214e-10 0)
(3 2.82538e-10 0)
(3 3.93508e-10 0)
(3 5.65012e-10 0)
(3 8.25964e-10 0)
(3 1.23274e-09 0)
(3 1.92855e-09 0)
(3 3.10744e-09 0)
(3 5.35355e-09 0)
(3 9.33301e-09 0)
(3 1.67524e-08 0)
(3 3.15335e-08 0)
(3 6.39451e-08 0)
(3 1.32181e-07 0)
(3 2.86026e-07 0)
(3 6.48302e-07 0)
(3 1.53238e-06 0)
(3 3.76687e-06 0)
(2.99999 9.59058e-06 0)
(2.99999 2.52415e-05 0)
(2.99996 6.75316e-05 0)
(2.99989 0.00018278 0)
(2.99973 0.000485997 0)
(2.9993 0.00126749 0)
(2.99837 0.00304723 0)
(2.99632 0.0071726 0)
(2.99319 0.0137535 0)
(2.98347 0.0379449 0)
(3 4.00422e-13 0)
(3 5.17011e-13 0)
(3 7.00144e-13 0)
(3 9.66799e-13 0)
(3 1.35655e-12 0)
(3 1.95217e-12 0)
(3 2.85706e-12 0)
(3 4.28202e-12 0)
(3 6.65469e-12 0)
(3 1.06542e-11 0)
(3 1.80189e-11 0)
(3 3.12399e-11 0)
(3 5.55006e-11 0)
(3 1.04749e-10 0)
(3 2.10871e-10 0)
(3 4.38354e-10 0)
(3 9.62535e-10 0)
(3 2.21775e-09 0)
(3 5.41606e-09 0)
(3 1.37788e-08 0)
(3 3.7234e-08 0)
(3 1.04729e-07 0)
(3 3.12632e-07 0)
(3 9.56833e-07 0)
(3 3.08918e-06 0)
(2.99999 9.93559e-06 0)
(2.99998 3.24356e-05 0)
(2.99992 0.000104496 0)
(2.9998 0.000283912 0)
(2.99886 0.00167437 0)
(2.40627 -1.30614 0)
(2.52253 -1.3662 0)
(2.78269 -1.45802 0)
(2.97349 -1.6159 0)
(3.07562 -1.7307 0)
(3.09392 -1.75041 0)
(3.10306 -1.66082 0)
(3.11334 -1.55433 0)
(3.12177 -1.44412 0)
(3.14223 -1.26781 0)
(3.14995 -1.1398 0)
(3.15885 -0.970715 0)
(3.15534 -0.799587 0)
(3.13812 -0.603209 0)
(3.10542 -0.406964 0)
(3.06571 -0.233691 0)
(3.02371 -0.095274 0)
(2.96818 0.0527353 0)
(2.90395 0.187354 0)
(2.842 0.314128 0)
(2.8153 0.377107 0)
(2.81715 0.371544 0)
(2.86003 0.303317 0)
(2.94449 0.132804 0)
(2.99313 0.0165713 0)
(2.99979 0.000470817 0)
(3 4.26605e-06 0)
(3 2.2589e-08 0)
(3 9.76197e-11 0)
(3 3.23692e-13 0)
(2.4015 -1.29556 0)
(2.53438 -1.35719 0)
(2.79963 -1.47291 0)
(2.98705 -1.64337 0)
(3.08828 -1.73782 0)
(3.10096 -1.74413 0)
(3.10734 -1.64876 0)
(3.11764 -1.55039 0)
(3.14159 -1.42949 0)
(3.16256 -1.24113 0)
(3.1726 -1.09047 0)
(3.1685 -0.876317 0)
(3.14693 -0.686508 0)
(3.11327 -0.507671 0)
(3.08336 -0.359953 0)
(3.04948 -0.223695 0)
(3.00934 -0.0960375 0)
(2.95651 0.0497669 0)
(2.89462 0.195876 0)
(2.83334 0.331314 0)
(2.81334 0.382038 0)
(2.82024 0.376977 0)
(2.86879 0.305013 0)
(2.95448 0.111143 0)
(2.9957 0.0102676 0)
(2.99991 0.000188437 0)
(3 1.38732e-06 0)
(3 7.67458e-09 0)
(3 3.63788e-11 0)
(3 1.2737e-13 0)
(2.38568 -1.2909 0)
(2.51297 -1.32767 0)
(2.78889 -1.47075 0)
(2.97931 -1.64587 0)
(3.09277 -1.74007 0)
(3.09894 -1.74933 0)
(3.10289 -1.65959 0)
(3.11726 -1.55838 0)
(3.16663 -1.37346 0)
(3.17326 -1.15711 0)
(3.15619 -0.964327 0)
(3.13919 -0.807067 0)
(3.12596 -0.664428 0)
(3.10693 -0.539018 0)
(3.0791 -0.389224 0)
(3.04506 -0.236744 0)
(3.00727 -0.0859561 0)
(2.95482 0.0632328 0)
(2.8893 0.224743 0)
(2.82707 0.349552 0)
(2.81317 0.382721 0)
(2.82529 0.377448 0)
(2.87619 0.282599 0)
(2.96231 0.0866043 0)
(2.9973 0.00593069 0)
(2.99996 9.11444e-05 0)
(3 6.22975e-07 0)
(3 3.35994e-09 0)
(3 1.5568e-11 0)
(3 5.33379e-14 0)
(2.36988 -1.28088 0)
(2.506 -1.32034 0)
(2.78237 -1.47074 0)
(2.97687 -1.66138 0)
(3.09034 -1.74659 0)
(3.09939 -1.74343 0)
(3.11312 -1.65403 0)
(3.15162 -1.50849 0)
(3.15635 -1.27945 0)
(3.1571 -1.12825 0)
(3.14597 -0.95624 0)
(3.13219 -0.84732 0)
(3.12321 -0.701464 0)
(3.10513 -0.551345 0)
(3.08466 -0.380372 0)
(3.05662 -0.19462 0)
(3.00548 -0.0016903 0)
(2.94177 0.148747 0)
(2.86758 0.287503 0)
(2.81723 0.368801 0)
(2.81395 0.379114 0)
(2.82706 0.356389 0)
(2.90082 0.216883 0)
(2.9755 0.0541574 0)
(2.99862 0.00293387 0)
(2.99998 3.82522e-05 0)
(3 2.56975e-07 0)
(3 1.39144e-09 0)
(3 6.4776e-12 0)
(3 2.192e-14 0)
(2.36182 -1.27762 0)
(2.50439 -1.32009 0)
(2.77899 -1.46914 0)
(2.96291 -1.66359 0)
(3.08206 -1.74429 0)
(3.10534 -1.71885 0)
(3.13063 -1.61237 0)
(3.14018 -1.41184 0)
(3.14393 -1.27782 0)
(3.14285 -1.15324 0)
(3.1422 -0.998642 0)
(3.13604 -0.853028 0)
(3.13547 -0.68804 0)
(3.12868 -0.489519 0)
(3.09491 -0.280457 0)
(3.03418 -0.0851321 0)
(2.96631 0.0775315 0)
(2.89981 0.213387 0)
(2.84263 0.322083 0)
(2.81027 0.378929 0)
(2.81223 0.376492 0)
(2.84243 0.326075 0)
(2.92183 0.180455 0)
(2.98511 0.0357548 0)
(2.99936 0.00145087 0)
(2.99999 1.62007e-05 0)
(3 1.04391e-07 0)
(3 5.6204e-10 0)
(3 2.62657e-12 0)
(3 8.92167e-15 0)
(2.36199 -1.27648 0)
(2.5039 -1.32326 0)
(2.76737 -1.46226 0)
(2.9532 -1.6638 0)
(3.08334 -1.7359 0)
(3.10699 -1.70661 0)
(3.10755 -1.55087 0)
(3.12923 -1.43238 0)
(3.13985 -1.31053 0)
(3.15308 -1.14041 0)
(3.15459 -0.997404 0)
(3.171 -0.790644 0)
(3.15744 -0.589417 0)
(3.10286 -0.367843 0)
(3.04957 -0.189705 0)
(3.00899 -0.056579 0)
(2.95875 0.0716901 0)
(2.8944 0.208453 0)
(2.83527 0.327858 0)
(2.80872 0.384453 0)
(2.81128 0.377611 0)
(2.85502 0.31471 0)
(2.93073 0.172574 0)
(2.98997 0.0251441 0)
(2.99967 0.000762076 0)
(3 7.07341e-06 0)
(3 4.30923e-08 0)
(3 2.2687e-10 0)
(3 1.04871e-12 0)
(3 3.87711e-15 0)
(2.3654 -1.27768 0)
(2.50297 -1.32403 0)
(2.76506 -1.45988 0)
(2.95427 -1.66641 0)
(3.08598 -1.73212 0)
(3.10213 -1.68504 0)
(3.10393 -1.5356 0)
(3.12247 -1.4616 0)
(3.14682 -1.31498 0)
(3.17413 -1.08668 0)
(3.19577 -0.921845 0)
(3.16132 -0.687376 0)
(3.10821 -0.487548 0)
(3.07724 -0.335846 0)
(3.04305 -0.20721 0)
(2.99998 -0.0758833 0)
(2.94941 0.0654824 0)
(2.88754 0.214265 0)
(2.82813 0.347748 0)
(2.80739 0.391674 0)
(2.81278 0.382533 0)
(2.85977 0.325805 0)
(2.94552 0.134061 0)
(2.9939 0.0147767 0)
(2.99985 0.000350924 0)
(3 2.9431e-06 0)
(3 1.74313e-08 0)
(3 9.04151e-11 0)
(3 4.14411e-13 0)
(3 1.80676e-15 0)
(2.36704 -1.27858 0)
(2.49743 -1.32635 0)
(2.75779 -1.46361 0)
(2.9569 -1.67103 0)
(3.09052 -1.73061 0)
(3.09782 -1.66991 0)
(3.10162 -1.56404 0)
(3.12742 -1.46251 0)
(3.19198 -1.26104 0)
(3.1813 -1.02047 0)
(3.15467 -0.800802 0)
(3.12898 -0.643798 0)
(3.10367 -0.510305 0)
(3.07252 -0.367945 0)
(3.03699 -0.217727 0)
(2.99784 -0.04645 0)
(2.94425 0.122732 0)
(2.87216 0.276286 0)
(2.81693 0.37345 0)
(2.80608 0.394489 0)
(2.81907 0.389356 0)
(2.86981 0.297439 0)
(2.96184 0.0913136 0)
(2.99662 0.00797509 0)
(2.99993 0.0001495 0)
(3 1.16928e-06 0)
(3 6.83637e-09 0)
(3 3.52077e-11 0)
(3 1.62431e-13 0)
(3 8.0744e-16 0)
(2.36614 -1.27879 0)
(2.49419 -1.32344 0)
(2.7521 -1.46465 0)
(2.96178 -1.67667 0)
(3.08925 -1.74109 0)
(3.09413 -1.68043 0)
(3.1037 -1.57055 0)
(3.16202 -1.40858 0)
(3.18396 -1.14494 0)
(3.16363 -0.964638 0)
(3.13923 -0.801251 0)
(3.12042 -0.681141 0)
(3.09927 -0.529861 0)
(3.07691 -0.354397 0)
(3.04569 -0.149168 0)
(2.98006 0.0528783 0)
(2.90912 0.208847 0)
(2.84451 0.324857 0)
(2.80867 0.383096 0)
(2.80662 0.392662 0)
(2.82037 0.376111 0)
(2.89814 0.229831 0)
(2.97056 0.0692248 0)
(2.99815 0.00429193 0)
(2.99997 6.41091e-05 0)
(3 4.61066e-07 0)
(3 2.6436e-09 0)
(3 1.34719e-11 0)
(3 6.36288e-14 0)
(3 5.50352e-16 0)
(2.35797 -1.27629 0)
(2.49627 -1.31701 0)
(2.74797 -1.47252 0)
(2.97595 -1.68726 0)
(3.0869 -1.74815 0)
(3.09602 -1.68779 0)
(3.14632 -1.53186 0)
(3.17235 -1.27931 0)
(3.15458 -1.12292 0)
(3.14151 -0.987605 0)
(3.13452 -0.832819 0)
(3.12809 -0.678685 0)
(3.12175 -0.476109 0)
(3.08428 -0.243412 0)
(3.01206 -0.0345431 0)
(2.9514 0.107869 0)
(2.88978 0.23338 0)
(2.83342 0.335938 0)
(2.80382 0.386667 0)
(2.80603 0.384012 0)
(2.83572 0.334997 0)
(2.91052 0.202107 0)
(2.98146 0.0442588 0)
(2.99913 0.00200603 0)
(2.99999 2.53117e-05 0)
(3 1.75185e-07 0)
(3 9.93765e-10 0)
(3 5.02811e-12 0)
(3 2.44494e-14 0)
(3 3.10585e-16 0)
(2.35254 -1.27596 0)
(2.49777 -1.31716 0)
(2.74849 -1.47852 0)
(2.96497 -1.68609 0)
(3.08823 -1.74983 0)
(3.12156 -1.67297 0)
(3.16011 -1.44614 0)
(3.15313 -1.26918 0)
(3.14661 -1.16322 0)
(3.15438 -0.989345 0)
(3.16041 -0.808332 0)
(3.16291 -0.580222 0)
(3.10609 -0.331657 0)
(3.04092 -0.145223 0)
(2.99338 -0.0140341 0)
(2.94099 0.105557 0)
(2.87962 0.238189 0)
(2.82326 0.354684 0)
(2.80195 0.389832 0)
(2.80616 0.380872 0)
(2.85264 0.315674 0)
(2.92597 0.178677 0)
(2.98957 0.0254475 0)
(2.99961 0.00091738 0)
(3 9.75167e-06 0)
(3 6.45857e-08 0)
(3 3.6308e-10 0)
(3 1.8215e-12 0)
(3 8.60216e-15 0)
(3 -9.82779e-17 0)
(2.34715 -1.27602 0)
(2.49388 -1.3273 0)
(2.75247 -1.48607 0)
(2.95147 -1.69626 0)
(3.08633 -1.72339 0)
(3.13398 -1.61626 0)
(3.1398 -1.44649 0)
(3.14488 -1.31364 0)
(3.16514 -1.15866 0)
(3.19915 -0.923081 0)
(3.19074 -0.681702 0)
(3.11778 -0.432661 0)
(3.06921 -0.277313 0)
(3.02907 -0.158016 0)
(2.98281 -0.0212071 0)
(2.9294 0.136604 0)
(2.86382 0.284789 0)
(2.81208 0.38065 0)
(2.80125 0.397374 0)
(2.80921 0.379316 0)
(2.8572 0.323627 0)
(2.95038 0.123385 0)
(2.99392 0.0154899 0)
(2.99983 0.000397798 0)
(3 3.6612e-06 0)
(3 2.33984e-08 0)
(3 1.29745e-10 0)
(3 6.40081e-13 0)
(3 1.6401e-15 0)
(3 -5.07141e-16 0)
(2.32547 -1.27263 0)
(2.46743 -1.33428 0)
(2.74381 -1.50049 0)
(2.94863 -1.72322 0)
(3.09711 -1.68112 0)
(3.10631 -1.63296 0)
(3.12902 -1.44753 0)
(3.15344 -1.32093 0)
(3.21411 -1.0732 0)
(3.19996 -0.795038 0)
(3.13686 -0.570115 0)
(3.0976 -0.430155 0)
(3.05918 -0.310651 0)
(3.01952 -0.155763 0)
(2.97556 0.0352779 0)
(2.90502 0.215578 0)
(2.84014 0.333775 0)
(2.80521 0.394145 0)
(2.80021 0.403612 0)
(2.81507 0.390506 0)
(2.87453 0.287968 0)
(2.96337 0.0924693 0)
(2.9968 0.00824993 0)
(2.99993 0.00016154 0)
(3 1.34598e-06 0)
(3 8.34471e-09 0)
(3 4.55899e-11 0)
(3 2.17815e-13 0)
(3 -6.77468e-16 0)
(3 -7.66304e-16 0)
(2.30488 -1.2634 0)
(2.44355 -1.32734 0)
(2.72207 -1.50366 0)
(2.95105 -1.73153 0)
(3.09458 -1.62075 0)
(3.08224 -1.66733 0)
(3.14481 -1.41262 0)
(3.21461 -1.24981 0)
(3.20306 -0.946989 0)
(3.15767 -0.743153 0)
(3.11963 -0.608362 0)
(3.08656 -0.465487 0)
(3.05835 -0.296328 0)
(3.01617 -0.0650438 0)
(2.94517 0.130845 0)
(2.88422 0.257398 0)
(2.82851 0.350403 0)
(2.80168 0.398829 0)
(2.80295 0.404688 0)
(2.82181 0.388688 0)
(2.90385 0.228463 0)
(2.97274 0.0690323 0)
(2.99839 0.00396414 0)
(2.99997 6.33193e-05 0)
(3 4.84032e-07 0)
(3 2.92751e-09 0)
(3 1.57544e-11 0)
(3 7.05955e-14 0)
(3 -1.91757e-15 0)
(3 -1.03462e-15 0)
(2.29676 -1.25373 0)
(2.43507 -1.32207 0)
(2.70252 -1.50562 0)
(2.95083 -1.72542 0)
(3.09242 -1.63094 0)
(3.08975 -1.6745 0)
(3.16185 -1.37978 0)
(3.19903 -1.08604 0)
(3.17088 -0.949885 0)
(3.13564 -0.780978 0)
(3.11076 -0.618802 0)
(3.09838 -0.432589 0)
(3.05969 -0.170352 0)
(2.98091 0.0405265 0)
(2.92784 0.159815 0)
(2.86984 0.275706 0)
(2.81701 0.368354 0)
(2.80065 0.397515 0)
(2.80254 0.397857 0)
(2.83597 0.341576 0)
(2.91005 0.207368 0)
(2.98412 0.0382674 0)
(2.99925 0.00181203 0)
(2.99999 2.33157e-05 0)
(3 1.6851e-07 0)
(3 1.00361e-09 0)
(3 5.33658e-12 0)
(3 2.02761e-14 0)
(3 -2.24574e-15 0)
(3 -1.23072e-15 0)
(2.29532 -1.24988 0)
(2.42766 -1.32342 0)
(2.67946 -1.53945 0)
(2.93782 -1.7148 0)
(3.08874 -1.64096 0)
(3.13233 -1.64697 0)
(3.20584 -1.26399 0)
(3.1748 -1.07898 0)
(3.14792 -0.970236 0)
(3.14177 -0.76745 0)
(3.14021 -0.534887 0)
(3.09744 -0.271641 0)
(3.01767 -0.0598618 0)
(2.96747 0.0528127 0)
(2.91053 0.18324 0)
(2.84879 0.319471 0)
(2.80488 0.389095 0)
(2.79907 0.396165 0)
(2.80408 0.380158 0)
(2.85768 0.304925 0)
(2.93299 0.156586 0)
(2.99117 0.0212935 0)
(2.99969 0.000726548 0)
(3 7.92235e-06 0)
(3 5.55812e-08 0)
(3 3.29614e-10 0)
(3 1.74442e-12 0)
(3 3.04076e-15 0)
(3 -2.36443e-15 0)
(3 -1.54138e-15 0)
(2.29626 -1.25058 0)
(2.427 -1.33802 0)
(2.67171 -1.57747 0)
(2.9364 -1.71744 0)
(3.08924 -1.63382 0)
(3.19586 -1.50406 0)
(3.18901 -1.24327 0)
(3.15922 -1.12478 0)
(3.1755 -0.931714 0)
(3.17513 -0.649194 0)
(3.11139 -0.35627 0)
(3.04705 -0.166822 0)