/*--------------------------------*- C++ -*----------------------------------*\
  =========                 |
  \\      /  F ield         | OpenFOAM: The Open Source CFD Toolbox
   \\    /   O peration     | Website:  https://openfoam.org
    \\  /    A nd           | Version:  7
     \\/     M anipulation  |
\*---------------------------------------------------------------------------*/
FoamFile
{
    version     2.0;
    format      ascii;
    class       volScalarField;
    location    "2.5";
    object      p;
}
// * * * * * * * * * * * * * * * * * * * * * * * * * * * * * * * * * * * * * //

dimensions      [1 -1 -2 0 0 0 0];

internalField   nonuniform List<scalar> 
90000
(
0.761747
0.767426
0.774039
0.780593
0.787409
0.793912
0.800553
0.806854
0.813135
0.819101
0.824893
0.83051
0.835778
0.841131
0.846026
0.851365
0.857208
0.864929
0.873933
0.884916
0.89677
0.909637
0.922652
0.935154
0.948128
0.959476
0.971349
0.981082
0.991612
0.998805
1.00714
1.01298
1.01645
1.0205
1.02298
1.02292
1.02297
1.02251
1.02105
1.01767
1.00882
0.998348
0.988898
0.982563
0.979807
0.981008
0.983408
0.986838
0.991483
0.991874
0.99327
0.996884
0.997555
0.997409
0.99654
0.994865
0.991525
0.989109
0.98728
0.986742
0.987285
0.987453
0.989318
0.992105
0.994644
0.996268
0.995792
0.993169
0.990306
0.989656
0.990272
0.99078
0.992198
0.99349
0.992815
0.989901
0.98756
0.98541
0.983153
0.98231
0.981156
0.978021
0.975016
0.972574
0.971099
0.969912
0.967705
0.964413
0.96174
0.960078
0.960042
0.959631
0.957278
0.95451
0.952385
0.950454
0.948742
0.946963
0.944822
0.941643
0.757696
0.758141
0.759017
0.760366
0.762169
0.764428
0.767133
0.77031
0.773932
0.77797
0.782412
0.787201
0.792308
0.797682
0.803404
0.809225
0.81506
0.820857
0.826922
0.833574
0.840731
0.848958
0.857618
0.867282
0.877594
0.888207
0.9
0.911247
0.923204
0.935318
0.946126
0.957952
0.968091
0.97826
0.986417
0.993495
1.00038
1.00488
1.00782
1.00903
1.01047
1.01218
1.01143
1.00876
1.00349
0.997299
0.99137
0.986261
0.984412
0.984244
0.984365
0.986455
0.989966
0.9931
0.995616
0.9989
0.999031
0.997713
0.994678
0.990775
0.987702
0.984858
0.985503
0.987743
0.991798
0.995211
0.997823
0.996802
0.993937
0.990837
0.987889
0.988624
0.990719
0.993995
0.993869
0.991999
0.987978
0.983405
0.982276
0.982214
0.981135
0.978108
0.974223
0.97076
0.970632
0.970204
0.968023
0.964622
0.960819
0.960183
0.960185
0.959349
0.957142
0.954117
0.95261
0.950484
0.948061
0.945876
0.944186
0.941874
0.757695
0.757715
0.75774
0.75777
0.757803
0.757845
0.757928
0.758052
0.75824
0.758508
0.758883
0.759495
0.760394
0.761548
0.762993
0.764781
0.766873
0.769348
0.772126
0.775285
0.778876
0.782828
0.787437
0.792523
0.798461
0.805433
0.812992
0.822302
0.831854
0.84353
0.855479
0.868966
0.883588
0.898117
0.913945
0.930142
0.944433
0.958227
0.974347
0.983112
0.992364
0.999023
1.00071
1.00188
1.00257
1.0025
1.00166
1.00037
0.997251
0.993367
0.989972
0.987698
0.987993
0.9893
0.991001
0.993236
0.995267
0.995581
0.994969
0.993688
0.991723
0.989443
0.987134
0.987038
0.9885
0.990705
0.993356
0.996334
0.996542
0.994932
0.992184
0.990324
0.990124
0.99155
0.992054
0.99173
0.989234
0.986204
0.982654
0.981002
0.978584
0.97728
0.975378
0.973356
0.971031
0.96949
0.966957
0.964499
0.962005
0.960137
0.959443
0.958933
0.957737
0.955413
0.952825
0.950563
0.948241
0.946467
0.94488
0.942034
0.75827
0.758258
0.75825
0.758227
0.758211
0.758216
0.758225
0.758231
0.758244
0.758253
0.758296
0.75826
0.758272
0.758311
0.758329
0.758348
0.758386
0.758489
0.758653
0.758897
0.759232
0.759775
0.760539
0.761558
0.762855
0.764618
0.766779
0.769606
0.773106
0.777542
0.783163
0.789943
0.798404
0.808456
0.820661
0.834047
0.850885
0.868085
0.886249
0.906747
0.926543
0.943505
0.958993
0.971848
0.981001
0.988152
0.993367
0.994039
0.995075
0.995108
0.994324
0.994325
0.993864
0.993061
0.992058
0.991328
0.991437
0.991404
0.99143
0.99163
0.992328
0.992646
0.991855
0.990281
0.988826
0.988309
0.988987
0.991006
0.993546
0.996879
0.997007
0.994801
0.991864
0.989738
0.989132
0.989707
0.99035
0.988683
0.983979
0.978921
0.976229
0.976395
0.976322
0.974293
0.970759
0.968046
0.966612
0.964887
0.96222
0.95957
0.958943
0.958498
0.957535
0.955211
0.952379
0.950386
0.94826
0.946229
0.944551
0.941963
0.758668
0.758631
0.758605
0.758593
0.758591
0.758614
0.758647
0.758644
0.758631
0.758615
0.75859
0.758551
0.758487
0.758444
0.75842
0.758389
0.758368
0.758357
0.758364
0.758396
0.758487
0.7585
0.758535
0.75857
0.758578
0.758599
0.758689
0.758835
0.759063
0.759402
0.760044
0.761034
0.762466
0.764514
0.767577
0.771782
0.777454
0.785639
0.79516
0.809115
0.824281
0.84399
0.865285
0.887972
0.910709
0.931864
0.952535
0.964213
0.976678
0.984179
0.98896
0.990924
0.99177
0.991424
0.990862
0.990867
0.991156
0.991404
0.991329
0.991471
0.992204
0.993226
0.993726
0.993336
0.9918
0.989677
0.988177
0.988652
0.990281
0.992891
0.994115
0.994568
0.994237
0.992283
0.990154
0.988877
0.988287
0.987253
0.984794
0.979293
0.976076
0.975153
0.97482
0.97455
0.972359
0.968604
0.965701
0.964455
0.962463
0.960325
0.958898
0.958218
0.957141
0.955356
0.953187
0.951011
0.948462
0.946082
0.944656
0.941942
0.759076
0.759035
0.75898
0.758951
0.758938
0.758934
0.758945
0.758966
0.758973
0.758969
0.758954
0.758925
0.758889
0.758858
0.758846
0.758841
0.758833
0.758812
0.758764
0.758712
0.75867
0.758624
0.758547
0.758496
0.758437
0.758408
0.758402
0.758421
0.758454
0.758541
0.758506
0.758443
0.7584
0.75839
0.758454
0.758615
0.759008
0.759819
0.76121
0.763626
0.767309
0.773255
0.781647
0.793695
0.810231
0.829962
0.852849
0.879948
0.904885
0.92769
0.947811
0.962056
0.977145
0.98154
0.983214
0.984387
0.987976
0.989833
0.991581
0.99231
0.992868
0.992924
0.992999
0.992845
0.992449
0.99203
0.990908
0.990601
0.990794
0.991031
0.991405
0.992078
0.992205
0.992535
0.992262
0.990972
0.988137
0.985376
0.982376
0.979585
0.977022
0.975561
0.974266
0.973179
0.972451
0.969998
0.966039
0.962951
0.961535
0.960468
0.958769
0.957907
0.956989
0.955128
0.952889
0.950848
0.948738
0.946073
0.944546
0.941853
0.759219
0.759201
0.759184
0.759158
0.759103
0.759057
0.759036
0.759031
0.759031
0.759027
0.759008
0.758993
0.758978
0.75894
0.758889
0.75887
0.758865
0.758862
0.758836
0.758781
0.758747
0.758718
0.758672
0.758618
0.758564
0.758508
0.758458
0.758415
0.758368
0.758322
0.75826
0.758172
0.758079
0.758019
0.757963
0.757925
0.757837
0.757751
0.757663
0.757651
0.757719
0.758007
0.758726
0.760251
0.762975
0.767816
0.775645
0.788166
0.804458
0.827127
0.85489
0.881171
0.907328
0.933781
0.95928
0.966045
0.974269
0.983521
0.990301
0.990743
0.991188
0.990966
0.989221
0.989378
0.99083
0.992599
0.993639
0.993329
0.992416
0.991096
0.990283
0.990366
0.990846
0.991874
0.991753
0.990939
0.988642
0.984994
0.980843
0.978816
0.976988
0.975423
0.974462
0.972889
0.971657
0.97007
0.967223
0.963213
0.960544
0.959982
0.959007
0.957416
0.956136
0.955252
0.953416
0.950959
0.948592
0.946181
0.944348
0.941528
0.759429
0.759408
0.759388
0.759364
0.759315
0.759281
0.759255
0.759212
0.759171
0.759147
0.759127
0.75911
0.759073
0.759002
0.758971
0.758945
0.758899
0.758878
0.758864
0.75883
0.758781
0.758725
0.758677
0.758645
0.758612
0.758562
0.7585
0.758442
0.758394
0.758344
0.758273
0.758169
0.758071
0.757978
0.75787
0.757745
0.757619
0.757502
0.757385
0.757269
0.75716
0.757081
0.757048
0.757021
0.757035
0.757194
0.757708
0.758983
0.761599
0.766925
0.775143
0.790454
0.810122
0.834637
0.864287
0.897411
0.92504
0.941063
0.963412
0.971734
0.979553
0.981421
0.983331
0.987596
0.993334
0.995109
0.994756
0.99371
0.992188
0.991693
0.990958
0.99123
0.992036
0.991707
0.991141
0.989604
0.987222
0.984252
0.981065
0.978336
0.976299
0.974482
0.973658
0.972982
0.971684
0.969699
0.96687
0.963466
0.960844
0.959527
0.958589
0.957008
0.955351
0.95464
0.953659
0.951732
0.948858
0.946356
0.944351
0.941434
0.759623
0.759591
0.759559
0.759514
0.759475
0.759446
0.75942
0.759387
0.759346
0.759306
0.759265
0.759222
0.759176
0.759133
0.759097
0.759061
0.759011
0.758972
0.758935
0.758897
0.758861
0.75882
0.758772
0.758715
0.758645
0.758575
0.758515
0.758463
0.75841
0.758346
0.758261
0.758157
0.758061
0.757964
0.757842
0.757709
0.75758
0.757444
0.757303
0.757157
0.757038
0.756944
0.756857
0.756701
0.756653
0.756637
0.75664
0.756683
0.756785
0.757011
0.757609
0.759182
0.762429
0.769693
0.780894
0.800634
0.825555
0.857
0.888545
0.918326
0.945253
0.963302
0.979124
0.985656
0.990846
0.993284
0.991572
0.987444
0.988024
0.990839
0.993564
0.993633
0.992925
0.991203
0.988619
0.987325
0.985991
0.984522
0.981776
0.978465
0.974834
0.973315
0.972853
0.972797
0.971739
0.96934
0.966243
0.963678
0.961787
0.959687
0.95826
0.956608
0.954946
0.954073
0.953189
0.951684
0.949467
0.946687
0.9442
0.941321
0.759762
0.75973
0.759695
0.759652
0.759631
0.759619
0.759605
0.759582
0.759547
0.759503
0.759454
0.759408
0.759371
0.759337
0.759299
0.75926
0.759215
0.759169
0.759124
0.759088
0.759061
0.759033
0.758999
0.75895
0.758887
0.758798
0.758679
0.758568
0.758475
0.758378
0.758261
0.758156
0.758066
0.757974
0.757869
0.757762
0.757656
0.757525
0.757368
0.757217
0.757092
0.756988
0.756884
0.756768
0.756646
0.75661
0.756599
0.756626
0.756684
0.756787
0.756838
0.756891
0.757024
0.757376
0.758396
0.761187
0.766631
0.778782
0.795888
0.824245
0.85484
0.887616
0.92192
0.943906
0.961111
0.974173
0.977485
0.982998
0.988577
0.995323
0.99591
0.995198
0.991574
0.988434
0.987082
0.986632
0.986864
0.984866
0.981352
0.976772
0.97382
0.972711
0.973015
0.972635
0.971328
0.968536
0.965588
0.964135
0.962469
0.960284
0.958153
0.956381
0.954836
0.953976
0.952618
0.951327
0.949568
0.947002
0.944064
0.941214
0.7592
0.759176
0.759147
0.759118
0.759113
0.759117
0.759117
0.759101
0.759062
0.759008
0.758958
0.758922
0.758898
0.758875
0.758847
0.758822
0.758794
0.758754
0.758709
0.758685
0.758674
0.758664
0.758652
0.758638
0.758614
0.758562
0.758479
0.75843
0.758395
0.758344
0.758271
0.758211
0.758164
0.758116
0.758072
0.758028
0.757975
0.757896
0.757783
0.757673
0.757574
0.757476
0.757387
0.757307
0.757196
0.757091
0.757041
0.757038
0.757036
0.757016
0.757004
0.757038
0.757153
0.757421
0.757445
0.757496
0.757675
0.758562
0.760873
0.767001
0.778207
0.799047
0.826613
0.86107
0.897957
0.928873
0.957597
0.978823
0.985381
0.992427
0.9924
0.989258
0.985508
0.986569
0.988939
0.989114
0.987491
0.984099
0.978652
0.974382
0.973818
0.973555
0.972998
0.972039
0.969999
0.967707
0.966286
0.964479
0.962395
0.960222
0.957981
0.956484
0.955218
0.953828
0.952355
0.950816
0.949364
0.947117
0.944022
0.94128
0.758667
0.758667
0.758683
0.758703
0.758707
0.758703
0.758678
0.758621
0.758588
0.758576
0.758564
0.75855
0.758536
0.758518
0.758497
0.758483
0.758466
0.758436
0.758404
0.758384
0.758372
0.758374
0.758385
0.75839
0.758386
0.758374
0.758364
0.758359
0.758358
0.758355
0.758352
0.75834
0.75832
0.758309
0.758315
0.758322
0.758311
0.758277
0.758216
0.758137
0.758058
0.757989
0.757932
0.757873
0.757788
0.757669
0.757547
0.757485
0.757448
0.757388
0.757352
0.757379
0.757451
0.757546
0.757662
0.757786
0.757929
0.757889
0.75788
0.758029
0.758838
0.761803
0.768101
0.783188
0.805243
0.837289
0.874702
0.912271
0.936958
0.959601
0.967728
0.975168
0.983774
0.991713
0.992034
0.990568
0.985079
0.980197
0.97584
0.975008
0.974844
0.97379
0.972548
0.970427
0.968542
0.968057
0.966918
0.964631
0.962071
0.959731
0.958013
0.956948
0.955594
0.95368
0.952085
0.950795
0.949267
0.947045
0.944059
0.941391
0.758152
0.758172
0.758187
0.758186
0.758179
0.758156
0.75812
0.758103
0.758092
0.758072
0.758066
0.758071
0.758076
0.758075
0.758062
0.758047
0.758035
0.758015
0.757989
0.757966
0.757946
0.757939
0.757949
0.757962
0.75796
0.757956
0.75796
0.757963
0.757974
0.757999
0.75803
0.758053
0.758075
0.758099
0.758133
0.758171
0.758219
0.758268
0.758288
0.758298
0.758326
0.758377
0.758394
0.758391
0.75836
0.758281
0.75818
0.758115
0.758078
0.758052
0.758049
0.758051
0.758038
0.758062
0.758149
0.758263
0.758342
0.758329
0.758273
0.758218
0.75803
0.757976
0.75822
0.759564
0.763405
0.773305
0.790913
0.818522
0.856433
0.896113
0.929099
0.963676
0.980051
0.988709
0.988772
0.984616
0.976694
0.976582
0.977364
0.976901
0.975135
0.973131
0.970414
0.968648
0.968911
0.968551
0.966945
0.964235
0.961311
0.959335
0.958448
0.957257
0.955637
0.953639
0.952133
0.950532
0.948926
0.946668
0.944127
0.941581
0.7579
0.757899
0.757894
0.757874
0.757838
0.757806
0.757773
0.75773
0.757713
0.757704
0.757696
0.757698
0.757698
0.757689
0.757672
0.757656
0.757638
0.757615
0.757586
0.757555
0.757522
0.757487
0.757467
0.757471
0.757475
0.757468
0.75746
0.757458
0.75747
0.757503
0.757557
0.757614
0.757669
0.75773
0.75781
0.757931
0.758051
0.758152
0.758242
0.758331
0.758427
0.758542
0.758662
0.75872
0.758729
0.758724
0.758701
0.758647
0.758593
0.758575
0.758564
0.758546
0.758547
0.758582
0.758642
0.758689
0.758726
0.758728
0.75866
0.758524
0.758334
0.758102
0.757973
0.757963
0.758118
0.758836
0.761263
0.767313
0.781559
0.803933
0.840608
0.882046
0.916448
0.945818
0.961197
0.967935
0.97418
0.981131
0.980379
0.977689
0.972306
0.969159
0.968298
0.969331
0.969717
0.968639
0.966354
0.963199
0.960516
0.959844
0.958881
0.957411
0.95557
0.953938
0.952295
0.950282
0.948434
0.946016
0.944169
0.941771
0.757851
0.757848
0.757836
0.757823
0.757826
0.757827
0.757796
0.757761
0.757751
0.757747
0.75774
0.757728
0.757707
0.757686
0.757661
0.757632
0.757607
0.757583
0.757552
0.757512
0.757463
0.757411
0.75736
0.757303
0.757277
0.757282
0.757297
0.757321
0.757368
0.757413
0.757458
0.757506
0.757562
0.757631
0.757711
0.757801
0.757902
0.758011
0.758127
0.75825
0.758383
0.758519
0.758639
0.758742
0.758835
0.75888
0.758888
0.75888
0.758855
0.758838
0.75881
0.758734
0.758677
0.758691
0.758744
0.758829
0.758938
0.759024
0.759017
0.758948
0.75882
0.758616
0.758321
0.758049
0.758007
0.758086
0.758267
0.758655
0.760074
0.763907
0.775308
0.794904
0.829586
0.872499
0.909652
0.94849
0.968797
0.977993
0.976722
0.970965
0.963777
0.965778
0.968988
0.970619
0.969635
0.967224
0.96461
0.96251
0.961363
0.96004
0.958533
0.957015
0.955723
0.954412
0.952359
0.94994
0.947847
0.945866
0.944324
0.941807
0.758122
0.758118
0.758116
0.75812
0.758143
0.75815
0.758144
0.758123
0.758111
0.758117
0.758125
0.758123
0.758103
0.758092
0.758084
0.758059
0.758024
0.757987
0.757938
0.757869
0.75779
0.757718
0.757648
0.757569
0.75749
0.757446
0.757434
0.757438
0.75745
0.757439
0.757431
0.757443
0.757482
0.757534
0.757582
0.75763
0.757698
0.757797
0.75791
0.75803
0.758168
0.758325
0.758475
0.758596
0.758713
0.758837
0.758888
0.758895
0.758892
0.758889
0.758854
0.758733
0.758588
0.758527
0.758534
0.758582
0.75868
0.758808
0.758941
0.75902
0.759021
0.758957
0.758786
0.75852
0.758313
0.75825
0.758273
0.758517
0.758602
0.758669
0.759382
0.761972
0.770993
0.788206
0.820652
0.861793
0.897211
0.933527
0.944128
0.953023
0.959916
0.971243
0.971742
0.970363
0.96675
0.964805
0.963681
0.963694
0.96235
0.960156
0.958002
0.956521
0.956015
0.954799
0.952365
0.949575
0.947576
0.945869
0.944262
0.941632
0.758444
0.758458
0.758464
0.75847
0.758473
0.758475
0.758479
0.758498
0.758511
0.758514
0.758514
0.758511
0.758495
0.758489
0.758488
0.758489
0.75847
0.758435
0.75838
0.758304
0.758246
0.758205
0.758163
0.758102
0.758001
0.757883
0.757836
0.757828
0.757814
0.757778
0.757752
0.757747
0.757747
0.757748
0.757752
0.757761
0.75779
0.757845
0.757908
0.757985
0.758094
0.758228
0.758356
0.758452
0.758531
0.758626
0.758726
0.75878
0.758789
0.758785
0.758731
0.758599
0.758458
0.758325
0.758249
0.758249
0.758292
0.758365
0.758475
0.758633
0.758842
0.758971
0.758964
0.758876
0.758691
0.758635
0.758646
0.758669
0.758656
0.758665
0.758541
0.758272
0.758501
0.760233
0.767182
0.782208
0.813563
0.853464
0.892703
0.935422
0.954946
0.966874
0.968184
0.96129
0.961088
0.962807
0.965208
0.964131
0.962009
0.959265
0.957294
0.95714
0.9564
0.954516
0.951716
0.949257
0.947391
0.945799
0.943922
0.941209
0.75882
0.758848
0.758868
0.75887
0.758867
0.758861
0.758856
0.758859
0.758878
0.758919
0.758941
0.758943
0.758943
0.758937
0.758927
0.758937
0.758951
0.758927
0.758884
0.758842
0.758815
0.758817
0.758818
0.758795
0.758717
0.758596
0.758529
0.758505
0.758484
0.758441
0.758386
0.758366
0.758358
0.758343
0.758317
0.758283
0.758244
0.758198
0.758164
0.758156
0.758174
0.758217
0.758278
0.75832
0.758345
0.758385
0.758476
0.758547
0.758555
0.758529
0.758434
0.75832
0.758241
0.75816
0.758073
0.758021
0.757989
0.757981
0.758033
0.7582
0.758511
0.758804
0.758892
0.758879
0.758796
0.758692
0.7587
0.75875
0.758839
0.758831
0.758687
0.758427
0.75792
0.756978
0.756106
0.757007
0.762856
0.776153
0.807111
0.845417
0.885788
0.919069
0.938699
0.946812
0.960622
0.966759
0.965904
0.963421
0.959555
0.958157
0.958188
0.957916
0.956598
0.953814
0.951135
0.949562
0.947633
0.945745
0.943468
0.940701
0.759077
0.759112
0.759169
0.759219
0.759237
0.759236
0.759218
0.759213
0.759242
0.759332
0.759403
0.759414
0.759416
0.759409
0.759378
0.759373
0.759366
0.759331
0.759312
0.759302
0.759261
0.759239
0.759242
0.759229
0.759162
0.759116
0.759078
0.759034
0.759005
0.758979
0.758948
0.758916
0.758889
0.758867
0.758832
0.75876
0.758666
0.758546
0.758415
0.758363
0.758339
0.758318
0.758299
0.758275
0.758242
0.758237
0.75827
0.758337
0.758371
0.758326
0.758202
0.758161
0.758196
0.758257
0.758273
0.758214
0.758053
0.757929
0.757898
0.757967
0.758227
0.758559
0.758694
0.758699
0.758688
0.758611
0.758566
0.758594
0.75866
0.758751
0.758751
0.758571
0.75808
0.757039
0.75565
0.754021
0.751916
0.752353
0.757315
0.770675
0.802438
0.843184
0.888086
0.932648
0.954922
0.96337
0.961194
0.954919
0.955968
0.957405
0.958835
0.957721
0.955558
0.953132
0.951658
0.949903
0.947574
0.945359
0.942944
0.940105
0.759255
0.759268
0.75929
0.759328
0.759382
0.759395
0.759378
0.759364
0.759386
0.759473
0.759494
0.759494
0.759491
0.759475
0.759436
0.759385
0.759323
0.759303
0.759305
0.759299
0.759242
0.759209
0.75921
0.759203
0.759131
0.759079
0.759083
0.759079
0.759049
0.759018
0.758994
0.758985
0.759013
0.759035
0.759011
0.758961
0.758948
0.758901
0.758759
0.758703
0.75868
0.758644
0.758593
0.758524
0.758464
0.758446
0.758464
0.758489
0.758455
0.758333
0.758271
0.758286
0.758395
0.758606
0.75871
0.758693
0.758561
0.758289
0.758088
0.758075
0.758174
0.758358
0.758429
0.758435
0.758468
0.758508
0.758491
0.758452
0.758448
0.758543
0.758585
0.758458
0.75802
0.757099
0.755683
0.753852
0.75167
0.749445
0.746316
0.746622
0.751707
0.767136
0.800386
0.846025
0.890996
0.921526
0.938618
0.947672
0.960292
0.960237
0.958293
0.95504
0.953517
0.953393
0.952754
0.950466
0.947397
0.944911
0.942348
0.940127
0.759304
0.759318
0.759324
0.759322
0.759322
0.759301
0.759225
0.759174
0.759185
0.759264
0.759291
0.759287
0.759273
0.759238
0.759167
0.759038
0.758938
0.758918
0.758893
0.758832
0.758752
0.758686
0.75862
0.75854
0.758478
0.758474
0.758499
0.758506
0.758525
0.758602
0.75872
0.758808
0.758877
0.758934
0.758973
0.759021
0.759043
0.758974
0.758826
0.758796
0.758868
0.758894
0.758858
0.758778
0.758781
0.758791
0.758766
0.758667
0.758491
0.758399
0.758393
0.758429
0.758606
0.758891
0.759117
0.759157
0.759046
0.758791
0.758545
0.758399
0.758331
0.758275
0.758246
0.758258
0.758349
0.758491
0.758531
0.758519
0.758491
0.758484
0.758437
0.758264
0.757801
0.756873
0.755444
0.753611
0.751379
0.748915
0.746239
0.743692
0.740758
0.74164
0.747715
0.767746
0.805448
0.852185
0.91013
0.939414
0.957134
0.956021
0.949592
0.950116
0.951959
0.954104
0.952887
0.9502
0.946773
0.944246
0.942253
0.940023
0.759225
0.759229
0.759233
0.759248
0.759251
0.759248
0.75922
0.759169
0.75915
0.759173
0.75921
0.759209
0.75917
0.759056
0.758811
0.758691
0.758688
0.758667
0.758564
0.758448
0.758362
0.758251
0.758064
0.757944
0.757936
0.75797
0.757993
0.758005
0.758071
0.758214
0.758375
0.758514
0.758613
0.758707
0.758826
0.758926
0.758922
0.758831
0.758737
0.758731
0.758816
0.758994
0.759062
0.759147
0.759241
0.759252
0.759202
0.759004
0.758671
0.758449
0.75842
0.758489
0.758738
0.759026
0.759198
0.759228
0.759132
0.759046
0.759002
0.758915
0.758756
0.758538
0.75841
0.758409
0.758486
0.758647
0.75874
0.75874
0.758691
0.758614
0.758443
0.758117
0.757514
0.756484
0.75506
0.753182
0.751016
0.74854
0.745999
0.743487
0.741188
0.738863
0.735979
0.737906
0.74533
0.771527
0.813421
0.860387
0.912818
0.92431
0.936426
0.949703
0.955113
0.954345
0.951131
0.947853
0.946036
0.944745
0.942104
0.939704
0.759264
0.759269
0.759278
0.759298
0.759311
0.75931
0.75927
0.759263
0.759288
0.759314
0.759326
0.759308
0.759251
0.759053
0.758793
0.758767
0.758777
0.758671
0.758507
0.75845
0.758404
0.758271
0.757988
0.75784
0.757841
0.757869
0.757869
0.757884
0.757973
0.758132
0.758336
0.758514
0.758627
0.758732
0.758829
0.758855
0.758797
0.758666
0.758632
0.758646
0.758748
0.75891
0.759054
0.759275
0.75944
0.759449
0.7594
0.759203
0.758867
0.758565
0.758443
0.758488
0.758655
0.758816
0.758871
0.758915
0.758965
0.759057
0.759173
0.759205
0.759148
0.758873
0.758635
0.758623
0.758709
0.758888
0.759028
0.759037
0.75897
0.758807
0.758512
0.758041
0.757326
0.756184
0.754659
0.752769
0.750662
0.748242
0.745825
0.743559
0.741409
0.739026
0.736542
0.733221
0.731757
0.734729
0.74569
0.779237
0.825457
0.877435
0.92683
0.943671
0.951704
0.947677
0.943693
0.944856
0.946842
0.945019
0.941196
0.939097
0.759586
0.759609
0.759636
0.759655
0.759671
0.759719
0.759759
0.759763
0.75977
0.759799
0.759823
0.759803
0.759728
0.75955
0.759264
0.7592
0.759171
0.759066
0.75895
0.758951
0.758962
0.758909
0.758708
0.758456
0.758346
0.758336
0.758352
0.758409
0.758525
0.758659
0.758876
0.759092
0.759103
0.759067
0.759061
0.75902
0.758849
0.758648
0.758622
0.758637
0.758763
0.758866
0.758943
0.759124
0.759281
0.759282
0.759193
0.758977
0.758762
0.758607
0.758527
0.758586
0.758657
0.758623
0.758579
0.758599
0.758739
0.75902
0.759265
0.759344
0.759352
0.759198
0.758911
0.758849
0.758927
0.759089
0.759202
0.759194
0.759102
0.758878
0.758584
0.758107
0.757325
0.756052
0.75445
0.752547
0.750493
0.748174
0.745777
0.743547
0.741505
0.739272
0.736802
0.733688
0.730758
0.727195
0.727449
0.732708
0.749026
0.790269
0.839667
0.883745
0.915119
0.929385
0.940642
0.948356
0.947053
0.943675
0.940226
0.938882
0.759867
0.759868
0.75987
0.75987
0.759858
0.759846
0.75985
0.759865
0.759884
0.75989
0.759876
0.75982
0.759731
0.759607
0.759349
0.759177
0.759166
0.759165
0.759143
0.759137
0.759162
0.759132
0.758996
0.758848
0.758819
0.758827
0.758877
0.759012
0.759149
0.759207
0.759323
0.759514
0.759579
0.7596
0.759547
0.759357
0.759077
0.758736
0.758573
0.758577
0.758646
0.758659
0.758674
0.758837
0.759106
0.759138
0.758996
0.758827
0.758765
0.758761
0.758828
0.758939
0.759024
0.758966
0.758827
0.758797
0.758869
0.759109
0.759232
0.75926
0.759288
0.759223
0.759063
0.759017
0.759058
0.759089
0.759004
0.758873
0.758814
0.758746
0.758557
0.758134
0.757339
0.756081
0.754472
0.752576
0.750526
0.748236
0.74581
0.743521
0.741516
0.739332
0.736963
0.73417
0.730974
0.727821
0.725233
0.723061
0.724576
0.733395
0.756552
0.802463
0.8539
0.911519
0.934911
0.945027
0.942006
0.93787
0.938923
0.939367
0.759412
0.759392
0.759352
0.759305
0.75924
0.7591
0.758932
0.758895
0.758903
0.758901
0.758852
0.758766
0.758749
0.758727
0.758675
0.75865
0.758646
0.758655
0.758702
0.758793
0.758847
0.758821
0.758692
0.758563
0.758531
0.758534
0.758568
0.758716
0.758885
0.758904
0.758863
0.758874
0.758955
0.759007
0.758992
0.75875
0.758524
0.758534
0.758597
0.758562
0.75839
0.758241
0.758226
0.758351
0.758706
0.758905
0.758863
0.758831
0.75901
0.759241
0.759274
0.759284
0.759367
0.759424
0.759281
0.759179
0.759179
0.75926
0.759234
0.759182
0.759195
0.759156
0.759023
0.758979
0.759008
0.758962
0.758737
0.758571
0.758509
0.758426
0.758264
0.757919
0.757252
0.756134
0.754577
0.752718
0.75063
0.748298
0.745839
0.743564
0.741484
0.739472
0.7372
0.734628
0.731579
0.728459
0.725706
0.723641
0.721347
0.720509
0.723369
0.735322
0.768928
0.818015
0.868525
0.90716
0.918262
0.934929
0.941128
0.939228
0.755948
0.755889
0.755841
0.755788
0.755707
0.755596
0.755551
0.755557
0.755573
0.755593
0.755588
0.755584
0.755665
0.755861
0.756218
0.756447
0.756518
0.756596
0.756762
0.756995
0.757265
0.757456
0.75742
0.757292
0.757182
0.757083
0.757038
0.757079
0.757196
0.757313
0.757548
0.758023
0.758134
0.75816
0.758297
0.758444
0.758571
0.758803
0.75915
0.759307
0.7592
0.758913
0.758612
0.758572
0.758736
0.758872
0.758846
0.758872
0.759123
0.759271
0.759269
0.75922
0.759246
0.759391
0.759396
0.759265
0.759198
0.759197
0.759076
0.758786
0.758615
0.758579
0.758635
0.758865
0.758976
0.758905
0.758671
0.75856
0.758505
0.758414
0.758225
0.757869
0.757203
0.756116
0.754587
0.752626
0.750329
0.747788
0.745279
0.743206
0.741492
0.739815
0.737777
0.735418
0.732461
0.729389
0.726435
0.723972
0.721697
0.71953
0.716733
0.71725
0.723112
0.742389
0.785211
0.837908
0.888698
0.92902
0.937607
0.931216
0.753419
0.75329
0.753244
0.753211
0.753186
0.753131
0.752943
0.752779
0.752681
0.752621
0.752638
0.752757
0.753008
0.753336
0.753638
0.753946
0.754281
0.754644
0.755017
0.755285
0.75549
0.755718
0.755765
0.755658
0.755506
0.755315
0.755077
0.755035
0.755059
0.755203
0.755705
0.75665
0.757004
0.757054
0.757156
0.757414
0.757811
0.758257
0.758744
0.758982
0.758896
0.758632
0.758303
0.758179
0.758319
0.758389
0.758293
0.75825
0.758342
0.758354
0.758308
0.758308
0.758513
0.758881
0.758944
0.758826
0.758503
0.758245
0.758201
0.758145
0.758055
0.758043
0.758162
0.758578
0.758956
0.759
0.758926
0.758856
0.758804
0.758692
0.758368
0.757887
0.757116
0.755908
0.75423
0.752039
0.749523
0.746948
0.744844
0.74319
0.741828
0.740423
0.738646
0.736423
0.733644
0.730394
0.727103
0.724299
0.721743
0.719548
0.717109
0.715163
0.713451
0.7157
0.725101
0.753491
0.802252
0.853869
0.89136
0.916181
0.75864
0.758093
0.757753
0.757743
0.757787
0.758069
0.758422
0.75854
0.758512
0.758123
0.757303
0.756642
0.756609
0.75674
0.756751
0.756757
0.756948
0.757136
0.757127
0.756955
0.756558
0.75616
0.756034
0.755997
0.756055
0.7562
0.756249
0.756214
0.756183
0.756231
0.756608
0.757274
0.757519
0.757322
0.756378
0.755571
0.755508
0.755734
0.756306
0.756757
0.756853
0.756856
0.756822
0.756777
0.756726
0.756615
0.75634
0.755885
0.755719
0.755716
0.755792
0.756175
0.756662
0.756719
0.756644
0.756425
0.756442
0.756741
0.757342
0.757987
0.758277
0.758291
0.758443
0.75896
0.759167
0.75913
0.759008
0.758914
0.758881
0.75876
0.758357
0.757507
0.756279
0.754838
0.753214
0.751289
0.748977
0.746586
0.744741
0.743449
0.742297
0.741001
0.739282
0.737105
0.734396
0.731057
0.72762
0.724562
0.721868
0.719676
0.717679
0.715768
0.714203
0.711837
0.711075
0.71461
0.730999
0.765957
0.8219
0.897369
0.764194
0.763588
0.762448
0.761934
0.761864
0.762028
0.762821
0.763045
0.762585
0.760801
0.759861
0.759745
0.759611
0.759374
0.759039
0.758746
0.758428
0.757911
0.757044
0.75549
0.754209
0.753958
0.754102
0.754475
0.755167
0.75635
0.756813
0.756809
0.756569
0.756199
0.756124
0.756335
0.75671
0.756248
0.754235
0.753193
0.753179
0.753601
0.753707
0.753455
0.753298
0.753434
0.753892
0.754403
0.754644
0.75472
0.754683
0.754417
0.754383
0.754489
0.754722
0.755322
0.755717
0.755698
0.755408
0.754909
0.754855
0.755196
0.756009
0.757002
0.75766
0.757839
0.758269
0.758544
0.758413
0.75791
0.757799
0.75802
0.758407
0.758243
0.757451
0.756164
0.754825
0.753652
0.752418
0.750894
0.749009
0.746949
0.745175
0.743759
0.74255
0.741276
0.739688
0.73767
0.735035
0.731774
0.728402
0.725163
0.722385
0.720402
0.718692
0.716704
0.714766
0.712327
0.709967
0.706535
0.707244
0.715201
0.738355
0.811877
0.766336
0.765706
0.765209
0.764783
0.764543
0.764526
0.764959
0.764983
0.763288
0.760594
0.760132
0.760357
0.760717
0.760568
0.760538
0.760697
0.760571
0.759886
0.758891
0.75797
0.75726
0.757054
0.757282
0.757937
0.75896
0.760191
0.76142
0.762541
0.762855
0.762522
0.7622
0.762209
0.761604
0.758649
0.75586
0.75564
0.756115
0.756206
0.755759
0.75527
0.755468
0.756042
0.756343
0.75633
0.756285
0.756049
0.755926
0.756256
0.758005
0.759984
0.760477
0.760508
0.760426
0.759739
0.758055
0.756462
0.756222
0.75652
0.756992
0.757038
0.757124
0.757344
0.757611
0.757566
0.75689
0.75565
0.755306
0.755441
0.755818
0.755843
0.755579
0.754904
0.753974
0.753047
0.752005
0.750729
0.749034
0.746997
0.745187
0.743732
0.74249
0.741186
0.739491
0.737384
0.735108
0.732442
0.729574
0.726655
0.724128
0.721842
0.719565
0.717271
0.715048
0.712597
0.709996
0.70705
0.704243
0.701445
0.703904
0.739191
0.795716
0.795128
0.794435
0.793337
0.792462
0.792382
0.792599
0.792501
0.7904
0.786719
0.786257
0.786226
0.785466
0.785028
0.785127
0.7854
0.78557
0.785653
0.78511
0.784683
0.784818
0.784019
0.782122
0.78224
0.782436
0.781812
0.78209
0.783256
0.783259
0.782497
0.782411
0.782215
0.780535
0.776803
0.775228
0.775265
0.775526
0.775561
0.774781
0.773558
0.772089
0.769739
0.769212
0.768945
0.767022
0.763473
0.762603
0.76286
0.764177
0.766102
0.766597
0.766438
0.764977
0.762289
0.759632
0.758079
0.757651
0.75762
0.75741
0.756251
0.754959
0.754883
0.755248
0.755825
0.755784
0.755165
0.754517
0.754485
0.75462
0.754812
0.754699
0.754207
0.753313
0.752195
0.750852
0.749271
0.747497
0.745603
0.743798
0.742346
0.741169
0.74009
0.738839
0.737114
0.735184
0.733234
0.73092
0.728226
0.725461
0.722721
0.719941
0.71743
0.715113
0.712613
0.710129
0.707628
0.704856
0.702312
0.697506
0.703128
0.837679
0.835124
0.834631
0.834339
0.833635
0.833166
0.832516
0.830337
0.828831
0.827798
0.826457
0.826453
0.826882
0.825931
0.823576
0.823193
0.823639
0.823816
0.82316
0.823214
0.823373
0.822496
0.819491
0.815723
0.812689
0.810854
0.809677
0.808736
0.806678
0.803587
0.801487
0.798414
0.79471
0.794507
0.794551
0.792798
0.791858
0.792625
0.792824
0.791586
0.790472
0.790604
0.790831
0.789937
0.786375
0.781128
0.775958
0.771977
0.770878
0.770968
0.770667
0.769448
0.766878
0.764475
0.764182
0.76467
0.765156
0.764863
0.763661
0.760389
0.757618
0.757307
0.757603
0.758591
0.759065
0.75862
0.757769
0.757699
0.757884
0.758149
0.757896
0.756894
0.755373
0.753489
0.751127
0.748196
0.745831
0.743855
0.742379
0.741131
0.740032
0.739113
0.738224
0.737256
0.735906
0.73403
0.7318
0.72909
0.726198
0.723236
0.720285
0.717766
0.715135
0.712834
0.710859
0.70881
0.70578
0.702824
0.698322