/*--------------------------------*- C++ -*----------------------------------*\
  =========                 |
  \\      /  F ield         | OpenFOAM: The Open Source CFD Toolbox
   \\    /   O peration     | Website:  https://openfoam.org
    \\  /    A nd           | Version:  7
     \\/     M anipulation  |
\*---------------------------------------------------------------------------*/
FoamFile
{
    version     2.0;
    format      ascii;
    class       volScalarField;
    location    "0.2799";
    object      rho;
}
// * * * * * * * * * * * * * * * * * * * * * * * * * * * * * * * * * * * * * //

dimensions      [1 -3 0 0 0 0 0];

internalField   nonuniform List<scalar> 
324000
(
0.450616
0.614696
0.843834
1.0283
1.12824
1.11069
1.06946
1.05144
1.04481
1.05199
1.05872
1.06371
1.06317
1.06239
1.06121
1.0577
1.0569
1.05861
1.06541
1.07282
1.07123
1.06532
1.05386
1.04471
1.04071
1.03921
1.03938
1.04267
1.04956
1.05229
1.05282
1.05571
1.06711
1.08502
1.10172
1.11314
1.11497
1.11522
1.12236
1.15124
1.22334
1.29317
1.32833
1.34637
1.35506
1.3611
1.36872
1.37948
1.3913
1.39858
1.40015
1.40014
1.40006
1.40001
1.40001
1.40001
1.40001
1.40001
1.40001
1.40001
1.40001
1.40001
1.40001
1.40001
1.40001
1.40001
1.40001
1.40001
1.40001
1.40001
1.40001
1.40001
1.40001
1.40001
1.40001
1.40001
1.40001
1.40001
1.40001
1.40001
0.327572
0.328584
0.385145
0.587589
0.843369
1.00582
1.09052
1.06699
1.03218
1.03471
1.03844
1.034
1.03176
1.0368
1.04255
1.03993
1.03624
1.03874
1.04472
1.04935
1.04573
1.03689
1.02581
1.01392
1.00685
1.00374
1.00386
1.00896
1.01461
1.01816
1.01934
1.02096
1.03172
1.05428
1.07974
1.09992
1.10878
1.11201
1.1174
1.14535
1.21436
1.2841
1.32547
1.34505
1.353
1.35858
1.36636
1.37766
1.3902
1.39817
1.40006
1.40011
1.40005
1.40001
1.40001
1.40001
1.40001
1.40001
1.40001
1.40001
1.40001
1.40001
1.40001
1.40001
1.40001
1.40001
1.40001
1.40001
1.40001
1.40001
1.40001
1.40001
1.40001
1.40001
1.40001
1.40001
1.40001
1.40001
1.40001
1.40001
0.330428
0.331835
0.332735
0.332921
0.383246
0.571779
0.825118
0.98829
1.04904
1.05608
1.03645
1.01982
1.02203
1.03354
1.04075
1.03679
1.03169
1.03225
1.03653
1.03892
1.03435
1.02422
1.01425
1.00362
0.994985
0.991012
0.991392
0.99364
0.994615
0.995945
0.997056
0.999986
1.01362
1.04151
1.07858
1.09535
1.1102
1.11815
1.12647
1.15328
1.21504
1.28034
1.32343
1.34299
1.35005
1.35551
1.36379
1.37579
1.38913
1.39779
1.39998
1.40008
1.40004
1.40001
1.40001
1.40001
1.40001
1.40001
1.40001
1.40001
1.40001
1.40001
1.40001
1.40001
1.40001
1.40001
1.40001
1.40001
1.40001
1.40001
1.40001
1.40001
1.40001
1.40001
1.40001
1.40001
1.40001
1.40001
1.40001
1.40001
0.33267
0.333388
0.333504
0.333462
0.33323
0.332532
0.37527
0.558599
0.813927
1.00116
1.02806
1.03428
1.02789
1.03215
1.03249
1.02897
1.03331
1.04051
1.043
1.04147
1.03541
1.02544
1.01561
1.00514
0.992063
0.984769
0.982298
0.981267
0.980904
0.984829
0.991463
0.998533
1.01709
1.04417
1.08026
1.12236
1.14889
1.14546
1.14212
1.15749
1.20937
1.27528
1.32324
1.3403
1.34618
1.35198
1.36101
1.37388
1.38813
1.39747
1.39992
1.40006
1.40004
1.40001
1.40001
1.40001
1.40001
1.40001
1.40001
1.40001
1.40001
1.40001
1.40001
1.40001
1.40001
1.40001
1.40001
1.40001
1.40001
1.40001
1.40001
1.40001
1.40001
1.40001
1.40001
1.40001
1.40001
1.40001
1.40001
1.40001
0.333397
0.333319
0.333155
0.332841
0.332265
0.331559
0.33123
0.330902
0.382338
0.566582
0.816104
0.991162
1.01766
1.03798
1.03494
1.03255
1.03697
1.04314
1.04421
1.0414
1.03281
1.02119
1.01214
0.999497
0.984338
0.978456
0.976809
0.976181
0.973915
0.980958
0.991863
1.00415
1.02438
1.06859
1.11839
1.16103
1.18245
1.18501
1.18222
1.19355
1.23538
1.2888
1.32402
1.33645
1.34203
1.34839
1.35814
1.37197
1.38721
1.3972
1.39987
1.40004
1.40003
1.40001
1.40001
1.40001
1.40001
1.40001
1.40001
1.40001
1.40001
1.40001
1.40001
1.40001
1.40001
1.40001
1.40001
1.40001
1.40001
1.40001
1.40001
1.40001
1.40001
1.40001
1.40001
1.40001
1.40001
1.40001
1.40001
1.40001
0.33334
0.333065
0.332608
0.332032
0.331503
0.331109
0.330762
0.330764
0.330826
0.330511
0.393884
0.589917
0.809412
0.974938
1.00645
1.02935
1.03636
1.04145
1.04345
1.03871
1.02534
1.01157
1.00129
0.987845
0.97767
0.974774
0.974455
0.973924
0.982997
0.999865
1.01536
1.03513
1.06366
1.10463
1.14969
1.18699
1.20821
1.21429
1.21538
1.22588
1.25945
1.29991
1.32291
1.33232
1.33791
1.34465
1.35515
1.3701
1.38641
1.39699
1.39983
1.40003
1.40002
1.40001
1.40001
1.40001
1.40001
1.40001
1.40001
1.40001
1.40001
1.40001
1.40001
1.40001
1.40001
1.40001
1.40001
1.40001
1.40001
1.40001
1.40001
1.40001
1.40001
1.40001
1.40001
1.40001
1.40001
1.40001
1.40001
1.40001
0.332772
0.332272
0.3317
0.33125
0.331004
0.330695
0.330718
0.330791
0.330699
0.330517
0.329998
0.329739
0.411091
0.620806
0.831195
0.978549
1.01851
1.04337
1.04605
1.03335
1.01765
1.00566
0.995643
0.982209
0.976598
0.976588
0.979143
0.984843
1.00017
1.01989
1.03955
1.0645
1.10003
1.14063
1.17347
1.20187
1.22435
1.23393
1.23904
1.25205
1.28184
1.30979
1.32261
1.32853
1.33347
1.34063
1.35215
1.36838
1.38577
1.39684
1.3998
1.40002
1.40002
1.40001
1.40001
1.40001
1.40001
1.40001
1.40001
1.40001
1.40001
1.40001
1.40001
1.40001
1.40001
1.40001
1.40001
1.40001
1.40001
1.40001
1.40001
1.40001
1.40001
1.40001
1.40001
1.40001
1.40001
1.40001
1.40001
1.40001
0.331882
0.33138
0.330829
0.330771
0.330742
0.330814
0.330855
0.330863
0.33068
0.330393
0.3299
0.329574
0.329255
0.331494
0.423796
0.629973
0.86201
1.00295
1.04314
1.03188
1.02203
1.00799
0.993716
0.981324
0.978841
0.981752
0.986932
0.999807
1.0249
1.0477
1.06762
1.09491
1.12771
1.15594
1.17477
1.19986
1.22572
1.24203
1.25344
1.27042
1.29397
1.31234
1.31987
1.32388
1.3286
1.33654
1.34929
1.36679
1.38522
1.39675
1.39979
1.40001
1.40001
1.40001
1.40001
1.40001
1.40001
1.40001
1.40001
1.40001
1.40001
1.40001
1.40001
1.40001
1.40001
1.40001
1.40001
1.40001
1.40001
1.40001
1.40001
1.40001
1.40001
1.40001
1.40001
1.40001
1.40001
1.40001
1.40001
1.40001
0.330908
0.330754
0.330676
0.330726
0.330868
0.330983
0.33097
0.330751
0.330515
0.33019
0.33002
0.329737
0.329463
0.329251
0.327398
0.330144
0.429866
0.676196
0.93974
1.01404
1.03113
1.01296
1.00078
0.990544
0.989699
0.994019
1.00468
1.02711
1.05319
1.0729
1.0936
1.11826
1.14515
1.15763
1.17177
1.19558
1.22233
1.24206
1.25774
1.27512
1.29543
1.30984
1.31563
1.31915
1.32381
1.33255
1.34668
1.36538
1.38452
1.39661
1.39977
1.40001
1.40001
1.40001
1.40001
1.40001
1.40001
1.40001
1.40001
1.40001
1.40001
1.40001
1.40001
1.40001
1.40001
1.40001
1.40001
1.40001
1.40001
1.40001
1.40001
1.40001
1.40001
1.40001
1.40001
1.40001
1.40001
1.40001
1.40001
1.40001
0.330727
0.330779
0.330933
0.330949
0.330922
0.330694
0.330412
0.330314
0.330403
0.330462
0.330381
0.330219
0.329863
0.329548
0.327989
0.324287
0.316635
0.330697
0.478532
0.758868
0.97288
0.985689
1.00398
1.00155
1.00843
1.01288
1.0228
1.04683
1.06455
1.08157
1.10576
1.13369
1.14756
1.15527
1.17063
1.19497
1.21916
1.23859
1.25594
1.27412
1.29113
1.30259
1.30951
1.31441
1.31999
1.32923
1.34407
1.36401
1.38448
1.39677
1.39979
1.40001
1.40001
1.40001
1.40001
1.40001
1.40001
1.40001
1.40001
1.40001
1.40001
1.40001
1.40001
1.40001
1.40001
1.40001
1.40001
1.40001
1.40001
1.40001
1.40001
1.40001
1.40001
1.40001
1.40001
1.40001
1.40001
1.40001
1.40001
1.40001
0.330852
0.330914
0.330878
0.330647
0.330402
0.330203
0.330162
0.330288
0.330489
0.330616
0.330581
0.330456
0.329933
0.32888
0.326003
0.319919
0.313101
0.309165
0.30956
0.374877
0.598151
0.827218
0.969349
0.990639
1.02597
1.04173
1.05748
1.07677
1.07986
1.08935
1.11278
1.13598
1.14248
1.15205
1.17307
1.19669
1.21587
1.23238
1.2493
1.26835
1.28454
1.29431
1.30135
1.30792
1.31577
1.32658
1.34182
1.36211
1.38403
1.39687
1.39981
1.40001
1.40001
1.40001
1.40001
1.40001
1.40001
1.40001
1.40001
1.40001
1.40001
1.40001
1.40001
1.40001
1.40001
1.40001
1.40001
1.40001
1.40001
1.40001
1.40001
1.40001
1.40001
1.40001
1.40001
1.40001
1.40001
1.40001
1.40001
1.40001
0.330915
0.330803
0.330542
0.330167
0.329843
0.329801
0.329905
0.330206
0.330512
0.330645
0.330648
0.330268
0.328309
0.323663
0.316943
0.312007
0.310023
0.310192
0.312445
0.315314
0.320634
0.438958
0.659964
0.868892
0.997145
1.03099
1.05974
1.07818
1.09321
1.10495
1.12994
1.13515
1.13887
1.15686
1.18272
1.19755
1.21039
1.22475
1.24082
1.25944
1.27609
1.28675
1.29367
1.30094
1.3101
1.32226
1.33917
1.36194
1.38458
1.3971
1.39984
1.4
1.40001
1.40001
1.40001
1.40001
1.40001
1.40001
1.40001
1.40001
1.40001
1.40001
1.40001
1.40001
1.40001
1.40001
1.40001
1.40001
1.40001
1.40001
1.40001
1.40001
1.40001
1.40001
1.40001
1.40001
1.40001
1.40001
1.40001
1.40001
0.330605
0.330271
0.32991
0.329542
0.329226
0.329159
0.329338
0.329852
0.330208
0.33007
0.328944
0.325399
0.319963
0.31495
0.310637
0.309749
0.311352
0.311982
0.313598
0.31962
0.327937
0.336667
0.356543
0.47194
0.67032
0.867036
0.995007
1.05771
1.09119
1.11148
1.14096
1.13627
1.14532
1.17269
1.18752
1.19324
1.20244
1.21766
1.23327
1.24907
1.26499
1.2785
1.28841
1.29623
1.30556
1.31826
1.33596
1.36066
1.38488
1.39739
1.39987
1.4
1.40001
1.40001
1.40001
1.40001
1.40001
1.40001
1.40001
1.40001
1.40001
1.40001
1.40001
1.40001
1.40001
1.40001
1.40001
1.40001
1.40001
1.40001
1.40001
1.40001
1.40001
1.40001
1.40001
1.40001
1.40001
1.40001
1.40001
1.40001
0.329952
0.329722
0.329554
0.329294
0.328974
0.328687
0.328492
0.328299
0.327441
0.325342
0.321981
0.317282
0.312262
0.309373
0.309023
0.308795
0.310752
0.314585
0.317437
0.325007
0.338863
0.352656
0.365681
0.377955
0.394459
0.477271
0.628376
0.81287
0.971908
1.07856
1.12277
1.12911
1.15104
1.18449
1.18227
1.18039
1.19111
1.2105
1.22903
1.24362
1.25532
1.26701
1.27901
1.29003
1.30052
1.31414
1.3346
1.36135
1.38575
1.39773
1.3999
1.4
1.40001
1.40001
1.40001
1.40001
1.40001
1.40001
1.40001
1.40001
1.40001
1.40001
1.40001
1.40001
1.40001
1.40001
1.40001
1.40001
1.40001
1.40001
1.40001
1.40001
1.40001
1.40001
1.40001
1.40001
1.40001
1.40001
1.40001
1.40001
0.329633
0.329552
0.329496
0.329405
0.329206
0.328682
0.327573
0.325962
0.323465
0.319353
0.314733
0.310886
0.308088
0.307823
0.308813
0.309175
0.311137
0.320703
0.334405
0.345996
0.35687
0.370153
0.383376
0.395122
0.407755
0.420437
0.43149
0.475609
0.590361
0.773575
0.929786
1.0598
1.13212
1.16761
1.15933
1.16353
1.17942
1.19678
1.2197
1.23675
1.24826
1.25675
1.26778
1.28087
1.29427
1.30951
1.33167
1.36118
1.3868
1.39814
1.39993
1.4
1.40001
1.40001
1.40001
1.40001
1.40001
1.40001
1.40001
1.40001
1.40001
1.40001
1.40001
1.40001
1.40001
1.40001
1.40001
1.40001
1.40001
1.40001
1.40001
1.40001
1.40001
1.40001
1.40001
1.40001
1.40001
1.40001
1.40001
1.40001
0.329604
0.329672
0.329638
0.32962
0.329396
0.328811
0.326837
0.322607
0.317604
0.31263
0.30904
0.30816
0.307651
0.307748
0.310002
0.317563
0.326943
0.335075
0.34785
0.360732
0.370642
0.380641
0.391654
0.40428
0.417589
0.4318
0.446956
0.461688
0.477214
0.50924
0.596207
0.757357
0.9198
1.04916
1.10727
1.15269
1.19056
1.20126
1.20858
1.22141
1.23656
1.25166
1.26289
1.27265
1.28649
1.3055
1.33192
1.36268
1.38823
1.39855
1.39996
1.4
1.40001
1.40001
1.40001
1.40001
1.40001
1.40001
1.40001
1.40001
1.40001
1.40001
1.40001
1.40001
1.40001
1.40001
1.40001
1.40001
1.40001
1.40001
1.40001
1.40001
1.40001
1.40001
1.40001
1.40001
1.40001
1.40001
1.40001
1.40001
0.330014
0.329933
0.329676
0.329266
0.327934
0.324679
0.319736
0.314189
0.310479
0.308533
0.307902
0.308187
0.3103
0.315275
0.321838
0.33084
0.343525
0.353214
0.359841
0.36968
0.382339
0.393544
0.405046
0.418067
0.432126
0.447303
0.463213
0.480158
0.496141
0.51417
0.533123
0.559789
0.632611
0.772858
0.97211
1.11347
1.16865
1.18708
1.19083
1.20042
1.21673
1.23517
1.25148
1.26607
1.28035
1.2998
1.32978
1.36433
1.39001
1.39896
1.39998
1.4
1.40001
1.40001
1.40001
1.40001
1.40001
1.40001
1.40001
1.40001
1.40001
1.40001
1.40001
1.40001
1.40001
1.40001
1.40001
1.40001
1.40001
1.40001
1.40001
1.40001
1.40001
1.40001
1.40001
1.40001
1.40001
1.40001
1.40001
1.40001
0.328969
0.327595
0.325628
0.322441
0.318365
0.314226
0.31144
0.309338
0.30856
0.309109
0.310595
0.313815
0.31978
0.328099
0.337462
0.343717
0.350881
0.362965
0.373963
0.382972
0.395346
0.409501
0.42435
0.43839
0.45278
0.467899
0.482927
0.500105
0.516813
0.534918
0.55399
0.573917
0.595687
0.624016
0.708481
0.871866
1.03176
1.12583
1.16747
1.18738
1.2013
1.21659
1.23493
1.25356
1.27247
1.29814
1.33138
1.36725
1.39196
1.39932
1.39999
1.4
1.40001
1.40001
1.40001
1.40001
1.40001
1.40001
1.40001
1.40001
1.40001
1.40001
1.40001
1.40001
1.40001
1.40001
1.40001
1.40001
1.40001
1.40001
1.40001
1.40001
1.40001
1.40001
1.40001
1.40001
1.40001
1.40001
1.40001
1.40001
0.324854
0.321972
0.318471
0.315253
0.312577
0.310698
0.310136
0.310902
0.311977
0.313584
0.317827
0.324093
0.330367
0.335896
0.345598
0.356995
0.364759
0.374141
0.388227
0.402712
0.413756
0.426205
0.439079
0.452923
0.467056
0.481357
0.496756
0.512693
0.531613
0.549571
0.569155
0.590571
0.612233
0.636153
0.663405
0.711821
0.832213
1.00177
1.12423
1.17286
1.1931
1.20828
1.22363
1.24108
1.26289
1.29337
1.33258
1.37121
1.39406
1.39961
1.4
1.40001
1.40001
1.40001
1.40001
1.40001
1.40001
1.40001
1.40001
1.40001
1.40001
1.40001
1.40001
1.40001
1.40001
1.40001
1.40001
1.40001
1.40001
1.40001
1.40001
1.40001
1.40001
1.40001
1.40001
1.40001
1.40001
1.40001
1.40001
1.40001
0.318491
0.314972
0.311713
0.310245
0.310062
0.31047
0.311485
0.313212
0.316669
0.32023
0.324694
0.33163
0.341097
0.351173
0.358845
0.370836
0.385227
0.395668
0.405436
0.417745
0.430837
0.442753
0.455051
0.468467
0.48291
0.497986
0.514084
0.529984
0.547624
0.56627
0.585956
0.606534
0.628482
0.653165
0.677636
0.709373
0.750643
0.838653
0.979665
1.09267
1.1536
1.18561
1.20797
1.23
1.25826
1.29446
1.33683
1.37621
1.39604
1.39981
1.4
1.40001
1.40001
1.40001
1.40001
1.40001
1.40001
1.40001
1.40001
1.40001
1.40001
1.40001
1.40001
1.40001
1.40001
1.40001
1.40001
1.40001
1.40001
1.40001
1.40001
1.40001
1.40001
1.40001
1.40001
1.40001
1.40001
1.40001
1.40001
1.40001
0.310948
0.309883
0.30943
0.309415
0.309762
0.31081
0.312995
0.315957
0.321215
0.329596
0.33788
0.346809
0.356522
0.368921
0.381108
0.388983
0.398928
0.411337
0.422713
0.432144
0.444494
0.457311
0.471105
0.484791
0.500289
0.516404
0.533756
0.552288
0.569914
0.590529
0.611705
0.634984
0.657803
0.680713
0.702217
0.723867
0.754915
0.804019
0.881522
0.989511
1.08105
1.13867
1.1771
1.21085
1.25047
1.29582
1.34368
1.382
1.39769
1.39992
1.4
1.40001
1.40001
1.40001
1.40001
1.40001
1.40001
1.40001
1.40001
1.40001
1.40001
1.40001
1.40001
1.40001
1.40001
1.40001
1.40001
1.40001
1.40001
1.40001
1.40001
1.40001
1.40001
1.40001
1.40001
1.40001
1.40001
1.40001
1.40001
1.40001
0.308701
0.309068
0.309735
0.309919
0.311757
0.316186
0.322119
0.330019
0.338615
0.347689
0.357308
0.367159
0.376972
0.383975
0.394285
0.40541
0.413334
0.423621
0.435539
0.448355
0.46005
0.473667
0.488468
0.504109
0.51821
0.534856
0.551797
0.57043
0.590036
0.609591
0.631601
0.654714
0.680132
0.706623
0.733908
0.759447
0.785367
0.818809
0.870191
0.940988
1.02273
1.09813
1.15826
1.20792
1.25325
1.30249
1.35306
1.38784
1.39887
1.39998
1.4
1.40001
1.40001
1.40001
1.40001
1.40001
1.40001
1.40001
1.40001
1.40001
1.40001
1.40001
1.40001
1.40001
1.40001
1.40001
1.40001
1.40001
1.40001
1.40001
1.40001
1.40001
1.40001
1.40001
1.40001
1.40001
1.40001
1.40001
1.40001
1.40001
0.311607
0.313463
0.317084
0.323051
0.328049
0.333766
0.341553
0.349409
0.356773
0.364438
0.372597
0.380374
0.390305
0.400171
0.407326
0.41887
0.431598
0.442089
0.453868
0.467443
0.481267
0.49511
0.508918
0.524068
0.541436
0.557936
0.574732
0.591771
0.61174
0.632628
0.653769
0.675615
0.700092
0.726918
0.75636
0.786421
0.813347
0.841743
0.87931
0.939102
1.01135
1.08296
1.14616
1.20233
1.25615
1.31261
1.36415
1.39297
1.39957
1.4
1.40001
1.40001
1.40001
1.40001
1.40001
1.40001
1.40001
1.40001
1.40001
1.40001
1.40001
1.40001
1.40001
1.40001
1.40001
1.40001
1.40001
1.40001
1.40001
1.40001
1.40001
1.40001
1.40001
1.40001
1.40001
1.40001
1.40001
1.40001
1.40001
1.40001
0.318748
0.322199
0.325448
0.331921
0.33821
0.344105
0.351318
0.359267
0.367027
0.375152
0.384997
0.395314
0.403517
0.415309
0.427875
0.43697
0.449016
0.461849
0.473917
0.486056
0.499643
0.513222
0.527688
0.542131
0.557264
0.574133
0.593168
0.612724
0.632025
0.653806
0.677021
0.70203
0.726548
0.752582
0.780006
0.810494
0.842983
0.874901
0.911206
0.95888
1.02279
1.0918
1.15347
1.2087
1.26705
1.32785
1.37625
1.39679
1.39989
1.4
1.40001
1.40001
1.40001
1.40001
1.40001
1.40001
1.40001
1.40001
1.40001
1.40001
1.40001
1.40001
1.40001
1.40001
1.40001
1.40001
1.40001
1.40001
1.40001
1.40001
1.40001
1.40001
1.40001
1.40001
1.40001
1.40001
1.40001
1.40001
1.40001
1.40001
0.326279
0.333585
0.340411
0.345107
0.354328
0.364011
0.371495
0.379401
0.388998
0.398912
0.407699
0.417132
0.427787
0.436271
0.446959
0.458562
0.467799
0.479372
0.491777
0.504091
0.517078
0.531387
0.546377
0.563141
0.579933
0.597479
0.61499
0.634978
0.656841
0.678949
0.702412
0.726806
0.753765
0.781497
0.811283
0.843066
0.875502
0.907011
0.938107
0.977234
1.0311
1.09502
1.15934
1.22182
1.28614
1.34762
1.38741
1.39897
1.39998
1.4
1.40001
1.40001
1.40001
1.40001
1.40001
1.40001
1.40001
1.40001
1.40001
1.40001
1.40001
1.40001
1.40001
1.40001
1.40001
1.40001
1.40001
1.40001
1.40001
1.40001
1.40001
1.40001
1.40001
1.40001
1.40001
1.40001
1.40001
1.40001
1.40001
1.40001
0.345142
0.351552
0.360599
0.367668
0.373633
0.381858
0.39015
0.397865
0.405304
0.414276
0.423435
0.431374
0.441122
0.45204
0.460726
0.472263
0.485205
0.496238
0.509156
0.523758
0.537811
0.552853
0.568909
0.585201
0.60295
0.621163
0.641412
0.66162
0.682425
0.704813
0.728541
0.754627
0.781873
0.809936
0.838759
0.870621
0.906363
0.943763
0.980703
1.01776
1.0586
1.10738
1.1676
1.23826
1.31066
1.36871
1.39527
1.39981
1.4
1.40001
1.40001
1.40001
1.40001
1.40001
1.40001
1.40001
1.40001
1.40001
1.40001
1.40001
1.40001
1.40001
1.40001
1.40001
1.40001
1.40001
1.40001
1.40001
1.40001
1.40001
1.40001
1.40001
1.40001
1.40001
1.40001
1.40001
1.40001
1.40001
1.40001
1.40001
0.362012
0.367503
0.373546
0.383258
0.389689
0.395747
0.403817
0.41263
0.422022
0.429982
0.439301
0.450745
0.460178
0.470738
0.483448
0.494132
0.50625
0.520286
0.533407
0.54668
0.561743
0.576899
0.592515
0.609244
0.626512
0.645117
0.664248
0.685106
0.707476
0.731491
0.756522
0.781951
0.80915
0.838698
0.870623
0.904265
0.938988
0.974989
1.01324
1.05464
1.10008
1.15119
1.21048
1.27815
1.34434
1.38683
1.39896
1.39999
1.4
1.40001
1.40001
1.40001
1.40001
1.40001
1.40001
1.40001
1.40001
1.40001
1.40001
1.40001
1.40001
1.40001
1.40001
1.40001
1.40001
1.40001
1.40001
1.40001
1.40001
1.40001
1.40001
1.40001
1.40001
1.40001
1.40001
1.40001
1.40001
1.40001
1.40001
1.40001
0.380257
0.38845
0.394265
0.400888
0.41049
0.418198
0.426095
0.434423
0.443418
0.453638
0.462415
0.471796
0.483435
0.493339
0.503901
0.516743
0.527914
0.539607
0.55341
0.567416
0.581197
0.596945
0.613733
0.630907
0.64935
0.668709
0.68953
0.711335
0.734039
0.758081
0.783726
0.811062
0.839797
0.86984
0.901542
0.935814
0.972759
1.0112
1.05028
1.09051
1.13484
1.18806
1.25239
1.32121
1.37492
1.39682
1.3999
1.4
1.40001
1.40001
1.40001
1.40001
1.40001
1.40001
1.40001
1.40001
1.40001
1.40001
1.40001
1.40001
1.40001
1.40001
1.40001
1.40001
1.40001
1.40001
1.40001
1.40001
1.40001
1.40001
1.40001
1.40001
1.40001
1.40001
1.40001
1.40001
1.40001
1.40001
1.40001
1.40001
0.398244
0.405251
0.414008
0.419686
0.426238
0.435324
0.443282
0.452051
0.460325
0.468984
0.479916
0.489462
0.498681
0.51114
0.522731
0.53374
0.547713
0.561734
0.575185
0.590209
0.606587
0.622965
0.640111
0.658308
0.677384
0.697625
0.718848
0.741348
0.764882
0.789758
0.816001
0.843755
0.873462
0.904966
0.93783
0.97217
1.00903
1.04943
1.09305
1.13922
1.18911
1.24571
1.30859
1.36468
1.3938
1.39968
1.4
1.40001
1.40001
1.40001
1.40001
1.40001
1.40001
1.40001
1.40001
1.40001
1.40001
1.40001
1.40001
1.40001
1.40001
1.40001
1.40001
1.40001
1.40001
1.40001
1.40001
1.40001
1.40001
1.40001
1.40001
1.40001
1.40001
1.40001
1.40001
1.40001
1.40001
1.40001
1.40001
1.40001
0.418312
0.424197
0.431355
0.440879
0.447801
0.455191
0.464351
0.4732
0.483353
0.492802
0.50204
0.51375
0.525044
0.535349
0.54804
0.561008
0.573077
0.586901
0.601726
0.616494
0.632139
0.649057
0.6664
0.684678
0.704403
0.725044
0.746289
0.769046
0.793801
0.820075
0.847134
0.875046
0.904885
0.937589
0.972957
1.01002
1.0483
1.08856
1.13243
1.1818
1.23827
1.30053
1.35781
1.39108
1.39939
1.4
1.4
1.40001
1.40001
1.40001
1.40001
1.40001
1.40001
1.40001
1.40001
1.40001
1.40001
1.40001
1.40001
1.40001
1.40001
1.40001
1.40001
1.40001
1.40001
1.40001
1.40001
1.40001
1.40001
1.40001
1.40001
1.40001
1.40001
1.40001
1.40001
1.40001
1.40001
1.40001
1.40001
1.40001
0.437574
0.44558
0.45181
0.458665
0.468442
0.476687
0.485022
0.494184
0.502951
0.513636
0.524153
0.533669
0.54544
0.557781
0.56905
0.581882
0.596047
0.6099
0.624587
0.640724
0.657148
0.674287
0.692953
0.7124
0.732229
0.753529
0.776787
0.801173
0.825916
0.851696
0.879689
0.910163
0.942323
0.975559
1.01003
1.04649
1.08626
1.13046
1.17964
1.23462
1.29502
1.35253
1.38876
1.39908
1.39999
1.4
1.40001
1.40001
1.40001
1.40001
1.40001
1.40001
1.40001
1.40001
1.40001
1.40001
1.40001
1.40001
1.40001
1.40001
1.40001
1.40001
1.40001
1.40001
1.40001
1.40001
1.40001
1.40001
1.40001
1.40001
1.40001
1.40001
1.40001
1.40001
1.40001
1.40001
1.40001
1.40001
1.40001
1.40001
0.458084
0.465083
0.474126
0.481726
0.488632
0.498167
0.507405
0.51678
0.526862
0.536444
0.547395
0.55903
0.570105
0.582325
0.595608
0.60868
0.622647
0.637973
0.653141
0.669196
0.686882
0.705006
0.723228
0.743064
0.764719
0.786961
0.809576
0.833915
0.860566
0.88862
0.91728
0.947118
0.979412
1.01473
1.05251
1.09201
1.13366
1.17935
1.23139
1.28992
1.34751
1.38631
1.39871
1.39997
1.4
1.40001
1.40001
1.40001
1.40001
1.40001
1.40001
1.40001
1.40001
1.40001
1.40001
1.40001
1.40001
1.40001
1.40001
1.40001
1.40001
1.40001
1.40001
1.40001
1.40001
1.40001
1.40001
1.40001
1.40001
1.40001
1.40001
1.40001
1.40001
1.40001
1.40001
1.40001
1.40001
1.40001
1.40001
1.40001
0.480254
0.487593
0.494474
0.503818
0.513037
0.521079
0.530407
0.540136
0.550269
0.561006
0.571557
0.583095
0.595669
0.607773
0.620796
0.635355
0.649553
0.664288
0.680813
0.697955
0.714985
0.733354
0.7534
0.773999
0.795106
0.817911
0.842632
0.868338
0.89472
0.922628
0.952888
0.98535
1.01936
1.05482
1.09245
1.13339
1.17894
1.2303
1.28735
1.344
1.3841
1.39828
1.39996
1.4
1.40001
1.40001
1.40001
1.40001
1.40001
1.40001
1.40001
1.40001
1.40001
1.40001
1.40001
1.40001
1.40001
1.40001
1.40001
1.40001
1.40001
1.40001
1.40001
1.40001
1.40001
1.40001
1.40001
1.40001
1.40001
1.40001
1.40001
1.40001
1.40001
1.40001
1.40001
1.40001
1.40001
1.40001
1.40001
1.40001
0.502547
0.510861
0.519281
0.526935
0.535913
0.545576
0.555077
0.565131
0.575196
0.586103
0.598148
0.609675
0.6219
0.63573
0.649351
0.663069
0.678546
0.694898
0.711029
0.728239
0.747021
0.766344
0.786153
0.807493
0.830442
0.854248
0.878918
0.905204
0.933388
0.963082
0.994117
1.02695
1.06216
1.09995
1.14047
1.18449
1.23353
1.2881
1.34288
1.38282
1.39792
1.39994
1.4
1.40001
1.40001
1.40001
1.40001
1.40001
1.40001
1.40001
1.40001
1.40001
1.40001
1.40001
1.40001
1.40001
1.40001
1.40001
1.40001
1.40001
1.40001
1.40001
1.40001
1.40001
1.40001
1.40001
1.40001
1.40001
1.40001
1.40001
1.40001
1.40001
1.40001
1.40001
1.40001
1.40001
1.40001
1.40001
1.40001
1.40001
0.52693
0.534728
0.543422
0.552646
0.561288
0.570702
0.580857
0.591061
0.60224
0.613504
0.624935
0.637808
0.651018
0.663958
0.67827
0.693709
0.709037
0.725075
0.7426
0.760829
0.779464
0.799264
0.820452
0.842594
0.865724
0.890298
0.916388
0.943766
0.972524
1.00308
1.0357
1.07034
1.10708
1.14647
1.18965
1.23792
1.29122
1.34418
1.3828
1.39779
1.39992
1.4
1.40001
1.40001
1.40001
1.40001
1.40001
1.40001
1.40001
1.40001
1.40001
1.40001
1.40001
1.40001
1.40001
1.40001
1.40001
1.40001
1.40001
1.40001
1.40001
1.40001
1.40001
1.40001
1.40001
1.40001
1.40001
1.40001
1.40001
1.40001
1.40001
1.40001
1.40001
1.40001
1.40001
1.40001
1.40001
1.40001
1.40001
1.40001
0.552354
0.561031
0.569153
0.578105
0.588444
0.598056
0.608083
0.619121
0.630159
0.641998
0.654669
0.667224
0.68054
0.695007
0.709677
0.724786
0.741161
0.758409
0.77609
0.794657
0.814402
0.835115
0.856817
0.879808
0.904134
0.929672
0.95653
0.984988
1.01521
1.04723
1.08116
1.11733
1.15626
1.19879
1.24594
1.29746
1.3479
1.38405
1.39793
1.39993
1.4
1.40001
1.40001
1.40001
1.40001
1.40001
1.40001
1.40001
1.40001
1.40001
1.40001
1.40001
1.40001
1.40001
1.40001
1.40001
1.40001
1.40001
1.40001
1.40001
1.40001
1.40001
1.40001
1.40001
1.40001
1.40001
1.40001
1.40001
1.40001
1.40001
1.40001
1.40001
1.40001
1.40001
1.40001
1.40001
1.40001
1.40001
1.40001
1.40001
0.57915
0.587676
0.597392
0.606727
0.615863
0.626418
0.637461
0.648453
0.66025
0.672494
0.685116
0.698635
0.712658
0.727027
0.742331
0.758555
0.775337
0.792866
0.8114
0.83084
0.851177
0.872641
0.895346
0.91925
0.9444
0.970953
0.999039
1.02876
1.06027
1.09376
1.1295
1.16793
1.20989
1.25622
1.30619
1.35372
1.38635
1.39829
1.39994
1.4
1.40001
1.40001
1.40001
1.40001
1.40001
1.40001
1.40001
1.40001
1.40001
1.40001
1.40001
1.40001
1.40001
1.40001
1.40001
1.40001
1.40001
1.40001
1.40001
1.40001
1.40001
1.40001
1.40001
1.40001
1.40001
1.40001
1.40001
1.40001
1.40001
1.40001
1.40001
1.40001
1.40001
1.40001
1.40001
1.40001
1.40001
1.40001
1.40001
1.40001
0.607841
0.616944
0.62588
0.635791
0.646522
0.657019
0.66796
0.679723
0.691876
0.704588
0.717937
0.731708
0.746124
0.761362
0.777261
0.793868
0.811365
0.829716
0.848875
0.868994
0.890235
0.912639
0.936245
0.961131
0.987387
1.01512
1.04449
1.07566
1.1088
1.14417
1.18226
1.22381
1.26935
1.31744
1.36127
1.38936
1.39877
1.39996
1.4
1.40001
1.40001
1.40001
1.40001
1.40001
1.40001
1.40001
1.40001
1.40001
1.40001
1.40001
1.40001
1.40001
1.40001
1.40001
1.40001
1.40001
1.40001
1.40001
1.40001
1.40001
1.40001
1.40001
1.40001
1.40001
1.40001
1.40001
1.40001
1.40001
1.40001
1.40001
1.40001
1.40001
1.40001
1.40001
1.40001
1.40001
1.40001
1.40001
1.40001
1.40001
0.637964
0.647268
0.6573
0.667459
0.677865
0.689068
0.700774
0.712819
0.725462
0.738678
0.752419
0.766807
0.781851
0.797579
0.814117
0.831486
0.849634
0.86862
0.888572
0.909591
0.931749
0.95512
0.97977
1.00577
1.03326
1.06236
1.09326
1.12613
1.16127
1.19915
1.24038
1.28505
1.33076
1.36989
1.39258
1.39925
1.39998
1.4
1.40001
1.40001
1.40001
1.40001
1.40001
1.40001
1.40001
1.40001
1.40001
1.40001
1.40001
1.40001
1.40001
1.40001
1.40001
1.40001
1.40001
1.40001
1.40001
1.40001
1.40001
1.40001
1.40001
1.40001
1.40001
1.40001
1.40001
1.40001
1.40001
1.40001
1.40001
1.40001
1.40001
1.40001
1.40001
1.40001
1.40001
1.40001
1.40001
1.40001
1.40001
1.40001
0.670122
0.679873
0.689944
0.700584
0.711777
0.723301
0.735297
0.74791
0.761077
0.774789
0.789084
0.804001
0.819639
0.836074
0.853301
0.87132
0.890187
0.909988
0.930824
0.9528
0.975994
1.00047
1.0263
1.05361
1.08255
1.11328
1.14601
1.18104
1.21881
1.25971
1.30314
1.34553
1.37873
1.39549
1.39962
1.39999
1.4
1.40001
1.40001
1.40001
1.40001
1.40001
1.40001
1.40001
1.40001
1.40001
1.40001
1.40001
1.40001
1.40001
1.40001
1.40001
1.40001
1.40001
1.40001
1.40001
1.40001
1.40001
1.40001
1.40001
1.40001
1.40001
1.40001
1.40001
1.40001
1.40001
1.40001
1.40001
1.40001
1.40001
1.40001
1.40001
1.40001
1.40001
1.40001
1.40001
1.40001
1.40001
1.40001
1.40001
0.704178
0.714289
0.724923
0.735987
0.747482
0.759506
0.772075
0.785186
0.798857
0.813093
0.82794
0.843494
0.859825
0.876954
0.894888
0.91366
0.933346
0.954061
0.975918
0.998998
1.02337
1.04911
1.07634
1.10522
1.1359
1.16861
1.20364
1.24133
1.28165
1.32307
1.36072
1.38676
1.39771
1.39985
1.4
1.40001
1.40001
1.40001
1.40001
1.40001
1.40001
1.40001
1.40001
1.40001
1.40001
1.40001
1.40001
1.40001
1.40001
1.40001
1.40001
1.40001
1.40001
1.40001
1.40001
1.40001
1.40001
1.40001
1.40001
1.40001
1.40001
1.40001
1.40001
1.40001
1.40001
1.40001
1.40001
1.40001
1.40001
1.40001
1.40001
1.40001
1.40001
1.40001
1.40001
1.40001
1.40001
1.40001
1.40001
1.40001
0.740393
0.750939
0.761971
0.773493
0.785506
0.798024
0.811102
0.824755
0.838963
0.853762
0.869247
0.885505
0.902573
0.920453
0.939167
0.958794
0.979454
1.00126
1.02431
1.04866
1.07441
1.10167
1.13059
1.16134
1.19414
1.22922
1.26666
1.30576
1.34377
1.37489
1.39304
1.39907
1.39996
1.4
1.40001
1.40001
1.40001
1.40001
1.40001
1.40001
1.40001
1.40001
1.40001
1.40001
1.40001
1.40001
1.40001
1.40001
1.40001
1.40001
1.40001
1.40001
1.40001
1.40001
1.40001
1.40001
1.40001
1.40001
1.40001
1.40001
1.40001
1.40001
1.40001
1.40001
1.40001
1.40001
1.40001
1.40001
1.40001
1.40001
1.40001
1.40001
1.40001
1.40001
1.40001
1.40001
1.40001
1.40001
1.40001
1.40001
0.778884
0.789875
0.80139
0.81339
0.825895
0.838964
0.85261
0.866809
0.881586
0.897034
0.913256
0.930299
0.948165
0.966876
0.986511
1.00719
1.02903
1.05214
1.07658
1.10244
1.12985
1.15893
1.18986
1.22278
1.25776
1.29439
1.33096
1.36352
1.38643
1.39709
1.39972
1.39999
1.4
1.40001
1.40001
1.40001
1.40001
1.40001
1.40001
1.40001
1.40001
1.40001
1.40001
1.40001
1.40001
1.40001
1.40001
1.40001
1.40001
1.40001
1.40001
1.40001
1.40001
1.40001
1.40001
1.40001
1.40001
1.40001
1.40001
1.40001
1.40001
1.40001
1.40001
1.40001
1.40001
1.40001
1.40001
1.40001
1.40001
1.40001
1.40001
1.40001
1.40001
1.40001
1.40001
1.40001
1.40001
1.40001
1.40001
1.40001
0.81984
0.831313
0.843316
0.855832
0.868906
0.882561
0.896776
0.911565
0.927018
0.943249
0.960315
0.978225
0.997001
1.01672
1.03752
1.05951
1.08278
1.10743
1.13353
1.16119
1.19052
1.22163
1.25452
1.28883
1.32336
1.35526
1.38006
1.39419
1.39909
1.39994
1.4
1.40001
1.40001
1.40001
1.40001
1.40001
1.40001
1.40001
1.40001
1.40001
1.40001
1.40001
1.40001
1.40001
1.40001
1.40001
1.40001
1.40001
1.40001
1.40001
1.40001
1.40001
1.40001
1.40001
1.40001
1.40001
1.40001
1.40001
1.40001
1.40001
1.40001
1.40001
1.40001
1.40001
1.40001
1.40001
1.40001
1.40001
1.40001
1.40001
1.40001
1.40001
1.40001
1.40001
1.40001
1.40001
1.40001
1.40001
1.40001
1.40001
0.863466
0.875449
0.887989
0.901092
0.914784
0.929048
0.943891
0.959401
0.9757
0.992858
1.01089
1.02982
1.04973
1.07076
1.09302
1.1166
1.14157
1.16801
1.19598
1.22552
1.25658
1.28877
1.32106
1.35124
1.37582
1.39148
1.39819
1.39981
1.4
1.4
1.40001
1.40001
1.40001
1.40001
1.40001
1.40001