/*--------------------------------*- C++ -*----------------------------------*\
  =========                 |
  \\      /  F ield         | OpenFOAM: The Open Source CFD Toolbox
   \\    /   O peration     | Website:  https://openfoam.org
    \\  /    A nd           | Version:  7
     \\/     M anipulation  |
\*---------------------------------------------------------------------------*/
FoamFile
{
    version     2.0;
    format      ascii;
    class       volScalarField;
    location    "1.5";
    object      p;
}
// * * * * * * * * * * * * * * * * * * * * * * * * * * * * * * * * * * * * * //

dimensions      [1 -1 -2 0 0 0 0];

internalField   nonuniform List<scalar> 
90000
(
0.837436
0.837419
0.838406
0.839759
0.842316
0.845136
0.848531
0.852307
0.856562
0.86017
0.863993
0.867282
0.870823
0.873848
0.877148
0.880054
0.883415
0.886374
0.889633
0.892379
0.895424
0.898052
0.900888
0.903386
0.90628
0.909139
0.912498
0.91565
0.919286
0.922762
0.926413
0.930234
0.933785
0.937396
0.940843
0.944424
0.947333
0.950435
0.952899
0.955673
0.956281
0.954889
0.950318
0.94137
0.932531
0.926395
0.921902
0.922766
0.925182
0.928758
0.933385
0.937023
0.938819
0.939699
0.940075
0.939678
0.938906
0.936397
0.932878
0.928533
0.927058
0.927938
0.930564
0.935999
0.939423
0.942962
0.945194
0.944443
0.942137
0.93761
0.934803
0.93562
0.938154
0.943399
0.946369
0.946567
0.945039
0.943077
0.943044
0.94389
0.94491
0.947094
0.950771
0.954819
0.961771
0.972373
0.989288
1.01115
1.03013
1.05293
1.06346
1.06879
1.06996
1.07211
1.07381
1.07557
1.07744
1.07967
1.07857
1.07623
0.836792
0.83684
0.836926
0.837052
0.837236
0.837502
0.837979
0.838485
0.839133
0.840082
0.84166
0.844003
0.846726
0.849571
0.852436
0.855485
0.858683
0.862117
0.865489
0.868928
0.872256
0.87571
0.879036
0.882348
0.885432
0.888594
0.89173
0.89503
0.898258
0.901712
0.905238
0.908851
0.912681
0.916519
0.920475
0.924454
0.928391
0.932396
0.935839
0.939982
0.942837
0.945533
0.948251
0.950752
0.950634
0.948947
0.944485
0.938597
0.932946
0.928558
0.924851
0.92541
0.92613
0.927892
0.930773
0.934549
0.938241
0.942309
0.942252
0.940506
0.936202
0.931621
0.928634
0.928422
0.930809
0.935101
0.940357
0.946252
0.946639
0.944084
0.93891
0.934729
0.935981
0.938787
0.94367
0.946293
0.946384
0.946229
0.946777
0.947873
0.94746
0.948272
0.950027
0.95377
0.961651
0.973437
0.991595
1.01205
1.02917
1.04988
1.06458
1.07089
1.07144
1.07254
1.07296
1.07375
1.07561
1.07804
1.07809
1.076
0.835887
0.835857
0.835814
0.835765
0.835705
0.835636
0.835618
0.835629
0.835623
0.835622
0.835671
0.835813
0.836054
0.836449
0.837022
0.837834
0.838869
0.840217
0.841761
0.843577
0.845521
0.847784
0.850219
0.852993
0.855903
0.859163
0.862544
0.866285
0.869965
0.873838
0.877804
0.881858
0.88618
0.890486
0.89517
0.899769
0.904709
0.909842
0.914865
0.920045
0.925165
0.929756
0.933863
0.937121
0.93921
0.940667
0.942703
0.945037
0.944814
0.943074
0.938778
0.934385
0.931992
0.929986
0.930142
0.931198
0.933277
0.935879
0.938198
0.940171
0.941452
0.940377
0.936887
0.933187
0.93184
0.932787
0.935651
0.939928
0.943701
0.946282
0.944747
0.940357
0.936386
0.936743
0.939394
0.942622
0.945386
0.948247
0.951333
0.95269
0.951604
0.949516
0.950276
0.953523
0.960727
0.973693
0.992911
1.01372
1.02903
1.04652
1.06467
1.06974
1.07177
1.07312
1.07201
1.07217
1.07432
1.07656
1.07719
1.07558
0.83451
0.834466
0.834406
0.834344
0.834294
0.834255
0.834195
0.834145
0.834122
0.834066
0.834006
0.834001
0.833993
0.833939
0.833856
0.833811
0.833767
0.833758
0.833794
0.833868
0.834084
0.834469
0.83502
0.83577
0.836671
0.837884
0.839427
0.841465
0.843806
0.84657
0.849623
0.85323
0.857166
0.861571
0.866385
0.871333
0.876922
0.882412
0.888613
0.894569
0.901186
0.907215
0.913931
0.919432
0.925252
0.929822
0.933213
0.936037
0.937081
0.937802
0.938173
0.938756
0.93853
0.937428
0.935658
0.933812
0.932049
0.93207
0.932701
0.934165
0.936292
0.938821
0.941092
0.940758
0.938313
0.93537
0.933603
0.934494
0.937153
0.940975
0.945739
0.945708
0.942658
0.938178
0.937323
0.938819
0.941599
0.945187
0.94818
0.949708
0.952437
0.951142
0.950096
0.952597
0.958855
0.973202
0.996561
1.01389
1.02826
1.04482
1.06101
1.06961
1.07124
1.07269
1.0707
1.07074
1.07289
1.07534
1.07678
1.07587
0.833569
0.833525
0.833402
0.833348
0.833358
0.833391
0.833362
0.833277
0.833271
0.833295
0.833292
0.833257
0.833202
0.833105
0.832962
0.832854
0.832839
0.832834
0.832773
0.832689
0.832514
0.832364
0.832226
0.832094
0.831952
0.831964
0.832052
0.832241
0.832558
0.83308
0.833832
0.834913
0.836367
0.83835
0.840874
0.843946
0.847772
0.851966
0.857226
0.862681
0.869173
0.876
0.883274
0.89124
0.898982
0.906845
0.914253
0.920427
0.924594
0.929769
0.932855
0.93445
0.93472
0.934809
0.935273
0.935801
0.935522
0.935055
0.934194
0.933871
0.934225
0.935174
0.936723
0.938039
0.939714
0.939836
0.938478
0.936686
0.936427
0.937573
0.940164
0.942504
0.944679
0.943402
0.940562
0.939501
0.939753
0.940648
0.94192
0.94375
0.946565
0.94891
0.952188
0.953964
0.958389
0.971229
0.996116
1.01584
1.02939
1.0454
1.05679
1.06359
1.07076
1.07199
1.07005
1.07067
1.07293
1.07545
1.0772
1.07594
0.832333
0.832322
0.832306
0.832279
0.832248
0.832203
0.832142
0.83206
0.832002
0.831999
0.831985
0.831916
0.831885
0.831886
0.831849
0.831809
0.831845
0.831907
0.831927
0.831866
0.831756
0.831618
0.831491
0.831396
0.831302
0.831229
0.831271
0.831354
0.831459
0.831497
0.831481
0.831516
0.831615
0.831835
0.832155
0.832594
0.833349
0.834579
0.836355
0.838863
0.842123
0.846462
0.851439
0.858158
0.864904
0.87361
0.882237
0.891568
0.900746
0.910287
0.916718
0.924032
0.92775
0.931189
0.93285
0.93382
0.933721
0.933676
0.933215
0.933198
0.933601
0.933825
0.934386
0.935529
0.937299
0.938283
0.939008
0.939128
0.938705
0.937805
0.938173
0.939361
0.941935
0.943081
0.943525
0.942795
0.941805
0.940382
0.940164
0.940881
0.942334
0.945707
0.950661
0.95544
0.960421
0.971315
0.992822
1.01485
1.03409
1.04758
1.05493
1.05913
1.06533
1.06933
1.0692
1.07049
1.07256
1.07485
1.07657
1.07553
0.831742
0.831736
0.831721
0.831692
0.831664
0.831651
0.831581
0.831429
0.831375
0.831359
0.831336
0.83125
0.831182
0.831211
0.831257
0.831266
0.831277
0.831348
0.83143
0.831426
0.831326
0.831201
0.831108
0.831042
0.831017
0.831012
0.830994
0.83102
0.831093
0.831171
0.83119
0.831187
0.831244
0.831359
0.831524
0.831725
0.831819
0.831919
0.832089
0.832394
0.832838
0.833702
0.835061
0.83719
0.840232
0.844501
0.850085
0.85706
0.865848
0.874978
0.886039
0.896936
0.906352
0.916001
0.921258
0.926431
0.929344
0.931455
0.93175
0.932298
0.93272
0.932842
0.933329
0.934615
0.93581
0.936927
0.937869
0.938285
0.938675
0.938707
0.93864
0.939114
0.940228
0.941691
0.94278
0.942809
0.942789
0.942697
0.942225
0.94232
0.9426
0.944781
0.949054
0.953895
0.961269
0.972745
0.991365
1.01271
1.03315
1.05086
1.05531
1.05841
1.06205
1.06661
1.06989
1.07281
1.07475
1.07634
1.07753
1.07663
0.831532
0.831572
0.831597
0.8316
0.831562
0.831515
0.831495
0.831392
0.831246
0.831192
0.831149
0.831057
0.831048
0.831086
0.831156
0.83121
0.831233
0.831277
0.83132
0.831305
0.831235
0.83113
0.830982
0.83097
0.831046
0.831126
0.831142
0.831097
0.831134
0.831222
0.831328
0.831361
0.831381
0.831439
0.83152
0.831611
0.831679
0.831748
0.831854
0.83202
0.832279
0.832447
0.832644
0.832932
0.833379
0.833988
0.835224
0.837208
0.840609
0.845268
0.85267
0.86092
0.872161
0.883838
0.895235
0.906605
0.914873
0.92128
0.925562
0.929758
0.930237
0.930507
0.932037
0.934432
0.935928
0.936406
0.936724
0.937204
0.937727
0.938044
0.938596
0.939645
0.940579
0.941598
0.942055
0.942095
0.942184
0.942803
0.944232
0.945381
0.945248
0.945697
0.948149
0.952424
0.960318
0.973372
0.991327
1.01126
1.03095
1.04914
1.05842
1.06133
1.06304
1.06611
1.07148
1.07569
1.0777
1.07882
1.08
1.07825
0.831724
0.831724
0.831715
0.831699
0.831671
0.83163
0.831587
0.831531
0.831416
0.831243
0.831197
0.831212
0.831243
0.831281
0.831349
0.831416
0.83144
0.831486
0.83153
0.83151
0.831437
0.831294
0.831168
0.83119
0.831272
0.831358
0.831397
0.831356
0.831363
0.831427
0.831492
0.83156
0.831688
0.831801
0.831837
0.831873
0.831905
0.831933
0.83197
0.832042
0.83215
0.832287
0.832464
0.832714
0.833021
0.833394
0.833705
0.83411
0.834771
0.835726
0.837445
0.840289
0.845321
0.851894
0.861975
0.872805
0.884886
0.896612
0.906736
0.915185
0.920666
0.925946
0.929758
0.932629
0.934877
0.935854
0.937029
0.937077
0.936607
0.936775
0.937859
0.939809
0.940328
0.941007
0.941214
0.941345
0.941805
0.942656
0.944269
0.945238
0.94569
0.946351
0.948299
0.952046
0.959149
0.972952
0.991544
1.01083
1.02902
1.04598
1.06217
1.06522
1.06628
1.06836
1.07214
1.07518
1.07706
1.07846
1.07959
1.07764
0.83257
0.832541
0.832506
0.832473
0.832444
0.832435
0.832449
0.832427
0.832303
0.832108
0.832079
0.832113
0.83216
0.832184
0.83219
0.832205
0.832211
0.832196
0.832161
0.832083
0.831886
0.831696
0.831686
0.83174
0.831836
0.831959
0.832015
0.831969
0.831986
0.832055
0.832126
0.832206
0.832364
0.832564
0.832633
0.832667
0.832696
0.83272
0.83278
0.832871
0.832962
0.833057
0.833194
0.833392
0.833649
0.833923
0.834174
0.834441
0.834824
0.835372
0.835983
0.836642
0.837575
0.839152
0.842293
0.847046
0.854682
0.864086
0.875213
0.886468
0.898174
0.910103
0.916966
0.921414
0.927192
0.932019
0.935696
0.936203
0.936571
0.937103
0.938031
0.939214
0.939375
0.93996
0.940748
0.941629
0.942119
0.942884
0.943773
0.944488
0.945072
0.945982
0.94838
0.951985
0.958658
0.972183
0.992385
1.01174
1.02846
1.04515
1.06104
1.06794
1.06958
1.07033
1.07151
1.07387
1.0757
1.07703
1.07808
1.07644
0.834062
0.834038
0.833996
0.833925
0.833854
0.833796
0.833754
0.833713
0.833612
0.833451
0.833415
0.833453
0.833516
0.833547
0.833556
0.833602
0.833645
0.833653
0.833607
0.833464
0.833196
0.83312
0.83318
0.833261
0.833329
0.833353
0.833265
0.83316
0.833207
0.833284
0.833359
0.833449
0.833597
0.833747
0.833814
0.833877
0.833926
0.83397
0.834041
0.834131
0.834247
0.834405
0.834592
0.834755
0.834928
0.835118
0.835281
0.835394
0.835491
0.835625
0.835891
0.836228
0.836652
0.837142
0.83787
0.838982
0.841045
0.844163
0.849517
0.856947
0.866685
0.877256
0.890157
0.903047
0.914564
0.919541
0.926904
0.932509
0.934833
0.935445
0.936012
0.936442
0.937239
0.938587
0.940386
0.941833
0.942326
0.942958
0.943187
0.943466
0.943956
0.945313
0.947826
0.951687
0.958368
0.971474
0.99196
1.01286
1.02937
1.04521
1.05853
1.06717
1.06944
1.06967
1.07039
1.07223
1.07382
1.07526
1.07651
1.07557
0.835742
0.835836
0.835808
0.835649
0.835331
0.835259
0.835291
0.835325
0.835316
0.835285
0.835285
0.835298
0.835278
0.835232
0.83521
0.835217
0.835236
0.835225
0.835145
0.834992
0.834835
0.834784
0.834812
0.834854
0.834864
0.834809
0.834665
0.83448
0.83445
0.834517
0.834577
0.83458
0.834517
0.834524
0.834602
0.834679
0.834715
0.834723
0.834725
0.834748
0.834858
0.83503
0.835161
0.835251
0.835379
0.835613
0.8359
0.835973
0.835801
0.835625
0.835553
0.835627
0.835897
0.836261
0.836625
0.837183
0.837709
0.838101
0.838783
0.840295
0.843754
0.849446
0.857595
0.868096
0.881314
0.896389
0.909325
0.91685
0.926458
0.928535
0.929743
0.932951
0.935827
0.93915
0.939966
0.940936
0.941601
0.942298
0.942595
0.943425
0.944046
0.944663
0.946856
0.951173
0.958363
0.971308
0.991164
1.01383
1.03166
1.0466
1.0577
1.0652
1.06774
1.06832
1.06977
1.07183
1.07342
1.07483
1.07589
1.07516
0.836402
0.836298
0.836055
0.835979
0.835991
0.836019
0.836082
0.836181
0.836211
0.836241
0.836331
0.836358
0.836222
0.836062
0.836019
0.836032
0.83602
0.835932
0.835858
0.835816
0.835791
0.835781
0.835777
0.835762
0.835704
0.835583
0.835432
0.83531
0.835228
0.835145
0.835045
0.834949
0.834836
0.83468
0.834617
0.834645
0.83463
0.834581
0.834544
0.83453
0.834574
0.834697
0.83478
0.834844
0.834966
0.835228
0.835548
0.835716
0.835572
0.835356
0.835245
0.835225
0.835281
0.83543
0.835642
0.835934
0.836179
0.836489
0.837077
0.837588
0.837721
0.838356
0.84013
0.844031
0.849924
0.861254
0.874525
0.88928
0.904042
0.914994
0.923395
0.93074
0.93373
0.937159
0.937568
0.938124
0.939407
0.941061
0.942638
0.943672
0.943869
0.944199
0.945958
0.950784
0.958577
0.971497
0.990655
1.01302
1.03281
1.04786
1.05761
1.06388
1.06589
1.06724
1.06951
1.07189
1.07352
1.07496
1.07624
1.07531
0.836036
0.835794
0.835723
0.835739
0.835776
0.835814
0.835863
0.835919
0.835966
0.836058
0.836174
0.836142
0.835942
0.835891
0.835912
0.835899
0.835818
0.83567
0.835647
0.835678
0.835668
0.835636
0.83562
0.83561
0.835569
0.835483
0.835393
0.835343
0.835309
0.835245
0.835145
0.835014
0.834805
0.834521
0.834356
0.834329
0.834304
0.834254
0.834205
0.834175
0.834175
0.834243
0.834329
0.834403
0.834527
0.834792
0.835123
0.835306
0.835367
0.835262
0.835068
0.834908
0.834824
0.834823
0.834828
0.83485
0.834964
0.835412
0.836156
0.836741
0.837246
0.837068
0.836989
0.837171
0.838169
0.841316
0.846974
0.85801
0.87072
0.885987
0.900451
0.911527
0.919787
0.927582
0.931084
0.934995
0.939227
0.942173
0.942476
0.942738
0.942865
0.943299
0.945823
0.951171
0.958657
0.971198
0.99005
1.01228
1.03241
1.04681
1.05754
1.06304
1.06507
1.06658
1.06967
1.07264
1.07452
1.07602
1.0774
1.07576
0.83509
0.835083
0.8351
0.835126
0.835156
0.835228
0.835306
0.835315
0.835341
0.835426
0.835483
0.835372
0.835341
0.835403
0.835442
0.835333
0.835084
0.835062
0.835154
0.835208
0.835171
0.835096
0.835077
0.835088
0.835078
0.83504
0.834976
0.834921
0.834892
0.834855
0.834826
0.834783
0.834618
0.83426
0.833902
0.833823
0.833762
0.833691
0.833636
0.833591
0.833557
0.833531
0.833518
0.833578
0.833784
0.834066
0.834323
0.834613
0.835009
0.835202
0.83493
0.834287
0.833766
0.833534
0.833417
0.83337
0.833589
0.834239
0.835053
0.835834
0.836481
0.836974
0.837235
0.837431
0.837606
0.838313
0.839965
0.843537
0.849183
0.858445
0.87046
0.884021
0.900213
0.912486
0.924214
0.932696
0.936847
0.940272
0.939645
0.939524
0.940495
0.942289
0.945986
0.951289
0.958411
0.970606
0.989938
1.01213
1.03167
1.04513
1.05735
1.06341
1.06564
1.06717
1.0702
1.07305
1.07503
1.0765
1.07786
1.07594
0.833892
0.83393
0.833968
0.834023
0.834137
0.834211
0.834178
0.834157
0.834202
0.834259
0.834259
0.834292
0.834377
0.834569
0.834597
0.834366
0.834308
0.834412
0.834525
0.834503
0.834393
0.834352
0.834402
0.834476
0.834543
0.834577
0.834539
0.834385
0.834191
0.834116
0.834119
0.83413
0.834117
0.834045
0.833877
0.833528
0.83295
0.832576
0.832474
0.832394
0.832311
0.832239
0.832225
0.832348
0.832597
0.832904
0.833316
0.833807
0.834353
0.834668
0.83461
0.834426
0.834162
0.833825
0.833574
0.833457
0.833373
0.833534
0.834175
0.835099
0.836086
0.836979
0.837676
0.838112
0.838457
0.839025
0.840186
0.842158
0.844512
0.847765
0.852328
0.859818
0.871701
0.885215
0.900749
0.913058
0.921178
0.929262
0.931562
0.935547
0.940192
0.942374
0.945371
0.950593
0.9584
0.970908
0.990205
1.01186
1.03041
1.04378
1.05579
1.06407
1.06633
1.0679
1.07047
1.07264
1.07465
1.07609
1.07756
1.07589
0.833803
0.833859
0.833879
0.833899
0.833952
0.834081
0.834148
0.83412
0.834113
0.834163
0.834253
0.834248
0.834117
0.833877
0.833474
0.833226
0.83328
0.8334
0.833476
0.833462
0.833434
0.833368
0.833342
0.83342
0.833541
0.833622
0.833688
0.833795
0.833929
0.834009
0.834052
0.834058
0.834006
0.833926
0.833853
0.833735
0.83351
0.833133
0.832827
0.832696
0.832599
0.832501
0.832414
0.832388
0.832468
0.832605
0.832777
0.83306
0.833456
0.833899
0.83431
0.834475
0.834378
0.834119
0.833846
0.833743
0.833674
0.833679
0.834028
0.834869
0.836021
0.837302
0.838541
0.83953
0.840124
0.840597
0.841381
0.842703
0.84444
0.846139
0.847623
0.849673
0.853434
0.860865
0.871846
0.885851
0.89997
0.913769
0.923966
0.93243
0.938336
0.940699
0.943134
0.948641
0.957564
0.971234
0.9897
1.00998
1.0294
1.04333
1.05532
1.06332
1.06525
1.06731
1.07008
1.07215
1.07442
1.07599
1.07772
1.076
0.834072
0.834113
0.83408
0.833931
0.833881
0.833915
0.83398
0.834024
0.834053
0.834131
0.834206
0.834126
0.833838
0.83337
0.833204
0.833265
0.833357
0.833439
0.833513
0.83355
0.833575
0.833604
0.833611
0.833537
0.833454
0.8335
0.833618
0.833738
0.833813
0.833836
0.833818
0.833848
0.833883
0.833884
0.833864
0.833841
0.833767
0.833586
0.833366
0.833199
0.833062
0.832973
0.832881
0.83278
0.832695
0.832626
0.832627
0.832828
0.833225
0.833742
0.834322
0.834902
0.835284
0.835268
0.835169
0.835144
0.835158
0.835227
0.835486
0.8361
0.837126
0.838443
0.839871
0.841161
0.841924
0.842315
0.842689
0.843341
0.844241
0.845405
0.846367
0.846902
0.84746
0.848933
0.852471
0.859579
0.870607
0.883191
0.898461
0.910391
0.92257
0.930513
0.938253
0.947788
0.95871
0.971182
0.987459
1.00856
1.02902
1.04414
1.0567
1.06257
1.06427
1.06687
1.06985
1.07221
1.07481
1.07651
1.07843
1.07606
0.834799
0.834786
0.8347
0.834419
0.834236
0.83425
0.834277
0.83431
0.834365
0.834465
0.834533
0.834447
0.834117
0.833632
0.833581
0.833662
0.833725
0.8337
0.833757
0.833871
0.833921
0.833861
0.833904
0.834006
0.834019
0.833929
0.833936
0.834047
0.834225
0.834253
0.834162
0.834169
0.834253
0.834304
0.834337
0.834395
0.834433
0.834412
0.834343
0.834215
0.83402
0.833903
0.833831
0.833714
0.833531
0.833354
0.833265
0.833362
0.833763
0.834371
0.835098
0.835894
0.836563
0.83692
0.837091
0.837209
0.837301
0.837329
0.837284
0.837334
0.837779
0.838733
0.839872
0.84098
0.841837
0.8424
0.842766
0.843149
0.843787
0.844473
0.845253
0.845703
0.845735
0.845852
0.846535
0.848521
0.852732
0.859263
0.870865
0.884859
0.900448
0.91909
0.933717
0.945404
0.95692
0.96717
0.983821
1.00883
1.02863
1.04467
1.05776
1.06171
1.06377
1.06668
1.06969
1.07246
1.07532
1.07701
1.07876
1.0758
0.835097
0.835036
0.834977
0.8348
0.834438
0.834377
0.834416
0.834412
0.834444
0.834527
0.8346
0.834549
0.834344
0.833875
0.833656
0.833716
0.8338
0.83381
0.83385
0.83395
0.834004
0.833925
0.833947
0.83408
0.834132
0.833991
0.833904
0.833963
0.834142
0.834281
0.834165
0.834017
0.834037
0.834143
0.834272
0.834406
0.834522
0.83463
0.834762
0.834785
0.83468
0.83452
0.834404
0.834353
0.834335
0.834122
0.833872
0.833818
0.833954
0.834421
0.835125
0.835882
0.836577
0.837154
0.837557
0.83777
0.837941
0.838162
0.838047
0.83785
0.837853
0.838344
0.839366
0.840423
0.841236
0.841856
0.842362
0.842598
0.842837
0.84326
0.843851
0.84451
0.845192
0.845883
0.846644
0.847702
0.8495
0.851863
0.856373
0.863864
0.876242
0.89537
0.911722
0.928541
0.945848
0.960976
0.981956
1.01144
1.0286
1.04132
1.0559
1.06123
1.0637
1.06671
1.06953
1.07237
1.07509
1.0766
1.07835
1.07546
0.834991
0.834888
0.834777
0.834702
0.834581
0.834391
0.834315
0.834291
0.834305
0.834371
0.834411
0.83434
0.83417
0.833792
0.833504
0.833509
0.833603
0.833673
0.833687
0.833731
0.833747
0.833687
0.833735
0.833896
0.83392
0.83373
0.833545
0.833542
0.833694
0.833813
0.833677
0.833522
0.833534
0.83365
0.833802
0.833963
0.834117
0.834264
0.834401
0.834536
0.834653
0.834631
0.834518
0.834408
0.834411
0.834457
0.834278
0.834145
0.834163
0.834375
0.834842
0.835487
0.836191
0.836807
0.837236
0.837475
0.837649
0.837889
0.838164
0.838044
0.837894
0.837982
0.838554
0.839387
0.840089
0.840728
0.841406
0.842248
0.842328
0.842416
0.842818
0.843724
0.844895
0.846005
0.84703
0.848238
0.849959
0.851943
0.854154
0.857007
0.862466
0.872335
0.887816
0.906814
0.930339
0.953362
0.979487
1.00841
1.02411
1.03871
1.05363
1.06128
1.06398
1.0663
1.06872
1.07163
1.07427
1.07584
1.07806
1.07541
0.834535
0.834429
0.834307
0.834239
0.834161
0.83399
0.833849
0.833851
0.833953
0.834106
0.834164
0.834057
0.833851
0.833563
0.833349
0.833343
0.833408
0.833489
0.833525
0.833501
0.833383
0.833265
0.83333
0.833494
0.833491
0.833194
0.832798
0.832739
0.832852
0.832959
0.832906
0.832878
0.83294
0.833057
0.833236
0.833427
0.833587
0.833765
0.833966
0.834156
0.834286
0.834307
0.834274
0.834215
0.83424
0.834321
0.834289
0.834279
0.834268
0.834248
0.834371
0.834788
0.835379
0.836016
0.836535
0.836814
0.836945
0.837176
0.837746
0.838098
0.838034
0.838089
0.838565
0.839155
0.839643
0.840193
0.84091
0.841893
0.842779
0.843115
0.843411
0.844032
0.845126
0.846544
0.84799
0.849399
0.85096
0.852546
0.854043
0.855526
0.857369
0.860767
0.868732
0.881924
0.902007
0.929035
0.958904
0.98968
1.01776
1.03802
1.05353
1.06192
1.06437
1.06585
1.06824
1.07114
1.07375
1.0755
1.07844
1.07578
0.833086
0.833059
0.83304
0.833019
0.83301
0.833052
0.833118
0.833187
0.833272
0.83336
0.833428
0.833439
0.833367
0.833214
0.83305
0.833038
0.833082
0.833117
0.833093
0.833104
0.833155
0.833203
0.833279
0.833375
0.833304
0.832929
0.832688
0.832717
0.832838
0.832731
0.832584
0.832593
0.832714
0.832829
0.832838
0.83294
0.833128
0.833354
0.833582
0.83374
0.833769
0.833748
0.833725
0.833663
0.833662
0.833778
0.83395
0.834261
0.834608
0.83465
0.83459
0.834531
0.834745
0.835323
0.835994
0.836441
0.836725
0.837038
0.837729
0.838379
0.838451
0.838594
0.839145
0.839738
0.840099
0.840506
0.841152
0.842153
0.843359
0.844086
0.844416
0.844838
0.845695
0.846956
0.848413
0.849878
0.851209
0.852425
0.853635
0.854799
0.856399
0.858592
0.862316
0.86927
0.881317
0.903437
0.932677
0.969613
1.01141
1.03423
1.05196
1.05898
1.06223
1.06553
1.069
1.07208
1.07411
1.07579
1.07937
1.07626
0.831647
0.831717
0.831775
0.831821
0.831843
0.831858
0.831925
0.832026
0.83212
0.832176
0.832227
0.832289
0.832306
0.832308
0.83234
0.832389
0.832497
0.832573
0.832612
0.832668
0.832727
0.832804
0.832902
0.832893
0.83272
0.832283
0.832045
0.832067
0.832068
0.83184
0.831685
0.831717
0.831897
0.83212
0.83211
0.832165
0.83235
0.832652
0.83297
0.833137
0.833064
0.832949
0.832885
0.832806
0.832781
0.832925
0.833315
0.83383
0.834393
0.834544
0.83455
0.834619
0.834808
0.835239
0.835831
0.836355
0.836779
0.837224
0.837927
0.838615
0.838958
0.839517
0.840315
0.840888
0.841192
0.841489
0.841985
0.842799
0.843931
0.844872
0.845323
0.845479
0.845847
0.846739
0.848147
0.849637
0.851012
0.8521
0.853007
0.854068
0.855666
0.858387
0.862469
0.867641
0.874884
0.887022
0.908366
0.943263
0.985916
1.01142
1.03611
1.05324
1.06192
1.06737
1.07102
1.07315
1.07429
1.07661
1.08033
1.07657
0.831625
0.831525
0.831446
0.831372
0.831286
0.831267
0.831314
0.831393
0.831471
0.831446
0.831321
0.831302
0.831322
0.831356
0.831443
0.831576
0.831683
0.831793
0.831911
0.832042
0.832177
0.832291
0.832399
0.832602
0.832715
0.832535
0.832256
0.832237
0.832239
0.83202
0.831869
0.831912
0.832077
0.832097
0.832078
0.832202
0.832265
0.832341
0.83254
0.832714
0.832677
0.832546
0.83229
0.832122
0.832092
0.832173
0.832475
0.832979
0.833878
0.834585
0.834785
0.834922
0.835156
0.835579
0.836114
0.836716
0.837248
0.837589
0.838016
0.83858
0.839236
0.840226
0.841081
0.841672
0.842026
0.842253
0.842514
0.843006
0.843869
0.844778
0.845413
0.845718
0.845896
0.846334
0.847462
0.849079
0.850636
0.851742
0.852411
0.853496
0.855621
0.858706
0.863043
0.868494
0.874056
0.882159
0.896169
0.921418
0.953671
0.988
1.01839
1.04589
1.06022
1.06643
1.07151
1.07362
1.07508
1.07825
1.08103
1.07649
0.831501
0.8313
0.83107
0.830903
0.830819
0.830776
0.83076
0.830746
0.83067
0.830511
0.830262
0.830037
0.829888
0.829777
0.829633
0.829533
0.829548
0.829635
0.829746
0.829866
0.830124
0.830585
0.83108
0.831581
0.831907
0.831857
0.83168
0.831634
0.83162
0.831474
0.831422
0.831505
0.831505
0.831364
0.831374
0.831578
0.83179
0.831742
0.831768
0.831987
0.832423
0.832585
0.832433
0.831967
0.831779
0.831777
0.8319
0.832339
0.833321
0.834718
0.835366
0.835567
0.83579
0.836084
0.836452
0.837063
0.837771
0.838194
0.838344
0.838592
0.839258
0.840275
0.841035
0.841577
0.842018
0.84238
0.842661
0.842956
0.84353
0.844365
0.84525
0.845967
0.846429
0.846873
0.847472
0.848458
0.849858
0.851433
0.852836
0.854267
0.856433
0.859877
0.864262
0.869382
0.874272
0.880872
0.892422
0.911325
0.935096
0.962829
0.988717
1.01705
1.04346
1.05891
1.06679
1.07308
1.07796
1.08126
1.08166
1.07677
0.828276
0.828112
0.828044
0.82803
0.828089
0.828289
0.828424
0.828399
0.828232
0.827821
0.827248
0.826912
0.826733
0.826626
0.82663
0.826696
0.826764
0.82677
0.826844
0.827098
0.82773
0.828761
0.829389
0.829662
0.829863
0.830091
0.830256
0.830291
0.830248
0.830234
0.830225
0.830086
0.829982
0.830028
0.830132
0.830325
0.83052
0.830804
0.831308
0.831924
0.832438
0.832899
0.832999
0.832708
0.832462
0.832443
0.832516
0.832901
0.833871
0.835251
0.836161
0.83639
0.836359
0.836344
0.836479
0.836986
0.837781
0.838588
0.838837
0.838902
0.839245
0.840061
0.840762
0.841283
0.841769
0.842259
0.842725
0.8432
0.843774
0.844561
0.845445
0.846243
0.846913
0.847578
0.848365
0.849233
0.850243
0.851575
0.853141
0.854946
0.857402
0.860946
0.865259
0.869858
0.87448
0.88022
0.890311
0.908077
0.930289
0.950063
0.968637
0.992059
1.0209
1.0465
1.05898
1.07143
1.07854
1.08082
1.08193
1.07759
0.824187
0.824205
0.824282
0.824451
0.824598
0.824704
0.824821
0.82503
0.825264
0.82516
0.824514
0.823799
0.823712
0.823749
0.823807
0.823885
0.823948
0.824038
0.82424
0.824688
0.825552
0.826669
0.827357
0.82763
0.827871
0.828171
0.828285
0.828235
0.828317
0.828465
0.828404
0.828025
0.827789
0.827858
0.827962
0.82814
0.828558
0.829325
0.830323
0.831139
0.831696
0.832257
0.832473
0.832181
0.832001
0.831998
0.832128
0.832626
0.833639
0.834907
0.835891
0.836301
0.836149
0.836004
0.836066
0.836451
0.837272
0.838209
0.838602
0.838787
0.839047
0.839467
0.840023
0.840652
0.841358
0.842068
0.842644
0.843402
0.84447
0.845501
0.846233
0.846806
0.847374
0.848032
0.8489
0.849816
0.850743
0.851943
0.853538
0.855424
0.857848
0.861287
0.865586
0.870056
0.874304
0.879509
0.888421
0.905443
0.928099
0.947504
0.96085
0.97334
0.993549
1.01975
1.04683
1.06509
1.07503
1.0802
1.08244
1.07834
0.827855
0.827797
0.827762
0.827775
0.82776
0.827696
0.827724
0.828078
0.828672
0.828763
0.828323
0.826955
0.82611
0.826064
0.826082
0.826101
0.826208
0.826336
0.826401
0.826615
0.827238
0.828124
0.828622
0.828726
0.828807
0.829005
0.829062
0.828971
0.829101
0.829253
0.829182
0.828909
0.828313
0.827482
0.82728
0.827312
0.827494
0.82776
0.827783
0.827811
0.828048
0.828563
0.829033
0.829335
0.829561
0.829798
0.830156
0.830783
0.831753
0.832902
0.834049
0.834393
0.834282
0.834261
0.834418
0.83467
0.835081
0.835929
0.83715
0.838215
0.839048
0.839841
0.840535
0.841138
0.841641
0.842042
0.842484
0.84332
0.844829
0.846212
0.846936
0.847341
0.847737
0.848399
0.849413
0.850541
0.851517
0.852526
0.853909
0.855655
0.858016
0.86144
0.865787
0.870104
0.874088
0.878735
0.886853
0.90251
0.925515
0.94621
0.959862
0.967391
0.977042
0.993338
1.01801
1.04128
1.06277
1.0772
1.08066
1.07705
0.831838
0.831555
0.8305
0.829954
0.829925
0.829928
0.830048
0.830106
0.829849
0.829124
0.827297
0.824622
0.824191
0.824165
0.82398
0.823568
0.823452
0.823459
0.823503
0.823717
0.824082
0.824431
0.824651
0.824792
0.825205
0.825852
0.826099
0.826452
0.827084
0.827366
0.82733
0.827165
0.826892
0.826397
0.825919
0.825841
0.825866
0.826032
0.826346
0.82617
0.825371
0.824912
0.824914
0.825012
0.825334
0.825945
0.826679
0.827569
0.82882
0.830003
0.830829
0.831293
0.831787
0.832495
0.832688
0.832606
0.832624
0.833203
0.834697
0.836638
0.838223
0.839294
0.840242
0.841043
0.841437
0.841597
0.841875
0.842774
0.844435
0.845898
0.846725
0.847308
0.847853
0.84868
0.850004
0.851545
0.852779
0.853686
0.854692
0.856109
0.858287
0.861639
0.866073
0.870316
0.87392
0.878055
0.885281
0.89964
0.922355
0.944588
0.959209
0.966764
0.972117
0.977841
0.991791
1.01399
1.03908
1.06012
1.06889
1.07273
0.836022
0.83525
0.834202
0.833329
0.832616
0.832552
0.83281
0.832734
0.832012
0.829604
0.82688
0.825874
0.825282
0.824105
0.823033
0.822875
0.822855
0.822938
0.823405
0.824134
0.824712
0.825103
0.825441
0.825881
0.826707
0.82746
0.828097
0.82865
0.829025
0.829246
0.829147
0.828903
0.828709
0.828549
0.828516
0.828534
0.828751
0.829587
0.830573
0.830354
0.829456
0.82813
0.826773
0.82658
0.826852
0.827089
0.82727
0.827803
0.82916
0.830538
0.831399
0.832332
0.833848
0.835054
0.835109
0.834681
0.833855
0.833133
0.833205
0.833991
0.835337
0.836698
0.838
0.839232
0.839676
0.839712
0.83988
0.840694
0.842533
0.84462
0.846053
0.847079
0.848022
0.849111
0.850474
0.852035
0.853612
0.854839
0.855833
0.857222
0.859346
0.862456
0.866717
0.870901
0.874096
0.877615
0.883811
0.896662
0.918497
0.942537
0.958161
0.966089
0.971626
0.975264
0.97874
0.988865
1.00757
1.02989
1.05097
1.06776
0.868345
0.867801
0.865994
0.864085
0.863584
0.86314
0.862324
0.860889
0.858618
0.856146
0.85428
0.852287
0.850281
0.849383
0.848526
0.846698
0.846214
0.846318
0.846284
0.846156
0.84632
0.846528
0.846277
0.846514
0.847492
0.847474
0.84589
0.844192
0.844083
0.844332
0.844393
0.843796
0.841801
0.840512
0.840393
0.840601
0.841514
0.842651
0.842709
0.842221
0.841557
0.840539
0.839145
0.838761
0.838235
0.836198
0.833686
0.833424
0.833653
0.833822
0.833751
0.834201
0.83562
0.836792
0.836637
0.835725
0.834724
0.834643
0.834762
0.834818
0.834836
0.835107
0.835416
0.835911
0.83672
0.83746
0.838139
0.839053
0.840575
0.842591
0.844426
0.846067
0.847843
0.849286
0.850604
0.852144
0.853725
0.855122
0.856449
0.85804
0.860451
0.863961
0.868329
0.872172
0.874858
0.87774
0.882855
0.893857
0.914111
0.939238
0.956261
0.965483
0.971296
0.975254
0.978271
0.981175
0.987387
1.00123
1.02035
1.04581
0.893968
0.895054
0.896018
0.895901
0.894959
0.893528
0.89217
0.888974
0.887202
0.88695
0.88561
0.885111
0.885325
0.884753
0.884056
0.884065
0.884516
0.885024
0.884636
0.883327
0.882908
0.88398
0.88577
0.885473
0.883153
0.87883
0.875202
0.873672
0.87266
0.871402
0.86952
0.865097
0.857748
0.855379
0.85456
0.852869
0.852723
0.852929
0.851113
0.846517
0.845156
0.84577
0.84887
0.851275
0.851283
0.850296
0.846985
0.843824
0.843872
0.844101
0.842977
0.839158
0.837134
0.836734
0.836711
0.83649
0.83671
0.838274
0.839341
0.838798
0.837555
0.83718
0.837102
0.837132
0.838029
0.840004
0.841553
0.84243
0.843278
0.844269
0.845198
0.846284
0.84779
0.84931
0.850319
0.851252
0.852603
0.854273
0.855999
0.857958
0.860704
0.864827
0.869797
0.873442
0.875569
0.877819
0.881905
0.891068
0.908952
0.933723
0.953752
0.964652
0.971629
0.976171
0.979162
0.981425
0.98421
0.988781
0.997765
1.0202
0.956276
0.954138
0.952142
0.950409
0.949528
0.949465
0.94967
0.948485
0.945116
0.943602
0.94235
0.94079
0.939674
0.937664
0.934178
0.931541
0.931454
0.931835
0.931248
0.929066
0.924575
0.921995
0.92185
0.921879
0.920563
0.91598
0.914068
0.915663
0.917361
0.917279
0.917368
0.916953
0.912213
0.907216
0.905961
0.904857
0.903149
0.900197
0.895674