/*--------------------------------*- C++ -*----------------------------------*\
  =========                 |
  \\      /  F ield         | OpenFOAM: The Open Source CFD Toolbox
   \\    /   O peration     | Website:  https://openfoam.org
    \\  /    A nd           | Version:  7
     \\/     M anipulation  |
\*---------------------------------------------------------------------------*/
FoamFile
{
    version     2.0;
    format      ascii;
    class       volScalarField;
    location    "1.5";
    object      rho;
}
// * * * * * * * * * * * * * * * * * * * * * * * * * * * * * * * * * * * * * //

dimensions      [1 -3 0 0 0 0 0];

internalField   nonuniform List<scalar> 
90000
(
1.18558
1.18364
1.18245
1.18167
1.1822
1.18318
1.18483
1.187
1.18979
1.19221
1.19496
1.19735
1.20011
1.20256
1.20538
1.20792
1.21098
1.21376
1.2169
1.21961
1.22266
1.22536
1.22832
1.23092
1.23377
1.23644
1.23946
1.24218
1.24527
1.24817
1.25121
1.25442
1.25739
1.26048
1.26345
1.26664
1.2693
1.27228
1.27479
1.27768
1.27857
1.27724
1.27269
1.26407
1.25582
1.25025
1.24641
1.24735
1.24985
1.25356
1.25847
1.26231
1.26411
1.2649
1.2651
1.26463
1.26384
1.2615
1.25811
1.25394
1.25263
1.25357
1.25635
1.26204
1.2654
1.26887
1.27106
1.27051
1.26844
1.26409
1.26142
1.26224
1.26468
1.26971
1.27273
1.27315
1.27192
1.27015
1.27021
1.27113
1.27209
1.27424
1.27797
1.28203
1.28886
1.29916
1.31535
1.33628
1.35487
1.37678
1.38678
1.39252
1.39418
1.39717
1.40011
1.40305
1.40627
1.41068
1.41268
1.41678
1.18697
1.18697
1.18696
1.18695
1.18694
1.18697
1.18714
1.18729
1.18753
1.18804
1.18916
1.19099
1.19319
1.1955
1.19784
1.20035
1.20301
1.20593
1.2088
1.21175
1.21461
1.21761
1.22049
1.22343
1.22626
1.22923
1.23223
1.23538
1.23846
1.24173
1.24504
1.24841
1.25194
1.25542
1.25896
1.26249
1.26592
1.26938
1.27223
1.27565
1.27771
1.27969
1.28188
1.28407
1.28394
1.28228
1.27791
1.27217
1.26674
1.2626
1.25908
1.25957
1.2602
1.26182
1.26452
1.26803
1.2714
1.2752
1.27498
1.27319
1.26898
1.26454
1.26152
1.26153
1.2638
1.26788
1.27282
1.27837
1.27857
1.27603
1.27095
1.26682
1.26808
1.27082
1.27545
1.27782
1.27794
1.27786
1.27862
1.28002
1.27959
1.28031
1.28198
1.28565
1.29331
1.3046
1.32176
1.3413
1.35839
1.37915
1.39357
1.39969
1.39958
1.40029
1.40111
1.40255
1.40554
1.41026
1.41407
1.42125
1.18759
1.18756
1.18751
1.18745
1.18739
1.18731
1.18728
1.18728
1.18726
1.18723
1.18726
1.18738
1.18759
1.18796
1.1885
1.18928
1.19028
1.19157
1.19306
1.1948
1.19666
1.19882
1.20115
1.2038
1.20658
1.2097
1.21294
1.21654
1.22008
1.22381
1.22764
1.23156
1.23574
1.23989
1.2444
1.2488
1.25353
1.25845
1.2632
1.26806
1.27278
1.27692
1.28051
1.28314
1.28452
1.28523
1.28661
1.28848
1.28821
1.28639
1.28193
1.27741
1.27497
1.27291
1.273
1.27395
1.27589
1.27824
1.28027
1.28196
1.28299
1.28189
1.27836
1.27478
1.27298
1.27383
1.27654
1.28048
1.28394
1.28608
1.28456
1.28023
1.2762
1.27651
1.27898
1.28191
1.28441
1.28717
1.29034
1.29194
1.29097
1.28883
1.28951
1.29264
1.29957
1.31185
1.3298
1.34962
1.3651
1.38295
1.40087
1.4056
1.40591
1.40552
1.4038
1.40403
1.40696
1.41153
1.41677
1.42761
1.18847
1.18841
1.18833
1.18824
1.18817
1.18811
1.18803
1.18796
1.18791
1.18784
1.18776
1.18774
1.18772
1.18766
1.18757
1.1875
1.18743
1.1874
1.18742
1.18747
1.18766
1.18804
1.18858
1.18932
1.19022
1.19142
1.19295
1.19497
1.1973
1.20004
1.20308
1.20667
1.2106
1.21499
1.21979
1.22472
1.23032
1.23584
1.24207
1.24806
1.25468
1.26071
1.26739
1.2728
1.27848
1.28281
1.28585
1.28828
1.2889
1.28913
1.28913
1.28944
1.28916
1.28795
1.28606
1.28411
1.28223
1.28217
1.28264
1.28386
1.28568
1.28797
1.29
1.28959
1.28701
1.28397
1.28193
1.28269
1.28511
1.28858
1.29303
1.29287
1.28972
1.28527
1.28416
1.28557
1.28821
1.2917
1.29469
1.29624
1.29897
1.29769
1.29666
1.29905
1.30505
1.31866
1.34067
1.35708
1.37145
1.38811
1.40387
1.41186
1.41168
1.41093
1.40758
1.40715
1.40985
1.41456
1.42111
1.4353
1.18985
1.18979
1.18964
1.18955
1.18955
1.18954
1.18948
1.18935
1.18932
1.18931
1.18928
1.18921
1.18912
1.18898
1.18879
1.18863
1.18858
1.18853
1.18842
1.18828
1.18805
1.18786
1.18768
1.18749
1.18727
1.18725
1.18728
1.18741
1.18767
1.18813
1.18884
1.18989
1.19132
1.19326
1.19575
1.19881
1.20267
1.20694
1.21231
1.21788
1.22449
1.23143
1.23884
1.24693
1.25482
1.26282
1.27036
1.27663
1.28081
1.28591
1.28876
1.29016
1.29013
1.28998
1.29022
1.29057
1.29018
1.28958
1.2886
1.28815
1.28846
1.2893
1.29064
1.29172
1.29334
1.29322
1.29172
1.28982
1.2894
1.29047
1.29285
1.29498
1.29691
1.29557
1.29264
1.29155
1.29177
1.29265
1.29392
1.29576
1.29848
1.30079
1.30396
1.30564
1.30985
1.32213
1.34589
1.36454
1.37779
1.39364
1.40441
1.4103
1.41621
1.41548
1.41207
1.41192
1.41462
1.41924
1.42623
1.44179
1.1903
1.19027
1.19022
1.19017
1.1901
1.19002
1.18992
1.1898
1.1897
1.18966
1.18961
1.18949
1.18942
1.18937
1.18928
1.18918
1.18917
1.18917
1.18913
1.18901
1.18882
1.1886
1.18839
1.1882
1.18801
1.18784
1.18781
1.18782
1.18782
1.18778
1.1877
1.18768
1.18771
1.18784
1.18807
1.18844
1.18916
1.1904
1.19221
1.19477
1.1981
1.20252
1.2076
1.21444
1.22133
1.23019
1.23899
1.2485
1.25784
1.26756
1.27416
1.28157
1.28527
1.28863
1.29016
1.291
1.29073
1.29051
1.28994
1.28988
1.2902
1.29031
1.29078
1.29185
1.29356
1.29438
1.29499
1.29498
1.29451
1.29352
1.29382
1.2949
1.29732
1.29831
1.29868
1.29792
1.29689
1.29543
1.29504
1.29571
1.2972
1.30062
1.30546
1.31003
1.31479
1.32527
1.34597
1.36698
1.3852
1.39849
1.40511
1.40854
1.41389
1.41667
1.41516
1.41549
1.41801
1.42224
1.42924
1.44595
1.19065
1.19062
1.19057
1.19051
1.19043
1.19038
1.19027
1.19007
1.18998
1.18993
1.18986
1.18971
1.18958
1.18956
1.18956
1.18951
1.18946
1.18947
1.18948
1.18942
1.18925
1.18904
1.18886
1.18869
1.18856
1.18845
1.18833
1.18825
1.18821
1.18817
1.1881
1.18802
1.18801
1.18803
1.1881
1.18821
1.18827
1.18835
1.18852
1.18883
1.18928
1.19017
1.19156
1.19374
1.19686
1.20123
1.20693
1.21404
1.22298
1.23227
1.24347
1.25451
1.26404
1.27379
1.27917
1.2844
1.28727
1.28932
1.28951
1.28998
1.29031
1.29036
1.29078
1.29198
1.29314
1.29425
1.29517
1.2955
1.29582
1.2957
1.29554
1.29596
1.29704
1.29843
1.29944
1.29942
1.29938
1.29919
1.29855
1.29856
1.29883
1.30107
1.30531
1.30995
1.31702
1.32809
1.34608
1.36657
1.38595
1.40283
1.40675
1.40921
1.41221
1.41608
1.41819
1.42002
1.42242
1.42586
1.43245
1.44984
1.19091
1.19092
1.19091
1.19088
1.1908
1.1907
1.19063
1.19049
1.19028
1.19019
1.19009
1.18994
1.18988
1.18987
1.18988
1.18987
1.18983
1.18981
1.18978
1.1897
1.18956
1.18937
1.18912
1.18902
1.18901
1.18899
1.18889
1.18872
1.18863
1.1886
1.1886
1.18856
1.1885
1.18846
1.18843
1.18843
1.18844
1.18849
1.18858
1.18875
1.18901
1.18919
1.18941
1.18972
1.1902
1.19085
1.19214
1.1942
1.1977
1.20247
1.20998
1.21835
1.22969
1.24148
1.25296
1.26438
1.27269
1.27912
1.2834
1.28754
1.28805
1.28834
1.28985
1.29215
1.29358
1.29408
1.29442
1.2949
1.29538
1.29558
1.29603
1.29701
1.29788
1.29886
1.29933
1.29936
1.29941
1.29994
1.30121
1.30228
1.30211
1.30254
1.30492
1.30906
1.31666
1.32931
1.34664
1.36584
1.38472
1.40182
1.4106
1.41294
1.41412
1.41664
1.42099
1.42402
1.42646
1.42944
1.43618
1.45315
1.19137
1.19133
1.19128
1.19122
1.19116
1.19107
1.19097
1.19086
1.19069
1.19045
1.19036
1.19034
1.19032
1.19031
1.19032
1.19033
1.19029
1.19026
1.19023
1.19014
1.18999
1.18976
1.18954
1.1895
1.1895
1.18947
1.18939
1.18922
1.1891
1.18904
1.189
1.18898
1.18903
1.18904
1.18898
1.18891
1.18889
1.18889
1.18891
1.18897
1.18907
1.18921
1.18939
1.18966
1.18999
1.1904
1.19075
1.19121
1.19194
1.19297
1.19476
1.19768
1.2028
1.20946
1.21963
1.23053
1.24264
1.25437
1.26446
1.27287
1.27834
1.28361
1.28743
1.29031
1.29256
1.29355
1.29472
1.29477
1.29429
1.29442
1.29541
1.29728
1.2978
1.2985
1.29872
1.29884
1.29924
1.29999
1.30148
1.30236
1.30277
1.30339
1.30525
1.30886
1.31575
1.32915
1.34717
1.3657
1.38315
1.39925
1.41447
1.41732
1.41805
1.41956
1.42238
1.42428
1.42656
1.42989
1.43682
1.45387
1.19255
1.19248
1.1924
1.19231
1.19224
1.19217
1.19212
1.19204
1.19187
1.1916
1.19153
1.19152
1.19152
1.1915
1.19145
1.1914
1.19134
1.19126
1.19115
1.19098
1.19069
1.19041
1.19034
1.19032
1.19032
1.19032
1.19026
1.19008
1.18997
1.18992
1.18988
1.18987
1.18993
1.19002
1.18998
1.18991
1.18988
1.18988
1.18992
1.19001
1.1901
1.19019
1.19033
1.19054
1.19083
1.19114
1.19142
1.19173
1.19217
1.19279
1.19348
1.19421
1.19521
1.19683
1.20001
1.2048
1.2125
1.22196
1.23313
1.2444
1.25606
1.26792
1.27474
1.2792
1.28495
1.28975
1.29338
1.29385
1.29418
1.29466
1.29549
1.29666
1.29688
1.29752
1.29831
1.29918
1.29961
1.30027
1.30108
1.30174
1.30228
1.30313
1.30544
1.30892
1.31542
1.32857
1.34816
1.36677
1.38277
1.39866
1.4135
1.42023
1.42168
1.42193
1.42229
1.42357
1.42578
1.4292
1.43643
1.45396
1.19455
1.19449
1.19441
1.19429
1.19417
1.19405
1.19395
1.19384
1.19368
1.19344
1.19335
1.19334
1.19334
1.19331
1.19325
1.19323
1.1932
1.19314
1.19302
1.19278
1.19239
1.19222
1.19221
1.1922
1.19217
1.19208
1.19185
1.19161
1.19153
1.19148
1.19144
1.19141
1.19144
1.19147
1.19141
1.19137
1.19135
1.19137
1.19143
1.19152
1.19164
1.1918
1.19199
1.19217
1.19239
1.19263
1.19284
1.19299
1.19314
1.19332
1.19367
1.19408
1.19458
1.19511
1.19586
1.19698
1.19905
1.20219
1.20759
1.21509
1.2249
1.23552
1.24842
1.26127
1.27273
1.27764
1.28488
1.29037
1.2926
1.29314
1.29363
1.29406
1.29489
1.29629
1.29807
1.29948
1.2999
1.30043
1.30062
1.30089
1.30136
1.30268
1.3051
1.30885
1.31536
1.32811
1.34793
1.36818
1.38396
1.39899
1.41152
1.41989
1.42209
1.42185
1.42165
1.42236
1.42438
1.4281
1.43595
1.45438
1.19681
1.19687
1.19683
1.19665
1.19626
1.19614
1.19613
1.19612
1.19606
1.19596
1.19588
1.19582
1.19572
1.19559
1.19548
1.1954
1.19533
1.19523
1.19507
1.19483
1.19456
1.1944
1.19432
1.19425
1.19415
1.19397
1.19369
1.19335
1.19319
1.19313
1.19305
1.19292
1.19272
1.19259
1.19252
1.19247
1.19243
1.19242
1.19242
1.19244
1.19254
1.19271
1.19286
1.19298
1.19316
1.19346
1.19383
1.19394
1.19384
1.19378
1.19378
1.19388
1.19421
1.19462
1.195
1.19556
1.19606
1.19644
1.19711
1.19864
1.20214
1.20791
1.21617
1.22677
1.24005
1.25509
1.26795
1.27536
1.28479
1.28676
1.28792
1.29107
1.29392
1.29719
1.29797
1.29888
1.29944
1.30012
1.3004
1.30124
1.30186
1.30245
1.30458
1.30878
1.31577
1.32837
1.3476
1.36952
1.38667
1.40084
1.41138
1.41876
1.42128
1.42132
1.42147
1.42234
1.42445
1.42838
1.43656
1.45541
1.19815
1.19802
1.19772
1.1976
1.19758
1.19758
1.1976
1.19765
1.19764
1.1976
1.19759
1.19754
1.19734
1.1971
1.19696
1.19685
1.19671
1.19651
1.19633
1.1962
1.19608
1.19596
1.19584
1.19569
1.1955
1.19524
1.19496
1.1947
1.19447
1.19424
1.194
1.19376
1.1935
1.19318
1.19297
1.19286
1.19278
1.1927
1.19265
1.19264
1.19267
1.19279
1.1929
1.193
1.19317
1.19351
1.19393
1.19417
1.19411
1.19402
1.194
1.19401
1.1941
1.19429
1.19452
1.1948
1.19499
1.19525
1.1958
1.19631
1.19647
1.19713
1.19895
1.20295
1.20893
1.22039
1.23376
1.24851
1.26319
1.27403
1.28234
1.28963
1.29259
1.29594
1.29628
1.29677
1.29796
1.29958
1.3011
1.30207
1.30226
1.3026
1.30434
1.30906
1.31665
1.32923
1.34786
1.36948
1.38858
1.40282
1.41219
1.41855
1.42042
1.42109
1.4217
1.42288
1.42517
1.42948
1.43852
1.45722
1.19844
1.19815
1.19803
1.19802
1.19803
1.19803
1.19803
1.19804
1.19804
1.19806
1.19805
1.19795
1.19767
1.19755
1.19748
1.19734
1.19712
1.19682
1.19668
1.1966
1.19648
1.19634
1.1962
1.19605
1.19587
1.19564
1.1954
1.19522
1.19504
1.19484
1.19461
1.19434
1.19398
1.19353
1.19323
1.1931
1.19299
1.1929
1.19283
1.1928
1.1928
1.19288
1.19298
1.19308
1.19324
1.19357
1.19398
1.19424
1.19438
1.19437
1.19429
1.19424
1.19423
1.19425
1.19426
1.19426
1.19433
1.19471
1.19539
1.19597
1.19649
1.19632
1.19625
1.19644
1.1975
1.20075
1.20651
1.21767
1.23048
1.24581
1.2603
1.27139
1.27962
1.28735
1.29075
1.29452
1.29865
1.30145
1.30173
1.30197
1.3021
1.30255
1.30505
1.31031
1.31763
1.32989
1.34828
1.36988
1.38932
1.4029
1.41336
1.419
1.42067
1.42122
1.42241
1.4242
1.42694
1.43179
1.44164
1.45948
1.19808
1.19805
1.19804
1.19804
1.19804
1.19807
1.1981
1.19807
1.19805
1.19805
1.198
1.19778
1.19766
1.19764
1.19758
1.19737
1.19697
1.19683
1.1968
1.19672
1.19656
1.19635
1.19618
1.19605
1.1959
1.19571
1.1955
1.19529
1.19512
1.19495
1.19478
1.19459
1.19429
1.19378
1.19331
1.19317
1.19304
1.19292
1.19284
1.19279
1.19276
1.19276
1.19276
1.19283
1.19306
1.19339
1.1937
1.19405
1.19453
1.19478
1.19458
1.19404
1.19361
1.19342
1.19332
1.19327
1.19349
1.19413
1.19494
1.19571
1.19634
1.19682
1.19706
1.19724
1.19743
1.19816
1.19987
1.20356
1.20935
1.21878
1.23095
1.24462
1.26084
1.27308
1.28471
1.29308
1.29722
1.30056
1.29996
1.29985
1.30079
1.30253
1.30614
1.31136
1.31841
1.3304
1.34929
1.37087
1.38972
1.40258
1.41455
1.42065
1.4222
1.42242
1.4234
1.42534
1.42842
1.43385
1.44444
1.46154
1.19755
1.19756
1.19756
1.19757
1.19763
1.19765
1.19759
1.19753
1.19752
1.19751
1.19741
1.19734
1.19734
1.19739
1.19733
1.197
1.19686
1.19687
1.19686
1.19672
1.19647
1.19628
1.19616
1.19607
1.19598
1.19586
1.19567
1.19535
1.19499
1.19477
1.19462
1.19447
1.19432
1.19412
1.19386
1.1934
1.19274
1.19232
1.1922
1.19212
1.19204
1.192
1.19201
1.19216
1.19246
1.19282
1.1933
1.19387
1.19451
1.19489
1.19485
1.19471
1.1945
1.19421
1.19398
1.19388
1.19381
1.19398
1.19466
1.19562
1.19662
1.19752
1.1982
1.19861
1.19891
1.19945
1.20062
1.20269
1.20518
1.20859
1.21329
1.22092
1.23293
1.24652
1.26208
1.2744
1.28254
1.29064
1.29293
1.29685
1.30138
1.30346
1.30641
1.31159
1.3194
1.33174
1.3506
1.37163
1.38949
1.40238
1.41425
1.4224
1.42358
1.42351
1.42403
1.42586
1.42926
1.43537
1.44679
1.46333
1.19809
1.1981
1.19807
1.19805
1.19804
1.1981
1.19811
1.19805
1.19799
1.19797
1.19795
1.19787
1.19768
1.19737
1.19682
1.19643
1.19641
1.19642
1.19638
1.19625
1.19609
1.19587
1.19569
1.19563
1.19561
1.19555
1.19546
1.1954
1.19538
1.1953
1.19519
1.19505
1.19486
1.19464
1.19444
1.19423
1.19393
1.19347
1.19313
1.19298
1.19288
1.19281
1.19276
1.19277
1.19288
1.19309
1.19334
1.19373
1.19424
1.19479
1.19527
1.19545
1.19536
1.1951
1.19482
1.1947
1.19463
1.19463
1.19499
1.19588
1.19709
1.19844
1.19974
1.20075
1.20133
1.20177
1.20254
1.20387
1.20568
1.20749
1.20907
1.21121
1.21505
1.2226
1.23371
1.24782
1.26199
1.27582
1.28601
1.29445
1.30036
1.3027
1.30513
1.31059
1.31945
1.33289
1.35095
1.37067
1.38932
1.40272
1.41466
1.42232
1.42287
1.42303
1.42396
1.42625
1.43033
1.43738
1.44966
1.4651
1.19883
1.19881
1.19874
1.19853
1.19844
1.19842
1.19843
1.19842
1.1984
1.1984
1.19837
1.19825
1.1979
1.19727
1.197
1.19698
1.19696
1.19692
1.19686
1.19678
1.19668
1.19659
1.19648
1.19628
1.19607
1.19599
1.19596
1.19593
1.19585
1.19573
1.19557
1.19547
1.19538
1.19526
1.19513
1.19501
1.19485
1.19459
1.1943
1.19408
1.19392
1.19383
1.19376
1.19369
1.19364
1.19361
1.19366
1.19395
1.19449
1.19515
1.19584
1.19651
1.19691
1.19689
1.19676
1.19672
1.19672
1.19677
1.197
1.1976
1.19865
1.20002
1.20151
1.20287
1.20368
1.2041
1.2045
1.20517
1.20609
1.20729
1.20829
1.20887
1.20947
1.21102
1.21466
1.22189
1.23306
1.24577
1.26111
1.27313
1.28539
1.29337
1.30106
1.31048
1.32118
1.33344
1.34942
1.36995
1.38954
1.40407
1.41658
1.42174
1.42188
1.42243
1.424
1.42705
1.43205
1.44011
1.45307
1.46663
1.19996
1.19991
1.19979
1.19943
1.19917
1.19915
1.19913
1.19912
1.19913
1.19915
1.19912
1.19899
1.19857
1.19791
1.19778
1.19777
1.19773
1.19759
1.19754
1.19753
1.19747
1.19729
1.19722
1.1972
1.1971
1.19688
1.19676
1.19672
1.19672
1.19663
1.19642
1.19632
1.19629
1.19622
1.19615
1.1961
1.19604
1.19594
1.19581
1.19564
1.1954
1.19528
1.19523
1.19515
1.19499
1.19484
1.19479
1.19493
1.19541
1.19613
1.19696
1.19786
1.1986
1.19901
1.19921
1.19935
1.19945
1.19946
1.19939
1.19942
1.19984
1.20079
1.20194
1.20307
1.20399
1.20461
1.20504
1.20549
1.20618
1.20688
1.20764
1.20809
1.20813
1.20827
1.209
1.21109
1.21543
1.22209
1.23384
1.24798
1.26369
1.28237
1.29696
1.30861
1.31994
1.33003
1.34634
1.37062
1.38948
1.40495
1.4179
1.42077
1.42113
1.42196
1.42414
1.42801
1.43398
1.44292
1.456
1.46763
1.20062
1.20051
1.20042
1.20019
1.19972
1.19961
1.1996
1.19953
1.19952
1.19954
1.19953
1.19943
1.19916
1.19854
1.1982
1.1982
1.19819
1.1981
1.19803
1.19802
1.19797
1.19777
1.19766
1.19765
1.1976
1.19736
1.19717
1.19709
1.19709
1.19708
1.19689
1.19664
1.19654
1.19652
1.19652
1.19654
1.19655
1.19655
1.1966
1.19661
1.1965
1.19634
1.19626
1.19625
1.19627
1.19611
1.1959
1.19587
1.19603
1.19655
1.19733
1.19816
1.19892
1.19956
1.20001
1.20026
1.20045
1.20069
1.20057
1.20038
1.20038
1.20089
1.20193
1.203
1.20383
1.20448
1.20502
1.2053
1.20559
1.20605
1.20665
1.20728
1.20794
1.20862
1.20939
1.21052
1.21242
1.21489
1.21951
1.22715
1.2397
1.25895
1.27536
1.29219
1.30939
1.32427
1.34477
1.37332
1.38954
1.40177
1.41601
1.41997
1.42049
1.4216
1.42434
1.4287
1.43532
1.44496
1.45809
1.46835
1.20077
1.20062
1.20046
1.20034
1.20017
1.1999
1.19976
1.19966
1.19961
1.19962
1.1996
1.19949
1.19926
1.19876
1.19834
1.19829
1.19831
1.19829
1.19822
1.19817
1.19809
1.19792
1.19782
1.19781
1.19776
1.1975
1.19722
1.19712
1.19712
1.19709
1.19687
1.19661
1.1965
1.19648
1.19648
1.19651
1.19655
1.19658
1.19661
1.19668
1.1968
1.19679
1.19671
1.19667
1.19672
1.19681
1.1967
1.19662
1.19665
1.19691
1.19744
1.19814
1.19891
1.19957
1.20003
1.20027
1.20044
1.20068
1.20096
1.20084
1.2007
1.2008
1.20142
1.2023
1.20304
1.20369
1.20438
1.20522
1.2053
1.2054
1.20581
1.20674
1.20792
1.20905
1.2101
1.21134
1.21312
1.21518
1.21749
1.22044
1.22601
1.23599
1.25157
1.27062
1.29407
1.31678
1.34235
1.37038
1.38514
1.399
1.41347
1.41938
1.4199
1.42099
1.42402
1.42892
1.43634
1.44677
1.46012
1.46914
1.20054
1.20038
1.20021
1.20009
1.19996
1.1997
1.19948
1.19944
1.19948
1.19953
1.19953
1.19938
1.19911
1.19872
1.1984
1.19835
1.19835
1.19835
1.19831
1.19821
1.198
1.19777
1.19772
1.19771
1.19765
1.1973
1.19679
1.19665
1.19666
1.19663
1.19646
1.19632
1.19628
1.19628
1.19632
1.19637
1.19638
1.19641
1.19647
1.19658
1.1967
1.19673
1.19671
1.1967
1.19677
1.1969
1.19692
1.19697
1.197
1.19701
1.19718
1.19768
1.19835
1.19904
1.19959
1.19988
1.2
1.20022
1.20076
1.2011
1.20102
1.20108
1.20158
1.20223
1.20277
1.20336
1.2041
1.2051
1.20599
1.20632
1.20661
1.20724
1.20837
1.20983
1.21132
1.21277
1.21436
1.21598
1.21755
1.21909
1.22096
1.22438
1.23239
1.24566
1.26579
1.29262
1.32202
1.35195
1.37872
1.39795
1.41287
1.41922
1.41956
1.42072
1.42405
1.42957
1.43788
1.44904
1.46262
1.47017
1.19928
1.19919
1.19911
1.19903
1.19895
1.19893
1.19892
1.19891
1.19892
1.19892
1.1989
1.19883
1.1987
1.19848
1.19824
1.1982
1.1982
1.19817
1.19807
1.19801
1.19799
1.19795
1.19789
1.19787
1.19776
1.19732
1.19697
1.19692
1.19692
1.19672
1.19645
1.19636
1.19637
1.19637
1.19624
1.19621
1.19623
1.19625
1.19629
1.19636
1.19638
1.19636
1.19634
1.19631
1.19633
1.19647
1.19668
1.19704
1.19747
1.19755
1.19755
1.19755
1.19782
1.19848
1.19921
1.19967
1.19994
1.20024
1.20092
1.20158
1.20164
1.20178
1.20233
1.20295
1.20335
1.20381
1.2045
1.20555
1.2068
1.20753
1.20784
1.20825
1.20911
1.21038
1.21186
1.21337
1.21474
1.21601
1.21726
1.21844
1.22002
1.22219
1.22589
1.23282
1.24488
1.26693
1.29585
1.33194
1.37211
1.39378
1.41067
1.41549
1.41705
1.42053
1.4255
1.43191
1.44045
1.45181
1.46538
1.47117
1.19798
1.19799
1.19798
1.19796
1.19792
1.19788
1.19789
1.19791
1.19791
1.19789
1.19787
1.19785
1.19778
1.1977
1.19768
1.19769
1.19775
1.19777
1.19775
1.19774
1.19773
1.19772
1.19769
1.1976
1.19738
1.19684
1.19648
1.19642
1.19631
1.19598
1.19571
1.19565
1.19571
1.1958
1.19567
1.1956
1.19561
1.1957
1.19582
1.1959
1.19582
1.19569
1.19564
1.19557
1.19556
1.19572
1.19614
1.19669
1.19733
1.19756
1.19763
1.19773
1.19797
1.19847
1.19911
1.19966
1.20008
1.20052
1.20123
1.20193
1.20229
1.20286
1.20368
1.20426
1.20459
1.20491
1.20544
1.2063
1.20746
1.20842
1.20887
1.20901
1.20937
1.21026
1.21168
1.2132
1.21461
1.21572
1.21662
1.21766
1.21924
1.22193
1.22597
1.23105
1.23816
1.25018
1.27129
1.30555
1.3469
1.37119
1.39459
1.40924
1.41618
1.42256
1.42845
1.43475
1.44302
1.45498
1.46784
1.47186
1.1981
1.19794
1.19779
1.19765
1.1975
1.19745
1.19746
1.19746
1.19743
1.19733
1.19713
1.19706
1.19703
1.19699
1.197
1.19706
1.19711
1.19715
1.19719
1.19722
1.19727
1.19731
1.19735
1.19744
1.19744
1.1972
1.1968
1.19668
1.19656
1.19623
1.19596
1.19591
1.19595
1.19586
1.19571
1.19572
1.19564
1.19554
1.19555
1.19564
1.19559
1.19544
1.19516
1.19498
1.19495
1.19503
1.19535
1.1959
1.19685
1.19766
1.19794
1.19813
1.19841
1.19887
1.19944
1.20006
1.20061
1.20096
1.20139
1.20197
1.20264
1.20365
1.20452
1.20513
1.2055
1.20575
1.20603
1.20655
1.20743
1.20836
1.209
1.2093
1.20947
1.2099
1.21102
1.21264
1.2142
1.2153
1.21595
1.217
1.21909
1.22211
1.22634
1.23167
1.23703
1.24491
1.25864
1.28343
1.31487
1.34789
1.37687
1.40189
1.41412
1.42223
1.43022
1.4372
1.44623
1.45885
1.46977
1.47208
1.19806
1.19783
1.19751
1.19726
1.19711
1.19703
1.19698
1.19691
1.19679
1.19657
1.19626
1.19594
1.19572
1.19555
1.19533
1.19517
1.19512
1.19511
1.19512
1.19515
1.19533
1.19575
1.19622
1.19663
1.1968
1.19668
1.19641
1.19626
1.19612
1.19584
1.19566
1.19562
1.1955
1.19521
1.19511
1.1952
1.19528
1.19512
1.19502
1.19511
1.19545
1.19559
1.19542
1.1949
1.19468
1.19467
1.1948
1.19528
1.19633
1.19782
1.19858
1.19883
1.19909
1.19941
1.1998
1.20044
1.20118
1.20163
1.20179
1.20204
1.20271
1.20374
1.2045
1.20506
1.20553
1.20591
1.20621
1.20652
1.2071
1.20794
1.20884
1.20957
1.21002
1.21044
1.21101
1.21197
1.21335
1.2149
1.21627
1.21764
1.21971
1.22304
1.22726
1.23218
1.23686
1.24319
1.25442
1.27292
1.29602
1.32268
1.3474
1.37433
1.39849
1.41569
1.42738
1.43892
1.45143
1.46361
1.47134
1.47271
1.19479
1.19454
1.19441
1.19437
1.19441
1.19456
1.19464
1.1946
1.1944
1.19396
1.19333
1.19287
1.1926
1.19242
1.19236
1.19236
1.19235
1.19228
1.1923
1.1925
1.1931
1.19414
1.19473
1.19489
1.19497
1.19508
1.19513
1.19506
1.1949
1.19475
1.19461
1.19432
1.19406
1.19398
1.19398
1.19407
1.19418
1.19436
1.19474
1.19523
1.1956
1.19596
1.19603
1.19571
1.19542
1.1954
1.19547
1.19589
1.19692
1.19839
1.1994
1.19968
1.19966
1.19966
1.19981
1.20036
1.2012
1.20206
1.20232
1.20239
1.20273
1.20355
1.20424
1.20478
1.20529
1.2058
1.20628
1.20675
1.20732
1.2081
1.209
1.2098
1.21046
1.2111
1.21184
1.21266
1.21361
1.21486
1.21634
1.21804
1.22037
1.22377
1.22788
1.23224
1.23661
1.24206
1.25185
1.26928
1.2908
1.30946
1.32716
1.3501
1.37844
1.40457
1.42159
1.43985
1.45437
1.46476
1.47271
1.47388
1.19053
1.19053
1.19058
1.19073
1.19085
1.19091
1.19096
1.1911
1.19131
1.1912
1.19054
1.18969
1.18954
1.18952
1.18952
1.18953
1.18952
1.18955
1.18972
1.19014
1.19098
1.1921
1.19275
1.19292
1.19303
1.19318
1.19316
1.19299
1.19295
1.19295
1.19281
1.19229
1.19191
1.19186
1.19185
1.19193
1.19226
1.19295
1.19385
1.19455
1.19495
1.19538
1.19556
1.19525
1.19502
1.19501
1.19514
1.19566
1.19672
1.19806
1.1991
1.19954
1.19939
1.19928
1.19936
1.19979
1.20069
1.20169
1.2021
1.20228
1.20253
1.20294
1.20349
1.20413
1.20487
1.2056
1.20617
1.2069
1.20795
1.20897
1.20969
1.21024
1.21077
1.21139
1.21221
1.21306
1.21388
1.21495
1.21642
1.21817
1.22044
1.2237
1.22778
1.23199
1.23596
1.24089
1.24953
1.26629
1.28825
1.30623
1.31903
1.33206
1.35339
1.38113
1.41102
1.43631
1.45344
1.46594
1.47431
1.47488
1.19425
1.19417
1.19411
1.19411
1.19408
1.194
1.19402
1.19436
1.19489
1.19495
1.19448
1.19309
1.19211
1.19202
1.19199
1.19195
1.19197
1.19203
1.19206
1.19225
1.19286
1.19374
1.19412
1.1941
1.19407
1.19413
1.19406
1.19381
1.19379
1.19381
1.19371
1.19335
1.19263
1.19158
1.19124
1.19118
1.19125
1.1914
1.19134
1.19128
1.19139
1.19177
1.19217
1.19245
1.19265
1.19287
1.1932
1.19383
1.19483
1.19603
1.1972
1.19754
1.19744
1.19744
1.19763
1.19794
1.19843
1.19936
1.20063
1.20169
1.20251
1.20329
1.20398
1.20461
1.20514
1.20555
1.20596
1.20675
1.20822
1.20958
1.21027
1.21062
1.21095
1.21155
1.2125
1.21353
1.21437
1.21521
1.21642
1.21801
1.2202
1.22341
1.22751
1.23155
1.23528
1.2397
1.24759
1.26305
1.28534
1.30436
1.31761
1.32689
1.33859
1.35762
1.38577
1.41515
1.44371
1.46493
1.47355
1.47388
1.19845
1.19816
1.19706
1.19642
1.19637
1.19636
1.19648
1.19654
1.19627
1.19552
1.19371
1.19095
1.19037
1.19027
1.19002
1.18951
1.18932
1.1893
1.1893
1.18946
1.18975
1.18999
1.19011
1.19018
1.1905
1.19102
1.19109
1.19127
1.19176
1.19197
1.19192
1.19171
1.19133
1.19065
1.18998
1.18979
1.1897
1.18973
1.18993
1.18972
1.18878
1.18814
1.18809
1.18814
1.18841
1.18897
1.18967
1.19056
1.19186
1.19308
1.1939
1.19436
1.19486
1.19562
1.19586
1.19581
1.19585
1.19649
1.19805
1.20005
1.20164
1.20269
1.20363
1.20445
1.20485
1.20498
1.20521
1.20604
1.20764
1.20908
1.20986
1.21037
1.21083
1.21157
1.2128
1.21424
1.21532
1.21603
1.21683
1.21805
1.22002
1.22316
1.22735
1.23135
1.23474
1.23868
1.24574
1.25997
1.28195
1.30232
1.31706
1.32717
1.33496
1.34443
1.36273
1.39075
1.42217
1.4494
1.46279
1.47011
1.20284
1.20199
1.20086
1.19992
1.19919
1.19913
1.1994
1.19932
1.1986
1.19623
1.19347
1.1923
1.1916
1.19034
1.18915
1.18892
1.18888
1.18895
1.18938
1.19006
1.19054
1.19081
1.19104
1.19137
1.1921
1.19272
1.19322
1.19364
1.19392
1.1941
1.19399
1.19368
1.19337
1.19305
1.19284
1.19272
1.19281
1.19349
1.19442
1.19417
1.19316
1.19164
1.19012
1.18988
1.19009
1.19022
1.19034
1.19086
1.19229
1.19372
1.19454
1.19543
1.19694
1.1982
1.19827
1.19786
1.19705
1.19635
1.19644
1.19727
1.19861
1.19994
1.20122
1.20247
1.20286
1.20283
1.20292
1.20364
1.20541
1.20746
1.20883
1.20978
1.21065
1.21166
1.21293
1.21436
1.21576
1.21679
1.21757
1.21875
1.22068
1.22359
1.22764
1.23161
1.23463
1.238
1.24408
1.25687
1.27807
1.3002
1.31658
1.32747
1.33586
1.34326
1.35219
1.3686
1.39307
1.42061
1.44546
1.46531
1.2362
1.23559
1.2337
1.2317
1.23113
1.23063
1.22976
1.22826
1.22592
1.22339
1.22145
1.21933
1.21715
1.21619
1.21537
1.21358
1.21294
1.21294
1.21278
1.21256
1.21267
1.21279
1.21244
1.21257
1.21339
1.21333
1.21166
1.20989
1.20978
1.21
1.21002
1.20939
1.20729
1.20562
1.20535
1.2054
1.20608
1.20706
1.20709
1.20655
1.20578
1.2046
1.20302
1.20251
1.20187
1.19963
1.19699
1.19674
1.197
1.19713
1.19698
1.19733
1.19868
1.19988
1.19973
1.19879
1.19781
1.19777
1.19791
1.19797
1.19795
1.19818
1.19845
1.19891
1.19967
1.20034
1.20093
1.20176
1.20321
1.20516
1.20691
1.20844
1.21011
1.21144
1.21267
1.21406
1.21545
1.21666
1.21781
1.21924
1.22148
1.22482
1.22901
1.23266
1.23517
1.23795
1.24299
1.254
1.27385
1.29727
1.31544
1.3281
1.33716
1.34521
1.35357
1.36288
1.37524
1.39323
1.41553
1.44371
1.26217
1.26325
1.26421
1.26408
1.26313
1.26167
1.26029
1.25711
1.25525
1.25486
1.25335
1.25282
1.25304
1.25247
1.25176
1.25177
1.25218
1.25262
1.2522
1.25072
1.25016
1.25112
1.25265
1.25226
1.24975
1.24516
1.24137
1.2398
1.23877
1.23746
1.23552
1.23101
1.22341
1.22067
1.21969
1.21778
1.21755
1.2177
1.21579
1.21098
1.20949
1.21009
1.21317
1.21534
1.21526
1.21413
1.2106
1.20722
1.20723
1.20742
1.2062
1.20216
1.20006
1.19969
1.19966
1.19943
1.19964
1.20121
1.20229
1.20173
1.20041
1.19992
1.19979
1.1998
1.20066
1.20259
1.20406
1.20483
1.20559
1.20651
1.20735
1.2083
1.20966
1.21104
1.21193
1.21272
1.21391
1.21543
1.21703
1.21887
1.22148
1.22546
1.23028
1.23375
1.23575
1.23791
1.24195
1.2512
1.26905
1.29265
1.31377
1.3287
1.33941
1.34841
1.35673
1.36479
1.37342
1.38208
1.3934
1.41845
1.32426
1.32212
1.32006
1.31825
1.31733
1.31727
1.31748
1.31635
1.31304
1.31133
1.30991
1.30827
1.3071
1.30503
1.3015
1.29884
1.29875
1.29912
1.29852
1.29633
1.29188
1.28908
1.28886
1.28886
1.28751
1.28285
1.28091
1.2825
1.28413
1.284
1.284
1.28351
1.27861
1.2733
1.27179
1.27053
1.2687
1.26559
1.26083
1.25493
1.24699
1.23962
1.23841
1.23819
1.237
1.23737
1.23708
1.23455
1.23464
1.23508
1.23375
1.22942
1.2239
1.21756
1.21195
1.21041
1.21048
1.21215
1.21354
1.21292
1.21104
1.20954
1.20826
1.20711
1.2069
1.207
1.2068
1.20612
1.20573
1.20599
1.20626
1.20665
1.20776
1.2095
1.21101
1.21221
1.21356
1.21526
1.21711
1.21911
1.22209
1.22663
1.23128
1.23406
1.23534
1.23692
1.24033
1.24835
1.26449
1.28805
1.31172
1.32952
1.34181
1.35164
1.36015
1.36746
1.37435
1.38172
1.38794
1.40197
1.39034
1.39026
1.38932
1.38678
1.38537
1.38486
1.38278
1.38014
1.37973
1.37874
1.37682
1.3763
1.37669
1.377
1.37475
1.36991
1.36906
1.36847
1.36485
1.3617
1.36057
1.35889
1.3539
1.34916
1.34839
1.34644
1.34131
1.33758
1.336
1.33305
1.33003
1.3283
1.32534
1.31933
1.31756
1.31747
1.31678
1.31451
1.30893
1.30608
1.30315
1.29713
1.29315
1.29174
1.28986
1.28658
1.28221
1.27531
1.2641
1.25609
1.25493
1.25525
1.25418
1.24968
1.24564
1.2449
1.24302
1.23539
1.22808
1.22401
1.22078
1.22014
1.21996
1.21866
1.21408
1.2095
1.20868
1.20885
1.20872
1.20826
1.20823
1.20855
1.20949
1.21108
1.21285
1.21434
1.21577
1.21717
1.21877
1.22127
1.22466
1.22857
1.23218
1.23385
1.23461
1.23583
1.23897
1.24618
1.26082
1.28349
1.30911
1.33037
1.34444
1.35428
1.36245
1.3707
1.37784
1.38326
1.3878
1.39648
1.46001
1.45973
1.45928
1.45733
1.45359
1.45236
1.45243
1.45277
1.452
1.44913
1.44736
1.44509
1.44221
1.44198
1.4417
1.43998
1.43689
1.4314
1.4283
1.42846
1.42833
1.42672
1.42226
1.41634
1.41507
1.41541
1.41492
1.41203
1.40759
1.40374
1.401
1.39867
1.3959
1.39155
1.38645
1.38198
1.3785
1.3755
1.37123
1.3664
1.36033
1.35057
1.34708
1.34719
1.34607
1.34276
1.33841
1.33349
1.32777
1.321
1.31512
1.30875
1.29912
1.28933
1.28661
1.28681
1.28596
1.28049
1.2736
1.26797
1.25902
1.25294
1.25188
1.25045
1.24726
1.23995
1.23451
1.23318
1.232
1.23056
1.22723
1.22364
1.22236
1.22163
1.22114
1.22123
1.22153
1.22184
1.22253
1.22406
1.22635
1.22882
1.23157
1.23349
1.23447
1.23585
1.23871
1.24464
1.25706
1.27764
1.30431
1.32897
1.34627
1.35658
1.36485
1.37368
1.38188
1.38793
1.39063
1.39635
1.53658
1.53437
1.53099
1.52919
1.52896
1.52981
1.53061
1.52998
1.52733
1.52432
1.52104
1.51814
1.51779
1.51781
1.51718
1.514
1.5095
1.50857
1.50795
1.50637
1.50165
1.49715
1.4963
1.49526
1.49261
1.48797
1.48422
1.48185
1.47835
1.47245
1.4699
1.46864
1.46665
1.46298
1.45829
1.45342
1.44891
1.445
1.44158
1.43702
1.43179
1.42604
1.42025
1.41527
1.41069
1.40534
1.3992
1.39189
1.38546
1.38055
1.37612
1.37142
1.3647
1.35688
1.35134
1.347
1.33939
1.32456
1.31907
1.31704
1.31139
1.30616
1.30127
1.29023
1.28083
1.2743
1.27022
1.26724
1.26041
1.25326
1.24809
1.2435
1.23933
1.23302
1.22754
1.22694
1.22558
1.22492
1.22514
1.22621
1.22797
1.23016
1.23311
1.23494
1.23627
1.23836
1.24137
1.24615
1.25498
1.27145
1.29652
1.3249
1.34581
1.3597
1.36949
1.37782
1.38454
1.39051
1.395
1.39945
1.61449
1.61112
1.61049
1.61112
1.61174
1.61158
1.61034
1.60845
1.60629
1.60154
1.59892
1.59898
1.59873
1.59764
1.59352
1.59032
1.58891
1.58778