/*--------------------------------*- C++ -*----------------------------------*\
  =========                 |
  \\      /  F ield         | OpenFOAM: The Open Source CFD Toolbox
   \\    /   O peration     | Website:  https://openfoam.org
    \\  /    A nd           | Version:  7
     \\/     M anipulation  |
\*---------------------------------------------------------------------------*/
FoamFile
{
    version     2.0;
    format      ascii;
    class       volScalarField;
    location    "1.5";
    object      T;
}
// * * * * * * * * * * * * * * * * * * * * * * * * * * * * * * * * * * * * * //

dimensions      [0 0 0 1 0 0 0];

internalField   nonuniform List<scalar> 
90000
(
0.988893
0.990493
0.992664
0.994918
0.997505
1.00001
1.00263
1.00525
1.0079
1.01009
1.01225
1.01408
1.01587
1.01732
1.01877
1.02
1.02131
1.02238
1.02349
1.02437
1.0253
1.02605
1.02681
1.02748
1.02839
1.0294
1.03069
1.03199
1.03351
1.03501
1.03658
1.03819
1.0397
1.04116
1.04253
1.04386
1.04488
1.04585
1.0465
1.04717
1.0471
1.04667
1.04539
1.0426
1.0396
1.03736
1.03551
1.0357
1.03633
1.03726
1.03836
1.03924
1.03974
1.04007
1.04032
1.04027
1.04007
1.03921
1.03809
1.03669
1.03613
1.03633
1.03697
1.03832
1.03935
1.04041
1.04108
1.04071
1.03985
1.03842
1.0375
1.03774
1.03854
1.04021
1.041
1.04088
1.04021
1.03949
1.03941
1.03959
1.03993
1.04057
1.04156
1.04269
1.04471
1.04785
1.05296
1.05937
1.06445
1.07069
1.0736
1.07454
1.07443
1.07429
1.07372
1.07324
1.07264
1.07149
1.06889
1.06349
0.986978
0.987038
0.987144
0.987304
0.987524
0.987818
0.988234
0.98871
0.989273
0.989962
0.990895
0.992121
0.993492
0.9949
0.996307
0.997779
0.999291
1.00086
1.00239
1.00392
1.0054
1.00689
1.00832
1.0097
1.01089
1.01204
1.01315
1.0143
1.01543
1.01665
1.01791
1.01922
1.02063
1.02207
1.0236
1.02515
1.02672
1.02834
1.02983
1.03161
1.03308
1.03443
1.03563
1.03659
1.03657
1.03607
1.03473
1.03291
1.03109
1.02961
1.02837
1.02859
1.02887
1.0295
1.0305
1.03182
1.03315
1.03454
1.03465
1.03418
1.03287
1.03142
1.03057
1.03034
1.03113
1.03255
1.03432
1.03629
1.03655
1.03581
1.03425
1.033
1.03335
1.03422
1.03583
1.03678
1.03678
1.03667
1.03666
1.03672
1.03662
1.03693
1.03749
1.0386
1.04099
1.04463
1.05029
1.05634
1.0607
1.06576
1.06949
1.07113
1.07177
1.07232
1.07211
1.0718
1.07138
1.0702
1.06736
1.05992
0.985394
0.985389
0.985379
0.985366
0.985349
0.985333
0.985336
0.985349
0.985362
0.985379
0.985414
0.985485
0.985592
0.985751
0.985975
0.986286
0.98668
0.987188
0.987773
0.988459
0.989199
0.990056
0.990978
0.992021
0.993113
0.994324
0.99557
0.996929
0.998258
0.999644
1.00105
1.00247
1.00398
1.00548
1.00711
1.00871
1.01042
1.01219
1.01395
1.01578
1.01765
1.01938
1.02101
1.02247
1.02365
1.02467
1.02579
1.02684
1.02681
1.02636
1.02524
1.02406
1.02339
1.02284
1.02294
1.02334
1.02406
1.02503
1.02594
1.02675
1.02732
1.02702
1.02603
1.02486
1.02482
1.02518
1.02615
1.02766
1.02901
1.03011
1.02965
1.02834
1.02722
1.02737
1.02829
1.02946
1.03047
1.03138
1.03218
1.03238
1.03197
1.03143
1.0317
1.03272
1.03497
1.03912
1.04533
1.05156
1.05535
1.05943
1.06401
1.06548
1.06727
1.06891
1.06911
1.0691
1.06901
1.06777
1.06444
1.05479
0.983046
0.983043
0.983038
0.983034
0.983034
0.983038
0.983036
0.983038
0.983047
0.983044
0.983041
0.983049
0.983052
0.98304
0.983022
0.983024
0.983029
0.983043
0.983071
0.983115
0.983208
0.983355
0.983554
0.98382
0.984142
0.984573
0.985121
0.985842
0.986667
0.987636
0.988696
0.989935
0.991275
0.992767
0.994389
0.996037
0.997869
0.999628
1.0016
1.00348
1.00557
1.00746
1.00956
1.01132
1.0132
1.01477
1.01607
1.01722
1.01786
1.01846
1.01886
1.01925
1.01923
1.01899
1.01856
1.0181
1.01766
1.01773
1.01804
1.01867
1.01955
1.02049
1.02134
1.0213
1.02069
1.0199
1.01959
1.01996
1.02094
1.02234
1.02398
1.02407
1.02326
1.02193
1.02188
1.02239
1.02332
1.02444
1.02531
1.02573
1.02652
1.02613
1.02582
1.02663
1.02862
1.03324
1.04067
1.04596
1.04968
1.05378
1.05809
1.06063
1.06238
1.06439
1.06493
1.0653
1.0654
1.06428
1.06079
1.04942
0.980796
0.980794
0.980777
0.98078
0.9808
0.980844
0.980858
0.980861
0.980881
0.980916
0.98094
0.980957
0.980967
0.980964
0.980955
0.980957
0.980982
0.98102
0.981039
0.981054
0.981037
0.981022
0.981007
0.981008
0.981019
0.981056
0.981128
0.981244
0.981409
0.981639
0.981936
0.982341
0.982878
0.983603
0.984509
0.985582
0.986874
0.98825
0.98995
0.991692
0.993759
0.995917
0.998182
1.00065
1.003
1.00536
1.00756
1.00938
1.01064
1.01226
1.01338
1.01401
1.01432
1.01454
1.01485
1.01515
1.01516
1.01512
1.01496
1.01496
1.0151
1.01547
1.0161
1.01668
1.01722
1.01744
1.01715
1.0167
1.01675
1.01715
1.01808
1.01895
1.01978
1.01945
1.01868
1.01839
1.01849
1.01877
1.01915
1.01967
1.02057
1.02128
1.02232
1.02291
1.02436
1.02843
1.03617
1.04224
1.04599
1.05017
1.05348
1.05582
1.05851
1.06027
1.06091
1.06163
1.06185
1.06088
1.05739
1.04476
0.978969
0.978987
0.979003
0.979018
0.979036
0.979051
0.97906
0.979064
0.979074
0.979104
0.979134
0.979148
0.979172
0.979211
0.979243
0.979276
0.979327
0.979399
0.979458
0.979488
0.979511
0.979531
0.979558
0.979597
0.979644
0.979695
0.97977
0.979864
0.979989
0.980066
0.980113
0.980167
0.980258
0.980411
0.9806
0.98081
0.981104
0.981532
0.982125
0.982957
0.984038
0.985471
0.987097
0.989279
0.991433
0.9942
0.996888
0.999757
1.00255
1.0054
1.00726
1.00942
1.01057
1.01167
1.01227
1.01267
1.01277
1.01289
1.01284
1.01287
1.01306
1.01321
1.01345
1.01385
1.01443
1.01485
1.01516
1.01529
1.0152
1.01501
1.01517
1.01561
1.01649
1.01695
1.01714
1.01695
1.01669
1.0163
1.01637
1.01661
1.01701
1.01797
1.01951
1.02106
1.02267
1.02609
1.03268
1.03937
1.04514
1.04871
1.05109
1.05271
1.05487
1.05675
1.05775
1.05878
1.05894
1.05805
1.05455
1.04136
0.977986
0.978009
0.97803
0.978049
0.978075
0.978108
0.978111
0.978099
0.978109
0.978134
0.978164
0.978182
0.978208
0.978257
0.978318
0.978367
0.978417
0.978493
0.978585
0.978632
0.97865
0.978674
0.978718
0.978778
0.978854
0.978936
0.979015
0.979113
0.979235
0.979358
0.979437
0.979499
0.979577
0.979693
0.979835
0.979977
0.980043
0.98009
0.980151
0.980254
0.980403
0.980692
0.981142
0.981843
0.982844
0.984247
0.986076
0.988342
0.991181
0.99408
0.997579
1.00096
1.00384
1.00676
1.00828
1.00982
1.01073
1.01142
1.01159
1.01182
1.01201
1.0121
1.01231
1.01276
1.01314
1.01349
1.01378
1.01397
1.01414
1.01427
1.01432
1.01451
1.01487
1.01536
1.01574
1.01579
1.0158
1.01585
1.01584
1.01594
1.01602
1.01663
1.0179
1.01948
1.02184
1.02542
1.03108
1.03749
1.04363
1.04875
1.05024
1.0515
1.05287
1.0545
1.05618
1.05769
1.05781
1.05682
1.05313
1.03962
0.977529
0.977569
0.977606
0.977637
0.977655
0.977677
0.977713
0.977713
0.977709
0.977724
0.977749
0.977768
0.977806
0.97786
0.977933
0.978003
0.978063
0.978136
0.978212
0.978259
0.978291
0.978322
0.978354
0.978418
0.978517
0.978633
0.978731
0.978818
0.978933
0.979064
0.979186
0.979262
0.979336
0.979436
0.979558
0.979666
0.979733
0.979778
0.979824
0.979882
0.979967
0.980016
0.980073
0.980156
0.980287
0.980468
0.980855
0.981489
0.982597
0.984128
0.986576
0.989285
0.992955
0.996697
1.0003
1.00385
1.0064
1.00835
1.00966
1.01097
1.01109
1.01116
1.01164
1.01243
1.01293
1.01305
1.01313
1.01327
1.01346
1.01365
1.0139
1.01426
1.01459
1.01492
1.01505
1.01507
1.01512
1.01538
1.01592
1.01633
1.01631
1.01646
1.01724
1.01859
1.0211
1.02514
1.03061
1.03655
1.04233
1.04778
1.05047
1.05161
1.05243
1.05359
1.05565
1.05755
1.05771
1.05661
1.0528
1.03882
0.977378
0.977409
0.977439
0.977467
0.977491
0.977513
0.977542
0.977569
0.977573
0.97757
0.977586
0.977623
0.977671
0.977724
0.977795
0.977872
0.977934
0.978009
0.978086
0.978138
0.978174
0.978194
0.978223
0.978287
0.978385
0.978505
0.978619
0.978713
0.978821
0.978941
0.97905
0.979145
0.979262
0.97938
0.979477
0.979571
0.979633
0.979665
0.979692
0.979725
0.979765
0.979814
0.979873
0.979949
0.980034
0.980137
0.980212
0.980311
0.980486
0.980762
0.981306
0.982239
0.983916
0.986107
0.989457
0.993016
0.996949
1.00071
1.00393
1.00659
1.00829
1.00991
1.01106
1.01192
1.01259
1.01287
1.01323
1.01324
1.01311
1.01318
1.01358
1.01422
1.01438
1.01457
1.01462
1.01467
1.01485
1.01518
1.01575
1.01611
1.01627
1.0165
1.01714
1.01835
1.02057
1.02482
1.03043
1.03622
1.04157
1.04655
1.05131
1.05221
1.05271
1.05365
1.05528
1.05685
1.05702
1.05592
1.05193
1.03771
0.977404
0.977428
0.977454
0.977483
0.977514
0.977553
0.977612
0.97765
0.977647
0.977643
0.977665
0.977708
0.977764
0.977814
0.977863
0.97792
0.977975
0.978024
0.978076
0.978121
0.978126
0.978132
0.978176
0.978255
0.978368
0.978512
0.978632
0.978723
0.978833
0.978957
0.979072
0.979179
0.979315
0.979472
0.979588
0.979683
0.979743
0.979774
0.979808
0.979842
0.979877
0.979915
0.979962
0.980018
0.980084
0.980154
0.980214
0.980272
0.980358
0.980495
0.980645
0.980815
0.981092
0.981609
0.982673
0.984284
0.986853
0.989985
0.993655
0.997319
1.0011
1.00491
1.00707
1.00843
1.01021
1.0117
1.01283
1.01301
1.01315
1.01335
1.01371
1.01407
1.01407
1.0142
1.01443
1.01471
1.0149
1.01521
1.01553
1.01579
1.01599
1.0163
1.01708
1.01823
1.0203
1.02445
1.03055
1.03635
1.04128
1.04615
1.05091
1.05273
1.05327
1.05382
1.05472
1.05609
1.05625
1.05503
1.05075
1.0365
0.977512
0.977535
0.977555
0.977568
0.977586
0.977612
0.977648
0.977686
0.977702
0.977708
0.977737
0.97779
0.977863
0.977927
0.977986
0.978057
0.978128
0.978187
0.978235
0.97826
0.978272
0.978318
0.978398
0.978498
0.978607
0.978712
0.97879
0.978869
0.978987
0.979117
0.979244
0.979371
0.979521
0.979673
0.979797
0.97991
0.979979
0.980019
0.980053
0.980086
0.980124
0.980178
0.98024
0.980277
0.980304
0.98033
0.980348
0.980354
0.980352
0.980354
0.980386
0.980437
0.980526
0.980664
0.980905
0.981287
0.981998
0.983065
0.984874
0.987356
0.990581
0.994049
0.998243
1.00238
1.00602
1.00761
1.00995
1.01174
1.01251
1.01275
1.01298
1.01311
1.01332
1.01369
1.01423
1.01469
1.01489
1.01516
1.01526
1.01535
1.01551
1.01594
1.01675
1.01797
1.02004
1.02406
1.03029
1.03643
1.0413
1.04597
1.04989
1.05223
1.05284
1.05323
1.05409
1.05537
1.05545
1.05411
1.04957
1.03536
0.977636
0.977699
0.977695
0.977654
0.977602
0.977619
0.97766
0.97771
0.977751
0.977796
0.977857
0.977924
0.977981
0.978034
0.978098
0.978171
0.97825
0.978319
0.978357
0.978378
0.978411
0.978481
0.978581
0.978688
0.978786
0.978864
0.978924
0.978985
0.979082
0.979216
0.97935
0.979458
0.979546
0.979663
0.979812
0.979946
0.980016
0.980037
0.980042
0.980055
0.980097
0.980161
0.980194
0.980197
0.980202
0.980224
0.98026
0.980252
0.980133
0.979977
0.979895
0.979898
0.979946
0.980035
0.980149
0.980348
0.980549
0.980699
0.980943
0.981463
0.98263
0.98453
0.987231
0.990684
0.994997
0.999886
1.00403
1.00646
1.00954
1.01026
1.01066
1.01167
1.01255
1.01358
1.01386
1.01419
1.01447
1.01469
1.01479
1.01503
1.01522
1.01542
1.01612
1.01747
1.01972
1.02369
1.02971
1.03639
1.04158
1.04598
1.04917
1.05111
1.05176
1.0523
1.05361
1.055
1.055
1.05348
1.04852
1.03423
0.97731
0.977293
0.977255
0.977266
0.977294
0.977331
0.977387
0.977459
0.977509
0.97757
0.977684
0.97776
0.977761
0.977775
0.977837
0.97794
0.978039
0.978103
0.978161
0.978223
0.978291
0.978372
0.978468
0.978573
0.978665
0.978731
0.978788
0.978858
0.978946
0.979036
0.979119
0.9792
0.979281
0.97936
0.979465
0.979581
0.979634
0.979637
0.979635
0.979634
0.979655
0.979701
0.979708
0.979704
0.979707
0.979735
0.979769
0.979767
0.979645
0.979466
0.979357
0.979318
0.979313
0.97933
0.979389
0.979508
0.979632
0.979783
0.980023
0.980201
0.980231
0.980431
0.981009
0.982295
0.984254
0.988013
0.992368
0.997188
1.00196
1.00547
1.00812
1.0104
1.01132
1.01241
1.01259
1.01281
1.01326
1.01378
1.0143
1.01465
1.01471
1.01481
1.01534
1.01684
1.01926
1.02322
1.02898
1.0356
1.04131
1.04576
1.04849
1.04997
1.05057
1.05141
1.05318
1.05466
1.05457
1.0528
1.04743
1.03309
0.976651
0.976604
0.976615
0.976642
0.976681
0.976725
0.976778
0.976836
0.976893
0.976985
0.977127
0.977175
0.97717
0.977203
0.977284
0.977383
0.977474
0.977543
0.977632
0.977732
0.977816
0.977897
0.977992
0.9781
0.978203
0.978291
0.978376
0.978471
0.978572
0.978662
0.978737
0.978804
0.978855
0.978889
0.978942
0.979021
0.979076
0.979091
0.979091
0.979086
0.979083
0.979097
0.979112
0.979119
0.979133
0.979174
0.979225
0.97923
0.979187
0.979066
0.978906
0.978765
0.97867
0.978653
0.978654
0.978675
0.978753
0.978967
0.979278
0.979492
0.979652
0.97959
0.979552
0.979608
0.97991
0.980926
0.982804
0.98649
0.990677
0.995642
1.00027
1.00374
1.00632
1.00875
1.00989
1.01118
1.01253
1.01352
1.01363
1.01372
1.01376
1.01388
1.01464
1.01628
1.01859
1.0224
1.02803
1.03454
1.04035
1.04465
1.04754
1.04882
1.04958
1.05066
1.05282
1.05442
1.05424
1.05214
1.04628
1.03192
0.975838
0.975853
0.975878
0.97591
0.975947
0.976005
0.976069
0.976108
0.976157
0.976252
0.976358
0.976408
0.976472
0.976562
0.976654
0.9767
0.976732
0.97682
0.976955
0.977079
0.977171
0.977258
0.977368
0.97749
0.977604
0.977711
0.977812
0.977913
0.978018
0.978117
0.978225
0.978332
0.978381
0.978375
0.978348
0.978367
0.978396
0.978413
0.978414
0.978408
0.978391
0.978363
0.978347
0.978358
0.978407
0.978473
0.978521
0.978572
0.978643
0.97866
0.97851
0.978194
0.97794
0.977824
0.97777
0.977754
0.97783
0.978063
0.978361
0.978644
0.97888
0.979067
0.979178
0.979259
0.97931
0.979536
0.980065
0.981218
0.983058
0.986092
0.990007
0.994386
0.999576
1.00346
1.00716
1.00982
1.01108
1.01217
1.01196
1.01191
1.01223
1.01281
1.01397
1.01559
1.01773
1.02139
1.02714
1.03364
1.0393
1.04321
1.04648
1.04795
1.04901
1.05036
1.05261
1.05397
1.05364
1.0511
1.0447
1.03064
0.974866
0.974907
0.974948
0.975001
0.975087
0.975156
0.975171
0.975197
0.975252
0.975333
0.975412
0.975503
0.975606
0.97579
0.975874
0.975869
0.975915
0.97603
0.976171
0.976257
0.976331
0.976442
0.976593
0.976755
0.976909
0.977048
0.977161
0.977239
0.977305
0.977402
0.977528
0.977657
0.977769
0.977844
0.977863
0.97783
0.977696
0.977595
0.977574
0.977552
0.977513
0.977463
0.977441
0.977459
0.977508
0.977573
0.977666
0.977774
0.977891
0.97795
0.977911
0.977809
0.977672
0.977518
0.977408
0.977354
0.977316
0.97736
0.977557
0.977855
0.97819
0.978503
0.97876
0.978937
0.979097
0.979319
0.979711
0.980327
0.981034
0.982037
0.983495
0.98594
0.989829
0.99421
0.999189
1.00305
1.00555
1.008
1.00871
1.00997
1.01145
1.01217
1.0131
1.01468
1.01695
1.02068
1.02643
1.03279
1.03821
1.04201
1.04516
1.04732
1.04867
1.05026
1.05241
1.05319
1.05265
1.04957
1.04272
1.02934
0.974326
0.974384
0.974427
0.974473
0.974538
0.97464
0.974708
0.97473
0.974768
0.974842
0.974967
0.975027
0.975022
0.974997
0.974973
0.974999
0.97508
0.975213
0.975334
0.975427
0.975526
0.975623
0.975738
0.97588
0.976039
0.976186
0.976337
0.976505
0.976684
0.976841
0.976981
0.9771
0.977195
0.977281
0.97736
0.977391
0.97738
0.97731
0.977233
0.977199
0.977165
0.977112
0.977047
0.977012
0.977011
0.977006
0.976999
0.977013
0.977056
0.977126
0.977216
0.977259
0.977222
0.977129
0.977044
0.977017
0.976999
0.977
0.977111
0.977374
0.977729
0.978126
0.978515
0.978843
0.979066
0.979254
0.979544
0.979997
0.980545
0.981041
0.981475
0.982116
0.98334
0.985777
0.989362
0.993887
0.99839
1.00271
1.00587
1.00846
1.01024
1.01097
1.01169
1.01336
1.01603
1.02014
1.02564
1.0316
1.03732
1.04131
1.04439
1.04664
1.04813
1.05004
1.05208
1.05242
1.05163
1.04801
1.0408
1.02819
0.974034
0.974101
0.974121
0.974116
0.974135
0.974184
0.974255
0.974314
0.974366
0.974456
0.974564
0.97457
0.974523
0.974482
0.974513
0.9746
0.974722
0.974853
0.974984
0.975098
0.975204
0.97531
0.975409
0.975483
0.975563
0.975684
0.97584
0.976007
0.976157
0.976284
0.976393
0.97651
0.976625
0.976723
0.976808
0.976884
0.976923
0.976922
0.976908
0.976889
0.976861
0.976825
0.976776
0.976718
0.97666
0.976598
0.976558
0.976558
0.976584
0.976653
0.976762
0.9769
0.977016
0.977016
0.977004
0.977009
0.977024
0.977068
0.977181
0.977405
0.977749
0.97817
0.978618
0.979018
0.979246
0.979358
0.979469
0.97968
0.979979
0.980352
0.980657
0.980803
0.980962
0.981416
0.982554
0.984879
0.988479
0.992537
0.997417
1.00112
1.00483
1.00723
1.00961
1.01253
1.01591
1.01966
1.02448
1.03068
1.03677
1.04111
1.04433
1.04633
1.0479
1.05005
1.05182
1.05189
1.05077
1.04653
1.03905
1.02718
0.973967
0.973997
0.973992
0.973955
0.973955
0.973987
0.974034
0.974082
0.974137
0.974237
0.974341
0.974348
0.974302
0.974273
0.974318
0.974416
0.974523
0.97461
0.974722
0.974862
0.974968
0.975041
0.975148
0.975287
0.975386
0.975454
0.97556
0.975724
0.975932
0.976041
0.976102
0.976192
0.976317
0.97643
0.97653
0.976636
0.976734
0.97679
0.97681
0.976806
0.976771
0.97673
0.976687
0.976621
0.976533
0.976445
0.976383
0.976388
0.976459
0.976587
0.976757
0.976957
0.977131
0.977215
0.977251
0.977275
0.977302
0.977324
0.977327
0.977362
0.97754
0.977883
0.978275
0.97864
0.978895
0.979039
0.979114
0.979195
0.979375
0.979605
0.979891
0.980047
0.980051
0.98008
0.980277
0.980882
0.982226
0.984354
0.988151
0.992654
0.997577
1.0034
1.0079
1.01143
1.01497
1.01805
1.02303
1.03045
1.03643
1.041
1.04441
1.04619
1.04795
1.05021
1.05156
1.05142
1.04985
1.04498
1.03727
1.02623
0.973778
0.973797
0.973804
0.973783
0.973742
0.973761
0.973815
0.973862
0.973909
0.973988
0.974086
0.974107
0.97409
0.974044
0.974064
0.974137
0.974242
0.974327
0.974426
0.974552
0.97466
0.97473
0.974841
0.975004
0.97511
0.975136
0.975195
0.975323
0.975533
0.975704
0.975726
0.975759
0.975858
0.976003
0.976152
0.976291
0.976417
0.976543
0.976656
0.976675
0.976645
0.976587
0.97652
0.976464
0.976426
0.976314
0.976191
0.976152
0.976181
0.976298
0.976488
0.976697
0.976889
0.977043
0.977144
0.977192
0.977232
0.977298
0.977257
0.977187
0.977185
0.977346
0.97769
0.978051
0.978324
0.978518
0.978664
0.978712
0.978755
0.978872
0.979074
0.979322
0.979578
0.979832
0.980084
0.980397
0.980937
0.981667
0.98312
0.985548
0.989552
0.995687
1.00083
1.00601
1.01131
1.01593
1.02229
1.03109
1.03635
1.04001
1.04396
1.04631
1.04835
1.05051
1.05126
1.05083
1.04864
1.0431
1.0354
1.02541
0.973534
0.973534
0.973533
0.973544
0.973546
0.973543
0.973566
0.973617
0.973674
0.973746
0.97381
0.973812
0.9738
0.973763
0.973771
0.97382
0.973916
0.974011
0.974087
0.974177
0.974259
0.97433
0.97446
0.974659
0.974734
0.974719
0.97473
0.974806
0.974985
0.97515
0.975171
0.975204
0.975302
0.975458
0.975632
0.975796
0.975946
0.976093
0.97623
0.97633
0.976367
0.97635
0.976284
0.97619
0.976152
0.976128
0.976015
0.975922
0.975914
0.975953
0.976071
0.976249
0.976448
0.976628
0.976757
0.976835
0.9769
0.976988
0.97708
0.97704
0.97698
0.976997
0.97716
0.977412
0.977633
0.977843
0.978075
0.978369
0.978399
0.978423
0.97855
0.978852
0.979248
0.979621
0.979958
0.980352
0.9809
0.981519
0.982204
0.9831
0.984868
0.988094
0.99311
0.99915
1.0065
1.01362
1.02155
1.0302
1.0351
1.03945
1.0436
1.04679
1.04907
1.05055
1.0507
1.04995
1.0471
1.04106
1.03367
1.02481
0.973192
0.973195
0.973194
0.973209
0.973227
0.973233
0.973252
0.973288
0.973371
0.973505
0.973579
0.973571
0.973551
0.973532
0.97354
0.973579
0.973653
0.973749
0.973824
0.973877
0.97391
0.973956
0.974075
0.974269
0.974314
0.974253
0.974209
0.974253
0.97438
0.974525
0.9746
0.974682
0.974788
0.974928
0.975105
0.975288
0.975461
0.975647
0.975834
0.975969
0.976022
0.976023
0.975997
0.975935
0.975911
0.975899
0.975842
0.975794
0.975759
0.975723
0.975728
0.975809
0.975958
0.976136
0.97629
0.976384
0.976438
0.976533
0.976753
0.976891
0.976876
0.976895
0.977041
0.977202
0.977331
0.977495
0.977726
0.978052
0.978361
0.978488
0.978594
0.978798
0.979152
0.97961
0.980079
0.980538
0.981054
0.981568
0.982023
0.982484
0.983093
0.984235
0.986888
0.991202
0.997652
1.00622
1.01547
1.02486
1.03347
1.03954
1.04393
1.04753
1.0497
1.05031
1.0502
1.04899
1.04547
1.03911
1.03227
1.02444
0.972523
0.972562
0.972605
0.972648
0.9727
0.972768
0.97285
0.972938
0.973033
0.973131
0.973226
0.973298
0.973318
0.973319
0.973322
0.973344
0.973396
0.973459
0.97351
0.973574
0.973651
0.973741
0.973876
0.974007
0.974007
0.973929
0.973934
0.97401
0.974151
0.974189
0.974233
0.974316
0.974447
0.974588
0.9747
0.974846
0.975052
0.975299
0.97553
0.975659
0.975678
0.975671
0.975656
0.97561
0.975595
0.975614
0.975641
0.975714
0.975773
0.975752
0.97568
0.975612
0.975647
0.975785
0.975977
0.976123
0.976231
0.976353
0.976602
0.976829
0.976861
0.976916
0.977108
0.977294
0.977386
0.977494
0.977684
0.977993
0.978378
0.978631
0.978758
0.978914
0.979215
0.979646
0.980131
0.980605
0.981027
0.981407
0.981786
0.982176
0.982737
0.983509
0.984789
0.987153
0.99114
0.998334
1.00764
1.01916
1.03198
1.03885
1.04401
1.04739
1.04945
1.05013
1.04988
1.04819
1.04395
1.0374
1.03122
1.0242
0.971894
0.971971
0.972043
0.97211
0.972168
0.972221
0.972294
0.972393
0.9725
0.972585
0.972665
0.972753
0.972826
0.972892
0.972946
0.972997
0.973071
0.973146
0.97321
0.973282
0.97336
0.973462
0.973599
0.973656
0.973638
0.973566
0.973575
0.973655
0.973742
0.973745
0.973782
0.973871
0.974031
0.974219
0.974315
0.974439
0.974641
0.974922
0.975201
0.975325
0.975309
0.975276
0.975249
0.975209
0.975192
0.975232
0.975341
0.975494
0.975631
0.975621
0.975574
0.975567
0.975593
0.975696
0.975865
0.976031
0.97618
0.976341
0.976586
0.976816
0.976924
0.977108
0.977376
0.977566
0.977656
0.977739
0.977884
0.978136
0.978503
0.978819
0.978977
0.979043
0.979181
0.979494
0.979971
0.980464
0.980908
0.981264
0.981582
0.981964
0.982528
0.98348
0.9849
0.986718
0.989241
0.993326
1.00034
1.0115
1.02479
1.03267
1.04013
1.04634
1.0498
1.05045
1.0497
1.04716
1.04227
1.03593
1.0304
1.02401
0.971773
0.971784
0.97181
0.971843
0.971861
0.971881
0.97193
0.972023
0.972135
0.972187
0.9722
0.972234
0.972288
0.972356
0.97245
0.972557
0.972646
0.972739
0.972847
0.97297
0.973091
0.97319
0.973285
0.97345
0.973579
0.973567
0.973568
0.973642
0.973743
0.973755
0.973795
0.973886
0.974044
0.974145
0.974241
0.974384
0.974523
0.974692
0.974913
0.975047
0.975044
0.975012
0.974938
0.97489
0.974882
0.974908
0.975
0.975145
0.975421
0.975591
0.975592
0.975598
0.975644
0.975762
0.975928
0.976121
0.976294
0.976407
0.976553
0.976744
0.976963
0.977294
0.977581
0.977775
0.977882
0.977947
0.978022
0.978174
0.978456
0.978762
0.978977
0.979084
0.979153
0.979314
0.979712
0.98027
0.980806
0.981189
0.981436
0.981838
0.9826
0.983702
0.985258
0.987194
0.989209
0.992062
0.996824
1.00511
1.01542
1.0262
1.0355
1.04449
1.04964
1.04977
1.04887
1.04583
1.04072
1.03475
1.02972
1.02378
0.971659
0.971614
0.9716
0.97161
0.97163
0.971648
0.97167
0.971707
0.971717
0.971707
0.971672
0.971666
0.971672
0.971684
0.971687
0.971702
0.971765
0.971871
0.971993
0.972111
0.972267
0.972464
0.972661
0.972912
0.973158
0.973196
0.973212
0.973275
0.973371
0.973431
0.973514
0.973646
0.973748
0.973812
0.973905
0.974074
0.974257
0.974335
0.97444
0.974626
0.974862
0.974937
0.974898
0.974771
0.974736
0.974737
0.974775
0.974902
0.975195
0.975612
0.975754
0.97578
0.97583
0.975915
0.976029
0.976223
0.976444
0.976571
0.976617
0.9767
0.976929
0.977281
0.977544
0.977721
0.977854
0.977962
0.978047
0.978141
0.978334
0.978619
0.978918
0.979158
0.979325
0.979497
0.97973
0.980095
0.980597
0.981156
0.98167
0.982211
0.983027
0.984297
0.985913
0.987791
0.989591
0.991987
0.995995
1.00231
1.01012
1.01911
1.02732
1.03605
1.04459
1.04718
1.04633
1.04406
1.03977
1.03428
1.02921
1.02362
0.97054
0.97055
0.970576
0.970591
0.97063
0.970739
0.970837
0.970839
0.970801
0.970677
0.970517
0.970502
0.970512
0.970534
0.970584
0.970664
0.970754
0.970814
0.970885
0.97102
0.971274
0.971634
0.971893
0.972084
0.972255
0.972429
0.972586
0.972684
0.972764
0.972864
0.972972
0.973043
0.973132
0.973253
0.973376
0.973525
0.973669
0.973853
0.97413
0.974457
0.974753
0.975002
0.975059
0.974979
0.974927
0.974928
0.97495
0.975063
0.975358
0.975774
0.976012
0.976056
0.976034
0.976015
0.97605
0.976198
0.976436
0.97668
0.976757
0.97678
0.9769
0.977187
0.977436
0.977607
0.977757
0.97791
0.978066
0.978234
0.978441
0.978716
0.979016
0.97929
0.979533
0.979785
0.980088
0.980431
0.980832
0.981355
0.981966
0.982667
0.983607
0.984934
0.986549
0.988283
0.99003
0.992149
0.995679
1.00161
1.00899
1.01576
1.0218
1.02873
1.03688
1.0431
1.0429
1.04178
1.03822
1.03304
1.02852
1.02358
0.969202
0.969224
0.969272
0.969352
0.969429
0.969505
0.969597
0.969732
0.969837
0.969801
0.969576
0.969429
0.969455
0.969509
0.969582
0.969667
0.969745
0.969824
0.96993
0.970111
0.970439
0.970843
0.971118
0.971304
0.971496
0.971725
0.971874
0.971956
0.972086
0.972261
0.972301
0.972277
0.972313
0.972433
0.972563
0.972708
0.972929
0.973271
0.973701
0.974092
0.974415
0.974721
0.974828
0.97474
0.974717
0.974722
0.974768
0.974927
0.975245
0.97564
0.975942
0.976065
0.976005
0.975927
0.975935
0.976032
0.976258
0.976535
0.976666
0.976734
0.976832
0.97699
0.977191
0.977398
0.977618
0.977848
0.978056
0.978344
0.978738
0.979103
0.979364
0.979583
0.979811
0.980071
0.980408
0.980783
0.98119
0.981704
0.982355
0.983111
0.984062
0.985377
0.987007
0.988715
0.99035
0.992289
0.995412
1.00106
1.00861
1.01553
1.01984
1.02298
1.02777
1.03369
1.03866
1.03816
1.03551
1.03161
1.02788
1.02359
0.970481
0.970481
0.970487
0.970505
0.970507
0.9705
0.970515
0.970657
0.970924
0.970983
0.970844
0.970372
0.970178
0.970199
0.970241
0.9703
0.970404
0.970504
0.970557
0.97066
0.970895
0.971216
0.971488
0.97163
0.971746
0.971927
0.972056
0.972147
0.972317
0.97248
0.972484
0.972449
0.972342
0.972224
0.972263
0.972347
0.972504
0.972694
0.972773
0.972852
0.973039
0.973332
0.973559
0.973691
0.973789
0.973891
0.974035
0.974259
0.974577
0.974949
0.975338
0.975459
0.975412
0.975387
0.975415
0.975457
0.975543
0.975777
0.976168
0.976543
0.97685
0.97714
0.977383
0.977577
0.977729
0.977866
0.978041
0.978372
0.978931
0.97943
0.97971
0.979893
0.980084
0.98037
0.980772
0.981234
0.981686
0.982169
0.982779
0.983504
0.98445
0.985784
0.987453
0.989116
0.990645
0.992367
0.995194
1.00037
1.00808
1.0156
1.01989
1.0207
1.02187
1.02435
1.02846
1.03014
1.0306
1.02946
1.02672
1.02307
0.971734
0.971645
0.9713
0.971182
0.971189
0.971196
0.971243
0.971263
0.97118
0.970937
0.970269
0.969373
0.969338
0.969387
0.969374
0.969308
0.969322
0.969351
0.969398
0.969522
0.969715
0.969927
0.97009
0.970202
0.970421
0.970759
0.970998
0.971263
0.971604
0.971766
0.971765
0.971745
0.971733
0.971703
0.971692
0.97175
0.971853
0.972028
0.972231
0.972196
0.97202
0.972011
0.972049
0.972124
0.972282
0.972544
0.972838
0.973156
0.973564
0.973957
0.974255
0.974425
0.974596
0.974808
0.974832
0.974778
0.974766
0.974929
0.9754
0.976043
0.976597
0.976991
0.977332
0.977599
0.977731
0.977808
0.977944
0.978316
0.978942
0.979473
0.979801
0.980063
0.980317
0.980679
0.98121
0.981824
0.982373
0.98284
0.983352
0.984
0.984907
0.986219
0.987907
0.989521
0.990894
0.992416
0.994906
0.999626
1.00729
1.01544
1.01962
1.01982
1.01948
1.01826
1.01892
1.02074
1.02289
1.02399
1.02301
1.02157
0.973057
0.972847
0.972544
0.972284
0.972047
0.972021
0.972104
0.972077
0.971821
0.970928
0.969976
0.969742
0.969616
0.969264
0.968967
0.968969
0.968978
0.969025
0.969222
0.969526
0.96981
0.970048
0.970263
0.970508
0.970889
0.971265
0.971609
0.971911
0.972127
0.972239
0.972212
0.972177
0.972199
0.972273
0.972411
0.97253
0.972711
0.973131
0.97353
0.973476
0.973248
0.97293
0.972581
0.97255
0.972696
0.972871
0.972988
0.973183
0.973609
0.974064
0.974399
0.974769
0.975313
0.975697
0.975702
0.975539
0.975227
0.974955
0.974967
0.975216
0.975692
0.976203
0.976681
0.9771
0.977298
0.977362
0.977481
0.977846
0.978548
0.979305
0.979854
0.980271
0.980656
0.981099
0.981647
0.982292
0.982973
0.983557
0.984063
0.984709
0.985592
0.986803
0.988405
0.989974
0.991182
0.992462
0.99458
0.998777
1.00613
1.01489
1.01887
1.01888
1.01828
1.01646
1.01335
1.01156
1.01258
1.01495
1.01792
1.02017
0.983409
0.983273
0.982732
0.982158
0.982043
0.981933
0.9817
0.981266
0.980549
0.979747
0.979162
0.978579
0.978018
0.97776
0.977433
0.976762
0.976722
0.976838
0.976933
0.976962
0.977061
0.977208
0.977193
0.977361
0.977834
0.97786
0.977381
0.976841
0.976808
0.976919
0.976971
0.976789
0.976177
0.97603
0.976109
0.976309
0.976824
0.977345
0.977385
0.97726
0.977116
0.976889
0.97655
0.976517
0.976424
0.975866
0.975083
0.974982
0.975038
0.975127
0.975166
0.975406
0.975964
0.97636
0.976304
0.975999
0.975627
0.975565
0.975592
0.975612
0.975644
0.975775
0.975916
0.976121
0.976444
0.976768
0.977079
0.977468
0.97806
0.978818
0.979529
0.980186
0.980893
0.981478
0.98201
0.982654
0.983351
0.983986
0.984579
0.985256
0.986208
0.987529
0.989139
0.99058
0.991605
0.992644
0.994378
0.997931
1.00464
1.01362
1.01774
1.01776
1.01695
1.01498
1.01183
1.0079
1.00517
1.0061
1.00916
1.01415
0.991596
0.99195
0.992267
0.992233
0.99194
0.9915
0.99108
0.990019
0.989511
0.989541
0.989238
0.989093
0.98916
0.988973
0.988751
0.988759
0.988934
0.989155
0.989056
0.98876
0.988736
0.989175
0.989968
0.989944
0.989335
0.988118
0.987043
0.986565
0.986247
0.985861
0.98528
0.983855
0.981558
0.981043
0.980898
0.980486
0.980509
0.980623
0.980071
0.978654
0.978285
0.978504
0.9796
0.980625
0.980697
0.980469
0.979499
0.978576
0.978622
0.978739
0.978425
0.977265
0.976609
0.976449
0.976439
0.976371
0.976457
0.977003
0.977368
0.977195
0.97682
0.976783
0.97679
0.976818
0.977168
0.977897
0.978507
0.9789
0.979267
0.979669
0.980067
0.98055
0.981194
0.98183
0.98228
0.982713
0.983309
0.984005
0.984698
0.985461
0.9865
0.988004
0.98979
0.991141
0.991947
0.992763
0.994139
0.997042
1.00275
1.01127
1.01636
1.01642
1.01559
1.01352
1.01039
1.00675
1.00326
1.0016
1.0025
1.00693
1.01097
1.01035
1.0098
1.00935
1.00912
1.0091
1.00916
1.00876
1.00771
1.00741
1.00716
1.00676
1.00646
1.0059
1.00488
1.0041
1.00408
1.0042
1.00403
1.00337
1.00196
1.00134
1.00135
1.00138
1.001
0.999628
0.999056
0.999562
1.00014
1.00015
1.00025
1.00018
0.998822
0.997491
0.997297
0.997066
0.996623
0.995804
0.99454
0.992946
0.99061
0.988424
0.988156
0.988151
0.987902
0.988081
0.988004
0.987278
0.987371
0.987624
0.987329
0.986223
0.984697
0.982743
0.98088
0.980358
0.980389
0.980938
0.981381
0.98121
0.980726
0.980384
0.980035
0.979749
0.979748
0.979873
0.979883
0.979873
0.979914
0.980073
0.98024
0.980486
0.981021
0.981774
0.982455
0.983013
0.983614
0.984332
0.985095
0.98591
0.987051
0.988689
0.990377
0.991419
0.991921
0.992499
0.993604
0.995993
1.00073
1.00843
1.01457
1.0149
1.01407
1.01202
1.00903
1.00571
1.00259
1.00077
1.00055
1.00214
1.03105
1.03104
1.03079
1.03008
1.02971
1.02958
1.02896
1.0282
1.02818
1.02799
1.02747
1.02731
1.02743
1.02752
1.02683
1.02545
1.02535
1.02526
1.02426
1.02343
1.02318
1.02272
1.02116
1.0198
1.01978
1.01941