/*--------------------------------*- C++ -*----------------------------------*\
  =========                 |
  \\      /  F ield         | OpenFOAM: The Open Source CFD Toolbox
   \\    /   O peration     | Website:  https://openfoam.org
    \\  /    A nd           | Version:  7
     \\/     M anipulation  |
\*---------------------------------------------------------------------------*/
FoamFile
{
    version     2.0;
    format      ascii;
    class       volScalarField;
    location    "4";
    object      p;
}
// * * * * * * * * * * * * * * * * * * * * * * * * * * * * * * * * * * * * * //

dimensions      [1 -1 -2 0 0 0 0];

internalField   nonuniform List<scalar> 
24000
(
0.183007
0.228468
0.266038
0.300102
0.337377
0.369497
0.400839
0.436163
0.475008
0.52154
0.570653
0.627514
0.692113
0.760151
0.833676
0.888393
0.942763
0.956137
0.957969
0.957554
0.951821
0.94206
0.933977
0.926031
0.921936
0.914935
0.899177
0.891252
0.901385
0.920926
0.940191
0.947658
0.939359
0.918143
0.901551
0.902006
0.912363
0.919144
0.91474
0.904254
0.901538
0.907347
0.914106
0.909778
0.899263
0.896471
0.896765
0.893465
0.892898
0.902262
0.147318
0.147286
0.147252
0.147232
0.147235
0.147263
0.147237
0.147403
0.148406
0.151931
0.15872
0.172882
0.194535
0.233557
0.284901
0.360083
0.453618
0.549619
0.640269
0.713973
0.783403
0.822329
0.863722
0.881729
0.909197
0.912318
0.913061
0.924277
0.939381
0.945974
0.950683
0.945295
0.920205
0.907208
0.909731
0.915031
0.922408
0.920038
0.908604
0.900511
0.905031
0.914631
0.91356
0.903199
0.895564
0.897472
0.899129
0.894834
0.893518
0.904448
0.147591
0.147615
0.147636
0.147677
0.147754
0.147851
0.147922
0.147968
0.14806
0.148057
0.148041
0.148029
0.148053
0.148084
0.148168
0.14815
0.14921
0.158125
0.178528
0.221997
0.281946
0.371732
0.471386
0.58397
0.698922
0.795341
0.889912
0.941075
0.957141
0.954335
0.94796
0.926299
0.884909
0.895995
0.913926
0.925439
0.926044
0.91631
0.901132
0.901028
0.908321
0.920409
0.913375
0.898517
0.894862
0.899059
0.897473
0.893584
0.893357
0.906319
0.147863
0.147895
0.147916
0.147926
0.147951
0.148021
0.148103
0.148166
0.148221
0.148264
0.148303
0.148386
0.148493
0.148587
0.148689
0.148733
0.148688
0.148567
0.148434
0.148292
0.148163
0.147995
0.150978
0.170685
0.211569
0.296401
0.421661
0.562093
0.694221
0.781052
0.845894
0.871
0.88533
0.92054
0.940325
0.937922
0.929167
0.903456
0.896155
0.903804
0.922747
0.923358
0.906829
0.892815
0.89433
0.904466
0.898607
0.891116
0.893644
0.908035
0.148129
0.148183
0.148216
0.148236
0.148272
0.14831
0.148348
0.148393
0.148429
0.148447
0.148484
0.148554
0.148628
0.1487
0.148778
0.14882
0.148796
0.148716
0.14858
0.148424
0.148326
0.14823
0.148084
0.147974
0.148071
0.148165
0.148701
0.166845
0.219608
0.329325
0.486302
0.672863
0.827706
0.899795
0.92525
0.925509
0.911751
0.888754
0.898442
0.924347
0.929875
0.91594
0.891703
0.88888
0.901264
0.906487
0.896429
0.890629
0.896677
0.912088
0.148187
0.148202
0.148204
0.148219
0.148253
0.148294
0.148322
0.148353
0.148384
0.148408
0.148455
0.148501
0.148517
0.148526
0.148578
0.148671
0.148679
0.148614
0.148465
0.148333
0.148254
0.148163
0.148149
0.148251
0.148602
0.148757
0.148756
0.14843
0.14784
0.147539
0.154505
0.204158
0.335363
0.511329
0.673606
0.810616
0.855622
0.881752
0.921661
0.94594
0.930804
0.896153
0.88324
0.891228
0.913052
0.908222
0.891401
0.89017
0.901739
0.914861
0.14802
0.148035
0.148032
0.148026
0.148045
0.14805
0.148015
0.147958
0.147918
0.14789
0.147885
0.147896
0.147889
0.14788
0.147933
0.148121
0.148315
0.148334
0.148276
0.148221
0.148151
0.148167
0.148274
0.148521
0.148849
0.148931
0.148912
0.148604
0.147829
0.147451
0.147381
0.147358
0.147315
0.157855
0.22853
0.381081
0.60411
0.814316
0.902059
0.925392
0.918753
0.876265
0.882596
0.908426
0.917734
0.900314
0.886742
0.896114
0.906365
0.914875
0.147458
0.147424
0.147343
0.14726
0.147242
0.147211
0.147121
0.147066
0.147056
0.147069
0.147097
0.147164
0.147263
0.147382
0.147574
0.14784
0.148101
0.148208
0.148152
0.148088
0.148081
0.148199
0.148462
0.148732
0.148892
0.148925
0.14891
0.148574
0.147736
0.147444
0.147358
0.147248
0.147247
0.147294
0.147784
0.148385
0.184333
0.319667
0.523704
0.725639
0.822469
0.85956
0.900367
0.931441
0.923405
0.882312
0.885491
0.907843
0.909446
0.913192
0.147006
0.146915
0.146791
0.146701
0.146623
0.146573
0.146562
0.146561
0.146584
0.146631
0.146707
0.146871
0.147057
0.147249
0.147589
0.147977
0.148262
0.148464
0.148399
0.148254
0.148248
0.148369
0.14866
0.148705
0.148698
0.148728
0.148742
0.148396
0.14765
0.147471
0.147481
0.147294
0.147208
0.147289
0.148038
0.148896
0.148969
0.148561
0.167225
0.259497
0.487058
0.76125
0.885271
0.920568
0.900822
0.865897
0.900946
0.913781
0.903854
0.909478
0.146907
0.14688
0.146863
0.146821
0.146635
0.146495
0.146516
0.146603
0.146704
0.146795
0.146905
0.147137
0.14739
0.147569
0.147837
0.148213
0.148539
0.148675
0.148523
0.148244
0.14825
0.148205
0.148055
0.147762
0.147484
0.147464
0.147704
0.147689
0.147338
0.147329
0.147461
0.147245
0.147094
0.147385
0.148304
0.14857
0.148145
0.147513
0.146937
0.146313
0.157393
0.271482
0.496327
0.732083
0.822845
0.861267
0.929412
0.915452
0.895859
0.906587
0.147442
0.147452
0.147463
0.147486
0.147477
0.147243
0.14721
0.147284
0.147484
0.147616
0.147614
0.147665
0.147681
0.147681
0.14778
0.148052
0.148378
0.148462
0.148222
0.147864
0.147553
0.147194
0.147073
0.146664
0.146026
0.145943
0.146295
0.146858
0.14691
0.147048
0.147148
0.147408
0.148108
0.14903
0.148972
0.148334
0.14722
0.146655
0.146463
0.146195
0.147608
0.148283
0.164944
0.273222
0.549003
0.802722
0.904741
0.899222
0.891978
0.915993
0.148415
0.148484
0.148486
0.148458
0.148516
0.148528
0.148466
0.148233
0.147853
0.147768
0.147634
0.147349
0.147255
0.147245
0.147244
0.147289
0.147398
0.147431
0.147299
0.147072
0.146689
0.146515
0.146543
0.14615
0.145362
0.14523
0.145599
0.14661
0.146941
0.14725
0.147961
0.148458
0.149356
0.150232
0.150051
0.148379
0.146903
0.14644
0.146595
0.149301
0.152421
0.153573
0.152954
0.153196
0.180699
0.352867
0.623606
0.775403
0.873928
0.927642
0.149057
0.149171
0.149179
0.149144
0.149047
0.148859
0.148572
0.148295
0.147628
0.147216
0.146891
0.146682
0.146663
0.146743
0.146885
0.147096
0.147208
0.14719
0.147123
0.146965
0.14665
0.146607
0.1467
0.146332
0.1455
0.145261
0.145776
0.148019
0.149893
0.150618
0.150864
0.150475
0.150302
0.150841
0.15085
0.149422
0.148918
0.149801
0.153245
0.157839
0.158434
0.158029
0.158461
0.161171
0.163676
0.165341
0.209996
0.436113
0.749632
0.895261
0.147557
0.147725
0.147899
0.147911
0.147778
0.147355
0.146923
0.146261
0.145452
0.145299
0.145161
0.145112
0.145158
0.145442
0.145993
0.146763
0.147459
0.147615
0.147762
0.148026
0.148527
0.149781
0.150931
0.151008
0.150298
0.149815
0.150296
0.152625
0.155624
0.156967
0.156869
0.155522
0.153894
0.154027
0.155325
0.158021
0.160169
0.161349
0.163462
0.164236
0.164469
0.165652
0.169181
0.172206
0.174469
0.178499
0.179825
0.186354
0.28816
0.672423
0.149122
0.149771
0.150421
0.150746
0.151145
0.151266
0.151066
0.150959
0.15105
0.151088
0.150987
0.151203
0.152297
0.153623
0.154508
0.155348
0.156607
0.157627
0.158679
0.160006
0.161713
0.163757
0.164663
0.164474
0.163414
0.162487
0.162073
0.162089
0.162919
0.164155
0.164426
0.163875
0.162292
0.162082
0.163197
0.167368
0.17206
0.173744
0.173647
0.175029
0.17787
0.181059
0.183424
0.184949
0.187872
0.191349
0.193463
0.196145
0.197319
0.33456
0.169049
0.169915
0.171574
0.172293
0.172334
0.172255
0.171644
0.171254
0.171179
0.171094
0.170694
0.170061
0.16993
0.170005
0.169751
0.169382
0.16965
0.170401
0.170614
0.170615
0.170892
0.171832
0.173385
0.174442
0.174341
0.173818
0.17188
0.16947
0.169516
0.170617
0.172861
0.175513
0.17833
0.181032
0.184
0.187548
0.191101
0.193473
0.194249
0.194876
0.195928
0.197371
0.198403
0.201657
0.205706
0.207557
0.208171
0.209419
0.211885
0.218108
0.190887
0.191229
0.191307
0.19108
0.190687
0.190704
0.191135
0.19139
0.191178
0.190341
0.190273
0.190356
0.190675
0.191284
0.190821
0.191036
0.191591
0.191569
0.190857
0.189393
0.187387
0.186666
0.187388
0.189933
0.193017
0.195831
0.199138
0.203421
0.207033
0.207751
0.207998
0.209146
0.211079
0.213103
0.214269
0.214185
0.21307
0.212536
0.212167
0.21184
0.212547
0.214736
0.218916
0.222214
0.224079
0.223684
0.224239
0.225983
0.228857
0.235169
0.222806
0.222642
0.222632
0.222839
0.22354
0.223809
0.223873
0.224463
0.22602
0.22701
0.227509
0.22822
0.228935
0.229005
0.228942
0.228942
0.229057
0.228932
0.228769
0.229242
0.229468
0.229635
0.230867
0.232682
0.233631
0.233688
0.233117
0.232762
0.233009
0.233082
0.233083
0.233352
0.232746
0.230659
0.228601
0.227398
0.227011
0.227604
0.229672
0.233506
0.238174
0.241627
0.243966
0.243077
0.241328
0.240536
0.241267
0.244396
0.246781
0.25099
0.263706
0.263659
0.263515
0.263432
0.263569
0.263576
0.263537
0.263556
0.263345
0.262395
0.26213
0.262448
0.262291
0.261074
0.260509
0.260479
0.260541
0.260614
0.260714
0.261473
0.262979
0.263787
0.263692
0.263236
0.261207
0.259784
0.25991
0.258818
0.256478
0.255787
0.255581
0.256051
0.257932
0.260771
0.262613
0.26369
0.265841
0.268912
0.272113
0.272783
0.272339
0.270441
0.267875
0.265063
0.263433
0.265132
0.268015
0.270076
0.270029
0.272619
0.314535
0.314096
0.313861
0.313953
0.314078
0.313954
0.313927
0.313924
0.313771
0.31356
0.313518
0.313739
0.313853
0.313912
0.313952
0.313844
0.313403
0.313001
0.312537
0.311733
0.310748
0.309863
0.309276
0.309214
0.309579
0.310917
0.312231
0.312042
0.311387
0.311288
0.31128
0.311064
0.310355
0.309979
0.309623
0.309132
0.307604
0.305199
0.302091
0.29877
0.295
0.292043
0.290386
0.291606
0.29427
0.298163
0.298014
0.295513
0.292683
0.293937
0.372845
0.372873
0.372993
0.372736
0.372366
0.37237
0.372163
0.371471
0.371352
0.371165
0.370752
0.370195
0.369807
0.369446
0.368996
0.368382
0.367826
0.367363
0.366801
0.366206
0.365746
0.365214
0.364473
0.363526
0.362397
0.360968
0.359427
0.357341
0.355777
0.355285
0.354351
0.352895
0.351247
0.348584
0.345316
0.342602
0.340699
0.339291
0.337635
0.336029
0.335998
0.336793
0.337452
0.33705
0.335367
0.332696
0.328254
0.322559
0.318476
0.320209
0.426141
0.426119
0.42571
0.425064
0.425
0.42508
0.424869
0.424599
0.424245
0.423971
0.423874
0.423618
0.42299
0.42252
0.422261
0.421885
0.421225
0.420457
0.41978
0.419091
0.418293
0.417408
0.416495
0.4155
0.414353
0.413298
0.412231
0.41088
0.409179
0.407573
0.405825
0.404077
0.402576
0.401
0.398954
0.396469
0.394191
0.391971
0.389803
0.387358
0.384477
0.381158
0.377035
0.372151
0.367427
0.361791
0.357849
0.354368
0.351376
0.353194
0.454223
0.454156
0.454088
0.454041
0.453931
0.453777
0.453756
0.453735
0.453652
0.453476
0.453366
0.453284
0.453135
0.452924
0.452768
0.452658
0.45248
0.452181
0.451772
0.451412
0.451195
0.451024
0.450809
0.450442
0.449749
0.448832
0.44792
0.446967
0.445834
0.444859
0.444085
0.443197
0.441938
0.44036
0.438629
0.43669
0.43447
0.431972
0.429331
0.426588
0.423526
0.41999
0.416207
0.412198
0.408539
0.404467
0.400382
0.396187
0.390198
0.386437
0.45993
0.459932
0.459931
0.459944
0.459955
0.459942
0.459952
0.459956
0.459958
0.460023
0.460057
0.460032
0.459902
0.459771
0.459723
0.459682
0.459621
0.45952
0.459234
0.459011
0.458928
0.458868
0.458835
0.458769
0.45842
0.458023
0.458007
0.458069
0.458064
0.457887
0.457472
0.457091
0.456764
0.45629
0.455773
0.455401
0.454985
0.454189
0.45297
0.45176
0.45065
0.449199
0.447238
0.444835
0.441963
0.43868
0.43458
0.429882
0.42485
0.421046
0.461112
0.461148
0.461166
0.461138
0.46111
0.461099
0.461079
0.461057
0.460985
0.460893
0.46088
0.460834
0.460573
0.460205
0.46004
0.459907
0.459824
0.459947
0.460228
0.460253
0.460216
0.460269
0.460244
0.460071
0.460003
0.460111
0.461003
0.461789
0.461826
0.461661
0.460875
0.459955
0.459851
0.460112
0.460772
0.460933
0.460798
0.460505
0.46016
0.45993
0.45967
0.459271
0.458631
0.457827
0.456781
0.455471
0.454007
0.452506
0.450185
0.449484
0.465546
0.465561
0.46558
0.465606
0.465591
0.465335
0.465022
0.465071
0.464992
0.464726
0.464929
0.46519
0.464889
0.463756
0.463432
0.463933
0.464468
0.464518
0.464559
0.464535
0.463959
0.462973
0.462899
0.463044
0.462697
0.46242
0.462748
0.464163
0.464945
0.464716
0.463886
0.463008
0.46279
0.463012
0.463176
0.462672
0.462119
0.461927
0.461782
0.461528
0.460958
0.460366
0.459943
0.459495
0.458873
0.45852
0.458638
0.459492
0.459633
0.46082
0.474863
0.475068
0.475396
0.475591
0.475539
0.475214
0.475363
0.475335
0.474665
0.473683
0.473534
0.473581
0.47376
0.474255
0.47494
0.474933
0.47436
0.474402
0.474423
0.473734
0.472546
0.472134
0.472651
0.47343
0.472857
0.470435
0.468756
0.468809
0.468797
0.46826
0.468385
0.469048
0.469395
0.468202
0.465531
0.465081
0.465137
0.465008
0.464111
0.463439
0.463148
0.462991
0.462923
0.462914
0.463262
0.463893
0.464626
0.464891
0.464245
0.464581
0.507852
0.507771
0.50766
0.50765
0.507869
0.507815
0.506746
0.50589
0.505971
0.505602
0.504596
0.503438
0.503033
0.50292
0.502561
0.501724
0.500456
0.499495
0.499055
0.498512
0.498266
0.498243
0.497881
0.49779
0.498353
0.498044
0.496081
0.494348
0.493675
0.492311
0.489931
0.489505
0.489521
0.48835
0.486457
0.485061
0.484727
0.484257
0.482358
0.480733
0.480003
0.479065
0.477883
0.476447
0.475023
0.47314
0.471173
0.468473
0.464315
0.464042
0.563163
0.56385
0.564649
0.564595
0.563966
0.563103
0.562154
0.561905
0.562001
0.561529
0.560213
0.5595
0.55916
0.558536
0.557813
0.557445
0.556864
0.556003
0.554945
0.553803
0.552622
0.551061
0.549448
0.547845
0.545909
0.544241
0.54182
0.539117
0.538691
0.538018
0.535664
0.533087
0.529824
0.526302
0.524233
0.522214
0.519238
0.516011
0.512931
0.509488
0.506248
0.502694
0.499012
0.495452
0.491233
0.487641
0.483824
0.480689
0.476758
0.476585
0.653649
0.652061
0.651972
0.652488
0.652448
0.652099
0.651
0.649661
0.649662
0.649238
0.647508
0.645419
0.64484
0.644338
0.642835
0.640837
0.639926
0.639015
0.637222
0.634984
0.633044
0.630349
0.628179
0.626525
0.62417
0.621529
0.618797
0.615612
0.611756
0.608268
0.604773
0.601047
0.597788
0.593984
0.589194
0.584108
0.579861
0.574959
0.569902
0.564933
0.559504
0.554433
0.548558
0.543764
0.538019
0.533177
0.528188
0.523584
0.518476
0.509221
0.771272
0.769539
0.769096
0.768892
0.767448
0.76556
0.765263
0.76531
0.764415
0.762237
0.760647
0.759871
0.75876
0.756983
0.754995
0.752804
0.750865
0.749161
0.746952
0.744316
0.741645
0.738565
0.735235
0.732082
0.728722
0.724689
0.720624
0.716411
0.71181
0.706806
0.70192
0.696603
0.690634
0.684173
0.678216
0.671526
0.664363
0.657106
0.649461
0.641716
0.63325
0.62513
0.616368
0.607495
0.598916
0.589049
0.580053
0.57018
0.560692
0.54558
0.893732
0.893379
0.892125
0.890089
0.889702
0.889872
0.889431
0.887871
0.885489
0.885092
0.884803
0.883334
0.880991
0.879367
0.877959
0.87629
0.874181
0.871698
0.86931
0.866764
0.863917
0.86072
0.857302
0.853676
0.849781
0.845488
0.840914
0.836004
0.830591
0.824825
0.818673
0.811946
0.804883
0.797392
0.789111
0.780607
0.771459
0.761916
0.751821
0.741128
0.730384
0.718569
0.70724
0.694674
0.682575
0.66995
0.657168
0.644401
0.632967
0.614703
0.974029
0.974248
0.974247
0.97361
0.973112
0.972518
0.971778
0.971698
0.971505
0.970725
0.969513
0.969096
0.968732
0.967848
0.966695
0.965715
0.964717
0.963515
0.962087
0.960513
0.958826
0.957007
0.954957
0.95271
0.950181
0.947363
0.944225
0.940764
0.936872
0.932568
0.92775
0.922475
0.916491
0.909951
0.902681
0.894723
0.885898
0.876279
0.865772
0.854344
0.84211
0.828874
0.814938
0.800148
0.784564
0.768594
0.751959
0.734471
0.718946
0.692189
0.997733
0.997661
0.997652
0.997644
0.997598
0.997516
0.997364
0.997317
0.997298
0.997217
0.997026
0.996927
0.996856
0.996721
0.996532
0.996331
0.996124
0.995902
0.99564
0.995329
0.994979
0.994585
0.994125
0.993593
0.992986
0.992275
0.991436
0.990457
0.989311
0.98796
0.986366
0.984471
0.982233
0.979558
0.976402
0.972635
0.968185
0.962895
0.95666
0.949363
0.940778
0.930963
0.919534
0.906712
0.892258
0.876166
0.858839
0.839619
0.821368
0.789457
0.999938
0.999937
0.999934
0.999932
0.999931
0.999928
0.999926
0.999922
0.999918
0.999915
0.999911
0.999905
0.999899
0.999893
0.999886
0.999876
0.999866
0.999854
0.999841
0.999824
0.999805
0.999781
0.999754
0.99972
0.999679
0.999628
0.999566
0.999488
0.99939
0.999266
0.999109
0.998905
0.998643
0.998299
0.997849
0.997253
0.996466
0.995417
0.994021
0.992159
0.989691
0.986417
0.982133
0.976545
0.969393
0.960343
0.949191
0.935263
0.920708
0.891046
0.999999
0.999999
0.999999
0.999999
0.999999
0.999999
0.999999
0.999999
0.999999
0.999999
0.999999
0.999999
0.999999
0.999999
0.999999
0.999998
0.999998
0.999998
0.999998
0.999997
0.999997
0.999997
0.999996
0.999996
0.999995
0.999994
0.999992
0.999991
0.999988
0.999985
0.999981
0.999974
0.999966
0.999954
0.999936
0.99991
0.999872
0.999813
0.999724
0.999587
0.999374
0.99904
0.998518
0.997701
0.996431
0.99448
0.991549
0.987059
0.98147
0.966258
1
1
1
1
1
1
1
1
1
1
1
1
1
1
1
1
1
1
1
1
1
1
1
1
1
1
1
1
1
1
1
1
1
0.999999
0.999999
0.999999
0.999998
0.999997
0.999995
0.999992
0.999987
0.999977
0.999958
0.999924
0.999859
0.999735
0.999501
0.999038
0.998319
0.99525
1
1
1
1
1
1
1
1
1
1
1
1
1
1
1
1
1
1
1
1
1
1
1
1
1
1
1
1
1
1
1
1
1
1
1
1
1
1
1
1
1
1
0.999999
0.999999
0.999998
0.999995
0.999989
0.999975
0.999947
0.999743
1
1
1
1
1
1
1
1
1
1
1
1
1
1
1
1
1
1
1
1
1
1
1
1
1
1
1
1
1
1
1
1
1
1
1
1
1
1
1
1
1
1
1
1
1
1
1
1
0.999999
0.999994
1
1
1
1
1
1
1
1
1
1
1
1
1
1
1
1
1
1
1
1
1
1
1
1
1
1
1
1
1
1
1
1
1
1
1
1
1
1
1
1
1
1
1
1
1
1
1
1
1
1
0.147313
0.147348
0.147548
0.147801
0.148069
0.148135
0.14801
0.147503
0.147093
0.146953
0.147435
0.14833
0.148916
0.147374
0.148829
0.168826
0.190401
0.22277
0.2636
0.314747
0.373506
0.426261
0.45428
0.459916
0.461098
0.465426
0.474607
0.507899
0.563322
0.65545
0.772124
0.89424
0.974123
0.997808
0.99994
0.999999
1
1
1
1
0.147392
0.147377
0.147521
0.147747
0.14803
0.148091
0.14797
0.147541
0.147183
0.147025
0.147478
0.148275
0.148856
0.147293
0.148968
0.169862
0.190639
0.223099
0.26502
0.316402
0.375755
0.427612
0.454719
0.459936
0.461119
0.465252
0.474319
0.508315
0.565922
0.65693
0.773251
0.895822
0.975316
0.997916
0.999944
0.999999
1
1
1
1
0.147448
0.147414
0.14746
0.147653
0.147977
0.148074
0.147961
0.147621
0.147278
0.1471
0.147506
0.148183
0.148913
0.147312
0.149266
0.170574
0.19071
0.222707
0.266371
0.31794
0.376825
0.428409
0.455062
0.459951
0.461111
0.465176
0.474141
0.508533
0.567883
0.657969
0.774464
0.896906
0.976235
0.997994
0.999946
0.999999
1
1
1
1
0.147511
0.14745
0.147425
0.147616
0.147935
0.148074
0.147963
0.147669
0.147372
0.147189
0.147544
0.148172
0.149046
0.147392
0.14942
0.170662
0.191324
0.222447
0.267362
0.319213
0.378285
0.429369
0.455387
0.459983
0.461049
0.465195
0.474293
0.508751
0.568683
0.660165
0.77705
0.898556
0.976786
0.998066
0.999949
0.999999
1
1
1
1
0.147552
0.147482
0.147387
0.147581
0.147917
0.148078
0.147967
0.14771
0.147466
0.147281
0.147585
0.148193
0.149169
0.147301
0.149223
0.170288
0.192015
0.22329
0.268434
0.320397
0.379996
0.430626
0.45565
0.460013
0.460985
0.465286
0.474869
0.509304
0.569683
0.661679
0.77901
0.900645
0.977368
0.998144
0.999952
0.999999
1
1
1
1
0.14758
0.147502
0.147341
0.147532
0.147918
0.14808
0.14797
0.147745
0.14756
0.147387
0.147628
0.148176
0.149296
0.14747
0.149309
0.17
0.192496
0.22502
0.270219
0.322324
0.381631
0.431653
0.455859
0.460032
0.460932
0.465346
0.475689
0.510205
0.571469
0.662861
0.780745
0.902215
0.977959
0.998237
0.999955
1
1
1
1
1
0.147629
0.147518
0.147296
0.147467
0.147923
0.148075
0.147973
0.147798
0.147682
0.147509
0.147672
0.148122
0.149343
0.148348
0.150425
0.170177
0.193055
0.226262
0.271836
0.324039
0.38338
0.432695
0.456031
0.460049
0.460885
0.465142
0.477161
0.511383
0.572953
0.664654
0.782771
0.903806
0.978616
0.998329
0.999958
1
1
1
1
1
0.147701
0.147537
0.147259
0.147385
0.147908
0.148066
0.148006
0.147899
0.147847
0.147652
0.147715
0.148
0.149312
0.148501
0.151036
0.171975
0.193873
0.227585
0.273387
0.325807
0.385133
0.433794
0.456269
0.460093
0.460858
0.465099
0.478245
0.512492
0.574431
0.666857
0.785198
0.905582
0.979389
0.998415
0.999961
1
1
1
1
1
0.147777
0.147587
0.14724
0.147319
0.147803
0.148054
0.148095
0.148042
0.148035
0.147797
0.147758
0.14794
0.149242
0.148299
0.151019
0.173688
0.195272
0.229244
0.274945
0.32771
0.386988
0.43497
0.456739
0.460156
0.460848
0.465313
0.478309
0.513277
0.576069
0.668958
0.78772
0.907557
0.980176
0.998501
0.999964
1
1
1
1
1
0.147838
0.147622
0.147229
0.147282
0.147715
0.148054
0.148187
0.148179
0.148224
0.14793
0.147801
0.147907
0.149201
0.148165
0.150964
0.173838
0.197005
0.230697
0.276413
0.32967
0.388951
0.4362
0.45716
0.460177
0.460841
0.466204
0.477832
0.514032
0.57772
0.67107
0.790218
0.909584
0.980933
0.998588
0.999967
1
1
1
1
1
0.147886
0.147627
0.147209
0.14725
0.147671
0.148065
0.148269
0.148294
0.148396
0.148054
0.14785
0.147757
0.149165
0.148508
0.15147
0.173323
0.198621
0.232176
0.277881
0.331725
0.391007
0.437461
0.457428
0.460169
0.460821
0.46669
0.477748
0.514852
0.579374
0.673302
0.792818
0.911635
0.981677
0.998675
0.999969
1
1
1
1
1
0.14793
0.147609
0.147175
0.14721
0.147642
0.148077
0.148336
0.148395
0.148553
0.148184
0.147891
0.147368
0.149044
0.149157
0.152536
0.172961
0.199741
0.23404
0.279471
0.333885
0.393156
0.438742
0.457672
0.460166
0.460766
0.466702
0.47873
0.515822
0.581155
0.675659
0.795512
0.913764
0.982433
0.99876
0.999972
1
1
1
1
1
0.147966
0.147588
0.147154
0.147184
0.147624
0.14807
0.148388
0.148486
0.148711
0.148296
0.147897
0.146954
0.148757
0.149256
0.15328
0.173441
0.200027
0.235637
0.281183
0.336181
0.395399
0.440025
0.457916
0.460217
0.460706
0.466449
0.481033
0.516958
0.583087
0.678119
0.798315
0.915989
0.983218
0.998845
0.999974
1
1
1
1
1
0.14799
0.147581
0.147152
0.147175
0.147611
0.148019
0.148422
0.148571
0.148857
0.14836
0.147824
0.146619
0.148495
0.149112
0.153864
0.175332
0.199665
0.237063
0.283002
0.338653
0.397727
0.441303
0.458148
0.460398
0.460673
0.466168
0.482736
0.51817
0.584982
0.680727
0.801279
0.918302
0.984028
0.998929
0.999977
1
1
1
1
1
0.148016
0.147579
0.147152
0.147173
0.147593
0.147968
0.148432
0.148645
0.148959
0.148375
0.147642
0.146332
0.148276
0.148622
0.15445
0.177747
0.198473
0.238774
0.285004
0.341283
0.400135
0.442577
0.458394
0.460552
0.460584
0.465826
0.483599
0.519313
0.586911
0.683554
0.804412
0.920697
0.984843
0.999011
0.999979
1
1
1
1
1
0.148048
0.147584
0.147157
0.147198
0.147556
0.147911
0.14843
0.148705
0.149001
0.148371
0.147385
0.146043
0.148136
0.14835
0.15504
0.17963
0.198433
0.241122
0.287263
0.344053
0.402631
0.443855
0.458681
0.460669
0.460522
0.465753
0.484239
0.520414
0.589033
0.686544
0.807685
0.923177
0.985657
0.999091
0.999981
1
1
1
1
1
0.148065
0.147597
0.147173
0.147248
0.14754
0.147826
0.148383
0.148742
0.149007
0.148341
0.147055
0.145757
0.148127
0.14837
0.155417
0.180758
0.200701
0.244186
0.289776
0.34696
0.405214
0.445137
0.458963
0.460831
0.460546
0.466014
0.48496
0.521742
0.591463
0.689643
0.81114
0.925742
0.986477
0.999169
0.999983
1
1
1
1
1
0.148075
0.14763
0.147212
0.147289
0.147542
0.14776
0.148311
0.148759
0.149004
0.148209
0.146685
0.145502
0.148345
0.148712
0.15557
0.181545
0.205386
0.247471
0.292473
0.350003
0.407887
0.446419
0.459175
0.461
0.460596
0.466228
0.485682
0.523492
0.594157
0.692939
0.81482
0.928393
0.987305
0.999244
0.999985
1
1
1
1
1
0.148074
0.147652
0.147237
0.147332
0.14754
0.147738
0.148303
0.148763
0.148976
0.148002
0.146347
0.145285
0.148547
0.14919
0.1558
0.182514
0.208598
0.250177
0.295326
0.3532
0.410659
0.447681
0.459324
0.461131
0.460675
0.465942
0.486235
0.525432
0.596903
0.696478
0.818697
0.93113
0.988133
0.999317
0.999987
1
1
1
1
1
0.148083
0.147663
0.147249
0.147375
0.147525
0.147732
0.148313
0.148765
0.148877
0.147914
0.146107
0.14509
0.148588
0.149994
0.156713
0.183857
0.21024
0.252262
0.298329
0.356581
0.413523
0.448909
0.459431
0.461251
0.461161
0.465598
0.486612
0.527427
0.59966
0.700227
0.822744
0.933951
0.988955
0.999386
0.999988
1
1
1
1
1
0.148094
0.147723
0.14729
0.147428
0.147497
0.147726
0.148311
0.14877
0.148823
0.147904
0.145966
0.144933
0.148276
0.151044
0.158133
0.185368
0.211827
0.254203
0.301535
0.360184
0.416456
0.450097
0.459503
0.461375
0.461572
0.465731
0.487029
0.529538
0.602523
0.704158
0.827001
0.936849
0.989769
0.999452
0.99999
1
1
1
1
1
0.148071
0.147823
0.147385
0.147502
0.147493
0.147711
0.148305
0.148775
0.14881
0.147964
0.145893
0.144872
0.147772
0.15205
0.159479
0.186834
0.214225
0.256391
0.304994
0.36401
0.419441
0.451243
0.459572
0.461486
0.4616
0.467195
0.488237
0.531818
0.605554
0.708322
0.831498
0.939811
0.990573
0.999514
0.999991
1
1
1
1
1
0.148025
0.147886
0.147479
0.147595
0.147508
0.147645
0.148285
0.148765
0.148738
0.148045
0.145854
0.144898
0.147551
0.153013
0.160634
0.188133
0.216807
0.25891
0.308707
0.368039
0.422474
0.452348
0.459661
0.46157
0.461422
0.468715
0.489954
0.534254
0.608835
0.712808
0.836168
0.94283
0.991364
0.999573
0.999993
1
1
1
1
1
0.148007
0.147936
0.147609
0.147695
0.147509
0.147513
0.148136
0.148602
0.148526
0.14795
0.145809
0.145045
0.147355
0.153919
0.161688
0.18912
0.219193
0.261614
0.312661
0.372289
0.425562
0.453404
0.459757
0.461647
0.461385
0.468983
0.490973
0.536816
0.612419
0.7176
0.840976
0.945915
0.99214
0.999628
0.999994
1
1
1
1
1
0.147995
0.148025
0.147776
0.147799
0.147489
0.147402
0.147911
0.148352
0.14832
0.147773
0.145752
0.145085
0.146809
0.154678
0.162819
0.189556
0.221789
0.264475
0.316875
0.376802
0.428683
0.454401
0.45983
0.461728
0.461548
0.468774
0.491528
0.539556
0.616415
0.722605
0.84601
0.949066
0.992895
0.999678
0.999995
1
1
1
1
1
0.14798
0.14811
0.147959
0.147929
0.14748
0.147306
0.147729
0.148172
0.148172
0.147688
0.145668
0.145058
0.146557
0.155439
0.164261
0.18961
0.225014
0.26765
0.321429
0.381578
0.431811
0.455329
0.459853
0.461739
0.461953
0.468829
0.491853
0.542554
0.620762
0.727824
0.851354
0.952268
0.993624
0.999724
0.999996
1
1
1
1
1
0.147976
0.148185
0.148127
0.148072
0.14757
0.147248
0.147562
0.148039
0.148071
0.147658
0.145597
0.145065
0.146674
0.157008
0.166054
0.190807
0.229058
0.271339
0.326364
0.386591
0.434898
0.45617
0.459794
0.461708
0.462295
0.470033
0.492465
0.54587
0.625296
0.733336
0.857
0.955497
0.994324
0.999766
0.999996
1
1
1
1
1
0.147957
0.148249
0.148286
0.148184
0.147678
0.147243
0.1474
0.147913
0.148031
0.147673
0.145655
0.145248
0.147541
0.159058
0.167704
0.195541
0.233383
0.275592
0.331661
0.391775
0.437906
0.45691
0.45968
0.461584
0.462532
0.472713
0.495205
0.549484
0.630028
0.739197
0.862874
0.958737
0.994991
0.999804
0.999997
1
1
1
1
1
0.147907
0.148296
0.148433
0.148269
0.147733
0.14726
0.147258
0.147762
0.148063
0.147829
0.146019
0.145292
0.148202
0.160051
0.168885
0.199286
0.236973
0.280335
0.33725
0.397098
0.440804
0.457544
0.459582
0.461396
0.462836
0.475481
0.499022
0.553188
0.635033
0.745475
0.868914
0.961979
0.995622
0.999838
0.999998
1
1
1
1
1
0.147869
0.148326
0.148547
0.148327
0.147773
0.147216
0.14714
0.147574
0.148171
0.147945
0.146407
0.145211
0.148372
0.160397
0.169836
0.201891
0.239878
0.285428
0.34315
0.402586
0.443563
0.458087
0.459483
0.461284
0.463426
0.477293
0.502012
0.556812
0.640454
0.75222
0.875151
0.965221
0.996213
0.999867
0.999998
1
1
1
1
1
0.147873
0.148345
0.148636
0.148344
0.147799
0.14715
0.147016
0.147333
0.148163
0.147949
0.14669
0.144849
0.148304
0.160489
0.17123
0.205716
0.242941
0.290948
0.349448
0.408211
0.446146
0.458565
0.459388
0.461241
0.463912
0.477774
0.504623
0.560549
0.646387
0.759382
0.881666
0.968436
0.996762
0.999893
0.999999
1
1
1
1
1
0.1479
0.148353
0.148705
0.148347
0.147807
0.147123
0.146868
0.147011
0.147945
0.147865
0.146905
0.144512
0.147758
0.160586
0.174712
0.211133
0.246878
0.297041
0.356219
0.413886
0.448532
0.458986
0.459328
0.461232
0.464086
0.477044
0.507181
0.564647
0.65283
0.766961
0.88845
0.971599
0.997265
0.999915
0.999999
1
1
1
1
1
0.14795
0.148327
0.148731
0.148348
0.14782
0.147204
0.1468
0.146747
0.147632
0.14785
0.147128
0.144491
0.147211
0.161365
0.17948
0.216157
0.251827
0.303768
0.363437
0.419525
0.450718
0.459322
0.45929
0.46128
0.464228
0.476057
0.509921
0.569312
0.659739
0.774952
0.895429
0.974686
0.997722
0.999933
0.999999
1
1
1
1
1
0.14797
0.148255
0.148712
0.1483
0.147833
0.147436
0.146806
0.146663
0.147453
0.148184
0.14759
0.144787
0.147109
0.162751
0.183166
0.219925
0.257467
0.311001
0.371085
0.425089
0.452691
0.459543
0.459316
0.461643
0.465221
0.476229
0.51323
0.574656
0.667065
0.783389
0.90259
0.97768
0.99813
0.999949
0.999999
1
1
1
1
1
0.148
0.148151
0.148525
0.148199
0.147831
0.147721
0.146996
0.146707
0.14726
0.148483
0.148381
0.146382
0.147695
0.164447
0.186401
0.222975
0.263637
0.318635
0.379142
0.4305
0.454452
0.459766
0.459408
0.462275
0.466708
0.478526
0.517261
0.580697
0.674833
0.792333
0.909917
0.980551
0.99849
0.999961
1
1
1
1
1
1
0.148071
0.148086
0.148358
0.148122
0.147943
0.147962
0.147246
0.146856
0.147038
0.148462
0.148765
0.147369
0.149111
0.16672
0.19032
0.226119
0.270549
0.326781
0.387513
0.435654
0.455993
0.459993
0.45964
0.462733
0.467139
0.48227
0.521492
0.587286
0.683114
0.801823
0.917373
0.983277
0.998803
0.999971
1
1
1
1
1
1
0.148154
0.148062
0.148194
0.14803
0.14803
0.148177
0.14763
0.147034
0.146853
0.147719
0.14881
0.147554
0.149528
0.17011
0.195497
0.230386
0.278528
0.335649
0.396151
0.440461
0.457278
0.460212
0.459924
0.463073
0.46683
0.484863
0.525374
0.594385
0.692052
0.811876
0.924927
0.985835
0.999069
0.999979
1
1
1
1
1
1
0.14829
0.148106
0.148056
0.147948
0.148089
0.14831
0.148085
0.147285
0.146782
0.146634
0.148687
0.147386
0.149983
0.175559
0.201114
0.236759
0.287499
0.345399
0.404966
0.444813
0.458281
0.460372
0.460109
0.463246
0.466464
0.486806
0.529283
0.602039
0.701753
0.822522
0.932514
0.988199
0.999291
0.999985
1
1
1
1
1
1
0.148513
0.148149
0.147923
0.147902
0.148142
0.148386
0.148363
0.147594
0.146601
0.145208
0.14764
0.147537
0.15221
0.181104
0.206055
0.244694
0.29692
0.356014
0.413793
0.448606
0.459005
0.460459
0.460148
0.463194
0.466998
0.490057
0.534321
0.610309
0.712258
0.833645
0.940035
0.99035
0.999473
0.99999
1
1
1
1
1
1
0.148834
0.148151
0.147784
0.147877
0.148171
0.148449
0.148443
0.147623
0.14577
0.14393
0.145783
0.148226
0.155676
0.185482
0.210831
0.253452
0.306547
0.36736
0.422468
0.451787
0.459485
0.460507
0.460019
0.462788