/*--------------------------------*- C++ -*----------------------------------*\
  =========                 |
  \\      /  F ield         | OpenFOAM: The Open Source CFD Toolbox
   \\    /   O peration     | Website:  https://openfoam.org
    \\  /    A nd           | Version:  7
     \\/     M anipulation  |
\*---------------------------------------------------------------------------*/
FoamFile
{
    version     2.0;
    format      ascii;
    class       volVectorField;
    location    "4";
    object      U;
}
// * * * * * * * * * * * * * * * * * * * * * * * * * * * * * * * * * * * * * //

dimensions      [0 1 -1 0 0 0 0];

internalField   nonuniform List<vector> 
24000
(
(2.82754 -1.57396 0)
(2.71333 -1.16105 0)
(2.69995 -1.07665 0)
(2.70657 -1.00731 0)
(2.67118 -0.682883 0)
(2.71127 -0.558525 0)
(2.75103 -0.516624 0)
(2.74119 -0.354504 0)
(2.75374 -0.245365 0)
(2.75914 -0.135883 0)
(2.7714 -0.0566157 0)
(2.76052 0.0810294 0)
(2.77831 0.122257 0)
(2.76257 0.230626 0)
(2.76962 0.230765 0)
(2.77262 0.271576 0)
(2.7761 0.253394 0)
(2.77951 0.241261 0)
(2.79379 0.212612 0)
(2.80709 0.187853 0)
(2.8046 0.151088 0)
(2.80897 0.123353 0)
(2.80954 0.104218 0)
(2.8144 0.105429 0)
(2.82676 0.11347 0)
(2.85477 0.116423 0)
(2.86838 0.118492 0)
(2.87617 0.116783 0)
(2.8767 0.107644 0)
(2.88558 0.0928415 0)
(2.89401 0.103878 0)
(2.91175 0.126053 0)
(2.91559 0.128777 0)
(2.91658 0.122915 0)
(2.91484 0.0890713 0)
(2.9267 0.105423 0)
(2.9357 0.122591 0)
(2.94482 0.125002 0)
(2.95433 0.121158 0)
(2.96091 0.114674 0)
(2.96352 0.104927 0)
(2.96252 0.105943 0)
(2.96649 0.094512 0)
(2.96871 0.0727751 0)
(2.9703 0.0528016 0)
(2.96981 0.0413308 0)
(2.96229 0.0277267 0)
(2.94846 -0.00344612 0)
(2.93134 -0.0229999 0)
(2.87228 -0.0295849 0)
(2.97215 -1.77359 0)
(2.97234 -1.77292 0)
(2.9723 -1.77241 0)
(2.97208 -1.77177 0)
(2.97187 -1.77071 0)
(2.97126 -1.77053 0)
(2.97128 -1.76932 0)
(2.97095 -1.76995 0)
(2.96359 -1.74918 0)
(2.94216 -1.69056 0)
(2.90593 -1.58625 0)
(2.85361 -1.39715 0)
(2.80451 -1.2035 0)
(2.72874 -0.883354 0)
(2.69457 -0.683397 0)
(2.61603 -0.352314 0)
(2.62295 -0.249853 0)
(2.54852 -0.00529916 0)
(2.56438 0.0489534 0)
(2.54891 0.157955 0)
(2.54985 0.185419 0)
(2.56992 0.219691 0)
(2.58218 0.263721 0)
(2.61923 0.275137 0)
(2.64495 0.253632 0)
(2.66748 0.204727 0)
(2.6952 0.146959 0)
(2.71105 0.0787881 0)
(2.72792 0.0796507 0)
(2.75814 0.124014 0)
(2.77093 0.180618 0)
(2.78572 0.193212 0)
(2.77672 0.160962 0)
(2.77643 0.114345 0)
(2.79163 0.113013 0)
(2.81369 0.134922 0)
(2.83393 0.148915 0)
(2.84887 0.148839 0)
(2.85887 0.13717 0)
(2.86936 0.118079 0)
(2.8789 0.105544 0)
(2.88123 0.0853282 0)
(2.88673 0.0751837 0)
(2.89145 0.0687754 0)
(2.88992 0.057756 0)
(2.89204 0.040553 0)
(2.88326 0.0276109 0)
(2.85708 0.00608975 0)
(2.8267 -0.0119515 0)
(2.75767 -0.012683 0)
(2.97071 -1.76879 0)
(2.97101 -1.76805 0)
(2.97091 -1.7679 0)
(2.971 -1.76698 0)
(2.97081 -1.76651 0)
(2.9714 -1.76489 0)
(2.97086 -1.76585 0)
(2.97161 -1.7645 0)
(2.97134 -1.76644 0)
(2.97155 -1.76513 0)
(2.97153 -1.76489 0)
(2.97176 -1.76443 0)
(2.97197 -1.76443 0)
(2.97254 -1.76377 0)
(2.97264 -1.7645 0)
(2.95475 -1.72285 0)
(2.90138 -1.60839 0)
(2.78998 -1.32909 0)
(2.70717 -1.0723 0)
(2.5937 -0.683946 0)
(2.57162 -0.487082 0)
(2.49671 -0.192541 0)
(2.48873 -0.0621238 0)
(2.48045 0.0387923 0)
(2.47454 0.115124 0)
(2.49554 0.104894 0)
(2.5154 0.0929173 0)
(2.53473 0.106167 0)
(2.55527 0.0976756 0)
(2.57997 0.0898733 0)
(2.58289 0.0863509 0)
(2.58097 0.0975399 0)
(2.56438 0.113805 0)
(2.60362 0.10279 0)
(2.62544 0.102689 0)
(2.66125 0.110154 0)
(2.68246 0.121694 0)
(2.69669 0.11513 0)
(2.70616 0.100565 0)
(2.72024 0.0917894 0)
(2.73692 0.0962948 0)
(2.74467 0.0896259 0)
(2.75379 0.0818769 0)
(2.76267 0.0719838 0)
(2.76201 0.0555557 0)
(2.76819 0.0428688 0)
(2.76165 0.0298861 0)
(2.72563 0.00348878 0)
(2.69425 -0.0194178 0)
(2.62682 -0.0276172 0)
(2.97118 -1.76545 0)
(2.97148 -1.76554 0)
(2.97199 -1.76498 0)
(2.97205 -1.76526 0)
(2.97258 -1.76471 0)
(2.97285 -1.76489 0)
(2.97327 -1.76484 0)
(2.9737 -1.76458 0)
(2.974 -1.76441 0)
(2.97441 -1.76433 0)
(2.97498 -1.76442 0)
(2.97515 -1.76549 0)
(2.97604 -1.76528 0)
(2.97614 -1.76626 0)
(2.97696 -1.76652 0)
(2.97751 -1.76581 0)
(2.97802 -1.76506 0)
(2.97709 -1.76593 0)
(2.97742 -1.76604 0)
(2.97747 -1.76733 0)
(2.96152 -1.72902 0)
(2.87713 -1.55231 0)
(2.76453 -1.23753 0)
(2.65017 -0.875327 0)
(2.51549 -0.447479 0)
(2.48543 -0.184793 0)
(2.39204 0.0813687 0)
(2.35034 0.219978 0)
(2.38755 0.221992 0)
(2.41182 0.18617 0)
(2.42961 0.127629 0)
(2.44527 0.0768586 0)
(2.45937 0.0713484 0)
(2.48041 0.0976892 0)
(2.49838 0.138062 0)
(2.52473 0.140305 0)
(2.5347 0.124056 0)
(2.5434 0.115173 0)
(2.55198 0.104299 0)
(2.56814 0.0931497 0)
(2.58741 0.0874017 0)
(2.59678 0.0723253 0)
(2.60952 0.0519834 0)
(2.62189 0.0542138 0)
(2.62466 0.0395452 0)
(2.63011 0.0294526 0)
(2.62793 0.0184138 0)
(2.59992 -0.00633279 0)
(2.58031 -0.0107541 0)
(2.51483 -0.00320095 0)
(2.97312 -1.76682 0)
(2.97358 -1.76696 0)
(2.97402 -1.7666 0)
(2.97436 -1.76648 0)
(2.97453 -1.76699 0)
(2.97512 -1.76689 0)
(2.97539 -1.76738 0)
(2.97606 -1.76679 0)
(2.97657 -1.7665 0)
(2.9765 -1.76744 0)
(2.97707 -1.76787 0)
(2.97816 -1.76736 0)
(2.97894 -1.76723 0)
(2.97946 -1.76751 0)
(2.97986 -1.76799 0)
(2.98041 -1.76793 0)
(2.98099 -1.76748 0)
(2.98112 -1.76694 0)
(2.98122 -1.7669 0)
(2.9814 -1.76665 0)
(2.98143 -1.76588 0)
(2.98092 -1.76586 0)
(2.98097 -1.76712 0)
(2.98061 -1.76913 0)
(2.96106 -1.73194 0)
(2.86672 -1.51304 0)
(2.70108 -1.03774 0)
(2.57626 -0.555174 0)
(2.49291 -0.193325 0)
(2.45023 -0.0509023 0)
(2.43513 0.0284649 0)
(2.44507 0.0465412 0)
(2.45744 0.0785008 0)
(2.44648 0.0995631 0)
(2.44188 0.110299 0)
(2.44543 0.116751 0)
(2.44934 0.117375 0)
(2.46035 0.112568 0)
(2.47178 0.0968507 0)
(2.48594 0.0767103 0)
(2.4975 0.0780684 0)
(2.5023 0.0735035 0)
(2.51503 0.0661381 0)
(2.52932 0.062523 0)
(2.53321 0.0443072 0)
(2.53563 0.0359935 0)
(2.53735 0.0289197 0)
(2.52956 0.0019328 0)
(2.51659 -0.024049 0)
(2.44808 -0.0201686 0)
(2.97637 -1.76738 0)
(2.97677 -1.76718 0)
(2.97685 -1.76761 0)
(2.97715 -1.7678 0)
(2.97768 -1.76759 0)
(2.97817 -1.76752 0)
(2.97817 -1.76806 0)
(2.97816 -1.76873 0)
(2.9789 -1.76804 0)
(2.97855 -1.7686 0)
(2.97828 -1.77014 0)
(2.97903 -1.77078 0)
(2.98028 -1.7694 0)
(2.98118 -1.76851 0)
(2.98165 -1.76855 0)
(2.98223 -1.76846 0)
(2.98289 -1.76802 0)
(2.98325 -1.76673 0)
(2.98277 -1.76634 0)
(2.98275 -1.76579 0)
(2.98292 -1.76415 0)
(2.98258 -1.76433 0)
(2.98267 -1.76656 0)
(2.98235 -1.7689 0)
(2.9816 -1.77179 0)
(2.98127 -1.77512 0)
(2.98606 -1.76976 0)
(2.97606 -1.74188 0)
(2.86312 -1.45653 0)
(2.68335 -0.916107 0)
(2.54394 -0.372193 0)
(2.47533 -0.0125426 0)
(2.4488 0.0988638 0)
(2.4567 0.167614 0)
(2.41412 0.13145 0)
(2.42984 0.112375 0)
(2.43608 0.0982731 0)
(2.44789 0.088606 0)
(2.45789 0.0725911 0)
(2.466 0.0684684 0)
(2.47494 0.0725784 0)
(2.47735 0.0562609 0)
(2.48792 0.0468408 0)
(2.50149 0.046852 0)
(2.50436 0.0320027 0)
(2.50549 0.0215466 0)
(2.5079 0.017007 0)
(2.51013 -0.00434866 0)
(2.49908 -0.0196265 0)
(2.42314 -0.00719725 0)
(2.97787 -1.76678 0)
(2.97823 -1.76647 0)
(2.97827 -1.76658 0)
(2.97776 -1.76787 0)
(2.97816 -1.76797 0)
(2.97883 -1.76761 0)
(2.97833 -1.76825 0)
(2.97804 -1.76887 0)
(2.97833 -1.76874 0)
(2.97834 -1.76952 0)
(2.97867 -1.77129 0)
(2.97981 -1.77228 0)
(2.9808 -1.77133 0)
(2.98142 -1.76919 0)
(2.98242 -1.76823 0)
(2.9831 -1.76852 0)
(2.98405 -1.76715 0)
(2.98465 -1.76648 0)
(2.98522 -1.76526 0)
(2.98607 -1.76229 0)
(2.98624 -1.76027 0)
(2.98646 -1.76318 0)
(2.98705 -1.76471 0)
(2.98484 -1.77041 0)
(2.98301 -1.77387 0)
(2.98221 -1.77572 0)
(2.98491 -1.77142 0)
(2.98464 -1.76887 0)
(2.98019 -1.76799 0)
(2.9694 -1.7815 0)
(2.92756 -1.68416 0)
(2.80451 -1.23864 0)
(2.72843 -0.746108 0)
(2.58744 -0.208005 0)
(2.56454 -0.0518418 0)
(2.50159 0.0823592 0)
(2.46077 0.0739986 0)
(2.46694 0.0799576 0)
(2.46976 0.0539499 0)
(2.47663 0.0560089 0)
(2.48238 0.0566188 0)
(2.47955 0.0376082 0)
(2.48805 0.0291536 0)
(2.5016 0.0336414 0)
(2.50378 0.0192839 0)
(2.50436 0.0075376 0)
(2.50735 0.00703255 0)
(2.51108 -0.00717186 0)
(2.50002 -0.0143191 0)
(2.42359 0.00460804 0)
(2.97667 -1.76696 0)
(2.97675 -1.76718 0)
(2.97711 -1.76736 0)
(2.97681 -1.76875 0)
(2.97706 -1.76966 0)
(2.97744 -1.76973 0)
(2.97753 -1.76977 0)
(2.97752 -1.76949 0)
(2.97742 -1.76949 0)
(2.97759 -1.77108 0)
(2.97831 -1.77297 0)
(2.97968 -1.77371 0)
(2.98041 -1.77281 0)
(2.98071 -1.7724 0)
(2.98316 -1.77077 0)
(2.98432 -1.76897 0)
(2.98518 -1.76782 0)
(2.98588 -1.76673 0)
(2.98936 -1.7623 0)
(2.98854 -1.75863 0)
(2.98734 -1.75995 0)
(2.98708 -1.76207 0)
(2.98843 -1.76455 0)
(2.98444 -1.77148 0)
(2.98297 -1.77422 0)
(2.98147 -1.77408 0)
(2.97913 -1.77381 0)
(2.97691 -1.76942 0)
(2.96469 -1.77421 0)
(2.96188 -1.78134 0)
(2.96707 -1.77425 0)
(2.96951 -1.76806 0)
(2.97789 -1.75432 0)
(2.88516 -1.42349 0)
(2.79926 -0.870737 0)
(2.62824 -0.271447 0)
(2.60411 -0.0827161 0)
(2.53335 0.0705858 0)
(2.49358 0.0567101 0)
(2.51892 0.0869437 0)
(2.51507 0.0692293 0)
(2.50672 0.0480019 0)
(2.51531 0.0408228 0)
(2.52762 0.0470149 0)
(2.52842 0.0335341 0)
(2.5281 0.0241622 0)
(2.53073 0.0255339 0)
(2.52958 0.00803706 0)
(2.51202 0.00764308 0)
(2.44368 0.0212661 0)
(2.97639 -1.76627 0)
(2.97616 -1.76646 0)
(2.9762 -1.76894 0)
(2.97634 -1.77001 0)
(2.97649 -1.77103 0)
(2.97614 -1.77165 0)
(2.97594 -1.77259 0)
(2.97628 -1.77334 0)
(2.97698 -1.77404 0)
(2.97835 -1.77517 0)
(2.97929 -1.77656 0)
(2.97933 -1.77766 0)
(2.97923 -1.77905 0)
(2.98032 -1.7788 0)
(2.98419 -1.77379 0)
(2.98447 -1.77049 0)
(2.98286 -1.76989 0)
(2.98543 -1.76503 0)
(2.98712 -1.76138 0)
(2.98698 -1.76072 0)
(2.98549 -1.7615 0)
(2.98606 -1.76246 0)
(2.98645 -1.76732 0)
(2.98306 -1.77373 0)
(2.98082 -1.77243 0)
(2.97456 -1.77301 0)
(2.96924 -1.77074 0)
(2.96911 -1.76435 0)
(2.96751 -1.7676 0)
(2.96769 -1.77493 0)
(2.97353 -1.77734 0)
(2.97684 -1.7582 0)
(2.9846 -1.72512 0)
(2.98755 -1.71617 0)
(2.98482 -1.72897 0)
(2.93589 -1.5171 0)
(2.85592 -1.00281 0)
(2.73655 -0.465974 0)
(2.69784 -0.167777 0)
(2.61025 0.0564596 0)
(2.56081 0.0447449 0)
(2.57496 0.081476 0)
(2.58235 0.0343477 0)
(2.58676 0.0102757 0)
(2.58871 -0.00387262 0)
(2.58878 -0.000661151 0)
(2.59162 0.0052995 0)
(2.57768 -0.0234806 0)
(2.55469 -0.0249798 0)
(2.50037 0.00245465 0)
(2.97734 -1.77113 0)
(2.9776 -1.77166 0)
(2.97799 -1.77166 0)
(2.97794 -1.7723 0)
(2.97894 -1.77493 0)
(2.97901 -1.77667 0)
(2.9793 -1.77705 0)
(2.97985 -1.77796 0)
(2.98022 -1.77877 0)
(2.98098 -1.77877 0)
(2.98138 -1.77771 0)
(2.98092 -1.77813 0)
(2.97969 -1.77899 0)
(2.98037 -1.77653 0)
(2.9824 -1.77202 0)
(2.98271 -1.76945 0)
(2.98167 -1.76856 0)
(2.98421 -1.76435 0)
(2.98554 -1.7619 0)
(2.98564 -1.76137 0)
(2.98459 -1.76168 0)
(2.98153 -1.76513 0)
(2.97505 -1.77694 0)
(2.9751 -1.77826 0)
(2.9735 -1.76827 0)
(2.97001 -1.75817 0)
(2.96712 -1.75595 0)
(2.97273 -1.75463 0)
(2.97697 -1.75303 0)
(2.98958 -1.74783 0)
(2.99152 -1.74982 0)
(2.99395 -1.74051 0)
(2.98436 -1.73358 0)
(2.98289 -1.71018 0)
(2.98465 -1.69782 0)
(3.00115 -1.68831 0)
(3.01527 -1.64949 0)
(2.9986 -1.51073 0)
(2.93689 -1.0791 0)
(2.80803 -0.542178 0)
(2.81447 -0.251054 0)
(2.7027 0.0274769 0)
(2.64169 0.0121172 0)
(2.64511 0.0617721 0)
(2.65623 0.0506177 0)
(2.66585 0.00968178 0)
(2.67126 -0.00207094 0)
(2.65033 -0.0130785 0)
(2.62621 -0.00912646 0)
(2.5819 0.0102431 0)
(2.98659 -1.76938 0)
(2.98713 -1.77164 0)
(2.98727 -1.77295 0)
(2.98742 -1.77303 0)
(2.98735 -1.77365 0)
(2.98669 -1.77467 0)
(2.98666 -1.77541 0)
(2.98569 -1.7768 0)
(2.98352 -1.77744 0)
(2.98322 -1.77709 0)
(2.9828 -1.77571 0)
(2.98194 -1.7754 0)
(2.98066 -1.77529 0)
(2.98054 -1.77244 0)
(2.98197 -1.76842 0)
(2.98166 -1.76573 0)
(2.98001 -1.76086 0)
(2.97995 -1.75892 0)
(2.97877 -1.75866 0)
(2.97853 -1.75856 0)
(2.97703 -1.7608 0)
(2.97355 -1.7673 0)
(2.96992 -1.77333 0)
(2.96747 -1.77489 0)
(2.96676 -1.76256 0)
(2.97134 -1.74672 0)
(2.97962 -1.73477 0)
(2.98285 -1.73357 0)
(2.98863 -1.73044 0)
(3.00171 -1.70688 0)
(3.01376 -1.6772 0)
(3.0122 -1.67092 0)
(3.00897 -1.66532 0)
(3.00396 -1.66215 0)
(2.99985 -1.66724 0)
(3.00796 -1.66141 0)
(3.02644 -1.60801 0)
(3.06241 -1.59315 0)
(3.05615 -1.57436 0)
(3.03729 -1.52269 0)
(3.00062 -1.16797 0)
(2.90402 -0.634602 0)
(2.93344 -0.351107 0)
(2.7662 -0.0189567 0)
(2.71768 0.00451633 0)
(2.72366 0.0212323 0)
(2.74512 0.0327071 0)
(2.71347 -0.0217211 0)
(2.69945 -0.0320589 0)
(2.66253 0.00602945 0)
(2.99004 -1.77333 0)
(2.99027 -1.77324 0)
(2.99001 -1.77339 0)
(2.98984 -1.77316 0)
(2.99017 -1.77282 0)
(2.98906 -1.77318 0)
(2.98856 -1.77388 0)
(2.98874 -1.77308 0)
(2.9849 -1.76493 0)
(2.98245 -1.7601 0)
(2.98275 -1.75729 0)
(2.98201 -1.75773 0)
(2.98112 -1.75383 0)
(2.97815 -1.74576 0)
(2.97569 -1.73759 0)
(2.97672 -1.7309 0)
(2.97092 -1.73325 0)
(2.96922 -1.73975 0)
(2.97157 -1.74511 0)
(2.97118 -1.75596 0)
(2.97554 -1.75499 0)
(2.97522 -1.7585 0)
(2.97745 -1.75281 0)
(2.9782 -1.74754 0)
(2.9772 -1.74503 0)
(2.98268 -1.73896 0)
(2.98728 -1.7144 0)
(2.99683 -1.69743 0)
(3.00037 -1.69346 0)
(3.00689 -1.66445 0)
(3.01465 -1.6396 0)
(3.01195 -1.647 0)
(3.02716 -1.61577 0)
(3.03076 -1.61121 0)
(3.03615 -1.59432 0)
(3.04054 -1.58305 0)
(3.04151 -1.59386 0)
(3.04287 -1.53059 0)
(3.05399 -1.50597 0)
(3.06042 -1.50891 0)
(3.05665 -1.50764 0)
(3.05712 -1.48851 0)
(3.06006 -1.2189 0)
(2.95104 -0.638222 0)
(2.96811 -0.422087 0)
(2.86609 -0.141219 0)
(2.79174 0.00764177 0)
(2.7503 0.0106742 0)
(2.75221 0.00866453 0)
(2.72449 0.00623738 0)
(2.99214 -1.74258 0)
(2.99282 -1.74242 0)
(2.99265 -1.74281 0)
(2.99349 -1.74068 0)
(2.99192 -1.74237 0)
(2.99065 -1.74303 0)
(2.99055 -1.73403 0)
(2.98949 -1.72668 0)
(2.98004 -1.73124 0)
(2.97866 -1.7307 0)
(2.98026 -1.72826 0)
(2.97698 -1.7335 0)
(2.97671 -1.73678 0)
(2.976 -1.73407 0)
(2.97549 -1.72277 0)
(2.9778 -1.71726 0)
(2.98025 -1.717 0)
(2.97842 -1.7239 0)
(2.98119 -1.7293 0)
(2.98524 -1.73171 0)
(2.99004 -1.72691 0)
(2.99162 -1.71586 0)
(2.99907 -1.70529 0)
(3.00535 -1.68962 0)
(3.01297 -1.66928 0)
(3.01562 -1.66025 0)
(3.01732 -1.64974 0)
(3.01851 -1.63359 0)
(3.01395 -1.63164 0)
(3.01677 -1.61451 0)
(3.01394 -1.61652 0)
(3.02316 -1.6051 0)
(3.03761 -1.58572 0)
(3.04602 -1.56341 0)
(3.05164 -1.539 0)
(3.06149 -1.52124 0)
(3.06077 -1.50745 0)
(3.05249 -1.49598 0)
(3.04954 -1.50446 0)
(3.06331 -1.46689 0)
(3.07052 -1.44738 0)
(3.07458 -1.42192 0)
(3.0782 -1.39853 0)
(3.07766 -1.39567 0)
(3.07736 -1.21709 0)
(3.00147 -0.762035 0)
(2.92051 -0.383904 0)
(2.89347 -0.0990116 0)
(2.78621 -0.0122239 0)
(2.75874 0.0430556 0)
(2.96489 -1.77175 0)
(2.96492 -1.77067 0)
(2.96496 -1.76803 0)
(2.96699 -1.76371 0)
(2.96783 -1.76204 0)
(2.96748 -1.75902 0)
(2.96523 -1.74911 0)
(2.96496 -1.7407 0)
(2.96725 -1.73748 0)
(2.9702 -1.73282 0)
(2.9733 -1.72883 0)
(2.97482 -1.72853 0)
(2.97778 -1.7323 0)
(2.97739 -1.72311 0)
(2.98127 -1.70713 0)
(2.98497 -1.70549 0)
(2.99206 -1.70759 0)
(2.99818 -1.68812 0)
(3.00576 -1.68261 0)
(3.01087 -1.6662 0)
(3.01414 -1.64644 0)
(3.01888 -1.63302 0)
(3.02485 -1.61761 0)
(3.03171 -1.59513 0)
(3.03959 -1.57395 0)
(3.03954 -1.56996 0)
(3.0409 -1.56573 0)
(3.03677 -1.57045 0)
(3.03925 -1.5669 0)
(3.03943 -1.56092 0)
(3.04008 -1.55701 0)
(3.04382 -1.55952 0)
(3.05353 -1.54655 0)
(3.05331 -1.5159 0)
(3.06141 -1.48259 0)
(3.06974 -1.46471 0)
(3.07006 -1.45528 0)
(3.06853 -1.45076 0)
(3.06643 -1.44904 0)
(3.07028 -1.42172 0)
(3.079 -1.38734 0)
(3.08591 -1.36562 0)
(3.08797 -1.34979 0)
(3.08744 -1.33402 0)
(3.08684 -1.32471 0)
(3.08847 -1.31441 0)
(3.06746 -1.14023 0)
(3.01559 -0.637737 0)
(2.96272 -0.331433 0)
(2.8165 -0.00780139 0)
(3.02241 -1.58573 0)
(3.02324 -1.58257 0)
(3.02408 -1.58096 0)
(3.02498 -1.57531 0)
(3.02655 -1.57033 0)
(3.02718 -1.57001 0)
(3.02835 -1.56912 0)
(3.02907 -1.57005 0)
(3.03128 -1.57286 0)
(3.03351 -1.56564 0)
(3.0362 -1.55978 0)
(3.03824 -1.5552 0)
(3.0382 -1.55319 0)
(3.03623 -1.55977 0)
(3.03935 -1.55747 0)
(3.04172 -1.55609 0)
(3.041 -1.55939 0)
(3.0419 -1.5559 0)
(3.04269 -1.54837 0)
(3.04253 -1.54331 0)
(3.04028 -1.54605 0)
(3.04191 -1.54363 0)
(3.0419 -1.54216 0)
(3.04311 -1.53906 0)
(3.0419 -1.54677 0)
(3.04619 -1.5373 0)
(3.04582 -1.53888 0)
(3.05058 -1.5296 0)
(3.05759 -1.5223 0)
(3.06045 -1.50678 0)
(3.0632 -1.49034 0)
(3.07179 -1.47172 0)
(3.07308 -1.46104 0)
(3.06938 -1.44516 0)
(3.07009 -1.42243 0)
(3.0675 -1.41894 0)
(3.07887 -1.3948 0)
(3.08656 -1.40684 0)
(3.08389 -1.36649 0)
(3.0855 -1.34821 0)
(3.08914 -1.33281 0)
(3.09293 -1.31692 0)
(3.09344 -1.30656 0)
(3.0933 -1.29522 0)
(3.09436 -1.28247 0)
(3.09775 -1.25714 0)
(3.10034 -1.24335 0)
(3.10251 -1.23888 0)
(3.0823 -1.00943 0)
(2.91599 -0.239379 0)
(3.03027 -1.5792 0)
(3.03098 -1.58068 0)
(3.03236 -1.58143 0)
(3.03269 -1.58148 0)
(3.03376 -1.57962 0)
(3.03601 -1.57651 0)
(3.03776 -1.5728 0)
(3.03815 -1.56518 0)
(3.03671 -1.56572 0)
(3.03743 -1.56571 0)
(3.03936 -1.56139 0)
(3.04088 -1.55937 0)
(3.04255 -1.5536 0)
(3.0441 -1.54707 0)
(3.04402 -1.54499 0)
(3.04548 -1.53953 0)
(3.04433 -1.5396 0)
(3.04347 -1.53963 0)
(3.04193 -1.5428 0)
(3.04265 -1.53839 0)
(3.04472 -1.53089 0)
(3.04528 -1.53283 0)
(3.04646 -1.5228 0)
(3.04967 -1.51201 0)
(3.05296 -1.51012 0)
(3.0581 -1.5038 0)
(3.06111 -1.47454 0)
(3.07032 -1.46821 0)
(3.07525 -1.43928 0)
(3.0787 -1.41298 0)
(3.08422 -1.39111 0)
(3.08851 -1.3755 0)
(3.08684 -1.36762 0)
(3.08516 -1.36123 0)
(3.07673 -1.37669 0)
(3.0808 -1.35877 0)
(3.09167 -1.34497 0)
(3.09411 -1.32159 0)
(3.09777 -1.30852 0)
(3.09812 -1.29954 0)
(3.09902 -1.28342 0)
(3.09916 -1.26834 0)
(3.09786 -1.26506 0)
(3.10104 -1.24302 0)
(3.10304 -1.22917 0)
(3.10445 -1.2113 0)
(3.10771 -1.19777 0)
(3.11217 -1.18541 0)
(3.11441 -1.17505 0)
(3.07256 -0.876998 0)
(3.06809 -1.45516 0)
(3.06861 -1.45001 0)
(3.06908 -1.44836 0)
(3.0683 -1.45014 0)
(3.06908 -1.45059 0)
(3.06882 -1.45473 0)
(3.06928 -1.4549 0)
(3.07007 -1.45003 0)
(3.07108 -1.44725 0)
(3.0727 -1.44412 0)
(3.07202 -1.44691 0)
(3.07276 -1.44724 0)
(3.07375 -1.44161 0)
(3.07487 -1.43663 0)
(3.07669 -1.43439 0)
(3.07851 -1.42797 0)
(3.08102 -1.4195 0)
(3.08317 -1.40858 0)
(3.08539 -1.39583 0)
(3.08745 -1.38447 0)
(3.08904 -1.3725 0)
(3.09114 -1.35625 0)
(3.09125 -1.35121 0)
(3.09313 -1.34126 0)
(3.09496 -1.33392 0)
(3.09437 -1.33367 0)
(3.09476 -1.33115 0)
(3.0931 -1.32925 0)
(3.09388 -1.32293 0)
(3.09008 -1.3285 0)
(3.09359 -1.31984 0)
(3.09038 -1.32667 0)
(3.09372 -1.31244 0)
(3.09596 -1.31267 0)
(3.09716 -1.29828 0)
(3.10325 -1.29432 0)
(3.10003 -1.27267 0)
(3.10488 -1.25038 0)
(3.10484 -1.2488 0)
(3.10612 -1.23557 0)
(3.10819 -1.21877 0)
(3.10489 -1.22024 0)
(3.10622 -1.20709 0)
(3.10862 -1.19102 0)
(3.11033 -1.18048 0)
(3.11106 -1.17444 0)
(3.11423 -1.16596 0)
(3.11738 -1.15043 0)
(3.12094 -1.13889 0)
(3.11825 -1.1327 0)
(3.08815 -1.36703 0)
(3.08808 -1.36564 0)
(3.08855 -1.3642 0)
(3.08925 -1.36078 0)
(3.09097 -1.35507 0)
(3.0909 -1.35272 0)
(3.0902 -1.35532 0)
(3.09079 -1.35421 0)
(3.09193 -1.35208 0)
(3.09288 -1.3474 0)
(3.09392 -1.34202 0)
(3.0933 -1.34112 0)
(3.09347 -1.3396 0)
(3.09399 -1.33784 0)
(3.09491 -1.3333 0)
(3.09493 -1.33043 0)
(3.0935 -1.33202 0)
(3.09437 -1.32793 0)
(3.09344 -1.32777 0)
(3.09259 -1.32753 0)
(3.09144 -1.32907 0)
(3.09154 -1.32569 0)
(3.09153 -1.32449 0)
(3.09246 -1.31835 0)
(3.09329 -1.31386 0)
(3.09612 -1.30187 0)
(3.09639 -1.29833 0)
(3.09786 -1.2892 0)
(3.09797 -1.29118 0)
(3.09921 -1.28057 0)
(3.10131 -1.28104 0)
(3.10105 -1.26648 0)
(3.10463 -1.2571 0)
(3.10804 -1.24033 0)
(3.11013 -1.21818 0)
(3.11265 -1.204 0)
(3.11216 -1.19878 0)
(3.11017 -1.19478 0)
(3.1102 -1.18891 0)
(3.11321 -1.17658 0)
(3.11231 -1.18194 0)
(3.11203 -1.16714 0)
(3.11332 -1.15517 0)
(3.11434 -1.15148 0)
(3.1163 -1.14169 0)
(3.11902 -1.13335 0)
(3.12116 -1.12471 0)
(3.12294 -1.11912 0)
(3.12458 -1.11626 0)
(3.12233 -1.11295 0)
(3.109 -1.24915 0)
(3.10913 -1.24884 0)
(3.10892 -1.24953 0)
(3.10961 -1.25171 0)
(3.11006 -1.25091 0)
(3.10954 -1.24685 0)
(3.11085 -1.24324 0)
(3.11007 -1.24421 0)
(3.11015 -1.2439 0)
(3.1103 -1.24277 0)
(3.11043 -1.24075 0)
(3.11081 -1.23782 0)
(3.11103 -1.23648 0)
(3.11124 -1.23485 0)
(3.11137 -1.23336 0)
(3.11177 -1.23099 0)
(3.11239 -1.2259 0)
(3.11289 -1.22491 0)
(3.11339 -1.22081 0)
(3.11403 -1.21532 0)
(3.11445 -1.211 0)
(3.1144 -1.20931 0)
(3.11485 -1.20121 0)
(3.11463 -1.19787 0)
(3.11421 -1.19606 0)
(3.11517 -1.19758 0)
(3.11615 -1.19119 0)
(3.11687 -1.18234 0)
(3.11797 -1.17242 0)
(3.11825 -1.16784 0)
(3.11842 -1.15882 0)
(3.118 -1.15557 0)
(3.11811 -1.15131 0)
(3.11727 -1.15105 0)
(3.11718 -1.14892 0)
(3.11698 -1.14597 0)
(3.11742 -1.14154 0)
(3.1169 -1.14395 0)
(3.11733 -1.13743 0)
(3.11839 -1.13737 0)
(3.118 -1.12803 0)
(3.11786 -1.124 0)
(3.118 -1.12214 0)
(3.11981 -1.11643 0)
(3.1216 -1.11424 0)
(3.12369 -1.10963 0)
(3.12518 -1.10783 0)
(3.12644 -1.10538 0)
(3.127 -1.10321 0)
(3.12365 -1.10257 0)
(3.12172 -1.15632 0)
(3.12171 -1.15538 0)
(3.12194 -1.15356 0)
(3.12219 -1.15223 0)
(3.12157 -1.15259 0)
(3.12158 -1.1536 0)
(3.122 -1.15371 0)
(3.12207 -1.1515 0)
(3.12184 -1.15095 0)
(3.12153 -1.1508 0)
(3.12149 -1.14982 0)
(3.12127 -1.14959 0)
(3.1211 -1.14867 0)
(3.12102 -1.14747 0)
(3.12083 -1.14699 0)
(3.1207 -1.14622 0)
(3.12062 -1.14525 0)
(3.12075 -1.14342 0)
(3.12077 -1.14254 0)
(3.12073 -1.1415 0)
(3.12057 -1.141 0)
(3.12057 -1.13857 0)
(3.12051 -1.13731 0)
(3.12074 -1.13473 0)
(3.12095 -1.13351 0)
(3.12109 -1.13166 0)
(3.12128 -1.12994 0)
(3.1214 -1.12866 0)
(3.12056 -1.12978 0)
(3.12006 -1.13004 0)
(3.11964 -1.12731 0)
(3.12003 -1.1227 0)
(3.12045 -1.12099 0)
(3.12079 -1.12018 0)
(3.12066 -1.12059 0)
(3.12001 -1.11793 0)
(3.12019 -1.11501 0)
(3.12074 -1.11146 0)
(3.12057 -1.11104 0)
(3.12014 -1.1088 0)
(3.1205 -1.10598 0)
(3.12099 -1.10496 0)
(3.12198 -1.10372 0)
(3.12393 -1.10176 0)
(3.12543 -1.09913 0)
(3.12713 -1.09837 0)
(3.12798 -1.09694 0)
(3.12837 -1.09561 0)
(3.12736 -1.09764 0)
(3.12407 -1.09946 0)
(3.12398 -1.10541 0)
(3.12367 -1.10576 0)
(3.12336 -1.10565 0)
(3.12317 -1.10523 0)
(3.12324 -1.10488 0)
(3.12322 -1.10463 0)
(3.1234 -1.10448 0)
(3.12344 -1.10454 0)
(3.12339 -1.10482 0)
(3.12329 -1.10494 0)
(3.12309 -1.10501 0)
(3.12299 -1.10529 0)
(3.1228 -1.10554 0)
(3.12259 -1.10567 0)
(3.12248 -1.10568 0)
(3.12276 -1.10533 0)
(3.12301 -1.1049 0)
(3.12317 -1.10463 0)
(3.12333 -1.10414 0)
(3.12327 -1.10399 0)
(3.12333 -1.10417 0)
(3.12326 -1.1029 0)
(3.12313 -1.10121 0)
(3.12308 -1.10063 0)
(3.12309 -1.10061 0)
(3.12323 -1.10074 0)
(3.12366 -1.1009 0)
(3.12389 -1.1011 0)
(3.1238 -1.10114 0)
(3.12343 -1.10092 0)
(3.12261 -1.0999 0)
(3.12213 -1.09938 0)
(3.12218 -1.09872 0)
(3.12247 -1.09788 0)
(3.12252 -1.09719 0)
(3.1219 -1.09753 0)
(3.12175 -1.09744 0)
(3.12165 -1.09734 0)
(3.12152 -1.09691 0)
(3.12179 -1.0973 0)
(3.12316 -1.09678 0)
(3.12441 -1.09612 0)
(3.12502 -1.09616 0)
(3.12637 -1.09538 0)
(3.12818 -1.09446 0)
(3.12904 -1.09344 0)
(3.12866 -1.09361 0)
(3.12769 -1.09431 0)
(3.12641 -1.09926 0)
(3.12494 -1.09858 0)
(3.12166 -1.09712 0)
(3.12162 -1.09704 0)
(3.12161 -1.09712 0)
(3.12158 -1.0973 0)
(3.12147 -1.09737 0)
(3.12145 -1.09733 0)
(3.12152 -1.09725 0)
(3.12157 -1.0972 0)
(3.12176 -1.09708 0)
(3.12183 -1.09705 0)
(3.12194 -1.09691 0)
(3.12199 -1.0967 0)
(3.12201 -1.09666 0)
(3.12218 -1.09655 0)
(3.12262 -1.09628 0)
(3.1232 -1.09626 0)
(3.12363 -1.09648 0)
(3.12368 -1.09648 0)
(3.12353 -1.09671 0)
(3.12322 -1.09748 0)
(3.12288 -1.09688 0)
(3.12252 -1.09545 0)
(3.12235 -1.09481 0)
(3.12234 -1.0946 0)
(3.12235 -1.09464 0)
(3.12288 -1.09509 0)
(3.12319 -1.09543 0)
(3.12399 -1.09589 0)
(3.12415 -1.09528 0)
(3.12385 -1.09481 0)
(3.12263 -1.09438 0)
(3.12193 -1.09594 0)
(3.12195 -1.09694 0)
(3.12198 -1.0962 0)
(3.12201 -1.09441 0)
(3.12203 -1.09481 0)
(3.12241 -1.09602 0)
(3.12265 -1.09627 0)
(3.12277 -1.09604 0)
(3.12359 -1.09552 0)
(3.12565 -1.09427 0)
(3.12688 -1.09359 0)
(3.12781 -1.09256 0)
(3.12821 -1.09203 0)
(3.12992 -1.08988 0)
(3.12984 -1.08939 0)
(3.12693 -1.09452 0)
(3.12483 -1.09525 0)
(3.12666 -1.09845 0)
(3.12818 -1.09397 0)
(3.12177 -1.09117 0)
(3.12201 -1.09172 0)
(3.12214 -1.09217 0)
(3.12236 -1.09234 0)
(3.12236 -1.09288 0)
(3.12256 -1.09344 0)
(3.12297 -1.09334 0)
(3.12321 -1.09326 0)
(3.12318 -1.0935 0)
(3.12327 -1.09373 0)
(3.12348 -1.09371 0)
(3.12353 -1.09285 0)
(3.12347 -1.09225 0)
(3.1234 -1.09172 0)
(3.12348 -1.0909 0)
(3.12379 -1.09092 0)
(3.12372 -1.09141 0)
(3.1235 -1.09151 0)
(3.12301 -1.09161 0)
(3.122 -1.09142 0)
(3.12056 -1.09039 0)
(3.12031 -1.09018 0)
(3.12048 -1.0904 0)
(3.12119 -1.09093 0)
(3.12102 -1.09228 0)
(3.12131 -1.09497 0)
(3.12236 -1.09792 0)
(3.12347 -1.09753 0)
(3.12409 -1.09269 0)
(3.12396 -1.08867 0)
(3.12156 -1.08736 0)
(3.12177 -1.09483 0)
(3.12261 -1.09964 0)
(3.12264 -1.09671 0)
(3.1225 -1.09184 0)
(3.12367 -1.09187 0)
(3.1251 -1.09297 0)
(3.12563 -1.09369 0)
(3.12632 -1.0927 0)
(3.12644 -1.09091 0)
(3.12897 -1.08822 0)
(3.12925 -1.08795 0)
(3.13067 -1.08586 0)
(3.13052 -1.08522 0)
(3.12882 -1.08718 0)
(3.12805 -1.08654 0)
(3.12469 -1.09673 0)
(3.12676 -1.08963 0)
(3.1305 -1.0851 0)
(3.13288 -1.06924 0)
(3.11859 -1.09967 0)
(3.11984 -1.10089 0)
(3.12033 -1.10189 0)
(3.12143 -1.10225 0)
(3.12285 -1.1037 0)
(3.12402 -1.1049 0)
(3.12424 -1.10482 0)
(3.12459 -1.10445 0)
(3.12381 -1.10539 0)
(3.12312 -1.10701 0)
(3.12239 -1.10616 0)
(3.1221 -1.10374 0)
(3.12173 -1.1023 0)
(3.12212 -1.09965 0)
(3.12383 -1.0979 0)
(3.12363 -1.09468 0)
(3.12264 -1.09076 0)
(3.1231 -1.0877 0)
(3.12307 -1.085 0)
(3.12251 -1.08421 0)
(3.12221 -1.08562 0)
(3.12241 -1.086 0)
(3.12324 -1.08572 0)
(3.12466 -1.08818 0)
(3.12442 -1.09387 0)
(3.1238 -1.09728 0)
(3.12245 -1.09919 0)
(3.11979 -1.09782 0)
(3.11933 -1.0953 0)
(3.1224 -1.0901 0)
(3.12518 -1.08549 0)
(3.12826 -1.08643 0)
(3.12916 -1.09015 0)
(3.12822 -1.09069 0)
(3.12779 -1.08933 0)
(3.12794 -1.0853 0)
(3.13162 -1.07825 0)
(3.13286 -1.07673 0)
(3.13299 -1.07555 0)
(3.13388 -1.07164 0)
(3.1336 -1.06992 0)
(3.1325 -1.06845 0)
(3.12988 -1.07032 0)
(3.12859 -1.0702 0)
(3.12609 -1.07826 0)
(3.12925 -1.06962 0)
(3.13261 -1.06412 0)
(3.13464 -1.0584 0)
(3.13755 -1.04131 0)
(3.13205 -1.03947 0)
(3.1275 -1.05115 0)
(3.12837 -1.0514 0)
(3.12907 -1.04776 0)
(3.12953 -1.04041 0)
(3.12987 -1.03894 0)
(3.13075 -1.04041 0)
(3.13085 -1.04085 0)
(3.12866 -1.04257 0)
(3.1262 -1.04664 0)
(3.12587 -1.04654 0)
(3.12465 -1.04792 0)
(3.12168 -1.05363 0)
(3.11921 -1.0578 0)
(3.1199 -1.0663 0)
(3.12325 -1.0714 0)
(3.12537 -1.07325 0)
(3.12505 -1.07215 0)
(3.12562 -1.07125 0)
(3.12694 -1.07038 0)
(3.12827 -1.07049 0)
(3.13125 -1.07278 0)
(3.13204 -1.07343 0)
(3.13137 -1.07215 0)
(3.12923 -1.06706 0)
(3.12891 -1.05143 0)
(3.13252 -1.04228 0)
(3.13011 -1.03603 0)
(3.12903 -1.0378 0)
(3.12879 -1.04742 0)
(3.12998 -1.05527 0)
(3.13222 -1.05856 0)
(3.13277 -1.05025 0)
(3.13295 -1.04039 0)
(3.13151 -1.03666 0)
(3.13138 -1.03968 0)
(3.13158 -1.04398 0)
(3.13166 -1.04064 0)
(3.1324 -1.03595 0)
(3.13012 -1.03893 0)
(3.12927 -1.03942 0)
(3.12824 -1.04369 0)
(3.12972 -1.03982 0)
(3.13054 -1.04297 0)
(3.13202 -1.03681 0)
(3.13372 -1.03343 0)
(3.13844 -1.02511 0)
(3.13902 -1.0203 0)
(3.13778 -1.00596 0)
(3.1357 -1.005 0)
(3.12981 -1.0064 0)
(3.12938 -1.02116 0)
(3.12934 -1.02113 0)
(3.12924 -1.01881 0)
(3.1303 -1.01489 0)
(3.1309 -1.01441 0)
(3.13197 -1.01485 0)
(3.13238 -1.01629 0)
(3.13312 -1.01719 0)
(3.13315 -1.02006 0)
(3.13312 -1.02379 0)
(3.1335 -1.02409 0)
(3.13453 -1.02313 0)
(3.13577 -1.02044 0)
(3.13536 -1.01806 0)
(3.13484 -1.01501 0)
(3.13542 -1.01229 0)
(3.13594 -1.01085 0)
(3.13677 -1.00981 0)
(3.13613 -1.00794 0)
(3.13649 -1.00465 0)
(3.13683 -1.00212 0)
(3.13291 -1.00251 0)
(3.1289 -1.00539 0)
(3.12808 -1.01128 0)
(3.12966 -1.01798 0)
(3.13248 -1.02083 0)
(3.1344 -1.01789 0)
(3.1341 -1.01456 0)
(3.1356 -1.00653 0)
(3.13677 -1.00183 0)
(3.13241 -1.00042 0)
(3.13072 -1.00521 0)
(3.13257 -1.01116 0)
(3.13355 -1.00856 0)
(3.13533 -1.00153 0)
(3.13397 -1.00182 0)
(3.13321 -1.00278 0)
(3.13282 -1.00193 0)
(3.13358 -1.00075 0)
(3.13549 -0.995494 0)
(3.1365 -0.992982 0)
(3.13808 -0.989406 0)
(3.14131 -0.980851 0)
(3.13997 -0.975156 0)
(3.14057 -0.962624 0)
(3.14006 -0.957891 0)
(3.1372 -0.956826 0)
(3.13363 -0.959226 0)
(3.13169 -0.96575 0)
(3.13246 -0.960021 0)
(3.13734 -0.927882 0)
(3.1375 -0.928335 0)
(3.13783 -0.930008 0)
(3.13795 -0.93242 0)
(3.13832 -0.93255 0)
(3.13902 -0.931563 0)
(3.13972 -0.9302 0)
(3.13956 -0.927098 0)
(3.13913 -0.925872 0)
(3.13941 -0.9265 0)
(3.13973 -0.92784 0)
(3.14008 -0.92758 0)
(3.1399 -0.927353 0)
(3.13955 -0.927587 0)
(3.13938 -0.927197 0)
(3.13956 -0.926692 0)
(3.1389 -0.927556 0)
(3.13823 -0.929212 0)
(3.13818 -0.929936 0)
(3.13836 -0.929669 0)
(3.13871 -0.929412 0)
(3.13934 -0.929111 0)
(3.14089 -0.92798 0)
(3.14073 -0.926268 0)
(3.14005 -0.922216 0)
(3.1407 -0.918642 0)
(3.13967 -0.917732 0)
(3.13662 -0.920071 0)
(3.13658 -0.922523 0)
(3.13865 -0.923095 0)
(3.13944 -0.922346 0)
(3.14081 -0.917273 0)
(3.14146 -0.914132 0)
(3.14008 -0.913158 0)
(3.13985 -0.912558 0)
(3.13995 -0.911511 0)
(3.14077 -0.908716 0)
(3.14217 -0.904607 0)
(3.14146 -0.902537 0)
(3.14096 -0.898741 0)
(3.14125 -0.896583 0)
(3.14095 -0.894518 0)
(3.13972 -0.894418 0)
(3.13868 -0.895171 0)
(3.13676 -0.899793 0)
(3.13636 -0.900554 0)
(3.13468 -0.906504 0)
(3.1366 -0.905502 0)
(3.1381 -0.903598 0)
(3.1388 -0.896667 0)
(3.14052 -0.823358 0)
(3.14082 -0.822344 0)
(3.14042 -0.820561 0)
(3.14049 -0.820525 0)
(3.14029 -0.821335 0)
(3.14008 -0.82284 0)
(3.14028 -0.824692 0)
(3.14053 -0.824689 0)
(3.14047 -0.823243 0)
(3.13996 -0.822204 0)
(3.14035 -0.823645 0)
(3.14052 -0.824603 0)
(3.1407 -0.824529 0)
(3.14069 -0.824211 0)
(3.14064 -0.823942 0)
(3.14065 -0.82362 0)
(3.14076 -0.823085 0)
(3.14066 -0.822374 0)
(3.14051 -0.822112 0)
(3.14064 -0.822625 0)
(3.14046 -0.823337 0)
(3.14044 -0.823563 0)
(3.14021 -0.823823 0)
(3.13974 -0.824377 0)
(3.1396 -0.824555 0)
(3.13995 -0.824441 0)
(3.14018 -0.824529 0)
(3.14057 -0.825159 0)
(3.14085 -0.824942 0)
(3.14059 -0.823898 0)
(3.14024 -0.823685 0)
(3.13931 -0.82454 0)
(3.13968 -0.826047 0)
(3.14009 -0.826313 0)
(3.14039 -0.826094 0)
(3.13999 -0.826389 0)
(3.13893 -0.827953 0)
(3.13895 -0.82875 0)
(3.13888 -0.829926 0)
(3.13882 -0.830952 0)
(3.13777 -0.833265 0)
(3.13782 -0.834268 0)
(3.13765 -0.83628 0)