/*--------------------------------*- C++ -*----------------------------------*\
  =========                 |
  \\      /  F ield         | OpenFOAM: The Open Source CFD Toolbox
   \\    /   O peration     | Website:  https://openfoam.org
    \\  /    A nd           | Version:  7
     \\/     M anipulation  |
\*---------------------------------------------------------------------------*/
FoamFile
{
    version     2.0;
    format      ascii;
    class       volScalarField;
    location    "7.5";
    object      p;
}
// * * * * * * * * * * * * * * * * * * * * * * * * * * * * * * * * * * * * * //

dimensions      [1 -1 -2 0 0 0 0];

internalField   nonuniform List<scalar> 
24000
(
0.432298
0.466434
0.504465
0.543345
0.583116
0.622979
0.663742
0.704524
0.744834
0.784243
0.820731
0.856065
0.886483
0.915365
0.937738
0.960624
0.973012
0.988271
0.994251
0.999134
1.00228
1.0023
1.00036
0.995179
0.98526
0.978846
0.981829
0.987643
0.994996
1.00082
1.00392
1.00127
0.995078
0.989779
0.990204
0.994222
0.99837
0.997023
0.994184
0.993788
0.995528
0.997616
0.996008
0.994905
0.995876
0.99701
0.997004
0.99717
0.997285
0.996626
0.404348
0.40448
0.404882
0.405721
0.407447
0.410366
0.415574
0.423219
0.435336
0.451479
0.474768
0.503418
0.540845
0.58414
0.634598
0.688525
0.745314
0.799428
0.847678
0.894489
0.92374
0.949441
0.965122
0.971476
0.973692
0.985303
0.994177
1.00246
1.00684
1.00682
1.00391
0.995734
0.991238
0.99084
0.994676
0.999935
0.998467
0.993768
0.992751
0.994751
0.998589
0.997791
0.9938
0.993984
0.996227
0.997493
0.997208
0.997289
0.99717
0.99607
0.403622
0.403611
0.403602
0.403593
0.403598
0.403633
0.403644
0.403635
0.403654
0.403851
0.404312
0.405217
0.407131
0.410469
0.417333
0.428381
0.448918
0.477497
0.52225
0.577366
0.647176
0.723108
0.796255
0.869331
0.92797
0.971544
0.98362
0.9943
0.999409
0.998526
0.987269
0.988044
0.991333
0.998885
1.003
1.00097
0.993473
0.991091
0.992871
1.00039
1.00012
0.995412
0.992697
0.994457
0.997679
0.997358
0.997153
0.997555
0.997147
0.995867
0.403303
0.403281
0.40327
0.403283
0.403259
0.403234
0.403261
0.403292
0.40325
0.403182
0.403189
0.403228
0.403217
0.403192
0.403202
0.40336
0.403742
0.404548
0.406733
0.411356
0.4228
0.44337
0.483965
0.543944
0.629137
0.724927
0.809356
0.887593
0.923772
0.952863
0.961582
0.986225
1.00255
1.01194
1.00793
0.99512
0.987193
0.989603
0.999949
1.00465
0.999974
0.991575
0.991977
0.996865
0.998387
0.996769
0.997334
0.99769
0.996565
0.995297
0.403264
0.40327
0.403274
0.403279
0.403278
0.403265
0.403263
0.403311
0.403329
0.403349
0.403418
0.403481
0.403581
0.403748
0.403945
0.40414
0.404373
0.404758
0.404852
0.404919
0.405013
0.405208
0.406081
0.4092
0.420223
0.444959
0.501735
0.584734
0.693859
0.809648
0.902221
0.969732
0.987463
1.00016
0.997752
0.982002
0.98537
0.99775
1.00652
1.00422
0.991964
0.988593
0.994822
0.998573
0.99714
0.996295
0.99788
0.997782
0.995943
0.995375
0.403374
0.403391
0.403422
0.403454
0.403478
0.403493
0.403537
0.403605
0.403666
0.40376
0.403909
0.404103
0.40435
0.404643
0.404901
0.4051
0.405283
0.405409
0.405457
0.405484
0.405505
0.40539
0.405305
0.405152
0.404836
0.404896
0.406425
0.412908
0.438094
0.492293
0.596638
0.727529
0.83025
0.928524
0.947285
0.967937
0.995252
1.01254
1.01068
0.994591
0.98602
0.992583
1.00154
1
0.995086
0.996069
0.998738
0.99752
0.995088
0.995202
0.403208
0.403244
0.403252
0.403277
0.403331
0.403362
0.403407
0.40348
0.403573
0.403689
0.40387
0.404063
0.404238
0.404438
0.404751
0.405172
0.40535
0.405385
0.405452
0.405551
0.405499
0.405306
0.405083
0.40488
0.404683
0.404494
0.403968
0.403004
0.403088
0.4047
0.415506
0.44739
0.535128
0.664531
0.80508
0.936533
0.981503
1.00275
0.996185
0.976952
0.985285
1.00307
1.00278
0.996321
0.994157
0.997683
0.999034
0.996826
0.9946
0.995403
0.403403
0.403399
0.403392
0.40339
0.403389
0.403389
0.403462
0.40348
0.403499
0.403645
0.403863
0.403894
0.403925
0.404077
0.404432
0.404744
0.404819
0.404863
0.404995
0.405072
0.404978
0.404836
0.404618
0.404483
0.40446
0.404374
0.40413
0.403575
0.402661
0.402214
0.402397
0.403348
0.409026
0.429672
0.502824
0.631711
0.773497
0.89464
0.940028
0.964323
1.00777
1.01423
1.00437
0.988918
0.993524
1.00098
0.999484
0.994064
0.994359
0.995938
0.403806
0.403739
0.403687
0.403635
0.403577
0.403505
0.403414
0.403372
0.403372
0.403353
0.403339
0.403357
0.403345
0.403306
0.403294
0.403357
0.403438
0.403494
0.403619
0.40375
0.403853
0.403916
0.404003
0.404184
0.404502
0.404748
0.404768
0.404597
0.403969
0.403331
0.403206
0.403405
0.403765
0.404489
0.407777
0.423697
0.486905
0.612581
0.796797
0.929193
1.00235
1.00091
0.980425
0.986507
1.00185
1.00219
0.995141
0.992475
0.995293
0.996435
0.403623
0.403564
0.403504
0.403306
0.40319
0.403131
0.40303
0.402851
0.402683
0.402553
0.402438
0.402274
0.402039
0.401875
0.401878
0.401944
0.401957
0.401934
0.40194
0.402116
0.402464
0.40276
0.403135
0.403678
0.404495
0.405351
0.405537
0.405535
0.4053
0.404615
0.403942
0.403737
0.403549
0.403344
0.403277
0.403592
0.406032
0.422369
0.48881
0.637434
0.829877
0.90538
0.954628
0.997955
1.01155
1.00312
0.988373
0.991886
0.997888
0.996801
0.403104
0.403024
0.402997
0.402857
0.402667
0.402658
0.402642
0.402463
0.402327
0.402284
0.402228
0.402035
0.401691
0.401517
0.401584
0.401653
0.401636
0.401601
0.401619
0.401805
0.402142
0.402445
0.402886
0.403586
0.404616
0.405674
0.405997
0.405975
0.405731
0.404944
0.404106
0.403805
0.403556
0.402793
0.402445
0.402547
0.403441
0.404596
0.407244
0.430352
0.510492
0.687067
0.892949
0.977162
1.00259
0.978616
0.983873
0.998501
0.998889
0.995399
0.402552
0.40243
0.402403
0.40251
0.402658
0.402776
0.402846
0.402861
0.402851
0.402805
0.40281
0.402745
0.402348
0.40214
0.402202
0.402207
0.402127
0.402103
0.402326
0.402711
0.402947
0.403184
0.403319
0.403685
0.404602
0.405498
0.405871
0.405923
0.405644
0.404513
0.403755
0.403797
0.403676
0.402685
0.402131
0.402248
0.40354
0.40538
0.40551
0.405709
0.408879
0.445589
0.564711
0.740392
0.9113
0.941754
0.994119
1.00489
0.997292
0.993428
0.402654
0.402798
0.402949
0.403407
0.403867
0.403907
0.403987
0.404525
0.405159
0.40533
0.4054
0.405311
0.4053
0.405479
0.405475
0.405454
0.405336
0.405136
0.405027
0.405089
0.404972
0.404424
0.403959
0.403722
0.403543
0.403646
0.4038
0.404086
0.40466
0.404363
0.404042
0.404278
0.404315
0.403257
0.402479
0.402722
0.404171
0.405787
0.406096
0.405948
0.404845
0.40496
0.413769
0.47759
0.642343
0.846043
0.990405
0.992257
0.981709
0.992323
0.403284
0.403565
0.403915
0.404384
0.404736
0.405274
0.406009
0.406509
0.406797
0.406906
0.406852
0.406654
0.406597
0.406648
0.406732
0.406663
0.406448
0.406147
0.405751
0.405316
0.404559
0.403241
0.402864
0.402743
0.402021
0.400997
0.400883
0.401257
0.402373
0.403068
0.403197
0.4038
0.404743
0.404581
0.40384
0.403918
0.404631
0.405734
0.405985
0.40568
0.404313
0.402694
0.402764
0.405406
0.429817
0.551495
0.776247
0.881063
0.958592
0.999905
0.404151
0.404179
0.404144
0.404373
0.404737
0.405069
0.405864
0.406455
0.406345
0.406094
0.405504
0.404782
0.404666
0.404915
0.405272
0.405281
0.405319
0.405435
0.405397
0.405084
0.404145
0.402491
0.40214
0.402079
0.400955
0.399181
0.399138
0.399712
0.401189
0.402462
0.402996
0.403775
0.405138
0.405831
0.405745
0.405431
0.404581
0.403831
0.403779
0.403614
0.40298
0.402188
0.402271
0.403031
0.404717
0.415294
0.476069
0.669174
0.892418
0.986681
0.402969
0.402436
0.402356
0.402419
0.402536
0.40251
0.402713
0.403033
0.402765
0.402653
0.401767
0.399958
0.399556
0.39986
0.400657
0.40141
0.40221
0.402532
0.402715
0.402877
0.402814
0.402299
0.402275
0.402651
0.401831
0.399898
0.39878
0.399072
0.400966
0.403213
0.403681
0.403945
0.40483
0.40624
0.406585
0.406002
0.403729
0.40147
0.401046
0.401099
0.40136
0.401269
0.401637
0.404052
0.405706
0.405121
0.406479
0.44303
0.569429
0.835044
0.406899
0.406879
0.406735
0.406228
0.406149
0.406217
0.405887
0.405803
0.406841
0.407407
0.405901
0.403756
0.403577
0.404003
0.405402
0.406671
0.406993
0.407233
0.407681
0.407733
0.407963
0.409714
0.412452
0.41527
0.416444
0.415759
0.413857
0.41128
0.409445
0.408439
0.407497
0.406567
0.406062
0.406979
0.408497
0.40812
0.40477
0.401497
0.40103
0.401187
0.40199
0.403674
0.405328
0.406726
0.405898
0.403729
0.401631
0.402547
0.41482
0.60498
0.440709
0.440071
0.437486
0.436639
0.436871
0.437689
0.437754
0.437905
0.440328
0.44189
0.440194
0.434598
0.432136
0.431578
0.431083
0.430443
0.428847
0.427676
0.427064
0.425524
0.425307
0.427299
0.428479
0.429052
0.430158
0.430085
0.42855
0.425897
0.422827
0.419114
0.416893
0.415303
0.411266
0.408555
0.408426
0.408388
0.408804
0.408382
0.406589
0.407143
0.409756
0.411674
0.410883
0.408948
0.404643
0.402699
0.401555
0.402955
0.404357
0.44037
0.478523
0.479522
0.479202
0.477099
0.476394
0.476706
0.476762
0.4761
0.47603
0.476655
0.477314
0.476541
0.474031
0.471907
0.468702
0.46709
0.468455
0.468377
0.465467
0.460991
0.456954
0.455088
0.453718
0.449878
0.442803
0.439807
0.440298
0.44324
0.445526
0.445398
0.443728
0.441503
0.438051
0.432821
0.430175
0.430295
0.432202
0.43325
0.431879
0.428985
0.425581
0.422322
0.417528
0.412655
0.406623
0.406531
0.408122
0.411881
0.410846
0.409268
0.536495
0.537793
0.538056
0.537293
0.533638
0.530699
0.530758
0.530687
0.529406
0.527946
0.527244
0.527049
0.52777
0.527167
0.523669
0.522747
0.523961
0.523451
0.52237
0.522232
0.520659
0.518541
0.516795
0.513902
0.510269
0.505546
0.497887
0.493539
0.493796
0.492986
0.489592
0.488065
0.486387
0.48121
0.475507
0.470944
0.465645
0.459181
0.454005
0.448147
0.441938
0.435496
0.430876
0.42743
0.428368
0.429749
0.427959
0.423906
0.416868
0.409168
0.619119
0.620314
0.620267
0.618482
0.616707
0.616571
0.615167
0.612691
0.612529
0.610973
0.608513
0.608487
0.608228
0.605721
0.600735
0.596697
0.592485
0.59038
0.588193
0.582349
0.579631
0.578357
0.573666
0.570536
0.570994
0.570262
0.56476
0.55886
0.556063
0.549631
0.538011
0.532339
0.528018
0.524134
0.519375
0.513597
0.506844
0.49882
0.491628
0.487004
0.483294
0.478305
0.475132
0.470911
0.465976
0.458392
0.448931
0.439136
0.430572
0.426706
0.713708
0.713013
0.713356
0.713072
0.709729
0.706245
0.706234
0.706043
0.704663
0.700614
0.697052
0.697075
0.696505
0.693056
0.689735
0.685906
0.682515
0.682516
0.681913
0.678099
0.671761
0.666521
0.661724
0.657041
0.651005
0.644367
0.638511
0.632451
0.629915
0.625716
0.618641
0.610956
0.599601
0.593148
0.589137
0.582687
0.573777
0.565571
0.557073
0.549173
0.540264
0.530846
0.51977
0.508841
0.496955
0.485097
0.476111
0.466249
0.465044
0.457704
0.824049
0.822375
0.822526
0.823873
0.82332
0.820472
0.817224
0.813527
0.813132
0.812993
0.810402
0.804964
0.801706
0.800103
0.797743
0.793716
0.789015
0.784776
0.78071
0.776389
0.771132
0.765358
0.759625
0.753752
0.748097
0.741837
0.734836
0.727192
0.718851
0.709474
0.699004
0.691623
0.683655
0.674383
0.662785
0.651402
0.641075
0.629639
0.618567
0.606141
0.594441
0.581789
0.569989
0.558202
0.546558
0.537103
0.528631
0.520542
0.510417
0.491969
0.941151
0.93862
0.937812
0.936971
0.936732
0.935695
0.93342
0.930687
0.92625
0.925261
0.92474
0.921797
0.917372
0.914259
0.911637
0.908295
0.903622
0.89872
0.894101
0.889288
0.884076
0.878161
0.871619
0.864789
0.857341
0.849612
0.84106
0.831798
0.82259
0.81321
0.80282
0.791485
0.777505
0.766688
0.755231
0.741682
0.727582
0.714257
0.700599
0.686302
0.672371
0.657836
0.644398
0.629902
0.616264
0.600577
0.585402
0.568435
0.551905
0.528384
1.02384
1.02299
1.0225
1.02155
1.01975
1.01838
1.01838
1.01826
1.01693
1.0142
1.01243
1.01165
1.01027
1.00787
1.00527
1.00286
1.00032
0.997367
0.993946
0.990197
0.986057
0.981466
0.976371
0.970603
0.964317
0.957124
0.949361
0.940815
0.931689
0.921992
0.910589
0.899025
0.886722
0.872236
0.857417
0.842748
0.82654
0.809799
0.792128
0.774697
0.756001
0.737778
0.718722
0.699583
0.680699
0.661151
0.6427
0.622961
0.607615
0.58394
1.05279
1.05266
1.05249
1.05236
1.05221
1.05221
1.05226
1.05216
1.05171
1.05095
1.05076
1.05064
1.05023
1.04948
1.04877
1.04805
1.04723
1.04629
1.04513
1.04375
1.04226
1.04054
1.03854
1.03633
1.03369
1.03045
1.02645
1.02193
1.01663
1.01035
1.00321
0.994636
0.984958
0.973832
0.961015
0.946721
0.931194
0.914071
0.895557
0.875894
0.854921
0.833384
0.811114
0.788992
0.766145
0.74426
0.722646
0.700708
0.681943
0.648991
1.05518
1.05517
1.05515
1.05513
1.05513
1.05517
1.05523
1.05522
1.05523
1.0553
1.05544
1.05561
1.05572
1.05575
1.05574
1.05574
1.05572
1.05561
1.05558
1.05549
1.05524
1.05498
1.05474
1.05449
1.05422
1.05372
1.05284
1.05167
1.05041
1.04902
1.04728
1.04491
1.04156
1.03714
1.03138
1.02397
1.01463
1.00322
0.989682
0.973686
0.955253
0.934242
0.911153
0.886628
0.860519
0.833883
0.806459
0.778938
0.753813
0.713011
1.05471
1.05459
1.05455
1.05456
1.05454
1.05447
1.05448
1.05447
1.05448
1.0546
1.05482
1.05498
1.05515
1.05524
1.05524
1.05516
1.05513
1.0551
1.05495
1.05485
1.05483
1.05483
1.05489
1.05504
1.05537
1.05566
1.05576
1.05572
1.05539
1.05481
1.05441
1.05425
1.05419
1.05404
1.05351
1.05233
1.05033
1.04718
1.04259
1.03619
1.02743
1.01547
0.999915
0.980534
0.957805
0.931668
0.903444
0.872655
0.844624
0.798201
1.05006
1.05015
1.05023
1.05026
1.05024
1.0502
1.05033
1.05069
1.05076
1.05082
1.05119
1.05151
1.05163
1.05186
1.05208
1.0522
1.05223
1.05224
1.05237
1.0525
1.05237
1.05229
1.05246
1.05284
1.05327
1.05363
1.05385
1.0541
1.05441
1.05445
1.05432
1.05436
1.05445
1.05439
1.0543
1.05441
1.05454
1.05443
1.05399
1.05326
1.05203
1.04976
1.04561
1.03868
1.02794
1.0127
0.992434
0.966542
0.93962
0.888751
1.03561
1.03593
1.03603
1.03594
1.03578
1.03586
1.03627
1.03696
1.03709
1.03713
1.03743
1.03804
1.03817
1.03832
1.03885
1.03945
1.03978
1.04014
1.04064
1.04127
1.04204
1.04273
1.04335
1.0441
1.04474
1.04539
1.04602
1.04657
1.04728
1.04811
1.0489
1.04991
1.05107
1.05131
1.05156
1.05208
1.05277
1.05318
1.05344
1.0534
1.05333
1.05325
1.05308
1.05257
1.05135
1.04845
1.04253
1.03177
1.01685
0.978111
1.01366
1.01383
1.01399
1.01418
1.01452
1.01483
1.01482
1.01488
1.01517
1.01579
1.01613
1.01617
1.01639
1.01702
1.01756
1.01798
1.01847
1.01908
1.01978
1.0205
1.02127
1.02211
1.02302
1.02397
1.02495
1.02601
1.02725
1.02859
1.03009
1.03168
1.03322
1.03482
1.03645
1.03815
1.04037
1.04205
1.04361
1.04538
1.04711
1.04864
1.04977
1.05087
1.05152
1.05217
1.05217
1.05209
1.05177
1.05074
1.04827
1.03436
1.00196
1.00198
1.002
1.00205
1.00211
1.0022
1.00227
1.00232
1.00237
1.00246
1.00261
1.00272
1.00281
1.00295
1.00311
1.00327
1.00346
1.0037
1.00395
1.00424
1.00457
1.00493
1.00536
1.00584
1.00638
1.007
1.00774
1.00859
1.00956
1.01067
1.01193
1.01333
1.015
1.01686
1.01889
1.02129
1.02376
1.02655
1.02948
1.0326
1.0357
1.0388
1.04172
1.04449
1.04678
1.04847
1.04968
1.05029
1.05028
1.04907
1.00008
1.00008
1.00008
1.00008
1.00009
1.00009
1.00009
1.0001
1.00011
1.00011
1.00012
1.00013
1.00014
1.00015
1.00016
1.00017
1.00019
1.00021
1.00023
1.00026
1.00029
1.00033
1.00038
1.00044
1.00051
1.0006
1.00071
1.00085
1.00103
1.00125
1.00153
1.00189
1.00234
1.00293
1.00367
1.00461
1.00581
1.00732
1.00919
1.01147
1.01427
1.01748
1.02123
1.02535
1.02971
1.03423
1.03849
1.04221
1.04524
1.04757
1
1
1
1
1
1
1
1
1
1
1
1
1
1
1
1
1
1
1
1
1.00001
1.00001
1.00001
1.00001
1.00001
1.00001
1.00002
1.00002
1.00003
1.00004
1.00006
1.00008
1.0001
1.00015
1.00021
1.0003
1.00045
1.00066
1.00097
1.00145
1.00215
1.00318
1.00464
1.00666
1.00946
1.01298
1.01739
1.02268
1.02786
1.03595
1
1
1
1
1
1
1
1
1
1
1
1
1
1
1
1
1
1
1
1
1
1
1
1
1
1
1
1
1
1
1
1
1
1
1
1.00001
1.00001
1.00002
1.00003
1.00005
1.00009
1.00017
1.00032
1.00058
1.00104
1.00184
1.00317
1.00537
1.00824
1.01566
1
1
1
1
1
1
1
1
1
1
1
1
1
1
1
1
1
1
1
1
1
1
1
1
1
1
1
1
1
1
1
1
1
1
1
1
1
1
1
1
1
1
1.00001
1.00001
1.00003
1.00008
1.00018
1.00041
1.00083
1.00289
1
1
1
1
1
1
1
1
1
1
1
1
1
1
1
1
1
1
1
1
1
1
1
1
1
1
1
1
1
1
1
1
1
1
1
1
1
1
1
1
1
1
1
1
1
1
1
1.00001
1.00003
1.0002
1
1
1
1
1
1
1
1
1
1
1
1
1
1
1
1
1
1
1
1
1
1
1
1
1
1
1
1
1
1
1
1
1
1
1
1
1
1
1
1
1
1
1
1
1
1
1
1
1
1.00001
1
1
1
1
1
1
1
1
1
1
1
1
1
1
1
1
1
1
1
1
1
1
1
1
1
1
1
1
1
1
1
1
1
1
1
1
1
1
1
1
1
1
1
1
1
1
1
1
1
1
1
1
1
1
1
1
1
1
1
1
1
1
1
1
1
1
1
1
1
1
1
1
1
1
1
1
1
1
1
1
1
1
1
1
1
1
1
1
1
1
1
1
1
1
1
1
1
1
1
1
0.405001
0.404315
0.403635
0.403314
0.403252
0.403351
0.403175
0.403399
0.403884
0.403803
0.403332
0.402702
0.402573
0.403011
0.403922
0.403292
0.407175
0.440552
0.477107
0.535514
0.618256
0.716563
0.828622
0.944414
1.02462
1.0529
1.05523
1.05477
1.0499
1.0351
1.01347
1.0019
1.00007
1
1
1
1
1
1
1
0.404963
0.404279
0.40362
0.403306
0.403246
0.40332
0.403136
0.403402
0.403969
0.403946
0.403707
0.403038
0.402567
0.402798
0.403605
0.403385
0.40865
0.440939
0.476325
0.53596
0.620252
0.720003
0.83317
0.94696
1.02559
1.05313
1.05533
1.0548
1.04974
1.03461
1.01318
1.0018
1.00007
1
1
1
1
1
1
1
0.404926
0.404263
0.40362
0.403313
0.403242
0.403291
0.403103
0.403398
0.404046
0.403994
0.403962
0.403493
0.402778
0.402709
0.403409
0.403303
0.410415
0.441498
0.475498
0.53811
0.62508
0.721789
0.83556
0.948969
1.02655
1.05334
1.05542
1.05482
1.04961
1.03433
1.01291
1.00172
1.00006
1
1
1
1
1
1
1
0.404897
0.404242
0.40363
0.403336
0.403247
0.403254
0.403071
0.403407
0.404121
0.404016
0.404151
0.403831
0.403154
0.402698
0.40337
0.403254
0.412028
0.444434
0.475633
0.542023
0.628222
0.724106
0.838518
0.95123
1.02833
1.05354
1.0555
1.05483
1.04946
1.034
1.01258
1.00165
1.00006
1
1
1
1
1
1
1
0.404852
0.404188
0.403615
0.403331
0.403254
0.403224
0.40303
0.403422
0.404214
0.404073
0.404352
0.404069
0.403307
0.4027
0.403429
0.403279
0.413277
0.447135
0.477227
0.545686
0.630316
0.728243
0.841617
0.954077
1.03003
1.05374
1.05552
1.05483
1.04931
1.03367
1.01224
1.00158
1.00006
1
1
1
1
1
1
1
0.404787
0.404092
0.403548
0.403277
0.403263
0.403209
0.402995
0.403425
0.404329
0.404377
0.40466
0.40425
0.403302
0.402473
0.403724
0.403752
0.414182
0.448219
0.478573
0.548546
0.632804
0.73171
0.845404
0.958136
1.03138
1.0539
1.0555
1.05484
1.04913
1.03335
1.01192
1.0015
1.00005
1
1
1
1
1
1
1
0.4047
0.404001
0.403495
0.403233
0.403294
0.40321
0.402981
0.403426
0.40446
0.404771
0.405024
0.404433
0.403252
0.402084
0.403846
0.405064
0.414853
0.448803
0.480537
0.551345
0.635106
0.735045
0.849725
0.961559
1.03273
1.05407
1.0555
1.05488
1.04891
1.03285
1.01155
1.00141
1.00005
1
1
1
1
1
1
1
0.404598
0.403927
0.403456
0.403212
0.403345
0.403214
0.40298
0.403443
0.404639
0.405049
0.405359
0.404667
0.403285
0.401767
0.403711
0.405853
0.415347
0.449329
0.48558
0.555234
0.637261
0.738833
0.853644
0.964596
1.03413
1.05424
1.05565
1.0549
1.04868
1.03234
1.01114
1.00133
1.00004
1
1
1
1
1
1
1
0.404487
0.403852
0.403419
0.403205
0.403404
0.403216
0.402981
0.40354
0.404882
0.405313
0.405697
0.404949
0.403449
0.40152
0.403495
0.40586
0.415678
0.450153
0.488775
0.559181
0.640087
0.742911
0.857636
0.967823
1.03557
1.05441
1.05584
1.05487
1.04844
1.03187
1.01077
1.00125
1.00004
1
1
1
1
1
1
1
0.404359
0.403771
0.40339
0.403227
0.403463
0.403213
0.403001
0.403707
0.405127
0.405585
0.406043
0.405247
0.403583
0.401247
0.403242
0.40567
0.415917
0.451927
0.490078
0.562205
0.643856
0.74703
0.862042
0.971345
1.03702
1.05455
1.05591
1.05487
1.0482
1.03133
1.0104
1.00118
1.00004
1
1
1
1
1
1
1
0.404206
0.403683
0.403376
0.40331
0.403507
0.403206
0.403066
0.40387
0.405318
0.405851
0.40638
0.40549
0.403544
0.400907
0.403085
0.405421
0.416142
0.454577
0.490296
0.56499
0.647612
0.75119
0.866904
0.975137
1.03849
1.05467
1.05591
1.05491
1.04797
1.03073
1.01
1.0011
1.00003
1
1
1
1
1
1
1
0.40402
0.403587
0.403366
0.403369
0.403538
0.403208
0.403165
0.404002
0.405423
0.406069
0.406663
0.405617
0.403269
0.400539
0.403021
0.405125
0.416356
0.456353
0.489133
0.568054
0.651079
0.755637
0.871932
0.978997
1.03992
1.05478
1.05591
1.05495
1.04771
1.03011
1.00958
1.00102
1.00003
1
1
1
1
1
1
1
0.403813
0.403492
0.403351
0.40342
0.403576
0.403221
0.403261
0.404089
0.40545
0.406186
0.40683
0.405638
0.403022
0.400144
0.402624
0.405042
0.41638
0.456833
0.489322
0.57166
0.654632
0.760653
0.877095
0.982894
1.04132
1.0549
1.05591
1.05493
1.04739
1.02947
1.00915
1.00094
1.00003
1
1
1
1
1
1
1
0.403613
0.403419
0.403339
0.403497
0.403655
0.403268
0.403342
0.404111
0.405449
0.406214
0.406881
0.405536
0.40281
0.399685
0.401986
0.405244
0.416015
0.456224
0.493611
0.576085
0.658762
0.766246
0.882545
0.986904
1.04269
1.05504
1.0558
1.05473
1.04701
1.02884
1.00873
1.00087
1.00002
1
1
1
1
1
1
1
0.403417
0.403379
0.403347
0.40362
0.403779
0.40342
0.403415
0.404102
0.405436
0.406208
0.40688
0.405373
0.402524
0.399125
0.4018
0.405615
0.415848
0.453711
0.499621
0.580888
0.664047
0.772097
0.888265
0.990981
1.04405
1.05517
1.05569
1.05442
1.04663
1.02819
1.0083
1.0008
1.00002
1
1
1
1
1
1
1
0.403223
0.403366
0.403449
0.403788
0.403918
0.403608
0.403487
0.404076
0.405398
0.406175
0.406846
0.405211
0.402068
0.398498
0.401821
0.405917
0.415965
0.452582
0.505608
0.585553
0.670234
0.777948
0.894198
0.99509
1.0454
1.05529
1.05576
1.05414
1.04625
1.02752
1.00787
1.00072
1.00002
1
1
1
1
1
1
1
0.403039
0.403366
0.40357
0.403952
0.404052
0.403745
0.403555
0.404013
0.405287
0.406141
0.406806
0.405043
0.401538
0.397963
0.401869
0.40647
0.417944
0.453134
0.511289
0.590064
0.676339
0.783849
0.900437
0.999279
1.04671
1.05539
1.05584
1.05389
1.04584
1.02682
1.00743
1.00066
1.00002
1
1
1
1
1
1
1
0.402873
0.40335
0.403649
0.404093
0.404186
0.403869
0.403627
0.403912
0.405009
0.406092
0.406776
0.404858
0.401135
0.397657
0.4019
0.407914
0.42058
0.456794
0.516184
0.594185
0.682208
0.790148
0.907037
1.00357
1.04795
1.05546
1.0558
1.05371
1.04536
1.02605
1.00697
1.00059
1.00001
1
1
1
1
1
1
1
0.402736
0.4033
0.403698
0.404232
0.404341
0.404009
0.40372
0.403861
0.404721
0.405846
0.406671
0.404607
0.400839
0.397557
0.402085
0.4103
0.422943
0.463292
0.520957
0.597687
0.688237
0.797144
0.913916
1.00789
1.04911
1.0555
1.05564
1.05356
1.04482
1.02524
1.00651
1.00053
1.00001
1
1
1
1
1
1
1
0.402651
0.403238
0.403731
0.404379
0.40451
0.404144
0.403819
0.403857
0.404527
0.405443
0.40617
0.40422
0.400535
0.397543
0.402517
0.412787
0.425714
0.467568
0.525698
0.600987
0.694586
0.80453
0.921049
1.01216
1.05018
1.05551
1.05556
1.05334
1.04424
1.02437
1.00606
1.00046
1.00001
1
1
1
1
1
1
1
0.402597
0.403228
0.403797
0.404516
0.404644
0.404234
0.403889
0.403872
0.404379
0.405096
0.405541
0.403728
0.400152
0.397527
0.402757
0.414909
0.427779
0.468785
0.529932
0.604682
0.701287
0.81224
0.928453
1.0164
1.05117
1.05551
1.05557
1.05308
1.04363
1.02347
1.0056
1.00041
1.00001
1
1
1
1
1
1
1
0.402548
0.403247
0.403919
0.40462
0.40471
0.404284
0.403929
0.40389
0.404183
0.404705
0.40498
0.403283
0.399777
0.397499
0.402198
0.41658
0.429396
0.468638
0.534039
0.609284
0.708495
0.820679
0.936113
1.02059
1.05206
1.05552
1.0556
1.05289
1.04298
1.02252
1.00514
1.00035
1.00001
1
1
1
1
1
1
1
0.402514
0.403267
0.404027
0.40468
0.404733
0.404309
0.40394
0.403896
0.403881
0.404227
0.40443
0.40308
0.399614
0.397767
0.401877
0.418025
0.431637
0.467844
0.538793
0.615277
0.71644
0.829781
0.943981
1.02468
1.05284
1.05556
1.05566
1.05272
1.04225
1.02151
1.00468
1.00031
1.00001
1
1
1
1
1
1
1
0.402516
0.403277
0.404099
0.40471
0.404733
0.404318
0.403926
0.403869
0.403536
0.403749
0.403992
0.403106
0.399702
0.398927
0.402421
0.420331
0.435259
0.470915
0.544881
0.622567
0.725084
0.839158
0.952095
1.02865
1.05353
1.0557
1.05576
1.05253
1.04144
1.02045
1.00423
1.00026
1
1
1
1
1
1
1
1
0.402553
0.403329
0.404155
0.404718
0.404717
0.40432
0.403926
0.403689
0.4032
0.403354
0.403816
0.403383
0.400347
0.399945
0.404328
0.42408
0.438088
0.479857
0.552372
0.630684
0.734149
0.848903
0.960466
1.03247
1.05412
1.05587
1.05583
1.05232
1.04053
1.01935
1.0038
1.00022
1
1
1
1
1
1
1
1
0.402663
0.403363
0.404187
0.404686
0.404641
0.404292
0.404005
0.403418
0.402879
0.403059
0.403832
0.403722
0.401394
0.400594
0.405945
0.425562
0.438331
0.488377
0.559651
0.639345
0.743551
0.859307
0.968993
1.03607
1.05462
1.056
1.05585
1.05199
1.03953
1.0182
1.00338
1.00018
1
1
1
1
1
1
1
1
0.402828
0.403375
0.404201
0.404546
0.404441
0.404167
0.404063
0.403204
0.402618
0.402821
0.403963
0.404063
0.40249
0.401069
0.406235
0.425393
0.436477
0.49403
0.565323
0.648342
0.753513
0.870412
0.977559
1.03941
1.05506
1.05604
1.05578
1.05159
1.03844
1.01703
1.00298
1.00015
1
1
1
1
1
1
1
1
0.402981
0.403489
0.404197
0.404386
0.404255
0.404051
0.403976
0.403091
0.402427
0.402592
0.40417
0.404756
0.403529
0.401245
0.40605
0.424382
0.43617
0.498052
0.569247
0.657714
0.764292
0.882097
0.986116
1.04249
1.05544
1.05604
1.05562
1.05112
1.03728
1.01585
1.0026
1.00012
1
1
1
1
1
1
1
1
0.40316
0.403645
0.404134
0.404189
0.404061
0.403978
0.403906
0.403051
0.402286
0.402372
0.40427
0.4054
0.40422
0.401279
0.405211
0.42367
0.43864
0.504113
0.572588
0.667919
0.77614
0.89436
0.994573
1.04525
1.05575
1.056
1.05511
1.05048
1.03608
1.01465
1.00224
1.0001
1
1
1
1
1
1
1
1
0.403429
0.403776
0.404043
0.403944
0.403861
0.403918
0.4039
0.403051
0.402215
0.402218
0.404124
0.405619
0.40452
0.400951
0.403581
0.423414
0.448189
0.515872
0.579199
0.679536
0.788999
0.907009
1.00284
1.0477
1.05599
1.05586
1.05468
1.04974
1.03485
1.01344
1.00191
1.00008
1
1
1
1
1
1
1
1
0.403748
0.403914
0.403922
0.403673
0.403706
0.403851
0.403921
0.403133
0.402226
0.402207
0.403964
0.405632
0.404609
0.399855
0.402409
0.423796
0.460256
0.527825
0.592618
0.692431
0.802586
0.920035
1.01086
1.0498
1.05613
1.05581
1.05462
1.04908
1.03352
1.01221
1.00159
1.00006
1
1
1
1
1
1
1
1
0.404062
0.404054
0.403799
0.403385
0.403546
0.403789
0.404001
0.403473
0.402672
0.402662
0.404262
0.40565
0.404659
0.39931
0.402009
0.425507
0.469385
0.536156
0.606224
0.705515
0.817105
0.933572
1.0185
1.05157
1.05619
1.0559
1.05473
1.04847
1.03202
1.01096
1.00131
1.00004
1
1
1
1
1
1
1
1
0.404416
0.404097
0.403646
0.403185
0.40336
0.403744
0.40414
0.40395
0.403531
0.403404
0.404442
0.405697
0.404837
0.399245
0.401958
0.426874
0.475484
0.541351
0.618141
0.718703
0.832845
0.947519
1.02563
1.053
1.05622
1.05598
1.0547
1.04778
1.03034
1.0097
1.00106
1.00003
1
1
1
1
1
1
1
1
0.404691
0.404095
0.403495
0.403078
0.403217
0.403687
0.404204
0.40428
0.404364
0.403956
0.404354
0.405765
0.405326
0.400342
0.402937
0.429668
0.480991
0.544508
0.630272
0.732962
0.849797
0.9616
1.03211
1.05409
1.05623
1.05596
1.05434
1.04688
1.02849
1.00848
1.00084
1.00002
1
1
1
1
1
1
1
1
0.404837
0.404113
0.403412
0.40303
0.403148
0.403578
0.404215
0.404555
0.404934
0.404183
0.4041
0.405497
0.405887
0.403481
0.406303
0.437773
0.489035
0.548541
0.644256
0.749048
0.867685
0.975485
1.03783
1.05489
1.05624
1.05587
1.0538
1.04573
1.0265
1.00729
1.00065
1.00002
1
1
1
1
1
1
1
1
0.40491
0.404116
0.403357
0.403008
0.403149
0.40356
0.404199
0.404753
0.405265
0.404312
0.403635
0.403289
0.406068
0.405231
0.408401
0.447673
0.498891
0.561739
0.660859
0.766921
0.886246
0.989003
1.04275
1.05544
1.05626
1.05576
1.05322
1.04434
1.02442
1.00617
1.00049
1.00001
1
1
1
1
1
1
1
1
0.404848
0.404037
0.40335
0.403039
0.403249
0.403606
0.404167
0.404847
0.40545
0.404675
0.402739
0.400742
0.405198
0.406079
0.41131
0.457731
0.506966
0.580027
0.678283
0.786456
0.905529
1.00196
1.04681
1.05579
1.05627
1.0556
1.05261
1.04275
1.0223
1.00513
1.00037
1.00001
1
1
1
1
1
1
1
1
0.40462
0.404083
0.403596
0.403294
0.403443
0.403575
0.404054
0.404861
0.405475
0.404822
0.401857
0.398783
0.402701
0.40672
0.417436
0.467577
0.513111
0.595911
0.695086
0.807733
0.925604
1.01401
1.04999
1.05598
1.05628
1.05543
1.05209
1.04102
1.02014
1.00417
1.00026
1.00001
1
1
1
1
1
1
1
1
0.40433
0.404141
0.403912
0.403662
0.403619
0.403491
0.403679
0.40469
0.405234
0.404609
0.400925
0.397396
0.400111
0.407547
0.42565
0.476228
0.521213
0.613492
0.713408
0.830773
0.946053
1.02474
1.05236
1.05606
1.05632
1.05519
1.05197
1.03918
1.0179
1.0033
1.00018
1
1
1
1
1
1
1
1
1
0.404042
0.40409
0.404153
0.404055
0.403856
0.403456
0.403354
0.404333
0.404976
0.404419
0.400088
0.396521
0.398384
0.410125
0.43332
0.482824
0.540065
0.634746
0.735338
0.855317
0.966119
1.03392
1.05405
1.05609
1.05631
1.05494
1.05191
1.03709
1.01557
1.00254
1.00012
1
1
1
1
1
1
1
1
1
0.403546
0.404073
0.404407
0.404355
0.404061
0.40352
0.403201
0.403931
0.404781
0.40433
0.399619
0.395926
0.397961
0.415897
0.441035
0.488206
0.561977
0.655964
0.76059
0.881133
0.985362
1.04139
1.05518
1.05607
1.05622
1.05493
1.0504
1.03452
1.01321
1.00188
1.00008
1
1
1
1
1
1
1
1
1
0.403239
0.403991
0.404507
0.404493
0.404145
0.403628
0.403122
0.403308
0.404475
0.404103
0.399688
0.395804
0.398393
0.42403
0.449082
0.496019
0.581936
0.676158
0.788329
0.908136
1.00327
1.04708
1.05587
1.05604
1.05618
1.05518
1.04817
1.03166
1.01094
1.00135
1.00005
1
1
1
1
1
1
1
1
1
0.403103
0.403795
0.40449
0.404543
0.404193
0.403744
0.403016
0.402721
0.403699
0.403811
0.401158
0.396894
0.401188
0.431891
0.455656
0.514727
0.604488
0.69959
0.818501
0.935672
1.01895
1.05108
1.05625
1.05605
1.05626
1.05511
1.04652
1.02882
1.00882
1.00093
1.00003
1
1
1
1
1
1
1
1
1
0.403167
0.403625
0.404171
0.404453
0.404265
0.403891
0.403232
0.402649
0.403011
0.404113
0.403218
0.398996
0.404291
0.435201
0.461927
0.540311
0.628076
0.729113
0.851006
0.962771
1.0319
1.05367
1.05641
1.05611
1.05629
1.05414
1.04459
1.0257
1.00689
1.00061
1.00002
1
1
1
1
1
1
1
1
1
0.403458
0.403608
0.40376
0.404168
0.404422
0.4043
0.404411
0.403169
0.402928
0.404347
0.405033
0.402028
0.40622
0.436615
0.478003
0.565193
0.651855
0.763358
0.88542
0.988268
1.04176
1.05517
1.05652
1.05613
1.05613
1.05263
1.04251
1.02223
1.00516
1.00038
1.00001
1
1
1
1
1
1
1
1
1
0.403898
0.403629
0.40336
0.403831
0.404485
0.40481
0.405219
0.404232
0.403259
0.401501
0.405635
0.404685
0.407672
0.441381
0.50686
0.589807
0.681323
0.801042
0.920799
1.0106
1.04855
1.05591
1.0566
1.05609
1.05564
1.05147
1.04017
1.01866
1.00367
1.00022
1
1
1
1
1
1
1
1
1
1
0.404307
0.403642
0.403221
0.403521
0.404256
0.404968
0.405629
0.404856
0.402084
0.398002
0.402276
0.405788
0.409927
0.461445
0.534145
0.613887
0.71905
0.841834
0.955823
1.02859
1.05273
1.05621
1.05664
1.05604
1.0551
1.05043
1.0367
1.01512
1.00246
1.00012
1
1
1
1
1
1
1
1
1
1
0.404465
0.403921
0.403415
0.403407
0.403937
0.404877
0.405721
0.405006
0.400312
0.394889
0.397143
0.407632
0.424488
0.491759
0.55818
0.644724
0.762445
0.884926
0.98826
1.04163
1.05497
1.05629
1.05665
1.05591
1.05474
1.0493
1.0326
1.01173
1.00155
1.00006
1
1
1
1
1
1
1
1
1
1
0.404143
0.404191