/*--------------------------------*- C++ -*----------------------------------*\
  =========                 |
  \\      /  F ield         | OpenFOAM: The Open Source CFD Toolbox
   \\    /   O peration     | Website:  https://openfoam.org
    \\  /    A nd           | Version:  7
     \\/     M anipulation  |
\*---------------------------------------------------------------------------*/
FoamFile
{
    version     2.0;
    format      ascii;
    class       volScalarField;
    location    "9";
    object      T;
}
// * * * * * * * * * * * * * * * * * * * * * * * * * * * * * * * * * * * * * //

dimensions      [0 0 0 1 0 0 0];

internalField   nonuniform List<scalar> 
24000
(
0.682217
0.772741
0.831243
0.873729
0.911506
0.935931
0.957632
0.976898
0.997897
1.02211
1.0458
1.07189
1.10144
1.13068
1.16006
1.17814
1.19766
1.19744
1.19556
1.19133
1.18506
1.1777
1.17318
1.17155
1.17013
1.16696
1.16039
1.15475
1.15731
1.16379
1.16984
1.16807
1.16105
1.15385
1.15037
1.15048
1.15147
1.14971
1.14563
1.1416
1.14095
1.14035
1.13769
1.13304
1.12964
1.12814
1.12532
1.12157
1.11881
1.11559
0.591059
0.590833
0.590588
0.590322
0.590022
0.589746
0.589293
0.589987
0.59322
0.603045
0.620607
0.654709
0.702089
0.774272
0.849875
0.932758
1.00765
1.06327
1.1049
1.13552
1.16093
1.17529
1.18804
1.19505
1.19835
1.19609
1.19544
1.19821
1.20088
1.20072
1.19915
1.19099
1.18403
1.18122
1.18202
1.18407
1.18311
1.17963
1.17457
1.17233
1.17276
1.17106
1.16698
1.16216
1.15961
1.15744
1.15358
1.14907
1.14623
1.14209
0.588492
0.588324
0.588135
0.587915
0.5877
0.587494
0.58728
0.58707
0.586776
0.586413
0.586063
0.585727
0.585405
0.585066
0.58476
0.584296
0.590078
0.620287
0.67485
0.762958
0.852574
0.944563
1.01679
1.07873
1.13225
1.17205
1.20827
1.22227
1.2214
1.21796
1.21025
1.1901
1.19047
1.19393
1.19892
1.20212
1.20066
1.19574
1.19111
1.19239
1.19289
1.19127
1.18659
1.1828
1.18275
1.18117
1.17787
1.17422
1.17201
1.16797
0.585648
0.585524
0.585403
0.585269
0.585159
0.585068
0.584959
0.584839
0.584711
0.584562
0.584387
0.58419
0.584017
0.583851
0.58364
0.583405
0.58315
0.58295
0.58276
0.582539
0.582166
0.584722
0.60595
0.667554
0.763944
0.886156
0.992884
1.07132
1.1333
1.1678
1.1871
1.18677
1.19689
1.20393
1.2099
1.20942
1.20476
1.19959
1.20033
1.20324
1.20288
1.19908
1.19575
1.19592
1.1961
1.19482
1.19178
1.18977
1.18919
1.18713
0.584103
0.584079
0.584055
0.584012
0.584005
0.584007
0.583976
0.583904
0.583831
0.583745
0.583615
0.583461
0.583339
0.583225
0.583062
0.582868
0.582676
0.582516
0.582356
0.582104
0.581815
0.58163
0.581646
0.581629
0.581577
0.581577
0.596731
0.677507
0.798675
0.934217
1.05406
1.14234
1.19206
1.19967
1.20651
1.20475
1.19613
1.1979
1.20388
1.20703
1.20485
1.19896
1.19778
1.20043
1.2015
1.19968
1.19749
1.19768
1.19806
1.19706
0.583688
0.583707
0.58371
0.583693
0.583667
0.583644
0.58361
0.583557
0.583488
0.583376
0.5832
0.583071
0.582982
0.582864
0.582683
0.58245
0.582195
0.581992
0.581773
0.581541
0.58143
0.581451
0.581587
0.581599
0.581562
0.581548
0.581513
0.581517
0.581597
0.589015
0.650746
0.821635
0.974768
1.07067
1.14768
1.16327
1.18316
1.19653
1.21015
1.20788
1.20077
1.19602
1.19772
1.2033
1.20263
1.19913
1.19824
1.19993
1.20096
1.20091
0.583425
0.583409
0.583387
0.583363
0.583333
0.5833
0.583256
0.583198
0.583128
0.582991
0.582751
0.582579
0.582478
0.582383
0.582223
0.581959
0.581687
0.581505
0.581384
0.581391
0.581457
0.581659
0.581884
0.581831
0.581653
0.581484
0.581322
0.581077
0.580977
0.581064
0.580986
0.580555
0.594593
0.709469
0.871415
1.02088
1.14303
1.18299
1.20083
1.20007
1.19062
1.19236
1.19935
1.20223
1.19927
1.19666
1.19808
1.20105
1.20069
1.20117
0.582852
0.582796
0.582754
0.58271
0.582643
0.582574
0.582499
0.582408
0.582347
0.582276
0.58215
0.582067
0.581999
0.581898
0.581744
0.581566
0.581426
0.581392
0.581451
0.581588
0.581784
0.582037
0.582034
0.581932
0.58166
0.581379
0.580961
0.580533
0.580224
0.580154
0.580109
0.579989
0.580026
0.580439
0.580965
0.64875
0.820925
0.987411
1.11491
1.15207
1.17458
1.19307
1.2024
1.19955
1.19272
1.19355
1.19864
1.2001
1.19933
1.2009
0.581658
0.581677
0.581683
0.581675
0.581679
0.581687
0.581691
0.581705
0.58172
0.581744
0.581771
0.581783
0.581748
0.581616
0.581487
0.581525
0.581543
0.581596
0.58177
0.581905
0.582042
0.582084
0.582064
0.581804
0.581521
0.581144
0.580585
0.580202
0.579873
0.579478
0.579401
0.579437
0.579771
0.58075
0.581716
0.581893
0.581756
0.623462
0.780607
0.977168
1.13037
1.182
1.19671
1.19434
1.1864
1.19297
1.19762
1.19653
1.1966
1.19948
0.580675
0.580824
0.580833
0.580843
0.580903
0.581053
0.58127
0.58141
0.581442
0.581475
0.581555
0.581625
0.58156
0.581471
0.581471
0.581593
0.58168
0.581785
0.58194
0.581965
0.581955
0.581922
0.581752
0.581265
0.580951
0.580525
0.580028
0.580032
0.579852
0.579153
0.578701
0.578755
0.579409
0.581041
0.581937
0.581936
0.581737
0.580505
0.578505
0.617266
0.80439
0.99744
1.12958
1.16209
1.17891
1.19713
1.19626
1.19177
1.19341
1.19744
0.580019
0.580159
0.580314
0.580492
0.580663
0.580874
0.581227
0.581483
0.581513
0.58145
0.581319
0.58122
0.581085
0.580928
0.580882
0.580898
0.581137
0.5812
0.581184
0.581038
0.580706
0.580273
0.579858
0.579849
0.579955
0.57974
0.579533
0.57982
0.579861
0.578958
0.578203
0.578524
0.579618
0.581362
0.581491
0.581264
0.580873
0.579493
0.578305
0.578373
0.579138
0.634242
0.829681
1.04541
1.15531
1.18965
1.18838
1.1863
1.19053
1.19294
0.580635
0.580703
0.580763
0.58086
0.580964
0.581007
0.58099
0.580921
0.580869
0.580718
0.580369
0.580179
0.579968
0.57956
0.579084
0.578875
0.578992
0.579194
0.579181
0.578737
0.578202
0.577976
0.577983
0.578517
0.579321
0.579321
0.5793
0.579726
0.579954
0.57948
0.579416
0.580826
0.582154
0.581677
0.580846
0.580332
0.580087
0.579113
0.579239
0.581604
0.584769
0.585422
0.585629
0.681492
0.909511
1.09223
1.14222
1.1709
1.18681
1.18424
0.58102
0.581001
0.581044
0.58109
0.581083
0.581024
0.580963
0.580967
0.58098
0.580689
0.580027
0.579741
0.579355
0.578818
0.578456
0.578137
0.578215
0.578469
0.578456
0.577912
0.577483
0.577298
0.577316
0.57812
0.579552
0.580002
0.580675
0.581996
0.582813
0.582602
0.582618
0.583832
0.584416
0.583744
0.58103
0.580273
0.580796
0.583522
0.588009
0.591339
0.591581
0.591329
0.592246
0.593566
0.607339
0.759455
0.99486
1.12498
1.15639
1.16841
0.578795
0.578803
0.57881
0.579061
0.57936
0.579399
0.579601
0.580011
0.580142
0.58008
0.579853
0.579746
0.579613
0.578893
0.578851
0.578884
0.578922
0.579347
0.57944
0.578957
0.578396
0.578145
0.578405
0.580075
0.582924
0.585262
0.58726
0.588927
0.589553
0.588839
0.587735
0.587741
0.588483
0.589155
0.589103
0.589216
0.590466
0.594018
0.598764
0.598687
0.598226
0.59955
0.602076
0.605075
0.606447
0.608716
0.666339
0.87326
1.04145
1.13322
0.582942
0.583302
0.583667
0.584055
0.584529
0.585139
0.585651
0.585999
0.586346
0.586921
0.588039
0.58999
0.590781
0.590912
0.591184
0.591564
0.59259
0.59367
0.593439
0.593211
0.592642
0.591899
0.591863
0.592663
0.594054
0.595563
0.597191
0.598336
0.598302
0.597407
0.595976
0.595711
0.596135
0.597958
0.600978
0.602743
0.603475
0.605111
0.607709
0.609533
0.611683
0.614629
0.616637
0.618707
0.622068
0.625277
0.625717
0.633536
0.753998
1.04297
0.600204
0.600393
0.600636
0.600672
0.600727
0.601124
0.601798
0.602206
0.602411
0.602761
0.602888
0.603024
0.603935
0.604501
0.605074
0.606596
0.608302
0.609241
0.609448
0.609157
0.608237
0.606488
0.60562
0.605446
0.604583
0.603413
0.603321
0.60355
0.60437
0.605753
0.607053
0.608634
0.610999
0.614823
0.618932
0.622338
0.624459
0.625344
0.626306
0.62809
0.628917
0.629495
0.630682
0.633737
0.636558
0.637979
0.639046
0.640279
0.641554
0.813064
0.622614
0.62301
0.622716
0.620491
0.618943
0.619165
0.620323
0.621133
0.621218
0.62108
0.620572
0.619624
0.618915
0.618798
0.619494
0.620128
0.620178
0.621173
0.622439
0.62288
0.623896
0.625713
0.627796
0.630106
0.632476
0.632824
0.632129
0.631951
0.632796
0.63498
0.638186
0.641324
0.643442
0.644825
0.6447
0.644502
0.644307
0.643902
0.642994
0.643034
0.643504
0.645273
0.648643
0.651408
0.653146
0.652832
0.652986
0.654348
0.656235
0.659849
0.654421
0.653872
0.653317
0.653267
0.653352
0.653393
0.653789
0.65439
0.654256
0.65353
0.653187
0.653589
0.653913
0.653491
0.653217
0.653755
0.655025
0.655195
0.655437
0.657137
0.658573
0.659183
0.65952
0.659506
0.660025
0.660559
0.660607
0.660851
0.661626
0.662142
0.661772
0.66053
0.658629
0.657684
0.657379
0.656411
0.655395
0.655765
0.657499
0.660285
0.663946
0.666851
0.668796
0.668083
0.666741
0.665258
0.666095
0.66877
0.670711
0.671548
0.684153
0.683448
0.683058
0.68307
0.683276
0.683558
0.683614
0.683518
0.683104
0.682931
0.683264
0.684376
0.684874
0.684902
0.684805
0.684777
0.685004
0.685175
0.685073
0.684327
0.683045
0.682473
0.681804
0.680938
0.680042
0.679422
0.679438
0.679667
0.6793
0.679266
0.680115
0.680881
0.68064
0.680309
0.680921
0.683211
0.686452
0.688617
0.690156
0.690603
0.690326
0.688926
0.686957
0.685096
0.683411
0.684957
0.687283
0.689636
0.689008
0.687569
0.720426
0.720348
0.7199
0.719834
0.719981
0.719874
0.719562
0.719549
0.719667
0.719444
0.71903
0.718888
0.718649
0.718482
0.718298
0.717915
0.717448
0.717202
0.717186
0.717388
0.717521
0.717613
0.718121
0.718509
0.718342
0.71782
0.717392
0.716905
0.71659
0.716858
0.716866
0.716813
0.717024
0.717002
0.716585
0.715658
0.714206
0.712781
0.710884
0.708525
0.706008
0.703578
0.702361
0.703178
0.705309
0.707835
0.70753
0.706089
0.703758
0.701738
0.75598
0.75593
0.755579
0.755398
0.755458
0.755319
0.754742
0.754682
0.754618
0.75429
0.754109
0.754007
0.753907
0.753653
0.753234
0.752931
0.752713
0.75244
0.752059
0.751612
0.751138
0.750586
0.749933
0.749227
0.74845
0.747948
0.747564
0.747128
0.746337
0.745243
0.744153
0.742674
0.741108
0.739821
0.73886
0.737736
0.736166
0.734503
0.733192
0.732929
0.73282
0.733191
0.733852
0.733638
0.732708
0.730347
0.72754
0.724353
0.722536
0.721227
0.784156
0.78394
0.783966
0.784028
0.783928
0.783772
0.783705
0.783467
0.783331
0.78325
0.783023
0.78263
0.782522
0.782468
0.782319
0.782031
0.781729
0.781458
0.781174
0.780844
0.780447
0.779964
0.779417
0.778857
0.77826
0.777641
0.776966
0.776181
0.775316
0.774425
0.773614
0.772753
0.771835
0.770596
0.76934
0.768269
0.767231
0.765913
0.764542
0.763121
0.761371
0.759427
0.757116
0.754402
0.751155
0.74813
0.745757
0.743827
0.743065
0.740786
0.798841
0.798681
0.798467
0.798415
0.798447
0.798538
0.798541
0.798514
0.798493
0.798403
0.798295
0.798215
0.798141
0.798111
0.798089
0.79802
0.797889
0.797737
0.797576
0.797387
0.797156
0.796871
0.79655
0.796241
0.795985
0.795786
0.795601
0.795361
0.794983
0.794409
0.79369
0.792925
0.792239
0.791549
0.790667
0.789618
0.788571
0.787413
0.786015
0.784387
0.782703
0.780849
0.778904
0.776781
0.774632
0.772609
0.770471
0.768168
0.76547
0.760868
0.801441
0.801412
0.801372
0.801338
0.801306
0.801256
0.801231
0.801219
0.801207
0.801181
0.801106
0.801067
0.801091
0.801175
0.801238
0.801245
0.801245
0.80124
0.801221
0.801173
0.801106
0.801062
0.801006
0.800904
0.800798
0.800709
0.80065
0.800601
0.800484
0.800303
0.800256
0.800208
0.800087
0.799845
0.799496
0.799082
0.798734
0.798485
0.798155
0.797606
0.796851
0.795995
0.795052
0.793878
0.792462
0.790651
0.788655
0.786147
0.783872
0.779878
0.801847
0.801867
0.801872
0.801852
0.801806
0.801833
0.801902
0.801893
0.801824
0.801787
0.80179
0.801818
0.801861
0.801915
0.801983
0.802065
0.802175
0.802232
0.802196
0.802115
0.80201
0.801907
0.801827
0.80167
0.801512
0.801493
0.801488
0.801459
0.801453
0.801601
0.8021
0.802303
0.802259
0.802036
0.80173
0.801627
0.801629
0.80172
0.801757
0.80167
0.801426
0.801149
0.800864
0.800516
0.800024
0.799383
0.798644
0.79774
0.796962
0.794996
0.803819
0.803913
0.803917
0.803956
0.804012
0.803952
0.8038
0.803802
0.803848
0.80373
0.803256
0.803063
0.803083
0.803265
0.803376
0.803408
0.803445
0.803458
0.80342
0.803448
0.803928
0.804324
0.804291
0.804019
0.803519
0.803234
0.803254
0.803223
0.802989
0.802997
0.803219
0.803224
0.803141
0.803155
0.803155
0.802988
0.80274
0.802628
0.802562
0.802443
0.80222
0.801915
0.801603
0.801385
0.801202
0.801032
0.801024
0.801158
0.801278
0.80092
0.809975
0.809995
0.809955
0.809645
0.809342
0.809061
0.808903
0.809079
0.80929
0.809048
0.808422
0.807846
0.807792
0.808022
0.808144
0.80812
0.807902
0.807329
0.807006
0.807048
0.80752
0.807768
0.807678
0.807553
0.807137
0.807027
0.807071
0.807618
0.807773
0.806993
0.80544
0.804621
0.804596
0.805248
0.805595
0.805171
0.804235
0.803895
0.803858
0.80375
0.803504
0.803274
0.803244
0.80334
0.803462
0.803662
0.803912
0.804071
0.803947
0.803364
0.823434
0.823378
0.823179
0.823076
0.8233
0.823666
0.823616
0.82344
0.823354
0.823072
0.822737
0.822804
0.823067
0.822971
0.822765
0.822768
0.822619
0.822212
0.821506
0.821208
0.821038
0.820692
0.820044
0.8191
0.818771
0.818582
0.818168
0.818228
0.818424
0.817778
0.816845
0.81653
0.815812
0.815131
0.815064
0.814547
0.813247
0.812681
0.812665
0.812385
0.811588
0.810916
0.810445
0.809957
0.809196
0.808345
0.807365
0.806326
0.80518
0.803417
0.850287
0.850246
0.850337
0.850283
0.849801
0.849616
0.849559
0.84917
0.848975
0.848784
0.848431
0.848077
0.847753
0.847356
0.84676
0.846381
0.846134
0.84558
0.845047
0.844691
0.84438
0.84387
0.843276
0.842908
0.842438
0.841781
0.840771
0.839887
0.838888
0.836989
0.83624
0.836158
0.835325
0.834015
0.832512
0.831063
0.829802
0.828409
0.827046
0.825684
0.824253
0.822475
0.820735
0.818888
0.817133
0.815236
0.813505
0.81187
0.810521
0.809283
0.886957
0.886923
0.886313
0.885939
0.885914
0.885553
0.884949
0.884892
0.884759
0.884324
0.883829
0.883471
0.883162
0.882803
0.882227
0.881586
0.881082
0.880557
0.879861
0.879137
0.878398
0.877579
0.876591
0.875566
0.874552
0.873358
0.872181
0.871176
0.87005
0.868684
0.867136
0.865681
0.863683
0.861957
0.860452
0.858681
0.8565
0.854409
0.852249
0.850061
0.847801
0.845503
0.843185
0.840748
0.838409
0.836033
0.833813
0.831335
0.829321
0.825369
0.92925
0.928893
0.928245
0.928056
0.928162
0.928059
0.927638
0.926799
0.926368
0.926415
0.926247
0.92545
0.924361
0.924069
0.923866
0.92331
0.922354
0.921384
0.920585
0.919781
0.918863
0.917853
0.91679
0.91559
0.914285
0.912896
0.911444
0.909915
0.908188
0.906343
0.904427
0.902432
0.900438
0.898154
0.89555
0.893034
0.890419
0.887578
0.884606
0.881553
0.878315
0.874977
0.871441
0.867926
0.864099
0.860316
0.85629
0.852175
0.848273
0.841715
0.968491
0.968517
0.96865
0.968509
0.968029
0.967701
0.967195
0.967053
0.96699
0.966637
0.965814
0.965412
0.965194
0.964767
0.964132
0.963475
0.962826
0.962161
0.961403
0.960539
0.959619
0.95866
0.957603
0.956449
0.955173
0.953801
0.952308
0.950668
0.948941
0.947044
0.945023
0.942852
0.940432
0.937864
0.935189
0.932218
0.929112
0.925762
0.922265
0.918482
0.914579
0.910444
0.906149
0.901627
0.897057
0.892224
0.887407
0.882321
0.877727
0.870236
0.992637
0.992504
0.992511
0.992556
0.992483
0.992301
0.992045
0.991845
0.991839
0.991778
0.991483
0.991163
0.991043
0.990887
0.990593
0.990263
0.98994
0.989603
0.98921
0.988752
0.988255
0.987723
0.98714
0.986481
0.985738
0.984915
0.983995
0.982961
0.981799
0.980529
0.9791
0.977504
0.975723
0.973733
0.971511
0.969073
0.966338
0.96335
0.960023
0.956425
0.952461
0.94819
0.943592
0.938652
0.933425
0.927884
0.922129
0.915964
0.910288
0.900473
0.999367
0.999356
0.999337
0.999308
0.999305
0.999301
0.999283
0.999237
0.999211
0.999204
0.999185
0.999133
0.999094
0.999065
0.999022
0.998965
0.998905
0.998837
0.998762
0.998679
0.99858
0.998464
0.998334
0.998185
0.998012
0.997811
0.997574
0.997294
0.996968
0.996584
0.99613
0.995592
0.99495
0.994188
0.99328
0.992201
0.990912
0.989382
0.987569
0.985426
0.98291
0.979974
0.976565
0.972672
0.96822
0.963253
0.957744
0.951581
0.945629
0.934977
0.999982
0.999982
0.999981
0.999981
0.99998
0.99998
0.999979
0.999978
0.999977
0.999976
0.999975
0.999973
0.999971
0.999969
0.999967
0.999965
0.999962
0.999958
0.999954
0.99995
0.999944
0.999938
0.99993
0.99992
0.999908
0.999894
0.999876
0.999854
0.999826
0.999791
0.999746
0.999689
0.999614
0.999516
0.999388
0.999219
0.998996
0.998698
0.998301
0.997773
0.997069
0.996139
0.994911
0.993313
0.991249
0.988624
0.985361
0.981245
0.976871
0.967833
1
1
1
1
1
1
1
1
1
1
1
1
1
1
1
1
0.999999
0.999999
0.999999
0.999999
0.999999
0.999999
0.999999
0.999999
0.999998
0.999998
0.999998
0.999997
0.999997
0.999996
0.999994
0.999993
0.99999
0.999987
0.999982
0.999974
0.999963
0.999947
0.999921
0.999882
0.999821
0.999727
0.999578
0.999346
0.998985
0.998431
0.997597
0.996318
0.994718
0.990321
1
1
1
1
1
1
1
1
1
1
1
1
1
1
1
1
1
1
1
1
1
1
1
1
1
1
1
1
1
1
1
1
1
1
1
1
0.999999
0.999999
0.999999
0.999998
0.999996
0.999993
0.999988
0.999978
0.99996
0.999924
0.999858
0.999726
0.999522
0.998639
1
1
1
1
1
1
1
1
1
1
1
1
1
1
1
1
1
1
1
1
1
1
1
1
1
1
1
1
1
1
1
1
1
1
1
1
1
1
1
1
1
1
1
1
0.999999
0.999999
0.999997
0.999993
0.999985
0.999925
1
1
1
1
1
1
1
1
1
1
1
1
1
1
1
1
1
1
1
1
1
1
1
1
1
1
1
1
1
1
1
1
1
1
1
1
1
1
1
1
1
1
1
1
1
1
1
1
1
0.999998
1
1
1
1
1
1
1
1
1
1
1
1
1
1
1
1
1
1
1
1
1
1
1
1
1
1
1
1
1
1
1
1
1
1
1
1
1
1
1
1
1
1
1
1
1
1
1
1
1
1
0.592281
0.591279
0.588665
0.585762
0.584133
0.583673
0.583433
0.582892
0.581639
0.580524
0.579819
0.580546
0.581077
0.578762
0.582575
0.600163
0.621473
0.654468
0.684265
0.720234
0.755834
0.784546
0.798819
0.80149
0.801794
0.803761
0.80999
0.823767
0.850671
0.886791
0.929452
0.968866
0.992865
0.999381
0.999983
1
1
1
1
1
0.592422
0.591254
0.588576
0.58568
0.584091
0.583629
0.583377
0.582853
0.581551
0.580378
0.579635
0.580502
0.581105
0.57877
0.582622
0.601001
0.621369
0.655395
0.685033
0.72113
0.756792
0.78518
0.798901
0.801586
0.801781
0.803818
0.810218
0.824279
0.851297
0.887019
0.930057
0.969756
0.993089
0.999407
0.999984
1
1
1
1
1
0.592519
0.591358
0.588573
0.585667
0.584075
0.583602
0.583302
0.582801
0.581491
0.580246
0.579456
0.580473
0.58141
0.579022
0.58258
0.601604
0.62141
0.656043
0.68599
0.721992
0.757946
0.785642
0.799026
0.801662
0.801778
0.803876
0.810421
0.824522
0.85162
0.887919
0.93068
0.970154
0.993243
0.999426
0.999985
1
1
1
1
1
0.592581
0.591418
0.588582
0.585661
0.584052
0.583588
0.583262
0.582743
0.581424
0.580117
0.579286
0.580446
0.581732
0.579591
0.582598
0.602504
0.622608
0.65669
0.687161
0.722911
0.758765
0.786216
0.799324
0.801719
0.801773
0.803867
0.810621
0.82482
0.85204
0.888881
0.931374
0.970535
0.993403
0.99945
0.999986
1
1
1
1
1
0.592615
0.591454
0.588588
0.585652
0.58404
0.583578
0.58322
0.582699
0.581355
0.58
0.579143
0.580413
0.581851
0.580028
0.582973
0.603684
0.624843
0.657257
0.687861
0.72392
0.759551
0.786744
0.799493
0.80176
0.80171
0.803775
0.810883
0.825207
0.852513
0.8894
0.93206
0.970968
0.993574
0.999478
0.999986
1
1
1
1
1
0.59267
0.591488
0.588586
0.585645
0.584046
0.583562
0.58314
0.582616
0.581272
0.5799
0.579026
0.580378
0.581883
0.580246
0.583304
0.604959
0.626819
0.657806
0.68876
0.724963
0.760512
0.787369
0.799615
0.801796
0.801644
0.80366
0.811183
0.825546
0.853068
0.890033
0.932634
0.971468
0.993766
0.999502
0.999987
1
1
1
1
1
0.592758
0.591524
0.588567
0.585647
0.584048
0.583526
0.583047
0.582504
0.581187
0.579815
0.578916
0.580284
0.581927
0.580422
0.583476
0.606286
0.628199
0.658406
0.689753
0.725966
0.761497
0.787955
0.799751
0.801827
0.801632
0.803502
0.811393
0.825881
0.853626
0.890754
0.933198
0.972077
0.993974
0.999525
0.999988
1
1
1
1
1
0.592865
0.591575
0.588553
0.585648
0.584035
0.583481
0.582964
0.58241
0.581134
0.579757
0.578808
0.5799
0.581988
0.580618
0.583636
0.607576
0.629208
0.658975
0.690677
0.72703
0.762545
0.788536
0.799901
0.80186
0.801633
0.803381
0.811453
0.826273
0.854216
0.891504
0.933899
0.972644
0.994183
0.99955
0.999989
1
1
1
1
1
0.592973
0.591658
0.588552
0.585641
0.584016
0.58341
0.582886
0.582332
0.581122
0.579725
0.578722
0.579572
0.581843
0.58091
0.583936
0.608593
0.630045
0.659608
0.691842
0.72818
0.763602
0.78914
0.800047
0.801906
0.80164
0.803367
0.811397
0.826657
0.854858
0.892244
0.934902
0.973203
0.994397
0.999575
0.99999
1
1
1
1
1
0.593063
0.591735
0.588581
0.585636
0.583991
0.583304
0.582789
0.582251
0.581122
0.579711
0.578674
0.579488
0.58172
0.581438
0.58443
0.609206
0.630817
0.660566
0.693134
0.729426
0.764702
0.789764
0.800182
0.801968
0.801698
0.80349
0.811071
0.827055
0.855522
0.893014
0.935841
0.973791
0.994607
0.9996
0.99999
1
1
1
1
1
0.593139
0.59178
0.588599
0.585634
0.583961
0.583193
0.582669
0.582161
0.581127
0.579707
0.578657
0.579466
0.58176
0.582173
0.584851
0.609392
0.631529
0.661473
0.694375
0.730756
0.765857
0.790397
0.800308
0.801995
0.801837
0.80365
0.810906
0.827523
0.856192
0.89387
0.936686
0.974412
0.994814
0.999624
0.999991
1
1
1
1
1
0.593222
0.591809
0.588598
0.585617
0.583929
0.58309
0.582545
0.582083
0.581135
0.579709
0.578689
0.579458
0.581887
0.582641
0.584967
0.60913
0.632125
0.662238
0.695644
0.732169
0.76706
0.791028
0.800427
0.801993
0.801873
0.803884
0.811008
0.828092
0.856891
0.894857
0.93756
0.975058
0.995032
0.999648
0.999992
1
1
1
1
1
0.593337
0.591833
0.588573
0.585548
0.583866
0.582999
0.582434
0.582036
0.581193
0.579789
0.57889
0.579362
0.58195
0.582724
0.58476
0.608213
0.632565
0.663023
0.697026
0.73365
0.768292
0.791661
0.800539
0.801995
0.801833
0.80418
0.811432
0.82873
0.857648
0.895864
0.938482
0.975725
0.995262
0.999672
0.999993
1
1
1
1
1
0.593465
0.591872
0.588558
0.585463
0.583741
0.582919
0.582355
0.582017
0.58137
0.58005
0.579216
0.579251
0.581907
0.582578
0.584506
0.607988
0.632993
0.663878
0.698531
0.735178
0.769555
0.792297
0.800643
0.802003
0.801797
0.804285
0.812046
0.829411
0.858451
0.896838
0.939474
0.976412
0.995491
0.999696
0.999993
1
1
1
1
1
0.593571
0.591949
0.588577
0.585411
0.583613
0.582839
0.582312
0.582012
0.58152
0.580413
0.579599
0.579241
0.581987
0.582617
0.584608
0.608535
0.633883
0.664885
0.700136
0.736762
0.77086
0.792933
0.800742
0.802015
0.801806
0.804213
0.812498
0.830103
0.859273
0.897845
0.940517
0.977122
0.995717
0.999719
0.999994
1
1
1
1
1
0.593646
0.592001
0.588633
0.585396
0.583521
0.582752
0.582297
0.58201
0.581627
0.580736
0.579898
0.579346
0.582517
0.58376
0.5857
0.610121
0.63561
0.666191
0.701843
0.738437
0.772213
0.793566
0.800837
0.802054
0.801899
0.804108
0.812697
0.830781
0.860159
0.898919
0.941599
0.977859
0.995946
0.999742
0.999995
1
1
1
1
1
0.593703
0.592019
0.588652
0.585384
0.583448
0.582658
0.582296
0.582009
0.58176
0.580998
0.580054
0.579367
0.582878
0.584929
0.587093
0.611852
0.637711
0.667794
0.70362
0.740229
0.773612
0.794193
0.800931
0.802127
0.802041
0.804153
0.812797
0.831463
0.861129
0.900076
0.942753
0.978623
0.996181
0.999764
0.999995
1
1
1
1
1
0.593762
0.592028
0.588657
0.585375
0.583377
0.582558
0.582304
0.582046
0.581997
0.581243
0.580135
0.579369
0.582929
0.585184
0.587516
0.613529
0.639686
0.6696
0.70546
0.74213
0.775046
0.794814
0.801028
0.80216
0.802164
0.804517
0.812741
0.83218
0.862167
0.901297
0.943979
0.97941
0.996416
0.999785
0.999996
1
1
1
1
1
0.593818
0.592071
0.588682
0.585395
0.583307
0.582458
0.582307
0.582108
0.582285
0.581488
0.580182
0.579343
0.58287
0.58512
0.587677
0.614665
0.64138
0.671544
0.707375
0.744117
0.776509
0.795428
0.801125
0.802163
0.802264
0.804973
0.812475
0.832965
0.86327
0.902587
0.945257
0.98022
0.996649
0.999806
0.999996
1
1
1
1
1
0.593855
0.592159
0.588761
0.585433
0.583255
0.582361
0.582287
0.582242
0.582538
0.581721
0.580202
0.579157
0.58278
0.584833
0.587927
0.615167
0.642747
0.673507
0.70937
0.746177
0.778002
0.796033
0.801215
0.802159
0.802334
0.805319
0.812604
0.833869
0.864442
0.903983
0.946586
0.981053
0.996881
0.999825
0.999997
1
1
1
1
1
0.593867
0.592253
0.588858
0.58553
0.58323
0.582258
0.582277
0.582425
0.582734
0.58193
0.580206
0.57894
0.582532
0.584422
0.588631
0.615612
0.643784
0.6755
0.711448
0.748326
0.779528
0.796622
0.801279
0.802148
0.802361
0.805703
0.813497
0.834906
0.865703
0.905485
0.947978
0.981905
0.997111
0.999844
0.999997
1
1
1
1
1
0.593835
0.59232
0.588926
0.585679
0.583227
0.582143
0.582256
0.582527
0.582851
0.582099
0.580198
0.578466
0.581621
0.583808
0.590574
0.617458
0.644478
0.677602
0.713648
0.750588
0.781087
0.797189
0.801302
0.8021
0.802356
0.806304
0.814647
0.835974
0.867079
0.90706
0.949422
0.982774
0.997338
0.999862
0.999998
1
1
1
1
1
0.593797
0.592378
0.589
0.585808
0.583267
0.582029
0.582168
0.582561
0.582893
0.582196
0.580022
0.577556
0.580412
0.583423
0.593566
0.621191
0.645038
0.679962
0.716005
0.752968
0.782667
0.797729
0.801306
0.802039
0.802342
0.80705
0.815778
0.836996
0.868565
0.908686
0.95092
0.983658
0.99756
0.999878
0.999998
1
1
1
1
1
0.593768
0.592448
0.589117
0.585925
0.583306
0.581948
0.581985
0.582564
0.582898
0.582213
0.579589
0.576875
0.579539
0.583414
0.595798
0.624096
0.646801
0.682749
0.71855
0.755458
0.784257
0.798244
0.801336
0.802024
0.80237
0.807586
0.816639
0.837973
0.870126
0.910368
0.952482
0.984556
0.997779
0.999894
0.999998
1
1
1
1
1
0.593733
0.592555
0.589267
0.586025
0.583321
0.581924
0.581849
0.582542
0.582898
0.582162
0.579227
0.5766
0.579133
0.583941
0.597204
0.625931
0.650866
0.685808
0.721286
0.758047
0.785849
0.798729
0.801358
0.802053
0.802609
0.807734
0.817302
0.838985
0.871752
0.912125
0.954104
0.985467
0.997992
0.999908
0.999998
1
1
1
1
1
0.593702
0.592647
0.589431
0.586123
0.583325
0.581924
0.581808
0.582463
0.582869
0.582084
0.57902
0.576533
0.579074
0.585057
0.598422
0.627447
0.653885
0.688655
0.724236
0.760743
0.787428
0.799178
0.801332
0.802088
0.802797
0.80747
0.817971
0.840125
0.873456
0.913989
0.955789
0.98639
0.998197
0.999921
0.999999
1
1
1
1
1
0.593675
0.592732
0.5896
0.586213
0.583312
0.581949
0.581809
0.582483
0.582825
0.582098
0.578939
0.576516
0.579182
0.586767
0.599871
0.628956
0.656206
0.691332
0.727412
0.763531
0.78898
0.799584
0.801304
0.802093
0.802785
0.806968
0.818717
0.841416
0.875248
0.91597
0.957543
0.987323
0.998395
0.999933
0.999999
1
1
1
1
1
0.593645
0.592796
0.589758
0.586282
0.583305
0.581956
0.581787
0.582513
0.582832
0.582201
0.578932
0.576568
0.579199
0.588724
0.601662
0.630462
0.658741
0.694128
0.730778
0.766384
0.790491
0.799941
0.801303
0.802111
0.802692
0.806795
0.819604
0.842818
0.877134
0.918075
0.959385
0.988263
0.998583
0.999944
0.999999
1
1
1
1
1
0.593628
0.592826
0.589883
0.586341
0.583348
0.581948
0.581741
0.582515
0.582821
0.582239
0.579171
0.577341
0.579134
0.590594
0.60374
0.631845
0.661557
0.697159
0.734311
0.769298
0.791954
0.800248
0.801294
0.80221
0.802751
0.806931
0.820757
0.844357
0.879144
0.920329
0.961304
0.989201
0.998762
0.999954
0.999999
1
1
1
1
1
0.59363
0.59285
0.589982
0.586369
0.583391
0.581933
0.581625
0.582389
0.582595
0.582014
0.579332
0.577708
0.579573
0.592552
0.606146
0.633081
0.664725
0.700415
0.738049
0.772275
0.793345
0.800517
0.801276
0.802382
0.803267
0.807546
0.822107
0.846082
0.881294
0.922715
0.963275
0.990132
0.998929
0.999962
0.999999
1
1
1
1
1
0.593686
0.592933
0.590094
0.58638
0.583413
0.581915
0.581509
0.582043
0.582235
0.581643
0.579265
0.577746
0.580179
0.595051
0.608842
0.634708
0.668527
0.70402
0.741976
0.775264
0.794655
0.800756
0.801273
0.802563
0.803809
0.808503
0.823417
0.847987
0.883583
0.925228
0.9653
0.991052
0.999083
0.999969
1
1
1
1
1
1
0.593747
0.593033
0.59021
0.586384
0.583465
0.581996
0.581487
0.58176
0.581942
0.581315
0.579155
0.577743
0.580672
0.597734
0.611409
0.638356
0.672936
0.708056
0.746058
0.778235
0.795883
0.800976
0.801299
0.802664
0.803938
0.80952
0.824555
0.850037
0.886039
0.927863
0.967377
0.991954
0.999225
0.999976
1
1
1
1
1
1
0.59383
0.593094
0.590278
0.586362
0.583542
0.582264
0.581579
0.581485
0.581661
0.581012
0.579104
0.577656
0.581448
0.59963
0.613488
0.643005
0.677307
0.712495
0.750309
0.781168
0.797016
0.801194
0.801369
0.802736
0.803719
0.810103
0.825497
0.852237
0.888679
0.930603
0.9695
0.992832
0.999354
0.999981
1
1
1
1
1
1
0.593998
0.593138
0.590308
0.586283
0.583575
0.582519
0.581646
0.581207
0.58133
0.580723
0.579293
0.577776
0.582149
0.6007
0.615243
0.646846
0.681246
0.717287
0.75473
0.784035
0.798049
0.801414
0.801442
0.802848
0.803465
0.810388
0.826386
0.85462
0.891489
0.933458
0.971669
0.993682
0.99947
0.999985
1
1
1
1
1
1
0.594255
0.593188
0.590271
0.58619
0.583598
0.582647
0.581624
0.580972
0.580947
0.580403
0.579737
0.577667
0.582127
0.601205
0.617449
0.65113
0.685213
0.722404
0.759297
0.786807
0.798962
0.801585
0.801505
0.802874
0.803498
0.810938
0.827685
0.857205
0.894444
0.936454
0.973878
0.994499
0.999572
0.999989
1
1
1
1
1
1
0.594522
0.593287
0.590175
0.586061
0.583562
0.582745
0.581634
0.580731
0.580585
0.57999
0.580391
0.577516
0.581785
0.601784
0.621875
0.656551
0.689747
0.727844
0.764007
0.789437
0.799721
0.801714
0.801523
0.802774
0.803885
0.812689
0.829894
0.859926
0.897564
0.939633
0.976128
0.995274
0.99966
0.999992
1
1
1
1
1
1
0.594799
0.593335
0.590037
0.585915
0.583539
0.582863
0.581814
0.580605
0.580154
0.579732
0.581251
0.578136
0.581692
0.603262
0.627855
0.662098
0.695054
0.733609
0.768808
0.791863
0.800317
0.801782
0.801479
0.802544
0.804628
0.814509
0.832422
0.862698
0.900917
0.942988
0.978382
0.995997
0.999735
0.999994
1
1
1
1
1
1
0.595032
0.593402
0.589824
0.585731
0.583515
0.582954
0.582169
0.580635
0.579773
0.579228
0.582149
0.581336
0.583559
0.605704
0.632903
0.666878
0.700951
0.739641
0.77365
0.794041
0.800757
0.801809
0.801426
0.802497
0.805393
0.815561
0.834787
0.86555
0.904507
0.946463
0.98061
0.996664
0.999798
0.999996
1
1
1
1
1
1
0.595265
0.593446
0.589586
0.585568
0.583454
0.58298
0.582536
0.581087
0.57953
0.578473
0.582419
0.583349
0.585619
0.608981
0.637835
0.671353
0.707346
0.745946
0.778419
0.795924
0.801063
0.801822
0.801412
0.80259
0.806061
0.816053
0.837196
0.868667
0.908355
0.950059
0.982818
0.997273
0.99985
0.999997
1
1
1
1
1
1
0.595621
0.593436
0.589374
0.585469
0.583448
0.582983
0.582821
0.581641
0.579461
0.577878
0.582397
0.584583
0.587108
0.614123
0.64382
0.676507
0.714332
0.752533
0.782988
0.797495
0.801264
0.801838
0.801422
0.803064
0.806886
0.816635
0.839938
0.872276
0.912493
0.953794
0.984993
0.997817
0.999891
0.999998
1
1
1
1
1
1
0.595933
0.593527
0.589227
0.585435
0.583531
0.583093
0.582945
0.58215
0.579473
0.5773
0.582277
0.585182
0.589419
0.621532
0.650226
0.683101
0.72192
0.759383
0.787213
0.79875
0.801389
0.801881
0.801524
0.803692
0.807976
0.818981
0.843117
0.876373
0.916852
0.95764
0.987093
0.998292
0.999923
0.999999
1
1
1
1
1
1
0.596153
0.593697