/*--------------------------------*- C++ -*----------------------------------*\
  =========                 |
  \\      /  F ield         | OpenFOAM: The Open Source CFD Toolbox
   \\    /   O peration     | Website:  https://openfoam.org
    \\  /    A nd           | Version:  7
     \\/     M anipulation  |
\*---------------------------------------------------------------------------*/
FoamFile
{
    version     2.0;
    format      ascii;
    class       volScalarField;
    location    "3.5";
    object      rho;
}
// * * * * * * * * * * * * * * * * * * * * * * * * * * * * * * * * * * * * * //

dimensions      [1 -3 0 0 0 0 0];

internalField   nonuniform List<scalar> 
90000
(
0.423813
0.463917
0.497796
0.528755
0.559988
0.594669
0.632796
0.676101
0.722536
0.772899
0.825979
0.879091
0.931637
0.980074
1.02388
1.0606
1.09186
1.11031
1.12444
1.1225
1.11457
1.10365
1.08879
1.07297
1.06417
1.06499
1.06691
1.06611
1.06415
1.06248
1.06481
1.07331
1.08387
1.09377
1.09855
1.10247
1.10584
1.10537
1.10463
1.10521
1.10732
1.11219
1.11812
1.11971
1.1197
1.11907
1.12084
1.12666
1.13524
1.14309
1.14692
1.14657
1.14787
1.15328
1.1624
1.17073
1.17851
1.18921
1.20591
1.22693
1.25295
1.28744
1.32172
1.34307
1.35537
1.36322
1.36834
1.37213
1.37452
1.3748
1.37352
1.37002
1.36502
1.35699
1.34762
1.33646
1.32587
1.31867
1.31169
1.3097
1.31572
1.32081
1.32173
1.3195
1.31742
1.31363
1.30181
1.28717
1.27086
1.25314
1.23407
1.21351
1.19331
1.17564
1.16022
1.15315
1.15446
1.16684
1.17775
1.18339
0.384617
0.384741
0.384875
0.385025
0.385193
0.38535
0.385924
0.387877
0.392467
0.40122
0.415716
0.438489
0.469976
0.51324
0.567678
0.636021
0.714242
0.79033
0.856219
0.916544
0.964964
1.01042
1.03842
1.06191
1.07708
1.08065
1.07862
1.07333
1.06063
1.06242
1.07157
1.0777
1.08243
1.08249
1.08337
1.0863
1.09014
1.09225
1.09618
1.10225
1.1098
1.11575
1.11836
1.11727
1.11704
1.11864
1.12329
1.13185
1.1424
1.14787
1.14914
1.15021
1.1554
1.16641
1.17755
1.18497
1.19233
1.20281
1.21817
1.23498
1.26062
1.29927
1.33391
1.35205
1.36231
1.36901
1.37282
1.37564
1.37664
1.37633
1.37383
1.36973
1.36286
1.3545
1.34503
1.33316
1.32323
1.31592
1.30836
1.30484
1.31048
1.31679
1.31943
1.31817
1.31674
1.31332
1.30141
1.28677
1.27069
1.25324
1.23442
1.21439
1.19504
1.17846
1.16374
1.15793
1.15993
1.17186
1.18435
1.18869
0.385708
0.38592
0.386162
0.386427
0.386717
0.387037
0.387366
0.387744
0.38794
0.388154
0.388415
0.388767
0.389183
0.389721
0.390232
0.391796
0.397613
0.411263
0.434665
0.471741
0.521794
0.589138
0.669313
0.75784
0.841807
0.911352
0.971862
1.01517
1.05267
1.07461
1.09154
1.09159
1.09039
1.08674
1.08859
1.09018
1.09208
1.09593
1.10748
1.11902
1.13168
1.1308
1.12645
1.12222
1.12541
1.13291
1.14476
1.15623
1.16185
1.16062
1.16037
1.16509
1.17576
1.18726
1.19428
1.19848
1.20374
1.2125
1.22491
1.24047
1.2683
1.312
1.34585
1.35836
1.36702
1.37358
1.37682
1.37864
1.37806
1.37682
1.37359
1.36853
1.3608
1.3524
1.34163
1.32863
1.31956
1.31231
1.30457
1.29999
1.30498
1.31249
1.31711
1.31665
1.31586
1.31294
1.30102
1.28649
1.27077
1.25364
1.23503
1.21539
1.19691
1.18121
1.16751
1.16272
1.16512
1.17679
1.19014
1.19405
0.387704
0.388015
0.388367
0.388735
0.389145
0.389566
0.390037
0.390519
0.391056
0.391665
0.392331
0.393065
0.393825
0.394643
0.395457
0.396331
0.397057
0.397522
0.398052
0.398737
0.399565
0.400442
0.402998
0.412767
0.435708
0.475485
0.532892
0.608624
0.699135
0.791188
0.866089
0.93165
0.982303
1.01974
1.05326
1.07233
1.09046
1.10363
1.12299
1.1375
1.15155
1.1416
1.13687
1.13853
1.14911
1.16025
1.17046
1.17362
1.16959
1.17025
1.17469
1.18515
1.19958
1.2092
1.21416
1.21747
1.2198
1.22529
1.23322
1.24633
1.27631
1.32692
1.35547
1.36323
1.3708
1.37699
1.37937
1.38024
1.37923
1.37711
1.37523
1.36835
1.35846
1.34815
1.33555
1.32237
1.31478
1.30789
1.29958
1.29439
1.29914
1.30787
1.31467
1.31519
1.31513
1.31259
1.30071
1.28641
1.27106
1.25435
1.23589
1.21655
1.19889
1.18401
1.17138
1.16751
1.17009
1.18162
1.19518
1.1994
0.391352
0.391761
0.392207
0.392677
0.393179
0.3937
0.394259
0.394832
0.395452
0.396079
0.396751
0.39742
0.398139
0.398853
0.399626
0.400396
0.401248
0.402127
0.403177
0.404211
0.405385
0.4065
0.407611
0.408922
0.409468
0.410127
0.410998
0.411987
0.414697
0.427041
0.453655
0.499716
0.56335
0.645324
0.738835
0.833033
0.917379
0.988398
1.0402
1.07511
1.10623
1.13134
1.15293
1.16526
1.18446
1.1977
1.20292
1.19469
1.18623
1.18999
1.19638
1.2081
1.21806
1.22001
1.22218
1.22607
1.22833
1.23326
1.23939
1.2499
1.28189
1.34121
1.36313
1.36793
1.37438
1.37996
1.38197
1.38243
1.38151
1.37945
1.37385
1.36484
1.35288
1.34131
1.32798
1.31555
1.30964
1.30288
1.29388
1.28889
1.29326
1.3029
1.31187
1.31364
1.31435
1.31209
1.30041
1.28642
1.27152
1.25535
1.23705
1.21802
1.20109
1.18696
1.17534
1.17223
1.17478
1.18623
1.19979
1.2047
0.395732
0.396196
0.396686
0.397209
0.397745
0.398313
0.398893
0.399507
0.400136
0.400797
0.401479
0.402193
0.402934
0.403705
0.404515
0.405344
0.406227
0.407108
0.408055
0.40895
0.409954
0.410849
0.411938
0.412835
0.413978
0.415117
0.416462
0.417652
0.418874
0.420213
0.42095
0.421635
0.422695
0.423544
0.427407
0.4433
0.476515
0.533857
0.607815
0.704072
0.803198
0.911799
1.00611
1.07982
1.12807
1.15747
1.17733
1.1923
1.2
1.21165
1.22067
1.23194
1.23445
1.23107
1.23009
1.23004
1.23171
1.23842
1.24538
1.25474
1.29025
1.35333
1.3709
1.37393
1.3788
1.38293
1.38435
1.3822
1.37836
1.37391
1.36703
1.35587
1.34362
1.3323
1.32017
1.30976
1.30565
1.29871
1.28862
1.2842
1.2878
1.2977
1.30877
1.31207
1.31346
1.31219
1.30074
1.28718
1.27278
1.2567
1.23851
1.2198
1.20355
1.19006
1.17947
1.17698
1.17939
1.19049
1.20424
1.21004
0.401028
0.401493
0.401986
0.402505
0.403037
0.403594
0.404162
0.404759
0.405362
0.406002
0.406642
0.407324
0.408002
0.408727
0.409443
0.410215
0.41097
0.411793
0.41259
0.413464
0.414307
0.415233
0.416133
0.417101
0.418068
0.419044
0.420039
0.420968
0.422002
0.422902
0.423884
0.424962
0.426083
0.427135
0.428213
0.428865
0.429651
0.430404
0.431438
0.432089
0.439124
0.465941
0.518264
0.60319
0.707688
0.829246
0.939554
1.04883
1.12352
1.18785
1.21078
1.21925
1.23166
1.2361
1.23904
1.23812
1.23317
1.24287
1.25022
1.2584
1.29822
1.35974
1.37405
1.37616
1.38411
1.38669
1.38505
1.38158
1.3745
1.36624
1.35685
1.34555
1.33486
1.3245
1.31403
1.30533
1.30213
1.29512
1.28437
1.28065
1.2831
1.29244
1.30493
1.31024
1.31238
1.3118
1.30064
1.28782
1.27426
1.25845
1.24034
1.22194
1.20631
1.19335
1.18367
1.1816
1.18396
1.19439
1.20873
1.21541
0.406002
0.406439
0.406909
0.407389
0.407893
0.408404
0.408939
0.409482
0.410049
0.410624
0.411226
0.411834
0.412472
0.413116
0.413791
0.414471
0.415184
0.415902
0.41665
0.417411
0.418192
0.418995
0.419804
0.42064
0.421464
0.422321
0.423152
0.424037
0.424895
0.425787
0.426659
0.427548
0.42836
0.429206
0.429982
0.430805
0.431644
0.432426
0.433212
0.43392
0.434477
0.435165
0.435807
0.436615
0.43709
0.446633
0.479215
0.547194
0.657111
0.79535
0.930268
1.03614
1.13473
1.18488
1.21854
1.22549
1.23589
1.25003
1.25621
1.26004
1.3004
1.35782
1.37412
1.37856
1.38359
1.38196
1.37965
1.3746
1.36583
1.35648
1.3458
1.33532
1.32654
1.31877
1.30996
1.30275
1.29972
1.29296
1.28195
1.27812
1.27928
1.28736
1.30043
1.30788
1.31066
1.31212
1.30271
1.28978
1.27616
1.26045
1.24249
1.22447
1.20945
1.1968
1.18793
1.18606
1.18843
1.19803
1.21328
1.22058
0.410993
0.411395
0.411819
0.412259
0.412711
0.413177
0.413654
0.414146
0.414648
0.415165
0.415695
0.416238
0.416797
0.417368
0.417958
0.418559
0.419181
0.419812
0.420461
0.421118
0.421791
0.422471
0.423174
0.423867
0.424592
0.425297
0.426034
0.426734
0.427471
0.428181
0.428897
0.429577
0.430261
0.43092
0.431581
0.432232
0.432862
0.433462
0.434054
0.434628
0.435246
0.435914
0.436562
0.437222
0.437779
0.438318
0.438799
0.439412
0.439758
0.443262
0.47443
0.542974
0.663983
0.827761
0.986788
1.11353
1.19999
1.23563
1.24356
1.25324
1.2919
1.34939
1.37121
1.3807
1.38383
1.37917
1.37439
1.36705
1.35604
1.34509
1.33556
1.32817
1.321
1.31454
1.30783
1.30163
1.29818
1.29091
1.28082
1.27645
1.27637
1.28284
1.29532
1.30481
1.30883
1.31161
1.30451
1.29168
1.27805
1.26249
1.24482
1.22736
1.21288
1.20037
1.19203
1.1902
1.1927
1.20161
1.21783
1.22507
0.415289
0.415647
0.416023
0.416414
0.416813
0.417225
0.417646
0.418079
0.41852
0.418973
0.419436
0.419909
0.420397
0.420893
0.421402
0.421924
0.422454
0.423003
0.423555
0.424132
0.424704
0.425296
0.42588
0.426481
0.427067
0.427673
0.428272
0.428881
0.429479
0.430079
0.430665
0.431237
0.431789
0.432322
0.43284
0.433355
0.433875
0.434388
0.434903
0.435423
0.435962
0.436512
0.437095
0.437631
0.438148
0.438648
0.439107
0.439567
0.440022
0.440357
0.440627
0.440959
0.441229
0.449601
0.496111
0.610763
0.785621
0.961715
1.10129
1.17743
1.24754
1.33468
1.36926
1.38376
1.3816
1.37197
1.36708
1.35862
1.34772
1.33783
1.33021
1.32368
1.31858
1.3134
1.3072
1.30088
1.29681
1.28902
1.27995
1.27534
1.27458
1.2791
1.29001
1.30109
1.30664
1.31053
1.30616
1.29377
1.27997
1.26443
1.24719
1.23052
1.21646
1.20407
1.196
1.19404
1.19669
1.20527
1.22242
1.22856
0.419337
0.419647
0.419975
0.420313
0.420659
0.421015
0.421379
0.421753
0.422133
0.422523
0.422921
0.423327
0.423743
0.424166
0.424602
0.425043
0.425498
0.425957
0.426427
0.4269
0.427386
0.427867
0.428357
0.428841
0.42933
0.429812
0.430307
0.430796
0.431291
0.431778
0.432252
0.432711
0.433144
0.433556
0.433952
0.434353
0.434777
0.435198
0.435616
0.436043
0.436484
0.436971
0.437467
0.43794
0.438374
0.438772
0.439182
0.439566
0.439909
0.440227
0.440539
0.440844
0.441184
0.441663
0.442207
0.442603
0.446484
0.488973
0.611338
0.806423
1.02879
1.22273
1.35441
1.39264
1.383
1.36491
1.35714
1.34816
1.33973
1.33258
1.32676
1.32217
1.31856
1.31347
1.30718
1.30064
1.29607
1.28834
1.27987
1.27526
1.27391
1.2763
1.28494
1.29676
1.30427
1.30925
1.30711
1.29566
1.28167
1.26618
1.24953
1.23377
1.21996
1.20771
1.19973
1.19761
1.20042
1.20914
1.22716
1.23108
0.422618
0.422887
0.423171
0.42346
0.423758
0.42406
0.42437
0.424685
0.425008
0.425336
0.425671
0.426013
0.426362
0.426717
0.427079
0.42745
0.427824
0.428211
0.428595
0.428986
0.429378
0.42977
0.430159
0.430549
0.43094
0.431332
0.431731
0.432126
0.43253
0.432931
0.433324
0.433693
0.43404
0.434365
0.434672
0.434987
0.435342
0.4357
0.436063
0.436428
0.436818
0.437247
0.437668
0.438075
0.43843
0.438789
0.439136
0.439416
0.439694
0.440027
0.440405
0.4408
0.441197
0.441619
0.442104
0.442592
0.443114
0.44361
0.443843
0.450351
0.512562
0.733569
1.10678
1.35744
1.3734
1.35797
1.34959
1.34308
1.33622
1.3311
1.32632
1.32218
1.31858
1.31356
1.30736
1.30132
1.29709
1.29008
1.28173
1.27672
1.2743
1.27463
1.28061
1.29206
1.30117
1.30749
1.30716
1.29704
1.28313
1.26776
1.25182
1.23698
1.22329
1.21118
1.2032
1.20103
1.20397
1.21331
1.23215
1.23297
0.425444
0.425669
0.425903
0.426144
0.426389
0.426641
0.426896
0.427158
0.427424
0.427697
0.427973
0.428255
0.428543
0.428836
0.429135
0.429441
0.42975
0.430063
0.430379
0.430693
0.431006
0.43132
0.431626
0.431937
0.432243
0.432559
0.43288
0.433204
0.433534
0.433869
0.434194
0.434499
0.434775
0.435036
0.435281
0.43554
0.435836
0.436156
0.436479
0.436801
0.437142
0.437493
0.437827
0.438151
0.438462
0.43873
0.438948
0.439193
0.439492
0.439834
0.440206
0.440624
0.441095
0.441643
0.442212
0.442647
0.443058
0.443567
0.443793
0.443846
0.444035
0.44455
0.54528
0.9223
1.24111
1.33829
1.34603
1.3409
1.33489
1.33123
1.32748
1.32337
1.319
1.31392
1.30843
1.30342
1.2998
1.29337
1.28524
1.27964
1.27572
1.27417
1.2773
1.28731
1.2971
1.30505
1.30623
1.29758
1.28419
1.26928
1.2542
1.24009
1.22637
1.21429
1.20637
1.2044
1.2077
1.21795
1.23721
1.23465
0.427472
0.427665
0.427864
0.428066
0.428269
0.428476
0.428689
0.428907
0.429129
0.429356
0.429589
0.429825
0.430067
0.430313
0.430562
0.430819
0.431079
0.43134
0.431602
0.431861
0.432116
0.432368
0.432613
0.43286
0.433107
0.433356
0.433616
0.433885
0.434163
0.434448
0.434734
0.434999
0.435237
0.435458
0.435673
0.435899
0.436161
0.436458
0.436762
0.437065
0.437361
0.437636
0.437895
0.438133
0.438364
0.438568
0.438777
0.439022
0.439319
0.439664
0.44008
0.440556
0.441068
0.441653
0.442163
0.442594
0.443076
0.443482
0.443644
0.44373
0.443938
0.444422
0.444901
0.473214
0.740768
1.14975
1.33043
1.34227
1.33455
1.33369
1.32879
1.3243
1.32017
1.3155
1.3105
1.30659
1.30319
1.29733
1.28978
1.28347
1.27794
1.27433
1.27495
1.2826
1.29208
1.3008
1.30434
1.29736
1.28493
1.27087
1.2568
1.24311
1.22929
1.21716
1.20939
1.20799
1.21189
1.22303
1.24207
1.23651
0.429058
0.429213
0.429373
0.42954
0.429712
0.42989
0.430073
0.43026
0.430452
0.430646
0.430848
0.431054
0.431266
0.431482
0.431703
0.431927
0.432156
0.43238
0.432602
0.432818
0.433027
0.433234
0.433431
0.433628
0.433829
0.434028
0.434238
0.434461
0.434696
0.434944
0.435198
0.435445
0.435666
0.435878
0.436088
0.436307
0.436555
0.436825
0.437094
0.437374
0.437624
0.43786
0.438084
0.438248
0.438386
0.43853
0.438714
0.438951
0.439257
0.439603
0.439984
0.44043
0.44095
0.441459
0.442032
0.442536
0.442892
0.443105
0.443383
0.443685
0.444005
0.444461
0.445147
0.445805
0.447329
0.598917
1.01524
1.25785
1.32777
1.33633
1.33105
1.32652
1.32197
1.31743
1.31281
1.30995
1.30659
1.30127
1.29453
1.28741
1.28034
1.27487
1.27357
1.27827
1.2864
1.29534
1.30091
1.29632
1.28548
1.27268
1.25971
1.2461
1.23207
1.21988
1.21257
1.21213
1.2167
1.2285
1.24661
1.23872
0.430067
0.430205
0.430349
0.4305
0.430656
0.430816
0.43098
0.431148
0.43132
0.431497
0.431679
0.431866
0.432059
0.432257
0.432457
0.432659
0.432858
0.433052
0.43324
0.433418
0.433588
0.433757
0.43392
0.434084
0.434254
0.434427
0.434608
0.434809
0.435022
0.435249
0.435489
0.435728
0.435943
0.436142
0.436346
0.436555
0.436776
0.437008
0.437248
0.437507
0.437738
0.437943
0.438156
0.438197
0.43825
0.438376
0.438592
0.438873
0.43919
0.439524
0.439916
0.440412
0.440898
0.441383
0.441878
0.442187
0.442601
0.442948
0.443178
0.443534
0.44403
0.444576
0.445305
0.445924
0.446543
0.446855
0.511221
0.861183
1.21939
1.33183
1.33555
1.33176
1.32453
1.31988
1.31559
1.31263
1.30899
1.30388
1.29797
1.29075
1.28217
1.27553
1.27271
1.2746
1.28061
1.28955
1.29619
1.29449
1.28604
1.27485
1.2629
1.2492
1.23483
1.22259
1.21628
1.21684
1.22203
1.23405
1.2508
1.24129
0.430736
0.430864
0.430997
0.431136
0.431277
0.431422
0.43157
0.431721
0.431876
0.432037
0.432204
0.432376
0.432553
0.432734
0.432915
0.433096
0.433274
0.433444
0.433609
0.433766
0.433914
0.434064
0.434212
0.434363
0.434526
0.434692
0.434865
0.435057
0.435259
0.435466
0.435686
0.43591
0.43612
0.436304
0.436492
0.436689
0.436895
0.437114
0.437348
0.437596
0.437794
0.437986
0.438178
0.43824
0.438284
0.438388
0.438586
0.438865
0.439199
0.43952
0.439873
0.440288
0.440834
0.441313
0.441712
0.44198
0.442241
0.442676
0.443154
0.443558
0.444042
0.444724
0.445349
0.44581
0.446471
0.446399
0.446492
0.466505
0.703828
1.1321
1.29592
1.33234
1.32878
1.32398
1.31724
1.31403
1.31042
1.30552
1.30009
1.29313
1.28364
1.27625
1.27231
1.27194
1.27531
1.28364
1.29116
1.29296
1.28713
1.27751
1.26627
1.25242
1.23767
1.22542
1.22078
1.22196
1.22768
1.23945
1.25459
1.2441
0.431205
0.431308
0.431414
0.431524
0.431638
0.431756
0.431879
0.432005
0.432139
0.432278
0.432427
0.432583
0.432744
0.432911
0.433078
0.433246
0.433412
0.433572
0.433729
0.43388
0.434024
0.434172
0.434323
0.434479
0.434647
0.434819
0.434991
0.435173
0.43536
0.435544
0.435735
0.435941
0.436142
0.436322
0.436496
0.436681
0.436878
0.437083
0.437297
0.437487
0.437645
0.437815
0.438045
0.438225
0.438315
0.43844
0.438628
0.438879
0.439167
0.439478
0.439812
0.440254
0.440691
0.440979
0.441308
0.441807
0.442191
0.44255
0.443037
0.443568
0.444199
0.444827
0.445281
0.445999
0.445875
0.445704
0.445924
0.446465
0.447555
0.589135
0.991965
1.27946
1.32832
1.32868
1.31867
1.3147
1.3114
1.30633
1.30117
1.29414
1.28451
1.27688
1.27213
1.27016
1.27122
1.2783
1.28628
1.29148
1.28884
1.2808
1.26986
1.25587
1.24077
1.22876
1.22585
1.22717
1.23317
1.24451
1.25792
1.24691
0.431333
0.431419
0.43151
0.431605
0.431705
0.431811
0.431923
0.432041
0.432167
0.432301
0.432445
0.432601
0.432761
0.432926
0.433094
0.433264
0.433434
0.4336
0.433761
0.433918
0.434068
0.434221
0.434379
0.43454
0.434713
0.434884
0.435052
0.435225
0.435399
0.435571
0.435746
0.435921
0.436087
0.436258
0.436438
0.436628
0.436842
0.437037
0.437212
0.43735
0.437494
0.43764
0.437863
0.438124
0.438325
0.43854
0.438816
0.439117
0.439388
0.439629
0.439952
0.440329
0.440681
0.440872
0.44113
0.441534
0.442103
0.442626
0.443065
0.443601
0.444313
0.444877
0.445533
0.445391
0.445047
0.445089
0.445452
0.446194
0.447621
0.448646
0.512702
0.857668
1.19832
1.30538
1.32063
1.31601
1.31219
1.30685
1.30243
1.29502
1.28542
1.27805
1.27274
1.2696
1.2688
1.27402
1.28205
1.28966
1.2903
1.28429
1.27361
1.25955
1.24427
1.23323
1.2312
1.23239
1.23839
1.24923
1.26059
1.24946
0.431408
0.431482
0.431561
0.431645
0.431735
0.431833
0.431939
0.432051
0.432173
0.432304
0.432437
0.432576
0.432717
0.432864
0.433016
0.433164
0.433315
0.433464
0.433613
0.433764
0.433916
0.434077
0.43424
0.434406
0.434577
0.434735
0.43488
0.435019
0.435154
0.435294
0.435454
0.435635
0.435839
0.436066
0.43629
0.436493
0.436656
0.436798
0.436935
0.437099
0.437292
0.43749
0.437703
0.43796
0.438235
0.438535
0.438894
0.439248
0.439513
0.439756
0.440017
0.440206
0.440437
0.440746
0.441118
0.441534
0.442004
0.442578
0.443173
0.443845
0.444446
0.445138
0.445028
0.44465
0.444411
0.444608
0.445126
0.446102
0.447468
0.448844
0.449724
0.465884
0.716291
1.10988
1.29445
1.31558
1.3141
1.30971
1.30521
1.29581
1.2866
1.28055
1.2748
1.27037
1.26801
1.2714
1.27901
1.28739
1.29058
1.28676
1.27715
1.26345
1.24844
1.23893
1.23666
1.23748
1.24311
1.25304
1.26238
1.25154
0.431635
0.4317
0.431769
0.431842
0.431919
0.431998
0.432082
0.432169
0.432263
0.432362
0.432463
0.432573
0.432686
0.432801
0.432918
0.433035
0.433158
0.433288
0.433427
0.433575
0.433734
0.433905
0.434073
0.43424
0.434406
0.434557
0.434691
0.434814
0.434937
0.435074
0.435232
0.435411
0.435628
0.435878
0.436101
0.43628
0.436429
0.436567
0.436712
0.436884
0.43708
0.437297
0.437561
0.437855
0.438146
0.438469
0.43885
0.439195
0.439502
0.439749
0.439889
0.440033
0.44023
0.440558
0.44104
0.44158
0.442128
0.442703
0.443431
0.444053
0.444747
0.444615
0.444344
0.443934
0.443961
0.444271
0.444972
0.446206
0.447537
0.448585
0.449544
0.44991
0.451146
0.583225
1.00322
1.24269
1.31556
1.31334
1.30928
1.29758
1.28936
1.28546
1.2788
1.2728
1.26916
1.27071
1.27692
1.28501
1.28981
1.28737
1.27946
1.26712
1.25334
1.24543
1.24243
1.24265
1.24719
1.2554
1.26301
1.25294
0.431925
0.431968
0.432014
0.432065
0.432118
0.432175
0.432238
0.432305
0.432377
0.432451
0.432524
0.4326
0.432674
0.43275
0.432837
0.43293
0.433032
0.433145
0.433268
0.433403
0.433552
0.433717
0.433877
0.434036
0.434189
0.434321
0.434437
0.434549
0.434667
0.434803
0.434965
0.435151
0.435372
0.435619
0.435853
0.436036
0.436194
0.43633
0.436459
0.436608
0.436784
0.436999
0.437284
0.437598
0.437937
0.43829
0.43864
0.439005
0.43934
0.43956
0.439705
0.439844
0.440074
0.440496
0.440967
0.441494
0.44221
0.443118
0.443773
0.444402
0.444242
0.443941
0.443575
0.443491
0.443694
0.444151
0.444972
0.446344
0.447454
0.448621
0.448779
0.449121
0.449878
0.45087
0.518407
0.844602
1.20469
1.30144
1.31287
1.30167
1.29445
1.29161
1.28405
1.27733
1.27282
1.27212
1.27586
1.28252
1.28768
1.2865
1.28035
1.27018
1.25875
1.25211
1.24818
1.24723
1.24999
1.25636
1.26289
1.25399
0.431971
0.432003
0.43204
0.43208
0.432123
0.432169
0.432216
0.432265
0.432316
0.432372
0.432433
0.432501
0.432573
0.432646
0.432724
0.432805
0.432889
0.432985
0.433094
0.433215
0.433346
0.433499
0.433661
0.43382
0.43398
0.43413
0.43427
0.434414
0.434567
0.434728
0.434881
0.435019
0.435181
0.435393
0.435618
0.435808
0.435977
0.436138
0.436274
0.436436
0.436619
0.436824
0.437058
0.437331
0.437632
0.437964
0.438277
0.438628
0.439079
0.439497
0.439742
0.439877
0.440077
0.440418
0.441016
0.441814
0.442782
0.443444
0.44405
0.44396
0.443545
0.44325
0.443072
0.443226
0.443595
0.444194
0.445436
0.446524
0.447728
0.447811
0.447899
0.448374
0.449459
0.451286
0.452542
0.4696
0.696372
1.08188
1.28678
1.29922
1.29749
1.29762
1.28884
1.28245
1.27751
1.27451
1.27506
1.27994
1.28404
1.28406
1.28002
1.27239
1.26412
1.25845
1.25361
1.25127
1.25219
1.2568
1.26281
1.25529
0.431869
0.431897
0.431927
0.43196
0.431994
0.432031
0.43207
0.432111
0.432155
0.432202
0.432253
0.432308
0.432369
0.432435
0.432508
0.432589
0.432675
0.432767
0.432869
0.432979
0.4331
0.43324
0.433397
0.433556
0.433731
0.433924
0.434106
0.434281
0.434468
0.434678
0.434875
0.435048
0.43519
0.435299
0.435404
0.435523
0.43564
0.435791
0.43598
0.436186
0.4364
0.436627
0.436879
0.437186
0.437472
0.437748
0.438051
0.438364
0.438748
0.439235
0.439668
0.439969
0.440327
0.440911
0.441617
0.442489
0.443131
0.443639
0.443568
0.443259
0.442936
0.442775
0.442852
0.443143
0.443673
0.444872
0.445967
0.446939
0.447022
0.446922
0.447139
0.447882
0.449353
0.451333
0.452777
0.453592
0.454452
0.581102
0.956143
1.23654
1.29268
1.30188
1.29184
1.28816
1.28159
1.27495
1.27366
1.27812
1.27961
1.28008
1.27874
1.27447
1.26931
1.26402
1.25858
1.25519
1.25461
1.25809
1.2638
1.2573
0.431686
0.431719
0.431754
0.431787
0.431822
0.431857
0.431894
0.431932
0.431975
0.432022
0.432073
0.432129
0.432189
0.432253
0.432323
0.432397
0.432475
0.432555
0.432644
0.432749
0.432866
0.432994
0.433135
0.433281
0.433445
0.433658
0.433886
0.434082
0.434273
0.434511
0.434744
0.434957
0.43517
0.435341
0.435542
0.435688
0.43571
0.435765
0.435879
0.435992
0.436145
0.43636
0.436634
0.436988
0.437338
0.437617
0.437956
0.438296
0.438644
0.439058
0.439486
0.440037
0.44072
0.441464
0.442153
0.442955
0.443134
0.443028
0.442844
0.442562
0.442573
0.442657
0.442852
0.443308
0.44447
0.445795
0.446422
0.446392
0.446191
0.446265
0.446723
0.447763
0.449849
0.451422
0.452507
0.452978
0.453663
0.454713
0.502951
0.818772
1.15813
1.28947
1.29075
1.29367
1.28505
1.27459
1.27181
1.27686
1.27597
1.27587
1.27727
1.27645
1.27335
1.26826
1.2629
1.25917
1.25857
1.26166
1.26653
1.26004
0.431464
0.431498
0.431534
0.431569
0.431607
0.431648
0.431691
0.431733
0.431777
0.431824
0.431876
0.431932
0.431993
0.43206
0.432131
0.432206
0.432281
0.432357
0.432432
0.43252
0.43263
0.432764
0.432919
0.43308
0.43323
0.433386
0.433555
0.43373
0.433941
0.434225
0.434512
0.434757
0.434992
0.435211
0.435497
0.43563
0.435672
0.435755
0.435975
0.436152
0.436253
0.436432
0.436696
0.437021
0.4373
0.437485
0.437776
0.438119
0.438587
0.439166
0.439805
0.440471
0.44126
0.44187
0.442493
0.442699
0.442601
0.442523
0.442389
0.442306
0.442451
0.442771
0.443315
0.444514
0.445733
0.446474
0.446287
0.445693
0.445602
0.445889
0.446579
0.448405
0.450207
0.45166
0.45196
0.452256
0.453092
0.454882
0.456527
0.46913
0.662336
1.05621
1.23555
1.29184
1.28282
1.27532
1.27215
1.27602
1.27383
1.2726
1.27562
1.27746
1.27573
1.27157
1.26702
1.2642
1.26475
1.26705
1.27009
1.2628
0.431311
0.431345
0.431384
0.431426
0.431469
0.431516
0.431568
0.431622
0.431675
0.431727
0.431784
0.431846
0.431912
0.431984
0.43206
0.432129
0.432194
0.432256
0.432318
0.432386
0.432473
0.432586
0.432731
0.432896
0.433077
0.433296
0.433518
0.43368
0.433829
0.434052
0.434353
0.434689
0.434968
0.435138
0.435326
0.435434
0.435498
0.435594
0.435825
0.436089
0.436313
0.436587
0.436956
0.437368
0.437703
0.437937
0.438229
0.438646
0.439271
0.44002
0.440772
0.441392
0.441866
0.442249
0.442164
0.442117
0.442205
0.442221
0.442272
0.442421
0.442763
0.443549
0.4448
0.446145
0.446693
0.446369
0.445681
0.445184
0.445345
0.445842
0.447212
0.449341
0.450512
0.451308
0.451438
0.45197
0.45305
0.4549
0.45734
0.459191
0.459845
0.553892
0.902094
1.20667
1.26978
1.28036
1.27978
1.281
1.27422
1.2718
1.27516
1.27711
1.27689
1.27419
1.2708
1.26978
1.27116
1.27251
1.27312
1.26479
0.431217
0.431251
0.431291
0.431336
0.431386
0.431436
0.431487
0.431544
0.431605
0.43167
0.431737
0.431808
0.431882
0.431962
0.432049
0.432129
0.432216
0.432304
0.432382
0.432469
0.43258
0.432712
0.432866
0.433014
0.433145
0.433289
0.43346
0.433662
0.433921
0.434241
0.434522
0.43476
0.43495
0.435115
0.435201
0.435301
0.435509
0.435847
0.436229
0.436592
0.43686
0.437193
0.437646
0.438121
0.438562
0.439036
0.439544
0.440089
0.440668
0.441207
0.441624
0.441975
0.442096
0.442235
0.442116
0.442012
0.442063
0.442367
0.442815
0.443501
0.444695
0.445987
0.44695
0.447302
0.446828
0.446
0.445157
0.445159
0.445504
0.446716
0.448841
0.450343
0.451085
0.450811
0.45107
0.451897
0.453663
0.455872
0.45832
0.458826
0.459529
0.46046
0.496836
0.748202
1.10399
1.24683
1.28783
1.28703
1.27728
1.27432
1.27602
1.27622
1.27774
1.27712
1.27477
1.27481
1.27584
1.27585
1.275
1.26599
0.431376
0.431441
0.431514
0.431594
0.431669
0.431741
0.431819
0.431903
0.431989
0.432077
0.432165
0.432251
0.43233
0.432412
0.432503
0.432594
0.432693
0.432796
0.432906
0.433032
0.433155
0.433275
0.433407
0.433539
0.433671
0.433808
0.433955
0.43412
0.434307
0.434517
0.43475
0.435035
0.435325
0.435569
0.435833
0.436168
0.436587
0.437043
0.437441
0.43787
0.438104
0.438354
0.4387
0.439085
0.439566
0.44013
0.440633
0.441138
0.441553
0.441853
0.442314
0.442439
0.442358
0.442476
0.442583
0.442844
0.443324
0.444268
0.445484
0.446756
0.447858
0.448596
0.448428
0.44778
0.446579
0.445498
0.445534
0.446032
0.447577
0.449611
0.451055
0.451137
0.450568
0.450621
0.451337
0.453654
0.456039
0.458132
0.458238
0.458762
0.459737
0.461825
0.464444
0.469435
0.619346
0.979234
1.22799
1.28374
1.2798
1.28156
1.27797
1.27561
1.2787
1.27932
1.27782
1.27801
1.27832
1.27784
1.27626
1.26733
0.431692
0.431762
0.431854
0.431907
0.431958
0.432026
0.432108
0.432187
0.432276
0.432374
0.432474
0.432566
0.432647
0.432734
0.432834
0.432942
0.433052
0.433175
0.433305
0.433442
0.433586
0.43374
0.433979
0.434236
0.434472
0.434751
0.435052
0.435385
0.435761
0.43614
0.436507
0.43694
0.437289
0.43751
0.437722
0.437984
0.43828
0.438446
0.438656
0.439066
0.439331
0.439531
0.439834
0.440179
0.440692
0.441294
0.441805
0.442351
0.44253
0.442635
0.442955
0.443522
0.443781
0.444105
0.444753
0.445769
0.4469
0.448145
0.449275
0.45027
0.450299
0.44987
0.448969
0.447764
0.446446
0.446546
0.447454
0.449741
0.451794
0.452973
0.452649
0.451205
0.451147
0.452016
0.454739
0.457184
0.459355
0.459434
0.459938
0.461266
0.46395
0.467574
0.47122
0.475244
0.477121
0.539108
0.828638
1.15925
1.2598
1.29147
1.28116
1.27672
1.2808
1.28055
1.28039
1.28013
1.27971
1.279
1.27705
1.26937
0.432695
0.432766
0.432848
0.432947
0.433067
0.433196
0.433343
0.433501
0.433667
0.433836
0.434004
0.434172
0.434347
0.434527
0.434705
0.43489
0.435078
0.435289
0.435512
0.435733
0.435986
0.43627
0.436571
0.436916
0.437354
0.437835
0.438295
0.438702
0.439019
0.439378
0.439643
0.439896
0.440229
0.440629
0.440739
0.440887
0.44116
0.441313
0.441468
0.441889
0.442272
0.442278
0.442286
0.442608
0.44311
0.443717
0.444292
0.445084
0.445727
0.446068
0.446517
0.44714
0.447948
0.448869
0.449913
0.450994
0.451804
0.452453
0.452827
0.452574
0.451894
0.450678
0.449243
0.448583
0.449221
0.45101
0.453331
0.455421
0.455882
0.455413
0.453975
0.453881
0.455055
0.457983
0.460647
0.461478
0.462006
0.463367
0.465877
0.468623
0.471336
0.47433
0.477705
0.480505
0.483843
0.486359
0.500555
0.698019
1.05407
1.24814
1.278
1.28226
1.28656
1.28205
1.28325
1.28214
1.28178
1.28059
1.2788
1.27313
0.434675
0.434788
0.43493
0.43509
0.435275
0.435472
0.435671
0.435885
0.43611
0.436337
0.436555
0.436787
0.437041
0.437303
0.437549
0.437795
0.438056
0.438319
0.438584
0.438849
0.439111
0.439384
0.43964
0.439907
0.440257
0.440647
0.441037
0.441345
0.441584
0.441899
0.442067
0.441984
0.441989
0.442343
0.442519
0.442738
0.443242
0.443815
0.444196
0.444608
0.445304
0.446358
0.447204
0.447692
0.448509
0.449751
0.450508
0.451101
0.451852
0.452566
0.453172
0.453755
0.454419
0.455121
0.455762
0.456161
0.456106
0.455792
0.455232
0.454438
0.453388
0.452372
0.452791
0.454259
0.456719
0.458822
0.460663
0.460453
0.45981
0.458641
0.459022
0.460689
0.463177
0.46579
0.466622
0.467224
0.468473
0.470396
0.47286
0.475409
0.477928
0.480299
0.482558
0.485099
0.487877
0.491164
0.495435
0.49894
0.604398
0.937573
1.18363
1.26968
1.29421
1.28433
1.28678
1.28522
1.28449
1.2831
1.28225
1.27793
0.438996
0.439164
0.439361
0.439579
0.439824
0.440071
0.440288
0.440486
0.440725
0.441009
0.441274
0.441566
0.441906
0.44224
0.442574
0.442921
0.443243
0.443569
0.443878
0.444197
0.444539
0.44489
0.44515
0.44537
0.445675
0.446051
0.446429
0.446788
0.447069
0.447389
0.44776
0.448127
0.448458
0.448823
0.449299
0.449904
0.450538
0.451016
0.451412
0.451977
0.452566
0.453114
0.454066
0.455086
0.455848
0.456625
0.457065
0.457302
0.457942
0.458459
0.458792
0.459138
0.459641
0.46017
0.460141
0.45998
0.459649
0.459017
0.458153
0.457835
0.458269
0.45972
0.46191
0.464263
0.466075
0.466965
0.4668
0.465948
0.465954
0.46687
0.469001
0.471376
0.473757
0.474082
0.474696
0.476018
0.478057
0.480078
0.481423
0.483012
0.485263
0.487236
0.489655
0.492664
0.49586
0.499404
0.50269
0.506627
0.510293
0.553264
0.81573
1.13712
1.26742
1.28875
1.29453
1.28986
1.28787
1.2869
1.28719
1.28226
0.446219
0.446354
0.446483
0.44663
0.446756
0.446869
0.447001
0.447164
0.447358
0.447561
0.44779
0.448025
0.448289
0.448577
0.448908
0.449231
0.449565
0.449889
0.45022
0.450671
0.451162
0.451674
0.451981
0.452154
0.45234
0.452724
0.453353
0.453565
0.453797
0.454339
0.455223
0.456044
0.456564
0.45696
0.457323
0.457975
0.458804
0.459243
0.45985
0.460752
0.461421
0.461773
0.462482
0.463331
0.463399
0.463351
0.463686
0.464226
0.46474
0.465114
0.46533
0.465611
0.465713
0.46567
0.465546
0.465535
0.465581
0.465876
0.466755
0.468306
0.470419
0.472795
0.474459
0.476069
0.475883
0.47557
0.475714
0.476388
0.477984
0.480321
0.482377
0.483992
0.484834
0.485681
0.487046
0.48854
0.489702
0.491658
0.493445
0.495154
0.497238
0.499998
0.50259
0.505108
0.508203
0.511841
0.516285
0.520615
0.525157
0.528147
0.542863
0.704756
1.03735
1.23929
1.29874
1.2936
1.29311
1.29254
1.29035
1.28309
0.457776
0.458029
0.458302
0.458631
0.458953
0.459207
0.459434
0.45985
0.460293
0.460457
0.460695
0.460988
0.461268
0.461624
0.461952
0.462203
0.462568
0.463023
0.463399
0.463938
0.464588
0.465094
0.465638
0.466203
0.466709
0.467471
0.468298
0.468595
0.468952
0.46949
0.470132