/*--------------------------------*- C++ -*----------------------------------*\
  =========                 |
  \\      /  F ield         | OpenFOAM: The Open Source CFD Toolbox
   \\    /   O peration     | Website:  https://openfoam.org
    \\  /    A nd           | Version:  7
     \\/     M anipulation  |
\*---------------------------------------------------------------------------*/
FoamFile
{
    version     2.0;
    format      ascii;
    class       volScalarField;
    location    "9";
    object      rho;
}
// * * * * * * * * * * * * * * * * * * * * * * * * * * * * * * * * * * * * * //

dimensions      [1 -3 0 0 0 0 0];

internalField   nonuniform List<scalar> 
90000
(
1.04769
1.05083
1.05438
1.0585
1.06271
1.06726
1.07172
1.07655
1.08123
1.0862
1.09099
1.096
1.10076
1.10574
1.11036
1.11513
1.11959
1.12435
1.12874
1.13424
1.141
1.15
1.16029
1.17247
1.1848
1.19782
1.21021
1.22295
1.23473
1.24666
1.25749
1.26814
1.27769
1.28639
1.29418
1.30049
1.30648
1.31095
1.31341
1.31501
1.31647
1.31846
1.32092
1.32151
1.31908
1.30937
1.29782
1.28708
1.27987
1.2767
1.27786
1.2815
1.286
1.29151
1.29727
1.30166
1.30582
1.30861
1.30992
1.30972
1.30842
1.30505
1.29926
1.29483
1.29327
1.29323
1.29513
1.3002
1.30206
1.30496
1.30895
1.30993
1.30788
1.30389
1.29938
1.297
1.29778
1.3002
1.30419
1.30568
1.30553
1.30373
1.30267
1.30293
1.30497
1.30914
1.30911
1.30901
1.30732
1.30699
1.30746
1.30863
1.30859
1.30798
1.30801
1.30864
1.31038
1.31043
1.31011
1.30949
1.04646
1.04677
1.04731
1.04813
1.04917
1.05067
1.0525
1.05472
1.05728
1.06023
1.06348
1.06713
1.07103
1.07533
1.0799
1.08465
1.08962
1.09481
1.10039
1.10592
1.11168
1.11753
1.1241
1.13115
1.13919
1.14794
1.15736
1.16795
1.17869
1.19072
1.20261
1.2151
1.22792
1.24027
1.2528
1.26472
1.27626
1.28683
1.29698
1.30521
1.31247
1.31869
1.32237
1.32366
1.32462
1.32536
1.32927
1.32916
1.32728
1.32203
1.31515
1.30906
1.30388
1.30046
1.30096
1.30242
1.30502
1.3086
1.31207
1.31505
1.31775
1.32048
1.31998
1.31769
1.31414
1.31
1.30745
1.3051
1.30631
1.30943
1.312
1.31512
1.31801
1.31663
1.31392
1.30984
1.30722
1.30663
1.30762
1.31058
1.31407
1.314
1.31232
1.31037
1.31086
1.31316
1.31605
1.31687
1.31617
1.31455
1.31414
1.31469
1.31509
1.31477
1.31426
1.31437
1.31518
1.31641
1.31656
1.31577
1.05022
1.05023
1.05026
1.05031
1.05045
1.05051
1.05055
1.05062
1.05073
1.05091
1.05118
1.05151
1.05189
1.05235
1.05294
1.05368
1.05457
1.05591
1.05765
1.0597
1.0621
1.06481
1.06787
1.07118
1.07487
1.079
1.08369
1.08914
1.09542
1.10273
1.11083
1.12054
1.13081
1.14352
1.15622
1.17133
1.18665
1.20352
1.22067
1.23911
1.25583
1.27429
1.28827
1.30286
1.31298
1.32258
1.32967
1.33106
1.332
1.33225
1.33365
1.3377
1.33767
1.33586
1.33234
1.32826
1.32466
1.32167
1.32192
1.32283
1.3242
1.32632
1.32854
1.33075
1.33063
1.32961
1.32641
1.32218
1.31907
1.3168
1.31761
1.31971
1.32342
1.32817
1.33067
1.32865
1.32337
1.31857
1.31748
1.3188
1.32177
1.32522
1.32516
1.32344
1.3216
1.32216
1.32437
1.3264
1.32627
1.32458
1.32297
1.32312
1.32341
1.32345
1.32314
1.32286
1.32328
1.32422
1.32405
1.32334
1.05428
1.05428
1.05427
1.05427
1.05426
1.05425
1.05424
1.05424
1.05432
1.05439
1.05444
1.05451
1.05459
1.05467
1.05478
1.05495
1.05532
1.05553
1.05571
1.05593
1.05618
1.05646
1.05678
1.05714
1.05757
1.0581
1.05878
1.05964
1.06076
1.06211
1.06424
1.06706
1.0704
1.07479
1.07993
1.0867
1.09457
1.10466
1.11661
1.13065
1.14795
1.16591
1.18778
1.2095
1.23312
1.2557
1.27809
1.29464
1.31293
1.32333
1.33209
1.33778
1.338
1.33834
1.33849
1.33812
1.33707
1.33584
1.33487
1.33427
1.33367
1.33406
1.33532
1.33708
1.33844
1.33884
1.33783
1.33633
1.33302
1.32916
1.32567
1.32591
1.32777
1.33116
1.33435
1.33651
1.33733
1.33538
1.33172
1.3286
1.32817
1.32974
1.33164
1.33368
1.33302
1.33131
1.33061
1.33182
1.33343
1.33425
1.33336
1.33192
1.3317
1.33163
1.3313
1.33053
1.33056
1.33117
1.33168
1.33124
1.05856
1.05856
1.05855
1.05853
1.05854
1.05859
1.05864
1.05876
1.05899
1.05906
1.05908
1.05911
1.0592
1.05928
1.05928
1.0593
1.05938
1.05952
1.05971
1.0599
1.06007
1.06025
1.06042
1.06063
1.06089
1.06117
1.06147
1.06192
1.06255
1.06339
1.06364
1.06392
1.06423
1.06448
1.06473
1.0651
1.06571
1.06671
1.06866
1.07165
1.07619
1.08197
1.09092
1.10157
1.11669
1.13486
1.15612
1.18263
1.20837
1.2365
1.26111
1.28568
1.29985
1.31637
1.326
1.33
1.33636
1.33598
1.33605
1.33684
1.33755
1.33941
1.34145
1.34171
1.34144
1.34021
1.33898
1.33898
1.33944
1.34011
1.33869
1.33631
1.33395
1.33351
1.334
1.33614
1.33787
1.34012
1.34149
1.33997
1.33685
1.33402
1.33456
1.33629
1.33842
1.33876
1.3378
1.33638
1.33679
1.33822
1.33834
1.33754
1.33682
1.33685
1.33699
1.33642
1.33572
1.33577
1.33626
1.33615
1.06204
1.06207
1.0621
1.06214
1.0622
1.06228
1.06241
1.06266
1.06286
1.06288
1.06287
1.06289
1.063
1.06316
1.06325
1.06341
1.06361
1.06368
1.06371
1.06377
1.0639
1.06401
1.06412
1.06427
1.06436
1.06441
1.06451
1.06484
1.06524
1.06544
1.06557
1.0658
1.06619
1.06651
1.06661
1.06667
1.06677
1.06711
1.06706
1.06699
1.06694
1.06701
1.06731
1.06809
1.06977
1.07297
1.07799
1.08685
1.09796
1.11555
1.13699
1.16187
1.1937
1.22186
1.25218
1.27566
1.30193
1.31315
1.32295
1.333
1.33626
1.33839
1.34055
1.34102
1.33934
1.33405
1.33378
1.33545
1.33951
1.34298
1.34284
1.34203
1.34001
1.33686
1.33478
1.33545
1.33709
1.34019
1.34164
1.34153
1.34104
1.33941
1.33762
1.33775
1.33824
1.33872
1.33896
1.33913
1.33941
1.34027
1.34117
1.34083
1.3401
1.33931
1.33917
1.33898
1.3387
1.33841
1.33864
1.33898
1.06387
1.06397
1.06409
1.06423
1.06438
1.06465
1.06479
1.06479
1.06482
1.06491
1.06506
1.06527
1.0654
1.06547
1.06558
1.06575
1.06605
1.06626
1.06626
1.06626
1.06635
1.06656
1.06677
1.06688
1.06696
1.0671
1.06748
1.06781
1.06784
1.06785
1.06801
1.06831
1.06847
1.06848
1.06845
1.06835
1.06819
1.06806
1.06796
1.06786
1.06777
1.06768
1.0676
1.0674
1.06733
1.06736
1.06751
1.06788
1.06867
1.0704
1.07404
1.08033
1.09143
1.10673
1.12843
1.15718
1.18465
1.21839
1.24854
1.2731
1.29427
1.30714
1.31617
1.32638
1.32869
1.33085
1.3335
1.3381
1.34185
1.34293
1.34247
1.34034
1.3379
1.33746
1.33791
1.33883
1.33953
1.33959
1.33966
1.34007
1.34063
1.34166
1.34115
1.33994
1.3384
1.33838
1.33861
1.33906
1.33957
1.34015
1.34095
1.34179
1.34174
1.34118
1.3403
1.33964
1.33942
1.33922
1.3393
1.3397
1.06509
1.06524
1.06543
1.06559
1.06577
1.0659
1.06591
1.0659
1.06592
1.06603
1.06616
1.06618
1.06622
1.06628
1.06636
1.06651
1.06661
1.06667
1.0667
1.06669
1.06668
1.06673
1.06687
1.06698
1.06706
1.0672
1.06745
1.06766
1.06774
1.06785
1.06807
1.06821
1.06829
1.06833
1.06832
1.06825
1.06815
1.06809
1.06805
1.06801
1.06796
1.0679
1.06778
1.06761
1.06742
1.06721
1.06692
1.06647
1.06594
1.06577
1.06581
1.0661
1.06683
1.06849
1.07138
1.07788
1.08801
1.10551
1.12856
1.15729
1.19433
1.22807
1.25733
1.28353
1.31002
1.32664
1.33215
1.3348
1.3389
1.33824
1.33283
1.33303
1.33476
1.33838
1.34181
1.34159
1.34076
1.33845
1.3365
1.33717
1.33926
1.3416
1.34153
1.34105
1.33952
1.33825
1.33837
1.33883
1.33929
1.33975
1.34038
1.34146
1.34198
1.3418
1.34101
1.34023
1.33978
1.33945
1.33948
1.33986
1.066
1.06615
1.06631
1.06631
1.06631
1.06632
1.06631
1.06625
1.06623
1.0662
1.06609
1.06598
1.06597
1.06603
1.06605
1.06607
1.06613
1.06631
1.06642
1.06642
1.06642
1.06643
1.06649
1.06661
1.06672
1.06685
1.067
1.06713
1.06726
1.06745
1.0676
1.06766
1.06773
1.06783
1.06784
1.06776
1.06766
1.06764
1.06763
1.06757
1.0675
1.06743
1.06728
1.06695
1.06653
1.06609
1.06559
1.06501
1.06438
1.0639
1.06367
1.06363
1.06364
1.06374
1.06399
1.06436
1.06498
1.06652
1.07
1.07795
1.09041
1.11272
1.14423
1.17838
1.21111
1.24965
1.28237
1.29624
1.3078
1.31542
1.32172
1.332
1.33919
1.34307
1.34307
1.34146
1.33744
1.33529
1.33573
1.33788
1.34064
1.34118
1.34063
1.33953
1.33882
1.33865
1.33887
1.33888
1.33879
1.33892
1.33954
1.34071
1.34162
1.34157
1.34111
1.34066
1.34014
1.33956
1.33955
1.33988
1.06605
1.06613
1.06619
1.06619
1.06619
1.06618
1.06618
1.06616
1.06614
1.06609
1.06601
1.06583
1.0657
1.06569
1.0657
1.0657
1.06572
1.0658
1.06594
1.06598
1.066
1.066
1.066
1.06604
1.06619
1.06627
1.06624
1.0661
1.06605
1.06605
1.06602
1.06593
1.06591
1.06591
1.0658
1.06553
1.06547
1.06553
1.06556
1.06553
1.06549
1.0654
1.06519
1.06493
1.0647
1.06446
1.0641
1.06361
1.06316
1.06283
1.06256
1.0624
1.06239
1.06247
1.06266
1.06276
1.06282
1.06289
1.06308
1.06357
1.06472
1.06754
1.07374
1.08614
1.10754
1.13748
1.17424
1.21797
1.25269
1.28607
1.31449
1.32925
1.33566
1.3405
1.33849
1.3304
1.33099
1.33372
1.33796
1.34086
1.34068
1.33963
1.33724
1.33764
1.33866
1.33965
1.33945
1.33873
1.33822
1.33837
1.3389
1.33974
1.34083
1.34094
1.34091
1.34082
1.34045
1.33975
1.33968
1.33998
1.06576
1.06583
1.06586
1.06587
1.06586
1.06585
1.06584
1.06583
1.0658
1.06573
1.06559
1.06542
1.06533
1.06533
1.06535
1.06535
1.06529
1.06514
1.06506
1.06502
1.06497
1.06492
1.0649
1.06489
1.06489
1.06486
1.06466
1.06435
1.06421
1.06411
1.06393
1.06371
1.06356
1.06338
1.06301
1.06276
1.06274
1.06276
1.06283
1.06297
1.06303
1.06297
1.06293
1.06299
1.06308
1.06305
1.06281
1.06246
1.06225
1.06209
1.06184
1.06154
1.06146
1.06151
1.06169
1.06193
1.06217
1.06247
1.06274
1.06279
1.0627
1.06244
1.06262
1.06348
1.06644
1.07289
1.0873
1.10878
1.14103
1.1796
1.22245
1.25864
1.28556
1.30585
1.31519
1.32251
1.33416
1.34132
1.34184
1.34137
1.33751
1.33502
1.33539
1.3372
1.34028
1.34037
1.33973
1.33873
1.33805
1.33848
1.33926
1.33981
1.33981
1.34012
1.34058
1.34095
1.34078
1.34038
1.34017
1.34043
1.06511
1.06512
1.06515
1.06517
1.06517
1.06507
1.06491
1.06487
1.06478
1.06459
1.06445
1.06444
1.06447
1.06449
1.06447
1.06438
1.06423
1.06413
1.06409
1.06407
1.06405
1.064
1.06385
1.06372
1.06362
1.06349
1.06332
1.06313
1.06295
1.06272
1.06248
1.06225
1.06198
1.06162
1.06118
1.06095
1.06088
1.06088
1.06091
1.06104
1.06116
1.06121
1.06129
1.06148
1.06165
1.06165
1.06152
1.06148
1.06152
1.06152
1.06141
1.06115
1.06101
1.06104
1.06121
1.06145
1.06169
1.06212
1.06272
1.06292
1.06287
1.06274
1.0625
1.06254
1.0629
1.06371
1.06521
1.06833
1.07553
1.0896
1.11538
1.15103
1.19806
1.2391
1.28344
1.31555
1.33165
1.33783
1.33889
1.33302
1.32968
1.33244
1.33747
1.3411
1.34099
1.34023
1.33791
1.33798
1.3387
1.33983
1.33964
1.33952
1.33935
1.3395
1.34018
1.34092
1.34089
1.34089
1.34102
1.34104
1.0643
1.06429
1.06428
1.06424
1.06418
1.06409
1.06395
1.06383
1.06378
1.06375
1.06371
1.06369
1.0637
1.06376
1.06376
1.0637
1.06359
1.06354
1.06351
1.06351
1.06348
1.0634
1.06324
1.06308
1.06294
1.06282
1.06269
1.06252
1.06233
1.06209
1.0618
1.06146
1.06111
1.06076
1.06049
1.06032
1.06018
1.06008
1.06007
1.06008
1.06011
1.06016
1.06022
1.06034
1.06047
1.06058
1.0607
1.06088
1.06099
1.06098
1.06088
1.06066
1.06046
1.06047
1.06068
1.06084
1.06098
1.06139
1.06215
1.06272
1.06298
1.06295
1.06281
1.06281
1.06303
1.06343
1.064
1.06466
1.06539
1.06689
1.07029
1.08007
1.09765
1.13031
1.17176
1.21801
1.26139
1.28706
1.30824
1.31579
1.33042
1.33987
1.34245
1.34208
1.33857
1.33647
1.33717
1.33944
1.34128
1.34112
1.34016
1.33929
1.33932
1.33995
1.3406
1.34093
1.34115
1.34185
1.34229
1.34188
1.06344
1.06339
1.06334
1.06329
1.06317
1.06306
1.06305
1.06303
1.06296
1.06291
1.06291
1.06292
1.06298
1.06308
1.06319
1.06324
1.06321
1.06312
1.06308
1.0631
1.06309
1.06305
1.06296
1.06286
1.06279
1.06272
1.06261
1.06245
1.06228
1.06205
1.06176
1.06142
1.06109
1.06079
1.06056
1.0604
1.06027
1.06018
1.06015
1.06016
1.06017
1.0602
1.06023
1.06029
1.0604
1.06055
1.06072
1.06103
1.06148
1.06171
1.06173
1.06169
1.06151
1.0612
1.06083
1.0607
1.06075
1.0611
1.06185
1.06264
1.063
1.06301
1.06287
1.06275
1.06285
1.06319
1.06378
1.06427
1.06451
1.0647
1.06496
1.06555
1.06741
1.07376
1.08691
1.11511
1.15328
1.20396
1.25307
1.29697
1.32667
1.33617
1.3403
1.33558
1.32917
1.33282
1.33939
1.34234
1.34198
1.34057
1.33948
1.33945
1.34035
1.34092
1.34072
1.34078
1.34157
1.34312
1.34316
1.34263
1.06245
1.06244
1.06243
1.06238
1.06227
1.06224
1.06224
1.06226
1.06227
1.06227
1.06228
1.06235
1.06244
1.06251
1.06259
1.06271
1.06281
1.06288
1.06295
1.06303
1.06312
1.06321
1.06322
1.06316
1.0631
1.06309
1.06307
1.06301
1.0629
1.06273
1.06253
1.06231
1.06208
1.06186
1.06166
1.06146
1.06122
1.06091
1.0607
1.06064
1.0606
1.06057
1.06057
1.06059
1.06066
1.06079
1.06106
1.06157
1.06221
1.06276
1.06307
1.06316
1.06318
1.06309
1.06273
1.06216
1.06176
1.06176
1.062
1.06247
1.06278
1.06292
1.06304
1.06318
1.06331
1.06345
1.06364
1.06383
1.06388
1.06394
1.06414
1.0644
1.06466
1.06521
1.06671
1.07092
1.08119
1.10424
1.14047
1.19141
1.2393
1.2767
1.3042
1.31536
1.32882
1.34247
1.34332
1.34241
1.33858
1.33839
1.33963
1.34199
1.34225
1.34164
1.3407
1.34098
1.34255
1.34386
1.34383
1.34328
1.06263
1.06263
1.06263
1.0626
1.06258
1.06258
1.06259
1.06258
1.06257
1.06259
1.06269
1.06281
1.06284
1.06286
1.0629
1.06301
1.06313
1.06321
1.06327
1.06334
1.06343
1.06351
1.06358
1.06365
1.06374
1.06387
1.06394
1.06393
1.06386
1.06378
1.06375
1.06371
1.06363
1.06352
1.06342
1.06333
1.0632
1.06297
1.06271
1.06253
1.06239
1.06234
1.06234
1.06232
1.06223
1.06217
1.06217
1.06238
1.0629
1.06359
1.06428
1.06469
1.06476
1.06473
1.06445
1.06378
1.06306
1.06268
1.06262
1.06266
1.06279
1.06297
1.06316
1.06335
1.06347
1.06348
1.06346
1.06345
1.06344
1.06348
1.06371
1.06408
1.06421
1.06432
1.06442
1.06462
1.06547
1.06851
1.07685
1.09735
1.1322
1.18474
1.23633
1.28985
1.32472
1.33825
1.34084
1.33153
1.33193
1.33616
1.3424
1.34358
1.34293
1.34067
1.34082
1.34232
1.34367
1.34399
1.3438
1.34371
1.06257
1.06255
1.06255
1.06254
1.06255
1.06257
1.06259
1.06259
1.06255
1.06255
1.06265
1.06271
1.06271
1.06277
1.06288
1.06292
1.06295
1.06301
1.06308
1.06312
1.06314
1.06316
1.06325
1.0634
1.06352
1.06364
1.06381
1.06399
1.06415
1.06437
1.06455
1.06457
1.06455
1.06454
1.06457
1.06465
1.06469
1.06468
1.06462
1.06452
1.0644
1.06436
1.06435
1.06431
1.06411
1.06397
1.06395
1.06398
1.06416
1.06455
1.0652
1.06583
1.06605
1.06605
1.06591
1.06541
1.06463
1.06403
1.06366
1.06333
1.0632
1.06322
1.06333
1.06355
1.06368
1.06372
1.06364
1.06351
1.06348
1.06351
1.06369
1.06396
1.06441
1.06478
1.06495
1.06506
1.06502
1.06513
1.06579
1.06803
1.0756
1.09295
1.12838
1.1793
1.23218
1.27589
1.30474
1.3161
1.33291
1.34394
1.34462
1.34333
1.33997
1.34027
1.34276
1.34497
1.34465
1.34328
1.34341
1.34433
1.06283
1.06274
1.06269
1.06267
1.06266
1.06265
1.06265
1.06264
1.0626
1.06261
1.06272
1.06278
1.06279
1.06279
1.06274
1.06272
1.06277
1.06284
1.06283
1.06281
1.06281
1.06283
1.06292
1.06304
1.06314
1.06326
1.06349
1.06389
1.06435
1.06468
1.06493
1.06511
1.06517
1.0652
1.06531
1.06556
1.06583
1.06605
1.06616
1.0662
1.06619
1.06618
1.06618
1.06609
1.0657
1.06541
1.06536
1.06531
1.06527
1.06537
1.06584
1.06644
1.06672
1.06675
1.06664
1.06617
1.06552
1.06508
1.0647
1.06431
1.06419
1.06419
1.06419
1.06414
1.06414
1.06434
1.0646
1.06459
1.06444
1.06433
1.06437
1.06459
1.06489
1.06511
1.06521
1.06523
1.06523
1.06531
1.06536
1.06544
1.06588
1.06773
1.07448
1.09172
1.12786
1.18147
1.23841
1.29824
1.32793
1.34108
1.33988
1.33124
1.33463
1.34148
1.34595
1.34568
1.34369
1.34256
1.34323
1.3451
1.06367
1.06366
1.06365
1.06363
1.06363
1.06364
1.06365
1.0636
1.06352
1.06353
1.06353
1.06353
1.06352
1.06341
1.06337
1.06357
1.06384
1.06386
1.06377
1.06375
1.06379
1.06398
1.06412
1.06419
1.06426
1.0644
1.06459
1.06482
1.06505
1.06522
1.06536
1.06556
1.06578
1.06588
1.06594
1.06608
1.06637
1.06692
1.06715
1.06718
1.06716
1.06706
1.06707
1.06699
1.06647
1.06606
1.06602
1.06602
1.06592
1.06578
1.06578
1.06583
1.06584
1.06586
1.06582
1.0656
1.06555
1.06558
1.06557
1.06537
1.06502
1.06487
1.06484
1.0648
1.06494
1.06566
1.06632
1.06629
1.06603
1.0658
1.06573
1.0657
1.06563
1.06558
1.06551
1.06546
1.06544
1.06543
1.06548
1.06558
1.06553
1.06553
1.06578
1.06741
1.07433
1.09206
1.13064
1.18597
1.24221
1.28459
1.30984
1.32053
1.34278
1.34614
1.34576
1.34257
1.34125
1.34269
1.34511
1.34595
1.06533
1.0655
1.06556
1.06557
1.06556
1.06556
1.06566
1.06593
1.066
1.06599
1.066
1.06602
1.06591
1.06578
1.06588
1.0665
1.0668
1.06679
1.06655
1.0661
1.06599
1.06599
1.06605
1.06607
1.06606
1.06605
1.06607
1.06621
1.06623
1.06613
1.06607
1.06611
1.06652
1.06677
1.06676
1.06679
1.06715
1.06755
1.06757
1.06761
1.06762
1.06731
1.06712
1.06697
1.06642
1.066
1.06597
1.06603
1.06606
1.06602
1.06597
1.06584
1.06536
1.06501
1.065
1.06508
1.06534
1.06583
1.06609
1.06612
1.06592
1.06559
1.06546
1.06547
1.06589
1.0671
1.06758
1.06746
1.06733
1.06725
1.06718
1.06702
1.06663
1.06624
1.06605
1.06595
1.06589
1.06578
1.06567
1.06568
1.06565
1.06568
1.06583
1.06591
1.0663
1.06824
1.07531
1.09615
1.13745
1.19292
1.26475
1.31029
1.33915
1.34141
1.33565
1.33491
1.33953
1.34572
1.34644
1.34598
1.06648
1.06642
1.06641
1.06642
1.0665
1.06666
1.06703
1.0676
1.06777
1.06781
1.06785
1.06787
1.06785
1.06776
1.06781
1.06841
1.0689
1.06891
1.06878
1.06824
1.06754
1.06737
1.0674
1.0674
1.06716
1.06687
1.06686
1.06691
1.06683
1.06656
1.06644
1.06644
1.06671
1.06701
1.06705
1.0672
1.0678
1.068
1.06799
1.06788
1.06732
1.0665
1.06634
1.06647
1.06644
1.06608
1.06599
1.066
1.06618
1.06658
1.06674
1.06664
1.06582
1.06502
1.0649
1.06492
1.0654
1.0666
1.0671
1.06711
1.06669
1.06632
1.06629
1.06631
1.06678
1.06775
1.0679
1.06777
1.06774
1.06785
1.06787
1.06778
1.06744
1.06702
1.06684
1.06677
1.06665
1.06645
1.06624
1.06607
1.06599
1.06597
1.06599
1.06608
1.06619
1.06638
1.0669
1.06941
1.07706
1.10266
1.14555
1.20566
1.27156
1.29466
1.31589
1.33151
1.3474
1.34757
1.3457
1.3443
1.0662
1.06616
1.06616
1.06618
1.0663
1.06652
1.06688
1.06723
1.06735
1.06742
1.06756
1.06765
1.06764
1.06753
1.06742
1.06746
1.06769
1.06775
1.06776
1.06774
1.06741
1.06691
1.06688
1.06691
1.06676
1.06648
1.06647
1.06653
1.0665
1.06631
1.06599
1.06595
1.06596
1.06573
1.06561
1.06588
1.06647
1.06659
1.06655
1.06625
1.06594
1.06568
1.06515
1.06484
1.06478
1.06495
1.06554
1.06596
1.06639
1.06727
1.06773
1.06774
1.06728
1.06617
1.0658
1.06578
1.06614
1.06752
1.06815
1.06807
1.06717
1.06661
1.06658
1.06656
1.06694
1.06779
1.06791
1.06774
1.06767
1.06777
1.06788
1.06785
1.06761
1.06726
1.06719
1.06727
1.06732
1.06728
1.06712
1.06689
1.06674
1.06661
1.06644
1.06634
1.06635
1.06644
1.06664
1.06689
1.06748
1.07062
1.07989
1.11265
1.15955
1.22547
1.29963
1.32482
1.3434
1.34058
1.3359
1.34084
1.05978
1.05964
1.0596
1.05962
1.05993
1.06035
1.06041
1.0604
1.06025
1.06017
1.06036
1.06103
1.06127
1.06128
1.06139
1.06158
1.06149
1.06139
1.06177
1.06302
1.06357
1.06339
1.06319
1.06328
1.06371
1.06381
1.06373
1.06363
1.06347
1.06293
1.06184
1.06144
1.06147
1.06156
1.06183
1.06281
1.06467
1.06602
1.06683
1.0671
1.06716
1.0671
1.06616
1.06456
1.0642
1.06416
1.0644
1.06499
1.06604
1.06752
1.06799
1.068
1.06778
1.06708
1.06672
1.06671
1.06709
1.06818
1.06844
1.06822
1.06715
1.06664
1.06662
1.06658
1.0667
1.06734
1.06762
1.06753
1.06729
1.06729
1.06754
1.06776
1.06775
1.06758
1.06749
1.06761
1.06774
1.06774
1.06763
1.06747
1.06739
1.06732
1.06719
1.06695
1.0668
1.06686
1.06708
1.06725
1.06724
1.06723
1.06782
1.07214
1.085
1.12558
1.18022
1.23961
1.2962
1.31028
1.33207
1.34436
1.05246
1.05198
1.05136
1.05116
1.05119
1.05131
1.05134
1.05132
1.05116
1.05102
1.0509
1.05099
1.05165
1.05221
1.05239
1.05255
1.05296
1.05376
1.05505
1.05717
1.05828
1.05838
1.05844
1.05864
1.05902
1.05938
1.05946
1.0594
1.0591
1.05826
1.05699
1.05633
1.05619
1.05629
1.05706
1.05903
1.06163
1.0641
1.06639
1.06712
1.06721
1.06716
1.06644
1.06483
1.06404
1.06373
1.06328
1.06284
1.06299
1.06394
1.06529
1.06649
1.06691
1.06676
1.06661
1.06662
1.06699
1.0674
1.0673
1.06666
1.0662
1.06622
1.06645
1.06643
1.06643
1.06697
1.06747
1.06741
1.06701
1.06678
1.06698
1.06756
1.06785
1.06788
1.06786
1.06788
1.0679
1.06785
1.06767
1.06755
1.06754
1.06759
1.0676
1.06754
1.0675
1.0676
1.06775
1.0677
1.0675
1.06726
1.06719
1.06731
1.0685
1.07519
1.09426
1.1433
1.20335
1.27252
1.3241
1.34153
1.05568
1.05556
1.0553
1.05455
1.05382
1.05406
1.05507
1.0552
1.05514
1.05579
1.05656
1.05649
1.05646
1.05691
1.05705
1.05674
1.05666
1.05704
1.05723
1.05707
1.05671
1.05636
1.05632
1.05657
1.05715
1.05782
1.0582
1.05831
1.05831
1.05795
1.05713
1.05628
1.05579
1.05577
1.05656
1.05766
1.05788
1.05829
1.0595
1.06128
1.06234
1.06252
1.06256
1.06239
1.0621
1.06153
1.06024
1.05867
1.05763
1.05752
1.05783
1.05855
1.05968
1.0615
1.06283
1.06319
1.06347
1.06376
1.06402
1.0647
1.06532
1.06534
1.06503
1.06488
1.06515
1.06634
1.06753
1.0676
1.06737
1.06694
1.06693
1.06729
1.06783
1.06796
1.06796
1.06797
1.06796
1.06788
1.06763
1.06759
1.06766
1.06778
1.06777
1.06777
1.06785
1.06804
1.06821
1.06817
1.06801
1.06775
1.06753
1.06765
1.06773
1.068
1.07013
1.07973
1.10751
1.16515
1.22398
1.29245
1.06084
1.06145
1.06299
1.06357
1.06354
1.06382
1.06581
1.06636
1.06687
1.06765
1.06755
1.06636
1.06494
1.06415
1.06295
1.0612
1.06046
1.0602
1.05996
1.05975
1.05945
1.05842
1.05696
1.0561
1.0557
1.05567
1.05594
1.05633
1.05618
1.05615
1.0569
1.0575
1.05737
1.05655
1.0562
1.05607
1.05509
1.05315
1.05262
1.05264
1.05332
1.05542
1.05634
1.05645
1.05682
1.05788
1.05858
1.05845
1.05693
1.05381
1.05204
1.05194
1.0526
1.05465
1.05722
1.05888
1.05924
1.05928
1.05942
1.06055
1.06174
1.06185
1.06176
1.06168
1.06189
1.06309
1.0653
1.06662
1.0667
1.06643
1.06581
1.06571
1.06618
1.06707
1.06763
1.06776
1.06772
1.06759
1.06761
1.06774
1.06793
1.06794
1.06785
1.06785
1.06792
1.06812
1.06809
1.06801
1.06794
1.06806
1.06831
1.06843
1.06836
1.06828
1.06808
1.06844
1.07216
1.08813
1.12384
1.2186
1.06033
1.0618
1.06367
1.06613
1.06855
1.06962
1.07048
1.07256
1.07324
1.0732
1.07342
1.07334
1.07316
1.07305
1.07013
1.06698
1.06675
1.06625
1.0653
1.06462
1.06421
1.06388
1.06365
1.06266
1.06116
1.06103
1.06116
1.06183
1.06325
1.06503
1.06646
1.06704
1.06676
1.06465
1.06075
1.05697
1.05443
1.05355
1.05353
1.05381
1.05494
1.05724
1.05833
1.05854
1.05871
1.05934
1.06115
1.06363
1.06399
1.06253
1.05952
1.05686
1.05593
1.05657
1.05824
1.05988
1.06063
1.06008
1.05941
1.05955
1.06031
1.06064
1.06055
1.05937
1.05866
1.05868
1.05922
1.06005
1.06036
1.06052
1.06082
1.06133
1.06221
1.06341
1.06464
1.066
1.06684
1.06717
1.06731
1.0675
1.06778
1.06773
1.06756
1.06762
1.06776
1.06775
1.06777
1.06784
1.06812
1.06846
1.06882
1.06885
1.06881
1.0686
1.06797
1.06768
1.06784
1.06944
1.07589
1.12514
1.09122
1.09133
1.09174
1.09271
1.09352
1.09401
1.09415
1.09411
1.09366
1.09299
1.09236
1.09102
1.08834
1.08577
1.08516
1.08548
1.08587
1.08529
1.08454
1.08505
1.08791
1.089
1.08845
1.08782
1.08832
1.08907
1.08831
1.08653
1.08641
1.08686
1.0867
1.0871
1.08871
1.08876
1.08705
1.0827
1.0783
1.07542
1.07276
1.0712
1.07133
1.07115
1.06954
1.06669
1.06612
1.06674
1.06852
1.0704
1.0715
1.0712
1.06892
1.06508
1.06225
1.0615
1.06161
1.06205
1.06207
1.06101
1.05846
1.05621
1.05574
1.05598
1.05708
1.05785
1.05778
1.05698
1.0562
1.05624
1.05663
1.05727
1.05781
1.05833
1.05902
1.05991
1.06085
1.062
1.06368
1.06422
1.06386
1.0636
1.06406
1.06457
1.06498
1.06539
1.06624
1.06701
1.06767
1.06811
1.06848
1.06859
1.06875
1.06874
1.06854
1.06799
1.06764
1.06763
1.06789
1.0682
1.06859
1.08087
1.15277
1.15311
1.15327
1.15323
1.15263
1.15205
1.15157
1.14764
1.14473
1.14493
1.14428
1.13966
1.13648
1.13621
1.13573
1.13406
1.13368
1.13441
1.13492
1.13418
1.1296
1.12517
1.12291
1.12109
1.11973
1.11851
1.1167
1.11211
1.10652
1.10293
1.10142
1.10126
1.10297
1.10359
1.10292
1.10441
1.1051
1.10494
1.10501
1.10521
1.10439
1.10005
1.09573
1.09149
1.08664
1.08382
1.08131
1.07723
1.07597
1.07595
1.07433
1.06978
1.06799
1.06852
1.07086
1.07244
1.07164
1.06821
1.06295
1.0589
1.0584
1.05868
1.0601
1.06279
1.06333
1.06221
1.06022
1.05943
1.05994
1.0616
1.06318
1.06346
1.063
1.06216
1.06148
1.06123
1.06127
1.06098
1.06001
1.0596
1.05986
1.06092
1.06239
1.06363
1.06516
1.06672
1.06742
1.06777
1.06794
1.06805
1.06795
1.06768
1.06739
1.06739
1.06751
1.06794
1.06848
1.06866
1.06869
1.07002
1.20393
1.20474
1.20667
1.20753
1.20787
1.20774
1.20638
1.20192
1.19845
1.19843
1.1985
1.19396
1.18528
1.18426
1.18435
1.18527
1.19031
1.19487
1.1949
1.19302
1.19253
1.19265
1.19212
1.18835
1.1861
1.18655
1.18687
1.18525
1.17934
1.17433
1.1685
1.16251
1.16207
1.16243
1.1604
1.15452
1.14997
1.14532
1.14232
1.14245
1.14212
1.13974
1.13948
1.14117
1.14105
1.13923
1.13467
1.12741
1.12512
1.12393
1.11958
1.11066
1.10696
1.10734
1.10929
1.10877
1.10486
1.10126
1.09895
1.09353
1.0867
1.08329
1.0828
1.08322
1.08318
1.08095
1.07597
1.07105
1.06911
1.06855
1.06776
1.06564
1.06234
1.06063
1.06032
1.05982
1.05938
1.05882
1.05821
1.05823
1.05856
1.05956
1.06094
1.06208
1.06288
1.06365
1.06448
1.06449
1.06416
1.06427
1.06477
1.06551
1.06642
1.06729
1.068
1.06845
1.06849
1.06856
1.06848
1.06836
1.28076
1.28079
1.28134
1.28253
1.28309
1.28262
1.2787
1.27043
1.2672
1.26728
1.26687
1.26367
1.25966
1.25773
1.2567
1.2568
1.25719
1.25656
1.25374
1.2508
1.25046
1.25076
1.25043
1.24837
1.24227
1.2364
1.23597
1.23635
1.23549
1.23299
1.22957
1.22568
1.22444
1.22507
1.22568
1.22474
1.2211
1.21589
1.21114
1.20743
1.20619
1.20416
1.19837
1.19025
1.18432
1.17943
1.17395
1.17128
1.17163
1.17216
1.16989
1.16107
1.15583
1.15564
1.15426
1.14646
1.13187
1.12883
1.12868
1.12504
1.11954
1.11641
1.11077
1.10318
1.09865
1.09575
1.09265
1.08873
1.08283
1.07651
1.07364
1.07133
1.0676
1.06496
1.06532
1.06508
1.06389
1.0633
1.06382
1.06463
1.06509
1.06616
1.0661
1.06569
1.0647
1.06372
1.06286
1.06181
1.0615
1.06162
1.06212
1.06324
1.06525
1.06713
1.06786
1.06802
1.06789
1.06783
1.06765
1.06779
1.35077
1.35149
1.35183
1.35188
1.35149
1.35085
1.34887
1.34437
1.34245
1.34093
1.33769
1.33479
1.33435
1.33486
1.33492
1.33462
1.33308
1.32902
1.32766
1.32816
1.32825
1.32732
1.32612
1.32481
1.32196
1.31673
1.31311
1.3105
1.30661
1.30473
1.30365
1.30192
1.2984
1.29371
1.28986
1.28716
1.28451
1.28126
1.27534
1.26985
1.26947
1.26984
1.26838
1.26344
1.25823
1.254
1.24938
1.24452
1.23962
1.23513
1.22843
1.21858
1.21531
1.21582
1.21548
1.21046
1.20048
1.19481
1.18866
1.17685
1.17318
1.17329
1.17122
1.16535
1.15538
1.14518
1.13982
1.13792
1.13577
1.12811
1.11913
1.11444
1.1102
1.10429
1.09893
1.09373
1.08869
1.08302
1.07903
1.07514
1.07193
1.06801
1.06556
1.0635
1.06238
1.06163
1.06109
1.06079
1.06087
1.06167
1.06329
1.06523
1.06545
1.06551
1.06504
1.06454
1.06463
1.06514
1.06614
1.06776
1.43375
1.43073
1.42721
1.4265
1.42684
1.42761
1.42749
1.42518
1.42402
1.42386
1.42153
1.41765
1.41518
1.41436
1.41451
1.41419
1.4118
1.40677
1.40402
1.40366
1.40259
1.40047
1.39876
1.39758
1.3943
1.38882
1.38827
1.3883
1.38691
1.38239
1.37806
1.37696
1.37601
1.37348
1.36842
1.36398
1.36114
1.35857
1.35507
1.35016
1.34598
1.34102
1.33232
1.32757
1.32689
1.32529
1.32112
1.31433
1.30917
1.30502
1.30014
1.29412
1.28807
1.28296
1.27783
1.26886
1.25881
1.2562
1.25289
1.24579
1.23903
1.22958
1.21837
1.21346
1.20786
1.2014
1.19523
1.18532
1.17682
1.16993
1.16137
1.15257
1.14491
1.13724
1.12797
1.11847
1.11028
1.1035
1.09661
1.08919
1.08272
1.07613
1.07184
1.06847
1.06768
1.06664
1.06665
1.06688
1.06755
1.06917
1.06895
1.06813
1.06676
1.06501
1.06348
1.06295
1.063
1.06349
1.06464
1.06738
1.51537
1.51397
1.51356
1.51344
1.51186
1.50722
1.50446
1.50445
1.50602
1.50682
1.50615
1.50359
1.49883
1.49481
1.49455
1.49476
1.4945
1.49158
1.4865
1.4857
1.48547
1.48445
1.48152
1.47784
1.4753
1.47246
1.4695
1.46724
1.46502
1.46168
1.45785
1.45508
1.45312
1.45063
1.44578
1.44039
1.43635
1.4334
1.4304
1.42655
1.42296
1.41885
1.41318
1.40694
1.40236
1.39908
1.39466
1.38836
1.38254
1.37787
1.37231
1.36471
1.35808
1.35248
1.3477
1.34243
1.33513
1.32721
1.3199
1.31149
1.30455
1.29769
1.28886
1.28194
1.27214
1.26281
1.25814
1.25297
1.24303
1.23043
1.22102
1.21349
1.20468
1.1961
1.18783
1.17928
1.16959
1.16207
1.15363
1.14507
1.13567
1.12728
1.11857
1.1095
1.1019
1.09437
1.08801
1.08129
1.07666
1.07205
1.06843
1.06612
1.06481
1.06381
1.06325
1.0631
1.06394
1.06539
1.0663
1.0662
1.60311
1.60198
1.60142
1.60134
1.60095
1.59982
1.5983
1.59511
1.59311
1.59332
1.59318
1.59144
1.5886
1.58494
1.58086
1.57959
1.57996
1.57977
1.57723
1.57143
1.56909
1.56858
1.56739
1.56376
1.56024
1.55811
1.55621
1.55386
1.55072
1.5467
1.54293
1.53985
1.53652
1.53312
1.52934
1.52499
1.5205
1.51619
1.5118
1.50725
1.50291
1.49897
1.49464
1.48851
1.48141
1.47661
1.47282
1.46795
1.462
1.4561
1.44989
1.44336
1.43655
1.42957
1.42184
1.4143
1.40768
1.40061
1.39397
1.38712
1.37873
1.36838
1.35782
1.35107
1.34443
1.33642
1.32534
1.31441
1.3064
1.2968
1.28497
1.27469
1.26509
1.25425
1.2433
1.23306
1.2215
1.21005
1.19959
1.18919
1.17743
1.16591
1.15424
1.14324
1.13191
1.1209
1.10951
1.09922
1.09044
1.08162
1.07552
1.07151
1.07061
1.06934
1.06982
1.07107
1.07141
1.07025
1.06853
1.06567
1.7015
1.69833
1.69326
1.69233
1.69312
1.69365
1.69324
1.69165
1.6881
1.68396
1.68356
1.68384
1.68332
1.68144
1.67699
1.67255
1.67214
1.67181
1.67082
1.66629
1.66088
1.65907
1.65794
1.65593
1.65276
1.64912
1.64513
1.64157
1.63912
1.63645
1.63257
1.62853
1.62488
1.62043
1.61564
1.61153
1.60734
1.60262
1.59835
1.59415
1.58809
1.58288
1.57858
1.57384
1.56826
1.56178
1.55445
1.5475
1.54222
1.53709
1.53009
1.5221
1.51539
1.50879
1.50086
1.493
1.48588
1.47831
1.46975
1.46018
1.45129
1.44313
1.43462
1.42577
1.41504
1.40455
1.39568
1.38599
1.37498
1.36404
1.35342
1.34183
1.33063
1.3201
1.30852
1.29604
1.2847
1.27289
1.26181
1.25053
1.23914
1.22722
1.21513
1.20369
1.19178
1.18102
1.16847
1.15701
1.14543
1.13347
1.12152
1.1102
1.10075
1.09149
1.08434
1.07819
1.07317
1.0683
1.0664
1.0655
1.80301
1.8014
1.79673
1.79336
1.79309
1.79447
1.79539
1.79434
1.79095
1.78727
1.7832
1.77923
1.77813
1.77825
1.77801
1.77562
1.76932
1.76808
1.7681
1.76689
1.76234
1.75724
1.75453
1.75232
1.7502
1.74725
1.74204
1.73628
1.7329
1.73088
1.72749
1.72221
1.71798
1.71418
1.70968
1.70514
1.70057
1.69458
1.68874
1.68444
1.67978
1.6744
1.66912
1.66257
1.65589
1.6499
1.64404
1.63639
1.62866
1.62264
1.61578
1.60684
1.59927
1.59315
1.5852
1.57554
1.56713
1.55875
1.55008
1.54114
1.53119
1.52136
1.51149
1.50168
1.49206
1.48146
1.46927
1.45849
1.44863
1.43663
1.42386
1.41262
1.40084
1.38865
1.37693
1.36398
1.35136
1.33803
1.32477
1.31176
1.29851
1.28455
1.27134
1.25748
1.24282
1.22862
1.21468
1.20049
1.18608
1.17199
1.15734
1.14401
1.12933
1.1158
1.10342
1.09103
1.08148
1.07485
1.07101
1.07107
1.9125
1.90863
1.90288
1.90001
1.89941
1.89983
1.9024
1.90351
1.90223
1.89779
1.89227
1.88735
1.884
1.88333
1.8832
1.88292
1.88002