/*--------------------------------*- C++ -*----------------------------------*\
  =========                 |
  \\      /  F ield         | OpenFOAM: The Open Source CFD Toolbox
   \\    /   O peration     | Website:  https://openfoam.org
    \\  /    A nd           | Version:  7
     \\/     M anipulation  |
\*---------------------------------------------------------------------------*/
FoamFile
{
    version     2.0;
    format      ascii;
    class       volScalarField;
    location    "2.1";
    object      T;
}
// * * * * * * * * * * * * * * * * * * * * * * * * * * * * * * * * * * * * * //

dimensions      [0 0 0 1 0 0 0];

internalField   nonuniform List<scalar> 
8400
(
0.893531
1.07481
1.15735
1.21873
1.25571
1.28462
1.30269
1.30999
1.31562
1.30721
1.29853
1.28852
1.27805
1.28376
1.29197
1.29981
1.32462
1.37285
1.3866
1.39483
1.40031
1.40007
1.36775
1.30475
1.28886
1.287
1.30716
1.33042
1.33315
1.29288
0.492672
0.478294
0.495341
0.55145
0.671077
0.787789
0.909477
1.02879
1.10896
1.18258
1.23805
1.29065
1.33813
1.37892
1.41293
1.43636
1.48388
1.4927
1.49403
1.49419
1.50519
1.51057
1.48357
1.40154
1.34967
1.34207
1.34971
1.35698
1.35295
1.31351
0.45893
0.450378
0.441428
0.433132
0.426127
0.421424
0.417007
0.408949
0.412075
0.47262
0.582926
0.717639
0.884717
0.999017
1.09279
1.19661
1.31302
1.43807
1.52669
1.55621
1.58479
1.60492
1.58436
1.50861
1.44395
1.41151
1.39115
1.37658
1.35604
1.30685
0.41659
0.41369
0.412235
0.411591
0.409982
0.406574
0.403207
0.400893
0.398444
0.397597
0.397584
0.398574
0.400831
0.402784
0.403639
0.453222
0.60179
0.914619
1.30424
1.49801
1.59755
1.64782
1.6371
1.59297
1.53519
1.482
1.44898
1.40528
1.35586
1.29691
0.400585
0.401919
0.403738
0.405794
0.406255
0.405391
0.401899
0.401232
0.402609
0.404567
0.407092
0.411981
0.416627
0.420753
0.425804
0.42923
0.435618
0.44107
0.544134
0.903654
1.21276
1.44876
1.59784
1.61067
1.59697
1.55208
1.48312
1.4137
1.3388
1.26358
0.408715
0.409433
0.409859
0.410076
0.409393
0.409632
0.412528
0.418578
0.424901
0.430663
0.435678
0.438504
0.439579
0.44255
0.449269
0.455101
0.4581
0.463171
0.46405
0.464778
0.517757
0.79233
1.20375
1.48137
1.51417
1.49913
1.4608
1.40072
1.32306
1.23795
0.426055
0.427862
0.429157
0.431425
0.43472
0.438517
0.443778
0.448919
0.453223
0.458426
0.462749
0.464497
0.466316
0.469867
0.476
0.477693
0.475318
0.47572
0.481701
0.492695
0.502347
0.506988
0.567862
0.878824
1.17503
1.20379
1.1965
1.20209
1.18185
1.15896
0.459444
0.464331
0.469443
0.474146
0.474958
0.474714
0.474919
0.47604
0.478927
0.484935
0.492774
0.499105
0.502641
0.506634
0.509322
0.510207
0.51219
0.516417
0.523933
0.533751
0.53979
0.541745
0.543283
0.545943
0.598772
0.690309
0.741965
0.759095
0.81578
1.01129
0.499338
0.503726
0.506597
0.507133
0.505859
0.504195
0.504831
0.507037
0.511169
0.51898
0.52843
0.531105
0.530876
0.531357
0.53403
0.539266
0.544933
0.550246
0.554594
0.557824
0.557173
0.557032
0.557779
0.562753
0.571409
0.583788
0.601226
0.636754
0.661601
0.783346
0.538417
0.541674
0.546011
0.548043
0.547892
0.546699
0.546834
0.547791
0.550313
0.556217
0.561935
0.562768
0.563386
0.565294
0.568841
0.572961
0.575643
0.576847
0.575963
0.574952
0.576673
0.581301
0.587994
0.595794
0.605322
0.617485
0.637494
0.665798
0.688424
0.717928
0.587118
0.590771
0.595436
0.597109
0.597146
0.5952
0.592592
0.592678
0.594607
0.599321
0.604896
0.609198
0.610799
0.611379
0.611943
0.611538
0.610195
0.610474
0.612504
0.61699
0.621594
0.626238
0.631624
0.636694
0.642263
0.651814
0.668409
0.695781
0.721368
0.745138
0.637555
0.640086
0.643402
0.645528
0.646111
0.644857
0.63983
0.638059
0.638614
0.640746
0.64472
0.646418
0.645523
0.643803
0.643959
0.645198
0.648026
0.650972
0.653547
0.655895
0.656311
0.656526
0.656847
0.658786
0.664537
0.674985
0.687989
0.710215
0.732678
0.760151
0.690129
0.692451
0.695896
0.697632
0.698139
0.698079
0.694751
0.689181
0.687463
0.688001
0.691022
0.69361
0.693444
0.691558
0.690624
0.690397
0.689595
0.687214
0.685142
0.683975
0.684023
0.684765
0.687345
0.692844
0.700795
0.709372
0.718839
0.73082
0.741843
0.763846
0.749425
0.751826
0.752246
0.750377
0.748226
0.748095
0.748047
0.74441
0.740638
0.740523
0.739654
0.739179
0.739156
0.737434
0.733311
0.732333
0.732134
0.731099
0.729799
0.729776
0.730637
0.732033
0.733768
0.73644
0.740374
0.746206
0.754393
0.765991
0.776321
0.789482
0.811093
0.812023
0.81099
0.806621
0.804968
0.804257
0.801531
0.7963
0.795272
0.794992
0.7932
0.789273
0.786695
0.785449
0.782883
0.779569
0.777836
0.776049
0.772753
0.770318
0.769259
0.769184
0.770058
0.77128
0.773576
0.77829
0.783006
0.790375
0.800394
0.818181
0.873618
0.873061
0.870041
0.866015
0.86504
0.863579
0.858482
0.851888
0.850612
0.850263
0.847944
0.84229
0.835415
0.83486
0.834293
0.830962
0.825727
0.82235
0.819367
0.816577
0.814563
0.812353
0.812291
0.812523
0.81348
0.815592
0.816357
0.817808
0.819154
0.828935
0.937323
0.935585
0.932368
0.929209
0.928057
0.923542
0.915953
0.911326
0.909096
0.906606
0.902986
0.898241
0.891708
0.886763
0.884799
0.881722
0.876691
0.871905
0.867414
0.863492
0.860549
0.857431
0.85354
0.850273
0.850065
0.850901
0.850009
0.850338
0.851706
0.858413
1.00665
1.00366
1.00069
0.99719
0.991896
0.987653
0.982903
0.975515
0.970036
0.96704
0.963167
0.957251
0.950143
0.944473
0.94035
0.935385
0.929135
0.923592
0.917843
0.911643
0.907262
0.902617
0.896622
0.89195
0.889999
0.889347
0.886819
0.883434
0.884122
0.891865
1.0817
1.07787
1.07483
1.07102
1.06467
1.05908
1.05372
1.04671
1.0406
1.03514
1.02917
1.02266
1.01531
1.00721
1.00089
0.994666
0.986399
0.978972
0.972438
0.964661
0.958236
0.951813
0.944189
0.939095
0.935618
0.93239
0.930123
0.92694
0.923005
0.925236
1.13459
1.13205
1.12951
1.12727
1.12438
1.12041
1.11619
1.11132
1.10615
1.10138
1.09579
1.08936
1.08271
1.07528
1.06799
1.06074
1.05198
1.04322
1.03569
1.02719
1.01871
1.01116
1.00315
0.996427
0.991495
0.98631
0.981801
0.977229
0.973817
0.970803
1.14181
1.14126
1.14059
1.13952
1.13827
1.13693
1.1354
1.13305
1.13068
1.12875
1.12627
1.12339
1.12014
1.11628
1.1124
1.10813
1.10245
1.09604
1.09004
1.08331
1.07542
1.06785
1.06014
1.05268
1.0461
1.03947
1.03258
1.0262
1.021
1.01334
1.13122
1.13085
1.13069
1.13098
1.1307
1.13009
1.1298
1.12945
1.12859
1.1272
1.12542
1.12367
1.12172
1.11887
1.11583
1.11306
1.10958
1.10515
1.10067
1.09601
1.09045
1.08437
1.07811
1.07139
1.06454
1.05741
1.04982
1.04202
1.0351
1.02417
1.07731
1.07939
1.08179
1.08545
1.08735
1.08854
1.09065
1.09297
1.09455
1.09609
1.09813
1.09909
1.09961
1.09959
1.09897
1.09814
1.09691
1.09472
1.09181
1.08853
1.08463
1.0798
1.07446
1.06861
1.06189
1.05461
1.04704
1.03923
1.03211
1.02115
1.01577
1.0171
1.0185
1.02021
1.02211
1.02394
1.02592
1.02832
1.03074
1.0332
1.03588
1.03874
1.04153
1.04407
1.04641
1.04848
1.05027
1.05181
1.05217
1.05205
1.05143
1.04987
1.04734
1.04397
1.03973
1.03479
1.02942
1.02381
1.01852
1.01086
1.00065
1.00074
1.00085
1.00099
1.00116
1.00136
1.0016
1.00189
1.00224
1.00264
1.00313
1.00371
1.00439
1.00514
1.00597
1.00689
1.00783
1.00881
1.00972
1.01045
1.01103
1.01126
1.01113
1.01067
1.00982
1.00864
1.0072
1.0056
1.00405
1.00202
1.00001
1.00001
1.00001
1.00001
1.00001
1.00002
1.00002
1.00003
1.00003
1.00004
1.00005
1.00007
1.00009
1.00011
1.00014
1.00018
1.00023
1.00029
1.00035
1.00041
1.00048
1.00053
1.00056
1.00056
1.00054
1.0005
1.00042
1.00032
1.00022
1.00009
1
1
1
1
1
1
1
1
1
1
1
1
1
1
1
1
1
1
1
1
1
1.00001
1.00001
1.00001
1.00001
1.00001
1.00001
1
1
1
1
1
1
1
1
1
1
1
1
1
1
1
1
1
1
1
1
1
1
1
1
1
1
1
1
1
1
1
1
1
1
1
1
1
1
1
1
1
1
1
1
1
1
1
1
1
1
1
1
1
1
1
1
1
1
1
1
1
1
1
1
1
1
1
1
1
1
1
1
1
1
1
1
1
1
1
1
1
1
1
1
1
1
1
1
1
1
1
1
1
0.514894
0.503357
0.468848
0.420461
0.398879
0.406996
0.424218
0.454842
0.494464
0.536102
0.584614
0.635925
0.689649
0.749484
0.810427
0.874379
0.941429
1.01365
1.08964
1.13768
1.14297
1.13005
1.07317
1.01373
1.00056
1.00001
1
1
1
1
0.518554
0.504269
0.464202
0.414044
0.395925
0.407927
0.428089
0.459697
0.499264
0.544908
0.595334
0.651093
0.710549
0.771986
0.832979
0.897729
0.962489
1.03459
1.10627
1.14327
1.14472
1.12456
1.06267
1.00937
1.00028
1
1
1
1
1
0.523599
0.506755
0.461456
0.410521
0.395132
0.407818
0.429474
0.465452
0.506531
0.558121
0.612027
0.67069
0.73075
0.789236
0.8531
0.917094
0.981772
1.05167
1.11839
1.14674
1.14601
1.12069
1.05387
1.00659
1.00016
1
1
1
1
1
0.527043
0.507065
0.455996
0.407862
0.394748
0.409364
0.433646
0.478177
0.522304
0.569645
0.623731
0.681477
0.741825
0.802118
0.866309
0.92914
0.996455
1.06781
1.12944
1.14954
1.14647
1.1152
1.04405
1.00433
1.00009
1
1
1
1
1
0.530121
0.506997
0.452295
0.40737
0.395466
0.415344
0.442883
0.486472
0.526848
0.573731
0.6301
0.688451
0.749358
0.812547
0.876315
0.940922
1.01064
1.08359
1.13871
1.15156
1.14584
1.10611
1.0349
1.00276
1.00005
1
1
1
1
1
0.531799
0.505665
0.449271
0.407456
0.397101
0.417932
0.445465
0.489159
0.529795
0.577303
0.634455
0.694971
0.755403
0.819604
0.885291
0.954474
1.02737
1.0998
1.14609
1.15331
1.14455
1.09735
1.02721
1.0017
1.00002
1
1
1
1
1
0.531694
0.502377
0.446048
0.406994
0.397194
0.417949
0.445609
0.489789
0.534145
0.584111
0.644713
0.708208
0.774752
0.839263
0.906991
0.978446
1.04763
1.11488
1.15172
1.1549
1.1424
1.08789
1.02004
1.00099
1.00001
1
1
1
1
1
0.528417
0.496174
0.442048
0.403423
0.395232
0.417313
0.445294
0.491827
0.546621
0.609381
0.670703
0.734531
0.798487
0.864897
0.933598
0.999213
1.06766
1.12849
1.15565
1.15596
1.1376
1.07594
1.014
1.00055
1.00001
1
1
1
1
1
0.52071
0.488452
0.438643
0.399959
0.394167
0.420831
0.45786
0.512569
0.56813
0.624238
0.684345
0.748042
0.813055
0.880634
0.947079
1.01474
1.08466
1.14021
1.15816
1.15646
1.1319
1.06396
1.00952
1.0003
1
1
1
1
1
1
0.515267
0.485821
0.43663
0.398432
0.395987
0.43233
0.473852
0.526637
0.574623
0.62918
0.692181
0.758935
0.825615
0.893569
0.961098
1.03175
1.10111
1.14931
1.15989
1.15593
1.12428
1.05194
1.00605
1.00015
1
1
1
1
1
1
0.51401
0.486278
0.4352
0.397626
0.404086
0.441397
0.479128
0.529379
0.577086
0.631696
0.697718
0.76882
0.837397
0.90631
0.978592
1.05226
1.11746
1.15606
1.16147
1.15439
1.11389
1.04041
1.00366
1.00007
1
1
1
1
1
1
0.51413
0.489636
0.435117
0.397432
0.408613
0.443801
0.48048
0.52778
0.580536
0.6418
0.716679
0.788389
0.861246
0.93394
1.00686
1.07437
1.13336
1.16089
1.16289
1.15291
1.1034
1.03011
1.0021
1.00003
1
1
1
1
1
1
0.518113
0.494354
0.436248
0.397238
0.40884
0.442975
0.482348
0.532953
0.599334
0.67732
0.746538
0.818069
0.890281
0.961188
1.02883
1.09516
1.14673
1.16429
1.16394
1.14774
1.08991
1.02075
1.0011
1.00002
1
1
1
1
1
1
0.525308
0.496593
0.434543
0.395824
0.40721
0.440886
0.486645
0.561345
0.632543
0.696425
0.766033
0.838087
0.908723
0.977987
1.0472
1.11293
1.15638
1.16698
1.16447
1.14124
1.07596
1.01406
1.00057
1.00001
1
1
1
1
1
1
0.530319
0.49692
0.430701
0.392417
0.408573
0.452143
0.514706
0.58367
0.64358
0.706947
0.780563
0.854451
0.924081
0.995278
1.06806
1.12924
1.16346
1.16898
1.1645
1.13563
1.06265
1.00878
1.00027
1
1
1
1
1
1
1
0.53228
0.495103
0.430231
0.391477
0.418245
0.47259
0.529299
0.591206
0.649208
0.717508
0.796734
0.869297
0.943172
1.02108
1.09222
1.14473
1.16836
1.17016
1.16481
1.12443
1.04637
1.00475
1.00011
1
1
1
1
1
1
1
0.532906
0.494023
0.432703
0.394867
0.426998
0.481003
0.532249
0.593448
0.658105
0.742704
0.819506
0.894675
0.977084
1.05124
1.11392
1.15742
1.17149
1.17088
1.15933
1.10754
1.03316
1.00264
1.00005
1
1
1
1
1
1
1
0.533748
0.494263
0.437859
0.400562
0.430968
0.48303
0.535672
0.60216
0.692991
0.771873
0.846017
0.929746
1.00682
1.07378
1.13186
1.16661
1.17406
1.17168
1.15214
1.09416
1.02337
1.00136
1.00002
1
1
1
1
1
1
1
0.541263
0.495396
0.439977
0.402966
0.434382
0.486335
0.54932
0.64488
0.725462
0.793409
0.875161
0.95834
1.02945
1.09522
1.14788
1.17295
1.17629
1.17305
1.14764
1.07877
1.0141
1.00059
1.00001
1
1
1
1
1
1
1
0.551612
0.495577
0.440669
0.408718
0.44952
0.511945
0.588705
0.672976
0.741256
0.818479
0.906314
0.98162
1.05358
1.11855
1.1608
1.17638
1.17758
1.17355
1.13875
1.05789
1.00749
1.00023
1
1
1
1
1
1
1
1
0.554682
0.488348
0.431733
0.418142
0.468436
0.540249
0.610805
0.684195
0.759082
0.85021
0.931971
1.00711
1.08328
1.13915
1.16995
1.17836
1.17781
1.16745
1.11759
1.04029
1.00382
1.00009
1
1
1
1
1
1
1
1
0.557238
0.4762
0.418678
0.426583
0.480676
0.552176
0.618084
0.696726
0.791183
0.88254
0.959394
1.04136
1.10956
1.15562
1.17635
1.18031
1.17795
1.15947
1.10227
1.02833
1.00195
1.00003
1
1
1
1
1
1
1
1
0.560692
0.468676
0.409145
0.431978
0.483373
0.553677
0.62553
0.728896
0.835309
0.911805
0.993859
1.0722
1.1317
1.16879
1.18103
1.18261
1.17882
1.15433
1.08648
1.01714
1.00082
1.00001
1
1
1
1
1
1
1
1
0.561644
0.460828
0.39894
0.432139
0.482937
0.552835
0.659508
0.784962
0.864269
0.944025
1.03051
1.09963
1.15159
1.17807
1.1842
1.18493
1.18047
1.14663
1.06163
1.00783
1.00025
1
1
1
1
1
1
1
1
1
0.563336
0.450436
0.392488
0.428219
0.495906
0.606404
0.723411
0.814352
0.893737
0.983992
1.06288
1.12669
1.16753
1.18376
1.18634
1.18571
1.17605
1.12071
1.03845
1.0035
1.00008
1
1
1
1
1
1
1
1
1
0.569458
0.443516
0.391072
0.433948
0.543372
0.662359
0.753338
0.839713
0.933598
1.02235
1.09563
1.15113
1.17889
1.18761
1.18766
1.18538
1.16259
1.09754
1.02464
1.00159
1.00003
1
1
1
1
1
1
1
1
1
0.574449
0.44083
0.395934
0.481518
0.598576
0.688953
0.775237
0.879543
0.983844
1.06114
1.12756
1.16987
1.18692
1.19063
1.18974
1.1832
1.1521
1.07884
1.01376
1.00057
1.00001
1
1
1
1
1
1
1
1
1
0.569817
0.439336
0.420712
0.530402
0.617347
0.706986
0.815699
0.941658
1.02762
1.09901
1.15287
1.1835
1.19238
1.19303
1.19224
1.18172
1.13935
1.05265
1.00562
1.00016
1
1
1
1
1
1
1
1
1
1
0.557916
0.431142
0.456878
0.551751
0.639037
0.748424
0.889475
0.99147
1.06867
1.13285
1.17213
1.19184
1.19556
1.19509
1.19352
1.17952
1.10993
1.02658
1.00183
1.00004
1
1
1
1
1
1
1
1
1
1
0.541394
0.429578
0.485495
0.562809
0.680398
0.833507
0.947339
1.03506
1.10959
1.15967
1.1857
1.19584
1.19701
1.196
1.19163
1.1561
1.07355
1.01243
1.00056
1.00001
1
1
1
1
1
1
1
1
1
1
0.539253
0.452276
0.491126
0.607139
0.766864
0.894534
0.993922
1.08104
1.14555
1.17963
1.19387
1.19776
1.1974
1.19603
1.18237
1.13106
1.04949
1.00566
1.00017
1
1
1
1
1
1
1
1
1
1
1
0.517871
0.46429
0.51095
0.67689
0.833345
0.946683
1.04853
1.12692
1.17346
1.19118
1.19801
1.19934
1.19798
1.19453
1.17345
1.11052
1.02928
1.00198
1.00004
1
1
1
1
1
1
1
1
1
1
1
0.498113
0.466176
0.583271
0.762415
0.895757
1.01077
1.10583
1.16149
1.19141
1.19603
1.19976
1.20118
1.19917
1.19216
1.16213
1.0778
1.01173
1.00049
1.00001
1
1
1
1
1
1
1
1
1
1
1
0.493414
0.498926
0.669461
0.831994
0.967322
1.07987
1.14869
1.18464
1.20002
1.19766
1.20048
1.20239
1.20116
1.19098
1.13062
1.0387
1.00347
1.0001
1
1
1
1
1
1
1
1
1
1
1
1
0.511636
0.557983
0.753343
0.921256
1.05263
1.13292
1.17771
1.19775
1.20255
1.1985
1.20173
1.20281
1.20093
1.16979
1.08523
1.01642
1.00092
1.00002
1
1
1
1
1
1
1
1
1
1
1
1
0.134174
0.580763
0.854072
1.01806
1.1179
1.17053
1.19456
1.20294
1.20349
1.1989
1.20306
1.20139
1.18922
1.13509
1.05152
1.00622
1.0002
1
1
1
1
1
1
1
1
1
1
1
1
1
0.198539
0.715194
0.966019
1.10184
1.16436
1.19225
1.20133
1.20452
1.20413
1.1991
1.20389
1.19687
1.1706
1.10401
1.02584
1.00166
1.00003
1
1
1
1
1
1
1
1
1
1
1
1
1
0.390485
0.841998
1.07011
1.1593
1.19094
1.20069
1.20339
1.20517
1.20456
1.19925
1.2041
1.19083
1.15081
1.06519
1.00826
1.00029
1
1
1
1
1
1
1
1
1
1
1
1
1
1
0.673958
0.996665
1.15181
1.19132
1.20064
1.20287
1.20429
1.20563
1.20468
1.19862
1.20222
1.18223
1.11096
1.02508
1.00157
1.00003
1
1
1
1
1
1
1
1
1
1
1
1
1
1
0.997903
1.14809
1.19294
1.20153
1.20265
1.20347
1.20487
1.20579
1.20401
1.19733
1.19452
1.1539
1.05723
1.00588
1.00016
1
1
1
1
1
1
1
1
1
1
1
1
1
1
1
1.2027
1.20289
1.20312
1.20336
1.20306
1.20378
1.205
1.20578
1.20236
1.19424
1.18236
1.11013
1.01973
0.999895
0.999989
1
1
1
1
1
1
1
1
1
1
1
1
1
1
1
1.20227
1.20258
1.20318
1.20366
1.20327
1.20301
1.2039
1.20556
1.20355
1.19314
1.17926
1.10446
1.02049
1.00078
1.00001
1
1
1
1
1
1
1
1
1
1
1
1
1
1
1
1.2019
1.20221
1.20334
1.20411
1.20372
1.20278
1.20279
1.20503
1.20377
1.19261
1.16745
1.0686
1.00621
1.0001
1
1
1
1
1
1
1
1
1
1
1
1
1
1
1
1
1.20171
1.20195
1.20335
1.20443
1.20417
1.20241
1.20203
1.20439
1.20379
1.18997
1.1445
1.04604
1.00286
1.00003
1
1
1
1
1
1
1
1
1
1
1
1
1
1
1
1
1.20163
1.20181
1.20331
1.20456
1.20448
1.20226
1.20117
1.20371
1.20423
1.18784
1.12406
1.02927
1.00112
1.00001
1
1
1
1
1
1
1
1
1
1
1
1
1
1
1
1
1.2016
1.20176
1.20309
1.20456
1.20457
1.20242
1.20033
1.20244
1.20416
1.18292
1.09966
1.01489
1.00036
1
1
1
1
1
1
1
1
1
1
1
1
1
1
1
1
1
1.20176
1.20185
1.20278
1.20404
1.20457
1.20319
1.20012
1.20135
1.20115
1.16377
1.07215
1.00687
1.00011
1
1
1
1
1
1
1
1
1
1
1
1
1
1
1
1
1
1.20228
1.2023
1.20266
1.20327
1.20406
1.20434
1.20142
1.20123
1.19864
1.14639
1.04928
1.00301
1.00003
1
1
1
1
1
1
1
1
1
1
1
1
1
1
1
1
1
1.20273
1.20264
1.20241
1.2022
1.2035
1.20545
1.20426
1.20081
1.19455
1.12423
1.02723
1.00101
1.00001
1
1
1
1
1
1
1
1
1
1
1
1
1
1
1
1
1
1.2029
1.20267
1.2021
1.2014
1.20275
1.20601
1.20656
1.19869
1.17856
1.09563
1.01354
1.00032
1
1
1
1
1
1
1
1
1
1
1
1
1
1
1
1
1
1
1.20293
1.20258
1.20196
1.20098
1.20189
1.20645
1.20761
1.19698
1.1641
1.07156
1.00648
1.0001
1
1
1
1
1
1
1
1
1
1
1
1
1
1
1
1
1
1
1.20273
1.20229
1.20189
1.20089
1.20139
1.20644
1.20801
1.19609
1.1473
1.04439
1.00237
1.00002
1
1
1
1
1
1
1
1
1
1
1
1
1
1
1
1
1
1
1.20251
1.20191
1.20182
1.20164
1.20124
1.20657
1.20776
1.18627
1.12006
1.02346
1.00077
1.00001
1
1
1
1
1
1
1
1
1
1
1
1
1
1
1
1
1
1
1.20229
1.20158
1.20208
1.20216
1.20187
1.20725
1.2076
1.1749
1.09168
1.01176
1.00024
1
1
1
1
1
1
1
1
1
1
1
1
1
1
1
1
1
1
1
1.20196
1.20116
1.20232
1.2031
1.20326
1.20708
1.20736
1.16307
1.06138
1.00454
1.00006
1
1
1
1
1
1
1
1
1
1
1
1
1
1
1
1
1
1
1
1.20165
1.20057
1.20167
1.20434
1.20501
1.2042
1.20027
1.13816
1.03443
1.0015
1.00001
1
1
1
1
1
1
1
1
1
1
1
1
1
1
1
1
1
1
1
1.20144
1.20007
1.20052
1.20525
1.20926
1.20166
1.18727
1.1103
1.01854
1.00048
1
1
1
1
1
1
1
1
1
1
1
1
1
1
1
1
1
1
1
1
1.20098
1.19966
1.19959
1.20755
1.21164
1.20127
1.17576
1.07975
1.00766
1.00012
1
1
1
1
1
1
1
1
1
1
1
1
1
1
1
1
1
1
1
1
1.20004
1.19946
1.199
1.20969
1.21339
1.19993
1.15513
1.0464
1.00256
1.00003
1
1
1
1
1
1
1
1
1
1
1
1
1
1
1
1
1
1
1
1
1.19908
1.19918
1.19894
1.21144
1.21431
1.19085
1.12427
1.02527
1.00083
1.00001
1
1
1
1
1
1
1
1
1
1
1
1
1
1
1
1
1
1
1
1
1.19816
1.19993
1.2007
1.21195
1.2148
1.18307
1.09225
1.01079
1.0002
1
1
1
1
1
1
1
1
1
1
1
1
1
1
1
1
1
1
1
1
1
1.19683
1.201
1.20251
1.21038
1.21413
1.16712
1.05595
1.00355
1.00004
1
1
1
1
1
1
1
1
1
1
1
1
1
1
1
1
1
1
1
1
1
1.19568
1.20251
1.20783
1.20711
1.20366
1.13513
1.03097
1.00115
1.00001
1
1
1
1
1
1
1
1
1
1
1
1
1
1
1
1
1
1
1
1
1
1.19527
1.20604
1.21412
1.20621
1.19148
1.10404
1.01385
1.00029
1
1
1
1
1
1
1
1
1
1
1
1
1
1
1
1
1
1
1
1
1
1
1.1952
1.20899
1.21697
1.20696
1.17474
1.06278
1.00435
1.00006
1
1
1
1
1
1
1
1
1
1
1
1
1
1
1
1
1
1
1
1
1
1
1.19753
1.21062
1.21866
1.20089
1.1411
1.03331
1.00133
1.00001
1
1
1
1
1
1
1
1
1
1
1
1
1
1
1
1
1
1
1
1
1
1
1.20119
1.2122
1.21989
1.1912
1.10644
1.01476
1.00032
1
1
1
1
1
1
1
1
1
1
1
1
1
1
1
1
1
1
1
1
1
1
1
1.20528
1.21402
1.22046
1.17801
1.06456
1.00449
1.00006
1
1
1
1
1
1
1
1
1
1
1
1
1
1
1
1
1
1
1
1
1
1
1
1.21108
1.21204
1.21238
1.13997
1.03239
1.00127
1.00001
1
1
1
1
1
1
1
1
1
1
1
1
1
1
1
1
1
1
1
1
1
1
1
1.22656
1.20463
1.19504
1.10203
1.0142
1.00031
1
1
1
1
1
1
1
1
1
1
1
1
1
1
1
1
1
1
1
1
1
1
1
1
1.24347
1.19506
1.17216
1.06033
1.00425
1.00006
1
1
1
1
1
1
1
1
1
1
1
1
1
1
1
1
1
1
1
1
1
1
1
1
1.25515
1.18326
1.1297
1.02891
1.00121
1.00001
1
1
1
1
1
1
1
1
1
1
1
1
1
1
1
1
1
1
1
1
1
1
1
1
1.26149
1.16654
1.08915
1.01223
1.00032
1
1
1
1
1
1
1
1
1
1
1
1
1
1
1
1
1
1
1
1
1
1
1
1
1
1.26245
1.1445
1.05391
1.00421
1.00007
1
1
1
1
1
1
1
1
1
1
1
1
1
1
1
1
1
1
1
1
1
1
1
1
1
1.24023
1.11592
1.02893
1.00137
1.00002
1
1
1
1
1
1
1
1
1
1
1
1
1
1
1
1
1
1
1
1
1
1
1
1
1
1.21568
1.08988
1.01398
1.00039
1
1
1
1
1
1
1
1
1
1
1
1
1
1
1
1
1
1
1
1
1
1
1
1
1
1
1.18989
1.05766
1.00479
1.00008
1
1
1
1
1
1
1
1
1
1
1
1
1
1
1
1
1
1
1
1
1
1
1
1
1
1
1.14619
1.03058
1.00138
1.00001
1
1
1
1
1
1
1
1
1
1
1
1
1
1
1
1
1
1
1
1
1
1
1
1
1
1
1.09377
1.0129
1.00028
1
1
1
1
1
1
1
1
1
1
1
1
1
1
1
1
1
1
1
1
1
1
1
1
1
1
1
1.03726
1.00254
1.00002
1
1
1
1
1
1
1
1
1
1
1
1
1
1
1
1
1
1
1
1
1
1
1
1
1
1
1
1
1
1
1
1
1
1
1
1
1
1
1
1
1
1
1
1
1
1
1
1
1
1
1
1
1
1
1
1
1
1
1
1
1
1
1
1
1
1
1
1
1
1
1
1
1
1
1
1
1
1
1
1
1
1
1
1
1
1
1
1
1
1
1
1
1
1
1
1
1
1
1
1
1
1
1
1
1
1
1
1
1
1
1
1
1
1
1
1
1
1
1
1
1
1
1
1
1
1
1
1
1
1
1
1
1
1
1
1
1
1
1
1
1
1
1
1
1
1
1
1
1
1
1
1
1
1
1
1
1
1
1
1
1
1
1
1
1
1
1
1
1
1
1
1
1
1
1
1
1
1
1
1
1
1
1
1
1
1
1
1
1
1
1
1
1
1
1
1
1
1
1
1
1
1
1
1
1
1
1
1
1
1
1
1
1
1
1
1
1
1
1
1
1
1
1
1
1
1
1
1
1
1
1
1
1
1
1
1
1
1
1
1
1
1
1
1
1
1
1
1
1
1
1
1
1
1
1
1
1
1
1
1
1
1
1
1
1
1
1
1
1
1
1
1
1
1
1
1
1
1
1
1
1
1
1
1
1
1
1
1
1
1
1
1
1
1
1
1
1
1
1
1
1
1
1
1
1
1
1
1
1
1
1
1
1
1
1
1
1
1
1
1
1
1
1
1
1
1
1
1
1
1
1
1
1
1
1
1
1
1
1
1
1
1
1
1
1
1
1
1
1
1
1
1
1
1
1
1
1
1
1
1
1
1
1
1
1
1
1
1
1
1
1
1
1
1
1
1
1
1
1
1
1
1
1
1
1
1
1
1
1
1
1
1
1
1
1
1
1
1
1
1
1
1
1
1
1
1
1
1
1
1
1
1
1
1
1
1
1
1
1
1
1
1
1
1
1
1
1
1
1
1
1
1
1
1
1
1
1
1
1
1
1
1
1
1
1
1
1
1
1
1
1
1
1
1
1
1
1
1
1
1
1
1
1
1
1
1
1
1
1
1
1
1
1
1
1
1
1
1
1
1
1
1
1
1
1
1
1
1
1
1
1
1
1
1
1
1
1
1
1
1
1
1
1
1
1
1
1
1
1
1
1
1
1
1
1
1
1
1
1
1
1
1
1
1
1
1
1
1
1
1
1
1
1
1
1
1
1
1
1
1
1
1
1
1
1
1
1
1
1
1
1
1
1
1
1
1
1
1
1
1
1
1
1
1
1
1
1
1
1
1
1
1
1
1
1
1
1
1
1
1
1
1
1
1
1
1
1
1
1
1
1
1
1
1
1
1
1
1
1
1
1
1
1
1
1
1
1
1
1
1
1
1
1
1
1
1
1
1
1
1
1
1
1
1
1
1
1
1
1
1
1
1
1
1
1
1
1
1
1
1
1
1
1
1
1
1
1
1
1
1
1
1
1
1
1
1
1
1
1
1
1
1
1
1
1
1
1
1
1
1
1
1
1
1
1
1
1
1
1
1
1
1
1
1
1
1
1
1
1
1
1
1
1
1
1
1
1
1
1
1
1
1
1
1
1
1
1
1
1
1
1
1
1
1
1
1
1
1
1
1
1
1
1
1
1
1
1
1
1
1
1
1
1
1
1
1
1
1
1
1
1
1
1
1
1
1
1
1
1
1
1
1
1
1
1
1
1
1
1
1
1
1
1
1
1
1
1
1
1
1
1
1
1
1
1
1
1
1
1
1
1
1
1
1
1
1
1
1
1
1
1
1
1
1
1
1
1
1
1
1
1
1
1
1
1
1
1
1
1
1
1
1
1
1
1
1
1
1
1
1
1
1
1
1
1
1
1
1
1
1
1
1
1
1
1
1
1
1
1
1
1
1
1
1
1
1
1
1
1
1
1
1
1
1
1
1
1
1
1
1
1
1
1
1
1
1
1
1
1
1
1
1
1
1
1
1
1
1
1
1
1
1
1
1
1
1
1
1
1
1
1
1
1
1
1
1
1
1
1
1
1
1
1
1
1
1
1
1
1
1
1
1
1
1
1
1
1
1
1
1
1
1
1
1
1
1
1
1
1
1
1
1
1
1
1
1
1
1
1
1
1
1
1
1
1
1
1
1
1
1
1
1
1
1
1
1
1
1
1
1
1
1
1
1
1
1
1
1
1
1
1
1
1
1
1
1
1
1
1
1
1
1
1
1
1
1
1
1
1
1
1
1
1
1
1
1
1
1
1
1
1
1
1
1
1
1
1
1
1
1
1
1
1
1
1
1
1
1
1
1
1
1
1
1
1
1
1
1
1
1
1
1
1
1
1
1
1
1
1
1
1
1
1
1
1
1
1
1
1
1
1
1
1
1
1
1
1
1
1
1
1
1
1
1
1
1
1
1
1
1
1
1
1
1
1
1
1
1
1
1
1
1
1
1
1
1
1
1
1
1
1
1
1
1
1
1
1
1
1
1
1
1
1
1
1
1
1
1
1
1
1
1
1
1
1
1
1
1
1
1
1
1
1
1
1
1
1
1
1
1
1
1
1
1
1
1
1
1
1
1
1
1
1
1
1
1
1
1
1
1
1
1
1
1
1
1
1
1
1
1
1
1
1
1
1
1
1
1
1
1
1
1
1
1
1
1
1
1
1
1
1
1
1
1
1
1
1
1
1
1
1
1
1
1
1
1
1
1
1
1
1
1
1
1
1
1
1
1
1
1
1
1
1
1
1
1
1
1
1
1
1
1
1
1
1
1
1
1
1
1
1
1
1
1
1
1
1
1
1
1
1
1
1
1
1
1
1
1
1
1
1
1
1
1
1
1
1
1
1
1
1
1
1
1
1
1
1
1
1
1
1
1
1
1
1
1
1
1
1
1
1
1
1
1
1
1
1
1
1
1
1
1
1
1
1
1
1
1
1
1
1
1
1
1
1
1
1
1
1
1
1
1
1
1
1
1
1
1
1
1
1
1
1
1
1
1
1
1
1
1
1
1
1
1
1
1
1
1
1
1
1
1
1
1
1
1
1
1
1
1
1
1
1
1
1
1
1
1
1
1
1
1
1
1
1
1
1
1
1
1
1
1
1
1
1
1
1
1
1
1
1
1
1
1
1
1
1
1
1
1
1
1
1
1
1
1
1
1
1
1
1
1
1
1
1
1
1
1
1
1
1
1
1
1
1
1
1
1
1
1
1
1
1
1
1
1
1
1
1
1
1
1
1
1
1
1
1
1
1
1
1
1
1
1
1
1
1
1
1
1
1
1
1
1
1
1
1
1
1
1
1
1
1
1
1
1
1
1
1
1
1
1
1
1
1
1
1
1
1
1
1
1
1
1
1
1
1
1
1
1
1
1
1
1
1
1
1
1
1
1
1
1
1
1
1
1
1
1
1
1
1
1
1
1
1
1
1
1
1
1
1
1
1
1
1
1
1
1
1
1
1
1
1
1
1
1
1
1
1
1
1
1
1
1
1
1
1
1
1
1
1
1
1
1
1
1
1
1
1
1
1
1
1
1
1
1
1
1
1
1
1
1
1
1
1
1
1
1
1
1
1
1
1
1
1
1
1
1
1
1
1
1
1
1
1
1
1
1
1
1
1
1
1
1
1
1
1
1
1
1
1
1
1
1
1
1
1
1
1
1
1
1
1
1
1
1
1
1
1
1
1
1
1
1
1
1
1
1
1
1
1
1
1
1
1
1
1
1
1
1
1
1
1
1
1
1
1
1
1
1
1
1
1
1
1
1
1
1
1
1
1
1
1
1
1
1
1
1
1
1
1
1
1
1
1
1
1
1
1
1
1
1
1
1
1
1
1
1
1
1
1
1
1
1
1
1
1
1
1
1
1
1
1
1
1
1
1
1
1
1
1
1
1
1
1
1
1
1
1
1
1
1
1
1
1
1
1
1
1
1
1
1
1
1
1
1
1
1
1
1
1
1
1
1
1
1
1
1
1
1
1
1
1
1
1
1
1
1
1
1
1
1
1
1
1
1
1
1
1
1
1
1
1
1
1
1
1
1
1
1
1
1
1
1
1
1
1
1
1
1
1
1
1
1
1
1
1
1
1
1
1
1
1
1
1
1
1
1
1
1
1
1
1
1
1
1
1
1.10736
1
1
1
1
1
1
1
1
1
1
1
1
1
1
1
1
1
1
1
1
1
1
1
1
1
1
1
1
1
1.29033
0.99962
1
1
1
1
1
1
1
1
1
1
1
1
1
1
1
1
1
1
1
1
1
1
1
1
1
1
1
1
1.47838
1.03163
1
1
1
1
1
1
1
1
1
1
1
1
1
1
1
1
1
1
1
1
1
1
1
1
1
1
1
1
1.67913
1.1376
1
1
1
1
1
1
1
1
1
1
1
1
1
1
1
1
1
1
1
1
1
1
1
1
1
1
1
1
1.86265
1.35085
0.999572
1
1
1
1
1
1
1
1
1
1
1
1
1
1
1
1
1
1
1
1
1
1
1
1
1
1
1
2.01174
1.60473
1.04837
0.999938
1
1
1
1
1
1
1
1
1
1
1
1
1
1
1
1
1
1
1
1
1
1
1
1
1
1
2.10405
1.86722
1.48334
1.00257
1
1
1
1
1
1
1
1
1
1
1
1
1
1
1
1
1
1
1
1
1
1
1
1
1
1
2.04309
1.91319
1.95799
1.31656
0.999668
1
1
1
1
1
1
1
1
1
1
1
1
1
1
1
1
1
1
1
1
1
1
1
1
1
1.94414
1.90444
2.03759
1.8414
1.11407
0.999847
1
1
1
1
1
1
1
1
1
1
1
1
1
1
1
1
1
1
1
1
1
1
1
1
1.88105
1.88877
2.00913
2.03955
1.54152
1.00415
1
1
1
1
1
1
1
1
1
1
1
1
1
1
1
1
1
1
1
1
1
1
1
1
1.85161
1.8816
1.97575
2.01805
1.86656
1.19591
0.999739
1
1
1
1
1
1
1
1
1
1
1
1
1
1
1
1
1
1
1
1
1
1
1
1.84039
1.87487
1.9423
1.97985
2.00092
1.54406
1.00979
1
1
1
1
1
1
1
1
1
1
1
1
1
1
1
1
1
1
1
1
1
1
1
1.83751
1.86569
1.91666
1.96949
2.01601
1.84569
1.18729
0.999733
1
1
1
1
1
1
1
1
1
1
1
1
1
1
1
1
1
1
1
1
1
1
1.83895
1.86546
1.9071
1.96556
2.00727
1.95419
1.52115
1.00918
1
1
1
1
1
1
1
1
1
1
1
1
1
1
1
1
1
1
1
1
1
1
1.84253
1.86764
1.90896
1.96096
1.99347
1.96022
1.74384
1.12506
0.99988
1
1
1
1
1
1
1
1
1
1
1
1
1
1
1
1
1
1
1
1
1
1.8491
1.87242
1.91248
1.95564
1.97867
1.95881
1.87668
1.38123
1.00016
1
1
1
1
1
1
1
1
1
1
1
1
1
1
1
1
1
1
1
1
1
1.85723
1.87837
1.91631
1.95657
1.97014
1.96038
1.93982
1.65976
1.06117
1
1
1
1
1
1
1
1
1
1
1
1
1
1
1
1
1
1
1
1
1
1.86575
1.88409
1.91847
1.95627
1.96484
1.95939
1.94044
1.81067
1.27477
0.999605
1
1
1
1
1
1
1
1
1
1
1
1
1
1
1
1
1
1
1
1
1.87218
1.88834
1.91743
1.95394
1.96445
1.95816
1.93674
1.86107
1.49182
1.01199
1
1
1
1
1
1
1
1
1
1
1
1
1
1
1
1
1
1
1
1
1.87506
1.88799
1.91397
1.94906
1.963
1.95484
1.93664
1.89222
1.68034
1.10564
1
1
1
1
1
1
1
1
1
1
1
1
1
1
1
1
1
1
1
1
1.87662
1.88631
1.91135
1.94434
1.95962
1.95058
1.93562
1.90826
1.80546
1.32245
0.999537
1
1
1
1
1
1
1
1
1
1
1
1
1
1
1
1
1
1
1
1.87592
1.88283
1.90819
1.93989
1.95613
1.94823
1.93345
1.90788
1.83982
1.52287
1.02095
1
1
1
1
1
1
1
1
1
1
1
1
1
1
1
1
1
1
1
1.87341
1.87803
1.90441
1.93585
1.9523
1.94632
1.93199
1.90605
1.85637
1.65313
1.10618
1
1
1
1
1
1
1
1
1
1
1
1
1
1
1
1
1
1
1
1.86946
1.87275
1.90002
1.93149
1.9484
1.94339
1.92976
1.9052
1.86727
1.76858
1.28839
0.999562
1
1
1
1
1
1
1
1
1
1
1
1
1
1
1
1
1
1
1.86446
1.86752
1.89508
1.92615
1.94361
1.93971
1.92699
1.90353
1.87027
1.80128
1.47649
1.01311
1
1
1
1
1
1
1
1
1
1
1
1
1
1
1
1
1
1
1.85889
1.86238
1.88947
1.91918
1.93716
1.93477
1.92307
1.89972
1.86916
1.81589
1.59067
1.06609
1
1
1
1
1
1
1
1
1
1
1
1
1
1
1
1
1
1
1.8533
1.85739
1.88307
1.91078
1.92907
1.92803
1.91786
1.89489
1.86704
1.82663
1.69829
1.18956
0.999741
1
1
1
1
1
1
1
1
1
1
1
1
1
1
1
1
1
1.84828
1.85308
1.87742
1.90295
1.92084
1.92053
1.9115
1.88979
1.86564
1.82963
1.75281
1.35801
1.00192
1
1
1
1
1
1
1
1
1
1
1
1
1
1
1
1
1
1.84398
1.84918
1.87266
1.89666
1.91408
1.91384
1.90535
1.88429
1.86239
1.83041
1.76797
1.48345
1.02001
0.999999
1
1
1
1
1
1
1
1
1
1
1
1
1
1
1
1
1.8406
1.84604
1.86837
1.8918
1.90854
1.90872
1.90094
1.88031
1.85838
1.82993
1.78675
1.59385
1.07728
1
1
1
1
1
1
1
1
1
1
1
1
1
1
1
1
1
1.8382
1.84349
1.86481
1.88807
1.90425
1.90501
1.89769
1.87693
1.85436
1.82981
1.79835
1.67134
1.19478
0.999806
1
1
1
1
1
1
1
1
1
1
1
1
1
1
1
1
1.83637
1.84143
1.86171
1.88504
1.90089
1.90156
1.89432
1.8732
1.84963
1.82843
1.79753
1.70253
1.31756
1.00104
1
1
1
1
1
1
1
1
1
1
1
1
1
1
1
1
1.83478
1.8397
1.85942
1.88221
1.8976
1.89772
1.89041
1.86868
1.84414
1.82497
1.79908
1.74529
1.43929
1.01168
0.999999
1
1
1
1
1
1
1
1
1
1
1
1
1
1
1
1.83335
1.83808
1.85735
1.87916
1.89388
1.89371
1.88632
1.8639
1.83866
1.82053
1.79865
1.76939
1.54689
1.05527
1
1
1
1
1
1
1
1
1
1
1
1
1
1
1
1
1.83187
1.83632
1.85517
1.87583
1.88992
1.89013
1.88252
1.85983
1.83358
1.81488
1.79527
1.77131
1.6075
1.12924
1
1
1
1
1
1
1
1
1
1
1
1
1
1
1
1
1.83023
1.8344
1.85267
1.87241
1.88618
1.88593
1.87914
1.85668
1.82885
1.80843
1.79186
1.77551
1.68033
1.23535
0.999828
1
1
1
1
1
1
1
1
1
1
1
1
1
1
1
1.82852
1.8324
1.85
1.8692
1.88292
1.88205
1.87607
1.85467
1.82507
1.80325
1.78871
1.77364
1.71563
1.35959
1.00379
1
1
1
1
1
1
1
1
1
1
1
1
1
1
1
1.82737
1.83107
1.84792
1.86658
1.87995
1.87871
1.87323
1.85341
1.82377
1.79919
1.78559
1.77124
1.73276
1.44541
1.01629
1
1
1
1
1
1
1
1
1
1
1
1
1
1
1
1.82561
1.82928
1.84516
1.86321
1.8765
1.87553
1.87
1.85154
1.82319
1.79763
1.78352
1.76933
1.74559
1.56433
1.074
1
1
1
1
1
1
1
1
1
1
1
1
1
1
1
1.82631
1.8326
1.84919
1.86551
1.87493
1.87136
1.86397
1.84527
1.81794
1.79382
1.78075
1.76805
1.74925
1.57933
1.09958
0.996049
1
1
1
1
1
1
1
1
1
1
1
1
1
1
1.49378
1.69261
1.7771
1.82785
1.86014
1.86622
1.86198
1.85011
1.82738
1.79954
1.7832
1.77204
1.76533
1.6799
1.31777
1.01734
1.00012
1
1
1
1
1
1
1
1
1
1
1
1
1
1.11128
1.48428
1.63459
1.73578
1.80293
1.8414
1.8525
1.84717
1.83312
1.80672
1.78706
1.7732
1.76506
1.756
1.56861
1.1197
1.00249
1.00001
1
1
1
1
1
1
1
1
1
1
1
1
0.784528
1.2848
1.48986
1.60756
1.71125
1.77906
1.81991
1.83394
1.82821
1.80981
1.79111
1.77533
1.7645
1.75766
1.684
1.32863
1.0228
1.0002
1
1
1
1
1
1
1
1
1
1
1
1
0.754557
1.10142
1.35057
1.48789
1.60321
1.69136
1.76102
1.79851
1.81135
1.80406
1.78967
1.77684
1.76422
1.76116
1.72667
1.49155
1.08765
1.00156
1.00001
1
1
1
1
1
1
1
1
1
1
1
0.821491
1.00743
1.1952
1.37358
1.49027
1.60119
1.68057
1.74296
1.77708
1.78656
1.78178
1.77326
1.76446
1.76506
1.7585
1.65123
1.239
1.01136
1.00008
1
1
1
1
1
1
1
1
1
1
1
0.943384
1.00044
1.0885
1.26238
1.39058
1.50818
1.596
1.67882
1.72609
1.75416
1.76462
1.76273
1.76321
1.76544
1.75981
1.72863
1.45118
1.05958
1.00081
1
1
1
1
1
1
1
1
1
1
1
0.944377
0.972406
1.03178
1.17014
1.30824
1.41658
1.52213
1.60223
1.67092
1.71069
1.73455
1.74249
1.75322
1.76353
1.7581
1.74153
1.60723
1.18706
1.0063
1.00004
1
1
1
1
1
1
1
1
1
1
0.944886
0.917063
0.973906
1.08752
1.23799
1.34209
1.45268
1.53017
1.61056
1.66427
1.69429
1.71589
1.73235
1.75467
1.75256
1.75568
1.67672
1.33729
1.02608
1.00023
1
1
1
1
1
1
1
1
1
1
0.977239
0.889969
0.916454
1.01465
1.15168
1.27283
1.37579
1.47466
1.54007
1.61083
1.65501
1.68489
1.70682
1.7328
1.74448
1.76236
1.74404
1.51757
1.09359
1.00169
1.00001
1
1
1
1
1
1
1
1
1
1.0156
0.891069
0.880774
0.985051
1.08806
1.21729