/*--------------------------------*- C++ -*----------------------------------*\
  =========                 |
  \\      /  F ield         | OpenFOAM: The Open Source CFD Toolbox
   \\    /   O peration     | Website:  https://openfoam.org
    \\  /    A nd           | Version:  7
     \\/     M anipulation  |
\*---------------------------------------------------------------------------*/
FoamFile
{
    version     2.0;
    format      ascii;
    class       volScalarField;
    location    "6.3999";
    object      T;
}
// * * * * * * * * * * * * * * * * * * * * * * * * * * * * * * * * * * * * * //

dimensions      [0 0 0 1 0 0 0];

internalField   nonuniform List<scalar> 
324000
(
0.924299
1.06972
1.19368
1.27333
1.29559
1.28038
1.27601
1.27204
1.25965
1.23986
1.24082
1.24476
1.24785
1.24314
1.23393
1.22612
1.21945
1.2156
1.21178
1.20613
1.20026
1.195
1.19056
1.18592
1.18048
1.17456
1.17026
1.16708
1.16361
1.15869
1.15412
1.15058
1.14713
1.14267
1.13803
1.13455
1.13187
1.12919
1.12611
1.12322
1.12077
1.11852
1.11695
1.11604
1.1157
1.11516
1.1139
1.11212
1.10972
1.10773
1.10697
1.1074
1.10775
1.1067
1.10478
1.10303
1.10195
1.10129
1.10121
1.10133
1.10082
1.09997
1.09925
1.0987
1.09821
1.0977
1.09705
1.09611
1.09561
1.09557
1.09598
1.09686
1.09719
1.09732
1.09736
1.09747
1.0988
1.09948
1.1003
1.10068
0.521738
0.529124
0.666724
1.02762
1.24948
1.32803
1.35933
1.34355
1.33526
1.32773
1.32986
1.32864
1.31906
1.30903
1.30246
1.30079
1.2955
1.28812
1.27975
1.27313
1.2682
1.26296
1.25649
1.24847
1.24034
1.23431
1.22924
1.2239
1.21767
1.21079
1.20424
1.19827
1.19263
1.18671
1.18045
1.17447
1.16869
1.16334
1.15847
1.15382
1.14896
1.14378
1.13894
1.13489
1.1312
1.12794
1.12564
1.12381
1.12154
1.11836
1.11527
1.11293
1.11162
1.11108
1.11009
1.10795
1.10572
1.10377
1.10246
1.10187
1.1016
1.10065
1.09963
1.09915
1.09922
1.09916
1.0986
1.09776
1.09667
1.09629
1.09658
1.09788
1.09839
1.09871
1.09817
1.0981
1.09895
1.09984
1.10125
1.10182
0.521282
0.520061
0.518752
0.517038
0.654312
0.949668
1.16223
1.28444
1.36932
1.39147
1.38849
1.37336
1.35072
1.3375
1.34273
1.34762
1.34635
1.33892
1.32934
1.32268
1.32057
1.31865
1.31422
1.30761
1.29993
1.29457
1.28994
1.28402
1.27713
1.27002
1.26364
1.25674
1.2488
1.24086
1.23324
1.22595
1.21874
1.21133
1.20414
1.19728
1.19057
1.18387
1.17705
1.1703
1.1638
1.15764
1.1516
1.14601
1.14138
1.13759
1.13363
1.12877
1.12408
1.12045
1.11805
1.11655
1.11434
1.11112
1.10814
1.10578
1.10388
1.10245
1.1012
1.10026
1.1
1.10043
1.10072
1.10002
1.09898
1.09803
1.09784
1.09904
1.09998
1.10042
1.0999
1.09948
1.09984
1.10023
1.10175
1.10319
0.51977
0.51846
0.517199
0.515934
0.5147
0.513458
0.560672
0.823534
1.05976
1.2246
1.33672
1.3433
1.35446
1.36213
1.36542
1.36561
1.36331
1.35886
1.35654
1.35631
1.35473
1.35088
1.34629
1.34395
1.34119
1.33749
1.33379
1.32995
1.32577
1.32079
1.31455
1.30865
1.30235
1.29562
1.28866
1.28127
1.27345
1.26584
1.25825
1.25051
1.24243
1.23404
1.22557
1.2174
1.20948
1.20166
1.19342
1.18473
1.17631
1.16893
1.16256
1.15641
1.14975
1.14297
1.13687
1.13176
1.12761
1.12413
1.12056
1.11647
1.11276
1.11012
1.10797
1.10607
1.10443
1.10315
1.10278
1.10301
1.10254
1.10142
1.10083
1.10094
1.10159
1.10265
1.10234
1.10212
1.10206
1.1019
1.10274
1.10423
0.51771
0.516489
0.515262
0.514089
0.51329
0.512627
0.511851
0.510949
0.515772
0.704037
0.978386
1.17888
1.32901
1.36913
1.37431
1.37026
1.35981
1.35965
1.36354
1.36711
1.3662
1.36227
1.35793
1.35773
1.35976
1.35908
1.35671
1.35359
1.35166
1.35037
1.34719
1.34251
1.33818
1.33435
1.3304
1.32581
1.32007
1.31366
1.30741
1.30066
1.29315
1.28548
1.27774
1.26969
1.26111
1.25204
1.24264
1.23345
1.22422
1.21479
1.20519
1.19581
1.18687
1.17832
1.16988
1.16127
1.15302
1.14574
1.13985
1.1348
1.13003
1.12564
1.12184
1.11857
1.11536
1.11219
1.1095
1.10748
1.10679
1.10691
1.10674
1.10595
1.10482
1.10475
1.10523
1.10599
1.10603
1.10595
1.10601
1.10617
0.515718
0.514633
0.513569
0.512687
0.512021
0.51148
0.510962
0.510477
0.509868
0.509256
0.50853
0.644916
0.925518
1.14578
1.29437
1.32187
1.34733
1.35751
1.37015
1.37083
1.36742
1.3637
1.36221
1.36304
1.36411
1.36405
1.36276
1.36128
1.3607
1.36023
1.35926
1.35757
1.35533
1.35346
1.35081
1.34748
1.34505
1.34252
1.3391
1.33538
1.33103
1.32584
1.31969
1.31328
1.30658
1.29908
1.29076
1.2817
1.273
1.26435
1.25467
1.24408
1.23331
1.22281
1.21263
1.20251
1.19213
1.18183
1.17238
1.16389
1.15603
1.14887
1.14248
1.13706
1.13272
1.12887
1.12463
1.12037
1.11717
1.1153
1.11549
1.11555
1.1137
1.1119
1.11039
1.11059
1.11173
1.11264
1.11275
1.11189
0.513865
0.51294
0.512125
0.511436
0.51099
0.510678
0.510271
0.509814
0.509381
0.508872
0.508318
0.508012
0.507985
0.612353
0.877664
1.11562
1.28662
1.33604
1.35923
1.36101
1.35761
1.35912
1.36192
1.3646
1.36354
1.36201
1.36142
1.36182
1.36291
1.3625
1.36118
1.36019
1.35988
1.35934
1.35812
1.35666
1.3557
1.35507
1.3539
1.35187
1.34929
1.34675
1.34386
1.34022
1.33601
1.33146
1.32648
1.32083
1.31431
1.30716
1.29959
1.29097
1.28147
1.27148
1.26099
1.25002
1.23871
1.22736
1.21624
1.20534
1.19519
1.18584
1.17703
1.16862
1.16073
1.15367
1.14777
1.14258
1.1378
1.13385
1.13155
1.1304
1.12906
1.12682
1.12365
1.12206
1.12122
1.12146
1.12238
1.12237
0.512367
0.511591
0.510925
0.510427
0.510171
0.510008
0.509756
0.509397
0.508974
0.508484
0.507975
0.507796
0.507829
0.50793
0.50791
0.592182
0.857228
1.09738
1.2645
1.30664
1.33716
1.35085
1.36259
1.36203
1.35824
1.35636
1.35809
1.36146
1.36144
1.36016
1.35925
1.3595
1.36057
1.36012
1.35911
1.35842
1.35848
1.3583
1.35759
1.35649
1.35537
1.3545
1.35378
1.3528
1.35088
1.34818
1.34544
1.34286
1.33995
1.33554
1.32979
1.32391
1.31764
1.31042
1.30238
1.29364
1.28418
1.27403
1.26327
1.25202
1.24083
1.23018
1.2201
1.21025
1.20032
1.19044
1.18148
1.1739
1.16774
1.16293
1.15927
1.15562
1.15197
1.1488
1.14542
1.14312
1.14072
1.13919
1.13835
1.13757
0.511207
0.51052
0.509934
0.509594
0.509506
0.50947
0.509317
0.509046
0.50867
0.508229
0.507783
0.507652
0.507685
0.507808
0.507814
0.507771
0.507637
0.580106
0.83464
1.08864
1.27428
1.32445
1.34816
1.35113
1.34936
1.351
1.354
1.3568
1.3555
1.35417
1.35503
1.35766
1.35815
1.3572
1.3566
1.35736
1.35836
1.35799
1.35731
1.35674
1.35657
1.35633
1.35594
1.35556
1.35498
1.35413
1.35302
1.35159
1.35034
1.34873
1.34616
1.34255
1.33884
1.33471
1.32941
1.32304
1.31612
1.30903
1.30166
1.29369
1.28454
1.27454
1.26432
1.25425
1.24414
1.23381
1.2236
1.21409
1.20621
1.20019
1.19588
1.19145
1.18627
1.18088
1.17573
1.17245
1.16956
1.16741
1.16543
1.16257
0.510268
0.509646
0.509156
0.508992
0.509026
0.509014
0.508907
0.508713
0.508429
0.508062
0.507679
0.50758
0.507629
0.507739
0.507735
0.507692
0.507599
0.507459
0.507376
0.5818
0.855046
1.09704
1.27178
1.30347
1.33066
1.34389
1.35032
1.34976
1.34683
1.34726
1.35059
1.35349
1.35218
1.35095
1.35232
1.3548
1.35525
1.35462
1.35462
1.35511
1.35569
1.35567
1.3555
1.355
1.3545
1.35404
1.35393
1.35378
1.35332
1.35259
1.35203
1.351
1.34939
1.34749
1.34497
1.34137
1.3369
1.33183
1.3263
1.32059
1.31512
1.30916
1.30212
1.29418
1.28545
1.27613
1.26678
1.25742
1.24891
1.24203
1.23681
1.23178
1.22644
1.22043
1.21436
1.20961
1.20551
1.20268
1.2004
1.19644
0.509495
0.508927
0.508597
0.508589
0.508663
0.508656
0.508573
0.508428
0.508211
0.50793
0.507627
0.507551
0.507611
0.507699
0.507685
0.507639
0.507528
0.507376
0.507341
0.507348
0.507377
0.593757
0.873834
1.12405
1.29151
1.32714
1.34169
1.34123
1.33885
1.34222
1.34623
1.34584
1.34408
1.34462
1.34757
1.34942
1.34873
1.34886
1.35006
1.35129
1.3519
1.35225
1.35255
1.35239
1.3523
1.35261
1.35332
1.35375
1.35334
1.35264
1.35209
1.35214
1.35191
1.35121
1.35003
1.34859
1.34672
1.34445
1.34149
1.33764
1.33318
1.32896
1.32506
1.32001
1.31365
1.30659
1.29942
1.29318
1.2872
1.28144
1.27619
1.27064
1.26518
1.25956
1.25433
1.24976
1.24538
1.24173
1.23832
1.23341
0.508831
0.508352
0.508237
0.508284
0.508403
0.508389
0.508314
0.508201
0.508027
0.507815
0.507591
0.507542
0.507611
0.507673
0.507653
0.507605
0.507489
0.507315
0.507295
0.507311
0.507364
0.507454
0.507532
0.630865
0.928222
1.15783
1.28947
1.31455
1.32799
1.34294
1.34507
1.34057
1.33806
1.34098
1.3444
1.3437
1.34221
1.34313
1.34492
1.34562
1.34626
1.34715
1.34797
1.34803
1.34858
1.34962
1.35074
1.35152
1.35141
1.35115
1.35118
1.35127
1.35119
1.35074
1.34984
1.34909
1.34827
1.3475
1.34653
1.34498
1.34272
1.33991
1.33647
1.33329
1.33007
1.32594
1.32099
1.31632
1.3129
1.30999
1.30704
1.30293
1.2983
1.29323
1.28867
1.28458
1.28071
1.27698
1.2739
1.26928
0.508276
0.507975
0.507984
0.50809
0.508209
0.508185
0.508121
0.508042
0.507909
0.507727
0.50755
0.507527
0.507604
0.507649
0.507631
0.507589
0.507478
0.507291
0.507266
0.507282
0.507333
0.507411
0.50752
0.50763
0.507721
0.681043
0.979063
1.21902
1.31347
1.34173
1.34002
1.32996
1.33405
1.34201
1.34172
1.33773
1.33808
1.34041
1.34154
1.34144
1.34179
1.34262
1.34289
1.34302
1.34363
1.34494
1.34629
1.34735
1.34774
1.34802
1.34853
1.34911
1.34943
1.34934
1.34893
1.34814
1.34729
1.34664
1.34605
1.34545
1.34505
1.34405
1.34255
1.34107
1.33936
1.33725
1.33463
1.33166
1.32853
1.32617
1.32386
1.32184
1.32002
1.31736
1.31466
1.31147
1.3083
1.30554
1.30323
1.29878
0.507813
0.507749
0.507814
0.507986
0.508068
0.508024
0.50796
0.5079
0.5078
0.507642
0.507471
0.507476
0.507585
0.507633
0.507616
0.507571
0.507477
0.507282
0.507255
0.507267
0.507316
0.507383
0.507465
0.507579
0.507741
0.507799
0.508704
0.76298
1.06323
1.26673
1.30441
1.32317
1.34298
1.34519
1.33844
1.33453
1.33751
1.34052
1.33956
1.33891
1.33968
1.34032
1.33994
1.33999
1.34058
1.34162
1.34257
1.34296
1.34334
1.34383
1.34447
1.34532
1.34602
1.34638
1.34627
1.34586
1.34548
1.34512
1.34474
1.34434
1.34423
1.34406
1.34379
1.34325
1.34197
1.34048
1.33922
1.33828
1.33705
1.33526
1.33281
1.33036
1.32889
1.32803
1.32835
1.32757
1.326
1.32399
1.32103
1.31672
0.507553
0.507593
0.507728
0.507912
0.50796
0.507905
0.507852
0.507774
0.507659
0.507523
0.507437
0.507467
0.507591
0.507636
0.507618
0.507561
0.507474
0.507299
0.507254
0.507264
0.507311
0.507364
0.507431
0.507539
0.507708
0.507826
0.507821
0.507674
0.556308
0.85757
1.15902
1.30714
1.34768
1.34388
1.33047
1.33532
1.34217
1.34107
1.33766
1.33807
1.33983
1.33962
1.33846
1.33871
1.33969
1.34032
1.34069
1.34054
1.3406
1.34101
1.34163
1.34221
1.34271
1.34302
1.34308
1.34302
1.34291
1.34281
1.34263
1.34253
1.34252
1.34263
1.34283
1.34254
1.34139
1.34014
1.33917
1.3392
1.33933
1.33892
1.33775
1.33623
1.33497
1.33411
1.33376
1.33306
1.3323
1.33047
1.32835
1.32694
0.507425
0.507531
0.507682
0.507848
0.507875
0.507834
0.507803
0.507692
0.507535
0.507437
0.507433
0.507508
0.507654
0.507666
0.507648
0.507573
0.507468
0.507336
0.507283
0.507292
0.507321
0.507354
0.507397
0.507498
0.507683
0.507828
0.507834
0.507751
0.507519
0.507407
0.652669
0.986684
1.24162
1.3007
1.32395
1.34716
1.34703
1.33966
1.33755
1.34011
1.34104
1.33892
1.33842
1.33925
1.34011
1.34017
1.34005
1.33955
1.33961
1.33996
1.34044
1.34094
1.34116
1.34111
1.34103
1.34096
1.34077
1.3405
1.34021
1.34015
1.34019
1.34042
1.34075
1.34062
1.33998
1.33926
1.33875
1.33883
1.33892
1.33947
1.33901
1.33852
1.33798
1.3377
1.33741
1.33666
1.33598
1.33484
1.33393
1.33307
0.507379
0.507486
0.50764
0.507805
0.507821
0.507801
0.507772
0.507607
0.5074
0.507371
0.507395
0.507526
0.507664
0.507672
0.507662
0.507619
0.507498
0.507361
0.507307
0.50732
0.507346
0.507357
0.507378
0.507461
0.507651
0.507828
0.507843
0.507766
0.507538
0.507422
0.507425
0.512231
0.783955
1.12643
1.3012
1.3512
1.34674
1.33476
1.34052
1.34436
1.34175
1.33853
1.33917
1.34124
1.34111
1.34047
1.33994
1.33949
1.33957
1.33997
1.34028
1.34043
1.3404
1.3402
1.33994
1.33977
1.33955
1.33923
1.33874
1.33836
1.33811
1.33831
1.33864
1.33861
1.33832
1.338
1.33798
1.3383
1.33853
1.33874
1.33846
1.33865
1.33861
1.33899
1.33891
1.33832
1.33791
1.3373
1.33679
1.33541
0.507309
0.507376
0.507544
0.507773
0.507798
0.507798
0.507731
0.507402
0.507269
0.507278
0.507343
0.507559
0.507657
0.507644
0.507653
0.507636
0.507545
0.507389
0.507363
0.507381
0.507392
0.507379
0.507376
0.507429
0.507609
0.507817
0.507846
0.507776
0.507553
0.50743
0.507436
0.507468
0.507467
0.608324
0.957339
1.23746
1.30143
1.32999
1.35072
1.34883
1.34048
1.3395
1.34268
1.34312
1.34195
1.34108
1.34052
1.3401
1.34023
1.34061
1.34054
1.34042
1.34023
1.33995
1.33963
1.33933
1.33889
1.33821
1.33759
1.33739
1.3373
1.33706
1.33705
1.33692
1.33683
1.33693
1.33722
1.33767
1.33787
1.33825
1.33828
1.33875
1.33882
1.33929
1.33919
1.33876
1.33856
1.33821
1.33757
1.33574
0.50718
0.507249
0.507438
0.507738
0.507847
0.507843
0.507675
0.507233
0.50718
0.507194
0.507298
0.507565
0.507634
0.507627
0.507645
0.507641
0.507583
0.507411
0.507384
0.507407
0.507424
0.507405
0.507379
0.507407
0.507555
0.507785
0.507843
0.507781
0.507564
0.507434
0.507439
0.507472
0.507472
0.507452
0.507454
0.768576
1.1255
1.306
1.34977
1.34672
1.33677
1.34291
1.34618
1.34398
1.34238
1.34213
1.34163
1.34124
1.34168
1.34167
1.34128
1.34074
1.34049
1.34022
1.33995
1.33945
1.33868
1.33777
1.33706
1.33694
1.337
1.3369
1.33668
1.33634
1.33607
1.33621
1.33674
1.3374
1.33767
1.33789
1.33787
1.33816
1.33814
1.33861
1.33881
1.33855
1.3385
1.33815
1.33699
1.33571
0.507057
0.507089
0.507319
0.507772
0.507901
0.507881
0.507659
0.507167
0.50712
0.507137
0.507261
0.507514
0.507609
0.507628
0.50767
0.507671
0.507619
0.507441
0.507389
0.507408
0.507432
0.507416
0.507381
0.507394
0.507513
0.507749
0.507837
0.507787
0.507578
0.507436
0.50744
0.507475
0.507476
0.507454
0.507453
0.507463
0.609825
0.967828
1.24485
1.30796
1.33278
1.35195
1.34864
1.34252
1.34286
1.34311
1.3424
1.34251
1.34323
1.34299
1.3421
1.34149
1.34125
1.34104
1.34075
1.3401
1.33906
1.33779
1.33698
1.33709
1.33725
1.33709
1.33658
1.33604
1.3355
1.33559
1.33628
1.33698
1.33767
1.33808
1.33799
1.33795
1.33775
1.33796
1.33792
1.33805
1.33788
1.33714
1.33633
1.33576
0.506905
0.506921
0.507219
0.507845
0.507931
0.507897
0.50764
0.507124
0.507068
0.507081
0.507177
0.507382
0.507577
0.507668
0.507717
0.507715
0.507654
0.507473
0.507402
0.507415
0.507432
0.507418
0.50738
0.507385
0.507484
0.507722
0.507837
0.507799
0.507605
0.507448
0.507446
0.507478
0.507483
0.507456
0.507444
0.507454
0.507506
0.507527
0.798763
1.16167
1.31746
1.35327
1.34691
1.34124
1.34463
1.34376
1.34236
1.34385
1.3444
1.34353
1.34292
1.34255
1.34232
1.34223
1.34203
1.34129
1.33976
1.33833
1.33757
1.33766
1.33784
1.33736
1.3366
1.33589
1.33526
1.33542
1.33618
1.33677
1.33778
1.3383
1.33836
1.33807
1.3376
1.33764
1.33757
1.3376
1.33741
1.33674
1.33623
1.33579
0.506766
0.506799
0.507134
0.507866
0.507959
0.507935
0.507673
0.507131
0.507045
0.507047
0.507102
0.507316
0.507619
0.507711
0.507726
0.507724
0.507664
0.507497
0.507429
0.50744
0.507439
0.507416
0.50737
0.507371
0.507456
0.507697
0.507838
0.507813
0.50764
0.50747
0.507461
0.507485
0.507489
0.50746
0.507429
0.507433
0.507475
0.507532
0.507509
0.651847
1.02336
1.28022
1.3131
1.34353
1.34757
1.34186
1.34289
1.34571
1.34505
1.34359
1.34366
1.34355
1.34339
1.34346
1.34324
1.34228
1.34079
1.33949
1.33875
1.33888
1.33855
1.33769
1.33681
1.33593
1.33553
1.33582
1.33662
1.33715
1.33822
1.33863
1.33867
1.33815
1.33772
1.33779
1.33763
1.33762
1.33735
1.3367
1.33646
1.33576
0.50671
0.50675
0.507031
0.50783
0.507996
0.507984
0.507769
0.507199
0.507051
0.507048
0.507082
0.507286
0.507671
0.50779
0.507762
0.507739
0.50765
0.507504
0.507445
0.507453
0.507454
0.507419
0.507356
0.507346
0.507417
0.507657
0.507834
0.507824
0.507676
0.507492
0.507472
0.50749
0.507495
0.507465
0.507418
0.507418
0.507442
0.507512
0.507524
0.507456
0.532689
0.886717
1.20823
1.34481
1.344
1.33788
1.34532
1.34737
1.34424
1.3438
1.34448
1.34434
1.34431
1.34458
1.34422
1.34308
1.34182
1.34052
1.34015
1.34009
1.33942
1.33828
1.33729
1.33636
1.33651
1.33688
1.33762
1.33802
1.33903
1.33909
1.33877
1.33795
1.33759
1.33771
1.33774
1.33781
1.33759
1.33706
1.33658
1.33549
0.506709
0.506744
0.506945
0.507727
0.508015
0.508008
0.507868
0.507333
0.507045
0.507026
0.507052
0.507247
0.50767
0.507902
0.507871
0.50778
0.507643
0.507495
0.507449
0.507455
0.507477
0.507434
0.507349
0.507315
0.507367
0.507594
0.507821
0.507827
0.507711
0.507518
0.507483
0.507497
0.5075
0.50747
0.507411
0.507408
0.507427
0.507495
0.507525
0.507494
0.50742
0.507389
0.749691
1.14635
1.28247
1.32796
1.3533
1.3489
1.34284
1.34431
1.3453
1.34483
1.34505
1.34552
1.34489
1.34366
1.3425
1.34123
1.34127
1.34086
1.33982
1.33868
1.33784
1.3375
1.3379
1.33825
1.33869
1.33914
1.34008
1.33985
1.33915
1.33794
1.33761
1.33767
1.33776
1.33798
1.33786
1.33723
1.33651
1.33532
0.506703
0.506732
0.506889
0.507542
0.508007
0.508012
0.507921
0.507486
0.507083
0.507033
0.507059
0.507248
0.50768
0.507966
0.50794
0.507819
0.507653
0.507492
0.507469
0.50749
0.507524
0.507489
0.507366
0.507283
0.507316
0.507518
0.507793
0.507828
0.507742
0.507553
0.507501
0.50751
0.507512
0.507483
0.507407
0.507403
0.50742
0.507484
0.507525
0.507511
0.507438
0.507386
0.507407
0.613868
1.03167
1.28286
1.34788
1.33781
1.34246
1.3474
1.34609
1.3448
1.34617
1.34608
1.34503
1.34388
1.34287
1.34244
1.34203
1.3409
1.33971
1.33879
1.33836
1.33876
1.33901
1.33921
1.33932
1.33979
1.34073
1.34049
1.33995
1.33854
1.3383
1.33813
1.33802
1.33819
1.33807
1.33728
1.33658
1.33542
0.506706
0.506729
0.506873
0.507397
0.507994
0.508037
0.507967
0.507593
0.507124
0.507032
0.507063
0.507259
0.507697
0.508002
0.507975
0.507829
0.507642
0.507497
0.507499
0.507543
0.507594
0.507565
0.507416
0.507261
0.507272
0.507443
0.50775
0.507827
0.507764
0.50759
0.507524
0.507532
0.507532
0.507509
0.507425
0.507411
0.507422
0.507482
0.507529
0.507521
0.507457
0.50739
0.507408
0.507469
0.535834
0.905829
1.24485
1.30639
1.34734
1.34953
1.34392
1.34502
1.3472
1.34641
1.34484
1.34408
1.34378
1.34312
1.34192
1.34061
1.33936
1.33874
1.33901
1.33984
1.33982
1.33988
1.3398
1.34037
1.3409
1.34065
1.34052
1.33954
1.33944
1.33905
1.33864
1.33862
1.33841
1.33758
1.33697
1.3357
0.506727
0.506744
0.506874
0.507326
0.50793
0.508046
0.50799
0.507668
0.507155
0.507004
0.507043
0.50726
0.507704
0.508024
0.508
0.507836
0.507618
0.507491
0.507508
0.507595
0.507676
0.507649
0.507483
0.507259
0.507234
0.507375
0.507699
0.507823
0.507778
0.507625
0.507549
0.507552
0.50755
0.507528
0.507436
0.507415
0.507427
0.507484
0.507541
0.507537
0.50749
0.507409
0.507422
0.507505
0.507599
0.507614
0.788964
1.17245
1.34166
1.34179
1.33944
1.34742
1.34742
1.34515
1.34422
1.34434
1.34414
1.34316
1.3415
1.34004
1.33898
1.33909
1.33966
1.34034
1.34031
1.34031
1.34028
1.34095
1.34081
1.34054
1.34059
1.34026
1.34038
1.34
1.33941
1.33916
1.33876
1.33796
1.33743
1.33601
0.506814
0.506792
0.506889
0.507282
0.507871
0.508071
0.508028
0.50775
0.507218
0.506988
0.507026
0.507256
0.507706
0.508033
0.508015
0.507842
0.507588
0.507474
0.507502
0.507629
0.50776
0.507744
0.507568
0.507277
0.507205
0.507318
0.507642
0.507812
0.507783
0.507653
0.507567
0.507566
0.507561
0.507537
0.507441
0.507411
0.507422
0.507485
0.507557
0.507553
0.507509
0.507441
0.507462
0.507542
0.507646
0.507647
0.507608
0.691135
1.11108
1.27033
1.32814
1.35141
1.34701
1.34292
1.3439
1.34442
1.34406
1.34278
1.34098
1.33947
1.33908
1.33978
1.3406
1.34081
1.34074
1.34072
1.34079
1.34128
1.34075
1.34026
1.3404
1.34045
1.34082
1.34058
1.33993
1.3395
1.33893
1.33816
1.33763
1.33623
0.506939
0.506852
0.506921
0.507251
0.507819
0.508106
0.508083
0.507851
0.507353
0.507015
0.507031
0.507247
0.507691
0.508022
0.50801
0.507823
0.50754
0.507452
0.507486
0.507644
0.50784
0.507846
0.507676
0.507323
0.507195
0.507277
0.507581
0.507795
0.50778
0.50767
0.507576
0.507572
0.507566
0.507542
0.507458
0.507427
0.507443
0.507517
0.507581
0.507568
0.507514
0.507481
0.507539
0.50765
0.507715
0.507671
0.507611
0.507568
0.584245
1.01952
1.2802
1.34414
1.33559
1.34164
1.3437
1.3437
1.34352
1.34206
1.34019
1.33917
1.33966
1.34083
1.34128
1.34106
1.34104
1.34111
1.34125
1.34122
1.34045
1.33985
1.34002
1.34011
1.34057
1.34048
1.33997
1.33948
1.33886
1.33808
1.3376
1.33631
0.50703
0.506891
0.506935
0.5072
0.507722
0.508113
0.508133
0.507947
0.507496
0.507082
0.507058
0.507234
0.507635
0.507981
0.507994
0.507817
0.507524
0.507441
0.507475
0.507646
0.507896
0.507932
0.507789
0.507405
0.507201
0.507257
0.507521
0.507768
0.50777
0.507678
0.507579
0.507572
0.507566
0.507539
0.507466
0.507456
0.507489
0.507581
0.507625
0.507595
0.507527
0.50754
0.507639
0.507801
0.507824
0.507714
0.507607
0.507574
0.507598
0.53186
0.915125
1.25432
1.3115
1.34769
1.34511
1.34377
1.34307
1.34109
1.33944
1.33949
1.3407
1.34171
1.34152
1.34103
1.34107
1.34118
1.34141
1.34095
1.33988
1.33936
1.33931
1.33954
1.34022
1.3403
1.33987
1.33931
1.33861
1.33783
1.33746
1.33631
0.507144
0.506935
0.506935
0.507142
0.507617
0.508088
0.508191
0.508035
0.507614
0.507157
0.507062
0.507195
0.507556
0.507928
0.507988
0.50786
0.507545
0.50743
0.50746
0.507635
0.507919
0.507989
0.507874
0.507503
0.507229
0.507257
0.507472
0.507726
0.507748
0.507676
0.507569
0.50755
0.507542
0.507516
0.50748
0.507491
0.507546
0.507652
0.507675
0.507633
0.507555
0.507597
0.507739
0.507881
0.507887
0.507772
0.507653
0.507719
0.507957
0.50791
0.507848
0.832875
1.21357
1.34468
1.3383
1.34403
1.34315
1.34017
1.33902
1.34004
1.34128
1.34147
1.34104
1.34043
1.34055
1.34068
1.34086
1.34033
1.33917
1.33863
1.33838
1.33867
1.3396
1.33972
1.33942
1.33895
1.33822
1.33747
1.33718
1.33615
0.507178
0.506937
0.506928
0.507117
0.507558
0.508043
0.508222
0.5081
0.507701
0.507211
0.50704
0.507135
0.507471
0.507873
0.507978
0.507892
0.507587
0.507423
0.507441
0.507602
0.507914
0.508018
0.507926
0.507578
0.507264
0.507267
0.507442
0.507692
0.507728
0.507663
0.507532
0.507501
0.507505
0.507504
0.507509
0.50754
0.507611
0.507709
0.507713
0.507661
0.507598
0.507701
0.507855
0.507921
0.507897
0.507794
0.507766
0.507981
0.508307
0.508508
0.508677
0.508487
0.758722
1.17674
1.28769
1.34281
1.34162
1.33745
1.33873
1.34041
1.34041
1.34017
1.33938
1.33879
1.33909
1.33965
1.33974
1.33938
1.33841
1.3379
1.33729
1.33757
1.33851
1.33873
1.33863
1.33834
1.33766
1.33692
1.33667
1.33567
0.507195
0.506959
0.506941
0.507119
0.507549
0.508018
0.508228
0.50814
0.507773
0.507257
0.507028
0.507087
0.507392
0.507824
0.507959
0.507908
0.50764
0.507427
0.507432
0.507567
0.507891
0.508025
0.507948
0.507624
0.507286
0.507276
0.507425
0.507672
0.507715
0.507648
0.507501
0.507457
0.507473
0.507507
0.507544
0.507594
0.507679
0.507751
0.507742
0.507672
0.507654
0.507833
0.507986
0.507956
0.50788
0.507771
0.507848
0.508206
0.508519
0.508816
0.509201
0.509358
0.509321
0.672228
1.11549
1.30756
1.33197
1.33131
1.33773
1.3374
1.33705
1.33708
1.33613
1.33588
1.33675
1.33799
1.33817
1.33817
1.33791
1.33769
1.33676
1.3365
1.33702
1.33738
1.33752
1.33739
1.33679
1.33605
1.33572
1.33466
0.507141
0.507005
0.507021
0.507186
0.507576
0.508013
0.508224
0.508156
0.507841
0.507316
0.507029
0.507062
0.507322
0.50777
0.507938
0.50791
0.507693
0.507443
0.507432
0.50755
0.507863
0.508012
0.507946
0.507648
0.507306
0.507285
0.50742
0.507662
0.507705
0.507635
0.507481
0.507429
0.507455
0.507527
0.507587
0.507647
0.507743
0.507789
0.507775
0.507696
0.507701
0.507926
0.508091
0.50801
0.50788
0.507829
0.508015
0.508399
0.508666
0.508958
0.509453
0.509911
0.509975
0.51011
0.617431
1.02525
1.25761
1.31312
1.33708
1.3332
1.33226
1.33247
1.33118
1.33158
1.33386
1.33557
1.336
1.33651
1.33716
1.33733
1.33664
1.33583
1.33536
1.33537
1.33567
1.33564
1.33506
1.33429
1.33388
1.33273
0.506999
0.50701
0.507069
0.507272
0.507645
0.508006
0.508183
0.508131
0.50787
0.507409
0.507102
0.5071
0.507274
0.507698
0.507907
0.507902
0.507734
0.507472
0.507442
0.507548
0.507853
0.507986
0.507928
0.507658
0.507335
0.507305
0.507424
0.507659
0.507698
0.507622
0.507472
0.507421
0.507452
0.507563
0.507635
0.50768
0.50777
0.507818
0.507795
0.507725
0.50775
0.507984
0.508177
0.508107
0.50807
0.508111
0.508389
0.508667
0.508809
0.509012
0.509366
0.510242
0.51037
0.510854
0.51126
0.543341
0.964213
1.25261
1.32425
1.31906
1.32737
1.32667
1.32511
1.32709
1.33088
1.33223
1.33291
1.33381
1.33486
1.33491
1.33404
1.33277
1.33215
1.33229
1.33258
1.33251
1.33186
1.3311
1.33059
1.32934
0.50681
0.506952
0.50708
0.507332
0.507686
0.507952
0.508054
0.508018
0.507833
0.507476
0.507196
0.507167
0.507253
0.507609
0.507858
0.507871
0.507754
0.50751
0.507467
0.507559
0.50784
0.507967
0.507913
0.507657
0.507378
0.507367
0.507484
0.507678
0.507694
0.507616
0.50747
0.507424
0.507481
0.507631
0.507692
0.507699
0.507739
0.507816
0.50781
0.50778
0.507807
0.508024
0.508225
0.508212
0.508262
0.508476
0.508737
0.508861
0.5091
0.50918
0.509302
0.509907
0.510897
0.511988
0.51253
0.513079
0.519403
0.887886
1.22003
1.28874
1.32775
1.32068
1.31765
1.32196
1.32559
1.32641
1.32715
1.32805
1.329
1.32878
1.32753
1.32617
1.32589
1.3264
1.32688
1.32682
1.32626
1.32565
1.3251
1.3238
0.506551
0.50682
0.507086
0.507356
0.507687
0.507912
0.507967
0.507923
0.507779
0.507503
0.50724
0.507183
0.507229
0.507523
0.507819
0.507857
0.507773
0.507557
0.507513
0.507602
0.507844
0.507926
0.507869
0.507642
0.507443
0.507452
0.507574
0.507717
0.50771
0.507616
0.507479
0.507447
0.507515
0.507689
0.507753
0.507733
0.507731
0.50783
0.507912
0.507888
0.50791
0.508042
0.508289
0.508351
0.508474
0.508855
0.508982
0.508854
0.509267
0.509586
0.50948
0.50989
0.511112
0.513248
0.515659
0.515224
0.516202
0.518348
0.819611
1.1856
1.30178
1.30599
1.30666
1.31477
1.31643
1.31647
1.31678
1.31711
1.31804
1.31774
1.31663
1.31638
1.31686
1.31763
1.31807
1.31805
1.3177
1.3173
1.31679
1.31544
0.506419
0.506558
0.506946
0.507353
0.507701
0.507912
0.507941
0.507876
0.507739
0.507507
0.50726
0.507186
0.50721
0.507471
0.5078
0.507857
0.507794
0.507611
0.507574
0.507659
0.50785
0.507897
0.507846
0.507666
0.507519
0.507531
0.507619
0.50769
0.507664
0.507583
0.507501
0.507491
0.507538
0.507696
0.507784
0.507775
0.507758
0.50784
0.508046
0.508046
0.508063
0.508095
0.50844
0.508878
0.509036
0.509379
0.509345
0.50906
0.509274
0.510277
0.510564
0.510916
0.511853
0.514036
0.518236
0.520171
0.519647
0.521956
0.523461
0.760824
1.12739
1.26086
1.28925
1.30195
1.2996
1.29993
1.30031
1.30095
1.30272
1.30262
1.30231
1.30333
1.30471
1.3057
1.30596
1.30603
1.30592
1.30571
1.3053
1.30398
0.506379
0.506438
0.506812
0.50732
0.507704
0.507932
0.507938
0.50785
0.507672
0.507475
0.507249
0.507166
0.507191
0.507447
0.507802
0.507879
0.507824
0.507656
0.507624
0.507703
0.507856
0.507891
0.507861
0.507743
0.507597
0.507577
0.507597
0.507633
0.507627
0.507579
0.507595
0.507602
0.5076
0.507686
0.507816
0.507868
0.507846
0.507863
0.508008
0.508184
0.508438
0.508527
0.508731
0.509483
0.50981
0.509892
0.510318
0.510263
0.510157
0.511376
0.51321
0.515074
0.516249
0.516525
0.519102
0.522616
0.524645
0.526353
0.527945
0.528791
0.684075
1.08567
1.24034
1.27903
1.27729
1.28043
1.28057
1.28215
1.28522
1.2855
1.28659
1.28882
1.29041
1.29119
1.29119
1.29138
1.29144
1.29118
1.29075
1.28947
0.506408
0.506415
0.506728
0.507254
0.507685
0.50797
0.507974
0.507848
0.5076
0.507348
0.507161
0.507157
0.50726
0.507583
0.507898
0.507942
0.507868
0.507691
0.507663
0.507735
0.507864
0.507898
0.507885
0.507803
0.507648
0.507579
0.507587
0.507606
0.507619
0.507664
0.507776
0.50783
0.507782
0.507763
0.507889
0.508107
0.508205
0.508145
0.508078
0.508377
0.509061
0.509626
0.509637
0.510086
0.51092
0.511183
0.51137
0.512069
0.513359
0.514691
0.516258
0.518047
0.520588
0.521326
0.521064
0.523734
0.527058
0.529244
0.531438
0.533207
0.534436
0.64359
1.00878
1.21092
1.24294
1.26568
1.26293
1.26605
1.26853
1.26942
1.27223
1.27489
1.27571
1.27552
1.27523
1.27539
1.27527
1.27477
1.27426
1.27309
0.506552
0.506477
0.506691
0.507193
0.507676
0.508014
0.508021
0.507866
0.507584
0.507311
0.507134
0.507168
0.507355
0.507729
0.508022
0.508037
0.507926
0.50773
0.507706
0.507771
0.507877
0.507906
0.507897
0.507814
0.507642
0.507577
0.507592
0.507601
0.507643
0.507763
0.508004
0.508126
0.508107
0.508016
0.508069
0.508374
0.508773
0.509108
0.509175
0.509181
0.509583
0.510618
0.511218
0.511256
0.512012
0.513555
0.513331
0.513941
0.515853
0.517832
0.519398
0.520766
0.523736
0.526248
0.526136
0.527157
0.529754
0.530979
0.533834
0.536354
0.538954
0.54015
0.599937
0.943361
1.16867
1.23821
1.24335
1.25394
1.25321
1.25485
1.2592
1.26018
1.25999
1.25953
1.25928
1.259
1.2583
1.25748
1.25686
1.25605
0.50664
0.506504
0.506665
0.507113
0.507653
0.508075
0.508152
0.507992
0.507653
0.507327
0.507121
0.507169
0.5074
0.507812
0.508097
0.508097
0.507963
0.507774
0.507763
0.507824
0.507889
0.507905
0.507883
0.507771
0.507619
0.507586
0.507608
0.507638
0.507726
0.507918
0.508245
0.508439
0.508511
0.508571
0.508575
0.508631
0.508946
0.50958
0.5104
0.510379
0.510371
0.511157
0.512827
0.512896
0.513014
0.514569
0.515807
0.51718
0.518131
0.519638
0.521772
0.523641
0.526275
0.529195
0.531027
0.532061
0.534093
0.535329
0.536525
0.538681
0.541008
0.543858
0.544623
0.562435
0.877455
1.15924
1.21239
1.24599
1.24197
1.24478
1.24772
1.24575
1.24453
1.24445
1.24388
1.24316
1.24201
1.24112
1.2406
1.24045
0.506746
0.506535
0.506648
0.507045
0.507664
0.508246
0.508425
0.508233
0.507756
0.50728
0.507039
0.507105
0.507381
0.507841
0.508132
0.508127
0.507991
0.507825
0.507826
0.507893
0.507918
0.50791
0.507865
0.50774
0.507624
0.507699
0.507928
0.5082
0.50839
0.508474
0.508601
0.508789
0.508994
0.509162
0.509221
0.509141
0.509155
0.509725
0.51101
0.511806
0.511626
0.511722
0.513252
0.514712
0.514581
0.514914
0.517179
0.520191
0.521674
0.522684
0.524646
0.526048
0.527421
0.530278
0.533212
0.534832
0.536836
0.539747
0.541137
0.54243
0.544075
0.54688
0.548798
0.549218
0.550577
0.830462
1.12566
1.22562
1.22569
1.23592
1.23488
1.23126
1.23116
1.23073
1.22899
1.22791
1.2267
1.22625
1.22626
1.2268
0.506793
0.506526
0.506623
0.507038
0.507774
0.508439
0.508597
0.508333
0.507701
0.507079
0.506846
0.506955
0.507329
0.507844
0.508148
0.508148
0.508042
0.507888
0.507875
0.507951
0.508012
0.508
0.507899
0.507907
0.508049
0.508405
0.508859
0.50918
0.509134
0.509074
0.509142
0.509346
0.509573
0.509867
0.510219
0.510444
0.510545
0.51046
0.511209
0.512905
0.513977
0.51359
0.513535
0.515925
0.518529
0.518627
0.519351
0.521804
0.525195
0.527523
0.530126
0.531773
0.531056
0.531863
0.534869
0.537436
0.53931
0.541856