/*--------------------------------*- C++ -*----------------------------------*\
  =========                 |
  \\      /  F ield         | OpenFOAM: The Open Source CFD Toolbox
   \\    /   O peration     | Website:  https://openfoam.org
    \\  /    A nd           | Version:  7
     \\/     M anipulation  |
\*---------------------------------------------------------------------------*/
FoamFile
{
    version     2.0;
    format      ascii;
    class       volVectorField;
    location    "9.9";
    object      U;
}
// * * * * * * * * * * * * * * * * * * * * * * * * * * * * * * * * * * * * * //

dimensions      [0 1 -1 0 0 0 0];

internalField   nonuniform List<vector> 
11200
(
(2.50903 -0.583139 0)
(2.47855 -0.138318 0)
(2.50174 0.0324251 0)
(2.47612 0.281127 0)
(2.49647 0.326882 0)
(2.51007 0.409089 0)
(2.5337 0.449409 0)
(2.55225 0.413453 0)
(2.59095 0.38187 0)
(2.62051 0.341968 0)
(2.63734 0.279744 0)
(2.66076 0.187484 0)
(2.69293 0.166678 0)
(2.70488 0.132732 0)
(2.73154 0.16497 0)
(2.74169 0.199038 0)
(2.75227 0.218024 0)
(2.76142 0.225356 0)
(2.76125 0.209673 0)
(2.75688 0.173939 0)
(2.77436 0.165654 0)
(2.79198 0.173867 0)
(2.80903 0.178774 0)
(2.81657 0.177176 0)
(2.81803 0.171659 0)
(2.8235 0.165312 0)
(2.83114 0.161916 0)
(2.83851 0.1468 0)
(2.84414 0.134055 0)
(2.84649 0.118875 0)
(2.65579 -1.47518 0)
(2.66764 -1.44677 0)
(2.66174 -1.29408 0)
(2.59763 -0.993233 0)
(2.54744 -0.745578 0)
(2.47108 -0.400961 0)
(2.44029 -0.155315 0)
(2.45679 -0.0450284 0)
(2.43612 0.117945 0)
(2.45189 0.173397 0)
(2.47684 0.112915 0)
(2.51153 0.156937 0)
(2.53972 0.140882 0)
(2.55232 0.129182 0)
(2.57012 0.131516 0)
(2.57594 0.129823 0)
(2.57989 0.136512 0)
(2.58785 0.159598 0)
(2.62055 0.170722 0)
(2.6394 0.169853 0)
(2.66404 0.167418 0)
(2.68389 0.1761 0)
(2.70351 0.191087 0)
(2.71519 0.175099 0)
(2.72544 0.153829 0)
(2.73876 0.138124 0)
(2.75348 0.13273 0)
(2.7665 0.146528 0)
(2.77513 0.141993 0)
(2.78829 0.114236 0)
(2.83058 -1.54294 0)
(2.88389 -1.54543 0)
(2.9049 -1.60186 0)
(2.93953 -1.59035 0)
(2.96068 -1.60995 0)
(2.9601 -1.57286 0)
(2.90039 -1.40984 0)
(2.79547 -1.15317 0)
(2.64611 -0.736758 0)
(2.55923 -0.38391 0)
(2.52047 -0.15105 0)
(2.41147 0.129126 0)
(2.39073 0.174694 0)
(2.42519 0.273843 0)
(2.43336 0.24504 0)
(2.44977 0.172043 0)
(2.46836 0.119075 0)
(2.48874 0.120204 0)
(2.50627 0.169101 0)
(2.52922 0.198279 0)
(2.54613 0.186524 0)
(2.56078 0.155923 0)
(2.57541 0.147036 0)
(2.58709 0.152315 0)
(2.60301 0.13681 0)
(2.62029 0.132278 0)
(2.63772 0.143263 0)
(2.65538 0.142091 0)
(2.66926 0.134623 0)
(2.69535 0.122292 0)
(2.98356 -1.60782 0)
(2.99957 -1.62255 0)
(3.02376 -1.61499 0)
(3.04069 -1.62237 0)
(3.05286 -1.63086 0)
(3.07275 -1.64394 0)
(3.06817 -1.66424 0)
(3.0723 -1.67754 0)
(3.07682 -1.68825 0)
(3.05462 -1.60522 0)
(2.96464 -1.40342 0)
(2.77597 -0.928961 0)
(2.69634 -0.571044 0)
(2.4984 -0.0639989 0)
(2.49629 0.0393059 0)
(2.47339 0.0959429 0)
(2.48575 0.1053 0)
(2.48894 0.132213 0)
(2.48339 0.152314 0)
(2.4838 0.147495 0)
(2.48065 0.139537 0)
(2.47535 0.151148 0)
(2.47806 0.161195 0)
(2.48789 0.153972 0)
(2.50153 0.146497 0)
(2.5153 0.12362 0)
(2.53139 0.114281 0)
(2.54644 0.116814 0)
(2.56024 0.113889 0)
(2.5889 0.100021 0)
(3.05986 -1.6402 0)
(3.06089 -1.64042 0)
(3.06219 -1.64403 0)
(3.06402 -1.64551 0)
(3.06604 -1.65004 0)
(3.06484 -1.65887 0)
(3.0682 -1.66305 0)
(3.07143 -1.6699 0)
(3.07604 -1.66909 0)
(3.08137 -1.6595 0)
(3.08163 -1.65533 0)
(3.07134 -1.65413 0)
(3.05105 -1.63199 0)
(2.8792 -1.26973 0)
(2.74246 -0.734792 0)
(2.55771 -0.134533 0)
(2.52071 0.0482821 0)
(2.47818 0.210627 0)
(2.45888 0.191549 0)
(2.47549 0.143748 0)
(2.47323 0.132511 0)
(2.45701 0.141574 0)
(2.44739 0.142389 0)
(2.45422 0.137883 0)
(2.46516 0.118891 0)
(2.46961 0.118862 0)
(2.47725 0.127723 0)
(2.48539 0.128262 0)
(2.49253 0.120002 0)
(2.51181 0.105589 0)
(3.07583 -1.63967 0)
(3.07031 -1.64176 0)
(3.06706 -1.6482 0)
(3.06582 -1.6497 0)
(3.06444 -1.65246 0)
(3.06324 -1.65747 0)
(3.0643 -1.66249 0)
(3.06481 -1.6661 0)
(3.06854 -1.66505 0)
(3.07194 -1.66197 0)
(3.07384 -1.6554 0)
(3.06954 -1.65081 0)
(3.05096 -1.65379 0)
(3.0332 -1.65152 0)
(3.02762 -1.64964 0)
(2.9508 -1.44751 0)
(2.81397 -0.964768 0)
(2.65367 -0.36793 0)
(2.57341 -0.05548 0)
(2.54313 0.0749011 0)
(2.48855 0.11533 0)
(2.47207 0.143309 0)
(2.45012 0.122156 0)
(2.46198 0.115677 0)
(2.46982 0.102983 0)
(2.47091 0.102666 0)
(2.47098 0.108915 0)
(2.47263 0.109724 0)
(2.47495 0.10512 0)
(2.48664 0.09461 0)
(3.06658 -1.65443 0)
(3.0607 -1.65879 0)
(3.05618 -1.66371 0)
(3.05594 -1.66408 0)
(3.05616 -1.66568 0)
(3.05556 -1.6667 0)
(3.05476 -1.66633 0)
(3.04973 -1.6663 0)
(3.04979 -1.66809 0)
(3.05271 -1.66804 0)
(3.05709 -1.65979 0)
(3.05736 -1.65129 0)
(3.04373 -1.65602 0)
(3.02997 -1.65035 0)
(3.02696 -1.64458 0)
(3.02804 -1.642 0)
(3.03355 -1.63955 0)
(3.00014 -1.49389 0)
(2.84695 -0.967856 0)
(2.68633 -0.363815 0)
(2.61746 -0.0678871 0)
(2.53454 0.124188 0)
(2.48202 0.114333 0)
(2.50841 0.136801 0)
(2.49863 0.117154 0)
(2.4926 0.103251 0)
(2.48764 0.0914354 0)
(2.4862 0.0880678 0)
(2.48574 0.0837222 0)
(2.49158 0.0790342 0)
(3.04381 -1.66566 0)
(3.04244 -1.67033 0)
(3.04061 -1.67403 0)
(3.03916 -1.67515 0)
(3.0434 -1.67082 0)
(3.04485 -1.66902 0)
(3.04448 -1.66506 0)
(3.04004 -1.65626 0)
(3.02285 -1.65879 0)
(3.02265 -1.65992 0)
(3.03936 -1.65687 0)
(3.03696 -1.64019 0)
(3.02828 -1.63306 0)
(3.01908 -1.61966 0)
(3.0222 -1.59314 0)
(3.02403 -1.61027 0)
(3.05103 -1.58198 0)
(3.05504 -1.56421 0)
(3.05459 -1.56621 0)
(3.00752 -1.43896 0)
(2.88581 -0.968429 0)
(2.77486 -0.454352 0)
(2.71178 -0.119758 0)
(2.58087 0.0854495 0)
(2.54488 0.115435 0)
(2.56116 0.123664 0)
(2.54717 0.0918424 0)
(2.5411 0.101032 0)
(2.53309 0.104254 0)
(2.52487 0.101094 0)
(3.02719 -1.67493 0)
(3.02793 -1.67426 0)
(3.02773 -1.6743 0)
(3.02634 -1.67352 0)
(3.0319 -1.66455 0)
(3.03816 -1.6534 0)
(3.0415 -1.64738 0)
(3.04205 -1.63473 0)
(3.02336 -1.6362 0)
(3.00869 -1.64688 0)
(3.01094 -1.63742 0)
(3.02458 -1.62023 0)
(3.02287 -1.62863 0)
(3.0194 -1.59944 0)
(3.02428 -1.56188 0)
(3.02269 -1.56519 0)
(3.03525 -1.57183 0)
(3.04759 -1.52845 0)
(3.06496 -1.48391 0)
(3.08232 -1.49538 0)
(3.08127 -1.48644 0)
(3.0516 -1.39398 0)
(2.96331 -0.952148 0)
(2.82191 -0.47659 0)
(2.7593 -0.108605 0)
(2.64996 0.0884717 0)
(2.61188 0.11119 0)
(2.62664 0.126611 0)
(2.60787 0.0775498 0)
(2.59825 0.0641304 0)
(3.03193 -1.64079 0)
(3.03394 -1.634 0)
(3.04177 -1.62454 0)
(3.04429 -1.61017 0)
(3.04127 -1.59522 0)
(3.04551 -1.58144 0)
(3.0364 -1.57769 0)
(3.02243 -1.59745 0)
(3.02263 -1.59389 0)
(3.02976 -1.57853 0)
(3.04417 -1.56601 0)
(3.05616 -1.55675 0)
(3.03917 -1.5799 0)
(3.02759 -1.57583 0)
(3.02165 -1.54926 0)
(3.0282 -1.53503 0)
(3.04375 -1.53744 0)
(3.05227 -1.49286 0)
(3.05208 -1.46345 0)
(3.0579 -1.44843 0)
(3.07636 -1.40912 0)
(3.09317 -1.39465 0)
(3.09276 -1.38877 0)
(3.06884 -1.29887 0)
(2.99521 -0.872681 0)
(2.87795 -0.434001 0)
(2.81199 -0.0857702 0)
(2.70989 0.106577 0)
(2.67096 0.113237 0)
(2.67822 0.112796 0)
(3.05688 -1.58671 0)
(3.05467 -1.5796 0)
(3.05787 -1.57066 0)
(3.06293 -1.54383 0)
(3.05935 -1.52883 0)
(3.0557 -1.52272 0)
(3.0566 -1.50492 0)
(3.0565 -1.49682 0)
(3.04816 -1.49707 0)
(3.05079 -1.48638 0)
(3.07104 -1.47528 0)
(3.08279 -1.45992 0)
(3.08339 -1.45314 0)
(3.07575 -1.45703 0)
(3.06457 -1.44757 0)
(3.06689 -1.44116 0)
(3.08303 -1.40872 0)
(3.08058 -1.41264 0)
(3.07398 -1.39559 0)
(3.07113 -1.38758 0)
(3.07659 -1.38189 0)
(3.09063 -1.35035 0)
(3.10683 -1.30406 0)
(3.11447 -1.30391 0)
(3.10518 -1.30888 0)
(3.08043 -1.18789 0)
(3.01668 -0.76235 0)
(2.88726 -0.31953 0)
(2.85988 -0.0476534 0)
(2.73853 0.104871 0)
(3.05315 -1.53966 0)
(3.05208 -1.53968 0)
(3.05423 -1.53134 0)
(3.05343 -1.52895 0)
(3.0514 -1.52309 0)
(3.05366 -1.50586 0)
(3.0531 -1.50157 0)
(3.04724 -1.50213 0)
(3.0396 -1.5075 0)
(3.04553 -1.48299 0)
(3.07261 -1.42859 0)
(3.08355 -1.402 0)
(3.09212 -1.38035 0)
(3.09018 -1.37521 0)
(3.0884 -1.37368 0)
(3.09188 -1.33496 0)
(3.10969 -1.30705 0)
(3.11302 -1.30037 0)
(3.10337 -1.3177 0)
(3.10163 -1.30575 0)
(3.10521 -1.2852 0)
(3.09982 -1.28746 0)
(3.10112 -1.27338 0)
(3.11306 -1.22921 0)
(3.12911 -1.20514 0)
(3.11392 -1.21494 0)
(3.10815 -1.21646 0)
(3.07367 -1.01696 0)
(3.05908 -0.683038 0)
(2.85889 -0.110315 0)
(3.09524 -1.40942 0)
(3.09665 -1.39781 0)
(3.10165 -1.38377 0)
(3.09975 -1.35776 0)
(3.09526 -1.34043 0)
(3.09591 -1.32763 0)
(3.09755 -1.32488 0)
(3.09471 -1.32754 0)
(3.08568 -1.34099 0)
(3.08003 -1.36176 0)
(3.08342 -1.36607 0)
(3.08415 -1.35638 0)
(3.08642 -1.34811 0)
(3.08241 -1.34611 0)
(3.0829 -1.3196 0)
(3.09102 -1.29685 0)
(3.10314 -1.28711 0)
(3.11453 -1.25757 0)
(3.1181 -1.24025 0)
(3.12254 -1.22114 0)
(3.1258 -1.20738 0)
(3.11827 -1.19887 0)
(3.10159 -1.2214 0)
(3.10284 -1.20727 0)
(3.12017 -1.18001 0)
(3.12577 -1.16021 0)
(3.13056 -1.13875 0)
(3.12125 -1.12872 0)
(3.11903 -1.13515 0)
(3.01305 -0.579767 0)
(3.12008 -1.31619 0)
(3.11392 -1.31708 0)
(3.10392 -1.32393 0)
(3.09756 -1.31699 0)
(3.09377 -1.30483 0)
(3.09201 -1.29104 0)
(3.10316 -1.26847 0)
(3.11078 -1.26352 0)
(3.11402 -1.26435 0)
(3.11421 -1.24541 0)
(3.1145 -1.21779 0)
(3.11611 -1.20552 0)
(3.11875 -1.19727 0)
(3.11537 -1.20181 0)
(3.11038 -1.20395 0)
(3.10989 -1.20144 0)
(3.11195 -1.20377 0)
(3.11454 -1.1982 0)
(3.11627 -1.17543 0)
(3.1193 -1.15845 0)
(3.12093 -1.15502 0)
(3.12207 -1.14955 0)
(3.12235 -1.13381 0)
(3.1189 -1.13206 0)
(3.11961 -1.11119 0)
(3.12542 -1.09799 0)
(3.12986 -1.09461 0)
(3.12943 -1.08971 0)
(3.12705 -1.07127 0)
(3.12467 -1.04909 0)
(3.13053 -1.20323 0)
(3.12593 -1.2055 0)
(3.1211 -1.21002 0)
(3.11366 -1.19701 0)
(3.11218 -1.18345 0)
(3.11142 -1.16922 0)
(3.1251 -1.14961 0)
(3.12993 -1.14672 0)
(3.12513 -1.15686 0)
(3.11749 -1.16669 0)
(3.11397 -1.16875 0)
(3.11389 -1.16579 0)
(3.12338 -1.13898 0)
(3.13077 -1.11966 0)
(3.1313 -1.10545 0)
(3.12743 -1.10005 0)
(3.12987 -1.09355 0)
(3.13234 -1.08986 0)
(3.12689 -1.09735 0)
(3.12156 -1.09263 0)
(3.12373 -1.09007 0)
(3.12789 -1.07226 0)
(3.13146 -1.05253 0)
(3.13315 -1.04353 0)
(3.12883 -1.03862 0)
(3.12552 -1.0288 0)
(3.12792 -1.03141 0)
(3.13042 -1.01637 0)
(3.13089 -1.0113 0)
(3.13026 -0.999141 0)
(3.14355 -1.07341 0)
(3.13868 -1.07889 0)
(3.1328 -1.08915 0)
(3.12388 -1.07549 0)
(3.12347 -1.06095 0)
(3.12312 -1.0497 0)
(3.13925 -1.02637 0)
(3.14653 -1.01894 0)
(3.14204 -1.02214 0)
(3.13564 -1.02938 0)
(3.13232 -1.02985 0)
(3.13174 -1.02133 0)
(3.13391 -1.01738 0)
(3.13354 -1.01858 0)
(3.13318 -1.01897 0)
(3.13199 -1.014 0)
(3.13161 -1.00389 0)
(3.1381 -0.992658 0)
(3.13868 -0.988049 0)
(3.13744 -0.98631 0)
(3.13712 -0.980248 0)
(3.13714 -0.975883 0)
(3.13758 -0.967952 0)
(3.13814 -0.965018 0)
(3.13599 -0.960964 0)
(3.13091 -0.960714 0)
(3.12988 -0.956153 0)
(3.1316 -0.947385 0)
(3.13229 -0.94585 0)
(3.13141 -0.942641 0)
(3.1501 -0.935823 0)
(3.14803 -0.941526 0)
(3.14005 -0.951517 0)
(3.13247 -0.958874 0)
(3.12926 -0.945421 0)
(3.13699 -0.925082 0)
(3.13861 -0.911306 0)
(3.1438 -0.907869 0)
(3.14244 -0.913366 0)
(3.13838 -0.927124 0)
(3.13513 -0.937918 0)
(3.13532 -0.922945 0)
(3.13688 -0.916334 0)
(3.14094 -0.913102 0)
(3.1407 -0.912435 0)
(3.1368 -0.911934 0)
(3.13175 -0.913151 0)
(3.1333 -0.91538 0)
(3.1355 -0.915746 0)
(3.13869 -0.909795 0)
(3.14039 -0.898138 0)
(3.13809 -0.896636 0)
(3.13444 -0.897129 0)
(3.13498 -0.893981 0)
(3.13713 -0.891013 0)
(3.1378 -0.888169 0)
(3.13651 -0.884229 0)
(3.13445 -0.885617 0)
(3.13303 -0.880251 0)
(3.13246 -0.877044 0)
(3.14705 -0.796499 0)
(3.14748 -0.80064 0)
(3.14173 -0.809011 0)
(3.13288 -0.820193 0)
(3.13044 -0.81594 0)
(3.13724 -0.800812 0)
(3.13901 -0.782843 0)
(3.14402 -0.775973 0)
(3.14237 -0.790623 0)
(3.13835 -0.800345 0)
(3.1339 -0.805229 0)
(3.13427 -0.799421 0)
(3.13728 -0.796247 0)
(3.14231 -0.797251 0)
(3.14112 -0.800841 0)
(3.1376 -0.802117 0)
(3.13711 -0.796944 0)
(3.1375 -0.793326 0)
(3.13693 -0.794056 0)
(3.13516 -0.79878 0)
(3.1349 -0.803279 0)
(3.13396 -0.809062 0)
(3.13308 -0.812421 0)
(3.13332 -0.815076 0)
(3.13408 -0.815768 0)
(3.13462 -0.81581 0)
(3.13545 -0.815134 0)
(3.13532 -0.812743 0)
(3.13387 -0.813696 0)
(3.13288 -0.815449 0)
(3.13891 -0.651684 0)
(3.13905 -0.657637 0)
(3.13805 -0.662688 0)
(3.12616 -0.672796 0)
(3.12206 -0.674341 0)
(3.12545 -0.669958 0)
(3.13068 -0.651696 0)
(3.13783 -0.64252 0)
(3.13683 -0.656422 0)
(3.13218 -0.66166 0)
(3.12443 -0.67632 0)
(3.12451 -0.680582 0)
(3.13103 -0.677909 0)
(3.13632 -0.67993 0)
(3.13577 -0.683406 0)
(3.13135 -0.686338 0)
(3.1283 -0.694366 0)
(3.12982 -0.701748 0)
(3.13114 -0.703084 0)
(3.13299 -0.704869 0)
(3.13273 -0.709076 0)
(3.13231 -0.708233 0)
(3.13255 -0.706841 0)
(3.13117 -0.706475 0)
(3.13266 -0.718328 0)
(3.13144 -0.726783 0)
(3.13008 -0.730176 0)
(3.13037 -0.73927 0)
(3.13059 -0.742106 0)
(3.13138 -0.747008 0)
(3.12862 -0.499044 0)
(3.12248 -0.510012 0)
(3.12224 -0.511354 0)
(3.10962 -0.524862 0)
(3.1026 -0.531985 0)
(3.10358 -0.530629 0)
(3.11275 -0.51713 0)
(3.12625 -0.510058 0)
(3.12482 -0.519997 0)
(3.11959 -0.527037 0)
(3.11163 -0.54448 0)
(3.11085 -0.547165 0)
(3.11897 -0.547214 0)
(3.12362 -0.558881 0)
(3.12243 -0.560247 0)
(3.12104 -0.564463 0)
(3.12055 -0.572505 0)
(3.12044 -0.579123 0)
(3.12162 -0.587616 0)
(3.12303 -0.58878 0)
(3.12358 -0.596692 0)
(3.12341 -0.608117 0)
(3.12378 -0.623297 0)
(3.12509 -0.627167 0)
(3.12659 -0.628621 0)
(3.12626 -0.637421 0)
(3.12468 -0.639264 0)
(3.12413 -0.647016 0)
(3.12666 -0.665732 0)
(3.12668 -0.676163 0)
(3.1039 -0.337315 0)
(3.09693 -0.353631 0)
(3.09642 -0.355631 0)
(3.08652 -0.374683 0)
(3.07669 -0.39396 0)
(3.07734 -0.39424 0)
(3.08854 -0.372739 0)
(3.10351 -0.362131 0)
(3.10323 -0.376258 0)
(3.1008 -0.389435 0)
(3.09331 -0.411142 0)
(3.09157 -0.414098 0)
(3.09943 -0.413089 0)
(3.10592 -0.430143 0)
(3.10373 -0.435909 0)
(3.1024 -0.43689 0)
(3.10572 -0.456169 0)
(3.10576 -0.461495 0)
(3.1075 -0.47322 0)
(3.10926 -0.481468 0)
(3.1112 -0.495948 0)
(3.11187 -0.503586 0)
(3.11213 -0.509329 0)
(3.11466 -0.527709 0)
(3.1147 -0.535999 0)
(3.1165 -0.55234 0)
(3.11719 -0.569742 0)
(3.11879 -0.574652 0)
(3.12039 -0.581489 0)
(3.12077 -0.597043 0)
(3.06603 -0.176996 0)
(3.06273 -0.200595 0)
(3.06203 -0.204807 0)
(3.05728 -0.221032 0)
(3.04602 -0.249042 0)
(3.04487 -0.25392 0)
(3.05688 -0.234485 0)
(3.07117 -0.215015 0)
(3.07469 -0.228016 0)
(3.07471 -0.249354 0)
(3.06617 -0.277117 0)
(3.06362 -0.27864 0)
(3.07292 -0.28099 0)
(3.08076 -0.298337 0)
(3.07963 -0.308679 0)
(3.07929 -0.311696 0)
(3.08323 -0.327537 0)
(3.0848 -0.34419 0)
(3.08636 -0.354369 0)
(3.08996 -0.367018 0)
(3.0925 -0.378777 0)
(3.09441 -0.396223 0)
(3.09634 -0.409416 0)
(3.09895 -0.421929 0)
(3.10082 -0.439395 0)
(3.10199 -0.445205 0)
(3.10423 -0.461742 0)
(3.10565 -0.479392 0)
(3.10706 -0.489298 0)
(3.11014 -0.512394 0)
(3.01509 -0.0218486 0)
(3.01733 -0.0482072 0)
(3.01564 -0.0573216 0)
(3.01607 -0.0679402 0)
(3.00838 -0.0989363 0)
(3.00509 -0.110043 0)
(3.01588 -0.0996422 0)
(3.03062 -0.0774004 0)
(3.03775 -0.0851769 0)
(3.03883 -0.109348 0)
(3.02928 -0.14107 0)
(3.02547 -0.14363 0)
(3.0356 -0.146389 0)
(3.04763 -0.170332 0)
(3.04706 -0.176373 0)
(3.04879 -0.184453 0)
(3.05335 -0.202967 0)
(3.0551 -0.222325 0)
(3.05763 -0.234505 0)
(3.06356 -0.250775 0)
(3.06743 -0.26507 0)
(3.07003 -0.282279 0)
(3.07352 -0.30263 0)
(3.07602 -0.31247 0)
(3.08105 -0.33643 0)
(3.08381 -0.355 0)
(3.08649 -0.368219 0)
(3.09017 -0.388169 0)
(3.09296 -0.407821 0)
(3.09695 -0.432441 0)
(2.95134 0.132192 0)
(2.95796 0.110013 0)
(2.95867 0.0913496 0)
(2.96569 0.072658 0)
(2.96216 0.0430671 0)
(2.95563 0.029475 0)
(2.96195 0.0323067 0)
(2.97696 0.0535725 0)
(2.98522 0.0537519 0)
(2.99117 0.0315908 0)
(2.985 -0.0062482 0)
(2.98033 -0.0141812 0)
(2.98873 -0.0164759 0)
(3.00364 -0.0407455 0)
(3.00488 -0.0493832 0)
(3.00891 -0.0595125 0)
(3.01465 -0.0789075 0)
(3.01722 -0.100242 0)
(3.02126 -0.115832 0)
(3.02818 -0.129974 0)
(3.0353 -0.151744 0)
(3.03856 -0.167826 0)
(3.0436 -0.18894 0)
(3.04953 -0.210735 0)
(3.0541 -0.225946 0)
(3.05911 -0.247504 0)
(3.0643 -0.271665 0)
(3.06848 -0.288092 0)
(3.07266 -0.307316 0)
(3.07869 -0.339297 0)
(2.87408 0.268301 0)
(2.88339 0.254888 0)
(2.89541 0.23629 0)
(2.90015 0.217254 0)
(2.90039 0.196749 0)
(2.89691 0.179283 0)
(2.90053 0.176333 0)
(2.90994 0.189371 0)
(2.91909 0.187217 0)
(2.93168 0.161084 0)
(2.92855 0.127264 0)
(2.92643 0.12411 0)
(2.93337 0.119363 0)
(2.94928 0.0897318 0)
(2.95318 0.0751544 0)
(2.95846 0.0673738 0)
(2.96908 0.0423016 0)
(2.97204 0.0255192 0)
(2.97897 0.00285663 0)
(2.98674 -0.0130104 0)
(2.99549 -0.0338045 0)
(3.00207 -0.0556599 0)
(3.00832 -0.0763785 0)
(3.01564 -0.0978265 0)
(3.02346 -0.122534 0)
(3.02997 -0.143168 0)
(3.03658 -0.166062 0)
(3.04332 -0.191076 0)
(3.04922 -0.213539 0)
(3.05803 -0.249948 0)
(2.82227 0.364612 0)
(2.8262 0.359854 0)
(2.83412 0.345917 0)
(2.83534 0.3405 0)
(2.83669 0.335524 0)
(2.83863 0.327351 0)
(2.84105 0.320047 0)
(2.84587 0.316966 0)
(2.85137 0.312578 0)
(2.86427 0.29119 0)
(2.86819 0.270887 0)
(2.86923 0.267952 0)
(2.87969 0.251283 0)
(2.88841 0.230347 0)
(2.89525 0.211823 0)
(2.90379 0.195604 0)
(2.9147 0.173895 0)
(2.92299 0.151734 0)
(2.93075 0.130912 0)
(2.9411 0.107029 0)
(2.95118 0.0834964 0)
(2.95984 0.0612497 0)
(2.96979 0.0342258 0)
(2.97843 0.012069 0)
(2.98839 -0.0147244 0)
(2.99701 -0.0386757 0)
(3.00634 -0.0658884 0)
(3.01465 -0.0911143 0)
(3.0225 -0.116689 0)
(3.03416 -0.157169 0)
(2.81259 0.379855 0)
(2.81392 0.379558 0)
(2.81504 0.379646 0)
(2.81527 0.379976 0)
(2.81543 0.380157 0)
(2.81563 0.379722 0)
(2.81629 0.37797 0)
(2.81737 0.376522 0)
(2.81963 0.373941 0)
(2.82221 0.370004 0)
(2.8239 0.366268 0)
(2.82593 0.36296 0)
(2.83123 0.355995 0)
(2.8376 0.345988 0)
(2.84325 0.335534 0)
(2.8504 0.321598 0)
(2.85885 0.304885 0)
(2.86811 0.285696 0)
(2.87874 0.262614 0)
(2.88895 0.239805 0)
(2.90137 0.211364 0)
(2.91248 0.185232 0)
(2.9252 0.155049 0)
(2.93688 0.12672 0)
(2.94927 0.096045 0)
(2.9606 0.0675268 0)
(2.97242 0.0367166 0)
(2.98313 0.00797725 0)
(2.99314 -0.0204116 0)
(3.0079 -0.0648222 0)
(2.82872 0.354093 0)
(2.82759 0.356804 0)
(2.82568 0.365056 0)
(2.82632 0.376536 0)
(2.82633 0.379294 0)
(2.82088 0.371706 0)
(2.8195 0.364633 0)
(2.82234 0.363962 0)
(2.82461 0.366143 0)
(2.82537 0.371235 0)
(2.82308 0.374955 0)
(2.8225 0.374037 0)
(2.82341 0.370713 0)
(2.82392 0.369834 0)
(2.82478 0.36969 0)
(2.82663 0.368444 0)
(2.829 0.365525 0)
(2.8317 0.361421 0)
(2.83613 0.354211 0)
(2.84243 0.343998 0)
(2.85127 0.328893 0)
(2.86149 0.309526 0)
(2.87382 0.283986 0)
(2.88665 0.255518 0)
(2.9017 0.220963 0)
(2.91568 0.187896 0)
(2.93127 0.150309 0)
(2.94516 0.115959 0)
(2.95851 0.0817586 0)
(2.97752 0.0304706 0)
(2.89916 0.214963 0)
(2.89588 0.22693 0)
(2.88462 0.244128 0)
(2.8787 0.268024 0)
(2.88123 0.281197 0)
(2.87699 0.290789 0)
(2.86838 0.289806 0)
(2.86571 0.280306 0)
(2.86116 0.288338 0)
(2.85285 0.317187 0)
(2.85278 0.330455 0)
(2.85113 0.328496 0)
(2.84259 0.335894 0)
(2.83893 0.346968 0)
(2.8379 0.349211 0)
(2.83699 0.351516 0)
(2.83431 0.35821 0)
(2.83396 0.358758 0)
(2.83398 0.358393 0)
(2.8343 0.357731 0)
(2.83528 0.356894 0)
(2.83735 0.35469 0)
(2.84075 0.350405 0)
(2.84606 0.342276 0)
(2.85479 0.327226 0)
(2.86605 0.305952 0)
(2.88108 0.275034 0)
(2.89696 0.239887 0)
(2.91394 0.2008 0)
(2.93887 0.139309 0)
(2.97534 0.0557506 0)
(2.97248 0.0607253 0)
(2.9714 0.0598098 0)
(2.96674 0.0686404 0)
(2.96274 0.0867048 0)
(2.9628 0.089962 0)
(2.95782 0.0978828 0)
(2.95098 0.104369 0)
(2.94262 0.116196 0)
(2.93336 0.13941 0)
(2.92824 0.159182 0)
(2.92546 0.163723 0)
(2.91206 0.187639 0)
(2.90208 0.212316 0)
(2.89623 0.223969 0)
(2.88278 0.25019 0)
(2.87716 0.265618 0)
(2.86542 0.2922 0)
(2.86042 0.302013 0)
(2.85187 0.318837 0)
(2.84678 0.331074 0)
(2.84526 0.335351 0)
(2.84193 0.34262 0)
(2.84329 0.342057 0)
(2.84392 0.341642 0)
(2.84537 0.340046 0)
(2.8491 0.335258 0)
(2.85594 0.325441 0)
(2.86645 0.307766 0)
(2.89029 0.258854 0)
(2.99887 0.00238735 0)
(2.99862 0.00283214 0)
(2.9983 0.00343259 0)
(2.99794 0.00396657 0)
(2.99745 0.00521879 0)
(2.99721 0.0060864 0)
(2.99662 0.00742761 0)
(2.99568 0.00887364 0)
(2.99417 0.0110502 0)
(2.99235 0.0143135 0)
(2.99015 0.019829 0)
(2.98824 0.0238037 0)
(2.98434 0.0308581 0)
(2.97923 0.0413807 0)
(2.97426 0.0514679 0)
(2.96542 0.0695767 0)
(2.95853 0.0835171 0)
(2.94474 0.113375 0)
(2.93562 0.132645 0)
(2.91932 0.166208 0)
(2.90396 0.200726 0)
(2.89571 0.220718 0)
(2.87407 0.267484 0)
(2.86885 0.280496 0)
(2.85847 0.302775 0)
(2.85089 0.322407 0)
(2.84932 0.327066 0)
(2.85036 0.327542 0)
(2.85081 0.327194 0)
(2.85741 0.319268 0)
(2.99999 2.68685e-05 0)
(2.99998 3.24419e-05 0)
(2.99998 3.92703e-05 0)
(2.99997 5.01717e-05 0)
(2.99997 6.49711e-05 0)
(2.99996 8.71332e-05 0)
(2.99994 0.000108458 0)
(2.99992 0.000151354 0)
(2.99989 0.000195854 0)
(2.99983 0.000299873 0)
(2.99976 0.000437567 0)
(2.99965 0.000638477 0)
(2.99948 0.000932808 0)
(2.99917 0.0014968 0)
(2.99872 0.00234733 0)
(2.998 0.00362268 0)
(2.99678 0.00595655 0)
(2.99493 0.00930422 0)
(2.99191 0.0152621 0)
(2.98733 0.0238687 0)
(2.98056 0.0371326 0)
(2.97078 0.0571023 0)
(2.95825 0.0819072 0)
(2.94194 0.116653 0)
(2.92346 0.155533 0)
(2.9055 0.195035 0)
(2.88714 0.236026 0)
(2.87283 0.269676 0)
(2.86258 0.293422 0)
(2.85841 0.308263 0)
(3 1.60012e-07 0)
(3 1.90248e-07 0)
(3 2.37544e-07 0)
(3 2.96291e-07 0)
(3 3.90826e-07 0)
(3 5.12923e-07 0)
(3 6.89122e-07 0)
(3 9.43343e-07 0)
(3 1.34134e-06 0)
(3 1.99971e-06 0)
(3 3.16798e-06 0)
(3 4.81741e-06 0)
(3 7.74493e-06 0)
(2.99999 1.3517e-05 0)
(2.99999 2.33866e-05 0)
(2.99997 4.31158e-05 0)
(2.99995 7.89937e-05 0)
(2.99991 0.000159333 0)
(2.99982 0.000309018 0)
(2.99963 0.000651068 0)
(2.99925 0.00132404 0)
(2.99844 0.00279304 0)
(2.99688 0.00565599 0)
(2.99374 0.0115893 0)
(2.98838 0.0216812 0)
(2.97866 0.0409326 0)
(2.96542 0.0673364 0)
(2.94534 0.108999 0)
(2.92589 0.150288 0)
(2.89379 0.221639 0)
(3 7.30333e-10 0)
(3 8.76518e-10 0)
(3 1.09725e-09 0)
(3 1.39364e-09 0)
(3 1.81667e-09 0)
(3 2.41794e-09 0)
(3 3.24376e-09 0)
(3 4.54006e-09 0)
(3 6.43484e-09 0)
(3 9.69789e-09 0)
(3 1.51027e-08 0)
(3 2.36565e-08 0)
(3 3.87166e-08 0)
(3 6.79869e-08 0)
(3 1.22997e-07 0)
(3 2.31307e-07 0)
(3 4.61375e-07 0)
(3 9.67203e-07 0)
(3 2.13051e-06 0)
(3 4.96079e-06 0)
(2.99999 1.19976e-05 0)
(2.99998 3.09911e-05 0)
(2.99995 8.0602e-05 0)
(2.99987 0.000224051 0)
(2.99966 0.000597979 0)
(2.99906 0.00167784 0)
(2.99769 0.00420758 0)
(2.99412 0.0109946 0)
(2.98825 0.0221898 0)
(2.9656 0.0691716 0)
(3 2.55595e-12 0)
(3 3.08071e-12 0)
(3 3.90708e-12 0)
(3 4.97944e-12 0)
(3 6.59071e-12 0)
(3 8.7669e-12 0)
(3 1.19966e-11 0)
(3 1.67812e-11 0)
(3 2.41803e-11 0)
(3 3.60183e-11 0)
(3 5.65355e-11 0)
(3 8.79731e-11 0)
(3 1.46574e-10 0)
(3 2.54248e-10 0)
(3 4.67615e-10 0)
(3 8.79159e-10 0)
(3 1.80059e-09 0)
(3 3.79165e-09 0)
(3 8.73823e-09 0)
(3 2.06274e-08 0)
(3 5.38978e-08 0)
(3 1.43833e-07 0)
(3 4.27796e-07 0)
(3 1.28758e-06 0)
(3 4.30859e-06 0)
(2.99999 1.43571e-05 0)
(2.99996 5.19778e-05 0)
(2.99985 0.00018417 0)
(2.99955 0.000586807 0)
(2.99616 0.00464112 0)
(2.57832 -1.40917 0)
(2.626 -1.46846 0)
(2.79135 -1.50887 0)
(2.95296 -1.6133 0)
(3.05867 -1.64154 0)
(3.08163 -1.64307 0)
(3.07198 -1.65378 0)
(3.04618 -1.66334 0)
(3.02057 -1.67674 0)
(3.03006 -1.64493 0)
(3.05304 -1.60012 0)
(3.05718 -1.53444 0)
(3.09192 -1.41839 0)
(3.11411 -1.30992 0)
(3.13273 -1.20034 0)
(3.14568 -1.06793 0)
(3.15142 -0.927108 0)
(3.14685 -0.779516 0)
(3.13418 -0.619448 0)
(3.10879 -0.453123 0)
(3.07699 -0.292033 0)
(3.03754 -0.138625 0)
(2.99185 0.00366566 0)
(2.9349 0.142321 0)
(2.86807 0.271262 0)
(2.81936 0.366917 0)
(2.81233 0.380506 0)
(2.832 0.344008 0)
(2.90433 0.208852 0)
(2.98072 0.0443493 0)
(2.99913 0.0019143 0)
(2.99999 2.35069e-05 0)
(3 1.38795e-07 0)
(3 6.27015e-10 0)
(3 2.17917e-12 0)
(2.57524 -1.40967 0)
(2.6384 -1.47291 0)
(2.82024 -1.52535 0)
(2.98 -1.63614 0)
(3.07694 -1.6523 0)
(3.08654 -1.65129 0)
(3.07085 -1.66095 0)
(3.038 -1.66285 0)
(3.01225 -1.66629 0)
(3.03108 -1.63192 0)
(3.04593 -1.60365 0)
(3.07018 -1.50025 0)
(3.09312 -1.40193 0)
(3.11917 -1.24979 0)
(3.13153 -1.12853 0)
(3.13909 -0.979274 0)
(3.13718 -0.840506 0)
(3.12902 -0.708845 0)
(3.11533 -0.565643 0)
(3.09529 -0.427739 0)
(3.06624 -0.283601 0)
(3.02828 -0.138568 0)
(2.98133 0.000707196 0)
(2.92409 0.138929 0)
(2.85906 0.277863 0)
(2.81464 0.37471 0)
(2.81229 0.38277 0)
(2.84049 0.335632 0)
(2.91695 0.193552 0)
(2.98681 0.0316964 0)
(2.99954 0.00105862 0)
(3 9.91261e-06 0)
(3 5.85785e-08 0)
(3 2.89704e-10 0)
(3 1.05902e-12 0)
(2.56961 -1.41074 0)
(2.64207 -1.46367 0)
(2.82739 -1.52484 0)
(2.98059 -1.6503 0)
(3.08167 -1.6602 0)
(3.08912 -1.65922 0)
(3.0699 -1.66501 0)
(3.03394 -1.66253 0)
(3.01053 -1.65198 0)
(3.02755 -1.62939 0)
(3.02501 -1.60685 0)
(3.06834 -1.48419 0)
(3.08696 -1.36831 0)
(3.09704 -1.20419 0)
(3.11786 -1.10692 0)
(3.12733 -0.971347 0)
(3.13171 -0.864296 0)
(3.12595 -0.741585 0)
(3.11319 -0.601023 0)
(3.09067 -0.457673 0)
(3.06113 -0.307744 0)
(3.02363 -0.156454 0)
(2.97699 -0.00835665 0)
(2.92009 0.138092 0)
(2.85434 0.291919 0)
(2.8127 0.379544 0)
(2.81339 0.38583 0)
(2.84473 0.345045 0)
(2.92595 0.176721 0)
(2.98959 0.0245789 0)
(2.9997 0.000658195 0)
(3 5.48454e-06 0)
(3 3.10362e-08 0)
(3 1.50199e-10 0)
(3 5.38499e-13 0)
(2.56501 -1.40591 0)
(2.64394 -1.44247 0)
(2.82721 -1.52661 0)
(2.98377 -1.65274 0)
(3.08314 -1.66292 0)
(3.09491 -1.67129 0)
(3.06722 -1.67799 0)
(3.03906 -1.67073 0)
(3.01341 -1.64317 0)
(3.01432 -1.62651 0)
(3.02279 -1.58928 0)
(3.06506 -1.45254 0)
(3.08114 -1.35711 0)
(3.10147 -1.2338 0)
(3.1123 -1.13582 0)
(3.12345 -1.00292 0)
(3.12836 -0.883813 0)
(3.12829 -0.746689 0)
(3.11827 -0.600171 0)
(3.10133 -0.440718 0)
(3.07361 -0.279394 0)
(3.0348 -0.118976 0)
(2.9832 0.0402801 0)
(2.91682 0.1923 0)
(2.84465 0.327495 0)
(2.81 0.384736 0)
(2.81446 0.3856 0)
(2.84803 0.334328 0)
(2.93582 0.143178 0)
(2.99261 0.0161483 0)
(2.99983 0.000353882 0)
(3 2.81435e-06 0)
(3 1.5799e-08 0)
(3 7.60113e-11 0)
(3 2.69812e-13 0)
(2.5511 -1.39597 0)
(2.64041 -1.4217 0)
(2.8234 -1.52712 0)
(2.98273 -1.65624 0)
(3.08284 -1.66274 0)
(3.09155 -1.67708 0)
(3.06607 -1.6831 0)
(3.04952 -1.67614 0)
(3.01695 -1.64138 0)
(3.00091 -1.64094 0)
(3.03009 -1.5579 0)
(3.06518 -1.46388 0)
(3.0761 -1.37762 0)
(3.09344 -1.24859 0)
(3.11563 -1.13412 0)
(3.13532 -0.99799 0)
(3.15105 -0.857753 0)
(3.15268 -0.697351 0)
(3.14087 -0.535649 0)
(3.11151 -0.360953 0)
(3.07029 -0.193553 0)
(3.01827 -0.0335112 0)
(2.95317 0.119504 0)
(2.88165 0.256856 0)
(2.82646 0.357323 0)
(2.80702 0.387791 0)
(2.81374 0.376181 0)
(2.86185 0.287212 0)
(2.95395 0.102944 0)
(2.99568 0.0095884 0)
(2.99991 0.000184117 0)
(3 1.40009e-06 0)
(3 7.83567e-09 0)
(3 3.76203e-11 0)
(3 1.3254e-13 0)
(2.54068 -1.38362 0)
(2.63279 -1.40807 0)
(2.80544 -1.52456 0)
(2.96833 -1.64787 0)
(3.07596 -1.65972 0)
(3.08784 -1.67347 0)
(3.06921 -1.68236 0)
(3.05518 -1.67766 0)
(3.02734 -1.64592 0)
(3.00291 -1.65992 0)
(3.04298 -1.52934 0)
(3.06048 -1.48543 0)
(3.08881 -1.36729 0)
(3.10966 -1.23676 0)
(3.13538 -1.10077 0)
(3.15841 -0.951377 0)
(3.16084 -0.783185 0)
(3.13769 -0.614675 0)
(3.1086 -0.446593 0)
(3.06966 -0.285065 0)
(3.02818 -0.131065 0)
(2.98325 0.0112194 0)
(2.93167 0.141835 0)
(2.87005 0.266289 0)
(2.8191 0.364427 0)
(2.80584 0.389509 0)
(2.81559 0.36961 0)
(2.88465 0.256161 0)
(2.96362 0.0872269 0)
(2.99734 0.00632635 0)
(2.99995 9.9712e-05 0)
(3 7.07765e-07 0)
(3 3.87803e-09 0)
(3 1.84262e-11 0)
(3 6.36842e-14 0)
(2.53571 -1.37629 0)
(2.62075 -1.39701 0)
(2.78365 -1.5153 0)
(2.95646 -1.63758 0)
(3.07015 -1.65522 0)
(3.08945 -1.66862 0)
(3.07729 -1.6796 0)
(3.06645 -1.68041 0)
(3.04286 -1.65601 0)
(3.01156 -1.66551 0)
(3.06654 -1.50744 0)
(3.08289 -1.46649 0)
(3.11872 -1.30921 0)
(3.13398 -1.17346 0)
(3.13411 -1.04722 0)
(3.13643 -0.888334 0)
(3.12357 -0.715691 0)
(3.11515 -0.581042 0)
(3.09495 -0.431586 0)
(3.06554 -0.295187 0)
(3.02706 -0.150139 0)
(2.98106 -0.00979425 0)
(2.92725 0.124642 0)
(2.86518 0.261585 0)
(2.81501 0.371002 0)
(2.80594 0.392285 0)
(2.82109 0.365117 0)
(2.88667 0.261943 0)
(2.97081 0.0728861 0)
(2.99828 0.00412043 0)
(2.99998 5.40774e-05 0)
(3 3.59308e-07 0)
(3 1.91961e-09 0)
(3 8.98181e-12 0)
(3 2.98325e-14 0)
(2.53724 -1.37293 0)
(2.61234 -1.38382 0)
(2.7683 -1.50123 0)
(2.95055 -1.6317 0)
(3.06772 -1.65146 0)
(3.09596 -1.66569 0)
(3.08932 -1.67899 0)
(3.07627 -1.67997 0)
(3.05271 -1.66596 0)
(3.02823 -1.65122 0)
(3.08902 -1.45722 0)
(3.10836 -1.3936 0)
(3.12561 -1.25142 0)
(3.12911 -1.11677 0)
(3.13039 -1.01371 0)
(3.12907 -0.875363 0)
(3.12657 -0.737964 0)
(3.11148 -0.610043 0)
(3.09193 -0.462735 0)
(3.06049 -0.31422 0)
(3.02287 -0.161923 0)
(2.97798 -0.0104474 0)
(2.92472 0.140528 0)
(2.85943 0.291587 0)
(2.81089 0.382481 0)
(2.80612 0.394288 0)
(2.82666 0.373397 0)
(2.89578 0.24656 0)
(2.97842 0.0511611 0)
(2.99897 0.00233285 0)
(2.99999 2.74534e-05 0)
(3 1.7737e-07 0)
(3 9.35875e-10 0)
(3 4.33005e-12 0)
(3 1.34443e-14 0)
(2.54014 -1.37102 0)
(2.60869 -1.37464 0)
(2.76359 -1.49437 0)
(2.94887 -1.62934 0)
(3.0659 -1.64958 0)
(3.0969 -1.66628 0)
(3.09292 -1.67933 0)
(3.07965 -1.67642 0)
(3.05473 -1.67475 0)
(3.04721 -1.6109 0)
(3.09028 -1.46703 0)
(3.10512 -1.35421 0)
(3.11804 -1.26899 0)
(3.12803 -1.13522 0)
(3.12856 -1.02906 0)
(3.12885 -0.894941 0)
(3.12656 -0.758065 0)
(3.11656 -0.607134 0)
(3.09944 -0.453963 0)
(3.07346 -0.28189 0)
(3.03507 -0.112473 0)
(2.98202 0.0553791 0)
(2.91112 0.213479 0)
(2.84092 0.337621 0)
(2.80619 0.390787 0)
(2.80766 0.394163 0)
(2.83 0.367474 0)
(2.91486 0.191817 0)
(2.98461 0.0351395 0)
(2.99941 0.0013207 0)
(2.99999 1.36184e-05 0)
(3 8.57328e-08 0)
(3 4.48119e-10 0)
(3 2.05636e-12 0)
(3 5.67303e-15 0)
(2.54048 -1.36947 0)
(2.60802 -1.3715 0)
(2.75934 -1.48897 0)
(2.94654 -1.62147 0)
(3.06253 -1.64893 0)
(3.09423 -1.66945 0)
(3.09109 -1.68282 0)
(3.07426 -1.6758 0)
(3.04176 -1.68878 0)
(3.05015 -1.56172 0)
(3.06298 -1.50777 0)
(3.09501 -1.37188 0)
(3.11187 -1.27773 0)
(3.12988 -1.14635 0)
(3.13741 -1.03574 0)
(3.14851 -0.879841 0)
(3.15063 -0.729288 0)
(3.14128 -0.539158 0)
(3.11856 -0.369957 0)
(3.06909 -0.183568 0)
(3.01005 -0.0144232 0)
(2.94299 0.138008 0)
(2.87757 0.264732 0)
(2.82678 0.356802 0)
(2.80301 0.394249 0)
(2.80661 0.388572 0)
(2.83993 0.326678 0)