/*--------------------------------*- C++ -*----------------------------------*\
  =========                 |
  \\      /  F ield         | OpenFOAM: The Open Source CFD Toolbox
   \\    /   O peration     | Website:  https://openfoam.org
    \\  /    A nd           | Version:  7
     \\/     M anipulation  |
\*---------------------------------------------------------------------------*/
FoamFile
{
    version     2.0;
    format      ascii;
    class       volScalarField;
    location    "0.9999";
    object      rho;
}
// * * * * * * * * * * * * * * * * * * * * * * * * * * * * * * * * * * * * * //

dimensions      [1 -3 0 0 0 0 0];

internalField   nonuniform List<scalar> 
324000
(
0.516158
0.67013
0.879042
1.09026
1.2322
1.23398
1.19792
1.16012
1.11721
1.11917
1.14627
1.17483
1.17486
1.16501
1.15431
1.15398
1.15736
1.15908
1.15858
1.15695
1.15505
1.1524
1.1461
1.1301
1.10414
1.08811
1.08134
1.0791
1.08102
1.09119
1.09501
1.0948
1.09229
1.09118
1.09139
1.09228
1.09324
1.09487
1.09808
1.10059
1.10087
1.10134
1.10234
1.1038
1.10521
1.10729
1.11041
1.11025
1.10849
1.10466
1.1005
1.09749
1.09712
1.09809
1.09885
1.09824
1.09819
1.09839
1.09868
1.1003
1.10469
1.11135
1.11821
1.12628
1.13365
1.13853
1.14533
1.15531
1.16517
1.18136
1.19209
1.2063
1.20911
1.20199
1.20602
1.25108
1.30521
1.31872
1.33495
1.35519
0.37827
0.378463
0.408344
0.562304
0.825613
1.02115
1.13326
1.17304
1.14544
1.15449
1.17319
1.17168
1.15318
1.14448
1.14531
1.15087
1.15022
1.14615
1.14288
1.14305
1.14415
1.14467
1.13991
1.12423
1.09857
1.0754
1.06547
1.06088
1.06042
1.06582
1.06788
1.06281
1.05942
1.05905
1.05993
1.06225
1.06346
1.06452
1.06723
1.0684
1.06875
1.06936
1.06887
1.06872
1.06946
1.07151
1.07457
1.0758
1.07481
1.0716
1.06687
1.06313
1.06258
1.06366
1.06408
1.06338
1.06267
1.06411
1.06749
1.07187
1.07888
1.08751
1.09713
1.10599
1.11368
1.12208
1.13133
1.14306
1.1534
1.1683
1.18126
1.19625
1.20212
1.19759
1.20161
1.24931
1.30378
1.31741
1.33505
1.35492
0.378376
0.378826
0.379259
0.379338
0.40119
0.511791
0.724974
0.959658
1.10985
1.19887
1.19533
1.16051
1.12213
1.12618
1.14092
1.15346
1.15212
1.14678
1.14329
1.14371
1.14338
1.14387
1.13961
1.12415
1.10045
1.07814
1.06587
1.06007
1.05754
1.06122
1.05715
1.04534
1.04238
1.04172
1.0424
1.0438
1.04457
1.04637
1.04715
1.04814
1.04917
1.05099
1.05012
1.04831
1.0477
1.04873
1.05148
1.05265
1.05179
1.04846
1.04336
1.03884
1.03673
1.0363
1.03532
1.03398
1.03333
1.03415
1.03732
1.0425
1.0499
1.0586
1.06737
1.07878
1.0877
1.09542
1.10431
1.1145
1.12425
1.13809
1.15776
1.17022
1.19081
1.19118
1.19625
1.2474
1.30201
1.31609
1.33525
1.35467
0.3787
0.37908
0.379485
0.379596
0.379586
0.379283
0.38254
0.452486
0.659855
0.892704
1.0441
1.09644
1.13991
1.13872
1.14076
1.149
1.14794
1.14603
1.14733
1.14731
1.14518
1.14275
1.13836
1.12442
1.10363
1.08172
1.06778
1.06432
1.06488
1.06766
1.05904
1.04359
1.0393
1.03833
1.03767
1.03749
1.03747
1.03915
1.04157
1.04269
1.04299
1.04316
1.04175
1.03986
1.03897
1.03908
1.04094
1.04145
1.0405
1.03672
1.03074
1.02539
1.0218
1.01971
1.01771
1.01551
1.01401
1.01431
1.01564
1.01844
1.02402
1.03014
1.03764
1.04707
1.05587
1.06505
1.0739
1.08316
1.09232
1.10657
1.12741
1.13979
1.17367
1.17955
1.18795
1.24372
1.29933
1.31469
1.33561
1.35444
0.378946
0.379269
0.379578
0.379665
0.379676
0.379529
0.379062
0.378361
0.377715
0.423214
0.582723
0.847707
1.06593
1.11566
1.14268
1.14528
1.14492
1.14999
1.1542
1.15306
1.15005
1.14502
1.13919
1.12717
1.10859
1.08652
1.07346
1.07336
1.07651
1.07481
1.06315
1.04926
1.04163
1.0392
1.03735
1.03554
1.03531
1.03723
1.04059
1.04256
1.04275
1.04107
1.03866
1.03649
1.03637
1.03698
1.03793
1.03825
1.03707
1.03317
1.02725
1.02114
1.01654
1.0129
1.00952
1.00667
1.00505
1.00427
1.00463
1.00615
1.00829
1.01094
1.01519
1.02336
1.03114
1.03892
1.04783
1.05604
1.06806
1.08597
1.10975
1.12495
1.15014
1.16961
1.1795
1.23822
1.29584
1.3135
1.33613
1.35419
0.379086
0.379379
0.379499
0.379522
0.379516
0.379378
0.378943
0.378131
0.377667
0.377572
0.377548
0.415692
0.574611
0.822668
1.03241
1.08773
1.14498
1.16083
1.16029
1.15989
1.15513
1.14941
1.14531
1.13369
1.11432
1.09402
1.08305
1.08324
1.08652
1.08303
1.07141
1.05552
1.04373
1.04039
1.03759
1.03629
1.03591
1.03787
1.04095
1.04294
1.04233
1.04066
1.03822
1.0362
1.03618
1.03689
1.03708
1.03718
1.03539
1.0317
1.02626
1.01996
1.01453
1.01061
1.00755
1.00521
1.00282
1.00109
1.00012
0.999127
0.999207
0.999318
1.00203
1.00818
1.01534
1.02247
1.02995
1.03923
1.05503
1.07665
1.10203
1.11922
1.13353
1.16143
1.17361
1.23175
1.29119
1.31225
1.33666
1.35388
0.379264
0.379327
0.37931
0.379283
0.379197
0.379017
0.378622
0.378014
0.377633
0.377419
0.37741
0.37742
0.377056
0.415656
0.561546
0.812881
1.05482
1.13744
1.15771
1.16433
1.1572
1.15825
1.15592
1.14421
1.12418
1.10358
1.09262
1.09272
1.09532
1.09345
1.08527
1.06875
1.05092
1.0416
1.03877
1.03862
1.03906
1.04063
1.04236
1.04317
1.04275
1.04194
1.04047
1.0388
1.03856
1.0388
1.03847
1.03776
1.03584
1.03214
1.02658
1.02016
1.01418
1.00979
1.00691
1.00522
1.00342
1.00168
1.00005
0.997736
0.995891
0.994026
0.995127
0.99986
1.00715
1.01441
1.02303
1.03379
1.05205
1.07752
1.10436
1.12235
1.12835
1.15186
1.16984
1.22553
1.28562
1.31097
1.33712
1.35344
0.37898
0.379023
0.379034
0.379006
0.378885
0.3787
0.378378
0.377889
0.377478
0.377316
0.377323
0.377311
0.377115
0.376725
0.376316
0.408914
0.559038
0.830911
1.04886
1.14089
1.15355
1.16861
1.1683
1.15667
1.13531
1.11244
1.10275
1.10323
1.1062
1.10619
1.09919
1.07898
1.05584
1.04356
1.04007
1.04051
1.04256
1.04499
1.04544
1.04452
1.04416
1.04412
1.04363
1.04242
1.04159
1.04121
1.04062
1.03953
1.03768
1.03395
1.02828
1.02173
1.01511
1.0108
1.00841
1.00702
1.00512
1.00299
1.00035
0.997196
0.994262
0.992228
0.993792
0.998095
1.00469
1.01137
1.02
1.03349
1.05515
1.08286
1.11072
1.12442
1.13165
1.14795
1.16855
1.21934
1.27861
1.30889
1.33729
1.35283
0.378736
0.378697
0.378703
0.37868
0.378554
0.378389
0.378193
0.377849
0.377454
0.377243
0.377236
0.377243
0.37712
0.376735
0.376432
0.376283
0.37608
0.419137
0.598289
0.898889
1.06735
1.16498
1.16836
1.16749
1.14802
1.11921
1.11194
1.11363
1.11718
1.11688
1.10791
1.08466
1.05888
1.04624
1.04417
1.04569
1.04844
1.04992
1.0486
1.04697
1.04684
1.04792
1.04839
1.04751
1.04632
1.04568
1.04477
1.04308
1.04038
1.03649
1.0309
1.02413
1.01753
1.01323
1.01032
1.0085
1.00733
1.00492
1.00175
0.997442
0.992846
0.991609
0.993712
0.998578
1.00456
1.01092
1.02052
1.03517
1.06284
1.10477
1.13704
1.14741
1.14545
1.15082
1.16838
1.21406
1.27052
1.30606
1.3373
1.35211
0.378322
0.378258
0.378296
0.378322
0.378245
0.378138
0.378066
0.377858
0.377462
0.377213
0.37719
0.377202
0.37721
0.376975
0.376574
0.376219
0.376098
0.375967
0.375572
0.437144
0.689122
0.981513
1.11061
1.16016
1.15204
1.12623
1.11974
1.12247
1.12546
1.12533
1.11456
1.08685
1.06131
1.04916
1.04956
1.0512
1.05246
1.05286
1.05182
1.05075
1.05057
1.05111
1.05088
1.05001
1.049
1.04861
1.04796
1.04648
1.04404
1.04019
1.03433
1.02676
1.01994
1.01604
1.0142
1.01191
1.00957
1.00697
1.00311
0.998634
0.994724
0.9924
0.994398
0.999526
1.00519
1.01136
1.02307
1.04702
1.08456
1.13328
1.16401
1.1713
1.16053
1.15839
1.16971
1.21048
1.26087
1.30314
1.3372
1.35134
0.378007
0.377946
0.378022
0.378062
0.37804
0.378006
0.378004
0.377887
0.377506
0.377206
0.377181
0.377248
0.377263
0.377081
0.376646
0.37625
0.376079
0.375968
0.375798
0.375353
0.37967
0.484873
0.783873
1.08904
1.14315
1.1259
1.12779
1.13147
1.13161
1.13059
1.11563
1.08687
1.06349
1.05481
1.0555
1.05547
1.05438
1.0535
1.05353
1.05395
1.05363
1.05253
1.0512
1.05044
1.0503
1.05052
1.05045
1.04944
1.04734
1.04353
1.03699
1.0292
1.02291
1.01933
1.01695
1.01417
1.01143
1.00835
1.0046
1.00053
0.996384
0.992888
0.99495
1.00015
1.00521
1.01519
1.03475
1.06408
1.10746
1.15908
1.18633
1.19358
1.18477
1.17126
1.17366
1.21011
1.25328
1.30165
1.33693
1.35047
0.377836
0.377789
0.377895
0.377931
0.377942
0.377949
0.37797
0.377868
0.3775
0.377261
0.377274
0.377292
0.377249
0.37709
0.37678
0.376415
0.376162
0.375967
0.375793
0.3755
0.375094
0.374598
0.402546
0.61943
0.928513
1.08844
1.13757
1.14128
1.13796
1.13336
1.11402
1.08554
1.06753
1.06064
1.0596
1.05791
1.05501
1.05347
1.05457
1.05622
1.05569
1.05344
1.05073
1.04931
1.04987
1.05038
1.05138
1.05131
1.04963
1.0456
1.03846
1.03089
1.0252
1.02166
1.01863
1.01523
1.01175
1.00844
1.00529
1.00205
0.997204
0.995686
0.997624
1.00198
1.00806
1.02145
1.04778
1.08529
1.12975
1.17359
1.19748
1.20872
1.20219
1.18239
1.1787
1.20999
1.24933
1.30081
1.33614
1.34937
0.377999
0.377878
0.377844
0.377845
0.377877
0.377923
0.377944
0.377889
0.377626
0.377351
0.377256
0.377258
0.377246
0.377118
0.376804
0.376448
0.376207
0.376057
0.375883
0.375534
0.375102
0.374772
0.374321
0.374242
0.493542
0.839617
1.09081
1.13935
1.1416
1.13598
1.11459
1.08927
1.07457
1.06437
1.05924
1.05503
1.05231
1.05277
1.0554
1.05656
1.0554
1.05179
1.04829
1.04745
1.04837
1.04973
1.05107
1.05184
1.05063
1.04655
1.03937
1.03168
1.02716
1.02369
1.01979
1.01561
1.01087
1.0076
1.00535
1.00357
1.00094
0.99874
1.00025
1.00343
1.01236
1.03366
1.0657
1.10395
1.14563
1.18391
1.20612
1.21849
1.21967
1.19978
1.19015
1.21262
1.24802
1.30081
1.33482
1.34796
0.378209
0.377873
0.377796
0.377834
0.37789
0.377994
0.378078
0.378068
0.377794
0.377357
0.37727
0.377322
0.377376
0.377305
0.376936
0.376426
0.376156
0.376077
0.375964
0.375709
0.375347
0.374921
0.374609
0.374177
0.373603
0.4283
0.72321
1.03055
1.13704
1.13651
1.1245
1.10423
1.07915
1.06306
1.05398
1.05026
1.05055
1.05256
1.05602
1.0558
1.05345
1.04945
1.04696
1.04655
1.04783
1.04927
1.05075
1.05152
1.05026
1.04586
1.03846
1.03173
1.02832
1.02502
1.02017
1.01445
1.00961
1.00699
1.00561
1.00461
1.0023
1.00054
1.00192
1.00649
1.02026
1.04767
1.08396
1.12107
1.15986
1.18762
1.20648
1.22214
1.22716
1.21078
1.19901
1.21119
1.25168
1.30314
1.33346
1.34633
0.378288
0.377856
0.377774
0.377885
0.378078
0.378259
0.378291
0.378203
0.377828
0.377423
0.377361
0.377413
0.377437
0.377353
0.376983
0.376506
0.37622
0.376081
0.37592
0.375674
0.375353
0.37509
0.374826
0.374411
0.373892
0.373282
0.390842
0.607249
0.958894
1.1257
1.13037
1.11624
1.08304
1.05752
1.04983
1.04798
1.05033
1.05418
1.0552
1.05393
1.05039
1.04749
1.04681
1.04832
1.0497
1.05013
1.05061
1.05088
1.04942
1.04448
1.03649
1.03132
1.02829
1.02488
1.01984
1.01366
1.00934
1.00713
1.00571
1.00445
1.00204
1.00112
1.00253
1.01047
1.03144
1.06405
1.10009
1.13221
1.16381
1.18481
1.20299
1.22285
1.23068
1.22547
1.21973
1.22448
1.25967
1.30698
1.33271
1.34492
0.378362
0.37792
0.377819
0.377905
0.378128
0.37837
0.378423
0.378383
0.378002
0.377482
0.377339
0.377363
0.377381
0.377288
0.376877
0.376528
0.376426
0.376375
0.376207
0.375801
0.37535
0.375105
0.374884
0.374608
0.374022
0.373569
0.373113
0.373066
0.495523
0.841465
1.08018
1.10884
1.07928
1.05329
1.04834
1.04853
1.05151
1.05406
1.05351
1.0516
1.04798
1.04776
1.04899
1.0508
1.05078
1.0503
1.05042
1.05032
1.04826
1.04226
1.03422
1.03067
1.02772
1.0241
1.01934
1.01396
1.00995
1.0073
1.00478
1.0028
1.00102
1.00032
1.00353
1.01697
1.04399
1.07912
1.11184
1.1391
1.16429
1.18264
1.2013
1.22281
1.23488
1.23503
1.2355
1.23612
1.26537
1.30886
1.33368
1.34381
0.378437
0.378048
0.377923
0.377988
0.37818
0.378448
0.378521
0.378473
0.378075
0.377474
0.37733
0.37736
0.377377
0.377272
0.376854
0.376502
0.37647
0.376466
0.376322
0.375931
0.375511
0.375178
0.374989
0.374668
0.374122
0.37362
0.373302
0.373136
0.37236
0.426615
0.708742
1.00257
1.0346
1.05482
1.05297
1.05049
1.05169
1.05074
1.05113
1.04934
1.04711
1.0478
1.0505
1.05152
1.05055
1.05005
1.05034
1.04958
1.04664
1.04044
1.03345
1.02994
1.02655
1.02234
1.01827
1.01399
1.01
1.00587
1.00241
1.00004
0.997998
0.998644
1.00566
1.02593
1.0575
1.09167
1.11968
1.14594
1.16798
1.18432
1.20193
1.22325
1.23802
1.24508
1.25129
1.25708
1.28165
1.31742
1.33559
1.34285
0.378514
0.378167
0.377972
0.378044
0.378319
0.378603
0.378651
0.378579
0.378128
0.377554
0.377431
0.377468
0.377481
0.377364
0.376998
0.376697
0.376608
0.376543
0.376338
0.375911
0.375524
0.375353
0.375177
0.374771
0.374171
0.373601
0.373425
0.373263
0.37304
0.371303
0.382913
0.573616
0.876603
1.04526
1.04213
1.0477
1.04615
1.04356
1.04989
1.04819
1.0468
1.04783
1.05081
1.05046
1.0491
1.04949
1.04977
1.04861
1.04502
1.03953
1.03356
1.02893
1.02397
1.01958
1.01635
1.01321
1.00863
1.00336
0.999761
0.996938
0.995834
0.998833
1.01191
1.0371
1.06873
1.09984
1.12602
1.15193
1.17198
1.18634
1.203
1.22344
1.23979
1.25042
1.26254
1.27208
1.29374
1.32565
1.33688
1.34201
0.378627
0.378317
0.378136
0.378187
0.378397
0.378625
0.378677
0.378604
0.378194
0.377788
0.37773
0.377775
0.377778
0.377593
0.377128
0.376847
0.376842
0.376834
0.376638
0.376158
0.375768
0.375598
0.375427
0.375093
0.374476
0.373871
0.373569
0.373415
0.373175
0.372456
0.370472
0.362184
0.459082
0.772569
0.941683
1.03539
1.03022
1.03889
1.0522
1.04831
1.04301
1.04421
1.04587
1.04568
1.04692
1.04842
1.04855
1.04685
1.04351
1.03893
1.03381
1.02789
1.02149
1.01705
1.01453
1.01149
1.00577
1.00068
0.997072
0.994883
0.995255
1.00316
1.02222
1.04984
1.08033
1.10616
1.12872
1.15256
1.17175
1.1862
1.20314
1.2232
1.23956
1.25113
1.26516
1.28027
1.30736
1.3312
1.33726
1.34093
0.378756
0.378281
0.378066
0.378184
0.378449
0.378547
0.378566
0.378458
0.378054
0.377788
0.377793
0.377858
0.377878
0.377743
0.377264
0.376914
0.376919
0.376939
0.376833
0.376474
0.376096
0.375871
0.375692
0.37534
0.374714
0.374098
0.373766
0.373652
0.37344
0.372777
0.370855
0.366027
0.351923
0.384376
0.63635
0.936352
1.00282
1.04833
1.05929
1.04513
1.03814
1.03856
1.03819
1.04111
1.04587
1.04771
1.04708
1.04513
1.04238
1.03837
1.03344
1.02654
1.01906
1.01489
1.01251
1.00837
1.00217
0.997564
0.995039
0.994369
1.00056
1.01393
1.03576
1.06148
1.08673
1.10854
1.12964
1.15236
1.17104
1.18576
1.20299
1.22281
1.23982
1.25334
1.26907
1.28771
1.31442
1.33279
1.33611
1.3394
0.378922
0.378311
0.378107
0.378197
0.378431
0.378502
0.378498
0.378319
0.377984
0.377851
0.377898
0.377951
0.37794
0.377779
0.377425
0.377263
0.377252
0.377212
0.376967
0.376543
0.376195
0.376011
0.37584
0.375492
0.374884
0.374315
0.374094
0.373983
0.373771
0.373145
0.371305
0.366483
0.356525
0.33975
0.342093
0.497104
0.811567
1.01572
1.05061
1.03266
1.03759
1.03526
1.03463
1.04008
1.04689
1.04755
1.04616
1.04432
1.04162
1.03761
1.03195
1.02433
1.01669
1.01305
1.0095
1.00415
0.998361
0.995148
0.99449
1.00042
1.01175
1.02884
1.05084
1.07233
1.09126
1.1112
1.13319
1.15495
1.1718
1.18599
1.20327
1.2229
1.24076
1.25621
1.27279
1.2934
1.31699
1.33202
1.33428
1.33784
0.37881
0.378259
0.378197
0.378284
0.378399
0.378427
0.378367
0.378149
0.378108
0.378195
0.378293
0.378334
0.37828
0.37788
0.377388
0.377318
0.377346
0.377343
0.377143
0.376661
0.376307
0.376165
0.376044
0.375743
0.375115
0.374521
0.374302
0.374238
0.374073
0.373486
0.371744
0.367152
0.357202
0.342916
0.33255
0.329924
0.412212
0.700688
0.959984
1.01913
1.04998
1.0392
1.03817
1.04638
1.04991
1.04776
1.04605
1.04415
1.04086
1.03588
1.0297
1.02133
1.01521
1.01081
1.0058
0.999491
0.995828
0.994153
0.999665
1.01116
1.02648
1.04386
1.06185
1.07892
1.09558
1.11594
1.13876
1.1588
1.17336
1.18715
1.20429
1.22323
1.24098
1.25689
1.27301
1.29463
1.31668
1.32974
1.33218
1.33628
0.37871
0.37828
0.378238
0.378287
0.378327
0.378316
0.37822
0.378028
0.378042
0.378177
0.378318
0.378377
0.37835
0.378024
0.37755
0.377367
0.37733
0.377295
0.377199
0.376955
0.376738
0.376609
0.376449
0.376121
0.375498
0.37479
0.374489
0.374432
0.374313
0.37379
0.372124
0.367686
0.358025
0.343673
0.332899
0.330031
0.329836
0.355864
0.593814
0.916849
1.04293
1.03416
1.04602
1.05248
1.0513
1.04767
1.0465
1.04493
1.03929
1.03334
1.02694
1.01983
1.01451
1.0085
1.00165
0.996944
0.994553
0.99854
1.00815
1.0231
1.04055
1.05759
1.0716
1.08392
1.09957
1.12135
1.14353
1.16106
1.17433
1.18816
1.20488
1.22291
1.24002
1.25603
1.2723
1.29415
1.31475
1.32652
1.32968
1.3346
0.378649
0.378475
0.378423
0.378418
0.378413
0.378315
0.378105
0.378058
0.378148
0.37826
0.378331
0.378351
0.378252
0.377912
0.377842
0.377859
0.377829
0.377609
0.377245
0.376975
0.376842
0.37677
0.376651
0.37637
0.375847
0.375188
0.374772
0.374642
0.374529
0.374049
0.37245
0.368158
0.358756
0.344393
0.333164
0.330044
0.329853
0.32986
0.330182
0.499498
0.843011
0.980075
1.05053
1.05516
1.04939
1.04692
1.04911
1.04537
1.03671
1.0311
1.02557
1.01917
1.01293
1.00592
0.999462
0.996003
0.998949
1.00671
1.01913
1.03551
1.05077
1.06446
1.07658
1.08865
1.10649
1.12828
1.14752
1.16262
1.17513
1.18864
1.20462
1.22197
1.23866
1.25474
1.27137
1.29368
1.31217
1.32344
1.32751
1.33316
0.378625
0.378528
0.378527
0.378537
0.378517
0.37839
0.378084
0.377967
0.378092
0.378341
0.378424
0.378435
0.378262
0.377862
0.377795
0.377921
0.377997
0.377929
0.377564
0.377136
0.376914
0.376779
0.376627
0.376391
0.37605
0.375606
0.375258
0.37506
0.374853
0.374318
0.372725
0.368563
0.359378
0.345057
0.33339
0.329987
0.329774
0.329805
0.329849
0.329853
0.429666
0.753575
1.00734
1.03275
1.04352
1.05054
1.05141
1.04477
1.03394
1.02991
1.02551
1.01951
1.01302
1.00444
0.999317
1.00108
1.00784
1.01668
1.02798
1.0426
1.05781
1.06979
1.08063
1.09423
1.11406
1.13372
1.14965
1.16341
1.17579
1.18873
1.20385
1.22082
1.23767
1.25416
1.27117
1.29337
1.30963
1.32026
1.32492
1.33142
0.378713
0.37869
0.378672
0.378641
0.378511
0.378338
0.378262
0.378245
0.378313
0.37838
0.37842
0.378416
0.378273
0.377963
0.37783
0.377922
0.377998
0.377997
0.377857
0.377705
0.377611
0.37739
0.376923
0.376399
0.375986
0.375706
0.37549
0.375341
0.375155
0.374606
0.373005
0.368913
0.359941
0.345736
0.333604
0.329706
0.329436
0.329477
0.329515
0.329518
0.3295
0.382454
0.675242
0.917642
1.03992
1.05624
1.05282
1.03734
1.03266
1.0313
1.02639
1.01956
1.01187
1.00424
1.00401
1.01087
1.01908
1.02745
1.03806
1.04838
1.06126
1.07515
1.08786
1.10252
1.11981
1.1361
1.15107
1.16444
1.17656
1.18876
1.2031
1.21997
1.23728
1.25424
1.2714
1.29285
1.30747
1.31744
1.32199
1.32902
0.378672
0.378704
0.378758
0.378758
0.378639
0.378462
0.378488
0.378543
0.378582
0.378588
0.378584
0.378474
0.378317
0.378336
0.37838
0.378396
0.378351
0.378083
0.377855
0.377868
0.37791
0.377832
0.377455
0.376906
0.376417
0.376026
0.375745
0.375552
0.375365
0.374858
0.373271
0.369233
0.36048
0.346395
0.333866
0.329449
0.329062
0.329105
0.329126
0.329112
0.329059
0.328917
0.342477
0.595875
0.927347
1.0342
1.04661
1.02815
1.03336
1.03243
1.02691
1.0184
1.0104
1.00647
1.01259
1.02146
1.02726
1.03452
1.04335
1.05253
1.06464
1.08052
1.09539
1.10903
1.1226
1.13596
1.15067
1.16497
1.17723
1.18891
1.2028
1.21941
1.23707
1.25457
1.27167
1.29194
1.3054
1.31556
1.32039
1.32746
0.378773
0.378822
0.37885
0.378859
0.37886
0.378841
0.378818
0.378757
0.378704
0.3787
0.378646
0.378419
0.378286
0.378427
0.378589
0.378669
0.378654
0.37839
0.377982
0.377891
0.377917
0.377885
0.377631
0.377261
0.376958
0.376697
0.376416
0.376072
0.375662
0.375038
0.373462
0.369488
0.360924
0.34709
0.334279
0.32941
0.32888
0.328889
0.328884
0.328853
0.32881
0.328744
0.328528
0.330086
0.491533
0.838367
1.00944
1.02562
1.04224
1.03578
1.02461
1.01627
1.01032
1.01236
1.02458
1.03119
1.03559
1.04199
1.04731
1.05596
1.07116
1.08895
1.10192
1.11121
1.12117
1.13396
1.14939
1.16448
1.17695
1.18887
1.20278
1.21893
1.23653
1.25456
1.27172
1.29072
1.30319
1.31302
1.318
1.32559
0.378861
0.378983
0.379021
0.378988
0.378954
0.378969
0.378966
0.378917
0.378893
0.378873
0.378763
0.378493
0.378357
0.37844
0.378657
0.37878
0.378759
0.378547
0.378399
0.378355
0.378285
0.378077
0.377695
0.377288
0.377003
0.376846
0.376758
0.376623
0.376291
0.375524
0.373738
0.369663
0.361207
0.347843
0.334935
0.329479
0.328846
0.328821
0.328785
0.328739
0.328734
0.328727
0.328794
0.328639
0.327619
0.454503
0.829114
1.00669
1.04221
1.0299
1.02164
1.01318
1.01272
1.02336
1.03474
1.03492
1.03991
1.04968
1.05573
1.06504
1.08126
1.09588
1.10565
1.11188
1.11913
1.13224
1.1493
1.16435
1.17638
1.18876
1.20282
1.21844
1.23545
1.25367
1.27105
1.28901
1.30086
1.31029
1.31528
1.32331
0.378958
0.379129
0.379182
0.379199
0.379234
0.379195
0.379025
0.378943
0.378972
0.378991
0.378926
0.378883
0.378949
0.379043
0.379061
0.379019
0.378752
0.378518
0.378603
0.378743
0.378784
0.378706
0.378364
0.377783
0.377218
0.376918
0.376879
0.37689
0.376718
0.376033
0.374135
0.369831
0.361295
0.348547
0.335921
0.329779
0.328932
0.328899
0.328853
0.328862
0.329001
0.329081
0.329
0.328569
0.327552
0.324785
0.416012
0.76463
1.00435
0.996594
1.02187
1.0124
1.0187
1.03894
1.04272
1.03845
1.04382
1.05678
1.06576
1.07736
1.09136
1.09913
1.10539
1.11075
1.11842
1.13339
1.15056
1.16405
1.1755
1.18834
1.20243
1.21758
1.23391
1.25187
1.26943
1.28682
1.29817
1.3076
1.31319
1.32183
0.379054
0.379264
0.379385
0.379454
0.379477
0.379417
0.379308
0.379267
0.379214
0.379063
0.378899
0.37892
0.379084
0.379218
0.379256
0.379214
0.378925
0.378572
0.378581
0.378761
0.378871
0.378915
0.378821
0.378441
0.377983
0.377664
0.377425
0.3772
0.376909
0.376229
0.3743
0.369817
0.361228
0.348998
0.337149
0.33063
0.329368
0.329352
0.329294
0.329312
0.329355
0.329245
0.328893
0.327606
0.325562
0.323365
0.322483
0.395769
0.755703
0.944005
1.04138
1.02089
1.03484
1.04866
1.04161
1.0429
1.0547
1.06798
1.07743
1.08899
1.09745
1.10142
1.10468
1.10957
1.1202
1.13776
1.15261
1.16345
1.1746
1.18757
1.20136
1.21614
1.23209
1.24961
1.26703
1.28427
1.29534
1.30418
1.3097
1.31917
0.379144
0.379374
0.379515
0.379564
0.379533
0.379396
0.37944
0.379519
0.379518
0.379384
0.379239
0.379127
0.379205
0.379317
0.379314
0.379226
0.379076
0.378945
0.378963
0.379028
0.379025
0.379016
0.378979
0.378708
0.378381
0.378337
0.378291
0.378102
0.37764
0.3767
0.374572
0.369813
0.360969
0.349063
0.338229
0.331882
0.329878
0.329736
0.329654
0.329552
0.329451
0.329119
0.32805
0.326061
0.323604
0.322244
0.32227
0.322386
0.371064
0.699275
0.977766
1.00707
1.05346
1.05344
1.03895
1.04825
1.06678
1.07635
1.08693
1.09573
1.09607
1.09921
1.10451
1.11319
1.12793
1.1442
1.15416
1.16327
1.17434
1.18669
1.19977
1.21425
1.23027
1.24745
1.26418
1.28104
1.29256
1.3013
1.30647
1.31621
0.379306
0.379526
0.379638
0.379665
0.379635
0.379545
0.379613
0.37968
0.379658
0.37964
0.379733
0.379841
0.379901
0.379907
0.379839
0.379609
0.379317
0.379239
0.379369
0.379504
0.379549
0.379544
0.379382
0.378988
0.37879
0.378895
0.378987
0.379
0.378754
0.377776
0.375315
0.369864
0.360479
0.348831
0.338869
0.332948
0.330322
0.329833
0.329722
0.329579
0.329288
0.32818
0.326216
0.323815
0.322106
0.322082
0.3223
0.323367
0.325172
0.361311
0.604294
0.907271
1.03456
1.05451
1.03976
1.06511
1.07578
1.07794
1.08787
1.09346
1.09164
1.0966
1.10779
1.12116
1.13697
1.14711
1.15392
1.16326
1.17425
1.18548
1.1978
1.21212
1.22855
1.24595
1.26184
1.27763
1.28912
1.29871
1.30486
1.31474
0.379529
0.379555
0.379689
0.379731
0.379743
0.379866
0.379962
0.37998
0.379888
0.379767
0.3798
0.379938
0.380015
0.380034
0.379996
0.379841
0.379675
0.379443
0.37942
0.379565
0.379673
0.379718
0.379583
0.379338
0.379327
0.379412
0.379447
0.379458
0.379289
0.378312
0.3757
0.369705
0.359712
0.348302
0.339083
0.333619
0.330757
0.329825
0.329669
0.329219
0.328037
0.326199
0.323702
0.322213
0.321881
0.322085
0.323143
0.326319
0.330878
0.336245
0.34243
0.538434
0.832433
1.02006
1.04257
1.09322
1.081
1.07696
1.08541
1.0865
1.08943
1.09952
1.1144
1.12601
1.13902
1.14498
1.15268
1.16365
1.17401
1.1839
1.19569
1.21007
1.22681
1.24445
1.26012
1.27469
1.2853
1.29495
1.30173
1.31259
0.379812
0.379798
0.379893
0.379981
0.380073
0.38019
0.380267
0.380316
0.380328
0.380222
0.380163
0.380175
0.380122
0.380056
0.379982
0.379943
0.380092
0.380207
0.380171
0.379988
0.379854
0.379795
0.379673
0.379599
0.379805
0.379912
0.379911
0.37992
0.37977
0.378791
0.375919
0.369355
0.358777
0.347536
0.339077
0.334077
0.331132
0.329642
0.328567
0.327311
0.325758
0.323754
0.322079
0.321891
0.32197
0.322891
0.324768
0.328461
0.334948
0.341999
0.350431
0.356154
0.445673
0.72715
0.985576
1.07196
1.06318
1.06309
1.08273
1.08111
1.08888
1.11055
1.12027
1.12667
1.13601
1.14142
1.15223
1.16438
1.17276
1.18194
1.1937
1.20824
1.22472
1.24211
1.25801
1.27221
1.2819
1.29103
1.29785
1.30953
0.379892
0.379911
0.379873
0.379936
0.380118
0.380302
0.38046
0.380562
0.380571
0.380566
0.380651
0.380699
0.380633
0.380466
0.38036
0.3803
0.38036
0.380516
0.380532
0.380519
0.380547
0.380581
0.380454
0.380185
0.380271
0.380378
0.38047
0.380564
0.380454
0.379461
0.376186
0.368889
0.357724
0.346663
0.339089
0.334433
0.331115
0.328329
0.326457
0.325142
0.323588
0.322139
0.321777
0.321916
0.323107
0.325496
0.329076
0.332825
0.338973
0.347161
0.355044
0.363948
0.370581
0.398611
0.606478
0.873539
1.00486
1.04734
1.09039
1.0828
1.10387
1.12447
1.11919
1.12278
1.12678
1.13562
1.15224
1.16372
1.17045
1.18003
1.19196
1.20636
1.22206
1.23876
1.25454
1.26897
1.27907
1.28801
1.29458
1.30658
0.380054
0.380074
0.380032
0.380012
0.380162
0.380298
0.380378
0.380481
0.380517
0.38057
0.380706
0.38087
0.380998
0.38109
0.381129
0.381074
0.380867
0.380714
0.38056
0.380496
0.38063
0.380768
0.38074
0.380406
0.380433
0.380593
0.380765
0.380902
0.380842
0.379902
0.37629
0.36828
0.356517
0.345877
0.339215
0.334424
0.330356
0.327154
0.324854
0.323262
0.322175
0.321838
0.322242
0.323213
0.325072
0.327855
0.33306
0.339449
0.345725
0.353233
0.361052
0.36958
0.378465
0.386767
0.393143
0.481524
0.755167
0.983712
1.07694
1.08463
1.12296
1.12933
1.11447
1.11657
1.11884
1.13045
1.15412
1.16097
1.16749
1.17837
1.19005
1.20382
1.21864
1.23429
1.24963
1.26418
1.275
1.28478
1.29185
1.30421
0.380317
0.380377
0.380487
0.38063
0.380794
0.38083
0.380785
0.380817
0.380851
0.380798
0.380725
0.380805
0.380995
0.38129
0.381537
0.381624
0.381646
0.381577
0.381236
0.380953
0.381038
0.381165
0.381169
0.380881
0.380863
0.381096
0.381238
0.381321
0.381318
0.380469
0.376524
0.367612
0.355205
0.345303
0.338979
0.33434
0.330001
0.32619
0.323331
0.322018
0.321969
0.322519
0.323778
0.325542
0.328005
0.330578
0.335243
0.34345
0.351895
0.360131
0.36878
0.376275
0.384705
0.393274
0.401937
0.409312
0.43835
0.603618
0.837599
1.03025
1.10318
1.11405
1.0931
1.11398
1.11904
1.13457
1.15633
1.15737
1.16346
1.17469
1.18748
1.20068
1.21502
1.22989
1.2445
1.25876
1.26996
1.28025
1.28799
1.30144
0.380329
0.380436
0.380601
0.380799
0.381021
0.381267
0.38144
0.381516
0.381549
0.381574
0.381511
0.381358
0.381217
0.381263
0.381556
0.381818
0.381959
0.38201
0.381901
0.381905
0.38208
0.382177
0.382159
0.381868
0.381799
0.381928
0.382064
0.382136
0.38215
0.381178
0.376709
0.366635
0.35399
0.344308
0.338624
0.334277
0.329516
0.324922
0.322498
0.322333
0.322887
0.324004
0.325209
0.327322
0.331433
0.337396
0.342825
0.3494
0.357811
0.365899
0.374428
0.382933
0.390642
0.399345
0.408351
0.417054
0.426561
0.434604
0.492207
0.690868
0.896281
1.03106
1.08134
1.13381
1.13198
1.14924
1.15446
1.15311
1.16639
1.17574
1.18387
1.19617
1.21157
1.22737
1.24099
1.25426
1.26543
1.27588
1.2837
1.29791
0.380515
0.380609
0.38074
0.380913
0.381071
0.381225
0.381488
0.381733
0.381808
0.381908
0.382144
0.382299
0.382292
0.382102
0.382141
0.382328
0.38236
0.382291
0.382105
0.382143
0.38234
0.382436
0.382399
0.382087
0.382041
0.382153
0.382377
0.382501
0.382517
0.381406
0.376359
0.365422
0.352253
0.342822
0.337736
0.333341
0.32858
0.324481
0.323757
0.323852
0.324246
0.325161
0.326815
0.329566
0.334056
0.342141
0.350573
0.357807
0.365221
0.372851
0.380236
0.388614
0.397101
0.405295
0.41438
0.423667
0.432674
0.4428
0.453182
0.467061
0.552495
0.766387
1.00784
1.10637
1.12815
1.1585
1.14621
1.14975
1.16761
1.17347
1.17954
1.19081
1.20759
1.22447
1.23926
1.25139
1.26118
1.27168
1.28018
1.29502
0.380986
0.381286
0.381534
0.381622
0.38164
0.381569
0.38157
0.38174
0.381895
0.381991
0.382208
0.382534
0.382654
0.382681
0.382837
0.383
0.383048
0.383036
0.38282
0.382626
0.382804
0.383018
0.383029
0.382896
0.382887
0.383079
0.383424
0.383594
0.383363
0.381706
0.375421
0.363287
0.34985
0.341175
0.336494
0.332728
0.329064
0.326302
0.325312
0.325319
0.325156
0.325863
0.329838
0.336297
0.341808
0.347447
0.355975
0.364679
0.372396
0.380254
0.387709
0.395093
0.403334
0.411629
0.42032
0.429925
0.439835
0.450136
0.460681
0.471879
0.482685
0.508714
0.648438
0.861682
1.05066
1.14509
1.12292
1.14573
1.16553
1.16635
1.17547
1.18904
1.20345
1.21892
1.23388
1.24742
1.25721
1.26682
1.27548
1.29166
0.381378
0.381656
0.381862
0.381981
0.382159
0.382255
0.382291
0.38244
0.382527
0.382506
0.382467
0.382592
0.382733
0.382765
0.382851
0.383089
0.383291
0.383527
0.383817
0.384057
0.384248
0.38429
0.384185
0.384147
0.384311
0.384603
0.384877
0.384948
0.384551
0.381749
0.373492
0.359495
0.346992
0.339997
0.335969
0.332478
0.329564
0.327558
0.326183
0.3261
0.326584
0.329031
0.333738
0.341733
0.350616
0.357457
0.363586
0.370686
0.378174
0.38541
0.393421
0.401458
0.409546
0.418525
0.427342
0.436769
0.446813
0.456908
0.46828
0.479752
0.491545
0.504569
0.516756
0.575626
0.76084
0.994738
1.08038
1.1611
1.16369
1.15986
1.1711
1.18616
1.19777
1.21085
1.22463
1.23932
1.25186
1.26291
1.271
1.28762
0.381589
0.381844
0.381926
0.38195
0.382051
0.382264
0.382539
0.382898
0.383414
0.383632
0.383614
0.383583
0.38368
0.383672
0.383634
0.38381
0.383864
0.383865
0.384173
0.384696
0.384875
0.384885
0.38468
0.384549
0.384769
0.385259
0.385657
0.385666
0.384886
0.380359
0.36969
0.354639
0.343471
0.33819
0.335045
0.332345
0.329908
0.328247
0.326773
0.327182
0.330244
0.336172
0.342695
0.348199
0.356042
0.364271
0.37121
0.37748
0.384315
0.391872
0.399648
0.407954
0.416571
0.425248
0.4346
0.444129
0.454106
0.464689
0.475316
0.487029
0.499222
0.512441
0.525538
0.538935
0.563711
0.688156
0.948421
1.1232
1.13271
1.14769
1.17853
1.1824
1.1914
1.2035
1.21609
1.23001
1.24338
1.2566
1.26691
1.28467
0.382386
0.382531
0.382536
0.382477
0.382523
0.382636
0.382776
0.38302
0.383641
0.384042
0.384076
0.384122
0.384301
0.384665
0.384845
0.38498
0.385132
0.38513
0.385065
0.385346
0.38562
0.385668
0.385476
0.385205
0.38538
0.386134
0.3865
0.386255
0.384362
0.37793
0.36454
0.349038
0.339911
0.336221
0.334324
0.332453
0.329939
0.32908
0.330302
0.332681
0.336398
0.342169
0.350424
0.357961
0.36298
0.369208
0.376668
0.384208
0.391725
0.399239
0.406898
0.415025
0.423518
0.432516
0.442012
0.451596
0.461683