/*--------------------------------*- C++ -*----------------------------------*\
  =========                 |
  \\      /  F ield         | OpenFOAM: The Open Source CFD Toolbox
   \\    /   O peration     | Website:  https://openfoam.org
    \\  /    A nd           | Version:  7
     \\/     M anipulation  |
\*---------------------------------------------------------------------------*/
FoamFile
{
    version     2.0;
    format      ascii;
    class       volScalarField;
    location    "4";
    object      T;
}
// * * * * * * * * * * * * * * * * * * * * * * * * * * * * * * * * * * * * * //

dimensions      [0 0 0 1 0 0 0];

internalField   nonuniform List<scalar> 
90000
(
0.668868
0.830894
0.976767
1.02629
1.04055
1.09231
1.13552
1.14878
1.17624
1.2158
1.24526
1.27973
1.31269
1.34039
1.36658
1.38827
1.40883
1.42368
1.43433
1.44164
1.44123
1.43678
1.4294
1.41821
1.41012
1.40025
1.39145
1.38595
1.38353
1.3793
1.37757
1.37542
1.36967
1.35893
1.34494
1.33084
1.3182
1.30915
1.30114
1.30218
1.30586
1.3097
1.31442
1.31403
1.31152
1.30429
1.29319
1.2793
1.26775
1.25923
1.25374
1.25063
1.24857
1.24511
1.23989
1.2318
1.22087
1.2101
1.20182
1.19607
1.19353
1.19097
1.18871
1.18328
1.17486
1.16656
1.16106
1.15791
1.15618
1.15407
1.14842
1.14214
1.13653
1.13545
1.13644
1.13419
1.12915
1.12368
1.12274
1.12408
1.12527
1.12311
1.11976
1.12067
1.12406
1.12712
1.12987
1.1294
1.12945
1.13075
1.13312
1.13471
1.13892
1.14369
1.15074
1.15488
1.1589
1.17127
1.18974
1.23183
0.424503
0.424239
0.423947
0.423644
0.423329
0.423006
0.42266
0.422337
0.421789
0.424987
0.438502
0.475793
0.536079
0.624034
0.723989
0.841397
0.954664
1.07197
1.16995
1.25797
1.32826
1.38505
1.43086
1.46911
1.50308
1.52713
1.54732
1.55632
1.56185
1.55786
1.55083
1.53812
1.52655
1.51514
1.50812
1.49992
1.49704
1.49207
1.48744
1.48554
1.48042
1.47337
1.46603
1.45696
1.44625
1.43484
1.42641
1.4218
1.41739
1.41277
1.40546
1.3972
1.38638
1.37425
1.36025
1.34737
1.33672
1.32927
1.32226
1.31649
1.3089
1.30021
1.28815
1.27637
1.26574
1.25732
1.25059
1.2439
1.23557
1.2241
1.21313
1.20522
1.19969
1.19549
1.18747
1.17819
1.17049
1.16552
1.16381
1.16044
1.15425
1.15057
1.14958
1.1512
1.15298
1.15178
1.15049
1.15165
1.15377
1.15573
1.15698
1.15868
1.16248
1.16601
1.17254
1.18235
1.19462
1.2131
1.24011
1.29685
0.422506
0.422241
0.421954
0.421652
0.421335
0.421006
0.420664
0.420309
0.419953
0.419531
0.419015
0.418476
0.417946
0.417448
0.416979
0.41654
0.416118
0.415754
0.415226
0.416098
0.437527
0.507233
0.617498
0.765437
0.907138
1.05081
1.16616
1.26759
1.34352
1.40833
1.46258
1.50866
1.55286
1.58748
1.61715
1.63236
1.63873
1.63341
1.62492
1.60982
1.59243
1.57232
1.55352
1.53424
1.51698
1.51833
1.52448
1.53542
1.54797
1.54751
1.54213
1.52946
1.51062
1.49166
1.47676
1.46611
1.46667
1.46627
1.46248
1.45336
1.43921
1.42281
1.40813
1.39895
1.39165
1.3831
1.37192
1.35781
1.34313
1.33036
1.31912
1.30942
1.29985
1.28798
1.27531
1.26346
1.25344
1.24515
1.23739
1.22844
1.22045
1.21454
1.21115
1.20844
1.20429
1.2019
1.20269
1.20348
1.2035
1.20348
1.20367
1.20562
1.21034
1.21644
1.22574
1.2393
1.25524
1.27761
1.31195
1.37699
0.41949
0.419207
0.418909
0.418601
0.418287
0.417968
0.417647
0.417322
0.416997
0.416667
0.416341
0.416023
0.415715
0.415419
0.415132
0.414854
0.414585
0.414325
0.414084
0.413836
0.413552
0.413289
0.413047
0.41284
0.412638
0.412471
0.412207
0.414558
0.446173
0.54244
0.676404
0.853723
1.01457
1.16818
1.28259
1.38343
1.46178
1.52157
1.57166
1.5957
1.61401
1.61032
1.60382
1.59264
1.59554
1.59972
1.60173
1.60111
1.60213
1.60071
1.59618
1.5906
1.58667
1.58224
1.57703
1.572
1.56586
1.55987
1.55577
1.54942
1.54175
1.53278
1.52085
1.51141
1.50465
1.498
1.48863
1.47584
1.45972
1.44798
1.43858
1.42898
1.41606
1.40044
1.38551
1.37228
1.36054
1.35042
1.3395
1.32863
1.31798
1.30885
1.30257
1.29705
1.29322
1.28924
1.28625
1.2823
1.27949
1.27913
1.27937
1.28218
1.28732
1.29441
1.3047
1.31926
1.33589
1.36093
1.39881
1.45922
0.416552
0.416322
0.416087
0.415854
0.415622
0.415393
0.415166
0.414941
0.414721
0.414502
0.414289
0.414081
0.413881
0.413687
0.413504
0.413324
0.413156
0.412993
0.412838
0.412689
0.412559
0.412431
0.412306
0.412177
0.412051
0.411912
0.411772
0.411598
0.411387
0.411178
0.410982
0.410789
0.410619
0.4104
0.417633
0.495233
0.644248
0.857541
1.05783
1.23751
1.3745
1.47991
1.56831
1.62023
1.65922
1.65684
1.65124
1.64161
1.63135
1.61866
1.60591
1.60083
1.6067
1.61744
1.63194
1.63002
1.62284
1.61207
1.60027
1.59138
1.58883
1.59075
1.59204
1.5888
1.58037
1.57042
1.56179
1.55583
1.54998
1.54026
1.53232
1.52505
1.51516
1.50202
1.48834
1.47967
1.47072
1.45945
1.44801
1.43719
1.4269
1.41935
1.41299
1.40587
1.39891
1.3917
1.38809
1.38497
1.38221
1.3792
1.37617
1.37808
1.38195
1.38854
1.39877
1.41224
1.4286
1.45144
1.48703
1.53035
0.414283
0.414142
0.413999
0.41386
0.413721
0.413583
0.413446
0.413314
0.413185
0.413058
0.412935
0.412816
0.412695
0.412578
0.412464
0.412353
0.412247
0.412148
0.41205
0.411956
0.411867
0.411774
0.411673
0.411564
0.411447
0.411315
0.411176
0.411027
0.410878
0.410729
0.410575
0.410418
0.41026
0.41013
0.409994
0.409889
0.409808
0.409723
0.409642
0.409528
0.4772
0.68821
0.947958
1.19211
1.35291
1.44849
1.52642
1.56626
1.59874
1.60228
1.60854
1.61256
1.6199
1.63038
1.64192
1.64151
1.63765
1.62928
1.62007
1.61363
1.6093
1.61007
1.61493
1.61669
1.61437
1.6064
1.59774
1.591
1.59303
1.59294
1.58833
1.58016
1.5707
1.56295
1.55664
1.55165
1.54869
1.54289
1.53324
1.52553
1.51971
1.51344
1.50839
1.50244
1.49687
1.49186
1.48669
1.48126
1.47743
1.47522
1.47321
1.4734
1.47492
1.47877
1.48676
1.49821
1.51141
1.52903
1.55921
1.58127
0.412913
0.412833
0.41275
0.412664
0.412576
0.412487
0.412399
0.412317
0.412237
0.412156
0.412077
0.411997
0.411915
0.411834
0.411752
0.411667
0.411586
0.411515
0.411441
0.411367
0.41129
0.411204
0.41111
0.411009
0.410894
0.410771
0.410641
0.410509
0.410375
0.410241
0.410106
0.409972
0.409841
0.409741
0.409692
0.409665
0.409634
0.409589
0.409534
0.409476
0.409397
0.409317
0.409274
0.409245
0.457231
0.647931
0.891829
1.12254
1.28957
1.41875
1.52687
1.58553
1.621
1.62232
1.62685
1.63108
1.63185
1.62644
1.62133
1.6189
1.62042
1.62029
1.61891
1.61767
1.61582
1.61327
1.61023
1.6082
1.60889
1.60944
1.60808
1.60175
1.5954
1.59072
1.59189
1.59085
1.587
1.5828
1.57829
1.57384
1.57319
1.5719
1.56817
1.56505
1.5618
1.5599
1.55856
1.55461
1.54882
1.54444
1.54543
1.54798
1.54743
1.54829
1.55229
1.55816
1.56599
1.57703
1.60024
1.60788
0.412028
0.411972
0.411915
0.411856
0.411797
0.411737
0.411676
0.411615
0.411554
0.411492
0.411431
0.411366
0.411296
0.411227
0.411157
0.411084
0.411012
0.410947
0.410886
0.410823
0.410754
0.410674
0.410589
0.410492
0.410387
0.410279
0.410167
0.410056
0.409948
0.409845
0.409746
0.40965
0.409568
0.409531
0.409535
0.409535
0.409522
0.409497
0.409459
0.409404
0.409333
0.409265
0.409211
0.409166
0.409128
0.409096
0.40906
0.409009
0.445606
0.647086
0.916918
1.15903
1.32864
1.43294
1.51613
1.55889
1.59435
1.60335
1.6149
1.62479
1.62772
1.6231
1.61766
1.61358
1.61047
1.61076
1.61213
1.61596
1.61585
1.6135
1.60897
1.60323
1.59935
1.60003
1.60266
1.60287
1.60133
1.59872
1.59838
1.59895
1.59905
1.59979
1.59821
1.59709
1.59672
1.59549
1.59219
1.59202
1.59055
1.58747
1.58483
1.58525
1.58795
1.59122
1.59476
1.59786
1.60135
1.60757
1.62368
1.62307
0.41137
0.411327
0.411281
0.411232
0.411182
0.411132
0.411078
0.411022
0.410966
0.410911
0.410857
0.410799
0.410737
0.410674
0.410612
0.410551
0.41049
0.410432
0.410378
0.410323
0.410267
0.410207
0.410137
0.410058
0.409974
0.409891
0.409796
0.409708
0.409631
0.409558
0.409496
0.409444
0.409432
0.409441
0.409459
0.409458
0.409449
0.40943
0.409395
0.409339
0.409266
0.409182
0.409104
0.409064
0.409047
0.409044
0.409038
0.409011
0.409014
0.40906
0.409222
0.409333
0.488979
0.737077
0.986614
1.2012
1.36048
1.48123
1.56785
1.59645
1.60801
1.61199
1.61164
1.60777
1.60068
1.60368
1.61067
1.61498
1.61263
1.60884
1.60227
1.59901
1.60053
1.60577
1.60691
1.60549
1.60286
1.60101
1.60265
1.60617
1.60686
1.6066
1.60737
1.60791
1.60846
1.60954
1.60762
1.60587
1.60683
1.6075
1.60645
1.60474
1.6047
1.60649
1.60974
1.61342
1.61604
1.62036
1.6321
1.63032
0.410812
0.410777
0.410739
0.4107
0.410659
0.410611
0.410556
0.410498
0.410444
0.410393
0.410344
0.410297
0.410248
0.410196
0.410146
0.410101
0.410056
0.410007
0.40996
0.40992
0.409882
0.409838
0.409788
0.409735
0.409673
0.409599
0.40952
0.409457
0.409405
0.409361
0.409335
0.40934
0.409365
0.409393
0.409401
0.409398
0.409389
0.409366
0.409325
0.409266
0.409179
0.409075
0.409018
0.409017
0.409025
0.409035
0.409036
0.409052
0.409108
0.409246
0.40944
0.409559
0.409582
0.40958
0.409528
0.424814
0.574345
0.899893
1.16432
1.3394
1.47197
1.53778
1.5795
1.58103
1.58927
1.6014
1.61313
1.6111
1.60692
1.59737
1.59232
1.59474
1.60231
1.60673
1.60456
1.6017
1.60015
1.60196
1.60629
1.61036
1.60978
1.6082
1.60796
1.61008
1.61182
1.61169
1.61091
1.60967
1.60979
1.61076
1.61206
1.61217
1.61103
1.61169
1.61367
1.61609
1.61814
1.62236
1.63213
1.63205
0.410346
0.410315
0.41028
0.410244
0.410205
0.410151
0.410088
0.41003
0.409982
0.40994
0.409902
0.409865
0.409828
0.409788
0.409753
0.409725
0.409696
0.409662
0.40963
0.409606
0.409586
0.409565
0.409538
0.409502
0.409454
0.409399
0.409347
0.409303
0.40927
0.409259
0.409262
0.409289
0.409343
0.409354
0.40935
0.409338
0.409312
0.40927
0.409216
0.409151
0.409058
0.408992
0.408993
0.409003
0.409022
0.409062
0.409133
0.409214
0.409304
0.409428
0.409551
0.409599
0.409598
0.409579
0.409479
0.409287
0.409108
0.408894
0.408685
0.56709
0.865741
1.15051
1.36064
1.48772
1.57254
1.58856
1.59951
1.59952
1.58943
1.58406
1.58674
1.59525
1.6003
1.59948
1.5974
1.59589
1.5975
1.60179
1.6051
1.60614
1.60599
1.60567
1.60705
1.61035
1.61083
1.6107
1.61085
1.61109
1.61127
1.61056
1.61046
1.61131
1.61237
1.61363
1.61528
1.61697
1.61845
1.62262
1.63033
1.63152
0.409904
0.409879
0.409853
0.409821
0.409774
0.409705
0.409641
0.409597
0.409566
0.409542
0.409519
0.409497
0.409477
0.409457
0.409441
0.409431
0.40943
0.409427
0.40942
0.409418
0.409419
0.409415
0.409402
0.409379
0.409349
0.409313
0.409279
0.409246
0.40923
0.409229
0.409237
0.409279
0.409325
0.409321
0.409296
0.409246
0.409187
0.409135
0.409101
0.40905
0.408991
0.40898
0.408991
0.409042
0.409136
0.409262
0.409371
0.409425
0.409465
0.409523
0.409583
0.409581
0.409557
0.409467
0.409238
0.409035
0.408905
0.408766
0.408675
0.408655
0.408682
0.408831
0.574409
0.951629
1.22686
1.38815
1.50259
1.54431
1.56361
1.57419
1.59077
1.59972
1.59616
1.58893
1.58911
1.59041
1.59476
1.60037
1.6003
1.59919
1.60008
1.60207
1.60448
1.60672
1.60643
1.60606
1.60697
1.60836
1.60809
1.60681
1.60674
1.60849
1.61017
1.61131
1.61241
1.61323
1.61417
1.61787
1.62323
1.62776
0.409517
0.409499
0.409472
0.409431
0.409373
0.409327
0.409299
0.409284
0.409278
0.409276
0.409272
0.409272
0.409275
0.409282
0.409292
0.409304
0.409328
0.409356
0.409364
0.409368
0.409372
0.40937
0.409363
0.409348
0.409328
0.409304
0.409273
0.409244
0.409232
0.409232
0.409247
0.409275
0.409266
0.409233
0.409176
0.40911
0.409061
0.409045
0.409038
0.40901
0.408985
0.409007
0.409105
0.409263
0.409417
0.409529
0.409548
0.409529
0.409514
0.40953
0.409505
0.409445
0.409365
0.409209
0.408939
0.408802
0.408763
0.40872
0.408674
0.408661
0.408756
0.409189
0.409903
0.4102
0.427212
0.683487
1.01119
1.26763
1.46033
1.54897
1.58143
1.5838
1.58643
1.57968
1.58347
1.58618
1.58938
1.59234
1.59083
1.59062
1.59327
1.59525
1.59714
1.59744
1.59762
1.59802
1.59926
1.6007
1.60032
1.59879
1.5988
1.5998
1.60142
1.60228
1.60294
1.60294
1.60321
1.60587
1.61058
1.61868
0.409288
0.409265
0.409221
0.409172
0.409148
0.409147
0.409154
0.409165
0.409176
0.409187
0.409199
0.409215
0.409238
0.409262
0.409281
0.409302
0.409343
0.409375
0.409371
0.409367
0.409367
0.409364
0.409353
0.409346
0.409338
0.409321
0.40929
0.409254
0.409234
0.40922
0.409196
0.409162
0.409124
0.409081
0.409043
0.409011
0.409001
0.409013
0.409021
0.409037
0.409085
0.409198
0.409368
0.409522
0.409622
0.409626
0.409604
0.40955
0.409494
0.40942
0.409324
0.409223
0.409118
0.408945
0.40874
0.408683
0.408702
0.408714
0.408744
0.408845
0.409142
0.409727
0.410421
0.410734
0.410605
0.410089
0.409834
0.491107
0.836245
1.1606
1.38015
1.47574
1.5425
1.55053
1.57501
1.58004
1.57936
1.5761
1.57385
1.57547
1.58094
1.58174
1.58243
1.58142
1.58165
1.58249
1.5829
1.58384
1.58389
1.58274
1.58195
1.58216
1.58303
1.58365
1.58421
1.58379
1.58272
1.5841
1.58686
1.59894
0.409173
0.409148
0.409113
0.409106
0.409109
0.40912
0.409138
0.40916
0.409181
0.4092
0.409221
0.409254
0.409296
0.409319
0.409334
0.409357
0.409378
0.40938
0.409378
0.409374
0.409364
0.409339
0.409314
0.409303
0.409295
0.409278
0.409235
0.409167
0.409109
0.409056
0.409018
0.408992
0.408969
0.408974
0.408979
0.408982
0.408991
0.409013
0.409085
0.409218
0.409357
0.409496
0.409588
0.409642
0.409644
0.409638
0.409599
0.40946
0.409314
0.409239
0.409164
0.409063
0.408941
0.40878
0.408674
0.408667
0.40869
0.408808
0.409117
0.409627
0.410367
0.410755
0.410748
0.410771
0.410638
0.410476
0.411226
0.412672
0.413991
0.417556
0.642974
1.01045
1.2693
1.43734
1.50924
1.52918
1.54965
1.55353
1.5515
1.55145
1.55532
1.55535
1.55609
1.55509
1.55528
1.55561
1.55492
1.55531
1.55507
1.55397
1.55347
1.55315
1.55276
1.55188
1.55094
1.54945
1.54904
1.55055
1.55265
1.56839
0.40916
0.409161
0.40917
0.409185
0.409201
0.409221
0.409249
0.409282
0.409297
0.409303
0.409311
0.409335
0.409357
0.409371
0.409377
0.409378
0.409377
0.409369
0.409353
0.409332
0.409302
0.409263
0.409216
0.40915
0.409109
0.409078
0.409029
0.408974
0.408929
0.4089
0.408891
0.408895
0.40891
0.40894
0.40897
0.40901
0.409068
0.409158
0.409334
0.409541
0.40965
0.409664
0.409658
0.409635
0.4096
0.409567
0.409466
0.409205
0.409075
0.40908
0.409066
0.408993
0.40886
0.408726
0.408676
0.408712
0.408877
0.409256
0.409998
0.410889
0.411753
0.411763
0.41114
0.410991
0.411375
0.41273
0.4152
0.417788
0.418993
0.419751
0.421374
0.423343
0.510842
0.878291
1.13403
1.31919
1.43349
1.4716
1.50008
1.51765
1.51697
1.51259
1.51217
1.512
1.51464
1.51518
1.51433
1.51401
1.51259
1.51125
1.51104
1.5106
1.50945
1.50752
1.50563
1.5038
1.50388
1.50579
1.50884
1.52838
0.409329
0.409326
0.409322
0.409321
0.40932
0.409323
0.409333
0.409351
0.409354
0.409352
0.40935
0.409359
0.409361
0.409358
0.40935
0.409329
0.409289
0.409237
0.409173
0.409093
0.409037
0.409006
0.408967
0.4089
0.408869
0.408857
0.408839
0.408823
0.408823
0.408834
0.408853
0.408877
0.40894
0.409032
0.40912
0.409217
0.40932
0.409453
0.409636
0.409733
0.409729
0.409701
0.409627
0.409468
0.409366
0.409317
0.409218
0.409023
0.40896
0.408973
0.409002
0.408966
0.408831
0.408821
0.408897
0.409224
0.409898
0.410659
0.411553
0.412217
0.412691
0.412764
0.4124
0.41257
0.413725
0.41616
0.41912
0.421885
0.424411
0.425302
0.42642
0.429967
0.433173
0.435523
0.446801
0.709195
1.00119
1.21404
1.35184
1.41029
1.4414
1.46275
1.46282
1.4581
1.46232
1.46018
1.4613
1.46169
1.46079
1.45948
1.45785
1.45651
1.45572
1.45467
1.45328
1.45183
1.45219
1.4549
1.45901
1.48053
0.409416
0.409405
0.409392
0.409373
0.409351
0.409328
0.409304
0.409277
0.409242
0.40921
0.409186
0.409162
0.409143
0.409127
0.409111
0.409083
0.409036
0.408966
0.408888
0.408819
0.408786
0.40876
0.408748
0.40875
0.408752
0.408757
0.408768
0.408788
0.40885
0.408947
0.409023
0.409096
0.409204
0.409307
0.409398
0.409474
0.409547
0.409676
0.409756
0.40974
0.409674
0.409594
0.409468
0.40928
0.40919
0.409159
0.409114
0.408982
0.408942
0.408943
0.408976
0.409029
0.409158
0.409528
0.410204
0.411143
0.412074
0.412976
0.413511
0.41352
0.413736
0.414179
0.415261
0.417049
0.419331
0.422508
0.42449
0.426323
0.429286
0.432063
0.433909
0.436233
0.440229
0.443585
0.445667
0.447956
0.449235
0.584332
0.871701
1.11109
1.25487
1.33135
1.37147
1.39104
1.41469
1.40359
1.40454
1.40204
1.40175
1.40118
1.40133
1.4011
1.39992
1.39844
1.39751
1.39754
1.39877
1.40258
1.40767
1.42893
0.409085
0.409042
0.408998
0.40895
0.408902
0.408868
0.408845
0.408827
0.408808
0.408792
0.408793
0.408804
0.408814
0.408819
0.408842
0.408854
0.408844
0.408806
0.408729
0.408689
0.40868
0.408685
0.408714
0.408779
0.408868
0.408976
0.409063
0.409155
0.409284
0.409398
0.409471
0.409502
0.409511
0.409535
0.409582
0.409629
0.409685
0.409758
0.409783
0.409736
0.409635
0.409545
0.409399
0.409233
0.409161
0.409131
0.409154
0.409255
0.409338
0.409365
0.409487
0.409902
0.410612
0.411575
0.412745
0.41377
0.414476
0.41547
0.415669
0.415815
0.416338
0.417919
0.420473
0.423352
0.426073
0.428677
0.430749
0.432116
0.433849
0.437207
0.441073
0.44428
0.447362
0.449761
0.451463
0.454048
0.457543
0.459586
0.461981
0.516095
0.734961
0.983972
1.16773
1.2739
1.31689
1.32988
1.35902
1.35096
1.34906
1.34406
1.34504
1.34649
1.34824
1.34804
1.34689
1.34711
1.349
1.35377
1.35972
1.379
0.408469
0.408481
0.408492
0.408501
0.408509
0.408518
0.408536
0.408554
0.40857
0.408586
0.408617
0.408665
0.408701
0.408731
0.408798
0.408866
0.408883
0.408906
0.408944
0.40899
0.409086
0.409266
0.409379
0.409467
0.409573
0.409624
0.409671
0.409727
0.409766
0.409821
0.409838
0.409804
0.409747
0.40974
0.409758
0.409797
0.409843
0.409921
0.409929
0.409853
0.409772
0.409697
0.409552
0.409409
0.409417
0.409525
0.409813
0.410252
0.41078
0.411417
0.412177
0.413083
0.414082
0.415101
0.416017
0.416815
0.41743
0.418143
0.419276
0.420697
0.422338
0.424548
0.427356
0.430671
0.433312
0.435032
0.437641
0.439809
0.441227
0.443646
0.447613
0.451198
0.453022
0.455193
0.457487
0.460482
0.465112
0.46741
0.470023
0.47171
0.473303
0.47496
0.639122
0.908053
1.07565
1.2015
1.26082
1.27756
1.3033
1.30487
1.30572
1.30099
1.30173
1.30188
1.30251
1.30383
1.3058
1.3102
1.31682
1.33385
0.408474
0.408512
0.408555
0.408606
0.408668
0.408735
0.408807
0.408897
0.408984
0.409067
0.409174
0.4093
0.409402
0.409498
0.409661
0.409837
0.409939
0.410028
0.410061
0.410078
0.410149
0.410285
0.4103
0.410284
0.410237
0.410206
0.410192
0.410174
0.410157
0.410166
0.410161
0.410085
0.410045
0.410073
0.410078
0.410042
0.410062
0.410082
0.410019
0.409849
0.409841
0.409861
0.409945
0.410046
0.410258
0.410696
0.41143
0.412541
0.414021
0.415573
0.417099
0.418304
0.419286
0.420231
0.420741
0.421187
0.421817
0.422871
0.424767
0.427449
0.430588
0.433456
0.435999
0.438489
0.440668
0.442228
0.443788
0.446264
0.448862
0.451592
0.454664
0.457228
0.459239
0.461609
0.464313
0.467065
0.470945
0.474548
0.474982
0.476693
0.480321
0.485222
0.48722
0.48841
0.55775
0.813093
0.995474
1.13847
1.21724
1.23616
1.26087
1.27007
1.26953
1.26357
1.26496
1.26632
1.26947
1.2745
1.28139
1.29513
0.40967
0.409777
0.40989
0.410006
0.410112
0.410205
0.410292
0.410379
0.410468
0.410546
0.410591
0.410606
0.410627
0.410664
0.410724
0.410775
0.410803
0.41081
0.410785
0.410736
0.410731
0.410729
0.410715
0.410677
0.410612
0.410572
0.410535
0.410475
0.410465
0.410461
0.410387
0.410282
0.410291
0.410312
0.410253
0.410219
0.4103
0.410469
0.410692
0.411077
0.411593
0.412182
0.412989
0.414056
0.415366
0.416768
0.418142
0.419371
0.4205
0.421404
0.422351
0.423304
0.423988
0.42483
0.425691
0.42663
0.42842
0.43118
0.434332
0.437504
0.440221
0.442913
0.444836
0.445773
0.447051
0.448659
0.450438
0.453267
0.457465
0.460531
0.462324
0.464094
0.466368
0.468418
0.470626
0.473336
0.476362
0.480515
0.481946
0.48305
0.486176
0.490693
0.4934
0.495669
0.49725
0.498627
0.518569
0.729624
0.929583
1.07969
1.17642
1.20362
1.22681
1.23446
1.23692
1.2344
1.2377
1.24326
1.25121
1.26312
0.411534
0.411524
0.411527
0.411525
0.411465
0.411395
0.411352
0.411329
0.411335
0.411325
0.411251
0.411167
0.411098
0.411057
0.41104
0.411001
0.411004
0.411018
0.41101
0.410955
0.410911
0.41089
0.410864
0.410813
0.41078
0.410809
0.410822
0.410753
0.410773
0.410914
0.411004
0.411152
0.411482
0.411994
0.412654
0.413392
0.414214
0.415197
0.41629
0.417484
0.418669
0.419976
0.4212
0.422393
0.423453
0.424344
0.425054
0.425616
0.426223
0.426726
0.427372
0.428571
0.429901
0.431501
0.433975
0.437122
0.440525
0.443231
0.445732
0.447642
0.448793
0.449949
0.450985
0.451874
0.453345
0.456108
0.459593
0.462584
0.465634
0.467574
0.468836
0.470089
0.471918
0.474728
0.478259
0.481794
0.483516
0.485386
0.488165
0.490783
0.49356
0.496594
0.499026
0.501149
0.504161
0.507486
0.508956
0.511534
0.513881
0.666663
0.862959
1.0323
1.13966
1.17419
1.20008
1.20565
1.21305
1.217
1.22466
1.23573
0.41109
0.41112
0.411151
0.41113
0.410955
0.410847
0.410852
0.410888
0.41095
0.410966
0.410903
0.410896
0.410911
0.41092
0.410946
0.411019
0.411119
0.411304
0.411467
0.411612
0.411783
0.412043
0.412403
0.412864
0.413372
0.413947
0.414594
0.415343
0.416126
0.416928
0.417761
0.418695
0.41967
0.420672
0.421623
0.422498
0.423351
0.424176
0.425037
0.425898
0.42675
0.427605
0.428385
0.429158
0.429805
0.430521
0.4314
0.432421
0.433663
0.435233
0.4372
0.439657
0.44234
0.445143
0.447425
0.449339
0.451039
0.452194
0.452983
0.453751
0.454586
0.455475
0.457211
0.459966
0.463353
0.466466
0.469722
0.471723
0.472273
0.473362
0.475023
0.477166
0.47998
0.483574
0.487415
0.489491
0.489829
0.490797
0.493876
0.498162
0.501202
0.503863
0.50578
0.507105
0.509447
0.51357
0.516154
0.518172
0.521855
0.524575
0.525748
0.624306
0.810948
0.987388
1.11846
1.15514
1.1816
1.19326
1.20319
1.21062
0.4137
0.413921
0.414158
0.414384
0.41462
0.414892
0.415167
0.415438
0.415745
0.416079
0.416414
0.416747
0.417105
0.417529
0.418016
0.418498
0.41899
0.419526
0.420105
0.420713
0.421374
0.422048
0.422729
0.423423
0.424154
0.424863
0.425549
0.426235
0.42692
0.42756
0.428166
0.428778
0.42939
0.42999
0.43054
0.43108
0.431662
0.432287
0.432998
0.433739
0.434597
0.4355
0.436551
0.437722
0.439146
0.440912
0.442834
0.444847
0.446811
0.448819
0.450687
0.452397
0.453849
0.45509
0.456049
0.456784
0.457598
0.458413
0.459049
0.460303
0.462574
0.465665
0.46865
0.471559
0.474025
0.475641
0.477045
0.478045
0.478651
0.47988
0.482425
0.486571
0.490054
0.491897
0.493748
0.494963
0.496705
0.498921
0.502475
0.506394
0.508146
0.509496
0.511797
0.514092
0.516154
0.519785
0.524082
0.525885
0.527635
0.53097
0.534239
0.535779
0.537253
0.601665
0.787149
0.979934
1.11088
1.14963
1.17376
1.19044
0.425424
0.425623
0.425829
0.426041
0.426258
0.426477
0.426705
0.426941
0.427188
0.427451
0.427713
0.427979
0.428272
0.42858
0.428894
0.429226
0.429583
0.429953
0.430342
0.430754
0.431192
0.431648
0.432129
0.432625
0.433142
0.433667
0.434225
0.434782
0.435374
0.436009
0.4367
0.437415
0.438188
0.439002
0.439903
0.440906
0.442026
0.44318
0.444428
0.445721
0.447097
0.448533
0.450041
0.451544
0.453104
0.454487
0.455711
0.456836
0.457881
0.458941
0.459796
0.460523
0.461212
0.461868
0.46281
0.463947
0.465426
0.467371
0.469888
0.472479
0.475058
0.477222
0.479167
0.48058
0.481396
0.482173
0.482825
0.484243
0.487008
0.490512
0.493297
0.495689
0.498327
0.499083
0.499645
0.501667
0.505055
0.50877
0.510723
0.513174
0.515201
0.516187
0.518237
0.522263
0.525821
0.527404
0.530321
0.533325
0.534564
0.536358
0.539929
0.543235
0.546061
0.54819
0.549765
0.614489
0.802407
1.00353
1.10227
1.1556
0.435411
0.43559
0.435814
0.436088
0.436393
0.436696
0.436988
0.437288
0.437605
0.437949
0.438335
0.438747
0.439173
0.439615
0.440071
0.440554
0.441078
0.441644
0.442222
0.442815
0.443447
0.444118
0.444805
0.445517
0.446254
0.447015
0.447788
0.448592
0.449439
0.450275
0.451113
0.45198
0.452855
0.453729
0.45461
0.455518
0.456393
0.457284
0.458136
0.45897
0.459803
0.460603
0.461395
0.462155
0.462916
0.463549
0.464246
0.464908
0.465641
0.466569
0.467562
0.468568
0.469859
0.471551
0.473542
0.475647
0.477768
0.479862
0.481635
0.483418
0.484826
0.485835
0.486703
0.487404
0.488359
0.489806
0.492151
0.494989
0.49768
0.500747
0.503024
0.503653
0.504846
0.506295
0.508301
0.510697
0.513414
0.517106
0.518969
0.519754
0.522096
0.524916
0.526876
0.529582
0.533442
0.535094
0.536202
0.539236
0.542531
0.544671
0.547357
0.550882
0.553338
0.555458
0.558507
0.560152
0.561294
0.656484
0.83524
1.0872
0.450685
0.450938
0.451217
0.451496
0.451766
0.452037
0.452342
0.452673
0.452979
0.453271
0.453597
0.453967
0.454326
0.454665
0.455012
0.455376
0.455766
0.456167
0.456555
0.456943
0.457344
0.457768
0.458203
0.458643
0.459088
0.459554
0.460031
0.460527
0.461032
0.461562
0.462101
0.46264
0.46318
0.463748
0.464324
0.464907
0.465492
0.466101
0.46672
0.4674
0.46808
0.468813
0.469591
0.470447
0.47142
0.472517
0.473739
0.475042
0.476494
0.478003
0.479753
0.481505
0.483257
0.484912
0.486382
0.48778
0.488923
0.489906
0.490664
0.49148
0.492357
0.493431
0.494574
0.496301
0.498702
0.501309
0.5038
0.506383
0.50794
0.50901
0.51066
0.51169
0.512756
0.514966
0.518063
0.521476
0.523387
0.524876
0.527436
0.528726
0.529817
0.532468
0.535859
0.537998
0.540457
0.543295
0.544774
0.546593
0.55008
0.553518
0.55537
0.557645
0.560189
0.562135
0.564555
0.567185
0.569914
0.571764
0.572838
0.861859
0.462624
0.462821
0.463046
0.463268
0.463478
0.463668
0.463855
0.46406
0.464315
0.464605
0.464893
0.465156
0.465415
0.465692
0.466001
0.466333
0.466673
0.467014
0.467359
0.46771
0.468077
0.468463
0.468867
0.469278
0.469699
0.470134
0.470597
0.471094
0.471632
0.472221
0.472853
0.473548
0.474289
0.475084
0.4759
0.476766
0.477656
0.478601
0.479575
0.480609
0.481667
0.482768
0.483875
0.485008
0.4861
0.487212
0.488266
0.489361
0.490408
0.491361
0.49219
0.493063
0.493989
0.494757
0.495472
0.496341
0.497094
0.497973
0.499098
0.500326
0.502001
0.504094
0.506494
0.508829
0.511038
0.513118
0.514463
0.515806
0.516892
0.517554
0.518734
0.520853
0.523512
0.526226
0.528131
0.530455
0.532681
0.533348
0.534542
0.537234
0.539548
0.541581
0.544929
0.54755
0.548831
0.551052
0.553894
0.555986
0.557814
0.560404
0.562491
0.564176
0.566835
0.569594
0.571819
0.574244
0.576699
0.578813
0.580877
0.583453
0.476348
0.476511
0.476719
0.476972
0.477261
0.477543
0.477798
0.478037
0.478299
0.478628
0.478983
0.479301
0.479595
0.479903
0.480247
0.480617
0.480997
0.481371
0.481746
0.482131
0.482534
0.482957
0.483398
0.483854
0.484332
0.484831
0.485364
0.485926
0.486515
0.487103
0.487708
0.488306
0.488915
0.489515
0.49012
0.490716
0.491321
0.491925
0.492534
0.493158
0.49379
0.494433
0.495079
0.495734
0.496376
0.497055
0.497751
0.498525
0.499307
0.50003
0.500737
0.501654
0.502716
0.503863
0.50509
0.506507
0.508296
0.510212
0.512283
0.514299
0.516275
0.518036
0.5195
0.520646
0.521561
0.522669
0.52354
0.524353
0.525649
0.527473
0.529622
0.532028
0.534291
0.536944
0.538797
0.539475
0.541053
0.543039
0.544649
0.546767
0.549906
0.552647
0.554259
0.556008
0.557611
0.559395
0.561914
0.564395
0.566164
0.567977
0.570584
0.573022
0.575262
0.577571
0.579528
0.581263
0.583206
0.585306
0.587031
0.589909
0.490151
0.490333
0.490512
0.490668
0.490804
0.490956
0.491154
0.491404
0.491669
0.49192
0.492133
0.492351
0.492597
0.492874
0.493161
0.493461
0.493767
0.494079
0.494389
0.494716
0.495066
0.495441
0.495828
0.496218
0.496618
0.497033
0.497456
0.497886
0.498315
0.498753
0.499196
0.499647
0.500115
0.500616
0.501148
0.501734
0.502348
0.502988
0.503658
0.504347
0.505062
0.505786
0.506549
0.507389
0.508305
0.509298
0.510358
0.511505
0.512747
0.514132
0.515594
0.517016
0.518369
0.519742
0.521145
0.52241
0.52355
0.524612
0.52559
0.526581
0.527491
0.528307
0.529054
0.529727
0.530508
0.531659
0.533369
0.535344
0.537676
0.540165
0.542444
0.544781
0.546128
0.547012
0.548738
0.55
0.55104
0.552972
0.555665
0.557713
0.559579
0.561685
0.562867
0.564494
0.566998
0.569285
0.570999
0.572961
0.575202
0.57729
0.57943
0.581636
0.583188
0.584678
0.586316
0.587777
0.589457
0.591224
0.592597
0.594879
0.504899
0.505061
0.505243
0.50543
0.505615
0.505822
0.506045
0.506261
0.506502
0.506761
0.507001
0.507233
0.507494
0.507779
0.508075
0.508369
0.508667
0.508978
0.509309
0.509643
0.509984
0.510334
0.510702
0.511083
0.51148
0.511902
0.512353
0.512816
0.513303
0.513823
0.514374
0.514947
0.515545
0.516173
0.516833
0.517497
0.51816
0.518825
0.519523
0.520234
0.520961
0.521714
0.522496
0.523303
0.524129
0.524955
0.525781
0.526571
0.527324
0.528066
0.528843
0.529611
0.53035
0.531148
0.532007
0.532735
0.53347
0.534203
0.534928
0.535892
0.536949
0.538244
0.539854
0.541861
0.544048
0.546214
0.548413
0.550288
0.55189
0.553579
0.554605
0.555572
0.556482
0.557042
0.55814
0.560266
0.56251
0.564476
0.566452
0.568632
0.570099
0.571359
0.573208
0.575107
0.576824
0.57852
0.580197
0.581817
0.583477
0.585187
0.586687
0.58805
0.589487
0.590857
0.592306
0.59383
0.595174
0.59639
0.597449
0.599113
0.520613
0.520752
0.520911
0.521075
0.521247
0.52142
0.521599
0.521796
0.522002
0.522211
0.522441
0.522666
0.52288
0.523117
0.523399
0.523684
0.52395
0.524226
0.524532
0.524863
0.525203
0.525552
0.525914
0.526291
0.526674
0.527063
0.527467
0.527887
0.528308
0.52873
0.529163
0.529607
0.530057
0.530515
0.530987
0.531457
0.531958
0.532481
0.533037
0.533618
0.534216
0.534832
0.535455
0.536051
0.536667
0.537299
0.538007
0.538762
0.539548
0.540349
0.541208
0.542164
0.543169
0.544182
0.54531
0.546636
0.548072
0.549605
0.551186
0.552715
0.554236
0.55578
0.557175
0.558405
0.559673
0.560752
0.561759
0.56242
0.562789
0.563622
0.564553
0.565283
0.566556
0.568576
0.570559
0.572505
0.574516
0.576358
0.577649
0.578867
0.580167
0.581373
0.58271
0.584133
0.585558
0.586976
0.588409
0.589834
0.591224
0.592536
0.593727
0.594836
0.595945
0.596873
0.597795
0.598738
0.599693
0.600569
0.601207
0.602172
0.537492
0.537628
0.53778
0.537938
0.538104
0.538281
0.53847
0.53867
0.538871
0.539065
0.539263
0.539483
0.539722
0.53996
0.540193
0.540437
0.540695
0.540963
0.541246
0.541539
0.541834
0.542135
0.542448
0.542779
0.543129
0.543488
0.543852
0.544232
0.544635
0.545063
0.5455
0.54596
0.546454
0.546983
0.547515
0.548056
0.548613
0.549193
0.549771
0.550362
0.550959
0.551574
0.552227
0.552914
0.553632
0.554415
0.555246
0.556119
0.556992
0.557887
0.558757
0.559645
0.560594
0.561561
0.562503
0.563351
0.564132
0.564873
0.565617
0.566434
0.567142
0.567946
0.568665
0.569112
0.569742
0.570491
0.571263
0.572351
0.573702
0.575077
0.576828
0.578776
0.580505
0.582138
0.583539
0.584652
0.585518
0.586323
0.587296
0.588164
0.589203
0.590459
0.591625
0.592732
0.593816
0.594891
0.595904
0.596813
0.597615
0.598419
0.599239
0.599952
0.600505
0.601062
0.601559
0.602042
0.602606
0.603084
0.603431
0.603954
0.555615
0.555734
0.555861
0.555991
0.55614