/*--------------------------------*- C++ -*----------------------------------*\
  =========                 |
  \\      /  F ield         | OpenFOAM: The Open Source CFD Toolbox
   \\    /   O peration     | Website:  https://openfoam.org
    \\  /    A nd           | Version:  7
     \\/     M anipulation  |
\*---------------------------------------------------------------------------*/
FoamFile
{
    version     2.0;
    format      ascii;
    class       volScalarField;
    location    "7.3";
    object      p;
}
// * * * * * * * * * * * * * * * * * * * * * * * * * * * * * * * * * * * * * //

dimensions      [1 -1 -2 0 0 0 0];

internalField   nonuniform List<scalar> 
11200
(
0.195731
0.326568
0.456402
0.560516
0.651189
0.704526
0.745836
0.754552
0.784274
0.803624
0.82794
0.861116
0.891978
0.915777
0.902969
0.895301
0.891808
0.897259
0.910584
0.911295
0.904507
0.899393
0.902409
0.906408
0.907848
0.911155
0.921029
0.939702
0.94047
0.940486
0.0566011
0.0620542
0.0849964
0.14714
0.246579
0.387631
0.553524
0.697857
0.828264
0.904146
0.964924
0.970495
0.95384
0.910291
0.861072
0.857023
0.888145
0.919186
0.930057
0.908927
0.889316
0.885557
0.902156
0.913863
0.917964
0.926854
0.936672
0.938213
0.936519
0.945134
0.0590653
0.0587426
0.0581558
0.0567538
0.0552464
0.0619433
0.0921026
0.177606
0.298627
0.476965
0.668278
0.797012
0.908994
0.894782
0.879991
0.887501
0.893644
0.903399
0.892873
0.888578
0.889549
0.885588
0.897923
0.915241
0.923868
0.927473
0.938872
0.949702
0.950309
0.952144
0.0588717
0.0580932
0.0570631
0.0566136
0.0569118
0.0578217
0.0581626
0.0583843
0.0587063
0.0692548
0.118349
0.247197
0.455599
0.671265
0.849468
0.914378
0.916169
0.898603
0.869364
0.866411
0.891019
0.907038
0.917987
0.916385
0.923042
0.940691
0.944804
0.945217
0.946443
0.953105
0.0575195
0.0571271
0.0571553
0.057837
0.0588112
0.0597812
0.0606222
0.0609493
0.061412
0.0614941
0.0612765
0.0599089
0.0641892
0.135073
0.306391
0.545338
0.764388
0.832242
0.866352
0.881214
0.901724
0.908626
0.915296
0.915352
0.922036
0.93877
0.952995
0.951856
0.952698
0.959379
0.0588496
0.0591596
0.0597588
0.0606102
0.0612349
0.0617274
0.0618176
0.0616125
0.0614087
0.0612869
0.0607054
0.0588131
0.057408
0.0577751
0.0581539
0.0901491
0.222933
0.475009
0.735044
0.850474
0.910075
0.908978
0.92795
0.921456
0.933683
0.943818
0.945495
0.947364
0.953365
0.962856
0.0607361
0.0613725
0.0618966
0.0620585
0.0619705
0.0617709
0.0615008
0.0611898
0.0609133
0.0605459
0.0596076
0.0576769
0.056876
0.0573894
0.0584499
0.0592316
0.0596335
0.0782486
0.193335
0.436795
0.712241
0.830383
0.914352
0.913553
0.941492
0.936112
0.942438
0.953188
0.965134
0.973708
0.0608145
0.0612198
0.0615834
0.0616003
0.0615123
0.0614253
0.0612233
0.0607896
0.0602457
0.0598424
0.0593785
0.0580336
0.0570937
0.0580023
0.0609799
0.0609484
0.0609494
0.0627119
0.0650731
0.078847
0.176483
0.432438
0.696279
0.819295
0.939831
0.93995
0.964782
0.954482
0.960182
0.966819
0.0598792
0.0601256
0.0608996
0.0613689
0.0613842
0.0613237
0.061099
0.0604397
0.0600223
0.0604316
0.0628058
0.0642303
0.064559
0.0658254
0.0685251
0.0714591
0.0735558
0.0749991
0.0770121
0.0779018
0.0785018
0.0891293
0.183868
0.445448
0.713021
0.82787
0.954394
0.957086
0.981537
0.974564
0.0605387
0.0609001
0.0617205
0.0621147
0.0620625
0.0619609
0.0618991
0.0614846
0.0617713
0.0638978
0.068007
0.0722543
0.075321
0.0774849
0.0793914
0.0825451
0.0861067
0.089054
0.092193
0.0939048
0.0934815
0.091709
0.093345
0.108186
0.211946
0.474214
0.73428
0.841304
0.966769
0.997838
0.0660973
0.0670479
0.06827
0.0700341
0.0710115
0.07106
0.0712801
0.0714932
0.0719404
0.0738896
0.0766844
0.0804082
0.0831412
0.0846159
0.0862868
0.0894309
0.0936773
0.0982102
0.102779
0.106926
0.111029
0.113511
0.112437
0.11159
0.114694
0.134007
0.241496
0.515226
0.762388
0.913049
0.078787
0.0804823
0.082125
0.083475
0.0844806
0.0858958
0.087785
0.0877828
0.0875023
0.0886595
0.0918716
0.0960816
0.0973278
0.0978586
0.0991409
0.101876
0.104445
0.106827
0.110629
0.115513
0.121132
0.126724
0.131482
0.132198
0.131801
0.135495
0.139032
0.165399
0.276838
0.682894
0.09436
0.0943777
0.0946315
0.0955275
0.0975014
0.100657
0.104109
0.106649
0.107625
0.108891
0.111296
0.115546
0.119769
0.121826
0.123047
0.125265
0.126446
0.125547
0.124874
0.126329
0.131362
0.138733
0.146084
0.152345
0.154216
0.153143
0.155975
0.161836
0.162786
0.28207
0.119987
0.120388
0.120753
0.121531
0.123259
0.12619
0.130021
0.131123
0.130178
0.130081
0.131681
0.135078
0.139231
0.140279
0.141138
0.14377
0.148792
0.152958
0.155147
0.155128
0.155221
0.157236
0.161377
0.166726
0.170866
0.172649
0.175008
0.176086
0.178084
0.182976
0.150075
0.149894
0.149776
0.149677
0.14993
0.151328
0.155268
0.158929
0.159569
0.159455
0.159374
0.160148
0.161064
0.161996
0.16415
0.1665
0.169419
0.173069
0.176917
0.18071
0.182551
0.182045
0.181807
0.18307
0.186979
0.19235
0.195157
0.199785
0.202928
0.205552
0.18822
0.185369
0.184505
0.184527
0.18497
0.185885
0.188363
0.192107
0.193952
0.193491
0.193242
0.19418
0.197115
0.200731
0.202455
0.202004
0.201647
0.202176
0.203501
0.20663
0.211276
0.214548
0.214994
0.215333
0.216409
0.218671
0.221332
0.222751
0.225486
0.229192
0.238539
0.234829
0.230766
0.230333
0.230912
0.232226
0.234551
0.238301
0.240504
0.240294
0.238586
0.23734
0.237408
0.238627
0.241116
0.243898
0.245513
0.245424
0.244323
0.243227
0.243376
0.244579
0.246638
0.248598
0.248987
0.249305
0.250148
0.250326
0.250893
0.253437
0.301486
0.299121
0.290169
0.287838
0.287814
0.288695
0.291092
0.293738
0.294724
0.29408
0.290864
0.288309
0.288158
0.28846
0.288257
0.287185
0.285478
0.284236
0.284398
0.284964
0.284881
0.283797
0.282966
0.283237
0.283806
0.28358
0.282888
0.282943
0.283536
0.28363
0.380742
0.378999
0.367873
0.35953
0.358664
0.361728
0.365919
0.365607
0.363014
0.359565
0.356658
0.356196
0.355118
0.350728
0.348695
0.348606
0.347956
0.345604
0.342303
0.339878
0.338654
0.337261
0.334083
0.330401
0.327326
0.32512
0.323413
0.320005
0.316825
0.315683
0.48078
0.478283
0.46586
0.452176
0.4501
0.454374
0.458844
0.456608
0.44948
0.440878
0.438273
0.438574
0.436446
0.428842
0.422856
0.420255
0.417749
0.41313
0.407501
0.40271
0.397431
0.393434
0.389586
0.385685
0.3815
0.376562
0.373099
0.370563
0.366805
0.358695
0.607271
0.601732
0.584956
0.568424
0.565591
0.571012
0.575068
0.570443
0.557507
0.543072
0.540773
0.541015
0.536587
0.524545
0.515827
0.510769
0.505305
0.4982
0.489289
0.481757
0.475262
0.467422
0.460353
0.452023
0.445052
0.438179
0.429447
0.422392
0.41701
0.406503
0.763646
0.752759
0.729953
0.712193
0.709875
0.717086
0.718699
0.708652
0.687943
0.670193
0.669425
0.668929
0.658678
0.63963
0.62886
0.622311
0.612537
0.601018
0.589154
0.576234
0.566245
0.55499
0.543274
0.532064
0.520405
0.509713
0.498678
0.48593
0.475343
0.459668
0.951236
0.927309
0.898424
0.885003
0.886351
0.89606
0.893557
0.877018
0.846311
0.82541
0.826248
0.823844
0.803365
0.777667
0.766861
0.757944
0.743664
0.724477
0.707641
0.691926
0.676081
0.660739
0.642914
0.627378
0.611221
0.593759
0.579132
0.563573
0.549294
0.526052
1.17698
1.14677
1.10939
1.09253
1.09479
1.10589
1.1018
1.07884
1.03742
1.01148
1.01219
1.00668
0.976522
0.942844
0.930765
0.918154
0.897552
0.871619
0.847084
0.827358
0.80593
0.783741
0.76092
0.737586
0.716735
0.694628
0.672135
0.650159
0.630888
0.600398
1.45352
1.43073
1.39721
1.36085
1.35257
1.35363
1.34412
1.31911
1.27999
1.24522
1.23727
1.22442
1.18855
1.14699
1.12406
1.10338
1.07567
1.04436
1.01259
0.983384
0.956209
0.925749
0.896437
0.867175
0.838413
0.810309
0.781644
0.753269
0.72882
0.689052
1.70024
1.6901
1.6794
1.66271
1.64201
1.62911
1.61396
1.59187
1.56597
1.53516
1.50882
1.48457
1.44942
1.40787
1.37176
1.33589
1.29672
1.25532
1.21473
1.174
1.13452
1.09519
1.05547
1.01756
0.980438
0.943726
0.908537
0.872365
0.841192
0.791388
1.75797
1.7577
1.75612
1.75222
1.74869
1.74715
1.74561
1.7424
1.7364
1.72691
1.71488
1.70183
1.6843
1.661
1.63335
1.60009
1.56135
1.51796
1.47001
1.41994
1.36676
1.31258
1.25833
1.20478
1.15379
1.10428
1.05729
1.01114
0.971654
0.909083
1.70899
1.71669
1.71784
1.71494
1.70857
1.71076
1.72067
1.72756
1.72891
1.72863
1.73029
1.72936
1.72518
1.72224
1.71992
1.71547
1.70763
1.69646
1.67817
1.65106
1.61509
1.56928
1.51375
1.45121
1.3844
1.31662
1.25055
1.18545
1.13093
1.04792
1.40988
1.44516
1.46098
1.46749
1.48116
1.50101
1.51914
1.5446
1.57024
1.58992
1.60637
1.62332
1.6486
1.66498
1.67208
1.68112
1.69276
1.69486
1.69383
1.69215
1.68954
1.68343
1.67068
1.6498
1.61436
1.5632
1.49812
1.42155
1.34821
1.23086
1.08394
1.09514
1.10568
1.1152
1.12993
1.14593
1.16037
1.17978
1.20572
1.23222
1.26144
1.29164
1.32884
1.37304
1.41128
1.45214
1.49349
1.53895
1.57554
1.60518
1.6328
1.64875
1.66108
1.66089
1.65949
1.65404
1.64073
1.61443
1.57265
1.46316
1.00374
1.0044
1.00534
1.0064
1.00779
1.00966
1.01177
1.01444
1.01832
1.02356
1.03038
1.03917
1.05016
1.0662
1.08643
1.11164
1.14421
1.18379
1.23383
1.28765
1.34924
1.41162
1.4744
1.53048
1.57182
1.60424
1.62511
1.62401
1.621
1.59866
1.00004
1.00005
1.00006
1.00008
1.0001
1.00014
1.00018
1.00024
1.00033
1.00048
1.0007
1.00103
1.00155
1.00237
1.00377
1.00592
1.0095
1.01514
1.02443
1.0388
1.06061
1.09312
1.13742
1.19676
1.26851
1.34568
1.42702
1.49723
1.54812
1.58052
1
1
1
1
1
1
1
1
1
1
1.00001
1.00001
1.00001
1.00002
1.00004
1.00007
1.00013
1.00025
1.00051
1.00104
1.00215
1.00447
1.00915
1.0184
1.03568
1.06541
1.11263
1.18202
1.26166
1.39623
1
1
1
1
1
1
1
1
1
1
1
1
1
1
1
1
1
1
1
1.00001
1.00002
1.00005
1.00013
1.00036
1.00097
1.00266
1.00683
1.01735
1.03646
1.11317
1
1
1
1
1
1
1
1
1
1
1
1
1
1
1
1
1
1
1
1
1
1
1
1
1.00001
1.00003
1.0001
1.00037
1.00114
1.01004
0.0560302
0.0577288
0.0590982
0.0593738
0.0580931
0.0590555
0.0603352
0.0603386
0.0595094
0.0600244
0.0655512
0.0775704
0.0942984
0.119694
0.150982
0.189519
0.238884
0.301287
0.381178
0.483048
0.612561
0.774035
0.971122
1.20368
1.4796
1.71487
1.75799
1.68487
1.37507
1.07127
1.00307
1.00004
1
1
1
0.0573589
0.0595751
0.059299
0.0590588
0.0593771
0.0610089
0.0605196
0.0592462
0.0585364
0.0600998
0.0681862
0.0801455
0.100768
0.126001
0.157879
0.196214
0.247128
0.311937
0.394982
0.501263
0.635904
0.804158
1.00862
1.24778
1.52772
1.7393
1.7581
1.65133
1.32609
1.05166
1.0017
1.00002
1
1
1
0.0587887
0.0603274
0.0592594
0.0589085
0.0607618
0.0619979
0.060943
0.0582567
0.0571957
0.060283
0.0706074
0.0825883
0.103818
0.127979
0.160237
0.199344
0.251305
0.317704
0.402261
0.510784
0.648385
0.820631
1.03082
1.27751
1.56674
1.7562
1.75856
1.6328
1.28675
1.03724
1.001
1.00001
1
1
1
0.0596218
0.0606818
0.0591819
0.0588435
0.0615746
0.06227
0.0612944
0.0572027
0.0562609
0.0603661
0.0718463
0.0837074
0.105586
0.130284
0.163513
0.204033
0.258039
0.329921
0.421606
0.536214
0.679584
0.851677
1.06012
1.32257
1.62089
1.77013
1.76209
1.61617
1.23637
1.02417
1.00054
1
1
1
1
0.0603988
0.0606636
0.0590525
0.0587883
0.0620924
0.0621403
0.0609685
0.056183
0.0558323
0.0604151
0.0720321
0.0846735
0.106609
0.133729
0.171655
0.219588
0.281677
0.361344
0.461153
0.585838
0.739846
0.925329
1.14284
1.4105
1.67643
1.77793
1.75971
1.56032
1.1809
1.01536
1.00029
1
1
1
1
0.0606651
0.0600308
0.0588681
0.0586392
0.062279
0.0614209
0.0598931
0.0555941
0.0557371
0.0605489
0.0718766
0.0885467
0.112425
0.145351
0.186523
0.235214
0.297417
0.378031
0.480688
0.610281
0.771702
0.968519
1.20145
1.46967
1.70964
1.78109
1.73873
1.49381
1.14244
1.0102
1.00016
1
1
1
1
0.0596553
0.0578747
0.0579187
0.0574448
0.0621286
0.0608243
0.0591087
0.0558517
0.0567297
0.0636007
0.0751243
0.0956388
0.120759
0.152764
0.191919
0.240791
0.304304
0.386644
0.492541
0.626214
0.79324
0.997677
1.23582
1.50828
1.73582
1.78321
1.71909
1.45593
1.11364
1.00644
1.00009
1
1
1
1
0.0573158
0.0555806
0.0568021
0.0559967
0.0613983
0.0605568
0.0588004
0.0570479
0.0594576
0.0679729
0.0781218
0.09905
0.123235
0.155012
0.194424
0.243594
0.30919
0.392969
0.501325
0.639631
0.811843
1.02285
1.27194
1.55734
1.76509
1.78492
1.7114
1.41603
1.0818
1.00358
1.00004
1
1
1
1
0.0556316
0.0543742
0.0561571
0.0555628
0.0605654
0.0604126
0.0587135
0.0578072
0.0610447
0.0695844
0.0789553
0.0995987
0.123892
0.155697
0.196368
0.247112
0.31839
0.413855
0.535205
0.686665
0.871075
1.08588
1.34461
1.62914
1.78645
1.78764
1.70237
1.34365
1.05382
1.00194
1.00002
1
1
1
1
0.0548261
0.0542325
0.0557778
0.0557002
0.0598959
0.0598979
0.0585832
0.0579589
0.0611299
0.0693589
0.0794339
0.0993334
0.123698
0.157138
0.207171
0.273484
0.355949
0.46108
0.591118
0.750996
0.944204
1.17316
1.43469
1.68371
1.79511
1.78816
1.63971
1.27355
1.03683
1.00109
1.00001
1
1
1
1
0.0544428
0.0545988
0.0557129
0.0557978
0.0595159
0.0585328
0.0571326
0.0577792
0.0607318
0.0673507
0.081516
0.103585
0.13244
0.175576
0.231589
0.296807
0.37861
0.484212
0.616762
0.781557
0.982104
1.21779
1.48156
1.71598
1.7993
1.77458
1.58545
1.22779
1.0252
1.0006
1.00001
1
1
1
1
0.0543741
0.0549055
0.0557737
0.0559242
0.0594134
0.0574446
0.0552988
0.0568715
0.0614006
0.0677718
0.0892141
0.115167
0.147732
0.189387
0.240843
0.305295
0.388653
0.496749
0.633697
0.803523
1.01207
1.25626
1.52674
1.74837
1.80293
1.76055
1.55154
1.18425
1.01545
1.0003
1
1
1
1
1
0.0550583
0.0557144
0.0558335
0.0566752
0.0596156
0.0572869
0.0548189
0.0565571
0.0636259
0.0733241
0.0982035
0.122229
0.15291
0.193039
0.244544
0.309065
0.396279
0.507201
0.651052
0.83204
1.05232
1.30976
1.59286
1.78256
1.80553
1.75745
1.512
1.13329
1.00876
1.00014
1
1
1
1
1
0.0561144
0.056911
0.057202
0.0593035
0.0608782
0.0575597
0.0547842
0.0566266
0.0662075
0.0771652
0.101261
0.124601
0.154705
0.194491
0.248189
0.318525
0.417828
0.551502
0.716997
0.918607
1.15263
1.4128
1.66848
1.80372
1.80768
1.75016
1.42872
1.09202
1.00489
1.00007
1
1
1
1
1
0.0568306
0.0575042
0.0595916
0.0616706
0.0614745
0.0579657
0.0547646
0.0567726
0.0672448
0.0783376
0.101079
0.125533
0.156385
0.200839
0.271218
0.363968
0.476087
0.616061
0.786653
0.988848
1.22488
1.48196
1.71188
1.81153
1.80862
1.69203
1.35148
1.06416
1.00268
1.00003
1
1
1
1
1
0.0574491
0.0579971
0.0614652
0.062926
0.0609398
0.0574704
0.054764
0.0572428
0.0669501
0.0795553
0.0996623
0.128899
0.172103
0.231768
0.306352
0.395032
0.505792
0.646226
0.819707
1.02818
1.27028
1.52913
1.74393
1.81514
1.79775
1.64254
1.29747
1.04357
1.00142
1.00001
1
1
1
1
1
0.0579526
0.0586567
0.0622455
0.0631179
0.0593831
0.0557937
0.0549111
0.058015
0.0649451
0.0829485
0.107871
0.147287
0.193717
0.249911
0.319049
0.406914
0.521344
0.666442
0.847393
1.06589
1.32094
1.58934
1.77911
1.81769
1.78273
1.60847
1.24192
1.02692
1.0007
1.00001
1
1
1
1
1
0.0581675
0.0593434
0.0623191
0.0630142
0.0580532
0.0544296
0.0548533
0.0591897
0.0654474
0.0903758
0.120583
0.157638
0.199877
0.254515
0.324814
0.413176
0.535067
0.694178
0.897488
1.14371
1.41302
1.6695
1.80742
1.81977
1.7785
1.56746
1.17702
1.01537
1.00032
1
1
1
1
1
1
0.0578218
0.0596062
0.0617243
0.0628117
0.0575885
0.0538996
0.0548597
0.0616246
0.0709649
0.0968031
0.124459
0.159877
0.201766
0.255477
0.331706
0.44068
0.589901
0.782357
1.00519
1.25393
1.50916
1.72611
1.82146
1.82266
1.77618
1.48154
1.12402
1.00843
1.00014
1
1
1
1
1
1
0.057112
0.0589237
0.0601833
0.0625604
0.0574242
0.054545
0.0565061
0.0640503
0.0749819
0.0978231
0.125459
0.160717
0.204338
0.271261
0.378795
0.512916
0.669813
0.857239
1.07423
1.3179
1.56473
1.75971
1.82718
1.8235
1.72398
1.39822
1.08522
1.00443
1.00006
1
1
1
1
1
1
0.0563108
0.0583881
0.0591177
0.0621483
0.0574086
0.0564802
0.0583643
0.0645495
0.0766731
0.097258
0.127401
0.169351
0.23348
0.321331
0.428693
0.554074
0.707693
0.896696
1.12076
1.37303
1.62143
1.79092
1.82925
1.8122
1.66641
1.33241
1.05633
1.00226
1.00003
1
1
1
1
1
1
0.0554135
0.0584386
0.0590029
0.0616902
0.0574186
0.05722
0.0584332
0.0623622
0.0793154
0.104962
0.147004
0.202507
0.267879
0.347731
0.447968
0.574112
0.736576
0.93725
1.1824
1.45441
1.69478
1.81674
1.82986
1.79434
1.62833
1.26832
1.03479
1.00109
1.00001
1
1
1
1
1
1
0.0550781
0.0585694
0.0591907
0.0608852
0.0566318
0.0568382
0.0580147
0.0608688
0.0855528
0.122572
0.168305
0.220851
0.28
0.358029
0.462503
0.596261
0.783641
1.02628
1.30026
1.56181
1.75583
1.83037
1.83092
1.78787
1.5873
1.19835
1.01966
1.00047
1
1
1
1
1
1
1
0.0553158
0.058681
0.0603073
0.0593937
0.0541517
0.0539261
0.0575805
0.0648087
0.0983028
0.134006
0.174428
0.225108
0.285135
0.367532
0.496544
0.67844
0.897734
1.14594
1.40098
1.63203
1.79011
1.83604
1.83419
1.78687
1.50091
1.1351
1.00993
1.00019
1
1
1
1
1
1
1
0.0562726
0.0596649
0.061404
0.0562357
0.051513
0.0516182
0.0581699
0.0748202
0.106719
0.136532
0.173941
0.225268
0.299138
0.422489
0.58714
0.771398
0.981967
1.2193
1.46786
1.686
1.81391
1.83807
1.83218
1.73074
1.40056
1.08721
1.00485
1.00008
1
1
1
1
1
1
1
0.0583813
0.0599649
0.0606725
0.0537828
0.0506826
0.0509826
0.0608425
0.0820729
0.108169
0.135829
0.177238
0.250715
0.362202
0.493607
0.646048
0.824168
1.03834
1.28622
1.54508
1.74523
1.83015
1.83712
1.81531
1.65963
1.3252
1.05642
1.00241
1.00003
1
1
1
1
1
1
1
0.0599228
0.0594923
0.0582704
0.0524817
0.0513694
0.0518206
0.0625554
0.0856202
0.106678
0.141595
0.212634
0.307963
0.409064
0.52831
0.680595
0.870995
1.1142
1.39403
1.64368
1.79359
1.83807
1.83385
1.79032
1.6132
1.25771
1.0333
1.00106
1.00001
1
1
1
1
1
1
1
0.0611628
0.0586123
0.0567512
0.0514818
0.0520342
0.0558852
0.063782
0.0867846
0.108192
0.170967
0.25369
0.337
0.430031
0.553408
0.729367
0.966879
1.24736
1.5157
1.71651
1.82036
1.84105
1.83503
1.77866
1.56437
1.18201
1.01715
1.00041
1
1
1
1
1
1
1
1
0.0638852
0.0590914
0.0565573
0.051327
0.0508651
0.058218
0.0653502
0.0859298
0.129232
0.20422
0.272918
0.348634
0.44913
0.612163
0.846722
1.10432
1.36357
1.59715
1.76294
1.83497
1.8428
1.83871
1.77602
1.46736
1.11467
1.00785
1.00015
1
1
1
1
1
1
1
1
0.0675968
0.0614834
0.0584566
0.0521496
0.0495127
0.0584551
0.0666264
0.0907931
0.157582
0.2206
0.278693
0.364754
0.521031
0.731943
0.960666
1.19934
1.44721
1.6673
1.8009
1.84173
1.84331
1.83462
1.70795
1.35369
1.06813
1.00343
1.00005
1
1
1
1
1
1
1
1
0.0705186
0.0647894
0.0614552
0.054807
0.0490728
0.0549573
0.0729562
0.114993
0.177648
0.225223
0.291555
0.445633
0.625738
0.818362
1.03787
1.28604
1.54591
1.74136
1.82676
1.84391
1.8415
1.8064
1.61709
1.27173
1.0407
1.00152
1.00002
1
1
1
1
1
1
1
1
0.0722853
0.0663466
0.062831
0.0570327
0.0514822
0.0526832
0.0862346
0.137211
0.18473
0.231179
0.368271
0.533045
0.693557
0.885455
1.1306
1.41329
1.65673
1.7943
1.83983
1.84486
1.83414
1.7717
1.5584
1.2033
1.02163
1.00059
1.00001
1
1
1
1
1
1
1
1
0.0724467
0.066102
0.0620888
0.0571417
0.0538994
0.0566222
0.102096
0.148014
0.186317
0.290584
0.44425
0.588727
0.755168
0.989955
1.28304
1.54838
1.73198
1.82366
1.84639
1.84601
1.83456
1.75319
1.49128
1.12879
1.00958
1.0002
1
1
1
1
1
1
1
1
1
0.069686
0.062418
0.0575356
0.0526116
0.0572604
0.0700177
0.115458
0.154237
0.213508
0.361524
0.495234
0.645028
0.869179
1.15108
1.42374
1.64448
1.78119
1.84065
1.84916
1.84767
1.83698
1.73455
1.36846
1.0691
1.00364
1.00006
1
1
1
1
1
1
1
1
1
0.0656606
0.0584871
0.0545488
0.0484639
0.0594295
0.0862519
0.119313
0.158891
0.286006
0.416379
0.543355
0.76141
1.02509
1.28862
1.53387
1.72355
1.81699
1.84812
1.84965
1.84576
1.81405
1.61793
1.24997
1.03565
1.00134
1.00002
1
1
1
1
1
1
1
1
1
0.0625817
0.0572433
0.0548912
0.047376
0.0594717
0.0942688
0.126988
0.203553
0.340761
0.459458
0.650591
0.908327
1.15863
1.41136
1.64485
1.78733
1.83709
1.85
1.84649
1.83608
1.76232
1.51327
1.17477
1.01841
1.00051
1.00001
1
1
1
1
1
1
1
1
1
0.0613793
0.0569563
0.0576194
0.051601
0.060012
0.0976627
0.149264
0.27502
0.39144
0.538624
0.791484
1.04183
1.29449
1.54982
1.74162
1.82271
1.84476
1.84925
1.84336
1.8197
1.71994
1.43961
1.11338
1.00793
1.00016
1
1
1
1
1
1
1
1
1
1
0.0599869
0.0533673
0.0565661
0.0585694
0.0733457
0.115588
0.200952
0.325334
0.446808
0.682388
0.930413
1.18702
1.45665
1.67127
1.80125
1.83809
1.84619
1.84804
1.84583
1.81787
1.68735
1.33741
1.05604
1.00265
1.00004
1
1
1
1
1
1
1
1
1
1
0.0585828
0.0477006
0.0486663
0.0623572
0.0858636
0.151084
0.261586
0.381592
0.573215
0.823195
1.07881
1.3665
1.60251
1.75284
1.83356
1.84351
1.84652
1.84781
1.84917
1.8206
1.60177
1.20233
1.02274
1.00076
1.00001
1
1
1
1
1
1
1
1
1
1
0.0593185
0.0440021
0.0424858
0.0640841
0.10498
0.194633
0.318316
0.469196
0.724972
0.980594
1.27224
1.53251
1.71088
1.80379
1.84773
1.84505
1.84823
1.84659
1.84218
1.7564
1.44033
1.11564
1.00945
1.00022
1
1
1
1
1
1
1
1
1
1
1
0.0636378
0.0409081
0.042591
0.0701201
0.144379
0.250544
0.398356
0.63736
0.893017
1.17654
1.45865
1.66755
1.78508
1.82873
1.85139
1.84569
1.85115
1.84381
1.81117
1.65911
1.33266
1.06728
1.00366
1.00006
1
1
1
1
1
1
1
1
1
1
1
0.0625719
0.0361685
0.0551535
0.0930735
0.193703
0.328991
0.534069
0.810398
1.08856
1.38964
1.61927
1.76668
1.82306
1.83705
1.853
1.84585
1.85251
1.84561
1.78144
1.58549
1.23781
1.03062
1.0011
1.00002
1
1
1
1
1
1
1
1
1
1
1
0.0562909
0.0307914
0.0660678
0.129024
0.251062
0.465501
0.739705
1.02036
1.32552
1.57554
1.74073
1.82235
1.83616
1.83905
1.85522
1.84865
1.85311
1.84911
1.76697
1.48432
1.12407
1.00975
1.00025
1
1
1
1
1
1
1
1
1
1
1
1
0.0386297
0.0383035
0.074978
0.200267
0.387614
0.652777
0.9672
1.27295
1.53889
1.71949
1.8125
1.84364
1.83905
1.83951
1.8587
1.85246
1.84885
1.83554
1.69966
1.30841
1.0504
1.00259
1.00005
1
1
1
1
1
1
1
1
1
1
1
1
0.0275062
0.0498598
0.126701
0.310406
0.594984
0.917449
1.23301
1.51614
1.70377
1.80452
1.84326
1.84746
1.84025
1.84137
1.86208
1.85361
1.83819
1.77433
1.52672
1.17792
1.02088
1.00069
1.00001
1
1
1
1
1
1
1
1
1
1
1
1
0.0181477
0.0755126
0.234424
0.509618
0.866792
1.22698
1.51265
1.6974
1.79931
1.83996
1.85161
1.84816
1.84052
1.8432
1.86404
1.84627
1.82413
1.70794
1.40623
1.10169
1.00744
1.00016
1
1
1
1
1
1
1
1
1
1
1
1
1
0.00735389
0.111775
0.427519
0.856829
1.23523
1.52095
1.70876
1.80046
1.83668
1.85
1.85292
1.84862
1.84081
1.84528
1.86451
1.83128
1.81439
1.64379
1.27527
1.03964
1.00166
1.00003
1
1
1
1
1
1
1
1
1
1
1
1
1
0.0299786
0.305154
0.817702
1.25385
1.5589
1.73288
1.80988
1.83677
1.84554
1.85213
1.8541
1.84874
1.84086
1.84693
1.86448
1.82453
1.79265
1.50851
1.12461
1.00918
1.00024
1
1
1
1
1
1
1
1
1
1
1
1
1
1
0.208724
0.738161
1.29279
1.61178
1.76475
1.82477
1.84096
1.84404
1.84743
1.85405
1.8557
1.84807
1.83954
1.84723
1.86146
1.82287
1.6706
1.29219
1.04329
1.00183
1.00003
1
1
1
1
1
1
1
1
1
1
1
1
1
1
0.803281
1.35502
1.69391
1.80955
1.84108
1.84564
1.84467
1.84493
1.84986
1.85714
1.85632
1.84533
1.8366
1.84701
1.85192
1.78101
1.52406
1.14982
1.01192
1.00021
1
1
1
1
1
1
1
1
1
1
1
1
1
1
1
1.84579
1.84885
1.85003
1.85057
1.85027
1.84615
1.84418
1.84567
1.85289
1.85845
1.85528
1.84057
1.83314
1.84615
1.8372
1.70496
1.36019
1.04334
0.999478
0.999938
0.999999
1
1
1
1
1
1
1
1
1
1
1
1
1
1
1.84547
1.84789
1.8492
1.84993
1.85012
1.84673
1.84486
1.8443
1.84946
1.85739
1.8566
1.84383
1.82864
1.83497
1.84172
1.71586
1.31691
1.0435
1.00139
1.00001
1
1
1
1
1
1
1
1
1
1
1
1
1
1
1
1.84756
1.84815
1.84944
1.85016
1.8504
1.84879
1.8464
1.84523
1.84685
1.85255
1.85427
1.84778
1.82958
1.83166
1.8337
1.62044
1.2015
1.01456
1.0002
1
1
1
1
1
1
1
1
1
1
1
1
1
1
1
1
1.84963
1.84917
1.84996
1.8502
1.85058
1.8508
1.84946
1.84706
1.84506
1.84705
1.85162
1.85432
1.83876
1.82768
1.81036
1.51947
1.13618
1.00709
1.00008
1
1
1
1
1
1
1
1
1
1
1
1
1
1
1
1
1.85095
1.85005
1.84966
1.84977
1.85063
1.85173
1.85266
1.84906
1.84446
1.84254
1.85077
1.85971
1.84966
1.81626
1.76576
1.43334
1.07902
1.00263
1.00002
1
1
1
1
1
1
1
1
1
1
1
1
1
1
1
1
1.85178
1.85044
1.84888
1.84839
1.84998
1.85249
1.85431
1.85115
1.84382
1.84007
1.84914
1.86425
1.85779
1.81056
1.70502
1.33361
1.04108
1.001
1.00001
1
1
1
1
1
1
1
1
1
1
1
1
1
1
1
1
1.85125
1.84963
1.84755
1.84702
1.84882
1.8527
1.85478
1.85221
1.84357
1.83876
1.84718
1.86627
1.85907
1.80324
1.63913
1.24125
1.02082
1.00034
1
1
1
1
1
1
1
1
1
1
1
1
1
1
1
1
1
1.84991
1.84821
1.84615
1.84576
1.8475
1.85206
1.85432
1.85261
1.84394
1.83844
1.84375
1.86312
1.85614
1.78387
1.56623
1.15986
1.00935
1.00011
1
1
1
1
1
1
1
1
1
1
1
1
1
1
1
1
1
1.8487
1.84778
1.84568
1.84528
1.84667
1.84923
1.85193
1.85275
1.84566
1.83981
1.84192
1.85656
1.84782
1.74432
1.4694
1.09083
1.00349
1.00003
1
1
1
1
1
1
1
1
1
1
1
1
1
1
1
1
1
1.84805
1.84788
1.84627
1.8456
1.84674
1.84706
1.84903
1.85161
1.84954
1.84305
1.8413
1.85432
1.8444
1.70686
1.35916
1.04961
1.00129
1.00001
1
1
1
1
1
1
1
1
1
1
1
1
1
1
1
1
1
1.84823
1.84894
1.8482
1.84775
1.84862
1.84639
1.84572
1.85087
1.85231
1.84862
1.83881
1.84504
1.84119
1.6621
1.25468
1.02368
1.00041
1
1
1
1
1
1
1
1
1
1
1
1
1
1
1
1
1
1
1.8493
1.85041
1.85055
1.85071
1.85042
1.84578
1.84393
1.84767
1.85411
1.85714
1.83629
1.82346
1.81282
1.57496
1.16134
1.00962
1.00012
1
1
1
1
1
1
1
1
1
1
1
1
1
1
1
1
1
1
1.84941
1.85092
1.85258
1.85299
1.85191
1.84559
1.84344
1.84504
1.85526
1.86137
1.84416
1.80615
1.77244
1.47433
1.09838
1.00388
1.00004
1
1
1
1
1
1
1
1
1
1
1
1
1
1
1
1
1
1
1.84958
1.85084
1.85355
1.85379
1.85259
1.84636
1.84296
1.84424
1.8548
1.8624
1.85182
1.80242
1.73492
1.36744
1.05092
1.00133
1.00001
1
1
1
1
1
1
1
1
1
1
1
1
1
1
1
1
1
1
1.84992
1.85046
1.85339
1.85374
1.85263
1.84778
1.84359
1.8436
1.85329
1.86206
1.8542
1.79805
1.66932
1.24489
1.02214
1.00039
1
1
1
1
1
1
1
1
1
1
1
1
1
1
1
1
1
1
1
1.84859
1.84852
1.85015
1.85086
1.85059
1.84979
1.8449
1.8428
1.84894
1.86206
1.85302
1.77265
1.55955
1.15787
1.00946
1.00012
1
1
1
1
1
1
1
1
1
1
1
1
1
1
1
1
1
1
1
1.84676
1.84624
1.84674
1.84705
1.84865
1.85079
1.84814
1.84222
1.84276
1.86232
1.85378
1.75671
1.45761
1.08839
1.00321
1.00003
1
1
1
1
1
1
1
1
1
1
1
1
1
1
1
1
1
1
1
1.84678
1.84588
1.84521
1.84489
1.84712
1.85082
1.85092
1.84161
1.83464
1.84667
1.84979
1.72561
1.33217
1.04047
1.00097
1.00001
1
1
1
1
1
1
1
1
1
1
1
1
1
1
1
1
1
1
1
1.84741
1.84659
1.84477
1.84418
1.84505
1.85109
1.85275
1.84702
1.82887
1.82669
1.82442
1.62741
1.22385
1.01811
1.00029
1
1
1
1
1
1
1
1
1
1
1
1
1
1
1
1
1
1
1
1
1.84884
1.84902
1.84618
1.8457
1.84397
1.84871
1.85332
1.85486
1.83192
1.81486
1.80367
1.54161
1.13667
1.00676
1.00007
1
1
1
1
1
1
1
1
1
1
1
1
1
1
1
1
1
1
1
1
1.85083
1.85138
1.84899
1.84871
1.84544
1.84707
1.85323
1.85909
1.8459
1.80982
1.77683
1.41271
1.06529
1.00205
1.00002
1
1
1
1
1
1
1
1
1
1
1
1
1
1
1
1
1
1
1
1
1.85129
1.85201
1.85075
1.85128
1.84697
1.84543
1.85169
1.86163
1.85372
1.80023
1.68335
1.27843
1.02977
1.0006
1
1
1
1
1
1
1
1
1
1
1
1
1
1
1
1
1
1
1
1
1
1.85071
1.852
1.85181
1.85289
1.84792
1.84501
1.8486
1.86459
1.85717
1.78259
1.586
1.17905
1.01144
1.00015
1
1
1
1
1
1
1
1
1
1
1
1
1
1
1
1
1
1
1
1
1
1.84967
1.85002
1.85167
1.85331
1.84947
1.84218
1.84366
1.86405
1.85836
1.77677
1.467
1.08889
1.00335
1.00003
1
1
1
1
1
1
1
1
1
1
1
1
1
1
1
1
1
1
1
1
1
1.8481
1.8464
1.84905
1.85136
1.84982
1.84068
1.83429
1.84696
1.85056
1.71392
1.32505
1.03919
1.00094
1.00001
1
1
1
1
1
1
1
1
1
1
1
1
1
1
1
1
1
1
1
1
1
1.84667
1.84433
1.84478
1.84748
1.84873
1.84562
1.82995
1.83129
1.82652
1.61824
1.21055
1.01553
1.00023
1
1
1
1
1
1
1
1
1
1
1
1
1
1
1
1
1
1
1
1
1
1
1.84738
1.84355
1.84015
1.84059
1.84582
1.85388
1.83639
1.82072
1.81061
1.51554
1.10939
1.00462
1.00005
1
1
1
1
1
1
1
1
1
1
1
1
1
1
1
1
1
1
1
1
1
1
1.84894
1.84426
1.83896
1.83772
1.8449
1.85852
1.85205
1.811
1.752
1.35319
1.04614
1.0012
1.00001
1
1
1
1
1
1
1
1
1
1
1
1
1
1
1
1
1
1
1
1
1
1
1.85047
1.84753
1.84228
1.8396
1.84608
1.86318
1.86032
1.79615
1.63769
1.22198
1.01815
1.00028
1
1
1
1
1
1
1
1
1
1
1
1
1
1
1
1
1
1
1
1
1
1
1
1.84935
1.85026
1.84662
1.84475
1.84774
1.86782
1.86592
1.77685
1.51581
1.1157
1.00508
1.00006
1
1
1
1
1
1
1
1
1
1
1
1
1
1
1
1
1
1
1
1
1
1
1
1.84638
1.85078
1.84952
1.84937
1.84388
1.86485
1.86986
1.75278
1.35119
1.04439
1.00116
1.00001
1
1
1
1
1
1
1
1
1
1
1
1
1
1
1
1
1
1
1
1
1
1
1
1.84271
1.84721
1.85072
1.85582
1.83863
1.84972
1.85269
1.62672
1.2075
1.01568
1.00024
1
1
1
1
1
1
1
1
1
1
1
1
1
1
1
1
1
1
1
1
1
1
1
1
1.8402
1.84145
1.84873
1.86424
1.84738
1.83539
1.8103
1.49902
1.10492
1.00425
1.00004
1
1
1
1
1
1
1
1
1
1
1
1
1
1
1
1
1
1
1
1
1
1
1
1
1.84026
1.83606
1.83685
1.8662
1.86731
1.83051
1.74531
1.32991
1.03627
1.00086
1.00001
1
1
1
1
1
1
1
1
1
1
1
1
1
1
1
1
1
1
1
1
1
1
1
1
1.84109
1.83359
1.82725
1.86497
1.87945
1.82178
1.60869
1.17004
1.01078
1.00015
1
1
1
1
1
1
1
1
1
1
1
1
1
1
1
1
1
1
1
1
1
1
1
1
1
1.841
1.83393
1.82565
1.87012
1.88172
1.76786
1.44386
1.07625
1.00257
1.00002
1
1
1
1
1
1
1
1
1
1
1
1
1
1
1
1
1
1
1
1
1
1
1
1
1
1.83563
1.8391
1.83458
1.87709
1.88652
1.70384
1.26366
1.02295
1.00043
1
1
1
1
1
1
1
1
1
1
1
1
1
1
1
1
1
1
1
1
1
1
1
1
1
1
1.82908
1.84926
1.85794
1.86994
1.86668
1.54447
1.114
1.00527
1.00006
1
1
1
1
1
1
1
1
1
1
1
1
1
1
1
1
1
1
1
1
1
1
1
1
1
1
1.82483
1.86594
1.89879
1.84996
1.77027
1.34046
1.04161
1.00099
1.00001
1
1
1
1
1
1
1
1
1
1
1
1
1
1
1
1
1
1
1
1
1
1
1
1
1
1
1.83497
1.89041
1.91852
1.84917
1.62243
1.16642
1.00987
1.00014
1
1
1
1
1
1
1
1
1
1
1
1
1
1
1
1
1
1
1
1
1
1
1
1
1
1
1
1.84435
1.89473
1.92488
1.82066
1.39541
1.05387
1.00158
1.00002
1
1
1
1
1
1
1
1
1
1
1
1
1
1
1
1
1
1
1
1
1
1
1
1
1
1
1
1.85337
1.89311
1.91478
1.64626
1.1933
1.01362
1.00022
1
1
1
1
1
1
1
1
1
1
1
1
1
1
1
1
1
1
1
1
1
1
1
1
1
1
1
1
1.92579
1.90511
1.8469
1.43252
1.07144
1.00238
1.00002
1
1
1
1
1
1
1
1
1
1
1
1
1
1
1
1
1
1
1
1
1
1
1
1
1
1
1
1
2.04984
1.84368
1.70243
1.20793
1.01597
1.00031
1
1
1
1
1
1
1
1
1
1
1
1
1
1
1
1
1
1
1
1
1
1
1
1
1
1
1
1
1
2.13616
1.74988
1.42658
1.07051
1.00277
1.00003
1
1
1
1
1
1
1
1
1
1
1
1
1
1
1
1
1
1
1
1
1
1
1
1
1
1
1
1
1
2.16364
1.60958
1.20591
1.01802
1.00042
1
1
1
1
1
1
1
1
1
1
1
1
1
1
1
1
1
1
1
1
1
1
1
1
1
1
1
1
1
1
2.04002
1.40257
1.08044
1.00375
1.00006
1
1
1
1
1
1
1
1
1
1
1
1
1
1
1
1
1
1
1
1
1
1
1
1
1
1
1
1
1
1
1.81762
1.22815
1.02305
1.00058
1.00001
1
1
1
1
1
1
1
1
1
1
1
1
1
1
1
1
1
1
1
1
1
1
1
1
1
1
1
1
1
1
1.5303
1.09055
1.00451
1.00006
1
1
1
1
1
1
1
1
1
1
1
1
1
1
1
1
1
1
1
1
1
1
1
1
1
1
1
1
1
1
1
1.20316
1.01801
1.00031
1
1
1
1
1
1
1
1
1
1
1
1
1
1
1
1
1
1
1
1
1
1
1
1
1
1
1
1
1
1
1
1
1
1
1
1
1
1
1
1
1
1
1
1
1
1
1
1
1
1
1
1
1
1
1
1
1
1
1
1
1
1
1
1
1
1
1
1
1
1
1
1
1
1
1
1
1
1
1
1
1
1
1
1
1
1
1
1
1
1
1
1
1
1
1
1
1
1
1
1
1
1
1
1
1
1
1
1
1
1
1
1
1
1
1
1
1
1
1
1
1
1
1
1
1
1
1
1
1
1
1
1
1
1
1
1
1
1
1
1
1
1
1
1
1
1
1
1
1
1
1
1
1
1
1
1
1
1
1
1
1
1
1
1
1
1
1
1
1
1
1
1
1
1
1
1
1
1
1
1
1
1
1
1
1
1
1
1
1
1
1
1
1
1
1
1
1
1
1
1
1
1
1
1
1
1
1
1
1
1
1
1
1
1
1
1
1
1
1
1
1
1
1
1
1
1
1
1
1
1
1
1
1
1
1
1
1
1
1
1
1
1
1
1
1
1
1
1
1
1