/*--------------------------------*- C++ -*----------------------------------*\
  =========                 |
  \\      /  F ield         | OpenFOAM: The Open Source CFD Toolbox
   \\    /   O peration     | Website:  https://openfoam.org
    \\  /    A nd           | Version:  7
     \\/     M anipulation  |
\*---------------------------------------------------------------------------*/
FoamFile
{
    version     2.0;
    format      ascii;
    class       volVectorField;
    location    "6";
    object      U;
}
// * * * * * * * * * * * * * * * * * * * * * * * * * * * * * * * * * * * * * //

dimensions      [0 1 -1 0 0 0 0];

internalField   nonuniform List<vector> 
1750
(
(2.60171 -0.479019 0)
(2.58536 -0.22625 0)
(2.58426 -0.0802901 0)
(2.58773 -0.0765312 0)
(2.59687 -0.0644972 0)
(2.60528 0.0322251 0)
(2.62731 0.0965286 0)
(2.64461 0.0964717 0)
(2.63678 0.0684869 0)
(2.66302 0.0396357 0)
(2.7681 -1.03094 0)
(2.76492 -0.92065 0)
(2.70937 -0.584181 0)
(2.78728 -0.543771 0)
(2.69665 -0.234836 0)
(2.68396 -0.041084 0)
(2.64913 0.131418 0)
(2.63557 0.094215 0)
(2.62892 0.059113 0)
(2.69512 0.0218508 0)
(2.97422 -1.32941 0)
(3.04842 -1.34095 0)
(3.08763 -1.35247 0)
(3.10306 -1.31355 0)
(3.07093 -1.1275 0)
(3.01522 -0.863921 0)
(2.94975 -0.499915 0)
(2.89383 -0.255535 0)
(2.82698 -0.0637509 0)
(2.77791 0.0211512 0)
(3.04215 -1.39185 0)
(3.06189 -1.33512 0)
(3.10927 -1.26389 0)
(3.1763 -1.18345 0)
(3.15933 -1.20371 0)
(3.14322 -1.20478 0)
(3.14256 -1.15496 0)
(3.09636 -0.883997 0)
(3.04215 -0.638963 0)
(2.94564 -0.258436 0)
(3.1341 -1.0158 0)
(3.11696 -0.983611 0)
(3.14202 -0.92024 0)
(3.15448 -0.903651 0)
(3.13892 -0.912759 0)
(3.11038 -0.976993 0)
(3.13319 -0.971955 0)
(3.13859 -0.996519 0)
(3.14618 -0.976452 0)
(3.10763 -0.75852 0)
(3.16763 -0.838599 0)
(3.13421 -0.822563 0)
(3.13514 -0.816348 0)
(3.14807 -0.823964 0)
(3.1457 -0.832479 0)
(3.138 -0.834504 0)
(3.12939 -0.844068 0)
(3.13608 -0.83931 0)
(3.15351 -0.815335 0)
(3.14637 -0.8121 0)
(3.15392 -0.499522 0)
(3.12845 -0.581884 0)
(3.11957 -0.584366 0)
(3.12423 -0.571006 0)
(3.14206 -0.564292 0)
(3.13812 -0.578553 0)
(3.1176 -0.589094 0)
(3.10501 -0.609636 0)
(3.10904 -0.630888 0)
(3.10904 -0.67335 0)
(3.06498 -0.21777 0)
(3.05828 -0.231311 0)
(3.0517 -0.298095 0)
(3.05914 -0.378855 0)
(3.0692 -0.402867 0)
(3.08428 -0.4088 0)
(3.0888 -0.445096 0)
(3.07222 -0.475304 0)
(3.07133 -0.534669 0)
(3.07912 -0.562834 0)
(2.9474 -0.0103337 0)
(2.95813 -0.0620812 0)
(2.95646 -0.0405183 0)
(2.98212 -0.121732 0)
(2.99109 -0.192203 0)
(3.00262 -0.207652 0)
(3.02616 -0.258057 0)
(3.03173 -0.293513 0)
(3.02747 -0.321612 0)
(3.03316 -0.357959 0)
(2.77538 0.339462 0)
(2.82898 0.217454 0)
(2.85345 0.164664 0)
(2.87142 0.135255 0)
(2.90453 0.0312507 0)
(2.91879 -0.0023969 0)
(2.94922 -0.0548195 0)
(2.97056 -0.108864 0)
(2.97692 -0.148091 0)
(2.99449 -0.215839 0)
(2.69204 0.508534 0)
(2.71097 0.468168 0)
(2.73455 0.428518 0)
(2.76229 0.390609 0)
(2.80458 0.309668 0)
(2.83135 0.244007 0)
(2.86554 0.173054 0)
(2.89422 0.108797 0)
(2.91837 0.0356127 0)
(2.94817 -0.0447044 0)
(2.70982 0.491708 0)
(2.70952 0.497103 0)
(2.70514 0.506722 0)
(2.70717 0.503614 0)
(2.72347 0.478913 0)
(2.73997 0.453932 0)
(2.77046 0.410498 0)
(2.80286 0.357044 0)
(2.83657 0.28113 0)
(2.88276 0.173512 0)
(2.82158 0.333753 0)
(2.79376 0.373378 0)
(2.75383 0.448889 0)
(2.74589 0.453379 0)
(2.74228 0.458531 0)
(2.74247 0.46759 0)
(2.74549 0.466679 0)
(2.75342 0.458611 0)
(2.76442 0.440694 0)
(2.80517 0.386535 0)
(2.96789 0.0624503 0)
(2.94508 0.0978046 0)
(2.90823 0.166833 0)
(2.88629 0.210518 0)
(2.84237 0.291816 0)
(2.82177 0.335509 0)
(2.80383 0.388361 0)
(2.78594 0.412036 0)
(2.79928 0.430936 0)
(2.7958 0.415879 0)
(2.99898 0.00147622 0)
(2.99748 0.00321567 0)
(2.99346 0.00870048 0)
(2.98684 0.0169149 0)
(2.97062 0.0373193 0)
(2.94623 0.0623764 0)
(2.90631 0.111984 0)
(2.86073 0.144797 0)
(2.8112 0.202237 0)
(2.75048 0.227983 0)
(2.63719 -1.05554 0)
(2.72607 -1.03534 0)
(2.96356 -1.20523 0)
(3.08743 -1.45484 0)
(3.18774 -1.06646 0)
(3.19621 -0.796352 0)
(3.13712 -0.385585 0)
(3.04172 -0.177824 0)
(2.88733 0.130276 0)
(2.75589 0.377467 0)
(2.67167 0.54123 0)
(2.7044 0.496166 0)
(2.84105 0.310688 0)
(2.98139 0.0381493 0)
(2.99955 0.000732471 0)
(2.55201 -1.07362 0)
(2.72858 -1.0771 0)
(3.0612 -1.181 0)
(3.18035 -1.29987 0)
(3.23895 -0.935077 0)
(3.15405 -0.515792 0)
(3.081 -0.336387 0)
(2.99369 -0.149673 0)
(2.83647 0.215231 0)
(2.7166 0.434097 0)
(2.66185 0.555685 0)
(2.71307 0.522527 0)
(2.90089 0.196957 0)
(2.99181 0.0169783 0)
(2.99985 0.000244124 0)
(2.49327 -1.09776 0)
(2.71928 -1.1117 0)
(3.09709 -1.16328 0)
(3.17764 -1.21969 0)
(3.16483 -0.863035 0)
(3.10091 -0.491206 0)
(3.04663 -0.371395 0)
(2.94826 -0.0138803 0)
(2.8225 0.237597 0)
(2.66756 0.510134 0)
(2.66758 0.549388 0)
(2.72787 0.48162 0)
(2.91969 0.149544 0)
(2.99608 0.00734041 0)
(2.99994 8.6763e-05 0)
(2.45593 -1.1735 0)
(2.72903 -1.27604 0)
(3.10206 -1.14317 0)
(3.06565 -1.19723 0)
(3.08191 -0.895246 0)
(3.08515 -0.576016 0)
(3.05866 -0.241365 0)
(2.87984 0.184665 0)
(2.76122 0.366509 0)
(2.64307 0.548786 0)
(2.6749 0.526264 0)
(2.81443 0.324156 0)
(2.96215 0.0689252 0)
(2.99874 0.00218812 0)
(2.99998 2.43157e-05 0)
(2.44904 -1.22233 0)
(2.76009 -1.44476 0)
(3.02485 -1.21586 0)
(3.02995 -1.20142 0)
(3.11669 -0.768036 0)
(3.11795 -0.478402 0)
(2.97023 0.0774731 0)
(2.87265 0.21049 0)
(2.68107 0.491907 0)
(2.63018 0.578524 0)
(2.68045 0.501913 0)
(2.8638 0.250232 0)
(2.98829 0.0253255 0)
(2.99971 0.00060739 0)
(3 5.92377e-06 0)
(2.36344 -1.23965 0)
(2.71796 -1.48004 0)
(2.99851 -1.22905 0)
(3.12518 -1.00064 0)
(3.13404 -0.476372 0)
(3.06635 -0.115685 0)
(2.94628 0.111847 0)
(2.79967 0.304934 0)
(2.64418 0.545334 0)
(2.62219 0.594536 0)
(2.7034 0.515395 0)
(2.90034 0.203648 0)
(2.99395 0.0135516 0)
(2.99991 0.000200509 0)
(3 1.726e-06 0)
(2.29246 -1.22543 0)
(2.65917 -1.49774 0)
(3.00318 -1.18494 0)
(3.17126 -0.594856 0)
(3.15967 -0.416215 0)
(2.97229 0.0393175 0)
(2.89553 0.112298 0)
(2.69567 0.472197 0)
(2.61348 0.598925 0)
(2.62432 0.593663 0)
(2.75477 0.440971 0)
(2.95856 0.085995 0)
(2.99838 0.00347287 0)
(2.99998 4.98605e-05 0)
(3 4.31168e-07 0)
(2.20621 -1.24486 0)
(2.5644 -1.51293 0)
(2.9956 -0.800148 0)
(3.10417 -0.441182 0)
(3.0671 -0.383224 0)
(2.94601 0.0104033 0)
(2.81582 0.305883 0)
(2.64231 0.559879 0)
(2.59945 0.620275 0)
(2.66402 0.550467 0)
(2.87386 0.254015 0)
(2.98612 0.0318728 0)
(2.99964 0.000811454 0)
(3 1.01346e-05 0)
(3 8.66675e-08 0)
(2.09504 -1.03544 0)
(2.5509 -1.5081 0)
(3.01525 -0.632196 0)
(3.06771 -0.571994 0)
(2.99924 -0.118617 0)
(2.89825 0.178317 0)
(2.70884 0.485245 0)
(2.59976 0.620878 0)
(2.60188 0.620065 0)
(2.72501 0.466614 0)
(2.91856 0.166777 0)
(2.99538 0.0109214 0)
(2.99992 0.00018595 0)
(3 2.07839e-06 0)
(3 1.69706e-08 0)
(1.914 -0.727507 0)
(2.60408 -1.15153 0)
(3.00753 -0.727556 0)
(3.05098 -0.361217 0)
(2.88998 0.19342 0)
(2.77523 0.426899 0)
(2.65118 0.566098 0)
(2.57903 0.646029 0)
(2.60982 0.598214 0)
(2.76741 0.410683 0)
(2.96583 0.0695607 0)
(2.99896 0.00227098 0)
(2.99998 3.55991e-05 0)
(3 3.88384e-07 0)
(3 3.09535e-09 0)
(1.76671 -0.403039 0)
(2.66879 -0.847022 0)
(3.03132 -0.589663 0)
(2.93362 0.135899 0)
(2.84496 0.308665 0)
(2.69882 0.516202 0)
(2.58798 0.640698 0)
(2.5776 0.645084 0)
(2.67277 0.513202 0)
(2.89573 0.190733 0)
(2.99351 0.0142042 0)
(2.99983 0.000391476 0)
(3 5.40027e-06 0)
(3 5.84572e-08 0)
(3 4.69746e-10 0)
(1.57236 0.340068 0)
(2.73866 -0.613341 0)
(2.99584 -0.0482075 0)
(2.86062 0.322792 0)
(2.74024 0.468826 0)
(2.61883 0.609495 0)
(2.56876 0.658431 0)
(2.59434 0.598804 0)
(2.74258 0.426558 0)
(2.96731 0.0647432 0)
(2.99873 0.00325386 0)
(2.99998 5.44112e-05 0)
(3 6.82191e-07 0)
(3 7.15322e-09 0)
(3 5.65482e-11 0)
(1.48023 0.800341 0)
(2.8714 -0.0534422 0)
(2.89073 0.300188 0)
(2.76157 0.463682 0)
(2.63615 0.610539 0)
(2.56795 0.670477 0)
(2.56581 0.656475 0)
(2.6617 0.52641 0)
(2.91696 0.160449 0)
(2.99298 0.0171196 0)
(2.99982 0.000406062 0)
(3 6.24596e-06 0)
(3 7.48048e-08 0)
(3 7.45647e-10 0)
(3 5.65443e-12 0)
(2.05675 0.629139 0)
(2.92478 0.32659 0)
(2.78536 0.477756 0)
(2.63284 0.636411 0)
(2.57946 0.67238 0)
(2.54736 0.70298 0)
(2.60493 0.577886 0)
(2.7715 0.374909 0)
(2.97235 0.0551627 0)
(2.99928 0.00183852 0)
(2.99999 3.28713e-05 0)
(3 4.34396e-07 0)
(3 4.85641e-09 0)
(3 4.73267e-11 0)
(3 3.56216e-13 0)
(2.42767 0.653233 0)
(2.77319 0.5589 0)
(2.62629 0.655565 0)
(2.57252 0.700389 0)
(2.56865 0.687412 0)
(2.53782 0.744173 0)
(2.70892 0.446847 0)
(2.95929 0.0816757 0)
(2.99855 0.00493611 0)
(2.99997 9.04554e-05 0)
(3 1.25634e-06 0)
(3 1.44656e-08 0)
(3 1.4304e-10 0)
(3 1.1794e-12 0)
(3 9.09617e-15 0)
(2.52817 0.693155 0)
(2.54592 0.695464 0)
(2.56312 0.708027 0)
(2.55985 0.717538 0)
(2.5681 0.691904 0)
(2.6044 0.621404 0)
(2.89224 0.155017 0)
(3.00376 -0.00595332 0)
(3.00046 -0.000671303 0)
(3.00001 -1.46176e-05 0)
(3 -1.27599e-07 0)
(3 -8.79496e-10 0)
(3 -5.7265e-12 0)
(3 -3.63409e-14 0)
(3 1.25375e-15 0)
(2.52512 0.683027 0)
(2.55365 0.674883 0)
(2.56557 0.709181 0)
(2.54821 0.739424 0)
(2.57262 0.68345 0)
(2.73205 0.458752 0)
(2.93453 0.102063 0)
(2.9979 0.00305425 0)
(2.99998 3.77492e-05 0)
(3 2.99738e-07 0)
(3 2.1087e-09 0)
(3 1.44187e-11 0)
(3 1.02987e-13 0)
(3 3.69933e-15 0)
(3 1.54398e-15 0)
(2.53207 0.691183 0)
(2.55355 0.660202 0)
(2.55945 0.708019 0)
(2.53873 0.758626 0)
(2.56727 0.685993 0)
(2.76883 0.3341 0)
(2.98747 0.0163386 0)
(2.99993 9.37728e-05 0)
(3 1.47475e-07 0)
(3 7.01673e-10 0)
(3 6.76209e-12 0)
(3 1.21489e-13 0)
(3 2.53674e-15 0)
(3 3.89626e-15 0)
(3 1.93148e-15 0)
(2.52881 0.702755 0)
(2.5495 0.661814 0)
(2.55048 0.707262 0)
(2.54595 0.757793 0)
(2.61842 0.598197 0)
(2.89251 0.14657 0)
(2.99714 0.00408287 0)
(2.99999 8.41758e-06 0)
(3 3.62478e-08 0)
(3 5.65068e-11 0)
(3 1.9985e-12 0)
(3 5.55931e-14 0)
(3 7.03351e-16 0)
(3 4.13423e-15 0)
(3 1.88811e-15 0)
(2.52529 0.715047 0)
(2.5271 0.706002 0)
(2.54634 0.722142 0)
(2.55289 0.717104 0)
(2.77865 0.361823 0)
(2.9769 0.0336025 0)
(2.99986 0.000154171 0)
(3 6.36118e-07 0)
(3 -6.54392e-10 0)
(3 2.14178e-11 0)
(3 1.47261e-12 0)
(3 2.97795e-14 0)
(3 -5.27451e-16 0)
(3 2.78248e-15 0)
(3 1.77799e-15 0)
(2.51422 0.739089 0)
(2.50454 0.751081 0)
(2.54632 0.731964 0)
(2.57486 0.702103 0)
(2.84877 0.229816 0)
(2.99522 0.00691671 0)
(2.99998 3.10247e-05 0)
(3 -5.88328e-08 0)
(3 2.44645e-10 0)
(3 1.99933e-11 0)
(3 2.05639e-12 0)
(3 8.5906e-15 0)
(3 -1.23762e-15 0)
(3 1.79689e-15 0)
(3 1.89186e-15 0)
(2.51311 0.725911 0)
(2.45685 0.804467 0)
(2.5557 0.726812 0)
(2.6993 0.515335 0)
(2.95887 0.0586393 0)
(2.99961 0.000494389 0)
(3 -5.37265e-07 0)
(3 3.37368e-09 0)
(3 1.40279e-10 0)
(3 8.57181e-12 0)
(3 6.04746e-15 0)
(3 -1.83842e-15 0)
(3 -1.03887e-15 0)
(3 1.60166e-15 0)
(3 1.5932e-15 0)
(2.47903 0.725426 0)
(2.4073 0.865506 0)
(2.7014 0.632847 0)
(2.89328 0.23825 0)
(2.99501 0.0081023 0)
(2.99998 2.54447e-05 0)
(3 2.40156e-07 0)
(3 8.5231e-10 0)
(3 -6.06452e-13 0)
(3 -5.29498e-14 0)
(3 -4.11042e-15 0)
(3 -1.54018e-15 0)
(3 -9.58734e-16 0)
(3 1.24488e-15 0)
(3 1.32313e-15 0)
(2.49139 0.67542 0)
(2.45974 0.930897 0)
(2.746 0.504918 0)
(2.95108 0.0805438 0)
(2.99948 0.000655406 0)
(3 2.84281e-07 0)
(3 -3.39515e-09 0)
(3 -1.60752e-11 0)
(3 -8.02614e-13 0)
(3 -7.48582e-15 0)
(3 -3.33763e-15 0)
(3 -2.29602e-15 0)
(3 -9.25524e-16 0)
(3 -3.7737e-16 0)
(3 4.79443e-16 0)
(2.53587 0.60095 0)
(2.51995 0.816306 0)
(2.89076 0.219061 0)
(2.99502 0.00869952 0)
(2.99998 2.81506e-05 0)
(3 1.49251e-07 0)
(3 4.72225e-10 0)
(3 1.96005e-12 0)
(3 -6.87017e-15 0)
(3 -2.47837e-15 0)
(3 -4.51299e-15 0)
(3 -1.89963e-15 0)
(3 -5.60036e-16 0)
(3 -4.38732e-16 0)
(3 1.92665e-16 0)
(2.57474 0.48203 0)
(2.63866 0.62475 0)
(2.95398 0.0841441 0)
(2.99927 0.00120904 0)
(3 3.47835e-06 0)
(3 -8.92864e-09 0)
(3 -5.79995e-11 0)
(3 -1.86728e-12 0)
(3 -9.99536e-15 0)
(3 -1.69306e-15 0)
(3 -3.53569e-15 0)
(3 -1.92489e-15 0)
(3 5.69413e-17 0)
(3 3.66902e-17 0)
(3 8.75568e-16 0)
(2.62971 0.382213 0)
(2.76527 0.392157 0)
(2.98722 0.0208403 0)
(2.99991 0.000119084 0)
(3 -5.77229e-08 0)
(3 4.29022e-10 0)
(3 -1.03895e-11 0)
(3 -2.16128e-13 0)
(3 -3.28549e-15 0)
(3 -2.26665e-15 0)
(3 -3.55257e-15 0)
(3 -1.4497e-15 0)
(3 3.56189e-16 0)
(3 1.25771e-15 0)
(3 1.68979e-15 0)
(2.73331 0.226766 0)
(2.88461 0.189528 0)
(2.99756 0.00381211 0)
(2.99999 1.19576e-05 0)
(3 1.09364e-07 0)
(3 3.1914e-10 0)
(3 1.16101e-12 0)
(3 1.74189e-15 0)
(3 -2.27789e-15 0)
(3 -2.48237e-15 0)
(3 -2.52346e-15 0)
(3 -7.16466e-16 0)
(3 3.07242e-16 0)
(3 1.44773e-15 0)
(3 2.21196e-15 0)
(2.80609 0.130869 0)
(2.95646 0.0651645 0)
(2.99962 0.000542555 0)
(3 1.42339e-06 0)
(3 -4.6058e-09 0)
(3 -1.16943e-11 0)
(3 -7.35399e-13 0)
(3 -1.81778e-15 0)
(3 -7.83575e-16 0)
(3 -2.19485e-15 0)
(3 -1.74062e-15 0)
(3 -1.22041e-16 0)
(3 -3.71273e-16 0)
(3 1.37822e-15 0)
(3 2.37542e-15 0)
(2.9161 0.0230695 0)
(2.99215 0.010879 0)
(2.99997 3.40694e-05 0)
(3 -1.90878e-08 0)
(3 8.48782e-11 0)
(3 -1.04064e-12 0)
(3 -5.62607e-15 0)
(3 -6.345e-17 0)
(3 -1.21922e-15 0)
(3 -3.02403e-15 0)
(3 -8.06803e-16 0)
(3 5.67142e-17 0)
(3 -1.23144e-15 0)
(3 1.1462e-15 0)
(3 2.54185e-15 0)
(3 3.15609e-15 0)
(3 4.06214e-15 0)
(3 1.41643e-15 0)
(3 2.64817e-16 0)
(3 1.59728e-15 0)
(3 2.94084e-15 0)
(3 1.43301e-15 0)
(3 6.14046e-16 0)
(3 -4.74375e-16 0)
(3 -2.72396e-15 0)
(3 -1.11413e-15 0)
(3 -4.76894e-16 0)
(3 -1.26589e-15 0)
(3 5.01903e-16 0)
(3 2.35401e-15 0)
(3 1.8421e-15 0)
(3 3.10617e-15 0)
(3 8.88115e-16 0)
(3 -4.43726e-16 0)
(3 2.17439e-15 0)
(3 2.99716e-15 0)
(3 1.21082e-15 0)
(3 1.02379e-15 0)
(3 1.57867e-16 0)
(3 -1.6643e-15 0)
(3 -1.50036e-15 0)
(3 -1.12546e-15 0)
(3 -2.16386e-15 0)
(3 3.65011e-16 0)
(3 2.26711e-15 0)
(3 8.26619e-16 0)
(3 2.22063e-15 0)
(3 9.004e-16 0)
(3 -8.32908e-16 0)
(3 1.88784e-15 0)
(3 2.81214e-15 0)
(3 1.19381e-15 0)
(3 1.16462e-15 0)
(3 5.7923e-16 0)
(3 -9.95691e-16 0)
(3 -1.98268e-15 0)
(3 -1.40243e-15 0)
(3 -2.72655e-15 0)
(3 -2.50868e-16 0)
(3 1.83138e-15 0)
(3 1.396e-15 0)
(3 1.9333e-15 0)
(3 9.38439e-16 0)
(3 -9.38481e-16 0)
(3 1.12237e-15 0)
(3 2.5356e-15 0)
(3 1.41534e-15 0)
(3 8.93378e-16 0)
(3 1.66127e-15 0)
(3 -4.51635e-16 0)
(3 -2.52001e-15 0)
(3 -1.61146e-15 0)
(3 -2.779e-15 0)
(3 -5.05284e-16 0)
(3 1.31773e-15 0)
(3 2.10596e-15 0)
(3 1.97684e-15 0)
(3 -7.45923e-16 0)
(3 -1.02586e-15 0)
(3 1.45975e-15 0)
(3 1.95744e-15 0)
(3 1.2533e-15 0)
(3 1.16483e-15 0)
(3 2.62223e-15 0)
(3 -2.12033e-16 0)
(3 -2.92511e-15 0)
(3 -1.71743e-15 0)
(3 -3.1073e-15 0)
(3 -1.55386e-16 0)
(3 1.32442e-15 0)
(3 2.48211e-15 0)
(3 1.29743e-15 0)
(3 -3.01748e-15 0)
(3 -1.80334e-15 0)
(3 1.66545e-15 0)
(3 2.69566e-15 0)
(3 2.06885e-15 0)
(3 1.99221e-15 0)
(3 2.95705e-15 0)
(3 -3.82321e-16 0)
(3 -2.39007e-15 0)
(3 -2.46935e-15 0)
(3 -3.77474e-15 0)
(3 2.5219e-16 0)
(3 1.49204e-15 0)
(3 2.9535e-15 0)
(3 5.85e-16 0)
(3 -4.09974e-15 0)
(3 -2.63824e-15 0)
(3 1.44204e-15 0)
(3 3.15215e-15 0)
(3 2.90059e-15 0)
(3 3.17831e-15 0)
(3 2.41854e-15 0)
(3 -5.36005e-16 0)
(3 -2.00632e-15 0)
(3 -2.46102e-15 0)
(3 -3.35475e-15 0)
(3 3.74213e-16 0)
(3 1.1666e-15 0)
(3 2.99893e-15 0)
(3 -2.67115e-16 0)
(3 -2.85922e-15 0)
(3 -1.75202e-15 0)
(3 1.10875e-15 0)
(3 2.38145e-15 0)
(3 2.83943e-15 0)
(3 2.60774e-15 0)
(3 1.80396e-15 0)
(3 4.66706e-17 0)
(3 -1.50257e-15 0)
(3 -1.99206e-15 0)
(3 -2.559e-15 0)
(3 3.17716e-17 0)
(3 8.5682e-16 0)
(3 1.08822e-15 0)
(3 -3.19863e-16 0)
(3 -1.52387e-15 0)
(3 -1.41471e-15 0)
(3 3.54399e-18 0)
(3 8.96066e-16 0)
(3 1.31594e-15 0)
(3 2.21206e-15 0)
(3 2.10162e-15 0)
(3 3.29038e-16 0)
(3 -1.36196e-15 0)
(3 -9.1381e-16 0)
(3 -9.2046e-16 0)
(3 -2.03799e-16 0)
(3 4.95982e-16 0)
(3 4.86941e-16 0)
(3 4.79236e-16 0)
(3 -8.87044e-16 0)
(3 -7.83674e-16 0)
(3 -6.92542e-17 0)
(3 3.37251e-16 0)
(3 5.00692e-16 0)
(3 1.48322e-15 0)
(3 5.61066e-16 0)
(3 4.57582e-17 0)
(3 -7.99671e-16 0)
(3 -1.33145e-16 0)
(3 -1.38833e-16 0)
(3 -2.96223e-16 0)
(3 8.4065e-17 0)
(3 2.46267e-15 0)
(3 6.39179e-16 0)
(3 2.12409e-16 0)
(3 9.18747e-16 0)
(3 1.11242e-15 0)
(3 1.7481e-15 0)
(3 1.25914e-15 0)
(3 1.65573e-15 0)
(3 9.11076e-16 0)
(3 1.42304e-16 0)
(3 6.71317e-16 0)
(3 -4.09185e-16 0)
(3 5.57992e-16 0)
(3 7.65744e-16 0)
(3 8.57073e-16 0)
(3 1.08085e-15 0)
(3 6.13971e-16 0)
(3 -8.21945e-16 0)
(3 2.09791e-15 0)
(3 1.99921e-15 0)
(3 3.05883e-16 0)
(3 7.53394e-16 0)
(3 1.01802e-15 0)
(3 3.60439e-16 0)
(3 4.3555e-16 0)
(3 1.24539e-16 0)
(3 1.42892e-16 0)
(3 -2.74381e-16 0)
(3 5.36583e-16 0)
(3 1.04321e-15 0)
(3 3.39966e-16 0)
(3 2.26488e-15 0)
(3 1.52049e-15 0)
(3 1.02789e-15 0)
(3 9.90127e-16 0)
(3 1.91536e-16 0)
(3 1.42117e-17 0)
(3 -6.61568e-16 0)
(3 -9.69946e-16 0)
(3 -1.18477e-15 0)
(3 -6.38073e-16 0)
(3 7.74247e-16 0)
(3 1.74966e-15 0)
(3 1.76522e-15 0)
(3 1.52601e-15 0)
(3 8.85368e-16 0)
(3 4.89442e-16 0)
(3 1.42365e-16 0)
(3 -5.41667e-16 0)
(3 -9.7141e-16 0)
(3 -8.49039e-16 0)
(3 -1.18973e-15 0)
(3 -7.5747e-16 0)
(3 -6.83672e-17 0)
(3 5.18734e-16 0)
(3 8.56608e-16 0)
(3 1.03557e-15 0)
(3 7.99655e-16 0)
(3 3.68002e-16 0)
(3 -5.03203e-16 0)
(3 -2.31233e-15 0)
(3 -1.18321e-15 0)
(3 -8.56999e-16 0)
(3 -3.1146e-16 0)
(3 -4.53163e-16 0)
(3 -4.26066e-16 0)
(3 -5.83646e-16 0)
(3 -1.69873e-15 0)
(3 -9.34694e-16 0)
(3 -6.93389e-16 0)
(3 -3.42126e-15 0)
(3 -2.51094e-15 0)
(3 -2.05052e-15 0)
(3 -2.30864e-15 0)
(3 -2.82882e-15 0)
(3 -3.28643e-15 0)
(3 -3.79684e-15 0)
(3 -3.22577e-15 0)
(3 -2.27422e-15 0)
(3 8.9084e-18 0)
(3 -3.08886e-15 0)
(3 -3.29083e-15 0)
(3 -3.78522e-15 0)
(3 -4.03341e-15 0)
(3 -4.4155e-15 0)
(3 -4.31479e-15 0)
(3 -3.1894e-15 0)
(3 -9.03025e-16 0)
(3 -4.57191e-16 0)
(3 6.16332e-16 0)
(3 -1.02682e-15 0)
(3 -5.40036e-16 0)
(3 -5.09479e-17 0)
(3 -2.0785e-16 0)
(3 -6.20034e-16 0)
(3 -1.11158e-15 0)
(3 -5.22756e-16 0)
(3 -2.55105e-16 0)
(3 -2.87697e-16 0)
(3 -1.66202e-16 0)
(3 2.08772e-18 0)
(3 7.72467e-16 0)
(3 1.73987e-15 0)
(3 3.17796e-15 0)
(3 3.09311e-15 0)
(3 2.99796e-15 0)
(3 2.93803e-15 0)
(3 2.28622e-15 0)
(3 8.49193e-16 0)
(3 -2.90811e-16 0)
(3 -9.36694e-17 0)
(3 8.5548e-16 0)
(3 1.79759e-15 0)
(3 2.86655e-15 0)
(3 4.11012e-15 0)
(3 3.87697e-15 0)
(3 3.18752e-15 0)
(3 2.60856e-15 0)
(3 1.37042e-15 0)
(3 7.10816e-16 0)
(3 -7.47828e-16 0)
(3 -6.41181e-16 0)
(3 -4.59871e-16 0)
(3 -1.2681e-16 0)
(3 4.62647e-17 0)
(3 1.89349e-16 0)
(3 4.11408e-16 0)
(3 -1.44994e-16 0)
(3 -2.70639e-16 0)
(3 7.36146e-17 0)
(3 -2.90068e-16 0)
(3 -9.58874e-16 0)
(3 -2.36416e-15 0)
(3 -4.21802e-15 0)
(3 -4.3617e-15 0)
(3 -3.93267e-15 0)
(3 -2.82805e-15 0)
(3 -1.10277e-15 0)
(3 -4.10916e-16 0)
(3 -1.35098e-17 0)
(3 1.94688e-15 0)
(3 3.74163e-16 0)
(3 -1.37665e-15 0)
(3 -2.09328e-15 0)
(3 -1.49339e-15 0)
(3 -7.10903e-16 0)
(3 -9.37892e-16 0)
(3 1.01105e-16 0)
(3 -3.48087e-17 0)
(3 -4.2761e-16 0)
(3 -8.49138e-17 0)
(3 -3.62759e-16 0)
(3 -3.19666e-16 0)
(3 -1.10687e-16 0)
(3 -1.72469e-16 0)
(3 -3.36418e-16 0)
(3 -4.83306e-16 0)
(3 -1.84112e-16 0)
(3 -2.79686e-16 0)
(3 1.81478e-16 0)
(3 -7.64498e-16 0)
(3 -2.95266e-16 0)
(3 4.58568e-16 0)
(3 7.38936e-16 0)
(3 5.15808e-16 0)
(3 -1.58697e-17 0)
(3 2.39439e-16 0)
(3 2.70132e-16 0)
(3 -4.61971e-17 0)
(3 4.36913e-16 0)
(3 -2.28261e-16 0)
(3 2.29819e-16 0)
(3 8.90786e-16 0)
(3 9.99656e-16 0)
(3 9.66855e-16 0)
(3 1.83407e-15 0)
(3 2.01789e-15 0)
(3 1.21769e-15 0)
(3 5.1451e-16 0)
(3 6.89764e-17 0)
(3 3.34824e-15 0)
(3 3.36161e-15 0)
(3 2.55849e-15 0)
(3 1.32659e-15 0)
(3 6.17003e-16 0)
(3 4.50394e-16 0)
(3 4.05355e-16 0)
(3 -1.45483e-17 0)
(3 2.13974e-16 0)
(3 -7.98642e-17 0)
(3 3.90723e-15 0)
(3 3.75093e-15 0)
(3 2.73189e-15 0)
(3 1.42525e-15 0)
(3 8.09486e-17 0)
(3 -4.26584e-16 0)
(3 -5.20515e-16 0)
(3 -6.46132e-16 0)
(3 -2.31577e-16 0)
(3 -3.28206e-16 0)
(2.84802 -0.0476999 0)
(2.99343 -0.00844905 0)
(3 2.7409e-09 0)
(3 6.16018e-15 0)
(3 -5.95507e-16 0)
(3 -1.50634e-15 0)
(3 -2.89423e-15 0)
(3 -3.6055e-15 0)
(3 -2.73336e-15 0)
(3 -1.64301e-15 0)
(3 -2.73125e-16 0)
(3 -7.72353e-16 0)
(3 -7.4011e-16 0)
(3 7.30992e-16 0)
(3 1.91826e-15 0)
(3 6.22041e-16 0)
(3 -1.234e-15 0)
(3 -6.76098e-16 0)
(3 3.55408e-15 0)
(3 3.71178e-15 0)
(2.60682 -0.281342 0)
(2.89066 -0.135471 0)
(3.00029 0.000321918 0)
(3 -1.17739e-06 0)
(3 1.95722e-09 0)
(3 1.54288e-11 0)
(3 -2.20201e-14 0)
(3 -5.55382e-15 0)
(3 -3.25439e-15 0)
(3 -1.48576e-15 0)
(3 -2.35756e-16 0)
(3 -1.14598e-15 0)
(3 -1.56441e-16 0)
(3 8.94282e-16 0)
(3 1.93319e-15 0)
(3 9.11896e-16 0)
(3 -9.4168e-16 0)
(3 -3.69213e-16 0)
(3 3.43908e-15 0)
(3 3.30268e-15 0)
(2.51287 -0.499528 0)
(2.7144 -0.444388 0)
(2.9953 -0.00633693 0)
(3.00002 2.80066e-05 0)
(3 -3.72144e-10 0)
(3 6.94248e-12 0)
(3 4.26603e-14 0)
(3 -4.66817e-15 0)
(3 -2.4206e-15 0)
(3 -1.10778e-15 0)
(3 -1.65314e-16 0)
(3 -1.5305e-15 0)
(3 1.03337e-15 0)
(3 1.40354e-15 0)
(3 1.1648e-15 0)
(3 4.88628e-16 0)
(3 -7.49331e-16 0)
(3 -3.08703e-16 0)
(3 2.97249e-15 0)
(3 3.2063e-15 0)
(2.2921 -0.740042 0)
(2.24968 -0.998543 0)
(2.87315 -0.204644 0)
(2.99973 -0.000484159 0)
(3 -2.72514e-10 0)
(3 7.47232e-12 0)
(3 2.67275e-13 0)
(3 -2.10608e-15 0)
(3 -1.91525e-15 0)
(3 -8.43307e-16 0)
(3 4.52478e-16 0)
(3 -1.70855e-15 0)
(3 1.07536e-15 0)
(3 2.86043e-15 0)
(3 7.3339e-16 0)
(3 -6.52254e-16 0)
(3 -3.25061e-16 0)
(3 4.25348e-16 0)
(3 2.66686e-15 0)
(3 2.40671e-15 0)
(2.18228 -0.85578 0)
(2.10327 -1.06333 0)
(2.622 -0.661152 0)
(2.95073 -0.106011 0)
(3.00002 0.000174092 0)
(3 2.88015e-07 0)
(3 3.6544e-10 0)
(3 4.73889e-13 0)
(3 -2.18524e-15 0)
(3 -3.82659e-15 0)
(3 6.05846e-16 0)
(3 -1.89543e-15 0)
(3 4.34743e-16 0)
(3 2.42953e-15 0)
(3 6.16997e-16 0)
(3 -5.42835e-16 0)
(3 -9.34428e-17 0)
(3 1.43154e-15 0)
(3 2.36531e-15 0)
(3 1.2643e-15 0)
(2.20353 -0.904644 0)
(2.13402 -1.02646 0)
(2.30398 -0.954156 0)
(2.52312 -0.632603 0)
(2.95749 -0.0483043 0)
(3.0001 0.00014904 0)
(3 9.04542e-07 0)
(3 -1.06376e-09 0)
(3 -2.80971e-11 0)
(3 3.66167e-14 0)
(3 1.4194e-15 0)
(3 8.23208e-16 0)
(3 8.89842e-16 0)
(3 1.82819e-15 0)
(3 5.30468e-16 0)
(3 5.20096e-17 0)
(3 1.7557e-16 0)
(3 2.19094e-15 0)
(3 1.05707e-15 0)
(3 7.23113e-16 0)
(2.22941 -0.914264 0)
(2.19535 -0.956508 0)
(2.23871 -0.922411 0)
(2.36059 -0.841305 0)
(2.71239 -0.374007 0)
(2.99194 -0.0104206 0)
(3.00002 3.11755e-05 0)
(3 9.57465e-07 0)
(3 3.13362e-09 0)
(3 -6.44391e-12 0)
(3 -3.08346e-13 0)
(3 1.25845e-17 0)
(3 1.46125e-15 0)
(3 2.46061e-15 0)
(3 6.43143e-17 0)
(3 -8.68918e-17 0)
(3 8.96919e-16 0)
(3 2.12378e-15 0)
(3 4.88636e-16 0)
(3 2.7685e-16 0)
(2.24545 -0.891556 0)
(2.2509 -0.881613 0)
(2.25721 -0.905951 0)
(2.25267 -0.932131 0)
(2.4415 -0.716381 0)
(2.87066 -0.159219 0)
(2.99938 -0.000791775 0)
(3 -4.23442e-07 0)
(3 1.93312e-09 0)
(3 1.02682e-10 0)
(3 6.03524e-13 0)
(3 3.41698e-15 0)
(3 1.1801e-15 0)
(3 3.14189e-15 0)
(3 2.93459e-16 0)
(3 6.3886e-18 0)
(3 1.2035e-15 0)
(3 2.26621e-15 0)
(3 2.53124e-16 0)
(3 -4.02874e-16 0)
(2.25345 -0.882549 0)
(2.27599 -0.859485 0)
(2.27792 -0.893631 0)
(2.26178 -0.94303 0)
(2.25847 -0.930258 0)
(2.50448 -0.578007 0)
(2.94824 -0.0562077 0)
(3.00003 5.13722e-05 0)
(3 1.35385e-06 0)
(3 -1.00797e-09 0)
(3 -2.04345e-11 0)
(3 -6.06908e-13 0)
(3 -6.62547e-16 0)
(3 2.51144e-15 0)
(3 1.04021e-15 0)
(3 1.99394e-16 0)
(3 1.26316e-15 0)
(3 3.12013e-15 0)
(3 4.47546e-16 0)
(3 -6.56164e-16 0)
(2.25754 -0.881428 0)
(2.27644 -0.872588 0)
(2.28594 -0.89028 0)
(2.2683 -0.913337 0)
(2.23962 -0.895913 0)
(2.37854 -0.751418 0)
(2.77109 -0.281533 0)
(2.99581 -0.00565107 0)
(3.00001 4.8839e-06 0)
(3 5.53349e-07 0)
(3 9.27376e-10 0)
(3 -4.66401e-13 0)
(3 -8.29174e-14 0)
(3 3.04714e-15 0)
(3 2.49412e-15 0)
(3 1.02168e-15 0)
(3 1.34998e-15 0)
(3 2.81086e-15 0)
(3 -1.59513e-16 0)
(3 -1.05797e-15 0)
(2.25841 -0.883493 0)
(2.27114 -0.883102 0)
(2.28103 -0.885178 0)
(2.27912 -0.886766 0)
(2.27399 -0.878475 0)
(2.28712 -0.885163 0)
(2.49658 -0.622435 0)
(2.92714 -0.0823248 0)
(2.99987 -0.000113972 0)
(3 1.50778e-07 0)
(3 6.12502e-09 0)
(3 3.57112e-10 0)
(3 3.28409e-12 0)
(3 1.05687e-15 0)
(3 2.79794e-15 0)
(3 1.21576e-15 0)
(3 8.76847e-16 0)
(3 3.41794e-15 0)
(3 -3.30478e-16 0)
(3 -1.50072e-15 0)
(2.25378 -0.881555 0)
(2.26392 -0.87927 0)
(2.27293 -0.877475 0)
(2.28142 -0.879381 0)
(2.27779 -0.885469 0)
(2.26116 -0.921323 0)
(2.3362 -0.827991 0)
(2.66884 -0.392574 0)
(2.98713 -0.015863 0)
(3 -2.21571e-05 0)
(3 -3.39143e-07 0)
(3 -2.28819e-08 0)
(3 -1.84651e-10 0)
(3 1.33914e-13 0)
(3 1.15135e-14 0)
(3 1.8039e-15 0)
(3 7.80981e-16 0)
(3 3.70922e-15 0)
(3 -5.1685e-16 0)
(3 -1.34656e-15 0)
(2.24868 -0.879326 0)
(2.25758 -0.875729 0)
(2.26961 -0.877026 0)
(2.2829 -0.885703 0)
(2.27975 -0.88811 0)
(2.25899 -0.902283 0)
(2.30029 -0.85872 0)
(2.54074 -0.625954 0)
(2.92009 -0.11147 0)
(2.99973 -0.00025928 0)
(3 -1.71604e-07 0)
(3 -1.42358e-08 0)
(3 -2.61967e-10 0)
(3 -2.38024e-12 0)
(3 1.97033e-14 0)
(3 4.48245e-15 0)
(3 6.35676e-16 0)
(3 3.08651e-15 0)
(3 -6.57495e-16 0)
(3 -9.46764e-16 0)
(2.24563 -0.878883 0)
(2.25317 -0.875898 0)
(2.26604 -0.880912 0)
(2.27793 -0.889456 0)
(2.27564 -0.886002 0)
(2.26691 -0.877806 0)
(2.28478 -0.861975 0)
(2.31629 -0.855435 0)
(2.61836 -0.487971 0)
(2.96722 -0.0514369 0)
(2.99975 -0.000417348 0)
(3 -1.81094e-06 0)
(3 -7.28011e-09 0)
(3 -4.1786e-11 0)
(3 -2.51512e-13 0)
(3 1.55519e-15 0)
(3 8.05367e-16 0)
(3 1.77907e-15 0)
(3 -5.05832e-16 0)
(3 -6.51677e-16 0)
(2.24403 -0.879967 0)
(2.25112 -0.88013 0)
(2.26354 -0.888212 0)
(2.27106 -0.894176 0)
(2.26836 -0.886418 0)
(2.26675 -0.876156 0)
(2.26427 -0.872779 0)
(2.24461 -0.927495 0)
(2.58087 -0.600921 0)
(2.96511 -0.0459337 0)
(3.00432 0.00749242 0)
(3.00034 0.000516423 0)
(3 5.84209e-06 0)
(3 3.202e-08 0)
(3 1.71909e-10 0)
(3 9.73615e-13 0)
(3 7.33982e-15 0)
(3 1.84757e-15 0)
(3 -1.04143e-15 0)
(3 -4.99717e-16 0)
(2.2587 -0.828969 0)
(2.57485 -0.629668 0)
(2.41307 -0.768409 0)
(2.33993 -0.839802 0)
(2.29503 -0.87081 0)
(2.2786 -0.873383 0)
(2.26996 -0.872367 0)
(2.23734 -0.897121 0)
(2.31003 -0.811597 0)
(2.56999 -0.543754 0)
(2.91275 -0.149456 0)
(2.99558 -0.0103178 0)
(2.99988 -0.000293889 0)
(3 -4.11399e-06 0)
(3 -4.90212e-08 0)
(3 -4.59393e-10 0)
(3 -3.65764e-12 0)
(3 -2.23013e-14 0)
(3 1.40712e-15 0)
(3 1.09119e-15 0)
(1.88639 -1.02653 0)
(2.73874 -0.300477 0)
(2.66061 -0.460448 0)
(2.50061 -0.665559 0)
(2.40964 -0.773305 0)
(2.3389 -0.830878 0)
(2.29999 -0.856595 0)
(2.27365 -0.862621 0)
(2.27882 -0.86591 0)
(2.29513 -0.8128 0)
(2.56046 -0.565401 0)
(2.91546 -0.141493 0)
(2.99646 -0.0085212 0)
(2.99992 -0.000221151 0)
(3 -2.91339e-06 0)
(3 -3.31668e-08 0)
(3 -3.17556e-10 0)
(3 -2.75323e-12 0)
(3 -1.90475e-14 0)
(3 1.21466e-15 0)
(2.41818 -0.342351 0)
(2.82616 0.421799 0)
(2.80868 -0.189144 0)
(2.67974 -0.450271 0)
(2.58174 -0.577386 0)
(2.44423 -0.739989 0)
(2.38684 -0.781731 0)
(2.32021 -0.830936 0)
(2.28947 -0.860434 0)
(2.27158 -0.872501 0)
(2.3475 -0.774712 0)
(2.65442 -0.479813 0)
(2.94234 -0.105442 0)
(2.99777 -0.00492532 0)
(2.99996 -9.70657e-05 0)
(3 -1.13006e-06 0)
(3 -1.14017e-08 0)
(3 -9.71476e-11 0)
(3 -7.38207e-13 0)
(3 -4.25953e-15 0)
(2.49543 0.507686 0)
(2.78673 0.937973 0)
(2.91182 0.373018 0)
(2.87156 -0.0687397 0)
(2.68589 -0.447192 0)
(2.6341 -0.516736 0)
(2.47779 -0.694356 0)
(2.4136 -0.751747 0)
(2.3534 -0.813831 0)
(2.28225 -0.865419 0)
(2.28047 -0.855209 0)
(2.38493 -0.758526 0)
(2.75546 -0.368473 0)
(2.97576 -0.0509299 0)
(2.99932 -0.00162899 0)
(2.99999 -2.35022e-05 0)
(3 -2.38436e-07 0)
(3 -2.16846e-09 0)
(3 -1.73174e-11 0)
(3 -1.07463e-13 0)
(2.53115 0.855837 0)
(2.78353 1.23024 0)
(2.95048 0.693899 0)
(2.94754 0.343287 0)
(2.85552 -0.0698862 0)
(2.75981 -0.290641 0)
(2.60838 -0.53183 0)
(2.5382 -0.607363 0)
(2.42998 -0.741449 0)
(2.34861 -0.809154 0)
(2.28789 -0.852599 0)
(2.30097 -0.839646 0)
(2.50541 -0.650964 0)
(2.86125 -0.230152 0)
(2.99273 -0.0163228 0)
(2.99985 -0.000353123 0)
(3 -4.06065e-06 0)
(3 -3.72018e-08 0)
(3 -3.03746e-10 0)
(3 -1.9031e-12 0)
(2.4887 0.965488 0)
(2.80829 1.18953 0)
(3.03574 0.596917 0)
(3.01076 0.343361 0)
(2.98499 0.273171 0)
(2.80133 -0.194078 0)
(2.77277 -0.255085 0)
(2.60252 -0.537079 0)
(2.554 -0.595431 0)
(2.41755 -0.737737 0)
(2.33312 -0.813491 0)
(2.30869 -0.832499 0)
(2.34258 -0.825017 0)
(2.62769 -0.523603 0)
(2.93068 -0.121298 0)
(2.99798 -0.00418192 0)
(2.99997 -6.1802e-05 0)
(3 -5.83038e-07 0)
(3 -4.74974e-09 0)
(3 -3.01141e-11 0)
(2.48143 1.01085 0)
(2.74938 1.03431 0)
(2.99718 0.718469 0)
(3.10466 0.644986 0)
(3.04739 0.286326 0)
(2.92502 0.0112221 0)
(2.86141 -0.155441 0)
(2.69527 -0.431798 0)
(2.64955 -0.475499 0)
(2.49478 -0.659871 0)
(2.4087 -0.740268 0)
(2.32864 -0.811632 0)
(2.33514 -0.802923 0)
(2.45467 -0.708926 0)
(2.81551 -0.295546 0)
(2.98311 -0.0362548 0)
(2.99969 -0.000651373 0)
(3 -7.17693e-06 0)
(3 -6.04846e-08 0)
(3 -3.86979e-10 0)
(2.6483 0.877874 0)
(2.74464 0.916995 0)
(2.98143 0.795147 0)
(3.0346 1.01445 0)
(3.05534 0.499408 0)
(3.0444 0.361757 0)
(2.88041 -0.103977 0)
(2.83662 -0.160336 0)
(2.68985 -0.413714 0)
(2.64629 -0.484616 0)
(2.46888 -0.673182 0)
(2.39264 -0.741187 0)
(2.34786 -0.790112 0)
(2.37008 -0.783539 0)
(2.57599 -0.581085 0)
(2.92815 -0.121675 0)
(2.99724 -0.00643908 0)
(2.99996 -7.73771e-05 0)
(3 -6.93157e-07 0)
(3 -4.57115e-09 0)
(2.76164 0.770775 0)
(2.80359 0.764175 0)
(2.97558 0.847394 0)
(3.03326 1.02373 0)
(3.0497 0.680417 0)
(3.05866 0.528452 0)
(2.9731 0.161006 0)
(2.88768 0.0155679 0)
(2.78857 -0.222645 0)
(2.72077 -0.341667 0)
(2.58583 -0.534752 0)
(2.48217 -0.632075 0)
(2.38414 -0.750938 0)
(2.37188 -0.78098 0)
(2.46109 -0.706998 0)
(2.77108 -0.339161 0)
(2.98194 -0.0317843 0)
(2.99966 -0.000704878 0)
(3 -6.55613e-06 0)
(3 -4.35369e-08 0)
(2.82754 0.744641 0)
(2.86963 0.679724 0)
(3.00268 0.818181 0)
(3.07122 0.97205 0)
(3.0781 0.63609 0)
(3.06483 0.445093 0)
(3.04594 0.344854 0)
(2.90264 -0.0189998 0)
(2.86644 -0.0427381 0)
(2.73709 -0.348803 0)
(2.67287 -0.431359 0)
(2.52621 -0.606737 0)
(2.43727 -0.701921 0)
(2.38292 -0.770147 0)
(2.40709 -0.756302 0)
(2.59139 -0.575527 0)
(2.92481 -0.120796 0)
(2.99766 -0.00433754 0)
(2.99997 -5.55074e-05 0)
(3 -3.88078e-07 0)
(2.84517 0.745145 0)
(2.88633 0.69283 0)
(2.99225 0.849125 0)
(3.07049 0.972699 0)
(3.07785 0.741782 0)
(3.09128 0.537681 0)
(3.10296 0.490653 0)
(2.91973 0.030953 0)
(2.9082 -0.0161771 0)
(2.77939 -0.293369 0)
(2.72305 -0.386493 0)
(2.61656 -0.524762 0)
(2.50941 -0.638173 0)
(2.4175 -0.739268 0)
(2.40949 -0.754673 0)
(2.52854 -0.638876 0)
(2.795 -0.319106 0)