/*--------------------------------*- C++ -*----------------------------------*\
  =========                 |
  \\      /  F ield         | OpenFOAM: The Open Source CFD Toolbox
   \\    /   O peration     | Website:  https://openfoam.org
    \\  /    A nd           | Version:  7
     \\/     M anipulation  |
\*---------------------------------------------------------------------------*/
FoamFile
{
    version     2.0;
    format      ascii;
    class       volVectorField;
    location    "7";
    object      U;
}
// * * * * * * * * * * * * * * * * * * * * * * * * * * * * * * * * * * * * * //

dimensions      [0 1 -1 0 0 0 0];

internalField   nonuniform List<vector> 
90000
(
(4.07243 -1.07929 0)
(4.04234 -0.980122 0)
(4.01908 -0.872616 0)
(4.00946 -0.853742 0)
(3.99012 -0.756012 0)
(3.9803 -0.673744 0)
(3.9772 -0.622752 0)
(3.97826 -0.600227 0)
(3.96982 -0.524165 0)
(3.96967 -0.486656 0)
(3.96781 -0.434358 0)
(3.97121 -0.412904 0)
(3.96744 -0.352196 0)
(3.97051 -0.335252 0)
(3.96805 -0.279706 0)
(3.97185 -0.266962 0)
(3.96822 -0.214695 0)
(3.97247 -0.204385 0)
(3.96847 -0.150865 0)
(3.97237 -0.147349 0)
(3.96818 -0.0967366 0)
(3.9722 -0.0949276 0)
(3.96908 -0.0494346 0)
(3.97449 -0.052234 0)
(3.97431 -0.00872472 0)
(3.97793 -0.0131285 0)
(3.97345 0.0165136 0)
(3.97562 0.00768428 0)
(3.9652 0.0267767 0)
(3.96423 0.0327391 0)
(3.96003 0.0343576 0)
(3.95766 0.0353403 0)
(3.95678 0.0376055 0)
(3.95671 0.0357158 0)
(3.95616 0.0357491 0)
(3.9559 0.0332587 0)
(3.95539 0.0322489 0)
(3.95542 0.0353884 0)
(3.95512 0.0366867 0)
(3.95411 0.0427109 0)
(3.95142 0.0443001 0)
(3.94837 0.0457978 0)
(3.94556 0.0485958 0)
(3.93929 0.0511401 0)
(3.93529 0.0589376 0)
(3.93498 0.0575993 0)
(3.93436 0.0567736 0)
(3.93158 0.0512692 0)
(3.92982 0.0479172 0)
(3.92779 0.0393192 0)
(3.92727 0.0376662 0)
(3.92614 0.0320442 0)
(3.9258 0.0316403 0)
(3.92463 0.0251769 0)
(3.92503 0.0241598 0)
(3.9262 0.0270245 0)
(3.92834 0.0345564 0)
(3.9304 0.0417395 0)
(3.93186 0.0480114 0)
(3.93194 0.0497525 0)
(3.9305 0.0425181 0)
(3.92968 0.040466 0)
(3.92846 0.0391101 0)
(3.9271 0.0361641 0)
(3.92657 0.0350961 0)
(3.92501 0.0308219 0)
(3.9255 0.0325131 0)
(3.92713 0.0398332 0)
(3.92853 0.0458182 0)
(3.92978 0.0510904 0)
(3.92972 0.0508083 0)
(3.92854 0.0451877 0)
(3.92742 0.040914 0)
(3.92675 0.0344944 0)
(3.92718 0.0380608 0)
(3.928 0.0412234 0)
(3.92902 0.0459405 0)
(3.93149 0.0488267 0)
(3.93159 0.0480399 0)
(3.93102 0.0459766 0)
(3.93019 0.0414975 0)
(3.93065 0.0415439 0)
(3.93133 0.0423977 0)
(3.93293 0.0457969 0)
(3.93348 0.0465402 0)
(3.93323 0.0440155 0)
(3.9327 0.0409196 0)
(3.93324 0.0386545 0)
(3.93391 0.0407559 0)
(3.93524 0.0446358 0)
(3.93574 0.0451078 0)
(3.93617 0.0448541 0)
(3.93702 0.0451866 0)
(3.93777 0.0466316 0)
(3.93866 0.0473335 0)
(3.93937 0.0464033 0)
(3.93987 0.0449439 0)
(3.94051 0.0449554 0)
(3.94102 0.0452185 0)
(3.9417 0.0440921 0)
(4.10073 -1.15303 0)
(4.10069 -1.15303 0)
(4.10067 -1.15289 0)
(4.10062 -1.15291 0)
(4.10059 -1.15276 0)
(4.10052 -1.1528 0)
(4.1005 -1.15261 0)
(4.1004 -1.1527 0)
(4.10038 -1.15245 0)
(4.10027 -1.15261 0)
(4.09993 -1.1518 0)
(4.09919 -1.1495 0)
(4.09752 -1.14427 0)
(4.09524 -1.13767 0)
(4.09194 -1.12513 0)
(4.0881 -1.11186 0)
(4.08285 -1.08804 0)
(4.07698 -1.06549 0)
(4.06955 -1.02545 0)
(4.06222 -0.993438 0)
(4.05166 -0.93251 0)
(4.04306 -0.890009 0)
(4.02997 -0.80582 0)
(4.02181 -0.757568 0)
(4.00647 -0.650112 0)
(4.00114 -0.600476 0)
(3.98332 -0.475733 0)
(3.98266 -0.434225 0)
(3.96372 -0.307718 0)
(3.96879 -0.282778 0)
(3.95049 -0.173952 0)
(3.957 -0.159648 0)
(3.9396 -0.0702668 0)
(3.94665 -0.0625323 0)
(3.9321 0.00464826 0)
(3.93639 0.00805694 0)
(3.92647 0.0537988 0)
(3.92989 0.0545495 0)
(3.92347 0.0804376 0)
(3.92535 0.0824223 0)
(3.91999 0.09959 0)
(3.91834 0.102864 0)
(3.91804 0.113392 0)
(3.91525 0.110549 0)
(3.91319 0.101651 0)
(3.91531 0.0848608 0)
(3.91538 0.0628393 0)
(3.91736 0.0463978 0)
(3.92015 0.0392872 0)
(3.92096 0.0309661 0)
(3.92272 0.027332 0)
(3.92248 0.0201524 0)
(3.92176 0.0209355 0)
(3.92211 0.0256806 0)
(3.9244 0.0379088 0)
(3.92511 0.0531034 0)
(3.92239 0.0671197 0)
(3.92099 0.0736544 0)
(3.91825 0.0734536 0)
(3.91369 0.0676373 0)
(3.91205 0.0600625 0)
(3.90753 0.0474539 0)
(3.90645 0.0428017 0)
(3.90746 0.0333811 0)
(3.90861 0.0359015 0)
(3.91011 0.0403724 0)
(3.91282 0.0480921 0)
(3.91477 0.0501355 0)
(3.91573 0.0553775 0)
(3.91501 0.0549283 0)
(3.91299 0.0506929 0)
(3.91194 0.0480274 0)
(3.91184 0.0395103 0)
(3.91266 0.0386693 0)
(3.9146 0.0407177 0)
(3.9162 0.0435419 0)
(3.91797 0.0482842 0)
(3.91794 0.0477461 0)
(3.91699 0.0429754 0)
(3.91672 0.0386314 0)
(3.91697 0.0403567 0)
(3.91772 0.0431595 0)
(3.92006 0.0493968 0)
(3.92059 0.049434 0)
(3.92075 0.0464972 0)
(3.91951 0.0421548 0)
(3.92028 0.0397761 0)
(3.92114 0.0409905 0)
(3.92265 0.043509 0)
(3.9242 0.044523 0)
(3.92481 0.0446088 0)
(3.92536 0.0437009 0)
(3.92644 0.0443345 0)
(3.92748 0.0446503 0)
(3.92855 0.0448108 0)
(3.92938 0.0449349 0)
(3.9301 0.0463262 0)
(3.93105 0.0464678 0)
(3.93176 0.04661 0)
(3.93283 0.0450746 0)
(4.09863 -1.15284 0)
(4.09849 -1.15291 0)
(4.09841 -1.15276 0)
(4.09824 -1.15284 0)
(4.09813 -1.15273 0)
(4.09795 -1.15283 0)
(4.09785 -1.15266 0)
(4.09766 -1.1528 0)
(4.09758 -1.15254 0)
(4.09737 -1.15271 0)
(4.09729 -1.15245 0)
(4.09702 -1.15275 0)
(4.09694 -1.15248 0)
(4.09688 -1.15236 0)
(4.09681 -1.15223 0)
(4.09674 -1.15208 0)
(4.09667 -1.15189 0)
(4.09655 -1.1519 0)
(4.09647 -1.15165 0)
(4.09632 -1.15164 0)
(4.09622 -1.15149 0)
(4.09604 -1.15161 0)
(4.09599 -1.15132 0)
(4.09577 -1.1516 0)
(4.09572 -1.15124 0)
(4.09557 -1.15166 0)
(4.0942 -1.14754 0)
(4.09129 -1.13848 0)
(4.08469 -1.11376 0)
(4.07654 -1.08306 0)
(4.06355 -1.023 0)
(4.05171 -0.969232 0)
(4.03456 -0.870908 0)
(4.02345 -0.806775 0)
(4.00498 -0.681421 0)
(3.99754 -0.622831 0)
(3.97888 -0.486167 0)
(3.97861 -0.447623 0)
(3.95954 -0.318098 0)
(3.96183 -0.293554 0)
(3.94553 -0.188262 0)
(3.94672 -0.173781 0)
(3.93626 -0.101668 0)
(3.93886 -0.0947529 0)
(3.93024 -0.0590348 0)
(3.93781 -0.0511034 0)
(3.92492 -0.0178211 0)
(3.92547 -0.0126636 0)
(3.92192 -0.00151586 0)
(3.92222 0.0053613 0)
(3.92121 0.0119138 0)
(3.9193 0.0179034 0)
(3.91584 0.0258364 0)
(3.90777 0.040738 0)
(3.90445 0.0562751 0)
(3.90402 0.0610708 0)
(3.90089 0.0601051 0)
(3.89644 0.0546103 0)
(3.89499 0.0495686 0)
(3.89389 0.0427522 0)
(3.89528 0.0410299 0)
(3.89601 0.0385563 0)
(3.89742 0.0327455 0)
(3.89845 0.0331674 0)
(3.90147 0.0391559 0)
(3.90323 0.0436426 0)
(3.90596 0.0543125 0)
(3.90595 0.0551443 0)
(3.90576 0.0523294 0)
(3.90475 0.0466459 0)
(3.90296 0.0390536 0)
(3.90367 0.0310664 0)
(3.90323 0.0358074 0)
(3.90426 0.0406556 0)
(3.90639 0.0462215 0)
(3.90753 0.0510783 0)
(3.90702 0.0499206 0)
(3.9054 0.046863 0)
(3.90385 0.0435921 0)
(3.90549 0.0372805 0)
(3.90671 0.0390826 0)
(3.90741 0.0426625 0)
(3.91028 0.0457571 0)
(3.90925 0.0463697 0)
(3.90835 0.043418 0)
(3.90722 0.0372675 0)
(3.90966 0.0387616 0)
(3.91056 0.0412374 0)
(3.91255 0.0455067 0)
(3.91322 0.0458907 0)
(3.91394 0.0451938 0)
(3.91486 0.046017 0)
(3.91579 0.0471692 0)
(3.91684 0.0482474 0)
(3.91787 0.047404 0)
(3.91845 0.0445284 0)
(3.91948 0.0437458 0)
(3.92052 0.0448139 0)
(3.92129 0.0440046 0)
(3.92247 0.0429521 0)
(4.09639 -1.15152 0)
(4.09629 -1.15152 0)
(4.09619 -1.1515 0)
(4.09612 -1.15137 0)
(4.09599 -1.15144 0)
(4.09591 -1.15133 0)
(4.09579 -1.15136 0)
(4.09569 -1.15132 0)
(4.0956 -1.15127 0)
(4.09552 -1.15117 0)
(4.0954 -1.15121 0)
(4.09532 -1.15113 0)
(4.09524 -1.15108 0)
(4.09517 -1.15099 0)
(4.09503 -1.15111 0)
(4.09493 -1.15102 0)
(4.09481 -1.15099 0)
(4.09469 -1.15099 0)
(4.09459 -1.15097 0)
(4.09454 -1.15086 0)
(4.09441 -1.15102 0)
(4.09435 -1.15097 0)
(4.09429 -1.15093 0)
(4.09419 -1.15098 0)
(4.0941 -1.15108 0)
(4.09406 -1.15105 0)
(4.09402 -1.15116 0)
(4.09401 -1.15112 0)
(4.09398 -1.15113 0)
(4.09396 -1.15113 0)
(4.09393 -1.15113 0)
(4.09388 -1.15117 0)
(4.09386 -1.15117 0)
(4.09377 -1.15113 0)
(4.09371 -1.15108 0)
(4.09364 -1.15105 0)
(4.09169 -1.144 0)
(4.08733 -1.12782 0)
(4.07694 -1.08258 0)
(4.06537 -1.03168 0)
(4.04619 -0.926341 0)
(4.03215 -0.848861 0)
(4.00629 -0.685903 0)
(3.99855 -0.608153 0)
(3.96668 -0.412193 0)
(3.97411 -0.359999 0)
(3.94128 -0.184646 0)
(3.95481 -0.155885 0)
(3.92238 -0.0258826 0)
(3.93233 -0.00348764 0)
(3.90596 0.0744517 0)
(3.91123 0.0982673 0)
(3.89262 0.138638 0)
(3.88875 0.142688 0)
(3.88267 0.127147 0)
(3.88428 0.0878464 0)
(3.88512 0.0573677 0)
(3.88986 0.0457021 0)
(3.89143 0.0378593 0)
(3.89069 0.0341504 0)
(3.89377 0.0338753 0)
(3.89452 0.0343773 0)
(3.89636 0.0362801 0)
(3.89965 0.0431587 0)
(3.90234 0.0583877 0)
(3.90319 0.0579359 0)
(3.90233 0.0571085 0)
(3.9005 0.0533525 0)
(3.89694 0.0428722 0)
(3.89724 0.0393281 0)
(3.89661 0.0323755 0)
(3.89706 0.0320036 0)
(3.89943 0.0405682 0)
(3.90004 0.0440953 0)
(3.90207 0.0523506 0)
(3.90206 0.0508665 0)
(3.90071 0.046149 0)
(3.89969 0.0379278 0)
(3.89829 0.0384181 0)
(3.8995 0.0410729 0)
(3.90198 0.0467134 0)
(3.903 0.0504828 0)
(3.90334 0.0506786 0)
(3.90226 0.0428731 0)
(3.90019 0.0400761 0)
(3.90174 0.038078 0)
(3.90279 0.0418567 0)
(3.90414 0.0436775 0)
(3.90479 0.0452486 0)
(3.90511 0.0447384 0)
(3.90588 0.0433671 0)
(3.90677 0.043789 0)
(3.90728 0.0447444 0)
(3.90783 0.0441316 0)
(3.90838 0.0448776 0)
(3.90892 0.0461834 0)
(3.91002 0.0469547 0)
(3.91093 0.0460304 0)
(3.9114 0.0457595 0)
(3.91225 0.0436677 0)
(4.0947 -1.151 0)
(4.09464 -1.15106 0)
(4.09458 -1.1511 0)
(4.09455 -1.15103 0)
(4.0945 -1.15103 0)
(4.09445 -1.15101 0)
(4.09439 -1.15104 0)
(4.09434 -1.15108 0)
(4.0943 -1.15101 0)
(4.09426 -1.15099 0)
(4.09421 -1.15097 0)
(4.09417 -1.15096 0)
(4.09414 -1.15093 0)
(4.0941 -1.15093 0)
(4.09404 -1.15096 0)
(4.09395 -1.151 0)
(4.09387 -1.15104 0)
(4.0938 -1.15108 0)
(4.09377 -1.15109 0)
(4.09375 -1.1511 0)
(4.09371 -1.15116 0)
(4.09365 -1.15126 0)
(4.09362 -1.15124 0)
(4.09358 -1.15126 0)
(4.09352 -1.15137 0)
(4.0935 -1.15144 0)
(4.09347 -1.15139 0)
(4.09346 -1.15136 0)
(4.0934 -1.15141 0)
(4.09338 -1.15143 0)
(4.09337 -1.15143 0)
(4.09337 -1.15143 0)
(4.09337 -1.15143 0)
(4.09337 -1.1514 0)
(4.09329 -1.15134 0)
(4.09324 -1.15131 0)
(4.09324 -1.15127 0)
(4.09319 -1.15127 0)
(4.09281 -1.1512 0)
(4.09267 -1.15115 0)
(4.09254 -1.15111 0)
(4.09231 -1.15109 0)
(4.09211 -1.15107 0)
(4.09205 -1.15102 0)
(4.08828 -1.13739 0)
(4.08081 -1.10541 0)
(4.06374 -1.02747 0)
(4.04855 -0.936174 0)
(4.02501 -0.789166 0)
(4.01256 -0.677289 0)
(3.99036 -0.506516 0)
(3.98806 -0.423273 0)
(3.97 -0.27935 0)
(3.97669 -0.22042 0)
(3.95039 -0.138301 0)
(3.95742 -0.0948798 0)
(3.9308 -0.0313328 0)
(3.93218 -0.0216197 0)
(3.91873 0.00199936 0)
(3.91519 0.0124124 0)
(3.91315 0.0272709 0)
(3.90827 0.0395409 0)
(3.90112 0.0521429 0)
(3.89913 0.0682412 0)
(3.89765 0.068899 0)
(3.89378 0.063015 0)
(3.8909 0.0476612 0)
(3.89176 0.037075 0)
(3.88762 0.0250288 0)
(3.88921 0.0246074 0)
(3.89092 0.0285634 0)
(3.89619 0.0406004 0)
(3.897 0.0469622 0)
(3.89953 0.0533705 0)
(3.89885 0.0524795 0)
(3.89664 0.0434126 0)
(3.89507 0.0380412 0)
(3.89604 0.032332 0)
(3.8967 0.0347569 0)
(3.89855 0.0416619 0)
(3.90007 0.0493696 0)
(3.90013 0.0493181 0)
(3.89961 0.0459764 0)
(3.8982 0.0374428 0)
(3.89879 0.0354552 0)
(3.89952 0.0385913 0)
(3.89983 0.0422563 0)
(3.90071 0.0474473 0)
(3.90085 0.0457977 0)
(3.90029 0.0444276 0)
(3.90074 0.0453339 0)
(3.90166 0.0473631 0)
(3.90171 0.0472137 0)
(3.90188 0.0468543 0)
(3.90184 0.0437437 0)
(3.90248 0.0433599 0)
(3.90301 0.0444589 0)
(3.90351 0.0446923 0)
(3.9034 0.0427797 0)
(3.904 0.0425588 0)
(4.09378 -1.15153 0)
(4.09378 -1.15152 0)
(4.09375 -1.15154 0)
(4.09373 -1.15156 0)
(4.09371 -1.15156 0)
(4.0937 -1.15153 0)
(4.09367 -1.15153 0)
(4.09364 -1.15157 0)
(4.09362 -1.15153 0)
(4.09359 -1.15153 0)
(4.09355 -1.15156 0)
(4.09353 -1.15152 0)
(4.0935 -1.1515 0)
(4.09343 -1.15155 0)
(4.09337 -1.15153 0)
(4.09332 -1.15147 0)
(4.09323 -1.15155 0)
(4.0932 -1.15157 0)
(4.0932 -1.15154 0)
(4.09314 -1.15166 0)
(4.09306 -1.15176 0)
(4.093 -1.15173 0)
(4.09297 -1.15166 0)
(4.09291 -1.15169 0)
(4.09289 -1.15176 0)
(4.09287 -1.15174 0)
(4.09286 -1.15169 0)
(4.09288 -1.15163 0)
(4.09287 -1.1516 0)
(4.09286 -1.15159 0)
(4.09291 -1.15154 0)
(4.09294 -1.15152 0)
(4.09295 -1.15154 0)
(4.09296 -1.15142 0)
(4.09295 -1.15136 0)
(4.09288 -1.15133 0)
(4.09272 -1.15136 0)
(4.0924 -1.15116 0)
(4.09222 -1.15108 0)
(4.09215 -1.151 0)
(4.09206 -1.1509 0)
(4.09194 -1.15085 0)
(4.09188 -1.15083 0)
(4.09174 -1.15074 0)
(4.09155 -1.15068 0)
(4.09146 -1.15067 0)
(4.09135 -1.15067 0)
(4.09112 -1.15064 0)
(4.09069 -1.15054 0)
(4.0905 -1.15046 0)
(4.08796 -1.13978 0)
(4.08088 -1.10614 0)
(4.06292 -0.998419 0)
(4.05047 -0.889178 0)
(4.01274 -0.621606 0)
(4.0199 -0.531776 0)
(3.973 -0.255896 0)
(3.99745 -0.231681 0)
(3.94793 -0.0344423 0)
(3.95767 -0.0209769 0)
(3.9241 0.0761064 0)
(3.91369 0.0987783 0)
(3.90401 0.126674 0)
(3.89528 0.104555 0)
(3.89011 0.0711527 0)
(3.891 0.0539911 0)
(3.88978 0.0417503 0)
(3.88841 0.0323729 0)
(3.89033 0.0318064 0)
(3.89091 0.0318373 0)
(3.89708 0.0467102 0)
(3.89783 0.0565732 0)
(3.8974 0.0568395 0)
(3.89596 0.0530866 0)
(3.89323 0.0427039 0)
(3.89204 0.0355789 0)
(3.89234 0.0338498 0)
(3.89356 0.0357232 0)
(3.898 0.0450932 0)
(3.89951 0.0519786 0)
(3.89924 0.0521112 0)
(3.89744 0.045986 0)
(3.89684 0.0402724 0)
(3.8947 0.0346706 0)
(3.89579 0.036273 0)
(3.89747 0.0421421 0)
(3.89871 0.0463321 0)
(3.89847 0.0464027 0)
(3.89889 0.0449131 0)
(3.89752 0.0434324 0)
(3.89805 0.0447036 0)
(3.89892 0.0463954 0)
(3.899 0.0464898 0)
(3.8991 0.045046 0)
(3.89876 0.0452606 0)
(3.89895 0.0457596 0)
(3.89892 0.045479 0)
(3.89862 0.0447338 0)
(3.89837 0.0435691 0)
(3.89885 0.041992 0)
(4.09356 -1.1512 0)
(4.09356 -1.15119 0)
(4.09356 -1.15119 0)
(4.09355 -1.15119 0)
(4.09355 -1.15118 0)
(4.09354 -1.15116 0)
(4.09352 -1.15115 0)
(4.0935 -1.15114 0)
(4.09348 -1.15113 0)
(4.09344 -1.15107 0)
(4.0934 -1.15105 0)
(4.09336 -1.15101 0)
(4.09335 -1.15098 0)
(4.09331 -1.15095 0)
(4.09322 -1.15094 0)
(4.09313 -1.15092 0)
(4.09307 -1.15097 0)
(4.09304 -1.15103 0)
(4.09301 -1.15103 0)
(4.09297 -1.15106 0)
(4.09275 -1.15108 0)
(4.09264 -1.15106 0)
(4.09258 -1.15109 0)
(4.09254 -1.15111 0)
(4.0925 -1.15111 0)
(4.09244 -1.15113 0)
(4.09245 -1.15114 0)
(4.09245 -1.15114 0)
(4.09244 -1.15112 0)
(4.09244 -1.15108 0)
(4.09242 -1.15106 0)
(4.09241 -1.15103 0)
(4.09233 -1.15093 0)
(4.09228 -1.15085 0)
(4.0922 -1.15084 0)
(4.09208 -1.15085 0)
(4.09177 -1.15073 0)
(4.09157 -1.15065 0)
(4.09148 -1.15057 0)
(4.09137 -1.15044 0)
(4.09126 -1.15034 0)
(4.09123 -1.15026 0)
(4.09123 -1.15018 0)
(4.091 -1.15009 0)
(4.09071 -1.15006 0)
(4.09054 -1.1501 0)
(4.09037 -1.15011 0)
(4.09001 -1.15017 0)
(4.08956 -1.15011 0)
(4.08927 -1.15001 0)
(4.08934 -1.14996 0)
(4.08945 -1.14987 0)
(4.08946 -1.14973 0)
(4.08945 -1.1496 0)
(4.0894 -1.14963 0)
(4.08795 -1.14358 0)
(4.07551 -1.08476 0)
(4.06367 -0.995972 0)
(4.03528 -0.793553 0)
(4.02983 -0.674973 0)
(3.99489 -0.411561 0)
(4.00396 -0.36064 0)
(3.96909 -0.158808 0)
(3.98633 -0.147923 0)
(3.93681 -0.0430459 0)
(3.93572 -0.0296201 0)
(3.92036 0.00310715 0)
(3.91465 0.0241465 0)
(3.90987 0.0402734 0)
(3.90053 0.053719 0)
(3.89857 0.0703047 0)
(3.89354 0.0669137 0)
(3.89023 0.0509106 0)
(3.88832 0.0366208 0)
(3.88726 0.0196239 0)
(3.88799 0.0214441 0)
(3.89113 0.0309536 0)
(3.89582 0.0456822 0)
(3.89738 0.0552328 0)
(3.89693 0.0543143 0)
(3.89515 0.0463245 0)
(3.89264 0.0353862 0)
(3.89083 0.0288099 0)
(3.89184 0.0334569 0)
(3.89368 0.0419831 0)
(3.89594 0.0485881 0)
(3.89624 0.0478589 0)
(3.89592 0.044646 0)
(3.89517 0.0422366 0)
(3.89575 0.0441106 0)
(3.89684 0.0471532 0)
(3.89705 0.0474111 0)
(3.89706 0.0455788 0)
(3.8972 0.0436128 0)
(3.89701 0.0441447 0)
(3.89735 0.0453969 0)
(3.89725 0.0452897 0)
(3.89669 0.0439078 0)
(3.89681 0.0425505 0)
(3.89648 0.0421449 0)
(4.09315 -1.15081 0)
(4.09313 -1.1508 0)
(4.0931 -1.15079 0)
(4.09308 -1.15078 0)
(4.09308 -1.15075 0)
(4.09307 -1.15072 0)
(4.09304 -1.15071 0)
(4.09302 -1.15071 0)
(4.09299 -1.1507 0)
(4.09295 -1.15068 0)
(4.09291 -1.15066 0)
(4.09288 -1.1506 0)
(4.09287 -1.15057 0)
(4.09283 -1.15053 0)
(4.0927 -1.15059 0)
(4.09261 -1.15064 0)
(4.09256 -1.15064 0)
(4.09249 -1.15061 0)
(4.09229 -1.15068 0)
(4.09214 -1.15069 0)
(4.09212 -1.1507 0)
(4.09213 -1.15073 0)
(4.09214 -1.15075 0)
(4.09211 -1.15082 0)
(4.09201 -1.15089 0)
(4.09191 -1.1509 0)
(4.09178 -1.15088 0)
(4.09198 -1.15094 0)
(4.09206 -1.15094 0)
(4.09208 -1.15089 0)
(4.09205 -1.15084 0)
(4.09204 -1.15077 0)
(4.09194 -1.15066 0)
(4.09181 -1.15062 0)
(4.09168 -1.1506 0)
(4.09156 -1.15059 0)
(4.09113 -1.15049 0)
(4.09094 -1.15043 0)
(4.09083 -1.15027 0)
(4.0907 -1.15009 0)
(4.09061 -1.15 0)
(4.0907 -1.14989 0)
(4.09059 -1.14976 0)
(4.09035 -1.14974 0)
(4.09008 -1.14982 0)
(4.08998 -1.14986 0)
(4.08974 -1.14991 0)
(4.08933 -1.15002 0)
(4.08888 -1.15004 0)
(4.0887 -1.15 0)
(4.08873 -1.14996 0)
(4.08884 -1.14985 0)
(4.08887 -1.14974 0)
(4.08898 -1.14954 0)
(4.08902 -1.14946 0)
(4.08901 -1.14948 0)
(4.08878 -1.14961 0)
(4.08867 -1.14979 0)
(4.0887 -1.14995 0)
(4.08874 -1.15013 0)
(4.08255 -1.11813 0)
(4.0729 -1.04357 0)
(4.03692 -0.811753 0)
(4.03971 -0.654719 0)
(3.98274 -0.305536 0)
(4.00894 -0.257858 0)
(3.94927 -0.0187826 0)
(3.94844 0.0104275 0)
(3.91901 0.0914994 0)
(3.91098 0.123212 0)
(3.89691 0.102665 0)
(3.89549 0.0653811 0)
(3.89315 0.0433978 0)
(3.88982 0.0309824 0)
(3.89048 0.028383 0)
(3.89177 0.0320443 0)
(3.89682 0.0514817 0)
(3.89694 0.0610956 0)
(3.89517 0.0593407 0)
(3.89092 0.0472306 0)
(3.88969 0.0400984 0)
(3.88799 0.0311239 0)
(3.88883 0.0333035 0)
(3.89238 0.0423469 0)
(3.89405 0.0502393 0)
(3.89414 0.0496842 0)
(3.89295 0.0458988 0)
(3.89206 0.0409165 0)
(3.89251 0.0431592 0)
(3.89329 0.0461937 0)
(3.8952 0.0489724 0)
(3.8947 0.0471506 0)
(3.89437 0.0443355 0)
(3.8944 0.0441285 0)
(3.89497 0.0455085 0)
(3.89596 0.0461109 0)
(3.89575 0.0445709 0)
(3.89523 0.0419846 0)
(3.89566 0.041426 0)
(3.89544 0.0418273 0)
(4.09262 -1.15071 0)
(4.09261 -1.15073 0)
(4.09261 -1.15072 0)
(4.09262 -1.15066 0)
(4.0926 -1.15064 0)
(4.09258 -1.15064 0)
(4.09256 -1.15064 0)
(4.09255 -1.15066 0)
(4.09251 -1.15069 0)
(4.09248 -1.15068 0)
(4.09251 -1.15054 0)
(4.09253 -1.15043 0)
(4.0925 -1.15037 0)
(4.09235 -1.15045 0)
(4.09219 -1.15057 0)
(4.09209 -1.15051 0)
(4.0919 -1.15053 0)
(4.09166 -1.15049 0)
(4.09162 -1.15049 0)
(4.09157 -1.15044 0)
(4.09151 -1.15042 0)
(4.09145 -1.15045 0)
(4.09137 -1.15052 0)
(4.09132 -1.15056 0)
(4.09127 -1.15062 0)
(4.0912 -1.15076 0)
(4.09118 -1.15077 0)
(4.09114 -1.15069 0)
(4.09103 -1.15062 0)
(4.09088 -1.15055 0)
(4.09076 -1.15035 0)
(4.09074 -1.15026 0)
(4.09072 -1.15022 0)
(4.09073 -1.15025 0)
(4.09066 -1.15038 0)
(4.09052 -1.15046 0)
(4.0903 -1.15033 0)
(4.09006 -1.15022 0)
(4.09002 -1.1501 0)
(4.09001 -1.14991 0)
(4.0899 -1.14977 0)
(4.0898 -1.14958 0)
(4.08978 -1.14951 0)
(4.08969 -1.14959 0)
(4.08953 -1.14967 0)
(4.08943 -1.14967 0)
(4.08914 -1.14969 0)
(4.08867 -1.14991 0)
(4.08839 -1.15007 0)
(4.08835 -1.15012 0)
(4.08839 -1.15009 0)
(4.08841 -1.15001 0)
(4.08848 -1.14986 0)
(4.08875 -1.14961 0)
(4.08893 -1.14945 0)
(4.08911 -1.14942 0)
(4.08904 -1.14953 0)
(4.08894 -1.14976 0)
(4.08898 -1.15002 0)
(4.08914 -1.15029 0)
(4.08931 -1.15043 0)
(4.08943 -1.15043 0)
(4.08956 -1.15029 0)
(4.08964 -1.15027 0)
(4.08101 -1.10835 0)
(4.06953 -1.01143 0)
(4.03627 -0.774142 0)
(4.02814 -0.613989 0)
(3.9827 -0.323607 0)
(3.99573 -0.240114 0)
(3.94674 -0.103106 0)
(3.95556 -0.0648835 0)
(3.93012 -0.0122099 0)
(3.92039 0.0199547 0)
(3.91527 0.039329 0)
(3.89605 0.0578726 0)
(3.89586 0.0728058 0)
(3.88914 0.0632326 0)
(3.88645 0.0461397 0)
(3.88238 0.020126 0)
(3.88333 0.0195672 0)
(3.88583 0.0270895 0)
(3.89077 0.0422241 0)
(3.8938 0.0542422 0)
(3.89348 0.052939 0)
(3.89135 0.0462102 0)
(3.8896 0.0382372 0)
(3.89014 0.0406079 0)
(3.89135 0.0451806 0)
(3.89293 0.0498688 0)
(3.89261 0.0479513 0)
(3.89175 0.0437496 0)
(3.89187 0.0422014 0)
(3.89256 0.0448233 0)
(3.89358 0.0468259 0)
(3.89353 0.0455979 0)
(3.89315 0.0430234 0)
(3.89309 0.0421971 0)
(3.89331 0.0423396 0)
(3.89368 0.0416676 0)
(4.09213 -1.15078 0)
(4.09216 -1.15075 0)
(4.09215 -1.1507 0)
(4.09212 -1.15068 0)
(4.09211 -1.15068 0)
(4.09209 -1.15067 0)
(4.09202 -1.15069 0)
(4.09199 -1.15074 0)
(4.09194 -1.15079 0)
(4.09189 -1.15078 0)
(4.092 -1.15054 0)
(4.09201 -1.15045 0)
(4.09191 -1.15043 0)
(4.09168 -1.15041 0)
(4.09143 -1.15039 0)
(4.09107 -1.15032 0)
(4.09098 -1.15031 0)
(4.09091 -1.1503 0)
(4.09083 -1.15021 0)
(4.09075 -1.15003 0)
(4.09069 -1.15001 0)
(4.09068 -1.1501 0)
(4.09062 -1.15013 0)
(4.09053 -1.1502 0)
(4.09046 -1.15031 0)
(4.09036 -1.15037 0)
(4.09026 -1.15039 0)
(4.0902 -1.15029 0)
(4.0901 -1.15009 0)
(4.09 -1.15008 0)
(4.09 -1.15015 0)
(4.09001 -1.15017 0)
(4.09001 -1.15016 0)
(4.08987 -1.15017 0)
(4.08958 -1.15021 0)
(4.08933 -1.15032 0)
(4.0891 -1.15034 0)
(4.08903 -1.15027 0)
(4.08906 -1.15012 0)
(4.08913 -1.14988 0)
(4.08913 -1.14966 0)
(4.0891 -1.14946 0)
(4.08907 -1.14936 0)
(4.089 -1.14947 0)
(4.0889 -1.14951 0)
(4.08888 -1.14948 0)
(4.08856 -1.14967 0)
(4.08817 -1.14982 0)
(4.08809 -1.14998 0)
(4.08816 -1.15018 0)
(4.08829 -1.15028 0)
(4.08853 -1.15022 0)
(4.08862 -1.15015 0)
(4.08874 -1.15 0)
(4.08911 -1.1496 0)
(4.08925 -1.14946 0)
(4.0893 -1.1495 0)
(4.08924 -1.14969 0)
(4.08926 -1.15 0)
(4.08943 -1.15035 0)
(4.08972 -1.15066 0)
(4.08992 -1.15076 0)
(4.08994 -1.15076 0)
(4.08994 -1.15075 0)
(4.08992 -1.15067 0)
(4.08991 -1.15061 0)
(4.08988 -1.15087 0)
(4.08946 -1.14829 0)
(4.07421 -1.06685 0)
(4.06033 -0.911765 0)
(3.99494 -0.495748 0)
(4.02994 -0.396203 0)
(3.95396 -0.0476445 0)
(3.97371 -0.0181862 0)
(3.92489 0.122525 0)
(3.90636 0.121698 0)
(3.89253 0.083681 0)
(3.89107 0.0505539 0)
(3.88646 0.0293229 0)
(3.88657 0.0262009 0)
(3.88776 0.0262268 0)
(3.8943 0.0466937 0)
(3.89501 0.0566882 0)
(3.89394 0.0556502 0)
(3.89121 0.0479545 0)
(3.88894 0.0404577 0)
(3.88902 0.0400618 0)
(3.89118 0.0463443 0)
(3.89282 0.0525418 0)
(3.89253 0.050654 0)
(3.89112 0.0461927 0)
(3.89033 0.0431342 0)
(3.89079 0.0442391 0)
(3.8922 0.0474022 0)
(3.89222 0.0469869 0)
(3.89153 0.0440718 0)
(3.89084 0.0410443 0)
(3.89103 0.0415649 0)
(3.8915 0.0422262 0)
(3.89156 0.0411374 0)
(4.09125 -1.15068 0)
(4.0912 -1.15066 0)
(4.09119 -1.15066 0)
(4.09116 -1.15064 0)
(4.0911 -1.15062 0)
(4.09099 -1.15065 0)
(4.09097 -1.15073 0)
(4.09093 -1.15082 0)
(4.09087 -1.15089 0)
(4.09098 -1.1507 0)
(4.09103 -1.15045 0)
(4.09099 -1.15042 0)
(4.09085 -1.15044 0)
(4.09065 -1.15032 0)
(4.09028 -1.14998 0)
(4.09017 -1.14992 0)
(4.09012 -1.14992 0)
(4.09005 -1.14992 0)
(4.09005 -1.14979 0)
(4.09009 -1.14971 0)
(4.09007 -1.1498 0)
(4.09 -1.14981 0)
(4.08992 -1.14975 0)
(4.08986 -1.14979 0)
(4.08982 -1.14993 0)
(4.08971 -1.15001 0)
(4.08958 -1.14998 0)
(4.08948 -1.14982 0)
(4.08951 -1.14974 0)
(4.08948 -1.14988 0)
(4.08944 -1.14998 0)
(4.08938 -1.15004 0)
(4.08926 -1.15 0)
(4.089 -1.14998 0)
(4.08848 -1.14997 0)
(4.08837 -1.15 0)
(4.08834 -1.15016 0)
(4.08837 -1.1503 0)
(4.08839 -1.15022 0)
(4.08837 -1.15004 0)
(4.0885 -1.14988 0)
(4.08883 -1.14959 0)
(4.08893 -1.14933 0)
(4.08902 -1.14933 0)
(4.08905 -1.14934 0)
(4.08905 -1.14926 0)
(4.08882 -1.14941 0)
(4.08861 -1.14982 0)
(4.08856 -1.14995 0)
(4.08869 -1.15028 0)
(4.08879 -1.1504 0)
(4.08896 -1.15045 0)
(4.08903 -1.15038 0)
(4.08906 -1.15026 0)
(4.08942 -1.14981 0)
(4.08968 -1.1494 0)
(4.0897 -1.14933 0)
(4.08965 -1.14944 0)
(4.08953 -1.14986 0)
(4.08968 -1.15039 0)
(4.09001 -1.15081 0)
(4.09021 -1.15094 0)
(4.09013 -1.15087 0)
(4.09012 -1.15086 0)
(4.09014 -1.15085 0)
(4.09016 -1.15077 0)
(4.09008 -1.15077 0)
(4.09023 -1.15085 0)
(4.09068 -1.15097 0)
(4.09138 -1.15088 0)
(4.09106 -1.14731 0)
(4.08442 -1.09868 0)
(4.05149 -0.89394 0)
(4.04138 -0.683287 0)
(3.98789 -0.325419 0)
(4.01263 -0.250944 0)
(3.9466 -0.0869419 0)
(3.95272 -0.0544648 0)
(3.92396 -0.00577184 0)
(3.91814 0.0254102 0)
(3.90152 0.0463075 0)
(3.89865 0.0655973 0)
(3.89464 0.0610884 0)
(3.8893 0.046324 0)
(3.88775 0.0291053 0)
(3.8875 0.0320062 0)
(3.89006 0.0420867 0)
(3.89276 0.0511192 0)
(3.8928 0.051405 0)
(3.89108 0.045235 0)
(3.88929 0.0392722 0)
(3.88981 0.0415114 0)
(3.89099 0.0469834 0)
(3.89176 0.0483526 0)
(3.89108 0.0453821 0)
(3.88976 0.0417797 0)
(3.88983 0.0414837 0)
(3.89009 0.042724 0)
(3.8905 0.042278 0)
(3.88987 0.0399387 0)
(4.08988 -1.15034 0)
(4.08987 -1.15031 0)
(4.08986 -1.15027 0)
(4.08985 -1.15025 0)
(4.0898 -1.15028 0)
(4.08967 -1.15035 0)
(4.08962 -1.15042 0)
(4.08955 -1.1505 0)
(4.08948 -1.15051 0)
(4.0894 -1.15045 0)
(4.08933 -1.15029 0)
(4.08929 -1.15014 0)
(4.0893 -1.15014 0)
(4.08933 -1.15017 0)
(4.08937 -1.1501 0)
(4.08928 -1.14968 0)
(4.08916 -1.14949 0)
(4.08913 -1.1495 0)
(4.08915 -1.14944 0)
(4.08923 -1.14924 0)
(4.08922 -1.14909 0)
(4.08917 -1.14906 0)
(4.08908 -1.14901 0)
(4.08895 -1.14907 0)
(4.08886 -1.14932 0)
(4.08875 -1.14948 0)
(4.08875 -1.14954 0)
(4.08883 -1.14954 0)
(4.08877 -1.14951 0)
(4.08869 -1.14951 0)
(4.0886 -1.1496 0)
(4.08845 -1.1498 0)
(4.08833 -1.1497 0)
(4.08829 -1.1495 0)
(4.08806 -1.14964 0)
(4.08791 -1.15005 0)
(4.088 -1.15029 0)
(4.08817 -1.15035 0)
(4.08828 -1.15029 0)
(4.0883 -1.15024 0)
(4.08858 -1.15012 0)
(4.08883 -1.14995 0)
(4.08887 -1.14962 0)
(4.08907 -1.14917 0)
(4.08928 -1.14898 0)
(4.08947 -1.14889 0)
(4.08938 -1.14921 0)
(4.0893 -1.14966 0)
(4.08929 -1.14975 0)
(4.08932 -1.14997 0)
(4.08945 -1.15028 0)
(4.08954 -1.15044 0)
(4.08974 -1.15055 0)
(4.08988 -1.1503 0)
(4.08993 -1.14988 0)
(4.08982 -1.14955 0)
(4.08964 -1.14932 0)
(4.0896 -1.14949 0)
(4.08947 -1.14997 0)
(4.08966 -1.15056 0)
(4.09025 -1.15097 0)
(4.09061 -1.15108 0)
(4.09036 -1.15099 0)
(4.09032 -1.15101 0)
(4.09037 -1.15101 0)
(4.09033 -1.15086 0)
(4.09044 -1.15057 0)
(4.09082 -1.15031 0)
(4.09114 -1.15022 0)
(4.09193 -1.14998 0)
(4.09223 -1.1499 0)
(4.09172 -1.14998 0)
(4.09158 -1.14999 0)
(4.09105 -1.15081 0)
(4.07504 -1.07429 0)
(4.06325 -0.875364 0)
(3.99062 -0.424301 0)
(4.02478 -0.29812 0)
(3.95028 0.0123573 0)
(3.94265 0.07404 0)
(3.9212 0.147558 0)
(3.89551 0.0911482 0)
(3.8912 0.0557189 0)
(3.8907 0.0388151 0)
(3.89072 0.0350932 0)
(3.89387 0.0434525 0)
(3.89641 0.060923 0)
(3.89538 0.058691 0)
(3.8923 0.0494935 0)
(3.88913 0.0400238 0)
(3.8891 0.0399907 0)
(3.89093 0.0465512 0)
(3.8918 0.052618 0)
(3.89092 0.0491157 0)
(3.88975 0.0437479 0)
(3.88852 0.039892 0)
(3.88919 0.0415618 0)
(3.88966 0.0435792 0)
(3.88937 0.0425103 0)
(3.88835 0.039265 0)
(4.08892 -1.14993 0)
(4.0889 -1.14991 0)
(4.08889 -1.14991 0)
(4.08887 -1.14987 0)
(4.08885 -1.14984 0)
(4.08884 -1.14983 0)
(4.0888 -1.14986 0)
(4.08876 -1.14991 0)
(4.08872 -1.14994 0)
(4.0887 -1.14998 0)
(4.08867 -1.14998 0)
(4.08865 -1.14995 0)
(4.08867 -1.14995 0)
(4.08871 -1.14994 0)
(4.0887 -1.14983 0)
(4.08866 -1.1497 0)
(4.08872 -1.14954 0)
(4.08875 -1.14948 0)
(4.08888 -1.14934 0)
(4.08907 -1.1492 0)
(4.08915 -1.14918 0)
(4.08925 -1.14909 0)
(4.08918 -1.14881 0)
(4.08916 -1.14876 0)
(4.08915 -1.14879 0)
(4.0891 -1.14891 0)
(4.08904 -1.14899 0)
(4.08905 -1.14897 0)
(4.08904 -1.14885 0)
(4.08903 -1.14877 0)
(4.08899 -1.14878 0)
(4.08864 -1.14912 0)
(4.08852 -1.14932 0)
(4.08845 -1.14953 0)
(4.08833 -1.14979 0)
(4.08821 -1.15003 0)
(4.08822 -1.15026 0)
(4.08835 -1.15037 0)
(4.0884 -1.15039 0)
(4.08867 -1.15026 0)
(4.08891 -1.15018 0)
(4.08905 -1.14996 0)
(4.08908 -1.14956 0)
(4.08927 -1.14923 0)
(4.08948 -1.14909 0)
(4.08962 -1.14893 0)
(4.08965 -1.14901 0)
(4.08961 -1.14936 0)
(4.08957 -1.14964 0)
(4.08951 -1.14971 0)
(4.08972 -1.15017 0)
(4.08991 -1.15057 0)
(4.09026 -1.15088 0)
(4.09079 -1.15074 0)
(4.0904 -1.14995 0)
(4.09021 -1.14965 0)
(4.08975 -1.14939 0)
(4.08946 -1.1496 0)
(4.08965 -1.15018 0)
(4.08992 -1.15094 0)
(4.09049 -1.15124 0)
(4.09086 -1.15121 0)
(4.09053 -1.15106 0)
(4.09045 -1.15111 0)
(4.09049 -1.15118 0)
(4.09087 -1.151 0)
(4.0915 -1.15015 0)
(4.0917 -1.14986 0)
(4.09187 -1.14983 0)
(4.09223 -1.14971 0)
(4.09196 -1.14977 0)
(4.09149 -1.15003 0)
(4.09054 -1.15049 0)
(4.08947 -1.15117 0)
(4.08938 -1.15118 0)
(4.08855 -1.1522 0)
(4.08479 -1.13886 0)
(4.07293 -1.04117 0)
(4.03609 -0.761177 0)
(4.02353 -0.514223 0)
(3.98025 -0.200905 0)
(3.99881 -0.129616 0)
(3.93581 -0.0166091 0)
(3.9195 0.0105846 0)
(3.91522 0.0323306 0)
(3.89742 0.0590094 0)
(3.89592 0.060675 0)
(3.88783 0.0485747 0)
(3.88545 0.0309763 0)
(3.88607 0.0334481 0)
(3.88884 0.042435 0)
(3.89146 0.0517267 0)
(3.89114 0.0510983 0)
(3.88844 0.0432814 0)
(3.88738 0.0381841 0)
(3.88793 0.0397044 0)
(3.88868 0.0437034 0)
(3.88851 0.0438791 0)
(3.88755 0.0402874 0)
(3.88703 0.0372767 0)
(4.08851 -1.14962 0)
(4.08849 -1.14971 0)
(4.08851 -1.14974 0)
(4.08852 -1.14975 0)
(4.08851 -1.14979 0)
(4.08849 -1.14981 0)
(4.08849 -1.14981 0)
(4.08845 -1.14987 0)
(4.08844 -1.14996 0)
(4.08845 -1.14999 0)
(4.08846 -1.15001 0)
(4.08848 -1.15009 0)
(4.08852 -1.15008 0)
(4.08856 -1.14992 0)
(4.08862 -1.1498 0)
(4.08861 -1.14989 0)
(4.08859 -1.15006 0)
(4.08859 -1.15014 0)
(4.0889 -1.14986 0)
(4.08918 -1.14935 0)
(4.08923 -1.14925 0)
(4.08924 -1.14915 0)
(4.08918 -1.1489 0)
(4.08918 -1.14877 0)
(4.08919 -1.14876 0)
(4.08921 -1.1488 0)
(4.08921 -1.14891 0)
(4.08933 -1.14891 0)
(4.08959 -1.14869 0)
(4.08964 -1.1486 0)
(4.08963 -1.14862 0)
(4.08928 -1.14915 0)
(4.08913 -1.14946 0)
(4.08902 -1.14956 0)
(4.08892 -1.14986 0)
(4.08893 -1.15006 0)
(4.08884 -1.15038 0)
(4.08872 -1.15057 0)
(4.08863 -1.15056 0)
(4.08899 -1.15033 0)
(4.08915 -1.15029 0)
(4.08921 -1.15013 0)
(4.08933 -1.14974 0)
(4.08959 -1.14957 0)
(4.0897 -1.14929 0)
(4.08973 -1.14893 0)
(4.08976 -1.14887 0)
(4.08978 -1.14911 0)
(4.08978 -1.14942 0)
(4.08976 -1.14969 0)
(4.09032 -1.15043 0)
(4.09065 -1.15102 0)
(4.09111 -1.15141 0)
(4.09163 -1.15128 0)
(4.09089 -1.15023 0)
(4.09025 -1.14989 0)
(4.08977 -1.14959 0)
(4.08904 -1.14964 0)
(4.08977 -1.15105 0)
(4.09018 -1.15164 0)
(4.09063 -1.15176 0)
(4.091 -1.15143 0)
(4.09062 -1.15108 0)
(4.0906 -1.15116 0)
(4.09084 -1.1516 0)
(4.09185 -1.15122 0)
(4.09242 -1.14989 0)
(4.09206 -1.14965 0)
(4.09178 -1.14965 0)
(4.09143 -1.14976 0)
(4.09113 -1.14988 0)
(4.09047 -1.15006 0)
(4.0889 -1.15136 0)
(4.08853 -1.15152 0)
(4.08845 -1.15195 0)
(4.08726 -1.15234 0)
(4.08658 -1.15217 0)
(4.08543 -1.15246 0)
(4.08491 -1.15115 0)