/*--------------------------------*- C++ -*----------------------------------*\
  =========                 |
  \\      /  F ield         | OpenFOAM: The Open Source CFD Toolbox
   \\    /   O peration     | Website:  https://openfoam.org
    \\  /    A nd           | Version:  7
     \\/     M anipulation  |
\*---------------------------------------------------------------------------*/
FoamFile
{
    version     2.0;
    format      ascii;
    class       volScalarField;
    location    "12.5";
    object      p;
}
// * * * * * * * * * * * * * * * * * * * * * * * * * * * * * * * * * * * * * //

dimensions      [1 -1 -2 0 0 0 0];

internalField   nonuniform List<scalar> 
90000
(
0.616261
0.709357
0.7644
0.829895
0.876873
0.887228
0.891444
0.89358
0.883363
0.865759
0.849289
0.828077
0.808425
0.789031
0.77093
0.752361
0.736576
0.723905
0.713461
0.705451
0.698606
0.693837
0.690802
0.689753
0.690792
0.693179
0.697068
0.701456
0.706474
0.711411
0.716212
0.720386
0.723996
0.727454
0.730689
0.733315
0.736096
0.739665
0.742553
0.744275
0.744591
0.742982
0.741025
0.738299
0.736103
0.732105
0.726911
0.72083
0.713565
0.707051
0.700858
0.701243
0.703842
0.706778
0.712386
0.720192
0.727869
0.734443
0.737398
0.738773
0.739042
0.738356
0.734765
0.73074
0.729456
0.728766
0.730303
0.735875
0.744057
0.752046
0.758556
0.760024
0.760736
0.7615
0.764844
0.773577
0.786243
0.796072
0.804939
0.806601
0.813018
0.820677
0.833897
0.842798
0.850627
0.853277
0.863394
0.86866
0.877645
0.87913
0.885901
0.89091
0.89717
0.905958
0.908221
0.913778
0.918928
0.923026
0.928928
0.935222
0.69145
0.695807
0.70135
0.708435
0.718857
0.7277
0.735879
0.743447
0.749482
0.752849
0.752284
0.748491
0.742736
0.7363
0.729485
0.723045
0.718209
0.714006
0.711412
0.70919
0.708395
0.708178
0.70937
0.711372
0.71376
0.715956
0.718558
0.720912
0.723266
0.72484
0.725179
0.724187
0.722208
0.718942
0.713937
0.708425
0.703459
0.699955
0.697822
0.696885
0.696603
0.696873
0.696772
0.697544
0.699048
0.701231
0.703343
0.705465
0.707209
0.708295
0.709742
0.712984
0.719516
0.726376
0.731816
0.736781
0.740531
0.744344
0.744033
0.742257
0.738433
0.733338
0.7276
0.728214
0.729627
0.734222
0.741484
0.750434
0.758253
0.762363
0.762872
0.761889
0.7622
0.766039
0.774851
0.788396
0.797522
0.803655
0.808815
0.811599
0.819534
0.831297
0.842344
0.848876
0.852978
0.85834
0.867907
0.87315
0.880843
0.882473
0.889954
0.89479
0.902236
0.908891
0.91087
0.916883
0.920681
0.925051
0.93096
0.935343
0.668268
0.670986
0.677512
0.682345
0.686072
0.690213
0.693353
0.696735
0.699378
0.70277
0.707522
0.713865
0.718398
0.722268
0.724194
0.725411
0.725052
0.723581
0.720597
0.716499
0.712543
0.708592
0.706073
0.704241
0.703834
0.704158
0.705721
0.70819
0.712091
0.717128
0.722656
0.727409
0.730683
0.732325
0.73162
0.729901
0.727984
0.726129
0.724051
0.722576
0.722114
0.723074
0.724985
0.727801
0.731689
0.736554
0.742205
0.74797
0.75353
0.757947
0.760982
0.762016
0.761444
0.761055
0.757986
0.754132
0.74864
0.742039
0.735414
0.729001
0.723453
0.722471
0.725875
0.731586
0.741539
0.751616
0.758635
0.762641
0.764454
0.76418
0.763546
0.763744
0.767856
0.777834
0.78862
0.800832
0.804298
0.808451
0.811256
0.817435
0.828588
0.844489
0.84824
0.853405
0.856306
0.864995
0.872187
0.877316
0.882642
0.885873
0.894237
0.898768
0.90659
0.910925
0.913289
0.919297
0.921594
0.926182
0.932166
0.935134
0.583555
0.622628
0.653242
0.662817
0.666707
0.673027
0.68041
0.684761
0.687193
0.690482
0.692816
0.693976
0.695204
0.696152
0.697188
0.698546
0.700131
0.702496
0.704976
0.707675
0.710109
0.712482
0.71434
0.715641
0.716718
0.71735
0.717641
0.716733
0.714613
0.712134
0.710208
0.709171
0.709046
0.709581
0.710081
0.710876
0.713552
0.717977
0.721955
0.724626
0.726496
0.726837
0.727984
0.729339
0.729102
0.728428
0.727877
0.728436
0.729318
0.730495
0.730747
0.729952
0.726812
0.724694
0.722381
0.721284
0.720624
0.721656
0.724067
0.727226
0.731541
0.737483
0.746281
0.754232
0.760517
0.766303
0.770122
0.770308
0.768056
0.763383
0.764058
0.769499
0.781163
0.794422
0.803838
0.80755
0.808303
0.811072
0.815403
0.827636
0.840619
0.851754
0.852876
0.857246
0.861636
0.873148
0.876393
0.880694
0.88416
0.889949
0.897989
0.902424
0.910326
0.912553
0.915481
0.92102
0.922557
0.927934
0.933593
0.935514
0.0994508
0.205461
0.397142
0.472781
0.534886
0.581211
0.6326
0.663383
0.674338
0.677259
0.68082
0.686103
0.690211
0.691781
0.693461
0.695441
0.697086
0.697913
0.69803
0.698104
0.697837
0.698072
0.698625
0.699552
0.700437
0.701567
0.7032
0.705721
0.709105
0.712276
0.715037
0.717094
0.718907
0.720416
0.721524
0.721004
0.71818
0.71518
0.713649
0.713631
0.714631
0.715989
0.717541
0.722973
0.729132
0.734501
0.738604
0.741018
0.745046
0.747838
0.747805
0.746049
0.74415
0.743776
0.745
0.748067
0.75198
0.756822
0.762531
0.768695
0.775068
0.779585
0.780843
0.780624
0.776836
0.772058
0.7667
0.761961
0.760977
0.762094
0.771104
0.785702
0.798044
0.80551
0.811005
0.810911
0.811246
0.815436
0.825177
0.84018
0.852952
0.854508
0.855861
0.861165
0.869438
0.879239
0.879937
0.883778
0.885787
0.894912
0.900112
0.90571
0.913494
0.914327
0.918361
0.922735
0.924392
0.930565
0.935648
0.937623
0.0286651
0.028537
0.0309074
0.0414779
0.0671058
0.110878
0.206016
0.384485
0.459305
0.528341
0.584829
0.632401
0.665906
0.675816
0.679474
0.682367
0.686693
0.688999
0.689904
0.692876
0.696415
0.699583
0.701402
0.702738
0.704204
0.70544
0.706174
0.706376
0.706084
0.705872
0.706002
0.706582
0.707012
0.707578
0.708815
0.711364
0.715161
0.717935
0.719901
0.721583
0.72304
0.724392
0.725393
0.723697
0.722011
0.722324
0.723828
0.725375
0.7275
0.7336
0.739133
0.742428
0.742943
0.745098
0.745828
0.744874
0.743289
0.743959
0.74596
0.749088
0.753428
0.755912
0.756683
0.757742
0.758204
0.759761
0.762166
0.768485
0.775062
0.78617
0.798853
0.808781
0.814526
0.8155
0.81573
0.811532
0.814044
0.824036
0.839839
0.851371
0.858045
0.857125
0.858641
0.867209
0.87896
0.882514
0.882432
0.885552
0.892096
0.901835
0.904652
0.910104
0.915004
0.916187
0.922261
0.923516
0.926217
0.934024
0.937315
0.939784
0.0283167
0.0283201
0.0282967
0.0282675
0.0282359
0.0282113
0.028162
0.0310821
0.043465
0.0728333
0.123982
0.210559
0.38102
0.462795
0.535961
0.591575
0.64114
0.673809
0.684554
0.687027
0.688995
0.693008
0.694208
0.694244
0.696255
0.699098
0.701133
0.702847
0.704524
0.706708
0.708375
0.709541
0.710353
0.710947
0.71127
0.711326
0.711055
0.711151
0.712321
0.713058
0.713924
0.714932
0.717283
0.721936
0.724977
0.727645
0.730384
0.732991
0.735127
0.73324
0.731682
0.732339
0.733787
0.735839
0.74275
0.748776
0.753238
0.75731
0.76369
0.766213
0.768401
0.773104
0.777835
0.783076
0.788616
0.792788
0.797993
0.80378
0.807986
0.812181
0.808608
0.805397
0.80376
0.804298
0.809439
0.815554
0.827355
0.842127
0.855026
0.861091
0.859658
0.857393
0.863025
0.877248
0.885638
0.884962
0.884597
0.891383
0.899849
0.905967
0.907698
0.91414
0.918063
0.921346
0.926339
0.9274
0.931459
0.93701
0.941558
0.945559
0.0282817
0.0282737
0.0282667
0.0282596
0.028254
0.0282469
0.0282469
0.0282269
0.0281959
0.0281604
0.028137
0.028083
0.032832
0.050392
0.0879773
0.149448
0.233228
0.381049
0.489009
0.563786
0.618028
0.656414
0.682877
0.691496
0.692164
0.695909
0.69862
0.699122
0.69962
0.701792
0.703555
0.70488
0.70614
0.707477
0.708744
0.70994
0.711536
0.713308
0.714762
0.71613
0.717407
0.71842
0.719269
0.71946
0.721794
0.723452
0.72494
0.726251
0.728868
0.733836
0.736743
0.739325
0.74184
0.744014
0.743395
0.743295
0.745651
0.748322
0.753005
0.761994
0.767923
0.773237
0.780477
0.782334
0.782793
0.784466
0.786585
0.791343
0.796453
0.800162
0.802455
0.806685
0.814401
0.824147
0.836671
0.850775
0.860689
0.866055
0.859888
0.852332
0.852593
0.862603
0.876867
0.88927
0.889752
0.883226
0.887011
0.899036
0.905674
0.907981
0.91021
0.917682
0.921121
0.925961
0.929976
0.930886
0.93537
0.940038
0.945297
0.949593
0.0282983
0.0282969
0.0282966
0.0282978
0.0282995
0.0283007
0.0283013
0.028304
0.0283073
0.028313
0.0283182
0.0283295
0.0283314
0.028303
0.028269
0.0282487
0.0281961
0.0356012
0.0628302
0.116421
0.195108
0.289493
0.425751
0.538327
0.607938
0.654004
0.680021
0.69385
0.696613
0.69933
0.702465
0.702958
0.702442
0.704883
0.707147
0.709621
0.711148
0.71194
0.71262
0.713118
0.714215
0.715901
0.718256
0.721201
0.724185
0.726479
0.728406
0.729654
0.730711
0.730884
0.732956
0.734182
0.735522
0.738223
0.743959
0.746696
0.750508
0.753632
0.757998
0.758339
0.760366
0.764489
0.770053
0.782305
0.790201
0.795197
0.800815
0.804385
0.811229
0.820731
0.827193
0.831235
0.834492
0.839516
0.842505
0.842943
0.841598
0.841802
0.846453
0.85684
0.869346
0.888068
0.899766
0.889901
0.878815
0.880442
0.896459
0.908708
0.9085
0.905177
0.911138
0.920511
0.923595
0.929896
0.932353
0.933614
0.937449
0.941827
0.946301
0.950716
0.028372
0.0283727
0.0283736
0.0283765
0.0283788
0.0283823
0.0283829
0.0283855
0.0283856
0.0283885
0.0283872
0.0283925
0.028392
0.0283936
0.0283884
0.0283871
0.0283938
0.0283611
0.0283172
0.0282895
0.0282174
0.030187
0.0471754
0.0950558
0.175872
0.27926
0.397416
0.526015
0.610551
0.663568
0.688529
0.700547
0.702724
0.705427
0.706902
0.704862
0.704649
0.706477
0.70968
0.713322
0.716658
0.719429
0.721208
0.722419
0.723052
0.724419
0.726269
0.728087
0.730113
0.733234
0.735895
0.737526
0.739144
0.740305
0.741322
0.744328
0.746812
0.74925
0.753715
0.760567
0.764852
0.770587
0.77629
0.77761
0.785765
0.793982
0.800062
0.802527
0.802265
0.808569
0.820198
0.827613
0.831638
0.835686
0.839795
0.847573
0.858372
0.867747
0.877288
0.88737
0.8904
0.884793
0.873313
0.872761
0.88121
0.898872
0.91619
0.905353
0.899819
0.907456
0.917136
0.918352
0.921072
0.930879
0.931679
0.932559
0.934
0.937837
0.94101
0.944768
0.0284497
0.0284469
0.0284466
0.0284461
0.0284484
0.02845
0.0284512
0.0284484
0.028447
0.0284421
0.028438
0.0284342
0.0284329
0.0284309
0.0284261
0.0284182
0.0284074
0.0284005
0.0283952
0.0283885
0.0283773
0.0283731
0.0283191
0.0282779
0.0281986
0.0294398
0.0431406
0.0893274
0.176299
0.29587
0.421954
0.543986
0.632544
0.681227
0.700471
0.709082
0.708332
0.710937
0.710227
0.710574
0.711708
0.715448
0.718792
0.721693
0.723817
0.726159
0.728245
0.730106
0.732043
0.733355
0.733997
0.73543
0.737069
0.73942
0.743565
0.747029
0.750292
0.753242
0.756688
0.759859
0.764827
0.769262
0.774483
0.781287
0.78362
0.790496
0.800425
0.811841
0.8179
0.814533
0.813683
0.822801
0.84267
0.857933
0.855675
0.850578
0.851157
0.858964
0.868715
0.87573
0.878652
0.880621
0.887199
0.897277
0.908478
0.914909
0.902705
0.898716
0.911992
0.92703
0.9246
0.918919
0.927796
0.935356
0.932118
0.933373
0.932399
0.937283
0.939786
0.939522
0.0284993
0.0284919
0.0284867
0.0284845
0.0284835
0.0284844
0.0284829
0.0284778
0.0284703
0.0284584
0.0284472
0.0284369
0.0284298
0.0284215
0.0284122
0.0283983
0.0283863
0.0283729
0.0283655
0.0283496
0.0283352
0.02832
0.0283083
0.0282991
0.0282956
0.0282942
0.0282489
0.0282185
0.0281554
0.03014
0.0483155
0.103633
0.207104
0.343018
0.480326
0.59542
0.665018
0.700871
0.710889
0.714316
0.714189
0.716864
0.716501
0.719459
0.720962
0.724841
0.728047
0.729805
0.73078
0.731363
0.732894
0.736193
0.7396
0.742764
0.744798
0.746145
0.748533
0.751789
0.755713
0.761937
0.768039
0.77304
0.777386
0.7816
0.785058
0.787875
0.792768
0.803448
0.817182
0.828992
0.82764
0.814949
0.813071
0.830335
0.856132
0.866939
0.86458
0.859089
0.864487
0.880473
0.896463
0.904595
0.904418
0.898801
0.898549
0.900163
0.90919
0.920717
0.932421
0.922225
0.922029
0.932875
0.946132
0.942989
0.941937
0.946856
0.942825
0.949509
0.95091
0.943081
0.0285348
0.0285211
0.0285116
0.0285036
0.0284948
0.0284889
0.0284815
0.0284716
0.0284569
0.0284384
0.0284219
0.0284128
0.0284054
0.0283971
0.0283853
0.0283741
0.0283646
0.028357
0.0283525
0.0283455
0.02834
0.0283418
0.0283511
0.0283564
0.028369
0.0283686
0.0283719
0.028385
0.0283947
0.0284215
0.0284066
0.0283914
0.0283344
0.0341189
0.0662081
0.146876
0.277335
0.43011
0.564693
0.654617
0.700008
0.717064
0.721678
0.721788
0.721209
0.722139
0.723604
0.725829
0.72975
0.732183
0.734462
0.736783
0.737953
0.740112
0.743184
0.746586
0.751554
0.755804
0.759329
0.762389
0.766199
0.770926
0.776509
0.782493
0.787845
0.792143
0.797277
0.80136
0.807462
0.817736
0.83118
0.837353
0.832389
0.824878
0.829841
0.852489
0.876501
0.883778
0.874205
0.868841
0.875523
0.890379
0.902701
0.906403
0.907101
0.911049
0.91299
0.915922
0.915291
0.923397
0.933282
0.9397
0.933962
0.936272
0.943418
0.950759
0.954293
0.969659
0.972579
0.95867
0.0285356
0.0285254
0.02851
0.0284907
0.0284721
0.0284568
0.028443
0.0284267
0.0284065
0.0283857
0.0283724
0.0283689
0.0283659
0.0283604
0.0283549
0.0283565
0.028363
0.0283712
0.0283804
0.0283908
0.0283988
0.0284144
0.0284381
0.0284581
0.0284697
0.0284745
0.0284819
0.0284893
0.0284979
0.0285089
0.0285261
0.0285314
0.0285284
0.0284823
0.0284415
0.0283498
0.0290643
0.048548
0.114237
0.238677
0.403568
0.568382
0.663575
0.708276
0.720615
0.724107
0.725235
0.725193
0.727028
0.728033
0.731416
0.735903
0.738966
0.742454
0.744827
0.747208
0.751241
0.754209
0.757689
0.761864
0.766641
0.773376
0.779427
0.784303
0.788297
0.792108
0.797405
0.802561
0.808358
0.81704
0.826227
0.836625
0.84338
0.842648
0.838998
0.83844
0.851936
0.872919
0.891123
0.891248
0.879071
0.872628
0.882011
0.899122
0.91619
0.918215
0.913511
0.909763
0.916667
0.927588
0.933876
0.934803
0.941864
0.94507
0.941658
0.93699
0.94095
0.952591
0.957128
0.960185
0.0285191
0.0285
0.02848
0.0284619
0.0284467
0.0284314
0.0284161
0.0284016
0.0283884
0.0283788
0.0283788
0.0283841
0.0283871
0.028389
0.028397
0.0284149
0.0284379
0.0284616
0.0284921
0.028522
0.0285418
0.028562
0.0285846
0.0285966
0.0285975
0.0285967
0.0285918
0.0285908
0.0285914
0.0285927
0.0285896
0.0285739
0.0285428
0.0285114
0.0284722
0.0284266
0.0283668
0.0282905
0.0282418
0.0281773
0.0427195
0.107335
0.238278
0.418869
0.581892
0.668769
0.714656
0.724094
0.730459
0.730445
0.73156
0.735054
0.735715
0.741533
0.745243
0.748278
0.751894
0.75307
0.757178
0.762276
0.767797
0.773933
0.777959
0.78311
0.789994
0.796865
0.803147
0.80661
0.809187
0.814649
0.824332
0.837271
0.848224
0.851585
0.851514
0.849236
0.849077
0.853447
0.872676
0.893909
0.90419
0.897481
0.883196
0.873688
0.880975
0.903865
0.925732
0.936948
0.930962
0.924468
0.923029
0.931391
0.940933
0.947227
0.950705
0.950757
0.951494
0.957747
0.953434
0.950046
0.0284908
0.0284771
0.0284637
0.0284491
0.0284343
0.0284233
0.0284194
0.0284238
0.0284345
0.0284493
0.0284676
0.0284886
0.0285063
0.0285209
0.0285433
0.0285748
0.0286011
0.0286255
0.0286598
0.0286874
0.0287027
0.0287101
0.0287081
0.0286992
0.0286785
0.0286533
0.0286309
0.0286141
0.0286095
0.0285972
0.0285775
0.0285495
0.0285112
0.0284746
0.0284337
0.028398
0.0283595
0.0283455
0.0283604
0.0284086
0.0284282
0.0284848
0.0284905
0.045684
0.120006
0.256796
0.448457
0.59546
0.691045
0.725749
0.731567
0.737153
0.73732
0.742333
0.741674
0.746146
0.750966
0.751162
0.757241
0.76133
0.767846
0.774878
0.779414
0.785885
0.791085
0.797456
0.804945
0.809134
0.812634
0.818214
0.823157
0.831945
0.842779
0.851429
0.856097
0.853912
0.852135
0.855075
0.862101
0.873468
0.893416
0.908016
0.913146
0.907441
0.894271
0.883623
0.887997
0.908527
0.934095
0.948678
0.949011
0.942887
0.939115
0.938439
0.939848
0.941359
0.94904
0.962835
0.965765
0.962603
0.0285488
0.0285486
0.0285495
0.0285498
0.0285524
0.0285643
0.0285849
0.028608
0.0286289
0.028648
0.0286683
0.0286938
0.0287168
0.0287324
0.0287514
0.0287755
0.0287903
0.0288063
0.028823
0.0288267
0.028825
0.0288107
0.0287793
0.0287497
0.0287122
0.0286676
0.0286286
0.0286035
0.0285912
0.0285802
0.0285657
0.0285543
0.028544
0.028535
0.028536
0.0285513
0.0285785
0.0286268
0.0286763
0.0287339
0.0287857
0.0288317
0.0288897
0.0288479
0.0287998
0.0286931
0.0524881
0.13877
0.299064
0.503588
0.631835
0.717772
0.733893
0.746193
0.744891
0.748622
0.748712
0.744583
0.755459
0.760828
0.771476
0.778884
0.781483
0.787168
0.790195
0.797399
0.808087
0.81408
0.819543
0.822282
0.823158
0.828195
0.839682
0.850668
0.857972
0.860344
0.861319
0.862944
0.865084
0.871922
0.880948
0.894185
0.908488
0.915709
0.915281
0.911696
0.905341
0.898343
0.90624
0.923267
0.942377
0.957295
0.964372
0.961181
0.954986
0.947826
0.945842
0.948213
0.9478
0.955164
0.0287803
0.0287893
0.0288009
0.0288126
0.0288234
0.0288365
0.0288511
0.0288646
0.0288768
0.0288883
0.028899
0.028909
0.0289146
0.0289131
0.0289088
0.0289039
0.0288994
0.0288983
0.0288917
0.0288715
0.0288504
0.0288216
0.0287723
0.0287236
0.0286817
0.0286467
0.0286174
0.0286047
0.0286085
0.0286241
0.0286527
0.0286914
0.0287347
0.0287771
0.0288286
0.0288843
0.0289454
0.0289908
0.0290246
0.0290338
0.0290334
0.0290227
0.0289783
0.028908
0.0288504
0.028829
0.0288387
0.0287841
0.03058
0.0704575
0.183835
0.386396
0.561094
0.679587
0.734673
0.746308
0.751719
0.742127
0.753659
0.755825
0.771889
0.779655
0.784125
0.791909
0.790946
0.798318
0.808519
0.813547
0.823501
0.830771
0.829082
0.830895
0.837106
0.843204
0.854469
0.867483
0.872613
0.871731
0.872341
0.874645
0.878214
0.889426
0.902032
0.911752
0.920215
0.921601
0.921362
0.918669
0.915649
0.914207
0.917018
0.926121
0.943079
0.95732
0.964369
0.966061
0.968197
0.971105
0.97
0.965075
0.0290118
0.029008
0.0290085
0.0290117
0.0290144
0.0290186
0.029023
0.0290232
0.0290205
0.0290166
0.0290092
0.0289993
0.0289869
0.0289705
0.0289512
0.0289335
0.0289156
0.0289007
0.0288934
0.0288611
0.028821
0.0287879
0.0287575
0.028722
0.028695
0.028688
0.0287021
0.0287391
0.0287945
0.0288583
0.0289351
0.0290223
0.0291021
0.0291664
0.0292199
0.0292728
0.0293064
0.029314
0.0292935
0.0292408
0.0291955
0.0291625
0.0290579
0.0289567
0.0288872
0.0289057
0.0289773
0.0291111
0.0292996
0.0294436
0.0294921
0.040707
0.108294
0.255746
0.467521
0.617607
0.718148
0.736407
0.754496
0.75531
0.775879
0.776922
0.782252
0.793672
0.791152
0.802634
0.812492
0.812037
0.825158
0.833437
0.832731
0.836963
0.841941
0.841325
0.849852
0.864759
0.873317
0.877952
0.881451
0.88016
0.878311
0.881697
0.889157
0.898554
0.91202
0.922371
0.926451
0.927523
0.925455
0.926779
0.925921
0.925685
0.926659
0.932394
0.938858
0.943347
0.953359
0.955214
0.95176
0.963381
0.0291101
0.0290952
0.0290856
0.0290802
0.0290787
0.0290823
0.0290819
0.0290802
0.0290673
0.0290477
0.0290272
0.0290086
0.028989
0.0289682
0.0289472
0.0289293
0.0289178
0.0289062
0.0289024
0.0288998
0.0288946
0.0288877
0.0288875
0.0289005
0.0289258
0.0289659
0.0290239
0.0291046
0.029196
0.0292787
0.0293459
0.0294103
0.0294644
0.029491
0.0295009
0.0295054
0.0294844
0.029446
0.0293847
0.029309
0.0292484
0.0292147
0.0291456
0.0290824
0.0290849
0.0291939
0.0293903
0.0296815
0.0298959
0.0300951
0.0302515
0.0302652
0.0302911
0.0302022
0.0591465
0.160629
0.357331
0.551431
0.662412
0.741256
0.780583
0.779983
0.789662
0.794414
0.784621
0.805382
0.816321
0.814112
0.830641
0.835313
0.830438
0.84089
0.849954
0.846552
0.852797
0.864682
0.870137
0.877776
0.887212
0.888092
0.886289
0.888364
0.891229
0.893479
0.900627
0.910186
0.917368
0.926505
0.931054
0.931218
0.930047
0.930012
0.933018
0.936297
0.939146
0.940094
0.941635
0.943133
0.946508
0.942466
0.029163
0.0291465
0.0291355
0.0291305
0.0291316
0.0291348
0.0291324
0.0291329
0.0291197
0.0291009
0.0290869
0.0290797
0.0290775
0.0290749
0.0290711
0.0290763
0.0290898
0.0291062
0.0291299
0.0291628
0.0291928
0.0292222
0.0292592
0.0293034
0.0293482
0.0293938
0.0294516
0.0295158
0.0295774
0.029613
0.0296199
0.0296196
0.0296135
0.029601
0.0295814
0.029556
0.0295187
0.0294659
0.0294174
0.0293828
0.0293658
0.0293776
0.0294339
0.0295263
0.0296953
0.0299344
0.0302439
0.0304952
0.0306767
0.0307706
0.0307797
0.0307515
0.0307054
0.0306432
0.0305003
0.0303506
0.0374735
0.101292
0.243583
0.456488
0.633802
0.725813
0.788065
0.803786
0.788995
0.811802
0.813345
0.811317
0.83601
0.838632
0.831077
0.845917
0.855259
0.849706
0.859085
0.871096
0.868562
0.873592
0.887255
0.892263
0.894069
0.898835
0.898893
0.897653
0.901573
0.909758
0.916948
0.92562
0.933384
0.935944
0.936663
0.939733
0.94025
0.937756
0.94042
0.945375
0.949341
0.951501
0.955079
0.957555
0.0292083
0.0292022
0.0292037
0.0292124
0.0292309
0.0292527
0.0292709
0.0292834
0.0292919
0.0293076
0.0293363
0.0293692
0.029405
0.0294444
0.0294858
0.029528
0.0295709
0.0296055
0.0296338
0.0296599
0.0296733
0.0296827
0.0297003
0.0297148
0.0297261
0.0297414
0.0297531
0.0297627
0.0297697
0.0297511
0.0297071
0.0296502
0.0296053
0.0295846
0.0295781
0.0295783
0.0295812
0.0295897
0.0296224
0.0296851
0.0297781
0.0299149
0.0300937
0.0303295
0.0305939
0.0308524
0.0310488
0.0311612
0.0311836
0.0311202
0.0310515
0.0309462
0.030843
0.0307836
0.0307189
0.0307676
0.0309484
0.0313996
0.0317789
0.0581493
0.162226
0.354834
0.558183
0.683473
0.761338
0.822287
0.813631
0.824811
0.843107
0.832442
0.82827
0.850283
0.860574
0.855543
0.868348
0.878861
0.869425
0.871057
0.885273
0.8894
0.893846
0.905395
0.908723
0.905269
0.905519
0.908413
0.91137
0.918929
0.931373
0.939916
0.944876
0.94949
0.951168
0.949254
0.947508
0.950221
0.952826
0.957721
0.962453
0.96754
0.0295043
0.0295336
0.0295692
0.029612
0.0296697
0.0297182
0.0297567
0.029797
0.0298293
0.0298637
0.0299037
0.0299528
0.0300007
0.0300402
0.0300796
0.0301174
0.0301344
0.0301258
0.030102
0.0300673
0.0300298
0.0299903
0.0299532
0.02992
0.0299023
0.0299017
0.0298986
0.0298855
0.0298709
0.0298485
0.0297973
0.0297544
0.0297355
0.0297498
0.0297991
0.0298863
0.0300015
0.0301368
0.0302971
0.0304597
0.030634
0.0308159
0.0310319
0.0312605
0.0314536
0.0315535
0.0315756
0.0315131
0.0313842
0.0312543
0.0311887
0.031133
0.0311608
0.0313269
0.031671
0.0322504
0.0330316
0.033893
0.0347306
0.0351785
0.0353665
0.0417445
0.0999481
0.249107
0.451891
0.62363
0.729511
0.813223
0.865417
0.835138
0.845241
0.855307
0.851304
0.852709
0.874908
0.886133
0.878512
0.879783
0.889094
0.886351
0.888618
0.903822
0.910734
0.909873
0.914534
0.917459
0.9149
0.917169
0.922874
0.92663
0.932645
0.941738
0.950426
0.956135
0.958585
0.959787
0.958634
0.953074
0.953631
0.968723
0.0303273
0.0303538
0.0303772
0.0303998
0.0304226
0.0304401
0.0304496
0.0304463
0.0304412
0.0304432
0.0304606
0.0304725
0.0304669
0.0304573
0.030456
0.03045
0.0304064
0.0303465
0.0302855
0.0302079
0.0301471
0.030106
0.03007
0.030045
0.0300473
0.0300774
0.0301054
0.0301179
0.0301356
0.0301786
0.0302515
0.0303228
0.0304025
0.0305192
0.0306572
0.0308147
0.0309843
0.0311689
0.0313436
0.0314842
0.0315961
0.031684
0.0317835
0.0319104
0.0319608
0.031901
0.0318021
0.0317389
0.0316192
0.0315537
0.0315798
0.0318028
0.032348
0.0331024
0.0340905
0.0350917
0.0360922
0.0366924
0.0372
0.0375294
0.0379606
0.0384333
0.0388184
0.0392469
0.0622792
0.152311
0.337792
0.525609
0.666063
0.767781
0.84839
0.882081
0.861966
0.87178
0.877933
0.871245
0.874092
0.887999
0.89972
0.896035
0.895852
0.90308
0.905872
0.906748
0.916609
0.924871
0.923839
0.925571
0.928476
0.928421
0.93101
0.937196
0.942252
0.944583
0.947066
0.952397
0.96055
0.960916
0.960255
0.96202
0.03107
0.0310493
0.0310249
0.0309921
0.0309621
0.0309296
0.0308752
0.0308007
0.0307531
0.0307206
0.0306933
0.0306415
0.0305558
0.0304973
0.0304599
0.0304188
0.0303609
0.0303257
0.0303176
0.0303239
0.030339
0.0303776
0.0304434
0.0305388
0.0306385
0.0307183
0.0307797
0.0308643
0.0309833
0.0311267
0.0312963
0.0314603
0.0316022
0.0317248
0.0318166
0.0318866
0.0319613
0.0320318
0.032082
0.0321223
0.0321395
0.0321607
0.032215
0.0322962
0.0323004
0.0322679
0.0322902
0.0324561
0.0327587
0.0332507
0.0338987
0.0348314
0.0357955
0.0367584
0.0375192
0.0382134
0.0387328
0.039132
0.0395006
0.0398529
0.0404263
0.0410886
0.0420963
0.0433613
0.0443482
0.0450252
0.0480661
0.088864
0.20165
0.408433
0.588092
0.705815
0.805742
0.88319
0.908354
0.881326
0.891497
0.892536
0.887767
0.886993
0.902777
0.911085
0.913791
0.913546
0.917012
0.919456
0.92105
0.929402
0.936428
0.935945
0.935741
0.938062
0.941519
0.943914
0.947372
0.95084
0.95326
0.953891
0.953046
0.956934
0.0305953
0.0305689
0.0305408
0.0305162
0.0304957
0.0304716
0.0304269
0.0303968
0.030377
0.0303676
0.030365
0.0303656
0.0303641
0.0303671
0.0304111
0.0305018
0.0306303
0.0307795
0.0309319
0.0310944
0.0312749
0.0314538
0.031631
0.0317915
0.0319162
0.0320111
0.0320958
0.0322111
0.0323301
0.0324169
0.0325067
0.0325845
0.0326511
0.0326822
0.032672
0.0326569
0.0326518
0.0326575
0.0326909
0.0327117
0.0327633
0.0328781
0.0330445
0.0332531
0.0336093
0.0341108
0.0348595
0.0356979
0.0366478
0.0375649
0.0384275
0.0391751
0.0396405
0.0400133
0.0403078
0.0405899
0.0408913
0.041355
0.0419363
0.042735
0.0437765
0.0449932
0.0462368
0.0472929
0.048215
0.0488427
0.0493787
0.0499299
0.0503655
0.0612353
0.122059
0.261173
0.468066
0.633907
0.742514
0.829378
0.91497
0.922629
0.913919
0.90053
0.905523
0.896207
0.90316
0.916881
0.928907
0.927688
0.928143
0.930845
0.932693
0.933897
0.93876
0.945006
0.948862
0.949201
0.948272
0.949356
0.950818
0.950948
0.954307
0.960466
0.0308211
0.0308863
0.0309656
0.0310456
0.0311105
0.0311778
0.0312714
0.031358
0.0314309
0.0315078
0.0315941
0.0316976
0.0318003
0.0318979
0.032032
0.0322132
0.0323408
0.0324293
0.0325193
0.0326307
0.0327436
0.032839
0.0329104
0.0329808
0.0330619
0.0331315
0.0331964
0.0332552
0.0333075
0.0333709
0.0334283
0.0334542
0.0334857
0.0335294
0.0335915
0.0336882
0.0338616
0.034126
0.0344372
0.0348568
0.0353488
0.0359591
0.0366261
0.0373795
0.0381138
0.0388989
0.0395984
0.0402514
0.040828
0.0413241
0.0417438
0.0420464
0.0422949
0.0425296
0.0428017
0.0431977
0.04381
0.0447332
0.0458188
0.0470199
0.0481864
0.0490902
0.0499327
0.0507403
0.0513357
0.0517933
0.0526212
0.0537306
0.0551739
0.0567344
0.0572418
0.0577038
0.076122
0.151697
0.301621
0.511951
0.678846
0.769545
0.863332
0.917675
0.944539
0.917071
0.921124
0.920626
0.916699
0.913706
0.928681
0.937908
0.940685
0.942031
0.943537
0.943319
0.944192
0.947224
0.950988
0.956257
0.958032
0.95734
0.955531
0.960306
0.0330001
0.0330362
0.0330759
0.0331163
0.0331625
0.0332074
0.0332513
0.0333002
0.0333506
0.0334
0.0334556
0.0335157
0.0335754
0.0336317
0.0336813
0.0337218
0.0337676
0.0338285
0.0338941
0.0339502
0.0340005
0.0340683
0.0341593
0.0342723
0.0343989
0.0345525
0.034719
0.0349169
0.0351569
0.0354199
0.0357105
0.0360399
0.0364527
0.0369314
0.0374775
0.0380438
0.03863
0.0391831
0.0397533
0.0402815
0.0408295
0.0413255
0.0417834
0.0421792
0.0425135
0.0428177
0.043071
0.0433679
0.043639
0.0439578
0.044273
0.0446424
0.0451524
0.0457238
0.0465057
0.0474529
0.0485657
0.0496524
0.050647
0.0515811
0.0521858
0.0527611
0.0533202
0.0539602
0.0547184
0.0557957
0.0570636
0.0583323
0.0596795
0.0607511
0.0618142
0.0634873
0.0645362
0.0649843
0.0653776
0.0916595
0.180209
0.35424
0.557287
0.721555
0.805908
0.870582
0.951695
0.957121
0.94653
0.926952
0.929152
0.922232
0.927733
0.941142
0.952674
0.953601
0.951809
0.949295
0.948799
0.952821
0.956208
0.958891
0.961186
0.965743
0.0353457
0.0354339
0.0355301
0.0356284
0.0357278
0.0358421
0.0359685
0.0361033
0.0362482
0.036398
0.0365511
0.0367091
0.036873
0.0370469
0.0372304
0.0374142
0.0376055
0.0378015
0.0379983
0.038208
0.0384346
0.0386669
0.0389144
0.0391723
0.0394387
0.0397134
0.0400104
0.0403256
0.0406293
0.0409363
0.041262
0.0416173
0.0419599
0.0423049
0.0426269
0.0429238
0.0432183
0.0435249
0.0438331
0.0441055
0.0443658
0.0445882
0.0448236
0.0450376
0.045286
0.0455178
0.0458711
0.0463158
0.0468627
0.047539
0.048303
0.0492114
0.0500949
0.0510363
0.0519104
0.0527812
0.0536005
0.0543102
0.0549616
0.0554696
0.0559909
0.0565672
0.0571714
0.0579614
0.059218
0.0606382
0.0620363
0.0633496
0.0646631
0.0658969
0.0672088
0.0683435
0.0692231
0.0701685
0.0717883
0.0731417
0.0746667
0.0760984
0.108036
0.223025
0.398486
0.604807
0.762163
0.832552
0.899903
0.943619
0.972398
0.948434
0.944742
0.940427
0.936414
0.938156
0.947096
0.954723
0.956896
0.956445
0.953903
0.95334
0.956669
0.963141
0.0403616
0.0404527
0.0405544
0.0406577
0.0407603
0.0408675
0.0409854
0.0411097
0.0412311
0.0413517
0.0414764
0.0416127
0.0417498
0.0418855
0.0420252
0.0421762
0.0423291
0.0424877
0.0426527
0.0428268
0.0430063
0.0431951
0.0433867
0.043583
0.0437797
0.0439777
0.0441627
0.0443457
0.0445301
0.0447295
0.0449393
0.0451581
0.0453853
0.0456233
0.0458747
0.0461589
0.0464653
0.0467903
0.0471065
0.0474484
0.0478124
0.0482327
0.0486932
0.0492147
0.0498077
0.0504791
0.0512487
0.0520358
0.0528854
0.0537046
0.0545257
0.0552263
0.0558715
0.0564323
0.0568883
0.0573233
0.0576933
0.058165
0.0586613
0.059347
0.0602194
0.061233
0.062366
0.0637865
0.0651679
0.0665377
0.0677706
0.0689554
0.0701093
0.0710754
0.0721068
0.0728919
0.0740425
0.0758281
0.0779901
0.079798
0.0809514
0.0820118
0.082791
0.0836761
0.0876648
0.134997
0.252448
0.456898
0.660458
0.798958
0.880278
0.915466
0.974428
0.976538
0.959208
0.944747
0.94152
0.941335
0.948449
0.95792
0.959833
0.96004
0.959029
0.960695
0.0447477
0.0448228
0.0449005
0.0449857
0.0450829
0.0451936
0.0453086
0.0454168
0.045525
0.0456391
0.0457656
0.0458999
0.0460394
0.0461827
0.0463312
0.0464873
0.0466537
0.0468245
0.047002
0.0471886
0.0473854
0.0475911
0.0478052
0.0480288
0.0482655
0.0485128
0.0487723
0.0490512
0.0493416
0.0496589
0.0499888
0.0503443
0.0507119
0.0511031
0.0515088
0.0519464
0.0524152
0.0529086
0.0534154
0.0539214
0.0544224
0.0549293
0.0554152
0.0559218
0.0564009
0.0568504
0.0572752
0.0577405
0.0582491
0.0587594
0.0592435
0.0596951
0.0601899
0.0606758
0.0611873
0.0616285
0.0622511
0.0629758
0.0639977
0.0651912
0.0665692
0.0678858
0.0692716
0.0705805
0.0717852
0.0728452
0.0736272
0.0744752
0.0753613
0.0765974
0.0777813
0.0793689
0.080914
0.0823392
0.0835596
0.0845513
0.0855461
0.0867975
0.0886347
0.0903686
0.0916287
0.092504
0.0930593
0.105174
0.164478
0.317877
0.524856
0.72602
0.858407
0.896912
0.935663
0.968071
0.970806
0.954348
0.949918
0.947275
0.948287
0.954918
0.963735
0.967783
0.050663
0.0507649
0.0508759
0.050985
0.0510845
0.0511737
0.0512765
0.051412
0.0515547
0.0516797
0.0518052
0.0519422
0.0520897
0.0522488
0.0524198
0.0525928
0.0527736
0.052964
0.0531688
0.0533864
0.0536152
0.0538527
0.0541022
0.0543494
0.0546087
0.0548638
0.0551288
0.0553909
0.0556608
0.0559267
0.0562008
0.0564679
0.0567457
0.0570351
0.0573526
0.0576946
0.0580543
0.0584395
0.0588435
0.0592276
0.0595947
0.0599662
0.0603657
0.060779
0.0611791
0.0615908
0.0619646
0.0624204
0.0629539
0.0635878
0.0641994
0.0649614