/*--------------------------------*- C++ -*----------------------------------*\
  =========                 |
  \\      /  F ield         | OpenFOAM: The Open Source CFD Toolbox
   \\    /   O peration     | Website:  https://openfoam.org
    \\  /    A nd           | Version:  7
     \\/     M anipulation  |
\*---------------------------------------------------------------------------*/
FoamFile
{
    version     2.0;
    format      ascii;
    class       volScalarField;
    location    "12.5";
    object      rho;
}
// * * * * * * * * * * * * * * * * * * * * * * * * * * * * * * * * * * * * * //

dimensions      [1 -3 0 0 0 0 0];

internalField   nonuniform List<scalar> 
90000
(
0.356434
0.417854
0.455721
0.494261
0.523341
0.535301
0.546733
0.557737
0.561902
0.562791
0.565265
0.56488
0.565161
0.565418
0.566161
0.566321
0.567638
0.570484
0.574498
0.579753
0.585676
0.592732
0.60091
0.610299
0.621189
0.632989
0.645974
0.659317
0.673232
0.68712
0.700852
0.713968
0.726344
0.738269
0.749218
0.758934
0.768041
0.777206
0.785492
0.792559
0.798255
0.80213
0.805404
0.807662
0.809941
0.810096
0.808952
0.806503
0.802403
0.798416
0.794505
0.794863
0.796898
0.79901
0.803371
0.809653
0.815705
0.820773
0.822717
0.82335
0.822906
0.822061
0.81892
0.815549
0.814323
0.813801
0.815133
0.819749
0.826509
0.833194
0.838668
0.840415
0.84178
0.843297
0.846588
0.854196
0.864982
0.873508
0.881194
0.883363
0.889217
0.895994
0.907255
0.9151
0.922166
0.925311
0.934203
0.939283
0.947298
0.94951
0.95575
0.960731
0.966695
0.974462
0.977274
0.982574
0.987468
0.991585
0.996875
1.00317
0.353817
0.358574
0.363586
0.369077
0.375994
0.382486
0.388946
0.395387
0.401491
0.406851
0.410888
0.413834
0.416288
0.418772
0.421491
0.424764
0.429077
0.434019
0.440025
0.446523
0.454042
0.462076
0.471152
0.480957
0.491427
0.502235
0.513826
0.525856
0.538609
0.551677
0.564781
0.577842
0.59097
0.603772
0.615574
0.626745
0.637874
0.649393
0.661341
0.673543
0.685745
0.697799
0.709008
0.720198
0.73143
0.742472
0.75286
0.762522
0.771265
0.77832
0.784657
0.791458
0.799745
0.807889
0.814084
0.819446
0.82338
0.827361
0.8273
0.826054
0.822698
0.818382
0.813665
0.814085
0.815125
0.818709
0.824448
0.831536
0.837739
0.841007
0.841579
0.841014
0.841802
0.845373
0.852846
0.864046
0.871952
0.877404
0.882237
0.885276
0.892345
0.90229
0.911783
0.917763
0.922033
0.927245
0.935663
0.940777
0.947807
0.950184
0.957069
0.961947
0.968816
0.975039
0.977655
0.98337
0.987274
0.991601
0.996986
1.00199
0.352012
0.352195
0.354284
0.356538
0.358658
0.361071
0.363188
0.365368
0.36716
0.369245
0.37191
0.375221
0.378028
0.380934
0.38336
0.385771
0.387793
0.389572
0.390938
0.392051
0.393431
0.395058
0.397569
0.400726
0.404888
0.409807
0.415765
0.42269
0.43092
0.440387
0.45089
0.461964
0.473349
0.484989
0.496506
0.508368
0.520943
0.534207
0.548008
0.562629
0.578346
0.595272
0.613127
0.631738
0.651266
0.671513
0.692262
0.712739
0.732598
0.7508
0.766832
0.78023
0.791028
0.800532
0.806524
0.810654
0.812346
0.812066
0.810835
0.808849
0.806556
0.807126
0.810381
0.815707
0.82434
0.832858
0.838664
0.841839
0.843127
0.842883
0.842307
0.84244
0.845735
0.853803
0.862637
0.872605
0.875925
0.879615
0.882468
0.88802
0.897388
0.910316
0.914256
0.919157
0.922406
0.93015
0.93674
0.941784
0.947091
0.950686
0.958284
0.962965
0.970168
0.974734
0.977645
0.983465
0.986231
0.990762
0.99638
1.00025
0.327986
0.340282
0.352343
0.356389
0.357546
0.359295
0.361401
0.362522
0.363038
0.364009
0.36487
0.365514
0.366283
0.367036
0.367863
0.368822
0.369847
0.371177
0.372591
0.374129
0.375647
0.377288
0.37893
0.38057
0.382334
0.384148
0.386082
0.387805
0.389309
0.390947
0.393183
0.396282
0.400349
0.405356
0.41109
0.417748
0.426078
0.436058
0.446841
0.458034
0.469937
0.48219
0.49597
0.510983
0.526441
0.542855
0.560523
0.57978
0.600096
0.62121
0.642142
0.662342
0.68048
0.698292
0.714565
0.729864
0.743663
0.756829
0.769599
0.781617
0.793172
0.804585
0.816061
0.825786
0.83348
0.840017
0.844648
0.845711
0.844469
0.84135
0.842081
0.846701
0.856162
0.866794
0.87434
0.877535
0.878456
0.880901
0.884584
0.894545
0.905112
0.914243
0.915956
0.920151
0.924374
0.934103
0.937735
0.942143
0.945977
0.951549
0.958851
0.963476
0.970854
0.973805
0.97725
0.982763
0.984903
0.990116
0.995654
0.998802
0.114141
0.17515
0.270057
0.297687
0.317804
0.329905
0.345692
0.35677
0.360941
0.36186
0.362811
0.364364
0.365561
0.365835
0.366266
0.366909
0.367545
0.367939
0.367982
0.368039
0.368031
0.368235
0.36861
0.369148
0.369707
0.370433
0.37146
0.372897
0.374723
0.376595
0.378556
0.380493
0.382571
0.384771
0.387092
0.389096
0.390527
0.392295
0.395205
0.399385
0.404724
0.411013
0.418307
0.428268
0.439801
0.452318
0.465763
0.479979
0.496643
0.514485
0.532798
0.55188
0.572419
0.594819
0.618932
0.644208
0.669805
0.695294
0.720455
0.744678
0.767559
0.787489
0.80255
0.813929
0.820604
0.824801
0.827119
0.828555
0.831474
0.83519
0.8439
0.856901
0.867683
0.874124
0.879018
0.879347
0.879891
0.88349
0.891476
0.903524
0.913698
0.91537
0.916872
0.921582
0.928599
0.936891
0.938422
0.942395
0.944938
0.952901
0.958093
0.963561
0.970874
0.972795
0.977136
0.981689
0.983985
0.989937
0.995155
0.998555
0.0741885
0.074202
0.0759259
0.0826993
0.0974678
0.120808
0.172334
0.259017
0.287536
0.312316
0.329953
0.344423
0.356114
0.36003
0.361547
0.362542
0.363998
0.364727
0.364887
0.365826
0.367082
0.368286
0.368958
0.369392
0.3699
0.370416
0.370815
0.371006
0.371084
0.371338
0.371783
0.372404
0.372976
0.373629
0.374584
0.376076
0.378139
0.379967
0.381779
0.383798
0.386057
0.388634
0.391498
0.393749
0.396595
0.400944
0.406658
0.413396
0.421582
0.432833
0.445541
0.459059
0.473301
0.490147
0.508355
0.527524
0.548207
0.571603
0.597073
0.624066
0.652182
0.67895
0.703439
0.726121
0.74605
0.764254
0.781074
0.798875
0.815148
0.832981
0.849799
0.862891
0.871434
0.875093
0.877555
0.876614
0.879239
0.888136
0.901383
0.910989
0.916549
0.916256
0.917733
0.924898
0.934483
0.937971
0.938673
0.941856
0.947677
0.955831
0.95916
0.964525
0.969559
0.971739
0.977718
0.979807
0.982873
0.990247
0.994109
0.998014
0.0745918
0.0746674
0.074696
0.0747203
0.0747439
0.074776
0.0748009
0.0769146
0.084842
0.101535
0.128168
0.172908
0.254066
0.286348
0.313262
0.33124
0.347028
0.358546
0.363267
0.364551
0.365302
0.366662
0.366832
0.366803
0.36751
0.36858
0.369352
0.369985
0.370712
0.371725
0.372529
0.37311
0.373552
0.373929
0.374234
0.374428
0.374544
0.37489
0.375653
0.376312
0.377122
0.378115
0.379765
0.382402
0.384631
0.387082
0.389952
0.39321
0.396825
0.399429
0.402957
0.408355
0.415305
0.423829
0.436019
0.449687
0.464812
0.481956
0.502571
0.523715
0.54689
0.573374
0.601474
0.630808
0.660676
0.68912
0.717519
0.74503
0.770348
0.794362
0.8103
0.823524
0.835061
0.845529
0.856618
0.867438
0.879733
0.894263
0.90688
0.914064
0.914183
0.913954
0.918893
0.93073
0.937935
0.938026
0.938634
0.944522
0.95166
0.956977
0.959317
0.965319
0.969519
0.97324
0.978328
0.980264
0.984304
0.989959
0.994841
0.999821
0.0752222
0.0752707
0.0753253
0.075383
0.0754463
0.0755106
0.0755895
0.0756427
0.0756823
0.0757179
0.075771
0.07581
0.0791399
0.0900453
0.110757
0.142163
0.184232
0.254098
0.298795
0.325742
0.343235
0.355452
0.36498
0.368777
0.368898
0.370012
0.370635
0.370729
0.370894
0.371692
0.372279
0.372688
0.373138
0.373661
0.374148
0.37461
0.375255
0.376003
0.376619
0.377234
0.377896
0.378514
0.379146
0.379583
0.380887
0.382029
0.383194
0.384412
0.386299
0.389229
0.391638
0.394416
0.397713
0.401444
0.404809
0.409315
0.415998
0.424202
0.434882
0.449302
0.46455
0.481828
0.502386
0.522799
0.544865
0.569359
0.595983
0.625274
0.65605
0.686896
0.716532
0.745662
0.775013
0.80317
0.829976
0.855208
0.87442
0.888082
0.891426
0.893112
0.899178
0.909566
0.922685
0.934912
0.936683
0.933741
0.937513
0.947919
0.95368
0.9564
0.959035
0.965672
0.969438
0.9744
0.978612
0.980282
0.984635
0.989498
0.994945
1.00013
0.0760269
0.0760904
0.0761606
0.0762373
0.0763184
0.076402
0.0764882
0.076582
0.0766809
0.0767878
0.0768989
0.0770207
0.0771449
0.0772158
0.0772813
0.0773677
0.0774393
0.0825333
0.0988627
0.127574
0.16726
0.213881
0.276528
0.322104
0.345921
0.360643
0.369282
0.374429
0.374938
0.375307
0.375899
0.375882
0.375653
0.376488
0.376968
0.377579
0.377954
0.378038
0.378065
0.378049
0.378316
0.378894
0.37978
0.380946
0.38221
0.383263
0.38422
0.38497
0.38573
0.386239
0.387579
0.388708
0.390013
0.392026
0.395358
0.397824
0.401266
0.405065
0.410036
0.414335
0.420415
0.428715
0.439247
0.454495
0.470232
0.487129
0.507118
0.528792
0.554906
0.58543
0.617199
0.648938
0.680616
0.712525
0.741882
0.768348
0.792177
0.814043
0.835292
0.858133
0.881254
0.904613
0.921103
0.919709
0.917544
0.923201
0.937753
0.949985
0.951333
0.950971
0.956543
0.964839
0.968594
0.974848
0.977819
0.979731
0.983652
0.988159
0.993007
0.998332
0.0770234
0.077093
0.0771678
0.0772498
0.0773338
0.0774234
0.0775109
0.0776057
0.0776998
0.0778029
0.0779014
0.0780165
0.0781239
0.0782393
0.0783445
0.0784623
0.0785963
0.0786716
0.0787334
0.0788201
0.0788746
0.0804057
0.0914251
0.118601
0.160587
0.212504
0.268131
0.322822
0.353339
0.370659
0.378628
0.382848
0.382838
0.382972
0.382774
0.381734
0.381392
0.381647
0.382302
0.383158
0.383929
0.384493
0.384696
0.384707
0.384564
0.384796
0.38531
0.385904
0.38665
0.387913
0.389162
0.390067
0.391009
0.391889
0.392775
0.394467
0.396112
0.397875
0.400621
0.404564
0.407882
0.412445
0.417765
0.422311
0.430652
0.440649
0.451798
0.463551
0.476468
0.494838
0.518891
0.543998
0.569668
0.596732
0.625427
0.657886
0.694367
0.73091
0.766422
0.799898
0.826684
0.844428
0.855842
0.869836
0.888991
0.912415
0.934269
0.932389
0.934644
0.94394
0.954487
0.957843
0.96229
0.971809
0.973783
0.975802
0.97824
0.982305
0.986068
0.991105
0.0780949
0.078158
0.07823
0.0783047
0.0783877
0.0784724
0.0785592
0.0786415
0.0787299
0.0788141
0.0789027
0.078995
0.0790954
0.0791978
0.079298
0.0793952
0.0794904
0.0795962
0.0797075
0.0798209
0.0799209
0.0800596
0.0801034
0.0801655
0.0802079
0.0812418
0.0904609
0.117518
0.163778
0.22427
0.283072
0.334564
0.367185
0.38371
0.389982
0.392215
0.39069
0.390796
0.390039
0.389704
0.389488
0.390139
0.390679
0.391052
0.391077
0.391209
0.391323
0.39142
0.391587
0.391571
0.391436
0.391723
0.392214
0.39306
0.3947
0.396199
0.39766
0.399058
0.400767
0.402466
0.404996
0.4075
0.410587
0.41458
0.41712
0.422167
0.429358
0.438266
0.446488
0.452361
0.461347
0.476319
0.498163
0.520788
0.538062
0.55693
0.581953
0.613513
0.648316
0.682535
0.714073
0.743574
0.776059
0.808729
0.840327
0.866298
0.878
0.890915
0.914296
0.935918
0.942219
0.945182
0.9562
0.966288
0.967077
0.970772
0.972573
0.977892
0.981352
0.983728
0.0791415
0.0791921
0.0792495
0.0793161
0.0793887
0.079468
0.079545
0.0796168
0.0796862
0.0797491
0.079816
0.0798877
0.0799682
0.0800488
0.0801298
0.0802044
0.0802856
0.0803672
0.0804641
0.0805469
0.0806355
0.0807234
0.0808189
0.080922
0.0810353
0.0811675
0.0812165
0.0812902
0.0813456
0.0829714
0.0951296
0.127549
0.182567
0.251311
0.314334
0.360445
0.384808
0.397088
0.400092
0.400056
0.39892
0.399304
0.398522
0.398825
0.398319
0.39886
0.399287
0.399122
0.398568
0.397809
0.397516
0.397943
0.398497
0.39906
0.399277
0.399293
0.399754
0.400716
0.402043
0.404358
0.406823
0.40898
0.411073
0.413201
0.415258
0.417194
0.420147
0.425788
0.433207
0.440571
0.443738
0.443332
0.448614
0.462974
0.482795
0.499295
0.513142
0.528275
0.55091
0.581059
0.613808
0.644349
0.673004
0.700154
0.730868
0.761381
0.79602
0.83107
0.864152
0.879744
0.897751
0.920514
0.942046
0.949276
0.956601
0.966903
0.969689
0.978617
0.982672
0.981084
0.0801403
0.08017
0.0802121
0.0802618
0.0803139
0.0803738
0.0804314
0.0804848
0.0805302
0.0805712
0.0806195
0.080685
0.0807557
0.080826
0.0808912
0.0809605
0.0810362
0.0811186
0.0812101
0.081299
0.0813927
0.0815025
0.0816287
0.0817486
0.0818876
0.0820044
0.0821335
0.082288
0.0824346
0.0826315
0.0827458
0.0828555
0.0829251
0.0872889
0.107867
0.153609
0.222923
0.296601
0.353994
0.387477
0.403519
0.409682
0.409765
0.40826
0.40667
0.406302
0.406232
0.406357
0.406961
0.406769
0.406544
0.40638
0.405813
0.405659
0.405884
0.406259
0.407214
0.407941
0.408442
0.408807
0.409536
0.41079
0.412588
0.414766
0.417007
0.418922
0.421239
0.423496
0.426816
0.432015
0.43846
0.442813
0.443471
0.443582
0.449456
0.463258
0.479588
0.491359
0.497893
0.508107
0.525594
0.549427
0.575715
0.601114
0.627764
0.657777
0.689017
0.722863
0.754806
0.790608
0.825236
0.855164
0.874356
0.894598
0.915787
0.935282
0.950847
0.972439
0.98183
0.980594
0.0810178
0.0810511
0.081077
0.0810973
0.0811207
0.0811516
0.0811868
0.0812182
0.0812442
0.0812727
0.081319
0.0813868
0.0814569
0.0815229
0.0815913
0.0816774
0.0817768
0.0818821
0.0819914
0.0821047
0.0822153
0.0823436
0.082491
0.0826335
0.0827618
0.0828809
0.0830102
0.083144
0.0832845
0.0834336
0.0835998
0.0837454
0.0838722
0.0839337
0.0840107
0.0840481
0.0847242
0.0979446
0.13702
0.205372
0.28766
0.360358
0.396572
0.411932
0.415011
0.415199
0.414909
0.414198
0.414135
0.41337
0.413627
0.414471
0.414773
0.415193
0.415095
0.415011
0.41554
0.415606
0.415838
0.416262
0.416811
0.418064
0.419145
0.419992
0.420719
0.421653
0.423403
0.425352
0.427887
0.43176
0.435824
0.440808
0.444807
0.445822
0.446087
0.447707
0.455615
0.467436
0.478988
0.484497
0.486631
0.493141
0.507943
0.528512
0.552438
0.572856
0.593256
0.617417
0.649536
0.685524
0.719915
0.751341
0.785091
0.814251
0.837749
0.859238
0.88566
0.914665
0.932313
0.953071
0.0817922
0.0818017
0.0818123
0.0818288
0.0818527
0.0818782
0.0819048
0.0819342
0.0819677
0.0820109
0.0820754
0.0821526
0.0822261
0.0822997
0.0823885
0.0825013
0.0826283
0.0827593
0.0829064
0.0830537
0.0831815
0.0833126
0.083453
0.0835738
0.0836743
0.0837756
0.0838728
0.0839826
0.0841008
0.0842249
0.0843453
0.0844428
0.084512
0.0845851
0.0846495
0.0846995
0.0847392
0.0847615
0.0848282
0.0849075
0.0953122
0.134586
0.20781
0.298058
0.368383
0.401607
0.419671
0.422267
0.422987
0.421654
0.421062
0.421779
0.421328
0.422933
0.423557
0.423811
0.424308
0.423878
0.424545
0.42545
0.426292
0.427206
0.427119
0.427533
0.428677
0.429939
0.431176
0.431522
0.431791
0.433331
0.436837
0.442016
0.44691
0.448974
0.449623
0.449835
0.451263
0.45447
0.463554
0.473878
0.481295
0.482714
0.481774
0.484334
0.49539
0.514779
0.536587
0.557807
0.5743
0.592886
0.61616
0.646292
0.678412
0.709551
0.740347
0.770987
0.803935
0.838045
0.857516
0.88808
0.0824855
0.0825007
0.0825192
0.0825373
0.0825566
0.0825845
0.0826274
0.0826884
0.0827652
0.0828539
0.0829526
0.0830586
0.0831589
0.0832547
0.0833694
0.0835068
0.0836366
0.083765
0.0839157
0.084054
0.0841677
0.0842672
0.0843512
0.084425
0.084477
0.0845243
0.0845821
0.0846563
0.0847614
0.0848562
0.0849404
0.0850106
0.0850609
0.0851176
0.0851685
0.0852356
0.0853041
0.0854284
0.0856242
0.0859032
0.0861218
0.0864331
0.0866707
0.0990808
0.143959
0.22044
0.316484
0.379516
0.416538
0.428587
0.428793
0.429514
0.429033
0.430731
0.429649
0.430543
0.431634
0.430958
0.432729
0.433594
0.435189
0.436795
0.437108
0.438144
0.438579
0.439375
0.440604
0.440554
0.44037
0.441071
0.441891
0.444392
0.447924
0.451115
0.453127
0.452814
0.452789
0.454563
0.458036
0.463722
0.473146
0.480258
0.484599
0.485536
0.484137
0.484274
0.491942
0.508093
0.528043
0.5462
0.560931
0.574969
0.591966
0.612378
0.636676
0.665069
0.700891
0.739466
0.765592
0.806329
0.083312
0.0833512
0.0833954
0.0834403
0.0834919
0.0835631
0.0836539
0.0837525
0.0838489
0.0839438
0.0840432
0.0841556
0.0842646
0.0843603
0.0844657
0.0845847
0.0846864
0.0847929
0.0849025
0.0849862
0.085063
0.0851146
0.0851332
0.0851629
0.0851796
0.0851875
0.0852114
0.0852671
0.0853538
0.0854482
0.0855392
0.0856397
0.0857435
0.0858526
0.0859889
0.0861652
0.0863787
0.0866473
0.0869276
0.0872345
0.0875382
0.0878387
0.0881726
0.0883157
0.0884605
0.0885528
0.105131
0.157193
0.246992
0.345514
0.397893
0.430513
0.435846
0.44011
0.438309
0.438806
0.437909
0.43523
0.439392
0.441122
0.444789
0.446923
0.446779
0.447862
0.447746
0.449142
0.451828
0.452432
0.452775
0.452061
0.450792
0.451183
0.454013
0.457006
0.458801
0.459038
0.459065
0.459591
0.460583
0.463839
0.468051
0.474084
0.481135
0.485712
0.487289
0.487995
0.488576
0.489382
0.496674
0.508902
0.523405
0.538067
0.55153
0.562611
0.575091
0.591087
0.613519
0.638152
0.657543
0.701709
0.084476
0.0845336
0.0845993
0.0846663
0.0847326
0.0848049
0.0848825
0.0849596
0.0850358
0.085112
0.0851884
0.0852661
0.0853368
0.0853949
0.0854496
0.0855052
0.0855635
0.0856328
0.0856921
0.085724
0.0857611
0.0857815
0.0857639
0.0857551
0.0857629
0.085789
0.0858313
0.0859072
0.0860195
0.0861632
0.0863415
0.086548
0.0867714
0.0870004
0.0872575
0.0875337
0.0878316
0.0881033
0.0883561
0.0885611
0.0887553
0.0889341
0.0890454
0.0891124
0.0892205
0.0894027
0.0896664
0.0898181
0.0916975
0.118815
0.18631
0.293819
0.373684
0.423031
0.444286
0.447261
0.446584
0.441444
0.446215
0.446675
0.452868
0.455356
0.456244
0.458384
0.45692
0.458804
0.461686
0.462216
0.464615
0.46591
0.463615
0.462476
0.463133
0.463844
0.466454
0.469687
0.470097
0.468616
0.46804
0.46842
0.469646
0.474183
0.47948
0.484241
0.488672
0.490637
0.492386
0.493211
0.494152
0.496006
0.500283
0.508131
0.519887
0.53167
0.542398
0.553882
0.56843
0.583676
0.595804
0.623872
0.0856351
0.085663
0.0857026
0.0857496
0.0857974
0.0858503
0.0859056
0.0859538
0.0859981
0.0860423
0.0860815
0.0861177
0.0861515
0.0861788
0.0862024
0.0862315
0.0862629
0.0863054
0.0863667
0.0863686
0.0863615
0.086373
0.0863957
0.0864109
0.0864447
0.0865239
0.0866529
0.0868319
0.0870546
0.0873051
0.0875938
0.087916
0.0882322
0.0885211
0.0887927
0.0890701
0.0893133
0.0895095
0.0896511
0.089728
0.0898297
0.0899592
0.0899261
0.0899184
0.0899697
0.0901957
0.0905529
0.0910803
0.0917071
0.0922571
0.0926334
0.101789
0.145335
0.232433
0.340949
0.406482
0.445617
0.449669
0.455622
0.455267
0.463726
0.463201
0.464277
0.467888
0.465888
0.46977
0.472644
0.471249
0.475532
0.477486
0.475619
0.475728
0.476079
0.474287
0.475992
0.479737
0.48095
0.480815
0.480393
0.478302
0.47614
0.476559
0.478744
0.482173
0.487589
0.492319
0.495074
0.496627
0.496972
0.499067
0.500952
0.503302
0.506173
0.511567
0.51813
0.5252
0.53561
0.543048
0.548597
0.571264
0.0865185
0.0865228
0.0865409
0.0865708
0.0866117
0.0866652
0.0867118
0.0867578
0.0867811
0.0867929
0.0868049
0.0868224
0.0868388
0.0868555
0.086875
0.0869036
0.0869489
0.0869963
0.0870613
0.0871294
0.0871938
0.0872598
0.0873455
0.087464
0.0876127
0.0877968
0.0880222
0.0883014
0.0886123
0.0889109
0.0891818
0.0894563
0.0897194
0.089931
0.0901148
0.0902965
0.0904307
0.0905379
0.0905975
0.0906244
0.0906783
0.0907859
0.0908008
0.0908356
0.0909975
0.0914036
0.0920586
0.092978
0.0937346
0.0944833
0.0951603
0.0954732
0.0958531
0.0960605
0.116989
0.180858
0.292043
0.384019
0.430319
0.46291
0.478534
0.475329
0.477974
0.478728
0.473348
0.481624
0.484904
0.482754
0.488995
0.489019
0.48552
0.488652
0.491029
0.48823
0.489358
0.492273
0.492547
0.49367
0.495235
0.493283
0.490374
0.489171
0.488421
0.487887
0.489618
0.492565
0.49507
0.498947
0.501464
0.502506
0.503457
0.504904
0.507727
0.51121
0.515123
0.518252
0.521745
0.525847
0.531559
0.538996
0.0873301
0.0873353
0.0873543
0.0873895
0.0874389
0.087492
0.0875332
0.0875834
0.0876041
0.087616
0.0876379
0.0876734
0.0877215
0.0877727
0.087827
0.0879051
0.0880052
0.0881142
0.0882409
0.0883908
0.0885395
0.0886931
0.0888676
0.0890608
0.0892567
0.0894546
0.0896805
0.0899267
0.0901767
0.0903753
0.0905174
0.0906534
0.0907891
0.0909226
0.0910495
0.0911691
0.091265
0.0913273
0.0913945
0.0914829
0.0916043
0.0917877
0.0920746
0.0924633
0.0930372
0.0938064
0.0947693
0.0955964
0.0962669
0.0967654
0.0971036
0.0973776
0.0976283
0.097832
0.0978399
0.0978944
0.104185
0.147454
0.235291
0.349756
0.432009
0.468355
0.494301
0.497248
0.48905
0.499082
0.498174
0.495382
0.505157
0.504084
0.49903
0.504236
0.506658
0.502953
0.505687
0.508872
0.506482
0.507069
0.510558
0.5102
0.508674
0.508144
0.505651
0.502715
0.501995
0.503303
0.504711
0.507139
0.509518
0.510228
0.510476
0.512108
0.513213
0.513595
0.51646
0.519999
0.52342
0.52695
0.531826
0.538011
0.0881651
0.0881874
0.0882288
0.0882866
0.0883655
0.0884538
0.0885369
0.0886096
0.0886772
0.0887633
0.0888789
0.0890061
0.0891437
0.0892957
0.0894586
0.0896278
0.089801
0.0899568
0.0901001
0.0902409
0.0903569
0.090468
0.0905998
0.0907298
0.0908574
0.090994
0.0911204
0.0912459
0.0913783
0.0914634
0.0914999
0.0915152
0.0915601
0.0916623
0.091798
0.0919449
0.0920946
0.0922584
0.0924796
0.0927797
0.0931678
0.093671
0.0942911
0.0950571
0.0959038
0.0967415
0.0974313
0.0979305
0.0982539
0.0984272
0.0986023
0.0986849
0.0987666
0.0989102
0.0990535
0.0995046
0.100179
0.101548
0.10276
0.124725
0.194843
0.309154
0.41435
0.469167
0.501016
0.525951
0.518198
0.521176
0.528248
0.521602
0.517111
0.525023
0.527339
0.523336
0.5275
0.53005
0.524873
0.524162
0.528115
0.527802
0.527712
0.530241
0.528792
0.524631
0.521915
0.520522
0.519495
0.520617
0.523702
0.525466
0.525832
0.526431
0.526335
0.525372
0.524661
0.526094
0.528272
0.53183
0.535902
0.541364
0.0894722
0.0895809
0.0897086
0.0898541
0.0900365
0.090201
0.0903462
0.0904956
0.0906267
0.0907631
0.0909144
0.0910883
0.0912623
0.0914212
0.0915846
0.0917454
0.0918572
0.0919122
0.0919371
0.09194
0.0919444
0.0919508
0.0919646
0.0919906
0.0920547
0.0921588
0.0922521
0.0923224
0.0923963
0.0924604
0.0924611
0.0924832
0.092558
0.0927058
0.0929397
0.0932693
0.0936776
0.0941518
0.0947046
0.095284
0.0959099
0.0965653
0.0972902
0.0980455
0.0987218
0.0991958
0.099519
0.0996608
0.0996715
0.0996887
0.099803
0.0999439
0.100242
0.100934
0.102219
0.104021
0.106292
0.108723
0.111115
0.11235
0.112985
0.119755
0.163465
0.262802
0.380664
0.468044
0.513173
0.549542
0.569284
0.550968
0.553849
0.556265
0.55104
0.54853
0.556501
0.55921
0.553858
0.552443
0.55398
0.551035
0.550054
0.554646
0.554831
0.551595
0.550703
0.549015
0.545292
0.543754
0.54374
0.543004
0.543037
0.544167
0.545195
0.545156
0.544117
0.543181
0.542087
0.53941
0.539756
0.546963
0.0921148
0.0922229
0.0923278
0.0924346
0.0925456
0.0926473
0.092729
0.092777
0.0928202
0.092879
0.0929737
0.0930564
0.0931014
0.0931482
0.0932233
0.0932819
0.0932603
0.0932108
0.0931575
0.0930645
0.0930145
0.0930131
0.0930169
0.0930415
0.0931309
0.0932953
0.0934579
0.0935797
0.0937118
0.0939078
0.0941811
0.0944643
0.0947799
0.0951894
0.0956658
0.0961975
0.0967631
0.0973718
0.0979696
0.0985032
0.0989867
0.0994205
0.0998853
0.100431
0.100816
0.100955
0.101007
0.101124
0.101105
0.101192
0.101512
0.102406
0.104105
0.10631
0.108986
0.111598
0.11417
0.115933
0.11746
0.118607
0.119986
0.121476
0.122647
0.1239
0.145381
0.214087
0.339752
0.449875
0.521629
0.56468
0.599404
0.608304
0.593652
0.596274
0.596663
0.589623
0.587553
0.591498
0.593883
0.589439
0.586508
0.587637
0.58627
0.583412
0.584872
0.585471
0.582034
0.579894
0.578482
0.576087
0.574521
0.57408
0.572666
0.569842
0.567384
0.566586
0.567287
0.565075
0.562737
0.560598
0.0944778
0.0944613
0.0944414
0.0944089
0.0943876
0.0943652
0.0943031
0.0942034
0.094179
0.0941839
0.0941944
0.0941604
0.0940592
0.094033
0.0940413
0.0940302
0.0939735
0.0939686
0.0940091
0.0940862
0.0941854
0.0943362
0.0945616
0.094873
0.0952019
0.095485
0.0957366
0.096048
0.0964465
0.0969115
0.0974441
0.0979705
0.0984545
0.0989012
0.0992808
0.0996216
0.0999851
0.100354
0.100685
0.100998
0.101259
0.101528
0.101875
0.102318
0.102545
0.102701
0.103046
0.103775
0.104909
0.10642
0.108268
0.110717
0.113199
0.115648
0.117654
0.119484
0.121028
0.122308
0.12353
0.124753
0.126468
0.128403
0.131127
0.134492
0.136961
0.13884
0.143059
0.179114
0.267764
0.408523
0.515865
0.575517
0.620775
0.657126
0.660524
0.641685
0.645317
0.643053
0.636081
0.630564
0.635306
0.636443
0.634471
0.630549
0.628777
0.626731
0.623865
0.624573
0.624715
0.621756
0.618765
0.616682
0.614556
0.611416
0.608768
0.606115
0.603128
0.599534
0.595557
0.590665
0.0943884
0.0943749
0.094358
0.0943504
0.0943519
0.0943458
0.09429
0.0942714
0.0942765
0.0943
0.0943377
0.094383
0.0944308
0.0944993
0.0946439
0.0949136
0.0952893
0.0957278
0.0961804
0.09666
0.0971854
0.0977115
0.0982286
0.0987145
0.0991116
0.0994413
0.0997596
0.100155
0.100564
0.100902
0.101256
0.101595
0.10192
0.102177
0.102351
0.102521
0.102708
0.1029
0.103144
0.103382
0.103715
0.104221
0.104869
0.105677
0.106809
0.108299
0.110332
0.112513
0.114901
0.117192
0.119395
0.121334
0.122712
0.123865
0.124835
0.125796
0.126842
0.128259
0.129988
0.13222
0.134993
0.138158
0.141342
0.144137
0.146656
0.148617
0.150583
0.15215
0.153391
0.166252
0.220964
0.333935
0.479179
0.582147
0.638926
0.678421
0.722127
0.716488
0.70626
0.694214
0.694537
0.684763
0.684703
0.688125
0.690505
0.685922
0.681991
0.679617
0.676801
0.673617
0.672827
0.672781
0.671093
0.666921
0.661798
0.657578
0.653822
0.649279
0.646522
0.640741
0.0959781
0.0961662
0.0963907
0.0966203
0.0968218
0.0970285
0.0972957
0.0975594
0.0977936
0.0980362
0.098303
0.098612
0.0989236
0.0992227
0.0996051
0.100077
0.100454
0.100736
0.101018
0.10136
0.101717
0.102037
0.102306
0.102579
0.102881
0.103158
0.103426
0.103681
0.103933
0.104228
0.104523
0.104759
0.105025
0.105337
0.105705
0.106161
0.106792
0.107617
0.108563
0.109754
0.111089
0.112681
0.114394
0.116291
0.118146
0.120113
0.121896
0.123591
0.125138
0.126504
0.127784
0.12878
0.129663
0.13052
0.131511
0.13273
0.134478
0.136924
0.139727
0.142787
0.145802
0.148266
0.150546
0.152782
0.154624
0.156171
0.158483
0.161445
0.165146
0.16914
0.170675
0.172007
0.192736
0.262654
0.391761
0.545382
0.653249
0.699217
0.748581
0.773092
0.778358
0.757676
0.758881
0.756059
0.748628
0.740841
0.745937
0.747397
0.744688
0.740851
0.737898
0.734358
0.731011
0.72815
0.725249
0.723095
0.719518
0.714376
0.708774
0.702119
0.102082
0.102206
0.102341
0.102481
0.102636
0.102792
0.102949
0.10312
0.103299
0.103478
0.103673
0.10388
0.104089
0.104295
0.104491
0.104677
0.104881
0.105124
0.105382
0.10562
0.105844
0.106109
0.106432
0.106812
0.107233
0.107721
0.108252
0.108862
0.109576
0.110337
0.111156
0.112055
0.113135
0.114351
0.115706
0.117102
0.118547
0.11993
0.121365
0.122731
0.124156
0.125484
0.126735
0.127855
0.128859
0.129801
0.130628
0.131565
0.132461
0.133488
0.134529
0.135713
0.137202
0.138815
0.140889
0.143312
0.146093
0.148821
0.151404
0.153849
0.155682
0.157408
0.159081
0.160949
0.163098
0.165961
0.169222
0.172474
0.175894
0.178737
0.181538
0.185675
0.188172
0.189562
0.190761
0.220055
0.305048
0.459859
0.618986
0.723774
0.768008
0.801028
0.849502
0.844238
0.830647
0.813604
0.81336
0.804964
0.804133
0.808271
0.811712
0.808432
0.803301
0.797209
0.791891
0.789287
0.786722
0.783569
0.780409
0.774331
0.10847
0.108722
0.108996
0.109277
0.109561
0.10988
0.110226
0.110593
0.110984
0.111388
0.1118
0.112225
0.112664
0.113127
0.113613
0.114102
0.114611
0.115134
0.115662
0.116224
0.116827
0.117449
0.118109
0.118797
0.119507
0.120241
0.12103
0.121865
0.122682
0.123511
0.124388
0.125334
0.126259
0.127193
0.128084
0.128928
0.129773
0.130647
0.131533
0.132359
0.133164
0.133889
0.134653
0.135384
0.136199
0.137022
0.138081
0.139374
0.1409
0.142715
0.144715
0.147023
0.149275
0.15165
0.15389
0.156122
0.158256
0.160155
0.16198
0.163532
0.165123
0.166837
0.168602
0.170797
0.17401
0.177526
0.18097
0.184242
0.187523
0.190629
0.19389
0.196693
0.199088
0.201607
0.205558
0.208622
0.212053
0.214759
0.250214
0.360878
0.523671
0.686946
0.798867
0.833712
0.86891
0.891821
0.902466
0.883169
0.878417
0.873354
0.867191
0.86444
0.86681
0.867246
0.864108
0.859275
0.853488
0.84874
0.8468
0.843142
0.120876
0.121123
0.121396
0.121674
0.121953
0.122244
0.122559
0.122891
0.12322
0.123549
0.12389
0.124259
0.124633
0.125008
0.125395
0.125811
0.126236
0.126678
0.127139
0.127624
0.128126
0.128653
0.12919
0.129744
0.130302
0.130869
0.131419
0.131969
0.132529
0.133124
0.133749
0.134403
0.135083
0.135796
0.136544
0.137375
0.13826
0.139194
0.140121
0.141111
0.142154
0.143321
0.144576
0.145957
0.147491
0.149192
0.151109
0.153078
0.155194
0.157265
0.159346
0.161194
0.16293
0.164501
0.165861
0.167181
0.168371
0.169773
0.171249
0.173156
0.175461
0.17806
0.180913
0.184377
0.187753
0.191083
0.194116
0.19705
0.199927
0.202422
0.205025
0.207117
0.209953
0.214052
0.218849
0.2229
0.225638
0.228248
0.23005
0.232071
0.237709
0.289791
0.408263
0.595095
0.761389
0.858409
0.908095
0.922431
0.957647
0.952192
0.937448
0.92537
0.920048
0.915806
0.91724
0.920312
0.918217
0.914811
0.910967
0.905754
0.131748
0.131968
0.132196
0.132443
0.132719
0.133026
0.133345
0.133656
0.133968
0.134296
0.134654
0.135031
0.135423
0.135827
0.136245
0.136684
0.137149
0.137626
0.138122
0.138641
0.139185
0.139753
0.140343
0.140958
0.141606
0.142283
0.14299
0.143744
0.144526
0.145371
0.146248
0.147186
0.148156
0.149183
0.150248
0.151386
0.152598
0.153866
0.155168
0.156474
0.157778
0.159099
0.160379
0.161703
0.162981
0.164209
0.165393
0.166675
0.168063
0.169465
0.170819
0.172125
0.173542
0.174951
0.176435
0.177792
0.179525
0.181473
0.184038
0.186919
0.190153
0.193271
0.196555
0.19971
0.202653
0.205282
0.207342
0.209526
0.21179
0.214758
0.217576
0.221181
0.224678
0.227931
0.230758
0.233128
0.235484
0.238322
0.242314
0.246006
0.249219
0.250985
0.252155
0.267855
0.332685
0.486623
0.680907
0.837827
0.932174
0.949692
0.97037
0.988739
0.98428
0.969743
0.963919
0.959542
0.957779
0.960528
0.96493
0.962591
0.146098
0.146365
0.146656
0.146947
0.147224
0.147478
0.147762
0.148116
0.148486
0.148832
0.149182
0.14956
0.149961
0.150387
0.150842
0.151307
0.151795
0.152307
0.152852
0.153427
0.15403
0.154657
0.155314
0.15597
0.156655
0.157337
0.158044
0.158751
0.159478
0.160203
0.160953
0.161698
0.162474
0.163284
0.164163
0.165101
0.166081
0.167119
0.168201
0.169252
0.170273
0.171308
0.172403
0.173528
0.174652
0.175815
0.176896
0.178165
0.179609
0.181266
0.182866
0.184781
0.186894
0.189368
0.191768
0.194365
0.196827
0.199494
0.202099
0.204741
0.207052
0.209135
0.211258
0.213424
0.215874
0.218035
0.220166
0.222382
0.22528
0.228455
0.23201
0.235018
0.237672
0.240029
0.242156
0.244844
0.24808
0.251333
0.253726
0.255699
0.257845
0.259878
0.262558
0.263637
0.26467
0.265949
0.289749
0.394062
0.572701
0.762489
0.914642
0.973404
1.00412
1.00232
1.01116
1.00418
0.992997
0.993849
0.994389
0.995799
0.160567
0.160788
0.161051
0.161341
0.161642
0.16195
0.16226
0.162574
0.162923
0.163321
0.163728
0.164139