/*--------------------------------*- C++ -*----------------------------------*\
  =========                 |
  \\      /  F ield         | OpenFOAM: The Open Source CFD Toolbox
   \\    /   O peration     | Website:  https://openfoam.org
    \\  /    A nd           | Version:  7
     \\/     M anipulation  |
\*---------------------------------------------------------------------------*/
FoamFile
{
    version     2.0;
    format      ascii;
    class       volVectorField;
    location    "12.5";
    object      U;
}
// * * * * * * * * * * * * * * * * * * * * * * * * * * * * * * * * * * * * * //

dimensions      [0 1 -1 0 0 0 0];

internalField   nonuniform List<vector> 
90000
(
(0.928862 -0.37578 0)
(1.01127 -0.232976 0)
(1.08277 -0.0991655 0)
(1.17795 0.0115413 0)
(1.26955 0.0962652 0)
(1.3397 0.174096 0)
(1.42086 0.249457 0)
(1.51542 0.303581 0)
(1.60337 0.353442 0)
(1.69288 0.386353 0)
(1.78053 0.424654 0)
(1.86998 0.441169 0)
(1.95051 0.463704 0)
(2.02773 0.475536 0)
(2.09848 0.484155 0)
(2.16243 0.488397 0)
(2.22221 0.49373 0)
(2.27804 0.491666 0)
(2.32946 0.490518 0)
(2.37614 0.484641 0)
(2.41883 0.482341 0)
(2.45737 0.472232 0)
(2.49269 0.467595 0)
(2.52555 0.457552 0)
(2.55599 0.453247 0)
(2.58472 0.444144 0)
(2.61106 0.441496 0)
(2.63586 0.433347 0)
(2.65926 0.429446 0)
(2.68131 0.423677 0)
(2.70185 0.417183 0)
(2.72037 0.409241 0)
(2.73671 0.403219 0)
(2.75011 0.393023 0)
(2.76011 0.38654 0)
(2.76735 0.38151 0)
(2.77441 0.380153 0)
(2.78072 0.381729 0)
(2.78586 0.386405 0)
(2.79015 0.390361 0)
(2.79327 0.395582 0)
(2.79511 0.401398 0)
(2.79645 0.406696 0)
(2.79613 0.414237 0)
(2.79472 0.42212 0)
(2.79605 0.432295 0)
(2.79478 0.441101 0)
(2.79419 0.448843 0)
(2.79495 0.458227 0)
(2.79498 0.461142 0)
(2.79829 0.46844 0)
(2.79911 0.470133 0)
(2.80002 0.474064 0)
(2.79783 0.469975 0)
(2.79591 0.4641 0)
(2.79434 0.457853 0)
(2.79291 0.450322 0)
(2.79405 0.443498 0)
(2.7933 0.435109 0)
(2.79401 0.430024 0)
(2.79397 0.430067 0)
(2.7935 0.429602 0)
(2.79456 0.432826 0)
(2.79581 0.434276 0)
(2.79506 0.435923 0)
(2.79525 0.434064 0)
(2.79502 0.430879 0)
(2.79451 0.424422 0)
(2.79306 0.413188 0)
(2.79127 0.400643 0)
(2.79058 0.396411 0)
(2.79002 0.392841 0)
(2.78919 0.392481 0)
(2.78836 0.390692 0)
(2.78739 0.385697 0)
(2.78481 0.375275 0)
(2.78133 0.362546 0)
(2.77847 0.35066 0)
(2.77777 0.346789 0)
(2.77695 0.340639 0)
(2.77498 0.337608 0)
(2.77197 0.32569 0)
(2.76971 0.314639 0)
(2.7667 0.30254 0)
(2.76526 0.296664 0)
(2.76574 0.290143 0)
(2.76417 0.284308 0)
(2.76249 0.273469 0)
(2.76285 0.270678 0)
(2.7619 0.261261 0)
(2.76008 0.258549 0)
(2.75808 0.248347 0)
(2.75757 0.242353 0)
(2.75719 0.23629 0)
(2.75724 0.227312 0)
(2.75776 0.223749 0)
(2.75791 0.217295 0)
(2.75745 0.21196 0)
(2.75645 0.206735 0)
(2.75781 0.197874 0)
(0.413298 -0.498464 0)
(0.403865 -0.470707 0)
(0.392216 -0.427413 0)
(0.386214 -0.368928 0)
(0.386051 -0.295507 0)
(0.401573 -0.214315 0)
(0.432872 -0.128807 0)
(0.479993 -0.0440877 0)
(0.544498 0.0319673 0)
(0.617023 0.103298 0)
(0.702588 0.157184 0)
(0.793397 0.202311 0)
(0.88987 0.235083 0)
(0.987183 0.260354 0)
(1.08434 0.279295 0)
(1.18023 0.293824 0)
(1.2737 0.306112 0)
(1.36519 0.313992 0)
(1.45177 0.324258 0)
(1.53528 0.330705 0)
(1.61401 0.342455 0)
(1.69042 0.349169 0)
(1.76305 0.361455 0)
(1.83305 0.369328 0)
(1.90016 0.380327 0)
(1.96528 0.388441 0)
(2.02845 0.398663 0)
(2.09076 0.406717 0)
(2.15148 0.417065 0)
(2.21151 0.425528 0)
(2.27028 0.433342 0)
(2.32774 0.440845 0)
(2.38348 0.448472 0)
(2.43643 0.454425 0)
(2.48718 0.461336 0)
(2.53386 0.466065 0)
(2.57413 0.472318 0)
(2.60951 0.477954 0)
(2.64023 0.486978 0)
(2.6677 0.494596 0)
(2.69097 0.50453 0)
(2.71077 0.511567 0)
(2.72736 0.518167 0)
(2.7404 0.521194 0)
(2.74919 0.524451 0)
(2.75613 0.525018 0)
(2.76027 0.524864 0)
(2.7621 0.519697 0)
(2.76341 0.513201 0)
(2.76346 0.501128 0)
(2.76398 0.4868 0)
(2.76423 0.471769 0)
(2.76742 0.459248 0)
(2.77201 0.44948 0)
(2.77502 0.438373 0)
(2.77672 0.431369 0)
(2.77731 0.426642 0)
(2.77659 0.424123 0)
(2.77917 0.42537 0)
(2.78178 0.42614 0)
(2.78747 0.42862 0)
(2.79263 0.434265 0)
(2.79515 0.439202 0)
(2.79429 0.438955 0)
(2.79307 0.436239 0)
(2.79216 0.429342 0)
(2.79196 0.419397 0)
(2.79123 0.407418 0)
(2.79132 0.402072 0)
(2.79075 0.396578 0)
(2.79031 0.394484 0)
(2.78973 0.392258 0)
(2.78906 0.391552 0)
(2.78745 0.386631 0)
(2.78508 0.376662 0)
(2.783 0.366378 0)
(2.78009 0.352134 0)
(2.77945 0.346725 0)
(2.77777 0.341472 0)
(2.77626 0.337623 0)
(2.77239 0.329621 0)
(2.76932 0.317199 0)
(2.76543 0.302704 0)
(2.7652 0.299092 0)
(2.76483 0.291249 0)
(2.76418 0.286765 0)
(2.7613 0.277869 0)
(2.76067 0.27116 0)
(2.76119 0.267452 0)
(2.75992 0.260068 0)
(2.75782 0.256074 0)
(2.75628 0.245892 0)
(2.75554 0.241242 0)
(2.75492 0.233614 0)
(2.75483 0.226685 0)
(2.75558 0.223236 0)
(2.75595 0.215955 0)
(2.75585 0.211347 0)
(2.75479 0.206 0)
(2.75558 0.198193 0)
(0.429905 -0.403325 0)
(0.417629 -0.371731 0)
(0.396184 -0.368081 0)
(0.389719 -0.357137 0)
(0.389252 -0.342872 0)
(0.383526 -0.322167 0)
(0.383148 -0.294482 0)
(0.380981 -0.260714 0)
(0.38611 -0.221122 0)
(0.389865 -0.17537 0)
(0.400172 -0.126694 0)
(0.411106 -0.0734642 0)
(0.439683 -0.0262402 0)
(0.472066 0.020852 0)
(0.514633 0.0591642 0)
(0.560221 0.0950531 0)
(0.612299 0.121711 0)
(0.667566 0.143262 0)
(0.72707 0.157067 0)
(0.789052 0.164832 0)
(0.852647 0.170388 0)
(0.917401 0.170708 0)
(0.982153 0.172994 0)
(1.0479 0.173072 0)
(1.11398 0.177707 0)
(1.18178 0.182719 0)
(1.25082 0.191783 0)
(1.32196 0.203915 0)
(1.39472 0.221874 0)
(1.46943 0.244324 0)
(1.5464 0.270447 0)
(1.62692 0.297153 0)
(1.71098 0.321862 0)
(1.797 0.343415 0)
(1.88494 0.361003 0)
(1.97197 0.372922 0)
(2.05558 0.381279 0)
(2.13475 0.382359 0)
(2.20997 0.381355 0)
(2.28084 0.377103 0)
(2.3472 0.374932 0)
(2.40899 0.372108 0)
(2.46579 0.371865 0)
(2.51745 0.369867 0)
(2.56343 0.371268 0)
(2.60409 0.371763 0)
(2.63956 0.375179 0)
(2.66981 0.376271 0)
(2.6951 0.378291 0)
(2.7157 0.378046 0)
(2.7307 0.377182 0)
(2.74059 0.374658 0)
(2.74634 0.374068 0)
(2.75247 0.377732 0)
(2.75854 0.384624 0)
(2.76429 0.391636 0)
(2.76751 0.40106 0)
(2.77207 0.412947 0)
(2.77397 0.424208 0)
(2.77356 0.431529 0)
(2.77768 0.441397 0)
(2.78144 0.442843 0)
(2.78263 0.44447 0)
(2.77967 0.434088 0)
(2.77911 0.424773 0)
(2.78002 0.414087 0)
(2.7827 0.405385 0)
(2.78402 0.396424 0)
(2.78652 0.392313 0)
(2.78705 0.392899 0)
(2.78797 0.393257 0)
(2.78811 0.391556 0)
(2.78711 0.386883 0)
(2.78432 0.375981 0)
(2.78124 0.359754 0)
(2.77831 0.349315 0)
(2.77868 0.343597 0)
(2.77952 0.34348 0)
(2.7774 0.337436 0)
(2.77528 0.332922 0)
(2.77037 0.319189 0)
(2.76808 0.310081 0)
(2.76539 0.296981 0)
(2.7651 0.296676 0)
(2.76405 0.287908 0)
(2.76295 0.283199 0)
(2.75975 0.271956 0)
(2.75971 0.269082 0)
(2.75927 0.264711 0)
(2.75777 0.259065 0)
(2.75519 0.252933 0)
(2.75355 0.24337 0)
(2.75346 0.239314 0)
(2.75252 0.230982 0)
(2.75293 0.225279 0)
(2.75359 0.222274 0)
(2.75358 0.215967 0)
(2.75369 0.211787 0)
(2.75226 0.206097 0)
(2.7533 0.198225 0)
(0.538021 -0.345146 0)
(0.504671 -0.320233 0)
(0.490842 -0.335427 0)
(0.503901 -0.333302 0)
(0.505376 -0.311663 0)
(0.484665 -0.276333 0)
(0.46676 -0.243797 0)
(0.449363 -0.232064 0)
(0.447258 -0.220924 0)
(0.449286 -0.208566 0)
(0.456181 -0.191387 0)
(0.46352 -0.17016 0)
(0.469037 -0.147188 0)
(0.475297 -0.122907 0)
(0.483912 -0.0984362 0)
(0.492821 -0.0738624 0)
(0.506043 -0.052152 0)
(0.518877 -0.0291827 0)
(0.534844 -0.00608594 0)
(0.551197 0.0191554 0)
(0.572241 0.0425275 0)
(0.595077 0.0651451 0)
(0.621394 0.0845215 0)
(0.650193 0.101314 0)
(0.680937 0.116789 0)
(0.71426 0.13014 0)
(0.750262 0.142032 0)
(0.790525 0.149225 0)
(0.834664 0.152338 0)
(0.882572 0.152708 0)
(0.934606 0.153261 0)
(0.991788 0.156701 0)
(1.05452 0.164184 0)
(1.12359 0.17485 0)
(1.19946 0.188661 0)
(1.2811 0.202468 0)
(1.36558 0.222385 0)
(1.45167 0.24598 0)
(1.54055 0.272952 0)
(1.63238 0.294945 0)
(1.72527 0.316817 0)
(1.82002 0.332849 0)
(1.91302 0.350084 0)
(2.00398 0.36452 0)
(2.09441 0.374367 0)
(2.18185 0.383629 0)
(2.26559 0.392472 0)
(2.34361 0.404549 0)
(2.41568 0.417127 0)
(2.48093 0.430689 0)
(2.53886 0.444071 0)
(2.58819 0.457476 0)
(2.62833 0.468446 0)
(2.65935 0.477245 0)
(2.68348 0.486218 0)
(2.70276 0.489679 0)
(2.71704 0.491645 0)
(2.72842 0.489059 0)
(2.73568 0.484796 0)
(2.73842 0.473279 0)
(2.74079 0.460077 0)
(2.7419 0.439709 0)
(2.75068 0.421565 0)
(2.75786 0.407005 0)
(2.76019 0.396492 0)
(2.76209 0.388145 0)
(2.76396 0.386083 0)
(2.77036 0.384269 0)
(2.77648 0.387078 0)
(2.78378 0.391526 0)
(2.78461 0.392246 0)
(2.78279 0.386661 0)
(2.78012 0.37562 0)
(2.77668 0.361713 0)
(2.77613 0.353636 0)
(2.77506 0.343829 0)
(2.77607 0.341945 0)
(2.77598 0.340186 0)
(2.77537 0.332643 0)
(2.77281 0.324414 0)
(2.76857 0.308218 0)
(2.76516 0.29845 0)
(2.76536 0.294944 0)
(2.76462 0.293858 0)
(2.7631 0.284402 0)
(2.76086 0.277419 0)
(2.75918 0.268174 0)
(2.75938 0.267199 0)
(2.75825 0.261678 0)
(2.75647 0.257455 0)
(2.75393 0.248648 0)
(2.75271 0.241176 0)
(2.75203 0.236895 0)
(2.75062 0.228542 0)
(2.75062 0.224699 0)
(2.75094 0.221007 0)
(2.75141 0.214619 0)
(2.75146 0.211392 0)
(2.74957 0.204172 0)
(2.75085 0.196615 0)
(2.12466 -1.30829 0)
(1.53028 -1.18982 0)
(0.894795 -0.785084 0)
(0.786815 -0.579009 0)
(0.712056 -0.35428 0)
(0.629224 -0.197195 0)
(0.583522 -0.194222 0)
(0.573838 -0.218365 0)
(0.594622 -0.222548 0)
(0.600114 -0.205187 0)
(0.589196 -0.178317 0)
(0.574648 -0.151463 0)
(0.559414 -0.143392 0)
(0.557651 -0.134708 0)
(0.559268 -0.125515 0)
(0.560879 -0.113543 0)
(0.564175 -0.0986074 0)
(0.567398 -0.0812505 0)
(0.573865 -0.0633519 0)
(0.579002 -0.0459208 0)
(0.587275 -0.0316503 0)
(0.594453 -0.0185338 0)
(0.603274 -0.00715825 0)
(0.611981 0.00413109 0)
(0.622247 0.0143876 0)
(0.633112 0.0243533 0)
(0.644674 0.0341638 0)
(0.655901 0.0462092 0)
(0.666547 0.0627685 0)
(0.681936 0.0785731 0)
(0.700844 0.093295 0)
(0.723118 0.106919 0)
(0.74781 0.121097 0)
(0.776216 0.13438 0)
(0.809062 0.147322 0)
(0.848841 0.15644 0)
(0.895333 0.157238 0)
(0.9468 0.154133 0)
(1.00312 0.153669 0)
(1.06476 0.156665 0)
(1.13278 0.162624 0)
(1.20727 0.172674 0)
(1.28809 0.18131 0)
(1.37137 0.198916 0)
(1.45989 0.227453 0)
(1.55554 0.252464 0)
(1.65586 0.278915 0)
(1.76149 0.296113 0)
(1.8659 0.318215 0)
(1.97185 0.330386 0)
(2.0783 0.341875 0)
(2.183 0.344985 0)
(2.28091 0.353992 0)
(2.36859 0.354671 0)
(2.44508 0.358784 0)
(2.51087 0.357974 0)
(2.56664 0.360725 0)
(2.6128 0.360725 0)
(2.65018 0.361558 0)
(2.67841 0.359537 0)
(2.6983 0.357513 0)
(2.70833 0.352609 0)
(2.71712 0.350038 0)
(2.72926 0.352752 0)
(2.73925 0.360195 0)
(2.74758 0.366725 0)
(2.75253 0.377377 0)
(2.75874 0.387524 0)
(2.764 0.392947 0)
(2.77034 0.397514 0)
(2.76858 0.386172 0)
(2.76783 0.371128 0)
(2.76776 0.35811 0)
(2.76715 0.346985 0)
(2.76718 0.34453 0)
(2.76957 0.339359 0)
(2.77158 0.339502 0)
(2.77209 0.336137 0)
(2.77045 0.325554 0)
(2.76652 0.31034 0)
(2.76465 0.302693 0)
(2.76388 0.293798 0)
(2.7638 0.2931 0)
(2.76298 0.289883 0)
(2.76143 0.279119 0)
(2.75895 0.270886 0)
(2.75898 0.266449 0)
(2.75919 0.265529 0)
(2.75767 0.258551 0)
(2.75458 0.252827 0)
(2.75203 0.244328 0)
(2.75094 0.239168 0)
(2.75018 0.234045 0)
(2.74919 0.225809 0)
(2.74914 0.222716 0)
(2.74933 0.21764 0)
(2.74926 0.212993 0)
(2.74877 0.209438 0)
(2.74636 0.200981 0)
(2.74783 0.194146 0)
(2.66965 -1.90265 0)
(2.67042 -1.90253 0)
(2.63966 -1.88714 0)
(2.53258 -1.78528 0)
(2.30407 -1.65598 0)
(2.05551 -1.34334 0)
(1.62177 -1.111 0)
(1.02984 -0.716421 0)
(0.922116 -0.487794 0)
(0.818387 -0.273816 0)
(0.738652 -0.131003 0)
(0.695679 -0.0943841 0)
(0.682655 -0.116848 0)
(0.700176 -0.119529 0)
(0.706515 -0.101847 0)
(0.696434 -0.0810807 0)
(0.686391 -0.0605013 0)
(0.672905 -0.0529793 0)
(0.672319 -0.0463537 0)
(0.668144 -0.0416014 0)
(0.664834 -0.0372752 0)
(0.661921 -0.0330272 0)
(0.661371 -0.0274173 0)
(0.662134 -0.0196104 0)
(0.663274 -0.0108069 0)
(0.666485 -0.00191014 0)
(0.671124 0.00784201 0)
(0.677266 0.0176961 0)
(0.685607 0.024814 0)
(0.693336 0.032039 0)
(0.700536 0.0394588 0)
(0.707939 0.0460748 0)
(0.716762 0.0525193 0)
(0.7268 0.0584851 0)
(0.737445 0.0646991 0)
(0.748074 0.0738836 0)
(0.758077 0.088451 0)
(0.774817 0.100292 0)
(0.794809 0.110675 0)
(0.817584 0.119836 0)
(0.84338 0.129726 0)
(0.873592 0.138748 0)
(0.909248 0.150413 0)
(0.952655 0.149249 0)
(1.00311 0.147391 0)
(1.05986 0.15056 0)
(1.12543 0.157598 0)
(1.20048 0.170373 0)
(1.28509 0.18015 0)
(1.37457 0.208254 0)
(1.47591 0.243289 0)
(1.5874 0.279075 0)
(1.70869 0.304564 0)
(1.8292 0.330022 0)
(1.94998 0.347165 0)
(2.06724 0.356824 0)
(2.17822 0.36511 0)
(2.27812 0.375197 0)
(2.36689 0.386757 0)
(2.44483 0.397902 0)
(2.51028 0.414285 0)
(2.56344 0.425024 0)
(2.60284 0.432454 0)
(2.63414 0.43494 0)
(2.66076 0.435442 0)
(2.68299 0.428383 0)
(2.6999 0.423345 0)
(2.71218 0.406338 0)
(2.72326 0.391903 0)
(2.73617 0.366563 0)
(2.74507 0.345749 0)
(2.74724 0.334877 0)
(2.75003 0.331473 0)
(2.75496 0.328857 0)
(2.76063 0.333112 0)
(2.76333 0.336033 0)
(2.76512 0.33499 0)
(2.76247 0.326729 0)
(2.76024 0.314093 0)
(2.75797 0.299839 0)
(2.75778 0.295989 0)
(2.75988 0.291251 0)
(2.7608 0.2906 0)
(2.75889 0.282899 0)
(2.75733 0.274291 0)
(2.7572 0.265896 0)
(2.75858 0.265475 0)
(2.75827 0.263039 0)
(2.75632 0.253368 0)
(2.75379 0.24815 0)
(2.75174 0.240913 0)
(2.75059 0.23759 0)
(2.74822 0.230487 0)
(2.74814 0.223084 0)
(2.74809 0.219976 0)
(2.74803 0.213412 0)
(2.74794 0.209876 0)
(2.74622 0.206085 0)
(2.74355 0.197052 0)
(2.74603 0.190484 0)
(2.68063 -1.9146 0)
(2.68204 -1.91638 0)
(2.68332 -1.91726 0)
(2.68471 -1.9179 0)
(2.68612 -1.91866 0)
(2.68789 -1.91938 0)
(2.68906 -1.9203 0)
(2.65821 -1.89236 0)
(2.53284 -1.79739 0)
(2.31256 -1.5927 0)
(2.01895 -1.30741 0)
(1.73743 -0.961387 0)
(1.17979 -0.601818 0)
(1.03682 -0.365951 0)
(0.945651 -0.172516 0)
(0.855098 -0.0623103 0)
(0.822863 -0.0372887 0)
(0.81165 -0.0508024 0)
(0.820468 -0.0491387 0)
(0.825909 -0.035912 0)
(0.818011 -0.0219266 0)
(0.807283 -0.0093395 0)
(0.798483 -0.00215604 0)
(0.795834 0.00414372 0)
(0.789777 0.0107095 0)
(0.781944 0.0164099 0)
(0.774638 0.0205288 0)
(0.76813 0.0239358 0)
(0.763572 0.0278083 0)
(0.758352 0.0283118 0)
(0.755275 0.0301051 0)
(0.754535 0.0325336 0)
(0.755353 0.0357104 0)
(0.757626 0.0396347 0)
(0.761492 0.0443372 0)
(0.767136 0.0497697 0)
(0.77398 0.0554407 0)
(0.779829 0.0616544 0)
(0.784071 0.0671415 0)
(0.790822 0.0703078 0)
(0.798529 0.0742275 0)
(0.807845 0.0775041 0)
(0.817427 0.0833213 0)
(0.82606 0.0960505 0)
(0.840987 0.106642 0)
(0.859457 0.116111 0)
(0.881322 0.12775 0)
(0.909263 0.139277 0)
(0.944521 0.154968 0)
(0.990201 0.152325 0)
(1.04624 0.153802 0)
(1.11323 0.158302 0)
(1.19307 0.171415 0)
(1.28566 0.177526 0)
(1.38385 0.203647 0)
(1.49353 0.230829 0)
(1.61071 0.259017 0)
(1.73217 0.277227 0)
(1.85219 0.297668 0)
(1.97417 0.305616 0)
(2.09329 0.307032 0)
(2.20384 0.31569 0)
(2.30305 0.315731 0)
(2.38925 0.31369 0)
(2.4638 0.315589 0)
(2.52753 0.310772 0)
(2.58023 0.312357 0)
(2.62012 0.309101 0)
(2.65048 0.311487 0)
(2.66969 0.308718 0)
(2.69287 0.321378 0)
(2.7118 0.331755 0)
(2.72299 0.344494 0)
(2.7303 0.351338 0)
(2.7368 0.355857 0)
(2.7396 0.347675 0)
(2.74118 0.329221 0)
(2.74401 0.309782 0)
(2.74545 0.293582 0)
(2.74617 0.286385 0)
(2.75332 0.292101 0)
(2.75546 0.291071 0)
(2.75346 0.287192 0)
(2.75041 0.273578 0)
(2.75068 0.266822 0)
(2.7549 0.262269 0)
(2.7574 0.263694 0)
(2.75626 0.258034 0)
(2.75365 0.249761 0)
(2.75165 0.243969 0)
(2.75066 0.239311 0)
(2.74874 0.235375 0)
(2.74754 0.226442 0)
(2.74733 0.220998 0)
(2.74734 0.216821 0)
(2.74759 0.210219 0)
(2.74713 0.207537 0)
(2.74381 0.202655 0)
(2.74197 0.19399 0)
(2.74496 0.187423 0)
(2.70037 -1.92933 0)
(2.70217 -1.93072 0)
(2.70453 -1.93151 0)
(2.70644 -1.93321 0)
(2.70901 -1.93405 0)
(2.71107 -1.93592 0)
(2.71372 -1.93661 0)
(2.71627 -1.939 0)
(2.71802 -1.93943 0)
(2.7196 -1.93995 0)
(2.72148 -1.94034 0)
(2.72271 -1.9413 0)
(2.67863 -1.89141 0)
(2.52494 -1.75359 0)
(2.29074 -1.50474 0)
(2.00216 -1.15691 0)
(1.76344 -0.82545 0)
(1.3517 -0.470479 0)
(1.14098 -0.225495 0)
(1.0371 -0.0689763 0)
(0.970999 0.0056643 0)
(0.950575 0.00916986 0)
(0.942675 0.00568083 0)
(0.948105 0.0146809 0)
(0.945497 0.0249377 0)
(0.935487 0.0334427 0)
(0.925632 0.041883 0)
(0.918566 0.0404731 0)
(0.912645 0.0436706 0)
(0.901718 0.0467213 0)
(0.890143 0.0500289 0)
(0.878848 0.0536511 0)
(0.869208 0.0591393 0)
(0.859921 0.0633453 0)
(0.851321 0.0658053 0)
(0.843073 0.0657373 0)
(0.83616 0.0617322 0)
(0.831007 0.0565139 0)
(0.827342 0.0564296 0)
(0.825998 0.0574478 0)
(0.825271 0.060216 0)
(0.826478 0.0640382 0)
(0.829339 0.0700788 0)
(0.834327 0.0765218 0)
(0.834859 0.0828418 0)
(0.838938 0.0864489 0)
(0.844909 0.0901529 0)
(0.853405 0.0931893 0)
(0.863114 0.0993671 0)
(0.871918 0.11365 0)
(0.889374 0.123909 0)
(0.911273 0.134563 0)
(0.939621 0.145075 0)
(0.97635 0.158131 0)
(1.02371 0.157301 0)
(1.08301 0.159458 0)
(1.15239 0.166295 0)
(1.23411 0.175696 0)
(1.32654 0.185563 0)
(1.42637 0.219176 0)
(1.54128 0.252724 0)
(1.66586 0.273061 0)
(1.79202 0.300001 0)
(1.92165 0.308666 0)
(2.04742 0.312893 0)
(2.16273 0.323152 0)
(2.26803 0.329015 0)
(2.35824 0.337877 0)
(2.43556 0.349251 0)
(2.49602 0.359542 0)
(2.5478 0.362144 0)
(2.59159 0.354419 0)
(2.62618 0.343043 0)
(2.65407 0.323568 0)
(2.67917 0.300505 0)
(2.70198 0.278272 0)
(2.71406 0.26899 0)
(2.72324 0.265073 0)
(2.7307 0.277345 0)
(2.73377 0.291234 0)
(2.739 0.298324 0)
(2.73979 0.291818 0)
(2.74242 0.27653 0)
(2.73819 0.257321 0)
(2.74736 0.259307 0)
(2.75193 0.263832 0)
(2.75279 0.262711 0)
(2.75008 0.250708 0)
(2.74877 0.245195 0)
(2.74932 0.240683 0)
(2.74931 0.237839 0)
(2.74815 0.23212 0)
(2.7468 0.223548 0)
(2.74635 0.220022 0)
(2.74614 0.213712 0)
(2.74661 0.208466 0)
(2.74592 0.205664 0)
(2.7434 0.200197 0)
(2.74031 0.192147 0)
(2.74336 0.185105 0)
(2.72371 -1.93804 0)
(2.7258 -1.93849 0)
(2.72725 -1.94009 0)
(2.72959 -1.94037 0)
(2.73097 -1.94218 0)
(2.73341 -1.94241 0)
(2.73481 -1.94434 0)
(2.73744 -1.94443 0)
(2.7386 -1.94676 0)
(2.74156 -1.94669 0)
(2.7424 -1.94963 0)
(2.74613 -1.94934 0)
(2.74555 -1.95306 0)
(2.74735 -1.95298 0)
(2.74808 -1.9547 0)
(2.75047 -1.95422 0)
(2.75071 -1.95657 0)
(2.6902 -1.87742 0)
(2.48494 -1.66956 0)
(2.22088 -1.34846 0)
(1.93493 -0.946441 0)
(1.72304 -0.594524 0)
(1.39277 -0.279325 0)
(1.20113 -0.0698888 0)
(1.08971 0.0306097 0)
(1.05751 0.0467798 0)
(1.05159 0.0497529 0)
(1.05175 0.0614747 0)
(1.05081 0.0731297 0)
(1.04418 0.0818304 0)
(1.03383 0.0822948 0)
(1.02718 0.0761723 0)
(1.02158 0.0696582 0)
(1.00885 0.0672643 0)
(0.996162 0.0663059 0)
(0.982675 0.0676191 0)
(0.969849 0.071084 0)
(0.956594 0.0759972 0)
(0.94268 0.0795078 0)
(0.929641 0.0822529 0)
(0.916417 0.0850028 0)
(0.903925 0.0857053 0)
(0.892391 0.0855146 0)
(0.882655 0.082009 0)
(0.876305 0.0788552 0)
(0.872873 0.0791331 0)
(0.871226 0.0802051 0)
(0.87193 0.0824939 0)
(0.874499 0.0877407 0)
(0.879555 0.0935273 0)
(0.881238 0.0982115 0)
(0.886477 0.100637 0)
(0.893882 0.103022 0)
(0.903743 0.105882 0)
(0.912493 0.120002 0)
(0.931124 0.125361 0)
(0.951639 0.135843 0)
(0.980272 0.144322 0)
(1.01725 0.158074 0)
(1.06804 0.151723 0)
(1.1316 0.15264 0)
(1.20737 0.161229 0)
(1.29946 0.164602 0)
(1.3994 0.195566 0)
(1.51526 0.218327 0)
(1.63981 0.224247 0)
(1.76562 0.241354 0)
(1.89336 0.244679 0)
(2.01738 0.257179 0)
(2.13328 0.266517 0)
(2.23908 0.270888 0)
(2.3316 0.266805 0)
(2.41075 0.267555 0)
(2.47637 0.272518 0)
(2.53174 0.280705 0)
(2.58176 0.294653 0)
(2.62219 0.314714 0)
(2.65255 0.325209 0)
(2.67275 0.327846 0)
(2.6842 0.315819 0)
(2.69482 0.290447 0)
(2.70746 0.252007 0)
(2.72446 0.240666 0)
(2.72813 0.249462 0)
(2.73599 0.266718 0)
(2.74043 0.269069 0)
(2.74168 0.25519 0)
(2.74116 0.23688 0)
(2.74574 0.242188 0)
(2.74604 0.242687 0)
(2.74531 0.238881 0)
(2.74452 0.228272 0)
(2.74449 0.222107 0)
(2.74473 0.217826 0)
(2.7454 0.210422 0)
(2.74607 0.20733 0)
(2.74514 0.204826 0)
(2.7428 0.2005 0)
(2.73969 0.193142 0)
(2.74261 0.185021 0)
(2.7408 -1.95124 0)
(2.74185 -1.95262 0)
(2.74368 -1.95289 0)
(2.74474 -1.95433 0)
(2.74663 -1.95451 0)
(2.7477 -1.95596 0)
(2.74962 -1.95616 0)
(2.75084 -1.95748 0)
(2.75274 -1.95783 0)
(2.75407 -1.95904 0)
(2.75597 -1.95944 0)
(2.75745 -1.96041 0)
(2.75906 -1.96138 0)
(2.76072 -1.96241 0)
(2.76213 -1.96405 0)
(2.7642 -1.96439 0)
(2.76562 -1.96643 0)
(2.76733 -1.9653 0)
(2.76818 -1.96594 0)
(2.77002 -1.96532 0)
(2.77044 -1.96763 0)
(2.76247 -1.93578 0)
(2.63759 -1.77677 0)
(2.36702 -1.46351 0)
(2.06521 -1.04256 0)
(1.81773 -0.643778 0)
(1.56802 -0.307624 0)
(1.33943 -0.0642877 0)
(1.19321 0.0537641 0)
(1.14803 0.0730945 0)
(1.13795 0.0830088 0)
(1.13727 0.0963617 0)
(1.13796 0.107523 0)
(1.12848 0.113848 0)
(1.12442 0.109302 0)
(1.12222 0.102242 0)
(1.1131 0.0985249 0)
(1.09952 0.0988019 0)
(1.08378 0.0998158 0)
(1.06809 0.100632 0)
(1.05241 0.101849 0)
(1.03685 0.0993059 0)
(1.02172 0.0959525 0)
(1.00636 0.092516 0)
(0.991575 0.094258 0)
(0.97616 0.0971789 0)
(0.961334 0.100928 0)
(0.947915 0.102121 0)
(0.93484 0.102246 0)
(0.924461 0.0954948 0)
(0.917876 0.0900001 0)
(0.914321 0.0893508 0)
(0.912996 0.0906178 0)
(0.913996 0.0955719 0)
(0.917255 0.100978 0)
(0.916885 0.10576 0)
(0.92047 0.109103 0)
(0.92724 0.11061 0)
(0.936673 0.112043 0)
(0.945418 0.124119 0)
(0.963671 0.13139 0)
(0.98677 0.140384 0)
(1.02156 0.152937 0)
(1.07062 0.141335 0)
(1.12879 0.15258 0)
(1.20143 0.166508 0)
(1.2886 0.171875 0)
(1.38825 0.17829 0)
(1.50268 0.1782 0)
(1.62651 0.197165 0)
(1.75509 0.233448 0)
(1.88513 0.256779 0)
(2.0085 0.267328 0)
(2.11989 0.257854 0)
(2.2222 0.256398 0)
(2.3144 0.261926 0)
(2.39778 0.265892 0)
(2.47038 0.259255 0)
(2.53047 0.242574 0)
(2.57671 0.231947 0)
(2.60959 0.23095 0)
(2.6364 0.241742 0)
(2.66432 0.2762 0)
(2.68444 0.289648 0)
(2.6963 0.279589 0)
(2.706 0.251556 0)
(2.72015 0.22404 0)
(2.72771 0.235864 0)
(2.73425 0.250565 0)
(2.73434 0.247764 0)
(2.73512 0.234435 0)
(2.73799 0.23051 0)
(2.73912 0.225761 0)
(2.74015 0.217683 0)
(2.74326 0.210008 0)
(2.74509 0.209506 0)
(2.74461 0.208668 0)
(2.74265 0.205705 0)
(2.74019 0.198871 0)
(2.74244 0.190217 0)
(2.7576 -1.95717 0)
(2.7587 -1.95777 0)
(2.75981 -1.95841 0)
(2.76081 -1.95917 0)
(2.76201 -1.9596 0)
(2.76294 -1.96045 0)
(2.76419 -1.96094 0)
(2.76523 -1.96181 0)
(2.76667 -1.96215 0)
(2.7676 -1.9633 0)
(2.7693 -1.96321 0)
(2.77016 -1.96435 0)
(2.77197 -1.96408 0)
(2.77257 -1.96561 0)
(2.77434 -1.96557 0)
(2.77489 -1.96742 0)
(2.77675 -1.96694 0)
(2.77732 -1.96837 0)
(2.77927 -1.96766 0)
(2.77961 -1.96955 0)
(2.78175 -1.96864 0)
(2.78225 -1.97178 0)
(2.78296 -1.97229 0)
(2.78408 -1.97178 0)
(2.78426 -1.97304 0)
(2.77846 -1.95245 0)
(2.68798 -1.81249 0)
(2.43065 -1.48964 0)
(2.11318 -1.04155 0)
(1.84415 -0.609956 0)
(1.59573 -0.261105 0)
(1.40336 -0.0247579 0)
(1.2647 0.0946142 0)
(1.22162 0.0907714 0)
(1.21176 0.103503 0)
(1.21287 0.124991 0)
(1.21083 0.138346 0)
(1.20733 0.134197 0)
(1.20622 0.125209 0)
(1.19753 0.115465 0)
(1.18632 0.113612 0)
(1.17136 0.115463 0)
(1.15884 0.122402 0)
(1.14433 0.124915 0)
(1.1289 0.126592 0)
(1.11222 0.123303 0)
(1.09635 0.115726 0)
(1.07911 0.110198 0)
(1.06057 0.104457 0)
(1.04099 0.104102 0)
(1.02212 0.107861 0)
(1.00326 0.110754 0)
(0.985843 0.112191 0)
(0.969175 0.111462 0)
(0.956484 0.103583 0)
(0.947249 0.0993407 0)
(0.942785 0.0993341 0)
(0.940743 0.100736 0)
(0.940588 0.105542 0)
(0.941828 0.110443 0)
(0.941354 0.115252 0)
(0.944504 0.116199 0)
(0.950946 0.115233 0)
(0.960106 0.120828 0)
(0.978193 0.114049 0)
(0.999057 0.117654 0)
(1.02539 0.133547 0)
(1.06482 0.148076 0)
(1.1226 0.156731 0)
(1.19928 0.142666 0)
(1.29455 0.137215 0)
(1.40231 0.166855 0)
(1.5145 0.206447 0)
(1.63126 0.228012 0)
(1.75734 0.215844 0)
(1.88158 0.197311 0)
(2.00412 0.200447 0)
(2.12053 0.222193 0)
(2.2253 0.250708 0)
(2.31984 0.272865 0)
(2.40009 0.282124 0)
(2.46333 0.276166 0)
(2.51722 0.259201 0)
(2.56772 0.231072 0)
(2.60727 0.221994 0)
(2.63855 0.208174 0)
(2.66266 0.242928 0)
(2.68373 0.255828 0)
(2.69558 0.247551 0)
(2.70869 0.213476 0)
(2.71598 0.222221 0)
(2.722 0.231096 0)
(2.72393 0.227222 0)
(2.72852 0.214535 0)
(2.73621 0.213625 0)
(2.7402 0.213007 0)
(2.74078 0.211512 0)
(2.73875 0.207641 0)
(2.738 0.20098 0)
(2.74191 0.195207 0)
(2.76625 -1.96771 0)
(2.76737 -1.96771 0)
(2.76811 -1.96833 0)
(2.76914 -1.9684 0)
(2.76989 -1.96893 0)
(2.77112 -1.96873 0)
(2.77175 -1.96964 0)
(2.77312 -1.96933 0)
(2.77378 -1.97022 0)
(2.7751 -1.97 0)
(2.77593 -1.97062 0)
(2.77714 -1.97061 0)
(2.77799 -1.97117 0)
(2.77919 -1.97115 0)
(2.78003 -1.97177 0)
(2.78122 -1.97182 0)
(2.78213 -1.97226 0)
(2.78332 -1.97207 0)
(2.78431 -1.97208 0)
(2.78509 -1.97261 0)
(2.78659 -1.97192 0)
(2.787 -1.97297 0)
(2.78841 -1.97219 0)
(2.78866 -1.97343 0)
(2.7902 -1.97206 0)
(2.79104 -1.97503 0)
(2.79172 -1.97462 0)
(2.79253 -1.97375 0)
(2.79257 -1.97458 0)
(2.78319 -1.94287 0)
(2.66452 -1.77222 0)
(2.39424 -1.40197 0)
(2.07349 -0.910033 0)
(1.80394 -0.484255 0)
(1.56178 -0.158546 0)
(1.39698 0.0380428 0)
(1.3049 0.108837 0)
(1.28415 0.120356 0)
(1.27895 0.138088 0)
(1.27241 0.153787 0)
(1.27535 0.150648 0)
(1.2719 0.139986 0)
(1.26865 0.130364 0)
(1.25647 0.129403 0)
(1.24576 0.130657 0)
(1.23093 0.131463 0)
(1.21787 0.135872 0)
(1.20475 0.13953 0)
(1.18959 0.140312 0)
(1.17204 0.13803 0)
(1.15213 0.132852 0)
(1.13027 0.126017 0)
(1.10767 0.122368 0)
(1.08464 0.115608 0)
(1.06151 0.114814 0)
(1.03957 0.116348 0)
(1.01887 0.120047 0)
(1.00039 0.12148 0)
(0.983371 0.119758 0)
(0.972263 0.112005 0)
(0.963639 0.108302 0)
(0.958579 0.106806 0)
(0.955168 0.108664 0)
(0.952282 0.109984 0)
(0.951132 0.107229 0)
(0.95475 0.102668 0)
(0.961086 0.0998284 0)
(0.967113 0.101761 0)
(0.974613 0.116265 0)
(0.990415 0.135143 0)
(1.0301 0.133216 0)
(1.0872 0.102359 0)
(1.15631 0.0828459 0)
(1.22948 0.110107 0)
(1.30603 0.167285 0)
(1.40521 0.192106 0)
(1.52184 0.188938 0)
(1.64686 0.167933 0)
(1.77454 0.166276 0)
(1.90145 0.184614 0)
(2.02469 0.201847 0)
(2.13689 0.201359 0)
(2.23668 0.199191 0)
(2.32588 0.210952 0)
(2.40476 0.223327 0)
(2.47122 0.249051 0)
(2.52472 0.235661 0)
(2.57329 0.218478 0)
(2.61473 0.192232 0)
(2.64187 0.219467 0)
(2.66242 0.229379 0)
(2.67759 0.218126 0)
(2.69298 0.193468 0)
(2.70607 0.197884 0)
(2.71672 0.199702 0)
(2.72504 0.19588 0)
(2.72847 0.202669 0)
(2.72638 0.19844 0)
(2.72855 0.190953 0)
(2.73697 0.19326 0)
(2.77666 -1.9695 0)
(2.77724 -1.96992 0)
(2.77796 -1.97001 0)
(2.77844 -1.97056 0)
(2.77941 -1.9703 0)
(2.78016 -1.97051 0)
(2.78096 -1.97068 0)
(2.78178 -1.97068 0)
(2.78258 -1.97065 0)
(2.78341 -1.97058 0)
(2.78441 -1.97032 0)
(2.78507 -1.97066 0)
(2.78579 -1.97091 0)
(2.78659 -1.97093 0)
(2.7873 -1.9711 0)
(2.78823 -1.9709 0)
(2.78883 -1.97132 0)
(2.78982 -1.97095 0)
(2.79041 -1.97113 0)
(2.79107 -1.97105 0)
(2.79187 -1.97058 0)
(2.79257 -1.97016 0)
(2.79261 -1.97069 0)
(2.7932 -1.9705 0)
(2.79355 -1.97079 0)
(2.79345 -1.97182 0)
(2.7947 -1.97057 0)
(2.79396 -1.97203 0)
(2.79468 -1.97093 0)
(2.79532 -1.97214 0)
(2.79443 -1.97376 0)
(2.7949 -1.97296 0)
(2.79446 -1.97394 0)
(2.76063 -1.9047 0)
(2.57125 -1.64493 0)
(2.25532 -1.17707 0)
(1.95964 -0.676587 0)
(1.70279 -0.266322 0)
(1.49009 -0.000555193 0)
(1.38415 0.107903 0)
(1.3329 0.133768 0)
(1.32355 0.1444 0)
(1.31827 0.157511 0)
(1.31807 0.160887 0)
(1.32055 0.157527 0)
(1.31467 0.150822 0)
(1.30573 0.142119 0)
(1.29739 0.142762 0)
(1.28642 0.146595 0)
(1.27489 0.152552 0)
(1.25987 0.153683 0)
(1.24349 0.150294 0)
(1.22702 0.146466 0)
(1.20676 0.146367 0)
(1.184 0.144775 0)
(1.16022 0.140528 0)
(1.13489 0.13469 0)
(1.11137 0.126776 0)
(1.08712 0.121698 0)
(1.06316 0.121095 0)
(1.03962 0.122975 0)
(1.01658 0.124812 0)
(0.995378 0.122341 0)
(0.978742 0.114623 0)
(0.969309 0.10413 0)
(0.964392 0.0962005 0)
(0.962919 0.0936076 0)
(0.959903 0.0932673 0)
(0.953909 0.0952382 0)
(0.948562 0.100816 0)
(0.947644 0.115545 0)
(0.961996 0.119642 0)
(0.990284 0.108703 0)
(1.02367 0.0888152 0)
(1.0609 0.072651 0)
(1.10099 0.105215 0)
(1.159 0.144202 0)
(1.23931 0.159612 0)
(1.33712 0.142147 0)
(1.44578 0.124821 0)
(1.56501 0.140469 0)
(1.68694 0.176517 0)
(1.80984 0.209121 0)
(1.9318 0.20929 0)
(2.04802 0.203095 0)
(2.15868 0.177994 0)
(2.26072 0.183065 0)
(2.35232 0.198258 0)
(2.42921 0.232828 0)
(2.48772 0.227829 0)
(2.53672 0.21045 0)
(2.57865 0.189079 0)
(2.61346 0.210867 0)
(2.64098 0.209831 0)
(2.66354 0.196945 0)
(2.68447 0.183085 0)
(2.6998 0.183173 0)
(2.70406 0.168252 0)
(2.714 0.160355 0)
(2.72681 0.173784 0)
(2.78179 -1.97365 0)
(2.78221 -1.97384 0)
(2.78277 -1.97404 0)
(2.7835 -1.97407 0)
(2.78411 -1.97433 0)
(2.78474 -1.97449 0)
(2.78522 -1.97479 0)
(2.78576 -1.97479 0)
(2.78637 -1.97462 0)
(2.78702 -1.97442 0)
(2.7877 -1.97426 0)
(2.78807 -1.97455 0)
(2.78842 -1.97494 0)
(2.78901 -1.97477 0)
(2.78964 -1.9745 0)
(2.79034 -1.97415 0)
(2.79063 -1.97443 0)
(2.79111 -1.97441 0)
(2.79135 -1.9746 0)
(2.79155 -1.97471 0)
(2.79191 -1.97427 0)
(2.79269 -1.97301 0)
(2.7925 -1.97314 0)
(2.79297 -1.97241 0)
(2.79304 -1.97251 0)
(2.79328 -1.97243 0)
(2.79337 -1.97241 0)
(2.79354 -1.97222 0)
(2.79338 -1.97252 0)
(2.79386 -1.9716 0)
(2.79417 -1.97092 0)
(2.7941 -1.97093 0)
(2.79453 -1.97049 0)
(2.79543 -1.96837 0)
(2.7957 -1.96802 0)
(2.79602 -1.96819 0)
(2.79233 -1.95524 0)
(2.67219 -1.77181 0)
(2.36958 -1.32879 0)
(2.07003 -0.804407 0)
(1.75352 -0.327861 0)
(1.53525 -0.0293705 0)
(1.39373 0.107223 0)
(1.37676 0.133796 0)
(1.36375 0.155671 0)
(1.35256 0.170738 0)
(1.35488 0.164915 0)
(1.36108 0.154861 0)
(1.35562 0.151811 0)
(1.3497 0.155664 0)
(1.33804 0.160633 0)
(1.32268 0.160571 0)
(1.31072 0.167092 0)
(1.29739 0.166548 0)
(1.28452 0.161544 0)
(1.26817 0.15754 0)
(1.24822 0.151847 0)
(1.22783 0.150568 0)
(1.20428 0.151065 0)
(1.17795 0.149382 0)
(1.1496 0.144637 0)
(1.11923 0.135122 0)
(1.09063 0.123336 0)
(1.06276 0.117141 0)
(1.03767 0.118338 0)
(1.01427 0.115983 0)
(0.994627 0.108455 0)
(0.981584 0.0983838 0)
(0.969596 0.0907567 0)
(0.959874 0.0907854 0)
(0.953872 0.0951178 0)
(0.948506 0.10205 0)
(0.950593 0.102126 0)
(0.961489 0.0924097 0)
(0.977624 0.0824766 0)
(0.992355 0.0679508 0)
(1.00722 0.0763122 0)
(1.03024 0.109226 0)
(1.06925 0.136241 0)
(1.1301 0.130193 0)