/*--------------------------------*- C++ -*----------------------------------*\
  =========                 |
  \\      /  F ield         | OpenFOAM: The Open Source CFD Toolbox
   \\    /   O peration     | Website:  https://openfoam.org
    \\  /    A nd           | Version:  7
     \\/     M anipulation  |
\*---------------------------------------------------------------------------*/
FoamFile
{
    version     2.0;
    format      ascii;
    class       volScalarField;
    location    "3";
    object      rho;
}
// * * * * * * * * * * * * * * * * * * * * * * * * * * * * * * * * * * * * * //

dimensions      [1 -3 0 0 0 0 0];

internalField   nonuniform List<scalar> 
90000
(
0.649697
0.68697
0.724149
0.757206
0.78918
0.822602
0.856411
0.890144
0.928141
0.967355
1.00827
1.0507
1.09373
1.13755
1.17843
1.21845
1.25107
1.27947
1.30065
1.31642
1.3274
1.33314
1.332
1.32867
1.32224
1.31369
1.30377
1.294
1.28318
1.27306
1.26812
1.26945
1.27409
1.2841
1.29549
1.3057
1.31345
1.31662
1.31585
1.31396
1.30911
1.30141
1.29621
1.29375
1.2963
1.30172
1.30838
1.31177
1.31111
1.3086
1.30494
1.30124
1.30151
1.30486
1.31019
1.31678
1.31972
1.32043
1.32175
1.32715
1.33816
1.35268
1.36047
1.3644
1.3689
1.3759
1.3825
1.38785
1.39274
1.39728
1.40046
1.40569
1.41051
1.41516
1.42441
1.43718
1.44417
1.44682
1.44822
1.44973
1.45072
1.45068
1.44967
1.44661
1.44117
1.43415
1.42534
1.41518
1.40831
1.40051
1.39138
1.383
1.37867
1.37356
1.36373
1.35239
1.34213
1.33617
1.33248
1.32258
0.617449
0.617508
0.61766
0.61799
0.618647
0.619859
0.621885
0.625066
0.630349
0.63804
0.649673
0.665601
0.688038
0.716649
0.754204
0.799246
0.853524
0.914534
0.975631
1.03271
1.08344
1.12949
1.16716
1.20066
1.22564
1.24531
1.25561
1.26505
1.27042
1.27642
1.27837
1.28303
1.29128
1.29963
1.30737
1.31393
1.31941
1.31994
1.31772
1.311
1.30043
1.29106
1.29194
1.29679
1.30468
1.31058
1.3141
1.31343
1.31077
1.30573
1.30154
1.30177
1.30423
1.31001
1.31742
1.32172
1.32112
1.31963
1.32144
1.32932
1.3438
1.35714
1.36248
1.36597
1.37161
1.37947
1.38571
1.39076
1.39595
1.40007
1.40351
1.40868
1.41244
1.41807
1.42812
1.44059
1.44691
1.4492
1.45069
1.45229
1.45305
1.4529
1.45163
1.44826
1.44282
1.43593
1.42696
1.41741
1.41066
1.4025
1.39338
1.38521
1.381
1.37554
1.36562
1.35387
1.34358
1.33758
1.33339
1.32316
0.617921
0.617968
0.618022
0.618075
0.618128
0.618184
0.618249
0.618321
0.618399
0.618492
0.618611
0.618766
0.61899
0.619383
0.620203
0.621696
0.624805
0.630681
0.641828
0.65907
0.685286
0.719732
0.765652
0.819424
0.883639
0.952158
1.0232
1.09215
1.15431
1.21216
1.25306
1.28215
1.29855
1.30599
1.30802
1.31079
1.31401
1.31344
1.30714
1.29501
1.28932
1.29466
1.30291
1.31065
1.31713
1.31685
1.31513
1.31225
1.30913
1.30673
1.30503
1.30639
1.31125
1.31824
1.32344
1.32347
1.32102
1.32123
1.32488
1.33717
1.35331
1.36191
1.36492
1.36915
1.37667
1.38458
1.38974
1.39454
1.39964
1.40307
1.40669
1.41102
1.41437
1.42061
1.43087
1.44288
1.44866
1.45076
1.45241
1.45402
1.45461
1.45448
1.4531
1.44954
1.44415
1.43729
1.42823
1.41931
1.41247
1.40394
1.39485
1.387
1.38295
1.37689
1.36714
1.3549
1.34449
1.33847
1.33386
1.3234
0.61881
0.618881
0.618954
0.61903
0.619112
0.619204
0.619305
0.619409
0.619515
0.619627
0.61975
0.619886
0.620032
0.620163
0.620255
0.620335
0.62042
0.620521
0.620642
0.620803
0.621049
0.621502
0.622602
0.624947
0.630399
0.641025
0.661616
0.69339
0.742573
0.805145
0.884126
0.966509
1.04309
1.11125
1.16267
1.20635
1.23232
1.25429
1.26772
1.28335
1.29766
1.31462
1.3322
1.33649
1.33104
1.32067
1.31445
1.30998
1.3066
1.30819
1.3123
1.31931
1.32757
1.33092
1.32832
1.32233
1.3194
1.32193
1.33151
1.34768
1.36004
1.36374
1.36688
1.37312
1.383
1.38936
1.39329
1.39812
1.40286
1.40568
1.4092
1.41255
1.4158
1.42233
1.43283
1.44447
1.44982
1.45182
1.45357
1.45521
1.4558
1.45579
1.45446
1.45083
1.44538
1.43842
1.42934
1.42116
1.41398
1.40515
1.39601
1.3886
1.38471
1.37774
1.36817
1.35582
1.34515
1.33913
1.33403
1.32346
0.619914
0.619989
0.62007
0.620155
0.620244
0.620338
0.620436
0.620533
0.620627
0.620721
0.620816
0.620916
0.62102
0.621127
0.621235
0.621344
0.621458
0.621575
0.621699
0.621826
0.621955
0.622124
0.622214
0.622298
0.622394
0.622507
0.62267
0.622946
0.623654
0.625602
0.631617
0.645079
0.672934
0.716254
0.780273
0.858144
0.947851
1.03919
1.1265
1.20461
1.26136
1.28999
1.30851
1.31312
1.32073
1.32069
1.31993
1.31632
1.31066
1.3157
1.32497
1.33379
1.33662
1.33374
1.32692
1.31747
1.31847
1.32586
1.34168
1.35641
1.36386
1.36323
1.36785
1.37904
1.38862
1.39259
1.39594
1.40124
1.40553
1.40811
1.41193
1.4142
1.41677
1.42322
1.43378
1.44531
1.45069
1.45277
1.45461
1.45628
1.45681
1.45688
1.4557
1.45207
1.44656
1.43937
1.43041
1.42294
1.41516
1.40621
1.39717
1.39019
1.38627
1.37853
1.36898
1.35683
1.34561
1.3395
1.33405
1.32347
0.620994
0.621051
0.621116
0.62119
0.621273
0.621358
0.621442
0.621523
0.621601
0.621679
0.621758
0.62184
0.621924
0.622012
0.622101
0.622188
0.622272
0.622354
0.622435
0.622515
0.622597
0.622672
0.622748
0.622837
0.622931
0.623038
0.623149
0.623265
0.623421
0.623497
0.623562
0.623646
0.623806
0.624219
0.625714
0.630366
0.643994
0.671451
0.724286
0.799787
0.900164
1.00027
1.09968
1.16871
1.24183
1.27519
1.30204
1.3059
1.31472
1.32802
1.34114
1.3443
1.34021
1.33358
1.31968
1.3153
1.32066
1.33465
1.35002
1.36134
1.35865
1.36103
1.37007
1.38491
1.39202
1.3941
1.39802
1.40371
1.40645
1.408
1.41093
1.41358
1.41676
1.42315
1.4341
1.44588
1.45151
1.45382
1.45568
1.45718
1.45762
1.45772
1.4567
1.45315
1.44758
1.44019
1.43148
1.42454
1.41611
1.40728
1.3983
1.39179
1.38745
1.37929
1.36968
1.35777
1.34606
1.33957
1.33405
1.32345
0.621818
0.621856
0.621902
0.621958
0.622023
0.622092
0.62216
0.622227
0.622293
0.622356
0.622418
0.622479
0.622542
0.622606
0.622669
0.622733
0.622795
0.622856
0.622918
0.622981
0.623046
0.623113
0.623181
0.62325
0.62332
0.623394
0.62347
0.623554
0.623632
0.623712
0.623792
0.623868
0.623947
0.62405
0.624127
0.624202
0.624298
0.624462
0.625
0.627139
0.635983
0.658954
0.707429
0.787565
0.891694
1.01682
1.13543
1.22237
1.28891
1.31886
1.33128
1.33315
1.33309
1.31976
1.3125
1.32009
1.33531
1.34512
1.35371
1.35243
1.35223
1.36034
1.3786
1.3909
1.39341
1.39366
1.39885
1.40608
1.40768
1.40843
1.4114
1.41388
1.41719
1.4234
1.43446
1.44635
1.45281
1.45568
1.45743
1.45829
1.45848
1.45861
1.45777
1.45437
1.44865
1.44097
1.43254
1.42584
1.41677
1.40824
1.39923
1.39342
1.3883
1.3799
1.37029
1.3585
1.34652
1.33961
1.33416
1.32341
0.622354
0.622378
0.622407
0.622443
0.622487
0.622538
0.622592
0.622648
0.622705
0.62276
0.622814
0.622866
0.622918
0.622971
0.623024
0.623077
0.62313
0.623183
0.623238
0.623294
0.623352
0.623407
0.623462
0.623516
0.623569
0.623625
0.623686
0.623753
0.623828
0.623907
0.62398
0.624046
0.624111
0.624165
0.624223
0.624291
0.624357
0.624424
0.624517
0.624619
0.624708
0.624826
0.625191
0.627221
0.635062
0.664124
0.721972
0.828772
0.959049
1.08345
1.1871
1.23959
1.28237
1.29723
1.31745
1.33736
1.35444
1.35147
1.34813
1.33973
1.34689
1.3674
1.38799
1.39438
1.39126
1.39356
1.4008
1.40538
1.40515
1.40789
1.41183
1.41479
1.41802
1.42388
1.43517
1.44709
1.45233
1.45485
1.45705
1.4586
1.45907
1.45941
1.45877
1.45557
1.44976
1.44174
1.43373
1.42694
1.41739
1.40915
1.40017
1.39499
1.38897
1.38041
1.37098
1.35912
1.34691
1.33977
1.33441
1.32339
0.622656
0.622672
0.622691
0.622713
0.622743
0.622779
0.622821
0.622867
0.622915
0.622966
0.623015
0.623063
0.623109
0.623155
0.623202
0.623251
0.623301
0.623353
0.623406
0.623462
0.623519
0.623573
0.623626
0.623677
0.623727
0.623778
0.623831
0.623886
0.623949
0.624018
0.624084
0.62415
0.624207
0.624256
0.624305
0.624356
0.624407
0.624464
0.62454
0.624612
0.624699
0.624755
0.624806
0.624871
0.62496
0.625108
0.62568
0.629808
0.646622
0.698296
0.791806
0.926039
1.07024
1.19527
1.28734
1.3221
1.33612
1.34391
1.33304
1.33245
1.35016
1.38129
1.39341
1.38904
1.38567
1.39244
1.4014
1.40345
1.40325
1.40828
1.4127
1.41515
1.41761
1.42389
1.43574
1.44773
1.45252
1.45492
1.45741
1.45922
1.45995
1.46047
1.45982
1.45656
1.45061
1.44248
1.43504
1.42779
1.4182
1.40998
1.40128
1.39636
1.38954
1.38091
1.37173
1.3596
1.34738
1.34008
1.33473
1.32335
0.622822
0.622838
0.622854
0.62287
0.622889
0.622914
0.622946
0.622984
0.623027
0.623071
0.623115
0.623158
0.6232
0.623243
0.623286
0.623331
0.623379
0.623431
0.623485
0.623543
0.623603
0.623659
0.623713
0.623765
0.623815
0.623867
0.623919
0.623972
0.624027
0.624081
0.624141
0.624203
0.624251
0.624295
0.624337
0.624375
0.62442
0.624475
0.624532
0.624613
0.624701
0.624748
0.624761
0.624791
0.624865
0.624983
0.62511
0.625165
0.625211
0.625559
0.627928
0.642685
0.68636
0.792104
0.938994
1.08518
1.19672
1.26509
1.29905
1.33107
1.36704
1.39536
1.39471
1.38003
1.38268
1.39578
1.40245
1.40081
1.40214
1.40923
1.41354
1.4152
1.4173
1.42432
1.43678
1.44865
1.45294
1.45528
1.45805
1.45999
1.46103
1.46176
1.46104
1.45763
1.45155
1.44345
1.43645
1.42852
1.4193
1.41077
1.40278
1.39751
1.3901
1.38151
1.37247
1.35997
1.34811
1.34042
1.33505
1.32327
0.622917
0.622937
0.622956
0.622974
0.622992
0.623011
0.623034
0.623062
0.623095
0.623133
0.623173
0.623213
0.623251
0.623288
0.623327
0.623368
0.623414
0.623463
0.623515
0.623574
0.623633
0.623692
0.623748
0.6238
0.62385
0.623903
0.623959
0.624017
0.62407
0.624115
0.624165
0.624223
0.624262
0.624301
0.624341
0.624377
0.624423
0.624473
0.624527
0.624605
0.624705
0.62477
0.624799
0.624817
0.624895
0.625046
0.625132
0.625152
0.625149
0.625228
0.625367
0.625461
0.625702
0.628356
0.644053
0.703628
0.818636
0.982712
1.15628
1.28603
1.34417
1.38454
1.38184
1.36863
1.38897
1.40312
1.40204
1.39746
1.40217
1.41023
1.41327
1.41459
1.41745
1.42601
1.43841
1.44959
1.45339
1.45566
1.45874
1.46094
1.46236
1.46322
1.46228
1.45866
1.45235
1.44444
1.43771
1.42926
1.4206
1.41169
1.40454
1.39842
1.39064
1.38228
1.37322
1.36036
1.34904
1.34073
1.33527
1.32312
0.622974
0.622995
0.623017
0.623039
0.62306
0.623081
0.623101
0.62312
0.623144
0.623174
0.623208
0.623245
0.623282
0.623318
0.623352
0.623388
0.623428
0.623474
0.623526
0.623582
0.623639
0.623697
0.623751
0.623804
0.623855
0.623906
0.623963
0.624027
0.624092
0.624138
0.624181
0.624212
0.624235
0.624273
0.624329
0.624381
0.624431
0.624491
0.624551
0.624619
0.624715
0.624817
0.624882
0.624923
0.624986
0.625105
0.625196
0.625236
0.625236
0.625275
0.625357
0.625406
0.625477
0.625503
0.625572
0.62602
0.630186
0.65656
0.74297
0.909993
1.08949
1.24997
1.32358
1.36645
1.40732
1.40848
1.39834
1.39514
1.40505
1.41129
1.4119
1.41285
1.41851
1.42891
1.44008
1.45043
1.45413
1.4565
1.45995
1.46233
1.46409
1.46494
1.46374
1.45987
1.45333
1.44574
1.43888
1.4302
1.42185
1.41288
1.40628
1.39917
1.39122
1.38325
1.37398
1.3609
1.34993
1.34116
1.33532
1.32284
0.623008
0.623028
0.62305
0.623072
0.623091
0.623111
0.623135
0.623151
0.623167
0.623194
0.62323
0.623268
0.623305
0.623341
0.623375
0.623406
0.623439
0.623475
0.623514
0.623558
0.623608
0.623659
0.623706
0.623761
0.623814
0.623859
0.623912
0.623967
0.623994
0.624012
0.624048
0.624106
0.62419
0.624288
0.624349
0.624391
0.624424
0.624476
0.624536
0.624605
0.624691
0.624796
0.624905
0.62498
0.625044
0.625128
0.625205
0.625252
0.625275
0.6253
0.625392
0.625462
0.625492
0.625506
0.625574
0.625682
0.62572
0.625839
0.627021
0.640948
0.702854
0.856889
1.0966
1.29419
1.38861
1.40412
1.3822
1.39469
1.41108
1.41142
1.40898
1.41131
1.42113
1.43241
1.43968
1.45047
1.45476
1.45756
1.46162
1.4642
1.4662
1.4667
1.4651
1.461
1.45432
1.44709
1.43995
1.43143
1.423
1.41447
1.40779
1.39983
1.39185
1.38438
1.3748
1.36167
1.35073
1.34176
1.33518
1.32246
0.62301
0.623031
0.623064
0.623089
0.623102
0.623119
0.623142
0.623163
0.623186
0.623196
0.623203
0.623219
0.623248
0.623283
0.623306
0.623331
0.623361
0.623388
0.623421
0.623462
0.623513
0.623566
0.623615
0.62367
0.623737
0.623783
0.623826
0.623878
0.623914
0.623949
0.623998
0.624063
0.62414
0.624221
0.624291
0.624367
0.62447
0.624539
0.624585
0.624642
0.624716
0.624799
0.624877
0.624955
0.625061
0.625216
0.625298
0.625346
0.625396
0.625404
0.625456
0.625524
0.625557
0.625569
0.62559
0.625679
0.625801
0.625869
0.626002
0.626158
0.62672
0.634525
0.696814
0.884204
1.13865
1.29706
1.35889
1.4039
1.41719
1.41263
1.40539
1.41226
1.42615
1.43194
1.43818
1.4505
1.4554
1.45895
1.46366
1.46623
1.46823
1.46838
1.46641
1.46227
1.45567
1.44863
1.4411
1.43277
1.42405
1.41615
1.40898
1.40048
1.39259
1.38559
1.37568
1.36267
1.35153
1.34228
1.33495
1.32215
0.622998
0.623025
0.623038
0.623056
0.623075
0.623086
0.623101
0.623123
0.62314
0.623148
0.623155
0.623174
0.6232
0.623227
0.623255
0.623288
0.623333
0.623391
0.623445
0.6235
0.623555
0.623598
0.623642
0.623699
0.623765
0.623804
0.623839
0.623879
0.623918
0.623959
0.624012
0.62408
0.624161
0.624248
0.624334
0.624428
0.624498
0.624547
0.624602
0.624662
0.624721
0.624797
0.624905
0.625018
0.625097
0.62517
0.625224
0.625252
0.625298
0.625402
0.625521
0.625608
0.625667
0.625726
0.625804
0.625818
0.625877
0.626028
0.626136
0.626201
0.626325
0.626421
0.626956
0.638997
0.721852
0.947317
1.21946
1.373
1.4147
1.40117
1.40423
1.41973
1.428
1.42848
1.43759
1.45136
1.45612
1.46078
1.46595
1.46835
1.47003
1.46969
1.46739
1.46368
1.45736
1.45034
1.44253
1.4342
1.42525
1.41772
1.40989
1.40116
1.39353
1.38676
1.37654
1.36379
1.3524
1.34261
1.33459
1.32198
0.622961
0.62298
0.623005
0.62303
0.623047
0.623065
0.623091
0.623113
0.623134
0.623162
0.623202
0.623228
0.62325
0.623282
0.623316
0.623344
0.623376
0.623406
0.623436
0.623473
0.623514
0.62355
0.623588
0.623632
0.623684
0.623728
0.623768
0.623812
0.623862
0.623916
0.623974
0.624041
0.624117
0.624198
0.624269
0.624347
0.624421
0.624477
0.624527
0.624578
0.624637
0.624718
0.624829
0.624969
0.625057
0.625149
0.625225
0.625298
0.625391
0.625471
0.625543
0.625604
0.625662
0.625705
0.625753
0.625898
0.62602
0.626134
0.626208
0.626273
0.626312
0.626374
0.626522
0.626677
0.627741
0.649441
0.789933
1.05589
1.2915
1.36974
1.40977
1.43219
1.42525
1.42446
1.44155
1.45295
1.45666
1.46311
1.46823
1.47117
1.47309
1.47172
1.46894
1.46515
1.4589
1.45178
1.44394
1.43553
1.42662
1.4191
1.41065
1.40194
1.39473
1.38785
1.37737
1.36497
1.35333
1.3429
1.33439
1.32201
0.622924
0.622944
0.622966
0.622989
0.623013
0.623039
0.623067
0.623097
0.623129
0.623161
0.623193
0.623228
0.623262
0.623301
0.623339
0.623369
0.623406
0.623444
0.62347
0.623502
0.623536
0.623568
0.623606
0.62365
0.623699
0.62375
0.623801
0.623851
0.623903
0.623961
0.624024
0.624089
0.624157
0.624231
0.624297
0.62436
0.624436
0.62451
0.62459
0.624679
0.624726
0.624792
0.624889
0.624964
0.625002
0.625066
0.625163
0.625234
0.625304
0.625388
0.625501
0.625674
0.625811
0.625876
0.625914
0.625981
0.626082
0.626177
0.626212
0.626244
0.626353
0.626435
0.626559
0.62671
0.626873
0.627114
0.631093
0.683441
0.893411
1.19301
1.37557
1.42523
1.40843
1.42461
1.45295
1.45545
1.45799
1.46635
1.46932
1.47104
1.47286
1.47211
1.47029
1.46696
1.46084
1.45348
1.44547
1.43686
1.42811
1.42032
1.41149
1.40294
1.39617
1.3889
1.37824
1.36615
1.35429
1.34314
1.3343
1.32222
0.622848
0.62287
0.622892
0.622916
0.62294
0.622963
0.622986
0.62301
0.623034
0.62306
0.623093
0.623132
0.623175
0.62322
0.623268
0.623317
0.623365
0.623417
0.623468
0.623513
0.623553
0.623592
0.623632
0.623676
0.623723
0.623773
0.623826
0.623883
0.623947
0.624017
0.62409
0.624158
0.624221
0.624282
0.624343
0.624408
0.624467
0.624512
0.624569
0.624611
0.624623
0.624662
0.624752
0.624878
0.625026
0.625187
0.625305
0.625362
0.625415
0.625494
0.62558
0.625686
0.62578
0.625878
0.626001
0.626066
0.626124
0.626199
0.626206
0.626229
0.62634
0.626432
0.626553
0.626747
0.627029
0.627324
0.627492
0.627972
0.641215
0.766252
1.04824
1.29369
1.37157
1.43772
1.46271
1.45902
1.46146
1.47047
1.47193
1.47312
1.47424
1.47328
1.47224
1.46893
1.46245
1.45501
1.44686
1.43824
1.42995
1.42182
1.41276
1.40438
1.39778
1.38998
1.3793
1.36748
1.35531
1.34331
1.33441
1.32278
0.622907
0.622933
0.62296
0.622985
0.623011
0.623039
0.623066
0.623094
0.623125
0.62316
0.623197
0.623236
0.623283
0.623332
0.623359
0.623384
0.623421
0.623462
0.623492
0.623523
0.62355
0.623573
0.623605
0.623645
0.62369
0.623736
0.623787
0.623849
0.623919
0.623992
0.624066
0.624133
0.624192
0.624248
0.624306
0.624345
0.62439
0.624461
0.624576
0.624663
0.624694
0.62471
0.624776
0.624892
0.625018
0.625138
0.625253
0.625405
0.625543
0.62562
0.625699
0.625785
0.625844
0.625883
0.625944
0.625969
0.626009
0.626104
0.626159
0.626244
0.626399
0.626598
0.6268
0.627059
0.627361
0.627585
0.627646
0.627695
0.627764
0.630474
0.680468
0.905141
1.20872
1.39866
1.45295
1.44658
1.4711
1.47563
1.47334
1.47537
1.4758
1.47456
1.47415
1.47076
1.46389
1.45643
1.4481
1.43954
1.43186
1.42351
1.41452
1.40642
1.39959
1.39111
1.38065
1.36912
1.35629
1.34347
1.3349
1.32342
0.622768
0.622796
0.622823
0.622852
0.622883
0.622915
0.622948
0.622983
0.623021
0.62306
0.623101
0.623143
0.62319
0.623241
0.623291
0.623339
0.623386
0.62343
0.623471
0.623513
0.623568
0.623645
0.623733
0.623803
0.623857
0.62391
0.623959
0.624009
0.624062
0.624117
0.624175
0.624241
0.624309
0.624363
0.62439
0.624384
0.624404
0.624476
0.624567
0.624646
0.624736
0.624832
0.624927
0.625037
0.625172
0.62529
0.625377
0.62544
0.625494
0.625557
0.625631
0.625728
0.625823
0.625914
0.625959
0.62596
0.626032
0.62617
0.626225
0.626294
0.626436
0.62663
0.626918
0.627288
0.627627
0.627748
0.627709
0.627692
0.627695
0.627821
0.628398
0.644368
0.785675
1.08102
1.3181
1.41587
1.48318
1.48035
1.47574
1.47815
1.4777
1.47648
1.47581
1.4717
1.46497
1.45793
1.4495
1.44122
1.43412
1.42562
1.41676
1.40886
1.40144
1.39232
1.38237
1.37113
1.35717
1.3437
1.33556
1.32409
0.622706
0.622736
0.622767
0.622801
0.622838
0.622876
0.622916
0.622958
0.623
0.623045
0.62309
0.623136
0.623185
0.623238
0.623291
0.623343
0.623394
0.623455
0.62352
0.623573
0.623615
0.623653
0.623695
0.623741
0.623787
0.623842
0.623884
0.623925
0.623979
0.624038
0.624101
0.624163
0.624235
0.624333
0.62441
0.624439
0.624474
0.62455
0.624667
0.624737
0.624797
0.62489
0.624973
0.625056
0.625156
0.625256
0.625356
0.625478
0.625598
0.625675
0.625744
0.625785
0.625784
0.625826
0.625872
0.625883
0.62596
0.626112
0.626258
0.62642
0.626658
0.626964
0.627255
0.627585
0.627831
0.627839
0.627761
0.627709
0.627699
0.627825
0.628197
0.629017
0.634286
0.695883
0.937957
1.25259
1.44807
1.46929
1.47193
1.48361
1.48156
1.48032
1.47833
1.47282
1.46665
1.46001
1.45114
1.44317
1.43643
1.42787
1.41909
1.41127
1.40315
1.39369
1.38447
1.37326
1.35783
1.34401
1.33623
1.32467
0.622641
0.62267
0.622703
0.622738
0.622775
0.622815
0.622858
0.622903
0.62295
0.623
0.623051
0.623102
0.623157
0.623211
0.623263
0.623315
0.623365
0.623415
0.623465
0.623519
0.623574
0.62363
0.623687
0.623742
0.623801
0.623858
0.623903
0.623953
0.624019
0.624097
0.624181
0.624292
0.624377
0.624407
0.624412
0.62445
0.624525
0.624628
0.62471
0.624762
0.624802
0.62487
0.62497
0.625096
0.625229
0.625341
0.625432
0.625511
0.625582
0.625656
0.625719
0.625733
0.625713
0.625781
0.625942
0.626035
0.626079
0.626207
0.626384
0.626545
0.626811
0.627147
0.627419
0.627749
0.627858
0.627839
0.627791
0.627824
0.627875
0.62796
0.628343
0.628987
0.630686
0.635389
0.662666
0.824181
1.14535
1.35395
1.45102
1.48595
1.47883
1.48054
1.47832
1.47366
1.46892
1.46266
1.45334
1.44582
1.4387
1.42971
1.42108
1.4133
1.40457
1.39538
1.38684
1.37517
1.35822
1.34451
1.33694
1.32525
0.62258
0.622607
0.622636
0.622666
0.622699
0.622733
0.622771
0.622811
0.622854
0.622901
0.622946
0.622991
0.623038
0.623084
0.623129
0.623179
0.62323
0.623283
0.623333
0.623378
0.623426
0.62347
0.623514
0.623578
0.623617
0.62363
0.623664
0.623737
0.623837
0.623946
0.624065
0.624185
0.624303
0.624374
0.624416
0.624481
0.624578
0.62471
0.624819
0.624868
0.624908
0.624991
0.625115
0.625254
0.625387
0.62549
0.625586
0.625679
0.625742
0.625782
0.625809
0.625789
0.62574
0.625813
0.625916
0.625968
0.626082
0.626326
0.62663
0.626914
0.62721
0.627427
0.62756
0.627583
0.627633
0.627704
0.627712
0.627817
0.628075
0.628379
0.628765
0.629241
0.630173
0.632881
0.642097
0.662727
0.753387
1.02447
1.32519
1.45955
1.46643
1.48492
1.48259
1.47697
1.4729
1.46623
1.45623
1.44888
1.44084
1.43133
1.42294
1.41505
1.40583
1.39759
1.38941
1.37655
1.35849
1.34536
1.33782
1.3259
0.622526
0.62255
0.622576
0.622595
0.622614
0.622639
0.622658
0.622684
0.622722
0.622772
0.62282
0.622858
0.622894
0.622935
0.622971
0.623009
0.623054
0.623099
0.623143
0.623191
0.62324
0.623291
0.623344
0.623412
0.623473
0.623517
0.62358
0.623671
0.623781
0.623897
0.624008
0.624138
0.624315
0.624392
0.624415
0.62447
0.624572
0.624705
0.624854
0.624934
0.625002
0.625092
0.625204
0.625324
0.625425
0.625522
0.625621
0.625679
0.625717
0.625781
0.625806
0.625801
0.625905
0.626128
0.626238
0.62628
0.626387
0.626622
0.626912
0.62718
0.627329
0.627444
0.627485
0.627434
0.6275
0.627698
0.627803
0.627944
0.628266
0.62877
0.629174
0.629409
0.629795
0.631395
0.636909
0.653086
0.676415
0.731772
0.922552
1.23904
1.40139
1.48382
1.48162
1.47993
1.47679
1.46927
1.45956
1.45259
1.44299
1.43281
1.42475
1.41668
1.40737
1.40037
1.39186
1.37745
1.35922
1.34644
1.33872
1.32658
0.622406
0.622436
0.62246
0.62246
0.622456
0.62247
0.622473
0.622475
0.622502
0.622552
0.622614
0.622663
0.622707
0.622754
0.622803
0.622852
0.622904
0.622961
0.623021
0.623085
0.62315
0.623203
0.623242
0.623277
0.623317
0.623382
0.62351
0.623693
0.623862
0.623999
0.624121
0.624226
0.62432
0.624403
0.624472
0.624566
0.624699
0.624865
0.625055
0.625149
0.625153
0.625145
0.625232
0.62532
0.625361
0.625423
0.625519
0.625597
0.62565
0.625704
0.625779
0.625848
0.625956
0.62614
0.62639
0.626616
0.626795
0.626997
0.627228
0.627319
0.627372
0.627442
0.62749
0.627471
0.627496
0.627747
0.628053
0.628406
0.628769
0.629126
0.629373
0.629342
0.629466
0.630405
0.633757
0.644545
0.668218
0.69499
0.724781
0.846908
1.15035
1.42103
1.46228
1.48311
1.48218
1.47271
1.46394
1.45681
1.44543
1.43519
1.42744
1.41862
1.40982
1.40366
1.39394
1.3779
1.36037
1.34759
1.33943
1.32717
0.622219
0.622266
0.622302
0.622307
0.622301
0.622308
0.622314
0.622324
0.622358
0.622413
0.622471
0.622525
0.622576
0.622632
0.622692
0.622753
0.622812
0.622874
0.622944
0.623024
0.623118
0.623238
0.623311
0.62333
0.623358
0.623414
0.623507
0.62365
0.623798
0.62393
0.624081
0.62424
0.624412
0.624547
0.624598
0.624654
0.624749
0.624891
0.625071
0.6252
0.625232
0.625174
0.625197
0.625288
0.625345
0.625433
0.625564
0.625706
0.625811
0.625855
0.6259
0.626042
0.626347
0.626592
0.626706
0.626856
0.626978
0.627121
0.627191
0.627234
0.627293
0.62732
0.627381
0.627505
0.627657
0.627944
0.628488
0.629014
0.629261
0.629326
0.629283
0.629195
0.629285
0.629944
0.632139
0.638609
0.65657
0.68553
0.709497
0.724611
0.805704
1.08237
1.33801
1.46531
1.48248
1.47258
1.46738
1.46008
1.44724
1.43822
1.43094
1.42136
1.41347
1.40709
1.3955
1.37835
1.36152
1.34842
1.33976
1.32772
0.622138
0.622167
0.622199
0.622242
0.622277
0.622287
0.622288
0.622302
0.62234
0.622394
0.622453
0.622516
0.622583
0.622652
0.622718
0.62278
0.622842
0.622902
0.622966
0.623047
0.623131
0.623213
0.623263
0.623289
0.623342
0.623433
0.623562
0.623739
0.623924
0.624087
0.624252
0.624343
0.624391
0.624462
0.624559
0.624667
0.624828
0.624879
0.624868
0.624908
0.624976
0.624977
0.625062
0.625095
0.62512
0.625244
0.625449
0.62562
0.625772
0.62597
0.626176
0.62638
0.626698
0.62706
0.627176
0.627193
0.627227
0.627201
0.627086
0.627155
0.627363
0.627411
0.62744
0.627641
0.628001
0.628531
0.629123
0.629476
0.62945
0.629247
0.629023
0.628986
0.62919
0.629825
0.631455
0.635757
0.647049
0.670873
0.699856
0.718236
0.726382
0.771474
1.01433
1.33441
1.46169
1.46391
1.47308
1.46393
1.44996
1.44303
1.43587
1.42536
1.41792
1.41017
1.39602
1.37886
1.36307
1.34899
1.33974
1.32831
0.622112
0.622144
0.622179
0.622211
0.622234
0.62226
0.622293
0.622331
0.622376
0.622426
0.622479
0.622546
0.622621
0.622689
0.622764
0.622844
0.622919
0.622994
0.623076
0.623172
0.623282
0.623408
0.623458
0.623453
0.623473
0.623551
0.623685
0.623854
0.624032
0.624178
0.624276
0.62432
0.624342
0.624374
0.624432
0.624488
0.624549
0.624624
0.624719
0.62486
0.624909
0.624914
0.625039
0.625095
0.625124
0.625271
0.625582
0.626019
0.626221
0.626352
0.626548
0.626743
0.627045
0.627241
0.62725
0.627147
0.627103
0.627124
0.627091
0.627144
0.627328
0.627522
0.627792
0.628202
0.628694
0.629264
0.629596
0.62963
0.629459
0.629108
0.628916
0.628908
0.629136
0.629852
0.631335
0.634348
0.641345
0.657452
0.685137
0.710992
0.723635
0.727289
0.758382
0.948235
1.28297
1.42738
1.47855
1.46464
1.45588
1.44907
1.43964
1.42882
1.42213
1.41254
1.39601
1.37976
1.36497
1.34954
1.33969
1.32895
0.622248
0.622294
0.622335
0.622375
0.622417
0.622462
0.622518
0.62257
0.622615
0.622661
0.622705
0.622768
0.622847
0.622891
0.622934
0.622986
0.623046
0.62312
0.623187
0.623255
0.623345
0.623444
0.623495
0.623507
0.623476
0.623463
0.62351
0.623614
0.623668
0.623733
0.62383
0.62388
0.623908
0.623947
0.624048
0.624182
0.624271
0.624371
0.624543
0.624859
0.625055
0.625121
0.625252
0.625338
0.625359
0.625512
0.625923
0.626505
0.626713
0.626801
0.626946
0.627031
0.627002
0.627055
0.62717
0.62714
0.626996
0.627053
0.627178
0.627332
0.627579
0.627976
0.628554
0.628984
0.629319
0.629604
0.629733
0.629568
0.629227
0.628951
0.628994
0.629103
0.629487
0.630338
0.631652
0.633823
0.638056
0.648007
0.669307
0.697924
0.720117
0.726779
0.728903
0.745834
0.906019
1.23862
1.44552
1.45558
1.46265
1.4575
1.44274
1.43214
1.4258
1.4137
1.39613
1.38219
1.36694
1.34999
1.34001
1.32974
0.622484
0.62255
0.622581
0.622596
0.622617
0.622638
0.622667
0.622714
0.622739
0.622749
0.622771
0.62282
0.622886
0.622918
0.622955
0.622975
0.622971
0.622931
0.622921
0.622919
0.622909
0.622932
0.622919
0.622913
0.622962
0.622964
0.622967
0.623041
0.623187
0.623351
0.623544
0.623705
0.623756
0.623798
0.623883
0.624086
0.624232
0.624313
0.624502
0.624795
0.625173
0.625587
0.625779
0.625825
0.625789
0.625869
0.626214
0.626618
0.626804
0.626918
0.626917
0.626874
0.626764
0.626802
0.627068
0.627144
0.62706
0.627087
0.627293
0.627688
0.628268
0.628939
0.629489
0.629601
0.629664
0.629563
0.629364
0.629189
0.629048
0.629115
0.629175
0.629425
0.630118
0.631166
0.632292
0.633625
0.636189
0.642219
0.656304
0.681735
0.709247
0.724787
0.728948
0.730685
0.741717
0.871563
1.19335
1.37957
1.4649
1.45927
1.44376
1.43674
1.42924
1.41368
1.39696
1.38531
1.36818
1.34984
1.34063
1.33048
0.622529
0.622511
0.622516
0.622519
0.622518
0.622511
0.622487
0.62245
0.622445
0.622455
0.622462
0.622464
0.622456
0.622453
0.622457
0.622455
0.622449
0.622446
0.622445
0.622462
0.622499
0.622539
0.622578
0.622629
0.622662
0.622686
0.622739
0.622843
0.622998
0.623198
0.623419
0.623634
0.623832
0.623952
0.624059
0.624316
0.624557
0.624647
0.62489
0.625254
0.625633
0.626031
0.626191
0.626226
0.62619
0.626133
0.626122
0.626282
0.626541
0.626646
0.626682
0.62672
0.626744
0.626829
0.627044
0.627115
0.627297
0.627692
0.628084
0.628528
0.629122
0.629744
0.629868
0.629798
0.629539
0.629046
0.628998
0.629088
0.629308
0.629601
0.629889
0.630358
0.631079
0.631809
0.632454
0.633331
0.635102
0.63909
0.648002
0.66601
0.693753
0.717066
0.727426
0.73103
0.733028
0.741212
0.832491
1.12928
1.39841
1.44749
1.44341
1.44312
1.43346
1.414
1.40052
1.38794
1.36813
1.35001
1.34174
1.33131
0.621832
0.621843
0.62185
0.621833
0.621829
0.621833
0.621824
0.621831
0.621865
0.621881
0.621871
0.621906
0.621954
0.621982
0.622054
0.622108
0.622115
0.622115
0.622171
0.622249
0.622318
0.622378
0.622446
0.622531
0.622593
0.622651
0.622741
0.622878
0.623067
0.62332
0.62361
0.623881
0.62412
0.624304
0.624478
0.624772
0.625105
0.625178
0.62528
0.625587
0.625923
0.626107
0.626128
0.626057
0.626046
0.626086
0.625943
0.62591
0.626074
0.626329
0.626464
0.626606
0.626806
0.627013
0.627194
0.627472
0.628049
0.628932
0.62925
0.629413
0.629716
0.629685
0.629544
0.629353
0.62907
0.628858
0.628935
0.629337
0.629858
0.630289
0.630864
0.631489
0.631996
0.632085
0.632294
0.632982
0.634538
0.637708
0.643729
0.655227
0.677089
0.704455
0.722287
0.730891
0.733191
0.735182
0.739956
0.810468
1.06887
1.32595
1.42354
1.45004
1.43479
1.41519
1.40527
1.38942
1.36715
1.35072
1.34342
1.33233
0.621736
0.62176
0.621768
0.621737
0.621754
0.621777
0.621761
0.621788
0.621873
0.62188
0.62189
0.621957
0.62203
0.622103
0.622247
0.622363
0.622368
0.622401
0.622555
0.6227
0.622771
0.622878
0.623063
0.623277
0.623493
0.62369
0.623871
0.624105
0.624277
0.624439
0.624693
0.62502
0.625273
0.625384
0.625447
0.625506
0.625522
0.62551
0.625485
0.625444
0.625362
0.625363
0.625512
0.625654
0.625627
0.625646
0.625713
0.625776
0.626106
0.626624
0.626865
0.626984
0.627154
0.627625
0.628402
0.628941
0.629365
0.629724
0.629795
0.629737
0.629423
0.629146
0.629209
0.629193
0.629106
0.629067
0.629374
0.630038
0.630908
0.631706
0.632216
0.632386
0.632307
0.632051
0.632172
0.632853
0.634465
0.637313
0.641901
0.64977
0.663736
0.686578
0.710764
0.725271
0.73327
0.735321
0.73728
0.741263
0.784257
1.0053
1.29796
1.42652
1.42601
1.41969
1.41075
1.38959
1.36429
1.35186
1.34537
1.33295
0.622774
0.622812
0.622861
0.622948
0.622999
0.622999
0.623033
0.623143
0.623286
0.623402
0.623534
0.62371
0.623871
0.624067
0.624375
0.62453
0.624684
0.624982
0.625053
0.625041
0.625209
0.625602
0.625669
0.625763
0.625958
0.625994
0.625944
0.625934
0.625967
0.625911
0.625959
0.626166
0.626296
0.626295
0.626228
0.626068
0.625753
0.625439
0.625349
0.625249
0.625112
0.625195
0.625345
0.625514
0.625853
0.626197
0.626526
0.626946
0.627477
0.628022
0.628443
0.628747
0.628926
0.629279
0.629772
0.629967
0.629972
0.629817
0.629619
0.629468
0.629204
0.629077
0.629287
0.629516
0.629732
0.630169
0.630996
0.632011
0.632735
0.633126
0.632955
0.632661
0.632175
0.632147
0.632427
0.633395
0.635292
0.637864
0.641378
0.646898
0.655998
0.670721
0.693132
0.714985
0.727954
0.734988
0.737303
0.739612
0.742882
0.77074
0.939429
1.22814
1.37175
1.42355
1.41445
1.38644
1.36358
1.35567
1.34749
1.33293
0.62635
0.626326
0.626321
0.626302
0.626276
0.626281
0.626358
0.626364
0.626374
0.626455
0.626594
0.626727
0.626857
0.626984
0.627052
0.627094
0.627144
0.627124
0.62706
0.627053
0.627156
0.627265
0.627285
0.627437
0.627493
0.627486
0.627426
0.627164
0.626738
0.626669
0.626836