/*--------------------------------*- C++ -*----------------------------------*\
  =========                 |
  \\      /  F ield         | OpenFOAM: The Open Source CFD Toolbox
   \\    /   O peration     | Website:  https://openfoam.org
    \\  /    A nd           | Version:  7
     \\/     M anipulation  |
\*---------------------------------------------------------------------------*/
FoamFile
{
    version     2.0;
    format      ascii;
    class       volScalarField;
    location    "2.9";
    object      p;
}
// * * * * * * * * * * * * * * * * * * * * * * * * * * * * * * * * * * * * * //

dimensions      [1 -1 -2 0 0 0 0];

internalField   nonuniform List<scalar> 
1750
(
0.26974
0.424927
0.55878
0.66714
0.778027
0.780482
0.733014
0.699043
0.738856
0.87627
0.101975
0.143946
0.249171
0.410823
0.492002
0.57734
0.633484
0.658913
0.752244
0.89593
0.100916
0.112307
0.106804
0.113497
0.127531
0.166817
0.28808
0.405321
0.549373
0.826746
0.124617
0.126938
0.126758
0.118623
0.115555
0.118848
0.128718
0.143657
0.184395
0.540708
0.160097
0.163932
0.177442
0.181939
0.177271
0.174878
0.181652
0.195715
0.196591
0.263702
0.269214
0.271084
0.28283
0.283906
0.277101
0.266809
0.260111
0.251863
0.235207
0.240407
0.43817
0.415631
0.406636
0.396067
0.376294
0.356036
0.342452
0.327706
0.316053
0.314588
0.675621
0.622559
0.584412
0.55998
0.528176
0.487038
0.462037
0.440643
0.415853
0.40424
1.0057
0.926858
0.84969
0.787707
0.739888
0.679737
0.62378
0.585744
0.538135
0.495065
1.55164
1.42207
1.30651
1.18074
1.08123
0.991446
0.882727
0.815716
0.759819
0.690786
1.92433
1.8551
1.77209
1.6725
1.56156
1.45369
1.3265
1.20782
1.12233
1.00476
1.87651
1.84966
1.80813
1.76763
1.72223
1.66682
1.58887
1.50383
1.44025
1.33049
1.42727
1.49837
1.54733
1.58539
1.59795
1.59122
1.56534
1.51302
1.46205
1.37421
1.04594
1.07209
1.10719
1.14927
1.19374
1.23688
1.27722
1.29343
1.29295
1.26613
1.00089
1.00177
1.0035
1.00664
1.01193
1.0198
1.03149
1.04505
1.05607
1.06027
0.122794
0.0956959
0.0878507
0.122531
0.176212
0.29516
0.484592
0.715543
1.09477
1.69363
1.97698
1.87925
1.34848
1.02856
1.00051
0.136741
0.0958031
0.0887112
0.145843
0.221939
0.359995
0.554956
0.820568
1.29332
1.88234
2.0307
1.8114
1.23693
1.01286
1.00018
0.157141
0.101558
0.0935949
0.161581
0.243249
0.389725
0.614086
0.958446
1.49551
2.02068
2.06644
1.7345
1.15528
1.00592
1.00007
0.166796
0.104013
0.0927333
0.1609
0.254195
0.440681
0.756759
1.17094
1.72254
2.13209
2.09292
1.60732
1.08292
1.00217
1.00002
0.165187
0.101008
0.0843357
0.150262
0.287768
0.583694
0.943977
1.37145
1.96314
2.22022
2.10363
1.43098
1.03787
1.00076
1.00001
0.147388
0.0919828
0.0799235
0.187098
0.441538
0.746419
1.09071
1.60411
2.19835
2.28041
1.95323
1.25959
1.01434
1.00022
1
0.113026
0.0865804
0.104578
0.31157
0.577692
0.868268
1.28639
1.93663
2.35064
2.31031
1.76318
1.13068
1.00465
1.00006
1
0.076994
0.0892701
0.196937
0.414487
0.676369
1.05462
1.64793
2.2492
2.41951
2.27629
1.51765
1.04867
1.00115
1.00001
1
0.0608329
0.129739
0.267061
0.485715
0.848858
1.43144
2.04546
2.47861
2.46032
2.03131
1.26318
1.01493
1.00026
1
1
0.0548602
0.164536
0.32813
0.637682
1.24809
1.83142
2.39631
2.60909
2.4968
1.75856
1.10703
1.00381
1.00006
1
1
0.0447646
0.19449
0.471051
1.05423
1.67282
2.20215
2.66417
2.65294
2.27351
1.36649
1.02575
1.00057
1.00001
1
1
0.0268826
0.295698
0.86305
1.53381
2.0996
2.55954
2.7631
2.64092
1.79826
1.11696
1.0048
1.00009
1
1
1
0.0690227
0.626266
1.41244
2.02776
2.55465
2.76646
2.78177
2.22689
1.33485
1.02594
1.00065
1.00001
1
1
1
0.386412
1.26312
2.03013
2.51097
2.84464
2.83796
2.57278
1.68091
1.09114
1.00354
1.00006
1
1
1
1
1.31854
2.16236
2.59161
2.79439
2.91416
2.8496
2.05782
1.18476
1.00743
1.00013
1
1
1
1
1
2.89834
2.85055
2.80613
2.86486
2.92239
2.43824
1.27653
0.98849
0.998667
0.999976
1
1
1
1
1
2.89755
2.85069
2.79167
2.84369
2.8697
2.14669
1.19962
1.00613
1.00006
1
1
1
1
1
1
2.8111
2.86856
2.90425
2.89562
2.81067
1.70335
1.03377
1.00013
1
1
1
1
1
1
1
2.75017
2.88158
3.02932
2.92357
2.4203
1.26194
1.0048
1.00002
1
1
1
1
1
1
1
2.72855
2.90516
3.09623
2.85803
1.91911
1.07787
1.0005
1
1
1
1
1
1
1
1
2.76965
2.96649
3.14088
2.66237
1.43188
1.01111
1.00003
1
1
1
1
1
1
1
1
2.92858
3.01165
3.15189
2.14896
1.10724
1.0008
1
1
1
1
1
1
1
1
1
3.24912
3.0208
2.76411
1.48936
1.01549
1.00004
1
1
1
1
1
1
1
1
1
3.59604
2.84372
2.14683
1.1293
1.00106
1
1
1
1
1
1
1
1
1
1
3.76738
2.60256
1.49495
1.0158
1.00005
1
1
1
1
1
1
1
1
1
1
3.68935
2.1196
1.16172
1.00196
1
1
1
1
1
1
1
1
1
1
1
3.21525
1.64693
1.0384
1.0002
1
1
1
1
1
1
1
1
1
1
1
2.64534
1.29506
1.00713
1.00002
1
1
1
1
1
1
1
1
1
1
1
1.98249
1.10044
1.00098
1
1
1
1
1
1
1
1
1
1
1
1
1.3923
1.01613
1.00006
1
1
1
1
1
1
1
1
1
1
1
1
1
1
1
1
1
1
1
1
1
1
1
1
1
1
1
1
1
1
1
1
1
1
1
1
1
1
1
1
1
1
1
1
1
1
1
1
1
1
1
1
1
1
1
1
1
1
1
1
1
1
1
1
1
1
1
1
1
1
1
1
1
1
1
1
1
1
1
1
1
1
1
1
1
1
1
1
1
1
1
1
1
1
1
1
1
1
1
1
1
1
1
1
1
1
1
1
1
1
1
1
1
1
1
1
1
1
1
1
1
1
1
1
1
1
1
1
1
1
1
1
1
1
1
1
1
1
1
1
1
1
1
1
1
1
1
1
1
1
1
1
1
1
1
1
1
1
1
1
1
1
1
1
1
1
1
1
1
1
1
1
1
1
1
1
1
1
1
1
1
1
1
1
1
1
1
1
1
1
1
1
1
1
1
1
1
1
1
1
1
1
1
1
1
1
1
1
1
1
1
1
1
1
1
1
1
1
1
1
1
1
1
1
1
1
1
1
1
1
1
1
1
1
1
1
1
1
1
1
1
1
1
1
1
1
1
1
1
1
1
1
1
1
1
1
1
1
1
1
1
1
1
1
1
1
1
1
1
1
1
1
1
1
1
1
1
1
1
1
1
1
1
1
1
1
1
1
1
1
1
1
1
1
1
1
1
1
1
1
1
1
1
1
1
1
1
1
1
1
1
1
1
1
1
1
1
1
1
1
1
1
1
1
1
1
1
1
1
1
1
1
1
1
1
1
1
1
1
1
1
1
1
1
1
1
1
1
1
1
1
1
1
1
1
1
1
1
1
1
1
1
1.78874
1.01388
1
1
1
1
1
1
1
1
1
1
1
1
1
1
1
1
1
1
3.04935
1.23012
0.999366
1
1
1
1
1
1
1
1
1
1
1
1
1
1
1
1
1
4.70015
1.88615
1.01409
0.999957
1
1
1
1
1
1
1
1
1
1
1
1
1
1
1
1
5.56498
3.26003
1.44788
1.00071
1
1
1
1
1
1
1
1
1
1
1
1
1
1
1
1
5.28212
4.2109
3.06122
1.23295
0.99968
0.999999
1
1
1
1
1
1
1
1
1
1
1
1
1
1
4.50344
4.26349
4.1747
2.50737
1.11574
0.999762
0.999998
1
1
1
1
1
1
1
1
1
1
1
1
1
3.90489
4.09291
4.41524
4.0078
1.92206
1.01868
0.999951
0.999998
1
1
1
1
1
1
1
1
1
1
1
1
3.88119
4.03822
4.29802
4.17179
3.29107
1.42257
1.0016
1
1
1
1
1
1
1
1
1
1
1
1
1
3.92017
4.00064
4.11033
4.07093
3.88879
2.47789
1.11738
0.999922
0.999998
1
1
1
1
1
1
1
1
1
1
1
3.99853
3.99278
3.98147
4.0555
4.14915
3.61851
1.68037
1.00946
0.999979
0.999999
1
1
1
1
1
1
1
1
1
1
4.01379
4.01532
4.03027
4.08554
4.13139
3.91846
2.75634
1.2184
1.00046
1
1
1
1
1
1
1
1
1
1
1
4.02576
4.0487
4.07218
4.08481
4.06242
3.96959
3.59702
1.88869
1.0277
0.999981
1
1
1
1
1
1
1
1
1
1
4.03785
4.06093
4.06967
4.0521
4.00221
4.02285
4.02191
3.01788
1.28069
1.00113
0.999999
1
1
1
1
1
1
1
1
1
4.04709
4.05667
4.05319
4.02708
4.00428
4.04102
4.06291
3.61058
2.07069
1.07555
1.00081
1
1
1
1
1
1
1
1
1
4.06422
4.06002
4.03971
4.01816
4.01499
4.02492
4.02911
3.74704
2.83697
1.15567
0.987568
0.999098
0.999991
1
1
1
1
1
1
1
1.51647
2.69456
3.33781
3.67407
3.84903
3.9364
3.99554
3.92127
3.84559
2.5713
1.29263
1.01588
1.00034
1
1
1
1
1
1
1
0.266907
1.37792
2.2455
2.82468
3.27535
3.58772
3.80894
3.9041
3.90262
3.57097
2.33644
1.2366
1.01273
1.00026
1
1
1
1
1
1
0.084558
0.601586
1.31863
1.95095
2.48291
2.9579
3.35832
3.66269
3.81646
3.75002
3.33355
2.00421
1.13182
1.00507
1.00008
1
1
1
1
1
0.0980163
0.3061
0.671959
1.24096
1.78761
2.28704
2.78014
3.21278
3.53124
3.68047
3.58826
2.95245
1.62681
1.05294
1.00137
1.00002
1
1
1
1
0.199598
0.289485
0.385091
0.67382
1.15892
1.66379
2.1681
2.65739
3.10575
3.45157
3.52093
3.37514
2.42218
1.29529
1.01409
1.00023
1
1
1
1
0.301784
0.269225
0.301917
0.486976
0.767078
1.16841
1.58971
2.07816
2.56785
3.03003
3.36687
3.33863
2.98711
1.8094
1.08877
1.0023
1.00003
1
1
1
0.329185
0.231979
0.228354
0.409724
0.614572
0.894875
1.23182
1.65915
2.09963
2.54914
3.02694
3.27781
3.21543
2.44324
1.33173
1.01719
1.00027
1
1
1
0.308044
0.208244
0.172574
0.297191
0.463942
0.712502
0.99294
1.36514
1.78951
2.17893
2.61794
3.08913
3.17168
2.89063
1.77255
1.08255
1.00188
1.00002
1
1
0.276211
0.206989
0.177632
0.233458
0.329075
0.5198
0.760615
1.07285
1.46977
1.85015
2.27529
2.77188
3.05531
2.98708
2.32081
1.26886
1.01155
1.00014
1
1
0.254763
0.216619
0.2139
0.243694
0.298664
0.42772
0.58839
0.846851
1.15063
1.48831
1.91032
2.40922
2.87327
2.93799
2.60436
1.58592
1.04587
1.00077
1.00001
1
0.246109
0.234787
0.262023
0.250011
0.272827
0.393628
0.542447
0.745453
0.993999
1.27559
1.59262
2.03778
2.59877
2.85762
2.73865
1.96875
1.13608
1.00352
1.00003
1
0.243716
0.249283
0.262632
0.234747
0.236629
0.347752
0.479439
0.665356
0.896003
1.15015
1.4408
1.79852
2.29467
2.74065
2.71766
2.2064
1.30121
1.01332
1.00015
1
0.247189
0.254342
0.249765
0.21206
0.205097
0.274339
0.374988
0.538471
0.763231
1.0119
1.29954
1.6209
2.05615
2.5657
2.68066
2.40331
1.51089
1.0394
1.0006
1
0.248405
0.25468
0.242252
0.208417
0.202165
0.246917
0.316897
0.436524
0.603791
0.818582
1.10718
1.4017
1.80627
2.33275
2.61112
2.51981
1.78463
1.09782
1.00219
1.00002
0.240309
0.246705
0.240296
0.21238
0.20494
0.24822
0.298167
0.399284
0.528916
0.699553
0.93417
1.2139
1.54589
2.04096
2.48956
2.49436
2.03917
1.21979
1.00848
1.00009
0.322536
0.236436
0.232103
0.217341
0.224853
0.261151
0.29756
0.40711
0.527567
0.684807
0.894318
1.14333
1.43114
1.85654
2.35465
2.42216
2.11984
1.34958
1.01893
1.0002
0.420901
0.26076
0.232294
0.225657
0.234554
0.254722
0.279134
0.395675
0.510064
0.66051
0.852862
1.07157
1.3426
1.71164
2.20546
2.33916
2.1697
1.47164
1.03824
1.00051
0.489362
0.308592
0.23886
0.222378
0.231035
0.236217
0.255898
0.367351
0.466818
0.593655
0.783463
0.98054
1.21738
1.55733
2.04139
2.27982
2.19374
1.61117
1.07176
1.00136
0.562633
0.365312
0.235479
0.215684
0.217998
0.215233
0.258974
0.353779
0.434924
0.557564
0.717006
0.908003
1.11767
1.40281
1.86099
2.1935
2.17047
1.73339
1.13141
1.0037
0.719572
0.501755
0.25372
0.203903
0.20399
0.203518
0.258603
0.337163
0.411767
0.533277
0.666985
0.834947
1.03257
1.28075
1.68212
2.07156
2.10417
1.81126
1.20246
1.00878
0.777277
0.639798
0.365326
0.196045
0.19334
0.193232
0.258167
0.317129
0.379997
0.494063
0.617439
0.763851
0.931959
1.15962
1.5063
1.92513
2.00881
1.83628
1.28653
1.01881
0.739599
0.65457
0.473099
0.206986
0.183931
0.193646
0.257322
0.298453
0.359291
0.464416
0.570216
0.708187
0.856884
1.0462
1.34157
1.76367
1.90191
1.80437
1.35465
1.03481
0.717422
0.725179
0.585038
0.272036
0.177849
0.201864
0.252327
0.279806
0.338227
0.43958
0.528356
0.655857
0.802046
0.971777
1.23353
1.62885
1.80585
1.75467
1.39723
1.05483
0.743294
0.767171
0.683217
0.450777
0.197114
0.204344
0.24215
0.26493
0.329829
0.407406
0.489787
0.598038
0.735707
0.895025
1.13276
1.51722
1.72302
1.70719
1.41521
1.07253
0.844257
0.860798
0.847784
0.76245
0.501838
0.273101
0.247426
0.268793
0.341153
0.398451
0.473265
0.571238
0.677541
0.815628
1.01475
1.35172
1.58512
1.59107
1.38326
1.07687
)
;

boundaryField
{
    inlet
    {
        type            fixedValue;
        value           uniform 1;
    }
    outlet
    {
        type            zeroGradient;
    }
    airfoil
    {
        type            zeroGradient;
    }
    top
    {
        type            symmetryPlane;
    }
    bottom
    {
        type            symmetryPlane;
    }
    defaultFaces
    {
        type            empty;
    }
}


// ************************************************************************* //
