/*--------------------------------*- C++ -*----------------------------------*\
  =========                 |
  \\      /  F ield         | OpenFOAM: The Open Source CFD Toolbox
   \\    /   O peration     | Website:  https://openfoam.org
    \\  /    A nd           | Version:  7
     \\/     M anipulation  |
\*---------------------------------------------------------------------------*/
FoamFile
{
    version     2.0;
    format      ascii;
    class       volScalarField;
    location    "4";
    object      rho;
}
// * * * * * * * * * * * * * * * * * * * * * * * * * * * * * * * * * * * * * //

dimensions      [1 -3 0 0 0 0 0];

internalField   nonuniform List<scalar> 
90000
(
0.971896
0.983122
0.995762
1.00834
1.02023
1.03131
1.04314
1.05442
1.06622
1.07867
1.09279
1.10737
1.12277
1.13828
1.15428
1.16992
1.1857
1.20083
1.21609
1.2305
1.24495
1.25843
1.2719
1.28419
1.29637
1.30735
1.31751
1.32707
1.33537
1.34176
1.34882
1.35335
1.35543
1.35838
1.35894
1.35868
1.35777
1.35561
1.35153
1.34606
1.33934
1.33492
1.33277
1.33365
1.33629
1.34048
1.34474
1.3489
1.3509
1.35148
1.35224
1.3523
1.35161
1.34956
1.34612
1.343
1.34081
1.341
1.34203
1.34437
1.34803
1.34963
1.35202
1.3521
1.35113
1.34943
1.34658
1.34635
1.34707
1.34909
1.34999
1.3513
1.35127
1.3509
1.35079
1.35123
1.35218
1.35228
1.35291
1.35363
1.35394
1.35431
1.35469
1.35484
1.3551
1.355
1.355
1.35522
1.35552
1.35592
1.35596
1.35611
1.35644
1.3569
1.35726
1.35771
1.35789
1.35782
1.35763
1.35738
0.963754
0.964359
0.965569
0.967537
0.970211
0.973271
0.977164
0.98188
0.98729
0.993169
0.999996
1.00757
1.01607
1.02532
1.03567
1.04688
1.0592
1.07209
1.0863
1.10075
1.11648
1.13235
1.14881
1.1659
1.18244
1.19992
1.21642
1.23315
1.24904
1.26449
1.27844
1.29214
1.30384
1.31583
1.32257
1.32994
1.33682
1.3399
1.34082
1.34597
1.35327
1.3602
1.36154
1.36139
1.36072
1.35915
1.35684
1.35468
1.35267
1.34964
1.34923
1.34982
1.35028
1.35071
1.35143
1.3532
1.35451
1.35521
1.35472
1.35373
1.35211
1.35106
1.35067
1.35092
1.35116
1.35242
1.35447
1.35522
1.35464
1.35319
1.35196
1.35168
1.35279
1.35498
1.35651
1.3561
1.35486
1.35338
1.35388
1.35587
1.35741
1.35721
1.35663
1.3563
1.35692
1.3575
1.35773
1.35746
1.35716
1.35732
1.35768
1.35799
1.35818
1.35842
1.35857
1.35898
1.35933
1.35924
1.35924
1.35908
0.96527
0.965331
0.965396
0.965476
0.965571
0.965676
0.965805
0.965978
0.966208
0.966504
0.966908
0.967429
0.968232
0.969346
0.970809
0.972605
0.974902
0.977694
0.981251
0.985537
0.990937
0.997315
1.00524
1.0144
1.02552
1.03815
1.05314
1.06946
1.0889
1.1091
1.13164
1.15636
1.18078
1.20674
1.233
1.25851
1.28134
1.30574
1.32585
1.34064
1.34926
1.35731
1.35904
1.36042
1.36005
1.35993
1.35958
1.359
1.35713
1.35369
1.35203
1.35329
1.35644
1.36094
1.36474
1.36822
1.36824
1.367
1.3638
1.35996
1.3556
1.35257
1.35118
1.35264
1.35696
1.3615
1.36442
1.36379
1.36127
1.35853
1.35624
1.35699
1.35923
1.36234
1.36287
1.3618
1.35988
1.35927
1.35988
1.3612
1.36198
1.36172
1.36118
1.36133
1.3617
1.36198
1.36179
1.36147
1.36159
1.36184
1.3619
1.36184
1.36189
1.36212
1.3625
1.36247
1.36237
1.36225
1.36226
1.3621
0.968179
0.968226
0.968267
0.968313
0.968361
0.968405
0.968459
0.96852
0.96858
0.96865
0.968741
0.968904
0.968998
0.969077
0.969161
0.969253
0.969347
0.96945
0.969583
0.969769
0.970026
0.970377
0.970863
0.971534
0.972707
0.974296
0.976586
0.97959
0.983804
0.989301
0.996929
1.00621
1.01929
1.03426
1.05386
1.07605
1.10321
1.13163
1.16422
1.19714
1.22766
1.25819
1.28078
1.30451
1.31794
1.33273
1.33913
1.34648
1.34825
1.35275
1.35862
1.36672
1.37095
1.37465
1.37621
1.37594
1.37523
1.37279
1.36942
1.36679
1.36421
1.36291
1.36433
1.36647
1.36896
1.36866
1.3685
1.36769
1.36634
1.36585
1.36633
1.36732
1.368
1.36834
1.36777
1.3671
1.36637
1.36655
1.36672
1.36675
1.36691
1.36717
1.36704
1.36727
1.36725
1.36735
1.36753
1.36735
1.3671
1.36678
1.36671
1.36687
1.36708
1.3672
1.36711
1.36688
1.36662
1.36668
1.36676
1.36663
0.970932
0.970966
0.971002
0.971041
0.971084
0.971123
0.971158
0.971187
0.971207
0.971225
0.971249
0.971284
0.971337
0.971365
0.971389
0.971418
0.971455
0.971472
0.971486
0.971523
0.971596
0.971705
0.971837
0.972078
0.972111
0.972144
0.9722
0.972291
0.972433
0.972636
0.972957
0.973441
0.974387
0.97589
0.97841
0.982069
0.988083
0.996237
1.00905
1.0251
1.04859
1.07517
1.10987
1.14603
1.18595
1.22529
1.26054
1.29472
1.31958
1.3443
1.35471
1.36298
1.36722
1.37082
1.3728
1.37251
1.3695
1.36319
1.36413
1.36659
1.37173
1.37564
1.37768
1.37662
1.37395
1.37005
1.36834
1.3678
1.36898
1.37204
1.37487
1.3747
1.37346
1.37144
1.37016
1.37058
1.37199
1.37295
1.37248
1.37132
1.37081
1.37121
1.37203
1.37241
1.37201
1.37152
1.37176
1.37224
1.37215
1.37178
1.37142
1.37142
1.37155
1.37149
1.37127
1.3709
1.37063
1.37066
1.37076
1.37068
0.972863
0.972875
0.972884
0.972895
0.972909
0.972933
0.972955
0.972977
0.972988
0.972995
0.973007
0.973012
0.973018
0.973032
0.973054
0.973074
0.973098
0.973105
0.973092
0.973083
0.973081
0.973081
0.973084
0.973072
0.973057
0.973052
0.973054
0.97306
0.973075
0.973111
0.973169
0.973285
0.973242
0.973162
0.973145
0.97317
0.973285
0.973551
0.97415
0.975324
0.977702
0.981676
0.989058
0.999724
1.01776
1.04033
1.07356
1.10973
1.15373
1.19679
1.2364
1.27248
1.29623
1.31916
1.32974
1.34193
1.34734
1.35812
1.36836
1.37762
1.38302
1.3837
1.38315
1.38002
1.37473
1.37103
1.36838
1.36968
1.37322
1.37785
1.37804
1.37728
1.3756
1.37349
1.37228
1.3733
1.37486
1.37577
1.37532
1.37408
1.37318
1.37347
1.37434
1.37503
1.37547
1.37495
1.37443
1.37457
1.37459
1.37459
1.37451
1.37459
1.3746
1.37455
1.37424
1.37369
1.37361
1.37367
1.37388
1.37393
0.974168
0.974173
0.974177
0.97418
0.974181
0.974184
0.97419
0.974191
0.97419
0.974198
0.974204
0.974194
0.974191
0.974183
0.974147
0.974128
0.974128
0.974126
0.974107
0.974069
0.974053
0.974046
0.974028
0.973981
0.97395
0.973946
0.973938
0.973903
0.973829
0.973744
0.973681
0.973626
0.973565
0.973488
0.973408
0.973308
0.973224
0.973216
0.973207
0.973221
0.973264
0.973338
0.973507
0.973943
0.974992
0.97706
0.98152
0.989188
1.00377
1.02429
1.05705
1.09507
1.14332
1.19118
1.23792
1.28109
1.31626
1.3476
1.36147
1.37123
1.37626
1.37826
1.37453
1.36335
1.3641
1.36734
1.37262
1.37725
1.37934
1.37896
1.37691
1.37312
1.37226
1.37291
1.37516
1.37689
1.3763
1.37563
1.37487
1.37499
1.3751
1.37528
1.3752
1.37503
1.37526
1.37589
1.3766
1.37628
1.37586
1.37571
1.37582
1.3761
1.37605
1.37575
1.37543
1.37499
1.37502
1.37515
1.37545
1.37554
0.974337
0.974343
0.974348
0.974354
0.974361
0.974369
0.974379
0.97439
0.974399
0.974405
0.974409
0.974408
0.974409
0.974412
0.974393
0.974358
0.974349
0.974347
0.974335
0.974307
0.974271
0.974243
0.974213
0.974172
0.974152
0.974144
0.974124
0.974079
0.97399
0.973884
0.973842
0.973817
0.973781
0.973717
0.973629
0.973532
0.973421
0.973281
0.97313
0.97306
0.973021
0.972971
0.972974
0.972981
0.972997
0.97299
0.973022
0.973181
0.973733
0.97517
0.978702
0.98569
1.00006
1.0218
1.05737
1.09913
1.15196
1.20181
1.24883
1.28672
1.31202
1.33274
1.34223
1.35224
1.36858
1.37841
1.38372
1.38356
1.38222
1.37511
1.36861
1.36866
1.37055
1.3752
1.37943
1.37913
1.37727
1.37414
1.37402
1.3749
1.37649
1.37649
1.37598
1.37492
1.37498
1.37574
1.3765
1.37657
1.37643
1.37639
1.37667
1.37681
1.37665
1.37625
1.37579
1.3756
1.37565
1.37585
1.37622
1.37629
0.974314
0.974319
0.974324
0.974329
0.974335
0.974343
0.974354
0.974364
0.974373
0.974382
0.974389
0.974393
0.974397
0.974399
0.97439
0.974353
0.974325
0.974319
0.974311
0.974296
0.974255
0.9742
0.974185
0.974186
0.974199
0.974187
0.97413
0.974048
0.973969
0.973905
0.973852
0.973789
0.973706
0.973613
0.97353
0.973447
0.973338
0.973181
0.973006
0.972922
0.972883
0.972829
0.972776
0.972765
0.972764
0.972751
0.972734
0.972727
0.972743
0.972773
0.972828
0.972966
0.973485
0.974998
0.979039
0.987608
1.00504
1.03271
1.07557
1.12715
1.18809
1.2427
1.29634
1.33882
1.36197
1.37196
1.37798
1.37704
1.36941
1.36264
1.36487
1.37096
1.37703
1.37873
1.37862
1.37653
1.37257
1.37264
1.37407
1.37625
1.37675
1.3762
1.37514
1.37468
1.3752
1.37589
1.37611
1.37618
1.37631
1.37667
1.37713
1.37702
1.37659
1.3761
1.37582
1.3758
1.37587
1.37611
1.37643
1.37658
0.974201
0.974196
0.974194
0.974193
0.974192
0.974192
0.974191
0.97419
0.97419
0.974193
0.974205
0.974218
0.974216
0.974196
0.974185
0.974183
0.974179
0.974164
0.974134
0.974103
0.974084
0.974088
0.974116
0.97414
0.974127
0.974035
0.973985
0.973982
0.973962
0.973908
0.973826
0.973718
0.973601
0.973506
0.973418
0.973332
0.973263
0.973201
0.973138
0.973081
0.973036
0.973008
0.972984
0.972937
0.97283
0.972776
0.972775
0.972793
0.972855
0.972966
0.973081
0.973169
0.97313
0.973019
0.972982
0.973137
0.973946
0.976551
0.982732
0.997039
1.02235
1.06356
1.11841
1.18005
1.23905
1.28347
1.31566
1.33479
1.34537
1.36183
1.3752
1.38231
1.38208
1.37964
1.37282
1.36999
1.37073
1.3739
1.37794
1.37777
1.37648
1.37428
1.37437
1.37526
1.37644
1.37627
1.37573
1.37573
1.37629
1.3772
1.37733
1.37707
1.37649
1.37594
1.37588
1.37592
1.37604
1.37631
1.37648
1.37672
0.973839
0.973826
0.973811
0.973807
0.973808
0.973804
0.973782
0.973769
0.973767
0.973768
0.973766
0.973764
0.973764
0.973766
0.973778
0.97378
0.973771
0.97377
0.973775
0.973798
0.973843
0.973848
0.973832
0.973784
0.973771
0.973791
0.973837
0.973848
0.973829
0.973775
0.973695
0.973585
0.973462
0.973347
0.973234
0.973118
0.973087
0.973077
0.973052
0.973
0.972936
0.972892
0.972877
0.972865
0.972845
0.972842
0.972875
0.972956
0.973075
0.973239
0.973412
0.973534
0.973573
0.973564
0.973514
0.973486
0.973381
0.973393
0.973546
0.97422
0.976203
0.982024
0.994624
1.02169
1.06354
1.12498
1.19265
1.25728
1.31797
1.35527
1.36932
1.37726
1.37592
1.36277
1.36285
1.36675
1.37425
1.37984
1.3796
1.37754
1.37278
1.37289
1.37455
1.37669
1.37654
1.37601
1.37507
1.37543
1.37658
1.37735
1.3772
1.37645
1.37611
1.37604
1.37602
1.37608
1.37624
1.3765
1.37652
1.37668
0.973338
0.973312
0.973288
0.973266
0.973248
0.973229
0.973196
0.973161
0.973133
0.973104
0.973083
0.973077
0.973074
0.973079
0.973085
0.973085
0.973086
0.973092
0.973105
0.973124
0.973152
0.973171
0.973185
0.9732
0.973219
0.973256
0.973314
0.973345
0.973354
0.973352
0.973339
0.973303
0.973286
0.97328
0.97326
0.973196
0.973155
0.973141
0.973117
0.973075
0.973007
0.972928
0.972893
0.972899
0.972929
0.972988
0.973061
0.973148
0.973267
0.973429
0.973594
0.973728
0.973853
0.97398
0.974019
0.97401
0.973968
0.973891
0.973858
0.97384
0.973897
0.974138
0.974875
0.977008
0.982828
0.997313
1.02687
1.07644
1.14395
1.21336
1.27181
1.31118
1.33502
1.34458
1.3658
1.37706
1.38139
1.38096
1.37552
1.3709
1.37128
1.37408
1.37807
1.37799
1.37662
1.37475
1.37489
1.37621
1.37733
1.37724
1.37627
1.37594
1.37612
1.37632
1.37629
1.37633
1.37654
1.37671
1.37661
1.37669
0.972978
0.972964
0.97295
0.972931
0.972901
0.972859
0.9728
0.972746
0.972707
0.97268
0.972661
0.972635
0.972614
0.972611
0.972611
0.97261
0.972618
0.972636
0.972653
0.97268
0.972722
0.972746
0.972754
0.972765
0.972793
0.972848
0.972915
0.972966
0.972998
0.973022
0.973043
0.973066
0.9731
0.973144
0.973148
0.973164
0.97322
0.973298
0.973324
0.973322
0.973285
0.973199
0.973095
0.973036
0.973043
0.973089
0.973146
0.973221
0.973345
0.973518
0.973683
0.973817
0.973954
0.974147
0.97439
0.974479
0.974493
0.974476
0.974341
0.974147
0.974097
0.974144
0.974362
0.974668
0.974982
0.97567
0.978011
0.98531
1.0043
1.04351
1.10637
1.17979
1.25894
1.32187
1.3599
1.37076
1.37772
1.37164
1.36149
1.36525
1.37351
1.37954
1.37941
1.3775
1.37363
1.37402
1.37618
1.37787
1.37756
1.37604
1.37528
1.37571
1.37659
1.37667
1.37663
1.37678
1.377
1.37694
1.37671
1.37684
0.972962
0.972938
0.972912
0.972882
0.97285
0.972812
0.97277
0.972722
0.972671
0.972623
0.972582
0.972531
0.97246
0.972418
0.972413
0.972412
0.97241
0.972413
0.972432
0.972477
0.972504
0.972513
0.972523
0.972539
0.972562
0.972596
0.972646
0.972707
0.972764
0.97282
0.972893
0.972974
0.973049
0.973123
0.973215
0.97331
0.973417
0.973544
0.973638
0.973649
0.973621
0.973547
0.973428
0.973268
0.973135
0.973106
0.973139
0.973222
0.973373
0.97356
0.973714
0.973849
0.974003
0.974209
0.97449
0.974753
0.974819
0.974826
0.974761
0.974512
0.974259
0.974229
0.974314
0.974525
0.974797
0.974897
0.974857
0.974981
0.975755
0.979754
0.991603
1.023
1.07457
1.15185
1.2306
1.28157
1.32871
1.33981
1.36096
1.37436
1.3813
1.38092
1.37587
1.37193
1.37296
1.37677
1.37945
1.37889
1.37607
1.37474
1.37523
1.37649
1.37685
1.37691
1.37703
1.37744
1.37744
1.37721
1.3769
1.37719
0.973102
0.973067
0.973031
0.972997
0.972963
0.972931
0.972894
0.972851
0.972802
0.972755
0.972713
0.972665
0.972601
0.972539
0.972516
0.972513
0.972512
0.972515
0.972535
0.972567
0.97259
0.9726
0.972609
0.972621
0.972637
0.972665
0.972717
0.972776
0.972831
0.972889
0.972968
0.973074
0.973193
0.973311
0.97342
0.973527
0.973646
0.973774
0.973893
0.97398
0.974005
0.973995
0.973957
0.973887
0.973792
0.973694
0.973612
0.973563
0.97357
0.973609
0.97369
0.973809
0.973957
0.974172
0.974491
0.974807
0.974953
0.974971
0.97494
0.974767
0.974454
0.974284
0.97429
0.974362
0.974521
0.974735
0.974838
0.974802
0.974652
0.97463
0.975071
0.977614
0.98536
1.0103
1.05494
1.13201
1.21571
1.29049
1.35204
1.36845
1.37778
1.37235
1.36164
1.36688
1.37653
1.38125
1.38022
1.37632
1.37381
1.37451
1.37663
1.37717
1.37685
1.37697
1.37758
1.378
1.37784
1.37721
1.37723
1.37775
0.973796
0.973775
0.973756
0.973735
0.973713
0.973697
0.973677
0.973651
0.973615
0.973578
0.973545
0.973515
0.973479
0.973432
0.973378
0.973321
0.973271
0.973236
0.9732
0.973158
0.973132
0.97311
0.973069
0.973025
0.973017
0.973029
0.97306
0.973077
0.973105
0.973159
0.973228
0.973302
0.973392
0.973496
0.973609
0.973729
0.973859
0.973977
0.974077
0.974183
0.974302
0.974381
0.974401
0.974401
0.974384
0.974341
0.974263
0.97414
0.974008
0.973909
0.973857
0.973859
0.973927
0.974078
0.974328
0.974678
0.974952
0.974996
0.97496
0.97483
0.9746
0.974342
0.974245
0.974249
0.974303
0.974472
0.974768
0.9749
0.974892
0.974791
0.974687
0.974795
0.975224
0.976804
0.982502
1.00191
1.04234
1.1173
1.20025
1.26925
1.32238
1.33955
1.35744
1.38035
1.3828
1.38129
1.37354
1.37244
1.37397
1.37763
1.37829
1.37733
1.37645
1.37706
1.3783
1.37828
1.37769
1.37732
1.37774
1.37843
0.974415
0.974427
0.974439
0.974448
0.97445
0.974448
0.97445
0.974455
0.974462
0.974462
0.974463
0.974469
0.97447
0.974462
0.974441
0.974409
0.974368
0.974305
0.974234
0.974177
0.974117
0.974043
0.973952
0.97386
0.973799
0.973759
0.973712
0.97366
0.97362
0.973594
0.973592
0.973609
0.973657
0.973733
0.97384
0.973972
0.974106
0.97422
0.974331
0.974463
0.974613
0.974737
0.974825
0.974904
0.974958
0.974967
0.974958
0.974903
0.974782
0.974577
0.974318
0.974118
0.974068
0.974096
0.974182
0.974376
0.974695
0.974937
0.974937
0.974848
0.974711
0.974536
0.974299
0.974193
0.974189
0.974275
0.974596
0.97495
0.975004
0.974966
0.974873
0.974861
0.974941
0.975093
0.975333
0.976407
0.980871
0.997636
1.03607
1.11085
1.19696
1.28771
1.3477
1.3728
1.37761
1.36628
1.3638
1.37006
1.37839
1.37995
1.37848
1.3753
1.376
1.37842
1.37871
1.37811
1.37733
1.37761
1.37869
1.37877
0.974595
0.974626
0.974654
0.974671
0.97468
0.974698
0.974732
0.974776
0.974826
0.974872
0.9749
0.974922
0.974949
0.97499
0.975014
0.975014
0.975013
0.975016
0.97502
0.975012
0.974973
0.974893
0.974772
0.97465
0.974554
0.974473
0.9744
0.974329
0.974257
0.974182
0.974116
0.974068
0.974055
0.974073
0.974126
0.974209
0.974319
0.974427
0.974518
0.974628
0.974778
0.974938
0.975076
0.975226
0.975367
0.975417
0.975413
0.975404
0.975372
0.975255
0.975001
0.974649
0.974312
0.97418
0.974208
0.9743
0.974461
0.97468
0.974806
0.974812
0.974826
0.974843
0.97474
0.974445
0.97427
0.974282
0.974536
0.974937
0.975067
0.975054
0.974991
0.974932
0.974932
0.975017
0.975147
0.975269
0.975455
0.976258
0.980326
0.994798
1.03485
1.10882
1.19709
1.27527
1.32087
1.34058
1.36389
1.38251
1.38235
1.37923
1.37374
1.37468
1.37874
1.37984
1.37871
1.37701
1.37722
1.37859
1.3796
1.37904
0.97449
0.97454
0.974599
0.974667
0.974736
0.974841
0.974976
0.975063
0.975108
0.975129
0.975143
0.975163
0.975196
0.975244
0.975297
0.975356
0.975421
0.975469
0.975492
0.975499
0.975494
0.975467
0.975416
0.975353
0.975284
0.975228
0.975191
0.975156
0.975105
0.975025
0.974922
0.974803
0.974689
0.974629
0.97461
0.974592
0.974567
0.974565
0.974593
0.974662
0.974764
0.974924
0.975147
0.975356
0.975482
0.975526
0.975547
0.975576
0.975593
0.975568
0.975445
0.975167
0.97479
0.974452
0.974352
0.974389
0.974481
0.974585
0.974708
0.97485
0.975043
0.975228
0.975276
0.975127
0.974709
0.974579
0.974659
0.974926
0.975083
0.975102
0.975076
0.975017
0.974989
0.97501
0.975137
0.975362
0.975618
0.975628
0.975676
0.976263
0.980124
0.99482
1.03812
1.11332
1.20709
1.30737
1.35473
1.37728
1.37586
1.36345
1.36813
1.37785
1.38179
1.37986
1.37569
1.37601
1.3783
1.37983
1.37961
1.3785
0.974324
0.974364
0.974422
0.974506
0.974588
0.974711
0.974944
0.975086
0.975089
0.975089
0.975106
0.975156
0.975217
0.97528
0.97535
0.975446
0.975545
0.975565
0.97557
0.975592
0.975646
0.975705
0.975764
0.975831
0.975848
0.975845
0.975841
0.975835
0.975805
0.975731
0.975595
0.975403
0.975267
0.975189
0.97513
0.975058
0.974949
0.97483
0.974769
0.974795
0.974827
0.974801
0.974748
0.97475
0.974786
0.974892
0.975098
0.975386
0.975572
0.975598
0.975572
0.975456
0.975211
0.974875
0.974625
0.974598
0.974614
0.974631
0.97473
0.974961
0.975266
0.975523
0.975613
0.975562
0.975304
0.975076
0.975011
0.975019
0.975076
0.975155
0.975195
0.975183
0.975174
0.975196
0.97531
0.975494
0.975663
0.97571
0.975688
0.975539
0.975531
0.976138
0.980626
0.996419
1.04444
1.12634
1.21947
1.29464
1.33156
1.34841
1.37952
1.38369
1.38099
1.37327
1.37422
1.37755
1.38076
1.38048
1.37878
1.37803
0.974378
0.974407
0.974463
0.974542
0.974618
0.974676
0.974765
0.974845
0.974852
0.974841
0.974835
0.974859
0.974929
0.975018
0.97517
0.975358
0.975441
0.975473
0.97551
0.975591
0.975731
0.97587
0.976041
0.97619
0.976209
0.976172
0.976039
0.975996
0.975986
0.975931
0.975794
0.975628
0.975511
0.975427
0.975352
0.975274
0.975201
0.975147
0.975098
0.975042
0.974969
0.974792
0.97438
0.974175
0.974157
0.974176
0.974346
0.974794
0.975391
0.975638
0.975637
0.975604
0.975502
0.975288
0.975079
0.975014
0.975016
0.974992
0.974974
0.975144
0.975453
0.97563
0.975683
0.975635
0.975547
0.975493
0.975387
0.975268
0.975244
0.975281
0.975402
0.975524
0.975606
0.975665
0.975728
0.975748
0.97573
0.975695
0.975633
0.975412
0.975177
0.97515
0.975276
0.976212
0.981539
1.00204
1.05747
1.14319
1.25662
1.32981
1.37413
1.3754
1.3633
1.36539
1.37365
1.38147
1.38093
1.37908
1.37753
1.37785
0.974879
0.974865
0.974881
0.974886
0.974877
0.974873
0.974873
0.974862
0.974813
0.97473
0.974628
0.974553
0.97457
0.97465
0.974771
0.974902
0.975026
0.975148
0.975279
0.975499
0.975785
0.976012
0.976208
0.976388
0.976455
0.97641
0.97613
0.975913
0.975876
0.975801
0.975674
0.975561
0.975441
0.975299
0.97522
0.975217
0.975301
0.975397
0.975422
0.975396
0.975251
0.974922
0.974378
0.974006
0.973947
0.973958
0.974101
0.974478
0.975137
0.975703
0.975824
0.975854
0.975798
0.975627
0.975509
0.975417
0.975433
0.97551
0.975563
0.97551
0.975366
0.975355
0.975359
0.975526
0.975651
0.975684
0.975608
0.975488
0.975482
0.975543
0.975657
0.975795
0.975991
0.97612
0.976105
0.975981
0.975831
0.975709
0.975506
0.975284
0.975141
0.975116
0.975151
0.975266
0.975536
0.976969
0.983456
1.01163
1.07292
1.16926
1.27337
1.31155
1.34099
1.36713
1.38378
1.38276
1.37658
1.37629
1.37739
1.37835
0.975272
0.975277
0.975267
0.975191
0.975099
0.974999
0.974885
0.974795
0.974719
0.974645
0.974563
0.97447
0.974428
0.974436
0.974449
0.974399
0.974271
0.974265
0.974335
0.97464
0.974916
0.975027
0.975131
0.975314
0.975577
0.97564
0.975458
0.974979
0.974808
0.974809
0.974928
0.975095
0.975137
0.975165
0.97531
0.975499
0.975478
0.975445
0.975671
0.975937
0.975956
0.975831
0.975302
0.974746
0.974585
0.974577
0.974636
0.974877
0.975342
0.97582
0.976056
0.976064
0.975828
0.975655
0.975639
0.975554
0.975586
0.975786
0.975997
0.975975
0.975514
0.975046
0.975015
0.975238
0.975733
0.975993
0.975984
0.975917
0.97588
0.975889
0.975902
0.975949
0.976158
0.976285
0.97625
0.976005
0.975568
0.975349
0.975281
0.975275
0.975196
0.975222
0.975322
0.975559
0.975812
0.975902
0.976114
0.977994
0.986822
1.02654
1.09797
1.20524
1.31661
1.35759
1.37893
1.36751
1.36712
1.37294
1.37889
1.37836
0.97481
0.974852
0.974861
0.974859
0.9748
0.974619
0.974564
0.974622
0.974791
0.974878
0.974898
0.974886
0.974752
0.974532
0.974446
0.974343
0.974178
0.974174
0.974418
0.974798
0.974834
0.974729
0.974609
0.974598
0.974703
0.974727
0.974548
0.974172
0.974073
0.974052
0.974093
0.974334
0.974686
0.974897
0.9752
0.97566
0.975729
0.975686
0.975879
0.976345
0.976454
0.97639
0.976013
0.975855
0.97588
0.975792
0.975756
0.975788
0.975962
0.976024
0.976056
0.975946
0.975504
0.975314
0.975279
0.975314
0.975504
0.975808
0.976247
0.976374
0.976052
0.975204
0.974902
0.975089
0.975642
0.976194
0.976365
0.976308
0.976248
0.976157
0.976024
0.976003
0.976087
0.976152
0.97605
0.975694
0.975292
0.975215
0.975254
0.975378
0.975595
0.975744
0.975855
0.97599
0.976021
0.97599
0.975792
0.975536
0.97585
0.979209
0.993669
1.0473
1.13707
1.23257
1.31298
1.33408
1.36818
1.37981
1.37902
1.37542
0.973955
0.974085
0.974079
0.974045
0.974046
0.974073
0.974194
0.974455
0.974703
0.974794
0.974808
0.974768
0.974742
0.974821
0.974997
0.97517
0.975378
0.97577
0.976276
0.976363
0.976346
0.976227
0.975856
0.975545
0.975505
0.975449
0.975226
0.974735
0.97437
0.974337
0.974406
0.974629
0.974899
0.975071
0.975332
0.975672
0.975742
0.97564
0.975595
0.975741
0.976036
0.976142
0.976086
0.976121
0.976414
0.97652
0.976468
0.976379
0.976354
0.976274
0.975981
0.975448
0.97504
0.974889
0.974744
0.974753
0.975157
0.975885
0.976546
0.976772
0.976641
0.976087
0.975504
0.975535
0.975903
0.976316
0.976502
0.976488
0.976436
0.976325
0.976036
0.975718
0.975655
0.975633
0.975576
0.975428
0.975226
0.975218
0.97536
0.975727
0.976063
0.976149
0.97618
0.976167
0.976124
0.975888
0.975482
0.975259
0.975275
0.975398
0.976374
0.982751
1.0076
1.07737
1.17818
1.28854
1.35667
1.37527
1.36434
1.36819
0.972166
0.972477
0.972643
0.972866
0.973432
0.973608
0.973615
0.973682
0.973765
0.973834
0.973922
0.974074
0.974194
0.974367
0.974643
0.974946
0.975354
0.975924
0.976277
0.97633
0.976316
0.976191
0.975915
0.975677
0.975465
0.975162
0.974734
0.974357
0.974045
0.973756
0.973785
0.97417
0.974404
0.974317
0.974295
0.974288
0.974031
0.973517
0.973295
0.973306
0.973369
0.973541
0.974042
0.975109
0.976014
0.976123
0.976059
0.976009
0.975873
0.975696
0.975479
0.975191
0.974891
0.974492
0.974222
0.974192
0.974485
0.975493
0.976557
0.976846
0.976771
0.976505
0.976192
0.976117
0.976244
0.976437
0.976415
0.976299
0.976179
0.976008
0.975656
0.975252
0.975212
0.975252
0.97536
0.975423
0.975538
0.975683
0.975909
0.976206
0.97632
0.976321
0.976284
0.976152
0.975854
0.97549
0.975354
0.97532
0.975374
0.975626
0.975932
0.976247
0.978072
0.988612
1.02798
1.11581
1.22028
1.29791
1.33663
1.36942
0.971843
0.971767
0.971614
0.971402
0.971253
0.971139
0.971031
0.971003
0.970971
0.970974
0.971098
0.971312
0.971505
0.97173
0.972118
0.97265
0.973198
0.973625
0.973993
0.974375
0.974661
0.97472
0.97469
0.974585
0.974438
0.974286
0.974105
0.973908
0.973645
0.973314
0.973038
0.9728
0.972481
0.972155
0.971797
0.97125
0.97079
0.970595
0.970521
0.970578
0.970776
0.971173
0.971713
0.972246
0.972749
0.97309
0.973463
0.973806
0.973975
0.974211
0.974586
0.974958
0.975002
0.974823
0.97452
0.974468
0.974674
0.975275
0.976093
0.976555
0.976558
0.976396
0.976177
0.976113
0.976062
0.97584
0.97528
0.974902
0.974879
0.974935
0.975011
0.975056
0.975131
0.975246
0.975429
0.975761
0.976054
0.976243
0.976392
0.97644
0.976442
0.976358
0.976106
0.975721
0.975386
0.975325
0.975379
0.975538
0.975821
0.976178
0.97639
0.976377
0.976251
0.976538
0.98013
1.00155
1.05915
1.16375
1.28923
1.36136
0.972211
0.971785
0.971317
0.970947
0.970601
0.970044
0.969255
0.968635
0.968407
0.968369
0.968365
0.968345
0.968217
0.968037
0.967903
0.967845
0.967902
0.968077
0.968285
0.968546
0.96905
0.969906
0.97069
0.971051
0.971243
0.971589
0.972108
0.972225
0.972213
0.972136
0.971958
0.971645
0.971209
0.970824
0.970439
0.970061
0.969765
0.969677
0.969642
0.969554
0.969545
0.96976
0.969953
0.970058
0.970302
0.970774
0.971462
0.972036
0.972311
0.972564
0.972966
0.973334
0.973678
0.973708
0.973535
0.973511
0.973731
0.97421
0.974244
0.973867
0.973549
0.973545
0.973771
0.974248
0.974427
0.97434
0.973941
0.973678
0.973754
0.974096
0.97469
0.975177
0.975524
0.975818
0.976044
0.976157
0.976256
0.976367
0.976473
0.976432
0.976246
0.97585
0.975448
0.975197
0.975245
0.975431
0.975817
0.976172
0.976447
0.976519
0.976492
0.976275
0.975729
0.975439
0.975552
0.977101
0.985385
1.02481
1.10211
1.24717
0.976865
0.977007
0.976939
0.976358
0.975241
0.973472
0.971184
0.970055
0.969702
0.969544
0.969527
0.969513
0.969443
0.969364
0.969291
0.969274
0.969418
0.969729
0.970061
0.970434
0.971045
0.972183
0.972938
0.973167
0.973278
0.973429
0.973732
0.974292
0.974812
0.974955
0.97479
0.974116
0.973706
0.97369
0.973535
0.973502
0.974108
0.975828
0.9772
0.977424
0.977323
0.976333
0.97448
0.973791
0.973476
0.972858
0.97266
0.973216
0.973915
0.973947
0.973337
0.972435
0.972249
0.972441
0.973353
0.974073
0.97423
0.974111
0.973183
0.971772
0.970957
0.970868
0.970989
0.971469
0.972052
0.972245
0.972181
0.972196
0.972435
0.972898
0.973733
0.974725
0.975403
0.975888
0.976141
0.976153
0.976046
0.975953
0.975764
0.975425
0.97501
0.974796
0.974881
0.975055
0.975533
0.976054
0.976441
0.976685
0.976714
0.976666
0.976417
0.975841
0.975383
0.975366
0.975564
0.975966
0.976443
0.980091
0.996233
1.10592
0.998423
0.998926
0.999092
0.999098
0.998307
0.994872
0.990895
0.989854
0.990031
0.99039
0.990069
0.988805
0.987613
0.987413
0.987711
0.988154
0.988178
0.988106
0.987592
0.986611
0.985604
0.985264
0.985555
0.985937
0.985515
0.983428
0.982142
0.982261
0.982314
0.982096
0.982136
0.981767
0.980581
0.980334
0.980432
0.981138
0.982571
0.983826
0.984285
0.984494
0.983913
0.982022
0.980206
0.979038
0.977642
0.976057
0.975748
0.97579
0.975658
0.975274
0.974178
0.971896
0.971039
0.970998
0.971311
0.972119
0.972845
0.973035
0.972706
0.971767
0.971038
0.970964
0.971078
0.971355
0.971771
0.972243
0.972981
0.973861
0.974873
0.975016
0.974597
0.974233
0.974259
0.974424
0.974327
0.973874
0.97333
0.973246
0.973295
0.973494
0.973727
0.974064
0.974648
0.975205
0.97594
0.9764
0.976504
0.976645
0.976553
0.976209
0.975779
0.975279
0.97528
0.975618
0.976236
0.976583
0.976535
0.97653
0.977145
1.00789
1.01585
1.0158
1.01546
1.01379
1.01278
1.01246
1.01245
1.01283
1.01409
1.0148
1.01372
1.01011
1.00871
1.00882
1.00959
1.01193
1.01367
1.01402
1.01373
1.01134
1.01041
1.01082
1.01028
1.00804
1.00505
1.00215
1.00077
1.0002
0.99931
0.99804
0.997486
0.997106
0.995605
0.991517
0.990364
0.990692
0.990256
0.987398
0.985918
0.985893
0.987182
0.98885
0.988802
0.987469
0.985218
0.985079
0.985816
0.986708
0.98649
0.985573
0.983682
0.980527
0.976995
0.975522
0.975526
0.975686
0.975902
0.976583
0.978192
0.979359
0.979285
0.97888
0.97782
0.976056
0.975023
0.97502
0.975959
0.977687
0.978061
0.977426
0.975597
0.973925
0.973557
0.973406
0.973198
0.972808
0.972326
0.972264
0.972361
0.972638
0.973001
0.973506
0.974049
0.975137
0.975817
0.976213
0.976139
0.975684
0.975186
0.974975
0.974992
0.97508
0.975698
0.976537
0.976839
0.976799
0.976593
0.975864
0.975528
0.980264
1.05832
1.05663
1.05665
1.05668
1.05589
1.05518
1.05556
1.05593
1.05558
1.05379
1.05041
1.04645
1.04437
1.04353
1.0428
1.04261
1.04345
1.04499
1.04503
1.04533
1.04591
1.04533
1.04211
1.04073
1.03998
1.03943
1.03986
1.04166
1.04195
1.04094
1.04041
1.04056
1.04024
1.03816
1.03469
1.03157
1.02913
1.02671
1.02324
1.01924
1.01778
1.01709
1.01514
1.01237
1.01167
1.01299
1.01364
1.01275
1.01096
1.01072
1.01118
1.01102
1.00773
1.00226
0.998622
0.995516
0.993654
0.993569
0.993538
0.993101
0.991778
0.990059
0.987687
0.984862
0.981592
0.978723
0.978423
0.978258
0.977459
0.976136
0.974555
0.973476
0.973336
0.973278
0.973133
0.972887
0.972595
0.972685
0.973349
0.974537
0.975554
0.975955
0.975671
0.975321
0.974885
0.974331
0.973675
0.97332
0.973428
0.973637
0.974011
0.975231
0.976166
0.976536
0.976698
0.976372
0.975805
0.975223
0.975323
0.976229
1.11016
1.1096
1.10893
1.10871
1.10902
1.1107
1.11239
1.11266
1.11182
1.10981
1.10925
1.10876
1.10758
1.1057
1.10297
1.10056
1.09962
1.09886
1.0986
1.09799
1.09592
1.09398
1.09133
1.0867
1.08448
1.08467
1.08434
1.0827
1.08107
1.07885
1.07604
1.07519
1.07445
1.07205
1.06825
1.06728
1.06835
1.06918
1.06852
1.06676
1.06472
1.06222
1.05948
1.05635
1.05325
1.05045
1.04631
1.03899
1.03245
1.0311
1.03226
1.03312
1.03101
1.0268
1.02639
1.0261
1.02248
1.01604
1.01111
1.00673
1.00313
1.00213
1.00149
1.00041
0.99826
0.994548
0.989957
0.986966
0.984531
0.983055
0.98302
0.98316
0.982357
0.980878
0.980774
0.981208
0.981098
0.980731
0.980302
0.979972
0.979507
0.978598
0.977186
0.975806
0.974309
0.97352
0.973124
0.973164
0.973357
0.974147
0.975182
0.976218
0.976159
0.975871
0.975441
0.974862
0.974852
0.974949
0.975968
0.97682
1.16872
1.16865
1.16944
1.17059
1.17045
1.16819
1.16419
1.16294
1.16324
1.16438
1.16474
1.16356
1.16159
1.16125
1.16011
1.15638
1.1541
1.15403
1.15432
1.15433
1.1531
1.15209
1.1518
1.15062
1.14717
1.14587
1.14517
1.14378
1.14182
1.13932
1.13692
1.13493
1.13368
1.13209
1.12874
1.1246
1.12159
1.11844
1.11379
1.11204
1.11234
1.11215
1.11027
1.1051
1.10273
1.10299
1.10188
1.09756
1.09202
1.08837
1.08536
1.08035
1.07223
1.06746
1.06755
1.06887
1.06765
1.06346
1.05985
1.05495
1.04722
1.04247
1.04046
1.03957
1.03827
1.03477
1.02789
1.0213
1.01764
1.0149
1.01172
1.00775
1.00389
0.999471
0.995642
0.992227
0.989372
0.986698
0.983349
0.981231
0.979206
0.977671
0.976648
0.9757
0.974839
0.974083
0.974308
0.97513
0.976716
0.97727
0.977029
0.976375
0.975505
0.974396
0.973762
0.973825
0.974084
0.975471
0.976833
0.976672
1.23688
1.23507
1.23208
1.23132
1.23154
1.23244
1.23249
1.2322
1.2309
1.22869
1.22832
1.22848
1.22795
1.22637
1.22448
1.22107
1.2183
1.21827
1.2182
1.21692
1.21529
1.2134
1.21165
1.21141
1.21059
1.20704
1.20456
1.20308
1.20118
1.19846
1.19474
1.19288
1.19197
1.19111
1.18841