/*--------------------------------*- C++ -*----------------------------------*\
  =========                 |
  \\      /  F ield         | OpenFOAM: The Open Source CFD Toolbox
   \\    /   O peration     | Website:  https://openfoam.org
    \\  /    A nd           | Version:  7
     \\/     M anipulation  |
\*---------------------------------------------------------------------------*/
FoamFile
{
    version     2.0;
    format      ascii;
    class       volScalarField;
    location    "9.5";
    object      rho;
}
// * * * * * * * * * * * * * * * * * * * * * * * * * * * * * * * * * * * * * //

dimensions      [1 -3 0 0 0 0 0];

internalField   nonuniform List<scalar> 
90000
(
1.11918
1.12327
1.12828
1.13341
1.13899
1.14441
1.15019
1.15569
1.16144
1.16687
1.17251
1.17777
1.18322
1.18827
1.19361
1.19859
1.20465
1.2116
1.22061
1.23048
1.24206
1.25368
1.26604
1.27781
1.28946
1.3003
1.31097
1.32019
1.32962
1.33682
1.34389
1.34934
1.35319
1.3566
1.35848
1.35828
1.35857
1.35891
1.35835
1.3553
1.34544
1.33462
1.32712
1.32169
1.32036
1.32182
1.32441
1.32829
1.33294
1.33365
1.3361
1.33938
1.33926
1.339
1.3381
1.33619
1.33357
1.33169
1.32998
1.32981
1.33053
1.33099
1.33283
1.3356
1.33784
1.33947
1.33918
1.33694
1.33458
1.33433
1.33543
1.33632
1.33784
1.3406
1.34065
1.33931
1.33828
1.33859
1.33913
1.34057
1.34229
1.34161
1.34065
1.34045
1.34112
1.34218
1.34234
1.34234
1.34254
1.34332
1.34402
1.34406
1.34355
1.34318
1.34326
1.3436
1.3441
1.3445
1.34452
1.34439
1.11698
1.11743
1.11831
1.11962
1.12139
1.12357
1.12622
1.12932
1.13285
1.13681
1.14113
1.1458
1.15074
1.15603
1.16154
1.16741
1.17329
1.17934
1.18555
1.19242
1.19978
1.20799
1.21687
1.22645
1.23673
1.24733
1.25847
1.26988
1.28115
1.29284
1.30352
1.31396
1.32484
1.33217
1.3414
1.34839
1.35223
1.35589
1.35943
1.36041
1.35961
1.36058
1.36033
1.35861
1.35388
1.34723
1.34079
1.33595
1.33443
1.33481
1.33557
1.338
1.34075
1.34322
1.34539
1.34749
1.34801
1.34702
1.34439
1.34091
1.33755
1.335
1.33579
1.33807
1.34183
1.34461
1.34658
1.34576
1.3433
1.34049
1.33856
1.33957
1.34227
1.34543
1.34631
1.34534
1.34327
1.34167
1.34239
1.3446
1.34644
1.34603
1.3449
1.34418
1.34432
1.3451
1.34576
1.34593
1.34594
1.34615
1.34681
1.34708
1.34676
1.34622
1.34616
1.34637
1.34664
1.34715
1.34745
1.34723
1.11847
1.11853
1.1186
1.11867
1.11874
1.11884
1.11897
1.11917
1.11944
1.1198
1.12027
1.12099
1.12199
1.12325
1.12481
1.1267
1.12896
1.13158
1.13449
1.13783
1.14153
1.14571
1.15043
1.15573
1.16206
1.16893
1.17722
1.18632
1.19668
1.20803
1.22104
1.23415
1.24877
1.26454
1.27948
1.29474
1.3107
1.32468
1.33588
1.34796
1.35626
1.36117
1.36388
1.3639
1.3636
1.36235
1.36064
1.35879
1.35579
1.35259
1.34968
1.34779
1.34811
1.34896
1.35014
1.35175
1.35239
1.35318
1.35331
1.35253
1.35016
1.34693
1.34512
1.3454
1.34693
1.34866
1.35069
1.35274
1.35349
1.35184
1.35
1.34878
1.34917
1.35002
1.3514
1.35272
1.35231
1.35107
1.34997
1.35023
1.35112
1.35193
1.35179
1.35097
1.3503
1.3505
1.35119
1.3515
1.35136
1.35137
1.35169
1.35212
1.35202
1.35149
1.35096
1.351
1.35123
1.35167
1.3516
1.35126
1.12128
1.12132
1.12136
1.12137
1.12139
1.1214
1.12142
1.12144
1.12149
1.12157
1.12173
1.12176
1.1218
1.12185
1.12193
1.12204
1.12218
1.12235
1.12256
1.12282
1.12317
1.1238
1.12469
1.12584
1.12728
1.12906
1.13139
1.1343
1.1381
1.14275
1.14847
1.15586
1.16426
1.17525
1.18723
1.20242
1.21798
1.23663
1.25605
1.27577
1.29528
1.31327
1.33072
1.34046
1.35103
1.35795
1.36089
1.36279
1.36277
1.36198
1.3608
1.36077
1.36028
1.35921
1.35812
1.35728
1.35608
1.35599
1.35655
1.35763
1.35806
1.35759
1.35659
1.35539
1.35419
1.35336
1.35376
1.3553
1.35752
1.36032
1.36135
1.35988
1.35752
1.35536
1.35555
1.35702
1.35876
1.35961
1.35834
1.35639
1.35622
1.35715
1.35843
1.35804
1.35699
1.35625
1.35665
1.35734
1.35729
1.35715
1.35724
1.35758
1.35743
1.35702
1.3564
1.35648
1.35651
1.35667
1.35665
1.35636
1.12387
1.12389
1.12392
1.12394
1.12396
1.12398
1.12398
1.12398
1.12398
1.12401
1.12402
1.12402
1.12398
1.12392
1.1239
1.12391
1.12392
1.12397
1.12402
1.12406
1.12415
1.12415
1.12418
1.12421
1.12425
1.12429
1.12437
1.12453
1.1248
1.12519
1.12588
1.12691
1.12845
1.13072
1.13387
1.1384
1.14462
1.15252
1.1638
1.17663
1.19424
1.21349
1.23506
1.25999
1.28177
1.30425
1.32177
1.33912
1.35026
1.3551
1.36022
1.3615
1.36124
1.3616
1.36194
1.36161
1.36038
1.35916
1.3595
1.36099
1.36251
1.36334
1.36313
1.36227
1.36063
1.35894
1.35732
1.35758
1.35879
1.36111
1.36269
1.36387
1.36407
1.36287
1.36142
1.36088
1.36139
1.36206
1.36298
1.36237
1.36149
1.36101
1.36148
1.36225
1.3621
1.36152
1.36101
1.36123
1.3615
1.36143
1.3614
1.36161
1.36189
1.36167
1.36107
1.36069
1.36072
1.36085
1.3608
1.36047
1.12579
1.12581
1.12583
1.12584
1.12585
1.12586
1.12588
1.12588
1.12588
1.12588
1.12589
1.12589
1.12586
1.12581
1.12577
1.12575
1.12574
1.12572
1.1257
1.12565
1.12557
1.12548
1.12538
1.1253
1.12523
1.12518
1.12512
1.12511
1.12514
1.12525
1.12524
1.12523
1.12524
1.12528
1.12538
1.12557
1.12606
1.12693
1.12845
1.1309
1.13495
1.14101
1.14993
1.16302
1.17938
1.2002
1.22586
1.25038
1.27619
1.30146
1.32155
1.33726
1.34436
1.35022
1.35824
1.36098
1.35975
1.3586
1.35981
1.36284
1.36494
1.36495
1.3643
1.3633
1.36286
1.36283
1.3624
1.36156
1.36123
1.36156
1.36221
1.36353
1.36416
1.36496
1.36553
1.36498
1.36397
1.36333
1.36375
1.36435
1.36481
1.36425
1.36343
1.36368
1.36424
1.36436
1.364
1.3636
1.36373
1.36409
1.36409
1.36389
1.36402
1.36434
1.36427
1.36383
1.36341
1.36349
1.36348
1.36327
1.12663
1.12664
1.12664
1.12665
1.12666
1.12666
1.12663
1.12662
1.12662
1.12662
1.12663
1.12662
1.12658
1.12655
1.12652
1.12648
1.12643
1.12639
1.12634
1.12628
1.12619
1.12608
1.12601
1.12594
1.12586
1.1258
1.12572
1.12564
1.12556
1.12548
1.12541
1.12535
1.12531
1.12525
1.12521
1.12522
1.12521
1.12518
1.12517
1.1252
1.12531
1.12567
1.1265
1.12801
1.13107
1.13599
1.14445
1.15693
1.17499
1.19792
1.22365
1.25291
1.28341
1.30551
1.32086
1.34279
1.3528
1.35644
1.35844
1.36177
1.36399
1.36377
1.36099
1.36077
1.36169
1.36378
1.36532
1.36504
1.36386
1.36218
1.36215
1.36253
1.36327
1.3649
1.36572
1.36568
1.36524
1.36447
1.36429
1.36457
1.36485
1.36519
1.36503
1.36471
1.36497
1.36531
1.36522
1.3649
1.36458
1.36475
1.365
1.3653
1.36521
1.36536
1.36548
1.36537
1.36501
1.36481
1.36479
1.36468
1.12704
1.12704
1.12703
1.12702
1.12701
1.127
1.12697
1.12694
1.12691
1.12689
1.12687
1.12685
1.12683
1.1268
1.12675
1.12668
1.1266
1.12653
1.12646
1.12639
1.12631
1.12622
1.12612
1.12604
1.12598
1.12592
1.12585
1.12578
1.12571
1.12566
1.1256
1.12553
1.12544
1.12535
1.12527
1.12519
1.12511
1.12502
1.12496
1.12489
1.1249
1.12489
1.12488
1.12489
1.12494
1.12513
1.12567
1.12697
1.12971
1.13481
1.14468
1.15828
1.17915
1.20782
1.23665
1.26411
1.29291
1.32367
1.33154
1.34113
1.35034
1.35481
1.35562
1.3598
1.36378
1.36635
1.36637
1.36579
1.36449
1.36314
1.36213
1.3625
1.3636
1.36447
1.36508
1.3651
1.36491
1.36495
1.36499
1.36491
1.36478
1.36495
1.36507
1.36523
1.36539
1.36555
1.36557
1.36542
1.36512
1.365
1.36508
1.36534
1.36568
1.36611
1.36611
1.366
1.36576
1.36538
1.36534
1.36533
1.12729
1.12728
1.12727
1.12726
1.12724
1.12722
1.12719
1.12716
1.12712
1.12708
1.12705
1.12702
1.12698
1.12693
1.12687
1.12679
1.1267
1.12659
1.12651
1.12647
1.12642
1.12635
1.12626
1.12619
1.12611
1.12602
1.12594
1.12585
1.1258
1.12576
1.12572
1.12564
1.12553
1.12543
1.12533
1.12522
1.12512
1.12501
1.12492
1.12484
1.12476
1.12469
1.12464
1.1246
1.12461
1.12461
1.12461
1.1246
1.12464
1.12476
1.12532
1.12683
1.1306
1.13725
1.15101
1.16923
1.19557
1.22746
1.26114
1.29174
1.31258
1.33674
1.35005
1.35801
1.36077
1.36413
1.36358
1.3607
1.36089
1.36206
1.36336
1.36444
1.36427
1.3638
1.36308
1.36338
1.36397
1.36511
1.36543
1.36528
1.3649
1.36484
1.36502
1.36541
1.36551
1.36552
1.36546
1.36543
1.36543
1.3653
1.36517
1.36528
1.36561
1.36608
1.36639
1.36634
1.36615
1.36578
1.36557
1.36561
1.12754
1.12753
1.12752
1.12751
1.12749
1.12747
1.12744
1.12741
1.12737
1.12734
1.12731
1.12727
1.12724
1.12719
1.12712
1.12704
1.12691
1.12682
1.12679
1.12676
1.12671
1.12659
1.12646
1.12634
1.12624
1.12614
1.12604
1.12595
1.12589
1.12584
1.12579
1.12573
1.12564
1.12553
1.12542
1.12531
1.12518
1.12507
1.12497
1.1249
1.12485
1.1248
1.12479
1.1248
1.12482
1.12481
1.12479
1.12475
1.12466
1.1246
1.12457
1.1246
1.12472
1.12507
1.12626
1.12891
1.1357
1.1464
1.16728
1.19356
1.22715
1.26126
1.29082
1.32041
1.33062
1.34485
1.34837
1.35496
1.35988
1.36535
1.36609
1.36576
1.36445
1.36157
1.3617
1.3625
1.36419
1.36512
1.36509
1.36459
1.36463
1.36491
1.36538
1.3656
1.36551
1.36535
1.36532
1.36547
1.36562
1.3655
1.36531
1.36535
1.36563
1.366
1.36638
1.3665
1.36638
1.36612
1.36583
1.36582
1.12709
1.12709
1.12708
1.12707
1.12705
1.12702
1.12699
1.12697
1.12691
1.1269
1.12689
1.12688
1.12686
1.12683
1.12676
1.12667
1.1266
1.12656
1.12656
1.12658
1.12657
1.12651
1.1264
1.12633
1.12631
1.12629
1.12625
1.12619
1.12614
1.1261
1.12607
1.12604
1.12599
1.12591
1.12581
1.12571
1.12562
1.1255
1.1254
1.12539
1.12541
1.12541
1.12542
1.12545
1.12549
1.12549
1.12544
1.12536
1.12525
1.12517
1.12513
1.12512
1.12514
1.12524
1.12523
1.12528
1.12555
1.12651
1.1295
1.13541
1.14922
1.16811
1.19952
1.23351
1.26892
1.3039
1.32596
1.35007
1.35664
1.36324
1.3631
1.36104
1.35906
1.36026
1.36242
1.36474
1.36479
1.36454
1.36354
1.36372
1.36453
1.36578
1.36582
1.36562
1.36528
1.36519
1.36545
1.36573
1.36574
1.36562
1.36549
1.36562
1.36586
1.366
1.36629
1.36662
1.36654
1.36642
1.36624
1.36608
1.12666
1.12665
1.12664
1.12663
1.12661
1.12658
1.12655
1.12654
1.12654
1.12654
1.12655
1.12656
1.12656
1.12654
1.12648
1.12645
1.12643
1.12643
1.12645
1.12648
1.12649
1.12649
1.12647
1.12646
1.12647
1.12649
1.12649
1.12648
1.12645
1.12643
1.12642
1.1264
1.12638
1.12633
1.12626
1.1262
1.12613
1.12605
1.12602
1.12603
1.12606
1.12608
1.12612
1.12616
1.12621
1.12625
1.12625
1.1262
1.12613
1.12608
1.12603
1.12597
1.12588
1.12574
1.12567
1.1257
1.12581
1.12592
1.12616
1.12664
1.12799
1.13096
1.13894
1.15201
1.17806
1.20823
1.24628
1.28523
1.30857
1.33475
1.34083
1.34885
1.35514
1.36406
1.36664
1.36639
1.3648
1.36215
1.36235
1.36385
1.36579
1.36636
1.36601
1.3652
1.36516
1.36556
1.36598
1.36593
1.36575
1.36571
1.36588
1.36619
1.36622
1.36613
1.36625
1.36658
1.36672
1.36675
1.36671
1.36647
1.12612
1.12611
1.12609
1.12607
1.12607
1.12607
1.12607
1.12608
1.12608
1.12608
1.12609
1.12611
1.12611
1.1261
1.1261
1.12611
1.12614
1.12616
1.12617
1.1262
1.12624
1.1263
1.12635
1.12638
1.12642
1.12645
1.12645
1.12645
1.12645
1.12645
1.12644
1.12645
1.12644
1.12643
1.12639
1.12636
1.12633
1.12633
1.12637
1.12645
1.12653
1.12663
1.12675
1.12686
1.12696
1.12705
1.12715
1.1272
1.12719
1.1272
1.1272
1.12717
1.12709
1.12693
1.12673
1.12659
1.12657
1.12658
1.12667
1.12696
1.12722
1.12739
1.12784
1.12915
1.13352
1.14211
1.16247
1.18893
1.22855
1.26971
1.30255
1.33898
1.35111
1.3606
1.36356
1.36155
1.35823
1.36001
1.36343
1.36642
1.3667
1.36618
1.36487
1.365
1.36579
1.36643
1.36623
1.36593
1.36579
1.36612
1.36668
1.36672
1.36654
1.36637
1.36643
1.36659
1.36691
1.36712
1.36716
1.36697
1.12576
1.12572
1.12571
1.12571
1.12571
1.12571
1.12571
1.12571
1.12572
1.12573
1.12574
1.12575
1.12575
1.12577
1.12578
1.12579
1.12581
1.12584
1.12587
1.1259
1.12595
1.12602
1.1261
1.12617
1.12622
1.12625
1.1263
1.12634
1.12635
1.12637
1.12641
1.12646
1.12648
1.12649
1.1265
1.12652
1.12655
1.1266
1.1267
1.12682
1.12695
1.12709
1.12721
1.1273
1.12739
1.12749
1.1276
1.12772
1.12782
1.12794
1.12802
1.12802
1.128
1.12792
1.12778
1.12761
1.12753
1.12753
1.12751
1.12752
1.12756
1.12764
1.12772
1.1277
1.12777
1.12825
1.13057
1.13635
1.15239
1.17537
1.21436
1.2562
1.29014
1.32366
1.33511
1.3464
1.35368
1.36487
1.36759
1.36738
1.36576
1.3637
1.36414
1.36604
1.3672
1.36693
1.3663
1.36596
1.3664
1.36706
1.3674
1.36718
1.36685
1.36678
1.3668
1.36683
1.36709
1.36757
1.36765
1.3675
1.12579
1.12575
1.12574
1.12575
1.12574
1.12574
1.12574
1.12575
1.12576
1.12578
1.12578
1.12579
1.12581
1.12584
1.12589
1.12595
1.12601
1.12607
1.12613
1.12622
1.12633
1.12642
1.12649
1.12658
1.12665
1.12669
1.12673
1.12679
1.12685
1.12689
1.12693
1.12698
1.12702
1.12706
1.12707
1.12709
1.12712
1.1272
1.12728
1.12737
1.12746
1.12753
1.12757
1.1276
1.12765
1.12772
1.12782
1.12794
1.12808
1.12822
1.12839
1.12849
1.12851
1.12851
1.12848
1.12842
1.12842
1.12842
1.12837
1.12825
1.12824
1.12827
1.12822
1.12811
1.12802
1.12781
1.12775
1.12794
1.12944
1.13362
1.14644
1.16665
1.20514
1.24764
1.28701
1.33058
1.34866
1.36103
1.3641
1.36156
1.35941
1.36181
1.36587
1.36821
1.36766
1.36606
1.36589
1.36653
1.36754
1.36766
1.36756
1.36739
1.36743
1.36739
1.36725
1.36716
1.36735
1.36789
1.36812
1.36807
1.12613
1.12613
1.12613
1.12612
1.12612
1.12612
1.12614
1.12618
1.12626
1.12628
1.12627
1.12628
1.12632
1.12637
1.1265
1.12658
1.12658
1.12659
1.12664
1.12681
1.1269
1.12691
1.12693
1.12699
1.12708
1.12715
1.12719
1.12725
1.12733
1.1274
1.12744
1.12748
1.12753
1.12759
1.12763
1.12767
1.12772
1.12781
1.12785
1.12789
1.12795
1.12796
1.12795
1.12793
1.12793
1.12794
1.12797
1.12804
1.12816
1.1283
1.12845
1.12856
1.12862
1.12867
1.1287
1.12872
1.12874
1.12878
1.12876
1.12875
1.12883
1.12895
1.12897
1.12889
1.12872
1.12846
1.12817
1.12816
1.12818
1.12836
1.12941
1.13253
1.14324
1.16163
1.1988
1.24093
1.28072
1.31897
1.33318
1.34605
1.35526
1.36719
1.36898
1.36802
1.36504
1.36522
1.36658
1.36817
1.36855
1.36812
1.36754
1.36772
1.36803
1.36799
1.3677
1.36761
1.36784
1.36818
1.3685
1.3686
1.12695
1.12693
1.12692
1.12691
1.1269
1.12691
1.12693
1.12698
1.12702
1.12704
1.12704
1.12704
1.12704
1.12706
1.12714
1.12727
1.1273
1.1273
1.12732
1.12738
1.12744
1.12751
1.12759
1.12766
1.12773
1.12779
1.12785
1.12792
1.12801
1.12812
1.12818
1.12821
1.12824
1.12828
1.12833
1.12841
1.12845
1.12846
1.12848
1.12849
1.12849
1.12848
1.12844
1.12836
1.12827
1.12823
1.12821
1.12821
1.12822
1.1283
1.12845
1.12856
1.12863
1.12873
1.12882
1.12887
1.12891
1.12894
1.12894
1.12891
1.12897
1.1292
1.12936
1.12937
1.12935
1.12928
1.12908
1.12882
1.1287
1.12874
1.12883
1.12899
1.12976
1.13235
1.14179
1.1591
1.19635
1.23925
1.28364
1.33118
1.34997
1.36362
1.36465
1.35972
1.36082
1.36449
1.3686
1.36892
1.36842
1.36738
1.3676
1.36838
1.36845
1.36822
1.36802
1.36822
1.36846
1.3685
1.36872
1.36904
1.12816
1.12816
1.12816
1.12816
1.12814
1.12813
1.12816
1.12817
1.12817
1.12817
1.12814
1.12812
1.12812
1.12815
1.12822
1.12825
1.12828
1.12831
1.12832
1.1283
1.1283
1.12835
1.12843
1.1285
1.12856
1.12863
1.12871
1.12881
1.12889
1.12899
1.12907
1.12909
1.12908
1.12909
1.12912
1.12914
1.12913
1.12911
1.1291
1.12907
1.12904
1.12899
1.12893
1.12883
1.1287
1.12858
1.12847
1.12843
1.12842
1.12844
1.12853
1.12862
1.12869
1.12883
1.12894
1.12902
1.12907
1.12908
1.12907
1.12902
1.12903
1.12927
1.12949
1.12953
1.12956
1.12956
1.12952
1.12945
1.12941
1.1294
1.12932
1.12932
1.12938
1.12955
1.13021
1.1325
1.14123
1.15858
1.19616
1.24028
1.28365
1.32176
1.337
1.34821
1.36179
1.36956
1.36942
1.36793
1.36627
1.36701
1.36883
1.3691
1.36877
1.36829
1.3685
1.36898
1.36895
1.36878
1.36888
1.36934
1.12936
1.12935
1.12935
1.12937
1.12939
1.1294
1.1294
1.12939
1.12938
1.12935
1.12931
1.12931
1.12933
1.12934
1.12931
1.12924
1.12923
1.12924
1.12926
1.1293
1.12931
1.1293
1.12929
1.12931
1.12935
1.1294
1.12945
1.1295
1.12958
1.12968
1.12976
1.12976
1.12973
1.12971
1.12972
1.1297
1.12968
1.12966
1.12962
1.12956
1.12949
1.12945
1.12942
1.12936
1.12923
1.12909
1.12891
1.12879
1.12876
1.12876
1.12879
1.12882
1.12892
1.12911
1.12919
1.12928
1.12936
1.12934
1.12933
1.12934
1.12934
1.12947
1.12959
1.1296
1.1296
1.12961
1.12961
1.1296
1.12966
1.12975
1.12976
1.12976
1.12978
1.12988
1.12997
1.13006
1.13054
1.13276
1.14156
1.16039
1.19998
1.24574
1.29467
1.33891
1.35701
1.36676
1.36409
1.36023
1.36339
1.36811
1.36951
1.36911
1.36804
1.3683
1.36926
1.3695
1.36928
1.369
1.36918
1.36961
1.13003
1.13002
1.13
1.12998
1.12998
1.12998
1.12998
1.12998
1.12996
1.12993
1.12992
1.12992
1.12993
1.12992
1.12988
1.1298
1.12973
1.12973
1.1298
1.12984
1.12983
1.12979
1.12974
1.12974
1.12977
1.1298
1.12982
1.12985
1.12996
1.1301
1.13017
1.13021
1.13023
1.13019
1.13014
1.13014
1.13015
1.13009
1.13
1.12995
1.12993
1.12988
1.12985
1.12987
1.12989
1.12986
1.12968
1.12954
1.12951
1.12952
1.1295
1.12948
1.12958
1.12977
1.12979
1.1298
1.12984
1.12977
1.12965
1.12962
1.12964
1.12968
1.12965
1.12962
1.12959
1.12956
1.12956
1.12958
1.12972
1.12986
1.12992
1.12994
1.12996
1.13006
1.13014
1.13016
1.1301
1.13013
1.13067
1.13339
1.14306
1.16469
1.20578
1.25465
1.29785
1.32963
1.34362
1.35579
1.36897
1.3698
1.36888
1.36677
1.36745
1.36946
1.37006
1.36965
1.36909
1.36924
1.36961
1.36987
1.13024
1.13021
1.13013
1.13005
1.13004
1.13003
1.13002
1.13001
1.13002
1.13004
1.13004
1.13004
1.13003
1.13002
1.13
1.12998
1.12996
1.12997
1.13001
1.13002
1.13003
1.13
1.12991
1.12988
1.12991
1.12995
1.12994
1.12996
1.13002
1.13014
1.13027
1.13033
1.13028
1.13025
1.13023
1.13013
1.13007
1.13011
1.1301
1.13009
1.13014
1.13016
1.13015
1.1302
1.13033
1.13044
1.13036
1.13019
1.13015
1.13018
1.13025
1.13024
1.13036
1.13045
1.13044
1.13038
1.13027
1.13011
1.1301
1.13013
1.13014
1.13009
1.12996
1.12972
1.12959
1.12959
1.1296
1.12964
1.1298
1.12998
1.13004
1.13002
1.12998
1.13001
1.13008
1.13009
1.13006
1.13007
1.13012
1.1303
1.13116
1.13469
1.14567
1.17143
1.21593
1.26499
1.31894
1.34907
1.36534
1.36498
1.36007
1.36319
1.36861
1.3705
1.36996
1.36868
1.36892
1.36978
1.36996
1.36985
1.13031
1.13024
1.13017
1.1301
1.13
1.12995
1.12995
1.12995
1.12994
1.12991
1.12986
1.12986
1.12989
1.12995
1.13005
1.13012
1.13014
1.13016
1.13017
1.13018
1.13017
1.13007
1.13004
1.13003
1.13001
1.13005
1.13009
1.13008
1.13011
1.13022
1.13026
1.13025
1.13027
1.13026
1.13008
1.1299
1.12986
1.12987
1.13002
1.13014
1.13015
1.13011
1.13014
1.13033
1.13055
1.13071
1.13073
1.13049
1.13033
1.13033
1.1304
1.13063
1.13082
1.13083
1.13078
1.13075
1.13067
1.13042
1.13034
1.13047
1.13072
1.13075
1.13068
1.13028
1.12995
1.12983
1.1298
1.12982
1.12997
1.13015
1.13017
1.13009
1.12999
1.12996
1.12996
1.12997
1.13001
1.13007
1.1302
1.13041
1.13055
1.13085
1.13186
1.13642
1.14913
1.18075
1.22732
1.27755
1.31876
1.33929
1.35096
1.3684
1.37076
1.36982
1.36728
1.36794
1.36979
1.37041
1.37009
1.36978
1.13065
1.13063
1.13056
1.13042
1.13012
1.12988
1.12983
1.12985
1.1299
1.12992
1.12989
1.12983
1.12984
1.12987
1.1299
1.12989
1.1299
1.12993
1.12999
1.13007
1.13009
1.13008
1.13012
1.13011
1.13012
1.13028
1.13031
1.13034
1.13058
1.13085
1.13097
1.13096
1.13087
1.13055
1.13018
1.13014
1.13019
1.13011
1.13001
1.13008
1.13008
1.13004
1.13028
1.1307
1.13072
1.13071
1.13081
1.13061
1.13033
1.13029
1.13032
1.13066
1.13105
1.1311
1.13101
1.13077
1.13049
1.13031
1.13027
1.13042
1.13102
1.13131
1.13126
1.13087
1.13055
1.13038
1.13019
1.13013
1.13017
1.13026
1.13028
1.13022
1.13012
1.13001
1.12993
1.12994
1.13001
1.13019
1.13036
1.13051
1.13062
1.13065
1.13066
1.13083
1.13215
1.13824
1.15562
1.19374
1.24278
1.30168
1.3424
1.3638
1.36625
1.35988
1.36309
1.36867
1.37055
1.3702
1.3693
1.36961
1.13065
1.13061
1.13048
1.13021
1.13009
1.13007
1.13007
1.13014
1.13025
1.13027
1.13023
1.13011
1.13002
1.12995
1.12991
1.12991
1.12992
1.12993
1.12997
1.1301
1.13023
1.13043
1.13058
1.13056
1.13059
1.13087
1.13098
1.1311
1.13147
1.13165
1.13163
1.13155
1.13131
1.13072
1.13036
1.13036
1.13038
1.13012
1.12994
1.13002
1.12996
1.13001
1.13047
1.13088
1.13088
1.13068
1.13069
1.1306
1.13033
1.13028
1.13028
1.13053
1.13124
1.13149
1.13143
1.13105
1.13051
1.13016
1.13007
1.13025
1.13099
1.13155
1.13151
1.1312
1.13108
1.13095
1.13059
1.13037
1.13039
1.13043
1.13045
1.13049
1.13052
1.13045
1.13029
1.13023
1.13027
1.13043
1.13057
1.13057
1.13055
1.13049
1.13036
1.13024
1.13027
1.13068
1.13316
1.14172
1.16631
1.20936
1.26422
1.31026
1.33545
1.34852
1.3677
1.37061
1.36986
1.36772
1.36862
1.3702
1.13061
1.13038
1.13033
1.13033
1.13035
1.13049
1.13065
1.1307
1.13066
1.13052
1.13035
1.1302
1.13008
1.13002
1.12998
1.12989
1.12979
1.12979
1.12982
1.12991
1.13009
1.1305
1.13074
1.13074
1.13083
1.13126
1.1314
1.13155
1.1319
1.132
1.13197
1.13182
1.13147
1.13079
1.13048
1.1305
1.1305
1.13013
1.12983
1.12991
1.12988
1.12997
1.13056
1.13095
1.13087
1.13079
1.13078
1.13047
1.13036
1.13044
1.13055
1.1308
1.13151
1.13199
1.132
1.13174
1.13104
1.13022
1.1299
1.12998
1.13071
1.13149
1.13149
1.13131
1.13128
1.13112
1.1307
1.13041
1.13037
1.13038
1.1304
1.13061
1.13099
1.13107
1.13096
1.13074
1.13063
1.13062
1.13062
1.13057
1.13046
1.13028
1.13014
1.13007
1.13007
1.13013
1.13034
1.13117
1.13516
1.14794
1.18154
1.22974
1.28917
1.33799
1.36236
1.3664
1.36
1.36343
1.3679
1.37046
1.13007
1.13003
1.13002
1.13005
1.13013
1.13018
1.13018
1.13005
1.12974
1.12966
1.12971
1.12976
1.12965
1.12936
1.12914
1.12895
1.12876
1.12871
1.12871
1.12873
1.12889
1.12921
1.12936
1.12945
1.12998
1.13056
1.13059
1.13075
1.13134
1.13163
1.13163
1.13154
1.13131
1.13078
1.13046
1.13049
1.1305
1.13023
1.13007
1.13014
1.13004
1.13012
1.13086
1.13148
1.1315
1.13128
1.13088
1.13064
1.13067
1.13084
1.13091
1.13102
1.13153
1.13204
1.1321
1.13202
1.13171
1.13106
1.13022
1.12992
1.13016
1.13075
1.13113
1.13131
1.13131
1.13103
1.13072
1.13068
1.13062
1.13055
1.13057
1.13075
1.13116
1.13139
1.13134
1.13112
1.13089
1.13075
1.13068
1.13055
1.13038
1.13017
1.13005
1.13006
1.13015
1.13034
1.13056
1.13066
1.1309
1.13229
1.13869
1.15865
1.19941
1.25618
1.30346
1.33389
1.34857
1.36804
1.37063
1.36999
1.12739
1.12739
1.12735
1.12716
1.12706
1.12703
1.12704
1.12714
1.12717
1.1272
1.12725
1.12718
1.12701
1.12688
1.1269
1.1271
1.12716
1.12714
1.12715
1.12736
1.12768
1.12781
1.12787
1.12818
1.12891
1.12905
1.12914
1.12966
1.13043
1.13075
1.13078
1.13072
1.13062
1.13057
1.13059
1.13064
1.13063
1.13041
1.13035
1.13054
1.13059
1.13062
1.13114
1.13172
1.13177
1.13159
1.13154
1.13156
1.13134
1.13095
1.13074
1.13077
1.13112
1.13156
1.13177
1.13176
1.1317
1.13148
1.13083
1.1301
1.12993
1.13009
1.13058
1.13111
1.13119
1.13109
1.13114
1.13129
1.13131
1.13114
1.1309
1.13091
1.13113
1.13134
1.13133
1.13116
1.13081
1.13053
1.13047
1.13045
1.13039
1.1304
1.13041
1.13045
1.13054
1.13061
1.13065
1.13069
1.13061
1.13064
1.13106
1.13391
1.14482
1.17507
1.22306
1.2857
1.3358
1.36429
1.3649
1.36284
1.1255
1.12545
1.12545
1.12544
1.12542
1.12541
1.12541
1.12548
1.1256
1.12562
1.12564
1.12563
1.12554
1.12548
1.12559
1.12591
1.12605
1.12608
1.12628
1.12676
1.1269
1.12669
1.12658
1.12671
1.12673
1.12674
1.12713
1.1279
1.12865
1.12906
1.1291
1.12907
1.12899
1.12905
1.12929
1.12956
1.12958
1.12957
1.12957
1.12981
1.12995
1.12991
1.13005
1.13062
1.13099
1.13112
1.13126
1.13123
1.13087
1.13002
1.12908
1.12861
1.12865
1.12883
1.12928
1.13037
1.13122
1.13119
1.13087
1.13047
1.13035
1.13051
1.13099
1.13111
1.13106
1.13114
1.13154
1.13172
1.1317
1.13146
1.13107
1.13082
1.13077
1.1308
1.13082
1.13067
1.1305
1.13042
1.13043
1.1305
1.13069
1.13087
1.1309
1.1309
1.13083
1.13081
1.13072
1.1306
1.13057
1.13053
1.13055
1.13071
1.13193
1.13739
1.1561
1.19544
1.25301
1.30601
1.33246
1.3552
1.13111
1.13124
1.13128
1.13129
1.13125
1.13108
1.13095
1.13097
1.13099
1.13093
1.13086
1.13093
1.13085
1.1306
1.13061
1.13081
1.1308
1.13051
1.13032
1.13022
1.12997
1.12918
1.12777
1.12721
1.12712
1.12702
1.12682
1.12689
1.12736
1.12787
1.12801
1.12803
1.12808
1.12826
1.12839
1.12833
1.12807
1.12777
1.12762
1.12736
1.12669
1.12637
1.12633
1.12663
1.12811
1.13001
1.13033
1.13017
1.12945
1.12827
1.127
1.12641
1.12643
1.12667
1.12747
1.12906
1.13021
1.13041
1.13042
1.13044
1.13063
1.13107
1.13134
1.1313
1.13113
1.1311
1.13135
1.13158
1.13155
1.13125
1.13064
1.13016
1.13002
1.13003
1.13002
1.13008
1.13028
1.13064
1.1309
1.13102
1.13113
1.13115
1.13113
1.13111
1.13099
1.13069
1.13047
1.13053
1.13063
1.13068
1.13083
1.13102
1.13111
1.13149
1.13392
1.14389
1.17402
1.22318
1.28764
1.34693
1.133
1.13319
1.13361
1.13369
1.13364
1.13365
1.13379
1.13384
1.13366
1.1335
1.13342
1.1328
1.13103
1.13025
1.13033
1.13061
1.13067
1.13058
1.13024
1.1295
1.12791
1.12559
1.12481
1.12491
1.12506
1.12499
1.12449
1.12423
1.12447
1.12491
1.12552
1.12628
1.12661
1.12677
1.12681
1.12665
1.12618
1.12553
1.12529
1.12511
1.1242
1.12323
1.12315
1.12333
1.12442
1.12728
1.12928
1.12942
1.12927
1.12848
1.12706
1.12599
1.12581
1.12601
1.12681
1.12835
1.12934
1.12931
1.12923
1.12927
1.12964
1.13048
1.13068
1.13052
1.12995
1.12937
1.12925
1.12932
1.12935
1.12924
1.12924
1.12944
1.12974
1.12993
1.12996
1.13009
1.13052
1.13118
1.1314
1.13136
1.13131
1.13128
1.13119
1.13091
1.13054
1.13041
1.13047
1.13068
1.13098
1.1312
1.1313
1.13127
1.1312
1.13106
1.13111
1.13202
1.13712
1.15693
1.19606
1.27696
1.13811
1.13835
1.13855
1.13866
1.13874
1.13872
1.13831
1.13747
1.13708
1.13735
1.13767
1.13749
1.13643
1.13374
1.13253
1.13256
1.13312
1.13335
1.13328
1.13283
1.13129
1.12961
1.12947
1.12961
1.12958
1.12925
1.12865
1.12839
1.12887
1.12937
1.12927
1.12952
1.13036
1.13081
1.13065
1.1302
1.12923
1.12768
1.1272
1.12728
1.12739
1.12743
1.12773
1.12802
1.12888
1.13119
1.13242
1.13279
1.13308
1.13312
1.13277
1.13233
1.13183
1.13112
1.13081
1.13076
1.13046
1.12942
1.12813
1.12785
1.12787
1.12819
1.12857
1.12856
1.12821
1.12768
1.12735
1.12732
1.12745
1.12763
1.12796
1.12867
1.12975
1.13001
1.13019
1.13028
1.13064
1.13124
1.13147
1.13143
1.13123
1.13088
1.13062
1.13027
1.1303
1.13041
1.13073
1.13124
1.13157
1.13157
1.13152
1.1314
1.13112
1.13095
1.13091
1.13094
1.13134
1.13411
1.14411
1.2016
1.17008
1.17024
1.17043
1.17048
1.17042
1.17025
1.16941
1.16768
1.16726
1.16704
1.16672
1.16676
1.16702
1.16629
1.1637
1.16289
1.16325
1.16467
1.16538
1.16521
1.16482
1.16467
1.16429
1.16348
1.16161
1.16025
1.16004
1.15963
1.15778
1.15449
1.15392
1.15434
1.15419
1.15243
1.15009
1.14841
1.1465
1.14432
1.14234
1.14106
1.14085
1.14123
1.14186
1.14196
1.14116
1.13917
1.13866
1.13858
1.13803
1.13683
1.13562
1.13465
1.13362
1.13279
1.13213
1.13115
1.12922
1.12709
1.12654
1.12665
1.12686
1.12698
1.12716
1.12736
1.1274
1.12742
1.12763
1.12807
1.12831
1.12851
1.12896
1.12982
1.13055
1.13058
1.13033
1.12972
1.12945
1.12954
1.12975
1.12977
1.12972
1.12977
1.12996
1.1301
1.13046
1.13094
1.13139
1.13158
1.13167
1.13164
1.13143
1.13114
1.13093
1.13097
1.13109
1.13119
1.13117
1.13124
1.13214
1.1514
1.21128
1.21055
1.21055
1.21091
1.21101
1.21105
1.20993
1.20642
1.20472
1.20269
1.19834
1.19552
1.19574
1.19619
1.19545
1.19155
1.18894
1.18933
1.18966
1.18892
1.18831
1.18857
1.18933
1.18947
1.18915
1.18811
1.1867
1.18507
1.18211
1.17797
1.17695
1.17698
1.17668
1.17519
1.17486
1.17485
1.17392
1.17124
1.16833
1.16358
1.15877
1.15794
1.15707
1.15419
1.14915
1.14572
1.14497
1.14508
1.14504
1.14423
1.14263
1.14091
1.13901
1.13769
1.13694
1.13583
1.13375
1.13112
1.13075
1.13131
1.1315
1.13102
1.1308
1.13089
1.13132
1.13226
1.13399
1.13463
1.13401
1.1324
1.13119
1.13108
1.13109
1.13091
1.13001
1.12864
1.12802
1.12812
1.12845
1.12864
1.12874
1.12897
1.12941
1.13033
1.13107
1.13124
1.13145
1.13153
1.13141
1.13116
1.13087
1.13087
1.13097
1.13124
1.13148
1.13147
1.13132
1.13114
1.13111
1.13498
1.27261
1.27277
1.27307
1.27342
1.27358
1.27355
1.2727
1.27246
1.27224
1.27012
1.26564
1.26491
1.26499
1.26229
1.25573
1.25435
1.2543
1.25341
1.25142
1.24938
1.24788
1.24626
1.24426
1.24258
1.24168
1.23913
1.23435
1.23164
1.2291
1.2262
1.22377
1.22109
1.21791
1.21685
1.21751
1.21936
1.21923
1.21721
1.21437
1.21243
1.21004
1.20745
1.20544
1.20281
1.19926
1.1947
1.1882
1.18612
1.18599
1.1844
1.18042
1.17625
1.17221
1.17027
1.16996
1.1694
1.16744
1.16267
1.1588
1.15593
1.15297
1.14939
1.14675
1.14473
1.14231
1.14023
1.13913
1.13783
1.13567
1.13209
1.12992
1.13005
1.12996
1.12938
1.12877
1.12826
1.12804
1.12826
1.12869
1.12914
1.12991
1.13074
1.13121
1.13103
1.13084
1.13049
1.13023
1.13001
1.12995
1.13004
1.13033
1.13054
1.13111
1.13154
1.13159
1.13153
1.13131
1.13097
1.13097
1.13152
1.32587
1.32534
1.32439
1.32393
1.32423
1.32466
1.32471
1.32436
1.32235
1.31979
1.31954
1.31999
1.31925
1.31593
1.31156
1.30964
1.3096
1.31026
1.31006
1.30756
1.30682
1.30764
1.30768
1.30757
1.30733
1.30503
1.30304
1.30089
1.29475
1.29022
1.28869
1.28613
1.28339
1.28126
1.27909
1.27641
1.27286
1.26823
1.26269
1.2565
1.24943
1.24479
1.24428
1.24536
1.24496
1.24223
1.23775
1.23423
1.23332
1.23037
1.22328
1.21717
1.21185
1.20477
1.20005
1.19696
1.19357
1.18928
1.18491
1.18122
1.17763
1.17223
1.16598
1.16085
1.15599
1.15056
1.14686
1.14506
1.14342
1.13951
1.13503
1.13513
1.13539
1.13441
1.13252
1.13266
1.13379
1.13447
1.13411
1.13397
1.13391
1.13367
1.13299
1.13196
1.1308
1.12986
1.12955
1.12938
1.12941
1.12965
1.12999
1.13066
1.13108
1.13137
1.13124
1.13104
1.13078
1.13078
1.13095
1.13158
1.40192
1.40003
1.39909
1.39805
1.39688
1.3968
1.39742
1.39791
1.39726
1.39518
1.39198
1.38992
1.38954
1.38884
1.38535
1.38094
1.38085
1.38078
1.37846
1.37354
1.36907
1.36829
1.3686
1.36851
1.36704
1.36103
1.35785
1.35754
1.35595
1.35067
1.34902
1.34867
1.34692
1.34278
1.34219
1.34197
1.34029
1.33647
1.33181
1.32708
1.32182
1.31698
1.31394
1.30864
1.30199
1.29701
1.29024
1.2846
1.2847
1.28454
1.28047
1.27421
1.26967
1.26514
1.25953
1.25408
1.24873
1.23948
1.2329
1.22994
1.2263
1.22147
1.21624
1.21192
1.2072
1.19946
1.19006
1.18498
1.18346
1.18068
1.17313
1.16609
1.16178
1.15813
1.15259
1.14846
1.14564
1.14304
1.13975
1.13645
1.13431
1.13257
1.13128
1.13066
1.13035
1.13002
1.12969
1.12985
1.13055
1.13128
1.13106
1.13066
1.13066
1.13036
1.13005
1.13009
1.13018
1.13046
1.13103
1.13146
1.47517
1.47418
1.47263
1.46968
1.46728
1.46674
1.46719
1.46823
1.46818
1.46729
1.46453
1.46088
1.46028
1.4604
1.46008
1.4572
1.4542
1.45378
1.45324
1.45025
1.44623
1.44579
1.44532
1.44411
1.44175
1.43837
1.43508
1.43182
1.42853
1.42499
1.42113
1.41779
1.41471
1.41096
1.40757
1.40508
1.40224
1.39536
1.39082
1.38918
1.38573
1.37973
1.37864
1.37773
1.37431
1.36926
1.36324
1.35679
1.35154
1.34685
1.33701
1.32668
1.32462
1.32245
1.31744
1.31147
1.30677
1.30116
1.29403
1.28814
1.27981
1.26759
1.25969
1.25428
1.24938
1.2449
1.23883
1.22838
1.21717
1.21025
1.2055
1.19806
1.18893
1.18123
1.17474
1.16725
1.16016
1.15432
1.14923
1.14403
1.1403
1.13811
1.1353
1.13499
1.13475
1.13551
1.13573
1.13529
1.13472
1.13379
1.13244
1.13126
1.13035
1.1299
1.12983
1.12996
1.1303
1.13094
1.13121
1.13106
1.55481
1.55369
1.55297
1.55171
1.54848
1.5448
1.54373
1.54416
1.54482
1.54459