/*--------------------------------*- C++ -*----------------------------------*\
  =========                 |
  \\      /  F ield         | OpenFOAM: The Open Source CFD Toolbox
   \\    /   O peration     | Website:  https://openfoam.org
    \\  /    A nd           | Version:  7
     \\/     M anipulation  |
\*---------------------------------------------------------------------------*/
FoamFile
{
    version     2.0;
    format      ascii;
    class       volScalarField;
    location    "12";
    object      p;
}
// * * * * * * * * * * * * * * * * * * * * * * * * * * * * * * * * * * * * * //

dimensions      [1 -1 -2 0 0 0 0];

internalField   nonuniform List<scalar> 
90000
(
0.281255
0.319662
0.357642
0.38999
0.423573
0.457333
0.484055
0.51136
0.543084
0.572228
0.600234
0.631765
0.663203
0.694954
0.728418
0.761756
0.796195
0.83021
0.865969
0.899154
0.932421
0.958838
0.985709
0.995269
1.00237
1.00872
1.00976
1.00785
1.00667
1.00466
1.00314
1.00013
0.996193
0.991729
0.986966
0.982329
0.97723
0.971316
0.96488
0.964377
0.967257
0.972227
0.978201
0.984239
0.989557
0.994394
0.997619
1.00144
1.00046
0.996057
0.98858
0.981797
0.97819
0.978588
0.981673
0.987235
0.992769
0.997318
0.997006
0.994292
0.989156
0.983952
0.980331
0.981825
0.986714
0.991787
0.9941
0.993253
0.99038
0.985951
0.984908
0.986264
0.989735
0.991734
0.990786
0.988068
0.986497
0.987276
0.989546
0.991185
0.990442
0.988812
0.98835
0.988805
0.989355
0.989558
0.989513
0.989481
0.989309
0.988994
0.988777
0.988875
0.989118
0.988991
0.988871
0.989
0.989108
0.988964
0.988522
0.988415
0.249665
0.249652
0.249633
0.249621
0.2497
0.249974
0.250494
0.251466
0.253172
0.255936
0.259732
0.265498
0.273187
0.284084
0.297619
0.315948
0.337904
0.366489
0.399208
0.440287
0.484913
0.536391
0.590662
0.645926
0.698948
0.747674
0.793804
0.831175
0.867215
0.892804
0.918034
0.931762
0.945729
0.950977
0.957852
0.960117
0.963289
0.964252
0.970264
0.979127
0.989766
0.996959
1.00243
1.00615
1.00653
1.00598
1.00488
1.00095
0.990586
0.981006
0.976641
0.978079
0.979383
0.982377
0.987492
0.992089
0.997763
0.997782
0.995042
0.988891
0.982824
0.981667
0.983914
0.986299
0.989919
0.99493
0.993954
0.990831
0.986272
0.985101
0.987047
0.991498
0.992246
0.991303
0.987854
0.985813
0.986254
0.989237
0.990973
0.99077
0.988672
0.987441
0.987519
0.989101
0.989852
0.989351
0.989217
0.989281
0.989067
0.98862
0.988554
0.98895
0.989084
0.988891
0.98888
0.989036
0.989181
0.988982
0.988678
0.988459
0.249728
0.249731
0.249733
0.249738
0.249741
0.249755
0.249755
0.249728
0.249691
0.249659
0.249638
0.249619
0.249592
0.249567
0.249547
0.249536
0.249526
0.24954
0.249713
0.250301
0.251669
0.25487
0.260371
0.270847
0.285945
0.309465
0.338857
0.378972
0.424279
0.479713
0.537918
0.601488
0.66481
0.726222
0.786467
0.837939
0.889665
0.928428
0.964015
0.981719
0.993058
0.997999
1.00233
1.00469
1.00529
1.00269
0.99308
0.976437
0.964991
0.967588
0.974249
0.98137
0.990667
0.997424
1.00113
1.00059
0.998295
0.991461
0.983322
0.978459
0.978176
0.980162
0.986448
0.996239
0.997631
0.995762
0.990639
0.984748
0.982229
0.983725
0.988493
0.994039
0.993574
0.990428
0.985539
0.985206
0.986486
0.989882
0.991786
0.990679
0.988532
0.98796
0.988633
0.988963
0.989289
0.989523
0.989503
0.989306
0.988986
0.988769
0.988742
0.989008
0.988984
0.988785
0.988746
0.989042
0.988915
0.98845
0.988144
0.988444
0.249752
0.249756
0.24976
0.249763
0.249766
0.249768
0.249771
0.249775
0.24978
0.249785
0.249791
0.249798
0.249805
0.249812
0.249819
0.249825
0.24983
0.249834
0.24984
0.249854
0.249822
0.249786
0.249752
0.249727
0.249706
0.249698
0.249664
0.249783
0.250288
0.252202
0.256386
0.266164
0.28171
0.309189
0.345045
0.397323
0.45726
0.531979
0.608575
0.683586
0.753634
0.80876
0.859767
0.890217
0.918552
0.930647
0.940328
0.946642
0.9664
0.981455
0.99709
1.0049
1.01162
1.01067
1.00814
1.00304
0.98797
0.976153
0.973671
0.975493
0.980296
0.989866
0.999854
1.00214
0.999544
0.990285
0.982829
0.981145
0.982591
0.989324
0.996109
0.996011
0.993023
0.986203
0.984211
0.985418
0.990034
0.992417
0.991288
0.988109
0.987115
0.987862
0.989424
0.989627
0.988918
0.989044
0.989486
0.989258
0.988639
0.988461
0.988935
0.989175
0.988878
0.988658
0.988733
0.988953
0.988919
0.988581
0.988401
0.988512
0.249826
0.249827
0.249828
0.249829
0.24983
0.24983
0.249829
0.249827
0.249825
0.249822
0.24982
0.249817
0.249814
0.249811
0.249808
0.249803
0.249799
0.249794
0.249789
0.249782
0.249777
0.249774
0.249772
0.249772
0.249772
0.249773
0.249774
0.249782
0.249774
0.249766
0.249758
0.249756
0.249754
0.24976
0.249755
0.25008
0.251443
0.256741
0.267864
0.292542
0.329002
0.386692
0.455965
0.541596
0.632165
0.720757
0.811398
0.884771
0.940773
0.962791
0.980389
0.987822
0.995341
0.996113
0.992939
0.9808
0.968686
0.971421
0.977246
0.98844
0.997619
1.00329
1.00112
0.997933
0.987433
0.979923
0.979093
0.981831
0.991158
0.998278
0.996806
0.99267
0.985747
0.982844
0.984429
0.990425
0.993999
0.992532
0.988287
0.986563
0.987147
0.989548
0.990441
0.989529
0.988878
0.989038
0.989418
0.989228
0.988567
0.988413
0.988929
0.989221
0.988824
0.988543
0.988659
0.988878
0.988703
0.988235
0.988177
0.988748
0.249802
0.249802
0.249802
0.249801
0.249798
0.249795
0.249792
0.24979
0.249787
0.249786
0.249783
0.249779
0.249775
0.249771
0.249768
0.249764
0.24976
0.249755
0.24975
0.249746
0.249741
0.249738
0.249735
0.249733
0.249731
0.24973
0.249729
0.249731
0.249733
0.249737
0.24974
0.249746
0.249751
0.249759
0.249766
0.249768
0.249768
0.249771
0.249772
0.249779
0.249779
0.250041
0.251621
0.258697
0.274909
0.311121
0.36663
0.452869
0.550644
0.652409
0.748952
0.815932
0.882234
0.910856
0.939269
0.946457
0.963087
0.984149
1.0053
1.01401
1.01379
1.01135
0.999754
0.981696
0.97419
0.975346
0.982098
0.99383
1.00427
1.00225
0.994205
0.983751
0.980363
0.983366
0.99162
0.996636
0.994994
0.988426
0.985293
0.986036
0.989492
0.9913
0.990211
0.988559
0.988591
0.989306
0.989438
0.988714
0.988037
0.988663
0.989425
0.98917
0.988497
0.988366
0.988824
0.98895
0.988614
0.988153
0.988103
0.988768
0.249782
0.249781
0.249779
0.249777
0.249774
0.249771
0.249767
0.249764
0.249761
0.249758
0.249755
0.249752
0.249748
0.249745
0.249742
0.249739
0.249735
0.249731
0.249726
0.249721
0.249717
0.249714
0.249712
0.249711
0.24971
0.249712
0.249715
0.24972
0.249725
0.249731
0.249736
0.249741
0.249746
0.249752
0.249759
0.249766
0.249773
0.249779
0.249782
0.249786
0.24979
0.249789
0.249785
0.24978
0.249777
0.249761
0.249829
0.251771
0.259132
0.285413
0.330464
0.411841
0.510582
0.62867
0.747324
0.849558
0.934817
0.970027
0.991213
0.999828
1.00145
0.993781
0.967233
0.968765
0.973642
0.985095
0.999106
1.0049
1.00318
0.991567
0.977877
0.977147
0.980701
0.991576
0.998055
0.996902
0.989276
0.984201
0.984616
0.988437
0.991437
0.990664
0.98884
0.98829
0.989264
0.989706
0.989027
0.987916
0.988317
0.989486
0.989361
0.988603
0.988282
0.988707
0.988986
0.98882
0.988121
0.987918
0.988154
0.989153
0.249781
0.249779
0.249776
0.249774
0.249771
0.249769
0.249767
0.249764
0.249762
0.249759
0.249756
0.249754
0.249751
0.249748
0.249746
0.249744
0.249742
0.249741
0.24974
0.249739
0.249738
0.249738
0.249739
0.249739
0.249743
0.249749
0.249755
0.249761
0.249768
0.249773
0.249776
0.249777
0.249776
0.249774
0.249774
0.249776
0.249775
0.249771
0.249767
0.249764
0.249763
0.249762
0.249764
0.249766
0.249769
0.249767
0.249766
0.249751
0.24974
0.249734
0.249729
0.250572
0.255432
0.277766
0.323421
0.415215
0.533229
0.659014
0.774863
0.848547
0.914897
0.931627
0.946921
0.982119
0.997071
1.0122
1.01545
1.01182
0.989622
0.972116
0.972598
0.978574
0.992092
1.00323
1.00119
0.990588
0.982747
0.982983
0.987633
0.992748
0.992171
0.98917
0.987776
0.988698
0.990116
0.989561
0.987924
0.9877
0.988875
0.989807
0.9893
0.988221
0.988266
0.988877
0.988995
0.98858
0.987911
0.988022
0.988382
0.98938
0.249782
0.24978
0.249778
0.249777
0.249776
0.249774
0.249774
0.249774
0.249774
0.249773
0.249772
0.249773
0.249773
0.249772
0.249772
0.249774
0.249777
0.24978
0.249783
0.249786
0.24979
0.249794
0.249798
0.249801
0.249807
0.249814
0.249819
0.249823
0.249826
0.249825
0.24982
0.249813
0.249803
0.249792
0.249783
0.249775
0.249767
0.249759
0.249752
0.249746
0.249742
0.249741
0.249742
0.249745
0.249747
0.24975
0.249751
0.249757
0.24977
0.249793
0.249815
0.249811
0.249799
0.249782
0.249757
0.250674
0.257977
0.288626
0.352812
0.466059
0.603557
0.747867
0.879715
0.966602
0.986682
1.00275
1.00329
0.991044
0.960011
0.966133
0.980834
0.996823
1.00408
1.0022
0.991179
0.979178
0.979947
0.987062
0.993438
0.992831
0.990545
0.987698
0.987972
0.989987
0.990347
0.989205
0.98716
0.987827
0.989826
0.989976
0.988529
0.98808
0.988645
0.989184
0.98886
0.988059
0.987733
0.988005
0.988545
0.989678
0.249765
0.249767
0.249769
0.249771
0.249773
0.249775
0.249778
0.24978
0.249783
0.249786
0.249788
0.249792
0.249796
0.249801
0.249807
0.249813
0.249819
0.249823
0.249829
0.249833
0.249837
0.249844
0.249847
0.24985
0.249852
0.249856
0.249855
0.24985
0.249842
0.249832
0.249821
0.249807
0.24979
0.249769
0.249751
0.249734
0.249717
0.249705
0.249695
0.249686
0.249682
0.249685
0.24969
0.249696
0.249707
0.249719
0.249738
0.24976
0.249788
0.249829
0.249845
0.249844
0.249834
0.24981
0.249775
0.249723
0.249696
0.249687
0.249717
0.25284
0.269881
0.329131
0.442232
0.592277
0.731068
0.839808
0.906112
0.936867
0.95314
0.989957
1.01005
1.0136
1.01021
0.987743
0.974459
0.976155
0.985667
0.997453
0.996911
0.992574
0.985823
0.986107
0.98938
0.991476
0.990503
0.986864
0.986866
0.989102
0.990466
0.989783
0.988083
0.987873
0.989019
0.989245
0.988711
0.987856
0.987738
0.988164
0.988956
0.989987
0.249769
0.249773
0.249778
0.249784
0.249789
0.249794
0.249799
0.249804
0.249809
0.249815
0.249821
0.249826
0.249831
0.249837
0.249845
0.249851
0.249856
0.249858
0.249861
0.249863
0.249865
0.249869
0.249872
0.249876
0.249873
0.249868
0.249861
0.249852
0.249839
0.249822
0.249805
0.249788
0.249767
0.249744
0.249723
0.249698
0.249671
0.249659
0.249653
0.249649
0.24965
0.249658
0.249672
0.249686
0.249701
0.249719
0.249742
0.249766
0.249805
0.249849
0.249862
0.249859
0.249846
0.249819
0.249777
0.249726
0.249697
0.249686
0.249691
0.249714
0.249758
0.249776
0.251735
0.267896
0.331069
0.440693
0.593425
0.775555
0.914771
0.980203
0.995752
1.00374
0.989232
0.962587
0.968948
0.986515
0.99949
0.999421
0.994322
0.983992
0.983347
0.987642
0.992493
0.991858
0.98739
0.985318
0.987263
0.991125
0.990776
0.988001
0.987162
0.988207
0.989587
0.989268
0.987869
0.987482
0.987763
0.988375
0.989261
0.990191
0.249801
0.249804
0.249808
0.249811
0.249814
0.249819
0.249824
0.249828
0.249833
0.249837
0.249841
0.249845
0.249849
0.249853
0.249856
0.249859
0.249861
0.249861
0.24986
0.249859
0.24986
0.249863
0.249867
0.249868
0.249865
0.24986
0.249853
0.249845
0.249831
0.249813
0.249795
0.249778
0.249761
0.249744
0.249725
0.249697
0.249674
0.249668
0.249666
0.249668
0.249676
0.249691
0.24971
0.249725
0.249735
0.249744
0.249757
0.249781
0.249821
0.249856
0.249871
0.24987
0.249859
0.249834
0.249797
0.249749
0.249716
0.249709
0.249712
0.249737
0.249779
0.249787
0.249796
0.249816
0.249821
0.251632
0.271804
0.339107
0.492806
0.667677
0.790753
0.910118
0.926014
0.962688
0.984619
1.01026
1.00928
1.00086
0.98058
0.979783
0.984728
0.994534
0.994127
0.988449
0.983774
0.985324
0.991461
0.992363
0.989282
0.986101
0.986968
0.989884
0.990016
0.988453
0.987227
0.987465
0.988027
0.988658
0.98959
0.990301
0.249816
0.249817
0.24982
0.249823
0.249825
0.249828
0.249829
0.249831
0.249832
0.249833
0.249834
0.249835
0.249835
0.249835
0.249835
0.249834
0.249833
0.249831
0.249829
0.249828
0.249828
0.249831
0.249835
0.24984
0.249843
0.24984
0.249836
0.249834
0.249827
0.249815
0.249801
0.249789
0.249776
0.249764
0.249755
0.249744
0.249732
0.24973
0.249735
0.24974
0.249746
0.249754
0.249758
0.249761
0.249764
0.249764
0.24977
0.249793
0.249831
0.24986
0.249877
0.249879
0.249869
0.249847
0.249816
0.249794
0.249789
0.249787
0.249794
0.249824
0.249827
0.249811
0.249797
0.249804
0.249823
0.24983
0.24982
0.249803
0.256563
0.289262
0.396451
0.563133
0.748903
0.928762
0.974654
1.00411
1.00076
0.973133
0.968419
0.980595
0.998846
0.998134
0.990849
0.980933
0.981998
0.990465
0.994522
0.991973
0.985399
0.985446
0.989006
0.990891
0.989731
0.987025
0.987053
0.987625
0.98841
0.988953
0.989926
0.990433
0.2498
0.249801
0.249803
0.249804
0.249804
0.249804
0.249804
0.249803
0.249801
0.2498
0.249799
0.249798
0.249798
0.249798
0.249798
0.249798
0.249797
0.249797
0.249797
0.249799
0.249803
0.249809
0.249814
0.249815
0.249815
0.249816
0.24982
0.249824
0.249823
0.249819
0.249814
0.249808
0.249801
0.249801
0.249804
0.249804
0.249806
0.249823
0.249837
0.249836
0.249831
0.249821
0.249802
0.249783
0.249777
0.249774
0.249774
0.249781
0.249799
0.249826
0.249848
0.249858
0.249855
0.249839
0.24983
0.249841
0.24986
0.249859
0.24986
0.249858
0.249843
0.249821
0.249802
0.249798
0.249808
0.249822
0.249828
0.249848
0.249889
0.249932
0.250824
0.262894
0.338815
0.491127
0.673434
0.85474
0.898138
0.942265
0.970811
1.00818
1.01056
1.00009
0.977684
0.978262
0.987098
0.997841
0.995757
0.986417
0.982701
0.986715
0.99174
0.9912
0.987723
0.986297
0.987119
0.988325
0.988721
0.98923
0.990208
0.99037
0.249761
0.24975
0.249741
0.249737
0.249734
0.249731
0.249729
0.249725
0.249722
0.24972
0.249719
0.249718
0.249719
0.24972
0.249721
0.249721
0.249722
0.249724
0.249729
0.249737
0.249748
0.249761
0.249772
0.249782
0.249791
0.249799
0.249805
0.249812
0.24982
0.249829
0.249838
0.249841
0.249847
0.249868
0.249881
0.249886
0.2499
0.249918
0.249918
0.249911
0.249891
0.249864
0.249832
0.249791
0.249765
0.249755
0.249748
0.249749
0.249768
0.249808
0.249834
0.249842
0.249843
0.249839
0.249836
0.249851
0.249879
0.249878
0.249867
0.249861
0.249838
0.249794
0.249771
0.249772
0.249791
0.249812
0.249849
0.249925
0.250012
0.250136
0.250232
0.250243
0.250234
0.255029
0.306277
0.432388
0.633824
0.857134
0.950074
0.998198
0.996205
0.96829
0.968986
0.985116
0.999878
0.999063
0.987294
0.980226
0.982818
0.992873
0.992733
0.988813
0.985412
0.986124
0.988464
0.988653
0.988783
0.989409
0.990366
0.990203
0.249695
0.249684
0.24968
0.249678
0.249677
0.249676
0.249674
0.249673
0.249672
0.249674
0.249677
0.249682
0.249685
0.249688
0.24969
0.249693
0.249697
0.249703
0.249712
0.249727
0.249745
0.249759
0.249771
0.249787
0.249805
0.24982
0.249831
0.249841
0.24985
0.24986
0.249871
0.24988
0.249895
0.24991
0.249924
0.249947
0.249953
0.249953
0.249949
0.249936
0.249912
0.249883
0.249849
0.249788
0.249737
0.249728
0.249729
0.249736
0.249757
0.249799
0.249827
0.249841
0.249864
0.249869
0.249852
0.249846
0.249864
0.249867
0.249855
0.24985
0.249832
0.249788
0.249763
0.249766
0.249799
0.249837
0.249917
0.250021
0.250101
0.250212
0.250271
0.25027
0.25025
0.250157
0.249979
0.251705
0.288136
0.40126
0.597103
0.806362
0.885177
0.936198
0.969745
1.0121
1.01005
0.992196
0.9746
0.977983
0.991852
0.997764
0.992889
0.984221
0.984618
0.987948
0.989525
0.988743
0.988919
0.990319
0.990733
0.98972
0.249661
0.249654
0.249649
0.249649
0.249648
0.249648
0.249647
0.249648
0.24965
0.249656
0.249665
0.249676
0.249691
0.249708
0.24972
0.249732
0.249746
0.249757
0.249768
0.249787
0.249811
0.249829
0.249842
0.249854
0.249862
0.249871
0.249874
0.249872
0.249868
0.249868
0.249873
0.249876
0.249879
0.249887
0.249915
0.24994
0.249941
0.249939
0.249934
0.249924
0.249909
0.249892
0.249858
0.249791
0.249735
0.249733
0.249746
0.249781
0.249816
0.24983
0.249846
0.249879
0.249896
0.249892
0.24987
0.249839
0.249841
0.249837
0.24982
0.249826
0.249826
0.249789
0.249771
0.249796
0.249869
0.249957
0.250091
0.25014
0.250165
0.250221
0.250267
0.250262
0.250188
0.249998
0.249809
0.249806
0.24984
0.250671
0.279401
0.378446
0.581983
0.830377
0.946345
0.99993
0.995588
0.965535
0.972398
0.990423
1.00127
0.997109
0.982235
0.98166
0.986518
0.990073
0.989144
0.988235
0.989481
0.991147
0.990747
0.988938
0.249682
0.249682
0.249681
0.249683
0.249684
0.249681
0.249683
0.249688
0.249696
0.249713
0.249737
0.249756
0.249783
0.249825
0.249835
0.249834
0.249834
0.249839
0.249847
0.249856
0.249866
0.249873
0.249873
0.249867
0.249861
0.249862
0.249864
0.249854
0.249845
0.249848
0.24984
0.24983
0.249826
0.249823
0.249828
0.249838
0.249847
0.249859
0.249862
0.249863
0.249854
0.249843
0.249823
0.249778
0.249774
0.249784
0.249802
0.249855
0.249897
0.249905
0.249923
0.249935
0.249926
0.249898
0.249826
0.249769
0.249761
0.249755
0.249745
0.249759
0.249819
0.249863
0.249873
0.249899
0.249991
0.250139
0.250243
0.250235
0.250206
0.250211
0.250214
0.250175
0.25006
0.249873
0.249771
0.249774
0.249843
0.24997
0.250016
0.250426
0.273983
0.379699
0.580699
0.808939
0.883
0.937437
0.985377
1.01188
1.00787
0.983152
0.974677
0.982062
0.992782
0.991456
0.987191
0.987736
0.991288
0.991646
0.989669
0.988289
0.249808
0.249809
0.249805
0.249803
0.249809
0.249814
0.249815
0.249813
0.249815
0.24983
0.249851
0.249878
0.249914
0.249924
0.249923
0.249916
0.249904
0.249889
0.24988
0.249876
0.249871
0.249863
0.249856
0.24985
0.249845
0.249834
0.249811
0.249796
0.249798
0.249793
0.249754
0.249729
0.249732
0.249743
0.249742
0.249747
0.249775
0.249824
0.249838
0.249839
0.24984
0.249832
0.249822
0.249824
0.249845
0.249848
0.249847
0.249876
0.249923
0.249933
0.249952
0.249957
0.249937
0.249883
0.249792
0.249706
0.249685
0.249701
0.249713
0.24973
0.249827
0.250005
0.250054
0.250048
0.250106
0.250279
0.250312
0.250293
0.250251
0.250183
0.250095
0.250011
0.249914
0.249815
0.249774
0.249808
0.249964
0.250089
0.250129
0.250126
0.250041
0.250267
0.276166
0.380302
0.60389
0.859291
0.962228
0.999515
0.988478
0.962822
0.97513
0.995177
0.994162
0.98719
0.985807
0.989872
0.992882
0.991464
0.988144
0.988051
0.249943
0.249939
0.249935
0.249931
0.249927
0.249921
0.24991
0.249905
0.249906
0.24991
0.249923
0.249955
0.249965
0.249963
0.249955
0.249939
0.249918
0.249898
0.249885
0.249876
0.249865
0.249846
0.249818
0.249802
0.249791
0.249772
0.24975
0.249744
0.249745
0.249736
0.249696
0.249683
0.249688
0.249718
0.24973
0.249738
0.249765
0.24983
0.249858
0.24986
0.249861
0.249874
0.249903
0.249932
0.24993
0.24989
0.249864
0.24987
0.249899
0.249915
0.249942
0.249949
0.24992
0.249876
0.249791
0.249701
0.249657
0.249673
0.249747
0.249836
0.24998
0.250153
0.250193
0.250169
0.250196
0.250316
0.250349
0.250328
0.250242
0.250069
0.249897
0.249835
0.249824
0.249813
0.249845
0.249956
0.250105
0.25018
0.250164
0.250083
0.249861
0.249519
0.249319
0.249789
0.281132
0.411648
0.626834
0.846438
0.916277
0.951311
1.00452
1.00792
0.995605
0.979799
0.985118
0.994662
0.993851
0.98798
0.987175
0.988316
0.24993
0.249929
0.249927
0.249922
0.249916
0.249909
0.249902
0.249896
0.249892
0.249887
0.249877
0.249862
0.249848
0.249834
0.249818
0.249808
0.249802
0.249791
0.249785
0.249788
0.249794
0.249785
0.249776
0.249772
0.249761
0.249738
0.249734
0.24974
0.249751
0.249755
0.249759
0.249769
0.249793
0.249842
0.249866
0.249865
0.249862
0.249873
0.249898
0.249919
0.249959
0.249981
0.249975
0.249979
0.249969
0.249897
0.249849
0.249848
0.249856
0.249855
0.249864
0.249872
0.249885
0.249882
0.249824
0.249735
0.249711
0.249758
0.249919
0.250091
0.250217
0.250281
0.250281
0.250248
0.250253
0.250319
0.250342
0.25028
0.250121
0.249883
0.249752
0.24976
0.249806
0.249896
0.250019
0.250146
0.250224
0.250208
0.250137
0.249922
0.249584
0.249312
0.249275
0.249385
0.249617
0.25117
0.292192
0.437256
0.702357
0.905407
0.999099
0.993255
0.968802
0.978613
0.996071
0.996887
0.989483
0.984956
0.987158
0.989274
0.249761
0.249758
0.24975
0.249736
0.249723
0.249716
0.24971
0.249709
0.24971
0.249713
0.249713
0.249706
0.249709
0.249727
0.249749
0.249766
0.249781
0.249784
0.249775
0.24977
0.249783
0.249804
0.249801
0.249788
0.249788
0.249803
0.249846
0.24991
0.249957
0.249986
0.250003
0.250023
0.250036
0.250027
0.250007
0.250009
0.250015
0.249998
0.249992
0.250025
0.250064
0.250063
0.250033
0.249964
0.249888
0.249769
0.249717
0.249717
0.249726
0.249774
0.249842
0.249848
0.249889
0.249972
0.250042
0.250071
0.250017
0.249986
0.25009
0.250329
0.2504
0.25039
0.250359
0.25032
0.250273
0.250241
0.250223
0.25016
0.249993
0.249788
0.249736
0.249777
0.249895
0.250052
0.250198
0.250292
0.25028
0.250197
0.249948
0.249585
0.249318
0.249209
0.249269
0.249698
0.250134
0.250237
0.250095
0.252936
0.311547
0.501315
0.775382
0.871576
0.942699
0.996263
1.00799
0.99879
0.980817
0.983492
0.991101
0.990015
0.249568
0.249576
0.249572
0.249569
0.249569
0.249579
0.249581
0.249582
0.249593
0.249631
0.249649
0.249661
0.249684
0.249721
0.249772
0.249827
0.249845
0.249841
0.249841
0.24987
0.249937
0.249974
0.249974
0.249969
0.249976
0.250008
0.250079
0.250161
0.250178
0.250177
0.250172
0.250154
0.250115
0.250046
0.250012
0.250009
0.250024
0.250018
0.250003
0.250006
0.249983
0.249938
0.249888
0.249807
0.249724
0.249644
0.24959
0.249575
0.249578
0.24963
0.24976
0.249882
0.249975
0.250094
0.250262
0.250341
0.250299
0.250207
0.250237
0.250376
0.250448
0.250432
0.250354
0.250209
0.25006
0.249963
0.249962
0.249957
0.249873
0.249763
0.249766
0.249891
0.250041
0.250179
0.250267
0.250333
0.250247
0.249936
0.249513
0.249235
0.249099
0.249149
0.24952
0.250084
0.250267
0.250194
0.249803
0.249373
0.249178
0.260634
0.346191
0.585485
0.864475
0.968236
0.996884
0.972139
0.976091
0.991473
0.992765
0.987231
0.249592
0.249602
0.249606
0.249607
0.249614
0.24962
0.249624
0.249648
0.249677
0.249692
0.249707
0.249727
0.249762
0.249828
0.249867
0.249867
0.249869
0.249889
0.249925
0.249964
0.250005
0.250046
0.250074
0.250079
0.250081
0.250099
0.250152
0.250209
0.25022
0.25022
0.250213
0.250183
0.250119
0.250027
0.25
0.249997
0.249972
0.249919
0.249834
0.24968
0.249637
0.249689
0.249705
0.249628
0.24955
0.249584
0.249608
0.249602
0.249649
0.249766
0.249883
0.249983
0.250059
0.250173
0.250334
0.2504
0.250352
0.25028
0.250296
0.250404
0.250446
0.250384
0.250102
0.249747
0.249603
0.249616
0.249679
0.249726
0.249735
0.249754
0.249827
0.24997
0.250099
0.250206
0.250236
0.250124
0.249776
0.249333
0.249018
0.248919
0.24894
0.249282
0.249904
0.250224
0.250156
0.24976
0.249129
0.248849
0.248908
0.249476
0.249725
0.278243
0.416151
0.650744
0.886988
0.926722
0.983796
1.00319
0.994562
0.981329
0.249702
0.249697
0.249698
0.249701
0.249701
0.249695
0.249687
0.249683
0.249678
0.24968
0.249702
0.249716
0.249734
0.249757
0.249757
0.249747
0.249753
0.24978
0.249799
0.249829
0.249852
0.249862
0.249849
0.249772
0.249684
0.249659
0.249639
0.249616
0.249629
0.249646
0.249635
0.249537
0.249476
0.249498
0.249501
0.249439
0.249336
0.249269
0.249225
0.249168
0.249167
0.249279
0.249405
0.249411
0.249416
0.249564
0.249758
0.249802
0.24981
0.249885
0.250013
0.250031
0.249998
0.250051
0.250137
0.250142
0.250087
0.249988
0.249936
0.249938
0.249925
0.249765
0.249406
0.249205
0.249207
0.249264
0.249373
0.249461
0.249515
0.249569
0.249708
0.249786
0.249831
0.249779
0.249652
0.249409
0.249095
0.248827
0.248685
0.248716
0.249071
0.249756
0.250207
0.25009
0.249704
0.249019
0.248639
0.248659
0.249119
0.249864
0.249951
0.249504
0.250951
0.306347
0.499531
0.78055
0.963357
0.992212
0.968753
0.977079
0.249476
0.24942
0.24938
0.249349
0.249336
0.249334
0.249327
0.249293
0.249257
0.249257
0.249251
0.249194
0.249146
0.249133
0.249114
0.249113
0.24913
0.249216
0.249292
0.249289
0.249252
0.249251
0.24924
0.249162
0.249118
0.249116
0.249117
0.249098
0.249062
0.249063
0.249052
0.248963
0.248862
0.248866
0.248871
0.248823
0.248779
0.248787
0.248853
0.248864
0.248889
0.249029
0.249218
0.249393
0.249712
0.250142
0.250223
0.250157
0.249961
0.249822
0.249885
0.249981
0.249964
0.249861
0.249771
0.249648
0.249469
0.2494
0.249435
0.249505
0.249506
0.249403
0.249146
0.249035
0.249046
0.249115
0.249254
0.249383
0.249516
0.249658
0.249795
0.24983
0.249763
0.249463
0.24915
0.248849
0.248755
0.248635
0.248734
0.249176
0.249866
0.250407
0.250332
0.249834
0.249212
0.24864
0.248614
0.249008
0.249903
0.250266
0.249991
0.24924
0.248945
0.249073
0.258444
0.374051
0.617497
0.837424
0.927993
0.984015
0.249468
0.249432
0.249386
0.249292
0.249215
0.249208
0.2492
0.24918
0.24918
0.249178
0.249156
0.249135
0.249106
0.249045
0.249
0.249003
0.249033
0.249136
0.249203
0.249201
0.249179
0.249184
0.24918
0.249156
0.249127
0.249118
0.249138
0.249166
0.24917
0.24915
0.249153
0.249185
0.249177
0.249125
0.249163
0.249286
0.249359
0.249419
0.249467
0.249537
0.249698
0.249918
0.250083
0.250304
0.250709
0.250908
0.250856
0.250611
0.250424
0.250408
0.250413
0.250288
0.249983
0.249825
0.249734
0.249595
0.249418
0.249378
0.249435
0.249524
0.249531
0.249467
0.249369
0.249381
0.249477
0.249697
0.250026
0.250218
0.250371
0.250512
0.250463
0.250184
0.249737
0.249192
0.248919
0.248717
0.248667
0.249047
0.249948
0.250685
0.251078
0.250897
0.250364
0.249559
0.249046
0.248745
0.249354
0.250503
0.251153
0.250854
0.249997
0.249179
0.249476
0.250556
0.250713
0.251123
0.284734
0.465896
0.774788
0.969282
0.249333
0.249328
0.249309
0.249262
0.24923
0.249223
0.249214
0.249215
0.249232
0.249257
0.249267
0.249268
0.249273
0.249258
0.249204
0.249192
0.249208
0.249327
0.249441
0.249459
0.249504
0.249671
0.249847
0.249881
0.249936
0.250128
0.250319
0.250459
0.250621
0.250714
0.250717
0.25071
0.25075
0.250877
0.251148
0.251327
0.251329
0.251286
0.251302
0.251292
0.251261
0.251154
0.251015
0.251013
0.251074
0.251055
0.250938
0.250576
0.25043
0.250459
0.250445
0.250277
0.249923
0.249851
0.249872
0.249865
0.249822
0.249835
0.249906
0.250045
0.250247
0.250536
0.250875
0.251188
0.25154
0.251632
0.251516
0.251206
0.250973
0.250861
0.250584
0.250107
0.249732
0.249288
0.249325
0.249613
0.250472
0.251523
0.252395
0.252338
0.252008
0.251145
0.250263
0.24954
0.249653
0.250757
0.252146
0.252612
0.252247
0.251384
0.250142
0.250886
0.251934
0.252505
0.252142
0.251083
0.251337
0.258596
0.344243
0.70005
0.251257
0.251354
0.25144
0.251539
0.251642
0.251733
0.251793
0.251853
0.251905
0.251972
0.252079
0.252329
0.252676
0.252765
0.252681
0.25263
0.252651
0.252812
0.253058
0.253229
0.253423
0.253702
0.253883
0.253905
0.25382
0.253686
0.253668
0.253739
0.253844
0.253914
0.25396
0.25396
0.253944
0.254
0.253998
0.253895
0.253668
0.253393
0.253195
0.253067
0.252963
0.252802
0.252572
0.252507
0.252513
0.25252
0.252531
0.252507
0.252502
0.252468
0.252241
0.252099
0.252146
0.252331
0.252646
0.252883
0.252937
0.252943
0.252926
0.252927
0.252991
0.253167
0.253369
0.253559
0.253549
0.253368
0.25293
0.252466
0.252297
0.252176
0.251741
0.251665
0.251829
0.252308
0.25301
0.253664
0.254203
0.254142
0.253897
0.253332
0.252475
0.251336
0.251199
0.252086
0.253522
0.255042
0.254878
0.25416
0.252794
0.251975
0.253061
0.254978
0.254871
0.254201
0.25305
0.253728
0.254975
0.255188
0.255165
0.380011
0.257713
0.257692
0.257679
0.257685
0.257688
0.257678
0.257576
0.257372
0.257317
0.25736
0.257371
0.257291
0.257189
0.257181
0.257193
0.257147
0.256868
0.256587
0.256559
0.256619
0.25665
0.256567
0.256349
0.256109
0.255942
0.255801
0.255655
0.255352
0.254957
0.254897
0.254916
0.254811
0.254237
0.253931
0.253812
0.25363
0.253385
0.25313
0.252948
0.252947
0.252956
0.252907
0.252814
0.252785
0.252827
0.25293
0.253033
0.253118
0.253112
0.253112
0.253187
0.253497
0.254048
0.254516
0.254898
0.255466
0.255736
0.255697
0.255583
0.255481
0.255313
0.255197
0.255249
0.255187
0.254828
0.254221
0.254208
0.254449
0.254571
0.254626
0.254903
0.25569
0.256681
0.257592
0.257977
0.257799
0.257153
0.256274
0.255385
0.254994
0.255438
0.256788
0.258436
0.260142
0.260047
0.259128
0.257847
0.256811
0.257755
0.259622
0.261328
0.26084
0.259747
0.259871
0.260792
0.261801
0.261551
0.261063
0.260962
0.263171
0.266065
0.266096
0.266107
0.266052
0.265976
0.26596
0.266028
0.266076
0.265996
0.26573
0.265613
0.265658
0.265715
0.265699
0.265526
0.265312
0.26532
0.26529
0.265055
0.264942
0.264973
0.265199
0.265333
0.265328
0.265351
0.265442
0.265452
0.265432
0.265589
0.266081
0.266467
0.266668
0.267026
0.267535
0.268092
0.26864
0.269052
0.269431
0.269965
0.270697
0.271077
0.27104
0.270914
0.270957
0.271198
0.271557
0.271855
0.272012
0.272195
0.272484
0.272842
0.273046
0.272969
0.272815
0.272724
0.272617
0.272533
0.272421
0.272218
0.271956
0.271599
0.271338
0.271269
0.271147
0.270833
0.270776
0.270921
0.271308
0.271916
0.272308
0.272376
0.27229
0.272085
0.271898
0.271678
0.271423
0.2711
0.271189
0.271405
0.271912
0.272518
0.272948
0.272686
0.271977
0.271137
0.270433
0.270794
0.271659
0.272719
0.272543
0.271871
0.270836
0.27096
0.271468
0.271719
0.271572
0.271637
0.271941
0.272158
0.272067
0.287716
0.287893
0.287896
0.287847
0.287836
0.287933
0.288232
0.288281
0.288184
0.288127
0.288146
0.288315
0.288371
0.288271
0.288253
0.288353
0.288458
0.288334
0.288194
0.288266
0.288332
0.288293
0.288225
0.288302
0.288449
0.288457
0.288365
0.288224
0.288039
0.287797
0.287557
0.287484
0.287515
0.287526
0.287427
0.287198
0.287086
0.287081
0.287109
0.287085
0.286952
0.286726
0.286426
0.286064
0.285659
0.28516
0.284591
0.28411
0.283705
0.283374
0.283062
0.282671
0.282171
0.281531
0.280748
0.279701
0.278966
0.278955
0.279177
0.279502
0.279543
0.279485
0.279547
0.279759
0.280114
0.28067
0.281178
0.28145
0.28168
0.281825
0.281721
0.281491
0.281089
0.280472
0.279739
0.279684
0.279991
0.280409
0.28083
0.280979
0.280833
0.280382
0.279662
0.279426
0.279787
0.280551
0.281323
0.281183
0.280558
0.279804
0.279306
0.27964
0.2801
0.280253
0.280066
0.280121
0.280038
0.279817
0.279567
0.279305
0.307366
0.307299
0.307147
0.306993
0.306965
0.306989
0.306984
0.306846
0.306601
0.306509
0.306381
0.306197
0.306184
0.306169
0.305948
0.305699
0.305679
0.305608
0.305331
0.305253
0.305281
0.305209
0.305052
0.304904
0.304659
0.30455
0.304672
0.304649
0.304228
0.303744
0.303623
0.303473
0.303225
0.302879
0.302571
0.302373
0.302071
0.30159
0.301146
0.300845
0.300609
0.300364
0.300279
0.300345
0.300458
0.300622
0.300883
0.301227
0.301561
0.301746
0.301993
0.302461
0.302683
0.30258
0.302487
0.302633
0.303012
0.303469
0.304082
0.304503
0.304413
0.304264
0.304247
0.304122
0.303818
0.303507
0.302999
0.302262
0.301441
0.300687
0.29998
0.299327
0.298894
0.298488
0.298179
0.29818
0.298211
0.29807
0.297683
0.297086
0.2964
0.295892
0.2955
0.29506
0.295003
0.294821
0.294099
0.293209
0.292223
0.29226
0.292418
0.29227
0.291922
0.291172
0.290548
0.29006
0.289381
0.288674
0.288732
0.2888