/*--------------------------------*- C++ -*----------------------------------*\
  =========                 |
  \\      /  F ield         | OpenFOAM: The Open Source CFD Toolbox
   \\    /   O peration     | Website:  https://openfoam.org
    \\  /    A nd           | Version:  7
     \\/     M anipulation  |
\*---------------------------------------------------------------------------*/
FoamFile
{
    version     2.0;
    format      ascii;
    class       volVectorField;
    location    "12";
    object      U;
}
// * * * * * * * * * * * * * * * * * * * * * * * * * * * * * * * * * * * * * //

dimensions      [0 1 -1 0 0 0 0];

internalField   nonuniform List<vector> 
90000
(
(3.12107 -0.830289 0)
(3.08861 -0.750301 0)
(3.06386 -0.670739 0)
(3.0489 -0.625774 0)
(3.03877 -0.582601 0)
(3.02197 -0.488708 0)
(3.02098 -0.458627 0)
(3.01693 -0.418932 0)
(3.01365 -0.379035 0)
(3.00709 -0.318206 0)
(3.01078 -0.301348 0)
(3.00511 -0.249352 0)
(3.00679 -0.229255 0)
(3.00151 -0.180854 0)
(3.00456 -0.167291 0)
(2.99867 -0.12125 0)
(3.00141 -0.112951 0)
(2.99635 -0.0710226 0)
(2.99966 -0.0675859 0)
(2.99619 -0.0311961 0)
(2.99687 -0.0332454 0)
(2.99175 -0.00803508 0)
(2.99335 -0.0152651 0)
(2.98365 -0.000127346 0)
(2.98157 0.00175829 0)
(2.97897 0.00918688 0)
(2.97509 0.0106314 0)
(2.97434 0.0109117 0)
(2.97386 0.011686 0)
(2.97337 0.0117946 0)
(2.97282 0.0118421 0)
(2.97252 0.0127882 0)
(2.97226 0.0140529 0)
(2.9715 0.017426 0)
(2.96994 0.0199311 0)
(2.96857 0.0244566 0)
(2.96567 0.027548 0)
(2.96174 0.0308461 0)
(2.96028 0.0357442 0)
(2.95859 0.0332122 0)
(2.95703 0.0312376 0)
(2.95473 0.0280499 0)
(2.95213 0.0229171 0)
(2.95111 0.0188441 0)
(2.95023 0.0138915 0)
(2.94978 0.0118099 0)
(2.94903 0.0091489 0)
(2.94851 0.00806551 0)
(2.94897 0.00935059 0)
(2.95037 0.0125698 0)
(2.95268 0.0182309 0)
(2.95484 0.0214289 0)
(2.9538 0.0243057 0)
(2.95284 0.023895 0)
(2.95111 0.0225048 0)
(2.94865 0.0198557 0)
(2.94752 0.0180174 0)
(2.94659 0.0132444 0)
(2.94659 0.012564 0)
(2.94735 0.0139327 0)
(2.9485 0.0162045 0)
(2.94972 0.0208523 0)
(2.95022 0.0205909 0)
(2.94929 0.0201525 0)
(2.94733 0.0190035 0)
(2.9465 0.0173464 0)
(2.946 0.0141052 0)
(2.94636 0.0145129 0)
(2.94732 0.0162374 0)
(2.94849 0.019091 0)
(2.94873 0.0183601 0)
(2.94809 0.0166071 0)
(2.94719 0.0147897 0)
(2.94672 0.0150253 0)
(2.94706 0.0163954 0)
(2.94798 0.018419 0)
(2.94864 0.0191726 0)
(2.94836 0.0180107 0)
(2.94799 0.0161878 0)
(2.94788 0.0160415 0)
(2.94809 0.0168957 0)
(2.94868 0.0188513 0)
(2.94895 0.0194497 0)
(2.94898 0.0188356 0)
(2.94892 0.0173556 0)
(2.9491 0.017292 0)
(2.94924 0.0177441 0)
(2.94945 0.0178265 0)
(2.94978 0.0176972 0)
(2.95007 0.018048 0)
(2.95041 0.0182288 0)
(2.95063 0.0178864 0)
(2.95084 0.0176188 0)
(2.95119 0.0176895 0)
(2.95144 0.0178448 0)
(2.95162 0.0179035 0)
(2.95172 0.0176429 0)
(2.95193 0.0177653 0)
(2.95221 0.0179338 0)
(2.95263 0.0181276 0)
(3.15016 -0.885922 0)
(3.15009 -0.885871 0)
(3.15002 -0.885804 0)
(3.14993 -0.88572 0)
(3.14974 -0.885512 0)
(3.14938 -0.8847 0)
(3.14868 -0.88354 0)
(3.14743 -0.881559 0)
(3.14553 -0.878153 0)
(3.14301 -0.872055 0)
(3.14003 -0.864768 0)
(3.13574 -0.852422 0)
(3.13075 -0.838429 0)
(3.12394 -0.815163 0)
(3.11678 -0.792565 0)
(3.10691 -0.75428 0)
(3.09767 -0.721799 0)
(3.08408 -0.664174 0)
(3.0741 -0.623443 0)
(3.05695 -0.545493 0)
(3.04834 -0.500562 0)
(3.02851 -0.40796 0)
(3.02302 -0.366553 0)
(3.00208 -0.269993 0)
(3.0023 -0.240156 0)
(2.98312 -0.155982 0)
(2.9863 -0.137078 0)
(2.96911 -0.0706796 0)
(2.97213 -0.058782 0)
(2.9585 -0.0107997 0)
(2.96143 -0.00376009 0)
(2.95287 0.0268831 0)
(2.95543 0.0318863 0)
(2.95037 0.0489818 0)
(2.95074 0.0526132 0)
(2.94749 0.0611946 0)
(2.94651 0.0636388 0)
(2.9455 0.0608426 0)
(2.94482 0.0555131 0)
(2.94436 0.0444163 0)
(2.9452 0.030571 0)
(2.94671 0.0237784 0)
(2.94745 0.0179687 0)
(2.94772 0.0142336 0)
(2.94799 0.0113726 0)
(2.94818 0.00998995 0)
(2.94819 0.00992864 0)
(2.94871 0.012693 0)
(2.94952 0.0194661 0)
(2.95062 0.0263091 0)
(2.94742 0.0306222 0)
(2.94629 0.03051 0)
(2.94528 0.0281393 0)
(2.94344 0.0239716 0)
(2.94186 0.0194304 0)
(2.93999 0.013975 0)
(2.93936 0.0109505 0)
(2.93934 0.0136542 0)
(2.93991 0.0161673 0)
(2.9419 0.0216388 0)
(2.94323 0.0244729 0)
(2.94273 0.0272062 0)
(2.94203 0.0261837 0)
(2.94053 0.0215503 0)
(2.9396 0.0154632 0)
(2.93905 0.0138853 0)
(2.93968 0.0146593 0)
(2.94085 0.0178433 0)
(2.94205 0.0208101 0)
(2.94255 0.0230515 0)
(2.94182 0.0216183 0)
(2.94051 0.01903 0)
(2.94005 0.0150574 0)
(2.94063 0.0154273 0)
(2.94142 0.0170978 0)
(2.94274 0.0197409 0)
(2.9424 0.0197173 0)
(2.94158 0.0190301 0)
(2.94154 0.0164648 0)
(2.94189 0.0157701 0)
(2.94234 0.016087 0)
(2.94298 0.0170942 0)
(2.94299 0.0169082 0)
(2.94294 0.0169601 0)
(2.94288 0.0172491 0)
(2.94311 0.0170022 0)
(2.94329 0.0169259 0)
(2.94362 0.0169265 0)
(2.94396 0.017218 0)
(2.94433 0.0173165 0)
(2.94461 0.0174005 0)
(2.94477 0.0173877 0)
(2.94497 0.0173389 0)
(2.94522 0.0176379 0)
(2.94545 0.0180966 0)
(2.94557 0.0181421 0)
(2.94577 0.0183419 0)
(2.94604 0.0187892 0)
(2.94636 0.019337 0)
(2.94688 0.0188299 0)
(3.14662 -0.885064 0)
(3.1464 -0.885036 0)
(3.14618 -0.88495 0)
(3.14593 -0.884914 0)
(3.14568 -0.884834 0)
(3.14541 -0.88484 0)
(3.14516 -0.884706 0)
(3.14496 -0.884571 0)
(3.14482 -0.88449 0)
(3.14466 -0.884417 0)
(3.14448 -0.88426 0)
(3.14429 -0.884113 0)
(3.14408 -0.884019 0)
(3.14385 -0.883925 0)
(3.1436 -0.883829 0)
(3.14333 -0.883708 0)
(3.14306 -0.88364 0)
(3.14275 -0.883494 0)
(3.14232 -0.883059 0)
(3.14153 -0.881562 0)
(3.13983 -0.878712 0)
(3.13667 -0.87188 0)
(3.13219 -0.860872 0)
(3.12441 -0.83878 0)
(3.11519 -0.811321 0)
(3.10123 -0.762912 0)
(3.08852 -0.717555 0)
(3.06977 -0.63921 0)
(3.05769 -0.586126 0)
(3.03648 -0.486476 0)
(3.02918 -0.439216 0)
(3.00771 -0.333712 0)
(3.00648 -0.30082 0)
(2.98661 -0.205297 0)
(2.98766 -0.187036 0)
(2.97212 -0.113708 0)
(2.97249 -0.107961 0)
(2.96337 -0.0619463 0)
(2.96656 -0.0649476 0)
(2.95436 -0.0397964 0)
(2.95531 -0.0313003 0)
(2.95002 -0.0175648 0)
(2.95129 -0.013317 0)
(2.94859 -0.00670281 0)
(2.94791 0.000338907 0)
(2.94552 0.00561511 0)
(2.94122 0.0160495 0)
(2.93601 0.0246201 0)
(2.93683 0.03506 0)
(2.93513 0.0341616 0)
(2.93119 0.0313675 0)
(2.92877 0.0255962 0)
(2.9281 0.0184295 0)
(2.92813 0.0121092 0)
(2.93016 0.00737047 0)
(2.9311 0.007667 0)
(2.93212 0.00796599 0)
(2.93532 0.013486 0)
(2.9366 0.0179241 0)
(2.93785 0.0244272 0)
(2.93809 0.0248532 0)
(2.93761 0.0243053 0)
(2.93563 0.0197935 0)
(2.93394 0.0163377 0)
(2.93479 0.0117434 0)
(2.9353 0.0120852 0)
(2.93715 0.0164207 0)
(2.93795 0.0191565 0)
(2.93897 0.020893 0)
(2.93885 0.0205601 0)
(2.93786 0.0167964 0)
(2.93685 0.0145857 0)
(2.93703 0.0144822 0)
(2.93796 0.0167393 0)
(2.93896 0.0195699 0)
(2.93894 0.0200091 0)
(2.93864 0.0187739 0)
(2.93816 0.0161522 0)
(2.93813 0.0158975 0)
(2.93835 0.0173125 0)
(2.93905 0.0193262 0)
(2.93907 0.0190366 0)
(2.93882 0.0181919 0)
(2.93874 0.0164605 0)
(2.93863 0.0169368 0)
(2.93885 0.0178499 0)
(2.93907 0.0175936 0)
(2.93943 0.0174418 0)
(2.93966 0.0177901 0)
(2.93998 0.0182636 0)
(2.94003 0.0179045 0)
(2.94005 0.0173957 0)
(2.94021 0.0174777 0)
(2.94036 0.0177595 0)
(2.94057 0.0177941 0)
(2.94065 0.0179495 0)
(2.94098 0.0176797 0)
(2.94123 0.0178058 0)
(2.94157 0.0179934 0)
(2.9421 0.0182211 0)
(3.14199 -0.883636 0)
(3.1418 -0.883598 0)
(3.14159 -0.883527 0)
(3.14137 -0.883502 0)
(3.14116 -0.883423 0)
(3.14094 -0.883388 0)
(3.14072 -0.883307 0)
(3.14049 -0.883268 0)
(3.14028 -0.883187 0)
(3.14004 -0.883172 0)
(3.13982 -0.883093 0)
(3.13959 -0.883088 0)
(3.13938 -0.882994 0)
(3.13914 -0.882996 0)
(3.13894 -0.882912 0)
(3.13871 -0.882911 0)
(3.13853 -0.882828 0)
(3.13831 -0.882846 0)
(3.13816 -0.882745 0)
(3.13787 -0.8828 0)
(3.13777 -0.882668 0)
(3.13771 -0.882549 0)
(3.13766 -0.882493 0)
(3.13762 -0.882386 0)
(3.13755 -0.88239 0)
(3.13752 -0.882273 0)
(3.13746 -0.882337 0)
(3.13731 -0.882055 0)
(3.13689 -0.880936 0)
(3.1354 -0.876806 0)
(3.13249 -0.868205 0)
(3.12582 -0.847481 0)
(3.117 -0.818407 0)
(3.10139 -0.761177 0)
(3.08704 -0.705871 0)
(3.06289 -0.602722 0)
(3.04981 -0.536088 0)
(3.01905 -0.399706 0)
(3.01611 -0.342272 0)
(2.98374 -0.206333 0)
(2.9894 -0.170034 0)
(2.96006 -0.0670893 0)
(2.96563 -0.0446068 0)
(2.9436 0.0177096 0)
(2.94449 0.0364778 0)
(2.93176 0.0656556 0)
(2.92783 0.0797442 0)
(2.92448 0.0753772 0)
(2.92436 0.0564481 0)
(2.9237 0.0343634 0)
(2.92729 0.0245644 0)
(2.92718 0.0182513 0)
(2.92516 0.0135664 0)
(2.9254 0.0127886 0)
(2.92631 0.0122572 0)
(2.92779 0.0121201 0)
(2.93342 0.0214185 0)
(2.93466 0.0241023 0)
(2.93573 0.0280751 0)
(2.93489 0.0274949 0)
(2.93314 0.0232743 0)
(2.93144 0.0179308 0)
(2.93072 0.0107017 0)
(2.93066 0.0113944 0)
(2.93183 0.0123323 0)
(2.93574 0.0186546 0)
(2.93579 0.0212463 0)
(2.9372 0.0238174 0)
(2.93663 0.0222667 0)
(2.9352 0.0171782 0)
(2.93482 0.0122404 0)
(2.93545 0.0132053 0)
(2.93614 0.0154069 0)
(2.93658 0.0182052 0)
(2.93781 0.0209601 0)
(2.9372 0.0199122 0)
(2.93645 0.0171423 0)
(2.93609 0.0144839 0)
(2.93639 0.0155904 0)
(2.93638 0.0170558 0)
(2.9376 0.0182727 0)
(2.93733 0.018106 0)
(2.93701 0.0174272 0)
(2.93664 0.0168143 0)
(2.93692 0.0169286 0)
(2.93695 0.0171562 0)
(2.93688 0.0172338 0)
(2.93699 0.0172876 0)
(2.93729 0.0174817 0)
(2.93734 0.0177133 0)
(2.93723 0.0176964 0)
(2.9372 0.0173274 0)
(2.93737 0.0174486 0)
(2.93753 0.017751 0)
(2.93771 0.0179155 0)
(2.93781 0.0178655 0)
(2.93811 0.0182205 0)
(2.9384 0.0188102 0)
(2.93877 0.0191422 0)
(2.93892 0.0183549 0)
(3.13842 -0.882709 0)
(3.13832 -0.882695 0)
(3.13823 -0.882668 0)
(3.13813 -0.88264 0)
(3.13803 -0.882622 0)
(3.13795 -0.882587 0)
(3.13785 -0.882591 0)
(3.13777 -0.882543 0)
(3.13768 -0.882547 0)
(3.13761 -0.882503 0)
(3.13753 -0.882497 0)
(3.13746 -0.882467 0)
(3.1374 -0.882444 0)
(3.13734 -0.882407 0)
(3.13728 -0.882412 0)
(3.13725 -0.882355 0)
(3.13721 -0.882356 0)
(3.13719 -0.882336 0)
(3.13717 -0.88232 0)
(3.13715 -0.882321 0)
(3.13715 -0.882297 0)
(3.13714 -0.882296 0)
(3.13715 -0.882292 0)
(3.13717 -0.882299 0)
(3.13719 -0.882335 0)
(3.13723 -0.882348 0)
(3.13728 -0.882373 0)
(3.13733 -0.882382 0)
(3.13737 -0.882401 0)
(3.13742 -0.882357 0)
(3.13746 -0.882396 0)
(3.13752 -0.882358 0)
(3.13756 -0.882425 0)
(3.13766 -0.882368 0)
(3.1377 -0.882498 0)
(3.13757 -0.881854 0)
(3.13673 -0.878971 0)
(3.13303 -0.868192 0)
(3.1263 -0.845772 0)
(3.11191 -0.796996 0)
(3.09655 -0.734788 0)
(3.0723 -0.630074 0)
(3.05718 -0.547192 0)
(3.03084 -0.412664 0)
(3.02427 -0.347321 0)
(3.00151 -0.228953 0)
(3.00128 -0.187593 0)
(2.98164 -0.115955 0)
(2.98894 -0.0909301 0)
(2.96239 -0.0427269 0)
(2.96295 -0.0294261 0)
(2.95181 -0.010252 0)
(2.94739 0.00074129 0)
(2.94574 0.0117778 0)
(2.94234 0.0222478 0)
(2.93735 0.030934 0)
(2.93618 0.0392983 0)
(2.93352 0.0368884 0)
(2.9302 0.0289168 0)
(2.92846 0.0188071 0)
(2.92653 0.0102103 0)
(2.92643 0.00208086 0)
(2.92747 0.00338815 0)
(2.93078 0.0100948 0)
(2.934 0.0176077 0)
(2.93663 0.0253368 0)
(2.93559 0.0267615 0)
(2.93463 0.0236253 0)
(2.93251 0.0171379 0)
(2.93081 0.00863688 0)
(2.93167 0.0101662 0)
(2.93379 0.0145623 0)
(2.93487 0.018408 0)
(2.93655 0.0226621 0)
(2.93611 0.020913 0)
(2.93502 0.017053 0)
(2.93364 0.0127467 0)
(2.93432 0.014603 0)
(2.93498 0.0169819 0)
(2.93599 0.0194129 0)
(2.93602 0.0187528 0)
(2.93546 0.0165464 0)
(2.93553 0.0159878 0)
(2.93578 0.0167201 0)
(2.93616 0.0173526 0)
(2.93604 0.0172479 0)
(2.93586 0.0172473 0)
(2.93601 0.0174556 0)
(2.93638 0.0178547 0)
(2.93637 0.0178388 0)
(2.93618 0.0174945 0)
(2.93619 0.0173451 0)
(2.93639 0.0175652 0)
(2.93667 0.0177473 0)
(2.93675 0.0177429 0)
(2.93687 0.0177535 0)
(2.93709 0.0179554 0)
(2.9374 0.0183295 0)
(2.93748 0.0185877 0)
(2.93737 0.0183616 0)
(3.13697 -0.882539 0)
(3.13696 -0.882531 0)
(3.13696 -0.882527 0)
(3.13696 -0.882522 0)
(3.13696 -0.882525 0)
(3.13696 -0.882514 0)
(3.13697 -0.882516 0)
(3.13698 -0.882505 0)
(3.13699 -0.882494 0)
(3.13701 -0.882498 0)
(3.13702 -0.8825 0)
(3.13704 -0.882499 0)
(3.13706 -0.882507 0)
(3.13709 -0.8825 0)
(3.13712 -0.882532 0)
(3.13715 -0.882537 0)
(3.13719 -0.882547 0)
(3.13724 -0.882552 0)
(3.13729 -0.882552 0)
(3.13734 -0.882563 0)
(3.13739 -0.882581 0)
(3.13744 -0.882575 0)
(3.1375 -0.882588 0)
(3.13757 -0.88258 0)
(3.13763 -0.882607 0)
(3.1377 -0.882612 0)
(3.13776 -0.882647 0)
(3.13783 -0.882652 0)
(3.13789 -0.882685 0)
(3.13796 -0.882689 0)
(3.13803 -0.882737 0)
(3.1381 -0.882764 0)
(3.13817 -0.882807 0)
(3.13825 -0.882832 0)
(3.13832 -0.8829 0)
(3.13838 -0.8829 0)
(3.13843 -0.882938 0)
(3.13849 -0.882941 0)
(3.13854 -0.883 0)
(3.13862 -0.88296 0)
(3.13865 -0.883056 0)
(3.13852 -0.882514 0)
(3.13752 -0.879185 0)
(3.13297 -0.863892 0)
(3.12442 -0.832884 0)
(3.10527 -0.754285 0)
(3.08925 -0.673856 0)
(3.05167 -0.498081 0)
(3.05024 -0.414243 0)
(3.00669 -0.219453 0)
(3.0179 -0.182327 0)
(2.97791 -0.045884 0)
(2.98121 -0.0289267 0)
(2.95698 0.0367317 0)
(2.94649 0.049071 0)
(2.94391 0.0655067 0)
(2.93583 0.0536206 0)
(2.93149 0.0336857 0)
(2.93358 0.0246123 0)
(2.92909 0.0118135 0)
(2.92946 0.010941 0)
(2.92986 0.00965234 0)
(2.93288 0.0138394 0)
(2.9368 0.0224384 0)
(2.93789 0.0290815 0)
(2.93682 0.0287508 0)
(2.93354 0.0243598 0)
(2.93028 0.0167857 0)
(2.9291 0.0103369 0)
(2.9299 0.010942 0)
(2.93219 0.0153909 0)
(2.93413 0.0206935 0)
(2.93565 0.0240549 0)
(2.93488 0.021441 0)
(2.93338 0.0172496 0)
(2.93204 0.0119684 0)
(2.93249 0.013954 0)
(2.93369 0.017017 0)
(2.93503 0.0203478 0)
(2.93494 0.0196434 0)
(2.93417 0.0176717 0)
(2.93358 0.015951 0)
(2.93394 0.0166466 0)
(2.93457 0.0177195 0)
(2.93468 0.0177206 0)
(2.93465 0.0170132 0)
(2.93495 0.0171373 0)
(2.93529 0.0177703 0)
(2.93573 0.0184017 0)
(2.93568 0.017825 0)
(2.93564 0.0170056 0)
(2.9358 0.017243 0)
(2.93608 0.0179089 0)
(2.93618 0.0179622 0)
(2.93624 0.0175149 0)
(2.93646 0.0176945 0)
(2.93664 0.0180441 0)
(2.93695 0.0185679 0)
(2.93694 0.0186939 0)
(2.93674 0.0182044 0)
(3.13717 -0.882622 0)
(3.1372 -0.882621 0)
(3.13723 -0.882633 0)
(3.13726 -0.882646 0)
(3.1373 -0.882649 0)
(3.13733 -0.882669 0)
(3.13738 -0.882671 0)
(3.13741 -0.882693 0)
(3.13746 -0.882689 0)
(3.1375 -0.882696 0)
(3.13754 -0.882691 0)
(3.13759 -0.882686 0)
(3.13764 -0.882682 0)
(3.1377 -0.882694 0)
(3.13775 -0.882704 0)
(3.1378 -0.882715 0)
(3.13785 -0.882715 0)
(3.1379 -0.882727 0)
(3.13795 -0.882722 0)
(3.138 -0.882736 0)
(3.13806 -0.882737 0)
(3.13811 -0.882764 0)
(3.13816 -0.882764 0)
(3.13821 -0.882775 0)
(3.13825 -0.882793 0)
(3.1383 -0.88282 0)
(3.13835 -0.882821 0)
(3.13839 -0.882845 0)
(3.13843 -0.882868 0)
(3.13847 -0.882886 0)
(3.13852 -0.882894 0)
(3.13856 -0.882948 0)
(3.1386 -0.882952 0)
(3.13865 -0.882974 0)
(3.1387 -0.882971 0)
(3.13872 -0.883023 0)
(3.13876 -0.883054 0)
(3.13879 -0.883098 0)
(3.13882 -0.883127 0)
(3.13886 -0.883105 0)
(3.13889 -0.88314 0)
(3.13891 -0.883146 0)
(3.13893 -0.88312 0)
(3.13896 -0.883096 0)
(3.13899 -0.883063 0)
(3.13901 -0.883033 0)
(3.13899 -0.882815 0)
(3.13765 -0.8788 0)
(3.13338 -0.863389 0)
(3.11875 -0.81077 0)
(3.10284 -0.733559 0)
(3.07179 -0.583796 0)
(3.05996 -0.484858 0)
(3.0244 -0.3025 0)
(3.01911 -0.243006 0)
(2.99187 -0.119817 0)
(2.99079 -0.101416 0)
(2.96474 -0.0514218 0)
(2.96675 -0.0287429 0)
(2.94907 -0.00838097 0)
(2.9505 0.00855203 0)
(2.94642 0.0217108 0)
(2.93982 0.0379524 0)
(2.93732 0.0354416 0)
(2.93342 0.0298483 0)
(2.92954 0.0211256 0)
(2.92648 0.0102469 0)
(2.92701 0.000958928 0)
(2.92873 0.00452605 0)
(2.93342 0.0156467 0)
(2.93511 0.0235836 0)
(2.93549 0.026478 0)
(2.93444 0.0231533 0)
(2.93204 0.0159715 0)
(2.9307 0.0091508 0)
(2.93131 0.011827 0)
(2.93275 0.0166436 0)
(2.93448 0.0212085 0)
(2.93441 0.0204155 0)
(2.93358 0.017548 0)
(2.93275 0.0147193 0)
(2.93322 0.0154076 0)
(2.93389 0.0174392 0)
(2.93403 0.0175195 0)
(2.9337 0.0168163 0)
(2.93394 0.0165213 0)
(2.93438 0.0171505 0)
(2.9349 0.0182124 0)
(2.93492 0.0179197 0)
(2.93487 0.0169631 0)
(2.93502 0.0170589 0)
(2.93526 0.0177298 0)
(2.93559 0.0180698 0)
(2.93554 0.017717 0)
(2.93565 0.0174671 0)
(2.93581 0.0177263 0)
(2.93596 0.0183597 0)
(2.93625 0.0187707 0)
(2.93626 0.0186316 0)
(2.9361 0.0178238 0)
(3.13793 -0.882826 0)
(3.13796 -0.882827 0)
(3.13799 -0.882825 0)
(3.13803 -0.882835 0)
(3.13807 -0.882831 0)
(3.1381 -0.882835 0)
(3.13814 -0.88285 0)
(3.13817 -0.882844 0)
(3.1382 -0.882855 0)
(3.13824 -0.882854 0)
(3.13828 -0.882856 0)
(3.13832 -0.882867 0)
(3.13836 -0.882872 0)
(3.1384 -0.882875 0)
(3.13844 -0.882883 0)
(3.13847 -0.882871 0)
(3.13851 -0.882877 0)
(3.13854 -0.882874 0)
(3.13857 -0.882879 0)
(3.1386 -0.882877 0)
(3.13864 -0.882868 0)
(3.13867 -0.882873 0)
(3.13869 -0.882889 0)
(3.13871 -0.88289 0)
(3.13873 -0.882906 0)
(3.13874 -0.882946 0)
(3.13875 -0.882962 0)
(3.13877 -0.882968 0)
(3.13877 -0.882994 0)
(3.13878 -0.883005 0)
(3.13879 -0.883012 0)
(3.13879 -0.88303 0)
(3.1388 -0.883067 0)
(3.13881 -0.883072 0)
(3.13883 -0.88307 0)
(3.13884 -0.883061 0)
(3.13885 -0.883093 0)
(3.13887 -0.88311 0)
(3.13889 -0.883086 0)
(3.13893 -0.883066 0)
(3.13896 -0.883039 0)
(3.13899 -0.883022 0)
(3.13901 -0.88302 0)
(3.13904 -0.883002 0)
(3.13907 -0.882998 0)
(3.13912 -0.88298 0)
(3.13918 -0.882996 0)
(3.13919 -0.882989 0)
(3.13921 -0.882974 0)
(3.13919 -0.882978 0)
(3.13917 -0.883012 0)
(3.1386 -0.881251 0)
(3.13577 -0.870872 0)
(3.12303 -0.825303 0)
(3.10505 -0.740268 0)
(3.06725 -0.574121 0)
(3.04788 -0.423595 0)
(3.00549 -0.223715 0)
(3.01058 -0.147962 0)
(2.96575 -0.00408589 0)
(2.96964 0.0166032 0)
(2.95109 0.0717592 0)
(2.94416 0.072254 0)
(2.93372 0.0390121 0)
(2.93052 0.0227696 0)
(2.92852 0.0158869 0)
(2.92866 0.00804397 0)
(2.93046 0.00721525 0)
(2.93871 0.0187616 0)
(2.93983 0.0323735 0)
(2.93835 0.0315198 0)
(2.93496 0.0268483 0)
(2.93171 0.0170158 0)
(2.93083 0.0112212 0)
(2.9314 0.0117363 0)
(2.93407 0.0177634 0)
(2.93594 0.0231819 0)
(2.93546 0.0221114 0)
(2.93417 0.0187908 0)
(2.93345 0.016076 0)
(2.93377 0.0163538 0)
(2.93486 0.0172872 0)
(2.93513 0.0183596 0)
(2.93492 0.0176976 0)
(2.93442 0.01667 0)
(2.93462 0.0166443 0)
(2.93516 0.0176655 0)
(2.93531 0.018333 0)
(2.93503 0.017704 0)
(2.93484 0.0170203 0)
(2.935 0.0174763 0)
(2.93522 0.0178932 0)
(2.93535 0.0177107 0)
(2.93529 0.0173572 0)
(2.93531 0.0174337 0)
(2.93541 0.0179883 0)
(2.93551 0.0184249 0)
(2.93555 0.0184484 0)
(2.93553 0.018336 0)
(2.93538 0.0177411 0)
(3.1386 -0.882894 0)
(3.13862 -0.882906 0)
(3.13864 -0.882911 0)
(3.13866 -0.882915 0)
(3.13868 -0.882921 0)
(3.1387 -0.88292 0)
(3.13872 -0.882927 0)
(3.13874 -0.882923 0)
(3.13876 -0.882915 0)
(3.13879 -0.882922 0)
(3.13881 -0.882918 0)
(3.13884 -0.882925 0)
(3.13886 -0.882932 0)
(3.13889 -0.882929 0)
(3.1389 -0.882933 0)
(3.13892 -0.882936 0)
(3.13893 -0.882933 0)
(3.13895 -0.882936 0)
(3.13896 -0.882941 0)
(3.13896 -0.882951 0)
(3.13897 -0.882949 0)
(3.13897 -0.882963 0)
(3.13896 -0.88299 0)
(3.13896 -0.882984 0)
(3.13896 -0.882993 0)
(3.13894 -0.883038 0)
(3.13893 -0.883047 0)
(3.13892 -0.883031 0)
(3.13891 -0.883037 0)
(3.1389 -0.883034 0)
(3.13888 -0.883028 0)
(3.13888 -0.883024 0)
(3.13887 -0.883019 0)
(3.13888 -0.883002 0)
(3.13889 -0.882985 0)
(3.13889 -0.882984 0)
(3.1389 -0.88299 0)
(3.13893 -0.882988 0)
(3.13895 -0.882982 0)
(3.13897 -0.882959 0)
(3.139 -0.882943 0)
(3.13903 -0.882931 0)
(3.13906 -0.882933 0)
(3.1391 -0.882923 0)
(3.13914 -0.882925 0)
(3.1392 -0.882926 0)
(3.13926 -0.882933 0)
(3.13929 -0.882955 0)
(3.13929 -0.883015 0)
(3.13931 -0.883042 0)
(3.13927 -0.883127 0)
(3.13925 -0.883127 0)
(3.13922 -0.883136 0)
(3.13921 -0.883127 0)
(3.13925 -0.883098 0)
(3.13868 -0.881175 0)
(3.13439 -0.865605 0)
(3.11838 -0.808246 0)
(3.0939 -0.690728 0)
(3.05949 -0.517881 0)
(3.04153 -0.377874 0)
(3.00991 -0.201799 0)
(2.99185 -0.128974 0)
(2.98982 -0.0840045 0)
(2.95916 -0.0330283 0)
(2.95277 -0.0165206 0)
(2.95358 0.00408293 0)
(2.94698 0.0211565 0)
(2.94166 0.0363162 0)
(2.93561 0.0344047 0)
(2.92965 0.0232545 0)
(2.92752 0.0108287 0)
(2.92879 0.00106301 0)
(2.93089 0.00493127 0)
(2.9348 0.015447 0)
(2.93734 0.0234748 0)
(2.93712 0.0233246 0)
(2.9356 0.0190868 0)
(2.93394 0.0127953 0)
(2.9344 0.0133233 0)
(2.93566 0.0161112 0)
(2.93653 0.0187422 0)
(2.93634 0.0180156 0)
(2.93576 0.0162137 0)
(2.93531 0.0159411 0)
(2.93554 0.0173703 0)
(2.93607 0.0183936 0)
(2.93586 0.0178674 0)
(2.93519 0.0168192 0)
(2.93508 0.0168004 0)
(2.93521 0.0174365 0)
(2.93537 0.0182944 0)
(2.93526 0.0180336 0)
(2.93504 0.0174571 0)
(2.93505 0.0174874 0)
(2.93519 0.0179679 0)
(2.93531 0.0184245 0)
(2.93524 0.0184684 0)
(2.93508 0.0181816 0)
(2.93478 0.0174594 0)
(3.13894 -0.883013 0)
(3.13895 -0.88302 0)
(3.13896 -0.883031 0)
(3.13898 -0.883038 0)
(3.13898 -0.883054 0)
(3.139 -0.883059 0)
(3.139 -0.883068 0)
(3.13901 -0.883073 0)
(3.13903 -0.883077 0)
(3.13903 -0.883094 0)
(3.13905 -0.883101 0)
(3.13906 -0.883108 0)
(3.13907 -0.883126 0)
(3.13907 -0.883133 0)
(3.13908 -0.883133 0)
(3.13907 -0.883151 0)
(3.13908 -0.88315 0)
(3.13908 -0.883121 0)
(3.13907 -0.883122 0)
(3.13906 -0.883128 0)
(3.13906 -0.883115 0)
(3.13904 -0.883127 0)
(3.13901 -0.883171 0)
(3.139 -0.883193 0)
(3.13899 -0.883183 0)
(3.13897 -0.883189 0)
(3.13894 -0.88319 0)
(3.13893 -0.883189 0)
(3.13893 -0.88318 0)
(3.13892 -0.883156 0)
(3.13892 -0.883125 0)
(3.1389 -0.883111 0)
(3.13889 -0.88311 0)
(3.13889 -0.883081 0)
(3.13891 -0.883046 0)
(3.13892 -0.883026 0)
(3.13895 -0.883008 0)
(3.13898 -0.883001 0)
(3.139 -0.882981 0)
(3.13901 -0.882955 0)
(3.13904 -0.882936 0)
(3.13907 -0.882925 0)
(3.13911 -0.882917 0)
(3.13915 -0.882927 0)
(3.13921 -0.882953 0)
(3.13927 -0.883006 0)
(3.13935 -0.883024 0)
(3.13938 -0.883094 0)
(3.1394 -0.883149 0)
(3.13939 -0.883229 0)
(3.13935 -0.883314 0)
(3.13935 -0.883328 0)
(3.13936 -0.883333 0)
(3.13937 -0.883345 0)
(3.13941 -0.883335 0)
(3.13945 -0.883241 0)
(3.13956 -0.883121 0)
(3.13961 -0.883105 0)
(3.13965 -0.883071 0)
(3.13783 -0.876581 0)
(3.12869 -0.841307 0)
(3.10126 -0.732837 0)
(3.05997 -0.531566 0)
(3.04177 -0.353398 0)
(2.98863 -0.121929 0)
(2.9812 -0.0443769 0)
(2.97186 0.0207637 0)
(2.9571 0.0786418 0)
(2.9405 0.0666606 0)
(2.93461 0.0347514 0)
(2.93064 0.0174528 0)
(2.93075 0.00742594 0)
(2.93241 0.00658051 0)
(2.94152 0.018883 0)
(2.94258 0.0302146 0)
(2.94101 0.0284582 0)
(2.93748 0.0211756 0)
(2.9352 0.0139977 0)
(2.93502 0.013397 0)
(2.93648 0.0153912 0)
(2.93765 0.0197012 0)
(2.93726 0.0194557 0)
(2.9364 0.0179172 0)
(2.93515 0.0159333 0)
(2.93538 0.0166024 0)
(2.93612 0.0192109 0)
(2.93608 0.0187901 0)
(2.93559 0.0175745 0)
(2.9347 0.0162445 0)
(2.93496 0.0170369 0)
(2.9351 0.0185298 0)
(2.93514 0.0180117 0)
(2.93472 0.0172776 0)
(2.93458 0.017215 0)
(2.93478 0.0178648 0)
(2.93502 0.0185055 0)
(2.93503 0.018467 0)
(2.93487 0.0182794 0)
(2.93462 0.0180123 0)
(2.93422 0.0173128 0)
(3.13901 -0.883118 0)
(3.13902 -0.883115 0)
(3.13902 -0.883124 0)
(3.13902 -0.883137 0)
(3.13903 -0.88314 0)
(3.13903 -0.88315 0)
(3.13904 -0.883161 0)
(3.13904 -0.883165 0)
(3.13905 -0.883173 0)
(3.13905 -0.883189 0)
(3.13905 -0.883203 0)
(3.13905 -0.883213 0)
(3.13905 -0.883232 0)
(3.13905 -0.883235 0)
(3.13905 -0.88323 0)
(3.13904 -0.883251 0)
(3.13904 -0.883251 0)
(3.13904 -0.883219 0)
(3.13903 -0.883209 0)
(3.13903 -0.883206 0)
(3.13903 -0.883191 0)
(3.13902 -0.883196 0)
(3.13901 -0.883211 0)
(3.139 -0.883228 0)
(3.13898 -0.88323 0)
(3.13898 -0.883228 0)
(3.13898 -0.883217 0)
(3.13898 -0.883197 0)
(3.13898 -0.883189 0)
(3.13899 -0.883165 0)
(3.13901 -0.883115 0)
(3.13902 -0.883086 0)
(3.13902 -0.883067 0)
(3.13902 -0.883036 0)
(3.13903 -0.883008 0)
(3.13903 -0.882995 0)
(3.13905 -0.88296 0)
(3.13908 -0.882933 0)
(3.13909 -0.882929 0)
(3.13911 -0.882931 0)
(3.13913 -0.88292 0)
(3.13915 -0.882934 0)
(3.13919 -0.88295 0)
(3.13925 -0.882973 0)
(3.13932 -0.883026 0)
(3.13941 -0.883049 0)
(3.13947 -0.883109 0)
(3.13952 -0.883138 0)
(3.13955 -0.883172 0)
(3.13952 -0.883281 0)
(3.1395 -0.883358 0)
(3.13951 -0.883365 0)
(3.13953 -0.883368 0)
(3.13956 -0.883388 0)
(3.13959 -0.883404 0)
(3.13966 -0.883316 0)
(3.13973 -0.883179 0)
(3.13977 -0.883087 0)
(3.13978 -0.883073 0)
(3.13979 -0.883122 0)
(3.1398 -0.883215 0)
(3.13978 -0.883489 0)
(3.13858 -0.879453 0)
(3.12973 -0.847899 0)
(3.10079 -0.72894 0)
(3.07734 -0.576516 0)
(3.03124 -0.342113 0)
(3.0257 -0.225701 0)
(2.98189 -0.106027 0)
(2.98879 -0.0635767 0)
(2.96672 -0.0197066 0)
(2.95459 0.00437621 0)
(2.95032 0.0215435 0)
(2.94666 0.0325765 0)
(2.94177 0.0305616 0)
(2.9346 0.0201147 0)
(2.93215 0.00555924 0)
(2.93304 0.00693996 0)
(2.93562 0.0123132 0)
(2.93878 0.0198721 0)
(2.93692 0.020794 0)
(2.93561 0.0179792 0)
(2.93401 0.0148546 0)
(2.93415 0.0154333 0)
(2.93523 0.0183496 0)
(2.93546 0.0200798 0)
(2.93491 0.0185371 0)
(2.93401 0.0160368 0)
(2.93411 0.0162071 0)
(2.93487 0.0179109 0)
(2.93484 0.0191829 0)
(2.93443 0.0182542 0)
(2.934 0.017146 0)
(2.93414 0.0173591 0)
(2.93464 0.0182514 0)
(2.93477 0.0185171 0)
(2.9346 0.018349 0)
(2.93434 0.0180422 0)
(2.93401 0.0175672 0)
(2.93368 0.0171222 0)
(3.13888 -0.883175 0)
(3.13888 -0.883178 0)
(3.13889 -0.883187 0)
(3.13889 -0.883215 0)
(3.1389 -0.883213 0)
(3.13891 -0.88321 0)
(3.13891 -0.883228 0)
(3.13892 -0.883221 0)
(3.13894 -0.883218 0)
(3.13894 -0.883239 0)
(3.13896 -0.883245 0)
(3.13897 -0.883245 0)
(3.13898 -0.883246 0)
(3.13899 -0.883244 0)
(3.13899 -0.883255 0)
(3.139 -0.883261 0)
(3.13901 -0.88324 0)
(3.13902 -0.883212 0)
(3.13904 -0.883195 0)
(3.13906 -0.883185 0)
(3.13907 -0.883181 0)
(3.13909 -0.883185 0)
(3.1391 -0.883197 0)
(3.13911 -0.883203 0)
(3.13911 -0.883203 0)
(3.13912 -0.883204 0)
(3.13912 -0.883196 0)
(3.13914 -0.883178 0)
(3.13915 -0.883172 0)
(3.13917 -0.883157 0)
(3.1392 -0.883139 0)
(3.13921 -0.883123 0)
(3.13924 -0.883075 0)
(3.13925 -0.883025 0)
(3.13924 -0.883019 0)
(3.13923 -0.883009 0)
(3.13924 -0.882968 0)
(3.13924 -0.882962 0)
(3.13924 -0.882969 0)
(3.13925 -0.882978 0)
(3.13925 -0.882996 0)
(3.13926 -0.883021 0)
(3.13926 -0.883092 0)
(3.1393 -0.883138 0)
(3.1394 -0.883149 0)
(3.1395 -0.883185 0)
(3.13958 -0.88319 0)
(3.13965 -0.883161 0)
(3.13968 -0.883161 0)
(3.13967 -0.883252 0)
(3.13967 -0.883345 0)
(3.13967 -0.883361 0)
(3.1397 -0.88337 0)
(3.13973 -0.883407 0)
(3.13974 -0.883464 0)
(3.13977 -0.883421 0)
(3.13986 -0.883256 0)
(3.13991 -0.883124 0)
(3.13992 -0.883107 0)
(3.13993 -0.883101 0)
(3.13989 -0.883195 0)
(3.13983 -0.88339 0)
(3.13986 -0.883564 0)
(3.13997 -0.883585 0)
(3.14004 -0.883488 0)
(3.13914 -0.879522 0)
(3.12741 -0.836979 0)
(3.10644 -0.729281 0)
(3.0344 -0.412609 0)
(3.05359 -0.292622 0)
(2.98978 -0.0312849 0)
(2.97289 0.000930588 0)
(2.96542 0.0824481 0)
(2.94035 0.0584821 0)
(2.93412 0.0287022 0)
(2.93383 0.0132137 0)
(2.93388 0.0101052 0)
(2.93482 0.0107153 0)
(2.94278 0.0272756 0)
(2.93586 0.0258236 0)
(2.93353 0.0208755 0)
(2.93181 0.0141332 0)
(2.93192 0.0140768 0)
(2.93377 0.0179278 0)
(2.93501 0.022051 0)
(2.93438 0.0203789 0)
(2.93335 0.0168254 0)
(2.93273 0.0149383 0)
(2.93374 0.0169867 0)
(2.93456 0.0194646 0)
(2.93428 0.0188829 0)
(2.93354 0.0173117 0)
(2.93352 0.0167773 0)
(2.93403 0.0178461 0)
(2.9344 0.0188194 0)
(2.93427 0.0186857 0)
(2.93404 0.0182096 0)
(2.93386 0.0177812 0)
(2.93358 0.0172901 0)
(2.93337 0.016948 0)
(3.13881 -0.883106 0)
(3.13882 -0.883111 0)
(3.13884 -0.883104 0)
(3.13885 -0.883113 0)
(3.13886 -0.883129 0)
(3.13888 -0.88313 0)
(3.1389 -0.883133 0)
(3.13891 -0.88314 0)
(3.13893 -0.883136 0)
(3.13895 -0.883136 0)
(3.13897 -0.883142 0)
(3.13899 -0.883143 0)
(3.13901 -0.883142 0)
(3.13904 -0.883143 0)
(3.13906 -0.88314 0)
(3.13908 -0.883131 0)
(3.13911 -0.883123 0)
(3.13914 -0.883108 0)
(3.13917 -0.883099 0)
(3.1392 -0.883104 0)
(3.13923 -0.88311 0)
(3.13926 -0.883108 0)
(3.13929 -0.883107 0)
(3.13932 -0.883105 0)
(3.13934 -0.883101 0)
(3.13936 -0.883098 0)
(3.13938 -0.883093 0)
(3.1394 -0.883079 0)
(3.13942 -0.883074 0)
(3.13945 -0.883051 0)
(3.13949 -0.88304 0)
(3.13951 -0.883034 0)
(3.13953 -0.883033 0)
(3.13954 -0.883008 0)
(3.13952 -0.882936 0)
(3.13947 -0.882898 0)
(3.13942 -0.882938 0)
(3.1394 -0.882961 0)
(3.13937 -0.882991 0)
(3.13935 -0.883035 0)
(3.13936 -0.883064 0)
(3.13935 -0.883123 0)
(3.13937 -0.883188 0)
(3.13944 -0.883235 0)
(3.13953 -0.883242 0)
(3.13961 -0.883211 0)
(3.1397 -0.883177 0)
(3.13975 -0.88313 0)
(3.13977 -0.883084 0)
(3.13977 -0.883133 0)
(3.13981 -0.883221 0)
(3.13984 -0.883253 0)
(3.13987 -0.883267 0)
(3.13991 -0.883329 0)
(3.13991 -0.883426 0)
(3.13991 -0.883437 0)
(3.13994 -0.883373 0)
(3.13997 -0.883248 0)
(3.14004 -0.883169 0)
(3.14005 -0.883164 0)
(3.14001 -0.883218 0)
(3.13999 -0.883274 0)
(3.14 -0.883441 0)
(3.14005 -0.88355 0)
(3.14016 -0.883512 0)
(3.14023 -0.88333 0)
(3.14022 -0.883239 0)
(3.14027 -0.883302 0)
(3.13621 -0.870839 0)
(3.12324 -0.805907 0)
(3.08489 -0.614918 0)
(3.0632 -0.446329 0)
(3.0103 -0.180449 0)
(3.01593 -0.138401 0)
(2.96738 -0.0469183 0)
(2.95828 -0.0156007 0)
(2.95414 0.00401623 0)
(2.93741 0.0273456 0)
(2.93591 0.0310971 0)
(2.9296 0.0245749 0)
(2.92635 0.00883784 0)
(2.92768 0.00912076 0)
(2.93134 0.014386 0)
(2.93436 0.021536 0)
(2.93418 0.0215392 0)
(2.93193 0.0158196 0)
(2.93106 0.0131604 0)
(2.93211 0.014827 0)
(2.9341 0.0199194 0)
(2.93409 0.0196785 0)
(2.93319 0.0172203 0)
(2.93292 0.0161363 0)
(2.93333 0.016991 0)
(2.934 0.0187651 0)
(2.93397 0.0188316 0)
(2.93378 0.0183573 0)
(2.93367 0.017869 0)
(2.93357 0.0174531 0)
(2.93335 0.0168673 0)
(2.93317 0.0167236 0)
(3.13891 -0.883096 0)
(3.13891 -0.883103 0)
(3.13891 -0.883102 0)
(3.13891 -0.88309 0)
(3.13892 -0.88309 0)
(3.13894 -0.883096 0)
(3.13895 -0.883085 0)
(3.13897 -0.88307 0)
(3.13899 -0.883068 0)
(3.13901 -0.883061 0)
(3.13903 -0.883045 0)
(3.13905 -0.883039 0)
(3.13907 -0.883039 0)
(3.1391 -0.883029 0)
(3.13913 -0.88301 0)
(3.13917 -0.883 0)
(3.1392 -0.882998 0)
(3.13924 -0.882984 0)
(3.13928 -0.882972 0)
(3.13932 -0.882981 0)
(3.13935 -0.883004 0)
(3.13939 -0.883029 0)
(3.13943 -0.883046 0)
(3.13948 -0.883043 0)
(3.13952 -0.883039 0)
(3.13956 -0.883045 0)
(3.1396 -0.883047 0)
(3.13964 -0.883045 0)
(3.13967 -0.883044 0)
(3.1397 -0.883042 0)
(3.13973 -0.883031 0)
(3.13974 -0.883038 0)
(3.13977 -0.883026 0)
(3.13976 -0.882981 0)
(3.13972 -0.882973 0)
(3.13966 -0.88301 0)
(3.13963 -0.883063 0)
(3.1396 -0.883084 0)
(3.13949 -0.883154 0)
(3.13946 -0.883222 0)
(3.13946 -0.88323 0)
(3.13948 -0.883246 0)