/*--------------------------------*- C++ -*----------------------------------*\
  =========                 |
  \\      /  F ield         | OpenFOAM: The Open Source CFD Toolbox
   \\    /   O peration     | Website:  https://openfoam.org
    \\  /    A nd           | Version:  7
     \\/     M anipulation  |
\*---------------------------------------------------------------------------*/
FoamFile
{
    version     2.0;
    format      ascii;
    class       volVectorField;
    location    "9.1";
    object      U;
}
// * * * * * * * * * * * * * * * * * * * * * * * * * * * * * * * * * * * * * //

dimensions      [0 1 -1 0 0 0 0];

internalField   nonuniform List<vector> 
11200
(
(2.50379 -0.576541 0)
(2.4756 -0.117785 0)
(2.48571 0.0923505 0)
(2.49432 0.244723 0)
(2.49197 0.354443 0)
(2.51269 0.403906 0)
(2.52363 0.412582 0)
(2.56358 0.400214 0)
(2.59939 0.378524 0)
(2.62955 0.318676 0)
(2.6714 0.282257 0)
(2.67913 0.197974 0)
(2.69307 0.174789 0)
(2.70149 0.139424 0)
(2.71031 0.167276 0)
(2.718 0.1965 0)
(2.72818 0.208195 0)
(2.73866 0.209302 0)
(2.74579 0.203106 0)
(2.75268 0.180498 0)
(2.76844 0.172192 0)
(2.78518 0.17316 0)
(2.79775 0.17025 0)
(2.80846 0.166886 0)
(2.81508 0.174868 0)
(2.82063 0.179672 0)
(2.8249 0.171357 0)
(2.82924 0.146094 0)
(2.84257 0.130522 0)
(2.85192 0.111772 0)
(2.65342 -1.46771 0)
(2.66702 -1.44381 0)
(2.66011 -1.27789 0)
(2.60287 -1.01054 0)
(2.55183 -0.746764 0)
(2.472 -0.365399 0)
(2.48055 -0.245547 0)
(2.42464 0.0158553 0)
(2.4416 0.0394167 0)
(2.44755 0.148766 0)
(2.46057 0.114372 0)
(2.50203 0.163795 0)
(2.52521 0.14773 0)
(2.53882 0.136451 0)
(2.55105 0.141645 0)
(2.55507 0.136734 0)
(2.55849 0.127307 0)
(2.5757 0.136759 0)
(2.59504 0.150232 0)
(2.62188 0.174788 0)
(2.64721 0.177259 0)
(2.67027 0.182516 0)
(2.68711 0.180704 0)
(2.70336 0.169319 0)
(2.72032 0.161257 0)
(2.73426 0.146361 0)
(2.74439 0.132251 0)
(2.7543 0.134973 0)
(2.76961 0.138486 0)
(2.79148 0.116066 0)
(2.84027 -1.56912 0)
(2.89736 -1.57307 0)
(2.91999 -1.63106 0)
(2.94862 -1.62456 0)
(2.96791 -1.63429 0)
(2.96529 -1.58931 0)
(2.92246 -1.45205 0)
(2.7894 -1.13424 0)
(2.65727 -0.795706 0)
(2.51261 -0.380626 0)
(2.43188 -0.0778508 0)
(2.38539 0.155839 0)
(2.37813 0.184924 0)
(2.4155 0.270516 0)
(2.42836 0.248475 0)
(2.44506 0.178823 0)
(2.46151 0.114733 0)
(2.48754 0.11277 0)
(2.49434 0.154542 0)
(2.51371 0.194736 0)
(2.53109 0.19849 0)
(2.54449 0.165918 0)
(2.56341 0.141121 0)
(2.58193 0.142317 0)
(2.60395 0.141506 0)
(2.61868 0.143175 0)
(2.62955 0.148047 0)
(2.64505 0.137405 0)
(2.66492 0.131931 0)
(2.69911 0.121063 0)
(3.00467 -1.63222 0)
(3.01854 -1.65724 0)
(3.0412 -1.65524 0)
(3.05199 -1.66428 0)
(3.06053 -1.65965 0)
(3.06657 -1.66905 0)
(3.06563 -1.65787 0)
(3.06686 -1.64836 0)
(3.06711 -1.64861 0)
(3.02991 -1.56952 0)
(2.91245 -1.325 0)
(2.73341 -0.801782 0)
(2.68065 -0.480273 0)
(2.52462 -0.0457133 0)
(2.52036 0.0557786 0)
(2.4957 0.0969395 0)
(2.50346 0.117616 0)
(2.50138 0.136013 0)
(2.48403 0.158061 0)
(2.48127 0.160782 0)
(2.48138 0.145274 0)
(2.48233 0.149652 0)
(2.49264 0.149702 0)
(2.50605 0.140013 0)
(2.51711 0.146296 0)
(2.52335 0.133257 0)
(2.53167 0.119309 0)
(2.54555 0.109874 0)
(2.56278 0.10907 0)
(2.59517 0.100285 0)
(3.07156 -1.6808 0)
(3.07503 -1.68158 0)
(3.07506 -1.68543 0)
(3.07525 -1.67697 0)
(3.07312 -1.66927 0)
(3.06978 -1.65931 0)
(3.06792 -1.64969 0)
(3.06754 -1.64183 0)
(3.06896 -1.63552 0)
(3.06882 -1.63452 0)
(3.06635 -1.64449 0)
(3.06572 -1.65453 0)
(3.04884 -1.60633 0)
(2.90303 -1.23303 0)
(2.7744 -0.71618 0)
(2.61775 -0.199064 0)
(2.5654 0.0304696 0)
(2.50872 0.20961 0)
(2.4694 0.191739 0)
(2.47056 0.154268 0)
(2.48327 0.125223 0)
(2.48785 0.137259 0)
(2.48614 0.133993 0)
(2.48807 0.132638 0)
(2.48878 0.123627 0)
(2.48457 0.126027 0)
(2.48788 0.129476 0)
(2.4944 0.12095 0)
(2.50208 0.114757 0)
(2.52006 0.103247 0)
(3.08621 -1.67844 0)
(3.08223 -1.67957 0)
(3.07655 -1.67656 0)
(3.07195 -1.6706 0)
(3.06876 -1.665 0)
(3.06578 -1.65584 0)
(3.06593 -1.65168 0)
(3.06653 -1.64766 0)
(3.06505 -1.64339 0)
(3.06382 -1.64907 0)
(3.05745 -1.65525 0)
(3.05941 -1.65415 0)
(3.0564 -1.65645 0)
(3.05377 -1.656 0)
(3.05071 -1.6505 0)
(2.98043 -1.47585 0)
(2.83878 -0.987175 0)
(2.66929 -0.348899 0)
(2.62428 -0.0863456 0)
(2.54159 0.0670153 0)
(2.51704 0.0978572 0)
(2.5059 0.132767 0)
(2.49216 0.116215 0)
(2.4926 0.117238 0)
(2.48744 0.11039 0)
(2.48576 0.111066 0)
(2.48607 0.11217 0)
(2.48578 0.10456 0)
(2.48631 0.102231 0)
(2.49469 0.0944326 0)
(3.07796 -1.68908 0)
(3.07339 -1.68699 0)
(3.06634 -1.68193 0)
(3.05772 -1.67921 0)
(3.05428 -1.67369 0)
(3.05651 -1.66637 0)
(3.05854 -1.66297 0)
(3.05952 -1.65827 0)
(3.05731 -1.65494 0)
(3.053 -1.65508 0)
(3.05069 -1.66103 0)
(3.05193 -1.65856 0)
(3.05159 -1.65622 0)
(3.04927 -1.65528 0)
(3.03826 -1.64107 0)
(3.03776 -1.63387 0)
(3.0359 -1.63627 0)
(2.99415 -1.50882 0)
(2.87372 -1.01045 0)
(2.69777 -0.403471 0)
(2.65168 -0.115625 0)
(2.55877 0.0971335 0)
(2.5045 0.112406 0)
(2.52105 0.140049 0)
(2.50625 0.119652 0)
(2.50336 0.104477 0)
(2.50119 0.0936322 0)
(2.49819 0.0851043 0)
(2.49528 0.0828639 0)
(2.49795 0.0790225 0)
(3.0594 -1.67915 0)
(3.05319 -1.67483 0)
(3.04505 -1.67462 0)
(3.03999 -1.67559 0)
(3.04095 -1.67199 0)
(3.04484 -1.67076 0)
(3.04837 -1.66755 0)
(3.05218 -1.66032 0)
(3.05119 -1.65648 0)
(3.04084 -1.65882 0)
(3.03695 -1.66095 0)
(3.02689 -1.64903 0)
(3.02825 -1.6302 0)
(3.02921 -1.61891 0)
(3.02926 -1.59816 0)
(3.02616 -1.59172 0)
(3.03148 -1.57184 0)
(3.03301 -1.57925 0)
(3.03836 -1.58692 0)
(3.01071 -1.48284 0)
(2.9165 -1.05034 0)
(2.77155 -0.487627 0)
(2.71496 -0.131625 0)
(2.58891 0.0905299 0)
(2.54429 0.119622 0)
(2.56185 0.135016 0)
(2.55039 0.100299 0)
(2.54532 0.101008 0)
(2.53554 0.102584 0)
(2.5259 0.0999856 0)
(3.04858 -1.66703 0)
(3.04297 -1.66553 0)
(3.03446 -1.66852 0)
(3.02775 -1.66879 0)
(3.02839 -1.66541 0)
(3.03403 -1.66273 0)
(3.03846 -1.65703 0)
(3.03653 -1.65069 0)
(3.02616 -1.64902 0)
(3.01974 -1.64884 0)
(3.00556 -1.66027 0)
(3.00548 -1.63736 0)
(3.02417 -1.60144 0)
(3.0388 -1.59826 0)
(3.05331 -1.58052 0)
(3.04958 -1.55049 0)
(3.04787 -1.53671 0)
(3.04552 -1.53521 0)
(3.05737 -1.49181 0)
(3.0985 -1.47865 0)
(3.08991 -1.48154 0)
(3.0576 -1.42218 0)
(2.96694 -0.979986 0)
(2.8196 -0.469523 0)
(2.75431 -0.10829 0)
(2.64776 0.0968232 0)
(2.60921 0.115102 0)
(2.62304 0.127252 0)
(2.60296 0.0808678 0)
(2.59219 0.0681172 0)
(3.03134 -1.60566 0)
(3.02673 -1.60143 0)
(3.01898 -1.60734 0)
(3.02025 -1.61326 0)
(3.03129 -1.61441 0)
(3.04064 -1.61032 0)
(3.0406 -1.60398 0)
(3.04352 -1.59202 0)
(3.04812 -1.57899 0)
(3.04139 -1.56832 0)
(3.01937 -1.58021 0)
(3.01632 -1.58179 0)
(3.03565 -1.55574 0)
(3.04441 -1.56517 0)
(3.05348 -1.55978 0)
(3.0512 -1.52573 0)
(3.04461 -1.50648 0)
(3.04018 -1.49435 0)
(3.04277 -1.47842 0)
(3.0627 -1.44699 0)
(3.08872 -1.40073 0)
(3.11089 -1.37282 0)
(3.10702 -1.38757 0)
(3.06327 -1.307 0)
(2.98189 -0.873853 0)
(2.86718 -0.428204 0)
(2.81649 -0.0883326 0)
(2.70518 0.101941 0)
(2.66287 0.11458 0)
(2.66973 0.115361 0)
(3.02565 -1.60169 0)
(3.03369 -1.58976 0)
(3.04032 -1.58373 0)
(3.04663 -1.56902 0)
(3.05549 -1.5394 0)
(3.06816 -1.52537 0)
(3.07711 -1.51199 0)
(3.07571 -1.50698 0)
(3.07534 -1.49066 0)
(3.07572 -1.48219 0)
(3.05929 -1.48893 0)
(3.05098 -1.49078 0)
(3.06273 -1.46584 0)
(3.0779 -1.45707 0)
(3.0773 -1.48038 0)
(3.07058 -1.46289 0)
(3.06489 -1.42833 0)
(3.06049 -1.41526 0)
(3.0612 -1.40361 0)
(3.06209 -1.39759 0)
(3.0661 -1.37722 0)
(3.0861 -1.33748 0)
(3.10516 -1.30442 0)
(3.11592 -1.30762 0)
(3.10769 -1.30865 0)
(3.07412 -1.18682 0)
(3.01529 -0.769863 0)
(2.8919 -0.335107 0)
(2.8459 -0.0505614 0)
(2.73046 0.106059 0)
(3.04841 -1.50634 0)
(3.05053 -1.50312 0)
(3.04812 -1.50664 0)
(3.04641 -1.51634 0)
(3.04818 -1.52196 0)
(3.05864 -1.5254 0)
(3.06921 -1.50804 0)
(3.06409 -1.48689 0)
(3.07021 -1.45714 0)
(3.07708 -1.44088 0)
(3.07107 -1.43243 0)
(3.06515 -1.43626 0)
(3.06804 -1.39549 0)
(3.09291 -1.35208 0)
(3.10993 -1.33624 0)
(3.10496 -1.3402 0)
(3.09617 -1.33938 0)
(3.09301 -1.33146 0)
(3.09369 -1.32444 0)
(3.09147 -1.31896 0)
(3.08551 -1.31147 0)
(3.0806 -1.30197 0)
(3.09007 -1.27465 0)
(3.10495 -1.24481 0)
(3.1201 -1.22234 0)
(3.1093 -1.23783 0)
(3.1027 -1.21517 0)
(3.0739 -1.03277 0)
(3.05021 -0.68809 0)
(2.85521 -0.110117 0)
(3.06734 -1.40259 0)
(3.07196 -1.39516 0)
(3.08081 -1.38298 0)
(3.0902 -1.37392 0)
(3.09716 -1.37002 0)
(3.10243 -1.36375 0)
(3.10106 -1.35448 0)
(3.09491 -1.35024 0)
(3.094 -1.34793 0)
(3.09329 -1.34667 0)
(3.08342 -1.35561 0)
(3.07115 -1.37915 0)
(3.06728 -1.34854 0)
(3.08383 -1.31535 0)
(3.10715 -1.30163 0)
(3.10934 -1.27649 0)
(3.10636 -1.26735 0)
(3.10919 -1.24645 0)
(3.12065 -1.22591 0)
(3.12526 -1.21373 0)
(3.11886 -1.20633 0)
(3.10675 -1.19893 0)
(3.09454 -1.20874 0)
(3.10059 -1.19056 0)
(3.11919 -1.16559 0)
(3.12561 -1.14653 0)
(3.12268 -1.13679 0)
(3.1135 -1.13094 0)
(3.1145 -1.13772 0)
(3.01409 -0.579982 0)
(3.0882 -1.27517 0)
(3.09112 -1.2777 0)
(3.09953 -1.27481 0)
(3.10263 -1.2837 0)
(3.10227 -1.31411 0)
(3.10731 -1.30811 0)
(3.10346 -1.28318 0)
(3.10069 -1.27833 0)
(3.10722 -1.24793 0)
(3.11889 -1.21344 0)
(3.12045 -1.2049 0)
(3.10749 -1.20877 0)
(3.10191 -1.21584 0)
(3.10757 -1.22181 0)
(3.11415 -1.23892 0)
(3.11332 -1.22721 0)
(3.10708 -1.20431 0)
(3.10539 -1.19418 0)
(3.11299 -1.17631 0)
(3.1229 -1.15491 0)
(3.12739 -1.13902 0)
(3.13051 -1.12512 0)
(3.12322 -1.12152 0)
(3.11231 -1.12305 0)
(3.1173 -1.11253 0)
(3.12547 -1.09084 0)
(3.13262 -1.0828 0)
(3.12866 -1.07654 0)
(3.12395 -1.06983 0)
(3.12061 -1.04905 0)
(3.11042 -1.16748 0)
(3.11596 -1.1646 0)
(3.12251 -1.16356 0)
(3.12667 -1.16805 0)
(3.12266 -1.18476 0)
(3.12044 -1.19217 0)
(3.11341 -1.17749 0)
(3.11057 -1.17337 0)
(3.1171 -1.15948 0)
(3.12308 -1.15211 0)
(3.12055 -1.1565 0)
(3.11809 -1.14914 0)
(3.12148 -1.13195 0)
(3.12389 -1.1125 0)
(3.13329 -1.08727 0)
(3.13434 -1.0819 0)
(3.12513 -1.0895 0)
(3.12046 -1.10347 0)
(3.11669 -1.11279 0)
(3.11282 -1.10569 0)
(3.11886 -1.08284 0)
(3.1288 -1.06385 0)
(3.13179 -1.05537 0)
(3.13239 -1.04484 0)
(3.12765 -1.04042 0)
(3.12465 -1.03271 0)
(3.13084 -1.03328 0)
(3.13256 -1.01679 0)
(3.13294 -1.00018 0)
(3.12886 -0.993742 0)
(3.13264 -1.02702 0)
(3.14258 -1.02879 0)
(3.1466 -1.03439 0)
(3.14358 -1.04102 0)
(3.14032 -1.05267 0)
(3.13544 -1.0667 0)
(3.12723 -1.05669 0)
(3.12523 -1.04948 0)
(3.12658 -1.04081 0)
(3.14013 -1.01505 0)
(3.14099 -1.00889 0)
(3.13034 -1.0176 0)
(3.12317 -1.02794 0)
(3.12598 -1.0261 0)
(3.13266 -1.02027 0)
(3.13428 -1.01609 0)
(3.13401 -1.00492 0)
(3.13913 -0.985148 0)
(3.1386 -0.979813 0)
(3.13046 -0.985108 0)
(3.12778 -0.995113 0)
(3.12864 -0.990709 0)
(3.13018 -0.9775 0)
(3.13362 -0.969976 0)
(3.13375 -0.966939 0)
(3.13106 -0.964657 0)
(3.13112 -0.954231 0)
(3.13174 -0.955754 0)
(3.13343 -0.951826 0)
(3.13373 -0.940454 0)
(3.12791 -0.897564 0)
(3.1377 -0.899526 0)
(3.15037 -0.906808 0)
(3.14972 -0.917964 0)
(3.14971 -0.924571 0)
(3.14099 -0.937291 0)
(3.13246 -0.950969 0)
(3.13169 -0.938959 0)
(3.13714 -0.924477 0)
(3.13811 -0.915555 0)
(3.13803 -0.916346 0)
(3.1365 -0.919841 0)
(3.13427 -0.92198 0)
(3.1338 -0.912706 0)
(3.13726 -0.908244 0)
(3.13651 -0.911584 0)
(3.13501 -0.917442 0)
(3.13497 -0.914454 0)
(3.13676 -0.911329 0)
(3.14016 -0.900773 0)
(3.13929 -0.886691 0)
(3.13713 -0.885057 0)
(3.13299 -0.890461 0)
(3.13317 -0.891978 0)
(3.13513 -0.888478 0)
(3.13506 -0.887734 0)
(3.13377 -0.884867 0)
(3.13312 -0.881528 0)
(3.13347 -0.882859 0)
(3.1344 -0.880361 0)
(3.13243 -0.769791 0)
(3.12928 -0.75608 0)
(3.14591 -0.767592 0)
(3.14729 -0.784375 0)
(3.14819 -0.793326 0)
(3.1429 -0.802782 0)
(3.13375 -0.816026 0)
(3.13194 -0.811886 0)
(3.13763 -0.799711 0)
(3.14013 -0.786897 0)
(3.14222 -0.789789 0)
(3.1371 -0.799183 0)
(3.13364 -0.800504 0)
(3.13391 -0.798782 0)
(3.13646 -0.798195 0)
(3.14037 -0.797204 0)
(3.14099 -0.795648 0)
(3.13594 -0.797146 0)
(3.13376 -0.799212 0)
(3.13255 -0.804854 0)
(3.13473 -0.809949 0)
(3.13591 -0.809254 0)
(3.13622 -0.806556 0)
(3.13472 -0.806634 0)
(3.13427 -0.808217 0)
(3.13438 -0.808619 0)
(3.13482 -0.808922 0)
(3.13399 -0.810185 0)
(3.13353 -0.81131 0)
(3.13298 -0.814988 0)
(3.12564 -0.635492 0)
(3.12456 -0.616241 0)
(3.12989 -0.611013 0)
(3.14087 -0.634252 0)
(3.13729 -0.653422 0)
(3.13818 -0.660096 0)
(3.12615 -0.673358 0)
(3.12291 -0.677943 0)
(3.12645 -0.674151 0)
(3.13577 -0.66428 0)
(3.13721 -0.663963 0)
(3.13398 -0.671011 0)
(3.1287 -0.679159 0)
(3.12533 -0.681153 0)
(3.1308 -0.686386 0)
(3.13282 -0.689239 0)
(3.13279 -0.692604 0)
(3.13203 -0.697758 0)
(3.13097 -0.700496 0)
(3.12974 -0.698887 0)
(3.1317 -0.707543 0)
(3.13104 -0.711759 0)
(3.13086 -0.716538 0)
(3.13162 -0.722316 0)
(3.13173 -0.72655 0)
(3.13115 -0.732555 0)
(3.13212 -0.733548 0)
(3.13237 -0.731799 0)
(3.13211 -0.740565 0)
(3.13065 -0.746944 0)
(3.1064 -0.492966 0)
(3.10644 -0.475789 0)
(3.10996 -0.463257 0)
(3.12266 -0.484896 0)
(3.12187 -0.504354 0)
(3.12647 -0.5146 0)
(3.11051 -0.534665 0)
(3.10409 -0.542422 0)
(3.10938 -0.537953 0)
(3.12265 -0.528549 0)
(3.12493 -0.53242 0)
(3.12198 -0.544429 0)
(3.11686 -0.549957 0)
(3.11585 -0.551894 0)
(3.12011 -0.564386 0)
(3.12111 -0.569192 0)
(3.12159 -0.570929 0)
(3.12237 -0.574989 0)
(3.12225 -0.590988 0)
(3.12212 -0.593275 0)
(3.12351 -0.597405 0)
(3.12448 -0.607376 0)
(3.12407 -0.61029 0)
(3.12456 -0.619344 0)
(3.1247 -0.620957 0)
(3.12483 -0.630665 0)
(3.12516 -0.64729 0)
(3.12479 -0.649921 0)
(3.12684 -0.659595 0)
(3.12773 -0.675629 0)
(3.07896 -0.349066 0)
(3.08246 -0.330564 0)
(3.08445 -0.308828 0)
(3.09969 -0.32871 0)
(3.09926 -0.359004 0)
(3.0992 -0.365585 0)
(3.08627 -0.389488 0)
(3.07867 -0.40414 0)
(3.08724 -0.39938 0)
(3.10243 -0.389737 0)
(3.10453 -0.395441 0)
(3.10248 -0.410032 0)
(3.0976 -0.418479 0)
(3.09822 -0.42093 0)
(3.10398 -0.439843 0)
(3.10359 -0.444044 0)
(3.10495 -0.454402 0)
(3.10683 -0.460583 0)
(3.10809 -0.469366 0)
(3.10911 -0.486093 0)
(3.11001 -0.492294 0)
(3.11225 -0.50366 0)
(3.11308 -0.515587 0)
(3.11419 -0.529505 0)
(3.11521 -0.543236 0)
(3.11632 -0.548118 0)
(3.11813 -0.562331 0)
(3.11848 -0.578806 0)
(3.11961 -0.584775 0)
(3.12165 -0.597356 0)
(3.04222 -0.199445 0)
(3.04745 -0.183747 0)
(3.05158 -0.162042 0)
(3.06658 -0.174274 0)
(3.06562 -0.210195 0)
(3.06448 -0.21983 0)
(3.05585 -0.243634 0)
(3.04807 -0.263569 0)
(3.0572 -0.260399 0)
(3.07383 -0.248859 0)
(3.07829 -0.25554 0)
(3.07684 -0.274675 0)
(3.07076 -0.285965 0)
(3.07111 -0.287234 0)
(3.07987 -0.311591 0)
(3.0806 -0.322456 0)
(3.08117 -0.324626 0)
(3.0862 -0.343124 0)
(3.08767 -0.352762 0)
(3.08912 -0.367051 0)
(3.09167 -0.381984 0)
(3.09429 -0.393124 0)
(3.09683 -0.410435 0)
(3.09774 -0.41716 0)
(3.10075 -0.437067 0)
(3.10253 -0.452556 0)
(3.10422 -0.459426 0)
(3.10616 -0.474536 0)
(3.10723 -0.489591 0)
(3.10954 -0.511154 0)
(2.99621 -0.0517148 0)
(3.00214 -0.03874 0)
(3.00886 -0.0203198 0)
(3.02418 -0.0298623 0)
(3.02201 -0.0636874 0)
(3.01891 -0.0773796 0)
(3.01536 -0.100011 0)
(3.00895 -0.12224 0)
(3.01907 -0.11998 0)
(3.03628 -0.10856 0)
(3.04358 -0.117355 0)
(3.04113 -0.141824 0)
(3.03442 -0.149759 0)
(3.03733 -0.159381 0)
(3.04581 -0.181287 0)
(3.04847 -0.194997 0)
(3.05142 -0.202314 0)
(3.05704 -0.21682 0)
(3.05961 -0.234532 0)
(3.0613 -0.249442 0)
(3.06627 -0.269172 0)
(3.06953 -0.279774 0)
(3.07424 -0.301836 0)
(3.07686 -0.317909 0)
(3.08002 -0.33229 0)
(3.08371 -0.351898 0)
(3.08696 -0.373245 0)
(3.08983 -0.387627 0)
(3.09305 -0.406174 0)
(3.09696 -0.433577 0)
(2.94065 0.0924954 0)
(2.94573 0.100631 0)
(2.95427 0.114752 0)
(2.96605 0.114084 0)
(2.96656 0.0862605 0)
(2.96361 0.0656676 0)
(2.96744 0.0381754 0)
(2.96201 0.0122119 0)
(2.97084 0.0147723 0)
(2.98547 0.0267452 0)
(2.99545 0.0180199 0)
(2.99576 -0.00849118 0)
(2.98979 -0.0191272 0)
(2.9929 -0.0298417 0)
(3.00345 -0.0576215 0)
(3.0063 -0.0662761 0)
(3.01321 -0.0797314 0)
(3.01948 -0.0927901 0)
(3.02405 -0.116426 0)
(3.02651 -0.132713 0)
(3.03257 -0.15002 0)
(3.03974 -0.171445 0)
(3.04355 -0.185312 0)
(3.04915 -0.208923 0)
(3.05436 -0.230352 0)
(3.05872 -0.246639 0)
(3.06388 -0.268911 0)
(3.06842 -0.289848 0)
(3.07243 -0.308029 0)
(3.07843 -0.33809 0)
(2.87555 0.236965 0)
(2.87798 0.238473 0)
(2.88379 0.244782 0)
(2.89262 0.247783 0)
(2.8988 0.229048 0)
(2.90498 0.20631 0)
(2.91034 0.180189 0)
(2.90468 0.157905 0)
(2.90986 0.15628 0)
(2.91722 0.16677 0)
(2.93414 0.150976 0)
(2.93928 0.119842 0)
(2.93743 0.112349 0)
(2.94216 0.102187 0)
(2.95356 0.070863 0)
(2.95698 0.0593976 0)
(2.96576 0.0451729 0)
(2.97543 0.0259483 0)
(2.98076 0.00617718 0)
(2.98585 -0.0147523 0)
(2.99396 -0.03579 0)
(3.00151 -0.0531991 0)
(3.00963 -0.0786567 0)
(3.01537 -0.0971248 0)
(3.02259 -0.12055 0)
(3.02995 -0.145196 0)
(3.03636 -0.167023 0)
(3.04269 -0.190009 0)
(3.04879 -0.213485 0)
(3.05779 -0.250324 0)
(2.82227 0.35624 0)
(2.82283 0.358275 0)
(2.82641 0.356486 0)
(2.83436 0.345999 0)
(2.83799 0.34068 0)
(2.8425 0.332778 0)
(2.84688 0.320493 0)
(2.84906 0.306537 0)
(2.85139 0.301205 0)
(2.85326 0.301385 0)
(2.86872 0.279921 0)
(2.87591 0.25798 0)
(2.87887 0.250748 0)
(2.88777 0.235355 0)
(2.89702 0.21201 0)
(2.90397 0.191877 0)
(2.9123 0.175718 0)
(2.92393 0.152545 0)
(2.93253 0.130075 0)
(2.94078 0.106919 0)
(2.95046 0.0830231 0)
(2.95964 0.0618894 0)
(2.97013 0.0344981 0)
(2.9782 0.0119871 0)
(2.98815 -0.0153506 0)
(2.99653 -0.038519 0)
(3.00563 -0.0657721 0)
(3.01414 -0.0916005 0)
(3.02203 -0.116618 0)
(3.03381 -0.15681 0)
(2.81303 0.382039 0)
(2.81291 0.381047 0)
(2.81318 0.380183 0)
(2.81426 0.378905 0)
(2.81537 0.378228 0)
(2.81618 0.378001 0)
(2.81713 0.377495 0)
(2.81834 0.376098 0)
(2.81926 0.375211 0)
(2.82144 0.372064 0)
(2.82512 0.365789 0)
(2.82765 0.361393 0)
(2.83069 0.356567 0)
(2.83661 0.347064 0)
(2.84391 0.334184 0)
(2.85043 0.322659 0)
(2.85979 0.304666 0)
(2.86798 0.286711 0)
(2.87885 0.262107 0)
(2.88875 0.239726 0)
(2.90109 0.212274 0)
(2.91295 0.18462 0)
(2.92481 0.155941 0)
(2.93684 0.126168 0)
(2.94892 0.0961446 0)
(2.96016 0.0677853 0)
(2.97209 0.0361513 0)
(2.98256 0.00806824 0)
(2.99276 -0.020293 0)
(3.00779 -0.0648946 0)
(2.82818 0.353492 0)
(2.82702 0.356768 0)
(2.82543 0.362316 0)
(2.82577 0.366632 0)
(2.82612 0.367693 0)
(2.82329 0.373074 0)
(2.82369 0.377225 0)
(2.82172 0.37553 0)
(2.8199 0.37042 0)
(2.82301 0.366581 0)
(2.82504 0.367848 0)
(2.82467 0.372465 0)
(2.8233 0.374384 0)
(2.82411 0.372747 0)
(2.8253 0.369443 0)
(2.8261 0.367872 0)
(2.82847 0.365637 0)
(2.83206 0.361455 0)
(2.83659 0.354479 0)
(2.84259 0.344305 0)
(2.85123 0.32898 0)
(2.86133 0.309666 0)
(2.87397 0.283486 0)
(2.88654 0.255741 0)
(2.90178 0.221076 0)
(2.91586 0.187827 0)
(2.93121 0.150458 0)
(2.94504 0.115699 0)
(2.95835 0.0816169 0)
(2.97747 0.0305181 0)
(2.89879 0.220455 0)
(2.89488 0.228733 0)
(2.88327 0.251432 0)
(2.88189 0.264807 0)
(2.88288 0.26065 0)
(2.87378 0.272824 0)
(2.86861 0.292244 0)
(2.86676 0.296769 0)
(2.85965 0.303022 0)
(2.85763 0.305408 0)
(2.84946 0.320621 0)
(2.84587 0.338022 0)
(2.84603 0.336527 0)
(2.84257 0.341106 0)
(2.83706 0.352126 0)
(2.83572 0.353318 0)
(2.83336 0.356794 0)
(2.83397 0.358529 0)
(2.83425 0.358309 0)
(2.83453 0.358152 0)
(2.83521 0.357371 0)
(2.83718 0.354786 0)
(2.84071 0.350221 0)
(2.8461 0.342241 0)
(2.85495 0.32715 0)
(2.86624 0.306037 0)
(2.88132 0.275148 0)
(2.89706 0.239917 0)
(2.91387 0.200773 0)
(2.93882 0.139252 0)
(2.97661 0.0549367 0)
(2.97482 0.0547201 0)
(2.97328 0.056804 0)
(2.96533 0.0747529 0)
(2.96376 0.0814794 0)
(2.95996 0.0880718 0)
(2.95444 0.0991644 0)
(2.95025 0.109077 0)
(2.94383 0.122296 0)
(2.93841 0.131465 0)
(2.92785 0.151509 0)
(2.92022 0.170106 0)
(2.91124 0.192569 0)
(2.90696 0.201781 0)
(2.892 0.232843 0)
(2.88582 0.247099 0)
(2.87548 0.267115 0)
(2.86429 0.292868 0)
(2.86284 0.298677 0)
(2.8508 0.323203 0)
(2.84733 0.330136 0)
(2.84576 0.333153 0)
(2.84246 0.342933 0)
(2.84266 0.343482 0)
(2.84347 0.342257 0)
(2.84496 0.33973 0)
(2.84885 0.334962 0)
(2.85601 0.325425 0)
(2.86661 0.307832 0)
(2.89036 0.258826 0)
(2.99888 0.00249429 0)
(2.99869 0.00283465 0)
(2.99837 0.00331501 0)
(2.99797 0.0039451 0)
(2.9975 0.00512914 0)
(2.99716 0.00581517 0)
(2.99629 0.00765158 0)
(2.99557 0.00901363 0)
(2.99425 0.0117147 0)
(2.99283 0.0141401 0)
(2.99039 0.0186164 0)
(2.98751 0.0245434 0)
(2.98438 0.0310123 0)
(2.97954 0.0410556 0)
(2.9743 0.0508526 0)
(2.96541 0.0702135 0)
(2.95873 0.0832729 0)
(2.94477 0.112757 0)
(2.93541 0.133101 0)
(2.91936 0.166664 0)
(2.90479 0.199174 0)
(2.89434 0.222832 0)
(2.87446 0.266917 0)
(2.86978 0.279379 0)
(2.85789 0.304348 0)
(2.85118 0.321168 0)
(2.84936 0.327472 0)
(2.8503 0.32778 0)
(2.8508 0.327396 0)
(2.8575 0.319298 0)
(2.99999 2.7181e-05 0)
(2.99998 3.2789e-05 0)
(2.99998 3.82314e-05 0)
(2.99997 5.07514e-05 0)
(2.99997 6.42751e-05 0)
(2.99995 8.60125e-05 0)
(2.99994 0.000110107 0)
(2.99992 0.000155029 0)
(2.99989 0.000204088 0)
(2.99984 0.000297144 0)
(2.99976 0.000419084 0)
(2.99964 0.000649282 0)
(2.99947 0.000964989 0)
(2.9992 0.00145137 0)
(2.99872 0.00233099 0)
(2.998 0.00362658 0)
(2.9968 0.00594278 0)
(2.99495 0.00929072 0)
(2.99194 0.0151839 0)
(2.98735 0.0238381 0)
(2.98057 0.0371912 0)
(2.97081 0.0568786 0)
(2.95823 0.0818323 0)
(2.9418 0.117092 0)
(2.92376 0.155117 0)
(2.90561 0.194861 0)
(2.88693 0.236405 0)
(2.87289 0.269396 0)
(2.86269 0.293332 0)
(2.85849 0.308259 0)
(3 1.61677e-07 0)
(3 1.91804e-07 0)
(3 2.36442e-07 0)
(3 2.96606e-07 0)
(3 3.93518e-07 0)
(3 5.12284e-07 0)
(3 7.03427e-07 0)
(3 9.60681e-07 0)
(3 1.37911e-06 0)
(3 1.99982e-06 0)
(3 3.06711e-06 0)
(3 4.91065e-06 0)
(3 7.90662e-06 0)
(2.99999 1.33397e-05 0)
(2.99999 2.30357e-05 0)
(2.99997 4.32437e-05 0)
(2.99995 7.87406e-05 0)
(2.99991 0.00015841 0)
(2.99982 0.00030741 0)
(2.99963 0.000647521 0)
(2.99925 0.00131783 0)
(2.99844 0.00278642 0)
(2.99688 0.00564478 0)
(2.99374 0.0115719 0)
(2.98839 0.0216822 0)
(2.97869 0.0408661 0)
(2.96541 0.0672447 0)
(2.94527 0.10902 0)
(2.92584 0.15035 0)
(2.89382 0.22164 0)
(3 7.36529e-10 0)
(3 8.85895e-10 0)
(3 1.09889e-09 0)
(3 1.40558e-09 0)
(3 1.83094e-09 0)
(3 2.43893e-09 0)
(3 3.30163e-09 0)
(3 4.60766e-09 0)
(3 6.5612e-09 0)
(3 9.71414e-09 0)
(3 1.4869e-08 0)
(3 2.3959e-08 0)
(3 3.94214e-08 0)
(3 6.73434e-08 0)
(3 1.22175e-07 0)
(3 2.31402e-07 0)
(3 4.59906e-07 0)
(3 9.61007e-07 0)
(3 2.11484e-06 0)
(3 4.92455e-06 0)
(2.99999 1.19189e-05 0)
(2.99998 3.08241e-05 0)
(2.99995 8.0308e-05 0)
(2.99987 0.000223558 0)
(2.99966 0.000596338 0)
(2.99906 0.00167409 0)
(2.99769 0.00420299 0)
(2.99412 0.0109901 0)
(2.98824 0.0221967 0)
(2.96559 0.0691909 0)
(3 2.58185e-12 0)
(3 3.11963e-12 0)
(3 3.93088e-12 0)
(3 5.0406e-12 0)
(3 6.65546e-12 0)
(3 8.86341e-12 0)
(3 1.22078e-11 0)
(3 1.69579e-11 0)
(3 2.4598e-11 0)
(3 3.61413e-11 0)
(3 5.60401e-11 0)
(3 8.92448e-11 0)
(3 1.48658e-10 0)
(3 2.52965e-10 0)
(3 4.66e-10 0)
(3 8.80237e-10 0)
(3 1.79434e-09 0)
(3 3.76828e-09 0)
(3 8.67284e-09 0)
(3 2.04625e-08 0)
(3 5.34933e-08 0)
(3 1.42849e-07 0)
(3 4.2566e-07 0)
(3 1.2828e-06 0)
(3 4.29305e-06 0)
(2.99999 1.43173e-05 0)
(2.99996 5.19199e-05 0)
(2.99985 0.000184159 0)
(2.99955 0.000587284 0)
(2.99616 0.00464389 0)
(2.55304 -1.40965 0)
(2.62155 -1.44502 0)
(2.79431 -1.52715 0)
(2.9677 -1.625 0)
(3.06543 -1.67186 0)
(3.09008 -1.67602 0)
(3.08021 -1.68954 0)
(3.06383 -1.6828 0)
(3.05302 -1.66998 0)
(3.03458 -1.61353 0)
(3.02116 -1.60768 0)
(3.04202 -1.50629 0)
(3.06474 -1.40801 0)
(3.08546 -1.27693 0)
(3.1042 -1.17279 0)
(3.10951 -1.04086 0)
(3.12946 -0.91618 0)
(3.12737 -0.793333 0)
(3.11616 -0.656715 0)
(3.09741 -0.510012 0)
(3.06923 -0.361444 0)
(3.03517 -0.210884 0)
(2.99269 -0.059867 0)
(2.9387 0.0876157 0)
(2.87532 0.240744 0)
(2.82081 0.360234 0)
(2.81304 0.383354 0)
(2.83368 0.345513 0)
(2.90235 0.217438 0)
(2.97998 0.0472756 0)
(2.99914 0.00195207 0)
(2.99999 2.39121e-05 0)
(3 1.40472e-07 0)
(3 6.33856e-10 0)
(3 2.20449e-12 0)
(2.5515 -1.39553 0)
(2.63214 -1.46128 0)
(2.81794 -1.54263 0)
(2.9877 -1.63055 0)
(3.07574 -1.6674 0)
(3.09225 -1.67742 0)
(3.08209 -1.68867 0)
(3.06331 -1.68231 0)
(3.0526 -1.66923 0)
(3.03335 -1.60618 0)
(2.9979 -1.62874 0)
(3.05011 -1.44882 0)
(3.06803 -1.39312 0)
(3.0889 -1.25453 0)
(3.10386 -1.16905 0)
(3.12119 -1.04007 0)
(3.12922 -0.923077 0)
(3.13179 -0.790099 0)
(3.12574 -0.646381 0)
(3.1097 -0.494406 0)
(3.08434 -0.33628 0)
(3.04798 -0.180447 0)
(3.00013 -0.0278748 0)
(2.94038 0.119982 0)
(2.86915 0.274421 0)
(2.8167 0.372167 0)
(2.81375 0.384043 0)
(2.83746 0.3424 0)
(2.91426 0.196457 0)
(2.98581 0.0331564 0)
(2.99951 0.00109446 0)
(3 1.0188e-05 0)
(3 5.99252e-08 0)
(3 2.95331e-10 0)
(3 1.0764e-12 0)
(2.54689 -1.39688 0)
(2.62863 -1.46724 0)
(2.82082 -1.5364 0)
(2.98498 -1.63031 0)
(3.07745 -1.65565 0)
(3.09946 -1.66841 0)
(3.08805 -1.685 0)
(3.06471 -1.68167 0)
(3.05005 -1.67274 0)
(3.03588 -1.61042 0)
(2.9982 -1.63625 0)
(3.06638 -1.43128 0)
(3.0704 -1.41557 0)
(3.08967 -1.28394 0)
(3.10112 -1.1905 0)
(3.12079 -1.05107 0)
(3.14023 -0.912185 0)
(3.14939 -0.756214 0)
(3.14284 -0.597185 0)
(3.12188 -0.430812 0)
(3.08762 -0.264914 0)
(3.04397 -0.107909 0)
(2.9896 0.0424416 0)
(2.92228 0.187361 0)
(2.85108 0.317191 0)
(2.81232 0.381246 0)
(2.81424 0.382034 0)
(2.84231 0.34281 0)
(2.9254 0.169799 0)
(2.9895 0.0236389 0)
(2.9997 0.000648658 0)
(3 5.50087e-06 0)
(3 3.13702e-08 0)
(3 1.52205e-10 0)
(3 5.47918e-13 0)
(2.54648 -1.39655 0)
(2.62261 -1.47047 0)
(2.8198 -1.52533 0)
(2.97565 -1.63013 0)
(3.07643 -1.65272 0)
(3.10566 -1.66076 0)
(3.09393 -1.68251 0)
(3.06703 -1.68546 0)
(3.0465 -1.67517 0)
(3.04864 -1.61199 0)
(3.02846 -1.61766 0)
(3.08555 -1.43261 0)
(3.08801 -1.40478 0)
(3.10876 -1.2689 0)
(3.1331 -1.15326 0)
(3.15293 -1.00083 0)
(3.15925 -0.833247 0)
(3.14185 -0.669999 0)
(3.11834 -0.507502 0)
(3.08551 -0.34744 0)
(3.04749 -0.192259 0)
(3.0031 -0.0432845 0)
(2.95051 0.0983475 0)
(2.8879 0.233647 0)
(2.83332 0.340408 0)
(2.80883 0.386781 0)
(2.81379 0.378452 0)
(2.84539 0.32676 0)
(2.93809 0.136876 0)
(2.99293 0.0155512 0)
(2.99983 0.00034668 0)
(3 2.79331e-06 0)
(3 1.58067e-08 0)
(3 7.63668e-11 0)
(3 2.73777e-13 0)
(2.54513 -1.39785 0)
(2.61853 -1.46623 0)
(2.80804 -1.51253 0)
(2.96696 -1.62703 0)
(3.07567 -1.65041 0)
(3.10906 -1.65653 0)
(3.09844 -1.67899 0)
(3.072 -1.68547 0)
(3.05343 -1.66709 0)
(3.05963 -1.61304 0)
(3.05076 -1.59469 0)
(3.08977 -1.44477 0)
(3.11252 -1.35825 0)
(3.13036 -1.1999 0)
(3.1371 -1.06053 0)
(3.13696 -0.911759 0)
(3.12696 -0.76428 0)
(3.11963 -0.637726 0)
(3.1037 -0.490621 0)
(3.07832 -0.348552 0)
(3.04448 -0.204063 0)
(3.00112 -0.0564417 0)
(2.94856 0.0848272 0)
(2.88626 0.223363 0)
(2.82735 0.344033 0)
(2.80779 0.389222 0)
(2.81311 0.376896 0)
(2.86526 0.284174 0)
(2.95303 0.107138 0)
(2.99574 0.00984991 0)
(2.99991 0.000187096 0)
(3 1.40973e-06 0)
(3 7.86815e-09 0)
(3 3.77336e-11 0)
(3 1.34188e-13 0)
(2.54675 -1.39476 0)
(2.61495 -1.45191 0)
(2.79992 -1.48631 0)
(2.96367 -1.62517 0)
(3.07598 -1.64915 0)
(3.10976 -1.65386 0)
(3.10059 -1.67569 0)
(3.08197 -1.68174 0)
(3.06096 -1.65331 0)
(3.05874 -1.6265 0)
(3.06712 -1.53882 0)
(3.08946 -1.43001 0)
(3.10586 -1.28486 0)
(3.12094 -1.14549 0)
(3.12291 -1.03882 0)
(3.12803 -0.918143 0)
(3.12938 -0.792405 0)
(3.11781 -0.667581 0)
(3.10204 -0.521898 0)
(3.07445 -0.372657 0)
(3.03952 -0.221555 0)
(2.99621 -0.0697644 0)
(2.94341 0.0771623 0)
(2.88217 0.225026 0)
(2.82354 0.353967 0)
(2.80744 0.391263 0)
(2.81531 0.375945 0)
(2.88234 0.263418 0)
(2.96394 0.0889671 0)
(2.99734 0.00652902 0)
(2.99995 0.000102459 0)
(3 7.23192e-07 0)
(3 3.93309e-09 0)
(3 1.85833e-11 0)
(3 6.45278e-14 0)
(2.5483 -1.39248 0)
(2.6077 -1.41909 0)
(2.79505 -1.4714 0)
(2.96155 -1.62411 0)
(3.07642 -1.64601 0)
(3.10914 -1.65332 0)
(3.10179 -1.67227 0)
(3.09052 -1.67636 0)
(3.05977 -1.63894 0)
(3.02962 -1.65142 0)
(3.06054 -1.50885 0)
(3.07612 -1.41732 0)
(3.09837 -1.28937 0)
(3.11344 -1.1724 0)
(3.11824 -1.07535 0)
(3.12525 -0.941706 0)
(3.12807 -0.811157 0)
(3.1224 -0.666234 0)
(3.10848 -0.515933 0)
(3.08523 -0.351145 0)
(3.05101 -0.186413 0)
(3.00433 -0.0275347 0)
(2.94516 0.127285 0)
(2.8741 0.276049 0)
(2.81619 0.374583 0)
(2.80742 0.391924 0)
(2.8217 0.380253 0)
(2.88469 0.271508 0)
(2.96952 0.0747807 0)
(2.99819 0.00424757 0)
(2.99997 5.61836e-05 0)
(3 3.69803e-07 0)
(3 1.96128e-09 0)
(3 9.10693e-12 0)
(3 3.01442e-14 0)
(2.55713 -1.38818 0)
(2.60949 -1.39053 0)
(2.78851 -1.46184 0)
(2.96004 -1.6281 0)
(3.07249 -1.64637 0)
(3.10302 -1.65618 0)
(3.09462 -1.67089 0)
(3.07973 -1.67482 0)
(3.05658 -1.63409 0)
(3.01477 -1.65464 0)
(3.04704 -1.47001 0)
(3.06129 -1.43027 0)
(3.08894 -1.30444 0)
(3.11037 -1.18186 0)
(3.12977 -1.07391 0)
(3.14565 -0.925944 0)
(3.15072 -0.784893 0)
(3.14676 -0.605408 0)
(3.12931 -0.44172 0)
(3.09147 -0.26323 0)
(3.04088 -0.0936851 0)
(2.98175 0.0619772 0)
(2.91181 0.206628 0)
(2.84656 0.325 0)
(2.80879 0.38637 0)
(2.80775 0.390226 0)
(2.82294 0.37092 0)
(2.89101 0.243348 0)
(2.97669 0.0522988 0)
(2.99889 0.00238261 0)
(2.99999 2.77388e-05 0)
(3 1.79685e-07 0)
(3 9.48048e-10 0)
(3 4.3771e-12 0)
(3 1.29662e-14 0)
(2.56905 -1.38378 0)
(2.62408 -1.37745 0)
(2.78917 -1.46526 0)
(2.95656 -1.63597 0)
(3.06848 -1.64618 0)
(3.08496 -1.65979 0)
(3.07045 -1.67003 0)
(3.05925 -1.66868 0)
(3.05534 -1.63343 0)
(3.01797 -1.65097 0)
(3.05345 -1.47308 0)
(3.0624 -1.43062 0)
(3.0981 -1.29668 0)
(3.12857 -1.15763 0)
(3.15763 -1.02252 0)
(3.1677 -0.862652 0)
(3.16106 -0.695657 0)
(3.12506 -0.516721 0)
(3.08857 -0.346478 0)
(3.0461 -0.185297 0)
(3.00008 -0.034988 0)
(2.94897 0.103138 0)
(2.89111 0.228809 0)
(2.83544 0.334807 0)
(2.805 0.391263 0)
(2.80591 0.388726 0)
(2.83099 0.339532 0)
(2.92062 0.177451 0)
(2.98607 0.0321708 0)
(2.99945 0.00122403 0)
(2.99999 1.30852e-05 0)
(3 8.39731e-08 0)
(3 4.43767e-10 0)
(3 2.0447e-12 0)
(3 4.19928e-15 0)
(2.56633 -1.38149 0)
(2.63761 -1.38259 0)
(2.79996 -1.49812 0)
(2.9592 -1.6416 0)
(3.05849 -1.64131 0)
(3.06374 -1.65476 0)
(3.05252 -1.66089 0)
(3.04661 -1.65139 0)
(3.05271 -1.6316 0)
(3.02788 -1.64472 0)
(3.05812 -1.48281 0)
(3.08351 -1.40276 0)
(3.11473 -1.25757 0)
(3.1348 -1.11583 0)
(3.14861 -0.968574 0)
(3.13583 -0.791439 0)
(3.1153 -0.617547 0)
(3.1047 -0.491107 0)
(3.07562 -0.334772 0)
(3.04145 -0.199702 0)
(2.9979 -0.0565307 0)
(2.94621 0.083186 0)
(2.88703 0.216865 0)
(2.82906 0.340298 0)
(2.80361 0.394726 0)
(2.80496 0.389469 0)
(2.84934 0.318131 0)