/*--------------------------------*- C++ -*----------------------------------*\
  =========                 |
  \\      /  F ield         | OpenFOAM: The Open Source CFD Toolbox
   \\    /   O peration     | Website:  https://openfoam.org
    \\  /    A nd           | Version:  7
     \\/     M anipulation  |
\*---------------------------------------------------------------------------*/
FoamFile
{
    version     2.0;
    format      ascii;
    class       volScalarField;
    location    "8";
    object      rho;
}
// * * * * * * * * * * * * * * * * * * * * * * * * * * * * * * * * * * * * * //

dimensions      [1 -3 0 0 0 0 0];

internalField   nonuniform List<scalar> 
90000
(
0.183845
0.222448
0.264022
0.301255
0.321149
0.350135
0.39058
0.422741
0.455611
0.50009
0.541606
0.584182
0.626086
0.669661
0.711425
0.746258
0.780048
0.804827
0.823953
0.834795
0.843997
0.844673
0.841869
0.840418
0.837242
0.830316
0.831886
0.835924
0.836437
0.839838
0.849067
0.85803
0.864165
0.867446
0.867912
0.870081
0.876299
0.886013
0.89455
0.90187
0.908602
0.9157
0.922605
0.929217
0.935981
0.942766
0.951499
0.962165
0.974705
0.988196
1.00106
1.01081
1.01704
1.01617
1.01246
1.00867
1.00558
1.005
1.00726
1.01195
1.01832
1.02595
1.0317
1.03611
1.03582
1.03358
1.02952
1.02474
1.0248
1.0262
1.02959
1.03199
1.0341
1.0337
1.03047
1.02657
1.02717
1.03018
1.03293
1.03254
1.03233
1.03343
1.03789
1.04395
1.05046
1.05558
1.06356
1.06788
1.07519
1.07707
1.0819
1.08611
1.08948
1.0953
1.09835
1.10281
1.10529
1.10837
1.11235
1.11732
0.144499
0.144525
0.144561
0.144604
0.144656
0.144711
0.144783
0.144839
0.145499
0.148594
0.154509
0.164175
0.179193
0.199593
0.228277
0.263596
0.30807
0.362673
0.422635
0.484678
0.54874
0.607253
0.657002
0.703873
0.734488
0.754421
0.767573
0.776822
0.771731
0.768665
0.765481
0.764835
0.765672
0.764146
0.764019
0.765014
0.770922
0.776319
0.780377
0.786342
0.796748
0.810419
0.825041
0.838753
0.851138
0.862703
0.87272
0.880678
0.887923
0.894347
0.900263
0.906029
0.91125
0.916108
0.921429
0.92932
0.93975
0.952276
0.963982
0.974539
0.982522
0.990419
0.991549
0.993327
0.994975
0.998201
1.00249
1.00839
1.01502
1.02196
1.02933
1.02875
1.02618
1.02214
1.01977
1.02189
1.02694
1.03164
1.03336
1.03282
1.03278
1.03739
1.04486
1.05102
1.05524
1.06078
1.06666
1.0722
1.07734
1.07973
1.0858
1.08882
1.09366
1.09828
1.10089
1.10457
1.10668
1.11105
1.1151
1.11966
0.145226
0.145312
0.145412
0.145519
0.145636
0.145758
0.145886
0.146013
0.146167
0.146246
0.146327
0.146414
0.146512
0.146609
0.146723
0.146833
0.146972
0.147065
0.149081
0.157043
0.171928
0.198597
0.234143
0.283559
0.342868
0.410654
0.474604
0.540585
0.591834
0.638721
0.675552
0.705752
0.731301
0.746264
0.753702
0.753092
0.746776
0.738217
0.728527
0.71599
0.706811
0.704672
0.708384
0.718661
0.734547
0.756019
0.776209
0.789553
0.79686
0.798166
0.798618
0.801234
0.80882
0.82214
0.837609
0.852062
0.864319
0.873327
0.880832
0.886743
0.894365
0.904432
0.915889
0.927444
0.939927
0.952174
0.963605
0.974678
0.983029
0.99013
0.991976
0.993562
0.996706
1.00217
1.00938
1.01748
1.02638
1.02572
1.02325
1.02464
1.03085
1.03985
1.0475
1.0532
1.0574
1.06424
1.06886
1.07436
1.07829
1.08207
1.08816
1.0919
1.09811
1.10117
1.1041
1.1065
1.10893
1.11396
1.11725
1.12108
0.146309
0.146405
0.146503
0.146606
0.146707
0.146811
0.146912
0.147014
0.147112
0.147215
0.147318
0.147422
0.147524
0.147626
0.147728
0.147827
0.147926
0.148033
0.148087
0.148143
0.148202
0.148269
0.148334
0.148415
0.148472
0.150515
0.159642
0.179091
0.214537
0.258987
0.322218
0.393352
0.470225
0.545511
0.607863
0.662744
0.694965
0.714544
0.726057
0.716892
0.707284
0.699681
0.69274
0.688065
0.688654
0.692896
0.699714
0.707408
0.71746
0.726708
0.73491
0.740965
0.743277
0.746617
0.753915
0.762645
0.771103
0.778088
0.784227
0.792205
0.802337
0.81668
0.832257
0.845853
0.857123
0.866787
0.877647
0.890126
0.903846
0.916665
0.929144
0.942629
0.957113
0.971451
0.98357
0.992121
0.992767
0.995325
1.00206
1.01294
1.02631
1.03809
1.04501
1.05072
1.05678
1.06478
1.06893
1.07449
1.07763
1.08272
1.08881
1.09302
1.09978
1.10271
1.1063
1.10882
1.11207
1.11614
1.11787
1.12136
0.147282
0.147342
0.147401
0.147461
0.147524
0.147588
0.147653
0.14772
0.147785
0.14785
0.147916
0.147984
0.148052
0.148124
0.148193
0.148264
0.148336
0.14841
0.148479
0.148557
0.148634
0.148713
0.148784
0.148861
0.148938
0.148967
0.14899
0.149023
0.14906
0.149114
0.149152
0.150099
0.159809
0.185171
0.231285
0.2977
0.389969
0.476778
0.571803
0.632017
0.672663
0.696151
0.7037
0.69777
0.692911
0.682742
0.671406
0.661703
0.663443
0.671929
0.688613
0.7056
0.717182
0.714207
0.707819
0.701938
0.702808
0.710195
0.722159
0.733182
0.741791
0.745744
0.752556
0.763574
0.774669
0.784814
0.795286
0.808141
0.823069
0.837626
0.851842
0.866213
0.881277
0.895599
0.909269
0.922242
0.937428
0.95463
0.971685
0.988395
0.998148
1.00464
1.01524
1.02934
1.04316
1.05387
1.05863
1.06566
1.07081
1.07868
1.08487
1.09174
1.09911
1.10243
1.10672
1.10956
1.11303
1.11645
1.11728
1.11997
0.14788
0.147915
0.147953
0.147993
0.148037
0.148083
0.14813
0.148179
0.148229
0.14828
0.148334
0.148388
0.148445
0.148505
0.148566
0.14863
0.1487
0.148764
0.148826
0.148891
0.148958
0.149018
0.149074
0.149131
0.14918
0.14922
0.149253
0.149285
0.149318
0.149355
0.149399
0.149435
0.14947
0.149493
0.149511
0.149521
0.150332
0.16319
0.198492
0.272104
0.366251
0.468327
0.560095
0.612996
0.655914
0.664577
0.662364
0.658974
0.658465
0.662235
0.667194
0.679648
0.693853
0.701373
0.696703
0.687551
0.68159
0.680078
0.684596
0.693798
0.70418
0.707569
0.705568
0.705444
0.711211
0.721915
0.7324
0.740159
0.747662
0.758828
0.771683
0.78518
0.799103
0.814038
0.829778
0.846947
0.865431
0.883926
0.901266
0.917471
0.93566
0.955516
0.976953
0.99675
1.01182
1.02114
1.03187
1.04535
1.05539
1.06401
1.0681
1.07505
1.08286
1.08925
1.09806
1.10507
1.10943
1.10845
1.10892
1.11324
0.148314
0.148344
0.148375
0.148408
0.148443
0.14848
0.148518
0.148561
0.148605
0.148651
0.148702
0.148751
0.148803
0.148862
0.148917
0.148973
0.149033
0.149087
0.149137
0.14919
0.149238
0.149277
0.149313
0.149347
0.149377
0.149397
0.14941
0.14942
0.149433
0.149455
0.149489
0.149531
0.149571
0.149597
0.149612
0.149626
0.149627
0.149635
0.149647
0.149675
0.149702
0.163139
0.202977
0.27973
0.380481
0.488289
0.565386
0.627627
0.650295
0.666531
0.668056
0.66955
0.674635
0.679702
0.681429
0.680884
0.680768
0.679765
0.676991
0.677628
0.680946
0.68712
0.690337
0.689866
0.68973
0.692531
0.697928
0.7025
0.705732
0.709032
0.716836
0.727416
0.73767
0.747721
0.75965
0.773115
0.788441
0.805164
0.822804
0.841678
0.863089
0.885267
0.904079
0.921749
0.939964
0.957366
0.974391
0.989132
1.00278
1.01766
1.03126
1.04535
1.05601
1.06483
1.07264
1.07717
1.08195
1.08853
1.09655
1.10528
0.148667
0.148698
0.14873
0.148762
0.148794
0.148827
0.148862
0.148904
0.148947
0.148991
0.149037
0.149079
0.149123
0.149175
0.149221
0.149267
0.14931
0.149345
0.14938
0.149416
0.149444
0.149464
0.149481
0.149496
0.149507
0.149518
0.149521
0.149522
0.149526
0.149542
0.149575
0.149617
0.149653
0.149676
0.149687
0.149694
0.149703
0.149714
0.149728
0.149756
0.149791
0.149809
0.149802
0.149786
0.149853
0.170007
0.22423
0.317788
0.429852
0.530694
0.593825
0.629312
0.646091
0.655679
0.671823
0.68212
0.684758
0.685436
0.68232
0.678211
0.674695
0.676142
0.679416
0.682865
0.683711
0.683215
0.682478
0.684172
0.687814
0.691386
0.69391
0.696965
0.700946
0.705289
0.711319
0.72087
0.732172
0.744904
0.758865
0.774889
0.792202
0.80896
0.825536
0.843094
0.863098
0.883455
0.902896
0.919688
0.93689
0.954643
0.971371
0.987086
0.999703
1.01166
1.02261
1.03361
1.04453
1.05598
1.06601
1.07688
0.149018
0.149049
0.149077
0.149104
0.149131
0.149158
0.149189
0.149225
0.149261
0.1493
0.149338
0.149369
0.149398
0.149433
0.14947
0.1495
0.149521
0.14954
0.149562
0.149581
0.149595
0.149602
0.149606
0.149607
0.149612
0.149616
0.149609
0.149605
0.149608
0.149622
0.149656
0.149698
0.149732
0.149749
0.149754
0.149758
0.149762
0.149766
0.149775
0.149791
0.149804
0.149786
0.149752
0.149731
0.149719
0.149694
0.149686
0.149694
0.159527
0.196255
0.277947
0.387951
0.499081
0.583623
0.644153
0.673009
0.681605
0.690742
0.68955
0.68079
0.672564
0.673698
0.677648
0.682786
0.68391
0.681536
0.679433
0.679488
0.680905
0.684134
0.68537
0.685541
0.687348
0.690689
0.695337
0.698942
0.704037
0.710496
0.719478
0.729789
0.741715
0.755177
0.769351
0.782365
0.796214
0.810329
0.825001
0.840693
0.857769
0.874083
0.891009
0.909314
0.925741
0.940258
0.954717
0.970587
0.985679
0.996446
1.00313
1.01846
0.149353
0.149374
0.149394
0.149414
0.149433
0.149454
0.149477
0.149499
0.149521
0.149545
0.149572
0.149592
0.149606
0.149623
0.149644
0.14966
0.149671
0.149681
0.149688
0.149697
0.149704
0.149701
0.149692
0.149691
0.14969
0.149679
0.149665
0.149665
0.149672
0.149695
0.149736
0.149777
0.149806
0.149816
0.149814
0.14981
0.14981
0.149813
0.149816
0.149811
0.149789
0.149739
0.149708
0.149707
0.149707
0.149704
0.149721
0.149796
0.149893
0.150045
0.150119
0.151538
0.17677
0.247239
0.362592
0.498712
0.585646
0.665361
0.67862
0.680576
0.679019
0.680975
0.682075
0.68362
0.683202
0.679981
0.67799
0.678761
0.6817
0.684944
0.685254
0.684507
0.684577
0.686011
0.688812
0.691976
0.695575
0.699848
0.705882
0.713085
0.719501
0.725624
0.731099
0.740238
0.749544
0.760768
0.77172
0.781726
0.795701
0.810634
0.82475
0.837056
0.851483
0.867336
0.87972
0.892059
0.906736
0.921104
0.932205
0.950989
0.149611
0.14962
0.14963
0.149639
0.149646
0.149654
0.149662
0.149671
0.149681
0.149692
0.149702
0.149709
0.149715
0.149724
0.149735
0.149744
0.149749
0.149753
0.149756
0.14976
0.149761
0.149751
0.149736
0.149732
0.149727
0.149713
0.149712
0.149717
0.149736
0.149774
0.149819
0.149858
0.149872
0.14987
0.149855
0.149841
0.149842
0.14984
0.149829
0.149803
0.149762
0.149715
0.149702
0.149705
0.149716
0.149755
0.149857
0.149986
0.150126
0.150254
0.150316
0.150315
0.1503
0.150248
0.150089
0.17411
0.24752
0.386117
0.523276
0.621812
0.669373
0.685539
0.685295
0.685366
0.684135
0.680171
0.6799
0.681643
0.684458
0.684937
0.684944
0.684845
0.68575
0.688628
0.691476
0.693042
0.693352
0.69567
0.699904
0.704876
0.710212
0.714525
0.719988
0.722616
0.726014
0.73176
0.740359
0.749129
0.756065
0.765667
0.779287
0.789218
0.796456
0.80519
0.819001
0.830373
0.839547
0.850966
0.863879
0.881611
0.149736
0.149733
0.14973
0.149729
0.149726
0.149723
0.14972
0.14972
0.149723
0.149731
0.149738
0.14974
0.149742
0.149747
0.149757
0.14977
0.149778
0.149782
0.149784
0.149787
0.149786
0.149778
0.149766
0.149757
0.149758
0.149764
0.149778
0.1498
0.149834
0.149869
0.149902
0.149918
0.149915
0.149903
0.149869
0.14985
0.149843
0.149827
0.149803
0.149783
0.149755
0.149725
0.149717
0.149728
0.149776
0.149922
0.15009
0.150182
0.15026
0.150324
0.150337
0.150333
0.150296
0.150127
0.149958
0.149889
0.149812
0.149704
0.18934
0.287374
0.437315
0.573726
0.641549
0.68024
0.678233
0.681612
0.686231
0.689956
0.688727
0.685643
0.685105
0.686104
0.688748
0.692031
0.694008
0.694883
0.696238
0.699177
0.703351
0.706292
0.708326
0.711433
0.715651
0.720392
0.723997
0.727269
0.731523
0.737161
0.743031
0.744645
0.747537
0.755138
0.763806
0.768905
0.77456
0.785039
0.794821
0.800522
0.806902
0.823313
0.149718
0.149718
0.149718
0.149723
0.149727
0.149725
0.149719
0.149717
0.149718
0.149724
0.149731
0.149736
0.149741
0.149749
0.149764
0.149789
0.149809
0.149817
0.149824
0.149834
0.14984
0.149842
0.149844
0.149846
0.149852
0.149866
0.14989
0.149916
0.149933
0.149945
0.149949
0.149943
0.149924
0.149877
0.149805
0.149773
0.149767
0.149769
0.149776
0.149777
0.149769
0.149781
0.149811
0.149859
0.14997
0.150193
0.150285
0.150296
0.15031
0.150333
0.150325
0.150295
0.150187
0.149913
0.149764
0.149748
0.149726
0.14967
0.149634
0.149657
0.161595
0.224286
0.363082
0.524961
0.618828
0.681804
0.686627
0.691484
0.690599
0.685353
0.689108
0.691279
0.69355
0.695018
0.696107
0.697394
0.700129
0.703754
0.707076
0.708571
0.710375
0.713368
0.717049
0.719859
0.722453
0.725007
0.72751
0.730779
0.736503
0.740196
0.742274
0.744608
0.750909
0.757864
0.760507
0.760534
0.765371
0.774361
0.778869
0.786713
0.149745
0.149746
0.149748
0.149753
0.14976
0.149766
0.149769
0.149771
0.149774
0.149786
0.149802
0.149811
0.149824
0.149859
0.149904
0.149922
0.14993
0.149938
0.149947
0.149962
0.149965
0.149962
0.149955
0.14995
0.149948
0.149951
0.149961
0.149965
0.149963
0.149955
0.149927
0.149876
0.149818
0.14975
0.149701
0.149699
0.149712
0.149738
0.149774
0.149835
0.149922
0.149997
0.150042
0.150089
0.150207
0.150349
0.15036
0.150344
0.150321
0.150268
0.150196
0.150122
0.149947
0.149683
0.149629
0.149654
0.149691
0.149694
0.149763
0.150029
0.150187
0.150512
0.150727
0.184293
0.297923
0.475116
0.58468
0.669875
0.676937
0.684734
0.699916
0.70003
0.698335
0.698059
0.700294
0.70326
0.707326
0.710112
0.711189
0.712703
0.714448
0.716896
0.719725
0.722348
0.724657
0.726861
0.729116
0.731715
0.733855
0.737484
0.74143
0.744181
0.746614
0.752419
0.756968
0.758018
0.75891
0.762709
0.768627
0.772659
0.149803
0.149804
0.149806
0.149811
0.149818
0.149826
0.149839
0.149858
0.149881
0.149907
0.149923
0.149935
0.149958
0.150005
0.150046
0.15005
0.150048
0.150042
0.150036
0.15003
0.150019
0.149997
0.149974
0.149962
0.149957
0.149951
0.149941
0.149914
0.149881
0.149847
0.149804
0.149755
0.149713
0.149684
0.149674
0.149678
0.1497
0.149762
0.149887
0.150072
0.150228
0.150268
0.150255
0.150254
0.150305
0.150363
0.150356
0.150322
0.150235
0.150101
0.149992
0.1499
0.149734
0.149583
0.149578
0.149618
0.149698
0.149781
0.150058
0.150686
0.151314
0.151451
0.151406
0.1513
0.151041
0.167436
0.260772
0.429279
0.576637
0.670423
0.702914
0.703942
0.702174
0.703863
0.71128
0.712035
0.716615
0.717542
0.71789
0.719755
0.722222
0.724859
0.726414
0.727214
0.728051
0.729516
0.731986
0.734063
0.735931
0.739204
0.743048
0.745832
0.747541
0.749244
0.752441
0.755556
0.757898
0.759717
0.762736
0.768717
0.149896
0.149906
0.149918
0.149928
0.149937
0.14995
0.149975
0.150003
0.15003
0.150047
0.150056
0.150069
0.150096
0.150108
0.150108
0.150105
0.150098
0.15008
0.150054
0.150029
0.14999
0.149934
0.14989
0.149859
0.14984
0.14983
0.149815
0.149783
0.149755
0.149741
0.149729
0.149709
0.149689
0.149681
0.149686
0.149715
0.149808
0.149967
0.150175
0.150379
0.150424
0.150413
0.150338
0.150295
0.150309
0.150286
0.150221
0.150152
0.150069
0.149958
0.149856
0.149759
0.149645
0.149566
0.14957
0.149637
0.149815
0.150097
0.150675
0.15143
0.152224
0.152243
0.151962
0.151982
0.152322
0.153009
0.153812
0.160865
0.23787
0.399698
0.565042
0.670908
0.695653
0.712037
0.729106
0.725847
0.729539
0.726544
0.729709
0.731966
0.734134
0.735375
0.735259
0.735478
0.736746
0.738944
0.741352
0.742068
0.742773
0.743964
0.746384
0.749127
0.750668
0.751463
0.753758
0.757415
0.760577
0.762241
0.763781
0.766126
0.150029
0.150034
0.150038
0.150041
0.150046
0.150052
0.150061
0.150084
0.150105
0.150117
0.15013
0.150133
0.150131
0.150123
0.150105
0.150083
0.150055
0.149989
0.149904
0.149843
0.149788
0.149738
0.149706
0.149683
0.14968
0.149688
0.149702
0.149711
0.149703
0.149702
0.149715
0.14974
0.149768
0.149803
0.149854
0.149935
0.15009
0.150295
0.150473
0.150494
0.150483
0.150453
0.150349
0.150225
0.150183
0.150105
0.150028
0.150007
0.149978
0.149905
0.149818
0.14971
0.149629
0.149641
0.149701
0.149947
0.150526
0.151265
0.151888
0.15222
0.152801
0.15352
0.153486
0.153712
0.154752
0.156637
0.15975
0.161764
0.162234
0.163203
0.218276
0.377642
0.561501
0.681482
0.728777
0.743584
0.752961
0.744663
0.751797
0.748068
0.752276
0.752315
0.751895
0.7516
0.752289
0.753559
0.754582
0.755214
0.755695
0.756365
0.758137
0.76019
0.761387
0.761238
0.761912
0.76354
0.765258
0.766322
0.766405
0.769641
0.15003
0.150039
0.150048
0.150048
0.150047
0.150041
0.150028
0.150019
0.150015
0.150008
0.149992
0.149966
0.149933
0.149895
0.149865
0.14984
0.149804
0.149719
0.149643
0.149598
0.149581
0.14959
0.149599
0.149595
0.149595
0.149614
0.149661
0.149699
0.149735
0.149804
0.149908
0.150005
0.150069
0.150121
0.150166
0.150223
0.150369
0.150548
0.150559
0.150533
0.150481
0.150414
0.150248
0.150117
0.150078
0.149993
0.149941
0.149953
0.149953
0.149917
0.149834
0.149772
0.149875
0.150316
0.15094
0.151602
0.152319
0.153357
0.153752
0.153511
0.153593
0.154608
0.15573
0.157024
0.158782
0.16184
0.165335
0.166825
0.168324
0.170864
0.173158
0.174735
0.224097
0.364109
0.556937
0.701155
0.748773
0.767697
0.788974
0.775843
0.78241
0.775504
0.777003
0.777069
0.777195
0.77779
0.777952
0.778098
0.778187
0.777976
0.7776
0.77717
0.777738
0.778388
0.778274
0.779127
0.780334
0.78063
0.780292
0.781204
0.14975
0.149724
0.149694
0.14967
0.149649
0.149627
0.149608
0.149593
0.149573
0.149552
0.149538
0.14953
0.149532
0.149546
0.149576
0.149586
0.149579
0.14954
0.149495
0.149492
0.1495
0.149547
0.149586
0.1496
0.149636
0.149741
0.149937
0.150058
0.150127
0.150218
0.150288
0.150355
0.150397
0.150394
0.150396
0.150434
0.150545
0.150591
0.150571
0.150514
0.150444
0.150365
0.150197
0.150111
0.150065
0.149962
0.149947
0.150012
0.150215
0.150344
0.150475
0.150746
0.151313
0.152269
0.15348
0.154448
0.154899
0.155636
0.1564
0.156382
0.15646
0.157104
0.159791
0.163217
0.166552
0.1689
0.170482
0.172746
0.174956
0.177406
0.180338
0.183916
0.186556
0.188162
0.221267
0.35213
0.554552
0.714927
0.779907
0.805319
0.83341
0.810509
0.81603
0.809505
0.809858
0.812433
0.812624
0.811738
0.809382
0.807683
0.807408
0.808072
0.808356
0.807709
0.805747
0.804192
0.803201
0.802783
0.802605
0.801084
0.149176
0.149177
0.149181
0.149189
0.149198
0.149212
0.14923
0.149243
0.149254
0.149269
0.149293
0.149327
0.14937
0.149438
0.149517
0.149575
0.149629
0.149678
0.149731
0.149794
0.149879
0.150003
0.150161
0.150262
0.150324
0.150427
0.150615
0.150666
0.150682
0.150677
0.150646
0.150634
0.150641
0.15061
0.150579
0.150602
0.150672
0.150656
0.150594
0.150572
0.150546
0.150481
0.150489
0.15051
0.150416
0.150312
0.15036
0.150586
0.151078
0.151773
0.152614
0.153551
0.154523
0.15545
0.15647
0.157544
0.158101
0.158568
0.159655
0.161038
0.162489
0.164531
0.167026
0.170452
0.173359
0.174812
0.176476
0.178629
0.181373
0.184143
0.187593
0.191363
0.193831
0.196065
0.19763
0.19941
0.224041
0.34249
0.547504
0.733145
0.81435
0.837018
0.872807
0.851654
0.85416
0.850295
0.846672
0.847775
0.849896
0.849129
0.84737
0.844973
0.84344
0.843018
0.84234
0.841138
0.839497
0.838665
0.837951
0.835156
0.149216
0.149233
0.149259
0.14929
0.149331
0.149401
0.149469
0.14954
0.14963
0.149723
0.149829
0.149945
0.15008
0.150258
0.150439
0.150578
0.150678
0.150751
0.150818
0.150872
0.15091
0.150976
0.151054
0.151094
0.151121
0.151153
0.15115
0.151146
0.151133
0.151078
0.150956
0.150899
0.150905
0.150886
0.150844
0.150856
0.150835
0.150689
0.150556
0.15055
0.150615
0.150831
0.151066
0.151305
0.151548
0.151861
0.15233
0.153028
0.154056
0.155366
0.15674
0.158009
0.159177
0.159923
0.160385
0.161335
0.162278
0.163181
0.164567
0.166982
0.170281
0.17359
0.176463
0.178596
0.180171
0.181981
0.183674
0.185909
0.18906
0.192078
0.195176
0.198078
0.199762
0.201585
0.204529
0.20934
0.212072
0.213779
0.227715
0.331063
0.536613
0.743961
0.849713
0.871142
0.908944
0.898261
0.89433
0.887635
0.885667
0.88695
0.889648
0.888892
0.886863
0.884611
0.88327
0.882628
0.881083
0.879113
0.877181
0.874416
0.15027
0.150311
0.150375
0.150469
0.150562
0.15063
0.150692
0.150768
0.150856
0.150944
0.151034
0.15114
0.151235
0.151338
0.151447
0.151467
0.151479
0.15152
0.151589
0.151585
0.151532
0.151521
0.15154
0.151533
0.151508
0.151485
0.15143
0.151355
0.15131
0.151234
0.151116
0.151076
0.15109
0.15108
0.151076
0.151102
0.151143
0.151143
0.151173
0.151316
0.151644
0.152244
0.153129
0.1543
0.155658
0.157142
0.158594
0.159879
0.160943
0.161721
0.16235
0.162976
0.163876
0.164542
0.165143
0.166301
0.168451
0.171092
0.173868
0.177107
0.180088
0.182547
0.184847
0.186132
0.187434
0.18897
0.191143
0.193881
0.197049
0.200642
0.202869
0.204821
0.207314
0.210098
0.213287
0.216599
0.219708
0.223696
0.22443
0.225333
0.23125
0.325457
0.529109
0.748682
0.885289
0.904296
0.939904
0.935022
0.933766
0.926453
0.924409
0.926203
0.92942
0.928783
0.926869
0.924813
0.923514
0.922841
0.921889
0.918957
0.152288
0.152201
0.152117
0.152024
0.151916
0.151822
0.15176
0.151726
0.151722
0.151728
0.151742
0.151737
0.151742
0.151783
0.151801
0.151786
0.151785
0.151833
0.151882
0.151848
0.151798
0.151814
0.151814
0.151691
0.151621
0.151622
0.151538
0.151471
0.151492
0.151516
0.151557
0.151744
0.15217
0.152799
0.153496
0.154186
0.154943
0.155762
0.156648
0.157567
0.158613
0.159754
0.160928
0.162036
0.163022
0.164015
0.164948
0.1658
0.166407
0.166791
0.167314
0.168278
0.169767
0.171806
0.174311
0.177197
0.180346
0.18361
0.185814
0.187471
0.189202
0.190145
0.190873
0.192417
0.194316
0.196852
0.200324
0.203811
0.20665
0.209404
0.210992
0.212353
0.214366
0.217756
0.222178
0.224524
0.227193
0.229634
0.23206
0.235735
0.240403
0.242693
0.24427
0.327054
0.529871
0.758573
0.91686
0.933729
0.971666
0.972114
0.971454
0.96516
0.963483
0.965122
0.968331
0.968062
0.966783
0.964941
0.963388
0.961477
0.151826
0.151774
0.151743
0.151694
0.151616
0.151605
0.151621
0.15163
0.15164
0.15167
0.151718
0.151737
0.151755
0.151812
0.151858
0.151897
0.151983
0.152124
0.1523
0.152511
0.152753
0.153012
0.153318
0.153681
0.154072
0.154543
0.155018
0.155505
0.156026
0.156664
0.157468
0.158561
0.159718
0.160711
0.161556
0.162422
0.16336
0.16431
0.165269
0.166178
0.166993
0.167618
0.168171
0.168718
0.169407
0.170232
0.171178
0.172208
0.17351
0.17523
0.177361
0.179802
0.18236
0.185083
0.18785
0.189833
0.191135
0.192648
0.193564
0.194035
0.195406
0.196503
0.197973
0.200408
0.203976
0.207948
0.210895
0.213572
0.215267
0.216187
0.2177
0.219942
0.22307
0.227159
0.231205
0.234411
0.235721
0.236926
0.239712
0.244892
0.24947
0.250954
0.253331
0.255979
0.258165
0.33918
0.544214
0.776818
0.941406
0.965686
1.00887
1.00989
1.00805
1.00152
1.00018
1.00219
1.00516
1.00507
1.00345
1.00101
0.15387
0.154115
0.154411
0.154751
0.155085
0.155351
0.155587
0.155829
0.156125
0.156521
0.157001
0.157398
0.157694
0.158
0.158391
0.158903
0.159468
0.159989
0.160495
0.16106
0.161668
0.16229
0.162894
0.163457
0.164027
0.164701
0.165434
0.166147
0.16684
0.167543
0.168143
0.168635
0.169045
0.169483
0.170036
0.170688
0.171392
0.172161
0.172929
0.173729
0.174575
0.175525
0.176599
0.177855
0.179286
0.1809
0.182736
0.184758
0.186995
0.189148
0.19111
0.192878
0.194327
0.195542
0.196886
0.197585
0.197964
0.198866
0.200286
0.201749
0.203706
0.20678
0.210618
0.213779
0.216249
0.218531
0.220078
0.221184
0.222246
0.223759
0.226512
0.23016
0.235054
0.237727
0.23919
0.241374
0.242855
0.245797
0.250426
0.254157
0.257673
0.260465
0.262701
0.265793
0.270233
0.27317
0.274769
0.353301
0.552904
0.793081
0.973324
0.999518
1.04278
1.0417
1.04057
1.03546
1.03485
1.0363
1.03877
1.03781
0.165775
0.165972
0.166166
0.166357
0.166562
0.166771
0.167011
0.16726
0.167489
0.167718
0.167971
0.168249
0.168533
0.16881
0.169105
0.169414
0.169722
0.170025
0.170342
0.170668
0.170993
0.171339
0.171743
0.172257
0.172837
0.173443
0.174085
0.174729
0.175393
0.176056
0.176662
0.177343
0.178139
0.179046
0.179957
0.180912
0.181911
0.182956
0.184109
0.18551
0.187125
0.188933
0.190659
0.192255
0.193755
0.195145
0.196433
0.197653
0.198764
0.199701
0.200698
0.201699
0.202363
0.202891
0.203973
0.205518
0.207061
0.208968
0.211521
0.214844
0.217694
0.220209
0.222389
0.22417
0.225215
0.226121
0.227366
0.228564
0.230743
0.234502
0.238741
0.241969
0.244641
0.246212
0.247155
0.248973
0.252831
0.257287
0.262458
0.264015
0.265436
0.268654
0.271907
0.275022
0.278271
0.281872
0.286033
0.288754
0.29051
0.366202
0.570114
0.817697
1.00636
1.03044
1.07425
1.07238
1.07171
1.06679
1.06474
1.06737
0.175451
0.175724
0.176018
0.176317
0.176614
0.176909
0.177231
0.177579
0.177951
0.178343
0.178764
0.179197
0.179635
0.180068
0.180535
0.181053
0.181571
0.18206
0.182561
0.183125
0.183729
0.18433
0.185006
0.185727
0.186464
0.187217
0.188027
0.188906
0.189829
0.190772
0.191766
0.192807
0.193889
0.194888
0.195782
0.196562
0.197295
0.198065
0.198897
0.199823
0.200737
0.201642
0.20252
0.203427
0.204245
0.204989
0.205689
0.206373
0.20711
0.208016
0.209137
0.210576
0.212177
0.213829
0.215882
0.218268
0.221067
0.223418
0.225506
0.227406
0.228992
0.230148
0.231122
0.232138
0.233107
0.234641
0.237084
0.240657
0.244832
0.247693
0.250502
0.25284
0.253588
0.255269
0.257898
0.261319
0.265491
0.268503
0.271329
0.273625
0.275265
0.277485
0.281303
0.286079
0.289774
0.292944
0.296759
0.300477
0.304156
0.306347
0.307928
0.385736
0.600512
0.851676
1.04059
1.06221
1.10412
1.10159
1.09891
1.09422
0.191188
0.19144
0.191687
0.191967
0.192303
0.192629
0.192952
0.193279
0.193591
0.193902
0.194285
0.194684
0.19505
0.195377
0.195742
0.196162
0.196606
0.197041
0.197491
0.197975
0.198457
0.198941
0.199408
0.19985
0.200267
0.200665
0.201116
0.201628
0.202154
0.202678
0.203235
0.203835
0.204458
0.205059
0.205687
0.206327
0.207053
0.207741
0.208427
0.209093
0.209799
0.210607
0.211537
0.212545
0.213685
0.214949
0.21627
0.217808
0.219463
0.221345
0.223212
0.225177
0.227219
0.229367
0.231033
0.232432
0.233847
0.235041
0.236047
0.237019
0.238093
0.239017
0.240493
0.242532
0.245432
0.24888
0.252222
0.254997
0.257865
0.259416
0.260314
0.261776
0.263862
0.266552
0.270219
0.273563
0.277479
0.280077
0.281125
0.28382
0.288104
0.291644
0.294912
0.298098
0.301673
0.304927
0.307584
0.310371
0.313688
0.317333
0.32135
0.324056
0.325919
0.412951
0.644119
0.89457
1.077
1.09264
1.12921
1.12681
0.204131
0.204313
0.204503
0.204693
0.204883
0.205086
0.20533
0.205621
0.205886
0.206117
0.20636
0.206685
0.207023
0.207334
0.207676
0.208044
0.208408
0.208824
0.20929
0.209747
0.210157
0.210634
0.211166
0.211695
0.21222
0.212772
0.213339
0.213906
0.214465
0.215038
0.215646
0.216301
0.217017
0.217849
0.21885
0.219979
0.221196
0.222422
0.223619
0.224764
0.225886
0.226971
0.228115
0.229277
0.230592
0.231996
0.233426
0.234713
0.235875
0.236966
0.237987
0.238924
0.239893
0.241134
0.241944
0.242648
0.243533
0.244728
0.245934
0.2477
0.249785
0.252634
0.25542
0.258406
0.261394
0.263672
0.265812
0.267192
0.268322
0.270014
0.271195
0.273178
0.276732
0.280558
0.284565
0.287366
0.288847
0.291328
0.293786
0.296005
0.29881
0.302662
0.306658
0.309643
0.312648
0.315602
0.318128
0.321197
0.324889
0.328909
0.333035
0.336521
0.340093
0.342337
0.344671
0.448094
0.700141
0.945006
1.10516
1.13294
0.219634
0.219831
0.220044
0.220282
0.220555
0.22087
0.221191
0.221483
0.221782
0.222109
0.222438
0.222746
0.223093
0.223506
0.223905
0.224259
0.224631
0.225058
0.225522
0.225998
0.226497
0.227031
0.227577
0.228136
0.228693
0.22927
0.229871
0.230506
0.231175
0.231858
0.232556
0.233254
0.233962
0.234702
0.235422
0.236146
0.236863
0.237599
0.238364
0.239132
0.239909
0.24065
0.241378
0.24214
0.242946
0.243745
0.24466
0.24552
0.246345
0.247304
0.248382
0.249361
0.250454
0.25198
0.253868
0.255635
0.257679
0.259983
0.262823
0.265288
0.267803
0.270081
0.272116
0.273656
0.275065
0.276045
0.277094
0.278519
0.280017
0.282383
0.285784
0.289254
0.292837
0.295638
0.298004
0.300442
0.301739
0.30338
0.306517
0.310247
0.313731
0.316907
0.319983
0.323059
0.325445
0.32818
0.33185
0.335619
0.338903
0.341843
0.344736
0.347713
0.350727
0.353853
0.357818
0.359456
0.36747
0.499482
0.758083
1.04964
0.235608
0.235811
0.236048
0.236295
0.236538
0.236758
0.23696
0.237226
0.237539
0.237847
0.238139
0.238428
0.238723
0.239036
0.239368
0.239721
0.240086
0.240453
0.240819
0.24119
0.241583
0.241999
0.242423
0.242861
0.243336
0.243849
0.244368
0.244887
0.245443
0.246046
0.246664
0.24727
0.247873
0.24847
0.249058
0.249688
0.250361
0.251107
0.251931
0.252845
0.253851
0.254945
0.256054
0.25715
0.258228
0.259369
0.260642
0.2621
0.263753
0.265475
0.267228
0.269077
0.270912
0.272488
0.274021
0.275943
0.277551
0.278909
0.280333
0.281633
0.282703
0.283569
0.284671
0.28562
0.286889
0.288655
0.290705
0.293442
0.296863
0.300114
0.303506
0.306485
0.308502
0.310652
0.311902
0.313589
0.31628
0.318856
0.321815
0.32542
0.329028
0.331527
0.333294
0.335513
0.338251
0.341448
0.344804
0.348105
0.351329
0.353995
0.356439
0.359514
0.36272
0.365716
0.368506
0.371349
0.374318
0.375599
0.391731
0.680865
0.253589
0.253767
0.253962
0.254184
0.254442
0.254723
0.255031
0.255307
0.255555
0.255834
0.256166
0.256524
0.256891
0.25725
0.257605
0.257981
0.25838
0.258795
0.259231
0.259681
0.260128
0.260579
0.261046
0.261532
0.262033
0.26254
0.263074
0.263663
0.264306
0.264958
0.265599
0.266287
0.267044
0.267859
0.268699
0.269554
0.270439
0.271341
0.272251
0.27318
0.2741
0.275052
0.276059
0.277109
0.278199
0.2793
0.280428
0.28151
0.282582
0.283572
0.284518
0.285567
0.286693
0.28755
0.288401
0.289732
0.290639
0.291422
0.292634
0.294345
0.295678
0.297334
0.299482
0.302441
0.305418
0.308528
0.311807
0.314425
0.316929
0.318969
0.320489
0.322037
0.323075
0.324585
0.326876
0.329334
0.332067
0.335313
0.338624
0.34096
0.342986
0.345595
0.348317
0.350862
0.353813
0.356749
0.359255
0.361574
0.363929
0.366503
0.369266
0.371845
0.374409
0.376804
0.378826
0.380819
0.382602
0.385175
0.386129
0.399607
0.273826
0.273995
0.274187
0.274398
0.274633
0.274884
0.275129
0.27537
0.275626
0.275902
0.276192
0.276488
0.276785
0.277096
0.277428
0.277773
0.278132
0.278507
0.278893
0.2793
0.279741
0.280204
0.280683
0.281185
0.2817
0.282228
0.282771
0.283325
0.283874
0.284438
0.285042
0.285673
0.286301
0.286932
0.287576
0.288239
0.288917
0.289612
0.29031
0.291051
0.291812
0.292646
0.293528
0.294422
0.295332
0.296316
0.297265
0.298207
0.299257
0.300477
0.301687
0.302873
0.304262
0.30595
0.307687
0.309348
0.311346
0.313511
0.315698
0.317794
0.320121
0.322446
0.324571
0.326431
0.328269
0.329734
0.331059
0.332038
0.332829
0.334066
0.335113
0.336543
0.338914
0.341725
0.344803
0.347961
0.350704
0.352995
0.354944
0.356861
0.35882
0.360883
0.363247
0.3657
0.367929
0.37003
0.372182
0.374265
0.376237
0.378348
0.380393
0.382208
0.383961
0.385589
0.38718
0.388515
0.390087
0.391408
0.392706
0.393864
0.296372
0.296568
0.296789
0.297009
0.297228
0.297451
0.297689
0.297981
0.298305
0.298573
0.298821
0.299103
0.299449
0.299814
0.300158
0.300485
0.300831
0.301212
0.301618
0.302019
0.302417
0.302832
0.303273
0.30373
0.304207