/*--------------------------------*- C++ -*----------------------------------*\
  =========                 |
  \\      /  F ield         | OpenFOAM: The Open Source CFD Toolbox
   \\    /   O peration     | Website:  https://openfoam.org
    \\  /    A nd           | Version:  7
     \\/     M anipulation  |
\*---------------------------------------------------------------------------*/
FoamFile
{
    version     2.0;
    format      ascii;
    class       volScalarField;
    location    "3";
    object      T;
}
// * * * * * * * * * * * * * * * * * * * * * * * * * * * * * * * * * * * * * //

dimensions      [0 0 0 1 0 0 0];

internalField   nonuniform List<scalar> 
14400
(
0.891471
0.900941
0.911165
0.921085
0.9308
0.940029
0.949204
0.95784
0.966589
0.974615
0.982964
0.990185
0.997876
1.00383
1.01021
1.01451
1.01814
1.02076
1.02055
1.01931
1.01557
1.00981
1.00733
1.00761
1.00928
1.0114
1.01141
1.0106
1.00863
1.00739
1.00768
1.00835
1.0071
1.00492
1.00371
1.00405
1.00388
1.00289
1.00228
1.00508
0.882958
0.883331
0.884196
0.885729
0.887996
0.891184
0.895222
0.9004
0.906423
0.913761
0.921697
0.930973
0.940331
0.950681
0.960651
0.970517
0.980205
0.987671
0.995409
0.999544
1.00217
1.00534
1.00862
1.01073
1.01153
1.01087
1.00973
1.00793
1.00649
1.00675
1.00728
1.00684
1.00507
1.00368
1.00325
1.00342
1.0027
1.00195
1.00169
1.00445
0.881121
0.880962
0.880791
0.880596
0.880369
0.880166
0.879938
0.879949
0.880097
0.880572
0.881508
0.88332
0.886121
0.890818
0.89712
0.906646
0.917957
0.932593
0.948455
0.964713
0.982158
0.993727
1.00067
1.00256
1.00453
1.00436
1.00278
1.00283
1.00386
1.00487
1.00433
1.00261
1.0011
1.0013
1.00143
1.00086
0.999814
0.999791
0.999705
1.00234
0.879128
0.878955
0.878768
0.878553
0.878328
0.878086
0.877821
0.877543
0.877263
0.876958
0.876642
0.876327
0.876047
0.875833
0.875979
0.876674
0.878326
0.882233
0.888741
0.900858
0.917525
0.938256
0.959905
0.973326
0.986511
0.989801
0.994047
0.99797
1.00243
1.00229
1.0006
0.997228
0.997343
0.998737
0.998636
0.997233
0.996451
0.996755
0.996781
0.999384
0.877928
0.877776
0.877607
0.877416
0.877206
0.876975
0.876725
0.87646
0.876183
0.875893
0.875605
0.875308
0.874988
0.87473
0.87448
0.874212
0.873961
0.873628
0.873673
0.874349
0.87677
0.884214
0.897039
0.919305
0.944126
0.965625
0.985865
0.992108
0.997101
0.996647
0.993112
0.993378
0.995136
0.996469
0.995753
0.99381
0.993845
0.994192
0.994041
0.996514
0.877081
0.876974
0.876855
0.876724
0.876587
0.876439
0.876279
0.876114
0.875946
0.875785
0.875623
0.87546
0.875294
0.875115
0.87495
0.874751
0.874487
0.874162
0.873682
0.873556
0.873325
0.873398
0.874165
0.877938
0.88663
0.906835
0.932646
0.955448
0.976111
0.981409
0.986116
0.992731
0.996145
0.995457
0.99275
0.991938
0.992821
0.992886
0.992134
0.99453
0.876819
0.876759
0.876703
0.876638
0.876585
0.876531
0.876437
0.876339
0.876323
0.876302
0.876251
0.876168
0.876029
0.875872
0.875716
0.875502
0.875175
0.874786
0.874307
0.873755
0.873429
0.873276
0.873008
0.87255
0.872634
0.874521
0.881
0.899192
0.924928
0.953746
0.979725
0.98983
0.994053
0.992827
0.990188
0.991712
0.99279
0.991887
0.99083
0.993593
0.877595
0.877584
0.877582
0.877606
0.877629
0.877606
0.877523
0.877358
0.877257
0.877204
0.877096
0.876893
0.876611
0.876318
0.876022
0.875656
0.875166
0.874605
0.874139
0.873721
0.87333
0.87291
0.872379
0.871735
0.871076
0.870204
0.870203
0.871761
0.878068
0.89707
0.926747
0.955439
0.976851
0.984076
0.988569
0.993768
0.993138
0.990329
0.98991
0.993446
0.878758
0.878666
0.878595
0.878535
0.878469
0.878382
0.878261
0.878106
0.877935
0.877765
0.877568
0.877299
0.876955
0.876593
0.876219
0.875755
0.875162
0.874516
0.873848
0.873177
0.872512
0.871887
0.871366
0.870806
0.870282
0.869785
0.868985
0.868788
0.869078
0.871108
0.878809
0.899691
0.930455
0.965918
0.984547
0.992692
0.991
0.988723
0.989602
0.993965
0.878811
0.878703
0.878581
0.878441
0.878287
0.878113
0.877916
0.877706
0.877466
0.877196
0.876894
0.876547
0.876143
0.875724
0.875292
0.874735
0.87402
0.873367
0.872876
0.872379
0.871751
0.871239
0.870878
0.870531
0.870208
0.869571
0.869401
0.869574
0.869717
0.869346
0.869253
0.87086
0.88065
0.905462
0.938654
0.970729
0.97799
0.987433
0.990978
0.994586
0.876658
0.876521
0.876364
0.876181
0.875974
0.875759
0.875545
0.875334
0.875079
0.874804
0.874499
0.874163
0.873812
0.873583
0.873393
0.87311
0.872718
0.872528
0.872511
0.872324
0.871788
0.87119
0.870956
0.871069
0.871286
0.871138
0.870789
0.870476
0.870021
0.869378
0.868603
0.867077
0.86707
0.869758
0.885182
0.915815
0.954346
0.983534
0.988201
0.992911
0.873947
0.873835
0.873688
0.873534
0.873319
0.873046
0.872992
0.872973
0.872874
0.872692
0.872481
0.872314
0.872176
0.872164
0.872176
0.872168
0.872204
0.872278
0.872318
0.872453
0.872663
0.872593
0.872515
0.872685
0.872587
0.872098
0.871337
0.870414
0.869359
0.868172
0.866967
0.865858
0.864479
0.863922
0.865116
0.87255
0.898176
0.936137
0.962317
0.984614
0.875605
0.875818
0.875871
0.875823
0.875593
0.875212
0.874971
0.874835
0.874858
0.874889
0.874777
0.874735
0.874755
0.874774
0.874819
0.875097
0.87522
0.875216
0.875173
0.875152
0.87515
0.874726
0.874107
0.87361
0.872963
0.871927
0.870544
0.869096
0.867572
0.86622
0.86535
0.864681
0.863932
0.863002
0.862806
0.863111
0.866395
0.881249
0.91259
0.968565
0.886958
0.886902
0.886671
0.886309
0.885884
0.885385
0.884907
0.884475
0.884053
0.883533
0.883013
0.882561
0.882003
0.881482
0.881025
0.880526
0.879884
0.879021
0.878122
0.877102
0.875765
0.874153
0.873003
0.872372
0.871429
0.869678
0.868516
0.867845
0.866873
0.865629
0.865075
0.864746
0.864789
0.864738
0.864826
0.864203
0.862303
0.86235
0.867977
0.918062
0.900065
0.89974
0.899367
0.89896
0.898489
0.897947
0.897312
0.896582
0.895794
0.894955
0.894048
0.893043
0.891992
0.890908
0.889752
0.888478
0.887079
0.885625
0.884247
0.882777
0.881128
0.879599
0.878344
0.877216
0.875842
0.873459
0.87197
0.871601
0.870561
0.869899
0.869551
0.869516
0.869187
0.868373
0.866731
0.86454
0.861999
0.858807
0.858173
0.875154
0.933201
0.932471
0.932037
0.931712
0.931142
0.930464
0.929802
0.92885
0.927632
0.926845
0.925974
0.924752
0.923442
0.922174
0.920802
0.919395
0.917825
0.915982
0.914301
0.912501
0.91029
0.908054
0.90562
0.903036
0.900808
0.897499
0.893592
0.890875
0.888127
0.88482
0.881041
0.877855
0.873963
0.870751
0.866364
0.863327
0.861271
0.858612
0.858208
0.861184
0.976344
0.975588
0.97464
0.974105
0.973528
0.972692
0.971647
0.97042
0.969183
0.96791
0.96638
0.964704
0.962939
0.961096
0.959048
0.956828
0.954563
0.952042
0.949281
0.946378
0.943158
0.939463
0.935504
0.931274
0.927164
0.923267
0.918583
0.913032
0.907402
0.902113
0.896544
0.891216
0.885274
0.880167
0.8746
0.871405
0.868296
0.86543
0.864203
0.864311
1.02685
1.02613
1.0249
1.02392
1.02317
1.02223
1.02113
1.0197
1.01811
1.01668
1.01506
1.01312
1.01114
1.00898
1.00658
1.00395
1.00114
0.998062
0.99471
0.991044
0.987197
0.983245
0.978819
0.974347
0.969225
0.963453
0.958309
0.952433
0.945701
0.939288
0.932795
0.926411
0.919747
0.912657
0.905208
0.898137
0.890182
0.883046
0.875236
0.867268
1.07827
1.07739
1.07628
1.07554
1.07476
1.07372
1.07264
1.07132
1.06985
1.06844
1.06683
1.0649
1.06276
1.06043
1.05782
1.05502
1.05195
1.04875
1.04516
1.04136
1.03716
1.03255
1.02757
1.02182
1.01605
1.01004
1.00331
0.995931
0.988082
0.98002
0.971622
0.962553
0.95372
0.943996
0.934328
0.923576
0.913314
0.902995
0.89313
0.881013
1.11485
1.11462
1.11426
1.11386
1.11352
1.1131
1.11263
1.11214
1.11149
1.11075
1.10999
1.10894
1.10748
1.10577
1.10389
1.10175
1.09924
1.09639
1.09338
1.08992
1.08631
1.08237
1.07783
1.07269
1.06685
1.06069
1.05416
1.04661
1.03815
1.02867
1.01919
1.00863
0.99818
0.986706
0.975963
0.963815
0.952753
0.940824
0.93092
0.914953
1.12218
1.12208
1.12195
1.12188
1.12188
1.12178
1.12148
1.12116
1.12092
1.12081
1.12066
1.12034
1.1197
1.1192
1.11898
1.11864
1.11799
1.11703
1.11599
1.11481
1.1136
1.11232
1.11054
1.10786
1.10435
1.10054
1.09669
1.09206
1.0862
1.07893
1.07011
1.06005
1.04884
1.03677
1.02352
1.0098
0.995139
0.980343
0.96663
0.945077
1.11687
1.11691
1.11694
1.11694
1.11697
1.11707
1.11701
1.1169
1.11677
1.11667
1.11659
1.11642
1.11627
1.11624
1.11623
1.11619
1.11609
1.11582
1.11537
1.11513
1.11491
1.11436
1.11344
1.1126
1.11162
1.11024
1.10874
1.10707
1.10503
1.10255
1.09967
1.0957
1.09004
1.08264
1.07304
1.06128
1.04724
1.03114
1.01546
0.990798
1.07887
1.07931
1.07988
1.08037
1.0809
1.08167
1.08255
1.08325
1.08397
1.08488
1.08591
1.08693
1.08799
1.08918
1.09046
1.09181
1.09332
1.09481
1.09607
1.0974
1.09874
1.09978
1.1008
1.10183
1.10284
1.10388
1.10404
1.10372
1.10311
1.10233
1.10108
1.09952
1.09764
1.09528
1.09221
1.08789
1.08244
1.07414
1.06376
1.04197
1.02056
1.02097
1.02131
1.02172
1.0223
1.02291
1.02354
1.02429
1.02511
1.02601
1.02704
1.0282
1.0295
1.03094
1.03254
1.03432
1.03632
1.03859
1.04109
1.04378
1.04674
1.05003
1.05356
1.05735
1.06127
1.0653
1.06941
1.07344
1.07722
1.08085
1.08395
1.08635
1.08802
1.08901
1.0887
1.08736
1.08479
1.08138
1.07737
1.06699
1.00114
1.00119
1.00123
1.00128
1.00133
1.0014
1.00147
1.00156
1.00166
1.00178
1.00192
1.00208
1.00227
1.0025
1.00277
1.0031
1.00349
1.00397
1.00455
1.00526
1.00613
1.00722
1.00855
1.01018
1.01219
1.01462
1.01757
1.02112
1.02527
1.03004
1.03545
1.04128
1.04742
1.05353
1.05936
1.0643
1.06802
1.0703
1.06995
1.06542
1.00002
1.00002
1.00002
1.00002
1.00002
1.00002
1.00002
1.00002
1.00003
1.00003
1.00003
1.00004
1.00004
1.00005
1.00005
1.00006
1.00007
1.00009
1.00011
1.00014
1.00017
1.00022
1.00029
1.00038
1.00051
1.0007
1.00097
1.00136
1.00193
1.00274
1.0039
1.00555
1.00777
1.01087
1.01469
1.01967
1.02514
1.03131
1.03668
1.04167
1
1
1
1
1
1
1
1
1
1
1
1
1
1
1
1
1
1
1
1
1
1
1
1
1.00001
1.00001
1.00001
1.00002
1.00004
1.00006
1.0001
1.00016
1.00027
1.00047
1.0008
1.00136
1.00227
1.00366
1.00554
1.00927
1
1
1
1
1
1
1
1
1
1
1
1
1
1
1
1
1
1
1
1
1
1
1
1
1
1
1
1
1
1
1
1
1
1.00001
1.00001
1.00002
1.00005
1.00009
1.00017
1.00045
1
1
1
1
1
1
1
1
1
1
1
1
1
1
1
1
1
1
1
1
1
1
1
1
1
1
1
1
1
1
1
1
1
1
1
1
1
1
1
1.00001
1
1
1
1
1
1
1
1
1
1
1
1
1
1
1
1
1
1
1
1
1
1
1
1
1
1
1
1
1
1
1
1
1
1
1
1
1
1
1
1
0.883656
0.882867
0.881312
0.879335
0.878122
0.877216
0.876908
0.877626
0.87887
0.878942
0.876821
0.874035
0.87542
0.886922
0.900439
0.933859
0.977124
1.02777
1.07912
1.11518
1.12232
1.11684
1.07836
1.02002
1.0011
1.00002
1
1
1
1
0.883884
0.883123
0.881481
0.879545
0.878349
0.877374
0.87703
0.87776
0.878999
0.879085
0.876976
0.874084
0.875379
0.886824
0.901047
0.934879
0.978462
1.0292
1.08041
1.1157
1.12246
1.11678
1.07747
1.01935
1.00103
1.00001
1
1
1
1
0.884016
0.883283
0.881685
0.879794
0.878593
0.877543
0.877153
0.877852
0.879091
0.879223
0.877129
0.874105
0.875434
0.886695
0.901639
0.935967
0.979778
1.03059
1.08171
1.11622
1.12257
1.1167
1.07648
1.01868
1.00097
1.00001
1
1
1
1
0.884168
0.883468
0.881898
0.880057
0.878844
0.877723
0.87728
0.877911
0.879165
0.879349
0.877285
0.874238
0.875656
0.88694
0.902319
0.937228
0.981189
1.03218
1.08322
1.11682
1.12268
1.11657
1.07549
1.01797
1.00091
1.00001
1
1
1
1
0.884317
0.88366
0.882123
0.880329
0.879109
0.877907
0.87741
0.877955
0.87924
0.879468
0.877467
0.874596
0.876027
0.88773
0.903107
0.938599
0.982778
1.03399
1.08488
1.11748
1.12277
1.11632
1.07444
1.01722
1.00084
1.00001
1
1
1
1
0.884455
0.883867
0.882362
0.880615
0.879386
0.878093
0.877537
0.877986
0.879313
0.879584
0.877677
0.874896
0.876488
0.888656
0.904001
0.940058
0.984501
1.03583
1.08654
1.11812
1.12286
1.11602
1.07327
1.01646
1.00078
1.00001
1
1
1
1
0.884581
0.884094
0.88262
0.880918
0.879659
0.878285
0.877665
0.878027
0.879393
0.879701
0.877907
0.875132
0.876859
0.889329
0.904938
0.941601
0.986239
1.0377
1.08821
1.11877
1.12296
1.11574
1.07195
1.01567
1.00072
1.00001
1
1
1
1
0.884708
0.884336
0.882883
0.88123
0.879924
0.878482
0.8778
0.878082
0.879462
0.879819
0.87816
0.875379
0.877152
0.889768
0.905886
0.94323
0.988052
1.03969
1.09001
1.11946
1.12311
1.11535
1.07054
1.01486
1.00066
1.00001
1
1
1
1
0.884853
0.884587
0.883157
0.881545
0.880195
0.878676
0.877931
0.878118
0.8795
0.879939
0.878401
0.875666
0.877443
0.890207
0.907014
0.944936
0.990005
1.04185
1.09195
1.12017
1.12329
1.11479
1.06902
1.01402
1.0006
1.00001
1
1
1
1
0.885006
0.884829
0.883442
0.881867
0.880474
0.878886
0.878059
0.878141
0.879507
0.880039
0.878611
0.875944
0.877756
0.890842
0.908324
0.946717
0.992161
1.04416
1.09395
1.12086
1.1235
1.11422
1.06738
1.01317
1.00054
1.00001
1
1
1
1
0.885152
0.885071
0.883748
0.882186
0.880753
0.879118
0.878181
0.878164
0.879499
0.880075
0.878785
0.876188
0.878076
0.891568
0.909639
0.948654
0.994556
1.04664
1.09602
1.12154
1.12376
1.11368
1.06559
1.0123
1.00048
1.00001
1
1
1
1
0.885294
0.885308
0.884059
0.882502
0.881031
0.879372
0.878304
0.87819
0.879509
0.880065
0.878931
0.876397
0.878389
0.892266
0.911128
0.950845
0.997185
1.0493
1.09817
1.12223
1.1241
1.11318
1.06367
1.01142
1.00043
1.00001
1
1
1
1
0.885468
0.885551
0.88436
0.882805
0.881303
0.879638
0.878445
0.878227
0.879507
0.880087
0.879074
0.876578
0.878694
0.893
0.912915
0.953275
1.00003
1.05211
1.1004
1.12295
1.12455
1.11263
1.06162
1.01054
1.00038
1
1
1
1
1
0.88565
0.885782
0.884649
0.8831
0.881572
0.879936
0.878627
0.878286
0.879477
0.880148
0.879225
0.876745
0.878991
0.893858
0.915036
0.955945
1.00299
1.05507
1.10267
1.12375
1.12506
1.11174
1.05943
1.00965
1.00033
1
1
1
1
1
0.885839
0.886007
0.884928
0.883368
0.881825
0.88025
0.878872
0.878425
0.879451
0.880227
0.879376
0.876895
0.879274
0.894939
0.917506
0.958776
1.00607
1.05821
1.10496
1.12462
1.12554
1.11037
1.05707
1.00877
1.00028
1
1
1
1
1
0.886031
0.886222
0.885187
0.883608
0.882053
0.880563
0.879155
0.878651
0.879448
0.880349
0.879539
0.877007
0.879532
0.896296
0.92022
0.961681
1.00933
1.06157
1.10724
1.12543
1.12593
1.10893
1.05458
1.0079
1.00024
1
1
1
1
1
0.886248
0.886427
0.88542
0.883811
0.882249
0.880844
0.879437
0.878927
0.879488
0.880559
0.879779
0.877085
0.879764
0.89793
0.923079
0.964651
1.01287
1.06519
1.10949
1.12592
1.12626
1.10751
1.05195
1.00705
1.0002
1
1
1
1
1
0.886483
0.886611
0.885613
0.88397
0.882403
0.881089
0.879699
0.879192
0.879651
0.880806
0.880255
0.877191
0.880002
0.899722
0.926057
0.967855
1.01676
1.06899
1.11166
1.12607
1.12661
1.10607
1.04916
1.00621
1.00017
1
1
1
1
1
0.886745
0.886793
0.88576
0.88408
0.882501
0.881263
0.879936
0.879412
0.879779
0.880994
0.880917
0.877618
0.880395
0.90145
0.929122
0.971352
1.02094
1.07291
1.1138
1.12616
1.12685
1.10459
1.04616
1.00541
1.00014
1
1
1
1
1
0.887043
0.886975
0.88586
0.884145
0.882548
0.881366
0.880138
0.879576
0.879762
0.881102
0.881531
0.878649
0.881017
0.902807
0.932278
0.975129
1.02538
1.07704
1.11593
1.12678
1.1269
1.10289
1.04295
1.00464
1.00011
1
1
1
1
1
0.887358
0.887186
0.885939
0.884172
0.882566
0.881414
0.880333
0.879712
0.87972
0.881125
0.881933
0.879705
0.881703
0.903711
0.935608
0.979347
1.03014
1.08139
1.11806
1.12781
1.12688
1.10058
1.03955
1.00393
1.00009
1
1
1
1
1
0.887708
0.887423
0.886026
0.884151
0.882581
0.881451
0.880577
0.879856
0.879711
0.880733
0.882139
0.88075
0.882421
0.904624
0.939352
0.984122
1.03513
1.08594
1.12018
1.12844
1.12654
1.09759
1.03605
1.00328
1.00007
1
1
1
1
1
0.888088
0.887678
0.886053
0.884016
0.882544
0.881489
0.880912
0.880048
0.879715
0.879833
0.88221
0.881963
0.883476
0.90736
0.943567
0.989217
1.04043
1.09063
1.12224
1.12887
1.12561
1.09433
1.03257
1.0027
1.00005
1
1
1
1
1
0.888502
0.8879
0.886
0.883784
0.882442
0.881485
0.881277
0.880331
0.879705
0.879025
0.882138
0.883331
0.885156
0.911666
0.947993
0.994608
1.04621
1.0954
1.12422
1.12934
1.12436
1.09087
1.02912
1.00218
1.00004
1
1
1
1
1
0.888959
0.88809
0.885963
0.883507
0.882294
0.881562
0.881566
0.880656
0.879529
0.878505
0.882021
0.884602
0.887268
0.915643
0.952429
1.00058
1.05249
1.10018
1.12611
1.12986
1.12293
1.08708
1.0257
1.00173
1.00003
1
1
1
1
1
0.889424
0.888269
0.88595
0.883324
0.882154
0.8816
0.881785
0.881013
0.879497
0.878103
0.88188
0.885616
0.889851
0.919825
0.957398
1.00726
1.05908
1.10492
1.12784
1.13027
1.12163
1.08287
1.02224
1.00133
1.00002
1
1
1
1
1
0.889908
0.88848
0.885943
0.883152
0.881971
0.881622
0.881942
0.881355
0.879484
0.877699
0.881466
0.886348
0.893081
0.924636
0.963456
1.01449
1.06602
1.1095
1.12925
1.13062
1.12062
1.07798
1.01876
1.00099
1.00001
1
1
1
1
1
0.89042
0.888719
0.885933
0.883011
0.881752
0.881576
0.882036
0.88165
0.879659
0.877169
0.880091
0.887062
0.896993
0.929803
0.970604
1.02225
1.07323
1.11383
1.13023
1.13091
1.11924
1.07222
1.01542
1.00072
1.00001
1
1
1
1
1
0.890887
0.889036
0.885979
0.882935
0.881514
0.881445
0.882083
0.881798
0.879795
0.876742
0.878534
0.88811
0.901349
0.934975
0.97843
1.03045
1.08068
1.11786
1.13086
1.13098
1.1162
1.06581
1.01238
1.00051
1.00001
1
1
1
1
1
0.891202
0.889355
0.886136
0.882933
0.881324
0.881182
0.882023
0.88183
0.879738
0.876461
0.877814
0.889449
0.905883
0.94045
0.986853
1.03927
1.08832
1.12149
1.13142
1.13044
1.11265
1.05929
1.0097
1.00035
1
1
1
1
1
1
0.89133
0.889563
0.886338
0.883097
0.881248
0.880873
0.881886
0.881851
0.879703
0.876206
0.877638
0.890959
0.910921
0.947205
0.996073
1.04886
1.09596
1.12469
1.13182
1.12926
1.10926
1.05256
1.00735
1.00023
1
1
1
1
1
1
0.891344
0.889669
0.88656
0.883365
0.881299
0.880543
0.881701
0.881943
0.880032
0.876184
0.877994
0.894553
0.916682
0.955995
1.00629
1.05911
1.10354
1.12739
1.13201
1.12767
1.10533
1.04536
1.00536
1.00015
1
1
1
1
1
1
0.890915
0.889698
0.88684
0.883728
0.881362
0.880364
0.881186
0.881911
0.88078
0.877313
0.879745
0.899203
0.923091
0.966414
1.01736
1.0701
1.11076
1.12941
1.13207
1.12589
1.09968
1.03798
1.00375
1.00009
1
1
1
1
1
1
0.890478
0.889453
0.8871
0.884162
0.881629
0.880395
0.880631
0.881605
0.881186
0.878818
0.881414
0.902731
0.930942
0.97804
1.02976
1.08136
1.11716
1.13068
1.13213
1.12448
1.09243
1.03069
1.00249
1.00005
1
1
1
1
1
1
0.889581
0.88921
0.887238
0.884396
0.882318
0.880894
0.880314
0.880588
0.881346
0.880132
0.882822
0.90733
0.941956
0.990799
1.04313
1.09228
1.12269
1.13128
1.1322
1.12416
1.08427
1.02358
1.00155
1.00003
1
1
1
1
1
1
0.888981
0.888874
0.887045
0.884437
0.882764
0.881677
0.880319
0.878802
0.881033
0.881545
0.885119
0.914705
0.954982
1.00469
1.0575
1.1029
1.1271
1.13152
1.13173
1.12301
1.07458
1.01704
1.0009
1.00001
1
1
1
1
1
1
0.888815
0.888209
0.886357
0.884042
0.883011
0.882447
0.880277
0.877475
0.878895
0.88356
0.890169
0.925242
0.969244
1.02061
1.07277
1.11257
1.13022
1.13165
1.13061
1.11577
1.06321
1.01164
1.00049
1.00001
1
1
1
1
1
1
0.889061
0.887896
0.885432
0.883605
0.883417
0.882851
0.880296
0.876485
0.877614
0.886009
0.898656
0.937715
0.98556
1.03902
1.08818
1.12043
1.13212
1.13165
1.12942
1.10799
1.05199
1.00747
1.00025
1
1
1
1
1
1
1
0.889973
0.887877
0.884477
0.882822
0.883537
0.883168
0.880647
0.875774
0.877265
0.890254
0.910511
0.952645
1.00476
1.05882
1.10257
1.12615
1.13288
1.13187
1.12821
1.10035
1.04068
1.00438
1.00011
1
1
1
1
1
1
1
0.890477
0.888047
0.884273
0.882057
0.882803
0.883297
0.881645
0.875712
0.877599
0.895962
0.925724
0.971762
1.02665
1.079
1.11505
1.12958
1.13329
1.1319
1.1258
1.09017
1.02858
1.00226
1.00005
1
1
1
1
1
1
1
1
1
1
1
1
1
1
1
1
1
1
1
1.00016
1.00641
1.05094
1.10935
1.12516
1.13376
1.13495
1.13401
1.13252
1.13238
1.13305
1.13439
1.13524
1.1352
1.13455
1.13364
1.13151
1.11223
1
1
1
1
1
1
1
1
1
1
1
1
1.00019
1.00709
1.05334
1.11124
1.12554
1.13379
1.13506
1.13404
1.13253
1.13232
1.13304
1.13442
1.13526
1.1352
1.1345
1.13346
1.12786
1.08392
1
1
1
1
1
1
1
1
1
1
1
1
1.00023
1.00793
1.05655
1.11271
1.12591
1.13388
1.13525
1.13414
1.13255
1.13229
1.13301
1.13442
1.13528
1.13521
1.13444
1.13307
1.12176
1.05305
1
1
1
1
1
1
1
1
1
1
1
1
1.00027
1.00904
1.05933
1.11393
1.12634
1.13408
1.13548
1.13422
1.13258
1.13229
1.133
1.13442
1.13531
1.13521
1.13436
1.13222
1.11251
1.02298
1
1
1
1
1
1
1
1
1
1
1
1
1.00034
1.01024
1.06212
1.11546
1.1267
1.13429
1.13555
1.13424
1.13263
1.1323
1.13302
1.13446
1.13533
1.13521
1.13423
1.1306
1.10123
0.992946
1
1
1
1
1
1
1
1
1
1
1
1
1.00041
1.01159
1.06543
1.11666
1.12688
1.13431
1.13555
1.13426
1.13268
1.13231
1.13303
1.13447
1.13534
1.13521
1.13398
1.12776
1.08725
0.964349
1
1
1
1
1
1
1
1
1
1
1
1.00001
1.00051
1.01319
1.0688
1.11795
1.12704
1.13431
1.13555
1.13428
1.13273
1.13229
1.13303
1.13445
1.13535
1.13518
1.1335
1.12323
1.07098
0.937501
1
1
1
1
1
1
1
1
1
1
1
1.00001
1.00063
1.01505
1.07233
1.11931
1.12724
1.13427
1.13553
1.13426
1.13275
1.13224
1.13301
1.13445
1.13535
1.13512
1.13256
1.11653
1.05414
0.910795
1
1
1
1
1
1
1
1
1
1
1
1.00001
1.00079
1.01718
1.07574
1.12038
1.12746
1.13425
1.13543
1.13422
1.13276
1.13219
1.13296
1.13442
1.13534
1.13499
1.13086
1.10735
1.03443
0.887465
1
1
1
1
1
1
1
1
1
1
1
1.00001
1.001
1.01955
1.07958
1.12169
1.1278
1.13423
1.13529
1.13417
1.13276
1.13212
1.13292
1.13435
1.1353
1.1347
1.12786
1.09517
1.01485
0.867457
1
1
1
1
1
1
1
1
1
1
1
1.00002
1.00127
1.02236
1.08366
1.12317
1.1283
1.13405
1.13513
1.13416
1.13276
1.13203
1.13285
1.13426
1.13524
1.13409
1.12308
1.08037
0.995329
0.846836
1
1
1
1
1
1
1
1
1
1
1
1.00002
1.00161
1.02549
1.08771
1.12458
1.12845
1.13389
1.13496
1.13414
1.13275
1.13194
1.13276
1.13415
1.13512
1.13284
1.11584
1.0628
0.974223
0.833343
1
1
1
1
1
1
1
1
1
1
1
1.00003
1.00207
1.0291
1.09183
1.12584
1.12854
1.1338
1.1348
1.13409
1.13273
1.13192
1.13276
1.13401
1.13491
1.13055
1.10569
1.0428
0.955727
0.826046
1
1
1
1
1
1
1
1
1
1
1
1.00005
1.00266
1.03305
1.09561
1.127
1.12875
1.13363
1.13471
1.134
1.13273
1.13193
1.13275
1.13379
1.1345
1.12651
1.09238
1.02172
0.938455
0.815912
1
1
1
1
1
1
1
1
1
1
1
1.00007
1.00343
1.03754
1.09941
1.12829
1.12902
1.13342
1.13467
1.13392
1.13273
1.13197
1.13275
1.13362
1.13349
1.12015
1.07596
0.999348
0.9212
0.815097
1
1
1
1
1
1
1
1
1
1
1
1.0001
1.00444
1.04243
1.10296
1.12928
1.1292
1.13321
1.13464
1.13393
1.13281
1.13207
1.13273
1.13346
1.13135
1.11072
1.05703
0.976821
0.906843
0.817512
1
1
1
1
1
1
1
1
1
1
1
1.00015
1.00573
1.0478
1.10673
1.13017
1.12949
1.13297
1.13471
1.13408
1.13301
1.13222
1.13269
1.13318
1.12764
1.09789
1.03581
0.954605
0.895962
0.82654
1
1
1
1
1
1
1
1
1
1
1
1.00022
1.00743
1.05354
1.11013
1.13123
1.12981
1.13262
1.13473
1.13435
1.13333
1.13243
1.13272
1.13235
1.12132
1.08181
1.01386
0.933256
0.885722
0.835939
1
1
1
1
1
1
1
1
1
1
1
1.00032
1.00953
1.05971
1.11338
1.13171
1.12994
1.1322
1.13468
1.13464
1.13373
1.13266
1.13271
1.13056
1.11203
1.06259
0.991412
0.91314
0.876807
0.84453
1
1
1
1
1
1
1
1
1
1
1.00001
1.00048
1.01233
1.06625
1.11629
1.13209
1.12999
1.13173
1.1345
1.13476
1.13422
1.13293
1.13253
1.12693
1.09893
1.04139
0.969472
0.894682
0.872567
0.855825
1
1
1
1
1
1
1
1
1
1
1.00001
1.00072
1.01569
1.07289
1.1188
1.13271
1.12994
1.13116
1.13429
1.13484
1.13456
1.13324
1.13186
1.1207
1.08243
1.01839
0.94886
0.880727
0.868864
0.870257
1
1
1
1
1
1
1
1
1
1
1.00002
1.00109
1.01998
1.07985
1.12145
1.13368
1.12982
1.13055
1.13404
1.13492
1.13475
1.13328
1.13004
1.1109
1.06263
0.995038
0.929707
0.870379
0.863006
0.884102
1
1
1
1
1
1
1
1
1
1
1.00003
1.00163
1.02511
1.08682
1.1242
1.13403
1.12991
1.13006
1.13358
1.13488
1.1349
1.13297
1.12612
1.0971
1.04065
0.972073
0.913502
0.863524
0.86311
0.889613
1
1
1
1
1
1
1
1
1
1
1.00005
1.00248
1.03132
1.09332
1.12602
1.13412
1.1302
1.13007
1.13312
1.13479
1.13488
1.13188
1.11906
1.07964
1.01731
0.949358
0.898359
0.863487
0.863998
0.892548
1
1
1
1
1
1
1
1
1
1
1.00008
1.0037
1.03821
1.09915
1.12713
1.13447
1.13067
1.1303
1.1331
1.13478
1.13469
1.12917
1.10794
1.0586
0.993679
0.929391
0.889501
0.864665
0.866821
0.894267
1
1
1
1
1
1
1
1
1
1
1.00014
1.00549
1.04611
1.10499
1.1282
1.1349
1.13125
1.13083
1.13311
1.13478
1.134
1.12409
1.09281
1.03591
0.970521
0.909952
0.881005
0.866125
0.871867
0.89505
1
1
1
1
1
1
1
1
1
1
1.00026
1.00806
1.05461
1.11001
1.12943
1.1352
1.13184
1.13118
1.13305
1.1347
1.13231
1.11534
1.0734
1.01147
0.949293
0.894676
0.876985
0.868884
0.877961
0.895199
1
1
1
1
1
1
1
1
1
1.00001
1.00045
1.01153
1.06381
1.11477
1.12989
1.1352
1.13226
1.13127
1.13289
1.13435
1.12865
1.10256
1.05184
0.988059
0.929316
0.880487
0.872878
0.872315
0.88382
0.89616
1
1
1
1
1
1
1
1
1
1.00001
1.00081
1.01645
1.07337
1.11897
1.12994
1.13512
1.13246
1.13124
1.13245
1.13345
1.12198
1.08578
1.02778
0.964205
0.913652
0.872907
0.868505
0.876449
0.888494
0.897316
1
1
1
1
1
1
1
1
1
1.00002
1.00141
1.02254
1.08271
1.12261
1.13031
1.13502
1.13265
1.13101
1.13198
1.13075
1.11115
1.06469
1.00392
0.944024
0.900605
0.867506
0.864639
0.879178
0.891122
0.899151
1
1
1
1
1
1
1
1
1
1.00005
1.00246
1.03051
1.09208
1.12612
1.1307
1.13486
1.13279
1.13086
1.13106
1.12517
1.09567
1.04269
0.980735
0.923525
0.88996
0.867235
0.865071
0.880594
0.892647
0.899872
1
1
1
1
1
1
1
1
1
1.0001
1.00415
1.03984
1.10006
1.12788
1.13122
1.13481
1.13288
1.13075
1.12925
1.11573
1.0761
1.01753
0.958407
0.908244
0.884059
0.868188
0.866929
0.882225
0.892588
0.899332
1
1
1
1
1
1
1
1
1
1.00021
1.00686
1.05044
1.108
1.12917
1.13152
1.13478
1.13312
1.13049
1.12522
1.10131
1.05349
0.994515
0.938513
0.892763
0.880077
0.871783
0.869939
0.883314
0.89188
0.897599
1
1
1
1
1
1
1
1
1.00001
1.00043
1.01102
1.06209
1.11442
1.13067
1.13152
1.13457
1.1333
1.12955
1.1176
1.08294
1.02882
0.970729
0.921917
0.882485
0.876934
0.876319
0.874254
0.885064
0.891407
0.894346
1
1
1
1
1
1
1
1
1.00001
1.00088
1.01692
1.07428
1.11957
1.13205
1.13152
1.13405
1.13306
1.12688
1.10547
1.06063
1.00445
0.94952
0.907367
0.876059
0.872821
0.878385
0.880055
0.886541
0.890918
0.891349
1
1
1
1
1
1
1
1
1.00003
1.00177
1.02527
1.08613
1.12435
1.13247
1.13133
1.13345
1.13201
1.12099
1.08822
1.03668
0.980644
0.929664
0.897329
0.87364
0.871149
0.878882
0.884014
0.887881
0.89019
0.889028
1
1
1
1
1
1
1
1
1.00008
1.00336
1.03565
1.09685
1.12733
1.13287
1.13125
1.13283
1.12918
1.11015
1.06757
1.01186
0.957706
0.913357
0.890011
0.873873
0.871997
0.879903
0.885159
0.887816
0.888971
0.888049
1
1
1
1
1
1
1
1
1.00019
1.00632
1.04826
1.10708
1.12949
1.1334
1.13118
1.13194
1.1232
1.09424
1.04358
0.987691
0.937892
0.897765
0.885387
0.876197
0.873818
0.880158
0.884737
0.887002
0.888566
0.888472
1
1
1
1
1
1
1
1.00001
1.00046
1.01116
1.06212
1.11444
1.13054
1.13355
1.13131
1.12948
1.11296
1.07393
1.01849
0.963454
0.920242
0.887071
0.882233
0.880952
0.877231
0.880551
0.883638
0.885693
0.888326
0.889761
1
1
1
1
1
1
1
1.00002
1.00104
1.01831
1.07639
1.12022
1.13126
1.13348
1.13104
1.1242
1.09783
1.0505
0.994241
0.942819
0.907017
0.881719
0.879014
0.881864
0.881767
0.881571
0.881957
0.884647
0.888295
0.890613
1.13223
1.13286
1.13372
1.13459
1.13519
1.1352
1.13435
1.13305
1.1324
1.13248
1.13401
1.13488
1.13364
1.12474
1.10811
1.04901
1.0057
1.00013
1
1
1
1
1
1
1
1
1
1
1
1
1.13224
1.13283
1.13369
1.13457
1.13517
1.13518
1.13436
1.13309
1.13241
1.13244
1.13401
1.13484
1.13357
1.12457
1.10751
1.04763
1.00529
1.00013
1
1
1
1
1
1
1
1
1
1
1
1
1.1323
1.13283
1.13367
1.13456
1.13515
1.13516
1.13436
1.13312
1.1324
1.13244
1.13403
1.13483
1.13355
1.12453
1.10631
1.04523
1.00486
1.00011
1
1
1
1
1
1
1
1
1
1
1
1
1.13235
1.13285
1.13365
1.13455
1.13512
1.13514
1.1344
1.13316
1.13242
1.13244
1.13401
1.13486
1.1337
1.12459
1.10463
1.04335
1.00447
1.0001
1
1
1
1
1
1
1
1
1
1
1
1
1.13243
1.13287
1.13367
1.13456
1.13508
1.13508
1.13443
1.1332
1.13244
1.1324
1.13389
1.13494
1.13383
1.12452
1.1031
1.04146
1.00403
1.00008
1
1
1
1
1
1
1
1
1
1
1
1
1.13251
1.13287
1.13369
1.13458
1.13503
1.135
1.13443
1.13324
1.13244
1.13234
1.13377
1.13502
1.13387
1.12416
1.10165
1.03941
1.0036
1.00007
1
1
1
1
1
1
1
1
1
1
1
1
1.13259
1.13287
1.13369
1.13456
1.13497
1.13493
1.13443
1.13327
1.13243
1.13234
1.13369
1.13501
1.13388
1.12381
1.10004
1.03715
1.0032
1.00006
1
1
1
1
1
1
1
1
1
1
1
1
1.13269
1.13291
1.13365
1.13449
1.1349
1.13487
1.13443
1.1333
1.13244
1.13236
1.13364
1.13506
1.13389
1.12361
1.09806
1.03478
1.00281
1.00005
1
1
1
1
1
1
1
1
1
1
1
1
1.1328
1.13295
1.13361
1.13442
1.13483
1.13479
1.13444
1.13333
1.13246
1.13237
1.13363
1.13529
1.13404
1.12344
1.09567
1.03231
1.00244
1.00004
1
1
1
1
1
1
1
1
1
1
1
1
1.13291
1.13303
1.13361
1.13434
1.13474
1.13472
1.13444
1.13338
1.13246
1.13236
1.13364
1.13578
1.13421
1.12318
1.09295
1.02978
1.00209
1.00003
1
1
1
1
1
1
1
1
1
1
1
1
1.13303
1.13312
1.13361
1.13425
1.13464
1.13464
1.13442
1.13346
1.13245
1.13231
1.13364
1.13604
1.13434
1.12275
1.09009
1.02729
1.00178
1.00003
1
1
1
1
1
1
1
1
1
1
1
1
1.13315
1.13321
1.13362
1.13414
1.13451
1.13456
1.1344
1.13358
1.13243
1.13222
1.1335
1.13604
1.13439
1.1218
1.08705
1.02478
1.00149
1.00002
1
1
1
1
1
1
1
1
1
1
1
1
1.13326
1.13331
1.13363
1.134
1.13434
1.13446
1.13437
1.13374
1.13246
1.13203
1.13308
1.13595
1.13431
1.12071
1.08377
1.02226
1.00123
1.00002
1
1
1
1
1
1
1
1
1
1
1
1
1.13339
1.13343
1.13367
1.13385
1.13411
1.13436
1.13434
1.13393
1.13253
1.13172
1.13247
1.13581
1.13415
1.11986
1.08029
1.01977
1.001
1.00001
1
1
1
1
1
1
1
1
1
1
1
1
1.13354
1.13355
1.1337
1.13371
1.13385
1.13422
1.13433
1.13411
1.13259
1.13135
1.13179
1.13532
1.13386
1.11934
1.07664
1.01736
1.0008
1.00001
1
1
1
1
1
1
1
1
1
1
1
1
1.13371
1.13368
1.13373
1.13359
1.13357
1.13407
1.13434
1.13427
1.13269
1.13105
1.13119
1.13439
1.1334
1.11911
1.07282
1.01502
1.00063
1.00001
1
1
1
1
1
1
1
1
1
1
1
1
1.13392
1.13383
1.13373
1.13348
1.13328
1.13391
1.13439
1.13441
1.13292
1.1309
1.13073
1.13342
1.13295
1.11841
1.06855
1.01275
1.00048
1.00001
1
1
1
1
1
1
1
1
1
1
1
1
1.13415
1.13396
1.13372
1.13336
1.13305
1.13371
1.13442
1.13456
1.13344
1.13094
1.13036
1.13248
1.13232
1.11599
1.06387
1.01066
1.00036
1
1
1
1
1
1
1
1
1
1
1
1
1
1.13441
1.13406
1.13369
1.13321
1.13287
1.13347
1.13443
1.13475
1.13398
1.1313
1.13014
1.13173
1.13147
1.11302
1.05891
1.00871
1.00026
1
1
1
1
1
1
1
1
1
1
1
1
1
1.13464
1.13418
1.13367
1.13308
1.13272
1.13323
1.13438
1.13495
1.1344
1.13193
1.13011
1.13131
1.131
1.11012
1.05359
1.00694
1.00019
1
1
1
1
1
1
1
1
1
1
1
1
1
1.13482
1.13431
1.13373
1.13299
1.13262
1.13299
1.13428
1.1351
1.13473
1.13265
1.13026
1.13117
1.13098
1.10696
1.04781
1.00536
1.00013
1
1
1
1
1
1
1
1
1
1
1
1
1
1.13495
1.13443
1.13382
1.13294
1.13256
1.1328
1.13405
1.13516
1.13492
1.13337
1.13076
1.13112
1.13112
1.10299
1.04151
1.004
1.00009
1
1
1
1
1
1
1
1
1
1
1
1
1
1.13503
1.1345
1.13386
1.13292
1.13255
1.13271
1.13376
1.13513
1.13498
1.13401
1.13109
1.13082
1.13034
1.09763
1.035
1.00288
1.00006
1
1
1