/*--------------------------------*- C++ -*----------------------------------*\
  =========                 |
  \\      /  F ield         | OpenFOAM: The Open Source CFD Toolbox
   \\    /   O peration     | Website:  https://openfoam.org
    \\  /    A nd           | Version:  7
     \\/     M anipulation  |
\*---------------------------------------------------------------------------*/
FoamFile
{
    version     2.0;
    format      ascii;
    class       volScalarField;
    location    "6";
    object      rho;
}
// * * * * * * * * * * * * * * * * * * * * * * * * * * * * * * * * * * * * * //

dimensions      [1 -3 0 0 0 0 0];

internalField   nonuniform List<scalar> 
90000
(
0.40975
0.454701
0.493783
0.522296
0.557214
0.59482
0.628536
0.667462
0.712904
0.755735
0.801936
0.848041
0.89197
0.932461
0.969501
0.997594
1.02153
1.03577
1.04619
1.05211
1.05571
1.05397
1.05055
1.04476
1.04139
1.03728
1.03574
1.03276
1.03339
1.03418
1.03535
1.03532
1.03536
1.03712
1.0421
1.04938
1.05659
1.06144
1.0632
1.06255
1.06032
1.05891
1.05937
1.06072
1.06308
1.06324
1.06255
1.06178
1.06197
1.06295
1.06461
1.06673
1.06811
1.06817
1.06822
1.06882
1.06882
1.06875
1.06862
1.06887
1.06951
1.07036
1.07096
1.07039
1.06908
1.06943
1.07209
1.07518
1.0748
1.07282
1.07137
1.07206
1.07289
1.07444
1.07553
1.07555
1.07364
1.07155
1.07159
1.07363
1.07745
1.08168
1.08698
1.09607
1.1059
1.1135
1.11958
1.1254
1.1315
1.13907
1.14931
1.16139
1.17838
1.19595
1.21023
1.22614
1.25012
1.28402
1.30953
1.3392
0.369258
0.369288
0.369332
0.369377
0.369418
0.369698
0.37067
0.373102
0.378408
0.386965
0.400668
0.420814
0.448902
0.484533
0.529814
0.582984
0.642057
0.703321
0.763651
0.818903
0.866126
0.906114
0.939717
0.963357
0.98512
1.0015
1.01853
1.02855
1.03859
1.04036
1.03972
1.03453
1.03765
1.04407
1.04968
1.05289
1.05376
1.05291
1.051
1.04688
1.04334
1.04446
1.04936
1.05727
1.06472
1.06418
1.06192
1.05865
1.05924
1.06091
1.06256
1.0633
1.06429
1.06541
1.06678
1.06845
1.06894
1.0681
1.06744
1.06778
1.06937
1.07054
1.07049
1.06951
1.06895
1.07001
1.07342
1.07656
1.07558
1.07362
1.07259
1.07377
1.07708
1.07822
1.07778
1.07672
1.07485
1.07398
1.07609
1.07996
1.08352
1.08752
1.09379
1.10331
1.11373
1.12129
1.12736
1.13343
1.14005
1.14748
1.157
1.16879
1.18545
1.20228
1.2148
1.22932
1.25233
1.28601
1.30909
1.33742
0.370435
0.37059
0.370773
0.370975
0.371209
0.371451
0.371773
0.371931
0.37209
0.37227
0.372485
0.37273
0.37302
0.373351
0.373693
0.374535
0.377337
0.384955
0.398494
0.421621
0.452641
0.495529
0.546557
0.608383
0.673334
0.741682
0.808033
0.870273
0.927017
0.971479
1.00918
1.034
1.05279
1.06113
1.06285
1.06125
1.05822
1.0553
1.05105
1.0452
1.04659
1.05203
1.05758
1.06183
1.06289
1.06212
1.06248
1.06295
1.06437
1.06533
1.06512
1.06458
1.06527
1.06726
1.06965
1.07118
1.07148
1.07184
1.07253
1.07374
1.07571
1.07605
1.0745
1.07282
1.07381
1.07808
1.08235
1.08207
1.07943
1.07789
1.07926
1.08285
1.08504
1.08341
1.08232
1.08268
1.08365
1.0852
1.08823
1.09114
1.09319
1.09662
1.10304
1.11305
1.12341
1.13035
1.13618
1.14217
1.14859
1.15565
1.16413
1.17453
1.19023
1.20631
1.21728
1.23101
1.25354
1.28724
1.30812
1.33605
0.373113
0.373363
0.373625
0.373914
0.374207
0.374532
0.374853
0.375209
0.375588
0.37601
0.376453
0.376943
0.377451
0.378
0.378565
0.379124
0.379854
0.380126
0.380403
0.380748
0.381182
0.381716
0.382259
0.383777
0.388898
0.401618
0.423697
0.461181
0.511096
0.58047
0.65976
0.748717
0.82919
0.893917
0.950458
0.987441
1.01924
1.03233
1.0447
1.05051
1.06055
1.07359
1.08265
1.07763
1.07149
1.06996
1.0764
1.08258
1.08374
1.07951
1.07624
1.07502
1.07734
1.08103
1.08336
1.0832
1.08322
1.08448
1.08577
1.08696
1.08689
1.0855
1.08364
1.08407
1.08717
1.09252
1.09291
1.09082
1.0881
1.0892
1.09293
1.09599
1.09575
1.09444
1.09425
1.09461
1.09568
1.09819
1.10144
1.10306
1.10377
1.10686
1.11403
1.1238
1.13268
1.13898
1.14437
1.14962
1.15526
1.16152
1.16903
1.17874
1.19392
1.20793
1.21736
1.23093
1.25396
1.28812
1.30724
1.33529
0.376804
0.377096
0.377412
0.37775
0.378102
0.378478
0.378865
0.379284
0.379709
0.380169
0.380628
0.381125
0.38161
0.382143
0.382647
0.383216
0.383732
0.384323
0.384941
0.385636
0.386326
0.387075
0.387798
0.388501
0.389344
0.38966
0.390051
0.390467
0.391095
0.391574
0.394262
0.405898
0.430639
0.475579
0.53781
0.623249
0.71861
0.815915
0.903791
0.973502
1.02419
1.04672
1.06725
1.07282
1.07987
1.08593
1.09985
1.10647
1.10306
1.09527
1.09552
1.09789
1.10109
1.09931
1.09624
1.09564
1.09728
1.1005
1.10276
1.10427
1.1032
1.10116
1.09987
1.10115
1.10535
1.10854
1.10765
1.10403
1.10229
1.1043
1.10818
1.1097
1.10765
1.10571
1.10528
1.10601
1.10798
1.11124
1.11395
1.11356
1.11347
1.116
1.12367
1.13286
1.13969
1.14478
1.14993
1.15466
1.15948
1.16516
1.17187
1.18127
1.19595
1.20947
1.21786
1.23171
1.25421
1.28835
1.30664
1.33507
0.381263
0.381586
0.381937
0.382296
0.382675
0.38306
0.383464
0.383873
0.384302
0.384735
0.385189
0.38565
0.38613
0.386616
0.387116
0.387629
0.388146
0.388688
0.38922
0.389777
0.390305
0.390877
0.391401
0.391997
0.392518
0.393109
0.393748
0.394421
0.395114
0.395753
0.396508
0.396789
0.397121
0.397498
0.397951
0.398571
0.404598
0.426827
0.470528
0.543744
0.638718
0.743196
0.845811
0.933598
1.00897
1.05946
1.08337
1.09354
1.10383
1.10811
1.11969
1.12998
1.12734
1.12112
1.11421
1.11211
1.11329
1.11383
1.11431
1.11512
1.1143
1.11437
1.11569
1.11904
1.12252
1.12161
1.11725
1.1141
1.11486
1.11862
1.12093
1.11937
1.11582
1.11484
1.11528
1.11678
1.11898
1.12181
1.12259
1.1207
1.11976
1.12241
1.12963
1.13806
1.14399
1.14861
1.15314
1.15788
1.16172
1.16722
1.17304
1.18236
1.1966
1.2076
1.21543
1.22953
1.25423
1.28806
1.30641
1.33537
0.386034
0.386328
0.386642
0.386966
0.387301
0.387643
0.387997
0.388357
0.388731
0.389108
0.3895
0.389891
0.390301
0.390708
0.391135
0.391558
0.391998
0.392428
0.392876
0.393317
0.393777
0.394234
0.39471
0.395193
0.39568
0.396191
0.396684
0.397195
0.397665
0.398161
0.398599
0.399058
0.399542
0.399997
0.400443
0.400884
0.401066
0.401284
0.401536
0.401796
0.402204
0.411006
0.438107
0.495708
0.582461
0.70107
0.818899
0.921365
1.0115
1.07085
1.10904
1.11779
1.12669
1.12704
1.12906
1.13313
1.13279
1.13005
1.12655
1.12336
1.11996
1.12145
1.1255
1.13178
1.13367
1.12901
1.1221
1.12042
1.12366
1.12836
1.12755
1.12283
1.11889
1.11943
1.12154
1.12372
1.12487
1.12557
1.12447
1.12158
1.12174
1.12576
1.13379
1.14049
1.14558
1.15017
1.15441
1.15864
1.16242
1.16749
1.17327
1.18308
1.19685
1.20578
1.21357
1.22818
1.25465
1.28756
1.30673
1.33619
0.39028
0.390531
0.390796
0.391071
0.391351
0.391641
0.391935
0.392239
0.392548
0.392864
0.393185
0.393512
0.393845
0.394184
0.394528
0.394877
0.395233
0.395589
0.395948
0.396307
0.396674
0.397042
0.397424
0.397804
0.398198
0.398585
0.398986
0.399375
0.399766
0.400147
0.400511
0.400863
0.401177
0.401474
0.401741
0.401991
0.402235
0.402518
0.40275
0.402986
0.403174
0.40322
0.40327
0.403369
0.403444
0.407361
0.426535
0.480595
0.567627
0.696817
0.833302
0.941463
1.03832
1.08727
1.12748
1.13081
1.13338
1.13362
1.13317
1.13134
1.12732
1.12924
1.1346
1.13777
1.13629
1.12906
1.124
1.12561
1.13206
1.13259
1.12955
1.12325
1.12033
1.12243
1.12556
1.1261
1.12655
1.12633
1.12402
1.12054
1.12177
1.1275
1.13506
1.14174
1.14607
1.15093
1.15502
1.15867
1.16238
1.16714
1.17321
1.1843
1.19709
1.20335
1.21152
1.22709
1.25527
1.28673
1.3075
1.33735
0.394123
0.394327
0.394544
0.394767
0.394994
0.395229
0.39547
0.395716
0.395964
0.396215
0.396469
0.396727
0.396987
0.397251
0.397519
0.397791
0.398064
0.39834
0.398617
0.398899
0.399182
0.399472
0.399769
0.400069
0.400373
0.400678
0.400986
0.401281
0.401571
0.401838
0.40209
0.402308
0.40251
0.402689
0.402863
0.403027
0.403192
0.403346
0.403481
0.403606
0.403682
0.403772
0.403854
0.403957
0.404047
0.404129
0.404212
0.404339
0.404414
0.408015
0.42947
0.495425
0.600949
0.749344
0.902266
1.00093
1.08268
1.10876
1.12936
1.12765
1.12906
1.1357
1.14245
1.14131
1.13067
1.12055
1.12337
1.13146
1.13623
1.13407
1.12398
1.11851
1.12018
1.12619
1.12723
1.12642
1.12508
1.12184
1.11737
1.11646
1.12047
1.12836
1.13543
1.1401
1.146
1.15156
1.15545
1.15856
1.16223
1.16694
1.17339
1.18367
1.19511
1.19994
1.20936
1.22629
1.25614
1.286
1.30899
1.33865
0.397312
0.397469
0.397635
0.397805
0.397979
0.398156
0.398337
0.398521
0.398706
0.398897
0.39909
0.399284
0.39948
0.399679
0.399881
0.400086
0.400292
0.400502
0.400711
0.400925
0.401139
0.401356
0.401573
0.401793
0.40201
0.402229
0.402444
0.402646
0.402831
0.403003
0.40315
0.403274
0.403381
0.403475
0.403568
0.403655
0.403751
0.403836
0.40392
0.403983
0.404039
0.404087
0.404138
0.404205
0.404277
0.404377
0.404474
0.404587
0.40467
0.404708
0.40473
0.404734
0.404722
0.414706
0.455681
0.558903
0.706061
0.8622
0.997831
1.0717
1.12235
1.13389
1.13713
1.13315
1.11559
1.11641
1.12792
1.13696
1.13595
1.1275
1.11522
1.11608
1.12445
1.12895
1.12737
1.12395
1.12011
1.11507
1.11213
1.11418
1.12091
1.12867
1.13282
1.13807
1.14607
1.15192
1.15565
1.15815
1.16201
1.16661
1.17275
1.18337
1.19309
1.19672
1.20717
1.22564
1.25709
1.28551
1.31138
1.34005
0.399818
0.399933
0.400055
0.400181
0.400312
0.400445
0.400581
0.400719
0.400859
0.401001
0.401145
0.401288
0.401433
0.401579
0.401727
0.401873
0.402021
0.402169
0.402317
0.402466
0.402613
0.402759
0.402905
0.403052
0.403194
0.403334
0.403468
0.403584
0.403685
0.403773
0.403839
0.403889
0.403927
0.403962
0.403998
0.404039
0.404089
0.404142
0.404188
0.40422
0.40425
0.404282
0.404332
0.404399
0.404479
0.404566
0.404649
0.404723
0.404759
0.404782
0.404775
0.404745
0.404713
0.404684
0.404642
0.404583
0.408178
0.446645
0.538338
0.700549
0.871635
0.992699
1.06693
1.09627
1.10751
1.11977
1.14386
1.14215
1.1362
1.11504
1.11081
1.11824
1.13073
1.12989
1.12467
1.11976
1.11595
1.11167
1.11029
1.11362
1.12256
1.12744
1.12974
1.13643
1.1465
1.15214
1.15482
1.15767
1.16169
1.16633
1.17249
1.18265
1.19051
1.19423
1.20534
1.22527
1.25783
1.28531
1.31479
1.34129
0.401567
0.401652
0.401742
0.401836
0.401933
0.402032
0.402133
0.402235
0.402337
0.402439
0.402543
0.402647
0.402751
0.402854
0.402955
0.403054
0.40315
0.403242
0.403332
0.403421
0.403506
0.403588
0.40367
0.403752
0.403832
0.40391
0.40398
0.404035
0.404081
0.404115
0.404139
0.404146
0.404149
0.404154
0.404166
0.404187
0.404217
0.404254
0.404288
0.404317
0.404349
0.404392
0.404456
0.404535
0.40462
0.404692
0.404756
0.404781
0.404778
0.404758
0.404713
0.404663
0.404649
0.404643
0.404614
0.404582
0.404586
0.404666
0.404766
0.409279
0.448192
0.554565
0.722527
0.899808
1.04242
1.10273
1.12626
1.13314
1.12338
1.10491
1.11466
1.13075
1.13359
1.1282
1.11828
1.11733
1.11462
1.11108
1.11192
1.11945
1.12527
1.12496
1.12718
1.13584
1.14715
1.15172
1.15421
1.15744
1.16162
1.16567
1.17144
1.18121
1.18711
1.19228
1.2051
1.22623
1.25851
1.28581
1.3189
1.34226
0.402792
0.402859
0.402929
0.403002
0.403077
0.403153
0.403231
0.403309
0.403382
0.403451
0.403519
0.403584
0.403651
0.403716
0.403774
0.403831
0.403884
0.40393
0.403973
0.404015
0.404056
0.404095
0.404135
0.404177
0.404216
0.404257
0.404287
0.404312
0.404325
0.404323
0.404329
0.404318
0.404301
0.404299
0.404303
0.404316
0.404342
0.404376
0.404411
0.404451
0.404501
0.404573
0.404657
0.404753
0.40482
0.404873
0.40489
0.404882
0.404862
0.40482
0.404732
0.404669
0.404664
0.40467
0.404655
0.404659
0.404719
0.404893
0.405043
0.40511
0.405148
0.405078
0.412163
0.465597
0.606308
0.79111
0.944859
1.04777
1.08926
1.10624
1.13504
1.14528
1.13578
1.11977
1.11274
1.1171
1.11728
1.1167
1.12075
1.12728
1.12627
1.12199
1.12535
1.13743
1.14818
1.15176
1.15377
1.15792
1.16209
1.16524
1.1705
1.17949
1.18345
1.1911
1.20551
1.22736
1.25865
1.28727
1.32279
1.34093
0.403738
0.403787
0.403834
0.403879
0.403925
0.403972
0.404019
0.404066
0.404109
0.404146
0.404184
0.404216
0.404245
0.404272
0.40429
0.404305
0.404317
0.404327
0.404338
0.40435
0.404363
0.404374
0.404386
0.404401
0.404417
0.40443
0.404443
0.404452
0.404451
0.404456
0.404451
0.404418
0.404403
0.404405
0.404419
0.404449
0.404491
0.404539
0.404596
0.404655
0.404727
0.40481
0.404872
0.404941
0.404961
0.404957
0.404939
0.404902
0.40485
0.40475
0.40465
0.404635
0.404644
0.40466
0.404704
0.404779
0.404939
0.405079
0.405133
0.405171
0.40516
0.405025
0.40488
0.404776
0.404722
0.426947
0.509677
0.683633
0.891574
1.04488
1.11528
1.12886
1.12862
1.10725
1.11197
1.12245
1.12148
1.12324
1.1296
1.13208
1.12574
1.1192
1.12526
1.13952
1.14788
1.14989
1.15345
1.15807
1.16147
1.16436
1.16923
1.17702
1.1809
1.19053
1.20644
1.22854
1.25808
1.28991
1.32535
1.3396
0.404362
0.404392
0.40442
0.404443
0.404462
0.404486
0.404507
0.404517
0.404525
0.404536
0.404541
0.404543
0.40454
0.404534
0.404531
0.404528
0.404521
0.404509
0.4045
0.404498
0.404498
0.404499
0.404501
0.404507
0.404514
0.404522
0.404528
0.404529
0.404531
0.404538
0.404517
0.404493
0.404494
0.404509
0.404548
0.404608
0.404681
0.404756
0.404818
0.404872
0.404935
0.404978
0.405016
0.405024
0.405021
0.405007
0.404969
0.40491
0.404825
0.404698
0.404643
0.404647
0.404676
0.404777
0.404905
0.405041
0.405199
0.405214
0.405195
0.405187
0.405104
0.404932
0.404828
0.404759
0.404764
0.40489
0.405073
0.408126
0.461179
0.6149
0.821348
0.96544
1.06823
1.08703
1.12027
1.13
1.12555
1.12934
1.13392
1.13241
1.11621
1.11726
1.13009
1.14268
1.14651
1.14862
1.15415
1.15813
1.16099
1.16309
1.16749
1.17274
1.17894
1.19031
1.207
1.22963
1.25754
1.29392
1.32567
1.33853
0.404689
0.4047
0.404709
0.404715
0.404718
0.404717
0.404715
0.404712
0.404705
0.404701
0.404693
0.404678
0.404656
0.404628
0.404611
0.404593
0.404575
0.404554
0.404541
0.404539
0.404539
0.404541
0.404548
0.404555
0.40456
0.404566
0.404572
0.404576
0.40458
0.404585
0.404595
0.404616
0.404652
0.404712
0.404786
0.404868
0.404947
0.404992
0.405016
0.405034
0.40504
0.405041
0.405042
0.405025
0.404987
0.404946
0.4049
0.404855
0.404768
0.404672
0.40467
0.404714
0.404836
0.40501
0.405146
0.405283
0.405305
0.405276
0.405219
0.405121
0.404944
0.404862
0.404796
0.404779
0.404883
0.405173
0.405568
0.405804
0.405791
0.405545
0.43367
0.550841
0.757693
0.961312
1.09885
1.11591
1.11715
1.12989
1.13499
1.12283
1.1076
1.11702
1.13643
1.14341
1.14258
1.14799
1.15543
1.15772
1.15974
1.16138
1.16517
1.16786
1.17688
1.19032
1.20664
1.22948
1.25738
1.29917
1.32474
1.33713
0.404783
0.404779
0.404775
0.404776
0.404775
0.404757
0.404737
0.404736
0.404732
0.404707
0.404696
0.404685
0.404661
0.404646
0.404632
0.404609
0.404584
0.404554
0.404543
0.404542
0.404543
0.404548
0.404558
0.40457
0.404581
0.404593
0.404608
0.404626
0.404651
0.404693
0.404748
0.404808
0.404882
0.404958
0.405016
0.405076
0.405112
0.405112
0.405106
0.405082
0.405053
0.405037
0.404987
0.404914
0.404892
0.404877
0.404864
0.40484
0.404753
0.40472
0.404749
0.404873
0.405083
0.405238
0.405353
0.405373
0.40535
0.405245
0.405114
0.404951
0.404814
0.404825
0.404816
0.404874
0.40517
0.40552
0.405813
0.405863
0.405789
0.40537
0.404855
0.404485
0.416517
0.520282
0.731996
0.921579
1.04178
1.10787
1.11992
1.10439
1.10515
1.12793
1.14064
1.13862
1.1396
1.15018
1.15715
1.15656
1.15818
1.15981
1.16171
1.16491
1.17542
1.18971
1.20578
1.22788
1.25806
1.30484
1.32436
1.33529
0.404801
0.404782
0.404774
0.404775
0.404775
0.404762
0.404738
0.404718
0.404703
0.404699
0.404691
0.404672
0.404645
0.404616
0.404595
0.40457
0.404545
0.404541
0.404541
0.404545
0.404554
0.404569
0.40459
0.404617
0.404654
0.404695
0.404752
0.404814
0.404874
0.404945
0.405004
0.40506
0.40511
0.40515
0.405167
0.405171
0.405164
0.405148
0.405125
0.405065
0.404986
0.404942
0.404878
0.40483
0.404831
0.404849
0.404852
0.404835
0.40483
0.404857
0.404955
0.405113
0.405266
0.405375
0.405409
0.405397
0.405257
0.405028
0.404889
0.404793
0.40478
0.404799
0.404892
0.405183
0.405589
0.405831
0.405911
0.405864
0.405541
0.40498
0.404597
0.404456
0.404514
0.404703
0.413531
0.507307
0.710558
0.916932
1.0466
1.08278
1.11045
1.14485
1.14067
1.12868
1.13735
1.15521
1.15818
1.15475
1.15684
1.15842
1.15727
1.16284
1.17536
1.18863
1.20412
1.22568
1.25938
1.30877
1.32489
1.33407
0.404688
0.404676
0.404672
0.404672
0.404673
0.404666
0.404661
0.404659
0.404656
0.404654
0.404649
0.404639
0.404626
0.40461
0.404584
0.404579
0.404584
0.404595
0.404614
0.404641
0.404676
0.404716
0.404772
0.404844
0.404924
0.404998
0.40507
0.40512
0.405148
0.405164
0.405176
0.405197
0.405204
0.405205
0.405201
0.40519
0.405155
0.405111
0.405065
0.404967
0.404895
0.404873
0.404841
0.404812
0.404812
0.40483
0.404869
0.404942
0.405017
0.405123
0.405273
0.40532
0.405364
0.405385
0.405395
0.405315
0.405084
0.404867
0.404757
0.40474
0.404766
0.404888
0.405163
0.405669
0.405931
0.405978
0.405924
0.405651
0.405148
0.404718
0.404518
0.404538
0.4048
0.405283
0.405478
0.405338
0.41002
0.483294
0.680451
0.924041
1.07811
1.12443
1.13455
1.11812
1.14289
1.15969
1.15552
1.15203
1.15579
1.15667
1.15496
1.1613
1.17535
1.18756
1.20248
1.22416
1.2612
1.31089
1.32606
1.33439
0.404639
0.404638
0.404639
0.40464
0.404641
0.404641
0.404642
0.404645
0.404651
0.404662
0.404676
0.404692
0.404709
0.404732
0.404765
0.404799
0.404838
0.404882
0.404928
0.404983
0.405032
0.40508
0.405149
0.405214
0.405267
0.405323
0.405338
0.405328
0.405297
0.405268
0.40524
0.40522
0.405202
0.405172
0.405142
0.405109
0.405057
0.405016
0.404968
0.404889
0.404853
0.404847
0.404835
0.40484
0.40486
0.404918
0.405051
0.405218
0.405348
0.405507
0.405532
0.405496
0.405414
0.405309
0.405259
0.405142
0.40498
0.404799
0.404742
0.404741
0.404853
0.405198
0.405686
0.40609
0.406093
0.406024
0.405705
0.405255
0.404801
0.404616
0.404573
0.404738
0.405232
0.405624
0.405578
0.405243
0.404725
0.40443
0.406824
0.487836
0.699211
0.922089
1.05801
1.10602
1.16096
1.16498
1.14999
1.15153
1.15543
1.15338
1.15396
1.16198
1.17569
1.18673
1.20146
1.22502
1.26546
1.3123
1.32708
1.33557
0.404666
0.404688
0.404707
0.404729
0.404757
0.40479
0.40483
0.404869
0.404913
0.40496
0.405
0.405042
0.405082
0.405121
0.405163
0.4052
0.40523
0.405263
0.405293
0.405314
0.405335
0.405359
0.405374
0.405388
0.405407
0.405412
0.405402
0.405365
0.405299
0.405203
0.405103
0.405037
0.404997
0.404991
0.404988
0.404989
0.404994
0.404981
0.404937
0.404865
0.404858
0.404878
0.404939
0.405025
0.405123
0.405258
0.405403
0.405526
0.405648
0.405675
0.405649
0.40557
0.405391
0.405128
0.405014
0.404982
0.404939
0.404802
0.404764
0.404847
0.405216
0.405739
0.406128
0.406219
0.406158
0.405811
0.405332
0.404876
0.404681
0.404641
0.404755
0.405208
0.405744
0.405832
0.405589
0.404998
0.40459
0.404561
0.404783
0.40503
0.411642
0.495652
0.73457
0.995066
1.1402
1.15286
1.13819
1.15289
1.15617
1.15084
1.15343
1.16501
1.176
1.18612
1.20278
1.22947
1.26976
1.3136
1.32829
1.33754
0.405042
0.405115
0.405143
0.405156
0.405181
0.405227
0.405267
0.4053
0.405329
0.40535
0.405368
0.405379
0.405389
0.405401
0.405408
0.405409
0.405406
0.405408
0.405408
0.405405
0.405409
0.405419
0.405405
0.405395
0.405382
0.405331
0.405276
0.405191
0.40507
0.40496
0.404874
0.404845
0.404847
0.404864
0.404897
0.404942
0.404984
0.404982
0.404959
0.404974
0.405026
0.405161
0.405313
0.405426
0.405512
0.405604
0.405641
0.405664
0.405702
0.405658
0.40553
0.405341
0.405153
0.404937
0.404858
0.40488
0.404915
0.404969
0.405092
0.405428
0.405913
0.406297
0.406331
0.406257
0.40591
0.405431
0.405014
0.40476
0.404695
0.404797
0.405247
0.405877
0.40614
0.405978
0.405374
0.404827
0.404699
0.40488
0.405401
0.405717
0.405592
0.405331
0.415745
0.553932
0.840789
1.03437
1.11883
1.16111
1.15602
1.14826
1.15706
1.16857
1.1753
1.18595
1.20744
1.23541
1.27384
1.31518
1.33074
1.34012
0.405541
0.405564
0.405577
0.40559
0.405593
0.405591
0.405586
0.405578
0.405565
0.405547
0.405521
0.405491
0.405469
0.40545
0.405437
0.405426
0.405406
0.405388
0.405371
0.405338
0.405328
0.405323
0.405268
0.40523
0.405204
0.405134
0.405087
0.405055
0.404984
0.404879
0.404821
0.40481
0.404815
0.404842
0.404882
0.404932
0.404989
0.405045
0.405175
0.405346
0.40549
0.405692
0.40582
0.405851
0.405843
0.405819
0.405717
0.405573
0.405533
0.405482
0.405365
0.405134
0.404922
0.404823
0.404832
0.404863
0.40506
0.405421
0.405879
0.406282
0.406546
0.406521
0.406401
0.406003
0.405535
0.405162
0.404908
0.404799
0.404918
0.405404
0.406083
0.406471
0.406358
0.405771
0.405186
0.404917
0.405013
0.405502
0.405996
0.405962
0.405639
0.405438
0.40572
0.406001
0.44566
0.677857
0.990702
1.13174
1.15338
1.14977
1.16461
1.16915
1.17201
1.18617
1.21524
1.23851
1.2736
1.31592
1.33402
1.34207
0.40585
0.405828
0.405799
0.40577
0.40574
0.405707
0.40567
0.405623
0.405572
0.40552
0.405469
0.405435
0.405402
0.405362
0.405324
0.405284
0.405245
0.405196
0.405158
0.405136
0.405106
0.4051
0.405112
0.405095
0.405094
0.405098
0.405051
0.40502
0.404984
0.404905
0.404875
0.404879
0.404899
0.404959
0.405049
0.405222
0.405415
0.405576
0.405805
0.405982
0.406049
0.406089
0.406082
0.406061
0.40602
0.405937
0.405697
0.405365
0.405267
0.405309
0.405309
0.405151
0.404875
0.404829
0.404923
0.405307
0.405846
0.40634
0.406752
0.406852
0.40678
0.406508
0.406097
0.405615
0.405321
0.405107
0.404965
0.405127
0.405727
0.406438
0.406878
0.406756
0.406227
0.405555
0.405182
0.405261
0.405757
0.406291
0.406447
0.406146
0.405831
0.406012
0.406451
0.406928
0.406981
0.410455
0.542319
0.854433
1.07349
1.13618
1.17395
1.16693
1.16609
1.18964
1.22114
1.2409
1.27116
1.31615
1.33675
1.34356
0.405593
0.405564
0.40553
0.405499
0.405472
0.40545
0.40543
0.40541
0.405385
0.405352
0.405316
0.405282
0.405248
0.405214
0.405184
0.405159
0.405141
0.40513
0.405128
0.405121
0.405099
0.405077
0.405077
0.405095
0.405102
0.405115
0.405156
0.405203
0.405238
0.405289
0.40535
0.405415
0.405527
0.405661
0.405829
0.406044
0.406208
0.40634
0.406403
0.40638
0.40633
0.406232
0.406066
0.405912
0.405817
0.405741
0.40561
0.405351
0.405197
0.405208
0.405256
0.405234
0.405266
0.405449
0.405835
0.406388
0.406875
0.407263
0.407241
0.407091
0.406617
0.40614
0.405769
0.40542
0.405271
0.405306
0.405539
0.406253
0.406974
0.407392
0.407245
0.40676
0.406023
0.405525
0.405603
0.406104
0.406793
0.40702
0.406862
0.406312
0.406357
0.406786
0.407321
0.407545
0.407754
0.40791
0.408006
0.460649
0.732921
1.03783
1.16204
1.15664
1.16185
1.20095
1.22156
1.23543
1.26891
1.31678
1.33791
1.34384
0.405434
0.405413
0.40539
0.405362
0.405349
0.405339
0.405315
0.405292
0.405289
0.405284
0.405265
0.40526
0.405259
0.405248
0.405224
0.405206
0.405184
0.405156
0.405156
0.40518
0.405236
0.405327
0.40541
0.405505
0.405637
0.405771
0.40591
0.406059
0.406199
0.406317
0.406434
0.406573
0.40668
0.406732
0.406754
0.406741
0.40672
0.406695
0.406613
0.40646
0.406286
0.406035
0.405851
0.405757
0.405672
0.405587
0.405474
0.405361
0.405376
0.405489
0.405794
0.406206
0.406705
0.407225
0.407459
0.407558
0.407593
0.407603
0.407419
0.406839
0.406336
0.405981
0.405673
0.405481
0.405649
0.40616
0.407
0.407743
0.407995
0.407822
0.407289
0.406554
0.405967
0.406019
0.406627
0.407476
0.407807
0.40768
0.407089
0.406943
0.40744
0.408274
0.408734
0.408791
0.409093
0.409517
0.409895
0.410144
0.42299
0.61601
0.948665
1.09186
1.15177
1.21585
1.22155
1.2318
1.26828
1.31926
1.33815
1.34414
0.405548
0.405556
0.405547
0.40553
0.405529
0.405536
0.405548
0.405551
0.405564
0.405611
0.405634
0.405675
0.405743
0.405763
0.405815
0.405955
0.406001
0.406031
0.406167
0.406337
0.406482
0.406645
0.406783
0.406914
0.407061
0.407181
0.407241
0.407284
0.407336
0.407346
0.407286
0.407262
0.407277
0.407235
0.407075
0.40688
0.406767
0.406678
0.406551
0.406431
0.406299
0.406006
0.405806
0.405823
0.405825
0.405835
0.405903
0.406083
0.40637
0.406779
0.407263
0.407749
0.408344
0.408553
0.408503
0.40822
0.407756
0.407399
0.40702
0.406625
0.406297
0.40594
0.405931
0.406248
0.406996
0.407936
0.408702
0.40877
0.408508
0.407851
0.407092
0.406524
0.406677
0.407423
0.408438
0.408969
0.408858
0.40829
0.408164
0.408734
0.409702
0.410384
0.410464
0.410732
0.411331
0.411999
0.412349
0.413057
0.41354
0.414097
0.514737
0.84156
1.10032
1.19734
1.22442
1.23844
1.2819
1.3258
1.33752
1.34433
0.40641
0.406498
0.406598
0.406686
0.406797
0.40692
0.406996
0.407078
0.40718
0.40725
0.407346
0.407508
0.407583
0.407636
0.407747
0.407834
0.407827
0.407812
0.407876
0.407938
0.407936
0.407963
0.408005
0.408013
0.408
0.407957
0.40786
0.40772
0.407678
0.407656
0.407486
0.407267
0.40725
0.407168
0.406906
0.406734
0.406622
0.406501
0.406403
0.406379
0.406324
0.406216
0.40617
0.4062
0.406339
0.406655
0.40721
0.407913
0.408392
0.408567
0.408779
0.40904
0.409131
0.409048
0.408739
0.408147
0.407458
0.407078
0.406928
0.40668
0.406476
0.406744
0.407448
0.408453
0.409254
0.409935
0.409824
0.409454
0.40868
0.407773
0.407539
0.407968
0.40915
0.410294
0.410799
0.410654
0.410193
0.410133
0.410634
0.411805
0.412687
0.412796
0.413146
0.413681
0.414324
0.414753
0.415577
0.416797
0.417695
0.419172
0.419957
0.466955
0.717813
1.01641
1.16662
1.23368
1.30357
1.33391
1.33812
1.34614
0.408458
0.408531
0.408614
0.408703
0.408784
0.408838
0.408888
0.408939
0.408968
0.408988
0.409009
0.408991
0.408956
0.408948
0.408937
0.408907
0.408851
0.408759
0.408625
0.408522
0.40848
0.408438
0.408368
0.40826
0.40813
0.407978
0.407789
0.407559
0.407446
0.407371
0.407195
0.407031
0.407069
0.407084
0.40692
0.406901
0.40687
0.406763
0.406762
0.406904
0.407079
0.407322
0.407753
0.408284
0.408827
0.409289
0.409778
0.410361
0.410429
0.410322
0.41009
0.409735
0.409293
0.409046
0.408742
0.40815
0.407411
0.407403
0.4076
0.40808
0.408938
0.410079
0.410946
0.411672
0.411666
0.41142
0.410802
0.410128
0.409562
0.409829
0.410682
0.412027
0.413195
0.413495
0.413276
0.412764
0.412833
0.413329
0.414434
0.415456
0.415986
0.416301
0.416663
0.417257
0.417765
0.418741
0.420337
0.421339
0.42239
0.423527
0.425186
0.429811
0.44288
0.564837
0.87873
1.14801
1.28578
1.31162
1.34113
1.35289
0.409729
0.409728
0.409732
0.409747
0.409772
0.409752
0.409729
0.409733
0.409655
0.409596
0.40957
0.409455
0.409323
0.409144
0.408918
0.408889
0.408893
0.408736
0.408525
0.408516
0.408499
0.408428
0.408326
0.408197
0.408047
0.407887
0.40765
0.407599
0.407633
0.407677
0.407761
0.407968
0.408164
0.408288
0.408477
0.408776
0.409108
0.409394
0.409741
0.410262
0.410703
0.41105
0.411413
0.411687
0.411988
0.412284
0.412239
0.412097
0.411894
0.411548
0.411051
0.410287
0.409955
0.410034
0.41019
0.410413
0.41073
0.411183
0.411868
0.412759
0.413569
0.414228
0.41437
0.414221
0.413835
0.413221
0.412575
0.41269
0.413415
0.414658
0.415772
0.416754
0.416605
0.416514
0.416099
0.416195
0.41675
0.418001
0.419242
0.419569
0.419872
0.420519
0.421579
0.422713
0.423635
0.424602
0.425315
0.426212
0.427707
0.428854
0.432198
0.436792
0.446802
0.458886
0.50526
0.703595
1.05866
1.25729
1.3421
1.3601
0.410902
0.410841
0.410776
0.410716
0.410614
0.410558
0.410549
0.410494
0.410476
0.410484
0.410417
0.410308
0.410263
0.410217
0.410121
0.409998
0.409929
0.409934
0.409963
0.41002
0.410106
0.410185
0.410262
0.410368
0.410527
0.410735
0.411039
0.411477
0.411799
0.412012
0.412304
0.412721
0.413138
0.413517
0.413905
0.414239
0.414535
0.414851
0.415204
0.415226
0.415184
0.415182
0.415124
0.414957
0.414862
0.414813
0.414503
0.413985
0.414006
0.414039
0.413677
0.413542
0.41367
0.413973
0.414485
0.41527
0.415978
0.416477
0.416904
0.417267
0.417383
0.41732
0.417202
0.416853
0.416412
0.416516
0.417086
0.417997
0.419185
0.420034
0.420812
0.420764
0.420446
0.420446
0.420891
0.421901
0.423152
0.424667
0.424921
0.425011
0.425675
0.427018
0.428059
0.428849
0.430287
0.431671
0.433052
0.434738
0.436218
0.438502
0.44121
0.445341
0.455512
0.470679
0.488279
0.495581
0.608586
0.99369
1.29566
1.35806
0.413329
0.413351
0.41337
0.413388
0.413416
0.413435
0.413465
0.41354
0.413684
0.413852
0.414007
0.414173
0.414328
0.414459
0.414618
0.414816
0.415014
0.415194
0.415372
0.415655
0.416024
0.416247
0.41644
0.416708
0.417022
0.417319
0.41766
0.418116
0.418442
0.418505
0.41858
0.418848
0.41899
0.418978
0.419003
0.41897
0.418931
0.419004
0.418978
0.418669
0.418588
0.418638
0.418493
0.418185
0.418006
0.417897
0.417719
0.417511
0.41756
0.4178
0.418126
0.418507
0.418988
0.419508
0.420049
0.420659
0.421179
0.42152
0.421859
0.421806
0.421589
0.421596
0.421803
0.421986
0.422336
0.422991
0.423861
0.42486
0.425982
0.426083
0.426186
0.426587
0.426992
0.427811
0.428927
0.43031
0.431651
0.432148
0.432849
0.433934
0.435166
0.436531
0.437373
0.438692
0.440084
0.441979
0.443799
0.444865
0.446243
0.447943
0.45033
0.4558
0.464631
0.480437
0.496436
0.508371
0.511766
0.584408
0.981841
1.28738
0.421009
0.421186
0.421325
0.421427
0.421501
0.421558
0.421641
0.421772
0.421908
0.422059
0.42227
0.422556
0.422692
0.422688
0.422718
0.422869
0.423066
0.423119
0.423137
0.423251
0.423492
0.423516
0.423569
0.423682
0.423674
0.423672
0.423735
0.423677
0.423576
0.423589
0.423612
0.423542
0.423395
0.423277
0.423138
0.422901
0.422746
0.422641
0.422429
0.422126
0.422107
0.422183
0.421998
0.421758
0.421805
0.422001
0.422348
0.422907
0.423638
0.424369
0.42509
0.426097
0.426873
0.427439
0.428178
0.428772
0.428937
0.428975
0.429238
0.42941
0.429378
0.429501
0.430059
0.431035
0.431902
0.43265
0.433312
0.433973
0.434797
0.435518
0.436111
0.436771
0.438053
0.439584
0.440709
0.441572
0.442209
0.443114
0.444319
0.445876
0.446945
0.447684
0.449352
0.451049
0.452253
0.453399
0.454052
0.455346
0.4572
0.459253
0.462146
0.466052
0.474772
0.489756
0.5085
0.521678
0.527222
0.527403
0.586039
1.07265
0.429411
0.429339
0.4293
0.429328
0.429313
0.429199
0.429139
0.429076
0.428938
0.428885
0.428877
0.428788
0.42867
0.428644
0.428541
0.428465
0.42845
0.428348
0.428204
0.42818
0.428083
0.427855
0.427875
0.427857
0.427781
0.427711
0.427418
0.427354
0.427412
0.427257
0.427292
0.427364
0.4273
0.427358
0.427624
0.427825
0.428139
0.428606
0.429193
0.429884
0.43064
0.431509
0.432501
0.433524
0.434517
0.435517
0.436632
0.437517
0.438095
0.438786
0.439599
0.44033
0.440572
0.440575
0.440548
0.440682
0.440548
0.440378
0.440598
0.441447
0.442065
0.442626
0.443395
0.444428
0.445656
0.446732
0.447719
0.448539
0.449143
0.449863
0.450845
0.451727
0.452365
0.453085
0.454241
0.454879
0.455795
0.456958
0.457951
0.458917
0.459892
0.461057
0.46222
0.463659
0.465086
0.46586
0.467135
0.468504
0.469743
0.471417
0.47363
0.478349
0.48744
0.502882
0.521032
0.53222
0.537803
0.540755
0.541292
0.779704
0.442375
0.442465
0.44257
0.442665
0.442813
0.442959
0.443036
0.443145