/*--------------------------------*- C++ -*----------------------------------*\
  =========                 |
  \\      /  F ield         | OpenFOAM: The Open Source CFD Toolbox
   \\    /   O peration     | Website:  https://openfoam.org
    \\  /    A nd           | Version:  7
     \\/     M anipulation  |
\*---------------------------------------------------------------------------*/
FoamFile
{
    version     2.0;
    format      ascii;
    class       volScalarField;
    location    "1.5";
    object      p;
}
// * * * * * * * * * * * * * * * * * * * * * * * * * * * * * * * * * * * * * //

dimensions      [1 -1 -2 0 0 0 0];

internalField   nonuniform List<scalar> 
90000
(
0.51984
0.535286
0.552225
0.56921
0.586055
0.602616
0.619076
0.635258
0.65143
0.667316
0.683274
0.698905
0.714701
0.730057
0.745654
0.760656
0.77593
0.790442
0.805369
0.819303
0.833723
0.846803
0.860491
0.872431
0.885058
0.895549
0.906732
0.915377
0.924162
0.931267
0.937144
0.941551
0.947035
0.947553
0.947878
0.947066
0.945874
0.94306
0.938289
0.933331
0.924444
0.921706
0.921788
0.92356
0.92643
0.929033
0.932083
0.937344
0.941843
0.944684
0.944674
0.943762
0.94182
0.938558
0.936144
0.9349
0.93325
0.932276
0.932785
0.934811
0.938595
0.943077
0.945985
0.94585
0.944581
0.942531
0.941063
0.940313
0.940767
0.942619
0.946265
0.949389
0.950109
0.949536
0.948637
0.948318
0.948967
0.950929
0.954958
0.956875
0.957001
0.958472
0.962239
0.966986
0.971796
0.979405
0.994915
1.02031
1.04802
1.06969
1.07517
1.07801
1.08084
1.08249
1.0834
1.08523
1.08754
1.08944
1.09011
1.08932
0.507601
0.508106
0.509146
0.510814
0.51314
0.516213
0.519997
0.524604
0.529943
0.536212
0.543225
0.551269
0.560032
0.569902
0.580407
0.59212
0.60436
0.617832
0.631694
0.646833
0.662155
0.67863
0.695034
0.712443
0.729507
0.747216
0.76441
0.781614
0.798437
0.814091
0.830535
0.84394
0.858562
0.869734
0.881412
0.888997
0.897372
0.901942
0.906399
0.912849
0.92523
0.932774
0.939061
0.942317
0.94541
0.945336
0.944783
0.943685
0.942014
0.940195
0.938401
0.935693
0.934064
0.933315
0.932354
0.932786
0.934576
0.937488
0.94058
0.943153
0.943887
0.943429
0.942277
0.940916
0.940437
0.939583
0.939844
0.941854
0.944421
0.946635
0.947812
0.947408
0.947722
0.947498
0.947914
0.949214
0.950944
0.952592
0.954649
0.955107
0.955903
0.959041
0.963914
0.967867
0.971825
0.979453
0.994845
1.01875
1.04685
1.0698
1.07621
1.07902
1.08154
1.083
1.08368
1.08534
1.08755
1.08913
1.08995
1.08937
0.507339
0.507343
0.507334
0.507322
0.507309
0.507303
0.507322
0.507356
0.507383
0.507456
0.507617
0.507893
0.508294
0.508974
0.509894
0.511125
0.512698
0.514774
0.517363
0.520761
0.524916
0.530275
0.536569
0.544578
0.553733
0.565206
0.577936
0.593544
0.610331
0.630387
0.651456
0.675868
0.700872
0.728457
0.756427
0.784759
0.813659
0.840362
0.869288
0.889291
0.905172
0.913316
0.920635
0.924599
0.928743
0.929822
0.930524
0.930704
0.930793
0.929646
0.926069
0.925437
0.926755
0.930331
0.935208
0.941269
0.945622
0.947956
0.947376
0.945201
0.941735
0.937662
0.93452
0.933512
0.934518
0.938129
0.944361
0.949008
0.94888
0.947474
0.945424
0.943488
0.943963
0.946956
0.950514
0.952787
0.952345
0.951793
0.951634
0.953164
0.95718
0.9618
0.964651
0.967143
0.97122
0.979507
0.994277
1.01593
1.04475
1.06984
1.0769
1.0795
1.0819
1.08337
1.08418
1.0858
1.08803
1.0898
1.09068
1.08995
0.507269
0.507253
0.507232
0.507213
0.507193
0.507167
0.507142
0.507127
0.507117
0.507097
0.507084
0.50709
0.507171
0.507149
0.507104
0.507058
0.507025
0.506978
0.50692
0.506882
0.506914
0.507026
0.507215
0.507484
0.507869
0.508586
0.509678
0.511362
0.513683
0.517114
0.521616
0.52821
0.536468
0.548297
0.562252
0.581276
0.602528
0.629706
0.65921
0.693011
0.727188
0.760336
0.793136
0.818564
0.845642
0.861894
0.880536
0.889475
0.900651
0.90492
0.911919
0.92037
0.932753
0.939671
0.946351
0.950053
0.951047
0.950494
0.948275
0.943535
0.939295
0.933665
0.932651
0.935352
0.940439
0.945403
0.948386
0.950003
0.948842
0.946215
0.942774
0.943187
0.945997
0.949564
0.951357
0.952548
0.952147
0.951146
0.951847
0.954315
0.958188
0.961611
0.9639
0.966861
0.971608
0.979765
0.994223
1.016
1.0443
1.06926
1.07678
1.07952
1.08186
1.08312
1.08368
1.08512
1.08746
1.08934
1.09042
1.08993
0.507365
0.507366
0.507363
0.507349
0.507326
0.507299
0.507276
0.507271
0.507277
0.507269
0.507245
0.507213
0.507189
0.507178
0.507138
0.507077
0.507033
0.507012
0.506947
0.506873
0.506828
0.506813
0.506841
0.506873
0.506931
0.506851
0.50676
0.506708
0.506691
0.50669
0.506725
0.506839
0.507072
0.507606
0.508517
0.510145
0.512608
0.51691
0.522989
0.533318
0.546718
0.567761
0.59227
0.626121
0.661984
0.704264
0.746619
0.787378
0.828338
0.859692
0.893498
0.909773
0.922301
0.928637
0.935293
0.939001
0.940612
0.937765
0.928666
0.928806
0.931277
0.936151
0.94224
0.946774
0.948938
0.94713
0.945423
0.944246
0.942694
0.943017
0.944458
0.947739
0.950339
0.950219
0.948837
0.948607
0.949402
0.951458
0.954219
0.956181
0.957617
0.959389
0.962686
0.967444
0.972423
0.980125
0.994195
1.01528
1.04291
1.06873
1.07726
1.08026
1.08272
1.08359
1.08376
1.08497
1.08726
1.0892
1.09043
1.09019
0.507134
0.507134
0.50715
0.507152
0.50712
0.507087
0.507068
0.50705
0.507032
0.507013
0.506994
0.50697
0.506961
0.506986
0.506982
0.506935
0.506885
0.506861
0.50687
0.506841
0.506776
0.506734
0.506724
0.506732
0.506707
0.506641
0.506545
0.506499
0.506477
0.506448
0.506423
0.506422
0.506452
0.506423
0.506382
0.506365
0.506371
0.50643
0.50658
0.506913
0.507535
0.508876
0.511241
0.516069
0.523449
0.537208
0.555206
0.584571
0.617765
0.662356
0.707318
0.753521
0.797582
0.82833
0.859807
0.874452
0.892666
0.901564
0.90936
0.929167
0.939405
0.948675
0.954979
0.955016
0.953476
0.947055
0.936201
0.936386
0.937851
0.943208
0.94966
0.952899
0.952585
0.950574
0.947638
0.946881
0.94815
0.951839
0.955547
0.958245
0.957855
0.958389
0.961719
0.967392
0.97293
0.980353
0.994223
1.01636
1.04363
1.06754
1.07652
1.08004
1.08254
1.0832
1.08326
1.08441
1.08671
1.08884
1.0904
1.09047
0.506788
0.506782
0.50678
0.506779
0.50677
0.506767
0.506784
0.506777
0.506738
0.506711
0.506692
0.506679
0.506686
0.506687
0.506654
0.506624
0.506602
0.506582
0.506572
0.50659
0.506573
0.50649
0.506457
0.506454
0.50647
0.506454
0.506361
0.506307
0.506297
0.506311
0.50629
0.506208
0.506164
0.506164
0.506176
0.506187
0.506211
0.506257
0.50633
0.506305
0.506281
0.506288
0.506364
0.506517
0.506738
0.50729
0.508447
0.511049
0.515493
0.524946
0.538811
0.564787
0.596738
0.643809
0.692838
0.747802
0.80004
0.848485
0.891367
0.921313
0.932556
0.942107
0.948817
0.947929
0.939144
0.925409
0.927092
0.933469
0.943027
0.949651
0.951427
0.951311
0.948548
0.943677
0.944202
0.946284
0.951648
0.954105
0.954535
0.955981
0.956971
0.959273
0.963747
0.968192
0.971863
0.978523
0.993375
1.01855
1.04707
1.06825
1.07493
1.07913
1.08227
1.08309
1.08338
1.08459
1.0869
1.08876
1.09073
1.09072
0.506804
0.506805
0.506805
0.506807
0.506809
0.506808
0.5068
0.506801
0.506821
0.506804
0.506759
0.506748
0.506751
0.506744
0.506696
0.506655
0.50664
0.506628
0.506618
0.506624
0.506626
0.506575
0.506485
0.506455
0.506452
0.506471
0.506461
0.506415
0.506395
0.506402
0.506386
0.506315
0.506242
0.506213
0.506199
0.506195
0.506208
0.506227
0.506242
0.50624
0.50624
0.506287
0.506389
0.506465
0.506536
0.506618
0.506756
0.506986
0.507292
0.507712
0.508384
0.510024
0.513343
0.521395
0.534561
0.560698
0.594921
0.644871
0.702243
0.758522
0.809903
0.850365
0.879237
0.896633
0.907119
0.920323
0.941272
0.951966
0.955197
0.954622
0.950962
0.942962
0.939775
0.940305
0.944625
0.952089
0.956065
0.955644
0.953381
0.952992
0.955095
0.960611
0.966914
0.969528
0.971674
0.977014
0.992669
1.0181
1.04584
1.06632
1.07421
1.0795
1.08217
1.08307
1.08364
1.0849
1.08692
1.0885
1.09119
1.09093
0.506963
0.506962
0.506962
0.50696
0.506957
0.506956
0.506958
0.506964
0.506988
0.506984
0.506957
0.506947
0.506947
0.506955
0.506935
0.506884
0.506866
0.506866
0.506872
0.50685
0.506827
0.506821
0.506803
0.50676
0.506736
0.506728
0.506734
0.506769
0.506765
0.506711
0.506675
0.506646
0.506598
0.506531
0.506504
0.506498
0.506493
0.506488
0.506479
0.50647
0.506475
0.506538
0.506608
0.506628
0.506633
0.506637
0.506681
0.506825
0.507044
0.507225
0.507392
0.507584
0.507731
0.507903
0.508305
0.509648
0.513106
0.521533
0.538872
0.56689
0.616107
0.6729
0.740188
0.803667
0.871723
0.911791
0.936737
0.945489
0.950634
0.946348
0.929398
0.930486
0.935049
0.944478
0.952016
0.956574
0.955231
0.951836
0.949001
0.950667
0.956751
0.963372
0.967581
0.967896
0.969409
0.976346
0.993402
1.01728
1.04362
1.06566
1.07542
1.08069
1.08233
1.08321
1.08373
1.08485
1.08659
1.08823
1.09132
1.09095
0.506881
0.50688
0.506881
0.506883
0.50688
0.506874
0.506877
0.506889
0.506883
0.506874
0.506871
0.506892
0.506928
0.506923
0.506916
0.506923
0.506937
0.506922
0.50689
0.506873
0.506859
0.506847
0.506843
0.506852
0.506847
0.506831
0.506821
0.506835
0.506876
0.506865
0.506843
0.506822
0.506794
0.506779
0.506784
0.506819
0.506805
0.506748
0.506719
0.506712
0.506714
0.506731
0.50672
0.506683
0.506658
0.506641
0.506642
0.506687
0.506772
0.506912
0.507078
0.507257
0.507482
0.507531
0.507386
0.507177
0.507125
0.50725
0.507823
0.509732
0.515167
0.528366
0.554146
0.598339
0.657607
0.72998
0.796427
0.842927
0.884681
0.900517
0.910421
0.938083
0.947236
0.955191
0.956964
0.953479
0.945551
0.946186
0.948542
0.955365
0.961496
0.965966
0.964987
0.965357
0.968043
0.97807
0.994327
1.01421
1.04194
1.06604
1.07819
1.08209
1.08328
1.08368
1.08415
1.08513
1.08675
1.0887
1.09197
1.09147
0.506704
0.506697
0.506689
0.506692
0.506711
0.506709
0.506683
0.506656
0.506646
0.506638
0.506633
0.506643
0.506694
0.506706
0.506699
0.5067
0.506689
0.506662
0.506645
0.50663
0.506618
0.506609
0.506605
0.506614
0.506629
0.506633
0.506633
0.506649
0.506707
0.506751
0.506768
0.506781
0.506803
0.506816
0.506817
0.506848
0.506865
0.506816
0.506774
0.506766
0.506748
0.506721
0.506693
0.506666
0.506633
0.506588
0.506533
0.506487
0.506469
0.506515
0.506641
0.506823
0.507071
0.50728
0.507255
0.507079
0.506907
0.506855
0.506823
0.506807
0.506881
0.507328
0.508934
0.513779
0.52502
0.55188
0.594705
0.663631
0.738081
0.820442
0.888035
0.930978
0.941521
0.950922
0.946578
0.933488
0.935131
0.94287
0.955164
0.961346
0.963163
0.962563
0.961066
0.962838
0.968938
0.979838
0.992783
1.0118
1.04198
1.06882
1.08009
1.08091
1.08276
1.08411
1.08402
1.08441
1.08595
1.08844
1.092
1.09117
0.506872
0.506848
0.506818
0.506766
0.506701
0.506685
0.506676
0.506664
0.506646
0.506629
0.50661
0.50657
0.506495
0.506464
0.506449
0.506416
0.506386
0.506378
0.50637
0.506348
0.506332
0.506328
0.506329
0.506342
0.506359
0.506365
0.506391
0.506491
0.506579
0.506613
0.506636
0.506688
0.506759
0.506783
0.506782
0.506804
0.506837
0.506822
0.506819
0.506846
0.506841
0.50681
0.506768
0.506716
0.50666
0.506596
0.506507
0.50642
0.506373
0.506344
0.506361
0.506477
0.506666
0.506879
0.506991
0.507035
0.507045
0.507017
0.506955
0.50688
0.506856
0.506936
0.507232
0.507786
0.508596
0.510201
0.514712
0.526931
0.555447
0.607888
0.686132
0.768404
0.827515
0.886873
0.897097
0.92161
0.937771
0.955192
0.964466
0.963184
0.955104
0.955763
0.958956
0.964647
0.973267
0.980862
0.989963
1.01099
1.04561
1.07257
1.07748
1.0799
1.08304
1.08395
1.08397
1.08444
1.086
1.08865
1.09219
1.09104
0.507201
0.507173
0.507142
0.507106
0.507063
0.50702
0.506991
0.50697
0.506946
0.506916
0.506875
0.506835
0.506797
0.506738
0.506649
0.506598
0.506585
0.506569
0.506523
0.506464
0.506449
0.506452
0.506458
0.506448
0.506435
0.506432
0.50646
0.50655
0.506598
0.506588
0.506585
0.506623
0.506675
0.506692
0.506711
0.506756
0.506792
0.506818
0.506854
0.506923
0.506993
0.506985
0.50694
0.506868
0.50676
0.5066
0.506419
0.506297
0.50622
0.506173
0.506162
0.506226
0.506351
0.506513
0.506726
0.506975
0.507205
0.507325
0.50731
0.507215
0.507128
0.507102
0.507248
0.507774
0.508506
0.508927
0.50914
0.509531
0.51115
0.516614
0.535582
0.57191
0.6449
0.730704
0.813968
0.903694
0.932946
0.949337
0.96104
0.946006
0.940829
0.949096
0.962972
0.971333
0.975515
0.976303
0.984543
1.01141
1.04945
1.07018
1.07498
1.07988
1.08349
1.08398
1.08404
1.08468
1.08642
1.08966
1.09276
1.09099
0.507524
0.507508
0.507489
0.507468
0.507441
0.507412
0.507388
0.507367
0.507343
0.507313
0.507275
0.50723
0.50718
0.507125
0.507062
0.506992
0.506926
0.506864
0.506788
0.506717
0.506682
0.50666
0.506638
0.506619
0.506598
0.506582
0.506588
0.506599
0.506608
0.50662
0.506588
0.506535
0.506532
0.506557
0.506601
0.506665
0.506729
0.506782
0.506839
0.506921
0.507028
0.507124
0.507135
0.507107
0.507073
0.507007
0.5069
0.506764
0.506603
0.506437
0.506329
0.50627
0.506241
0.506321
0.506556
0.506917
0.507289
0.507588
0.507735
0.507684
0.507565
0.507538
0.507592
0.507893
0.508424
0.50887
0.509068
0.509102
0.509079
0.509175
0.509794
0.512601
0.524079
0.549775
0.61285
0.690973
0.782969
0.847426
0.903707
0.913085
0.941445
0.960972
0.970129
0.974337
0.967103
0.968671
0.981898
1.01647
1.05186
1.06668
1.07449
1.08127
1.08372
1.08357
1.08413
1.08523
1.08744
1.09108
1.0928
1.09074
0.507752
0.507754
0.50775
0.507744
0.507737
0.50773
0.507724
0.507716
0.507703
0.507687
0.507667
0.507637
0.507601
0.50757
0.507545
0.507513
0.507463
0.507404
0.507342
0.507264
0.507174
0.507124
0.507107
0.50709
0.507055
0.506966
0.506841
0.506801
0.506783
0.506754
0.5067
0.50666
0.506658
0.506679
0.506706
0.506702
0.506696
0.506711
0.506746
0.506817
0.506934
0.507054
0.507113
0.507122
0.507134
0.507118
0.50705
0.506963
0.506866
0.506735
0.506559
0.506442
0.506378
0.506359
0.506514
0.506934
0.507392
0.507862
0.508151
0.508091
0.507912
0.507876
0.5079
0.508022
0.508319
0.508737
0.508968
0.508927
0.508891
0.508889
0.508943
0.50918
0.509847
0.511664
0.519035
0.537048
0.589307
0.669724
0.76469
0.859412
0.931162
0.952477
0.96535
0.959223
0.949629
0.961252
0.989317
1.02286
1.04761
1.06221
1.07471
1.08172
1.08187
1.08272
1.08418
1.08659
1.08871
1.09095
1.09227
1.09058
0.507751
0.507742
0.507735
0.507729
0.507724
0.50772
0.507714
0.507711
0.507712
0.507716
0.507729
0.50775
0.507761
0.507766
0.507779
0.507806
0.507807
0.507793
0.507775
0.507754
0.50772
0.507657
0.507573
0.507493
0.507418
0.507333
0.507242
0.507164
0.507097
0.507033
0.506959
0.506864
0.506757
0.506718
0.506716
0.50671
0.506701
0.506703
0.506714
0.506741
0.506813
0.506955
0.507072
0.507109
0.507131
0.507163
0.507136
0.507056
0.507012
0.506957
0.506806
0.506613
0.506525
0.506486
0.506524
0.506825
0.507433
0.508047
0.50835
0.508274
0.508054
0.507997
0.508003
0.508049
0.508185
0.508458
0.508742
0.508936
0.50905
0.509131
0.509236
0.509433
0.509877
0.510438
0.511066
0.512177
0.516716
0.533011
0.571977
0.656675
0.750023
0.832861
0.895608
0.923855
0.941496
0.977876
1.0053
1.01819
1.03888
1.06067
1.0779
1.07961
1.08051
1.08236
1.08584
1.08825
1.08999
1.09054
1.09191
1.0908
0.507766
0.507844
0.507851
0.507832
0.507821
0.507818
0.507818
0.507823
0.507831
0.507843
0.50787
0.507927
0.507976
0.507986
0.507988
0.508
0.508031
0.508032
0.508017
0.508
0.507983
0.507949
0.507876
0.507786
0.507696
0.507606
0.507503
0.507407
0.507323
0.507232
0.507133
0.507013
0.506848
0.506748
0.506729
0.506718
0.506694
0.50668
0.506676
0.506689
0.506747
0.50689
0.50702
0.507068
0.507097
0.507171
0.507239
0.507218
0.507178
0.507118
0.50699
0.506752
0.506592
0.506533
0.506528
0.50668
0.507208
0.507933
0.508287
0.508223
0.508024
0.507967
0.507965
0.507985
0.50806
0.508228
0.508544
0.508884
0.509092
0.509245
0.509414
0.509654
0.510013
0.510514
0.511103
0.511613
0.512161
0.513244
0.516594
0.531466
0.567116
0.646884
0.749776
0.875707
0.932078
0.968243
0.989802
0.999168
1.029
1.06562
1.07849
1.07811
1.0798
1.08448
1.08789
1.08909
1.08863
1.08999
1.09256
1.09154
0.507743
0.50782
0.507834
0.507821
0.507807
0.507802
0.507801
0.507803
0.507807
0.507815
0.50784
0.507908
0.507948
0.507942
0.507936
0.507945
0.507972
0.507976
0.507956
0.50792
0.507879
0.507832
0.507771
0.507711
0.507648
0.507567
0.507469
0.507378
0.507297
0.5072
0.507096
0.507003
0.506913
0.506819
0.506739
0.506682
0.506635
0.506599
0.506581
0.506582
0.506621
0.506749
0.506893
0.506962
0.507009
0.507098
0.507172
0.507179
0.507151
0.507087
0.506984
0.506816
0.506628
0.506522
0.50647
0.506529
0.50691
0.507526
0.507953
0.507956
0.507829
0.507795
0.507796
0.507814
0.507924
0.508245
0.508658
0.509001
0.509212
0.509407
0.50968
0.510014
0.510386
0.510797
0.51123
0.511595
0.51206
0.512588
0.513243
0.514414
0.517727
0.529565
0.570662
0.64909
0.758267
0.856634
0.909179
0.967776
1.04055
1.07495
1.07363
1.07675
1.08318
1.08845
1.08946
1.08688
1.0873
1.09031
1.0935
1.0921
0.507409
0.507442
0.507473
0.507498
0.50752
0.507537
0.507551
0.507561
0.507575
0.507616
0.507712
0.507778
0.50777
0.507756
0.507754
0.507757
0.507763
0.507766
0.507776
0.507805
0.507793
0.507732
0.50765
0.507579
0.507513
0.507449
0.507379
0.507297
0.507201
0.507099
0.507014
0.506962
0.506929
0.506882
0.506812
0.506731
0.506634
0.506507
0.506441
0.506406
0.506387
0.506394
0.506437
0.506543
0.506683
0.506836
0.506975
0.507052
0.507047
0.50698
0.506861
0.506802
0.506737
0.506604
0.506485
0.506497
0.506712
0.507141
0.507546
0.507778
0.507852
0.507893
0.507943
0.508011
0.508164
0.508463
0.50887
0.509212
0.509415
0.509592
0.509876
0.51025
0.510592
0.510873
0.51113
0.511473
0.511881
0.512399
0.513198
0.514393
0.515794
0.517504
0.521603
0.53418
0.581003
0.651934
0.778309
0.9225
1.03602
1.0497
1.05931
1.07697
1.08853
1.08981
1.08537
1.08459
1.08695
1.09267
1.09376
1.09218
0.506815
0.50686
0.506911
0.506958
0.506999
0.507037
0.507071
0.507098
0.50712
0.507155
0.507239
0.507341
0.507359
0.507354
0.507362
0.507383
0.507402
0.507414
0.507452
0.507557
0.507576
0.507504
0.507338
0.507181
0.507155
0.507163
0.507168
0.50715
0.507088
0.506996
0.506917
0.506885
0.506873
0.506843
0.50679
0.506718
0.506594
0.506323
0.506143
0.506108
0.506081
0.506065
0.506074
0.506122
0.506223
0.50634
0.506473
0.506633
0.506724
0.506717
0.506688
0.50669
0.506692
0.50657
0.506369
0.506351
0.506551
0.506952
0.507396
0.507673
0.507785
0.507862
0.507964
0.5081
0.50831
0.508616
0.509019
0.509292
0.509437
0.50955
0.509809
0.510198
0.51054
0.510771
0.510988
0.511311
0.511857
0.512634
0.513522
0.514573
0.516057
0.517833
0.519872
0.52163
0.525797
0.53819
0.589241
0.69896
0.873178
0.973676
1.04996
1.09102
1.09176
1.08366
1.08089
1.08447
1.09169
1.09552
1.09418
1.09249
0.506548
0.506584
0.506626
0.506663
0.50668
0.506682
0.506683
0.506695
0.506683
0.506661
0.506654
0.506659
0.506691
0.506735
0.506727
0.506728
0.506742
0.506755
0.506755
0.506772
0.506806
0.506717
0.506542
0.506512
0.506512
0.506522
0.506564
0.506644
0.506677
0.506667
0.506695
0.506768
0.506812
0.506794
0.506741
0.506686
0.506597
0.506346
0.506201
0.506178
0.506128
0.506081
0.506093
0.506107
0.506045
0.506035
0.506096
0.506199
0.506311
0.506369
0.506373
0.506404
0.506507
0.506477
0.506432
0.506503
0.506894
0.507192
0.507305
0.50757
0.507759
0.507883
0.508032
0.508232
0.508469
0.508703
0.508978
0.509217
0.509277
0.509306
0.509548
0.51003
0.510442
0.510695
0.511023
0.51157
0.512302
0.51309
0.513886
0.514873
0.516216
0.517929
0.51977
0.52135
0.522504
0.523523
0.5286
0.555193
0.648162
0.845767
1.02157
1.08481
1.07794
1.06721
1.07669
1.09071
1.09562
1.09334
1.09254
1.09312
0.50654
0.506534
0.506532
0.506536
0.506541
0.506518
0.506444
0.50642
0.506396
0.50638
0.506383
0.506369
0.506324
0.506219
0.506145
0.506131
0.506141
0.506158
0.506172
0.506207
0.50621
0.506096
0.506005
0.506001
0.506082
0.506154
0.506142
0.506085
0.506088
0.506115
0.50618
0.506355
0.506568
0.50665
0.506619
0.506548
0.506445
0.506268
0.506075
0.505962
0.505868
0.50582
0.505837
0.505859
0.505776
0.505731
0.505765
0.505832
0.50594
0.506034
0.50604
0.50608
0.506255
0.506347
0.506438
0.50667
0.507117
0.507397
0.507456
0.507484
0.507635
0.507879
0.508077
0.508261
0.508447
0.508612
0.508782
0.508857
0.508916
0.509033
0.50932
0.509835
0.510393
0.510916
0.511421
0.512055
0.512805
0.513495
0.514205
0.515117
0.516273
0.517629
0.519389
0.52109
0.522348
0.522956
0.524181
0.527308
0.546308
0.626844
0.786902
0.95014
1.02117
1.05903
1.09328
1.09741
1.09066
1.08934
1.09256
1.09529
0.506937
0.506939
0.50694
0.506947
0.506991
0.507054
0.507046
0.507024
0.507027
0.50702
0.506976
0.506938
0.506908
0.506851
0.506628
0.506362
0.506329
0.50635
0.506467
0.506618
0.506632
0.506533
0.506298
0.506251
0.506332
0.506409
0.506366
0.50611
0.505647
0.505461
0.505454
0.505453
0.50549
0.50567
0.505997
0.506154
0.506061
0.505985
0.506009
0.506123
0.506117
0.506015
0.506012
0.506086
0.506081
0.506051
0.506049
0.506012
0.505963
0.505952
0.505998
0.506145
0.506424
0.506513
0.506608
0.506862
0.507238
0.507413
0.507483
0.50751
0.507573
0.507786
0.508002
0.508152
0.508223
0.508265
0.508392
0.50857
0.508745
0.508991
0.509427
0.510135
0.510849
0.511412
0.511883
0.512436
0.513115
0.513825
0.514439
0.515019
0.515889
0.517261
0.519144
0.521003
0.522238
0.523132
0.52397
0.526816
0.532761
0.5504
0.608472
0.742453
0.935123
1.04054
1.08703
1.08311
1.07514
1.08533
1.09712
1.0965
0.506465
0.506458
0.506459
0.506481
0.50657
0.506627
0.506601
0.506585
0.506595
0.50657
0.506477
0.506445
0.506432
0.506388
0.506219
0.505872
0.505782
0.505799
0.505889
0.506144
0.506354
0.506369
0.506196
0.506069
0.506128
0.506161
0.505973
0.505428
0.504652
0.504095
0.503995
0.503998
0.504061
0.504229
0.504339
0.504484
0.504694
0.504951
0.505357
0.505762
0.50583
0.505787
0.505802
0.505978
0.506091
0.506194
0.506239
0.506217
0.506195
0.50611
0.506003
0.506071
0.506379
0.506449
0.506528
0.506843
0.507179
0.507243
0.507328
0.507387
0.507383
0.507435
0.507472
0.507483
0.507476
0.507605
0.50799
0.508456
0.508953
0.509417
0.509996
0.510727
0.51133
0.511706
0.512107
0.512565
0.513176
0.51383
0.514216
0.514725
0.515652
0.517194
0.519177
0.52127
0.522727
0.523481
0.524364
0.526578
0.531791
0.543421
0.560353
0.606126
0.705221
0.8499
0.990212
1.02881
1.06651
1.09922
1.1008
1.09247
0.50272
0.502772
0.502932
0.503166
0.503275
0.503288
0.503233
0.503121
0.50315
0.50338
0.503507
0.50363
0.503718
0.503688
0.503474
0.503153
0.50309
0.503099
0.503178
0.503619
0.503949
0.503956
0.504009
0.504255
0.50447
0.504418
0.504212
0.504046
0.503916
0.503808
0.503784
0.503848
0.504033
0.504102
0.503982
0.503688
0.503612
0.503693
0.504067
0.504818
0.505229
0.505212
0.505162
0.50527
0.505589
0.505931
0.506052
0.506053
0.50601
0.505872
0.505791
0.505979
0.506264
0.506231
0.506143
0.506198
0.506164
0.506124
0.506356
0.506579
0.506588
0.506764
0.507021
0.507105
0.507178
0.507343
0.507842
0.508677
0.509379
0.509816
0.510261
0.510909
0.511503
0.511834
0.512129
0.51249
0.513091
0.513541
0.51399
0.51468
0.515691
0.517493
0.519896
0.522159
0.52331
0.523775
0.524487
0.52618
0.53064
0.540255
0.558239
0.579422
0.607502
0.675524
0.788347
0.940924
1.04818
1.0927
1.08783
1.08327
0.498954
0.499176
0.499507
0.499778
0.49993
0.499964
0.499934
0.499856
0.499941
0.500482
0.501065
0.501305
0.501427
0.501628
0.501776
0.501739
0.501654
0.501652
0.501746
0.502186
0.502459
0.50262
0.50289
0.503071
0.502904
0.502583
0.502544
0.502627
0.502883
0.502986
0.502931
0.502834
0.502727
0.502544
0.502138
0.50162
0.5015
0.501558
0.501873
0.502527
0.502833
0.502741
0.502479
0.502475
0.502638
0.503021
0.503715
0.504555
0.504753
0.504504
0.503959
0.503686
0.503575
0.503539
0.503615
0.503809
0.503922
0.504017
0.504357
0.50498
0.505608
0.506323
0.506924
0.507077
0.50722
0.507595
0.508147
0.50888
0.5095
0.509861
0.510233
0.510769
0.511382
0.51172
0.511699
0.511757
0.512108
0.512854
0.513798
0.514865
0.516475
0.518713
0.521017
0.52293
0.523621
0.523888
0.524306
0.525745
0.529264
0.537767
0.555437
0.579121
0.597132
0.610249
0.641948
0.72826
0.858146
0.982443
1.03581
1.08114
0.502088
0.502157
0.50213
0.501882
0.50178
0.501783
0.501825
0.502069
0.502633
0.503225
0.503287
0.503239
0.503322
0.503695
0.504395
0.504805
0.504896
0.504882
0.504879
0.504844
0.504814
0.504984
0.505495
0.5056
0.505285
0.504083
0.503498
0.503412
0.503414
0.503351
0.503177
0.503067
0.502947
0.502674
0.502101
0.501591
0.501605
0.502018
0.502362
0.502314
0.502138
0.50183
0.500745
0.49987
0.499858
0.500016
0.50087
0.501886
0.501998
0.501921
0.501638
0.501316
0.501263
0.501298
0.501669
0.502287
0.50273
0.503096
0.503533
0.504024
0.504532
0.505032
0.505646
0.506343
0.506951
0.5075
0.507997
0.508387
0.508653
0.508624
0.508624
0.508842
0.509501
0.50998
0.510142
0.51037
0.511026
0.512305
0.514073
0.51588
0.517775
0.519757
0.521663
0.523181
0.523849
0.5237
0.523873
0.525021
0.528365
0.536097
0.552288
0.576608
0.597561
0.606395
0.610284
0.624009
0.676318
0.788452
0.948537
1.06962
0.506691
0.506712
0.506616
0.506306
0.506279
0.506434
0.506516
0.506238
0.504948
0.503539
0.502582
0.502163
0.5022
0.502444
0.503289
0.504848
0.505303
0.505271
0.505444
0.505565
0.505391
0.505451
0.505805
0.505943
0.50544
0.503828
0.503486
0.503377
0.502671
0.501005
0.499661
0.499373
0.499309
0.499129
0.49885
0.498814
0.499138
0.500379
0.501737
0.501847
0.501674
0.501515
0.500761
0.498922
0.498272
0.498363
0.499392
0.500224
0.500259
0.500235
0.500348
0.500598
0.501022
0.501733
0.501954
0.501904
0.50196
0.502347
0.503331
0.503854
0.503854
0.50372
0.503784
0.504408
0.505494
0.505806
0.505549
0.505366
0.505366
0.505428
0.505765
0.506448
0.507252
0.507979
0.508403
0.508942
0.510041
0.512246
0.514684
0.516438
0.517995
0.519649
0.521475
0.522892
0.523002
0.522929
0.523235
0.524604
0.527847
0.535141
0.549751
0.572139
0.593972
0.6051
0.609653
0.61244
0.61855
0.649086
0.725884
0.914465
0.51442
0.513949
0.513667
0.513657
0.513965
0.514545
0.514603
0.514054
0.512437
0.510475
0.508993
0.508313
0.508107
0.508037
0.508052
0.508366
0.509239
0.51022
0.51094
0.511387
0.511516
0.51146
0.511361
0.511282
0.510873
0.50882
0.507993
0.508152
0.507401
0.504519
0.502562
0.502205
0.502302
0.502507
0.502493
0.502564
0.50275
0.503206
0.504631
0.506925
0.508669
0.508881
0.508146
0.506275
0.505774
0.506263
0.506389
0.505664
0.504129
0.503867
0.503891
0.504237
0.505505
0.507303
0.507606
0.507005
0.506646
0.506831
0.507187
0.507099
0.506194
0.504792
0.50449
0.504646
0.505148
0.504964
0.504254
0.504082
0.504224
0.504528
0.505048
0.50579
0.506577
0.507351
0.508303
0.509699
0.511715
0.513605
0.514935
0.516133
0.517239
0.518475
0.519921
0.520846
0.521247
0.521723
0.522715
0.524774
0.527996
0.53476
0.547322
0.566346
0.586541
0.602251
0.610388
0.614127
0.616629
0.619966
0.631565
0.743999
0.541503
0.542045
0.542615
0.542631
0.542403
0.542246
0.541407
0.539387
0.538814
0.538241
0.537233
0.537058
0.53682
0.535549
0.53468
0.534741
0.535651
0.536543
0.536942
0.536943
0.536363
0.535704
0.535809
0.53678
0.537079
0.536324
0.535142
0.534855
0.534079
0.531758
0.529265
0.528701
0.528736
0.528652
0.527644
0.525559
0.524198
0.523018
0.522734
0.523107
0.523156
0.522999
0.522855
0.521688
0.520437
0.520448
0.520324
0.519512
0.51727
0.515163
0.513588
0.512627
0.512458
0.512377
0.511789
0.509627
0.508329
0.508496
0.50863
0.508042
0.506157
0.504095
0.503887
0.504212
0.504688
0.504519
0.50404
0.503953
0.50425
0.50493
0.505777
0.506862
0.508365
0.509976
0.511602
0.513279
0.514216
0.51434
0.51431
0.514462
0.515038
0.516371
0.51796
0.518995
0.519746
0.520549
0.522016
0.524543
0.527516
0.532733
0.543046
0.559229
0.579878
0.598984
0.611704
0.616141
0.617789
0.619442
0.621024
0.647627
0.57338
0.573208
0.572789
0.572261
0.57227
0.572671
0.572768
0.571344
0.568498
0.567845
0.566217
0.562521
0.561461
0.561093
0.560009
0.559623
0.560101
0.559932
0.558205
0.557645
0.557713
0.557689
0.557597
0.557855
0.55798
0.557318
0.556938
0.557159
0.55695
0.55544
0.553492
0.553284
0.553254
0.55249
0.551831
0.552074
0.552019
0.549898
0.544936
0.542984
0.542264
0.541488
0.54019
0.537771
0.533916
0.530863
0.530467
0.530615
0.530528
0.529988
0.529391
0.528549
0.526959
0.525411
0.524334
0.523143
0.521374
0.518933
0.517564
0.517502
0.51779
0.517602
0.517227
0.5166
0.515046
0.513731
0.513733
0.514331
0.515519
0.516056
0.516285
0.516134
0.515871
0.515859
0.516273
0.516552
0.516057
0.514443
0.513655
0.513933
0.514811
0.516393
0.518114
0.519272
0.520325
0.521784
0.523931
0.525792
0.527718
0.530764
0.537818
0.551261
0.573174
0.596731
0.611266
0.615719
0.618549
0.61989
0.621034
0.625445
0.618031
0.618257
0.618159
0.617631
0.616914
0.61686
0.617208
0.617491
0.61751
0.617292
0.616385
0.614489
0.611851
0.610504
0.610532
0.610605
0.609968
0.608067
0.607527
0.607613
0.607035
0.604982
0.602819
0.600726
0.598708
0.598488
0.599009
0.59877
0.597263
0.595214
0.593731
0.59274
0.59158
0.58987
0.589315
0.589633
0.589414
0.587261
0.585105
0.583587
0.58224
0.582019
0.58193
0.581417
0.579717
0.576176
0.573647
0.572824
0.57145
0.567783
0.566086
0.564725
0.562563
0.560701
0.56018
0.559809
0.557931
0.553716
0.550793
0.548891
0.546987
0.544698
0.542558
0.540388
0.53767
0.534259
0.531161
0.529137
0.527653
0.52621
0.524337
0.522189
0.520015
0.518003
0.516542
0.516413
0.516225
0.516172
0.516571
0.517046
0.517998
0.520111
0.522399
0.524246
0.525596
0.525676
0.525943
0.525901
0.52664
0.529221
0.534829
0.545614
0.565582
0.591433
0.608272
0.616469
0.620508
0.623324
0.624104
0.626091
0.663276
0.662197
0.661027
0.660331
0.659577
0.659426
0.660241
0.660896
0.660745
0.660255
0.659249
0.656585
0.653645
0.65294
0.653136
0.653699
0.653645
0.653125
0.652081
0.651589
0.650989
0.649814
0.648858
0.647966
0.646886
0.646681
0.646815
0.646761
0.645767
0.64385
0.642214
0.639648
0.638592
0.638324
0.637709
0.635866
0.632462
0.628857
0.626055
0.621977
0.618489
0.618119
0.617647
0.614548
0.611645
0.611801
0.611649
0.610433
0.607694
0.605075
0.604026
0.602196
0.596779
0.591609
0.589667
0.587936
0.584465
0.580071
0.578267
0.577363
0.57529
0.570885
0.566197
0.562866
0.560304
0.557606
0.555031
0.553244
0.551022
0.548394
0.54474
0.541167
0.539856
0.538254
0.535862
0.534385
0.534186
0.535365
0.536175
0.535356
0.534859
0.534696
0.534093
0.533272
0.531696
0.528933
0.526375
0.525779
0.52661
0.529422
0.534942
0.545007
0.560663
0.581917
0.600472
0.613209
0.621765
0.627995
0.629541
0.630179
0.71934
0.718951
0.718477
0.718045
0.717621
0.716991
0.716855
0.716755
0.715636
0.714203
0.713909
0.712963
0.710001
0.709031
0.709145
0.708504
0.706271
0.705831
0.705781
0.705342
0.703525
0.699684
0.69844
0.698543
0.698348
0.697154
0.695115
0.693806
0.69287
0.691723
0.689987