/*--------------------------------*- C++ -*----------------------------------*\
  =========                 |
  \\      /  F ield         | OpenFOAM: The Open Source CFD Toolbox
   \\    /   O peration     | Website:  https://openfoam.org
    \\  /    A nd           | Version:  7
     \\/     M anipulation  |
\*---------------------------------------------------------------------------*/
FoamFile
{
    version     2.0;
    format      ascii;
    class       volScalarField;
    location    "5";
    object      rho;
}
// * * * * * * * * * * * * * * * * * * * * * * * * * * * * * * * * * * * * * //

dimensions      [1 -3 0 0 0 0 0];

internalField   nonuniform List<scalar> 
90000
(
0.972005
0.983232
0.996017
1.00841
1.02008
1.03138
1.04333
1.05441
1.06617
1.07867
1.0928
1.10725
1.12267
1.13817
1.15419
1.16982
1.18555
1.20075
1.21597
1.23046
1.2449
1.25844
1.27187
1.28418
1.29648
1.30726
1.31768
1.32713
1.33509
1.34194
1.34905
1.35262
1.35536
1.35885
1.35907
1.35862
1.35724
1.35492
1.35115
1.34616
1.34011
1.33502
1.33224
1.33334
1.33621
1.34028
1.34464
1.34851
1.34978
1.35194
1.35254
1.3518
1.35061
1.34895
1.34623
1.34323
1.34079
1.34093
1.34201
1.34441
1.34807
1.34965
1.35216
1.35209
1.35098
1.34918
1.34648
1.3464
1.34717
1.34923
1.35011
1.35146
1.35158
1.35117
1.351
1.35142
1.35234
1.35247
1.35303
1.35366
1.35371
1.35398
1.3543
1.35458
1.35504
1.35512
1.35521
1.35548
1.3557
1.35595
1.35595
1.35612
1.35645
1.35688
1.35731
1.35763
1.35781
1.35776
1.35767
1.35753
0.96388
0.964449
0.965668
0.967654
0.970228
0.973249
0.977212
0.981909
0.987247
0.993121
0.999988
1.00751
1.01599
1.02521
1.03558
1.0468
1.05902
1.07205
1.08615
1.1007
1.11647
1.13222
1.14898
1.16581
1.18257
1.20011
1.21638
1.23332
1.24895
1.26468
1.27862
1.29202
1.30429
1.31496
1.32192
1.33149
1.33629
1.33866
1.33997
1.34612
1.35407
1.359
1.36114
1.36151
1.36088
1.35902
1.35666
1.35417
1.35159
1.35002
1.34963
1.34945
1.34972
1.35052
1.35168
1.35362
1.35428
1.35494
1.35453
1.35358
1.35204
1.35114
1.35072
1.35097
1.35103
1.35218
1.35417
1.35502
1.35451
1.35318
1.3522
1.35188
1.3529
1.35522
1.35661
1.35613
1.35488
1.35352
1.35405
1.35582
1.35721
1.35697
1.35616
1.35621
1.35689
1.35763
1.35784
1.35758
1.35721
1.35739
1.35785
1.35818
1.35835
1.35853
1.35873
1.35887
1.35917
1.35929
1.35932
1.35923
0.965322
0.965369
0.965416
0.965472
0.965545
0.965635
0.965755
0.965923
0.966151
0.966452
0.966862
0.967384
0.968198
0.969303
0.970749
0.972526
0.974812
0.977595
0.981159
0.985445
0.990863
0.997242
1.0052
1.01437
1.02551
1.0382
1.05312
1.06968
1.08895
1.10895
1.13207
1.15626
1.18059
1.20737
1.23273
1.25803
1.28143
1.30597
1.32547
1.34079
1.34999
1.35592
1.35879
1.3607
1.36035
1.35994
1.35881
1.3579
1.35649
1.35414
1.35258
1.3539
1.35669
1.36083
1.36477
1.3682
1.36813
1.36683
1.36351
1.3596
1.35544
1.35267
1.35117
1.35273
1.35696
1.3613
1.36408
1.36336
1.36106
1.35843
1.35631
1.35728
1.35941
1.36235
1.36269
1.36174
1.35988
1.35942
1.36001
1.36129
1.36185
1.36151
1.36102
1.36113
1.3615
1.36197
1.36187
1.3617
1.36174
1.36199
1.362
1.36194
1.36204
1.36223
1.36242
1.36245
1.36229
1.36233
1.36231
1.36225
0.968133
0.968177
0.968216
0.968235
0.96825
0.968275
0.968321
0.968387
0.968461
0.96855
0.968649
0.96881
0.968866
0.968934
0.969008
0.969089
0.969185
0.969304
0.969459
0.969664
0.969936
0.970299
0.970791
0.971477
0.972663
0.974275
0.976599
0.979588
0.983846
0.989346
0.996924
1.00635
1.01941
1.03422
1.05403
1.0762
1.10311
1.13164
1.16434
1.197
1.22747
1.25785
1.2804
1.30442
1.31802
1.33259
1.33842
1.34611
1.34833
1.35314
1.3591
1.36705
1.37115
1.37475
1.37634
1.37599
1.37518
1.3726
1.36908
1.36641
1.36399
1.36291
1.36445
1.36662
1.36891
1.36855
1.36794
1.36701
1.36598
1.36591
1.36665
1.36782
1.36806
1.368
1.36758
1.36719
1.3669
1.36693
1.36678
1.36675
1.36687
1.36706
1.36687
1.36708
1.36717
1.36745
1.36772
1.36761
1.36721
1.36686
1.36671
1.36682
1.36704
1.36715
1.36704
1.36677
1.36644
1.36652
1.36675
1.36682
0.970804
0.970837
0.970879
0.970894
0.970902
0.970918
0.970948
0.970988
0.971029
0.971065
0.971091
0.971103
0.971131
0.971141
0.971142
0.971147
0.971168
0.971212
0.971275
0.971352
0.971442
0.971558
0.971711
0.971952
0.972045
0.972124
0.97221
0.972313
0.972453
0.972661
0.972999
0.973543
0.974535
0.976057
0.978572
0.982222
0.988222
0.996301
1.00913
1.02511
1.04856
1.0752
1.10989
1.14604
1.18593
1.22511
1.26003
1.29447
1.31955
1.34453
1.35517
1.36327
1.36741
1.37089
1.37286
1.37257
1.36944
1.36298
1.36379
1.36625
1.3713
1.37569
1.37792
1.37682
1.37396
1.37001
1.36751
1.36732
1.3685
1.37174
1.37494
1.37492
1.37371
1.3713
1.37022
1.37074
1.37254
1.37315
1.37252
1.37123
1.3708
1.37117
1.37191
1.37225
1.37191
1.37161
1.37186
1.37232
1.37239
1.37205
1.37164
1.37146
1.37148
1.3714
1.37113
1.37078
1.37054
1.37058
1.37074
1.37083
0.97271
0.97272
0.972734
0.972747
0.972751
0.97275
0.97276
0.972768
0.972773
0.972784
0.972806
0.972811
0.972804
0.9728
0.97281
0.972844
0.972844
0.972823
0.972821
0.972819
0.972813
0.972814
0.972834
0.972855
0.972864
0.972886
0.972922
0.972966
0.973016
0.973076
0.973162
0.973298
0.973339
0.973387
0.973408
0.973442
0.973549
0.973783
0.974291
0.975338
0.977581
0.981426
0.988732
0.999382
1.01741
1.04002
1.07331
1.10957
1.15381
1.19682
1.2366
1.27236
1.29667
1.31868
1.33057
1.3425
1.34749
1.3581
1.36827
1.37687
1.38281
1.38398
1.38349
1.38034
1.37482
1.37094
1.36797
1.36916
1.3725
1.37719
1.37806
1.37753
1.37591
1.37357
1.37227
1.37333
1.37507
1.37606
1.37546
1.3741
1.37322
1.3735
1.3743
1.37491
1.37537
1.37496
1.37451
1.37459
1.37471
1.3747
1.37466
1.37467
1.37459
1.3745
1.3741
1.37354
1.37351
1.37353
1.37385
1.37401
0.973962
0.973957
0.973951
0.973946
0.97395
0.973949
0.973935
0.973922
0.973916
0.973916
0.97392
0.973913
0.973908
0.973907
0.97392
0.973938
0.973947
0.973945
0.973935
0.973929
0.973936
0.973947
0.973928
0.973902
0.973887
0.973885
0.97387
0.973855
0.973842
0.973799
0.973739
0.97371
0.973711
0.973709
0.973676
0.973652
0.973649
0.973654
0.973611
0.973548
0.973459
0.973407
0.973462
0.973719
0.974617
0.97661
0.981112
0.988872
1.00371
1.0243
1.05722
1.09546
1.14364
1.19125
1.23857
1.28138
1.31677
1.34766
1.36151
1.37051
1.37599
1.37801
1.37445
1.36362
1.36419
1.36756
1.37298
1.37709
1.37871
1.37847
1.37693
1.37358
1.37273
1.37316
1.37505
1.37687
1.37643
1.37583
1.375
1.37508
1.37514
1.37534
1.37523
1.37502
1.37523
1.37592
1.37654
1.37647
1.37617
1.37583
1.37597
1.37603
1.37588
1.37556
1.37521
1.37486
1.37491
1.37508
1.37533
1.37556
0.97433
0.974312
0.974283
0.974272
0.97427
0.974275
0.974274
0.974253
0.974218
0.974208
0.974201
0.974191
0.974182
0.974175
0.974172
0.974167
0.974163
0.974169
0.974167
0.974158
0.974161
0.97416
0.974142
0.974127
0.974111
0.974083
0.974039
0.973987
0.973947
0.973898
0.973851
0.973831
0.973825
0.973797
0.97375
0.973724
0.973715
0.973683
0.973634
0.97357
0.973483
0.97338
0.973242
0.973132
0.973033
0.97284
0.972786
0.972871
0.973399
0.974915
0.978631
0.985945
1.00023
1.02254
1.05734
1.09968
1.15253
1.20221
1.2496
1.28607
1.31202
1.33065
1.34186
1.35218
1.36739
1.37901
1.38461
1.38403
1.38191
1.37437
1.36839
1.36888
1.37117
1.37546
1.37936
1.37907
1.3773
1.37417
1.37409
1.37492
1.37648
1.37652
1.37603
1.37495
1.37499
1.37571
1.37652
1.37647
1.3765
1.37659
1.37688
1.37684
1.3765
1.37604
1.37555
1.37544
1.37551
1.37575
1.3761
1.37629
0.974405
0.974384
0.974377
0.974376
0.97438
0.974381
0.974372
0.97435
0.974326
0.974315
0.974304
0.974284
0.974254
0.974237
0.974233
0.974225
0.97421
0.974196
0.974178
0.974148
0.974122
0.974106
0.974084
0.974054
0.974021
0.973972
0.973886
0.973828
0.973794
0.973739
0.973658
0.973627
0.973607
0.973577
0.973548
0.973536
0.973552
0.97356
0.973528
0.973488
0.973432
0.973342
0.973228
0.97312
0.973011
0.972904
0.972771
0.972649
0.972556
0.972536
0.972558
0.972703
0.973296
0.975007
0.979198
0.98809
1.00547
1.03324
1.07619
1.12758
1.188
1.24197
1.29616
1.33921
1.36154
1.37159
1.37889
1.37788
1.3684
1.3613
1.36415
1.37121
1.37767
1.37881
1.37857
1.37639
1.37251
1.37259
1.37404
1.37616
1.37677
1.37625
1.3752
1.37472
1.37519
1.37579
1.37629
1.37615
1.37631
1.37678
1.37722
1.37708
1.37657
1.37594
1.37567
1.37563
1.3757
1.37592
1.37624
1.37647
0.974364
0.974353
0.974346
0.974344
0.974339
0.97433
0.974313
0.974298
0.974284
0.974264
0.97423
0.974195
0.974185
0.974181
0.974165
0.974129
0.9741
0.974073
0.97402
0.973979
0.973964
0.973938
0.973884
0.973825
0.973756
0.973645
0.973589
0.973568
0.973541
0.973467
0.973386
0.973363
0.973353
0.973347
0.973347
0.973364
0.973418
0.973454
0.973453
0.973443
0.973422
0.973376
0.973294
0.973232
0.973192
0.973141
0.973052
0.972939
0.972793
0.972588
0.972494
0.972507
0.972546
0.97265
0.972862
0.973291
0.974337
0.977113
0.983222
0.997615
1.02205
1.06392
1.11743
1.17975
1.24014
1.28123
1.31843
1.33656
1.34502
1.3605
1.37528
1.38267
1.38246
1.37978
1.37258
1.36985
1.37061
1.37381
1.37785
1.37769
1.37647
1.37433
1.37444
1.37528
1.37639
1.37618
1.37583
1.3758
1.37632
1.37723
1.37735
1.37708
1.37652
1.37589
1.37574
1.37575
1.37586
1.37607
1.37623
1.37649
0.974277
0.974265
0.974253
0.974246
0.974237
0.974221
0.974198
0.974174
0.974155
0.974133
0.974114
0.974104
0.974096
0.974075
0.974022
0.973977
0.973947
0.973906
0.973844
0.973779
0.973703
0.973605
0.973502
0.973405
0.973296
0.97319
0.973119
0.973072
0.973015
0.972925
0.972844
0.972824
0.972821
0.972821
0.972831
0.972871
0.972934
0.972993
0.973034
0.97306
0.973081
0.97311
0.973141
0.973164
0.973205
0.973231
0.973226
0.973185
0.973089
0.972923
0.972791
0.972766
0.972786
0.972873
0.973043
0.973337
0.973619
0.973855
0.974123
0.974794
0.976579
0.98214
0.994225
1.02136
1.06329
1.12527
1.19209
1.2585
1.31997
1.35419
1.3693
1.37772
1.37626
1.36284
1.36282
1.36671
1.3742
1.37973
1.37949
1.37745
1.37277
1.37292
1.37456
1.37667
1.37652
1.37599
1.37509
1.37549
1.37665
1.37741
1.37724
1.37647
1.37612
1.37607
1.37594
1.37598
1.37606
1.37624
1.37624
1.37641
0.973943
0.973939
0.973937
0.973935
0.973932
0.973924
0.973919
0.973918
0.973916
0.973902
0.973887
0.973867
0.97383
0.973779
0.973735
0.973698
0.973652
0.973593
0.973537
0.973484
0.973422
0.973359
0.97329
0.973194
0.973093
0.973028
0.972978
0.972921
0.97285
0.972776
0.972717
0.972685
0.972682
0.972689
0.972712
0.972755
0.972805
0.972844
0.972871
0.972897
0.972928
0.97298
0.973067
0.973171
0.973286
0.973427
0.973511
0.973521
0.973509
0.973433
0.973297
0.973197
0.973196
0.973258
0.973398
0.973605
0.973835
0.974042
0.974303
0.974432
0.974471
0.974559
0.975015
0.976797
0.982281
0.997171
1.02666
1.07678
1.14529
1.2143
1.27169
1.31079
1.33485
1.34459
1.3659
1.37733
1.38134
1.38086
1.37537
1.37081
1.37125
1.3741
1.37807
1.37798
1.37661
1.37475
1.37491
1.37626
1.37736
1.37726
1.37632
1.376
1.3761
1.37637
1.37631
1.37626
1.37635
1.3764
1.3763
1.37639
0.97339
0.973398
0.973408
0.973422
0.973438
0.973452
0.973467
0.973473
0.973473
0.973468
0.973465
0.973458
0.973453
0.973449
0.973443
0.97343
0.973404
0.973361
0.973306
0.97324
0.973188
0.973137
0.97306
0.972947
0.972888
0.972864
0.972835
0.972786
0.97273
0.972692
0.97266
0.972632
0.972632
0.972646
0.972668
0.972689
0.972712
0.972737
0.972768
0.972802
0.972842
0.972906
0.973012
0.973161
0.973347
0.973579
0.973786
0.973879
0.97389
0.973875
0.973814
0.973701
0.973603
0.973615
0.973706
0.973864
0.97405
0.974233
0.974428
0.97462
0.974718
0.974759
0.974759
0.974696
0.974742
0.975235
0.977587
0.985351
1.00478
1.04435
1.10656
1.17931
1.25816
1.32142
1.35998
1.37095
1.37765
1.37151
1.36126
1.36514
1.37353
1.3796
1.37945
1.37749
1.37363
1.37402
1.37621
1.37791
1.37759
1.37609
1.37543
1.37583
1.37657
1.37673
1.37667
1.37669
1.37676
1.37666
1.37638
1.37653
0.972988
0.973007
0.973025
0.973049
0.973076
0.973099
0.973119
0.973139
0.973161
0.973181
0.973194
0.973207
0.973221
0.973232
0.973237
0.973236
0.973229
0.97321
0.973176
0.973138
0.973108
0.97307
0.973008
0.972923
0.972857
0.97281
0.972764
0.972709
0.972655
0.972615
0.972584
0.972547
0.97253
0.972538
0.972556
0.972577
0.972605
0.972642
0.972682
0.972723
0.972774
0.972852
0.972976
0.973162
0.973414
0.973685
0.973915
0.974086
0.974196
0.974219
0.974207
0.974164
0.974081
0.97401
0.974037
0.974124
0.974232
0.97434
0.974492
0.974692
0.97484
0.974866
0.974863
0.974822
0.974692
0.974513
0.974493
0.974726
0.975849
0.980269
0.992027
1.02301
1.0743
1.15153
1.23053
1.28167
1.32848
1.33977
1.36066
1.37456
1.38137
1.38097
1.37593
1.37196
1.37297
1.37681
1.3795
1.37891
1.37613
1.37485
1.37535
1.37659
1.37693
1.37693
1.37696
1.37727
1.3772
1.3768
1.37655
1.37688
0.973036
0.973049
0.973065
0.973084
0.973098
0.973109
0.973123
0.973136
0.973147
0.973165
0.973175
0.973182
0.973204
0.973237
0.973257
0.973272
0.973272
0.973258
0.973228
0.973188
0.973158
0.973134
0.973098
0.973079
0.973078
0.973074
0.97306
0.973057
0.973071
0.973081
0.973082
0.973068
0.973036
0.973011
0.972985
0.972954
0.972935
0.972932
0.972928
0.972925
0.972938
0.972992
0.973107
0.973294
0.973536
0.973777
0.973991
0.974189
0.974349
0.974453
0.974469
0.974458
0.97445
0.974423
0.974401
0.974399
0.974401
0.974415
0.97444
0.974556
0.974753
0.974844
0.97486
0.974855
0.974763
0.974564
0.974417
0.97442
0.974514
0.974757
0.975389
0.977897
0.985357
1.01009
1.05479
1.13193
1.21549
1.29072
1.35184
1.36856
1.37778
1.37234
1.36181
1.36699
1.3766
1.38134
1.38029
1.37639
1.37391
1.37459
1.37675
1.37722
1.377
1.37702
1.37746
1.37778
1.37755
1.3769
1.37691
1.37747
0.973183
0.973183
0.973187
0.973196
0.97321
0.973226
0.973248
0.973251
0.973248
0.973255
0.973273
0.973284
0.973332
0.973397
0.973412
0.973427
0.973447
0.973441
0.973417
0.973411
0.973415
0.973432
0.973459
0.973534
0.97363
0.973646
0.973654
0.973696
0.973817
0.973885
0.9739
0.973915
0.973922
0.973896
0.973791
0.973699
0.97369
0.973684
0.973641
0.973547
0.973453
0.973411
0.973429
0.973512
0.973667
0.973888
0.974124
0.974297
0.974442
0.974587
0.974642
0.97463
0.974647
0.974698
0.974713
0.974682
0.974551
0.97439
0.974318
0.974316
0.974384
0.97453
0.97466
0.974716
0.974711
0.974623
0.974479
0.974436
0.974477
0.974668
0.974935
0.975076
0.975345
0.976697
0.982293
1.00172
1.04239
1.11737
1.20029
1.26967
1.32215
1.33974
1.35769
1.38041
1.38291
1.38137
1.37366
1.37251
1.37405
1.37775
1.37831
1.37736
1.37643
1.377
1.37822
1.37812
1.37741
1.37704
1.37746
1.3782
0.973687
0.973665
0.973658
0.97365
0.973646
0.973655
0.973661
0.973663
0.973675
0.9737
0.973716
0.973705
0.973697
0.97371
0.973717
0.973716
0.973709
0.973681
0.973658
0.973651
0.973653
0.973671
0.973742
0.97392
0.97399
0.974
0.974046
0.974193
0.974365
0.974486
0.974601
0.974707
0.974768
0.974777
0.974729
0.974571
0.974515
0.974509
0.974474
0.974343
0.974196
0.974099
0.974029
0.974022
0.974081
0.974211
0.97434
0.974442
0.974567
0.974726
0.974787
0.974762
0.974763
0.974858
0.974922
0.974906
0.974753
0.974486
0.974268
0.974181
0.974178
0.974216
0.974326
0.974543
0.974681
0.974686
0.974578
0.9744
0.974415
0.9746
0.974876
0.975135
0.975167
0.975145
0.975275
0.976285
0.980825
0.997639
1.03643
1.11103
1.19692
1.28813
1.34794
1.37291
1.37773
1.36644
1.36389
1.37011
1.37843
1.37994
1.37846
1.37525
1.37592
1.37829
1.37859
1.37795
1.37712
1.37738
1.37845
1.37862
0.974304
0.974305
0.974299
0.974281
0.974214
0.97414
0.974109
0.974097
0.974113
0.974149
0.974154
0.974125
0.974064
0.974011
0.973944
0.9739
0.973876
0.973858
0.973844
0.973828
0.973828
0.973858
0.973977
0.974093
0.974142
0.9742
0.974359
0.974561
0.974698
0.974825
0.975039
0.975225
0.975307
0.975371
0.975378
0.975305
0.975233
0.975236
0.975202
0.975021
0.974926
0.974923
0.974895
0.974805
0.97475
0.974806
0.974825
0.974763
0.974762
0.974855
0.974915
0.974899
0.974898
0.974982
0.975039
0.975024
0.974921
0.974667
0.974373
0.974233
0.974223
0.974213
0.974244
0.974452
0.974835
0.974986
0.974932
0.974716
0.974548
0.974587
0.974778
0.975052
0.975201
0.975234
0.975192
0.975198
0.975322
0.976196
0.980459
0.994886
1.03515
1.10878
1.19706
1.27531
1.32124
1.34066
1.36398
1.38247
1.38231
1.3792
1.37369
1.37462
1.37863
1.37968
1.37858
1.3769
1.37708
1.3784
1.37944
1.37892
0.97484
0.97487
0.974886
0.97488
0.974868
0.974844
0.974739
0.974592
0.974528
0.97453
0.974573
0.974576
0.974509
0.974444
0.9744
0.974327
0.974234
0.974158
0.974098
0.974071
0.974066
0.97407
0.974092
0.974129
0.97422
0.974362
0.974482
0.974637
0.974887
0.975112
0.975302
0.975469
0.975571
0.975659
0.975703
0.975699
0.975683
0.975641
0.975496
0.975304
0.975288
0.975302
0.975286
0.975283
0.975261
0.975227
0.975198
0.975121
0.974924
0.974734
0.974704
0.974713
0.974748
0.974859
0.975052
0.975099
0.975093
0.975036
0.974873
0.974661
0.974497
0.974388
0.974336
0.974468
0.974993
0.975367
0.975337
0.975112
0.974805
0.974734
0.974793
0.97495
0.975149
0.975264
0.975345
0.975408
0.975505
0.975583
0.975752
0.976451
0.980367
0.994902
1.03817
1.11361
1.20727
1.30726
1.35489
1.37731
1.37584
1.36336
1.368
1.37772
1.38166
1.37973
1.37557
1.3759
1.37818
1.37968
1.37947
1.37842
0.975431
0.975447
0.97547
0.975478
0.975462
0.975408
0.9754
0.975361
0.975186
0.975084
0.97507
0.975089
0.975163
0.975208
0.975194
0.975145
0.97503
0.974865
0.974731
0.974643
0.974583
0.97451
0.974431
0.974414
0.974447
0.974519
0.974608
0.974741
0.975055
0.975321
0.975335
0.975316
0.975357
0.975529
0.975678
0.975762
0.975758
0.975672
0.975416
0.975296
0.975306
0.975318
0.975242
0.975226
0.975339
0.975384
0.975379
0.97533
0.975158
0.974844
0.974617
0.974583
0.974581
0.974636
0.974849
0.975127
0.975349
0.975489
0.975544
0.975497
0.975294
0.974913
0.974628
0.97466
0.975094
0.975572
0.975573
0.975388
0.975107
0.974934
0.974916
0.974968
0.975131
0.975337
0.975541
0.975633
0.975692
0.975715
0.975692
0.975603
0.975626
0.976244
0.980691
0.996482
1.04459
1.12671
1.21972
1.29464
1.33156
1.34838
1.37935
1.38354
1.38086
1.37319
1.37416
1.37746
1.38068
1.38037
1.37866
1.37796
0.976097
0.976107
0.976122
0.976128
0.976127
0.97611
0.976078
0.976078
0.976076
0.976022
0.975939
0.975933
0.975933
0.97591
0.975916
0.9759
0.975772
0.975471
0.975386
0.975382
0.975364
0.975235
0.975058
0.975043
0.975033
0.97499
0.974944
0.974987
0.975051
0.975055
0.975011
0.974942
0.974992
0.975113
0.975198
0.975306
0.975321
0.975199
0.975077
0.975069
0.975135
0.975147
0.975042
0.975018
0.975225
0.975387
0.975418
0.975425
0.975333
0.974977
0.974562
0.974428
0.974392
0.974425
0.974635
0.974898
0.975285
0.975732
0.976006
0.976108
0.975992
0.97544
0.974898
0.974892
0.975257
0.975713
0.975714
0.975572
0.975414
0.975299
0.975264
0.975284
0.975365
0.975571
0.975798
0.975853
0.975834
0.975758
0.975642
0.975414
0.97524
0.975243
0.975384
0.976316
0.981613
1.00215
1.05751
1.14331
1.25677
1.32985
1.37393
1.37524
1.36322
1.36536
1.37368
1.38145
1.38085
1.37892
1.37747
1.37777
0.976769
0.976772
0.976775
0.976776
0.976763
0.976761
0.976781
0.976793
0.976789
0.976766
0.976695
0.97662
0.976581
0.976493
0.976364
0.976181
0.975847
0.975574
0.975537
0.975573
0.975577
0.975516
0.975339
0.975189
0.975119
0.9751
0.975077
0.975054
0.97504
0.975021
0.974929
0.974831
0.974931
0.975074
0.975058
0.975064
0.975004
0.974793
0.974721
0.974726
0.974853
0.9749
0.974817
0.974752
0.974876
0.975314
0.975527
0.975599
0.975628
0.975484
0.975089
0.974882
0.974832
0.974883
0.974943
0.974842
0.974965
0.975411
0.97593
0.976181
0.976103
0.975553
0.975017
0.975006
0.975341
0.975648
0.975638
0.975628
0.975682
0.975736
0.975736
0.975725
0.975754
0.975882
0.975985
0.975967
0.975948
0.975836
0.975525
0.975226
0.975163
0.975199
0.975299
0.975447
0.975699
0.977075
0.983518
1.01173
1.073
1.16936
1.27335
1.3114
1.34093
1.36713
1.38386
1.38285
1.37646
1.37617
1.37728
1.37835
0.976586
0.97668
0.976686
0.976662
0.976656
0.976683
0.976746
0.976773
0.97677
0.976744
0.976679
0.976605
0.976567
0.976488
0.976345
0.976071
0.975649
0.975464
0.975464
0.975529
0.975514
0.975486
0.975481
0.975326
0.97503
0.975014
0.975004
0.975027
0.975101
0.975122
0.97503
0.975006
0.975206
0.975287
0.975204
0.975146
0.975092
0.974833
0.974678
0.974668
0.974761
0.974845
0.97482
0.974747
0.974821
0.975154
0.975574
0.975855
0.976068
0.976232
0.976153
0.975781
0.975657
0.975657
0.975531
0.975085
0.974951
0.97506
0.975328
0.975725
0.975739
0.975421
0.975158
0.975251
0.975622
0.975692
0.975716
0.97581
0.975937
0.976019
0.97602
0.976022
0.976038
0.976097
0.976095
0.976025
0.975817
0.975582
0.975353
0.975195
0.975169
0.97526
0.975536
0.975855
0.976037
0.976053
0.976237
0.978106
0.986957
1.02674
1.09814
1.2053
1.31659
1.35756
1.37898
1.3677
1.36699
1.37285
1.37886
1.37835
0.975093
0.975593
0.975736
0.97574
0.975631
0.975527
0.975524
0.975579
0.975659
0.975719
0.975761
0.975827
0.975918
0.975927
0.975851
0.97562
0.975309
0.975166
0.975176
0.975189
0.975151
0.975139
0.975074
0.974766
0.97452
0.97451
0.974604
0.974888
0.975091
0.975169
0.975279
0.975578
0.975991
0.976095
0.976005
0.975942
0.975981
0.975884
0.97549
0.975205
0.975161
0.975162
0.975167
0.975082
0.975123
0.975283
0.975391
0.975504
0.975735
0.976177
0.976406
0.976271
0.976067
0.975902
0.975636
0.975356
0.975121
0.975067
0.975123
0.97518
0.975257
0.975242
0.975257
0.975519
0.975982
0.976062
0.976025
0.976083
0.976166
0.976155
0.976077
0.976045
0.976028
0.975974
0.975812
0.975569
0.975445
0.975394
0.975322
0.975332
0.975428
0.975665
0.976038
0.976215
0.976216
0.976142
0.975894
0.975615
0.975938
0.979323
0.993795
1.04741
1.13712
1.23263
1.3131
1.33423
1.3681
1.3798
1.379
1.37536
0.974745
0.975213
0.975298
0.975311
0.975288
0.975101
0.974966
0.974981
0.975093
0.975241
0.975258
0.975195
0.975163
0.97515
0.975074
0.97489
0.974802
0.974807
0.974877
0.974904
0.974901
0.974821
0.97445
0.97427
0.974277
0.97431
0.974386
0.974552
0.974807
0.975064
0.975299
0.975622
0.976031
0.97635
0.976568
0.976778
0.976884
0.97686
0.976622
0.976176
0.975835
0.975613
0.975581
0.975697
0.975755
0.975578
0.975007
0.974809
0.974866
0.97509
0.975567
0.976142
0.976237
0.976
0.975804
0.975969
0.976045
0.975801
0.975311
0.975094
0.975167
0.975405
0.97552
0.975797
0.97625
0.976411
0.97638
0.97635
0.976345
0.976285
0.976133
0.975899
0.975726
0.975592
0.97547
0.975397
0.975337
0.97535
0.975474
0.975704
0.975887
0.976102
0.976314
0.976358
0.97623
0.975935
0.975545
0.97531
0.975342
0.975496
0.976449
0.982736
1.00753
1.0774
1.17827
1.28873
1.35669
1.37532
1.3643
1.36804
0.97368
0.973755
0.973768
0.973777
0.973699
0.973623
0.97372
0.974073
0.974212
0.974219
0.974198
0.974055
0.974011
0.974002
0.973891
0.973833
0.973852
0.973866
0.973978
0.974127
0.974134
0.974015
0.973537
0.973211
0.973192
0.973171
0.97309
0.973062
0.973145
0.973304
0.973511
0.973883
0.974479
0.975174
0.97587
0.976365
0.976514
0.976511
0.97639
0.976084
0.975642
0.975371
0.975378
0.975514
0.975414
0.974778
0.973838
0.973559
0.973654
0.973714
0.973954
0.974725
0.975458
0.975656
0.97577
0.976241
0.976627
0.976631
0.976217
0.975619
0.975566
0.975698
0.975802
0.975974
0.976294
0.976414
0.976392
0.976364
0.976273
0.975997
0.975539
0.97517
0.975142
0.975209
0.975436
0.975606
0.975661
0.975768
0.975983
0.976155
0.976258
0.976362
0.976318
0.976174
0.975871
0.975547
0.975345
0.975361
0.975488
0.975804
0.975972
0.976238
0.978017
0.988584
1.02809
1.11606
1.22046
1.29797
1.33651
1.3693
0.973018
0.973126
0.973383
0.973604
0.973832
0.974298
0.974603
0.974648
0.974632
0.97465
0.974756
0.974816
0.974841
0.974843
0.97475
0.974527
0.974483
0.974564
0.974573
0.974408
0.973977
0.973369
0.972626
0.971754
0.970886
0.970106
0.96956
0.969365
0.969333
0.969304
0.96923
0.96922
0.969385
0.970022
0.971319
0.972881
0.973543
0.973617
0.973636
0.97357
0.973345
0.973325
0.973387
0.973369
0.973059
0.972403
0.972029
0.97217
0.97255
0.972923
0.973335
0.973792
0.974235
0.974641
0.975243
0.976093
0.976559
0.976531
0.97618
0.975693
0.975643
0.975765
0.975858
0.975791
0.975638
0.975586
0.97561
0.975608
0.975489
0.975207
0.974855
0.974748
0.974807
0.975062
0.975661
0.976145
0.976254
0.976298
0.976326
0.976372
0.976416
0.976312
0.976013
0.975643
0.975461
0.975387
0.97543
0.975598
0.975949
0.976275
0.976318
0.976263
0.976095
0.976481
0.980204
1.00173
1.05941
1.16379
1.28906
1.36128
0.969324
0.969434
0.970088
0.970787
0.970876
0.970867
0.970884
0.971021
0.971297
0.9717
0.97222
0.972848
0.973376
0.973507
0.973501
0.973455
0.973456
0.973495
0.97343
0.973144
0.973164
0.973194
0.97283
0.971984
0.970826
0.969794
0.968971
0.968212
0.967704
0.967398
0.966946
0.96644
0.966318
0.966519
0.967455
0.969164
0.970585
0.971001
0.971061
0.971166
0.97145
0.971759
0.971918
0.972021
0.972269
0.972825
0.973517
0.974096
0.974243
0.974152
0.973463
0.97306
0.97307
0.973122
0.973179
0.973373
0.97392
0.974536
0.974709
0.974626
0.974451
0.974324
0.974039
0.973519
0.97331
0.973413
0.973704
0.974064
0.974388
0.97462
0.974793
0.974943
0.975185
0.975492
0.975991
0.976399
0.976437
0.976416
0.976408
0.976352
0.976117
0.975732
0.975391
0.975331
0.975349
0.975478
0.975817
0.976211
0.976453
0.976461
0.976419
0.976108
0.97564
0.975613
0.975723
0.977284
0.985531
1.02481
1.10194
1.24697
0.97194
0.972348
0.972988
0.973349
0.97339
0.973309
0.973163
0.973146
0.973187
0.973429
0.973929
0.974592
0.97528
0.976028
0.976631
0.97712
0.977503
0.977978
0.978532
0.978665
0.978544
0.978462
0.978529
0.978789
0.978778
0.978128
0.976771
0.975448
0.97455
0.973774
0.972761
0.971499
0.970437
0.970137
0.970309
0.970894
0.971751
0.972356
0.972422
0.972446
0.972697
0.973216
0.973624
0.974106
0.974868
0.975525
0.975827
0.97625
0.976393
0.976323
0.975969
0.975417
0.974536
0.973146
0.971724
0.971045
0.970955
0.971035
0.971462
0.971981
0.97214
0.972042
0.971702
0.971376
0.971374
0.971635
0.972055
0.972541
0.973084
0.97351
0.973916
0.97464
0.975305
0.975648
0.976006
0.976243
0.976209
0.976002
0.975638
0.975204
0.974817
0.974827
0.97505
0.975325
0.975683
0.976066
0.976408
0.976617
0.976653
0.976581
0.976209
0.975646
0.975523
0.975577
0.975932
0.976173
0.976555
0.980054
0.996089
1.10569
0.988126
0.988001
0.988344
0.988868
0.988833
0.988464
0.986818
0.984906
0.984591
0.984573
0.984654
0.985124
0.98566
0.986864
0.98799
0.988106
0.988204
0.988715
0.989986
0.990932
0.9915
0.991651
0.991361
0.991128
0.991077
0.990336
0.989051
0.988955
0.989146
0.989187
0.988878
0.987705
0.986291
0.984232
0.98039
0.978821
0.978886
0.978955
0.978779
0.978424
0.977845
0.976844
0.976496
0.976679
0.977494
0.978066
0.977507
0.97606
0.974664
0.973516
0.973297
0.973712
0.974053
0.973565
0.972056
0.971215
0.970815
0.97075
0.970821
0.971119
0.971604
0.971785
0.971808
0.972009
0.972397
0.973011
0.973367
0.973358
0.97335
0.973672
0.974462
0.974716
0.97461
0.974032
0.973394
0.973232
0.973181
0.973282
0.973393
0.973448
0.97364
0.974133
0.975047
0.975648
0.976201
0.976318
0.976402
0.976524
0.976398
0.975987
0.9755
0.975302
0.975469
0.976107
0.976675
0.976661
0.976525
0.976422
0.977016
1.00781
1.01875
1.01788
1.01669
1.01547
1.0142
1.01101
1.00884
1.00891
1.00845
1.00601
1.00416
1.00367
1.00315
1.00284
1.00299
1.00301
1.0027
1.00249
1.00245
1.00271
1.00305
1.00303
1.00241
0.999765
0.996004
0.994385
0.994386
0.995228
0.996954
0.998688
0.999179
0.99912
0.99892
0.997557
0.994557
0.993991
0.993806
0.993394
0.992905
0.992516
0.99122
0.990082
0.989712
0.989148
0.987788
0.985352
0.982382
0.979907
0.978132
0.977268
0.97727
0.977748
0.979599
0.982519
0.983433
0.982751
0.980917
0.978646
0.976553
0.975326
0.97512
0.975321
0.975883
0.976861
0.978389
0.979302
0.979175
0.977767
0.975542
0.974907
0.974911
0.974874
0.974208
0.973199
0.972311
0.972002
0.972052
0.972286
0.972422
0.972537
0.972837
0.973575
0.974481
0.975618
0.976153
0.976039
0.975758
0.975299
0.974927
0.974767
0.97489
0.975133
0.97609
0.976913
0.976953
0.976839
0.97649
0.975645
0.975359
0.980211
1.06199
1.06077
1.05826
1.05697
1.0565
1.05652
1.05743
1.05827
1.05822
1.05721
1.05394
1.05143
1.05115
1.05211
1.05346
1.05367
1.05291
1.05078
1.0495
1.04948
1.05003
1.0505
1.04991
1.04706
1.04263
1.03998
1.03881
1.0374
1.03484
1.03238
1.03108
1.03027
1.02869
1.02586
1.02462
1.02512
1.02536
1.02403
1.0236
1.02464
1.0246
1.02365
1.0229
1.02197
1.02076
1.01884
1.01481
1.01081
1.00887
1.00673
1.00293
1.00169
1.00145
1.00093
1.00081
1.00078
0.999831
0.996972
0.993747
0.991256
0.989092
0.987171
0.98473
0.982286
0.982048
0.982188
0.981657
0.979197
0.975378
0.974073
0.974231
0.974268
0.97379
0.972997
0.972275
0.972159
0.972269
0.972777
0.973629
0.97453
0.975393
0.975911
0.975811
0.975556
0.974892
0.974077
0.973326
0.973111
0.97327
0.973515
0.974065
0.975578
0.976414
0.97682
0.976756
0.976128
0.975422
0.97493
0.975153
0.976306
1.10987
1.1102
1.11108
1.11136
1.1104
1.10701
1.10505
1.10404
1.10353
1.10352
1.10347
1.10233
1.09974
1.0972
1.09683
1.09728
1.09723
1.09555
1.09129
1.08952
1.08986
1.09121
1.09147
1.09014
1.08738
1.0869
1.08793
1.08812
1.08599
1.08391
1.08404
1.08382
1.08192
1.07876
1.0755
1.0729
1.0701
1.06703
1.06429
1.06016
1.05652
1.05424
1.05056
1.0469
1.0468
1.0484
1.04786
1.04519
1.0428
1.04075
1.03896
1.03698
1.03275
1.02396
1.01767
1.01709
1.01599
1.01251
1.01076
1.01079
1.01048
1.0084
1.0036
0.996455
0.9913
0.990479
0.99016
0.989112
0.987108
0.986073
0.984374
0.98147
0.980289
0.980672
0.98141
0.981315
0.980925
0.980867
0.980741
0.980187
0.979341
0.97823
0.976991
0.975561
0.973911
0.973368
0.972949
0.973008
0.973262
0.974198
0.975473
0.976444
0.976303
0.975796
0.97496
0.974398
0.974436
0.974594
0.975845
0.976861
1.1724
1.17244
1.17272
1.17251
1.1698
1.16757
1.1667
1.16651
1.16702
1.16758
1.16734
1.16601
1.1639
1.16179
1.15975
1.15934
1.1595
1.15888
1.15648
1.15289
1.15011
1.14964
1.14923
1.14695
1.1446
1.14397
1.14349
1.14249
1.13885
1.13429
1.13374
1.13323
1.13179
1.12964
1.12789
1.12668
1.12489
1.12263
1.12067
1.11845
1.1162
1.11358
1.11045
1.10697
1.10348
1.10021
1.09512
1.08938
1.08686
1.08492
1.08427
1.08377
1.08143
1.07658
1.07203
1.06924
1.06548
1.05777
1.05299
1.05249
1.05162
1.04982
1.04691
1.04065
1.03317
1.02864
1.02639
1.02475
1.02142
1.01676
1.0122
1.00758
1.00261
0.998635
0.995314
0.992522
0.989596
0.98644
0.984123
0.98146
0.97868
0.977456
0.976603
0.975636
0.974537
0.974263
0.974738
0.975575
0.976962
0.977497
0.977201
0.976383
0.975082
0.973808
0.973343
0.973348
0.973638
0.975213
0.976397
0.976737
1.23549
1.23534
1.23513
1.23482
1.2343
1.23358
1.23282
1.23127
1.22924
1.22903
1.22916
1.22817
1.22592
1.22426
1.22162
1.22009
1.22003
1.21969
1.2182
1.21453
1.21295
1.2126
1.21206
1.20964
1.20714
1.20723
1.20727
1.20624
1.20338
1.19995
1.19772
1.19615
1.19271
1.18864