/*--------------------------------*- C++ -*----------------------------------*\
  =========                 |
  \\      /  F ield         | OpenFOAM: The Open Source CFD Toolbox
   \\    /   O peration     | Website:  https://openfoam.org
    \\  /    A nd           | Version:  7
     \\/     M anipulation  |
\*---------------------------------------------------------------------------*/
FoamFile
{
    version     2.0;
    format      ascii;
    class       volVectorField;
    location    "8.5";
    object      U;
}
// * * * * * * * * * * * * * * * * * * * * * * * * * * * * * * * * * * * * * //

dimensions      [0 1 -1 0 0 0 0];

internalField   nonuniform List<vector> 
24000
(
(3.08047 -1.07012 0)
(3.02959 -0.985811 0)
(2.98792 -0.857884 0)
(2.96445 -0.707324 0)
(2.96708 -0.685909 0)
(2.9511 -0.575229 0)
(2.95086 -0.493058 0)
(2.95341 -0.419189 0)
(2.96301 -0.376196 0)
(2.9546 -0.27175 0)
(2.96626 -0.245814 0)
(2.95759 -0.145841 0)
(2.96811 -0.122975 0)
(2.95851 -0.0285888 0)
(2.96325 -0.0190604 0)
(2.95106 0.0468321 0)
(2.94787 0.0312799 0)
(2.93646 0.0497447 0)
(2.93078 0.0498643 0)
(2.92904 0.0499192 0)
(2.92849 0.0445591 0)
(2.9303 0.0524799 0)
(2.92766 0.0613241 0)
(2.92095 0.0697507 0)
(2.91692 0.0685773 0)
(2.9122 0.0662357 0)
(2.90674 0.067743 0)
(2.90437 0.055654 0)
(2.90304 0.047786 0)
(2.89914 0.0429824 0)
(2.89565 0.0329391 0)
(2.89729 0.0372969 0)
(2.90161 0.0453094 0)
(2.90605 0.0539453 0)
(2.90589 0.0542781 0)
(2.9023 0.0508959 0)
(2.89761 0.0446367 0)
(2.89734 0.0470216 0)
(2.90042 0.0504477 0)
(2.90297 0.0536921 0)
(2.90301 0.0506728 0)
(2.90143 0.0447108 0)
(2.90524 0.0488903 0)
(2.9078 0.0526611 0)
(2.90915 0.0531766 0)
(2.90925 0.0506952 0)
(2.91083 0.0510154 0)
(2.91286 0.0549892 0)
(2.91478 0.0551844 0)
(2.91668 0.0514091 0)
(3.14199 -1.18432 0)
(3.14186 -1.18409 0)
(3.14157 -1.18393 0)
(3.14121 -1.18367 0)
(3.14077 -1.18358 0)
(3.14043 -1.18306 0)
(3.13969 -1.18332 0)
(3.13839 -1.18187 0)
(3.13456 -1.17652 0)
(3.12688 -1.15974 0)
(3.11648 -1.1349 0)
(3.09891 -1.07925 0)
(3.07948 -1.01593 0)
(3.04828 -0.885978 0)
(3.0256 -0.780126 0)
(2.98231 -0.57131 0)
(2.96973 -0.472265 0)
(2.92139 -0.2531 0)
(2.93335 -0.20341 0)
(2.89571 -0.0495186 0)
(2.90315 -0.0273875 0)
(2.88413 0.0543444 0)
(2.88547 0.0563993 0)
(2.87406 0.0940948 0)
(2.86907 0.102237 0)
(2.86663 0.118076 0)
(2.8667 0.105762 0)
(2.86777 0.0787812 0)
(2.86731 0.0530441 0)
(2.87534 0.0307724 0)
(2.87542 0.0348919 0)
(2.88137 0.0502779 0)
(2.88266 0.0681799 0)
(2.88057 0.0715084 0)
(2.87437 0.0665454 0)
(2.86774 0.060852 0)
(2.8687 0.0525755 0)
(2.87242 0.0552198 0)
(2.87859 0.0612052 0)
(2.88053 0.0592401 0)
(2.8783 0.0538784 0)
(2.87963 0.0518115 0)
(2.88351 0.0562114 0)
(2.88648 0.0605381 0)
(2.88791 0.0576232 0)
(2.88807 0.0532014 0)
(2.891 0.0529967 0)
(2.8939 0.0523062 0)
(2.896 0.0508173 0)
(2.89873 0.0490213 0)
(3.13366 -1.1818 0)
(3.13308 -1.18157 0)
(3.13258 -1.18094 0)
(3.13146 -1.18125 0)
(3.13065 -1.18096 0)
(3.12968 -1.18068 0)
(3.12868 -1.18009 0)
(3.12729 -1.18023 0)
(3.12629 -1.18073 0)
(3.12583 -1.18085 0)
(3.12529 -1.18016 0)
(3.1242 -1.17993 0)
(3.12345 -1.17965 0)
(3.12252 -1.18042 0)
(3.12221 -1.18017 0)
(3.12163 -1.18073 0)
(3.11695 -1.17177 0)
(3.09799 -1.12419 0)
(3.07257 -1.04625 0)
(3.02957 -0.883576 0)
(3.00129 -0.75207 0)
(2.95326 -0.524234 0)
(2.94373 -0.41279 0)
(2.90817 -0.235155 0)
(2.89124 -0.139649 0)
(2.87507 -0.0553041 0)
(2.86683 -0.0212775 0)
(2.86539 0.00203183 0)
(2.86122 0.0279575 0)
(2.86158 0.0352083 0)
(2.85764 0.0487745 0)
(2.85281 0.0648754 0)
(2.85222 0.0639405 0)
(2.84917 0.0581315 0)
(2.84604 0.0502779 0)
(2.84533 0.0439505 0)
(2.84929 0.046172 0)
(2.85691 0.0536894 0)
(2.85886 0.0532095 0)
(2.85689 0.0498656 0)
(2.8551 0.0436987 0)
(2.85684 0.0457962 0)
(2.86234 0.0510082 0)
(2.86355 0.0510315 0)
(2.86339 0.0493377 0)
(2.86577 0.0481496 0)
(2.8686 0.0531187 0)
(2.8718 0.0567915 0)
(2.87298 0.0534146 0)
(2.87612 0.0482104 0)
(3.12282 -1.18007 0)
(3.12229 -1.18025 0)
(3.12189 -1.17982 0)
(3.121 -1.17991 0)
(3.12022 -1.18006 0)
(3.11974 -1.17971 0)
(3.11928 -1.17937 0)
(3.11889 -1.17928 0)
(3.11829 -1.17977 0)
(3.11795 -1.17999 0)
(3.11753 -1.17986 0)
(3.11715 -1.17922 0)
(3.11679 -1.17891 0)
(3.11628 -1.17946 0)
(3.11619 -1.17983 0)
(3.11602 -1.17932 0)
(3.11609 -1.17867 0)
(3.11593 -1.17858 0)
(3.11572 -1.17833 0)
(3.1155 -1.17796 0)
(3.11561 -1.17773 0)
(3.11411 -1.17236 0)
(3.10455 -1.14058 0)
(3.0736 -1.04154 0)
(3.03009 -0.871974 0)
(2.97726 -0.648397 0)
(2.92493 -0.407774 0)
(2.88005 -0.167617 0)
(2.898 -0.0734957 0)
(2.82901 0.0815071 0)
(2.82499 0.133932 0)
(2.8219 0.12307 0)
(2.82897 0.0746698 0)
(2.83592 0.0520371 0)
(2.84099 0.0448532 0)
(2.84081 0.0447537 0)
(2.84748 0.0536665 0)
(2.84692 0.0634206 0)
(2.84416 0.0604496 0)
(2.83732 0.0500178 0)
(2.83752 0.0486772 0)
(2.84069 0.0537159 0)
(2.84622 0.0602694 0)
(2.84462 0.0578233 0)
(2.84295 0.0505201 0)
(2.84723 0.0510691 0)
(2.84974 0.0518453 0)
(2.85086 0.0503625 0)
(2.85099 0.0485855 0)
(2.85386 0.0473054 0)
(3.11697 -1.17755 0)
(3.11674 -1.17762 0)
(3.11658 -1.17725 0)
(3.11635 -1.177 0)
(3.11608 -1.17729 0)
(3.11606 -1.17728 0)
(3.1161 -1.17707 0)
(3.11598 -1.1771 0)
(3.11588 -1.17746 0)
(3.11586 -1.17759 0)
(3.11581 -1.1778 0)
(3.11574 -1.17781 0)
(3.1156 -1.1777 0)
(3.1155 -1.17792 0)
(3.11565 -1.17802 0)
(3.11563 -1.17763 0)
(3.11577 -1.17703 0)
(3.11583 -1.17681 0)
(3.11571 -1.17655 0)
(3.11571 -1.17619 0)
(3.11567 -1.17614 0)
(3.11593 -1.17619 0)
(3.11675 -1.17622 0)
(3.11729 -1.17656 0)
(3.11757 -1.17681 0)
(3.11739 -1.17804 0)
(3.10645 -1.14999 0)
(3.06858 -1.0309 0)
(3.0214 -0.816352 0)
(2.94687 -0.495193 0)
(2.95656 -0.333889 0)
(2.88454 -0.0957093 0)
(2.88276 -0.052459 0)
(2.85356 0.00266336 0)
(2.84942 0.0252399 0)
(2.84737 0.0426858 0)
(2.84012 0.0631892 0)
(2.83376 0.0633577 0)
(2.82438 0.05016 0)
(2.82417 0.0408699 0)
(2.82785 0.0438437 0)
(2.83495 0.0549924 0)
(2.8357 0.0567712 0)
(2.83387 0.0517831 0)
(2.83331 0.0477768 0)
(2.83482 0.0513816 0)
(2.83713 0.055404 0)
(2.83658 0.0531295 0)
(2.83612 0.0492374 0)
(2.83805 0.0469926 0)
(3.11492 -1.17755 0)
(3.11499 -1.1776 0)
(3.115 -1.17778 0)
(3.11503 -1.17786 0)
(3.11513 -1.17787 0)
(3.11509 -1.17792 0)
(3.11499 -1.17778 0)
(3.1149 -1.17763 0)
(3.11491 -1.17774 0)
(3.11508 -1.17775 0)
(3.11532 -1.17761 0)
(3.1153 -1.17764 0)
(3.11526 -1.17769 0)
(3.11532 -1.1775 0)
(3.11531 -1.17725 0)
(3.11517 -1.17708 0)
(3.11546 -1.17622 0)
(3.11587 -1.17506 0)
(3.11597 -1.17479 0)
(3.1158 -1.17465 0)
(3.11535 -1.17482 0)
(3.11542 -1.17531 0)
(3.11657 -1.17573 0)
(3.11736 -1.17625 0)
(3.11726 -1.17708 0)
(3.11741 -1.17797 0)
(3.11752 -1.179 0)
(3.11523 -1.17977 0)
(3.1144 -1.17976 0)
(3.1098 -1.16623 0)
(3.08971 -1.06837 0)
(3.00355 -0.717111 0)
(2.99499 -0.488737 0)
(2.88944 -0.0944161 0)
(2.87976 -0.0258083 0)
(2.86084 0.116478 0)
(2.82472 0.0940537 0)
(2.82032 0.0609876 0)
(2.82028 0.0429258 0)
(2.82409 0.0406932 0)
(2.83177 0.0548967 0)
(2.83456 0.0628537 0)
(2.83038 0.0578143 0)
(2.82724 0.0467918 0)
(2.82768 0.0468005 0)
(2.83062 0.0524422 0)
(2.83153 0.0537515 0)
(2.83069 0.0500512 0)
(2.83082 0.0471801 0)
(2.83063 0.0460134 0)
(3.11517 -1.17819 0)
(3.11526 -1.17804 0)
(3.1152 -1.17841 0)
(3.11523 -1.17853 0)
(3.11541 -1.17817 0)
(3.11519 -1.17803 0)
(3.11506 -1.17767 0)
(3.11492 -1.17738 0)
(3.11494 -1.17787 0)
(3.11507 -1.17817 0)
(3.1154 -1.17818 0)
(3.11542 -1.17851 0)
(3.11579 -1.17817 0)
(3.11601 -1.17753 0)
(3.11586 -1.17757 0)
(3.11575 -1.17732 0)
(3.11591 -1.17595 0)
(3.11587 -1.1755 0)
(3.11554 -1.17522 0)
(3.11503 -1.17488 0)
(3.11438 -1.17493 0)
(3.11434 -1.17559 0)
(3.11557 -1.17623 0)
(3.11706 -1.17698 0)
(3.11734 -1.17775 0)
(3.11753 -1.17837 0)
(3.1176 -1.179 0)
(3.11558 -1.17952 0)
(3.11441 -1.17978 0)
(3.1141 -1.18025 0)
(3.11569 -1.18013 0)
(3.11963 -1.17813 0)
(3.11447 -1.15532 0)
(3.06502 -0.969665 0)
(3.01341 -0.684049 0)
(2.93675 -0.281381 0)
(2.93731 -0.170136 0)
(2.86911 -0.030365 0)
(2.8554 0.0197368 0)
(2.84897 0.0464549 0)
(2.83456 0.0710468 0)
(2.82844 0.0657072 0)
(2.81943 0.0447374 0)
(2.82115 0.039787 0)
(2.8256 0.0480714 0)
(2.83049 0.0565382 0)
(2.82962 0.0528664 0)
(2.82725 0.0453213 0)
(2.82891 0.0460104 0)
(2.82856 0.0452352 0)
(3.11574 -1.17866 0)
(3.11589 -1.17827 0)
(3.11587 -1.17865 0)
(3.1158 -1.1789 0)
(3.11596 -1.17838 0)
(3.11574 -1.17824 0)
(3.11578 -1.1781 0)
(3.11587 -1.17793 0)
(3.11602 -1.1783 0)
(3.11628 -1.17883 0)
(3.1166 -1.17922 0)
(3.11681 -1.17884 0)
(3.11689 -1.17804 0)
(3.11675 -1.17768 0)
(3.11647 -1.17771 0)
(3.11636 -1.17733 0)
(3.1159 -1.17654 0)
(3.1155 -1.17643 0)
(3.11428 -1.17654 0)
(3.11283 -1.17598 0)
(3.11164 -1.17631 0)
(3.11207 -1.17751 0)
(3.11434 -1.17847 0)
(3.11592 -1.17862 0)
(3.1175 -1.17875 0)
(3.11853 -1.17807 0)
(3.11829 -1.17712 0)
(3.11688 -1.17669 0)
(3.11527 -1.1778 0)
(3.11528 -1.17902 0)
(3.11795 -1.1801 0)
(3.12012 -1.17961 0)
(3.12011 -1.1775 0)
(3.11946 -1.17714 0)
(3.11863 -1.17891 0)
(3.08539 -1.07523 0)
(3.04724 -0.77855 0)
(2.93063 -0.281833 0)
(2.94943 -0.131284 0)
(2.8641 0.102256 0)
(2.8335 0.094628 0)
(2.82122 0.0616496 0)
(2.82352 0.0445385 0)
(2.82768 0.0442652 0)
(2.83517 0.0580481 0)
(2.83309 0.0579513 0)
(2.8272 0.0494654 0)
(2.82657 0.0462892 0)
(2.82774 0.0471597 0)
(2.82733 0.0440425 0)
(3.11726 -1.17649 0)
(3.11728 -1.17627 0)
(3.11718 -1.17644 0)
(3.11732 -1.17633 0)
(3.11741 -1.17583 0)
(3.11744 -1.17591 0)
(3.11761 -1.17666 0)
(3.11759 -1.17704 0)
(3.11759 -1.17728 0)
(3.11777 -1.17811 0)
(3.11827 -1.17881 0)
(3.1183 -1.17907 0)
(3.11824 -1.17918 0)
(3.11813 -1.17888 0)
(3.11746 -1.17837 0)
(3.11623 -1.17815 0)
(3.11536 -1.17831 0)
(3.11416 -1.17849 0)
(3.11241 -1.17843 0)
(3.11076 -1.17846 0)
(3.11115 -1.17899 0)
(3.11259 -1.17954 0)
(3.11509 -1.18012 0)
(3.11609 -1.18013 0)
(3.1184 -1.1792 0)
(3.12049 -1.17663 0)
(3.11982 -1.17401 0)
(3.11852 -1.17348 0)
(3.11763 -1.17444 0)
(3.11817 -1.17811 0)
(3.12002 -1.18097 0)
(3.12032 -1.17986 0)
(3.12074 -1.17879 0)
(3.11792 -1.17995 0)
(3.11634 -1.18261 0)
(3.11371 -1.18334 0)
(3.11067 -1.18288 0)
(3.09269 -1.12106 0)
(3.05172 -0.83293 0)
(2.96169 -0.367116 0)
(2.93288 -0.174299 0)
(2.87878 -0.0251847 0)
(2.85424 0.0334412 0)
(2.84754 0.0519298 0)
(2.84081 0.0664593 0)
(2.82908 0.0516737 0)
(2.82453 0.0384513 0)
(2.82943 0.0437909 0)
(2.83017 0.0469671 0)
(2.82755 0.0418499 0)
(3.11824 -1.17559 0)
(3.11843 -1.17568 0)
(3.11855 -1.17575 0)
(3.11884 -1.17586 0)
(3.11908 -1.17599 0)
(3.11939 -1.17616 0)
(3.11966 -1.17644 0)
(3.11975 -1.17683 0)
(3.11994 -1.1773 0)
(3.12024 -1.17808 0)
(3.11998 -1.1793 0)
(3.11959 -1.18026 0)
(3.11918 -1.18069 0)
(3.11802 -1.18015 0)
(3.11642 -1.17937 0)
(3.11569 -1.17923 0)
(3.11472 -1.17908 0)
(3.11405 -1.17913 0)
(3.11202 -1.17937 0)
(3.11114 -1.18068 0)
(3.11174 -1.18162 0)
(3.11323 -1.182 0)
(3.11548 -1.1824 0)
(3.11649 -1.18268 0)
(3.12074 -1.18107 0)
(3.12298 -1.17556 0)
(3.12046 -1.17151 0)
(3.11812 -1.17294 0)
(3.11778 -1.17501 0)
(3.119 -1.18026 0)
(3.1202 -1.18406 0)
(3.11997 -1.18178 0)
(3.11973 -1.18035 0)
(3.11426 -1.18303 0)
(3.11099 -1.1865 0)
(3.1086 -1.18646 0)
(3.10814 -1.18343 0)
(3.10886 -1.17998 0)
(3.11314 -1.17776 0)
(3.09828 -1.11685 0)
(3.04548 -0.788845 0)
(2.93885 -0.261794 0)
(2.91221 -0.0721505 0)
(2.87217 0.106939 0)
(2.83229 0.0812837 0)
(2.83286 0.0509637 0)
(2.83628 0.0471333 0)
(2.83989 0.0512425 0)
(2.83552 0.0482869 0)
(2.8304 0.0405448 0)
(3.1185 -1.17802 0)
(3.11861 -1.17814 0)
(3.11871 -1.1783 0)
(3.11899 -1.17859 0)
(3.11915 -1.17859 0)
(3.11922 -1.17862 0)
(3.11924 -1.17869 0)
(3.11939 -1.17893 0)
(3.1199 -1.17944 0)
(3.11967 -1.17998 0)
(3.11936 -1.18005 0)
(3.11887 -1.18015 0)
(3.11734 -1.18019 0)
(3.11661 -1.18027 0)
(3.11578 -1.17991 0)
(3.11493 -1.17994 0)
(3.11405 -1.18145 0)
(3.11389 -1.18217 0)
(3.11418 -1.1834 0)
(3.11431 -1.18494 0)
(3.11621 -1.18671 0)
(3.11742 -1.18698 0)
(3.11907 -1.18715 0)
(3.1193 -1.18734 0)
(3.12286 -1.18508 0)
(3.12427 -1.17649 0)
(3.11995 -1.16977 0)
(3.11653 -1.17278 0)
(3.11644 -1.17939 0)
(3.11723 -1.1843 0)
(3.11857 -1.1851 0)
(3.11751 -1.18215 0)
(3.11449 -1.18235 0)
(3.10989 -1.18537 0)
(3.10642 -1.18675 0)
(3.1057 -1.18666 0)
(3.10723 -1.18426 0)
(3.11068 -1.17774 0)
(3.11395 -1.17427 0)
(3.11445 -1.17427 0)
(3.11374 -1.18019 0)
(3.09451 -1.09849 0)
(3.02256 -0.702629 0)
(2.96325 -0.273115 0)
(2.90305 -0.0739592 0)
(2.86972 0.0166335 0)
(2.86243 0.042179 0)
(2.84629 0.0548051 0)
(2.83508 0.0410379 0)
(2.83732 0.0347829 0)
(3.11506 -1.1858 0)
(3.11515 -1.18563 0)
(3.11539 -1.18534 0)
(3.11595 -1.18459 0)
(3.11606 -1.18422 0)
(3.11627 -1.18389 0)
(3.11649 -1.18385 0)
(3.11715 -1.18376 0)
(3.11823 -1.18348 0)
(3.11947 -1.18333 0)
(3.11881 -1.18168 0)
(3.11665 -1.18039 0)
(3.11538 -1.17993 0)
(3.1145 -1.17922 0)
(3.11413 -1.17811 0)
(3.1146 -1.17949 0)
(3.11719 -1.18237 0)
(3.11813 -1.1834 0)
(3.11886 -1.186 0)
(3.12113 -1.18889 0)
(3.12324 -1.19028 0)
(3.12154 -1.18882 0)
(3.12111 -1.1886 0)
(3.12066 -1.18804 0)
(3.12242 -1.18479 0)
(3.12316 -1.1769 0)
(3.11964 -1.17073 0)
(3.11579 -1.17354 0)
(3.11563 -1.1811 0)
(3.11454 -1.18518 0)
(3.1109 -1.18458 0)
(3.10307 -1.18198 0)
(3.10216 -1.18301 0)
(3.1049 -1.18519 0)
(3.11001 -1.18212 0)
(3.11099 -1.18007 0)
(3.1105 -1.17975 0)
(3.1171 -1.16972 0)
(3.1196 -1.16447 0)
(3.11518 -1.16768 0)
(3.11426 -1.16949 0)
(3.11682 -1.16612 0)
(3.11949 -1.15993 0)
(3.09163 -1.00539 0)
(2.98452 -0.454992 0)
(2.95706 -0.17003 0)
(2.8789 0.0991846 0)
(2.83139 0.0625572 0)
(2.84889 0.0423642 0)
(2.85466 0.0402258 0)
(3.11495 -1.19012 0)
(3.11387 -1.19078 0)
(3.11556 -1.18936 0)
(3.11732 -1.18627 0)
(3.11697 -1.18444 0)
(3.11748 -1.18087 0)
(3.11779 -1.17908 0)
(3.11767 -1.17911 0)
(3.11758 -1.17829 0)
(3.11803 -1.17562 0)
(3.11835 -1.17231 0)
(3.11618 -1.17019 0)
(3.11509 -1.17027 0)
(3.11407 -1.17097 0)
(3.11435 -1.17054 0)
(3.11602 -1.1731 0)
(3.12022 -1.17834 0)
(3.1215 -1.18073 0)
(3.12317 -1.18418 0)
(3.12321 -1.18899 0)
(3.12391 -1.19138 0)
(3.12265 -1.18662 0)
(3.12183 -1.18484 0)
(3.11978 -1.18243 0)
(3.11778 -1.17669 0)
(3.1138 -1.17129 0)
(3.11176 -1.17039 0)
(3.11121 -1.17494 0)
(3.10942 -1.18333 0)
(3.10726 -1.18822 0)
(3.10004 -1.18039 0)
(3.099 -1.17247 0)
(3.10112 -1.17217 0)
(3.11195 -1.16999 0)
(3.11735 -1.16712 0)
(3.1199 -1.16079 0)
(3.12325 -1.15164 0)
(3.12491 -1.15091 0)
(3.12281 -1.15178 0)
(3.11465 -1.16026 0)
(3.1177 -1.15049 0)
(3.12156 -1.13765 0)
(3.12724 -1.13069 0)
(3.12821 -1.13081 0)
(3.12165 -1.10398 0)
(3.06641 -0.811069 0)
(3.00115 -0.355923 0)
(2.92467 -0.103491 0)
(2.89593 0.01677 0)
(2.87384 0.0420337 0)
(3.11813 -1.18128 0)
(3.11734 -1.18067 0)
(3.11698 -1.18142 0)
(3.11587 -1.183 0)
(3.119 -1.1792 0)
(3.11981 -1.17177 0)
(3.12002 -1.17051 0)
(3.11825 -1.16772 0)
(3.11694 -1.16151 0)
(3.11717 -1.15722 0)
(3.11644 -1.15748 0)
(3.11497 -1.15958 0)
(3.11384 -1.16304 0)
(3.11251 -1.16697 0)
(3.11235 -1.16771 0)
(3.11346 -1.16889 0)
(3.11777 -1.17627 0)
(3.1188 -1.18179 0)
(3.12074 -1.18409 0)
(3.12147 -1.18563 0)
(3.11908 -1.18636 0)
(3.1149 -1.18084 0)
(3.10588 -1.17091 0)
(3.10414 -1.16144 0)
(3.10223 -1.15601 0)
(3.10055 -1.15889 0)
(3.10629 -1.16618 0)
(3.11034 -1.16905 0)
(3.11447 -1.1715 0)
(3.11354 -1.1708 0)
(3.10981 -1.16496 0)
(3.1124 -1.1524 0)
(3.11473 -1.14952 0)
(3.1203 -1.14327 0)
(3.12515 -1.13494 0)
(3.12395 -1.13592 0)
(3.11898 -1.14124 0)
(3.11862 -1.13859 0)
(3.11836 -1.13946 0)
(3.12054 -1.13479 0)
(3.12506 -1.11319 0)
(3.12979 -1.1037 0)
(3.13125 -1.10353 0)
(3.13194 -1.09689 0)
(3.13299 -1.08255 0)
(3.12916 -1.08731 0)
(3.1099 -0.979759 0)
(3.02361 -0.493963 0)
(2.97215 -0.171809 0)
(2.89501 0.0164867 0)
(3.12145 -1.1241 0)
(3.1194 -1.12501 0)
(3.11828 -1.12495 0)
(3.11737 -1.1248 0)
(3.11675 -1.12454 0)
(3.11494 -1.12259 0)
(3.11234 -1.11965 0)
(3.10799 -1.11322 0)
(3.10886 -1.10872 0)
(3.1101 -1.10776 0)
(3.10752 -1.11016 0)
(3.10576 -1.11458 0)
(3.10714 -1.11471 0)
(3.10287 -1.12256 0)
(3.10187 -1.13642 0)
(3.10587 -1.13839 0)
(3.10875 -1.13988 0)
(3.11078 -1.14494 0)
(3.11328 -1.14612 0)
(3.11536 -1.14121 0)
(3.11715 -1.13548 0)
(3.11033 -1.14046 0)
(3.10728 -1.14497 0)
(3.10649 -1.13803 0)
(3.10584 -1.13087 0)
(3.10851 -1.13333 0)
(3.11128 -1.13521 0)
(3.11589 -1.13681 0)
(3.12261 -1.13551 0)
(3.1284 -1.12879 0)
(3.12922 -1.12701 0)
(3.12978 -1.12129 0)
(3.12707 -1.11594 0)
(3.12223 -1.1127 0)
(3.12157 -1.10487 0)
(3.12346 -1.09968 0)
(3.1219 -1.1012 0)
(3.12307 -1.09931 0)
(3.12764 -1.08491 0)
(3.13189 -1.07475 0)
(3.13493 -1.07116 0)
(3.1345 -1.06907 0)
(3.135 -1.06116 0)
(3.13376 -1.04974 0)
(3.12847 -1.04702 0)
(3.12802 -1.04201 0)
(3.12899 -1.03253 0)
(3.128 -1.0088 0)
(3.09531 -0.797451 0)
(2.93372 -0.142159 0)
(3.10886 -1.15836 0)
(3.10725 -1.15301 0)
(3.10701 -1.14217 0)
(3.10912 -1.1382 0)
(3.10847 -1.13768 0)
(3.10665 -1.13497 0)
(3.1037 -1.12611 0)
(3.10753 -1.11364 0)
(3.11073 -1.11064 0)
(3.113 -1.11156 0)
(3.11271 -1.11703 0)
(3.11192 -1.1218 0)
(3.112 -1.12484 0)
(3.11174 -1.13017 0)
(3.11202 -1.13219 0)
(3.11252 -1.13191 0)
(3.11391 -1.13244 0)
(3.11494 -1.13438 0)
(3.11747 -1.13393 0)
(3.12104 -1.13337 0)
(3.12442 -1.12811 0)
(3.12425 -1.11886 0)
(3.12368 -1.10998 0)
(3.12409 -1.10995 0)
(3.12319 -1.10937 0)
(3.1199 -1.10379 0)
(3.12003 -1.09673 0)
(3.12026 -1.09185 0)
(3.1193 -1.0892 0)
(3.12657 -1.07209 0)
(3.13368 -1.06297 0)
(3.1398 -1.05643 0)
(3.13852 -1.05301 0)
(3.12779 -1.05888 0)
(3.12089 -1.0629 0)
(3.12363 -1.05261 0)
(3.1289 -1.04897 0)
(3.1329 -1.04647 0)
(3.13702 -1.03794 0)
(3.1373 -1.03027 0)
(3.13922 -1.02741 0)
(3.13697 -1.01874 0)
(3.13591 -1.00578 0)
(3.13106 -1.00359 0)
(3.1297 -1.00341 0)
(3.13252 -0.995184 0)
(3.13552 -0.986194 0)
(3.14113 -0.974305 0)
(3.13846 -0.980599 0)
(3.07149 -0.642431 0)
(3.11682 -1.02323 0)
(3.11726 -1.02326 0)
(3.11887 -1.02382 0)
(3.12212 -1.02528 0)
(3.1243 -1.02847 0)
(3.12584 -1.03263 0)
(3.12654 -1.03328 0)
(3.12969 -1.03451 0)
(3.13107 -1.03577 0)
(3.13139 -1.03849 0)
(3.1322 -1.04305 0)
(3.13365 -1.04847 0)
(3.13692 -1.05318 0)
(3.13405 -1.04119 0)
(3.13069 -1.03192 0)
(3.12723 -1.01719 0)
(3.13005 -1.00423 0)
(3.13278 -0.995953 0)
(3.13142 -0.991472 0)
(3.1309 -0.990502 0)
(3.13106 -0.984135 0)
(3.13412 -0.973034 0)
(3.13637 -0.968272 0)
(3.13917 -0.967387 0)
(3.14175 -0.977844 0)
(3.13936 -0.984851 0)
(3.13493 -0.985868 0)
(3.12716 -0.986214 0)
(3.12223 -0.987137 0)
(3.12219 -0.98857 0)
(3.12632 -0.993715 0)
(3.13229 -0.996444 0)
(3.13805 -0.99133 0)
(3.13712 -0.991919 0)
(3.13672 -0.993282 0)
(3.13794 -0.98855 0)
(3.13956 -0.983653 0)
(3.14102 -0.977461 0)
(3.14426 -0.971217 0)
(3.13912 -0.963024 0)
(3.13954 -0.955079 0)
(3.13491 -0.955308 0)
(3.13268 -0.952556 0)
(3.13129 -0.962631 0)
(3.13585 -0.953009 0)
(3.13869 -0.948877 0)
(3.14021 -0.940853 0)
(3.13909 -0.936905 0)
(3.13458 -0.940377 0)
(3.13168 -0.928486 0)
(3.13626 -0.955719 0)
(3.13768 -0.952848 0)
(3.13932 -0.949212 0)
(3.13878 -0.944613 0)
(3.13862 -0.944302 0)
(3.13827 -0.945013 0)
(3.13904 -0.943941 0)
(3.13954 -0.941705 0)
(3.14024 -0.94006 0)
(3.13919 -0.933685 0)
(3.13845 -0.929347 0)
(3.13798 -0.928651 0)
(3.13714 -0.928565 0)
(3.13136 -0.936572 0)
(3.12938 -0.949505 0)
(3.13054 -0.95202 0)
(3.13231 -0.948505 0)
(3.12819 -0.951348 0)
(3.12885 -0.956531 0)
(3.13075 -0.961765 0)
(3.12921 -0.968741 0)
(3.12997 -0.974083 0)
(3.13139 -0.973974 0)
(3.12865 -0.970582 0)
(3.12876 -0.961234 0)
(3.13241 -0.953878 0)
(3.13502 -0.948376 0)
(3.13772 -0.945612 0)
(3.13964 -0.946586 0)
(3.14069 -0.949297 0)
(3.13818 -0.949209 0)
(3.13716 -0.946158 0)
(3.14004 -0.942831 0)
(3.14229 -0.934855 0)
(3.1444 -0.924617 0)
(3.14579 -0.920773 0)
(3.1438 -0.908778 0)
(3.14179 -0.905721 0)
(3.13749 -0.904255 0)
(3.1334 -0.910416 0)
(3.13364 -0.911504 0)
(3.13157 -0.921937 0)
(3.1355 -0.917995 0)
(3.13929 -0.912654 0)
(3.14185 -0.906789 0)
(3.14316 -0.894032 0)
(3.14047 -0.892108 0)
(3.1352 -0.891722 0)
(3.13247 -0.8972 0)
(3.13489 -0.889624 0)
(3.14025 -0.853731 0)
(3.13981 -0.854881 0)
(3.13985 -0.85642 0)
(3.13941 -0.855521 0)
(3.13867 -0.85286 0)
(3.13836 -0.851867 0)
(3.13913 -0.852122 0)
(3.13948 -0.853398 0)
(3.13876 -0.859165 0)
(3.13968 -0.863912 0)
(3.14006 -0.86408 0)
(3.14057 -0.861618 0)
(3.1407 -0.860439 0)
(3.1422 -0.8584 0)
(3.14306 -0.855221 0)
(3.14231 -0.853272 0)
(3.1427 -0.849954 0)
(3.14266 -0.847208 0)
(3.14482 -0.842335 0)
(3.14602 -0.836044 0)
(3.14416 -0.830265 0)
(3.14227 -0.826334 0)
(3.1412 -0.826252 0)
(3.13808 -0.829222 0)
(3.13861 -0.835677 0)
(3.14025 -0.84617 0)
(3.14083 -0.849073 0)
(3.14601 -0.846092 0)
(3.14936 -0.838338 0)
(3.1481 -0.823436 0)
(3.14238 -0.814574 0)
(3.14029 -0.819805 0)
(3.13931 -0.825529 0)
(3.13895 -0.827942 0)
(3.13712 -0.830765 0)
(3.13701 -0.834573 0)
(3.13617 -0.843173 0)
(3.13713 -0.846121 0)
(3.13376 -0.852003 0)
(3.13662 -0.85343 0)
(3.1379 -0.85265 0)
(3.14127 -0.849211 0)
(3.14362 -0.843567 0)
(3.14444 -0.8374 0)
(3.14106 -0.83028 0)
(3.13771 -0.833649 0)
(3.13327 -0.840127 0)
(3.13254 -0.845619 0)
(3.13506 -0.843796 0)
(3.13819 -0.839709 0)
(3.14002 -0.745676 0)
(3.13972 -0.742608 0)
(3.13975 -0.742984 0)
(3.14012 -0.744372 0)
(3.14034 -0.745403 0)
(3.1396 -0.748831 0)
(3.1392 -0.750037 0)
(3.14052 -0.749388 0)
(3.1415 -0.745958 0)
(3.14027 -0.741337 0)
(3.13905 -0.74193 0)
(3.13977 -0.746597 0)
(3.1404 -0.748528 0)
(3.13984 -0.748761 0)
(3.13958 -0.748951 0)
(3.13942 -0.750521 0)
(3.13951 -0.751602 0)
(3.13837 -0.753518 0)
(3.13799 -0.755625 0)
(3.13876 -0.757448 0)
(3.13879 -0.761128 0)
(3.13848 -0.763028 0)
(3.13874 -0.764315 0)
(3.14191 -0.762046 0)
(3.14307 -0.757814 0)
(3.14142 -0.756643 0)
(3.13895 -0.757777 0)
(3.13867 -0.758473 0)
(3.13552 -0.763999 0)
(3.13373 -0.774745 0)
(3.13605 -0.780346 0)
(3.13662 -0.780428 0)
(3.13666 -0.778976 0)
(3.13638 -0.777903 0)
(3.13705 -0.78215 0)
(3.13654 -0.785419 0)
(3.1366 -0.786221 0)
(3.13882 -0.78365 0)
(3.1404 -0.783378 0)
(3.14304 -0.775516 0)
(3.14108 -0.775019 0)
(3.14217 -0.76453 0)
(3.13814 -0.767328 0)
(3.13592 -0.771834 0)
(3.1337 -0.779015 0)
(3.13156 -0.791829 0)
(3.13274 -0.794014 0)
(3.13614 -0.793798 0)
(3.13878 -0.787816 0)
(3.1383 -0.788309 0)
(3.13471 -0.645025 0)
(3.13464 -0.644743 0)
(3.1347 -0.643848 0)
(3.13526 -0.641913 0)
(3.1348 -0.639072 0)
(3.13495 -0.639634 0)
(3.13564 -0.641251 0)
(3.13532 -0.644029 0)
(3.13404 -0.64594 0)
(3.13474 -0.646414 0)
(3.1353 -0.645879 0)
(3.13558 -0.646328 0)
(3.13527 -0.647244 0)
(3.13488 -0.647772 0)
(3.13476 -0.648986 0)
(3.13482 -0.650121 0)
(3.1349 -0.650523 0)
(3.1349 -0.651462 0)
(3.13491 -0.651768 0)
(3.13491 -0.652636 0)
(3.13492 -0.653641 0)
(3.13455 -0.65284 0)
(3.134 -0.653964 0)
(3.13454 -0.657912 0)
(3.13423 -0.660156 0)
(3.13435 -0.662387 0)
(3.13455 -0.666048 0)
(3.13516 -0.667459 0)
(3.13653 -0.663462 0)
(3.1354 -0.660139 0)
(3.13505 -0.66405 0)
(3.13392 -0.670588 0)
(3.13365 -0.672654 0)
(3.13504 -0.67123 0)
(3.13607 -0.668558 0)
(3.1356 -0.671426 0)
(3.13434 -0.671077 0)
(3.13368 -0.674242 0)
(3.13271 -0.674449 0)
(3.13349 -0.68078 0)
(3.13109 -0.68974 0)
(3.13177 -0.697664 0)
(3.13249 -0.707348 0)
(3.13258 -0.71763 0)
(3.13208 -0.724614 0)
(3.13391 -0.72681 0)
(3.13663 -0.724317 0)
(3.13774 -0.726579 0)
(3.13381 -0.723694 0)
(3.13527 -0.736437 0)
(3.12643 -0.556363 0)
(3.12635 -0.55644 0)
(3.12645 -0.5576 0)
(3.12661 -0.558069 0)
(3.12665 -0.55981 0)
(3.1262 -0.560945 0)
(3.12665 -0.560796 0)
(3.12657 -0.55999 0)
(3.12649 -0.560045 0)
(3.1267 -0.56146 0)
(3.1265 -0.562001 0)
(3.12641 -0.561877 0)
(3.1265 -0.562482 0)
(3.12656 -0.563295 0)
(3.12653 -0.56425 0)
(3.12656 -0.564698 0)
(3.12652 -0.565113 0)
(3.12671 -0.566928 0)
(3.12666 -0.568517 0)
(3.12651 -0.569007 0)
(3.12653 -0.570341 0)
(3.12661 -0.572589 0)
(3.12647 -0.574077 0)
(3.12636 -0.575422 0)
(3.1264 -0.577041 0)
(3.12663 -0.578182 0)
(3.12693 -0.579395 0)
(3.12684 -0.580839 0)
(3.12721 -0.584373 0)
(3.12764 -0.589148 0)
(3.12774 -0.592883 0)
(3.12774 -0.592258 0)
(3.12816 -0.595841 0)
(3.12845 -0.602011 0)
(3.1281 -0.605475 0)
(3.12809 -0.609597 0)
(3.12865 -0.616529 0)
(3.12872 -0.621648 0)
(3.12893 -0.627217 0)
(3.12909 -0.633365 0)
(3.12913 -0.639756 0)
(3.12944 -0.644733 0)
(3.13027 -0.649021 0)
(3.13152 -0.649939 0)
(3.13199 -0.652966 0)
(3.13198 -0.651191 0)
(3.13243 -0.656825 0)
(3.1286 -0.660254 0)
(3.1312 -0.67386 0)
(3.13278 -0.682966 0)
(3.11892 -0.518569 0)
(3.11896 -0.518648 0)
(3.11903 -0.518657 0)
(3.11908 -0.518568 0)
(3.11909 -0.518457 0)
(3.11912 -0.518521 0)
(3.11914 -0.518596 0)
(3.11914 -0.518764 0)
(3.11912 -0.518813 0)
(3.11915 -0.518956 0)
(3.1192 -0.519265 0)
(3.11927 -0.519334 0)
(3.11946 -0.519242 0)
(3.11962 -0.519242 0)
(3.12001 -0.519639 0)
(3.12016 -0.520121 0)
(3.1204 -0.520198 0)
(3.12059 -0.520429 0)
(3.12046 -0.520541 0)
(3.12018 -0.520554 0)
(3.12022 -0.521373 0)
(3.12029 -0.522502 0)
(3.12022 -0.523717 0)
(3.12 -0.525271 0)
(3.11983 -0.525815 0)
(3.11981 -0.526401 0)
(3.12 -0.52733 0)
(3.12026 -0.528184 0)
(3.12058 -0.529162 0)
(3.12086 -0.529641 0)
(3.12126 -0.530761 0)
(3.12185 -0.533616 0)
(3.12213 -0.535657 0)
(3.1222 -0.53732 0)
(3.12201 -0.53923 0)
(3.12187 -0.541693 0)
(3.12203 -0.544678 0)
(3.12243 -0.547828 0)
(3.12291 -0.55022 0)
(3.12328 -0.554127 0)
(3.12316 -0.557085 0)
(3.12318 -0.562386 0)
(3.1233 -0.565677 0)
(3.12423 -0.573054 0)
(3.12422 -0.577478 0)
(3.12563 -0.589142 0)
(3.12608 -0.596618 0)
(3.12741 -0.60868 0)
(3.12888 -0.615145 0)
(3.13072 -0.626317 0)
(3.11656 -0.510919 0)
(3.11659 -0.510896 0)
(3.11665 -0.510787 0)
(3.11668 -0.510792 0)
(3.11671 -0.510838 0)
(3.11688 -0.510731 0)
(3.11693 -0.510637 0)
(3.11696 -0.51061 0)
(3.11699 -0.510569 0)
(3.11705 -0.510546 0)
(3.11715 -0.510531 0)
(3.11724 -0.510444 0)
(3.11732 -0.510422 0)
(3.11763 -0.510614 0)
(3.11803 -0.510999 0)
(3.11821 -0.511281 0)
(3.11843 -0.511307 0)
(3.11859 -0.511081 0)
(3.11853 -0.510826 0)
(3.1183 -0.51098 0)
(3.11809 -0.51147 0)
(3.11797 -0.511907 0)
(3.11821 -0.511939 0)
(3.11819 -0.511803 0)
(3.11799 -0.511854 0)
(3.11769 -0.511898 0)
(3.11741 -0.511964 0)
(3.1173 -0.512138 0)
(3.11734 -0.512325 0)
(3.11743 -0.512573 0)
(3.11762 -0.512863 0)
(3.11799 -0.513283 0)
(3.11842 -0.514054 0)
(3.11845 -0.514569 0)
(3.11833 -0.51488 0)
(3.1181 -0.515245 0)
(3.11797 -0.516733 0)
(3.11801 -0.518441 0)
(3.11836 -0.52013 0)
(3.11873 -0.521352 0)
(3.11919 -0.524004 0)
(3.11927 -0.526413 0)
(3.11962 -0.530289 0)
(3.1203 -0.532836 0)
(3.12141 -0.537535 0)
(3.12243 -0.541538 0)
(3.12338 -0.546962 0)
(3.12437 -0.552184 0)
(3.125 -0.556729 0)
(3.12582 -0.569368 0)
(3.11595 -0.50681 0)
(3.11603 -0.506588 0)
(3.11594 -0.506476 0)
(3.11626 -0.506833 0)
(3.11629 -0.507239 0)
(3.11622 -0.507421 0)
(3.11621 -0.507447 0)
(3.11617 -0.507569 0)
(3.11611 -0.507781 0)
(3.11613 -0.508054 0)
(3.11618 -0.508105 0)
(3.11608 -0.508309 0)
(3.11594 -0.508456 0)
(3.11573 -0.508117 0)
(3.11561 -0.507767 0)
(3.1155 -0.50746 0)
(3.11564 -0.50707 0)
(3.11558 -0.506346 0)
(3.11541 -0.50608 0)
(3.11546 -0.506265 0)
(3.11587 -0.50668 0)
(3.1163 -0.507173 0)
(3.11737 -0.507361 0)
(3.11861 -0.506515 0)
(3.11878 -0.506102 0)
(3.11854 -0.506437 0)
(3.11761 -0.507119 0)
(3.11633 -0.507224 0)
(3.11522 -0.507329 0)
(3.11505 -0.508024 0)
(3.1152 -0.508529 0)
(3.11575 -0.508887 0)
(3.11656 -0.508168 0)
(3.11736 -0.507987 0)
(3.11757 -0.508574 0)
(3.11743 -0.509176 0)
(3.11695 -0.509695 0)
(3.11684 -0.509943 0)
(3.1172 -0.510204 0)
(3.11754 -0.510609 0)
(3.11811 -0.510928 0)
(3.11848 -0.511328 0)
(3.11869 -0.511941 0)
(3.1192 -0.512303 0)
(3.11999 -0.513188 0)
(3.12047 -0.514355 0)
(3.12059 -0.516605 0)
(3.12044 -0.5186 0)
(3.12067 -0.522319 0)
(3.12075 -0.530152 0)
(3.11819 -0.49857 0)
(3.11815 -0.498145 0)
(3.11819 -0.498231 0)
(3.11792 -0.498322 0)
(3.11738 -0.498402 0)
(3.11719 -0.498429 0)
(3.11662 -0.498451 0)
(3.11609 -0.498368 0)
(3.11571 -0.4982 0)
(3.11504 -0.498151 0)
(3.11444 -0.498856 0)
(3.11418 -0.499681 0)
(3.11427 -0.5002 0)
(3.11422 -0.501441 0)
(3.11402 -0.502221 0)
(3.11459 -0.503322 0)
(3.11509 -0.504691 0)
(3.11515 -0.505245 0)
(3.11542 -0.506802 0)
(3.11513 -0.509445 0)
(3.11502 -0.511714 0)
(3.11529 -0.512919 0)
(3.11578 -0.513743 0)
(3.11671 -0.513874 0)
(3.11726 -0.509866 0)
(3.11703 -0.504656 0)
(3.11658 -0.503442 0)
(3.11678 -0.503919 0)
(3.11759 -0.50525 0)
(3.11777 -0.507647 0)
(3.11717 -0.510626 0)
(3.1158 -0.511001 0)
(3.11531 -0.509453 0)
(3.11625 -0.507925 0)
(3.11711 -0.508542 0)
(3.11746 -0.509504 0)
(3.1178 -0.509836 0)
(3.11773 -0.50948 0)
(3.11769 -0.509292 0)
(3.11823 -0.509144 0)
(3.11889 -0.509105 0)
(3.11938 -0.508687 0)
(3.11941 -0.508727 0)
(3.11946 -0.508494 0)
(3.11951 -0.50823 0)
(3.11924 -0.508455 0)
(3.11839 -0.509574 0)
(3.11822 -0.51086 0)
(3.11846 -0.51329 0)
(3.11822 -0.515449 0)
(3.11552 -0.486646 0)
(3.11541 -0.488262 0)
(3.11532 -0.490238 0)
(3.11491 -0.491183 0)
(3.11454 -0.492625 0)
(3.11437 -0.492832 0)
(3.11361 -0.49523 0)
(3.11338 -0.497701 0)
(3.11334 -0.498343 0)
(3.11482 -0.499563 0)
(3.11562 -0.499967 0)
(3.11635 -0.501258 0)
(3.11655 -0.502503 0)
(3.11702 -0.503848 0)
(3.11741 -0.504004 0)
(3.118 -0.502026 0)
(3.11917 -0.499018 0)
(3.12092 -0.492523 0)
(3.11912 -0.485304 0)
(3.11514 -0.479416 0)
(3.11358 -0.476882 0)
(3.1125 -0.477258 0)
(3.11303 -0.480025 0)
(3.11189 -0.483963 0)
(3.11201 -0.488089 0)
(3.11494 -0.492177 0)
(3.11508 -0.498306 0)
(3.1162 -0.501951 0)
(3.11739 -0.501829 0)
(3.11901 -0.497638 0)
(3.11823 -0.490057 0)
(3.11421 -0.48564 0)
(3.11376 -0.491403 0)
(3.11538 -0.497089 0)
(3.11602 -0.497379 0)
(3.11615 -0.494691 0)
(3.11656 -0.493822 0)
(3.11681 -0.495123 0)
(3.11596 -0.495769 0)
(3.11571 -0.495939 0)
(3.11564 -0.495985 0)
(3.11597 -0.496885 0)
(3.11572 -0.49874 0)
(3.11611 -0.500078 0)
(3.11605 -0.502204 0)
(3.1169 -0.503779 0)
(3.11716 -0.505785 0)
(3.11816 -0.508422 0)
(3.11854 -0.509135 0)
(3.11976 -0.509635 0)
(3.11159 -0.449506 0)
(3.11126 -0.450706 0)
(3.11092 -0.451436 0)
(3.11203 -0.450664 0)
(3.11178 -0.449266 0)
(3.11099 -0.447536 0)
(3.11151 -0.445604 0)
(3.11087 -0.442493 0)
(3.11076 -0.442183 0)
(3.11081 -0.443028 0)
(3.11042 -0.442999 0)
(3.11058 -0.443468 0)
(3.11051 -0.443778 0)
(3.10989 -0.444375 0)
(3.11042 -0.446787 0)
(3.10939 -0.450237 0)
(3.10836 -0.454412 0)
(3.10883 -0.45642 0)
(3.10957 -0.456865 0)
(3.11024 -0.459407 0)
(3.11033 -0.464534 0)