/*--------------------------------*- C++ -*----------------------------------*\
  =========                 |
  \\      /  F ield         | OpenFOAM: The Open Source CFD Toolbox
   \\    /   O peration     | Website:  https://openfoam.org
    \\  /    A nd           | Version:  7
     \\/     M anipulation  |
\*---------------------------------------------------------------------------*/
FoamFile
{
    version     2.0;
    format      ascii;
    class       volVectorField;
    location    "1";
    object      U;
}
// * * * * * * * * * * * * * * * * * * * * * * * * * * * * * * * * * * * * * //

dimensions      [0 1 -1 0 0 0 0];

internalField   nonuniform List<vector> 
24000
(
(2.92366 -0.770009 0)
(2.91192 -0.709134 0)
(2.89995 -0.62351 0)
(2.89892 -0.588926 0)
(2.88828 -0.514782 0)
(2.88693 -0.462816 0)
(2.88243 -0.398385 0)
(2.8844 -0.364194 0)
(2.87681 -0.299861 0)
(2.87726 -0.26721 0)
(2.86958 -0.209469 0)
(2.86893 -0.183755 0)
(2.86056 -0.133161 0)
(2.858 -0.114754 0)
(2.85189 -0.076668 0)
(2.85014 -0.0679968 0)
(2.84919 -0.0455403 0)
(2.85138 -0.0454462 0)
(2.85174 -0.0409326 0)
(2.8542 -0.0420777 0)
(2.85407 -0.0428571 0)
(2.85516 -0.0409919 0)
(2.85778 -0.0386514 0)
(2.86135 -0.0314264 0)
(2.8585 -0.0312442 0)
(2.85056 -0.0255809 0)
(2.84519 -0.0244133 0)
(2.83451 -0.0290697 0)
(2.82756 -0.0421175 0)
(2.83114 -0.0367567 0)
(2.83349 -0.0285377 0)
(2.83713 -0.0130153 0)
(2.83258 0.00171352 0)
(2.82139 0.00537333 0)
(2.80789 0.00247837 0)
(2.79858 0.00491376 0)
(2.79356 0.00797522 0)
(2.79415 0.0113138 0)
(2.79331 0.00901058 0)
(2.79057 0.00661761 0)
(2.79248 0.00484991 0)
(2.79523 0.0057982 0)
(2.80383 0.0108607 0)
(2.81324 0.0174411 0)
(2.83305 0.0185823 0)
(2.84701 0.020389 0)
(2.86653 0.0345994 0)
(2.90252 0.0609235 0)
(2.94056 0.0934891 0)
(2.9532 0.0688139 0)
(2.93094 -0.822283 0)
(2.93027 -0.82182 0)
(2.92924 -0.821345 0)
(2.92824 -0.820197 0)
(2.9271 -0.818918 0)
(2.92507 -0.816785 0)
(2.92199 -0.81335 0)
(2.91804 -0.807298 0)
(2.91265 -0.796889 0)
(2.90605 -0.78304 0)
(2.8967 -0.758742 0)
(2.88547 -0.729444 0)
(2.86947 -0.679855 0)
(2.85279 -0.629946 0)
(2.82803 -0.545373 0)
(2.8079 -0.477867 0)
(2.7732 -0.366025 0)
(2.75546 -0.290236 0)
(2.73456 -0.185776 0)
(2.73233 -0.111005 0)
(2.72688 -0.043602 0)
(2.72741 0.00247136 0)
(2.71257 0.0451436 0)
(2.71452 0.0522144 0)
(2.7184 0.0448751 0)
(2.72198 0.0199186 0)
(2.72177 -0.0148872 0)
(2.71526 -0.0434485 0)
(2.71223 -0.0492688 0)
(2.7122 -0.0391421 0)
(2.70877 -0.0169558 0)
(2.70318 0.0103141 0)
(2.68314 0.0323762 0)
(2.67044 0.0284695 0)
(2.66897 0.0152378 0)
(2.66531 0.00862952 0)
(2.66843 0.0130726 0)
(2.67023 0.0116686 0)
(2.66905 0.00767075 0)
(2.67069 0.00269338 0)
(2.67777 0.00285694 0)
(2.68252 0.00521957 0)
(2.69209 0.0127449 0)
(2.70662 0.0165086 0)
(2.72614 0.0150452 0)
(2.73938 0.015163 0)
(2.76242 0.0296078 0)
(2.80592 0.0618868 0)
(2.86028 0.0939181 0)
(2.92166 0.0672719 0)
(2.9185 -0.816082 0)
(2.91754 -0.815551 0)
(2.9164 -0.815416 0)
(2.91535 -0.81516 0)
(2.9145 -0.814346 0)
(2.91332 -0.813846 0)
(2.91246 -0.813487 0)
(2.91158 -0.812923 0)
(2.90998 -0.811947 0)
(2.90876 -0.810938 0)
(2.90726 -0.810058 0)
(2.90509 -0.809151 0)
(2.90279 -0.807432 0)
(2.90065 -0.806027 0)
(2.896 -0.802872 0)
(2.88975 -0.795979 0)
(2.87962 -0.78134 0)
(2.86418 -0.750561 0)
(2.84105 -0.701153 0)
(2.81251 -0.620543 0)
(2.78376 -0.528106 0)
(2.75177 -0.408754 0)
(2.72472 -0.299868 0)
(2.69874 -0.208711 0)
(2.67578 -0.120298 0)
(2.67167 -0.111904 0)
(2.65724 -0.0711883 0)
(2.65965 -0.0685486 0)
(2.65377 -0.0601543 0)
(2.63454 -0.0353371 0)
(2.6296 -0.0103899 0)
(2.61123 0.00687304 0)
(2.59815 0.0113185 0)
(2.59121 0.0121985 0)
(2.58869 0.00985734 0)
(2.58745 0.0107168 0)
(2.59401 0.00809062 0)
(2.59515 0.00771609 0)
(2.59284 0.0048267 0)
(2.59876 0.0027543 0)
(2.60223 0.00488667 0)
(2.60819 0.00869066 0)
(2.61574 0.010977 0)
(2.63306 0.012561 0)
(2.64975 0.0124824 0)
(2.66415 0.0151601 0)
(2.69183 0.027039 0)
(2.74581 0.0541889 0)
(2.81098 0.0860462 0)
(2.90016 0.0615384 0)
(2.90401 -0.810006 0)
(2.90315 -0.80957 0)
(2.90204 -0.80935 0)
(2.90106 -0.808989 0)
(2.90026 -0.808233 0)
(2.8994 -0.807958 0)
(2.89834 -0.807656 0)
(2.89716 -0.806989 0)
(2.89601 -0.806531 0)
(2.89449 -0.805726 0)
(2.89282 -0.804117 0)
(2.89164 -0.803599 0)
(2.88967 -0.803004 0)
(2.88753 -0.802423 0)
(2.88603 -0.801452 0)
(2.8845 -0.80041 0)
(2.88263 -0.798875 0)
(2.88068 -0.797856 0)
(2.87806 -0.796027 0)
(2.87616 -0.794168 0)
(2.87255 -0.789423 0)
(2.86465 -0.773865 0)
(2.84751 -0.734555 0)
(2.81201 -0.643907 0)
(2.75769 -0.50271 0)
(2.71812 -0.342763 0)
(2.66375 -0.150702 0)
(2.66867 -0.0811347 0)
(2.62576 0.0252343 0)
(2.59694 0.028361 0)
(2.59106 0.0147598 0)
(2.59234 0.0017261 0)
(2.58753 0.00135375 0)
(2.57855 0.00180468 0)
(2.5684 0.00569246 0)
(2.56481 0.0141059 0)
(2.56757 0.00737656 0)
(2.56625 0.000579528 0)
(2.5663 -0.00159346 0)
(2.5676 0.00181928 0)
(2.5705 0.00490235 0)
(2.57735 0.00767986 0)
(2.58288 0.0110913 0)
(2.59718 0.0134631 0)
(2.61254 0.0127425 0)
(2.6292 0.0132229 0)
(2.66241 0.0234499 0)
(2.7217 0.0449715 0)
(2.79314 0.07138 0)
(2.8913 0.0509451 0)
(2.89085 -0.805034 0)
(2.8904 -0.804612 0)
(2.88951 -0.804132 0)
(2.88885 -0.804052 0)
(2.88845 -0.803664 0)
(2.88801 -0.80308 0)
(2.88722 -0.802788 0)
(2.88654 -0.802376 0)
(2.88615 -0.80184 0)
(2.88545 -0.801468 0)
(2.88443 -0.8008 0)
(2.88398 -0.800022 0)
(2.88381 -0.799415 0)
(2.88305 -0.798599 0)
(2.88191 -0.797946 0)
(2.88099 -0.796745 0)
(2.88029 -0.795842 0)
(2.87934 -0.794644 0)
(2.87827 -0.793939 0)
(2.87716 -0.792844 0)
(2.87545 -0.793109 0)
(2.87395 -0.791947 0)
(2.87264 -0.791923 0)
(2.8722 -0.789854 0)
(2.86906 -0.783402 0)
(2.85657 -0.755228 0)
(2.82531 -0.680872 0)
(2.78156 -0.541106 0)
(2.72117 -0.341058 0)
(2.69469 -0.226445 0)
(2.66691 -0.101958 0)
(2.63165 -0.0397114 0)
(2.60791 -0.0195008 0)
(2.58872 -0.00662134 0)
(2.57593 0.015878 0)
(2.56885 0.0168385 0)
(2.56075 0.00402094 0)
(2.5554 -0.00982927 0)
(2.55952 -0.0046786 0)
(2.56115 0.00523504 0)
(2.56386 0.0109751 0)
(2.56827 0.00914668 0)
(2.57359 0.00935626 0)
(2.58736 0.0111926 0)
(2.60222 0.0113508 0)
(2.62065 0.0119079 0)
(2.65696 0.0161461 0)
(2.71174 0.0365543 0)
(2.77896 0.0615722 0)
(2.88366 0.0443381 0)
(2.88545 -0.801383 0)
(2.88541 -0.801239 0)
(2.88507 -0.800631 0)
(2.88481 -0.800343 0)
(2.8845 -0.800237 0)
(2.8845 -0.799804 0)
(2.88438 -0.79921 0)
(2.88388 -0.799039 0)
(2.8835 -0.798491 0)
(2.88362 -0.798074 0)
(2.88368 -0.798122 0)
(2.88363 -0.797773 0)
(2.88319 -0.797003 0)
(2.88247 -0.796495 0)
(2.88232 -0.795769 0)
(2.88206 -0.794772 0)
(2.88146 -0.793861 0)
(2.88079 -0.793161 0)
(2.88003 -0.792813 0)
(2.87947 -0.791982 0)
(2.87886 -0.791863 0)
(2.87854 -0.791148 0)
(2.87762 -0.7908 0)
(2.87662 -0.789902 0)
(2.87484 -0.788913 0)
(2.87302 -0.789199 0)
(2.86869 -0.786145 0)
(2.86522 -0.779262 0)
(2.84814 -0.741491 0)
(2.80761 -0.616619 0)
(2.73974 -0.372305 0)
(2.73227 -0.234383 0)
(2.63362 -0.0312675 0)
(2.60134 0.00175321 0)
(2.58967 0.033678 0)
(2.57495 0.0189011 0)
(2.56128 -0.00090348 0)
(2.56223 -0.00349531 0)
(2.56533 0.00227444 0)
(2.56616 0.0118857 0)
(2.5639 0.00979795 0)
(2.56498 0.00560566 0)
(2.57167 0.00738293 0)
(2.58789 0.00731624 0)
(2.60294 0.00719717 0)
(2.62403 0.0073579 0)
(2.66 0.0111477 0)
(2.71034 0.0275232 0)
(2.77722 0.0487504 0)
(2.88477 0.0346588 0)
(2.88657 -0.800007 0)
(2.88658 -0.799994 0)
(2.88648 -0.799809 0)
(2.88638 -0.799575 0)
(2.88642 -0.799187 0)
(2.88634 -0.799047 0)
(2.88645 -0.798632 0)
(2.88673 -0.797975 0)
(2.88681 -0.797629 0)
(2.88687 -0.797741 0)
(2.8871 -0.797363 0)
(2.88708 -0.796801 0)
(2.88712 -0.796664 0)
(2.88698 -0.796312 0)
(2.88691 -0.795681 0)
(2.88715 -0.795086 0)
(2.88694 -0.794319 0)
(2.88668 -0.793699 0)
(2.88639 -0.792471 0)
(2.88567 -0.791494 0)
(2.88465 -0.790567 0)
(2.88322 -0.790143 0)
(2.88192 -0.788989 0)
(2.88005 -0.788011 0)
(2.87778 -0.788182 0)
(2.87577 -0.786849 0)
(2.87339 -0.786466 0)
(2.87035 -0.784782 0)
(2.86666 -0.783892 0)
(2.8568 -0.778835 0)
(2.84502 -0.757575 0)
(2.8121 -0.669736 0)
(2.74304 -0.48479 0)
(2.69794 -0.331282 0)
(2.62942 -0.126143 0)
(2.6184 -0.0876843 0)
(2.59549 -0.0329409 0)
(2.5872 -0.00198959 0)
(2.57394 0.0169784 0)
(2.5677 0.0128793 0)
(2.56221 -0.00124969 0)
(2.56548 -0.00374346 0)
(2.57583 0.00142569 0)
(2.59389 0.00506273 0)
(2.60996 0.00584261 0)
(2.63427 0.00473164 0)
(2.67383 0.00467913 0)
(2.72278 0.0206282 0)
(2.7841 0.0346597 0)
(2.88288 0.0260077 0)
(2.89196 -0.80034 0)
(2.892 -0.800389 0)
(2.89205 -0.800193 0)
(2.89207 -0.7999 0)
(2.89223 -0.799753 0)
(2.89247 -0.799517 0)
(2.89251 -0.799386 0)
(2.89279 -0.799073 0)
(2.89318 -0.798381 0)
(2.89311 -0.797858 0)
(2.893 -0.79773 0)
(2.89293 -0.797723 0)
(2.89281 -0.797545 0)
(2.89228 -0.796846 0)
(2.89197 -0.79606 0)
(2.89199 -0.795418 0)
(2.89119 -0.794627 0)
(2.89036 -0.793854 0)
(2.8893 -0.792665 0)
(2.88826 -0.790728 0)
(2.88685 -0.789923 0)
(2.88553 -0.789132 0)
(2.88391 -0.787952 0)
(2.88203 -0.786982 0)
(2.8802 -0.785234 0)
(2.87774 -0.784943 0)
(2.87521 -0.783704 0)
(2.87189 -0.783345 0)
(2.86809 -0.781606 0)
(2.86295 -0.780076 0)
(2.85524 -0.777586 0)
(2.842 -0.786137 0)
(2.80742 -0.763371 0)
(2.78132 -0.718453 0)
(2.71812 -0.557925 0)
(2.6715 -0.33128 0)
(2.63326 -0.11993 0)
(2.60062 -0.00239721 0)
(2.58363 0.0436534 0)
(2.56171 0.0125113 0)
(2.56668 -0.00415234 0)
(2.5718 -0.0020907 0)
(2.58399 0.00338599 0)
(2.6022 0.00266731 0)
(2.62153 0.000876703 0)
(2.65026 -0.00349585 0)
(2.69263 -0.0065244 0)
(2.73913 0.00717777 0)
(2.793 0.0201137 0)
(2.88313 0.0159772 0)
(2.89908 -0.801063 0)
(2.89886 -0.800814 0)
(2.89872 -0.800555 0)
(2.89861 -0.800639 0)
(2.89853 -0.800547 0)
(2.89838 -0.800031 0)
(2.89825 -0.799844 0)
(2.89808 -0.799872 0)
(2.89771 -0.79953 0)
(2.8973 -0.798965 0)
(2.89711 -0.798251 0)
(2.89677 -0.797608 0)
(2.89654 -0.796948 0)
(2.89582 -0.796072 0)
(2.89559 -0.795082 0)
(2.89535 -0.793787 0)
(2.89447 -0.792321 0)
(2.89284 -0.791162 0)
(2.89104 -0.789444 0)
(2.88987 -0.787028 0)
(2.88842 -0.78534 0)
(2.88684 -0.784483 0)
(2.88493 -0.784125 0)
(2.88327 -0.783754 0)
(2.88172 -0.783203 0)
(2.87953 -0.782944 0)
(2.8771 -0.781809 0)
(2.87392 -0.780457 0)
(2.87036 -0.777441 0)
(2.86511 -0.77555 0)
(2.85654 -0.774275 0)
(2.84156 -0.773469 0)
(2.81615 -0.776854 0)
(2.78786 -0.780896 0)
(2.77839 -0.774693 0)
(2.76533 -0.739077 0)
(2.73012 -0.600924 0)
(2.66939 -0.347247 0)
(2.63424 -0.158088 0)
(2.60794 -0.0882809 0)
(2.59343 -0.0234008 0)
(2.58305 0.00775458 0)
(2.58945 0.00896122 0)
(2.60806 0.00723932 0)
(2.63511 -0.00053818 0)
(2.66839 -0.0132189 0)
(2.7074 -0.0207812 0)
(2.75231 -0.00862083 0)
(2.80152 0.00460641 0)
(2.8847 0.00527003 0)
(2.90372 -0.801692 0)
(2.90343 -0.801475 0)
(2.90315 -0.801131 0)
(2.90298 -0.80098 0)
(2.90262 -0.80043 0)
(2.90215 -0.800101 0)
(2.90179 -0.799661 0)
(2.90166 -0.799244 0)
(2.90129 -0.79882 0)
(2.90103 -0.797966 0)
(2.90052 -0.797086 0)
(2.90016 -0.796201 0)
(2.89978 -0.794889 0)
(2.89886 -0.793662 0)
(2.89875 -0.792154 0)
(2.89792 -0.790831 0)
(2.89676 -0.789258 0)
(2.89542 -0.786846 0)
(2.8937 -0.784741 0)
(2.89239 -0.782539 0)
(2.89075 -0.780956 0)
(2.88917 -0.779552 0)
(2.88753 -0.779156 0)
(2.88612 -0.779324 0)
(2.8845 -0.778938 0)
(2.88202 -0.77792 0)
(2.87905 -0.775223 0)
(2.87548 -0.773502 0)
(2.87187 -0.771001 0)
(2.86657 -0.769193 0)
(2.85656 -0.770382 0)
(2.83853 -0.771038 0)
(2.81156 -0.771145 0)
(2.78744 -0.778354 0)
(2.77912 -0.778391 0)
(2.77751 -0.781444 0)
(2.77725 -0.779368 0)
(2.76633 -0.742723 0)
(2.7232 -0.568252 0)
(2.65315 -0.252623 0)
(2.62207 -0.082614 0)
(2.60175 0.0616646 0)
(2.56695 0.0155307 0)
(2.61574 0.00196536 0)
(2.65252 -0.00489709 0)
(2.68144 -0.0276025 0)
(2.71667 -0.0370117 0)
(2.75918 -0.0263655 0)
(2.80578 -0.0115619 0)
(2.88579 -0.00562912 0)
(2.90751 -0.797398 0)
(2.90729 -0.797098 0)
(2.9068 -0.79674 0)
(2.90643 -0.796385 0)
(2.90621 -0.796116 0)
(2.90559 -0.795589 0)
(2.9052 -0.794919 0)
(2.90476 -0.794903 0)
(2.90439 -0.794632 0)
(2.9045 -0.793232 0)
(2.90359 -0.792664 0)
(2.90311 -0.791352 0)
(2.9024 -0.79029 0)
(2.90169 -0.788878 0)
(2.90126 -0.786975 0)
(2.89971 -0.785696 0)
(2.89775 -0.783801 0)
(2.8964 -0.780916 0)
(2.89488 -0.778204 0)
(2.89355 -0.776435 0)
(2.89185 -0.775306 0)
(2.88965 -0.774235 0)
(2.88845 -0.773605 0)
(2.88735 -0.773283 0)
(2.88486 -0.772237 0)
(2.88181 -0.771084 0)
(2.8791 -0.770196 0)
(2.87684 -0.769666 0)
(2.87355 -0.768445 0)
(2.86784 -0.76581 0)
(2.85694 -0.767139 0)
(2.83528 -0.768966 0)
(2.80568 -0.771849 0)
(2.78579 -0.777743 0)
(2.78045 -0.782556 0)
(2.77939 -0.784255 0)
(2.77965 -0.783786 0)
(2.78067 -0.784526 0)
(2.77937 -0.779283 0)
(2.76166 -0.721714 0)
(2.71324 -0.520773 0)
(2.65328 -0.216145 0)
(2.64203 -0.133113 0)
(2.64426 -0.0376293 0)
(2.67319 -0.0243728 0)
(2.69008 -0.0440239 0)
(2.72766 -0.0511356 0)
(2.77077 -0.0399792 0)
(2.81622 -0.0273466 0)
(2.89282 -0.0188789 0)
(2.90881 -0.788177 0)
(2.90832 -0.787831 0)
(2.9082 -0.787756 0)
(2.90771 -0.787323 0)
(2.90704 -0.786961 0)
(2.9067 -0.786604 0)
(2.90631 -0.786309 0)
(2.90581 -0.786295 0)
(2.90507 -0.785968 0)
(2.90483 -0.784582 0)
(2.90437 -0.783343 0)
(2.90339 -0.782748 0)
(2.9026 -0.78151 0)
(2.9023 -0.78067 0)
(2.90101 -0.779258 0)
(2.89938 -0.77741 0)
(2.8982 -0.775086 0)
(2.89776 -0.774084 0)
(2.89655 -0.772373 0)
(2.89559 -0.771163 0)
(2.89414 -0.769933 0)
(2.89153 -0.768809 0)
(2.88972 -0.768533 0)
(2.88792 -0.768372 0)
(2.88531 -0.768147 0)
(2.88233 -0.767161 0)
(2.88033 -0.766352 0)
(2.87804 -0.765804 0)
(2.87378 -0.766495 0)
(2.86608 -0.768814 0)
(2.85156 -0.773661 0)
(2.82615 -0.779801 0)
(2.79855 -0.780362 0)
(2.78399 -0.78188 0)
(2.78131 -0.78362 0)
(2.78063 -0.786419 0)
(2.78075 -0.786763 0)
(2.78126 -0.786013 0)
(2.78041 -0.783345 0)
(2.77807 -0.779605 0)
(2.77497 -0.762264 0)
(2.75083 -0.641475 0)
(2.71549 -0.385862 0)
(2.67839 -0.149086 0)
(2.69212 -0.0907595 0)
(2.71276 -0.0862806 0)
(2.74466 -0.0670246 0)
(2.78292 -0.0504366 0)
(2.82469 -0.0388518 0)
(2.89507 -0.0276339 0)
(2.91573 -0.782702 0)
(2.91536 -0.782503 0)
(2.9149 -0.782264 0)
(2.91456 -0.782007 0)
(2.91421 -0.781863 0)
(2.91356 -0.781578 0)
(2.91298 -0.781341 0)
(2.91251 -0.780629 0)
(2.91212 -0.780135 0)
(2.91092 -0.779244 0)
(2.90997 -0.778378 0)
(2.90897 -0.777924 0)
(2.90782 -0.777215 0)
(2.90612 -0.776114 0)
(2.90438 -0.775184 0)
(2.90304 -0.774063 0)
(2.90152 -0.773485 0)
(2.89959 -0.772328 0)
(2.8979 -0.77105 0)
(2.89636 -0.769555 0)
(2.89468 -0.76828 0)
(2.89288 -0.76704 0)
(2.8916 -0.766384 0)
(2.88937 -0.765369 0)
(2.88718 -0.764283 0)
(2.8847 -0.763185 0)
(2.88153 -0.762235 0)
(2.87716 -0.762619 0)
(2.87098 -0.765411 0)
(2.86076 -0.770425 0)
(2.84326 -0.775289 0)
(2.81627 -0.783483 0)
(2.79368 -0.785049 0)
(2.78536 -0.7823 0)
(2.78363 -0.781402 0)
(2.78236 -0.780158 0)
(2.78079 -0.779529 0)
(2.78031 -0.772686 0)
(2.78083 -0.766311 0)
(2.78103 -0.767128 0)
(2.78602 -0.753086 0)
(2.79273 -0.72016 0)
(2.79192 -0.675852 0)
(2.77539 -0.530534 0)
(2.7466 -0.310362 0)
(2.74373 -0.143148 0)
(2.75332 -0.0612938 0)
(2.78558 -0.049587 0)
(2.82605 -0.0473365 0)
(2.89486 -0.0375609 0)
(2.91663 -0.769069 0)
(2.91607 -0.768608 0)
(2.91541 -0.768487 0)
(2.91472 -0.768304 0)
(2.91399 -0.767681 0)
(2.91314 -0.76749 0)
(2.9123 -0.76735 0)
(2.91102 -0.766315 0)
(2.90988 -0.765475 0)
(2.90878 -0.76423 0)
(2.90725 -0.763223 0)
(2.90613 -0.762522 0)
(2.90485 -0.761645 0)
(2.90347 -0.760863 0)
(2.90234 -0.760094 0)
(2.90127 -0.759673 0)
(2.90004 -0.759151 0)
(2.89894 -0.75883 0)
(2.89825 -0.758717 0)
(2.89739 -0.758246 0)
(2.89691 -0.757713 0)
(2.89583 -0.757271 0)
(2.89367 -0.757599 0)
(2.89145 -0.756811 0)
(2.88896 -0.755284 0)
(2.8855 -0.755195 0)
(2.88086 -0.757951 0)
(2.87495 -0.761296 0)
(2.86722 -0.765035 0)
(2.85449 -0.771392 0)
(2.83507 -0.775164 0)
(2.80882 -0.782895 0)
(2.78836 -0.793901 0)
(2.78423 -0.794517 0)
(2.7817 -0.792213 0)
(2.78011 -0.786979 0)
(2.78035 -0.781526 0)
(2.78181 -0.770306 0)
(2.78738 -0.760564 0)
(2.79552 -0.734092 0)
(2.8038 -0.71204 0)
(2.81304 -0.692856 0)
(2.82461 -0.669008 0)
(2.82621 -0.625671 0)
(2.8233 -0.537497 0)
(2.80949 -0.389692 0)
(2.79586 -0.240116 0)
(2.81476 -0.152924 0)
(2.84463 -0.098782 0)
(2.90278 -0.0585203 0)
(2.92052 -0.765497 0)
(2.9202 -0.765232 0)
(2.91977 -0.764928 0)
(2.91911 -0.76428 0)
(2.91833 -0.764096 0)
(2.9178 -0.763529 0)
(2.91662 -0.762254 0)
(2.91595 -0.761539 0)
(2.91523 -0.760841 0)
(2.91457 -0.76009 0)
(2.91352 -0.758364 0)
(2.91235 -0.757421 0)
(2.9117 -0.756406 0)
(2.91082 -0.755165 0)
(2.90963 -0.754078 0)
(2.90867 -0.753406 0)
(2.90752 -0.752715 0)
(2.9062 -0.75185 0)
(2.90482 -0.751194 0)
(2.90352 -0.750087 0)
(2.90223 -0.74786 0)
(2.89999 -0.745899 0)
(2.89718 -0.74512 0)
(2.89411 -0.74405 0)
(2.89085 -0.741919 0)
(2.88685 -0.741943 0)
(2.8814 -0.743727 0)
(2.87337 -0.74624 0)
(2.86226 -0.748952 0)
(2.84829 -0.750765 0)
(2.82797 -0.758365 0)
(2.80766 -0.761731 0)
(2.79734 -0.75826 0)
(2.79542 -0.754514 0)
(2.79431 -0.750187 0)
(2.79406 -0.740109 0)
(2.79643 -0.718223 0)
(2.80134 -0.703553 0)
(2.80553 -0.677763 0)
(2.81312 -0.65533 0)
(2.82087 -0.633429 0)
(2.82573 -0.604301 0)
(2.83386 -0.559632 0)
(2.8449 -0.543409 0)
(2.85448 -0.518701 0)
(2.85223 -0.473528 0)
(2.84814 -0.370139 0)
(2.84462 -0.243044 0)
(2.85326 -0.150266 0)
(2.90805 -0.0784106 0)
(2.93106 -0.757078 0)
(2.93089 -0.755972 0)
(2.93101 -0.755711 0)
(2.93015 -0.754011 0)
(2.92947 -0.75333 0)
(2.92876 -0.751951 0)
(2.92868 -0.750747 0)
(2.9277 -0.750134 0)
(2.92658 -0.748858 0)
(2.9265 -0.747517 0)
(2.92537 -0.745879 0)
(2.92451 -0.744875 0)
(2.92358 -0.742622 0)
(2.92168 -0.740151 0)
(2.91988 -0.737624 0)
(2.91804 -0.735426 0)
(2.91603 -0.733263 0)
(2.91333 -0.732165 0)
(2.91014 -0.731519 0)
(2.90722 -0.729878 0)
(2.90455 -0.727489 0)
(2.90112 -0.725051 0)
(2.89681 -0.723663 0)
(2.89235 -0.724825 0)
(2.88785 -0.724906 0)
(2.88302 -0.724994 0)
(2.87726 -0.727637 0)
(2.87006 -0.731591 0)
(2.86019 -0.738611 0)
(2.84613 -0.739858 0)
(2.82648 -0.736357 0)
(2.81239 -0.732898 0)
(2.80757 -0.727548 0)
(2.80239 -0.713061 0)
(2.80254 -0.692549 0)
(2.8054 -0.683842 0)
(2.80748 -0.664067 0)
(2.81218 -0.643577 0)
(2.81945 -0.632007 0)
(2.82542 -0.606698 0)
(2.83323 -0.571014 0)
(2.84143 -0.566773 0)
(2.85464 -0.55837 0)
(2.85567 -0.495015 0)
(2.86636 -0.450528 0)
(2.87611 -0.4096 0)
(2.88261 -0.378893 0)
(2.87942 -0.299688 0)
(2.88215 -0.200201 0)
(2.92008 -0.0952676 0)
(2.92393 -0.694444 0)
(2.92306 -0.69406 0)
(2.9219 -0.693039 0)
(2.92093 -0.692293 0)
(2.91986 -0.692105 0)
(2.91875 -0.691797 0)
(2.91752 -0.69153 0)
(2.91638 -0.690996 0)
(2.91553 -0.689986 0)
(2.91421 -0.68989 0)
(2.91278 -0.69038 0)
(2.91132 -0.689975 0)
(2.90983 -0.688736 0)
(2.90821 -0.687908 0)
(2.9065 -0.687325 0)
(2.90432 -0.686629 0)
(2.90212 -0.686164 0)
(2.90013 -0.686012 0)
(2.89772 -0.686552 0)
(2.89518 -0.686803 0)
(2.89288 -0.68615 0)
(2.89058 -0.685925 0)
(2.88756 -0.687029 0)
(2.884 -0.688082 0)
(2.88017 -0.689461 0)
(2.8756 -0.689468 0)
(2.86927 -0.689648 0)
(2.86159 -0.687711 0)
(2.85094 -0.680929 0)
(2.83474 -0.676723 0)
(2.82774 -0.675893 0)
(2.82186 -0.670234 0)
(2.81503 -0.659322 0)
(2.81227 -0.651107 0)
(2.81546 -0.643044 0)
(2.82112 -0.617827 0)
(2.82541 -0.610525 0)
(2.83043 -0.593396 0)
(2.83788 -0.563909 0)
(2.84496 -0.551677 0)
(2.85465 -0.539043 0)
(2.86033 -0.490814 0)
(2.86896 -0.448956 0)
(2.875 -0.440143 0)
(2.88799 -0.425184 0)
(2.90284 -0.386044 0)
(2.90817 -0.319408 0)
(2.91085 -0.245552 0)
(2.91226 -0.179682 0)
(2.93871 -0.0848526 0)
(2.93467 -0.697351 0)
(2.93405 -0.697109 0)
(2.93324 -0.696605 0)
(2.93237 -0.695739 0)
(2.93144 -0.695214 0)
(2.93045 -0.695257 0)
(2.92947 -0.694742 0)
(2.9286 -0.693606 0)
(2.92787 -0.692875 0)
(2.92665 -0.692987 0)
(2.92537 -0.693012 0)
(2.92385 -0.692034 0)
(2.92209 -0.690927 0)
(2.92086 -0.690172 0)
(2.91919 -0.688557 0)
(2.91697 -0.686759 0)
(2.91536 -0.685275 0)
(2.91343 -0.684069 0)
(2.91117 -0.683695 0)
(2.90853 -0.683227 0)
(2.90592 -0.681831 0)
(2.90304 -0.679367 0)
(2.89888 -0.677991 0)
(2.894 -0.678578 0)
(2.88863 -0.676898 0)
(2.88224 -0.675802 0)
(2.87491 -0.675803 0)
(2.86659 -0.67518 0)
(2.85662 -0.672236 0)
(2.84846 -0.663789 0)
(2.84525 -0.65827 0)
(2.83971 -0.648365 0)
(2.8362 -0.63612 0)
(2.83651 -0.61907 0)
(2.8397 -0.599577 0)
(2.84451 -0.589091 0)
(2.8485 -0.563254 0)
(2.85443 -0.543519 0)
(2.86254 -0.529678 0)
(2.86899 -0.496702 0)
(2.87617 -0.464409 0)
(2.88385 -0.449219 0)
(2.89398 -0.427349 0)
(2.90046 -0.378898 0)
(2.90829 -0.332659 0)
(2.92005 -0.30321 0)
(2.93399 -0.282626 0)
(2.94653 -0.248946 0)
(2.95059 -0.192026 0)
(2.96696 -0.0898844 0)
(2.94988 -0.601607 0)
(2.94991 -0.601019 0)
(2.94876 -0.599623 0)
(2.94777 -0.599038 0)
(2.94613 -0.598805 0)
(2.94557 -0.598867 0)
(2.94403 -0.598714 0)
(2.94309 -0.59858 0)
(2.94189 -0.597386 0)
(2.94182 -0.594865 0)
(2.93973 -0.591807 0)
(2.93786 -0.591427 0)
(2.93541 -0.591399 0)
(2.93367 -0.589686 0)
(2.93172 -0.588661 0)
(2.92977 -0.587466 0)
(2.92756 -0.585442 0)
(2.92485 -0.582839 0)
(2.92162 -0.580606 0)
(2.91799 -0.579486 0)
(2.91408 -0.57819 0)
(2.91025 -0.575089 0)
(2.90527 -0.572108 0)
(2.90025 -0.569292 0)
(2.89286 -0.565357 0)
(2.88531 -0.559296 0)
(2.88235 -0.556697 0)
(2.87503 -0.552526 0)
(2.86799 -0.544969 0)
(2.86378 -0.537774 0)
(2.85822 -0.527845 0)
(2.85385 -0.517387 0)
(2.85175 -0.503015 0)
(2.85297 -0.489358 0)
(2.85619 -0.475363 0)
(2.85889 -0.453873 0)
(2.86358 -0.440203 0)
(2.86903 -0.420989 0)
(2.87418 -0.394517 0)
(2.88129 -0.375646 0)
(2.88938 -0.354717 0)
(2.89491 -0.321313 0)
(2.9015 -0.289515 0)
(2.9122 -0.268077 0)
(2.92434 -0.243438 0)
(2.93563 -0.208435 0)
(2.94752 -0.171174 0)
(2.96014 -0.136187 0)
(2.97045 -0.101327 0)
(2.98431 -0.0441489 0)
(2.96006 -0.537167 0)
(2.95975 -0.535753 0)
(2.95852 -0.533153 0)
(2.95796 -0.532812 0)
(2.9568 -0.533305 0)
(2.95609 -0.533998 0)
(2.95362 -0.536016 0)
(2.95268 -0.537275 0)
(2.95214 -0.537194 0)
(2.95018 -0.53563 0)
(2.94851 -0.534092 0)
(2.94757 -0.533218 0)
(2.94569 -0.533141 0)
(2.94328 -0.532883 0)
(2.94104 -0.532387 0)
(2.93867 -0.531759 0)
(2.93634 -0.531019 0)
(2.93447 -0.530612 0)
(2.93156 -0.52954 0)
(2.92812 -0.528427 0)
(2.92464 -0.527093 0)
(2.92123 -0.525026 0)
(2.91789 -0.523991 0)
(2.91351 -0.52204 0)
(2.90836 -0.519243 0)
(2.90433 -0.516525 0)
(2.89995 -0.512327 0)
(2.89569 -0.506872 0)
(2.89151 -0.499609 0)
(2.8876 -0.490978 0)
(2.88413 -0.482181 0)
(2.88148 -0.471673 0)
(2.88086 -0.460822 0)
(2.88252 -0.447052 0)
(2.88572 -0.43164 0)
(2.88976 -0.417289 0)
(2.89435 -0.39837 0)
(2.89989 -0.378796 0)
(2.9062 -0.358836 0)
(2.9129 -0.333978 0)
(2.91994 -0.30728 0)
(2.92731 -0.280997 0)
(2.93517 -0.251266 0)
(2.94358 -0.216175 0)
(2.95219 -0.178505 0)
(2.96118 -0.140373 0)
(2.9712 -0.103528 0)
(2.98139 -0.0700664 0)
(2.98921 -0.0418804 0)
(2.99603 -0.0133725 0)
(2.96388 -0.444111 0)
(2.96293 -0.442657 0)
(2.96205 -0.442694 0)
(2.9613 -0.443947 0)
(2.96096 -0.444553 0)
(2.95956 -0.445064 0)
(2.95886 -0.444941 0)
(2.95822 -0.444556 0)
(2.95663 -0.442739 0)
(2.95521 -0.441379 0)
(2.95355 -0.440974 0)
(2.95287 -0.440966 0)
(2.95089 -0.44066 0)
(2.9493 -0.440151 0)
(2.94758 -0.438988 0)
(2.94546 -0.437136 0)
(2.94374 -0.436099 0)
(2.94099 -0.434572 0)
(2.93831 -0.432587 0)
(2.9365 -0.430966 0)
(2.93423 -0.429482 0)
(2.93012 -0.42616 0)
(2.92728 -0.422628 0)
(2.92449 -0.419004 0)
(2.92141 -0.414994 0)
(2.91829 -0.410428 0)
(2.91538 -0.40555 0)
(2.91247 -0.399063 0)
(2.90988 -0.391413 0)
(2.90754 -0.382962 0)
(2.90547 -0.373617 0)
(2.9043 -0.363303 0)
(2.9046 -0.350676 0)
(2.90664 -0.336658 0)
(2.9098 -0.321262 0)
(2.91346 -0.303768 0)
(2.91795 -0.285569 0)
(2.92317 -0.265384 0)
(2.92893 -0.243138 0)
(2.93531 -0.220283 0)
(2.94211 -0.196152 0)
(2.94916 -0.17016 0)
(2.95671 -0.143277 0)
(2.96482 -0.116082 0)
(2.973 -0.0883923 0)
(2.98082 -0.0609705 0)
(2.98813 -0.0363939 0)
(2.99417 -0.017924 0)
(2.99782 -0.00706427 0)
(2.99958 -0.00132881 0)
(2.96751 -0.351483 0)
(2.96726 -0.3517 0)
(2.96676 -0.352058 0)
(2.96627 -0.352473 0)
(2.96573 -0.35236 0)
(2.96461 -0.351597 0)
(2.96378 -0.350537 0)
(2.96325 -0.349623 0)
(2.96253 -0.349526 0)
(2.9608 -0.349383 0)
(2.96005 -0.349079 0)
(2.95968 -0.348393 0)
(2.95898 -0.348217 0)
(2.95732 -0.346613 0)
(2.95577 -0.345022 0)
(2.9546 -0.344711 0)
(2.95291 -0.343539 0)
(2.95125 -0.341915 0)
(2.94974 -0.340101 0)
(2.94799 -0.337568 0)
(2.94628 -0.335485 0)
(2.94436 -0.332949 0)
(2.94232 -0.329333 0)
(2.94052 -0.32568 0)
(2.93874 -0.321783 0)
(2.93696 -0.317246 0)
(2.93525 -0.311672 0)
(2.93377 -0.305204 0)
(2.93249 -0.297775 0)
(2.93139 -0.289519 0)
(2.93065 -0.280391 0)
(2.93075 -0.269883 0)
(2.93213 -0.257755 0)
(2.93464 -0.243842 0)
(2.93788 -0.228487 0)
(2.94173 -0.21196 0)
(2.94618 -0.193945 0)
(2.95126 -0.174633 0)
(2.95678 -0.154243 0)
(2.96249 -0.132843 0)
(2.96831 -0.110819 0)
(2.97421 -0.0886452 0)
(2.98005 -0.0668701 0)
(2.98564 -0.0464937 0)
(2.99069 -0.0288549 0)
(2.99483 -0.0151712 0)
(2.99775 -0.00624321 0)
(2.99932 -0.00185041 0)
(2.99987 -0.000387666 0)
(2.99999 -3.72811e-05 0)
(2.9738 -0.251803 0)
(2.97357 -0.251763 0)
(2.97328 -0.251823 0)
(2.97317 -0.251744 0)
(2.97245 -0.250965 0)
(2.97178 -0.249796 0)
(2.97169 -0.248537 0)
(2.97145 -0.248001 0)
(2.97098 -0.248557 0)
(2.97066 -0.248557 0)
(2.96929 -0.246906 0)
(2.96897 -0.245326 0)
(2.96859 -0.245339 0)
(2.96776 -0.244398 0)
(2.96678 -0.242218 0)
(2.96622 -0.24105 0)
(2.96546 -0.239673 0)
(2.96449 -0.237695 0)
(2.9636 -0.235609 0)
(2.96269 -0.233213 0)
(2.96174 -0.230523 0)
(2.96076 -0.227512 0)
(2.95975 -0.223956 0)
(2.95882 -0.21998 0)
(2.95797 -0.215688 0)
(2.95716 -0.210798 0)
(2.95645 -0.205126 0)
(2.95592 -0.198591 0)
(2.95559 -0.191222 0)
(2.95546 -0.183022 0)
(2.95574 -0.173818 0)
(2.95675 -0.163361 0)
(2.95861 -0.151599 0)
(2.96117 -0.13879 0)
(2.96422 -0.125168 0)
(2.9677 -0.110839 0)
(2.97158 -0.0959706 0)
(2.97573 -0.0808322 0)
(2.97995 -0.0658101 0)
(2.98406 -0.0513466 0)
(2.98795 -0.0378985 0)
(2.99149 -0.0259804 0)
(2.99454 -0.0161272 0)
(2.99692 -0.00875192 0)
(2.99856 -0.00395446 0)
(2.99947 -0.00138807 0)
(2.99987 -0.000345595 0)
(2.99998 -5.6804e-05 0)
(3 -6.47215e-06 0)
(3 -3.76958e-07 0)
(2.98322 -0.146483 0)
(2.98306 -0.146165 0)
(2.98305 -0.145848 0)
(2.98274 -0.144759 0)
(2.98275 -0.144112 0)
(2.98272 -0.143346 0)
(2.98257 -0.143113 0)
(2.98252 -0.143296 0)
(2.98207 -0.142092 0)
(2.98191 -0.141089 0)
(2.98182 -0.140628 0)
(2.9815 -0.13956 0)
(2.98125 -0.138394 0)
(2.98102 -0.137314 0)
(2.98073 -0.136065 0)
(2.98044 -0.134641 0)
(2.98014 -0.133014 0)
(2.97982 -0.131211 0)
(2.97949 -0.129238 0)
(2.97915 -0.127043 0)
(2.9788 -0.124583 0)
(2.97845 -0.121782 0)
(2.97812 -0.118631 0)
(2.97785 -0.115184 0)
(2.97763 -0.111371 0)
(2.97746 -0.107054 0)
(2.97738 -0.102162 0)
(2.97746 -0.0966893 0)
(2.97772 -0.0906588 0)
(2.97819 -0.0840759 0)
(2.97903 -0.0769079 0)
(2.98033 -0.0691646 0)
(2.98205 -0.0609898 0)
(2.98405 -0.0526054 0)
(2.98622 -0.0442177 0)
(2.98851 -0.0360216 0)
(2.99081 -0.0282483 0)
(2.99299 -0.0211589 0)
(2.99494 -0.0149868 0)
(2.99658 -0.00989782 0)
(2.99788 -0.00597735 0)
(2.99883 -0.00321607 0)
(2.99944 -0.00149093 0)
(2.99978 -0.000570982 0)
(2.99993 -0.000171672 0)
(2.99999 -3.82231e-05 0)
(3 -5.95457e-06 0)
(3 -6.38823e-07 0)
(3 -5.19585e-08 0)
(3 -2.38986e-09 0)
(2.9933 -0.0554922 0)
(2.99324 -0.0551777 0)
(2.99322 -0.0549399 0)
(2.99323 -0.0547352 0)
(2.99317 -0.05422 0)
(2.99319 -0.0538461 0)
(2.99319 -0.0535167 0)
(2.99315 -0.053115 0)
(2.9931 -0.0526473 0)
(2.99306 -0.0520818 0)
(2.99304 -0.0515555 0)
(2.99299 -0.0509367 0)
(2.99293 -0.0502095 0)
(2.99289 -0.049489 0)
(2.99284 -0.0486806 0)
(2.99277 -0.0477638 0)
(2.99272 -0.0467647 0)
(2.99266 -0.0456613 0)
(2.9926 -0.044461 0)
(2.99255 -0.0431465 0)
(2.9925 -0.0416812 0)
(2.99246 -0.0400615 0)
(2.99244 -0.0382952 0)
(2.99246 -0.0363741 0)
(2.99252 -0.0342761 0)
(2.99261 -0.0319826 0)
(2.99278 -0.0294935 0)
(2.99303 -0.0268279 0)
(2.99337 -0.0240175 0)
(2.99384 -0.0210966 0)
(2.99444 -0.0181067 0)
(2.99516 -0.0151203 0)
(2.99594 -0.0122405 0)
(2.99673 -0.00956641 0)
(2.99748 -0.0071735 0)
(2.99816 -0.00512055 0)
(2.99874 -0.00344953 0)
(2.9992 -0.00217201 0)
(2.99953 -0.00126239 0)
(2.99975 -0.000665695 0)
(2.99988 -0.000311379 0)
(2.99995 -0.000125738 0)
(2.99998 -4.25304e-05 0)
(3 -1.16686e-05 0)
(3 -2.51293e-06 0)
(3 -4.11164e-07 0)
(3 -4.95708e-08 0)
(3 -4.3793e-09 0)
(3 -3.06851e-10 0)
(3 -1.24632e-11 0)
(2.99882 -0.009911 0)
(2.9988 -0.00977237 0)
(2.9988 -0.00967051 0)
(2.99882 -0.00966241 0)
(2.99879 -0.00952317 0)
(2.99879 -0.00938287 0)
(2.9988 -0.00928956 0)
(2.9988 -0.00916634 0)
(2.99879 -0.00901994 0)
(2.99879 -0.00886868 0)
(2.99878 -0.00870855 0)
(2.99878 -0.00852973 0)
(2.99878 -0.00833518 0)
(2.99878 -0.00812764 0)
(2.99877 -0.00790229 0)
(2.99877 -0.00765861 0)
(2.99877 -0.00739325 0)
(2.99877 -0.00710527 0)
(2.99878 -0.00679836 0)
(2.99879 -0.00646849 0)
(2.9988 -0.00611072 0)
(2.99882 -0.00572744 0)
(2.99884 -0.00532151 0)
(2.99887 -0.00489289 0)
(2.99892 -0.00444189 0)
(2.99897 -0.00397117 0)
(2.99904 -0.00348621 0)
(2.99912 -0.00299551 0)
(2.99922 -0.00250973 0)
(2.99933 -0.00204078 0)
(2.99945 -0.00160228 0)
(2.99957 -0.00120917 0)
(2.99968 -0.000873528 0)
(2.99977 -0.000600828 0)
(2.99985 -0.000390494 0)
(2.99991 -0.000237847 0)
(2.99995 -0.000134748 0)
(2.99997 -7.04455e-05 0)
(2.99999 -3.36169e-05 0)
(2.99999 -1.4417e-05 0)
(3 -5.44863e-06 0)
(3 -1.7762e-06 0)
(3 -4.8859e-07 0)
(3 -1.10762e-07 0)
(3 -2.01422e-08 0)
(3 -2.84876e-09 0)
(3 -3.03686e-10 0)
(3 -2.41736e-11 0)
(3 -1.53842e-12 0)
(3 -6.00451e-14 0)
(2.99994 -0.000597502 0)
(2.99993 -0.000578954 0)
(2.99993 -0.000560463 0)
(2.99993 -0.00056677 0)
(2.99994 -0.000569364 0)
(2.99993 -0.000544648 0)
(2.99993 -0.000533486 0)
(2.99993 -0.000528832 0)
(2.99993 -0.000514157 0)
(2.99993 -0.000500567 0)
(2.99993 -0.000488225 0)
(2.99993 -0.000473285 0)
(2.99993 -0.000457099 0)
(2.99993 -0.000440476 0)
(2.99993 -0.000422759 0)
(2.99993 -0.000403709 0)
(2.99993 -0.00038355 0)
(2.99993 -0.000362228 0)
(2.99994 -0.000339682 0)
(2.99994 -0.000316002 0)
(2.99994 -0.000291243 0)
(2.99994 -0.000265543 0)
(2.99994 -0.000239124 0)
(2.99995 -0.000212183 0)
(2.99995 -0.000184967 0)
(2.99996 -0.000157872 0)