/*--------------------------------*- C++ -*----------------------------------*\
  =========                 |
  \\      /  F ield         | OpenFOAM: The Open Source CFD Toolbox
   \\    /   O peration     | Website:  https://openfoam.org
    \\  /    A nd           | Version:  7
     \\/     M anipulation  |
\*---------------------------------------------------------------------------*/
FoamFile
{
    version     2.0;
    format      ascii;
    class       volVectorField;
    location    "9.5";
    object      U;
}
// * * * * * * * * * * * * * * * * * * * * * * * * * * * * * * * * * * * * * //

dimensions      [0 1 -1 0 0 0 0];

internalField   nonuniform List<vector> 
90000
(
(3.1221 -0.558432 0)
(3.1042 -0.508195 0)
(3.09093 -0.47289 0)
(3.07565 -0.418979 0)
(3.06752 -0.391839 0)
(3.05558 -0.344061 0)
(3.04996 -0.3202 0)
(3.04003 -0.275163 0)
(3.03702 -0.258007 0)
(3.0279 -0.216502 0)
(3.02579 -0.20208 0)
(3.0177 -0.164571 0)
(3.01692 -0.154104 0)
(3.00998 -0.121222 0)
(3.00976 -0.113841 0)
(3.00368 -0.0860915 0)
(3.00366 -0.0820603 0)
(2.99863 -0.0589781 0)
(2.99876 -0.0578193 0)
(2.99491 -0.0403365 0)
(2.99462 -0.0398652 0)
(2.99208 -0.029023 0)
(2.99139 -0.0263162 0)
(2.99039 -0.0209211 0)
(2.99048 -0.0200964 0)
(2.98951 -0.0133632 0)
(2.98999 -0.0150637 0)
(2.98896 -0.0117928 0)
(2.9889 -0.00918036 0)
(2.98893 -0.00867059 0)
(2.989 -0.00643979 0)
(2.989 -0.00456361 0)
(2.98886 -0.00251252 0)
(2.98872 0.000896851 0)
(2.98688 0.00282406 0)
(2.98516 0.00842253 0)
(2.98525 0.00930814 0)
(2.98454 0.0110196 0)
(2.98363 0.0108272 0)
(2.98202 0.00901501 0)
(2.98069 0.00724622 0)
(2.97986 0.00471912 0)
(2.97954 0.0030209 0)
(2.97956 0.00104168 0)
(2.97954 0.00103744 0)
(2.97991 -0.000314145 0)
(2.97975 0.000875304 0)
(2.9805 0.00172875 0)
(2.98196 0.00393143 0)
(2.98285 0.00608645 0)
(2.98316 0.00754655 0)
(2.98315 0.00731175 0)
(2.98316 0.00692896 0)
(2.98267 0.00562413 0)
(2.98188 0.00370341 0)
(2.98048 0.000962172 0)
(2.9801 0.00071558 0)
(2.98032 0.00132342 0)
(2.98087 0.00307224 0)
(2.98164 0.00499023 0)
(2.98223 0.00749135 0)
(2.98206 0.0073349 0)
(2.98185 0.00636787 0)
(2.98125 0.00442968 0)
(2.98038 0.00220356 0)
(2.98042 0.00224285 0)
(2.98065 0.0031916 0)
(2.98104 0.00413227 0)
(2.98148 0.00578625 0)
(2.98138 0.00557689 0)
(2.98116 0.00439799 0)
(2.98113 0.00302712 0)
(2.98111 0.00316778 0)
(2.98123 0.00382248 0)
(2.98148 0.00502366 0)
(2.98154 0.00466859 0)
(2.98143 0.00428158 0)
(2.98119 0.00355624 0)
(2.98104 0.00373293 0)
(2.98108 0.00394983 0)
(2.98105 0.00399108 0)
(2.9809 0.00377713 0)
(2.98088 0.00328599 0)
(2.98099 0.00357024 0)
(2.98103 0.00386194 0)
(2.98103 0.00382376 0)
(2.98094 0.00364193 0)
(2.98097 0.00366436 0)
(2.98108 0.0040195 0)
(2.98122 0.00431551 0)
(2.98133 0.00436486 0)
(2.98133 0.00425502 0)
(2.98128 0.00403417 0)
(2.98115 0.00371204 0)
(2.98104 0.0033517 0)
(2.98105 0.00319657 0)
(2.98107 0.00340854 0)
(2.98111 0.00362318 0)
(2.98123 0.00394457 0)
(2.98139 0.00437345 0)
(3.13591 -0.593069 0)
(3.13581 -0.592889 0)
(3.13555 -0.592472 0)
(3.13496 -0.591649 0)
(3.13405 -0.590184 0)
(3.13267 -0.587692 0)
(3.13083 -0.58404 0)
(3.12823 -0.578224 0)
(3.1251 -0.571122 0)
(3.12075 -0.559947 0)
(3.11605 -0.548158 0)
(3.10963 -0.529275 0)
(3.1036 -0.512465 0)
(3.09524 -0.484479 0)
(3.08855 -0.463089 0)
(3.07846 -0.426231 0)
(3.07161 -0.401685 0)
(3.06023 -0.357529 0)
(3.05433 -0.332538 0)
(3.04196 -0.282611 0)
(3.03818 -0.261406 0)
(3.02496 -0.207986 0)
(3.02363 -0.192506 0)
(3.01039 -0.141234 0)
(3.0102 -0.128988 0)
(2.9983 -0.0854815 0)
(2.99919 -0.0761177 0)
(2.98875 -0.040469 0)
(2.99037 -0.0349428 0)
(2.98184 -0.00885019 0)
(2.98278 -0.00294543 0)
(2.97696 0.0139922 0)
(2.97726 0.0188552 0)
(2.97398 0.0279836 0)
(2.97254 0.0325948 0)
(2.97251 0.0322398 0)
(2.97238 0.027965 0)
(2.97205 0.0189736 0)
(2.9747 0.0115576 0)
(2.97563 0.00527717 0)
(2.9769 0.00296389 0)
(2.97709 0.0008005 0)
(2.9776 -0.000851268 0)
(2.97784 -0.00111249 0)
(2.97831 -0.000802718 0)
(2.9788 -3.60886e-05 0)
(2.97972 0.00296139 0)
(2.9802 0.00694887 0)
(2.9803 0.00941291 0)
(2.98018 0.00978106 0)
(2.97955 0.00940716 0)
(2.97855 0.00764854 0)
(2.97753 0.0043909 0)
(2.97698 0.00129033 0)
(2.97654 -0.00133245 0)
(2.97707 -0.00125811 0)
(2.97745 -0.000431961 0)
(2.97843 0.00307353 0)
(2.97843 0.00463534 0)
(2.97987 0.00772892 0)
(2.97969 0.00787776 0)
(2.97874 0.00671532 0)
(2.97796 0.00408376 0)
(2.97748 0.001213 0)
(2.97791 0.00112823 0)
(2.97833 0.00222493 0)
(2.9783 0.00328808 0)
(2.97952 0.00547773 0)
(2.97951 0.00561854 0)
(2.97907 0.00474695 0)
(2.9789 0.00352573 0)
(2.97912 0.00214104 0)
(2.97928 0.00265035 0)
(2.97931 0.00395529 0)
(2.97999 0.00475164 0)
(2.97988 0.00458796 0)
(2.97965 0.00363402 0)
(2.97967 0.00308243 0)
(2.97975 0.00334894 0)
(2.97995 0.00377049 0)
(2.97986 0.00378756 0)
(2.97967 0.00345817 0)
(2.97977 0.00328479 0)
(2.98 0.0034597 0)
(2.98008 0.00365822 0)
(2.98009 0.00369457 0)
(2.97998 0.0034626 0)
(2.98012 0.00353183 0)
(2.98015 0.00368706 0)
(2.98051 0.00411657 0)
(2.98058 0.00421575 0)
(2.98057 0.00418618 0)
(2.9805 0.00398312 0)
(2.9804 0.0036099 0)
(2.98042 0.0032549 0)
(2.98038 0.00313551 0)
(2.98041 0.0033075 0)
(2.98047 0.00342161 0)
(2.98051 0.0036098 0)
(2.98071 0.00406729 0)
(3.13295 -0.592434 0)
(3.13282 -0.592417 0)
(3.13269 -0.592405 0)
(3.13257 -0.592354 0)
(3.13247 -0.592307 0)
(3.13236 -0.592248 0)
(3.13224 -0.592175 0)
(3.13212 -0.59208 0)
(3.13198 -0.591988 0)
(3.13183 -0.591838 0)
(3.13165 -0.591662 0)
(3.13143 -0.591352 0)
(3.13112 -0.590944 0)
(3.13053 -0.590342 0)
(3.12967 -0.58931 0)
(3.12856 -0.58773 0)
(3.1272 -0.585174 0)
(3.12535 -0.581294 0)
(3.12304 -0.575638 0)
(3.11974 -0.567031 0)
(3.11582 -0.555883 0)
(3.11022 -0.538947 0)
(3.10435 -0.520366 0)
(3.09588 -0.490877 0)
(3.08868 -0.465571 0)
(3.07711 -0.421172 0)
(3.06984 -0.392169 0)
(3.05605 -0.33559 0)
(3.05053 -0.308344 0)
(3.0355 -0.244182 0)
(3.03288 -0.224972 0)
(3.01854 -0.164522 0)
(3.01692 -0.151704 0)
(3.00605 -0.103529 0)
(3.00633 -0.0992631 0)
(2.99865 -0.0666547 0)
(3.00237 -0.0648956 0)
(2.99117 -0.0429367 0)
(2.99207 -0.0350653 0)
(2.98639 -0.0231278 0)
(2.98689 -0.0188758 0)
(2.98391 -0.0124583 0)
(2.98263 -0.00757546 0)
(2.98232 -0.00237963 0)
(2.98063 0.00272753 0)
(2.97742 0.00899553 0)
(2.97697 0.0147237 0)
(2.97587 0.0148895 0)
(2.97364 0.0132434 0)
(2.97232 0.00896032 0)
(2.97141 0.00289534 0)
(2.97136 -0.000407794 0)
(2.97101 -0.00497737 0)
(2.97104 -0.00616987 0)
(2.97201 -0.00445961 0)
(2.97463 -3.02001e-05 0)
(2.97573 0.00366227 0)
(2.97659 0.00734191 0)
(2.97747 0.00987923 0)
(2.97729 0.00906804 0)
(2.97555 0.00551616 0)
(2.97458 0.00214873 0)
(2.9739 -0.00168887 0)
(2.9745 -0.000384214 0)
(2.97581 0.00196014 0)
(2.97599 0.00412897 0)
(2.97726 0.00693622 0)
(2.97737 0.00643274 0)
(2.97719 0.00478264 0)
(2.97661 0.00173556 0)
(2.97631 0.00140763 0)
(2.97701 0.00241945 0)
(2.97783 0.00412475 0)
(2.97833 0.00571947 0)
(2.9783 0.00520939 0)
(2.97808 0.004028 0)
(2.97784 0.00253275 0)
(2.97826 0.00287044 0)
(2.97875 0.00364074 0)
(2.97882 0.00392157 0)
(2.97857 0.00341519 0)
(2.97855 0.00280084 0)
(2.97891 0.00325752 0)
(2.97917 0.00380812 0)
(2.97917 0.00381407 0)
(2.97906 0.0034503 0)
(2.97914 0.00319512 0)
(2.97935 0.00361369 0)
(2.97944 0.00406129 0)
(2.97973 0.0042953 0)
(2.97975 0.00424729 0)
(2.97975 0.00398801 0)
(2.97973 0.00360053 0)
(2.97964 0.00310235 0)
(2.97981 0.00295557 0)
(2.9797 0.00313691 0)
(2.97977 0.00336744 0)
(2.97987 0.0035852 0)
(2.97991 0.00385113 0)
(2.98011 0.00423697 0)
(3.12862 -0.591732 0)
(3.12849 -0.591713 0)
(3.12835 -0.591708 0)
(3.12822 -0.591675 0)
(3.12809 -0.591653 0)
(3.12796 -0.591644 0)
(3.12781 -0.591647 0)
(3.12767 -0.591622 0)
(3.12752 -0.591631 0)
(3.12737 -0.591615 0)
(3.12719 -0.591631 0)
(3.12704 -0.59162 0)
(3.12684 -0.591601 0)
(3.12667 -0.591546 0)
(3.12654 -0.591479 0)
(3.12642 -0.591405 0)
(3.12629 -0.591328 0)
(3.12617 -0.591236 0)
(3.12604 -0.591126 0)
(3.12589 -0.590992 0)
(3.12573 -0.590796 0)
(3.12553 -0.590533 0)
(3.12529 -0.589987 0)
(3.12476 -0.589259 0)
(3.12403 -0.587847 0)
(3.12294 -0.585382 0)
(3.12144 -0.581218 0)
(3.11896 -0.574037 0)
(3.11569 -0.563649 0)
(3.11019 -0.545493 0)
(3.10416 -0.524476 0)
(3.09387 -0.486598 0)
(3.08558 -0.454568 0)
(3.06991 -0.391244 0)
(3.06289 -0.354566 0)
(3.0422 -0.270039 0)
(3.04042 -0.237895 0)
(3.01883 -0.150312 0)
(3.02008 -0.131122 0)
(3.00099 -0.063534 0)
(3.00285 -0.0527319 0)
(2.98972 -0.0124796 0)
(2.9876 -0.00113551 0)
(2.98291 0.0167417 0)
(2.97696 0.0271697 0)
(2.97608 0.0321138 0)
(2.97363 0.0243214 0)
(2.97234 0.0134527 0)
(2.9723 0.00795018 0)
(2.97094 0.00321221 0)
(2.9698 -0.00116745 0)
(2.96994 -0.00147786 0)
(2.97044 -0.00114816 0)
(2.97129 0.000120101 0)
(2.97507 0.00623095 0)
(2.97581 0.00882801 0)
(2.97621 0.011909 0)
(2.97567 0.0106883 0)
(2.97449 0.00735694 0)
(2.97332 0.00434653 0)
(2.97042 -0.0012612 0)
(2.9722 -0.000626864 0)
(2.97286 0.000798865 0)
(2.97509 0.00335962 0)
(2.97547 0.00597235 0)
(2.97573 0.00824787 0)
(2.97554 0.0072742 0)
(2.97455 0.00441911 0)
(2.97441 0.00217974 0)
(2.97474 0.00206094 0)
(2.97521 0.00302483 0)
(2.97586 0.00483954 0)
(2.97681 0.00646129 0)
(2.97665 0.0057384 0)
(2.97599 0.00427177 0)
(2.9757 0.00259815 0)
(2.97607 0.00308101 0)
(2.97638 0.00414313 0)
(2.97677 0.00411931 0)
(2.97671 0.003509 0)
(2.97657 0.00290261 0)
(2.97674 0.00328389 0)
(2.97715 0.00409047 0)
(2.97728 0.00411815 0)
(2.97724 0.00362819 0)
(2.97728 0.00332462 0)
(2.97744 0.00356402 0)
(2.97768 0.00407347 0)
(2.97793 0.00448638 0)
(2.978 0.00439965 0)
(2.97801 0.00409593 0)
(2.97809 0.00393492 0)
(2.97811 0.00368372 0)
(2.97804 0.00339741 0)
(2.97812 0.00329688 0)
(2.97822 0.00325404 0)
(2.97833 0.00346884 0)
(2.97848 0.00382627 0)
(2.97858 0.0041127 0)
(2.97882 0.00437835 0)
(3.12504 -0.591056 0)
(3.12497 -0.591035 0)
(3.12489 -0.591032 0)
(3.12481 -0.591024 0)
(3.12474 -0.591021 0)
(3.12466 -0.590997 0)
(3.12458 -0.591003 0)
(3.12451 -0.590982 0)
(3.12443 -0.590985 0)
(3.12436 -0.590962 0)
(3.12429 -0.590969 0)
(3.12422 -0.590944 0)
(3.12414 -0.590948 0)
(3.12409 -0.590927 0)
(3.12404 -0.590952 0)
(3.12401 -0.590954 0)
(3.12396 -0.590995 0)
(3.12394 -0.591001 0)
(3.12389 -0.59106 0)
(3.12387 -0.59106 0)
(3.12383 -0.591135 0)
(3.12381 -0.59112 0)
(3.12373 -0.591224 0)
(3.12372 -0.591153 0)
(3.12373 -0.591105 0)
(3.12375 -0.591057 0)
(3.12377 -0.591013 0)
(3.12379 -0.590942 0)
(3.12379 -0.590827 0)
(3.12376 -0.59061 0)
(3.12367 -0.590079 0)
(3.12348 -0.589134 0)
(3.12298 -0.587014 0)
(3.12175 -0.582961 0)
(3.11962 -0.57527 0)
(3.11524 -0.561136 0)
(3.10933 -0.539955 0)
(3.09892 -0.502366 0)
(3.08922 -0.463082 0)
(3.07238 -0.393595 0)
(3.06339 -0.347824 0)
(3.0441 -0.261622 0)
(3.03871 -0.22638 0)
(3.02221 -0.150718 0)
(3.02002 -0.133701 0)
(3.00821 -0.0834969 0)
(3.01383 -0.0787604 0)
(2.99617 -0.0467794 0)
(2.99606 -0.0384276 0)
(2.98947 -0.0239311 0)
(2.98454 -0.0134763 0)
(2.98398 -0.00392442 0)
(2.982 0.00513902 0)
(2.9768 0.0124694 0)
(2.97659 0.0186172 0)
(2.97471 0.0167174 0)
(2.97295 0.0113073 0)
(2.97146 0.00350138 0)
(2.97108 -0.00180784 0)
(2.97071 -0.00718757 0)
(2.97121 -0.00652541 0)
(2.9735 -0.00155703 0)
(2.97526 0.00326284 0)
(2.97635 0.00820773 0)
(2.97609 0.00977074 0)
(2.97504 0.00745575 0)
(2.9733 0.00338394 0)
(2.97295 -0.00124487 0)
(2.97352 -0.000738584 0)
(2.97487 0.00271912 0)
(2.97595 0.00527134 0)
(2.97626 0.00680038 0)
(2.97586 0.00544765 0)
(2.97529 0.00350712 0)
(2.97497 0.00234595 0)
(2.97519 0.00305779 0)
(2.97566 0.00459643 0)
(2.97571 0.00413839 0)
(2.97558 0.00339312 0)
(2.97528 0.00190743 0)
(2.97537 0.00214091 0)
(2.9758 0.00308065 0)
(2.97596 0.00372411 0)
(2.97587 0.0035528 0)
(2.97579 0.00292836 0)
(2.97587 0.00303521 0)
(2.97611 0.00343238 0)
(2.97627 0.00390941 0)
(2.97634 0.00391437 0)
(2.97642 0.00390267 0)
(2.97648 0.00398273 0)
(2.97649 0.00373715 0)
(2.97644 0.00327617 0)
(2.97643 0.00286507 0)
(2.97643 0.00283642 0)
(2.97656 0.00301121 0)
(2.97671 0.00334492 0)
(2.97684 0.00370713 0)
(2.9769 0.00390309 0)
(2.9772 0.00419593 0)
(3.12359 -0.5909 0)
(3.12358 -0.590914 0)
(3.12358 -0.590903 0)
(3.12357 -0.590913 0)
(3.12358 -0.590914 0)
(3.12358 -0.590922 0)
(3.12359 -0.590925 0)
(3.1236 -0.590935 0)
(3.12361 -0.590943 0)
(3.12362 -0.590954 0)
(3.12364 -0.590961 0)
(3.12366 -0.59098 0)
(3.12369 -0.590993 0)
(3.12372 -0.591016 0)
(3.12376 -0.591013 0)
(3.1238 -0.591033 0)
(3.12384 -0.591041 0)
(3.12389 -0.591061 0)
(3.12395 -0.591078 0)
(3.124 -0.591095 0)
(3.12407 -0.591118 0)
(3.12414 -0.591136 0)
(3.12421 -0.591156 0)
(3.12429 -0.591168 0)
(3.12438 -0.591208 0)
(3.12447 -0.591222 0)
(3.12457 -0.591289 0)
(3.12468 -0.591292 0)
(3.12478 -0.591361 0)
(3.1249 -0.591367 0)
(3.12496 -0.591449 0)
(3.12512 -0.591439 0)
(3.12524 -0.591426 0)
(3.12537 -0.59141 0)
(3.12548 -0.591369 0)
(3.12557 -0.591269 0)
(3.12563 -0.590902 0)
(3.12561 -0.590009 0)
(3.1252 -0.587788 0)
(3.12376 -0.582697 0)
(3.12087 -0.572205 0)
(3.11451 -0.55087 0)
(3.10608 -0.51894 0)
(3.09086 -0.460179 0)
(3.07993 -0.407988 0)
(3.05412 -0.300329 0)
(3.05434 -0.25724 0)
(3.0235 -0.134552 0)
(3.02765 -0.114099 0)
(3.00586 -0.0397474 0)
(3.00007 -0.0167686 0)
(2.99367 0.0132805 0)
(2.9864 0.0288714 0)
(2.98385 0.0357587 0)
(2.97818 0.0236933 0)
(2.97435 0.0107144 0)
(2.97683 0.00701931 0)
(2.97263 -0.00253613 0)
(2.97292 -0.00298373 0)
(2.97355 -0.00286305 0)
(2.97594 0.00132123 0)
(2.9787 0.00764927 0)
(2.97871 0.0104028 0)
(2.97816 0.01018 0)
(2.97595 0.00739337 0)
(2.974 0.003026 0)
(2.97347 0.000598436 0)
(2.97398 0.000843954 0)
(2.97531 0.0038838 0)
(2.97614 0.00592501 0)
(2.97657 0.00784877 0)
(2.97617 0.00576835 0)
(2.97573 0.00383177 0)
(2.97543 0.00197503 0)
(2.97589 0.00258017 0)
(2.97633 0.0035765 0)
(2.97644 0.00509034 0)
(2.97614 0.0043666 0)
(2.97579 0.00304019 0)
(2.97566 0.00316514 0)
(2.976 0.00360187 0)
(2.9763 0.00428799 0)
(2.97618 0.00398735 0)
(2.97582 0.00332451 0)
(2.97574 0.00346625 0)
(2.97584 0.0037698 0)
(2.97606 0.00422427 0)
(2.97612 0.00430742 0)
(2.97607 0.00428896 0)
(2.97602 0.0042335 0)
(2.976 0.00403139 0)
(2.97593 0.00378261 0)
(2.97585 0.00341674 0)
(2.97587 0.00333629 0)
(2.97586 0.00328638 0)
(2.9759 0.00336351 0)
(2.97602 0.00377029 0)
(2.97614 0.00396781 0)
(2.9762 0.00408733 0)
(2.97638 0.00431267 0)
(3.12423 -0.590952 0)
(3.12426 -0.590973 0)
(3.1243 -0.590978 0)
(3.12434 -0.590992 0)
(3.12439 -0.591005 0)
(3.12443 -0.591018 0)
(3.12448 -0.591034 0)
(3.12454 -0.591036 0)
(3.12459 -0.591044 0)
(3.12465 -0.591058 0)
(3.12471 -0.59106 0)
(3.12477 -0.591076 0)
(3.12485 -0.591075 0)
(3.12492 -0.591097 0)
(3.12499 -0.591118 0)
(3.12507 -0.591134 0)
(3.12515 -0.591154 0)
(3.12523 -0.591177 0)
(3.12531 -0.591193 0)
(3.1254 -0.591205 0)
(3.12548 -0.591232 0)
(3.12558 -0.591242 0)
(3.12567 -0.591263 0)
(3.12577 -0.591291 0)
(3.12587 -0.59131 0)
(3.12598 -0.591333 0)
(3.12609 -0.591369 0)
(3.12621 -0.591394 0)
(3.12634 -0.591412 0)
(3.12646 -0.591442 0)
(3.1266 -0.591475 0)
(3.12673 -0.591495 0)
(3.12685 -0.59153 0)
(3.12698 -0.591541 0)
(3.1271 -0.591601 0)
(3.12722 -0.591614 0)
(3.12732 -0.591648 0)
(3.12746 -0.591649 0)
(3.12758 -0.591652 0)
(3.12768 -0.591644 0)
(3.12776 -0.591564 0)
(3.12783 -0.591289 0)
(3.12774 -0.590512 0)
(3.12715 -0.588346 0)
(3.12563 -0.582903 0)
(3.12143 -0.569754 0)
(3.11487 -0.54498 0)
(3.10136 -0.495489 0)
(3.08987 -0.440778 0)
(3.06742 -0.34104 0)
(3.05944 -0.289903 0)
(3.03742 -0.186866 0)
(3.02997 -0.14706 0)
(3.01765 -0.0931256 0)
(3.0192 -0.0782448 0)
(3.00102 -0.0453427 0)
(3.00336 -0.0319848 0)
(2.98966 -0.0176326 0)
(2.98945 -0.00412527 0)
(2.98555 0.00713399 0)
(2.9812 0.0166579 0)
(2.97954 0.0147227 0)
(2.9767 0.00939066 0)
(2.975 0.00319675 0)
(2.97255 -0.00205925 0)
(2.97367 -0.00609332 0)
(2.97489 -0.00359963 0)
(2.97742 0.0024876 0)
(2.97849 0.00932022 0)
(2.97804 0.00902755 0)
(2.9769 0.0066904 0)
(2.97629 0.00388632 0)
(2.97605 0.000772062 0)
(2.97628 0.00162108 0)
(2.97697 0.00419137 0)
(2.97729 0.00547453 0)
(2.97703 0.00464061 0)
(2.97648 0.00300531 0)
(2.97637 0.00114798 0)
(2.97679 0.0020491 0)
(2.97745 0.00358437 0)
(2.97717 0.00414507 0)
(2.97687 0.00360917 0)
(2.97641 0.00254575 0)
(2.97669 0.00273842 0)
(2.97695 0.00339403 0)
(2.97698 0.00432016 0)
(2.97693 0.00406922 0)
(2.9768 0.00393929 0)
(2.97671 0.00387491 0)
(2.97667 0.0037625 0)
(2.97647 0.00310977 0)
(2.97642 0.00287275 0)
(2.97645 0.0029525 0)
(2.97648 0.00315161 0)
(2.97655 0.00328279 0)
(2.9766 0.00340529 0)
(2.97675 0.00399529 0)
(2.97676 0.00419628 0)
(2.97677 0.00431818 0)
(3.12575 -0.591477 0)
(3.12579 -0.59149 0)
(3.12584 -0.591502 0)
(3.12589 -0.591504 0)
(3.12593 -0.591521 0)
(3.12599 -0.59152 0)
(3.12604 -0.591534 0)
(3.12609 -0.591554 0)
(3.12615 -0.591558 0)
(3.1262 -0.591579 0)
(3.12626 -0.591591 0)
(3.12632 -0.591599 0)
(3.12639 -0.591603 0)
(3.12646 -0.591604 0)
(3.12653 -0.591616 0)
(3.1266 -0.591623 0)
(3.12667 -0.591618 0)
(3.12674 -0.591629 0)
(3.12681 -0.591645 0)
(3.12688 -0.591662 0)
(3.12695 -0.591677 0)
(3.12703 -0.591688 0)
(3.12711 -0.591678 0)
(3.12719 -0.591694 0)
(3.12727 -0.591716 0)
(3.12736 -0.591721 0)
(3.12745 -0.59172 0)
(3.12754 -0.591739 0)
(3.12763 -0.591754 0)
(3.12773 -0.591767 0)
(3.12782 -0.591796 0)
(3.12791 -0.59182 0)
(3.128 -0.591822 0)
(3.12809 -0.591826 0)
(3.12817 -0.591849 0)
(3.12826 -0.591868 0)
(3.12834 -0.591875 0)
(3.12842 -0.591895 0)
(3.12849 -0.591922 0)
(3.12856 -0.591929 0)
(3.12864 -0.591926 0)
(3.12874 -0.591881 0)
(3.12878 -0.591874 0)
(3.12881 -0.591865 0)
(3.12882 -0.591835 0)
(3.12884 -0.5917 0)
(3.12877 -0.591307 0)
(3.12836 -0.589879 0)
(3.12717 -0.585739 0)
(3.12354 -0.574147 0)
(3.11713 -0.549346 0)
(3.10289 -0.496887 0)
(3.08787 -0.429574 0)
(3.06119 -0.317334 0)
(3.05153 -0.23279 0)
(3.02349 -0.110307 0)
(3.03103 -0.0813893 0)
(3.00249 0.0077201 0)
(2.99715 0.0164734 0)
(2.9931 0.0461995 0)
(2.98593 0.0387561 0)
(2.98299 0.0176915 0)
(2.97712 0.00353188 0)
(2.97474 -0.00211472 0)
(2.9749 -0.00231597 0)
(2.97605 -0.0019785 0)
(2.98066 0.00578494 0)
(2.98122 0.01013 0)
(2.98047 0.01069 0)
(2.97767 0.0074732 0)
(2.97692 0.00398791 0)
(2.97655 0.00144163 0)
(2.97709 0.00190381 0)
(2.97846 0.00433111 0)
(2.97867 0.00664797 0)
(2.97835 0.00595303 0)
(2.97749 0.00398458 0)
(2.97704 0.0024431 0)
(2.97718 0.00250004 0)
(2.97783 0.0037787 0)
(2.97792 0.00467544 0)
(2.97767 0.00404587 0)
(2.97741 0.00298983 0)
(2.97755 0.00296551 0)
(2.97782 0.00356264 0)
(2.97807 0.00426057 0)
(2.97803 0.00431505 0)
(2.97796 0.00426674 0)
(2.97789 0.00402752 0)
(2.97787 0.00387223 0)
(2.97779 0.00367066 0)
(2.97765 0.00350164 0)
(2.97762 0.00319582 0)
(2.97767 0.00316496 0)
(2.97774 0.00325554 0)
(2.97792 0.00362109 0)
(2.978 0.00391877 0)
(2.97801 0.00390608 0)
(2.97801 0.00406539 0)
(2.97792 0.00419117 0)
(3.12733 -0.591757 0)
(3.12737 -0.591766 0)
(3.1274 -0.591774 0)
(3.12744 -0.591785 0)
(3.12747 -0.59179 0)
(3.12751 -0.591802 0)
(3.12755 -0.591801 0)
(3.12759 -0.591808 0)
(3.12763 -0.591822 0)
(3.12767 -0.59181 0)
(3.12772 -0.591812 0)
(3.12776 -0.59182 0)
(3.1278 -0.591831 0)
(3.12784 -0.591829 0)
(3.12789 -0.591815 0)
(3.12793 -0.591817 0)
(3.12797 -0.59183 0)
(3.12802 -0.591825 0)
(3.12807 -0.591835 0)
(3.12811 -0.591844 0)
(3.12816 -0.591849 0)
(3.1282 -0.591862 0)
(3.12825 -0.591871 0)
(3.1283 -0.591876 0)
(3.12835 -0.5919 0)
(3.1284 -0.591914 0)
(3.12846 -0.591911 0)
(3.12851 -0.59191 0)
(3.12856 -0.591921 0)
(3.12861 -0.591932 0)
(3.12866 -0.591936 0)
(3.1287 -0.591934 0)
(3.12874 -0.591931 0)
(3.12878 -0.591929 0)
(3.12881 -0.591936 0)
(3.12885 -0.591952 0)
(3.12889 -0.591969 0)
(3.12894 -0.591977 0)
(3.12899 -0.591979 0)
(3.12903 -0.591976 0)
(3.12909 -0.591987 0)
(3.12914 -0.592006 0)
(3.12918 -0.592018 0)
(3.12921 -0.592018 0)
(3.12922 -0.591998 0)
(3.12923 -0.591953 0)
(3.12922 -0.591923 0)
(3.1292 -0.591913 0)
(3.12919 -0.591812 0)
(3.12916 -0.591716 0)
(3.12905 -0.591346 0)
(3.12856 -0.58995 0)
(3.12712 -0.585016 0)
(3.12276 -0.571354 0)
(3.11366 -0.537723 0)
(3.09727 -0.473087 0)
(3.08144 -0.394109 0)
(3.05546 -0.269825 0)
(3.04862 -0.21636 0)
(3.03039 -0.116108 0)
(3.02134 -0.0919886 0)
(3.02175 -0.0559522 0)
(2.99769 -0.0305982 0)
(2.99189 -0.0156261 0)
(2.99013 -0.00272296 0)
(2.9831 0.00894826 0)
(2.98276 0.0146448 0)
(2.97986 0.0121644 0)
(2.97717 0.0062049 0)
(2.97491 -0.00425697 0)
(2.97615 -0.00359911 0)
(2.9784 -7.79455e-05 0)
(2.97985 0.00490496 0)
(2.98006 0.00673812 0)
(2.97955 0.00625359 0)
(2.97804 0.00315577 0)
(2.97729 -7.15929e-05 0)
(2.97761 0.00100089 0)
(2.97834 0.00392157 0)
(2.97894 0.0053513 0)
(2.97882 0.0048506 0)
(2.97815 0.00286313 0)
(2.97828 0.0018411 0)
(2.97862 0.00272635 0)
(2.97883 0.00417499 0)
(2.97902 0.00453691 0)
(2.97892 0.00419615 0)
(2.97898 0.00383686 0)
(2.97904 0.00396492 0)
(2.97896 0.0037672 0)
(2.97879 0.00323748 0)
(2.97877 0.00270402 0)
(2.97874 0.00305282 0)
(2.97876 0.0032063 0)
(2.97894 0.00342369 0)
(2.97917 0.00355684 0)
(2.9792 0.0038205 0)
(2.97919 0.00422468 0)
(2.97919 0.0042559 0)
(2.97912 0.00430734 0)
(3.12848 -0.591973 0)
(3.12849 -0.591976 0)
(3.12851 -0.591979 0)
(3.12853 -0.591981 0)
(3.12855 -0.591984 0)
(3.12857 -0.591989 0)
(3.12859 -0.591993 0)
(3.12861 -0.591995 0)
(3.12864 -0.59199 0)
(3.12864 -0.591988 0)
(3.12866 -0.591987 0)
(3.12868 -0.591989 0)
(3.1287 -0.591988 0)
(3.12871 -0.59199 0)
(3.12874 -0.591987 0)
(3.12876 -0.591987 0)
(3.12878 -0.591982 0)
(3.1288 -0.59198 0)
(3.12882 -0.591979 0)
(3.12884 -0.591982 0)
(3.12886 -0.591985 0)
(3.12888 -0.59198 0)
(3.12891 -0.591971 0)
(3.12892 -0.591967 0)
(3.12893 -0.591965 0)
(3.12895 -0.59196 0)
(3.12898 -0.591956 0)
(3.129 -0.591952 0)
(3.12902 -0.591951 0)
(3.12904 -0.591953 0)
(3.12906 -0.591954 0)
(3.12908 -0.591953 0)
(3.1291 -0.591957 0)
(3.12911 -0.591964 0)
(3.12912 -0.591974 0)
(3.12914 -0.591988 0)
(3.12915 -0.592007 0)
(3.12917 -0.592022 0)
(3.12919 -0.592031 0)
(3.12922 -0.592043 0)
(3.12925 -0.592063 0)
(3.12928 -0.592083 0)
(3.1293 -0.592098 0)
(3.12932 -0.592098 0)
(3.12934 -0.592087 0)
(3.12935 -0.592065 0)
(3.12937 -0.592015 0)
(3.12937 -0.591965 0)
(3.12935 -0.591924 0)
(3.12931 -0.591873 0)
(3.12926 -0.591851 0)
(3.12921 -0.591831 0)
(3.12919 -0.591811 0)
(3.12913 -0.591703 0)
(3.12892 -0.591149 0)
(3.12809 -0.588504 0)
(3.12545 -0.57966 0)
(3.1173 -0.551929 0)
(3.10423 -0.494782 0)
(3.08023 -0.399406 0)
(3.05149 -0.261224 0)
(3.04986 -0.177587 0)
(3.01152 -0.0458558 0)
(3.00608 0.0027178 0)
(2.99878 0.0302189 0)
(2.99501 0.044454 0)
(2.98384 0.020964 0)
(2.97924 0.00689069 0)
(2.97795 -0.000325706 0)
(2.97828 -0.00201386 0)
(2.97973 0.000126019 0)
(2.98456 0.00778812 0)
(2.98142 0.0110849 0)
(2.9804 0.00927666 0)
(2.97852 0.00347848 0)
(2.978 0.000234125 0)
(2.9784 0.000602106 0)
(2.97966 0.00424973 0)
(2.98062 0.00759102 0)
(2.98021 0.0063539 0)
(2.97966 0.00365213 0)
(2.97887 0.00170483 0)
(2.97917 0.0021912 0)
(2.97975 0.0041772 0)
(2.97996 0.00491753 0)
(2.97986 0.0044708 0)
(2.97977 0.0039266 0)
(2.97981 0.00386901 0)
(2.97983 0.00389608 0)
(2.97972 0.00364486 0)
(2.9796 0.00328022 0)
(2.97957 0.00289466 0)
(2.97956 0.0029955 0)
(2.97955 0.00324733 0)
(2.97965 0.00350296 0)
(2.97972 0.00380966 0)
(2.97989 0.00397859 0)
(2.97995 0.00405884 0)
(2.98 0.00417454 0)
(2.98001 0.00420551 0)
(3.12903 -0.591924 0)
(3.12904 -0.591923 0)
(3.12905 -0.591921 0)
(3.12905 -0.591919 0)
(3.12906 -0.59192 0)
(3.12906 -0.591917 0)
(3.12907 -0.591907 0)
(3.12908 -0.5919 0)
(3.12909 -0.591897 0)
(3.12911 -0.591892 0)
(3.12911 -0.591887 0)
(3.12912 -0.591885 0)
(3.12913 -0.591878 0)
(3.12913 -0.59187 0)
(3.12914 -0.591867 0)
(3.12914 -0.591864 0)
(3.12915 -0.59186 0)
(3.12915 -0.591854 0)
(3.12916 -0.591852 0)
(3.12916 -0.591854 0)
(3.12916 -0.591853 0)
(3.12917 -0.591848 0)
(3.12917 -0.591847 0)
(3.12917 -0.591849 0)
(3.12916 -0.59185 0)
(3.12916 -0.591848 0)
(3.12916 -0.591847 0)
(3.12916 -0.591843 0)
(3.12916 -0.591838 0)
(3.12916 -0.591835 0)
(3.12916 -0.591834 0)
(3.12917 -0.591834 0)
(3.12918 -0.591836 0)
(3.12918 -0.591839 0)
(3.12918 -0.591843 0)
(3.12917 -0.591847 0)
(3.12917 -0.591854 0)
(3.12918 -0.591862 0)
(3.12919 -0.591869 0)
(3.12921 -0.591877 0)
(3.12923 -0.591888 0)
(3.12926 -0.591905 0)
(3.12928 -0.591927 0)
(3.12932 -0.591947 0)
(3.12935 -0.591958 0)
(3.12936 -0.591965 0)
(3.12938 -0.591966 0)
(3.12939 -0.591952 0)
(3.12938 -0.591913 0)
(3.12934 -0.591866 0)
(3.12928 -0.591825 0)
(3.1292 -0.59182 0)
(3.12915 -0.591819 0)
(3.12914 -0.591832 0)
(3.12914 -0.591852 0)
(3.12915 -0.591881 0)
(3.12914 -0.591932 0)
(3.12905 -0.591601 0)
(3.12858 -0.589892 0)
(3.12611 -0.581718 0)
(3.11935 -0.559054 0)
(3.10353 -0.492096 0)
(3.08424 -0.408894 0)
(3.05941 -0.277922 0)
(3.04461 -0.187879 0)
(3.02519 -0.101806 0)
(3.02636 -0.076765 0)
(3.00344 -0.037518 0)
(2.9989 -0.0172135 0)
(2.99487 -0.00373644 0)
(2.98344 0.0139528 0)
(2.98313 0.0139125 0)
(2.9796 0.00954442 0)
(2.97726 0.00250981 0)
(2.97715 -0.00490869 0)
(2.97846 -0.00317197 0)
(2.98081 0.0028797 0)
(2.98198 0.00710755 0)
(2.98161 0.00682929 0)
(2.97986 0.00311861 0)
(2.97924 -0.000507223 0)
(2.97975 0.000904458 0)
(2.98038 0.00363676 0)
(2.98104 0.0053644 0)
(2.98081 0.00475702 0)
(2.98046 0.00354712 0)
(2.98044 0.00363226 0)
(2.98044 0.00392876 0)
(2.98037 0.00382195 0)
(2.98019 0.00311152 0)
(2.98007 0.00273286 0)
(2.9801 0.00279201 0)
(2.98016 0.00309111 0)
(2.98025 0.00343765 0)
(2.98017 0.00365446 0)
(2.98014 0.00403812 0)
(2.9804 0.00416462 0)
(2.98044 0.00415381 0)
(2.98047 0.00420289 0)
(2.9805 0.00422521 0)
(3.12923 -0.591965 0)
(3.12923 -0.591965 0)
(3.12923 -0.591965 0)
(3.12924 -0.591964 0)
(3.12924 -0.591963 0)
(3.12925 -0.591963 0)
(3.12925 -0.591962 0)
(3.12925 -0.591954 0)
(3.12926 -0.591947 0)
(3.12927 -0.591948 0)
(3.12927 -0.591956 0)
(3.12927 -0.591957 0)
(3.12927 -0.591942 0)
(3.12927 -0.591921 0)
(3.12927 -0.591912 0)
(3.12927 -0.591913 0)
(3.12927 -0.591919 0)
(3.12928 -0.591924 0)
(3.12928 -0.591919 0)
(3.12927 -0.591917 0)
(3.12927 -0.591917 0)
(3.12927 -0.59191 0)
(3.12927 -0.591893 0)
(3.12926 -0.591881 0)
(3.12925 -0.59187 0)
(3.12925 -0.591856 0)
(3.12924 -0.591845 0)
(3.12923 -0.591835 0)
(3.12923 -0.59182 0)
(3.12922 -0.591804 0)
(3.12921 -0.591791 0)
(3.1292 -0.591783 0)
(3.1292 -0.591775 0)
(3.12919 -0.591768 0)
(3.12919 -0.591767 0)
(3.12919 -0.591767 0)
(3.12918 -0.591768 0)
(3.12918 -0.591772 0)
(3.12919 -0.591775 0)
(3.1292 -0.591783 0)
(3.12921 -0.591794 0)
(3.12924 -0.591808 0)
(3.12927 -0.591826 0)
(3.1293 -0.591848 0)
(3.12935 -0.591867 0)
(3.12939 -0.591876 0)
(3.12942 -0.591872 0)
(3.12943 -0.591862 0)
(3.12942 -0.591856 0)
(3.1294 -0.591854 0)
(3.12936 -0.591845 0)
(3.12931 -0.591828 0)
(3.12925 -0.591815 0)
(3.1292 -0.591822 0)
(3.12918 -0.591832 0)
(3.12917 -0.591844 0)
(3.12917 -0.591885 0)
(3.12921 -0.591918 0)
(3.12931 -0.592 0)
(3.12939 -0.591989 0)
(3.12934 -0.591603 0)
(3.12873 -0.589751 0)
(3.12627 -0.580608 0)
(3.117 -0.546168 0)
(3.10261 -0.485867 0)
(3.06385 -0.335816 0)
(3.0576 -0.229886 0)
(3.01733 -0.0631436 0)
(3.02681 -0.0326381 0)
(2.99765 0.0390816 0)
(2.99007 0.042857 0)
(2.98098 0.0159419 0)
(2.979 0.00215595 0)
(2.97857 -0.00283149 0)
(2.97974 -0.00260214 0)
(2.98549 0.00597007 0)
(2.98506 0.0128308 0)
(2.98371 0.0105915 0)
(2.98119 0.00443015 0)
(2.97972 0.000308745 0)
(2.98012 0.000590858 0)
(2.98224 0.00474051 0)
(2.98263 0.00748097 0)
(2.98195 0.00592645 0)
(2.98125 0.00396481 0)
(2.98086 0.00333418 0)
(2.9811 0.00389659 0)
(2.98111 0.00422694 0)
(2.98089 0.00366207 0)
(2.98069 0.00274219 0)
(2.98053 0.00274192 0)
(2.98063 0.00295385 0)
(2.98075 0.00329916 0)
(2.98082 0.00358489 0)
(2.98085 0.00388332 0)
(2.98091 0.00424444 0)
(2.9809 0.00417212 0)
(2.98082 0.00410828 0)
(2.9808 0.00417943 0)
(2.98074 0.00417077 0)
(3.1293 -0.591993 0)
(3.1293 -0.591994 0)
(3.1293 -0.591995 0)
(3.12931 -0.591994 0)
(3.12931 -0.591994 0)
(3.12931 -0.591999 0)
(3.12931 -0.592005 0)
(3.12931 -0.592006 0)
(3.12931 -0.592007 0)
(3.12932 -0.59202 0)
(3.12932 -0.592033 0)
(3.12933 -0.592033 0)
(3.12933 -0.592017 0)
(3.12933 -0.592003 0)
(3.12933 -0.59199 0)
(3.12934 -0.591981 0)
(3.12934 -0.591978 0)
(3.12934 -0.591985 0)
(3.12934 -0.591988 0)
(3.12934 -0.591981 0)
(3.12933 -0.591976 0)
(3.12932 -0.591969 0)
(3.12932 -0.591963 0)
(3.12931 -0.59196 0)
(3.1293 -0.591955 0)
(3.1293 -0.591945 0)
(3.1293 -0.591937 0)
(3.12929 -0.591928 0)
(3.12929 -0.59191 0)
(3.12928 -0.591884 0)
(3.12927 -0.591858 0)
(3.12925 -0.591837 0)
(3.12925 -0.591807 0)
(3.12926 -0.591775 0)
(3.12927 -0.591753 0)
(3.12926 -0.59174 0)
(3.12925 -0.591732 0)
(3.12925 -0.591729 0)
(3.12924 -0.591726 0)
(3.12923 -0.591725 0)
(3.12923 -0.591726 0)
(3.12925 -0.59173 0)
(3.12927 -0.591745 0)
(3.12931 -0.591776 0)
(3.12936 -0.591821 0)
(3.1294 -0.59187 0)
(3.12945 -0.591911 0)
(3.12949 -0.591941 0)
(3.12949 -0.591947 0)
(3.12947 -0.59194 0)
(3.12946 -0.591931 0)
(3.12942 -0.591905 0)
(3.12937 -0.59186 0)
(3.1293 -0.591818 0)
(3.12924 -0.591804 0)
(3.12922 -0.591816 0)
(3.12922 -0.59185 0)
(3.12926 -0.591848 0)
(3.12936 -0.591835 0)
(3.12948 -0.591812 0)
(3.12957 -0.591863 0)
(3.12957 -0.59195 0)
(3.12952 -0.591859 0)
(3.12936 -0.591337 0)
(3.12857 -0.588298 0)
(3.12415 -0.575352 0)
(3.11226 -0.527318 0)
(3.09162 -0.440677 0)
(3.06554 -0.301527 0)
(3.04225 -0.181177 0)
(3.03053 -0.113781 0)
(3.01963 -0.069133 0)
(3.00612 -0.0343869 0)
(2.99618 -0.00896954 0)
(2.9906 0.0071014 0)
(2.98781 0.0148321 0)
(2.98284 0.0106555 0)
(2.97879 0.00212222 0)
(2.97791 -0.00596349 0)
(2.97921 -0.00353187 0)
(2.98189 0.0035465 0)
(2.98296 0.00704437 0)
(2.98259 0.00661216 0)
(2.98086 0.00271094 0)
(2.98073 0.00242848 0)
(2.98108 0.00342774 0)
(2.98147 0.00436356 0)
(2.98135 0.00402728 0)
(2.98097 0.00273958 0)
(2.98083 0.00239753 0)
(2.98096 0.0028247 0)
(2.98105 0.0031767 0)
(2.98098 0.00321477 0)
(2.98109 0.00350672 0)
(2.98123 0.00390945 0)
(2.9813 0.00431277 0)
(2.98113 0.00424226 0)
(2.98103 0.00415427 0)
(2.98098 0.00421184 0)
(2.98083 0.00409548 0)
(3.12928 -0.591974 0)
(3.12928 -0.591981 0)
(3.12928 -0.591993 0)
(3.12929 -0.591997 0)
(3.1293 -0.591996 0)
(3.1293 -0.592 0)
(3.1293 -0.592011 0)
(3.12931 -0.592023 0)
(3.12931 -0.592037 0)
(3.12932 -0.592046 0)
(3.12933 -0.592052 0)
(3.12933 -0.592061 0)
(3.12933 -0.592069 0)
(3.12934 -0.592065 0)