/*--------------------------------*- C++ -*----------------------------------*\
  =========                 |
  \\      /  F ield         | OpenFOAM: The Open Source CFD Toolbox
   \\    /   O peration     | Website:  https://openfoam.org
    \\  /    A nd           | Version:  7
     \\/     M anipulation  |
\*---------------------------------------------------------------------------*/
FoamFile
{
    version     2.0;
    format      ascii;
    class       volScalarField;
    location    "4";
    object      T;
}
// * * * * * * * * * * * * * * * * * * * * * * * * * * * * * * * * * * * * * //

dimensions      [0 0 0 1 0 0 0];

internalField   nonuniform List<scalar> 
90000
(
0.75908
0.792943
0.822152
0.843418
0.859984
0.876318
0.89085
0.904388
0.918852
0.933404
0.947775
0.962802
0.977981
0.992849
1.00631
1.01855
1.02805
1.03612
1.042
1.04697
1.04963
1.05107
1.05125
1.05087
1.04949
1.04758
1.04472
1.04141
1.03734
1.03311
1.02942
1.02687
1.02725
1.02912
1.03214
1.0342
1.03668
1.03855
1.0389
1.03868
1.03806
1.03657
1.03433
1.03212
1.03024
1.03042
1.03155
1.03336
1.03535
1.03521
1.03421
1.03247
1.03009
1.02831
1.02788
1.02845
1.02984
1.03123
1.03077
1.02901
1.02689
1.02558
1.02602
1.0272
1.02706
1.02591
1.02414
1.02263
1.02298
1.02407
1.02452
1.02512
1.02695
1.0299
1.03243
1.03286
1.03281
1.03291
1.03294
1.03321
1.03438
1.03692
1.04063
1.04459
1.04827
1.05185
1.05541
1.05907
1.0624
1.0654
1.06691
1.06766
1.06882
1.07006
1.07091
1.06994
1.06658
1.06198
1.05741
1.0483
0.723832
0.723838
0.723901
0.724071
0.724473
0.725293
0.726694
0.728895
0.732621
0.738026
0.74614
0.757074
0.772241
0.79053
0.813314
0.838296
0.86628
0.893094
0.917216
0.937085
0.953889
0.968146
0.9799
0.990273
0.998198
1.00563
1.01068
1.01513
1.01775
1.02074
1.02312
1.0262
1.02919
1.03301
1.03583
1.03851
1.0404
1.04004
1.03933
1.03814
1.03587
1.03196
1.02873
1.02681
1.02722
1.02847
1.0305
1.03276
1.03261
1.03157
1.02956
1.0269
1.02531
1.02417
1.02493
1.0275
1.02863
1.02826
1.02658
1.02386
1.02217
1.02234
1.02407
1.02445
1.02363
1.02155
1.01976
1.01955
1.0206
1.02129
1.02118
1.02177
1.02399
1.02722
1.02981
1.03021
1.03058
1.03082
1.03098
1.03144
1.0329
1.03579
1.0398
1.04393
1.04771
1.05126
1.05481
1.05831
1.06151
1.06447
1.06602
1.06698
1.06822
1.06974
1.07081
1.06979
1.06648
1.06201
1.05741
1.04831
0.723182
0.723144
0.7231
0.723051
0.722984
0.722905
0.722815
0.722715
0.722608
0.722499
0.722392
0.722302
0.722211
0.72223
0.722406
0.722944
0.724374
0.727363
0.733282
0.74244
0.756245
0.773662
0.795552
0.819392
0.845897
0.872488
0.899793
0.925491
0.949906
0.972803
0.991958
1.00732
1.01711
1.02256
1.02458
1.02679
1.02823
1.02923
1.02879
1.02751
1.02464
1.02194
1.02237
1.0235
1.02591
1.0284
1.0292
1.02841
1.02683
1.02481
1.0225
1.02084
1.02035
1.02162
1.02431
1.0257
1.02522
1.02354
1.02054
1.01846
1.01871
1.02051
1.02187
1.02134
1.01946
1.01728
1.01649
1.01747
1.01874
1.01876
1.01849
1.01923
1.02203
1.02537
1.02775
1.02841
1.02898
1.02937
1.02965
1.03033
1.0321
1.03531
1.03954
1.04371
1.0475
1.05103
1.05461
1.05797
1.06106
1.06391
1.06553
1.06671
1.06796
1.06969
1.07075
1.06974
1.06646
1.06199
1.05744
1.04832
0.721978
0.721916
0.721849
0.721779
0.721703
0.721624
0.721545
0.721463
0.721378
0.721292
0.721203
0.721112
0.721016
0.720923
0.720806
0.720674
0.720531
0.720381
0.720232
0.720095
0.719973
0.719923
0.720037
0.720529
0.722
0.725279
0.732475
0.744622
0.764909
0.791207
0.825003
0.859088
0.892112
0.920265
0.943045
0.962186
0.976004
0.988866
0.996368
1.00329
1.00716
1.01218
1.01706
1.02356
1.02768
1.02858
1.02647
1.023
1.02035
1.01798
1.01616
1.01665
1.01859
1.02131
1.02323
1.02313
1.02177
1.01785
1.01505
1.01531
1.01717
1.01979
1.01972
1.01848
1.01562
1.01413
1.01495
1.01667
1.01733
1.01707
1.01662
1.01775
1.02106
1.02448
1.02619
1.02718
1.02809
1.02866
1.02885
1.02966
1.03176
1.03524
1.03957
1.04371
1.04749
1.05102
1.0546
1.05787
1.06088
1.06365
1.0653
1.06649
1.06783
1.06977
1.07074
1.06984
1.06654
1.06208
1.05753
1.04836
0.720509
0.720451
0.720388
0.720322
0.720255
0.720186
0.720114
0.720041
0.719967
0.719891
0.719812
0.71973
0.719647
0.719563
0.719477
0.719393
0.719308
0.719224
0.719142
0.719064
0.718985
0.718908
0.718837
0.718742
0.718638
0.718536
0.718451
0.718381
0.718411
0.718615
0.719584
0.722392
0.730065
0.744198
0.768645
0.798605
0.834785
0.870392
0.906073
0.938399
0.966538
0.990255
1.00431
1.01266
1.01632
1.01843
1.01866
1.01812
1.01686
1.01334
1.01372
1.01597
1.01914
1.02073
1.02065
1.01976
1.0157
1.01289
1.01301
1.01474
1.01804
1.01901
1.01804
1.01475
1.01276
1.01305
1.01503
1.01639
1.01628
1.0151
1.01543
1.01738
1.02073
1.02411
1.02513
1.02641
1.02756
1.02824
1.02843
1.02939
1.03172
1.03536
1.03997
1.04427
1.04806
1.0515
1.0548
1.05788
1.06082
1.0635
1.06519
1.06645
1.06788
1.07009
1.07086
1.06981
1.06663
1.06228
1.05768
1.04841
0.719127
0.719086
0.719042
0.718996
0.718948
0.718901
0.718854
0.718805
0.718756
0.718708
0.71866
0.71861
0.71856
0.718509
0.718458
0.718408
0.718358
0.718305
0.718254
0.718205
0.718154
0.718105
0.718058
0.718013
0.717972
0.717935
0.717912
0.717898
0.717886
0.71789
0.717874
0.717854
0.717859
0.717888
0.718017
0.71852
0.720479
0.725787
0.739609
0.763124
0.801202
0.843795
0.886971
0.922302
0.950059
0.97263
0.989444
1.0001
1.00556
1.00831
1.01323
1.01864
1.02162
1.02105
1.01983
1.01504
1.01044
1.01085
1.01314
1.01689
1.01921
1.01855
1.01487
1.01213
1.01203
1.01378
1.01616
1.01638
1.01486
1.01409
1.01504
1.0182
1.02128
1.02313
1.02445
1.02615
1.02744
1.02784
1.02824
1.02946
1.03199
1.03583
1.04028
1.04456
1.04839
1.05191
1.05508
1.05795
1.06088
1.06347
1.06518
1.06657
1.06819
1.07063
1.07123
1.07024
1.06697
1.06251
1.05785
1.04846
0.718048
0.718026
0.718002
0.717979
0.717954
0.717929
0.717904
0.717878
0.717852
0.717827
0.717802
0.717775
0.717749
0.717722
0.717694
0.717668
0.71764
0.71761
0.717584
0.717564
0.717543
0.71752
0.717503
0.717493
0.71748
0.717473
0.717477
0.717487
0.717505
0.717522
0.717546
0.717577
0.717614
0.717653
0.717699
0.717732
0.717764
0.7178
0.717855
0.717996
0.718658
0.721196
0.730625
0.750603
0.786447
0.830216
0.879191
0.924372
0.963374
0.991758
1.00943
1.01615
1.01876
1.01838
1.01589
1.00949
1.01036
1.01302
1.0176
1.0193
1.01904
1.01576
1.01145
1.01134
1.01284
1.0165
1.0169
1.01595
1.01336
1.01372
1.01583
1.01918
1.02141
1.0222
1.02406
1.02621
1.02744
1.02763
1.0283
1.02982
1.03243
1.03623
1.04079
1.04523
1.04905
1.05248
1.05553
1.0582
1.06097
1.06364
1.06539
1.06693
1.06882
1.07147
1.07191
1.07083
1.06747
1.06284
1.05804
1.0485
0.717311
0.717302
0.717291
0.717281
0.717269
0.717258
0.717246
0.717234
0.717222
0.71721
0.717198
0.717186
0.717175
0.717162
0.717151
0.717141
0.71713
0.717116
0.717106
0.717108
0.717107
0.717104
0.717106
0.717116
0.71713
0.717146
0.717167
0.717199
0.717238
0.717275
0.717313
0.717357
0.717401
0.717445
0.717492
0.717527
0.717567
0.717591
0.717614
0.717632
0.717649
0.717659
0.717685
0.717771
0.7182
0.720265
0.728595
0.751571
0.793302
0.850109
0.902328
0.942418
0.971202
0.989131
1.00071
1.0056
1.01265
1.01892
1.0229
1.02104
1.01762
1.01128
1.01
1.01166
1.01601
1.01847
1.0175
1.01375
1.0126
1.01377
1.01738
1.02025
1.02061
1.02151
1.02394
1.02637
1.02753
1.02762
1.02845
1.03021
1.03288
1.03677
1.04139
1.04577
1.0496
1.053
1.05592
1.05853
1.0612
1.06371
1.06539
1.06709
1.06942
1.07234
1.07271
1.0716
1.06805
1.06321
1.05823
1.04853
0.716879
0.716874
0.716869
0.716863
0.716857
0.716851
0.716845
0.716839
0.716834
0.716829
0.716824
0.716821
0.716817
0.716813
0.716811
0.716812
0.716811
0.716811
0.716813
0.716824
0.71684
0.716852
0.716867
0.716893
0.716926
0.716957
0.716991
0.717032
0.71708
0.717122
0.717162
0.717209
0.717254
0.717297
0.717344
0.71738
0.717416
0.717453
0.717488
0.717514
0.717504
0.717504
0.71752
0.717557
0.717608
0.717671
0.717756
0.7179
0.718517
0.722315
0.736777
0.771665
0.823412
0.880645
0.935037
0.97858
1.00672
1.0167
1.01972
1.01919
1.01393
1.00874
1.01151
1.01666
1.01896
1.01861
1.01489
1.01154
1.01208
1.01558
1.01885
1.01984
1.01929
1.02077
1.02422
1.0268
1.02733
1.0278
1.02883
1.03065
1.03325
1.03723
1.04187
1.04621
1.05004
1.05342
1.05628
1.05883
1.06148
1.06391
1.06571
1.06767
1.07038
1.07343
1.07367
1.07243
1.06862
1.06356
1.05842
1.04858
0.716624
0.716623
0.716622
0.716621
0.71662
0.716618
0.716617
0.716615
0.716615
0.716615
0.716616
0.716618
0.716621
0.716624
0.716628
0.716635
0.716643
0.716649
0.716659
0.716679
0.716707
0.716729
0.716754
0.716792
0.716838
0.716879
0.716917
0.716961
0.717012
0.717057
0.717099
0.717144
0.717185
0.717227
0.71727
0.717302
0.717319
0.71736
0.717355
0.717357
0.717366
0.717383
0.71741
0.717452
0.717514
0.717592
0.71769
0.71781
0.717941
0.718059
0.71817
0.718481
0.7203
0.730434
0.75989
0.819714
0.883155
0.933071
0.969843
0.990421
1.00174
1.00847
1.01736
1.02208
1.02057
1.017
1.01093
1.01099
1.01359
1.01761
1.01954
1.01798
1.01826
1.02088
1.02488
1.02695
1.0269
1.02775
1.02935
1.031
1.03346
1.03755
1.04219
1.04648
1.05036
1.05377
1.05661
1.05913
1.06179
1.06426
1.06633
1.0686
1.07163
1.07463
1.0747
1.07327
1.06917
1.06388
1.05859
1.04866
0.716367
0.716369
0.71637
0.716373
0.716375
0.716378
0.716381
0.716384
0.716389
0.716395
0.716403
0.716411
0.716421
0.716432
0.716446
0.716466
0.716488
0.716509
0.716534
0.716567
0.71661
0.716645
0.71668
0.716726
0.716782
0.716832
0.716876
0.716924
0.716972
0.717019
0.71706
0.717102
0.717144
0.717189
0.717221
0.717241
0.717233
0.717218
0.717222
0.717234
0.717261
0.717304
0.71735
0.717399
0.717467
0.71756
0.717677
0.717804
0.717939
0.718045
0.718148
0.718239
0.718319
0.718374
0.718537
0.720201
0.73006
0.764103
0.820218
0.887276
0.949958
0.993966
1.0128
1.01856
1.01843
1.01287
1.00929
1.01222
1.01733
1.01871
1.01791
1.01532
1.01714
1.02224
1.02583
1.02631
1.02656
1.028
1.02989
1.03116
1.03363
1.03786
1.04241
1.04668
1.05063
1.05409
1.05688
1.05946
1.06212
1.0647
1.067
1.06963
1.07293
1.07574
1.07567
1.07402
1.06966
1.06418
1.05876
1.04877
0.716096
0.716103
0.716109
0.716116
0.716125
0.716136
0.716147
0.716157
0.716169
0.716184
0.7162
0.716218
0.716241
0.716265
0.716289
0.716316
0.716346
0.716378
0.716412
0.716451
0.716497
0.716543
0.716586
0.716638
0.716696
0.716755
0.716809
0.716864
0.716912
0.716952
0.716983
0.717012
0.717033
0.717029
0.717022
0.717024
0.717027
0.71704
0.717081
0.717141
0.717197
0.71725
0.717305
0.717369
0.71745
0.717557
0.717675
0.717808
0.717937
0.718042
0.718102
0.718144
0.718194
0.718246
0.718304
0.718392
0.718502
0.718781
0.720726
0.733925
0.776521
0.849823
0.914862
0.959079
0.989922
0.999691
1.01011
1.01773
1.02144
1.01999
1.01391
1.01377
1.01827
1.02387
1.026
1.025
1.02617
1.02864
1.03045
1.0312
1.03379
1.03809
1.04253
1.04686
1.0509
1.05436
1.05715
1.05995
1.06258
1.06535
1.06787
1.0708
1.07421
1.07672
1.07652
1.07467
1.07013
1.06446
1.05894
1.04891
0.715855
0.715874
0.715891
0.715905
0.715917
0.715934
0.715955
0.715975
0.715994
0.716017
0.716042
0.716068
0.716096
0.716129
0.716163
0.716196
0.716231
0.716267
0.716302
0.71634
0.716383
0.716429
0.716477
0.716531
0.716586
0.716636
0.71668
0.716719
0.716761
0.716784
0.716804
0.716812
0.716825
0.716838
0.716839
0.716844
0.716876
0.71693
0.71699
0.717048
0.717109
0.717178
0.717254
0.717331
0.717419
0.717516
0.717638
0.717745
0.717841
0.717917
0.717942
0.717986
0.718062
0.718153
0.718239
0.718336
0.718462
0.718588
0.718729
0.718887
0.719363
0.724282
0.747714
0.805851
0.879241
0.948393
0.997696
1.01453
1.01745
1.01435
1.00992
1.01407
1.02222
1.02517
1.02372
1.02375
1.02637
1.0298
1.03074
1.03136
1.03417
1.03825
1.04254
1.04705
1.05122
1.05459
1.05727
1.06006
1.06281
1.06586
1.06881
1.07203
1.07544
1.07756
1.07724
1.07526
1.0706
1.06475
1.05915
1.04911
0.715689
0.715709
0.715736
0.715763
0.715784
0.715804
0.71583
0.715857
0.715881
0.715907
0.715937
0.715968
0.715998
0.716033
0.716072
0.71611
0.716148
0.716187
0.716224
0.716263
0.716307
0.716351
0.716395
0.716444
0.716487
0.716535
0.716569
0.716571
0.716585
0.716602
0.716622
0.716651
0.716657
0.716653
0.716673
0.716713
0.716763
0.716822
0.716894
0.716968
0.717041
0.717121
0.7172
0.717279
0.717357
0.71746
0.717576
0.717655
0.717727
0.717789
0.717815
0.717858
0.71794
0.718057
0.718173
0.718291
0.718416
0.71855
0.718703
0.718859
0.719029
0.71915
0.719312
0.720676
0.731552
0.780368
0.857132
0.925102
0.972805
0.99438
1.0064
1.01783
1.02668
1.02589
1.02067
1.02291
1.02812
1.03094
1.03037
1.03151
1.0346
1.03832
1.04253
1.04725
1.05148
1.05462
1.05768
1.0603
1.06321
1.06662
1.06995
1.07324
1.07656
1.07829
1.07787
1.07581
1.0711
1.06508
1.05942
1.04934
0.715629
0.715649
0.715676
0.715712
0.715739
0.715758
0.715782
0.715811
0.715837
0.715864
0.715894
0.715924
0.715954
0.715989
0.716027
0.716062
0.716099
0.716135
0.716171
0.716207
0.716247
0.716288
0.716319
0.716354
0.716377
0.716381
0.716405
0.716425
0.716424
0.716446
0.71647
0.716497
0.716522
0.71654
0.71657
0.716623
0.716692
0.716768
0.71685
0.716928
0.717005
0.717081
0.717158
0.717227
0.717309
0.717417
0.717495
0.717536
0.717606
0.717656
0.717689
0.717745
0.717851
0.71799
0.718126
0.718259
0.718383
0.71852
0.718687
0.71884
0.718958
0.719045
0.719136
0.719249
0.719359
0.719918
0.726049
0.76103
0.82958
0.913634
0.980848
1.01136
1.02231
1.01938
1.01823
1.02534
1.03086
1.03066
1.02971
1.03163
1.03528
1.03833
1.04247
1.04757
1.0516
1.05477
1.0575
1.06018
1.06351
1.0675
1.07124
1.07447
1.07759
1.07899
1.07849
1.07638
1.07168
1.06547
1.05974
1.04963
0.715629
0.715649
0.715673
0.715713
0.715744
0.715756
0.715773
0.715803
0.715827
0.71585
0.715873
0.715897
0.715918
0.715938
0.715958
0.715982
0.716012
0.716038
0.716068
0.71609
0.716113
0.716158
0.716182
0.716181
0.716201
0.716228
0.716239
0.716273
0.716297
0.716318
0.71635
0.716382
0.716416
0.716459
0.716512
0.716576
0.716649
0.716733
0.716823
0.716905
0.716976
0.71705
0.71711
0.717173
0.717251
0.717331
0.717378
0.717407
0.717454
0.717517
0.717588
0.717671
0.717793
0.71794
0.718093
0.71824
0.718368
0.718514
0.718655
0.718754
0.718829
0.718917
0.719025
0.719154
0.719293
0.719451
0.719615
0.719951
0.723158
0.749954
0.823874
0.904463
0.967575
0.999268
1.01546
1.03204
1.03274
1.02922
1.0293
1.03294
1.03604
1.03804
1.04244
1.04769
1.05203
1.05493
1.05768
1.0607
1.06453
1.06887
1.07273
1.07572
1.07855
1.0797
1.07914
1.07702
1.07233
1.06594
1.06013
1.04995
0.715588
0.715603
0.715619
0.715645
0.715673
0.715686
0.715701
0.715723
0.715739
0.715751
0.715768
0.715787
0.715808
0.71583
0.715838
0.715844
0.715857
0.71588
0.715895
0.715895
0.715897
0.71592
0.715967
0.71599
0.716009
0.716044
0.716081
0.71612
0.716162
0.716201
0.716242
0.716284
0.716332
0.716388
0.716457
0.716541
0.716626
0.716719
0.716806
0.716883
0.716951
0.716999
0.717037
0.717083
0.717121
0.71715
0.717193
0.717247
0.717309
0.71739
0.717491
0.717613
0.717759
0.71792
0.718078
0.718216
0.718363
0.71848
0.718569
0.718648
0.718706
0.718797
0.71893
0.719082
0.719243
0.719416
0.719592
0.719797
0.71998
0.720196
0.722716
0.746171
0.813943
0.914573
0.992047
1.02762
1.03194
1.02587
1.03044
1.03569
1.03589
1.03711
1.04219
1.04769
1.05175
1.05508
1.05821
1.06171
1.06597
1.07048
1.07423
1.07692
1.07947
1.08041
1.07981
1.0777
1.07304
1.06648
1.06058
1.05033
0.715496
0.71551
0.715524
0.715535
0.715543
0.715549
0.715559
0.715568
0.715574
0.71558
0.715591
0.715598
0.715598
0.715597
0.715593
0.715588
0.715599
0.715634
0.715654
0.715659
0.715672
0.715701
0.715748
0.7158
0.715847
0.715894
0.715944
0.715997
0.71605
0.716104
0.716158
0.716217
0.716276
0.716344
0.716425
0.716512
0.716604
0.716687
0.716764
0.716828
0.716872
0.716887
0.716903
0.716916
0.716929
0.716954
0.717006
0.717086
0.717183
0.717297
0.717422
0.717567
0.717732
0.717904
0.718056
0.718191
0.718291
0.718344
0.718418
0.71851
0.718587
0.718697
0.718851
0.719018
0.719197
0.719393
0.719595
0.719784
0.719974
0.720091
0.720172
0.72034
0.722466
0.749761
0.838269
0.933406
0.996149
1.01657
1.03381
1.03787
1.03441
1.03649
1.0421
1.04703
1.05199
1.05571
1.05916
1.06308
1.06757
1.07215
1.07565
1.07803
1.08039
1.08114
1.08049
1.07839
1.07378
1.06706
1.06105
1.05074
0.715306
0.715312
0.715326
0.715336
0.715339
0.715338
0.715332
0.715336
0.715339
0.715338
0.715348
0.715353
0.715349
0.715348
0.715344
0.715343
0.715358
0.715389
0.715428
0.715466
0.715505
0.715552
0.715608
0.71567
0.715734
0.715797
0.715862
0.715929
0.715997
0.716066
0.716134
0.716195
0.716252
0.716316
0.716396
0.716471
0.716546
0.71662
0.71668
0.716732
0.716735
0.71672
0.716706
0.716719
0.716748
0.716792
0.716864
0.71697
0.717099
0.717237
0.717386
0.717539
0.717704
0.71786
0.718004
0.718098
0.718144
0.71819
0.718261
0.71836
0.718473
0.718619
0.718793
0.718964
0.719153
0.719361
0.719555
0.719743
0.719923
0.719993
0.720085
0.720212
0.720333
0.72058
0.72516
0.76447
0.867321
0.971649
1.02616
1.03508
1.03068
1.03729
1.04246
1.0471
1.05273
1.05709
1.06075
1.06487
1.06921
1.07369
1.07689
1.07905
1.08135
1.08186
1.08115
1.07901
1.07452
1.06771
1.06159
1.05122
0.715062
0.715044
0.715048
0.715072
0.71509
0.71509
0.715084
0.715086
0.715083
0.715088
0.715111
0.715128
0.715129
0.715121
0.715127
0.715148
0.715181
0.715223
0.715277
0.715338
0.7154
0.715468
0.71554
0.715612
0.715684
0.715755
0.715827
0.715898
0.715965
0.716031
0.716096
0.716146
0.716195
0.716256
0.716329
0.7164
0.716458
0.716522
0.716552
0.716562
0.716558
0.716521
0.71652
0.716544
0.716599
0.716678
0.716778
0.716903
0.717047
0.717197
0.717344
0.717502
0.717645
0.717778
0.717886
0.717928
0.717975
0.718034
0.718121
0.718239
0.718384
0.718562
0.718758
0.718939
0.719125
0.719325
0.719508
0.719711
0.719811
0.719886
0.719991
0.72013
0.720282
0.720512
0.72071
0.721175
0.731088
0.804447
0.914186
0.992846
1.01915
1.04113
1.04289
1.04721
1.05396
1.05823
1.06227
1.06641
1.07039
1.0749
1.07801
1.07999
1.08225
1.08247
1.08165
1.07956
1.0752
1.06838
1.06213
1.05164
0.71478
0.714763
0.714765
0.71478
0.714814
0.714847
0.714867
0.714874
0.714871
0.714875
0.714898
0.714938
0.714948
0.714956
0.714979
0.715016
0.715062
0.715115
0.715181
0.715259
0.715341
0.715427
0.715511
0.715588
0.715662
0.715735
0.715803
0.715865
0.715921
0.715979
0.716036
0.716071
0.716108
0.71616
0.716209
0.716282
0.716334
0.716327
0.716323
0.716346
0.71634
0.716328
0.716345
0.716401
0.716492
0.716602
0.716725
0.716871
0.717025
0.717163
0.717306
0.717435
0.717542
0.717657
0.717695
0.717719
0.717789
0.71789
0.718012
0.718152
0.718311
0.71851
0.718743
0.718939
0.719102
0.719284
0.719446
0.719556
0.719675
0.719788
0.719913
0.720072
0.720271
0.720485
0.720695
0.720909
0.721051
0.722807
0.750513
0.852641
0.96783
1.03175
1.03945
1.04842
1.05516
1.05943
1.06392
1.06746
1.07119
1.07598
1.07912
1.08086
1.08298
1.08296
1.08199
1.08006
1.07594
1.06917
1.0628
1.05216
0.714596
0.714603
0.714599
0.714594
0.714603
0.714633
0.714677
0.714731
0.714747
0.714748
0.714757
0.714788
0.714827
0.714865
0.714904
0.714952
0.715004
0.715061
0.715128
0.715202
0.715276
0.715355
0.715439
0.715512
0.715577
0.715634
0.715684
0.715729
0.715771
0.715829
0.715873
0.715891
0.715917
0.715947
0.715986
0.716035
0.716045
0.716046
0.716064
0.716108
0.71612
0.716142
0.716193
0.716283
0.716409
0.716545
0.71669
0.716837
0.716972
0.717102
0.717212
0.717291
0.717403
0.717469
0.717467
0.717501
0.717608
0.717765
0.717932
0.718105
0.718289
0.718495
0.718745
0.71892
0.719049
0.719224
0.719286
0.719376
0.71953
0.719702
0.719859
0.720046
0.720289
0.72047
0.720716
0.7208
0.720902
0.721026
0.721325
0.72883
0.799433
0.922555
0.999093
1.04673
1.05486
1.06069
1.0656
1.06794
1.07187
1.07729
1.08031
1.08158
1.08331
1.08324
1.08226
1.08062
1.07686
1.07011
1.06363
1.05277
0.714549
0.714566
0.714583
0.714589
0.714587
0.714597
0.714632
0.714677
0.71473
0.714768
0.714772
0.714775
0.714798
0.714844
0.714892
0.714932
0.714975
0.715028
0.71509
0.71515
0.715206
0.715265
0.715306
0.715348
0.715389
0.715423
0.715448
0.715476
0.715515
0.715552
0.715555
0.715552
0.715558
0.715584
0.715618
0.715662
0.71571
0.71576
0.715823
0.715904
0.715984
0.71606
0.71614
0.71625
0.716375
0.716509
0.716635
0.716756
0.716866
0.71696
0.716999
0.717043
0.717147
0.717213
0.717251
0.717325
0.717466
0.717676
0.717877
0.718077
0.718277
0.718497
0.718721
0.718849
0.719005
0.71907
0.719112
0.719221
0.719416
0.719625
0.719829
0.72006
0.720298
0.720538
0.720586
0.720627
0.720742
0.720931
0.72123
0.721505
0.723343
0.753235
0.875426
1.01014
1.04378
1.0623
1.06714
1.06829
1.07328
1.07918
1.08134
1.08246
1.08399
1.08371
1.08278
1.08136
1.07784
1.07108
1.06452
1.05344
0.714493
0.714517
0.714535
0.71455
0.714555
0.714554
0.714563
0.714592
0.71463
0.714679
0.714705
0.714704
0.714711
0.714742
0.714801
0.714852
0.714869
0.714893
0.714934
0.714969
0.714995
0.715031
0.715049
0.715059
0.71509
0.715124
0.715126
0.715144
0.715188
0.715221
0.715224
0.715225
0.715235
0.715277
0.715336
0.7154
0.715475
0.715565
0.715671
0.715791
0.715907
0.716
0.716091
0.716198
0.716322
0.716438
0.716529
0.716595
0.716661
0.716696
0.716721
0.716763
0.716853
0.716969
0.71709
0.71722
0.717381
0.71761
0.717842
0.71804
0.71824
0.71847
0.718636
0.71875
0.718821
0.718878
0.718958
0.71911
0.719337
0.719573
0.719818
0.720069
0.720324
0.720469
0.720459
0.720488
0.720621
0.720874
0.721195
0.721624
0.721955
0.722387
0.736785
0.835534
0.974217
1.06023
1.06712
1.06902
1.07621
1.08089
1.08164
1.08265
1.08409
1.0839
1.08345
1.08241
1.07908
1.07221
1.06549
1.05417
0.714376
0.714393
0.714404
0.71442
0.714441
0.714446
0.714453
0.714474
0.714505
0.714549
0.714584
0.714586
0.714589
0.714611
0.714665
0.714697
0.714696
0.714695
0.714715
0.714756
0.714753
0.714747
0.714765
0.714756
0.714767
0.71481
0.714813
0.714824
0.714866
0.714924
0.714956
0.714974
0.715016
0.715091
0.71518
0.715263
0.715348
0.715452
0.715574
0.715691
0.715797
0.715883
0.715976
0.716071
0.716203
0.716319
0.716314
0.716323
0.716368
0.716418
0.716473
0.716547
0.716656
0.716801
0.716988
0.717195
0.71738
0.717599
0.717819
0.717989
0.718182
0.718393
0.718433
0.718476
0.718561
0.718685
0.718843
0.719039
0.71929
0.719552
0.719837
0.720067
0.720249
0.720319
0.72034
0.720393
0.720555
0.720832
0.721267
0.721677
0.722076
0.722187
0.722419
0.727144
0.812706
0.980958
1.04927
1.06857
1.08089
1.08137
1.08218
1.08369
1.08473
1.08457
1.08461
1.08391
1.08062
1.07349
1.06653
1.05495
0.714109
0.71412
0.714142
0.714167
0.71418
0.714197
0.714202
0.714207
0.714228
0.714263
0.714278
0.714278
0.714277
0.714292
0.714324
0.714326
0.71433
0.714328
0.714317
0.714326
0.714334
0.714349
0.714371
0.714376
0.714397
0.714458
0.714508
0.714543
0.714577
0.714628
0.714697
0.714774
0.714869
0.714965
0.715068
0.715197
0.715289
0.715366
0.715462
0.715552
0.715651
0.715746
0.715799
0.715852
0.715964
0.716001
0.715971
0.715987
0.716069
0.716177
0.716284
0.716397
0.71654
0.716732
0.716953
0.717171
0.717378
0.71759
0.71778
0.717912
0.7181
0.718163
0.718167
0.718233
0.71837
0.718545
0.718755
0.718991
0.719256
0.719561
0.719811
0.720011
0.720031
0.720076
0.720214
0.720362
0.720557
0.720933
0.721351
0.7218
0.721917
0.722017
0.722262
0.722569
0.725959
0.791308
0.953907
1.05496
1.08339
1.08079
1.08303
1.08569
1.08533
1.08577
1.08637
1.08557
1.08214
1.07482
1.06764
1.0558
0.713502
0.713501
0.713523
0.713548
0.713549
0.713558
0.713565
0.713562
0.71357
0.713597
0.713611
0.713627
0.713657
0.713707
0.713756
0.713793
0.713817
0.713833
0.713849
0.713876
0.713911
0.713971
0.71402
0.714045
0.714083
0.714155
0.714251
0.714365
0.714432
0.714481
0.714537
0.714605
0.714722
0.714865
0.714967
0.715083
0.715182
0.715241
0.715302
0.715344
0.7154
0.715477
0.715493
0.715512
0.715597
0.715632
0.71563
0.715684
0.715822
0.715987
0.716146
0.716313
0.716506
0.716718
0.716934
0.717125
0.717328
0.717513
0.717625
0.717728
0.717863
0.717888
0.717919
0.718025
0.718213
0.718451
0.718709
0.718989
0.71931
0.719523
0.719794
0.71983
0.719814
0.719881
0.720062
0.720335
0.72071
0.721097
0.721512
0.72173
0.721749
0.721882
0.72218
0.722668
0.723088
0.724815
0.780528
0.947915
1.06531
1.07767
1.08572
1.08725
1.08611
1.08746
1.08813
1.087
1.08344
1.07618
1.06888
1.05678
0.712881
0.712869
0.712879
0.712923
0.712961
0.712974
0.712983
0.712995
0.713005
0.713022
0.713044
0.713075
0.713128
0.7132
0.713284
0.713378
0.713455
0.713497
0.713528
0.713573
0.713629
0.713701
0.71379
0.713876
0.713951
0.714039
0.71413
0.714219
0.714317
0.71438
0.71442
0.71447
0.714565
0.71468
0.714739
0.714779
0.714836
0.714882
0.714902
0.714919
0.714961
0.715033
0.715063
0.715084
0.715152
0.715263
0.715354
0.715472
0.715661
0.715891
0.716105
0.716286
0.716461
0.716646
0.716837
0.717017
0.717195
0.717337
0.717326
0.71737
0.717515
0.717632
0.717737
0.717887
0.718117
0.718402
0.718687
0.719013
0.719292
0.71948
0.719539
0.71961
0.719661
0.71979
0.720025
0.720409
0.720843
0.721257
0.721542
0.72156
0.721615
0.721807
0.722161
0.722653
0.723179
0.723511
0.724889
0.771881
0.947568
1.05111
1.08869
1.08713
1.08675
1.08988
1.08982
1.08794
1.08438
1.07757
1.07021
1.05789
0.712579
0.712595
0.71261
0.712641
0.712671
0.712703
0.712739
0.712767
0.712785
0.712808
0.712841
0.712877
0.712932
0.713032
0.713137
0.713228
0.713337
0.713431
0.713481
0.713527
0.713584
0.713645
0.713707
0.713775
0.713844
0.713918
0.714001
0.71408
0.714151
0.714202
0.714211
0.714185
0.71419
0.714234
0.71424
0.714254
0.714295
0.714356
0.714394
0.714423
0.714465
0.714539
0.714634
0.714736
0.714862
0.715025
0.715206
0.715382
0.71561
0.715862
0.716046
0.716208
0.716362
0.71655
0.716704
0.716829
0.716976
0.717
0.716994
0.717048
0.717206
0.717406
0.717619
0.71785
0.718141
0.718418
0.71869
0.718998
0.71918
0.719155
0.719173
0.719334
0.719598
0.719824
0.720162
0.720607
0.721013
0.721311
0.721357
0.721398
0.721524
0.721785
0.722167
0.722712
0.723163
0.723444
0.723754
0.724843
0.768968
0.947278
1.07455
1.08054
1.08764
1.09247
1.09103
1.08879
1.0854
1.07904
1.07161
1.05911
0.712276
0.712344
0.712398
0.712406
0.712393
0.712406
0.712464
0.712525
0.712567
0.712609
0.712659
0.71271
0.712772
0.712864
0.712949
0.713026
0.71314
0.713222
0.713256
0.713302
0.713357
0.713401
0.713433
0.713466
0.713516
0.713564
0.713615
0.713683
0.713744
0.713767
0.713746
0.713693
0.713698
0.713679
0.713638
0.713657
0.713739
0.71385
0.71392
0.713979
0.714066
0.714187
0.71434
0.714523
0.714742
0.71497
0.715169
0.715324
0.715529
0.715779
0.715922
0.71609
0.716203
0.716262
0.716328
0.716382
0.716475
0.716571
0.716651
0.716775
0.716972
0.717215
0.717514
0.717845
0.718182
0.718446
0.718627
0.718768
0.718859
0.718882
0.718971
0.719195
0.719514
0.719924
0.720415
0.720806
0.721075
0.721169
0.721182
0.721259
0.721459
0.721801
0.722304
0.722758
0.723002
0.723206
0.723675
0.724214
0.725357
0.771761
0.957189
1.05052
1.09012
1.09373
1.0921
1.08998
1.08674
1.0805
1.07297
1.06038
0.711527
0.711581
0.711637
0.711686
0.711734
0.7118
0.711868
0.711881
0.711888
0.711919
0.711991
0.712068
0.712085
0.712088
0.712108
0.712148
0.712212
0.712283
0.712316
0.712335
0.712397
0.712478
0.712496
0.712475
0.712464
0.712494
0.712526
0.712575
0.712655
0.712713
0.712772
0.712861
0.71289
0.712895
0.712936
0.713039
0.7132
0.713362
0.713504
0.713643
0.713792
0.713964
0.714154
0.714374
0.714603
0.714803
0.715007
0.715143
0.715289
0.715426
0.715519
0.715661
0.715725
0.715706
0.715717
0.715823
0.715979
0.716157
0.716359
0.716586
0.716844
0.717133
0.717507
0.717859
0.718154
0.718368
0.718328
0.718331
0.718472
0.718688
0.718912
0.719191
0.719579
0.720144
0.720591
0.720884
0.720964
0.72096
0.721009
0.721167
0.721442
0.722
0.722409
0.722788
0.722846
0.723078
0.723603
0.724334
0.724812
0.726001
0.773224
0.95469
1.0799
1.09129
1.09094
1.09084
1.08751
1.08144
1.07425
1.06155
0.710109
0.710157
0.71021
0.710259
0.710317
0.710382
0.710425
0.710462
0.710528
0.710568
0.710603
0.710664
0.710693
0.710694
0.710713
0.710763
0.710824
0.710851
0.710888
0.710978
0.711093
0.711214
0.71131
0.711328
0.711323
0.711349
0.711436
0.711555
0.711682
0.711834
0.711984
0.71214
0.712266
0.712358
0.712458
0.712594
0.712765
0.712955
0.713144
0.713315
0.713487
0.713677
0.713898
0.714137
0.714334
0.71447
0.71465
0.714764
0.714752
0.714769
0.714846
0.714995
0.715177
0.715281
0.715366
0.715501
0.715711
0.715946
0.716205
0.71652
0.716868
0.717264
0.717551
0.717813
0.717955
0.717994
0.717987
0.718052
0.718252
0.718581
0.718932
0.719322
0.719912
0.720397
0.720676
0.720704
0.720724
0.720765
0.720899
0.721148
0.721695
0.722133
0.722542
0.722491
0.722606
0.722983
0.723566
0.724249
0.724864
0.725277
0.726418
0.780342
0.97334
1.0575
1.09168
1.09184
1.08825
1.08264
1.07571
1.06251
0.709375
0.709433
0.709491
0.709556
0.709635
0.709751
0.709801
0.709788
0.709793
0.709835
0.709887
0.709934
0.709967
0.709986
0.71003
0.710087
0.71011
0.710152
0.710221
0.710334
0.710481
0.710615
0.710765
0.710931
0.710968
0.71097
0.71104
0.711197
0.711348
0.711545
0.71175
0.711869
0.711981
0.712091
0.712215
0.71239
0.712604
0.712839
0.71311
0.713366
0.713576
0.713794
0.71403
0.714255
0.714274
0.714271
0.714295
0.71435
0.714333
0.714323
0.714415
0.714632
0.714895
0.71509
0.715251
0.715431
0.715673
0.716002
0.716421
0.716877
0.717213
0.717531
0.717611
0.717558
0.717644
0.717765
0.717847
0.717983
0.71826
0.718653
0.71923
0.71986
0.720415
0.720509
0.720525
0.720548
0.720594
0.720675
0.720993
0.721547
0.722048
0.722274
0.722203
0.722274
0.722524
0.723055
0.723676
0.724196
0.724712
0.725309
0.725819
0.727353
0.783504
0.969486
1.08515
1.09058
1.08787
1.08436
1.07688
1.06319
0.709007
0.709046
0.70904
0.709067
0.709158
0.709306
0.709374
0.709371
0.709379
0.709426
0.709495
0.709586
0.709659
0.709674
0.709706
0.709813
0.709867
0.709895
0.709966
0.710103
0.710279
0.710423
0.710585
0.710808
0.710886
0.710886
0.710951
0.711133
0.711302
0.711476
0.71175
0.712076
0.712181
0.712265
0.712428
0.712718
0.713089
0.713372
0.713613
0.71376
0.713875
0.713926
0.713968
0.713933
0.713883
0.713895
0.713952
0.714072
0.714112
0.714178
0.714353
0.714623
0.714952
0.715363
0.715861
0.716387
0.716823
0.717173
0.717426
0.717682
0.717655
0.717667
0.717633
0.717549
0.717622
0.717829
0.71813
0.718509
0.719032
0.719721
0.720297
0.720712
0.720669
0.720573
0.720611
0.720647
0.720787
0.721209
0.721784
0.72227
0.722294
0.722114
0.722128
0.722268
0.72282
0.723538
0.724108
0.72433
0.724697
0.725464
0.726185
0.726516
0.727909
0.79586
0.991082
1.06319
1.08764
1.08592
1.07863
1.06443
0.710571
0.710643
0.710733
0.710849
0.710958
0.711053
0.711125
0.711187
0.711254
0.711319
0.711386
0.711469
0.71156