/*--------------------------------*- C++ -*----------------------------------*\
  =========                 |
  \\      /  F ield         | OpenFOAM: The Open Source CFD Toolbox
   \\    /   O peration     | Website:  https://openfoam.org
    \\  /    A nd           | Version:  7
     \\/     M anipulation  |
\*---------------------------------------------------------------------------*/
FoamFile
{
    version     2.0;
    format      ascii;
    class       volScalarField;
    location    "4";
    object      rho;
}
// * * * * * * * * * * * * * * * * * * * * * * * * * * * * * * * * * * * * * //

dimensions      [1 -3 0 0 0 0 0];

internalField   nonuniform List<scalar> 
90000
(
1.2249
1.21984
1.21531
1.20991
1.20739
1.20539
1.2038
1.20189
1.20171
1.20176
1.20238
1.20319
1.20467
1.20586
1.20766
1.20923
1.21141
1.21309
1.21519
1.21673
1.21878
1.22019
1.22187
1.22303
1.22433
1.22514
1.22633
1.22721
1.22845
1.2297
1.23145
1.23303
1.23502
1.23698
1.23932
1.24157
1.24388
1.2464
1.25038
1.25405
1.25801
1.26177
1.26533
1.26875
1.27136
1.27435
1.27303
1.26867
1.25956
1.25161
1.24509
1.2432
1.24453
1.24771
1.25257
1.25763
1.26237
1.26581
1.26857
1.27026
1.27126
1.26966
1.26558
1.25809
1.25129
1.24628
1.24645
1.24922
1.25456
1.26069
1.26581
1.27045
1.26958
1.2651
1.25741
1.25328
1.25108
1.25457
1.26005
1.26581
1.26808
1.26604
1.26227
1.26093
1.26195
1.26464
1.26886
1.26954
1.2681
1.26568
1.26571
1.26768
1.26997
1.27096
1.26992
1.26783
1.26712
1.26736
1.26728
1.26733
1.23272
1.23295
1.23326
1.2333
1.2334
1.2335
1.2335
1.23349
1.23358
1.23369
1.23371
1.23374
1.23407
1.23437
1.2345
1.23479
1.23549
1.23597
1.23631
1.23674
1.23757
1.23856
1.23941
1.24043
1.24159
1.24253
1.24329
1.24423
1.24527
1.24644
1.24766
1.24884
1.24993
1.25106
1.2522
1.25328
1.25437
1.25569
1.25758
1.2599
1.2626
1.26566
1.26914
1.27266
1.27673
1.28051
1.2848
1.28802
1.29124
1.2927
1.29131
1.28699
1.28137
1.27551
1.27119
1.2686
1.26855
1.26952
1.27169
1.27469
1.27901
1.2829
1.28729
1.2868
1.28385
1.27681
1.27031
1.26506
1.26386
1.26581
1.26963
1.27534
1.28192
1.28519
1.28282
1.27575
1.26915
1.26738
1.26928
1.27326
1.27832
1.28217
1.28049
1.27616
1.27303
1.27452
1.27881
1.28249
1.28155
1.27878
1.27701
1.2778
1.28034
1.28216
1.28195
1.28047
1.27914
1.27856
1.27836
1.27841
1.2367
1.23682
1.237
1.23714
1.2372
1.23723
1.23728
1.23736
1.2375
1.23763
1.23776
1.23796
1.23814
1.23827
1.23839
1.23869
1.23918
1.23963
1.23996
1.24029
1.24074
1.2413
1.24187
1.24254
1.24341
1.24426
1.24503
1.24606
1.24716
1.24822
1.24928
1.2503
1.25127
1.2523
1.25336
1.25449
1.2556
1.25689
1.25842
1.26042
1.26268
1.26547
1.26861
1.27206
1.27604
1.27995
1.28434
1.28835
1.29215
1.29448
1.29583
1.29636
1.2981
1.29897
1.29844
1.29658
1.29363
1.29041
1.28795
1.28745
1.28818
1.28971
1.29181
1.29367
1.29516
1.29611
1.29499
1.28997
1.28389
1.27839
1.27852
1.28071
1.28524
1.29047
1.29547
1.2973
1.29363
1.28702
1.28105
1.28123
1.28431
1.28911
1.29519
1.29396
1.28961
1.28575
1.28665
1.28957
1.29334
1.29239
1.28992
1.28854
1.28965
1.2922
1.29234
1.2916
1.29004
1.28903
1.28827
1.28791
1.24301
1.24306
1.24325
1.24335
1.24334
1.24332
1.24333
1.24344
1.24365
1.24366
1.24367
1.24376
1.24377
1.24377
1.24383
1.24417
1.24441
1.24441
1.24441
1.24446
1.24459
1.24474
1.24497
1.24522
1.24542
1.24557
1.24577
1.24589
1.24617
1.2466
1.24707
1.24759
1.24818
1.24888
1.25007
1.25159
1.25309
1.25463
1.25617
1.25791
1.25973
1.26177
1.26389
1.26647
1.26928
1.27268
1.27611
1.28032
1.28457
1.28844
1.29319
1.29597
1.29816
1.29959
1.29979
1.30009
1.30034
1.30012
1.30015
1.29956
1.29859
1.29773
1.29686
1.29712
1.2978
1.29878
1.29983
1.30121
1.30031
1.29657
1.29258
1.28926
1.28952
1.29147
1.2956
1.29838
1.30163
1.30179
1.29838
1.29387
1.29115
1.29251
1.29605
1.29929
1.30148
1.29866
1.29444
1.29468
1.29696
1.30081
1.29987
1.29726
1.29583
1.29729
1.29995
1.29945
1.29796
1.29625
1.29578
1.29503
1.24941
1.24942
1.24945
1.24945
1.24942
1.24941
1.24943
1.24952
1.24955
1.24954
1.2495
1.24946
1.24946
1.24947
1.24964
1.24989
1.24992
1.24988
1.24967
1.24946
1.24943
1.24949
1.24964
1.24966
1.24956
1.24929
1.24915
1.24912
1.24915
1.24921
1.24929
1.24939
1.24952
1.2498
1.25001
1.25023
1.2505
1.25087
1.25156
1.25254
1.2537
1.25498
1.25627
1.25785
1.25956
1.26183
1.26416
1.26701
1.27005
1.27366
1.27786
1.28229
1.28644
1.29005
1.29398
1.29623
1.29865
1.30029
1.30105
1.30137
1.30155
1.30166
1.30152
1.30108
1.30046
1.30026
1.30049
1.30143
1.3023
1.30329
1.30307
1.30104
1.29818
1.29539
1.29592
1.29734
1.30143
1.30312
1.30478
1.3039
1.3006
1.29675
1.29716
1.29909
1.30161
1.30335
1.30209
1.29981
1.29987
1.3015
1.30384
1.30341
1.30156
1.30075
1.3018
1.30388
1.3033
1.30139
1.29988
1.2991
1.25383
1.25365
1.25353
1.25352
1.25352
1.25355
1.25361
1.25361
1.2536
1.25354
1.25341
1.25335
1.25336
1.25346
1.25355
1.25354
1.25354
1.25354
1.25348
1.25321
1.25305
1.25307
1.25313
1.25313
1.25302
1.25265
1.25229
1.25214
1.25209
1.25204
1.2519
1.25164
1.25138
1.25116
1.25097
1.25097
1.25098
1.25103
1.25099
1.2509
1.25074
1.25078
1.25101
1.25148
1.25223
1.25329
1.25463
1.25631
1.258
1.26027
1.26274
1.26638
1.26991
1.27439
1.27909
1.28355
1.28912
1.2926
1.29614
1.29821
1.30075
1.30129
1.30125
1.30093
1.30033
1.30019
1.30045
1.30108
1.30229
1.30351
1.30436
1.30477
1.30425
1.30229
1.29905
1.29914
1.29988
1.30235
1.30466
1.3054
1.30523
1.30301
1.2999
1.29995
1.30083
1.30316
1.30414
1.30369
1.30261
1.30254
1.30368
1.30494
1.30464
1.30329
1.30295
1.30392
1.30524
1.30459
1.30285
1.30113
1.25821
1.25809
1.25778
1.25767
1.25769
1.2577
1.25767
1.25761
1.25759
1.25752
1.25731
1.25713
1.25706
1.25702
1.257
1.25692
1.25677
1.25673
1.25668
1.2564
1.25603
1.25597
1.25596
1.25588
1.25566
1.25531
1.25487
1.25443
1.25414
1.25398
1.25379
1.2535
1.25312
1.25273
1.25238
1.25208
1.25178
1.25145
1.25114
1.25076
1.25038
1.25022
1.25015
1.24996
1.24986
1.24988
1.24999
1.25027
1.25069
1.25135
1.25237
1.25387
1.2557
1.25832
1.26118
1.26545
1.26975
1.27501
1.28061
1.28519
1.29052
1.29345
1.29651
1.29742
1.29817
1.29905
1.30083
1.30165
1.3025
1.30313
1.3039
1.30453
1.30476
1.30476
1.30392
1.30234
1.30087
1.30114
1.30234
1.30451
1.30506
1.30488
1.30346
1.3018
1.3015
1.30209
1.30369
1.30438
1.3043
1.30375
1.30388
1.30464
1.30502
1.30467
1.30396
1.30408
1.30497
1.30554
1.30483
1.30269
1.25984
1.25983
1.25982
1.25981
1.25978
1.25973
1.25967
1.25966
1.25966
1.25964
1.25958
1.25949
1.25947
1.25948
1.25948
1.25948
1.25943
1.25924
1.259
1.2588
1.25844
1.25799
1.25775
1.25759
1.25741
1.25718
1.25686
1.25645
1.25603
1.25571
1.25543
1.25512
1.25471
1.25425
1.25383
1.25342
1.25302
1.25255
1.25197
1.25139
1.25082
1.25034
1.24985
1.24948
1.24939
1.2494
1.24937
1.24926
1.24912
1.24894
1.24869
1.24864
1.24879
1.24919
1.24995
1.25137
1.25332
1.2569
1.26105
1.26696
1.273
1.27946
1.28612
1.29055
1.29545
1.29774
1.29972
1.30046
1.30147
1.3016
1.30191
1.30265
1.30374
1.30493
1.30509
1.30463
1.303
1.30147
1.30152
1.30213
1.30358
1.30456
1.30439
1.3038
1.30278
1.30224
1.30267
1.30388
1.30419
1.30415
1.30394
1.30407
1.3047
1.3049
1.30461
1.30433
1.30458
1.30533
1.3054
1.30405
1.25946
1.25945
1.25944
1.25944
1.25944
1.25941
1.25936
1.25935
1.25934
1.25931
1.25929
1.25925
1.25922
1.25923
1.25923
1.25917
1.25893
1.25881
1.25878
1.25869
1.25848
1.25837
1.25833
1.2583
1.25824
1.25815
1.25796
1.2577
1.25749
1.25734
1.25719
1.25697
1.25666
1.25631
1.25598
1.25566
1.25532
1.2549
1.25436
1.25359
1.25271
1.25182
1.25099
1.25032
1.24986
1.24953
1.24916
1.24884
1.2486
1.24835
1.24803
1.24766
1.24749
1.2475
1.2475
1.24748
1.24757
1.24803
1.24909
1.25157
1.255
1.26081
1.26694
1.27405
1.281
1.28608
1.29096
1.29293
1.29584
1.29771
1.30019
1.30228
1.30408
1.30479
1.30472
1.3043
1.30358
1.30266
1.30185
1.30199
1.30217
1.30291
1.3037
1.30386
1.30375
1.30315
1.30287
1.30304
1.30361
1.30383
1.3038
1.30381
1.30409
1.30462
1.3048
1.30457
1.30459
1.30488
1.30529
1.30472
1.25794
1.25792
1.25787
1.25782
1.25777
1.2577
1.25767
1.25767
1.25768
1.25768
1.25765
1.25752
1.25727
1.25724
1.25724
1.25721
1.25709
1.25694
1.25685
1.25677
1.25666
1.25653
1.2564
1.25631
1.25622
1.25613
1.25591
1.25566
1.25556
1.25549
1.25539
1.25523
1.25503
1.25483
1.25467
1.2545
1.25432
1.25408
1.25372
1.25339
1.25307
1.25272
1.25235
1.25194
1.25145
1.2509
1.25029
1.24971
1.24912
1.24852
1.24802
1.24748
1.24716
1.24719
1.24718
1.24714
1.24716
1.24713
1.24716
1.24736
1.24787
1.24949
1.25228
1.2571
1.26232
1.26927
1.27592
1.28234
1.28845
1.29324
1.29871
1.30094
1.30305
1.30308
1.30266
1.30211
1.30239
1.30279
1.3027
1.30239
1.3019
1.30189
1.30235
1.30321
1.30377
1.30373
1.30328
1.30288
1.30293
1.30324
1.30344
1.3035
1.30367
1.30412
1.30456
1.30461
1.30456
1.30477
1.30515
1.3051
1.25556
1.25556
1.25552
1.25546
1.25546
1.25552
1.25554
1.25554
1.25553
1.25551
1.2554
1.25534
1.25531
1.25527
1.25524
1.25515
1.25502
1.255
1.25498
1.2549
1.25472
1.25455
1.25445
1.25438
1.25431
1.25425
1.2541
1.2539
1.25382
1.25378
1.25372
1.25362
1.25361
1.25361
1.2536
1.25357
1.25353
1.25345
1.25337
1.25329
1.25323
1.2532
1.25314
1.25298
1.25272
1.25237
1.25201
1.25156
1.25104
1.25048
1.2499
1.24933
1.24863
1.24838
1.24847
1.24862
1.24861
1.24845
1.24806
1.2479
1.24801
1.24812
1.24851
1.24943
1.25108
1.25421
1.2581
1.26451
1.27142
1.2786
1.28608
1.29055
1.29595
1.29712
1.29886
1.30027
1.30243
1.30313
1.30312
1.30287
1.30226
1.30176
1.30191
1.30253
1.30349
1.30361
1.30348
1.30311
1.30285
1.30291
1.30308
1.30324
1.30337
1.30367
1.30417
1.30443
1.30451
1.30473
1.30504
1.30525
1.25334
1.25334
1.25333
1.25334
1.25338
1.25344
1.25345
1.25345
1.25344
1.25343
1.25344
1.25345
1.25344
1.25343
1.25338
1.25323
1.25319
1.25321
1.2532
1.25309
1.25289
1.25285
1.25281
1.25272
1.25272
1.25271
1.25266
1.25253
1.25238
1.25225
1.25221
1.25221
1.25223
1.25232
1.25237
1.25239
1.25244
1.25252
1.2525
1.2525
1.25254
1.25266
1.25286
1.25309
1.25316
1.25312
1.25304
1.25285
1.25251
1.25211
1.25175
1.25146
1.2511
1.25075
1.25074
1.25086
1.25089
1.25071
1.2502
1.24935
1.24877
1.24862
1.24868
1.24919
1.24977
1.25025
1.25083
1.25274
1.25566
1.26153
1.26809
1.27658
1.28478
1.29055
1.29725
1.29929
1.30153
1.30208
1.30191
1.30182
1.30224
1.30251
1.30271
1.30295
1.30312
1.30323
1.30337
1.30334
1.30319
1.3031
1.3031
1.30309
1.30316
1.30335
1.30371
1.30413
1.30456
1.30482
1.30504
1.30536
1.25128
1.2513
1.25132
1.25134
1.25139
1.25144
1.25145
1.25145
1.25146
1.25149
1.2515
1.25149
1.25146
1.25147
1.25147
1.25141
1.25141
1.25143
1.25137
1.25119
1.25109
1.25103
1.25097
1.25096
1.25102
1.25104
1.251
1.25089
1.25076
1.25063
1.25059
1.2506
1.25065
1.25078
1.25089
1.25099
1.25112
1.25128
1.25144
1.25161
1.25186
1.2522
1.25265
1.25312
1.25343
1.25355
1.25356
1.25351
1.25334
1.253
1.25264
1.25245
1.25245
1.25262
1.25306
1.2536
1.25397
1.25404
1.25389
1.25334
1.25229
1.25125
1.25087
1.25089
1.25092
1.25097
1.2512
1.25109
1.25105
1.2518
1.25397
1.25935
1.2657
1.27409
1.28181
1.28738
1.29365
1.29596
1.29899
1.30098
1.30347
1.3037
1.30358
1.30326
1.30304
1.30315
1.30349
1.30381
1.30375
1.30352
1.30321
1.3033
1.30345
1.30361
1.30389
1.30433
1.3049
1.30505
1.30523
1.30571
1.25082
1.25088
1.25094
1.25098
1.25101
1.25104
1.25108
1.25112
1.25116
1.2512
1.25122
1.25123
1.25125
1.25131
1.25133
1.25133
1.25134
1.25131
1.25116
1.25103
1.251
1.25098
1.25096
1.25091
1.2508
1.25063
1.25043
1.25025
1.25007
1.24985
1.24965
1.24959
1.24959
1.2496
1.24965
1.24975
1.24989
1.25007
1.25027
1.25053
1.25087
1.25128
1.25179
1.2524
1.25309
1.25378
1.25412
1.25415
1.25412
1.25389
1.25338
1.25292
1.25293
1.25326
1.25388
1.25449
1.25496
1.25544
1.25581
1.25568
1.25528
1.25462
1.25387
1.2533
1.25292
1.2525
1.25207
1.25151
1.25108
1.25087
1.25098
1.25175
1.25389
1.25853
1.26398
1.27244
1.28091
1.28853
1.29737
1.3002
1.3029
1.30313
1.3029
1.3027
1.30324
1.30379
1.30409
1.30407
1.30408
1.30401
1.30402
1.30403
1.30394
1.30396
1.30414
1.30458
1.30514
1.3054
1.30566
1.30625
1.25096
1.25103
1.25108
1.25112
1.25115
1.25117
1.2512
1.25125
1.2513
1.25133
1.25136
1.2514
1.25146
1.25153
1.2516
1.25166
1.25172
1.25173
1.25169
1.25166
1.25166
1.25167
1.25168
1.25167
1.2516
1.2515
1.25139
1.25124
1.25107
1.25091
1.2507
1.25042
1.25021
1.25016
1.25016
1.2502
1.25027
1.25038
1.25056
1.25088
1.25131
1.25179
1.25235
1.25301
1.25371
1.25442
1.25503
1.25532
1.25531
1.25514
1.25475
1.25424
1.25393
1.25399
1.25428
1.25467
1.2551
1.25554
1.25598
1.25656
1.25675
1.2567
1.25636
1.25568
1.2551
1.25466
1.25418
1.25357
1.25291
1.25208
1.25168
1.25196
1.25227
1.25283
1.25422
1.25801
1.26341
1.27238
1.2812
1.28831
1.29573
1.29784
1.3007
1.30247
1.30456
1.30483
1.30469
1.30447
1.30469
1.30507
1.30513
1.30492
1.30463
1.30463
1.30488
1.30525
1.30558
1.30591
1.30633
1.30708
1.25244
1.25249
1.25255
1.25258
1.25259
1.25261
1.25261
1.25261
1.25262
1.25268
1.25277
1.25284
1.25289
1.25293
1.25296
1.25299
1.25303
1.25311
1.2532
1.25328
1.2534
1.25352
1.25354
1.25353
1.25358
1.25375
1.25382
1.25381
1.25372
1.25365
1.25357
1.2534
1.25311
1.25272
1.25249
1.2524
1.25229
1.25224
1.25225
1.25232
1.2525
1.25276
1.25315
1.25363
1.25411
1.25459
1.2551
1.25544
1.25543
1.25524
1.2549
1.25464
1.2544
1.25427
1.25435
1.25452
1.25471
1.25501
1.25572
1.25662
1.25683
1.25684
1.25677
1.25648
1.25617
1.25608
1.25597
1.25569
1.25537
1.25481
1.25392
1.25327
1.25316
1.25339
1.2535
1.25388
1.25519
1.25897
1.26433
1.27346
1.28235
1.29048
1.29917
1.30187
1.30406
1.30446
1.30406
1.3049
1.30587
1.30624
1.30596
1.30558
1.30558
1.30576
1.30601
1.30606
1.30619
1.30652
1.30709
1.30793
1.25485
1.25482
1.25473
1.2547
1.25472
1.25471
1.25467
1.25466
1.2547
1.25479
1.2548
1.25473
1.25471
1.25468
1.25464
1.25463
1.25462
1.25466
1.25479
1.25495
1.25519
1.25528
1.25528
1.25531
1.2556
1.25616
1.25628
1.2563
1.25639
1.25658
1.25663
1.25663
1.25652
1.25625
1.25592
1.25542
1.25501
1.25486
1.25467
1.25444
1.25437
1.25444
1.25465
1.25484
1.25498
1.25515
1.25543
1.25579
1.25591
1.25579
1.25551
1.25538
1.25527
1.25509
1.25488
1.2547
1.2546
1.25465
1.25505
1.25596
1.25665
1.25677
1.25674
1.25661
1.25651
1.25652
1.25657
1.25676
1.25722
1.25734
1.25718
1.25669
1.25601
1.25549
1.25486
1.25482
1.25489
1.25525
1.2564
1.25994
1.2653
1.27464
1.28352
1.29143
1.2977
1.30071
1.30299
1.30612
1.30699
1.30684
1.30646
1.3065
1.30689
1.30719
1.30713
1.30696
1.30702
1.30737
1.30795
1.30881
1.25731
1.25721
1.25714
1.25712
1.25712
1.25714
1.25717
1.25716
1.25716
1.25718
1.25714
1.25696
1.25688
1.25687
1.25685
1.25681
1.25675
1.25673
1.25681
1.25696
1.25707
1.25715
1.25721
1.25748
1.25818
1.25844
1.25843
1.25848
1.25874
1.25908
1.25922
1.25926
1.25925
1.25916
1.25886
1.25845
1.25815
1.25781
1.25733
1.25721
1.25721
1.25719
1.25716
1.25704
1.25689
1.25669
1.25652
1.25653
1.25659
1.25649
1.25616
1.25605
1.25606
1.25599
1.25563
1.25508
1.25487
1.25488
1.25497
1.25541
1.25615
1.25646
1.2565
1.25656
1.25668
1.25681
1.25698
1.25728
1.25774
1.25844
1.2589
1.25883
1.2586
1.25811
1.25734
1.25665
1.25588
1.25585
1.25598
1.25637
1.25736
1.261
1.26693
1.27677
1.28621
1.29522
1.30231
1.30532
1.3067
1.30605
1.30623
1.30744
1.30815
1.30821
1.30797
1.30784
1.30807
1.30849
1.30877
1.30943
1.25964
1.25964
1.25964
1.25952
1.25931
1.25928
1.25931
1.25932
1.25929
1.25922
1.25913
1.25887
1.25851
1.25845
1.25849
1.25851
1.25846
1.25842
1.25838
1.25827
1.25817
1.25815
1.25823
1.2587
1.25896
1.25894
1.25897
1.25923
1.25965
1.26006
1.26043
1.26066
1.26069
1.26067
1.26056
1.26036
1.26001
1.25944
1.25924
1.25926
1.25945
1.25949
1.25941
1.25924
1.25901
1.25862
1.25806
1.25786
1.25774
1.25741
1.25709
1.2571
1.25721
1.25724
1.25698
1.25626
1.25584
1.25579
1.25582
1.25603
1.25634
1.25658
1.25678
1.25703
1.25739
1.2578
1.25805
1.2581
1.25819
1.25858
1.25903
1.25921
1.25916
1.259
1.25885
1.25865
1.25831
1.25801
1.25756
1.25742
1.25774
1.258
1.25917
1.26288
1.26956
1.2791
1.28914
1.29588
1.30133
1.30391
1.30656
1.30864
1.30879
1.30866
1.30858
1.30896
1.30939
1.3096
1.30959
1.31
1.26105
1.26103
1.26096
1.26068
1.26042
1.26039
1.26042
1.2605
1.26052
1.26043
1.2603
1.26007
1.25961
1.25943
1.25933
1.25926
1.25933
1.25941
1.25938
1.25927
1.25908
1.25894
1.25894
1.25897
1.25894
1.25893
1.25903
1.25917
1.25928
1.25947
1.2598
1.26006
1.2601
1.26005
1.25991
1.25977
1.25956
1.25923
1.25916
1.25919
1.25942
1.26001
1.2604
1.26045
1.26042
1.26021
1.25961
1.25884
1.25846
1.2584
1.25849
1.2589
1.25928
1.25928
1.25914
1.25868
1.25822
1.25808
1.25819
1.25831
1.25834
1.25819
1.25798
1.25798
1.25815
1.2585
1.25864
1.25858
1.25846
1.2585
1.25881
1.25919
1.25917
1.25908
1.2591
1.25922
1.25954
1.25984
1.25974
1.25936
1.25887
1.25856
1.25861
1.25895
1.26058
1.26493
1.27261
1.2824
1.29226
1.30134
1.30604
1.308
1.3082
1.30808
1.30922
1.31007
1.31031
1.31014
1.31016
1.31072
1.262
1.26187
1.26165
1.26147
1.26136
1.26125
1.26111
1.26107
1.26107
1.26109
1.26102
1.2606
1.26022
1.26019
1.2603
1.26038
1.26032
1.26007
1.25999
1.25995
1.25994
1.25993
1.25988
1.25967
1.25932
1.25926
1.25934
1.25935
1.25924
1.25919
1.25923
1.25922
1.25908
1.25871
1.25835
1.25822
1.25821
1.25828
1.25854
1.25888
1.25933
1.26021
1.26128
1.26168
1.2617
1.26164
1.26117
1.26019
1.25953
1.25948
1.25962
1.26018
1.26082
1.26099
1.26091
1.26056
1.26033
1.26034
1.26065
1.26074
1.26061
1.26023
1.25963
1.25937
1.25933
1.25935
1.25946
1.25943
1.25914
1.25884
1.25887
1.25901
1.25921
1.25935
1.25941
1.25951
1.25977
1.26007
1.26037
1.26047
1.26037
1.26003
1.25953
1.25952
1.25962
1.26008
1.26222
1.26733
1.276
1.2857
1.29552
1.30064
1.30437
1.30722
1.31036
1.31072
1.31056
1.31046
1.31079
1.31158
1.26111
1.2611
1.26103
1.26089
1.26066
1.26044
1.26041
1.26041
1.26044
1.26043
1.26023
1.26004
1.26005
1.26021
1.26032
1.26032
1.26025
1.25997
1.25978
1.25985
1.26032
1.2607
1.26073
1.26072
1.26065
1.26058
1.26055
1.26039
1.25994
1.25977
1.25966
1.25945
1.25893
1.25832
1.25813
1.25809
1.25806
1.2581
1.25841
1.25917
1.26031
1.26165
1.26234
1.26237
1.26234
1.26221
1.2618
1.26113
1.26097
1.26102
1.26118
1.26157
1.26193
1.26201
1.26177
1.26104
1.26047
1.26035
1.26054
1.26123
1.26149
1.26145
1.2611
1.26059
1.26037
1.26035
1.26049
1.26067
1.26063
1.26037
1.25988
1.25963
1.25963
1.25964
1.25963
1.25964
1.2597
1.25989
1.26027
1.26048
1.26051
1.26058
1.26053
1.26046
1.26029
1.26038
1.26057
1.26137
1.26413
1.27062
1.27994
1.28999
1.30021
1.30623
1.30963
1.30977
1.3096
1.31024
1.31134
1.31205
1.2587
1.25862
1.25844
1.25837
1.25836
1.25836
1.25836
1.2584
1.25841
1.25835
1.25823
1.25825
1.25863
1.25902
1.25904
1.25903
1.25914
1.2594
1.25951
1.2597
1.26015
1.26089
1.26169
1.26234
1.26294
1.26317
1.26317
1.26309
1.26271
1.26208
1.26176
1.26153
1.26116
1.2605
1.25969
1.25939
1.25938
1.25949
1.25995
1.26087
1.2624
1.26325
1.26331
1.26323
1.26279
1.2622
1.26174
1.26164
1.26162
1.26168
1.26236
1.26288
1.26299
1.26301
1.26258
1.26129
1.26016
1.25989
1.26
1.26096
1.26199
1.26226
1.26215
1.26159
1.26084
1.26069
1.26091
1.26146
1.26181
1.26172
1.26129
1.26073
1.2604
1.26019
1.26
1.25982
1.25978
1.25986
1.26007
1.26035
1.26051
1.26066
1.26076
1.26081
1.26084
1.26095
1.26108
1.26149
1.2618
1.26324
1.26678
1.27449
1.28372
1.29359
1.30099
1.30462
1.3082
1.31123
1.31191
1.31191
1.25705
1.25712
1.25713
1.25713
1.25712
1.25711
1.25705
1.25693
1.25682
1.25679
1.25677
1.25669
1.25669
1.25685
1.25713
1.25734
1.25767
1.25787
1.25785
1.25796
1.25838
1.25925
1.26065
1.26211
1.26289
1.26302
1.263
1.26288
1.26249
1.2619
1.26157
1.26154
1.26149
1.26124
1.26074
1.26027
1.2601
1.26023
1.26066
1.2614
1.26252
1.26284
1.26284
1.2625
1.26127
1.26071
1.26067
1.26087
1.26116
1.26136
1.26207
1.26325
1.26353
1.2634
1.26275
1.26143
1.25979
1.25918
1.25924
1.26021
1.26213
1.2631
1.26313
1.26268
1.26172
1.26117
1.26133
1.26193
1.26245
1.26242
1.26217
1.2618
1.26136
1.26097
1.26068
1.26034
1.26009
1.26012
1.26022
1.26042
1.26059
1.2607
1.26081
1.2609
1.26099
1.26122
1.2614
1.26157
1.26177
1.26201
1.26273
1.26487
1.26986
1.2787
1.28825
1.29931
1.30663
1.31066
1.31056
1.31063
1.25448
1.25444
1.25441
1.25437
1.25427
1.25405
1.25359
1.2534
1.25337
1.25332
1.25316
1.25246
1.25217
1.25213
1.25178
1.2515
1.25186
1.25252
1.25256
1.25241
1.25256
1.2533
1.25449
1.25521
1.25555
1.25578
1.25601
1.25622
1.25645
1.25688
1.25779
1.25909
1.2601
1.26035
1.26025
1.25979
1.25929
1.25927
1.25966
1.25999
1.2603
1.26062
1.26068
1.26028
1.2592
1.25867
1.25843
1.25816
1.25814
1.25847
1.25956
1.26139
1.26203
1.26236
1.26257
1.26251
1.26177
1.26016
1.25938
1.25974
1.2611
1.26264
1.26314
1.263
1.26264
1.26226
1.26201
1.26203
1.26208
1.26223
1.26242
1.26241
1.26217
1.26166
1.26133
1.26114
1.26081
1.26062
1.26069
1.2609
1.261
1.26101
1.26106
1.26115
1.26125
1.26137
1.26143
1.26151
1.26164
1.2617
1.26179
1.26216
1.26351
1.26678
1.27366
1.28313
1.29275
1.3013
1.30533
1.30943
1.25077
1.2508
1.25092
1.25134
1.2519
1.25201
1.25195
1.25187
1.25191
1.25243
1.25282
1.25282
1.25254
1.25118
1.25069
1.25055
1.2503
1.24999
1.24956
1.24873
1.24763
1.24665
1.24626
1.24613
1.24579
1.24514
1.24496
1.24496
1.24506
1.24581
1.24787
1.25059
1.2525
1.25328
1.25323
1.25252
1.25144
1.25109
1.25139
1.25243
1.25377
1.25506
1.25585
1.25599
1.25611
1.25595
1.25529
1.25464
1.25427
1.25424
1.25486
1.2564
1.25838
1.26049
1.26197
1.26218
1.26182
1.26099
1.26018
1.25973
1.26
1.26082
1.26199
1.26264
1.26255
1.2625
1.26239
1.26176
1.2612
1.26125
1.26175
1.26225
1.26225
1.26204
1.26165
1.26137
1.2613
1.26136
1.26165
1.2619
1.2619
1.26181
1.26166
1.26159
1.2615
1.26139
1.26132
1.26119
1.26118
1.26119
1.26123
1.26138
1.2618
1.26274
1.26488
1.26963
1.27816
1.2881
1.29919
1.30841
1.25511
1.25516
1.25518
1.25525
1.25528
1.25528
1.25523
1.25496
1.25483
1.25495
1.25498
1.25445
1.2537
1.25365
1.2538
1.25438
1.25468
1.25452
1.25394
1.2524
1.24929
1.24694
1.24638
1.24604
1.24559
1.24522
1.24513
1.24523
1.24556
1.24646
1.24856
1.24976
1.25031
1.25081
1.25069
1.24993
1.24951
1.24954
1.25019
1.25155
1.25254
1.25318
1.25424
1.2561
1.25677
1.25677
1.256
1.25331
1.25119
1.25094
1.25124
1.25193
1.25263
1.25363
1.25486
1.25658
1.25862
1.25945
1.25943
1.25879
1.25783
1.2578
1.25799
1.25863
1.2603
1.26177
1.26197
1.26152
1.26058
1.26047
1.26086
1.26174
1.26222
1.26228
1.26221
1.26194
1.26184
1.26196
1.26229
1.26255
1.26257
1.26252
1.26238
1.26216
1.26187
1.2615
1.26121
1.26101
1.26087
1.26075
1.26075
1.26085
1.26113
1.26161
1.26225
1.26363
1.26665
1.27366
1.28258
1.29653
1.26343
1.26341
1.26349
1.26383
1.26494
1.26638
1.26735
1.26782
1.26788
1.2678
1.26725
1.26628
1.2662
1.26685
1.26744
1.26716
1.26616
1.26554
1.26509
1.26424
1.26258
1.26057
1.26011
1.26013
1.26063
1.26067
1.26013
1.25997
1.25983
1.25916
1.25695
1.25405
1.252
1.25076
1.24981
1.24942
1.24943
1.24993
1.25163
1.2531
1.25348
1.25373
1.25411
1.25522
1.2563
1.25633
1.25613
1.25539
1.25415
1.25346
1.25289
1.25149
1.25007
1.24967
1.24963
1.24989
1.2512
1.25293
1.25344
1.25345
1.25343
1.25351
1.2536
1.25396
1.2552
1.25699
1.2583
1.25901
1.25939
1.25958
1.25997
1.26076
1.26187
1.26228
1.26219
1.26189
1.26177
1.26188
1.26221
1.26256
1.2626
1.26252
1.26242
1.26241
1.26232
1.26201
1.26151
1.26117
1.26098
1.26086
1.26079
1.26084
1.26099
1.26119
1.26146
1.26173
1.26243
1.26467
1.26934
1.28314
1.27402
1.27412
1.27396
1.27327
1.27305
1.27303
1.27334
1.27398
1.27378
1.27357
1.27287
1.27081
1.27047
1.27202
1.27282
1.27114
1.2686
1.26793
1.26782
1.26946
1.27139
1.27112
1.27049
1.27084
1.27291
1.27463
1.27615
1.27659
1.27648
1.27494
1.27165
1.26852
1.26605
1.26352
1.26117
1.26039
1.26019
1.26021
1.2603
1.25958
1.2561
1.25313
1.25252
1.25248
1.25315
1.25419
1.25504
1.25686
1.25954
1.26092
1.26091
1.25978
1.25623
1.25218
1.2505
1.2507
1.25164
1.25223
1.25238
1.25249
1.25279
1.25391
1.25495
1.25496
1.25418
1.25356
1.25367
1.25422
1.25529
1.25651
1.2574
1.25798
1.25863
1.25934
1.25973
1.26015
1.26048
1.2608
1.26137
1.26208
1.26231
1.26247
1.26255
1.26253
1.26247
1.26224
1.26184
1.26161
1.26155
1.26143
1.2612
1.26116
1.26121
1.26121
1.26124
1.26134
1.26147
1.26192
1.26319
1.27062
1.3343
1.32923
1.32514
1.32468
1.32489
1.32639
1.32686
1.32613
1.32562
1.32508
1.32306
1.31903
1.31833
1.31832
1.31592
1.30914
1.30478
1.30468
1.30571
1.3058
1.30339
1.29899
1.29468
1.29217
1.29209
1.29337
1.29495
1.29491
1.29173
1.28652
1.28603
1.289
1.28949
1.28906
1.29013
1.29306
1.29453
1.29498
1.29451
1.29162
1.2842
1.2776
1.27409
1.27016
1.26545
1.26234
1.26089
1.26036
1.2615
1.26616
1.26747
1.26604
1.26289
1.26237
1.26316
1.26316
1.25994
1.25439
1.25307
1.25299
1.25349
1.25553
1.25743
1.25758
1.25645
1.25453
1.25337
1.25283
1.25276
1.25307
1.25422
1.25488
1.25502
1.25539
1.2562
1.25716
1.25826
1.25918
1.25991
1.2608
1.26172
1.2625
1.2627
1.26271
1.26268
1.2625
1.26242
1.26246
1.26242
1.26226
1.26194
1.26158
1.26137
1.26129
1.26128
1.26132
1.2614
1.26155
1.26174
1.26429
1.38758
1.37879
1.37398
1.37386
1.37295
1.37111
1.37079
1.37092
1.37189
1.37472
1.37506
1.37521
1.37564
1.37419
1.36988
1.36881
1.36951
1.37241
1.37429
1.37401
1.37092
1.36524
1.36056
1.35769
1.35721
1.35778
1.35789
1.3566
1.35212
1.34576
1.34077
1.33611
1.32851
1.32214
1.32179
1.32254
1.32218
1.31797
1.31601
1.31425
1.30972
1.30815
1.31054
1.31131
1.30929
1.30505
1.30091
1.29731
1.29392
1.28837
1.27833
1.26966
1.26816
1.27064
1.27615
1.27733
1.27607
1.27335
1.26907
1.26313
1.25901
1.25846
1.25876
1.26016
1.26128
1.26074
1.25818
1.25482
1.25405
1.25426
1.25527
1.25627
1.25633
1.25617
1.25612
1.25621
1.2567
1.257
1.25685
1.25698
1.2578
1.25863
1.25935
1.26015
1.26096
1.26189
1.2627
1.26292
1.26283
1.2626
1.26224
1.26172
1.26161
1.26163
1.26159
1.26161
1.26172
1.26193
1.26206
1.26244
1.47396
1.4735
1.47145
1.46597
1.45878
1.45556
1.45409
1.45195
1.44958
1.44938
1.44973
1.44948
1.44637
1.4429
1.44267
1.44252
1.44084
1.43552
1.43347
1.43388
1.43331
1.42998
1.42476
1.42212
1.42071
1.41773
1.41632
1.41636
1.415
1.40987
1.40909
1.40936
1.40726
1.40078
1.39535
1.39428
1.39329
1.39064
1.38587
1.37911
1.37093
1.36415
1.36066
1.35698
1.34873
1.3427
1.34237
1.34617
1.34785
1.34539
1.33402
1.32137
1.31958
1.31783
1.31051
1.29877
1.29572
1.29731
1.29748
1.29411
1.29011
1.28482
1.27602
1.27166
1.27199
1.27341
1.27297
1.26865
1.26231
1.26094
1.26154
1.26177
1.2608
1.25902
1.25762
1.25709
1.25639
1.25528
1.25463
1.2546
1.25479
1.25524
1.25616
1.25733
1.2585
1.25972
1.26091
1.26154
1.26153
1.26153
1.26147
1.26141
1.26172
1.26223
1.26239
1.26236
1.26235
1.26238
1.26235
1.26213
1.55208
1.55116
1.54553
1.539
1.53811
1.53882
1.54115
1.54141
1.53925
1.53558
1.53471
1.53369
1.53102
1.52826
1.52759
1.52793
1.52781
1.52506
1.52213
1.51961
1.51368
1.50955
1.50981
1.50946
1.50682
1.50231
1.49837
1.49612
1.49383
1.48984
1.48523
1.4822
1.47836
1.47217
1.46713
1.4627
1.45663
1.45455
1.45335
1.45066
1.44317
1.43624
1.43615
1.43626
1.43217
1.4247
1.41662
1.4075
1.40095
1.3962
1.38573
1.37529
1.37482
1.37545
1.37142
1.36048
1.3548
1.34883
1.33384
1.32287
1.32309
1.32272
1.31916
1.3115
1.29785
1.29177
1.29106
1.28951
1.28378
1.27264
1.26885
1.26865
1.26696
1.26238
1.25858
1.25792
1.25729
1.25622
1.25586
1.2558
1.25616
1.25717
1.25913
1.2596
1.25943
1.25921
1.25898
1.25874
1.25885
1.25906
1.25965
1.2604
1.26136
1.26226
1.26267
1.26263
1.26266
1.26278
1.26275
1.26254
1.63919
1.63761
1.63654
1.63514
1.63096
1.62582
1.62512
1.62569
1.62556
1.6247
1.62304
1.61803
1.61587
1.61613
1.61557
1.61398
1.61008
1.60461
1.60418
1.60402
1.60237
1.5979
1.59314
1.59039
1.58702
1.58262
1.57988
1.57814
1.57344
1.57011
1.56892
1.56734
1.56428
1.55941
1.55413
1.54889
1.54347
1.53879
1.53398
1.52869
1.52234
1.51597
1.51051
1.50619
1.50178
1.49747
1.49255
1.48553
1.47822
1.47264
1.46625
1.45843
1.45169
1.4423
1.42588
1.41859
1.41909
1.41721
1.40742
1.39678
1.38669
1.37206
1.36676
1.36371
1.35707
1.34784
1.33347
1.32659
1.3243
1.32015
1.30987
1.30126
1.29674
1.2911
1.28413
1.28076
1.27757
1.27374
1.27074
1.26795
1.26503
1.26304
1.26047
1.25811
1.25719
1.2571
1.25678
1.25644
1.25631
1.2565
1.25751
1.2588
1.26027
1.26166
1.26214
1.26211
1.26219
1.26281
1.26334
1.26325
1.72962
1.72953
1.72876
1.7266
1.72537
1.72361
1.71913
1.71438
1.7136
1.71448
1.71495
1.71402
1.711
1.7048
1.70281
1.70252
1.70173
1.69889
1.69471
1.69216
1.69002
1.68574
1.68241
1.68073
1.67872
1.67499
1.67072
1.66737
1.66416
1.66025
1.65635
1.65294
1.64867
1.64257
1.6378
1.63408
1.62984
1.62469
1.61961
1.61454
1.6096
1.60359
1.59732
1.59166
1.58652
1.58095
1.5748
1.56597
1.55706
1.55042
1.54397
1.53634
1.52983
1.5228
1.51338
1.50373
1.49547
1.48703
1.47591
1.46675
1.45986
1.44977
1.44037
1.43139
1.41843
1.4074
1.39797
1.38968
1.37927
1.37005
1.36013
1.34726
1.33664
1.32849
1.31975
1.31024
1.30205
1.29425
1.28524
1.27949
1.27344
1.2675
1.26255
1.26009
1.25864
1.25816
1.25765
1.25693
1.2574
1.25934
1.26076
1.26041
1.25983
1.25961
1.25981
1.26035
1.26132
1.26256
1.2632
1.26304
1.8247
1.82414
1.82346
1.82241
1.82086
1.81959
1.81726
1.81207
1.80819
1.80819
1.80854
1.80827
1.80613
1.79898
1.7964
1.7966
1.7962
1.79339
1.78599
1.78341
1.78289
1.78146
1.7776
1.77315
1.76963
1.76626
1.76287
1.75945
1.75496
1.75023
1.74629
1.74311
1.73968
1.73515
1.72986
1.72457
1.71944
1.71451
1.70916
1.70229
1.69641
1.69139
1.68571
1.67902
1.67159
1.66404
1.65837
1.65249
1.6447
1.63621
1.62867
1.6208
1.61234
1.60376
1.59443
1.58399
1.57495
1.56718
1.55869
1.54881
1.53773
1.52519
1.51427
1.50615
1.49625
1.48381
1.46821
1.45714
1.44849
1.43619
1.42323
1.41038
1.39722
1.38538
1.37391
1.36045
1.34915
1.34037
1.32911
1.31828
1.30995
1.30166
1.29343
1.28776
1.28173
1.275
1.27147
1.26849
1.26618
1.264
1.26099
1.25881
1.25803
1.2579
1.25814
1.25895
1.26016
1.26172
1.26274
1.2625
1.92446
1.92468
1.92512
1.92452
1.9212
1.91998
1.91894
1.91506
1.90908
1.90738
1.90792
1.90807
1.90698
1.90061
1.8952
1.89497
1.8946
1.89251
1.88558
1.8814
1.8805
1.87927
1.87521
1.86989
1.86656
1.86379
1.85938
1.85518
1.85175
1.84778
1.84291
1.83823
1.83381
1.82825
1.82265
1.81788
1.81236
1.80672
1.80175
1.79587
1.78923
1.78291
1.7768
1.77045
1.76292
1.75462
1.74744
1.74074
1.73275
1.72459
1.71718
1.70809
1.6979
1.68969
1.6819
1.67137
1.659
1.64941
1.64033
1.63036
1.62047
1.60999
1.59826
1.58636
1.573
1.56151
1.54959
1.53588
1.52244
1.50979
1.49658
1.48226
1.46823
1.45455
1.4392
1.42517
1.41078
1.39604
1.38387
1.36962
1.3559
1.34246
1.33056
1.31769
1.30643
1.29444
1.28696
1.28063
1.27285
1.26678
1.26332
1.26104
1.25958
1.26028
1.26195
1.26139
1.26099
1.2606
1.26045
1.26031
2.03144
2.02851
2.02863
2.02955
2.02919
2.02635
2.02467
2.02235
2.01689
2.0119
2.01142
2.012
2.01179
2.00966
2.00134