/*--------------------------------*- C++ -*----------------------------------*\
  =========                 |
  \\      /  F ield         | OpenFOAM: The Open Source CFD Toolbox
   \\    /   O peration     | Website:  https://openfoam.org
    \\  /    A nd           | Version:  7
     \\/     M anipulation  |
\*---------------------------------------------------------------------------*/
FoamFile
{
    version     2.0;
    format      ascii;
    class       volScalarField;
    location    "5.7";
    object      T;
}
// * * * * * * * * * * * * * * * * * * * * * * * * * * * * * * * * * * * * * //

dimensions      [0 0 0 1 0 0 0];

internalField   nonuniform List<scalar> 
8400
(
0.973843
1.1574
1.24725
1.2864
1.3241
1.3391
1.35953
1.36466
1.36018
1.35322
1.34741
1.33298
1.33393
1.34012
1.34282
1.34912
1.34846
1.34179
1.32881
1.31058
1.29551
1.28701
1.28365
1.28516
1.28423
1.27971
1.2784
1.28018
1.28269
1.27999
0.499267
0.495689
0.539376
0.648086
0.792041
0.975335
1.11231
1.22878
1.32398
1.39139
1.46022
1.50188
1.53818
1.54545
1.54026
1.52653
1.50568
1.47421
1.44666
1.42571
1.40976
1.41398
1.42339
1.43371
1.43169
1.42148
1.40885
1.3996
1.39737
1.39402
0.473322
0.466024
0.458699
0.453227
0.448442
0.44569
0.442244
0.467567
0.577108
0.756299
0.940478
1.14794
1.29591
1.39333
1.46402
1.51368
1.53937
1.53475
1.52823
1.51951
1.52384
1.52219
1.51708
1.51193
1.51315
1.51502
1.51132
1.50193
1.49083
1.47616
0.438815
0.436455
0.434484
0.432549
0.431722
0.431942
0.432953
0.433085
0.431908
0.430766
0.431057
0.432519
0.461929
0.597874
0.803406
1.04741
1.21814
1.36593
1.48076
1.54257
1.57116
1.56506
1.55665
1.54284
1.53103
1.53283
1.53017
1.52073
1.51184
1.50029
0.428529
0.428482
0.428351
0.427889
0.427982
0.428777
0.4306
0.431425
0.430644
0.430522
0.431684
0.438044
0.44843
0.452301
0.452326
0.45326
0.455803
0.581671
0.818005
1.07337
1.25289
1.36497
1.42963
1.44996
1.47043
1.48933
1.48865
1.4758
1.47911
1.47244
0.431872
0.430839
0.42967
0.430224
0.431755
0.434001
0.436982
0.441635
0.445183
0.446078
0.449507
0.457901
0.470717
0.480481
0.481897
0.482094
0.4843
0.491271
0.492243
0.492957
0.546986
0.731417
0.92529
1.08989
1.19801
1.25311
1.29066
1.32625
1.36206
1.38071
0.447043
0.449816
0.453529
0.457421
0.461088
0.46482
0.469291
0.474963
0.479794
0.483689
0.487799
0.490012
0.492444
0.497113
0.498632
0.498886
0.500719
0.507157
0.515679
0.52408
0.528026
0.535789
0.540326
0.572886
0.67409
0.820197
0.943328
1.06769
1.11652
1.18877
0.487233
0.491067
0.494918
0.496923
0.496583
0.495985
0.496679
0.499319
0.50378
0.509251
0.509432
0.507868
0.508699
0.51394
0.519508
0.524738
0.531707
0.542879
0.55435
0.560727
0.56409
0.567775
0.568536
0.565272
0.565825
0.568829
0.580411
0.659343
0.74851
0.952766
0.519903
0.523162
0.52575
0.525711
0.523702
0.521578
0.521803
0.524352
0.531779
0.540536
0.546534
0.551798
0.557288
0.56319
0.569137
0.573562
0.577299
0.582128
0.583634
0.582192
0.580216
0.580537
0.581579
0.583368
0.589264
0.597381
0.603526
0.609574
0.609171
0.643163
0.56475
0.569966
0.573976
0.575603
0.575075
0.573606
0.573752
0.576082
0.581894
0.589397
0.59512
0.596692
0.596184
0.596296
0.598167
0.598521
0.598249
0.598829
0.599483
0.599079
0.60038
0.604337
0.61237
0.621825
0.6282
0.629428
0.6316
0.630863
0.630176
0.6304
0.611218
0.617031
0.621434
0.622495
0.621566
0.617727
0.614692
0.614701
0.617101
0.622552
0.625504
0.625154
0.623543
0.622848
0.623765
0.625326
0.627306
0.630924
0.636403
0.642254
0.646726
0.649624
0.651413
0.653195
0.652357
0.650135
0.649242
0.649902
0.65266
0.658013
0.65754
0.66187
0.667804
0.670501
0.67078
0.668782
0.663392
0.660707
0.661541
0.665283
0.668968
0.670587
0.671325
0.672082
0.67383
0.674769
0.674796
0.675237
0.676943
0.677553
0.677129
0.675738
0.673015
0.671069
0.668851
0.66957
0.671245
0.674288
0.677769
0.681797
0.709093
0.710696
0.714568
0.718993
0.720646
0.720317
0.716431
0.710341
0.708496
0.709566
0.711916
0.712151
0.710757
0.710016
0.710147
0.709843
0.707867
0.705795
0.705358
0.705084
0.704108
0.703105
0.703647
0.70502
0.707444
0.709635
0.710583
0.71149
0.710659
0.707587
0.764104
0.764265
0.765665
0.769076
0.771675
0.771938
0.77021
0.763947
0.758455
0.757519
0.758875
0.759017
0.756866
0.754437
0.754608
0.754459
0.752156
0.748965
0.748557
0.748303
0.74758
0.746355
0.745173
0.74368
0.74216
0.739775
0.736575
0.732898
0.729674
0.726754
0.824899
0.821375
0.820754
0.82285
0.825706
0.825705
0.824386
0.819513
0.812457
0.809217
0.809703
0.809358
0.805404
0.799843
0.799327
0.798957
0.796559
0.79201
0.788587
0.78663
0.784239
0.781353
0.777696
0.774129
0.77116
0.768321
0.766176
0.763515
0.763231
0.762823
0.89437
0.883339
0.878576
0.879585
0.882926
0.883089
0.879635
0.873588
0.867412
0.862588
0.861966
0.861584
0.857791
0.849304
0.846125
0.844968
0.842478
0.837708
0.833122
0.829368
0.825899
0.822523
0.818829
0.815127
0.811695
0.808489
0.80539
0.801838
0.797933
0.790896
0.961312
0.955494
0.942724
0.935258
0.935936
0.938047
0.937226
0.932662
0.925884
0.917215
0.914161
0.913738
0.910929
0.902242
0.896023
0.893637
0.890611
0.885286
0.879511
0.874205
0.869506
0.864792
0.859937
0.854403
0.848932
0.844153
0.83899
0.833071
0.828251
0.820751
1.02298
1.01884
1.01176
1.00288
0.995391
0.990522
0.990635
0.990786
0.98634
0.976028
0.967935
0.967332
0.96557
0.95697
0.947415
0.943528
0.939964
0.934543
0.927767
0.92105
0.914663
0.9086
0.902736
0.89624
0.889812
0.883521
0.877368
0.870828
0.86528
0.856438
1.08662
1.08278
1.07814
1.07093
1.05939
1.05082
1.05096
1.05072
1.04627
1.03411
1.02479
1.02375
1.02117
1.01257
1.00168
0.995205
0.990091
0.984029
0.976863
0.968884
0.961201
0.953758
0.946501
0.939288
0.931597
0.923824
0.916297
0.908735
0.901788
0.890282
1.14932
1.14629
1.14072
1.13435
1.12865
1.12185
1.11667
1.11279
1.10758
1.09781
1.08783
1.0828
1.07726
1.06793
1.0584
1.05017
1.04231
1.0345
1.02679
1.01776
1.00843
1.00017
0.99177
0.983168
0.974417
0.965548
0.956981
0.948004
0.940062
0.927276
1.18325
1.18249
1.18109
1.17925
1.17737
1.17428
1.17044
1.16661
1.16215
1.15681
1.1498
1.14284
1.13688
1.1291
1.11929
1.10961
1.10002
1.09009
1.08026
1.07024
1.05922
1.04872
1.03895
1.02859
1.01848
1.00843
0.998509
0.988556
0.97956
0.964811
1.18206
1.18289
1.18303
1.18312
1.18306
1.18254
1.18232
1.18224
1.1817
1.18055
1.17923
1.17758
1.17538
1.1719
1.16711
1.16192
1.15549
1.14728
1.13765
1.12726
1.11594
1.10376
1.09151
1.07906
1.06656
1.05442
1.04262
1.03071
1.02031
1.0036
1.15558
1.15752
1.16053
1.16395
1.16818
1.1724
1.17457
1.17377
1.17375
1.17585
1.17698
1.17676
1.17631
1.17632
1.17669
1.17647
1.17548
1.17349
1.17112
1.16778
1.16276
1.15549
1.14592
1.13451
1.12165
1.10789
1.09358
1.07874
1.06567
1.04536
1.07834
1.08351
1.08789
1.09223
1.10011
1.1109
1.11661
1.12172
1.12797
1.13452
1.14388
1.15015
1.15238
1.15595
1.16298
1.16725
1.16792
1.169
1.16974
1.17019
1.17012
1.16952
1.16797
1.16533
1.16099
1.15413
1.14431
1.13149
1.11801
1.09426
1.01077
1.0126
1.01479
1.01703
1.01997
1.0244
1.02958
1.03516
1.04158
1.04832
1.05653
1.06688
1.07672
1.08652
1.09741
1.1101
1.1207
1.13025
1.13948
1.14709
1.15402
1.15849
1.16169
1.16316
1.16303
1.16268
1.16154
1.15892
1.15469
1.14038
1.00029
1.00036
1.00046
1.0006
1.00078
1.00106
1.00148
1.00207
1.00283
1.0039
1.00529
1.00752
1.01054
1.0145
1.01964
1.0266
1.03587
1.04622
1.0591
1.07279
1.08822
1.10281
1.11695
1.13008
1.13945
1.14802
1.15295
1.15535
1.15528
1.154
1
1
1
1.00001
1.00001
1.00001
1.00002
1.00003
1.00004
1.00006
1.00009
1.00016
1.00026
1.00044
1.00074
1.00125
1.00218
1.00363
1.0061
1.00992
1.01573
1.02449
1.03565
1.0506
1.06777
1.08554
1.10347
1.11993
1.13179
1.14312
1
1
1
1
1
1
1
1
1
1
1
1
1
1
1.00001
1.00001
1.00003
1.00005
1.00012
1.00025
1.00053
1.00112
1.00232
1.00466
1.00891
1.01617
1.02718
1.04307
1.06055
1.0922
1
1
1
1
1
1
1
1
1
1
1
1
1
1
1
1
1
1
1
1
1
1.00001
1.00003
1.00008
1.00022
1.00059
1.00149
1.00366
1.00746
1.02337
1
1
1
1
1
1
1
1
1
1
1
1
1
1
1
1
1
1
1
1
1
1
1
1
1
1.00001
1.00002
1.00007
1.00019
1.00158
0.521611
0.51107
0.482265
0.442711
0.4281
0.431797
0.444125
0.481725
0.515133
0.558524
0.605805
0.655131
0.709042
0.770521
0.837358
0.90314
0.965118
1.02652
1.0915
1.15473
1.18444
1.18184
1.15329
1.06937
1.00844
1.00023
1
1
1
1
0.52484
0.510846
0.480265
0.440067
0.42629
0.432473
0.446945
0.483861
0.51809
0.561893
0.611417
0.667926
0.732002
0.796232
0.857162
0.916355
0.975739
1.03715
1.10473
1.16678
1.18679
1.18264
1.14415
1.05235
1.00454
1.00008
1
1
1
1
0.525971
0.51216
0.481488
0.440453
0.425192
0.431927
0.447205
0.483988
0.520779
0.569237
0.62757
0.691083
0.749833
0.806798
0.864447
0.923414
0.984589
1.05066
1.12079
1.17646
1.18803
1.18237
1.12781
1.03795
1.00253
1.00004
1
1
1
1
0.525703
0.511688
0.48188
0.439697
0.423126
0.431416
0.449337
0.495603
0.539755
0.592581
0.64732
0.702061
0.755484
0.811185
0.870826
0.935832
1.00622
1.07506
1.13964
1.18296
1.18835
1.17485
1.11082
1.02716
1.0014
1.00002
1
1
1
1
0.527499
0.512119
0.481873
0.436268
0.421152
0.433172
0.460922
0.510924
0.553574
0.601455
0.652226
0.704813
0.75831
0.815658
0.886419
0.961154
1.02721
1.09099
1.15121
1.18632
1.18784
1.16636
1.09695
1.01892
1.00074
1.00001
1
1
1
1
0.533104
0.515202
0.480148
0.432627
0.420509
0.439438
0.469972
0.517214
0.556987
0.603098
0.653874
0.705468
0.764776
0.8403
0.914367
0.978318
1.03876
1.10263
1.16163
1.18904
1.18664
1.16035
1.08181
1.01183
1.00035
1
1
1
1
1
0.539377
0.5173
0.475737
0.430057
0.421004
0.443791
0.472098
0.517725
0.55733
0.602617
0.655946
0.721185
0.797386
0.866839
0.92824
0.987753
1.0493
1.11758
1.17444
1.19113
1.18713
1.15351
1.06272
1.00679
1.00016
1
1
1
1
1
0.54356
0.518981
0.472512
0.428364
0.421368
0.444439
0.471412
0.51526
0.556495
0.611217
0.68207
0.753575
0.817802
0.877528
0.937016
1.00105
1.07229
1.13898
1.18463
1.19239
1.18738
1.137
1.04526
1.00366
1.00007
1
1
1
1
1
0.546349
0.520556
0.470566
0.427064
0.420156
0.443549
0.470493
0.517541
0.576799
0.642621
0.704719
0.765605
0.824484
0.884375
0.951549
1.0272
1.09411
1.15338
1.18931
1.19289
1.18051
1.11731
1.03167
1.00189
1.00003
1
1
1
1
1
0.547698
0.520562
0.467529
0.424551
0.417745
0.44383
0.480733
0.540557
0.597216
0.65495
0.711065
0.76922
0.829395
0.899359
0.979374
1.0466
1.10828
1.16379
1.19185
1.19259
1.17075
1.10188
1.0216
1.00096
1.00001
1
1
1
1
1
0.547825
0.517324
0.462591
0.421518
0.416621
0.448885
0.495223
0.553289
0.602938
0.657077
0.71339
0.771463
0.84751
0.931845
0.998895
1.06025
1.12294
1.17537
1.19393
1.19066
1.16363
1.08543
1.01325
1.00044
1
1
1
1
1
1
0.545139
0.513573
0.460015
0.418979
0.418888
0.454803
0.500628
0.557426
0.606771
0.656198
0.718862
0.801388
0.884124
0.951792
1.01313
1.07796
1.14336
1.18575
1.19515
1.18933
1.1547
1.06389
1.00725
1.00018
1
1
1
1
1
1
0.543316
0.513366
0.459448
0.417132
0.422953
0.458071
0.503394
0.559368
0.612705
0.675658
0.757098
0.835439
0.902281
0.965525
1.0331
1.10336
1.16075
1.19197
1.1957
1.18927
1.13589
1.04434
1.00369
1.00007
1
1
1
1
1
1
0.543718
0.516191
0.459049
0.415343
0.423635
0.462827
0.509058
0.570757
0.639576
0.711891
0.781467
0.848632
0.913616
0.984283
1.06026
1.12217
1.17276
1.19526
1.19608
1.18084
1.11357
1.02954
1.00176
1.00003
1
1
1
1
1
1
0.547127
0.518945
0.456381
0.412341
0.422278
0.471786
0.531766
0.599484
0.664357
0.727911
0.790734
0.856829
0.930594
1.01347
1.08028
1.13809
1.18303
1.19676
1.19523
1.16825
1.09539
1.01881
1.00081
1.00001
1
1
1
1
1
1
0.5529
0.519664
0.449348
0.409175
0.422916
0.481843
0.548603
0.614162
0.673211
0.734556
0.799593
0.875677
0.965388
1.0363
1.09876
1.15594
1.19076
1.19735
1.19181
1.15898
1.07656
1.01069
1.00034
1
1
1
1
1
1
1
0.556696
0.515366
0.444272
0.40747
0.434241
0.491951
0.553498
0.618837
0.678311
0.740914
0.824432
0.917595
0.991431
1.05581
1.12159
1.1718
1.19536
1.19774
1.18854
1.14682
1.05428
1.00546
1.00013
1
1
1
1
1
1
1
0.557702
0.507074
0.443152
0.409181
0.443111
0.492432
0.552414
0.621233
0.691404
0.778524
0.86788
0.942889
1.01037
1.0801
1.14286
1.18376
1.19803
1.19821
1.18677
1.12393
1.03518
1.00252
1.00005
1
1
1
1
1
1
1
0.556405
0.502513
0.447049
0.417947
0.445648
0.493706
0.559592
0.649017
0.735897
0.814715
0.888989
0.95967
1.03461
1.10679
1.15978
1.19266
1.19934
1.19866
1.17739
1.09903
1.02087
1.00102
1.00001
1
1
1
1
1
1
1
0.555701
0.500462
0.449099
0.422031
0.446247
0.508273
0.597741
0.688756
0.762712
0.831855
0.903821
0.983039
1.06769
1.12882
1.17447
1.19732
1.19971
1.19531
1.15695
1.07534
1.01129
1.0004
1
1
1
1
1
1
1
1
0.562923
0.500159
0.44875
0.423289
0.453956
0.538009
0.630221
0.706097
0.776079
0.847857
0.930421
1.02399
1.09502
1.14904
1.18561
1.19887
1.19897
1.18757
1.14104
1.05447
1.00573
1.00015
1
1
1
1
1
1
1
1
0.577977
0.50022
0.443594
0.424853
0.482624
0.572361
0.644287
0.715519
0.790106
0.880722
0.9779
1.05541
1.11825
1.16768
1.19276
1.19941
1.19661
1.18058
1.12404
1.03564
1.00265
1.00005
1
1
1
1
1
1
1
1
0.584902
0.497706
0.433503
0.435126
0.509722
0.581985
0.649839
0.731366
0.835198
0.930723
1.01007
1.07952
1.14204
1.18215
1.19764
1.19999
1.19622
1.17419
1.09772
1.01982
1.00098
1.00001
1
1
1
1
1
1
1
1
0.589084
0.489038
0.42139
0.4544
0.518556
0.584235
0.661907
0.785549
0.882468
0.961295
1.03474
1.10755
1.16371
1.19274
1.20045
1.20119
1.1977
1.15946
1.06804
1.00928
1.00032
1
1
1
1
1
1
1
1
1
0.590273
0.476498
0.412202
0.464255
0.516337
0.596
0.720329
0.831387
0.910936
0.986952
1.06764
1.13838
1.18007
1.19859
1.20147
1.20147
1.19056
1.13
1.04291
1.00394
1.0001
1
1
1
1
1
1
1
1
1
0.582155
0.459061
0.404302
0.465636
0.527439
0.643491
0.768881
0.859134
0.93789
1.02614
1.10811
1.16157
1.19084
1.20071
1.20144
1.1989
1.17282
1.10468
1.02606
1.00162
1.00003
1
1
1
1
1
1
1
1
1
0.569107
0.439135
0.401804
0.462007
0.575134
0.706027
0.797294
0.886817
0.984611
1.07271
1.13778
1.17831
1.19721
1.20138
1.20022
1.19282
1.15992
1.0825
1.0139
1.00059
1.00001
1
1
1
1
1
1
1
1
1
0.564748
0.428979
0.414449
0.483361
0.628434
0.731839
0.825468
0.938488
1.03555
1.10748
1.16091
1.19098
1.20065
1.20161
1.19898
1.18733
1.14438
1.05432
1.00589
1.00017
1
1
1
1
1
1
1
1
1
1
0.563991
0.425252
0.431751
0.548481
0.666919
0.763219
0.879062
0.995331
1.07588
1.13776
1.18034
1.19871
1.20203
1.20183
1.20026
1.18386
1.11318
1.02803
1.00195
1.00004
1
1
1
1
1
1
1
1
1
1
0.562328
0.433299
0.454921
0.596238
0.694003
0.812244
0.948297
1.04184
1.11341
1.16551
1.19229
1.20181
1.20231
1.20188
1.19896
1.1635
1.07555
1.01242
1.00055
1.00001
1
1
1
1
1
1
1
1
1
1
0.562949
0.447092
0.503998
0.624714
0.751368
0.895655
1.0025
1.08478
1.14979
1.18403
1.19809
1.20242
1.20228
1.20038
1.18523
1.13034
1.04776
1.00524
1.00015
1
1
1
1
1
1
1
1
1
1
1
0.535563
0.461501
0.547477
0.670424
0.827217
0.956898
1.05297
1.12882
1.17649
1.194
1.20076
1.20265
1.20173
1.19659
1.17156
1.10666
1.028
1.00188
1.00004
1
1
1
1
1
1
1
1
1
1
1
0.46673
0.47164
0.579369
0.753916
0.907353
1.01634
1.10586
1.16269
1.19304
1.19827
1.20217
1.20284
1.20021
1.1919
1.1594
1.07849
1.0122
1.00051
1.00001
1
1
1
1
1
1
1
1
1
1
1
0.385712
0.469292
0.649569
0.841512
0.976995
1.07835
1.14872
1.18527
1.20112
1.19953
1.20301
1.20298
1.2
1.18797
1.13403
1.04117
1.00375
1.00011
1
1
1
1
1
1
1
1
1
1
1
1
0.438576
0.539442
0.752885
0.925337
1.04796
1.13335
1.17796
1.19778
1.20344
1.20003
1.2034
1.20316
1.20142
1.17453
1.08703
1.01634
1.00092
1.00002
1
1
1
1
1
1
1
1
1
1
1
1
0.283522
0.612898
0.854114
1.01568
1.11734
1.17067
1.19444
1.203
1.20424
1.19964
1.20301
1.20167
1.19218
1.13553
1.04888
1.00571
1.00019
1
1
1
1
1
1
1
1
1
1
1
1
1
0.161292
0.661673
0.955761
1.09857
1.16468
1.19211
1.20149
1.2047
1.20444
1.1986
1.20161
1.19686
1.16981
1.09999
1.02465
1.00158
1.00003
1
1
1
1
1
1
1
1
1
1
1
1
1
0.393083
0.841705
1.07026
1.15962
1.19019
1.20084
1.2039
1.2051
1.20434
1.19776
1.19971
1.19052
1.14884
1.06564
1.00851
1.0003
1
1
1
1
1
1
1
1
1
1
1
1
1
1
0.678007
1.00459
1.15293
1.1909
1.20037
1.20331
1.20458
1.20518
1.2032
1.19719
1.19862
1.18281
1.11409
1.0265
1.00164
1.00003
1
1
1
1
1
1
1
1
1
1
1
1
1
1
0.995082
1.14687
1.19324
1.20156
1.20304
1.20386
1.20463
1.20488
1.20191
1.19664
1.19875
1.15665
1.05922
1.00594
1.00016
1
1
1
1
1
1
1
1
1
1
1
1
1
1
1
1.20245
1.20258
1.20312
1.20357
1.20356
1.20389
1.20381
1.20443
1.20119
1.19565
1.18699
1.10886
1.01979
0.999899
0.99999
1
1
1
1
1
1
1
1
1
1
1
1
1
1
1
1.20185
1.20236
1.20333
1.20394
1.20347
1.20279
1.20279
1.20477
1.20348
1.19438
1.1777
1.10216
1.0203
1.00079
1.00001
1
1
1
1
1
1
1
1
1
1
1
1
1
1
1
1.20156
1.20218
1.20368
1.20444
1.20383
1.20223
1.2021
1.20481
1.20437
1.19563
1.16544
1.06965
1.00619
1.0001
1
1
1
1
1
1
1
1
1
1
1
1
1
1
1
1
1.20147
1.20208
1.20376
1.20462
1.20403
1.2017
1.20134
1.20438
1.20464
1.19502
1.14485
1.04636
1.00287
1.00003
1
1
1
1
1
1
1
1
1
1
1
1
1
1
1
1
1.20145
1.20201
1.20371
1.20463
1.20417
1.20155
1.20073
1.20358
1.20389
1.18578
1.12346
1.02925
1.00113
1.00001
1
1
1
1
1
1
1
1
1
1
1
1
1
1
1
1
1.20162
1.20206
1.20353
1.20452
1.20423
1.20196
1.20083
1.20334
1.20246
1.17581
1.10144
1.01541
1.00038
1
1
1
1
1
1
1
1
1
1
1
1
1
1
1
1
1
1.20226
1.20235
1.20306
1.20376
1.20403
1.20297
1.20182
1.20365
1.20253
1.16544
1.07309
1.00689
1.00011
1
1
1
1
1
1
1
1
1
1
1
1
1
1
1
1
1
1.20273
1.20244
1.20247
1.20282
1.20362
1.20463
1.20311
1.20288
1.19998
1.14605
1.04657
1.00288
1.00003
1
1
1
1
1
1
1
1
1
1
1
1
1
1
1
1
1
1.20302
1.20242
1.20193
1.20176
1.20343
1.20591
1.2049
1.19943
1.1891
1.12246
1.02733
1.001
1.00001
1
1
1
1
1
1
1
1
1
1
1
1
1
1
1
1
1
1.20312
1.20242
1.20168
1.20116
1.20276
1.20654
1.20685
1.19755
1.17822
1.09978
1.01442
1.00033
1
1
1
1
1
1
1
1
1
1
1
1
1
1
1
1
1
1
1.20309
1.20238
1.20154
1.2009
1.20221
1.20694
1.20749
1.19709
1.16687
1.07065
1.00621
1.00009
1
1
1
1
1
1
1
1
1
1
1
1
1
1
1
1
1
1
1.2029
1.2021
1.20154
1.20098
1.20204
1.20712
1.20755
1.193
1.14664
1.04308
1.00237
1.00002
1
1
1
1
1
1
1
1
1
1
1
1
1
1
1
1
1
1
1.20249
1.20186
1.20182
1.20172
1.20207
1.20737
1.20746
1.18427
1.11995
1.02442
1.00081
1.00001
1
1
1
1
1
1
1
1
1
1
1
1
1
1
1
1
1
1
1.20192
1.20153
1.20244
1.20241
1.20232
1.20736
1.20778
1.17746
1.09207
1.01159
1.00023
1
1
1
1
1
1
1
1
1
1
1
1
1
1
1
1
1
1
1
1.20153
1.201
1.20268
1.20359
1.20243
1.20523
1.20631
1.1648
1.05978
1.00436
1.00006
1
1
1
1
1
1
1
1
1
1
1
1
1
1
1
1
1
1
1
1.20127
1.20039
1.20191
1.20479
1.20458
1.20221
1.19805
1.13764
1.03574
1.00158
1.00001
1
1
1
1
1
1
1
1
1
1
1
1
1
1
1
1
1
1
1
1.20108
1.2001
1.20059
1.20586
1.2097
1.20131
1.18919
1.11246
1.01883
1.00049
1
1
1
1
1
1
1
1
1
1
1
1
1
1
1
1
1
1
1
1
1.20084
1.19999
1.19973
1.20847
1.21222
1.20161
1.17875
1.07745
1.0073
1.00012
1
1
1
1
1
1
1
1
1
1
1
1
1
1
1
1
1
1
1
1
1.20036
1.19966
1.19927
1.2104
1.21349
1.19814
1.1533
1.04669
1.00265
1.00003
1
1
1
1
1
1
1
1
1
1
1
1
1
1
1
1
1
1
1
1
1.1998
1.19964
1.1994
1.21109
1.21393
1.19195
1.12524
1.0256
1.00082
1.00001
1
1
1
1
1
1
1
1
1
1
1
1
1
1
1
1
1
1
1
1
1.19861
1.20018
1.20004
1.21063
1.21456
1.18689
1.0909
1.01027
1.00019
1
1
1
1
1
1
1
1
1
1
1
1
1
1
1
1
1
1
1
1
1
1.19692
1.20051
1.20156
1.20858
1.21194
1.16475
1.05653
1.00368
1.00004
1
1
1
1
1
1
1
1
1
1
1
1
1
1
1
1
1
1
1
1
1
1.19589
1.20242
1.20865
1.20587
1.20376
1.13704
1.03209
1.00118
1.00001
1
1
1
1
1
1
1
1
1
1
1
1
1
1
1
1
1
1
1
1
1
1.19573
1.20662
1.21438
1.20606
1.19455
1.10266
1.0131
1.00027
1
1
1
1
1
1
1
1
1
1
1
1
1
1
1
1
1
1
1
1
1
1
1.19601
1.20996
1.21771
1.20657
1.17378
1.06184
1.00439
1.00006
1
1
1
1
1
1
1
1
1
1
1
1
1
1
1
1
1
1
1
1
1
1
1.19854
1.21141
1.21896
1.20008
1.14147
1.03458
1.00138
1.00001
1
1
1
1
1
1
1
1
1
1
1
1
1
1
1
1
1
1
1
1
1
1
1.19986
1.2113
1.2198
1.1939
1.10602
1.01429
1.0003
1
1
1
1
1
1
1
1
1
1
1
1
1
1
1
1
1
1
1
1
1
1
1
1.20191
1.21167
1.21994
1.17637
1.06373
1.00447
1.00006
1
1
1
1
1
1
1
1
1
1
1
1
1
1
1
1
1
1
1
1
1
1
1
1.21092
1.21272
1.21116
1.13966
1.03386
1.00134
1.00001
1
1
1
1
1
1
1
1
1
1
1
1
1
1
1
1
1
1
1
1
1
1
1
1.22739
1.2056
1.19702
1.1027
1.01382
1.00031
1
1
1
1
1
1
1
1
1
1
1
1
1
1
1
1
1
1
1
1
1
1
1
1
1.24444
1.1954
1.17092
1.05888
1.00413
1.00006
1
1
1
1
1
1
1
1
1
1
1
1
1
1
1
1
1
1
1
1
1
1
1
1
1.25635
1.18244
1.13055
1.02988
1.00125
1.00001
1
1
1
1
1
1
1
1
1
1
1
1
1
1
1
1
1
1
1
1
1
1
1
1
1.26237
1.16732
1.08871
1.01188
1.00031
1
1
1
1
1
1
1
1
1
1
1
1
1
1
1
1
1
1
1
1
1
1
1
1
1
1.25979
1.14413
1.05397
1.00426
1.00007
1
1
1
1
1
1
1
1
1
1
1
1
1
1
1
1
1
1
1
1
1
1
1
1
1
1.23771
1.11673
1.02959
1.00142
1.00002
1
1
1
1
1
1
1
1
1
1
1
1
1
1
1
1
1
1
1
1
1
1
1
1
1
1.21888
1.09011
1.01361
1.00037
1
1
1
1
1
1
1
1
1
1
1
1
1
1
1
1
1
1
1
1
1
1
1
1
1
1
1.19169
1.05591
1.00464
1.00007
1
1
1
1
1
1
1
1
1
1
1
1
1
1
1
1
1
1
1
1
1
1
1
1
1
1
1.14387
1.03146
1.00144
1.00001
1
1
1
1
1
1
1
1
1
1
1
1
1
1
1
1
1
1
1
1
1
1
1
1
1
1
1.09373
1.01323
1.00029
1
1
1
1
1
1
1
1
1
1
1
1
1
1
1
1
1
1
1
1
1
1
1
1
1
1
1
1.03759
1.00236
1.00002
1
1
1
1
1
1
1
1
1
1
1
1
1
1
1
1
1
1
1
1
1
1
1
1
1
1
1
1
1
1
1
1
1
1
1
1
1
1
1
1
1
1
1
1
1
1
1
1
1
1
1
1
1
1
1
1
1
1
1
1
1
1
1
1
1
1
1
1
1
1
1
1
1
1
1
1
1
1
1
1
1
1
1
1
1
1
1
1
1
1
1
1
1
1
1
1
1
1
1
1
1
1
1
1
1
1
1
1
1
1
1
1
1
1
1
1
1
1
1
1
1
1
1
1
1
1
1
1
1
1
1
1
1
1
1
1
1
1
1
1
1
1
1
1
1
1
1
1
1
1
1
1
1
1
1
1
1
1
1
1
1
1
1
1
1
1
1
1
1
1
1
1
1
1
1
1
1
1
1
1
1
1
1
1
1
1
1
1
1
1
1
1
1
1
1
1
1
1
1
1
1
1
1
1
1
1
1
1
1
1
1
1
1
1
1
1
1
1
1
1
1
1
1
1
1
1
1
1
1
1
1
1
1
1
1
1
1
1
1
1
1
1
1
1
1
1
1
1
1
1
1
1
1
1
1
1
1
1
1
1
1
1
1
1
1
1
1
1
1
1
1
1
1
1
1
1
1
1
1
1
1
1
1
1
1
1
1
1
1
1
1
1
1
1
1
1
1
1
1
1
1
1
1
1
1
1
1
1
1
1
1
1
1
1
1
1
1
1
1
1
1
1
1
1
1
1
1
1
1
1
1
1
1
1
1
1
1
1
1
1
1
1
1
1
1
1
1
1
1
1
1
1
1
1
1
1
1
1
1
1
1
1
1
1
1
1
1
1
1
1
1
1
1
1
1
1
1
1
1
1
1
1
1
1
1
1
1
1
1
1
1
1
1
1
1
1
1
1
1
1
1
1
1
1
1
1
1
1
1
1
1
1
1
1
1
1
1
1
1
1
1
1
1
1
1
1
1
1
1
1
1
1
1
1
1
1
1
1
1
1
1
1
1
1
1
1
1
1
1
1
1
1
1
1
1
1
1
1
1
1
1
1
1
1
1
1
1
1
1
1
1
1
1
1
1
1
1
1
1
1
1
1
1
1
1
1
1
1
1
1
1
1
1
1
1
1
1
1
1
1
1
1
1
1
1
1
1
1
1
1
1
1
1
1
1
1
1
1
1
1
1
1
1
1
1
1
1
1
1
1
1
1
1
1
1
1
1
1
1
1
1
1
1
1
1
1
1
1
1
1
1
1
1
1
1
1
1
1
1
1
1
1
1
1
1
1
1
1
1
1
1
1
1
1
1
1
1
1
1
1
1
1
1
1
1
1
1
1
1
1
1
1
1
1
1
1
1
1
1
1
1
1
1
1
1
1
1
1
1
1
1
1
1
1
1
1
1
1
1
1
1
1
1
1
1
1
1
1
1
1
1
1
1
1
1
1
1
1
1
1
1
1
1
1
1
1
1
1
1
1
1
1
1
1
1
1
1
1
1
1
1
1
1
1
1
1
1
1
1
1
1
1
1
1
1
1
1
1
1
1
1
1
1
1
1
1
1
1
1
1
1
1
1
1
1
1
1
1
1
1
1
1
1
1
1
1
1
1
1
1
1
1
1
1
1
1
1
1
1
1
1
1
1
1
1
1
1
1
1
1
1
1
1
1
1
1
1
1
1
1
1
1
1
1
1
1
1
1
1
1
1
1
1
1
1
1
1
1
1
1
1
1
1
1
1
1
1
1
1
1
1
1
1
1
1
1
1
1
1
1
1
1
1
1
1
1
1
1
1
1
1
1
1
1
1
1
1
1
1
1
1
1
1
1
1
1
1
1
1
1
1
1
1
1
1
1
1
1
1
1
1
1
1
1
1
1
1
1
1
1
1
1
1
1
1
1
1
1
1
1
1
1
1
1
1
1
1
1
1
1
1
1
1
1
1
1
1
1
1
1
1
1
1
1
1
1
1
1
1
1
1
1
1
1
1
1
1
1
1
1
1
1
1
1
1
1
1
1
1
1
1
1
1
1
1
1
1
1
1
1
1
1
1
1
1
1
1
1
1
1
1
1
1
1
1
1
1
1
1
1
1
1
1
1
1
1
1
1
1
1
1
1
1
1
1
1
1
1
1
1
1
1
1
1
1
1
1
1
1
1
1
1
1
1
1
1
1
1
1
1
1
1
1
1
1
1
1
1
1
1
1
1
1
1
1
1
1
1
1
1
1
1
1
1
1
1
1
1
1
1
1
1
1
1
1
1
1
1
1
1
1
1
1
1
1
1
1
1
1
1
1
1
1
1
1
1
1
1
1
1
1
1
1
1
1
1
1
1
1
1
1
1
1
1
1
1
1
1
1
1
1
1
1
1
1
1
1
1
1
1
1
1
1
1
1
1
1
1
1
1
1
1
1
1
1
1
1
1
1
1
1
1
1
1
1
1
1
1
1
1
1
1
1
1
1
1
1
1
1
1
1
1
1
1
1
1
1
1
1
1
1
1
1
1
1
1
1
1
1
1
1
1
1
1
1
1
1
1
1
1
1
1
1
1
1
1
1
1
1
1
1
1
1
1
1
1
1
1
1
1
1
1
1
1
1
1
1
1
1
1
1
1
1
1
1
1
1
1
1
1
1
1
1
1
1
1
1
1
1
1
1
1
1
1
1
1
1
1
1
1
1
1
1
1
1
1
1
1
1
1
1
1
1
1
1
1
1
1
1
1
1
1
1
1
1
1
1
1
1
1
1
1
1
1
1
1
1
1
1
1
1
1
1
1
1
1
1
1
1
1
1
1
1
1
1
1
1
1
1
1
1
1
1
1
1
1
1
1
1
1
1
1
1
1
1
1
1
1
1
1
1
1
1
1
1
1
1
1
1
1
1
1
1
1
1
1
1
1
1
1
1
1
1
1
1
1
1
1
1
1
1
1
1
1
1
1
1
1
1
1
1
1
1
1
1
1
1
1
1
1
1
1
1
1
1
1
1
1
1
1
1
1
1
1
1
1
1
1
1
1
1
1
1
1
1
1
1
1
1
1
1
1
1
1
1
1
1
1
1
1
1
1
1
1
1
1
1
1
1
1
1
1
1
1
1
1
1
1
1
1
1
1
1
1
1
1
1
1
1
1
1
1
1
1
1
1
1
1
1
1
1
1
1
1
1
1
1
1
1
1
1
1
1
1
1
1
1
1
1
1
1
1
1
1
1
1
1
1
1
1
1
1
1
1
1
1
1
1
1
1
1
1
1
1
1
1
1
1
1
1
1
1
1
1
1
1
1
1
1
1
1
1
1
1
1
1
1
1
1
1
1
1
1
1
1
1
1
1
1
1
1
1
1
1
1
1
1
1
1
1
1
1
1
1
1
1
1
1
1
1
1
1
1
1
1
1
1
1
1
1
1
1
1
1
1
1
1
1
1
1
1
1
1
1
1
1
1
1
1
1
1
1
1
1
1
1
1
1
1
1
1
1
1
1
1
1
1
1
1
1
1
1
1
1
1
1
1
1
1
1
1
1
1
1
1
1
1
1
1
1
1
1
1
1
1
1
1
1
1
1
1
1
1
1
1
1
1
1
1
1
1
1
1
1
1
1
1
1
1
1
1
1
1
1
1
1
1
1
1
1
1
1
1
1
1
1
1
1
1
1
1
1
1
1
1
1
1
1
1
1
1
1
1
1
1
1
1
1
1
1
1
1
1
1
1
1
1
1
1
1
1
1
1
1
1
1
1
1
1
1
1
1
1
1
1
1
1
1
1
1
1
1
1
1
1
1
1
1
1
1
1
1
1
1
1
1
1
1
1
1
1
1
1
1
1
1
1
1
1
1
1
1
1
1
1
1
1
1
1
1
1
1
1
1
1
1
1
1
1
1
1
1
1
1
1
1
1
1
1
1
1
1
1
1
1
1
1
1
1
1
1
1
1
1
1
1
1
1
1
1
1
1
1
1
1
1
1
1
1
1
1
1
1
1
1
1
1
1
1
1
1
1
1
1
1
1
1
1
1
1
1
1
1
1
1
1
1
1
1
1
1
1
1
1
1
1
1
1
1
1
1
1
1
1
1
1
1
1
1
1
1
1
1
1
1
1
1
1
1
1
1
1
1
1
1
1
1
1
1
1
1
1
1
1
1
1
1
1.10736
1
1
1
1
1
1
1
1
1
1
1
1
1
1
1
1
1
1
1
1
1
1
1
1
1
1
1
1
1
1.29035
0.999619
1
1
1
1
1
1
1
1
1
1
1
1
1
1
1
1
1
1
1
1
1
1
1
1
1
1
1
1
1.47831
1.03162
1
1
1
1
1
1
1
1
1
1
1
1
1
1
1
1
1
1
1
1
1
1
1
1
1
1
1
1
1.67915
1.13762
1
1
1
1
1
1
1
1
1
1
1
1
1
1
1
1
1
1
1
1
1
1
1
1
1
1
1
1
1.86261
1.35085
0.999572
1
1
1
1
1
1
1
1
1
1
1
1
1
1
1
1
1
1
1
1
1
1
1
1
1
1
1
2.01174
1.60481
1.04837
0.999938
1
1
1
1
1
1
1
1
1
1
1
1
1
1
1
1
1
1
1
1
1
1
1
1
1
1
2.10406
1.86692
1.48317
1.00259
1
1
1
1
1
1
1
1
1
1
1
1
1
1
1
1
1
1
1
1
1
1
1
1
1
1
2.04319
1.91371
1.95901
1.31553
0.999671
1
1
1
1
1
1
1
1
1
1
1
1
1
1
1
1
1
1
1
1
1
1
1
1
1
1.94397
1.90268
2.03752
1.84574
1.11576
0.999845
1
1
1
1
1
1
1
1
1
1
1
1
1
1
1
1
1
1
1
1
1
1
1
1
1.88022
1.89276
2.00948
2.03308
1.53725
1.00414
1
1
1
1
1
1
1
1
1
1
1
1
1
1
1
1
1
1
1
1
1
1
1
1
1.85455
1.87952
1.97414
2.01846
1.8691
1.19108
0.999744
1
1
1
1
1
1
1
1
1
1
1
1
1
1
1
1
1
1
1
1
1
1
1
1.83954
1.87299
1.94139
1.97765
1.99471
1.54484
1.01016
1
1
1
1
1
1
1
1
1
1
1
1
1
1
1
1
1
1
1
1
1
1
1
1.83432
1.86606
1.91532
1.96851
2.01578
1.83687
1.18198
0.999739
1
1
1
1
1
1
1
1
1
1
1
1
1
1
1
1
1
1
1
1
1
1
1.83585
1.86503
1.90706
1.96641
2.00867
1.96558
1.52199
1.00855
1
1
1
1
1
1
1
1
1
1
1
1
1
1
1
1
1
1
1
1
1
1
1.84142
1.86772
1.90957
1.96234
1.99637
1.96174
1.74402
1.12423
0.999981
1
1
1
1
1
1
1
1
1
1
1
1
1
1
1
1
1
1
1
1
1
1.84981
1.87332
1.91362
1.95742
1.97886
1.9563
1.86819
1.37023
0.999863
1
1
1
1
1
1
1
1
1
1
1
1
1
1
1
1
1
1
1
1
1
1.85856
1.87907
1.91593
1.95514
1.96858
1.95718
1.93216
1.64996
1.05738
1
1
1
1
1
1
1
1
1
1
1
1
1
1
1
1
1
1
1
1
1
1.86594
1.88386
1.91758
1.95513
1.96343
1.95859
1.94669
1.81272
1.27487
0.999603
1
1
1
1
1
1
1
1
1
1
1
1
1
1
1
1
1
1
1
1
1.87139
1.88748
1.91857
1.95564
1.96564
1.9631
1.94814
1.8715
1.49765
1.01257
1
1
1
1
1
1
1
1
1
1
1
1
1
1
1
1
1
1
1
1
1.875
1.8899
1.9186
1.95594
1.97081
1.9659
1.95087
1.90827
1.71421
1.12501
0.999821
1
1
1
1
1
1
1
1
1
1
1
1
1
1
1
1
1
1
1
1.87827
1.89167
1.91909
1.95694
1.97388
1.96756
1.95272
1.92726
1.84032
1.37904
1.00099
1
1
1
1
1
1
1
1
1
1
1
1
1
1
1
1
1
1
1
1.88234
1.89322
1.92109
1.95715
1.97476
1.9692
1.95603
1.93747
1.88075
1.58727
1.03994
1
1
1
1
1
1
1
1
1
1
1
1
1
1
1
1
1
1
1
1.88557
1.8933
1.92236
1.95675
1.97416
1.97119
1.96105
1.94456
1.90587
1.76478
1.1986
0.999691
1
1
1
1
1
1
1
1
1
1
1
1
1
1
1
1
1
1
1.88579
1.89326
1.92234
1.95588
1.97308
1.97254
1.96443
1.94564
1.91802
1.86748
1.46939
1.00805
1
1
1
1
1
1
1
1
1
1
1
1
1
1
1
1
1
1
1.88575
1.89342
1.92203
1.95423
1.9717
1.97256
1.96456
1.94663
1.92713
1.88861
1.65949
1.0839
1
1
1
1
1
1
1
1
1
1
1
1
1
1
1
1
1
1
1.88539
1.89379
1.92161
1.95231
1.96985
1.97191
1.96451
1.94891
1.93326
1.90464
1.81327
1.28308
0.999571
1
1
1
1
1
1
1
1
1
1
1
1
1
1
1
1
1
1.88455
1.89418
1.92085
1.95023
1.96768
1.97053
1.96432
1.95092
1.93398
1.91247
1.89515
1.56315
1.02441
1
1
1
1
1
1
1
1
1
1
1
1
1
1
1
1
1
1.88395
1.89446
1.91968
1.94796
1.96499
1.96874
1.96348
1.95098
1.9342
1.91658
1.9051
1.72507
1.14759
0.999781
1
1
1
1
1
1
1
1
1
1
1
1
1
1
1
1
1.88406
1.89458
1.91813
1.94598
1.96277
1.96704
1.96254
1.95062
1.93434
1.92157
1.90748
1.84852
1.36998
1.00159
1
1
1
1
1
1
1
1
1
1
1
1
1
1
1
1
1.88481
1.89477
1.91702
1.94499
1.96144
1.96578
1.96183
1.95039
1.93482
1.92131
1.91123
1.91597
1.64294
1.05227
1
1
1
1
1
1
1
1
1
1
1
1
1
1
1
1
1.8859
1.8953
1.91677
1.94439
1.96126
1.96519
1.96153
1.95005
1.93561
1.92153
1.91162
1.92085
1.77757
1.2199
0.999667
1
1
1
1
1
1
1
1
1
1
1
1
1
1
1
1.88709
1.89616
1.91693
1.94375
1.96101
1.9649
1.9614
1.94982
1.9365
1.92288
1.91175
1.91439
1.86696
1.43969
1.00621
1
1
1
1
1
1
1
1
1
1
1
1
1
1
1
1.88833
1.89711
1.91728
1.9432
1.96055
1.96473
1.96149
1.94979
1.93702
1.92376
1.91264
1.91373
1.92481
1.6974
1.0849
0.999882
1
1
1
1
1
1
1
1
1
1
1
1
1
1
1.88955
1.89784
1.91742
1.94253
1.95984
1.96437
1.96154
1.9499
1.9372
1.92439
1.91454
1.91348
1.92992
1.81346
1.28572
1.00034
1
1
1
1
1
1
1
1
1
1
1
1
1
1
1.89075
1.89827
1.91729
1.94162
1.95893
1.96377
1.96151
1.95019
1.93725
1.92498
1.91643
1.91236
1.92439
1.87471
1.49344
1.01409
1
1
1
1
1
1
1
1
1
1
1
1
1
1
1.8918
1.89848
1.91668
1.94045
1.95798
1.96315
1.96134
1.95065
1.93733
1.92583
1.91815
1.91182
1.91827
1.92462
1.73329
1.11853
0.999815
0.999999
1
1
1
1
1
1
1
1
1
1
1
1
1.89244
1.89869
1.91592
1.93948
1.95722
1.96262
1.96138
1.95146
1.93758
1.92653
1.91968
1.91326
1.91861
1.93329
1.83754
1.33866
1.0019
1
1
1
1
1
1
1
1
1
1
1
1
1
1.89301
1.89902
1.9155
1.93901
1.95666
1.96219
1.96151
1.95258
1.93819
1.92722
1.9208
1.91569
1.91823
1.9324
1.88229
1.53585
1.02311
0.999962
1
1
1
1
1
1
1
1
1
1
1
1
1.89331
1.89948
1.9154
1.93844
1.95579
1.96162
1.96164
1.9541
1.93993
1.92821
1.92176
1.91725
1.91657
1.92479
1.91912
1.76419
1.16433
1.00045
1
1
1
1
1
1
1
1
1
1
1
1
1.89536
1.90421
1.9211
1.94308
1.95793
1.96206
1.96175
1.95455
1.93886
1.92739
1.92137
1.91749
1.9158
1.92489
1.9318
1.8379
1.33133
0.98862
0.999893
1
1
1
1
1
1
1
1
1
1
1
1.54175
1.74934
1.83279
1.89164
1.92969
1.94961
1.95736
1.95442
1.9456
1.93331
1.92435
1.9202
1.91629
1.92064
1.93212
1.89865
1.6848
1.12429
1.00173
1.00001
1
1
1
1
1
1
1
1
1
1
1.16137
1.52918
1.68237
1.78553
1.8556
1.90487
1.93134
1.94375
1.9414
1.93325
1.9246
1.92078
1.9189
1.91834
1.92819
1.92849
1.8659
1.44908
1.03466
1.0003
1
1
1
1
1
1
1
1
1
1
0.90969
1.34451
1.52458
1.65232
1.74871
1.82808
1.87792
1.90917
1.92415
1.924
1.92016
1.91788
1.91863
1.91692
1.92173
1.93317
1.92008
1.7227
1.19322
1.00508
1.00003
1
1
1
1
1
1
1
1
1
0.878865
1.21216
1.39402
1.52621
1.64044
1.72661
1.80633
1.85368
1.88695
1.90114
1.90544
1.90734
1.91209
1.91514
1.91629
1.93081
1.9405
1.89703
1.50602
1.05049
1.00052
1
1
1
1
1
1
1
1
1
0.887258
1.0732
1.27106
1.41661
1.54246
1.63575
1.71888
1.78995
1.83207
1.86549
1.87785
1.88766
1.8967
1.9068
1.91153
1.92572
1.94202
1.93438
1.77799
1.25109
1.00814
1.00004
1
1
1
1
1
1
1
1
0.955505
1.03
1.14681
1.30067
1.44187
1.55952
1.63337
1.71831
1.77681
1.81564
1.8432
1.85857
1.87217
1.88886
1.90087
1.91552
1.93735
1.93141
1.89082
1.52091
1.05674
1.00059
1
1
1
1
1
1
1
1