/*--------------------------------*- C++ -*----------------------------------*\
  =========                 |
  \\      /  F ield         | OpenFOAM: The Open Source CFD Toolbox
   \\    /   O peration     | Website:  https://openfoam.org
    \\  /    A nd           | Version:  7
     \\/     M anipulation  |
\*---------------------------------------------------------------------------*/
FoamFile
{
    version     2.0;
    format      ascii;
    class       volScalarField;
    location    "2.4";
    object      p;
}
// * * * * * * * * * * * * * * * * * * * * * * * * * * * * * * * * * * * * * //

dimensions      [1 -1 -2 0 0 0 0];

internalField   nonuniform List<scalar> 
8400
(
0.118027
0.187211
0.25713
0.325
0.388456
0.443181
0.489951
0.536141
0.572625
0.592049
0.609695
0.617284
0.630269
0.634514
0.645836
0.662313
0.665243
0.662625
0.6546
0.670291
0.685217
0.724956
0.776942
0.829117
0.876289
0.89886
0.904284
0.936659
1.0084
1.04858
0.0477954
0.0469498
0.0494452
0.0608637
0.0812626
0.117283
0.16615
0.223731
0.293266
0.369717
0.437918
0.506071
0.58888
0.640394
0.68492
0.72066
0.738565
0.728488
0.704681
0.685289
0.688123
0.730166
0.770885
0.822355
0.879232
0.90905
0.915985
0.933099
0.988731
1.03126
0.0489789
0.0481464
0.0473125
0.0464392
0.0459879
0.045533
0.0457581
0.0465017
0.0465329
0.0535238
0.071336
0.105971
0.157524
0.237321
0.32231
0.405172
0.491847
0.57013
0.634846
0.662626
0.715451
0.78549
0.815117
0.845544
0.89988
0.93974
0.93944
0.94837
0.991868
1.00112
0.0443164
0.0439278
0.0435915
0.0430391
0.0427099
0.0430795
0.0439834
0.0448659
0.0450735
0.0446859
0.0429515
0.0416279
0.0418482
0.0424304
0.0434334
0.0548252
0.0903308
0.152107
0.248802
0.380904
0.532518
0.70186
0.805205
0.845909
0.909065
0.952962
0.955324
0.968574
0.96891
0.949813
0.0426733
0.0427387
0.0426306
0.0423505
0.0422141
0.042817
0.0439624
0.0446122
0.0449938
0.045
0.0434782
0.0419058
0.0422466
0.0445279
0.0488464
0.052595
0.0545465
0.0572445
0.059573
0.0685252
0.105888
0.212788
0.46746
0.67294
0.880888
0.973595
0.971234
0.970073
0.959617
0.941217
0.0448219
0.0451288
0.0451893
0.0454154
0.0454375
0.0449369
0.0450714
0.0459951
0.0478856
0.051245
0.0529352
0.0536622
0.0554483
0.0588265
0.062685
0.0649583
0.0665297
0.0686617
0.0720482
0.0749503
0.0763651
0.0776763
0.101844
0.228868
0.522509
0.815521
0.961037
0.955652
0.93127
0.936777
0.0495934
0.0507263
0.0519414
0.0531611
0.0545466
0.0561143
0.0582593
0.0612597
0.0644908
0.0686934
0.0712245
0.0720081
0.0725666
0.0742081
0.0756168
0.0757856
0.0764988
0.0786101
0.0827076
0.0856775
0.0885605
0.09234
0.0962969
0.0976326
0.12961
0.329462
0.705277
0.848662
0.891293
0.979484
0.0673056
0.0697771
0.0722124
0.07426
0.075708
0.0759884
0.076368
0.0768041
0.0773927
0.0797042
0.0828249
0.0830756
0.0831679
0.0844889
0.0882851
0.0910179
0.0926685
0.095012
0.0998222
0.104029
0.10531
0.106514
0.107729
0.109686
0.111591
0.11609
0.219865
0.525469
0.678091
0.803057
0.086303
0.0890265
0.0920874
0.0934556
0.0937201
0.092586
0.0918854
0.0925722
0.0939661
0.0962459
0.100224
0.103252
0.105193
0.107422
0.112138
0.117212
0.119587
0.121253
0.124251
0.128898
0.130343
0.130864
0.132217
0.133924
0.136226
0.141628
0.143669
0.177335
0.264648
0.43492
0.113787
0.116881
0.121909
0.125182
0.125324
0.124623
0.124856
0.127237
0.130061
0.132629
0.135969
0.137529
0.138128
0.139558
0.142418
0.144506
0.144759
0.145265
0.147527
0.151394
0.154869
0.157376
0.160578
0.164089
0.167169
0.169604
0.171964
0.177531
0.181983
0.205584
0.155051
0.158263
0.162656
0.165464
0.165952
0.164675
0.162767
0.162796
0.163767
0.166471
0.169336
0.169689
0.170322
0.171368
0.172461
0.173413
0.173396
0.173723
0.175201
0.1769
0.177305
0.178324
0.18018
0.183038
0.185828
0.187082
0.189823
0.193676
0.199913
0.221836
0.206211
0.2096
0.213829
0.216647
0.21769
0.216632
0.211334
0.208767
0.209166
0.210625
0.213138
0.214797
0.214519
0.212951
0.212828
0.213782
0.214898
0.215088
0.214895
0.215221
0.21601
0.217378
0.217184
0.216178
0.216087
0.218113
0.221293
0.226863
0.23505
0.258885
0.271233
0.275192
0.280395
0.281901
0.28219
0.28107
0.274692
0.269472
0.2701
0.271259
0.270203
0.26882
0.268481
0.269041
0.269625
0.269059
0.266618
0.26509
0.26511
0.265865
0.266669
0.266379
0.26469
0.26252
0.262815
0.264633
0.268865
0.274551
0.279994
0.301107
0.356448
0.361265
0.36571
0.364452
0.360667
0.358104
0.351651
0.345387
0.346179
0.347565
0.343953
0.334026
0.331816
0.332827
0.333476
0.332175
0.327828
0.322882
0.319242
0.31648
0.314183
0.310116
0.307454
0.307734
0.307718
0.307842
0.309214
0.310144
0.31208
0.32775
0.465478
0.472072
0.47353
0.468419
0.464061
0.461184
0.450387
0.438594
0.438278
0.438874
0.434651
0.422067
0.414528
0.41441
0.413972
0.410112
0.402117
0.39624
0.392341
0.38811
0.385115
0.380914
0.375
0.369296
0.363283
0.358337
0.356684
0.358633
0.363081
0.377931
0.604436
0.609618
0.610269
0.599622
0.588919
0.582871
0.57134
0.557469
0.554466
0.554386
0.548297
0.529359
0.516269
0.51566
0.514147
0.506663
0.492726
0.48311
0.477789
0.470904
0.462863
0.454972
0.444675
0.436712
0.432455
0.427621
0.425154
0.424876
0.425599
0.435387
0.780081
0.77848
0.769184
0.752657
0.747652
0.741277
0.720157
0.695845
0.693367
0.692924
0.685317
0.660912
0.641068
0.639616
0.636825
0.62577
0.60517
0.588341
0.578762
0.569029
0.55743
0.54581
0.532932
0.519806
0.510433
0.501578
0.493172
0.487647
0.48543
0.492109
0.987108
0.978608
0.963607
0.955249
0.944498
0.920408
0.901349
0.88146
0.862928
0.85396
0.844374
0.823901
0.796567
0.785303
0.775826
0.759953
0.738328
0.716244
0.698848
0.682749
0.666223
0.648974
0.632796
0.616083
0.601862
0.59051
0.577808
0.568832
0.563742
0.567115
1.25002
1.2286
1.21338
1.20152
1.18794
1.15705
1.13087
1.11065
1.08601
1.06249
1.04371
1.02212
0.990272
0.965829
0.946784
0.923372
0.897104
0.869301
0.845178
0.821585
0.798081
0.774604
0.751835
0.729451
0.710181
0.6942
0.678235
0.663147
0.651951
0.652784
1.51001
1.49647
1.48182
1.46264
1.44521
1.42673
1.40297
1.37722
1.35072
1.32288
1.29563
1.26871
1.23474
1.20068
1.17102
1.1373
1.1026
1.06738
1.03256
1.00057
0.967218
0.935597
0.905192
0.875029
0.848735
0.825244
0.804669
0.783959
0.768808
0.766439
1.59153
1.58694
1.58256
1.5775
1.57019
1.56121
1.55187
1.54235
1.53183
1.51883
1.50241
1.48534
1.46481
1.43966
1.41397
1.38336
1.34745
1.31146
1.27276
1.23481
1.19533
1.15446
1.11409
1.07553
1.03957
1.00723
0.978826
0.951586
0.932835
0.919748
1.56813
1.56995
1.57097
1.57003
1.5664
1.56024
1.55338
1.5495
1.54598
1.5406
1.53397
1.52752
1.52122
1.51218
1.5005
1.48644
1.46979
1.45262
1.43421
1.41199
1.38702
1.35772
1.32489
1.291
1.25561
1.22183
1.18918
1.15798
1.1336
1.10248
1.39748
1.40708
1.42309
1.442
1.44361
1.44566
1.45191
1.4669
1.47263
1.47322
1.47691
1.48274
1.48545
1.48451
1.4809
1.47497
1.46776
1.45926
1.44728
1.43213
1.41556
1.39749
1.37695
1.35522
1.33215
1.3075
1.28219
1.25556
1.23188
1.19109
1.12352
1.13323
1.14398
1.15626
1.16879
1.18081
1.19383
1.20926
1.22481
1.2405
1.25709
1.2738
1.29121
1.30694
1.32203
1.33517
1.34719
1.35667
1.36349
1.36535
1.362
1.3564
1.34749
1.3348
1.3195
1.30146
1.27996
1.25583
1.23302
1.19056
1.00986
1.01128
1.01302
1.01509
1.01769
1.02062
1.02394
1.02796
1.03298
1.03875
1.04556
1.05338
1.06245
1.07303
1.08476
1.09825
1.11236
1.12765
1.14299
1.15848
1.17184
1.18325
1.19317
1.19836
1.19911
1.19664
1.18929
1.1768
1.16181
1.12947
1.00017
1.0002
1.00025
1.0003
1.00038
1.00048
1.00061
1.00078
1.001
1.0013
1.0017
1.00223
1.00294
1.00389
1.00515
1.00683
1.00897
1.01172
1.01514
1.01927
1.02422
1.02952
1.03519
1.04093
1.04544
1.04882
1.04974
1.04857
1.04547
1.03602
1
1
1
1
1
1
1
1.00001
1.00001
1.00001
1.00002
1.00002
1.00003
1.00004
1.00007
1.0001
1.00014
1.00021
1.00032
1.00047
1.00068
1.00097
1.00134
1.00179
1.00228
1.00275
1.00308
1.00317
1.00308
1.00251
1
1
1
1
1
1
1
1
1
1
1
1
1
1
1
1
1
1
1
1
1.00001
1.00001
1.00001
1.00002
1.00002
1.00003
1.00004
1.00004
1.00004
1.00004
1
1
1
1
1
1
1
1
1
1
1
1
1
1
1
1
1
1
1
1
1
1
1
1
1
1
1
1
1
1
1
1
1
1
1
1
1
1
1
1
1
1
1
1
1
1
1
1
1
1
1
1
1
1
1
1
1
1
1
1
0.0485831
0.0484157
0.0499603
0.0449316
0.0425661
0.0445931
0.0485976
0.0648092
0.0843737
0.111989
0.152845
0.204151
0.270085
0.356067
0.465165
0.606289
0.782512
1.00543
1.28397
1.53098
1.59683
1.56456
1.38119
1.10979
1.0082
1.00015
1
1
1
1
0.0494284
0.049316
0.0499083
0.0443732
0.0424982
0.0452572
0.0501678
0.0668549
0.0883674
0.120036
0.16379
0.221632
0.298689
0.396123
0.518483
0.67296
0.854914
1.08102
1.3563
1.56996
1.60451
1.55571
1.34365
1.08177
1.0046
1.00006
1
1
1
1
0.0501869
0.0497748
0.0499837
0.0440559
0.0423476
0.0460741
0.0517005
0.0690494
0.0950487
0.131507
0.179079
0.245351
0.329198
0.433091
0.564849
0.72235
0.915397
1.14629
1.41522
1.59456
1.61039
1.54848
1.30533
1.06046
1.00277
1.00003
1
1
1
1
0.0503951
0.0496084
0.0502849
0.0439374
0.0422408
0.0478312
0.056187
0.0765473
0.102901
0.139439
0.190515
0.260232
0.346997
0.454537
0.58922
0.754021
0.952832
1.20032
1.4708
1.61288
1.61529
1.53214
1.25874
1.04214
1.00155
1.00002
1
1
1
1
0.0505453
0.0493224
0.0509132
0.0442295
0.0424959
0.0496196
0.0595717
0.0808632
0.105467
0.143467
0.198736
0.27023
0.358611
0.469997
0.608953
0.781909
0.995962
1.25845
1.52209
1.62698
1.61954
1.49619
1.21509
1.0289
1.00086
1.00001
1
1
1
1
0.0505926
0.049406
0.0514602
0.0447532
0.0428894
0.0503309
0.0605313
0.0823188
0.108345
0.146375
0.205476
0.277582
0.366829
0.482529
0.631467
0.819559
1.05158
1.32871
1.57001
1.64013
1.6219
1.47085
1.17689
1.01894
1.00045
1
1
1
1
1
0.0504271
0.0495694
0.0515553
0.0447862
0.0428789
0.0503272
0.0607302
0.0831406
0.114614
0.156126
0.21678
0.293338
0.397128
0.529464
0.698255
0.901547
1.13976
1.40465
1.60967
1.64972
1.61833
1.43805
1.13576
1.01139
1.00022
1
1
1
1
1
0.0505719
0.0499511
0.0508087
0.0440239
0.041894
0.0496198
0.0611833
0.0877647
0.127027
0.176373
0.239975
0.330802
0.44616
0.588535
0.760498
0.96645
1.21
1.47247
1.63875
1.65603
1.61083
1.38138
1.09878
1.0066
1.00011
1
1
1
1
1
0.0510952
0.0505028
0.0492853
0.0429503
0.0413697
0.0498417
0.0675187
0.101051
0.138004
0.186971
0.25743
0.355746
0.474427
0.620316
0.798087
1.01461
1.26889
1.53109
1.6602
1.66222
1.58782
1.33136
1.07181
1.00375
1.00005
1
1
1
1
1
0.051673
0.051442
0.0479603
0.0424112
0.042006
0.0541177
0.0765248
0.106695
0.141563
0.193607
0.27377
0.376282
0.49707
0.649213
0.839035
1.07098
1.33963
1.58642
1.67623
1.6693
1.56616
1.28314
1.04802
1.00191
1.00002
1
1
1
1
1
0.0526344
0.0531258
0.0473586
0.0422889
0.0444579
0.0579217
0.0786287
0.106986
0.14431
0.200829
0.289558
0.391262
0.519737
0.688792
0.903746
1.15097
1.4235
1.63312
1.68665
1.67218
1.53244
1.222
1.0292
1.00091
1.00001
1
1
1
1
1
0.0546806
0.0544856
0.0474447
0.0420934
0.0460104
0.0587686
0.0790628
0.105081
0.151689
0.225525
0.313342
0.419014
0.576768
0.773355
0.995845
1.2426
1.50195
1.66867
1.69283
1.66514
1.48063
1.16905
1.01775
1.00043
1
1
1
1
1
1
0.0560619
0.054859
0.0476613
0.0416747
0.0461547
0.0583363
0.0803254
0.114458
0.177676
0.253135
0.342679
0.47903
0.648191
0.841542
1.0608
1.31519
1.56715
1.69584
1.7008
1.64507
1.429
1.1252
1.00994
1.00019
1
1
1
1
1
1
0.056312
0.05427
0.0475002
0.0415583
0.0455516
0.0577551
0.0842678
0.138966
0.200597
0.269213
0.375692
0.526661
0.692569
0.88767
1.12231
1.38932
1.62432
1.71475
1.71323
1.63299
1.36913
1.0851
1.00501
1.00008
1
1
1
1
1
1
0.0555918
0.0527559
0.0475384
0.0416013
0.0463051
0.0638413
0.101361
0.153368
0.20829
0.285977
0.413512
0.563635
0.73089
0.944191
1.20818
1.47445
1.67304
1.72564
1.71935
1.61863
1.30265
1.05356
1.00237
1.00003
1
1
1
1
1
1
0.0538989
0.0521354
0.0481888
0.0426545
0.0518641
0.0759388
0.10967
0.156554
0.215306
0.315827
0.450481
0.593007
0.790323
1.04503
1.31459
1.55756
1.70979
1.73242
1.71521
1.55336
1.2272
1.02981
1.00097
1.00001
1
1
1
1
1
1
0.0533692
0.0524127
0.0497769
0.0452302
0.0565544
0.0815249
0.111637
0.158038
0.237368
0.361057
0.485553
0.653306
0.896033
1.15089
1.40428
1.62658
1.73599
1.74362
1.69504
1.48496
1.16542
1.01694
1.00042
1
1
1
1
1
1
1
0.0540307
0.0523509
0.0507419
0.0469727
0.0576245
0.0823714
0.115536
0.173909
0.287986
0.394625
0.530574
0.751741
0.988394
1.23322
1.48914
1.69176
1.75698
1.75642
1.67878
1.43369
1.11949
1.00904
1.00017
1
1
1
1
1
1
1
0.0551226
0.0516622
0.0503636
0.0470223
0.0567897
0.0823979
0.130202
0.223499
0.320785
0.430159
0.611067
0.832975
1.06632
1.32797
1.58394
1.74568
1.77443
1.7641
1.67031
1.35995
1.06905
1.00343
1.00005
1
1
1
1
1
1
1
0.0568328
0.0498392
0.0479347
0.0466144
0.0586586
0.0987922
0.164279
0.250203
0.341972
0.483862
0.690298
0.905274
1.16474
1.4441
1.66518
1.77367
1.7837
1.76317
1.60881
1.24778
1.03456
1.00128
1.00002
1
1
1
1
1
1
1
0.0595693
0.0475275
0.0452183
0.048134
0.0731406
0.123918
0.183968
0.26154
0.373317
0.561947
0.759702
0.997791
1.29113
1.54592
1.72329
1.78685
1.78472
1.73519
1.49994
1.17143
1.01894
1.00053
1.00001
1
1
1
1
1
1
1
0.0614757
0.0460382
0.0430898
0.0540973
0.0866791
0.133916
0.19134
0.279567
0.447309
0.63076
0.839047
1.12852
1.40712
1.63329
1.76725
1.7991
1.78421
1.69519
1.43235
1.12034
1.00918
1.00018
1
1
1
1
1
1
1
1
0.061943
0.0450171
0.0426392
0.0590564
0.0902327
0.133622
0.201003
0.338762
0.523823
0.704958
0.96455
1.25284
1.51492
1.71569
1.80006
1.81249
1.78604
1.66464
1.35542
1.06812
1.00347
1.00005
1
1
1
1
1
1
1
1
0.0620049
0.0439749
0.0437478
0.0598306
0.088013
0.133348
0.242472
0.422648
0.588137
0.803864
1.0911
1.37173
1.62343
1.77821
1.8204
1.82263
1.79724
1.62579
1.23873
1.03018
1.00109
1.00001
1
1
1
1
1
1
1
1
0.0628531
0.0425591
0.044417
0.0597057
0.0884778
0.176186
0.320885
0.474564
0.660233
0.932989
1.21416
1.49849
1.71312
1.81447
1.83127
1.82679
1.77507
1.48873
1.14017
1.01294
1.00033
1
1
1
1
1
1
1
1
1
0.0626204
0.040373
0.0421331
0.0636712
0.120652
0.237887
0.364779
0.527896
0.779451
1.05897
1.35222
1.61808
1.77593
1.83147
1.83459
1.81922
1.68323
1.3661
1.08467
1.00553
1.0001
1
1
1
1
1
1
1
1
1
0.0607878
0.0378255
0.0386093
0.0787552
0.165397
0.272825
0.402017
0.624059
0.918606
1.20161
1.50183
1.71298
1.81522
1.83941
1.83353
1.7895
1.61091
1.28126
1.04617
1.00198
1.00003
1
1
1
1
1
1
1
1
1
0.0569718
0.036015
0.0382388
0.100173
0.19095
0.29417
0.479775
0.782462
1.06673
1.36485
1.62586
1.78282
1.83702
1.84313
1.82658
1.75783
1.53997
1.18488
1.01925
1.00058
1.00001
1
1
1
1
1
1
1
1
1
0.0506195
0.0349079
0.0520453
0.119724
0.211155
0.353376
0.635633
0.928175
1.22499
1.51423
1.72184
1.82636
1.84673
1.8452
1.83012
1.73409
1.41395
1.09115
1.00636
1.00014
1
1
1
1
1
1
1
1
1
1
0.0416712
0.0346925
0.0702636
0.133707
0.247066
0.49804
0.780184
1.07727
1.39943
1.64206
1.78712
1.84542
1.8499
1.84485
1.82349
1.63669
1.25743
1.03991
1.00187
1.00003
1
1
1
1
1
1
1
1
1
1
0.0327913
0.0378076
0.0803121
0.174602
0.365763
0.632468
0.923064
1.26309
1.56264
1.74295
1.82225
1.84925
1.85025
1.83688
1.75049
1.48249
1.15783
1.01738
1.00052
1.00001
1
1
1
1
1
1
1
1
1
1
0.0264778
0.0425653
0.0927317
0.243223
0.493968
0.771943
1.12241
1.46296
1.70151
1.80134
1.83721
1.84856
1.84414
1.81569
1.68085
1.38018
1.09138
1.00623
1.00013
1
1
1
1
1
1
1
1
1
1
1
0.020696
0.0540692
0.143347
0.350214
0.634207
0.979843
1.35814
1.62999
1.79336
1.82288
1.84351
1.84689
1.83358
1.79029
1.6172
1.26675
1.03854
1.00167
1.00003
1
1
1
1
1
1
1
1
1
1
1
0.0127109
0.0632731
0.228524
0.496119
0.835434
1.23911
1.55771
1.74951
1.83708
1.82697
1.84593
1.85164
1.83305
1.77039
1.49659
1.13233
1.01177
1.00035
1
1
1
1
1
1
1
1
1
1
1
1
0.00425406
0.0828394
0.341704
0.705606
1.12219
1.47284
1.70862
1.81952
1.84814
1.82768
1.84814
1.85553
1.84197
1.68715
1.30052
1.05237
1.00302
1.00006
1
1
1
1
1
1
1
1
1
1
1
1
0.00350304
0.185131
0.531891
0.975221
1.38982
1.66486
1.80204
1.84676
1.84992
1.82579
1.84679
1.85007
1.79789
1.50959
1.16367
1.01881
1.00064
1.00001
1
1
1
1
1
1
1
1
1
1
1
1
0.0267002
0.320089
0.810104
1.30586
1.6241
1.78565
1.83828
1.85254
1.84841
1.82488
1.84443
1.81912
1.6797
1.35859
1.08016
1.00517
1.00011
1
1
1
1
1
1
1
1
1
1
1
1
1
0.107453
0.539617
1.17973
1.59756
1.7777
1.8334
1.84609
1.85306
1.8483
1.82467
1.85271
1.78077
1.57114
1.22143
1.02699
1.00099
1.00001
1
1
1
1
1
1
1
1
1
1
1
1
1
0.375037
1.01389
1.55735
1.77579
1.83341
1.84283
1.84755
1.8537
1.84959
1.82543
1.85333
1.73688
1.41746
1.08717
1.00554
1.00012
1
1
1
1
1
1
1
1
1
1
1
1
1
1
1.00013
1.53546
1.78762
1.84122
1.84368
1.84331
1.84803
1.8573
1.85256
1.82618
1.82465
1.61991
1.2017
1.01931
1.00054
1.00001
1
1
1
1
1
1
1
1
1
1
1
1
1
1
1.84705
1.85132
1.8518
1.84993
1.84325
1.84183
1.85084
1.86226
1.85297
1.81976
1.73975
1.39783
1.06182
0.999774
0.999963
0.999999
1
1
1
1
1
1
1
1
1
1
1
1
1
1
1.84673
1.85056
1.8514
1.85022
1.84205
1.83931
1.85
1.86348
1.85755
1.80654
1.71488
1.37748
1.06653
1.00262
1.00003
1
1
1
1
1
1
1
1
1
1
1
1
1
1
1
1.84711
1.84971
1.85119
1.85021
1.84257
1.83881
1.84741
1.86334
1.85808
1.80225
1.66579
1.25385
1.02187
1.00035
1
1
1
1
1
1
1
1
1
1
1
1
1
1
1
1
1.84737
1.84752
1.85013
1.85035
1.84496
1.8404
1.84459
1.85883
1.85404
1.78136
1.58094
1.15819
1.0097
1.00012
1
1
1
1
1
1
1
1
1
1
1
1
1
1
1
1
1.84768
1.84602
1.84827
1.85101
1.84906
1.84318
1.84202
1.85363
1.8501
1.75128
1.46665
1.09539
1.00377
1.00003
1
1
1
1
1
1
1
1
1
1
1
1
1
1
1
1
1.84798
1.84564
1.84637
1.85142
1.85222
1.84832
1.83801
1.84723
1.85034
1.72853
1.36531
1.05135
1.00129
1.00001
1
1
1
1
1
1
1
1
1
1
1
1
1
1
1
1
1.8492
1.84525
1.84366
1.84893
1.85284
1.85312
1.83303
1.83639
1.84533
1.68451
1.25197
1.02231
1.00038
1
1
1
1
1
1
1
1
1
1
1
1
1
1
1
1
1
1.85004
1.84518
1.84244
1.84592
1.85272
1.85771
1.83196
1.82125
1.81695
1.57316
1.1626
1.00967
1.00011
1
1
1
1
1
1
1
1
1
1
1
1
1
1
1
1
1
1.85035
1.84614
1.84278
1.84364
1.85178
1.8605
1.84345
1.81735
1.79661
1.47901
1.09773
1.00365
1.00003
1
1
1
1
1
1
1
1
1
1
1
1
1
1
1
1
1
1.8498
1.84785
1.84354
1.84111
1.84798
1.86098
1.85538
1.82045
1.76406
1.35459
1.04573
1.00111
1.00001
1
1
1
1
1
1
1
1
1
1
1
1
1
1
1
1
1
1.84796
1.84859
1.84419
1.83915
1.84198
1.86009
1.8649
1.81367
1.65632
1.23669
1.02018
1.00032
1
1
1
1
1
1
1
1
1
1
1
1
1
1
1
1
1
1
1.84739
1.84891
1.84712
1.838
1.835
1.85977
1.8691
1.80125
1.56273
1.15407
1.00825
1.00009
1
1
1
1
1
1
1
1
1
1
1
1
1
1
1
1
1
1
1.84647
1.84768
1.84839
1.83962
1.82877
1.85274
1.87153
1.79696
1.45518
1.07979
1.00259
1.00002
1
1
1
1
1
1
1
1
1
1
1
1
1
1
1
1
1
1
1.84577
1.84583
1.84746
1.84313
1.82674
1.84857
1.8655
1.72086
1.32482
1.03683
1.00077
1
1
1
1
1
1
1
1
1
1
1
1
1
1
1
1
1
1
1
1.84615
1.84267
1.84712
1.84773
1.83078
1.85063
1.8543
1.63601
1.21924
1.01602
1.00021
1
1
1
1
1
1
1
1
1
1
1
1
1
1
1
1
1
1
1
1.84729
1.83959
1.84251
1.85483
1.84924
1.85829
1.85048
1.53944
1.12188
1.00528
1.00005
1
1
1
1
1
1
1
1
1
1
1
1
1
1
1
1
1
1
1
1.84793
1.83718
1.83468
1.85785
1.87118
1.84997
1.7907
1.39474
1.05659
1.00152
1.00001
1
1
1
1
1
1
1
1
1
1
1
1
1
1
1
1
1
1
1
1.84641
1.83361
1.8271
1.86211
1.88773
1.83807
1.69192
1.27603
1.02579
1.00042
1
1
1
1
1
1
1
1
1
1
1
1
1
1
1
1
1
1
1
1
1.84358
1.8321
1.82418
1.87274
1.89518
1.83482
1.60138
1.16657
1.00885
1.0001
1
1
1
1
1
1
1
1
1
1
1
1
1
1
1
1
1
1
1
1
1.83612
1.83295
1.8253
1.88127
1.89865
1.81487
1.47083
1.07962
1.00258
1.00002
1
1
1
1
1
1
1
1
1
1
1
1
1
1
1
1
1
1
1
1
1.82868
1.8363
1.83846
1.88609
1.89882
1.73054
1.32791
1.0362
1.00071
1
1
1
1
1
1
1
1
1
1
1
1
1
1
1
1
1
1
1
1
1
1.82221
1.84379
1.8599
1.89101
1.89854
1.64812
1.20287
1.01282
1.00015
1
1
1
1
1
1
1
1
1
1
1
1
1
1
1
1
1
1
1
1
1
1.81493
1.8538
1.8837
1.8897
1.87254
1.51445
1.0967
1.00353
1.00003
1
1
1
1
1
1
1
1
1
1
1
1
1
1
1
1
1
1
1
1
1
1.80953
1.86312
1.90619
1.86992
1.78065
1.35976
1.04384
1.00094
1.00001
1
1
1
1
1
1
1
1
1
1
1
1
1
1
1
1
1
1
1
1
1
1.80807
1.87684
1.92223
1.86216
1.6813
1.23001
1.0159
1.00021
1
1
1
1
1
1
1
1
1
1
1
1
1
1
1
1
1
1
1
1
1
1
1.81093
1.89336
1.93127
1.85904
1.54837
1.10853
1.00416
1.00004
1
1
1
1
1
1
1
1
1
1
1
1
1
1
1
1
1
1
1
1
1
1
1.83803
1.91345
1.93284
1.78012
1.37596
1.04642
1.00106
1.00001
1
1
1
1
1
1
1
1
1
1
1
1
1
1
1
1
1
1
1
1
1
1
1.87439
1.9201
1.92879
1.68668
1.23307
1.0165
1.00022
1
1
1
1
1
1
1
1
1
1
1
1
1
1
1
1
1
1
1
1
1
1
1
1.91513
1.92146
1.91687
1.55016
1.10627
1.00412
1.00004
1
1
1
1
1
1
1
1
1
1
1
1
1
1
1
1
1
1
1
1
1
1
1
1.98775
1.89999
1.81454
1.35353
1.04277
1.00099
1.00001
1
1
1
1
1
1
1
1
1
1
1
1
1
1
1
1
1
1
1
1
1
1
1
2.06672
1.82702
1.69326
1.21659
1.01553
1.00022
1
1
1
1
1
1
1
1
1
1
1
1
1
1
1
1
1
1
1
1
1
1
1
1
2.1362
1.78686
1.51104
1.09721
1.00397
1.00004
1
1
1
1
1
1
1
1
1
1
1
1
1
1
1
1
1
1
1
1
1
1
1
1
2.16464
1.70753
1.32745
1.03988
1.00107
1.00001
1
1
1
1
1
1
1
1
1
1
1
1
1
1
1
1
1
1
1
1
1
1
1
1
2.15351
1.5877
1.1976
1.01525
1.00026
1
1
1
1
1
1
1
1
1
1
1
1
1
1
1
1
1
1
1
1
1
1
1
1
1
2.11047
1.45829
1.09658
1.00435
1.00005
1
1
1
1
1
1
1
1
1
1
1
1
1
1
1
1
1
1
1
1
1
1
1
1
1
1.94833
1.31879
1.04512
1.00125
1.00001
1
1
1
1
1
1
1
1
1
1
1
1
1
1
1
1
1
1
1
1
1
1
1
1
1
1.77332
1.21122
1.01738
1.00029
1
1
1
1
1
1
1
1
1
1
1
1
1
1
1
1
1
1
1
1
1
1
1
1
1
1
1.59523
1.10881
1.00489
1.00005
1
1
1
1
1
1
1
1
1
1
1
1
1
1
1
1
1
1
1
1
1
1
1
1
1
1
1.3724
1.03949
1.00085
1
1
1
1
1
1
1
1
1
1
1
1
1
1
1
1
1
1
1
1
1
1
1
1
1
1
1
1.13448
1.0087
1.00007
1
1
1
1
1
1
1
1
1
1
1
1
1
1
1
1
1
1
1
1
1
1
1
1
1
1
1
1
1
1
1
1
1
1
1
1
1
1
1
1
1
1
1
1
1
1
1
1
1
1
1
1
1
1
1
1
1
1
1
1
1
1
1
1
1
1
1
1
1
1
1
1
1
1
1
1
1
1
1
1
1
1
1
1
1
1
1
1
1
1
1
1
1
1
1
1
1
1
1
1
1
1
1
1
1
1
1
1
1
1
1
1
1
1
1
1
1
1
1
1
1
1
1
1
1
1
1
1
1
1
1
1
1
1
1
1
1
1
1
1
1
1
1
1
1
1
1
1
1
1
1
1
1
1
1
1
1
1
1
1
1
1
1
1
1
1
1
1
1
1
1
1
1
1
1
1
1
1
1
1
1
1
1
1
1
1
1
1
1
1
1
1
1
1
1
1
1
1
1
1
1
1
1
1
1
1
1
1
1
1
1
1
1
1
1
1
1
1
1
1
1
1
1
1
1
1
1
1
1
1
1
1
1
1
1
1
1
1
1
1
1
1
1
1
1
1
1
1
1
1
1
1
1
1
1
1
1
1
1
1
1
1
1
1
1
1
1
1
1
1
1
1
1
1
1
1
1
1
1
1
1
1
1
1
1
1
1
1
1
1
1
1
1
1
1
1
1
1
1
1
1
1
1
1
1
1
1
1
1
1
1
1
1
1
1
1
1
1
1
1
1
1
1
1
1
1
1
1
1
1
1
1
1
1
1
1
1
1
1
1
1
1
1
1
1
1
1
1
1
1
1
1
1
1
1
1
1
1
1
1
1
1
1
1
1
1
1
1
1
1
1
1
1
1
1
1
1
1
1
1
1
1
1
1
1
1
1
1
1
1
1
1
1
1
1
1
1
1
1
1
1
1
1
1
1
1
1
1
1
1
1
1
1
1
1
1
1
1
1
1
1
1
1
1
1
1
1
1
1
1
1
1
1
1
1
1
1
1
1
1
1
1
1
1
1
1
1
1
1
1
1
1
1
1
1
1
1
1
1
1
1
1
1
1
1
1
1
1
1
1
1
1
1
1
1
1
1
1
1
1
1
1
1
1
1
1
1
1
1
1
1
1
1
1
1
1
1
1
1
1
1
1
1
1
1
1
1
1
1
1
1
1
1
1
1
1
1
1
1
1
1
1
1
1
1
1
1
1
1
1
1
1
1
1
1
1
1
1
1
1
1
1
1
1
1
1
1
1
1
1
1
1
1
1
1
1
1
1
1
1
1
1
1
1
1
1
1
1
1
1
1
1
1
1
1
1
1
1
1
1
1
1
1
1
1
1
1
1
1
1
1
1
1
1
1
1
1
1
1
1
1
1
1
1
1
1
1
1
1
1
1
1
1
1
1
1
1
1
1
1
1
1
1
1
1
1
1
1
1
1
1
1
1
1
1
1
1
1
1
1
1
1
1
1
1
1
1
1
1
1
1
1
1
1
1
1
1
1
1
1
1
1
1
1
1
1
1
1
1
1
1
1
1
1
1
1
1
1
1
1
1
1
1
1
1
1
1
1
1
1
1
1
1
1
1
1
1
1
1
1
1
1
1
1
1
1
1
1
1
1
1
1
1
1
1
1
1
1
1
1
1
1
1
1
1
1
1
1
1
1
1
1
1
1
1
1
1
1
1
1
1
1
1
1
1
1
1
1
1
1
1
1
1
1
1
1
1
1
1
1
1
1
1
1
1
1
1
1
1
1
1
1
1
1
1
1
1
1
1
1
1
1
1
1
1
1
1
1
1
1
1
1
1
1
1
1
1
1
1
1
1
1
1
1
1
1
1
1
1
1
1
1
1
1
1
1
1
1
1
1
1
1
1
1
1
1
1
1
1
1
1
1
1
1
1
1
1
1
1
1
1
1
1
1
1
1
1
1
1
1
1
1
1
1
1
1
1
1
1
1
1
1
1
1
1
1
1
1
1
1
1
1
1
1
1
1
1
1
1
1
1
1
1
1
1
1
1
1
1
1
1
1
1
1
1
1
1
1
1
1
1
1
1
1
1
1
1
1
1
1
1
1
1
1
1
1
1
1
1
1
1
1
1
1
1
1
1
1
1
1
1
1
1
1
1
1
1
1
1
1
1
1
1
1
1
1
1
1
1
1
1
1
1
1
1
1
1
1
1
1
1
1
1
1
1
1
1
1
1
1
1
1
1
1
1
1
1
1
1
1
1
1
1
1
1
1
1
1
1
1
1
1
1
1
1
1
1
1
1
1
1
1
1
1
1
1
1
1
1
1
1
1
1
1
1
1
1
1
1
1
1
1
1
1
1
1
1
1
1
1
1
1
1
1
1
1
1
1
1
1
1
1
1
1
1
1
1
1
1
1
1
1
1
1
1
1
1
1
1
1
1
1
1
1
1
1
1
1
1
1
1
1
1
1
1
1
1
1
1
1
1
1
1
1
1
1
1
1
1
1
1
1
1
1
1
1
1
1
1
1
1
1
1
1
1
1
1
1
1
1
1
1
1
1
1
1
1
1
1
1
1
1
1
1
1
1
1
1
1
1
1
1
1
1
1
1
1
1
1
1
1
1
1
1
1
1
1
1
1
1
1
1
1
1
1
1
1
1
1
1
1
1
1
1
1
1
1
1
1
1
1
1
1
1
1
1
1
1
1
1
1
1
1
1
1
1
1
1
1
1
1
1
1
1
1
1
1
1
1
1
1
1
1
1
1
1
1
1
1
1
1
1
1
1
1
1
1
1
1
1
1
1
1
1
1
1
1
1
1
1
1
1
1
1
1
1
1
1
1
1
1
1
1
1
1
1
1
1
1
1
1
1
1
1
1
1
1
1
1
1
1
1
1
1
1
1
1
1
1
1
1
1
1
1
1
1
1
1
1
1
1
1
1
1
1
1
1
1
1
1
1
1
1
1
1
1
1
1
1
1
1
1
1
1
1
1
1
1
1
1
1
1
1
1
1
1
1
1
1
1
1
1
1
1
1
1
1
1
1
1
1
1
1
1
1
1
1
1
1
1
1
1
1
1
1
1
1
1
1
1
1
1
1
1
1
1
1
1
1
1
1
1
1
1
1
1
1
1
1
1
1
1
1
1
1
1
1
1
1
1
1
1
1
1
1
1
1
1
1
1
1
1
1
1
1
1
1
1
1
1
1
1
1
1
1
1
1
1
1
1
1
1
1
1
1
1
1
1
1
1
1
1
1
1
1
1
1
1
1
1
1
1
1
1
1
1
1
1
1
1
1
1
1
1
1
1
1
1
1
1
1
1
1
1
1
1
1
1
1
1
1
1
1
1
1
1
1
1
1
1
1
1
1
1
1
1
1
1
1
1
1
1
1
1
1
1
1
1
1
1
1
1
1
1
1
1
1
1
1
1
1
1
1
1
1
1
1
1
1
1
1
1
1
1
1
1
1
1
1
1
1
1
1
1
1
1
1
1
1
1
1
1
1
1
1
1
1
1
1
1
1
1
1
1
1
1
1
1
1
1
1
1
1
1
1
1
1
1
1
1
1
1
1
1
1
1
1
1
1
1
1
1
1
1
1
1
1
1
1
1
1
1
1
1
1
1
1
1
1
1
1
1
1
1
1
1
1
1
1
1
1
1
1
1
1
1
1
1
1
1
1
1
1
1
1
1
1
1
1
1
1
1
1
1
1
1
1
1
1
1
1
1
1
1
1
1
1
1
1
1
1
1
1
1
1
1
1
1
1
1
1
1
1
1
1
1
1
1
1
1
1
1
1
1
1
1
1
1
1
1
1
1
1
1
1
1
1
1
1
1
1
1
1
1
1
1
1
1
1
1
1
1
1
1
1
1
1
1
1
1
1
1
1
1
1
1
1
1
1
1
1
1
1
1
1
1
1
1
1
1
1
1
1
1
1
1
1
1
1
1
1
1
1
1
1
1
1
1
1
1
1
1
1
1
1
1
1
1
1
1
1
1
1
1
1
1
1
1
1
1
1
1
1
1
1
1
1
1
1
1
1
1
1
1
1
1
1
1
1
1
1
1
1
1
1
1
1
1
1
1
1
1
1
1
1
1
1
1
1
1
1
1
1
1
1
1
1
1
1
1
1
1
1
1
1
1
1
1
1
1
1
1
1
1
1
1
1
1.42117
1
1
1
1
1
1
1
1
1
1
1
1
1
1
1
1
1
1
1
1
1
1
1
1
1
1
1
1
1
2.36489
0.998517
1
1
1
1
1
1
1
1
1
1
1
1
1
1
1
1
1
1
1
1
1
1
1
1
1
1
1
1
3.60569
1.07684
1
1
1
1
1
1
1
1
1
1
1
1
1
1
1
1
1
1
1
1
1
1
1
1
1
1
1
1
5.21971
1.36405
1
1
1
1
1
1
1
1
1
1
1
1
1
1
1
1
1
1
1
1
1
1
1
1
1
1
1
1
6.88431
2.16756
0.9988
1
1
1
1
1
1
1
1
1
1
1
1
1
1
1
1
1
1
1
1
1
1
1
1
1
1
1
8.62067
3.84866
1.11455
0.999852
1
1
1
1
1
1
1
1
1
1
1
1
1
1
1
1
1
1
1
1
1
1
1
1
1
1
9.5088
6.34056
2.61037
1.00506
1
1
1
1
1
1
1
1
1
1
1
1
1
1
1
1
1
1
1
1
1
1
1
1
1
1
8.52819
6.66468
5.71351
1.78377
0.999269
1
1
1
1
1
1
1
1
1
1
1
1
1
1
1
1
1
1
1
1
1
1
1
1
1
7.04178
6.29871
6.91679
4.48221
1.24724
0.999681
1
1
1
1
1
1
1
1
1
1
1
1
1
1
1
1
1
1
1
1
1
1
1
1
6.15543
6.05816
6.71255
6.2986
2.66807
1.00932
1
1
1
1
1
1
1
1
1
1
1
1
1
1
1
1
1
1
1
1
1
1
1
1
5.79425
5.84719
6.37604
6.26662
4.82692
1.43881
0.999445
1
1
1
1
1
1
1
1
1
1
1
1
1
1
1
1
1
1
1
1
1
1
1
5.65934
5.75336
6.03363
5.9761
5.9742
2.95886
1.02968
1
1
1
1
1
1
1
1
1
1
1
1
1
1
1
1
1
1
1
1
1
1
1
5.59484
5.71518
5.75475
5.85588
6.09229
4.56777
1.42822
0.999459
1
1
1
1
1
1
1
1
1
1
1
1
1
1
1
1
1
1
1
1
1
1
5.57112
5.67164
5.64967
5.78595
6.02272
5.61111
2.57594
1.01266
1
1
1
1
1
1
1
1
1
1
1
1
1
1
1
1
1
1
1
1
1
1
5.5978
5.68151
5.67907
5.7609
5.92056
5.83107
4.25975
1.30966
0.999651
1
1
1
1
1
1
1
1
1
1
1
1
1
1
1
1
1
1
1
1
1
5.65007
5.72552
5.72971
5.73767
5.78447
5.7906
5.22315
2.22483
1.00122
1
1
1
1
1
1
1
1
1
1
1
1
1
1
1
1
1
1
1
1
1
5.71443
5.77817
5.76533
5.73518
5.69269
5.72191
5.59232
3.52993
1.12839
1
1
1
1
1
1
1
1
1
1
1
1
1
1
1
1
1
1
1
1
1
5.78338
5.82819
5.78641
5.7611
5.70518
5.70985
5.75046
4.78143
1.67197
0.99912
1
1
1
1
1
1
1
1
1
1
1
1
1
1
1
1
1
1
1
1
5.84651
5.88084
5.81512
5.79737
5.72891
5.74569
5.80353
5.53944
2.88626
1.03787
1
1
1
1
1
1
1
1
1
1
1
1
1
1
1
1
1
1
1
1
5.89263
5.90429
5.83708
5.82808
5.78709
5.77251
5.79635
5.60484
4.18122
1.34257
0.99972
1
1
1
1
1
1
1
1
1
1
1
1
1
1
1
1
1
1
1
5.9012
5.89973
5.8425
5.83032
5.80462
5.76921
5.75358
5.63056
4.95984
2.05541
1.00068
1
1
1
1
1
1
1
1
1
1
1
1
1
1
1
1
1
1
1
5.89473
5.87844
5.83408
5.81142
5.79402
5.75349
5.736
5.6695
5.4995
3.2112
1.07905
1
1
1
1
1
1
1
1
1
1
1
1
1
1
1
1
1
1
1
5.87121
5.84191
5.81381
5.79096
5.7795
5.73332
5.71075
5.67539
5.65452
4.50789
1.48865
0.999341
1
1
1
1
1
1
1
1
1
1
1
1
1
1
1
1
1
1
5.83439
5.7968
5.78594
5.76284
5.74995
5.70624
5.68361
5.64685
5.61749
4.98773
2.28181
1.00749
1
1
1
1
1
1
1
1
1
1
1
1
1
1
1
1
1
1
5.78879
5.74661
5.7473
5.72225
5.71089
5.67211
5.65469
5.61724
5.57988
5.30771
3.19818
1.09111
1
1
1
1
1
1
1
1
1
1
1
1
1
1
1
1
1
1
5.73775
5.69473
5.70199
5.67243
5.6644
5.6297
5.61754
5.58309
5.57289
5.50079
4.37973
1.44817
0.999389
1
1
1
1
1
1
1
1
1
1
1
1
1
1
1
1
1
5.68424
5.64354
5.65424
5.61722
5.61283
5.58201
5.57352
5.54338
5.53465
5.51612
4.86003
2.16852
1.00556
1
1
1
1
1
1
1
1
1
1
1
1
1
1
1
1
1
5.63056
5.59377
5.60485
5.56046
5.55976
5.53485
5.53038
5.50236
5.49206
5.47665
5.08007
2.92964
1.06215
1
1
1
1
1
1
1
1
1
1
1
1
1
1
1
1
1
5.58088
5.54664
5.55591
5.50797
5.50971
5.48996
5.4874
5.45833
5.44856
5.42516
5.28184
3.90935
1.28606
0.99998
1
1
1
1
1
1
1
1
1
1
1
1
1
1
1
1
5.53808
5.50254
5.50796
5.46044
5.46337
5.44419
5.44133
5.41156
5.39301
5.40021
5.34315
4.56337
1.80887
1.00013
1
1
1
1
1
1
1
1
1
1
1
1
1
1
1
1
5.49811
5.46046
5.46191
5.41826
5.42008
5.39815
5.39512
5.36285
5.33544
5.35019
5.34717
4.77789
2.42864
1.01931
1
1
1
1
1
1
1
1
1
1
1
1
1
1
1
1
5.4582
5.42114
5.41993
5.37868
5.37941
5.35315
5.34961
5.31962
5.29377
5.30972
5.30409
5.01886
3.23547
1.11347
1
1
1
1
1
1
1
1
1
1
1
1
1
1
1
1
5.41842
5.38504
5.38197
5.34266
5.34402
5.31563
5.3125
5.28743
5.25905
5.26533
5.27652
5.16441
3.96229
1.39598
0.999784
1
1
1
1
1
1
1
1
1
1
1
1
1
1
1
5.38014
5.35182
5.34854
5.31476
5.31622
5.28731
5.28352
5.26017
5.22731
5.2112
5.23955
5.18678
4.30327
1.80957
1.00107
1
1
1
1
1
1
1
1
1
1
1
1
1
1
1
5.3491
5.3223
5.32222
5.2901
5.29017
5.26255
5.25791
5.23691
5.20256
5.16852
5.19906
5.188
4.7375
2.4197
1.02022
1
1
1
1
1
1
1
1
1
1
1
1
1
1
1
5.32527
5.29821
5.29853
5.26798
5.26508
5.23934
5.23178
5.21899
5.18647
5.13901
5.15585
5.14645
4.95968
3.10777
1.11159
1
1
1
1
1
1
1
1
1
1
1
1
1
1
1
5.30119
5.27625
5.27778
5.24969
5.24323
5.21995
5.20294
5.20386
5.17627
5.11827
5.11365
5.10951
5.02522
3.5872
1.29489
1
1
1
1
1
1
1
1
1
1
1
1
1
1
1
5.27722
5.25497
5.25847
5.23342
5.22441
5.20363
5.17518
5.18736
5.17276
5.10732
5.08365
5.08114
5.05823
4.21973
1.63049
0.999837
1
1
1
1
1
1
1
1
1
1
1
1
1
1
5.25095
5.23205
5.23529
5.21168
5.20237
5.18306
5.15191
5.1636
5.16012
5.10608
5.06758
5.05465
5.02693
4.53524
2.21468
1.02334
1
1
1
1
1
1
1
1
1
1
1
1
1
1
5.22711
5.2137
5.21902
5.19626
5.19045
5.16944
5.13485
5.14747
5.15179
5.10328
5.05826
5.02839
4.99188
4.6693
2.4751
0.983851
1
1
1
1
1
1
1
1
1
1
1
1
1
1
2.53392
3.86437
4.55518
4.90048
5.05469
5.1244
5.11808
5.10862
5.13122
5.12167
5.06894
5.04647
5.00642
4.91494
3.67355
1.41514
1.00912
1.00005
1
1
1
1
1
1
1
1
1
1
1
1
0.919653
2.40154
3.41739
4.13083
4.56645
4.86015
5.00411
5.03905
5.06664
5.1045
5.08018
5.06957
5.03068
4.96149
4.31756
2.23014
1.08713
1.00098
1
1
1
1
1
1
1
1
1
1
1
1
0.34124
1.48788
2.46891
3.17146
3.84934
4.30967
4.66076
4.85775
4.95373
5.02086
5.05341
5.06896
5.05983
5.0089
4.82169
3.24061
1.36538
1.01001
1.00007
1
1
1
1
1
1
1
1
1
1
1
0.161545
0.893018
1.76113
2.45649
3.09722
3.64962
4.14026
4.47597
4.73111
4.8756
4.96019
5.02281
5.05762
5.02105
5.06307
4.35791
2.06214
1.06693
1.00077
1
1
1
1
1
1
1
1
1
1
1
0.161709
0.615723
1.14719
1.86402
2.42422
3.05691
3.52299
4.00062
4.35157
4.62533
4.79823
4.92511
5.01462
5.01612
5.06779
4.65375
3.14264