/*--------------------------------*- C++ -*----------------------------------*\
  =========                 |
  \\      /  F ield         | OpenFOAM: The Open Source CFD Toolbox
   \\    /   O peration     | Website:  https://openfoam.org
    \\  /    A nd           | Version:  7
     \\/     M anipulation  |
\*---------------------------------------------------------------------------*/
FoamFile
{
    version     2.0;
    format      ascii;
    class       volScalarField;
    location    "9.5";
    object      p;
}
// * * * * * * * * * * * * * * * * * * * * * * * * * * * * * * * * * * * * * //

dimensions      [1 -1 -2 0 0 0 0];

internalField   nonuniform List<scalar> 
90000
(
0.12061
0.150733
0.183029
0.209134
0.233463
0.260196
0.283681
0.302661
0.323486
0.345418
0.365916
0.385553
0.406842
0.429023
0.45179
0.475077
0.499756
0.525176
0.552125
0.579775
0.609352
0.639236
0.67168
0.70405
0.73837
0.771589
0.806734
0.840174
0.876555
0.908632
0.940313
0.961053
0.968779
0.969081
0.968748
0.964751
0.959723
0.950762
0.94267
0.935919
0.930227
0.922491
0.917037
0.909564
0.905483
0.900372
0.893903
0.883958
0.872311
0.86141
0.861131
0.867584
0.879875
0.890851
0.906324
0.924665
0.940715
0.95295
0.963825
0.960746
0.947608
0.926704
0.90754
0.894172
0.88658
0.885731
0.893151
0.905968
0.923386
0.93642
0.943752
0.936938
0.924146
0.911098
0.902822
0.90306
0.911932
0.924101
0.938016
0.935635
0.925254
0.9138
0.90871
0.909941
0.918432
0.926178
0.922467
0.916376
0.911042
0.911378
0.916518
0.918622
0.918829
0.917958
0.918375
0.922498
0.927582
0.931306
0.933364
0.936758
0.0955883
0.0955471
0.0955034
0.0954576
0.0954107
0.0953635
0.0953159
0.0952755
0.0952386
0.0952099
0.0951795
0.0951592
0.0950896
0.0952649
0.0958134
0.0972131
0.0994917
0.103369
0.108517
0.116135
0.125432
0.138419
0.153585
0.17391
0.196212
0.224804
0.256192
0.294785
0.337347
0.389625
0.444686
0.507332
0.567252
0.622106
0.675352
0.720526
0.764348
0.796093
0.828921
0.849153
0.872386
0.87967
0.889313
0.889109
0.89098
0.88795
0.887365
0.885845
0.89102
0.901228
0.918012
0.926081
0.926881
0.929457
0.936781
0.939176
0.937054
0.931548
0.918939
0.905944
0.896936
0.896484
0.899209
0.904914
0.911454
0.91323
0.918552
0.924679
0.931652
0.930258
0.925622
0.915657
0.911245
0.908849
0.913706
0.918419
0.926119
0.933863
0.931487
0.922447
0.913015
0.909809
0.911725
0.919627
0.925944
0.923513
0.917686
0.912364
0.911474
0.914962
0.919547
0.920497
0.920034
0.918271
0.920207
0.925156
0.931377
0.935852
0.936245
0.937591
0.0955475
0.0955479
0.095545
0.0955371
0.0955309
0.0955274
0.0955334
0.0955444
0.0955505
0.0955586
0.0955661
0.0955705
0.0955816
0.0955896
0.0955901
0.095615
0.095585
0.0955497
0.0955249
0.0955049
0.0954847
0.095467
0.0954656
0.0954719
0.0954793
0.095486
0.0955072
0.0955159
0.0955216
0.0954875
0.0962605
0.100804
0.109063
0.125542
0.14652
0.179154
0.215593
0.264866
0.31592
0.379504
0.443284
0.511363
0.57879
0.642451
0.706965
0.760795
0.81998
0.864549
0.91841
0.940435
0.960725
0.962072
0.960517
0.956451
0.95051
0.93675
0.915166
0.888078
0.856614
0.85442
0.862181
0.875473
0.891739
0.906398
0.922444
0.936162
0.944122
0.941454
0.930343
0.916174
0.901885
0.893956
0.89945
0.911112
0.928181
0.938235
0.937768
0.929857
0.918087
0.909703
0.908184
0.911104
0.917348
0.924015
0.923398
0.918383
0.91265
0.911028
0.913875
0.918866
0.921341
0.917689
0.91554
0.917844
0.92287
0.930564
0.935324
0.933919
0.933354
0.938287
0.0957121
0.0956987
0.0956787
0.0956565
0.0956352
0.0956174
0.0956101
0.0956044
0.0955944
0.095585
0.0955696
0.0955495
0.0955379
0.0955289
0.0955208
0.0955147
0.0955134
0.0955159
0.0955237
0.0955334
0.0955389
0.0955485
0.0955671
0.0955771
0.0955826
0.0955935
0.0955979
0.0955903
0.0955782
0.095558
0.0955374
0.0955086
0.0954828
0.0954657
0.095454
0.0954519
0.0954544
0.0954603
0.0954463
0.0954119
0.0967027
0.104534
0.117658
0.14498
0.178049
0.230551
0.287855
0.366161
0.445101
0.529402
0.613647
0.677319
0.745541
0.782345
0.823482
0.836666
0.855321
0.853194
0.864201
0.876194
0.899544
0.912072
0.924185
0.933727
0.937454
0.944311
0.941797
0.925921
0.905429
0.903605
0.905784
0.907035
0.913227
0.920604
0.929096
0.935745
0.930922
0.919746
0.906984
0.90452
0.909838
0.919871
0.926944
0.924256
0.919072
0.912913
0.911154
0.910195
0.917655
0.922766
0.922415
0.919015
0.91827
0.922981
0.929879
0.933664
0.93443
0.934435
0.936032
0.941943
0.0954477
0.0954311
0.0954158
0.0954092
0.0954065
0.0953983
0.0953909
0.0953859
0.0953833
0.0953819
0.0953766
0.0953695
0.0953666
0.0953679
0.0953682
0.0953719
0.0953815
0.0953973
0.0954116
0.09542
0.0954305
0.0954495
0.0954707
0.0954872
0.095505
0.095517
0.0955239
0.0955245
0.0955158
0.0954951
0.0954749
0.0954561
0.0954384
0.0954251
0.0954423
0.0954799
0.095516
0.0955282
0.0955037
0.0954622
0.0954537
0.0954588
0.0954614
0.0954654
0.0954717
0.0954639
0.0954414
0.0954369
0.0971579
0.11017
0.132179
0.177819
0.233208
0.317109
0.409439
0.513155
0.629483
0.730043
0.834372
0.872221
0.903814
0.913721
0.926309
0.933293
0.934355
0.92603
0.903076
0.871689
0.876834
0.890558
0.906438
0.928873
0.94257
0.942121
0.937403
0.92472
0.906619
0.901831
0.904821
0.907381
0.91582
0.9237
0.925416
0.920672
0.910575
0.90636
0.911216
0.920625
0.921536
0.918061
0.915329
0.91552
0.91928
0.925444
0.93187
0.934952
0.933846
0.934847
0.93742
0.943879
0.095375
0.0953749
0.0953756
0.0953739
0.0953711
0.0953706
0.0953709
0.0953712
0.0953736
0.0953794
0.0953855
0.0953881
0.0953884
0.0953894
0.0953924
0.0953994
0.0954148
0.0954294
0.0954375
0.0954453
0.0954569
0.0954717
0.0954952
0.0955086
0.0955148
0.0955189
0.095522
0.0955241
0.09552
0.0955076
0.0954946
0.0954702
0.0954553
0.0954926
0.0956247
0.0956972
0.0957236
0.0957354
0.0957067
0.0956575
0.0956429
0.095636
0.0956354
0.0956384
0.0956336
0.0956064
0.0955662
0.0955597
0.0955705
0.0956017
0.0956112
0.0955924
0.0955546
0.0955331
0.0956631
0.108293
0.13443
0.200001
0.284206
0.403944
0.517444
0.613715
0.70836
0.757758
0.817786
0.830494
0.845635
0.863092
0.903713
0.925292
0.944137
0.952491
0.951787
0.947827
0.923232
0.900217
0.893604
0.895889
0.903739
0.920067
0.933482
0.931131
0.921823
0.908271
0.905907
0.906544
0.912752
0.925694
0.925108
0.919555
0.915892
0.918754
0.926042
0.932654
0.934496
0.934886
0.934948
0.935177
0.939633
0.947093
0.0955458
0.0955431
0.0955419
0.0955421
0.0955429
0.0955444
0.0955449
0.095541
0.0955332
0.0955294
0.0955325
0.0955381
0.095542
0.0955449
0.0955457
0.0955478
0.0955537
0.0955595
0.095558
0.095545
0.0955285
0.0955233
0.0955272
0.0955259
0.0955262
0.0955437
0.0955658
0.0955794
0.0955876
0.0955939
0.0955884
0.0955535
0.0955467
0.0956128
0.0957346
0.0957663
0.095769
0.0957776
0.0957968
0.095802
0.0957836
0.0957318
0.0957184
0.0957231
0.0957215
0.0956909
0.0956382
0.0956209
0.0956144
0.0956037
0.0955756
0.0955032
0.0954445
0.0954557
0.0954949
0.0955531
0.0955578
0.0955617
0.0955538
0.0976283
0.108124
0.150738
0.210718
0.313307
0.435567
0.570633
0.725629
0.827496
0.895201
0.909274
0.930378
0.938244
0.935344
0.916919
0.884494
0.886001
0.893332
0.911939
0.926631
0.93481
0.933822
0.919866
0.901272
0.899715
0.902836
0.916742
0.925756
0.924799
0.919606
0.914745
0.915712
0.921261
0.9291
0.934828
0.935147
0.934194
0.934137
0.938277
0.942461
0.94898
0.0955487
0.0955391
0.0955407
0.0955628
0.0955793
0.0955877
0.0955935
0.0955983
0.0956045
0.0956065
0.0956005
0.0955977
0.0956007
0.0956046
0.0956049
0.095604
0.0956027
0.0955994
0.0955874
0.095571
0.0955682
0.0955781
0.0955969
0.0956039
0.0956012
0.0956114
0.0956369
0.0956487
0.0956517
0.0956489
0.0956143
0.095577
0.0955961
0.0957345
0.095812
0.0958158
0.095809
0.095787
0.0957637
0.0957474
0.0957277
0.0956929
0.0956737
0.0956775
0.0956798
0.0956673
0.0956243
0.0956033
0.0956
0.0955725
0.0954746
0.0953651
0.0953508
0.0953901
0.095452
0.0954507
0.0954417
0.0954765
0.0955132
0.0954776
0.095466
0.0955192
0.0956565
0.0956677
0.0973682
0.125509
0.183991
0.30703
0.446293
0.576756
0.702161
0.767132
0.837863
0.843346
0.873771
0.895668
0.93077
0.945001
0.943527
0.940168
0.91566
0.895771
0.894025
0.898825
0.915849
0.932616
0.931027
0.919775
0.911374
0.912503
0.921208
0.933535
0.936177
0.93586
0.933973
0.933718
0.9364
0.939468
0.946461
0.951445
0.0955788
0.095575
0.0955994
0.0956944
0.0957271
0.0957296
0.095726
0.0957223
0.0957231
0.0957201
0.0957065
0.0956928
0.0956843
0.0956806
0.0956803
0.0956763
0.0956614
0.0956645
0.0956808
0.0956852
0.0956745
0.0956661
0.0956709
0.0956771
0.0956711
0.095656
0.0956624
0.0956708
0.0956725
0.095651
0.0955912
0.0955814
0.095617
0.0957574
0.0958114
0.0958102
0.0957914
0.0957402
0.095675
0.0956195
0.0955677
0.0955098
0.0954771
0.0954745
0.0954824
0.0954797
0.0954826
0.0954877
0.0954711
0.0953925
0.0953124
0.095264
0.0952423
0.0952653
0.095288
0.095299
0.09534
0.0954176
0.0954768
0.0955021
0.0955235
0.0956061
0.095681
0.095679
0.0956036
0.0955558
0.095558
0.0955328
0.098115
0.135551
0.201492
0.328133
0.49675
0.661187
0.83484
0.887444
0.92706
0.938476
0.937721
0.917225
0.873782
0.880797
0.900271
0.923127
0.9339
0.933672
0.922713
0.905077
0.907319
0.918707
0.93278
0.938241
0.93726
0.934244
0.933196
0.933689
0.937859
0.944686
0.94821
0.952686
0.0955037
0.0955328
0.0956266
0.0957473
0.0957618
0.0957597
0.0957463
0.0957358
0.095733
0.0957306
0.095718
0.0956905
0.095672
0.0956708
0.0956699
0.0956702
0.0956929
0.0957577
0.0957697
0.0957607
0.0957251
0.0956634
0.09563
0.095618
0.0956086
0.0955871
0.0955756
0.0955884
0.095598
0.0955803
0.0955213
0.0955135
0.0955817
0.0956126
0.0956068
0.0955939
0.0955629
0.0955071
0.0954306
0.0953538
0.0953012
0.0952738
0.0952592
0.0952551
0.0952641
0.0952914
0.0953504
0.0953787
0.0953675
0.0952788
0.0952143
0.0951866
0.0951552
0.0951493
0.0951658
0.0952179
0.0953294
0.0954327
0.095491
0.0955074
0.0955353
0.0956257
0.0956545
0.0956116
0.0954919
0.0954055
0.0953318
0.0950196
0.0945055
0.0940788
0.0936933
0.0931345
0.100783
0.165381
0.280774
0.461912
0.634988
0.736391
0.834612
0.841793
0.870627
0.90407
0.938237
0.94325
0.941015
0.919153
0.901102
0.901974
0.918403
0.937564
0.940736
0.93928
0.934953
0.932202
0.932593
0.93662
0.945105
0.950394
0.950931
0.952962
0.0956986
0.0958532
0.0958654
0.0958649
0.0958638
0.0958508
0.0958451
0.0958462
0.0958399
0.0958047
0.0957679
0.0957465
0.0957296
0.0957211
0.0957165
0.0957152
0.0957304
0.0957805
0.0957892
0.0957627
0.0956543
0.0955648
0.0955595
0.0955712
0.0955734
0.0955544
0.0955442
0.0955641
0.095569
0.0955374
0.0954616
0.0954205
0.0953896
0.0953583
0.0953449
0.0953343
0.0953113
0.0952698
0.0952164
0.0951697
0.0951422
0.0951188
0.0950828
0.0950674
0.0950848
0.095134
0.0952388
0.0953304
0.0953384
0.0952636
0.0951335
0.0951172
0.0951168
0.0950937
0.0951009
0.0951608
0.0952858
0.0954116
0.0954691
0.0954878
0.0955223
0.095579
0.0955376
0.0952872
0.094776
0.0943227
0.0938982
0.0935402
0.0931905
0.0928183
0.0924461
0.0921516
0.0920194
0.0919224
0.0917697
0.104012
0.147433
0.269522
0.452905
0.653325
0.846538
0.906679
0.939214
0.941789
0.924647
0.877719
0.887276
0.91817
0.940807
0.942225
0.940406
0.933476
0.93231
0.931765
0.935617
0.943618
0.948389
0.951436
0.951627
0.955128
0.0958629
0.0958623
0.0958569
0.0958516
0.0958499
0.095834
0.0958095
0.0958048
0.0957927
0.095755
0.0957129
0.0956858
0.0956677
0.0956485
0.0956136
0.0955749
0.0955633
0.0955606
0.0955354
0.0954284
0.0953305
0.0953101
0.0953021
0.0952794
0.0952521
0.0952617
0.0952832
0.0952828
0.0952512
0.0951265
0.0950481
0.0950384
0.0950195
0.0949957
0.0949967
0.0950185
0.0950536
0.0950861
0.0950916
0.0950833
0.0950588
0.0950057
0.0949195
0.0948697
0.0948739
0.0949242
0.0951154
0.0953277
0.0953444
0.0952749
0.0951774
0.0951768
0.0951882
0.095142
0.0951297
0.0951785
0.0952323
0.0952849
0.095291
0.0952349
0.0951293
0.0948743
0.0944239
0.0937656
0.0932185
0.0927918
0.0924862
0.0922637
0.0919991
0.0916814
0.0914901
0.0914282
0.0913616
0.0914514
0.0915936
0.0917037
0.0916287
0.0912722
0.0954929
0.1593
0.303952
0.508497
0.690427
0.797659
0.85179
0.864183
0.923858
0.964524
0.954814
0.943266
0.932465
0.927827
0.929615
0.936836
0.94487
0.951033
0.949447
0.95
0.951518
0.957913
0.0955035
0.0954723
0.0954062
0.0953957
0.095451
0.0955215
0.0955283
0.0955198
0.0954633
0.0953863
0.095337
0.095305
0.0952832
0.095271
0.0952588
0.0952386
0.0952208
0.0951999
0.0951727
0.0951231
0.0950495
0.0950009
0.0949687
0.0949169
0.0948984
0.0949183
0.0949901
0.0950093
0.0950041
0.0949326
0.0947785
0.094738
0.094735
0.0947391
0.0947619
0.0948094
0.0948797
0.0949763
0.0950316
0.0950258
0.0949839
0.0948575
0.0946876
0.0946189
0.0946233
0.0947094
0.0950241
0.095275
0.0952801
0.0951905
0.0951167
0.0951382
0.0951757
0.0951425
0.0950442
0.0949473
0.094647
0.094101
0.0935376
0.0931956
0.0929452
0.0926862
0.0922879
0.0919527
0.0918148
0.0917103
0.0916012
0.0914333
0.0912185
0.0910524
0.0910858
0.0910773
0.0911103
0.0914166
0.091857
0.0918879
0.0916285
0.0912191
0.0912485
0.0919793
0.093209
0.113383
0.195028
0.368219
0.617963
0.815505
0.915543
0.942547
0.94295
0.917614
0.920152
0.927328
0.940516
0.944418
0.949265
0.95
0.949285
0.951211
0.956419
0.961919
0.0948042
0.0947768
0.0947656
0.0947666
0.0948272
0.0949692
0.094989
0.0949837
0.0949676
0.094979
0.0950178
0.0950587
0.0950965
0.0951259
0.0951314
0.095131
0.0951273
0.0951251
0.0951136
0.0950798
0.0950172
0.0949662
0.0949442
0.0949042
0.0948486
0.0948485
0.0948928
0.0949419
0.09495
0.0949086
0.094727
0.0946502
0.0946485
0.0946708
0.0947311
0.0947911
0.0948452
0.0949219
0.0949721
0.0949592
0.0948766
0.0946422
0.0942315
0.0939902
0.093976
0.0940655
0.0943344
0.0944664
0.0944421
0.0943125
0.0940569
0.093935
0.0939849
0.0939903
0.093851
0.0933506
0.0926766
0.0921871
0.0919447
0.0917845
0.0916238
0.0914268
0.0911792
0.0910895
0.0910916
0.0910877
0.0910573
0.0909996
0.0909234
0.0909311
0.0910769
0.0913377
0.0913942
0.0916222
0.0920165
0.0919088
0.0917242
0.0927104
0.0943602
0.0965982
0.0993402
0.099371
0.0994031
0.0996633
0.136339
0.30742
0.519386
0.685921
0.844499
0.861327
0.932314
0.945521
0.959725
0.948157
0.94774
0.946521
0.949902
0.955632
0.961573
0.96282
0.0949156
0.0949371
0.0949366
0.0949151
0.094832
0.0947911
0.0947879
0.0947957
0.0948576
0.0950472
0.095231
0.0952923
0.0953037
0.0953052
0.0953056
0.0952993
0.0952702
0.0952361
0.0952179
0.095197
0.0951522
0.0950727
0.0950093
0.0949482
0.0948167
0.0945527
0.0944436
0.094487
0.094527
0.0945145
0.0943707
0.0940311
0.0939188
0.0939237
0.0939693
0.0939419
0.0939021
0.093914
0.0940348
0.0941233
0.0941458
0.093945
0.0931659
0.0925582
0.0925098
0.0924793
0.092423
0.0924637
0.0925067
0.0924981
0.0924142
0.0922208
0.0919852
0.0917989
0.0916916
0.0915828
0.0914446
0.091368
0.0913489
0.0912767
0.0910935
0.0908674
0.0907346
0.0907384
0.0908074
0.0908672
0.0908829
0.0909175
0.0910626
0.0914718
0.0921723
0.0931487
0.0934161
0.0928005
0.0927676
0.0934949
0.0955348
0.0986337
0.101097
0.101632
0.101985
0.102875
0.104484
0.106151
0.107442
0.108591
0.125191
0.225859
0.434698
0.680752
0.870141
0.895854
0.936473
0.945013
0.962195
0.954452
0.955819
0.959383
0.960983
0.963783
0.0947316
0.0947189
0.09469
0.0946267
0.0945425
0.0944895
0.0944485
0.094382
0.0942487
0.09413
0.0941026
0.0940961
0.0940968
0.0941005
0.0940937
0.0940545
0.0939671
0.0938342
0.0936898
0.0935311
0.0933578
0.0931586
0.0930013
0.092859
0.0925405
0.092137
0.0920635
0.0921279
0.0922377
0.092246
0.0921678
0.0919107
0.0917227
0.0917118
0.0917594
0.0917772
0.0917657
0.0917729
0.0919254
0.0921809
0.092248
0.0922175
0.091948
0.0915449
0.0914311
0.0914088
0.091408
0.0915051
0.0916325
0.0916578
0.0916445
0.0915291
0.0913005
0.0910269
0.0907729
0.090724
0.09078
0.0909295
0.0909924
0.0909756
0.0908203
0.0906575
0.0906412
0.0906801
0.0909256
0.091241
0.091624
0.0923341
0.0932007
0.094216
0.0949464
0.0957929
0.0971076
0.0978329
0.0983728
0.099308
0.100573
0.102391
0.105155
0.106097
0.106142
0.107427
0.110033
0.112429
0.114255
0.115841
0.117185
0.118254
0.121672
0.205125
0.38698
0.610403
0.845553
0.88865
0.939722
0.950666
0.969628
0.966191
0.960076
0.962681
0.0914748
0.0913918
0.0913175
0.0912646
0.0912375
0.0912376
0.0912456
0.0912345
0.0910828
0.0908818
0.0907672
0.0906613
0.0905988
0.0906105
0.090685
0.0908664
0.0910895
0.0911787
0.0911988
0.0911987
0.0911447
0.0909843
0.0909491
0.0910143
0.0910283
0.0909265
0.0908702
0.0909277
0.0911773
0.091282
0.0912581
0.0911621
0.0910835
0.0910806
0.0912163
0.091411
0.0914211
0.0914014
0.0914444
0.0915693
0.0916114
0.0915846
0.0914231
0.0911227
0.0909967
0.0909833
0.0910057
0.0911124
0.0911475
0.0911452
0.0911168
0.0910177
0.0908951
0.0907101
0.0905128
0.0904877
0.0905787
0.0908715
0.0910194
0.0910374
0.0909962
0.0910788
0.09153
0.092419
0.0938042
0.0953408
0.0968626
0.097922
0.0988751
0.0994441
0.0995966
0.0997686
0.100572
0.102242
0.104153
0.106185
0.107979
0.108226
0.109417
0.112477
0.114005
0.114263
0.114778
0.116644
0.11972
0.121451
0.1228
0.12484
0.126383
0.127709
0.128623
0.197474
0.354081
0.588029
0.842271
0.892986
0.940433
0.966107
0.967216
0.969854
0.0889898
0.0890104
0.0890516
0.0891211
0.0891321
0.0891267
0.0892002
0.0894766
0.0895406
0.0895364
0.0894672
0.0894411
0.0894501
0.08949
0.0895838
0.0897774
0.0901518
0.0904099
0.0904852
0.0905168
0.0905027
0.0904562
0.0904596
0.0906312
0.0908606
0.090797
0.0906707
0.0907013
0.091014
0.0912178
0.0912231
0.091142
0.0909996
0.0909897
0.0911319
0.0913342
0.0913424
0.0912902
0.0913146
0.091368
0.0913783
0.0913519
0.0911968
0.0909547
0.0908659
0.090857
0.0909134
0.0910256
0.0910703
0.0910576
0.0910031
0.0909287
0.09089
0.090795
0.0907141
0.0907907
0.0911945
0.0921822
0.093597
0.095094
0.0963697
0.097533
0.0988707
0.100347
0.101255
0.101932
0.102708
0.103276
0.103603
0.103562
0.103677
0.104239
0.105851
0.108517
0.111097
0.113232
0.115719
0.11691
0.116642
0.117068
0.118477
0.120096
0.121616
0.124063
0.126756
0.128155
0.128373
0.129361
0.132359
0.135448
0.136652
0.137223
0.138057
0.193912
0.337328
0.579887
0.838732
0.908832
0.942541
0.978277
0.0909429
0.0909993
0.0910649
0.0911239
0.0911654
0.091219
0.0913878
0.0917162
0.0917883
0.0918006
0.0918018
0.091752
0.0915173
0.0911975
0.0911327
0.0911394
0.0913121
0.0915314
0.0915441
0.0914624
0.0914195
0.0914511
0.0916939
0.0921605
0.0922645
0.092143
0.0919683
0.0919701
0.0921825
0.0923046
0.0922707
0.0920025
0.091653
0.0916642
0.0919157
0.092007
0.0919734
0.0918376
0.0915771
0.0915531
0.091751
0.0920264
0.0919883
0.0918135
0.0918024
0.0920572
0.0921882
0.0921402
0.0921769
0.0923678
0.0928643
0.0937455
0.0949789
0.0964252
0.0977166
0.0989287
0.100185
0.101604
0.10317
0.104543
0.105374
0.105799
0.106027
0.106241
0.106157
0.105946
0.105864
0.106249
0.107156
0.108717
0.110981
0.113744
0.116121
0.118562
0.120384
0.120628
0.121045
0.122033
0.122281
0.122615
0.124057
0.127106
0.130395
0.132393
0.132692
0.133262
0.134211
0.135778
0.138845
0.142243
0.142636
0.142891
0.144661
0.147295
0.148148
0.200106
0.335526
0.575373
0.835468
0.937223
0.0926972
0.0927018
0.0926862
0.0925591
0.0922947
0.0921931
0.0922208
0.0924821
0.0931957
0.093717
0.0937328
0.0935612
0.093007
0.0922988
0.0920951
0.0920197
0.0919461
0.0919425
0.0919289
0.0916884
0.0915506
0.0916501
0.0922241
0.0924916
0.0925164
0.0926299
0.0929116
0.0929102
0.0927166
0.0926725
0.0925535
0.092195
0.0920856
0.0921955
0.0925895
0.0930925
0.0934935
0.0934874
0.0933618
0.0933787
0.0935951
0.09427
0.0956333
0.0974419
0.0990592
0.100208
0.101243
0.102402
0.103469
0.104393
0.105236
0.106014
0.106753
0.107402
0.108023
0.108596
0.108785
0.108712
0.108663
0.108766
0.109155
0.109421
0.109296
0.109253
0.109657
0.110707
0.112406
0.114875
0.118045
0.121189
0.123616
0.125404
0.125662
0.12577
0.125838
0.125577
0.125501
0.126084
0.128183
0.131048
0.13406
0.135692
0.137387
0.137399
0.137675
0.139237
0.142396
0.145045
0.146249
0.147726
0.149143
0.149956
0.151151
0.153815
0.156543
0.156481
0.156897
0.205076
0.339831
0.70297
0.094233
0.0942119
0.0941789
0.0940937
0.0940934
0.0941744
0.0943379
0.0951285
0.0971136
0.0977276
0.0974726
0.0961348
0.0957589
0.0957842
0.0959337
0.0962883
0.096914
0.09769
0.0979168
0.0978565
0.0978221
0.0980266
0.0989445
0.0996705
0.0997393
0.0997745
0.0999758
0.100602
0.101732
0.103094
0.104251
0.104999
0.105396
0.105699
0.106048
0.106413
0.1069
0.107451
0.107794
0.108068
0.10831
0.108623
0.109227
0.110175
0.111013
0.111344
0.111536
0.111719
0.111818
0.111907
0.112203
0.112619
0.112662
0.112517
0.112501
0.112568
0.112508
0.112283
0.112346
0.112822
0.114058
0.116076
0.118399
0.120916
0.123378
0.125976
0.128386
0.130059
0.13051
0.130534
0.130861
0.130912
0.130612
0.129691
0.129727
0.130743
0.133258
0.136424
0.139623
0.141698
0.143643
0.143833
0.143712
0.144048
0.145357
0.14772
0.150819
0.153036
0.15278
0.152658
0.153994
0.157378
0.159665
0.160979
0.163396
0.164382
0.165045
0.167025
0.168437
0.302758
0.108195
0.108521
0.109066
0.109543
0.109584
0.109403
0.108885
0.108748
0.108717
0.108793
0.109186
0.109564
0.109795
0.110118
0.110572
0.110741
0.11082
0.110982
0.111223
0.111573
0.111956
0.112009
0.111933
0.1119
0.11193
0.112202
0.112861
0.113462
0.11358
0.113581
0.113572
0.113587
0.113575
0.113577
0.113601
0.113615
0.113709
0.114074
0.114783
0.115522
0.115735
0.115585
0.115479
0.115473
0.115436
0.115459
0.115747
0.116101
0.116102
0.116208
0.116779
0.11777
0.118421
0.118975
0.119954
0.121646
0.123905
0.126258
0.128444
0.130315
0.131901
0.133242
0.134307
0.135074
0.135266
0.135516
0.136077
0.136131
0.135713
0.134734
0.134286
0.134602
0.135664
0.13802
0.141112
0.1444
0.147074
0.148637
0.150004
0.149963
0.149531
0.149467
0.150289
0.152203
0.155014
0.157042
0.158333
0.159807
0.161077
0.161564
0.162362
0.165214
0.168473
0.168945
0.169511
0.171047
0.172835
0.175
0.176846
0.178269
0.118502
0.118521
0.11851
0.118558
0.11851
0.118124
0.117969
0.117955
0.117932
0.118011
0.118211
0.118833
0.119251
0.119202
0.119183
0.119369
0.11966
0.119806
0.119973
0.120213
0.120514
0.120673
0.120704
0.120701
0.120755
0.121078
0.121157
0.121215
0.121529
0.121777
0.121779
0.121862
0.122248
0.123115
0.123496
0.123649
0.124009
0.12411
0.124104
0.124418
0.125299
0.126039
0.126502
0.127107
0.128171
0.129619
0.131011
0.13204
0.132963
0.133948
0.134995
0.136141
0.137051
0.137717
0.138264
0.138776
0.13918
0.139495
0.140053
0.140693
0.140993
0.14112
0.141121
0.140901
0.140112
0.139523
0.139659
0.140193
0.14108
0.142728
0.145037
0.147858
0.151056
0.153449
0.154856
0.156057
0.156007
0.155499
0.155312
0.155005
0.155454
0.157217
0.159974
0.163097
0.165597
0.166969
0.166749
0.166877
0.168071
0.170276
0.172567
0.17358
0.175746
0.176422
0.176169
0.1772
0.181194
0.183259
0.184006
0.186153
0.132089
0.132157
0.132023
0.131503
0.131332
0.13135
0.131578
0.132207
0.132664
0.132711
0.132677
0.132654
0.132758
0.133026
0.133149
0.133197
0.133217
0.133125
0.133064
0.133121
0.133311
0.133461
0.133575
0.133719
0.13391
0.134113
0.134461
0.134937
0.135396
0.13591
0.136557
0.13724
0.137722
0.138088
0.13851
0.139021
0.139444
0.139742
0.140061
0.140427
0.140867
0.141619
0.141948
0.141908
0.141889
0.142048
0.142444
0.142734
0.142932
0.143228
0.143691
0.144467
0.14503
0.145313
0.145551
0.145614
0.145404
0.14485
0.144616
0.144758
0.145097
0.145761
0.147119
0.148858
0.150658
0.152344
0.153959
0.15596
0.158381
0.160431
0.161942
0.162508
0.162742
0.1627
0.162538
0.162156
0.161355
0.161435
0.162482
0.164838
0.168339
0.171713
0.173366
0.174564
0.174354
0.174313
0.174515
0.175246
0.176602
0.179494
0.18246
0.183211
0.183572
0.184793
0.186261
0.18807
0.190506
0.19189
0.192206
0.19363
0.144744
0.144869
0.144859
0.144752
0.144655
0.144634
0.144633
0.144684
0.144912
0.145036
0.145012
0.144978
0.145082
0.145661
0.14607
0.146043
0.146014
0.146152
0.14626
0.146322
0.146569
0.146761
0.146872
0.147139
0.147552
0.147719
0.147697
0.147602
0.147496
0.147477
0.147628
0.147831
0.147815
0.14772
0.147718
0.147929
0.148443
0.148952
0.149652
0.150556
0.151291
0.152067
0.152323
0.152423
0.15275
0.153418
0.153652
0.153567
0.153435
0.153482
0.153596
0.153915
0.154878
0.156475
0.158081
0.159635
0.16118
0.162432
0.163293
0.163942
0.164676
0.165524
0.166386
0.167532
0.168969
0.170023
0.170233
0.170075
0.169904
0.169968
0.169981
0.16978
0.168961
0.169075
0.169667
0.17123
0.173398
0.17632
0.178954
0.181184
0.182429
0.18284
0.182548
0.181896
0.181732
0.182546
0.184537
0.187622
0.190135
0.19224
0.192811
0.19281
0.192497
0.193243
0.195478
0.198363
0.199427
0.200518
0.201141
0.202709
0.158598
0.158578
0.158584
0.158841
0.159418
0.159503
0.159381
0.15919
0.159162
0.159214
0.159614
0.160099
0.160305
0.160572
0.161173
0.161769
0.161903
0.161914
0.161968
0.16217
0.16224
0.162403
0.162892
0.163141
0.163395
0.16384
0.164026
0.164142
0.16429
0.164474
0.164836
0.165639
0.166084
0.166147
0.166246
0.166489
0.166907
0.167065
0.167217
0.167896
0.168317
0.168259
0.168291
0.168665
0.169398
0.170348
0.171233
0.171867
0.17234
0.172825
0.173267
0.17351
0.173919
0.17425
0.174176
0.174072
0.174208
0.174745
0.175513
0.176075
0.176346
0.176284
0.175749
0.175297
0.175343
0.175566
0.175792
0.175558
0.175588
0.176111
0.177392
0.179075
0.181517
0.184056
0.186723
0.189031
0.190683
0.191617
0.192062
0.192011
0.191504
0.190577
0.190505
0.191262
0.193321
0.196332
0.199297
0.200723
0.20176
0.201281
0.200647
0.200835
0.202018
0.204786
0.20738
0.209029
0.209099
0.209248
0.210357
0.212853
0.177395
0.17749
0.177621
0.177812
0.178047
0.178289
0.178506
0.17854
0.178469
0.178417
0.178521
0.17861
0.178533
0.178572
0.178862
0.178996
0.178925
0.17887
0.178991
0.179512
0.179629
0.179507
0.179541
0.179737
0.179825
0.180055
0.180265
0.180406
0.180711
0.181154
0.181328
0.181431
0.181646
0.181991
0.182375
0.182506
0.182554
0.18279
0.1833
0.183434
0.183291
0.182862
0.182631
0.182641
0.182896
0.183353
0.183432
0.183346
0.183238
0.183332
0.183806
0.184105
0.184316
0.184747
0.184875
0.185023
0.185271
0.185201
0.185028
0.185239
0.186196
0.187903
0.18964
0.190859
0.19178
0.192842
0.194277
0.196309
0.198592
0.200164
0.201271
0.202021
0.202767
0.203263
0.203343
0.203007
0.202557
0.201803
0.201316
0.200851
0.201287
0.202461
0.204966
0.207759
0.210208
0.211244
0.211916
0.211409
0.21075
0.209771
0.210766
0.212892
0.215819
0.218265
0.219683
0.219387
0.21933
0.219659
0.220859
0.22339
0.196015
0.196113
0.19586
0.195362
0.195278
0.195311
0.195693
0.196369
0.196584
0.196632
0.196651
0.19661
0.196537
0.196558
0.196676
0.196672
0.196626
0.196629
0.196825
0.19741
0.197869
0.197885
0.197726
0.197636
0.197704
0.197883
0.197908
0.197915
0.197959
0.198015
0.197949
0.197649
0.197603
0.19771
0.197704
0.197664
0.19773
0.198094
0.198632
0.199039
0.199448
0.200099
0.200703
0.201104
0.201561
0.202133
0.202362
0.202292
0.202263
0.20241
0.202841
0.203581
0.204578
0.205351
0.205911
0.206784
0.208123
0.209083
0.209519
0.210153
0.210669
0.210814
0.211141
0.211952
0.212928
0.213285
0.213217
0.212962
0.212693
0.212571
0.212341
0.211869
0.211043
0.2102
0.209688
0.209571
0.210062
0.211341
0.213351
0.216135
0.219077
0.221717
0.22335
0.224151
0.224458
0.223942
0.223187
0.222641
0.223136
0.224797
0.227219
0.229248
0.230987
0.230559
0.230131
0.23026
0.230904
0.232123
0.233766
0.235287
0.217225
0.21723
0.217224
0.21737
0.217566
0.217531
0.217169
0.216877
0.216846
0.217017
0.217641
0.217892
0.217863
0.217814
0.217886
0.218102
0.218099
0.217895
0.21778
0.217824
0.218113
0.21839
0.218442
0.218457
0.218503
0.218759
0.219134
0.21925
0.219297
0.219369
0.219552
0.219961
0.220536
0.220929
0.221152
0.221374
0.221765
0.222096
0.22212
0.222122
0.222178
0.222218
0.222221
0.222295
0.222557
0.223006
0.22354
0.224286
0.225103
0.225437
0.225662
0.226013
0.22611
0.225958
0.225527
0.225353
0.225397
0.225636
0.226191
0.226501
0.226365
0.22586
0.225397
0.225006
0.224742
0.224756
0.224914
0.224851
0.224958
0.225391
0.226264
0.227587
0.229268
0.231244
0.233138
0.235153
0.23693
0.238531
0.239353
0.239981
0.23983
0.239486
0.238691
0.237673
0.237038
0.236001
0.236144
0.237121
0.239068
0.241293
0.242432
0.24316
0.242964
0.242355
0.24168
0.242039
0.242579
0.243911
0.245147
0.245754
0.242544
0.242657
0.242871
0.24304
0.243045
0.243038
0.243201
0.243285
0.243012
0.2425
0.242489
0.242837
0.243122
0.243192
0.243287
0.243571
0.243707
0.243595
0.243467
0.243479
0.243728
0.24398
0.243975
0.243981
0.24413
0.244361
0.24446
0.24451
0.244557
0.244606
0.244679
0.244705
0.244655
0.244517
0.244497
0.244668
0.245055
0.245189
0.245231
0.245289
0.245413
0.245587
0.245812
0.246041
0.246167
0.246169
0.2461
0.245951
0.245633
0.245193
0.245077
0.245132
0.24531
0.245714
0.246396
0.24676
0.24667
0.246253
0.246049
0.246134
0.246536
0.247322
0.24813
0.248558
0.248853
0.249285
0.249973
0.250916
0.251855
0.252585
0.253109
0.25361
0.253929
0.253981
0.25382
0.253469
0.252873
0.252043
0.250864
0.24941
0.24775
0.24628
0.245496
0.24601
0.247337
0.249773
0.252553
0.255373
0.25684
0.257269
0.256803
0.255937
0.255125
0.254681
0.255346
0.256795
0.258523
0.260203
0.259887
0.259353
0.270041
0.270131
0.270165
0.270173
0.270281
0.270416
0.270402
0.270307
0.270275
0.270408
0.270524
0.270334
0.269703
0.26957
0.269733
0.270003
0.270009
0.269908
0.269889
0.269995
0.270032
0.269852
0.269654
0.26966
0.269732
0.269808
0.269812
0.269803
0.269784
0.269715
0.269679
0.2697
0.269736
0.269717
0.269528
0.26932
0.269342
0.26952
0.269687
0.269683
0.269585
0.269419
0.269244
0.269111
0.269095
0.269109
0.269167
0.269277
0.269471
0.269746
0.269844
0.269802
0.269704
0.269607
0.269543
0.269568
0.269746
0.270154
0.270684
0.271134
0.27119
0.271039
0.27081
0.270822
0.271017
0.271343
0.271317
0.271118
0.270678
0.270164
0.26965
0.269101
0.268383
0.267587
0.266892
0.26627
0.266377
0.266876
0.267787
0.269034
0.270817
0.272925
0.274944
0.276572
0.277607
0.277877
0.277471
0.276705
0.275453
0.274032
0.272622
0.271218
0.271332
0.272461
0.274016
0.275138
0.275684
0.275143
0.274135
0.272876
0.302559
0.302541
0.302442
0.302325
0.30231
0.302349
0.302396
0.302326
0.302299
0.302527
0.302707
0.302656
0.302429
0.302382
0.302429
0.30239
0.302161
0.301883
0.301785
0.30183
0.302075
0.302143
0.301979
0.301674
0.30167
0.3019
0.302048
0.302002
0.301669
0.30144
0.301509
0.301781
0.301817
0.301688
0.301628
0.301627
0.301528
0.301428
0.301421
0.301365
0.301326
0.301371
0.301468
0.301475
0.301437
0.301255
0.301014
0.300996
0.300995
0.300963
0.300856
0.300638
0.300522
0.300541
0.300595
0.300576
0.300452
0.300179
0.299765
0.29942
0.299278
0.299189
0.299059
0.29878
0.298367
0.297983
0.297696