/*--------------------------------*- C++ -*----------------------------------*\
  =========                 |
  \\      /  F ield         | OpenFOAM: The Open Source CFD Toolbox
   \\    /   O peration     | Website:  https://openfoam.org
    \\  /    A nd           | Version:  7
     \\/     M anipulation  |
\*---------------------------------------------------------------------------*/
FoamFile
{
    version     2.0;
    format      ascii;
    class       volVectorField;
    location    "4.5";
    object      U;
}
// * * * * * * * * * * * * * * * * * * * * * * * * * * * * * * * * * * * * * //

dimensions      [0 1 -1 0 0 0 0];

internalField   nonuniform List<vector> 
90000
(
(4.06318 -0.318887 0)
(4.05921 -0.301127 0)
(4.05356 -0.279028 0)
(4.05013 -0.270106 0)
(4.0444 -0.254597 0)
(4.03899 -0.239237 0)
(4.03472 -0.227945 0)
(4.03114 -0.220228 0)
(4.02682 -0.206695 0)
(4.02422 -0.197552 0)
(4.02187 -0.184987 0)
(4.0207 -0.178267 0)
(4.01852 -0.163788 0)
(4.01773 -0.158676 0)
(4.01558 -0.143833 0)
(4.01489 -0.139762 0)
(4.01273 -0.12612 0)
(4.01168 -0.120785 0)
(4.00984 -0.110559 0)
(4.00823 -0.102287 0)
(4.00688 -0.0955112 0)
(4.00499 -0.0862594 0)
(4.00332 -0.0780874 0)
(4.00237 -0.0736355 0)
(3.99966 -0.0605116 0)
(3.99929 -0.0588204 0)
(3.99677 -0.0485939 0)
(3.99471 -0.0399286 0)
(3.99505 -0.0375329 0)
(3.99166 -0.0272169 0)
(3.9896 -0.0189593 0)
(3.9915 -0.0175409 0)
(3.98728 -0.00926999 0)
(3.98655 -0.00460254 0)
(3.98637 -0.00110027 0)
(3.98498 0.000222305 0)
(3.98481 0.00267491 0)
(3.98426 0.0056729 0)
(3.98266 0.00647371 0)
(3.98211 0.00910439 0)
(3.98321 0.00348986 0)
(3.98243 0.00275523 0)
(3.98143 -0.00367478 0)
(3.98087 -0.00579252 0)
(3.98014 -0.00762739 0)
(3.97889 -0.0092895 0)
(3.9776 -0.00893947 0)
(3.9774 -0.00983398 0)
(3.97729 -0.00772863 0)
(3.97688 -0.00436371 0)
(3.97806 -0.0019122 0)
(3.97901 0.000688969 0)
(3.97942 0.00169778 0)
(3.97976 0.00257094 0)
(3.98061 0.00130035 0)
(3.9813 0.00162928 0)
(3.98176 -0.00016316 0)
(3.98161 -0.00113561 0)
(3.98151 -0.00273696 0)
(3.98128 -0.00377404 0)
(3.98083 -0.00600173 0)
(3.9808 -0.00440019 0)
(3.98047 -0.00254971 0)
(3.98111 0.000346938 0)
(3.98129 0.00133633 0)
(3.98173 0.00214267 0)
(3.98252 0.00157111 0)
(3.98237 0.000170514 0)
(3.98237 -0.00118776 0)
(3.98254 -0.00326382 0)
(3.98201 -0.00213806 0)
(3.98155 -0.00069069 0)
(3.98173 0.00104815 0)
(3.98181 0.00092939 0)
(3.98186 -0.000577876 0)
(3.98208 -0.00221041 0)
(3.98248 -0.00337825 0)
(3.98224 -0.00247439 0)
(3.98216 -0.00110474 0)
(3.98236 2.8564e-05 0)
(3.9821 -0.000473512 0)
(3.98209 -0.00135468 0)
(3.98262 -0.00180259 0)
(3.98222 -0.00100532 0)
(3.98198 -0.000472403 0)
(3.98224 -0.000225334 0)
(3.9823 -0.000603583 0)
(3.98235 -0.00122216 0)
(3.98249 -0.00132386 0)
(3.98263 -0.00119398 0)
(3.98263 -0.000850969 0)
(3.98264 -0.000859777 0)
(3.98265 -0.00105451 0)
(3.98266 -0.00116466 0)
(3.98269 -0.00142338 0)
(3.98275 -0.00104769 0)
(3.9827 -0.000541991 0)
(3.9827 -0.000379959 0)
(3.98267 -0.000240407 0)
(3.98279 -0.000569024 0)
(4.06467 -0.33486 0)
(4.06444 -0.334181 0)
(4.0639 -0.332827 0)
(4.06321 -0.33119 0)
(4.06221 -0.328782 0)
(4.06099 -0.325915 0)
(4.05956 -0.321632 0)
(4.05827 -0.318108 0)
(4.05612 -0.312912 0)
(4.05351 -0.308069 0)
(4.05029 -0.301616 0)
(4.04711 -0.295873 0)
(4.04331 -0.28765 0)
(4.03997 -0.280298 0)
(4.03597 -0.269603 0)
(4.03279 -0.261358 0)
(4.02854 -0.247468 0)
(4.02569 -0.238553 0)
(4.02133 -0.221853 0)
(4.01873 -0.212065 0)
(4.01447 -0.193824 0)
(4.01194 -0.182191 0)
(4.00789 -0.163064 0)
(4.00615 -0.151876 0)
(4.00136 -0.128542 0)
(4.00151 -0.12177 0)
(3.99598 -0.0955783 0)
(3.99532 -0.0869251 0)
(3.99275 -0.0701739 0)
(3.98919 -0.0507622 0)
(3.98834 -0.0402962 0)
(3.98881 -0.0321021 0)
(3.98318 -0.00649232 0)
(3.98395 -0.00600427 0)
(3.98351 0.00158462 0)
(3.9775 0.0176593 0)
(3.97756 0.0212201 0)
(3.97653 0.0246477 0)
(3.97611 0.0259716 0)
(3.97535 0.0213455 0)
(3.97402 0.0138952 0)
(3.97703 0.0114703 0)
(3.97585 0.00541796 0)
(3.97865 0.000430959 0)
(3.97947 -0.00199685 0)
(3.9806 -0.00364869 0)
(3.98142 -0.00524055 0)
(3.9818 -0.0051989 0)
(3.98179 -0.00491163 0)
(3.98236 -0.00349763 0)
(3.98254 7.42054e-05 0)
(3.98266 0.00179999 0)
(3.98201 0.00329102 0)
(3.98157 0.0055155 0)
(3.98108 0.00506656 0)
(3.98132 0.00380291 0)
(3.98054 0.000408328 0)
(3.98056 -0.00335505 0)
(3.98055 -0.00608592 0)
(3.98074 -0.00739735 0)
(3.98117 -0.00733552 0)
(3.98156 -0.00565785 0)
(3.98168 -0.00253549 0)
(3.98185 0.000274203 0)
(3.98168 0.00340268 0)
(3.98119 0.00327695 0)
(3.98108 0.00194683 0)
(3.98045 -0.00178883 0)
(3.98041 -0.00346477 0)
(3.98102 -0.00332526 0)
(3.98104 -0.0027476 0)
(3.98153 -5.15525e-05 0)
(3.98122 0.00055353 0)
(3.98127 0.00106375 0)
(3.98021 -0.00167876 0)
(3.98042 -0.00249227 0)
(3.98073 -0.002413 0)
(3.9814 -0.00108932 0)
(3.98137 -0.000614834 0)
(3.98144 -0.000337377 0)
(3.98094 -0.00118937 0)
(3.98094 -0.00136703 0)
(3.98124 -0.000751346 0)
(3.9813 -0.000547909 0)
(3.98119 -0.000519605 0)
(3.9811 -0.000523494 0)
(3.98109 -0.00113162 0)
(3.98119 -0.00113479 0)
(3.98137 -0.00071123 0)
(3.98142 -0.000613154 0)
(3.98144 -0.000737343 0)
(3.98149 -0.000977948 0)
(3.98156 -0.00108982 0)
(3.98161 -0.00100761 0)
(3.98164 -0.000829597 0)
(3.98171 -0.000704832 0)
(3.98173 -0.00054426 0)
(3.98175 -0.000422155 0)
(3.9817 -0.000418672 0)
(3.98179 -0.000853761 0)
(4.06138 -0.334522 0)
(4.06132 -0.334541 0)
(4.06126 -0.334508 0)
(4.06119 -0.33445 0)
(4.06112 -0.334397 0)
(4.06104 -0.334315 0)
(4.06095 -0.334196 0)
(4.06084 -0.334011 0)
(4.06071 -0.333813 0)
(4.06054 -0.333479 0)
(4.06034 -0.333109 0)
(4.06009 -0.332512 0)
(4.05976 -0.331872 0)
(4.05918 -0.330995 0)
(4.05848 -0.329956 0)
(4.05763 -0.328382 0)
(4.05666 -0.326539 0)
(4.05553 -0.323972 0)
(4.0542 -0.320719 0)
(4.05282 -0.317371 0)
(4.05094 -0.311596 0)
(4.04927 -0.307137 0)
(4.0468 -0.298422 0)
(4.04466 -0.291552 0)
(4.04183 -0.280984 0)
(4.03907 -0.26991 0)
(4.03572 -0.256512 0)
(4.03308 -0.245458 0)
(4.02831 -0.222004 0)
(4.02703 -0.217022 0)
(4.0208 -0.186291 0)
(4.01854 -0.17712 0)
(4.01358 -0.152824 0)
(4.01175 -0.141107 0)
(4.00611 -0.109216 0)
(4.00622 -0.110056 0)
(4.00149 -0.0831176 0)
(4.0011 -0.0778477 0)
(3.99739 -0.0599012 0)
(4.00104 -0.0570014 0)
(3.99238 -0.0377095 0)
(3.99363 -0.0313907 0)
(3.98861 -0.0216126 0)
(3.98892 -0.0145636 0)
(3.98717 -0.0113006 0)
(3.9879 -0.00789902 0)
(3.9882 -0.00416891 0)
(3.98772 -0.000788419 0)
(3.98634 0.00109929 0)
(3.98571 0.00302147 0)
(3.98418 0.00434122 0)
(3.98325 0.00384605 0)
(3.98204 0.00202728 0)
(3.98113 0.00039892 0)
(3.9803 -0.00258315 0)
(3.97996 -0.00350396 0)
(3.98002 -0.00467656 0)
(3.98032 -0.00467856 0)
(3.98111 -0.0041779 0)
(3.98192 -0.00314379 0)
(3.98261 -0.00127365 0)
(3.98249 -0.000121797 0)
(3.98242 0.00158744 0)
(3.98205 0.00119908 0)
(3.98128 0.000285136 0)
(3.98015 -0.00220463 0)
(3.97981 -0.00162425 0)
(3.97987 -0.00104887 0)
(3.98024 -0.000475857 0)
(3.98068 0.000480293 0)
(3.98077 0.000348868 0)
(3.98069 -0.00072429 0)
(3.98029 -0.00167102 0)
(3.98051 -0.00273732 0)
(3.97982 -0.00153372 0)
(3.98005 -0.00128026 0)
(3.9798 -0.000292397 0)
(3.98077 -0.00182904 0)
(3.9806 -0.00223904 0)
(3.98075 -0.00283661 0)
(3.98029 -0.00127219 0)
(3.98037 -0.000800042 0)
(3.98044 -0.00087529 0)
(3.98047 -0.00112019 0)
(3.9805 -0.00137855 0)
(3.98039 -0.000977792 0)
(3.98039 -0.000795038 0)
(3.98044 -0.000787836 0)
(3.98046 -0.0010322 0)
(3.98049 -0.00128618 0)
(3.98057 -0.00118022 0)
(3.98068 -0.00107215 0)
(3.98071 -0.00115629 0)
(3.98074 -0.00128152 0)
(3.98076 -0.0015719 0)
(3.98084 -0.00142621 0)
(3.98093 -0.000976057 0)
(3.98098 -0.0005293 0)
(3.98088 -0.000235357 0)
(3.98097 -0.000502864 0)
(4.05707 -0.334428 0)
(4.05703 -0.334435 0)
(4.05699 -0.334471 0)
(4.05698 -0.334517 0)
(4.05696 -0.334521 0)
(4.05693 -0.334562 0)
(4.05688 -0.334597 0)
(4.05684 -0.334612 0)
(4.05678 -0.334601 0)
(4.0567 -0.334648 0)
(4.05662 -0.334691 0)
(4.05655 -0.33476 0)
(4.05648 -0.334754 0)
(4.05641 -0.334691 0)
(4.05634 -0.334613 0)
(4.05627 -0.334538 0)
(4.05618 -0.334426 0)
(4.05608 -0.334258 0)
(4.05598 -0.334123 0)
(4.05586 -0.333974 0)
(4.05572 -0.333753 0)
(4.05556 -0.333355 0)
(4.05538 -0.332885 0)
(4.05516 -0.332175 0)
(4.05474 -0.331352 0)
(4.05421 -0.330174 0)
(4.05351 -0.328121 0)
(4.05269 -0.325538 0)
(4.05159 -0.321863 0)
(4.05028 -0.316525 0)
(4.04851 -0.30967 0)
(4.04659 -0.301731 0)
(4.04342 -0.287517 0)
(4.04104 -0.277436 0)
(4.03606 -0.254811 0)
(4.03356 -0.240322 0)
(4.02673 -0.20661 0)
(4.02544 -0.194397 0)
(4.01598 -0.147292 0)
(4.01729 -0.137759 0)
(4.0076 -0.0882107 0)
(4.00953 -0.0847753 0)
(3.99995 -0.041835 0)
(4.00135 -0.0424324 0)
(3.99347 -0.0133928 0)
(3.9936 -0.0136704 0)
(3.98835 0.00323181 0)
(3.98661 0.00469262 0)
(3.98511 0.0120499 0)
(3.98289 0.00911017 0)
(3.98178 0.00398514 0)
(3.98199 0.00045331 0)
(3.98141 -0.00246604 0)
(3.98134 -0.004338 0)
(3.9806 -0.00421981 0)
(3.98062 -0.00349772 0)
(3.98092 -0.0020134 0)
(3.98124 0.000253675 0)
(3.98181 0.00368321 0)
(3.9824 0.0047286 0)
(3.98141 0.00634299 0)
(3.98249 0.00206704 0)
(3.98205 -0.000387548 0)
(3.98136 -0.00397661 0)
(3.98094 -0.00536384 0)
(3.98086 -0.00466047 0)
(3.98155 -0.00230577 0)
(3.98156 -8.43348e-05 0)
(3.98136 0.00282288 0)
(3.98145 0.00223243 0)
(3.98114 0.000249081 0)
(3.98115 -0.00134178 0)
(3.98085 -0.00353954 0)
(3.98117 -0.00270899 0)
(3.98117 -0.00177137 0)
(3.98111 0.000144087 0)
(3.98131 -0.000356069 0)
(3.98131 -0.00129252 0)
(3.98106 -0.00233174 0)
(3.98108 -0.00203461 0)
(3.9811 -0.00138592 0)
(3.98115 -0.000563734 0)
(3.98119 -0.000698958 0)
(3.98099 -0.00103761 0)
(3.98095 -0.000925479 0)
(3.98091 -0.000330354 0)
(3.9809 -0.000208278 0)
(3.98093 -0.000558441 0)
(3.98097 -0.00103053 0)
(3.98099 -0.00125944 0)
(3.98111 -0.000953802 0)
(3.98112 -0.000895845 0)
(3.98109 -0.00104408 0)
(3.98109 -0.0011766 0)
(3.98109 -0.00108966 0)
(3.98112 -0.000754456 0)
(3.98114 -0.000203842 0)
(3.98115 -7.60691e-05 0)
(3.9811 -9.62586e-05 0)
(3.98111 -0.000450691 0)
(4.05444 -0.334314 0)
(4.05442 -0.334298 0)
(4.05441 -0.334308 0)
(4.05441 -0.334312 0)
(4.0544 -0.334285 0)
(4.05439 -0.334276 0)
(4.05438 -0.334306 0)
(4.05436 -0.334305 0)
(4.05435 -0.334268 0)
(4.05431 -0.334287 0)
(4.05429 -0.334342 0)
(4.05427 -0.334308 0)
(4.05424 -0.334301 0)
(4.05427 -0.334356 0)
(4.05428 -0.334367 0)
(4.05431 -0.33439 0)
(4.05431 -0.334451 0)
(4.05432 -0.334524 0)
(4.05433 -0.334551 0)
(4.05432 -0.33459 0)
(4.05429 -0.33465 0)
(4.05425 -0.334746 0)
(4.05422 -0.334742 0)
(4.05415 -0.334691 0)
(4.05414 -0.334779 0)
(4.05412 -0.334739 0)
(4.0541 -0.334623 0)
(4.0541 -0.334515 0)
(4.05411 -0.334411 0)
(4.0541 -0.3342 0)
(4.05407 -0.333869 0)
(4.05405 -0.333334 0)
(4.05396 -0.332572 0)
(4.05371 -0.331094 0)
(4.05328 -0.329055 0)
(4.05255 -0.325397 0)
(4.05135 -0.32026 0)
(4.04963 -0.31236 0)
(4.04689 -0.30099 0)
(4.04402 -0.287441 0)
(4.03911 -0.264105 0)
(4.03592 -0.246343 0)
(4.02863 -0.208149 0)
(4.0266 -0.192781 0)
(4.01735 -0.143245 0)
(4.01675 -0.1366 0)
(4.00787 -0.0889536 0)
(4.00749 -0.0902483 0)
(4.00168 -0.0572371 0)
(4.00468 -0.0623889 0)
(3.9951 -0.0408642 0)
(3.99626 -0.0366687 0)
(3.99103 -0.0252053 0)
(3.99193 -0.0202031 0)
(3.98803 -0.0136997 0)
(3.9879 -0.00676656 0)
(3.98549 -0.00079394 0)
(3.98274 0.00537669 0)
(3.98232 0.00608364 0)
(3.98164 0.00544774 0)
(3.98009 0.00130361 0)
(3.98046 -3.10047e-05 0)
(3.98026 -0.00504299 0)
(3.9808 -0.0061132 0)
(3.98189 -0.00566609 0)
(3.98351 -0.00386268 0)
(3.98354 -0.00239101 0)
(3.98403 0.000584289 0)
(3.9836 0.00108943 0)
(3.98271 -0.000241659 0)
(3.98213 -0.00136073 0)
(3.98237 -0.00307825 0)
(3.98282 -0.00303127 0)
(3.98294 -0.00333494 0)
(3.98341 -0.00100652 0)
(3.98321 -0.000580055 0)
(3.98344 0.00015135 0)
(3.98257 -0.00163924 0)
(3.9828 -0.00205766 0)
(3.98268 -0.00278809 0)
(3.98315 -0.00167085 0)
(3.98306 -0.00124974 0)
(3.98317 -0.000506413 0)
(3.98259 -0.00112301 0)
(3.98266 -0.00161274 0)
(3.98269 -0.00168916 0)
(3.98279 -0.00139425 0)
(3.98286 -0.000622404 0)
(3.98288 -0.000444889 0)
(3.98294 -0.000619969 0)
(3.98294 -0.000801546 0)
(3.98288 -0.00125358 0)
(3.98279 -0.00152145 0)
(3.98272 -0.00153679 0)
(3.98265 -0.00145424 0)
(3.98265 -0.00119684 0)
(3.98264 -0.000892761 0)
(3.98262 -0.00073832 0)
(3.98262 -0.000704917 0)
(3.98252 -0.000891686 0)
(4.05437 -0.334439 0)
(4.05438 -0.334439 0)
(4.05439 -0.334447 0)
(4.0544 -0.334436 0)
(4.05441 -0.334409 0)
(4.05443 -0.334395 0)
(4.05446 -0.334395 0)
(4.05447 -0.334398 0)
(4.05449 -0.334412 0)
(4.05452 -0.334437 0)
(4.05455 -0.334459 0)
(4.05455 -0.334524 0)
(4.05458 -0.334599 0)
(4.05462 -0.334621 0)
(4.05465 -0.334597 0)
(4.05469 -0.334588 0)
(4.05471 -0.334588 0)
(4.05473 -0.334599 0)
(4.05477 -0.334614 0)
(4.05481 -0.334628 0)
(4.05486 -0.334659 0)
(4.05487 -0.334679 0)
(4.05491 -0.334721 0)
(4.05495 -0.334733 0)
(4.05501 -0.334762 0)
(4.05504 -0.334838 0)
(4.05512 -0.334905 0)
(4.05519 -0.334965 0)
(4.05524 -0.335066 0)
(4.05531 -0.33512 0)
(4.0554 -0.33517 0)
(4.05544 -0.335141 0)
(4.05563 -0.335073 0)
(4.0558 -0.335034 0)
(4.05596 -0.335002 0)
(4.05608 -0.334868 0)
(4.05615 -0.334662 0)
(4.05622 -0.334242 0)
(4.05631 -0.333597 0)
(4.05625 -0.332351 0)
(4.05588 -0.330217 0)
(4.05506 -0.326209 0)
(4.05348 -0.319603 0)
(4.05128 -0.309387 0)
(4.04729 -0.291863 0)
(4.04367 -0.272962 0)
(4.0361 -0.236724 0)
(4.03287 -0.213758 0)
(4.02142 -0.158539 0)
(4.02195 -0.140093 0)
(4.00914 -0.0790873 0)
(4.01173 -0.0709025 0)
(4.00086 -0.0257583 0)
(4.00348 -0.022253 0)
(3.99547 0.00559649 0)
(3.99374 0.00845973 0)
(3.99024 0.0210465 0)
(3.9865 0.0158679 0)
(3.98356 0.00547647 0)
(3.98318 0.00127061 0)
(3.98089 -0.00358494 0)
(3.98113 -0.00460432 0)
(3.98154 -0.00464091 0)
(3.98255 -0.00259609 0)
(3.98406 2.18861e-05 0)
(3.98502 0.002687 0)
(3.98521 0.00135449 0)
(3.98504 0.000156878 0)
(3.9845 -0.00170204 0)
(3.98454 -0.00436751 0)
(3.98353 -0.00285957 0)
(3.98379 -0.0022266 0)
(3.98438 -0.00100133 0)
(3.98463 0.000568212 0)
(3.98516 -0.000643621 0)
(3.98495 -0.00139745 0)
(3.9848 -0.00282461 0)
(3.98475 -0.00167484 0)
(3.98497 -0.00115042 0)
(3.98518 -0.000816825 0)
(3.98531 -0.00149986 0)
(3.98523 -0.00179399 0)
(3.98518 -0.0017502 0)
(3.98522 -0.00104241 0)
(3.9852 -1.68802e-05 0)
(3.98513 1.22517e-05 0)
(3.98543 -0.0011528 0)
(3.98535 -0.00137339 0)
(3.98535 -0.00126257 0)
(3.98537 -0.000945084 0)
(3.9853 -0.000811471 0)
(3.98521 -0.000961984 0)
(3.98505 -0.00116082 0)
(3.98499 -0.00102991 0)
(3.98495 -0.000927482 0)
(3.98499 -0.000656894 0)
(3.98498 -0.000354519 0)
(3.98496 -0.000314548 0)
(3.98496 -0.000118501 0)
(3.98477 -0.000347446 0)
(4.0562 -0.334042 0)
(4.05623 -0.334054 0)
(4.05624 -0.334065 0)
(4.05626 -0.334069 0)
(4.05628 -0.334069 0)
(4.05631 -0.334065 0)
(4.05634 -0.334054 0)
(4.05635 -0.334052 0)
(4.0564 -0.334072 0)
(4.05646 -0.334084 0)
(4.0565 -0.334091 0)
(4.05654 -0.334095 0)
(4.05656 -0.334097 0)
(4.0566 -0.334112 0)
(4.05667 -0.334126 0)
(4.05673 -0.334131 0)
(4.05679 -0.334143 0)
(4.05686 -0.334155 0)
(4.05691 -0.334173 0)
(4.05696 -0.334182 0)
(4.05705 -0.334182 0)
(4.05713 -0.334188 0)
(4.0572 -0.334219 0)
(4.05723 -0.334242 0)
(4.05733 -0.334321 0)
(4.05743 -0.334363 0)
(4.05751 -0.334383 0)
(4.05759 -0.334384 0)
(4.05769 -0.334375 0)
(4.0578 -0.334389 0)
(4.05793 -0.334462 0)
(4.05811 -0.334538 0)
(4.05821 -0.334581 0)
(4.0583 -0.334607 0)
(4.05844 -0.334622 0)
(4.0585 -0.334608 0)
(4.05857 -0.334564 0)
(4.05868 -0.334533 0)
(4.05882 -0.334483 0)
(4.05899 -0.334414 0)
(4.0592 -0.334363 0)
(4.05938 -0.334214 0)
(4.05953 -0.333996 0)
(4.05962 -0.333562 0)
(4.05958 -0.332621 0)
(4.05922 -0.330419 0)
(4.05833 -0.326619 0)
(4.05654 -0.318268 0)
(4.05354 -0.306302 0)
(4.04922 -0.285256 0)
(4.04338 -0.258157 0)
(4.03745 -0.225025 0)
(4.02951 -0.182825 0)
(4.02528 -0.154326 0)
(4.01777 -0.108316 0)
(4.01638 -0.0977714 0)
(4.01185 -0.0654661 0)
(4.01541 -0.0648613 0)
(4.00478 -0.0410042 0)
(4.00167 -0.0310944 0)
(3.99783 -0.0214747 0)
(3.99493 -0.011106 0)
(3.99177 -0.00401084 0)
(3.98724 0.00487343 0)
(3.98733 0.00523878 0)
(3.98698 0.00424102 0)
(3.9858 -0.00123793 0)
(3.98588 -0.00423906 0)
(3.98582 -0.00821505 0)
(3.98587 -0.00766953 0)
(3.98645 -0.00387659 0)
(3.98641 -0.00154723 0)
(3.98728 0.00122207 0)
(3.98711 0.00126505 0)
(3.9868 -8.56968e-05 0)
(3.98652 -0.00276345 0)
(3.98662 -0.00329048 0)
(3.98707 -0.00237442 0)
(3.98725 -0.00110477 0)
(3.98728 -0.000313979 0)
(3.98704 -0.00100901 0)
(3.98708 -0.00173976 0)
(3.98724 -0.0023617 0)
(3.98748 -0.00201272 0)
(3.98746 -0.00145671 0)
(3.98746 -0.000492327 0)
(3.98727 -0.000521117 0)
(3.98742 -0.000643781 0)
(3.98739 -0.000663246 0)
(3.98736 -0.000881622 0)
(3.98732 -0.00100736 0)
(3.98721 -0.00133982 0)
(3.98719 -0.00145293 0)
(3.98729 -0.0014663 0)
(3.98738 -0.001079 0)
(3.98742 -0.000883548 0)
(3.9874 -0.000780856 0)
(3.98738 -0.00072966 0)
(3.98731 -0.000915755 0)
(3.9872 -0.000913869 0)
(4.05852 -0.334653 0)
(4.05855 -0.334646 0)
(4.05857 -0.334637 0)
(4.0586 -0.334634 0)
(4.05864 -0.334633 0)
(4.05865 -0.334632 0)
(4.05867 -0.334641 0)
(4.05872 -0.334653 0)
(4.05875 -0.33466 0)
(4.05878 -0.334677 0)
(4.0588 -0.334702 0)
(4.05885 -0.33472 0)
(4.0589 -0.334728 0)
(4.05895 -0.334734 0)
(4.05897 -0.334743 0)
(4.05902 -0.334753 0)
(4.05911 -0.334738 0)
(4.05922 -0.334739 0)
(4.05928 -0.334708 0)
(4.05931 -0.334673 0)
(4.05938 -0.334653 0)
(4.05949 -0.334654 0)
(4.05957 -0.334647 0)
(4.05962 -0.334642 0)
(4.05971 -0.334633 0)
(4.05979 -0.334603 0)
(4.05987 -0.334585 0)
(4.05995 -0.334567 0)
(4.06004 -0.33454 0)
(4.06013 -0.33451 0)
(4.06018 -0.334488 0)
(4.06021 -0.33445 0)
(4.06023 -0.334397 0)
(4.06025 -0.334388 0)
(4.0603 -0.33441 0)
(4.06039 -0.334342 0)
(4.06049 -0.334336 0)
(4.06061 -0.334323 0)
(4.06073 -0.334308 0)
(4.06089 -0.334326 0)
(4.0611 -0.334342 0)
(4.06128 -0.334349 0)
(4.06145 -0.334323 0)
(4.06162 -0.334347 0)
(4.06183 -0.334252 0)
(4.0619 -0.334218 0)
(4.06192 -0.333996 0)
(4.06193 -0.333582 0)
(4.0619 -0.332868 0)
(4.06163 -0.331317 0)
(4.06084 -0.327895 0)
(4.05912 -0.320811 0)
(4.05596 -0.30784 0)
(4.05127 -0.286406 0)
(4.04432 -0.253916 0)
(4.03805 -0.217249 0)
(4.0272 -0.162793 0)
(4.02591 -0.12572 0)
(4.01536 -0.0664262 0)
(4.01583 -0.0445613 0)
(4.00676 -0.00549752 0)
(4.00724 0.00479236 0)
(3.99995 0.0271085 0)
(3.99516 0.0230376 0)
(3.9911 0.00701101 0)
(3.9894 0.000454242 0)
(3.98795 -0.00577148 0)
(3.98809 -0.00631457 0)
(3.98863 -0.00612201 0)
(3.98961 -0.00242001 0)
(3.99077 0.00262738 0)
(3.99041 0.00231618 0)
(3.98963 0.000860268 0)
(3.98881 -0.00151951 0)
(3.98804 -0.00285996 0)
(3.98805 -0.00296902 0)
(3.98834 -0.00201735 0)
(3.9894 -0.00085363 0)
(3.98874 -0.000587537 0)
(3.98863 -0.000995883 0)
(3.98854 -0.00111114 0)
(3.98858 -0.0017234 0)
(3.98871 -0.00169578 0)
(3.98907 -0.00152282 0)
(3.98899 -0.00143274 0)
(3.98874 -0.00149371 0)
(3.98843 -0.00147494 0)
(3.98872 -0.000817447 0)
(3.98876 -0.000616742 0)
(3.9888 -0.000747649 0)
(3.98882 -0.000900978 0)
(3.98894 -0.001164 0)
(3.98908 -0.00107781 0)
(3.98928 -0.000901933 0)
(3.98939 -0.000795299 0)
(3.98939 -0.000630877 0)
(3.98938 -0.000584475 0)
(3.98935 -0.000613699 0)
(3.98929 -0.000547787 0)
(3.98927 -0.000653566 0)
(4.06069 -0.33464 0)
(4.0607 -0.334635 0)
(4.06073 -0.334629 0)
(4.06076 -0.334623 0)
(4.0608 -0.334616 0)
(4.06082 -0.334607 0)
(4.06084 -0.334606 0)
(4.06088 -0.334601 0)
(4.06092 -0.334581 0)
(4.06095 -0.334578 0)
(4.06098 -0.33459 0)
(4.06102 -0.334589 0)
(4.06106 -0.334563 0)
(4.06109 -0.334541 0)
(4.06113 -0.334538 0)
(4.06115 -0.334537 0)
(4.06117 -0.33454 0)
(4.06124 -0.334505 0)
(4.06132 -0.334473 0)
(4.06137 -0.334466 0)
(4.06142 -0.334453 0)
(4.0615 -0.334445 0)
(4.06154 -0.334431 0)
(4.06157 -0.334413 0)
(4.06158 -0.334399 0)
(4.06159 -0.334397 0)
(4.06161 -0.33438 0)
(4.06164 -0.3343 0)
(4.06165 -0.33425 0)
(4.06163 -0.334241 0)
(4.06162 -0.334183 0)
(4.06163 -0.334053 0)
(4.06164 -0.333933 0)
(4.06165 -0.33386 0)
(4.06167 -0.333777 0)
(4.06173 -0.333712 0)
(4.06183 -0.333695 0)
(4.06192 -0.333707 0)
(4.06205 -0.333761 0)
(4.06219 -0.333792 0)
(4.06234 -0.333826 0)
(4.0625 -0.333875 0)
(4.06261 -0.333936 0)
(4.06276 -0.333955 0)
(4.0629 -0.333897 0)
(4.063 -0.333903 0)
(4.0631 -0.333803 0)
(4.06316 -0.333617 0)
(4.06316 -0.333568 0)
(4.06314 -0.333547 0)
(4.06304 -0.333327 0)
(4.06297 -0.333119 0)
(4.06288 -0.332584 0)
(4.06253 -0.330963 0)
(4.06167 -0.327573 0)
(4.05957 -0.318215 0)
(4.05644 -0.305882 0)
(4.05007 -0.274036 0)
(4.04537 -0.249432 0)
(4.03519 -0.191112 0)
(4.03115 -0.162519 0)
(4.02301 -0.111643 0)
(4.02146 -0.0879462 0)
(4.01869 -0.0691716 0)
(4.01447 -0.0500682 0)
(4.00706 -0.0311073 0)
(4.00339 -0.0186137 0)
(4.0013 -0.010318 0)
(3.9945 -0.00139551 0)
(3.99253 0.00426326 0)
(3.99182 0.00300076 0)
(3.99054 -0.00124145 0)
(3.98979 -0.00518211 0)
(3.99031 -0.0068727 0)
(3.99034 -0.00549768 0)
(3.99042 -0.00277913 0)
(3.9908 0.00023835 0)
(3.9908 0.000145647 0)
(3.99038 -0.00053442 0)
(3.98996 -0.00275281 0)
(3.98995 -0.00252692 0)
(3.99013 -0.00191746 0)
(3.99039 -0.00104406 0)
(3.99039 -0.000916783 0)
(3.99029 -0.00132439 0)
(3.99031 -0.00195186 0)
(3.99023 -0.0016014 0)
(3.99004 -0.000961572 0)
(3.99011 -0.000677468 0)
(3.99012 -0.000973878 0)
(3.99025 -0.00131687 0)
(3.99048 -0.0013457 0)
(3.99076 -0.00115737 0)
(3.9909 -0.000957475 0)
(3.99083 -0.000687878 0)
(3.99078 -0.000819381 0)
(3.99076 -0.000853704 0)
(3.99073 -0.000986075 0)
(3.99072 -0.00102912 0)
(3.9908 -0.000894329 0)
(4.06225 -0.334858 0)
(4.06227 -0.334872 0)
(4.06231 -0.334889 0)
(4.06234 -0.334892 0)
(4.06237 -0.334885 0)
(4.06238 -0.334883 0)
(4.0624 -0.33488 0)
(4.06241 -0.334854 0)
(4.06243 -0.334806 0)
(4.06245 -0.334785 0)
(4.06247 -0.334793 0)
(4.0625 -0.334793 0)
(4.06249 -0.334763 0)
(4.0625 -0.33473 0)
(4.0625 -0.33472 0)
(4.06251 -0.334725 0)
(4.06253 -0.334694 0)
(4.06258 -0.334641 0)
(4.0626 -0.334596 0)
(4.06258 -0.334561 0)
(4.06256 -0.334562 0)
(4.06254 -0.334519 0)
(4.06257 -0.334452 0)
(4.06258 -0.334362 0)
(4.06258 -0.334273 0)
(4.06259 -0.334262 0)
(4.06262 -0.33423 0)
(4.06267 -0.334078 0)
(4.06269 -0.333989 0)
(4.06271 -0.333964 0)
(4.06277 -0.333847 0)
(4.06285 -0.333679 0)
(4.06289 -0.333606 0)
(4.06293 -0.33356 0)
(4.06298 -0.333473 0)
(4.06299 -0.3334 0)
(4.06299 -0.333392 0)
(4.06298 -0.333404 0)
(4.06299 -0.333436 0)
(4.06301 -0.333459 0)
(4.06305 -0.333487 0)
(4.06311 -0.33355 0)
(4.06321 -0.333608 0)
(4.06338 -0.333605 0)
(4.06358 -0.33362 0)
(4.06367 -0.333619 0)
(4.06378 -0.333564 0)
(4.06384 -0.333467 0)
(4.06384 -0.333453 0)
(4.06381 -0.333456 0)
(4.06375 -0.333428 0)
(4.06369 -0.333322 0)
(4.06363 -0.333268 0)
(4.0636 -0.333237 0)
(4.06358 -0.333215 0)
(4.0635 -0.333081 0)
(4.06329 -0.332439 0)
(4.06266 -0.330346 0)
(4.06132 -0.324674 0)
(4.05801 -0.310899 0)
(4.05379 -0.290208 0)
(4.04398 -0.243898 0)
(4.03922 -0.210234 0)
(4.02439 -0.126247 0)
(4.02601 -0.0990782 0)
(4.01189 -0.0270253 0)
(4.01308 -0.0138897 0)
(4.0055 0.0164065 0)
(4.00112 0.0247315 0)
(3.99559 0.0112236 0)
(3.9932 0.000480131 0)
(3.99199 -0.00651674 0)
(3.9921 -0.00684312 0)
(3.99254 -0.00517488 0)
(3.99338 -0.00186311 0)
(3.99381 0.00335361 0)
(3.99346 0.00276088 0)
(3.99223 0.000225406 0)
(3.99165 -0.00289316 0)
(3.99156 -0.00317679 0)
(3.99176 -0.00227279 0)
(3.99222 -0.000556764 0)
(3.99207 -0.000542378 0)
(3.99178 -0.00115297 0)
(3.99178 -0.00181151 0)
(3.99178 -0.00199594 0)
(3.99196 -0.00154666 0)
(3.99193 -0.000896618 0)
(3.99175 -0.00086744 0)
(3.99163 -0.00108791 0)
(3.99154 -0.00124308 0)
(3.99161 -0.00116773 0)
(3.99181 -0.000757009 0)
(3.9918 -0.000496549 0)
(3.99173 -0.000622112 0)
(3.99171 -0.0007325 0)
(3.99168 -0.00080259 0)
(3.99166 -0.000975099 0)
(3.99169 -0.0010352 0)
(3.99165 -0.000836756 0)
(4.06324 -0.334787 0)
(4.06325 -0.334809 0)
(4.06328 -0.334824 0)
(4.0633 -0.334793 0)
(4.0633 -0.334742 0)
(4.06329 -0.334723 0)
(4.06331 -0.334675 0)
(4.06333 -0.334653 0)
(4.06336 -0.334647 0)
(4.06337 -0.334629 0)
(4.06338 -0.334602 0)
(4.06339 -0.334578 0)
(4.0634 -0.334552 0)
(4.06342 -0.33453 0)
(4.06342 -0.33453 0)
(4.06343 -0.334534 0)
(4.06345 -0.334505 0)
(4.06346 -0.334471 0)
(4.06347 -0.334405 0)
(4.06346 -0.334376 0)
(4.06346 -0.334346 0)
(4.06351 -0.334283 0)
(4.06353 -0.334246 0)
(4.06357 -0.334134 0)
(4.06358 -0.334038 0)
(4.06356 -0.334026 0)
(4.06355 -0.33397 0)
(4.06357 -0.333883 0)
(4.0636 -0.333861 0)
(4.06366 -0.333837 0)
(4.06374 -0.333703 0)
(4.06377 -0.333587 0)
(4.06376 -0.333548 0)
(4.06376 -0.333487 0)
(4.06376 -0.333363 0)
(4.06373 -0.333252 0)
(4.06367 -0.333182 0)
(4.06363 -0.333154 0)
(4.06361 -0.333134 0)
(4.0636 -0.333118 0)
(4.0636 -0.333121 0)
(4.06362 -0.333164 0)
(4.0637 -0.333204 0)
(4.06381 -0.333284 0)
(4.06391 -0.333344 0)
(4.06399 -0.333384 0)
(4.06407 -0.33342 0)
(4.06413 -0.333417 0)
(4.06414 -0.333339 0)
(4.06411 -0.333292 0)
(4.0641 -0.333261 0)
(4.06406 -0.333217 0)
(4.06397 -0.333286 0)
(4.06383 -0.333368 0)
(4.06377 -0.333407 0)
(4.06369 -0.333442 0)
(4.06361 -0.333468 0)
(4.06356 -0.333603 0)
(4.06359 -0.333727 0)
(4.06354 -0.333452 0)
(4.06315 -0.331621 0)
(4.06191 -0.327033 0)
(4.05901 -0.314348 0)
(4.05367 -0.292394 0)
(4.04614 -0.25345 0)
(4.03679 -0.203501 0)
(4.02991 -0.1562 0)
(4.02123 -0.101855 0)
(4.02254 -0.0843054 0)
(4.01677 -0.0579928 0)
(4.01088 -0.0378486 0)
(4.00514 -0.0207384 0)
(4.00247 -0.0110317 0)
(3.99387 0.00136227 0)
(3.99457 0.00316144 0)
(3.99374 0.00117917 0)
(3.99217 -0.00303669 0)
(3.99213 -0.00505413 0)
(3.99231 -0.00476893 0)
(3.99288 -0.00302767 0)
(3.99371 -0.000317633 0)
(3.99364 -0.000194386 0)
(3.99319 -0.000873704 0)
(3.99277 -0.00259327 0)
(3.99285 -0.00261516 0)
(3.99299 -0.00187828 0)
(3.99313 -0.00123705 0)
(3.993 -0.00116134 0)
(3.99281 -0.00185115 0)
(3.99247 -0.00161921 0)
(3.99247 -0.0012917 0)
(3.99239 -0.000814911 0)
(3.99231 -0.000387449 0)
(3.99237 -0.000527246 0)
(3.99234 -0.000715735 0)
(3.99231 -0.00080728 0)
(3.99227 -0.000983462 0)
(3.9922 -0.00118904 0)
(3.99221 -0.0011539 0)
(3.99202 -0.000982226 0)
(4.06387 -0.334402 0)
(4.06388 -0.334397 0)
(4.06389 -0.334395 0)
(4.0639 -0.334381 0)
(4.0639 -0.334351 0)
(4.06389 -0.334319 0)
(4.06391 -0.334277 0)
(4.06394 -0.33425 0)
(4.06396 -0.334228 0)
(4.06398 -0.334224 0)
(4.06398 -0.334211 0)
(4.06398 -0.334187 0)
(4.06399 -0.334159 0)
(4.06401 -0.334138 0)
(4.06402 -0.334148 0)
(4.06403 -0.334171 0)
(4.06404 -0.334189 0)
(4.06403 -0.334178 0)
(4.06403 -0.334147 0)
(4.06404 -0.334132 0)
(4.06406 -0.334076 0)
(4.06408 -0.334038 0)
(4.06408 -0.33406 0)
(4.06407 -0.334082 0)
(4.06408 -0.334032 0)
(4.06412 -0.333911 0)
(4.06411 -0.333833 0)
(4.06411 -0.333848 0)
(4.06413 -0.333848 0)
(4.06423 -0.33372 0)
(4.06426 -0.333592 0)
(4.06423 -0.333523 0)
(4.06417 -0.333481 0)
(4.06412 -0.333414 0)
(4.06406 -0.333311 0)
(4.06398 -0.333227 0)
(4.06389 -0.333173 0)
(4.06383 -0.333131 0)
(4.06381 -0.333099 0)
(4.06381 -0.333058 0)
(4.06383 -0.333026 0)
(4.06386 -0.333059 0)
(4.06392 -0.333121 0)
(4.06398 -0.333164 0)
(4.06403 -0.333226 0)
(4.06406 -0.333329 0)
(4.06406 -0.333417 0)
(4.06405 -0.333474 0)
(4.06404 -0.333528 0)
(4.06405 -0.333584 0)
(4.06407 -0.333612 0)
(4.06407 -0.33361 0)
(4.06404 -0.333605 0)
(4.06395 -0.333584 0)
(4.06376 -0.333554 0)
(4.06368 -0.333561 0)
(4.06352 -0.333566 0)
(4.06337 -0.333723 0)
(4.06334 -0.33392 0)
(4.06346 -0.334111 0)
(4.06364 -0.334287 0)
(4.06368 -0.334182 0)
(4.06351 -0.333675 0)
(4.06295 -0.331927 0)
(4.06147 -0.326514 0)
(4.05809 -0.313047 0)
(4.05167 -0.284223 0)
(4.04232 -0.240027 0)
(4.03124 -0.173872 0)
(4.02391 -0.110119 0)
(4.01461 -0.0475787 0)
(4.01272 -0.0150542 0)
(4.00408 0.0186148 0)
(4.00041 0.0246067 0)
(3.99563 0.0064835 0)
(3.99349 -0.00377998 0)
(3.99267 -0.00701737 0)
(3.9931 -0.00664136 0)
(3.99485 -0.00290161 0)
(3.99553 0.00332764 0)
(3.99533 0.00266515 0)
(3.99423 0.000152948 0)
(3.99339 -0.00245824 0)
(3.99333 -0.00267196 0)
(3.9935 -0.002004 0)
(3.99367 -0.000634239 0)
(3.99357 -0.00082117 0)
(3.99324 -0.00156803 0)
(3.99292 -0.00216498 0)
(3.99286 -0.00175598 0)
(3.99295 -0.00099293 0)
(3.99281 -0.000214138 0)
(3.99271 -0.00023914 0)
(3.99266 -0.000528562 0)
(3.99259 -0.000651654 0)
(3.99254 -0.000831538 0)
(3.9925 -0.00096855 0)
(3.99232 -0.00115361 0)
(3.99229 -0.00108795 0)
(3.99218 -0.0009588 0)
(4.06399 -0.334127 0)
(4.064 -0.334116 0)
(4.06401 -0.334112 0)
(4.06402 -0.334103 0)
(4.06401 -0.334074 0)
(4.06402 -0.334034 0)
(4.06404 -0.334006 0)
(4.06405 -0.33396 0)
(4.06406 -0.333942 0)
(4.06407 -0.333964 0)
(4.06407 -0.333951 0)
(4.06407 -0.333911 0)
(4.06408 -0.333896 0)
(4.06409 -0.333923 0)
(4.06409 -0.333973 0)
(4.0641 -0.334003 0)
(4.0641 -0.333999 0)
(4.0641 -0.333981 0)
(4.0641 -0.333984 0)
(4.0641 -0.334009 0)
(4.06411 -0.334017 0)
(4.06409 -0.333962 0)
(4.0641 -0.333933 0)
(4.0641 -0.333942 0)
(4.0641 -0.333962 0)
(4.06413 -0.333944 0)
(4.06414 -0.333934 0)
(4.06416 -0.333983 0)
(4.06418 -0.334 0)
(4.06424 -0.333887 0)
(4.06427 -0.333817 0)
(4.06423 -0.333685 0)
(4.06418 -0.333623 0)
(4.06409 -0.333557 0)
(4.06402 -0.333463 0)
(4.06395 -0.333384 0)
(4.06386 -0.333336 0)
(4.06378 -0.333305 0)
(4.06373 -0.333277 0)
(4.06371 -0.333232 0)
(4.06372 -0.333186 0)
(4.06373 -0.333179 0)
(4.06376 -0.333216 0)
(4.06379 -0.333263 0)
(4.06383 -0.333325 0)
(4.06382 -0.333424 0)
(4.06378 -0.333525 0)
(4.06372 -0.33362 0)
(4.06368 -0.333731 0)
(4.06373 -0.333842 0)
(4.06384 -0.333927 0)
(4.0639 -0.333962 0)
(4.06391 -0.333959 0)
(4.06387 -0.333925 0)
(4.06372 -0.333847 0)
(4.0635 -0.33378 0)
(4.06337 -0.333752 0)
(4.06314 -0.333842 0)
(4.06303 -0.334003 0)
(4.06309 -0.334124 0)
(4.06327 -0.334276 0)
(4.06345 -0.334325 0)
(4.06343 -0.334224 0)
(4.06338 -0.334174 0)
(4.06329 -0.333998 0)
(4.06305 -0.333264 0)
(4.06241 -0.331054 0)
(4.06047 -0.323458 0)
(4.05662 -0.308005 0)
(4.04805 -0.266627 0)
(4.04118 -0.227573 0)
(4.0284 -0.153013 0)
(4.02353 -0.116654 0)
(4.01814 -0.0747502 0)
(4.02044 -0.0576613 0)
(4.00855 -0.0321132 0)
(4.002 -0.0154713 0)
(3.99965 -0.00613772 0)
(3.99696 0.00102365 0)
(3.99543 0.000498333 0)
(3.99284 -0.00299923 0)
(3.99223 -0.0048983 0)
(3.99236 -0.00459665 0)
(3.99286 -0.00274414 0)
(3.99329 -0.000456952 0)
(3.99321 -0.000530226 0)
(3.99285 -0.00180451 0)
(3.99234 -0.00310955 0)
(3.99239 -0.0025685 0)