/*--------------------------------*- C++ -*----------------------------------*\
  =========                 |
  \\      /  F ield         | OpenFOAM: The Open Source CFD Toolbox
   \\    /   O peration     | Website:  https://openfoam.org
    \\  /    A nd           | Version:  7
     \\/     M anipulation  |
\*---------------------------------------------------------------------------*/
FoamFile
{
    version     2.0;
    format      ascii;
    class       volVectorField;
    location    "8.5";
    object      U;
}
// * * * * * * * * * * * * * * * * * * * * * * * * * * * * * * * * * * * * * //

dimensions      [0 1 -1 0 0 0 0];

internalField   nonuniform List<vector> 
1750
(
(2.25339 0.178839 0)
(2.30285 0.743777 0)
(2.34187 0.805557 0)
(2.52633 0.691102 0)
(2.64121 0.550074 0)
(2.70354 0.371629 0)
(2.73089 0.289374 0)
(2.71055 0.221209 0)
(2.68803 0.132806 0)
(2.66589 0.100605 0)
(2.31976 -1.76518 0)
(2.34589 -1.07748 0)
(2.19483 -0.170399 0)
(2.12325 0.350149 0)
(2.16427 0.301473 0)
(2.26908 0.248595 0)
(2.40059 0.286105 0)
(2.44508 0.211275 0)
(2.46192 0.138036 0)
(2.51197 0.124882 0)
(2.67981 -2.06818 0)
(2.79537 -1.96466 0)
(2.751 -1.69317 0)
(2.40194 -0.775018 0)
(2.28766 -0.331581 0)
(2.25933 -0.0731057 0)
(2.28141 0.0196512 0)
(2.35996 0.123614 0)
(2.3908 0.0757102 0)
(2.47079 0.0734272 0)
(2.87926 -1.90129 0)
(2.96351 -1.8071 0)
(3.10995 -1.57124 0)
(3.10129 -1.62054 0)
(3.03836 -1.57296 0)
(2.71168 -0.93975 0)
(2.57938 -0.525723 0)
(2.61786 -0.235198 0)
(2.59194 -0.0152524 0)
(2.54598 0.0696012 0)
(3.0322 -1.66579 0)
(3.02677 -1.66373 0)
(3.05458 -1.48081 0)
(3.10091 -1.45175 0)
(3.1514 -1.33084 0)
(3.20201 -1.38303 0)
(3.15777 -1.33214 0)
(3.0491 -1.08094 0)
(2.95032 -0.774158 0)
(2.84162 -0.302466 0)
(3.16305 -1.18665 0)
(3.15604 -1.17413 0)
(3.1314 -1.24897 0)
(3.13471 -1.15737 0)
(3.14196 -1.15529 0)
(3.14138 -1.11166 0)
(3.13702 -1.08056 0)
(3.14243 -1.04236 0)
(3.13779 -1.05364 0)
(3.0816 -0.881749 0)
(3.16297 -0.868629 0)
(3.16003 -0.883005 0)
(3.15722 -0.875765 0)
(3.14688 -0.877351 0)
(3.14317 -0.868949 0)
(3.13592 -0.879888 0)
(3.12939 -0.896193 0)
(3.12868 -0.895725 0)
(3.12809 -0.89259 0)
(3.14828 -0.876776 0)
(3.12131 -0.50176 0)
(3.12724 -0.53105 0)
(3.12741 -0.564615 0)
(3.12399 -0.587327 0)
(3.12212 -0.611135 0)
(3.12412 -0.622601 0)
(3.1282 -0.623997 0)
(3.12767 -0.645947 0)
(3.12651 -0.640549 0)
(3.12988 -0.661999 0)
(3.04857 -0.170128 0)
(3.05704 -0.198765 0)
(3.07051 -0.256394 0)
(3.07392 -0.280475 0)
(3.07972 -0.315676 0)
(3.08719 -0.35972 0)
(3.09373 -0.400115 0)
(3.09493 -0.41194 0)
(3.10494 -0.463459 0)
(3.1097 -0.517609 0)
(2.995 0.019337 0)
(3.00254 0.00184087 0)
(3.00977 -0.0176955 0)
(3.01794 -0.0455344 0)
(3.02657 -0.0759258 0)
(3.03431 -0.104187 0)
(3.04521 -0.146592 0)
(3.05506 -0.187856 0)
(3.06402 -0.22296 0)
(3.07585 -0.275987 0)
(2.98368 0.0506482 0)
(2.98489 0.0497136 0)
(2.98676 0.0464538 0)
(2.9886 0.0428576 0)
(2.99134 0.0366661 0)
(2.99553 0.0265371 0)
(3.00128 0.0115386 0)
(3.0084 -0.00884363 0)
(3.01675 -0.034303 0)
(3.03233 -0.0870968 0)
(2.98725 0.0390937 0)
(2.98757 0.0392116 0)
(2.98721 0.0411337 0)
(2.9873 0.0411717 0)
(2.98749 0.0408131 0)
(2.98776 0.0402303 0)
(2.98827 0.0392659 0)
(2.98946 0.0370337 0)
(2.99125 0.0340532 0)
(2.99751 0.0193308 0)
(2.99642 0.00958915 0)
(2.99529 0.0129391 0)
(2.99441 0.0153755 0)
(2.99262 0.0198618 0)
(2.99159 0.0227956 0)
(2.99021 0.0270308 0)
(2.98983 0.0290003 0)
(2.98888 0.0319598 0)
(2.98931 0.0321045 0)
(2.98971 0.0314308 0)
(2.99977 0.000539205 0)
(2.99962 0.00087096 0)
(2.99937 0.00143176 0)
(2.99895 0.00229381 0)
(2.9983 0.00372727 0)
(2.99746 0.00563685 0)
(2.99637 0.00831414 0)
(2.99507 0.0115743 0)
(2.99356 0.0152695 0)
(2.99201 0.0206893 0)
(3 7.05049e-06 0)
(2.99999 1.28968e-05 0)
(2.99998 2.55722e-05 0)
(2.99996 5.02245e-05 0)
(2.99992 0.000107819 0)
(2.99984 0.000211859 0)
(2.99967 0.000443042 0)
(2.99935 0.00082118 0)
(2.9988 0.001532 0)
(2.99703 0.0035389 0)
(2.05413 -1.56787 0)
(2.19517 -1.69748 0)
(2.47158 -2.02381 0)
(2.76964 -1.92691 0)
(3.02268 -1.5791 0)
(3.1533 -1.22386 0)
(3.16005 -0.872289 0)
(3.11641 -0.484017 0)
(3.04483 -0.149838 0)
(2.99162 0.0275138 0)
(2.98315 0.0508185 0)
(2.98859 0.0334072 0)
(2.99731 0.00739996 0)
(2.99986 0.000354973 0)
(3 4.53423e-06 0)
(1.99633 -1.59611 0)
(2.27435 -1.78252 0)
(2.53624 -2.02888 0)
(2.84471 -1.84355 0)
(3.09395 -1.37028 0)
(3.14624 -1.14522 0)
(3.13926 -0.772098 0)
(3.09862 -0.377096 0)
(3.02427 -0.0623025 0)
(2.98434 0.0498349 0)
(2.98273 0.0519927 0)
(2.99091 0.0273585 0)
(2.99854 0.00410334 0)
(2.99994 0.000138663 0)
(3 1.68853e-06 0)
(1.89687 -1.52757 0)
(2.20382 -1.74939 0)
(2.53429 -2.00051 0)
(2.91751 -1.64771 0)
(3.09811 -1.35767 0)
(3.11772 -1.14834 0)
(3.13803 -0.627542 0)
(3.07074 -0.213454 0)
(3.00322 0.00272961 0)
(2.9809 0.0579025 0)
(2.98243 0.0528681 0)
(2.99198 0.0244083 0)
(2.99909 0.00251758 0)
(2.99997 6.63381e-05 0)
(3 7.36501e-07 0)
(1.81477 -1.45804 0)
(2.18052 -1.73634 0)
(2.56454 -1.95678 0)
(2.96213 -1.45389 0)
(3.03474 -1.50074 0)
(3.15761 -0.896097 0)
(3.12294 -0.428653 0)
(3.05001 -0.142923 0)
(2.99194 0.0293015 0)
(2.97931 0.0615702 0)
(2.98306 0.0506358 0)
(2.99482 0.015242 0)
(2.99956 0.0012031 0)
(2.99999 2.81051e-05 0)
(3 2.98871e-07 0)
(1.63669 -1.43918 0)
(2.13872 -1.77671 0)
(2.65995 -1.71961 0)
(2.93074 -1.62067 0)
(3.0938 -1.31916 0)
(3.13201 -0.582923 0)
(3.10351 -0.348719 0)
(3.02733 -0.0773394 0)
(2.98283 0.0539498 0)
(2.97843 0.0635666 0)
(2.98501 0.0432122 0)
(2.99674 0.00966065 0)
(2.99979 0.000579725 0)
(3 1.13592e-05 0)
(3 1.15667e-07 0)
(1.49337 -1.30369 0)
(2.10277 -1.81588 0)
(2.64903 -1.69317 0)
(2.85148 -1.68748 0)
(3.11524 -0.835509 0)
(3.14398 -0.634241 0)
(3.07881 -0.273543 0)
(3.00641 -0.00810237 0)
(2.97819 0.0659545 0)
(2.97797 0.0643517 0)
(2.98924 0.031491 0)
(2.99791 0.00626268 0)
(2.99991 0.000244791 0)
(3 4.42043e-06 0)
(3 4.31371e-08 0)
(1.29138 -1.38426 0)
(2.10288 -1.74129 0)
(2.56318 -1.77704 0)
(2.96438 -1.33642 0)
(3.14108 -0.747978 0)
(3.12233 -0.50167 0)
(3.04237 -0.110395 0)
(2.98884 0.0440032 0)
(2.97539 0.0714265 0)
(2.97773 0.0611424 0)
(2.99053 0.0272576 0)
(2.99903 0.00272753 0)
(2.99996 9.45832e-05 0)
(3 1.58605e-06 0)
(3 1.52047e-08 0)
(1.07733 -1.32941 0)
(2.1016 -1.64634 0)
(2.6325 -1.6426 0)
(3.02224 -0.866285 0)
(3.13008 -0.80255 0)
(3.08344 -0.241829 0)
(3.01748 -0.0249886 0)
(2.97919 0.0650474 0)
(2.9745 0.0721584 0)
(2.98258 0.0481007 0)
(2.99467 0.0149518 0)
(2.99956 0.00122399 0)
(2.99999 3.28269e-05 0)
(3 5.28084e-07 0)
(3 4.99541e-09 0)
(1.1313 -0.976312 0)
(2.12366 -1.36085 0)
(2.70358 -1.41008 0)
(3.08269 -0.903481 0)
(3.13415 -0.463922 0)
(3.05962 -0.137724 0)
(2.9948 0.0307925 0)
(2.97394 0.0754565 0)
(2.97433 0.0715452 0)
(2.98418 0.043415 0)
(2.99735 0.00747709 0)
(2.99984 0.000456468 0)
(3 1.04431e-05 0)
(3 1.62581e-07 0)
(3 1.52383e-09 0)
(1.2595 -0.866138 0)
(2.18912 -1.3755 0)
(2.81793 -1.09756 0)
(3.11785 -0.761876 0)
(3.09162 -0.214242 0)
(3.02407 -0.0337868 0)
(2.97906 0.0671808 0)
(2.97258 0.0777549 0)
(2.9772 0.0619243 0)
(2.99018 0.0271767 0)
(2.99862 0.00399748 0)
(2.99994 0.000152516 0)
(3 3.14213e-06 0)
(3 4.68223e-08 0)
(3 4.3015e-10 0)
(1.10039 -0.556556 0)
(2.16274 -1.2878 0)
(2.98998 -0.571235 0)
(3.12476 -0.321395 0)
(3.06472 -0.123416 0)
(2.99124 0.0459146 0)
(2.97215 0.0817133 0)
(2.97223 0.0784836 0)
(2.98011 0.0551084 0)
(2.99539 0.013623 0)
(2.99962 0.00122661 0)
(2.99999 4.19859e-05 0)
(3 8.02516e-07 0)
(3 1.18203e-08 0)
(3 1.08375e-10 0)
(0.346994 0.496318 0)
(2.52167 -0.336701 0)
(3.08575 -0.569856 0)
(3.09993 -0.184912 0)
(3.01633 0.00730175 0)
(2.97658 0.0766422 0)
(2.97066 0.0849514 0)
(2.97295 0.074764 0)
(2.98593 0.0384377 0)
(2.99719 0.00819617 0)
(2.99985 0.000464758 0)
(3 1.17473e-05 0)
(3 2.01908e-07 0)
(3 2.79485e-09 0)
(3 2.4362e-11 0)
(1.10418 0.407751 0)
(2.88259 -0.284171 0)
(3.14268 -0.202067 0)
(3.05212 -0.0420121 0)
(2.98378 0.0679536 0)
(2.97044 0.0891345 0)
(2.97026 0.0859453 0)
(2.97587 0.0653137 0)
(2.9921 0.0207411 0)
(2.99913 0.00241193 0)
(2.99996 0.000113047 0)
(3 2.61056e-06 0)
(3 4.36997e-08 0)
(3 5.90137e-10 0)
(3 4.9419e-12 0)
(2.07454 0.267598 0)
(3.15284 -0.214781 0)
(3.10002 -0.0618591 0)
(2.99162 0.0709525 0)
(2.97014 0.0895016 0)
(2.96952 0.091138 0)
(2.97152 0.0783095 0)
(2.98526 0.0370869 0)
(2.9964 0.00906393 0)
(2.99974 0.000681397 0)
(2.99999 2.17485e-05 0)
(3 4.51347e-07 0)
(3 7.19362e-09 0)
(3 9.49027e-11 0)
(3 7.84829e-13 0)
(2.68427 0.105851 0)
(3.12802 0.00645834 0)
(3.00631 0.0688837 0)
(2.96793 0.0945728 0)
(2.96822 0.091532 0)
(2.96843 0.0897895 0)
(2.97854 0.057057 0)
(2.99143 0.0213349 0)
(2.99889 0.00266293 0)
(2.99995 0.000137957 0)
(3 3.56747e-06 0)
(3 6.56686e-08 0)
(3 9.82084e-10 0)
(3 1.20014e-11 0)
(3 9.20468e-14 0)
(2.948 0.0949994 0)
(2.95279 0.0943967 0)
(2.95887 0.101133 0)
(2.96404 0.0973104 0)
(2.96849 0.0905423 0)
(2.97762 0.067727 0)
(2.9865 0.035149 0)
(2.99708 0.00665591 0)
(2.99985 0.00026714 0)
(3 2.65613e-06 0)
(3 1.29232e-07 0)
(3 4.47209e-10 0)
(3 3.02157e-11 0)
(3 1.92376e-13 0)
(3 2.31165e-15 0)
(2.94659 0.0951835 0)
(2.95027 0.0927518 0)
(2.95768 0.0985432 0)
(2.96489 0.0960009 0)
(2.97029 0.0908855 0)
(2.97611 0.0742687 0)
(2.98671 0.0373525 0)
(2.99704 0.00686391 0)
(2.99976 0.000504696 0)
(2.99999 1.52564e-05 0)
(3 2.70577e-07 0)
(3 3.55366e-09 0)
(3 3.81474e-11 0)
(3 3.51198e-13 0)
(3 2.76095e-15 0)
(2.94583 0.0953521 0)
(2.94978 0.0944562 0)
(2.95683 0.0978608 0)
(2.96532 0.0948887 0)
(2.97257 0.0908796 0)
(2.97946 0.0587242 0)
(2.99228 0.0181975 0)
(2.99894 0.00219494 0)
(2.99996 7.67983e-05 0)
(3 1.28473e-06 0)
(3 1.48794e-08 0)
(3 1.39819e-10 0)
(3 1.11279e-12 0)
(3 1.20245e-14 0)
(3 5.74181e-16 0)
(2.94466 0.0953776 0)
(2.94943 0.0964337 0)
(2.95654 0.0974948 0)
(2.96743 0.0903722 0)
(2.97676 0.0760051 0)
(2.98531 0.0430211 0)
(2.99497 0.0123951 0)
(2.99953 0.000975777 0)
(2.99999 2.81303e-05 0)
(3 4.33515e-07 0)
(3 4.86771e-09 0)
(3 4.49004e-11 0)
(3 3.55586e-13 0)
(3 7.37389e-15 0)
(3 6.90574e-16 0)
(2.94333 0.094969 0)
(2.94929 0.0989209 0)
(2.95804 0.0975787 0)
(2.96863 0.0885237 0)
(2.97701 0.0717414 0)
(2.98618 0.0387519 0)
(2.99711 0.00653525 0)
(2.99981 0.000371893 0)
(3 8.44259e-06 0)
(3 1.11518e-07 0)
(3 1.16049e-09 0)
(3 1.00655e-11 0)
(3 8.06223e-14 0)
(3 5.68245e-15 0)
(3 6.25009e-16 0)
(2.94178 0.0945962 0)
(2.94947 0.0996082 0)
(2.96045 0.0973036 0)
(2.97042 0.0875967 0)
(2.97778 0.0663024 0)
(2.99098 0.0219365 0)
(2.99863 0.002813 0)
(2.99994 0.000124779 0)
(3 2.26957e-06 0)
(3 2.87757e-08 0)
(3 2.86965e-10 0)
(3 2.40776e-12 0)
(3 2.30453e-14 0)
(3 3.71306e-15 0)
(3 5.38922e-16 0)
(2.94071 0.0943175 0)
(2.94834 0.0991644 0)
(2.96237 0.0932279 0)
(2.97615 0.0756287 0)
(2.98588 0.0438804 0)
(2.99483 0.0125842 0)
(2.99944 0.00116818 0)
(2.99998 3.41235e-05 0)
(3 5.72347e-07 0)
(3 6.67771e-09 0)
(3 6.35142e-11 0)
(3 5.14673e-13 0)
(3 6.83813e-15 0)
(3 2.14141e-15 0)
(3 2.00501e-16 0)
(2.94006 0.0934606 0)
(2.94724 0.0978068 0)
(2.96431 0.0900281 0)
(2.98046 0.0664025 0)
(2.9881 0.0368558 0)
(2.99716 0.00676443 0)
(2.99981 0.0003743 0)
(2.99999 9.47857e-06 0)
(3 1.34969e-07 0)
(3 1.47412e-09 0)
(3 1.3499e-11 0)
(3 1.07911e-13 0)
(3 4.10748e-15 0)
(3 8.19464e-16 0)
(3 -7.71201e-16 0)
(2.93887 0.093223 0)
(2.94642 0.0968404 0)
(2.96614 0.0872629 0)
(2.98096 0.064736 0)
(2.9919 0.0221506 0)
(2.99879 0.00258054 0)
(2.99994 0.000118271 0)
(3 2.19612e-06 0)
(3 2.82948e-08 0)
(3 2.97998e-10 0)
(3 2.59473e-12 0)
(3 2.2657e-14 0)
(3 2.6296e-15 0)
(3 -3.39716e-16 0)
(3 -1.78362e-15 0)
(2.93696 0.0908068 0)
(2.94805 0.0925776 0)
(2.9758 0.071989 0)
(2.9871 0.0452209 0)
(2.99599 0.0104158 0)
(2.99954 0.000996674 0)
(2.99999 2.76577e-05 0)
(3 4.57001e-07 0)
(3 5.57645e-09 0)
(3 5.46775e-11 0)
(3 4.64591e-13 0)
(3 6.63362e-15 0)
(3 1.73998e-15 0)
(3 -1.26052e-15 0)
(3 -3.20833e-15 0)
(2.93484 0.087579 0)
(2.95042 0.0906532 0)
(2.97814 0.0624206 0)
(2.99128 0.0289674 0)
(2.9979 0.00540099 0)
(2.99987 0.000259791 0)
(3 6.16578e-06 0)
(3 8.86737e-08 0)
(3 9.77442e-10 0)
(3 9.22672e-12 0)
(3 7.85124e-14 0)
(3 3.49499e-15 0)
(3 1.00565e-15 0)
(3 -3.36341e-15 0)
(3 -3.52995e-15 0)
(2.93366 0.0895233 0)
(2.95431 0.0841798 0)
(2.98163 0.0526637 0)
(2.99432 0.0171961 0)
(2.99927 0.00167689 0)
(2.99997 6.39808e-05 0)
(3 1.17746e-06 0)
(3 1.49236e-08 0)
(3 1.60952e-10 0)
(3 1.4881e-12 0)
(3 1.44884e-14 0)
(3 3.27005e-15 0)
(3 5.16382e-16 0)
(3 -4.77245e-15 0)
(3 -3.75732e-15 0)
(2.93124 0.0840358 0)
(2.96318 0.0673304 0)
(2.99033 0.0312542 0)
(2.99785 0.00701359 0)
(2.99981 0.00043317 0)
(2.99999 1.15695e-05 0)
(3 1.75725e-07 0)
(3 2.28753e-09 0)
(3 2.45112e-11 0)
(3 2.28944e-13 0)
(3 4.56182e-15 0)
(3 3.40755e-15 0)
(3 -1.04873e-16 0)
(3 -4.76083e-15 0)
(3 -3.73008e-15 0)
(2.92983 0.076832 0)
(2.97 0.0546883 0)
(2.9944 0.0209956 0)
(2.99936 0.00218165 0)
(2.99996 9.20199e-05 0)
(3 1.6848e-06 0)
(3 2.64392e-08 0)
(3 3.2857e-10 0)
(3 3.83691e-12 0)
(3 3.73149e-14 0)
(3 2.10308e-15 0)
(3 2.85754e-15 0)
(3 5.19294e-16 0)
(3 -2.42451e-15 0)
(3 -2.92216e-15 0)
(2.92561 0.0805835 0)
(2.98326 0.0349562 0)
(2.99922 0.00689346 0)
(2.99988 0.000509752 0)
(2.99999 1.30096e-05 0)
(3 2.55431e-07 0)
(3 3.91506e-09 0)
(3 5.82035e-11 0)
(3 7.50209e-13 0)
(3 6.64304e-15 0)
(3 1.37672e-15 0)
(3 2.31092e-15 0)
(3 6.87695e-17 0)
(3 -1.34668e-15 0)
(3 -1.32006e-15 0)
(2.92944 0.0674426 0)
(2.99676 0.0133038 0)
(3.00019 0.00159328 0)
(2.99999 7.54726e-05 0)
(3 2.21394e-06 0)
(3 4.96464e-08 0)
(3 9.38997e-10 0)
(3 1.4607e-11 0)
(3 1.94964e-13 0)
(3 1.8421e-15 0)
(3 1.33364e-15 0)
(3 2.11781e-15 0)
(3 -3.35861e-16 0)
(3 -1.05592e-15 0)
(3 -6.39598e-16 0)
(3 -6.99599e-16 0)
(3 -5.71893e-16 0)
(3 5.48303e-16 0)
(3 2.78411e-15 0)
(3 6.88882e-16 0)
(3 -1.31349e-15 0)
(3 -2.5283e-15 0)
(3 -2.41381e-15 0)
(3 -8.93652e-16 0)
(3 -6.70009e-16 0)
(3 1.39064e-15 0)
(3 2.2341e-15 0)
(3 -1.40904e-16 0)
(3 -5.91343e-16 0)
(3 -3.31653e-16 0)
(3 7.19077e-17 0)
(3 -6.46212e-16 0)
(3 3.51017e-16 0)
(3 1.92357e-15 0)
(3 3.05626e-16 0)
(3 -1.02312e-15 0)
(3 -2.37581e-15 0)
(3 -1.86943e-15 0)
(3 -2.76476e-16 0)
(3 -7.65199e-16 0)
(3 1.70113e-15 0)
(3 2.64901e-15 0)
(3 4.91918e-17 0)
(3 -1.01976e-15 0)
(3 -6.41455e-16 0)
(3 -2.44914e-15 0)
(3 -1.64341e-15 0)
(3 7.59342e-16 0)
(3 1.54384e-15 0)
(3 -1.49619e-16 0)
(3 -3.01256e-16 0)
(3 -1.17446e-15 0)
(3 -3.84425e-16 0)
(3 5.98648e-17 0)
(3 -1.13292e-15 0)
(3 2.49347e-15 0)
(3 3.02597e-15 0)
(3 3.1456e-17 0)
(3 -1.20141e-15 0)
(3 -9.81339e-16 0)
(3 -2.98634e-15 0)
(3 -1.32651e-15 0)
(3 8.56719e-16 0)
(3 1.58235e-16 0)
(3 2.85094e-16 0)
(3 5.2334e-16 0)
(3 -4.82166e-16 0)
(3 6.97183e-16 0)
(3 6.02264e-16 0)
(3 -1.93841e-15 0)
(3 1.8478e-15 0)
(3 3.45921e-15 0)
(3 1.11956e-16 0)
(3 -9.95905e-16 0)
(3 -9.42585e-16 0)
(3 -1.12161e-15 0)
(3 -1.45745e-15 0)
(3 -9.10837e-16 0)
(3 1.81159e-18 0)
(3 1.21681e-15 0)
(3 4.0851e-16 0)
(3 -8.153e-16 0)
(3 1.4943e-15 0)
(3 7.91644e-16 0)
(3 -2.03509e-15 0)
(3 1.19868e-15 0)
(3 3.19582e-15 0)
(3 4.2119e-16 0)
(3 -5.952e-16 0)
(3 -8.1505e-16 0)
(3 -7.40601e-16 0)
(3 -2.20041e-15 0)
(3 -1.55312e-15 0)
(3 7.0684e-16 0)
(3 8.25605e-16 0)
(3 2.47009e-16 0)
(3 -4.80441e-16 0)
(3 7.25365e-16 0)
(3 3.53923e-16 0)
(3 -1.52338e-15 0)
(3 4.01305e-16 0)
(3 2.92574e-15 0)
(3 1.20519e-15 0)
(3 -3.65843e-16 0)
(3 -7.98435e-16 0)
(3 -1.27183e-18 0)
(3 -3.89237e-15 0)
(3 -1.38025e-15 0)
(3 1.12227e-15 0)
(3 -7.78627e-17 0)
(3 -2.11399e-16 0)
(3 1.00997e-16 0)
(3 1.4204e-15 0)
(3 5.89158e-16 0)
(3 -1.3321e-15 0)
(3 2.42853e-16 0)
(3 1.42042e-15 0)
(3 1.87656e-15 0)
(3 -2.38664e-16 0)
(3 -1.32024e-15 0)
(3 9.42889e-17 0)
(3 -4.61354e-15 0)
(3 -1.51007e-15 0)
(3 -3.56983e-16 0)
(3 -6.83508e-16 0)
(3 4.44838e-16 0)
(3 4.65652e-16 0)
(3 1.90326e-15 0)
(3 1.88108e-16 0)
(3 -1.77585e-15 0)
(3 5.05237e-16 0)
(3 9.6066e-16 0)
(3 1.55219e-15 0)
(3 -1.35897e-17 0)
(3 -6.41891e-16 0)
(3 3.98138e-16 0)
(3 -4.36475e-16 0)
(3 -5.72611e-16 0)
(3 -4.15566e-16 0)
(3 -1.14474e-15 0)
(3 -5.88443e-16 0)
(3 1.08397e-15 0)
(3 9.17567e-16 0)
(3 1.64226e-16 0)
(3 -2.4673e-16 0)
(3 -3.5102e-16 0)
(3 1.46645e-16 0)
(3 -1.05917e-16 0)
(3 3.76112e-17 0)
(3 9.5682e-17 0)
(2.74623 0.0145175 0)
(3 -4.90239e-16 0)
(3 -3.58439e-17 0)
(3 -2.21451e-15 0)
(3 -3.54163e-15 0)
(3 -3.44385e-15 0)
(3 -1.49319e-15 0)
(3 2.26501e-16 0)
(3 1.14249e-15 0)
(3 8.63383e-16 0)
(2.92249 -0.0400838 0)
(3 -1.55154e-15 0)
(3 -1.33402e-15 0)
(3 -1.937e-15 0)
(3 -2.30382e-15 0)
(3 -1.67689e-15 0)
(3 1.24229e-15 0)
(3 1.27942e-15 0)
(3 9.10273e-16 0)
(3 3.99682e-16 0)
(2.99018 -0.00986937 0)
(3 -4.09759e-16 0)
(3 -9.5033e-18 0)
(3 9.15425e-16 0)
(3 2.39064e-15 0)
(3 2.80239e-15 0)
(3 2.28416e-15 0)
(3 1.83449e-15 0)
(3 2.22968e-15 0)
(3 2.83829e-16 0)
(2.99893 -0.0024382 0)
(3 6.58301e-16 0)
(3 -5.3446e-16 0)
(3 2.22083e-15 0)
(3 3.1078e-15 0)
(3 3.62695e-15 0)
(3 1.99439e-15 0)
(3 1.31779e-15 0)
(3 2.82336e-15 0)
(3 1.5472e-15 0)
(2.99986 -0.000418411 0)
(3 2.8962e-15 0)
(3 1.96391e-15 0)
(3 3.34852e-15 0)
(3 4.22391e-15 0)
(3 3.98052e-15 0)
(3 2.5271e-15 0)
(3 6.97111e-16 0)
(3 -1.32718e-16 0)
(3 7.8092e-16 0)
(2.99998 -6.63269e-05 0)
(3 4.32716e-15 0)
(3 5.3449e-15 0)
(3 5.12343e-15 0)
(3 3.47694e-15 0)
(3 2.05184e-15 0)
(3 1.99968e-15 0)
(3 4.15907e-16 0)
(3 -1.14221e-15 0)
(3 -4.02772e-16 0)
(3 -5.45952e-06 0)
(3 2.89255e-15 0)
(3 2.75492e-15 0)
(3 1.95972e-15 0)
(3 1.00218e-15 0)
(3 1.05053e-15 0)
(3 2.14094e-15 0)
(3 2.63025e-15 0)
(3 8.6595e-16 0)
(3 -3.52604e-16 0)
(3 -6.92625e-07 0)
(3 2.72745e-15 0)
(3 3.33569e-15 0)
(3 3.03446e-15 0)
(3 2.76377e-15 0)
(3 2.73994e-15 0)
(3 1.63384e-15 0)
(3 7.72528e-16 0)
(3 5.06233e-16 0)
(3 3.89103e-16 0)
(3 -3.51801e-08 0)
(3 1.19643e-15 0)
(3 1.37197e-15 0)
(3 1.08949e-15 0)
(3 -1.95146e-17 0)
(3 -8.6764e-16 0)
(3 -1.62786e-15 0)
(3 -1.86446e-15 0)
(3 -2.10077e-15 0)
(3 -7.19903e-16 0)
(3 -1.83745e-09 0)
(3 -3.82841e-15 0)
(3 -4.61374e-15 0)
(3 -2.67195e-15 0)
(3 -2.42677e-15 0)
(3 -2.40429e-15 0)
(3 -2.62279e-15 0)
(3 -2.70366e-15 0)
(3 -2.73027e-15 0)
(3 -1.93615e-15 0)
(3 -1.05207e-10 0)
(3 -4.03772e-15 0)
(3 -4.85658e-15 0)
(3 -4.1441e-15 0)
(3 -2.28316e-15 0)
(3 -9.69827e-16 0)
(3 -3.10648e-16 0)
(3 4.23077e-16 0)
(3 8.42101e-16 0)
(3 8.67292e-16 0)
(3 -2.58735e-12 0)
(3 -1.57669e-15 0)
(3 -1.30128e-15 0)
(3 -1.79026e-15 0)
(3 -2.0048e-15 0)
(3 -2.06245e-15 0)
(3 -6.51415e-16 0)
(3 1.21734e-16 0)
(3 4.64163e-16 0)
(3 6.42091e-16 0)
(3 -1.11908e-13 0)
(3 -1.54629e-15 0)
(3 -5.71657e-16 0)
(3 1.49156e-16 0)
(3 8.11858e-16 0)
(3 1.08361e-15 0)
(3 5.75408e-16 0)
(3 -3.51405e-16 0)
(3 -5.55532e-16 0)
(3 -1.80268e-16 0)
(3 -7.52245e-15 0)
(3 -2.77848e-15 0)
(3 -2.22161e-15 0)
(3 -6.03072e-16 0)
(3 -5.08742e-16 0)
(3 8.93184e-16 0)
(3 1.51171e-15 0)
(3 2.30342e-15 0)
(3 1.55511e-15 0)
(3 5.50438e-16 0)
(3 1.24442e-15 0)
(3 4.78048e-16 0)
(3 -1.0682e-16 0)
(3 -9.27108e-16 0)
(3 -2.01411e-15 0)
(3 -2.0331e-15 0)
(3 -1.20304e-15 0)
(3 -4.06107e-16 0)
(3 2.94093e-16 0)
(3 -5.4647e-17 0)
(3 3.58934e-15 0)
(3 2.62938e-15 0)
(3 2.22132e-15 0)
(3 2.39391e-16 0)
(3 -1.2016e-15 0)
(3 -1.61857e-15 0)
(3 -3.12741e-15 0)
(3 -3.50219e-15 0)
(3 -2.28986e-15 0)
(3 -5.51135e-16 0)
(3 1.0471e-15 0)
(3 1.72595e-15 0)
(3 2.24381e-15 0)
(3 1.76564e-15 0)
(3 9.69262e-16 0)
(3 1.18552e-16 0)
(3 -7.10004e-16 0)
(3 -1.95152e-15 0)
(3 -1.60483e-15 0)
(3 -5.15384e-16 0)
(3 6.11269e-17 0)
(3 4.61237e-16 0)
(3 8.63925e-16 0)
(3 1.11993e-15 0)
(3 8.24929e-16 0)
(3 9.36082e-16 0)
(3 1.52121e-15 0)
(3 2.04629e-15 0)
(3 1.45295e-15 0)
(3 6.63283e-16 0)
(3 1.81042e-15 0)
(3 1.59977e-15 0)
(3 7.19257e-16 0)
(3 5.60563e-16 0)
(3 4.67928e-16 0)
(3 9.00448e-16 0)
(3 1.32978e-15 0)
(3 1.66969e-15 0)
(3 1.49426e-15 0)
(3 9.35394e-16 0)
(3 1.19225e-15 0)
(3 1.04523e-15 0)
(3 7.23116e-16 0)
(3 6.18469e-16 0)
(3 4.45197e-16 0)
(3 4.10531e-16 0)
(3 1.36431e-16 0)
(3 -8.01852e-17 0)
(3 -3.0738e-16 0)
(3 -1.11064e-17 0)
(1.13276 -0.404235 0)
(1.46451 -0.714402 0)
(2.80549 -0.307281 0)
(2.99982 -0.00115146 0)
(2.99993 -0.000223927 0)
(2.99999 -3.34513e-05 0)
(3 -3.86406e-06 0)
(3 -3.26326e-07 0)
(3 -2.72016e-08 0)
(3 -1.49218e-09 0)
(3 -4.42506e-11 0)
(3 -2.72979e-12 0)
(3 -6.98245e-14 0)
(3 -6.26734e-15 0)
(3 1.93573e-15 0)
(3 3.17387e-15 0)
(3 8.70398e-16 0)
(3 3.6417e-16 0)
(3 2.46324e-15 0)
(3 1.01974e-15 0)
(1.0588 -0.648856 0)
(1.09616 -0.794637 0)
(1.33389 -0.804259 0)
(2.01131 -0.675741 0)
(2.97573 -0.0365488 0)
(2.99999 -2.39008e-05 0)
(3 -3.36688e-06 0)
(3 -1.75595e-07 0)
(3 -2.15766e-08 0)
(3 -1.26548e-09 0)
(3 -3.9793e-11 0)
(3 -2.31776e-12 0)
(3 -6.44608e-14 0)
(3 -4.25246e-15 0)
(3 3.10039e-15 0)
(3 2.70267e-15 0)
(3 2.29408e-16 0)
(3 8.05108e-16 0)
(3 2.4307e-15 0)
(3 8.1794e-16 0)
(1.12775 -0.744836 0)
(1.12013 -0.790193 0)
(1.19695 -0.815224 0)
(1.2538 -0.852084 0)
(1.63598 -0.767376 0)
(2.83122 -0.151035 0)
(3 6.5301e-07 0)
(3 -2.19211e-07 0)
(3 -1.20302e-08 0)
(3 -1.13712e-09 0)
(3 -3.62234e-11 0)
(3 -2.10169e-12 0)
(3 -5.78858e-14 0)
(3 -2.0539e-15 0)
(3 3.32736e-15 0)
(3 2.36618e-15 0)
(3 2.45198e-16 0)
(3 7.65194e-16 0)
(3 2.52306e-15 0)
(3 1.08047e-15 0)
(1.15313 -0.791663 0)
(1.14968 -0.806982 0)
(1.20662 -0.809066 0)
(1.23496 -0.859486 0)
(1.27245 -0.870307 0)
(1.55541 -0.821226 0)
(2.70408 -0.271131 0)
(3.00039 0.000705481 0)
(3 -1.25209e-06 0)
(3 7.73605e-11 0)
(3 -4.29199e-11 0)
(3 -1.76854e-12 0)
(3 -5.20473e-14 0)
(3 3.77795e-16 0)
(3 2.83245e-15 0)
(3 2.96529e-15 0)
(3 9.44527e-16 0)
(3 6.19669e-16 0)
(3 2.52739e-15 0)
(3 1.24981e-15 0)
(1.1684 -0.808516 0)
(1.16748 -0.819895 0)
(1.20779 -0.816633 0)
(1.23822 -0.854862 0)
(1.26466 -0.878718 0)
(1.28337 -0.891524 0)
(1.48283 -0.842851 0)
(2.61731 -0.287968 0)
(3.001 0.000726046 0)
(3 -1.33666e-07 0)
(3 -4.93569e-11 0)
(3 -1.51063e-12 0)
(3 -4.72377e-14 0)
(3 7.87983e-16 0)
(3 2.67914e-15 0)
(3 3.75635e-15 0)
(3 1.3769e-15 0)
(3 5.53403e-16 0)
(3 2.45572e-15 0)
(3 1.39625e-15 0)
(1.18389 -0.819606 0)
(1.1845 -0.830212 0)
(1.21494 -0.826268 0)
(1.23727 -0.858348 0)
(1.26423 -0.878878 0)
(1.29176 -0.888507 0)
(1.32869 -0.891617 0)
(1.56165 -0.835636 0)
(2.6618 -0.279267 0)
(3.00094 0.00101941 0)
(3 -1.98037e-06 0)
(3 2.47896e-09 0)
(3 -2.97535e-12 0)
(3 9.51759e-15 0)
(3 3.77624e-15 0)
(3 3.72579e-15 0)
(3 2.26045e-15 0)
(3 1.09067e-16 0)
(3 1.85109e-15 0)
(3 1.52725e-15 0)
(1.19738 -0.830242 0)
(1.19733 -0.839572 0)
(1.22046 -0.835837 0)
(1.24217 -0.861048 0)
(1.27359 -0.882951 0)
(1.30889 -0.888535 0)
(1.32821 -0.892529 0)
(1.32088 -0.900372 0)
(1.5512 -0.806101 0)
(2.68527 -0.210871 0)
(3.00131 0.000897082 0)
(3 -2.5409e-06 0)
(3 5.29175e-09 0)
(3 -3.99663e-13 0)
(3 -1.05059e-14 0)
(3 3.51367e-15 0)
(3 2.18816e-15 0)
(3 -3.6076e-16 0)
(3 8.67998e-16 0)
(3 1.47832e-15 0)
(1.20845 -0.839371 0)
(1.2086 -0.847145 0)
(1.22929 -0.842726 0)
(1.25116 -0.865369 0)
(1.28538 -0.885333 0)
(1.31796 -0.895807 0)
(1.33588 -0.907857 0)
(1.33471 -0.925685 0)
(1.37169 -0.917292 0)
(1.7413 -0.769921 0)
(2.81665 -0.125655 0)
(3.00082 0.000598422 0)
(3 -2.42314e-06 0)
(3 9.46315e-09 0)
(3 6.30982e-11 0)
(3 -2.86059e-13 0)
(3 -3.83936e-15 0)
(3 -1.25436e-15 0)
(3 7.85193e-16 0)
(3 1.52907e-15 0)
(1.21895 -0.847326 0)
(1.21943 -0.853825 0)
(1.23905 -0.848618 0)
(1.26016 -0.870762 0)
(1.29439 -0.888613 0)
(1.32308 -0.903946 0)
(1.33217 -0.922719 0)
(1.34823 -0.93021 0)
(1.36932 -0.936035 0)
(1.40837 -0.944089 0)
(2.0487 -0.665591 0)
(2.94306 -0.0475031 0)
(3.00027 0.00026685 0)
(3 -1.38294e-06 0)
(3 -5.42721e-10 0)
(3 1.39388e-11 0)
(3 5.8876e-15 0)
(3 -2.89345e-15 0)
(3 1.36308e-15 0)
(3 1.97421e-15 0)
(1.23007 -0.855473 0)
(1.23045 -0.860606 0)
(1.24827 -0.855886 0)
(1.26759 -0.877444 0)
(1.29939 -0.893102 0)
(1.32212 -0.91156 0)
(1.33603 -0.928617 0)
(1.35719 -0.934387 0)
(1.37638 -0.941251 0)
(1.37585 -0.9546 0)
(1.46515 -0.942474 0)
(2.36221 -0.470055 0)
(2.99293 -0.00875748 0)
(2.99993 4.25407e-05 0)
(3 -8.07457e-08 0)
(3 -1.16818e-09 0)
(3 2.26942e-12 0)
(3 8.04379e-14 0)
(3 7.28213e-16 0)
(3 1.68417e-15 0)
(1.24187 -0.864337 0)
(1.24187 -0.868151 0)
(1.25667 -0.86489 0)
(1.27279 -0.884717 0)
(1.30182 -0.898071 0)
(1.32238 -0.916472 0)
(1.34146 -0.929752 0)
(1.36255 -0.932361 0)
(1.37519 -0.941663 0)
(1.38203 -0.950488 0)
(1.40926 -0.944711 0)
(1.59529 -0.853366 0)
(2.6397 -0.270394 0)
(3.00071 -9.56034e-05 0)
(3 9.70255e-07 0)
(3 8.37943e-09 0)
(3 -7.11887e-11 0)
(3 -1.44814e-12 0)
(3 3.32908e-14 0)
(3 1.27204e-15 0)
(1.25312 -0.87309 0)
(1.25251 -0.876512 0)
(1.26404 -0.874665 0)
(1.27799 -0.891864 0)
(1.30604 -0.901405 0)
(1.32779 -0.919702 0)
(1.34942 -0.929275 0)
(1.36803 -0.931786 0)
(1.37751 -0.941869 0)
(1.39216 -0.947498 0)
(1.41691 -0.944437 0)
(1.43901 -0.961018 0)
(1.757 -0.78462 0)
(2.82863 -0.116223 0)
(3.00072 0.000362633 0)
(3 -1.23641e-06 0)
(3 -4.12181e-09 0)
(3 -2.30909e-10 0)
(3 1.33975e-12 0)
(3 5.24664e-14 0)
(1.26443 -0.882044 0)
(1.26389 -0.885121 0)
(1.27391 -0.883724 0)
(1.28696 -0.898131 0)
(1.31554 -0.905388 0)
(1.33876 -0.922733 0)
(1.36116 -0.930246 0)
(1.37819 -0.935072 0)
(1.39041 -0.944793 0)
(1.4121 -0.946158 0)
(1.43331 -0.95008 0)
(1.43607 -0.965239 0)
(1.52056 -0.950172 0)
(2.27067 -0.54877 0)
(2.97753 -0.0226948 0)
(3.00022 0.000227146 0)
(3.00001 7.5513e-06 0)
(3 -1.51156e-08 0)
(3 -1.37816e-10 0)
(3 -7.01591e-12 0)
(1.2843 -0.889628 0)
(1.2853 -0.893751 0)
(1.29569 -0.893172 0)
(1.31187 -0.906195 0)
(1.34266 -0.911206 0)
(1.36887 -0.927887 0)
(1.39296 -0.933982 0)
(1.40986 -0.940675 0)
(1.42446 -0.950318 0)
(1.44762 -0.950696 0)
(1.46403 -0.960355 0)
(1.46737 -0.968919 0)
(1.48558 -0.965325 0)
(1.62824 -0.885239 0)
(2.59679 -0.289805 0)
(2.99879 -0.00564721 0)
(3 -5.26328e-07 0)
(3 1.11907e-07 0)
(3 1.45642e-09 0)
(3 -1.73566e-12 0)
(1.37104 -0.906097 0)
(1.37746 -0.913248 0)
(1.39791 -0.908497 0)
(1.4212 -0.92048 0)
(1.4508 -0.922013 0)
(1.46991 -0.9358 0)
(1.48725 -0.938177 0)
(1.49354 -0.946556 0)
(1.50189 -0.953497 0)
(1.51448 -0.956375 0)
(1.51505 -0.966631 0)
(1.51229 -0.968959 0)
(1.52093 -0.966537 0)
(1.55632 -0.982614 0)
(2.09375 -0.683942 0)
(2.98678 -0.0147007 0)
(3.00065 0.00148477 0)
(3.00006 0.000103398 0)
(3 7.65937e-07 0)
(3 3.18901e-09 0)
(2.01053 -0.780472 0)
(2.04513 -0.664683 0)
(1.85878 -0.786208 0)
(1.79014 -0.840778 0)
(1.74217 -0.866168 0)
(1.71408 -0.8855 0)
(1.67985 -0.906907 0)
(1.65477 -0.92173 0)
(1.64049 -0.930752 0)
(1.62373 -0.945106 0)
(1.61468 -0.957111 0)
(1.59124 -0.965139 0)
(1.58821 -0.959624 0)
(1.5849 -0.973149 0)
(1.65822 -0.922229 0)
(2.29637 -0.562534 0)
(2.95727 -0.0508732 0)
(2.99975 -0.000610581 0)
(3 -2.18505e-06 0)
(3 -4.04537e-09 0)
(2.66463 -0.820161 0)
(2.52694 -0.261724 0)
(2.26884 -0.472761 0)
(2.14456 -0.606608 0)
(2.02859 -0.727995 0)
(1.95451 -0.782413 0)
(1.88173 -0.837285 0)
(1.84234 -0.857176 0)
(1.79106 -0.890442 0)
(1.76522 -0.90676 0)
(1.73043 -0.929666 0)
(1.69706 -0.944175 0)
(1.67447 -0.942851 0)
(1.65119 -0.954934 0)
(1.65919 -0.944311 0)
(1.79646 -0.882859 0)
(2.54715 -0.417465 0)
(2.98244 -0.0263968 0)
(2.9999 -0.000213904 0)
(3 -9.00691e-07 0)
(2.70414 -0.185052 0)
(2.74561 0.106386 0)
(2.51656 -0.261753 0)
(2.36922 -0.433848 0)
(2.28622 -0.517026 0)
(2.13986 -0.669196 0)
(2.08555 -0.721253 0)
(1.99189 -0.795273 0)
(1.94001 -0.830248 0)
(1.90361 -0.849978 0)
(1.84366 -0.890369 0)
(1.80697 -0.907669 0)
(1.75991 -0.925037 0)
(1.73606 -0.924001 0)
(1.70275 -0.936403 0)
(1.7107 -0.955523 0)
(2.07902 -0.781116 0)
(2.81095 -0.216349 0)
(2.99623 -0.00735521 0)
(2.99998 -3.73754e-05 0)
(2.78921 0.0670003 0)
(2.72708 0.241406 0)
(2.57875 -0.113836 0)
(2.53755 -0.237549 0)
(2.43806 -0.389242 0)
(2.32858 -0.513534 0)
(2.25223 -0.591748 0)
(2.14136 -0.700141 0)
(2.10187 -0.727381 0)
(2.01605 -0.794489 0)
(1.97727 -0.819853 0)
(1.90322 -0.864965 0)
(1.85903 -0.882918 0)
(1.82016 -0.892067 0)
(1.79169 -0.910739 0)
(1.74669 -0.948723 0)
(1.82437 -0.940086 0)
(2.37299 -0.601114 0)
(2.94811 -0.0704191 0)
(2.9995 -0.000898623 0)
(2.79561 0.12596 0)
(2.76795 0.207354 0)
(2.6395 0.0685121 0)
(2.62519 0.0917747 0)
(2.55583 -0.174234 0)
(2.50512 -0.284455 0)
(2.37696 -0.45966 0)
(2.30634 -0.54233 0)
(2.22015 -0.631633 0)
(2.13447 -0.718395 0)
(2.08901 -0.747168 0)
(2.0104 -0.80853 0)
(1.9471 -0.840817 0)
(1.90576 -0.856482 0)
(1.86916 -0.887717 0)
(1.80681 -0.936191 0)
(1.82738 -0.944283 0)
(2.08387 -0.828867 0)
(2.7254 -0.31456 0)
(2.99109 -0.01203 0)
(2.80715 0.129316 0)
(2.78901 0.133218 0)
(2.70485 0.146814 0)
(2.67079 0.1213 0)
(2.64009 -0.0138139 0)
(2.59234 -0.150537 0)
(2.48162 -0.336738 0)
(2.42143 -0.427436 0)
(2.29561 -0.581514 0)
(2.25553 -0.624213 0)
(2.16049 -0.717585 0)
(2.1081 -0.752455 0)
(2.02066 -0.809379 0)
(1.97994 -0.82198 0)
(1.94497 -0.856602 0)
(1.88258 -0.904776 0)
(1.85453 -0.936365 0)
(1.92923 -0.93398 0)
(2.40123 -0.626589 0)
(2.9271 -0.0791195 0)
(2.80066 0.105424 0)
(2.78807 0.104571 0)
(2.70753 0.147242 0)
(2.679 0.150029 0)
(2.64566 -0.0168175 0)
(2.61578 -0.125564 0)
(2.56783 -0.236227 0)
(2.48042 -0.377525 0)
(2.39969 -0.48501 0)
(2.33908 -0.554978 0)
(2.25294 -0.647344 0)
(2.19576 -0.684606 0)
(2.1147 -0.745123 0)
(2.0604 -0.774731 0)
(2.03254 -0.807073 0)
(1.95368 -0.863595 0)
(1.90544 -0.91269 0)
(1.93356 -0.937355 0)
(2.19355 -0.812557 0)
(2.74022 -0.23349 0)
(2.77675 0.100057 0)
(2.75837 0.0959138 0)
(2.70265 0.137902 0)
(2.68455 0.150014 0)
(2.68407 0.0722331 0)
(2.69535 0.0333691 0)
(2.64913 -0.0905903 0)
(2.56177 -0.258478 0)
(2.51839 -0.320204 0)
(2.4172 -0.46135 0)
(2.36514 -0.515271 0)
(2.27186 -0.60667 0)
(2.20653 -0.66131 0)
(2.12931 -0.731739 0)
(2.09546 -0.780521 0)
(2.00795 -0.845404 0)
(1.96192 -0.886371 0)
(1.95606 -0.927069 0)
(2.09009 -0.906509 0)
(2.45078 -0.450167 0)
(2.75738 0.0989817 0)
(2.74031 0.0931434 0)
(2.71739 0.1127 0)
(2.70997 0.138159 0)
(2.71813 0.125007 0)
(2.72095 0.152918 0)
(2.68606 0.030705 0)
(2.6421 -0.0889318 0)
(2.5777 -0.214811 0)
(2.49365 -0.359076 0)
(2.42839 -0.44699 0)
(2.32174 -0.570746 0)
(2.26746 -0.619941 0)
(2.18967 -0.698596 0)
(2.15161 -0.755327 0)
(2.07347 -0.812917 0)
(2.02957 -0.840669 0)
(1.99247 -0.908014 0)
(2.06446 -0.940382 0)
(2.20589 -0.572828 0)
(2.7655 0.0922667 0)
(2.75209 0.0810947 0)
(2.73678 0.0884103 0)
(2.72254 0.110057 0)
(2.72913 0.123188 0)
(2.75581 0.145131 0)
(2.71721 0.0176356 0)
(2.68727 -0.0506564 0)
(2.60622 -0.209344 0)