/*--------------------------------*- C++ -*----------------------------------*\
  =========                 |
  \\      /  F ield         | OpenFOAM: The Open Source CFD Toolbox
   \\    /   O peration     | Website:  https://openfoam.org
    \\  /    A nd           | Version:  7
     \\/     M anipulation  |
\*---------------------------------------------------------------------------*/
FoamFile
{
    version     2.0;
    format      ascii;
    class       volScalarField;
    location    "3.5";
    object      rho;
}
// * * * * * * * * * * * * * * * * * * * * * * * * * * * * * * * * * * * * * //

dimensions      [1 -3 0 0 0 0 0];

internalField   nonuniform List<scalar> 
90000
(
1.22452
1.21913
1.21357
1.20987
1.2074
1.20398
1.20218
1.20155
1.20131
1.20123
1.20173
1.20267
1.20436
1.20545
1.20697
1.2085
1.21094
1.21274
1.21465
1.21616
1.21836
1.21984
1.22141
1.22223
1.22353
1.22461
1.22597
1.22702
1.22845
1.22957
1.23108
1.23267
1.23486
1.2369
1.23928
1.24169
1.24415
1.24683
1.25097
1.25468
1.2587
1.26238
1.26581
1.26914
1.27174
1.27473
1.27323
1.26875
1.26016
1.25207
1.2453
1.24347
1.2447
1.24779
1.2526
1.2575
1.26232
1.26588
1.26871
1.27026
1.27119
1.26959
1.26563
1.25824
1.25138
1.2465
1.247
1.24985
1.25448
1.26014
1.26531
1.27005
1.26918
1.26482
1.25741
1.2536
1.25144
1.25483
1.26025
1.26601
1.2684
1.26629
1.26236
1.26082
1.2618
1.26427
1.26895
1.26979
1.26827
1.26573
1.26579
1.26771
1.27
1.27087
1.26981
1.26768
1.26706
1.26746
1.26733
1.26735
1.23241
1.2324
1.23241
1.23248
1.23261
1.23262
1.23265
1.23275
1.23286
1.23295
1.23316
1.23368
1.23389
1.23392
1.23407
1.23441
1.23465
1.23496
1.23549
1.23602
1.23681
1.23808
1.23892
1.23944
1.24016
1.2413
1.24257
1.2438
1.24503
1.2463
1.24747
1.24866
1.24992
1.25118
1.25237
1.25352
1.25472
1.25612
1.25807
1.26038
1.26311
1.26621
1.26958
1.27312
1.27716
1.28094
1.28518
1.28806
1.29158
1.29264
1.29112
1.28698
1.28147
1.27561
1.27148
1.26864
1.26859
1.26971
1.27188
1.27476
1.27893
1.28272
1.28723
1.28685
1.2842
1.27742
1.27067
1.26531
1.26356
1.26543
1.26926
1.27512
1.28174
1.28505
1.28299
1.27616
1.26967
1.26759
1.26947
1.27346
1.27859
1.28239
1.28061
1.27605
1.27283
1.27434
1.27877
1.28268
1.28179
1.27896
1.27712
1.27788
1.28036
1.28204
1.28178
1.28026
1.27906
1.2786
1.27837
1.27832
1.23632
1.23632
1.23633
1.23639
1.23657
1.23671
1.23675
1.23677
1.23685
1.23705
1.23728
1.23748
1.23766
1.23783
1.238
1.23826
1.23856
1.23886
1.23922
1.23965
1.24014
1.24075
1.24136
1.24197
1.24269
1.24359
1.24457
1.24568
1.24687
1.24805
1.24913
1.25017
1.25129
1.25249
1.25362
1.25475
1.25594
1.2573
1.25888
1.26088
1.26311
1.26591
1.269
1.27249
1.27649
1.28031
1.2848
1.28848
1.29218
1.2946
1.29545
1.29594
1.29776
1.29881
1.29853
1.29679
1.29399
1.29065
1.28821
1.28755
1.28824
1.28966
1.29165
1.29352
1.29511
1.29615
1.29507
1.29005
1.28396
1.2783
1.27833
1.2804
1.28489
1.29015
1.29578
1.29754
1.29408
1.28727
1.28118
1.28142
1.28453
1.28929
1.29521
1.29387
1.2894
1.28562
1.28665
1.28978
1.29365
1.29265
1.29004
1.28858
1.28968
1.29213
1.29221
1.29145
1.28997
1.28898
1.2884
1.28796
1.2426
1.24263
1.24266
1.24275
1.24301
1.24317
1.24318
1.24315
1.24314
1.24316
1.24329
1.24345
1.24346
1.24347
1.2435
1.24368
1.24383
1.24388
1.24396
1.24414
1.24424
1.24432
1.24444
1.24469
1.24508
1.2454
1.24562
1.2458
1.24602
1.24643
1.24697
1.24758
1.24829
1.24911
1.25029
1.25182
1.25338
1.25504
1.25666
1.25843
1.26016
1.26213
1.26426
1.26686
1.26978
1.27306
1.27648
1.28057
1.28447
1.28849
1.29293
1.29553
1.29797
1.29942
1.29992
1.30052
1.30055
1.30042
1.30041
1.29992
1.29899
1.29783
1.29662
1.29687
1.29764
1.29877
1.29987
1.30123
1.30043
1.29658
1.29224
1.28873
1.28901
1.29115
1.2957
1.29849
1.30189
1.30189
1.29846
1.29395
1.29129
1.29262
1.296
1.29924
1.3014
1.2986
1.29452
1.29488
1.29728
1.3011
1.30007
1.29732
1.29592
1.29729
1.29983
1.29936
1.298
1.29637
1.29587
1.29507
1.24904
1.24905
1.24907
1.24911
1.24927
1.24941
1.24943
1.24941
1.24934
1.24933
1.2494
1.24943
1.24937
1.24926
1.24925
1.24932
1.24939
1.24937
1.24937
1.24938
1.24938
1.24931
1.24923
1.24925
1.24929
1.24924
1.24905
1.24885
1.24886
1.24898
1.24918
1.24943
1.2497
1.25008
1.25047
1.25066
1.25089
1.25126
1.25202
1.25308
1.25423
1.25543
1.25673
1.25836
1.2601
1.26236
1.26448
1.26724
1.27014
1.27368
1.27782
1.28186
1.28608
1.2899
1.29384
1.29629
1.29854
1.30062
1.30108
1.30134
1.30172
1.30193
1.30168
1.30109
1.3004
1.30023
1.30039
1.30136
1.30228
1.30329
1.30293
1.30065
1.29775
1.29516
1.29551
1.29724
1.30167
1.30346
1.30503
1.30405
1.30067
1.29683
1.29711
1.29902
1.30152
1.30324
1.30208
1.29996
1.30009
1.30171
1.30397
1.30351
1.3016
1.30082
1.30183
1.30383
1.30331
1.30153
1.30009
1.29922
1.25363
1.25358
1.25351
1.25351
1.25356
1.25357
1.25354
1.2535
1.25349
1.25346
1.25346
1.25349
1.25348
1.25337
1.25323
1.25323
1.25329
1.25329
1.25319
1.25307
1.25305
1.25303
1.25296
1.25285
1.25275
1.25263
1.25241
1.25201
1.25181
1.2518
1.25181
1.25176
1.25163
1.25149
1.2514
1.25136
1.25137
1.25144
1.25139
1.25126
1.25113
1.2512
1.25148
1.252
1.25281
1.25389
1.25515
1.25652
1.25805
1.2603
1.26275
1.2662
1.26955
1.27411
1.27873
1.2837
1.28866
1.29296
1.29575
1.29882
1.30091
1.30156
1.30142
1.30096
1.30034
1.29991
1.30015
1.30088
1.3022
1.30346
1.30436
1.30449
1.30394
1.30209
1.29907
1.29923
1.30012
1.30278
1.30493
1.30558
1.30538
1.30311
1.29996
1.29992
1.30073
1.30303
1.30404
1.30365
1.3026
1.30262
1.3038
1.30516
1.30483
1.30343
1.30305
1.30402
1.30538
1.30474
1.30305
1.30125
1.25791
1.25794
1.25796
1.25795
1.25786
1.25777
1.25755
1.25727
1.25725
1.25724
1.25714
1.25707
1.25705
1.25701
1.25683
1.25678
1.25678
1.25674
1.25658
1.25629
1.25606
1.25593
1.25579
1.2556
1.25538
1.25516
1.25495
1.25464
1.2543
1.25403
1.25382
1.25364
1.25345
1.25318
1.25284
1.25247
1.2521
1.25181
1.2515
1.25106
1.25073
1.25069
1.25064
1.25049
1.25036
1.25031
1.25038
1.25052
1.25083
1.25146
1.25229
1.25355
1.2552
1.25781
1.26096
1.26521
1.26981
1.27499
1.28067
1.28602
1.29002
1.29382
1.29662
1.29757
1.29826
1.2988
1.30026
1.30137
1.30243
1.30306
1.30388
1.3043
1.30429
1.30449
1.30369
1.3023
1.30116
1.30156
1.30271
1.30473
1.3052
1.30502
1.30362
1.30178
1.30127
1.30188
1.30356
1.30427
1.30418
1.3037
1.30393
1.30485
1.30534
1.30491
1.30413
1.30425
1.30513
1.30575
1.30506
1.30285
1.25995
1.25995
1.25995
1.25992
1.25988
1.25983
1.25974
1.25964
1.25959
1.25958
1.25957
1.25951
1.25949
1.2595
1.25944
1.25921
1.25903
1.25896
1.25891
1.25878
1.25851
1.2582
1.25793
1.25768
1.25737
1.25706
1.25684
1.25659
1.25627
1.25595
1.25561
1.25533
1.25511
1.25485
1.25443
1.25392
1.25342
1.25285
1.25224
1.25169
1.25119
1.25073
1.2503
1.25003
1.2499
1.24982
1.24967
1.24948
1.24918
1.24867
1.24823
1.24827
1.24851
1.24896
1.24981
1.25125
1.25339
1.25671
1.26148
1.26675
1.27353
1.27982
1.28618
1.29046
1.29536
1.29748
1.29921
1.30014
1.30144
1.30155
1.30192
1.3025
1.30332
1.30443
1.30487
1.30451
1.30319
1.30196
1.30194
1.30242
1.30372
1.30463
1.30444
1.3037
1.30249
1.30201
1.30246
1.30367
1.3041
1.30405
1.30402
1.30428
1.30503
1.30515
1.30483
1.30451
1.30475
1.30555
1.30565
1.30427
1.25958
1.25957
1.25956
1.25954
1.25953
1.25952
1.25946
1.2594
1.25937
1.25937
1.25936
1.25935
1.25931
1.25918
1.25904
1.25902
1.25903
1.25907
1.25907
1.25904
1.25888
1.25864
1.25852
1.25842
1.25824
1.25805
1.25792
1.25779
1.25765
1.2575
1.25734
1.25717
1.25701
1.25679
1.25647
1.25604
1.25558
1.25513
1.25458
1.25379
1.25293
1.25207
1.25133
1.2508
1.25036
1.24991
1.24943
1.24904
1.24859
1.24797
1.24745
1.24734
1.2474
1.24751
1.24751
1.24742
1.24745
1.24784
1.24902
1.25139
1.25526
1.26081
1.26725
1.27421
1.28033
1.28551
1.29067
1.29251
1.29569
1.29792
1.30066
1.30219
1.30373
1.30419
1.30447
1.30429
1.30389
1.3032
1.3023
1.30228
1.30231
1.30293
1.30368
1.30367
1.30349
1.30285
1.30257
1.30279
1.30344
1.30374
1.3039
1.30409
1.30444
1.30487
1.30498
1.30472
1.30475
1.30505
1.30553
1.30495
1.25787
1.25785
1.25784
1.25782
1.25779
1.25766
1.25755
1.25756
1.25757
1.25757
1.25752
1.25742
1.25729
1.25716
1.25707
1.25702
1.25698
1.25694
1.25691
1.25686
1.25668
1.25654
1.25643
1.25626
1.25594
1.25582
1.25582
1.25579
1.25568
1.25557
1.25549
1.25541
1.25532
1.25519
1.25499
1.25477
1.25454
1.25428
1.25396
1.25368
1.25343
1.25315
1.25279
1.25238
1.25186
1.25123
1.2505
1.24972
1.24891
1.24813
1.24745
1.2471
1.24712
1.2472
1.24719
1.24709
1.24697
1.24692
1.24697
1.24722
1.24785
1.24954
1.25244
1.25694
1.26185
1.2686
1.27541
1.28213
1.28837
1.29352
1.29908
1.30088
1.30258
1.30248
1.30226
1.30238
1.30285
1.30322
1.3031
1.30261
1.30191
1.30188
1.30232
1.30308
1.30357
1.30347
1.30296
1.3026
1.30275
1.30311
1.30355
1.30379
1.30399
1.30439
1.30473
1.30477
1.30465
1.30487
1.30531
1.30524
1.25548
1.25551
1.25557
1.25558
1.25557
1.25547
1.25533
1.2553
1.25531
1.25531
1.2553
1.25525
1.25517
1.2551
1.25503
1.25493
1.25485
1.25481
1.25475
1.25459
1.25446
1.25437
1.2542
1.25394
1.25379
1.25378
1.25378
1.25378
1.25374
1.25374
1.25378
1.2538
1.25379
1.25377
1.25375
1.25373
1.25369
1.25354
1.2535
1.25354
1.25361
1.25361
1.25355
1.25336
1.25303
1.25261
1.25209
1.25139
1.25068
1.25009
1.24947
1.24878
1.24858
1.2486
1.24867
1.24863
1.24844
1.24809
1.24774
1.24772
1.24793
1.24817
1.24865
1.24936
1.25075
1.25366
1.25751
1.26433
1.27175
1.27878
1.28616
1.29096
1.29559
1.29651
1.29857
1.30062
1.30306
1.30345
1.30336
1.30293
1.30225
1.30171
1.30188
1.30247
1.30332
1.30344
1.30327
1.30288
1.30266
1.30291
1.3032
1.30346
1.30363
1.3039
1.30432
1.30454
1.30456
1.30478
1.30517
1.30534
1.25336
1.25338
1.25338
1.25337
1.25337
1.25337
1.2533
1.25322
1.2532
1.25321
1.25327
1.25328
1.25327
1.25322
1.25306
1.25301
1.25302
1.253
1.25286
1.25276
1.25272
1.25262
1.25232
1.25218
1.2522
1.25222
1.25215
1.25207
1.25206
1.2521
1.25219
1.25221
1.25226
1.25235
1.25244
1.25252
1.25255
1.25259
1.25264
1.25278
1.25305
1.25324
1.25335
1.25339
1.25338
1.2533
1.25309
1.25268
1.25207
1.25155
1.25135
1.25121
1.25104
1.25105
1.25112
1.25104
1.25083
1.25046
1.24982
1.24907
1.24869
1.24862
1.24876
1.24939
1.24961
1.24985
1.2504
1.25241
1.25576
1.26192
1.2684
1.27688
1.28477
1.29012
1.29678
1.29944
1.30226
1.30237
1.30213
1.30176
1.30204
1.30235
1.30263
1.30292
1.303
1.30312
1.30319
1.30317
1.30302
1.30302
1.30311
1.30334
1.30364
1.30365
1.30383
1.30415
1.30456
1.30487
1.30519
1.30544
1.25149
1.25149
1.25148
1.25147
1.25145
1.25144
1.25143
1.25138
1.25136
1.25138
1.25138
1.25137
1.25133
1.2513
1.25127
1.25124
1.2512
1.25113
1.25103
1.25094
1.25082
1.25058
1.25034
1.25032
1.25035
1.25035
1.25025
1.25016
1.25014
1.25017
1.25032
1.25048
1.25064
1.25078
1.25091
1.25106
1.25123
1.25144
1.25169
1.25201
1.25245
1.25297
1.25339
1.25361
1.25365
1.25363
1.25353
1.25324
1.25269
1.25224
1.25219
1.25232
1.25263
1.25308
1.25355
1.25396
1.25417
1.2541
1.25376
1.25305
1.2521
1.25126
1.25093
1.25089
1.25077
1.25065
1.25087
1.25092
1.25106
1.25205
1.25435
1.25968
1.26587
1.27394
1.28148
1.28716
1.29432
1.29645
1.2992
1.30089
1.30311
1.30347
1.3034
1.3032
1.30296
1.30308
1.30346
1.30374
1.30362
1.30342
1.30332
1.30346
1.30368
1.30376
1.30391
1.30423
1.30479
1.3051
1.30537
1.30577
1.25115
1.25117
1.25119
1.25121
1.25122
1.25124
1.25126
1.25127
1.25128
1.2513
1.2513
1.25128
1.25126
1.25125
1.25123
1.2512
1.25114
1.25109
1.25101
1.25089
1.25066
1.25035
1.25029
1.25028
1.25023
1.25007
1.24978
1.24948
1.24932
1.2493
1.24933
1.24939
1.24948
1.2496
1.24973
1.2499
1.2501
1.25035
1.25066
1.25104
1.2515
1.25199
1.25252
1.25307
1.2535
1.25362
1.25362
1.2535
1.25317
1.25271
1.25253
1.25267
1.25316
1.25381
1.25436
1.25479
1.25526
1.25578
1.2558
1.25558
1.2552
1.2546
1.25385
1.25321
1.2528
1.25231
1.25186
1.25136
1.25111
1.25113
1.25133
1.25232
1.25439
1.25877
1.26403
1.27246
1.28127
1.28903
1.2977
1.30016
1.30254
1.30293
1.30274
1.3027
1.30337
1.3039
1.3041
1.304
1.30395
1.30397
1.30413
1.30419
1.30409
1.30402
1.30409
1.30441
1.30503
1.30545
1.3058
1.30632
1.2513
1.25133
1.25136
1.25138
1.25141
1.25145
1.2515
1.25156
1.25163
1.2517
1.25177
1.25182
1.25186
1.25188
1.25188
1.25184
1.25177
1.25175
1.25174
1.2517
1.2516
1.25148
1.25139
1.25126
1.25107
1.25084
1.25064
1.25047
1.25028
1.25003
1.24989
1.2499
1.24994
1.24997
1.25003
1.25015
1.25036
1.25063
1.25101
1.2515
1.25203
1.25253
1.25303
1.25361
1.25423
1.2547
1.25481
1.25474
1.25454
1.25427
1.25395
1.25382
1.25397
1.25426
1.25455
1.25492
1.25539
1.25584
1.25631
1.25659
1.25661
1.25646
1.25591
1.25531
1.25492
1.25454
1.25404
1.25343
1.25294
1.25236
1.25214
1.25221
1.2524
1.25289
1.25432
1.25818
1.26369
1.27273
1.28156
1.28844
1.29551
1.29765
1.30063
1.30247
1.3047
1.30489
1.3047
1.30435
1.30453
1.30504
1.30527
1.30505
1.30465
1.30463
1.30479
1.30507
1.3055
1.30597
1.30646
1.3071
1.25284
1.25287
1.2529
1.25297
1.25304
1.25307
1.25311
1.25316
1.25322
1.25328
1.25335
1.25342
1.25349
1.25355
1.25363
1.25371
1.25374
1.25374
1.25377
1.25382
1.25387
1.2539
1.25391
1.25387
1.25376
1.25368
1.25362
1.25354
1.25339
1.25315
1.25285
1.25258
1.25239
1.25221
1.2521
1.25207
1.25208
1.25214
1.25231
1.25258
1.25284
1.2531
1.25345
1.2539
1.25435
1.25478
1.25499
1.25495
1.25479
1.25466
1.25452
1.25433
1.25425
1.25432
1.25446
1.25465
1.25492
1.25545
1.25632
1.25667
1.25669
1.25662
1.25628
1.25592
1.25588
1.25585
1.25577
1.25561
1.2553
1.25491
1.25435
1.25366
1.25342
1.25364
1.2537
1.254
1.25525
1.25901
1.26434
1.27345
1.28228
1.29032
1.29905
1.30183
1.30428
1.30443
1.30418
1.3048
1.30565
1.30621
1.30606
1.30571
1.30563
1.30578
1.30591
1.30589
1.30607
1.30657
1.30724
1.30797
1.25503
1.25503
1.25505
1.25508
1.25508
1.25509
1.25513
1.25513
1.25513
1.25513
1.25518
1.25522
1.25527
1.25534
1.25545
1.25557
1.25568
1.25578
1.25591
1.25597
1.256
1.2561
1.25628
1.25639
1.25647
1.25657
1.25662
1.25664
1.25664
1.25658
1.25637
1.25605
1.25569
1.25539
1.2551
1.25473
1.25445
1.25432
1.25425
1.25419
1.25415
1.25419
1.25435
1.25459
1.25485
1.25516
1.2555
1.25554
1.25543
1.25532
1.25526
1.25519
1.25503
1.25485
1.25484
1.25486
1.25483
1.25495
1.25567
1.25645
1.25656
1.25655
1.25638
1.25616
1.25617
1.25623
1.25634
1.25658
1.2571
1.25743
1.25732
1.25701
1.2564
1.25581
1.25513
1.25491
1.25491
1.25512
1.25615
1.25964
1.26502
1.27444
1.2834
1.29116
1.29843
1.30041
1.30314
1.30575
1.3068
1.30675
1.30655
1.30659
1.30694
1.30727
1.30704
1.3068
1.30692
1.30742
1.30808
1.30884
1.25714
1.25713
1.25714
1.25714
1.25714
1.25714
1.25716
1.25718
1.25714
1.25711
1.2571
1.25713
1.25722
1.2573
1.25736
1.25744
1.25756
1.25772
1.25789
1.25801
1.25817
1.25846
1.25866
1.25881
1.259
1.25903
1.25901
1.25912
1.25932
1.25935
1.2593
1.25911
1.25885
1.25859
1.2582
1.25775
1.25747
1.25726
1.25703
1.25677
1.25649
1.25634
1.25636
1.25635
1.25626
1.25623
1.25633
1.25642
1.25632
1.25611
1.25604
1.25605
1.25601
1.25587
1.25564
1.25536
1.25524
1.25522
1.25543
1.25607
1.25632
1.25632
1.25629
1.25627
1.25634
1.25653
1.25679
1.25715
1.25771
1.25839
1.25896
1.25906
1.25894
1.25849
1.25767
1.25684
1.25614
1.25563
1.25564
1.25595
1.25694
1.26073
1.26679
1.27661
1.28641
1.29477
1.30228
1.30508
1.30651
1.30614
1.30642
1.30748
1.30831
1.30821
1.30776
1.30772
1.30794
1.30848
1.30883
1.30944
1.25923
1.25911
1.25905
1.25905
1.25905
1.25905
1.25901
1.25885
1.25858
1.25852
1.25853
1.25854
1.25849
1.25845
1.25842
1.25841
1.25842
1.25847
1.2585
1.25854
1.25864
1.25889
1.2592
1.25934
1.25941
1.25948
1.25962
1.26
1.26045
1.2606
1.2606
1.26059
1.26054
1.26042
1.2602
1.25989
1.25948
1.25906
1.25888
1.25877
1.25866
1.25853
1.25842
1.25831
1.25807
1.25781
1.25774
1.25767
1.25748
1.25719
1.25712
1.25716
1.25731
1.25735
1.2572
1.25678
1.25634
1.25616
1.25623
1.2566
1.25668
1.25653
1.25649
1.2566
1.25694
1.25746
1.25787
1.25804
1.25818
1.25853
1.25901
1.25922
1.25922
1.25915
1.25902
1.25878
1.25836
1.25782
1.25705
1.25686
1.2573
1.25773
1.2591
1.26299
1.26933
1.27925
1.28878
1.2959
1.30153
1.30401
1.30694
1.30874
1.30879
1.30851
1.30847
1.30881
1.30927
1.30958
1.3096
1.30997
1.26072
1.26068
1.26061
1.26046
1.26042
1.26036
1.26008
1.25969
1.25962
1.25967
1.25968
1.25961
1.25946
1.25925
1.25909
1.25909
1.25908
1.259
1.25894
1.25897
1.25905
1.25906
1.2591
1.25922
1.25925
1.25927
1.25933
1.2595
1.25984
1.26022
1.26038
1.26039
1.26032
1.26014
1.25993
1.25968
1.25929
1.25897
1.2589
1.25895
1.25918
1.25959
1.25971
1.2597
1.25959
1.25929
1.25872
1.25836
1.25832
1.25833
1.25844
1.25874
1.25918
1.25935
1.25935
1.2592
1.25896
1.25874
1.2587
1.25876
1.25871
1.25825
1.25768
1.25757
1.25768
1.25809
1.25846
1.25848
1.25839
1.25844
1.25871
1.25909
1.25917
1.25915
1.25914
1.25919
1.25941
1.25953
1.25931
1.25875
1.25839
1.25848
1.2587
1.25913
1.26061
1.26503
1.27229
1.28254
1.29255
1.30135
1.30628
1.30825
1.30822
1.30795
1.30914
1.30991
1.31025
1.31015
1.31019
1.31063
1.26183
1.26172
1.2617
1.26168
1.26164
1.26157
1.26132
1.26079
1.26051
1.2605
1.26056
1.26057
1.26048
1.26005
1.25967
1.25959
1.25955
1.25952
1.25954
1.25958
1.25956
1.25935
1.25926
1.25936
1.25944
1.25945
1.25947
1.25947
1.25946
1.25952
1.25953
1.25941
1.25921
1.25888
1.25856
1.25852
1.25858
1.25867
1.25876
1.25898
1.25959
1.26055
1.26098
1.26102
1.261
1.26077
1.25999
1.25937
1.25932
1.25937
1.25962
1.26009
1.26046
1.26071
1.26094
1.26098
1.26098
1.26105
1.26108
1.26095
1.26072
1.26023
1.25935
1.25878
1.25873
1.25892
1.25919
1.25917
1.25889
1.25853
1.25857
1.25872
1.25898
1.25926
1.25932
1.25937
1.25953
1.25976
1.26
1.26018
1.26017
1.26007
1.2599
1.25986
1.25982
1.26015
1.26216
1.26729
1.27616
1.28604
1.29544
1.30097
1.30451
1.307
1.31027
1.31063
1.31049
1.31049
1.31087
1.31147
1.26142
1.26141
1.26141
1.2615
1.26156
1.2614
1.26064
1.25999
1.25993
1.26003
1.26016
1.26017
1.26009
1.25973
1.25948
1.25951
1.25954
1.25965
1.26001
1.26036
1.26044
1.26044
1.26047
1.26053
1.26054
1.26044
1.26004
1.25984
1.25981
1.25974
1.25957
1.25923
1.25868
1.25848
1.25844
1.2584
1.25842
1.25867
1.25928
1.26023
1.26139
1.26192
1.26194
1.2619
1.26185
1.26171
1.26119
1.2608
1.2608
1.26084
1.26105
1.26135
1.26137
1.26123
1.26113
1.2611
1.261
1.261
1.26124
1.26152
1.26156
1.26137
1.26061
1.25999
1.25992
1.25997
1.26016
1.26025
1.26016
1.25977
1.2593
1.2592
1.25926
1.25949
1.25964
1.25965
1.25962
1.25968
1.25992
1.2602
1.26044
1.2607
1.26093
1.2609
1.26058
1.26055
1.26063
1.26133
1.26406
1.27061
1.27992
1.28984
1.3001
1.30598
1.30951
1.30974
1.30948
1.31023
1.31135
1.31189
1.25983
1.26002
1.26005
1.25997
1.25946
1.25872
1.25842
1.25839
1.25843
1.25852
1.25879
1.25948
1.25983
1.25986
1.25981
1.25972
1.25981
1.2602
1.26068
1.26116
1.26195
1.26306
1.26344
1.26346
1.26344
1.26334
1.26297
1.26238
1.26208
1.2618
1.26145
1.26087
1.25997
1.25952
1.25947
1.25947
1.25959
1.26004
1.2608
1.26204
1.2629
1.26298
1.26287
1.26234
1.26209
1.26207
1.26189
1.26181
1.26184
1.26202
1.26235
1.2624
1.26238
1.262
1.26113
1.26069
1.26061
1.26065
1.26097
1.26157
1.26207
1.2621
1.26175
1.26082
1.26027
1.2603
1.26063
1.26122
1.26142
1.26128
1.26077
1.26025
1.26012
1.26015
1.26019
1.2601
1.25986
1.25981
1.25988
1.2601
1.26036
1.26063
1.26086
1.26101
1.2611
1.26115
1.26123
1.26152
1.2619
1.26333
1.26676
1.27452
1.28345
1.29339
1.30054
1.30468
1.30805
1.31129
1.31182
1.31174
1.25792
1.25797
1.2579
1.25772
1.25754
1.25752
1.25755
1.25754
1.25743
1.25721
1.2572
1.25759
1.2587
1.25912
1.2591
1.25904
1.25914
1.25954
1.26019
1.26085
1.26179
1.26296
1.26331
1.26335
1.26334
1.26325
1.26291
1.26223
1.262
1.26192
1.26168
1.26121
1.26054
1.26001
1.25971
1.25969
1.25989
1.26034
1.26106
1.26199
1.26222
1.26216
1.26149
1.26061
1.26053
1.26072
1.26119
1.26154
1.26165
1.26186
1.26214
1.26236
1.26241
1.26211
1.26121
1.2603
1.25996
1.25994
1.26048
1.26182
1.26265
1.26273
1.26251
1.26173
1.26085
1.26077
1.26111
1.2618
1.26227
1.26226
1.26205
1.26158
1.26119
1.26105
1.26098
1.26082
1.26045
1.26015
1.26008
1.26013
1.26025
1.26045
1.26068
1.26088
1.26108
1.26131
1.26147
1.2616
1.26174
1.26194
1.26262
1.26478
1.26969
1.27855
1.28807
1.29926
1.30661
1.31072
1.3107
1.31074
1.25532
1.2555
1.25561
1.25563
1.2556
1.25541
1.25497
1.25418
1.25365
1.25337
1.25301
1.25254
1.25269
1.25356
1.25388
1.25375
1.25371
1.25411
1.25454
1.25454
1.25446
1.25455
1.25499
1.25552
1.25588
1.25619
1.25655
1.25733
1.2589
1.26004
1.26021
1.26011
1.25989
1.25957
1.25897
1.25869
1.2588
1.25872
1.25855
1.25904
1.25945
1.25941
1.25861
1.25822
1.25849
1.25847
1.2583
1.25881
1.26001
1.26027
1.26018
1.26033
1.26131
1.26226
1.26246
1.26227
1.26132
1.26019
1.26018
1.261
1.2623
1.26278
1.26272
1.26249
1.26209
1.26181
1.26185
1.26201
1.2623
1.26253
1.26252
1.26238
1.26202
1.2617
1.26158
1.26149
1.26121
1.26082
1.26058
1.26035
1.26035
1.26043
1.26067
1.26094
1.26114
1.26131
1.26143
1.26154
1.26164
1.26172
1.26185
1.26221
1.2635
1.2666
1.27353
1.28299
1.29309
1.30144
1.3055
1.30959
1.25303
1.25347
1.2536
1.25359
1.25318
1.25216
1.25193
1.25191
1.25224
1.25292
1.25301
1.2523
1.25097
1.25059
1.25041
1.25024
1.24953
1.24751
1.24559
1.245
1.24457
1.24364
1.24319
1.24316
1.24317
1.24334
1.24404
1.24571
1.24838
1.2509
1.25226
1.25286
1.2531
1.25307
1.25279
1.25225
1.25199
1.25211
1.25264
1.25348
1.25426
1.25466
1.25483
1.25495
1.2552
1.25508
1.255
1.25505
1.25589
1.25638
1.25649
1.25698
1.25864
1.26121
1.2623
1.26229
1.26184
1.26084
1.2602
1.26026
1.26081
1.26178
1.26236
1.26235
1.26214
1.26191
1.26188
1.26186
1.26186
1.26212
1.26237
1.26234
1.26208
1.26159
1.2613
1.26128
1.26132
1.26137
1.26141
1.26129
1.26118
1.26121
1.26133
1.26137
1.26136
1.26138
1.26138
1.26133
1.26136
1.26145
1.26155
1.26169
1.26192
1.26262
1.26476
1.26968
1.27848
1.28859
1.29956
1.30863
1.25654
1.25704
1.25714
1.25709
1.25698
1.25696
1.25695
1.25706
1.25715
1.25687
1.2554
1.25464
1.25473
1.25509
1.2551
1.25443
1.25166
1.24724
1.24486
1.24439
1.24405
1.24362
1.24327
1.24318
1.24333
1.24385
1.24471
1.2459
1.24762
1.24938
1.25059
1.25106
1.25139
1.25187
1.25197
1.25169
1.25147
1.25151
1.25188
1.25271
1.25406
1.25559
1.25638
1.25653
1.25648
1.25577
1.25393
1.25254
1.25236
1.25225
1.25165
1.25156
1.25216
1.25396
1.25673
1.25893
1.25932
1.25925
1.25856
1.25758
1.25743
1.25769
1.25837
1.25954
1.26087
1.26126
1.2612
1.2608
1.26061
1.26066
1.26098
1.26149
1.26162
1.26154
1.26141
1.26139
1.26149
1.26174
1.26197
1.26208
1.26215
1.26217
1.26212
1.262
1.26181
1.26165
1.26144
1.26124
1.26123
1.26132
1.26148
1.26156
1.26162
1.26175
1.26216
1.26363
1.26696
1.27423
1.28307
1.29695
1.26907
1.26997
1.27072
1.27113
1.27121
1.27112
1.27047
1.26995
1.27
1.2704
1.27046
1.26992
1.26913
1.26891
1.26862
1.2674
1.26372
1.26079
1.26036
1.2602
1.26029
1.26007
1.25913
1.25869
1.25886
1.25898
1.25869
1.25699
1.25399
1.25138
1.25015
1.25007
1.25025
1.25057
1.2514
1.25335
1.25406
1.25389
1.25402
1.25475
1.25521
1.25558
1.25603
1.25583
1.25523
1.25503
1.25481
1.25429
1.25341
1.25173
1.24947
1.24864
1.2486
1.24872
1.24944
1.25108
1.25246
1.25284
1.253
1.2531
1.25316
1.25333
1.25364
1.25444
1.25568
1.25674
1.25754
1.25842
1.259
1.25912
1.25937
1.25995
1.26084
1.26142
1.26139
1.26141
1.26157
1.26183
1.26203
1.26218
1.26231
1.26245
1.26255
1.26256
1.26249
1.26228
1.26186
1.26141
1.26136
1.26144
1.26145
1.2614
1.26134
1.26135
1.26144
1.26172
1.26267
1.26517
1.26988
1.28359
1.27483
1.27472
1.27467
1.27523
1.27632
1.27642
1.27524
1.27308
1.2729
1.27465
1.27662
1.27595
1.27387
1.27432
1.27416
1.27249
1.27228
1.27371
1.27576
1.27493
1.27188
1.27112
1.27172
1.27493
1.27649
1.27647
1.27553
1.27283
1.26875
1.26434
1.26008
1.25751
1.25754
1.25835
1.25957
1.26104
1.26158
1.26162
1.26078
1.25606
1.25274
1.25246
1.25291
1.2531
1.25346
1.25516
1.25679
1.25722
1.25755
1.25814
1.25776
1.2551
1.25122
1.24957
1.25005
1.2518
1.25283
1.25288
1.25269
1.25266
1.25333
1.25467
1.25507
1.25471
1.25349
1.25303
1.25316
1.25395
1.25534
1.25627
1.25671
1.25708
1.25762
1.25852
1.25962
1.26035
1.26079
1.26115
1.26154
1.26204
1.26247
1.26255
1.26264
1.26273
1.26274
1.26269
1.26251
1.26214
1.26183
1.26159
1.26145
1.26138
1.26126
1.26118
1.26121
1.26131
1.26157
1.26224
1.26366
1.27106
1.33418
1.33361
1.33175
1.32965
1.32893
1.32856
1.32748
1.32416
1.32171
1.32196
1.32295
1.32255
1.31904
1.31341
1.31029
1.31028
1.31109
1.31115
1.3103
1.30678
1.29855
1.29201
1.2915
1.29197
1.29273
1.2938
1.29386
1.29249
1.29281
1.29486
1.29365
1.29026
1.29028
1.29267
1.29377
1.29442
1.29559
1.29551
1.29307
1.28496
1.27732
1.27313
1.26844
1.26387
1.26372
1.26538
1.26532
1.26481
1.26668
1.26841
1.26745
1.26397
1.26204
1.26223
1.26233
1.26144
1.25762
1.25496
1.25456
1.25454
1.25511
1.25663
1.25753
1.2572
1.25546
1.25353
1.25313
1.25322
1.25379
1.25517
1.25554
1.25524
1.25486
1.25525
1.25647
1.25773
1.25835
1.25879
1.25947
1.26024
1.26087
1.26141
1.26189
1.26241
1.26261
1.26267
1.26266
1.26245
1.26202
1.26159
1.26145
1.26141
1.26135
1.2613
1.26131
1.26136
1.26146
1.26171
1.26201
1.26458
1.38013
1.37795
1.37732
1.37735
1.37845
1.38155
1.38239
1.38211
1.38058
1.38003
1.38022
1.38203
1.38351
1.38259
1.37948
1.37803
1.3776
1.37713
1.37579
1.37362
1.36987
1.36405
1.35952
1.3554
1.35181
1.35138
1.35235
1.35246
1.35043
1.34509
1.33811
1.33254
1.32922
1.32672
1.32278
1.3191
1.31877
1.31921
1.31728
1.31291
1.31273
1.31494
1.31478
1.30871
1.30376
1.30208
1.29933
1.29573
1.29141
1.28325
1.27313
1.26968
1.2705
1.27457
1.27749
1.27733
1.27611
1.27369
1.26834
1.26139
1.2584
1.25817
1.25874
1.26063
1.26116
1.26018
1.25713
1.255
1.25512
1.25614
1.25734
1.25726
1.25653
1.2559
1.25595
1.25592
1.25577
1.25564
1.25576
1.25613
1.25688
1.2579
1.2588
1.25965
1.26045
1.26115
1.262
1.26208
1.26197
1.26184
1.26174
1.26162
1.26155
1.26149
1.26148
1.26154
1.26167
1.26175
1.26174
1.26222
1.46323
1.46241
1.46115
1.45885
1.4569
1.45611
1.45589
1.45517
1.45395
1.45343
1.45286
1.45101
1.44916
1.44928
1.44869
1.44518
1.43889
1.43548
1.43531
1.43532
1.43271
1.42712
1.42626
1.42537
1.42135
1.41577
1.41505
1.41578
1.41616
1.41493
1.40795
1.40378
1.40417
1.40367
1.4011
1.39666
1.39129
1.38815
1.38368
1.37498
1.36678
1.363
1.36073
1.3548
1.34754
1.34577
1.34721
1.35023
1.34988
1.34323
1.32886
1.32331
1.32106
1.31528
1.30426
1.29933
1.30019
1.30218
1.30026
1.29446
1.28858
1.28099
1.27351
1.27201
1.2733
1.27437
1.27314
1.26787
1.26175
1.26086
1.26115
1.26093
1.25956
1.25749
1.25632
1.25617
1.25582
1.25561
1.25554
1.2555
1.2555
1.25563
1.25618
1.25698
1.25777
1.25859
1.26001
1.26129
1.26143
1.2615
1.26147
1.26149
1.26173
1.26188
1.26205
1.26223
1.26221
1.26211
1.26187
1.26178
1.54991
1.5495
1.5449
1.54072
1.54053
1.54178
1.54182
1.54012
1.53834
1.53821
1.53795
1.53588
1.53282
1.53256
1.5321
1.52918
1.52599
1.52321
1.51864
1.51655
1.51715
1.51692
1.51467
1.51023
1.50481
1.49956
1.49602
1.49346
1.49155
1.48943
1.48455
1.47856
1.47453
1.47074
1.46754
1.46481
1.46072
1.45764
1.45551
1.45219
1.44594
1.43901
1.43698
1.43353
1.42682
1.4216
1.41379
1.4058
1.40164
1.3974
1.38557
1.3782
1.37847
1.37697
1.36883
1.3609
1.35611
1.34622
1.33008
1.32694
1.32697
1.32383
1.318
1.30908
1.29673
1.29303
1.29224
1.29038
1.28391
1.27621
1.27208
1.27118
1.26932
1.26465
1.26237
1.26151
1.2604
1.25988
1.2592
1.25797
1.25796
1.2586
1.25994
1.2597
1.25897
1.2585
1.25821
1.25839
1.25865
1.25902
1.25972
1.26075
1.2616
1.2621
1.26246
1.26246
1.2624
1.26232
1.26214
1.26196
1.63784
1.63666
1.63507
1.63317
1.63125
1.62921
1.62717
1.62568
1.62448
1.62151
1.61755
1.61726
1.61773
1.61707
1.61532
1.61239
1.60657
1.60484
1.60507
1.60439
1.60178
1.59548
1.59101
1.59045
1.58979
1.58681
1.58121
1.57704
1.57457
1.57223
1.56918
1.56518
1.56053
1.55641
1.55262
1.54934
1.5457
1.54144
1.53514
1.52891
1.5237
1.51797
1.51214
1.50596
1.5001
1.49583
1.49044
1.48279
1.47786
1.47419
1.46832
1.46052
1.44997
1.43934
1.42963
1.42418
1.42147
1.41486
1.40364
1.39677
1.38697
1.37198
1.36769
1.36376
1.35727
1.34908
1.33557
1.32655
1.32197
1.31685
1.3088
1.30159
1.29649
1.29069
1.28502
1.28031
1.27655
1.27378
1.27045
1.26656
1.26465
1.26387
1.26199
1.25855
1.25744
1.25694
1.25636
1.25586
1.25597
1.25675
1.2582
1.25971
1.26094
1.26162
1.26189
1.26185
1.26181
1.26206
1.26236
1.26231
1.72865
1.7281
1.72742
1.72622
1.72457
1.72254
1.71907
1.71727
1.71623
1.71515
1.71339
1.70846
1.70668
1.70655
1.70602
1.70415
1.69764
1.69459
1.69433
1.69403
1.6918
1.68549
1.68165
1.68027
1.67866
1.6757
1.67095
1.66627
1.66314
1.66048
1.65648
1.65157
1.64713
1.64334
1.63813
1.63245
1.62863
1.62578
1.6215
1.61518
1.60964
1.60475
1.59823
1.59199
1.58605
1.5809
1.57303
1.56282
1.55623
1.55164
1.5454
1.53883
1.53117
1.52221
1.51362
1.50526
1.49658
1.48589
1.47406
1.46818
1.46169
1.45109
1.44136
1.42656
1.41438
1.40853
1.40223
1.39137
1.37556
1.36538
1.35912
1.34932
1.33798
1.32827
1.31814
1.31048
1.30351
1.2945
1.28628
1.28161
1.27608
1.27054
1.26482
1.26007
1.25903
1.25872
1.25731
1.25751
1.25888
1.26099
1.26109
1.26092
1.26029
1.25986
1.25988
1.26013
1.2607
1.26153
1.26225
1.26224
1.8228
1.82307
1.82332
1.82291
1.82015
1.81877
1.81766
1.81382
1.80781
1.80636
1.80687
1.80672
1.8056
1.80052
1.7956
1.79548
1.79511
1.79253
1.7858
1.78327
1.78253
1.7807
1.77653
1.77243
1.76945
1.76653
1.76324
1.75893
1.7541
1.75062
1.7478
1.74371
1.73762
1.73315
1.72962
1.7255
1.72001
1.71417
1.70916
1.70352
1.69674
1.69095
1.6854
1.67862
1.67111
1.66524
1.65951
1.65154
1.64279
1.63625
1.62965
1.62181
1.61316
1.60336
1.59352
1.58459
1.57636
1.56798
1.55871
1.54873
1.53772
1.52525
1.51562
1.50559
1.49442
1.48121
1.46854
1.45896
1.44826
1.43418
1.42128
1.41018
1.39805
1.38499
1.37227
1.36072
1.35015
1.33809
1.32661
1.31808
1.30929
1.30118
1.2954
1.28793
1.28087
1.27686
1.27151
1.26802
1.2658
1.26282
1.25984
1.25903
1.25807
1.25773
1.25788
1.25875
1.25961
1.26045
1.26182
1.26185
1.92489
1.92011
1.91902
1.91951
1.92132
1.92144
1.91962
1.9161
1.91155
1.90619
1.90322
1.90335
1.90342
1.90239
1.89674
1.89278
1.8926
1.89197
1.88838
1.88132
1.87893
1.87798
1.87557
1.87093
1.86652
1.86344
1.86031
1.85622
1.85162
1.84688
1.84269
1.83854
1.83345
1.82806
1.82301
1.81794
1.81287
1.80726
1.80136
1.79583
1.78961
1.7826
1.77636
1.76979
1.76213
1.75515
1.74891
1.74143
1.73274
1.7245
1.71556
1.70674
1.69952
1.69094
1.67995
1.66959
1.66057
1.65173
1.64078
1.62961
1.62006
1.6095
1.5977
1.58504
1.57173
1.56047
1.54913
1.53568
1.5213
1.50945
1.49643
1.48246
1.46813
1.45277
1.43923
1.42539
1.40996
1.39701
1.38324
1.36808
1.35659
1.34335
1.33056
1.31923
1.30626
1.2943
1.28567
1.27834
1.27063
1.26572
1.26171
1.26061
1.25946
1.25982
1.26095
1.26207
1.26102
1.25989
1.25989
1.25992
2.03577
2.02965
2.02439
2.02368
2.02443
2.0268
2.02701
2.02486
2.02104
2.01647
2.00986