/*--------------------------------*- C++ -*----------------------------------*\
  =========                 |
  \\      /  F ield         | OpenFOAM: The Open Source CFD Toolbox
   \\    /   O peration     | Website:  https://openfoam.org
    \\  /    A nd           | Version:  7
     \\/     M anipulation  |
\*---------------------------------------------------------------------------*/
FoamFile
{
    version     2.0;
    format      ascii;
    class       volScalarField;
    location    "15";
    object      p;
}
// * * * * * * * * * * * * * * * * * * * * * * * * * * * * * * * * * * * * * //

dimensions      [1 -1 -2 0 0 0 0];

internalField   nonuniform List<scalar> 
90000
(
0.184973
0.225807
0.269586
0.305859
0.330187
0.359339
0.392051
0.418958
0.442806
0.475429
0.510863
0.544451
0.580824
0.622907
0.665866
0.710472
0.758194
0.805336
0.852902
0.894131
0.932673
0.959408
0.985322
0.98972
0.993238
0.992516
0.990493
0.987227
0.983087
0.977067
0.971473
0.966425
0.966255
0.964582
0.963835
0.962269
0.958673
0.952653
0.944754
0.934799
0.932864
0.936205
0.946187
0.958273
0.97164
0.983418
0.992573
0.995164
0.98938
0.978889
0.966211
0.95583
0.95082
0.950926
0.955965
0.962982
0.970634
0.977581
0.976528
0.973186
0.967345
0.962368
0.961512
0.963496
0.968317
0.974035
0.975269
0.973131
0.968382
0.964881
0.964518
0.967601
0.972511
0.974057
0.971932
0.969055
0.967638
0.968979
0.97318
0.974282
0.972188
0.969404
0.968835
0.970424
0.971466
0.970867
0.970128
0.969619
0.969341
0.968967
0.968582
0.968606
0.968558
0.968134
0.967778
0.968019
0.968929
0.969758
0.970905
0.972494
0.147707
0.147683
0.147665
0.147642
0.147613
0.147584
0.147562
0.147538
0.147504
0.14806
0.149675
0.152901
0.157988
0.166707
0.178763
0.196707
0.219863
0.252264
0.290256
0.338862
0.393565
0.457167
0.524284
0.589687
0.651676
0.706269
0.757255
0.79851
0.837364
0.863965
0.889965
0.906629
0.924918
0.934203
0.946726
0.952286
0.95613
0.956001
0.956048
0.962252
0.974005
0.982227
0.985709
0.988094
0.988204
0.988992
0.985112
0.976909
0.964355
0.954301
0.95234
0.955146
0.960215
0.965991
0.971052
0.975359
0.977997
0.976451
0.971971
0.964908
0.959056
0.958099
0.961638
0.966863
0.973637
0.976812
0.975243
0.97023
0.965497
0.965155
0.967285
0.972339
0.97507
0.973125
0.97023
0.968674
0.969846
0.973981
0.974592
0.972098
0.969085
0.967569
0.96818
0.97098
0.971676
0.970751
0.969896
0.96986
0.969484
0.969005
0.968849
0.968903
0.968466
0.967863
0.967552
0.967959
0.969202
0.970533
0.971343
0.973123
0.147696
0.147695
0.147696
0.147699
0.147702
0.147706
0.147711
0.147717
0.147721
0.147742
0.147716
0.14768
0.147644
0.147611
0.147581
0.147553
0.147528
0.147511
0.147495
0.147494
0.147447
0.148466
0.151934
0.161205
0.176336
0.201401
0.233296
0.277158
0.327051
0.389567
0.455479
0.526942
0.597371
0.666761
0.7351
0.796077
0.857381
0.905753
0.952568
0.982758
0.9996
1.00495
1.00344
1.00046
0.994611
0.983144
0.964678
0.940523
0.930338
0.934934
0.944426
0.954978
0.964981
0.973181
0.978055
0.981021
0.978699
0.971236
0.962466
0.958599
0.959397
0.964271
0.972209
0.97619
0.975904
0.972771
0.966471
0.96258
0.961462
0.966733
0.97352
0.976236
0.973792
0.968493
0.966419
0.96732
0.970781
0.975771
0.97524
0.970829
0.968364
0.968561
0.970766
0.971447
0.970805
0.970425
0.970278
0.969727
0.968998
0.968317
0.968485
0.968918
0.968618
0.967874
0.967986
0.968677
0.969319
0.970553
0.971786
0.97359
0.147736
0.147738
0.147741
0.147743
0.147746
0.147747
0.147748
0.147746
0.147744
0.147739
0.147736
0.147735
0.147736
0.147738
0.147738
0.147737
0.147733
0.147732
0.14773
0.147731
0.147736
0.147719
0.14769
0.147663
0.147644
0.147632
0.147628
0.147627
0.147636
0.147621
0.148944
0.155422
0.168204
0.193248
0.22782
0.280237
0.343607
0.426544
0.517718
0.608823
0.695377
0.764098
0.829649
0.867298
0.903302
0.91216
0.923065
0.927143
0.942839
0.955858
0.970659
0.979177
0.986337
0.986824
0.985939
0.981379
0.967801
0.956579
0.952685
0.954656
0.960893
0.969245
0.979274
0.981672
0.976995
0.967788
0.961274
0.961139
0.966066
0.970206
0.977495
0.976433
0.970822
0.966895
0.966751
0.971695
0.975918
0.97471
0.971339
0.966887
0.966132
0.967627
0.971663
0.972364
0.97066
0.969189
0.969476
0.969794
0.96916
0.96902
0.968903
0.968361
0.967517
0.96722
0.9673
0.96879
0.970334
0.970901
0.972245
0.974199
0.147771
0.147771
0.147771
0.147771
0.147771
0.147769
0.147767
0.147764
0.14776
0.147756
0.147753
0.147752
0.147752
0.14775
0.147748
0.147744
0.147739
0.147737
0.147735
0.147736
0.147737
0.147738
0.147739
0.147743
0.147749
0.147755
0.147764
0.14777
0.147774
0.147779
0.147766
0.147752
0.147737
0.147722
0.147707
0.147695
0.147669
0.148506
0.153743
0.172268
0.204623
0.261648
0.335799
0.435144
0.544318
0.655158
0.767399
0.855952
0.923175
0.94629
0.963547
0.969957
0.976964
0.978442
0.974583
0.958468
0.945401
0.949699
0.957032
0.968777
0.978836
0.982284
0.980876
0.976118
0.966623
0.95883
0.958661
0.961705
0.970353
0.979036
0.977735
0.971716
0.965048
0.964813
0.96728
0.973341
0.978684
0.975287
0.968316
0.966189
0.968131
0.970986
0.971448
0.970715
0.970205
0.970252
0.969714
0.968669
0.967829
0.96759
0.968724
0.969013
0.968145
0.967692
0.968232
0.968786
0.970073
0.971815
0.972489
0.973938
0.147757
0.147756
0.147754
0.147752
0.14775
0.147747
0.147744
0.147742
0.14774
0.147739
0.147738
0.147739
0.147739
0.147738
0.147739
0.14774
0.147739
0.14774
0.14774
0.147742
0.147746
0.147748
0.14775
0.147751
0.147755
0.147758
0.14776
0.147759
0.147754
0.147746
0.147738
0.147731
0.147723
0.147712
0.147698
0.147683
0.147669
0.147643
0.147618
0.147598
0.147583
0.147581
0.147574
0.149072
0.158204
0.189763
0.245775
0.342585
0.459505
0.582197
0.69655
0.775317
0.851049
0.884031
0.914505
0.921128
0.942331
0.962137
0.984201
0.995994
0.99279
0.984181
0.973798
0.957763
0.954171
0.955937
0.962316
0.97401
0.985475
0.983363
0.973782
0.963309
0.962308
0.9652
0.974998
0.980301
0.97818
0.970038
0.964412
0.965264
0.968865
0.97346
0.972563
0.970102
0.969351
0.969969
0.970309
0.969282
0.968674
0.968779
0.968128
0.967537
0.967408
0.967526
0.968769
0.970185
0.970044
0.971575
0.973668
0.975081
0.147706
0.147706
0.147707
0.147707
0.147708
0.147708
0.147709
0.14771
0.147713
0.147716
0.147719
0.147722
0.147723
0.147724
0.147726
0.147727
0.147729
0.14773
0.147732
0.147735
0.147737
0.147739
0.14774
0.147741
0.147745
0.147746
0.147746
0.147739
0.147727
0.147714
0.147702
0.147692
0.147681
0.147668
0.147651
0.147633
0.147614
0.147599
0.147592
0.147594
0.147603
0.147617
0.147641
0.147656
0.147671
0.147676
0.147696
0.147704
0.149867
0.170174
0.212891
0.297179
0.407333
0.542012
0.68343
0.802936
0.904684
0.942242
0.96721
0.975886
0.980761
0.977638
0.959357
0.946374
0.951797
0.96729
0.980156
0.986126
0.98474
0.972219
0.960967
0.958969
0.963346
0.976091
0.983482
0.980599
0.970118
0.963586
0.963445
0.968239
0.973481
0.973288
0.971006
0.969153
0.969016
0.969859
0.969538
0.968142
0.968139
0.969087
0.969081
0.967855
0.967242
0.967763
0.968621
0.970051
0.971595
0.971423
0.97217
0.974618
0.147687
0.147691
0.147695
0.147698
0.147701
0.147704
0.147707
0.147711
0.147716
0.14772
0.147724
0.147726
0.147728
0.147731
0.147733
0.147734
0.147735
0.147735
0.147736
0.147737
0.14774
0.147741
0.147741
0.147743
0.147743
0.147743
0.147738
0.147726
0.14771
0.147692
0.147678
0.147667
0.147662
0.147653
0.147641
0.147631
0.147623
0.147618
0.14762
0.147632
0.147649
0.147667
0.14769
0.147714
0.147728
0.147733
0.147738
0.147743
0.147751
0.147768
0.147793
0.147817
0.14782
0.161852
0.200608
0.295271
0.42705
0.575229
0.717453
0.80475
0.892088
0.913
0.931718
0.946905
0.977087
0.996945
0.997058
0.993471
0.972285
0.953021
0.954218
0.96219
0.977636
0.989808
0.986619
0.970904
0.960726
0.960354
0.966537
0.975257
0.975238
0.972546
0.968499
0.968132
0.969776
0.970453
0.968928
0.967682
0.968152
0.968901
0.968654
0.9675
0.967253
0.968046
0.969289
0.969932
0.971513
0.973207
0.973462
0.974915
0.147727
0.147731
0.147735
0.147737
0.147741
0.147744
0.147747
0.147751
0.147754
0.147757
0.147758
0.147759
0.147759
0.147759
0.147759
0.147759
0.147758
0.147755
0.147752
0.147751
0.14775
0.14775
0.14775
0.147749
0.147745
0.14774
0.147733
0.14772
0.147704
0.147689
0.147677
0.14767
0.147667
0.147666
0.147663
0.147661
0.14766
0.147662
0.147669
0.147686
0.147704
0.147721
0.147744
0.147752
0.147747
0.14774
0.147732
0.147727
0.147732
0.147745
0.147761
0.14778
0.147801
0.147815
0.147814
0.147788
0.148406
0.171041
0.226995
0.343699
0.500366
0.667674
0.832355
0.924212
0.966724
0.980388
0.985434
0.974627
0.942745
0.947889
0.962542
0.980539
0.989601
0.987883
0.972676
0.957389
0.957231
0.963963
0.975512
0.977094
0.974488
0.96784
0.966412
0.969788
0.971557
0.969808
0.967082
0.967385
0.969306
0.969164
0.967838
0.96691
0.967443
0.969291
0.97028
0.970488
0.971139
0.973036
0.973858
0.975398
0.147774
0.147775
0.147777
0.147778
0.14778
0.14778
0.14778
0.147781
0.14778
0.147778
0.147774
0.147771
0.147767
0.147763
0.147758
0.147754
0.147749
0.147744
0.147738
0.147733
0.147728
0.147726
0.147725
0.147723
0.147718
0.147711
0.147702
0.147695
0.147689
0.147684
0.147679
0.147679
0.147682
0.147686
0.147688
0.147692
0.1477
0.147706
0.147716
0.147733
0.147744
0.147757
0.14777
0.147763
0.147741
0.147722
0.147709
0.147697
0.147689
0.147692
0.147708
0.147731
0.147758
0.14781
0.147837
0.147829
0.14779
0.147768
0.147767
0.147767
0.154166
0.202777
0.307953
0.481238
0.65798
0.778337
0.882471
0.911569
0.930776
0.961947
0.995225
1.00181
0.997278
0.971586
0.951131
0.952712
0.962698
0.977905
0.982046
0.977699
0.967241
0.964395
0.968726
0.973126
0.97124
0.967585
0.966525
0.968771
0.970201
0.968676
0.966439
0.96684
0.968624
0.969995
0.970397
0.970618
0.971732
0.973573
0.974306
0.976182
0.147776
0.147772
0.147769
0.147766
0.147763
0.147759
0.147755
0.147751
0.147747
0.147743
0.147738
0.147731
0.147724
0.147717
0.147711
0.147704
0.147697
0.147691
0.147684
0.147679
0.147675
0.147671
0.147671
0.147674
0.147676
0.147673
0.147669
0.14767
0.147679
0.147689
0.147698
0.147707
0.147718
0.147726
0.14773
0.147738
0.147747
0.147749
0.147755
0.147762
0.147767
0.147773
0.14777
0.147758
0.147733
0.147707
0.147694
0.147683
0.14767
0.147668
0.14768
0.1477
0.147732
0.147823
0.14787
0.147863
0.147817
0.147777
0.147769
0.147767
0.147776
0.147787
0.147781
0.155417
0.194956
0.307072
0.478687
0.68124
0.864574
0.949767
0.985928
0.987977
0.975085
0.93719
0.944248
0.963541
0.978567
0.984268
0.979793
0.966092
0.962256
0.965636
0.973949
0.973146
0.96979
0.965822
0.967068
0.970563
0.970037
0.967048
0.966014
0.967408
0.969899
0.970361
0.970722
0.971596
0.972944
0.973594
0.974187
0.976609
0.147712
0.147708
0.147703
0.147699
0.147694
0.14769
0.147685
0.14768
0.147675
0.14767
0.147667
0.14766
0.147653
0.147648
0.147643
0.147635
0.147629
0.147623
0.147617
0.147616
0.147617
0.14762
0.147627
0.147641
0.147654
0.147663
0.14767
0.147685
0.147708
0.147727
0.147741
0.147755
0.147768
0.147777
0.147782
0.147783
0.147781
0.147777
0.147776
0.147777
0.147779
0.147777
0.147769
0.147756
0.147735
0.147706
0.147694
0.14769
0.14769
0.147698
0.147704
0.147711
0.14776
0.147886
0.147922
0.147912
0.147853
0.147777
0.147758
0.147755
0.147767
0.147784
0.147823
0.147874
0.147967
0.14803
0.153608
0.206293
0.348839
0.545643
0.726337
0.845511
0.909213
0.922162
0.963754
0.993386
0.992979
0.987719
0.963331
0.956012
0.960652
0.97481
0.977524
0.972072
0.964365
0.965133
0.970401
0.971872
0.969527
0.96587
0.966245
0.968905
0.970322
0.970466
0.970906
0.972397
0.973683
0.973691
0.974318
0.977744
0.147651
0.147649
0.147646
0.14764
0.147636
0.147632
0.147628
0.147623
0.147618
0.147614
0.147611
0.147608
0.147604
0.147602
0.1476
0.147594
0.147589
0.147587
0.147586
0.14759
0.147603
0.147625
0.147647
0.147674
0.147696
0.147711
0.147724
0.147745
0.147773
0.147793
0.147806
0.147816
0.147824
0.147837
0.147839
0.147819
0.147799
0.147793
0.14779
0.147792
0.147795
0.147794
0.147788
0.147784
0.147785
0.147782
0.147763
0.147752
0.147753
0.147756
0.147753
0.147762
0.147824
0.147934
0.147951
0.14794
0.147877
0.147777
0.147746
0.147744
0.147763
0.147847
0.148034
0.148133
0.148176
0.14825
0.148383
0.148417
0.148389
0.164597
0.242999
0.409494
0.648357
0.845851
0.952838
0.980997
0.986287
0.965041
0.945748
0.956803
0.974316
0.982213
0.976385
0.960701
0.961332
0.968357
0.973935
0.97215
0.964838
0.964205
0.967635
0.970712
0.970548
0.970443
0.971254
0.973222
0.974039
0.974127
0.974731
0.978988
0.14764
0.147639
0.147638
0.147634
0.147628
0.147625
0.147623
0.14762
0.147618
0.147616
0.147616
0.147616
0.147618
0.147621
0.147627
0.147631
0.147636
0.147642
0.147649
0.147658
0.147685
0.147715
0.14773
0.147744
0.147761
0.147775
0.147788
0.147806
0.147823
0.147839
0.147849
0.147851
0.147851
0.147859
0.147858
0.147825
0.147787
0.147778
0.147777
0.147781
0.147791
0.1478
0.147802
0.147806
0.147821
0.147855
0.147866
0.147849
0.147826
0.147819
0.147809
0.147812
0.147868
0.147936
0.147934
0.147913
0.147843
0.147755
0.147738
0.147742
0.147784
0.147972
0.148287
0.148343
0.148323
0.148344
0.148395
0.148371
0.148289
0.148129
0.147772
0.148551
0.186466
0.344394
0.564667
0.737474
0.894389
0.908714
0.949025
0.982419
0.991467
0.986614
0.958179
0.954589
0.962671
0.975998
0.975234
0.966699
0.961411
0.964589
0.971403
0.97152
0.970228
0.970464
0.972341
0.973916
0.974022
0.974201
0.975571
0.980705
0.147666
0.147664
0.147664
0.147664
0.147664
0.147664
0.147664
0.147664
0.147667
0.147668
0.147667
0.147668
0.147672
0.147684
0.147695
0.147699
0.147706
0.147721
0.147729
0.147736
0.14776
0.147785
0.147789
0.147795
0.1478
0.147802
0.147809
0.147821
0.147829
0.147838
0.147845
0.147845
0.147841
0.147847
0.147849
0.147816
0.147774
0.147763
0.147762
0.147767
0.147778
0.147789
0.147795
0.147806
0.147848
0.147929
0.147955
0.147938
0.147874
0.147842
0.14783
0.147827
0.147876
0.147901
0.147902
0.147893
0.147835
0.14776
0.147767
0.147811
0.147918
0.148218
0.148469
0.148481
0.148455
0.148411
0.148352
0.14822
0.148058
0.1478
0.147579
0.147521
0.147539
0.147625
0.165865
0.274335
0.487844
0.728932
0.924105
0.972171
0.982802
0.964167
0.937264
0.955413
0.979399
0.979679
0.970065
0.958169
0.960157
0.971441
0.973436
0.971238
0.9694
0.970796
0.973995
0.97446
0.973853
0.974404
0.977209
0.982525
0.1478
0.147803
0.147806
0.14781
0.147813
0.147815
0.147818
0.147826
0.147831
0.14783
0.147826
0.147823
0.147825
0.147826
0.147823
0.147818
0.147815
0.147813
0.14781
0.147805
0.147805
0.147812
0.147815
0.147814
0.147812
0.147806
0.147797
0.147791
0.14779
0.147795
0.147808
0.147817
0.14782
0.147828
0.14783
0.1478
0.147767
0.147758
0.147753
0.147756
0.147771
0.147789
0.147803
0.14784
0.147934
0.148011
0.148024
0.148004
0.147913
0.147836
0.147818
0.147805
0.147825
0.14788
0.14789
0.147888
0.147846
0.14782
0.147857
0.147956
0.148135
0.148443
0.148562
0.148559
0.148522
0.148439
0.14825
0.148006
0.147782
0.147557
0.147495
0.147511
0.147651
0.14795
0.148276
0.148354
0.154369
0.247165
0.450451
0.670088
0.863842
0.902347
0.936802
0.990708
0.993681
0.982537
0.95385
0.954949
0.967788
0.97721
0.973366
0.968127
0.969061
0.973575
0.97531
0.974059
0.97351
0.974722
0.979759
0.983809
0.14794
0.147942
0.147943
0.147944
0.147944
0.147943
0.147942
0.147941
0.147938
0.147934
0.147927
0.147913
0.147899
0.147882
0.147858
0.147849
0.147845
0.147835
0.147822
0.147815
0.147809
0.1478
0.147786
0.147772
0.147763
0.147757
0.147753
0.147752
0.147756
0.147769
0.147788
0.147808
0.147825
0.147839
0.147845
0.147846
0.147847
0.147847
0.147831
0.14782
0.147829
0.14785
0.147874
0.14794
0.148021
0.148047
0.148049
0.148029
0.147938
0.147825
0.147796
0.14778
0.147782
0.147851
0.147894
0.147932
0.14799
0.148002
0.148031
0.148121
0.148307
0.148538
0.148596
0.148586
0.148535
0.148361
0.148004
0.147759
0.147546
0.147446
0.14746
0.147561
0.147906
0.14827
0.148442
0.148441
0.148244
0.147645
0.150024
0.222478
0.413776
0.6881
0.904878
0.982179
0.982319
0.950166
0.943386
0.963513
0.98067
0.978087
0.965893
0.966521
0.972089
0.97603
0.974887
0.973128
0.973494
0.977619
0.982358
0.984533
0.148004
0.148004
0.148005
0.14801
0.14801
0.148006
0.147999
0.147985
0.147974
0.14797
0.147964
0.147949
0.147924
0.147888
0.147845
0.147836
0.147837
0.147834
0.147813
0.147779
0.147755
0.147742
0.147734
0.147733
0.147732
0.147734
0.147744
0.147754
0.147765
0.147785
0.147825
0.147887
0.147945
0.147966
0.147973
0.147988
0.147995
0.147971
0.147915
0.147886
0.147891
0.147909
0.147929
0.147986
0.148019
0.148004
0.147975
0.147965
0.147929
0.147813
0.147772
0.147773
0.147782
0.14783
0.147934
0.148129
0.148311
0.148309
0.148244
0.148255
0.148381
0.148551
0.148551
0.148454
0.148293
0.147966
0.14762
0.147522
0.147448
0.147423
0.147439
0.147719
0.148227
0.148428
0.148476
0.148287
0.14776
0.147238
0.14704
0.147088
0.147798
0.218371
0.426629
0.679933
0.848675
0.907006
0.945724
0.994945
0.990749
0.968296
0.960353
0.967191
0.977687
0.977193
0.973117
0.97243
0.975286
0.98165
0.984432
0.984751
0.147968
0.147968
0.147971
0.147972
0.147968
0.147952
0.147931
0.147924
0.147925
0.147926
0.147916
0.147874
0.147815
0.147788
0.147782
0.147784
0.14779
0.147788
0.147773
0.147749
0.147735
0.147725
0.147718
0.14772
0.147722
0.147725
0.147737
0.147766
0.14782
0.147886
0.147952
0.148023
0.14806
0.148068
0.148073
0.14808
0.14807
0.148022
0.147942
0.147903
0.147907
0.14793
0.147922
0.147887
0.147863
0.147835
0.147812
0.147838
0.147865
0.147828
0.147777
0.147785
0.147866
0.147998
0.148149
0.148407
0.148533
0.148512
0.148398
0.148344
0.148412
0.148451
0.148327
0.148082
0.147837
0.147475
0.147295
0.147338
0.147406
0.147418
0.147607
0.148097
0.148404
0.148481
0.148229
0.147737
0.1472
0.146961
0.146981
0.147289
0.147927
0.147971
0.149928
0.215136
0.426163
0.740814
0.920147
0.984877
0.978184
0.950029
0.963373
0.979161
0.980262
0.975329
0.971058
0.972463
0.979543
0.984319
0.984852
0.984953
0.147872
0.147887
0.147898
0.147903
0.147905
0.147904
0.147895
0.147878
0.147872
0.147873
0.14787
0.147845
0.147803
0.147795
0.147801
0.147804
0.147804
0.147805
0.147791
0.147775
0.147775
0.147782
0.147784
0.147781
0.147784
0.147807
0.147829
0.147852
0.147921
0.148023
0.148045
0.148062
0.148086
0.148106
0.148122
0.148121
0.1481
0.148031
0.147937
0.147907
0.147914
0.147891
0.147808
0.147734
0.147678
0.147642
0.147662
0.147777
0.147841
0.147857
0.147885
0.147956
0.148084
0.148206
0.148345
0.148541
0.148587
0.148564
0.148447
0.148363
0.148298
0.148118
0.147776
0.147572
0.147385
0.147184
0.147139
0.147192
0.147298
0.147612
0.14809
0.148432
0.148481
0.148241
0.147699
0.147196
0.146904
0.146915
0.147178
0.147826
0.14827
0.148157
0.147617
0.147451
0.150027
0.239253
0.476082
0.767388
0.863376
0.93028
0.989173
0.987092
0.978401
0.968013
0.969056
0.978186
0.985708
0.98508
0.984107
0.984836
0.147848
0.147868
0.14788
0.147894
0.147916
0.147938
0.14795
0.14796
0.147972
0.147986
0.147985
0.147963
0.147944
0.14794
0.147941
0.147948
0.147956
0.147952
0.147942
0.147946
0.147947
0.147939
0.147922
0.147886
0.147863
0.147865
0.147871
0.147888
0.147946
0.148032
0.148044
0.148037
0.148049
0.148082
0.148108
0.148112
0.148094
0.148008
0.147896
0.147884
0.147877
0.147801
0.147676
0.147571
0.147495
0.147481
0.147538
0.147705
0.147819
0.147908
0.148058
0.148219
0.148314
0.14834
0.148405
0.148529
0.148524
0.148461
0.148295
0.148083
0.147846
0.14744
0.147167
0.147138
0.147103
0.147079
0.147081
0.147167
0.147558
0.148184
0.148622
0.148563
0.148328
0.147733
0.147278
0.146946
0.146857
0.147138
0.147969
0.148688
0.148626
0.148094
0.14757
0.147749
0.148831
0.149352
0.160899
0.263653
0.538771
0.84063
0.957446
0.979324
0.974118
0.962016
0.975567
0.985824
0.98508
0.984347
0.984775
0.985794
0.148084
0.148114
0.148121
0.148125
0.148126
0.148123
0.148102
0.148093
0.148108
0.14814
0.148151
0.148142
0.148098
0.148086
0.148081
0.148054
0.148014
0.148011
0.148014
0.148004
0.147977
0.147951
0.147923
0.147883
0.147826
0.147757
0.147705
0.147687
0.147677
0.147672
0.147683
0.147705
0.147707
0.147718
0.14778
0.147875
0.147888
0.14786
0.147779
0.147739
0.147716
0.147667
0.147567
0.147402
0.147323
0.147334
0.147432
0.14763
0.147883
0.148122
0.148366
0.148441
0.148421
0.148374
0.148279
0.148121
0.14798
0.147875
0.147781
0.147658
0.147402
0.147045
0.146937
0.146954
0.147006
0.147111
0.147334
0.147784
0.14837
0.14886
0.148814
0.148471
0.14791
0.147357
0.147143
0.146885
0.14738
0.148477
0.14946
0.149432
0.148987
0.148198
0.148725
0.149917
0.151099
0.151798
0.152048
0.152442
0.177064
0.326786
0.60378
0.85417
0.927794
0.958709
0.995167
0.988849
0.982984
0.984382
0.985729
0.985904
0.148089
0.148093
0.148093
0.148089
0.148083
0.148076
0.148061
0.148039
0.148041
0.148073
0.148086
0.148074
0.14803
0.148004
0.14797
0.147871
0.147804
0.147808
0.147809
0.147764
0.147671
0.147593
0.147531
0.147463
0.147368
0.147252
0.147213
0.147207
0.147206
0.14721
0.147233
0.147293
0.147312
0.147309
0.147344
0.147473
0.147538
0.14754
0.147503
0.147478
0.147508
0.147517
0.147464
0.147472
0.147517
0.147621
0.147817
0.148068
0.148337
0.14859
0.148616
0.148579
0.148465
0.148264
0.147981
0.147602
0.147401
0.147407
0.147481
0.147459
0.147266
0.147003
0.146943
0.146988
0.147257
0.147769
0.148454
0.148919
0.149234
0.149146
0.148779
0.14808
0.147599
0.147308
0.147183
0.148181
0.149711
0.150832
0.150731
0.150196
0.149405
0.150559
0.152628
0.153787
0.153655
0.154021
0.155334
0.157646
0.158763
0.15921
0.203327
0.402135
0.732198
0.91455
0.987463
0.980286
0.982926
0.984631
0.985239
0.986466
0.147669
0.147653
0.147618
0.147565
0.147508
0.147469
0.147451
0.14744
0.147436
0.147436
0.147435
0.147411
0.147395
0.147392
0.147356
0.147279
0.147234
0.147229
0.147243
0.147234
0.147207
0.147206
0.147199
0.147176
0.147122
0.14706
0.147043
0.14704
0.147044
0.147057
0.147086
0.147159
0.147192
0.147193
0.147224
0.147356
0.147509
0.147564
0.147639
0.147794
0.14795
0.148088
0.148176
0.148222
0.14826
0.148327
0.14842
0.148574
0.148766
0.148772
0.148724
0.148575
0.148351
0.14809
0.147742
0.147375
0.147243
0.147273
0.147417
0.147443
0.147345
0.147291
0.147442
0.147871
0.148761
0.149465
0.149998
0.149956
0.149802
0.149283
0.148605
0.147848
0.14785
0.148593
0.150502
0.152202
0.153085
0.15283
0.151952
0.151895
0.153437
0.155656
0.157667
0.158076
0.158601
0.159663
0.160836
0.162415
0.164085
0.165365
0.165948
0.167462
0.254403
0.511296
0.828821
0.903344
0.979281
0.985561
0.984001
0.985791
0.147323
0.147288
0.147249
0.147205
0.147175
0.14715
0.14714
0.147158
0.147206
0.147226
0.147231
0.147241
0.147255
0.14726
0.147244
0.147204
0.147204
0.147209
0.147191
0.147188
0.147207
0.147235
0.147234
0.147218
0.14722
0.147242
0.14728
0.147321
0.14737
0.147431
0.14752
0.147632
0.147703
0.147751
0.147834
0.147988
0.148177
0.148358
0.148636
0.14894
0.148974
0.148966
0.14897
0.148973
0.148977
0.148969
0.148984
0.148955
0.148851
0.148781
0.148675
0.148477
0.148263
0.147993
0.14761
0.14736
0.147345
0.147445
0.14772
0.148167
0.148781
0.149434
0.150142
0.150841
0.151505
0.151453
0.15117
0.150759
0.150278
0.149226
0.149353
0.150199
0.152211
0.154299
0.156375
0.156351
0.15588
0.155426
0.156012
0.158402
0.16081
0.161777
0.162187
0.163198
0.16429
0.165493
0.167033
0.168544
0.170387
0.171908
0.172969
0.174398
0.175244
0.194771
0.338447
0.642368
0.911517
0.949586
0.980675
0.989796
0.147301
0.147261
0.147221
0.147194
0.147181
0.147165
0.147171
0.147218
0.14726
0.147271
0.147286
0.147331
0.147364
0.147379
0.147406
0.147499
0.147583
0.147631
0.147696
0.147819
0.148052
0.148339
0.148468
0.148534
0.148646
0.14884
0.148979
0.149069
0.149173
0.1493
0.149427
0.149517
0.149554
0.149591
0.149643
0.149711
0.149749
0.149798
0.149863
0.149859
0.149818
0.149767
0.14972
0.149641
0.149595
0.14952
0.149263
0.148799
0.148668
0.14866
0.148616
0.148502
0.148352
0.148348
0.148471
0.148847
0.149348
0.150043
0.150948
0.151951
0.152857
0.153458
0.153784
0.15394
0.153781
0.153322
0.152693
0.152444
0.152816
0.154229
0.156434
0.158857
0.160314
0.161109
0.160913
0.160569
0.160826
0.161956
0.164243
0.166572
0.167468
0.167566
0.168261
0.169736
0.171272
0.172796
0.174828
0.176235
0.177199
0.178312
0.179722
0.181088
0.182362
0.183594
0.184363
0.242493
0.470316
0.748717
0.931907
0.978834
0.14885
0.148864
0.148877
0.14889
0.148908
0.148979
0.149129
0.149247
0.149334
0.149417
0.149517
0.149666
0.149762
0.149811
0.149873
0.149987
0.150151
0.150306
0.15043
0.150564
0.150761
0.150954
0.151012
0.151001
0.150996
0.151037
0.151134
0.151177
0.151187
0.151223
0.151241
0.151235
0.151217
0.151164
0.151063
0.150924
0.150803
0.15073
0.150623
0.150363
0.150155
0.150045
0.149867
0.149804
0.149888
0.14987
0.149676
0.149614
0.149745
0.150016
0.15041
0.151126
0.152163
0.15337
0.15462
0.15568
0.156505
0.157248
0.157756
0.157992
0.158282
0.158244
0.157993
0.157836
0.157974
0.158463
0.159509
0.161176
0.163197
0.165067
0.165877
0.166763
0.166899
0.1665
0.166499
0.167325
0.169099
0.171347
0.173254
0.173919
0.174384
0.175247
0.176573
0.177867
0.179223
0.180925
0.182093
0.182678
0.183542
0.184846
0.186648
0.189086
0.190355
0.191197
0.192801
0.193375
0.200084
0.336058
0.612718
0.908993
0.152871
0.152819
0.152797
0.152776
0.152747
0.152722
0.152693
0.152627
0.152586
0.152586
0.152593
0.152574
0.152567
0.152585
0.152562
0.152521
0.152536
0.152566
0.15251
0.152489
0.152497
0.152431
0.15233
0.152283
0.152313
0.152308
0.152265
0.152177
0.152115
0.152186
0.152185
0.152081
0.152122
0.152064
0.151866
0.151835
0.151873
0.152006
0.152263
0.152648
0.153076
0.153581
0.154355
0.15541
0.15646
0.157442
0.158345
0.159256
0.160175
0.16101
0.161852
0.162716
0.163467
0.164052
0.164527
0.164799
0.165125
0.165371
0.165268
0.164789
0.164704
0.164992
0.165474
0.166215
0.167371
0.168929
0.170511
0.171742
0.172919
0.173732
0.173522
0.173309
0.173726
0.174762
0.176416
0.178018
0.179523
0.18132
0.181591
0.181857
0.182742
0.1841
0.185343
0.186376
0.187722
0.189148
0.190401
0.191526
0.19272
0.193877
0.194697
0.195989
0.197584
0.198185
0.199183
0.201161
0.202321
0.202714
0.237611
0.590432
0.158171
0.158212
0.158258
0.158327
0.158415
0.158494
0.158574
0.158659
0.158749
0.158837
0.158924
0.159027
0.159174
0.159322
0.159453
0.159612
0.159825
0.160035
0.160258
0.160543
0.160839
0.161145
0.161473
0.161885
0.162292
0.162646
0.162975
0.163409
0.163992
0.164449
0.164827
0.165277
0.165808
0.166386
0.166981
0.167534
0.16804
0.168516
0.168922
0.169343
0.169832
0.170334
0.170706
0.170992
0.171278
0.171691
0.17204
0.172284
0.172504
0.172565
0.172482
0.172414
0.17234
0.17212
0.17194
0.171788
0.171805
0.172219
0.172676
0.173209
0.174048
0.175211
0.176671
0.178341
0.179762
0.180912
0.181645
0.181908
0.182145
0.182657
0.183102
0.183596
0.18432
0.185796
0.187509
0.188704
0.189702
0.190006
0.190441
0.191182
0.192075
0.193336
0.194488
0.195936
0.197593
0.198026
0.198817
0.199891
0.20059
0.201553
0.203118
0.20391
0.20525
0.206577
0.207728
0.208897
0.209788
0.211313
0.211735
0.272045
0.173875
0.173983
0.174089
0.174186
0.174294
0.174402
0.17452
0.17466
0.174831
0.17497
0.175058
0.175162
0.175342
0.175468
0.175534
0.175594
0.175713
0.175857
0.175964
0.176046
0.176104
0.176176
0.176307
0.176427
0.176512
0.176609
0.176698
0.176803
0.176912
0.177012
0.177122
0.177266
0.177412
0.177583
0.177878
0.177933
0.177909
0.177932
0.17801
0.178127
0.178265
0.178242
0.177937
0.177659
0.177649
0.177842
0.178186
0.178146
0.178175
0.178422
0.178571
0.178892
0.179504
0.180374
0.181377
0.182564
0.183937
0.185426
0.186904
0.188374
0.189561
0.190461
0.191254
0.19184
0.192434
0.192597
0.192452
0.192257
0.192425
0.192997
0.19413
0.195166
0.196264
0.197294
0.198102
0.198976
0.199458
0.200023
0.200795
0.201729
0.202788
0.203858
0.205036
0.205902
0.206809
0.207542
0.207758
0.20852
0.209792
0.211327
0.213077
0.213712
0.213988
0.214918
0.215905
0.216322
0.217574
0.218803
0.219771
0.220743
0.186745
0.186767
0.186795
0.186835
0.186863
0.186898
0.186972
0.186985
0.186958
0.186957
0.187052
0.187126
0.187185
0.18731
0.187371
0.18742
0.18758
0.187707
0.187732
0.187812
0.187912
0.188017
0.188231
0.188476
0.188658
0.188808
0.188953
0.189101
0.189286
0.18955
0.189699
0.189682
0.18963
0.189619
0.189701
0.189998
0.190421
0.190783
0.19114
0.191603
0.192177
0.192823
0.193581
0.194479
0.195328
0.196091
0.196873
0.197691
0.198466
0.199083
0.199668
0.200301
0.200932
0.201451
0.201957
0.202514
0.202997
0.203345
0.203479
0.203445
0.203197
0.20285
0.202682
0.202694
0.202849
0.202944
0.203022
0.2034
0.204146
0.205428
0.206862
0.208022
0.209081
0.209604
0.210097
0.210272
0.210609
0.211148
0.21171
0.212604
0.213593
0.214473
0.215674
0.216042
0.216227
0.217035
0.218082
0.21909
0.220234
0.220969
0.221319
0.221892
0.222668
0.223438
0.224589
0.226293
0.227022
0.22738
0.228156
0.229751
0.204454
0.20453
0.2046
0.204701
0.204803
0.204858
0.204984
0.205165
0.205182
0.20517
0.205234
0.205429
0.205564
0.205596
0.205665
0.205932
0.206251
0.206395
0.206519
0.206607
0.206658
0.206743
0.207057
0.207404
0.207443
0.207488
0.207648
0.207874
0.208213
0.208571
0.208744
0.208901
0.209118
0.209421
0.209768
0.210148
0.210528
0.210853
0.211117
0.211321
0.211418
0.211396
0.211306
0.211261
0.211248
0.211279
0.211482
0.211708
0.211748
0.211786
0.211957
0.212022
0.211895
0.2113
0.210985
0.21089
0.210614
0.210414
0.210629
0.210751
0.210837
0.211129
0.211767
0.21269
0.213956
0.215485
0.217095
0.218457
0.219444
0.220435
0.220716
0.22114
0.221092
0.221154
0.221128
0.221249
0.221763
0.222549
0.223578
0.224692
0.225633
0.226355
0.22682
0.227538
0.227826
0.228108
0.228872
0.229984
0.230941
0.231473
0.231815
0.232624
0.233771
0.234403
0.234988
0.235551
0.235799
0.236512
0.237295
0.238379
0.222147
0.222194
0.222246
0.222296
0.222367
0.222442
0.22247
0.222515
0.222618
0.222655
0.222625
0.222649
0.22269
0.222661
0.22273
0.222795
0.222771
0.222771
0.222867
0.222888
0.222815
0.222833
0.222916
0.222866
0.222775
0.222839
0.222856
0.222786
0.222753
0.222782
0.222863
0.222899
0.222889
0.222846
0.222767
0.222725
0.222778
0.223105
0.223254
0.223253
0.223415
0.223545
0.223528
0.223616
0.224028
0.224217
0.224138
0.223995
0.224013
0.224194
0.224647
0.22532
0.226004
0.2267
0.227487
0.228388
0.229315
0.230175
0.230903
0.231658
0.232587
0.233516
0.234302
0.234841
0.235398
0.235532
0.235397
0.235011
0.2349
0.234725
0.234272
0.233752
0.233794
0.234065
0.234621
0.235516
0.236679
0.237711
0.238688
0.239057
0.23937
0.239277
0.239055
0.239175
0.23977
0.240452
0.241172
0.241762
0.242144
0.2427
0.24298
0.243215
0.243334
0.243807
0.244185