/*--------------------------------*- C++ -*----------------------------------*\
  =========                 |
  \\      /  F ield         | OpenFOAM: The Open Source CFD Toolbox
   \\    /   O peration     | Website:  https://openfoam.org
    \\  /    A nd           | Version:  7
     \\/     M anipulation  |
\*---------------------------------------------------------------------------*/
FoamFile
{
    version     2.0;
    format      ascii;
    class       volScalarField;
    location    "15";
    object      T;
}
// * * * * * * * * * * * * * * * * * * * * * * * * * * * * * * * * * * * * * //

dimensions      [0 0 0 1 0 0 0];

internalField   nonuniform List<scalar> 
90000
(
0.676325
0.753187
0.819579
0.863633
0.886433
0.910993
0.935939
0.952395
0.963911
0.980987
0.999037
1.01456
1.0309
1.05002
1.06878
1.08795
1.10826
1.12785
1.14674
1.16222
1.17632
1.18525
1.19413
1.19477
1.19437
1.19297
1.19086
1.18805
1.18475
1.18074
1.17682
1.17356
1.17226
1.17038
1.16918
1.16785
1.16576
1.16297
1.15913
1.15511
1.15239
1.1531
1.15601
1.15952
1.16347
1.16663
1.1693
1.16915
1.1668
1.16244
1.15686
1.15208
1.14888
1.14731
1.14799
1.14923
1.15082
1.15159
1.15063
1.14841
1.14529
1.14227
1.14047
1.13979
1.14027
1.14088
1.14003
1.13829
1.1355
1.13297
1.1311
1.13094
1.13115
1.1302
1.12831
1.12592
1.1238
1.12262
1.12259
1.12155
1.1196
1.11712
1.11527
1.11417
1.11289
1.11117
1.10936
1.10761
1.10593
1.1042
1.10244
1.10082
1.09918
1.09741
1.09565
1.0941
1.09284
1.0916
1.09069
1.08916
0.589873
0.589751
0.589626
0.58949
0.58934
0.589185
0.589034
0.588866
0.58865
0.589746
0.593012
0.599625
0.609941
0.627375
0.650583
0.683358
0.722466
0.772174
0.822398
0.877244
0.927798
0.976791
1.01922
1.05453
1.0835
1.10686
1.1272
1.14303
1.15778
1.16748
1.17665
1.18228
1.18855
1.19071
1.19431
1.19441
1.19398
1.19229
1.1909
1.1926
1.19656
1.19908
1.19994
1.19988
1.19941
1.19869
1.19626
1.19235
1.18702
1.18319
1.18028
1.18036
1.18086
1.18158
1.18244
1.18314
1.18293
1.18168
1.17919
1.17554
1.17237
1.17012
1.17034
1.17091
1.17214
1.17164
1.17009
1.16706
1.16395
1.16219
1.16133
1.16158
1.16086
1.15894
1.15633
1.15392
1.1526
1.15207
1.15059
1.14821
1.14538
1.14287
1.14107
1.14003
1.13827
1.13597
1.13359
1.13146
1.12918
1.12683
1.12454
1.12228
1.11984
1.11728
1.11477
1.11251
1.11059
1.1087
1.10698
1.10426
0.588428
0.58831
0.588183
0.588049
0.58791
0.587764
0.58761
0.587451
0.587284
0.587111
0.586883
0.586625
0.586357
0.586088
0.585818
0.58555
0.585286
0.585033
0.58478
0.584558
0.584215
0.586139
0.593165
0.61209
0.641418
0.686092
0.735764
0.794418
0.849656
0.906916
0.956278
1.0022
1.04107
1.07663
1.10886
1.13681
1.16369
1.18374
1.20231
1.21309
1.22018
1.2201
1.21897
1.21708
1.21414
1.20923
1.20184
1.19247
1.18684
1.18818
1.19114
1.19443
1.19762
1.19994
1.20151
1.20141
1.19996
1.19667
1.19307
1.19066
1.18985
1.19055
1.19287
1.19311
1.19245
1.19044
1.18737
1.18503
1.18294
1.18382
1.1851
1.18468
1.18286
1.18011
1.1776
1.17645
1.17615
1.17612
1.17483
1.17199
1.16918
1.16749
1.16634
1.16472
1.1627
1.1606
1.15846
1.15607
1.15355
1.15098
1.14863
1.14628
1.14361
1.14065
1.1379
1.13531
1.13271
1.13024
1.12814
1.12443
0.586301
0.586174
0.586039
0.585898
0.585754
0.585603
0.585449
0.585288
0.585125
0.584956
0.584787
0.58462
0.584453
0.584288
0.584121
0.583953
0.583784
0.583618
0.583454
0.583296
0.583147
0.582976
0.582794
0.582615
0.582454
0.582306
0.582176
0.582053
0.581951
0.581799
0.58434
0.597195
0.621604
0.666006
0.719403
0.787876
0.854515
0.924662
0.985749
1.0374
1.07973
1.11185
1.14114
1.15811
1.17312
1.17782
1.18327
1.18561
1.19215
1.19735
1.20318
1.20646
1.20942
1.20935
1.20884
1.20693
1.20199
1.1976
1.19506
1.19543
1.19718
1.1997
1.20308
1.20274
1.20069
1.19711
1.19456
1.19349
1.19436
1.19538
1.19719
1.19629
1.1937
1.19186
1.19046
1.19145
1.1916
1.19061
1.18867
1.18611
1.18444
1.18372
1.18379
1.18283
1.18104
1.179
1.17754
1.1759
1.17384
1.17185
1.16979
1.16749
1.16494
1.1624
1.15984
1.1577
1.15548
1.15282
1.15072
1.14681
0.584242
0.584145
0.584044
0.58394
0.583833
0.583725
0.583616
0.583504
0.583392
0.583281
0.58317
0.583063
0.582958
0.582851
0.582746
0.58264
0.582533
0.582431
0.582331
0.582237
0.582147
0.582058
0.581972
0.581889
0.581813
0.58174
0.581671
0.581602
0.581532
0.581466
0.581377
0.581282
0.581189
0.581098
0.581008
0.580925
0.580802
0.582354
0.592477
0.627414
0.681401
0.760731
0.840344
0.921034
0.98979
1.05028
1.10624
1.14883
1.1799
1.19128
1.1985
1.20085
1.20336
1.20393
1.20257
1.19703
1.19288
1.19407
1.19602
1.1999
1.20328
1.20482
1.20421
1.20242
1.19892
1.1958
1.19523
1.1962
1.19896
1.20149
1.20077
1.19845
1.19589
1.19495
1.19552
1.19743
1.19837
1.1968
1.19408
1.19242
1.19258
1.19286
1.19238
1.19155
1.19058
1.18973
1.18859
1.18725
1.18583
1.1845
1.18365
1.18234
1.18052
1.17863
1.17695
1.17513
1.1735
1.17183
1.17001
1.16664
0.582737
0.582679
0.582618
0.582556
0.582492
0.582428
0.582365
0.582302
0.582239
0.582177
0.582116
0.582057
0.581998
0.581939
0.581881
0.581824
0.581766
0.581709
0.581652
0.581599
0.581547
0.581495
0.581442
0.581389
0.581339
0.581288
0.581236
0.581181
0.581121
0.581057
0.580993
0.58093
0.580864
0.580795
0.580723
0.580646
0.580571
0.580472
0.580368
0.580273
0.580188
0.580125
0.580048
0.582794
0.60019
0.656638
0.740034
0.848955
0.940439
1.01512
1.07147
1.10908
1.14263
1.15744
1.16995
1.17395
1.18363
1.19246
1.20142
1.2065
1.20553
1.20286
1.19946
1.19467
1.19247
1.19301
1.19505
1.19912
1.20332
1.2024
1.19891
1.19549
1.19447
1.19529
1.19865
1.20049
1.19953
1.1965
1.19387
1.19393
1.19494
1.19598
1.19544
1.19434
1.1934
1.19323
1.19289
1.19214
1.19136
1.19081
1.18997
1.18905
1.18816
1.18726
1.18667
1.18595
1.18469
1.18388
1.18326
1.18118
0.581803
0.581773
0.581742
0.58171
0.581677
0.581644
0.581611
0.581578
0.581547
0.581516
0.581484
0.581453
0.581418
0.581383
0.581349
0.581313
0.581277
0.581241
0.581204
0.581168
0.581131
0.581093
0.581052
0.581012
0.580973
0.580932
0.580886
0.580834
0.580775
0.580713
0.580652
0.580589
0.580525
0.580458
0.580385
0.58031
0.580232
0.580158
0.580093
0.580039
0.579995
0.579957
0.57993
0.579897
0.579865
0.579821
0.579795
0.579766
0.583822
0.622144
0.691524
0.797612
0.892884
0.980856
1.05491
1.1141
1.1604
1.17859
1.18949
1.19339
1.1965
1.19567
1.18971
1.18515
1.18673
1.1922
1.19677
1.19883
1.19884
1.19539
1.19139
1.19082
1.19252
1.19707
1.19951
1.19865
1.19528
1.19319
1.19266
1.19416
1.19611
1.19585
1.19488
1.19408
1.19366
1.19366
1.1934
1.19268
1.19237
1.19242
1.19211
1.19136
1.19067
1.19051
1.19036
1.19031
1.19024
1.1896
1.18914
1.18863
0.581274
0.581259
0.581243
0.581225
0.581207
0.581188
0.581169
0.58115
0.581131
0.581111
0.58109
0.581067
0.581042
0.581017
0.58099
0.580962
0.580932
0.580901
0.580868
0.580836
0.580805
0.580771
0.580734
0.5807
0.580663
0.580622
0.580576
0.580525
0.580464
0.580399
0.580337
0.580279
0.580224
0.580167
0.580107
0.580048
0.57999
0.579934
0.579888
0.579859
0.57984
0.57982
0.579806
0.579793
0.579773
0.579743
0.579714
0.579694
0.579671
0.579663
0.579665
0.579665
0.579652
0.6062
0.671888
0.796352
0.910057
1.00262
1.07242
1.11335
1.15135
1.16137
1.1704
1.17763
1.19062
1.19798
1.19888
1.19796
1.19131
1.18448
1.18509
1.18822
1.19394
1.19854
1.1976
1.19245
1.18865
1.18881
1.19116
1.19446
1.19471
1.19396
1.19256
1.19246
1.19307
1.19317
1.19259
1.19205
1.19212
1.19219
1.19198
1.19142
1.19105
1.19119
1.19144
1.1914
1.19166
1.19191
1.19169
1.1916
0.580956
0.580945
0.580932
0.580917
0.580901
0.580885
0.580869
0.580853
0.580836
0.580817
0.580796
0.580774
0.58075
0.580724
0.580698
0.580671
0.580641
0.580609
0.580576
0.580544
0.580512
0.580479
0.580447
0.580412
0.580373
0.58033
0.580286
0.580237
0.58018
0.580121
0.580066
0.580018
0.579976
0.579937
0.579898
0.579861
0.579825
0.579789
0.579762
0.579756
0.579751
0.579743
0.579736
0.579719
0.57969
0.579656
0.579621
0.579591
0.579572
0.57957
0.579573
0.579578
0.579586
0.579592
0.57959
0.579553
0.58068
0.622888
0.709879
0.839105
0.952248
1.04526
1.12432
1.16612
1.18471
1.18995
1.19242
1.18879
1.1778
1.17917
1.18438
1.19083
1.19404
1.19404
1.1895
1.18422
1.18437
1.18717
1.19089
1.19246
1.19168
1.18945
1.18919
1.19053
1.1915
1.19102
1.19023
1.19038
1.19121
1.19119
1.1908
1.19052
1.19066
1.19127
1.19159
1.19152
1.19159
1.19203
1.19217
1.19238
0.58068
0.580667
0.580653
0.580638
0.580622
0.580606
0.580588
0.580569
0.580549
0.580526
0.580502
0.580477
0.58045
0.580422
0.580394
0.580364
0.580333
0.580302
0.580269
0.580236
0.580203
0.580173
0.580142
0.58011
0.580074
0.580034
0.579993
0.579953
0.579917
0.579881
0.579846
0.579817
0.579796
0.579776
0.579756
0.579739
0.579724
0.579703
0.579694
0.579695
0.57969
0.579682
0.579671
0.579648
0.579602
0.579561
0.579527
0.579496
0.579465
0.57946
0.579465
0.579479
0.579499
0.579551
0.579574
0.57956
0.579508
0.579464
0.579456
0.579449
0.59132
0.675272
0.808346
0.94901
1.04396
1.10117
1.14583
1.15878
1.16731
1.18066
1.19272
1.19589
1.19456
1.18623
1.17925
1.17997
1.18399
1.18944
1.19118
1.18985
1.18635
1.1856
1.18736
1.18915
1.18878
1.18774
1.18759
1.1885
1.18935
1.18898
1.18852
1.18878
1.18957
1.19022
1.19052
1.19066
1.19108
1.19171
1.19192
1.19244
0.580367
0.58035
0.580332
0.580315
0.580296
0.580276
0.580255
0.580234
0.580212
0.58019
0.580166
0.58014
0.580114
0.580087
0.580061
0.580033
0.580004
0.579975
0.579946
0.579918
0.57989
0.579864
0.579842
0.579823
0.579803
0.579778
0.579751
0.579733
0.579727
0.579721
0.579713
0.579706
0.579702
0.579696
0.579687
0.579681
0.579673
0.579657
0.579648
0.579641
0.579633
0.579622
0.579605
0.579575
0.579532
0.579494
0.579471
0.579449
0.57942
0.579409
0.579413
0.579422
0.57945
0.579538
0.57957
0.579558
0.579501
0.579448
0.579431
0.579424
0.579424
0.579424
0.579413
0.5934
0.661191
0.803742
0.937747
1.05243
1.13989
1.17748
1.19188
1.19154
1.18676
1.1731
1.17541
1.18249
1.18763
1.18976
1.1886
1.18398
1.18275
1.1841
1.18729
1.18726
1.18628
1.18503
1.18566
1.18712
1.18719
1.18634
1.18632
1.18693
1.18796
1.18841
1.18876
1.18928
1.18992
1.19034
1.19067
1.19168
0.580008
0.579993
0.579976
0.579959
0.579942
0.579925
0.579907
0.579888
0.579868
0.579848
0.579832
0.579812
0.579789
0.57977
0.579751
0.579729
0.579707
0.579684
0.579662
0.579648
0.579637
0.579627
0.579628
0.579634
0.579635
0.579631
0.579627
0.579631
0.579646
0.579653
0.579654
0.579655
0.579655
0.579653
0.57965
0.579642
0.579627
0.57961
0.579596
0.579587
0.579579
0.579568
0.579548
0.579525
0.579498
0.579467
0.579451
0.579435
0.57942
0.579419
0.579418
0.579419
0.579461
0.57958
0.5796
0.579587
0.579519
0.579428
0.579389
0.57938
0.579391
0.579408
0.579443
0.579496
0.579593
0.579659
0.589651
0.67986
0.848376
0.985773
1.07906
1.1309
1.15759
1.16374
1.1808
1.19198
1.1919
1.19034
1.18198
1.17967
1.18139
1.18634
1.18762
1.18584
1.18324
1.18363
1.18565
1.18646
1.18562
1.18447
1.1848
1.18597
1.18657
1.18683
1.18717
1.18791
1.18853
1.18876
1.18916
1.19069
0.579717
0.579707
0.579696
0.579681
0.579668
0.579655
0.579643
0.579629
0.579615
0.579602
0.579591
0.579579
0.579567
0.579558
0.57955
0.579538
0.579528
0.579517
0.57951
0.579511
0.579521
0.579539
0.579553
0.579569
0.579581
0.579587
0.579591
0.579603
0.579625
0.579636
0.579638
0.579637
0.579635
0.579636
0.579637
0.579613
0.579586
0.57957
0.579561
0.579558
0.579554
0.579544
0.579527
0.579514
0.579513
0.579506
0.579479
0.579457
0.579455
0.579453
0.579441
0.579446
0.579507
0.579611
0.579617
0.579603
0.579534
0.57941
0.579353
0.579345
0.579366
0.579452
0.579652
0.579758
0.579803
0.579883
0.580023
0.580038
0.58
0.609502
0.730212
0.888212
1.03592
1.13473
1.18044
1.19163
1.19138
1.18357
1.17617
1.18004
1.18633
1.18916
1.18733
1.18183
1.18206
1.18456
1.18658
1.18604
1.18335
1.18334
1.18459
1.1859
1.18597
1.18606
1.18646
1.18729
1.18767
1.18784
1.18822
1.19003
0.579558
0.579554
0.579548
0.579538
0.579527
0.579519
0.579512
0.579506
0.579499
0.579492
0.579487
0.579484
0.579482
0.579483
0.579486
0.579485
0.579485
0.579486
0.579488
0.579493
0.579515
0.579541
0.57955
0.579558
0.57957
0.57958
0.579589
0.579603
0.57962
0.579637
0.57964
0.579636
0.579629
0.579632
0.579627
0.579586
0.579535
0.579512
0.579509
0.579511
0.579517
0.579518
0.579514
0.579514
0.579526
0.579556
0.579562
0.579541
0.57951
0.579489
0.579467
0.579469
0.579531
0.579593
0.579586
0.579556
0.579474
0.579367
0.579333
0.579336
0.579376
0.579574
0.579915
0.57997
0.579946
0.579968
0.580016
0.579983
0.579883
0.579691
0.579283
0.580698
0.649087
0.846651
0.997489
1.08609
1.15468
1.16099
1.17702
1.18988
1.19281
1.19122
1.18198
1.1802
1.18299
1.18762
1.18736
1.18431
1.18254
1.18373
1.18594
1.18618
1.18582
1.18593
1.18662
1.18724
1.18736
1.18748
1.18805
1.18998
0.579503
0.579498
0.579496
0.579493
0.57949
0.579488
0.579485
0.579483
0.579484
0.579483
0.579479
0.579478
0.579481
0.579491
0.579496
0.579495
0.579497
0.579508
0.579511
0.579515
0.579539
0.579561
0.57956
0.579562
0.579565
0.579567
0.579576
0.579589
0.579597
0.579604
0.579604
0.579599
0.579586
0.579587
0.579586
0.579546
0.579491
0.579461
0.579456
0.579459
0.579465
0.579473
0.579476
0.579485
0.579525
0.579606
0.579626
0.579606
0.579534
0.57949
0.579469
0.579465
0.579515
0.579531
0.579527
0.579511
0.579448
0.579356
0.579359
0.579402
0.579514
0.579837
0.580098
0.580105
0.580073
0.580022
0.579954
0.579802
0.579613
0.579313
0.57906
0.578985
0.579004
0.579097
0.612119
0.767547
0.943873
1.08168
1.16915
1.19158
1.19155
1.18453
1.17472
1.181
1.1893
1.18966
1.18632
1.18211
1.18278
1.18679
1.18726
1.18647
1.18579
1.18625
1.18733
1.1875
1.18732
1.18753
1.18849
1.19036
0.579593
0.579596
0.579597
0.579599
0.579601
0.579601
0.579603
0.57961
0.579613
0.579611
0.579603
0.579596
0.579595
0.579592
0.579584
0.579573
0.579566
0.579561
0.579554
0.579546
0.579546
0.579555
0.57956
0.579558
0.579554
0.579544
0.579528
0.579512
0.579506
0.579509
0.579519
0.579522
0.579523
0.579529
0.579532
0.579503
0.579466
0.579443
0.579429
0.579429
0.579441
0.579455
0.579465
0.579498
0.579593
0.579669
0.579677
0.579654
0.579553
0.579465
0.579433
0.579409
0.57943
0.579484
0.579487
0.579487
0.579438
0.579404
0.579444
0.57955
0.579743
0.580075
0.580186
0.580178
0.580134
0.580041
0.579826
0.579549
0.579288
0.579028
0.578953
0.578971
0.579124
0.579456
0.579817
0.579922
0.590672
0.737989
0.923638
1.05357
1.142
1.15869
1.17264
1.19308
1.1946
1.19112
1.18133
1.18162
1.18595
1.18911
1.1877
1.18579
1.18605
1.18758
1.18812
1.18766
1.18741
1.18782
1.18958
1.191
0.5797
0.5797
0.5797
0.579698
0.579697
0.579694
0.579691
0.579689
0.579684
0.579678
0.579667
0.579649
0.57963
0.57961
0.579584
0.579573
0.579567
0.579549
0.579534
0.579525
0.579518
0.579505
0.579485
0.579465
0.579451
0.57944
0.57943
0.579426
0.57943
0.579443
0.579464
0.579486
0.579505
0.57952
0.579524
0.579524
0.57952
0.579514
0.579485
0.579465
0.579473
0.579492
0.579511
0.579577
0.579664
0.579692
0.579694
0.579671
0.579569
0.57944
0.579391
0.57936
0.57936
0.579429
0.579474
0.579512
0.579573
0.579586
0.579617
0.579715
0.579918
0.580163
0.580216
0.580204
0.580144
0.579943
0.579539
0.579257
0.579011
0.578894
0.578909
0.579022
0.579405
0.579823
0.580037
0.580054
0.579845
0.5792
0.583579
0.703009
0.891101
1.06116
1.16333
1.19314
1.1922
1.18045
1.17707
1.18428
1.19029
1.1894
1.18525
1.18544
1.18736
1.18876
1.18833
1.18767
1.18776
1.18921
1.19092
1.19159
0.57974
0.579739
0.579739
0.579743
0.579743
0.579738
0.579729
0.579712
0.579698
0.579692
0.579682
0.579663
0.579634
0.57959
0.579537
0.579523
0.579524
0.57952
0.579495
0.579453
0.579423
0.579404
0.57939
0.579383
0.579378
0.579379
0.579388
0.579401
0.579414
0.579437
0.579478
0.579544
0.579606
0.579624
0.579628
0.57964
0.579648
0.579618
0.579549
0.579505
0.579508
0.579525
0.579546
0.579609
0.579644
0.579627
0.579593
0.579582
0.579544
0.57942
0.579349
0.579344
0.579349
0.579396
0.579503
0.579711
0.57991
0.579907
0.579834
0.579845
0.579982
0.580166
0.580162
0.580044
0.579858
0.579487
0.579096
0.578981
0.578894
0.578868
0.578885
0.5792
0.579777
0.580032
0.580101
0.579901
0.579331
0.578756
0.578533
0.578587
0.579696
0.698581
0.908025
1.05754
1.13395
1.16003
1.17593
1.19462
1.19338
1.18617
1.18345
1.18584
1.18954
1.18937
1.18805
1.18769
1.1887
1.19097
1.19184
1.1918
0.57967
0.579668
0.579669
0.579669
0.579664
0.579645
0.579618
0.579604
0.579604
0.579604
0.579592
0.579543
0.579475
0.579439
0.57943
0.579431
0.579435
0.579433
0.579415
0.579388
0.579373
0.579361
0.579349
0.579349
0.57935
0.579351
0.579363
0.579391
0.579448
0.579519
0.57959
0.579668
0.579709
0.579714
0.579714
0.579719
0.579707
0.579652
0.57956
0.579504
0.579507
0.579531
0.57952
0.579478
0.579446
0.579412
0.579385
0.579414
0.579446
0.579407
0.579344
0.579348
0.579428
0.579564
0.579725
0.580005
0.580142
0.580117
0.579989
0.579928
0.580006
0.580041
0.579896
0.579611
0.579331
0.578925
0.578726
0.578773
0.57885
0.578863
0.579079
0.579639
0.580013
0.580117
0.579847
0.579313
0.578717
0.578442
0.578465
0.57881
0.579445
0.579509
0.583025
0.69134
0.897842
1.08945
1.17173
1.19429
1.19122
1.18048
1.1849
1.19008
1.19062
1.18904
1.18745
1.1879
1.19016
1.19181
1.19179
1.19175
0.579527
0.579542
0.579552
0.579556
0.579558
0.579558
0.579549
0.579529
0.57952
0.57952
0.579517
0.57949
0.57944
0.579425
0.57943
0.579431
0.579429
0.579429
0.579412
0.579388
0.579385
0.57939
0.57939
0.579385
0.579387
0.57941
0.579433
0.579457
0.579533
0.579644
0.57967
0.579691
0.57972
0.579741
0.579755
0.579754
0.57973
0.579653
0.579542
0.579499
0.579503
0.579473
0.579371
0.57928
0.579213
0.579171
0.579193
0.579321
0.579393
0.579408
0.579436
0.579511
0.579651
0.579783
0.579931
0.580145
0.580194
0.580167
0.580037
0.579941
0.579863
0.579656
0.579264
0.579027
0.578815
0.578595
0.578551
0.578614
0.578734
0.579093
0.579648
0.580056
0.580131
0.579872
0.579278
0.578717
0.578376
0.578387
0.578676
0.579386
0.579872
0.579738
0.579125
0.578937
0.583143
0.727622
0.942349
1.1012
1.14362
1.17067
1.19333
1.19262
1.18964
1.18602
1.18604
1.18886
1.19132
1.19112
1.1908
1.19103
0.579469
0.579491
0.579504
0.57952
0.579543
0.579567
0.579579
0.579589
0.5796
0.579613
0.57961
0.579586
0.579559
0.579549
0.579549
0.579555
0.579561
0.579555
0.579541
0.579544
0.579543
0.579534
0.579513
0.579475
0.579454
0.579456
0.579464
0.579484
0.579549
0.579645
0.579656
0.579648
0.579661
0.579698
0.579727
0.579729
0.579707
0.579608
0.579474
0.579448
0.579435
0.579342
0.579196
0.579074
0.578987
0.578972
0.579036
0.579224
0.57935
0.579445
0.579612
0.579794
0.5799
0.579923
0.579992
0.580118
0.580108
0.580032
0.579846
0.579611
0.579348
0.578891
0.578577
0.578542
0.578502
0.578481
0.578487
0.578592
0.579046
0.579776
0.580299
0.580234
0.579981
0.579319
0.57881
0.578426
0.578316
0.578625
0.57954
0.580324
0.58025
0.579654
0.579068
0.579271
0.58049
0.581063
0.600486
0.750723
0.974152
1.13072
1.17983
1.18684
1.18495
1.18041
1.18464
1.1881
1.18835
1.18832
1.18852
1.18899
0.579711
0.579744
0.579751
0.579754
0.579755
0.579751
0.579727
0.57972
0.579739
0.579771
0.579777
0.579764
0.579713
0.579696
0.579689
0.579656
0.579609
0.579604
0.579606
0.579594
0.579562
0.579532
0.579501
0.579456
0.579391
0.579314
0.579252
0.579229
0.579217
0.579211
0.579223
0.579247
0.579249
0.579261
0.579329
0.57943
0.579441
0.579407
0.579313
0.579262
0.579233
0.579175
0.579061
0.578875
0.578788
0.578801
0.578911
0.579132
0.579413
0.579679
0.579954
0.580031
0.580008
0.579953
0.579835
0.579643
0.579478
0.57936
0.579259
0.579127
0.578849
0.57845
0.578322
0.578339
0.578397
0.578525
0.578799
0.579335
0.580017
0.580586
0.580535
0.580156
0.579515
0.578892
0.57865
0.578345
0.57889
0.580099
0.581176
0.581142
0.580644
0.579769
0.580363
0.581694
0.582999
0.583758
0.584033
0.584467
0.62477
0.813318
1.00577
1.122
1.15533
1.17014
1.18551
1.18384
1.18212
1.18256
1.18312
1.18365
0.579702
0.579703
0.579703
0.579697
0.579688
0.579679
0.579661
0.579636
0.579638
0.579673
0.57968
0.579667
0.579616
0.579583
0.57954
0.579426
0.579344
0.579347
0.579346
0.579292
0.579185
0.579099
0.57903
0.578955
0.578849
0.578721
0.578675
0.578667
0.578666
0.578671
0.578696
0.578764
0.578787
0.578784
0.578824
0.578971
0.57904
0.579041
0.578999
0.578969
0.579001
0.579009
0.578944
0.578951
0.578997
0.579107
0.57932
0.579594
0.579891
0.580172
0.580206
0.580168
0.580043
0.579816
0.579489
0.579049
0.578827
0.578837
0.578928
0.578908
0.578699
0.578405
0.578336
0.578392
0.578714
0.579324
0.580126
0.580665
0.581017
0.580905
0.580483
0.579693
0.579141
0.578839
0.578638
0.579745
0.581442
0.582682
0.582572
0.581982
0.581112
0.582396
0.584671
0.585935
0.585787
0.586183
0.587603
0.590084
0.591288
0.591767
0.659963
0.860104
1.05923
1.13855
1.17137
1.17035
1.17127
1.17243
1.17344
1.1747
0.579212
0.579193
0.579153
0.579093
0.57903
0.578984
0.578962
0.578947
0.578938
0.578935
0.578933
0.578906
0.578886
0.57888
0.578833
0.578743
0.578689
0.578682
0.578696
0.578685
0.578654
0.578653
0.578646
0.57862
0.578561
0.578492
0.578474
0.578471
0.578475
0.57849
0.578523
0.578606
0.578645
0.578647
0.578682
0.578832
0.579004
0.579063
0.579146
0.579319
0.579491
0.57964
0.579729
0.579768
0.579799
0.579864
0.57996
0.580127
0.580349
0.580363
0.580314
0.580157
0.579915
0.579622
0.57922
0.578797
0.578654
0.578689
0.57886
0.578898
0.578793
0.578788
0.578973
0.579473
0.58049
0.581291
0.581874
0.581815
0.581625
0.581021
0.58026
0.579408
0.579402
0.580214
0.58232
0.584182
0.585149
0.584876
0.583914
0.583861
0.585552
0.587953
0.590105
0.590543
0.591102
0.592232
0.593475
0.595137
0.596878
0.598202
0.598792
0.600753
0.723322
0.930639
1.08859
1.12291
1.15257
1.16047
1.16062
1.16201
0.578796
0.578757
0.578714
0.578667
0.578634
0.578605
0.578593
0.578614
0.578666
0.578685
0.578689
0.578699
0.578713
0.578716
0.578697
0.57865
0.578649
0.578653
0.578632
0.578629
0.578649
0.57868
0.578677
0.578658
0.578659
0.578681
0.57872
0.578762
0.578814
0.578879
0.578975
0.579099
0.57918
0.579234
0.579328
0.579502
0.579716
0.579923
0.580242
0.58059
0.580615
0.580598
0.580593
0.580584
0.580579
0.580565
0.580583
0.580555
0.580447
0.580378
0.580272
0.580061
0.579826
0.579519
0.579068
0.578801
0.578796
0.578926
0.579265
0.579803
0.580518
0.581251
0.582035
0.582796
0.583515
0.583456
0.583135
0.582653
0.582087
0.580901
0.581031
0.581963
0.58418
0.58646
0.588711
0.588689
0.588184
0.587696
0.58833
0.590893
0.593442
0.59445
0.594882
0.595942
0.597081
0.598329
0.599917
0.601461
0.603331
0.604862
0.605927
0.607307
0.60816
0.634811
0.794782
0.991605
1.10806
1.1297
1.14372
1.14921
0.578761
0.578717
0.578674
0.578646
0.578634
0.578618
0.578626
0.578678
0.578727
0.578741
0.578759
0.57881
0.578848
0.578865
0.578895
0.579
0.579094
0.579145
0.579215
0.579347
0.579603
0.57992
0.580058
0.580126
0.580244
0.580454
0.580601
0.580694
0.580801
0.580936
0.581072
0.58117
0.581213
0.581258
0.581319
0.581399
0.581448
0.581512
0.581595
0.581592
0.581548
0.581488
0.581428
0.581334
0.581279
0.581195
0.580911
0.580391
0.580262
0.580265
0.580229
0.580119
0.579974
0.579979
0.580128
0.580563
0.58114
0.581932
0.582945
0.584051
0.585021
0.585641
0.585965
0.586109
0.585929
0.585418
0.584717
0.584415
0.584823
0.586371
0.588758
0.591351
0.592902
0.593749
0.593545
0.593182
0.593452
0.59464
0.597025
0.599429
0.600347
0.60045
0.601164
0.602668
0.604225
0.605759
0.607788
0.60918
0.610128
0.611218
0.612589
0.613921
0.615144
0.616341
0.617054
0.692255
0.882949
1.03233
1.10242
1.12926
0.580496
0.580511
0.580525
0.580539
0.580561
0.580641
0.58081
0.580942
0.581038
0.58113
0.581241
0.581406
0.581511
0.581563
0.58163
0.581753
0.581931
0.582097
0.582225
0.582365
0.582573
0.582778
0.582838
0.582825
0.582819
0.582863
0.582967
0.583008
0.583017
0.583051
0.583074
0.583068
0.583053
0.583
0.582898
0.582757
0.582638
0.582567
0.582455
0.582172
0.581941
0.581814
0.581612
0.581547
0.581646
0.581627
0.581429
0.581396
0.581555
0.58188
0.58234
0.583144
0.584276
0.585573
0.586905
0.588032
0.588908
0.589699
0.590228
0.590477
0.590763
0.590712
0.590431
0.59025
0.590395
0.590917
0.592033
0.593801
0.595925
0.597875
0.598713
0.599627
0.599766
0.599353
0.59935
0.600199
0.602012
0.604288
0.606205
0.606865
0.60733
0.608191
0.609507
0.610783
0.612112
0.613769
0.614896
0.615455
0.616279
0.617523
0.619235
0.621532
0.622712
0.623491
0.624911
0.625574
0.634103
0.782536
0.949604
1.09418
0.584745
0.584693
0.584675
0.584657
0.584634
0.584617
0.584592
0.584524
0.584495
0.584498
0.584511
0.584496
0.584494
0.584519
0.584495
0.584455
0.584473
0.584507
0.584448
0.584426
0.584434
0.584361
0.584259
0.58423
0.584268
0.584266
0.584226
0.584141
0.584083
0.584162
0.584163
0.584059
0.58411
0.584035
0.583833
0.583836
0.583892
0.584054
0.584344
0.584765
0.585223
0.585764
0.586595
0.587728
0.588856
0.58991
0.590869
0.591829
0.592795
0.59367
0.59455
0.595447
0.596218
0.596814
0.597299
0.597578
0.597916
0.598169
0.598061
0.59756
0.597472
0.597773
0.598279
0.599054
0.600248
0.60184
0.603442
0.604683
0.605866
0.606682
0.60647
0.606251
0.606668
0.607699
0.609337
0.610913
0.612386
0.614135
0.614402
0.614662
0.615518
0.616824
0.618012
0.618995
0.620269
0.621609
0.622779
0.623825
0.624929
0.625996
0.626748
0.627927
0.629372
0.629902
0.630779
0.632829
0.632781
0.633335
0.675081
0.963131
0.5907
0.590742
0.590788
0.59086
0.590951
0.591032
0.591113
0.5912
0.591291
0.591381
0.591469
0.591573
0.591723
0.591874
0.592006
0.592167
0.592383
0.592599
0.592829
0.593124
0.593431
0.593748
0.594087
0.594514
0.594938
0.595309
0.595656
0.596111
0.596718
0.597192
0.597581
0.598043
0.598588
0.599182
0.599793
0.600362
0.600885
0.601375
0.601791
0.602215
0.602706
0.603209
0.603585
0.603878
0.604171
0.60459
0.604944
0.605189
0.605413
0.605476
0.605395
0.605328
0.605254
0.605035
0.604858
0.604714
0.604733
0.605155
0.605614
0.606149
0.606987
0.608146
0.609594
0.611236
0.612623
0.613736
0.614441
0.614695
0.614922
0.615416
0.615845
0.616319
0.617015
0.618427
0.620054
0.621182
0.62212
0.622409
0.622818
0.623512
0.624343
0.625514
0.626575
0.627903
0.629411
0.629802
0.630517
0.631487
0.632111
0.632969
0.634362
0.635051
0.636227
0.637383
0.638387
0.639344
0.640205
0.641591
0.641917
0.707064
0.606695
0.606805
0.606915
0.607016
0.607126
0.607238
0.607359
0.607503
0.607677
0.607818
0.607907
0.60801
0.608186
0.608309
0.608372
0.608429
0.608545
0.608686
0.608792
0.608874
0.608933
0.609006
0.609137
0.609257
0.609346
0.609446
0.60954
0.609649
0.609761
0.609863
0.609975
0.610119
0.610262
0.610429
0.610715
0.610778
0.610758
0.610782
0.610857
0.610971
0.611111
0.611093
0.610807
0.610552
0.610545
0.610737
0.611082
0.611046
0.611076
0.611315
0.611453
0.611761
0.612355
0.613203
0.61418
0.615334
0.616658
0.618079
0.619477
0.620856
0.621967
0.622808
0.62355
0.624097
0.624648
0.624798
0.624666
0.62449
0.624647
0.625181
0.626229
0.627184
0.628193
0.629136
0.629874
0.63067
0.631106
0.631616
0.632314
0.633154
0.634102
0.635054
0.636097
0.63686
0.637656
0.638297
0.638484
0.639148
0.640252
0.641576
0.643076
0.643605
0.643829
0.644614
0.645442
0.645795
0.646849
0.647869
0.648669
0.649502
0.619276
0.619296
0.619321
0.619358
0.619384
0.619417
0.619486
0.619498
0.619471
0.61947
0.619558
0.619627
0.61968
0.619797
0.619853
0.619898
0.620049
0.620168
0.62019
0.620264
0.620357
0.620453
0.620654
0.620884
0.621052
0.621188
0.621317
0.62145
0.621617
0.621858
0.621993
0.621977
0.621931
0.621925
0.622005
0.622291
0.62269
0.623023
0.623349
0.623775
0.624309
0.624913
0.625624
0.626461
0.627246
0.627948
0.628665
0.629414
0.630123
0.630686
0.631219
0.631793
0.632364
0.632834
0.633295
0.633801
0.634239
0.634551
0.634674
0.634645
0.634428
0.634124
0.63398
0.633992
0.634132
0.634219
0.634291
0.634631
0.635299
0.63644
0.637708
0.638729
0.639656
0.640115
0.640547
0.640702
0.640996
0.641465
0.641951
0.642724
0.643573
0.644324
0.64535
0.645658
0.645811
0.646496
0.647382
0.648227
0.64918
0.649782
0.650057
0.650523
0.651158
0.65179
0.65274
0.654144
0.654739
0.655029
0.655663
0.656964
0.635587
0.635654
0.635715
0.635804
0.635892
0.635939
0.636046
0.636203
0.636216
0.636206
0.636261
0.636431
0.636546
0.63657
0.636627
0.636855
0.637129
0.637252
0.637359
0.637435
0.637478
0.637551
0.637828
0.638134
0.638165
0.638199
0.638334
0.638527
0.638819
0.639133
0.639292
0.639437
0.639634
0.639906
0.640216
0.640551
0.640884
0.641165
0.641392
0.641567
0.641651
0.641632
0.641555
0.641518
0.641509
0.641538
0.641715
0.64191
0.641945
0.641979
0.64213
0.642189
0.642081
0.641569
0.641303
0.641226
0.64099
0.640815
0.641
0.641104
0.641178
0.641433
0.641988
0.64279
0.643884
0.645198
0.64657
0.647725
0.64856
0.649394
0.649632
0.649991
0.649952
0.650005
0.649983
0.650085
0.650515
0.65117
0.652024
0.652946
0.653721
0.654314
0.654694
0.655283
0.655513
0.655737
0.656354
0.657253
0.658016
0.658428
0.658693
0.659339
0.66026
0.660765
0.661229
0.661675
0.661868
0.662432
0.663054
0.663919
0.650768
0.650808
0.650851
0.650893
0.650953
0.651015
0.651039
0.651078
0.651166
0.6512
0.651177
0.651199
0.651239
0.651216
0.651278
0.651339
0.651322
0.651324
0.651409
0.651427
0.651367
0.651382
0.651453
0.65141
0.651333
0.651384
0.651396
0.651334
0.651302
0.651326
0.651391
0.651419
0.65141
0.651373
0.651309
0.651276
0.651321
0.651597
0.651721
0.651719
0.65185
0.65195
0.651931
0.652001
0.652335
0.652484
0.652416
0.652296
0.652313
0.652467
0.652851
0.653418
0.65399
0.654569
0.655223
0.655965
0.656726
0.65743
0.658028
0.658645
0.659403
0.660156
0.660791
0.661225
0.661674
0.661791
0.661685
0.66138
0.661292
0.661153
0.660789
0.660371
0.660404
0.660621
0.661067
0.661783
0.662711
0.663531
0.664305
0.664595
0.66484
0.664764
0.664583
0.664674
0.665136
0.66566
0.66621
0.666662
0.66695
0.667375
0.667587
0.667767
0.667858
0.668223
0.66851
0.668806
0.669531
0.670293
0.670684
0.671221
0.666689
0.666717
0.666729
0.666752
0.666802
0.666812
0.666803
0.66684
0.666964
0.666955
0.666965
0.667072
0.667112
0.667099
0.667107
0.667181
0.667253
0.66735
0.667552
0.667651
0.667704
0.667787
0.667879
0.667991
0.668165
0.668264
0.6683
0.668343
0.668401
0.668476
0.668578
0.668726
0.66881
0.668766
0.668707
0.668734
0.668885
0.669216
0.66943
0.669543
0.669657
0.669823
0.670052
0.670217
0.670421
0.670717
0.670966
0.671152
0.67133
0.671527
0.671755
0.671924
0.671946
0.671878
0.671839
0.671946
0.672017
0.671966
0.671895
0.671789
0.671539
0.67117
0.670786
0.670478
0.670258
0.669955
0.66937
0.668962
0.669052
0.66933
0.669908
0.670738
0.671719
0.67271
0.673543
0.674166
0.674542
0.67448
0.674225
0.673944
0.67357
0.673487
0.673668
0.674256
0.674897
0.675479
0.676037
0.676039
0.675892
0.67586