/*--------------------------------*- C++ -*----------------------------------*\
  =========                 |
  \\      /  F ield         | OpenFOAM: The Open Source CFD Toolbox
   \\    /   O peration     | Website:  https://openfoam.org
    \\  /    A nd           | Version:  7
     \\/     M anipulation  |
\*---------------------------------------------------------------------------*/
FoamFile
{
    version     2.0;
    format      ascii;
    class       volVectorField;
    location    "6.4";
    object      U;
}
// * * * * * * * * * * * * * * * * * * * * * * * * * * * * * * * * * * * * * //

dimensions      [0 1 -1 0 0 0 0];

internalField   nonuniform List<vector> 
11200
(
(2.50451 -0.519498 0)
(2.54366 -0.229527 0)
(2.47855 0.16785 0)
(2.50568 0.23003 0)
(2.49922 0.353996 0)
(2.50767 0.410753 0)
(2.52751 0.424141 0)
(2.5643 0.397955 0)
(2.60094 0.393106 0)
(2.61997 0.338399 0)
(2.64352 0.266177 0)
(2.67159 0.192758 0)
(2.70369 0.157903 0)
(2.73379 0.120854 0)
(2.75176 0.145755 0)
(2.74714 0.185651 0)
(2.74674 0.206396 0)
(2.73712 0.188625 0)
(2.74193 0.161361 0)
(2.76238 0.132231 0)
(2.78282 0.137175 0)
(2.79801 0.151421 0)
(2.80716 0.155855 0)
(2.81578 0.152159 0)
(2.82699 0.147109 0)
(2.83581 0.137335 0)
(2.84188 0.119245 0)
(2.844 0.0960079 0)
(2.84628 0.0841145 0)
(2.86028 0.0720935 0)
(2.65811 -1.43078 0)
(2.66727 -1.41678 0)
(2.65419 -1.20639 0)
(2.61889 -1.02851 0)
(2.54384 -0.709406 0)
(2.48405 -0.417697 0)
(2.47467 -0.252689 0)
(2.43309 -0.0219516 0)
(2.45573 0.0709756 0)
(2.47735 0.178232 0)
(2.4853 0.10936 0)
(2.52767 0.108884 0)
(2.55003 0.122257 0)
(2.56659 0.114046 0)
(2.58604 0.122024 0)
(2.59207 0.129066 0)
(2.58361 0.134064 0)
(2.58181 0.12972 0)
(2.60362 0.118291 0)
(2.63605 0.140511 0)
(2.66059 0.150011 0)
(2.67894 0.15536 0)
(2.69087 0.15661 0)
(2.70303 0.139302 0)
(2.7213 0.126238 0)
(2.73659 0.117356 0)
(2.74779 0.115619 0)
(2.75147 0.111624 0)
(2.75882 0.105601 0)
(2.77698 0.0869753 0)
(2.8458 -1.51911 0)
(2.91228 -1.539 0)
(2.92927 -1.61043 0)
(2.96424 -1.61878 0)
(2.98986 -1.64719 0)
(2.99837 -1.63413 0)
(2.95062 -1.48737 0)
(2.81931 -1.19948 0)
(2.68608 -0.801488 0)
(2.58414 -0.411258 0)
(2.57995 -0.222982 0)
(2.43333 0.0910728 0)
(2.39457 0.210996 0)
(2.39901 0.219033 0)
(2.4552 0.240501 0)
(2.478 0.200275 0)
(2.48551 0.146407 0)
(2.51491 0.0980564 0)
(2.53318 0.113255 0)
(2.5478 0.140807 0)
(2.55569 0.1577 0)
(2.56577 0.155876 0)
(2.57518 0.135796 0)
(2.59031 0.123324 0)
(2.60906 0.121291 0)
(2.62498 0.115437 0)
(2.63776 0.106749 0)
(2.64421 0.082968 0)
(2.65357 0.0839005 0)
(2.67542 0.0780621 0)
(2.99046 -1.64578 0)
(3.00951 -1.66857 0)
(3.0405 -1.66971 0)
(3.06706 -1.67911 0)
(3.08579 -1.68566 0)
(3.09899 -1.69095 0)
(3.09885 -1.70154 0)
(3.10139 -1.69881 0)
(3.09861 -1.70124 0)
(3.07317 -1.64479 0)
(2.98862 -1.44598 0)
(2.81664 -1.01591 0)
(2.66839 -0.543267 0)
(2.61692 -0.253048 0)
(2.50901 0.049219 0)
(2.51687 0.0999735 0)
(2.53502 0.127186 0)
(2.54619 0.129276 0)
(2.54047 0.138394 0)
(2.52748 0.134826 0)
(2.51774 0.130282 0)
(2.52174 0.12133 0)
(2.52696 0.121503 0)
(2.53865 0.115558 0)
(2.54872 0.112348 0)
(2.55383 0.112165 0)
(2.56031 0.106243 0)
(2.56851 0.0965746 0)
(2.57777 0.0801143 0)
(2.59646 0.0659304 0)
(3.08285 -1.66652 0)
(3.0947 -1.66906 0)
(3.10718 -1.66945 0)
(3.11492 -1.67829 0)
(3.11463 -1.68654 0)
(3.10922 -1.68963 0)
(3.10159 -1.69595 0)
(3.09728 -1.69519 0)
(3.09223 -1.68691 0)
(3.08923 -1.68356 0)
(3.08392 -1.67521 0)
(3.07582 -1.66556 0)
(3.06401 -1.63986 0)
(2.97401 -1.39769 0)
(2.74404 -0.754137 0)
(2.70214 -0.34776 0)
(2.61264 0.0479095 0)
(2.57118 0.118702 0)
(2.54996 0.181739 0)
(2.50643 0.15384 0)
(2.51605 0.124782 0)
(2.53077 0.124664 0)
(2.53497 0.11217 0)
(2.54037 0.107492 0)
(2.53993 0.107133 0)
(2.53625 0.096397 0)
(2.53815 0.0886132 0)
(2.54752 0.0786779 0)
(2.55462 0.0885813 0)
(2.56611 0.0775612 0)
(3.11999 -1.66646 0)
(3.1205 -1.66678 0)
(3.12171 -1.67094 0)
(3.12251 -1.67647 0)
(3.12011 -1.6814 0)
(3.10882 -1.68768 0)
(3.09651 -1.69336 0)
(3.09158 -1.69124 0)
(3.08667 -1.68197 0)
(3.0843 -1.67437 0)
(3.07587 -1.67313 0)
(3.06471 -1.67022 0)
(3.06376 -1.6649 0)
(3.05848 -1.6609 0)
(3.05397 -1.66617 0)
(3.01186 -1.5476 0)
(2.88669 -1.06013 0)
(2.8204 -0.627498 0)
(2.64786 -0.125827 0)
(2.61071 0.0112486 0)
(2.56881 0.0935046 0)
(2.55513 0.127976 0)
(2.55996 0.108614 0)
(2.55921 0.0941629 0)
(2.55177 0.0845384 0)
(2.54581 0.0734872 0)
(2.5454 0.0722144 0)
(2.55407 0.069469 0)
(2.56014 0.0741133 0)
(2.56665 0.0650842 0)
(3.1227 -1.68045 0)
(3.12323 -1.68569 0)
(3.11999 -1.69441 0)
(3.11229 -1.699 0)
(3.10192 -1.69466 0)
(3.08569 -1.69094 0)
(3.07765 -1.69319 0)
(3.07293 -1.69066 0)
(3.06734 -1.67533 0)
(3.06516 -1.6674 0)
(3.05915 -1.66699 0)
(3.04789 -1.66832 0)
(3.04999 -1.66543 0)
(3.05042 -1.66187 0)
(3.04262 -1.66317 0)
(3.03345 -1.6582 0)
(3.0324 -1.64199 0)
(3.0375 -1.61814 0)
(2.92565 -1.21935 0)
(2.8192 -0.636499 0)
(2.71038 -0.212824 0)
(2.63171 0.0321319 0)
(2.61387 0.0818399 0)
(2.58373 0.120998 0)
(2.58019 0.112609 0)
(2.58289 0.0836614 0)
(2.58358 0.0899765 0)
(2.58521 0.0874518 0)
(2.58577 0.0736728 0)
(2.5874 0.0476312 0)
(3.09886 -1.68909 0)
(3.09437 -1.68939 0)
(3.08955 -1.6887 0)
(3.08853 -1.68821 0)
(3.08447 -1.68578 0)
(3.07696 -1.68369 0)
(3.07305 -1.6853 0)
(3.06828 -1.68558 0)
(3.06052 -1.6712 0)
(3.05921 -1.65588 0)
(3.05222 -1.65066 0)
(3.03915 -1.66142 0)
(3.02522 -1.6559 0)
(3.02529 -1.64172 0)
(3.02577 -1.63588 0)
(3.02146 -1.63203 0)
(3.02243 -1.60725 0)
(3.0329 -1.57167 0)
(3.05706 -1.56131 0)
(3.064 -1.54689 0)
(2.99438 -1.2821 0)
(2.85467 -0.695427 0)
(2.80208 -0.34595 0)
(2.68711 -0.0175513 0)
(2.62945 0.082828 0)
(2.63256 0.103256 0)
(2.64795 0.0961528 0)
(2.64614 0.0636343 0)
(2.64783 0.0324079 0)
(2.64689 0.0411713 0)
(3.07756 -1.67922 0)
(3.0754 -1.68206 0)
(3.07685 -1.6846 0)
(3.07357 -1.67996 0)
(3.06782 -1.66872 0)
(3.06408 -1.65588 0)
(3.05795 -1.652 0)
(3.04027 -1.64026 0)
(3.03523 -1.63647 0)
(3.04366 -1.62836 0)
(3.05113 -1.62749 0)
(3.044 -1.65013 0)
(3.03738 -1.62404 0)
(3.03567 -1.59666 0)
(3.03734 -1.59213 0)
(3.03785 -1.58733 0)
(3.03478 -1.57193 0)
(3.03471 -1.54947 0)
(3.03947 -1.53387 0)
(3.04807 -1.49468 0)
(3.06373 -1.47569 0)
(3.07471 -1.45878 0)
(3.04275 -1.26437 0)
(2.89971 -0.690473 0)
(2.85083 -0.359994 0)
(2.77137 -0.0566474 0)
(2.70495 0.0766493 0)
(2.68229 0.0980576 0)
(2.71235 0.0877284 0)
(2.71595 0.0572879 0)
(3.06091 -1.65711 0)
(3.06028 -1.6558 0)
(3.06118 -1.65481 0)
(3.06342 -1.65048 0)
(3.06095 -1.63195 0)
(3.05879 -1.62002 0)
(3.05179 -1.61222 0)
(3.04785 -1.59411 0)
(3.04524 -1.57461 0)
(3.04343 -1.55781 0)
(3.06348 -1.51713 0)
(3.06365 -1.51723 0)
(3.06217 -1.5256 0)
(3.05717 -1.53573 0)
(3.06373 -1.5105 0)
(3.06981 -1.50078 0)
(3.06192 -1.51464 0)
(3.05833 -1.49138 0)
(3.06061 -1.45779 0)
(3.05096 -1.45695 0)
(3.04439 -1.45093 0)
(3.05421 -1.40284 0)
(3.0807 -1.37626 0)
(3.09399 -1.36215 0)
(3.06975 -1.18654 0)
(2.96564 -0.7055 0)
(2.90249 -0.368244 0)
(2.82373 -0.053248 0)
(2.76946 0.048534 0)
(2.76267 0.0818676 0)
(3.04592 -1.63316 0)
(3.04689 -1.62871 0)
(3.04628 -1.62142 0)
(3.04859 -1.6136 0)
(3.04813 -1.61012 0)
(3.0474 -1.60005 0)
(3.03832 -1.59655 0)
(3.03652 -1.60472 0)
(3.04679 -1.57982 0)
(3.04435 -1.52982 0)
(3.06205 -1.49646 0)
(3.06367 -1.49662 0)
(3.0646 -1.49939 0)
(3.06894 -1.46508 0)
(3.07158 -1.42882 0)
(3.08816 -1.4124 0)
(3.09445 -1.38486 0)
(3.09361 -1.37403 0)
(3.08978 -1.35877 0)
(3.0847 -1.34459 0)
(3.0712 -1.35589 0)
(3.06205 -1.36324 0)
(3.06295 -1.34936 0)
(3.08568 -1.30116 0)
(3.10024 -1.28661 0)
(3.10439 -1.28358 0)
(3.07897 -1.11972 0)
(2.99355 -0.627559 0)
(2.98206 -0.389477 0)
(2.84673 -0.0339416 0)
(3.07984 -1.45887 0)
(3.07884 -1.43938 0)
(3.08241 -1.42127 0)
(3.08514 -1.41606 0)
(3.08661 -1.41412 0)
(3.08818 -1.41381 0)
(3.07532 -1.43398 0)
(3.066 -1.46488 0)
(3.06626 -1.46836 0)
(3.05817 -1.44527 0)
(3.06522 -1.42779 0)
(3.06742 -1.42434 0)
(3.06551 -1.43483 0)
(3.06839 -1.40708 0)
(3.07225 -1.37628 0)
(3.07655 -1.37591 0)
(3.08355 -1.34593 0)
(3.0922 -1.31395 0)
(3.10003 -1.30386 0)
(3.10708 -1.29088 0)
(3.10765 -1.2778 0)
(3.10224 -1.26265 0)
(3.08766 -1.25932 0)
(3.08082 -1.27272 0)
(3.09308 -1.22662 0)
(3.10743 -1.21422 0)
(3.10985 -1.2068 0)
(3.10859 -1.20084 0)
(3.10164 -1.06656 0)
(2.97047 -0.381716 0)
(3.06568 -1.43244 0)
(3.06686 -1.42591 0)
(3.07041 -1.42141 0)
(3.07706 -1.41796 0)
(3.07977 -1.40401 0)
(3.08495 -1.3901 0)
(3.08671 -1.3793 0)
(3.08167 -1.3758 0)
(3.08083 -1.36284 0)
(3.07864 -1.32097 0)
(3.09492 -1.28972 0)
(3.09812 -1.28529 0)
(3.09565 -1.2925 0)
(3.09175 -1.30622 0)
(3.08652 -1.30851 0)
(3.08438 -1.30651 0)
(3.08461 -1.29382 0)
(3.08611 -1.27252 0)
(3.09048 -1.25792 0)
(3.10205 -1.23621 0)
(3.11362 -1.21472 0)
(3.119 -1.19249 0)
(3.11987 -1.17833 0)
(3.10673 -1.17356 0)
(3.09963 -1.16938 0)
(3.10861 -1.1543 0)
(3.11599 -1.1461 0)
(3.11619 -1.14084 0)
(3.11672 -1.12704 0)
(3.10704 -1.01452 0)
(3.09524 -1.2978 0)
(3.09808 -1.29241 0)
(3.09785 -1.27468 0)
(3.09975 -1.25949 0)
(3.10302 -1.24879 0)
(3.10861 -1.24234 0)
(3.10001 -1.25256 0)
(3.08652 -1.2796 0)
(3.08166 -1.28275 0)
(3.0856 -1.26196 0)
(3.0894 -1.25236 0)
(3.09707 -1.22737 0)
(3.11018 -1.20943 0)
(3.11574 -1.19384 0)
(3.11186 -1.18408 0)
(3.11299 -1.18094 0)
(3.11402 -1.17878 0)
(3.1077 -1.17995 0)
(3.09969 -1.18127 0)
(3.09771 -1.17866 0)
(3.1028 -1.16242 0)
(3.11515 -1.14006 0)
(3.12145 -1.1302 0)
(3.12668 -1.11622 0)
(3.12208 -1.11042 0)
(3.1174 -1.09268 0)
(3.12431 -1.07379 0)
(3.12312 -1.08456 0)
(3.12214 -1.07014 0)
(3.12315 -1.06017 0)
(3.10411 -1.20309 0)
(3.10273 -1.20133 0)
(3.10295 -1.18884 0)
(3.10374 -1.17684 0)
(3.10449 -1.16394 0)
(3.11252 -1.15373 0)
(3.11847 -1.14973 0)
(3.11318 -1.15187 0)
(3.10719 -1.16075 0)
(3.10087 -1.14437 0)
(3.10768 -1.12534 0)
(3.11256 -1.12505 0)
(3.11402 -1.13083 0)
(3.11473 -1.12725 0)
(3.11221 -1.11651 0)
(3.11381 -1.09634 0)
(3.1277 -1.07746 0)
(3.12768 -1.06896 0)
(3.12478 -1.06895 0)
(3.12137 -1.07479 0)
(3.11443 -1.08376 0)
(3.11231 -1.07861 0)
(3.11996 -1.05528 0)
(3.12792 -1.04973 0)
(3.13051 -1.04464 0)
(3.12885 -1.03783 0)
(3.13013 -1.02836 0)
(3.12858 -1.01122 0)
(3.12975 -1.00177 0)
(3.12891 -0.986699 0)
(3.11841 -1.0749 0)
(3.11684 -1.07718 0)
(3.115 -1.06392 0)
(3.11707 -1.04968 0)
(3.11559 -1.03615 0)
(3.12606 -1.02183 0)
(3.12773 -1.02013 0)
(3.12378 -1.02669 0)
(3.11638 -1.03882 0)
(3.11474 -1.0399 0)
(3.1206 -1.03308 0)
(3.12361 -1.02102 0)
(3.13066 -1.0071 0)
(3.12973 -1.00325 0)
(3.1196 -1.01441 0)
(3.11716 -1.02592 0)
(3.12115 -1.02103 0)
(3.12529 -1.0129 0)
(3.12927 -1.00281 0)
(3.13491 -0.984162 0)
(3.13413 -0.976221 0)
(3.1308 -0.975645 0)
(3.12512 -0.978438 0)
(3.12782 -0.972139 0)
(3.13185 -0.961975 0)
(3.1346 -0.963177 0)
(3.13286 -0.953652 0)
(3.13179 -0.950236 0)
(3.13199 -0.949089 0)
(3.13179 -0.944399 0)
(3.12999 -0.941512 0)
(3.12707 -0.947664 0)
(3.12424 -0.94479 0)
(3.12552 -0.929894 0)
(3.12636 -0.921531 0)
(3.12944 -0.910668 0)
(3.13338 -0.905895 0)
(3.13186 -0.90857 0)
(3.12661 -0.923988 0)
(3.12715 -0.934618 0)
(3.12889 -0.925154 0)
(3.13186 -0.915282 0)
(3.13287 -0.914184 0)
(3.13281 -0.914142 0)
(3.13258 -0.911713 0)
(3.1357 -0.901403 0)
(3.13611 -0.898148 0)
(3.13288 -0.901926 0)
(3.13026 -0.908838 0)
(3.13246 -0.908018 0)
(3.1347 -0.905397 0)
(3.13778 -0.896714 0)
(3.13723 -0.889385 0)
(3.1351 -0.89022 0)
(3.13216 -0.894461 0)
(3.1326 -0.887353 0)
(3.13202 -0.889715 0)
(3.13251 -0.888169 0)
(3.13306 -0.891506 0)
(3.13308 -0.884687 0)
(3.13643 -0.806251 0)
(3.1333 -0.81364 0)
(3.13007 -0.814833 0)
(3.13159 -0.805969 0)
(3.13361 -0.792234 0)
(3.13421 -0.779628 0)
(3.13578 -0.777471 0)
(3.13389 -0.781478 0)
(3.13127 -0.79562 0)
(3.13359 -0.809698 0)
(3.13546 -0.803655 0)
(3.13604 -0.792197 0)
(3.13728 -0.790951 0)
(3.13778 -0.798999 0)
(3.13399 -0.802869 0)
(3.13358 -0.803354 0)
(3.13478 -0.803496 0)
(3.1386 -0.801361 0)
(3.13955 -0.797749 0)
(3.13513 -0.798811 0)
(3.13298 -0.801219 0)
(3.13324 -0.806305 0)
(3.13558 -0.808732 0)
(3.13623 -0.807242 0)
(3.13447 -0.807113 0)
(3.13321 -0.808493 0)
(3.13324 -0.811437 0)
(3.13333 -0.813224 0)
(3.13283 -0.813556 0)
(3.13232 -0.814578 0)
(3.13378 -0.660486 0)
(3.12824 -0.668711 0)
(3.12491 -0.67135 0)
(3.12693 -0.669525 0)
(3.13164 -0.654097 0)
(3.13143 -0.639878 0)
(3.13351 -0.64631 0)
(3.13343 -0.650981 0)
(3.12789 -0.66655 0)
(3.12301 -0.677758 0)
(3.12756 -0.677252 0)
(3.13472 -0.674915 0)
(3.13564 -0.677133 0)
(3.13425 -0.680993 0)
(3.13209 -0.683451 0)
(3.12986 -0.688716 0)
(3.13063 -0.69321 0)
(3.13165 -0.69728 0)
(3.13179 -0.703643 0)
(3.13179 -0.705605 0)
(3.12989 -0.705095 0)
(3.13196 -0.71418 0)
(3.1319 -0.720961 0)
(3.13106 -0.72684 0)
(3.13154 -0.729817 0)
(3.13239 -0.731725 0)
(3.133 -0.7337 0)
(3.13331 -0.730128 0)
(3.13058 -0.734993 0)
(3.12908 -0.743043 0)
(3.1186 -0.527491 0)
(3.11064 -0.529671 0)
(3.10331 -0.527393 0)
(3.11243 -0.523457 0)
(3.11821 -0.506241 0)
(3.12024 -0.493564 0)
(3.12253 -0.506783 0)
(3.12019 -0.514408 0)
(3.11304 -0.535372 0)
(3.10954 -0.545577 0)
(3.11774 -0.543768 0)
(3.12364 -0.544304 0)
(3.12389 -0.548563 0)
(3.12188 -0.553734 0)
(3.12141 -0.558696 0)
(3.12156 -0.568158 0)
(3.12034 -0.578356 0)
(3.12112 -0.577684 0)
(3.12327 -0.581734 0)
(3.12434 -0.595612 0)
(3.12358 -0.600605 0)
(3.1239 -0.607207 0)
(3.12496 -0.608393 0)
(3.12485 -0.612508 0)
(3.12493 -0.624704 0)
(3.12312 -0.629301 0)
(3.12484 -0.643257 0)
(3.12442 -0.653288 0)
(3.12469 -0.660499 0)
(3.12676 -0.673903 0)
(3.08978 -0.378445 0)
(3.08034 -0.381869 0)
(3.07517 -0.379846 0)
(3.0883 -0.370947 0)
(3.09368 -0.348991 0)
(3.09934 -0.342064 0)
(3.09893 -0.362808 0)
(3.09593 -0.374716 0)
(3.08952 -0.400483 0)
(3.08834 -0.409236 0)
(3.0998 -0.405886 0)
(3.10466 -0.408263 0)
(3.10415 -0.418627 0)
(3.10189 -0.421913 0)
(3.10364 -0.43204 0)
(3.10507 -0.44728 0)
(3.1035 -0.452766 0)
(3.10591 -0.465097 0)
(3.10869 -0.472539 0)
(3.11044 -0.480194 0)
(3.11035 -0.4933 0)
(3.11062 -0.503834 0)
(3.11293 -0.519904 0)
(3.11406 -0.529009 0)
(3.11505 -0.541205 0)
(3.11549 -0.552228 0)
(3.11629 -0.562367 0)
(3.1179 -0.582171 0)
(3.11878 -0.59161 0)
(3.12103 -0.601703 0)
(3.05023 -0.227277 0)
(3.03988 -0.232579 0)
(3.04154 -0.228393 0)
(3.05491 -0.209989 0)
(3.0598 -0.187678 0)
(3.06924 -0.193672 0)
(3.0641 -0.218568 0)
(3.06353 -0.238583 0)
(3.05689 -0.265151 0)
(3.05934 -0.269785 0)
(3.07362 -0.26384 0)
(3.0783 -0.270682 0)
(3.07733 -0.285085 0)
(3.07456 -0.291833 0)
(3.07651 -0.297645 0)
(3.08136 -0.324765 0)
(3.08118 -0.33181 0)
(3.08333 -0.337383 0)
(3.08842 -0.356582 0)
(3.08922 -0.364415 0)
(3.0912 -0.381731 0)
(3.09337 -0.394487 0)
(3.09579 -0.407253 0)
(3.09756 -0.419191 0)
(3.09975 -0.43495 0)
(3.10172 -0.451966 0)
(3.10339 -0.461774 0)
(3.1048 -0.469251 0)
(3.10542 -0.481753 0)
(3.10754 -0.506049 0)
(3.00077 -0.0754464 0)
(2.99396 -0.0795218 0)
(2.99941 -0.0715811 0)
(3.00811 -0.0516241 0)
(3.01887 -0.035692 0)
(3.02968 -0.0524171 0)
(3.02183 -0.0789897 0)
(3.02262 -0.103688 0)
(3.01541 -0.128413 0)
(3.02064 -0.130103 0)
(3.0361 -0.12168 0)
(3.04478 -0.133712 0)
(3.04247 -0.153509 0)
(3.03842 -0.158065 0)
(3.04309 -0.172832 0)
(3.04834 -0.195109 0)
(3.05077 -0.208942 0)
(3.05465 -0.21581 0)
(3.06039 -0.232966 0)
(3.06249 -0.251113 0)
(3.06471 -0.266429 0)
(3.06862 -0.281582 0)
(3.07325 -0.300954 0)
(3.07646 -0.318232 0)
(3.07947 -0.333769 0)
(3.08255 -0.349308 0)
(3.08662 -0.374019 0)
(3.089 -0.390553 0)
(3.0924 -0.409441 0)
(3.09698 -0.437419 0)
(2.94797 0.0744017 0)
(2.9439 0.0681185 0)
(2.94392 0.0684552 0)
(2.9513 0.0806283 0)
(2.96331 0.0937705 0)
(2.97662 0.087929 0)
(2.9711 0.0635654 0)
(2.97205 0.0397706 0)
(2.96881 0.00948449 0)
(2.97162 0.00333497 0)
(2.98481 0.012099 0)
(2.99709 -0.00120741 0)
(2.99804 -0.0243274 0)
(2.99563 -0.0300192 0)
(3.00045 -0.0441875 0)
(3.00761 -0.0697965 0)
(3.01169 -0.0850872 0)
(3.0171 -0.0940803 0)
(3.02463 -0.113262 0)
(3.02822 -0.132905 0)
(3.03124 -0.149039 0)
(3.03821 -0.171074 0)
(3.04382 -0.188447 0)
(3.0482 -0.205779 0)
(3.05413 -0.23043 0)
(3.05886 -0.248388 0)
(3.06318 -0.266402 0)
(3.06817 -0.290099 0)
(3.07205 -0.307567 0)
(3.07791 -0.33602 0)
(2.8834 0.225517 0)
(2.88227 0.224142 0)
(2.88218 0.226301 0)
(2.88729 0.220206 0)
(2.89552 0.216244 0)
(2.9036 0.219265 0)
(2.91005 0.206583 0)
(2.91804 0.178779 0)
(2.91388 0.149605 0)
(2.91389 0.145457 0)
(2.9171 0.152453 0)
(2.93634 0.130466 0)
(2.94335 0.104238 0)
(2.94519 0.0970405 0)
(2.95214 0.0826086 0)
(2.95958 0.0587103 0)
(2.96471 0.0410691 0)
(2.97217 0.0256457 0)
(2.98112 0.00623246 0)
(2.98716 -0.0128397 0)
(2.99376 -0.0358646 0)
(3.00094 -0.0555183 0)
(3.00864 -0.0765751 0)
(3.01592 -0.0985489 0)
(3.0228 -0.120698 0)
(3.02947 -0.143001 0)
(3.03698 -0.169338 0)
(3.04289 -0.189797 0)
(3.04893 -0.213088 0)
(3.05805 -0.251466 0)
(2.82608 0.353496 0)
(2.82686 0.3495 0)
(2.82668 0.351644 0)
(2.83137 0.345618 0)
(2.83532 0.337629 0)
(2.83839 0.33419 0)
(2.84478 0.325964 0)
(2.85045 0.314099 0)
(2.85507 0.298361 0)
(2.85795 0.290257 0)
(2.86262 0.284085 0)
(2.87473 0.263001 0)
(2.88073 0.247161 0)
(2.88655 0.234146 0)
(2.89584 0.214717 0)
(2.90516 0.191191 0)
(2.91223 0.173668 0)
(2.92184 0.153767 0)
(2.93302 0.128646 0)
(2.94063 0.108916 0)
(2.95095 0.0813195 0)
(2.95919 0.0608174 0)
(2.9696 0.0351056 0)
(2.97833 0.0128874 0)
(2.98831 -0.014681 0)
(2.99716 -0.0397998 0)
(3.00595 -0.0655951 0)
(3.01459 -0.0915852 0)
(3.02257 -0.116986 0)
(3.0341 -0.156946 0)
(2.81352 0.378665 0)
(2.81455 0.378784 0)
(2.81514 0.379492 0)
(2.81524 0.380465 0)
(2.81512 0.381294 0)
(2.81528 0.380945 0)
(2.81656 0.379015 0)
(2.81799 0.37665 0)
(2.82007 0.371885 0)
(2.82126 0.369311 0)
(2.82264 0.368336 0)
(2.82653 0.363308 0)
(2.83189 0.354321 0)
(2.83647 0.347179 0)
(2.84368 0.335625 0)
(2.85067 0.321918 0)
(2.85869 0.304534 0)
(2.8678 0.285553 0)
(2.87845 0.263554 0)
(2.88964 0.238663 0)
(2.90062 0.212746 0)
(2.91253 0.184361 0)
(2.92483 0.155592 0)
(2.93683 0.127211 0)
(2.94962 0.0953482 0)
(2.96025 0.0682381 0)
(2.97247 0.0360726 0)
(2.98308 0.00793964 0)
(2.99316 -0.020145 0)
(3.00802 -0.0650997 0)
(2.82864 0.351073 0)
(2.82873 0.356582 0)
(2.82565 0.362334 0)
(2.82492 0.375381 0)
(2.82644 0.3815 0)
(2.82347 0.378634 0)
(2.81935 0.368488 0)
(2.82145 0.363286 0)
(2.82423 0.363627 0)
(2.82591 0.367954 0)
(2.82384 0.37463 0)
(2.82221 0.375572 0)
(2.8234 0.372483 0)
(2.82409 0.369694 0)
(2.82466 0.369235 0)
(2.82642 0.368338 0)
(2.82909 0.365578 0)
(2.83193 0.361478 0)
(2.83629 0.354211 0)
(2.84225 0.344287 0)
(2.85122 0.328722 0)
(2.86128 0.309672 0)
(2.87379 0.283951 0)
(2.88682 0.255663 0)
(2.90182 0.221561 0)
(2.91595 0.187871 0)
(2.93138 0.150425 0)
(2.94519 0.116205 0)
(2.9587 0.0816659 0)
(2.97764 0.0302547 0)
(2.89352 0.229352 0)
(2.89271 0.228885 0)
(2.89149 0.237288 0)
(2.88043 0.258918 0)
(2.88012 0.282105 0)
(2.87859 0.281581 0)
(2.87128 0.282752 0)
(2.8618 0.294681 0)
(2.86149 0.294888 0)
(2.85672 0.307405 0)
(2.85097 0.331789 0)
(2.84979 0.331936 0)
(2.84681 0.333533 0)
(2.83899 0.346936 0)
(2.83708 0.349221 0)
(2.83582 0.351247 0)
(2.8342 0.358339 0)
(2.83415 0.359057 0)
(2.83383 0.358677 0)
(2.83431 0.357589 0)
(2.8352 0.356716 0)
(2.83746 0.354371 0)
(2.84098 0.349955 0)
(2.84614 0.342131 0)
(2.85491 0.327382 0)
(2.86624 0.306267 0)
(2.88124 0.275334 0)
(2.897 0.240018 0)
(2.91397 0.20077 0)
(2.93889 0.139289 0)
(2.97607 0.0526822 0)
(2.97547 0.052316 0)
(2.96986 0.0621237 0)
(2.96513 0.0780917 0)
(2.96449 0.0817307 0)
(2.96244 0.0855263 0)
(2.9561 0.0972866 0)
(2.94979 0.109319 0)
(2.94398 0.118056 0)
(2.93808 0.12923 0)
(2.92625 0.160534 0)
(2.92318 0.168956 0)
(2.91413 0.184959 0)
(2.90169 0.211246 0)
(2.89735 0.221972 0)
(2.88113 0.255605 0)
(2.87692 0.266628 0)
(2.86802 0.285839 0)
(2.85712 0.310138 0)
(2.85607 0.311986 0)
(2.84613 0.331472 0)
(2.84354 0.339855 0)
(2.84266 0.340629 0)
(2.84297 0.341433 0)
(2.84342 0.34137 0)
(2.84522 0.339943 0)
(2.84914 0.335148 0)
(2.85582 0.325526 0)
(2.86639 0.307825 0)
(2.89035 0.25899 0)
(2.99885 0.00246951 0)
(2.99865 0.00280295 0)
(2.99833 0.0033113 0)
(2.99795 0.00410548 0)
(2.99763 0.00495723 0)
(2.99718 0.00596642 0)
(2.99653 0.00719035 0)
(2.99553 0.00910296 0)
(2.99436 0.0110377 0)
(2.99251 0.014362 0)
(2.99034 0.0187691 0)
(2.9878 0.0246597 0)
(2.9847 0.0302979 0)
(2.97955 0.0402024 0)
(2.97342 0.053165 0)
(2.96667 0.0663411 0)
(2.95649 0.0883531 0)
(2.9475 0.106805 0)
(2.93255 0.13846 0)
(2.9212 0.163043 0)
(2.904 0.199443 0)
(2.89188 0.227764 0)
(2.87836 0.257318 0)
(2.86503 0.287026 0)
(2.85806 0.304095 0)
(2.85319 0.316974 0)
(2.84822 0.329447 0)
(2.85048 0.328202 0)
(2.85135 0.327336 0)
(2.85763 0.319228 0)
(2.99999 2.68666e-05 0)
(2.99998 3.19885e-05 0)
(2.99998 3.86891e-05 0)
(2.99997 5.04808e-05 0)
(2.99997 6.38119e-05 0)
(2.99996 8.27594e-05 0)
(2.99994 0.000108685 0)
(2.99992 0.000146801 0)
(2.99989 0.00020376 0)
(2.99984 0.000284997 0)
(2.99976 0.000433251 0)
(2.99965 0.000632621 0)
(2.99948 0.000935338 0)
(2.99918 0.00146313 0)
(2.99873 0.00229622 0)
(2.99799 0.00367844 0)
(2.99682 0.00578594 0)
(2.99489 0.0094685 0)
(2.99193 0.014978 0)
(2.9873 0.0240275 0)
(2.98045 0.0371232 0)
(2.97077 0.0566816 0)
(2.9579 0.0829603 0)
(2.94205 0.115459 0)
(2.92335 0.155403 0)
(2.90494 0.196098 0)
(2.88717 0.235202 0)
(2.87294 0.269388 0)
(2.86281 0.29364 0)
(2.85846 0.308296 0)
(3 1.59229e-07 0)
(3 1.89054e-07 0)
(3 2.32293e-07 0)
(3 2.96503e-07 0)
(3 3.81201e-07 0)
(3 5.04684e-07 0)
(3 6.72536e-07 0)
(3 9.41492e-07 0)
(3 1.32755e-06 0)
(3 1.98126e-06 0)
(3 3.04431e-06 0)
(3 4.8595e-06 0)
(3 7.63866e-06 0)
(2.99999 1.32125e-05 0)
(2.99999 2.31182e-05 0)
(2.99998 4.2302e-05 0)
(2.99995 7.92511e-05 0)
(2.99991 0.000156025 0)
(2.99982 0.000310496 0)
(2.99963 0.000645044 0)
(2.99925 0.00131643 0)
(2.99843 0.00281409 0)
(2.99689 0.00561253 0)
(2.99372 0.0116193 0)
(2.98833 0.0217438 0)
(2.97869 0.0407795 0)
(2.96532 0.0673957 0)
(2.9452 0.109209 0)
(2.92597 0.150202 0)
(2.89386 0.221465 0)
(3 7.25963e-10 0)
(3 8.69769e-10 0)
(3 1.08377e-09 0)
(3 1.38037e-09 0)
(3 1.79365e-09 0)
(3 2.37195e-09 0)
(3 3.21675e-09 0)
(3 4.46454e-09 0)
(3 6.43032e-09 0)
(3 9.4833e-09 0)
(3 1.48186e-08 0)
(3 2.34411e-08 0)
(3 3.83846e-08 0)
(3 6.65398e-08 0)
(3 1.21058e-07 0)
(3 2.28843e-07 0)
(3 4.55169e-07 0)
(3 9.60167e-07 0)
(3 2.10717e-06 0)
(3 4.93581e-06 0)
(2.99999 1.19217e-05 0)
(2.99998 3.09525e-05 0)
(2.99995 8.06446e-05 0)
(2.99987 0.000223558 0)
(2.99966 0.000599876 0)
(2.99906 0.00168029 0)
(2.99768 0.00420687 0)
(2.99411 0.0110077 0)
(2.98826 0.0221948 0)
(2.96564 0.0690948 0)
(3 2.54427e-12 0)
(3 3.06129e-12 0)
(3 3.86769e-12 0)
(3 4.9503e-12 0)
(3 6.50682e-12 0)
(3 8.67139e-12 0)
(3 1.18766e-11 0)
(3 1.65816e-11 0)
(3 2.4036e-11 0)
(3 3.54246e-11 0)
(3 5.54536e-11 0)
(3 8.73279e-11 0)
(3 1.44743e-10 0)
(3 2.49623e-10 0)
(3 4.60841e-10 0)
(3 8.67673e-10 0)
(3 1.77902e-09 0)
(3 3.74947e-09 0)
(3 8.65151e-09 0)
(3 2.04617e-08 0)
(3 5.35354e-08 0)
(3 1.43589e-07 0)
(3 4.27298e-07 0)
(3 1.28589e-06 0)
(3 4.3225e-06 0)
(2.99999 1.43883e-05 0)
(2.99996 5.20408e-05 0)
(2.99985 0.000184454 0)
(2.99955 0.000586726 0)
(2.99617 0.00463394 0)
(2.5835 -1.40395 0)
(2.62996 -1.41037 0)
(2.7917 -1.47127 0)
(2.95174 -1.63548 0)
(3.06623 -1.66059 0)
(3.11707 -1.65883 0)
(3.12144 -1.67885 0)
(3.10248 -1.68902 0)
(3.08127 -1.67885 0)
(3.0629 -1.66134 0)
(3.04915 -1.63451 0)
(3.07963 -1.47148 0)
(3.06945 -1.43754 0)
(3.09446 -1.30467 0)
(3.10575 -1.20644 0)
(3.12085 -1.07453 0)
(3.13192 -0.939184 0)
(3.138 -0.801513 0)
(3.13514 -0.654184 0)
(3.12509 -0.49404 0)
(3.10058 -0.345125 0)
(3.06179 -0.200217 0)
(3.01126 -0.0572249 0)
(2.9535 0.0962052 0)
(2.8816 0.249611 0)
(2.82218 0.364246 0)
(2.81221 0.379294 0)
(2.83363 0.341491 0)
(2.90161 0.216813 0)
(2.97972 0.046557 0)
(2.99914 0.00188863 0)
(2.99999 2.34203e-05 0)
(3 1.38036e-07 0)
(3 6.23652e-10 0)
(3 2.16972e-12 0)
(2.58693 -1.40422 0)
(2.64161 -1.41446 0)
(2.81211 -1.49332 0)
(2.96949 -1.64742 0)
(3.07415 -1.6611 0)
(3.11219 -1.65732 0)
(3.11279 -1.67456 0)
(3.09827 -1.68481 0)
(3.08197 -1.67539 0)
(3.06263 -1.66105 0)
(3.06188 -1.6081 0)
(3.07998 -1.49373 0)
(3.08172 -1.42197 0)
(3.09594 -1.29307 0)
(3.11259 -1.17281 0)
(3.12714 -1.01699 0)
(3.13027 -0.868052 0)
(3.12888 -0.720145 0)
(3.12055 -0.567898 0)
(3.10074 -0.412945 0)
(3.07402 -0.263958 0)
(3.04256 -0.122817 0)
(3.00045 0.0129507 0)
(2.93408 0.161539 0)
(2.8604 0.296674 0)
(2.81596 0.377071 0)
(2.8124 0.381915 0)
(2.84003 0.337916 0)
(2.91747 0.188901 0)
(2.98644 0.031698 0)
(2.99953 0.00105607 0)
(3 9.83508e-06 0)
(3 5.83e-08 0)
(3 2.88968e-10 0)
(3 1.0588e-12 0)
(2.58551 -1.40405 0)
(2.64149 -1.4106 0)
(2.80939 -1.49293 0)
(2.96398 -1.65301 0)
(3.07317 -1.66032 0)
(3.09937 -1.65587 0)
(3.09686 -1.66454 0)
(3.0935 -1.67424 0)
(3.08412 -1.67261 0)
(3.0621 -1.6692 0)
(3.06436 -1.57467 0)
(3.06026 -1.52514 0)
(3.09685 -1.37254 0)
(3.102 -1.24145 0)
(3.10516 -1.09743 0)
(3.10853 -0.948791 0)
(3.11512 -0.825759 0)
(3.11585 -0.68852 0)
(3.10876 -0.547746 0)
(3.08869 -0.394074 0)
(3.05417 -0.233085 0)
(3.00912 -0.0748125 0)
(2.95842 0.0706982 0)
(2.90256 0.20295 0)
(2.84434 0.318129 0)
(2.81179 0.383292 0)
(2.8117 0.386757 0)
(2.84382 0.346156 0)
(2.92702 0.169795 0)
(2.98983 0.0236858 0)
(2.99971 0.000632503 0)
(3 5.37539e-06 0)
(3 3.06908e-08 0)
(3 1.49294e-10 0)
(3 5.38134e-13 0)
(2.57744 -1.40029 0)
(2.64079 -1.4069 0)
(2.80761 -1.50913 0)
(2.96538 -1.65157 0)
(3.07059 -1.65696 0)
(3.09327 -1.65612 0)
(3.09162 -1.65983 0)
(3.09041 -1.66787 0)
(3.08412 -1.67268 0)
(3.05595 -1.68079 0)
(3.07273 -1.55316 0)
(3.0823 -1.49431 0)
(3.09348 -1.31601 0)
(3.09459 -1.19093 0)
(3.10428 -1.09384 0)
(3.11483 -0.975636 0)
(3.11951 -0.862478 0)
(3.12127 -0.727263 0)
(3.11122 -0.583466 0)
(3.09084 -0.427783 0)
(3.05862 -0.264178 0)
(3.01478 -0.0981883 0)
(2.95927 0.0593063 0)
(2.89923 0.193593 0)
(2.83856 0.322377 0)
(2.80979 0.385415 0)
(2.81552 0.388441 0)
(2.84973 0.329773 0)
(2.93781 0.141046 0)
(2.99298 0.0158119 0)
(2.99984 0.000352554 0)
(3 2.80075e-06 0)
(3 1.57483e-08 0)
(3 7.58742e-11 0)
(3 2.69667e-13 0)
(2.55765 -1.39294 0)
(2.63867 -1.40605 0)
(2.80738 -1.52437 0)
(2.9665 -1.64943 0)
(3.07118 -1.65334 0)
(3.09463 -1.65662 0)
(3.09528 -1.66152 0)
(3.08984 -1.66799 0)
(3.07488 -1.68157 0)
(3.04755 -1.67475 0)
(3.08833 -1.50406 0)
(3.08354 -1.47618 0)
(3.10018 -1.32819 0)
(3.10048 -1.22587 0)
(3.10089 -1.12771 0)
(3.10836 -1.00182 0)
(3.11757 -0.869602 0)
(3.12174 -0.729171 0)
(3.11527 -0.573595 0)
(3.09316 -0.416897 0)
(3.05701 -0.260521 0)
(3.01075 -0.10527 0)
(2.95576 0.0475226 0)
(2.89471 0.196797 0)
(2.83328 0.338342 0)
(2.80829 0.38648 0)
(2.81345 0.381846 0)
(2.86682 0.289093 0)
(2.95068 0.110705 0)
(2.99546 0.0101254 0)
(2.99991 0.000191118 0)
(3 1.43298e-06 0)
(3 7.94578e-09 0)
(3 3.79714e-11 0)
(3 1.32883e-13 0)
(2.54459 -1.38354 0)
(2.63308 -1.41251 0)
(2.80552 -1.53216 0)
(2.97184 -1.64142 0)
(3.07493 -1.65561 0)
(3.09893 -1.66029 0)
(3.09905 -1.66608 0)
(3.08595 -1.67685 0)
(3.05823 -1.69433 0)
(3.05904 -1.65548 0)
(3.09618 -1.50816 0)
(3.08276 -1.47246 0)
(3.09692 -1.34884 0)
(3.09819 -1.24019 0)
(3.10872 -1.12312 0)
(3.12649 -0.976909 0)
(3.14145 -0.810623 0)
(3.14217 -0.660018 0)
(3.12819 -0.49367 0)
(3.10181 -0.337223 0)
(3.06457 -0.187977 0)
(3.01761 -0.0466925 0)
(2.95935 0.0966304 0)
(2.88534 0.252959 0)
(2.82286 0.364871 0)
(2.80645 0.388351 0)
(2.81693 0.368277 0)
(2.87448 0.2712 0)
(2.96069 0.0893865 0)
(2.99712 0.00648037 0)
(2.99995 0.000101848 0)
(3 7.2079e-07 0)
(3 3.93946e-09 0)
(3 1.86737e-11 0)
(3 6.39086e-14 0)
(2.53975 -1.37912 0)
(2.62809 -1.42209 0)
(2.80053 -1.54824 0)
(2.98245 -1.63468 0)
(3.07824 -1.65745 0)
(3.10196 -1.66268 0)
(3.09916 -1.67014 0)
(3.0815 -1.6887 0)
(3.05604 -1.69715 0)
(3.07168 -1.62297 0)
(3.09487 -1.53388 0)
(3.09381 -1.45487 0)
(3.10834 -1.33893 0)
(3.12157 -1.20651 0)
(3.13558 -1.05259 0)
(3.13624 -0.885186 0)
(3.12177 -0.713182 0)
(3.11027 -0.562132 0)
(3.08995 -0.407523 0)
(3.0588 -0.252751 0)
(3.02179 -0.102492 0)
(2.98066 0.0394615 0)
(2.92492 0.177855 0)
(2.85647 0.303074 0)
(2.81344 0.378999 0)
(2.80587 0.391046 0)
(2.82368 0.360169 0)
(2.88227 0.258737 0)
(2.97116 0.0670248 0)
(2.99833 0.00385584 0)
(2.99998 5.23145e-05 0)
(3 3.5587e-07 0)
(3 1.92141e-09 0)
(3 9.03376e-12 0)
(3 2.95903e-14 0)
(2.53604 -1.37703 0)
(2.62415 -1.42825 0)
(2.80049 -1.55836 0)
(2.99087 -1.63927 0)
(3.08448 -1.66146 0)
(3.10281 -1.66855 0)
(3.09678 -1.68434 0)
(3.07946 -1.69292 0)
(3.05683 -1.69422 0)
(3.08065 -1.58052 0)
(3.08288 -1.55329 0)
(3.10522 -1.41582 0)
(3.12253 -1.28072 0)
(3.12248 -1.11129 0)
(3.11461 -0.966891 0)
(3.11728 -0.832185 0)
(3.11887 -0.705772 0)
(3.1098 -0.560203 0)
(3.09314 -0.417898 0)
(3.06067 -0.256309 0)
(3.01535 -0.0924396 0)
(2.96031 0.0644012 0)
(2.90295 0.20006 0)
(2.84777 0.308982 0)
(2.80916 0.384185 0)
(2.80527 0.394795 0)
(2.82614 0.36501 0)
(2.90488 0.217337 0)
(2.97997 0.0490337 0)
(2.99905 0.00228827 0)
(2.99999 2.70314e-05 0)
(3 1.75816e-07 0)
(3 9.32615e-10 0)
(3 4.33036e-12 0)
(3 1.27532e-14 0)
(2.53306 -1.37481 0)
(2.62293 -1.42717 0)
(2.80077 -1.55739 0)
(2.99564 -1.6437 0)
(3.09572 -1.66683 0)
(3.1086 -1.68255 0)
(3.10144 -1.70067 0)
(3.07447 -1.70325 0)
(3.05485 -1.67147 0)
(3.08008 -1.57122 0)
(3.07733 -1.54764 0)
(3.1057 -1.3715 0)
(3.10157 -1.22178 0)
(3.11189 -1.07998 0)
(3.11557 -0.992189 0)
(3.1185 -0.869244 0)
(3.11708 -0.742973 0)
(3.1088 -0.595141 0)
(3.08892 -0.444778 0)
(3.05719 -0.283786 0)
(3.01392 -0.119997 0)
(2.9605 0.0401317 0)
(2.90066 0.184296 0)
(2.84169 0.315366 0)
(2.80638 0.3892 0)
(2.80777 0.396358 0)
(2.83222 0.369049 0)
(2.91405 0.201688 0)
(2.98461 0.0378536 0)
(2.99942 0.00137549 0)
(2.99999 1.40125e-05 0)
(3 8.69392e-08 0)
(3 4.51409e-10 0)
(3 2.06049e-12 0)
(3 4.45048e-15 0)
(2.52881 -1.36867 0)
(2.6167 -1.41691 0)
(2.79982 -1.55386 0)
(3.00532 -1.64774 0)
(3.10583 -1.67036 0)
(3.11499 -1.69202 0)
(3.10441 -1.7083 0)
(3.07362 -1.71336 0)
(3.05225 -1.63953 0)
(3.07319 -1.57308 0)
(3.08015 -1.50307 0)
(3.10444 -1.34785 0)
(3.10298 -1.252 0)
(3.1119 -1.11843 0)
(3.10917 -1.01839 0)
(3.11545 -0.880699 0)
(3.12307 -0.734586 0)
(3.11782 -0.57786 0)
(3.0998 -0.411874 0)
(3.06421 -0.252773 0)
(3.01641 -0.0971791 0)
(2.95983 0.0531255 0)
(2.89769 0.2049 0)
(2.83292 0.344824 0)
(2.80421 0.393281 0)