/*--------------------------------*- C++ -*----------------------------------*\
  =========                 |
  \\      /  F ield         | OpenFOAM: The Open Source CFD Toolbox
   \\    /   O peration     | Website:  https://openfoam.org
    \\  /    A nd           | Version:  7
     \\/     M anipulation  |
\*---------------------------------------------------------------------------*/
FoamFile
{
    version     2.0;
    format      ascii;
    class       volVectorField;
    location    "5.3";
    object      U;
}
// * * * * * * * * * * * * * * * * * * * * * * * * * * * * * * * * * * * * * //

dimensions      [0 1 -1 0 0 0 0];

internalField   nonuniform List<vector> 
8400
(
(2.42341 -0.582431 0)
(2.44885 -0.207881 0)
(2.49313 -0.062283 0)
(2.46695 0.176676 0)
(2.49287 0.213532 0)
(2.49398 0.298913 0)
(2.49926 0.361625 0)
(2.5153 0.344535 0)
(2.53402 0.3473 0)
(2.57027 0.372998 0)
(2.60217 0.365591 0)
(2.61749 0.307163 0)
(2.65808 0.286638 0)
(2.69085 0.265189 0)
(2.69551 0.218028 0)
(2.69889 0.159278 0)
(2.71658 0.126836 0)
(2.73603 0.0828112 0)
(2.74668 0.102304 0)
(2.75208 0.122653 0)
(2.76496 0.157833 0)
(2.77085 0.189705 0)
(2.77458 0.190686 0)
(2.77471 0.172331 0)
(2.77669 0.136715 0)
(2.78585 0.0910848 0)
(2.79664 0.0789305 0)
(2.79844 0.066325 0)
(2.79006 0.0656693 0)
(2.79522 0.0571764 0)
(2.54607 -1.3748 0)
(2.57077 -1.37602 0)
(2.5833 -1.34616 0)
(2.58855 -1.17249 0)
(2.58718 -1.03018 0)
(2.55301 -0.827334 0)
(2.51624 -0.627619 0)
(2.47927 -0.434431 0)
(2.48075 -0.332841 0)
(2.4673 -0.146479 0)
(2.48786 -0.0262696 0)
(2.51709 -0.0361091 0)
(2.51627 0.0208803 0)
(2.53178 0.101555 0)
(2.53722 0.0912065 0)
(2.5555 0.0697522 0)
(2.58021 0.0940894 0)
(2.59641 0.0994889 0)
(2.6006 0.111031 0)
(2.59015 0.103416 0)
(2.60341 0.0909308 0)
(2.62135 0.0754172 0)
(2.63045 0.0738208 0)
(2.63495 0.081391 0)
(2.62604 0.0850047 0)
(2.64735 0.0879427 0)
(2.65785 0.0721093 0)
(2.66712 0.0556349 0)
(2.66803 0.0571575 0)
(2.68078 0.0458367 0)
(2.81489 -1.45243 0)
(2.85981 -1.49033 0)
(2.90841 -1.51945 0)
(2.965 -1.56632 0)
(2.99203 -1.61521 0)
(3.0021 -1.62314 0)
(3.0375 -1.66082 0)
(3.03522 -1.66589 0)
(2.99766 -1.60805 0)
(2.90066 -1.41613 0)
(2.80698 -1.10885 0)
(2.73588 -0.85479 0)
(2.6503 -0.616222 0)
(2.56881 -0.321935 0)
(2.56081 -0.13843 0)
(2.4792 0.115698 0)
(2.47545 0.161723 0)
(2.47549 0.251422 0)
(2.47999 0.250339 0)
(2.47515 0.22257 0)
(2.49035 0.150141 0)
(2.53974 0.100075 0)
(2.55999 0.0586363 0)
(2.57166 0.0421817 0)
(2.57453 0.0528843 0)
(2.57505 0.0871729 0)
(2.58485 0.10326 0)
(2.60412 0.096302 0)
(2.6118 0.0777116 0)
(2.63212 0.0560745 0)
(2.97856 -1.63303 0)
(3.00221 -1.65756 0)
(3.03384 -1.67668 0)
(3.06392 -1.70175 0)
(3.07055 -1.71211 0)
(3.07896 -1.715 0)
(3.08856 -1.72211 0)
(3.09313 -1.74304 0)
(3.08948 -1.75488 0)
(3.08556 -1.75632 0)
(3.09008 -1.74478 0)
(3.09607 -1.73933 0)
(3.0913 -1.74229 0)
(3.0234 -1.58513 0)
(2.93533 -1.37266 0)
(2.82234 -0.984305 0)
(2.75063 -0.701832 0)
(2.6936 -0.414627 0)
(2.64697 -0.16562 0)
(2.63364 -0.0384626 0)
(2.60495 0.0271847 0)
(2.59481 0.0607401 0)
(2.58682 0.0473876 0)
(2.59089 0.0449033 0)
(2.60194 0.0415674 0)
(2.59851 0.0391499 0)
(2.59103 0.0448307 0)
(2.60727 0.0593 0)
(2.61654 0.0513797 0)
(2.63328 0.0363533 0)
(3.08276 -1.74032 0)
(3.09138 -1.73757 0)
(3.09655 -1.74395 0)
(3.09851 -1.7456 0)
(3.09896 -1.7462 0)
(3.10181 -1.74354 0)
(3.1044 -1.73906 0)
(3.10316 -1.74737 0)
(3.09195 -1.75273 0)
(3.07935 -1.74495 0)
(3.0737 -1.72353 0)
(3.08078 -1.69625 0)
(3.07151 -1.67229 0)
(3.05488 -1.68514 0)
(3.05506 -1.65397 0)
(3.05798 -1.62825 0)
(3.06572 -1.61193 0)
(3.03092 -1.50626 0)
(2.95366 -1.22112 0)
(2.87166 -0.783502 0)
(2.82814 -0.484459 0)
(2.73924 -0.186113 0)
(2.74603 -0.121676 0)
(2.67867 0.0192988 0)
(2.64387 0.0375738 0)
(2.63524 0.0253957 0)
(2.64409 0.0441919 0)
(2.66998 0.0661071 0)
(2.66919 0.055958 0)
(2.66664 0.0140701 0)
(3.08466 -1.77261 0)
(3.08574 -1.76573 0)
(3.08747 -1.75556 0)
(3.09645 -1.7294 0)
(3.10702 -1.7122 0)
(3.10954 -1.70178 0)
(3.11645 -1.66464 0)
(3.11641 -1.64479 0)
(3.08915 -1.63925 0)
(3.06164 -1.63491 0)
(3.04639 -1.57852 0)
(3.06443 -1.53188 0)
(3.08072 -1.53194 0)
(3.08288 -1.57955 0)
(3.09148 -1.58956 0)
(3.07697 -1.54684 0)
(3.08208 -1.52077 0)
(3.08834 -1.52356 0)
(3.09772 -1.52112 0)
(3.09882 -1.50091 0)
(3.08836 -1.44001 0)
(3.0094 -1.16707 0)
(2.95897 -0.91782 0)
(2.89075 -0.559858 0)
(2.88515 -0.395571 0)
(2.84973 -0.20013 0)
(2.8049 -0.0566981 0)
(2.77058 0.0607468 0)
(2.7399 0.034486 0)
(2.74022 0.0549855 0)
(3.08425 -1.60744 0)
(3.08203 -1.58957 0)
(3.07509 -1.59549 0)
(3.07859 -1.59587 0)
(3.09052 -1.56848 0)
(3.10611 -1.54176 0)
(3.11594 -1.53435 0)
(3.11298 -1.54019 0)
(3.10023 -1.54894 0)
(3.0769 -1.56586 0)
(3.06723 -1.55605 0)
(3.07867 -1.52568 0)
(3.10512 -1.50364 0)
(3.12041 -1.49918 0)
(3.12438 -1.50218 0)
(3.10563 -1.48028 0)
(3.09122 -1.45983 0)
(3.10268 -1.41559 0)
(3.11483 -1.38809 0)
(3.10487 -1.39703 0)
(3.11338 -1.33946 0)
(3.11626 -1.37837 0)
(3.11313 -1.35979 0)
(3.11125 -1.32886 0)
(3.09751 -1.18033 0)
(3.05434 -0.916082 0)
(3.02149 -0.684871 0)
(2.94239 -0.39868 0)
(2.97312 -0.283065 0)
(2.87965 -0.0575711 0)
(3.08218 -1.58412 0)
(3.07877 -1.57505 0)
(3.07825 -1.5625 0)
(3.08168 -1.54378 0)
(3.0939 -1.52547 0)
(3.10442 -1.51842 0)
(3.10977 -1.51259 0)
(3.11884 -1.49967 0)
(3.11447 -1.5016 0)
(3.10078 -1.50604 0)
(3.09068 -1.46961 0)
(3.10033 -1.43869 0)
(3.12037 -1.38727 0)
(3.13883 -1.36679 0)
(3.13901 -1.35007 0)
(3.13023 -1.31267 0)
(3.11533 -1.31084 0)
(3.11495 -1.29819 0)
(3.11422 -1.29825 0)
(3.11654 -1.29174 0)
(3.11504 -1.29686 0)
(3.12169 -1.26779 0)
(3.12262 -1.24117 0)
(3.13396 -1.21951 0)
(3.13074 -1.22274 0)
(3.125 -1.22105 0)
(3.11948 -1.21934 0)
(3.08781 -1.0842 0)
(3.08965 -0.935633 0)
(3.0312 -0.521017 0)
(3.12923 -1.40557 0)
(3.12804 -1.39943 0)
(3.12289 -1.40353 0)
(3.12692 -1.37706 0)
(3.13419 -1.34584 0)
(3.13449 -1.34078 0)
(3.14486 -1.30808 0)
(3.16092 -1.26705 0)
(3.16247 -1.25913 0)
(3.1412 -1.27292 0)
(3.12054 -1.27952 0)
(3.11554 -1.26011 0)
(3.13447 -1.23191 0)
(3.13863 -1.24071 0)
(3.13154 -1.25662 0)
(3.1221 -1.25706 0)
(3.11852 -1.23873 0)
(3.11743 -1.23746 0)
(3.12512 -1.22779 0)
(3.13027 -1.21537 0)
(3.13375 -1.20772 0)
(3.13282 -1.18568 0)
(3.13321 -1.16833 0)
(3.12704 -1.16688 0)
(3.12639 -1.13322 0)
(3.1276 -1.12585 0)
(3.12775 -1.11041 0)
(3.13135 -1.12741 0)
(3.12782 -1.11619 0)
(3.12181 -1.07357 0)
(3.15057 -1.25427 0)
(3.15422 -1.25284 0)
(3.14905 -1.26425 0)
(3.14568 -1.28207 0)
(3.13287 -1.24504 0)
(3.13399 -1.21439 0)
(3.13488 -1.2095 0)
(3.1421 -1.20223 0)
(3.14379 -1.20106 0)
(3.13535 -1.21186 0)
(3.11859 -1.22807 0)
(3.10963 -1.21753 0)
(3.12345 -1.19878 0)
(3.13353 -1.19106 0)
(3.13684 -1.18526 0)
(3.13464 -1.17836 0)
(3.12958 -1.17222 0)
(3.13014 -1.14411 0)
(3.14286 -1.12411 0)
(3.14109 -1.09342 0)
(3.1381 -1.07736 0)
(3.13668 -1.0662 0)
(3.12742 -1.06664 0)
(3.11804 -1.0845 0)
(3.11935 -1.07403 0)
(3.12926 -1.07342 0)
(3.13177 -1.05245 0)
(3.13418 -1.04326 0)
(3.13781 -1.02274 0)
(3.13634 -1.0178 0)
(3.16194 -1.08903 0)
(3.16429 -1.09407 0)
(3.1625 -1.10589 0)
(3.15143 -1.13061 0)
(3.13963 -1.11998 0)
(3.13728 -1.09151 0)
(3.13945 -1.08451 0)
(3.14685 -1.06795 0)
(3.15555 -1.05324 0)
(3.15454 -1.05332 0)
(3.14675 -1.05747 0)
(3.13781 -1.04326 0)
(3.14464 -1.03003 0)
(3.14727 -1.01713 0)
(3.15273 -1.00491 0)
(3.15233 -0.997612 0)
(3.14548 -0.986673 0)
(3.13838 -0.985031 0)
(3.13577 -0.988176 0)
(3.13634 -0.993199 0)
(3.13249 -1.00691 0)
(3.13214 -1.00079 0)
(3.13133 -0.997352 0)
(3.13599 -0.997932 0)
(3.13649 -0.991871 0)
(3.1379 -0.982793 0)
(3.13512 -0.972375 0)
(3.134 -0.966507 0)
(3.12925 -0.967153 0)
(3.12626 -0.964296 0)
(3.16602 -0.931671 0)
(3.16805 -0.937885 0)
(3.16774 -0.939812 0)
(3.16066 -0.949057 0)
(3.1475 -0.969443 0)
(3.13779 -0.959123 0)
(3.14346 -0.938776 0)
(3.14731 -0.92883 0)
(3.15572 -0.922031 0)
(3.1543 -0.92536 0)
(3.14867 -0.929379 0)
(3.13711 -0.93324 0)
(3.13408 -0.928013 0)
(3.13958 -0.925305 0)
(3.14198 -0.930705 0)
(3.14196 -0.937125 0)
(3.1353 -0.931505 0)
(3.13412 -0.928736 0)
(3.1346 -0.926956 0)
(3.13671 -0.922806 0)
(3.13869 -0.918989 0)
(3.14033 -0.914095 0)
(3.14302 -0.904367 0)
(3.14464 -0.89461 0)
(3.1421 -0.874709 0)
(3.1412 -0.867113 0)
(3.135 -0.867903 0)
(3.1306 -0.867958 0)
(3.1253 -0.882274 0)
(3.1291 -0.883649 0)
(3.14238 -0.738714 0)
(3.15825 -0.763158 0)
(3.15845 -0.782099 0)
(3.15703 -0.784485 0)
(3.14738 -0.794833 0)
(3.13489 -0.811248 0)
(3.13553 -0.802864 0)
(3.14144 -0.792752 0)
(3.14962 -0.779616 0)
(3.15491 -0.781644 0)
(3.14469 -0.790144 0)
(3.13841 -0.792152 0)
(3.13488 -0.794014 0)
(3.13803 -0.792388 0)
(3.14516 -0.787334 0)
(3.14488 -0.787052 0)
(3.14247 -0.787816 0)
(3.13912 -0.786476 0)
(3.13852 -0.781828 0)
(3.13891 -0.78059 0)
(3.14025 -0.778657 0)
(3.13878 -0.780376 0)
(3.13718 -0.782923 0)
(3.13428 -0.789137 0)
(3.13243 -0.797241 0)
(3.13121 -0.808256 0)
(3.13199 -0.813388 0)
(3.13214 -0.815299 0)
(3.13465 -0.813998 0)
(3.13744 -0.806943 0)
(3.1222 -0.581553 0)
(3.12795 -0.569378 0)
(3.14464 -0.600343 0)
(3.1406 -0.627884 0)
(3.14019 -0.636005 0)
(3.13084 -0.650482 0)
(3.12314 -0.654588 0)
(3.12525 -0.650818 0)
(3.13091 -0.636889 0)
(3.14186 -0.628296 0)
(3.13956 -0.642966 0)
(3.13254 -0.660254 0)
(3.12623 -0.666783 0)
(3.12529 -0.66501 0)
(3.13215 -0.668596 0)
(3.13455 -0.67229 0)
(3.13364 -0.678369 0)
(3.13134 -0.680968 0)
(3.13008 -0.690657 0)
(3.12896 -0.697623 0)
(3.12983 -0.703353 0)
(3.12968 -0.707131 0)
(3.1302 -0.718854 0)
(3.13018 -0.723356 0)
(3.1306 -0.726557 0)
(3.13058 -0.730178 0)
(3.13147 -0.727909 0)
(3.13086 -0.731249 0)
(3.13263 -0.72701 0)
(3.13302 -0.734836 0)
(3.09934 -0.447326 0)
(3.10205 -0.425214 0)
(3.11044 -0.414289 0)
(3.12553 -0.450833 0)
(3.1202 -0.475909 0)
(3.11889 -0.48367 0)
(3.10146 -0.500075 0)
(3.09672 -0.506008 0)
(3.10428 -0.501585 0)
(3.12194 -0.491231 0)
(3.12799 -0.5002 0)
(3.12326 -0.51941 0)
(3.11387 -0.531644 0)
(3.10954 -0.529451 0)
(3.11489 -0.53475 0)
(3.12136 -0.546942 0)
(3.12083 -0.551404 0)
(3.12077 -0.554697 0)
(3.12141 -0.563798 0)
(3.12016 -0.570464 0)
(3.12002 -0.579454 0)
(3.12241 -0.580968 0)
(3.12426 -0.588052 0)
(3.12377 -0.587633 0)
(3.12297 -0.593785 0)
(3.12027 -0.593925 0)
(3.12388 -0.612206 0)
(3.12128 -0.619288 0)
(3.12374 -0.633378 0)
(3.1236 -0.650031 0)
(3.06854 -0.305845 0)
(3.07177 -0.294931 0)
(3.07872 -0.278786 0)
(3.09268 -0.281254 0)
(3.09185 -0.30631 0)
(3.08827 -0.313289 0)
(3.08135 -0.334658 0)
(3.07319 -0.3634 0)
(3.07518 -0.36867 0)
(3.09258 -0.355899 0)
(3.1027 -0.359565 0)
(3.10285 -0.37087 0)
(3.09496 -0.392629 0)
(3.08938 -0.392898 0)
(3.09433 -0.399829 0)
(3.10235 -0.421958 0)
(3.10197 -0.427383 0)
(3.10268 -0.431529 0)
(3.10553 -0.444112 0)
(3.10562 -0.458106 0)
(3.10507 -0.468884 0)
(3.10742 -0.479079 0)
(3.10973 -0.488392 0)
(3.11122 -0.504322 0)
(3.11156 -0.520149 0)
(3.11266 -0.534507 0)
(3.11472 -0.543568 0)
(3.11505 -0.54732 0)
(3.11581 -0.557942 0)
(3.11772 -0.572243 0)
(3.02487 -0.157778 0)
(3.02623 -0.153795 0)
(3.0316 -0.143828 0)
(3.04189 -0.128088 0)
(3.05663 -0.13517 0)
(3.05402 -0.164941 0)
(3.05235 -0.177831 0)
(3.04711 -0.213544 0)
(3.04168 -0.23285 0)
(3.0554 -0.224344 0)
(3.06865 -0.215117 0)
(3.07323 -0.228359 0)
(3.06835 -0.254523 0)
(3.0622 -0.259853 0)
(3.06625 -0.269362 0)
(3.07528 -0.294425 0)
(3.07629 -0.303333 0)
(3.07855 -0.309829 0)
(3.08293 -0.324305 0)
(3.0834 -0.337335 0)
(3.08412 -0.356635 0)
(3.08622 -0.364318 0)
(3.09078 -0.378451 0)
(3.0934 -0.391803 0)
(3.09414 -0.403783 0)
(3.09543 -0.414875 0)
(3.09749 -0.427673 0)
(3.10048 -0.447056 0)
(3.10244 -0.460288 0)
(3.10496 -0.475222 0)
(2.98383 -0.00969688 0)
(2.97862 -0.0185091 0)
(2.9786 -0.0197233 0)
(2.98739 -0.0114812 0)
(3.00329 -0.00150845 0)
(3.01396 -0.011019 0)
(3.0062 -0.0353897 0)
(3.0073 -0.0587373 0)
(3.00195 -0.0859921 0)
(3.00723 -0.08895 0)
(3.02268 -0.0814477 0)
(3.03547 -0.0986973 0)
(3.03183 -0.12544 0)
(3.02631 -0.127523 0)
(3.03 -0.138278 0)
(3.03966 -0.168088 0)
(3.04149 -0.18 0)
(3.04501 -0.186194 0)
(3.05236 -0.204481 0)
(3.05482 -0.221219 0)
(3.05617 -0.240115 0)
(3.05912 -0.252313 0)
(3.06527 -0.269106 0)
(3.06902 -0.283222 0)
(3.07197 -0.303659 0)
(3.07458 -0.31811 0)
(3.07873 -0.33668 0)
(3.08189 -0.349376 0)
(3.08402 -0.361183 0)
(3.08859 -0.390288 0)
(2.92692 0.14411 0)
(2.92432 0.128232 0)
(2.92167 0.11934 0)
(2.92572 0.121238 0)
(2.93648 0.132267 0)
(2.94644 0.134656 0)
(2.95746 0.110254 0)
(2.96193 0.0754092 0)
(2.95309 0.0474914 0)
(2.95567 0.043548 0)
(2.96395 0.0505304 0)
(2.98009 0.0315734 0)
(2.98336 0.0037048 0)
(2.98224 -0.00130034 0)
(2.98948 -0.0147834 0)
(2.99767 -0.0412524 0)
(2.99993 -0.0578384 0)
(3.00414 -0.0667374 0)
(3.0137 -0.0861481 0)
(3.0194 -0.105539 0)
(3.02209 -0.121951 0)
(3.02731 -0.141695 0)
(3.03308 -0.156611 0)
(3.03916 -0.174167 0)
(3.04464 -0.197818 0)
(3.04764 -0.211305 0)
(3.05317 -0.231241 0)
(3.05835 -0.251408 0)
(3.06267 -0.27044 0)
(3.06879 -0.296417 0)
(2.85366 0.301918 0)
(2.85867 0.288585 0)
(2.86261 0.267637 0)
(2.86463 0.262492 0)
(2.8664 0.271071 0)
(2.88304 0.256349 0)
(2.89237 0.232465 0)
(2.89169 0.219538 0)
(2.89589 0.194893 0)
(2.89993 0.189105 0)
(2.9038 0.188343 0)
(2.92434 0.154323 0)
(2.92854 0.129775 0)
(2.92883 0.131178 0)
(2.94123 0.111249 0)
(2.95086 0.0833012 0)
(2.95386 0.0667239 0)
(2.96082 0.0494949 0)
(2.9703 0.0311676 0)
(2.97818 0.0122246 0)
(2.98497 -0.009631 0)
(2.98986 -0.0256298 0)
(2.99906 -0.0521401 0)
(3.00544 -0.068135 0)
(3.01245 -0.0884639 0)
(3.01918 -0.111391 0)
(3.02517 -0.131179 0)
(3.03144 -0.151453 0)
(3.0372 -0.171971 0)
(3.04602 -0.204656 0)
(2.81722 0.370008 0)
(2.81962 0.367022 0)
(2.82212 0.36261 0)
(2.82359 0.361526 0)
(2.82556 0.362109 0)
(2.83075 0.358558 0)
(2.83588 0.349951 0)
(2.8375 0.342959 0)
(2.84321 0.327639 0)
(2.84845 0.314848 0)
(2.85561 0.303932 0)
(2.86404 0.290676 0)
(2.87001 0.275133 0)
(2.87671 0.257741 0)
(2.88731 0.23625 0)
(2.89617 0.217602 0)
(2.90475 0.1958 0)
(2.91303 0.175014 0)
(2.92327 0.152285 0)
(2.93351 0.129572 0)
(2.94303 0.105569 0)
(2.95067 0.0856461 0)
(2.96054 0.0606219 0)
(2.96935 0.0377988 0)
(2.97876 0.0129806 0)
(2.98624 -0.00700071 0)
(2.9952 -0.0330768 0)
(3.0029 -0.0551719 0)
(3.01036 -0.0775005 0)
(3.02164 -0.113141 0)
(2.82029 0.368122 0)
(2.82054 0.371531 0)
(2.82046 0.374693 0)
(2.82081 0.376204 0)
(2.82061 0.376637 0)
(2.82034 0.376182 0)
(2.82022 0.37515 0)
(2.82148 0.371138 0)
(2.82234 0.366669 0)
(2.82308 0.364683 0)
(2.82457 0.363976 0)
(2.82685 0.364285 0)
(2.83026 0.362033 0)
(2.83628 0.352479 0)
(2.8412 0.34154 0)
(2.84605 0.332308 0)
(2.85375 0.317926 0)
(2.86259 0.299529 0)
(2.87306 0.277699 0)
(2.88267 0.258552 0)
(2.89525 0.231285 0)
(2.90551 0.205907 0)
(2.91679 0.178522 0)
(2.92813 0.15136 0)
(2.93998 0.122425 0)
(2.95001 0.0977603 0)
(2.96157 0.0680861 0)
(2.97128 0.042529 0)
(2.98053 0.0177343 0)
(2.99474 -0.0215375 0)
(2.84975 0.30882 0)
(2.84505 0.321349 0)
(2.83822 0.342206 0)
(2.84151 0.360163 0)
(2.84334 0.365418 0)
(2.83505 0.35362 0)
(2.83209 0.341058 0)
(2.83337 0.342721 0)
(2.83284 0.349363 0)
(2.8327 0.362116 0)
(2.8315 0.366041 0)
(2.82924 0.365399 0)
(2.82948 0.362912 0)
(2.83055 0.362016 0)
(2.83184 0.361358 0)
(2.83246 0.361039 0)
(2.83383 0.359585 0)
(2.83558 0.356366 0)
(2.83842 0.351719 0)
(2.84331 0.34491 0)
(2.85048 0.333837 0)
(2.85866 0.318567 0)
(2.86894 0.297262 0)
(2.87972 0.2738 0)
(2.89354 0.243501 0)
(2.90587 0.215196 0)
(2.91994 0.182209 0)
(2.93283 0.150692 0)
(2.94513 0.119924 0)
(2.96327 0.0740582 0)
(2.92583 0.159504 0)
(2.9184 0.184798 0)
(2.91735 0.186264 0)
(2.9186 0.186698 0)
(2.90911 0.211608 0)
(2.90357 0.229907 0)
(2.89881 0.226477 0)
(2.88738 0.238061 0)
(2.87382 0.271539 0)
(2.87308 0.284749 0)
(2.87633 0.281342 0)
(2.86087 0.302903 0)
(2.85455 0.325571 0)
(2.85306 0.322047 0)
(2.84597 0.330106 0)
(2.84285 0.341661 0)
(2.84278 0.343694 0)
(2.84002 0.347192 0)
(2.8396 0.348652 0)
(2.83988 0.349344 0)
(2.84077 0.348802 0)
(2.84178 0.347277 0)
(2.84377 0.344132 0)
(2.8473 0.339702 0)
(2.85358 0.330632 0)
(2.8618 0.316559 0)
(2.87312 0.294615 0)
(2.88562 0.267766 0)
(2.89972 0.236461 0)
(2.92242 0.184154 0)
(2.99016 0.0209645 0)
(2.98793 0.0254766 0)
(2.98574 0.0308274 0)
(2.98329 0.0365739 0)
(2.98053 0.0432906 0)
(2.97753 0.0517928 0)
(2.97467 0.0569031 0)
(2.96645 0.0708401 0)
(2.96139 0.0796514 0)
(2.95195 0.102469 0)
(2.94722 0.114182 0)
(2.93675 0.135641 0)
(2.92865 0.154434 0)
(2.91825 0.176724 0)
(2.90477 0.203086 0)
(2.89737 0.220157 0)
(2.88379 0.251898 0)
(2.87799 0.265669 0)
(2.86444 0.293803 0)
(2.86199 0.299873 0)
(2.85351 0.31774 0)
(2.84906 0.32985 0)
(2.84791 0.330157 0)
(2.84711 0.33544 0)
(2.84738 0.335902 0)
(2.84817 0.335279 0)
(2.84995 0.332934 0)
(2.85361 0.32807 0)
(2.85964 0.319009 0)
(2.87674 0.288275 0)
(2.99971 0.000603053 0)
(2.99962 0.00076335 0)
(2.99949 0.00102779 0)
(2.99935 0.0012963 0)
(2.99914 0.0017491 0)
(2.99888 0.00230826 0)
(2.99851 0.00303957 0)
(2.99789 0.00408925 0)
(2.99703 0.00553674 0)
(2.99566 0.00836737 0)
(2.99449 0.0107397 0)
(2.99208 0.0155985 0)
(2.98937 0.0208269 0)
(2.985 0.0297793 0)
(2.97977 0.0399822 0)
(2.97311 0.0530557 0)
(2.96265 0.0757944 0)
(2.95585 0.0900749 0)
(2.93907 0.125439 0)
(2.92878 0.147768 0)
(2.91361 0.179813 0)
(2.89632 0.220051 0)
(2.89147 0.233262 0)
(2.87051 0.277052 0)
(2.86446 0.291699 0)
(2.86073 0.301421 0)
(2.85269 0.319348 0)
(2.85171 0.325215 0)
(2.85286 0.322759 0)
(2.8557 0.319763 0)
(3 5.18327e-06 0)
(3 6.70714e-06 0)
(3 8.84566e-06 0)
(2.99999 1.23181e-05 0)
(2.99999 1.68001e-05 0)
(2.99999 2.42073e-05 0)
(2.99998 3.46017e-05 0)
(2.99997 5.07082e-05 0)
(2.99995 7.96799e-05 0)
(2.99993 0.000124621 0)
(2.99989 0.000206983 0)
(2.99982 0.000313016 0)
(2.99969 0.000551448 0)
(2.9995 0.000896613 0)
(2.99916 0.00152189 0)
(2.99855 0.00264316 0)
(2.99759 0.00434332 0)
(2.9959 0.00774068 0)
(2.99341 0.0121804 0)
(2.98911 0.0208237 0)
(2.98304 0.0324987 0)
(2.97438 0.0497443 0)
(2.96271 0.074596 0)
(2.94817 0.103906 0)
(2.93234 0.138077 0)
(2.91293 0.180813 0)
(2.89791 0.214031 0)
(2.88231 0.249047 0)
(2.87085 0.27606 0)
(2.8618 0.29942 0)
(3 2.78377e-08 0)
(3 3.48663e-08 0)
(3 4.71927e-08 0)
(3 6.32405e-08 0)
(3 8.90334e-08 0)
(3 1.26059e-07 0)
(3 1.84426e-07 0)
(3 2.79885e-07 0)
(3 4.34227e-07 0)
(3 7.35321e-07 0)
(3 1.19803e-06 0)
(3 2.11148e-06 0)
(3 3.71153e-06 0)
(3 7.08917e-06 0)
(2.99999 1.33336e-05 0)
(2.99998 2.67663e-05 0)
(2.99997 5.52259e-05 0)
(2.99993 0.000113894 0)
(2.99986 0.000244959 0)
(2.9997 0.000524607 0)
(2.99937 0.00110763 0)
(2.99867 0.00241623 0)
(2.99736 0.00479224 0)
(2.99468 0.00989813 0)
(2.99023 0.0183902 0)
(2.98241 0.0337904 0)
(2.97157 0.0556224 0)
(2.95493 0.0902641 0)
(2.93873 0.124464 0)
(2.90807 0.191616 0)
(3 1.19805e-10 0)
(3 1.54069e-10 0)
(3 2.04296e-10 0)
(3 2.80364e-10 0)
(3 3.88084e-10 0)
(3 5.53407e-10 0)
(3 8.07487e-10 0)
(3 1.21249e-09 0)
(3 1.90031e-09 0)
(3 3.07772e-09 0)
(3 5.19696e-09 0)
(3 8.86717e-09 0)
(3 1.632e-08 0)
(3 3.06475e-08 0)
(3 6.07981e-08 0)
(3 1.26816e-07 0)
(3 2.74571e-07 0)
(3 6.28206e-07 0)
(3 1.47234e-06 0)
(3 3.67473e-06 0)
(2.99999 9.28432e-06 0)
(2.99999 2.47031e-05 0)
(2.99996 6.56272e-05 0)
(2.9999 0.000179923 0)
(2.99973 0.000474866 0)
(2.99929 0.00128216 0)
(2.99829 0.00311483 0)
(2.99583 0.00780196 0)
(2.99186 0.0154289 0)
(2.97586 0.048354 0)
(3 3.97795e-13 0)
(3 5.12898e-13 0)
(3 6.93982e-13 0)
(3 9.52408e-13 0)
(3 1.34045e-12 0)
(3 1.90826e-12 0)
(3 2.81082e-12 0)
(3 4.20628e-12 0)
(3 6.54722e-12 0)
(3 1.05205e-11 0)
(3 1.74924e-11 0)
(3 2.98166e-11 0)
(3 5.41841e-11 0)
(3 1.01201e-10 0)
(3 2.01568e-10 0)
(3 4.18866e-10 0)
(3 9.28971e-10 0)
(3 2.12563e-09 0)
(3 5.23578e-09 0)
(3 1.32728e-08 0)
(3 3.62343e-08 0)
(3 1.01108e-07 0)
(3 3.05468e-07 0)
(3 9.26772e-07 0)
(3 3.04639e-06 0)
(2.99999 9.84043e-06 0)
(2.99997 3.36915e-05 0)
(2.99991 0.000113166 0)
(2.99974 0.000334976 0)
(2.99797 0.00249857 0)
(2.41447 -1.30834 0)
(2.51675 -1.37601 0)
(2.76554 -1.42141 0)
(2.93588 -1.59771 0)
(3.06777 -1.73261 0)
(3.08183 -1.79011 0)
(3.09021 -1.62543 0)
(3.08441 -1.5909 0)
(3.12872 -1.41165 0)
(3.14884 -1.24714 0)
(3.15154 -1.07624 0)
(3.14407 -0.896067 0)
(3.13588 -0.753133 0)
(3.11708 -0.607661 0)
(3.08956 -0.465177 0)
(3.06198 -0.312484 0)
(3.03132 -0.153148 0)
(2.98378 0.0275518 0)
(2.91625 0.182318 0)
(2.84848 0.314582 0)
(2.81581 0.373584 0)
(2.81984 0.366767 0)
(2.86741 0.287685 0)
(2.94456 0.128097 0)
(2.99262 0.016792 0)
(2.99978 0.000467582 0)
(3 4.3083e-06 0)
(3 2.28108e-08 0)
(3 9.80173e-11 0)
(3 3.21895e-13 0)
(2.41793 -1.29888 0)
(2.54734 -1.38419 0)
(2.78419 -1.43942 0)
(2.91669 -1.61383 0)
(3.06822 -1.73239 0)
(3.08245 -1.79064 0)
(3.10163 -1.59287 0)
(3.10078 -1.54716 0)
(3.1411 -1.34854 0)
(3.14152 -1.15624 0)
(3.13767 -1.01731 0)
(3.1388 -0.890767 0)
(3.13133 -0.761433 0)
(3.11866 -0.605733 0)
(3.1027 -0.440328 0)
(3.07654 -0.25806 0)
(3.03046 -0.0793984 0)
(2.96074 0.0947683 0)
(2.88942 0.236645 0)
(2.83284 0.342001 0)
(2.81387 0.381275 0)
(2.82099 0.365341 0)
(2.8734 0.277435 0)
(2.95774 0.101766 0)
(2.99601 0.00964539 0)
(2.99992 0.000179676 0)
(3 1.35231e-06 0)
(3 7.58848e-09 0)
(3 3.65307e-11 0)
(3 1.26425e-13 0)
(2.41477 -1.30274 0)
(2.56043 -1.38973 0)
(2.78369 -1.45042 0)
(2.90435 -1.5925 0)
(3.06622 -1.71546 0)
(3.08376 -1.7915 0)
(3.11207 -1.57476 0)
(3.10766 -1.51059 0)
(3.13815 -1.35939 0)
(3.14407 -1.19106 0)
(3.13648 -1.06271 0)
(3.13584 -0.91845 0)
(3.13975 -0.757044 0)
(3.13674 -0.572257 0)
(3.10836 -0.35456 0)
(3.05182 -0.161313 0)
(2.99764 -0.0100737 0)
(2.94044 0.120931 0)
(2.87428 0.254524 0)
(2.82262 0.357325 0)
(2.81291 0.38493 0)
(2.82573 0.362991 0)
(2.88151 0.281382 0)
(2.96588 0.0852922 0)
(2.99764 0.00570142 0)
(2.99996 8.98724e-05 0)
(3 6.14051e-07 0)
(3 3.32212e-09 0)
(3 1.55177e-11 0)
(3 5.15076e-14 0)
(2.40985 -1.30062 0)
(2.55947 -1.38325 0)
(2.79006 -1.44684 0)
(2.90173 -1.58822 0)
(3.06546 -1.69922 0)
(3.07991 -1.79234 0)
(3.10437 -1.5721 0)
(3.10398 -1.52008 0)
(3.13751 -1.37145 0)
(3.14675 -1.21319 0)
(3.15419 -1.06022 0)
(3.16963 -0.880216 0)
(3.17092 -0.66197 0)
(3.12774 -0.451827 0)
(3.07022 -0.266742 0)
(3.02883 -0.126682 0)
(2.98591 -0.00456285 0)
(2.93223 0.115931 0)
(2.86803 0.259162 0)
(2.81818 0.364655 0)
(2.81341 0.384665 0)
(2.82985 0.368492 0)
(2.89179 0.248035 0)
(2.97386 0.0609119 0)
(2.99852 0.00333622 0)
(2.99998 4.11435e-05 0)
(3 2.67216e-07 0)
(3 1.42009e-09 0)
(3 6.50089e-12 0)
(3 1.96407e-14 0)
(2.40823 -1.299 0)
(2.56148 -1.37967 0)
(2.79444 -1.44358 0)
(2.89729 -1.59134 0)
(3.0676 -1.69855 0)
(3.07495 -1.80057 0)
(3.09818 -1.57247 0)
(3.10803 -1.52515 0)
(3.15172 -1.36623 0)
(3.17884 -1.18426 0)
(3.19948 -0.984638 0)
(3.17732 -0.766483 0)
(3.12498 -0.56139 0)
(3.09433 -0.412318 0)
(3.06485 -0.28785 0)
(3.02627 -0.148539 0)
(2.98056 -0.000563459 0)
(2.92513 0.152352 0)
(2.8571 0.298134 0)
(2.81327 0.374519 0)
(2.81469 0.378125 0)
(2.83227 0.352651 0)
(2.91791 0.184662 0)
(2.98328 0.0373762 0)
(2.99929 0.00150534 0)
(2.99999 1.70532e-05 0)
(3 1.09277e-07 0)
(3 5.8255e-10 0)
(3 2.66567e-12 0)
(3 6.30391e-15 0)
(2.4051 -1.29736 0)
(2.56563 -1.38044 0)
(2.79023 -1.45065 0)
(2.89242 -1.60522 0)
(3.07238 -1.70385 0)
(3.07416 -1.80592 0)
(3.11049 -1.54769 0)
(3.13069 -1.50109 0)
(3.18615 -1.29723 0)
(3.19616 -1.07274 0)
(3.17165 -0.873252 0)
(3.13958 -0.707462 0)
(3.1165 -0.582595 0)
(3.08904 -0.446118 0)
(3.05887 -0.298969 0)
(3.02747 -0.127858 0)
(2.97063 0.0709567 0)
(2.89404 0.23354 0)
(2.83371 0.34411 0)
(2.80882 0.383819 0)
(2.81351 0.375277 0)
(2.85002 0.311061 0)
(2.9336 0.152343 0)
(2.99026 0.0229904 0)
(2.99967 0.000723296 0)
(3 6.98246e-06 0)
(3 4.35111e-08 0)
(3 2.31277e-10 0)
(3 1.05969e-12 0)
(3 6.64906e-16 0)
(2.4019 -1.30096 0)
(2.56554 -1.38679 0)
(2.77907 -1.47116 0)
(2.8999 -1.61575 0)
(3.07772 -1.71009 0)
(3.07313 -1.8066 0)
(3.1195 -1.52591 0)
(3.13989 -1.44897 0)
(3.14821 -1.19671 0)
(3.15297 -0.999479 0)
(3.14973 -0.881443 0)
(3.13335 -0.749774 0)
(3.11176 -0.606728 0)
(3.09329 -0.436911 0)
(3.06969 -0.236349 0)
(3.0128 -0.0306128 0)
(2.94064 0.131793 0)
(2.87283 0.262602 0)
(2.82194 0.359994 0)
(2.80731 0.390559 0)
(2.8122 0.375306 0)
(2.87129 0.285985 0)
(2.94717 0.133501 0)
(2.99418 0.0145972 0)
(2.99985 0.000345706 0)
(3 2.90578e-06 0)
(3 1.73762e-08 0)
(3 9.08526e-11 0)
(3 4.0887e-13 0)
(3 -1.53203e-15 0)
(2.39154 -1.30383 0)
(2.55939 -1.38716 0)
(2.77876 -1.48205 0)
(2.93172 -1.64266 0)
(3.07617 -1.69939 0)
(3.07092 -1.79045 0)
(3.12381 -1.49262 0)
(3.11246 -1.3755 0)
(3.14544 -1.19892 0)
(3.14761 -1.05074 0)
(3.14082 -0.912409 0)
(3.13546 -0.757505 0)
(3.13432 -0.571892 0)
(3.1084 -0.334069 0)
(3.03899 -0.12103 0)
(2.98287 0.0192188 0)
(2.93129 0.127773 0)
(2.86652 0.260223 0)
(2.81734 0.367441 0)
(2.80646 0.394701 0)
(2.81592 0.377958 0)
(2.87345 0.297776 0)
(2.96141 0.098077 0)
(2.99669 0.00833085 0)
(2.99993 0.000155191 0)
(3 1.19488e-06 0)
(3 6.91467e-09 0)
(3 3.54998e-11 0)
(3 1.52624e-13 0)
(3 -2.40789e-15 0)
(2.37336 -1.29919 0)
(2.55558 -1.38233 0)
(2.77565 -1.51037 0)
(2.93637 -1.6576 0)
(3.07785 -1.68796 0)
(3.06189 -1.70997 0)
(3.11755 -1.49747 0)
(3.11946 -1.39094 0)
(3.14421 -1.24928 0)
(3.14883 -1.06814 0)
(3.1624 -0.894692 0)
(3.17164 -0.685202 0)
(3.13933 -0.439917 0)
(3.0654 -0.227226 0)
(3.01969 -0.0966188 0)
(2.97317 0.0147796 0)
(2.92032 0.151556 0)
(2.85605 0.293568 0)
(2.81129 0.380044 0)
(2.80733 0.394798 0)
(2.82329 0.384702 0)
(2.88346 0.271751 0)
(2.9708 0.0696852 0)
(2.99809 0.00449152 0)
(2.99997 6.71434e-05 0)
(3 4.7744e-07 0)
(3 2.71148e-09 0)
(3 1.37245e-11 0)
(3 5.39812e-14 0)
(3 -2.85299e-15 0)
(2.361 -1.29356 0)
(2.5346 -1.35575 0)
(2.7632 -1.50892 0)
(2.93555 -1.66711 0)
(3.08632 -1.67667 0)
(3.07495 -1.70066 0)
(3.10639 -1.5398 0)
(3.12389 -1.41219 0)
(3.15822 -1.25544 0)
(3.19174 -1.02063 0)
(3.19791 -0.784883 0)
(3.14375 -0.54331 0)
(3.09023 -0.356136 0)
(3.0559 -0.242072 0)
(3.01249 -0.109402 0)
(2.96541 0.054955 0)
(2.89433 0.231481 0)
(2.83332 0.344567 0)
(2.80503 0.387259 0)
(2.80718 0.386961 0)
(2.82512 0.360489 0)
(2.91341 0.193596 0)
(2.98011 0.0455761 0)
(2.99905 0.00208287 0)
(2.99999 2.60972e-05 0)
(3 1.80709e-07 0)
(3 1.02192e-09 0)
(3 5.1522e-12 0)
(3 1.65064e-14 0)
(3 -2.77064e-15 0)
(2.33754 -1.27961 0)
(2.50347 -1.32698 0)
(2.75491 -1.49354 0)
(2.92585 -1.68581 0)
(3.08801 -1.66852 0)
(3.08191 -1.71562 0)
(3.11456 -1.55634 0)
(3.17105 -1.3726 0)
(3.21909 -1.17512 0)
(3.20721 -0.891661 0)
(3.14652 -0.662218 0)
(3.11213 -0.512175 0)
(3.08203 -0.393515 0)
(3.04674 -0.254354 0)
(3.0109 -0.0651681 0)
(2.93511 0.1457 0)
(2.8686 0.278627 0)
(2.81952 0.365296 0)
(2.80207 0.389993 0)
(2.80731 0.381012 0)
(2.84876 0.309891 0)
(2.9334 0.155116 0)
(2.98968 0.0251483 0)
(2.99961 0.000889333 0)
(3 9.70779e-06 0)
(3 6.51834e-08 0)
(3 3.68838e-10 0)
(3 1.85983e-12 0)
(3 2.52602e-15 0)
(3 -2.74242e-15 0)
(2.32057 -1.26659 0)
(2.48553 -1.31923 0)
(2.73935 -1.48141 0)
(2.922 -1.68915 0)
(3.07581 -1.67428 0)
(3.09444 -1.71614 0)
(3.17394 -1.50675 0)
(3.20471 -1.24825 0)
(3.18808 -1.01867 0)
(3.16276 -0.82915 0)
(3.13682 -0.688133 0)
(3.10581 -0.554313 0)
(3.07808 -0.399818 0)
(3.05357 -0.19024 0)
(2.98357 0.0390935 0)
(2.92214 0.171773 0)
(2.85927 0.285148 0)
(2.81231 0.377571 0)
(2.80086 0.395824 0)
(2.80707 0.375409 0)
(2.87015 0.2866 0)
(2.94726 0.137571 0)
(2.99424 0.0150622 0)
(2.99984 0.000393926 0)
(3 3.63671e-06 0)
(3 2.33488e-08 0)
(3 1.30164e-10 0)
(3 6.48787e-13 0)
(3 -2.53594e-15 0)
(3 -2.65809e-15 0)
(2.31666 -1.26167 0)
(2.46617 -1.31865 0)
(2.72402 -1.47913 0)
(2.92076 -1.68667 0)
(3.07387 -1.66806 0)
(3.11779 -1.68352 0)
(3.18817 -1.36525 0)
(3.17433 -1.20217 0)
(3.16226 -1.02342 0)
(3.14641 -0.877217 0)
(3.13007 -0.720487 0)
(3.11515 -0.543092 0)
(3.09771 -0.307533 0)
(3.02067 -0.060248 0)
(2.96655 0.0701217 0)
(2.90982 0.18086 0)
(2.84684 0.312481 0)
(2.80575 0.392644 0)
(2.79963 0.402782 0)
(2.81342 0.382129 0)
(2.87528 0.298996 0)
(2.9636 0.0956075 0)
(2.99677 0.00860106 0)
(2.99993 0.000169527 0)
(3 1.38029e-06 0)
(3 8.44969e-09 0)
(3 4.59195e-11 0)
(3 2.20982e-13 0)
(3 -4.11351e-15 0)
(3 -2.53245e-15 0)
(2.31619 -1.26155 0)
(2.4534 -1.33041 0)
(2.71785 -1.49782 0)
(2.92005 -1.69098 0)
(3.07655 -1.64724 0)
(3.13376 -1.59291 0)
(3.15795 -1.35037 0)
(3.14909 -1.23451 0)
(3.15264 -1.0684 0)
(3.15186 -0.877648 0)
(3.15625 -0.681548 0)
(3.13941 -0.409871 0)
(3.055 -0.161332 0)
(2.99957 -0.0261548 0)
(2.95178 0.0808235 0)
(2.89002 0.240499 0)
(2.82936 0.353074 0)
(2.80203 0.399308 0)
(2.8027 0.404784 0)
(2.82314 0.391631 0)
(2.8878 0.266052 0)
(2.97376 0.0649653 0)
(2.99831 0.00418955 0)
(2.99997 6.54449e-05 0)
(3 4.99161e-07 0)
(3 2.99637e-09 0)
(3 1.60217e-11 0)
(3 7.13024e-14 0)
(3 -5.54437e-15 0)
(3 -2.51418e-15 0)
(2.3142 -1.26321 0)
(2.45279 -1.33369 0)
(2.69907 -1.53982 0)
(2.9366 -1.7071 0)
(3.08809 -1.61707 0)
(3.10573 -1.55755 0)
(3.13433 -1.393 0)
(3.15606 -1.22075 0)
(3.17953 -1.05286 0)
(3.19734 -0.776903 0)
(3.16541 -0.510618 0)
(3.0833 -0.272636 0)
(3.03529 -0.148196 0)
(2.98603 -0.0309069 0)
(2.92931 0.150754 0)
(2.86178 0.300893 0)
(2.81603 0.374511 0)
(2.80115 0.398013 0)
(2.80409 0.400225 0)
(2.82746 0.358583 0)
(2.9197 0.182482 0)
(2.98234 0.0417681 0)
(2.9992 0.00180674 0)
(2.99999 2.36264e-05 0)
(3 1.71525e-07 0)
(3 1.02196e-09 0)
(3 5.42793e-12 0)
(3 1.87293e-14 0)
(3 -6.84172e-15 0)
(3 -2.56642e-15 0)
(2.3076 -1.26796 0)
(2.44292 -1.34003 0)
(2.67713 -1.56474 0)
(2.95216 -1.70522 0)
(3.09713 -1.59073 0)
(3.09364 -1.56615 0)
(3.14164 -1.38153 0)
(3.18711 -1.15256 0)
(3.22973 -0.925745 0)
(3.16531 -0.608697 0)
(3.1043 -0.399699 0)
(3.06738 -0.295728 0)
(3.02142 -0.165583 0)
(2.97259 0.0275596 0)
(2.89765 0.220702 0)
(2.84821 0.322534 0)
(2.80559 0.387875 0)
(2.79996 0.396083 0)
(2.80386 0.381556 0)
(2.85844 0.296061 0)
(2.93958 0.141701 0)
(2.99184 0.0201356 0)
(2.9997 0.000692861 0)
(3 7.75252e-06 0)
(3 5.51548e-08 0)
(3 3.29919e-10 0)
(3 1.754e-12 0)
(3 1.26971e-15 0)
(3 -7.20592e-15 0)
(3 -2.52778e-15 0)
(2.29555 -1.26817 0)
(2.42587 -1.34611 0)
(2.6642 -1.57913 0)
(2.96917 -1.68252 0)
(3.077 -1.62834 0)
(3.0954 -1.57113 0)
(3.16832 -1.31444 0)
(3.20899 -1.05904 0)
(3.17615 -0.776073 0)
(3.14078 -0.59842 0)
(3.09623 -0.445958 0)
(3.05457 -0.308466 0)
(3.01801 -0.103845 0)