/*--------------------------------*- C++ -*----------------------------------*\
  =========                 |
  \\      /  F ield         | OpenFOAM: The Open Source CFD Toolbox
   \\    /   O peration     | Website:  https://openfoam.org
    \\  /    A nd           | Version:  7
     \\/     M anipulation  |
\*---------------------------------------------------------------------------*/
FoamFile
{
    version     2.0;
    format      ascii;
    class       volScalarField;
    location    "7";
    object      T;
}
// * * * * * * * * * * * * * * * * * * * * * * * * * * * * * * * * * * * * * //

dimensions      [0 0 0 1 0 0 0];

internalField   nonuniform List<scalar> 
90000
(
0.893763
0.903017
0.912515
0.921381
0.929684
0.937357
0.944664
0.951466
0.958059
0.964205
0.970234
0.975836
0.981365
0.986466
0.991514
0.996094
1.00065
1.00465
1.00868
1.01201
1.01545
1.01813
1.02055
1.02295
1.02429
1.02533
1.02675
1.02672
1.02646
1.02602
1.02543
1.02424
1.02317
1.02128
1.0196
1.01857
1.01866
1.01896
1.01938
1.01993
1.02068
1.02116
1.02146
1.02152
1.02133
1.0208
1.02001
1.0193
1.0187
1.01828
1.01815
1.01828
1.01875
1.01947
1.01999
1.01987
1.01953
1.01899
1.01856
1.01824
1.01825
1.01836
1.01861
1.01887
1.01875
1.01843
1.01816
1.01808
1.01816
1.01834
1.01834
1.0181
1.01781
1.01758
1.01761
1.01769
1.01763
1.01753
1.01739
1.0173
1.01722
1.01712
1.01704
1.01701
1.01697
1.01685
1.01671
1.0166
1.01653
1.01649
1.01652
1.01651
1.01648
1.01638
1.01624
1.01611
1.01602
1.01595
1.01588
1.01571
0.885842
0.886333
0.887277
0.88873
0.890676
0.893153
0.896087
0.899547
0.903385
0.907744
0.912376
0.917492
0.922761
0.928436
0.934159
0.940166
0.946128
0.952239
0.958181
0.964195
0.969865
0.975527
0.980878
0.985769
0.99081
0.99484
0.999034
1.00231
1.00548
1.00775
1.00995
1.01121
1.01312
1.01547
1.01794
1.01943
1.02076
1.02138
1.02172
1.02166
1.02125
1.02089
1.02038
1.0194
1.01834
1.0179
1.01772
1.01753
1.01759
1.01785
1.01821
1.01856
1.01862
1.01846
1.01825
1.0179
1.01765
1.01743
1.01745
1.01761
1.0179
1.01789
1.01779
1.01762
1.01746
1.01732
1.01744
1.01766
1.01766
1.01761
1.01744
1.0172
1.01708
1.01709
1.01713
1.01706
1.01692
1.01692
1.01689
1.01683
1.01673
1.01664
1.0166
1.01658
1.0165
1.01638
1.01629
1.01622
1.01616
1.01612
1.01613
1.01614
1.01611
1.01604
1.01594
1.01583
1.01574
1.01564
1.01558
1.01545
0.884919
0.884894
0.884867
0.884843
0.88482
0.884832
0.884873
0.884968
0.885136
0.88541
0.885811
0.886399
0.887197
0.8883
0.88972
0.891606
0.893909
0.89688
0.90034
0.904676
0.909515
0.915335
0.921602
0.928806
0.936314
0.944578
0.952865
0.961525
0.970107
0.978328
0.986502
0.993821
1.00048
1.00506
1.00857
1.01071
1.01226
1.01315
1.01397
1.01437
1.01464
1.01423
1.0132
1.01248
1.01281
1.01332
1.01411
1.01518
1.01607
1.01663
1.01655
1.01614
1.01551
1.01461
1.01414
1.01387
1.01403
1.01473
1.01554
1.01582
1.01574
1.01534
1.01492
1.01453
1.01475
1.01529
1.01576
1.01576
1.01551
1.01523
1.01505
1.01525
1.01547
1.01546
1.01535
1.01522
1.01524
1.01532
1.01531
1.01524
1.01517
1.01518
1.01518
1.01515
1.01512
1.01508
1.01504
1.015
1.01496
1.01498
1.01502
1.01506
1.01504
1.01498
1.01491
1.01484
1.0148
1.01478
1.01474
1.01463
0.88366
0.88363
0.883597
0.883562
0.883526
0.883485
0.88344
0.883398
0.883359
0.883319
0.883278
0.883237
0.883196
0.883164
0.883133
0.883139
0.88319
0.883308
0.883515
0.88386
0.884383
0.885198
0.886346
0.888069
0.890348
0.893619
0.897655
0.90318
0.909523
0.917621
0.92627
0.936516
0.946828
0.957155
0.96706
0.97533
0.983125
0.988493
0.993932
0.996816
0.999867
1.0016
1.00353
1.00577
1.00896
1.01122
1.01303
1.01387
1.0141
1.01399
1.01347
1.01247
1.01144
1.01022
1.01016
1.01065
1.01152
1.01229
1.01273
1.01259
1.01208
1.01156
1.01132
1.01167
1.01221
1.01262
1.01279
1.01258
1.01228
1.01214
1.01238
1.01267
1.01285
1.01275
1.01259
1.01259
1.01266
1.01274
1.01274
1.01275
1.01279
1.01287
1.0129
1.01289
1.01289
1.0129
1.01291
1.01293
1.01296
1.01303
1.0131
1.01313
1.01315
1.01316
1.01317
1.01317
1.01317
1.01316
1.01314
1.01311
0.882252
0.882231
0.882209
0.882185
0.882161
0.882135
0.882107
0.882076
0.882041
0.882004
0.881967
0.881929
0.881892
0.881854
0.881818
0.881785
0.881736
0.881689
0.881644
0.881598
0.881554
0.881517
0.881477
0.88148
0.88151
0.881635
0.881888
0.882371
0.883158
0.884522
0.886525
0.889803
0.89419
0.900817
0.908726
0.9193
0.930457
0.943128
0.955465
0.967125
0.978034
0.986653
0.995058
1.00012
1.00349
1.0053
1.00711
1.00808
1.00867
1.00804
1.00649
1.00651
1.00699
1.00792
1.00892
1.00969
1.00978
1.00947
1.00901
1.00856
1.00838
1.00859
1.00922
1.00982
1.00991
1.00974
1.00948
1.0093
1.00938
1.00964
1.00995
1.00996
1.00994
1.00995
1.01
1.01008
1.01016
1.01015
1.01018
1.01025
1.01033
1.01042
1.01043
1.01043
1.01047
1.01054
1.01061
1.01067
1.01074
1.01084
1.01091
1.01096
1.01101
1.01107
1.01113
1.01116
1.01118
1.01121
1.01122
1.01125
0.881088
0.881073
0.881057
0.88104
0.881022
0.881004
0.880986
0.880967
0.880948
0.880929
0.880908
0.880887
0.880864
0.88084
0.880815
0.880789
0.880763
0.880731
0.880699
0.880668
0.880639
0.88061
0.880584
0.880559
0.880549
0.880516
0.880476
0.880437
0.880405
0.88039
0.880408
0.880485
0.880702
0.881209
0.882152
0.884023
0.886961
0.892131
0.898972
0.90922
0.920621
0.934615
0.948507
0.96147
0.97318
0.981039
0.988491
0.992081
0.996125
0.998012
1.00094
1.00378
1.00697
1.00887
1.00961
1.00948
1.00886
1.00763
1.0059
1.00597
1.00644
1.00742
1.00853
1.00873
1.00848
1.00795
1.00724
1.0073
1.00767
1.00808
1.0084
1.00831
1.0081
1.00803
1.00815
1.00828
1.00834
1.00828
1.0083
1.00839
1.00851
1.00861
1.0086
1.00858
1.00862
1.00868
1.00875
1.00884
1.00895
1.00904
1.00907
1.00909
1.00913
1.00922
1.00931
1.00938
1.00942
1.00946
1.00947
1.00953
0.880327
0.880318
0.880308
0.880298
0.880287
0.880277
0.880265
0.880254
0.880242
0.88023
0.880218
0.880206
0.880194
0.880182
0.880169
0.880155
0.880142
0.880128
0.880114
0.880099
0.880084
0.880067
0.880049
0.880031
0.880011
0.879991
0.879971
0.879951
0.879932
0.879917
0.879904
0.879911
0.879887
0.879856
0.879834
0.87985
0.879914
0.880131
0.88064
0.881868
0.884083
0.888506
0.894888
0.90536
0.917623
0.933244
0.948563
0.963341
0.976927
0.987349
0.997126
1.00155
1.00457
1.00623
1.00735
1.00673
1.00491
1.00431
1.00483
1.00603
1.00719
1.00788
1.00789
1.0074
1.00656
1.00621
1.00629
1.00679
1.00733
1.00731
1.00722
1.00705
1.00709
1.00725
1.00741
1.00739
1.00732
1.00729
1.00736
1.00745
1.00749
1.00751
1.00751
1.00752
1.00755
1.0076
1.00766
1.00773
1.00784
1.0079
1.0079
1.00788
1.00792
1.008
1.00809
1.00816
1.00818
1.0082
1.00822
1.00827
0.879911
0.879905
0.879899
0.879893
0.879886
0.879879
0.879872
0.879864
0.879857
0.879849
0.879842
0.879834
0.879825
0.879817
0.879808
0.8798
0.879791
0.879783
0.879774
0.879765
0.879756
0.879747
0.879739
0.879729
0.879719
0.879708
0.879698
0.879688
0.879676
0.879664
0.879653
0.87964
0.87963
0.879621
0.879615
0.879609
0.879611
0.879593
0.879564
0.879565
0.879595
0.879719
0.88011
0.881187
0.883335
0.888041
0.895135
0.907195
0.921035
0.938449
0.955117
0.969287
0.982038
0.988323
0.995129
0.997476
1.00073
1.00378
1.00695
1.0087
1.00861
1.00828
1.00674
1.00522
1.00533
1.00573
1.00655
1.00746
1.00742
1.0071
1.00642
1.00644
1.0067
1.007
1.00711
1.00701
1.00684
1.00688
1.00703
1.00716
1.00711
1.00702
1.00702
1.00705
1.00707
1.00708
1.00713
1.00725
1.00733
1.00733
1.00728
1.00724
1.00727
1.00734
1.00744
1.00751
1.0075
1.00747
1.00749
1.00753
0.879696
0.879691
0.879686
0.879681
0.879676
0.879671
0.879665
0.879658
0.879652
0.879646
0.87964
0.879633
0.879626
0.879618
0.879611
0.879604
0.879597
0.879591
0.879583
0.879575
0.879567
0.87956
0.879552
0.879545
0.879538
0.879532
0.879526
0.879519
0.879511
0.879504
0.879498
0.879493
0.879487
0.87948
0.879474
0.879468
0.879455
0.879449
0.879447
0.879444
0.87944
0.879452
0.879435
0.879437
0.879467
0.879627
0.880107
0.881513
0.884337
0.890624
0.899825
0.915106
0.932103
0.951212
0.969045
0.983007
0.996259
1.00201
1.00538
1.0072
1.00716
1.00552
1.00385
1.00442
1.00588
1.0071
1.00753
1.00745
1.00693
1.00615
1.00614
1.00647
1.00698
1.00698
1.00686
1.00664
1.00667
1.00688
1.00699
1.00696
1.00689
1.00682
1.00685
1.00689
1.00692
1.00692
1.00697
1.00706
1.00711
1.00709
1.00703
1.00698
1.00699
1.00704
1.00712
1.00718
1.00717
1.00713
1.00713
1.00716
0.879575
0.87957
0.879566
0.879561
0.879557
0.879552
0.879545
0.879539
0.879534
0.879529
0.879522
0.879515
0.879508
0.8795
0.879492
0.879485
0.879479
0.879471
0.879464
0.879455
0.879446
0.879437
0.879429
0.879421
0.879414
0.879408
0.879403
0.879397
0.879392
0.879388
0.879384
0.879381
0.879377
0.879374
0.87937
0.879366
0.87936
0.879356
0.879356
0.879356
0.879353
0.879355
0.879359
0.879363
0.87937
0.879356
0.879354
0.879369
0.879451
0.879766
0.880622
0.883063
0.887789
0.897975
0.911507
0.931161
0.950926
0.968198
0.983064
0.990201
0.996571
0.998931
1.00358
1.00638
1.00851
1.00843
1.00803
1.00664
1.00542
1.00557
1.00625
1.0072
1.00721
1.00695
1.00641
1.00644
1.00675
1.00707
1.00704
1.00689
1.00671
1.00674
1.00682
1.00682
1.00683
1.00687
1.00697
1.00703
1.00702
1.00696
1.0069
1.00687
1.00687
1.00692
1.00698
1.00704
1.00701
1.00698
1.00698
1.00699
0.879491
0.879487
0.879483
0.879479
0.879474
0.879469
0.879464
0.879458
0.879453
0.879447
0.87944
0.879433
0.879426
0.879418
0.87941
0.879403
0.879395
0.879387
0.879379
0.87937
0.879362
0.879353
0.879342
0.87933
0.879323
0.879317
0.879312
0.879306
0.879302
0.879298
0.879294
0.87929
0.879289
0.87929
0.879292
0.879295
0.879299
0.879304
0.879309
0.879317
0.879326
0.879329
0.879332
0.879331
0.879323
0.879318
0.879312
0.879307
0.879289
0.879273
0.87928
0.879337
0.879561
0.880384
0.882422
0.887912
0.897146
0.914064
0.933836
0.955295
0.975364
0.989987
1.00136
1.00452
1.00716
1.00682
1.00513
1.00451
1.00526
1.00648
1.00748
1.00746
1.00696
1.00611
1.00614
1.00657
1.00706
1.00706
1.00685
1.00662
1.00665
1.00679
1.00684
1.0068
1.0068
1.00687
1.00698
1.00698
1.00695
1.00687
1.00684
1.00681
1.00683
1.00686
1.00688
1.00692
1.00692
1.0069
1.00691
1.00691
0.879404
0.8794
0.879395
0.879391
0.879386
0.879381
0.879376
0.87937
0.879365
0.879358
0.879351
0.879345
0.879338
0.879329
0.879322
0.879314
0.879307
0.879299
0.879291
0.879283
0.879275
0.879266
0.879256
0.879246
0.879238
0.879233
0.879228
0.879223
0.87922
0.879219
0.879219
0.87922
0.879224
0.879229
0.879238
0.879248
0.879259
0.87927
0.879282
0.879296
0.879313
0.879323
0.879323
0.87932
0.879311
0.879295
0.879273
0.879246
0.879217
0.879186
0.879161
0.879148
0.879145
0.879154
0.879214
0.879478
0.880292
0.882952
0.888623
0.901407
0.918763
0.941735
0.964329
0.978489
0.992278
0.995618
1.00008
1.00343
1.00743
1.00834
1.00808
1.00686
1.00541
1.00557
1.00633
1.0073
1.00722
1.00681
1.00637
1.00646
1.00679
1.00684
1.00678
1.00671
1.00678
1.00695
1.007
1.00694
1.00682
1.00677
1.00678
1.00678
1.00681
1.00682
1.00681
1.00681
1.00683
1.00684
1.00687
1.00686
0.879294
0.879289
0.879285
0.879281
0.879276
0.879271
0.879266
0.87926
0.879254
0.879248
0.879242
0.879236
0.879229
0.879223
0.879216
0.87921
0.879203
0.879197
0.87919
0.879184
0.879178
0.879172
0.879165
0.879154
0.879149
0.879151
0.87915
0.879148
0.879149
0.879152
0.879157
0.879164
0.879173
0.879184
0.879194
0.879205
0.879218
0.879232
0.879246
0.87926
0.879274
0.879287
0.879293
0.879294
0.879289
0.879275
0.87925
0.879214
0.879171
0.879122
0.879075
0.879054
0.879048
0.879041
0.879038
0.879044
0.879082
0.879196
0.879521
0.880788
0.883982
0.893083
0.907404
0.930693
0.954986
0.975338
0.994585
1.00114
1.00585
1.0065
1.00528
1.00399
1.00482
1.00637
1.00755
1.00744
1.00666
1.00601
1.00613
1.00668
1.00694
1.00682
1.00657
1.00662
1.00687
1.00697
1.00692
1.00677
1.0067
1.0067
1.00672
1.00674
1.00676
1.00676
1.00673
1.00671
1.00673
1.00677
1.00682
1.00681
0.879187
0.879186
0.879185
0.879182
0.87918
0.879177
0.879175
0.879172
0.879168
0.879165
0.879162
0.879158
0.879155
0.879152
0.879148
0.879144
0.87914
0.879135
0.87913
0.879126
0.879121
0.879117
0.879111
0.879102
0.8791
0.879103
0.879102
0.879099
0.879099
0.879101
0.879105
0.879114
0.879122
0.879129
0.879136
0.879145
0.879157
0.879171
0.879187
0.879204
0.879219
0.879229
0.879238
0.879245
0.879247
0.879241
0.879224
0.879194
0.879153
0.879102
0.879042
0.878986
0.878961
0.878957
0.878957
0.87896
0.878974
0.879018
0.879069
0.879109
0.879218
0.879776
0.881578
0.887942
0.899558
0.922015
0.946818
0.967847
0.986592
0.992446
0.997791
1.00165
1.00696
1.00832
1.00804
1.00654
1.00527
1.00554
1.00648
1.00705
1.00683
1.00642
1.00645
1.00675
1.00702
1.00695
1.00671
1.0066
1.00661
1.00663
1.00666
1.00669
1.0067
1.00668
1.00662
1.0066
1.00664
1.0067
1.00675
1.00674
0.879123
0.879125
0.879127
0.879129
0.879131
0.879133
0.879135
0.879136
0.879137
0.879138
0.87914
0.879142
0.879144
0.879144
0.879145
0.879144
0.879144
0.879142
0.87914
0.879136
0.879132
0.879127
0.879121
0.879114
0.879107
0.879101
0.879094
0.879086
0.879077
0.879067
0.87906
0.879059
0.879058
0.879057
0.879058
0.879061
0.879068
0.879077
0.879091
0.879108
0.879125
0.879143
0.87916
0.879177
0.879187
0.879188
0.879182
0.879164
0.879137
0.879101
0.879048
0.87898
0.878919
0.878889
0.878886
0.878888
0.878893
0.878923
0.878976
0.879025
0.879027
0.879008
0.879001
0.879235
0.880314
0.88497
0.894678
0.915909
0.940836
0.96549
0.98922
0.998837
1.00498
1.00631
1.00486
1.00392
1.00507
1.00668
1.00718
1.00684
1.00596
1.00602
1.00656
1.00697
1.00692
1.00663
1.00646
1.0065
1.00654
1.00655
1.00657
1.00662
1.00662
1.00657
1.00651
1.00651
1.00655
1.00661
1.00666
1.00665
0.879064
0.879069
0.879074
0.87908
0.879086
0.879092
0.879097
0.879103
0.87911
0.879117
0.879123
0.879129
0.879135
0.87914
0.879145
0.87915
0.879155
0.879155
0.879155
0.879153
0.879151
0.879146
0.879138
0.87913
0.879121
0.879111
0.879099
0.879085
0.879067
0.879048
0.87903
0.879011
0.878994
0.87898
0.878971
0.878967
0.878966
0.878967
0.878972
0.878979
0.878987
0.878997
0.879013
0.879038
0.879071
0.879102
0.879116
0.879116
0.879108
0.87909
0.879057
0.879002
0.878928
0.87886
0.878826
0.878819
0.878819
0.87883
0.87887
0.878938
0.878963
0.878956
0.878946
0.878877
0.878804
0.878932
0.879694
0.883356
0.891796
0.911991
0.937259
0.962117
0.983168
0.991269
0.99727
1.00204
1.00769
1.00821
1.00743
1.00536
1.00541
1.00612
1.00712
1.00704
1.00649
1.00625
1.00633
1.00651
1.0065
1.00648
1.0065
1.00655
1.00652
1.00646
1.0064
1.00642
1.00646
1.00652
1.00657
1.00655
0.878997
0.879003
0.87901
0.879016
0.879023
0.879031
0.879039
0.879047
0.879056
0.879065
0.879073
0.879082
0.879091
0.879099
0.879107
0.879115
0.879122
0.879129
0.879134
0.879137
0.879137
0.879135
0.87913
0.879122
0.879114
0.879105
0.879094
0.87908
0.879061
0.879039
0.879013
0.878984
0.878955
0.878928
0.878904
0.878883
0.87887
0.878864
0.878861
0.87886
0.87886
0.878862
0.87887
0.878889
0.878924
0.87897
0.879018
0.879051
0.879061
0.879059
0.879046
0.879013
0.878955
0.878877
0.878798
0.878753
0.878741
0.878741
0.878755
0.878807
0.878887
0.878916
0.87891
0.878881
0.878818
0.878727
0.878712
0.878819
0.879456
0.882594
0.890381
0.910204
0.935358
0.962654
0.988366
0.999138
1.00592
1.00611
1.00338
1.00396
1.00577
1.00724
1.00717
1.00645
1.00582
1.00603
1.00644
1.00646
1.00641
1.00639
1.00647
1.00647
1.00641
1.00631
1.00631
1.00635
1.00639
1.00642
1.00647
1.00645
0.878926
0.878932
0.878938
0.878944
0.87895
0.878957
0.878965
0.878973
0.878981
0.87899
0.878998
0.879007
0.879016
0.879025
0.879034
0.879043
0.879051
0.879059
0.879067
0.879074
0.87908
0.879082
0.879079
0.879073
0.879067
0.879061
0.879053
0.879044
0.879032
0.879015
0.878995
0.878972
0.878945
0.878916
0.878886
0.878854
0.878823
0.878796
0.878776
0.878766
0.878763
0.878762
0.878765
0.878774
0.878796
0.878834
0.878888
0.878951
0.878996
0.879009
0.879006
0.878992
0.878957
0.878896
0.87881
0.878718
0.878664
0.878655
0.878658
0.878684
0.878753
0.878849
0.878891
0.878889
0.878863
0.878795
0.87871
0.878688
0.878699
0.878826
0.879418
0.882257
0.889919
0.909697
0.936426
0.963239
0.983965
0.992814
0.997942
1.00499
1.00804
1.00781
1.00619
1.00524
1.00568
1.00653
1.00657
1.00637
1.00623
1.00634
1.00647
1.0064
1.00621
1.00621
1.00627
1.00633
1.00633
1.00634
1.00637
1.00635
0.878839
0.878841
0.878843
0.878846
0.878848
0.878852
0.878855
0.87886
0.878865
0.87887
0.878876
0.878883
0.87889
0.878897
0.878906
0.878915
0.878924
0.878935
0.878947
0.878961
0.878978
0.878997
0.87901
0.879012
0.879009
0.879004
0.879003
0.878999
0.878992
0.878985
0.878978
0.878969
0.878957
0.878939
0.878916
0.878886
0.878848
0.878804
0.87876
0.878725
0.878705
0.878696
0.878695
0.878698
0.878705
0.878721
0.878754
0.878807
0.878876
0.878932
0.878946
0.87894
0.878919
0.878882
0.878821
0.878728
0.878631
0.878588
0.878585
0.878598
0.878647
0.87874
0.878845
0.878886
0.878884
0.878854
0.878774
0.878694
0.878672
0.878686
0.878731
0.878861
0.879395
0.882178
0.89056
0.911398
0.938727
0.968372
0.992074
1.00257
1.00643
1.00499
1.00311
1.0047
1.00667
1.00677
1.00644
1.00588
1.00609
1.00646
1.00643
1.00615
1.00608
1.00619
1.00627
1.00628
1.00628
1.00629
1.00628
1.00625
0.878749
0.878747
0.878746
0.878744
0.878742
0.87874
0.87874
0.87874
0.878739
0.878739
0.87874
0.878743
0.878747
0.878751
0.878755
0.87876
0.878766
0.878775
0.878786
0.878801
0.87882
0.878842
0.878868
0.878896
0.878923
0.878942
0.878951
0.878953
0.878954
0.878957
0.878964
0.87897
0.878972
0.878972
0.878967
0.878954
0.87893
0.878895
0.878847
0.87879
0.878733
0.878686
0.878656
0.878643
0.878639
0.878639
0.878645
0.878666
0.878704
0.87876
0.878817
0.878848
0.878853
0.878842
0.878813
0.878757
0.878667
0.878579
0.878552
0.878558
0.878591
0.878658
0.878758
0.878848
0.87887
0.878863
0.878815
0.878721
0.878658
0.878651
0.878671
0.878726
0.878762
0.878848
0.87943
0.882486
0.892351
0.914281
0.944759
0.971093
0.987822
0.995647
1.00127
1.00765
1.00763
1.00678
1.00533
1.00569
1.00659
1.00657
1.00615
1.00592
1.00605
1.00628
1.00627
1.00623
1.00625
1.00625
1.00619
1.00617
0.878679
0.878677
0.878675
0.878674
0.878673
0.878671
0.878667
0.878665
0.878664
0.878663
0.878663
0.878664
0.878664
0.878664
0.878664
0.878666
0.878668
0.878671
0.878678
0.878688
0.878699
0.878714
0.878733
0.878757
0.878786
0.878818
0.878852
0.878888
0.878921
0.878944
0.878959
0.878969
0.878977
0.878979
0.878979
0.878979
0.878974
0.878957
0.878925
0.87888
0.878822
0.878753
0.878681
0.878624
0.878597
0.878586
0.878579
0.878574
0.878575
0.878589
0.878621
0.878672
0.878733
0.878781
0.878795
0.878791
0.878755
0.878683
0.878609
0.878582
0.878589
0.878618
0.878673
0.878753
0.87882
0.878828
0.878806
0.87874
0.878657
0.878632
0.878641
0.878688
0.878762
0.878771
0.878768
0.878852
0.879622
0.883278
0.895744
0.919759
0.95035
0.982084
0.997992
1.006
1.00576
1.00333
1.00454
1.00669
1.00695
1.00642
1.00559
1.0058
1.00633
1.00632
1.00621
1.00619
1.00625
1.00622
1.00611
1.00612
0.878681
0.878674
0.878667
0.878661
0.878656
0.87865
0.878645
0.878638
0.878632
0.878629
0.878626
0.878625
0.878624
0.878625
0.878626
0.878626
0.878626
0.878628
0.878631
0.878635
0.87864
0.878647
0.878657
0.878669
0.878685
0.878703
0.878727
0.878757
0.878795
0.878838
0.878879
0.878915
0.878944
0.878964
0.878974
0.878975
0.878972
0.87896
0.878936
0.878903
0.87886
0.878806
0.87874
0.878671
0.878608
0.878566
0.878547
0.878534
0.878523
0.878513
0.878513
0.878533
0.878592
0.878692
0.878785
0.878821
0.87882
0.878797
0.878746
0.878687
0.87864
0.878623
0.878626
0.878649
0.878704
0.878758
0.878764
0.878739
0.878683
0.87864
0.878642
0.878673
0.878739
0.878778
0.878779
0.878748
0.878732
0.87886
0.880025
0.884738
0.900431
0.927798
0.958908
0.983516
0.993042
0.999127
1.00709
1.00784
1.00688
1.00507
1.00539
1.00639
1.00655
1.00627
1.0061
1.00622
1.00629
1.00618
1.00604
1.00611
0.878822
0.878814
0.878804
0.878795
0.878784
0.878772
0.878761
0.87875
0.878739
0.878726
0.878711
0.878695
0.878679
0.878665
0.878654
0.878644
0.878636
0.878628
0.87862
0.878613
0.878606
0.878601
0.878599
0.878599
0.878599
0.8786
0.878603
0.87861
0.878622
0.87864
0.878667
0.878702
0.878746
0.878793
0.878832
0.878858
0.878876
0.878887
0.878884
0.878868
0.878839
0.878803
0.878768
0.878732
0.878691
0.878645
0.878599
0.878554
0.878516
0.878495
0.878486
0.878491
0.878527
0.878613
0.878734
0.878823
0.878837
0.878825
0.8788
0.878768
0.878716
0.878643
0.878602
0.878598
0.87861
0.878657
0.878719
0.878736
0.878726
0.878697
0.878684
0.878694
0.878723
0.878754
0.878754
0.87873
0.878683
0.878656
0.878679
0.878932
0.880689
0.887598
0.907784
0.937396
0.971419
0.994105
1.00527
1.00574
1.00278
1.00395
1.00639
1.00695
1.00648
1.0058
1.00602
1.00634
1.00626
1.00596
1.00597
1.00617
0.878936
0.87893
0.878923
0.878914
0.878904
0.878894
0.878885
0.878877
0.878866
0.878855
0.878842
0.878825
0.878807
0.878788
0.878769
0.878746
0.87872
0.878693
0.878665
0.878639
0.878613
0.878588
0.878562
0.878541
0.878525
0.878513
0.878502
0.878492
0.878484
0.878479
0.878478
0.878482
0.878499
0.878534
0.878577
0.878619
0.878657
0.878694
0.87873
0.878757
0.878763
0.878761
0.878768
0.878783
0.878794
0.878794
0.878777
0.878739
0.878682
0.878612
0.878549
0.878519
0.878527
0.878574
0.878652
0.878744
0.878805
0.878803
0.878789
0.878775
0.878749
0.878686
0.878605
0.878576
0.87858
0.878614
0.878688
0.878751
0.878765
0.878762
0.878744
0.878722
0.878713
0.878705
0.878694
0.878671
0.878643
0.878625
0.878626
0.878639
0.878702
0.879188
0.881916
0.892502
0.917109
0.950313
0.977336
0.99148
0.997689
1.00641
1.00779
1.00688
1.00526
1.00566
1.0065
1.00646
1.00598
1.00584
1.00602
1.00629
0.87891
0.878911
0.87891
0.878901
0.878896
0.878895
0.878892
0.878885
0.878875
0.878867
0.878861
0.878855
0.878849
0.878844
0.878835
0.878819
0.878794
0.878762
0.878725
0.878688
0.878653
0.87862
0.878584
0.878545
0.878506
0.878474
0.878451
0.878435
0.878425
0.878414
0.878402
0.878403
0.878414
0.878433
0.878455
0.87848
0.878507
0.878538
0.878574
0.878617
0.878668
0.878723
0.878776
0.878823
0.878855
0.878878
0.87889
0.878881
0.878835
0.878763
0.878692
0.878618
0.878567
0.87857
0.878587
0.878617
0.878654
0.878689
0.878727
0.878747
0.878746
0.878723
0.878666
0.878613
0.878605
0.878624
0.878683
0.878753
0.87878
0.87878
0.878769
0.878733
0.87869
0.878648
0.878621
0.87861
0.878612
0.878618
0.878636
0.878666
0.878719
0.878736
0.878845
0.879704
0.884292
0.900279
0.928623
0.964755
0.991001
1.00466
1.00575
1.00282
1.00421
1.00655
1.00677
1.00619
1.00551
1.00576
1.00631
1.00636
0.878731
0.878741
0.878749
0.878751
0.878751
0.878752
0.878757
0.878767
0.87878
0.878796
0.878808
0.87881
0.87881
0.87881
0.878811
0.878811
0.878804
0.878786
0.878763
0.87874
0.878721
0.878701
0.878678
0.878653
0.878626
0.878594
0.878563
0.878538
0.878525
0.878517
0.878509
0.878496
0.878482
0.878478
0.878479
0.878478
0.878478
0.878489
0.878517
0.878551
0.878599
0.878678
0.878755
0.878809
0.878853
0.878881
0.878895
0.878887
0.87884
0.878778
0.878739
0.878701
0.878627
0.87856
0.87855
0.878546
0.878545
0.878559
0.878609
0.878683
0.878735
0.878763
0.878761
0.87873
0.878708
0.87871
0.878717
0.878733
0.878762
0.87877
0.87876
0.878725
0.87867
0.878616
0.878592
0.878591
0.878605
0.878646
0.878688
0.87871
0.878724
0.878721
0.878694
0.878671
0.878877
0.8806
0.888848
0.910473
0.944932
0.975382
0.990282
0.9975
1.00666
1.0075
1.00663
1.00508
1.00544
1.00637
1.00651
1.00633
0.878453
0.878481
0.878513
0.878545
0.878572
0.878594
0.878613
0.878631
0.87865
0.87867
0.878692
0.878716
0.878733
0.878753
0.878786
0.878809
0.87882
0.878831
0.878834
0.878834
0.878838
0.878838
0.878824
0.878811
0.878809
0.878801
0.878794
0.878794
0.878808
0.87882
0.87882
0.878812
0.878795
0.878764
0.87873
0.8787
0.878655
0.878595
0.878558
0.87855
0.878557
0.878593
0.878654
0.878716
0.878749
0.87876
0.878774
0.878773
0.878735
0.878697
0.878707
0.878718
0.878689
0.8786
0.878553
0.87854
0.878519
0.878518
0.878557
0.878637
0.878732
0.878799
0.878808
0.87879
0.878778
0.878771
0.878737
0.87868
0.878664
0.878662
0.878663
0.878659
0.878647
0.878611
0.878597
0.878608
0.878648
0.878709
0.878723
0.878724
0.878716
0.878676
0.878606
0.878517
0.878503
0.878568
0.879213
0.882742
0.897309
0.9248
0.962062
0.99059
1.00474
1.00541
1.00278
1.00405
1.00632
1.00681
1.00649
1.00614
0.87835
0.878385
0.87842
0.878456
0.878496
0.878537
0.878575
0.878612
0.878648
0.878686
0.878722
0.878752
0.87878
0.878814
0.878866
0.878915
0.878937
0.878946
0.878947
0.878937
0.87893
0.878923
0.878897
0.878866
0.878854
0.878846
0.878845
0.878854
0.878876
0.878906
0.878921
0.87892
0.878914
0.878904
0.878892
0.878861
0.878793
0.878713
0.878621
0.878552
0.878544
0.87855
0.878572
0.878585
0.878577
0.878546
0.878529
0.878531
0.878542
0.87856
0.87863
0.878708
0.878721
0.878708
0.878708
0.878709
0.878678
0.878636
0.878616
0.878638
0.878721
0.87879
0.878792
0.878779
0.878778
0.878775
0.878723
0.878613
0.878554
0.878552
0.878565
0.878598
0.878639
0.878669
0.878681
0.878697
0.878725
0.878733
0.878729
0.878708
0.878649
0.87856
0.878503
0.878464
0.87847
0.8785
0.878562
0.878791
0.880285
0.887493
0.908968
0.943918
0.974285
0.990594
0.998046
1.00645
1.00744
1.00671
1.00581
1.00613
0.878476
0.878488
0.8785
0.878522
0.878544
0.878558
0.878582
0.878619
0.878658
0.878698
0.878734
0.878766
0.878796
0.878827
0.878862
0.878881
0.878883
0.878879
0.878867
0.878838
0.878821
0.878824
0.878821
0.878784
0.878733
0.878723
0.878742
0.878747
0.878746
0.878762
0.87881
0.878829
0.878827
0.878849
0.878885
0.878887
0.878845
0.878757
0.878667
0.878574
0.878527
0.878524
0.878518
0.878494
0.878459
0.878429
0.878427
0.878446
0.878492
0.878563
0.878655
0.878733
0.878761
0.878784
0.878832
0.878863
0.87885
0.878798
0.878724
0.878708
0.878737
0.878733
0.878704
0.87869
0.878696
0.878697
0.878658
0.878578
0.878521
0.878519
0.87854
0.878598
0.878695
0.878745
0.878755
0.878758
0.878751
0.878724
0.878672
0.878597
0.878523
0.878471
0.878466
0.878471
0.878513
0.878591
0.878658
0.87868
0.878739
0.87921
0.882515
0.896511
0.924913
0.964455
0.990974
1.00549
1.00519
1.00383
1.00519
1.00652
0.878528
0.878515
0.878516
0.878531
0.878551
0.878568
0.878574
0.878568
0.878553
0.878534
0.878537
0.878552
0.878559
0.878577
0.878597
0.878608
0.878611
0.878603
0.878578
0.878535
0.878472
0.878418
0.878414
0.87841
0.878365
0.878349
0.878353
0.878311
0.878267
0.878261
0.878288
0.878319
0.878336
0.878385
0.878501
0.878569
0.878584
0.87858
0.878585
0.878612
0.878647
0.878667
0.878651
0.878611
0.878572
0.878521
0.878512
0.878566
0.878645
0.878674
0.878694
0.878728
0.87876
0.87879
0.878846
0.878884
0.878881
0.878853
0.878805
0.878761
0.878708
0.878625
0.878535
0.878518
0.878529
0.878558
0.878573
0.87857
0.878572
0.878596
0.878654
0.878722
0.878763
0.87877
0.878769
0.878764
0.878722
0.878625
0.878508
0.878444
0.878426
0.878438
0.878468
0.878539
0.878625
0.878678
0.878696
0.878674
0.878596
0.878532
0.878686
0.880101
0.887993
0.910234
0.945384
0.980877
0.990704
1.00023
1.00687
1.00665
0.878371
0.878329
0.878304
0.878283
0.878261
0.878256
0.878248
0.878244
0.878251
0.878263
0.87827
0.878282
0.878301
0.878317
0.878334
0.878343
0.878337
0.878329
0.878314
0.878282
0.878227
0.878167
0.878154
0.878158
0.87815
0.878155
0.878162
0.878133
0.878067
0.878031
0.878016
0.878017
0.878046
0.87813
0.878234
0.878318
0.878401
0.878523
0.878696
0.87879
0.878824
0.878827
0.878791
0.878727
0.878704
0.878714
0.878748
0.87884
0.878875
0.878848
0.878738
0.878714
0.878714
0.878714
0.878725
0.878707
0.878659
0.878615
0.878627
0.878633
0.87859
0.878503
0.878447
0.878449
0.878475
0.878525
0.878565
0.878623
0.878702
0.878789
0.878834
0.878825
0.878796
0.878761
0.878727
0.878675
0.878584
0.878476
0.87839
0.878393
0.878416
0.878488
0.878591
0.878679
0.878702
0.878705
0.878672
0.878575
0.87847
0.878437
0.878453
0.878536
0.879185
0.882852
0.899046
0.929799
0.968309
0.995292
1.0046
1.00439
0.878173
0.878043
0.877996
0.878
0.877998
0.87797
0.877947
0.877954
0.87799
0.878044
0.878096
0.878145
0.878186
0.87822
0.878254
0.878297
0.878361
0.878437
0.878477
0.878485
0.878485
0.878472
0.878431
0.878429
0.878493
0.878526
0.878525
0.878497
0.878459
0.878397
0.878285
0.878245
0.87826
0.878291
0.878319
0.878397
0.878588
0.878848
0.878913
0.878862
0.878825
0.878798
0.878718
0.878639
0.878624
0.878659
0.878795
0.878854
0.878856
0.878806
0.878642
0.878496
0.878459
0.878439
0.878391
0.878279
0.878192
0.878197
0.878263
0.878387
0.87845
0.878447
0.878442
0.87844
0.87847
0.878543
0.878639
0.878683
0.878765
0.878848
0.878853
0.87884
0.878761
0.878616
0.878504
0.878454
0.878422
0.878388
0.878376
0.878409
0.878522
0.878667
0.878717
0.878726
0.878714
0.878651
0.878539
0.878418
0.878409
0.878423
0.878509
0.878656
0.878674
0.878826
0.880555
0.889388
0.91717
0.952167
0.979919
0.997456
0.878649
0.878614
0.878605
0.878602
0.878609
0.878657
0.878672
0.878673
0.878702
0.878799
0.878962
0.87899
0.878977
0.879047
0.879191
0.879285
0.879418
0.879533
0.879618
0.879708
0.879741
0.879722
0.879707
0.879728
0.879828
0.879935
0.879954
0.879941
0.879848
0.879649
0.879321
0.879061
0.878968
0.878881
0.878825
0.87887
0.879053
0.879134
0.879127
0.879041
0.878824
0.878444
0.878182
0.878125
0.878145
0.87828
0.878548
0.878705
0.878712
0.87865
0.878503
0.878402
0.878382
0.878359
0.878287
0.878149
0.878091
0.878109
0.8782
0.878328
0.878463
0.878584
0.878658
0.878724
0.878803
0.878819
0.87877
0.878702
0.878677
0.878682
0.878673
0.878625
0.878526
0.878367
0.878294
0.878302
0.878362
0.878416
0.878535
0.878661
0.878766
0.878777
0.878768
0.878718
0.878604
0.878488
0.878397
0.878379
0.878403
0.878519
0.878648
0.878719
0.878695
0.878569
0.87858
0.879275
0.884718
0.903103
0.937363
0.985495
0.880482
0.880476
0.880471
0.880459
0.880435
0.880421
0.880416
0.880411
0.880414
0.880489
0.880614
0.880623
0.880595
0.880607
0.880723
0.880798
0.880835
0.880934
0.881026
0.88099
0.880841
0.880615
0.880455
0.880424
0.880468
0.880463
0.880373
0.880211
0.880059
0.879914
0.879762
0.879546
0.879114
0.878691
0.87858
0.878661
0.878913
0.879032
0.879038
0.878976
0.878796
0.878425
0.878151
0.8781
0.87811
0.87818
0.878309
0.878422
0.878427
0.878425
0.878451
0.878498
0.878539
0.878536
0.87848
0.878475
0.878508
0.87863
0.878731
0.878762
0.878766
0.878732
0.87875
0.878859
0.878911
0.878879
0.878728
0.878468
0.878263
0.878224
0.878233
0.87828
0.878282
0.878214
0.878163
0.878188
0.878329
0.878624
0.878823
0.878846
0.878815
0.87874
0.878622
0.878491
0.878386
0.878347
0.878351
0.878412
0.878576
0.87872
0.878724
0.878704
0.878579
0.878419
0.878368
0.878399
0.878792
0.881648
0.892787