/*--------------------------------*- C++ -*----------------------------------*\
  =========                 |
  \\      /  F ield         | OpenFOAM: The Open Source CFD Toolbox
   \\    /   O peration     | Website:  https://openfoam.org
    \\  /    A nd           | Version:  7
     \\/     M anipulation  |
\*---------------------------------------------------------------------------*/
FoamFile
{
    version     2.0;
    format      ascii;
    class       volScalarField;
    location    "8.7";
    object      rho;
}
// * * * * * * * * * * * * * * * * * * * * * * * * * * * * * * * * * * * * * //

dimensions      [1 -3 0 0 0 0 0];

internalField   nonuniform List<scalar> 
8400
(
0.235247
0.327391
0.431316
0.518322
0.599524
0.666365
0.715349
0.768706
0.791337
0.807398
0.833657
0.847901
0.856084
0.877685
0.900297
0.924402
0.952672
0.970241
0.971807
0.968997
0.971159
0.976737
0.991944
1.01384
1.03652
1.06128
1.08132
1.0946
1.10942
1.11805
0.156309
0.159113
0.169409
0.194815
0.235225
0.302709
0.389126
0.478948
0.578175
0.662269
0.733093
0.80201
0.840952
0.872247
0.883155
0.889064
0.885917
0.864781
0.833282
0.834764
0.856473
0.888671
0.921004
0.943297
0.961984
0.979247
0.98567
0.989572
0.999294
1.02459
0.170662
0.173
0.174702
0.176509
0.177227
0.175975
0.174635
0.180361
0.205897
0.25737
0.321202
0.416791
0.531931
0.63196
0.704377
0.750407
0.800425
0.79731
0.794077
0.804512
0.808208
0.817268
0.832651
0.849249
0.877338
0.900581
0.91149
0.916765
0.925963
0.948448
0.174346
0.17448
0.173824
0.171684
0.169694
0.168978
0.168889
0.169381
0.170601
0.170339
0.167626
0.165795
0.180313
0.220415
0.299452
0.404479
0.525287
0.656911
0.747288
0.802146
0.810823
0.810755
0.809263
0.812797
0.837719
0.855602
0.869335
0.881865
0.893954
0.910966
0.171329
0.170462
0.169131
0.166894
0.165054
0.16495
0.165564
0.167784
0.169715
0.169727
0.167325
0.166252
0.16813
0.17395
0.183053
0.18693
0.202127
0.266709
0.395423
0.560474
0.684805
0.765924
0.799254
0.824793
0.869482
0.861047
0.881239
0.902694
0.910774
0.919937
0.169378
0.168157
0.166299
0.164953
0.164993
0.165331
0.167084
0.171885
0.180243
0.189599
0.19041
0.190298
0.193139
0.199827
0.212271
0.223252
0.224437
0.22245
0.223227
0.24309
0.321099
0.453782
0.623712
0.756115
0.822147
0.864484
0.928158
0.957417
0.947522
0.948764
0.176335
0.178892
0.182864
0.187966
0.193225
0.198221
0.203876
0.210477
0.216164
0.223255
0.229125
0.231466
0.231414
0.230814
0.233118
0.241727
0.244138
0.246068
0.253196
0.268266
0.277728
0.280504
0.30363
0.389373
0.519425
0.698537
0.841506
0.915956
0.979875
1.04353
0.218132
0.223131
0.228362
0.233212
0.236919
0.238434
0.23931
0.240623
0.242586
0.245527
0.252398
0.257059
0.254393
0.253462
0.256574
0.267397
0.283659
0.297422
0.308473
0.319434
0.326836
0.327214
0.329134
0.331513
0.332944
0.357938
0.434661
0.613914
0.816665
0.996931
0.255831
0.2594
0.263417
0.267941
0.272197
0.272927
0.273877
0.276702
0.281625
0.286518
0.293111
0.303873
0.314652
0.322227
0.328069
0.335327
0.344162
0.348597
0.34871
0.350949
0.352904
0.351694
0.350772
0.354338
0.365109
0.381608
0.386772
0.390018
0.418815
0.637304
0.317148
0.31856
0.321139
0.325264
0.331357
0.339381
0.347916
0.353566
0.356136
0.357752
0.359651
0.364558
0.372303
0.37622
0.376574
0.376156
0.37717
0.376997
0.373269
0.373087
0.376939
0.385235
0.393026
0.39915
0.408398
0.415659
0.419759
0.422638
0.425464
0.429884
0.397077
0.398009
0.397951
0.397739
0.398618
0.401832
0.407193
0.413508
0.417413
0.417467
0.414873
0.412782
0.415007
0.420895
0.421959
0.422028
0.424302
0.431843
0.441495
0.447823
0.45259
0.456687
0.462169
0.464421
0.463045
0.458016
0.452105
0.452557
0.456386
0.468426
0.486744
0.490346
0.491553
0.489792
0.482653
0.478351
0.479721
0.485383
0.493607
0.497285
0.496938
0.494265
0.494374
0.497777
0.501794
0.502585
0.503592
0.507465
0.510706
0.510613
0.509276
0.506442
0.505503
0.506514
0.507478
0.50947
0.514139
0.520096
0.524763
0.526713
0.584889
0.593428
0.599014
0.599096
0.593918
0.581891
0.574694
0.573748
0.577393
0.581746
0.58141
0.578174
0.577094
0.577556
0.57721
0.572905
0.568359
0.566466
0.565204
0.563118
0.560731
0.560901
0.562039
0.562581
0.563552
0.566957
0.572218
0.576098
0.574995
0.569832
0.700492
0.706825
0.71309
0.714295
0.712458
0.701163
0.68676
0.681367
0.683362
0.685648
0.683875
0.676243
0.67178
0.67267
0.67281
0.668758
0.660881
0.65881
0.658966
0.658403
0.655775
0.651335
0.647631
0.645432
0.642248
0.636668
0.629886
0.622361
0.614893
0.610201
0.836036
0.840861
0.84804
0.848453
0.846789
0.838175
0.816925
0.802916
0.804419
0.80755
0.804801
0.792292
0.779217
0.778621
0.778449
0.773307
0.761465
0.753755
0.749249
0.744651
0.738652
0.731557
0.723941
0.718529
0.714108
0.708039
0.702543
0.697801
0.694414
0.688669
0.992814
0.993854
1.00302
1.00596
1.00305
0.991748
0.969024
0.948214
0.942961
0.945353
0.94291
0.926788
0.904147
0.901521
0.901294
0.894722
0.878495
0.865183
0.858362
0.851704
0.843333
0.833392
0.822317
0.81209
0.803207
0.794817
0.78637
0.779633
0.772802
0.757094
1.17192
1.1704
1.17911
1.18778
1.18439
1.16609
1.13644
1.11152
1.10051
1.1017
1.09908
1.08005
1.04747
1.04181
1.0406
1.03122
1.00974
0.99144
0.98026
0.970246
0.958542
0.943405
0.927752
0.914843
0.903313
0.890003
0.875633
0.861028
0.8473
0.825989
1.3768
1.3697
1.37516
1.38306
1.37892
1.35714
1.32709
1.29687
1.27512
1.27436
1.27185
1.2512
1.21079
1.19822
1.19486
1.18324
1.15726
1.13362
1.11674
1.10186
1.0862
1.06781
1.04698
1.02771
1.01069
0.993224
0.975404
0.957409
0.942702
0.917737
1.62288
1.59419
1.59111
1.59378
1.5902
1.5709
1.54192
1.50847
1.47309
1.46581
1.46049
1.4382
1.39286
1.37146
1.36341
1.34756
1.31915
1.29061
1.26596
1.24469
1.22423
1.20197
1.17701
1.15223
1.1299
1.10828
1.08558
1.06204
1.0421
1.00914
1.89861
1.87822
1.85671
1.8357
1.82179
1.80617
1.77929
1.74311
1.71363
1.69384
1.67447
1.64735
1.60187
1.57186
1.55315
1.52738
1.49439
1.46256
1.43239
1.40306
1.37566
1.34718
1.31744
1.28821
1.26061
1.23328
1.206
1.17809
1.15356
1.11359
2.05218
2.04547
2.03701
2.02713
2.01717
2.00861
1.9959
1.97639
1.95514
1.93104
1.90657
1.88093
1.84473
1.80827
1.77766
1.74287
1.7042
1.66508
1.62532
1.58659
1.5495
1.51336
1.47607
1.4398
1.40563
1.37138
1.33817
1.30463
1.2756
1.22779
2.05382
2.05177
2.04864
2.04903
2.04938
2.04931
2.04872
2.04432
2.04078
2.0384
2.0351
2.02752
2.01531
2.00118
1.98223
1.95567
1.92426
1.89065
1.85168
1.80849
1.7625
1.71523
1.66839
1.62112
1.57558
1.53133
1.48819
1.44629
1.41092
1.35302
1.95599
1.97785
1.98264
1.97707
1.97387
1.9859
2.00202
2.01467
2.02286
2.02149
2.02137
2.02739
2.02854
2.02478
2.02078
2.01939
2.01705
2.01154
2.00154
1.98421
1.95894
1.92651
1.88712
1.84073
1.78778
1.73227
1.67667
1.6207
1.57297
1.4974
1.64792
1.66924
1.68691
1.71156
1.73446
1.75357
1.78033
1.81674
1.84431
1.8623
1.88205
1.90934
1.94902
1.96156
1.96763
1.98139
1.99441
2.00365
2.00267
2.00091
1.99947
1.99714
1.99129
1.9795
1.95873
1.92753
1.88537
1.83224
1.77778
1.68104
1.43252
1.43894
1.44609
1.45452
1.46539
1.47666
1.4901
1.50945
1.5313
1.55607
1.58313
1.6121
1.64947
1.69303
1.72989
1.76976
1.81132
1.855
1.89044
1.91959
1.94268
1.96095
1.97722
1.97775
1.97692
1.97537
1.97031
1.95864
1.93972
1.87579
1.40092
1.40118
1.40154
1.40203
1.4027
1.40358
1.40471
1.40647
1.40902
1.41271
1.41757
1.42403
1.43269
1.44646
1.4637
1.48571
1.51459
1.55017
1.5945
1.64218
1.69788
1.75051
1.80678
1.85514
1.89259
1.92701
1.94407
1.95171
1.95315
1.94692
1.40001
1.40002
1.40002
1.40002
1.40003
1.40004
1.40006
1.40009
1.40013
1.40021
1.40033
1.40053
1.40086
1.40147
1.40251
1.4042
1.40716
1.41191
1.42008
1.43236
1.45151
1.47946
1.51628
1.5668
1.62539
1.6898
1.75709
1.81906
1.86565
1.90992
1.40001
1.40001
1.40001
1.40001
1.40001
1.40001
1.40001
1.40001
1.40001
1.40001
1.40001
1.40001
1.40001
1.40002
1.40003
1.40005
1.4001
1.4002
1.4004
1.40086
1.40181
1.40382
1.40779
1.41545
1.4293
1.45268
1.48853
1.54108
1.60139
1.71279
1.40001
1.40001
1.40001
1.40001
1.40001
1.40001
1.40001
1.40001
1.40001
1.40001
1.40001
1.40001
1.40001
1.40001
1.40001
1.40001
1.40001
1.40001
1.40001
1.40001
1.40002
1.40005
1.40011
1.4003
1.40078
1.40203
1.40499
1.41209
1.42444
1.47475
1.40001
1.40001
1.40001
1.40001
1.40001
1.40001
1.40001
1.40001
1.40001
1.40001
1.40001
1.40001
1.40001
1.40001
1.40001
1.40001
1.40001
1.40001
1.40001
1.40001
1.40001
1.40001
1.40001
1.40001
1.40001
1.40002
1.40007
1.40023
1.40065
1.40518
0.151634
0.153915
0.167773
0.172066
0.171854
0.171314
0.174761
0.214009
0.253696
0.31637
0.395883
0.483398
0.579797
0.697271
0.837467
1.00811
1.20471
1.42583
1.68015
1.93154
2.0584
2.0544
1.91704
1.61223
1.42524
1.40072
1.40001
1.40001
1.40001
1.40001
0.152347
0.154106
0.168273
0.169312
0.169477
0.173336
0.179951
0.220548
0.268024
0.337233
0.41377
0.498844
0.603729
0.73971
0.904571
1.09
1.29346
1.51416
1.75241
1.98314
2.06665
2.04594
1.86777
1.5597
1.41439
1.40029
1.40001
1.40001
1.40001
1.40001
0.151208
0.151993
0.167614
0.167115
0.166474
0.173461
0.185081
0.228827
0.283041
0.346321
0.42097
0.516008
0.650982
0.795824
0.957952
1.13867
1.33775
1.5561
1.7969
2.01255
2.06927
2.02788
1.82672
1.52249
1.40861
1.40014
1.40001
1.40001
1.40001
1.40001
0.150312
0.1521
0.16846
0.166021
0.163325
0.173684
0.193591
0.23953
0.292056
0.35092
0.437725
0.557052
0.688031
0.824581
0.981672
1.16336
1.3669
1.59332
1.84576
2.04041
2.07142
2.01441
1.7803
1.4861
1.40457
1.40007
1.40001
1.40001
1.40001
1.40001
0.150412
0.152499
0.170098
0.165625
0.161564
0.175296
0.199468
0.24231
0.295151
0.358664
0.461562
0.579364
0.699597
0.837457
0.996893
1.18485
1.40019
1.64851
1.91382
2.06611
2.07387
1.99919
1.71309
1.45637
1.40232
1.40003
1.40001
1.40001
1.40001
1.40001
0.150522
0.153568
0.171359
0.165055
0.160194
0.175047
0.200954
0.242808
0.297343
0.377289
0.48345
0.588088
0.702099
0.849386
1.02871
1.24545
1.4847
1.7393
1.97897
2.08148
2.076
1.96039
1.65138
1.43635
1.40116
1.40002
1.40001
1.40001
1.40001
1.40001
0.150545
0.155759
0.171408
0.163911
0.159268
0.171947
0.200314
0.243616
0.309697
0.405004
0.496781
0.593251
0.732691
0.911073
1.11752
1.33578
1.56556
1.80187
2.01763
2.08849
2.07374
1.90802
1.59735
1.42167
1.40053
1.40001
1.40001
1.40001
1.40001
1.40001
0.150899
0.1571
0.168808
0.16265
0.158909
0.17036
0.200817
0.2606
0.340329
0.42034
0.510805
0.637819
0.809524
0.986262
1.1757
1.38329
1.61005
1.8486
2.04773
2.09058
2.0522
1.85932
1.54316
1.41166
1.40023
1.40001
1.40001
1.40001
1.40001
1.40001
0.151729
0.157362
0.164874
0.160956
0.159573
0.173956
0.218332
0.284544
0.352365
0.427861
0.537588
0.697968
0.852194
1.01808
1.20682
1.42006
1.65932
1.91071
2.0754
2.09016
2.03043
1.79704
1.49866
1.40634
1.4001
1.40001
1.40001
1.40001
1.40001
1.40001
0.152567
0.156872
0.162836
0.159813
0.16301
0.188183
0.234593
0.291783
0.355288
0.44244
0.579836
0.724344
0.869367
1.04058
1.24072
1.47603
1.74009
1.98146
2.09291
2.08586
2.00612
1.73092
1.46777
1.40328
1.40005
1.40001
1.40001
1.40001
1.40001
1.40001
0.152629
0.154924
0.162621
0.159353
0.166091
0.19671
0.237986
0.291017
0.36109
0.471955
0.607488
0.733796
0.883568
1.08564
1.32719
1.5791
1.82755
2.03209
2.1008
2.08985
1.97524
1.67054
1.44192
1.40147
1.40002
1.40001
1.40001
1.40001
1.40001
1.40001
0.150694
0.153396
0.162767
0.158295
0.166688
0.198222
0.23868
0.289053
0.383273
0.509413
0.625539
0.751532
0.957545
1.18816
1.42186
1.65547
1.88772
2.06729
2.10607
2.09112
1.9224
1.6011
1.42226
1.4006
1.40001
1.40001
1.40001
1.40001
1.40001
1.40001
0.147471
0.152299
0.163011
0.156043
0.162841
0.197156
0.240691
0.316248
0.429702
0.531736
0.646962
0.841425
1.04983
1.25585
1.47723
1.71235
1.94746
2.09241
2.10806
2.06637
1.85485
1.53719
1.41176
1.40025
1.40001
1.40001
1.40001
1.40001
1.40001
1.40001
0.144516
0.151106
0.161172
0.154317
0.158781
0.195936
0.252596
0.356799
0.452168
0.55267
0.709256
0.908146
1.09486
1.29747
1.53204
1.78846
2.01162
2.10797
2.10637
2.02833
1.77909
1.49332
1.40609
1.4001
1.40001
1.40001
1.40001
1.40001
1.40001
1.40001
0.14268
0.150494
0.157787
0.153534
0.159758
0.208703
0.283568
0.373703
0.459534
0.583016
0.76935
0.941333
1.12553
1.35334
1.62237
1.88038
2.05783
2.11766
2.09936
1.9954
1.7115
1.46055
1.4028
1.40004
1.40001
1.40001
1.40001
1.40001
1.40001
1.40001
0.142161
0.150564
0.157155
0.154025
0.17087
0.227315
0.2936
0.374835
0.471573
0.63519
0.803032
0.964305
1.19148
1.46578
1.72526
1.95109
2.09081
2.12182
2.09502
1.96137
1.64524
1.43465
1.40118
1.40002
1.40001
1.40001
1.40001
1.40001
1.40001
1.40001
0.142452
0.15128
0.158076
0.156748
0.178694
0.232139
0.294604
0.375274
0.517635
0.682203
0.829486
1.04252
1.31475
1.56562
1.7991
2.01052
2.11567
2.12321
2.09718
1.89864
1.56815
1.41649
1.40043
1.40001
1.40001
1.40001
1.40001
1.40001
1.40001
1.40001
0.14505
0.151484
0.159028
0.157754
0.181694
0.231361
0.301594
0.411489
0.583819
0.721969
0.896888
1.16122
1.40296
1.63652
1.87257
2.06561
2.1266
2.12381
2.05941
1.80188
1.50519
1.40776
1.40015
1.40001
1.40001
1.40001
1.40001
1.40001
1.40001
1.40001
0.148997
0.148835
0.156818
0.155628
0.185206
0.236332
0.33258
0.484586
0.619417
0.767649
1.00574
1.23725
1.4671
1.71993
1.957
2.09982
2.12844
2.11453
1.99567
1.71967
1.46678
1.40363
1.40006
1.40001
1.40001
1.40001
1.40001
1.40001
1.40001
1.40001
0.151365
0.143898
0.151751
0.152532
0.191748
0.277642
0.387204
0.514562
0.645889
0.842755
1.07587
1.29582
1.5573
1.82781
2.02347
2.11798
2.12683
2.09341
1.94958
1.64869
1.43768
1.40141
1.40002
1.40001
1.40001
1.40001
1.40001
1.40001
1.40001
1.40001
0.150795
0.138525
0.148025
0.154929
0.210074
0.312176
0.410194
0.527385
0.69027
0.924372
1.13672
1.3911
1.6832
1.92025
2.07247
2.12987
2.12407
2.07528
1.89786
1.5745
1.41881
1.40052
1.40001
1.40001
1.40001
1.40001
1.40001
1.40001
1.40001
1.40001
0.146975
0.13334
0.147461
0.173718
0.228286
0.319925
0.417539
0.553394
0.788186
0.997478
1.22628
1.5288
1.78925
1.99448
2.11132
2.13566
2.1306
2.06902
1.80988
1.50597
1.40787
1.40017
1.40001
1.40001
1.40001
1.40001
1.40001
1.40001
1.40001
1.40001
0.145526
0.129632
0.150595
0.19057
0.235009
0.31393
0.435238
0.649117
0.873379
1.07917
1.36625
1.64047
1.87824
2.05848
2.13408
2.13951
2.13099
2.018
1.70235
1.45718
1.40292
1.40005
1.40001
1.40001
1.40001
1.40001
1.40001
1.40001
1.40001
1.40001
0.146046
0.126889
0.151792
0.195273
0.243511
0.330221
0.514155
0.74654
0.945508
1.19466
1.47781
1.74027
1.96864
2.10292
2.14172
2.14116
2.10354
1.91449
1.61198
1.42981
1.40111
1.40002
1.40001
1.40001
1.40001
1.40001
1.40001
1.40001
1.40001
1.40001
0.147617
0.125454
0.146189
0.192862
0.266169
0.42622
0.61492
0.801973
1.02212
1.31237
1.58587
1.85581
2.04406
2.12797
2.14305
2.13333
2.05705
1.84004
1.5436
1.41395
1.40036
1.40001
1.40001
1.40001
1.40001
1.40001
1.40001
1.40001
1.40001
1.40001
0.151
0.125052
0.135082
0.192585
0.325415
0.497593
0.661253
0.862573
1.15307
1.43543
1.71917
1.96377
2.09751
2.14066
2.14081
2.11686
2.01945
1.76465
1.48456
1.40567
1.40011
1.40001
1.40001
1.40001
1.40001
1.40001
1.40001
1.40001
1.40001
1.40001
0.153729
0.122189
0.132614
0.224036
0.37801
0.527991
0.706338
0.985224
1.29922
1.581
1.85268
2.04347
2.13144
2.14626
2.14126
2.10951
1.97835
1.65534
1.44032
1.4018
1.40003
1.40001
1.40001
1.40001
1.40001
1.40001
1.40001
1.40001
1.40001
1.40001
0.149891
0.11547
0.15274
0.271636
0.40772
0.555509
0.820589
1.1591
1.44857
1.73403
1.95687
2.09699
2.14713
2.14889
2.14416
2.10435
1.87405
1.55134
1.4162
1.4005
1.40001
1.40001
1.40001
1.40001
1.40001
1.40001
1.40001
1.40001
1.40001
1.40001
0.136738
0.111178
0.176342
0.299633
0.440528
0.677255
1.00079
1.30328
1.59534
1.86236
2.04051
2.12788
2.15046
2.15025
2.13514
2.02456
1.74309
1.48394
1.40607
1.40014
1.40001
1.40001
1.40001
1.40001
1.40001
1.40001
1.40001
1.40001
1.40001
1.40001
0.116259
0.111524
0.189804
0.335417
0.531826
0.843064
1.14142
1.4457
1.75285
1.97472
2.09957
2.14331
2.14964
2.14494
2.10478
1.94133
1.65236
1.44425
1.40211
1.40004
1.40001
1.40001
1.40001
1.40001
1.40001
1.40001
1.40001
1.40001
1.40001
1.40001
0.0908157
0.12967
0.214729
0.397546
0.678075
0.978495
1.29096
1.63086
1.90447
2.06041
2.12948
2.15119
2.1466
2.13102
2.07117
1.87364
1.56798
1.41851
1.4006
1.40001
1.40001
1.40001
1.40001
1.40001
1.40001
1.40001
1.40001
1.40001
1.40001
1.40001
0.0651343
0.146596
0.26867
0.501805
0.816199
1.13107
1.5017
1.81812
2.02724
2.10683
2.1396
2.15458
2.15107
2.12577
2.03934
1.76767
1.48159
1.40568
1.40013
1.40001
1.40001
1.40001
1.40001
1.40001
1.40001
1.40001
1.40001
1.40001
1.40001
1.40001
0.0422103
0.151778
0.355865
0.647982
0.984489
1.36745
1.71984
1.96176
2.10211
2.1256
2.14262
2.15594
2.15497
2.12961
1.95655
1.61445
1.43089
1.40141
1.40003
1.40001
1.40001
1.40001
1.40001
1.40001
1.40001
1.40001
1.40001
1.40001
1.40001
1.40001
0.0292446
0.168578
0.467236
0.827155
1.21552
1.60457
1.89444
2.06378
2.13784
2.13164
2.14737
2.15244
2.1518
2.0752
1.79889
1.51343
1.41099
1.40032
1.40001
1.40001
1.40001
1.40001
1.40001
1.40001
1.40001
1.40001
1.40001
1.40001
1.40001
1.40001
0.0291178
0.27936
0.627009
1.04939
1.4831
1.81695
2.02851
2.12304
2.14755
2.13426
2.15441
2.14643
2.12142
1.97241
1.68135
1.45748
1.40335
1.40007
1.40001
1.40001
1.40001
1.40001
1.40001
1.40001
1.40001
1.40001
1.40001
1.40001
1.40001
1.40001
0.0678891
0.407976
0.8553
1.34505
1.74456
1.99411
2.10747
2.14595
2.15075
2.13476
2.15693
2.13977
2.0768
1.88252
1.57958
1.42132
1.40076
1.40002
1.40001
1.40001
1.40001
1.40001
1.40001
1.40001
1.40001
1.40001
1.40001
1.40001
1.40001
1.40001
0.181243
0.591919
1.19175
1.67003
1.95897
2.09623
2.1385
2.15341
2.15322
2.13471
2.15725
2.14102
2.03446
1.75478
1.47542
1.4051
1.40013
1.40001
1.40001
1.40001
1.40001
1.40001
1.40001
1.40001
1.40001
1.40001
1.40001
1.40001
1.40001
1.40001
0.404772
0.96543
1.55311
1.92214
2.08623
2.13533
2.14782
2.15651
2.15565
2.1339
2.15411
2.13341
1.94211
1.57933
1.4205
1.40082
1.40002
1.40001
1.40001
1.40001
1.40001
1.40001
1.40001
1.40001
1.40001
1.40001
1.40001
1.40001
1.40001
1.40001
0.766832
1.40191
1.89302
2.08642
2.13544
2.14519
2.15149
2.15883
2.15628
2.13091
2.13424
2.05066
1.74697
1.47126
1.40454
1.4001
1.40001
1.40001
1.40001
1.40001
1.40001
1.40001
1.40001
1.40001
1.40001
1.40001
1.40001
1.40001
1.40001
1.40001
1.41302
1.87222
2.09494
2.14221
2.14513
2.14746
2.15398
2.15994
2.15361
2.12798
2.11013
1.94017
1.60011
1.42226
1.4006
1.40001
1.40001
1.40001
1.40001
1.40001
1.40001
1.40001
1.40001
1.40001
1.40001
1.40001
1.40001
1.40001
1.40001
1.40001
2.15288
2.15302
2.15126
2.14939
2.1462
2.14869
2.1551
2.16014
2.14735
2.11749
2.08522
1.79857
1.46766
1.39945
1.39994
1.4
1.40001
1.40001
1.40001
1.40001
1.40001
1.40001
1.40001
1.40001
1.40001
1.40001
1.40001
1.40001
1.40001
1.40001
2.15203
2.15221
2.1517
2.15084
2.14727
2.14552
2.15069
2.15907
2.15369
2.12044
2.07603
1.73916
1.45625
1.40251
1.40004
1.40001
1.40001
1.40001
1.40001
1.40001
1.40001
1.40001
1.40001
1.40001
1.40001
1.40001
1.40001
1.40001
1.40001
1.40001
2.15049
2.15059
2.15231
2.15253
2.14885
2.14442
2.14603
2.15753
2.15549
2.11191
1.9868
1.6244
1.42099
1.40034
1.40001
1.40001
1.40001
1.40001
1.40001
1.40001
1.40001
1.40001
1.40001
1.40001
1.40001
1.40001
1.40001
1.40001
1.40001
1.40001
2.1498
2.14947
2.15255
2.15434
2.15108
2.14281
2.14186
2.1552
2.15659
2.10076
1.91717
1.55797
1.40992
1.40012
1.40001
1.40001
1.40001
1.40001
1.40001
1.40001
1.40001
1.40001
1.40001
1.40001
1.40001
1.40001
1.40001
1.40001
1.40001
1.40001
2.14961
2.14905
2.1525
2.15522
2.15264
2.14212
2.13687
2.15039
2.15847
2.10076
1.83594
1.49089
1.40352
1.40004
1.40001
1.40001
1.40001
1.40001
1.40001
1.40001
1.40001
1.40001
1.40001
1.40001
1.40001
1.40001
1.40001
1.40001
1.40001
1.40001
2.14982
2.14886
2.15148
2.15511
2.15293
2.14308
2.13391
2.14493
2.15389
2.06036
1.73345
1.44714
1.40125
1.40001
1.40001
1.40001
1.40001
1.40001
1.40001
1.40001
1.40001
1.40001
1.40001
1.40001
1.40001
1.40001
1.40001
1.40001
1.40001
1.40001
2.15072
2.14913
2.14985
2.15244
2.15254
2.14633
2.13418
2.14384
2.14255
1.98877
1.64089
1.42312
1.4004
1.40001
1.40001
1.40001
1.40001
1.40001
1.40001
1.40001
1.40001
1.40001
1.40001
1.40001
1.40001
1.40001
1.40001
1.40001
1.40001
1.40001
2.15244
2.15073
2.14932
2.14938
2.15048
2.15124
2.14151
2.14637
2.13799
1.92358
1.55855
1.4096
1.40012
1.40001
1.40001
1.40001
1.40001
1.40001
1.40001
1.40001
1.40001
1.40001
1.40001
1.40001
1.40001
1.40001
1.40001
1.40001
1.40001
1.40001
2.15387
2.1527
2.14871
2.14547
2.1483
2.15585
2.15163
2.1419
2.11555
1.82915
1.48595
1.40331
1.40003
1.40001
1.40001
1.40001
1.40001
1.40001
1.40001
1.40001
1.40001
1.40001
1.40001
1.40001
1.40001
1.40001
1.40001
1.40001
1.40001
1.40001
2.15427
2.1532
2.14831
2.14222
2.14548
2.15833
2.16188
2.13096
2.04965
1.72393
1.44475
1.40111
1.40001
1.40001
1.40001
1.40001
1.40001
1.40001
1.40001
1.40001
1.40001
1.40001
1.40001
1.40001
1.40001
1.40001
1.40001
1.40001
1.40001
1.40001
2.15419
2.15302
2.14835
2.14015
2.14103
2.1603
2.16704
2.12575
1.99317
1.63301
1.42017
1.40032
1.40001
1.40001
1.40001
1.40001
1.40001
1.40001
1.40001
1.40001
1.40001
1.40001
1.40001
1.40001
1.40001
1.40001
1.40001
1.40001
1.40001
1.40001
2.15396
2.15218
2.14829
2.13937
2.13747
2.15957
2.16855
2.12119
1.91918
1.54016
1.40766
1.40009
1.40001
1.40001
1.40001
1.40001
1.40001
1.40001
1.40001
1.40001
1.40001
1.40001
1.40001
1.40001
1.40001
1.40001
1.40001
1.40001
1.40001
1.40001
2.15311
2.15052
2.14731
2.14209
2.13622
2.15943
2.16699
2.07963
1.81232
1.4764
1.40264
1.40002
1.40001
1.40001
1.40001
1.40001
1.40001
1.40001
1.40001
1.40001
1.40001
1.40001
1.40001
1.40001
1.40001
1.40001
1.40001
1.40001
1.40001
1.40001
2.15257
2.14862
2.14769
2.14383
2.13736
2.16264
2.16779
2.03711
1.70749
1.43739
1.4008
1.40001
1.40001
1.40001
1.40001
1.40001
1.40001
1.40001
1.40001
1.40001
1.40001
1.40001
1.40001
1.40001
1.40001
1.40001
1.40001
1.40001
1.40001
1.40001
2.15187
2.14648
2.14816
2.14705
2.14404
2.16298
2.16708
1.98461
1.59747
1.41445
1.4002
1.40001
1.40001
1.40001
1.40001
1.40001
1.40001
1.40001
1.40001
1.40001
1.40001
1.40001
1.40001
1.40001
1.40001
1.40001
1.40001
1.40001
1.40001
1.40001
2.15041
2.14353
2.14507
2.15249
2.15196
2.15202
2.1359
1.87698
1.5112
1.40506
1.40005
1.40001
1.40001
1.40001
1.40001
1.40001
1.40001
1.40001
1.40001
1.40001
1.40001
1.40001
1.40001
1.40001
1.40001
1.40001
1.40001
1.40001
1.40001
1.40001
2.14975
2.14111
2.13941
2.15619
2.17159
2.14192
2.08246
1.77364
1.45873
1.40159
1.40002
1.40001
1.40001
1.40001
1.40001
1.40001
1.40001
1.40001
1.40001
1.40001
1.40001
1.40001
1.40001
1.40001
1.40001
1.40001
1.40001
1.40001
1.40001
1.40001
2.14857
2.13964
2.13595
2.16661
2.18215
2.14081
2.03262
1.66046
1.42412
1.40042
1.40001
1.40001
1.40001
1.40001
1.40001
1.40001
1.40001
1.40001
1.40001
1.40001
1.40001
1.40001
1.40001
1.40001
1.40001
1.40001
1.40001
1.40001
1.40001
1.40001
2.14464
2.13952
2.13452
2.17603
2.18903
2.136
1.94706
1.54931
1.40846
1.4001
1.40001
1.40001
1.40001
1.40001
1.40001
1.40001
1.40001
1.40001
1.40001
1.40001
1.40001
1.40001
1.40001
1.40001
1.40001
1.40001
1.40001
1.40001
1.40001
1.40001
2.13929
2.13938
2.13616
2.18491
2.19321
2.09664
1.82599
1.4805
1.40277
1.40003
1.40001
1.40001
1.40001
1.40001
1.40001
1.40001
1.40001
1.40001
1.40001
1.40001
1.40001
1.40001
1.40001
1.40001
1.40001
1.40001
1.40001
1.40001
1.40001
1.40001
2.13554
2.14228
2.14387
2.18891
2.19542
2.05914
1.70624
1.43431
1.40068
1.40001
1.40001
1.40001
1.40001
1.40001
1.40001
1.40001
1.40001
1.40001
1.40001
1.40001
1.40001
1.40001
1.40001
1.40001
1.40001
1.40001
1.40001
1.40001
1.40001
1.40001
2.12931
2.14692
2.15261
2.18536
2.19441
1.99163
1.57953
1.41163
1.40015
1.40001
1.40001
1.40001
1.40001
1.40001
1.40001
1.40001
1.40001
1.40001
1.40001
1.40001
1.40001
1.40001
1.40001
1.40001
1.40001
1.40001
1.40001
1.40001
1.40001
1.40001
2.1245
2.15333
2.17361
2.17225
2.14973
1.86078
1.49658
1.40372
1.40003
1.40001
1.40001
1.40001
1.40001
1.40001
1.40001
1.40001
1.40001
1.40001
1.40001
1.40001
1.40001
1.40001
1.40001
1.40001
1.40001
1.40001
1.40001
1.40001
1.40001
1.40001
2.12303
2.16819
2.20182
2.16507
2.0923
1.7447
1.44389
1.40096
1.40001
1.40001
1.40001
1.40001
1.40001
1.40001
1.40001
1.40001
1.40001
1.40001
1.40001
1.40001
1.40001
1.40001
1.40001
1.40001
1.40001
1.40001
1.40001
1.40001
1.40001
1.40001
2.12283
2.18265
2.21606
2.16811
2.02159
1.60352
1.41418
1.4002
1.40001
1.40001
1.40001
1.40001
1.40001
1.40001
1.40001
1.40001
1.40001
1.40001
1.40001
1.40001
1.40001
1.40001
1.40001
1.40001
1.40001
1.40001
1.40001
1.40001
1.40001
1.40001
2.12896
2.19512
2.2249
2.14476
1.8882
1.50393
1.40431
1.40004
1.40001
1.40001
1.40001
1.40001
1.40001
1.40001
1.40001
1.40001
1.40001
1.40001
1.40001
1.40001
1.40001
1.40001
1.40001
1.40001
1.40001
1.40001
1.40001
1.40001
1.40001
1.40001
2.15071
2.20774
2.22837
2.09478
1.75274
1.44658
1.40107
1.40001
1.40001
1.40001
1.40001
1.40001
1.40001
1.40001
1.40001
1.40001
1.40001
1.40001
1.40001
1.40001
1.40001
1.40001
1.40001
1.40001
1.40001
1.40001
1.40001
1.40001
1.40001
1.40001
2.17079
2.21107
2.2295
2.0339
1.60924
1.41478
1.40021
1.40001
1.40001
1.40001
1.40001
1.40001
1.40001
1.40001
1.40001
1.40001
1.40001
1.40001
1.40001
1.40001
1.40001
1.40001
1.40001
1.40001
1.40001
1.40001
1.40001
1.40001
1.40001
1.40001
2.19002
2.20885
2.2007
1.88472
1.50043
1.40408
1.40004
1.40001
1.40001
1.40001
1.40001
1.40001
1.40001
1.40001
1.40001
1.40001
1.40001
1.40001
1.40001
1.40001
1.40001
1.40001
1.40001
1.40001
1.40001
1.40001
1.40001
1.40001
1.40001
1.40001
2.25416
2.19356
2.12572
1.7358
1.44468
1.40105
1.40001
1.40001
1.40001
1.40001
1.40001
1.40001
1.40001
1.40001
1.40001
1.40001
1.40001
1.40001
1.40001
1.40001
1.40001
1.40001
1.40001
1.40001
1.40001
1.40001
1.40001
1.40001
1.40001
1.40001
2.33104
2.15418
2.03246
1.59742
1.41412
1.40022
1.40001
1.40001
1.40001
1.40001
1.40001
1.40001
1.40001
1.40001
1.40001
1.40001
1.40001
1.40001
1.40001
1.40001
1.40001
1.40001
1.40001
1.40001
1.40001
1.40001
1.40001
1.40001
1.40001
1.40001
2.38516
2.11665
1.86488
1.49172
1.40393
1.40005
1.40001
1.40001
1.40001
1.40001
1.40001
1.40001
1.40001
1.40001
1.40001
1.40001
1.40001
1.40001
1.40001
1.40001
1.40001
1.40001
1.40001
1.40001
1.40001
1.40001
1.40001
1.40001
1.40001
1.40001
2.41197
2.04244
1.71112
1.44
1.40108
1.40001
1.40001
1.40001
1.40001
1.40001
1.40001
1.40001
1.40001
1.40001
1.40001
1.40001
1.40001
1.40001
1.40001
1.40001
1.40001
1.40001
1.40001
1.40001
1.40001
1.40001
1.40001
1.40001
1.40001
1.40001
2.42126
1.94481
1.58418
1.41406
1.40025
1.40001
1.40001
1.40001
1.40001
1.40001
1.40001
1.40001
1.40001
1.40001
1.40001
1.40001
1.40001
1.40001
1.40001
1.40001
1.40001
1.40001
1.40001
1.40001
1.40001
1.40001
1.40001
1.40001
1.40001
1.40001
2.34619
1.82215
1.49491
1.40447
1.40006
1.40001
1.40001
1.40001
1.40001
1.40001
1.40001
1.40001
1.40001
1.40001
1.40001
1.40001
1.40001
1.40001
1.40001
1.40001
1.40001
1.40001
1.40001
1.40001
1.40001
1.40001
1.40001
1.40001
1.40001
1.40001
2.22505
1.70931
1.44595
1.40132
1.40002
1.40001
1.40001
1.40001
1.40001
1.40001
1.40001
1.40001
1.40001
1.40001
1.40001
1.40001
1.40001
1.40001
1.40001
1.40001
1.40001
1.40001
1.40001
1.40001
1.40001
1.40001
1.40001
1.40001
1.40001
1.40001
2.11678
1.59666
1.41617
1.40028
1.40001
1.40001
1.40001
1.40001
1.40001
1.40001
1.40001
1.40001
1.40001
1.40001
1.40001
1.40001
1.40001
1.40001
1.40001
1.40001
1.40001
1.40001
1.40001
1.40001
1.40001
1.40001
1.40001
1.40001
1.40001
1.40001
1.95212
1.49926
1.40454
1.40005
1.40001
1.40001
1.40001
1.40001
1.40001
1.40001
1.40001
1.40001
1.40001
1.40001
1.40001
1.40001
1.40001
1.40001
1.40001
1.40001
1.40001
1.40001
1.40001
1.40001
1.40001
1.40001
1.40001
1.40001
1.40001
1.40001
1.74623
1.44097
1.40089
1.40001
1.40001
1.40001
1.40001
1.40001
1.40001
1.40001
1.40001
1.40001
1.40001
1.40001
1.40001
1.40001
1.40001
1.40001
1.40001
1.40001
1.40001
1.40001
1.40001
1.40001
1.40001
1.40001
1.40001
1.40001
1.40001
1.40001
1.53226
1.40879
1.40008
1.40001
1.40001
1.40001
1.40001
1.40001
1.40001
1.40001
1.40001
1.40001
1.40001
1.40001
1.40001
1.40001
1.40001
1.40001
1.40001
1.40001
1.40001
1.40001
1.40001
1.40001
1.40001
1.40001
1.40001
1.40001
1.40001
1.40001
1.40001
1.40001
1.40001
1.40001
1.40001
1.40001
1.40001
1.40001
1.40001
1.40001
1.40001
1.40001
1.40001
1.40001
1.40001
1.40001
1.40001
1.40001
1.40001
1.40001
1.40001
1.40001
1.40001
1.40001
1.40001
1.40001
1.40001
1.40001
1.40001
1.40001
1.40001
1.40001
1.40001
1.40001
1.40001
1.40001
1.40001
1.40001
1.40001
1.40001
1.40001
1.40001
1.40001
1.40001
1.40001
1.40001
1.40001
1.40001
1.40001
1.40001
1.40001
1.40001
1.40001
1.40001
1.40001
1.40001
1.40001
1.40001
1.40001
1.40001
1.40001
1.40001
1.40001
1.40001
1.40001
1.40001
1.40001
1.40001
1.40001
1.40001
1.40001
1.40001
1.40001
1.40001
1.40001
1.40001
1.40001
1.40001
1.40001
1.40001
1.40001
1.40001
1.40001
1.40001
1.40001
1.40001
1.40001
1.40001
1.40001
1.40001
1.40001
1.40001
1.40001
1.40001
1.40001
1.40001
1.40001
1.40001
1.40001
1.40001
1.40001
1.40001
1.40001
1.40001
1.40001
1.40001
1.40001
1.40001
1.40001
1.40001
1.40001
1.40001
1.40001
1.40001
1.40001
1.40001
1.40001
1.40001
1.40001
1.40001
1.40001
1.40001
1.40001
1.40001
1.40001
1.40001
1.40001
1.40001
1.40001
1.40001
1.40001
1.40001
1.40001
1.40001
1.40001
1.40001
1.40001
1.40001
1.40001
1.40001
1.40001
1.40001
1.40001
1.40001
1.40001
1.40001
1.40001
1.40001
1.40001
1.40001
1.40001
1.40001
1.40001
1.40001
1.40001
1.40001
1.40001
1.40001
1.40001
1.40001
1.40001
1.40001
1.40001
1.40001
1.40001
1.40001
1.40001
1.40001
1.40001
1.40001
1.40001
1.40001
1.40001
1.40001
1.40001
1.40001
1.40001
1.40001
1.40001
1.40001
1.40001
1.40001
1.40001
1.40001
1.40001
1.40001
1.40001
1.40001
1.40001
1.40001
1.40001
1.40001
1.40001
1.40001
1.40001
1.40001
1.40001
1.40001
1.40001
1.40001
1.40001
1.40001
1.40001
1.40001
1.40001
1.40001
1.40001
1.40001
1.40001
1.40001
1.40001
1.40001
1.40001
1.40001
1.40001
1.40001
1.40001
1.40001
1.40001
1.40001
1.40001
1.40001
1.40001
1.40001
1.40001
1.40001
1.40001
1.40001
1.40001
1.40001
1.40001
1.40001
1.40001
1.40001
1.40001
1.40001
1.40001
1.40001
1.40001
1.40001
1.40001
1.40001
1.40001
1.40001
1.40001
1.40001
1.40001
1.40001
1.40001
1.40001
1.40001
1.40001
1.40001
1.40001
1.40001
1.40001
1.40001
1.40001
1.40001
1.40001
1.40001
1.40001
1.40001
1.40001
1.40001
1.40001
1.40001
1.40001
1.40001
1.40001
1.40001
1.40001
1.40001
1.40001
1.40001
1.40001
1.40001
1.40001
1.40001
1.40001
1.40001
1.40001
1.40001
1.40001
1.40001
1.40001
1.40001