/*--------------------------------*- C++ -*----------------------------------*\
  =========                 |
  \\      /  F ield         | OpenFOAM: The Open Source CFD Toolbox
   \\    /   O peration     | Website:  https://openfoam.org
    \\  /    A nd           | Version:  7
     \\/     M anipulation  |
\*---------------------------------------------------------------------------*/
FoamFile
{
    version     2.0;
    format      ascii;
    class       volScalarField;
    location    "8.5";
    object      rho;
}
// * * * * * * * * * * * * * * * * * * * * * * * * * * * * * * * * * * * * * //

dimensions      [1 -3 0 0 0 0 0];

internalField   nonuniform List<scalar> 
90000
(
1.13264
1.13188
1.13193
1.13176
1.13246
1.13536
1.13761
1.13919
1.14147
1.1443
1.14698
1.14949
1.15226
1.15555
1.15852
1.16169
1.16482
1.16862
1.17207
1.17592
1.17962
1.18361
1.18742
1.19181
1.19618
1.201
1.20609
1.21182
1.21885
1.22598
1.23485
1.24335
1.25221
1.26103
1.26876
1.27645
1.28361
1.28896
1.29436
1.2987
1.30186
1.30529
1.30825
1.31298
1.31249
1.30858
1.29672
1.28275
1.27079
1.26284
1.26048
1.26225
1.26574
1.27064
1.27644
1.28287
1.28714
1.29022
1.29293
1.29316
1.29222
1.28887
1.28252
1.27586
1.2709
1.27049
1.27217
1.27637
1.28206
1.28819
1.29236
1.29214
1.29026
1.28502
1.27988
1.27721
1.27851
1.28151
1.28515
1.28883
1.28951
1.2878
1.28529
1.28305
1.28465
1.28809
1.2912
1.29099
1.28932
1.28808
1.28844
1.29006
1.291
1.2902
1.2886
1.28883
1.28973
1.29178
1.29215
1.29158
1.13576
1.13593
1.13614
1.13636
1.13656
1.13675
1.13697
1.13733
1.13861
1.1406
1.14267
1.14484
1.14728
1.1501
1.153
1.15597
1.15902
1.16221
1.16551
1.16878
1.17222
1.17563
1.17919
1.18281
1.18682
1.19081
1.19518
1.19979
1.2051
1.21082
1.21735
1.22426
1.23199
1.23997
1.24858
1.25732
1.26635
1.27518
1.28382
1.29153
1.299
1.30468
1.30907
1.31324
1.31459
1.31501
1.31542
1.31644
1.31524
1.31162
1.30543
1.2985
1.29217
1.28726
1.28478
1.28563
1.28748
1.28967
1.29255
1.29662
1.3006
1.30344
1.3055
1.30387
1.29986
1.29461
1.29001
1.28668
1.2867
1.28865
1.29194
1.29644
1.30281
1.30268
1.30014
1.29451
1.29001
1.28846
1.29023
1.29508
1.30031
1.30038
1.29807
1.29534
1.29526
1.29633
1.29868
1.30031
1.29969
1.29843
1.29826
1.29871
1.29918
1.29911
1.29804
1.29766
1.29818
1.2995
1.30005
1.29961
1.14008
1.1401
1.14007
1.14003
1.14005
1.14006
1.14001
1.13997
1.14001
1.14007
1.1402
1.14042
1.14076
1.14121
1.14174
1.14238
1.14318
1.14418
1.14531
1.14656
1.14845
1.1507
1.15321
1.15588
1.15892
1.1621
1.16547
1.16891
1.1727
1.17675
1.18118
1.18606
1.19133
1.19753
1.20382
1.21156
1.21945
1.22867
1.23849
1.24852
1.25976
1.27033
1.2808
1.29043
1.30031
1.30737
1.3152
1.31842
1.31951
1.32096
1.32385
1.32801
1.32806
1.32658
1.32225
1.31613
1.31073
1.30653
1.30347
1.30374
1.30535
1.30822
1.31128
1.31464
1.31916
1.31891
1.31617
1.30917
1.30188
1.29689
1.29765
1.30091
1.30641
1.31163
1.31621
1.31492
1.30904
1.30343
1.30132
1.30276
1.30634
1.30981
1.3122
1.31037
1.3073
1.30554
1.30676
1.30919
1.31113
1.31012
1.30806
1.30798
1.30874
1.30926
1.30862
1.30704
1.30695
1.3076
1.30887
1.30866
1.14545
1.14544
1.14543
1.1454
1.14541
1.14545
1.1455
1.14551
1.14545
1.14536
1.14533
1.14534
1.14542
1.14555
1.14571
1.14594
1.14626
1.14662
1.14698
1.14747
1.14771
1.14803
1.14839
1.14875
1.14915
1.14967
1.15037
1.15128
1.1524
1.15364
1.1556
1.15806
1.16085
1.16417
1.16783
1.17224
1.1771
1.18318
1.1897
1.19781
1.20672
1.21698
1.22889
1.24096
1.25473
1.26921
1.28352
1.29685
1.30871
1.318
1.3232
1.3271
1.32847
1.32799
1.32754
1.32693
1.32578
1.32305
1.31918
1.31604
1.31464
1.31507
1.31615
1.31783
1.31961
1.32013
1.31958
1.31907
1.3173
1.31372
1.31054
1.30914
1.31002
1.31189
1.31566
1.31809
1.32145
1.32065
1.31705
1.31286
1.31154
1.31328
1.31634
1.32021
1.31963
1.31698
1.31437
1.31488
1.31668
1.3189
1.31774
1.31609
1.31615
1.31679
1.31707
1.31591
1.31466
1.31491
1.31588
1.31607
1.15155
1.15152
1.15152
1.15152
1.15155
1.15162
1.15182
1.152
1.15202
1.15197
1.15195
1.15199
1.15205
1.15208
1.15217
1.15237
1.15251
1.15251
1.15246
1.15242
1.15248
1.15271
1.15304
1.15318
1.15326
1.1534
1.15367
1.15407
1.15453
1.15519
1.15535
1.15556
1.15588
1.15628
1.15677
1.15742
1.15833
1.15988
1.1619
1.1646
1.16788
1.17234
1.1776
1.18478
1.19301
1.20406
1.21615
1.23087
1.24669
1.26241
1.27813
1.28936
1.30265
1.3088
1.31566
1.32041
1.32325
1.32427
1.32571
1.3281
1.32822
1.32742
1.32567
1.32378
1.32131
1.31939
1.31936
1.32004
1.32191
1.32381
1.32341
1.32109
1.31748
1.31415
1.31471
1.31777
1.32169
1.3238
1.32515
1.32346
1.32021
1.31754
1.31817
1.32016
1.32207
1.32364
1.32221
1.32017
1.32001
1.3211
1.32313
1.32245
1.32122
1.32058
1.32115
1.3211
1.32023
1.3195
1.31981
1.32069
1.15624
1.15622
1.15614
1.1561
1.15611
1.15618
1.15641
1.15666
1.15671
1.15669
1.15667
1.15666
1.1567
1.15687
1.15706
1.15713
1.15719
1.15725
1.15724
1.15724
1.15735
1.15743
1.15742
1.15724
1.15714
1.15716
1.15727
1.15731
1.15727
1.15725
1.15726
1.15739
1.15759
1.15777
1.1579
1.1581
1.15847
1.15865
1.15881
1.15899
1.15921
1.15955
1.1602
1.16143
1.16325
1.16607
1.17011
1.17617
1.18414
1.19503
1.20822
1.224
1.24042
1.25918
1.27645
1.29131
1.30516
1.3178
1.32416
1.32694
1.32735
1.32669
1.32529
1.32153
1.31725
1.31761
1.31934
1.32146
1.32331
1.32435
1.32433
1.32385
1.32245
1.31947
1.31772
1.31889
1.32055
1.32353
1.32515
1.32548
1.32528
1.3235
1.32092
1.32086
1.32176
1.32349
1.3244
1.32415
1.3232
1.3226
1.32329
1.32426
1.32471
1.32384
1.32307
1.323
1.32284
1.32223
1.32185
1.32238
1.15977
1.15993
1.16003
1.16009
1.16018
1.16035
1.1605
1.16064
1.16072
1.16068
1.16059
1.16058
1.16063
1.16072
1.16076
1.16073
1.1606
1.1605
1.1605
1.16056
1.16073
1.16094
1.161
1.16093
1.16068
1.16054
1.16057
1.16059
1.16058
1.16046
1.16041
1.16037
1.16028
1.16011
1.15986
1.15953
1.15941
1.15937
1.1593
1.15919
1.15916
1.1592
1.15922
1.1592
1.15909
1.15899
1.1591
1.15954
1.1604
1.16214
1.165
1.17039
1.17752
1.18952
1.20378
1.22247
1.24134
1.25998
1.27858
1.29173
1.30371
1.30896
1.31265
1.31368
1.31713
1.32121
1.32397
1.32443
1.32431
1.32368
1.32232
1.32157
1.32161
1.32268
1.32249
1.322
1.32175
1.32205
1.32285
1.3244
1.32515
1.32549
1.32443
1.32269
1.32211
1.32266
1.32405
1.32475
1.32471
1.32411
1.32368
1.3241
1.32464
1.32502
1.32448
1.32402
1.32377
1.32338
1.32288
1.3231
1.16035
1.1604
1.16049
1.16055
1.16058
1.16062
1.16067
1.16074
1.16085
1.16089
1.16091
1.16097
1.16106
1.16114
1.16122
1.16132
1.16135
1.16134
1.16134
1.16141
1.16155
1.16167
1.16177
1.16182
1.1618
1.16176
1.16176
1.16181
1.16181
1.16181
1.16185
1.16189
1.16188
1.16183
1.16173
1.16156
1.16133
1.16111
1.16088
1.1606
1.16027
1.15975
1.1591
1.15875
1.15856
1.15844
1.1583
1.15809
1.15798
1.15776
1.15718
1.15705
1.15739
1.15875
1.16187
1.168
1.17771
1.19159
1.20897
1.23048
1.25051
1.2711
1.28934
1.30384
1.31439
1.31926
1.32173
1.32265
1.32134
1.31698
1.3173
1.31884
1.32174
1.32455
1.32465
1.32432
1.32329
1.32142
1.32156
1.32218
1.32413
1.32523
1.32503
1.32434
1.32292
1.3226
1.32314
1.32432
1.32454
1.32449
1.32418
1.3242
1.32435
1.32483
1.32494
1.32474
1.32442
1.32408
1.32353
1.32365
1.16
1.16006
1.16014
1.16018
1.16022
1.16027
1.1603
1.16036
1.16041
1.16044
1.16047
1.16052
1.16059
1.16067
1.16074
1.16086
1.16098
1.161
1.16102
1.16108
1.16117
1.16125
1.16134
1.16141
1.1614
1.16136
1.16137
1.1614
1.16139
1.1614
1.16147
1.16151
1.16145
1.16128
1.16105
1.1608
1.16052
1.16021
1.15981
1.15931
1.15904
1.1591
1.15923
1.15917
1.159
1.15876
1.15848
1.15819
1.15774
1.15714
1.15648
1.1561
1.15595
1.15592
1.15581
1.15589
1.15655
1.15871
1.16317
1.1715
1.1845
1.20179
1.22215
1.2443
1.26557
1.28145
1.2942
1.30322
1.30848
1.31165
1.31889
1.32271
1.32426
1.32475
1.3241
1.32229
1.32138
1.32108
1.32156
1.32255
1.32326
1.32386
1.32382
1.32361
1.32363
1.32333
1.32341
1.32354
1.32394
1.32416
1.32437
1.32435
1.32434
1.32444
1.32469
1.32499
1.32486
1.3246
1.32419
1.32392
1.15911
1.15913
1.15918
1.15923
1.15928
1.15932
1.15936
1.15938
1.15935
1.15931
1.1593
1.1593
1.1593
1.15925
1.15919
1.15921
1.15938
1.1596
1.1597
1.15971
1.15966
1.15964
1.15965
1.15971
1.15973
1.15973
1.15973
1.15971
1.15967
1.15964
1.15965
1.15962
1.15944
1.15925
1.15909
1.15895
1.15877
1.15846
1.15805
1.15773
1.15764
1.1576
1.15756
1.15748
1.15732
1.15716
1.15703
1.1569
1.15668
1.15634
1.15613
1.15591
1.1558
1.15569
1.15551
1.15541
1.15527
1.15506
1.15514
1.15574
1.15754
1.16175
1.16923
1.18204
1.19968
1.22145
1.24748
1.26848
1.2915
1.30719
1.31723
1.32028
1.32258
1.32146
1.31751
1.31776
1.31949
1.32197
1.32316
1.32319
1.32226
1.32131
1.32195
1.3227
1.32385
1.32389
1.32368
1.32319
1.32331
1.32371
1.32423
1.32424
1.32415
1.32416
1.32437
1.32482
1.32484
1.32478
1.32462
1.32412
1.15736
1.15735
1.15734
1.15734
1.15736
1.15737
1.15736
1.15733
1.15724
1.15713
1.15711
1.15711
1.1571
1.15707
1.15699
1.15697
1.157
1.15701
1.15702
1.15705
1.15711
1.1571
1.15709
1.15712
1.15713
1.15714
1.15719
1.1572
1.15722
1.15728
1.15731
1.15728
1.15716
1.15713
1.15713
1.15709
1.15693
1.15652
1.15638
1.15641
1.15638
1.15626
1.15621
1.15615
1.15604
1.156
1.15602
1.15601
1.15595
1.15577
1.1557
1.15581
1.15592
1.1559
1.15579
1.15561
1.1553
1.15496
1.15493
1.15494
1.15506
1.15541
1.15605
1.15798
1.16177
1.17061
1.18372
1.20473
1.22825
1.25294
1.27655
1.2883
1.30278
1.3063
1.31285
1.31797
1.32312
1.3241
1.32385
1.32202
1.32014
1.32032
1.32142
1.32317
1.32383
1.32369
1.32319
1.32304
1.32331
1.32383
1.32408
1.32403
1.32398
1.32413
1.32439
1.32458
1.32467
1.32478
1.32482
1.32442
1.15569
1.15565
1.15564
1.15565
1.15563
1.15561
1.15554
1.15531
1.15524
1.15526
1.15526
1.15518
1.15502
1.15483
1.15478
1.15477
1.15475
1.1547
1.1547
1.15472
1.15481
1.15494
1.15497
1.15494
1.15492
1.15493
1.15496
1.15499
1.15503
1.15516
1.15533
1.15542
1.15542
1.15535
1.15533
1.15532
1.15525
1.15515
1.15515
1.15526
1.1553
1.15524
1.15516
1.15511
1.15502
1.15494
1.15494
1.15501
1.15505
1.15506
1.15516
1.15545
1.15589
1.15637
1.15645
1.15641
1.15628
1.15594
1.15558
1.15548
1.15558
1.15594
1.15657
1.15679
1.15699
1.15758
1.15948
1.16485
1.17409
1.19191
1.21289
1.24012
1.26688
1.28676
1.30904
1.31591
1.32193
1.32192
1.31905
1.31749
1.31881
1.32136
1.32335
1.32355
1.32326
1.32233
1.32255
1.32328
1.32392
1.3239
1.32383
1.32379
1.32396
1.32424
1.32438
1.32441
1.32456
1.3249
1.32505
1.32473
1.15502
1.15496
1.1549
1.15483
1.15475
1.15465
1.15453
1.15437
1.15421
1.15408
1.15397
1.15385
1.15372
1.15356
1.15342
1.15329
1.15316
1.1531
1.15309
1.15309
1.15312
1.15321
1.15325
1.1532
1.15315
1.15313
1.15314
1.15317
1.15324
1.15337
1.15358
1.15379
1.15391
1.1539
1.15377
1.1537
1.15371
1.15376
1.15391
1.15412
1.1542
1.15422
1.15415
1.15399
1.1539
1.15379
1.15376
1.15381
1.15394
1.15411
1.15439
1.15493
1.15575
1.15649
1.15687
1.15694
1.1569
1.15666
1.15631
1.15628
1.15653
1.15703
1.15746
1.15765
1.15778
1.15808
1.15812
1.15826
1.15904
1.16187
1.16819
1.18256
1.20068
1.22751
1.25413
1.27464
1.29687
1.3037
1.3089
1.31651
1.32206
1.32401
1.32385
1.3221
1.32138
1.32188
1.32337
1.32454
1.3245
1.3241
1.32374
1.32398
1.32436
1.32466
1.32451
1.32447
1.32479
1.32545
1.32549
1.32526
1.15496
1.15491
1.15485
1.15478
1.1547
1.1546
1.15448
1.15434
1.15418
1.15406
1.15396
1.15385
1.15372
1.15357
1.15342
1.1533
1.15319
1.15311
1.15309
1.15309
1.1531
1.15315
1.15319
1.15315
1.15306
1.15303
1.15303
1.15304
1.15308
1.15316
1.1533
1.15347
1.15359
1.15365
1.15363
1.15362
1.15363
1.15373
1.15396
1.15404
1.15406
1.15405
1.15392
1.15371
1.15351
1.1533
1.15319
1.15319
1.15324
1.15338
1.15365
1.15417
1.15503
1.15604
1.15694
1.15733
1.15733
1.15715
1.15684
1.1569
1.1572
1.15761
1.15796
1.15804
1.15817
1.15845
1.15851
1.15852
1.15828
1.15816
1.15849
1.16044
1.16514
1.17669
1.19271
1.21998
1.24778
1.27546
1.30109
1.31458
1.31957
1.32251
1.31997
1.31758
1.31975
1.32327
1.32488
1.32472
1.32415
1.32385
1.32414
1.32473
1.32493
1.32486
1.32469
1.32497
1.32555
1.32597
1.32603
1.326
1.15547
1.15543
1.15539
1.15533
1.15525
1.15517
1.15507
1.15497
1.15488
1.1548
1.15472
1.15463
1.15451
1.15439
1.1543
1.1542
1.15406
1.15387
1.15369
1.15362
1.15361
1.15363
1.15364
1.15357
1.15342
1.15338
1.15337
1.15337
1.15338
1.15343
1.15355
1.15367
1.1537
1.15376
1.15389
1.1539
1.15392
1.15418
1.15479
1.15516
1.15532
1.15544
1.15549
1.15545
1.15522
1.15473
1.15429
1.15404
1.15397
1.15398
1.15411
1.1546
1.15549
1.15652
1.15745
1.15789
1.15785
1.15758
1.1573
1.15735
1.15757
1.15777
1.15801
1.15811
1.15816
1.15839
1.15851
1.15852
1.15837
1.1579
1.15778
1.15797
1.15856
1.1601
1.1638
1.17309
1.18848
1.21421
1.24286
1.26976
1.28861
1.30303
1.30964
1.3176
1.32513
1.32531
1.32483
1.32307
1.32333
1.32439
1.32571
1.32593
1.32563
1.32503
1.32528
1.32597
1.32667
1.32667
1.32673
1.32701
1.15707
1.15706
1.15703
1.15701
1.15697
1.15694
1.15691
1.15688
1.15685
1.15681
1.15677
1.15671
1.15667
1.15663
1.15659
1.15654
1.15647
1.15635
1.15616
1.15589
1.15567
1.1556
1.15555
1.15532
1.15505
1.15501
1.15497
1.15491
1.15491
1.15492
1.15491
1.15487
1.15488
1.15501
1.15504
1.15502
1.15506
1.15541
1.15608
1.15656
1.1569
1.15736
1.15761
1.1576
1.15736
1.15703
1.15673
1.15637
1.15594
1.15562
1.15559
1.15575
1.15624
1.15694
1.15759
1.1579
1.15779
1.15738
1.15718
1.15728
1.15762
1.15779
1.15786
1.15781
1.15768
1.15781
1.15831
1.15846
1.1583
1.15801
1.15787
1.15795
1.15845
1.15905
1.15958
1.16076
1.16378
1.17153
1.18659
1.2104
1.24145
1.27045
1.29893
1.31536
1.32343
1.3233
1.31855
1.31978
1.32262
1.3258
1.32625
1.32605
1.32548
1.3258
1.32673
1.32717
1.32714
1.32718
1.32748
1.32804
1.15832
1.15832
1.15832
1.15832
1.15832
1.15832
1.15835
1.15836
1.15836
1.15836
1.15834
1.15832
1.15834
1.15836
1.15836
1.15834
1.15836
1.15837
1.15837
1.1583
1.15813
1.15791
1.15764
1.15723
1.157
1.15696
1.15695
1.15696
1.15698
1.15696
1.1569
1.15689
1.1569
1.15688
1.15669
1.1566
1.15663
1.15687
1.15737
1.15787
1.15846
1.15925
1.15957
1.15956
1.15942
1.15935
1.15922
1.15881
1.15814
1.15743
1.15711
1.15716
1.15748
1.15784
1.15821
1.15835
1.15815
1.15755
1.1573
1.15738
1.15776
1.15803
1.158
1.15761
1.1574
1.15749
1.15793
1.15818
1.15831
1.15837
1.15836
1.1584
1.15863
1.15917
1.15979
1.1602
1.16064
1.16159
1.16413
1.17118
1.18544
1.20966
1.23979
1.2694
1.29092
1.30482
1.31105
1.32195
1.32658
1.32656
1.32596
1.32495
1.32546
1.32721
1.3284
1.32814
1.32757
1.32769
1.32836
1.32911
1.15867
1.15876
1.15882
1.15887
1.15892
1.15894
1.15897
1.159
1.15902
1.15906
1.1591
1.15917
1.15927
1.15936
1.15944
1.15954
1.15962
1.15966
1.15968
1.1597
1.15972
1.15967
1.15941
1.1591
1.15905
1.15909
1.15911
1.1591
1.15908
1.15901
1.15893
1.1589
1.15885
1.15866
1.15852
1.1585
1.15852
1.15862
1.15893
1.1594
1.1601
1.16084
1.16104
1.16107
1.16107
1.16106
1.16096
1.16059
1.15984
1.15901
1.15866
1.1587
1.15905
1.1593
1.15944
1.15943
1.15904
1.15812
1.15781
1.15786
1.15807
1.15826
1.15825
1.15805
1.1579
1.15789
1.15795
1.15804
1.15824
1.15856
1.15881
1.15896
1.15912
1.1594
1.15984
1.16022
1.16057
1.16068
1.1609
1.16165
1.16429
1.17131
1.18652
1.21166
1.24235
1.27577
1.30467
1.31911
1.325
1.32372
1.32029
1.32267
1.3267
1.32872
1.32848
1.32776
1.32798
1.32889
1.32937
1.32974
1.15876
1.15879
1.15882
1.15896
1.1592
1.15927
1.15926
1.15923
1.15923
1.15925
1.15931
1.15938
1.15947
1.15967
1.15995
1.16004
1.16006
1.16007
1.16013
1.16028
1.16046
1.16052
1.1606
1.1607
1.16073
1.16074
1.16074
1.1607
1.16059
1.16042
1.16026
1.16018
1.16004
1.15979
1.15971
1.15969
1.15967
1.15965
1.15971
1.15996
1.16032
1.16085
1.16144
1.16156
1.16156
1.16151
1.16138
1.16104
1.16041
1.15992
1.15982
1.15994
1.16039
1.16066
1.16078
1.16073
1.16021
1.1592
1.15879
1.15877
1.15884
1.15908
1.15924
1.15938
1.15942
1.15931
1.15899
1.15873
1.15871
1.15889
1.15927
1.15944
1.15948
1.15955
1.15973
1.16008
1.16039
1.16057
1.1606
1.16057
1.16076
1.1618
1.16504
1.17282
1.18929
1.2152
1.24686
1.27717
1.29594
1.30939
1.31609
1.32731
1.32881
1.32842
1.32672
1.32718
1.32897
1.33045
1.3302
1.3302
1.15987
1.15986
1.15986
1.15986
1.15986
1.15994
1.16
1.15999
1.15995
1.1599
1.15991
1.15997
1.16007
1.16033
1.16048
1.16049
1.16051
1.16056
1.16068
1.16086
1.16097
1.16106
1.16128
1.1615
1.16153
1.16153
1.16153
1.16143
1.16121
1.16097
1.16077
1.16051
1.16025
1.16008
1.15996
1.1599
1.15984
1.15977
1.15977
1.15992
1.16027
1.16086
1.16126
1.1613
1.16131
1.16126
1.16113
1.16081
1.16032
1.16003
1.16001
1.16017
1.16069
1.16131
1.16168
1.16173
1.16144
1.16078
1.16046
1.16043
1.16065
1.16083
1.16089
1.16105
1.16124
1.16123
1.16093
1.16017
1.15961
1.15955
1.15966
1.15978
1.15978
1.15972
1.15972
1.15982
1.16005
1.16025
1.16042
1.16073
1.16113
1.16139
1.16167
1.16257
1.16596
1.17378
1.19281
1.22069
1.25242
1.29193
1.31155
1.32557
1.32565
1.32276
1.32353
1.32657
1.3298
1.3304
1.3304
1.33074
1.16088
1.16088
1.16088
1.1609
1.161
1.16106
1.16106
1.16104
1.16103
1.16106
1.16107
1.16106
1.16105
1.16115
1.16123
1.16122
1.16118
1.1612
1.16133
1.16144
1.16147
1.16151
1.16167
1.16197
1.16206
1.16207
1.16207
1.16194
1.16164
1.16134
1.16106
1.16068
1.16042
1.16032
1.16015
1.16005
1.16006
1.16
1.15994
1.16001
1.16041
1.16115
1.16136
1.16136
1.16135
1.16132
1.16119
1.1608
1.1604
1.16033
1.16035
1.16064
1.16128
1.16189
1.16228
1.1625
1.16252
1.16239
1.16232
1.16239
1.16235
1.16211
1.16192
1.16198
1.16235
1.16271
1.16261
1.16192
1.16084
1.16036
1.16035
1.16044
1.16044
1.16023
1.15996
1.15995
1.16012
1.16048
1.16077
1.16098
1.16125
1.16158
1.16182
1.16197
1.16223
1.16313
1.16714
1.1758
1.19822
1.22682
1.25936
1.29294
1.30351
1.3145
1.3238
1.33014
1.32981
1.32921
1.32998
1.33118
1.1604
1.1604
1.16039
1.16038
1.16042
1.16064
1.16078
1.16082
1.16081
1.16072
1.16057
1.16035
1.15994
1.15957
1.15948
1.15951
1.15957
1.15964
1.15979
1.15988
1.15989
1.15982
1.15979
1.15998
1.16031
1.16044
1.16053
1.1605
1.16022
1.15998
1.15988
1.15979
1.15975
1.15976
1.15983
1.15993
1.15985
1.1597
1.15975
1.1601
1.16098
1.16216
1.16278
1.16292
1.1629
1.16265
1.1622
1.16185
1.16161
1.16142
1.16142
1.16178
1.1623
1.16234
1.16233
1.16246
1.16289
1.16328
1.16336
1.16343
1.1633
1.16253
1.16184
1.16181
1.16208
1.16267
1.16277
1.1625
1.16171
1.16108
1.16105
1.16122
1.16147
1.16148
1.16127
1.16107
1.16104
1.16111
1.16125
1.1613
1.16139
1.16151
1.1617
1.16173
1.16166
1.16169
1.162
1.16333
1.16853
1.17958
1.2062
1.23763
1.27321
1.30895
1.32082
1.32856
1.32397
1.32512
1.32811
1.33118
1.15732
1.15741
1.15735
1.15717
1.15715
1.15719
1.15762
1.1581
1.15825
1.15839
1.15844
1.15843
1.15829
1.15827
1.15842
1.15891
1.15972
1.15997
1.16003
1.16017
1.16022
1.16007
1.15983
1.15995
1.16033
1.1605
1.16061
1.16053
1.15985
1.15922
1.15908
1.15903
1.15905
1.15909
1.15928
1.15953
1.15951
1.15952
1.1598
1.16059
1.16184
1.16309
1.16394
1.16442
1.16457
1.16444
1.16403
1.16356
1.16302
1.16253
1.16246
1.16264
1.16266
1.16248
1.16219
1.16217
1.16262
1.16372
1.16433
1.16439
1.16412
1.16301
1.16146
1.1609
1.16102
1.16174
1.16273
1.16281
1.16248
1.16182
1.16153
1.16165
1.16207
1.16246
1.16248
1.16235
1.16213
1.16201
1.16194
1.16184
1.16172
1.1616
1.16161
1.16156
1.1615
1.16143
1.16142
1.16152
1.16202
1.16397
1.17093
1.1856
1.21621
1.25045
1.27964
1.30489
1.31276
1.32624
1.32926
1.33101
1.15273
1.15273
1.15277
1.15276
1.15262
1.15254
1.15261
1.15296
1.15368
1.1545
1.15515
1.15571
1.15621
1.15671
1.15757
1.15886
1.15968
1.16012
1.16074
1.16112
1.16103
1.16016
1.15923
1.15914
1.15944
1.16
1.16015
1.1601
1.15977
1.1592
1.15898
1.15895
1.15902
1.15921
1.15931
1.15923
1.15896
1.15901
1.15947
1.16036
1.16134
1.16217
1.16295
1.16374
1.16409
1.16406
1.16381
1.16348
1.16302
1.16253
1.16238
1.16219
1.16161
1.1609
1.16068
1.16071
1.16123
1.16268
1.16391
1.16416
1.16403
1.1632
1.16166
1.16053
1.16044
1.16092
1.16211
1.16277
1.16272
1.16254
1.16234
1.16232
1.16243
1.16268
1.16283
1.1628
1.16269
1.16263
1.16259
1.16253
1.16237
1.1621
1.16184
1.16163
1.16159
1.16152
1.1615
1.16147
1.1615
1.16166
1.16249
1.16554
1.17528
1.19464
1.22884
1.26496
1.29973
1.32284
1.32723
1.32531
1.15144
1.15143
1.15143
1.15149
1.15199
1.15262
1.1527
1.15241
1.15155
1.15097
1.15095
1.1513
1.1522
1.15438
1.15588
1.15631
1.15627
1.15681
1.15902
1.15948
1.15792
1.15451
1.15391
1.15418
1.15486
1.1549
1.15513
1.15591
1.15622
1.15627
1.1564
1.15657
1.1567
1.15662
1.15609
1.15488
1.15388
1.15362
1.15378
1.15385
1.15389
1.15405
1.15437
1.15534
1.158
1.16074
1.16111
1.16079
1.16017
1.15965
1.15909
1.15895
1.15905
1.1594
1.15971
1.15968
1.15953
1.15976
1.1608
1.16234
1.16308
1.16309
1.16289
1.16226
1.16146
1.16133
1.16174
1.16243
1.1627
1.16275
1.16279
1.16273
1.16266
1.16275
1.16285
1.16283
1.16278
1.16278
1.16286
1.16291
1.1629
1.16278
1.1626
1.16239
1.16221
1.16206
1.16199
1.16196
1.16196
1.16202
1.16213
1.16241
1.16362
1.16823
1.18112
1.20588
1.24291
1.27651
1.29906
1.31672
1.15238
1.1523
1.15233
1.15254
1.1527
1.15269
1.15204
1.15053
1.14985
1.14987
1.15019
1.15074
1.1508
1.14995
1.14862
1.14844
1.14834
1.14884
1.1506
1.15055
1.14754
1.1445
1.14437
1.1456
1.14617
1.14616
1.14694
1.14908
1.15102
1.15254
1.1532
1.1533
1.15319
1.15274
1.15264
1.1528
1.15268
1.1519
1.15065
1.14896
1.14652
1.14519
1.1452
1.14609
1.1493
1.15375
1.15531
1.15512
1.15496
1.15463
1.1545
1.1546
1.15522
1.1565
1.15728
1.15746
1.15719
1.15672
1.15686
1.15807
1.16073
1.16249
1.16253
1.16223
1.16183
1.16157
1.16131
1.16129
1.16168
1.16243
1.16268
1.16265
1.16251
1.16241
1.16239
1.16243
1.16244
1.16247
1.16258
1.16276
1.16285
1.16292
1.16308
1.16312
1.16307
1.16297
1.16283
1.16263
1.1624
1.16232
1.16228
1.16234
1.16245
1.16287
1.16493
1.17177
1.19047
1.21999
1.25895
1.30614
1.16082
1.15989
1.15996
1.15983
1.15659
1.15362
1.15306
1.15214
1.15085
1.15095
1.15132
1.151
1.15023
1.1491
1.14777
1.14731
1.14719
1.14738
1.14766
1.14713
1.14562
1.14537
1.14627
1.14724
1.14702
1.14709
1.14871
1.15095
1.15205
1.15295
1.15441
1.15655
1.15742
1.15749
1.1576
1.15832
1.15923
1.15905
1.15805
1.15594
1.15226
1.14783
1.14603
1.14655
1.14846
1.15121
1.15357
1.15444
1.15415
1.15359
1.15337
1.15323
1.1534
1.15522
1.1568
1.15692
1.15588
1.15356
1.15275
1.15285
1.15382
1.15594
1.15797
1.15896
1.15926
1.15915
1.15837
1.15779
1.15788
1.15871
1.15997
1.1607
1.16112
1.16142
1.16166
1.16199
1.16228
1.16256
1.16282
1.16304
1.16307
1.16311
1.16335
1.16351
1.16353
1.16351
1.16342
1.16324
1.16284
1.16264
1.16252
1.16247
1.16252
1.16265
1.16283
1.16361
1.16699
1.17804
1.20021
1.25182
1.18624
1.18476
1.18305
1.18124
1.17933
1.17774
1.17643
1.1751
1.17485
1.17556
1.17731
1.17778
1.17625
1.17049
1.16694
1.16677
1.16692
1.16584
1.16241
1.16062
1.16064
1.16142
1.16167
1.16084
1.15937
1.15952
1.16038
1.16026
1.15869
1.15769
1.1579
1.15957
1.16192
1.16275
1.16331
1.1646
1.16623
1.16669
1.167
1.16652
1.16458
1.16142
1.15815
1.15554
1.15431
1.15478
1.15622
1.15657
1.15591
1.15415
1.15307
1.15269
1.15263
1.15337
1.15492
1.15574
1.15594
1.15569
1.15432
1.15294
1.15249
1.15229
1.15225
1.15273
1.15386
1.15458
1.15448
1.15405
1.15391
1.15438
1.15546
1.15686
1.15841
1.15973
1.16063
1.16129
1.16197
1.16249
1.16279
1.163
1.1631
1.16317
1.16333
1.16355
1.1636
1.16362
1.16358
1.16341
1.16315
1.16284
1.16274
1.16266
1.16269
1.16279
1.16292
1.16292
1.16303
1.16442
1.16952
1.20143
1.20148
1.19957
1.19859
1.19799
1.19832
1.19931
1.19954
1.20126
1.20559
1.20777
1.20784
1.20682
1.20513
1.20479
1.2055
1.20766
1.20811
1.20629
1.20327
1.2011
1.19807
1.19537
1.19547
1.19666
1.19649
1.19396
1.18901
1.18268
1.1746
1.16918
1.1686
1.16938
1.17148
1.1727
1.17258
1.17249
1.17242
1.17061
1.16904
1.16977
1.16898
1.16813
1.16798
1.16794
1.16676
1.1651
1.16477
1.16465
1.1647
1.16439
1.16088
1.15496
1.15346
1.15351
1.15417
1.15549
1.15815
1.16186
1.16286
1.16112
1.15667
1.15311
1.15261
1.15293
1.15348
1.15444
1.15584
1.15632
1.15602
1.15457
1.1538
1.15408
1.1551
1.15644
1.1571
1.1571
1.15731
1.15795
1.15876
1.15962
1.16051
1.16138
1.16195
1.1625
1.16305
1.16336
1.16342
1.16321
1.16274
1.16263
1.16265
1.16278
1.16314
1.16319
1.16308
1.16284
1.16266
1.16269
1.16316
1.17288
1.25682
1.25669
1.25652
1.2565
1.25746
1.25897
1.25936
1.25898
1.25723
1.25546
1.2549
1.25448
1.2541
1.25396
1.25261
1.25161
1.25131
1.25056
1.24834
1.24318
1.23863
1.23723
1.23763
1.23872
1.23852
1.23716
1.23595
1.23405
1.22927
1.22671
1.22787
1.2286
1.227
1.22447
1.22392
1.22328
1.22058
1.2164
1.21267
1.20717
1.19883
1.19402
1.19305
1.19171
1.18941
1.18908
1.19213
1.19439
1.19442
1.19337
1.18945
1.1841
1.17809
1.17011
1.16448
1.16419
1.16685
1.17148
1.17207
1.17075
1.16879
1.16582
1.16065
1.15579
1.15456
1.15497
1.1572
1.15879
1.15841
1.15629
1.15404
1.15381
1.15395
1.15418
1.15424
1.15415
1.15421
1.15459
1.15536
1.1564
1.15757
1.15873
1.15966
1.16049
1.16166
1.1624
1.16234
1.16195
1.16191
1.16211
1.1625
1.16305
1.16328
1.16328
1.16317
1.16284
1.16253
1.16255
1.1627
1.16467
1.33052
1.33051
1.32953
1.32904
1.32906
1.32852
1.32497
1.32283
1.32279
1.32434
1.32615
1.3261
1.32442
1.32368
1.32394
1.32308
1.3201
1.31925
1.31898
1.31759
1.31568
1.31161
1.30236
1.29801
1.2981
1.29744
1.29335
1.29089
1.28952
1.28684
1.28264
1.27915
1.27529
1.26992
1.26875
1.26839
1.26556
1.26358
1.26446
1.26428
1.26133
1.25631
1.25199
1.2473
1.24159
1.23742
1.23279
1.22762
1.22194
1.21455
1.21198
1.21346
1.21408
1.20894
1.20142
1.20112
1.2009
1.19491
1.18266
1.17882
1.18035
1.18142
1.18009
1.17748
1.17316
1.1666
1.16264
1.16246
1.16217
1.16083
1.1585
1.15645
1.15644
1.15644
1.15605
1.15626
1.1576
1.15891
1.15862
1.15861
1.15873
1.15837
1.15779
1.15776
1.15799
1.15867
1.1592
1.15987
1.16066
1.16159
1.16209
1.16267
1.1628
1.16272
1.16255
1.16255
1.16271
1.16315
1.16333
1.16342
1.40844
1.40821
1.40839
1.40942
1.40946
1.40699
1.40057
1.39583
1.39535
1.39644
1.39831
1.39801
1.39441
1.39317
1.39251
1.38849
1.38508
1.38469
1.38373
1.38166
1.38178
1.38149
1.37812
1.37262
1.37014
1.36806
1.36487
1.36446
1.36431
1.36276
1.35658
1.35299
1.35171
1.34998
1.34752
1.34318
1.3384
1.33549
1.33182
1.32666
1.31954
1.31445
1.31245
1.31058
1.30477
1.29701
1.29618
1.29541
1.29205
1.28595
1.27965
1.27457
1.26787
1.25515
1.2469
1.24673
1.24873
1.24738
1.24097
1.23388
1.22364
1.21037
1.20642
1.20739
1.20775
1.20584
1.19825
1.18721
1.18339
1.18355
1.18258
1.17852
1.17405
1.17134
1.16876
1.16645
1.16481
1.16229
1.15891
1.15758
1.15645
1.15541
1.15529
1.15542
1.1559
1.15645
1.15715
1.15789
1.15842
1.159
1.15963
1.16034
1.16096
1.16141
1.16189
1.16239
1.16338
1.16401
1.16399
1.16371
1.4894
1.48887
1.48907
1.49006
1.49015
1.48873
1.48654
1.48393
1.48012
1.47787
1.47803
1.47812
1.47784
1.47665
1.47191
1.47025
1.47021
1.46887
1.46703
1.46497
1.46244
1.45996
1.45633
1.45097
1.44984
1.44909
1.44777
1.44438
1.43979
1.43657
1.43407
1.43115
1.42709
1.42189
1.41746
1.41451
1.41249
1.40987
1.40676
1.40349
1.39932
1.39383
1.38883
1.38505
1.38007
1.37342
1.36411
1.35549
1.35271
1.35085
1.3472
1.34226
1.33675
1.32913
1.32029
1.31343
1.30705
1.29645
1.29039
1.28767
1.28148
1.27312
1.2653
1.25222
1.24466
1.24222
1.23911
1.23256
1.22047
1.21067
1.20645
1.20229
1.19506
1.18752
1.18202
1.17656
1.17154
1.1674
1.16269
1.16003
1.15873
1.15775
1.15792
1.15819
1.15942
1.16107
1.16128
1.16084
1.15985
1.15863
1.15791
1.15815
1.15855
1.15936
1.16056
1.16221
1.16321
1.16379
1.1637
1.16329
1.57862
1.57782
1.57629
1.57204
1.56943
1.5697
1.57016
1.56922
1.56716
1.5653
1.56222
1.55871
1.55838
1.55854
1.55789
1.55551
1.54968
1.54702
1.54684
1.54634
1.54417
1.54088
1.53855
1.53658
1.53362
1.53055
1.52815
1.52545
1.52233
1.51936
1.5159
1.51258
1.50936
1.50504
1.50022
1.4959
1.49245
1.48918
1.4844
1.47919
1.47497
1.47038
1.46428
1.45859
1.45437
1.44987
1.4435
1.43668
1.43193
1.42778
1.42185
1.41421
1.40669
1.39927
1.39111
1.38392
1.37837
1.37224
1.36464
1.35589
1.34411
1.3361
1.33079
1.32237
1.31418
1.3034
1.29145
1.28562
1.28019
1.26991
1.25825
1.25166
1.24504
1.236
1.22775
1.21998
1.21215
1.20648
1.20077
1.19363
1.18725
1.18188
1.17694
1.1721
1.16894
1.16537
1.16223
1.15939
1.15755
1.15682
1.157
1.15774
1.1592
1.16087
1.16162
1.16172
1.16135
1.16146
1.16175
1.16231
1.66862
1.66797
1.66604
1.66505
1.66431
1.66163
1.65682
1.65546
1.65594
1.65593
1.65499
1.65252
1.64754
1.64458
1.64474
1.64461
1.64314
1.63795
1.63396
1.6331
1.63244
1.62921
1.62509
1.62308
1.62143
1.61769
1.61319
1.61085
1.60903
1.60658
1.60263
1.59732
1.59293
1.58929
1.58531
1.58067
1.57599
1.57215
1.56827
1.56365
1.55896
1.55423
1.54868
1.54187
1.53611
1.53117
1.52576
1.5174
1.51028
1.50554
1.50021
1.49272
1.48544
1.47889
1.47185
1.46309
1.4534
1.4448
1.43738
1.4304
1.42264
1.41286
1.40264
1.39078
1.38173
1.37399
1.36509
1.35201
1.34068
1.3324
1.3223
1.30993
1.2984
1.2879
1.27599
1.2658
1.25598
1.24404
1.23387
1.22417
1.21471
1.20437
1.1945
1.18583
1.17858
1.17093
1.16559
1.16279
1.16074
1.16055
1.16194
1.16515
1.16497
1.16401
1.16269
1.16027
1.15895
1.15929
1.15997
1.16125
1.76052
1.76071
1.76084
1.7603
1.75885
1.75753
1.75595
1.75243
1.74784
1.74693
1.74731
1.74719
1.74591
1.74027
1.73682
1.73659
1.73622
1.73365
1.72711
1.72522
1.72464
1.7233
1.7183
1.71395
1.71227
1.71051
1.70637
1.70044
1.69794
1.69619
1.69388
1.68917
1.68097
1.6763
1.67391
1.67099
1.66657
1.66095
1.65507
1.64992
1.64483
1.63947
1.63365
1.62743
1.62149
1.61605
1.61039
1.60327
1.59544
1.58812
1.5816
1.57494
1.56686
1.55865
1.5509
1.543
1.53421
1.52461
1.51591
1.50714
1.49738
1.48749
1.47795
1.46844
1.45841
1.44551
1.43453
1.42555
1.41431
1.40109
1.39013
1.37842
1.36476
1.3531
1.34158
1.32782
1.316
1.30442
1.29179
1.27868
1.26778
1.25745
1.24601
1.23561
1.22509
1.21566
1.20554
1.1978
1.19031
1.18244
1.17667
1.1716
1.16594
1.162
1.1598
1.15852
1.15858
1.15931
1.16123
1.16236
1.86399
1.8607
1.86029
1.86079
1.86078
1.85832
1.85651
1.85491
1.851
1.84622
1.8452
1.84564
1.84548
1.84377
1.83781
1.83389
1.83369
1.83322
1.83061
1.82391
1.8209
1.82011
1.81832
1.81367
1.80923
1.80625
1.80274
1.79858
1.79421
1.79072
1.78781
1.78414
1.7783
1.77155
1.76661
1.76272
1.75841
1.75307
1.74694
1.7419
1.7373
1.73148
1.7241
1.71674
1.71049
1.70529
1.69974
1.69234
1.68342
1.67545
1.66766
1.65989
1.6525
1.64431
1.63519
1.6262
1.61712
1.60756
1.59785
1.58804
1.57753
1.56749
1.55728
1.54553
1.53511
1.52461
1.51192
1.50005
1.4893
1.47637
1.46306
1.45098
1.4378
1.42297
1.41081
1.39734
1.38198
1.36812
1.35434
1.34053
1.3258
1.31254
1.29846
1.28338
1.26846
1.25507
1.24188
1.22864
1.21672
1.20435
1.19105
1.17939
1.17133
1.16616
1.16305
1.16289
1.16352
1.16554
1.16536
1.16368
1.97084
1.96793
1.96788
1.96881
1.96897
1.96638
1.96324
1.96214
1.95939
1.95381
1.95029
1.95038
1.95078
1.95017
1.94637
1.93843
1.93655
1.9362