/*--------------------------------*- C++ -*----------------------------------*\
  =========                 |
  \\      /  F ield         | OpenFOAM: The Open Source CFD Toolbox
   \\    /   O peration     | Website:  https://openfoam.org
    \\  /    A nd           | Version:  7
     \\/     M anipulation  |
\*---------------------------------------------------------------------------*/
FoamFile
{
    version     2.0;
    format      ascii;
    class       volScalarField;
    location    "4.5";
    object      rho;
}
// * * * * * * * * * * * * * * * * * * * * * * * * * * * * * * * * * * * * * //

dimensions      [1 -3 0 0 0 0 0];

internalField   nonuniform List<scalar> 
1750
(
0.407215
0.587974
0.721592
0.816862
0.934572
0.936837
0.918154
0.907984
0.917313
0.91978
0.252771
0.333577
0.493727
0.6111
0.738229
0.808743
0.869556
0.897943
0.953925
0.94578
0.27979
0.29789
0.298509
0.306839
0.342032
0.44079
0.601849
0.777919
0.885613
0.929282
0.325573
0.338532
0.344202
0.324163
0.31892
0.327369
0.34709
0.408248
0.511327
0.756317
0.395502
0.406371
0.430632
0.443771
0.444342
0.447885
0.460314
0.481618
0.478433
0.50121
0.565551
0.571602
0.602721
0.611163
0.603977
0.59013
0.574742
0.555749
0.54268
0.522576
0.805222
0.750008
0.748978
0.749353
0.737457
0.706915
0.686002
0.662914
0.630997
0.624489
1.08588
1.01876
0.973173
0.952446
0.918946
0.874203
0.84936
0.830419
0.800805
0.747635
1.39016
1.3191
1.24797
1.19062
1.13545
1.07705
1.02002
0.977372
0.939407
0.86797
1.85127
1.73414
1.61636
1.50881
1.41265
1.32476
1.24828
1.17069
1.11075
1.02785
2.29653
2.21957
2.10442
1.9666
1.83484
1.69881
1.57524
1.46199
1.36514
1.23152
2.30156
2.30175
2.29006
2.25081
2.1907
2.11213
2.00222
1.87496
1.75514
1.56329
1.96743
2.08355
2.14569
2.18628
2.18299
2.17393
2.148
2.10035
2.04619
1.92398
1.49554
1.56
1.64823
1.75266
1.85944
1.95695
2.01747
2.04333
2.03391
2.0064
1.40273
1.40644
1.41522
1.43366
1.46958
1.52912
1.61554
1.72408
1.83609
2.00219
0.25869
0.233255
0.247406
0.327194
0.420472
0.597599
0.861628
1.12005
1.46156
1.97634
2.34429
2.29829
1.86632
1.45775
1.40137
0.267245
0.232587
0.253518
0.370363
0.502738
0.693725
0.934611
1.21546
1.63763
2.16827
2.38044
2.25396
1.72525
1.42398
1.40042
0.296217
0.241768
0.261711
0.391013
0.531
0.728296
0.979666
1.3438
1.81795
2.31682
2.38884
2.16886
1.5967
1.40982
1.40015
0.314352
0.248695
0.256974
0.380122
0.530366
0.772253
1.12258
1.56266
2.02668
2.42363
2.39233
2.00789
1.50809
1.40365
1.40005
0.314792
0.246178
0.234644
0.359301
0.558749
0.908797
1.33923
1.73801
2.21647
2.46919
2.37246
1.84722
1.44879
1.4011
1.40002
0.282818
0.226561
0.222462
0.404147
0.752271
1.11294
1.48161
1.89959
2.38604
2.48338
2.28721
1.66073
1.41558
1.40028
1.40001
0.219169
0.210404
0.248762
0.580931
0.918248
1.24273
1.62577
2.15625
2.5073
2.47735
2.06267
1.52395
1.40496
1.40007
1.40001
0.15235
0.207816
0.396898
0.72291
1.02326
1.40314
1.90289
2.41209
2.57404
2.43563
1.86984
1.45667
1.4015
1.40002
1.40001
0.116393
0.271343
0.516976
0.805864
1.18538
1.71637
2.23374
2.5833
2.59762
2.31208
1.65407
1.41611
1.40031
1.40001
1.40001
0.106276
0.336362
0.608826
0.95865
1.56561
2.06346
2.49414
2.6595
2.59439
1.99522
1.48416
1.40296
1.40005
1.40001
1.40001
0.0946124
0.392936
0.775963
1.36634
1.93949
2.35644
2.68542
2.68076
2.34826
1.68685
1.42404
1.40061
1.40001
1.40001
1.40001
0.0829742
0.548214
1.17235
1.80801
2.28229
2.6167
2.76053
2.65964
2.03261
1.50959
1.40473
1.40009
1.40001
1.40001
1.40001
0.240209
0.943575
1.69874
2.22211
2.62085
2.75474
2.77941
2.36393
1.69417
1.4229
1.40058
1.40001
1.40001
1.40001
1.40001
0.739245
1.57731
2.21645
2.59441
2.82222
2.8032
2.64247
1.96201
1.4765
1.40307
1.40006
1.40001
1.40001
1.40001
1.40001
1.65076
2.32229
2.65111
2.79954
2.86502
2.81432
2.23555
1.55609
1.40661
1.40013
1.40001
1.40001
1.40001
1.40001
1.40001
2.89047
2.84993
2.8109
2.84173
2.86914
2.56194
1.6432
1.38947
1.39886
1.39998
1.4
1.40001
1.40001
1.40001
1.40001
2.88583
2.84923
2.805
2.82688
2.82582
2.31024
1.55893
1.40508
1.40006
1.40001
1.40001
1.40001
1.40001
1.40001
1.40001
2.82867
2.86539
2.88904
2.86438
2.76687
1.9778
1.43339
1.40015
1.40001
1.40001
1.40001
1.40001
1.40001
1.40001
1.40001
2.78945
2.87658
2.96801
2.88546
2.53641
1.62343
1.40428
1.40002
1.40001
1.40001
1.40001
1.40001
1.40001
1.40001
1.40001
2.77654
2.89103
3.01172
2.83066
2.13659
1.46718
1.40048
1.40001
1.40001
1.40001
1.40001
1.40001
1.40001
1.40001
1.40001
2.81349
2.94434
3.0411
2.67669
1.77165
1.41137
1.40004
1.40001
1.40001
1.40001
1.40001
1.40001
1.40001
1.40001
1.40001
2.92022
2.97755
3.05063
2.32477
1.49347
1.40077
1.40001
1.40001
1.40001
1.40001
1.40001
1.40001
1.40001
1.40001
1.40001
3.14407
3.00554
2.7815
1.80244
1.4139
1.40005
1.40001
1.40001
1.40001
1.40001
1.40001
1.40001
1.40001
1.40001
1.40001
3.38177
2.90463
2.34119
1.51645
1.4011
1.40001
1.40001
1.40001
1.40001
1.40001
1.40001
1.40001
1.40001
1.40001
1.40001
3.49558
2.72598
1.82966
1.41417
1.40006
1.40001
1.40001
1.40001
1.40001
1.40001
1.40001
1.40001
1.40001
1.40001
1.40001
3.44087
2.34709
1.5492
1.40196
1.40001
1.40001
1.40001
1.40001
1.40001
1.40001
1.40001
1.40001
1.40001
1.40001
1.40001
3.15008
1.9656
1.4361
1.4002
1.40001
1.40001
1.40001
1.40001
1.40001
1.40001
1.40001
1.40001
1.40001
1.40001
1.40001
2.75918
1.66178
1.40673
1.40003
1.40001
1.40001
1.40001
1.40001
1.40001
1.40001
1.40001
1.40001
1.40001
1.40001
1.40001
2.25803
1.49324
1.40097
1.40001
1.40001
1.40001
1.40001
1.40001
1.40001
1.40001
1.40001
1.40001
1.40001
1.40001
1.40001
1.76667
1.41546
1.40006
1.40001
1.40001
1.40001
1.40001
1.40001
1.40001
1.40001
1.40001
1.40001
1.40001
1.40001
1.40001
1.40001
1.40001
1.40001
1.40001
1.40001
1.40001
1.40001
1.40001
1.40001
1.40001
1.40001
1.40001
1.40001
1.40001
1.40001
1.40001
1.40001
1.40001
1.40001
1.40001
1.40001
1.40001
1.40001
1.40001
1.40001
1.40001
1.40001
1.40001
1.40001
1.40001
1.40001
1.40001
1.40001
1.40001
1.40001
1.40001
1.40001
1.40001
1.40001
1.40001
1.40001
1.40001
1.40001
1.40001
1.40001
1.40001
1.40001
1.40001
1.40001
1.40001
1.40001
1.40001
1.40001
1.40001
1.40001
1.40001
1.40001
1.40001
1.40001
1.40001
1.40001
1.40001
1.40001
1.40001
1.40001
1.40001
1.40001
1.40001
1.40001
1.40001
1.40001
1.40001
1.40001
1.40001
1.40001
1.40001
1.40001
1.40001
1.40001
1.40001
1.40001
1.40001
1.40001
1.40001
1.40001
1.40001
1.40001
1.40001
1.40001
1.40001
1.40001
1.40001
1.40001
1.40001
1.40001
1.40001
1.40001
1.40001
1.40001
1.40001
1.40001
1.40001
1.40001
1.40001
1.40001
1.40001
1.40001
1.40001
1.40001
1.40001
1.40001
1.40001
1.40001
1.40001
1.40001
1.40001
1.40001
1.40001
1.40001
1.40001
1.40001
1.40001
1.40001
1.40001
1.40001
1.40001
1.40001
1.40001
1.40001
1.40001
1.40001
1.40001
1.40001
1.40001
1.40001
1.40001
1.40001
1.40001
1.40001
1.40001
1.40001
1.40001
1.40001
1.40001
1.40001
1.40001
1.40001
1.40001
1.40001
1.40001
1.40001
1.40001
1.40001
1.40001
1.40001
1.40001
1.40001
1.40001
1.40001
1.40001
1.40001
1.40001
1.40001
1.40001
1.40001
1.40001
1.40001
1.40001
1.40001
1.40001
1.40001
1.40001
1.40001
1.40001
1.40001
1.40001
1.40001
1.40001
1.40001
1.40001
1.40001
1.40001
1.40001
1.40001
1.40001
1.40001
1.40001
1.40001
1.40001
1.40001
1.40001
1.40001
1.40001
1.40001
1.40001
1.40001
1.40001
1.40001
1.40001
1.40001
1.40001
1.40001
1.40001
1.40001
1.40001
1.40001
1.40001
1.40001
1.40001
1.40001
1.40001
1.40001
1.40001
1.40001
1.40001
1.40001
1.40001
1.40001
1.40001
1.40001
1.40001
1.40001
1.40001
1.40001
1.40001
1.40001
1.40001
1.40001
1.40001
1.40001
1.40001
1.40001
1.40001
1.40001
1.40001
1.40001
1.40001
1.40001
1.40001
1.40001
1.40001
1.40001
1.40001
1.40001
1.40001
1.40001
1.40001
1.40001
1.40001
1.40001
1.40001
1.40001
1.40001
1.40001
1.40001
1.40001
1.40001
1.40001
1.40001
1.40001
1.40001
1.40001
1.40001
1.40001
1.40001
1.40001
1.40001
1.40001
1.40001
1.40001
1.40001
1.40001
1.40001
1.40001
1.40001
1.40001
1.40001
1.40001
1.40001
1.40001
1.40001
1.40001
1.40001
1.40001
1.40001
1.40001
1.40001
1.40001
1.40001
1.40001
1.40001
1.40001
1.40001
1.40001
1.40001
1.40001
1.40001
1.40001
1.40001
1.40001
1.40001
1.40001
1.40001
1.40001
1.40001
1.40001
1.40001
1.40001
1.40001
1.40001
1.40001
1.40001
1.40001
1.40001
1.40001
1.40001
1.40001
1.40001
1.40001
1.40001
1.40001
1.40001
1.40001
1.40001
1.40001
1.40001
1.40001
1.40001
1.40001
1.40001
1.40001
1.40001
1.40001
1.40001
1.40001
1.40001
1.40001
1.40001
1.40001
1.40001
1.40001
1.40001
1.40001
1.40001
1.40001
1.40001
1.40001
1.40001
1.40001
1.40001
2.09537
1.41261
1.40001
1.40001
1.40001
1.40001
1.40001
1.40001
1.40001
1.40001
1.40001
1.40001
1.40001
1.40001
1.40001
1.40001
1.40001
1.40001
1.40001
1.40001
3.01409
1.59447
1.39943
1.40001
1.40001
1.40001
1.40001
1.40001
1.40001
1.40001
1.40001
1.40001
1.40001
1.40001
1.40001
1.40001
1.40001
1.40001
1.40001
1.40001
4.04202
2.127
1.41279
1.39997
1.40001
1.40001
1.40001
1.40001
1.40001
1.40001
1.40001
1.40001
1.40001
1.40001
1.40001
1.40001
1.40001
1.40001
1.40001
1.40001
4.46825
3.08766
1.76646
1.40066
1.40001
1.40001
1.40001
1.40001
1.40001
1.40001
1.40001
1.40001
1.40001
1.40001
1.40001
1.40001
1.40001
1.40001
1.40001
1.40001
4.30055
3.70513
2.88566
1.58329
1.39974
1.4
1.40001
1.40001
1.40001
1.40001
1.40001
1.40001
1.40001
1.40001
1.40001
1.40001
1.40001
1.40001
1.40001
1.40001
3.8373
3.69114
3.56633
2.49364
1.49787
1.39979
1.4
1.40001
1.40001
1.40001
1.40001
1.40001
1.40001
1.40001
1.40001
1.40001
1.40001
1.40001
1.40001
1.40001
3.45846
3.5656
3.71224
3.37586
2.06448
1.4168
1.39996
1.4
1.40001
1.40001
1.40001
1.40001
1.40001
1.40001
1.40001
1.40001
1.40001
1.40001
1.40001
1.40001
3.42955
3.50514
3.64298
3.55471
3.01796
1.71691
1.40124
1.40001
1.40001
1.40001
1.40001
1.40001
1.40001
1.40001
1.40001
1.40001
1.40001
1.40001
1.40001
1.40001
3.45324
3.49194
3.53954
3.48093
3.35835
2.49083
1.50302
1.39996
1.4
1.40001
1.40001
1.40001
1.40001
1.40001
1.40001
1.40001
1.40001
1.40001
1.40001
1.40001
3.50351
3.48805
3.44724
3.45435
3.46491
3.18842
1.93012
1.40887
1.39999
1.4
1.40001
1.40001
1.40001
1.40001
1.40001
1.40001
1.40001
1.40001
1.40001
1.40001
3.51791
3.49935
3.47237
3.47542
3.48711
3.41215
2.69201
1.56928
1.4003
1.4
1.40001
1.40001
1.40001
1.40001
1.40001
1.40001
1.40001
1.40001
1.40001
1.40001
3.52639
3.52412
3.51024
3.49177
3.4591
3.40528
3.18198
2.08392
1.4265
1.4
1.40001
1.40001
1.40001
1.40001
1.40001
1.40001
1.40001
1.40001
1.40001
1.40001
3.53415
3.5346
3.51598
3.47962
3.43135
3.43697
3.46053
2.85473
1.62084
1.40082
1.40001
1.40001
1.40001
1.40001
1.40001
1.40001
1.40001
1.40001
1.40001
1.40001
3.53839
3.53339
3.51357
3.47618
3.44582
3.4679
3.48285
3.25158
2.18848
1.47125
1.40087
1.40001
1.40001
1.40001
1.40001
1.40001
1.40001
1.40001
1.40001
1.40001
3.54539
3.53378
3.50058
3.47476
3.46292
3.47037
3.4662
3.34172
2.75083
1.52068
1.39019
1.39915
1.4
1.4
1.40001
1.40001
1.40001
1.40001
1.40001
1.40001
1.72362
2.60137
3.04656
3.26276
3.36956
3.4265
3.45646
3.39142
3.42422
2.60023
1.64559
1.41582
1.40042
1.40001
1.40001
1.40001
1.40001
1.40001
1.40001
1.40001
0.486346
1.56238
2.27387
2.69626
3.00782
3.21539
3.35553
3.41138
3.45132
3.2741
2.44805
1.62181
1.41418
1.40035
1.40001
1.40001
1.40001
1.40001
1.40001
1.40001
0.159564
0.797213
1.5058
2.06683
2.47059
2.81441
3.08662
3.28455
3.4087
3.38367
3.19253
2.30328
1.55482
1.40725
1.40014
1.40001
1.40001
1.40001
1.40001
1.40001
0.1811
0.502943
0.914837
1.47129
1.9621
2.33585
2.70684
2.99691
3.22869
3.3499
3.34116
2.98008
2.04112
1.47714
1.40256
1.40004
1.40001
1.40001
1.40001
1.40001
0.307089
0.487258
0.658754
0.981919
1.45679
1.88325
2.26974
2.61357
2.9382
3.17692
3.30198
3.25912
2.68955
1.76084
1.42477
1.40048
1.40001
1.40001
1.40001
1.40001
0.444229
0.456315
0.539686
0.798908
1.11094
1.50315
1.85403
2.24381
2.58792
2.90611
3.14631
3.24067
3.15147
2.34527
1.5644
1.407
1.40011
1.40001
1.40001
1.40001
0.473173
0.405016
0.412713
0.670672
0.914748
1.23666
1.55805
1.92372
2.29243
2.63075
2.89015
3.16092
3.16755
2.87534
1.93076
1.44786
1.40109
1.40002
1.40001
1.40001
0.469329
0.390373
0.370921
0.531955
0.746824
1.01337
1.31788
1.6316
2.01719
2.32858
2.62687
2.96379
3.13342
3.08627
2.49412
1.6193
1.40915
1.40013
1.40001
1.40001
0.453937
0.40258
0.403144
0.521845
0.653947
0.847825
1.10722
1.39759
1.73973
2.017
2.34365
2.67248
3.00182
3.06919
2.8426
1.99108
1.45564
1.4011
1.40002
1.40001
0.435399
0.421192
0.463057
0.516773
0.604344
0.780597
0.987695
1.24534
1.52263
1.82329
2.09672
2.42027
2.75804
3.00639
2.95902
2.37116
1.59411
1.4075
1.40009
1.40001
0.415499
0.434575
0.507038
0.501958
0.536099
0.72141
0.889688
1.13144
1.38659
1.66993
1.93323
2.24249
2.54522
2.88148
2.94747
2.71335
1.84156
1.43212
1.40054
1.40001
0.414492
0.444319
0.501644
0.484812
0.483873
0.608075
0.762788
0.988484
1.23751
1.50102
1.77374
2.05315
2.35585
2.70183
2.90631
2.86158
2.24202
1.51666
1.40293
1.40003
0.428361
0.462476
0.497742
0.480107
0.478672
0.569927
0.696417
0.839435
1.07118
1.28998
1.58745
1.82225
2.12565
2.4667
2.80467
2.83646
2.49586
1.70867
1.41524
1.40018
0.448035
0.470997
0.496552
0.48623
0.486697
0.57095
0.675958
0.815487
0.98859
1.19112
1.4531
1.69852
1.94952
2.25894
2.64104
2.7843
2.62712
1.9214
1.44753
1.4008
0.448702
0.466125
0.492827
0.487839
0.488871
0.553206
0.632762
0.776102
0.92472
1.10901
1.33819
1.59176
1.82108
2.09486
2.45864
2.71816
2.70837
2.19901
1.52196
1.4032
0.530539
0.476706
0.491877
0.488349
0.498922
0.537695
0.591094
0.745443
0.877277
1.05235
1.2571
1.50129
1.73132
1.96861
2.32526
2.66076
2.69985
2.38656
1.65106
1.41067
0.614924
0.511127
0.502856
0.503209
0.516817
0.526503
0.558464
0.700932
0.815623
0.95726
1.15023
1.36137
1.61101
1.83655
2.15573
2.54855
2.67209
2.48304
1.813
1.42994
0.697058
0.573648
0.517744
0.521203
0.520726
0.51951
0.56164
0.696783
0.796237
0.927776
1.10527
1.30148
1.52114
1.75104
2.01001
2.38443
2.61287
2.55837
2.01588
1.47888
0.809397
0.702974
0.543799
0.51932
0.516019
0.513131
0.564147
0.685131
0.776899
0.906379
1.06764
1.25948
1.4512
1.66666
1.89828
2.23397
2.54508
2.54999
2.19626
1.57633
0.94006
0.846082
0.594006
0.502006
0.499343
0.499137
0.566631
0.660018
0.732116
0.869433
1.01571
1.18838
1.36144
1.55452
1.76813
2.07073
2.43488
2.5204
2.31781
1.73573
0.998932
0.957501
0.736126
0.504788
0.487341
0.492306
0.568117
0.635413
0.692243
0.832531
0.960365
1.11334
1.2869
1.46205
1.65924
1.91755
2.28666
2.46646
2.38503
1.94718
0.979154
1.03785
0.942836
0.577879
0.48265
0.489308
0.561
0.612368
0.676119
0.813781
0.920164
1.05617
1.22733
1.39334
1.5774
1.80476
2.14032
2.40828
2.38482
2.19905
0.949161
1.02891
0.994408
0.765683
0.502997
0.486274
0.547411
0.591076
0.652405
0.78528
0.884428
1.00383
1.15877
1.32072
1.489
1.68959
1.99356
2.32644
2.37839
2.45499
0.927801
0.999977
1.03856
0.955089
0.58032
0.478345
0.529054
0.572169
0.650944
0.749262
0.845891
0.967044
1.09897
1.25175
1.41093
1.59182
1.8559
2.21306
2.39265
2.66011
0.933042
0.98234
1.0445
1.02161
0.81505
0.535582
0.515721
0.559954
0.639707
0.700221
0.783072
0.901656
1.00974
1.14373
1.28863
1.449
1.65881
1.99923
2.38251
2.86557
)
;

boundaryField
{
    inlet
    {
        type            calculated;
        value           uniform 1.40001;
    }
    outlet
    {
        type            calculated;
        value           nonuniform List<scalar> 
35
(
0.933148
0.982453
1.04459
1.02165
0.815302
0.535933
0.515853
0.560031
0.639669
0.700346
0.783405
0.901818
1.00989
1.14398
1.28889
1.44922
1.65887
1.99929
2.38379
2.86809
0.919942
0.946073
0.929508
0.756573
0.501349
0.522604
0.624514
0.747977
0.868256
1.02797
1.23166
1.56336
1.92422
2.00678
2.00309
)
;
    }
    airfoil
    {
        type            calculated;
        value           nonuniform List<scalar> 
60
(
0.25869
0.267245
0.296217
0.314352
0.314792
0.282818
0.219169
0.15235
0.116393
0.106276
0.0946124
0.0829742
0.240209
0.739245
1.65076
2.89047
2.88583
2.82867
2.78945
2.77654
2.81349
2.92022
3.14407
3.38177
3.49558
3.44087
3.15008
2.75918
2.25803
1.76667
2.09537
3.01409
4.04202
4.46825
4.30055
3.8373
3.45846
3.42955
3.45324
3.50351
3.51791
3.52639
3.53415
3.53839
3.54539
1.72362
0.486346
0.159564
0.1811
0.307089
0.444229
0.473173
0.469329
0.453937
0.435399
0.415499
0.414492
0.428361
0.448035
0.448702
)
;
    }
    top
    {
        type            symmetryPlane;
    }
    bottom
    {
        type            symmetryPlane;
    }
    defaultFaces
    {
        type            empty;
    }
}


// ************************************************************************* //
