/*--------------------------------*- C++ -*----------------------------------*\
  =========                 |
  \\      /  F ield         | OpenFOAM: The Open Source CFD Toolbox
   \\    /   O peration     | Website:  https://openfoam.org
    \\  /    A nd           | Version:  7
     \\/     M anipulation  |
\*---------------------------------------------------------------------------*/
FoamFile
{
    version     2.0;
    format      ascii;
    class       volScalarField;
    location    "10";
    object      p;
}
// * * * * * * * * * * * * * * * * * * * * * * * * * * * * * * * * * * * * * //

dimensions      [1 -1 -2 0 0 0 0];

internalField   nonuniform List<scalar> 
90000
(
0.945474
0.942859
0.942736
0.942753
0.944425
0.94645
0.949653
0.953058
0.956914
0.959947
0.963146
0.965417
0.967825
0.969639
0.971913
0.973544
0.97542
0.976861
0.978689
0.980116
0.981837
0.983515
0.985492
0.987582
0.989908
0.992008
0.994549
0.996675
0.998815
1.00083
1.00279
1.00445
1.00585
1.0071
1.00696
1.00535
1.00086
0.995742
0.991862
0.988815
0.989043
0.990246
0.992281
0.994778
0.997028
0.999065
1.00029
1.00036
0.999664
0.99778
0.994759
0.992108
0.991187
0.99174
0.99355
0.996725
0.999258
1.00109
1.00083
0.999396
0.996461
0.993592
0.993517
0.99476
0.997606
0.999621
0.999402
0.99849
0.996608
0.995103
0.995512
0.997016
0.997782
0.997503
0.996273
0.995291
0.995369
0.996148
0.99676
0.996779
0.996735
0.996822
0.997304
0.997362
0.997014
0.996875
0.997109
0.997307
0.997134
0.996697
0.996398
0.996343
0.996525
0.996901
0.99739
0.997812
0.997805
0.997628
0.997316
0.996764
0.948374
0.948387
0.94843
0.948508
0.948633
0.948879
0.949257
0.949661
0.950216
0.950949
0.951876
0.953261
0.955147
0.957391
0.95957
0.961774
0.963774
0.965887
0.967963
0.970165
0.972029
0.97383
0.975597
0.977452
0.979444
0.981485
0.983625
0.98591
0.988293
0.990589
0.993033
0.995342
0.99745
0.999293
1.00052
1.00159
1.00276
1.00341
1.00266
1.00034
0.997101
0.993969
0.991756
0.990848
0.991289
0.992247
0.993733
0.995976
0.998195
1.00064
1.00045
0.999189
0.996583
0.994152
0.992639
0.993155
0.994534
0.997015
0.999331
1.00123
1.00025
0.997529
0.99516
0.994188
0.995052
0.996999
0.998723
0.99921
0.998074
0.996372
0.995657
0.99608
0.996952
0.997492
0.997099
0.996058
0.995632
0.99596
0.99672
0.997023
0.996923
0.996843
0.997067
0.997257
0.997188
0.997057
0.997152
0.997318
0.997343
0.997077
0.996636
0.996428
0.996444
0.996701
0.997185
0.997688
0.997823
0.997755
0.997596
0.99705
0.948396
0.948409
0.948409
0.948404
0.948408
0.948422
0.948445
0.948463
0.948476
0.948507
0.948593
0.948746
0.949007
0.949489
0.950136
0.951015
0.952032
0.95329
0.954688
0.956321
0.958049
0.959949
0.96193
0.964035
0.966182
0.968435
0.970685
0.9731
0.975618
0.978211
0.980957
0.983735
0.98665
0.989421
0.992155
0.994702
0.997218
0.998347
0.999178
0.9998
1.00058
1.00043
0.999336
0.997417
0.995315
0.993595
0.993323
0.993933
0.994995
0.996507
0.997945
0.999269
0.999769
0.99912
0.997042
0.994716
0.993658
0.994201
0.995781
0.997868
1.00016
1.00024
0.998694
0.996296
0.994452
0.994935
0.996459
0.998098
0.99911
0.99805
0.996368
0.995443
0.995873
0.996766
0.997223
0.996714
0.995758
0.995838
0.996272
0.996824
0.996846
0.996776
0.996885
0.997252
0.997309
0.997167
0.997144
0.997268
0.99732
0.99716
0.99674
0.996456
0.996417
0.9966
0.997046
0.997633
0.997813
0.997774
0.997604
0.997075
0.948419
0.948407
0.948394
0.948382
0.948364
0.948348
0.94833
0.948312
0.948295
0.948265
0.948216
0.948191
0.948185
0.948214
0.948254
0.948316
0.948404
0.948591
0.948892
0.94935
0.949956
0.950752
0.951727
0.952962
0.954379
0.956073
0.95792
0.960095
0.962435
0.965065
0.967819
0.970853
0.973998
0.977269
0.980835
0.984244
0.987736
0.990681
0.993432
0.995713
0.997408
0.997932
0.99832
0.998251
0.998326
0.998003
0.997084
0.995973
0.995001
0.995072
0.995571
0.996415
0.997319
0.998057
0.998316
0.997885
0.996529
0.994962
0.994597
0.995103
0.99663
0.997944
0.999237
0.998832
0.997196
0.99532
0.995148
0.995759
0.997053
0.99855
0.998064
0.996758
0.995671
0.995941
0.996713
0.997348
0.996816
0.996122
0.996192
0.996523
0.996844
0.996797
0.996827
0.997078
0.997251
0.997252
0.997157
0.997221
0.997309
0.997281
0.996996
0.996592
0.99643
0.996488
0.996807
0.997355
0.99775
0.997802
0.997728
0.997282
0.948472
0.94846
0.948447
0.948434
0.948418
0.948398
0.94838
0.948359
0.948338
0.948319
0.948294
0.948267
0.948239
0.94818
0.948139
0.948128
0.948141
0.948126
0.948124
0.94816
0.948218
0.948293
0.948397
0.948562
0.948798
0.949289
0.950005
0.950977
0.952168
0.953704
0.955482
0.957676
0.960151
0.963073
0.966259
0.969847
0.973679
0.977627
0.981889
0.985684
0.989478
0.99195
0.9944
0.995907
0.997044
0.997443
0.997608
0.997869
0.997795
0.997406
0.996828
0.996235
0.996195
0.996422
0.996899
0.997369
0.997573
0.997255
0.996394
0.995192
0.995252
0.995778
0.997141
0.997947
0.998516
0.997585
0.996148
0.995085
0.995445
0.996648
0.997762
0.997713
0.996795
0.995848
0.996077
0.996752
0.997403
0.996928
0.996212
0.996223
0.996492
0.996821
0.996843
0.996963
0.997229
0.997338
0.997286
0.997257
0.997324
0.997358
0.997183
0.996766
0.99647
0.996495
0.996711
0.997203
0.997726
0.997848
0.997816
0.997414
0.948531
0.948525
0.948517
0.94851
0.948501
0.948486
0.948475
0.948467
0.948455
0.948441
0.948432
0.948425
0.948418
0.948396
0.948383
0.948375
0.948363
0.948349
0.948333
0.948303
0.948266
0.948264
0.948283
0.94833
0.948453
0.948485
0.948543
0.948631
0.948771
0.949002
0.94934
0.949961
0.950884
0.952269
0.954013
0.956381
0.959134
0.96264
0.966438
0.97089
0.975519
0.980178
0.984889
0.988708
0.992347
0.994345
0.996196
0.997023
0.997255
0.997227
0.997113
0.996796
0.99648
0.996395
0.996529
0.996787
0.997051
0.997028
0.996787
0.996168
0.995375
0.995413
0.995672
0.996645
0.997438
0.99771
0.997324
0.996296
0.995386
0.995592
0.996442
0.997089
0.99753
0.996974
0.996235
0.996353
0.996802
0.997129
0.996759
0.996253
0.996265
0.996544
0.996875
0.997037
0.997139
0.997285
0.997311
0.997239
0.997241
0.997295
0.997254
0.996981
0.996579
0.996471
0.996593
0.996962
0.997547
0.997788
0.997825
0.997518
0.948637
0.948636
0.948637
0.94864
0.94864
0.948635
0.948629
0.94863
0.948632
0.948629
0.948627
0.94863
0.948629
0.948635
0.948642
0.948642
0.948642
0.948655
0.948676
0.948679
0.948666
0.948663
0.948663
0.948647
0.948651
0.948668
0.948666
0.948687
0.948743
0.948843
0.948997
0.949173
0.949283
0.949425
0.949646
0.950038
0.950793
0.95211
0.953909
0.956613
0.959852
0.964168
0.968721
0.973998
0.979291
0.983974
0.988625
0.991301
0.993894
0.994875
0.9958
0.995982
0.996466
0.996894
0.997085
0.99699
0.996809
0.99655
0.996464
0.996403
0.996187
0.995903
0.995744
0.995823
0.996165
0.996763
0.997054
0.997066
0.996554
0.995701
0.99583
0.996223
0.996856
0.997386
0.997067
0.996541
0.996549
0.996799
0.996969
0.996695
0.99637
0.996446
0.996736
0.996994
0.997133
0.997185
0.997264
0.997288
0.997285
0.997321
0.997332
0.997186
0.99679
0.996534
0.996568
0.996812
0.997353
0.997844
0.997897
0.997672
0.948795
0.948801
0.94881
0.948824
0.948832
0.948835
0.94884
0.94885
0.948859
0.94887
0.948879
0.948882
0.948889
0.94891
0.948925
0.948937
0.94895
0.948963
0.948987
0.949005
0.949006
0.949012
0.949021
0.949032
0.949057
0.949061
0.949065
0.949081
0.949077
0.949082
0.949104
0.94913
0.949181
0.949266
0.949388
0.949639
0.949687
0.949783
0.949988
0.950402
0.951225
0.952751
0.954926
0.958382
0.962452
0.967763
0.973306
0.978903
0.984377
0.988286
0.991933
0.99397
0.995457
0.995886
0.996187
0.996148
0.996101
0.99612
0.996306
0.99664
0.99663
0.996449
0.996071
0.995539
0.995627
0.995863
0.99639
0.996851
0.996809
0.996383
0.995857
0.995941
0.996258
0.996789
0.997233
0.997032
0.996746
0.996721
0.99684
0.996842
0.996673
0.996532
0.9966
0.996755
0.99696
0.997136
0.997253
0.997312
0.997303
0.997313
0.997332
0.997285
0.997008
0.99661
0.996569
0.996693
0.99712
0.997681
0.997886
0.99777
0.949003
0.94902
0.949032
0.949044
0.949057
0.949078
0.949094
0.949106
0.949123
0.949139
0.949155
0.949172
0.949192
0.949218
0.94923
0.94924
0.94926
0.949279
0.949289
0.949302
0.94932
0.949335
0.949343
0.949356
0.94936
0.949363
0.949376
0.949391
0.949403
0.949408
0.949404
0.949404
0.949416
0.94943
0.949449
0.94949
0.94957
0.949658
0.949764
0.949984
0.950027
0.950133
0.950374
0.951012
0.952194
0.954444
0.957548
0.962255
0.96754
0.973601
0.979674
0.984465
0.989123
0.991201
0.993324
0.994029
0.994825
0.99564
0.996343
0.996845
0.996732
0.996488
0.996019
0.995478
0.995436
0.995672
0.996055
0.996434
0.99648
0.996433
0.996204
0.996055
0.99614
0.996416
0.996843
0.9972
0.997116
0.99692
0.996826
0.996837
0.996814
0.996693
0.996563
0.996613
0.99676
0.997047
0.997312
0.997327
0.997282
0.997277
0.997314
0.997332
0.997194
0.996806
0.996581
0.996626
0.996905
0.997491
0.997841
0.997853
0.949202
0.949218
0.949233
0.949255
0.949278
0.949291
0.949306
0.949325
0.949344
0.949362
0.949383
0.949404
0.949426
0.949443
0.949457
0.949476
0.949498
0.949517
0.949534
0.949555
0.949561
0.949562
0.949569
0.949576
0.949578
0.949586
0.949595
0.949595
0.949594
0.949597
0.949596
0.949597
0.949598
0.949597
0.949609
0.949613
0.949616
0.949624
0.949646
0.949692
0.949769
0.949861
0.950012
0.950054
0.950146
0.950381
0.950908
0.952158
0.954241
0.958017
0.962663
0.968798
0.975127
0.980898
0.986423
0.989748
0.992927
0.994326
0.995118
0.995688
0.995782
0.995628
0.995602
0.995722
0.995896
0.995944
0.995897
0.995944
0.996026
0.99614
0.996267
0.996313
0.99624
0.99632
0.996546
0.996871
0.997129
0.997081
0.996953
0.996879
0.996862
0.996807
0.996643
0.996619
0.996683
0.996863
0.997137
0.997271
0.997251
0.997256
0.997327
0.99738
0.997317
0.997049
0.996666
0.996597
0.996746
0.997219
0.997776
0.997892
0.949356
0.949369
0.949386
0.949396
0.949406
0.949422
0.949443
0.949464
0.949484
0.949503
0.949522
0.94954
0.949555
0.94957
0.949587
0.949611
0.94963
0.949639
0.949654
0.949678
0.949685
0.949688
0.949696
0.949702
0.949705
0.949708
0.949708
0.949703
0.949698
0.949695
0.94969
0.949692
0.949693
0.949695
0.949703
0.949702
0.949686
0.949671
0.949659
0.949645
0.949647
0.949661
0.949704
0.949776
0.949853
0.950006
0.950058
0.950131
0.950295
0.950912
0.95223
0.955026
0.958914
0.964759
0.971027
0.977384
0.983502
0.987338
0.990623
0.992348
0.993726
0.994577
0.995621
0.99641
0.99637
0.996193
0.995844
0.995614
0.995776
0.995996
0.996196
0.996312
0.996363
0.996364
0.99651
0.996691
0.996905
0.997085
0.997034
0.997015
0.996982
0.99691
0.996784
0.996684
0.996688
0.996731
0.996894
0.997116
0.997234
0.997271
0.997359
0.997421
0.997396
0.997216
0.996818
0.996603
0.996675
0.996987
0.997651
0.997908
0.949394
0.949397
0.949403
0.949411
0.949422
0.949443
0.949463
0.949472
0.949483
0.949497
0.94951
0.949522
0.949534
0.949552
0.949572
0.949593
0.949612
0.949629
0.949647
0.949665
0.94968
0.949696
0.949707
0.949708
0.949704
0.949706
0.94971
0.949708
0.949702
0.949689
0.949674
0.949676
0.949672
0.949664
0.949661
0.949654
0.949641
0.949625
0.949609
0.949589
0.949571
0.949559
0.94956
0.949581
0.94961
0.949663
0.949763
0.949869
0.949962
0.949933
0.949975
0.95029
0.951077
0.953056
0.956185
0.961523
0.96764
0.974451
0.981238
0.985841
0.990531
0.993014
0.994535
0.995342
0.995478
0.995182
0.995315
0.995732
0.996078
0.996111
0.99601
0.995965
0.996072
0.996379
0.996616
0.99668
0.996698
0.996807
0.996971
0.99712
0.997105
0.997037
0.996941
0.996805
0.996697
0.996642
0.996717
0.996923
0.9972
0.997309
0.997388
0.997441
0.997427
0.997319
0.997017
0.996663
0.996682
0.996872
0.997426
0.997887
0.949381
0.949387
0.949393
0.949392
0.949391
0.949395
0.949407
0.949421
0.949431
0.949438
0.949445
0.949452
0.949462
0.949476
0.949491
0.949503
0.949519
0.949537
0.949553
0.949567
0.94958
0.949597
0.949618
0.949628
0.949633
0.949639
0.949639
0.949635
0.949625
0.949612
0.949614
0.949611
0.949588
0.949573
0.949562
0.949545
0.949524
0.9495
0.949469
0.949436
0.94942
0.949417
0.949416
0.949421
0.949439
0.949471
0.94953
0.949608
0.949691
0.94972
0.949747
0.949724
0.94967
0.949769
0.95024
0.951649
0.954245
0.959117
0.965027
0.972089
0.97928
0.984273
0.989059
0.991145
0.992836
0.993904
0.995379
0.99634
0.99632
0.996172
0.995801
0.995681
0.995887
0.996314
0.996684
0.996653
0.996569
0.996622
0.996858
0.99716
0.997184
0.997155
0.997085
0.996935
0.996711
0.996588
0.996617
0.996767
0.997081
0.997299
0.997408
0.997452
0.99744
0.99738
0.997175
0.996805
0.996717
0.99681
0.9972
0.997789
0.949323
0.949324
0.949324
0.949317
0.949316
0.949324
0.949329
0.949328
0.949327
0.949329
0.949333
0.949336
0.94934
0.949344
0.94935
0.949356
0.949367
0.949379
0.949392
0.949403
0.949414
0.949428
0.949446
0.949468
0.949489
0.9495
0.949496
0.949491
0.949492
0.949497
0.949497
0.949481
0.949449
0.949438
0.949425
0.9494
0.949368
0.949331
0.949285
0.949233
0.949198
0.949193
0.9492
0.949217
0.94925
0.949299
0.949357
0.949408
0.949469
0.949532
0.949556
0.949538
0.949509
0.949464
0.949295
0.949271
0.949562
0.950719
0.953
0.957582
0.963367
0.97083
0.978357
0.98395
0.989529
0.992443
0.994423
0.995323
0.995557
0.995366
0.995512
0.995893
0.996168
0.996211
0.996376
0.996465
0.996577
0.996708
0.996823
0.996968
0.997111
0.9972
0.99717
0.997022
0.996797
0.996616
0.996622
0.9967
0.996906
0.997202
0.997383
0.99747
0.997464
0.997426
0.997294
0.997023
0.996771
0.996819
0.997047
0.997633
0.949288
0.94928
0.949272
0.949259
0.94925
0.949248
0.949247
0.949241
0.949232
0.949223
0.949219
0.949217
0.949213
0.949204
0.949199
0.949199
0.9492
0.949203
0.949209
0.949215
0.949222
0.949232
0.949247
0.949269
0.949296
0.949318
0.94933
0.94934
0.949355
0.949365
0.949361
0.949343
0.949325
0.949316
0.949299
0.94927
0.949234
0.949191
0.94914
0.949086
0.949023
0.94897
0.948957
0.948964
0.948983
0.949012
0.949057
0.949128
0.94923
0.949342
0.949419
0.949416
0.949388
0.949326
0.949234
0.949118
0.948896
0.948898
0.949189
0.950268
0.952454
0.956962
0.962732
0.970165
0.977744
0.983242
0.988445
0.990452
0.992728
0.994114
0.995702
0.996326
0.996221
0.995981
0.996021
0.996359
0.99671
0.996856
0.99677
0.996776
0.996957
0.99717
0.997165
0.997049
0.996899
0.996747
0.996646
0.996664
0.996768
0.997034
0.997345
0.997464
0.997471
0.997449
0.997373
0.997179
0.996896
0.99686
0.996952
0.997443
0.949336
0.949316
0.949297
0.949282
0.949268
0.949254
0.949237
0.949221
0.949202
0.949183
0.949171
0.94916
0.949147
0.949124
0.949107
0.949102
0.949096
0.949083
0.949074
0.94907
0.94907
0.949069
0.94907
0.949079
0.949099
0.949126
0.949153
0.949179
0.949203
0.949225
0.949234
0.949228
0.949217
0.949207
0.94919
0.949161
0.949124
0.949078
0.949025
0.948965
0.948895
0.948817
0.948744
0.948695
0.948679
0.948681
0.948706
0.948772
0.948878
0.94902
0.949174
0.949287
0.949322
0.949306
0.949253
0.949145
0.948952
0.948788
0.948732
0.948827
0.949169
0.950325
0.952525
0.956896
0.962394
0.969803
0.977366
0.983294
0.989268
0.992355
0.994589
0.995251
0.995295
0.995318
0.99591
0.996539
0.996795
0.996695
0.996586
0.996687
0.996878
0.997079
0.99705
0.99699
0.99699
0.996933
0.996774
0.99667
0.996723
0.9969
0.997205
0.997444
0.997472
0.997463
0.997421
0.997308
0.997122
0.996926
0.99694
0.997278
0.949462
0.949439
0.949414
0.949387
0.94936
0.949333
0.949305
0.949277
0.949247
0.949217
0.949187
0.949159
0.949134
0.949104
0.949075
0.949057
0.949044
0.949028
0.949006
0.948987
0.94897
0.948954
0.948944
0.94894
0.948941
0.948951
0.948973
0.949
0.949029
0.949056
0.949082
0.949108
0.949117
0.949106
0.949086
0.949065
0.949038
0.949001
0.948949
0.94888
0.9488
0.948712
0.948617
0.948514
0.948428
0.948401
0.948408
0.948439
0.94851
0.948635
0.948815
0.949028
0.949211
0.949296
0.949303
0.94927
0.949155
0.948945
0.94875
0.948752
0.948869
0.949108
0.94961
0.950748
0.95271
0.956768
0.96203
0.96965
0.97739
0.983118
0.989028
0.991214
0.993297
0.994869
0.996259
0.996631
0.99658
0.996414
0.996501
0.996727
0.996843
0.99684
0.996827
0.996929
0.997067
0.997029
0.996915
0.996744
0.99675
0.996849
0.997038
0.997301
0.997471
0.997471
0.997451
0.997397
0.997282
0.997058
0.996947
0.997153
0.949639
0.949616
0.949589
0.949558
0.949526
0.949494
0.949459
0.949422
0.949383
0.949344
0.949302
0.949259
0.949216
0.949172
0.949128
0.949087
0.949052
0.949021
0.948991
0.94896
0.948927
0.948892
0.948865
0.948849
0.948839
0.948832
0.948828
0.948834
0.94885
0.948871
0.948899
0.948944
0.948992
0.949008
0.949007
0.949009
0.949008
0.948995
0.948961
0.948905
0.948835
0.948752
0.948654
0.948533
0.94839
0.948265
0.948216
0.948214
0.948235
0.948317
0.948479
0.948701
0.948945
0.94917
0.94931
0.94933
0.949315
0.949214
0.949
0.948823
0.948839
0.94894
0.949193
0.949577
0.949968
0.950802
0.952502
0.956564
0.962217
0.970328
0.97868
0.985161
0.991243
0.993507
0.995049
0.995647
0.995661
0.996039
0.996527
0.996824
0.996707
0.996575
0.996707
0.996922
0.997042
0.99699
0.996929
0.996912
0.996885
0.99689
0.996964
0.997127
0.99734
0.997479
0.997476
0.997455
0.997399
0.997248
0.997004
0.997098
0.949739
0.949719
0.949696
0.949671
0.949643
0.949612
0.949579
0.949542
0.949502
0.949459
0.949413
0.949364
0.94931
0.949253
0.949196
0.949138
0.949079
0.949018
0.948962
0.948918
0.948888
0.948869
0.948855
0.948839
0.948819
0.948809
0.948805
0.948803
0.948806
0.948816
0.948833
0.948841
0.94885
0.948872
0.948906
0.948954
0.949007
0.949034
0.949027
0.949011
0.948987
0.948942
0.94887
0.948763
0.948609
0.948413
0.948238
0.948158
0.948151
0.948175
0.948264
0.948433
0.948663
0.948918
0.94917
0.949332
0.949363
0.949354
0.949258
0.94903
0.948879
0.948889
0.949
0.949214
0.949608
0.949757
0.949873
0.950568
0.952401
0.957036
0.963442
0.972011
0.98061
0.985969
0.990486
0.992375
0.994302
0.996142
0.996615
0.996511
0.996306
0.996412
0.996754
0.996984
0.996938
0.996914
0.996999
0.997082
0.997036
0.996933
0.996949
0.997033
0.997186
0.99738
0.997495
0.9975
0.997458
0.99736
0.997126
0.997086
0.949671
0.94966
0.949647
0.94963
0.949611
0.949591
0.949568
0.949539
0.94951
0.949482
0.949449
0.949409
0.949364
0.949318
0.949265
0.949203
0.949132
0.949055
0.948976
0.948902
0.948845
0.948811
0.948791
0.948774
0.948752
0.948715
0.948667
0.948626
0.948609
0.948606
0.948608
0.948618
0.948644
0.9487
0.948798
0.948917
0.949025
0.949091
0.949133
0.949179
0.949214
0.949225
0.949216
0.949173
0.949069
0.948904
0.9487
0.948495
0.948351
0.948296
0.948297
0.948348
0.948475
0.948657
0.948887
0.949134
0.949298
0.949337
0.949333
0.949225
0.948995
0.94885
0.948875
0.948977
0.949243
0.949516
0.949735
0.94963
0.949686
0.950549
0.952935
0.958387
0.965532
0.974368
0.982667
0.988231
0.992962
0.994846
0.99578
0.995379
0.99565
0.996327
0.9968
0.996766
0.996676
0.996806
0.997072
0.997188
0.997133
0.997043
0.997015
0.997038
0.997103
0.997237
0.997426
0.997559
0.997524
0.997439
0.99728
0.997125
0.94949
0.949486
0.949474
0.949471
0.949477
0.949477
0.949472
0.949463
0.949452
0.949441
0.949426
0.949401
0.949375
0.949347
0.94931
0.949263
0.949209
0.94915
0.949084
0.949012
0.948935
0.948852
0.948763
0.948676
0.948608
0.948565
0.948537
0.948513
0.94849
0.948473
0.948475
0.948488
0.948509
0.948538
0.948583
0.948656
0.948762
0.948917
0.949103
0.949269
0.949397
0.949497
0.949566
0.949579
0.949555
0.949482
0.949349
0.949144
0.948893
0.948654
0.948498
0.948449
0.948445
0.948489
0.948616
0.948867
0.949145
0.949284
0.949323
0.94931
0.949176
0.948916
0.948787
0.948812
0.948961
0.949246
0.949519
0.949609
0.949602
0.949357
0.949588
0.950993
0.954129
0.960376
0.968126
0.976392
0.984494
0.988252
0.99205
0.993677
0.995834
0.996574
0.996526
0.996315
0.996411
0.996799
0.997108
0.997096
0.997108
0.997155
0.997154
0.997105
0.99709
0.997149
0.997301
0.997466
0.997583
0.997521
0.997407
0.997201
0.949278
0.949288
0.949296
0.949304
0.949313
0.949324
0.949336
0.94935
0.949358
0.949361
0.949361
0.949356
0.949349
0.949338
0.949326
0.949312
0.949293
0.949269
0.949239
0.949199
0.949147
0.94908
0.948991
0.948884
0.948773
0.948679
0.948605
0.948544
0.948484
0.948429
0.948407
0.948413
0.948424
0.948442
0.948478
0.948541
0.94863
0.948739
0.948883
0.949067
0.949277
0.949478
0.949636
0.949751
0.949814
0.949817
0.949786
0.949699
0.949529
0.949271
0.948953
0.948677
0.948553
0.948528
0.948548
0.948645
0.948886
0.949189
0.949335
0.949375
0.949345
0.949169
0.948889
0.948791
0.948832
0.949013
0.949312
0.949474
0.949484
0.94943
0.949173
0.949274
0.949919
0.952031
0.955806
0.962696
0.970845
0.978911
0.98689
0.991723
0.994772
0.995752
0.995361
0.995688
0.996445
0.996834
0.996944
0.99695
0.997056
0.997264
0.997278
0.997227
0.997137
0.99715
0.997202
0.997326
0.99747
0.997554
0.997524
0.997328
0.948965
0.949011
0.949059
0.949105
0.949151
0.949196
0.949239
0.949276
0.949303
0.94932
0.949332
0.949344
0.949362
0.949384
0.949405
0.94942
0.94943
0.949435
0.949436
0.949434
0.949425
0.949409
0.949379
0.94933
0.949261
0.949171
0.949057
0.948927
0.948799
0.948688
0.948597
0.94853
0.948488
0.948469
0.948469
0.948479
0.948513
0.948588
0.948693
0.948826
0.948994
0.949196
0.949412
0.949615
0.949784
0.949895
0.949927
0.949914
0.949864
0.949744
0.949494
0.949117
0.948765
0.948609
0.948593
0.948622
0.948719
0.948947
0.949293
0.949489
0.949532
0.94949
0.949303
0.949024
0.948918
0.948952
0.949112
0.94932
0.949352
0.949309
0.949149
0.948983
0.949053
0.949496
0.950627
0.953266
0.957646
0.965323
0.97382
0.98158
0.988202
0.991294
0.993472
0.995927
0.996697
0.996656
0.996516
0.996728
0.997071
0.997325
0.99731
0.997285
0.997249
0.9972
0.997168
0.997207
0.997325
0.997477
0.997575
0.997451
0.948748
0.948783
0.948825
0.948872
0.948921
0.948971
0.949024
0.949077
0.94913
0.949186
0.949253
0.949341
0.949428
0.949479
0.949501
0.949507
0.949511
0.949521
0.949538
0.949563
0.949589
0.949614
0.949635
0.949646
0.949651
0.949648
0.949614
0.949543
0.949448
0.949334
0.949199
0.949052
0.948903
0.94876
0.948635
0.948547
0.948511
0.948513
0.948544
0.948608
0.948698
0.948803
0.948937
0.949123
0.949354
0.949589
0.949774
0.949858
0.949866
0.949845
0.949758
0.949543
0.94919
0.948842
0.948688
0.948684
0.948739
0.948867
0.949116
0.949496
0.949716
0.949746
0.949712
0.949545
0.949256
0.949074
0.949057
0.949104
0.949179
0.949163
0.949066
0.948909
0.948885
0.948999
0.949352
0.950036
0.951343
0.954653
0.959999
0.968552
0.977505
0.985047
0.991798
0.994725
0.996038
0.995462
0.995826
0.996474
0.996997
0.997218
0.997233
0.997307
0.997346
0.997282
0.997159
0.997142
0.997195
0.997385
0.997551
0.997516
0.948793
0.948798
0.948805
0.948818
0.948836
0.948858
0.948886
0.948919
0.948958
0.949006
0.949063
0.949128
0.949198
0.949269
0.949335
0.949399
0.949467
0.94954
0.949606
0.949658
0.949701
0.949739
0.949778
0.949818
0.949851
0.949862
0.949859
0.949844
0.949815
0.949764
0.949681
0.949567
0.949428
0.949279
0.949129
0.948975
0.948809
0.948651
0.948563
0.948544
0.948539
0.948543
0.948572
0.948638
0.94876
0.948956
0.949229
0.949526
0.949731
0.949773
0.949757
0.949717
0.949597
0.949374
0.949084
0.94886
0.948809
0.948858
0.949014
0.94928
0.949653
0.949919
0.94994
0.949895
0.949713
0.949366
0.949075
0.948992
0.948975
0.948973
0.948956
0.948908
0.948881
0.948904
0.949045
0.949298
0.949622
0.95034
0.952151
0.956563
0.963229
0.972202
0.981665
0.987038
0.991714
0.993631
0.996119
0.996852
0.996814
0.996836
0.997089
0.997353
0.997372
0.99732
0.997173
0.997116
0.997169
0.997296
0.997489
0.99752
0.948809
0.948804
0.9488
0.948798
0.948798
0.948796
0.948793
0.948794
0.948801
0.948812
0.948822
0.948835
0.948854
0.948886
0.94893
0.948984
0.94905
0.949128
0.949214
0.949303
0.949392
0.94948
0.949558
0.949621
0.949675
0.949732
0.949791
0.949819
0.949812
0.949794
0.949764
0.949723
0.949683
0.949639
0.949582
0.949502
0.949381
0.94922
0.949024
0.948801
0.948612
0.948541
0.948532
0.948534
0.948573
0.948686
0.948856
0.949061
0.949299
0.949532
0.949676
0.949737
0.949761
0.949749
0.94963
0.949376
0.949098
0.948976
0.948996
0.949113
0.949336
0.94967
0.949959
0.949998
0.949918
0.949687
0.949317
0.949023
0.948912
0.948878
0.948884
0.948918
0.948945
0.948976
0.949035
0.949184
0.949302
0.949379
0.949637
0.950722
0.953425
0.959284
0.967387
0.976532
0.98559
0.991625
0.995105
0.9961
0.99574
0.996263
0.996847
0.997325
0.997305
0.997206
0.997153
0.997151
0.997187
0.997238
0.99738
0.997471
0.948986
0.948933
0.94888
0.948832
0.94879
0.948744
0.948695
0.948682
0.948676
0.948664
0.948657
0.948654
0.94865
0.948645
0.948644
0.948646
0.948653
0.948668
0.948696
0.948735
0.948783
0.948838
0.948899
0.948966
0.949041
0.949122
0.949206
0.949296
0.949401
0.949523
0.949643
0.94973
0.949773
0.949791
0.949802
0.94981
0.949803
0.949759
0.949662
0.94951
0.949312
0.94909
0.948885
0.948761
0.948742
0.948768
0.948818
0.94888
0.948966
0.949109
0.949344
0.949651
0.949827
0.949854
0.949848
0.949768
0.94957
0.949305
0.949104
0.949062
0.949098
0.949255
0.949557
0.949819
0.949851
0.94977
0.949559
0.949218
0.94896
0.948896
0.948898
0.948972
0.949083
0.949141
0.949169
0.949207
0.949256
0.949304
0.949294
0.949374
0.94988
0.951732
0.955684
0.963133
0.972053
0.981192
0.988122
0.991787
0.994168
0.996739
0.997114
0.997072
0.9969
0.997027
0.997189
0.997238
0.997235
0.997259
0.997286
0.997393
0.949433
0.949368
0.949303
0.949236
0.949162
0.949089
0.94902
0.948955
0.948889
0.948824
0.948766
0.948718
0.948677
0.948639
0.948612
0.948597
0.948589
0.948581
0.948575
0.94857
0.948567
0.948565
0.948568
0.948579
0.948597
0.948627
0.948673
0.948741
0.948844
0.948985
0.949149
0.949321
0.949493
0.949659
0.949803
0.949914
0.949999
0.950028
0.95001
0.949961
0.949889
0.949804
0.94971
0.949604
0.949475
0.949308
0.9491
0.948966
0.94894
0.948945
0.949042
0.949276
0.949574
0.949788
0.949847
0.949832
0.949752
0.949625
0.949409
0.949146
0.94906
0.949072
0.949174
0.949388
0.949594
0.949637
0.949583
0.949437
0.949186
0.949017
0.949013
0.94907
0.949184
0.949298
0.949322
0.9493
0.949271
0.949251
0.949236
0.949227
0.949258
0.949539
0.950576
0.953548
0.958977
0.967937
0.97729
0.986064
0.992633
0.995696
0.996155
0.995958
0.996353
0.996823
0.997173
0.997226
0.997265
0.99727
0.997245
0.997281
0.949849
0.94983
0.949814
0.949796
0.949781
0.949768
0.949753
0.949733
0.949706
0.949668
0.949618
0.949563
0.949507
0.949454
0.949403
0.949348
0.949276
0.949182
0.949068
0.948944
0.948827
0.948719
0.948607
0.94852
0.948487
0.948476
0.948473
0.948491
0.948565
0.948681
0.948812
0.948968
0.949169
0.949395
0.949594
0.94975
0.949892
0.949999
0.949997
0.94999
0.949998
0.950032
0.950078
0.950106
0.95011
0.950027
0.949752
0.949316
0.949007
0.948948
0.948965
0.949061
0.949195
0.949313
0.949438
0.949597
0.949748
0.949765
0.949684
0.949471
0.949215
0.949107
0.949099
0.949137
0.949254
0.949419
0.949509
0.949509
0.949438
0.949272
0.94916
0.94917
0.949255
0.949397
0.949439
0.949409
0.949318
0.949228
0.949211
0.949219
0.949258
0.94931
0.94943
0.950001
0.951807
0.9561
0.963509
0.972957
0.982744
0.988573
0.992199
0.994751
0.99669
0.997019
0.996996
0.997119
0.997251
0.997264
0.997176
0.997185
0.95016
0.950162
0.950184
0.950227
0.950238
0.950247
0.950265
0.950293
0.950322
0.950353
0.950393
0.950418
0.950427
0.950434
0.950437
0.950435
0.950411
0.950349
0.950253
0.950133
0.949989
0.94982
0.949632
0.949437
0.949256
0.949099
0.948968
0.948865
0.948824
0.94884
0.948894
0.948995
0.949172
0.949363
0.949444
0.949459
0.949446
0.94944
0.949496
0.9496
0.949692
0.949794
0.949951
0.950089
0.950126
0.950118
0.950003
0.94972
0.949373
0.949124
0.949085
0.949122
0.949142
0.949114
0.949087
0.949134
0.949307
0.949545
0.949674
0.949659
0.9496
0.949495
0.94935
0.949245
0.949218
0.949247
0.94938
0.949506
0.949528
0.949504
0.949384
0.949264
0.949259
0.949309
0.949435
0.949463
0.949399
0.949295
0.94927
0.949284
0.949354
0.949409
0.949482
0.949524
0.949783
0.950856
0.953739
0.959855
0.968994
0.978248
0.987861
0.993004
0.996047
0.995972
0.996274
0.996808
0.997203
0.997168
0.997062
0.99716
0.950032
0.950094
0.950153
0.950214
0.950275
0.950331
0.950382
0.95043
0.950485
0.950548
0.950617
0.950682
0.95073
0.950769
0.950811
0.950865
0.95088
0.950857
0.950803
0.950738
0.950654
0.950556
0.950459
0.950338
0.95018
0.950001
0.949867
0.949784
0.949699
0.949577
0.949506
0.949524
0.949533
0.949519
0.949473
0.949352
0.949121
0.948902
0.948829
0.948812
0.948818
0.948897
0.949083
0.949313
0.949532
0.949741
0.949858
0.949828
0.949718
0.94966
0.949648
0.949635
0.949545
0.949317
0.949113
0.949091
0.949136
0.949206
0.949361
0.949614
0.949824
0.949867
0.949836
0.949692
0.949434
0.949286
0.949287
0.949371
0.949538
0.949582
0.949539
0.949398
0.949276
0.949271
0.949329
0.94943
0.949449
0.949414
0.949397
0.949426
0.949519
0.949566
0.949578
0.949591
0.949597
0.949702
0.95023
0.952239
0.956552
0.964828
0.974837
0.983029
0.990473
0.992882
0.995496
0.996999
0.997011
0.996846
0.996959
0.997223
0.949251
0.94924
0.949269
0.949345
0.949407
0.94946
0.949528
0.949604
0.949664
0.949732
0.949802
0.949874
0.949955
0.950051
0.950164
0.950279
0.950352
0.950393
0.950403
0.950377
0.950359
0.95036
0.950363
0.9504
0.950407
0.950364
0.950312
0.950322
0.950364
0.950384
0.950394
0.950385
0.950324
0.950209
0.950048
0.949805
0.949458
0.949075
0.94877
0.948605
0.948535
0.948509
0.948519
0.948577
0.94868
0.948901
0.949228
0.949468
0.949731
0.950052
0.950279
0.950328
0.950294
0.950121
0.949793
0.949399
0.949111
0.949037
0.949096
0.949325
0.949677
0.949969
0.950033
0.950002
0.949824
0.949489
0.949315
0.949324
0.949391
0.949535
0.949578
0.949517
0.949371
0.949292
0.9493
0.949383
0.949495
0.949549
0.949568
0.949612
0.949692
0.949736
0.949728
0.949678
0.949624
0.949589
0.949629
0.949906
0.951006
0.954467
0.960874
0.97074
0.980882
0.989198
0.994271
0.996138
0.995827
0.996235
0.996977
0.99724
0.948251
0.948275
0.948289
0.948292
0.948282
0.948256
0.948245
0.948241
0.948245
0.948266
0.948271
0.948251
0.948235
0.948271
0.948382
0.948505
0.948635
0.948768
0.948904
0.949049
0.949171
0.949293
0.949384
0.949409
0.949426
0.949488
0.949643
0.949878
0.95017
0.950453
0.950608
0.950648
0.950646
0.950601
0.950528
0.950435
0.950254
0.949937
0.949534
0.94917
0.948904
0.948714
0.948616
0.948601
0.948686
0.948889
0.949052
0.949202
0.94948
0.949991
0.950473
0.950635
0.950648
0.950638
0.950548
0.950238
0.949691
0.949291
0.949213
0.949255
0.949361
0.949582
0.949892
0.95003
0.949985
0.949802
0.949565
0.9494
0.949377
0.949394
0.949437
0.949486
0.949504
0.94948
0.949447
0.949453
0.94953
0.949647
0.94973
0.949789
0.949832
0.949847
0.949839
0.949765
0.949643
0.949554
0.949521
0.949485
0.949594
0.950284
0.952643
0.958204
0.966794
0.977496
0.986098
0.991031
0.993932
0.996511
0.997026
0.997074
0.948189
0.948176
0.948193