/*--------------------------------*- C++ -*----------------------------------*\
  =========                 |
  \\      /  F ield         | OpenFOAM: The Open Source CFD Toolbox
   \\    /   O peration     | Website:  https://openfoam.org
    \\  /    A nd           | Version:  7
     \\/     M anipulation  |
\*---------------------------------------------------------------------------*/
FoamFile
{
    version     2.0;
    format      ascii;
    class       volScalarField;
    location    "1.5999";
    object      rho;
}
// * * * * * * * * * * * * * * * * * * * * * * * * * * * * * * * * * * * * * //

dimensions      [1 -3 0 0 0 0 0];

internalField   nonuniform List<scalar> 
324000
(
0.448532
0.57912
0.761757
0.942018
1.05633
1.06429
1.03321
1.00509
0.984638
0.978711
0.993246
1.01828
1.03772
1.0326
1.02171
1.0168
1.01915
1.02223
1.02205
1.02095
1.02085
1.02242
1.02566
1.02876
1.03048
1.03419
1.04049
1.04746
1.05258
1.05617
1.0578
1.0579
1.05788
1.0655
1.08367
1.10574
1.12547
1.13427
1.13338
1.12849
1.12442
1.12218
1.12026
1.12059
1.122
1.1245
1.12796
1.13086
1.13301
1.13442
1.13528
1.13612
1.13878
1.14766
1.16442
1.18281
1.18884
1.19067
1.18648
1.17729
1.16457
1.16056
1.15435
1.13755
1.10687
1.06605
1.02297
1.01075
1.01778
1.0557
1.10925
1.14751
1.16114
1.16306
1.16329
1.16267
1.16457
1.16594
1.1642
1.16279
0.327198
0.32381
0.345721
0.458999
0.668139
0.853358
0.953888
1.00324
0.99295
0.999521
1.02262
1.0326
1.02492
1.00507
1.00534
1.00878
1.0127
1.01192
1.00935
1.00902
1.01051
1.01442
1.01645
1.01731
1.01946
1.02366
1.03039
1.03634
1.04235
1.04612
1.04722
1.04691
1.04554
1.05386
1.0739
1.09934
1.12173
1.13355
1.13362
1.12955
1.12598
1.12358
1.1219
1.12213
1.12364
1.12627
1.12984
1.13237
1.13438
1.13551
1.13602
1.1371
1.14041
1.14968
1.1657
1.18241
1.18881
1.18955
1.18463
1.17597
1.16506
1.1609
1.15428
1.1376
1.10765
1.07195
1.0252
1.00597
1.00843
1.03773
1.08508
1.12592
1.14925
1.1553
1.15828
1.15945
1.16138
1.16365
1.16241
1.16207
0.328301
0.327888
0.323744
0.313252
0.322181
0.39349
0.564778
0.774631
0.934361
1.03085
1.05767
1.04175
0.993701
0.983801
1.00076
1.01504
1.01488
1.01197
1.00909
1.01069
1.01541
1.01743
1.01615
1.01378
1.0152
1.02339
1.03155
1.03665
1.04101
1.045
1.04748
1.04625
1.0431
1.05175
1.07392
1.09902
1.12081
1.13436
1.13563
1.13292
1.13015
1.12793
1.12675
1.12676
1.12826
1.13084
1.13428
1.13633
1.1381
1.13901
1.1393
1.14051
1.14439
1.15383
1.16906
1.18338
1.18923
1.18894
1.18353
1.17504
1.16665
1.1622
1.15504
1.1382
1.10964
1.07447
1.03152
1.00306
1.00173
1.01939
1.05823
1.10274
1.12946
1.13819
1.14237
1.14453
1.14669
1.14989
1.15087
1.15353
0.329339
0.329142
0.326769
0.319093
0.310623
0.309247
0.309458
0.345773
0.484469
0.68539
0.849191
0.938175
0.967156
1.00009
1.02978
1.02074
1.01324
1.01193
1.01207
1.01625
1.02043
1.02035
1.0157
1.01402
1.01669
1.02549
1.03315
1.03761
1.04229
1.0465
1.04884
1.04679
1.04371
1.053
1.0753
1.10013
1.12267
1.1375
1.1409
1.13944
1.13687
1.13507
1.13417
1.13394
1.13525
1.13787
1.1411
1.14287
1.14424
1.14485
1.14503
1.1465
1.15088
1.15969
1.17312
1.1852
1.1896
1.1889
1.18377
1.17528
1.16898
1.16449
1.15637
1.13911
1.11139
1.0768
1.03866
1.00288
0.996527
1.00528
1.03265
1.06996
1.09891
1.11115
1.11607
1.1181
1.12134
1.12529
1.12864
1.13511
0.330403
0.330386
0.329055
0.322511
0.313104
0.310098
0.310144
0.310395
0.310554
0.325162
0.400441
0.593352
0.82586
0.962108
1.0154
1.01193
1.01371
1.0127
1.01679
1.0294
1.02967
1.0264
1.01808
1.01744
1.0236
1.03267
1.03799
1.04254
1.04807
1.0521
1.05244
1.04775
1.04638
1.05688
1.07874
1.10355
1.12727
1.14306
1.14768
1.14665
1.14478
1.14349
1.14271
1.14232
1.14344
1.14594
1.14868
1.1502
1.15121
1.15166
1.15208
1.15395
1.15855
1.16692
1.1781
1.18689
1.18994
1.18935
1.18482
1.17641
1.1718
1.16631
1.15735
1.13988
1.11261
1.07934
1.04276
1.00686
0.994646
0.997185
1.012
1.04102
1.06993
1.08305
1.08841
1.09071
1.09462
1.10044
1.10555
1.11503
0.331683
0.331801
0.331062
0.325747
0.315628
0.310711
0.310434
0.310594
0.310802
0.31097
0.311048
0.311083
0.376845
0.546382
0.768377
0.902454
1.00126
1.00815
1.02667
1.04243
1.03581
1.02729
1.02078
1.02448
1.03553
1.03911
1.04201
1.0477
1.05557
1.05827
1.05705
1.05138
1.0511
1.06161
1.08196
1.10536
1.12943
1.14615
1.15327
1.1526
1.15091
1.14983
1.14932
1.14882
1.1498
1.15216
1.15474
1.15637
1.1574
1.15805
1.15885
1.16109
1.1657
1.17286
1.18117
1.18811
1.19028
1.18986
1.18557
1.17787
1.17445
1.16945
1.15883
1.14054
1.1135
1.08106
1.04601
1.01287
0.994617
0.993833
1.00164
1.0217
1.04483
1.05756
1.06069
1.06188
1.0651
1.07051
1.07648
1.08785
0.332946
0.333142
0.332608
0.328342
0.31839
0.311538
0.310672
0.310712
0.310857
0.311041
0.311098
0.311117
0.311166
0.311143
0.345107
0.500971
0.73995
0.902857
1.02186
1.03238
1.03676
1.03366
1.02901
1.03852
1.04637
1.04339
1.04621
1.05704
1.06484
1.06427
1.06013
1.056
1.05613
1.06506
1.08293
1.10451
1.12842
1.14585
1.15504
1.15559
1.15452
1.15356
1.15338
1.15308
1.15399
1.15627
1.15859
1.16038
1.16164
1.16263
1.16398
1.1664
1.17079
1.17716
1.18436
1.18907
1.19065
1.19049
1.18629
1.17886
1.17651
1.17136
1.15973
1.14075
1.11386
1.08223
1.049
1.01704
0.997021
0.993716
0.997352
1.01244
1.03049
1.03914
1.04034
1.03953
1.04146
1.04569
1.05079
1.06046
0.334029
0.334125
0.333705
0.330432
0.321352
0.312706
0.310824
0.310794
0.310878
0.311032
0.311101
0.311122
0.311177
0.311183
0.311125
0.311072
0.334189
0.475081
0.718833
0.883373
1.01408
1.02599
1.03344
1.05445
1.05308
1.0475
1.05151
1.06651
1.07113
1.0688
1.06191
1.06155
1.06129
1.06595
1.08129
1.10318
1.12759
1.1438
1.15391
1.15587
1.15547
1.155
1.15502
1.15475
1.1556
1.15793
1.16029
1.16239
1.16399
1.16539
1.16721
1.16975
1.17386
1.17938
1.18576
1.18953
1.1907
1.19084
1.18679
1.17942
1.17791
1.17263
1.16012
1.14041
1.1137
1.08312
1.05144
1.02052
1.00057
0.995958
0.999232
1.01068
1.02395
1.03023
1.02801
1.02601
1.02635
1.02861
1.03191
1.03868
0.334667
0.334703
0.334434
0.332122
0.324386
0.314387
0.311017
0.310858
0.310898
0.311016
0.311099
0.31113
0.311176
0.311183
0.311129
0.311077
0.311067
0.31105
0.326429
0.45551
0.701723
0.91617
1.0172
1.0552
1.05234
1.04047
1.05962
1.07402
1.07195
1.06556
1.06351
1.06524
1.06378
1.0651
1.07918
1.10343
1.12579
1.13984
1.15171
1.15531
1.1554
1.15565
1.15582
1.15559
1.15641
1.15877
1.16094
1.16306
1.16494
1.16674
1.16889
1.17139
1.17524
1.18037
1.18595
1.18919
1.19008
1.19055
1.18669
1.17967
1.17871
1.1733
1.16009
1.13969
1.11326
1.08376
1.05378
1.02381
1.00409
0.999939
1.0029
1.01286
1.02382
1.0268
1.02352
1.01953
1.01841
1.01918
1.02068
1.0248
0.335026
0.33518
0.335033
0.333455
0.327166
0.316604
0.311375
0.310909
0.310913
0.310987
0.311087
0.311131
0.311171
0.311177
0.311133
0.311078
0.311065
0.311052
0.310994
0.310934
0.326104
0.458782
0.703501
0.931518
0.99645
1.03456
1.078
1.07831
1.06326
1.06194
1.0674
1.06693
1.06007
1.06285
1.07905
1.10268
1.12001
1.13302
1.1493
1.15501
1.15562
1.1564
1.15667
1.15585
1.15663
1.15917
1.16117
1.16314
1.16548
1.16756
1.1698
1.17217
1.17548
1.1802
1.18564
1.18849
1.18934
1.19016
1.18643
1.17987
1.17903
1.1736
1.1597
1.13881
1.1127
1.08425
1.05573
1.02659
1.00782
1.00514
1.00791
1.01742
1.0259
1.02728
1.0229
1.01826
1.01538
1.01495
1.01525
1.01834
0.335325
0.335629
0.335527
0.334393
0.329497
0.3193
0.312061
0.31096
0.310936
0.310966
0.31107
0.311128
0.311155
0.311162
0.311134
0.311077
0.311051
0.311034
0.31099
0.310927
0.310909
0.310915
0.334605
0.471588
0.748534
0.975913
1.06651
1.05879
1.04562
1.06276
1.07023
1.06355
1.05567
1.06131
1.07912
1.10067
1.10822
1.1259
1.14694
1.15256
1.15419
1.15533
1.15558
1.15514
1.15624
1.15883
1.16124
1.16335
1.16572
1.16822
1.17036
1.17234
1.17522
1.17967
1.18495
1.18771
1.18864
1.18971
1.18616
1.17985
1.17907
1.17369
1.1593
1.13802
1.11218
1.0847
1.05734
1.02916
1.01157
1.01016
1.01276
1.02254
1.02845
1.02888
1.02309
1.0178
1.01523
1.01422
1.01349
1.01597
0.335644
0.33585
0.335768
0.334993
0.331405
0.322311
0.313288
0.311052
0.310966
0.310975
0.311056
0.311116
0.311135
0.311144
0.311129
0.311079
0.31104
0.311021
0.310984
0.310919
0.310895
0.310904
0.31091
0.310888
0.348973
0.539792
0.839097
0.966901
1.0326
1.0786
1.07458
1.05231
1.05279
1.06171
1.07911
1.0879
1.09618
1.12306
1.14463
1.15
1.15259
1.15415
1.15473
1.1546
1.15607
1.15863
1.16018
1.16241
1.16547
1.16826
1.17091
1.17261
1.1751
1.17891
1.1839
1.1865
1.18743
1.18872
1.18551
1.17954
1.179
1.17381
1.15912
1.13748
1.11178
1.08512
1.05874
1.03151
1.01524
1.01502
1.01817
1.02717
1.03345
1.03092
1.02455
1.0191
1.01606
1.01407
1.0128
1.01489
0.335835
0.335918
0.335874
0.33541
0.332913
0.325296
0.315122
0.31125
0.310987
0.310988
0.311044
0.311105
0.311129
0.311132
0.31112
0.311078
0.311021
0.311001
0.310974
0.310912
0.310878
0.31088
0.310897
0.31089
0.310858
0.310804
0.385305
0.671503
0.954222
1.06181
1.06072
1.04458
1.0568
1.06221
1.07052
1.07252
1.09043
1.12432
1.14079
1.1472
1.15164
1.1528
1.15327
1.15375
1.15577
1.15757
1.15921
1.16184
1.1654
1.16825
1.1699
1.17128
1.17389
1.17778
1.18263
1.18508
1.1859
1.18741
1.18458
1.17875
1.17888
1.17418
1.15931
1.13728
1.11153
1.08545
1.05994
1.03352
1.01909
1.01887
1.02263
1.03164
1.03834
1.03296
1.02698
1.02104
1.01696
1.01378
1.01227
1.01595
0.335852
0.33597
0.335984
0.33573
0.334012
0.327931
0.317508
0.311679
0.311008
0.310998
0.311029
0.311089
0.311122
0.311123
0.311112
0.311073
0.311007
0.310983
0.310961
0.310911
0.310873
0.310874
0.31089
0.31089
0.310856
0.310819
0.310808
0.326358
0.507368
0.83561
0.983672
1.03954
1.07693
1.06653
1.05457
1.06189
1.09314
1.12797
1.13487
1.14476
1.15129
1.15172
1.1528
1.15362
1.15574
1.15691
1.15857
1.16174
1.16539
1.16822
1.16892
1.17012
1.17278
1.17676
1.18143
1.18353
1.1842
1.18589
1.18358
1.1782
1.17881
1.17488
1.15992
1.1373
1.11135
1.08567
1.06071
1.03527
1.02226
1.02252
1.02714
1.03591
1.04287
1.03729
1.02896
1.02323
1.01803
1.01422
1.01275
1.01776
0.33586
0.336044
0.336099
0.335927
0.33473
0.330084
0.320269
0.312496
0.311039
0.311003
0.311022
0.311078
0.311109
0.31111
0.3111
0.311064
0.310996
0.310969
0.310952
0.310908
0.310872
0.310873
0.310891
0.310892
0.310863
0.31083
0.310818
0.310814
0.310801
0.393294
0.706853
0.986398
1.06181
1.0524
1.04033
1.05756
1.10443
1.1208
1.12639
1.14416
1.15109
1.15124
1.15282
1.15426
1.15569
1.15642
1.15827
1.16199
1.16571
1.16813
1.16801
1.1692
1.1721
1.17623
1.18065
1.18224
1.18269
1.18442
1.18268
1.17795
1.17888
1.17564
1.16081
1.13738
1.11119
1.08587
1.06146
1.03689
1.02471
1.02543
1.03071
1.04017
1.04654
1.04078
1.03277
1.02545
1.0196
1.01493
1.01354
1.02334
0.33592
0.33611
0.336137
0.33601
0.335195
0.331789
0.323152
0.313841
0.311129
0.311003
0.311014
0.311065
0.311104
0.311107
0.311098
0.311062
0.310989
0.310958
0.310946
0.310909
0.310871
0.310865
0.310886
0.31089
0.310867
0.310835
0.310829
0.310824
0.31082
0.310798
0.33641
0.562576
0.88393
0.993122
1.02937
1.07084
1.11143
1.10302
1.11961
1.14851
1.15253
1.1528
1.15376
1.15522
1.15542
1.15608
1.15835
1.16304
1.16659
1.16789
1.16722
1.16869
1.17186
1.17624
1.18015
1.18131
1.18154
1.18323
1.18242
1.17803
1.1792
1.17633
1.16148
1.13742
1.11108
1.08617
1.06233
1.03835
1.02664
1.02761
1.03364
1.04435
1.04967
1.04406
1.03536
1.02695
1.01993
1.01505
1.01555
1.02938
0.33607
0.336167
0.336148
0.336046
0.335527
0.333117
0.325888
0.315723
0.311354
0.310996
0.311
0.311049
0.311102
0.31111
0.311105
0.311077
0.310995
0.310951
0.310941
0.310911
0.310873
0.310857
0.310866
0.310877
0.310864
0.310838
0.310832
0.310827
0.310822
0.310817
0.310797
0.310772
0.429329
0.772463
0.996612
1.06793
1.07685
1.08109
1.12548
1.15263
1.14912
1.15202
1.15569
1.15583
1.1547
1.1557
1.15948
1.16447
1.16732
1.16731
1.16676
1.16857
1.17216
1.17655
1.17965
1.18051
1.18065
1.18246
1.18248
1.17862
1.17977
1.17696
1.16183
1.13736
1.11114
1.08679
1.06338
1.0399
1.02833
1.02929
1.03607
1.04796
1.05231
1.04695
1.03691
1.02716
1.01849
1.01504
1.01752
1.03645
0.336184
0.336174
0.33614
0.336099
0.335806
0.33413
0.328298
0.318034
0.311818
0.310995
0.310989
0.311033
0.311093
0.311105
0.311102
0.31108
0.311006
0.310948
0.310937
0.31091
0.310873
0.310857
0.310864
0.310874
0.310857
0.310836
0.310832
0.310828
0.31082
0.310816
0.310796
0.310801
0.310824
0.363355
0.634865
0.917871
1.00453
1.07687
1.15639
1.15315
1.14507
1.15179
1.15781
1.15596
1.15396
1.15585
1.1615
1.16619
1.16754
1.1665
1.16682
1.16901
1.17281
1.17672
1.17922
1.17984
1.18009
1.18222
1.18285
1.17975
1.18048
1.17736
1.16186
1.13744
1.11149
1.08784
1.06458
1.04151
1.02994
1.03093
1.03868
1.05113
1.05438
1.04885
1.03733
1.02514
1.01632
1.01452
1.01955
1.04301
0.336196
0.336197
0.336229
0.33623
0.336062
0.334891
0.330317
0.320607
0.312639
0.311015
0.310973
0.311005
0.31108
0.3111
0.311096
0.311077
0.311011
0.310936
0.310918
0.310896
0.31087
0.31086
0.31087
0.310877
0.310859
0.310839
0.310839
0.310836
0.310823
0.310812
0.310802
0.310807
0.310853
0.310927
0.319964
0.468195
0.790972
1.0223
1.13447
1.1443
1.14531
1.16135
1.16029
1.15226
1.15319
1.15721
1.16416
1.16765
1.16781
1.16586
1.16722
1.16984
1.17357
1.17695
1.17916
1.18021
1.18055
1.18244
1.18354
1.18108
1.18087
1.1774
1.16193
1.13759
1.11221
1.08926
1.06608
1.04323
1.03166
1.03289
1.04171
1.05394
1.0561
1.0493
1.03578
1.02224
1.01385
1.01403
1.02161
1.04913
0.336363
0.336359
0.336418
0.336431
0.336324
0.335499
0.331972
0.323225
0.313878
0.311084
0.31095
0.310979
0.311064
0.311104
0.311103
0.311082
0.31102
0.310934
0.310906
0.310888
0.310868
0.310862
0.310869
0.310877
0.310873
0.310859
0.310856
0.310859
0.310837
0.310811
0.310809
0.310811
0.31085
0.310933
0.311291
0.31173
0.370716
0.605165
0.904743
1.05825
1.13682
1.17124
1.15581
1.1498
1.15323
1.16092
1.16656
1.16848
1.16546
1.16617
1.16827
1.17096
1.1738
1.17681
1.17946
1.18092
1.18104
1.18266
1.18439
1.18249
1.18115
1.17736
1.16231
1.13825
1.1132
1.0908
1.06766
1.04483
1.03369
1.03535
1.04521
1.05648
1.05703
1.04862
1.03312
1.01939
1.01199
1.0143
1.02385
1.05454
0.336777
0.336705
0.336754
0.336764
0.336672
0.336055
0.333336
0.32573
0.315545
0.311272
0.310935
0.310958
0.311048
0.311101
0.311103
0.311084
0.311013
0.310932
0.310902
0.310888
0.310876
0.310869
0.310866
0.310877
0.310881
0.310873
0.31087
0.310879
0.310863
0.310829
0.310815
0.310811
0.310839
0.310938
0.311206
0.311818
0.313231
0.3159
0.420568
0.763549
1.06782
1.15579
1.13631
1.14986
1.15756
1.16358
1.16822
1.166
1.16354
1.16588
1.16932
1.17122
1.17384
1.17683
1.18003
1.18159
1.18155
1.18246
1.18482
1.18284
1.18125
1.17752
1.16297
1.1392
1.1146
1.09234
1.06898
1.04599
1.03611
1.03834
1.04892
1.05879
1.05715
1.04602
1.03017
1.01679
1.01117
1.01533
1.02655
1.06008
0.337449
0.337159
0.337171
0.337176
0.337094
0.336616
0.334512
0.328059
0.317598
0.311665
0.310936
0.310945
0.311032
0.311096
0.311099
0.311082
0.311007
0.310927
0.310904
0.310892
0.310882
0.310878
0.310871
0.310875
0.310883
0.310882
0.310883
0.310899
0.310882
0.310842
0.310815
0.310809
0.310834
0.310921
0.311176
0.311837
0.312892
0.315948
0.320432
0.358471
0.607289
0.975061
1.08633
1.1616
1.16268
1.16622
1.16605
1.16256
1.16337
1.16653
1.17003
1.17146
1.17384
1.17696
1.18065
1.18195
1.18151
1.18206
1.18489
1.18325
1.18119
1.17771
1.16381
1.14022
1.11613
1.09386
1.07051
1.04706
1.03883
1.04162
1.05263
1.06009
1.05603
1.04327
1.02799
1.01414
1.01225
1.01803
1.03004
1.06591
0.338164
0.337596
0.337584
0.337594
0.337537
0.337176
0.335558
0.330201
0.319964
0.312354
0.310963
0.310946
0.311005
0.311073
0.311081
0.311065
0.311003
0.310934
0.31091
0.310897
0.310882
0.310875
0.310874
0.310876
0.310883
0.310886
0.310893
0.310914
0.310897
0.310852
0.310827
0.310818
0.310836
0.310907
0.311166
0.31172
0.312874
0.314906
0.319385
0.328846
0.339977
0.495796
0.87489
1.13168
1.14548
1.16658
1.16044
1.15995
1.16336
1.16725
1.16982
1.1713
1.1738
1.17729
1.18111
1.18155
1.18122
1.18155
1.18469
1.1835
1.18115
1.17793
1.16476
1.14163
1.11802
1.09525
1.07041
1.04734
1.04159
1.04511
1.0562
1.06074
1.05492
1.04079
1.02582
1.01601
1.01561
1.02229
1.03476
1.07275
0.33877
0.337972
0.337934
0.337965
0.337953
0.337708
0.33649
0.33215
0.322554
0.313434
0.31105
0.31096
0.310991
0.311057
0.311076
0.311062
0.311012
0.310954
0.310923
0.310906
0.31089
0.310876
0.310874
0.310879
0.310884
0.310886
0.310895
0.310923
0.310911
0.310868
0.31084
0.310829
0.310835
0.31089
0.311116
0.311683
0.312728
0.314615
0.318357
0.32525
0.340293
0.352103
0.438746
0.78724
1.01677
1.15581
1.15157
1.15876
1.16548
1.16796
1.16901
1.17065
1.17385
1.17771
1.18014
1.18073
1.18074
1.18095
1.18431
1.18373
1.18116
1.17828
1.16564
1.14361
1.12014
1.09667
1.07097
1.04809
1.04425
1.04859
1.05919
1.0609
1.05361
1.03973
1.02714
1.01949
1.01979
1.02708
1.04077
1.08078
0.339303
0.338307
0.338231
0.338274
0.338302
0.338174
0.337308
0.33389
0.32525
0.314969
0.311228
0.310971
0.310982
0.311035
0.311063
0.311063
0.311034
0.310979
0.310944
0.310923
0.310906
0.310885
0.310867
0.310869
0.310879
0.310885
0.310896
0.310928
0.310921
0.310876
0.310842
0.310823
0.310825
0.310872
0.311089
0.311647
0.312625
0.314361
0.317354
0.32318
0.334111
0.351888
0.360312
0.38923
0.682039
1.04725
1.11578
1.16601
1.16789
1.16815
1.16828
1.17029
1.17412
1.17806
1.17887
1.17981
1.18032
1.18059
1.18421
1.18415
1.18126
1.17855
1.1668
1.14571
1.12228
1.09813
1.07147
1.04934
1.04679
1.05198
1.06143
1.0608
1.0531
1.04017
1.02957
1.02347
1.02427
1.03263
1.04829
1.0895
0.339834
0.338639
0.338507
0.338542
0.338602
0.338555
0.337998
0.335398
0.327891
0.316944
0.311553
0.310979
0.310975
0.311009
0.311038
0.311039
0.311027
0.310994
0.310957
0.310933
0.310916
0.310893
0.31086
0.310851
0.310864
0.310879
0.310895
0.310929
0.310924
0.310881
0.310837
0.310813
0.310812
0.310852
0.311045
0.31157
0.312558
0.314128
0.316778
0.321633
0.33076
0.345316
0.358713
0.364511
0.369845
0.561769
0.92634
1.14821
1.15263
1.16765
1.16909
1.17077
1.1747
1.17624
1.17733
1.17924
1.18009
1.18041
1.18408
1.18474
1.18144
1.17841
1.16765
1.14754
1.12412
1.0994
1.07222
1.05166
1.0495
1.05517
1.06303
1.0608
1.05322
1.0426
1.03227
1.02763
1.02849
1.03867
1.05725
1.09836
0.340365
0.338995
0.338766
0.338804
0.338899
0.338894
0.338567
0.336663
0.330357
0.319303
0.31212
0.31099
0.310966
0.310982
0.311015
0.31102
0.311007
0.310981
0.310958
0.310938
0.310922
0.310894
0.310851
0.310827
0.310836
0.31086
0.310889
0.310928
0.310924
0.310882
0.310835
0.310801
0.310795
0.310831
0.311005
0.311499
0.312453
0.313992
0.316305
0.32032
0.327659
0.340449
0.354836
0.36312
0.367616
0.36908
0.511967
0.913553
1.0868
1.16999
1.1659
1.17079
1.17594
1.17475
1.17652
1.17919
1.18084
1.18096
1.184
1.18565
1.18167
1.17781
1.16837
1.14941
1.12575
1.10042
1.07346
1.05516
1.0525
1.0581
1.06407
1.06119
1.05525
1.04453
1.03532
1.03163
1.03309
1.04565
1.06691
1.10651
0.340805
0.339361
0.339003
0.339044
0.339203
0.339241
0.339059
0.337698
0.332552
0.321914
0.313019
0.311031
0.310954
0.310958
0.310985
0.311001
0.310988
0.310956
0.310949
0.310938
0.310924
0.310895
0.310844
0.310803
0.310807
0.310833
0.310869
0.310917
0.31092
0.310879
0.310829
0.310788
0.310774
0.310806
0.310966
0.311408
0.312332
0.313855
0.316035
0.319455
0.325228
0.335955
0.350655
0.361411
0.366981
0.36934
0.369857
0.458342
0.846417
1.13596
1.14737
1.17331
1.17447
1.17362
1.17747
1.18047
1.18246
1.18188
1.18427
1.18649
1.18195
1.17744
1.16919
1.15167
1.1275
1.10147
1.07532
1.05922
1.05592
1.061
1.06482
1.06207
1.05734
1.04585
1.03941
1.03568
1.03811
1.05336
1.07613
1.11295
0.341092
0.339697
0.339226
0.339255
0.339463
0.339582
0.339486
0.338536
0.334439
0.324632
0.314311
0.311114
0.310921
0.310919
0.310938
0.310972
0.310966
0.310929
0.310926
0.310925
0.310915
0.310887
0.310831
0.310777
0.310777
0.310803
0.310838
0.310884
0.310897
0.310864
0.310824
0.310781
0.310751
0.310778
0.310918
0.311325
0.312215
0.31372
0.315833
0.318763
0.323385
0.332
0.345762
0.358804
0.366406
0.369137
0.369883
0.370543
0.42989
0.8046
1.05017
1.17947
1.16648
1.17203
1.17999
1.18199
1.18335
1.1822
1.18388
1.18683
1.18233
1.17753
1.17079
1.15445
1.1294
1.10246
1.07743
1.06317
1.05939
1.06371
1.06583
1.06365
1.05892
1.04747
1.04354
1.04031
1.04426
1.06167
1.08419
1.11737
0.341226
0.339896
0.339416
0.339437
0.339665
0.339892
0.339855
0.339207
0.336023
0.327324
0.316032
0.311278
0.310849
0.310844
0.31086
0.310911
0.310927
0.310907
0.3109
0.310898
0.310889
0.310864
0.310809
0.310748
0.310743
0.310769
0.310805
0.310849
0.310871
0.310846
0.310814
0.31078
0.310739
0.310748
0.310866
0.311241
0.312086
0.313585
0.315666
0.318323
0.322067
0.328754
0.340593
0.354641
0.365258
0.369267
0.369811
0.370567
0.37168
0.405871
0.757348
1.11456
1.13537
1.17915
1.18097
1.18188
1.18333
1.1827
1.18469
1.18713
1.18266
1.17821
1.17316
1.15744
1.13178
1.10412
1.07994
1.06613
1.06206
1.06585
1.06721
1.06573
1.06023
1.05076
1.04844
1.0467
1.05267
1.07078
1.09003
1.11954
0.341311
0.340024
0.339563
0.339582
0.33981
0.34015
0.340164
0.339743
0.337325
0.329879
0.318192
0.311648
0.310788
0.31077
0.310778
0.310829
0.310855
0.310851
0.310857
0.310875
0.310874
0.310849
0.310788
0.310719
0.310709
0.310735
0.310777
0.310824
0.310857
0.310844
0.310817
0.310781
0.310735
0.310718
0.310811
0.311156
0.311973
0.313452
0.31552
0.318007
0.321122
0.326211
0.335922
0.349187
0.362682
0.369207
0.369758
0.370397
0.371854
0.373153
0.394764
0.704981
1.02259
1.18497
1.17572
1.18179
1.18457
1.18401
1.18737
1.18729
1.18266
1.17946
1.17557
1.16037
1.13351
1.10452
1.08181
1.06759
1.06389
1.06716
1.06924
1.06762
1.0619
1.0554
1.05505
1.05502
1.06182
1.07856
1.09477
1.12145
0.341415
0.340162
0.339695
0.33971
0.33992
0.340346
0.340434
0.340179
0.338385
0.332195
0.320694
0.312317
0.310753
0.310704
0.310709
0.310768
0.310808
0.310806
0.310815
0.310857
0.310864
0.310843
0.310776
0.310695
0.310678
0.310701
0.310748
0.310803
0.31085
0.310847
0.310823
0.310782
0.310732
0.310694
0.310761
0.311075
0.311871
0.313321
0.315361
0.317786
0.320459
0.324382
0.332203
0.343571
0.358403
0.368817
0.369605
0.370335
0.371842
0.373321
0.374478
0.381136
0.679362
1.08559
1.12424
1.18338
1.18579
1.1871
1.19074
1.18729
1.18225
1.18052
1.17765
1.16284
1.13548
1.10635
1.08224
1.06806
1.06532
1.06867
1.07119
1.06912
1.06547
1.06168
1.0638
1.06615
1.07269
1.08481
1.09722
1.12248
0.341444
0.340284
0.339818
0.339828
0.340016
0.340494
0.340697
0.340546
0.339248
0.334221
0.323412
0.313386
0.310765
0.310641
0.310649
0.310723
0.310789
0.310784
0.310783
0.310817
0.310841
0.310826
0.310763
0.310675
0.31065
0.310669
0.31072
0.310786
0.310843
0.31085
0.310829
0.310783
0.310725
0.310677
0.310725
0.311004
0.311784
0.313203
0.315169
0.317587
0.320012
0.323115
0.329234
0.338761
0.352237
0.366726
0.369559
0.370384
0.371796
0.373239
0.374365
0.375815
0.379435
0.626237
0.996094
1.18761
1.17777
1.18915
1.19172
1.18687
1.18317
1.182
1.1794
1.16498
1.138
1.10796
1.08179
1.06812
1.06786
1.07085
1.07269
1.07096
1.07051
1.07077
1.07502
1.07836
1.08283
1.08987
1.09891
1.1235
0.341493
0.340353
0.339921
0.339934
0.340111
0.340611
0.34095
0.340872
0.339953
0.335931
0.326144
0.314908
0.31088
0.310591
0.310601
0.310682
0.310745
0.310755
0.310767
0.310807
0.310829
0.310815
0.310746
0.310652
0.310627
0.310641
0.3107
0.310785
0.310846
0.310854
0.310837
0.310783
0.310716
0.310667
0.310703
0.310944
0.311711
0.313109
0.314951
0.31735
0.319676
0.322273
0.326969
0.334807
0.34601
0.3615
0.368871
0.370453
0.371696
0.373289
0.374231
0.375801
0.377524
0.378746
0.618108
1.04362
1.12463
1.19274
1.1905
1.18709
1.18728
1.1846
1.18172
1.16778
1.14101
1.1084
1.08046
1.07014
1.07164
1.07406
1.07555
1.0745
1.0774
1.08166
1.08636
1.08914
1.09057
1.09267
1.09984
1.12537
0.341508
0.340267
0.340006
0.340039
0.340222
0.340732
0.341202
0.341178
0.340528
0.33735
0.328723
0.316841
0.311164
0.31056
0.310564
0.310629
0.310705
0.310743
0.310772
0.310813
0.310828
0.310815
0.310742
0.310638
0.310613
0.310622
0.310681
0.310789
0.310853
0.310859
0.310842
0.310783
0.310706
0.310662
0.310693
0.3109
0.311647
0.31302
0.314754
0.317041
0.319369
0.321718
0.325353
0.331674
0.340802
0.354938
0.366535
0.370303
0.371784
0.373286
0.374275
0.375548
0.377458
0.379086
0.380748
0.57572
0.98744
1.18998
1.17769
1.18476
1.19294
1.18844
1.18429
1.17107
1.14381
1.10776
1.08005
1.07554
1.07696
1.07945
1.07982
1.08058
1.08645
1.09342
1.09529
1.09606
1.09631
1.09539
1.10123
1.12769
0.341797
0.340315
0.340132
0.340177
0.340365
0.340876
0.341448
0.341468
0.341005
0.338524
0.331101
0.319133
0.311688
0.310543
0.310526
0.310568
0.310667
0.310757
0.310801
0.310824
0.310829
0.310821
0.310748
0.310633
0.310611
0.310617
0.310673
0.310789
0.310858
0.31086
0.310835
0.310765
0.310695
0.31066
0.310689
0.310882
0.311578
0.312917
0.314581
0.31668
0.31905
0.32134
0.32427
0.329393
0.336655
0.348131
0.361947
0.368806
0.371577
0.373349
0.374425
0.375488
0.377235
0.379081
0.381516
0.383282
0.575207
1.01661
1.12223
1.19066
1.19504
1.19109
1.18708
1.17405
1.14588
1.10646
1.0818
1.08211
1.08343
1.08547
1.08621
1.08915
1.09598
1.10432
1.10256
1.10036
1.09916
1.09877
1.10514
1.13058
0.342525
0.340624
0.340322
0.340362
0.340538
0.341033
0.341672
0.341745
0.34141
0.339496
0.333258
0.321679
0.312519
0.310553
0.310486
0.310518
0.31064
0.310771
0.310817
0.310837
0.310845
0.310839
0.310767
0.31064
0.310616
0.310621
0.310676
0.310794
0.310865
0.310858
0.310813
0.310746
0.310692
0.310663
0.310692
0.310881
0.311506
0.312781
0.31442
0.316337
0.318712
0.321048
0.323563
0.32769
0.333596
0.341994
0.355675
0.366017
0.371043
0.373401
0.374848
0.375574
0.377006
0.379169
0.381477
0.384031
0.385306
0.556634
0.991762
1.19633
1.18859
1.19379
1.19107
1.1764
1.14592
1.10615
1.0892
1.08853
1.08992
1.09222
1.09434
1.09978
1.10482
1.11006
1.10522
1.10125
1.10096
1.10267
1.10979
1.13256
0.343533
0.341317
0.34062
0.340617
0.340744
0.341201
0.341883
0.342016
0.341772
0.340304
0.335157
0.324337
0.313715
0.310622
0.310462
0.310487
0.310624
0.310783
0.310834
0.310851
0.310856
0.310848
0.310767
0.310644
0.310624
0.310633
0.310697
0.310822
0.310871
0.310847
0.310786
0.310742
0.310705
0.310675
0.310713
0.310895
0.311445
0.312623
0.31425
0.316071
0.318325
0.320741
0.323096
0.326445
0.331426
0.337569
0.34904
0.362129
0.369716
0.373261
0.375565
0.376011
0.376954
0.378878
0.381275
0.38378
0.385846
0.387384
0.585643
1.05183
1.13554
1.19502
1.19312
1.17725
1.14706
1.107
1.09805
1.09699
1.09759
1.10041
1.10401
1.11183
1.11245
1.11318
1.10743
1.10251
1.10394
1.10804
1.11421
1.13326
0.34443
0.342288
0.341002
0.340909
0.341005
0.341448
0.342143
0.342304
0.342111
0.340965
0.336773
0.326958
0.315304
0.3108
0.310453
0.310472
0.310604
0.310795
0.310854
0.310861
0.310862
0.310852
0.310769
0.310673
0.310658
0.310665
0.310733
0.31085
0.310866
0.310815
0.310767
0.310759
0.310751
0.310729
0.310748
0.3109
0.311381
0.312455
0.314063
0.315857
0.317966
0.320352
0.322728
0.32561
0.329772
0.334695
0.342751
0.356405
0.36612
0.371726
0.375638
0.376675
0.377237
0.37879
0.380866
0.383263
0.385762
0.388009
0.389686
0.620571
1.03532
1.20444
1.19608
1.17754
1.14969
1.11437
1.10854
1.10569
1.10531
1.1092
1.11533
1.1222
1.11802
1.11412
1.10782
1.10428
1.10696
1.11234
1.1172
1.13351
0.345006
0.343237
0.341513
0.34126
0.341363
0.341804
0.342429
0.342554
0.342382
0.341448
0.338056
0.329419
0.317277
0.311159
0.310469
0.310478
0.310587
0.310796
0.310864
0.310864
0.31086
0.310849
0.310795
0.310725
0.310713
0.310714
0.310767
0.31086
0.31086
0.310796
0.310777
0.310809
0.310822
0.310803
0.310778
0.310875
0.311276
0.312257
0.313853
0.315667
0.317655
0.319895
0.322334
0.324953
0.328534
0.332955
0.338456
0.348586
0.359898
0.368157
0.375079
0.377324
0.377579
0.378887
0.380789
0.382896
0.385966
0.387728
0.39068
0.392748
0.703108
1.12629
1.16449
1.17752
1.15678
1.12706
1.11994
1.11384
1.11316
1.1191
1.12673
1.12925
1.12298
1.11483
1.10726
1.10696
1.11089
1.11455
1.11796
1.13348
0.345256
0.343939
0.342179
0.341688
0.341786
0.342164
0.342617
0.342679
0.342521
0.341748
0.339029
0.331657
0.319591
0.311786
0.310515
0.310504
0.310582
0.310763
0.310863
0.310869
0.310866
0.310855
0.31083
0.310776
0.310757
0.310754
0.310783
0.31084
0.310836
0.310815
0.31083
0.310871
0.310873
0.310838
0.310737
0.310774
0.31111
0.312052
0.313654
0.315488
0.317369
0.319467
0.32189
0.324462
0.327609
0.331654
0.33604
0.342828
0.353361
0.363013
0.37264
0.377374
0.377727
0.378805
0.380682
0.38286
0.385697
0.387993
0.391103
0.393311
0.403704
0.776635
1.10006
1.18509
1.16253
1.14211
1.13209
1.12132
1.12184
1.13011
1.13725
1.13456
1.12629
1.11797
1.11221
1.11333
1.11576
1.11582
1.11847
1.13445
0.345133
0.34441
0.343054
0.342232
0.342275
0.342528
0.342756
0.342753
0.342591
0.341929
0.339734
0.33358
0.322165
0.312794
0.310594
0.310516
0.310561
0.310699
0.310835
0.310875
0.310885
0.310889
0.310883
0.310835
0.310784
0.310767
0.310765
0.310796
0.310819
0.310851
0.310896
0.310927
0.31092
0.310854
0.31066
0.310637
0.310932
0.311869
0.313499
0.315319
0.317109
0.319108
0.321443
0.32406
0.326989
0.330516
0.334569
0.339773
0.348354
0.357747
0.366668
0.376009
0.377775
0.378848
0.380784
0.382997
0.385612
0.388701
0.391532
0.395281
0.396771
0.433126
0.879486
1.16888
1.15624
1.15226
1.13968
1.12624
1.12918
1.14078
1.14406
1.13843
1.12951
1.12269
1.1211
1.12156
1.11918
1.11569
1.1189
1.13736
0.345129
0.344796
0.344098
0.343035
0.342743
0.342849
0.342935
0.342912
0.342742
0.342099
0.340118
0.334942
0.324799
0.314391
0.310785
0.310517
0.310533
0.310614
0.310752
0.310871
0.310926
0.310938
0.310939
0.310907
0.310803
0.310755
0.310747
0.310777
0.310823
0.310875
0.310948
0.310969
0.310959
0.31085
0.310577
0.310549
0.310836
0.311772
0.313395
0.315177
0.316878
0.318835
0.321082
0.323713
0.326673
0.329743
0.33354
0.338152
0.344506
0.353274
0.361091
0.369928
0.376141
0.378877
0.381458
0.383685
0.38609
0.389515
0.392278
0.396205
0.398843
0.400632
0.494104
0.980516
1.12011
1.15937
1.13989
1.12906
1.13704
1.14926
1.14772
1.14097
1.13518
1.13107
1.13053
1.1276
1.12135
1.11625
1.12029
1.14027
0.345395
0.345348
0.34507
0.344003
0.343096
0.343054
0.343149
0.343162
0.342996
0.342266
0.340177
0.335562
0.327118
0.316754
0.311304
0.310528
0.31052
0.310559
0.310678
0.310846
0.310968
0.310989
0.310985
0.310955
0.310824
0.310743
0.310742
0.310781
0.310831
0.310889
0.310973
0.31099
0.310977
0.310818
0.310509
0.310506
0.310809
0.311743
0.313312
0.315058
0.316689
0.318712
0.320924
0.323463
0.326505
0.329387
0.332918
0.337364
0.342246
0.349487
0.357207
0.364341