/*--------------------------------*- C++ -*----------------------------------*\
  =========                 |
  \\      /  F ield         | OpenFOAM: The Open Source CFD Toolbox
   \\    /   O peration     | Website:  https://openfoam.org
    \\  /    A nd           | Version:  7
     \\/     M anipulation  |
\*---------------------------------------------------------------------------*/
FoamFile
{
    version     2.0;
    format      ascii;
    class       volVectorField;
    location    "3";
    object      U;
}
// * * * * * * * * * * * * * * * * * * * * * * * * * * * * * * * * * * * * * //

dimensions      [0 1 -1 0 0 0 0];

internalField   nonuniform List<vector> 
3600
(
(3.115 -0.286152 0)
(3.10973 -0.263618 0)
(3.10477 -0.240338 0)
(3.09951 -0.214321 0)
(3.09552 -0.193205 0)
(3.09049 -0.166424 0)
(3.08616 -0.149969 0)
(3.07767 -0.121198 0)
(3.07213 -0.109268 0)
(3.05924 -0.0764705 0)
(3.05799 -0.0671266 0)
(3.04334 -0.0318367 0)
(3.04191 -0.0159052 0)
(3.04249 -0.00331251 0)
(3.04527 0.00578354 0)
(3.03819 0.000553349 0)
(3.03587 -0.000451111 0)
(3.03955 0.00329227 0)
(3.04867 0.00213833 0)
(3.0339 -0.00261989 0)
(3.11254 -0.301689 0)
(3.11192 -0.301259 0)
(3.11004 -0.299864 0)
(3.10652 -0.296864 0)
(3.10121 -0.290246 0)
(3.09325 -0.279063 0)
(3.08459 -0.264975 0)
(3.07242 -0.237861 0)
(3.06336 -0.211013 0)
(3.04728 -0.159344 0)
(3.04219 -0.122616 0)
(3.02627 -0.0478444 0)
(3.02783 -0.0231046 0)
(3.02651 0.030478 0)
(3.02666 0.0192592 0)
(3.03284 0.00113922 0)
(3.03406 -0.000170145 0)
(3.0409 0.012145 0)
(3.04658 0.00470795 0)
(3.03188 -0.0058627 0)
(3.09607 -0.298509 0)
(3.09594 -0.29888 0)
(3.09559 -0.299642 0)
(3.09522 -0.300089 0)
(3.09456 -0.300601 0)
(3.0938 -0.300187 0)
(3.09288 -0.299542 0)
(3.09137 -0.298804 0)
(3.08819 -0.294088 0)
(3.08254 -0.286792 0)
(3.07427 -0.264149 0)
(3.06551 -0.231052 0)
(3.05439 -0.174428 0)
(3.04554 -0.106916 0)
(3.04056 -0.0667161 0)
(3.03943 -0.0187841 0)
(3.03986 -0.000937021 0)
(3.03653 0.0188578 0)
(3.03561 0.00525917 0)
(3.02721 -0.0141402 0)
(3.08362 -0.314725 0)
(3.08322 -0.314569 0)
(3.08312 -0.313793 0)
(3.08366 -0.312661 0)
(3.08374 -0.311862 0)
(3.08458 -0.310607 0)
(3.08587 -0.309564 0)
(3.08671 -0.307636 0)
(3.0866 -0.306794 0)
(3.08719 -0.307083 0)
(3.09167 -0.305596 0)
(3.09637 -0.299889 0)
(3.09559 -0.284832 0)
(3.08904 -0.256688 0)
(3.05841 -0.140257 0)
(3.06458 -0.0892467 0)
(3.04472 0.0252582 0)
(3.03049 0.0234259 0)
(3.03373 0.00195582 0)
(3.02889 -0.0105919 0)
(3.0874 -0.330974 0)
(3.08721 -0.330268 0)
(3.08709 -0.329149 0)
(3.08742 -0.327925 0)
(3.08651 -0.326471 0)
(3.08542 -0.324975 0)
(3.08472 -0.324107 0)
(3.08443 -0.323963 0)
(3.0866 -0.321713 0)
(3.0926 -0.319954 0)
(3.10285 -0.318013 0)
(3.1137 -0.317451 0)
(3.11065 -0.308206 0)
(3.10786 -0.295803 0)
(3.10235 -0.278902 0)
(3.09292 -0.223023 0)
(3.07918 -0.129091 0)
(3.06621 -0.0838313 0)
(3.06163 -0.0449573 0)
(3.03706 -0.0169762 0)
(3.08274 -0.328524 0)
(3.08341 -0.32798 0)
(3.08415 -0.327236 0)
(3.08489 -0.326737 0)
(3.08581 -0.326795 0)
(3.08683 -0.327302 0)
(3.08792 -0.328497 0)
(3.08967 -0.329763 0)
(3.09399 -0.327656 0)
(3.10136 -0.331186 0)
(3.11149 -0.329785 0)
(3.1162 -0.322334 0)
(3.11612 -0.313681 0)
(3.11242 -0.306718 0)
(3.11206 -0.308716 0)
(3.11249 -0.306096 0)
(3.10436 -0.289409 0)
(3.08434 -0.204671 0)
(3.08062 -0.127137 0)
(3.0393 -0.009444 0)
(3.06269 -0.258529 0)
(3.06428 -0.260321 0)
(3.06605 -0.26129 0)
(3.06906 -0.263942 0)
(3.07237 -0.266769 0)
(3.07594 -0.269672 0)
(3.07944 -0.274638 0)
(3.08273 -0.27576 0)
(3.08521 -0.277122 0)
(3.08647 -0.276532 0)
(3.08486 -0.276562 0)
(3.08492 -0.280624 0)
(3.08673 -0.283373 0)
(3.08879 -0.285015 0)
(3.09453 -0.300732 0)
(3.09839 -0.316223 0)
(3.10518 -0.327351 0)
(3.11347 -0.337273 0)
(3.1105 -0.286581 0)
(3.06881 -0.116947 0)
(3.05589 -0.20843 0)
(3.05681 -0.20742 0)
(3.05804 -0.208419 0)
(3.06003 -0.213284 0)
(3.06171 -0.217622 0)
(3.06329 -0.213663 0)
(3.06692 -0.217446 0)
(3.06808 -0.224422 0)
(3.06615 -0.233138 0)
(3.07002 -0.248766 0)
(3.06724 -0.263527 0)
(3.06773 -0.284502 0)
(3.07504 -0.308356 0)
(3.08321 -0.306844 0)
(3.09229 -0.325599 0)
(3.09444 -0.338587 0)
(3.10027 -0.354393 0)
(3.10817 -0.355302 0)
(3.12852 -0.325871 0)
(3.10292 -0.246604 0)
(3.00448 0.0099927 0)
(3.00513 0.00644664 0)
(3.00565 0.00746429 0)
(3.00789 0.00349333 0)
(3.0107 -0.0058247 0)
(3.01251 -0.0123869 0)
(3.01638 -0.0214621 0)
(3.01953 -0.0273857 0)
(3.02504 -0.0438145 0)
(3.02833 -0.0502626 0)
(3.03451 -0.0681528 0)
(3.03988 -0.0759216 0)
(3.04278 -0.0815821 0)
(3.05443 -0.122334 0)
(3.06108 -0.148623 0)
(3.06751 -0.160373 0)
(3.07391 -0.17664 0)
(3.08041 -0.187064 0)
(3.09691 -0.220336 0)
(3.09843 -0.228071 0)
(2.93241 0.202023 0)
(2.93318 0.201562 0)
(2.93416 0.201438 0)
(2.93642 0.198217 0)
(2.93822 0.194726 0)
(2.94046 0.191115 0)
(2.94329 0.187562 0)
(2.94762 0.181055 0)
(2.9521 0.175221 0)
(2.95934 0.163782 0)
(2.96631 0.153544 0)
(2.97563 0.136225 0)
(2.98498 0.116033 0)
(2.9978 0.0856006 0)
(3.00716 0.0618113 0)
(3.02853 0.00585294 0)
(3.04015 -0.0246792 0)
(3.06552 -0.105691 0)
(3.07892 -0.15117 0)
(3.10189 -0.234507 0)
(2.91728 0.211297 0)
(2.91776 0.211714 0)
(2.91834 0.211979 0)
(2.91904 0.212367 0)
(2.91986 0.212461 0)
(2.92065 0.213308 0)
(2.92158 0.213139 0)
(2.92264 0.212238 0)
(2.92417 0.211151 0)
(2.92681 0.208902 0)
(2.92983 0.208373 0)
(2.93364 0.207521 0)
(2.94037 0.200798 0)
(2.94719 0.194553 0)
(2.95635 0.185948 0)
(2.96788 0.172198 0)
(2.98232 0.151631 0)
(3.00142 0.118496 0)
(3.02281 0.0758394 0)
(3.05655 -0.00684328 0)
(2.94073 0.129675 0)
(2.94027 0.13117 0)
(2.93951 0.134142 0)
(2.93947 0.135803 0)
(2.93937 0.136708 0)
(2.93871 0.139314 0)
(2.93837 0.141923 0)
(2.93822 0.143956 0)
(2.93742 0.148067 0)
(2.93795 0.150516 0)
(2.93728 0.15664 0)
(2.93921 0.1596 0)
(2.9404 0.163418 0)
(2.9455 0.166944 0)
(2.94849 0.16649 0)
(2.95404 0.163897 0)
(2.96165 0.159304 0)
(2.97305 0.151177 0)
(2.98626 0.141863 0)
(3.01832 0.105533 0)
(2.98926 0.0201123 0)
(2.98918 0.0199935 0)
(2.98864 0.0209509 0)
(2.98825 0.0220029 0)
(2.98778 0.02308 0)
(2.98721 0.0240698 0)
(2.98632 0.025993 0)
(2.98554 0.027671 0)
(2.98417 0.0307582 0)
(2.98297 0.0334008 0)
(2.98093 0.0383362 0)
(2.97929 0.0430664 0)
(2.97677 0.0504438 0)
(2.97483 0.0575327 0)
(2.9716 0.068189 0)
(2.97013 0.0798998 0)
(2.97 0.0888875 0)
(2.97121 0.102097 0)
(2.98324 0.102052 0)
(2.99815 0.0887785 0)
(2.99966 0.000581202 0)
(2.99965 0.000602985 0)
(2.99964 0.000625946 0)
(2.99961 0.000668197 0)
(2.99959 0.000714575 0)
(2.99955 0.000781804 0)
(2.9995 0.000860904 0)
(2.99943 0.000983554 0)
(2.99935 0.0011314 0)
(2.99922 0.00136484 0)
(2.99906 0.00166766 0)
(2.99882 0.0021606 0)
(2.99849 0.00281427 0)
(2.99798 0.00390744 0)
(2.99726 0.005519 0)
(2.99625 0.00809098 0)
(2.99477 0.0121253 0)
(2.9934 0.0172483 0)
(2.9916 0.0253303 0)
(2.99419 0.0316204 0)
(3 6.93733e-06 0)
(3 7.24489e-06 0)
(3 7.64357e-06 0)
(3 8.15913e-06 0)
(2.99999 8.85541e-06 0)
(2.99999 9.7604e-06 0)
(2.99999 1.10126e-05 0)
(2.99999 1.27167e-05 0)
(2.99999 1.51839e-05 0)
(2.99999 1.87021e-05 0)
(2.99999 2.41726e-05 0)
(2.99998 3.2489e-05 0)
(2.99998 4.62872e-05 0)
(2.99996 6.9027e-05 0)
(2.99995 0.000110759 0)
(2.99991 0.00018399 0)
(2.99986 0.000331992 0)
(2.99976 0.000595307 0)
(2.99957 0.00113931 0)
(2.99951 0.00222944 0)
(3.11922 -0.303266 0)
(3.112 -0.301866 0)
(3.0964 -0.297915 0)
(3.08394 -0.314484 0)
(3.08692 -0.331847 0)
(3.08203 -0.328846 0)
(3.0607 -0.255972 0)
(3.05449 -0.209035 0)
(3.00178 0.0177458 0)
(2.9311 0.204606 0)
(2.91679 0.211083 0)
(2.94055 0.129582 0)
(2.98954 0.0195663 0)
(2.99968 0.000553641 0)
(3 6.60738e-06 0)
(3.1175 -0.303365 0)
(3.11062 -0.299736 0)
(3.09602 -0.297839 0)
(3.08414 -0.31458 0)
(3.0862 -0.332876 0)
(3.08066 -0.329977 0)
(3.05776 -0.251712 0)
(3.05308 -0.203926 0)
(2.99987 0.023465 0)
(2.9291 0.207819 0)
(2.91621 0.21082 0)
(2.94104 0.127705 0)
(2.99006 0.01841 0)
(2.9997 0.000513492 0)
(3 6.12572e-06 0)
(3.11616 -0.304119 0)
(3.10945 -0.300075 0)
(3.09575 -0.297708 0)
(3.08416 -0.314237 0)
(3.08567 -0.333471 0)
(3.07956 -0.330142 0)
(3.05695 -0.249213 0)
(3.05149 -0.200135 0)
(2.99772 0.0291003 0)
(2.92728 0.210298 0)
(2.91565 0.210524 0)
(2.94199 0.124856 0)
(2.99061 0.0173702 0)
(2.99972 0.000479132 0)
(3 5.64234e-06 0)
(3.11467 -0.303927 0)
(3.10752 -0.29936 0)
(3.09392 -0.29769 0)
(3.08374 -0.314821 0)
(3.08512 -0.3338 0)
(3.07877 -0.330071 0)
(3.05755 -0.246921 0)
(3.05007 -0.196636 0)
(2.99475 0.0370545 0)
(2.9253 0.21305 0)
(2.91516 0.210248 0)
(2.94285 0.122333 0)
(2.99112 0.0164878 0)
(2.99975 0.00043823 0)
(3 5.13831e-06 0)
(3.11315 -0.303416 0)
(3.10531 -0.299273 0)
(3.09214 -0.298073 0)
(3.08308 -0.315263 0)
(3.08482 -0.333883 0)
(3.07834 -0.329907 0)
(3.05644 -0.241067 0)
(3.04811 -0.19035 0)
(2.99097 0.0467712 0)
(2.92314 0.21621 0)
(2.91457 0.209944 0)
(2.94408 0.119133 0)
(2.99175 0.0153308 0)
(2.99977 0.000398761 0)
(3 4.62136e-06 0)
(3.11148 -0.303437 0)
(3.10304 -0.298009 0)
(3.08988 -0.298208 0)
(3.08201 -0.315805 0)
(3.08459 -0.33409 0)
(3.0783 -0.329627 0)
(3.05351 -0.235127 0)
(3.0455 -0.182862 0)
(2.98738 0.0557146 0)
(2.92087 0.219588 0)
(2.9136 0.209874 0)
(2.94552 0.115649 0)
(2.99238 0.0142235 0)
(2.9998 0.000355983 0)
(3 4.09878e-06 0)
(3.10975 -0.303844 0)
(3.10087 -0.297634 0)
(3.08779 -0.298071 0)
(3.08023 -0.316347 0)
(3.08336 -0.334875 0)
(3.07902 -0.330217 0)
(3.04967 -0.226582 0)
(3.04317 -0.178367 0)
(2.98292 0.067166 0)
(2.91841 0.223257 0)
(2.91204 0.21104 0)
(2.94759 0.111113 0)
(2.99308 0.0129361 0)
(2.99982 0.000315006 0)
(3 3.57595e-06 0)
(3.10809 -0.303596 0)
(3.09903 -0.296622 0)
(3.08646 -0.297671 0)
(3.07731 -0.317358 0)
(3.08129 -0.336371 0)
(3.08222 -0.335463 0)
(3.04552 -0.212998 0)
(3.04023 -0.170862 0)
(2.97766 0.0807647 0)
(2.91588 0.226713 0)
(2.9112 0.213917 0)
(2.94972 0.106935 0)
(2.99374 0.0117272 0)
(2.99984 0.000272399 0)
(3 3.06203e-06 0)
(3.10612 -0.304039 0)
(3.09746 -0.295611 0)
(3.08315 -0.296164 0)
(3.07364 -0.315929 0)
(3.07929 -0.338637 0)
(3.08442 -0.343653 0)
(3.04543 -0.199671 0)
(3.03644 -0.154617 0)
(2.97216 0.0946459 0)
(2.91302 0.230763 0)
(2.91113 0.216753 0)
(2.95213 0.102085 0)
(2.99445 0.0103283 0)
(2.99987 0.000231735 0)
(3 2.56499e-06 0)
(3.10386 -0.304446 0)
(3.09625 -0.295098 0)
(3.08082 -0.294804 0)
(3.07097 -0.314399 0)
(3.07791 -0.340435 0)
(3.08419 -0.352271 0)
(3.04705 -0.192015 0)
(3.0326 -0.136811 0)
(2.96581 0.109987 0)
(2.91009 0.234772 0)
(2.91193 0.218856 0)
(2.95444 0.0964968 0)
(2.99512 0.00901467 0)
(2.99989 0.000191576 0)
(3 2.09497e-06 0)
(3.10127 -0.305598 0)
(3.09482 -0.295223 0)
(3.07967 -0.29374 0)
(3.0697 -0.312184 0)
(3.0753 -0.337503 0)
(3.0813 -0.360256 0)
(3.0495 -0.191949 0)
(3.02712 -0.111845 0)
(2.95892 0.126082 0)
(2.90711 0.238488 0)
(2.91045 0.217962 0)
(2.95708 0.0891357 0)
(2.99585 0.00755599 0)
(2.99991 0.000154325 0)
(3 1.66127e-06 0)
(3.0989 -0.306655 0)
(3.09383 -0.294688 0)
(3.07946 -0.293766 0)
(3.06922 -0.311087 0)
(3.07187 -0.330501 0)
(3.07629 -0.366249 0)
(3.05233 -0.199716 0)
(3.02171 -0.0870924 0)
(2.95099 0.144192 0)
(2.90415 0.241761 0)
(2.90931 0.212891 0)
(2.95999 0.0811507 0)
(2.99655 0.00621433 0)
(2.99993 0.000119859 0)
(3 1.27336e-06 0)
(3.09706 -0.308681 0)
(3.0933 -0.296784 0)
(3.08033 -0.294121 0)
(3.0697 -0.310633 0)
(3.06722 -0.3226 0)
(3.07185 -0.367457 0)
(3.05459 -0.20819 0)
(3.01218 -0.0531298 0)
(2.94269 0.162574 0)
(2.90128 0.244579 0)
(2.91137 0.20242 0)
(2.96393 0.0716887 0)
(2.99727 0.00486694 0)
(2.99995 8.97414e-05 0)
(3 9.38264e-07 0)
(3.09579 -0.311297 0)
(3.09129 -0.301556 0)
(3.08196 -0.294616 0)
(3.07131 -0.311075 0)
(3.06306 -0.315132 0)
(3.07164 -0.355698 0)
(3.05474 -0.212774 0)
(3.00503 -0.0260324 0)
(2.93342 0.18278 0)
(2.89887 0.246457 0)
(2.91512 0.191531 0)
(2.96845 0.061982 0)
(2.99793 0.00368878 0)
(2.99996 6.42163e-05 0)
(3 6.60423e-07 0)
(3.09562 -0.314006 0)
(3.09167 -0.307191 0)
(3.08223 -0.297341 0)
(3.07341 -0.31207 0)
(3.05906 -0.308975 0)
(3.06092 -0.330473 0)
(3.051 -0.20538 0)
(2.99038 0.0182141 0)
(2.92353 0.20304 0)
(2.89692 0.247688 0)
(2.91545 0.186171 0)
(2.97371 0.050956 0)
(2.99851 0.00264671 0)
(2.99997 4.36706e-05 0)
(3 4.40716e-07 0)
(3.0959 -0.316017 0)
(3.09452 -0.312549 0)
(3.08431 -0.310835 0)
(3.07495 -0.313617 0)
(3.05761 -0.303563 0)
(3.04607 -0.303214 0)
(3.04276 -0.179191 0)
(2.97889 0.0526309 0)
(2.91394 0.221412 0)
(2.89594 0.247384 0)
(2.91845 0.17906 0)
(2.97893 0.0405376 0)
(2.99899 0.00179588 0)
(2.99998 2.79904e-05 0)
(3 2.76127e-07 0)
(3.10048 -0.321912 0)
(3.09514 -0.321719 0)
(3.082 -0.32293 0)
(3.07626 -0.323978 0)
(3.06006 -0.293846 0)
(3.05548 -0.296093 0)
(3.03041 -0.126631 0)
(2.96322 0.0968535 0)
(2.90439 0.238362 0)
(2.89585 0.245825 0)
(2.92479 0.163452 0)
(2.98432 0.0298755 0)
(2.99936 0.00113634 0)
(2.99999 1.66828e-05 0)
(3 1.60444e-07 0)
(3.10328 -0.315979 0)
(3.09622 -0.33181 0)
(3.07929 -0.329892 0)
(3.07508 -0.334469 0)
(3.05958 -0.288955 0)
(3.05595 -0.298465 0)
(3.01153 -0.0579451 0)
(2.9441 0.14798 0)
(2.8971 0.249899 0)
(2.89595 0.24356 0)
(2.93445 0.140484 0)
(2.98912 0.0206696 0)
(2.99963 0.000657112 0)
(2.99999 9.13711e-06 0)
(3 8.49098e-08 0)
(3.10827 -0.317942 0)
(3.09203 -0.333006 0)
(3.07555 -0.338135 0)
(3.07196 -0.343166 0)
(3.05438 -0.278503 0)
(3.0505 -0.253954 0)
(2.99662 0.00168625 0)
(2.92284 0.199953 0)
(2.89204 0.257664 0)
(2.89978 0.232688 0)
(2.94641 0.113478 0)
(2.99321 0.0128199 0)
(2.9998 0.000346065 0)
(3 4.47489e-06 0)
(3 3.98544e-08 0)
(3.11892 -0.309297 0)
(3.09675 -0.319121 0)
(3.06991 -0.348874 0)
(3.0591 -0.363714 0)
(3.03329 -0.231868 0)
(3.02995 -0.151164 0)
(2.97762 0.0603227 0)
(2.90305 0.242779 0)
(2.88905 0.262227 0)
(2.89892 0.236152 0)
(2.95893 0.0846909 0)
(2.9962 0.00710272 0)
(2.99991 0.000156443 0)
(3 1.87706e-06 0)
(3 1.57584e-08 0)
(3 7.11883e-14 0)
(3 1.45212e-11 0)
(3 2.68263e-09 0)
(3 3.2552e-07 0)
(2.99998 3.00817e-05 0)
(2.99889 0.00181027 0)
(2.9769 0.0432324 0)
(2.91248 0.198046 0)
(2.88933 0.264261 0)
(2.87211 0.304073 0)
(2.87843 0.297566 0)
(2.88235 0.290498 0)
(2.87543 0.284197 0)
(2.871 0.282151 0)
(2.87677 0.286056 0)
(3 9.00025e-14 0)
(3 1.92314e-11 0)
(3 2.92266e-09 0)
(3 3.47233e-07 0)
(2.99998 3.30019e-05 0)
(2.99871 0.00207366 0)
(2.97511 0.0478721 0)
(2.91014 0.209455 0)
(2.8885 0.266311 0)
(2.87115 0.303411 0)
(2.87689 0.298349 0)
(2.88166 0.291482 0)
(2.87521 0.284478 0)
(2.8815 0.276296 0)
(2.89261 0.274004 0)
(3 1.0751e-13 0)
(3 2.24722e-11 0)
(3 3.36216e-09 0)
(3 4.33814e-07 0)
(2.99997 4.30171e-05 0)
(2.99844 0.00267834 0)
(2.97366 0.0518329 0)
(2.90992 0.215369 0)
(2.88761 0.267105 0)
(2.87029 0.302498 0)
(2.87581 0.298432 0)
(2.88053 0.29243 0)
(2.87535 0.28436 0)
(2.8962 0.264436 0)
(2.90543 0.281349 0)
(3 1.29333e-13 0)
(3 2.65445e-11 0)
(3 4.38128e-09 0)
(3 5.69543e-07 0)
(2.99997 5.44314e-05 0)
(2.9982 0.00320158 0)
(2.97094 0.0585814 0)
(2.90834 0.218922 0)
(2.88659 0.266243 0)
(2.86946 0.301042 0)
(2.87451 0.29828 0)
(2.87936 0.292636 0)
(2.87606 0.283824 0)
(2.91625 0.24161 0)
(2.91954 0.25545 0)
(3 1.70635e-13 0)
(3 3.42205e-11 0)
(3 5.68586e-09 0)
(3 7.18999e-07 0)
(2.99996 6.76723e-05 0)
(2.99785 0.00383965 0)
(2.96853 0.0634822 0)
(2.90561 0.224294 0)
(2.88605 0.266289 0)
(2.86912 0.299116 0)
(2.87305 0.297927 0)
(2.87816 0.293508 0)
(2.87828 0.281196 0)
(2.93541 0.210441 0)
(2.93089 0.264112 0)
(3 2.07072e-13 0)
(3 4.57924e-11 0)
(3 7.47137e-09 0)
(3 9.45228e-07 0)
(2.99995 8.80905e-05 0)
(2.99733 0.00472962 0)
(2.96401 0.0732746 0)
(2.90119 0.236465 0)
(2.88599 0.267324 0)
(2.87035 0.297248 0)
(2.87268 0.297087 0)
(2.87711 0.293637 0)
(2.88266 0.274752 0)
(2.95826 0.161536 0)
(2.95005 0.222426 0)
(3 2.91698e-13 0)
(3 6.2864e-11 0)
(3 1.0304e-08 0)
(3 1.29983e-06 0)
(2.99993 0.000119291 0)
(2.99658 0.00617112 0)
(2.96035 0.0810481 0)
(2.90039 0.238437 0)
(2.88588 0.267252 0)
(2.87037 0.294541 0)
(2.87232 0.296047 0)
(2.87645 0.292973 0)
(2.88976 0.261814 0)
(2.97542 0.106162 0)
(2.966 0.228997 0)
(3 4.26593e-13 0)
(3 9.01063e-11 0)
(3 1.47789e-08 0)
(3 1.84444e-06 0)
(2.9999 0.000165034 0)
(2.99571 0.00770141 0)
(2.95464 0.0933348 0)
(2.8956 0.247803 0)
(2.88519 0.266713 0)
(2.87231 0.29186 0)
(2.87257 0.294509 0)
(2.8771 0.290452 0)
(2.90052 0.239811 0)
(2.9968 0.0271582 0)
(3.00005 0.164996 0)
(3 6.38864e-13 0)
(3 1.35799e-10 0)
(3 2.21687e-08 0)
(3 2.73432e-06 0)
(2.99986 0.000237205 0)
(2.99423 0.0106489 0)
(2.94903 0.10603 0)
(2.89284 0.253467 0)
(2.88422 0.266218 0)
(2.87323 0.28924 0)
(2.87363 0.292584 0)
(2.87998 0.285159 0)
(2.91585 0.204648 0)
(3.01028 -0.0493197 0)
(3.0183 0.157243 0)
(3 1.03572e-12 0)
(3 2.16053e-10 0)
(3 3.49557e-08 0)
(3 4.22422e-06 0)
(2.9998 0.000353439 0)
(2.99268 0.0134375 0)
(2.94297 0.119646 0)
(2.88901 0.260667 0)
(2.88312 0.266991 0)
(2.8741 0.287278 0)
(2.87506 0.291053 0)
(2.88804 0.271063 0)
(2.93409 0.157324 0)
(3.03249 -0.151276 0)
(3.0603 0.0714666 0)
(3 1.7263e-12 0)
(3 3.649e-10 0)
(3 5.81386e-08 0)
(3 6.84831e-06 0)
(2.99969 0.000539631 0)
(2.98976 0.0194537 0)
(2.93493 0.138627 0)
(2.88679 0.264664 0)
(2.88113 0.268241 0)
(2.87589 0.285711 0)
(2.87815 0.286813 0)
(2.89987 0.249602 0)
(2.95624 0.0931612 0)
(3.04462 -0.236027 0)
(3.06786 0.0224503 0)
(3 3.17931e-12 0)
(3 6.55101e-10 0)
(3 1.01838e-07 0)
(2.99999 1.15322e-05 0)
(2.99952 0.000859683 0)
(2.98716 0.0244472 0)
(2.93009 0.151345 0)
(2.88313 0.271821 0)
(2.87986 0.270031 0)
(2.87675 0.284974 0)
(2.88286 0.27942 0)
(2.92093 0.206996 0)
(2.97584 0.0264731 0)
(3.06141 -0.341988 0)
(3.09133 -0.0858015 0)
(3 6.21689e-12 0)
(3 1.25212e-09 0)
(3 1.88383e-07 0)
(2.99999 2.0448e-05 0)
(2.99923 0.00138558 0)
(2.98168 0.0363137 0)
(2.91979 0.177954 0)
(2.88228 0.275321 0)
(2.87889 0.272551 0)
(2.87685 0.283788 0)
(2.8926 0.261365 0)
(2.94507 0.151459 0)
(2.99627 -0.0519301 0)
(3.07178 -0.405679 0)
(3.10638 -0.17786 0)
(3 1.30712e-11 0)
(3 2.54543e-09 0)
(3 3.66542e-07 0)
(2.99998 3.74113e-05 0)
(2.99874 0.00232415 0)
(2.97741 0.0451044 0)
(2.9166 0.188444 0)
(2.88041 0.281362 0)
(2.87756 0.275457 0)
(2.87731 0.280371 0)
(2.90788 0.228851 0)
(2.97458 0.0722754 0)
(3.00602 -0.109361 0)
(3.07429 -0.483413 0)
(3.12621 -0.274328 0)
(3 2.96198e-11 0)
(3 5.51736e-09 0)
(3 7.54744e-07 0)
(2.99996 7.24766e-05 0)
(2.99785 0.00392345 0)
(2.96775 0.0658553 0)
(2.90633 0.214967 0)
(2.87692 0.290663 0)
(2.87638 0.277209 0)
(2.88143 0.270389 0)
(2.92814 0.181496 0)
(3.00326 -0.0286078 0)
(3.0112 -0.169731 0)
(3.09057 -0.46704 0)
(3.13853 -0.338426 0)
(3 7.24169e-11 0)
(3 1.27458e-08 0)
(3 1.63833e-06 0)
(2.99992 0.000144596 0)
(2.99633 0.00682088 0)
(2.95975 0.0831727 0)
(2.90131 0.229581 0)
(2.87671 0.295971 0)
(2.87832 0.275213 0)
(2.89245 0.248374 0)
(2.95763 0.10072 0)
(3.01987 -0.132956 0)
(3.024 -0.206949 0)
(3.10279 -0.433261 0)
(3.13459 -0.404334 0)
(3 1.9069e-10 0)
(3 3.14594e-08 0)
(3 3.76984e-06 0)
(2.99983 0.000305026 0)
(2.99366 0.0118287 0)
(2.9479 0.109843 0)
(2.90011 0.237006 0)
(2.8766 0.294538 0)
(2.88229 0.269341 0)
(2.91517 0.200656 0)
(2.98224 0.0249776 0)
(3.03342 -0.218347 0)
(3.05427 -0.274798 0)
(3.10836 -0.377375 0)
(3.12184 -0.350526 0)
(3 5.36893e-10 0)
(3 8.22959e-08 0)
(2.99999 9.12446e-06 0)
(2.99963 0.000658734 0)
(2.98924 0.0204979 0)
(2.9326 0.146627 0)
(2.89057 0.257054 0)
(2.87836 0.290574 0)
(2.89457 0.250301 0)
(2.94458 0.133037 0)
(3.00684 -0.0691982 0)
(3.04445 -0.319668 0)
(3.0603 -0.293903 0)
(3.10736 -0.33128 0)
(3.12288 -0.332534 0)
(3 1.60543e-09 0)
(3 2.26485e-07 0)
(2.99999 2.29058e-05 0)
(2.99919 0.00146262 0)
(2.98237 0.0347362 0)
(2.92466 0.166443 0)
(2.8873 0.264402 0)
(2.88067 0.285889 0)
(2.91491 0.21268 0)
(2.98225 0.0265963 0)
(3.02949 -0.167631 0)
(3.05103 -0.349397 0)
(3.06174 -0.31487 0)
(3.10584 -0.316019 0)
(3.12841 -0.315086 0)
(3 5.15068e-09 0)
(3 6.64021e-07 0)
(2.99996 6.11215e-05 0)
(2.9982 0.00327987 0)
(2.97135 0.0571962 0)
(2.90758 0.207155 0)
(2.88766 0.264106 0)
(2.88755 0.272907 0)
(2.94472 0.146532 0)
(3.00825 -0.0557341 0)
(3.03371 -0.211119 0)
(3.04749 -0.379402 0)
(3.06965 -0.331794 0)
(3.10762 -0.304634 0)
(3.12442 -0.305136 0)
(2.86343 0.283614 0)
(2.86724 0.283577 0)
(2.87583 0.283061 0)
(2.88275 0.289372 0)
(2.87897 0.296458 0)
(2.87291 0.304588 0)
(2.88945 0.262954 0)
(2.91263 0.19237 0)
(2.97838 0.0397755 0)
(2.999 0.00173529 0)
(2.99998 2.73925e-05 0)
(3 2.80213e-07 0)
(3 2.03421e-09 0)
(3 1.0424e-11 0)
(3 5.62148e-14 0)
(2.86384 0.283263 0)
(2.86786 0.282955 0)
(2.87575 0.281808 0)
(2.88316 0.288348 0)
(2.87921 0.295461 0)
(2.87317 0.304846 0)
(2.88975 0.26122 0)
(2.91758 0.183697 0)
(2.98029 0.0361923 0)
(2.99906 0.0016362 0)
(2.99999 2.33743e-05 0)
(3 2.26588e-07 0)
(3 1.63989e-09 0)
(3 1.14519e-11 0)
(3 5.2799e-14 0)
(2.86418 0.28287 0)
(2.86818 0.282389 0)
(2.87559 0.280778 0)
(2.88318 0.286579 0)
(2.88028 0.293704 0)
(2.87344 0.30575 0)
(2.89042 0.259738 0)
(2.91719 0.182161 0)
(2.98096 0.0352732 0)
(2.99919 0.00130771 0)
(2.99999 1.93578e-05 0)
(3 1.97087e-07 0)
(3 1.6046e-09 0)
(3 1.07458e-11 0)
(3 4.42156e-14 0)
(2.86412 0.282747 0)
(2.8684 0.282008 0)
(2.87546 0.279838 0)
(2.88274 0.284558 0)
(2.8808 0.292294 0)
(2.87381 0.30677 0)
(2.88982 0.260464 0)
(2.91782 0.180584 0)
(2.98233 0.0321889 0)
(2.99928 0.00115639 0)
(2.99999 1.74203e-05 0)
(3 1.75777e-07 0)
(3 1.37464e-09 0)
(3 8.27526e-12 0)
(3 3.67743e-14 0)
(2.86398 0.282976 0)
(2.86879 0.281479 0)
(2.87531 0.27898 0)
(2.88216 0.282977 0)
(2.88071 0.291435 0)
(2.87439 0.30742 0)
(2.88984 0.260707 0)
(2.91963 0.172514 0)
(2.98367 0.0292257 0)
(2.99936 0.0010269 0)
(2.99999 1.49469e-05 0)
(3 1.49302e-07 0)
(3 1.13531e-09 0)
(3 6.43183e-12 0)
(3 2.95156e-14 0)
(2.8638 0.282897 0)
(2.86942 0.28096 0)
(2.87538 0.278242 0)
(2.88139 0.281708 0)
(2.8805 0.290851 0)
(2.87515 0.307724 0)
(2.88984 0.260532 0)
(2.92403 0.15986 0)
(2.98569 0.0249652 0)
(2.99947 0.000839717 0)
(2.99999 1.17373e-05 0)
(3 1.13718e-07 0)
(3 8.48485e-10 0)
(3 5.36531e-12 0)
(3 2.34951e-14 0)
(2.86356 0.282311 0)
(2.86953 0.280393 0)
(2.87517 0.277362 0)
(2.88 0.27992 0)
(2.87988 0.288663 0)
(2.87582 0.307679 0)
(2.89005 0.259113 0)
(2.92692 0.150659 0)
(2.98717 0.0223965 0)
(2.99956 0.000695021 0)
(2.99999 9.66616e-06 0)
(3 9.54349e-08 0)
(3 7.30358e-10 0)
(3 4.17354e-12 0)
(3 1.73169e-14 0)
(2.86309 0.281813 0)
(2.86945 0.279869 0)
(2.87465 0.276831 0)
(2.87866 0.27886 0)
(2.87908 0.286751 0)
(2.87589 0.306697 0)
(2.89025 0.25743 0)
(2.93076 0.140705 0)
(2.98924 0.018515 0)
(2.99966 0.000535469 0)
(3 7.20293e-06 0)
(3 6.77815e-08 0)
(3 4.94979e-10 0)
(3 3.11644e-12 0)
(3 1.28216e-14 0)
(2.86246 0.281945 0)
(2.86884 0.279508 0)
(2.874 0.276297 0)
(2.87775 0.278586 0)
(2.87862 0.285879 0)
(2.87518 0.305851 0)
(2.89122 0.252108 0)
(2.93576 0.129182 0)
(2.99101 0.0154975 0)
(2.99973 0.000424628 0)
(3 5.60102e-06 0)
(3 5.44965e-08 0)
(3 4.12734e-10 0)
(3 2.23545e-12 0)
(3 8.8553e-15 0)
(2.86208 0.282187 0)
(2.86785 0.279384 0)
(2.87335 0.275886 0)
(2.87712 0.278833 0)
(2.87804 0.284498 0)
(2.87403 0.304727 0)
(2.89283 0.246195 0)
(2.9416 0.116685 0)
(2.99284 0.0122714 0)
(2.99981 0.000296879 0)
(3 3.78977e-06 0)
(3 3.41623e-08 0)
(3 2.39054e-10 0)
(3 1.50352e-12 0)
(3 6.06292e-15 0)
(2.86208 0.28293 0)
(2.86686 0.279811 0)
(2.87249 0.275854 0)
(2.87597 0.28001 0)
(2.87722 0.2837 0)
(2.87363 0.301776 0)
(2.8961 0.237908 0)
(2.9488 0.101976 0)
(2.99463 0.00913258 0)
(2.99986 0.000219688 0)
(3 2.73805e-06 0)
(3 2.62352e-08 0)
(3 1.96714e-10 0)
(3 1.0337e-12 0)
(3 4.00377e-15 0)
(2.86303 0.284288 0)
(2.86625 0.280902 0)
(2.87143 0.276899 0)
(2.87515 0.281447 0)
(2.87654 0.283491 0)
(2.87336 0.299773 0)
(2.9014 0.22695 0)
(2.95639 0.087152 0)
(2.99604 0.00680878 0)
(2.99991 0.000135654 0)
(3 1.63901e-06 0)
(3 1.39459e-08 0)
(3 9.27071e-11 0)
(3 5.51789e-13 0)
(3 1.39898e-15 0)
(2.86411 0.285612 0)
(2.86634 0.282402 0)
(2.87116 0.27975 0)
(2.8748 0.283471 0)
(2.87565 0.283722 0)
(2.87244 0.301922 0)
(2.90998 0.210527 0)
(2.96499 0.0703134 0)
(2.99738 0.00446593 0)
(2.99994 9.10098e-05 0)
(3 1.08641e-06 0)
(3 1.0135e-08 0)
(3 7.5039e-11 0)
(3 3.9693e-13 0)
(3 3.47189e-16 0)
(2.86474 0.286663 0)
(2.86696 0.284691 0)
(2.87156 0.28189 0)
(2.87433 0.285874 0)
(2.87569 0.284709 0)
(2.87343 0.306328 0)
(2.91753 0.194364 0)
(2.97252 0.0551399 0)
(2.99831 0.00291084 0)
(2.99997 5.09328e-05 0)
(3 5.35089e-07 0)
(3 4.3273e-09 0)
(3 2.64361e-11 0)
(3 1.46292e-13 0)
(3 -4.06611e-16 0)
(2.86484 0.287308 0)
(2.86751 0.287109 0)
(2.87252 0.28393 0)
(2.87585 0.286971 0)
(2.87751 0.285126 0)
(2.8755 0.308297 0)
(2.92286 0.177343 0)
(2.97929 0.0404788 0)
(2.999 0.00169237 0)
(2.99998 2.67692e-05 0)
(3 3.2856e-07 0)
(3 2.8636e-09 0)
(3 2.09949e-11 0)
(3 9.25252e-14 0)
(3 -7.35931e-16 0)
(2.86471 0.287588 0)
(2.86756 0.288836 0)
(2.87349 0.286237 0)
(2.87755 0.287501 0)
(2.87962 0.282005 0)
(2.87576 0.298812 0)
(2.9292 0.153165 0)
(2.98645 0.0249545 0)
(2.99948 0.000865715 0)
(2.99999 1.36056e-05 0)
(3 1.19001e-07 0)
(3 9.14023e-10 0)
(3 4.87185e-12 0)
(3 3.60289e-14 0)
(3 -8.7213e-16 0)
(2.86389 0.288313 0)
(2.86782 0.291463 0)
(2.87427 0.28879 0)
(2.87894 0.287613 0)
(2.88349 0.275413 0)
(2.88579 0.267058 0)
(2.94108 0.120202 0)
(2.99204 0.0141024 0)
(2.99976 0.000388862 0)
(3 5.27347e-06 0)
(3 6.22728e-08 0)
(3 5.13479e-10 0)
(3 3.75538e-12 0)
(3 1.15666e-14 0)
(3 -8.80762e-16 0)
(2.86343 0.286944 0)
(2.86841 0.291399 0)
(2.87447 0.291451 0)
(2.87925 0.289817 0)
(2.88641 0.270704 0)
(2.90534 0.227082 0)
(2.95807 0.0840692 0)
(2.99631 0.00621978 0)
(2.99991 0.000148289 0)
(3 1.92007e-06 0)
(3 1.57117e-08 0)
(3 1.03006e-10 0)
(3 4.95429e-13 0)
(3 2.82837e-15 0)
(3 -8.63557e-16 0)
(2.85817 0.284422 0)
(2.87014 0.288699 0)
(2.87667 0.292781 0)
(2.87568 0.298117 0)
(2.88922 0.261253 0)
(2.91117 0.20009 0)
(2.97718 0.0436909 0)
(2.99864 0.00230532 0)
(2.99997 4.2589e-05 0)
(3 5.38659e-07 0)
(3 5.43979e-09 0)
(3 4.42177e-11 0)
(3 3.23626e-13 0)
(3 6.17474e-16 0)
(3 -8.41846e-16 0)
(2.85439 0.28178 0)
(2.86977 0.282945 0)
(2.88096 0.293325 0)
(2.87576 0.312399 0)
(2.89668 0.246111 0)
(2.93159 0.147315 0)
(2.9898 0.0184925 0)
(2.99962 0.000631435 0)
(2.99999 1.00372e-05 0)
(3 1.02274e-07 0)
(3 7.37146e-10 0)
(3 3.62955e-12 0)
(3 1.87042e-14 0)
(3 -2.48605e-16 0)
(3 -8.10443e-16 0)
(3 -5.37976e-16 0)
(3 -5.39019e-17 0)
(3 -1.26299e-16 0)
(3 -9.16729e-17 0)
(3 -6.38797e-17 0)
(3 -7.12561e-17 0)
(3 3.63914e-17 0)
(3 7.92762e-17 0)
(3 3.1369e-16 0)
(3 5.77159e-15 0)
(3 3.69205e-12 0)
(3 1.9388e-09 0)
(3 8.86381e-07 0)
(2.99976 0.000275989 0)
(2.99355 -0.00207034 0)
(3 -5.41354e-16 0)
(3 -5.68042e-17 0)
(3 -1.28968e-16 0)
(3 -8.88466e-17 0)
(3 -5.5551e-17 0)
(3 -6.75225e-17 0)
(3 4.0237e-17 0)
(3 6.71327e-17 0)
(3 5.37084e-16 0)
(3 1.43219e-13 0)
(3 7.39613e-11 0)
(3 3.107e-08 0)
(2.99999 9.03747e-06 0)
(2.99873 0.00170556 0)
(2.98287 0.00599867 0)
(3 -5.43995e-16 0)
(3 -6.04082e-17 0)
(3 -1.29028e-16 0)
(3 -8.97503e-17 0)
(3 -5.76325e-17 0)
(3 -6.75482e-17 0)
(3 4.02674e-17 0)
(3 1.01672e-16 0)
(3 2.86234e-15 0)
(3 1.59175e-12 0)
(3 6.44159e-10 0)
(3 1.86334e-07 0)
(2.99997 4.08152e-05 0)
(2.99676 0.0046092 0)
(2.97232 0.00343949 0)
(3 -5.48332e-16 0)
(3 -6.23496e-17 0)
(3 -1.18549e-16 0)
(3 -8.23839e-17 0)
(3 -7.78147e-17 0)
(3 -6.75765e-17 0)
(3 4.03058e-17 0)
(3 -6.33812e-17 0)
(3 3.56307e-14 0)
(3 1.08542e-11 0)
(3 3.4951e-09 0)
(3 8.5723e-07 0)
(2.9999 0.000134775 0)
(2.99312 0.0106054 0)
(2.95972 0.019511 0)
(3 -5.51727e-16 0)
(3 -6.70808e-17 0)
(3 -1.22033e-16 0)
(3 -8.4252e-17 0)
(3 -6.69785e-17 0)
(3 -6.7741e-17 0)
(3 2.42677e-17 0)
(3 4.24612e-16 0)
(3 1.71883e-13 0)
(3 6.41943e-11 0)
(3 1.67198e-08 0)
(3 3.04012e-06 0)
(2.99975 0.000376542 0)
(2.98836 0.0192812 0)
(2.9494 0.0214185 0)
(3 -5.57903e-16 0)
(3 -6.84277e-17 0)
(3 -1.23774e-16 0)
(3 -8.98423e-17 0)
(3 -7.18244e-17 0)
(3 -5.83826e-17 0)
(3 1.54648e-17 0)
(3 2.39293e-15 0)
(3 1.09482e-12 0)
(3 2.94992e-10 0)
(3 6.36871e-08 0)
(2.99999 1.0049e-05 0)
(2.99941 0.000927595 0)
(2.98053 0.0347123 0)
(2.93536 0.0454947 0)
(3 -5.61979e-16 0)
(3 -7.00668e-17 0)
(3 -1.32172e-16 0)
(3 -9.42781e-17 0)
(3 -7.32095e-17 0)
(3 -4.48796e-17 0)
(3 2.53836e-17 0)
(3 2.01977e-14 0)
(3 5.00183e-12 0)
(3 1.33992e-09 0)
(3 2.3897e-07 0)
(2.99998 2.90771e-05 0)
(2.99875 0.00211258 0)
(2.97252 0.0529656 0)
(2.92597 0.0532786 0)
(3 -5.66582e-16 0)
(3 -7.40706e-17 0)
(3 -1.32046e-16 0)
(3 -1.0305e-16 0)
(3 -7.46052e-17 0)
(3 -2.19926e-17 0)
(3 1.23338e-16 0)
(3 9.90747e-14 0)
(3 2.68969e-11 0)
(3 5.15178e-09 0)
(3 7.82982e-07 0)
(2.99995 8.41e-05 0)
(2.99744 0.00455847 0)
(2.95852 0.0846404 0)
(2.91036 0.0845762 0)
(3 -5.73338e-16 0)
(3 -8.79975e-17 0)
(3 -1.34356e-16 0)
(3 -9.33222e-17 0)
(3 -7.9056e-17 0)
(3 -1.63124e-17 0)
(3 1.14531e-15 0)
(3 4.84535e-13 0)
(3 1.07427e-10 0)
(3 2.07302e-08 0)
(3 2.64584e-06 0)
(2.99986 0.000222371 0)
(2.99525 0.00913401 0)
(2.94829 0.114977 0)
(2.90252 0.0998862 0)
(3 -5.93466e-16 0)
(3 -7.68751e-17 0)
(3 -1.40414e-16 0)
(3 -9.82962e-17 0)
(3 -6.6612e-17 0)
(3 5.41996e-18 0)
(3 8.90155e-15 0)
(3 2.32731e-12 0)
(3 5.21926e-10 0)
(3 7.42506e-08 0)
(2.99999 8.24806e-06 0)
(2.99964 0.000616586 0)
(2.99112 0.018269 0)
(2.92624 0.168496 0)
(2.88611 0.134366 0)
(3 -6.08546e-16 0)
(3 -8.33035e-17 0)
(3 -1.44391e-16 0)
(3 -2.46084e-17 0)
(3 -3.86094e-17 0)
(3 2.77642e-17 0)
(3 5.47805e-14 0)
(3 1.19832e-11 0)
(3 2.00734e-09 0)
(3 2.87718e-07 0)
(2.99998 2.71501e-05 0)
(2.99913 0.00155709 0)
(2.98535 0.0324422 0)
(2.91694 0.208186 0)
(2.88011 0.159511 0)
(3 -6.3e-16 0)
(3 -7.59955e-17 0)
(3 -1.5182e-16 0)
(3 -3.39116e-17 0)
(3 -2.84749e-17 0)
(3 6.58352e-16 0)
(3 2.98309e-13 0)
(3 5.61617e-11 0)
(3 9.49586e-09 0)
(3 1.0403e-06 0)
(2.99995 8.6437e-05 0)
(2.99773 0.00431845 0)
(2.97485 0.0604641 0)
(2.88733 0.278532 0)
(2.8648 0.190387 0)
(3 -6.33412e-16 0)
(3 -8.40758e-17 0)
(3 -1.53443e-16 0)
(3 -3.17528e-17 0)
(3 -2.9155e-17 0)
(3 8.7294e-15 0)
(3 1.54219e-12 0)
(3 2.884e-10 0)
(3 3.7946e-08 0)
(3 4.1308e-06 0)
(2.99983 0.000290171 0)
(2.99492 0.0102517 0)
(2.96461 0.0919922 0)
(2.87985 0.316949 0)
(2.86361 0.23169 0)
(3 -6.4119e-16 0)
(3 -1.03054e-16 0)
(3 -1.54235e-16 0)
(3 -2.96484e-17 0)
(3 1.91722e-16 0)
(3 3.58917e-14 0)
(3 8.82052e-12 0)
(3 1.43315e-09 0)
(3 1.85278e-07 0)
(2.99999 1.6133e-05 0)
(2.99941 0.000985744 0)