/*--------------------------------*- C++ -*----------------------------------*\
  =========                 |
  \\      /  F ield         | OpenFOAM: The Open Source CFD Toolbox
   \\    /   O peration     | Website:  https://openfoam.org
    \\  /    A nd           | Version:  7
     \\/     M anipulation  |
\*---------------------------------------------------------------------------*/
FoamFile
{
    version     2.0;
    format      ascii;
    class       volScalarField;
    location    "0.4";
    object      p;
}
// * * * * * * * * * * * * * * * * * * * * * * * * * * * * * * * * * * * * * //

dimensions      [1 -1 -2 0 0 0 0];

internalField   nonuniform List<scalar> 
1750
(
0.124828
0.391189
0.592271
0.706365
0.796441
0.921633
0.990463
0.999737
1
1
0.12317
0.199919
0.36956
0.602193
0.819962
0.953662
0.995996
0.999919
1
1
0.139288
0.240096
0.42559
0.67079
0.888143
0.984906
0.999425
0.999997
1
1
0.32707
0.488159
0.691509
0.882986
0.980632
0.999013
0.999985
1
1
1
0.651347
0.81232
0.935301
0.989582
0.999411
0.999988
1
1
1
1
0.923381
0.97783
0.996912
0.999826
0.999996
1
1
1
1
1
0.995878
0.999474
0.999968
0.999999
1
1
1
1
1
1
0.999947
0.999996
1
1
1
1
1
1
1
1
1
1
1
1
1
1
1
1
1
1
1
1
1
1
1
1
1
1
1
1
1
1
1
1
1
1
1
1
1
1
1
1
1
1
1
1
1
1
1
1
1
1
1
1
1
1
1
1
1
1
1
1
1
1
1
1
1
1
1
1
1
1
1
1
1
1
1
1
1
1
0.00311608
0.0367856
0.0926037
0.2203
0.505231
0.843176
0.984331
0.999602
0.999996
1
1
1
1
1
1
0.00463171
0.0496952
0.109523
0.248734
0.538915
0.862788
0.988084
0.999748
0.999998
1
1
1
1
1
1
0.00467329
0.0486316
0.104259
0.229773
0.50057
0.833655
0.983049
0.999581
0.999996
1
1
1
1
1
1
0.00475442
0.0480252
0.10175
0.220519
0.4794
0.813994
0.979045
0.999451
0.999995
1
1
1
1
1
1
0.00484589
0.0475047
0.100022
0.213641
0.462568
0.795086
0.973798
0.999206
0.999992
1
1
1
1
1
1
0.00498568
0.0470924
0.0989727
0.210027
0.454476
0.78468
0.969927
0.998967
0.999989
1
1
1
1
1
1
0.00506681
0.0466786
0.0989521
0.211494
0.455185
0.783095
0.968802
0.998827
0.999986
1
1
1
1
1
1
0.00489978
0.0468152
0.113596
0.253014
0.509622
0.809494
0.971898
0.998896
0.999986
1
1
1
1
1
1
0.00499472
0.0533215
0.151299
0.336545
0.617565
0.8711
0.982227
0.999253
0.999989
1
1
1
1
1
1
0.00542634
0.0613775
0.190871
0.435391
0.732096
0.928337
0.991744
0.999661
0.999994
1
1
1
1
1
1
0.0030156
0.062291
0.253588
0.580376
0.849465
0.969618
0.997124
0.999885
0.999998
1
1
1
1
1
1
0.00156239
0.0829267
0.426882
0.775276
0.946026
0.991918
0.999315
0.999967
0.999999
1
1
1
1
1
1
0.029196
0.285247
0.706177
0.93642
0.994777
0.999541
0.999922
0.999991
0.999999
1
1
1
1
1
1
0.168484
0.591162
0.94683
1.01542
1.00816
1.00115
1.00002
0.999999
0.999999
1
1
1
1
1
1
0.606448
0.974944
1.06785
1.03642
1.00777
1.00057
1.00002
1
1
1
1
1
1
1
1
1.3165
1.18816
1.09593
1.0066
0.999906
0.999997
1
1
1
1
1
1
1
1
1
1.31666
1.18803
1.0947
1.01403
1.0005
1.00001
1
1
1
1
1
1
1
1
1
1.31664
1.18758
1.09414
1.01382
1.00049
1.00001
1
1
1
1
1
1
1
1
1
1.31668
1.18724
1.09356
1.01365
1.00048
1.00001
1
1
1
1
1
1
1
1
1
1.31664
1.18696
1.09306
1.01349
1.00047
1.00001
1
1
1
1
1
1
1
1
1
1.3167
1.18667
1.0926
1.01335
1.00046
1.00001
1
1
1
1
1
1
1
1
1
1.3163
1.18612
1.09207
1.01321
1.00046
1.00001
1
1
1
1
1
1
1
1
1
1.31201
1.18328
1.09071
1.01299
1.00045
1.00001
1
1
1
1
1
1
1
1
1
1.29991
1.17414
1.08543
1.01213
1.00042
1.00001
1
1
1
1
1
1
1
1
1
1.28824
1.16029
1.07223
1.00947
1.00031
1
1
1
1
1
1
1
1
1
1
1.28168
1.1431
1.05174
1.00547
1.00016
1
1
1
1
1
1
1
1
1
1
1.27321
1.11546
1.02872
1.00215
1.00005
1
1
1
1
1
1
1
1
1
1
1.23715
1.07328
1.01113
1.00055
1.00001
1
1
1
1
1
1
1
1
1
1
1.15898
1.03347
1.00282
1.00009
1
1
1
1
1
1
1
1
1
1
1
1.06986
1.00899
1.00038
1.00001
1
1
1
1
1
1
1
1
1
1
1
1
1
1
1
1
1
1
1
1
1
1
1
1
1
1
1
1
1
1
1
1
1
1
1
1
1
1
1
1
1
1
1
1
1
1
1
1
1
1
1
1
1
1
1
1
1
1
1
1
1
1
1
1
1
1
1
1
1
1
1
1
1
1
1
1
1
1
1
1
1
1
1
1
1
1
1
1
1
1
1
1
1
1
1
1
1
1
1
1
1
1
1
1
1
1
1
1
1
1
1
1
1
1
1
1
1
1
1
1
1
1
1
1
1
1
1
1
1
1
1
1
1
1
1
1
1
1
1
1
1
1
1
1
1
1
1
1
1
1
1
1
1
1
1
1
1
1
1
1
1
1
1
1
1
1
1
1
1
1
1
1
1
1
1
1
1
1
1
1
1
1
1
1
1
1
1
1
1
1
1
1
1
1
1
1
1
1
1
1
1
1
1
1
1
1
1
1
1
1
1
1
1
1
1
1
1
1
1
1
1
1
1
1
1
1
1
1
1
1
1
1
1
1
1
1
1
1
1
1
1
1
1
1
1
1
1
1
1
1
1
1
1
1
1
1
1
1
1
1
1
1
1
1
1
1
1
1
1
1
1
1
1
1
1
1
1
1
1
1
1
1
1
1
1
1
1
1
1
1
1
1
1
1
1
1
1
1
1
1
1
1
1
1
1
1
1
1
1
1
1
1
1
1
1
1
1
1
1
1
1
1
1
1
1
1
1
1
1
1
1
1
1
1
1
1
1
1
1
1
1
1
1
1
1
1
1
1
1
1
1
1
1
1
1
1
1
1
1
1
1
2.27244
0.996462
1
1
1
1
1
1
1
1
1
1
1
1
1
1
1
1
1
1
5.66616
1.30919
0.999998
1
1
1
1
1
1
1
1
1
1
1
1
1
1
1
1
1
8.62697
2.84785
0.996029
1
1
1
1
1
1
1
1
1
1
1
1
1
1
1
1
1
9.16365
4.50096
1.21477
0.999999
1
1
1
1
1
1
1
1
1
1
1
1
1
1
1
1
8.93282
5.31951
1.78829
0.999998
1
1
1
1
1
1
1
1
1
1
1
1
1
1
1
1
8.79342
5.77036
2.49119
0.999997
1
1
1
1
1
1
1
1
1
1
1
1
1
1
1
1
8.83061
6.11022
3.12576
1.00133
1
1
1
1
1
1
1
1
1
1
1
1
1
1
1
1
9.00776
6.39623
3.61726
1.01681
1
1
1
1
1
1
1
1
1
1
1
1
1
1
1
1
8.96505
6.54959
4.02244
1.04683
1
1
1
1
1
1
1
1
1
1
1
1
1
1
1
1
8.83372
6.64305
4.41028
1.09611
1
1
1
1
1
1
1
1
1
1
1
1
1
1
1
1
8.63305
6.706
4.79278
1.1779
1
1
1
1
1
1
1
1
1
1
1
1
1
1
1
1
8.35304
6.77873
5.18807
1.30409
1
1
1
1
1
1
1
1
1
1
1
1
1
1
1
1
8.09358
6.8347
5.55745
1.47221
0.999999
1
1
1
1
1
1
1
1
1
1
1
1
1
1
1
7.72501
6.88303
5.98589
1.80113
0.999999
1
1
1
1
1
1
1
1
1
1
1
1
1
1
1
7.42386
7.03851
6.28514
1.5675
0.980955
1
1
1
1
1
1
1
1
1
1
1
1
1
1
1
2.43695
3.87392
4.88286
3.64988
1.66375
1.02269
1.00014
1
1
1
1
1
1
1
1
1
1
1
1
1
0.479083
1.92841
3.29607
3.19821
2.09076
1.12265
1.00189
1.00001
1
1
1
1
1
1
1
1
1
1
1
1
0.326634
1.11802
2.20146
2.47627
2.00481
1.20573
1.00595
1.00003
1
1
1
1
1
1
1
1
1
1
1
1
0.378592
0.970741
1.67872
1.93986
1.74711
1.18938
1.00663
1.00004
1
1
1
1
1
1
1
1
1
1
1
1
0.538986
1.00288
1.41883
1.57814
1.46046
1.11904
1.00434
1.00003
1
1
1
1
1
1
1
1
1
1
1
1
0.777342
0.995952
1.23973
1.29093
1.199
1.03853
1.00114
1.00001
1
1
1
1
1
1
1
1
1
1
1
1
0.83774
0.952035
1.03599
1.05501
1.0253
1.00268
1.00005
1
1
1
1
1
1
1
1
1
1
1
1
1
0.820935
0.861819
0.869531
0.921625
0.977047
0.99806
0.999958
1
1
1
1
1
1
1
1
1
1
1
1
1
0.785222
0.810903
0.822123
0.902736
0.974454
0.997987
0.999957
1
1
1
1
1
1
1
1
1
1
1
1
1
0.773002
0.80625
0.819579
0.902679
0.974548
0.998005
0.999958
1
1
1
1
1
1
1
1
1
1
1
1
1
0.772433
0.806296
0.819728
0.903028
0.974816
0.998049
0.999959
1
1
1
1
1
1
1
1
1
1
1
1
1
0.772173
0.806462
0.82006
0.903633
0.975184
0.9981
0.999961
1
1
1
1
1
1
1
1
1
1
1
1
1
0.771901
0.806644
0.820486
0.904268
0.975502
0.998135
0.999962
1
1
1
1
1
1
1
1
1
1
1
1
1
0.771481
0.806962
0.821157
0.905219
0.975992
0.998199
0.999964
1
1
1
1
1
1
1
1
1
1
1
1
1
0.771184
0.806842
0.820269
0.903302
0.974833
0.997991
0.999955
1
1
1
1
1
1
1
1
1
1
1
1
1
0.672449
0.785533
0.827744
0.913545
0.978458
0.998455
0.999971
1
1
1
1
1
1
1
1
1
1
1
1
1
0.615669
0.729434
0.825577
0.923881
0.983229
0.99892
0.999981
1
1
1
1
1
1
1
1
1
1
1
1
1
0.649131
0.707108
0.829862
0.933809
0.988223
0.999382
0.999991
1
1
1
1
1
1
1
1
1
1
1
1
1
0.745011
0.748172
0.850755
0.948259
0.993122
0.999747
0.999997
1
1
1
1
1
1
1
1
1
1
1
1
1
0.850534
0.850178
0.907884
0.971918
0.997423
0.999942
1
1
1
1
1
1
1
1
1
1
1
1
1
1
0.942024
0.94856
0.97078
0.993029
0.999602
0.999995
1
1
1
1
1
1
1
1
1
1
1
1
1
1
0.991287
0.99312
0.996774
0.999477
0.999982
1
1
1
1
1
1
1
1
1
1
1
1
1
1
1
0.999675
0.999762
0.999908
0.99999
1
1
1
1
1
1
1
1
1
1
1
1
1
1
1
1
0.999998
0.999998
0.999999
1
1
1
1
1
1
1
1
1
1
1
1
1
1
1
1
1
1
1
1
1
1
1
1
1
1
1
1
1
1
1
1
1
1
1
1
1
)
;

boundaryField
{
    inlet
    {
        type            fixedValue;
        value           uniform 1;
    }
    outlet
    {
        type            zeroGradient;
    }
    airfoil
    {
        type            zeroGradient;
    }
    top
    {
        type            symmetryPlane;
    }
    bottom
    {
        type            symmetryPlane;
    }
    defaultFaces
    {
        type            empty;
    }
}


// ************************************************************************* //
