/*--------------------------------*- C++ -*----------------------------------*\
  =========                 |
  \\      /  F ield         | OpenFOAM: The Open Source CFD Toolbox
   \\    /   O peration     | Website:  https://openfoam.org
    \\  /    A nd           | Version:  7
     \\/     M anipulation  |
\*---------------------------------------------------------------------------*/
FoamFile
{
    version     2.0;
    format      ascii;
    class       volScalarField;
    location    "14.5";
    object      p;
}
// * * * * * * * * * * * * * * * * * * * * * * * * * * * * * * * * * * * * * //

dimensions      [1 -1 -2 0 0 0 0];

internalField   nonuniform List<scalar> 
90000
(
0.555582
0.594823
0.636173
0.676826
0.715744
0.753018
0.788375
0.821039
0.85144
0.878198
0.90291
0.923506
0.942428
0.95724
0.97079
0.980895
0.989935
0.996321
1.00184
1.0056
1.0089
1.01091
1.01289
1.01273
1.01122
1.00706
1.00083
0.995287
0.99025
0.99075
0.992309
0.994618
0.997139
0.999703
1.00166
1.00325
1.00404
1.00334
1.00109
0.999016
0.997566
0.997127
0.997566
0.998767
1.00053
1.00251
1.00297
1.00227
1.00062
0.999454
0.999443
0.999717
1.00079
1.00236
1.00234
1.00163
1.0008
1.0005
1.00087
1.00172
1.00195
1.00159
1.0009
1.00067
1.0009
1.00123
1.00128
1.0011
1.001
1.00118
1.00138
1.00131
1.00108
1.00093
1.00087
1.00093
1.00116
1.00134
1.0013
1.00116
1.00089
1.00077
1.00073
1.00088
1.00113
1.00137
1.00148
1.00153
1.00148
1.0014
1.00126
1.0011
1.00103
1.00101
1.00102
1.00098
1.00091
1.00087
1.00088
1.00105
0.523399
0.523861
0.525128
0.527871
0.532505
0.540012
0.55049
0.565172
0.583422
0.606574
0.633015
0.663914
0.696892
0.732519
0.768418
0.803841
0.837714
0.86793
0.895771
0.917574
0.937125
0.949764
0.961251
0.967538
0.973201
0.976139
0.980108
0.985023
0.992281
0.996499
0.999467
1.00254
1.00501
1.00704
1.0067
1.00595
1.00342
1.00016
0.997325
0.997017
0.997628
0.998771
1.00069
1.00276
1.00366
1.00305
1.00173
0.999918
0.998503
0.998675
0.999627
1.00147
1.00293
1.00264
1.00165
1.00049
1.00032
1.0006
1.00128
1.00196
1.00181
1.0011
1.00067
1.00072
1.00106
1.00129
1.00118
1.00106
1.00107
1.00129
1.00142
1.00128
1.00103
1.00094
1.00092
1.00099
1.00122
1.00137
1.00133
1.00106
1.00081
1.00074
1.00076
1.00092
1.00117
1.00139
1.0015
1.00154
1.00148
1.00136
1.00121
1.00109
1.00103
1.001
1.00099
1.00094
1.00089
1.00087
1.00089
1.00105
0.523321
0.523322
0.523322
0.523327
0.523336
0.523396
0.523549
0.523907
0.524575
0.525816
0.527878
0.531405
0.536754
0.54517
0.556795
0.573522
0.594586
0.622083
0.653755
0.691039
0.730677
0.772319
0.813665
0.852301
0.889301
0.92053
0.948371
0.967288
0.982056
0.990292
0.995858
0.998213
0.999832
1.00074
1.00055
0.997961
0.993076
0.993816
0.996324
0.998739
1.00202
1.0049
1.00571
1.00474
1.00314
0.999852
0.997938
0.997137
0.997659
0.99992
1.00261
1.00373
1.00311
1.0013
1.00004
0.999603
1.00023
1.00173
1.00266
1.00224
1.00115
1.00032
1.00043
1.00113
1.00159
1.00129
1.0009
1.00093
1.00135
1.00162
1.00141
1.0011
1.00091
1.0009
1.001
1.00118
1.0014
1.00142
1.00125
1.00094
1.00073
1.0007
1.00084
1.00108
1.00133
1.00148
1.00153
1.00154
1.00144
1.00131
1.00116
1.00106
1.00102
1.001
1.00097
1.00092
1.00088
1.00087
1.00091
1.00109
0.523351
0.523345
0.523337
0.523329
0.523321
0.523323
0.523311
0.523306
0.523304
0.523303
0.523307
0.523327
0.523377
0.523518
0.523862
0.52456
0.525808
0.528139
0.531999
0.538736
0.548845
0.564892
0.586386
0.616588
0.652719
0.697202
0.745432
0.794215
0.841807
0.880849
0.916751
0.938538
0.957413
0.965809
0.973333
0.977807
0.985429
0.993699
1.00198
1.00799
1.0109
1.00969
1.00814
1.00444
0.998354
0.99555
0.9957
0.997433
1.0009
1.00449
1.00479
1.00335
1.00074
0.998638
0.998678
1.00034
1.00221
1.00325
1.00259
1.00104
0.999659
1.00004
1.00122
1.00196
1.00147
1.0007
1.00075
1.00129
1.00179
1.00157
1.00107
1.00092
1.001
1.00109
1.00116
1.00129
1.00138
1.00132
1.0011
1.00079
1.00075
1.00081
1.00092
1.00112
1.00133
1.00143
1.00147
1.00149
1.0014
1.00125
1.00112
1.00107
1.00104
1.001
1.00096
1.00089
1.00087
1.00087
1.0009
1.00108
0.52336
0.52336
0.52336
0.523359
0.523356
0.523352
0.523349
0.523336
0.523319
0.523303
0.523291
0.523284
0.523284
0.523304
0.523297
0.523287
0.523279
0.523284
0.523306
0.523409
0.523639
0.524243
0.52546
0.528026
0.532593
0.541329
0.555054
0.57799
0.608838
0.651917
0.701761
0.757924
0.814447
0.864368
0.909894
0.942806
0.970293
0.983163
0.991575
0.996702
1.00044
1.00175
0.999459
0.994163
0.995062
0.996933
1.0012
1.0046
1.00606
1.00477
1.00176
0.9998
0.998158
0.998572
1.00097
1.00341
1.0032
1.00236
1.00082
0.999581
1.00011
1.00139
1.00198
1.00155
1.00074
1.00069
1.0012
1.00172
1.00167
1.00131
1.00104
1.00102
1.00105
1.00104
1.00115
1.0014
1.0015
1.00135
1.00099
1.00075
1.00074
1.0008
1.00098
1.00127
1.00149
1.00154
1.00153
1.00148
1.00135
1.0012
1.00111
1.00106
1.00103
1.00098
1.00092
1.00086
1.00085
1.00087
1.00095
1.00115
0.523367
0.523366
0.523366
0.523365
0.523364
0.523363
0.523362
0.523361
0.523359
0.523355
0.52335
0.523344
0.523337
0.523329
0.523316
0.523297
0.523281
0.52327
0.523267
0.523273
0.523324
0.523308
0.523293
0.523287
0.523333
0.523483
0.523856
0.524935
0.527299
0.532689
0.542465
0.561356
0.589416
0.632685
0.685107
0.747039
0.810233
0.862821
0.909365
0.935939
0.95904
0.970492
0.978489
0.986253
0.997614
1.00672
1.01257
1.01141
1.00924
1.00404
0.995795
0.995873
0.997251
1.00071
1.00458
1.00461
1.0033
1.00057
0.99902
0.999654
1.00132
1.00258
1.00204
1.0009
1.00033
1.00084
1.00176
1.00195
1.00165
1.00114
1.001
1.001
1.00105
1.00115
1.00141
1.00159
1.00148
1.00115
1.00079
1.00071
1.00079
1.00093
1.00113
1.00139
1.00152
1.00153
1.00149
1.0014
1.00123
1.00113
1.00107
1.00106
1.00104
1.00099
1.00092
1.00085
1.00085
1.00089
1.00097
1.00116
0.523367
0.523366
0.523365
0.523363
0.523362
0.52336
0.523359
0.523357
0.523355
0.523354
0.523351
0.523349
0.523346
0.523343
0.52334
0.523336
0.523331
0.523325
0.523317
0.523309
0.523298
0.523288
0.523282
0.523279
0.523284
0.523301
0.523369
0.523353
0.523347
0.5234
0.523582
0.524218
0.525871
0.530281
0.539174
0.558104
0.587956
0.636117
0.695292
0.76354
0.831491
0.887964
0.938543
0.970264
0.989235
0.997126
1.00307
1.00405
0.999779
0.993216
0.994883
0.998464
1.00298
1.00589
1.00469
1.00209
0.999236
0.998696
0.999375
1.00185
1.0028
1.00207
1.00098
1.00025
1.00069
1.00188
1.00203
1.00155
1.00103
1.00111
1.00124
1.00115
1.00102
1.00115
1.00151
1.0016
1.00143
1.00106
1.00076
1.00073
1.00082
1.00099
1.00126
1.00147
1.00153
1.00153
1.00149
1.00137
1.00124
1.00112
1.00105
1.00104
1.00103
1.00095
1.00086
1.0008
1.00082
1.00087
1.00098
1.00119
0.523357
0.523356
0.523354
0.523353
0.523351
0.52335
0.523348
0.523347
0.523345
0.523343
0.523341
0.523339
0.523337
0.523334
0.523332
0.523329
0.523326
0.523324
0.523321
0.523318
0.523314
0.523311
0.523307
0.523303
0.523298
0.523293
0.523289
0.523295
0.523303
0.523318
0.523363
0.523351
0.52335
0.523391
0.523547
0.524164
0.525927
0.531058
0.542003
0.566227
0.604248
0.663347
0.734704
0.808305
0.877375
0.918799
0.953809
0.967912
0.978372
0.988654
1.00153
1.01148
1.01208
1.01036
1.0044
0.996021
0.996376
0.99836
1.00184
1.00455
1.00372
1.00146
0.999306
0.999833
1.00158
1.00291
1.00243
1.00132
1.00062
1.001
1.00137
1.00132
1.00122
1.00142
1.00167
1.00158
1.00116
1.0009
1.00082
1.0008
1.00092
1.00109
1.00137
1.00159
1.00162
1.00158
1.00145
1.00124
1.00107
1.00106
1.00108
1.00106
1.00102
1.00096
1.00085
1.0008
1.00084
1.00092
1.00105
1.00122
0.52334
0.523339
0.523337
0.523336
0.523334
0.523333
0.523332
0.52333
0.523328
0.523327
0.523325
0.523324
0.523322
0.52332
0.523318
0.523316
0.523315
0.523313
0.523311
0.52331
0.523309
0.523308
0.523307
0.523307
0.523306
0.523306
0.523304
0.523303
0.523302
0.523303
0.523303
0.523314
0.523326
0.523341
0.523373
0.523366
0.523374
0.523431
0.52368
0.524684
0.527553
0.536118
0.553871
0.591668
0.647512
0.723979
0.80562
0.876152
0.939248
0.975387
0.99429
1.00202
1.00568
1.00086
0.992903
0.9945
0.998993
1.00339
1.00488
1.00394
1.00043
0.998377
0.998828
1.00151
1.00305
1.00269
1.0012
1.0005
1.00082
1.00133
1.00128
1.00115
1.0013
1.00175
1.00172
1.00151
1.00101
1.00075
1.00079
1.00086
1.00099
1.00123
1.00149
1.00156
1.00158
1.00154
1.00144
1.00125
1.00109
1.001
1.00104
1.00106
1.00102
1.0009
1.0008
1.00078
1.00082
1.00091
1.00105
1.00123
0.523321
0.523319
0.523318
0.523317
0.523316
0.523314
0.523313
0.523312
0.52331
0.523309
0.523308
0.523306
0.523305
0.523304
0.523303
0.523302
0.523301
0.5233
0.5233
0.523299
0.523299
0.5233
0.5233
0.523301
0.523302
0.523303
0.523304
0.523305
0.523306
0.523307
0.523307
0.523308
0.52331
0.523313
0.523316
0.523324
0.523332
0.523344
0.52334
0.523341
0.523369
0.523527
0.524139
0.526536
0.533182
0.552114
0.587348
0.650803
0.732697
0.817054
0.894195
0.933182
0.966231
0.975394
0.989127
1.0005
1.01112
1.01047
1.00736
0.999422
0.996014
0.997467
1.00145
1.0046
1.00376
1.00098
0.99964
1.0003
1.00177
1.00172
1.00129
1.00108
1.00151
1.002
1.00182
1.00105
1.00075
1.00078
1.00089
1.001
1.00111
1.00136
1.00161
1.00162
1.00159
1.00154
1.00136
1.00114
1.001
1.00101
1.00104
1.00105
1.00101
1.00091
1.00078
1.00078
1.00084
1.00096
1.00108
1.00125
0.523312
0.523311
0.52331
0.523309
0.523308
0.523307
0.523306
0.523306
0.523305
0.523304
0.523303
0.523302
0.523301
0.523301
0.5233
0.5233
0.5233
0.523299
0.5233
0.5233
0.523301
0.523301
0.523302
0.523303
0.523304
0.523305
0.523306
0.523307
0.523308
0.523309
0.523309
0.523309
0.523308
0.523307
0.523306
0.523304
0.523303
0.523302
0.523303
0.523306
0.523302
0.5233
0.523302
0.523327
0.523448
0.524063
0.526253
0.534371
0.553742
0.59936
0.668993
0.759584
0.851916
0.921087
0.976131
0.992182
1.00429
1.00384
0.996954
0.994076
0.997836
1.00335
1.00581
1.00473
1.0005
0.998325
0.999152
1.00194
1.00235
1.00173
1.0008
1.00109
1.00211
1.00209
1.00133
1.00061
1.00069
1.00093
1.00107
1.00114
1.00129
1.00153
1.00164
1.00164
1.0016
1.00151
1.00133
1.00104
1.00095
1.00098
1.00104
1.00104
1.00097
1.00085
1.00075
1.00077
1.00085
1.00099
1.00114
1.00128
0.523317
0.523316
0.523316
0.523315
0.523315
0.523315
0.523314
0.523314
0.523314
0.523313
0.523313
0.523313
0.523313
0.523313
0.523313
0.523313
0.523313
0.523314
0.523315
0.523316
0.523316
0.523317
0.523318
0.523318
0.523318
0.523318
0.523318
0.523317
0.523316
0.523315
0.523314
0.523311
0.523308
0.523305
0.523301
0.523295
0.52329
0.523285
0.523282
0.52328
0.523278
0.523277
0.523278
0.52328
0.523284
0.523294
0.523323
0.523481
0.524185
0.52745
0.537433
0.567325
0.621336
0.709507
0.812042
0.885701
0.948296
0.963583
0.980168
0.993455
1.00809
1.01154
1.00891
1.00041
0.996122
0.99794
1.00194
1.0034
1.00213
1.00038
1.00065
1.00212
1.00264
1.00187
1.00049
1.00047
1.00086
1.0011
1.00114
1.00122
1.0015
1.00166
1.00167
1.00165
1.00161
1.00149
1.0012
1.00098
1.00094
1.00098
1.00103
1.00102
1.00094
1.00079
1.00074
1.00077
1.00087
1.00104
1.00118
1.00129
0.523326
0.523326
0.523326
0.523326
0.523327
0.523327
0.523328
0.523328
0.523329
0.523329
0.52333
0.523331
0.523331
0.523332
0.523333
0.523334
0.523335
0.523336
0.523337
0.523338
0.523339
0.523339
0.523339
0.523339
0.523338
0.523336
0.523334
0.523332
0.523329
0.523326
0.523322
0.523318
0.523312
0.523306
0.523299
0.523292
0.523286
0.523279
0.523273
0.52327
0.523268
0.523267
0.523268
0.523272
0.523279
0.52329
0.523309
0.523321
0.523335
0.523384
0.523618
0.52499
0.530044
0.548917
0.590544
0.671694
0.774
0.867276
0.949136
0.982733
1.00108
1.00366
0.997442
0.994093
0.998431
1.00446
1.00515
1.00284
0.999095
0.999347
1.00177
1.00327
1.00266
1.00044
1.00006
1.00056
1.00122
1.00118
1.00117
1.00136
1.00173
1.0017
1.00164
1.00162
1.00157
1.00138
1.00109
1.00096
1.00095
1.00099
1.00103
1.001
1.0009
1.00075
1.00074
1.00079
1.00092
1.00108
1.0012
1.00129
0.523336
0.523337
0.523338
0.523338
0.523339
0.52334
0.523341
0.523342
0.523342
0.523343
0.523344
0.523346
0.523347
0.523348
0.523349
0.52335
0.523351
0.523352
0.523353
0.523353
0.523353
0.523353
0.523353
0.523352
0.52335
0.523348
0.523345
0.523342
0.523339
0.523336
0.523332
0.523327
0.523322
0.523315
0.523308
0.523301
0.523295
0.523289
0.523284
0.523281
0.523279
0.523279
0.523282
0.523287
0.523295
0.523304
0.523313
0.523325
0.523335
0.523345
0.523356
0.523375
0.523461
0.52405
0.526774
0.539273
0.571047
0.645074
0.747371
0.844629
0.928133
0.955619
0.975887
0.991612
1.00981
1.01204
1.00779
0.997323
0.997561
1.00051
1.00433
1.00363
1.00076
0.999145
0.999991
1.00145
1.00141
1.00111
1.00121
1.00172
1.00191
1.00175
1.00162
1.00161
1.00153
1.00126
1.00103
1.00094
1.00095
1.00098
1.001
1.00096
1.00084
1.00073
1.00074
1.00081
1.00097
1.00111
1.0012
1.00129
0.523345
0.523345
0.523345
0.523346
0.523346
0.523346
0.523347
0.523347
0.523348
0.523348
0.523349
0.523349
0.52335
0.523351
0.523351
0.523352
0.523352
0.523351
0.523351
0.523351
0.523351
0.52335
0.523351
0.523351
0.523349
0.523347
0.523345
0.523343
0.523341
0.523339
0.523336
0.523333
0.52333
0.523326
0.523323
0.523319
0.523317
0.523314
0.523311
0.523308
0.523307
0.523309
0.523314
0.523319
0.523325
0.52333
0.523333
0.523336
0.523336
0.523339
0.523344
0.523353
0.523359
0.523358
0.523386
0.523682
0.525309
0.534188
0.560177
0.627447
0.727664
0.835781
0.933696
0.978153
1.00076
1.00407
0.994451
0.994692
1.00068
1.00633
1.00498
1.00063
0.998278
0.999039
1.00186
1.00194
1.00116
1.00098
1.00159
1.00207
1.0019
1.00161
1.00162
1.00162
1.00145
1.00113
1.00099
1.00094
1.00096
1.00097
1.00096
1.0009
1.00077
1.00072
1.00074
1.00085
1.00103
1.00115
1.00122
1.0013
0.523351
0.523351
0.52335
0.523349
0.523348
0.523348
0.523347
0.523346
0.523345
0.523345
0.523344
0.523343
0.523343
0.523343
0.523343
0.523343
0.523342
0.523342
0.523341
0.523341
0.52334
0.52334
0.523339
0.523336
0.523335
0.523335
0.523335
0.523335
0.523335
0.523336
0.523336
0.523338
0.52334
0.523343
0.523346
0.523349
0.523354
0.523359
0.52336
0.52336
0.523361
0.523364
0.523365
0.523364
0.523363
0.523359
0.523353
0.523347
0.523341
0.523334
0.523328
0.523327
0.523333
0.523337
0.523346
0.523357
0.52338
0.523563
0.52469
0.531543
0.554023
0.618155
0.720347
0.829685
0.920592
0.956426
0.976588
0.996178
1.01321
1.01142
1.00452
0.995973
0.997281
1.0017
1.00333
1.00183
1.00034
1.00104
1.00238
1.00229
1.00162
1.00152
1.00172
1.00164
1.00128
1.00102
1.00101
1.00099
1.00099
1.00097
1.00092
1.00082
1.00071
1.00071
1.00076
1.0009
1.00107
1.00118
1.00123
1.0013
0.523351
0.52335
0.52335
0.523348
0.523347
0.523346
0.523345
0.523343
0.523341
0.523339
0.523337
0.523334
0.523331
0.523329
0.523326
0.523324
0.523321
0.523319
0.523317
0.523317
0.523316
0.523316
0.523316
0.523317
0.523318
0.52332
0.523323
0.523327
0.523333
0.523339
0.523345
0.523353
0.523362
0.523372
0.523383
0.523393
0.523405
0.523418
0.523425
0.523427
0.523428
0.523428
0.523423
0.523413
0.523398
0.52338
0.523361
0.523342
0.523318
0.523301
0.523294
0.52329
0.523293
0.523307
0.523333
0.523366
0.523411
0.523416
0.523426
0.523542
0.524412
0.530385
0.551999
0.615606
0.718017
0.836238
0.937544
0.985325
1.0036
1.00156
0.991878
0.995657
1.00292
1.00523
1.00266
0.999165
0.999692
1.00255
1.00276
1.00194
1.00132
1.00164
1.00188
1.0016
1.00107
1.00098
1.00105
1.00103
1.00098
1.00095
1.00086
1.00073
1.00068
1.00071
1.00079
1.00095
1.00111
1.00119
1.00124
1.0013
0.52334
0.523338
0.523336
0.523334
0.523332
0.52333
0.523328
0.523326
0.523323
0.523321
0.523319
0.523317
0.523315
0.523313
0.523312
0.52331
0.523309
0.523308
0.523307
0.523307
0.523307
0.523309
0.52331
0.523312
0.523315
0.523319
0.523325
0.523334
0.523344
0.523354
0.523365
0.523378
0.523391
0.523406
0.52342
0.523434
0.523447
0.523462
0.523473
0.523476
0.523476
0.523473
0.523464
0.523447
0.523422
0.523393
0.523362
0.523333
0.523303
0.523277
0.523268
0.523265
0.523267
0.523284
0.523321
0.523374
0.523434
0.52347
0.52348
0.523473
0.52344
0.523509
0.524304
0.530051
0.552608
0.61832
0.729439
0.847226
0.928968
0.964345
0.982095
1.00448
1.01371
1.00884
0.997603
0.998145
1.00186
1.00429
1.00276
1.00082
1.00122
1.00217
1.00202
1.00113
1.00095
1.00107
1.00112
1.00104
1.001
1.00094
1.00082
1.00068
1.00066
1.00072
1.00084
1.00102
1.00115
1.0012
1.00125
1.00129
0.52333
0.523328
0.523326
0.523323
0.523321
0.523319
0.523316
0.523314
0.523313
0.523311
0.52331
0.523308
0.523307
0.523306
0.523306
0.523305
0.523305
0.523305
0.523306
0.523308
0.52331
0.523312
0.523315
0.52332
0.523326
0.523334
0.523343
0.523354
0.523364
0.523375
0.523386
0.523399
0.523412
0.523425
0.523438
0.523451
0.523463
0.523475
0.523484
0.523492
0.523492
0.523487
0.523477
0.52346
0.523435
0.523402
0.523367
0.523332
0.523298
0.52327
0.523259
0.523258
0.523262
0.52328
0.52332
0.523378
0.523445
0.523496
0.523506
0.523504
0.52348
0.52341
0.52334
0.523416
0.52432
0.530549
0.556967
0.628998
0.743362
0.873441
0.957244
0.995851
1.00502
0.994454
0.995467
1.00237
1.00652
1.00419
0.999844
1.00002
1.00227
1.00249
1.00148
1.00069
1.001
1.00127
1.00117
1.00103
1.00102
1.00094
1.00069
1.00061
1.00066
1.00076
1.00089
1.00107
1.00117
1.00122
1.00126
1.00129
0.52333
0.523328
0.523327
0.523325
0.523324
0.523322
0.523321
0.523319
0.523318
0.523317
0.523317
0.523317
0.523317
0.523317
0.523318
0.52332
0.523323
0.523326
0.523328
0.523333
0.523337
0.523342
0.523348
0.523355
0.523361
0.523369
0.523375
0.52338
0.523385
0.523392
0.523398
0.523406
0.523416
0.523427
0.523438
0.52345
0.52346
0.523467
0.523474
0.523482
0.523486
0.523481
0.52347
0.523455
0.523435
0.52341
0.52338
0.523347
0.523314
0.523282
0.523264
0.523263
0.52327
0.523291
0.523328
0.523378
0.523442
0.523498
0.523514
0.523509
0.523481
0.523424
0.523343
0.523286
0.523286
0.523402
0.524637
0.532093
0.565037
0.646773
0.773505
0.891673
0.94813
0.973815
0.998238
1.01361
1.01041
0.999256
0.998204
1.00097
1.00382
1.0024
1.00034
1.00063
1.00149
1.00144
1.00107
1.00108
1.00104
1.0008
1.00061
1.00062
1.00071
1.00082
1.00096
1.00111
1.00119
1.00123
1.00127
1.00128
0.523358
0.52336
0.523361
0.523363
0.523365
0.523367
0.52337
0.523371
0.523372
0.523374
0.523376
0.523376
0.523379
0.523381
0.523384
0.523389
0.523392
0.523395
0.523399
0.523401
0.523403
0.523407
0.523408
0.523406
0.523407
0.523406
0.523404
0.523402
0.523399
0.523398
0.523401
0.523404
0.523405
0.523405
0.523407
0.523408
0.52341
0.523412
0.523416
0.523423
0.523432
0.52344
0.523442
0.523436
0.523428
0.523418
0.523405
0.523387
0.523365
0.523337
0.523308
0.523294
0.523299
0.523315
0.523339
0.523371
0.523411
0.523461
0.523499
0.523497
0.523472
0.523427
0.523365
0.5233
0.523278
0.523285
0.52332
0.523537
0.52534
0.535327
0.579591
0.67416
0.806306
0.928169
0.98534
1.0048
0.997587
0.994062
1.00062
1.00594
1.00434
0.99935
0.999465
1.00146
1.0018
1.0013
1.00094
1.00117
1.00104
1.00066
1.00059
1.00069
1.00079
1.00088
1.00103
1.00114
1.00119
1.00126
1.00129
1.00127
0.52343
0.523434
0.52344
0.523445
0.523449
0.523455
0.523459
0.523464
0.52347
0.523474
0.523478
0.523482
0.523483
0.523484
0.523487
0.52349
0.52349
0.52349
0.523488
0.523485
0.52348
0.523474
0.523466
0.523457
0.523447
0.523436
0.523425
0.523415
0.523406
0.523397
0.523388
0.523377
0.523366
0.523356
0.523344
0.523336
0.523332
0.523331
0.523331
0.523337
0.523349
0.523366
0.523384
0.523403
0.523418
0.523433
0.523443
0.523444
0.52344
0.523425
0.5234
0.523368
0.523346
0.523341
0.523343
0.523348
0.523359
0.523383
0.52342
0.523447
0.523444
0.523427
0.5234
0.523353
0.523314
0.523315
0.523332
0.523374
0.523446
0.523753
0.526527
0.541711
0.599267
0.716226
0.844407
0.937279
0.967609
0.992019
1.01301
1.01043
1.00018
0.997295
0.999934
1.00283
1.00183
1.00073
1.00103
1.00137
1.0009
1.00051
1.00061
1.00078
1.00084
1.00091
1.00107
1.00115
1.0012
1.00128
1.00131
1.00125
0.523486
0.523491
0.523496
0.523503
0.523509
0.523514
0.523519
0.523524
0.523529
0.523534
0.52354
0.523545
0.523547
0.523547
0.523547
0.523547
0.523545
0.523541
0.523536
0.523529
0.523521
0.523511
0.5235
0.523486
0.523472
0.523456
0.523438
0.52342
0.523402
0.523384
0.523367
0.523352
0.523338
0.523324
0.523311
0.523299
0.523293
0.523291
0.523291
0.523295
0.523306
0.523321
0.523342
0.52337
0.523404
0.523439
0.523472
0.523491
0.523493
0.523492
0.523478
0.523449
0.523409
0.523368
0.523335
0.523314
0.523309
0.523313
0.523336
0.523375
0.523416
0.523441
0.523445
0.523435
0.523403
0.523374
0.52337
0.523375
0.523405
0.523425
0.523472
0.523978
0.528684
0.553755
0.631126
0.760495
0.898171
0.976234
1.00319
0.999401
0.993582
0.99994
1.00497
1.00326
0.999961
1.0002
1.0017
1.00142
1.00045
1.00047
1.00083
1.0009
1.00091
1.00103
1.00116
1.00114
1.00117
1.00126
1.0013
1.00122
0.523498
0.523503
0.523509
0.523513
0.523518
0.523524
0.523529
0.523533
0.523537
0.52354
0.523543
0.523548
0.523551
0.523551
0.523549
0.523546
0.523543
0.523539
0.523533
0.523526
0.523519
0.523509
0.523497
0.523485
0.523472
0.523456
0.52344
0.523423
0.523405
0.523386
0.523367
0.523347
0.523329
0.523314
0.523302
0.523293
0.523287
0.523286
0.523288
0.523294
0.523302
0.523315
0.523333
0.523356
0.523389
0.52343
0.523472
0.523503
0.523512
0.52351
0.523501
0.523481
0.523447
0.523397
0.523337
0.523292
0.523281
0.523283
0.523301
0.523339
0.523397
0.523466
0.523497
0.5235
0.523487
0.523441
0.523393
0.523375
0.523373
0.523384
0.523394
0.523412
0.523506
0.524669
0.533337
0.573583
0.678498
0.816743
0.922801
0.964436
0.988048
1.01204
1.00965
0.999757
0.998988
1.00135
1.00255
1.0007
1.00012
1.00073
1.00111
1.00092
1.00094
1.00115
1.00118
1.00113
1.00119
1.0013
1.00131
1.00114
0.523449
0.523451
0.523453
0.523456
0.523458
0.523461
0.523464
0.523466
0.523469
0.523471
0.523473
0.523475
0.523477
0.523479
0.523483
0.523487
0.52349
0.523491
0.523489
0.523485
0.523481
0.523477
0.523472
0.523464
0.523454
0.523446
0.523438
0.523431
0.523425
0.523417
0.523407
0.523393
0.523375
0.523358
0.523344
0.523333
0.523322
0.523316
0.52332
0.523327
0.523332
0.523336
0.523343
0.523355
0.523376
0.523404
0.523436
0.52347
0.523497
0.523498
0.523488
0.52347
0.523445
0.523411
0.523357
0.523296
0.523273
0.523276
0.523296
0.523336
0.523398
0.523472
0.523519
0.523524
0.523515
0.523474
0.523405
0.523365
0.523358
0.523364
0.523385
0.523441
0.523547
0.523602
0.523848
0.526365
0.543465
0.60791
0.73236
0.882308
0.966421
1.00279
0.999334
0.995203
1.00159
1.0049
1.00224
0.999173
1.00007
1.00151
1.00107
1.00082
1.00108
1.00129
1.00115
1.0011
1.0012
1.0013
1.00128
1.00105
0.523333
0.523333
0.523333
0.523334
0.523335
0.523336
0.523338
0.52334
0.523341
0.523343
0.523345
0.523347
0.523349
0.523351
0.523356
0.523362
0.523368
0.523375
0.523382
0.523388
0.523394
0.523402
0.523412
0.523426
0.523437
0.523445
0.523452
0.523462
0.523474
0.523484
0.52349
0.523494
0.523495
0.523493
0.523485
0.523474
0.523462
0.523448
0.523435
0.523422
0.523409
0.523389
0.523368
0.523354
0.523346
0.523342
0.523347
0.52336
0.523381
0.523398
0.523404
0.52341
0.523417
0.523417
0.523397
0.523361
0.52333
0.523327
0.523343
0.523374
0.523416
0.523465
0.523508
0.523518
0.523505
0.523464
0.523405
0.523366
0.52336
0.523369
0.523418
0.523502
0.523606
0.523669
0.523668
0.52369
0.524263
0.529934
0.56309
0.659134
0.798755
0.923817
0.960766
0.989664
1.01256
1.00849
0.997901
0.998499
1.00223
1.00219
1.00091
1.00084
1.0014
1.00138
1.00107
1.00109
1.00125
1.0013
1.00126
1.00098
0.523286
0.523285
0.523285
0.523284
0.523284
0.523284
0.523285
0.523286
0.523287
0.523289
0.523291
0.523293
0.523295
0.523298
0.523301
0.523307
0.523313
0.523321
0.52333
0.523339
0.523348
0.523361
0.52338
0.523403
0.52343
0.523456
0.52348
0.523501
0.523522
0.52354
0.523558
0.523576
0.52359
0.523595
0.523597
0.523597
0.52359
0.523573
0.52355
0.52352
0.523482
0.523436
0.523387
0.523338
0.523292
0.523263
0.52325
0.523244
0.523249
0.523272
0.523306
0.523344
0.523391
0.523441
0.523465
0.523469
0.523464
0.52345
0.523446
0.523445
0.523443
0.523447
0.523463
0.523473
0.523458
0.523426
0.523402
0.523391
0.523404
0.523447
0.523518
0.523592
0.523659
0.523679
0.52367
0.523603
0.523445
0.523513
0.525318
0.538857
0.599974
0.724855
0.874611
0.9701
1.00208
0.995095
0.994934
1.00242
1.00456
1.00161
0.999753
1.00088
1.00175
1.00132
1.00093
1.00118
1.00134
1.00129
1.00111
1.00078
0.523301
0.523302
0.523303
0.523304
0.523304
0.523304
0.523306
0.523308
0.523309
0.52331
0.523316
0.523322
0.523323
0.523321
0.523324
0.523329
0.523333
0.52334
0.523351
0.523361
0.523377
0.523396
0.523413
0.523428
0.523446
0.523469
0.523495
0.523519
0.523541
0.523558
0.523574
0.52359
0.523607
0.523621
0.523626
0.523625
0.523619
0.523605
0.523583
0.523552
0.523511
0.523457
0.523395
0.523328
0.523261
0.523217
0.5232
0.523194
0.523198
0.523222
0.523265
0.523322
0.523393
0.523475
0.523535
0.523548
0.523548
0.523541
0.523524
0.523486
0.523443
0.523421
0.523412
0.523408
0.523397
0.523397
0.523413
0.523458
0.523527
0.523596
0.523636
0.52366
0.523676
0.523662
0.523583
0.523442
0.523297
0.523237
0.523263
0.523784
0.529127
0.55954
0.659116
0.804361
0.91954
0.965421
0.994941
1.01091
1.00648
0.997695
0.999646
1.0027
1.00202
1.00069
1.00092
1.00141
1.00136
1.0011
1.00096
1.0007
0.523456
0.523459
0.523461
0.523463
0.523465
0.523465
0.523466
0.523467
0.523466
0.523463
0.523465
0.523465
0.523465
0.523465
0.523458
0.523454
0.523455
0.52345
0.523448
0.523444
0.523439
0.52344
0.523443
0.523448
0.523455
0.523463
0.523471
0.523481
0.523494
0.523509
0.52352
0.523528
0.523534
0.523542
0.523549
0.523547
0.523546
0.523544
0.523537
0.523524
0.523494
0.523454
0.523405
0.523355
0.523306
0.523258
0.523221
0.523206
0.523208
0.523229
0.523278
0.523347
0.523421
0.523487
0.523542
0.523565
0.523562
0.523557
0.523543
0.52349
0.523426
0.523395
0.523386
0.52338
0.523382
0.523407
0.523475
0.523583
0.52367
0.523704
0.523701
0.523686
0.523643
0.523534
0.523376
0.523266
0.523213
0.523222
0.523291
0.523403
0.523601
0.525305
0.539829
0.601065
0.731677
0.890713
0.974698
1.00267
0.993284
0.995627
1.00451
1.00388
1.00054
1.00033
1.00152
1.00167
1.00119
1.0009
1.00085
1.0006
0.523688
0.523689
0.523689
0.523689
0.523688
0.523684
0.523681
0.523678
0.523672
0.523665
0.523656
0.523645
0.523633
0.523619
0.5236
0.523576
0.523549
0.523521
0.523502
0.523488
0.523471
0.523454
0.523436
0.523419
0.5234
0.523379
0.523359
0.523341
0.523336
0.523337
0.523336
0.523337
0.523341
0.523347
0.523354
0.523362
0.523376
0.523395
0.523413
0.523436
0.523454
0.523458
0.52346
0.523453
0.523444
0.523429
0.5234
0.52337
0.523345
0.523338
0.523364
0.523418
0.523442
0.523463
0.523505
0.523532
0.523525
0.523523
0.523513
0.523465
0.523416
0.523389
0.523389
0.523399
0.523436
0.523514
0.523619
0.5237
0.523734
0.523734
0.523717
0.523644
0.523511
0.523301
0.523183
0.523166
0.523187
0.523285
0.523468
0.523633
0.523692
0.523721
0.524196
0.529485
0.564468
0.670339
0.816247
0.939151
0.968733
0.998728
1.01015
1.00459
0.998501
1.00042
1.00252
1.00153
1.00086
1.00094
1.00077
1.00043
0.523774
0.523777
0.52378
0.523779
0.523772
0.523763
0.523757
0.523747
0.523739
0.523729
0.523712
0.523693
0.523678
0.523666
0.523652
0.523628
0.523594
0.523552
0.523508
0.523469
0.523432
0.523395
0.523359
0.523329
0.523304
0.523279
0.523249
0.523224
0.523215
0.523216
0.523224
0.523228
0.523231
0.52324
0.523257
0.523277
0.523304
0.523336
0.523364
0.523396
0.523441
0.523505
0.523569
0.523597
0.523598
0.52359
0.523562
0.523523
0.523481
0.523443
0.523437
0.523448
0.523437
0.523416
0.523418
0.523409
0.5234
0.523417
0.523438
0.523428
0.523414
0.523432
0.52349
0.523564
0.523635
0.523716
0.523751
0.523745
0.523737
0.523704
0.523607
0.523466
0.523304
0.523143
0.523123
0.523139
0.523257
0.523477
0.52369
0.523753
0.523741
0.523672
0.523434
0.523479
0.525533
0.542261
0.615889
0.760618
0.905888
0.987521
1.0021
0.99165
0.998884
1.00403
1.00269
1.00027
1.00055
1.00107
1.00058
1.0003
0.523643
0.523648
0.523647
0.523643
0.523645
0.52365
0.523648
0.523648
0.523651
0.523649
0.523636
0.523616
0.523592
0.523565
0.523535
0.523509
0.523484
0.523458
0.523431
0.523403
0.523374
0.523343
0.523311
0.523282
0.523256
0.523234
0.52321
0.52319
0.523187
0.523198
0.523223
0.523236
0.523241
0.523255
0.523281
0.523313
0.523349
0.523387
0.523429
0.523475
0.523523
0.523575
0.523627
0.523651
0.523647
0.523627
0.523586
0.523531
0.523475
0.523461
0.523449
0.523403
0.523368
0.523359
0.523344
0.523336
0.523344
0.523369
0.523408
0.523453
0.523512
0.523607
0.523702
0.523764
0.523817
0.523818
0.523798
0.52373
0.523613
0.523457
0.52332
0.523235
0.523161
0.523112
0.523131
0.523258
0.523479
0.523707
0.523799
0.523794
0.523721
0.523506
0.523189
0.523096
0.523169
0.523976
0.532016
0.575078
0.701225
0.856492
0.943219
0.974945
1.00944
1.00848
1.00297
0.999524
1.00136
1.00123
0.999977
1.00024
0.523325
0.523332
0.523339
0.523347
0.523354
0.523361
0.523368
0.523376
0.523383
0.523391
0.523393
0.523388
0.523387
0.523385
0.523381
0.52339
0.523391
0.523376
0.523374
0.523364
0.523346
0.523335
0.523329
0.523333
0.523338
0.52334
0.523344
0.523362
0.523393
0.523428
0.523471
0.523504
0.523519
0.523531
0.523551
0.523571
0.523572
0.523565
0.523561
0.523565
0.523575
0.523597
0.523604
0.52359
0.523561
0.523519
0.523462
0.523405
0.523398
0.523412
0.52339
0.523341
0.523333
0.523342
0.523347
0.523352
0.523376
0.523446
0.523547
0.52365
0.523734
0.523796
0.523841
0.523861
0.52386
0.52383
0.523728
0.523551
0.523307
0.523125
0.523088
0.523103
0.523126
0.5232
0.523363
0.523566
0.523721
0.523816
0.523823
0.523748
0.52352
0.523254
0.523065
0.523062
0.523164
0.523376
0.523763
0.526869
0.552873
0.641367
0.801143
0.935198
0.999531
0.999423
0.996092
1.00171
1.00316
1.00003
0.999377
1.00082
0.523223
0.523235
0.523246
0.523256
0.523267
0.523276
0.523286
0.523295
0.523299
0.523307
0.523314
0.523323
0.523333
0.523338
0.523361
0.523378
0.523382
0.523414
0.523439
0.523457
0.523486
0.523524
0.523545
0.523565
0.523598
0.523636
0.523673
0.523702
0.523725
0.523757
0.523781
0.523786
0.523795
0.523794
0.523768
0.523725
0.523682
0.523643
0.523602
0.523554
0.523502
0.523445
0.523389
0.523325
0.523263
0.523207
0.523198
0.523204
0.523225
0.523272
0.523309
0.523318
0.523354
0.523407
0.523467
0.52354
0.523633
0.523752
0.523834
0.523856
0.523857
0.523871
0.523872
0.52384
0.523752
0.523612
0.52346
0.523278
0.523065
0.523013
0.523024
0.523085
0.523237
0.52349
0.523707
0.523801
0.523836
0.523814
0.523701
0.523483
0.523238
0.523097
0.523058
0.523154
0.523459
0.523653
0.523707
0.523778
0.524941
0.53726
0.600157
0.742424
0.892558
0.95356
0.987996
1.01007
1.00552
0.997543
0.999286
1.0021
0.523412
0.523429
0.523446
0.523473
0.523488
0.523496
0.523511
0.523529
0.523544
0.523553