/*--------------------------------*- C++ -*----------------------------------*\
  =========                 |
  \\      /  F ield         | OpenFOAM: The Open Source CFD Toolbox
   \\    /   O peration     | Website:  https://openfoam.org
    \\  /    A nd           | Version:  7
     \\/     M anipulation  |
\*---------------------------------------------------------------------------*/
FoamFile
{
    version     2.0;
    format      ascii;
    class       volScalarField;
    location    "6";
    object      rho;
}
// * * * * * * * * * * * * * * * * * * * * * * * * * * * * * * * * * * * * * //

dimensions      [1 -3 0 0 0 0 0];

internalField   nonuniform List<scalar> 
90000
(
0.298678
0.342272
0.377165
0.402984
0.43769
0.473395
0.507819
0.54779
0.592875
0.636514
0.68143
0.726886
0.768411
0.804751
0.837967
0.863566
0.882768
0.897117
0.902946
0.905704
0.901675
0.894113
0.886721
0.883743
0.882309
0.882143
0.883003
0.884453
0.887384
0.887217
0.882875
0.880657
0.882071
0.885132
0.890819
0.895313
0.899756
0.903187
0.903918
0.904731
0.906346
0.908816
0.908398
0.906454
0.904346
0.903755
0.904748
0.905439
0.9046
0.903688
0.903059
0.902678
0.902191
0.901244
0.899928
0.899004
0.899187
0.899157
0.898642
0.898099
0.897652
0.89681
0.895828
0.895426
0.895229
0.895338
0.895581
0.895414
0.894616
0.893602
0.89317
0.893378
0.894116
0.894593
0.89493
0.896368
0.899581
0.905626
0.913947
0.923444
0.932734
0.941572
0.948325
0.952934
0.961428
0.975391
0.991481
1.00767
1.02635
1.04332
1.05606
1.0673
1.07663
1.07676
1.09792
1.14118
1.19008
1.2366
1.25373
1.26128
0.257969
0.257997
0.258032
0.25808
0.258139
0.258199
0.258494
0.260263
0.264822
0.273737
0.287305
0.30861
0.336286
0.373315
0.4175
0.473112
0.530342
0.593892
0.650831
0.703987
0.747748
0.781617
0.812398
0.834729
0.859304
0.871823
0.885169
0.884441
0.879884
0.873022
0.862927
0.865369
0.867946
0.866972
0.867234
0.864515
0.861617
0.861095
0.86179
0.865209
0.870593
0.875753
0.876274
0.87637
0.876646
0.877699
0.87705
0.874922
0.872909
0.873339
0.875804
0.879033
0.881196
0.880798
0.879725
0.879219
0.878337
0.87847
0.879362
0.881202
0.883174
0.882502
0.880842
0.878942
0.879927
0.882683
0.885953
0.88804
0.888265
0.887598
0.887543
0.888011
0.889042
0.889581
0.890539
0.892556
0.897492
0.905897
0.914886
0.924096
0.934088
0.942057
0.948599
0.954692
0.96296
0.976306
0.993858
1.01214
1.03069
1.04814
1.061
1.0719
1.08192
1.0802
1.10085
1.14512
1.19216
1.2346
1.25077
1.25923
0.258965
0.259062
0.259175
0.259296
0.259433
0.25958
0.259733
0.259912
0.259989
0.260064
0.260172
0.260308
0.260499
0.260704
0.260979
0.261234
0.263988
0.272026
0.288891
0.314193
0.352505
0.398318
0.456947
0.520451
0.591292
0.657878
0.720257
0.777573
0.814192
0.84728
0.865689
0.877609
0.881065
0.875792
0.872603
0.866277
0.858467
0.856099
0.856105
0.859577
0.86222
0.86245
0.863196
0.866567
0.871333
0.874921
0.873604
0.870773
0.86917
0.870358
0.870239
0.872392
0.873186
0.873676
0.874813
0.876871
0.87626
0.875135
0.875499
0.876439
0.878203
0.879277
0.8799
0.878772
0.878091
0.87927
0.881631
0.884112
0.884903
0.885221
0.885776
0.886701
0.887728
0.888134
0.889302
0.892328
0.897669
0.906299
0.916293
0.926453
0.936857
0.944398
0.951415
0.959789
0.969978
0.982553
0.998824
1.01829
1.03837
1.05702
1.06874
1.0768
1.08561
1.08292
1.10236
1.14675
1.19182
1.22994
1.24489
1.2562
0.260182
0.260321
0.26048
0.260652
0.260843
0.261045
0.26127
0.261503
0.261757
0.262051
0.262366
0.262713
0.263069
0.263447
0.263833
0.264215
0.264644
0.264815
0.264978
0.265222
0.265489
0.265891
0.266188
0.2685
0.276761
0.297571
0.331102
0.384809
0.453766
0.53706
0.626213
0.693099
0.763519
0.798563
0.832026
0.855973
0.858374
0.86244
0.859787
0.862805
0.859847
0.856177
0.856584
0.862672
0.868322
0.871601
0.8697
0.868516
0.869234
0.871429
0.874707
0.872753
0.870599
0.871079
0.873259
0.876013
0.876303
0.875819
0.875866
0.876294
0.877078
0.878168
0.879536
0.88043
0.881389
0.881954
0.882846
0.883959
0.885387
0.886669
0.887869
0.888858
0.888885
0.888353
0.889488
0.893242
0.900311
0.90914
0.91899
0.928931
0.939393
0.948965
0.95791
0.967798
0.979049
0.991039
1.00659
1.02562
1.04762
1.06802
1.07938
1.08444
1.08964
1.08574
1.1021
1.14384
1.18659
1.22044
1.23553
1.25202
0.262291
0.262498
0.262724
0.262963
0.263217
0.263482
0.263758
0.264041
0.264337
0.264638
0.264948
0.265262
0.26558
0.265908
0.266234
0.266583
0.266922
0.267287
0.2677
0.268138
0.268587
0.269045
0.269468
0.269969
0.270156
0.270391
0.270624
0.27099
0.271241
0.273433
0.28716
0.316449
0.367716
0.4417
0.526417
0.630158
0.707148
0.767407
0.816995
0.84175
0.851407
0.859725
0.862898
0.873676
0.875759
0.87469
0.871545
0.876204
0.880975
0.883287
0.879251
0.874861
0.874937
0.877753
0.880982
0.881888
0.881505
0.88196
0.882567
0.882464
0.882713
0.8838
0.885504
0.887116
0.887349
0.886537
0.886363
0.887141
0.88906
0.891241
0.892876
0.893936
0.894135
0.895008
0.896806
0.900659
0.90697
0.914219
0.923155
0.934808
0.946589
0.957051
0.966543
0.977333
0.989461
1.0024
1.01724
1.03474
1.05724
1.0783
1.0895
1.09265
1.09388
1.08874
1.10107
1.13691
1.17533
1.20555
1.22332
1.24723
0.264875
0.265085
0.265308
0.265539
0.265778
0.266024
0.266279
0.26654
0.266812
0.267087
0.267373
0.26766
0.267962
0.268263
0.268586
0.268905
0.269248
0.269583
0.269941
0.270275
0.270633
0.270954
0.271313
0.271625
0.271985
0.272349
0.272737
0.273108
0.273484
0.27378
0.273943
0.274119
0.2744
0.274643
0.275725
0.288682
0.326882
0.384903
0.474494
0.574039
0.669268
0.748686
0.804318
0.837983
0.856752
0.873307
0.878168
0.890575
0.899523
0.895505
0.886696
0.885567
0.889656
0.891708
0.88989
0.887973
0.889389
0.892889
0.894655
0.893983
0.893038
0.892892
0.893592
0.895081
0.897242
0.898787
0.898879
0.898699
0.899107
0.900302
0.901956
0.903493
0.90416
0.90481
0.906787
0.91112
0.917783
0.925242
0.933853
0.945522
0.957012
0.967334
0.977459
0.988661
1.00061
1.01297
1.0275
1.04422
1.06697
1.08671
1.09723
1.09898
1.09703
1.09088
1.09906
1.1271
1.15999
1.18745
1.20876
1.24222
0.267408
0.267606
0.267812
0.268028
0.268246
0.268475
0.268706
0.268951
0.269196
0.269453
0.269707
0.269976
0.270237
0.270517
0.270789
0.271081
0.271365
0.271665
0.271951
0.272252
0.272539
0.272838
0.273128
0.273429
0.273729
0.274023
0.274318
0.274598
0.274886
0.275167
0.275456
0.275796
0.276132
0.276481
0.276828
0.276993
0.277152
0.277396
0.277592
0.282427
0.307042
0.357915
0.441495
0.543088
0.649104
0.745783
0.815008
0.860428
0.880225
0.897457
0.897779
0.903264
0.914472
0.910791
0.905575
0.900349
0.902435
0.905755
0.905818
0.906588
0.907447
0.907027
0.906966
0.907989
0.910488
0.912628
0.911765
0.910368
0.910071
0.911094
0.912748
0.914268
0.914929
0.915916
0.918245
0.922747
0.928622
0.935448
0.9441
0.955657
0.966832
0.976353
0.985953
0.997149
1.00853
1.02055
1.03492
1.05201
1.07558
1.09363
1.1023
1.10259
1.09834
1.09149
1.09664
1.11696
1.14488
1.17183
1.19899
1.23756
0.269878
0.270052
0.270238
0.270426
0.270623
0.270819
0.271025
0.27123
0.271446
0.27166
0.271884
0.272103
0.272331
0.272553
0.272785
0.273016
0.273257
0.273496
0.273739
0.273978
0.274218
0.274457
0.274698
0.274941
0.275185
0.275432
0.27568
0.275935
0.27619
0.276445
0.276708
0.276985
0.277236
0.277514
0.277747
0.27803
0.278297
0.278591
0.278853
0.278957
0.279078
0.279301
0.279463
0.280837
0.29927
0.34596
0.433433
0.547046
0.665157
0.771883
0.84595
0.888181
0.909811
0.912534
0.917797
0.916584
0.920903
0.919543
0.916492
0.918166
0.919278
0.91775
0.917667
0.918767
0.921322
0.924239
0.923744
0.922848
0.923012
0.923155
0.923852
0.925079
0.926113
0.927555
0.929843
0.933298
0.93775
0.943984
0.953326
0.964973
0.975706
0.984037
0.992941
1.00304
1.01353
1.02549
1.03941
1.0577
1.08219
1.09903
1.10585
1.10507
1.09893
1.091
1.09469
1.11007
1.13414
1.15867
1.1896
1.2324
0.272153
0.272297
0.272448
0.272604
0.272762
0.272926
0.273092
0.273263
0.273436
0.273614
0.273792
0.273974
0.274156
0.274338
0.274521
0.274709
0.274904
0.275105
0.275305
0.275505
0.275708
0.275911
0.276118
0.276323
0.276536
0.276746
0.276966
0.277184
0.277411
0.277626
0.27786
0.278075
0.278318
0.278543
0.278785
0.279014
0.279239
0.279438
0.279616
0.2798
0.280025
0.280239
0.280465
0.280692
0.280833
0.281049
0.281236
0.282156
0.303955
0.360213
0.468441
0.598876
0.731383
0.816435
0.89176
0.917086
0.924665
0.924994
0.925207
0.931607
0.932385
0.929143
0.9276
0.926801
0.927875
0.929595
0.930564
0.931785
0.933639
0.93314
0.932694
0.933277
0.934531
0.936258
0.938565
0.940775
0.943969
0.94988
0.960213
0.973002
0.983098
0.990273
0.998032
1.00683
1.01625
1.02801
1.04198
1.06219
1.08611
1.10219
1.10741
1.10592
1.09977
1.09068
1.09418
1.10669
1.12745
1.15287
1.18415
1.22751
0.274033
0.274149
0.274271
0.274398
0.274528
0.274663
0.2748
0.274941
0.275085
0.27523
0.275377
0.275526
0.275677
0.275827
0.275977
0.276131
0.27629
0.276458
0.276626
0.276798
0.276971
0.277151
0.277326
0.277506
0.277678
0.277864
0.278045
0.27824
0.278429
0.278624
0.27881
0.279011
0.279205
0.279407
0.279601
0.279796
0.279976
0.280149
0.280317
0.280487
0.280663
0.280835
0.281057
0.281262
0.281547
0.281882
0.282232
0.282641
0.282839
0.283145
0.283403
0.29044
0.328589
0.420659
0.55793
0.704557
0.8127
0.882978
0.918833
0.936694
0.934197
0.933751
0.935821
0.935155
0.934509
0.933853
0.934191
0.937128
0.939903
0.940093
0.940324
0.94068
0.941038
0.94249
0.944487
0.945876
0.948413
0.954603
0.966232
0.980123
0.989567
0.99612
1.00289
1.01018
1.01845
1.02968
1.04388
1.06522
1.08852
1.10486
1.10843
1.10675
1.10093
1.09163
1.09444
1.10614
1.12429
1.14922
1.17968
1.22211
0.275678
0.275772
0.27587
0.275971
0.276076
0.276186
0.276299
0.276415
0.276535
0.276658
0.276781
0.276905
0.277032
0.277158
0.277284
0.277411
0.277545
0.277683
0.277826
0.27797
0.278123
0.278278
0.278436
0.278585
0.278739
0.278893
0.279053
0.279212
0.27938
0.279542
0.279711
0.279877
0.28005
0.280224
0.280398
0.28057
0.280738
0.280905
0.281066
0.281236
0.281411
0.281619
0.281844
0.282121
0.282421
0.282725
0.283054
0.283371
0.283751
0.284209
0.284636
0.284904
0.285191
0.285593
0.285898
0.318452
0.400026
0.547539
0.699456
0.827287
0.885442
0.928906
0.93823
0.937225
0.938569
0.938252
0.938426
0.942652
0.941911
0.941797
0.942636
0.944252
0.945405
0.946877
0.948397
0.94912
0.951496
0.958958
0.97233
0.986363
0.995566
1.00261
1.00954
1.01539
1.02198
1.03193
1.04541
1.06637
1.08927
1.10432
1.10712
1.1064
1.102
1.09429
1.09654
1.10758
1.12245
1.147
1.17727
1.21717
0.277028
0.27711
0.277195
0.277282
0.277371
0.277464
0.27756
0.27766
0.277762
0.277869
0.277977
0.278085
0.278193
0.278305
0.278416
0.278529
0.278644
0.278765
0.278886
0.279014
0.279147
0.279287
0.279421
0.279558
0.279693
0.279835
0.279978
0.28012
0.280262
0.280408
0.280556
0.280705
0.280859
0.281015
0.281177
0.281338
0.281508
0.281671
0.281846
0.282019
0.282214
0.282424
0.282674
0.282948
0.283242
0.28356
0.283888
0.284243
0.284644
0.285029
0.285374
0.285803
0.286213
0.286617
0.287026
0.287276
0.287652
0.287897
0.318657
0.40277
0.565328
0.72409
0.85191
0.907907
0.938406
0.937657
0.940832
0.947878
0.942775
0.942211
0.943068
0.945104
0.947117
0.949059
0.950684
0.951295
0.953888
0.962791
0.977912
0.991337
1.00084
1.00973
1.01745
1.02238
1.0273
1.03535
1.04751
1.0679
1.09017
1.10378
1.1054
1.10628
1.10405
1.09836
1.10123
1.11067
1.12206
1.14469
1.17685
1.21228
0.278297
0.278369
0.278446
0.278525
0.278606
0.278689
0.278774
0.278861
0.27895
0.279043
0.279141
0.279236
0.279333
0.27943
0.279534
0.279637
0.279742
0.279847
0.279953
0.280061
0.280179
0.280303
0.280426
0.280545
0.280666
0.280791
0.280918
0.281044
0.281171
0.281299
0.281431
0.281568
0.281705
0.281852
0.281998
0.282161
0.282325
0.282507
0.282691
0.282889
0.283099
0.283338
0.283595
0.283889
0.284193
0.284513
0.284847
0.285186
0.285555
0.285905
0.286288
0.286688
0.287035
0.287378
0.287734
0.28818
0.288619
0.288998
0.289292
0.289526
0.291473
0.327379
0.435512
0.611905
0.77467
0.875733
0.930605
0.945037
0.943011
0.945426
0.945842
0.946956
0.949061
0.950484
0.950954
0.951884
0.955482
0.966344
0.981347
0.993609
1.00454
1.01684
1.02426
1.02848
1.03281
1.03868
1.04632
1.06454
1.08676
1.1007
1.10297
1.1067
1.10692
1.10336
1.1068
1.11455
1.12373
1.14402
1.17959
1.20689
0.279493
0.279556
0.279625
0.279697
0.279771
0.279846
0.279922
0.280002
0.280081
0.280163
0.280247
0.280336
0.280425
0.280514
0.280604
0.280697
0.280792
0.280888
0.280983
0.281076
0.281174
0.281284
0.281399
0.281508
0.281611
0.281715
0.281824
0.281937
0.282056
0.282176
0.282302
0.282428
0.282561
0.282693
0.282838
0.282992
0.28317
0.283363
0.283572
0.283787
0.284022
0.284267
0.284542
0.284827
0.285121
0.285434
0.285743
0.286065
0.286404
0.286747
0.287091
0.287451
0.287816
0.288135
0.28851
0.288914
0.28928
0.289653
0.290043
0.290524
0.290704
0.291053
0.291345
0.298113
0.35273
0.49401
0.675542
0.829308
0.900376
0.94707
0.943204
0.948711
0.95348
0.954207
0.952596
0.952444
0.956493
0.9687
0.983382
0.994905
1.00736
1.0217
1.02814
1.03209
1.03604
1.04079
1.04485
1.06189
1.08386
1.09721
1.10123
1.1079
1.10949
1.10806
1.11226
1.11805
1.12627
1.14512
1.18236
1.20242
0.280671
0.280727
0.280787
0.280848
0.280913
0.280978
0.281044
0.281113
0.281183
0.281256
0.281332
0.28141
0.281489
0.281568
0.281651
0.281736
0.28182
0.281904
0.28199
0.282076
0.282162
0.282254
0.28235
0.282445
0.282535
0.282627
0.282723
0.28283
0.282943
0.283063
0.283184
0.283313
0.28344
0.283576
0.283719
0.283881
0.284065
0.284274
0.284499
0.284739
0.284993
0.285251
0.285519
0.285793
0.286071
0.286362
0.286661
0.286959
0.287276
0.287591
0.287906
0.288269
0.28862
0.28893
0.289291
0.28966
0.290047
0.290399
0.290787
0.291154
0.291471
0.291852
0.292196
0.292421
0.292788
0.292988
0.31425
0.404462
0.58948
0.78234
0.879279
0.949048
0.948185
0.95525
0.953999
0.954799
0.958554
0.969339
0.983913
0.99511
1.00968
1.02503
1.02973
1.03341
1.03733
1.04019
1.04198
1.0584
1.08056
1.09394
1.10075
1.10898
1.11124
1.11137
1.11616
1.12072
1.12884
1.14893
1.18336
1.19929
0.28179
0.281843
0.281897
0.281952
0.282008
0.282064
0.282118
0.282173
0.28223
0.282293
0.282358
0.282428
0.282501
0.282575
0.282648
0.282725
0.282803
0.282878
0.282953
0.283029
0.283109
0.283191
0.283275
0.28336
0.283445
0.283533
0.283629
0.283734
0.283851
0.283975
0.284106
0.28424
0.28438
0.284521
0.284673
0.28484
0.285029
0.285243
0.285473
0.285728
0.28599
0.286245
0.286489
0.286734
0.286979
0.287249
0.287522
0.287798
0.288094
0.288385
0.288679
0.289022
0.289371
0.289689
0.290017
0.290404
0.290756
0.291086
0.291438
0.291771
0.292129
0.292426
0.292678
0.293014
0.293375
0.293707
0.294008
0.294248
0.297289
0.351343
0.509048
0.716821
0.843065
0.939875
0.943993
0.957509
0.961374
0.970161
0.983987
0.995203
1.01014
1.02005
1.02097
1.02531
1.032
1.03709
1.03874
1.05493
1.07841
1.09209
1.10134
1.10973
1.11218
1.11308
1.11805
1.12236
1.13033
1.15517
1.1829
1.19645
0.282874
0.28292
0.282966
0.283013
0.28306
0.283106
0.28315
0.283194
0.28324
0.283293
0.283348
0.283407
0.283472
0.283542
0.283611
0.28368
0.28375
0.283819
0.283885
0.283953
0.284023
0.284101
0.284185
0.284274
0.284363
0.284454
0.28455
0.284658
0.284778
0.284912
0.285055
0.285204
0.285355
0.285508
0.285667
0.285834
0.28602
0.286226
0.286449
0.286701
0.286967
0.287208
0.287426
0.287633
0.287849
0.288095
0.288356
0.288618
0.288903
0.289185
0.28947
0.289801
0.290155
0.290461
0.290802
0.291179
0.291519
0.291833
0.292141
0.292488
0.292802
0.293053
0.293308
0.29358
0.293862
0.294213
0.294657
0.295132
0.295389
0.295888
0.296103
0.322605
0.446531
0.645633
0.813203
0.931314
0.955158
0.971508
0.987667
0.997087
1.0137
1.01756
1.01459
1.01966
1.02818
1.03329
1.03617
1.05253
1.0768
1.09236
1.10347
1.11104
1.11245
1.11343
1.11871
1.12332
1.13195
1.16084
1.18217
1.1944
0.28384
0.283882
0.283924
0.283966
0.284006
0.284046
0.284085
0.284124
0.284164
0.28421
0.284259
0.284311
0.284367
0.28443
0.284496
0.284564
0.284634
0.284703
0.28477
0.284838
0.284908
0.284985
0.285075
0.285172
0.285274
0.285377
0.285487
0.285607
0.285741
0.285888
0.286044
0.286204
0.286366
0.28653
0.286696
0.286863
0.287037
0.287225
0.287426
0.28766
0.28792
0.288147
0.288336
0.288509
0.288698
0.288926
0.289179
0.289437
0.289715
0.289998
0.290274
0.290603
0.29095
0.29126
0.291582
0.291966
0.292289
0.292559
0.292838
0.293148
0.293436
0.293684
0.293888
0.294108
0.294411
0.294792
0.295226
0.295625
0.296074
0.296538
0.296739
0.296809
0.296927
0.305114
0.398085
0.587414
0.77583
0.920642
0.968304
1.00099
1.02538
1.01862
1.01486
1.01903
1.02718
1.02978
1.03444
1.05115
1.07546
1.09408
1.10696
1.113
1.11249
1.11338
1.11916
1.1241
1.13458
1.16427
1.18232
1.19351
0.284774
0.284814
0.284854
0.284891
0.284927
0.284962
0.284998
0.285035
0.285074
0.285116
0.285162
0.285209
0.28526
0.285318
0.285383
0.285451
0.285522
0.285596
0.285668
0.285738
0.28581
0.285891
0.285986
0.286093
0.286207
0.286328
0.286457
0.286595
0.28674
0.286899
0.287063
0.287223
0.287382
0.287544
0.287712
0.287881
0.288044
0.288207
0.288378
0.288589
0.288829
0.289043
0.289213
0.289369
0.289541
0.289761
0.290009
0.290263
0.290547
0.290834
0.291121
0.291443
0.291789
0.292089
0.292395
0.292791
0.293091
0.293326
0.293569
0.293846
0.294115
0.294328
0.294511
0.294727
0.295011
0.295412
0.295808
0.296228
0.296693
0.296932
0.297077
0.297264
0.29762
0.29807
0.298549
0.29861
0.362626
0.53877
0.771203
0.960507
1.02599
1.02079
1.0236
1.02348
1.02626
1.02687
1.03265
1.05116
1.07471
1.0981
1.11101
1.115
1.11296
1.11364
1.11998
1.12549
1.13832
1.16421
1.18187
1.19341
0.285648
0.285682
0.285718
0.285752
0.285787
0.285822
0.28586
0.285901
0.285944
0.285989
0.286036
0.286086
0.28614
0.2862
0.286268
0.286339
0.286414
0.286495
0.286579
0.286661
0.286743
0.286831
0.286932
0.287043
0.287167
0.287299
0.287444
0.287599
0.287754
0.287914
0.288075
0.288227
0.288371
0.28852
0.288685
0.288857
0.289017
0.289161
0.289309
0.289494
0.28972
0.289927
0.2901
0.290257
0.29043
0.290648
0.290891
0.291142
0.291425
0.291725
0.292011
0.29233
0.29266
0.292946
0.293221
0.293601
0.293893
0.294063
0.294268
0.294501
0.294747
0.294929
0.295111
0.295311
0.295614
0.296023
0.296411
0.296837
0.297158
0.297297
0.297499
0.297841
0.298354
0.298997
0.299435
0.299437
0.299501
0.299709
0.355952
0.571455
0.844757
0.992233
1.03378
1.02898
1.02694
1.02482
1.03038
1.05058
1.07631
1.10156
1.11389
1.11639
1.11429
1.11549
1.12259
1.1289
1.14269
1.16324
1.18105
1.19314
0.286603
0.286633
0.286665
0.286698
0.286734
0.286774
0.286816
0.286864
0.286913
0.286965
0.287016
0.28707
0.28713
0.287195
0.287267
0.287344
0.287425
0.287513
0.287604
0.287697
0.287787
0.28788
0.28798
0.288088
0.288207
0.288339
0.288483
0.288641
0.288798
0.288958
0.289113
0.289249
0.289373
0.289504
0.289658
0.289828
0.289989
0.290128
0.290265
0.290432
0.290638
0.290837
0.291018
0.291185
0.291367
0.291584
0.291818
0.292049
0.292323
0.29262
0.292912
0.29322
0.293523
0.293799
0.294027
0.294364
0.294653
0.294771
0.294943
0.295162
0.295379
0.295572
0.295754
0.295986
0.296332
0.296711
0.297176
0.297474
0.297675
0.2979
0.298139
0.298646
0.299377
0.299768
0.299983
0.300201
0.300473
0.301132
0.301612
0.301662
0.400656
0.69087
0.965408
1.01345
1.02524
1.02177
1.02706
1.04843
1.07731
1.10262
1.11564
1.11781
1.1179
1.12032
1.12763
1.13415
1.1455
1.16189
1.17989
1.19262
0.287614
0.287651
0.28769
0.287729
0.287767
0.287808
0.287854
0.287906
0.287963
0.288022
0.288082
0.288143
0.288209
0.288278
0.288355
0.28844
0.288529
0.288621
0.288712
0.288803
0.288894
0.288983
0.289075
0.289172
0.289281
0.289403
0.289537
0.289682
0.289831
0.289985
0.290131
0.29025
0.29035
0.290456
0.290586
0.290747
0.290911
0.291056
0.291195
0.291354
0.291538
0.291731
0.29192
0.292107
0.292302
0.292521
0.292736
0.292942
0.293191
0.293491
0.293789
0.294081
0.29434
0.294584
0.294799
0.295039
0.29534
0.295463
0.29561
0.295815
0.296042
0.296287
0.29652
0.296824
0.297179
0.297565
0.298001
0.298231
0.298362
0.29858
0.299
0.299687
0.300493
0.300597
0.300633
0.300944
0.301402
0.302131
0.302828
0.302871
0.303003
0.330198
0.556803
0.850679
1.00063
1.01883
1.01922
1.0448
1.07872
1.10284
1.11652
1.12049
1.12447
1.12867
1.13404
1.13957
1.14744
1.16132
1.17819
1.19248
0.288751
0.288798
0.288846
0.288892
0.288935
0.288978
0.289024
0.289077
0.289136
0.289199
0.289266
0.289335
0.289411
0.28949
0.289572
0.289658
0.289744
0.289831
0.289915
0.290002
0.29009
0.290177
0.29026
0.290341
0.290428
0.290523
0.29063
0.290752
0.290881
0.291013
0.291144
0.291252
0.291343
0.291437
0.291548
0.291689
0.29185
0.292002
0.292149
0.292301
0.292467
0.292647
0.29284
0.29304
0.293248
0.293458
0.293654
0.293836
0.294057
0.294349
0.294643
0.294915
0.295139
0.29535
0.295581
0.295759
0.296007
0.296212
0.296379
0.296606
0.296893
0.297204
0.29754
0.297901
0.29829
0.298646
0.298903
0.299196
0.299347
0.299569
0.300159
0.300847
0.301413
0.301498
0.301504
0.301891
0.302598
0.303025
0.303863
0.304287
0.304709
0.305432
0.306075
0.440534
0.775433
0.97862
1.01415
1.04859
1.0858
1.1031
1.11812
1.12567
1.13363
1.13871
1.13903
1.14377
1.14948
1.1622
1.17793
1.19645
0.289927
0.289973
0.290022
0.290072
0.290119
0.290164
0.290205
0.290248
0.290296
0.29035
0.290413
0.290484
0.290561
0.290638
0.29072
0.290804
0.290888
0.29097
0.291045
0.291122
0.291199
0.29128
0.291359
0.291426
0.291491
0.291557
0.291629
0.291719
0.291827
0.291947
0.292072
0.292189
0.292297
0.292404
0.292506
0.292619
0.29276
0.292914
0.293063
0.293214
0.293366
0.293536
0.293733
0.293945
0.294162
0.294366
0.294552
0.294737
0.294941
0.295212
0.295504
0.295757
0.295973
0.296159
0.296404
0.296617
0.296829
0.297141
0.2974
0.297681
0.298001
0.298395
0.29882
0.299224
0.299563
0.299826
0.299941
0.300112
0.300407
0.300797
0.301513
0.301988
0.302115
0.302344
0.302701
0.303291
0.304415
0.304651
0.304999
0.30618
0.307177
0.308703
0.310344
0.3109
0.367761
0.670695
0.939206
1.05284
1.09459
1.10375
1.12185
1.13461
1.14474
1.14526
1.14251
1.14482
1.15085
1.16502
1.1822
1.20399
0.291142
0.291186
0.291229
0.291273
0.291317
0.291353
0.291382
0.291408
0.291437
0.291473
0.291517
0.29157
0.291631
0.291699
0.291773
0.291851
0.291933
0.292018
0.292096
0.292174
0.292253
0.292332
0.292411
0.292477
0.292537
0.292597
0.292662
0.292743
0.292845
0.292969
0.293106
0.293243
0.293383
0.293511
0.293611
0.293698
0.293814
0.293962
0.294114
0.294262
0.29442
0.294601
0.29481
0.295029
0.295244
0.295456
0.295652
0.295863
0.29608
0.296317
0.296572
0.296815
0.297044
0.29724
0.297455
0.297753
0.298006
0.298307
0.298642
0.298985
0.29937
0.299762
0.300193
0.30057
0.300833
0.300989
0.301033
0.301177
0.301606
0.302335
0.302967
0.303183
0.303193
0.303618
0.304686
0.305217
0.306365
0.307628
0.307926
0.309083
0.310939
0.312868
0.315265
0.317521
0.318263
0.336064
0.544155
0.888542
1.07814
1.10907
1.13176
1.14567
1.15224
1.14705
1.14261
1.14449
1.15188
1.17107
1.18905
1.214
0.292187
0.292226
0.292266
0.292304
0.292344
0.292379
0.292404
0.292422
0.292436
0.292452
0.292474
0.292504
0.292548
0.292606
0.292679
0.292762
0.292855
0.29296
0.293063
0.293169
0.293282
0.293395
0.2935
0.293595
0.293685
0.293776
0.29387
0.293961
0.294056
0.294179
0.294322
0.294456
0.294623
0.294805
0.294927
0.295022
0.295135
0.295279
0.295445
0.295604
0.295781
0.295978
0.296189
0.296399
0.296602
0.296817
0.297007
0.297187
0.297412
0.297622
0.297839
0.298086
0.298327
0.298538
0.298729
0.299002
0.299308
0.299596
0.299995
0.300435
0.300874
0.301262
0.301552
0.301819
0.302027
0.302128
0.302334
0.302671
0.303349
0.304322
0.304486
0.304701
0.305253
0.306193
0.307891
0.308796
0.309261
0.311019
0.312906
0.314521
0.316499
0.31806
0.319979
0.322749
0.325368
0.327138
0.328813
0.443505
0.820708
1.076
1.14506
1.15733
1.15605
1.14526
1.14033
1.14317
1.15492
1.17868
1.19891
1.22729
0.293518
0.293562
0.293617
0.293669
0.293716
0.293757
0.293795
0.293832
0.293864
0.293888
0.29391
0.293933
0.293966
0.294015
0.294086
0.294173
0.294272
0.294389
0.294513
0.294649
0.29481
0.294969
0.295103
0.295219
0.295325
0.295424
0.295521
0.295611
0.295689
0.295791
0.295929
0.296052
0.296206
0.296443
0.296606
0.296725
0.296857
0.296993
0.297126
0.297283
0.297456
0.297631
0.297808
0.298005
0.298203
0.298406
0.298556
0.298653
0.298857
0.299092
0.299269
0.299476
0.299715
0.299942
0.300176
0.300454
0.300872
0.301251
0.301655
0.30207
0.302489
0.30298
0.303085
0.303182
0.303387
0.303762
0.304412
0.305257
0.305893
0.306739
0.307152
0.307817
0.309238
0.310453
0.311788
0.313808
0.315039
0.316239
0.318557
0.320649
0.32313
0.325345
0.327237
0.329939
0.33316
0.335653
0.339473
0.340915
0.404117
0.769216
1.09846
1.15883
1.15655
1.14489
1.13799
1.14459
1.16083
1.18737
1.21317
1.24335
0.295084
0.295131
0.295187
0.295257
0.295323
0.295378
0.29543
0.295491
0.295552
0.295608
0.295651
0.295681
0.295711
0.295754
0.295813
0.295874
0.295937
0.296024
0.296139
0.296275
0.296439
0.296601
0.296733
0.296839
0.296935
0.297026
0.297124
0.297237
0.297334
0.297421
0.29754
0.297659
0.297782
0.298004
0.298224
0.298357
0.298493
0.298619
0.298708
0.298867
0.299072
0.299211
0.299325
0.299498
0.299731
0.299916
0.300037
0.300129
0.300312
0.300605
0.300846
0.301098
0.301409
0.301735
0.302074
0.302476
0.302924
0.303456
0.303856
0.304154
0.304451
0.304899
0.305223
0.305444
0.306053
0.307068
0.308125
0.309497
0.310015
0.310501
0.311765
0.313365
0.315218
0.316835
0.317705
0.319556
0.322161
0.323859
0.326095
0.328117
0.330531
0.333426
0.335789
0.338089
0.340863
0.343991
0.346848
0.349878
0.351741
0.392743
0.754591
1.08063
1.15774
1.14883
1.14299
1.15163
1.1723
1.20032
1.23273
1.26009
0.29709
0.297138
0.297198
0.297279
0.297341
0.297386
0.297436
0.297473
0.297501
0.297557
0.297622
0.297645
0.297682
0.297768
0.297845
0.297878
0.297917
0.297976
0.29807
0.298188
0.298328
0.298471
0.298593
0.298701
0.298804
0.298913
0.299042
0.299163
0.299266
0.299339
0.299395
0.299454
0.299547
0.29972
0.299947
0.300159
0.300378
0.300551
0.300659
0.300867
0.301192
0.301253
0.301246
0.301338
0.301584
0.30181
0.301988
0.302207
0.302493
0.30287
0.303306
0.303738
0.304167
0.30458
0.304998
0.305455
0.305812
0.306372
0.306934
0.307137
0.307421
0.308033
0.309181
0.3105
0.311648
0.312986
0.313907
0.314803
0.316104
0.317269
0.318902
0.320792
0.322332
0.324685
0.326661
0.328218
0.330411
0.332914
0.335015
0.337461
0.339419
0.341812
0.344896
0.347368
0.349953
0.353226
0.355896
0.358589
0.362382
0.36414
0.394344
0.725511
1.09954
1.15854
1.15642
1.15893
1.18744
1.21886
1.25513
1.27683
0.29877
0.298803
0.298856
0.298918
0.298978
0.299057
0.299163
0.299251
0.299296
0.299331
0.299389
0.299478
0.299589
0.299723
0.299834
0.299883
0.299932
0.299992
0.300073
0.300171
0.300285
0.300413
0.300574
0.300745
0.300895
0.301071
0.301247
0.30133
0.301426
0.301556
0.301553
0.301553
0.301657
0.301864
0.302095
0.302396
0.302782
0.303049
0.303192
0.303399
0.303688
0.303834
0.303944
0.304118
0.304445
0.304879
0.305319
0.305745
0.306214
0.306723
0.307257
0.307796
0.30837
0.308934
0.309471
0.310053
0.310526
0.311039
0.311939
0.312973
0.314114
0.315338
0.316709
0.318339
0.319465
0.320638
0.321728
0.322699
0.324384
0.326524
0.328523
0.330542
0.33209
0.333752
0.336271
0.338427
0.340307
0.342697
0.344768
0.34733
0.349706
0.351956
0.354666
0.357682
0.360414
0.363172
0.366004
0.369172
0.371897
0.375576
0.37704
0.396887
0.707379
1.08293
1.15955
1.16853
1.21006
1.23812
1.2747
1.29281
0.302096
0.302151
0.302227
0.302322
0.302422
0.302529
0.302674
0.30279
0.302843
0.302885
0.302971
0.303068
0.303167
0.303299
0.303384
0.303461
0.303571
0.303658
0.303737
0.303818
0.303924
0.30406
0.304223
0.304391
0.304539
0.304682
0.304784
0.304884
0.305027
0.305232
0.305438
0.305619
0.305801
0.305979
0.306166
0.306401
0.30667
0.30696
0.307284
0.30768
0.308103
0.308532
0.309008
0.309544
0.310108
0.310698
0.31131
0.311948
0.312573
0.313197
0.313825
0.314532
0.31528
0.316119
0.316979
0.317871
0.318931
0.319995
0.321104
0.322461
0.323938
0.3254
0.326469
0.32763
0.32895
0.330135
0.331852
0.333813
0.335649
0.337787
0.339414
0.341126
0.34337
0.345166
0.347286
0.349503
0.351651
0.353727
0.356051
0.358358
0.360879
0.363265
0.365578
0.368344
0.371294
0.373673
0.376066
0.378886
0.381614
0.384492
0.387376
0.389214
0.403371
0.68471
1.06615
1.15627
1.24465
1.26253
1.29703
1.30674
0.307107
0.307152
0.307199
0.30722
0.307259
0.307322
0.307389
0.30746
0.30754
0.307628
0.307711
0.307786
0.307864
0.307952
0.308051
0.308168
0.308331
0.308513
0.308682
0.30883
0.309005
0.309185
0.309397
0.309594
0.309725
0.309858
0.310033
0.310302
0.310717
0.311226
0.31179
0.31228
0.312688
0.313056
0.313425
0.3138
0.314194
0.314694
0.315326
0.316063
0.316838
0.317554
0.318191
0.318853
0.319506
0.320177
0.320918
0.321699
0.322497
0.323284
0.324085
0.324999
0.32596
0.326933
0.328014
0.329112
0.330345
0.331677
0.332868
0.334143
0.335366
0.336786
0.338136
0.339414
0.341132
0.342918
0.344679
0.346629
0.348194
0.349896
0.35168
0.353436
0.355522
0.357759
0.359646
0.361625
0.363777
0.365772
0.368151
0.370224
0.372296
0.375094
0.377641
0.380055
0.3825
0.384635
0.387354
0.39002
0.393024
0.395809
0.398194
0.401836
0.402874
0.413865
0.649476
1.02281
1.21127
1.28658
1.33024
1.32993
0.314967
0.315122
0.315299
0.31549
0.315697
0.315915
0.316143
0.316382
0.31663
0.316889
0.317152
0.317423
0.317698
0.317965
0.318237
0.318508
0.318765
0.319055
0.31935
0.319619
0.319934
0.32033
0.32071
0.321059
0.321473
0.321942
0.322429
0.32289
0.323324
0.323745
0.324188
0.324621
0.325075
0.325601
0.326193
0.326812
0.327427
0.328017
0.32857
0.329119
0.329683
0.330319
0.330978
0.33164
0.33238
0.333133
0.333909
0.334711
0.335541
0.336445
0.337431
0.338449
0.339582
0.340731
0.341901
0.343151
0.344309
0.34559
0.346899
0.348223
0.349602
0.350957
0.352615
0.354203
0.355688
0.357345
0.35882
0.360489
0.362188
0.363712
0.365617
0.367675
0.369376
0.37132
0.373032
0.375019
0.377022
0.379257
0.381314
0.383241
0.38561
0.387747
0.390246
0.392435
0.394469
0.397077
0.399701
0.402137
0.404717
0.407067
0.410034
0.4125
0.415038
0.417634
0.420906
0.581567
0.934015
1.21866
1.33604
1.35314
0.330958
0.331068
0.331195
0.331329
0.331469
0.331614
0.331765
0.33192
0.332081
0.33224
0.332406
0.332583
0.332761
0.33295
0.333156
0.333372
0.333591
0.333807
0.334021
0.334245
0.334478
0.334718
0.334992
0.335307
0.335695
0.336154
0.336599
0.33697
0.337299
0.337626
0.337958
0.338359
0.338893
0.339517
0.340161
0.340808
0.34143
0.342046
0.342679
0.343393
0.344148
0.344902
0.345741
0.346644
0.347585
0.348548
0.349469
0.350417
0.351444
0.352526
0.353674