/*--------------------------------*- C++ -*----------------------------------*\
  =========                 |
  \\      /  F ield         | OpenFOAM: The Open Source CFD Toolbox
   \\    /   O peration     | Website:  https://openfoam.org
    \\  /    A nd           | Version:  7
     \\/     M anipulation  |
\*---------------------------------------------------------------------------*/
FoamFile
{
    version     2.0;
    format      ascii;
    class       volScalarField;
    location    "0.45";
    object      p;
}
// * * * * * * * * * * * * * * * * * * * * * * * * * * * * * * * * * * * * * //

dimensions      [1 -1 -2 0 0 0 0];

internalField   nonuniform List<scalar> 
324000
(
0.266558
0.40993
0.60187
0.807379
0.955805
0.917436
0.852595
0.841239
0.82718
0.82904
0.839926
0.85192
0.84758
0.843107
0.843117
0.84098
0.83508
0.832735
0.832191
0.832505
0.835965
0.84083
0.842791
0.842082
0.840721
0.839934
0.840116
0.84446
0.851089
0.851954
0.848779
0.837338
0.824514
0.814615
0.80885
0.804466
0.800963
0.799454
0.799644
0.800786
0.805352
0.811116
0.815439
0.817758
0.824506
0.835956
0.848612
0.861235
0.862961
0.856802
0.84684
0.845285
0.893461
0.937803
0.954547
0.957842
0.956966
0.959555
0.963206
0.969413
0.978989
0.98992
0.997647
1.00001
1.00014
1.00007
1.00002
1
1
1
1
1
1
1
1
1
1
1
1
1
0.131508
0.131471
0.170346
0.361355
0.639778
0.819566
0.894228
0.875699
0.843238
0.840068
0.840597
0.837132
0.833301
0.836324
0.845459
0.844655
0.837153
0.83443
0.83534
0.83648
0.839351
0.842535
0.843437
0.843171
0.842554
0.84301
0.84461
0.848978
0.853789
0.855278
0.850546
0.837463
0.824487
0.81435
0.809092
0.805119
0.801421
0.799793
0.800492
0.802772
0.807104
0.812556
0.815786
0.815898
0.821002
0.83058
0.847572
0.861866
0.8618
0.850501
0.843975
0.846289
0.892685
0.934772
0.953702
0.956488
0.955509
0.958064
0.961651
0.968066
0.977963
0.98924
0.997341
0.999934
1.00011
1.00007
1.00002
1
1
1
1
1
1
1
1
1
1
1
1
1
0.131716
0.131636
0.13157
0.131429
0.175633
0.353612
0.609109
0.796428
0.869467
0.872176
0.846825
0.827105
0.829379
0.84167
0.853079
0.849705
0.844144
0.845319
0.843312
0.841068
0.841633
0.843897
0.846083
0.846834
0.846225
0.846047
0.847732
0.852367
0.853227
0.852072
0.845236
0.831593
0.817587
0.808958
0.804648
0.801836
0.799993
0.800116
0.802483
0.806038
0.809233
0.812366
0.811596
0.810349
0.816483
0.829166
0.847018
0.86171
0.861203
0.849375
0.841092
0.850291
0.891254
0.930438
0.952286
0.954935
0.953942
0.956366
0.959958
0.966685
0.976939
0.988571
0.997046
0.999864
1.00009
1.00006
1.00002
1
1
1
1
1
1
1
1
1
1
1
1
1
0.131599
0.131577
0.131598
0.131627
0.131645
0.131629
0.169434
0.334327
0.584764
0.804022
0.840439
0.841674
0.835169
0.83675
0.842989
0.844047
0.84741
0.852456
0.848433
0.843564
0.842419
0.845584
0.849844
0.850202
0.849521
0.848853
0.849459
0.850413
0.848655
0.847413
0.840684
0.828878
0.816593
0.809869
0.80753
0.806754
0.806213
0.805274
0.804693
0.8041
0.803149
0.804909
0.806746
0.807399
0.811917
0.825871
0.847
0.859444
0.851273
0.847931
0.842306
0.854954
0.89096
0.927672
0.950825
0.953189
0.952205
0.954485
0.958192
0.965287
0.975907
0.987908
0.996764
0.999799
1.00008
1.00005
1.00002
1
1
1
1
1
1
1
1
1
1
1
1
1
0.13161
0.131637
0.131659
0.131679
0.131675
0.131645
0.131713
0.131581
0.170203
0.331372
0.595343
0.79306
0.82363
0.844408
0.842697
0.839373
0.841516
0.844226
0.841329
0.839082
0.840147
0.845024
0.847841
0.847814
0.847442
0.847005
0.846533
0.845455
0.845048
0.844685
0.838705
0.828358
0.819503
0.814787
0.81297
0.810486
0.806844
0.800934
0.796272
0.794716
0.793662
0.796346
0.800249
0.80465
0.812076
0.826583
0.841567
0.847055
0.854541
0.850036
0.845985
0.858601
0.889633
0.924568
0.948935
0.950962
0.950186
0.95248
0.956424
0.963895
0.974867
0.987255
0.996498
0.99974
1.00006
1.00005
1.00002
1
1
1
1
1
1
1
1
1
1
1
1
1
0.131651
0.131653
0.13167
0.131666
0.131632
0.131663
0.131586
0.131577
0.131629
0.131624
0.187822
0.363859
0.587567
0.761751
0.797953
0.831902
0.835904
0.839118
0.836834
0.836359
0.840611
0.845258
0.845281
0.843119
0.841756
0.841453
0.841905
0.84305
0.845088
0.844895
0.83976
0.831057
0.822988
0.816624
0.811131
0.804866
0.798894
0.792514
0.789944
0.790774
0.792884
0.796914
0.797287
0.801836
0.810237
0.825182
0.846702
0.850511
0.852755
0.848234
0.844159
0.853599
0.881985
0.92436
0.947679
0.94815
0.947802
0.950347
0.954651
0.962509
0.973825
0.986617
0.996251
0.999686
1.00005
1.00004
1.00001
1
1
1
1
1
1
1
1
1
1
1
1
1
0.131677
0.131673
0.131659
0.13163
0.131636
0.131606
0.131585
0.131618
0.131612
0.131641
0.131662
0.131657
0.198318
0.382373
0.603953
0.779865
0.808382
0.834272
0.832305
0.834541
0.842779
0.842842
0.840269
0.837008
0.83578
0.836018
0.837396
0.840227
0.844364
0.845225
0.838801
0.82966
0.820472
0.812858
0.805394
0.799905
0.797681
0.794171
0.793507
0.794133
0.795143
0.79559
0.802707
0.812877
0.823558
0.834087
0.84422
0.846553
0.85147
0.854619
0.854762
0.862399
0.887378
0.924799
0.94473
0.944776
0.945311
0.948109
0.952843
0.961111
0.972785
0.986004
0.996025
0.999639
1.00004
1.00003
1.00001
1
1
1
1
1
1
1
1
1
1
1
1
1
0.131651
0.131643
0.13162
0.131613
0.131609
0.131597
0.131612
0.131621
0.131635
0.131658
0.131659
0.131641
0.131636
0.133297
0.207859
0.400415
0.617147
0.786975
0.809675
0.836763
0.849278
0.844405
0.838853
0.834553
0.833024
0.834094
0.838208
0.845186
0.850765
0.848867
0.839177
0.82559
0.815224
0.809111
0.802994
0.801138
0.800603
0.796731
0.794991
0.794803
0.799309
0.804786
0.81131
0.81888
0.826349
0.836025
0.840878
0.838756
0.84794
0.855215
0.85849
0.864494
0.883465
0.913814
0.936731
0.941688
0.942648
0.945629
0.950938
0.959677
0.971749
0.985422
0.995825
0.999599
1.00003
1.00003
1.00001
1
1
1
1
1
1
1
1
1
1
1
1
1
0.131646
0.131624
0.131598
0.13159
0.131599
0.13162
0.131642
0.131654
0.131654
0.131645
0.131642
0.131643
0.13165
0.131667
0.131687
0.134849
0.221606
0.432397
0.650334
0.814388
0.830833
0.838847
0.837653
0.834361
0.837145
0.839539
0.84517
0.85447
0.85575
0.849588
0.836474
0.820713
0.8122
0.807478
0.804545
0.804383
0.803263
0.799104
0.797797
0.799529
0.802532
0.805486
0.813901
0.821462
0.825939
0.832709
0.834664
0.837034
0.847351
0.856135
0.861862
0.871863
0.893257
0.918986
0.93625
0.938536
0.939747
0.943106
0.948995
0.958197
0.970712
0.984877
0.995653
0.999567
1.00002
1.00002
1.00001
1
1
1
1
1
1
1
1
1
1
1
1
1
0.131565
0.131588
0.131595
0.131608
0.13164
0.13166
0.131667
0.131653
0.131631
0.131635
0.13165
0.13166
0.131677
0.1317
0.131727
0.131775
0.131819
0.139228
0.246132
0.495815
0.684965
0.815614
0.825815
0.835891
0.848837
0.849129
0.855021
0.860774
0.857958
0.849114
0.832776
0.819455
0.812962
0.808352
0.805404
0.806903
0.804203
0.800467
0.799439
0.802839
0.804202
0.804834
0.811496
0.816257
0.823396
0.833345
0.835981
0.840645
0.849785
0.856799
0.86364
0.873996
0.893482
0.918756
0.932639
0.934791
0.936958
0.94066
0.947027
0.956665
0.969666
0.984359
0.995511
0.999543
1.00001
1.00002
1.00001
1
1
1
1
1
1
1
1
1
1
1
1
1
0.131604
0.131631
0.131656
0.131672
0.131668
0.131646
0.131627
0.131622
0.131633
0.131653
0.131671
0.13169
0.131702
0.131715
0.131739
0.131782
0.131847
0.131932
0.132003
0.150745
0.299618
0.566365
0.775295
0.828748
0.856396
0.853232
0.85916
0.862678
0.857187
0.844171
0.830174
0.821594
0.815559
0.809339
0.807207
0.806901
0.802589
0.798101
0.800038
0.804703
0.803959
0.807274
0.811054
0.811799
0.820519
0.829842
0.833516
0.839456
0.848671
0.856475
0.86471
0.876765
0.895727
0.916993
0.928354
0.931481
0.934178
0.938305
0.94509
0.955118
0.968636
0.983914
0.995382
0.999521
1.00001
1.00001
1.00001
1
1
1
1
1
1
1
1
1
1
1
1
1
0.131662
0.131661
0.131655
0.131635
0.131621
0.131624
0.131638
0.131654
0.131671
0.131691
0.131705
0.1317
0.131684
0.131684
0.131694
0.131728
0.13181
0.131919
0.132049
0.132148
0.132183
0.176301
0.380579
0.635703
0.8224
0.837648
0.858378
0.85082
0.842219
0.838033
0.831841
0.82509
0.817664
0.808047
0.806119
0.803932
0.798613
0.797741
0.803092
0.804654
0.799458
0.800823
0.803655
0.806067
0.81414
0.823141
0.828616
0.836192
0.845988
0.855391
0.865334
0.87885
0.896796
0.914929
0.924227
0.927888
0.931233
0.935979
0.943193
0.953578
0.967597
0.983483
0.995318
0.999518
1
1.00001
1.00001
1
1
1
1
1
1
1
1
1
1
1
1
1
0.13165
0.131631
0.131621
0.131623
0.131633
0.131647
0.131666
0.131687
0.131706
0.131709
0.131695
0.131673
0.131648
0.131631
0.131629
0.131652
0.131717
0.131813
0.131956
0.132046
0.132087
0.132102
0.134113
0.228738
0.470775
0.69191
0.829009
0.81862
0.83651
0.840164
0.834076
0.824917
0.814734
0.809288
0.806904
0.79944
0.792589
0.795836
0.804052
0.801549
0.797408
0.797888
0.797758
0.802895
0.812765
0.82085
0.825423
0.832813
0.843325
0.854154
0.86523
0.879075
0.896398
0.912103
0.920023
0.924321
0.928249
0.933562
0.941172
0.952017
0.966679
0.983026
0.995219
0.99951
1
1.00001
1.00001
1
1
1
1
1
1
1
1
1
1
1
1
1
0.131621
0.131625
0.131636
0.131644
0.131655
0.131672
0.131695
0.131713
0.131711
0.131693
0.131666
0.131639
0.131617
0.131615
0.131614
0.131617
0.13165
0.131665
0.131664
0.131638
0.131535
0.131592
0.131519
0.131026
0.146928
0.303219
0.623884
0.761991
0.851609
0.843312
0.834342
0.823835
0.81461
0.809886
0.805757
0.79565
0.792267
0.795643
0.797292
0.790351
0.79047
0.79604
0.797573
0.805223
0.816662
0.8215
0.823705
0.830799
0.841513
0.852994
0.864723
0.878182
0.894471
0.908161
0.915732
0.920369
0.924855
0.930847
0.939045
0.950386
0.965677
0.982814
0.995321
0.999535
0.999999
1.00001
1
1
1
1
1
1
1
1
1
1
1
1
1
1
0.131635
0.131644
0.131655
0.131672
0.131691
0.131705
0.131712
0.13171
0.131695
0.131666
0.131633
0.131624
0.131625
0.13163
0.131631
0.131631
0.131636
0.131571
0.13141
0.131233
0.130931
0.130754
0.130609
0.129982
0.12918
0.126895
0.191679
0.456161
0.78124
0.824365
0.831925
0.821654
0.811862
0.807721
0.800184
0.792242
0.794726
0.800846
0.791965
0.780644
0.785494
0.795062
0.802245
0.812539
0.821342
0.820945
0.821922
0.829728
0.840211
0.851127
0.863253
0.876837
0.891759
0.903753
0.91134
0.916528
0.921498
0.927825
0.936588
0.948771
0.964696
0.982433
0.995348
0.999555
0.999997
1.00001
1
1
1
1
1
1
1
1
1
1
1
1
1
1
0.131653
0.131672
0.131693
0.131709
0.131713
0.131709
0.1317
0.131684
0.131667
0.131653
0.131643
0.131655
0.131678
0.131705
0.13171
0.131686
0.131634
0.131528
0.131292
0.131003
0.13065
0.130191
0.129765
0.129018
0.127624
0.125442
0.123401
0.143224
0.337414
0.625096
0.783785
0.809872
0.814512
0.811494
0.796111
0.791466
0.792146
0.794486
0.782489
0.777723
0.791289
0.800205
0.806971
0.817118
0.820684
0.81689
0.819051
0.828513
0.838608
0.848408
0.860303
0.874307
0.888096
0.899018
0.90698
0.913042
0.918716
0.925347
0.934284
0.946946
0.963879
0.982591
0.995501
0.999583
0.999997
1
1
1
1
1
1
1
1
1
1
1
1
1
1
1
0.1317
0.131711
0.131716
0.131709
0.1317
0.131692
0.131683
0.131669
0.131671
0.13168
0.131701
0.131766
0.131856
0.13189
0.131892
0.131849
0.131737
0.131581
0.131295
0.130904
0.130527
0.129974
0.129246
0.128024
0.125744
0.123843
0.123096
0.123228
0.123676
0.240859
0.518243
0.747249
0.782336
0.799567
0.799896
0.801117
0.804128
0.789535
0.776855
0.785877
0.800271
0.803875
0.809569
0.816503
0.813492
0.810764
0.816911
0.827128
0.836136
0.845046
0.85624
0.87015
0.883791
0.893848
0.901389
0.908095
0.915052
0.922743
0.932379
0.945407
0.962751
0.982394
0.995653
0.999619
0.999996
1
1
1
1
1
1
1
1
1
1
1
1
1
1
1
0.13171
0.131704
0.131696
0.131684
0.131674
0.131672
0.131677
0.131686
0.131707
0.131752
0.131808
0.1319
0.132014
0.132051
0.132041
0.132005
0.131896
0.131729
0.131512
0.131073
0.130613
0.129834
0.128231
0.125806
0.124026
0.123383
0.123935
0.124963
0.126611
0.128019
0.169554
0.362281
0.604732
0.749935
0.769157
0.789581
0.807836
0.789192
0.784911
0.801617
0.801947
0.79898
0.804387
0.808455
0.804261
0.805452
0.816275
0.824824
0.832153
0.841271
0.852077
0.864897
0.878601
0.889491
0.896559
0.90294
0.91039
0.918989
0.929532
0.94364
0.962638
0.982755
0.99588
0.999658
0.999996
1
1
1
1
1
1
1
1
1
1
1
1
1
1
1
0.131687
0.131677
0.13167
0.131665
0.131672
0.131689
0.131703
0.131724
0.131769
0.13183
0.131875
0.131952
0.132069
0.132112
0.132085
0.132039
0.131931
0.131748
0.131519
0.131082
0.130039
0.128099
0.125855
0.123993
0.124073
0.124431
0.124757
0.1262
0.128524
0.131535
0.136299
0.141609
0.228744
0.42318
0.621765
0.742208
0.787271
0.778236
0.79681
0.815469
0.802625
0.791394
0.795786
0.793779
0.793869
0.803608
0.816098
0.821119
0.827011
0.837481
0.849222
0.860425
0.87222
0.883395
0.892874
0.900457
0.907175
0.915607
0.926857
0.941764
0.961798
0.982968
0.996152
0.999702
0.999997
1
1
1
1
1
1
1
1
1
1
1
1
1
1
1
0.131656
0.131664
0.131678
0.131696
0.131708
0.131722
0.131745
0.131772
0.131809
0.131855
0.13189
0.131958
0.132073
0.13211
0.132075
0.131983
0.131898
0.131667
0.130992
0.129761
0.127607
0.125322
0.124201
0.123843
0.12403
0.125237
0.125356
0.126896
0.131055
0.136693
0.142613
0.148994
0.154303
0.167444
0.256289
0.424333
0.594166
0.726807
0.780545
0.79512
0.778945
0.776655
0.78665
0.781625
0.786584
0.806225
0.813737
0.814762
0.821329
0.833485
0.846419
0.857688
0.866815
0.876393
0.886155
0.895186
0.903849
0.912917
0.924314
0.940565
0.962076
0.983521
0.996467
0.999748
0.999997
1
1
1
1
1
1
1
1
1
1
1
1
1
1
1
0.131686
0.13171
0.131734
0.13176
0.131771
0.131772
0.131777
0.131761
0.131724
0.131776
0.131813
0.131775
0.13181
0.131794
0.131686
0.131351
0.13083
0.129933
0.128277
0.12624
0.124807
0.12354
0.12363
0.123966
0.123749
0.125335
0.128192
0.131671
0.136699
0.143179
0.149285
0.155183
0.161288
0.16712
0.172944
0.186002
0.254393
0.417439
0.570438
0.673412
0.728369
0.764068
0.782171
0.775282
0.794137
0.809423
0.80792
0.807209
0.817291
0.829062
0.840723
0.852601
0.86353
0.871714
0.879519
0.888287
0.898107
0.908961
0.921695
0.938643
0.961605
0.984123
0.996836
0.999795
0.999998
1
1
1
1
1
1
1
1
1
1
1
1
1
1
1
0.131755
0.131771
0.13179
0.131803
0.131778
0.131714
0.131681
0.131614
0.131448
0.131367
0.131323
0.131233
0.131098
0.130866
0.130483
0.129738
0.128424
0.12694
0.125445
0.123822
0.123329
0.123068
0.123048
0.124058
0.125047
0.126402
0.132122
0.138475
0.143477
0.148816
0.154104
0.15949
0.166008
0.172459
0.178999
0.185985
0.193477
0.205744
0.259519
0.375847
0.559674
0.709653
0.768147
0.775316
0.809708
0.81001
0.795605
0.800666
0.813614
0.822778
0.831925
0.84331
0.855893
0.866897
0.875614
0.883802
0.89311
0.904364
0.918745
0.93825
0.96225
0.984988
0.997227
0.999838
0.999999
1
1
1
1
1
1
1
1
1
1
1
1
1
1
1
0.131802
0.131796
0.131794
0.131767
0.131703
0.131604
0.131509
0.13139
0.131201
0.130984
0.130817
0.130652
0.13042
0.129942
0.129085
0.127934
0.126315
0.124597
0.123494
0.122822
0.122908
0.123212
0.123273
0.124924
0.129702
0.134349
0.138103
0.143428
0.14934
0.154697
0.16061
0.16666
0.172106
0.178581
0.185722
0.192723
0.200014
0.208756
0.217594
0.226555
0.269718
0.394379
0.562651
0.716762
0.788888
0.792631
0.777783
0.795218
0.807084
0.813398
0.821934
0.832623
0.845329
0.858261
0.869142
0.878668
0.889122
0.901172
0.915764
0.936511
0.962611
0.986041
0.997654
0.999879
0.999999
1
1
1
1
1
1
1
1
1
1
1
1
1
1
1
0.13174
0.131724
0.131698
0.131641
0.131561
0.131486
0.131352
0.131232
0.13114
0.130919
0.130631
0.130251
0.129732
0.128894
0.127443
0.125707
0.12405
0.122939
0.122869
0.122872
0.122932
0.124491
0.127573
0.130175
0.134253
0.140456
0.144999
0.149584
0.154831
0.159634
0.165507
0.17201
0.178029
0.184946
0.19223
0.199981
0.207888
0.216184
0.225254
0.234814
0.244554
0.256493
0.305032
0.438906
0.598433
0.706191
0.761316
0.810386
0.800588
0.800324
0.8129
0.827316
0.837753
0.847909
0.85936
0.871383
0.883233
0.896469
0.91361
0.936791
0.963757
0.987274
0.998077
0.999914
0.999999
1
1
1
1
1
1
1
1
1
1
1
1
1
1
1
0.131693
0.131675
0.13162
0.131551
0.131474
0.131468
0.131409
0.131296
0.131248
0.131092
0.130686
0.129859
0.128332
0.126534
0.12483
0.12369
0.123013
0.122844
0.122919
0.124165
0.126091
0.128127
0.132443
0.137547
0.140778
0.14491
0.150177
0.155098
0.160479
0.166372
0.171755
0.177844
0.185003
0.191987
0.199072
0.206745
0.215467
0.223898
0.233038
0.242937
0.253761
0.264273
0.275869
0.294532
0.358784
0.521229
0.704207
0.786592
0.780537
0.786811
0.803874
0.820398
0.832017
0.840689
0.850185
0.863294
0.877565
0.892048
0.910208
0.935875
0.965111
0.988725
0.998496
0.999943
1
1
1
1
1
1
1
1
1
1
1
1
1
1
1
1
0.131588
0.131532
0.131453
0.131458
0.131439
0.131426
0.131416
0.131299
0.130975
0.130357
0.129026
0.127156
0.125395
0.124259
0.123524
0.12335
0.123544
0.124472
0.125664
0.127399
0.131233
0.134466
0.137046
0.141558
0.146359
0.150335
0.15572
0.161195
0.166538
0.173283
0.179718
0.185873
0.193028
0.199831
0.207303
0.215243
0.223272
0.232041
0.241261
0.25106
0.261575
0.27344
0.28528
0.297879
0.311917
0.347062
0.465936
0.625016
0.725906
0.781489
0.799562
0.808047
0.818389
0.831342
0.844716
0.856802
0.870569
0.887569
0.909528
0.936734
0.967069
0.990294
0.998881
0.999964
1
1
1
1
1
1
1
1
1
1
1
1
1
1
1
1
0.131546
0.131487
0.13139
0.131272
0.131147
0.130836
0.13038
0.129623
0.128333
0.126869
0.125679
0.124643
0.124013
0.123688
0.123849
0.124552
0.125341
0.126819
0.12971
0.131542
0.134274
0.138719
0.142531
0.146223
0.151909
0.157333
0.162663
0.168645
0.17454
0.179931
0.186388
0.192727
0.198954
0.206249
0.213623
0.221663
0.230309
0.239629
0.24929
0.259479
0.270436
0.282439
0.295029
0.308902
0.321651
0.337594
0.362623
0.444229
0.611939
0.741502
0.776379
0.785087
0.796648
0.812799
0.831229
0.848892
0.864859
0.882549
0.906668
0.937367
0.969597
0.992006
0.999221
0.99998
1
1
1
1
1
1
1
1
1
1
1
1
1
1
1
1
0.131009
0.130755
0.130489
0.130024
0.129335
0.128449
0.127298
0.126171
0.125257
0.124396
0.124139
0.123907
0.123915
0.124316
0.124684
0.125747
0.127517
0.128903
0.13211
0.136201
0.139042
0.143478
0.149351
0.154551
0.159409
0.165165
0.170346
0.17561
0.181384
0.186872
0.192711
0.199755
0.206401
0.21358
0.221611
0.229622
0.238232
0.247715
0.257793
0.268668
0.279709
0.291403
0.30449
0.319419
0.334664
0.348936
0.365679
0.387931
0.455333
0.587156
0.704121
0.761073
0.784713
0.799958
0.817027
0.837095
0.857213
0.878969
0.906653
0.93936
0.972698
0.993735
0.9995
0.99999
1
1
1
1
1
1
1
1
1
1
1
1
1
1
1
1
0.130257
0.129902
0.129392
0.128593
0.127479
0.126347
0.125222
0.124258
0.123846
0.123582
0.123621
0.12414
0.124253
0.125045
0.126174
0.127359
0.130383
0.13434
0.137224
0.142337
0.147941
0.152312
0.157031
0.161989
0.166715
0.171632
0.176629
0.181791
0.187172
0.193832
0.199982
0.206455
0.214347
0.222334
0.230695
0.239788
0.249224
0.25869
0.268901
0.28008
0.291891
0.304397
0.317012
0.329573
0.345418
0.362273
0.378516
0.396017
0.421082
0.479521
0.599511
0.713533
0.767729
0.792091
0.810502
0.828199
0.847705
0.872655
0.905217
0.942188
0.976487
0.995417
0.999709
0.999995
1
1
1
1
1
1
1
1
1
1
1
1
1
1
1
1
0.129271
0.128195
0.126844
0.12563
0.124639
0.12399
0.123621
0.12341
0.123482
0.123556
0.123543
0.12426
0.125846
0.127204
0.130176
0.134138
0.137544
0.142043
0.146786
0.150379
0.155024
0.159333
0.163517
0.168155
0.172804
0.177422
0.183058
0.188781
0.194848
0.201165
0.208579
0.215801
0.223204
0.23092
0.238905
0.247816
0.257075
0.267194
0.278017
0.288724
0.301153
0.314594
0.329085
0.343844
0.358792
0.375062
0.392799
0.410476
0.429686
0.45888
0.515564
0.61639
0.708544
0.763189
0.794601
0.81767
0.841905
0.872307
0.906969
0.946546
0.980746
0.996919
0.99985
0.999998
1
1
1
1
1
1
1
1
1
1
1
1
1
1
1
1
0.125716
0.124826
0.124211
0.123856
0.123659
0.123563
0.123621
0.123661
0.123737
0.124718
0.126548
0.127986
0.131
0.13491
0.137979
0.141577
0.145502
0.148838
0.153197
0.15693
0.160766
0.165258
0.169633
0.174309
0.17976
0.185305
0.191042
0.197289
0.203884
0.210421
0.217105
0.224484
0.232203
0.24041
0.249187
0.257775
0.267413
0.277441
0.288058
0.299744
0.311556
0.324252
0.338508
0.355216
0.371832
0.389381
0.40758
0.426417
0.445683
0.469803
0.505991
0.563197
0.646472
0.718795
0.766014
0.799203
0.832425
0.869793
0.910203
0.95263
0.985276
0.998136
0.999933
0.999999
1
1
1
1
1
1
1
1
1
1
1
1
1
1
1
1
0.123766
0.123804
0.123843
0.124043
0.124508
0.124723
0.125117
0.126519
0.128329
0.129633
0.132353
0.135541
0.137759
0.141034
0.14446
0.147619
0.151329
0.15507
0.158611
0.163342
0.167512
0.172267
0.177491
0.182714
0.187987
0.193989
0.199559
0.205618
0.211825
0.218591
0.225534
0.232838
0.240284
0.248578
0.25746
0.26731
0.277237
0.288067
0.299424
0.311755
0.324722
0.338443
0.35241
0.366795
0.384226
0.403067
0.422629
0.442788
0.462883
0.483857
0.512207
0.555312
0.613611
0.677688
0.739698
0.789983
0.831989
0.871917
0.916179
0.960184
0.989702
0.999017
0.999975
1
1
1
1
1
1
1
1
1
1
1
1
1
1
1
1
1
0.124452
0.124667
0.125121
0.125548
0.126115
0.127346
0.128749
0.13014
0.13258
0.134795
0.13678
0.14059
0.143672
0.146322
0.150174
0.154211
0.158093
0.162611
0.166891
0.17152
0.176478
0.181137
0.186097
0.191404
0.196689
0.201905
0.207933
0.213858
0.220163
0.226801
0.234202
0.241977
0.250602
0.259198
0.268185
0.277844
0.288264
0.299102
0.310976
0.323223
0.336907
0.351573
0.367281
0.383271
0.399419
0.417294
0.437796
0.459659
0.481857
0.503258
0.528991
0.564412
0.61454
0.674658
0.729853
0.782336
0.829895
0.875847
0.924519
0.968688
0.993599
0.999567
0.999993
1
1
1
1
1
1
1
1
1
1
1
1
1
1
1
1
1
0.124914
0.125104
0.125852
0.1266
0.127296
0.129094
0.13181
0.13356
0.135842
0.140415
0.143614
0.146126
0.150808
0.155003
0.158596
0.162687
0.166929
0.171009
0.17552
0.17943
0.184079
0.18863
0.193375
0.198189
0.203706
0.209379
0.215308
0.221782
0.229013
0.236467
0.244089
0.252106
0.260485
0.269731
0.279565
0.289633
0.300339
0.311576
0.32342
0.336387
0.349788
0.364027
0.379546
0.397118
0.41552
0.434575
0.454413
0.476623
0.50033
0.524694
0.54839
0.578704
0.621114
0.674911
0.73274
0.786275
0.83491
0.884704
0.935969
0.977734
0.996631
0.99985
0.999998
1
1
1
1
1
1
1
1
1
1
1
1
1
1
1
1
1
0.126488
0.128011
0.129454
0.131951
0.135383
0.137608
0.140082
0.144124
0.14731
0.149958
0.15391
0.1572
0.160093
0.163912
0.167443
0.170986
0.174701
0.178577
0.182655
0.187073
0.191379
0.196395
0.201495
0.207271
0.212933
0.219208
0.225755
0.232705
0.239598
0.247104
0.255069
0.263507
0.2721
0.281142
0.290663
0.301053
0.311866
0.323791
0.33639
0.34968
0.363819
0.378997
0.395103
0.41189
0.430565
0.45045
0.471464
0.493803
0.51887
0.545728
0.572478
0.598686
0.631202
0.677772
0.733222
0.788569
0.842318
0.897091
0.94986
0.986318
0.998597
0.999962
1
1
1
1
1
1
1
1
1
1
1
1
1
1
1
1
1
1
0.132701
0.135025
0.137284
0.139283
0.142182
0.145267
0.147376
0.150249
0.153756
0.156187
0.159151
0.16307
0.165945
0.169067
0.173157
0.176994
0.181028
0.185423
0.189953
0.195052
0.200003
0.205354
0.211134
0.216679
0.223002
0.229218
0.235688
0.242475
0.249768
0.257175
0.264996
0.273272
0.282389
0.292001
0.302206
0.312853
0.324504
0.336391
0.34939
0.363345
0.3784
0.394142
0.410716
0.42853
0.44729
0.467907
0.489985
0.513209
0.537802
0.564821
0.593992
0.624873
0.658168
0.696942
0.74286
0.794978
0.852924
0.913129
0.965137
0.993217
0.999579
0.999994
1
1
1
1
1
1
1
1
1
1
1
1
1
1
1
1
1
1
0.138637
0.140847
0.143847
0.146332
0.148246
0.151559
0.155352
0.157685
0.160774
0.164832
0.167765
0.17117
0.175543
0.179313
0.183048
0.187313
0.19173
0.196171
0.200787
0.205336
0.210614
0.215544
0.220927
0.226722
0.232216
0.238576
0.245316
0.252223
0.259666
0.267831
0.276291
0.285213
0.294547
0.304619
0.315287
0.326589
0.338385
0.35132
0.36469
0.378834
0.393769
0.410066
0.427742
0.446299
0.465857
0.486556
0.509142
0.533882
0.560509
0.587943
0.615433
0.644453
0.678394
0.719191
0.766418
0.819221
0.877208
0.935996
0.980233
0.997556
0.999919
0.999999
1
1
1
1
1
1
1
1
1
1
1
1
1
1
1
1
1
1
0.147603
0.150005
0.152698
0.156017
0.158784
0.161089
0.164386
0.167663
0.170412
0.173797
0.177392
0.180316
0.183873
0.187937
0.19156
0.195459
0.199636
0.204058
0.208635
0.213443
0.218383
0.224155
0.229615
0.235706
0.24247
0.249025
0.255971
0.263817
0.271774
0.279872
0.288645
0.2981
0.307942
0.318028
0.328938
0.340607
0.352925
0.365622
0.379574
0.394701
0.410673
0.427083
0.444512
0.463698
0.484545
0.506697
0.52968
0.554014
0.580951
0.61096
0.642749
0.674879
0.70795
0.744485
0.788298
0.842328
0.903682
0.95971
0.991672
0.999446
0.999991
1
1
1
1
1
1
1
1
1
1
1
1
1
1
1
1
1
1
1
0.155638
0.158267
0.16036
0.16289
0.166258
0.168945
0.171171
0.174587
0.177716
0.180548
0.184255
0.188118
0.191353
0.195108
0.199651
0.203968
0.208417
0.213159
0.218202
0.223617
0.229156
0.234777
0.241156
0.247481
0.254051
0.261223
0.268674
0.276046
0.284129
0.292789
0.301675
0.310778
0.320856
0.331827
0.343041
0.354722
0.367439
0.381403
0.395766
0.410755
0.42701
0.444754
0.463597
0.48314
0.503851
0.526539
0.551327
0.577638
0.605214
0.634369
0.666025
0.700991
0.739059
0.78039
0.827027
0.881118
0.93824
0.981442
0.997843
0.999935
1
1
1
1
1
1
1
1
1
1
1
1
1
1
1
1
1
1
1
1
0.164167
0.166909
0.169844
0.172107
0.174708
0.178211
0.181316
0.184167
0.18785
0.191213
0.19451
0.198542
0.202708
0.206635
0.210726
0.215379
0.220102
0.224855
0.229969
0.235197
0.240838
0.246667
0.25249
0.258908
0.265522
0.272332
0.279669
0.287787
0.296082
0.304637
0.314107
0.324483
0.334945
0.345738
0.357676
0.3706
0.38382
0.397589
0.412632
0.428822
0.445791
0.463519
0.482639
0.503375
0.525322
0.548452
0.573253
0.600281
0.62959
0.660826
0.693783
0.729017
0.767755
0.81192
0.863338
0.919925
0.969408
0.994674
0.999726
0.999997
1
1
1
1
1
1
1
1
1
1
1
1
1
1
1
1
1
1
1
1
0.173069
0.175353
0.178184
0.181358
0.183828
0.1864
0.189938
0.193075
0.196214
0.20007
0.203542
0.206959
0.211072
0.215434
0.219759
0.223988
0.22872
0.233883
0.238964
0.244565
0.250391
0.256548
0.263173
0.270001
0.277187
0.28483
0.292979
0.301262
0.310089
0.319611
0.329444
0.33958
0.350547
0.362357
0.374475
0.387209
0.400945
0.415682
0.431175
0.4476
0.465259
0.483971
0.503703
0.524782
0.547672
0.572441
0.598762
0.626464
0.655766
0.687408
0.722418
0.76126
0.804283
0.852679
0.906499
0.958089
0.990332
0.999251
0.999986
1
1
1
1
1
1
1
1
1
1
1
1
1
1
1
1
1
1
1
1
1
0.182201
0.184874
0.187251
0.190108
0.193607
0.196618
0.199458
0.203173
0.206531
0.210036
0.214317
0.218381
0.222375
0.226786
0.231475
0.236512
0.241485
0.246638
0.252405
0.258125
0.264148
0.270566
0.27713
0.284046
0.29137
0.299061
0.307122
0.315693
0.3247
0.334191
0.344297
0.354996
0.36622
0.378178
0.390852
0.4042
0.418452
0.433781
0.449987
0.466836
0.484827
0.504447
0.525562
0.54768
0.570781
0.595589
0.622867
0.652663
0.68442
0.717947
0.754093
0.794505
0.840879
0.893485
0.946719
0.984909
0.998396
0.999957
1
1
1
1
1
1
1
1
1
1
1
1
1
1
1
1
1
1
1
1
1
1
0.191583
0.194444
0.197467
0.200089
0.202897
0.206558
0.210006
0.213164
0.217137
0.220834
0.224459
0.228907
0.233381
0.237747
0.24241
0.247247
0.252512
0.258009
0.263503
0.269495
0.275781
0.282314
0.28919
0.296448
0.30416
0.312251
0.320784
0.329829
0.339432
0.34938
0.35994
0.371308
0.383153
0.395445
0.408664
0.422962
0.437866
0.453326
0.469994
0.488147
0.507335
0.527206
0.548212
0.571122
0.596154
0.622843
0.650879
0.680497
0.7123
0.747275
0.786603
0.831374
0.882095
0.935404
0.97824
0.996943
0.999884
0.999999
1
1
1
1
1
1
1
1
1
1
1
1
1
1
1
1
1
1
1
1
1
1
0.201826
0.204414
0.207423
0.210908
0.214022
0.216938
0.220631
0.224455
0.22797
0.232233
0.236564
0.240554
0.245062
0.249971
0.254925
0.260094
0.265486
0.271161
0.277172
0.283453
0.290035
0.296856
0.304157
0.311862
0.31973
0.328215
0.337311
0.34649
0.356219
0.36688
0.377929
0.38919
0.40143
0.414709
0.428358
0.4425
0.45798
0.474787
0.492223
0.510262
0.529737
0.55109
0.573868
0.597626
0.622711
0.649906
0.679654
0.71181
0.74621
0.783484
0.825225
0.872962
0.925011
0.970797
0.994736
0.999716
0.999997
1
1
1
1
1
1
1
1
1
1
1
1
1
1
1
1
1
1
1
1
1
1
1
0.212506
0.215578
0.218403
0.221449
0.22516
0.228791
0.232152
0.236012
0.240142
0.244017
0.248382
0.253118
0.257762
0.262501
0.267651
0.27316
0.27872
0.28457
0.290882
0.29729
0.304046
0.311392
0.318785
0.326561
0.335137
0.343889
0.352865
0.362757
0.373219
0.383768
0.395114
0.407492
0.420239
0.433381
0.447708
0.463225
0.479301
0.49602
0.514075
0.533633
0.554248
0.575815
0.598851
0.623864
0.650841
0.679504
0.709918
0.74267
0.778752
0.819401
0.865663
0.916473
0.963674
0.991962
0.999409
0.99999
1
1
1
1
1
1
1
1
1
1
1
1
1
1
1
1
1
1
1
1
1
1
1
1
0.223857
0.226868
0.23038
0.233673
0.236818
0.240586
0.244628
0.248447
0.252585
0.257066
0.261438
0.26604
0.270975
0.2762
0.281604
0.287046
0.293017
0.29931
0.305621
0.312528
0.319774
0.327041
0.335007
0.343455
0.351936
0.361127
0.371032
0.381035
0.391601
0.403154
0.41514
0.427438
0.440724
0.455056
0.469932
0.485479
0.502252
0.520249
0.539111
0.558944
0.580238
0.603204
0.627675
0.653607
0.681317
0.711218
0.743601
0.77884
0.817809
0.861763
0.910523
0.957765
0.989076
0.998968
0.999975
1
1
1
1
1
1
1
1
1
1
1
1
1
1
1
1
1
1
1
1
1
1
1
1
1
0.23609
0.239292
0.242433
0.2461
0.250034
0.253565
0.25742
0.261842
0.266017
0.270377
0.275312
0.280133
0.285213
0.290559
0.296116
0.30216
0.308243
0.314598
0.321556
0.328579
0.335916
0.343891
0.352021
0.360536
0.369795
0.379337
0.389201
0.399896
0.411181
0.422783
0.435123
0.448374
0.462218
0.476714
0.49226
0.508864
0.526294
0.544667
0.564315
0.585339
0.607662
0.631381
0.65678
0.68407
0.713329
0.744731
0.778828
0.816624
0.859263
0.906618
0.95342
0.986527
0.99846
0.999953
1
1
1
1
1
1
1
1
1
1
1
1
1
1
1
1
1
1
1
1
1
1
1
1
1
1
0.248956
0.252427
0.256009
0.259502
0.263165
0.267427
0.271595
0.275686
0.280378
0.285028
0.289748
0.295057
0.300426
0.30598
0.31192
0.317956
0.324441
0.331295
0.338258
0.345708
0.353539
0.361578
0.370195
0.379296
0.388671
0.398643
0.409256
0.420265
0.431851
0.444211
0.457179
0.470752
0.485209
0.500612
0.516826
0.53393
0.552139
0.57152
0.592063
0.613896
0.637234
0.662216
0.688923
0.717497
0.748231
0.78161
0.818416
0.859638
0.905312
0.950994
0.984692
0.997992
0.999925
0.999999
1
1
1
1
1
1
1
1
1
1
1
1
1
1
1
1
1
1
1
1
1
1
1
1
1
1
0.262836
0.266296
0.270024
0.273937
0.277908
0.281905
0.286277
0.290879
0.295443
0.300452
0.305743
0.310909
0.316513
0.322471
0.32857
0.33506
0.341791
0.348801
0.356255
0.36397
0.372037
0.380616
0.389563
0.398946
0.408904
0.419326
0.430242
0.441819
0.454008
0.466763
0.480246
0.494563
0.509677
0.525632
0.54256
0.56052
0.579534
0.599714
0.62122
0.644173
0.668674
0.694861
0.722917
0.753087
0.785789
0.821756
0.861902
0.906203
0.950532
0.983829
0.997678
0.9999
0.999999
1
1
1
1
1
1
1
1
1
1
1
1
1
1
1
1
1
1
1
1
1
1
1
1
1
1
1
0.277597
0.281373
0.28506
0.289017
0.29333
0.297687
0.302146
0.30688
0.311917
0.316945
0.322245
0.328029
0.333921
0.339999
0.346455
0.353171
0.360227
0.367638
0.375331
0.383418
0.39192
0.400818
0.410203
0.420074