/*--------------------------------*- C++ -*----------------------------------*\
  =========                 |
  \\      /  F ield         | OpenFOAM: The Open Source CFD Toolbox
   \\    /   O peration     | Website:  https://openfoam.org
    \\  /    A nd           | Version:  7
     \\/     M anipulation  |
\*---------------------------------------------------------------------------*/
FoamFile
{
    version     2.0;
    format      ascii;
    class       volScalarField;
    location    "0.45";
    object      rho;
}
// * * * * * * * * * * * * * * * * * * * * * * * * * * * * * * * * * * * * * //

dimensions      [1 -3 0 0 0 0 0];

internalField   nonuniform List<scalar> 
324000
(
0.456499
0.624422
0.825998
1.01637
1.13957
1.10871
1.05678
1.05293
1.04377
1.04575
1.05658
1.06818
1.06391
1.05905
1.05929
1.05799
1.05411
1.05341
1.05382
1.0554
1.06003
1.0659
1.06807
1.06749
1.06678
1.06762
1.07025
1.07563
1.08268
1.08313
1.08021
1.07039
1.06068
1.05485
1.05362
1.05305
1.0529
1.05464
1.0589
1.06534
1.07535
1.08547
1.09307
1.09764
1.10593
1.1173
1.12713
1.14027
1.146
1.14956
1.15942
1.1731
1.23283
1.29377
1.32626
1.34617
1.35482
1.3597
1.36429
1.37056
1.37947
1.38989
1.39759
1.4
1.40014
1.40008
1.40002
1.40001
1.40001
1.40001
1.40001
1.40001
1.40001
1.40001
1.40001
1.40001
1.40001
1.40001
1.40001
1.40001
0.328773
0.329535
0.37638
0.577498
0.845761
1.01008
1.07861
1.06498
1.0382
1.03478
1.03598
1.03341
1.02905
1.03109
1.03912
1.03884
1.03359
1.03249
1.03363
1.03484
1.03756
1.04089
1.04211
1.0422
1.0422
1.04358
1.046
1.05075
1.05558
1.05716
1.05329
1.04249
1.03253
1.02585
1.02408
1.02292
1.02187
1.02276
1.02641
1.03215
1.03978
1.04805
1.05367
1.05623
1.0633
1.07515
1.09535
1.11698
1.12677
1.12912
1.14251
1.16296
1.22385
1.28415
1.32268
1.34463
1.35365
1.35838
1.36283
1.3692
1.37837
1.38917
1.39727
1.39993
1.40012
1.40007
1.40002
1.40001
1.40001
1.40001
1.40001
1.40001
1.40001
1.40001
1.40001
1.40001
1.40001
1.40001
1.40001
1.40001
0.330395
0.331125
0.331712
0.331879
0.383806
0.574553
0.825227
0.9978
1.05923
1.05786
1.03657
1.01817
1.01959
1.02973
1.03996
1.03716
1.03319
1.03465
1.03294
1.03052
1.0308
1.03281
1.03532
1.03635
1.03603
1.03608
1.03771
1.0422
1.0433
1.04256
1.03692
1.02534
1.01383
1.00768
1.00523
1.0035
1.00227
1.00262
1.00532
1.00935
1.01314
1.01751
1.0189
1.02105
1.03128
1.05093
1.08035
1.1088
1.12247
1.12552
1.13457
1.15736
1.21349
1.27288
1.31901
1.34342
1.35249
1.35686
1.3612
1.36775
1.37725
1.38845
1.39697
1.39986
1.4001
1.40007
1.40002
1.40001
1.40001
1.40001
1.40001
1.40001
1.40001
1.40001
1.40001
1.40001
1.40001
1.40001
1.40001
1.40001
0.331569
0.332048
0.332335
0.332481
0.332481
0.332323
0.377392
0.559333
0.804742
1.00002
1.03249
1.03007
1.02364
1.02545
1.03175
1.03289
1.03593
1.04027
1.03653
1.03171
1.03052
1.03339
1.03763
1.03816
1.03761
1.03696
1.03737
1.03846
1.03722
1.03635
1.03063
1.02041
1.00987
1.00486
1.00308
1.00203
1.00043
0.997749
0.995434
0.993509
0.992505
0.995281
0.999913
1.00563
1.01728
1.04177
1.07999
1.11126
1.11959
1.12955
1.13714
1.15806
1.20769
1.26572
1.31645
1.3424
1.35115
1.3551
1.35944
1.36625
1.37612
1.38775
1.39668
1.3998
1.40008
1.40006
1.40002
1.40001
1.40001
1.40001
1.40001
1.40001
1.40001
1.40001
1.40001
1.40001
1.40001
1.40001
1.40001
1.40001
0.332352
0.332515
0.332563
0.332536
0.332327
0.331914
0.331622
0.331056
0.377731
0.557805
0.815794
0.987373
1.01259
1.03299
1.03246
1.03066
1.03269
1.035
1.0319
1.02902
1.02954
1.03409
1.03722
1.03731
1.03688
1.0363
1.03575
1.03486
1.03479
1.0346
1.02947
1.02044
1.01277
1.00891
1.00699
1.00375
0.998319
0.99004
0.983097
0.979778
0.97921
0.983641
0.991056
1.0018
1.01828
1.04605
1.08354
1.11754
1.14355
1.1473
1.14759
1.1632
1.20564
1.26186
1.31502
1.3411
1.34936
1.3531
1.3576
1.36472
1.37498
1.38708
1.39642
1.39974
1.40007
1.40005
1.40002
1.40001
1.40001
1.40001
1.40001
1.40001
1.40001
1.40001
1.40001
1.40001
1.40001
1.40001
1.40001
1.40001
0.332606
0.332567
0.332441
0.332126
0.331665
0.331317
0.330849
0.330589
0.33055
0.330485
0.397739
0.592203
0.81245
0.966465
0.997938
1.02803
1.03128
1.0335
1.03049
1.02916
1.0323
1.0371
1.03757
1.03597
1.03448
1.03401
1.03431
1.03541
1.03733
1.03715
1.03255
1.02466
1.01754
1.01168
1.00582
0.998274
0.990049
0.98078
0.975602
0.975152
0.977951
0.984885
0.99076
1.00382
1.02451
1.05808
1.10999
1.15234
1.17347
1.16991
1.16105
1.16597
1.20174
1.26474
1.31597
1.33937
1.347
1.35084
1.35566
1.36315
1.37385
1.38643
1.39618
1.39968
1.40005
1.40004
1.40002
1.40001
1.40001
1.40001
1.40001
1.40001
1.40001
1.40001
1.40001
1.40001
1.40001
1.40001
1.40001
1.40001
0.332491
0.332228
0.33185
0.331417
0.331081
0.330757
0.330536
0.33049
0.330423
0.330444
0.330476
0.330467
0.410881
0.616844
0.834385
0.991558
1.01297
1.03441
1.03096
1.03197
1.0387
1.03901
1.03706
1.03437
1.03312
1.0332
1.03412
1.03657
1.04021
1.04093
1.03502
1.0265
1.01773
1.00981
1.00115
0.993689
0.988318
0.981542
0.978516
0.978961
0.981773
0.988164
1.0047
1.02794
1.05596
1.09127
1.13733
1.17987
1.20116
1.20278
1.19412
1.19091
1.21729
1.27294
1.31759
1.33738
1.3444
1.34839
1.35359
1.36153
1.37273
1.38583
1.39597
1.39964
1.40004
1.40004
1.40002
1.40001
1.40001
1.40001
1.40001
1.40001
1.40001
1.40001
1.40001
1.40001
1.40001
1.40001
1.40001
1.40001
0.331949
0.331566
0.331172
0.330869
0.33065
0.330493
0.330447
0.330424
0.330434
0.330468
0.330471
0.330442
0.330434
0.332783
0.422079
0.638396
0.849035
1.0021
1.02025
1.04153
1.04974
1.04507
1.04019
1.03651
1.03515
1.03594
1.03919
1.04507
1.04958
1.04774
1.03863
1.02606
1.01508
1.00733
0.999179
0.994398
0.990076
0.98365
0.981185
0.982306
0.991417
1.00734
1.03037
1.05759
1.0871
1.12342
1.16075
1.1906
1.21524
1.22387
1.2208
1.21563
1.23059
1.27409
1.31634
1.33602
1.34164
1.34567
1.35136
1.35984
1.37161
1.38527
1.39578
1.3996
1.40003
1.40003
1.40002
1.40001
1.40001
1.40001
1.40001
1.40001
1.40001
1.40001
1.40001
1.40001
1.40001
1.40001
1.40001
1.40001
0.331292
0.330957
0.330686
0.330522
0.330449
0.330433
0.330452
0.330467
0.330464
0.330449
0.330447
0.330455
0.33047
0.330497
0.330525
0.334927
0.438507
0.672674
0.885576
1.03013
1.03932
1.04464
1.04352
1.04063
1.04293
1.04478
1.04948
1.05714
1.05733
1.05121
1.03866
1.0232
1.01279
1.00592
1.00006
0.996263
0.992109
0.9868
0.986653
0.992508
1.00555
1.02583
1.05651
1.08765
1.11545
1.14593
1.17223
1.19651
1.22167
1.23555
1.2405
1.24474
1.26093
1.29442
1.32383
1.33481
1.33874
1.34292
1.34902
1.35808
1.37051
1.38476
1.39563
1.39957
1.40003
1.40003
1.40002
1.40001
1.40001
1.40001
1.40001
1.40001
1.40001
1.40001
1.40001
1.40001
1.40001
1.40001
1.40001
1.40001
0.330651
0.330541
0.330457
0.330425
0.330457
0.330482
0.330491
0.330469
0.330431
0.330439
0.330471
0.330491
0.330511
0.330533
0.330558
0.33062
0.330674
0.340749
0.468014
0.736713
0.914764
1.02914
1.03739
1.04551
1.05638
1.05612
1.06113
1.06481
1.06144
1.05223
1.03622
1.02158
1.01277
1.00551
0.999271
0.997608
0.993818
0.990659
0.99371
1.00586
1.02342
1.04677
1.07822
1.10644
1.13425
1.16289
1.183
1.20338
1.22558
1.24051
1.25025
1.26105
1.2793
1.3079
1.32765
1.33289
1.33611
1.34024
1.34664
1.3563
1.36943
1.38427
1.3955
1.39955
1.40002
1.40002
1.40001
1.40001
1.40001
1.40001
1.40001
1.40001
1.40001
1.40001
1.40001
1.40001
1.40001
1.40001
1.40001
1.40001
0.330475
0.33047
0.330492
0.330506
0.330496
0.330456
0.330422
0.330419
0.330442
0.330483
0.330508
0.330528
0.330533
0.330534
0.330547
0.330586
0.330653
0.330766
0.330867
0.355585
0.530275
0.802793
0.993637
1.04052
1.06404
1.06073
1.06571
1.06678
1.06078
1.0474
1.03262
1.02145
1.01256
1.0036
0.999334
0.997932
0.994378
0.99416
1.004
1.0228
1.04292
1.07018
1.09739
1.11862
1.14424
1.16842
1.18554
1.20385
1.22467
1.24108
1.2542
1.27015
1.29169
1.31477
1.32752
1.33089
1.33354
1.33758
1.34437
1.35459
1.36838
1.38385
1.39538
1.39953
1.40001
1.40002
1.40001
1.40001
1.40001
1.40001
1.40001
1.40001
1.40001
1.40001
1.40001
1.40001
1.40001
1.40001
1.40001
1.40001
0.330507
0.33049
0.330473
0.330434
0.330413
0.330421
0.330454
0.330487
0.330515
0.330538
0.330549
0.330523
0.330467
0.330436
0.330421
0.330444
0.330549
0.33071
0.330914
0.331055
0.331083
0.386506
0.618218
0.867315
1.03011
1.0445
1.06316
1.0553
1.04517
1.03887
1.03025
1.02034
1.01061
0.999698
0.997916
0.996944
0.995949
1.0031
1.02144
1.04159
1.0587
1.08199
1.10444
1.12341
1.1454
1.16692
1.1836
1.20171
1.22192
1.23989
1.25544
1.27414
1.29626
1.31617
1.32508
1.32783
1.33059
1.33506
1.34234
1.35301
1.36734
1.38342
1.39531
1.39952
1.40001
1.40002
1.40001
1.40001
1.40001
1.40001
1.40001
1.40001
1.40001
1.40001
1.40001
1.40001
1.40001
1.40001
1.40001
1.40001
0.330467
0.330432
0.330418
0.330422
0.330447
0.330478
0.330513
0.330541
0.330561
0.330552
0.330505
0.330435
0.330355
0.330295
0.330262
0.330269
0.330352
0.330498
0.330732
0.330861
0.330888
0.330873
0.333716
0.446247
0.709228
0.917988
1.03416
1.02309
1.03542
1.03478
1.02664
1.01544
1.00464
0.999947
0.999914
0.997524
0.999561
1.01519
1.04038
1.05772
1.07399
1.09298
1.1088
1.12744
1.14901
1.16789
1.18243
1.19938
1.21938
1.23829
1.25521
1.27459
1.29648
1.31389
1.32093
1.32421
1.32753
1.33261
1.34033
1.35146
1.36642
1.38295
1.39521
1.39951
1.40001
1.40001
1.40001
1.40001
1.40001
1.40001
1.40001
1.40001
1.40001
1.40001
1.40001
1.40001
1.40001
1.40001
1.40001
1.40001
0.330421
0.33043
0.330456
0.330478
0.330499
0.330523
0.330552
0.330566
0.330547
0.330489
0.330408
0.330328
0.330261
0.330229
0.3302
0.330176
0.330195
0.330197
0.330174
0.330093
0.32986
0.329916
0.329766
0.328804
0.350103
0.532927
0.847355
0.96822
1.04207
1.03233
1.02194
1.0112
1.00337
1.00247
1.00406
1.00345
1.01239
1.0323
1.05228
1.06377
1.08078
1.10128
1.11586
1.13492
1.15682
1.17119
1.18255
1.19865
1.21808
1.23691
1.25438
1.27336
1.29403
1.30905
1.31604
1.31998
1.32406
1.32994
1.33826
1.34985
1.3654
1.38272
1.39531
1.39954
1.4
1.40001
1.40001
1.40001
1.40001
1.40001
1.40001
1.40001
1.40001
1.40001
1.40001
1.40001
1.40001
1.40001
1.40001
1.40001
0.330459
0.330481
0.330503
0.330527
0.330547
0.33056
0.330555
0.33053
0.330477
0.330395
0.330305
0.330264
0.330236
0.330213
0.330184
0.330149
0.330109
0.329964
0.329646
0.329302
0.328723
0.328356
0.328054
0.326886
0.325432
0.321275
0.39966
0.684901
0.973846
1.00646
1.01647
1.0086
1.00362
1.00702
1.00934
1.01417
1.03131
1.05492
1.06253
1.06764
1.08551
1.10735
1.12581
1.14626
1.16481
1.17306
1.18272
1.19898
1.21749
1.23505
1.25265
1.27149
1.29026
1.30355
1.31102
1.31586
1.32062
1.32693
1.33582
1.34823
1.3644
1.38233
1.39533
1.39956
1.4
1.40001
1.40001
1.40001
1.40001
1.40001
1.40001
1.40001
1.40001
1.40001
1.40001
1.40001
1.40001
1.40001
1.40001
1.40001
0.330501
0.330529
0.330554
0.330569
0.330562
0.330535
0.330495
0.330437
0.330378
0.330326
0.330277
0.330263
0.330272
0.330282
0.330256
0.330175
0.330052
0.329825
0.32937
0.328828
0.328168
0.327311
0.326508
0.325127
0.322582
0.318623
0.314882
0.341418
0.561843
0.83345
0.974256
1.00406
1.01422
1.02148
1.01981
1.0295
1.04602
1.06352
1.06609
1.07434
1.09846
1.11808
1.13491
1.15444
1.16677
1.17129
1.1818
1.19911
1.21656
1.2325
1.24968
1.26863
1.28577
1.29806
1.30623
1.31218
1.31777
1.32442
1.33349
1.34638
1.36357
1.38248
1.39548
1.39959
1.4
1.40001
1.40001
1.40001
1.40001
1.40001
1.40001
1.40001
1.40001
1.40001
1.40001
1.40001
1.40001
1.40001
1.40001
1.40001
0.330568
0.330575
0.330569
0.330538
0.330498
0.330457
0.330413
0.330359
0.330336
0.330319
0.330329
0.330407
0.33053
0.330555
0.330524
0.330417
0.330181
0.329877
0.329347
0.328622
0.32792
0.326898
0.325555
0.323319
0.319177
0.3157
0.314319
0.314541
0.315328
0.455989
0.746555
0.963122
1.00408
1.02808
1.03921
1.05488
1.07301
1.06948
1.07099
1.08939
1.11393
1.12651
1.14076
1.15678
1.16157
1.16752
1.18151
1.19895
1.21464
1.22942
1.2457
1.26439
1.28111
1.29248
1.30034
1.30705
1.31399
1.32174
1.33154
1.34481
1.36242
1.38228
1.39564
1.39962
1.4
1.40001
1.40001
1.40001
1.40001
1.40001
1.40001
1.40001
1.40001
1.40001
1.40001
1.40001
1.40001
1.40001
1.40001
1.40001
0.330557
0.330528
0.330492
0.330443
0.3304
0.330372
0.330353
0.330336
0.33034
0.330393
0.330468
0.330598
0.330767
0.330809
0.330766
0.330672
0.330438
0.330115
0.329709
0.328901
0.328053
0.326622
0.323702
0.319284
0.31605
0.314843
0.315823
0.31766
0.320621
0.323184
0.378868
0.605811
0.858128
1.00192
1.03149
1.06147
1.09003
1.07849
1.08554
1.11287
1.12103
1.12597
1.13845
1.15076
1.15431
1.16465
1.18267
1.19773
1.21123
1.22587
1.24162
1.25902
1.27574
1.28792
1.2953
1.30171
1.30918
1.31788
1.32862
1.343
1.3623
1.38264
1.39586
1.39966
1.4
1.40001
1.40001
1.40001
1.40001
1.40001
1.40001
1.40001
1.40001
1.40001
1.40001
1.40001
1.40001
1.40001
1.40001
1.40001
0.330471
0.33043
0.330396
0.330364
0.330349
0.330347
0.330338
0.330345
0.330397
0.330481
0.330541
0.330654
0.330839
0.330897
0.330836
0.330725
0.330491
0.33014
0.329711
0.328901
0.326986
0.323463
0.319381
0.315974
0.316101
0.316726
0.31729
0.31989
0.32408
0.329465
0.337944
0.346873
0.458588
0.689057
0.903225
1.02731
1.0826
1.0785
1.10102
1.13126
1.12555
1.12248
1.1331
1.13777
1.14616
1.16442
1.18408
1.19499
1.20679
1.22222
1.23891
1.25433
1.26902
1.28156
1.29146
1.29911
1.30585
1.3144
1.32588
1.34109
1.36145
1.38285
1.39614
1.39971
1.4
1.40001
1.40001
1.40001
1.40001
1.40001
1.40001
1.40001
1.40001
1.40001
1.40001
1.40001
1.40001
1.40001
1.40001
1.40001
0.330369
0.330362
0.330359
0.330359
0.330348
0.330343
0.330361
0.33039
0.330441
0.330501
0.330544
0.330648
0.330835
0.330885
0.330803
0.330599
0.330414
0.329956
0.328697
0.326459
0.322561
0.318401
0.316356
0.31568
0.316003
0.318174
0.318367
0.32114
0.328613
0.338633
0.349032
0.360104
0.369279
0.388827
0.50212
0.704888
0.895608
1.03502
1.08851
1.11424
1.10613
1.11028
1.12772
1.12886
1.14111
1.16866
1.18248
1.18975
1.20157
1.2186
1.23628
1.25144
1.26321
1.27419
1.28445
1.29363
1.3024
1.31164
1.32328
1.33986
1.36172
1.38341
1.39645
1.39975
1.4
1.40001
1.40001
1.40001
1.40001
1.40001
1.40001
1.40001
1.40001
1.40001
1.40001
1.40001
1.40001
1.40001
1.40001
1.40001
0.330365
0.330379
0.330393
0.330412
0.33041
0.330404
0.330398
0.33035
0.330247
0.330316
0.330354
0.33026
0.330287
0.330241
0.330024
0.329391
0.328419
0.326783
0.323785
0.32009
0.317466
0.315131
0.315291
0.315885
0.315469
0.318342
0.32348
0.329714
0.33865
0.350019
0.360589
0.370687
0.380977
0.391122
0.400686
0.419781
0.509571
0.707271
0.881786
0.999248
1.06229
1.10087
1.12763
1.12688
1.15106
1.17428
1.17753
1.18337
1.1979
1.21453
1.23064
1.24621
1.25968
1.26916
1.27748
1.28646
1.29647
1.30757
1.3206
1.3379
1.36124
1.38401
1.39682
1.3998
1.4
1.40001
1.40001
1.40001
1.40001
1.40001
1.40001
1.40001
1.40001
1.40001
1.40001
1.40001
1.40001
1.40001
1.40001
1.40001
0.330427
0.330431
0.330441
0.330447
0.330396
0.330257
0.330165
0.330014
0.329678
0.329493
0.329394
0.329211
0.328952
0.328514
0.327806
0.326454
0.324077
0.321378
0.318642
0.315669
0.314753
0.314259
0.314214
0.316038
0.317814
0.320257
0.330525
0.341786
0.350541
0.35979
0.368847
0.377977
0.38893
0.399605
0.410324
0.422001
0.433941
0.451803
0.523616
0.671512
0.884394
1.04743
1.11537
1.12942
1.17062
1.1758
1.16695
1.17716
1.19486
1.20861
1.22176
1.23663
1.25168
1.26402
1.27331
1.28177
1.29131
1.30284
1.31757
1.33749
1.36189
1.38488
1.39722
1.39984
1.4
1.40001
1.40001
1.40001
1.40001
1.40001
1.40001
1.40001
1.40001
1.40001
1.40001
1.40001
1.40001
1.40001
1.40001
1.40001
0.330463
0.330438
0.330415
0.330347
0.330199
0.329986
0.329784
0.329547
0.329188
0.328774
0.328452
0.328134
0.327695
0.326822
0.325273
0.323196
0.320257
0.317109
0.315075
0.313828
0.313975
0.314508
0.314595
0.317588
0.326207
0.334489
0.341134
0.350458
0.360688
0.369864
0.379881
0.390016
0.399054
0.409693
0.421301
0.432534
0.444123
0.458037
0.47165
0.485138
0.543466
0.699713
0.899106
1.06917
1.14807
1.15804
1.14977
1.17188
1.18877
1.19924
1.21145
1.22556
1.24069
1.25495
1.26649
1.2764
1.28717
1.29955
1.31451
1.33571
1.36224
1.38594
1.39765
1.39988
1.4
1.40001
1.40001
1.40001
1.40001
1.40001
1.40001
1.40001
1.40001
1.40001
1.40001
1.40001
1.40001
1.40001
1.40001
1.40001
0.330299
0.330247
0.330178
0.330048
0.329885
0.329728
0.329467
0.329235
0.329055
0.328638
0.328101
0.327399
0.326449
0.324928
0.322298
0.31914
0.316118
0.314057
0.313925
0.313909
0.314003
0.316823
0.322374
0.327042
0.334325
0.34528
0.353192
0.361115
0.370096
0.378226
0.388087
0.398898
0.408783
0.420038
0.431768
0.444105
0.456535
0.469433
0.483382
0.497915
0.512577
0.529991
0.59515
0.761247
0.948937
1.07045
1.13299
1.18987
1.18242
1.18554
1.20183
1.22011
1.23277
1.24408
1.25623
1.26878
1.28106
1.29469
1.31229
1.33599
1.3634
1.38718
1.39807
1.39992
1.4
1.40001
1.40001
1.40001
1.40001
1.40001
1.40001
1.40001
1.40001
1.40001
1.40001
1.40001
1.40001
1.40001
1.40001
1.40001
0.330155
0.330105
0.329988
0.32985
0.329698
0.329671
0.329543
0.329318
0.329225
0.328927
0.328169
0.326668
0.323909
0.320644
0.317539
0.315434
0.314207
0.313866
0.313985
0.316228
0.319694
0.32336
0.331118
0.340165
0.345834
0.353045
0.362131
0.370541
0.379661
0.389535
0.39847
0.408486
0.420132
0.431382
0.442665
0.454754
0.468344
0.481318
0.495227
0.510142
0.526268
0.541775
0.558697
0.58471
0.669186
0.867048
1.07023
1.1641
1.1615
1.17079
1.19274
1.2131
1.22676
1.23643
1.24659
1.26033
1.27516
1.29012
1.30879
1.33505
1.36477
1.38865
1.39849
1.39995
1.4
1.40001
1.40001
1.40001
1.40001
1.40001
1.40001
1.40001
1.40001
1.40001
1.40001
1.40001
1.40001
1.40001
1.40001
1.40001
0.329924
0.32981
0.329653
0.329652
0.329606
0.329566
0.329536
0.329298
0.328675
0.327541
0.325144
0.321768
0.318571
0.316474
0.315146
0.314787
0.31512
0.316781
0.318923
0.322064
0.328971
0.33472
0.33928
0.347213
0.355545
0.362402
0.371605
0.380861
0.38981
0.401002
0.411557
0.421554
0.433054
0.443874
0.455642
0.468006
0.480373
0.493732
0.507628
0.52224
0.537776
0.55511
0.572197
0.590263
0.609958
0.657026
0.804041
0.990886
1.10437
1.16649
1.18906
1.20007
1.21223
1.22651
1.24082
1.25354
1.26788
1.28548
1.30808
1.33592
1.36675
1.39023
1.39888
1.39997
1.4
1.40001
1.40001
1.40001
1.40001
1.40001
1.40001
1.40001
1.40001
1.40001
1.40001
1.40001
1.40001
1.40001
1.40001
1.40001
0.329817
0.329695
0.329497
0.329258
0.329004
0.328418
0.327583
0.326219
0.323903
0.321262
0.3191
0.31719
0.31604
0.315411
0.315683
0.316932
0.318342
0.32102
0.326239
0.329512
0.334383
0.342234
0.348896
0.355314
0.365108
0.374339
0.383335
0.393332
0.403075
0.411911
0.422389
0.432569
0.442487
0.453986
0.46549
0.477905
0.491106
0.505177
0.519605
0.53467
0.550703
0.568081
0.586094
0.605673
0.6234
0.645313
0.678666
0.782179
0.979303
1.12353
1.16429
1.17559
1.18908
1.20684
1.22659
1.24524
1.26193
1.28027
1.30513
1.33655
1.36931
1.39195
1.39922
1.39998
1.4
1.40001
1.40001
1.40001
1.40001
1.40001
1.40001
1.40001
1.40001
1.40001
1.40001
1.40001
1.40001
1.40001
1.40001
1.40001
0.328798
0.328319
0.327821
0.326969
0.325718
0.324118
0.322037
0.319992
0.318327
0.31675
0.316273
0.315832
0.315829
0.316527
0.317172
0.319093
0.322293
0.324788
0.330545
0.337787
0.34279
0.350552
0.360719
0.369618
0.377864
0.387538
0.396158
0.40484
0.414284
0.423166
0.432546
0.443757
0.45422
0.465427
0.477832
0.49007
0.503083
0.517265
0.532179
0.5481
0.564115
0.580886
0.59943
0.620307
0.641293
0.660652
0.683156
0.712528
0.797427
0.954084
1.08668
1.15006
1.17642
1.1932
1.21157
1.23284
1.25393
1.27654
1.30511
1.33858
1.37244
1.3937
1.3995
1.39999
1.40001
1.40001
1.40001
1.40001
1.40001
1.40001
1.40001
1.40001
1.40001
1.40001
1.40001
1.40001
1.40001
1.40001
1.40001
1.40001
0.327405
0.326754
0.325827
0.32438
0.322361
0.320305
0.318256
0.316492
0.315733
0.31523
0.315291
0.316229
0.316413
0.317836
0.319872
0.322011
0.327452
0.334488
0.339589
0.348574
0.358291
0.365805
0.373847
0.38222
0.390125
0.398291
0.406513
0.414939
0.42365
0.434341
0.444108
0.454305
0.466619
0.478941
0.491713
0.505443
0.51953
0.533511
0.548436
0.564631
0.581551
0.599272
0.616932
0.634296
0.655909
0.678565
0.700119
0.722999
0.755384
0.828347
0.970221
1.09839
1.15809
1.18477
1.20464
1.22347
1.24397
1.26998
1.30362
1.34146
1.37628
1.39539
1.39971
1.4
1.40001
1.40001
1.40001
1.40001
1.40001
1.40001
1.40001
1.40001
1.40001
1.40001
1.40001
1.40001
1.40001
1.40001
1.40001
1.40001
0.325601
0.323653
0.321205
0.319001
0.317197
0.316003
0.315332
0.314934
0.315062
0.315172
0.315123
0.3164
0.319266
0.321724
0.327075
0.33413
0.340156
0.348069
0.356302
0.362496
0.370443
0.377743
0.384784
0.392526
0.400222
0.40781
0.416995
0.426246
0.435956
0.445984
0.457641
0.468877
0.480285
0.492063
0.504119
0.51744
0.531137
0.545947
0.561631
0.576997
0.594659
0.61354
0.633624
0.65378
0.673925
0.695558
0.718824
0.741724
0.766286
0.803111
0.872514
0.990412
1.09386
1.15374
1.18769
1.21231
1.23787
1.26961
1.30542
1.34589
1.38059
1.39691
1.39985
1.4
1.40001
1.40001
1.40001
1.40001
1.40001
1.40001
1.40001
1.40001
1.40001
1.40001
1.40001
1.40001
1.40001
1.40001
1.40001
1.40001
0.319154
0.317532
0.316403
0.315761
0.315399
0.31521
0.315295
0.31533
0.315441
0.317208
0.320512
0.323108
0.328543
0.335503
0.340928
0.347254
0.354082
0.359844
0.367333
0.373674
0.380163
0.387696
0.394975
0.402703
0.411634
0.420638
0.429883
0.439849
0.450283
0.460521
0.470899
0.482252
0.494014
0.506391
0.519495
0.532185
0.546272
0.560795
0.576026
0.592628
0.609246
0.626906
0.646496
0.669131
0.691305
0.714392
0.738019
0.762137
0.786504
0.816635
0.861091
0.929378
1.02513
1.10561
1.15704
1.19268
1.22788
1.26698
1.30874
1.35208
1.38516
1.39813
1.39994
1.4
1.40001
1.40001
1.40001
1.40001
1.40001
1.40001
1.40001
1.40001
1.40001
1.40001
1.40001
1.40001
1.40001
1.40001
1.40001
1.40001
0.315595
0.315661
0.315724
0.316073
0.316901
0.317262
0.317951
0.320486
0.323753
0.326094
0.330983
0.336636
0.340549
0.346309
0.352274
0.357741
0.364131
0.370513
0.376523
0.384488
0.391452
0.39934
0.407933
0.416444
0.424978
0.434604
0.443454
0.45301
0.46271
0.473196
0.483858
0.494973
0.506198
0.518588
0.531724
0.546127
0.560506
0.576027
0.592147
0.609488
0.627524
0.646384
0.665323
0.684593
0.707635
0.732207
0.757345
0.782905
0.808042
0.833999
0.868564
0.920112
0.987963
1.06034
1.12862
1.18286
1.22743
1.26919
1.31486
1.35976
1.38963
1.39902
1.39998
1.4
1.40001
1.40001
1.40001
1.40001
1.40001
1.40001
1.40001
1.40001
1.40001
1.40001
1.40001
1.40001
1.40001
1.40001
1.40001
1.40001
0.316817
0.317198
0.318012
0.318775
0.319789
0.322006
0.324529
0.327027
0.331394
0.335312
0.338825
0.34554
0.350897
0.355497
0.362143
0.369051
0.375645
0.38327
0.390423
0.398115
0.406279
0.413891
0.421934
0.430479
0.438905
0.447168
0.456639
0.465873
0.475617
0.485789
0.497034
0.50874
0.521601
0.534286
0.547412
0.561392
0.576298
0.591676
0.608361
0.625406
0.64424
0.66418
0.685253
0.706388
0.727475
0.75052
0.776625
0.804056
0.831527
0.857649
0.888722
0.930793
0.989032
1.05705
1.11795
1.1747
1.22523
1.27326
1.3234
1.36838
1.39356
1.39957
1.4
1.40001
1.40001
1.40001
1.40001
1.40001
1.40001
1.40001
1.40001
1.40001
1.40001
1.40001
1.40001
1.40001
1.40001
1.40001
1.40001
1.40001
0.317635
0.317963
0.319309
0.320654
0.321891
0.325128
0.330003
0.333108
0.337146
0.345217
0.350792
0.355153
0.363234
0.3704
0.376501
0.383399
0.390497
0.397273
0.404713
0.411111
0.418674
0.426018
0.433625
0.441282
0.450006
0.458892
0.468117
0.478103
0.489162
0.500459
0.511908
0.523828
0.536183
0.549676
0.56388
0.578262
0.59343
0.609179
0.625643
0.643484
0.661733
0.680884
0.701483
0.724506
0.748264
0.772555
0.797524
0.825122
0.854159
0.8836
0.911868
0.947572
0.996612
1.05736
1.12113
1.17894
1.23051
1.28243
1.3351
1.37754
1.39662
1.39986
1.4
1.40001
1.40001
1.40001
1.40001
1.40001
1.40001
1.40001
1.40001
1.40001
1.40001
1.40001
1.40001
1.40001
1.40001
1.40001
1.40001
1.40001
0.320435
0.323185
0.325787
0.33027
0.336364
0.340306
0.344667
0.35172
0.35723
0.361799
0.368574
0.374155
0.379049
0.385468
0.391361
0.397241
0.403369
0.40972
0.416367
0.423509
0.430436
0.438437
0.44652
0.455606
0.464436
0.474155
0.484202
0.494779
0.505184
0.516411
0.528219
0.540621
0.553122
0.566153
0.579739
0.594434
0.609567
0.626126
0.643448
0.661547
0.680571
0.70074
0.721865
0.743596
0.767483
0.79258
0.818753
0.846206
0.8766
0.908696
0.940217
0.970704
1.00803
1.06055
1.12172
1.18145
1.23831
1.29523
1.34927
1.38622
1.3986
1.39997
1.4
1.40001
1.40001
1.40001
1.40001
1.40001
1.40001
1.40001
1.40001
1.40001
1.40001
1.40001
1.40001
1.40001
1.40001
1.40001
1.40001
1.40001
0.33162
0.335756
0.339735
0.34324
0.348337
0.353701
0.357331
0.362288
0.368298
0.372419
0.377444
0.384048
0.388848
0.394047
0.400812
0.407121
0.41371
0.420841
0.42814
0.436307
0.444161
0.452604
0.461642
0.470252
0.479995
0.489487
0.499296
0.509503
0.520373
0.531325
0.542792
0.554816
0.567945
0.581651
0.596056
0.610939
0.627092
0.643414
0.661106
0.679891
0.699929
0.720615
0.742103
0.764901
0.788604
0.814343
0.841555
0.869796
0.899301
0.931295
0.965366
1.0009
1.03859
1.08181
1.13214
1.18823
1.24938
1.31174
1.36479
1.39318
1.39958
1.4
1.40001
1.40001
1.40001
1.40001
1.40001
1.40001
1.40001
1.40001
1.40001
1.40001
1.40001
1.40001
1.40001
1.40001
1.40001
1.40001
1.40001
1.40001
0.342103
0.345992
0.351237
0.355545
0.358858
0.364562
0.37102
0.374984
0.38021
0.387012
0.391901
0.397557
0.404765
0.410931
0.417017
0.423914
0.431011
0.438101
0.445421
0.452584
0.460844
0.4685
0.476813
0.485684
0.494041
0.503647
0.513745
0.524008
0.534989
0.546922
0.55918
0.571993
0.585266
0.599452
0.614333
0.629957
0.646109
0.66367
0.681645
0.700467
0.7201
0.741251
0.763895
0.787373
0.811817
0.837367
0.864894
0.894637
0.926203
0.958283
0.990021
1.02311
1.06128
1.10645
1.15778
1.21408
1.27472
1.33517
1.38008
1.39755
1.39992
1.4
1.40001
1.40001
1.40001
1.40001
1.40001
1.40001
1.40001
1.40001
1.40001
1.40001
1.40001
1.40001
1.40001
1.40001
1.40001
1.40001
1.40001
1.40001
0.357744
0.361875
0.366498
0.372166
0.376845
0.380728
0.386276
0.391736
0.396296
0.401896
0.407798
0.412567
0.418351
0.424923
0.430734
0.43696
0.443593
0.450571
0.457748
0.465236
0.472886
0.481757
0.490087
0.499327
0.50949
0.519269
0.529556
0.541077
0.552653
0.564346
0.576899
0.590303
0.604125
0.618153
0.633186
0.649122
0.665809
0.682857
0.701405
0.721282
0.742023
0.763071
0.785146
0.809147
0.834901
0.861927
0.889621
0.918574
0.950211
0.984973
1.02125
1.05735
1.09399
1.13394
1.18115
1.23835
1.30208
1.35931
1.39163
1.39945
1.4
1.40001
1.40001
1.40001
1.40001
1.40001
1.40001
1.40001
1.40001
1.40001
1.40001
1.40001
1.40001
1.40001
1.40001
1.40001
1.40001
1.40001
1.40001
1.40001
0.371514
0.37597
0.379501
0.383761
0.389401
0.393867
0.397557
0.403196
0.408323
0.412948
0.418977
0.425208
0.430406
0.436405
0.443621
0.450433
0.457409
0.464803
0.472612
0.480942
0.489395
0.497928
0.507536
0.516976
0.526733
0.537288
0.54816
0.55884
0.57046
0.582794
0.595344
0.608093
0.622073
0.637146
0.652422
0.668206
0.685237
0.703759
0.722628
0.742108
0.76297
0.785442
0.809008
0.83317
0.858489
0.885886
0.915418
0.946327
0.978293
1.01167
1.04745
1.0864
1.12816
1.1728
1.22234
1.27882
1.33749
1.38131
1.39784
1.39994
1.4
1.40001
1.40001
1.40001
1.40001
1.40001
1.40001
1.40001
1.40001
1.40001
1.40001
1.40001
1.40001
1.40001
1.40001
1.40001
1.40001
1.40001
1.40001
1.40001
0.385902
0.390492
0.395367
0.399106
0.403396
0.409147
0.414203
0.418836
0.424789
0.430189
0.435457
0.441877
0.448459
0.45463
0.461025
0.468257
0.475552
0.482844
0.490645
0.498566
0.507064
0.515772
0.524421
0.533896
0.543568
0.553471
0.564063
0.575678
0.587453
0.59951
0.612734
0.627078
0.641418
0.656085
0.672156
0.689402
0.706909
0.724978
0.744497
0.765245
0.786739
0.808937
0.832595
0.85793
0.88441
0.911988
0.941213
0.972663
1.00631
1.04167
1.07843
1.11718
1.15917
1.20633
1.26035
1.31879
1.36916
1.39465
1.39973
1.4
1.40001
1.40001
1.40001
1.40001
1.40001
1.40001
1.40001
1.40001
1.40001
1.40001
1.40001
1.40001
1.40001
1.40001
1.40001
1.40001
1.40001
1.40001
1.40001
1.40001
0.400697
0.404454
0.409106
0.414281
0.418287
0.422449
0.428149
0.433166
0.438176
0.444294
0.449769
0.455134
0.461564
0.468339
0.475016
0.481514
0.488738
0.496574
0.504241
0.512634
0.521303
0.530418
0.540139
0.550084
0.560494
0.571464
0.583059
0.594771
0.607151
0.620367
0.633907
0.647755
0.662587
0.678406
0.694524
0.711339
0.729299
0.748364
0.76821
0.789022
0.811118
0.834222
0.858301
0.883758
0.911095
0.9403
0.970914
1.0027
1.0359
1.07131
1.10996
1.15221
1.19827
1.24925
1.30501
1.35769
1.39028
1.39925
1.39999
1.4
1.40001
1.40001
1.40001
1.40001
1.40001
1.40001
1.40001
1.40001
1.40001
1.40001
1.40001
1.40001
1.40001
1.40001
1.40001
1.40001
1.40001
1.40001
1.40001
1.40001
0.415656
0.419987
0.423821
0.428426
0.43403
0.43882
0.443329
0.4492
0.454468
0.459954
0.466616
0.472901
0.479045
0.485798
0.49294
0.500555
0.508035
0.51574
0.524303
0.532747
0.541582
0.55092
0.560419
0.570359
0.580789
0.591677
0.603014
0.61495
0.6274
0.640429
0.65417
0.66857
0.683566
0.699426
0.716082
0.733469
0.751889
0.771515
0.79201
0.813051
0.83527
0.859243
0.884743
0.911122
0.938338
0.967232
0.998627
1.03248
1.06807
1.10512
1.14449
1.18788
1.2369
1.29162
1.34614
1.38481
1.39839
1.39996
1.4
1.40001
1.40001
1.40001
1.40001
1.40001
1.40001
1.40001
1.40001
1.40001
1.40001
1.40001
1.40001
1.40001
1.40001
1.40001
1.40001
1.40001
1.40001
1.40001
1.40001
1.40001
0.430789
0.435368
0.440181
0.444328
0.448765
0.454525
0.459908
0.464827
0.470987
0.476679
0.482245
0.489033
0.495826
0.502418
0.509416
0.516648
0.524462
0.532568
0.540636
0.549365
0.558464
0.567875
0.577692
0.58798
0.598857
0.610167
0.621991
0.634454
0.647578
0.661027
0.675196
0.690338
0.705964
0.722034
0.739207
0.757639
0.776648
0.796144
0.816948
0.839359
0.862759
0.886694
0.911719
0.938729
0.967902
0.998611
1.03045
1.06365
1.09885
1.13707
1.17943
1.22692
1.27985
1.33462
1.37808
1.39693
1.39989
1.4
1.40001
1.40001
1.40001
1.40001
1.40001
1.40001
1.40001
1.40001
1.40001
1.40001
1.40001
1.40001
1.40001
1.40001
1.40001
1.40001
1.40001
1.40001
1.40001
1.40001
1.40001
1.40001
0.447079
0.451152
0.455879
0.46133
0.466163
0.470678
0.476382
0.48224
0.487609
0.494099
0.500636
0.506643
0.51339
0.520698
0.528038
0.535638
0.543533
0.551797
0.560476
0.569507
0.578909
0.588568
0.598856
0.60964
0.620549
0.632245
0.644702
0.657148
0.670237
0.684484
0.69911
0.713874
0.729818
0.746995
0.764496
0.782461
0.801953
0.822895
0.844359
0.866301
0.889739
0.915169
0.941988
0.969625
0.998463
1.02936
1.06275
1.09838
1.13597
1.17614
1.22047
1.2704
1.32401
1.37056
1.39471
1.39972
1.4
1.40001
1.40001
1.40001
1.40001
1.40001
1.40001
1.40001
1.40001
1.40001
1.40001
1.40001
1.40001
1.40001