/*--------------------------------*- C++ -*----------------------------------*\
  =========                 |
  \\      /  F ield         | OpenFOAM: The Open Source CFD Toolbox
   \\    /   O peration     | Website:  https://openfoam.org
    \\  /    A nd           | Version:  7
     \\/     M anipulation  |
\*---------------------------------------------------------------------------*/
FoamFile
{
    version     2.0;
    format      ascii;
    class       volVectorField;
    location    "10";
    object      U;
}
// * * * * * * * * * * * * * * * * * * * * * * * * * * * * * * * * * * * * * //

dimensions      [0 1 -1 0 0 0 0];

internalField   nonuniform List<vector> 
8400
(
(-0.00208747 0.0193071 0)
(0.000626593 0.0267497 0)
(0.00390832 0.0333693 0)
(0.00753085 0.0393218 0)
(0.011288 0.0447366 0)
(0.0151393 0.0497005 0)
(0.0191118 0.054265 0)
(0.0232472 0.0584557 0)
(0.0275955 0.0622783 0)
(0.0322152 0.0657224 0)
(0.0371721 0.0687645 0)
(0.0425388 0.0713696 0)
(0.048395 0.0734924 0)
(0.054829 0.0750773 0)
(0.0619393 0.0760579 0)
(0.0698364 0.0763568 0)
(0.0786444 0.0758847 0)
(0.0885027 0.0745402 0)
(0.0995678 0.0722094 0)
(0.112015 0.068767 0)
(0.12604 0.0640778 0)
(0.141856 0.0579997 0)
(0.159702 0.0503871 0)
(0.17983 0.041096 0)
(0.202499 0.0299848 0)
(0.228127 0.0169494 0)
(0.256269 0.00171021 0)
(0.290794 -0.0153562 0)
(0.318644 -0.0360385 0)
(0.384978 -0.0571505 0)
(-0.0241246 0.0171403 0)
(-0.0239379 0.022171 0)
(-0.0229948 0.0275001 0)
(-0.0210931 0.0328135 0)
(-0.0185031 0.0379463 0)
(-0.0153864 0.0428035 0)
(-0.0118035 0.0473288 0)
(-0.0077806 0.0514873 0)
(-0.00332245 0.0552529 0)
(0.00158884 0.0586 0)
(0.00699121 0.0614981 0)
(0.0129394 0.0639103 0)
(0.0195032 0.0657906 0)
(0.0267661 0.0670838 0)
(0.0348258 0.0677242 0)
(0.0437939 0.0676349 0)
(0.0537969 0.0667271 0)
(0.0649772 0.0648999 0)
(0.0774936 0.0620404 0)
(0.0915215 0.0580248 0)
(0.107254 0.0527208 0)
(0.124898 0.0459898 0)
(0.144676 0.037692 0)
(0.166821 0.0276905 0)
(0.191563 0.0158533 0)
(0.219235 0.00207927 0)
(0.249448 -0.0139037 0)
(0.285606 -0.0316776 0)
(0.315131 -0.053491 0)
(0.38255 -0.0742221 0)
(-0.0395063 0.0204946 0)
(-0.0401028 0.0228575 0)
(-0.0400954 0.0259467 0)
(-0.0392011 0.0294898 0)
(-0.0375082 0.0332647 0)
(-0.0350955 0.0371015 0)
(-0.0319986 0.0408624 0)
(-0.0282407 0.044435 0)
(-0.0238344 0.0477287 0)
(-0.0187762 0.0506682 0)
(-0.0130442 0.0531876 0)
(-0.0065987 0.0552249 0)
(0.000617577 0.0567174 0)
(0.00867867 0.0575989 0)
(0.0176752 0.0577966 0)
(0.0277139 0.0572294 0)
(0.0389179 0.055806 0)
(0.0514263 0.053425 0)
(0.0653939 0.0499741 0)
(0.0809904 0.0453321 0)
(0.098399 0.0393708 0)
(0.117813 0.0319581 0)
(0.139434 0.0229633 0)
(0.163463 0.0122607 0)
(0.190091 -0.000268805 0)
(0.219561 -0.0147183 0)
(0.251523 -0.031319 0)
(0.288888 -0.0496935 0)
(0.319671 -0.0722302 0)
(0.387191 -0.0925681 0)
(-0.0472787 0.0229818 0)
(-0.0475864 0.0237453 0)
(-0.047449 0.0251773 0)
(-0.0466955 0.0271285 0)
(-0.045263 0.0294466 0)
(-0.0431172 0.0319959 0)
(-0.0402314 0.034644 0)
(-0.0365856 0.0372637 0)
(-0.0321624 0.0397378 0)
(-0.0269409 0.0419608 0)
(-0.0208924 0.043837 0)
(-0.0139766 0.0452778 0)
(-0.00613984 0.046199 0)
(0.00268642 0.0465169 0)
(0.0125863 0.0461459 0)
(0.02366 0.0449956 0)
(0.0360232 0.0429692 0)
(0.0498071 0.0399624 0)
(0.0651568 0.035863 0)
(0.0822299 0.0305524 0)
(0.101193 0.0239079 0)
(0.122219 0.0158063 0)
(0.145479 0.0061283 0)
(0.171134 -0.0052363 0)
(0.199329 -0.0183874 0)
(0.230216 -0.0334039 0)
(0.263458 -0.050461 0)
(0.301481 -0.0692357 0)
(0.332981 -0.0921051 0)
(0.399485 -0.111923 0)
(-0.0449634 0.0235806 0)
(-0.0445665 0.023343 0)
(-0.0437251 0.0236055 0)
(-0.0425043 0.0242932 0)
(-0.0407572 0.0253202 0)
(-0.0383747 0.0266041 0)
(-0.0352875 0.0280503 0)
(-0.0314374 0.029553 0)
(-0.0267704 0.0310026 0)
(-0.0212353 0.0322898 0)
(-0.0147815 0.0333083 0)
(-0.00735442 0.0339547 0)
(0.0011072 0.0341289 0)
(0.0106743 0.0337319 0)
(0.0214292 0.0326651 0)
(0.033467 0.0308277 0)
(0.0468956 0.0281156 0)
(0.0618353 0.0244205 0)
(0.0784174 0.0196298 0)
(0.0967821 0.0136277 0)
(0.117074 0.00629821 0)
(0.139437 -0.00247142 0)
(0.164007 -0.0127858 0)
(0.1909 -0.0247368 0)
(0.220205 -0.0383982 0)
(0.251989 -0.0538288 0)
(0.2859 -0.0711399 0)
(0.323919 -0.090051 0)
(0.355495 -0.112815 0)
(0.419771 -0.131975 0)
(-0.030035 0.0213323 0)
(-0.0287391 0.0204832 0)
(-0.0269348 0.0199628 0)
(-0.0249176 0.0197214 0)
(-0.0224865 0.0197191 0)
(-0.0194916 0.0199144 0)
(-0.0158493 0.0202491 0)
(-0.0114836 0.0206484 0)
(-0.00631656 0.0210259 0)
(-0.000272624 0.0212872 0)
(0.00672075 0.0213328 0)
(0.0147354 0.0210598 0)
(0.0238454 0.0203636 0)
(0.0341289 0.0191385 0)
(0.0456706 0.0172779 0)
(0.0585629 0.0146736 0)
(0.072907 0.0112161 0)
(0.0888111 0.0067938 0)
(0.10639 0.00129461 0)
(0.125763 -0.00539297 0)
(0.147049 -0.0133772 0)
(0.170357 -0.0227584 0)
(0.195784 -0.0336239 0)
(0.223397 -0.0460438 0)
(0.253228 -0.0600649 0)
(0.285261 -0.0757155 0)
(0.319113 -0.0930417 0)
(0.356376 -0.111777 0)
(0.387321 -0.133969 0)
(0.448112 -0.152325 0)
(-0.000647398 0.0157799 0)
(0.00186064 0.0145409 0)
(0.00471768 0.0134758 0)
(0.00767378 0.0125627 0)
(0.0109962 0.0117741 0)
(0.0148384 0.0110892 0)
(0.0192761 0.0104763 0)
(0.0243864 0.00988745 0)
(0.0302559 0.00926054 0)
(0.0369723 0.00852163 0)
(0.0446212 0.00758673 0)
(0.0532868 0.00636352 0)
(0.063053 0.00475351 0)
(0.0740056 0.00265333 0)
(0.0862322 -4.3846e-05 0)
(0.0998233 -0.00344721 0)
(0.114872 -0.00766743 0)
(0.131477 -0.0128157 0)
(0.149734 -0.0190013 0)
(0.169739 -0.0263294 0)
(0.191582 -0.0348983 0)
(0.215338 -0.0447939 0)
(0.24106 -0.0560851 0)
(0.268767 -0.0688175 0)
(0.298431 -0.0830083 0)
(0.329968 -0.0986493 0)
(0.362949 -0.115725 0)
(0.398648 -0.133943 0)
(0.428226 -0.155105 0)
(0.484294 -0.172483 0)
(0.0452222 0.00634843 0)
(0.0484252 0.00488737 0)
(0.0524286 0.00347541 0)
(0.0564648 0.00211107 0)
(0.0607829 0.000766329 0)
(0.0655819 -0.000572609 0)
(0.0709375 -0.00192257 0)
(0.076915 -0.00331362 0)
(0.0835962 -0.00478914 0)
(0.091069 -0.00640451 0)
(0.099422 -0.00822639 0)
(0.108744 -0.010332 0)
(0.119123 -0.0128074 0)
(0.130647 -0.0157464 0)
(0.143404 -0.0192486 0)
(0.157481 -0.0234176 0)
(0.172964 -0.0283591 0)
(0.189936 -0.0341783 0)
(0.208477 -0.0409779 0)
(0.228658 -0.0488544 0)
(0.25054 -0.0578933 0)
(0.274161 -0.0681644 0)
(0.299533 -0.0797159 0)
(0.326629 -0.0925676 0)
(0.355366 -0.106705 0)
(0.385602 -0.122081 0)
(0.416865 -0.138625 0)
(0.450165 -0.155985 0)
(0.477649 -0.175695 0)
(0.527826 -0.191889 0)
(0.108639 -0.00716558 0)
(0.112609 -0.00873597 0)
(0.117593 -0.0103362 0)
(0.122579 -0.0119762 0)
(0.127805 -0.013679 0)
(0.133493 -0.0154569 0)
(0.139712 -0.0173228 0)
(0.14651 -0.0192989 0)
(0.153958 -0.0214174 0)
(0.162134 -0.0237205 0)
(0.171121 -0.02626 0)
(0.181001 -0.0290982 0)
(0.191858 -0.0323068 0)
(0.203776 -0.0359662 0)
(0.216836 -0.0401638 0)
(0.231118 -0.044992 0)
(0.246695 -0.0505461 0)
(0.263638 -0.0569208 0)
(0.282005 -0.0642076 0)
(0.301844 -0.0724899 0)
(0.323186 -0.0818382 0)
(0.346035 -0.0923041 0)
(0.370365 -0.103914 0)
(0.396105 -0.116661 0)
(0.423125 -0.130499 0)
(0.451238 -0.14534 0)
(0.479942 -0.16107 0)
(0.510021 -0.177254 0)
(0.534724 -0.195159 0)
(0.57796 -0.20993 0)
(0.190402 -0.0244638 0)
(0.194956 -0.0260688 0)
(0.200697 -0.0277592 0)
(0.206422 -0.0295458 0)
(0.212356 -0.0314522 0)
(0.218736 -0.0334929 0)
(0.225625 -0.0356812 0)
(0.233055 -0.0380366 0)
(0.24108 -0.0405861 0)
(0.249767 -0.0433641 0)
(0.259183 -0.0464128 0)
(0.269399 -0.0497827 0)
(0.280488 -0.0535327 0)
(0.292521 -0.0577295 0)
(0.305567 -0.0624466 0)
(0.319692 -0.0677624 0)
(0.334956 -0.0737581 0)
(0.351409 -0.0805144 0)
(0.369092 -0.0881076 0)
(0.388025 -0.0966052 0)
(0.408211 -0.10606 0)
(0.429624 -0.116504 0)
(0.452201 -0.12794 0)
(0.475836 -0.140336 0)
(0.500361 -0.153617 0)
(0.525555 -0.167653 0)
(0.550911 -0.1823 0)
(0.576987 -0.197032 0)
(0.598288 -0.21287 0)
(0.633691 -0.22596 0)
(0.290811 -0.0449858 0)
(0.295649 -0.0465649 0)
(0.301814 -0.0482624 0)
(0.307955 -0.0500882 0)
(0.314271 -0.0520671 0)
(0.32101 -0.0542172 0)
(0.328232 -0.0565542 0)
(0.335955 -0.059098 0)
(0.344217 -0.0618737 0)
(0.353068 -0.064912 0)
(0.362561 -0.0682491 0)
(0.372751 -0.0719273 0)
(0.383694 -0.0759952 0)
(0.395444 -0.0805077 0)
(0.408054 -0.0855249 0)
(0.421571 -0.0911108 0)
(0.436036 -0.0973312 0)
(0.45148 -0.104251 0)
(0.467917 -0.111928 0)
(0.485347 -0.120414 0)
(0.503743 -0.129741 0)
(0.52305 -0.139921 0)
(0.543177 -0.150935 0)
(0.563985 -0.162725 0)
(0.585283 -0.175191 0)
(0.60682 -0.188166 0)
(0.628128 -0.201487 0)
(0.649496 -0.214553 0)
(0.666869 -0.228163 0)
(0.693738 -0.239337 0)
(0.40934 -0.067553 0)
(0.414081 -0.0690595 0)
(0.420235 -0.0707026 0)
(0.426364 -0.0724906 0)
(0.432624 -0.0744466 0)
(0.43927 -0.0765914 0)
(0.446363 -0.0789432 0)
(0.453908 -0.0815227 0)
(0.461928 -0.0843546 0)
(0.47046 -0.0874675 0)
(0.47954 -0.090894 0)
(0.489207 -0.0946706 0)
(0.499499 -0.0988384 0)
(0.510452 -0.103443 0)
(0.522098 -0.108532 0)
(0.534464 -0.114156 0)
(0.547571 -0.120367 0)
(0.561424 -0.127214 0)
(0.576018 -0.134737 0)
(0.591324 -0.142968 0)
(0.607293 -0.151923 0)
(0.623843 -0.161591 0)
(0.640859 -0.171935 0)
(0.658179 -0.182874 0)
(0.675597 -0.194287 0)
(0.692837 -0.205976 0)
(0.709522 -0.217774 0)
(0.725596 -0.229025 0)
(0.738641 -0.240355 0)
(0.756504 -0.249439 0)
(0.543958 -0.090431 0)
(0.548181 -0.0918348 0)
(0.553826 -0.0933852 0)
(0.559445 -0.0950884 0)
(0.565145 -0.0969626 0)
(0.571175 -0.0990291 0)
(0.577597 -0.101308 0)
(0.584409 -0.103819 0)
(0.591621 -0.106586 0)
(0.599257 -0.109638 0)
(0.607341 -0.113002 0)
(0.615896 -0.11671 0)
(0.624943 -0.120799 0)
(0.634499 -0.125304 0)
(0.644579 -0.130265 0)
(0.655189 -0.135721 0)
(0.666327 -0.141709 0)
(0.67798 -0.148262 0)
(0.690116 -0.155408 0)
(0.702688 -0.16316 0)
(0.715621 -0.171516 0)
(0.728815 -0.180448 0)
(0.742134 -0.189901 0)
(0.755401 -0.199777 0)
(0.768411 -0.209942 0)
(0.780859 -0.220175 0)
(0.792515 -0.230314 0)
(0.802886 -0.239683 0)
(0.811365 -0.248784 0)
(0.820041 -0.255712 0)
(0.690148 -0.111394 0)
(0.693456 -0.112696 0)
(0.698097 -0.114149 0)
(0.702711 -0.115758 0)
(0.707352 -0.117534 0)
(0.71225 -0.119496 0)
(0.717465 -0.121665 0)
(0.722992 -0.12406 0)
(0.728831 -0.126703 0)
(0.734995 -0.129618 0)
(0.741497 -0.132831 0)
(0.748347 -0.13637 0)
(0.755553 -0.140264 0)
(0.763117 -0.144542 0)
(0.771036 -0.149235 0)
(0.779299 -0.154371 0)
(0.787887 -0.159976 0)
(0.796767 -0.166071 0)
(0.80589 -0.172668 0)
(0.815189 -0.179768 0)
(0.824574 -0.187351 0)
(0.833928 -0.195378 0)
(0.843105 -0.203778 0)
(0.85192 -0.212444 0)
(0.86018 -0.221233 0)
(0.867547 -0.229916 0)
(0.873992 -0.238341 0)
(0.878497 -0.24585 0)
(0.882388 -0.25287 0)
(0.882056 -0.257716 0)
(0.840041 -0.128059 0)
(0.842154 -0.129301 0)
(0.845408 -0.130692 0)
(0.84863 -0.132239 0)
(0.851828 -0.133945 0)
(0.855197 -0.135826 0)
(0.858793 -0.1379 0)
(0.862608 -0.140186 0)
(0.866635 -0.142702 0)
(0.870879 -0.145469 0)
(0.875344 -0.14851 0)
(0.880029 -0.151845 0)
(0.884932 -0.155499 0)
(0.890043 -0.159495 0)
(0.895347 -0.163854 0)
(0.90082 -0.168595 0)
(0.906428 -0.173735 0)
(0.912126 -0.179283 0)
(0.917851 -0.18524 0)
(0.923526 -0.191592 0)
(0.92905 -0.198312 0)
(0.934298 -0.205347 0)
(0.939124 -0.212618 0)
(0.943337 -0.220014 0)
(0.946776 -0.227391 0)
(0.949059 -0.234523 0)
(0.950402 -0.241275 0)
(0.949202 -0.247042 0)
(0.948735 -0.252201 0)
(0.94001 -0.255193 0)
(0.982633 -0.138495 0)
(0.983476 -0.139749 0)
(0.98518 -0.141145 0)
(0.98684 -0.142691 0)
(0.988435 -0.144386 0)
(0.990112 -0.14624 0)
(0.991917 -0.14827 0)
(0.993839 -0.150492 0)
(0.99587 -0.152921 0)
(0.998005 -0.155574 0)
(1.00024 -0.158469 0)
(1.00257 -0.161622 0)
(1.00498 -0.16505 0)
(1.00746 -0.16877 0)
(1.00998 -0.172796 0)
(1.0125 -0.17714 0)
(1.015 -0.181807 0)
(1.0174 -0.186798 0)
(1.01965 -0.192103 0)
(1.02166 -0.197701 0)
(1.02333 -0.203553 0)
(1.02453 -0.209601 0)
(1.02513 -0.215763 0)
(1.02494 -0.221924 0)
(1.02383 -0.227949 0)
(1.02138 -0.233628 0)
(1.01807 -0.23884 0)
(1.0117 -0.243068 0)
(1.00738 -0.246643 0)
(0.991348 -0.248141 0)
(1.1059 -0.141874 0)
(1.10563 -0.143209 0)
(1.10589 -0.144673 0)
(1.10608 -0.146278 0)
(1.10619 -0.148019 0)
(1.10629 -0.149904 0)
(1.10642 -0.151944 0)
(1.10658 -0.154154 0)
(1.10674 -0.156547 0)
(1.10689 -0.159133 0)
(1.10704 -0.161927 0)
(1.10717 -0.16494 0)
(1.10725 -0.168184 0)
(1.10726 -0.171669 0)
(1.10718 -0.175402 0)
(1.10697 -0.179387 0)
(1.10659 -0.183623 0)
(1.10597 -0.188102 0)
(1.10504 -0.192806 0)
(1.10373 -0.197707 0)
(1.10194 -0.202759 0)
(1.09954 -0.207901 0)
(1.09642 -0.213048 0)
(1.09239 -0.218091 0)
(1.08738 -0.222904 0)
(1.08092 -0.227303 0)
(1.07373 -0.231179 0)
(1.06311 -0.234131 0)
(1.05567 -0.236423 0)
(1.03386 -0.236857 0)
(1.20033 -0.138703 0)
(1.19924 -0.140152 0)
(1.19838 -0.141717 0)
(1.19743 -0.143409 0)
(1.19637 -0.145224 0)
(1.19524 -0.147167 0)
(1.19406 -0.149248 0)
(1.19281 -0.151476 0)
(1.19149 -0.153861 0)
(1.19007 -0.156411 0)
(1.18855 -0.159136 0)
(1.18691 -0.162043 0)
(1.18512 -0.165139 0)
(1.18316 -0.168428 0)
(1.18099 -0.171911 0)
(1.17858 -0.175587 0)
(1.17588 -0.179448 0)
(1.17284 -0.183479 0)
(1.16938 -0.187656 0)
(1.16543 -0.191946 0)
(1.1609 -0.196299 0)
(1.15568 -0.200651 0)
(1.14966 -0.20492 0)
(1.14268 -0.209003 0)
(1.13471 -0.212784 0)
(1.12525 -0.216114 0)
(1.1152 -0.218891 0)
(1.10152 -0.220848 0)
(1.09185 -0.222158 0)
(1.06607 -0.221944 0)
(1.26184 -0.13051 0)
(1.26028 -0.132059 0)
(1.25871 -0.133712 0)
(1.25703 -0.135477 0)
(1.25522 -0.137353 0)
(1.25331 -0.139343 0)
(1.25128 -0.141454 0)
(1.24912 -0.143692 0)
(1.24682 -0.146065 0)
(1.24436 -0.148578 0)
(1.24173 -0.151236 0)
(1.2389 -0.154043 0)
(1.23585 -0.157001 0)
(1.23255 -0.160111 0)
(1.22897 -0.163369 0)
(1.22507 -0.166769 0)
(1.2208 -0.170297 0)
(1.21611 -0.173934 0)
(1.21093 -0.177653 0)
(1.20521 -0.181414 0)
(1.19884 -0.185166 0)
(1.19174 -0.188845 0)
(1.18381 -0.192371 0)
(1.17492 -0.195652 0)
(1.16505 -0.198582 0)
(1.15371 -0.201048 0)
(1.14192 -0.202956 0)
(1.12644 -0.204174 0)
(1.11547 -0.20477 0)
(1.0876 -0.20425 0)
(1.29243 -0.119215 0)
(1.2907 -0.120812 0)
(1.2888 -0.122502 0)
(1.28677 -0.124292 0)
(1.28462 -0.126182 0)
(1.28233 -0.128173 0)
(1.27989 -0.130272 0)
(1.27728 -0.132481 0)
(1.27448 -0.134806 0)
(1.27149 -0.13725 0)
(1.26829 -0.139813 0)
(1.26484 -0.142499 0)
(1.26113 -0.145304 0)
(1.25712 -0.148227 0)
(1.25278 -0.15126 0)
(1.24808 -0.154392 0)
(1.24297 -0.157606 0)
(1.23739 -0.160881 0)
(1.2313 -0.164184 0)
(1.22463 -0.167475 0)
(1.21729 -0.170701 0)
(1.20922 -0.173799 0)
(1.20033 -0.176695 0)
(1.19049 -0.179304 0)
(1.17972 -0.181536 0)
(1.16755 -0.183313 0)
(1.15502 -0.184547 0)
(1.13893 -0.185232 0)
(1.12748 -0.185331 0)
(1.0992 -0.184742 0)
(1.2985 -0.106535 0)
(1.2968 -0.108112 0)
(1.29484 -0.109775 0)
(1.29275 -0.111526 0)
(1.29054 -0.113366 0)
(1.28818 -0.115299 0)
(1.28565 -0.117327 0)
(1.28293 -0.119452 0)
(1.28002 -0.121677 0)
(1.27688 -0.124002 0)
(1.27351 -0.126428 0)
(1.26989 -0.128952 0)
(1.26597 -0.131572 0)
(1.26175 -0.13428 0)
(1.25717 -0.137068 0)
(1.25222 -0.139922 0)
(1.24683 -0.142821 0)
(1.24098 -0.145742 0)
(1.2346 -0.14865 0)
(1.22764 -0.151503 0)
(1.22003 -0.154251 0)
(1.2117 -0.156832 0)
(1.20258 -0.159177 0)
(1.19257 -0.161213 0)
(1.18168 -0.162866 0)
(1.1695 -0.164087 0)
(1.15703 -0.164803 0)
(1.14122 -0.165108 0)
(1.12994 -0.164879 0)
(1.10255 -0.164361 0)
(1.28812 -0.0936553 0)
(1.28654 -0.0951518 0)
(1.28468 -0.096725 0)
(1.28269 -0.0983771 0)
(1.28058 -0.10011 0)
(1.27832 -0.101926 0)
(1.2759 -0.103826 0)
(1.27328 -0.105812 0)
(1.27046 -0.107883 0)
(1.26743 -0.110041 0)
(1.26415 -0.112281 0)
(1.26062 -0.114602 0)
(1.25679 -0.116997 0)
(1.25266 -0.119458 0)
(1.24817 -0.121974 0)
(1.24331 -0.124528 0)
(1.23803 -0.127099 0)
(1.23229 -0.12966 0)
(1.22603 -0.132178 0)
(1.21922 -0.13461 0)
(1.21179 -0.136907 0)
(1.20367 -0.139013 0)
(1.19481 -0.140865 0)
(1.18513 -0.142404 0)
(1.17465 -0.143569 0)
(1.163 -0.14434 0)
(1.1511 -0.144663 0)
(1.13617 -0.144702 0)
(1.12547 -0.144274 0)
(1.09985 -0.143894 0)
(1.26863 -0.0811943 0)
(1.2672 -0.082564 0)
(1.2655 -0.0840023 0)
(1.26368 -0.0855105 0)
(1.26174 -0.0870906 0)
(1.25967 -0.0887441 0)
(1.25742 -0.0904718 0)
(1.255 -0.0922739 0)
(1.25238 -0.0941495 0)
(1.24955 -0.0960969 0)
(1.24648 -0.098113 0)
(1.24317 -0.100193 0)
(1.23958 -0.102329 0)
(1.23568 -0.104512 0)
(1.23146 -0.106729 0)
(1.22686 -0.108963 0)
(1.22187 -0.111191 0)
(1.21644 -0.113386 0)
(1.21053 -0.115514 0)
(1.20409 -0.117535 0)
(1.19707 -0.119404 0)
(1.18941 -0.121069 0)
(1.18109 -0.122478 0)
(1.172 -0.123583 0)
(1.16221 -0.124342 0)
(1.15138 -0.124757 0)
(1.14034 -0.124793 0)
(1.12663 -0.124658 0)
(1.11675 -0.124135 0)
(1.09335 -0.123917 0)
(1.2455 -0.0693506 0)
(1.2442 -0.0705647 0)
(1.24267 -0.0718388 0)
(1.24102 -0.0731738 0)
(1.23927 -0.0745712 0)
(1.23738 -0.0760322 0)
(1.23533 -0.0775569 0)
(1.23312 -0.0791447 0)
(1.23072 -0.080794 0)
(1.22812 -0.0825021 0)
(1.2253 -0.084265 0)
(1.22224 -0.086077 0)
(1.21892 -0.08793 0)
(1.21532 -0.0898135 0)
(1.2114 -0.0917136 0)
(1.20714 -0.0936126 0)
(1.2025 -0.0954888 0)
(1.19745 -0.0973153 0)
(1.19196 -0.0990603 0)
(1.18597 -0.100687 0)
(1.17946 -0.102154 0)
(1.17237 -0.103418 0)
(1.16468 -0.104437 0)
(1.15632 -0.105177 0)
(1.14733 -0.105611 0)
(1.13743 -0.105759 0)
(1.12737 -0.105605 0)
(1.11497 -0.105375 0)
(1.106 -0.104839 0)
(1.08495 -0.104783 0)
(1.22218 -0.0580919 0)
(1.22099 -0.0591339 0)
(1.2196 -0.0602269 0)
(1.21812 -0.0613713 0)
(1.21652 -0.0625682 0)
(1.2148 -0.0638184 0)
(1.21293 -0.0651215 0)
(1.21091 -0.0664761 0)
(1.20871 -0.0678804 0)
(1.20633 -0.0693311 0)
(1.20374 -0.0708237 0)
(1.20092 -0.072352 0)
(1.19787 -0.0739077 0)
(1.19454 -0.07548 0)
(1.19093 -0.0770554 0)
(1.18699 -0.0786168 0)
(1.18271 -0.0801434 0)
(1.17805 -0.0816106 0)
(1.17298 -0.0829896 0)
(1.16746 -0.0842481 0)
(1.16147 -0.0853515 0)
(1.15496 -0.0862649 0)
(1.14792 -0.0869566 0)
(1.14029 -0.0874049 0)
(1.13211 -0.0875977 0)
(1.12317 -0.0875671 0)
(1.11409 -0.087311 0)
(1.10298 -0.0870534 0)
(1.09492 -0.0865664 0)
(1.07612 -0.0866543 0)
(1.20063 -0.047291 0)
(1.19953 -0.0481519 0)
(1.19827 -0.0490544 0)
(1.19691 -0.0499985 0)
(1.19545 -0.050985 0)
(1.19387 -0.0520141 0)
(1.19215 -0.0530852 0)
(1.19029 -0.0541967 0)
(1.18826 -0.0553463 0)
(1.18606 -0.0565306 0)
(1.18367 -0.0577452 0)
(1.18108 -0.0589838 0)
(1.17825 -0.0602385 0)
(1.17518 -0.0614991 0)
(1.17183 -0.062753 0)
(1.16819 -0.0639848 0)
(1.16423 -0.0651761 0)
(1.15993 -0.0663053 0)
(1.15525 -0.0673481 0)
(1.15018 -0.0682778 0)
(1.14468 -0.069067 0)
(1.13872 -0.0696895 0)
(1.1323 -0.0701237 0)
(1.12536 -0.0703583 0)
(1.11797 -0.0703924 0)
(1.10991 -0.0702631 0)
(1.10175 -0.069979 0)
(1.09183 -0.0697428 0)
(1.0846 -0.0693446 0)
(1.06781 -0.0695401 0)
(1.182 -0.036792 0)
(1.18096 -0.0374668 0)
(1.1798 -0.0381735 0)
(1.17854 -0.0389123 0)
(1.17718 -0.0396833 0)
(1.17571 -0.0404866 0)
(1.17412 -0.0413213 0)
(1.17238 -0.0421856 0)
(1.1705 -0.0430775 0)
(1.16845 -0.0439938 0)
(1.16623 -0.0449302 0)
(1.16381 -0.0458812 0)
(1.16117 -0.0468398 0)
(1.15831 -0.0477972 0)
(1.1552 -0.0487425 0)
(1.15182 -0.0496629 0)
(1.14814 -0.0505432 0)
(1.14416 -0.0513658 0)
(1.13983 -0.0521117 0)
(1.13515 -0.0527605 0)
(1.13009 -0.0532919 0)
(1.12463 -0.0536879 0)
(1.11876 -0.0539352 0)
(1.11245 -0.0540302 0)
(1.10574 -0.0539788 0)
(1.09847 -0.0538174 0)
(1.09112 -0.0535591 0)
(1.08221 -0.0533734 0)
(1.07571 -0.0530798 0)
(1.06062 -0.0533318 0)
(1.16701 -0.0264307 0)
(1.16603 -0.0269165 0)
(1.16494 -0.0274249 0)
(1.16375 -0.0279558 0)
(1.16247 -0.0285093 0)
(1.16109 -0.0290851 0)
(1.15958 -0.0296824 0)
(1.15795 -0.0302998 0)
(1.15617 -0.0309353 0)
(1.15424 -0.0315865 0)
(1.15215 -0.0322498 0)
(1.14987 -0.0329208 0)
(1.14739 -0.0335941 0)
(1.1447 -0.0342627 0)
(1.14178 -0.0349184 0)
(1.1386 -0.0355514 0)
(1.13516 -0.0361506 0)
(1.13143 -0.0367031 0)
(1.1274 -0.0371953 0)
(1.12305 -0.0376129 0)
(1.11836 -0.0379427 0)
(1.11331 -0.0381732 0)
(1.1079 -0.0382975 0)
(1.10212 -0.0383162 0)
(1.09598 -0.0382376 0)
(1.08935 -0.0380923 0)
(1.08265 -0.0378929 0)
(1.07456 -0.0377675 0)
(1.06865 -0.0375745 0)
(1.0549 -0.0378231 0)
(1.15631 -0.0160326 0)
(1.15536 -0.016327 0)
(1.15432 -0.0166348 0)
(1.15319 -0.016956 0)
(1.15196 -0.0172905 0)
(1.15063 -0.0176381 0)
(1.14919 -0.0179981 0)
(1.14763 -0.0183697 0)
(1.14593 -0.0187514 0)
(1.14408 -0.0191417 0)
(1.14207 -0.0195381 0)
(1.13989 -0.019938 0)
(1.13753 -0.0203376 0)
(1.13496 -0.0207326 0)
(1.13217 -0.0211179 0)
(1.12915 -0.0214874 0)
(1.12588 -0.021834 0)
(1.12235 -0.0221502 0)
(1.11853 -0.0224276 0)
(1.11442 -0.0226581 0)
(1.11 -0.0228341 0)
(1.10526 -0.0229496 0)
(1.1002 -0.0230016 0)
(1.09479 -0.0229921 0)
(1.08907 -0.0229277 0)
(1.0829 -0.0228291 0)
(1.07668 -0.0227044 0)
(1.06917 -0.0226359 0)
(1.06367 -0.022527 0)
(1.05085 -0.022715 0)
(1.15057 -0.00540056 0)
(1.14963 -0.00549949 0)
(1.14861 -0.0056029 0)
(1.14751 -0.00571074 0)
(1.14631 -0.00582298 0)
(1.14502 -0.00593954 0)
(1.14361 -0.00606016 0)
(1.14208 -0.00618453 0)
(1.14042 -0.00631216 0)
(1.13861 -0.00644244 0)
(1.13666 -0.00657459 0)
(1.13453 -0.00670761 0)
(1.13222 -0.00684025 0)
(1.12972 -0.00697101 0)
(1.12701 -0.00709813 0)
(1.12407 -0.0072195 0)
(1.1209 -0.0073328 0)
(1.11747 -0.00743542 0)
(1.11377 -0.00752465 0)
(1.10979 -0.0075978 0)
(1.10552 -0.00765241 0)
(1.10095 -0.00768669 0)
(1.09607 -0.00769986 0)
(1.09087 -0.00769287 0)
(1.08538 -0.00766822 0)
(1.07947 -0.0076334 0)
(1.0735 -0.00759072 0)
(1.0663 -0.00756986 0)
(1.06101 -0.00753373 0)
(1.04869 -0.00760619 0)
(-0.00649214 0.0057345 2.72692e-19)
(-0.0253278 0.0105163 -1.01094e-19)
(-0.0390067 0.0181127 1.04728e-19)
(-0.0464481 0.0227515 -2.69025e-19)
(-0.044012 0.0245734 2.18918e-19)
(-0.0291983 0.023132 -2.11191e-19)
(-0.000262257 0.0178333 4.34919e-20)
(0.0454101 0.00843873 -1.29846e-19)
(0.108503 -0.00489165 2.04133e-19)
(0.18997 -0.0221888 -9.78815e-20)
(0.29024 -0.0427723 -6.94232e-21)
(0.408872 -0.0654464 3.62355e-20)
(0.543871 -0.0884589 1.07758e-20)
(0.690688 -0.109543 -1.95696e-20)
(0.841337 -0.12626 -2.52411e-20)
(0.984631 -0.136648 6.9175e-20)
(1.10838 -0.139889 -8.08725e-20)
(1.203 -0.136548 9.42404e-20)
(1.26444 -0.128219 1.18211e-22)
(1.29479 -0.116871 -3.00342e-20)
(1.30058 -0.104237 -4.31598e-22)
(1.28993 -0.0914885 -1.56189e-20)
(1.27025 -0.0792199 3.16007e-20)
(1.24699 -0.0676056 -3.40319e-20)
(1.22358 -0.056597 6.92729e-21)
(1.20199 -0.0460572 5.43857e-21)
(1.18333 -0.0358253 -1.65513e-21)
(1.16833 -0.0257349 1.03901e-21)
(1.15762 -0.015611 -3.08558e-21)
(1.15187 -0.00525884 1.24102e-21)
(-0.00560986 0.00298096 -4.59164e-20)
(-0.0250937 0.00961419 6.48915e-20)
(-0.038465 0.0175469 -9.77461e-20)
(-0.0444492 0.0229397 -5.51095e-20)
(-0.0400202 0.0252636 -1.73598e-19)
(-0.0230995 0.024136 1.7449e-19)
(0.0084145 0.0191069 7.86297e-20)
(0.0557878 0.00983021 -2.1344e-19)
(0.120711 -0.00373425 1.75867e-19)
(0.204071 -0.0213111 9.09272e-20)
(0.306261 -0.0421675 -1.66877e-19)
(0.426773 -0.0650222 -5.09013e-20)
(0.563401 -0.0879963 9.96306e-20)
(0.711197 -0.108711 5.1424e-21)
(0.861675 -0.124711 -3.48593e-20)
(1.00331 -0.134167 1.85626e-20)
(1.12402 -0.136499 8.77104e-21)
(1.21484 -0.132487 9.0062e-21)
(1.27252 -0.123835 1.12604e-20)
(1.29982 -0.1125 -5.35395e-20)
(1.30352 -0.100124 5.66664e-20)
(1.29169 -0.0877726 -2.96264e-20)
(1.27147 -0.075955 1.41465e-20)
(1.24807 -0.0647999 -7.64989e-22)
(1.22471 -0.0542413 -5.75475e-21)
(1.20324 -0.0441399 9.76962e-21)
(1.18471 -0.0343371 -6.86685e-21)
(1.16983 -0.0246698 1.82356e-21)
(1.15921 -0.0149677 4.37902e-23)
(1.15351 -0.00504285 -1.42565e-22)
(-0.0072454 0.00323138 -3.88145e-21)
(-0.0249079 0.010758 -2.42811e-19)
(-0.0372071 0.018135 1.38379e-19)
(-0.0416144 0.0232543 6.59048e-20)
(-0.0356558 0.025451 9.17186e-20)
(-0.0171595 0.0242383 -1.35504e-19)
(0.0158172 0.0190625 1.09344e-20)
(0.0649001 0.00957504 4.69445e-21)
(0.131407 -0.00429528 -1.3655e-19)
(0.216322 -0.0221707 1.88155e-19)
(0.320072 -0.0432186 -1.31047e-19)
(0.44209 -0.0660373 -8.40794e-21)
(0.579976 -0.0886267 7.83739e-20)
(0.728434 -0.108559 -1.2334e-20)
(0.878585 -0.123471 1.10606e-20)
(1.0187 -0.131751 -1.22992e-20)
(1.13688 -0.133067 -1.35042e-20)
(1.22467 -0.128371 1.42805e-20)
(1.27944 -0.119416 3.53079e-21)
(1.30438 -0.10811 1.41302e-20)
(1.30644 -0.0959962 -4.42803e-22)
(1.29364 -0.0840364 -1.29421e-20)
(1.27295 -0.0726633 2.0298e-21)
(1.24937 -0.0619628 2.85612e-21)
(1.226 -0.0518522 -6.45656e-21)
(1.20459 -0.0421898 4.24675e-22)
(1.18614 -0.0328191 6.99975e-21)
(1.17133 -0.0235806 -2.69488e-21)
(1.16077 -0.0143085 2.62651e-22)
(1.1551 -0.00482124 -1.03178e-22)
(-0.00833926 0.00374865 1.46851e-19)
(-0.0247563 0.0118878 6.84599e-20)
(-0.0356187 0.0187438 1.51843e-20)
(-0.0384798 0.0233757 -1.27535e-19)
(-0.0310876 0.0252348 1.22175e-20)
(-0.0112092 0.0236596 -1.42912e-19)
(0.0230606 0.0180769 1.80099e-19)
(0.0734591 0.00816813 -2.22626e-19)
(0.141319 -0.0060785 1.42094e-19)
(0.227674 -0.0242315 2.73814e-20)
(0.332985 -0.0453549 -1.47633e-19)
(0.456615 -0.0679294 1.08605e-19)
(0.595931 -0.08987 -2.56361e-20)
(0.745238 -0.108763 -2.73107e-21)
(0.895214 -0.122387 1.08299e-20)
(1.0339 -0.129372 1.9191e-20)
(1.14959 -0.129618 9.07784e-21)
(1.23435 -0.124221 1.51414e-20)
(1.28619 -0.114966 3.58739e-20)
(1.30877 -0.103698 -3.01505e-20)
(1.30921 -0.0918526 8.14832e-21)
(1.29546 -0.0802876 -3.07635e-20)
(1.27432 -0.0693594 1.17122e-20)
(1.2506 -0.0591127 -6.78145e-21)
(1.22722 -0.0494496 2.35281e-21)
(1.20587 -0.0402261 1.01572e-20)
(1.1875 -0.0312885 -7.18686e-21)
(1.17276 -0.0224808 1.94045e-21)
(1.16226 -0.013642 4.5573e-23)
(1.15662 -0.00459702 -1.48325e-22)
(-0.00876173 0.00412766 1.93039e-19)
(-0.0242746 0.0125426 -4.55611e-19)
(-0.033772 0.0189438 1.69968e-20)
(-0.0352006 0.0231251 3.91787e-19)
(-0.026347 0.0244995 -6.84393e-20)
(-0.00506329 0.0223974 -3.78077e-19)
(0.0305722 0.0162851 4.36653e-19)
(0.0823023 0.00588261 -4.25084e-19)
(0.151573 -0.00875426 2.69947e-19)
(0.239485 -0.0271193 -5.25485e-22)
(0.346511 -0.0481773 -3.31131e-20)
(0.471897 -0.0703135 6.30426e-21)
(0.612716 -0.0913994 -2.58516e-20)
(0.762818 -0.109078 6.79137e-20)
(0.912433 -0.121301 -1.12002e-19)
(1.04944 -0.126934 7.49273e-20)
(1.16238 -0.126096 -8.7469e-20)
(1.24394 -0.120009 3.97377e-20)
(1.29277 -0.110472 2.16135e-20)
(1.31296 -0.0992582 2.94164e-21)
(1.3118 -0.0876924 -4.55769e-22)
(1.29714 -0.0765271 -1.69072e-20)
(1.27558 -0.0660452 8.44214e-21)
(1.25172 -0.0562527 6.41244e-21)
(1.22835 -0.0470372 -1.03653e-20)
(1.20707 -0.0382529 5.90748e-21)
(1.18878 -0.0297491 -1.79827e-21)
(1.17413 -0.0213737 2.8108e-21)
(1.16368 -0.0129705 -3.40782e-21)
(1.15808 -0.00437097 -1.07188e-22)
(-0.00882887 0.00427251 9.85367e-20)
(-0.0234216 0.01268 1.97402e-19)
(-0.0317338 0.0186888 -4.02756e-19)
(-0.0317796 0.0224202 8.58162e-21)
(-0.021493 0.0232248 1.07331e-19)
(0.0012011 0.0205117 -1.58514e-19)
(0.0382411 0.0138131 2.35278e-19)
(0.0914041 0.00290639 -2.32992e-19)
(0.162221 -0.0120829 1.48723e-19)
(0.251854 -0.0305655 -5.36791e-20)
(0.360756 -0.0514164 3.0374e-21)
(0.488011 -0.0729507 3.84946e-20)
(0.630343 -0.0930293 1.87636e-20)
(0.781118 -0.10938 -4.5825e-20)
(0.930148 -0.120134 1.1285e-20)
(1.0652 -0.124392 1.99233e-20)
(1.17518 -0.122477 9.41383e-21)
(1.2534 -0.115722 1.56761e-20)
(1.29916 -0.105929 -6.17585e-21)
(1.31697 -0.0947899 9.79743e-21)
(1.31422 -0.083516 -3.9914e-20)
(1.29868 -0.0727562 5.11776e-20)
(1.27672 -0.0627228 -2.31379e-20)
(1.25274 -0.053385 -7.02653e-21)
(1.2294 -0.0446173 1.37029e-20)
(1.20819 -0.0362726 -7.92901e-21)
(1.18999 -0.0282032 -2.51322e-23)
(1.17542 -0.0202611 4.25934e-21)
(1.16503 -0.0122951 -2.12222e-21)
(1.15946 -0.00414352 -1.53867e-22)
(-0.00867124 0.00423154 -3.7037e-21)
(-0.0223283 0.0124245 1.77993e-19)
(-0.0295245 0.0180417 -4.05588e-19)
(-0.0282395 0.021278 3.00929e-19)
(-0.0165577 0.0214701 -5.79935e-20)
(0.00755004 0.0181122 -2.23671e-19)
(0.0460379 0.0108116 3.21984e-20)
(0.100738 -0.000583588 -7.2734e-20)
(0.17325 -0.0158694 2.38604e-19)
(0.264777 -0.0343747 -6.39027e-22)
(0.375716 -0.0548969 -1.42226e-19)
(0.504941 -0.0757017 5.99245e-20)
(0.648777 -0.0946612 1.94419e-20)
(0.800092 -0.109603 7.05254e-20)
(0.948307 -0.118846 -1.45566e-19)
(1.08116 -0.12172 1.32377e-19)
(1.18796 -0.118745 -8.2367e-20)
(1.2627 -0.111352 7.34039e-20)
(1.30534 -0.101333 1.59577e-22)
(1.32077 -0.0902918 -3.35186e-20)
(1.31647 -0.0793237 -4.7029e-22)
(1.30007 -0.0689762 -4.32351e-20)
(1.27774 -0.0593939 3.31037e-20)
(1.25366 -0.0505115 -1.01784e-20)
(1.23035 -0.042192 2.78557e-21)
(1.20923 -0.0342871 8.38395e-21)
(1.19113 -0.0266524 -1.86125e-21)
(1.17664 -0.0191443 2.86715e-21)
(1.16632 -0.0116169 -5.04187e-21)
(1.16079 -0.00391502 1.36088e-21)
(-0.00837623 0.00408242 6.05003e-20)
(-0.0210962 0.0119155 -2.10481e-19)
(-0.0271792 0.0170925 6.06357e-20)
(-0.0246085 0.0197781 3.13273e-19)
(-0.0115523 0.0193307 -1.6441e-19)
(0.0139932 0.0153168 2.16953e-20)
(0.0540053 0.00742032 6.76391e-20)
(0.110368 -0.00443343 -2.43817e-19)
(0.184743 -0.0199579 1.55645e-19)
(0.278343 -0.038403 1.45077e-19)
(0.391474 -0.0584982 3.21195e-20)
(0.522745 -0.078474 -1.68671e-19)
(0.668047 -0.0962281 1.95594e-20)
(0.819739 -0.109699 5.74984e-21)
(0.966889 -0.117401 -3.87974e-20)
(1.09728 -0.118894 2.83753e-20)
(1.20069 -0.114884 5.21029e-20)
(1.27184 -0.106891 -3.7009e-20)
(1.31131 -0.0966805 -4.98638e-22)
(1.32436 -0.0857625 -4.70782e-20)
(1.31854 -0.075116 6.28612e-20)
(1.30132 -0.0651884 -3.28941e-20)
(1.27864 -0.05606 1.25261e-20)
(1.25448 -0.0476343 -6.13303e-22)
(1.23122 -0.0397632 -3.77265e-21)
(1.21019 -0.0322984 1.08813e-20)
(1.19219 -0.0250986 -5.73985e-21)
(1.17779 -0.0180249 2.68484e-22)
(1.16754 -0.0109368 -2.89936e-22)
(1.16204 -0.00368582 1.21603e-22)
(-0.0080094 0.00388682 -1.33527e-19)
(-0.0197824 0.0112652 3.20606e-19)
(-0.0247483 0.015931 -4.10837e-19)
(-0.0209119 0.0180167 5.97426e-20)
(-0.00647579 0.0169086 1.70029e-19)
(0.0205586 0.0122366 -2.34646e-19)
(0.0621978 0.00375896 3.42915e-19)
(0.120374 -0.00851935 6.53063e-21)
(0.196791 -0.0242293 -1.08792e-19)
(0.292647 -0.0425442 -1.18533e-19)
(0.408109 -0.0621324 -1.28693e-19)
(0.541478 -0.0811983 2.00957e-19)
(0.688176 -0.0976758 -2.80662e-20)
(0.84005 -0.109625 -6.82218e-20)