/*--------------------------------*- C++ -*----------------------------------*\
  =========                 |
  \\      /  F ield         | OpenFOAM: The Open Source CFD Toolbox
   \\    /   O peration     | Website:  https://openfoam.org
    \\  /    A nd           | Version:  7
     \\/     M anipulation  |
\*---------------------------------------------------------------------------*/
FoamFile
{
    version     2.0;
    format      ascii;
    class       volScalarField;
    location    "2";
    object      rho;
}
// * * * * * * * * * * * * * * * * * * * * * * * * * * * * * * * * * * * * * //

dimensions      [1 -3 0 0 0 0 0];

internalField   nonuniform List<scalar> 
14400
(
0.95314
0.970392
0.990555
1.01196
1.03438
1.05738
1.08124
1.10531
1.13017
1.15457
1.17957
1.20322
1.22751
1.24932
1.27016
1.28821
1.30323
1.31369
1.31971
1.3186
1.31057
1.28986
1.28567
1.28873
1.29715
1.30642
1.30982
1.30711
1.30305
1.30405
1.31295
1.33767
1.36173
1.39143
1.42442
1.44583
1.45161
1.45829
1.4661
1.46916
0.940582
0.941582
0.94371
0.947236
0.95238
0.959511
0.968789
0.980712
0.995136
1.01292
1.03344
1.05759
1.08425
1.11376
1.14482
1.17546
1.20677
1.23329
1.258
1.27553
1.28328
1.29144
1.30132
1.30684
1.31195
1.31112
1.3094
1.3048
1.3041
1.30822
1.31936
1.33723
1.36142
1.39503
1.42822
1.44552
1.45192
1.45882
1.4666
1.46944
0.942446
0.94241
0.942411
0.942435
0.942486
0.942581
0.94278
0.943275
0.94427
0.946059
0.948944
0.95376
0.961105
0.972885
0.989492
1.01351
1.04501
1.08514
1.13318
1.18307
1.23744
1.27855
1.30454
1.30676
1.31056
1.31026
1.30437
1.30597
1.31209
1.32023
1.32489
1.33437
1.36172
1.40405
1.43365
1.4463
1.45365
1.46113
1.46826
1.47044
0.945378
0.945305
0.945181
0.944991
0.944743
0.94448
0.944268
0.944098
0.943993
0.943876
0.943747
0.943643
0.943691
0.944
0.944836
0.946988
0.951487
0.961193
0.977728
1.00773
1.05207
1.11142
1.1795
1.2285
1.27345
1.28901
1.29821
1.31275
1.32634
1.32928
1.32922
1.33308
1.36386
1.41769
1.44021
1.44876
1.4573
1.46366
1.47005
1.47211
0.945793
0.945742
0.945674
0.945612
0.94554
0.945393
0.945233
0.945096
0.944924
0.944713
0.944488
0.944216
0.943934
0.94365
0.943351
0.943092
0.94289
0.942563
0.942889
0.945199
0.951254
0.968385
0.999777
1.0592
1.13246
1.20707
1.27387
1.30671
1.32085
1.32525
1.31963
1.33007
1.37195
1.42456
1.44306
1.45191
1.46063
1.46544
1.47069
1.47332
0.94343
0.943433
0.94345
0.943503
0.943606
0.943674
0.943688
0.943688
0.943684
0.943659
0.943676
0.943733
0.943665
0.943524
0.943361
0.943184
0.94302
0.94291
0.942297
0.941385
0.941355
0.941978
0.944371
0.953814
0.976179
1.02692
1.1009
1.18258
1.24571
1.28116
1.30347
1.33223
1.38658
1.42871
1.44377
1.45697
1.46443
1.4667
1.47071
1.47434
0.941559
0.941635
0.941733
0.941855
0.941999
0.942158
0.942322
0.94247
0.942591
0.942702
0.942854
0.943152
0.943486
0.94374
0.943931
0.944086
0.944376
0.944682
0.9446
0.94429
0.944196
0.944289
0.945028
0.945579
0.946775
0.952132
0.969657
1.01283
1.08673
1.17403
1.26514
1.32384
1.37938
1.40754
1.44065
1.46318
1.46533
1.4681
1.47181
1.47557
0.942521
0.942722
0.942944
0.943166
0.943399
0.94367
0.943945
0.944197
0.944426
0.944642
0.944873
0.945084
0.945291
0.945567
0.9458
0.946026
0.946427
0.946837
0.946832
0.946658
0.946376
0.945868
0.945689
0.945594
0.94495
0.944831
0.946139
0.951853
0.968207
1.01111
1.09085
1.20074
1.30242
1.37854
1.44947
1.4693
1.46719
1.46554
1.47433
1.47843
0.948223
0.948316
0.948337
0.948314
0.948275
0.94823
0.948076
0.947963
0.947925
0.947668
0.947504
0.947447
0.947365
0.94748
0.947768
0.948072
0.948516
0.949044
0.949085
0.948875
0.948454
0.947608
0.94675
0.945491
0.943382
0.943065
0.943735
0.945715
0.947903
0.9531
0.971564
1.02854
1.15256
1.31329
1.43962
1.45949
1.45412
1.46433
1.48085
1.48238
0.950172
0.94988
0.949597
0.949383
0.949166
0.948851
0.948403
0.948222
0.948088
0.947616
0.947207
0.947267
0.947137
0.946587
0.946509
0.94679
0.947239
0.947813
0.947962
0.947848
0.947702
0.947109
0.946096
0.944287
0.942525
0.942545
0.943425
0.945561
0.948483
0.951202
0.953177
0.961399
0.998546
1.11949
1.30045
1.39733
1.44019
1.47481
1.48611
1.48578
0.948017
0.947716
0.947377
0.94698
0.946435
0.945696
0.944805
0.944002
0.942966
0.941406
0.940868
0.940427
0.93946
0.938837
0.938903
0.939526
0.940487
0.941633
0.942687
0.943516
0.943936
0.943236
0.942974
0.942857
0.94335
0.94446
0.94653
0.947807
0.949186
0.950905
0.952698
0.955806
0.963879
0.999343
1.10192
1.27673
1.41694
1.46419
1.48305
1.48853
0.941892
0.941907
0.941899
0.941893
0.941929
0.941844
0.941308
0.940105
0.938894
0.937842
0.936555
0.935038
0.93363
0.932802
0.932679
0.932757
0.933206
0.934295
0.936026
0.93811
0.938948
0.938824
0.939316
0.942867
0.947986
0.950213
0.950081
0.948342
0.946822
0.947178
0.949348
0.952265
0.958899
0.976156
1.01615
1.10859
1.25616
1.36955
1.44648
1.48457
0.94658
0.946965
0.94742
0.947936
0.948116
0.947802
0.946866
0.946555
0.946271
0.945771
0.945189
0.944646
0.943873
0.942982
0.94271
0.942226
0.942187
0.942292
0.941958
0.942396
0.943364
0.944369
0.946867
0.950694
0.953233
0.95306
0.951806
0.948338
0.943686
0.942782
0.943807
0.947592
0.954989
0.971382
1.00335
1.04499
1.10849
1.21795
1.35446
1.46337
0.984347
0.98444
0.984338
0.984018
0.983843
0.983322
0.982165
0.981944
0.98127
0.980922
0.981558
0.981285
0.981186
0.980637
0.978494
0.975564
0.97166
0.966803
0.961356
0.956679
0.954632
0.953747
0.953975
0.954004
0.952654
0.949855
0.946928
0.94474
0.942053
0.941861
0.942578
0.94601
0.954026
0.969177
0.997342
1.03454
1.06118
1.09769
1.1739
1.34278
1.02732
1.02569
1.02355
1.02272
1.02326
1.02337
1.02222
1.01924
1.0151
1.013
1.01361
1.01321
1.01237
1.0134
1.01284
1.01062
1.00702
1.00085
0.996256
0.992967
0.989115
0.983268
0.975277
0.968956
0.962687
0.957498
0.957042
0.958369
0.958596
0.955386
0.95448
0.956674
0.963783
0.976154
0.997837
1.02781
1.05539
1.07571
1.09613
1.20784
1.15285
1.15109
1.14923
1.14724
1.14492
1.14238
1.13921
1.13603
1.13187
1.12761
1.12354
1.11915
1.11414
1.10852
1.10415
1.09974
1.095
1.088
1.0845
1.08536
1.0847
1.07785
1.06616
1.05608
1.04265
1.02961
1.02546
1.02295
1.01862
1.0082
0.997002
0.988699
0.986321
0.988633
0.997246
1.02065
1.05159
1.07522
1.09361
1.13252
1.2945
1.29263
1.28992
1.28741
1.2852
1.28199
1.27761
1.27499
1.27191
1.26743
1.26249
1.25788
1.25301
1.24775
1.24223
1.23562
1.22786
1.21876
1.20861
1.19838
1.18745
1.17328
1.15728
1.14879
1.13893
1.12617
1.11388
1.0946
1.07619
1.06332
1.04997
1.0334
1.01755
1.01434
1.01903
1.03609
1.06282
1.09665
1.11753
1.1407
1.48134
1.47923
1.47633
1.47344
1.4705
1.46662
1.46141
1.45731
1.45324
1.44754
1.44093
1.43417
1.42711
1.41919
1.41038
1.40107
1.39068
1.37961
1.36755
1.35437
1.34114
1.32717
1.31104
1.2937
1.27523
1.25318
1.23881
1.22314
1.19897
1.17572
1.16093
1.14525
1.12579
1.11502
1.114
1.11529
1.12204
1.13665
1.14536
1.15138
1.67375
1.67117
1.66915
1.66733
1.66472
1.66135
1.65768
1.65394
1.64988
1.64509
1.6396
1.63362
1.62701
1.61972
1.61145
1.60222
1.59211
1.58073
1.56787
1.55365
1.53775
1.52029
1.50205
1.48182
1.46085
1.43893
1.41353
1.38616
1.36132
1.33441
1.30596
1.28037
1.25565
1.23188
1.21153
1.19342
1.18213
1.17509
1.17639
1.17479
1.75252
1.75169
1.75066
1.74976
1.74885
1.74759
1.74629
1.7454
1.74429
1.74287
1.74124
1.73936
1.7373
1.73496
1.73228
1.7292
1.72605
1.72205
1.71678
1.71038
1.7024
1.69242
1.68128
1.66878
1.65386
1.6366
1.61712
1.59462
1.56912
1.54228
1.51339
1.48272
1.45184
1.42079
1.39048
1.36205
1.33905
1.3191
1.30312
1.2767
1.74564
1.74551
1.74526
1.74482
1.74427
1.74389
1.74363
1.74327
1.74275
1.74222
1.74163
1.741
1.73995
1.73872
1.73776
1.73662
1.73528
1.73368
1.73169
1.72929
1.7262
1.7223
1.71816
1.71351
1.70771
1.70062
1.69204
1.68162
1.66904
1.65417
1.63671
1.61636
1.5936
1.56835
1.54023
1.51086
1.48175
1.45387
1.42796
1.3789
1.6462
1.64679
1.64755
1.64871
1.6496
1.65053
1.65173
1.65288
1.65409
1.65557
1.65722
1.65878
1.66037
1.66204
1.66369
1.66539
1.66714
1.66876
1.6705
1.67213
1.67352
1.6745
1.67531
1.67521
1.67467
1.67269
1.66947
1.66479
1.65828
1.64919
1.63767
1.62297
1.60477
1.58338
1.55868
1.53176
1.50434
1.47555
1.45206
1.41862
1.47341
1.47398
1.47453
1.47535
1.4764
1.4773
1.47831
1.47952
1.48081
1.48221
1.48381
1.48557
1.4875
1.48964
1.49201
1.49461
1.49746
1.5006
1.50404
1.50786
1.51194
1.51634
1.52093
1.52568
1.53046
1.53516
1.53945
1.54341
1.54643
1.54794
1.54719
1.54424
1.53792
1.52784
1.51423
1.4972
1.47766
1.45698
1.43714
1.41313
1.4053
1.40539
1.4055
1.40559
1.40571
1.40584
1.40599
1.40615
1.40634
1.40655
1.40678
1.40705
1.40736
1.40771
1.4081
1.40856
1.40907
1.40966
1.41035
1.41114
1.41205
1.4131
1.41429
1.41566
1.41722
1.41898
1.42094
1.42302
1.42528
1.42748
1.42947
1.43114
1.43208
1.43174
1.43033
1.42734
1.42266
1.41673
1.41044
1.40359
1.4001
1.4001
1.4001
1.40011
1.40011
1.40011
1.40012
1.40012
1.40012
1.40013
1.40014
1.40014
1.40015
1.40016
1.40017
1.40018
1.4002
1.40022
1.40024
1.40026
1.40029
1.40033
1.40037
1.40042
1.40049
1.40057
1.40066
1.40078
1.40091
1.40107
1.40125
1.40144
1.40163
1.40179
1.40185
1.40179
1.40159
1.40121
1.40074
1.40025
1.40001
1.40001
1.40001
1.40001
1.40001
1.40001
1.40001
1.40001
1.40001
1.40001
1.40001
1.40001
1.40001
1.40001
1.40001
1.40001
1.40001
1.40001
1.40001
1.40001
1.40001
1.40001
1.40001
1.40001
1.40001
1.40001
1.40001
1.40001
1.40002
1.40002
1.40002
1.40002
1.40003
1.40003
1.40003
1.40003
1.40003
1.40003
1.40002
1.40001
1.40001
1.40001
1.40001
1.40001
1.40001
1.40001
1.40001
1.40001
1.40001
1.40001
1.40001
1.40001
1.40001
1.40001
1.40001
1.40001
1.40001
1.40001
1.40001
1.40001
1.40001
1.40001
1.40001
1.40001
1.40001
1.40001
1.40001
1.40001
1.40001
1.40001
1.40001
1.40001
1.40001
1.40001
1.40001
1.40001
1.40001
1.40001
1.40001
1.40001
1.40001
1.40001
1.40001
1.40001
1.40001
1.40001
1.40001
1.40001
1.40001
1.40001
1.40001
1.40001
1.40001
1.40001
1.40001
1.40001
1.40001
1.40001
1.40001
1.40001
1.40001
1.40001
1.40001
1.40001
1.40001
1.40001
1.40001
1.40001
1.40001
1.40001
1.40001
1.40001
1.40001
1.40001
1.40001
1.40001
1.40001
1.40001
1.40001
1.40001
1.40001
1.40001
1.40001
1.40001
1.40001
1.40001
1.40001
1.40001
1.40001
1.40001
1.40001
1.40001
1.40001
1.40001
1.40001
1.40001
1.40001
1.40001
1.40001
1.40001
1.40001
1.40001
1.40001
1.40001
1.40001
1.40001
1.40001
1.40001
1.40001
1.40001
1.40001
1.40001
1.40001
1.40001
1.40001
1.40001
1.40001
1.40001
1.40001
1.40001
1.40001
1.40001
1.40001
1.40001
1.40001
1.40001
1.40001
1.40001
1.40001
1.40001
1.40001
1.40001
1.40001
1.40001
1.40001
1.40001
1.40001
1.40001
1.40001
1.40001
1.40001
1.40001
1.40001
1.40001
1.40001
1.40001
1.40001
1.40001
1.40001
1.40001
1.40001
1.40001
1.40001
1.40001
1.40001
1.40001
1.40001
1.40001
1.40001
1.40001
0.939895
0.94025
0.942558
0.945444
0.94583
0.943437
0.941477
0.942283
0.948117
0.95057
0.94834
0.941855
0.946142
0.98385
1.02903
1.15487
1.29722
1.48431
1.67632
1.75332
1.7458
1.64534
1.47245
1.4052
1.4001
1.40001
1.40001
1.40001
1.40001
1.40001
0.939765
0.940324
0.942826
0.945562
0.945846
0.943409
0.941378
0.942056
0.948068
0.951014
0.948602
0.941489
0.945802
0.983214
1.03164
1.15824
1.30223
1.48993
1.68009
1.75421
1.74608
1.6437
1.47098
1.40502
1.40009
1.40001
1.40001
1.40001
1.40001
1.40001
0.939584
0.940488
0.943103
0.945668
0.945885
0.943402
0.941299
0.941819
0.947951
0.951208
0.948785
0.940797
0.945348
0.982429
1.03485
1.16175
1.3074
1.49571
1.68378
1.75471
1.74642
1.64214
1.46964
1.40485
1.40009
1.40001
1.40001
1.40001
1.40001
1.40001
0.939391
0.940674
0.94341
0.945807
0.945967
0.9434
0.941246
0.941602
0.947738
0.951222
0.948881
0.940186
0.94499
0.98232
1.03959
1.16596
1.3124
1.50112
1.68745
1.75497
1.74647
1.6405
1.4682
1.40467
1.40008
1.40001
1.40001
1.40001
1.40001
1.40001
0.939162
0.940778
0.943685
0.945988
0.946219
0.943405
0.941228
0.941415
0.947399
0.951138
0.948941
0.939785
0.944773
0.982635
1.04457
1.17003
1.31738
1.50677
1.69129
1.75556
1.74639
1.63874
1.46668
1.40449
1.40008
1.40001
1.40001
1.40001
1.40001
1.40001
0.938858
0.940817
0.943895
0.946215
0.946591
0.943471
0.941229
0.941271
0.947071
0.951224
0.949129
0.939653
0.9447
0.984245
1.04956
1.17405
1.32269
1.51315
1.69548
1.75727
1.74642
1.63679
1.46509
1.4043
1.40008
1.40001
1.40001
1.40001
1.40001
1.40001
0.93855
0.940746
0.944035
0.946406
0.946855
0.943703
0.941235
0.941175
0.946706
0.951748
0.949759
0.93967
0.944708
0.988272
1.05482
1.17796
1.32852
1.52
1.69986
1.75884
1.74646
1.63462
1.46342
1.40411
1.40007
1.40001
1.40001
1.40001
1.40001
1.40001
0.938322
0.940704
0.944117
0.94653
0.94702
0.944003
0.94126
0.941128
0.946317
0.952163
0.950362
0.939622
0.94482
0.99202
1.06013
1.18163
1.3349
1.52714
1.70436
1.76015
1.74626
1.63225
1.46167
1.40391
1.40007
1.40001
1.40001
1.40001
1.40001
1.40001
0.938206
0.940706
0.944186
0.946627
0.947118
0.944209
0.94138
0.941111
0.945932
0.95226
0.950767
0.939584
0.945102
0.994106
1.06509
1.18554
1.34198
1.53483
1.70903
1.76141
1.74598
1.62969
1.45983
1.40371
1.40006
1.40001
1.40001
1.40001
1.40001
1.40001
0.938136
0.94077
0.944394
0.946755
0.947241
0.944408
0.941675
0.941162
0.945672
0.952233
0.951108
0.939931
0.945672
0.994787
1.06971
1.19056
1.34975
1.54299
1.71386
1.76263
1.74604
1.62698
1.4579
1.4035
1.40006
1.40001
1.40001
1.40001
1.40001
1.40001
0.938117
0.940944
0.944737
0.946978
0.947433
0.944634
0.941991
0.941482
0.945649
0.951952
0.951385
0.941345
0.94635
0.993779
1.07421
1.1965
1.35782
1.55166
1.71889
1.76375
1.74614
1.62406
1.45587
1.4033
1.40006
1.40001
1.40001
1.40001
1.40001
1.40001
0.938212
0.941146
0.94488
0.947128
0.947596
0.94488
0.942404
0.941921
0.945836
0.951755
0.951623
0.942581
0.946638
0.992313
1.07873
1.20244
1.3662
1.56095
1.72415
1.76479
1.74561
1.62088
1.45377
1.40309
1.40005
1.40001
1.40001
1.40001
1.40001
1.40001
0.938383
0.941159
0.944878
0.9472
0.947725
0.945201
0.942871
0.942357
0.94586
0.951741
0.952008
0.943592
0.946705
0.992697
1.08369
1.20844
1.37502
1.57079
1.72961
1.7658
1.7444
1.61739
1.45158
1.40288
1.40005
1.40001
1.40001
1.40001
1.40001
1.40001
0.938459
0.941159
0.944891
0.947296
0.947868
0.94564
0.943306
0.942719
0.945774
0.951773
0.952717
0.944934
0.94765
0.995843
1.08952
1.21499
1.38465
1.58122
1.73523
1.76685
1.74327
1.61359
1.44931
1.40267
1.40004
1.40001
1.40001
1.40001
1.40001
1.40001
0.938641
0.941316
0.945024
0.947471
0.948006
0.946061
0.943756
0.943076
0.945656
0.951721
0.953249
0.946453
0.950235
1.00043
1.09594
1.22273
1.39538
1.59226
1.7409
1.76797
1.74211
1.60939
1.44695
1.40246
1.40004
1.40001
1.40001
1.40001
1.40001
1.40001
0.939045
0.941465
0.945205
0.947672
0.948128
0.946434
0.944252
0.943512
0.945487
0.951123
0.953558
0.948177
0.952369
1.00609
1.10248
1.23221
1.40721
1.60386
1.74649
1.76913
1.74081
1.60481
1.44452
1.40225
1.40004
1.40001
1.40001
1.40001
1.40001
1.40001
0.939522
0.941631
0.945307
0.947843
0.948336
0.946885
0.944857
0.94402
0.94507
0.949397
0.953653
0.950182
0.954579
1.01333
1.10894
1.24325
1.41974
1.61594
1.75187
1.77026
1.73947
1.59993
1.44201
1.40205
1.40003
1.40001
1.40001
1.40001
1.40001
1.40001
0.939965
0.942109
0.945404
0.947981
0.94872
0.947472
0.945757
0.944637
0.944691
0.947924
0.953531
0.952285
0.957716
1.02045
1.11505
1.25486
1.43282
1.62848
1.7569
1.77131
1.73807
1.59469
1.43944
1.40185
1.40003
1.40001
1.40001
1.40001
1.40001
1.40001
0.940451
0.942649
0.945587
0.948033
0.949056
0.948072
0.947081
0.945384
0.944601
0.946681
0.952831
0.953624
0.959981
1.0264
1.12063
1.26701
1.44674
1.64146
1.76154
1.77232
1.73641
1.58906
1.43682
1.40166
1.40003
1.40001
1.40001
1.40001
1.40001
1.40001
0.941167
0.943153
0.945905
0.947819
0.949267
0.948542
0.94854
0.946283
0.944857
0.945303
0.951657
0.953917
0.961221
1.03247
1.12629
1.28021
1.46212
1.65484
1.76579
1.77348
1.73432
1.58303
1.43415
1.40147
1.40002
1.40001
1.40001
1.40001
1.40001
1.40001
0.94199
0.943683
0.946222
0.94741
0.949396
0.949024
0.949559
0.947449
0.945666
0.943526
0.950377
0.953627
0.962386
1.04089
1.13447
1.2951
1.47903
1.66861
1.76976
1.77488
1.73193
1.57658
1.43144
1.40129
1.40002
1.40001
1.40001
1.40001
1.40001
1.40001
0.943012
0.944141
0.946389
0.947139
0.949375
0.949463
0.950414
0.948412
0.945902
0.941864
0.949204
0.953242
0.965026
1.05216
1.14843
1.31171
1.49701
1.68279
1.77351
1.77612
1.72922
1.56963
1.42871
1.40112
1.40002
1.40001
1.40001
1.40001
1.40001
1.40001
0.94426
0.944582
0.94644
0.946852
0.949219
0.9499
0.951102
0.949119
0.945309
0.940423
0.948292
0.954482
0.972172
1.06421
1.16574
1.3295
1.51599
1.69735
1.77702
1.77676
1.72577
1.56213
1.42598
1.40096
1.40002
1.40001
1.40001
1.40001
1.40001
1.40001
0.945376
0.945073
0.946565
0.94667
0.949046
0.950211
0.951568
0.949594
0.944858
0.939261
0.947249
0.956424
0.980103
1.07483
1.18311
1.34784
1.53638
1.71196
1.78026
1.77709
1.72144
1.55409
1.42328
1.40082
1.40001
1.40001
1.40001
1.40001
1.40001
1.40001
0.946359
0.945632
0.946764
0.946583
0.948936
0.950533
0.9519
0.949966
0.944596
0.93838
0.945815
0.960006
0.988042
1.08286
1.20031
1.36744
1.5587
1.72629
1.78316
1.77771
1.71664
1.54555
1.42062
1.40068
1.40001
1.40001
1.40001
1.40001
1.40001
1.40001
0.947382
0.946211
0.946908
0.946565
0.948914
0.950947
0.952173
0.950378
0.94442
0.937727
0.944077
0.965449
0.996593
1.0882
1.21849
1.3896
1.58204
1.73993
1.78577
1.77796
1.71121
1.53646
1.41803
1.40056
1.40001
1.40001
1.40001
1.40001
1.40001
1.40001
0.948547
0.946875
0.946945
0.946875
0.948947
0.951129
0.952617
0.950988
0.944319
0.937209
0.94253
0.970386
1.00609
1.09316
1.23893
1.41421
1.60631
1.75244
1.78813
1.77774
1.7046
1.52689
1.41554
1.40045
1.40001
1.40001
1.40001
1.40001
1.40001
1.40001
0.949678
0.947752
0.947157
0.94746
0.949069
0.951226
0.953495
0.951992
0.944363
0.936787
0.941758
0.975665
1.0173
1.10683
1.26254
1.44141
1.63155
1.76342
1.79029
1.77783
1.69669
1.51678
1.41316
1.40036
1.40001
1.40001
1.40001
1.40001
1.40001
1.40001
0.950346
0.948632
0.947804
0.948345
0.949587
0.951518
0.954456
0.953393
0.945536
0.93672
0.942006
0.984883
1.02943
1.13242
1.28827
1.47093
1.65735
1.77282
1.79238
1.77935
1.68764
1.50615
1.41092
1.40028
1.40001
1.40001
1.40001
1.40001
1.40001
1.40001
0.95055
0.949167
0.948847
0.949588
0.950516
0.951853
0.955508
0.95509
0.948652
0.938073
0.94464
0.993398
1.04034
1.15725
1.31416
1.50311
1.6834
1.7808
1.79448
1.78048
1.67755
1.49508
1.40886
1.40021
1.40001
1.40001
1.40001
1.40001
1.40001
1.40001
0.950429
0.949452
0.949823
0.951078
0.951867
0.952249
0.956276
0.956983
0.952887
0.941501
0.948459
0.997786
1.0515
1.18307
1.34281
1.53832
1.70892
1.78762
1.79642
1.7779
1.66568
1.48385
1.40702
1.40015
1.40001
1.40001
1.40001
1.40001
1.40001
1.40001
0.949513
0.949635
0.951446
0.95291
0.953317
0.953189
0.956644
0.95841
0.956299
0.946108
0.952
1.00167
1.07055
1.21282
1.37756
1.57574
1.73335
1.79314
1.79826
1.77188
1.65197
1.4726
1.40541
1.40011
1.40001
1.40001
1.40001
1.40001
1.40001
1.40001
0.948311
0.949795
0.953352
0.954936
0.95505
0.954496
0.956284
0.959065
0.958111
0.950316
0.955298
1.00787
1.09867
1.24504
1.41793
1.61514
1.75557
1.79727
1.80066
1.76753
1.6369
1.46148
1.40403
1.40008
1.40001
1.40001
1.40001
1.40001
1.40001
1.40001
0.94665
0.950319
0.954859
0.956963
0.957098
0.956515
0.955914
0.957504
0.958603
0.953541
0.958271
1.02199
1.12989
1.27978
1.4628
1.65486
1.77454
1.80066
1.80344
1.76332
1.61936
1.4505
1.40288
1.40005
1.40001
1.40001
1.40001
1.40001
1.40001
1.40001
0.945807
0.950522
0.955777
0.958525
0.959131
0.958915
0.956085
0.95295
0.958029
0.956559
0.964162
1.04937
1.16386
1.32014
1.5112
1.69405
1.79036
1.80398
1.80489
1.75744
1.59847
1.43999
1.40197
1.40003
1.40001
1.40001
1.40001
1.40001
1.40001
1.40001
0.945705
0.950351
0.956112
0.959528
0.9617
0.961256
0.95588
0.949302
0.954041
0.962105
0.977972
1.07971
1.20158
1.36975
1.56407
1.73165
1.80279
1.80737
1.80453
1.74552
1.57552
1.43041
1.40128
1.40002
1.40001
1.40001
1.40001
1.40001
1.40001
1.40001
0.947679
0.950571
0.95548
0.960165
0.963805
0.963632
0.956977
0.947535
0.951055
0.969676
0.99923
1.1096
1.24767
1.42855
1.62004
1.76448
1.81201
1.81088
1.80265
1.73009
1.55166
1.42211
1.40078
1.40001
1.40001
1.40001
1.40001
1.40001
1.40001
1.40001
0.951844
0.95223
0.954726
0.960552
0.965586
0.966121
0.958962
0.946614
0.950071
0.981909
1.02697
1.14451
1.30446
1.49418
1.67617
1.79049
1.81825
1.81508
1.80114
1.71409
1.52649
1.41505
1.40045
1.40001
1.40001
1.40001
1.40001
1.40001
1.40001
1.40001
0.955486
0.954231
0.955177
0.960223
0.967022
0.968586
0.962448
0.94617
0.951265
0.999183
1.06269
1.19361
1.37096
1.56586
1.7292
1.80883
1.82368
1.81926
1.79956
1.69182
1.49946
1.40945
1.40023
1.40001
1.40001
1.40001
1.40001
1.40001
1.40001
1.40001
0.958027
0.956743
0.957736
0.961048
0.967742
0.969973
0.96607
0.951389
0.957922
1.01892
1.10906
1.26109
1.44887
1.64141
1.77458
1.82043
1.82903
1.82333
1.795
1.66056
1.47312
1.40539
1.40011
1.40001
1.40001
1.40001
1.40001
1.40001
1.40001
1.40001
1.40001
1.40001
1.40001
1.40001
1.40001
1.40001
1.40001
1.40001
1.40001
1.40001
1.40001
1.40001
1.40054
1.42087
1.57376
1.7914
1.86452
1.89821
1.90189
1.89178
1.88379
1.88423
1.88672
1.89234
1.89521
1.89497
1.89191
1.88763
1.87815
1.7996
1.40001
1.40001
1.40001
1.40001
1.40001
1.40001
1.40001
1.40001
1.40001
1.40001
1.40001
1.40001
1.40065
1.42348
1.58145
1.79803
1.86452
1.89795
1.90192
1.89204
1.88421
1.88437
1.88648
1.89215
1.89514
1.89487
1.89172
1.88704
1.86232
1.68664
1.40001
1.40001
1.40001
1.40001
1.40001
1.40001
1.40001
1.40001
1.40001
1.40001
1.40001
1.40001
1.40077
1.42603
1.58938
1.80447
1.86596
1.89734
1.90186
1.89228
1.8847
1.88444
1.88629
1.89197
1.89502
1.89474
1.89148
1.88533
1.83332
1.57274
1.40001
1.40001
1.40001
1.40001
1.40001
1.40001
1.40001
1.40001
1.40001
1.40001
1.40001
1.40001
1.40092
1.42921
1.60092
1.81098
1.86827
1.89734
1.90168
1.89264
1.88527
1.8844
1.88608
1.89176
1.89485
1.8946
1.89114
1.88171
1.79565
1.45994
1.40001
1.40001
1.40001
1.40001
1.40001
1.40001
1.40001
1.40001
1.40001
1.40001
1.40001
1.40002
1.40112
1.43333
1.61258
1.8177
1.86924
1.89727
1.90136
1.89289
1.88566
1.88426
1.88585
1.89141
1.89465
1.89441
1.89057
1.87456
1.7453
1.35725
1.40001
1.40001
1.40001
1.40001
1.40001
1.40001
1.40001
1.40001
1.40001
1.40001
1.40001
1.40002
1.40137
1.43776
1.62377
1.8244
1.87014
1.89684
1.9009
1.89294
1.88585
1.88405
1.88568
1.89112
1.89441
1.89422
1.88953
1.8622
1.69025
1.25792
1.40001
1.40001
1.40001
1.40001
1.40001
1.40001
1.40001
1.40001
1.40001
1.40001
1.40001
1.40002
1.40169
1.44288
1.63619
1.82965
1.87116
1.89654
1.90029
1.89289
1.88589
1.88393
1.88552
1.89085
1.89417
1.89402
1.88746
1.84234
1.62774
1.1672
1.40001
1.40001
1.40001
1.40001
1.40001
1.40001
1.40001
1.40001
1.40001
1.40001
1.40001
1.40003
1.40209
1.44886
1.64928
1.83427
1.87143
1.89615
1.89956
1.89273
1.88588
1.88394
1.88538
1.8905
1.89391
1.8937
1.88349
1.81345
1.56112
1.0845
1.40001
1.40001
1.40001
1.40001
1.40001
1.40001
1.40001
1.40001
1.40001
1.40001
1.40001
1.40004
1.40262
1.45583
1.66321
1.84019
1.87179
1.89543
1.89863
1.89254
1.88588
1.884
1.88541
1.89011
1.89361
1.89305
1.87603
1.77402
1.49577
1.00792
1.40001
1.40001
1.40001
1.40001
1.40001
1.40001
1.40001
1.40001
1.40001
1.40001
1.40001
1.40005
1.4033
1.46372
1.67764
1.84642
1.87309
1.89494
1.89737
1.89245
1.88597
1.88407
1.88546
1.88969
1.89326
1.89168
1.86306
1.72496
1.42871
0.939625
1.40001
1.40001
1.40001
1.40001
1.40001
1.40001
1.40001
1.40001
1.40001
1.40001
1.40001
1.40007
1.40418
1.47283
1.69278
1.85213
1.87385
1.89455
1.89638
1.89252
1.88622
1.8842
1.88541
1.88923
1.89284
1.889
1.84227
1.66496
1.3605
0.887979
1.40001
1.40001
1.40001
1.40001
1.40001
1.40001
1.40001
1.40001
1.40001
1.40001
1.40001
1.40009
1.40531
1.4831
1.70709
1.85781
1.87384
1.89389
1.89637
1.89273
1.88663
1.88439
1.88539
1.88877
1.89228
1.88356
1.811
1.59838
1.30229
0.840042
1.40001
1.40001
1.40001
1.40001
1.40001
1.40001
1.40001
1.40001
1.40001
1.40001
1.40001
1.40012
1.40679
1.49491
1.72207
1.86295
1.87389
1.89302
1.89666
1.89316
1.88726
1.88464
1.88551
1.88832
1.89139
1.87381
1.76868
1.5261
1.24108
0.798886
1.40001
1.40001
1.40001
1.40001
1.40001
1.40001
1.40001
1.40001
1.40001
1.40001
1.40001
1.40017
1.40873
1.50819
1.73623
1.86705
1.87439
1.89222
1.89721
1.89389
1.88812
1.88498
1.88553
1.8875
1.88974
1.85615
1.71339
1.45049
1.18834
0.783282
1.40001
1.40001
1.40001
1.40001
1.40001
1.40001
1.40001
1.40001
1.40001
1.40001
1.40001
1.40024
1.41121
1.52318
1.75122
1.87153
1.87472
1.89141
1.8978
1.89499
1.88924
1.8854
1.88553
1.88717
1.88558
1.82934
1.64893
1.37461
1.14073
0.769246
1.40001
1.40001
1.40001
1.40001
1.40001
1.40001
1.40001
1.40001
1.40001
1.40001
1.40001
1.40035
1.4145
1.54015
1.76724
1.87736
1.87473
1.88979
1.89809
1.89608
1.89066
1.88594
1.88568
1.88677
1.87684
1.78886
1.57513
1.30175
1.09834
0.771585
1.40001
1.40001
1.40001
1.40001
1.40001
1.40001
1.40001
1.40001
1.40001
1.40001
1.40001
1.4005
1.41865
1.55919
1.78228
1.88062
1.87522
1.88755
1.89801
1.89662
1.89191
1.8865
1.88564
1.8858
1.86104
1.73689
1.49951
1.23022
1.05673
0.776828
1.40001
1.40001
1.40001
1.40001
1.40001
1.40001
1.40001
1.40001
1.40001
1.40001
1.40001
1.40073
1.42422
1.58005
1.79781
1.88293
1.87596
1.88545
1.89743
1.89688
1.89269
1.88699
1.88574
1.88253
1.8345
1.67143
1.42046
1.16445
1.02606
0.793101
1.40001
1.40001
1.40001
1.40001
1.40001
1.40001
1.40001
1.40001
1.40001
1.40001
1.40002
1.40108
1.43119
1.60277
1.81025
1.88556
1.87615
1.88284
1.89617
1.89658
1.89313
1.88707
1.88553
1.87464
1.79503
1.59781
1.34539
1.10194
1.00197
0.827842
1.40001
1.40001
1.40001
1.40001
1.40001
1.40001
1.40001
1.40001
1.40001
1.40001
1.40002
1.40162
1.44031
1.62648
1.8215
1.88955
1.87637
1.88095
1.89444
1.89577
1.89332
1.88694
1.88439
1.85902
1.74157
1.51893
1.27144
1.04164
0.980464
0.86728
1.40001
1.40001
1.40001
1.40001
1.40001
1.40001
1.40001
1.40001
1.40001
1.40001
1.40004
1.40242
1.45143
1.65163
1.83438
1.89211
1.87698
1.8803
1.89328
1.89534
1.89337
1.88649
1.88078
1.83131
1.67429
1.43615
1.20826
1.00239
0.959353
0.899684
1.40001
1.40001
1.40001
1.40001
1.40001
1.40001
1.40001
1.40001
1.40001
1.40001
1.40006
1.40365
1.46561
1.67695
1.84333
1.89275
1.87832
1.88001
1.89268
1.8954
1.89346
1.88566
1.87174
1.7897
1.59924
1.35724
1.14834
0.967226
0.937007
0.93732
1.40001
1.40001
1.40001
1.40001
1.40001
1.40001
1.40001
1.40001
1.40001
1.40001
1.4001
1.40549
1.48217
1.70095
1.85118
1.89404
1.88035
1.88003
1.89236
1.89563
1.89362
1.88376
1.85413
1.73166
1.51409
1.27912
1.10354
0.950383
0.9257
0.964461
1.40001
1.40001
1.40001
1.40001
1.40001
1.40001
1.40001
1.40001
1.40001
1.40001
1.40017
1.40818
1.50246
1.72645
1.85873
1.89608
1.88211
1.88059
1.89209
1.89563
1.89347
1.87889
1.82274
1.66191
1.43326
1.20708
1.05839
0.94384
0.925523
0.978894
1.40001
1.40001
1.40001
1.40001
1.40001
1.40001
1.40001
1.40001
1.40001
1.40001
1.40029
1.41228
1.52612
1.75055
1.86522
1.89773
1.88233
1.88126
1.89142
1.8953
1.89262
1.86781
1.77681
1.58049
1.34798
1.14298
1.032
0.945841
0.929372
0.986699
1.40001
1.40001
1.40001
1.40001
1.40001
1.40001
1.40001
1.40001
1.40001
1.40001
1.4005
1.418
1.55359
1.77326
1.86944
1.8978
1.88248
1.88069
1.88958
1.89414
1.88976
1.84559
1.7141
1.49707
1.27274
1.08579
1.00836
0.949257
0.940858
0.988533
1.40001
1.40001
1.40001
1.40001
1.40001
1.40001
1.40001
1.40001
1.40001
1.40002
1.40088
1.42658
1.58408
1.79572
1.87214
1.8975
1.88304
1.87868
1.88628
1.89182
1.88198
1.80905
1.63891
1.40968
1.20246
1.03804
0.993857
0.956451
0.95725
0.98863
1.40001
1.40001
1.40001
1.40001
1.40001
1.40001
1.40001
1.40001
1.40001
1.40002
1.40155
1.438
1.61743
1.8154
1.87468
1.89664
1.88279
1.87639
1.88214
1.88788
1.86484
1.75426
1.55477
1.32969
1.14231
0.998202
0.979622
0.964524
0.974212
0.990955
1.40001
1.40001
1.40001
1.40001
1.40001
1.40001
1.40001
1.40001
1.40001
1.40005
1.40275
1.45414
1.65194
1.8293
1.87605
1.89496
1.88136
1.87363
1.87675
1.88151
1.83337
1.68473
1.46783
1.2507
1.09223
0.973594
0.964575
0.973869
0.98522
0.994603
1.40001
1.40001
1.40001
1.40001
1.40001
1.40001
1.40001
1.40001
1.40001
1.40009
1.4048
1.47453
1.68591
1.84206
1.87601
1.89228
1.87854
1.8704
1.87292
1.86748
1.78466
1.60151
1.38031
1.18323
1.05474
0.958977
0.951777
0.982354
0.992559
0.999427
1.40001
1.40001
1.40001
1.40001
1.40001
1.40001
1.40001
1.40001
1.40001
1.40018
1.40828
1.50083
1.72058
1.85009
1.87483
1.88874
1.87649
1.86768
1.86712
1.84101
1.71894
1.51556
1.29954
1.11903
1.02135
0.952905
0.949143
0.981962
0.992295
0.999358
1.40001
1.40001
1.40001
1.40001
1.40001
1.40001
1.40001
1.40001
1.40001
1.40036
1.41395
1.53228
1.7506
1.85804
1.87181
1.88397
1.87438
1.86382
1.85563
1.79862
1.63805
1.42295
1.22496
1.06914
1.00091
0.954118
0.951868
0.982687
0.990047
0.997237
1.40001
1.40001
1.40001
1.40001
1.40001
1.40001
1.40001
1.40001
1.40001
1.40074
1.42286
1.56841
1.77937
1.86182
1.86615
1.87732
1.87033
1.85769
1.83363
1.73691
1.55102
1.34199
1.15875
1.0215
0.986421
0.960228
0.956553
0.981403
0.985032
0.991251
1.40001
1.40001
1.40001
1.40001
1.40001
1.40001
1.40001
1.40001
1.40003
1.40152
1.43639
1.60815
1.79902
1.86057
1.85948
1.86932
1.86409
1.84799
1.79801
1.66167
1.45904
1.25927
1.10415
0.986211
0.97341
0.972414
0.965692
0.982303
0.979735
0.979236
1.40001
1.40001
1.40001
1.40001
1.40001
1.40001
1.40001
1.40001
1.40005
1.40303
1.45523
1.64808
1.81459
1.85786
1.85295
1.86124
1.85675
1.83162
1.7454
1.57456
1.37209
1.1907
1.05944
0.966345
0.96087
0.972185
0.972631
0.981443
0.974592
0.967196
1.40001
1.40001
1.40001
1.40001
1.40001
1.40001
1.40001
1.40001
1.40012
1.40586
1.48084
1.68608
1.8243
1.85375
1.84661
1.85371
1.84796
1.80394
1.67641
1.48489
1.29103
1.12681
1.02853
0.955334
0.94981
0.970573
0.97991
0.978621
0.969018
0.957936
1.40001
1.40001
1.40001
1.40001
1.40001
1.40001
1.40001
1.40001
1.40027
1.41089
1.51208
1.71829
1.828
1.84896
1.84176
1.8469
1.83447
1.75962
1.59691
1.39544
1.21309
1.07408
1.00452
0.952649
0.950141
0.969792
0.978548
0.975025
0.96299
0.952655
1.40001
1.40001
1.40001
1.40001
1.40001
1.40001
1.40001
1.40001
1.40061
1.41914
1.54782
1.74736
1.82923
1.84428
1.83752
1.83981
1.81067
1.69764
1.50825
1.31193
1.15211
1.02878
0.987237
0.955945
0.9519
0.968393
0.97568
0.97064
0.960476
0.953061
1.40001
1.40001
1.40001
1.40001
1.40001
1.40001
1.40001
1.40002
1.40133
1.43194
1.58749
1.76711
1.82803
1.83988
1.83281
1.82806
1.77102
1.62151
1.42134
1.2368
1.09422
0.987977
0.973376
0.965655
0.95649
0.966472
0.971295
0.965471
0.959542
0.956007
1.40001
1.40001
1.40001
1.40001
1.40001
1.40001
1.40001
1.40005
1.40278