/*--------------------------------*- C++ -*----------------------------------*\
  =========                 |
  \\      /  F ield         | OpenFOAM: The Open Source CFD Toolbox
   \\    /   O peration     | Website:  https://openfoam.org
    \\  /    A nd           | Version:  7
     \\/     M anipulation  |
\*---------------------------------------------------------------------------*/
FoamFile
{
    version     2.0;
    format      ascii;
    class       volScalarField;
    location    "9.5";
    object      T;
}
// * * * * * * * * * * * * * * * * * * * * * * * * * * * * * * * * * * * * * //

dimensions      [0 0 0 1 0 0 0];

internalField   nonuniform List<scalar> 
90000
(
0.914616
0.921508
0.928318
0.934692
0.940318
0.945694
0.950718
0.955799
0.960716
0.96582
0.970825
0.976019
0.980982
0.986046
0.990733
0.995477
0.999728
1.00402
1.00774
1.0115
1.01459
1.01771
1.02011
1.02246
1.02408
1.02556
1.02641
1.02704
1.02695
1.02661
1.026
1.0252
1.02411
1.02289
1.02091
1.01939
1.01821
1.01817
1.0184
1.01875
1.0191
1.01956
1.02019
1.02066
1.02108
1.02101
1.02067
1.02
1.01926
1.01876
1.0186
1.01874
1.01914
1.01937
1.01969
1.01993
1.01981
1.01949
1.01905
1.0187
1.01878
1.01903
1.01936
1.01932
1.0192
1.01898
1.01871
1.01865
1.01875
1.01875
1.01871
1.01861
1.01839
1.01823
1.01819
1.01812
1.01808
1.01802
1.01792
1.01783
1.01772
1.01764
1.01759
1.01753
1.01743
1.01734
1.01724
1.01715
1.0171
1.01709
1.0171
1.0171
1.01707
1.01698
1.01685
1.0167
1.01657
1.01648
1.01641
1.01627
0.908762
0.909207
0.910061
0.911323
0.913015
0.915062
0.917479
0.920202
0.923296
0.926645
0.93033
0.9342
0.93843
0.942786
0.94749
0.952227
0.957254
0.962195
0.967333
0.972299
0.977313
0.982118
0.986776
0.991258
0.995312
0.999332
1.00267
1.006
1.00845
1.01075
1.01227
1.0136
1.0148
1.01672
1.01867
1.01994
1.02057
1.02041
1.02019
1.01994
1.01942
1.01871
1.018
1.01749
1.01734
1.01743
1.01754
1.01775
1.01792
1.01805
1.01808
1.018
1.01774
1.01745
1.01713
1.01701
1.01707
1.01721
1.01759
1.01794
1.01797
1.01789
1.01771
1.01745
1.01744
1.0176
1.01775
1.01774
1.0176
1.01743
1.01732
1.01743
1.01748
1.01739
1.01722
1.01703
1.01709
1.01714
1.01709
1.01696
1.01687
1.01686
1.01683
1.01674
1.01665
1.01662
1.01657
1.01651
1.01646
1.01643
1.01644
1.0165
1.01649
1.01643
1.01634
1.01622
1.01609
1.016
1.01593
1.01583
0.907864
0.907844
0.907824
0.907801
0.907805
0.90783
0.907895
0.908015
0.908214
0.908507
0.908934
0.909511
0.910301
0.911311
0.912644
0.914281
0.916378
0.918856
0.921956
0.925474
0.929743
0.934387
0.939842
0.945558
0.951995
0.958539
0.965537
0.972501
0.979445
0.986294
0.992506
0.998733
1.00376
1.00758
1.01
1.01221
1.01327
1.01391
1.01424
1.01439
1.01437
1.0141
1.0135
1.01261
1.01266
1.01301
1.0138
1.01478
1.01548
1.01581
1.01563
1.01509
1.01434
1.01365
1.01305
1.0131
1.01359
1.01449
1.01516
1.01556
1.01538
1.015
1.01452
1.01453
1.01482
1.01522
1.01542
1.01528
1.01504
1.01485
1.01496
1.0152
1.01527
1.0152
1.01509
1.01502
1.01506
1.01509
1.01508
1.01505
1.01505
1.01506
1.01505
1.01503
1.015
1.01498
1.01497
1.01495
1.01495
1.01499
1.01505
1.01506
1.01511
1.0151
1.01506
1.01499
1.01491
1.01484
1.01479
1.01474
0.906655
0.906631
0.906602
0.906572
0.906536
0.9065
0.906465
0.906432
0.9064
0.906366
0.906332
0.906302
0.906277
0.90625
0.906263
0.906306
0.906398
0.906557
0.906816
0.907209
0.907814
0.908666
0.909925
0.9116
0.913974
0.916936
0.92096
0.925656
0.93168
0.938275
0.946092
0.954222
0.962909
0.971295
0.978677
0.985856
0.991038
0.996163
0.999102
1.00157
1.0033
1.0047
1.00605
1.00827
1.01001
1.01152
1.01233
1.01279
1.01275
1.01258
1.01208
1.01138
1.01071
1.01025
1.01037
1.01083
1.01135
1.01175
1.01186
1.0118
1.01169
1.01157
1.01163
1.01185
1.01205
1.01216
1.01213
1.01205
1.01197
1.01206
1.01219
1.0123
1.01239
1.01237
1.01237
1.01235
1.01235
1.01239
1.01245
1.0125
1.01256
1.0126
1.01265
1.01265
1.01266
1.01269
1.01273
1.01279
1.01285
1.01291
1.01295
1.013
1.01309
1.01317
1.01319
1.01318
1.01313
1.01308
1.01307
1.01309
0.90528
0.905262
0.905243
0.905223
0.905202
0.90518
0.905155
0.905125
0.905092
0.905059
0.905025
0.904993
0.904961
0.904932
0.90489
0.904845
0.904805
0.904767
0.904729
0.904691
0.904659
0.904625
0.904626
0.904651
0.904753
0.904958
0.905338
0.90595
0.906988
0.908511
0.910945
0.914209
0.919073
0.924972
0.932933
0.941597
0.951694
0.9618
0.971654
0.981024
0.98841
0.995534
1.00049
1.00386
1.00534
1.00673
1.00754
1.0082
1.00798
1.00731
1.00681
1.00717
1.00787
1.00886
1.00951
1.00974
1.00953
1.00903
1.00867
1.00842
1.00851
1.00895
1.00958
1.00993
1.00983
1.00956
1.0093
1.00932
1.00951
1.0098
1.00981
1.00976
1.00978
1.00985
1.00998
1.01007
1.01002
1.01
1.01005
1.01015
1.01023
1.01027
1.0103
1.01034
1.01039
1.01044
1.01051
1.01058
1.01068
1.01076
1.01083
1.01089
1.01098
1.01108
1.01116
1.01118
1.01116
1.01113
1.01115
1.01122
0.904104
0.904092
0.90408
0.904067
0.904053
0.904038
0.904022
0.904005
0.903988
0.903969
0.903951
0.903931
0.903911
0.903889
0.903867
0.903842
0.903814
0.903785
0.903756
0.903727
0.903699
0.903675
0.90365
0.903641
0.903611
0.903572
0.903539
0.903512
0.903496
0.903511
0.903577
0.903762
0.904177
0.904927
0.906374
0.908618
0.912496
0.917716
0.92547
0.934425
0.945469
0.956831
0.967633
0.977755
0.984826
0.991453
0.994668
0.998236
0.999831
1.00169
1.00373
1.00654
1.00832
1.00949
1.00947
1.00925
1.00854
1.00758
1.00684
1.00688
1.00733
1.00798
1.00856
1.00851
1.00827
1.00791
1.00773
1.00787
1.00815
1.00843
1.00843
1.00832
1.0082
1.00826
1.00839
1.00851
1.00846
1.0084
1.00844
1.00854
1.00863
1.00867
1.00868
1.00871
1.00877
1.00881
1.00887
1.00896
1.00906
1.00913
1.00917
1.00922
1.00929
1.00941
1.0095
1.00956
1.00955
1.00951
1.00953
1.00961
0.903328
0.903321
0.903313
0.903305
0.903296
0.903287
0.903278
0.903268
0.903257
0.903246
0.903236
0.903225
0.903214
0.903203
0.903191
0.903179
0.903166
0.903152
0.903137
0.903122
0.903106
0.903089
0.90307
0.903051
0.903031
0.903011
0.902992
0.902975
0.902961
0.90295
0.902958
0.902938
0.902912
0.902894
0.902909
0.902967
0.903131
0.903552
0.904552
0.906323
0.909793
0.914795
0.922931
0.932548
0.945006
0.957416
0.969536
0.980734
0.989178
0.997481
1.00171
1.00454
1.00603
1.0075
1.00736
1.00651
1.00552
1.00581
1.00648
1.00729
1.00799
1.00784
1.00755
1.00708
1.0068
1.00687
1.00719
1.00761
1.00766
1.00757
1.00749
1.00747
1.00753
1.00763
1.00767
1.00766
1.00765
1.00766
1.0077
1.0077
1.00771
1.00772
1.00775
1.00779
1.00783
1.00786
1.00791
1.00799
1.00807
1.00812
1.00814
1.00817
1.00821
1.00829
1.00839
1.00844
1.00844
1.0084
1.0084
1.00846
0.902901
0.902895
0.90289
0.902884
0.902879
0.902874
0.902868
0.902862
0.902855
0.902848
0.902841
0.902835
0.902829
0.902821
0.902813
0.902805
0.902796
0.902788
0.902779
0.90277
0.902761
0.902753
0.902744
0.902734
0.902723
0.902713
0.902702
0.90269
0.902679
0.902669
0.902656
0.902651
0.902645
0.902639
0.90264
0.902647
0.902676
0.902658
0.90266
0.902691
0.902807
0.90315
0.904065
0.905854
0.909683
0.915386
0.924964
0.935965
0.949773
0.963256
0.974915
0.985425
0.990901
0.996709
0.998947
1.00138
1.00388
1.00682
1.00865
1.00877
1.00857
1.00771
1.00615
1.00607
1.00621
1.00681
1.00754
1.00768
1.00746
1.00712
1.00693
1.00704
1.00727
1.00743
1.00733
1.00723
1.00727
1.00737
1.00741
1.00739
1.0073
1.00729
1.00732
1.00738
1.00741
1.00743
1.00748
1.00754
1.00758
1.00761
1.00761
1.00762
1.00765
1.0077
1.00778
1.00784
1.00783
1.00778
1.00775
1.00779
0.902665
0.902661
0.902658
0.902654
0.902651
0.902647
0.902643
0.902639
0.902634
0.902628
0.902623
0.902619
0.902613
0.902607
0.902602
0.902596
0.902589
0.902582
0.902575
0.902568
0.902561
0.902555
0.902549
0.902543
0.902536
0.90253
0.902524
0.902518
0.902512
0.902508
0.902503
0.902499
0.902495
0.902492
0.902489
0.90249
0.902494
0.902504
0.902517
0.902532
0.902573
0.902565
0.902573
0.902614
0.902761
0.903207
0.904458
0.906896
0.912127
0.919613
0.931743
0.945161
0.960278
0.97445
0.985656
0.99661
1.00187
1.00522
1.00686
1.00745
1.00649
1.00493
1.00517
1.00603
1.00697
1.00752
1.00759
1.0073
1.00664
1.00663
1.0068
1.00716
1.00729
1.00721
1.00707
1.00707
1.00717
1.00729
1.00726
1.00719
1.0071
1.00711
1.00715
1.00718
1.00721
1.00724
1.00729
1.00733
1.00734
1.00735
1.00735
1.00736
1.00737
1.00739
1.00744
1.0075
1.00749
1.00747
1.00742
1.00743
0.902525
0.902523
0.90252
0.902516
0.902512
0.902509
0.902506
0.902502
0.902498
0.902492
0.902487
0.902483
0.902476
0.902471
0.902467
0.902462
0.902453
0.902446
0.902441
0.902434
0.902428
0.902422
0.902417
0.902413
0.902408
0.902404
0.9024
0.902395
0.902393
0.902393
0.902394
0.902396
0.902398
0.9024
0.902403
0.902408
0.902414
0.902424
0.902434
0.902445
0.90246
0.902483
0.902509
0.902536
0.902594
0.902588
0.902601
0.90268
0.902989
0.903799
0.906004
0.910075
0.918448
0.929273
0.944637
0.960261
0.973995
0.986287
0.992142
0.998138
1.00022
1.00386
1.00619
1.0083
1.00829
1.00806
1.00714
1.00601
1.00608
1.00657
1.0073
1.00741
1.00723
1.0068
1.00682
1.007
1.00724
1.00726
1.00718
1.00706
1.00701
1.00704
1.00707
1.00708
1.0071
1.00716
1.00721
1.00721
1.0072
1.0072
1.00723
1.00723
1.00723
1.00724
1.00725
1.00731
1.00731
1.0073
1.00728
1.00724
0.902427
0.902425
0.902422
0.902417
0.902413
0.90241
0.902407
0.902402
0.902398
0.902393
0.902389
0.902384
0.902378
0.902373
0.902368
0.902362
0.902354
0.902349
0.902344
0.902337
0.902331
0.902326
0.902322
0.902318
0.902314
0.902311
0.90231
0.902311
0.902312
0.902315
0.902321
0.902326
0.902332
0.902339
0.902347
0.902356
0.902369
0.902377
0.902384
0.902393
0.902402
0.902412
0.902427
0.902445
0.902464
0.902481
0.902497
0.902491
0.90247
0.902478
0.902538
0.902769
0.903589
0.905505
0.910325
0.918004
0.931524
0.946997
0.963945
0.979788
0.991336
1.00134
1.00441
1.00699
1.00687
1.00581
1.00499
1.00552
1.00657
1.00747
1.00754
1.00721
1.00646
1.0065
1.0068
1.00716
1.00722
1.00712
1.00692
1.00693
1.00702
1.00701
1.00697
1.00697
1.00702
1.00711
1.00713
1.00711
1.00709
1.0071
1.00713
1.00714
1.00714
1.00713
1.00712
1.00714
1.00718
1.00719
1.00719
1.00714
0.902337
0.902334
0.902332
0.902329
0.902327
0.902323
0.902319
0.902315
0.902312
0.902309
0.902305
0.902302
0.902298
0.902295
0.90229
0.902286
0.902281
0.902276
0.902271
0.902268
0.902265
0.902261
0.902259
0.902256
0.902256
0.902256
0.902257
0.90226
0.902263
0.90227
0.902277
0.902281
0.902287
0.902295
0.902302
0.902312
0.902319
0.90232
0.902324
0.90233
0.902334
0.902339
0.902348
0.902363
0.902368
0.902369
0.902368
0.902362
0.902351
0.902325
0.90229
0.902266
0.902275
0.902336
0.902609
0.903436
0.905974
0.910998
0.921672
0.93541
0.953323
0.970963
0.982689
0.993906
0.997054
1.00056
1.00345
1.00698
1.00816
1.00798
1.00706
1.00582
1.0059
1.00648
1.00731
1.00729
1.00706
1.00667
1.00671
1.0069
1.00705
1.00699
1.00687
1.00687
1.00696
1.00704
1.00702
1.00698
1.00698
1.00701
1.00704
1.00705
1.00704
1.00703
1.007
1.007
1.00705
1.0071
1.0071
1.00706
0.902239
0.902239
0.902239
0.902238
0.902238
0.902236
0.902235
0.902234
0.902233
0.902232
0.90223
0.902231
0.902231
0.90223
0.90223
0.90223
0.902228
0.902225
0.902226
0.902225
0.902225
0.902226
0.902228
0.902226
0.902225
0.902225
0.902228
0.902231
0.902234
0.902241
0.902244
0.902243
0.902246
0.902249
0.902252
0.902256
0.902253
0.902247
0.902247
0.902248
0.902248
0.902249
0.902255
0.902267
0.902268
0.902267
0.90226
0.902246
0.902226
0.902203
0.90218
0.902151
0.902124
0.902105
0.902088
0.902096
0.902182
0.902532
0.903873
0.906978
0.914894
0.926581
0.944903
0.963838
0.979967
0.995315
1.00138
1.00519
1.00656
1.00566
1.00426
1.00491
1.00629
1.00739
1.00738
1.00695
1.00625
1.00631
1.0067
1.00694
1.0069
1.00677
1.00673
1.00683
1.00692
1.00691
1.00685
1.00684
1.00687
1.0069
1.00692
1.00694
1.00693
1.00691
1.00687
1.00687
1.00691
1.00699
1.007
1.00696
0.902151
0.902153
0.902156
0.902158
0.90216
0.902161
0.902163
0.902165
0.902166
0.902168
0.902171
0.902173
0.902175
0.902178
0.902181
0.902183
0.902185
0.902188
0.902189
0.90219
0.902193
0.902197
0.902196
0.902196
0.902197
0.902198
0.9022
0.9022
0.902202
0.902203
0.902201
0.902198
0.902198
0.902195
0.902192
0.902187
0.902179
0.902167
0.902164
0.902163
0.90216
0.90216
0.902164
0.902169
0.902169
0.902167
0.90216
0.902145
0.902122
0.902097
0.902074
0.90205
0.902022
0.901996
0.901973
0.901954
0.901933
0.901931
0.901962
0.902127
0.902821
0.90475
0.910564
0.920382
0.938104
0.957538
0.974334
0.988426
0.994545
0.9989
1.00218
1.00652
1.00787
1.00768
1.00668
1.00559
1.00578
1.00649
1.00699
1.00687
1.00652
1.00652
1.00666
1.00684
1.00682
1.0067
1.00665
1.0067
1.00676
1.00676
1.00678
1.0068
1.0068
1.00676
1.00672
1.00673
1.00676
1.00685
1.00688
1.00685
0.90207
0.902074
0.902076
0.902077
0.902079
0.902082
0.902086
0.902088
0.902091
0.902095
0.902099
0.902102
0.902105
0.902109
0.902112
0.902114
0.902116
0.90212
0.902122
0.902124
0.902128
0.902132
0.902134
0.902135
0.902137
0.90214
0.902143
0.902143
0.902141
0.902139
0.902136
0.902132
0.902128
0.902121
0.902113
0.902104
0.902093
0.90208
0.902072
0.902068
0.902066
0.902067
0.902071
0.902069
0.902065
0.902061
0.902055
0.902043
0.902026
0.902011
0.901997
0.90198
0.901957
0.901924
0.901883
0.901845
0.901819
0.901807
0.901803
0.901803
0.901822
0.901901
0.902276
0.903518
0.907913
0.91638
0.933396
0.953036
0.97212
0.990662
0.999755
1.00464
1.00625
1.00512
1.00408
1.00495
1.00646
1.00712
1.00684
1.00622
1.00615
1.00641
1.00673
1.00674
1.00658
1.00646
1.00651
1.00658
1.0066
1.00661
1.00664
1.00667
1.00665
1.0066
1.00658
1.00659
1.00662
1.00669
1.00673
1.00672
0.901976
0.901977
0.901979
0.901981
0.901983
0.901986
0.901989
0.901992
0.901995
0.901997
0.901999
0.902002
0.902006
0.902009
0.902014
0.902017
0.90202
0.902023
0.902026
0.90203
0.902034
0.902038
0.902041
0.902044
0.902049
0.902054
0.90206
0.902061
0.902059
0.902055
0.90205
0.902046
0.902038
0.902029
0.902019
0.902009
0.901996
0.901984
0.901973
0.901966
0.901966
0.901971
0.901975
0.901972
0.901966
0.90196
0.901954
0.901947
0.901939
0.901933
0.901926
0.901917
0.901901
0.901872
0.901827
0.901773
0.901728
0.901702
0.901694
0.901694
0.901698
0.901709
0.901719
0.901746
0.90196
0.902822
0.906362
0.913971
0.930125
0.950212
0.969959
0.985992
0.993638
0.998387
1.00223
1.00692
1.00768
1.00715
1.00558
1.00564
1.00604
1.00676
1.00675
1.00648
1.00626
1.00633
1.00646
1.00649
1.00644
1.00646
1.00653
1.00653
1.00649
1.00645
1.00646
1.00647
1.00649
1.00653
1.00659
1.00658
0.901872
0.901871
0.901871
0.901871
0.901872
0.901874
0.901875
0.901876
0.901877
0.901879
0.901881
0.901882
0.901884
0.901886
0.901887
0.901888
0.90189
0.901892
0.901895
0.901898
0.901903
0.901907
0.901912
0.901918
0.901926
0.901934
0.901943
0.90195
0.901951
0.901951
0.90195
0.901947
0.901938
0.90193
0.901923
0.901913
0.901901
0.90189
0.90188
0.90187
0.901865
0.901869
0.901869
0.901864
0.901858
0.901852
0.901846
0.901841
0.901842
0.901847
0.901851
0.90185
0.901843
0.901822
0.901783
0.90173
0.901675
0.901637
0.90162
0.901607
0.901602
0.901609
0.901636
0.901679
0.901671
0.901656
0.901777
0.902461
0.905537
0.912691
0.928861
0.949113
0.970215
0.990349
0.999924
1.00513
1.006
1.00382
1.00418
1.00543
1.00678
1.00689
1.00653
1.00594
1.00605
1.00639
1.00641
1.00635
1.00631
1.00637
1.00643
1.00641
1.00635
1.00634
1.00636
1.00638
1.00638
1.0064
1.00644
1.00647
0.901763
0.90176
0.901759
0.901759
0.90176
0.90176
0.901759
0.901759
0.90176
0.901761
0.901761
0.901762
0.901763
0.901764
0.901765
0.901766
0.901767
0.901769
0.901772
0.901776
0.901782
0.901787
0.901795
0.901804
0.901814
0.901825
0.901837
0.901846
0.901851
0.901853
0.901855
0.901853
0.901848
0.901843
0.901841
0.901834
0.901826
0.901822
0.901819
0.901816
0.901809
0.901798
0.901784
0.901766
0.901745
0.901728
0.901719
0.901717
0.901723
0.901739
0.901758
0.90177
0.901769
0.901756
0.901728
0.90169
0.901644
0.901596
0.90156
0.901544
0.901538
0.901541
0.90157
0.90162
0.901641
0.90164
0.901595
0.901552
0.901654
0.902294
0.905214
0.912391
0.928568
0.949901
0.97114
0.986926
0.994867
0.999008
1.00459
1.0074
1.0073
1.00642
1.00548
1.00573
1.00643
1.00651
1.00632
1.00612
1.0062
1.00636
1.00635
1.00624
1.00623
1.00627
1.00631
1.00631
1.00631
1.00631
1.00632
1.00635
0.901673
0.901671
0.901669
0.901666
0.901663
0.901661
0.901659
0.901658
0.901657
0.901657
0.901656
0.901656
0.901656
0.901656
0.901657
0.901658
0.901661
0.901664
0.901669
0.901676
0.901682
0.901689
0.901697
0.901707
0.901716
0.901724
0.901733
0.901742
0.90175
0.901756
0.90176
0.901763
0.901765
0.901766
0.901768
0.90177
0.901774
0.901777
0.90178
0.901781
0.901778
0.901764
0.901736
0.901698
0.901656
0.90162
0.9016
0.901596
0.901597
0.901606
0.901625
0.901649
0.901668
0.901665
0.901651
0.901635
0.901616
0.901587
0.901544
0.901503
0.901485
0.90149
0.90153
0.901591
0.90162
0.901613
0.901587
0.90154
0.901487
0.901487
0.901599
0.902274
0.905213
0.912999
0.930221
0.951982
0.974998
0.993795
1.00252
1.00604
1.00516
1.0037
1.00476
1.00635
1.00677
1.00645
1.00586
1.00598
1.00631
1.00633
1.00617
1.00611
1.00619
1.00625
1.00625
1.00625
1.00625
1.00625
1.00623
1.00626
0.901626
0.901623
0.90162
0.901616
0.901611
0.901606
0.901603
0.901599
0.901595
0.901591
0.901588
0.901586
0.901586
0.901586
0.901587
0.901589
0.901592
0.901595
0.9016
0.901607
0.901613
0.901619
0.901626
0.901634
0.901639
0.901645
0.90165
0.901658
0.901666
0.901674
0.901681
0.901686
0.90169
0.901696
0.901702
0.901709
0.901717
0.901726
0.901732
0.901733
0.901729
0.901716
0.901689
0.901647
0.901594
0.901541
0.901505
0.901487
0.901485
0.901489
0.901499
0.901513
0.901531
0.901548
0.901562
0.90158
0.901594
0.901595
0.901575
0.901515
0.901446
0.90143
0.901445
0.901491
0.901559
0.90159
0.901578
0.901549
0.901504
0.901458
0.90145
0.901461
0.901606
0.902394
0.905611
0.914653
0.93269
0.956666
0.977434
0.990727
0.997145
1.0016
1.00687
1.00717
1.00659
1.00546
1.00567
1.00635
1.00644
1.00617
1.00594
1.00605
1.00623
1.00624
1.0062
1.00621
1.00621
1.00619
1.00616
1.0062
0.901627
0.901625
0.901621
0.901618
0.901614
0.90161
0.901605
0.901601
0.901596
0.90159
0.901585
0.90158
0.901578
0.901579
0.901579
0.901579
0.901581
0.901586
0.901587
0.901586
0.901585
0.901586
0.901594
0.901593
0.90159
0.901589
0.901592
0.901598
0.901603
0.901608
0.901614
0.901621
0.90163
0.901639
0.901649
0.901659
0.901668
0.901675
0.901679
0.901677
0.901666
0.901649
0.901626
0.901594
0.901553
0.901504
0.901457
0.901423
0.901413
0.901415
0.901419
0.901421
0.901423
0.901433
0.901464
0.901521
0.901584
0.901613
0.90161
0.901568
0.901463
0.901381
0.901379
0.901402
0.901444
0.901505
0.901551
0.901557
0.901543
0.901501
0.901457
0.901445
0.901452
0.901493
0.901679
0.902652
0.906393
0.917569
0.937422
0.961361
0.986055
0.998593
1.00554
1.00545
1.00358
1.00455
1.0063
1.00676
1.00638
1.00567
1.0058
1.00622
1.00624
1.00618
1.00614
1.00619
1.00618
1.00614
1.00611
1.00617
0.901639
0.901637
0.901635
0.901634
0.901631
0.901628
0.901628
0.901627
0.901623
0.901617
0.901613
0.901612
0.901611
0.901609
0.901605
0.901603
0.901598
0.901591
0.901587
0.901581
0.901571
0.901562
0.901555
0.901549
0.901541
0.901532
0.901523
0.901512
0.901503
0.901502
0.901502
0.901503
0.90151
0.901521
0.901534
0.901549
0.901564
0.901578
0.901591
0.901606
0.901605
0.901589
0.901571
0.901553
0.901532
0.901505
0.901471
0.90143
0.901393
0.901386
0.901386
0.901382
0.901372
0.901368
0.901383
0.901446
0.901552
0.901616
0.901622
0.901592
0.901496
0.901379
0.901333
0.901345
0.901363
0.901404
0.901483
0.901553
0.901563
0.901552
0.9015
0.901457
0.901446
0.901459
0.901483
0.90152
0.901718
0.90308
0.907854
0.921772
0.943909
0.968012
0.987301
0.994993
0.999856
1.00631
1.00723
1.0066
1.00525
1.00546
1.0062
1.0064
1.00619
1.00603
1.00612
1.00622
1.00616
1.00606
1.00608
1.00618
0.90161
0.901609
0.901608
0.901608
0.901607
0.901608
0.901611
0.901615
0.901619
0.901619
0.901619
0.90162
0.901619
0.901616
0.901615
0.901613
0.901606
0.901595
0.901586
0.901573
0.901556
0.901536
0.901515
0.901497
0.901479
0.901461
0.901444
0.901431
0.901417
0.90141
0.90141
0.901411
0.901413
0.901417
0.90142
0.90142
0.901423
0.90143
0.901442
0.901461
0.901482
0.901499
0.901515
0.901531
0.901541
0.901543
0.90154
0.901525
0.9015
0.901475
0.901451
0.901415
0.901364
0.901332
0.901328
0.90136
0.901455
0.901563
0.901599
0.901575
0.9015
0.901414
0.901337
0.901318
0.901329
0.901345
0.901408
0.901515
0.901566
0.901566
0.901534
0.901468
0.901433
0.901428
0.90144
0.901457
0.901454
0.901489
0.901836
0.903869
0.910656
0.927987
0.951585
0.977698
0.99587
1.00434
1.0056
1.00324
1.00416
1.00607
1.00668
1.00634
1.00576
1.00592
1.00621
1.00619
1.00601
1.006
1.00611
1.00619
0.901527
0.901528
0.90153
0.901534
0.901538
0.901542
0.901546
0.90155
0.901554
0.901556
0.901556
0.901556
0.901556
0.901558
0.901558
0.901554
0.901554
0.901554
0.901543
0.901528
0.901517
0.901506
0.90149
0.901471
0.901452
0.90143
0.901409
0.901392
0.901377
0.901364
0.901362
0.901364
0.901369
0.901371
0.901368
0.90135
0.90133
0.901328
0.901331
0.901345
0.901374
0.901413
0.901461
0.901512
0.901555
0.901587
0.901607
0.901625
0.901643
0.901646
0.901622
0.901556
0.901442
0.901325
0.901285
0.901292
0.901338
0.901412
0.901493
0.901513
0.901482
0.901454
0.901423
0.901375
0.901335
0.901331
0.901365
0.901462
0.901542
0.901548
0.901529
0.90147
0.901407
0.901393
0.901396
0.901417
0.901444
0.901468
0.901479
0.901565
0.902197
0.905223
0.915107
0.935575
0.961857
0.98205
0.993777
0.998827
1.00584
1.00714
1.00653
1.00532
1.00559
1.00631
1.0063
1.00599
1.00587
1.00601
1.0062
1.00619
0.901317
0.90133
0.901342
0.901353
0.901365
0.901378
0.90139
0.901401
0.901411
0.90142
0.90143
0.901438
0.901449
0.901462
0.901476
0.901488
0.901493
0.901489
0.901475
0.901471
0.901475
0.901473
0.901468
0.901465
0.901467
0.901463
0.90145
0.901434
0.901421
0.901406
0.901391
0.901393
0.901399
0.901397
0.901382
0.901342
0.901295
0.901273
0.901272
0.901285
0.901317
0.901361
0.90141
0.901463
0.901516
0.901568
0.901609
0.901648
0.901693
0.901719
0.901715
0.901667
0.901544
0.90138
0.901264
0.901249
0.90127
0.901315
0.901353
0.901394
0.901445
0.901492
0.901511
0.901507
0.901443
0.901376
0.901375
0.901418
0.901488
0.90151
0.901496
0.901448
0.901388
0.901367
0.901369
0.901394
0.901449
0.901504
0.901532
0.901524
0.901528
0.901669
0.902758
0.907604
0.921875
0.944933
0.972759
0.993371
1.00399
1.0055
1.00322
1.00432
1.0062
1.00656
1.00618
1.00561
1.00579
1.00621
1.00622
1.00614
0.901169
0.901175
0.901181
0.901189
0.901204
0.901222
0.901237
0.901253
0.901267
0.901281
0.901295
0.901312
0.901332
0.901352
0.90137
0.901387
0.901402
0.901421
0.901446
0.901453
0.901457
0.901468
0.90149
0.901524
0.901557
0.901575
0.901585
0.901598
0.901611
0.901615
0.901615
0.901612
0.901599
0.901574
0.901537
0.901491
0.901435
0.901381
0.901339
0.901325
0.901334
0.901349
0.90135
0.901353
0.901378
0.901422
0.901474
0.901542
0.901632
0.901692
0.901697
0.901665
0.901575
0.901451
0.901329
0.901251
0.901252
0.901281
0.901304
0.901328
0.901394
0.901499
0.901561
0.901571
0.901542
0.901437
0.901395
0.901407
0.901433
0.90144
0.90143
0.901413
0.901383
0.901373
0.901382
0.901418
0.901474
0.901517
0.901535
0.901529
0.901504
0.901441
0.901451
0.901781
0.903848
0.912029
0.930427
0.957648
0.980782
0.992848
0.998725
1.00608
1.00698
1.00637
1.00522
1.00549
1.00625
1.00637
1.00618
1.00604
0.901141
0.901136
0.901137
0.901142
0.901165
0.901178
0.901181
0.901189
0.901198
0.901213
0.901229
0.901244
0.901264
0.901289
0.901317
0.901341
0.901364
0.901402
0.901438
0.901464
0.901486
0.901512
0.901544
0.901581
0.901615
0.901641
0.901667
0.901695
0.901708
0.901717
0.901729
0.901727
0.901708
0.901672
0.901639
0.90161
0.901562
0.901506
0.901455
0.901398
0.901383
0.901378
0.90131
0.901229
0.901217
0.901219
0.901242
0.901309
0.901422
0.901542
0.901616
0.901611
0.901562
0.901499
0.901443
0.901378
0.901341
0.901338
0.901326
0.901321
0.901366
0.901477
0.901558
0.901566
0.90155
0.901464
0.90139
0.901392
0.901408
0.901405
0.901396
0.90139
0.901403
0.90143
0.901459
0.901485
0.901498
0.901515
0.901518
0.9015
0.901436
0.901361
0.901322
0.90133
0.901437
0.902294
0.906165
0.919491
0.942062
0.970831
0.993244
1.00406
1.0053
1.00322
1.00428
1.00612
1.00661
1.00633
1.00589
1.00597
0.901376
0.901361
0.90135
0.901344
0.901339
0.901333
0.901329
0.901328
0.901325
0.901317
0.901306
0.901304
0.901313
0.901324
0.901336
0.901349
0.901354
0.901363
0.901388
0.901426
0.901469
0.901516
0.901565
0.901607
0.90164
0.901666
0.901683
0.901699
0.901706
0.901708
0.901717
0.901714
0.901692
0.901638
0.901604
0.901586
0.901557
0.901528
0.90149
0.901442
0.901425
0.901403
0.901302
0.90119
0.901166
0.901162
0.901166
0.901211
0.90131
0.901423
0.901525
0.901572
0.901566
0.901538
0.901504
0.901468
0.901445
0.901446
0.901433
0.901403
0.901398
0.901418
0.901448
0.901463
0.901467
0.90146
0.901414
0.901404
0.901418
0.901416
0.901408
0.901411
0.90144
0.901489
0.90152
0.90152
0.901509
0.901479
0.901443
0.901398
0.901356
0.901325
0.901307
0.901315
0.901343
0.901394
0.901687
0.903487
0.910773
0.929312
0.957182
0.980049
0.99329
0.999234
1.00615
1.00696
1.00647
1.00562
1.00581
1.00607
0.901514
0.9015
0.901488
0.901478
0.901469
0.901461
0.901453
0.90144
0.901419
0.901394
0.901367
0.901364
0.901372
0.901362
0.901337
0.901345
0.901352
0.901336
0.901324
0.901336
0.901351
0.901348
0.901345
0.90135
0.901361
0.90137
0.901376
0.901378
0.901381
0.901389
0.901397
0.90142
0.901445
0.90144
0.901444
0.901466
0.901479
0.901495
0.901498
0.901467
0.901465
0.901468
0.901435
0.901353
0.90132
0.901309
0.90131
0.901321
0.901365
0.901441
0.90151
0.901555
0.901558
0.901538
0.90149
0.901455
0.901456
0.901473
0.901479
0.90147
0.901439
0.901386
0.901335
0.901327
0.901351
0.901362
0.901374
0.901433
0.901507
0.901517
0.901509
0.901486
0.901487
0.901509
0.901531
0.901521
0.901463
0.901382
0.901329
0.901317
0.901326
0.901335
0.901352
0.901375
0.901403
0.901419
0.901435
0.901506
0.90218
0.905931
0.918934
0.942355
0.972968
0.993567
1.00514
1.00499
1.00408
1.00496
1.00612
1.00616
0.901391
0.901382
0.901374
0.901369
0.901361
0.901348
0.901346
0.901347
0.901344
0.901327
0.901306
0.901312
0.901323
0.901307
0.9013
0.90133
0.901351
0.901348
0.901344
0.901342
0.901337
0.901319
0.901269
0.901195
0.90115
0.901119
0.901074
0.901049
0.901036
0.901032
0.90104
0.901078
0.901134
0.901197
0.901301
0.901365
0.901377
0.901401
0.901458
0.901505
0.901535
0.901564
0.901588
0.90161
0.901624
0.90161
0.901596
0.9016
0.901604
0.901597
0.901577
0.901564
0.901537
0.901439
0.901374
0.901372
0.901385
0.901436
0.901497
0.901506
0.901476
0.90141
0.901341
0.901308
0.901322
0.901333
0.901366
0.901481
0.901594
0.901606
0.901593
0.901539
0.901498
0.901474
0.901457
0.901419
0.90136
0.901301
0.901288
0.901298
0.901345
0.901409
0.90143
0.90143
0.90143
0.901425
0.901396
0.901343
0.901356
0.901621
0.90339
0.911418
0.930564
0.958387
0.985066
0.99336
1.00102
1.00602
1.00638
1.00597
0.901158
0.901158
0.90116
0.901165
0.901173
0.901186
0.901191
0.901192
0.901195
0.901201
0.901211
0.901217
0.90121
0.901211
0.90124
0.9013
0.901346
0.901401
0.901475
0.901501
0.901505
0.901501
0.901455
0.901335
0.901186
0.901052
0.900944
0.900901
0.900883
0.900879
0.900886
0.900921
0.900985
0.901067
0.901175
0.901308
0.901389
0.901414
0.901432
0.901466
0.901514
0.901564
0.901607
0.901631
0.901649
0.901652
0.90162
0.901585
0.901589
0.90159
0.901571
0.901536
0.901474
0.90132
0.901191
0.901171
0.901182
0.90124
0.901336
0.90142
0.901458
0.901479
0.901488
0.901485
0.901487
0.901469
0.901465
0.901524
0.901617
0.901634
0.901616
0.90155
0.901438
0.901347
0.901305
0.901278
0.901283
0.901291
0.901311
0.901361
0.901442
0.901481
0.901479
0.901466
0.901428
0.901362
0.901309
0.901274
0.901288
0.901312
0.901452
0.902321
0.906427
0.92123
0.946153
0.976329
0.996653
1.00462
1.00434
1.0048
0.901248
0.901243
0.901242
0.901242
0.901247
0.901268
0.901282
0.901279
0.901274
0.901286
0.901327
0.901388
0.901442
0.901491
0.901546
0.901605
0.901674
0.901778
0.901883
0.901911
0.901903
0.901867
0.901805
0.901729
0.901663
0.901615
0.90157
0.901527
0.901492
0.901464
0.90143
0.901414
0.901428
0.901446
0.901451
0.901451
0.901436
0.90136
0.901279
0.901278
0.90129
0.901324
0.901393
0.901455
0.901476
0.901453
0.901369
0.90131
0.901318
0.901333
0.901357
0.90138
0.901359
0.901256
0.901117
0.901053
0.901071
0.901144
0.90125
0.901352
0.901453
0.901566
0.901662
0.901677
0.901676
0.901622
0.90154
0.901514
0.901519
0.901519
0.90148
0.901407
0.901337
0.901265
0.901223
0.901227
0.901265
0.901358
0.901442
0.901503
0.901519
0.901517
0.901498
0.901437
0.901333
0.901259
0.901239
0.901248
0.901287
0.901391
0.90143
0.90148
0.901796
0.903953
0.912912
0.935828
0.963556
0.986022
0.995886
1.0036
0.90189
0.901849
0.901819
0.90179
0.901775
0.901784
0.901794
0.901773
0.901739
0.901757
0.901791
0.901772
0.901789
0.901794
0.901767
0.901764
0.9018
0.90188
0.901897
0.901895
0.901874
0.901773
0.901685
0.901672
0.901706
0.901773
0.901821
0.901854
0.901876
0.901892
0.90188
0.901802
0.90175
0.901741
0.901696
0.901588
0.901435
0.901254
0.90109
0.900989
0.900944
0.900957
0.901037
0.901106
0.901103
0.90107
0.900996
0.900978
0.900997
0.901072
0.901186
0.901264
0.901262
0.901244
0.901214
0.901173
0.901164
0.901224
0.901312
0.901387
0.901457
0.901568
0.901669
0.901677
0.901669
0.901613
0.901488
0.901339
0.901254
0.901203
0.901189
0.901209
0.90128
0.901285
0.901281
0.901314
0.901406
0.901515
0.901563
0.901562
0.901543
0.901486
0.901404
0.901294
0.901213
0.901218
0.901236
0.901306
0.901407
0.901482
0.901474
0.901457
0.90142
0.901512
0.902505
0.908284
0.924697
0.952945
0.982845
1.00143
0.902272
0.902295
0.902292
0.902239
0.902125
0.902078
0.902077
0.902071
0.902036
0.901997
0.901985
0.901987
0.901999
0.901995
0.901954
0.901898
0.901868
0.90184
0.90178
0.901665
0.901499
0.901295
0.901139
0.901102
0.901114
0.901137
0.901199
0.901328
0.901432
0.90148
0.901485
0.901475
0.90147
0.901419
0.901371
0.901377
0.901354
0.901254
0.901115
0.901023
0.900983
0.901013
0.901098
0.901156
0.901162
0.90113
0.901065
0.901056
0.901088
0.901193
0.901316
0.90138
0.901449
0.901549
0.901684
0.901779
0.901778
0.901779
0.901734
0.901534
0.901305
0.901226
0.901219
0.901247
0.901301
0.901306
0.901266
0.901181
0.901051
0.900985
0.900988
0.901065
0.901232
0.901408
0.901486
0.901533
0.901542
0.901561
0.901572
0.901536
0.901446
0.90134
0.901237
0.901178
0.901177
0.901211
0.901326
0.901457
0.901492
0.901488
0.901451
0.901369
0.901276
0.901248
0.901288
0.901843
0.904837
0.917557
0.940615
0.979123
0.904209
0.904258
0.90426
0.904235
0.904221
0.904222
0.904285
0.904334