/*--------------------------------*- C++ -*----------------------------------*\
  =========                 |
  \\      /  F ield         | OpenFOAM: The Open Source CFD Toolbox
   \\    /   O peration     | Website:  https://openfoam.org
    \\  /    A nd           | Version:  7
     \\/     M anipulation  |
\*---------------------------------------------------------------------------*/
FoamFile
{
    version     2.0;
    format      ascii;
    class       volVectorField;
    location    "9.5";
    object      U;
}
// * * * * * * * * * * * * * * * * * * * * * * * * * * * * * * * * * * * * * //

dimensions      [0 1 -1 0 0 0 0];

internalField   nonuniform List<vector> 
90000
(
(3.07135 -0.238472 0)
(3.06665 -0.222432 0)
(3.06066 -0.205438 0)
(3.05525 -0.192084 0)
(3.04951 -0.178259 0)
(3.04504 -0.167631 0)
(3.04093 -0.156015 0)
(3.03796 -0.147708 0)
(3.03491 -0.137009 0)
(3.03288 -0.130384 0)
(3.03024 -0.11961 0)
(3.02869 -0.114116 0)
(3.02607 -0.103024 0)
(3.02477 -0.0986045 0)
(3.022 -0.0873332 0)
(3.0209 -0.08392 0)
(3.01786 -0.0724761 0)
(3.01699 -0.0698276 0)
(3.01366 -0.0584028 0)
(3.01311 -0.0561593 0)
(3.00943 -0.0449215 0)
(3.00929 -0.0427404 0)
(3.00522 -0.0321424 0)
(3.00541 -0.0293591 0)
(3.00127 -0.020266 0)
(3.00083 -0.0159442 0)
(2.99823 -0.00993076 0)
(2.99651 -0.00609207 0)
(2.99634 -0.00245892 0)
(2.99527 -3.97745e-05 0)
(2.99407 0.00176701 0)
(2.99236 0.00460166 0)
(2.99091 0.00625362 0)
(2.99052 0.00797236 0)
(2.992 0.00434431 0)
(2.99192 0.00294371 0)
(2.99095 -0.000568711 0)
(2.99019 -0.00211285 0)
(2.9893 -0.00295513 0)
(2.98858 -0.00374942 0)
(2.98829 -0.00396402 0)
(2.98828 -0.00330338 0)
(2.98833 -0.00220918 0)
(2.98816 -0.000229837 0)
(2.98879 0.00121765 0)
(2.98923 0.00228328 0)
(2.98976 0.00227384 0)
(2.99068 0.00148171 0)
(2.99138 0.000897954 0)
(2.9918 -0.000383177 0)
(2.99171 -0.00123826 0)
(2.99156 -0.00211713 0)
(2.99114 -0.00314998 0)
(2.99099 -0.00284108 0)
(2.99041 -0.00153533 0)
(2.99032 -0.000283622 0)
(2.99059 0.000924881 0)
(2.99076 0.0012725 0)
(2.99098 0.00157195 0)
(2.99141 0.000485279 0)
(2.99137 -0.000410083 0)
(2.99116 -0.00118518 0)
(2.99113 -0.00191389 0)
(2.99071 -0.00111004 0)
(2.99099 -8.00661e-05 0)
(2.99104 0.000192576 0)
(2.99132 -0.000272383 0)
(2.99124 -0.000724802 0)
(2.99125 -0.00136507 0)
(2.99107 -0.000917699 0)
(2.99087 -0.000277226 0)
(2.99097 0.000135161 0)
(2.99109 -0.000163441 0)
(2.99104 -0.000741377 0)
(2.99122 -0.001069 0)
(2.99104 -0.000791339 0)
(2.99088 -0.000301718 0)
(2.99091 -0.000196206 0)
(2.99091 -0.00033183 0)
(2.99097 -0.000438968 0)
(2.99096 -0.000345822 0)
(2.99096 -0.000281535 0)
(2.99092 -0.000402205 0)
(2.99097 -0.000550395 0)
(2.99091 -0.000411933 0)
(2.99087 -0.000262504 0)
(2.99084 -0.000245163 0)
(2.99079 -0.000316163 0)
(2.99072 -0.000449549 0)
(2.99063 -0.000583282 0)
(2.99057 -0.000628006 0)
(2.99035 -0.000336458 0)
(2.99018 -0.000168414 0)
(2.99024 -0.000164392 0)
(2.99028 -0.000213286 0)
(2.99035 -0.000345784 0)
(2.99037 -0.000467384 0)
(2.99039 -0.000492491 0)
(2.99038 -0.000408098 0)
(2.99039 -0.000391137 0)
(3.07417 -0.252882 0)
(3.07368 -0.252006 0)
(3.07278 -0.250254 0)
(3.07155 -0.247824 0)
(3.06989 -0.244283 0)
(3.06769 -0.240445 0)
(3.06475 -0.235433 0)
(3.06155 -0.230366 0)
(3.05771 -0.223586 0)
(3.05393 -0.217164 0)
(3.04946 -0.208332 0)
(3.0455 -0.200617 0)
(3.04066 -0.189425 0)
(3.03689 -0.180532 0)
(3.03184 -0.166848 0)
(3.02859 -0.157268 0)
(3.0234 -0.141103 0)
(3.02092 -0.131366 0)
(3.01564 -0.113228 0)
(3.01405 -0.103864 0)
(3.00869 -0.0843041 0)
(3.00802 -0.0759131 0)
(3.00267 -0.0559832 0)
(3.00277 -0.0487992 0)
(2.99766 -0.029748 0)
(2.99808 -0.0239087 0)
(2.99324 -0.00737606 0)
(2.99328 -0.00260591 0)
(2.98924 0.00997231 0)
(2.98877 0.0135336 0)
(2.98624 0.02077 0)
(2.98527 0.022196 0)
(2.98507 0.0219933 0)
(2.98469 0.0178108 0)
(2.98446 0.0138854 0)
(2.98512 0.00960483 0)
(2.98731 0.00505925 0)
(2.98818 0.00266433 0)
(2.9899 -3.79117e-05 0)
(2.99069 -0.00182563 0)
(2.99138 -0.00269375 0)
(2.99196 -0.00360978 0)
(2.99177 -0.00355658 0)
(2.99203 -0.00164605 0)
(2.99133 0.000684771 0)
(2.99157 0.001596 0)
(2.99095 0.00334595 0)
(2.99073 0.00373745 0)
(2.99046 0.00279447 0)
(2.99005 0.00097105 0)
(2.99015 -0.000996051 0)
(2.99025 -0.00302733 0)
(2.99042 -0.00344105 0)
(2.99055 -0.00350073 0)
(2.99084 -0.00203156 0)
(2.9911 -0.000605938 0)
(2.99071 0.000966686 0)
(2.99052 0.00207895 0)
(2.99017 0.00172726 0)
(2.9898 0.000282971 0)
(2.98992 -0.00165341 0)
(2.98986 -0.00227794 0)
(2.99013 -0.00184976 0)
(2.99027 -0.000714847 0)
(2.99032 0.000342628 0)
(2.9902 0.000443696 0)
(2.99012 -0.000238266 0)
(2.98997 -0.00129179 0)
(2.99011 -0.00126024 0)
(2.99041 -0.000864616 0)
(2.99031 -5.39692e-05 0)
(2.99032 0.000238035 0)
(2.99004 -0.000328038 0)
(2.99007 -0.000622411 0)
(2.9901 -0.000636133 0)
(2.99031 -0.000408345 0)
(2.99026 -0.000353911 0)
(2.99012 -0.000419104 0)
(2.9901 -0.000431829 0)
(2.99015 -0.00033007 0)
(2.99014 -0.000313738 0)
(2.99011 -0.000400812 0)
(2.99011 -0.000446236 0)
(2.99015 -0.000357645 0)
(2.99014 -0.000257792 0)
(2.9901 -0.000243057 0)
(2.99007 -0.000310683 0)
(2.99003 -0.000431936 0)
(2.98999 -0.000489951 0)
(2.98992 -0.000474382 0)
(2.98986 -0.00042501 0)
(2.98982 -0.000458402 0)
(2.98962 -0.000218136 0)
(2.98965 -0.000203697 0)
(2.98968 -0.000255399 0)
(2.98974 -0.000396965 0)
(2.98981 -0.000473233 0)
(2.98984 -0.000498649 0)
(2.98985 -0.000404527 0)
(2.98988 -0.000416474 0)
(3.07229 -0.253003 0)
(3.07224 -0.252972 0)
(3.07219 -0.25293 0)
(3.07213 -0.25285 0)
(3.07205 -0.252747 0)
(3.07193 -0.252586 0)
(3.07173 -0.252349 0)
(3.07142 -0.252 0)
(3.07097 -0.251521 0)
(3.0704 -0.250775 0)
(3.06969 -0.249795 0)
(3.06881 -0.248388 0)
(3.06773 -0.246563 0)
(3.06643 -0.24412 0)
(3.06486 -0.240999 0)
(3.06309 -0.237135 0)
(3.06097 -0.232074 0)
(3.05871 -0.226397 0)
(3.05581 -0.218751 0)
(3.05299 -0.211135 0)
(3.04917 -0.200106 0)
(3.04602 -0.190809 0)
(3.04131 -0.175983 0)
(3.03814 -0.165739 0)
(3.0327 -0.147127 0)
(3.02993 -0.137124 0)
(3.02405 -0.115806 0)
(3.02191 -0.107288 0)
(3.01622 -0.0854687 0)
(3.01476 -0.0792456 0)
(3.01024 -0.0601238 0)
(3.01013 -0.055669 0)
(3.00592 -0.0412528 0)
(3.00712 -0.0368793 0)
(3.00083 -0.0245116 0)
(3.00011 -0.0182853 0)
(2.9964 -0.0123893 0)
(2.99684 -0.00826916 0)
(2.99618 -0.005516 0)
(2.99522 -0.00367869 0)
(2.99529 -0.000693905 0)
(2.99395 0.00146308 0)
(2.99278 0.00381867 0)
(2.99184 0.00401407 0)
(2.99122 0.00353572 0)
(2.99035 0.0024618 0)
(2.98978 0.00146011 0)
(2.98892 -0.00102329 0)
(2.98867 -0.00139244 0)
(2.98863 -0.0024317 0)
(2.98898 -0.00238857 0)
(2.98961 -0.002292 0)
(2.99054 -0.00124904 0)
(2.99103 -0.00105383 0)
(2.9911 0.000259039 0)
(2.99097 0.000491672 0)
(2.99035 9.11876e-05 0)
(2.98951 -0.000421809 0)
(2.98893 -0.0017776 0)
(2.98862 -0.00109872 0)
(2.9889 -0.000844335 0)
(2.98928 -0.000557791 0)
(2.98945 -7.2436e-05 0)
(2.98945 -0.000440147 0)
(2.98918 -0.000725928 0)
(2.98886 -0.00130878 0)
(2.98879 -0.00103895 0)
(2.98893 -0.000875919 0)
(2.98912 -0.000409274 0)
(2.9893 -0.000292075 0)
(2.98921 -0.000434916 0)
(2.9891 -0.000819457 0)
(2.98887 -0.000559125 0)
(2.9889 -0.000488428 0)
(2.98881 -0.000520054 0)
(2.98907 -0.000818045 0)
(2.98912 -0.000877758 0)
(2.98907 -0.000534865 0)
(2.98901 -0.000249152 0)
(2.98906 -0.00027289 0)
(2.98904 -0.000366277 0)
(2.98904 -0.000460206 0)
(2.98904 -0.000407763 0)
(2.98905 -0.000438723 0)
(2.98907 -0.000444158 0)
(2.98906 -0.000424089 0)
(2.98904 -0.000351945 0)
(2.98901 -0.000340871 0)
(2.98897 -0.000438493 0)
(2.9889 -0.000630181 0)
(2.98888 -0.00087857 0)
(2.98887 -0.000598016 0)
(2.98882 -0.000324732 0)
(2.98882 -0.000133561 0)
(2.98885 -0.000145139 0)
(2.98892 -0.000239856 0)
(2.989 -0.000433765 0)
(2.98908 -0.000496903 0)
(2.98912 -0.000433177 0)
(2.98917 -0.000401231 0)
(3.06896 -0.252705 0)
(3.06894 -0.252705 0)
(3.06891 -0.252711 0)
(3.06889 -0.252718 0)
(3.06886 -0.252724 0)
(3.06883 -0.252725 0)
(3.06877 -0.252715 0)
(3.0687 -0.252682 0)
(3.06862 -0.252634 0)
(3.06853 -0.252554 0)
(3.06846 -0.252502 0)
(3.06837 -0.252412 0)
(3.06829 -0.252311 0)
(3.06819 -0.252141 0)
(3.06807 -0.251985 0)
(3.0679 -0.251741 0)
(3.06761 -0.251426 0)
(3.06723 -0.250951 0)
(3.06675 -0.250255 0)
(3.06617 -0.249189 0)
(3.06542 -0.247629 0)
(3.06448 -0.245458 0)
(3.06321 -0.242278 0)
(3.06169 -0.238254 0)
(3.05953 -0.232041 0)
(3.05729 -0.225361 0)
(3.05369 -0.214304 0)
(3.05066 -0.204567 0)
(3.04512 -0.186508 0)
(3.0418 -0.174299 0)
(3.0341 -0.147985 0)
(3.03157 -0.134965 0)
(3.02202 -0.101268 0)
(3.0213 -0.0898916 0)
(3.01209 -0.0564098 0)
(3.01171 -0.0488145 0)
(3.00345 -0.0227295 0)
(3.00325 -0.0190626 0)
(2.99656 -0.00200189 0)
(2.99503 0.00173224 0)
(2.99266 0.00777043 0)
(2.99127 0.0108194 0)
(2.99028 0.00987649 0)
(2.98982 0.00541438 0)
(2.98938 0.00169497 0)
(2.9893 1.1214e-05 0)
(2.98901 -0.00146584 0)
(2.98875 -0.00222064 0)
(2.9889 -0.00172433 0)
(2.98913 -0.000733629 0)
(2.98944 0.000998668 0)
(2.98962 0.00258893 0)
(2.98976 0.00378147 0)
(2.98983 0.00290056 0)
(2.98934 0.000846902 0)
(2.98922 -0.000892736 0)
(2.98879 -0.00309663 0)
(2.98856 -0.00352907 0)
(2.98869 -0.00239941 0)
(2.98857 -0.00127757 0)
(2.9889 0.00012915 0)
(2.98893 0.000964357 0)
(2.9887 0.000271377 0)
(2.98858 -0.000671658 0)
(2.98834 -0.00174236 0)
(2.98833 -0.00160279 0)
(2.98839 -0.000971321 0)
(2.98851 -5.53516e-06 0)
(2.98858 0.000107878 0)
(2.98844 -0.000292354 0)
(2.98834 -0.000815944 0)
(2.9882 -0.000673879 0)
(2.98819 -0.000238924 0)
(2.9881 3.66271e-05 0)
(2.98812 -0.000171673 0)
(2.98821 -0.000458746 0)
(2.9882 -0.000638839 0)
(2.9883 -0.000489854 0)
(2.98829 -0.000351258 0)
(2.9883 -0.000366623 0)
(2.98829 -0.000455421 0)
(2.98829 -0.000437879 0)
(2.98831 -0.000374175 0)
(2.98834 -0.000311946 0)
(2.98835 -0.00024721 0)
(2.98835 -0.000211669 0)
(2.98833 -0.000217464 0)
(2.98831 -0.000274825 0)
(2.98826 -0.000449552 0)
(2.98823 -0.000574794 0)
(2.98821 -0.000510131 0)
(2.98821 -0.000449216 0)
(2.9882 -0.000257921 0)
(2.98821 -0.000136876 0)
(2.98825 -0.000149796 0)
(2.98834 -0.000243174 0)
(2.98844 -0.000344639 0)
(2.98852 -0.000445447 0)
(2.98861 -0.000377552 0)
(2.98866 -0.000393374 0)
(3.06576 -0.252424 0)
(3.06574 -0.252417 0)
(3.0657 -0.252406 0)
(3.06567 -0.252403 0)
(3.06564 -0.252403 0)
(3.0656 -0.252397 0)
(3.06557 -0.252393 0)
(3.06557 -0.252397 0)
(3.06557 -0.252398 0)
(3.06558 -0.252414 0)
(3.06557 -0.252424 0)
(3.06557 -0.252429 0)
(3.06556 -0.252442 0)
(3.06555 -0.252455 0)
(3.06553 -0.252453 0)
(3.06551 -0.252442 0)
(3.06546 -0.25241 0)
(3.0654 -0.252348 0)
(3.06535 -0.252289 0)
(3.0653 -0.2522 0)
(3.06526 -0.252106 0)
(3.0652 -0.251963 0)
(3.06515 -0.251834 0)
(3.06505 -0.251534 0)
(3.06486 -0.251203 0)
(3.06457 -0.250577 0)
(3.06416 -0.249632 0)
(3.06354 -0.247949 0)
(3.06261 -0.245492 0)
(3.06128 -0.241566 0)
(3.0593 -0.235859 0)
(3.05676 -0.228062 0)
(3.0528 -0.215954 0)
(3.0491 -0.203657 0)
(3.0425 -0.181236 0)
(3.03864 -0.166435 0)
(3.02996 -0.135216 0)
(3.02621 -0.120374 0)
(3.01737 -0.0877312 0)
(3.0154 -0.0798694 0)
(3.00816 -0.0533891 0)
(3.00704 -0.0480948 0)
(3.00259 -0.0361472 0)
(3.00422 -0.0305319 0)
(2.9982 -0.0198969 0)
(2.99796 -0.0159752 0)
(2.99511 -0.0105764 0)
(2.99421 -0.00580267 0)
(2.99299 -0.00154918 0)
(2.9904 0.00158981 0)
(2.98939 0.00520155 0)
(2.98853 0.0047512 0)
(2.98781 0.00379411 0)
(2.98695 0.000728715 0)
(2.98664 -0.0010042 0)
(2.98729 -0.00366241 0)
(2.98762 -0.00424701 0)
(2.98831 -0.00383425 0)
(2.98888 -0.00231142 0)
(2.98904 -0.000834991 0)
(2.98905 -8.95242e-05 0)
(2.98865 -0.000198402 0)
(2.98798 -0.000583595 0)
(2.98793 -0.00160687 0)
(2.98814 -0.00159468 0)
(2.98844 -0.00140452 0)
(2.98869 -0.000720021 0)
(2.98864 -0.000131605 0)
(2.98858 4.5443e-06 0)
(2.98817 -0.000699363 0)
(2.98812 -0.00107794 0)
(2.98806 -0.00126596 0)
(2.98828 -0.000776298 0)
(2.98829 -0.000334643 0)
(2.98827 -0.000218709 0)
(2.98824 -0.000373873 0)
(2.98824 -0.000640619 0)
(2.98837 -0.000552513 0)
(2.98837 -0.000449179 0)
(2.98839 -0.000388774 0)
(2.98833 -0.000453973 0)
(2.98833 -0.000526016 0)
(2.98837 -0.000479596 0)
(2.98842 -0.00039281 0)
(2.98842 -0.000416183 0)
(2.98842 -0.000491676 0)
(2.98841 -0.000508094 0)
(2.98839 -0.000549736 0)
(2.98833 -0.000639529 0)
(2.98831 -0.000732318 0)
(2.98827 -0.000787564 0)
(2.98829 -0.000703019 0)
(2.98828 -0.000557972 0)
(2.98828 -0.000335677 0)
(2.98833 -0.000243026 0)
(2.98839 -0.000281411 0)
(2.98849 -0.000379225 0)
(2.98857 -0.000490622 0)
(2.98867 -0.000444542 0)
(2.98874 -0.000465861 0)
(3.06418 -0.252324 0)
(3.06417 -0.252317 0)
(3.06417 -0.252307 0)
(3.06416 -0.252298 0)
(3.06416 -0.252284 0)
(3.06416 -0.252283 0)
(3.06416 -0.252275 0)
(3.06416 -0.252265 0)
(3.06416 -0.252269 0)
(3.06416 -0.25226 0)
(3.06417 -0.25225 0)
(3.06417 -0.252252 0)
(3.06417 -0.252246 0)
(3.06418 -0.252238 0)
(3.06418 -0.252232 0)
(3.0642 -0.252236 0)
(3.06424 -0.252245 0)
(3.06428 -0.252264 0)
(3.06434 -0.252281 0)
(3.06438 -0.252296 0)
(3.06442 -0.252303 0)
(3.06446 -0.252329 0)
(3.06449 -0.252324 0)
(3.06451 -0.25237 0)
(3.06453 -0.252293 0)
(3.06458 -0.252251 0)
(3.06462 -0.252205 0)
(3.06464 -0.252102 0)
(3.06465 -0.251968 0)
(3.06465 -0.251797 0)
(3.06458 -0.251497 0)
(3.06446 -0.250932 0)
(3.06417 -0.24982 0)
(3.06359 -0.247897 0)
(3.06241 -0.244356 0)
(3.06069 -0.239042 0)
(3.05731 -0.229026 0)
(3.05391 -0.218334 0)
(3.04687 -0.195519 0)
(3.04273 -0.179794 0)
(3.03162 -0.142161 0)
(3.02922 -0.127079 0)
(3.01569 -0.0799317 0)
(3.01649 -0.0700607 0)
(3.00522 -0.0315922 0)
(3.00633 -0.0271807 0)
(2.99899 -0.00386913 0)
(2.99777 -0.00117961 0)
(2.99419 0.0105458 0)
(2.99162 0.00936975 0)
(2.98955 0.00600639 0)
(2.98879 0.00118417 0)
(2.98794 -0.000464095 0)
(2.98708 -0.00259998 0)
(2.98721 -0.00258561 0)
(2.98763 -0.00238269 0)
(2.98815 -0.00117769 0)
(2.98877 0.000859882 0)
(2.9891 0.000833554 0)
(2.98891 -0.000263834 0)
(2.98862 -0.000877988 0)
(2.988 -0.00269403 0)
(2.9879 -0.0021625 0)
(2.98816 -0.00169023 0)
(2.9885 -0.00086364 0)
(2.98901 8.33993e-05 0)
(2.98917 9.48177e-05 0)
(2.98902 -0.000245949 0)
(2.98885 -0.00101673 0)
(2.98884 -0.000698903 0)
(2.98908 -0.000377267 0)
(2.98916 -0.000180608 0)
(2.98925 -0.000293034 0)
(2.98916 -0.000396891 0)
(2.98912 -0.000594464 0)
(2.98901 -0.0003859 0)
(2.98907 -0.000340077 0)
(2.98923 -0.000490131 0)
(2.98924 -0.000603156 0)
(2.98922 -0.000637567 0)
(2.98917 -0.000423938 0)
(2.9892 -0.000288244 0)
(2.98925 -0.000239025 0)
(2.98927 -0.000230864 0)
(2.98929 -0.00024042 0)
(2.98929 -0.000252635 0)
(2.98928 -0.000261865 0)
(2.98925 -0.000287154 0)
(2.98916 -0.000444051 0)
(2.98914 -0.000534746 0)
(2.9891 -0.000587496 0)
(2.98913 -0.000492463 0)
(2.98911 -0.00039825 0)
(2.98908 -0.000215188 0)
(2.9891 -0.000102566 0)
(2.98914 -8.05823e-05 0)
(2.98922 -0.00013943 0)
(2.98931 -0.000275895 0)
(2.98939 -0.000357819 0)
(2.98945 -0.000369362 0)
(3.06458 -0.252249 0)
(3.0646 -0.252242 0)
(3.06462 -0.252239 0)
(3.06464 -0.252235 0)
(3.06467 -0.252229 0)
(3.06469 -0.252229 0)
(3.06472 -0.252229 0)
(3.06474 -0.252222 0)
(3.06477 -0.252222 0)
(3.0648 -0.252215 0)
(3.06483 -0.252217 0)
(3.06486 -0.252208 0)
(3.0649 -0.252204 0)
(3.06493 -0.252203 0)
(3.06497 -0.252201 0)
(3.06501 -0.252193 0)
(3.06505 -0.252205 0)
(3.0651 -0.252199 0)
(3.06515 -0.252199 0)
(3.0652 -0.252185 0)
(3.06525 -0.25219 0)
(3.06531 -0.252189 0)
(3.06537 -0.252205 0)
(3.06543 -0.252204 0)
(3.06549 -0.252223 0)
(3.06556 -0.252235 0)
(3.06563 -0.252247 0)
(3.06569 -0.252246 0)
(3.06575 -0.252267 0)
(3.0658 -0.252252 0)
(3.06582 -0.252278 0)
(3.06593 -0.252212 0)
(3.06602 -0.252164 0)
(3.06611 -0.252109 0)
(3.06618 -0.251995 0)
(3.06619 -0.25177 0)
(3.06612 -0.251229 0)
(3.06587 -0.250079 0)
(3.06515 -0.247822 0)
(3.06376 -0.243332 0)
(3.06098 -0.235351 0)
(3.05732 -0.223714 0)
(3.05075 -0.203099 0)
(3.04566 -0.184539 0)
(3.03503 -0.146933 0)
(3.03163 -0.130842 0)
(3.02047 -0.0872576 0)
(3.01911 -0.0813835 0)
(3.01131 -0.0487021 0)
(3.0131 -0.0496253 0)
(3.00456 -0.031065 0)
(3.0045 -0.0260546 0)
(2.99899 -0.0167383 0)
(2.99639 -0.0104334 0)
(2.99508 -0.00477421 0)
(2.99159 0.000212148 0)
(2.98966 0.00418284 0)
(2.98901 0.0036951 0)
(2.98866 0.001288 0)
(2.9885 -0.000978777 0)
(2.9884 -0.00405462 0)
(2.98868 -0.00439802 0)
(2.98947 -0.00312589 0)
(2.98994 -0.00163678 0)
(2.99027 6.83206e-05 0)
(2.99026 0.000404023 0)
(2.98995 -0.000326699 0)
(2.98968 -0.000984882 0)
(2.98986 -0.00160371 0)
(2.99021 -0.00140068 0)
(2.99063 -0.000830593 0)
(2.99051 -0.000150038 0)
(2.99039 -0.000133672 0)
(2.99017 -0.000552316 0)
(2.99027 -0.000598077 0)
(2.99038 -0.000425542 0)
(2.99038 -0.000163809 0)
(2.99044 -0.000297809 0)
(2.99046 -0.000553734 0)
(2.99036 -0.000772399 0)
(2.99042 -0.000688323 0)
(2.99049 -0.000530123 0)
(2.99052 -0.000394792 0)
(2.99051 -0.000419979 0)
(2.99054 -0.000479702 0)
(2.99053 -0.000528401 0)
(2.99051 -0.000575186 0)
(2.99046 -0.000664501 0)
(2.99037 -0.000722163 0)
(2.99035 -0.000715242 0)
(2.99032 -0.000695167 0)
(2.99031 -0.000658108 0)
(2.9903 -0.00061764 0)
(2.99028 -0.000511214 0)
(2.99025 -0.000332457 0)
(2.99029 -0.000294184 0)
(2.99035 -0.000308456 0)
(2.99044 -0.000405353 0)
(2.9905 -0.000446942 0)
(2.99053 -0.000520144 0)
(3.06631 -0.252365 0)
(3.06634 -0.252367 0)
(3.06637 -0.252362 0)
(3.0664 -0.252365 0)
(3.06643 -0.252363 0)
(3.06646 -0.252354 0)
(3.06649 -0.252352 0)
(3.06653 -0.252345 0)
(3.06656 -0.252337 0)
(3.0666 -0.25234 0)
(3.06664 -0.252345 0)
(3.06668 -0.252349 0)
(3.06672 -0.252335 0)
(3.06676 -0.25233 0)
(3.06681 -0.252327 0)
(3.06686 -0.252311 0)
(3.06691 -0.252303 0)
(3.06696 -0.25231 0)
(3.06701 -0.252296 0)
(3.06706 -0.25229 0)
(3.06712 -0.252277 0)
(3.06717 -0.252277 0)
(3.06723 -0.25227 0)
(3.06729 -0.252276 0)
(3.06736 -0.252271 0)
(3.06742 -0.25228 0)
(3.06749 -0.252275 0)
(3.06756 -0.252275 0)
(3.06762 -0.252266 0)
(3.06769 -0.252274 0)
(3.06776 -0.252282 0)
(3.0678 -0.252285 0)
(3.06783 -0.252295 0)
(3.06787 -0.252285 0)
(3.06791 -0.252291 0)
(3.06795 -0.25225 0)
(3.06795 -0.252256 0)
(3.06807 -0.252193 0)
(3.06816 -0.252128 0)
(3.06821 -0.25202 0)
(3.06816 -0.251646 0)
(3.06795 -0.250764 0)
(3.06723 -0.248603 0)
(3.0658 -0.244265 0)
(3.0626 -0.235108 0)
(3.05861 -0.222337 0)
(3.05034 -0.196298 0)
(3.04539 -0.176027 0)
(3.0315 -0.128852 0)
(3.03086 -0.111354 0)
(3.0155 -0.0563489 0)
(3.01767 -0.0482862 0)
(3.00656 -0.0116721 0)
(3.00529 -0.00717465 0)
(2.99984 0.0114169 0)
(2.99614 0.0104278 0)
(2.99311 0.00630589 0)
(2.99159 0.00103739 0)
(2.99061 -0.00221977 0)
(2.98978 -0.00379487 0)
(2.99018 -0.00375017 0)
(2.99109 -0.00252355 0)
(2.99301 0.000851024 0)
(2.99226 0.000315461 0)
(2.99205 0.000124108 0)
(2.99143 -0.00065005 0)
(2.99144 -0.00152334 0)
(2.99075 -0.00172959 0)
(2.99106 -0.00141486 0)
(2.99165 -0.000516957 0)
(2.99145 -0.000297073 0)
(2.99143 -0.000287707 0)
(2.99126 -0.000826983 0)
(2.99136 -0.000701292 0)
(2.99155 -0.000583323 0)
(2.99171 -0.000338972 0)
(2.99165 -0.000326365 0)
(2.99155 -0.000419628 0)
(2.99157 -0.000596548 0)
(2.99163 -0.000546988 0)
(2.99167 -0.000516275 0)
(2.99174 -0.000351194 0)
(2.99172 -0.000352284 0)
(2.99171 -0.000328157 0)
(2.99174 -0.000272029 0)
(2.99172 -0.00030023 0)
(2.99168 -0.000400069 0)
(2.99165 -0.000492825 0)
(2.99155 -0.000538593 0)
(2.99152 -0.000530356 0)
(2.99149 -0.000557469 0)
(2.99147 -0.000537355 0)
(2.99146 -0.000509136 0)
(2.99145 -0.000424747 0)
(2.99143 -0.000253956 0)
(2.99146 -6.56605e-05 0)
(2.9915 -5.3983e-05 0)
(2.99156 -0.000150002 0)
(2.99161 -0.000329311 0)
(2.99162 -0.00038712 0)
(3.0683 -0.25244 0)
(3.06832 -0.252439 0)
(3.06834 -0.252436 0)
(3.06837 -0.252431 0)
(3.06839 -0.252427 0)
(3.06841 -0.25242 0)
(3.06844 -0.252416 0)
(3.06847 -0.25241 0)
(3.0685 -0.252404 0)
(3.06853 -0.252407 0)
(3.06856 -0.252412 0)
(3.06859 -0.252406 0)
(3.06862 -0.252396 0)
(3.06865 -0.252397 0)
(3.06869 -0.252393 0)
(3.06871 -0.252379 0)
(3.06875 -0.252374 0)
(3.06879 -0.252376 0)
(3.06882 -0.252364 0)
(3.06886 -0.252346 0)
(3.0689 -0.252346 0)
(3.06894 -0.252355 0)
(3.06898 -0.252352 0)
(3.06903 -0.252351 0)
(3.06907 -0.252349 0)
(3.06912 -0.252343 0)
(3.06917 -0.252324 0)
(3.06921 -0.252315 0)
(3.06926 -0.252307 0)
(3.06931 -0.252318 0)
(3.06936 -0.25233 0)
(3.0694 -0.252355 0)
(3.06945 -0.252351 0)
(3.0695 -0.25236 0)
(3.06955 -0.252343 0)
(3.0696 -0.252355 0)
(3.06964 -0.252349 0)
(3.06965 -0.252352 0)
(3.06965 -0.25235 0)
(3.06965 -0.252349 0)
(3.06958 -0.252314 0)
(3.06968 -0.252314 0)
(3.06973 -0.252295 0)
(3.06974 -0.252223 0)
(3.06962 -0.251881 0)
(3.06925 -0.250822 0)
(3.06819 -0.248099 0)
(3.06615 -0.242038 0)
(3.0619 -0.230133 0)
(3.05689 -0.212981 0)
(3.04738 -0.181081 0)
(3.04229 -0.158353 0)
(3.02954 -0.10879 0)
(3.02769 -0.0975593 0)
(3.01783 -0.055369 0)
(3.01998 -0.0552771 0)
(3.01021 -0.0326426 0)
(3.00835 -0.0254495 0)
(3.0034 -0.0154147 0)
(3.00009 -0.00686582 0)
(2.99741 -0.000916306 0)
(2.99469 0.00298597 0)
(2.99436 0.00257945 0)
(2.99318 0.00073957 0)
(2.99248 -0.00156985 0)
(2.99264 -0.00382452 0)
(2.99249 -0.00352319 0)
(2.99284 -0.00196789 0)
(2.99316 -0.000240209 0)
(2.99297 0.000271366 0)
(2.99267 -5.39591e-06 0)
(2.99228 -0.000954742 0)
(2.99243 -0.00128846 0)
(2.99252 -0.000938919 0)
(2.99282 -0.0002809 0)
(2.99263 -0.00011119 0)
(2.99251 -0.000339249 0)
(2.99243 -0.000668286 0)
(2.99254 -0.00068261 0)
(2.99267 -0.000644173 0)
(2.99267 -0.000470739 0)
(2.99264 -0.000465199 0)
(2.99262 -0.000490603 0)
(2.99264 -0.000569025 0)
(2.99265 -0.000471677 0)
(2.99264 -0.00053536 0)
(2.99259 -0.000634205 0)
(2.99257 -0.000718905 0)
(2.99249 -0.000678732 0)
(2.99246 -0.000601233 0)
(2.9924 -0.000589601 0)
(2.99237 -0.00061613 0)
(2.99236 -0.000624821 0)
(2.99236 -0.000598499 0)
(2.99235 -0.00045769 0)
(2.9924 -0.000265859 0)
(2.99242 -0.000185172 0)
(2.99244 -0.000196937 0)
(2.99247 -0.000364043 0)
(2.9925 -0.000509216 0)
(3.06982 -0.252509 0)
(3.06983 -0.252507 0)
(3.06984 -0.252504 0)
(3.06986 -0.252499 0)
(3.06987 -0.252495 0)
(3.06989 -0.252493 0)
(3.06991 -0.252486 0)
(3.06992 -0.25248 0)
(3.06993 -0.252481 0)
(3.06995 -0.252477 0)
(3.06997 -0.252473 0)
(3.06998 -0.252473 0)
(3.07 -0.252467 0)
(3.07002 -0.252462 0)
(3.07004 -0.252453 0)
(3.07005 -0.25245 0)
(3.07007 -0.252438 0)
(3.0701 -0.252429 0)
(3.07012 -0.252423 0)
(3.07014 -0.252416 0)
(3.07016 -0.252415 0)
(3.07019 -0.252418 0)
(3.0702 -0.252416 0)
(3.07023 -0.252413 0)
(3.07025 -0.252409 0)
(3.07028 -0.252406 0)
(3.0703 -0.2524 0)
(3.07033 -0.252399 0)
(3.07035 -0.252392 0)
(3.07038 -0.2524 0)
(3.0704 -0.252409 0)
(3.07042 -0.252436 0)
(3.07045 -0.252446 0)
(3.07048 -0.25246 0)
(3.07051 -0.252456 0)
(3.07054 -0.252484 0)
(3.07058 -0.252499 0)
(3.07061 -0.252553 0)
(3.07064 -0.252562 0)
(3.07067 -0.252622 0)
(3.07069 -0.252619 0)
(3.07066 -0.252643 0)
(3.07063 -0.252634 0)
(3.07059 -0.25267 0)
(3.0705 -0.252636 0)
(3.07052 -0.252603 0)
(3.07052 -0.252573 0)
(3.07044 -0.252353 0)
(3.07016 -0.251626 0)
(3.06942 -0.249646 0)
(3.0675 -0.244499 0)
(3.06432 -0.234773 0)
(3.05729 -0.213513 0)
(3.05164 -0.191317 0)
(3.0371 -0.142202 0)
(3.03603 -0.119752 0)
(3.01884 -0.0558537 0)
(3.02108 -0.0459591 0)
(3.00919 -0.00588727 0)
(3.00589 -0.00029821 0)
(3.00212 0.0146086 0)
(2.9977 0.00878125 0)
(2.99505 0.00180114 0)
(2.99421 -0.00276737 0)
(2.99415 -0.0032609 0)
(2.99434 -0.00322267 0)
(2.99481 -0.00126769 0)
(2.99507 0.000774544 0)
(2.99479 0.000749846 0)
(2.99394 4.14166e-05 0)
(2.99349 -0.00122739 0)
(2.99301 -0.00164001 0)
(2.99331 -0.001228 0)
(2.99368 -0.000227491 0)
(2.9936 -0.000120412 0)
(2.99335 -0.000308111 0)
(2.99313 -0.000675552 0)
(2.99313 -0.000696943 0)
(2.99321 -0.000544085 0)
(2.99321 -0.000254227 0)
(2.99328 -0.00040102 0)
(2.99326 -0.000474504 0)
(2.99329 -0.000560608 0)
(2.99329 -0.000477124 0)
(2.99328 -0.000415878 0)
(2.99326 -0.000449587 0)
(2.99323 -0.000618185 0)
(2.9932 -0.000602294 0)
(2.99315 -0.000549842 0)
(2.99311 -0.000512663 0)
(2.99305 -0.000521373 0)
(2.993 -0.000548855 0)
(2.99298 -0.000558903 0)
(2.99299 -0.000547673 0)
(2.99298 -0.000439636 0)
(2.99301 -0.000214066 0)
(2.993 -9.18891e-05 0)
(2.99301 -9.74016e-05 0)
(2.99304 -0.000240936 0)
(2.99308 -0.000419041 0)
(3.07069 -0.252444 0)
(3.0707 -0.252436 0)
(3.0707 -0.252435 0)
(3.07071 -0.252432 0)
(3.07072 -0.252422 0)
(3.07073 -0.252413 0)
(3.07073 -0.25241 0)
(3.07074 -0.252412 0)
(3.07075 -0.252407 0)
(3.07075 -0.252401 0)
(3.07076 -0.252405 0)
(3.07077 -0.252414 0)
(3.07078 -0.252414 0)
(3.07079 -0.252404 0)
(3.07079 -0.252401 0)
(3.0708 -0.252403 0)
(3.07082 -0.252394 0)
(3.07083 -0.25238 0)
(3.07083 -0.252374 0)
(3.07084 -0.252382 0)
(3.07086 -0.252388 0)
(3.07086 -0.252392 0)
(3.07087 -0.252398 0)
(3.07088 -0.252406 0)
(3.0709 -0.252409 0)
(3.07091 -0.252417 0)
(3.07092 -0.252422 0)
(3.07093 -0.25243 0)
(3.07094 -0.252434 0)
(3.07095 -0.252442 0)
(3.07095 -0.252468 0)
(3.07095 -0.252511 0)
(3.07096 -0.252527 0)
(3.07097 -0.252553 0)
(3.07097 -0.252579 0)
(3.07098 -0.252596 0)
(3.07098 -0.252629 0)
(3.07099 -0.252699 0)
(3.07101 -0.252719 0)
(3.07101 -0.252781 0)
(3.07103 -0.252818 0)
(3.07104 -0.252868 0)
(3.07104 -0.25288 0)
(3.07102 -0.252933 0)
(3.071 -0.252943 0)
(3.07095 -0.252936 0)
(3.0709 -0.252895 0)
(3.07085 -0.252879 0)
(3.07084 -0.252846 0)
(3.07081 -0.252782 0)
(3.07072 -0.252574 0)
(3.07046 -0.251941 0)
(3.06973 -0.250123 0)
(3.06803 -0.24515 0)
(3.06416 -0.234522 0)
(3.05874 -0.215762 0)
(3.04866 -0.181848 0)
(3.04244 -0.153701 0)
(3.02901 -0.100027 0)
(3.02616 -0.0860051 0)
(3.01711 -0.0483381 0)
(3.02096 -0.0433758 0)
(3.00799 -0.0222483 0)
(3.0036 -0.0150275 0)
(3.00245 -0.0071534 0)
(2.99724 -0.00128257 0)
(2.99528 0.00348815 0)
(2.9943 0.00225066 0)
(2.99363 -0.000137978 0)
(2.99361 -0.00346997 0)
(2.99341 -0.00304121 0)
(2.99389 -0.00172824 0)
(2.99448 0.000129533 0)
(2.99438 0.00024302 0)
(2.99393 -0.000190958 0)
(2.99357 -0.00137129 0)
(2.99362 -0.00111465 0)
(2.99372 -0.000685693 0)
(2.99377 -0.000184629 0)
(2.99375 -0.000140218 0)
(2.99371 -0.000388891 0)
(2.99369 -0.000721241 0)
(2.99373 -0.000670237 0)
(2.99371 -0.000606147 0)
(2.99368 -0.0005709 0)
(2.9936 -0.000740118 0)
(2.99364 -0.000703674 0)
(2.99364 -0.000660088 0)
(2.99359 -0.000549377 0)
(2.99355 -0.000535286 0)
(2.9935 -0.000554232 0)
(2.99341 -0.000593992 0)
(2.99338 -0.000622466 0)
(2.99338 -0.000616803 0)
(2.99338 -0.000526573 0)
(2.99335 -0.000371788 0)
(2.99336 -0.00014368 0)
(2.99338 -0.000147859 0)
(2.99341 -0.000278792 0)
(2.99344 -0.000436353 0)
(3.07103 -0.252366 0)
(3.07103 -0.252363 0)
(3.07104 -0.252358 0)
(3.07104 -0.252349 0)
(3.07104 -0.252347 0)
(3.07105 -0.252346 0)
(3.07106 -0.252339 0)
(3.07106 -0.252333 0)
(3.07106 -0.252333 0)
(3.07107 -0.252336 0)
(3.07107 -0.252337 0)
(3.07107 -0.252338 0)
(3.07107 -0.252343 0)
(3.07108 -0.252349 0)
(3.07108 -0.252351 0)
(3.07109 -0.252344 0)
(3.07109 -0.252339 0)
(3.07109 -0.252348 0)
(3.07109 -0.252359 0)
(3.0711 -0.252372 0)
(3.07109 -0.252384 0)
(3.07109 -0.252395 0)
(3.07109 -0.252408 0)
(3.0711 -0.252419 0)
(3.0711 -0.252436 0)
(3.0711 -0.252455 0)
(3.0711 -0.252471 0)
(3.0711 -0.252503 0)
(3.0711 -0.252511 0)
(3.0711 -0.252515 0)
(3.07108 -0.252566 0)
(3.07107 -0.252605 0)
(3.07107 -0.252634 0)
(3.07105 -0.252682 0)
(3.07105 -0.252691 0)
(3.07105 -0.252709 0)
(3.07102 -0.252783 0)
(3.07102 -0.25282 0)
(3.07103 -0.25282 0)
(3.07102 -0.252882 0)
(3.07101 -0.252925 0)
(3.07101 -0.252955 0)
(3.07101 -0.252977 0)
(3.07101 -0.25301 0)
(3.071 -0.253076 0)
(3.07098 -0.253084 0)
(3.07095 -0.253071 0)
(3.07094 -0.253059 0)
(3.07092 -0.253021 0)
(3.07089 -0.252997 0)
(3.07086 -0.252943 0)
(3.07084 -0.252916 0)
(3.07077 -0.252876 0)
(3.07066 -0.252707 0)
(3.07035 -0.252 0)
(3.06961 -0.249994 0)
(3.06741 -0.243813 0)
(3.06375 -0.232215 0)
(3.05458 -0.203519 0)
(3.04889 -0.177945 0)
(3.0301 -0.114063 0)
(3.03227 -0.0926561 0)
(3.01433 -0.0273564 0)
(3.013 -0.0201183 0)
(3.00553 0.0108358 0)
(3.00051 0.00952566 0)
(2.99674 0.00409708 0)
(2.99569 -0.000963396 0)
(2.99418 -0.00378861 0)
(2.99446 -0.00375818 0)
(2.99501 -0.00164538 0)
(2.99541 0.00155184 0)
(2.99519 0.00137571 0)
(2.99437 0.000158022 0)
(2.99376 -0.00152529 0)
(2.99376 -0.00159116 0)
(2.99404 -0.000997131 0)
(2.99432 2.76994e-05 0)
(2.99423 -1.07204e-05 0)
(2.99404 -0.000340365 0)
(2.99391 -0.000639459 0)
(2.99393 -0.000582995 0)
(2.99397 -0.000503889 0)
(2.99396 -0.000515829 0)
(2.9939 -0.000715929 0)
(2.99386 -0.000758708 0)
(2.99388 -0.000683828 0)
(2.99388 -0.000514341 0)
(2.99386 -0.000478461 0)
(2.99381 -0.000499732 0)
(2.99376 -0.000522892 0)
(2.99365 -0.000553367 0)
(2.99363 -0.000569605 0)
(2.99361 -0.000577745 0)
(2.99364 -0.0004753 0)
(2.99362 -0.000332645 0)
(2.99361 -0.0002084 0)
(2.99363 -0.000107382 0)
(2.99362 -0.000236931 0)
(2.99367 -0.000347237 0)
(3.07107 -0.252305 0)
(3.07107 -0.252305 0)
(3.07107 -0.252307 0)
(3.07107 -0.25231 0)
(3.07107 -0.252307 0)
(3.07107 -0.252302 0)
(3.07107 -0.252298 0)
(3.07108 -0.252294 0)
(3.07108 -0.252299 0)
(3.07108 -0.252307 0)
(3.07109 -0.25231 0)
(3.07109 -0.252315 0)
(3.07108 -0.252336 0)
(3.07108 -0.252354 0)
(3.07108 -0.252359 0)
(3.07108 -0.252371 0)
(3.07107 -0.25239 0)
(3.07107 -0.252397 0)
(3.07107 -0.252407 0)
(3.07106 -0.25243 0)
(3.07105 -0.252439 0)
(3.07105 -0.252439 0)
(3.07104 -0.252459 0)
(3.07103 -0.252485 0)
(3.07103 -0.252517 0)
(3.07103 -0.252532 0)
(3.07102 -0.252549 0)
(3.071 -0.252586 0)
(3.07099 -0.252588 0)
(3.07099 -0.25259 0)
(3.07096 -0.252638 0)
(3.07095 -0.252663 0)
(3.07093 -0.252688 0)
(3.07091 -0.252735 0)
(3.07091 -0.252737 0)
(3.0709 -0.252748 0)
(3.07088 -0.252796 0)
(3.07088 -0.252823 0)
(3.07088 -0.252823 0)
(3.07087 -0.252857 0)
(3.07086 -0.252914 0)
(3.07086 -0.252944 0)
(3.07086 -0.25296 0)
(3.07085 -0.253001 0)
(3.07084 -0.253057 0)
(3.07083 -0.253074 0)
(3.07083 -0.253074 0)
(3.07083 -0.253063 0)
(3.07083 -0.25304 0)
(3.07082 -0.253028 0)
(3.07078 -0.253017 0)
(3.07073 -0.25299 0)
(3.07069 -0.252953 0)
(3.07067 -0.252931 0)
(3.07065 -0.25292 0)
(3.0706 -0.252878 0)
(3.0705 -0.252658 0)
(3.07019 -0.251747 0)
(3.06908 -0.248808 0)
(3.06653 -0.240721 0)
(3.06032 -0.222687 0)
(3.05334 -0.19635 0)
(3.03906 -0.144514 0)
(3.03509 -0.121123 0)
(3.02031 -0.0603658 0)
(3.02421 -0.0602021 0)
(3.01074 -0.0309075 0)
(3.0099 -0.0230125 0)
(3.00335 -0.00997974 0)
(2.99872 -0.00301582 0)