/*--------------------------------*- C++ -*----------------------------------*\
  =========                 |
  \\      /  F ield         | OpenFOAM: The Open Source CFD Toolbox
   \\    /   O peration     | Website:  https://openfoam.org
    \\  /    A nd           | Version:  7
     \\/     M anipulation  |
\*---------------------------------------------------------------------------*/
FoamFile
{
    version     2.0;
    format      ascii;
    class       volScalarField;
    location    "9.9";
    object      p;
}
// * * * * * * * * * * * * * * * * * * * * * * * * * * * * * * * * * * * * * //

dimensions      [1 -1 -2 0 0 0 0];

internalField   nonuniform List<scalar> 
1750
(
0.254449
0.51349
0.61156
0.5794
0.620824
0.709218
0.764756
0.823424
0.916261
0.975377
0.0240459
0.106007
0.421467
0.69442
0.850112
0.896154
0.880748
0.924763
0.954535
0.973863
0.0228795
0.0216561
0.0510365
0.249594
0.543555
0.769569
0.905513
1.00665
0.976938
0.968843
0.0358062
0.0400672
0.0470602
0.0540931
0.0921634
0.216128
0.458732
0.692603
0.815713
0.948273
0.0684093
0.0833096
0.0901393
0.0958738
0.10158
0.111609
0.122308
0.192562
0.363716
0.652034
0.127485
0.140437
0.145299
0.147124
0.153717
0.163838
0.175889
0.194196
0.193714
0.274166
0.244894
0.248682
0.254035
0.258136
0.259739
0.260579
0.265177
0.263769
0.26175
0.26551
0.457343
0.44245
0.424641
0.410508
0.399645
0.388351
0.374941
0.359309
0.351255
0.340971
0.767461
0.728657
0.694352
0.654486
0.61923
0.588213
0.558703
0.53208
0.508551
0.476633
1.02836
1.00025
0.970056
0.933817
0.89141
0.847372
0.801182
0.753947
0.712942
0.649373
1.08322
1.08013
1.07597
1.06943
1.05752
1.03972
1.01489
0.981214
0.944534
0.873298
1.06361
1.06693
1.07011
1.06993
1.06937
1.06819
1.06583
1.06114
1.05428
1.0287
1.01796
1.0231
1.0292
1.03609
1.04247
1.04805
1.05229
1.05553
1.05518
1.05288
1.00112
1.00185
1.00303
1.00492
1.00778
1.01162
1.01646
1.02255
1.02858
1.03643
1.00002
1.00004
1.00007
1.00015
1.00032
1.00065
1.00129
1.00247
1.0043
1.00991
0.0261642
0.0192829
0.0224931
0.0338765
0.0568898
0.117825
0.245234
0.47936
0.811797
1.04777
1.08555
1.05944
1.01379
1.00074
1.00001
0.0249298
0.0190171
0.0233869
0.0384819
0.0710694
0.155792
0.329083
0.59883
0.916816
1.08134
1.08736
1.0495
1.00788
1.00029
1
0.0240764
0.0169027
0.0218062
0.0386596
0.0858763
0.20239
0.394607
0.68292
0.983023
1.09308
1.0874
1.03815
1.00444
1.00013
1
0.0235229
0.014968
0.0199297
0.0401989
0.115861
0.253768
0.46925
0.786541
1.04519
1.09903
1.07935
1.02704
1.00238
1.00006
1
0.0235061
0.0142377
0.021029
0.0586526
0.149733
0.304315
0.571163
0.901186
1.08535
1.1013
1.07048
1.01872
1.00121
1.00003
1
0.0196941
0.0133447
0.029127
0.0826747
0.189364
0.383687
0.706162
0.994137
1.10492
1.10208
1.05903
1.01075
1.00049
1.00001
1
0.0139325
0.0128711
0.0374014
0.104622
0.248464
0.520427
0.833877
1.06023
1.11339
1.09883
1.04176
1.0051
1.00019
1
1
0.0114883
0.0135623
0.0508137
0.150581
0.350488
0.65772
0.952353
1.10326
1.11598
1.08605
1.02582
1.00234
1.00007
1
1
0.00954633
0.0244383
0.0743455
0.222508
0.495509
0.807787
1.05058
1.1215
1.11611
1.06605
1.01469
1.00094
1.00002
1
1
0.00668279
0.0326826
0.126091
0.343063
0.667438
0.96117
1.10652
1.1257
1.10414
1.04605
1.00685
1.00031
1.00001
1
1
0.00214322
0.0391587
0.224532
0.537887
0.851701
1.06625
1.12923
1.12636
1.08736
1.02751
1.00269
1.0001
1
1
1
0.00272007
0.108765
0.403864
0.747609
1.01158
1.1212
1.13495
1.11825
1.06386
1.01311
1.00093
1.00003
1
1
1
0.0296193
0.267867
0.643525
0.950495
1.10668
1.13995
1.13616
1.1014
1.03725
1.00492
1.00023
1.00001
1
1
1
0.147989
0.50146
0.901785
1.09444
1.14315
1.14229
1.12624
1.0706
1.01682
1.00144
1.00005
1
1
1
1
0.531323
0.893761
1.09335
1.14427
1.14776
1.13781
1.10134
1.03879
1.00591
1.00031
1.00001
1
1
1
1
1.14954
1.15151
1.15502
1.15187
1.14435
1.12155
1.06438
1.01468
1.00078
1.00001
1
1
1
1
1
1.14944
1.15058
1.15341
1.14854
1.14198
1.11658
1.05816
1.01367
1.00115
1.00004
1
1
1
1
1
1.14985
1.15128
1.15605
1.14672
1.13473
1.0987
1.03835
1.00511
1.00022
1
1
1
1
1
1
1.15088
1.15108
1.15686
1.14524
1.1275
1.08147
1.02444
1.00241
1.00008
1
1
1
1
1
1
1.15238
1.15102
1.15412
1.1416
1.11763
1.06175
1.01365
1.00097
1.00002
1
1
1
1
1
1
1.1532
1.15153
1.15118
1.13724
1.10229
1.04428
1.00674
1.00032
1.00001
1
1
1
1
1
1
1.15307
1.15254
1.14803
1.13185
1.08455
1.02626
1.00272
1.0001
1
1
1
1
1
1
1
1.153
1.15173
1.13891
1.1186
1.06356
1.01413
1.00102
1.00003
1
1
1
1
1
1
1
1.1538
1.15151
1.13185
1.10078
1.04362
1.00655
1.0003
1.00001
1
1
1
1
1
1
1
1.15535
1.15174
1.1249
1.07842
1.02262
1.00219
1.00007
1
1
1
1
1
1
1
1
1.1541
1.14235
1.11227
1.05425
1.01059
1.00067
1.00002
1
1
1
1
1
1
1
1
1.15631
1.13281
1.09417
1.03225
1.00393
1.00016
1
1
1
1
1
1
1
1
1
1.16149
1.12175
1.06228
1.01301
1.0009
1.00003
1
1
1
1
1
1
1
1
1
1.14976
1.09684
1.03492
1.0044
1.00018
1
1
1
1
1
1
1
1
1
1
1.13631
1.06659
1.01454
1.00099
1.00003
1
1
1
1
1
1
1
1
1
1
1.12574
1.02508
1.00241
1.00012
1
1
1
1
1
1
1
1
1
1
1
1
1
1
1
1
1
1
1
1
1
1
1
1
1
1
1
1
1
1
1
1
1
1
1
1
1
1
1
1
1
1
1
1
1
1
1
1
1
1
1
1
1
1
1
1
1
1
1
1
1
1
1
1
1
1
1
1
1
1
1
1
1
1
1
1
1
1
1
1
1
1
1
1
1
1
1
1
1
1
1
1
1
1
1
1
1
1
1
1
1
1
1
1
1
1
1
1
1
1
1
1
1
1
1
1
1
1
1
1
1
1
1
1
1
1
1
1
1
1
1
1
1
1
1
1
1
1
1
1
1
1
1
1
1
1
1.51443
1
1
1
1
1
1
1
1
1
1.11327
1
1
1
1
1
1
1
1
1
1.02098
1
1
1
1
1
1
1
1
1
1.00423
1
1
1
1
1
1
1
1
1
1.00074
1
1
1
1
1
1
1
1
1
1.0001
1
1
1
1
1
1
1
1
1
1.00001
1
1
1
1
1
1
1
1
1
1
1
1
1
1
1
1
1
1
1
1
1
1
1
1
1
1
1
1
1
1
1
1
1
1
1
1
1
1
1
1
1
1
1
1
1
1
1
1
1
1
1
1
1
1
1
1
1
1
1
1
1
1
1
1
1
1
1
1
1
1
1
1
1
1
1
1
1
1
1
1
1
1
1
1
1
1
1
1
1
1
1
1
1
1
1
1
1
1
1
1
1
1
1
1
1
1
1
1
1
1
1
1
1
1
1
1
1
1
1
1
1
1
1
1
1
1
1
1
1
1
1
1
1
1
1
1
1
1
1
8.6675
5.73984
2.05676
1.00213
1.00036
1.00007
1.00001
1
1
1
1
1
1
1
1
1
1
1
1
1
9.00631
8.40724
7.70576
4.72879
1.28051
1.00003
1
1
1
1
1
1
1
1
1
1
1
1
1
1
8.7205
8.44428
8.5448
8.23014
6.21363
1.85007
0.999812
1
1
1
1
1
1
1
1
1
1
1
1
1
8.52421
8.38745
8.42199
8.32858
8.2816
6.89207
2.32405
0.99887
1
1
1
1
1
1
1
1
1
1
1
1
8.40955
8.31799
8.34324
8.29782
8.2726
8.25615
7.23541
2.63765
0.99782
1
1
1
1
1
1
1
1
1
1
1
8.33603
8.26931
8.29549
8.24882
8.24616
8.20942
8.16844
7.18261
2.57136
0.997843
1
1
1
1
1
1
1
1
1
1
8.27815
8.22652
8.24708
8.20495
8.19481
8.17522
8.14966
8.14362
7.19919
2.46804
0.99788
1
1
1
1
1
1
1
1
1
8.22883
8.18455
8.19849
8.1568
8.14283
8.12226
8.1077
8.11156
8.01399
6.66127
2.08033
0.997338
1.00001
1
1
1
1
1
1
1
8.17959
8.13811
8.14817
8.10278
8.09965
8.07298
8.05082
8.02076
7.94666
7.91539
5.89497
1.60112
0.997933
1.00001
1
1
1
1
1
1
8.12872
8.08831
8.09486
8.04978
8.04755
8.01265
7.98209
7.94716
7.91651
7.92721
7.59084
4.31569
1.18212
0.999221
1
1
1
1
1
1
8.07957
8.0407
8.03998
7.99546
7.98904
7.94521
7.90902
7.8774
7.84818
7.81339
7.67422
7.24297
2.96533
1.03058
0.999858
0.999997
1
1
1
1
8.03024
7.98685
7.97983
7.93631
7.92458
7.87662
7.84077
7.80596
7.76852
7.72884
7.66243
7.78544
6.65115
2.06672
1.00242
0.999999
1
1
1
1
7.95899
7.91133
7.90131
7.85265
7.83302
7.7806
7.74007
7.69375
7.65463
7.62615
7.59748
7.64999
7.4847
4.92764
1.34775
0.999224
0.999958
1
1
1
7.81721
7.7384
7.69983
7.62428
7.57738
7.51077
7.45989
7.40945
7.37609
7.36456
7.35353
7.3492
7.33365
7.04848
3.12039
1.05642
1.00015
1
1
1
7.35349
7.0672
6.98499
6.89728
6.86082
6.8346
6.84046
6.84814
6.8779
6.92055
6.93588
6.93983
6.95312
6.9363
5.55888
1.63706
0.987222
0.999213
0.999993
1
2.47434
3.69096
4.21757
4.66353
5.07507
5.39372
5.64131
5.84681
6.04149
6.19695
6.32122
6.38648
6.46181
6.59113
6.54994
4.27961
1.3887
1.00535
1.00002
1
0.760325
1.9404
2.63395
3.20108
3.63914
4.105
4.47818
4.83404
5.13156
5.39443
5.60487
5.75892
5.90473
6.1179
6.37393
6.03872
3.13382
1.16983
1.00208
1.00001
0.738366
1.26239
1.64307
2.18799
2.72167
3.15891
3.58806
3.95833
4.30518
4.66223
4.91564
5.17549
5.38195
5.65524
5.96909
5.96225
5.09343
2.09043
1.04279
1.00031
0.86834
1.11538
1.23165
1.55695
1.99831
2.43542
2.89126
3.2814
3.66391
4.00449
4.33329
4.64655
4.90275
5.21421
5.49124
5.70903
5.55832
3.72961
1.37098
1.00701
1.01497
1.01144
1.05087
1.31868
1.59016
1.93606
2.32954
2.73171
3.12442
3.45408
3.82062
4.13338
4.47819
4.76181
5.04622
5.26634
5.44045
4.93192
2.34402
1.07532
1.04455
0.999019
0.999953
1.11373
1.30522
1.61269
1.93564
2.29094
2.63314
2.98947
3.33666
3.6611
4.0605
4.37
4.64201
4.89266
5.18259
5.10766
3.60436
1.4283
1.06369
1.02192
1.02336
1.05399
1.10494
1.32461
1.61383
1.94147
2.27253
2.61664
2.94617
3.3213
3.64334
4.02398
4.28123
4.50862
4.80573
5.0357
4.49734
2.33138
1.11319
1.08129
1.06704
1.04317
1.0579
1.21202
1.40772
1.6758
1.98739
2.31841
2.64325
3.02054
3.32212
3.66271
3.94429
4.14484
4.44406
4.82909
4.59221
3.74006
1.14201
1.1145
1.08498
1.03528
1.02194
1.11607
1.26416
1.4776
1.7472
2.04354
2.36905
2.69204
3.04371
3.30669
3.6281
3.88806
4.1707
4.49343
4.73178
5.54909
1.14101
1.11651
1.08382
1.03754
1.02786
1.05738
1.12443
1.29784
1.52749
1.78429
2.10086
2.41611
2.78625
3.06208
3.35639
3.63336
3.9042
4.21383
5.03758
7.5287
1.12984
1.10962
1.08696
1.06474
1.05752
1.06174
1.07787
1.20604
1.39259
1.62933
1.90415
2.20882
2.53513
2.84411
3.10827
3.37242
3.5978
3.97268
5.44433
10.3496
1.1075
1.10072
1.10385
1.09713
1.07767
1.05425
1.04912
1.152
1.2895
1.50537
1.75382
2.03657
2.30025
2.60757
2.84875
3.1559
3.38322
3.80057
6.17285
12.4345
1.08932
1.09286
1.10833
1.10752
1.07954
1.04579
1.03139
1.0865
1.18288
1.3731
1.59502
1.85979
2.09886
2.38531
2.63803
2.92292
3.22786
3.8855
7.01486
12.9891
1.078
1.08817
1.10131
1.10776
1.08097
1.04954
1.04035
1.07049
1.11322
1.25081
1.45623
1.69221
1.95452
2.21082
2.4897
2.70962
3.03989
4.19746
7.59978
12.6878
1.08136
1.08965
1.09434
1.10151
1.08682
1.06586
1.06172
1.07489
1.10008
1.20582
1.37087
1.57225
1.81562
2.04399
2.33095
2.56267
2.92356
4.76379
7.89112
11.8692
0.928439
1.05898
1.08309
1.09491
1.09578
1.08624
1.07762
1.06483
1.07241
1.1579
1.28887
1.47513
1.69238
1.90882
2.1089
2.40525
3.04948
5.5159
7.80205
10.8083
0.777965
0.956114
1.04985
1.08624
1.1023
1.09448
1.07675
1.05487
1.05547
1.12059
1.20088
1.3633
1.54288
1.78773
1.96944
2.27058
3.418
6.14028
7.56897
9.66828
0.650299
0.825905
0.971524
1.05505
1.09532
1.09563
1.0751
1.05251
1.05745
1.10344
1.15474
1.28557
1.43702
1.64112
1.88176
2.30877
4.02485
6.56301
7.29153
8.55306
0.559614
0.69705
0.857986
0.986953
1.06353
1.08669
1.07633
1.06176
1.06585
1.08739
1.11585
1.21252
1.35577
1.51676
1.75724
2.54889
4.74051
6.62442
6.97787
7.53194
0.54748
0.613036
0.74094
0.888307
0.999071
1.06177
1.08072
1.07813
1.07407
1.06938
1.08074
1.15767
1.25582
1.40679
1.80532
3.10039
5.0951
6.43843
6.55318
6.64856
0.576358
0.570492
0.650041
0.786467
0.910296
1.0152
1.07267
1.08309
1.0737
1.05944
1.05622
1.10213
1.16906
1.36962
2.08519
3.74999
5.12128
6.07696
5.9966
5.87441
0.629285
0.580638
0.603421
0.691028
0.816223
0.943897
1.03933
1.07441
1.06848
1.05049
1.04259
1.06167
1.1244
1.51433
2.68235
4.24891
4.93799
5.47976
5.42534
5.27546
0.703081
0.631184
0.606261
0.635495
0.731587
0.853545
0.972032
1.04123
1.05405
1.04296
1.04005
1.0676
1.24191
2.05179
3.40104
4.23002
4.53595
4.85224
4.85876
4.73983
0.809044
0.722046
0.627482
0.628445
0.658879
0.755115
0.87103
0.976015
1.02629
1.03611
1.04883
1.19686
1.83389
2.90488
3.55055
3.9918
4.1249
4.31886
4.38996
4.33455
0.94184
0.878032
0.775297
0.674191
0.652128
0.676612
0.743079
0.860375
0.994143
1.18085
1.53483
2.09046
2.66511
3.03185
3.22815
3.43075
3.47588
3.57933
3.68709
3.71138
)
;

boundaryField
{
    inlet
    {
        type            fixedValue;
        value           uniform 1;
    }
    outlet
    {
        type            zeroGradient;
    }
    airfoil
    {
        type            zeroGradient;
    }
    top
    {
        type            symmetryPlane;
    }
    bottom
    {
        type            symmetryPlane;
    }
    defaultFaces
    {
        type            empty;
    }
}


// ************************************************************************* //
