/*--------------------------------*- C++ -*----------------------------------*\
  =========                 |
  \\      /  F ield         | OpenFOAM: The Open Source CFD Toolbox
   \\    /   O peration     | Website:  https://openfoam.org
    \\  /    A nd           | Version:  7
     \\/     M anipulation  |
\*---------------------------------------------------------------------------*/
FoamFile
{
    version     2.0;
    format      ascii;
    class       volScalarField;
    location    "6.7";
    object      p;
}
// * * * * * * * * * * * * * * * * * * * * * * * * * * * * * * * * * * * * * //

dimensions      [1 -1 -2 0 0 0 0];

internalField   nonuniform List<scalar> 
1750
(
0.229658
0.459007
0.568986
0.554268
0.581991
0.66159
0.73406
0.791783
0.856786
0.900581
0.0205492
0.0849176
0.352612
0.594712
0.77943
0.846579
0.866292
0.85501
0.870585
0.894317
0.0206157
0.0221493
0.039343
0.175399
0.434173
0.639208
0.810568
0.892337
0.939158
0.938656
0.0293349
0.0361289
0.0496104
0.0630353
0.0731765
0.150553
0.307215
0.537302
0.711413
0.85306
0.0646274
0.0716975
0.0868238
0.0957008
0.101519
0.109444
0.114361
0.146787
0.233129
0.515566
0.131525
0.135858
0.137675
0.145965
0.161008
0.172954
0.181934
0.186727
0.19481
0.222198
0.252367
0.255531
0.255011
0.255123
0.25587
0.258908
0.259687
0.262855
0.25874
0.248936
0.462607
0.444855
0.431358
0.418008
0.404215
0.389238
0.3779
0.366225
0.358216
0.35226
0.778164
0.740779
0.701079
0.665109
0.62868
0.593223
0.563951
0.534889
0.511609
0.479273
1.02544
1.00365
0.97374
0.938362
0.899189
0.855598
0.808224
0.762327
0.721075
0.655515
1.07125
1.06942
1.06604
1.06026
1.05094
1.03589
1.01339
0.98277
0.948629
0.878664
1.05083
1.05458
1.05752
1.05912
1.05905
1.05849
1.05705
1.05392
1.04869
1.02634
1.012
1.01626
1.02126
1.02729
1.03334
1.03881
1.04342
1.04684
1.04827
1.04737
1.00061
1.00107
1.00185
1.00318
1.00524
1.0083
1.01232
1.01752
1.02322
1.03152
1.00001
1.00002
1.00004
1.00009
1.00019
1.0004
1.00084
1.00172
1.00315
1.0081
0.0243657
0.0174283
0.0186286
0.0269166
0.0593982
0.127636
0.24851
0.480579
0.813664
1.04153
1.07207
1.04618
1.00892
1.0004
1.00001
0.0239056
0.0168834
0.0185818
0.0351889
0.0774754
0.161349
0.319458
0.599145
0.926996
1.07385
1.07332
1.03698
1.00475
1.00014
1
0.0234018
0.016111
0.0181134
0.0408537
0.0887104
0.185849
0.38586
0.70144
0.995616
1.08307
1.0733
1.02697
1.00243
1.00006
1
0.0219923
0.014977
0.0198912
0.0468345
0.109438
0.238797
0.486714
0.808189
1.0449
1.08713
1.06467
1.01732
1.00114
1.00002
1
0.0198247
0.01297
0.0250948
0.054686
0.140257
0.320561
0.586751
0.904529
1.07807
1.08851
1.05339
1.01054
1.00051
1.00001
1
0.0160215
0.0109208
0.0299778
0.0770681
0.192579
0.400216
0.701655
0.999477
1.09566
1.08863
1.04078
1.00548
1.00019
1
1
0.0140558
0.00970148
0.0370015
0.10967
0.254032
0.499732
0.842925
1.06874
1.10189
1.07931
1.02653
1.00231
1.00007
1
1
0.0107993
0.0177885
0.0520955
0.145593
0.348378
0.661975
0.96917
1.1019
1.1033
1.06605
1.01457
1.00089
1.00002
1
1
0.00826869
0.0240966
0.076232
0.212761
0.486477
0.826152
1.05777
1.11403
1.10297
1.04619
1.00643
1.00028
1.00001
1
1
0.00764775
0.0295248
0.116206
0.353638
0.671619
0.965242
1.10812
1.11718
1.08459
1.0258
1.00243
1.00008
1
1
1
0.00547283
0.053598
0.227306
0.532135
0.857613
1.07195
1.12559
1.11663
1.06205
1.01222
1.00077
1.00002
1
1
1
0.00264809
0.103144
0.409449
0.746126
1.01533
1.12569
1.1291
1.09756
1.03494
1.00421
1.00018
1
1
1
1
0.0309751
0.26452
0.635064
0.957711
1.11415
1.13977
1.12686
1.06947
1.01519
1.00118
1.00004
1
1
1
1
0.143128
0.510173
0.905218
1.0947
1.15035
1.14279
1.10148
1.03496
1.00452
1.00023
1.00001
1
1
1
1
0.532516
0.893003
1.09397
1.14718
1.15592
1.12863
1.06222
1.01249
1.00095
1.00003
1
1
1
1
1
1.14985
1.15301
1.15543
1.15397
1.14943
1.09046
1.0227
1.00155
1.00002
1
1
1
1
1
1
1.14906
1.15318
1.15571
1.14916
1.13886
1.07842
1.02226
1.00242
1.0001
1
1
1
1
1
1
1.14911
1.1554
1.15737
1.14829
1.12419
1.05441
1.00869
1.00041
1.00001
1
1
1
1
1
1
1.14863
1.15657
1.15729
1.14437
1.10362
1.03589
1.00409
1.00016
1
1
1
1
1
1
1
1.14843
1.15658
1.15268
1.1342
1.0814
1.02134
1.00176
1.00005
1
1
1
1
1
1
1
1.14969
1.15486
1.14734
1.11914
1.06168
1.012
1.0007
1.00002
1
1
1
1
1
1
1
1.15413
1.15392
1.14333
1.10483
1.04117
1.00563
1.00025
1
1
1
1
1
1
1
1
1.15992
1.15155
1.13466
1.08124
1.02507
1.00264
1.00009
1
1
1
1
1
1
1
1
1.16518
1.13961
1.12
1.06201
1.0142
1.00104
1.00003
1
1
1
1
1
1
1
1
1.17126
1.1308
1.10384
1.04195
1.00685
1.00037
1.00001
1
1
1
1
1
1
1
1
1.17568
1.12286
1.07833
1.0237
1.00278
1.00011
1
1
1
1
1
1
1
1
1
1.16849
1.10535
1.05578
1.01291
1.00103
1.00003
1
1
1
1
1
1
1
1
1
1.14848
1.09141
1.03486
1.00528
1.00027
1.00001
1
1
1
1
1
1
1
1
1
1.12692
1.06723
1.01758
1.00168
1.00006
1
1
1
1
1
1
1
1
1
1
1.09959
1.03998
1.00652
1.00036
1.00001
1
1
1
1
1
1
1
1
1
1
1.06661
1.01359
1.00124
1.00006
1
1
1
1
1
1
1
1
1
1
1
1
1
1
1
1
1
1
1
1
1
1
1
1
1
1
1
1
1
1
1
1
1
1
1
1
1
1
1
1
1
1
1
1
1
1
1
1
1
1
1
1
1
1
1
1
1
1
1
1
1
1
1
1
1
1
1
1
1
1
1
1
1
1
1
1
1
1
1
1
1
1
1
1
1
1
1
1
1
1
1
1
1
1
1
1
1
1
1
1
1
1
1
1
1
1
1
1
1
1
1
1
1
1
1
1
1
1
1
1
1
1
1
1
1
1
1
1
1
1
1
1
1
1
1
1
1
1
1
1
1
1
1
1
1
1
1.31626
1
1
1
1
1
1
1
1
1
1.06454
1
1
1
1
1
1
1
1
1
1.01222
1
1
1
1
1
1
1
1
1
1.00248
1
1
1
1
1
1
1
1
1
1.00042
1
1
1
1
1
1
1
1
1
1.00005
1
1
1
1
1
1
1
1
1
1
1
1
1
1
1
1
1
1
1
1
1
1
1
1
1
1
1
1
1
1
1
1
1
1
1
1
1
1
1
1
1
1
1
1
1
1
1
1
1
1
1
1
1
1
1
1
1
1
1
1
1
1
1
1
1
1
1
1
1
1
1
1
1
1
1
1
1
1
1
1
1
1
1
1
1
1
1
1
1
1
1
1
1
1
1
1
1
1
1
1
1
1
1
1
1
1
1
1
1
1
1
1
1
1
1
1
1
1
1
1
1
1
1
1
1
1
1
1
1
1
1
1
1
1
1
1
1
1
1
1
1
1
1
1
1
1
1
1
1
8.44885
5.12202
1.61467
1.00115
1.00018
1.00003
1
1
1
1
1
1
1
1
1
1
1
1
1
1
8.98809
8.36883
7.13931
3.18972
1.00916
1.00001
1
1
1
1
1
1
1
1
1
1
1
1
1
1
8.61552
8.27331
8.44281
7.77504
4.84792
1.28467
0.999994
1
1
1
1
1
1
1
1
1
1
1
1
1
8.33062
8.1557
8.20057
8.22325
8.03294
5.44243
1.46282
0.999382
1
1
1
1
1
1
1
1
1
1
1
1
8.22686
8.12312
8.15763
8.04808
8.01048
7.85965
5.38303
1.46157
0.999049
1
1
1
1
1
1
1
1
1
1
1
8.13596
8.04894
8.05412
7.99665
7.95342
8.0421
7.86085
5.0436
1.34305
0.999008
1
1
1
1
1
1
1
1
1
1
8.05661
7.98723
7.99066
7.93737
7.92234
7.91122
7.92778
7.72414
4.35509
1.16545
0.999378
1
1
1
1
1
1
1
1
1
7.99083
7.93401
7.93342
7.89045
7.8569
7.84673
7.82082
7.8007
7.18226
3.15514
1.03023
0.999904
1
1
1
1
1
1
1
1
7.94073
7.888
7.88415
7.83926
7.8108
7.79208
7.76745
7.76181
7.77854
6.94823
2.42206
1.00013
1
1
1
1
1
1
1
1
7.89353
7.8418
7.83482
7.79011
7.75957
7.73475
7.72364
7.70588
7.6989
7.67267
5.93501
1.73241
0.997353
1.00001
1
1
1
1
1
1
7.83016
7.78506
7.77774
7.73338
7.70963
7.68369
7.67092
7.62679
7.59574
7.50571
7.15463
4.16907
1.17106
0.999235
0.999996
1
1
1
1
1
7.75908
7.72049
7.71612
7.67553
7.65729
7.62526
7.59853
7.53437
7.49727
7.41958
7.45219
6.86097
2.62043
1.01348
1
1
1
1
1
1
7.68268
7.64644
7.64642
7.60838
7.5963
7.56345
7.50662
7.45783
7.43219
7.41884
7.40211
7.16175
5.22552
1.49998
0.998615
0.999956
1
1
1
1
7.58531
7.5482
7.54734
7.51235
7.49256
7.44813
7.39489
7.35692
7.33941
7.34827
7.28823
7.16813
7.0238
3.42743
1.08285
1.00013
1
1
1
1
7.27869
7.09218
7.06112
7.00848
6.98663
6.97785
6.97324
6.99513
7.0244
7.06728
7.07164
7.01408
7.02561
5.71857
1.71832
0.979935
0.999075
0.999995
1
1
2.41047
3.63874
4.28453
4.80898
5.22608
5.50586
5.76731
5.95261
6.1604
6.31995
6.45896
6.51246
6.65558
6.65981
4.61973
1.51073
1.00931
1.00005
1
1
0.754231
1.93499
2.60445
3.14499
3.69236
4.173
4.57513
4.92632
5.20278
5.48475
5.70487
5.89102
6.12402
6.42557
6.1491
3.52058
1.2597
1.00408
1.00002
1
0.716714
1.29696
1.71948
2.21724
2.67109
3.17835
3.60023
4.0596
4.39709
4.74699
5.03171
5.30265
5.58434
5.98833
5.96786
5.39403
2.44228
1.07872
1.00075
1
0.790436
1.02895
1.18068
1.60423
2.032
2.44998
2.87327
3.2711
3.68249
4.0226
4.39686
4.69693
5.03365
5.3684
5.61651
5.54446
4.1726
1.57815
1.01385
1.00008
0.941528
0.95145
0.961871
1.20909
1.5393
1.909
2.33033
2.68722
3.1034
3.43223
3.82296
4.1834
4.52797
4.86783
5.11599
5.37184
5.0582
2.76508
1.14123
1.0016
1.02906
0.964658
0.958828
1.09752
1.28067
1.55434
1.91273
2.28269
2.65814
3.02057
3.37336
3.77901
4.10693
4.43788
4.69764
5.08029
5.09962
3.96103
1.60008
1.01739
1.01983
0.967134
0.977411
1.01219
1.09372
1.32976
1.60701
1.94266
2.25794
2.64288
2.96292
3.37453
3.71029
4.00934
4.26907
4.63925
4.97567
4.6976
2.6431
1.13183
1.01221
0.982132
0.975292
0.962393
0.962907
1.10851
1.33008
1.64061
1.91339
2.26743
2.59803
2.9639
3.35031
3.61382
3.92535
4.27002
4.71578
4.71237
3.52757
1.51835
1.02685
1.01942
0.995821
0.958842
0.947733
1.05756
1.1894
1.4198
1.70089
1.97775
2.34768
2.6595
3.0625
3.32735
3.64682
3.96351
4.38772
4.58296
3.98486
2.21439
1.04228
1.03121
1.00588
0.965187
0.95995
1.02104
1.10796
1.28715
1.54735
1.78815
2.13206
2.43254
2.77748
3.08282
3.35129
3.62253
3.99687
4.41304
4.17586
3.30924
1.03744
1.02473
1.00346
0.979437
0.975511
0.98362
1.02198
1.15998
1.38457
1.62551
1.88157
2.20445
2.45903
2.80052
3.05792
3.35348
3.70291
4.14644
4.27537
4.53011
1.03035
1.02094
1.01566
0.996421
0.977072
0.964822
0.964687
1.0443
1.19868
1.45858
1.67192
1.97841
2.24856
2.55055
2.84372
3.16814
3.4846
3.86739
4.38095
5.69208
1.01783
1.01556
1.02442
1.0134
0.990369
0.968692
0.964196
1.03627
1.1335
1.34663
1.56849
1.80924
2.086
2.35558
2.66094
2.97262
3.23118
3.60438
4.50028
6.88461
1.00494
1.01068
1.02125
1.01915
0.996342
0.97056
0.9676
1.01841
1.07854
1.25045
1.47178
1.6707
1.93143
2.15212
2.46726
2.75068
2.98484
3.37043
4.5364
7.94822
0.993785
1.00663
1.01204
1.01359
0.9906
0.966199
0.966701
0.984156
1.01473
1.13599
1.34624
1.52321
1.77127
1.99599
2.24118
2.55134
2.83198
3.23363
4.68335
8.85809
0.847269
0.972098
0.992504
0.999766
0.986346
0.970229
0.969024
0.970569
0.977718
1.06263
1.23333
1.41089
1.60359
1.88377
2.09936
2.39757
2.68342
3.13493
4.91893
9.34434
0.708982
0.875427
0.956537
0.98837
0.994197
0.986441
0.980324
0.972603
0.977691
1.04627
1.1471
1.33501
1.49421
1.7575
1.99641
2.23148
2.4831
3.03895
5.09927
9.58231
0.600351
0.76097
0.89338
0.969559
1.00159
1.00022
0.987764
0.971717
0.971989
1.02097
1.06277
1.2261
1.40922
1.60197
1.8693
2.08874
2.34004
3.08525
5.34319
9.55468
0.523185
0.655509
0.804597
0.920264
0.987617
0.99967
0.987127
0.968487
0.966955
0.993016
1.01425
1.10644
1.30035
1.47558
1.69835
1.93609
2.24775
3.27083
5.58208
9.33308
0.520114
0.589414
0.699202
0.835207
0.941994
0.986847
0.983825
0.971003
0.961266
0.966463
0.984364
1.06016
1.19402
1.37504
1.57019
1.78963
2.14203
3.54673
5.6182
8.81653
0.535509
0.535029
0.612304
0.747067
0.862141
0.949789
0.976799
0.96998
0.955611
0.945789
0.950686
1.02682
1.12885
1.26765
1.43492
1.68592
2.21702
3.9694
5.55096
8.04928
0.58948
0.538712
0.559916
0.653228
0.763852
0.879402
0.948273
0.958477
0.944194
0.928534
0.92581
0.975859
1.05639
1.1843
1.32716
1.57862
2.46054
4.35777
5.38333
7.2022
0.662929
0.584867
0.555764
0.577445
0.668846
0.789291
0.88651
0.929068
0.929773
0.918891
0.921088
0.947292
0.990101
1.09342
1.23282
1.62478
2.77668
4.51929
5.12943
6.28075
0.755212
0.669751
0.575375
0.570067
0.60254
0.693507
0.799108
0.882784
0.914758
0.91527
0.921169
0.927572
0.938611
1.01197
1.18848
1.78487
3.18915
4.48275
4.83683
5.40571
0.873301
0.805851
0.715678
0.624487
0.598716
0.61947
0.682947
0.779204
0.854202
0.889019
0.901584
0.89657
0.894897
1.0107
1.38541
2.25623
3.23784
4.16792
4.23627
4.23458
)
;

boundaryField
{
    inlet
    {
        type            fixedValue;
        value           uniform 1;
    }
    outlet
    {
        type            zeroGradient;
    }
    airfoil
    {
        type            zeroGradient;
    }
    top
    {
        type            symmetryPlane;
    }
    bottom
    {
        type            symmetryPlane;
    }
    defaultFaces
    {
        type            empty;
    }
}


// ************************************************************************* //
