/*--------------------------------*- C++ -*----------------------------------*\
  =========                 |
  \\      /  F ield         | OpenFOAM: The Open Source CFD Toolbox
   \\    /   O peration     | Website:  https://openfoam.org
    \\  /    A nd           | Version:  7
     \\/     M anipulation  |
\*---------------------------------------------------------------------------*/
FoamFile
{
    version     2.0;
    format      ascii;
    class       volScalarField;
    location    "6.7";
    object      T;
}
// * * * * * * * * * * * * * * * * * * * * * * * * * * * * * * * * * * * * * //

dimensions      [0 0 0 1 0 0 0];

internalField   nonuniform List<scalar> 
1750
(
1.4271
1.55273
1.51295
1.43434
1.40836
1.43065
1.44615
1.45218
1.46285
1.45602
0.427864
0.95577
1.66227
1.86735
1.85408
1.80663
1.74969
1.67894
1.63934
1.59765
0.343735
0.345876
0.505031
1.10544
1.48374
1.65715
1.72562
1.71519
1.70035
1.65247
0.370307
0.38813
0.419773
0.441968
0.498969
0.785114
1.06479
1.27214
1.39673
1.46811
0.470201
0.481433
0.501068
0.515759
0.522615
0.530854
0.539903
0.620484
0.767536
1.04535
0.565261
0.571536
0.572729
0.581787
0.598401
0.611321
0.623326
0.6225
0.628079
0.667498
0.682736
0.68516
0.684992
0.685313
0.685846
0.687605
0.687797
0.69028
0.687282
0.677569
0.816068
0.805136
0.797268
0.789931
0.781939
0.77251
0.76515
0.757895
0.752608
0.7479
0.942773
0.928734
0.913464
0.899316
0.88446
0.868991
0.855603
0.84218
0.830929
0.814884
1.0104
1.00462
0.996418
0.986382
0.974814
0.96122
0.945643
0.929772
0.914702
0.890284
1.02058
1.02009
1.01926
1.01785
1.01546
1.01152
1.0055
0.997095
0.987292
0.966718
1.01454
1.0156
1.01642
1.01693
1.0169
1.01675
1.01637
1.01556
1.01421
1.00834
1.00345
1.00467
1.00609
1.00778
1.0095
1.01104
1.01235
1.0133
1.01374
1.0135
1.00017
1.00031
1.00053
1.00091
1.0015
1.00238
1.00352
1.005
1.0066
1.00895
1
1.00001
1.00001
1.00002
1.00005
1.00012
1.00024
1.00049
1.0009
1.00232
0.494327
0.406482
0.352344
0.36526
0.458362
0.558747
0.679852
0.82639
0.954674
1.01438
1.02084
1.01325
1.00257
1.00012
1
0.497921
0.402615
0.343981
0.398409
0.488404
0.597131
0.730512
0.876345
0.985756
1.02183
1.02108
1.01061
1.00137
1.00004
1
0.492341
0.393907
0.34258
0.419044
0.502517
0.626158
0.772707
0.915296
1.00358
1.02394
1.02078
1.00777
1.0007
1.00002
1
0.47045
0.376808
0.352633
0.432544
0.538363
0.675464
0.826261
0.951139
1.01556
1.02486
1.01853
1.00502
1.00033
1.00001
1
0.442705
0.340322
0.373228
0.444868
0.586452
0.736443
0.872559
0.979972
1.02333
1.02516
1.0153
1.00305
1.00015
1
1
0.427367
0.303972
0.386573
0.497551
0.646281
0.785351
0.917142
1.00508
1.02737
1.02516
1.01174
1.00159
1.00006
1
1
0.439159
0.292645
0.404134
0.555685
0.693249
0.8366
0.962483
1.02175
1.02885
1.0225
1.00767
1.00067
1.00002
1
1
0.475159
0.402583
0.45216
0.603028
0.760583
0.904346
0.997615
1.02937
1.02921
1.01888
1.00424
1.00026
1.00001
1
1
0.473496
0.43325
0.516803
0.672332
0.833804
0.957547
1.01942
1.0321
1.02897
1.01331
1.00187
1.00008
1
1
1
0.504982
0.455409
0.587629
0.775251
0.910237
0.996796
1.03119
1.03283
1.02398
1.00748
1.0007
1.00002
1
1
1
0.443157
0.519827
0.706764
0.86265
0.968601
1.02321
1.0351
1.03258
1.01774
1.00355
1.00022
1.00001
1
1
1
0.0921188
0.547857
0.808572
0.937801
1.01017
1.03554
1.03586
1.02739
1.01008
1.00122
1.00005
1
1
1
1
0.229613
0.692053
0.894091
0.996235
1.03346
1.03864
1.03507
1.01972
1.00441
1.00034
1.00001
1
1
1
1
0.466258
0.811195
0.979178
1.02928
1.04146
1.03935
1.02839
1.01007
1.00131
1.00007
1
1
1
1
1
0.81336
0.974095
1.02942
1.04078
1.04266
1.03543
1.01763
1.00362
1.00027
1.00001
1
1
1
1
1
1.0417
1.04237
1.04271
1.04213
1.04081
1.0253
1.00652
1.00045
1.00001
1
1
1
1
1
1
1.04197
1.04287
1.04307
1.04084
1.03808
1.02208
1.00641
1.0007
1.00003
1
1
1
1
1
1
1.04301
1.04431
1.04381
1.04055
1.03407
1.01537
1.0025
1.00012
1
1
1
1
1
1
1
1.04382
1.04538
1.04406
1.03939
1.02853
1.01021
1.00118
1.00005
1
1
1
1
1
1
1
1.04478
1.04617
1.04338
1.03666
1.02252
1.00609
1.0005
1.00001
1
1
1
1
1
1
1
1.04642
1.04645
1.0418
1.03257
1.01719
1.00343
1.0002
1
1
1
1
1
1
1
1
1.04883
1.04678
1.04062
1.0287
1.01153
1.00161
1.00007
1
1
1
1
1
1
1
1
1.05125
1.04682
1.03834
1.02237
1.00704
1.00075
1.00003
1
1
1
1
1
1
1
1
1.05364
1.04382
1.03432
1.01716
1.004
1.0003
1.00001
1
1
1
1
1
1
1
1
1.05619
1.04171
1.02986
1.01166
1.00193
1.00011
1
1
1
1
1
1
1
1
1
1.05819
1.03974
1.02273
1.00659
1.00078
1.00003
1
1
1
1
1
1
1
1
1
1.05859
1.03511
1.01629
1.00359
1.00029
1.00001
1
1
1
1
1
1
1
1
1
1.05447
1.03101
1.01019
1.00146
1.00008
1
1
1
1
1
1
1
1
1
1
1.05102
1.02356
1.00508
1.00046
1.00002
1
1
1
1
1
1
1
1
1
1
1.04632
1.01424
1.00182
1.0001
1
1
1
1
1
1
1
1
1
1
1
1.0394
1.00463
1.00033
1.00002
1
1
1
1
1
1
1
1
1
1
1
1
1
1
1
1
1
1
1
1
1
1
1
1
1
1
1
1
1
1
1
1
1
1
1
1
1
1
1
1
1
1
1
1
1
1
1
1
1
1
1
1
1
1
1
1
1
1
1
1
1
1
1
1
1
1
1
1
1
1
1
1
1
1
1
1
1
1
1
1
1
1
1
1
1
1
1
1
1
1
1
1
1
1
1
1
1
1
1
1
1
1
1
1
1
1
1
1
1
1
1
1
1
1
1
1
1
1
1
1
1
1
1
1
1
1
1
1
1
1
1
1
1
1
1
1
1
1
1
1
1
1
1
1
1
1
1.18432
1
1
1
1
1
1
1
1
1
1.03752
1
1
1
1
1
1
1
1
1
1.00425
1
1
1
1
1
1
1
1
1
1.00073
1
1
1
1
1
1
1
1
1
1.00012
1
1
1
1
1
1
1
1
1
1.00001
1
1
1
1
1
1
1
1
1
1
1
1
1
1
1
1
1
1
1
1
1
1
1
1
1
1
1
1
1
1
1
1
1
1
1
1
1
1
1
1
1
1
1
1
1
1
1
1
1
1
1
1
1
1
1
1
1
1
1
1
1
1
1
1
1
1
1
1
1
1
1
1
1
1
1
1
1
1
1
1
1
1
1
1
1
1
1
1
1
1
1
1
1
1
1
1
1
1
1
1
1
1
1
1
1
1
1
1
1
1
1
1
1
1
1
1
1
1
1
1
1
1
1
1
1
1
1
1
1
1
1
1
1
1
1
1
1
1
1
1
1
1
1
1
1
1
1
1
1
2.57599
2.06032
1.24503
1.00031
1.00005
1.00001
1
1
1
1
1
1
1
1
1
1
1
1
1
1
2.5726
2.46902
2.22284
1.6192
1.00403
1
1
1
1
1
1
1
1
1
1
1
1
1
1
1
2.52804
2.45966
2.40054
2.23749
1.93555
1.12763
0.999994
1
1
1
1
1
1
1
1
1
1
1
1
1
2.49096
2.44714
2.3907
2.34516
2.29406
2.00682
1.19842
0.999713
1
1
1
1
1
1
1
1
1
1
1
1
2.4657
2.43595
2.39114
2.33679
2.31059
2.27461
1.98941
1.19742
0.999568
1
1
1
1
1
1
1
1
1
1
1
2.44331
2.42035
2.38268
2.33553
2.30912
2.3092
2.28217
1.95048
1.15185
0.999535
1
1
1
1
1
1
1
1
1
1
2.42347
2.40573
2.37536
2.33462
2.31023
2.29849
2.28999
2.25312
1.84289
1.07582
0.999707
1
1
1
1
1
1
1
1
1
2.40768
2.39384
2.36959
2.33507
2.30827
2.29311
2.27962
2.26117
2.17651
1.63418
1.0137
0.999948
1
1
1
1
1
1
1
1
2.39661
2.38516
2.36554
2.33489
2.30802
2.2881
2.27101
2.25626
2.24446
2.15083
1.48444
1.00019
1
1
1
1
1
1
1
1
2.38793
2.37802
2.36165
2.33405
2.30665
2.28332
2.26556
2.25081
2.24068
2.23905
2.0552
1.30359
0.998746
1.00001
1
1
1
1
1
1
2.37852
2.37022
2.35617
2.33056
2.3036
2.27921
2.26155
2.2467
2.23707
2.22744
2.19531
1.81927
1.0787
0.999638
0.999999
1
1
1
1
1
2.36838
2.36123
2.34881
2.32481
2.29916
2.27509
2.25749
2.24236
2.23284
2.22283
2.22412
2.1531
1.53739
1.00603
1
1
1
1
1
1
2.35771
2.35104
2.33988
2.31738
2.29371
2.27122
2.25236
2.23868
2.2298
2.22433
2.21988
2.18773
1.95921
1.21459
0.999315
0.999985
1
1
1
1
2.34598
2.33943
2.32885
2.30782
2.285
2.26267
2.24447
2.23146
2.22297
2.21906
2.20998
2.19101
2.1594
1.68786
1.03731
1.00005
1
1
1
1
2.31651
2.29216
2.2754
2.25407
2.2341
2.21736
2.20498
2.19825
2.19457
2.19378
2.18929
2.17582
2.16324
2.00962
1.29627
0.990359
0.999676
0.999998
1
1
1.70996
1.91028
1.98128
2.03248
2.06669
2.08155
2.09511
2.10297
2.11594
2.12641
2.13481
2.13178
2.13225
2.1204
1.87564
1.21234
1.0039
1.00002
1
1
1.31149
1.63663
1.73586
1.80964
1.88066
1.93277
1.96888
1.99725
2.01898
2.04338
2.06161
2.07326
2.0851
2.0997
2.06967
1.70313
1.11053
1.00154
1.00001
1
1.3381
1.48603
1.55818
1.64854
1.72255
1.79631
1.84571
1.89541
1.92734
1.96218
1.98967
2.01338
2.03345
2.05992
2.05329
1.97006
1.47349
1.03275
1.00026
1
1.38437
1.41882
1.42224
1.50939
1.59432
1.67067
1.73448
1.78642
1.83515
1.87314
1.91511
1.94611
1.97665
1.99969
2.01828
2.00294
1.79254
1.22393
1.00538
1.00003
1.4486
1.38595
1.33458
1.39228
1.47442
1.55675
1.63729
1.69263
1.75158
1.7926
1.84177
1.88443
1.92021
1.94801
1.96641
1.98439
1.91561
1.52742
1.05744
1.00056
1.44864
1.3844
1.33556
1.35488
1.4019
1.47193
1.55294
1.62
1.68014
1.73144
1.77942
1.83237
1.86984
1.90038
1.92079
1.95367
1.93766
1.74199
1.2254
1.00661
1.43794
1.38546
1.34551
1.32918
1.34368
1.4087
1.47901
1.54952
1.60611
1.66905
1.71613
1.77575
1.81882
1.84874
1.87074
1.90473
1.92612
1.85504
1.49053
1.05266
1.43397
1.39494
1.35024
1.31605
1.30022
1.33915
1.39903
1.47698
1.53197
1.59947
1.65407
1.71294
1.76897
1.79662
1.82796
1.86123
1.89909
1.87175
1.65824
1.19279
1.44382
1.41821
1.36514
1.31322
1.28987
1.31976
1.35446
1.41832
1.48364
1.54075
1.60965
1.66272
1.72568
1.75585
1.79106
1.82337
1.86358
1.86081
1.73503
1.38096
1.44657
1.4194
1.36626
1.31485
1.29436
1.30553
1.32793
1.38055
1.4471
1.49923
1.56881
1.62173
1.67839
1.71808
1.74892
1.77797
1.81657
1.84353
1.77536
1.58596
1.44124
1.41481
1.36416
1.31982
1.3009
1.29482
1.3011
1.34105
1.40396
1.45965
1.51478
1.57686
1.61952
1.67083
1.70342
1.73951
1.77863
1.81412
1.79494
1.75444
1.43214
1.40894
1.36768
1.32685
1.30285
1.28971
1.28326
1.30343
1.34787
1.41596
1.46403
1.52889
1.5773
1.62583
1.6679
1.71138
1.74832
1.78042
1.81374
1.88545
1.42147
1.40396
1.37305
1.33611
1.3096
1.29049
1.28232
1.30113
1.32696
1.38589
1.43849
1.49057
1.54292
1.58791
1.6351
1.67987
1.71083
1.74708
1.83335
1.9994
1.41655
1.40383
1.37423
1.34224
1.31241
1.28984
1.28197
1.29418
1.30792
1.3575
1.41292
1.45607
1.50832
1.54515
1.59826
1.64206
1.67243
1.71647
1.84271
2.08966
1.41372
1.40492
1.37392
1.34165
1.31038
1.28694
1.28105
1.28158
1.28547
1.32073
1.37769
1.41645
1.47009
1.50995
1.55356
1.60653
1.64789
1.69923
1.86524
2.16301
1.3965
1.3904
1.36542
1.33586
1.30784
1.28866
1.28229
1.27794
1.27284
1.29457
1.34298
1.38473
1.42706
1.48392
1.52394
1.57753
1.62301
1.68642
1.89322
2.21016
1.34908
1.34659
1.34659
1.33045
1.31075
1.29554
1.28714
1.27883
1.27314
1.28847
1.31476
1.36309
1.3979
1.45521
1.50177
1.54478
1.58778
1.67556
1.90962
2.23447
1.2798
1.28975
1.31397
1.32048
1.31439
1.3027
1.29055
1.27792
1.27055
1.27988
1.28597
1.33119
1.37494
1.41756
1.47379
1.51547
1.56113
1.68482
1.92961
2.24615
1.21276
1.22968
1.26979
1.29819
1.30884
1.3031
1.29078
1.2768
1.27043
1.27201
1.27035
1.29398
1.34574
1.38539
1.43445
1.48247
1.54292
1.71636
1.94686
2.23753
1.19188
1.18341
1.21465
1.26043
1.29028
1.2986
1.29057
1.27905
1.27032
1.26571
1.26291
1.28033
1.31543
1.35872
1.40275
1.44884
1.52438
1.7588
1.94272
2.20714
1.17846
1.14011
1.16533
1.21794
1.25706
1.28398
1.28892
1.28103
1.26981
1.2601
1.25407
1.27169
1.29614
1.32862
1.3668
1.42363
1.54441
1.81746
1.93204
2.15385
1.19634
1.13389
1.12821
1.1664
1.21245
1.25608
1.2783
1.27788
1.26748
1.25445
1.24672
1.25617
1.27276
1.30281
1.33594
1.39903
1.6016
1.86145
1.91016
2.08575
1.22857
1.14775
1.1182
1.12589
1.16468
1.21594
1.25316
1.26651
1.26213
1.25069
1.24428
1.24492
1.24827
1.27218
1.30641
1.41515
1.66514
1.87356
1.8799
2.00201
1.26749
1.18022
1.12013
1.11007
1.12908
1.1693
1.21365
1.24527
1.25387
1.24777
1.24222
1.23447
1.22695
1.24106
1.29523
1.46786
1.74001
1.86361
1.84808
1.9147
1.31575
1.23458
1.1786
1.13008
1.11361
1.12398
1.1546
1.19602
1.22327
1.23129
1.22966
1.2186
1.20863
1.24561
1.37203
1.58622
1.72359
1.80982
1.78294
1.78646
)
;

boundaryField
{
    inlet
    {
        type            fixedValue;
        value           uniform 1;
    }
    outlet
    {
        type            inletOutlet;
        inletValue      uniform 1;
        value           nonuniform List<scalar> 
35
(
1.31553
1.23432
1.1784
1.12985
1.11337
1.12377
1.1544
1.19581
1.22297
1.23095
1.22939
1.21846
1.20849
1.24507
1.37064
1.58491
1.7229
1.80943
1.78287
1.78678
1.45572
1.59745
1.65226
1.46781
1.04493
0.667255
0.677546
0.747894
0.814903
0.890268
0.966717
1.00833
1.0135
1.00895
1.00232
)
;
    }
    airfoil
    {
        type            zeroGradient;
    }
    top
    {
        type            symmetryPlane;
    }
    bottom
    {
        type            symmetryPlane;
    }
    defaultFaces
    {
        type            empty;
    }
}


// ************************************************************************* //
