/*--------------------------------*- C++ -*----------------------------------*\
  =========                 |
  \\      /  F ield         | OpenFOAM: The Open Source CFD Toolbox
   \\    /   O peration     | Website:  https://openfoam.org
    \\  /    A nd           | Version:  7
     \\/     M anipulation  |
\*---------------------------------------------------------------------------*/
FoamFile
{
    version     2.0;
    format      ascii;
    class       volScalarField;
    location    "2.6001";
    object      T;
}
// * * * * * * * * * * * * * * * * * * * * * * * * * * * * * * * * * * * * * //

dimensions      [0 0 0 1 0 0 0];

internalField   nonuniform List<scalar> 
324000
(
0.858625
0.94603
1.08906
1.20069
1.25571
1.25445
1.24505
1.22996
1.22381
1.21512
1.20722
1.21331
1.22216
1.2299
1.22675
1.21847
1.21853
1.22586
1.23413
1.23587
1.23495
1.23839
1.23926
1.23156
1.21915
1.21294
1.21226
1.21201
1.21013
1.20971
1.21062
1.21128
1.21076
1.20832
1.20597
1.20423
1.20402
1.20299
1.20118
1.19967
1.1985
1.19707
1.19484
1.19223
1.1903
1.18835
1.1864
1.18463
1.18322
1.18157
1.17971
1.17785
1.17592
1.17478
1.17383
1.17321
1.17287
1.17244
1.17197
1.17181
1.17191
1.17261
1.17286
1.17357
1.17487
1.17634
1.17803
1.18033
1.18348
1.18706
1.18934
1.19338
1.19835
1.20265
1.20853
1.21276
1.21204
1.20158
1.18856
1.18376
0.522143
0.520906
0.592338
0.815083
1.05154
1.14864
1.2222
1.25222
1.26478
1.25617
1.26277
1.2671
1.26736
1.26451
1.25304
1.24837
1.25361
1.26307
1.26796
1.2681
1.26368
1.26477
1.26226
1.24755
1.22344
1.21219
1.21215
1.21146
1.20954
1.20939
1.21024
1.21032
1.20905
1.20651
1.20407
1.20311
1.20239
1.20108
1.19885
1.19708
1.19652
1.19465
1.19147
1.18855
1.18657
1.18423
1.18204
1.18014
1.1785
1.17705
1.17548
1.17384
1.1721
1.1712
1.17069
1.17067
1.17084
1.17067
1.17049
1.17057
1.17106
1.17201
1.1724
1.17335
1.17492
1.17648
1.17826
1.18057
1.18377
1.1875
1.18991
1.19382
1.19869
1.20285
1.2087
1.21302
1.21223
1.20067
1.18686
1.17897
0.521397
0.520414
0.518854
0.516888
0.526798
0.632794
0.82517
1.03164
1.15517
1.23182
1.29205
1.29054
1.28613
1.27326
1.25047
1.25398
1.26548
1.27483
1.28275
1.28141
1.27587
1.27689
1.27561
1.2588
1.22944
1.21239
1.20994
1.20726
1.20598
1.20796
1.20869
1.20747
1.20429
1.20138
1.20083
1.20072
1.19913
1.1961
1.19344
1.19289
1.1921
1.18966
1.186
1.18354
1.1818
1.17969
1.1777
1.17617
1.17482
1.17356
1.17239
1.17109
1.16966
1.16903
1.169
1.1693
1.16975
1.16975
1.16979
1.17018
1.17085
1.17179
1.1724
1.17341
1.17514
1.17679
1.17874
1.18106
1.18425
1.1878
1.19031
1.19436
1.19915
1.20314
1.20911
1.21358
1.21269
1.20034
1.18547
1.17497
0.5199
0.518621
0.517247
0.515943
0.514339
0.512984
0.511669
0.528646
0.644008
0.868884
1.03936
1.13955
1.20819
1.22938
1.24732
1.25987
1.27505
1.27961
1.28602
1.28122
1.28137
1.28637
1.28475
1.26568
1.2303
1.20989
1.20188
1.19919
1.20117
1.20403
1.20338
1.2002
1.19629
1.19577
1.19671
1.19568
1.19295
1.18911
1.18779
1.18771
1.18639
1.18397
1.18085
1.17934
1.1778
1.17597
1.17457
1.17371
1.17278
1.17178
1.17085
1.16976
1.16852
1.16814
1.1683
1.16881
1.16929
1.16932
1.16955
1.17016
1.17092
1.17164
1.17235
1.17366
1.17555
1.17728
1.17923
1.18169
1.18506
1.18852
1.19097
1.19501
1.19969
1.20356
1.20964
1.21441
1.21343
1.20032
1.18489
1.17213
0.517965
0.516738
0.515505
0.514222
0.513003
0.511897
0.511033
0.510358
0.509999
0.509491
0.531963
0.685429
0.885976
1.05929
1.19903
1.24829
1.26032
1.26932
1.27726
1.27877
1.28547
1.29065
1.2866
1.26427
1.23058
1.20698
1.19299
1.19329
1.19688
1.19803
1.19624
1.19177
1.18949
1.19101
1.19189
1.19017
1.18628
1.18294
1.1832
1.18337
1.18188
1.17928
1.17713
1.17667
1.17542
1.17381
1.17285
1.17245
1.17201
1.17142
1.17051
1.16934
1.1681
1.16788
1.16814
1.16871
1.16912
1.16915
1.16951
1.17029
1.1711
1.1718
1.17261
1.1741
1.17615
1.17799
1.18
1.18255
1.18599
1.18939
1.19172
1.19566
1.20024
1.204
1.21001
1.21558
1.21442
1.20066
1.18497
1.17029
0.51595
0.514897
0.513899
0.512861
0.51183
0.510909
0.510183
0.509679
0.509355
0.509078
0.508681
0.508424
0.50817
0.574363
0.785668
0.982069
1.10443
1.1961
1.24236
1.275
1.29388
1.29342
1.28497
1.25924
1.23268
1.20183
1.18786
1.1896
1.1939
1.19384
1.19017
1.1853
1.18573
1.18856
1.18796
1.18528
1.18131
1.17986
1.18084
1.18037
1.17862
1.17609
1.17564
1.17546
1.17444
1.17301
1.1724
1.17206
1.17169
1.17121
1.17041
1.16933
1.168
1.16792
1.16825
1.16887
1.16862
1.16875
1.16939
1.17037
1.1714
1.17219
1.17308
1.17469
1.17676
1.17866
1.1808
1.18343
1.18697
1.19038
1.19253
1.19622
1.20069
1.20443
1.21032
1.21733
1.21575
1.20135
1.18541
1.16941
0.514091
0.513281
0.512526
0.511719
0.510917
0.510238
0.509682
0.509128
0.508688
0.508432
0.508243
0.50812
0.508041
0.507907
0.507821
0.519178
0.641855
0.90002
1.10894
1.25001
1.29111
1.28679
1.27981
1.25826
1.23545
1.20171
1.18923
1.1905
1.19222
1.18952
1.18266
1.18209
1.18582
1.18746
1.18561
1.18015
1.17822
1.17932
1.18058
1.17918
1.17623
1.17466
1.17571
1.17521
1.17369
1.17249
1.17273
1.17235
1.17178
1.17116
1.1703
1.16921
1.16823
1.16829
1.16868
1.16878
1.16861
1.16878
1.16957
1.17066
1.17182
1.1727
1.17366
1.17541
1.17744
1.17941
1.18161
1.18433
1.18797
1.19136
1.19324
1.19668
1.20107
1.20485
1.21072
1.21761
1.21702
1.20275
1.18657
1.16933
0.512554
0.511953
0.511355
0.510747
0.510157
0.50968
0.50926
0.508726
0.508227
0.508004
0.507873
0.507807
0.507771
0.507764
0.50777
0.507733
0.507658
0.507539
0.632184
0.932475
1.15198
1.2356
1.26319
1.25366
1.24192
1.21196
1.20234
1.19706
1.19288
1.18219
1.17861
1.18371
1.18923
1.18807
1.18232
1.17764
1.17827
1.18117
1.18076
1.17766
1.17507
1.17554
1.17655
1.17542
1.17362
1.17313
1.17336
1.17276
1.17196
1.17135
1.17061
1.16959
1.16895
1.16909
1.16929
1.16907
1.16878
1.16895
1.16977
1.17095
1.17221
1.17322
1.17436
1.17623
1.17814
1.18015
1.18237
1.18517
1.18891
1.19222
1.1938
1.197
1.20134
1.20521
1.21126
1.21875
1.2189
1.20477
1.18837
1.16973
0.511338
0.510868
0.51039
0.509913
0.509518
0.509215
0.508903
0.508459
0.507973
0.507724
0.507622
0.507568
0.507567
0.507611
0.507682
0.507669
0.507607
0.507491
0.507505
0.508339
0.678757
0.960445
1.08808
1.16879
1.21272
1.21687
1.20787
1.19699
1.18837
1.17406
1.17864
1.18912
1.19168
1.18791
1.17942
1.17765
1.1815
1.18367
1.18099
1.17689
1.17562
1.17805
1.17779
1.17582
1.17395
1.17459
1.17432
1.17328
1.17245
1.17189
1.17123
1.17018
1.16998
1.17006
1.16989
1.16938
1.16902
1.16916
1.16994
1.17114
1.1725
1.17379
1.17512
1.17703
1.17881
1.18085
1.18311
1.18597
1.18975
1.19289
1.19423
1.19725
1.20155
1.20558
1.21193
1.22004
1.22004
1.20684
1.1909
1.17085
0.510401
0.509985
0.509586
0.509257
0.509004
0.508812
0.508616
0.508297
0.50787
0.50758
0.507483
0.507398
0.5074
0.507465
0.50761
0.507625
0.507581
0.50744
0.50743
0.507488
0.507727
0.508677
0.584577
0.731648
0.841783
0.956876
1.04795
1.09977
1.15348
1.1623
1.1873
1.19531
1.19378
1.1826
1.177
1.18139
1.18709
1.18576
1.17988
1.1769
1.17878
1.18099
1.17907
1.17586
1.17519
1.17615
1.17544
1.17393
1.17316
1.17259
1.17187
1.17098
1.17097
1.17083
1.17037
1.16962
1.16927
1.16934
1.17005
1.17128
1.17283
1.17437
1.17579
1.17758
1.17948
1.18157
1.18386
1.18675
1.19049
1.19343
1.19459
1.19746
1.20174
1.20589
1.21251
1.22114
1.22138
1.20906
1.19375
1.17262
0.509656
0.509251
0.50894
0.508733
0.508595
0.508514
0.508406
0.50819
0.507841
0.507534
0.507426
0.507322
0.50729
0.50735
0.507561
0.507623
0.507566
0.507389
0.507351
0.507435
0.507692
0.50889
0.513207
0.521685
0.533684
0.543774
0.606989
0.782879
0.952328
1.09849
1.19273
1.19451
1.19015
1.17423
1.17906
1.19005
1.19101
1.18578
1.17803
1.17839
1.18352
1.18287
1.17883
1.17599
1.17759
1.17762
1.17603
1.17412
1.17372
1.1732
1.17225
1.17173
1.17166
1.17133
1.17057
1.16981
1.16949
1.16951
1.17007
1.17136
1.17313
1.17485
1.17637
1.17805
1.1801
1.1823
1.18462
1.1875
1.19117
1.19389
1.19493
1.19767
1.20191
1.20615
1.21291
1.22213
1.22259
1.2112
1.19674
1.17491
0.509038
0.508635
0.50844
0.508356
0.508319
0.508291
0.508228
0.508075
0.507804
0.507559
0.507433
0.507278
0.507211
0.507291
0.507565
0.50762
0.507512
0.507295
0.507269
0.507363
0.507667
0.508869
0.513051
0.520975
0.531676
0.544842
0.554725
0.558667
0.563458
0.743753
0.942044
1.06883
1.14794
1.16499
1.19096
1.19786
1.19417
1.18119
1.17641
1.18287
1.18675
1.18391
1.17689
1.17709
1.1798
1.17896
1.17586
1.17401
1.17406
1.17355
1.17241
1.1723
1.17207
1.1715
1.17066
1.16998
1.16965
1.16964
1.17011
1.17149
1.17349
1.17521
1.17686
1.17852
1.1807
1.18302
1.18539
1.18822
1.19176
1.1943
1.19529
1.19792
1.2021
1.20635
1.21322
1.22293
1.22373
1.2134
1.19997
1.17759
0.508495
0.508164
0.508092
0.508087
0.508098
0.508105
0.508072
0.507953
0.507754
0.507615
0.507498
0.50726
0.50716
0.507271
0.50758
0.507593
0.507427
0.507184
0.507171
0.507272
0.507614
0.508868
0.512969
0.520734
0.53103
0.542258
0.551524
0.557408
0.559703
0.560378
0.560565
0.70653
0.921508
1.10008
1.19472
1.19341
1.18586
1.17187
1.17735
1.18789
1.18724
1.17982
1.17557
1.17969
1.18119
1.17855
1.17471
1.17462
1.17465
1.17372
1.17241
1.17251
1.17219
1.17147
1.17081
1.17019
1.16973
1.16975
1.17026
1.17179
1.1739
1.17559
1.17739
1.1791
1.1814
1.18385
1.18626
1.18893
1.1923
1.19468
1.19569
1.19821
1.20235
1.20656
1.21347
1.22356
1.2248
1.21551
1.20318
1.1805
0.508089
0.507865
0.507863
0.507887
0.507923
0.507942
0.507926
0.507829
0.507704
0.507634
0.507525
0.507231
0.507145
0.507329
0.507587
0.507579
0.507364
0.507112
0.507099
0.507204
0.507581
0.508824
0.512883
0.52081
0.530563
0.539876
0.548322
0.5554
0.559134
0.560116
0.56052
0.560795
0.561019
0.73127
0.934491
1.06998
1.14135
1.16027
1.18617
1.19262
1.18794
1.1743
1.17598
1.18299
1.18218
1.17662
1.17371
1.17578
1.17506
1.17332
1.1724
1.1726
1.17226
1.17115
1.17077
1.17036
1.16982
1.16991
1.17062
1.17234
1.17449
1.17599
1.17751
1.17918
1.18159
1.1842
1.18679
1.18955
1.19278
1.19504
1.19617
1.19864
1.20275
1.20682
1.21367
1.22408
1.22578
1.21753
1.20627
1.1835
0.507833
0.507699
0.507714
0.507774
0.507801
0.507803
0.507793
0.507719
0.507659
0.507632
0.507507
0.507213
0.507197
0.50741
0.507586
0.507558
0.507326
0.507076
0.507056
0.507151
0.50755
0.508782
0.512776
0.520926
0.530552
0.538971
0.545779
0.552165
0.557649
0.559939
0.560275
0.5604
0.560694
0.561264
0.561769
0.704227
0.932013
1.10837
1.18905
1.18765
1.17645
1.16985
1.18086
1.18425
1.17972
1.17326
1.17404
1.1769
1.17531
1.17231
1.17268
1.17281
1.1719
1.1709
1.17085
1.17056
1.17002
1.17025
1.17137
1.17328
1.17513
1.17641
1.17737
1.17918
1.18172
1.18451
1.18731
1.19022
1.19323
1.19541
1.19677
1.19917
1.20323
1.20713
1.21387
1.22453
1.2268
1.21953
1.20934
1.18656
0.507683
0.507607
0.507644
0.507719
0.507718
0.507698
0.507681
0.507634
0.507618
0.507598
0.507433
0.507226
0.507254
0.507481
0.507589
0.507549
0.507314
0.507065
0.50703
0.507108
0.507509
0.508739
0.512615
0.520924
0.531031
0.538662
0.543764
0.548548
0.55527
0.559388
0.559965
0.560189
0.5604
0.560677
0.561372
0.562049
0.562222
0.748944
0.950547
1.08805
1.14693
1.16837
1.18865
1.1858
1.17458
1.17132
1.17767
1.17802
1.17394
1.1717
1.17335
1.17295
1.17124
1.17086
1.171
1.17062
1.17038
1.17096
1.17263
1.17438
1.17534
1.17601
1.17726
1.17923
1.18185
1.18472
1.18763
1.19043
1.19346
1.196
1.1977
1.19985
1.20376
1.20746
1.21407
1.22493
1.22788
1.22143
1.21218
1.18957
0.507565
0.507549
0.50762
0.507684
0.507671
0.507632
0.507613
0.507599
0.507593
0.507554
0.50732
0.507225
0.507302
0.507531
0.507603
0.507548
0.507317
0.507069
0.507022
0.507085
0.507459
0.508681
0.512435
0.520926
0.531678
0.538981
0.542804
0.545895
0.550918
0.557472
0.559667
0.560056
0.560045
0.560276
0.56096
0.561658
0.561978
0.562198
0.572905
0.736099
0.981235
1.1462
1.18998
1.1862
1.16812
1.17438
1.18193
1.17905
1.17149
1.17225
1.1742
1.17293
1.17086
1.17111
1.17119
1.17071
1.17088
1.17231
1.1743
1.17547
1.1754
1.176
1.17727
1.17939
1.1821
1.18496
1.18784
1.19059
1.19349
1.19634
1.19815
1.20051
1.20431
1.20786
1.21432
1.22534
1.22899
1.22331
1.21486
1.19252
0.50747
0.507504
0.507619
0.507665
0.507638
0.507589
0.507593
0.507597
0.507588
0.50748
0.507234
0.507203
0.50732
0.507582
0.507654
0.507583
0.507348
0.507083
0.507019
0.507075
0.507405
0.508579
0.512248
0.520725
0.532061
0.539422
0.542377
0.544264
0.547234
0.554353
0.559181
0.559905
0.5598
0.559907
0.56048
0.561325
0.561766
0.562089
0.562512
0.562887
0.589388
0.816683
1.0061
1.12243
1.15276
1.18433
1.18488
1.17591
1.1699
1.17522
1.17515
1.17233
1.17107
1.17175
1.17136
1.17087
1.17184
1.17409
1.17569
1.17586
1.17564
1.17615
1.17743
1.17963
1.18239
1.18523
1.18798
1.19058
1.19352
1.19683
1.19895
1.20125
1.20487
1.20828
1.21456
1.22575
1.2301
1.22508
1.21732
1.1954
0.507406
0.507482
0.507616
0.50765
0.507615
0.507572
0.507592
0.507597
0.507576
0.50742
0.507188
0.507172
0.507314
0.507627
0.507722
0.507647
0.507388
0.507106
0.50702
0.507073
0.507382
0.508546
0.512123
0.5204
0.531894
0.539616
0.54217
0.543371
0.545017
0.549889
0.557789
0.559748
0.559465
0.559462
0.560046
0.560928
0.561527
0.562015
0.562466
0.562868
0.563141
0.563351
0.617572
0.847683
1.07704
1.17836
1.18191
1.16856
1.17136
1.17871
1.17585
1.17146
1.17199
1.17248
1.17129
1.17109
1.173
1.17556
1.17654
1.17592
1.17579
1.17638
1.17776
1.18002
1.18277
1.1856
1.1882
1.19071
1.19384
1.19727
1.19972
1.20202
1.20539
1.20869
1.2148
1.22614
1.23118
1.22672
1.21948
1.19812
0.507383
0.507427
0.507506
0.50763
0.507615
0.507588
0.507596
0.507593
0.507562
0.507386
0.507151
0.507142
0.507297
0.507662
0.507816
0.507754
0.507466
0.507156
0.507045
0.507084
0.507365
0.508546
0.512088
0.52022
0.531767
0.539709
0.542016
0.542811
0.543711
0.546221
0.554477
0.559301
0.55887
0.558846
0.559538
0.560458
0.561139
0.561816
0.562456
0.562817
0.563025
0.563235
0.56352
0.563942
0.695655
0.927982
1.10348
1.1483
1.17614
1.18212
1.17354
1.17174
1.17415
1.17307
1.1704
1.17119
1.17434
1.17642
1.17605
1.17548
1.17588
1.17676
1.17815
1.18041
1.18312
1.18598
1.18852
1.19097
1.19419
1.19797
1.20055
1.20276
1.20587
1.20909
1.215
1.22637
1.23212
1.22824
1.2215
1.20084
0.507326
0.507351
0.507417
0.507599
0.50763
0.507622
0.507626
0.507623
0.507575
0.507367
0.507115
0.50711
0.507271
0.507672
0.507912
0.507876
0.50761
0.507257
0.507107
0.507131
0.507367
0.508472
0.511991
0.520012
0.531919
0.540502
0.542015
0.542453
0.542951
0.544206
0.549898
0.557225
0.557895
0.558253
0.559065
0.559985
0.560848
0.561531
0.562294
0.562794
0.562973
0.56309
0.563359
0.563937
0.564557
0.569525
0.765245
1.02943
1.16178
1.17853
1.16677
1.17491
1.17645
1.17309
1.16892
1.17162
1.17523
1.17575
1.17475
1.1752
1.17615
1.17725
1.17861
1.18084
1.18348
1.18634
1.18887
1.19135
1.19472
1.19887
1.20152
1.20354
1.20633
1.20945
1.21511
1.22635
1.23278
1.22956
1.22341
1.20363
0.507258
0.507256
0.507323
0.507533
0.507634
0.507667
0.507677
0.507671
0.507605
0.507361
0.507087
0.507081
0.507248
0.507667
0.507984
0.507967
0.507735
0.507356
0.507172
0.507187
0.507397
0.508373
0.511685
0.519592
0.532475
0.541487
0.542173
0.542274
0.542532
0.543246
0.545782
0.553285
0.557874
0.55831
0.558747
0.559491
0.560567
0.56135
0.561859
0.562592
0.562952
0.563067
0.563278
0.563675
0.564418
0.565085
0.565835
0.641097
0.887009
1.08995
1.14276
1.18137
1.17905
1.1698
1.16751
1.17343
1.17599
1.17407
1.17391
1.17494
1.17654
1.17787
1.17924
1.18141
1.18396
1.18681
1.18929
1.19183
1.19544
1.19991
1.2026
1.20439
1.20679
1.2097
1.21503
1.22599
1.23316
1.23069
1.22524
1.20652
0.507178
0.507159
0.507244
0.507475
0.507643
0.507705
0.507718
0.507712
0.507647
0.507389
0.507086
0.507067
0.50722
0.507638
0.508021
0.508025
0.507825
0.507448
0.507239
0.507247
0.507443
0.508329
0.511367
0.519136
0.532688
0.541664
0.54222
0.542209
0.542373
0.542841
0.544057
0.548996
0.556855
0.558488
0.558636
0.559178
0.560216
0.561132
0.561546
0.562056
0.562787
0.563051
0.563226
0.563538
0.564124
0.564764
0.565592
0.566544
0.56698
0.741959
1.01521
1.16773
1.1704
1.16189
1.16733
1.17642
1.17485
1.17249
1.17339
1.17504
1.17715
1.17858
1.18003
1.18207
1.18452
1.18728
1.1897
1.19234
1.19623
1.20102
1.20374
1.20529
1.20723
1.20978
1.21468
1.22517
1.2333
1.2317
1.22702
1.20954
0.507081
0.507079
0.507186
0.507426
0.507602
0.50769
0.507744
0.507745
0.50769
0.507466
0.507157
0.507111
0.507235
0.507599
0.508019
0.508058
0.507901
0.507556
0.507316
0.507314
0.507483
0.508316
0.511201
0.518801
0.532486
0.541608
0.542205
0.542193
0.542335
0.542742
0.543443
0.545505
0.552692
0.557784
0.558443
0.559129
0.560066
0.560893
0.561284
0.5616
0.562454
0.562955
0.563147
0.563438
0.563955
0.564485
0.565199
0.566231
0.566962
0.567239
0.635793
0.909797
1.08633
1.15222
1.17334
1.17949
1.17171
1.17248
1.17354
1.17527
1.17774
1.17899
1.18046
1.18256
1.18511
1.18789
1.19014
1.19282
1.19703
1.20218
1.20493
1.20619
1.20763
1.20972
1.21418
1.22413
1.2333
1.2326
1.22878
1.21269
0.507014
0.507025
0.507134
0.50738
0.507581
0.50765
0.507716
0.507728
0.507668
0.507465
0.507176
0.507143
0.507288
0.507636
0.508012
0.508084
0.507969
0.507669
0.507403
0.507374
0.50751
0.50828
0.51108
0.518581
0.531915
0.541622
0.54243
0.542402
0.542505
0.542802
0.54332
0.544313
0.547571
0.554351
0.557593
0.559066
0.560254
0.560708
0.560978
0.561209
0.561886
0.562738
0.562974
0.563248
0.563674
0.564199
0.564875
0.565988
0.566786
0.567041
0.567297
0.567544
0.805261
1.08255
1.16325
1.1776
1.16622
1.17242
1.17444
1.17628
1.17838
1.17884
1.18074
1.18273
1.18544
1.18846
1.1905
1.19315
1.19773
1.20329
1.20613
1.20707
1.208
1.20959
1.21357
1.22291
1.2332
1.23337
1.23049
1.21587
0.506944
0.506958
0.507066
0.50733
0.50758
0.50763
0.507663
0.507671
0.507603
0.507392
0.507153
0.507141
0.50729
0.507657
0.508029
0.50811
0.508009
0.50774
0.507492
0.507418
0.507524
0.508205
0.510923
0.518255
0.531043
0.541463
0.542847
0.542818
0.542921
0.543163
0.543463
0.544031
0.545454
0.549494
0.55487
0.558504
0.560351
0.560574
0.56066
0.56082
0.5614
0.562475
0.562845
0.563112
0.563462
0.563969
0.564634
0.565773
0.566685
0.566813
0.567004
0.567406
0.567848
0.704089
0.960144
1.13764
1.15431
1.17873
1.17609
1.17797
1.17818
1.17882
1.18085
1.18305
1.18611
1.1892
1.19094
1.1935
1.19837
1.20429
1.20736
1.2079
1.20834
1.2095
1.21297
1.22165
1.23278
1.23405
1.23199
1.21898
0.506859
0.506882
0.50701
0.507319
0.507584
0.507605
0.507608
0.507609
0.507537
0.507325
0.507116
0.50712
0.507279
0.507655
0.508025
0.508137
0.508039
0.507771
0.507557
0.507462
0.507532
0.508126
0.510674
0.517683
0.529917
0.540926
0.542997
0.542955
0.543022
0.543253
0.543597
0.544002
0.544793
0.547058
0.551379
0.55595
0.559763
0.560554
0.560457
0.560511
0.560955
0.562234
0.562777
0.56302
0.563344
0.563812
0.564442
0.565617
0.566652
0.566679
0.566796
0.567161
0.567788
0.568584
0.602699
0.879014
1.11061
1.18147
1.17124
1.17924
1.17858
1.17971
1.18191
1.18385
1.18722
1.19012
1.19152
1.19398
1.19892
1.20511
1.20857
1.20865
1.20867
1.20948
1.21255
1.2205
1.2319
1.23464
1.23317
1.22184
0.506799
0.506823
0.506969
0.507355
0.507606
0.507592
0.507585
0.507566
0.507466
0.507255
0.50709
0.507095
0.507251
0.507632
0.507981
0.508141
0.508087
0.507816
0.507592
0.507487
0.507537
0.508033
0.510304
0.516943
0.528897
0.540197
0.543052
0.543092
0.543215
0.543485
0.543761
0.544038
0.544556
0.545954
0.549039
0.552508
0.55645
0.559955
0.560137
0.560197
0.560618
0.561771
0.562457
0.562782
0.563187
0.563684
0.564264
0.565187
0.566511
0.56655
0.566618
0.566949
0.56753
0.568602
0.569715
0.570285
0.81103
1.0836
1.14896
1.18314
1.17978
1.18283
1.18428
1.1853
1.18878
1.19126
1.19238
1.19475
1.19943
1.20554
1.20901
1.20921
1.20898
1.20959
1.21238
1.21955
1.23064
1.23513
1.23409
1.22433
0.506773
0.50678
0.506906
0.50732
0.507638
0.507661
0.507658
0.507579
0.50739
0.507163
0.507064
0.507079
0.507243
0.507608
0.507926
0.508124
0.508118
0.507906
0.507628
0.507486
0.507514
0.507928
0.509915
0.516019
0.527742
0.539309
0.543058
0.543274
0.543441
0.543796
0.544084
0.544241
0.544528
0.545308
0.54741
0.550243
0.553029
0.557081
0.55932
0.559782
0.560386
0.561457
0.562023
0.562375
0.562834
0.563471
0.564067
0.564776
0.565904
0.566319
0.566456
0.566815
0.567395
0.568322
0.56957
0.570394
0.570886
0.727558
1.03871
1.17574
1.1758
1.1851
1.18593
1.18704
1.19144
1.19291
1.19357
1.19575
1.19994
1.20559
1.20928
1.20958
1.20927
1.2098
1.21236
1.21876
1.22914
1.23541
1.23483
1.22646
0.506752
0.506738
0.506835
0.507217
0.507674
0.507825
0.507814
0.507642
0.507261
0.507063
0.507033
0.507072
0.507251
0.507613
0.507931
0.508118
0.508137
0.507966
0.507673
0.507472
0.507453
0.507829
0.509606
0.515078
0.526076
0.538147
0.543131
0.543498
0.543551
0.543799
0.544221
0.54448
0.544649
0.545084
0.546216
0.548354
0.550606
0.553662
0.557601
0.559132
0.559993
0.561146
0.5617
0.562033
0.562522
0.563268
0.564017
0.5646
0.565463
0.566047
0.566284
0.566753
0.567333
0.568075
0.569314
0.5703
0.570888
0.571631
0.669374
1.00032
1.1307
1.1858
1.18585
1.18967
1.19507
1.19482
1.19502
1.19691
1.20043
1.2054
1.2089
1.20946
1.2095
1.20999
1.21234
1.21806
1.22758
1.23542
1.23548
1.22844
0.50674
0.506663
0.506746
0.507167
0.507789
0.507993
0.507964
0.507681
0.507054
0.506944
0.506951
0.507045
0.507285
0.507631
0.507934
0.508116
0.508146
0.507987
0.507698
0.507469
0.507413
0.507753
0.509376
0.514314
0.524393
0.536573
0.542983
0.543754
0.543689
0.543738
0.544132
0.544634
0.544828
0.545079
0.545751
0.54712
0.548859
0.551021
0.554867
0.557826
0.55892
0.560241
0.561281
0.561802
0.562297
0.563078
0.563941
0.564515
0.565161
0.565759
0.566054
0.566669
0.567361
0.56795
0.568945
0.570211
0.570812
0.571605
0.572534
0.62745
0.961395
1.16715
1.17806
1.19198
1.19669
1.19501
1.19644
1.19834
1.20105
1.20522
1.20883
1.20941
1.20965
1.21004
1.21215
1.21737
1.22614
1.23509
1.2363
1.23039
0.506697
0.506576
0.506667
0.507152
0.507904
0.508147
0.508116
0.507721
0.506881
0.506794
0.506804
0.506946
0.507287
0.507646
0.507922
0.508101
0.508143
0.507979
0.507696
0.50746
0.507376
0.507679
0.509187
0.513723
0.523098
0.534679
0.542498
0.543893
0.543827
0.543747
0.544067
0.544787
0.545087
0.545191
0.54562
0.546532
0.54779
0.549309
0.551928
0.555473
0.557164
0.558513
0.560529
0.56161
0.561895
0.562505
0.563687
0.564386
0.564807
0.565331
0.565701
0.566441
0.567348
0.567868
0.568669
0.570049
0.57085
0.57149
0.572652
0.573448
0.602728
0.954316
1.1256
1.19251
1.19635
1.19476
1.19766
1.19975
1.20177
1.20525
1.20907
1.20959
1.2096
1.20987
1.21175
1.21675
1.2251
1.23458
1.23726
1.23234
0.506624
0.506495
0.506599
0.507133
0.507996
0.508295
0.508261
0.507785
0.506761
0.506646
0.50665
0.506799
0.507248
0.507669
0.50795
0.508108
0.508071
0.507848
0.507595
0.507413
0.507349
0.507617
0.509013
0.513201
0.52215
0.533249
0.541165
0.543906
0.543899
0.543885
0.544084
0.54485
0.545496
0.545494
0.545634
0.546257
0.547194
0.548296
0.54989
0.552857
0.555479
0.556841
0.55898
0.560905
0.561115
0.561556
0.562997
0.563983
0.564362
0.56478
0.565205
0.565924
0.567211
0.567819
0.56855
0.569794
0.571164
0.571553
0.572582
0.573851
0.574618
0.59765
0.947494
1.16617
1.19462
1.19398
1.19883
1.20065
1.20216
1.20522
1.2099
1.20987
1.20922
1.20938
1.21122
1.2164
1.22481
1.23419
1.23832
1.23424
0.506487
0.506386
0.506499
0.50706
0.508014
0.508405
0.508379
0.507889
0.506714
0.506522
0.50652
0.506643
0.507178
0.5077
0.508023
0.50805
0.507904
0.507666
0.507491
0.50739
0.50735
0.507595
0.508859
0.512724
0.521303
0.532665
0.539676
0.542886
0.543826
0.544032
0.544368
0.54497
0.545645
0.545847
0.545866
0.546195
0.546923
0.547816
0.548887
0.550833
0.553517
0.555055
0.556484
0.558877
0.560071
0.560688
0.561919
0.563126
0.563744
0.564275
0.56481
0.565554
0.566935
0.567803
0.568522
0.569672
0.571334
0.572077
0.572687
0.574299
0.575239
0.575734
0.596305
0.958059
1.16417
1.19173
1.20152
1.20092
1.202
1.2065
1.21083
1.20989
1.20809
1.20849
1.21062
1.21631
1.22486
1.23394
1.23916
1.23591
0.506327
0.50623
0.506326
0.506867
0.507912
0.508459
0.508462
0.50807
0.506815
0.506407
0.506399
0.506501
0.507029
0.50773
0.508055
0.508034
0.507803
0.507577
0.507473
0.507414
0.507385
0.507594
0.508735
0.512326
0.520478
0.532211
0.539431
0.541705
0.543067
0.543953
0.544593
0.545242
0.545739
0.546064
0.546188
0.54633
0.546831
0.54756
0.548471
0.549852
0.551882
0.553457
0.554594
0.556734
0.558924
0.559773
0.560821
0.562068
0.562889
0.563764
0.564592
0.56544
0.566638
0.567884
0.568833
0.569761
0.571276
0.572793
0.573549
0.574723
0.575852
0.576484
0.576824
0.616231
1.01011
1.16484
1.20383
1.20151
1.20141
1.20863
1.2105
1.20942
1.20728
1.20732
1.20968
1.2158
1.22436
1.2334
1.23949
1.23712
0.506197
0.506052
0.506112
0.50658
0.507688
0.50845
0.508503
0.508244
0.507072
0.506343
0.506305
0.506387
0.506913
0.507812
0.508095
0.508045
0.507764
0.507526
0.507437
0.50741
0.507387
0.50758
0.50863
0.511986
0.51969
0.531515
0.539387
0.541529
0.542495
0.543581
0.544597
0.545322
0.545759
0.54607
0.546343
0.546556
0.546836
0.547378
0.548209
0.549361
0.551036
0.552528
0.553395
0.554679
0.55724
0.55873
0.559787
0.560959
0.561924
0.56322
0.564541
0.565427
0.56655
0.567925
0.569189
0.570543
0.571612
0.573275
0.574595
0.575719
0.577044
0.577503
0.578092
0.578568
0.642148
1.04061
1.20217
1.19472
1.19951
1.21003
1.21041
1.20683
1.20366
1.20503
1.20795
1.21418
1.22275
1.23212
1.23938
1.23771
0.506147
0.505872
0.505899
0.506276
0.507418
0.508394
0.508508
0.508346
0.507361
0.506351
0.506241
0.506303
0.506837
0.507846
0.508137
0.508077
0.507773
0.50752
0.507425
0.507398
0.507377
0.507569
0.508554
0.511732
0.518975
0.530679
0.539539
0.541627
0.542254
0.543072
0.544228
0.545112
0.545578
0.545961
0.546317
0.546542
0.546798
0.547255
0.548003
0.549048
0.550358
0.551844
0.552817
0.553746
0.555748
0.5578
0.558813
0.559894
0.561076
0.562718
0.564774
0.565759
0.566741
0.56803
0.569217
0.570833
0.572627
0.574339
0.575803
0.576986
0.578117
0.578462
0.578932
0.579899
0.580632
0.722286
1.13286
1.17581
1.19828
1.20964
1.20833
1.20415
1.20072
1.20225
1.20517
1.21106
1.21971
1.22977
1.23864
1.23775
0.506233
0.505764
0.505763
0.506046
0.507155
0.508308
0.508499
0.508388
0.507576
0.506374
0.506171
0.506217
0.506775
0.507889
0.508201
0.508136
0.507815
0.507535
0.507418
0.507388
0.507384
0.507576
0.508502
0.511539
0.518347
0.529928
0.540199
0.541991
0.54213
0.542459
0.543282
0.544257
0.544946
0.545659
0.546322
0.546545
0.546771
0.547191
0.5479
0.548894
0.550037
0.551492
0.55261
0.553382
0.554856
0.557052
0.558126
0.559152
0.560494
0.562331
0.564789
0.566223
0.567166
0.568479
0.569617
0.570889
0.573048
0.575391
0.57708
0.578113
0.579036
0.579762
0.579859
0.580335
0.58191
0.582221
0.831554
1.12958
1.19995
1.20965
1.20603
1.2015
1.19852
1.19971
1.2017
1.20661
1.21531
1.22621
1.23698
1.23713
0.506432
0.505739
0.505715
0.505915
0.506904
0.508178
0.508451
0.508376
0.507699
0.506432
0.506146
0.506184
0.506759
0.507978
0.508321
0.508261
0.507909
0.507558
0.507413
0.507384
0.507408
0.50761
0.508471
0.511292
0.517804
0.529536
0.540698
0.541931
0.541967
0.542089
0.54257
0.54355
0.544515
0.54547
0.546452
0.546671
0.546796
0.547164
0.547881
0.548829
0.549892
0.551106
0.552446
0.553196
0.554376
0.556546
0.557781
0.558793
0.560233
0.562148
0.564588
0.566702
0.56739
0.568772
0.570745
0.57253
0.573674
0.575683
0.577702
0.5788
0.579635
0.580853
0.581028
0.581102
0.581916
0.583773
0.585858
0.947465
1.17011
1.20658
1.20333
1.19956
1.19889
1.19764
1.19785
1.20125
1.20977
1.22134
1.23392
1.23581
0.506738
0.505836
0.50576
0.505877
0.506657
0.508013
0.508378
0.508326
0.507753
0.506519
0.506185
0.506216
0.506817
0.508048
0.508377
0.508319
0.507951
0.507579
0.507424
0.507412
0.507474
0.507688
0.508456
0.51097
0.517329
0.529319
0.540783
0.542066
0.541951
0.541972
0.542198
0.543006
0.5442
0.545289
0.546359
0.546775
0.546957
0.547332
0.548179
0.549224
0.549912
0.550541
0.551941
0.553088
0.554166
0.556267
0.557677
0.558686
0.560215
0.562085
0.564202
0.566989
0.568647
0.569224
0.571267
0.573878
0.575304
0.575875
0.57781
0.579813
0.580118
0.581218
0.582233
0.582218
0.583169
0.585869
0.586687
0.61922
1.02034
1.18934
1.19448
1.20007
1.198
1.19379
1.19302
1.19564
1.20374
1.21526
1.22896
1.23358
0.50696
0.50604
0.505902
0.505951
0.506477
0.50785
0.508359
0.508323
0.507815
0.506618
0.506274
0.506301
0.506887
0.508078
0.508376
0.50831
0.507935
0.507605
0.507452
0.507465
0.507578
0.507809
0.508474
0.510707
0.516751
0.527815
0.539638
0.542433
0.542274
0.54202
0.542131
0.542741
0.544111
0.545282
0.546217
0.546895
0.547198
0.547549
0.548502
0.549684
0.54994
0.550357
0.551419
0.553171
0.554216
0.556012
0.557704
0.558792
0.560886
0.562764
0.564151
0.566704
0.570226
0.571518
0.57199
0.57388
0.576515
0.577048
0.577937
0.580656
0.581799
0.58172
0.583459
0.584771
0.586063
0.588243
0.590662
0.591409
0.719191
1.11611
1.17798
1.19571
1.19316
1.18768
1.18753
1.19023
1.19758
1.20801
1.22196
1.2298
0.507103
0.506288
0.506003
0.506029
0.506409
0.507725
0.508361
0.508357
0.507929
0.506724
0.506351
0.506375
0.506934
0.508066
0.508324
0.508264
0.507925
0.507618
0.5075
0.507543
0.507672
0.507892
0.508497
0.510566
0.516079
0.526038
0.537543
0.542835
0.542885
0.542489
0.542333
0.542722
0.544062
0.545459
0.546201
0.54702
0.547471
0.547754
0.548446
0.550024
0.550669
0.550658
0.551358
0.553443
0.555407
0.556019
0.558089
0.560325
0.56259
0.5648
0.565794
0.566944
0.570103
0.57325
0.573584
0.574019
0.57682
0.579024
0.57953
0.580729
0.583485
0.584378
0.58519
0.587656
0.589474
0.590763
0.592509
0.595068
0.595611
0.873791
1.1304
1.19139
1.18658
1.18025
1.18125
1.18474
1.19096
1.1997
1.21343
1.22422
0.507212
0.50652
0.506149
0.506165
0.506462
0.507704
0.508391
0.508401
0.507999
0.506804
0.506481
0.506494
0.506977
0.508039
0.508292
0.508243
0.50796
0.507669
0.507601
0.507655
0.507744
0.507911
0.508461
0.510479
0.515753
0.525252
0.53652
0.542854
0.543419
0.543261
0.543009
0.543067
0.544073
0.546026
0.546608
0.547133
0.547595
0.548023
0.548636
0.550181
0.552087
0.552979
0.552784
0.553712
0.556876
0.558215
0.559206
0.561585
0.563777
0.566379
0.569262
0.570049
0.570619
0.57386
0.576451
0.576441
0.577327
0.580798
0.583621
0.583835
0.584918
0.587477
0.588757
0.590185
0.592124
0.593357
0.595201
0.597017
0.598698
0.610193
1.01232
1.17916
1.17585
1.17128
1.17473
1.17887
1.18357
1.19079
1.20405
1.217
0.507249
0.506667
0.506418
0.506432
0.506659
0.507776
0.508388
0.508401
0.508016
0.506813
0.506511
0.506516
0.506959
0.50801
0.50827
0.50824
0.507983
0.507774
0.507736
0.507766
0.507801
0.507884
0.508393
0.510429
0.515656
0.525068
0.536469
0.54274
0.543708
0.543815