/*--------------------------------*- C++ -*----------------------------------*\
  =========                 |
  \\      /  F ield         | OpenFOAM: The Open Source CFD Toolbox
   \\    /   O peration     | Website:  https://openfoam.org
    \\  /    A nd           | Version:  7
     \\/     M anipulation  |
\*---------------------------------------------------------------------------*/
FoamFile
{
    version     2.0;
    format      ascii;
    class       volVectorField;
    location    "6.5";
    object      U;
}
// * * * * * * * * * * * * * * * * * * * * * * * * * * * * * * * * * * * * * //

dimensions      [0 1 -1 0 0 0 0];

internalField   nonuniform List<vector> 
90000
(
(5.025 -0.227037 0)
(5.02402 -0.214779 0)
(5.02347 -0.204688 0)
(5.02196 -0.193854 0)
(5.0209 -0.186562 0)
(5.01897 -0.177529 0)
(5.01755 -0.171881 0)
(5.01552 -0.16497 0)
(5.01384 -0.160857 0)
(5.01149 -0.154063 0)
(5.00983 -0.151564 0)
(5.00743 -0.145501 0)
(5.00563 -0.14319 0)
(5.00337 -0.138521 0)
(5.00153 -0.135903 0)
(4.99932 -0.131403 0)
(4.99771 -0.130025 0)
(4.99533 -0.125178 0)
(4.99334 -0.121689 0)
(4.99147 -0.115613 0)
(4.99069 -0.112331 0)
(4.98962 -0.104294 0)
(4.9893 -0.100095 0)
(4.98841 -0.0903176 0)
(4.98814 -0.0847708 0)
(4.98741 -0.0758789 0)
(4.98666 -0.0676772 0)
(4.98635 -0.0627927 0)
(4.98486 -0.0509549 0)
(4.98502 -0.0499212 0)
(4.98281 -0.0359073 0)
(4.98275 -0.0353778 0)
(4.98053 -0.0245742 0)
(4.97916 -0.0176386 0)
(4.97955 -0.0169791 0)
(4.97638 -0.00366021 0)
(4.97737 -0.00449711 0)
(4.97439 0.0040086 0)
(4.97348 0.00779226 0)
(4.9733 0.0102882 0)
(4.97248 0.0127167 0)
(4.97159 0.016357 0)
(4.97267 0.0171334 0)
(4.97133 0.015294 0)
(4.97051 0.0121809 0)
(4.97041 0.00290111 0)
(4.96965 -0.00329071 0)
(4.971 -0.0162199 0)
(4.96975 -0.0202214 0)
(4.96916 -0.0297285 0)
(4.9683 -0.0309026 0)
(4.96662 -0.0306512 0)
(4.96442 -0.0290065 0)
(4.96183 -0.0256264 0)
(4.95953 -0.0215734 0)
(4.95746 -0.0167039 0)
(4.95542 -0.0122616 0)
(4.95452 -0.00983362 0)
(4.95486 -0.00627386 0)
(4.95638 -0.0026796 0)
(4.95679 -0.00306262 0)
(4.95745 -0.00597449 0)
(4.95826 -0.0118081 0)
(4.95866 -0.0135286 0)
(4.95984 -0.017822 0)
(4.96034 -0.0201478 0)
(4.96008 -0.0196544 0)
(4.96009 -0.0199927 0)
(4.95893 -0.0138723 0)
(4.95828 -0.0083029 0)
(4.95865 -0.00556211 0)
(4.95908 -0.00204302 0)
(4.9593 -0.0032118 0)
(4.95952 -0.007482 0)
(4.95921 -0.00865105 0)
(4.9624 -0.012062 0)
(4.96261 -0.012514 0)
(4.96229 -0.0106333 0)
(4.96322 -0.0099842 0)
(4.96197 -0.00601642 0)
(4.96227 -0.00671665 0)
(4.96215 -0.00760611 0)
(4.96401 -0.0105738 0)
(4.96448 -0.010751 0)
(4.96463 -0.00985884 0)
(4.96465 -0.00812058 0)
(4.96434 -0.00588531 0)
(4.9642 -0.00656526 0)
(4.96406 -0.00693396 0)
(4.96551 -0.00845767 0)
(4.96576 -0.0084544 0)
(4.96584 -0.00828925 0)
(4.96587 -0.00829906 0)
(4.96614 -0.00894884 0)
(4.96643 -0.00948658 0)
(4.96668 -0.00946956 0)
(4.96674 -0.00898835 0)
(4.96666 -0.00772094 0)
(4.96663 -0.00796994 0)
(4.96729 -0.00909198 0)
(5.02475 -0.233763 0)
(5.02469 -0.233542 0)
(5.02454 -0.232946 0)
(5.02435 -0.232256 0)
(5.02408 -0.231039 0)
(5.02363 -0.22962 0)
(5.02312 -0.228043 0)
(5.02254 -0.22609 0)
(5.02195 -0.224188 0)
(5.02122 -0.221492 0)
(5.02053 -0.219189 0)
(5.0197 -0.216199 0)
(5.01889 -0.21335 0)
(5.01799 -0.2099 0)
(5.01716 -0.206663 0)
(5.01619 -0.202213 0)
(5.01537 -0.198987 0)
(5.01452 -0.195746 0)
(5.01367 -0.191421 0)
(5.01241 -0.187372 0)
(5.01076 -0.184545 0)
(5.00836 -0.180314 0)
(5.00583 -0.176707 0)
(5.00279 -0.171183 0)
(4.99999 -0.165787 0)
(4.99691 -0.158234 0)
(4.99404 -0.149803 0)
(4.99163 -0.142755 0)
(4.98844 -0.129712 0)
(4.98693 -0.124076 0)
(4.9837 -0.108836 0)
(4.98195 -0.099082 0)
(4.98081 -0.0911969 0)
(4.97752 -0.0704162 0)
(4.97889 -0.0712635 0)
(4.97472 -0.048516 0)
(4.97587 -0.047736 0)
(4.97286 -0.028277 0)
(4.97359 -0.0287906 0)
(4.97131 -0.0144644 0)
(4.97153 -0.0126698 0)
(4.97042 -0.00557154 0)
(4.97215 -0.00249666 0)
(4.9694 0.00269717 0)
(4.97026 0.00541144 0)
(4.9702 0.00998425 0)
(4.97013 0.0118919 0)
(4.97075 0.0090537 0)
(4.97134 0.00690519 0)
(4.97242 0.00174142 0)
(4.97303 -0.00229044 0)
(4.97443 -0.00858388 0)
(4.97432 -0.0121141 0)
(4.97294 -0.0162047 0)
(4.97223 -0.0165339 0)
(4.97135 -0.0160466 0)
(4.97059 -0.0141767 0)
(4.97001 -0.0128159 0)
(4.96936 -0.0108742 0)
(4.96889 -0.0067117 0)
(4.96888 -0.00483057 0)
(4.96829 -0.0025179 0)
(4.96799 -0.00320866 0)
(4.96745 -0.0049398 0)
(4.96809 -0.0109288 0)
(4.96778 -0.0114235 0)
(4.96849 -0.0176625 0)
(4.96884 -0.0162371 0)
(4.96799 -0.0152063 0)
(4.96679 -0.0134041 0)
(4.96569 -0.00939479 0)
(4.9652 -0.00564356 0)
(4.96499 -0.00204926 0)
(4.96495 -0.00243775 0)
(4.96491 -0.00713038 0)
(4.96561 -0.0100842 0)
(4.96609 -0.0132704 0)
(4.96611 -0.0120781 0)
(4.96638 -0.00964733 0)
(4.96609 -0.00699983 0)
(4.96571 -0.00533219 0)
(4.96559 -0.00682405 0)
(4.96582 -0.00831232 0)
(4.96639 -0.00978977 0)
(4.96651 -0.00961272 0)
(4.96643 -0.00785728 0)
(4.96657 -0.00551176 0)
(4.96588 -0.00718023 0)
(4.96569 -0.00819842 0)
(4.96565 -0.00943097 0)
(4.96673 -0.00909095 0)
(4.96686 -0.00870656 0)
(4.96695 -0.00788535 0)
(4.96697 -0.00815992 0)
(4.96704 -0.00897703 0)
(4.96711 -0.00906682 0)
(4.96713 -0.00796236 0)
(4.96709 -0.00789956 0)
(4.96716 -0.00835021 0)
(4.96745 -0.00902379 0)
(5.02252 -0.23383 0)
(5.02258 -0.234126 0)
(5.02259 -0.23421 0)
(5.02256 -0.234269 0)
(5.02253 -0.234416 0)
(5.02244 -0.234487 0)
(5.0223 -0.234382 0)
(5.02223 -0.234328 0)
(5.02214 -0.234143 0)
(5.02202 -0.233784 0)
(5.02193 -0.233408 0)
(5.02185 -0.233217 0)
(5.02173 -0.232884 0)
(5.02159 -0.232471 0)
(5.0213 -0.231314 0)
(5.02113 -0.23038 0)
(5.02098 -0.229244 0)
(5.02072 -0.228452 0)
(5.02028 -0.226988 0)
(5.01982 -0.225324 0)
(5.01933 -0.223065 0)
(5.01886 -0.221168 0)
(5.01811 -0.218183 0)
(5.01739 -0.216054 0)
(5.01633 -0.212074 0)
(5.01543 -0.209021 0)
(5.01417 -0.203897 0)
(5.01302 -0.199862 0)
(5.01146 -0.194099 0)
(5.00987 -0.187896 0)
(5.00814 -0.181188 0)
(5.00612 -0.172191 0)
(5.00421 -0.16461 0)
(5.00138 -0.152036 0)
(4.99999 -0.14606 0)
(4.99599 -0.126309 0)
(4.99527 -0.123567 0)
(4.99049 -0.0993295 0)
(4.98937 -0.0953614 0)
(4.98489 -0.0735218 0)
(4.98323 -0.0676119 0)
(4.97912 -0.0482411 0)
(4.978 -0.0429103 0)
(4.97529 -0.0287993 0)
(4.97427 -0.0220066 0)
(4.9729 -0.0182762 0)
(4.97437 -0.0143288 0)
(4.97173 -0.00803461 0)
(4.97293 -0.00541701 0)
(4.9722 -0.00145123 0)
(4.97177 -0.000820256 0)
(4.9725 -0.000922272 0)
(4.97357 -0.00357625 0)
(4.97437 -0.00546798 0)
(4.97543 -0.00811273 0)
(4.97686 -0.011413 0)
(4.97783 -0.013267 0)
(4.97884 -0.0161444 0)
(4.9787 -0.016476 0)
(4.97808 -0.0163365 0)
(4.97741 -0.014351 0)
(4.97695 -0.0135756 0)
(4.97596 -0.0114843 0)
(4.97483 -0.00831998 0)
(4.97473 -0.00809034 0)
(4.97454 -0.00886911 0)
(4.97476 -0.0114259 0)
(4.97507 -0.0123882 0)
(4.97565 -0.0168666 0)
(4.97571 -0.0146659 0)
(4.97505 -0.0132482 0)
(4.97397 -0.00973409 0)
(4.9733 -0.00696791 0)
(4.9726 -0.00234095 0)
(4.97191 -0.00189856 0)
(4.97198 -0.00325921 0)
(4.97241 -0.00774833 0)
(4.97196 -0.00887917 0)
(4.97233 -0.0126502 0)
(4.97196 -0.0117348 0)
(4.97151 -0.0101825 0)
(4.97116 -0.00591996 0)
(4.97106 -0.0060564 0)
(4.97087 -0.00742842 0)
(4.97093 -0.0108903 0)
(4.97071 -0.0109241 0)
(4.97045 -0.00980065 0)
(4.96989 -0.00587378 0)
(4.96978 -0.00561864 0)
(4.96941 -0.00633731 0)
(4.96979 -0.00870822 0)
(4.96989 -0.00894914 0)
(4.97018 -0.00869284 0)
(4.97002 -0.0088884 0)
(4.96995 -0.00917314 0)
(4.96973 -0.00965206 0)
(4.96958 -0.00967899 0)
(4.96946 -0.0087414 0)
(4.96951 -0.00838293 0)
(4.96965 -0.00874185 0)
(5.02037 -0.232257 0)
(5.02037 -0.232311 0)
(5.02037 -0.232372 0)
(5.02034 -0.232387 0)
(5.0203 -0.232439 0)
(5.02027 -0.232515 0)
(5.02022 -0.23257 0)
(5.02018 -0.232641 0)
(5.02018 -0.232739 0)
(5.02008 -0.232881 0)
(5.02006 -0.232868 0)
(5.02003 -0.23284 0)
(5.02003 -0.232886 0)
(5.02001 -0.232899 0)
(5.01997 -0.232855 0)
(5.01989 -0.232999 0)
(5.01982 -0.233076 0)
(5.01979 -0.232913 0)
(5.01969 -0.233048 0)
(5.01961 -0.233242 0)
(5.01955 -0.23317 0)
(5.0195 -0.232831 0)
(5.01944 -0.232719 0)
(5.01935 -0.232653 0)
(5.01924 -0.232531 0)
(5.01909 -0.232038 0)
(5.01895 -0.231529 0)
(5.01881 -0.230851 0)
(5.01868 -0.23039 0)
(5.0185 -0.229237 0)
(5.01809 -0.228272 0)
(5.01745 -0.226111 0)
(5.01683 -0.224277 0)
(5.01593 -0.220685 0)
(5.01511 -0.217382 0)
(5.01385 -0.211718 0)
(5.01262 -0.205661 0)
(5.01072 -0.195928 0)
(5.00941 -0.189239 0)
(5.00635 -0.172697 0)
(5.00487 -0.166035 0)
(5.00058 -0.144454 0)
(4.99808 -0.133477 0)
(4.99377 -0.112269 0)
(4.99037 -0.0956716 0)
(4.98691 -0.0805093 0)
(4.98297 -0.0576166 0)
(4.98187 -0.053243 0)
(4.97933 -0.0376959 0)
(4.97785 -0.0285943 0)
(4.97981 -0.0317744 0)
(4.97559 -0.0208648 0)
(4.97657 -0.0181136 0)
(4.97673 -0.0141055 0)
(4.97634 -0.0125016 0)
(4.97584 -0.0110698 0)
(4.97602 -0.00961597 0)
(4.97686 -0.00914895 0)
(4.97728 -0.00934779 0)
(4.97755 -0.00933854 0)
(4.97831 -0.00967316 0)
(4.97845 -0.0101134 0)
(4.97843 -0.0112336 0)
(4.97782 -0.0104804 0)
(4.97741 -0.00933375 0)
(4.97705 -0.00823403 0)
(4.97641 -0.00733612 0)
(4.97653 -0.00693398 0)
(4.97759 -0.00809144 0)
(4.9782 -0.00852332 0)
(4.97868 -0.012173 0)
(4.97832 -0.0128095 0)
(4.97779 -0.0127199 0)
(4.97683 -0.010865 0)
(4.97645 -0.0073527 0)
(4.97564 -0.00379781 0)
(4.97552 -0.00187732 0)
(4.9756 -0.00340749 0)
(4.97605 -0.00733148 0)
(4.97607 -0.0102075 0)
(4.9763 -0.0122502 0)
(4.97585 -0.0111902 0)
(4.9754 -0.0089355 0)
(4.97484 -0.00640698 0)
(4.9749 -0.00762652 0)
(4.97496 -0.00964775 0)
(4.97463 -0.0104471 0)
(4.9743 -0.00955557 0)
(4.97395 -0.007389 0)
(4.97352 -0.00605563 0)
(4.97368 -0.00657244 0)
(4.97378 -0.0083633 0)
(4.97404 -0.00777242 0)
(4.97391 -0.0079383 0)
(4.97368 -0.00832395 0)
(4.97337 -0.00907346 0)
(4.97307 -0.00853399 0)
(4.97295 -0.00807179 0)
(4.97282 -0.00755912 0)
(4.97283 -0.0080345 0)
(5.01959 -0.232476 0)
(5.01959 -0.232562 0)
(5.01958 -0.232651 0)
(5.01955 -0.232679 0)
(5.01953 -0.232697 0)
(5.01941 -0.232841 0)
(5.0193 -0.232904 0)
(5.01927 -0.232958 0)
(5.01928 -0.232995 0)
(5.0192 -0.233118 0)
(5.01914 -0.233255 0)
(5.01907 -0.233353 0)
(5.01899 -0.23337 0)
(5.01897 -0.233363 0)
(5.01906 -0.233549 0)
(5.01913 -0.233837 0)
(5.01917 -0.233864 0)
(5.0192 -0.233988 0)
(5.01893 -0.234409 0)
(5.01891 -0.234824 0)
(5.01895 -0.23502 0)
(5.01894 -0.234879 0)
(5.01884 -0.234972 0)
(5.01869 -0.235148 0)
(5.01857 -0.235404 0)
(5.01852 -0.235522 0)
(5.01847 -0.23563 0)
(5.01838 -0.23581 0)
(5.0183 -0.236017 0)
(5.01821 -0.236258 0)
(5.01828 -0.236186 0)
(5.01828 -0.236138 0)
(5.01828 -0.236109 0)
(5.01831 -0.236099 0)
(5.01834 -0.236089 0)
(5.01828 -0.235681 0)
(5.01813 -0.235047 0)
(5.01789 -0.233989 0)
(5.0175 -0.232519 0)
(5.01696 -0.230266 0)
(5.01623 -0.226552 0)
(5.01516 -0.221514 0)
(5.01376 -0.214247 0)
(5.01177 -0.204782 0)
(5.00904 -0.19042 0)
(5.00686 -0.179194 0)
(5.00226 -0.154898 0)
(4.9996 -0.140305 0)
(4.9957 -0.119264 0)
(4.99024 -0.0837474 0)
(4.99343 -0.0892232 0)
(4.98468 -0.0435576 0)
(4.98419 -0.0463178 0)
(4.9813 -0.0315126 0)
(4.97934 -0.0204736 0)
(4.97868 -0.0199344 0)
(4.9777 -0.0166724 0)
(4.97731 -0.0119661 0)
(4.97674 -0.0123379 0)
(4.9768 -0.0115 0)
(4.97724 -0.0113753 0)
(4.97749 -0.0122407 0)
(4.97798 -0.0129137 0)
(4.97796 -0.0120555 0)
(4.97785 -0.0116529 0)
(4.9776 -0.00907742 0)
(4.97627 -0.00702879 0)
(4.97678 -0.00590562 0)
(4.97704 -0.00441773 0)
(4.97737 -0.00496067 0)
(4.97774 -0.00745286 0)
(4.97774 -0.00967122 0)
(4.97821 -0.0127685 0)
(4.97823 -0.0123357 0)
(4.97783 -0.0106429 0)
(4.97738 -0.0085066 0)
(4.97719 -0.00671393 0)
(4.97685 -0.0050065 0)
(4.97678 -0.0050955 0)
(4.97709 -0.00626719 0)
(4.97763 -0.00813605 0)
(4.97778 -0.0104743 0)
(4.97763 -0.0104349 0)
(4.97723 -0.00944617 0)
(4.97721 -0.00833485 0)
(4.977 -0.00739927 0)
(4.97717 -0.00773614 0)
(4.97717 -0.00844321 0)
(4.97697 -0.00842774 0)
(4.97653 -0.00737802 0)
(4.97684 -0.00794522 0)
(4.97692 -0.00829573 0)
(4.97692 -0.00911341 0)
(4.97685 -0.00870933 0)
(4.97668 -0.008666 0)
(4.97647 -0.00890886 0)
(4.97623 -0.0094642 0)
(4.97612 -0.00922367 0)
(4.97599 -0.00857338 0)
(4.97595 -0.00847075 0)
(5.02 -0.232166 0)
(5.02001 -0.232234 0)
(5.02 -0.23221 0)
(5.02001 -0.232191 0)
(5.01989 -0.232385 0)
(5.01982 -0.232472 0)
(5.01975 -0.232553 0)
(5.01966 -0.23272 0)
(5.01963 -0.232894 0)
(5.01958 -0.232866 0)
(5.01955 -0.232747 0)
(5.0195 -0.232815 0)
(5.01933 -0.233038 0)
(5.01931 -0.233354 0)
(5.01937 -0.233454 0)
(5.01943 -0.233435 0)
(5.01926 -0.233614 0)
(5.01915 -0.233859 0)
(5.01916 -0.234097 0)
(5.01928 -0.234094 0)
(5.01921 -0.234357 0)
(5.01903 -0.234671 0)
(5.01902 -0.234776 0)
(5.01888 -0.235184 0)
(5.01883 -0.235796 0)
(5.01882 -0.235762 0)
(5.01892 -0.235642 0)
(5.01879 -0.236107 0)
(5.01878 -0.236765 0)
(5.01895 -0.236759 0)
(5.01906 -0.236892 0)
(5.01904 -0.237367 0)
(5.0191 -0.237691 0)
(5.0192 -0.23794 0)
(5.01924 -0.238383 0)
(5.01921 -0.238386 0)
(5.01914 -0.238428 0)
(5.019 -0.238339 0)
(5.01902 -0.238307 0)
(5.01917 -0.238177 0)
(5.01925 -0.238006 0)
(5.01929 -0.237751 0)
(5.01921 -0.237225 0)
(5.01906 -0.236261 0)
(5.01873 -0.234623 0)
(5.01805 -0.231741 0)
(5.01709 -0.228222 0)
(5.01531 -0.219313 0)
(5.01367 -0.21184 0)
(5.01019 -0.19299 0)
(5.00832 -0.179384 0)
(5.00348 -0.152405 0)
(5.00109 -0.134364 0)
(4.99622 -0.104755 0)
(4.99352 -0.0886567 0)
(4.98881 -0.0597525 0)
(4.98909 -0.0606608 0)
(4.9833 -0.0319331 0)
(4.98172 -0.0297545 0)
(4.98152 -0.0281084 0)
(4.98025 -0.0214365 0)
(4.98084 -0.0209876 0)
(4.98096 -0.0188175 0)
(4.98023 -0.0153276 0)
(4.97951 -0.0129272 0)
(4.97709 -0.00734973 0)
(4.97659 -0.00701367 0)
(4.97614 -0.00718334 0)
(4.97605 -0.00813173 0)
(4.9768 -0.00781008 0)
(4.97676 -0.00835282 0)
(4.97689 -0.00849361 0)
(4.97731 -0.00868364 0)
(4.97852 -0.00884913 0)
(4.97857 -0.00988242 0)
(4.97822 -0.00988463 0)
(4.97762 -0.00941347 0)
(4.97715 -0.00973767 0)
(4.97697 -0.00823565 0)
(4.97711 -0.00701266 0)
(4.97728 -0.00671345 0)
(4.97778 -0.00771698 0)
(4.97837 -0.0102431 0)
(4.97855 -0.0110501 0)
(4.97827 -0.0104659 0)
(4.97825 -0.00952344 0)
(4.97829 -0.00872292 0)
(4.97844 -0.00776949 0)
(4.9787 -0.00777512 0)
(4.97879 -0.00733887 0)
(4.97857 -0.00678409 0)
(4.97865 -0.00695144 0)
(4.97863 -0.007585 0)
(4.97873 -0.00873375 0)
(4.97868 -0.00863895 0)
(4.97867 -0.00834063 0)
(4.97861 -0.00849837 0)
(4.97856 -0.00845874 0)
(4.97854 -0.00815668 0)
(4.97856 -0.00780455 0)
(5.0208 -0.234153 0)
(5.02074 -0.234297 0)
(5.02072 -0.234394 0)
(5.02066 -0.234372 0)
(5.0206 -0.234309 0)
(5.0206 -0.234217 0)
(5.0206 -0.234187 0)
(5.02062 -0.234247 0)
(5.02051 -0.234468 0)
(5.0204 -0.234599 0)
(5.02037 -0.234769 0)
(5.02038 -0.234867 0)
(5.02032 -0.234804 0)
(5.02024 -0.234768 0)
(5.02004 -0.235058 0)
(5.01998 -0.235288 0)
(5.01995 -0.235196 0)
(5.02004 -0.235099 0)
(5.01995 -0.235269 0)
(5.01998 -0.235612 0)
(5.02007 -0.235702 0)
(5.02008 -0.235433 0)
(5.02003 -0.235309 0)
(5.01997 -0.235585 0)
(5.01997 -0.235568 0)
(5.02006 -0.235199 0)
(5.02038 -0.234951 0)
(5.02018 -0.235436 0)
(5.02026 -0.236092 0)
(5.02045 -0.236192 0)
(5.02062 -0.236203 0)
(5.02049 -0.236744 0)
(5.02046 -0.236957 0)
(5.02057 -0.236861 0)
(5.02062 -0.237052 0)
(5.02076 -0.237288 0)
(5.02098 -0.237529 0)
(5.02117 -0.237676 0)
(5.02118 -0.237724 0)
(5.0212 -0.237744 0)
(5.02121 -0.237796 0)
(5.02118 -0.238023 0)
(5.02109 -0.237994 0)
(5.02105 -0.237902 0)
(5.02105 -0.237637 0)
(5.02101 -0.237537 0)
(5.02095 -0.237442 0)
(5.02087 -0.237105 0)
(5.02071 -0.235906 0)
(5.02055 -0.234334 0)
(5.02 -0.230587 0)
(5.01902 -0.225662 0)
(5.01731 -0.215838 0)
(5.01451 -0.199899 0)
(5.01255 -0.187619 0)
(5.00646 -0.15243 0)
(5.00462 -0.137406 0)
(4.9985 -0.103808 0)
(4.99339 -0.0706737 0)
(4.99565 -0.0708768 0)
(4.98585 -0.0315448 0)
(4.98542 -0.0150813 0)
(4.98657 -0.0189404 0)
(4.9836 -0.00857944 0)
(4.98152 -0.000350734 0)
(4.98075 -0.00041164 0)
(4.97856 -0.00610494 0)
(4.97717 -0.0100874 0)
(4.97743 -0.0107088 0)
(4.9784 -0.00999932 0)
(4.97853 -0.00896577 0)
(4.97851 -0.00737259 0)
(4.97902 -0.00563355 0)
(4.97942 -0.00569661 0)
(4.9789 -0.00793947 0)
(4.97889 -0.00985915 0)
(4.97888 -0.0113226 0)
(4.97868 -0.0116586 0)
(4.97848 -0.0101157 0)
(4.97835 -0.00764532 0)
(4.97865 -0.00685112 0)
(4.97885 -0.007243 0)
(4.97916 -0.00821085 0)
(4.97961 -0.00949487 0)
(4.97993 -0.0101754 0)
(4.97968 -0.00965997 0)
(4.97961 -0.00916329 0)
(4.97977 -0.00873092 0)
(4.97985 -0.00855166 0)
(4.97989 -0.00825412 0)
(4.9797 -0.00786046 0)
(4.97952 -0.00716623 0)
(4.97984 -0.00755816 0)
(4.98 -0.00794791 0)
(4.98008 -0.00885686 0)
(4.9802 -0.00872567 0)
(4.98028 -0.00879745 0)
(4.98037 -0.00890135 0)
(4.98039 -0.00885103 0)
(4.98047 -0.00867341 0)
(5.02176 -0.237228 0)
(5.02174 -0.237221 0)
(5.02167 -0.237316 0)
(5.0216 -0.237374 0)
(5.02155 -0.237413 0)
(5.02155 -0.237516 0)
(5.02161 -0.237582 0)
(5.02165 -0.237615 0)
(5.02166 -0.23761 0)
(5.02167 -0.237604 0)
(5.02168 -0.237613 0)
(5.02169 -0.237627 0)
(5.02164 -0.237508 0)
(5.02162 -0.237255 0)
(5.02163 -0.237159 0)
(5.02162 -0.237234 0)
(5.02164 -0.237261 0)
(5.02165 -0.237314 0)
(5.02166 -0.237377 0)
(5.02162 -0.237268 0)
(5.02167 -0.237164 0)
(5.02166 -0.237183 0)
(5.02162 -0.2372 0)
(5.02156 -0.237347 0)
(5.02155 -0.237538 0)
(5.02151 -0.237508 0)
(5.02145 -0.237377 0)
(5.02142 -0.237489 0)
(5.0215 -0.237638 0)
(5.02164 -0.2377 0)
(5.02179 -0.23784 0)
(5.02185 -0.238043 0)
(5.02186 -0.238069 0)
(5.02187 -0.238033 0)
(5.0219 -0.238108 0)
(5.02198 -0.23822 0)
(5.02213 -0.238288 0)
(5.02227 -0.238316 0)
(5.02233 -0.238293 0)
(5.02234 -0.238233 0)
(5.02231 -0.238154 0)
(5.02223 -0.238119 0)
(5.02214 -0.238138 0)
(5.02206 -0.238046 0)
(5.02208 -0.23785 0)
(5.02227 -0.237587 0)
(5.02246 -0.23744 0)
(5.02262 -0.237402 0)
(5.02283 -0.237131 0)
(5.02325 -0.236275 0)
(5.0234 -0.235945 0)
(5.02346 -0.235699 0)
(5.02353 -0.235102 0)
(5.02347 -0.233708 0)
(5.02307 -0.23046 0)
(5.02221 -0.225471 0)
(5.02035 -0.21378 0)
(5.01797 -0.200683 0)
(5.01456 -0.180215 0)
(5.00916 -0.142485 0)
(5.00907 -0.140023 0)
(4.9993 -0.0882358 0)
(4.99667 -0.0691528 0)
(4.99446 -0.0576993 0)
(4.99364 -0.0445127 0)
(4.99313 -0.0357122 0)
(4.99216 -0.0321817 0)
(4.98848 -0.0266996 0)
(4.98562 -0.0180782 0)
(4.98512 -0.0139335 0)
(4.9822 -0.00718815 0)
(4.98195 -0.00601128 0)
(4.98134 -0.00712248 0)
(4.98094 -0.00863733 0)
(4.98075 -0.0110797 0)
(4.98078 -0.0114736 0)
(4.98073 -0.0111257 0)
(4.98084 -0.0107284 0)
(4.98131 -0.00912089 0)
(4.98095 -0.00851857 0)
(4.98061 -0.00847251 0)
(4.98018 -0.00889292 0)
(4.98026 -0.00897596 0)
(4.98057 -0.00894215 0)
(4.9812 -0.00890494 0)
(4.98115 -0.00911897 0)
(4.9811 -0.0091425 0)
(4.98094 -0.0092274 0)
(4.98079 -0.00903608 0)
(4.98081 -0.00867391 0)
(4.9809 -0.00826135 0)
(4.98074 -0.00777838 0)
(4.98089 -0.00774373 0)
(4.981 -0.00780875 0)
(4.98127 -0.00808024 0)
(4.98133 -0.00808968 0)
(4.98152 -0.00860197 0)
(4.98177 -0.00849239 0)
(4.98177 -0.00844146 0)
(4.98178 -0.00831068 0)
(5.02365 -0.23913 0)
(5.02365 -0.239142 0)
(5.02363 -0.239143 0)
(5.02362 -0.239165 0)
(5.02363 -0.239183 0)
(5.02363 -0.239186 0)
(5.02365 -0.239149 0)
(5.02365 -0.239018 0)
(5.02372 -0.239033 0)
(5.02386 -0.239207 0)
(5.02386 -0.239289 0)
(5.02383 -0.239314 0)
(5.02375 -0.239371 0)
(5.02366 -0.239407 0)
(5.02358 -0.239327 0)
(5.02353 -0.239306 0)
(5.02349 -0.239331 0)
(5.02347 -0.239353 0)
(5.02347 -0.239349 0)
(5.02338 -0.239279 0)
(5.02322 -0.23916 0)
(5.02325 -0.238937 0)
(5.0233 -0.238634 0)
(5.02328 -0.238552 0)
(5.02328 -0.238554 0)
(5.02326 -0.238544 0)
(5.02321 -0.238464 0)
(5.02311 -0.238508 0)
(5.02304 -0.238787 0)
(5.0231 -0.23907 0)
(5.02317 -0.239081 0)
(5.02325 -0.238823 0)
(5.02335 -0.238665 0)
(5.02342 -0.238669 0)
(5.02349 -0.23878 0)
(5.0236 -0.238919 0)
(5.02379 -0.238954 0)
(5.02404 -0.238862 0)
(5.02413 -0.238803 0)
(5.02426 -0.238647 0)
(5.0243 -0.238366 0)
(5.02421 -0.238218 0)
(5.02414 -0.23812 0)
(5.02415 -0.237956 0)
(5.02427 -0.237596 0)
(5.02446 -0.237038 0)
(5.02458 -0.236745 0)
(5.02471 -0.236687 0)
(5.02493 -0.236357 0)
(5.02523 -0.235512 0)
(5.02549 -0.234735 0)
(5.02556 -0.234598 0)
(5.0256 -0.234556 0)
(5.02571 -0.234639 0)
(5.02593 -0.234871 0)
(5.02619 -0.234757 0)
(5.02635 -0.234092 0)
(5.02619 -0.232077 0)
(5.02561 -0.228655 0)
(5.02416 -0.221477 0)
(5.02164 -0.206799 0)
(5.01798 -0.190079 0)
(5.01433 -0.166841 0)
(5.00725 -0.12028 0)
(5.00818 -0.115338 0)
(4.99854 -0.0633366 0)
(4.99966 -0.0434523 0)
(4.99475 -0.0138148 0)
(4.99647 -0.0165633 0)
(4.99039 0.0059691 0)
(4.98779 0.00462811 0)
(4.98545 -0.00351916 0)
(4.98349 -0.0102301 0)
(4.98315 -0.0119778 0)
(4.98321 -0.0119138 0)
(4.98333 -0.010695 0)
(4.98348 -0.00752987 0)
(4.9836 -0.00691988 0)
(4.98347 -0.00774357 0)
(4.98285 -0.00916556 0)
(4.98266 -0.010882 0)
(4.98204 -0.0099163 0)
(4.98214 -0.0092041 0)
(4.9824 -0.00793539 0)
(4.98213 -0.00763336 0)
(4.98261 -0.00876809 0)
(4.98261 -0.00927331 0)
(4.98251 -0.00951279 0)
(4.98258 -0.0091973 0)
(4.98272 -0.00880292 0)
(4.98274 -0.00850873 0)
(4.98272 -0.00837794 0)
(4.98236 -0.0080119 0)
(4.98231 -0.00782273 0)
(4.98247 -0.00782488 0)
(4.98254 -0.00802933 0)
(4.98271 -0.00855425 0)
(4.98287 -0.00866378 0)
(4.98287 -0.00869313 0)
(4.98273 -0.00874836 0)
(5.02536 -0.240743 0)
(5.02536 -0.240722 0)
(5.02535 -0.240683 0)
(5.0253 -0.240636 0)
(5.02535 -0.240715 0)
(5.02535 -0.240848 0)
(5.02531 -0.240902 0)
(5.02529 -0.240796 0)
(5.02544 -0.240623 0)
(5.0255 -0.24056 0)
(5.02551 -0.240379 0)
(5.02544 -0.240321 0)
(5.02535 -0.240227 0)
(5.02539 -0.239953 0)
(5.0253 -0.239747 0)
(5.02523 -0.239738 0)
(5.02522 -0.239951 0)
(5.0252 -0.240098 0)
(5.02524 -0.239963 0)
(5.02523 -0.23984 0)
(5.02523 -0.239826 0)
(5.02512 -0.239679 0)
(5.02501 -0.239514 0)
(5.02497 -0.239468 0)
(5.02493 -0.239439 0)
(5.0249 -0.239409 0)
(5.02488 -0.239403 0)
(5.02487 -0.239404 0)
(5.02487 -0.239424 0)
(5.02492 -0.239393 0)
(5.02497 -0.239318 0)
(5.02502 -0.239044 0)
(5.025 -0.238844 0)
(5.0252 -0.238581 0)
(5.0254 -0.23851 0)
(5.02555 -0.238487 0)
(5.02584 -0.238442 0)
(5.02601 -0.238353 0)
(5.02614 -0.238239 0)
(5.02633 -0.238016 0)
(5.02648 -0.237596 0)
(5.02642 -0.237387 0)
(5.02637 -0.23737 0)
(5.02636 -0.237334 0)
(5.02647 -0.236882 0)
(5.02649 -0.236342 0)
(5.02647 -0.236255 0)
(5.02648 -0.236371 0)
(5.02668 -0.236029 0)
(5.02703 -0.235057 0)
(5.02709 -0.234337 0)
(5.02705 -0.23395 0)
(5.02704 -0.233867 0)
(5.02702 -0.233839 0)
(5.02709 -0.233946 0)
(5.02726 -0.234315 0)
(5.0275 -0.234522 0)
(5.02777 -0.234668 0)
(5.02767 -0.234089 0)
(5.02747 -0.233355 0)
(5.02715 -0.231862 0)
(5.02654 -0.229042 0)
(5.02516 -0.222102 0)
(5.02382 -0.215768 0)
(5.01946 -0.189249 0)
(5.01637 -0.173752 0)
(5.01091 -0.136426 0)
(5.00825 -0.114675 0)
(5.00228 -0.0776055 0)
(5.00027 -0.0622816 0)
(5.00047 -0.0533937 0)
(4.99862 -0.0394014 0)
(4.99636 -0.0314296 0)
(4.99139 -0.020664 0)
(4.98966 -0.015366 0)
(4.98542 -0.00742507 0)
(4.98542 -0.00659427 0)
(4.98486 -0.00843232 0)
(4.98394 -0.0113494 0)
(4.98406 -0.0124799 0)
(4.98411 -0.0122079 0)
(4.98431 -0.0106821 0)
(4.98471 -0.00816724 0)
(4.98459 -0.00758644 0)
(4.98439 -0.00788546 0)
(4.98422 -0.0091646 0)
(4.98423 -0.00945102 0)
(4.98436 -0.00938597 0)
(4.98433 -0.00903702 0)
(4.98419 -0.00896466 0)
(4.98403 -0.00905062 0)
(4.98395 -0.00903009 0)
(4.98405 -0.00869259 0)
(4.98374 -0.00783771 0)
(4.98353 -0.00759115 0)
(4.98359 -0.00775542 0)
(4.98371 -0.00809352 0)
(4.98382 -0.00812527 0)
(4.98388 -0.00837859 0)
(4.98387 -0.00861927 0)
(5.02642 -0.241418 0)
(5.02642 -0.241422 0)
(5.02642 -0.241399 0)
(5.02643 -0.241362 0)
(5.02648 -0.241428 0)
(5.02657 -0.24148 0)
(5.02673 -0.24137 0)
(5.02677 -0.241353 0)
(5.02673 -0.241385 0)
(5.02668 -0.2414 0)
(5.02662 -0.241351 0)
(5.02661 -0.241081 0)
(5.02662 -0.240869 0)
(5.02663 -0.240725 0)
(5.02657 -0.240502 0)
(5.0265 -0.240415 0)
(5.02653 -0.240527 0)
(5.02656 -0.240773 0)
(5.02651 -0.240874 0)
(5.02654 -0.240681 0)
(5.0266 -0.240311 0)
(5.02656 -0.239987 0)
(5.02646 -0.239916 0)
(5.02636 -0.239842 0)
(5.02634 -0.239552 0)
(5.02634 -0.239195 0)
(5.0264 -0.23923 0)
(5.02641 -0.239493 0)
(5.02626 -0.239681 0)
(5.02632 -0.239402 0)
(5.02653 -0.238829 0)
(5.02649 -0.238569 0)
(5.02641 -0.23838 0)
(5.02655 -0.237867 0)
(5.02678 -0.237486 0)
(5.02689 -0.237407 0)
(5.02696 -0.237386 0)
(5.02702 -0.237363 0)
(5.02716 -0.237315 0)
(5.0273 -0.237119 0)
(5.0274 -0.236862 0)
(5.02743 -0.236718 0)
(5.02743 -0.236717 0)
(5.02745 -0.236704 0)
(5.02739 -0.236495 0)
(5.02735 -0.236407 0)
(5.02734 -0.23657 0)
(5.02728 -0.236799 0)
(5.02763 -0.236206 0)
(5.02787 -0.23541 0)
(5.02782 -0.234882 0)
(5.02769 -0.234399 0)
(5.02757 -0.234145 0)
(5.0275 -0.234045 0)
(5.02743 -0.233975 0)
(5.02748 -0.234176 0)
(5.02766 -0.234512 0)
(5.02789 -0.234693 0)
(5.02786 -0.234362 0)
(5.02782 -0.234229 0)
(5.02781 -0.234153 0)
(5.0276 -0.233714 0)
(5.02737 -0.233344 0)
(5.02698 -0.232577 0)
(5.02627 -0.230842 0)
(5.02511 -0.225441 0)
(5.02276 -0.213203 0)
(5.02009 -0.197218 0)
(5.01355 -0.162053 0)
(5.01049 -0.139821 0)
(5.00161 -0.0835804 0)
(5.00354 -0.0640471 0)
(4.99709 -0.0207645 0)
(4.9998 -0.0178585 0)
(4.99248 0.00841652 0)
(4.98864 0.00516317 0)
(4.98629 -0.00530154 0)
(4.98508 -0.0124243 0)
(4.98484 -0.0135736 0)
(4.98512 -0.0130151 0)
(4.98549 -0.010767 0)
(4.98626 -0.00652378 0)
(4.98607 -0.00667775 0)
(4.98549 -0.00831322 0)
(4.98552 -0.00913006 0)
(4.98508 -0.00924401 0)
(4.98495 -0.00896211 0)
(4.98507 -0.00836735 0)
(4.98504 -0.00854124 0)
(4.98487 -0.00885089 0)
(4.98473 -0.00945218 0)
(4.98444 -0.00926446 0)
(4.98467 -0.00874542 0)
(4.98468 -0.00821374 0)
(4.98452 -0.0077636 0)
(4.98439 -0.00777629 0)
(4.98441 -0.00786278 0)
(4.98459 -0.0081775 0)
(4.98463 -0.00874435 0)
(4.98477 -0.00914021 0)
(5.02659 -0.241346 0)
(5.0267 -0.241419 0)
(5.02677 -0.241561 0)
(5.02679 -0.241705 0)
(5.02688 -0.241666 0)
(5.02719 -0.241398 0)
(5.02726 -0.241372 0)
(5.02733 -0.241305 0)
(5.02731 -0.241034 0)
(5.02726 -0.240948 0)
(5.02722 -0.240976 0)
(5.02718 -0.24091 0)
(5.02734 -0.240612 0)
(5.02733 -0.240371 0)
(5.0273 -0.240353 0)
(5.02735 -0.24036 0)
(5.02748 -0.24027 0)
(5.02753 -0.240268 0)
(5.02747 -0.240317 0)
(5.02737 -0.240304 0)
(5.02722 -0.240187 0)
(5.02718 -0.239917 0)
(5.02723 -0.239638 0)
(5.02716 -0.239356 0)
(5.02704 -0.239232 0)
(5.02703 -0.23911 0)
(5.0271 -0.238989 0)
(5.02709 -0.239047 0)
(5.02702 -0.239062 0)
(5.02698 -0.238878 0)
(5.02697 -0.23863 0)
(5.027 -0.238327 0)
(5.02707 -0.237934 0)
(5.02713 -0.237512 0)
(5.02711 -0.237221 0)
(5.02705 -0.237039 0)
(5.02706 -0.236806 0)
(5.02714 -0.236566 0)
(5.02718 -0.236466 0)
(5.02727 -0.23625 0)
(5.02741 -0.235874 0)
(5.02756 -0.235737 0)
(5.0276 -0.235886 0)
(5.02759 -0.236037 0)
(5.02755 -0.236192 0)
(5.02753 -0.236507 0)
(5.02755 -0.236688 0)
(5.02752 -0.236822 0)
(5.02783 -0.236539 0)
(5.02796 -0.236095 0)
(5.02788 -0.235645 0)
(5.02772 -0.2349 0)
(5.02757 -0.234173 0)
(5.0275 -0.234015 0)
(5.02741 -0.233915 0)
(5.02737 -0.234094 0)
(5.02743 -0.234385 0)
(5.02751 -0.23466 0)
(5.02762 -0.234898 0)
(5.02777 -0.234768 0)
(5.02782 -0.234621 0)
(5.02774 -0.234313 0)
(5.02732 -0.234225 0)
(5.02705 -0.234242 0)
(5.02666 -0.234197 0)
(5.0263 -0.234114 0)
(5.02628 -0.233773 0)
(5.02595 -0.230828 0)
(5.02506 -0.226575 0)
(5.02185 -0.209601 0)
(5.01905 -0.196584 0)
(5.01202 -0.152689 0)
(5.01037 -0.136933 0)
(5.00324 -0.0859417 0)
(5.00286 -0.074294 0)
(5.00161 -0.0572464 0)
(4.99905 -0.0425251 0)
(4.99674 -0.0297257 0)
(4.99193 -0.0183059 0)
(4.98836 -0.0126761 0)
(4.98726 -0.00658794 0)
(4.98634 -0.00802379 0)
(4.98518 -0.00972507 0)
(4.9848 -0.011881 0)
(4.98495 -0.0114381 0)
(4.98504 -0.00994504 0)
(4.98527 -0.00806785 0)
(4.98529 -0.00786108 0)
(4.9852 -0.00855621 0)
(4.98505 -0.00986428 0)
(4.98508 -0.00995599 0)
(4.98496 -0.00940795 0)
(4.98502 -0.00866882 0)
(4.98502 -0.00839962 0)
(4.98496 -0.00825756 0)
(4.98473 -0.00791654 0)
(4.98467 -0.00772347 0)
(4.98488 -0.00800938 0)
(4.98498 -0.0083884 0)
(4.98497 -0.00909982 0)
(5.02642 -0.239562 0)
(5.02658 -0.239633 0)
(5.02683 -0.239668 0)
(5.02687 -0.23968 0)
(5.02693 -0.239698 0)
(5.02696 -0.239673 0)
(5.02698 -0.239673 0)
(5.02699 -0.239672 0)
(5.02704 -0.239628 0)
(5.02712 -0.239535 0)
(5.02718 -0.2395 0)
(5.02724 -0.23945 0)
(5.02735 -0.239339 0)
(5.02747 -0.239415 0)
(5.02759 -0.23944 0)
(5.02791 -0.239219 0)
(5.02795 -0.23901 0)
(5.02796 -0.239057 0)
(5.02782 -0.239223 0)
(5.02752 -0.239259 0)
(5.02745 -0.238921 0)
(5.02742 -0.238709 0)
(5.0274 -0.238556 0)
(5.02741 -0.238344 0)
(5.02741 -0.238134 0)
(5.02737 -0.237949 0)
(5.02729 -0.237951 0)
(5.02717 -0.238115 0)
(5.02706 -0.238194 0)
(5.02698 -0.238239 0)
(5.02696 -0.238183 0)
(5.027 -0.237975 0)
(5.02704 -0.237599 0)
(5.02701 -0.237213 0)
(5.02693 -0.237004 0)
(5.02682 -0.236891 0)
(5.02669 -0.236731 0)
(5.02661 -0.236506 0)
(5.02668 -0.236419 0)
(5.02673 -0.236402 0)
(5.02681 -0.236336 0)
(5.02694 -0.236308 0)
(5.02709 -0.236352 0)
(5.0272 -0.236393 0)
(5.02728 -0.236468 0)
(5.02737 -0.236722 0)
(5.02752 -0.237033 0)
(5.02764 -0.237129 0)
(5.02773 -0.2371 0)
(5.02783 -0.236949 0)
(5.0278 -0.236591 0)
(5.02767 -0.235947 0)
(5.02747 -0.235229 0)
(5.02738 -0.235028 0)
(5.02724 -0.235034 0)
(5.02719 -0.235123 0)
(5.02717 -0.235253 0)
(5.02708 -0.235465 0)
(5.02704 -0.235679 0)
(5.0274 -0.235988 0)
(5.02748 -0.2357 0)
(5.02752 -0.235497 0)
(5.02738 -0.235201 0)
(5.02696 -0.235073 0)
(5.02658 -0.235233 0)
(5.0261 -0.235449 0)
(5.02608 -0.235406 0)
(5.02644 -0.235416 0)
(5.02649 -0.234793 0)
(5.02618 -0.233857 0)
(5.02525 -0.230163 0)
(5.0232 -0.2216 0)
(5.02065 -0.207004 0)
(5.01407 -0.171263 0)
(5.01268 -0.151139 0)
(5.00208 -0.0793704 0)
(5.00601 -0.0688082 0)
(4.99678 -0.0130664 0)
(4.99629 -0.00872471 0)
(4.99191 0.0111897 0)
(4.9867 -0.00066214 0)
(4.98434 -0.0109115 0)
(4.98431 -0.0129875 0)
(4.98463 -0.0127645 0)
(4.98544 -0.0106232 0)
(4.98601 -0.00570589 0)
(4.98587 -0.00633897 0)
(4.98527 -0.00794973 0)
(4.98485 -0.00956413 0)
(4.98488 -0.00965632 0)
(4.98505 -0.00902946 0)
(4.98525 -0.00862533 0)
(4.98521 -0.00850143 0)
(4.98501 -0.00879268 0)
(4.98491 -0.0088298 0)
(4.98466 -0.00826423 0)
(4.98464 -0.00767592 0)
(4.9848 -0.00778108 0)
(4.98471 -0.00884284 0)
(4.98478 -0.00908877 0)
(5.02598 -0.236916 0)
(5.02605 -0.236934 0)