/*--------------------------------*- C++ -*----------------------------------*\
  =========                 |
  \\      /  F ield         | OpenFOAM: The Open Source CFD Toolbox
   \\    /   O peration     | Website:  https://openfoam.org
    \\  /    A nd           | Version:  7
     \\/     M anipulation  |
\*---------------------------------------------------------------------------*/
FoamFile
{
    version     2.0;
    format      ascii;
    class       volScalarField;
    location    "8.6";
    object      T;
}
// * * * * * * * * * * * * * * * * * * * * * * * * * * * * * * * * * * * * * //

dimensions      [0 0 0 1 0 0 0];

internalField   nonuniform List<scalar> 
1750
(
1.14072
1.28887
1.34503
1.38721
1.42295
1.40614
1.37826
1.34548
1.34284
1.33883
0.691071
0.804795
0.9854
1.09925
1.1988
1.26579
1.30044
1.32759
1.36084
1.35433
0.60939
0.617962
0.605779
0.619251
0.699646
0.834093
1.00516
1.15818
1.23147
1.28816
0.58985
0.606262
0.60963
0.59809
0.586191
0.586835
0.610474
0.744379
0.891793
1.09923
0.617277
0.620555
0.642691
0.670707
0.676935
0.676911
0.679444
0.691661
0.691063
0.787951
0.752685
0.731222
0.732706
0.74587
0.751529
0.750159
0.748032
0.742367
0.726832
0.729355
0.853338
0.850723
0.833906
0.809977
0.805527
0.802744
0.799232
0.798673
0.796086
0.790754
0.941083
0.936359
0.93162
0.920865
0.907303
0.886993
0.869422
0.870065
0.868487
0.854304
1.07251
1.03625
1.02631
1.01391
0.995615
0.97812
0.95406
0.936269
0.927897
0.909872
1.21497
1.18176
1.14718
1.11981
1.09006
1.06438
1.04252
1.01747
0.998895
0.97454
1.30367
1.29016
1.26637
1.24004
1.21107
1.17577
1.14264
1.11033
1.08219
1.04455
1.2975
1.29792
1.294
1.28795
1.28142
1.26762
1.24573
1.21807
1.18717
1.13693
1.19762
1.22108
1.23969
1.25902
1.26509
1.26374
1.26154
1.25812
1.25161
1.2244
1.03443
1.05882
1.0867
1.12127
1.15643
1.18669
1.20739
1.2263
1.23034
1.23489
1.00088
1.00218
1.00517
1.0111
1.02409
1.04619
1.07864
1.1218
1.16501
1.23839
0.772243
0.669794
0.588195
0.585655
0.641069
0.765232
0.854572
0.969861
1.10392
1.24057
1.31114
1.2895
1.15723
1.01856
1.00039
0.808524
0.658514
0.556051
0.598193
0.690153
0.790174
0.891044
1.02999
1.15117
1.28183
1.32037
1.27413
1.11632
1.00883
1.00013
0.812393
0.641005
0.54438
0.631475
0.710981
0.803753
0.925676
1.06215
1.18992
1.31352
1.32582
1.25811
1.08068
1.0037
1.00005
0.797272
0.618071
0.535028
0.646116
0.71911
0.83483
0.988848
1.10393
1.24669
1.33618
1.32798
1.22258
1.0396
1.00111
1.00001
0.785361
0.608211
0.530348
0.653706
0.748878
0.910337
1.03199
1.15237
1.29955
1.34657
1.32034
1.15418
1.0159
1.00033
1
0.777609
0.606408
0.586578
0.70345
0.830401
0.970725
1.08121
1.22209
1.3372
1.34985
1.27928
1.0974
1.00622
1.0001
1
0.741009
0.60088
0.648011
0.751922
0.890888
1.0125
1.13695
1.2827
1.35939
1.3486
1.23704
1.05297
1.00184
1.00002
1
0.731905
0.627329
0.661306
0.784489
0.932817
1.07369
1.22382
1.3356
1.36879
1.33097
1.17159
1.01876
1.00043
1.00001
1
0.72969
0.653665
0.672029
0.83339
1.0096
1.15943
1.29757
1.3702
1.37074
1.29506
1.08726
1.00479
1.00008
1
1
0.732185
0.659326
0.744599
0.973709
1.11697
1.24287
1.35368
1.38287
1.3575
1.20675
1.03203
1.00105
1.00001
1
1
0.623714
0.672766
0.892967
1.08189
1.2042
1.31314
1.38815
1.3856
1.31313
1.11899
1.00967
1.0002
1
1
1
0.418799
0.781928
1.03599
1.17868
1.29242
1.37284
1.39892
1.37695
1.24097
1.04429
1.00168
1.00003
1
1
1
0.405717
0.958785
1.15848
1.27489
1.36776
1.40499
1.40052
1.32699
1.11228
1.00823
1.00019
1
1
1
1
0.731109
1.11063
1.27857
1.35519
1.40839
1.41166
1.37482
1.19918
1.02819
1.00104
1.00002
1
1
1
1
1.11831
1.30222
1.36791
1.39701
1.42026
1.40875
1.28556
1.06262
1.00279
1.00005
1
1
1
1
1
1.40211
1.3987
1.39949
1.41285
1.42341
1.33766
1.10261
0.996131
0.999566
0.999993
1
1
1
1
1
1.39935
1.39862
1.39747
1.41157
1.42358
1.30045
1.06763
1.00229
1.00002
1
1
1
1
1
1
1.38837
1.40152
1.41395
1.41594
1.40527
1.19667
1.00996
1.00003
1
1
1
1
1
1
1
1.38021
1.40396
1.4307
1.42007
1.34308
1.0978
1.002
1.00001
1
1
1
1
1
1
1
1.37718
1.40762
1.44006
1.42594
1.26524
1.02789
1.00016
1
1
1
1
1
1
1
1
1.37939
1.41034
1.44344
1.38928
1.13053
1.00316
1.00001
1
1
1
1
1
1
1
1
1.40087
1.40795
1.43899
1.29001
1.04052
1.00029
1
1
1
1
1
1
1
1
1
1.44775
1.40675
1.39168
1.1572
1.00514
1.00001
1
1
1
1
1
1
1
1
1
1.49263
1.37681
1.28359
1.04316
1.00032
1
1
1
1
1
1
1
1
1
1
1.51082
1.33652
1.14405
1.00557
1.00002
1
1
1
1
1
1
1
1
1
1
1.49716
1.26221
1.04955
1.00057
1
1
1
1
1
1
1
1
1
1
1
1.42875
1.17409
1.01243
1.00006
1
1
1
1
1
1
1
1
1
1
1
1.34428
1.09085
1.00229
1.00001
1
1
1
1
1
1
1
1
1
1
1
1.22883
1.03147
1.00029
1
1
1
1
1
1
1
1
1
1
1
1
1.10311
1.00522
1.00002
1
1
1
1
1
1
1
1
1
1
1
1
1
1
1
1
1
1
1
1
1
1
1
1
1
1
1
1
1
1
1
1
1
1
1
1
1
1
1
1
1
1
1
1
1
1
1
1
1
1
1
1
1
1
1
1
1
1
1
1
1
1
1
1
1
1
1
1
1
1
1
1
1
1
1
1
1
1
1
1
1
1
1
1
1
1
1
1
1
1
1
1
1
1
1
1
1
1
1
1
1
1
1
1
1
1
1
1
1
1
1
1
1
1
1
1
1
1
1
1
1
1
1
1
1
1
1
1
1
1
1
1
1
1
1
1
1
1
1
1
1
1
1
1
1
1
1
1
1
1
1
1
1
1
1
1
1
1
1
1
1
1
1
1
1
1
1
1
1
1
1
1
1
1
1
1
1
1
1
1
1
1
1
1
1
1
1
1
1
1
1
1
1
1
1
1
1
1
1
1
1
1
1
1
1
1
1
1
1
1
1
1
1
1
1
1
1
1
1
1
1
1
1
1
1
1
1
1
1
1
1
1
1
1
1
1
1
1
1
1
1
1
1
1
1
1
1
1
1
1
1
1
1
1
1
1
1
1
1
1
1
1
1
1
1
1
1
1
1
1
1
1
1
1
1
1
1
1
1
1
1
1
1
1
1
1
1
1
1
1
1
1
1
1
1
1
1
1
1
1
1
1
1
1
1
1
1
1
1
1
1
1
1
1
1
1
1
1
1
1
1
1
1
1
1
1
1
1
1
1
1
1
1
1
1
1
1
1
1
1
1
1
1
1
1
1
1
1
1
1
1
1
1
1
1
1
1
1
1
1
1
1
1.19537
1.00486
1
1
1
1
1
1
1
1
1
1
1
1
1
1
1
1
1
1
1.41577
1.07982
0.999777
1
1
1
1
1
1
1
1
1
1
1
1
1
1
1
1
1
1.6288
1.24237
1.0049
0.999986
1
1
1
1
1
1
1
1
1
1
1
1
1
1
1
1
1.74361
1.48026
1.1517
1.0003
1
1
1
1
1
1
1
1
1
1
1
1
1
1
1
1
1.7193
1.58705
1.47699
1.08913
0.999886
1
1
1
1
1
1
1
1
1
1
1
1
1
1
1
1.64928
1.6301
1.65597
1.42931
1.04052
0.999911
0.999999
1
1
1
1
1
1
1
1
1
1
1
1
1
1.58294
1.61444
1.65974
1.615
1.29289
1.00878
0.999978
0.999999
1
1
1
1
1
1
1
1
1
1
1
1
1.58006
1.60259
1.64603
1.64648
1.52354
1.13139
1.00031
1
1
1
1
1
1
1
1
1
1
1
1
1
1.58792
1.6013
1.62404
1.64333
1.65017
1.40539
1.03804
0.999952
0.999999
1
1
1
1
1
1
1
1
1
1
1
1.59902
1.6018
1.6124
1.63594
1.64985
1.55426
1.23058
1.00499
0.999992
1
1
1
1
1
1
1
1
1
1
1
1.59987
1.60326
1.61344
1.63115
1.6463
1.63239
1.45331
1.07319
1.00008
1
1
1
1
1
1
1
1
1
1
1
1.60012
1.60458
1.61651
1.63199
1.644
1.64026
1.57303
1.27666
1.01093
0.999995
1
1
1
1
1
1
1
1
1
1
1.60238
1.60789
1.61977
1.63184
1.64035
1.63856
1.59883
1.44855
1.09472
1.00027
1
1
1
1
1
1
1
1
1
1
1.60674
1.61078
1.6194
1.63026
1.63642
1.63787
1.61996
1.5841
1.29437
1.02166
1.00024
1
1
1
1
1
1
1
1
1
1.61289
1.61428
1.62272
1.63292
1.63813
1.64025
1.63336
1.60063
1.43844
1.05937
0.994874
0.999691
0.999997
1
1
1
1
1
1
1
1.23825
1.45888
1.53858
1.58623
1.61638
1.63354
1.63379
1.61977
1.5935
1.41697
1.11473
1.00665
1.00013
1
1
1
1
1
1
1
0.759298
1.2498
1.39635
1.47438
1.54302
1.59243
1.61871
1.61334
1.63076
1.57495
1.3866
1.09496
1.00509
1.0001
1
1
1
1
1
1
0.761275
1.05138
1.22564
1.34089
1.42633
1.50809
1.56294
1.59117
1.62367
1.61546
1.56399
1.32787
1.0592
1.00222
1.00004
1
1
1
1
1
0.828572
0.904153
1.02979
1.19021
1.3051
1.39896
1.48184
1.53723
1.58976
1.61004
1.60368
1.52261
1.24546
1.02949
1.00082
1.00001
1
1
1
1
0.990567
0.891785
0.896438
1.00215
1.17413
1.28809
1.38807
1.46362
1.53199
1.57699
1.59683
1.59012
1.45299
1.15079
1.0099
1.00018
1
1
1
1
1.03932
0.868863
0.832536
0.910065
1.02933
1.16888
1.28264
1.38543
1.4539
1.52036
1.56732
1.58787
1.56915
1.36029
1.07045
1.00247
1.00003
1
1
1
1.06779
0.869907
0.782361
0.884977
0.960538
1.07723
1.18499
1.30135
1.3795
1.45014
1.511
1.57222
1.57187
1.50161
1.22337
1.01963
1.00036
1
1
1
1.05735
0.874426
0.763809
0.843282
0.910494
1.01388
1.1133
1.2054
1.31091
1.38251
1.45485
1.52639
1.56533
1.55277
1.39182
1.09688
1.00383
1.00004
1
1
1.01691
0.876633
0.780524
0.806394
0.868874
0.951365
1.05911
1.14491
1.24599
1.32355
1.40243
1.47586
1.54418
1.5505
1.47935
1.22327
1.01989
1.00035
1
1
0.974478
0.886358
0.819587
0.791329
0.826789
0.889786
0.996221
1.09762
1.1655
1.26345
1.33964
1.42312
1.50041
1.54127
1.52599
1.36894
1.08021
1.00245
1.00003
1
0.957746
0.904786
0.848567
0.794355
0.79407
0.856899
0.93462
1.05378
1.12875
1.21712
1.28438
1.36383
1.44292
1.51526
1.52566
1.44062
1.1912
1.01382
1.00019
1
0.959372
0.929404
0.863517
0.791322
0.776016
0.838809
0.887987
0.999532
1.09778
1.16611
1.24964
1.31389
1.39828
1.47843
1.52016
1.48684
1.29554
1.04989
1.00119
1.00001
0.965864
0.938428
0.861891
0.783032
0.76052
0.814349
0.861732
0.941826
1.06088
1.12722
1.21625
1.27999
1.3528
1.43395
1.50486
1.50046
1.3896
1.1178
1.00514
1.00006
0.966041
0.933847
0.857569
0.783732
0.758779
0.785115
0.846481
0.908532
1.01265
1.08685
1.16292
1.24394
1.30195
1.37924
1.4705
1.49821
1.45526
1.23348
1.02207
1.00034
0.956054
0.928586
0.862193
0.790656
0.763947
0.780274
0.823669
0.882817
0.953174
1.04737
1.10973
1.2027
1.27102
1.34242
1.42509
1.48731
1.47159
1.32353
1.07005
1.00195
1.0431
0.888162
0.835105
0.793872
0.782935
0.783162
0.81081
0.889816
0.946694
1.03368
1.09913
1.16836
1.24848
1.32018
1.39447
1.46869
1.46715
1.37014
1.12441
1.00563
1.13725
0.902394
0.829058
0.799423
0.787365
0.782036
0.800456
0.890533
0.942724
1.0059
1.0887
1.14686
1.22102
1.28969
1.36146
1.44102
1.46184
1.41551
1.2001
1.01747
1.19867
0.944594
0.826454
0.797937
0.784044
0.776645
0.795509
0.883572
0.940486
0.985231
1.06598
1.12986
1.19151
1.25945
1.32811
1.40615
1.4542
1.43423
1.27889
1.0517
1.27109
1.03069
0.837428
0.789905
0.773346
0.765873
0.795619
0.864469
0.932891
0.981041
1.03035
1.10955
1.17059
1.23173
1.29619
1.37092
1.43615
1.43169
1.33724
1.11668
1.32829
1.09029
0.85974
0.77684
0.766153
0.761992
0.798889
0.847515
0.908224
0.976082
1.02162
1.08165
1.14767
1.20736
1.26551
1.33188
1.40885
1.42755
1.37789
1.20913
1.34435
1.16397
0.956093
0.783146
0.767172
0.765179
0.806055
0.839821
0.874898
0.959222
1.0138
1.06271
1.12162
1.18277
1.24124
1.29976
1.37619
1.42154
1.39181
1.31128
1.33628
1.22239
1.05808
0.836684
0.769573
0.774722
0.807689
0.833477
0.865916
0.935518
0.995306
1.04674
1.09987
1.15709
1.21505
1.2706
1.33734
1.40288
1.40046
1.40942
1.3075
1.23081
1.1104
0.968347
0.790747
0.775304
0.807043
0.828927
0.869702
0.924964
0.970332
1.02262
1.07842
1.13459
1.18742
1.24087
1.29882
1.3692
1.42297
1.48972
1.29147
1.22892
1.15155
1.05923
0.85315
0.775455
0.803826
0.826324
0.873561
0.914919
0.955369
1.00592
1.05667
1.1135
1.16567
1.21465
1.26336
1.33185
1.43428
1.56249
1.29611
1.2318
1.18033
1.12004
1.02304
0.837485
0.803835
0.822542
0.867773
0.89694
0.937134
0.985021
1.02686
1.07861
1.12943
1.17608
1.22203
1.30879
1.46526
1.65073
)
;

boundaryField
{
    inlet
    {
        type            fixedValue;
        value           uniform 1;
    }
    outlet
    {
        type            inletOutlet;
        inletValue      uniform 1;
        value           nonuniform List<scalar> 
35
(
1.2961
1.23181
1.18015
1.11991
1.02289
0.837421
0.803831
0.822529
0.867826
0.897004
0.937216
0.985181
1.02688
1.07849
1.12941
1.17609
1.22204
1.30881
1.46526
1.65075
1.3389
1.35433
1.2882
1.09933
0.787901
0.729241
0.790461
0.854077
0.909888
0.974599
1.04458
1.1369
1.22436
1.23487
1.23838
)
;
    }
    airfoil
    {
        type            zeroGradient;
    }
    top
    {
        type            symmetryPlane;
    }
    bottom
    {
        type            symmetryPlane;
    }
    defaultFaces
    {
        type            empty;
    }
}


// ************************************************************************* //
