/*--------------------------------*- C++ -*----------------------------------*\
  =========                 |
  \\      /  F ield         | OpenFOAM: The Open Source CFD Toolbox
   \\    /   O peration     | Website:  https://openfoam.org
    \\  /    A nd           | Version:  7
     \\/     M anipulation  |
\*---------------------------------------------------------------------------*/
FoamFile
{
    version     2.0;
    format      ascii;
    class       volScalarField;
    location    "2.5";
    object      p;
}
// * * * * * * * * * * * * * * * * * * * * * * * * * * * * * * * * * * * * * //

dimensions      [1 -1 -2 0 0 0 0];

internalField   nonuniform List<scalar> 
90000
(
0.752014
0.759887
0.768095
0.77635
0.784713
0.793022
0.800301
0.807685
0.814589
0.821314
0.827472
0.833843
0.840068
0.847645
0.855838
0.865641
0.875753
0.886957
0.897832
0.908917
0.919415
0.929279
0.938399
0.94689
0.953298
0.960523
0.964409
0.967204
0.970661
0.97122
0.971149
0.970689
0.969657
0.966915
0.961118
0.952952
0.945403
0.940225
0.937302
0.937841
0.9393
0.941418
0.94403
0.94609
0.946727
0.947077
0.946841
0.946134
0.943928
0.94134
0.938957
0.937399
0.937055
0.937686
0.939596
0.940746
0.941917
0.943412
0.94312
0.942478
0.940708
0.938978
0.939025
0.93966
0.940302
0.940958
0.940678
0.939484
0.937925
0.937271
0.937528
0.938462
0.9384
0.937795
0.936466
0.935896
0.936292
0.936879
0.936627
0.935741
0.935037
0.935003
0.935545
0.935795
0.935766
0.935778
0.935912
0.935917
0.936032
0.936508
0.937534
0.939322
0.943923
0.955661
0.97764
1.00324
1.0252
1.03926
1.04443
1.05143
0.746455
0.747194
0.748666
0.750681
0.753413
0.756935
0.761006
0.765532
0.770711
0.77639
0.782418
0.788907
0.795635
0.802462
0.809333
0.816753
0.82442
0.832889
0.841875
0.851186
0.861378
0.871564
0.881842
0.892681
0.902588
0.912826
0.921744
0.930888
0.93853
0.943839
0.949526
0.954495
0.95636
0.956317
0.957997
0.961314
0.961278
0.959551
0.955612
0.951015
0.946404
0.942879
0.940489
0.939414
0.939453
0.94013
0.941594
0.943035
0.944601
0.945728
0.945266
0.943814
0.941201
0.938637
0.936374
0.936676
0.93816
0.940729
0.942926
0.94419
0.943369
0.941169
0.939263
0.937721
0.938401
0.939728
0.940951
0.940458
0.939084
0.937446
0.936662
0.936912
0.937439
0.937529
0.936977
0.936313
0.93627
0.936365
0.936276
0.935889
0.93533
0.935137
0.935336
0.935391
0.93553
0.935651
0.935809
0.935992
0.936138
0.936539
0.937445
0.939301
0.943935
0.955636
0.977491
1.00295
1.02549
1.03913
1.04408
1.05106
0.746177
0.746131
0.746089
0.746061
0.746086
0.746182
0.746389
0.746748
0.7473
0.748111
0.749207
0.7507
0.752618
0.755023
0.75788
0.761263
0.765195
0.76981
0.775077
0.781287
0.788132
0.796309
0.805072
0.815294
0.826194
0.838058
0.851239
0.864103
0.87777
0.892337
0.905212
0.916784
0.929879
0.939019
0.946917
0.953034
0.954771
0.95552
0.955796
0.955213
0.953745
0.951397
0.9475
0.943843
0.941541
0.941139
0.941595
0.942334
0.943339
0.944029
0.944365
0.943868
0.942396
0.940132
0.937306
0.936663
0.937289
0.938622
0.940526
0.941963
0.942744
0.942097
0.940626
0.939052
0.93875
0.939341
0.940013
0.940279
0.939822
0.938456
0.93725
0.937253
0.937229
0.937506
0.93741
0.936795
0.936294
0.936038
0.936181
0.936082
0.935624
0.935201
0.935257
0.93547
0.93567
0.935714
0.935872
0.936037
0.93617
0.936562
0.937468
0.939301
0.943894
0.955568
0.977432
1.00274
1.02563
1.03885
1.04381
1.05096
0.746075
0.746018
0.745957
0.745895
0.745816
0.745735
0.745657
0.745608
0.745559
0.745497
0.745449
0.745413
0.745384
0.745448
0.745596
0.745873
0.746311
0.746947
0.747829
0.749076
0.75069
0.752931
0.755866
0.759571
0.764526
0.770498
0.778137
0.787282
0.798285
0.810409
0.825501
0.840746
0.857056
0.874625
0.891382
0.906749
0.918382
0.930523
0.937143
0.941571
0.945635
0.946027
0.946816
0.947601
0.947892
0.948057
0.947578
0.946597
0.94507
0.943057
0.941656
0.940535
0.940324
0.94038
0.940187
0.939661
0.939154
0.938484
0.938614
0.939092
0.940122
0.941282
0.942452
0.941853
0.940259
0.938632
0.938195
0.938653
0.939551
0.939481
0.938464
0.937112
0.936409
0.936545
0.937005
0.936868
0.936365
0.935904
0.935859
0.936043
0.935698
0.935315
0.935262
0.935189
0.935211
0.93542
0.935729
0.935984
0.936195
0.936554
0.937316
0.939072
0.943723
0.955512
0.977193
1.00256
1.02579
1.03882
1.04366
1.0507
0.745855
0.745815
0.745773
0.745724
0.745672
0.745613
0.745549
0.74547
0.745377
0.745282
0.74519
0.745101
0.745025
0.744919
0.744813
0.74472
0.744635
0.74456
0.744493
0.744411
0.744372
0.744369
0.744462
0.744755
0.745263
0.746107
0.747414
0.749327
0.752246
0.756253
0.761805
0.769685
0.778991
0.792254
0.806604
0.824427
0.844103
0.863531
0.884096
0.901126
0.918162
0.92841
0.938816
0.944187
0.945212
0.945635
0.946132
0.945894
0.944277
0.94184
0.940381
0.940488
0.941346
0.942424
0.942325
0.941701
0.940265
0.938823
0.937657
0.937412
0.937941
0.939366
0.940856
0.941447
0.941364
0.940318
0.938813
0.93844
0.938748
0.939188
0.938975
0.937958
0.936813
0.936621
0.9369
0.937082
0.936669
0.935948
0.935777
0.935974
0.935983
0.935681
0.935479
0.935285
0.935108
0.935391
0.935799
0.936106
0.936272
0.936578
0.937363
0.939157
0.943878
0.955648
0.977153
1.00245
1.02581
1.03897
1.04357
1.0506
0.745635
0.745592
0.745549
0.745497
0.745447
0.745397
0.745345
0.745288
0.745226
0.745159
0.745086
0.745007
0.744924
0.744837
0.744743
0.744631
0.744512
0.744397
0.744281
0.744171
0.744081
0.743994
0.743929
0.743817
0.743705
0.743586
0.743482
0.743434
0.743446
0.743576
0.743985
0.744873
0.746398
0.749088
0.753178
0.759581
0.768875
0.781148
0.797838
0.816939
0.838575
0.861563
0.883227
0.901777
0.915861
0.923659
0.933647
0.936285
0.936321
0.936686
0.93964
0.942472
0.94447
0.944682
0.943949
0.942407
0.940617
0.939499
0.938512
0.938046
0.938261
0.938667
0.939123
0.939483
0.939629
0.939492
0.939678
0.939483
0.938952
0.938755
0.938309
0.937882
0.937199
0.936729
0.936592
0.936478
0.936563
0.936368
0.936073
0.935774
0.93555
0.935266
0.935376
0.935294
0.934966
0.93516
0.935595
0.935944
0.936142
0.936472
0.937229
0.938955
0.943682
0.955461
0.976803
1.00245
1.02576
1.03945
1.04341
1.05038
0.745406
0.745364
0.745313
0.74526
0.745206
0.745155
0.745101
0.745044
0.744979
0.744914
0.744848
0.744779
0.744707
0.744632
0.744552
0.744468
0.744378
0.744283
0.744186
0.744082
0.743978
0.743874
0.743762
0.743641
0.743521
0.743407
0.743293
0.743199
0.743103
0.743063
0.742919
0.742749
0.742591
0.742426
0.742466
0.742791
0.743655
0.745602
0.749004
0.755278
0.764412
0.778898
0.796512
0.818826
0.844835
0.867555
0.889779
0.907292
0.924227
0.932624
0.938282
0.939796
0.941983
0.94227
0.941372
0.938534
0.938574
0.939369
0.940986
0.941249
0.940688
0.939295
0.938078
0.937329
0.93767
0.93835
0.939274
0.939425
0.939343
0.938836
0.938043
0.937955
0.937703
0.937232
0.936655
0.936063
0.936136
0.936435
0.936576
0.936216
0.935751
0.935454
0.935615
0.93552
0.935129
0.935201
0.935623
0.935976
0.936141
0.936466
0.937221
0.938844
0.943419
0.955258
0.97646
1.00249
1.02572
1.04008
1.04339
1.05024
0.745276
0.745223
0.745173
0.745122
0.745067
0.745007
0.744947
0.744886
0.744821
0.744752
0.744683
0.744612
0.74454
0.744464
0.744382
0.744298
0.74421
0.744122
0.744034
0.743938
0.74384
0.743747
0.743652
0.743549
0.743442
0.743334
0.743227
0.74311
0.742986
0.742851
0.742722
0.742586
0.742437
0.742277
0.742157
0.741925
0.741662
0.741434
0.741238
0.74135
0.741987
0.743857
0.747522
0.755018
0.765831
0.783728
0.805443
0.830173
0.857029
0.881173
0.903415
0.913014
0.923291
0.928827
0.932226
0.935042
0.939688
0.943213
0.944291
0.943745
0.942248
0.940016
0.937864
0.936677
0.936799
0.937363
0.938546
0.938714
0.938664
0.938173
0.938018
0.938072
0.937958
0.93748
0.936737
0.936114
0.936122
0.936326
0.936338
0.935965
0.935518
0.935191
0.935449
0.935613
0.935222
0.935114
0.9354
0.935799
0.936055
0.936374
0.937173
0.93889
0.943726
0.955387
0.976435
1.00254
1.02587
1.04063
1.04348
1.05012
0.745156
0.745101
0.745048
0.744994
0.744943
0.744887
0.744823
0.744759
0.744691
0.744621
0.744552
0.744485
0.744418
0.744344
0.744262
0.74418
0.744107
0.744035
0.743958
0.743873
0.743781
0.743695
0.743615
0.743526
0.743426
0.743327
0.743233
0.743132
0.743021
0.742893
0.742761
0.742611
0.742455
0.742283
0.7421
0.741919
0.741725
0.741494
0.741252
0.741059
0.740724
0.740389
0.740041
0.740234
0.741093
0.743735
0.748845
0.759695
0.774904
0.798067
0.824391
0.852576
0.880073
0.899631
0.919496
0.930304
0.936955
0.939712
0.941767
0.940866
0.93834
0.93786
0.938322
0.938661
0.938878
0.938414
0.937572
0.936883
0.937189
0.937554
0.938148
0.938232
0.937805
0.937068
0.936572
0.936416
0.936485
0.936355
0.936092
0.935742
0.935402
0.93507
0.935352
0.93567
0.935362
0.935169
0.935247
0.935505
0.935805
0.936274
0.937116
0.938775
0.943413
0.95476
0.976005
1.00245
1.02626
1.04081
1.04344
1.05002
0.744954
0.744903
0.744847
0.744794
0.74474
0.744685
0.744629
0.744568
0.744503
0.744441
0.744374
0.7443
0.744244
0.744182
0.744113
0.744042
0.743971
0.743913
0.743855
0.743787
0.743686
0.743619
0.743577
0.743522
0.743443
0.743347
0.743276
0.743208
0.743119
0.743016
0.742906
0.742785
0.742649
0.742492
0.742307
0.742102
0.741876
0.741616
0.741336
0.741027
0.740723
0.740405
0.740075
0.739641
0.739254
0.738779
0.738705
0.739324
0.741229
0.746624
0.755836
0.773445
0.795778
0.824864
0.855202
0.879947
0.903695
0.914017
0.92562
0.929094
0.934712
0.938684
0.942148
0.941905
0.940862
0.938777
0.936214
0.935456
0.935871
0.937163
0.938236
0.937968
0.937173
0.936522
0.93652
0.936813
0.936707
0.936185
0.935804
0.935618
0.935576
0.935311
0.935481
0.9358
0.935599
0.935356
0.935314
0.935412
0.935656
0.936141
0.936981
0.938606
0.942979
0.954177
0.975332
1.00193
1.0271
1.04082
1.04332
1.04998
0.744794
0.744744
0.744688
0.744629
0.744574
0.744519
0.744467
0.74441
0.744351
0.744291
0.74423
0.744162
0.744103
0.744051
0.743986
0.743924
0.743862
0.743812
0.74377
0.74371
0.743631
0.743595
0.743587
0.743561
0.743489
0.743392
0.743355
0.743331
0.743265
0.743161
0.743059
0.742956
0.742836
0.74269
0.74251
0.742305
0.742074
0.741819
0.741531
0.741204
0.740845
0.740476
0.740093
0.739674
0.739281
0.738877
0.738561
0.73817
0.73775
0.737645
0.738159
0.740429
0.745507
0.757373
0.774544
0.801735
0.831989
0.862462
0.89183
0.911284
0.929542
0.934959
0.939444
0.93913
0.936738
0.935506
0.935734
0.936429
0.937505
0.937598
0.937562
0.936587
0.935956
0.936283
0.936829
0.936964
0.936571
0.935912
0.93559
0.935646
0.93555
0.935316
0.935562
0.935925
0.935802
0.935422
0.935323
0.935413
0.935601
0.935977
0.936732
0.938431
0.942814
0.953925
0.974748
1.00154
1.02767
1.04047
1.04321
1.05015
0.744782
0.74473
0.744679
0.744627
0.744573
0.744516
0.744455
0.744397
0.744343
0.744284
0.744225
0.744163
0.744101
0.744049
0.743984
0.743904
0.743874
0.743871
0.743859
0.743798
0.743737
0.743714
0.743717
0.743716
0.743635
0.743535
0.743512
0.743514
0.743466
0.743346
0.743211
0.743086
0.742962
0.742813
0.742634
0.742429
0.742203
0.741954
0.741676
0.741359
0.741009
0.74062
0.740205
0.739756
0.739321
0.738926
0.73851
0.738167
0.737863
0.737635
0.737261
0.736878
0.736871
0.737683
0.740201
0.747484
0.760031
0.78352
0.811617
0.843959
0.876878
0.896535
0.916177
0.922346
0.9264
0.934312
0.937829
0.939387
0.938978
0.937613
0.935921
0.935014
0.935776
0.936753
0.936811
0.936524
0.936036
0.93579
0.935986
0.93594
0.935254
0.934921
0.935476
0.936042
0.935956
0.935368
0.935259
0.935418
0.935576
0.935791
0.936429
0.938161
0.942625
0.953645
0.974235
1.00123
1.02752
1.04
1.04319
1.05057
0.744951
0.744908
0.744865
0.744817
0.744763
0.744704
0.744644
0.744585
0.744527
0.74447
0.744411
0.74435
0.744295
0.744252
0.7442
0.744145
0.744121
0.744114
0.744113
0.744068
0.743986
0.743943
0.743925
0.743931
0.743895
0.743764
0.743692
0.743675
0.743635
0.743525
0.743369
0.743212
0.743066
0.742909
0.742728
0.742523
0.742297
0.742056
0.741779
0.741473
0.741142
0.740766
0.740353
0.739929
0.739483
0.739067
0.738647
0.738262
0.737927
0.737604
0.737311
0.737034
0.736857
0.736513
0.736063
0.736321
0.737581
0.742117
0.751008
0.770142
0.795134
0.829482
0.863898
0.892836
0.915107
0.930508
0.933789
0.936684
0.935451
0.932949
0.933777
0.935573
0.937016
0.936646
0.935971
0.93509
0.935068
0.935936
0.936488
0.935884
0.93493
0.934727
0.935361
0.936036
0.935844
0.93528
0.935341
0.93552
0.935585
0.935648
0.936194
0.937897
0.942369
0.953252
0.973829
1.00096
1.02716
1.0393
1.04323
1.05129
0.745134
0.745087
0.745036
0.744985
0.744932
0.744875
0.74482
0.744766
0.74471
0.744658
0.744592
0.744524
0.744496
0.744482
0.744462
0.744429
0.744398
0.744381
0.744374
0.744334
0.744234
0.744174
0.744149
0.744149
0.744131
0.744039
0.743865
0.743785
0.74375
0.74367
0.743524
0.74335
0.74318
0.743015
0.74284
0.742641
0.742426
0.742196
0.741927
0.741633
0.741321
0.740946
0.740533
0.740116
0.739676
0.739231
0.738828
0.738425
0.738071
0.737731
0.737434
0.737153
0.73689
0.736585
0.73625
0.735818
0.735503
0.735476
0.736059
0.738669
0.744846
0.760367
0.782873
0.817316
0.851333
0.885184
0.901184
0.918221
0.922186
0.928976
0.935672
0.937909
0.937479
0.935818
0.93381
0.933568
0.935162
0.936494
0.936045
0.935282
0.934834
0.935221
0.935563
0.935982
0.935575
0.935247
0.935522
0.935664
0.935604
0.935604
0.936075
0.937685
0.942073
0.952778
0.973435
1.00078
1.02667
1.03859
1.04304
1.05123
0.745219
0.745173
0.745124
0.745077
0.745015
0.74493
0.744895
0.744868
0.744831
0.744795
0.744754
0.744703
0.744673
0.744654
0.744639
0.744626
0.744604
0.744583
0.744561
0.744517
0.744416
0.744287
0.744244
0.744236
0.744229
0.744175
0.74402
0.743827
0.743761
0.743705
0.743591
0.743424
0.743258
0.743112
0.742958
0.74277
0.742561
0.742338
0.742085
0.741817
0.741523
0.741158
0.740761
0.740366
0.739944
0.739514
0.739104
0.738712
0.738318
0.737959
0.737644
0.73736
0.737066
0.736724
0.736325
0.735918
0.73556
0.735398
0.735143
0.734687
0.734869
0.736321
0.74098
0.753316
0.77573
0.806666
0.844577
0.881453
0.904959
0.925227
0.931633
0.935517
0.934037
0.931541
0.932
0.934271
0.935461
0.935621
0.934883
0.934482
0.935343
0.93569
0.9357
0.935767
0.935244
0.935237
0.935563
0.935708
0.935609
0.935632
0.936033
0.937464
0.941706
0.952198
0.972924
1.00064
1.02635
1.03799
1.0425
1.05092
0.745291
0.745246
0.745196
0.745142
0.745093
0.745036
0.744989
0.744974
0.74497
0.744962
0.744938
0.744901
0.744853
0.744798
0.744769
0.744752
0.744743
0.744745
0.744731
0.744681
0.744581
0.744389
0.744272
0.744251
0.744249
0.744221
0.744119
0.743923
0.74374
0.743653
0.743572
0.743446
0.743292
0.743179
0.743053
0.742886
0.742686
0.742482
0.742269
0.74204
0.741771
0.741433
0.741068
0.740691
0.740286
0.739875
0.739452
0.739029
0.738606
0.738198
0.737861
0.737548
0.737201
0.736798
0.736364
0.735942
0.735574
0.735335
0.735103
0.734821
0.734322
0.733858
0.733687
0.734588
0.738465
0.748263
0.770429
0.79985
0.837997
0.876402
0.895724
0.915764
0.921237
0.928695
0.934662
0.935917
0.935148
0.933578
0.933223
0.934855
0.936193
0.935839
0.935557
0.935194
0.935032
0.935282
0.935454
0.935557
0.935592
0.935756
0.936097
0.937319
0.941329
0.951537
0.972192
1.00074
1.02619
1.03753
1.04205
1.0505
0.745354
0.745325
0.745292
0.745234
0.745172
0.745154
0.745149
0.745147
0.745143
0.745137
0.74514
0.745127
0.745085
0.745016
0.744947
0.74492
0.74491
0.74491
0.744908
0.744874
0.744777
0.744579
0.744333
0.744267
0.744253
0.744229
0.744152
0.744005
0.743789
0.743575
0.74351
0.743442
0.743282
0.743163
0.74308
0.742951
0.742766
0.742564
0.742363
0.742154
0.7419
0.741586
0.741255
0.740905
0.740527
0.740147
0.739743
0.739326
0.738894
0.738428
0.738002
0.737627
0.737251
0.736831
0.736399
0.735997
0.735613
0.735348
0.73513
0.734835
0.734431
0.734009
0.733699
0.733241
0.732767
0.733323
0.736665
0.745105
0.766417
0.79653
0.835838
0.875754
0.903699
0.923947
0.930157
0.932677
0.930014
0.930221
0.93332
0.936037
0.935929
0.935235
0.935045
0.934904
0.935206
0.935262
0.935196
0.935341
0.935636
0.935857
0.936059
0.937152
0.94097
0.950878
0.971468
1.00074
1.02612
1.03727
1.0418
1.05031
0.745519
0.745485
0.745436
0.74542
0.745417
0.745413
0.74541
0.745415
0.745417
0.745415
0.745421
0.745425
0.745388
0.745312
0.745232
0.745181
0.745165
0.745165
0.745162
0.745119
0.744995
0.744772
0.74451
0.744344
0.744299
0.744268
0.744205
0.744077
0.743826
0.743591
0.743554
0.743517
0.74337
0.743157
0.743041
0.742919
0.742755
0.742561
0.742358
0.742153
0.741905
0.741597
0.741292
0.740971
0.74062
0.740264
0.73988
0.739477
0.739049
0.738558
0.738053
0.737638
0.737261
0.736837
0.736394
0.735977
0.735577
0.735317
0.735151
0.734901
0.734535
0.734086
0.733676
0.733231
0.732794
0.732239
0.731593
0.731989
0.734889
0.743236
0.765038
0.796405
0.835887
0.875909
0.896402
0.914094
0.920414
0.930248
0.936501
0.936421
0.934856
0.933461
0.934171
0.935211
0.935546
0.935105
0.934832
0.935233
0.935871
0.935831
0.935874
0.936919
0.940667
0.950251
0.970833
1.00074
1.02618
1.03713
1.04175
1.05023
0.745784
0.745782
0.745781
0.745803
0.745813
0.745799
0.745788
0.745781
0.745776
0.74577
0.74577
0.745773
0.745738
0.745652
0.745585
0.745567
0.745556
0.745533
0.745484
0.745391
0.745224
0.744968
0.744714
0.744575
0.744498
0.744425
0.744329
0.744187
0.743917
0.743683
0.743635
0.743583
0.743438
0.743199
0.743027
0.742881
0.742714
0.742521
0.742309
0.742091
0.741829
0.741529
0.741249
0.740951
0.740612
0.740269
0.739905
0.739523
0.739124
0.738671
0.738149
0.737658
0.737223
0.736764
0.736321
0.735892
0.735455
0.735242
0.735113
0.734906
0.734569
0.734136
0.733671
0.733181
0.732699
0.732181
0.731645
0.731004
0.730224
0.7306
0.733732
0.742513
0.765459
0.798736
0.8397
0.880533
0.908715
0.926153
0.932765
0.931526
0.929451
0.93135
0.933559
0.935565
0.935421
0.934277
0.93433
0.935434
0.936003
0.935654
0.935616
0.936645
0.94033
0.949751
0.970329
1.00059
1.02586
1.03665
1.04164
1.05033
0.746113
0.746124
0.746129
0.746117
0.746112
0.746133
0.746133
0.74612
0.746115
0.746096
0.746056
0.746014
0.745974
0.745932
0.745906
0.745884
0.745847
0.74578
0.745683
0.745551
0.745361
0.745111
0.744862
0.74472
0.744649
0.744575
0.744474
0.744341
0.744118
0.743877
0.743767
0.74367
0.743491
0.743244
0.743025
0.74284
0.742659
0.742463
0.742252
0.742006
0.741709
0.74142
0.741178
0.740908
0.740595
0.740277
0.739936
0.739569
0.739185
0.738757
0.738243
0.737688
0.737128
0.736577
0.736125
0.735693
0.735318
0.73514
0.735034
0.734847
0.734525
0.734104
0.733639
0.733133
0.732581
0.732073
0.731499
0.730877
0.730346
0.729658
0.728845
0.729338
0.732863
0.742788
0.767619
0.802961
0.844262
0.883254
0.903919
0.914615
0.92494
0.934273
0.935958
0.935264
0.933509
0.933376
0.935034
0.936011
0.935766
0.935288
0.935239
0.936372
0.939918
0.949274
0.970183
1.00018
1.02496
1.03601
1.04187
1.0509
0.746369
0.746367
0.746359
0.746334
0.746295
0.746238
0.746209
0.746205
0.74621
0.746203
0.746157
0.746078
0.746049
0.746042
0.746044
0.746029
0.74597
0.745855
0.745715
0.745566
0.745392
0.745187
0.744969
0.744797
0.744717
0.744657
0.744582
0.744479
0.74432
0.744103
0.743934
0.743785
0.743579
0.743331
0.743095
0.742891
0.7427
0.742506
0.742304
0.742073
0.741791
0.741508
0.741248
0.740974
0.740675
0.740364
0.740015
0.739617
0.739207
0.738789
0.738316
0.737806
0.737296
0.736777
0.736301
0.735718
0.735215
0.735028
0.734927
0.734749
0.734451
0.734053
0.733596
0.733078
0.732474
0.731918
0.731374
0.730809
0.730273
0.729731
0.729101
0.728266
0.727623
0.728228
0.732644
0.743831
0.771777
0.809893
0.852791
0.893156
0.920032
0.929197
0.933312
0.929603
0.930756
0.933831
0.936093
0.935692
0.935127
0.934844
0.93523
0.93616
0.93937
0.948719
0.969802
0.999389
1.02377
1.03552
1.04154
1.05063
0.746574
0.746485
0.746404
0.746343
0.746277
0.746209
0.746172
0.746163
0.74617
0.746171
0.746141
0.746061
0.746025
0.746024
0.746031
0.746013
0.745941
0.745824
0.745674
0.745514
0.745354
0.745175
0.744985
0.744781
0.74469
0.74466
0.744629
0.74458
0.744488
0.744325
0.744143
0.743966
0.743745
0.743496
0.743265
0.743059
0.74286
0.742652
0.742434
0.742192
0.741914
0.741613
0.74134
0.74107
0.740788
0.74048
0.740118
0.739696
0.739263
0.738826
0.738346
0.737824
0.737311
0.736833
0.736383
0.735758
0.735151
0.734942
0.734841
0.734668
0.734382
0.734001
0.733538
0.732987
0.732385
0.731707
0.731135
0.730693
0.730195
0.729693
0.729092
0.728376
0.727811
0.727103
0.726541
0.727394
0.732845
0.746488
0.778094
0.818611
0.864737
0.889859
0.914015
0.921101
0.93262
0.936133
0.935512
0.933495
0.933996
0.935173
0.935389
0.9359
0.938649
0.948026
0.969064
0.998226
1.02281
1.03517
1.04153
1.05059
0.746557
0.746461
0.746364
0.746288
0.746234
0.746152
0.746097
0.74606
0.746005
0.74599
0.745987
0.745953
0.745873
0.745859
0.745861
0.745832
0.74575
0.745629
0.745481
0.745321
0.745186
0.745038
0.744865
0.744696
0.744635
0.744611
0.744601
0.744603
0.74457
0.744464
0.744307
0.744133
0.743925
0.743687
0.743484
0.743316
0.743131
0.742901
0.742635
0.742348
0.742038
0.741706
0.741423
0.74117
0.740903
0.740573
0.740163
0.739724
0.739282
0.738813
0.7383
0.73776
0.737316
0.736959
0.736559
0.735898
0.735117
0.734851
0.734732
0.734562
0.734277
0.733901
0.73345
0.73284
0.732075
0.731617
0.731245
0.730769
0.730175
0.729666
0.729097
0.728355
0.727752
0.72721
0.726698
0.725938
0.725785
0.727339
0.734396
0.75269
0.786879
0.832528
0.880407
0.910291
0.929891
0.93214
0.929823
0.930602
0.933313
0.935646
0.935366
0.935231
0.937683
0.94702
0.967047
0.996408
1.02217
1.03509
1.04164
1.05058
0.746421
0.746333
0.746221
0.746104
0.746049
0.746048
0.746052
0.74602
0.745911
0.745782
0.74575
0.745732
0.74567
0.745621
0.74561
0.745576
0.745483
0.745345
0.745213
0.745097
0.744981
0.744825
0.744649
0.744595
0.744581
0.744574
0.744563
0.744554
0.744555
0.744501
0.744404
0.744286
0.744114
0.743907
0.743724
0.743574
0.743406
0.743175
0.742883
0.742584
0.74229
0.741956
0.741617
0.741322
0.741039
0.74067
0.740174
0.739674
0.739208
0.73871
0.738206
0.737699
0.737303
0.737021
0.736666
0.73604
0.735106
0.734689
0.734566
0.734404
0.734113
0.733726
0.733243
0.732657
0.732009
0.7316
0.731263
0.730753
0.730105
0.72963
0.729086
0.728338
0.727737
0.727254
0.726713
0.726088
0.725517
0.724893
0.725241
0.727964
0.736813
0.762561
0.800812
0.846923
0.893718
0.906127
0.919174
0.929971
0.935725
0.935657
0.93369
0.934117
0.937758
0.946
0.964519
0.994653
1.0219
1.03513
1.04174
1.05052
0.746311
0.746257
0.746182
0.746107
0.746061
0.746021
0.746019
0.746032
0.746005
0.745883
0.745698
0.745623
0.745576
0.745506
0.745465
0.745413
0.745319
0.745154
0.745013
0.744908
0.744767
0.744629
0.744588
0.744569
0.744558
0.744554
0.74455
0.744584
0.744571
0.744482
0.744432
0.74439
0.74428
0.744085
0.743866
0.743678
0.743503
0.743287
0.743002
0.742704
0.74246
0.742245
0.741963
0.741617
0.741213
0.740711
0.74017
0.739662
0.739121
0.73856
0.738069
0.737548
0.737201
0.736987
0.736665
0.736136
0.735478
0.734982
0.734694
0.734398
0.734002
0.733609
0.733132
0.732413
0.731804
0.731529
0.731217
0.730632
0.729973
0.729521
0.729035
0.728315
0.727709
0.727313
0.726795
0.726132
0.725564
0.725086
0.724299
0.723869
0.724501
0.7293
0.742287
0.775839
0.821529
0.867324
0.910413
0.923975
0.933
0.930244
0.930166
0.932992
0.93705
0.943676
0.962248
0.993891
1.02176
1.03501
1.04181
1.05055
0.746746
0.746726
0.746684
0.746606
0.746531
0.746483
0.746467
0.74648
0.746485
0.74643
0.746272
0.746101
0.745907
0.745802
0.745772
0.74571
0.745562
0.745312
0.745035
0.74476
0.744626
0.744606
0.744597
0.744594
0.744596
0.74456
0.744508
0.744489
0.744496
0.744455
0.744423
0.744416
0.744337
0.744164
0.743933
0.743712
0.743509
0.743255
0.74296
0.742635
0.742366
0.742274
0.742164
0.741938
0.74155
0.740958
0.740239
0.739567
0.738921
0.738372
0.737835
0.737259
0.737003
0.736891
0.736667
0.736225
0.735662
0.735149
0.734834
0.734528
0.733985
0.733321
0.732898
0.732387
0.73186
0.731545
0.731175
0.730492
0.729759
0.729324
0.728862
0.728178
0.727594
0.72723
0.726798
0.726099
0.725479
0.725024
0.724465
0.724029
0.723657
0.723775
0.725144
0.732953
0.751955
0.794609
0.845364
0.878432
0.909605
0.920208
0.928601
0.934847
0.936142
0.941977
0.961602
0.99372
1.02041
1.03452
1.04219
1.05105
0.747202
0.747204
0.747197
0.747175
0.74712
0.747079
0.747077
0.747086
0.747069
0.746999
0.746893
0.746788
0.74666
0.746516
0.746435
0.746359
0.746227
0.746003
0.74571
0.74542
0.7452
0.74509
0.745051
0.745009
0.744938
0.744858
0.74481
0.744759
0.744665
0.744528
0.744463
0.744419
0.744321
0.744136
0.743897
0.743652
0.743404
0.743122
0.742806
0.742395
0.742197
0.742176
0.742184
0.742053
0.741696
0.741177
0.740546
0.739762
0.738952
0.738287
0.737509
0.737011
0.73685
0.736807
0.736722
0.736347
0.735742
0.735139
0.734761
0.734443
0.734017
0.733538
0.733017
0.732317
0.731726
0.731433
0.731082
0.730284
0.729395
0.728959
0.728501
0.72782
0.727261
0.726997
0.726717
0.726008
0.72534
0.724867
0.724429
0.724033
0.723659
0.72319
0.722797
0.723318
0.726442
0.740277
0.767733
0.815698
0.867371
0.906718
0.924931
0.931348
0.929853
0.939079
0.963326
0.993103
1.01718
1.03417
1.04338
1.05187
0.747284
0.747282
0.747287
0.747291
0.747277
0.747271
0.747288
0.747284
0.747237
0.747143
0.747023
0.746939
0.746875
0.74679
0.746682
0.746558
0.746413
0.746237
0.746042
0.745818
0.745587
0.745396
0.74527
0.745182
0.745103
0.745026
0.74495
0.744855
0.744702
0.744476
0.744349
0.744275
0.744148
0.743926
0.743649
0.743373
0.743099
0.742831
0.742453
0.742132
0.742057
0.742056
0.742139
0.74211
0.741864
0.741423
0.740862
0.740185
0.739494
0.738812
0.737908
0.737016
0.736742
0.73664
0.736626
0.736408
0.735818
0.735065
0.734542
0.73412
0.733777
0.733484
0.732998
0.731984
0.731269
0.731041
0.730914
0.730345
0.729605
0.729192
0.728765
0.728039
0.727397
0.727011
0.726608
0.725938
0.725187
0.724661
0.724292
0.723962
0.723581
0.722983
0.722515
0.722054
0.721869
0.723371
0.72975
0.751476
0.788206
0.837766
0.884128
0.907132
0.916972
0.941825
0.963913
0.987043
1.01476
1.03513
1.04438
1.05244
0.747262
0.747236
0.747192
0.747155
0.747144
0.747142
0.747149
0.747141
0.747102
0.747032
0.746951
0.74687
0.7468
0.746717
0.746607
0.746482
0.746349
0.746193
0.746035
0.745862
0.745665
0.745471
0.745305
0.74518
0.745117
0.745076
0.745028
0.744941
0.744812
0.744671
0.744522
0.744327
0.744074
0.743773
0.743421
0.743093
0.74285
0.74257
0.742181
0.742021
0.741981
0.741995
0.74213
0.742132
0.741954
0.741595
0.741109
0.740528
0.739885
0.739201
0.738448
0.73762
0.737217
0.737068
0.736898
0.736543
0.735861
0.734921
0.733954
0.73357
0.733432
0.733316
0.732941
0.732035
0.731306
0.731017
0.730865
0.730373
0.72964
0.729175
0.728736
0.728003
0.727338
0.726925
0.726457
0.725722
0.724891
0.724395
0.724057
0.723728
0.723298
0.722653
0.722254
0.72209
0.722002
0.721916
0.722416
0.725947
0.736996
0.767882
0.815365
0.862329
0.903393
0.935643
0.949175
0.977832
1.01538
1.0363
1.04457
1.05264
0.746294
0.746293
0.746323
0.746316
0.746265
0.746246
0.746252
0.746284
0.746268
0.746232
0.746239
0.746215
0.746149
0.746094
0.746017
0.745913
0.74581
0.745763
0.745767
0.745778
0.745715
0.745574
0.745376
0.745197
0.745168
0.745172
0.745168
0.745135
0.745059
0.74495
0.744818
0.744669
0.744494
0.744267
0.743956
0.743579
0.743138
0.742531
0.742262
0.742183
0.74215
0.742146
0.742185
0.742134
0.74194
0.741604
0.741147
0.740613
0.740021
0.73936
0.738656
0.737838
0.737307
0.737162
0.737012
0.736617
0.735809
0.734515
0.733557
0.733292
0.733155
0.733108
0.732888
0.732087
0.731351
0.730993
0.73078
0.730342
0.729632
0.729099
0.728604
0.727871
0.72716
0.726679
0.726147
0.72534
0.724493
0.724037
0.723703
0.723342
0.722855
0.7224
0.722184
0.722101
0.722064
0.721899
0.721627
0.721864
0.723236
0.730111
0.749468
0.789039
0.84226
0.888842
0.923282
0.977658
1.01717
1.03688
1.0461
1.05352
0.745639
0.745638
0.745647
0.745654
0.745663
0.745683
0.745723
0.745801
0.745835
0.745847
0.745796
0.745661
0.745615
0.745552
0.745407
0.745353
0.74535
0.745368
0.745487
0.745649
0.745724
0.745732
0.74566
0.745428
0.74526
0.745223
0.745213
0.745225
0.745193
0.745089
0.74495
0.744819
0.744691
0.744544
0.744372
0.74419
0.74398
0.743701
0.743406
0.743152
0.742877
0.742589
0.742365
0.742144
0.741831
0.741417
0.740948
0.740472
0.739936
0.7393
0.738662
0.737916
0.737323
0.737123
0.737001
0.736631
0.735733
0.734223
0.733343
0.733102
0.732937
0.732991
0.732952
0.732345
0.731435
0.730955
0.730634
0.730181
0.729517
0.728942
0.72838
0.72765
0.726872
0.726216
0.725585
0.724706
0.723941
0.723595
0.723392
0.723084
0.722652
0.722359
0.722175
0.722135
0.722086
0.721908
0.721564
0.721358
0.721532
0.722231
0.725514
0.738246
0.769417
0.816916
0.884112
0.963832
1.00246
1.02964
1.04581
1.05437
0.74669
0.746655
0.746625
0.746615
0.746605
0.746616
0.746644
0.746648
0.746626
0.746565
0.746491
0.746428
0.746395
0.746364
0.746328
0.7463
0.746301
0.746252
0.746107
0.745943
0.74589
0.745872
0.745811
0.745592
0.74514
0.744976
0.744959
0.74492
0.744823
0.744673
0.744501
0.744392
0.744294
0.744176
0.744069
0.743982
0.743886
0.743766
0.743585
0.74333
0.742951
0.742446
0.741928
0.74148
0.741072
0.740648
0.740227
0.739871
0.739478
0.738967
0.738439
0.737793
0.737333
0.737126
0.737072
0.736805
0.73593
0.734694
0.734227
0.733985
0.733705
0.733448
0.73311
0.732389
0.73133
0.730722
0.730312
0.72984
0.72923
0.728576
0.727861
0.727064
0.72627
0.725665
0.725115
0.724276
0.723605
0.723356
0.723326
0.723149
0.722765
0.722366
0.722078
0.721984
0.721929
0.721754
0.721409
0.721223
0.721215
0.721345
0.721701
0.723394
0.731502
0.753415
0.808304
0.884841
0.960401
1.02277
1.04543
1.0526
0.748499
0.748475
0.748442
0.748406
0.748362
0.748287
0.748146
0.748029
0.748006
0.747987
0.747915
0.747884
0.747856
0.747736
0.747611
0.747488
0.747293
0.746944
0.746503
0.746058
0.74588
0.745813
0.745682
0.745319
0.744672
0.744024
0.743524
0.743137
0.742981
0.742954
0.742936
0.742898
0.742863
0.742846
0.742895
0.74307
0.743274
0.743345
0.743278
0.743043
0.742502
0.741698
0.740897
0.740404
0.740234
0.739973
0.739623
0.739434
0.739194
0.73888
0.738426
0.737694
0.737321
0.73726
0.737348
0.737199
0.736538
0.735435
0.734777
0.734385
0.733899
0.73339
0.732863
0.732068
0.730918
0.730137
0.729657
0.729183
0.728645
0.727935
0.727113
0.726314
0.725677
0.725249
0.724666
0.723836
0.723356
0.723126
0.723091
0.72301
0.722652
0.722098
0.721584
0.72143
0.721504
0.721339
0.721108
0.721076
0.720937
0.720984
0.721011
0.721256
0.722645
0.728436
0.750327
0.802901
0.901565
1.00584
1.03467
1.04762
0.747413
0.747451
0.747464
0.74747
0.747463
0.747392
0.747295
0.747313
0.747403
0.747483