/*--------------------------------*- C++ -*----------------------------------*\
  =========                 |
  \\      /  F ield         | OpenFOAM: The Open Source CFD Toolbox
   \\    /   O peration     | Website:  https://openfoam.org
    \\  /    A nd           | Version:  7
     \\/     M anipulation  |
\*---------------------------------------------------------------------------*/
FoamFile
{
    version     2.0;
    format      ascii;
    class       volScalarField;
    location    "2.5";
    object      T;
}
// * * * * * * * * * * * * * * * * * * * * * * * * * * * * * * * * * * * * * //

dimensions      [0 0 0 1 0 0 0];

internalField   nonuniform List<scalar> 
90000
(
0.938085
0.942025
0.94599
0.949843
0.953543
0.957083
0.960081
0.963
0.965624
0.968101
0.970281
0.972474
0.974524
0.977047
0.979837
0.983226
0.986742
0.990628
0.99437
0.998159
1.00169
1.00498
1.00799
1.01076
1.01283
1.01513
1.01638
1.01728
1.01829
1.01845
1.01839
1.01812
1.01767
1.01678
1.01514
1.01277
1.01028
1.00856
1.00736
1.00741
1.00772
1.00823
1.00884
1.00933
1.00953
1.00961
1.00951
1.00922
1.00847
1.00769
1.00691
1.00636
1.00607
1.00622
1.00666
1.00703
1.00736
1.00771
1.00755
1.0073
1.00672
1.00614
1.00602
1.0061
1.0062
1.00623
1.00608
1.00568
1.00518
1.00482
1.00482
1.00495
1.00485
1.0046
1.00414
1.00381
1.00389
1.00392
1.00377
1.00339
1.00303
1.00282
1.00288
1.00284
1.00278
1.00277
1.00279
1.00276
1.00275
1.00283
1.00306
1.00351
1.00482
1.00828
1.01481
1.02231
1.02863
1.03253
1.03403
1.03606
0.934952
0.935251
0.935847
0.936672
0.937785
0.939209
0.940845
0.94265
0.944688
0.946895
0.949207
0.951657
0.954171
0.956633
0.959012
0.961525
0.964079
0.966891
0.96986
0.972933
0.976291
0.979642
0.983011
0.986563
0.989806
0.993139
0.996078
0.999061
1.0016
1.00345
1.00539
1.0072
1.0082
1.00853
1.00937
1.01064
1.01069
1.01028
1.0092
1.0079
1.00652
1.00534
1.00452
1.00422
1.00425
1.00447
1.0049
1.00537
1.00588
1.0063
1.00619
1.0058
1.00502
1.00428
1.0036
1.00368
1.00413
1.00491
1.00562
1.00604
1.0058
1.00516
1.00461
1.00414
1.00431
1.00467
1.00501
1.00484
1.0044
1.00388
1.00365
1.00372
1.00387
1.00383
1.00363
1.00338
1.00334
1.00331
1.00322
1.00301
1.00272
1.00247
1.00244
1.00239
1.00241
1.00246
1.00253
1.00259
1.00261
1.00268
1.00289
1.00339
1.00472
1.0082
1.0147
1.02218
1.02874
1.03255
1.03392
1.03585
0.934206
0.934173
0.934145
0.934106
0.934103
0.934121
0.934176
0.934283
0.934459
0.93473
0.93511
0.935637
0.936321
0.937183
0.938209
0.939422
0.940822
0.942452
0.944294
0.94645
0.948804
0.951598
0.954566
0.958
0.961631
0.965547
0.969866
0.974019
0.978418
0.983067
0.987126
0.990782
0.99493
0.997914
1.00047
1.00254
1.00357
1.00416
1.00462
1.00459
1.00432
1.00379
1.00278
1.00177
1.00105
1.00098
1.00115
1.00143
1.00181
1.00212
1.00248
1.00239
1.00203
1.0014
1.00059
1.00053
1.00074
1.00118
1.00181
1.00231
1.00267
1.0025
1.0021
1.00168
1.0017
1.00191
1.00215
1.00232
1.00222
1.00185
1.00159
1.00164
1.00173
1.00188
1.00188
1.00176
1.00164
1.00164
1.00167
1.00159
1.00137
1.00111
1.00108
1.00115
1.00127
1.00138
1.00155
1.00169
1.00176
1.00189
1.00215
1.00269
1.00408
1.00759
1.01412
1.0216
1.02837
1.03216
1.03343
1.03521
0.933084
0.933054
0.933021
0.932984
0.932939
0.932891
0.932842
0.932799
0.932755
0.932706
0.93266
0.932621
0.93257
0.932572
0.932597
0.932663
0.932786
0.932981
0.933266
0.933685
0.934235
0.935009
0.936032
0.93733
0.939067
0.941146
0.943796
0.946938
0.950685
0.95476
0.959779
0.964768
0.969982
0.975559
0.980746
0.985429
0.988977
0.992699
0.994872
0.996433
0.997817
0.998377
0.998923
0.999393
0.999621
0.999919
0.999871
0.999674
0.999294
0.99872
0.998331
0.998025
0.998032
0.99808
0.998067
0.997991
0.997906
0.997807
0.997872
0.998058
0.998434
0.998861
0.999326
0.999194
0.998805
0.998381
0.998418
0.998656
0.999045
0.99912
0.998904
0.998544
0.998547
0.998675
0.99893
0.999028
0.99897
0.998971
0.998995
0.999034
0.998893
0.998698
0.998673
0.998712
0.998863
0.999138
0.999479
0.999761
0.999948
1.00013
1.00042
1.001
1.00248
1.00611
1.01262
1.02021
1.02723
1.03112
1.03226
1.03376
0.931748
0.931725
0.9317
0.931673
0.931644
0.931613
0.931579
0.93154
0.931496
0.93145
0.931403
0.931354
0.931309
0.93125
0.931189
0.931128
0.93107
0.931014
0.930961
0.930905
0.930859
0.930824
0.930836
0.930909
0.93106
0.931333
0.931776
0.932438
0.933462
0.934876
0.936836
0.939609
0.942843
0.947424
0.952284
0.958231
0.964664
0.970845
0.977311
0.982583
0.98776
0.990885
0.994075
0.995912
0.996354
0.996643
0.997064
0.997052
0.996617
0.995873
0.995477
0.995555
0.995873
0.996198
0.996221
0.996106
0.995733
0.995358
0.995005
0.994989
0.995158
0.995636
0.996183
0.996483
0.996563
0.996326
0.995933
0.995954
0.996097
0.99633
0.996316
0.996083
0.995861
0.995934
0.996108
0.996337
0.996294
0.996195
0.996191
0.996219
0.996148
0.995978
0.995902
0.995927
0.99607
0.996424
0.99688
0.997263
0.997497
0.997713
0.998048
0.998691
1.00024
1.00391
1.01042
1.01804
1.02525
1.02929
1.03029
1.03168
0.930599
0.930578
0.930556
0.930531
0.930506
0.930482
0.930456
0.930428
0.930398
0.930366
0.930332
0.930295
0.930256
0.930216
0.930173
0.930125
0.930074
0.930023
0.92997
0.929917
0.92987
0.929822
0.92978
0.929716
0.929652
0.929587
0.929526
0.929484
0.929464
0.929491
0.929617
0.929916
0.930447
0.9314
0.93286
0.935145
0.938444
0.942748
0.94852
0.954993
0.962131
0.969566
0.976343
0.982043
0.986284
0.988613
0.99168
0.992542
0.992594
0.99275
0.993745
0.994721
0.9955
0.995627
0.995432
0.995005
0.994457
0.99412
0.993851
0.993767
0.993852
0.993986
0.994153
0.994313
0.994444
0.994455
0.994539
0.994523
0.994404
0.994398
0.994321
0.994243
0.994086
0.994036
0.994061
0.994127
0.99424
0.994221
0.99413
0.993956
0.993694
0.993446
0.993461
0.993488
0.993584
0.993919
0.9944
0.994819
0.995069
0.995291
0.995613
0.996234
0.997785
1.00146
1.00793
1.01566
1.02289
1.02711
1.02793
1.02935
0.929808
0.92979
0.929769
0.929746
0.929723
0.929701
0.929677
0.929653
0.929625
0.929597
0.929568
0.929539
0.929507
0.929475
0.929441
0.929406
0.929367
0.929328
0.929287
0.929244
0.929201
0.929158
0.929112
0.929064
0.929015
0.928967
0.928918
0.928873
0.928827
0.928797
0.928726
0.928647
0.928576
0.928496
0.928503
0.928611
0.928914
0.929612
0.930838
0.933101
0.936367
0.941499
0.947591
0.955172
0.963769
0.971075
0.978028
0.983457
0.988668
0.991242
0.992893
0.993372
0.994135
0.994292
0.994021
0.993158
0.993167
0.993411
0.993916
0.994046
0.993895
0.99349
0.993142
0.992903
0.993009
0.993238
0.993513
0.993658
0.993655
0.99353
0.993303
0.993302
0.993252
0.993149
0.993013
0.992903
0.992947
0.993039
0.992986
0.992725
0.992263
0.991909
0.991907
0.991905
0.991955
0.992244
0.992705
0.993111
0.993317
0.993503
0.99379
0.994345
0.995809
0.999466
1.00587
1.01368
1.02078
1.02512
1.02583
1.02736
0.929374
0.929353
0.929333
0.929313
0.929291
0.929268
0.929244
0.929219
0.929193
0.929166
0.929138
0.92911
0.929081
0.929051
0.929018
0.928984
0.928949
0.928914
0.928879
0.928842
0.928804
0.928768
0.928731
0.928691
0.92865
0.928608
0.928567
0.928521
0.928472
0.92842
0.928369
0.928315
0.928256
0.928193
0.928142
0.928051
0.92795
0.927863
0.927781
0.927817
0.928041
0.928713
0.930035
0.932743
0.936615
0.942954
0.950431
0.958769
0.967575
0.975345
0.982248
0.985128
0.98824
0.989922
0.990933
0.991788
0.993234
0.994366
0.994671
0.994516
0.994081
0.993427
0.992809
0.99247
0.992507
0.992667
0.992997
0.993072
0.993066
0.992934
0.99288
0.992909
0.992893
0.992777
0.992578
0.992426
0.992406
0.992408
0.992272
0.99191
0.99135
0.990912
0.990904
0.99098
0.99101
0.991252
0.991676
0.992063
0.992262
0.992405
0.992669
0.993214
0.994719
0.998284
1.0046
1.01235
1.01932
1.02368
1.02434
1.02595
0.929128
0.929107
0.929086
0.929065
0.929046
0.929024
0.929
0.928975
0.92895
0.928923
0.928897
0.928871
0.928845
0.928817
0.928786
0.928755
0.928728
0.9287
0.92867
0.928638
0.928603
0.92857
0.928539
0.928505
0.928467
0.928429
0.928394
0.928355
0.928313
0.928266
0.928217
0.928163
0.928107
0.928044
0.927978
0.927912
0.927839
0.927752
0.92766
0.927579
0.927448
0.927319
0.927184
0.927252
0.927562
0.928523
0.93038
0.934301
0.939705
0.947815
0.956742
0.966064
0.974856
0.981015
0.987173
0.990474
0.992484
0.993325
0.993939
0.993664
0.992918
0.992751
0.992892
0.993002
0.993064
0.992919
0.99265
0.992387
0.992463
0.992573
0.992736
0.9928
0.992681
0.992468
0.992337
0.992277
0.992252
0.992137
0.991868
0.991426
0.990839
0.990356
0.990338
0.990458
0.99052
0.99076
0.991158
0.991461
0.991653
0.99182
0.992072
0.992575
0.993996
0.997439
1.00378
1.01156
1.01855
1.02276
1.02341
1.0251
0.928931
0.928912
0.928891
0.92887
0.92885
0.928829
0.928808
0.928786
0.928761
0.928738
0.928713
0.928685
0.928664
0.928641
0.928616
0.928589
0.928563
0.92854
0.928518
0.928492
0.928454
0.928428
0.928411
0.928389
0.928358
0.928322
0.928295
0.928269
0.928235
0.928198
0.928158
0.928114
0.928065
0.928008
0.92794
0.927865
0.92778
0.927683
0.927579
0.927464
0.92735
0.927231
0.927109
0.926948
0.926801
0.926636
0.926589
0.926812
0.927503
0.929461
0.932786
0.939081
0.946857
0.956781
0.966774
0.974772
0.982237
0.985424
0.988976
0.990036
0.991764
0.992988
0.994022
0.993942
0.993615
0.992977
0.992175
0.991912
0.992026
0.992408
0.992726
0.992647
0.992406
0.992194
0.992202
0.992253
0.992175
0.99192
0.991542
0.991095
0.990574
0.990089
0.990029
0.990153
0.990265
0.990524
0.990922
0.991174
0.991325
0.99149
0.991737
0.992215
0.993536
0.996909
1.0032
1.011
1.01831
1.02223
1.02287
1.02463
0.928773
0.928755
0.928734
0.928712
0.928692
0.928671
0.928652
0.928631
0.928609
0.928586
0.928564
0.928538
0.928516
0.928497
0.928473
0.928449
0.928425
0.928406
0.92839
0.928367
0.928338
0.928323
0.928317
0.928306
0.928277
0.928239
0.928223
0.928213
0.928187
0.928148
0.92811
0.928071
0.928026
0.927971
0.927903
0.927825
0.927739
0.927643
0.927537
0.927417
0.927286
0.927152
0.927012
0.926859
0.926712
0.926563
0.926439
0.926285
0.926134
0.926071
0.92625
0.927065
0.928899
0.933188
0.939286
0.94878
0.958974
0.969001
0.978363
0.98447
0.990114
0.99178
0.993125
0.99302
0.992282
0.991886
0.991927
0.992112
0.992409
0.99247
0.992457
0.992152
0.991938
0.992042
0.992242
0.992205
0.992011
0.991671
0.99126
0.99083
0.990263
0.989797
0.989768
0.989912
0.990069
0.990324
0.990739
0.991001
0.99113
0.991259
0.991477
0.991972
0.993286
0.996618
1.00279
1.01064
1.0182
1.02182
1.02255
1.02441
0.928653
0.928634
0.928615
0.928596
0.928576
0.928555
0.928533
0.928511
0.928492
0.92847
0.928448
0.928425
0.928402
0.928383
0.928359
0.92833
0.928318
0.928315
0.928309
0.928286
0.928264
0.92825
0.928248
0.928246
0.928213
0.928174
0.928162
0.928159
0.928138
0.92809
0.928038
0.927991
0.927943
0.927886
0.927817
0.927739
0.927653
0.92756
0.927457
0.927341
0.927213
0.927071
0.926918
0.926753
0.926591
0.926442
0.926286
0.926152
0.926033
0.925938
0.925784
0.925646
0.92562
0.925909
0.926816
0.929461
0.933966
0.942296
0.951929
0.962773
0.973406
0.979632
0.985722
0.987622
0.988878
0.991316
0.992407
0.992876
0.992749
0.992347
0.991801
0.991544
0.991769
0.992125
0.992101
0.991963
0.991704
0.991393
0.99109
0.990575
0.989814
0.989376
0.98945
0.989672
0.989865
0.990094
0.990537
0.990844
0.99097
0.991048
0.991223
0.991723
0.993056
0.996354
1.00246
1.01037
1.01797
1.02147
1.02232
1.02431
0.928562
0.928546
0.92853
0.928512
0.928492
0.92847
0.928448
0.928426
0.928405
0.928384
0.928362
0.92834
0.92832
0.928304
0.928284
0.928265
0.928254
0.928249
0.928247
0.928229
0.9282
0.928181
0.928167
0.928167
0.928151
0.928104
0.928076
0.928065
0.928044
0.927998
0.927936
0.927877
0.927822
0.927762
0.927693
0.927615
0.927529
0.927438
0.927335
0.927222
0.927099
0.92696
0.926806
0.926647
0.926478
0.926321
0.926163
0.926017
0.925887
0.925762
0.925645
0.925539
0.925466
0.925335
0.92516
0.925243
0.925686
0.927319
0.930522
0.937368
0.946063
0.957735
0.96899
0.978226
0.985209
0.98994
0.990963
0.99185
0.991479
0.990716
0.990949
0.991492
0.991958
0.991882
0.991679
0.991323
0.991141
0.991111
0.990839
0.990199
0.989307
0.988995
0.9891
0.989379
0.989569
0.989845
0.99035
0.990702
0.990805
0.990835
0.990982
0.991466
0.992795
0.996054
1.00217
1.01013
1.01768
1.02108
1.02215
1.02434
0.928453
0.928435
0.928416
0.928396
0.928376
0.928355
0.928334
0.928313
0.928292
0.928272
0.928248
0.928223
0.928211
0.928205
0.928196
0.928183
0.928171
0.928163
0.928158
0.928142
0.928106
0.928084
0.928068
0.928065
0.928056
0.92802
0.927957
0.927925
0.927907
0.927873
0.927815
0.927748
0.927684
0.927622
0.927556
0.92748
0.927398
0.92731
0.927208
0.927096
0.926977
0.926836
0.926681
0.926525
0.92636
0.926193
0.926042
0.925892
0.925758
0.925628
0.925513
0.925403
0.9253
0.925184
0.925062
0.924895
0.92477
0.924722
0.924925
0.925861
0.928094
0.933684
0.941607
0.953428
0.964714
0.975533
0.980555
0.985816
0.987067
0.989194
0.991304
0.992012
0.991895
0.991405
0.990814
0.990566
0.990907
0.990827
0.99036
0.989563
0.988876
0.988812
0.988833
0.989084
0.989244
0.989615
0.990174
0.990547
0.990619
0.990624
0.990753
0.991209
0.992512
0.995722
1.00187
1.0099
1.01736
1.02069
1.02191
1.02416
0.928295
0.928277
0.928258
0.92824
0.928217
0.928185
0.92817
0.928159
0.928144
0.928129
0.928112
0.928092
0.928079
0.92807
0.928063
0.928056
0.928046
0.928037
0.928027
0.928009
0.927972
0.927927
0.927906
0.927898
0.927893
0.927871
0.927814
0.927745
0.927717
0.927693
0.927647
0.927582
0.927519
0.927464
0.927406
0.927335
0.927255
0.927168
0.927069
0.926965
0.926851
0.926712
0.926563
0.926417
0.926261
0.926103
0.925952
0.925807
0.92566
0.925525
0.925405
0.925295
0.925181
0.925048
0.924898
0.924747
0.924608
0.924533
0.924425
0.924242
0.924299
0.924815
0.926495
0.930948
0.93891
0.949564
0.962275
0.974144
0.981566
0.987846
0.989857
0.991082
0.990642
0.989842
0.989975
0.990611
0.990582
0.990257
0.989559
0.988826
0.988695
0.988573
0.988587
0.988762
0.988951
0.989415
0.989977
0.990359
0.990416
0.990429
0.99054
0.990948
0.99221
0.995355
1.00152
1.00967
1.01707
1.02032
1.02154
1.02386
0.928119
0.928102
0.928082
0.928061
0.928041
0.928019
0.928001
0.927993
0.927989
0.927983
0.927972
0.927956
0.927937
0.927916
0.927903
0.927893
0.927886
0.927886
0.927881
0.927861
0.927824
0.927758
0.927714
0.9277
0.927696
0.927684
0.927646
0.927575
0.927508
0.927473
0.92744
0.92739
0.927331
0.927287
0.927239
0.927175
0.927099
0.92702
0.926937
0.926847
0.926743
0.926615
0.926479
0.92634
0.926192
0.926043
0.925888
0.925733
0.925577
0.925426
0.925299
0.925179
0.925045
0.92489
0.924724
0.924565
0.924426
0.924333
0.92424
0.924134
0.923944
0.923768
0.923683
0.924005
0.925407
0.928947
0.936884
0.947075
0.959951
0.972371
0.978471
0.984675
0.986381
0.988613
0.990748
0.990668
0.99018
0.989327
0.988524
0.988611
0.988576
0.988343
0.988304
0.98839
0.988733
0.989273
0.989782
0.99013
0.990218
0.990283
0.990375
0.990726
0.99192
0.994975
1.00112
1.00952
1.01683
1.01997
1.0212
1.02356
0.927942
0.92793
0.927916
0.927892
0.927869
0.92786
0.927856
0.927854
0.92785
0.927845
0.927845
0.92784
0.927823
0.927797
0.927771
0.927757
0.927748
0.927748
0.927747
0.927734
0.927699
0.927629
0.927544
0.927514
0.927504
0.927492
0.927462
0.927408
0.927331
0.927254
0.927226
0.927196
0.927134
0.927088
0.927055
0.927006
0.926937
0.92686
0.926784
0.926705
0.926609
0.926492
0.92637
0.926241
0.926104
0.925965
0.925817
0.925664
0.925504
0.925331
0.925172
0.92503
0.924886
0.924728
0.924565
0.924414
0.92427
0.924169
0.924085
0.923975
0.923827
0.923672
0.923552
0.923375
0.923192
0.923395
0.92461
0.927666
0.935315
0.945778
0.959045
0.97195
0.980813
0.986868
0.989042
0.989256
0.988228
0.987794
0.988229
0.98849
0.988282
0.987919
0.987946
0.988148
0.988647
0.989146
0.989581
0.98988
0.990076
0.990158
0.990212
0.990525
0.991659
0.994618
1.00073
1.00932
1.0166
1.01971
1.02096
1.02336
0.927823
0.92781
0.927792
0.927787
0.927786
0.927783
0.92778
0.92778
0.92778
0.927777
0.927777
0.927778
0.927763
0.927735
0.927705
0.927686
0.927677
0.927675
0.927673
0.927656
0.927608
0.927527
0.927434
0.927374
0.927352
0.927337
0.927311
0.927262
0.927172
0.927088
0.927071
0.927054
0.926997
0.926917
0.926873
0.926827
0.926766
0.926694
0.926618
0.926543
0.926452
0.926339
0.926228
0.926111
0.925984
0.925853
0.925712
0.925562
0.925403
0.925219
0.925029
0.924873
0.924733
0.924578
0.924415
0.924262
0.924113
0.924015
0.923951
0.923858
0.923723
0.923558
0.923408
0.923244
0.923087
0.922886
0.922646
0.922789
0.923831
0.92684
0.934657
0.945523
0.958824
0.971654
0.977941
0.983142
0.984704
0.987334
0.988688
0.988436
0.987663
0.987188
0.987497
0.988061
0.988645
0.988998
0.989326
0.989675
0.990016
0.990019
0.99003
0.990329
0.991437
0.994293
1.0004
1.00915
1.01643
1.01952
1.02082
1.02321
0.927774
0.927773
0.927772
0.92778
0.927783
0.927777
0.927771
0.927765
0.927761
0.927758
0.927758
0.927758
0.927745
0.927713
0.927687
0.927678
0.927673
0.927664
0.927644
0.927609
0.927547
0.927454
0.927363
0.927312
0.927281
0.927251
0.927214
0.927161
0.927064
0.926981
0.92696
0.926939
0.926883
0.926794
0.92673
0.926675
0.926612
0.92654
0.926461
0.926381
0.926285
0.926176
0.926076
0.925968
0.925846
0.925721
0.925587
0.925446
0.925298
0.925129
0.924934
0.924749
0.924585
0.924416
0.924256
0.924104
0.923949
0.923872
0.923823
0.923746
0.923622
0.923464
0.923293
0.923114
0.922943
0.922759
0.922569
0.922333
0.92202
0.922141
0.92323
0.926352
0.934505
0.945921
0.959457
0.97233
0.980778
0.985793
0.987237
0.986701
0.985835
0.98635
0.987188
0.988079
0.988547
0.988657
0.988996
0.989607
0.989942
0.989854
0.989838
0.990135
0.991224
0.994028
1.00013
1.00898
1.01618
1.01925
1.02069
1.02313
0.927766
0.927769
0.92777
0.927764
0.927762
0.927768
0.927769
0.927764
0.92776
0.927752
0.927736
0.92772
0.927705
0.92769
0.92768
0.92767
0.927655
0.927628
0.927592
0.927544
0.927476
0.927385
0.927296
0.927243
0.927216
0.927187
0.927149
0.9271
0.927019
0.926934
0.926892
0.926855
0.926789
0.926699
0.926618
0.926549
0.92648
0.926407
0.926329
0.92624
0.926134
0.926029
0.925941
0.925843
0.925729
0.925614
0.925489
0.925355
0.925215
0.925061
0.924876
0.924674
0.924468
0.924264
0.924099
0.923941
0.923806
0.923741
0.923702
0.923634
0.923516
0.923362
0.923192
0.92301
0.922812
0.92263
0.922425
0.922189
0.92198
0.921707
0.921303
0.921426
0.922556
0.925968
0.934632
0.946532
0.959972
0.972094
0.978166
0.981187
0.984348
0.986894
0.988017
0.988013
0.987892
0.98822
0.989106
0.989742
0.989755
0.989648
0.989622
0.989953
0.991003
0.993789
0.99999
1.00875
1.01582
1.01897
1.02068
1.02322
0.927748
0.927747
0.927745
0.927737
0.927723
0.927703
0.927696
0.927696
0.927698
0.927696
0.927679
0.927652
0.927639
0.927634
0.927634
0.927628
0.927606
0.927564
0.927513
0.927459
0.927395
0.92732
0.92724
0.927177
0.927146
0.927123
0.927094
0.927055
0.926996
0.926918
0.926856
0.926802
0.926727
0.926638
0.926552
0.926479
0.926409
0.926338
0.926264
0.926181
0.92608
0.925979
0.925885
0.925785
0.925676
0.925562
0.925435
0.925291
0.925143
0.924994
0.924826
0.924645
0.924463
0.924274
0.924098
0.923882
0.923699
0.92363
0.923593
0.923528
0.923418
0.923272
0.923107
0.922923
0.922708
0.922501
0.92229
0.92207
0.921851
0.921608
0.921305
0.920916
0.920382
0.920473
0.921792
0.925534
0.93516
0.947902
0.961855
0.97447
0.982983
0.985496
0.987108
0.986281
0.986852
0.988219
0.989418
0.98953
0.989497
0.989448
0.989549
0.989809
0.990752
0.993538
0.999794
1.00844
1.01541
1.01877
1.02053
1.02308
0.927745
0.927714
0.927686
0.927665
0.927642
0.927618
0.927606
0.927603
0.927605
0.927605
0.927595
0.927569
0.927552
0.927551
0.927552
0.927546
0.92752
0.927478
0.927424
0.927366
0.927308
0.927243
0.927175
0.927103
0.927068
0.927054
0.927039
0.927019
0.926983
0.926921
0.926855
0.926791
0.926713
0.926624
0.926542
0.926469
0.926399
0.926325
0.926247
0.926159
0.926059
0.925951
0.925854
0.925757
0.925655
0.925543
0.925411
0.925257
0.925101
0.924944
0.924773
0.924586
0.924403
0.92423
0.924068
0.923842
0.923624
0.923549
0.923512
0.923448
0.923342
0.9232
0.92303
0.922829
0.922609
0.922354
0.922129
0.921942
0.921719
0.921465
0.921149
0.920755
0.920352
0.919897
0.919233
0.919353
0.921021
0.925658
0.936613
0.950284
0.965415
0.973419
0.980925
0.98347
0.987222
0.989016
0.989134
0.988831
0.989083
0.989515
0.989554
0.989672
0.990465
0.993255
0.9995
1.00803
1.01507
1.01862
1.02047
1.023
0.927682
0.927648
0.927614
0.927587
0.927567
0.927538
0.927518
0.927503
0.927481
0.927475
0.927474
0.927462
0.927433
0.927428
0.927428
0.927418
0.927388
0.927345
0.927292
0.927234
0.927185
0.927132
0.927071
0.927013
0.926992
0.92698
0.926972
0.926971
0.926957
0.926917
0.92686
0.926797
0.926723
0.926638
0.926564
0.926504
0.92644
0.92636
0.926267
0.926164
0.926052
0.925933
0.925832
0.925742
0.925647
0.925529
0.925382
0.925224
0.925065
0.924896
0.924712
0.924519
0.924359
0.92423
0.924087
0.923852
0.923573
0.923478
0.923436
0.923374
0.923267
0.923123
0.922948
0.922714
0.922423
0.922239
0.922085
0.92188
0.92161
0.921328
0.920988
0.92055
0.920126
0.919688
0.91922
0.918624
0.918199
0.918561
0.920932
0.927392
0.939365
0.954954
0.970497
0.98025
0.986045
0.987844
0.98741
0.987837
0.988866
0.989626
0.989516
0.989429
0.990136
0.992905
0.998845
1.00743
1.01483
1.01856
1.02047
1.02296
0.927585
0.927554
0.927514
0.927473
0.927452
0.927452
0.927453
0.927442
0.927405
0.927361
0.927348
0.92734
0.927316
0.927299
0.927296
0.927284
0.927252
0.927203
0.927156
0.927114
0.927072
0.927016
0.926954
0.926934
0.926928
0.926924
0.926919
0.926915
0.926915
0.926895
0.92686
0.926816
0.926754
0.926678
0.926611
0.926556
0.926496
0.926415
0.926314
0.926209
0.926105
0.925986
0.925865
0.925761
0.925662
0.925533
0.925358
0.92518
0.925013
0.924834
0.924653
0.924472
0.924331
0.92423
0.924103
0.92388
0.923549
0.923401
0.923354
0.923292
0.923181
0.923027
0.922829
0.922586
0.922319
0.922145
0.921996
0.921776
0.921479
0.921188
0.920827
0.920362
0.919917
0.919489
0.919024
0.918506
0.918023
0.917476
0.917508
0.918422
0.921635
0.930983
0.944345
0.960059
0.974924
0.979414
0.983946
0.987639
0.989611
0.989608
0.988974
0.989071
0.990126
0.992567
0.998061
1.00688
1.01471
1.01856
1.02048
1.02294
0.927518
0.927499
0.927472
0.927445
0.92743
0.927417
0.927417
0.927422
0.927413
0.92737
0.927305
0.927279
0.927263
0.927238
0.927224
0.927206
0.927172
0.927114
0.927063
0.927026
0.926976
0.926929
0.926913
0.926905
0.926899
0.926896
0.926894
0.926906
0.926901
0.926869
0.92685
0.926833
0.926791
0.92672
0.926641
0.926572
0.92651
0.926434
0.926335
0.926232
0.926148
0.926072
0.925972
0.92585
0.925709
0.925534
0.925344
0.925164
0.924971
0.92477
0.924594
0.924407
0.924284
0.924209
0.924094
0.923906
0.923677
0.923498
0.923385
0.923267
0.923109
0.922943
0.922742
0.922451
0.922194
0.922051
0.921892
0.921625
0.921307
0.921009
0.920653
0.920183
0.91973
0.919333
0.918876
0.918358
0.917914
0.917542
0.917045
0.916905
0.917183
0.919023
0.923836
0.935966
0.951725
0.967062
0.981074
0.985752
0.988777
0.987977
0.987866
0.988699
0.98989
0.991849
0.997355
1.00661
1.01464
1.01852
1.02051
1.02296
0.927657
0.927649
0.927634
0.927605
0.927579
0.927565
0.92756
0.927565
0.927568
0.927548
0.927494
0.927436
0.927369
0.927332
0.927321
0.9273
0.927248
0.92716
0.927061
0.926964
0.926919
0.926912
0.926908
0.926906
0.926906
0.926892
0.926872
0.926865
0.926867
0.926851
0.926838
0.926834
0.926805
0.926742
0.92666
0.92658
0.926507
0.926417
0.926314
0.926202
0.926109
0.926079
0.926041
0.925962
0.925826
0.925618
0.925365
0.925129
0.924901
0.924706
0.924513
0.924305
0.924211
0.92417
0.924089
0.923933
0.923739
0.923552
0.923422
0.923291
0.923068
0.922798
0.922612
0.922401
0.922178
0.922005
0.921793
0.921454
0.92108
0.920767
0.920412
0.919952
0.919509
0.919136
0.918728
0.918215
0.917775
0.91745
0.917105
0.916916
0.916906
0.917002
0.917616
0.920621
0.927658
0.942952
0.960255
0.97132
0.981438
0.984811
0.987373
0.989247
0.989605
0.991321
0.997132
1.00652
1.01423
1.0184
1.02064
1.02312
0.927807
0.927808
0.927806
0.927799
0.92778
0.927768
0.927769
0.927773
0.927767
0.927744
0.927709
0.927673
0.927629
0.927579
0.927551
0.927525
0.927479
0.927401
0.927298
0.927195
0.927117
0.927079
0.927066
0.927051
0.927025
0.926996
0.926978
0.92696
0.926926
0.926876
0.926852
0.926835
0.9268
0.926734
0.926649
0.926561
0.926473
0.926373
0.926262
0.926117
0.92605
0.926045
0.926049
0.926004
0.925879
0.925697
0.925476
0.925202
0.924916
0.924682
0.924409
0.924227
0.924156
0.924134
0.924099
0.923964
0.923751
0.923533
0.923377
0.923231
0.923043
0.922834
0.922608
0.922323
0.922065
0.921879
0.921654
0.921252
0.920806
0.920475
0.920113
0.91965
0.919214
0.918885
0.918559
0.918071
0.917644
0.917335
0.917081
0.916932
0.916859
0.916767
0.916794
0.917095
0.918421
0.92373
0.933827
0.950743
0.968044
0.98071
0.986374
0.988223
0.987712
0.990439
0.997594
1.00629
1.01333
1.01835
1.02103
1.02341
0.927841
0.927842
0.927845
0.927847
0.927843
0.927842
0.927848
0.927847
0.92783
0.927798
0.927756
0.927727
0.927705
0.927676
0.927639
0.927596
0.927545
0.927484
0.927415
0.927337
0.927255
0.927188
0.927144
0.927113
0.927084
0.927057
0.92703
0.926997
0.926942
0.926861
0.926816
0.926791
0.926747
0.926669
0.92657
0.926472
0.926374
0.926278
0.926144
0.92603
0.926004
0.926004
0.926034
0.926025
0.925939
0.925786
0.925592
0.925357
0.925115
0.924875
0.924562
0.924242
0.924115
0.924063
0.924052
0.923967
0.923749
0.923472
0.923266
0.923081
0.922912
0.922758
0.922529
0.922117
0.921801
0.92161
0.921456
0.921116
0.920712
0.920383
0.920025
0.919536
0.919075
0.918725
0.918389
0.917962
0.917538
0.917229
0.917035
0.916922
0.91683
0.916681
0.916645
0.916656
0.916788
0.917565
0.920181
0.928401
0.94157
0.958535
0.973632
0.980735
0.983685
0.991205
0.997711
1.00453
1.01268
1.01871
1.02141
1.02367
0.927841
0.927833
0.927818
0.927807
0.927807
0.927806
0.927809
0.927806
0.927793
0.927768
0.92774
0.927711
0.927686
0.927656
0.927618
0.927573
0.927527
0.927471
0.927416
0.927356
0.927286
0.927218
0.927159
0.927115
0.927093
0.92708
0.927064
0.927035
0.92699
0.92694
0.926888
0.92682
0.926732
0.926627
0.926503
0.926386
0.926299
0.926199
0.92606
0.925997
0.925979
0.925983
0.926031
0.926032
0.92597
0.925845
0.925678
0.925479
0.925254
0.925011
0.924743
0.924445
0.924275
0.924199
0.924122
0.923981
0.923722
0.923374
0.923019
0.922825
0.922706
0.922604
0.922399
0.922008
0.921669
0.921437
0.921258
0.92093
0.920516
0.920168
0.919811
0.919329
0.91888
0.918552
0.918228
0.917816
0.917394
0.917122
0.916956
0.916844
0.916723
0.916568
0.916569
0.916654
0.916814
0.917053
0.917495
0.919092
0.923369
0.934624
0.951077
0.966499
0.979512
0.989272
0.993315
1.00186
1.01297
1.01919
1.0216
1.02385
0.927516
0.927516
0.927527
0.927524
0.927506
0.927502
0.927504
0.927516
0.927511
0.927498
0.927501
0.927492
0.927468
0.927448
0.92742
0.927382
0.927344
0.927328
0.927329
0.927333
0.92731
0.927261
0.927186
0.927123
0.927121
0.927126
0.927126
0.927117
0.927093
0.927056
0.92701
0.926958
0.926897
0.926817
0.926707
0.926571
0.926411
0.926195
0.926095
0.926057
0.926038
0.926035
0.926047
0.926028
0.925961
0.925844
0.925687
0.925503
0.925297
0.925058
0.924793
0.924484
0.924273
0.9242
0.924128
0.923965
0.923648
0.923173
0.922804
0.922601
0.922455
0.922379
0.922236
0.921874
0.921509
0.921233
0.921014
0.920702
0.920295
0.919942
0.919587
0.91913
0.918685
0.918352
0.91803
0.917619
0.917209
0.916976
0.916832
0.916707
0.916553
0.916504
0.91655
0.916658
0.916829
0.917006
0.917231
0.917563
0.918298
0.920991
0.928078
0.941994
0.959986
0.974703
0.985375
1.00182
1.01361
1.0195
1.02216
1.02423
0.927299
0.927299
0.927302
0.927304
0.927308
0.927314
0.927329
0.927357
0.92737
0.927374
0.927356
0.927309
0.927291
0.927267
0.927214
0.927193
0.927191
0.927197
0.927239
0.927295
0.927322
0.927326
0.9273
0.927211
0.927155
0.927156
0.927159
0.927166
0.927155
0.92712
0.92707
0.927024
0.926978
0.926924
0.926861
0.926793
0.926712
0.926606
0.926493
0.926395
0.92629
0.926182
0.9261
0.926022
0.925912
0.925769
0.925607
0.925441
0.925247
0.925009
0.92476
0.924472
0.924239
0.924139
0.924067
0.923897
0.923534
0.922984
0.922624
0.922408
0.92222
0.922174
0.922113
0.921821
0.921391
0.921054
0.920775
0.920453
0.920067
0.919714
0.919357
0.918924
0.918474
0.918097
0.917758
0.917333
0.916963
0.916796
0.91672
0.916612
0.916489
0.916495
0.916544
0.916666
0.916832
0.916997
0.917147
0.917381
0.917651
0.918058
0.919351
0.924021
0.935176
0.951354
0.973355
0.997903
1.00959
1.01762
1.02223
1.02456
0.92768
0.927668
0.927658
0.927654
0.927651
0.927655
0.927664
0.927666
0.927658
0.927637
0.927611
0.927588
0.927576
0.927564
0.92755
0.927539
0.927539
0.927521
0.927469
0.92741
0.927392
0.927387
0.927366
0.927287
0.927121
0.927078
0.927079
0.927071
0.92704
0.926988
0.926925
0.92688
0.926839
0.92679
0.926745
0.926708
0.926666
0.926616
0.926543
0.926443
0.926297
0.926108
0.925919
0.925759
0.925617
0.92547
0.925321
0.925187
0.92503
0.924822
0.924605
0.924352
0.924152
0.924041
0.923992
0.92386
0.923513
0.923059
0.922795
0.922587
0.922374
0.922205
0.922018
0.921692
0.921225
0.920841
0.92051
0.920167
0.919794
0.919425
0.919034
0.9186
0.918168
0.917823
0.917523
0.917119
0.916801
0.916696
0.916694
0.916642
0.916534
0.916485
0.916502
0.916599
0.916767
0.916928
0.917056
0.917262
0.917522
0.917716
0.917941
0.918624
0.92161
0.929481
0.948663
0.973653
0.997248
1.01583
1.02237
1.02416
0.928323
0.928316
0.928306
0.928295
0.928281
0.928255
0.928205
0.928163
0.928154
0.928147
0.928121
0.92811
0.928098
0.928054
0.928009
0.927965
0.927895
0.927771
0.927613
0.927453
0.927392
0.927371
0.927328
0.927202
0.926976
0.92675
0.926576
0.926445
0.926392
0.926374
0.926358
0.92633
0.926302
0.926287
0.926299
0.92635
0.926415
0.926437
0.92641
0.926318
0.926109
0.925803
0.925503
0.925326
0.925268
0.92518
0.925059
0.924981
0.924873
0.924729
0.924534
0.924257
0.924059
0.923978
0.923976
0.923906
0.923642
0.923205
0.922865
0.922609
0.922325
0.922048
0.92177
0.921392
0.920874
0.920439
0.920096
0.919762
0.919422
0.919039
0.918623
0.918209
0.917861
0.917607
0.91731
0.916922
0.916687
0.916605
0.916604
0.916587
0.916487
0.916348
0.916317
0.916387
0.916591
0.916739
0.916903
0.917157
0.917376
0.917578
0.917696
0.91786
0.918428
0.920566
0.928494
0.946795
0.979347
1.01122
1.01955
1.02289
0.927939
0.927961
0.927971
0.927975
0.927974
0.927953
0.927919
0.927925
0.927956
0.927981
0.927986
0.927981
0.92795
0.927933
0.927907
0.927838
0.927695
0.927438
0.927176
0.927129
0.927129
0.927128
0.927111
0.927029
0.926828
0.926556
0.926309
0.926171
0.926118
0.92611
0.92611
0.926099
0.926059
0.92606
0.926101
0.926174
0.926248
0.9263
0.926285