/*--------------------------------*- C++ -*----------------------------------*\
  =========                 |
  \\      /  F ield         | OpenFOAM: The Open Source CFD Toolbox
   \\    /   O peration     | Website:  https://openfoam.org
    \\  /    A nd           | Version:  7
     \\/     M anipulation  |
\*---------------------------------------------------------------------------*/
FoamFile
{
    version     2.0;
    format      ascii;
    class       volScalarField;
    location    "7.2";
    object      rho;
}
// * * * * * * * * * * * * * * * * * * * * * * * * * * * * * * * * * * * * * //

dimensions      [1 -3 0 0 0 0 0];

internalField   nonuniform List<scalar> 
1750
(
0.235276
0.427352
0.534252
0.54569
0.576715
0.648385
0.718224
0.769016
0.817327
0.862914
0.0727018
0.128654
0.308536
0.463667
0.592145
0.654973
0.689893
0.715273
0.745626
0.795637
0.0814601
0.0849333
0.107111
0.229455
0.431756
0.558137
0.669991
0.738202
0.784108
0.789905
0.109249
0.125623
0.15192
0.180806
0.208364
0.289467
0.434222
0.617853
0.72176
0.812689
0.207667
0.226374
0.242077
0.251334
0.263669
0.283478
0.29211
0.336222
0.435844
0.700419
0.324358
0.344119
0.348079
0.354931
0.372899
0.390849
0.404063
0.416514
0.429473
0.470052
0.50808
0.516469
0.52346
0.526696
0.52569
0.530277
0.532867
0.536842
0.530894
0.518541
0.790251
0.770766
0.755249
0.738465
0.723263
0.706392
0.688108
0.67423
0.668132
0.661383
1.15413
1.11393
1.07537
1.03456
0.993977
0.957556
0.924567
0.887559
0.860802
0.822192
1.42158
1.39722
1.36802
1.33285
1.29115
1.24519
1.19751
1.14854
1.10277
1.0309
1.46962
1.4676
1.46443
1.45845
1.4486
1.4335
1.41106
1.38012
1.34521
1.27237
1.45015
1.45399
1.45683
1.45792
1.45787
1.45746
1.45613
1.45291
1.44753
1.42494
1.41211
1.41619
1.42113
1.4271
1.43306
1.43846
1.44298
1.44631
1.44765
1.44678
1.40063
1.40108
1.40185
1.40319
1.40524
1.40829
1.41227
1.41743
1.42312
1.43133
1.40001
1.40002
1.40004
1.40009
1.40019
1.40041
1.40085
1.40172
1.40315
1.40808
0.0767673
0.0692062
0.0784853
0.097193
0.181468
0.307483
0.505982
0.818761
1.20089
1.43987
1.47082
1.44576
1.40888
1.40041
1.40001
0.076741
0.0624921
0.0819822
0.115542
0.21533
0.365113
0.624225
0.96777
1.31676
1.47117
1.47193
1.4361
1.40458
1.40014
1.40001
0.071314
0.0555045
0.0814608
0.124318
0.239905
0.430564
0.714463
1.06673
1.38266
1.48043
1.47147
1.42609
1.4024
1.40007
1.40001
0.0648468
0.0510413
0.0771209
0.142252
0.285471
0.51814
0.811657
1.17791
1.44012
1.48532
1.46239
1.41742
1.40118
1.40003
1.40001
0.057879
0.0482189
0.0786535
0.184228
0.346382
0.593696
0.926315
1.29887
1.47826
1.48704
1.45375
1.41078
1.40051
1.40001
1.40001
0.052485
0.0464084
0.0963372
0.229615
0.416404
0.689063
1.08255
1.39931
1.4946
1.48758
1.44112
1.40525
1.40019
1.40001
1.40001
0.0420447
0.0585443
0.129891
0.26207
0.506097
0.858166
1.23021
1.46298
1.50046
1.47926
1.42593
1.40232
1.40007
1.40001
1.40001
0.0262873
0.0709916
0.168214
0.326782
0.637177
1.03107
1.35483
1.49818
1.50187
1.46599
1.41447
1.40091
1.40003
1.40001
1.40001
0.0187612
0.0692349
0.207801
0.465115
0.828602
1.19434
1.45084
1.51203
1.50171
1.44578
1.40661
1.40028
1.40001
1.40001
1.40001
0.0154677
0.0871061
0.27479
0.637097
1.03108
1.35417
1.50385
1.51523
1.48444
1.42676
1.4026
1.40009
1.40001
1.40001
1.40001
0.0189251
0.156889
0.454165
0.852381
1.22997
1.46722
1.52327
1.51549
1.46357
1.41297
1.40081
1.40003
1.40001
1.40001
1.40001
0.0391097
0.267472
0.699396
1.11346
1.40587
1.52053
1.52715
1.49923
1.43755
1.40475
1.40021
1.40001
1.40001
1.40001
1.40001
0.185903
0.520992
0.988259
1.34137
1.50597
1.53607
1.5266
1.47411
1.41755
1.40143
1.40005
1.40001
1.40001
1.40001
1.40001
0.427826
0.878648
1.28848
1.48129
1.54059
1.53828
1.50548
1.441
1.40596
1.40031
1.40001
1.40001
1.40001
1.40001
1.40001
0.907429
1.27158
1.48016
1.53712
1.54586
1.52886
1.47102
1.41725
1.40147
1.40006
1.40001
1.40001
1.40001
1.40001
1.40001
1.53127
1.5367
1.54374
1.54433
1.54049
1.49829
1.43412
1.4035
1.40004
1.40001
1.40001
1.40001
1.40001
1.40001
1.40001
1.52921
1.5343
1.54238
1.54191
1.53362
1.49122
1.43423
1.40454
1.40021
1.40001
1.40001
1.40001
1.40001
1.40001
1.40001
1.52894
1.5343
1.54328
1.5417
1.52621
1.47161
1.41682
1.4012
1.40003
1.40001
1.40001
1.40001
1.40001
1.40001
1.40001
1.52975
1.53541
1.54252
1.53884
1.51285
1.45382
1.40967
1.40055
1.40002
1.40001
1.40001
1.40001
1.40001
1.40001
1.40001
1.53192
1.53626
1.53984
1.53458
1.49836
1.43701
1.40489
1.4002
1.40001
1.40001
1.40001
1.40001
1.40001
1.40001
1.40001
1.53466
1.53776
1.53862
1.52772
1.48135
1.4228
1.40213
1.40007
1.40001
1.40001
1.40001
1.40001
1.40001
1.40001
1.40001
1.53693
1.53925
1.53821
1.51608
1.45838
1.41192
1.40081
1.40003
1.40001
1.40001
1.40001
1.40001
1.40001
1.40001
1.40001
1.53852
1.53724
1.53057
1.49617
1.43943
1.40595
1.40029
1.40001
1.40001
1.40001
1.40001
1.40001
1.40001
1.40001
1.40001
1.54096
1.53133
1.52258
1.47793
1.42302
1.40232
1.40009
1.40001
1.40001
1.40001
1.40001
1.40001
1.40001
1.40001
1.40001
1.54427
1.52429
1.50979
1.45373
1.41139
1.40082
1.40003
1.40001
1.40001
1.40001
1.40001
1.40001
1.40001
1.40001
1.40001
1.54498
1.51318
1.48823
1.43329
1.40475
1.40024
1.40001
1.40001
1.40001
1.40001
1.40001
1.40001
1.40001
1.40001
1.40001
1.53689
1.50247
1.4653
1.41806
1.40169
1.40006
1.40001
1.40001
1.40001
1.40001
1.40001
1.40001
1.40001
1.40001
1.40001
1.52164
1.49263
1.44172
1.4072
1.40042
1.40002
1.40001
1.40001
1.40001
1.40001
1.40001
1.40001
1.40001
1.40001
1.40001
1.5027
1.46684
1.42135
1.40231
1.40009
1.40001
1.40001
1.40001
1.40001
1.40001
1.40001
1.40001
1.40001
1.40001
1.40001
1.47575
1.44145
1.40812
1.40051
1.40002
1.40001
1.40001
1.40001
1.40001
1.40001
1.40001
1.40001
1.40001
1.40001
1.40001
1.44343
1.4148
1.40173
1.40009
1.40001
1.40001
1.40001
1.40001
1.40001
1.40001
1.40001
1.40001
1.40001
1.40001
1.40001
1.40001
1.40001
1.40001
1.40001
1.40001
1.40001
1.40001
1.40001
1.40001
1.40001
1.40001
1.40001
1.40001
1.40001
1.40001
1.40001
1.40001
1.40001
1.40001
1.40001
1.40001
1.40001
1.40001
1.40001
1.40001
1.40001
1.40001
1.40001
1.40001
1.40001
1.40001
1.40001
1.40001
1.40001
1.40001
1.40001
1.40001
1.40001
1.40001
1.40001
1.40001
1.40001
1.40001
1.40001
1.40001
1.40001
1.40001
1.40001
1.40001
1.40001
1.40001
1.40001
1.40001
1.40001
1.40001
1.40001
1.40001
1.40001
1.40001
1.40001
1.40001
1.40001
1.40001
1.40001
1.40001
1.40001
1.40001
1.40001
1.40001
1.40001
1.40001
1.40001
1.40001
1.40001
1.40001
1.40001
1.40001
1.40001
1.40001
1.40001
1.40001
1.40001
1.40001
1.40001
1.40001
1.40001
1.40001
1.40001
1.40001
1.40001
1.40001
1.40001
1.40001
1.40001
1.40001
1.40001
1.40001
1.40001
1.40001
1.40001
1.40001
1.40001
1.40001
1.40001
1.40001
1.40001
1.40001
1.40001
1.40001
1.40001
1.40001
1.40001
1.40001
1.40001
1.40001
1.40001
1.40001
1.40001
1.40001
1.40001
1.40001
1.40001
1.40001
1.40001
1.40001
1.40001
1.40001
1.40001
1.40001
1.40001
1.40001
1.40001
1.40001
1.40001
1.40001
1.57925
1.40001
1.40001
1.40001
1.40001
1.40001
1.40001
1.40001
1.40001
1.40001
1.44314
1.40001
1.40001
1.40001
1.40001
1.40001
1.40001
1.40001
1.40001
1.40001
1.41305
1.40001
1.40001
1.40001
1.40001
1.40001
1.40001
1.40001
1.40001
1.40001
1.4029
1.40001
1.40001
1.40001
1.40001
1.40001
1.40001
1.40001
1.40001
1.40001
1.40051
1.40001
1.40001
1.40001
1.40001
1.40001
1.40001
1.40001
1.40001
1.40001
1.40007
1.40001
1.40001
1.40001
1.40001
1.40001
1.40001
1.40001
1.40001
1.40001
1.40001
1.40001
1.40001
1.40001
1.40001
1.40001
1.40001
1.40001
1.40001
1.40001
1.40001
1.40001
1.40001
1.40001
1.40001
1.40001
1.40001
1.40001
1.40001
1.40001
1.40001
1.40001
1.40001
1.40001
1.40001
1.40001
1.40001
1.40001
1.40001
1.40001
1.40001
1.40001
1.40001
1.40001
1.40001
1.40001
1.40001
1.40001
1.40001
1.40001
1.40001
1.40001
1.40001
1.40001
1.40001
1.40001
1.40001
1.40001
1.40001
1.40001
1.40001
1.40001
1.40001
1.40001
1.40001
1.40001
1.40001
1.40001
1.40001
1.40001
1.40001
1.40001
1.40001
1.40001
1.40001
1.40001
1.40001
1.40001
1.40001
1.40001
1.40001
1.40001
1.40001
1.40001
1.40001
1.40001
1.40001
1.40001
1.40001
1.40001
1.40001
1.40001
1.40001
1.40001
1.40001
1.40001
1.40001
1.40001
1.40001
1.40001
1.40001
1.40001
1.40001
1.40001
1.40001
1.40001
1.40001
1.40001
1.40001
1.40001
1.40001
1.40001
1.40001
1.40001
1.40001
1.40001
1.40001
1.40001
1.40001
1.40001
1.40001
1.40001
1.40001
1.40001
1.40001
1.40001
1.40001
1.40001
1.40001
1.40001
1.40001
1.40001
1.40001
1.40001
1.40001
1.40001
1.40001
1.40001
1.40001
1.40001
1.40001
1.40001
1.40001
1.40001
1.40001
1.40001
1.40001
1.40001
1.40001
1.40001
4.59963
3.52534
1.85039
1.40146
1.40025
1.40005
1.40001
1.40001
1.40001
1.40001
1.40001
1.40001
1.40001
1.40001
1.40001
1.40001
1.40001
1.40001
1.40001
1.40001
4.87543
4.74287
4.56764
2.91795
1.43066
1.40003
1.40001
1.40001
1.40001
1.40001
1.40001
1.40001
1.40001
1.40001
1.40001
1.40001
1.40001
1.40001
1.40001
1.40001
4.76888
4.7093
4.91837
4.90552
3.63823
1.63709
1.39999
1.40001
1.40001
1.40001
1.40001
1.40001
1.40001
1.40001
1.40001
1.40001
1.40001
1.40001
1.40001
1.40001
4.68712
4.67075
4.81811
4.92485
4.88672
3.89761
1.77992
1.39956
1.40001
1.40001
1.40001
1.40001
1.40001
1.40001
1.40001
1.40001
1.40001
1.40001
1.40001
1.40001
4.66563
4.67039
4.79338
4.83914
4.89411
4.88265
4.00248
1.83399
1.39906
1.40001
1.40001
1.40001
1.40001
1.40001
1.40001
1.40001
1.40001
1.40001
1.40001
1.40001
4.65067
4.65462
4.75026
4.80764
4.8461
4.87154
4.84149
3.92112
1.76628
1.39886
1.40001
1.40001
1.40001
1.40001
1.40001
1.40001
1.40001
1.40001
1.40001
1.40001
4.64078
4.64029
4.71922
4.77118
4.82719
4.84222
4.84425
4.77331
3.48931
1.57875
1.39938
1.40001
1.40001
1.40001
1.40001
1.40001
1.40001
1.40001
1.40001
1.40001
4.63168
4.62669
4.6915
4.74056
4.79737
4.82548
4.81669
4.8429
4.79127
3.07371
1.46819
1.3997
1.40001
1.40001
1.40001
1.40001
1.40001
1.40001
1.40001
1.40001
4.62112
4.61547
4.6618
4.70744
4.76607
4.79808
4.79484
4.7928
4.83348
4.55439
2.48786
1.40985
1.40001
1.40001
1.40001
1.40001
1.40001
1.40001
1.40001
1.40001
4.61227
4.60436
4.63837
4.6758
4.73425
4.76798
4.76832
4.77851
4.80124
4.79939
4.25004
1.9899
1.39772
1.40001
1.40001
1.40001
1.40001
1.40001
1.40001
1.40001
4.60079
4.59198
4.6191
4.65167
4.70346
4.73474
4.74706
4.76494
4.78672
4.80381
4.72115
3.58763
1.62919
1.39894
1.40001
1.40001
1.40001
1.40001
1.40001
1.40001
4.58858
4.57896
4.60227
4.6296
4.67717
4.7085
4.72563
4.74704
4.76545
4.74902
4.69916
4.48825
2.6459
1.43069
1.39987
1.4
1.40001
1.40001
1.40001
1.40001
4.56901
4.56004
4.58273
4.60703
4.65186
4.67823
4.69892
4.72386
4.72155
4.6994
4.6668
4.69852
4.24592
2.02138
1.40144
1.4
1.4
1.40001
1.40001
1.40001
4.53642
4.52611
4.54309
4.55552
4.58903
4.61208
4.63378
4.65863
4.65996
4.65678
4.65202
4.67913
4.5685
3.26719
1.55437
1.40064
1.40001
1.40001
1.40001
1.40001
4.39514
4.31925
4.32537
4.32774
4.35753
4.38983
4.4209
4.45668
4.48093
4.50699
4.52925
4.54795
4.49999
4.2819
2.24179
1.3822
1.39877
1.4
1.40001
1.40001
1.96733
2.6563
3.01757
3.30119
3.52465
3.69042
3.84163
3.95556
4.05802
4.13941
4.22163
4.28444
4.31335
4.37354
3.78027
1.94052
1.41736
1.40013
1.40001
1.40001
0.805846
1.64403
2.08788
2.4262
2.75215
3.0181
3.24892
3.44216
3.59559
3.729
3.85399
3.97449
4.05746
4.21289
4.22066
3.26364
1.71596
1.40772
1.40006
1.40001
0.777229
1.23873
1.54434
1.86955
2.16179
2.47261
2.72834
2.99065
3.18336
3.36332
3.51415
3.67534
3.80767
3.97589
4.12488
3.93835
2.62905
1.52037
1.40168
1.40001
0.822435
1.03114
1.17573
1.49956
1.7817
2.05061
2.31038
2.56718
2.79722
2.99959
3.17969
3.36828
3.55
3.71269
3.90278
3.89893
3.49808
2.01365
1.42642
1.4002
0.916902
0.968884
1.02123
1.22598
1.46766
1.72064
1.98741
2.22087
2.47493
2.67748
2.88974
3.08899
3.30449
3.46747
3.64252
3.78185
3.73849
2.78352
1.58921
1.40353
1.00444
0.988038
1.01943
1.14751
1.28767
1.48172
1.72481
1.96422
2.21728
2.43111
2.65572
2.86166
3.0784
3.24838
3.40718
3.5944
3.70714
3.4252
2.04603
1.43232
1.00758
0.995043
1.03781
1.08697
1.15892
1.33012
1.52728
1.74791
1.98018
2.21681
2.41402
2.64298
2.84211
3.03514
3.17746
3.36729
3.60867
3.58856
2.75702
1.59565
1.00348
1.00267
1.0311
1.04131
1.05539
1.17365
1.33854
1.55665
1.75388
2.00604
2.19453
2.42615
2.63279
2.8184
2.99675
3.18611
3.43752
3.55425
3.14182
1.96709
1.00936
1.01902
1.03301
1.03362
1.03838
1.1248
1.22654
1.40034
1.59776
1.81729
2.04538
2.23596
2.47333
2.64667
2.83917
3.0228
3.24978
3.46155
3.33568
2.57115
1.01869
1.02611
1.03834
1.036
1.04815
1.10149
1.16887
1.3087
1.48868
1.67165
1.91029
2.08983
2.31343
2.50441
2.67199
2.83902
3.04359
3.32298
3.34416
3.32106
1.01346
1.01884
1.03588
1.04758
1.06206
1.07434
1.10535
1.21804
1.38303
1.54985
1.76434
1.96165
2.12485
2.3382
2.49868
2.68298
2.88786
3.13271
3.39339
4.02544
1.01006
1.01742
1.0447
1.061
1.06214
1.05861
1.06188
1.12472
1.25016
1.42914
1.60525
1.83037
1.99194
2.19655
2.36725
2.56773
2.76099
2.98524
3.47093
4.69789
1.00907
1.02143
1.05609
1.07389
1.06976
1.06079
1.06189
1.11682
1.19965
1.35686
1.51577
1.71578
1.88891
2.07991
2.2585
2.44799
2.61182
2.84912
3.53204
5.32154
1.00603
1.02066
1.05329
1.07705
1.07744
1.06838
1.06798
1.10989
1.16363
1.29989
1.45045
1.61398
1.78712
1.94763
2.14654
2.31108
2.46839
2.7356
3.57831
5.77962
1.0001
1.01834
1.04608
1.07313
1.07533
1.06902
1.07423
1.09227
1.11712
1.22451
1.37077
1.50473
1.6831
1.81559
2.02296
2.20632
2.38899
2.66491
3.69727
6.10925
0.866362
0.994699
1.03424
1.06582
1.07435
1.07389
1.07868
1.08149
1.08842
1.15614
1.29373
1.41584
1.58338
1.74927
1.90335
2.11016
2.30798
2.6427
3.8849
6.24072
0.742423
0.91897
1.0065
1.05306
1.07928
1.08553
1.08613
1.08016
1.08551
1.14122
1.23932
1.36558
1.49238
1.68208
1.83756
2.01203
2.19198
2.6655
3.9918
6.15307
0.655826
0.825407
0.95569
1.03459
1.07879
1.09141
1.08929
1.0824
1.08222
1.12125
1.17471
1.30581
1.42738
1.58361
1.75866
1.91161
2.1137
2.74394
4.16676
6.0662
0.606988
0.746348
0.888146
0.997187
1.06612
1.08913
1.08775
1.08108
1.08928
1.11044
1.12108
1.20709
1.35483
1.48924
1.66439
1.82723
2.06035
2.91823
4.22456
5.84703
0.614278
0.700107
0.812585
0.934688
1.03013
1.07645
1.08483
1.08533
1.09157
1.09575
1.10006
1.15771
1.28009
1.42284
1.56543
1.74595
2.09932
3.18737
4.22301
5.49052
0.642506
0.666418
0.748172
0.865525
0.96923
1.04557
1.07786
1.08456
1.08658
1.08151
1.08589
1.13725
1.21893
1.34411
1.47304
1.67193
2.22482
3.41479
4.14664
5.08407
0.700971
0.676617
0.709384
0.795106
0.892687
0.9909
1.05493
1.07466
1.07463
1.06812
1.07237
1.11372
1.17512
1.27729
1.40375
1.68025
2.45067
3.56305
4.01864
4.59345
0.76221
0.722935
0.708609
0.732873
0.818201
0.920587
1.00525
1.05
1.06091
1.05827
1.06815
1.09396
1.12388
1.20206
1.35753
1.78983
2.66725
3.55218
3.86067
4.12822
0.833464
0.797064
0.725928
0.727235
0.751331
0.838908
0.93148
1.00879
1.04456
1.05267
1.06281
1.07108
1.08072
1.16277
1.39758
2.04886
2.85854
3.49752
3.67976
3.73068
0.923458
0.908116
0.843907
0.768003
0.74648
0.767215
0.828312
0.911909
0.984228
1.02439
1.04308
1.04705
1.07522
1.26
1.67681
2.31602
2.79354
3.2535
3.2586
3.18855
)
;

boundaryField
{
    inlet
    {
        type            calculated;
        value           uniform 1.40001;
    }
    outlet
    {
        type            calculated;
        value           nonuniform List<scalar> 
35
(
0.923455
0.908139
0.843914
0.768012
0.746546
0.767298
0.82829
0.911883
0.984206
1.02443
1.04312
1.04715
1.07543
1.26103
1.67865
2.31735
2.79416
3.25384
3.25862
3.18826
0.862985
0.795636
0.789953
0.812906
0.700746
0.470144
0.518608
0.661357
0.822162
1.0309
1.27237
1.42494
1.44678
1.43133
1.40808
)
;
    }
    airfoil
    {
        type            calculated;
        value           nonuniform List<scalar> 
60
(
0.0767673
0.076741
0.071314
0.0648468
0.057879
0.052485
0.0420447
0.0262873
0.0187612
0.0154677
0.0189251
0.0391097
0.185903
0.427826
0.907429
1.53127
1.52921
1.52894
1.52975
1.53192
1.53466
1.53693
1.53852
1.54096
1.54427
1.54498
1.53689
1.52164
1.5027
1.47575
4.59963
4.87543
4.76888
4.68712
4.66563
4.65067
4.64078
4.63168
4.62112
4.61227
4.60079
4.58858
4.56901
4.53642
4.39514
1.96733
0.805846
0.777229
0.822435
0.916902
1.00444
1.00758
1.00348
1.00936
1.01869
1.01346
1.01006
1.00907
1.00603
1.0001
)
;
    }
    top
    {
        type            symmetryPlane;
    }
    bottom
    {
        type            symmetryPlane;
    }
    defaultFaces
    {
        type            empty;
    }
}


// ************************************************************************* //
