/*--------------------------------*- C++ -*----------------------------------*\
  =========                 |
  \\      /  F ield         | OpenFOAM: The Open Source CFD Toolbox
   \\    /   O peration     | Website:  https://openfoam.org
    \\  /    A nd           | Version:  7
     \\/     M anipulation  |
\*---------------------------------------------------------------------------*/
FoamFile
{
    version     2.0;
    format      ascii;
    class       volScalarField;
    location    "10";
    object      rho;
}
// * * * * * * * * * * * * * * * * * * * * * * * * * * * * * * * * * * * * * //

dimensions      [1 -3 0 0 0 0 0];

internalField   nonuniform List<scalar> 
90000
(
0.407724
0.457208
0.494182
0.534615
0.575133
0.610106
0.650751
0.699068
0.744298
0.791572
0.841312
0.887633
0.93044
0.96903
1.0011
1.024
1.04189
1.04825
1.05573
1.05473
1.0515
1.04536
1.04159
1.04038
1.04088
1.04192
1.04578
1.04834
1.04987
1.05357
1.05348
1.05113
1.04995
1.05099
1.05275
1.05539
1.05838
1.06168
1.06585
1.06943
1.07189
1.07358
1.07367
1.07288
1.07178
1.07211
1.07342
1.07512
1.07665
1.07779
1.07952
1.08179
1.08325
1.08292
1.08234
1.08221
1.08267
1.08369
1.08479
1.0859
1.08649
1.08672
1.08666
1.08677
1.08707
1.08755
1.08873
1.09016
1.09091
1.09045
1.08988
1.09032
1.09188
1.09318
1.0928
1.09174
1.09113
1.09117
1.09167
1.09197
1.09365
1.09576
1.09596
1.09552
1.09464
1.09349
1.09254
1.09185
1.09185
1.09224
1.09209
1.09178
1.09208
1.0932
1.09425
1.09464
1.0948
1.09483
1.09458
1.09492
0.360136
0.360138
0.360142
0.360155
0.360327
0.36103
0.363029
0.36754
0.3759
0.388571
0.40933
0.436998
0.474528
0.520502
0.57699
0.637814
0.70456
0.766113
0.828091
0.877656
0.920295
0.95264
0.980873
1.00248
1.02207
1.03462
1.04702
1.04985
1.04959
1.04582
1.03929
1.03377
1.0323
1.03289
1.03243
1.03285
1.03552
1.04042
1.04613
1.05035
1.05385
1.05553
1.05606
1.05691
1.05876
1.06089
1.06227
1.06222
1.06192
1.06281
1.06447
1.06572
1.06651
1.06713
1.06818
1.06967
1.07099
1.07208
1.0732
1.07447
1.07515
1.07549
1.07589
1.07675
1.07795
1.07902
1.08039
1.08218
1.08318
1.08291
1.08296
1.08417
1.08682
1.0883
1.0879
1.08705
1.08719
1.08795
1.08863
1.08913
1.09038
1.09163
1.09173
1.09165
1.09161
1.09185
1.09193
1.0914
1.0914
1.09199
1.09195
1.09174
1.09211
1.09327
1.09445
1.09493
1.09512
1.09574
1.09607
1.09656
0.360556
0.360652
0.360762
0.360892
0.361039
0.361219
0.361375
0.361536
0.361711
0.3619
0.362108
0.362332
0.362592
0.362828
0.363879
0.36747
0.37606
0.392686
0.418154
0.45691
0.504623
0.566522
0.632885
0.705588
0.777022
0.843251
0.904943
0.952872
0.994149
1.0169
1.03343
1.04166
1.04274
1.04082
1.03562
1.0377
1.04101
1.04252
1.04368
1.04462
1.04575
1.04532
1.04582
1.048
1.05235
1.05612
1.05814
1.05824
1.05865
1.06044
1.06264
1.06257
1.06176
1.06187
1.063
1.06503
1.06682
1.06835
1.07009
1.07167
1.07213
1.07215
1.07245
1.07348
1.07499
1.07653
1.07831
1.0797
1.08027
1.08008
1.08076
1.08276
1.08539
1.08667
1.08622
1.08565
1.08629
1.08755
1.08789
1.08854
1.08952
1.09001
1.09006
1.0904
1.09136
1.09243
1.09261
1.09294
1.09394
1.09435
1.09423
1.09424
1.09469
1.09573
1.09679
1.09749
1.0981
1.09927
1.09964
1.1006
0.362865
0.363068
0.363297
0.363535
0.363797
0.364067
0.364359
0.364658
0.364988
0.365327
0.365707
0.366095
0.36653
0.366976
0.367434
0.368011
0.368236
0.368457
0.368739
0.369085
0.369474
0.370402
0.373951
0.384409
0.404343
0.43941
0.488766
0.558925
0.641077
0.734076
0.819688
0.900619
0.955761
1.0037
1.02927
1.04478
1.05378
1.05107
1.0509
1.05148
1.05025
1.04854
1.05103
1.05888
1.06431
1.06358
1.06276
1.06361
1.06619
1.06889
1.06863
1.06705
1.06551
1.06676
1.06904
1.07073
1.07157
1.07276
1.07463
1.07583
1.07573
1.07542
1.07592
1.07725
1.07864
1.08004
1.08145
1.08166
1.0804
1.08033
1.08214
1.08596
1.08786
1.08754
1.08677
1.0878
1.09031
1.09208
1.09131
1.09039
1.08989
1.09021
1.09056
1.09115
1.09234
1.09448
1.09602
1.09717
1.0977
1.0978
1.09799
1.09859
1.09961
1.10097
1.10238
1.10362
1.10483
1.10564
1.10662
1.10843
0.366156
0.366401
0.366665
0.366948
0.367242
0.367554
0.367879
0.368223
0.36858
0.368955
0.369347
0.369754
0.37018
0.370609
0.371066
0.371512
0.371984
0.372524
0.373097
0.373728
0.374375
0.375008
0.375852
0.376127
0.376471
0.376841
0.377432
0.377883
0.381079
0.393766
0.422183
0.472953
0.548627
0.642487
0.750769
0.840457
0.929808
0.978425
1.01998
1.03829
1.05104
1.05785
1.06546
1.08141
1.07951
1.07331
1.07138
1.07739
1.08212
1.07984
1.07502
1.07489
1.07725
1.08157
1.08301
1.08232
1.08238
1.08355
1.08464
1.08429
1.084
1.08465
1.08597
1.08699
1.08727
1.08794
1.08864
1.08833
1.08824
1.08969
1.09243
1.09454
1.09366
1.09333
1.09474
1.09751
1.09945
1.09963
1.09925
1.0988
1.09905
1.0988
1.09921
1.10024
1.10187
1.1032
1.10403
1.10489
1.10609
1.10709
1.10761
1.10826
1.10959
1.1111
1.11234
1.11355
1.11449
1.11542
1.11605
1.11781
0.369859
0.370126
0.370412
0.370714
0.371028
0.371358
0.371698
0.372055
0.37242
0.372806
0.373196
0.37361
0.374026
0.374477
0.374925
0.375407
0.375889
0.376415
0.376925
0.377486
0.378005
0.378601
0.379124
0.379732
0.380381
0.3811
0.381833
0.382568
0.383404
0.383779
0.384124
0.384708
0.385176
0.3878
0.402017
0.435535
0.496524
0.589499
0.697698
0.810701
0.904455
0.984552
1.03001
1.06233
1.07391
1.08217
1.09161
1.11091
1.11133
1.10417
1.09667
1.10167
1.10496
1.10304
1.09933
1.10002
1.10249
1.10513
1.10553
1.10488
1.10452
1.10479
1.10521
1.10515
1.10532
1.10621
1.10699
1.10701
1.1071
1.10835
1.11108
1.11209
1.11154
1.11138
1.11223
1.11419
1.11438
1.11362
1.11281
1.11261
1.11251
1.11191
1.11206
1.11278
1.11442
1.11614
1.11722
1.118
1.11867
1.11883
1.11919
1.12017
1.12155
1.1227
1.12365
1.12466
1.12561
1.12624
1.12647
1.12778
0.374175
0.374446
0.374739
0.375036
0.375349
0.375669
0.376009
0.37635
0.376709
0.377066
0.377446
0.377821
0.378223
0.378624
0.379054
0.379478
0.379929
0.380378
0.380862
0.381345
0.381861
0.382379
0.382931
0.383499
0.384081
0.384674
0.385265
0.385879
0.386468
0.387083
0.38779
0.388506
0.38922
0.389998
0.390369
0.390727
0.391225
0.391629
0.397083
0.42215
0.474099
0.562171
0.676104
0.797078
0.907367
0.995795
1.05702
1.08987
1.10574
1.11179
1.11686
1.13299
1.13499
1.1291
1.12039
1.12133
1.1223
1.12132
1.11997
1.12051
1.12242
1.12492
1.12564
1.12505
1.12434
1.1245
1.12476
1.12478
1.12534
1.1276
1.12932
1.1286
1.12723
1.12734
1.12883
1.13067
1.13062
1.12898
1.12809
1.12807
1.12777
1.12691
1.12718
1.12807
1.12909
1.12933
1.12979
1.13058
1.13116
1.13135
1.13157
1.1324
1.13365
1.13453
1.1351
1.1355
1.13588
1.13581
1.13565
1.13632
0.378404
0.378654
0.378913
0.379185
0.379459
0.37975
0.380048
0.380361
0.380673
0.381
0.38133
0.381676
0.382028
0.382398
0.382774
0.383168
0.383568
0.383989
0.384423
0.384876
0.385342
0.385821
0.386315
0.386816
0.387333
0.387848
0.388385
0.388908
0.38946
0.389991
0.390563
0.391066
0.391644
0.392104
0.392672
0.393205
0.393814
0.394359
0.394613
0.394841
0.39526
0.395536
0.399164
0.418051
0.47026
0.559986
0.686134
0.820216
0.93827
1.03608
1.09113
1.12504
1.1339
1.13593
1.13868
1.14807
1.14763
1.14319
1.13771
1.13542
1.13583
1.13765
1.13972
1.14116
1.14198
1.14195
1.14147
1.14115
1.14222
1.14514
1.14508
1.14309
1.14137
1.14228
1.14441
1.14462
1.14342
1.14104
1.14082
1.14157
1.1415
1.14076
1.14118
1.14187
1.14166
1.14044
1.14011
1.1403
1.14023
1.13985
1.13974
1.14024
1.14087
1.14127
1.14156
1.14155
1.1414
1.14097
1.14082
1.14158
0.382445
0.382664
0.382898
0.383137
0.383382
0.383633
0.383898
0.38417
0.384451
0.384736
0.385032
0.385338
0.385654
0.385982
0.386319
0.386668
0.387026
0.387402
0.387787
0.388192
0.388599
0.389028
0.389451
0.389897
0.390328
0.390787
0.391222
0.391689
0.392124
0.392589
0.393014
0.393474
0.393905
0.394359
0.394798
0.395218
0.395628
0.395977
0.396346
0.396765
0.39718
0.397566
0.397965
0.398139
0.398387
0.398602
0.402352
0.424257
0.4877
0.597756
0.744117
0.892762
1.00316
1.08848
1.12839
1.14971
1.14956
1.15118
1.14951
1.15161
1.15034
1.14868
1.1492
1.14943
1.15028
1.15131
1.15174
1.15227
1.15425
1.15453
1.15191
1.14878
1.14928
1.15207
1.15387
1.15255
1.14949
1.148
1.14885
1.15077
1.15146
1.1514
1.15202
1.15185
1.15066
1.14847
1.14767
1.14707
1.14615
1.14485
1.14439
1.14483
1.14538
1.1457
1.14605
1.14606
1.14579
1.14508
1.14475
1.14535
0.386109
0.386303
0.38651
0.386719
0.386933
0.387151
0.38738
0.387615
0.387859
0.388107
0.388366
0.388631
0.38891
0.389193
0.389491
0.38979
0.390108
0.390427
0.390767
0.391105
0.391462
0.391812
0.392182
0.39254
0.392914
0.393271
0.393645
0.394
0.394365
0.394714
0.395071
0.395419
0.395765
0.396113
0.396444
0.396779
0.397083
0.397393
0.397701
0.398004
0.39829
0.398599
0.398873
0.399144
0.399502
0.399837
0.400057
0.400264
0.400599
0.400797
0.410819
0.449609
0.548759
0.698008
0.857498
1.00315
1.07712
1.13761
1.14811
1.15649
1.15578
1.15652
1.15734
1.15721
1.15686
1.15657
1.15547
1.15586
1.15847
1.15765
1.15469
1.15164
1.15345
1.15777
1.15789
1.15606
1.1526
1.15201
1.15365
1.15552
1.15663
1.15738
1.15835
1.15767
1.15472
1.15228
1.15171
1.15136
1.15044
1.14913
1.14867
1.14888
1.14905
1.14922
1.14938
1.14893
1.14827
1.14742
1.14728
1.14794
0.389522
0.38969
0.389865
0.390048
0.390231
0.390423
0.390618
0.39082
0.391025
0.391238
0.391455
0.391683
0.391914
0.39216
0.392407
0.392667
0.392928
0.393202
0.393477
0.393764
0.394049
0.394343
0.394634
0.39493
0.395218
0.395507
0.395791
0.396074
0.396351
0.396621
0.396889
0.397154
0.397423
0.397685
0.397946
0.398193
0.39843
0.398668
0.398902
0.399142
0.399398
0.399652
0.399905
0.400176
0.400441
0.400692
0.400972
0.401276
0.401564
0.401816
0.401937
0.402126
0.402261
0.40523
0.440002
0.526513
0.687645
0.868852
1.00095
1.10739
1.13587
1.15778
1.15641
1.15772
1.15893
1.15875
1.15691
1.15723
1.15912
1.15587
1.15141
1.1528
1.15832
1.1604
1.15866
1.15418
1.15271
1.15425
1.15641
1.15585
1.15615
1.157
1.15818
1.15723
1.15433
1.15245
1.15218
1.15179
1.15085
1.14989
1.14963
1.1495
1.14925
1.14935
1.1493
1.14869
1.14791
1.1473
1.14798
1.14912
0.392413
0.392548
0.392694
0.392843
0.392999
0.39316
0.393327
0.393494
0.393666
0.393841
0.394024
0.394211
0.394405
0.394601
0.394805
0.395013
0.395227
0.395441
0.395662
0.395884
0.396109
0.396333
0.396559
0.396782
0.397002
0.397219
0.39743
0.397637
0.397839
0.398039
0.398234
0.398432
0.398632
0.398831
0.399023
0.399204
0.399385
0.399572
0.399775
0.399989
0.400214
0.400446
0.400676
0.400903
0.401124
0.401355
0.401578
0.401808
0.402008
0.40218
0.402327
0.402521
0.402671
0.402747
0.40288
0.402975
0.406712
0.43888
0.545949
0.71712
0.896812
1.04841
1.10262
1.14617
1.14962
1.15448
1.15128
1.15272
1.15203
1.14753
1.14935
1.1561
1.16287
1.16146
1.15496
1.15182
1.15299
1.15662
1.15729
1.15519
1.15416
1.15519
1.15583
1.15412
1.15191
1.15218
1.15244
1.15173
1.15065
1.14988
1.14973
1.1493
1.14892
1.14901
1.14886
1.14826
1.14748
1.1474
1.14883
1.14986
0.394923
0.395035
0.395152
0.395275
0.395401
0.39553
0.395662
0.395797
0.395935
0.396078
0.396223
0.396371
0.396522
0.396677
0.396833
0.396993
0.397154
0.397318
0.397485
0.397653
0.397821
0.397988
0.398155
0.39832
0.398481
0.398637
0.39879
0.398936
0.399081
0.399224
0.399369
0.399516
0.399669
0.399819
0.399964
0.400104
0.400248
0.400411
0.400599
0.400801
0.401023
0.401243
0.401461
0.401661
0.401858
0.402029
0.402194
0.40235
0.402504
0.402624
0.402738
0.402864
0.402966
0.403104
0.403251
0.403422
0.40355
0.40373
0.403825
0.408709
0.461832
0.586631
0.782722
0.973043
1.07422
1.13627
1.13753
1.14975
1.14792
1.14504
1.15184
1.16308
1.16338
1.15661
1.14938
1.15059
1.15606
1.15826
1.15677
1.15244
1.15194
1.15257
1.15155
1.14931
1.14912
1.1517
1.15266
1.15174
1.15057
1.15013
1.15011
1.14951
1.14916
1.14926
1.14899
1.14825
1.14769
1.14826
1.15022
1.15034
0.39692
0.397007
0.3971
0.397194
0.397292
0.397391
0.397494
0.397599
0.397706
0.397815
0.397925
0.398037
0.39815
0.398263
0.398378
0.398495
0.398613
0.398731
0.39885
0.398972
0.399096
0.399218
0.399336
0.399454
0.399568
0.399678
0.399782
0.399886
0.39999
0.400099
0.400207
0.400326
0.40045
0.400574
0.400695
0.400817
0.400947
0.401106
0.401291
0.401499
0.401712
0.401928
0.402117
0.402285
0.402424
0.402537
0.402635
0.402727
0.402822
0.402908
0.403
0.403098
0.403206
0.403318
0.403437
0.403597
0.403806
0.404006
0.404183
0.404254
0.404351
0.404366
0.423248
0.501721
0.681003
0.887685
1.04022
1.13881
1.13912
1.15039
1.16332
1.16963
1.16523
1.14515
1.14691
1.15486
1.16015
1.15902
1.15383
1.15033
1.15103
1.15122
1.14898
1.14692
1.1482
1.15175
1.15267
1.15157
1.15067
1.15075
1.15063
1.15007
1.14988
1.14987
1.14922
1.14841
1.14823
1.14935
1.15152
1.15075
0.398565
0.398633
0.398705
0.398778
0.398852
0.398926
0.399002
0.399078
0.399155
0.399232
0.399308
0.399385
0.399464
0.399544
0.399624
0.399705
0.399789
0.399873
0.399956
0.400041
0.400133
0.400223
0.400308
0.400392
0.400475
0.400553
0.40063
0.400706
0.40079
0.400882
0.400978
0.401083
0.401197
0.40131
0.401424
0.40154
0.401665
0.401814
0.401995
0.402189
0.402389
0.402583
0.402745
0.402871
0.402959
0.403015
0.403069
0.403118
0.403167
0.403229
0.403306
0.403402
0.403505
0.403601
0.403717
0.403876
0.404086
0.404286
0.40443
0.40454
0.404623
0.404606
0.404563
0.40453
0.407784
0.451573
0.598008
0.821903
0.992544
1.11801
1.14852
1.16267
1.15163
1.1362
1.15184
1.16243
1.16028
1.15642
1.14907
1.14932
1.15149
1.15086
1.14742
1.14617
1.14874
1.15256
1.15241
1.15121
1.15107
1.15183
1.15139
1.15066
1.15057
1.15011
1.14913
1.14841
1.14873
1.1503
1.15211
1.1507
0.399827
0.399873
0.399924
0.399975
0.400025
0.400076
0.400127
0.40018
0.400233
0.400285
0.400334
0.400384
0.400432
0.400483
0.400534
0.400587
0.400642
0.4007
0.400761
0.400826
0.400895
0.400968
0.401038
0.401104
0.401167
0.401231
0.401298
0.401369
0.401448
0.401541
0.40164
0.401751
0.401869
0.40198
0.402089
0.402199
0.40231
0.402438
0.402589
0.402751
0.402916
0.403075
0.403205
0.403294
0.403337
0.403348
0.403376
0.403403
0.403423
0.403466
0.403545
0.403659
0.403781
0.403879
0.403971
0.404109
0.404293
0.40446
0.404561
0.404643
0.404689
0.404651
0.40462
0.404636
0.404632
0.404694
0.404785
0.428227
0.548074
0.756822
0.944611
1.08819
1.11629
1.13663
1.17006
1.16833
1.16194
1.14755
1.14595
1.15159
1.15647
1.15384
1.1486
1.14909
1.15308
1.15391
1.15137
1.1507
1.15161
1.15222
1.15161
1.15087
1.15076
1.15003
1.14875
1.14845
1.14946
1.15132
1.15201
1.15056
0.40085
0.400877
0.400907
0.400937
0.400969
0.401
0.401031
0.401062
0.401095
0.401126
0.401154
0.401182
0.401213
0.401245
0.401279
0.401316
0.401357
0.401402
0.401452
0.401508
0.401569
0.401632
0.4017
0.401766
0.401826
0.401887
0.401955
0.402028
0.402113
0.402213
0.402317
0.402429
0.402545
0.402646
0.402741
0.402832
0.402918
0.403012
0.403118
0.403234
0.403351
0.403466
0.403578
0.403648
0.403663
0.403661
0.403675
0.403712
0.40374
0.403779
0.403858
0.403981
0.404122
0.404209
0.404273
0.404378
0.404528
0.404643
0.404711
0.404799
0.404837
0.404823
0.404832
0.404864
0.404939
0.405083
0.405243
0.405383
0.405422
0.416489
0.508354
0.708683
0.940252
1.09625
1.15129
1.16429
1.1485
1.14065
1.14687
1.15789
1.16049
1.15501
1.1524
1.15627
1.1578
1.15497
1.15053
1.15073
1.1527
1.15229
1.15155
1.15123
1.1509
1.14994
1.14868
1.14912
1.15101
1.15226
1.15208
1.15066
0.401557
0.401575
0.401594
0.401614
0.401635
0.401657
0.401679
0.4017
0.401721
0.401741
0.401762
0.401784
0.401807
0.401831
0.401858
0.40189
0.401929
0.401976
0.40203
0.402089
0.402154
0.40222
0.40229
0.402368
0.40244
0.402507
0.402582
0.402658
0.402742
0.402843
0.402946
0.403045
0.403134
0.403208
0.403276
0.403341
0.403397
0.403448
0.403504
0.403566
0.403628
0.403699
0.4038
0.403875
0.403906
0.403922
0.403946
0.403986
0.404033
0.404094
0.404186
0.40433
0.404488
0.404553
0.404584
0.404641
0.404725
0.404768
0.404809
0.404874
0.404919
0.404969
0.405031
0.405114
0.405237
0.405374
0.40546
0.405511
0.405524
0.405466
0.405297
0.410172
0.490666
0.693776
0.912969
1.08811
1.11525
1.14824
1.15867
1.16667
1.16339
1.15467
1.15672
1.16279
1.16091
1.15379
1.15044
1.15233
1.15358
1.15254
1.15173
1.15203
1.15147
1.14991
1.14937
1.15072
1.15309
1.15311
1.15207
1.15044
0.402176
0.402194
0.402212
0.402231
0.40225
0.402269
0.402288
0.402307
0.402326
0.402346
0.402368
0.402391
0.402418
0.402447
0.402478
0.402515
0.402559
0.402609
0.402668
0.402729
0.402796
0.402867
0.402941
0.403022
0.403098
0.403165
0.403237
0.403313
0.403388
0.403472
0.403555
0.403623
0.403674
0.403715
0.403757
0.403801
0.403833
0.403853
0.403874
0.403892
0.403911
0.403948
0.404018
0.404105
0.40418
0.404228
0.404266
0.404313
0.404384
0.404474
0.404585
0.404746
0.404865
0.404894
0.404905
0.404922
0.40494
0.404936
0.404949
0.405002
0.405075
0.405182
0.405324
0.40547
0.405637
0.405707
0.405689
0.405663
0.405631
0.405447
0.405327
0.405385
0.405534
0.410146
0.477138
0.682654
0.934973
1.10904
1.14401
1.16167
1.15581
1.14775
1.1601
1.165
1.15904
1.1516
1.15183
1.15495
1.15444
1.15282
1.15267
1.15322
1.15224
1.15029
1.15057
1.15284
1.15447
1.15357
1.15215
1.15048
0.402724
0.402745
0.402768
0.402793
0.402818
0.402844
0.402871
0.402897
0.402925
0.402953
0.402986
0.403021
0.403057
0.403097
0.403139
0.403186
0.403236
0.403287
0.40334
0.403399
0.40346
0.403526
0.403594
0.403661
0.403724
0.403784
0.403846
0.403901
0.403946
0.403999
0.40405
0.404065
0.40407
0.40408
0.4041
0.404126
0.404153
0.404154
0.404152
0.40415
0.404146
0.404157
0.404208
0.404309
0.40443
0.404527
0.4046
0.404676
0.404764
0.404851
0.404974
0.405113
0.405154
0.405174
0.405174
0.405135
0.405103
0.405079
0.405069
0.4051
0.405211
0.405438
0.405656
0.405858
0.405949
0.405919
0.405831
0.405731
0.405583
0.40543
0.405471
0.405673
0.406085
0.406381
0.406397
0.408471
0.492615
0.708391
0.93597
1.08894
1.12489
1.14115
1.16575
1.16498
1.1514
1.15055
1.15439
1.15686
1.15447
1.15303
1.15442
1.15437
1.15214
1.15082
1.15189
1.15474
1.15504
1.15379
1.15223
1.15047
0.403305
0.403334
0.403363
0.403395
0.403427
0.403461
0.403499
0.403534
0.40357
0.403606
0.403646
0.403686
0.403727
0.403771
0.403814
0.403856
0.403899
0.403935
0.40397
0.404008
0.404049
0.404093
0.404141
0.404187
0.404232
0.40428
0.404328
0.40436
0.404379
0.404399
0.404414
0.404403
0.404382
0.404378
0.404386
0.404408
0.404448
0.40447
0.404469
0.40447
0.404474
0.404486
0.404521
0.404601
0.404734
0.40487
0.404988
0.4051
0.405178
0.405252
0.405373
0.405423
0.40543
0.405432
0.405417
0.405347
0.405305
0.405278
0.405279
0.40532
0.405488
0.405785
0.40604
0.406192
0.40618
0.406101
0.405995
0.405815
0.405622
0.405651
0.405796
0.406156
0.406539
0.406675
0.406548
0.406263
0.40598
0.410946
0.506248
0.73557
0.987355
1.12097
1.16313
1.15163
1.14442
1.15209
1.15873
1.15772
1.15335
1.15339
1.15644
1.15501
1.15179
1.15143
1.15346
1.1556
1.15514
1.1537
1.1522
1.15059
0.403939
0.403969
0.404001
0.404035
0.404068
0.404099
0.40413
0.404163
0.404198
0.404232
0.404264
0.404293
0.404325
0.404356
0.404383
0.404407
0.404428
0.404444
0.404456
0.404466
0.404479
0.404499
0.404523
0.40455
0.404588
0.404626
0.404653
0.40467
0.404675
0.404672
0.40468
0.404663
0.404637
0.404634
0.404643
0.404674
0.404723
0.404779
0.404831
0.404866
0.404891
0.404913
0.404947
0.40502
0.405145
0.405296
0.405452
0.405536
0.405584
0.405617
0.405621
0.40562
0.405613
0.405603
0.405579
0.405525
0.405523
0.405543
0.405625
0.405759
0.405988
0.406206
0.406369
0.40637
0.406312
0.406205
0.406047
0.405835
0.40586
0.406009
0.40633
0.406714
0.406875
0.406812
0.406605
0.406217
0.406247
0.406584
0.406798
0.416249
0.533859
0.78762
1.02721
1.09365
1.14688
1.16133
1.16097
1.15666
1.15197
1.15575
1.15844
1.15454
1.15159
1.15296
1.15562
1.15595
1.15499
1.15365
1.15248
1.15118
0.404503
0.404526
0.404555
0.404588
0.404618
0.404642
0.404666
0.40469
0.404716
0.404747
0.404768
0.404781
0.404801
0.404819
0.404822
0.404818
0.404816
0.404811
0.4048
0.404793
0.404791
0.404791
0.404797
0.404818
0.404851
0.40488
0.404903
0.404924
0.404931
0.40493
0.404947
0.404936
0.404891
0.404886
0.404894
0.404935
0.405031
0.405134
0.405259
0.40539
0.405442
0.405466
0.405499
0.405554
0.405631
0.405736
0.405833
0.405887
0.405911
0.405908
0.405849
0.405801
0.405789
0.405782
0.405794
0.405844
0.405931
0.406089
0.406258
0.406412
0.406561
0.406663
0.406647
0.406575
0.406462
0.406391
0.406286
0.4063
0.406407
0.406702
0.407035
0.407206
0.407165
0.407021
0.406605
0.406625
0.406986
0.407515
0.407783
0.407628
0.40731
0.43089
0.574316
0.850143
1.08592
1.13753
1.15817
1.15388
1.15182
1.16081
1.15894
1.15213
1.15261
1.15662
1.15751
1.15615
1.15472
1.15388
1.15313
1.15185
0.404968
0.404982
0.404997
0.405012
0.405027
0.405043
0.405059
0.405077
0.405098
0.405112
0.405119
0.405124
0.405124
0.405121
0.405123
0.405109
0.405068
0.405037
0.405025
0.405026
0.405026
0.405026
0.405037
0.405062
0.405094
0.405127
0.405162
0.405201
0.40524
0.405275
0.405322
0.405325
0.405308
0.405316
0.405357
0.405443
0.405602
0.405743
0.405913
0.406139
0.406176
0.40615
0.406133
0.406129
0.406146
0.406153
0.406155
0.406166
0.406183
0.406184
0.406125
0.406074
0.406081
0.406133
0.406246
0.406412
0.406621
0.406868
0.406989
0.407091
0.40708
0.407018
0.406886
0.406628
0.406532
0.406534
0.406625
0.406846
0.407194
0.407507
0.407644
0.407582
0.407475
0.40712
0.407017
0.40739
0.407985
0.408316
0.408282
0.40791
0.40779
0.407945
0.408222
0.455439
0.656794
0.918096
1.10609
1.13174
1.15443
1.16679
1.15869
1.14999
1.15651
1.16107
1.15882
1.15615
1.15467
1.15464
1.15393
1.15266
0.405469
0.405482
0.405493
0.405499
0.405505
0.405508
0.405513
0.405523
0.405533
0.405541
0.405544
0.405539
0.405533
0.40553
0.405525
0.405501
0.405438
0.405393
0.40539
0.405394
0.40539
0.405401
0.405449
0.405504
0.405562
0.405631
0.40571
0.405799
0.405901
0.405995
0.40609
0.406141
0.406156
0.406169
0.406186
0.406218
0.406307
0.406434
0.406609
0.406795
0.406811
0.406778
0.406752
0.406722
0.406671
0.406596
0.406516
0.40649
0.406495
0.406505
0.406518
0.406547
0.406613
0.406733
0.406914
0.407139
0.407371
0.407576
0.407641
0.407623
0.40753
0.407394
0.407143
0.406968
0.407013
0.40718
0.407433
0.407773
0.408111
0.408219
0.408115
0.408026
0.407774
0.407604
0.407936
0.40862
0.40898
0.409061
0.408869
0.408636
0.40875
0.409108
0.409694
0.409838
0.41014
0.49815
0.751075
1.01102
1.13744
1.16172
1.14984
1.15171
1.16458
1.16319
1.15863
1.15642
1.15602
1.15563
1.15459
1.154
0.405878
0.40589
0.405907
0.40593
0.405937
0.405933
0.405936
0.405952
0.405978
0.406
0.406013
0.406017
0.406018
0.406017
0.406017
0.406006
0.405975
0.405969
0.405987
0.406001
0.406004
0.406046
0.40616
0.40621
0.406256
0.40633
0.406423
0.406544
0.40668
0.406777
0.406878
0.406951
0.406939
0.406914
0.406895
0.40688
0.406886
0.406964
0.4071
0.407167
0.407213
0.40725
0.407246
0.407207
0.407106
0.40694
0.406838
0.406849
0.406915
0.407045
0.407206
0.407368
0.407495
0.407606
0.407758
0.407903
0.408051
0.408153
0.40818
0.408135
0.407971
0.407693
0.407564
0.407619
0.407806
0.408194
0.40863
0.408926
0.408939
0.408853
0.408652
0.408481
0.408456
0.408733
0.409373
0.409826
0.409779
0.409749
0.409491
0.409524
0.409799
0.410489
0.410844
0.411098
0.411416
0.411593
0.42516
0.57259
0.851363
1.06576
1.12385
1.15616
1.17352
1.16592
1.15868
1.15754
1.15732
1.1567
1.1557
1.1564
0.406652
0.406655
0.40666
0.406679
0.406717
0.406763
0.406812
0.406855
0.406887
0.406928
0.406976
0.407001
0.407015
0.40703
0.407054
0.40707
0.407069
0.407077
0.407097
0.407097
0.407108
0.407127
0.407154
0.407218
0.407249
0.407261
0.407309
0.407399
0.407508
0.407579
0.407659
0.407727
0.407714
0.40768
0.407639
0.407538
0.407494
0.407497
0.407522
0.407536
0.407591
0.407706
0.407783
0.407791
0.407728
0.407725
0.407762
0.407853
0.408002
0.408226
0.408428
0.408547
0.408613
0.408654
0.408686
0.408734
0.408784
0.408805
0.408802
0.408749
0.408632
0.408659
0.408787
0.408978
0.409283
0.409605
0.409895
0.409865
0.409792
0.409616
0.409419
0.409502
0.409819
0.410349
0.410889
0.410746
0.410634
0.410485
0.41059
0.410875
0.411484
0.412302
0.412371
0.412525
0.412797
0.41319
0.413708
0.413886
0.460081
0.672254
0.96707
1.13
1.17017
1.1533
1.16216
1.15912
1.15837
1.1587
1.15858
1.16056
0.407838
0.40784
0.407845
0.407858
0.407882
0.407921
0.407965
0.408005
0.408046
0.408087
0.408121
0.408156
0.408182
0.408199
0.408215
0.408225
0.408233
0.408243
0.408243
0.408236
0.40823
0.408222
0.408192
0.408133
0.408107
0.408108
0.408129
0.408167
0.408208
0.408248
0.408306
0.408387
0.408421
0.408402
0.408357
0.40826
0.408182
0.408155
0.408153
0.408179
0.408263
0.408429
0.408638
0.408823
0.409014
0.409165
0.40924
0.4093
0.409399
0.409588
0.409757
0.409766
0.409766
0.409736
0.409672
0.409661
0.409669
0.409585
0.409457
0.409495
0.409641
0.409878
0.410167
0.410497
0.410786
0.410996
0.410956
0.410836
0.410757
0.410711
0.410842
0.411154
0.411626
0.412229
0.412159
0.411957
0.411742
0.41186
0.412273
0.41317
0.413781
0.414206
0.414527
0.414887
0.415332
0.415811
0.416393
0.417105
0.417333
0.419245
0.525194
0.798703
1.05971
1.12008
1.17141
1.1613
1.16185
1.16247
1.16254
1.16571
0.409209
0.409214
0.409202
0.409177
0.409171
0.409171
0.409184
0.409212
0.409244
0.409291
0.409335
0.409353
0.409372
0.409404
0.409431
0.409449
0.409453
0.409457
0.409465
0.409467
0.409466
0.409468
0.409417
0.40932
0.409297
0.40932
0.409337
0.409325
0.409312
0.409328
0.409375
0.409449
0.409543
0.409594
0.409613
0.409652
0.409702
0.409734
0.409761
0.409803
0.409906
0.410081
0.410287
0.410523
0.410787
0.410953
0.410975
0.410943
0.410937
0.41104
0.41112
0.411094
0.411
0.410936
0.41095
0.410987
0.410994
0.410936
0.410976
0.411078
0.411272
0.41159
0.412017
0.412395
0.412602
0.412688
0.412594
0.412461
0.412489
0.412716
0.413073
0.413469
0.41403
0.414106
0.413977
0.413698
0.413792
0.414295
0.415302
0.416557
0.417084
0.417166
0.4176
0.418242
0.419044
0.419725
0.420253
0.421518
0.422445
0.423808
0.424349
0.452255
0.639824
0.942805
1.13829
1.15157
1.1701
1.17014
1.16929
1.17308
0.410506
0.410551
0.41055
0.410529
0.410488
0.410451
0.410444
0.410453
0.410468
0.410508
0.410577
0.410601
0.410584
0.410576
0.41059
0.410615
0.410655
0.410683
0.410703
0.410739
0.410779
0.41077
0.410764
0.410803
0.410798
0.410744
0.410747
0.410783
0.410837
0.410902
0.410968
0.411062
0.411274
0.411462
0.41149
0.411535
0.411634
0.411744
0.411809
0.411799
0.41181
0.411914
0.412093
0.412303
0.412494
0.4126
0.412608
0.412579
0.412532
0.412538
0.412556
0.41247
0.412427
0.4125
0.412615
0.412728
0.412855
0.413071
0.413299
0.413506
0.413744
0.414043
0.41436
0.414555
0.414708
0.414844
0.414794
0.414762
0.414908
0.415348
0.416045
0.416575
0.4169
0.416873
0.41695
0.417332
0.418074
0.419291
0.42033
0.420601
0.421196
0.421352
0.42169
0.422421
0.423736
0.425382
0.426425
0.427182
0.428699
0.429934
0.431239
0.431691
0.432187
0.525437
0.801101
1.03851
1.16915
1.16712
1.17737
1.1823
0.412522
0.412569
0.412598
0.41259
0.412549
0.412479
0.412456
0.41246
0.412466
0.412461
0.412481
0.412538
0.412535
0.412496
0.412497
0.41257
0.412647
0.41269
0.412743
0.412835
0.412942
0.413034
0.413151
0.413246
0.413305
0.413362
0.413349
0.413307
0.413343
0.413459
0.413541
0.413586
0.413696
0.413972
0.414092
0.414147
0.414296
0.414479
0.414595
0.414621
0.414551
0.414496
0.414539
0.41465
0.414767
0.414801
0.41478
0.414747
0.414734
0.414769
0.414805
0.414878
0.415059
0.415285
0.41549
0.41569
0.415985
0.416349
0.416715
0.417009
0.417199
0.417444
0.417581
0.417635
0.417762
0.418006
0.41833
0.418768
0.419213
0.419696
0.420511
0.42088
0.420947
0.421201
0.421815
0.422785
0.424006
0.425074
0.425751
0.425755
0.426037
0.42716
0.428501
0.429656
0.430431
0.431848
0.433877
0.434461
0.435372
0.436686
0.438088
0.439629
0.441184
0.441975
0.464806
0.667262
0.985159
1.11448
1.1834
1.19019
0.414699
0.414714
0.414783
0.414849
0.414887
0.414882
0.414831
0.414799
0.414796
0.414797
0.41482
0.414853
0.414877
0.414916
0.41497
0.415035
0.415169
0.415258
0.415292
0.415371
0.41552
0.415701
0.415875
0.416028
0.416186
0.416332
0.41639
0.416366
0.416357
0.416431
0.416555
0.416632
0.416722
0.416954
0.417126
0.417187
0.41732
0.417499
0.417595
0.417643
0.417597
0.417493
0.417507
0.417587
0.417712
0.417828
0.417806
0.417799
0.417918
0.41817
0.418436
0.418749
0.419164
0.419663
0.420076
0.42038
0.420664
0.421001
0.421379
0.421682
0.421886
0.422129
0.422533
0.422577
0.422749
0.423167
0.423805
0.424615
0.425382
0.425844
0.426263
0.42691
0.427272
0.427934
0.429001
0.43002
0.431315
0.431718
0.432295
0.433457
0.434554
0.435627
0.436891
0.438609
0.440098
0.440441
0.441479
0.4434
0.445168
0.446707
0.447968
0.449562
0.451189
0.452804
0.453477
0.455283
0.548901
0.836139
1.09741
1.17962
0.419634
0.419708
0.419828
0.419982
0.420145
0.420264
0.420334
0.420388
0.420464
0.420581
0.420723
0.420852
0.420976
0.42107
0.421109
0.421155
0.421249
0.421364
0.421471
0.421616
0.42176
0.421828
0.421901
0.42203
0.422128
0.422234
0.422363
0.422435
0.422513
0.422596
0.422626
0.422686
0.422767
0.422818
0.422857
0.42287
0.422911
0.423036
0.423148
0.423243
0.423402
0.423468
0.42346
0.423547
0.423763
0.42409
0.424449
0.424716
0.425057
0.425469
0.425873
0.426255
0.426704
0.42721
0.42769
0.428063
0.428346
0.428629
0.428869
0.429208
0.42959
0.430012
0.430615
0.431452
0.432184
0.432836
0.433456
0.433934
0.434745
0.435589
0.436109
0.436765
0.437796
0.438719
0.4398
0.440696
0.441295
0.442299
0.443434
0.444499
0.445804
0.447096
0.448213
0.449262
0.451041
0.452736
0.453424
0.4546
0.455884
0.457108
0.458421
0.460082
0.461655
0.463271
0.464936
0.46649
0.466562
0.502629
0.687123
1.03552
0.428889
0.428898
0.428929
0.428918
0.428919
0.428981
0.429026
0.429018
0.429045
0.429095
0.429077
0.429111
0.429152
0.429145
0.429162
0.429228
0.429225
0.429221
0.429264
0.429314
0.429297
0.429298
0.429359
0.429481
0.429542
0.429595
0.429704
0.429858
0.43003
0.430183
0.430231
0.430318
0.430393
0.430372
0.43043
0.430638
0.430914
0.431236
0.431588
0.43194
0.432275
0.432636
0.43302
0.433438
0.433915
0.434416
0.43499
0.435585
0.436104
0.436586
0.437001
0.437546
0.437937
0.438168
0.438514
0.438969
0.439425
0.439949
0.440464
0.440959
0.441599
0.442315
0.443066
0.443926
0.444661
0.445338
0.446079
0.446578
0.44701
0.447967
0.448922
0.449633
0.450684
0.451677
0.452551
0.453754
0.454773
0.455752
0.45691
0.458089
0.459087
0.460111
0.461524
0.462503
0.463052
0.464312
0.46528
0.46637
0.467828
0.469324
0.470754
0.472388
0.473351
0.473991
0.474874
0.476687
0.478105
0.478547
0.480765
0.718699
0.441188
0.441271
0.441378
0.441494
0.441616
0.441752
0.441893
0.442038
0.442186
0.442351
0.442508
0.442684
0.442933
0.443128
0.443318
0.443566
0.443815