/*--------------------------------*- C++ -*----------------------------------*\
  =========                 |
  \\      /  F ield         | OpenFOAM: The Open Source CFD Toolbox
   \\    /   O peration     | Website:  https://openfoam.org
    \\  /    A nd           | Version:  7
     \\/     M anipulation  |
\*---------------------------------------------------------------------------*/
FoamFile
{
    version     2.0;
    format      ascii;
    class       volScalarField;
    location    "7";
    object      p;
}
// * * * * * * * * * * * * * * * * * * * * * * * * * * * * * * * * * * * * * //

dimensions      [1 -1 -2 0 0 0 0];

internalField   nonuniform List<scalar> 
90000
(
0.125619
0.177518
0.223135
0.247135
0.283491
0.321821
0.342189
0.368194
0.408741
0.444941
0.483562
0.528768
0.578533
0.629055
0.68242
0.736726
0.787285
0.838118
0.877004
0.914208
0.93653
0.951521
0.958403
0.959633
0.952818
0.947652
0.939898
0.932174
0.923477
0.920821
0.921258
0.924626
0.926212
0.928719
0.925267
0.917066
0.905076
0.890643
0.879297
0.879098
0.887555
0.899868
0.917108
0.937903
0.953782
0.965084
0.961723
0.952194
0.936167
0.921091
0.908729
0.90673
0.909827
0.921104
0.934408
0.944318
0.949132
0.942428
0.931445
0.919321
0.914636
0.915709
0.924144
0.933611
0.941332
0.935462
0.926274
0.921049
0.920832
0.928627
0.941706
0.93964
0.932741
0.926202
0.926411
0.931766
0.934931
0.931057
0.926959
0.927114
0.932229
0.935779
0.932087
0.927304
0.92635
0.927784
0.928504
0.925592
0.923942
0.923801
0.925872
0.928452
0.930698
0.932566
0.934785
0.935358
0.939128
0.940022
0.941932
0.94599
0.082915
0.0828975
0.0828788
0.0828607
0.0828414
0.0828239
0.0828047
0.0827951
0.0827545
0.0831585
0.0850518
0.089272
0.0979571
0.111129
0.13186
0.158354
0.19541
0.240369
0.297235
0.361288
0.436166
0.511836
0.585997
0.657407
0.71959
0.776966
0.821677
0.8634
0.887927
0.913362
0.923647
0.933854
0.93462
0.936389
0.930825
0.928168
0.925837
0.92337
0.921329
0.926942
0.934523
0.936578
0.93983
0.943534
0.942357
0.931684
0.922293
0.917573
0.915101
0.9166
0.922688
0.929815
0.93578
0.939612
0.942828
0.937447
0.930804
0.925084
0.921947
0.922708
0.926831
0.931965
0.935674
0.935175
0.930761
0.924303
0.921469
0.924536
0.931792
0.940772
0.939024
0.932776
0.927946
0.9286
0.932895
0.935266
0.932491
0.928063
0.927234
0.929973
0.933081
0.930431
0.928098
0.927708
0.928067
0.927965
0.925936
0.925387
0.925349
0.925777
0.926165
0.928341
0.929621
0.932994
0.935046
0.935672
0.93811
0.938768
0.940918
0.944651
0.0829273
0.0829287
0.0829302
0.0829315
0.0829324
0.0829338
0.0829352
0.0829375
0.0829387
0.0829476
0.0829141
0.0828722
0.0828331
0.0827984
0.0827732
0.0827526
0.0827408
0.0827309
0.0827357
0.0826981
0.0840928
0.0892626
0.102812
0.125046
0.161342
0.205725
0.2648
0.330265
0.408683
0.487112
0.56692
0.644016
0.715066
0.78459
0.840882
0.89846
0.937946
0.974294
0.993807
1.0003
0.994541
0.986443
0.969041
0.942693
0.914526
0.888005
0.872255
0.877272
0.892707
0.916162
0.938746
0.955223
0.959573
0.95263
0.938243
0.922222
0.911011
0.908537
0.911976
0.922016
0.934158
0.940011
0.936313
0.928863
0.923137
0.923913
0.929373
0.934593
0.938539
0.933841
0.930262
0.929648
0.930469
0.932087
0.934007
0.931425
0.928886
0.927307
0.927772
0.930653
0.931801
0.932102
0.930943
0.928808
0.928018
0.928408
0.929406
0.928835
0.927454
0.928643
0.929354
0.930425
0.929291
0.930545
0.931939
0.935428
0.940562
0.943088
0.94579
0.947494
0.0828788
0.0828771
0.0828761
0.0828742
0.0828727
0.0828707
0.0828706
0.0828705
0.0828735
0.0828756
0.0828794
0.0828843
0.0828908
0.0828992
0.082911
0.0829192
0.0829294
0.082937
0.0829405
0.0829514
0.0829346
0.0829099
0.082888
0.0828694
0.082856
0.0828432
0.0828413
0.0828189
0.0836102
0.0884668
0.103826
0.1293
0.173571
0.230118
0.310549
0.401873
0.505015
0.611394
0.702637
0.787379
0.835833
0.885541
0.89587
0.904848
0.898949
0.903413
0.910666
0.920453
0.926868
0.930356
0.935182
0.940595
0.939528
0.930652
0.923163
0.922605
0.923041
0.927201
0.929212
0.931663
0.934366
0.931739
0.927074
0.923395
0.922251
0.92461
0.929885
0.937106
0.939413
0.935935
0.930466
0.929086
0.931442
0.934458
0.933169
0.929718
0.92694
0.926592
0.929882
0.933317
0.933662
0.931463
0.928297
0.928346
0.929931
0.930976
0.928837
0.926085
0.926503
0.92985
0.933312
0.936825
0.936474
0.937433
0.938312
0.943664
0.948578
0.951625
0.954758
0.953486
0.0828774
0.0828821
0.0828868
0.082892
0.082897
0.0829025
0.0829079
0.0829146
0.0829208
0.0829275
0.082935
0.0829415
0.0829471
0.0829522
0.0829565
0.0829592
0.0829595
0.0829586
0.0829586
0.0829568
0.0829523
0.082947
0.082943
0.0829387
0.0829349
0.0829316
0.0829292
0.0829302
0.0829155
0.082901
0.0828892
0.0828827
0.0828747
0.0828735
0.082862
0.0830138
0.0915269
0.113402
0.161136
0.228905
0.328355
0.445328
0.572414
0.701567
0.800637
0.891523
0.930603
0.953073
0.950596
0.945296
0.936528
0.921826
0.902674
0.89137
0.898889
0.911995
0.925525
0.934565
0.942014
0.940081
0.932371
0.921548
0.91944
0.921614
0.928783
0.939724
0.93745
0.932479
0.928257
0.927502
0.92949
0.931497
0.9338
0.934591
0.931988
0.927964
0.927451
0.929557
0.932132
0.931518
0.928982
0.926776
0.927627
0.929791
0.931757
0.930455
0.929136
0.92977
0.931961
0.933584
0.933972
0.934167
0.934856
0.939752
0.941629
0.945317
0.94599
0.947152
0.949242
0.949849
0.0829469
0.0829504
0.0829537
0.0829584
0.0829631
0.082967
0.08297
0.0829726
0.0829739
0.0829751
0.0829772
0.0829783
0.0829774
0.0829767
0.0829755
0.0829723
0.0829682
0.0829647
0.0829607
0.0829551
0.0829471
0.0829369
0.0829271
0.0829185
0.082913
0.0829106
0.0829104
0.0829109
0.0829136
0.0829195
0.0829279
0.0829376
0.0829445
0.0829526
0.0829605
0.0829719
0.0829673
0.0829692
0.0829722
0.082989
0.0829856
0.0855948
0.107629
0.155263
0.250859
0.37831
0.518141
0.651237
0.742237
0.821768
0.849429
0.873835
0.877403
0.896666
0.912544
0.931252
0.944724
0.948334
0.94715
0.939099
0.924709
0.914056
0.915428
0.920997
0.929099
0.942763
0.943023
0.935802
0.927968
0.924554
0.927991
0.934462
0.93615
0.93248
0.927738
0.926111
0.92608
0.931558
0.935149
0.932976
0.929246
0.928937
0.930395
0.931696
0.930816
0.929918
0.929392
0.929642
0.932356
0.934664
0.935901
0.93683
0.938238
0.941268
0.942062
0.945299
0.945883
0.947786
0.949108
0.950552
0.0829853
0.0829858
0.0829854
0.0829851
0.0829858
0.0829858
0.0829856
0.0829844
0.0829816
0.0829797
0.0829776
0.0829731
0.0829675
0.0829627
0.0829581
0.0829528
0.082947
0.0829422
0.0829365
0.0829282
0.0829176
0.0829077
0.0828998
0.0828963
0.0828989
0.0829064
0.0829177
0.0829299
0.0829427
0.0829548
0.0829678
0.0829788
0.0829858
0.0829908
0.0829961
0.0829989
0.0830035
0.0830095
0.0830157
0.0830223
0.0830226
0.0830076
0.0829887
0.08297
0.0829565
0.0829457
0.0970265
0.136904
0.221991
0.342171
0.48972
0.646842
0.768286
0.866483
0.898443
0.919542
0.929339
0.937703
0.933616
0.918454
0.914643
0.917834
0.927461
0.937018
0.940724
0.939329
0.933079
0.927992
0.927258
0.927695
0.93096
0.934507
0.934935
0.930382
0.927045
0.927579
0.931719
0.932299
0.931404
0.928587
0.927121
0.927145
0.930881
0.93325
0.93289
0.931395
0.931724
0.933538
0.935371
0.937513
0.939556
0.939386
0.94122
0.942839
0.944153
0.949124
0.950299
0.951357
0.95292
0.952698
0.0829757
0.0829744
0.0829724
0.0829706
0.0829687
0.0829663
0.0829629
0.0829584
0.0829544
0.0829511
0.0829461
0.0829389
0.0829307
0.082924
0.0829177
0.0829118
0.0829076
0.0829041
0.0828996
0.0828943
0.0828894
0.0828874
0.0828905
0.0829012
0.082918
0.0829388
0.0829606
0.0829793
0.0829933
0.0830039
0.0830131
0.0830192
0.0830226
0.0830225
0.0830212
0.0830192
0.0830159
0.0830131
0.0830121
0.0830068
0.0830015
0.0829941
0.0829792
0.0829673
0.0829574
0.082957
0.0829737
0.0829971
0.0830136
0.0830138
0.094776
0.136344
0.238048
0.383355
0.541499
0.689252
0.775016
0.860312
0.878301
0.89665
0.913274
0.935747
0.955006
0.951968
0.943481
0.929688
0.919917
0.921352
0.926215
0.935186
0.939497
0.936748
0.92916
0.924633
0.925036
0.928663
0.933003
0.934937
0.930297
0.92761
0.927429
0.930263
0.931565
0.930066
0.92956
0.929513
0.931191
0.934385
0.936542
0.935777
0.937912
0.94171
0.943332
0.946154
0.947361
0.94821
0.949906
0.951639
0.951596
0.953012
0.0829554
0.0829524
0.0829491
0.082945
0.0829404
0.0829352
0.0829294
0.0829238
0.0829191
0.0829138
0.082907
0.0828997
0.0828933
0.0828879
0.082884
0.0828823
0.0828835
0.0828859
0.0828889
0.0828922
0.0828974
0.0829085
0.082926
0.0829498
0.0829757
0.0830001
0.0830206
0.0830356
0.0830452
0.0830488
0.0830483
0.0830468
0.0830436
0.0830383
0.0830332
0.0830285
0.0830217
0.0830151
0.0830079
0.083001
0.0829968
0.0829892
0.0829731
0.0829607
0.0829532
0.0829582
0.0829932
0.083025
0.0830216
0.0830146
0.0830178
0.0830135
0.0829873
0.0829756
0.107082
0.169608
0.294832
0.461766
0.634183
0.798007
0.884764
0.929181
0.93779
0.943933
0.940805
0.916538
0.915427
0.923216
0.936459
0.943422
0.940746
0.928475
0.921188
0.921818
0.927129
0.93624
0.936462
0.933891
0.926999
0.926077
0.927635
0.931323
0.932978
0.931944
0.931045
0.932102
0.934531
0.93686
0.93939
0.940333
0.940004
0.940952
0.945039
0.945433
0.949613
0.951052
0.951363
0.952863
0.955081
0.954483
0.0829165
0.0829143
0.0829126
0.0829092
0.0829036
0.082898
0.0828937
0.0828907
0.0828882
0.0828849
0.0828818
0.0828811
0.0828821
0.0828835
0.0828866
0.0828936
0.0829023
0.0829108
0.0829216
0.0829332
0.0829439
0.082963
0.0829904
0.0830172
0.083037
0.0830518
0.0830616
0.0830686
0.0830716
0.0830678
0.0830568
0.0830468
0.0830402
0.0830346
0.0830282
0.0830243
0.0830178
0.0830092
0.0830029
0.0830002
0.0829974
0.0829878
0.08297
0.0829559
0.0829497
0.082958
0.0830033
0.0830261
0.0830188
0.0830025
0.0830004
0.0829973
0.0829674
0.0829509
0.0829628
0.0830137
0.0830302
0.0889249
0.141491
0.256426
0.439678
0.636052
0.761469
0.863082
0.888657
0.902226
0.920267
0.944913
0.950148
0.943636
0.930363
0.917271
0.917447
0.924996
0.936682
0.94112
0.937164
0.926881
0.923631
0.926082
0.932485
0.93478
0.932989
0.931499
0.93129
0.933224
0.93621
0.938193
0.939611
0.942461
0.943996
0.94471
0.947541
0.94834
0.950285
0.952873
0.953116
0.951315
0.951312
0.955049
0.0829011
0.0829015
0.0829019
0.0829023
0.0829026
0.0829032
0.0829047
0.082907
0.0829098
0.0829125
0.0829169
0.0829235
0.0829286
0.0829323
0.0829398
0.0829517
0.082962
0.0829704
0.0829835
0.0829963
0.0830047
0.0830171
0.0830398
0.0830627
0.0830736
0.0830751
0.0830736
0.0830736
0.0830736
0.083066
0.0830459
0.083031
0.083024
0.0830195
0.0830171
0.083017
0.0830157
0.0830144
0.0830147
0.0830184
0.0830152
0.0830005
0.082983
0.0829681
0.0829549
0.0829626
0.0830014
0.083011
0.0830013
0.0829778
0.0829708
0.0829727
0.0829542
0.0829391
0.0829483
0.0829868
0.0830501
0.0832013
0.0833014
0.0832842
0.0898374
0.134722
0.25932
0.450751
0.657771
0.837163
0.906726
0.934646
0.941132
0.938266
0.911332
0.914419
0.926727
0.938166
0.941848
0.938314
0.926444
0.921147
0.924535
0.933259
0.936222
0.934001
0.930636
0.930448
0.9332
0.937457
0.940207
0.940824
0.940215
0.941144
0.943072
0.945739
0.947074
0.949449
0.950408
0.949867
0.952767
0.954425
0.955008
0.956776
0.082964
0.0829658
0.0829686
0.0829711
0.0829731
0.0829764
0.0829803
0.0829851
0.0829903
0.0829951
0.0830015
0.0830072
0.0830078
0.0830063
0.0830104
0.083017
0.0830194
0.0830202
0.0830286
0.0830363
0.0830372
0.0830404
0.0830511
0.0830644
0.0830663
0.0830618
0.0830544
0.0830489
0.0830437
0.0830313
0.0830083
0.0829966
0.0829923
0.0829924
0.0829999
0.0830129
0.083028
0.0830383
0.0830452
0.0830485
0.0830417
0.0830221
0.0830086
0.0829926
0.0829736
0.0829748
0.0829854
0.0829837
0.0829731
0.0829568
0.0829552
0.0829628
0.0829745
0.0829814
0.0829838
0.0830046
0.0831107
0.083376
0.083472
0.0834395
0.0833625
0.0833414
0.0832771
0.0890973
0.150361
0.307196
0.520027
0.713043
0.831203
0.8878
0.89627
0.923516
0.950935
0.950236
0.944746
0.922911
0.917396
0.921402
0.933483
0.940009
0.937063
0.930491
0.928937
0.932375
0.937872
0.940692
0.941819
0.941721
0.941525
0.942893
0.945061
0.947951
0.948646
0.950483
0.951949
0.952111
0.953254
0.954817
0.95642
0.958399
0.0830297
0.0830318
0.0830342
0.0830356
0.083036
0.0830371
0.0830398
0.083044
0.0830467
0.0830475
0.0830479
0.083048
0.0830457
0.0830415
0.083037
0.0830322
0.0830264
0.083023
0.0830255
0.0830296
0.0830272
0.0830242
0.0830241
0.0830252
0.0830226
0.083014
0.0830007
0.0829892
0.082978
0.0829617
0.0829513
0.0829477
0.0829518
0.0829658
0.082991
0.0830252
0.0830614
0.0830797
0.0830827
0.0830745
0.0830593
0.0830498
0.083039
0.0830099
0.0829954
0.0829945
0.0829859
0.0829668
0.0829523
0.0829503
0.0829573
0.0829751
0.083015
0.0830802
0.0831232
0.0831457
0.083245
0.0834493
0.0835045
0.0834825
0.0834104
0.0833326
0.0831989
0.0830736
0.082928
0.0827228
0.102958
0.193132
0.38389
0.636083
0.824823
0.923127
0.938226
0.944305
0.924609
0.906079
0.915813
0.93279
0.941625
0.938701
0.930264
0.928244
0.930995
0.936802
0.93981
0.941085
0.942125
0.942711
0.943362
0.944538
0.946152
0.948566
0.949663
0.952076
0.954319
0.955267
0.956284
0.958044
0.96005
0.962041
0.0830639
0.0830656
0.0830655
0.0830643
0.0830631
0.0830585
0.083053
0.083051
0.0830507
0.0830488
0.0830406
0.0830336
0.0830309
0.0830278
0.0830232
0.0830155
0.0830035
0.0829954
0.082992
0.0829888
0.0829825
0.0829756
0.0829721
0.0829709
0.0829707
0.0829677
0.0829597
0.0829456
0.0829327
0.0829273
0.082926
0.0829272
0.0829338
0.082954
0.0829951
0.0830584
0.0831133
0.083125
0.0831102
0.0830828
0.0830737
0.0830765
0.0830669
0.083019
0.0830022
0.0830088
0.0829912
0.0829402
0.0829391
0.0829763
0.0829966
0.0830248
0.0831021
0.0832215
0.08329
0.0832911
0.083337
0.0834516
0.0834617
0.0834393
0.0833765
0.0832034
0.0829688
0.0828556
0.0827612
0.0826707
0.0826578
0.0827114
0.0834318
0.132408
0.306688
0.560939
0.730349
0.872278
0.877366
0.908702
0.936149
0.949129
0.945911
0.928469
0.925447
0.929415
0.937143
0.94117
0.941108
0.941205
0.942604
0.943594
0.945228
0.946887
0.948509
0.950193
0.952247
0.954361
0.956692
0.958596
0.959096
0.960477
0.962322
0.963979
0.0830593
0.0830596
0.0830598
0.0830605
0.083059
0.0830494
0.08303
0.0830237
0.0830213
0.0830134
0.0830005
0.0829966
0.0829969
0.0829975
0.0829952
0.0829895
0.0829795
0.0829693
0.0829639
0.0829575
0.0829502
0.0829464
0.0829442
0.0829462
0.0829491
0.0829486
0.0829449
0.0829297
0.082917
0.0829177
0.0829214
0.0829253
0.0829356
0.0829637
0.0830175
0.0831
0.0831477
0.0831464
0.0831177
0.0830889
0.0830837
0.0830957
0.0830907
0.0830364
0.0830117
0.0830029
0.0829516
0.082917
0.0829492
0.0830545
0.0831058
0.0831611
0.0832762
0.0834064
0.0834109
0.0833655
0.0833677
0.0833562
0.0832887
0.0831927
0.0831132
0.0829744
0.0827608
0.0826713
0.0826335
0.0826377
0.0827188
0.08296
0.0832551
0.083462
0.083409
0.108251
0.235313
0.47997
0.717634
0.90015
0.928524
0.943654
0.929831
0.917083
0.926182
0.938201
0.942235
0.940934
0.940753
0.941611
0.943831
0.945334
0.947295
0.94929
0.951578
0.953183
0.956155
0.957637
0.959425
0.96095
0.961498
0.962752
0.96394
0.964995
0.0830722
0.0830696
0.0830669
0.0830641
0.0830589
0.0830468
0.0830242
0.0829884
0.0829749
0.0829742
0.0829775
0.0829834
0.0829843
0.0829859
0.0829907
0.0829945
0.082993
0.0829831
0.0829762
0.0829724
0.0829677
0.0829636
0.0829615
0.082961
0.0829568
0.0829575
0.0829582
0.0829487
0.0829473
0.082956
0.0829615
0.0829625
0.0829693
0.0829904
0.0830437
0.0831205
0.0831418
0.0831324
0.0830951
0.0830748
0.0830771
0.0831027
0.0831089
0.0830678
0.0830411
0.0830142
0.0829341
0.0829198
0.0829851
0.0831477
0.0832272
0.0833227
0.0834634
0.0834998
0.0834562
0.0833785
0.0833202
0.0831895
0.0830432
0.0829328
0.0828652
0.0827921
0.0826424
0.0825606
0.0825695
0.082639
0.0829267
0.0833114
0.083568
0.0835313
0.0833318
0.0831016
0.0827481
0.091775
0.207374
0.452959
0.67147
0.865112
0.879037
0.917777
0.944203
0.948062
0.94376
0.938462
0.939082
0.942965
0.946106
0.948229
0.949829
0.952036
0.955097
0.957674
0.960269
0.960843
0.961873
0.962703
0.963677
0.96473
0.965186
0.965406
0.0830118
0.0830114
0.0830093
0.0830037
0.0829916
0.0829684
0.0829357
0.0829259
0.0829259
0.0829292
0.0829414
0.0829599
0.0829803
0.0830062
0.0830474
0.0830775
0.0830802
0.0830805
0.0830855
0.0830918
0.0830888
0.0830768
0.0830654
0.0830451
0.0830162
0.083011
0.0830176
0.0830163
0.0830172
0.0830335
0.0830388
0.0830316
0.0830158
0.0829996
0.0829989
0.0830269
0.0830472
0.0830457
0.0830257
0.0830163
0.0830251
0.0830756
0.0831148
0.0831003
0.0830805
0.083041
0.08297
0.0829799
0.0831034
0.0832484
0.0833013
0.0834206
0.0835263
0.0835183
0.083454
0.0833479
0.0831705
0.0828945
0.0827611
0.0827204
0.0827156
0.082703
0.0826152
0.0825562
0.082618
0.0828657
0.0833379
0.0836797
0.0836726
0.0834031
0.0831391
0.0829341
0.0827086
0.0830976
0.0837166
0.0893545
0.185309
0.41833
0.683179
0.890034
0.926468
0.941838
0.943079
0.936235
0.942789
0.949462
0.951931
0.95371
0.954562
0.956559
0.959109
0.962098
0.962769
0.962779
0.963338
0.963672
0.964733
0.965831
0.965921
0.965477
0.0829972
0.0829986
0.0829967
0.0829902
0.082975
0.0829506
0.0829456
0.0829508
0.082965
0.0829859
0.0830135
0.0830428
0.0830726
0.0831086
0.0831626
0.0831983
0.0832005
0.0831964
0.0831953
0.0831931
0.0831864
0.0831753
0.0831521
0.0830916
0.0830464
0.0830461
0.0830651
0.0830682
0.0830675
0.0830824
0.0830891
0.0830754
0.0830138
0.0829091
0.0828707
0.0828781
0.08292
0.0829684
0.0829774
0.0829622
0.0829642
0.0830197
0.083088
0.0831063
0.0831044
0.0830756
0.0830537
0.0830853
0.0832311
0.0832948
0.0833151
0.083403
0.083456
0.0834372
0.0833354
0.0831798
0.082952
0.0826417
0.0825674
0.0825815
0.0826477
0.0826815
0.0826743
0.0827552
0.0829923
0.0834273
0.0838263
0.0838473
0.0837142
0.0832009
0.0830545
0.0828745
0.0836577
0.0848578
0.0858858
0.0859975
0.0859657
0.0879979
0.18588
0.426896
0.678909
0.862018
0.923428
0.933106
0.95438
0.953408
0.95642
0.957345
0.959063
0.961191
0.962249
0.963509
0.962863
0.963072
0.964076
0.964245
0.965129
0.9662
0.966298
0.965749
0.0830745
0.0830826
0.0830811
0.0830819
0.083096
0.0830975
0.0830975
0.0831161
0.0831338
0.0831316
0.0831189
0.0831164
0.0831291
0.083159
0.0832045
0.0832336
0.0832375
0.0832355
0.0832284
0.0832103
0.0831958
0.083186
0.0831628
0.0830959
0.0830438
0.0830417
0.0830648
0.0830706
0.0830708
0.0830729
0.0830475
0.0829968
0.0829276
0.0828282
0.08278
0.0827818
0.0828143
0.0828967
0.0829358
0.0829237
0.0829134
0.0829514
0.0830252
0.0831144
0.0831833
0.0831998
0.0831817
0.083185
0.0832605
0.0832736
0.0832366
0.0831846
0.083161
0.0831225
0.0830537
0.0829784
0.082814
0.0825724
0.0825187
0.0825405
0.0826266
0.0827541
0.0830173
0.0833661
0.0837805
0.0841227
0.0841275
0.0840507
0.0836446
0.0831413
0.0832139
0.0841947
0.0860306
0.0872908
0.0870765
0.0872258
0.0880791
0.0896934
0.0910818
0.0945825
0.191729
0.432763
0.733651
0.882614
0.947295
0.951602
0.963618
0.959484
0.963075
0.963292
0.964864
0.964675
0.963665
0.964272
0.965559
0.965768
0.966583
0.967338
0.966864
0.966265
0.0832249
0.0832232
0.0832187
0.0832114
0.0831948
0.0831794
0.0831806
0.0831828
0.083178
0.0831619
0.0831384
0.0831255
0.083115
0.0831166
0.0831363
0.0831576
0.0831632
0.0831623
0.083154
0.0831365
0.0831235
0.0831114
0.0830821
0.0830111
0.0829381
0.0829179
0.082922
0.082926
0.0829195
0.0828706
0.0828171
0.0828249
0.0828208
0.0827645
0.0827444
0.082746
0.0827722
0.0828669
0.0829501
0.0829451
0.0829552
0.0830678
0.0832331
0.0833757
0.0833992
0.0833788
0.0832843
0.0832291
0.0832333
0.0832217
0.0831171
0.0830235
0.0829866
0.0829513
0.0829139
0.0828741
0.082747
0.0825774
0.082557
0.0825989
0.0827887
0.0832702
0.0838424
0.084297
0.0846046
0.0845704
0.0844974
0.0841859
0.0838968
0.0844659
0.0861089
0.0873832
0.0882521
0.0892401
0.0894972
0.0899236
0.0914553
0.0934957
0.0953738
0.0976707
0.0980182
0.103968
0.205583
0.469709
0.767316
0.887059
0.954522
0.957198
0.970797
0.961955
0.963724
0.963555
0.965776
0.967435
0.967473
0.966987
0.967585
0.968143
0.967553
0.966846
0.0831551
0.0831409
0.0831302
0.0831127
0.0830887
0.0830855
0.0830883
0.0830809
0.0830321
0.0829455
0.0828717
0.0828111
0.0827744
0.082778
0.0827817
0.082774
0.0827824
0.082786
0.0827678
0.082715
0.0826781
0.0826545
0.0826152
0.0825513
0.0825093
0.0825108
0.0825431
0.0825926
0.0825908
0.0825946
0.0826337
0.0827136
0.0827372
0.0827623
0.0827917
0.0828179
0.0828769
0.0831121
0.0832848
0.0832818
0.0833088
0.0834475
0.0835577
0.0835593
0.0835531
0.0834818
0.0833149
0.0832303
0.0832402
0.0832237
0.0830719
0.0829846
0.0829698
0.0829574
0.0829179
0.0828618
0.0827963
0.0828761
0.0831202
0.0834918
0.0840008
0.0847089
0.0852034
0.0853966
0.0852768
0.0851215
0.0849901
0.0853377
0.086545
0.0883675
0.0901286
0.0908919
0.0906927
0.0911515
0.0928154
0.0946206
0.0964222
0.0981688
0.0991194
0.100816
0.102994
0.103932
0.104484
0.119673
0.236725
0.505666
0.80432
0.892846
0.957642
0.966942
0.975795
0.967017
0.9669
0.967504
0.969976
0.970523
0.969963
0.968613
0.967626
0.967622
0.0828925
0.0828903
0.0828906
0.0828842
0.0828568
0.0828461
0.0828622
0.0828679
0.082829
0.0827233
0.0826707
0.0826253
0.0825581
0.0825482
0.0825545
0.0825397
0.0825363
0.0825469
0.0825423
0.0825073
0.0824806
0.0824603
0.0824408
0.0824216
0.0824198
0.0824377
0.0824847
0.0825557
0.0826416
0.082752
0.0828897
0.0830648
0.0831851
0.083243
0.0832867
0.0833552
0.0835133
0.0837564
0.0838278
0.0838167
0.0837702
0.0837015
0.0836456
0.0836175
0.0835881
0.0834874
0.0833617
0.0833605
0.0834199
0.0833626
0.0831207
0.0830981
0.0831132
0.0831006
0.0830727
0.083178
0.0835944
0.0842647
0.0850659
0.0858225
0.0863278
0.0866057
0.086875
0.0867472
0.086731
0.0869239
0.0876542
0.0888703
0.0906077
0.0924749
0.093503
0.0944652
0.0951769
0.0958993
0.0973008
0.0992836
0.10105
0.103427
0.105114
0.105039
0.106065
0.108123
0.110925
0.112039
0.112696
0.135123
0.272587
0.556991
0.831208
0.899332
0.968573
0.973749
0.978214
0.969004
0.967499
0.968956
0.971229
0.971101
0.969291
0.967953
0.0828422
0.0828672
0.0828746
0.0828734
0.0828548
0.0828439
0.0828669
0.0828898
0.0828656
0.0827503
0.0827042
0.0826759
0.0826011
0.0825739
0.0825836
0.0825698
0.0825616
0.0825896
0.0826099
0.0826238
0.0826239
0.0826429
0.0827106
0.0827921
0.0828868
0.083046
0.0831634
0.083244
0.0833399
0.083452
0.0835684
0.0837193
0.0838661
0.0839465
0.0840238
0.0841409
0.084235
0.0842244
0.0841832
0.0841225
0.0840032
0.0837658
0.0835327
0.0834279
0.0834098
0.0834343
0.08353
0.0836089
0.0836212
0.0835333
0.0834077
0.0834736
0.0836913
0.0840173
0.084529
0.085304
0.0862396
0.0871494
0.0878446
0.0885538
0.0888574
0.088822
0.089001
0.0896344
0.090498
0.0916463
0.0928838
0.0943956
0.0956728
0.0966285
0.0977052
0.0988422
0.100104
0.101415
0.102973
0.104963
0.106027
0.107254
0.109682
0.110439
0.110945
0.112796
0.115682
0.117739
0.118832
0.119509
0.120422
0.157714
0.321584
0.607984
0.861972
0.909619
0.973463
0.980869
0.978723
0.971783
0.968109
0.969662
0.971815
0.971637
0.0830116
0.0830477
0.0830874
0.0831507
0.0831828
0.083196
0.0832305
0.0833296
0.0833914
0.083396
0.0833907
0.0833516
0.0833298
0.0833341
0.083341
0.0833345
0.0833353
0.083399
0.0835999
0.0837213
0.0837624
0.0838298
0.0839466
0.0840117
0.0840635
0.0841171
0.0841164
0.0841127
0.084176
0.0842531
0.0842953
0.0843447
0.0844021
0.0844464
0.084508
0.0845623
0.0845407
0.0844028
0.0841928
0.0840457
0.0839027
0.0837077
0.0835512
0.0834731
0.0835052
0.0836204
0.0838426
0.0841125
0.0845295
0.0851059
0.0859085
0.0867265
0.0875033
0.0883797
0.0893254
0.0900284
0.0907066
0.0913906
0.0915235
0.0917275
0.0920147
0.0922245
0.0927088
0.0938331
0.0957647
0.0978413
0.0991636
0.100356
0.101313
0.101843
0.102649
0.104002
0.105508
0.106831
0.108351
0.110842
0.112542
0.112498
0.113178
0.115307
0.117849
0.1193
0.120227
0.121922
0.123581
0.12496
0.126796
0.128822
0.129891
0.184085
0.371749
0.650243
0.884123
0.926054
0.981353
0.984678
0.977021
0.968975
0.968657
0.972179
0.0844974
0.0845312
0.0845508
0.0845801
0.0846154
0.0846444
0.0846866
0.0847971
0.0848659
0.0848663
0.0848538
0.0847931
0.0846982
0.0846775
0.0846636
0.0846353
0.0846316
0.0846654
0.0847662
0.0848241
0.0848261
0.0848216
0.0848177
0.0848074
0.0847882
0.084748
0.0846648
0.0846436
0.0846877
0.0847424
0.0847198
0.0846317
0.0846396
0.0847177
0.0847861
0.0848092
0.0847744
0.0845986
0.0844201
0.0844656
0.0847603
0.0851085
0.0853827
0.0857715
0.0864425
0.0874356
0.0884789
0.0895743
0.0905557
0.0914225
0.0922344
0.0929637
0.0934928
0.0938651
0.0943264
0.094532
0.0947578
0.0952417
0.0955002
0.0958199
0.0965373
0.0978999
0.0994852
0.101175
0.102635
0.10418
0.105654
0.106224
0.107044
0.107794
0.10841
0.109595
0.111732
0.113838
0.114667
0.115699
0.11787
0.11855
0.118771
0.120253
0.122888
0.125205
0.126438
0.127178
0.128804
0.131285
0.133167
0.134584
0.136528
0.137078
0.13758
0.211267
0.429352
0.703668
0.915149
0.938676
0.980139
0.979236
0.977821
0.972716
0.0855564
0.0855464
0.0855322
0.0854914
0.0854772
0.0854798
0.0854777
0.0854132
0.08531
0.0852983
0.0853023
0.0853261
0.0853536
0.0853377
0.0852724
0.0852139
0.0852289
0.0852361
0.0851853
0.0852137
0.0852016
0.0851505
0.0852048
0.0852222
0.0852483
0.0853919
0.085448
0.0855048
0.0857034
0.0861242
0.0864383
0.0866501
0.0869451
0.0873289
0.0878039
0.0883672
0.0889509
0.0895399
0.0902203
0.0909774
0.0918126
0.0927009
0.0935903
0.094412
0.0951873
0.0957926
0.0961793
0.0966213
0.0970385
0.0973102
0.0975308
0.0979444
0.0980031
0.0979608
0.0981697
0.098666
0.099303
0.100183
0.101686
0.103431
0.105295
0.106994
0.108297
0.109508
0.110089
0.110417
0.111181
0.111793
0.112432
0.113633
0.115234
0.116755
0.118428
0.120771
0.12148
0.121371
0.12208
0.124092
0.126482
0.127962
0.129163
0.13099
0.132425
0.133119
0.134268
0.136985
0.139207
0.139335
0.140484
0.142722
0.144895
0.14638
0.149407
0.249081
0.501275
0.75228
0.931048
0.94884
0.986848
0.981399
0.0875252
0.0876272
0.0877462
0.0878795
0.0880218
0.0881662
0.0883111
0.0884625
0.0886423
0.0888608
0.0891047
0.089378
0.0896703
0.0899644
0.0902581
0.0905492
0.0908328
0.0911117
0.0914005
0.0917155
0.0920555
0.0924195
0.0928101
0.0932708
0.0937687
0.0941897
0.0945728
0.094969
0.0953993
0.0958004
0.0961275
0.0964126
0.096699
0.096987
0.0973339
0.0977344
0.0981415
0.0985437
0.0990157
0.0994387
0.0997188
0.0999006
0.100145
0.100446
0.100778
0.100824
0.100855
0.101012
0.101514
0.101809
0.102136
0.102805
0.103835
0.104989
0.106065
0.107432
0.108992
0.110611
0.112042
0.113125
0.113924
0.114748
0.115224
0.115485
0.115736
0.115866
0.116372
0.117811
0.119721
0.121551
0.123485
0.124791
0.125401
0.126478
0.127815
0.128257
0.128696
0.13056
0.133228
0.135
0.136104
0.136457
0.137479
0.139716
0.141644
0.143019
0.145125
0.146304
0.147065
0.14913
0.151577
0.152951
0.155249
0.155838
0.166629
0.302646
0.580932
0.818408
0.940615
0.971412
0.0972745
0.0973669
0.0974741
0.0975979
0.097732
0.0978572
0.0979778
0.0981118
0.0982428
0.0983739
0.0985207
0.0986943
0.0988814
0.0990662
0.099245
0.0994088
0.0995507
0.0996873
0.0998385
0.100015
0.100238
0.100499
0.100749
0.100957
0.10114
0.101298
0.101449
0.101622
0.101848
0.102037
0.102304
0.102614
0.102695
0.102784
0.10305
0.103371
0.103557
0.103779
0.104271
0.105013
0.105097
0.105161
0.105482
0.10622
0.107057
0.107745
0.10841
0.109206
0.11027
0.11152
0.112816
0.114057
0.115352
0.116511
0.117427
0.118233
0.118736
0.119022
0.119361
0.119673
0.119702
0.119985
0.12057
0.121152
0.122026
0.123419
0.125138
0.127039
0.128747
0.130147
0.131539
0.132027
0.131883
0.132076
0.133495
0.135492
0.137517
0.138995
0.140255
0.141632
0.142509
0.143376
0.144711
0.147013
0.149262
0.149723
0.150843
0.152886
0.154119
0.15563
0.158282
0.159143
0.160187
0.162483
0.164779
0.165116
0.192275
0.374795
0.648528
0.908768
0.105541
0.105628
0.105739
0.10589
0.106022
0.106118
0.106195
0.106294
0.106442
0.106604
0.106764
0.106918
0.107079
0.107247
0.107443
0.10762
0.107743
0.107868
0.108016
0.108163
0.108571
0.10904
0.109174
0.109269
0.109435
0.109669
0.1099
0.11014
0.110448
0.110821
0.111222
0.111732
0.112358
0.112977
0.11355
0.114054
0.114538
0.115171
0.115887
0.116555
0.117355
0.118193
0.118895
0.119445
0.119895
0.120361
0.120969
0.121598
0.121979
0.122281
0.122712
0.123065
0.123459
0.123716
0.123966
0.124344
0.124482
0.12447
0.124713
0.125463
0.126453
0.127511
0.128992
0.130889
0.132812
0.13446
0.135794
0.136713
0.13688
0.137083
0.137721
0.138608
0.139366
0.140387
0.141792
0.144194
0.146322
0.147041
0.147856
0.148367
0.149287
0.151187
0.153118
0.154284
0.15623
0.157563
0.157823
0.159054
0.16163
0.163413
0.165641
0.167386
0.167643
0.168762
0.17061
0.172842
0.17368
0.174497
0.2224
0.576139
0.11676
0.116866
0.116977
0.117097
0.117245
0.117405
0.11758
0.117777
0.11793
0.118059
0.118221
0.118405
0.118599
0.118816
0.11906
0.119286
0.119428
0.119588
0.119876
0.12002
0.120199
0.120623
0.120982
0.121195
0.121401
0.121693
0.122059
0.122433
0.122703
0.122938
0.123183
0.123374
0.123661
0.12398
0.124188
0.124337
0.124519
0.124729
0.124956
0.125151
0.125516
0.126003
0.126236
0.126393
0.126595
0.126893
0.127462
0.127926
0.127975
0.128134
0.128664
0.129021
0.129348
0.129966
0.130901
0.131948
0.133084
0.134524
0.13614
0.137755
0.139231
0.140428
0.141335
0.142005
0.142432
0.142955
0.143726
0.144087
0.143929
0.144036
0.144783
0.146599
0.149213
0.151172
0.152209
0.153602
0.154264
0.154668
0.155043
0.156173
0.15795
0.160006
0.162344
0.163135
0.163716
0.165164
0.166467
0.167817
0.170006
0.171284
0.171947
0.173789
0.175092
0.176138
0.178269
0.180573
0.181988
0.183702
0.184275
0.235308
0.127438
0.127502
0.127584
0.127678
0.127778
0.127887
0.127988
0.128071
0.12813
0.1282
0.128376
0.128464
0.128569
0.128714
0.12886
0.129006
0.129138
0.129231
0.129379
0.129588
0.129697
0.129773
0.129879
0.130067
0.130387
0.130712
0.130945
0.131318
0.131717
0.13172
0.131718
0.131866
0.132295
0.132913
0.133328
0.133562
0.133823
0.134276
0.134708
0.135079
0.13542
0.135746
0.136141
0.136612
0.137184
0.137887
0.138663
0.139481
0.140439
0.141458
0.142475
0.1435
0.144413
0.145248
0.146002
0.146634
0.147245
0.147708
0.148111
0.148661
0.149251
0.149568
0.149617
0.149537
0.149417
0.14957
0.150442
0.151971
0.153736
0.15529
0.156724
0.158239
0.160017
0.161156
0.161575
0.161608
0.162252
0.163321
0.164503
0.166237
0.168422
0.169466
0.170726
0.17177
0.171922
0.172647
0.17484
0.176752
0.178049
0.179662
0.180331
0.181262
0.183361
0.185825
0.18673
0.187627
0.189282
0.190731
0.191975
0.193463
0.140161
0.140258
0.140372
0.140489
0.140605
0.140715
0.140824
0.140917
0.141028
0.14119
0.141316
0.141419
0.141548
0.141716
0.14189
0.142054
0.142205
0.142407
0.142718
0.142815
0.142805
0.142852