/*--------------------------------*- C++ -*----------------------------------*\
  =========                 |
  \\      /  F ield         | OpenFOAM: The Open Source CFD Toolbox
   \\    /   O peration     | Website:  https://openfoam.org
    \\  /    A nd           | Version:  7
     \\/     M anipulation  |
\*---------------------------------------------------------------------------*/
FoamFile
{
    version     2.0;
    format      ascii;
    class       volScalarField;
    location    "9.8";
    object      rho;
}
// * * * * * * * * * * * * * * * * * * * * * * * * * * * * * * * * * * * * * //

dimensions      [1 -3 0 0 0 0 0];

internalField   nonuniform List<scalar> 
11200
(
0.247176
0.360099
0.475636
0.57126
0.651134
0.706439
0.748833
0.772858
0.795786
0.809651
0.834527
0.864108
0.888581
0.906758
0.918817
0.920335
0.929602
0.946255
0.964166
0.971677
0.980568
0.996524
1.01071
1.02415
1.0404
1.06665
1.10025
1.12182
1.12426
1.13746
0.142037
0.147798
0.168454
0.220709
0.299905
0.40762
0.52644
0.62982
0.724378
0.77664
0.828788
0.843104
0.837582
0.814531
0.799369
0.80538
0.833289
0.866676
0.880396
0.875855
0.882482
0.906768
0.932813
0.951423
0.973929
1.00492
1.03266
1.05719
1.07558
1.09927
0.151871
0.154383
0.158402
0.160351
0.161747
0.168636
0.195016
0.256528
0.35425
0.491451
0.620273
0.714438
0.768219
0.770558
0.768946
0.766639
0.77661
0.791861
0.79016
0.797838
0.814552
0.832508
0.85387
0.871755
0.888364
0.916884
0.946929
0.973858
0.993063
1.02268
0.162896
0.164867
0.167037
0.169507
0.172009
0.174849
0.176688
0.177137
0.177649
0.189687
0.23267
0.333143
0.488517
0.634318
0.746821
0.765984
0.77095
0.762153
0.748971
0.757569
0.782404
0.799704
0.809691
0.81915
0.835978
0.854028
0.872558
0.894772
0.912551
0.941636
0.171827
0.174157
0.176549
0.178234
0.179886
0.180203
0.180021
0.17938
0.179625
0.180294
0.180399
0.180672
0.188952
0.250575
0.399523
0.573981
0.691878
0.723776
0.749575
0.759925
0.768461
0.779011
0.79101
0.800732
0.812196
0.8294
0.84127
0.854344
0.867449
0.889484
0.181233
0.182511
0.183177
0.183194
0.182895
0.182088
0.180491
0.17818
0.177777
0.178859
0.179424
0.180023
0.182164
0.183081
0.183274
0.224898
0.34316
0.528542
0.692665
0.750664
0.770185
0.782829
0.798909
0.806646
0.819274
0.822034
0.828985
0.840174
0.851552
0.869139
0.183367
0.183377
0.183441
0.183495
0.183005
0.180831
0.177274
0.175467
0.176135
0.177469
0.178256
0.179143
0.180866
0.181973
0.182624
0.184689
0.187933
0.215679
0.326791
0.528925
0.689957
0.765259
0.814684
0.819275
0.836361
0.836918
0.845798
0.854075
0.86175
0.87427
0.182881
0.182978
0.183103
0.183097
0.181835
0.178799
0.17548
0.174975
0.176095
0.177388
0.178128
0.178968
0.180479
0.181718
0.182302
0.184636
0.193134
0.203206
0.206548
0.230881
0.340579
0.55971
0.750264
0.825043
0.885509
0.878056
0.887696
0.880477
0.884509
0.889789
0.185298
0.185581
0.185506
0.1844
0.182975
0.180764
0.177915
0.177513
0.178567
0.180228
0.181933
0.182612
0.183503
0.18629
0.190966
0.194528
0.200075
0.209974
0.220211
0.22748
0.232385
0.255291
0.382228
0.630495
0.824285
0.900091
0.962784
0.943534
0.959105
0.951409
0.188459
0.190136
0.192066
0.193175
0.19316
0.192188
0.191816
0.192666
0.194962
0.198626
0.204042
0.210144
0.215692
0.221395
0.229136
0.231207
0.230284
0.230369
0.23667
0.244023
0.254058
0.269183
0.27578
0.302179
0.440913
0.71267
0.909781
0.975964
1.05863
1.03233
0.194414
0.197334
0.201853
0.205228
0.205328
0.205402
0.205876
0.207117
0.210302
0.216213
0.225008
0.235045
0.242363
0.247038
0.252334
0.2563
0.26061
0.266496
0.271621
0.277155
0.280948
0.283314
0.291823
0.307511
0.309764
0.346746
0.519235
0.81685
1.00904
1.08257
0.218952
0.221477
0.225322
0.23122
0.234738
0.235174
0.234531
0.233872
0.234881
0.238554
0.246316
0.25686
0.263432
0.264753
0.267256
0.274067
0.28386
0.293643
0.298942
0.303208
0.304987
0.304264
0.305357
0.313843
0.331747
0.344514
0.344372
0.406551
0.616658
0.998168
0.256692
0.262326
0.268194
0.274056
0.276536
0.276728
0.275456
0.274023
0.275033
0.280147
0.289944
0.298561
0.298946
0.296898
0.297718
0.302107
0.307777
0.314059
0.318782
0.323477
0.331032
0.340723
0.345251
0.34613
0.353185
0.36085
0.368632
0.375579
0.378405
0.635892
0.300463
0.303011
0.306311
0.309548
0.313305
0.314442
0.313788
0.314069
0.31758
0.325221
0.335399
0.339672
0.339539
0.340784
0.346756
0.353323
0.352598
0.351445
0.353737
0.360946
0.370385
0.379461
0.387985
0.390353
0.388145
0.390778
0.397911
0.406187
0.411044
0.420226
0.353763
0.354913
0.357605
0.361442
0.366586
0.368476
0.367274
0.364048
0.363992
0.366873
0.374485
0.380528
0.382913
0.384416
0.387329
0.392049
0.395207
0.398895
0.405212
0.411685
0.414773
0.4175
0.422732
0.427126
0.429536
0.432691
0.436236
0.438814
0.443207
0.44978
0.411368
0.411519
0.412707
0.415936
0.423322
0.426791
0.425152
0.422304
0.422755
0.425355
0.432088
0.437321
0.436368
0.43418
0.434941
0.438934
0.444129
0.447934
0.452694
0.454472
0.453295
0.452903
0.454924
0.46133
0.468375
0.473325
0.475589
0.476965
0.479299
0.484598
0.482618
0.481947
0.482288
0.485173
0.492808
0.499469
0.501745
0.50102
0.496002
0.493448
0.494451
0.499059
0.502631
0.504895
0.507587
0.508035
0.506492
0.50272
0.502055
0.503052
0.504647
0.506048
0.507535
0.507963
0.509253
0.51097
0.513921
0.517018
0.517848
0.520951
0.569871
0.567837
0.56799
0.570065
0.57594
0.582337
0.58477
0.583844
0.57743
0.571042
0.570556
0.572705
0.573182
0.571316
0.57051
0.570412
0.568924
0.568355
0.569139
0.571446
0.571819
0.572097
0.57205
0.570902
0.56822
0.565933
0.564325
0.563391
0.563265
0.563875
0.674791
0.670349
0.669696
0.670942
0.678296
0.682993
0.682736
0.680268
0.672415
0.663768
0.663084
0.663613
0.661268
0.65729
0.656966
0.656676
0.653527
0.647125
0.643166
0.641602
0.639039
0.633944
0.630832
0.629732
0.628325
0.624607
0.621437
0.619118
0.615412
0.610686
0.801153
0.791946
0.790689
0.7911
0.798165
0.801955
0.800196
0.793074
0.780358
0.772175
0.772778
0.772085
0.764052
0.754562
0.75261
0.750866
0.744838
0.736302
0.72963
0.725245
0.721605
0.715739
0.70895
0.701414
0.695574
0.690794
0.684373
0.681304
0.678694
0.669527
0.956845
0.935259
0.928772
0.928979
0.937827
0.943577
0.940113
0.926854
0.90601
0.897117
0.898742
0.898002
0.886453
0.870699
0.865611
0.86163
0.853419
0.841405
0.832703
0.824311
0.816046
0.806543
0.797711
0.789529
0.780092
0.772268
0.76297
0.750735
0.742142
0.728629
1.13501
1.10559
1.09153
1.08961
1.09662
1.10484
1.10097
1.08505
1.05773
1.04332
1.04475
1.04327
1.02729
1.00451
0.997316
0.991027
0.979665
0.963727
0.949612
0.938021
0.925716
0.91258
0.897676
0.884717
0.871438
0.855984
0.843973
0.830748
0.817238
0.797524
1.33353
1.30137
1.27847
1.27233
1.27585
1.28552
1.28288
1.26559
1.23254
1.2103
1.21099
1.20854
1.18661
1.15607
1.14766
1.14038
1.12392
1.1031
1.08334
1.06728
1.05034
1.03224
1.01291
0.993923
0.976856
0.957891
0.938625
0.920965
0.904898
0.876716
1.5558
1.52624
1.49336
1.47695
1.47764
1.48767
1.48596
1.46579
1.42818
1.39702
1.3957
1.39215
1.36526
1.32842
1.31541
1.30499
1.28428
1.25776
1.2327
1.21073
1.18975
1.16541
1.1411
1.11651
1.09198
1.06887
1.04455
1.01935
0.998198
0.963088
1.80959
1.78869
1.74566
1.72109
1.72189
1.72166
1.7108
1.68846
1.65547
1.61596
1.60724
1.59856
1.5689
1.52699
1.50418
1.48586
1.46067
1.429
1.3983
1.36877
1.34133
1.31208
1.28107
1.25126
1.22141
1.19089
1.16161
1.13161
1.10495
1.06137
2.02539
2.01785
2.00402
1.98273
1.97102
1.96166
1.94718
1.92901
1.90642
1.87477
1.85362
1.83536
1.80472
1.76585
1.73293
1.70025
1.6658
1.62861
1.58956
1.55184
1.51413
1.47673
1.43872
1.40084
1.36436
1.32757
1.29162
1.25525
1.22345
1.17071
2.07167
2.07034
2.0673
2.06489
2.06404
2.06335
2.06162
2.05789
2.052
2.04393
2.03394
2.02303
2.008
1.98798
1.96411
1.93535
1.90117
1.86353
1.82135
1.77598
1.72828
1.67862
1.62898
1.57958
1.53116
1.48406
1.43879
1.39365
1.3549
1.29164
2.03189
2.03541
2.03552
2.03088
2.02631
2.03082
2.0406
2.04577
2.04686
2.04605
2.0466
2.04567
2.04359
2.04178
2.03945
2.03543
2.02904
2.01903
2.00294
1.97933
1.94757
1.90716
1.85831
1.80332
1.74368
1.68202
1.62125
1.56055
1.5093
1.42882
1.77603
1.80187
1.81577
1.82911
1.83781
1.84582
1.86394
1.88975
1.92135
1.93088
1.93593
1.95537
1.98437
1.99308
1.99881
2.00714
2.01668
2.01842
2.01777
2.01632
2.01368
2.00799
1.99681
1.97872
1.94805
1.90329
1.84568
1.77693
1.71092
1.60236
1.4785
1.49015
1.50064
1.50978
1.52208
1.53511
1.54904
1.56802
1.59284
1.61822
1.63979
1.66688
1.70649
1.7432
1.7751
1.81049
1.85012
1.88663
1.91974
1.94499
1.9678
1.98244
1.99159
1.99169
1.99029
1.98532
1.9735
1.95018
1.91312
1.81535
1.40362
1.40427
1.40526
1.40633
1.40766
1.40933
1.41127
1.41391
1.41767
1.42304
1.42962
1.43707
1.44835
1.46345
1.48254
1.50557
1.53626
1.57313
1.61802
1.66792
1.7225
1.77971
1.83221
1.88427
1.91982
1.94394
1.9627
1.9626
1.96016
1.93908
1.40005
1.40005
1.40007
1.40008
1.40011
1.40014
1.40018
1.40024
1.40033
1.40048
1.40071
1.40101
1.40152
1.40235
1.40371
1.4058
1.40927
1.41486
1.42361
1.43776
1.45821
1.48914
1.53101
1.58499
1.65193
1.72153
1.79285
1.85465
1.8995
1.92629
1.40001
1.40001
1.40001
1.40001
1.40001
1.40001
1.40001
1.40001
1.40001
1.40001
1.40001
1.40001
1.40002
1.40003
1.40004
1.40007
1.40014
1.40026
1.40051
1.40104
1.40213
1.40442
1.40902
1.41799
1.43469
1.46325
1.50775
1.57218
1.64565
1.76604
1.40001
1.40001
1.40001
1.40001
1.40001
1.40001
1.40001
1.40001
1.40001
1.40001
1.40001
1.40001
1.40001
1.40001
1.40001
1.40001
1.40001
1.40001
1.40001
1.40001
1.40002
1.40006
1.40014
1.40036
1.40097
1.40264
1.40674
1.41699
1.43548
1.50769
1.40001
1.40001
1.40001
1.40001
1.40001
1.40001
1.40001
1.40001
1.40001
1.40001
1.40001
1.40001
1.40001
1.40001
1.40001
1.40001
1.40001
1.40001
1.40001
1.40001
1.40001
1.40001
1.40001
1.40001
1.40001
1.40003
1.4001
1.40038
1.40114
1.40981
0.142572
0.140627
0.150064
0.161607
0.169519
0.178902
0.182348
0.181555
0.184607
0.186819
0.190646
0.217224
0.251362
0.298499
0.353255
0.413518
0.490689
0.585015
0.696604
0.829704
0.984423
1.16273
1.36156
1.58287
1.83071
2.03535
2.07208
2.01397
1.74141
1.46674
1.40296
1.40004
1.40001
1.40001
1.40001
0.141294
0.140888
0.153397
0.164341
0.170964
0.177736
0.178744
0.178114
0.184013
0.186398
0.190427
0.223702
0.256246
0.3096
0.371218
0.438441
0.520257
0.616543
0.729256
0.862165
1.0183
1.19904
1.401
1.62467
1.87254
2.05469
2.07181
1.98084
1.69559
1.44853
1.40165
1.40002
1.40001
1.40001
1.40001
0.138944
0.140851
0.156171
0.165279
0.170994
0.175406
0.175976
0.175555
0.182493
0.186792
0.193611
0.23209
0.264788
0.318514
0.380186
0.448692
0.530291
0.626924
0.740489
0.874456
1.03303
1.21619
1.42149
1.65086
1.90697
2.06784
2.06963
1.96033
1.66127
1.43566
1.401
1.40001
1.40001
1.40001
1.40001
0.137446
0.142476
0.157578
0.165447
0.171089
0.175018
0.17532
0.174771
0.181561
0.189044
0.202487
0.242075
0.274294
0.323426
0.383424
0.452672
0.534859
0.632251
0.748036
0.883152
1.04428
1.23166
1.44565
1.69099
1.95502
2.08045
2.07106
1.94496
1.62043
1.42361
1.40054
1.40001
1.40001
1.40001
1.40001
0.137088
0.144876
0.157581
0.165388
0.171566
0.175085
0.175309
0.174695
0.180873
0.190432
0.208444
0.247417
0.280021
0.327335
0.385291
0.454631
0.537175
0.638278
0.76113
0.910392
1.08624
1.28913
1.51891
1.77003
2.00445
2.08882
2.07352
1.91233
1.56999
1.41478
1.40029
1.40001
1.40001
1.40001
1.40001
0.137823
0.146773
0.157045
0.165289
0.17336
0.176045
0.175879
0.174929
0.18006
0.190807
0.211553
0.24895
0.287823
0.334795
0.393475
0.466476
0.563021
0.682222
0.819309
0.978877
1.16
1.36267
1.58436
1.82407
2.03305
2.09208
2.06277
1.84711
1.53129
1.40965
1.40016
1.40001
1.40001
1.40001
1.40001
0.139853
0.147611
0.155336
0.164634
0.175375
0.177648
0.177871
0.176702
0.179097
0.189561
0.215755
0.250168
0.299435
0.354655
0.425555
0.50615
0.604852
0.721347
0.857031
1.01378
1.19395
1.39587
1.61707
1.85898
2.05374
2.09293
2.03847
1.806
1.50427
1.40614
1.40009
1.40001
1.40001
1.40001
1.40001
0.141847
0.147808
0.153458
0.163635
0.177298
0.179068
0.179201
0.177167
0.178496
0.18895
0.221929
0.262085
0.314144
0.374328
0.445271
0.525209
0.620771
0.736202
0.872833
1.03091
1.21393
1.41946
1.64793
1.90176
2.07608
2.09317
2.0229
1.77053
1.47742
1.40354
1.40005
1.40001
1.40001
1.40001
1.40001
0.143022
0.147515
0.1527
0.163865
0.179084
0.179757
0.179651
0.175802
0.177973
0.192919
0.227241
0.269215
0.320303
0.381421
0.451591
0.531053
0.627649
0.742906
0.882343
1.04412
1.23489
1.45576
1.70735
1.96242
2.09456
2.0943
2.01391
1.71915
1.45254
1.40195
1.40003
1.40001
1.40001
1.40001
1.40001
0.143229
0.146163
0.152648
0.164371
0.179776
0.179937
0.179363
0.173809
0.176889
0.198818
0.22884
0.270711
0.321027
0.382626
0.452973
0.532644
0.632298
0.754831
0.906886
1.09535
1.30932
1.5454
1.79054
2.01054
2.10411
2.09769
1.98844
1.65592
1.43518
1.40107
1.40002
1.40001
1.40001
1.40001
1.40001
0.141962
0.144448
0.152333
0.164096
0.179451
0.179059
0.177128
0.171714
0.175743
0.20187
0.227776
0.270721
0.319279
0.380707
0.454486
0.548883
0.668921
0.818063
0.986106
1.17605
1.38407
1.60691
1.83815
2.03981
2.10859
2.09371
1.92737
1.60724
1.42338
1.40057
1.40001
1.40001
1.40001
1.40001
1.40001
0.140328
0.142756
0.15014
0.160497
0.176975
0.17642
0.174306
0.170407
0.175193
0.205697
0.22834
0.272463
0.325458
0.39326
0.490659
0.601073
0.724789
0.867082
1.02922
1.21316
1.41885
1.64192
1.87773
2.0663
2.11007
2.07457
1.88569
1.56599
1.41461
1.4003
1.40001
1.40001
1.40001
1.40001
1.40001
0.139694
0.1411
0.146023
0.157025
0.17573
0.175069
0.173067
0.170505
0.176498
0.212513
0.242781
0.29176
0.352413
0.429751
0.524622
0.627569
0.745838
0.887291
1.0506
1.23556
1.4476
1.68303
1.93271
2.09168
2.11056
2.05806
1.84809
1.52563
1.40878
1.40015
1.40001
1.40001
1.40001
1.40001
1.40001
0.139516
0.139712
0.142374
0.156307
0.175719
0.17521
0.17318
0.174029
0.185846
0.222538
0.262656
0.312175
0.371263
0.443699
0.533373
0.635617
0.756898
0.898688
1.0694
1.26725
1.50287
1.76203
1.99592
2.10953
2.11145
2.0503
1.79682
1.49022
1.40498
1.40007
1.40001
1.40001
1.40001
1.40001
1.40001
0.139493
0.13916
0.140927
0.156813
0.175749
0.177339
0.175507
0.177909
0.19766
0.230142
0.274534
0.321165
0.378624
0.448794
0.536653
0.638349
0.768479
0.928921
1.1254
1.35892
1.60225
1.83906
2.03812
2.11877
2.11481
2.03802
1.72928
1.46108
1.4026
1.40004
1.40001
1.40001
1.40001
1.40001
1.40001
0.140191
0.139249
0.141155
0.162058
0.177292
0.178751
0.176615
0.179343
0.203067
0.231714
0.277954
0.324949
0.382953
0.454549
0.547534
0.674352
0.831321
1.01858
1.222
1.43622
1.66102
1.88523
2.06756
2.12303
2.11297
1.97951
1.66806
1.4397
1.40134
1.40002
1.40001
1.40001
1.40001
1.40001
1.40001
0.140972
0.14014
0.144571
0.169756
0.179471
0.177978
0.174761
0.17823
0.203671
0.2298
0.277584
0.329009
0.39545
0.485481
0.607344
0.74662
0.900704
1.07382
1.26644
1.47611
1.70316
1.9326
2.09416
2.12422
2.09636
1.93018
1.61382
1.42531
1.40069
1.40001
1.40001
1.40001
1.40001
1.40001
1.40001
0.141733
0.141139
0.150812
0.172882
0.179456
0.172054
0.166433
0.171411
0.201696
0.227851
0.279047
0.355322
0.440954
0.537108
0.650954
0.779609
0.928492
1.10137
1.29742
1.51572
1.76235
1.99482
2.11447
2.12399
2.07862
1.8931
1.56739
1.41565
1.40034
1.40001
1.40001
1.40001
1.40001
1.40001
1.40001
0.142184
0.142003
0.158049
0.173457
0.175281
0.16496
0.161517
0.168832
0.200814
0.23924
0.307424
0.386472
0.467048
0.55781
0.66562
0.792189
0.946042
1.12707
1.34512
1.60057
1.85217
2.04793
2.12644
2.12488
2.0713
1.84961
1.52258
1.40862
1.40015
1.40001
1.40001
1.40001
1.40001
1.40001
1.40001
0.141015
0.143241
0.163117
0.173131
0.168405
0.160189
0.160819
0.171501
0.210658
0.262916
0.324343
0.39328
0.471504
0.562379
0.672165
0.803839
0.979602
1.20224
1.4522
1.69959
1.91897
2.08194
2.13229
2.12773
2.06374
1.77293
1.48022
1.40422
1.40007
1.40001
1.40001
1.40001
1.40001
1.40001
1.40001
0.139518
0.145015
0.163914
0.171893
0.165594
0.15866
0.16212
0.19165
0.225271
0.274304
0.328534
0.392553
0.469884
0.562773
0.694191
0.87762
1.0856
1.30855
1.53468
1.7595
1.96666
2.10643
2.13451
2.12416
2.00375
1.69728
1.45147
1.40215
1.40003
1.40001
1.40001
1.40001
1.40001
1.40001
1.40001
0.139458
0.146874
0.163676
0.170439
0.164787
0.158742
0.17188
0.204915
0.231332
0.277262
0.331751
0.393012
0.479888
0.611596
0.7867
0.967637
1.15737
1.36349
1.58335
1.81331
2.0188
2.12452
2.1345
2.1061
1.94685
1.63837
1.43316
1.40108
1.40002
1.40001
1.40001
1.40001
1.40001
1.40001
1.40001
0.139727
0.147828
0.162916
0.168782
0.164519
0.161117
0.178035
0.206046
0.233334
0.279226
0.341789
0.434672
0.55277
0.690742
0.844008
1.00929
1.19589
1.40664
1.64448
1.89153
2.06966
2.13534
2.13252
2.08589
1.90773
1.58637
1.41952
1.40048
1.40001
1.40001
1.40001
1.40001
1.40001
1.40001
1.40001
0.139672
0.146948
0.159395
0.167586
0.164001
0.164327
0.178541
0.200716
0.238486
0.305973
0.388223
0.491565
0.600377
0.724399
0.869691
1.03529
1.23903
1.48435
1.7497
1.97032
2.10513
2.14026
2.13431
2.07751
1.86336
1.53228
1.41022
1.4002
1.40001
1.40001
1.40001
1.40001
1.40001
1.40001
1.40001
0.137935
0.144014
0.157336
0.167642
0.163653
0.164436
0.180166
0.197985
0.264035
0.344856
0.4263
0.516721
0.616646
0.739848
0.896626
1.0932
1.33946
1.60525
1.84073
2.02417
2.12676
2.14319
2.13688
2.07052
1.77862
1.48342
1.40475
1.40008
1.40001
1.40001
1.40001
1.40001
1.40001
1.40001
1.40001
0.133758
0.140214
0.157907
0.169049
0.163315
0.163549
0.188606
0.215822
0.28734
0.357019
0.436078
0.523714
0.627374
0.769528
0.975117
1.21617
1.45586
1.68893
1.90334
2.06717
2.13848
2.14421
2.13185
2.00324
1.69134
1.45104
1.40222
1.40003
1.40001
1.40001
1.40001
1.40001
1.40001
1.40001
1.40001
0.129011
0.136757
0.160174
0.170649
0.162269
0.162459
0.196437
0.232661
0.293053
0.356193
0.435851
0.530582
0.676442
0.874231
1.08974
1.30346
1.52445
1.75423
1.96911
2.10408
2.14392
2.14152
2.10724
1.93529
1.62788
1.43143
1.40104
1.40002
1.40001
1.40001
1.40001
1.40001
1.40001
1.40001
1.40001
0.125947
0.135781
0.163183
0.170608
0.162094
0.162231
0.198566
0.237256
0.291416
0.351965
0.443875
0.601029
0.779981
0.959366
1.15131
1.36003
1.59519
1.84422
2.03797
2.12857
2.14611
2.13512
2.07868
1.88859
1.57214
1.41712
1.40042
1.40001
1.40001
1.40001
1.40001
1.40001
1.40001
1.40001
1.40001
0.125255
0.136858
0.164948
0.163543
0.159485
0.16137
0.193898
0.241696
0.296565
0.38857
0.528668
0.685646
0.836387
1.00319
1.20249
1.439
1.70974
1.94223
2.08659
2.14207
2.14703
2.13454
2.06356
1.8339
1.51331
1.4081
1.40016
1.40001
1.40001
1.40001
1.40001
1.40001
1.40001
1.40001
1.40001
0.125912
0.141566
0.164174
0.153332
0.14913
0.164689
0.192359
0.253911
0.341445
0.464733
0.592612
0.722772
0.86798
1.05075
1.29885
1.5769
1.82529
2.00993
2.11701
2.14794
2.14774
2.13785
2.04998
1.73593
1.46561
1.40341
1.40006
1.40001
1.40001
1.40001
1.40001
1.40001
1.40001
1.40001
1.40001
0.131143
0.144319
0.154793
0.145983
0.142151
0.174232
0.213799
0.295239
0.395066
0.504427
0.614027
0.74428
0.920683
1.17008
1.44613
1.69302
1.90551
2.06113
2.13592
2.14949
2.14755
2.12677
1.96578
1.64301
1.4366
1.40139
1.40002
1.40001
1.40001
1.40001
1.40001
1.40001
1.40001
1.40001
1.40001
0.142933
0.146461
0.147665
0.140679
0.140281
0.189469
0.251332
0.337638
0.422951
0.514986
0.62655
0.807792
1.05765
1.31106
1.55224
1.77829
1.97972
2.10403
2.14578
2.14961
2.14284
2.08835
1.88361
1.57804
1.42016
1.40058
1.40001
1.40001
1.40001
1.40001
1.40001
1.40001
1.40001
1.40001
1.40001
0.154126
0.150799
0.145265
0.137869
0.14245
0.210451
0.278617
0.350713
0.429587
0.521874
0.703463
0.95374
1.18272
1.40461
1.64041
1.87542
2.05242
2.13173
2.15042
2.14863
2.13138
2.05343
1.82635
1.52338
1.40967
1.40021
1.40001
1.40001
1.40001
1.40001
1.40001
1.40001
1.40001
1.40001
1.40001
0.15847
0.154663
0.144325
0.137192
0.162847
0.2256
0.283901
0.34717
0.434351
0.611571
0.848137
1.06195
1.26625
1.49812
1.76234
1.97859
2.10067
2.14651
2.15262
2.15038
2.13005
2.02995
1.75291
1.47062
1.40386
1.40007
1.40001
1.40001
1.40001
1.40001
1.40001
1.40001
1.40001
1.40001
1.40001
0.158848
0.155392
0.14428
0.142521
0.189997
0.231296
0.276705
0.349217
0.519285
0.745553
0.941686
1.13681
1.36668
1.64288
1.89114
2.05148
2.12787
2.15323
2.1547
2.15188
2.13285
1.99075
1.64101
1.43411
1.40132
1.40002
1.40001
1.40001
1.40001
1.40001
1.40001
1.40001
1.40001
1.40001
1.40001
0.156474
0.14784
0.144393
0.155509
0.205113
0.233191
0.280586
0.435865
0.643873
0.825957
1.0085
1.24496
1.53054
1.78873
1.9844
2.09999
2.14305
2.1553
2.15553
2.14959
2.098
1.86671
1.55361
1.41617
1.40045
1.40001
1.40001
1.40001
1.40001
1.40001
1.40001
1.40001
1.40001
1.40001
1.40001
0.144985
0.136083
0.143415
0.163566
0.207363
0.229124
0.356216
0.551989
0.716732
0.885995
1.12317
1.42331
1.68626
1.89984
2.05637
2.13125
2.15024
2.15579
2.1511
2.1353
2.03336
1.77431
1.49941
1.40735
1.40016
1.40001
1.40001
1.40001
1.40001
1.40001
1.40001
1.40001
1.40001
1.40001
1.40001
0.13964
0.129374
0.144145
0.162294
0.198342
0.261466
0.459956
0.620295
0.775333
1.00582
1.31253
1.58683
1.8129
1.99603
2.11029
2.14571
2.15243
2.15541
2.1449
2.11188
1.9857
1.70194
1.45658
1.4028
1.40005
1.40001
1.40001
1.40001
1.40001
1.40001
1.40001
1.40001
1.40001
1.40001
1.40001
0.139604
0.124658
0.144866
0.161143
0.193927
0.358954
0.531273
0.669699
0.893071
1.20167
1.48399
1.72722
1.93488
2.07146
2.14028
2.14998
2.15216
2.15495
2.14562
2.09996
1.93641
1.60534
1.42454
1.40085
1.40002
1.40001
1.40001
1.40001
1.40001
1.40001
1.40001
1.40001
1.40001
1.40001
1.40001
0.139988
0.117728
0.137507
0.167848
0.249157
0.441578
0.578378
0.781667
1.08945
1.37976
1.63816
1.87325
2.03622
2.11496
2.15321
2.15056
2.15141
2.15327
2.14967
2.09336
1.82711
1.50947
1.4088
1.40022
1.40001
1.40001
1.40001
1.40001
1.40001
1.40001
1.40001
1.40001
1.40001
1.40001
1.40001
0.136527
0.11184
0.123692
0.202392
0.34401
0.50423
0.671239
0.982498
1.27785
1.54977
1.80743
1.99967
2.09916
2.1356
2.15685
2.15137
2.15162
2.14933
2.14125
2.00916
1.69097
1.45589
1.40311
1.40006
1.40001
1.40001
1.40001
1.40001
1.40001
1.40001
1.40001
1.40001
1.40001
1.40001
1.40001
0.131779
0.106125
0.119543
0.252159
0.415048
0.574909
0.878485
1.18659
1.46591
1.74415
1.95746
2.0833
2.13107
2.14332
2.158
2.15138
2.15489
2.14279
2.09718
1.90625
1.60179
1.42791
1.40102
1.40002
1.40001
1.40001
1.40001
1.40001
1.40001
1.40001
1.40001
1.40001
1.40001
1.40001
1.40001
0.118725
0.0990668
0.156754
0.312647
0.506391
0.764426
1.10076
1.39231
1.68494
1.91892
2.05987
2.12976
2.14265
2.14545
2.15883
2.15057
2.15723
2.13858
2.05312
1.82355
1.52573
1.41068
1.40027
1.40001
1.40001
1.40001
1.40001
1.40001
1.40001
1.40001
1.40001
1.40001
1.40001
1.40001
1.40001
0.0698204
0.108415
0.230799
0.398328
0.652786
1.01869
1.33435
1.63769
1.88398
2.04022
2.11987
2.14836
2.145
2.14583
2.16076
2.15152
2.15742
2.14403
2.01647
1.70872
1.45462
1.4029
1.40006
1.40001
1.40001
1.40001
1.40001
1.40001
1.40001
1.40001
1.40001
1.40001
1.40001
1.40001
1.40001
0.0418188
0.110372
0.301845
0.569509
0.9265
1.28433
1.60043
1.86006
2.02663
2.11228
2.14689
2.15156
2.14545
2.14624
2.16327
2.15491
2.15137
2.12558
1.91946
1.56706
1.41829
1.40064
1.40001
1.40001
1.40001
1.40001
1.40001
1.40001
1.40001
1.40001
1.40001
1.40001
1.40001
1.40001
1.40001
0.0256382
0.166764
0.441987
0.838413
1.24315
1.57774
1.85379
2.02191
2.109
2.14392
2.15461
2.15143
2.14528
2.14706
2.16536
2.15698
2.13366
2.03518
1.75187
1.48315
1.40614
1.40014
1.40001
1.40001
1.40001
1.40001
1.40001
1.40001
1.40001
1.40001
1.40001
1.40001
1.40001
1.40001
1.40001
0.0403843
0.324556
0.738229
1.18554
1.57642
1.86683
2.03029
2.1099
2.14192
2.1534
2.15549
2.15029
2.14552
2.14964
2.16695
2.15424
2.1146
1.9487
1.64012
1.43861
1.40169
1.40003
1.40001
1.40001
1.40001
1.40001
1.40001
1.40001
1.40001
1.40001
1.40001
1.40001
1.40001
1.40001
1.40001
0.1555
0.573588
1.14629
1.60974
1.89773
2.05193
2.11831
2.14143
2.14992
2.15519
2.15528
2.1499
2.14614
2.15271
2.16732
2.13787
2.09168
1.85066
1.52863
1.41085
1.40029
1.40001
1.40001
1.40001
1.40001
1.40001
1.40001
1.40001
1.40001
1.40001
1.40001
1.40001
1.40001
1.40001
1.40001
0.509704
1.08374
1.64126
1.9433
2.08094
2.13102
2.14454
2.14726
2.15085
2.15546
2.15557
2.1505
2.14678
2.15563
2.16403
2.11758
2.02248
1.68699
1.44145
1.40168
1.40003
1.40001
1.40001
1.40001
1.40001
1.40001
1.40001
1.40001
1.40001
1.40001
1.40001
1.40001
1.40001
1.40001
1.40001
1.2057
1.72114
2.01265
2.11385
2.14312
2.14851
2.14774
2.14754
2.1511
2.157
2.15714
2.15068
2.14696
2.1572
2.15877
2.09337
1.88121
1.53504
1.40995
1.40019
1.40001
1.40001
1.40001
1.40001
1.40001
1.40001
1.40001
1.40001
1.40001
1.40001
1.40001
1.40001
1.40001
1.40001
1.40001
2.14838
2.15053
2.15208
2.15305
2.1526
2.14901
2.14679
2.14753
2.15364
2.15982
2.15843
2.15035
2.14522
2.15687
2.14999
2.04036
1.72756
1.44194
1.39969
1.39997
1.4
1.40001
1.40001
1.40001
1.40001
1.40001
1.40001
1.40001
1.40001
1.40001
1.40001
1.40001
1.40001
1.40001
1.40001
2.14716
2.1492
2.15117
2.15219
2.15251
2.1494
2.14659
2.14633
2.15123
2.16028
2.16066
2.15368
2.13936
2.14304
2.14633
2.02719
1.68963
1.44271
1.40139
1.40002
1.40001
1.40001
1.40001
1.40001
1.40001
1.40001
1.40001
1.40001
1.40001
1.40001
1.40001
1.40001
1.40001
1.40001
1.40001
2.14696
2.14842
2.15045
2.1517
2.15203
2.14993
2.14701
2.14626
2.14945
2.15854
2.16085
2.15704
2.13736
2.13406
2.13035
1.9609
1.59202
1.41395
1.4002
1.40001
1.40001
1.40001
1.40001
1.40001
1.40001
1.40001
1.40001
1.40001
1.40001
1.40001
1.40001
1.40001
1.40001
1.40001
1.40001
2.14823
2.14856
2.14998
2.15075
2.15142
2.15112
2.14879
2.14733
2.14813
2.15402
2.15911
2.16023
2.14211
2.12869
2.12296
1.89317
1.52867
1.40694
1.40008
1.40001
1.40001
1.40001
1.40001
1.40001
1.40001
1.40001
1.40001
1.40001
1.40001
1.40001
1.40001
1.40001
1.40001
1.40001
1.40001
2.1511
2.15029
2.15013
2.15007
2.15077
2.15206
2.15207
2.14988
2.14775
2.14916
2.15603
2.16177
2.15055
2.12805
2.10202
1.7966
1.4753
1.40265
1.40003
1.40001
1.40001
1.40001
1.40001
1.40001
1.40001
1.40001
1.40001
1.40001
1.40001
1.40001
1.40001
1.40001
1.40001
1.40001
1.40001
2.15383
2.15222
2.15045
2.1496
2.15002
2.15249
2.15464
2.15298
2.14813
2.14572
2.15272
2.16291
2.15709
2.12009
2.03814
1.70588
1.4408
1.40099
1.40001
1.40001
1.40001
1.40001
1.40001
1.40001
1.40001
1.40001
1.40001
1.40001
1.40001
1.40001
1.40001
1.40001
1.40001
1.40001
1.40001
2.15521
2.15309
2.15048
2.14901
2.14919
2.15271
2.15573
2.1555
2.14893
2.14395
2.14974
2.16591
2.15986
2.11029
1.97767
1.62627
1.41984
1.40034
1.40001
1.40001
1.40001
1.40001
1.40001
1.40001
1.40001
1.40001
1.40001
1.40001
1.40001
1.40001
1.40001
1.40001
1.40001
1.40001
1.40001
2.15553
2.15342
2.15057
2.14844
2.14815
2.15214
2.15606
2.15664
2.14973
2.14299
2.14657
2.16597
2.16077
2.10686
1.9137
1.5499
1.40889
1.40011
1.40001
1.40001
1.40001
1.40001
1.40001
1.40001
1.40001
1.40001
1.40001
1.40001
1.40001
1.40001
1.40001
1.40001
1.40001
1.40001
1.40001
2.15402
2.15261
2.15011
2.14809
2.14765
2.15062
2.15545
2.15689
2.15113
2.14265
2.14377
2.15911
2.15572
2.08124
1.82907
1.48829
1.40352
1.40004
1.40001
1.40001
1.40001
1.40001
1.40001
1.40001
1.40001
1.40001
1.40001
1.40001
1.40001
1.40001
1.40001
1.40001
1.40001
1.40001
1.40001
2.15053
2.15083
2.14955
2.14842
2.14747
2.1485
2.15211
2.15552
2.15327
2.14548
2.14329
2.1554
2.14755
2.03143
1.73324
1.44776
1.40127
1.40001
1.40001
1.40001
1.40001
1.40001
1.40001
1.40001
1.40001
1.40001
1.40001
1.40001
1.40001
1.40001
1.40001
1.40001
1.40001
1.40001
1.40001
2.14813
2.14969
2.14937
2.14978
2.1483
2.14755
2.14822
2.15317
2.15492
2.15044
2.14486
2.15339
2.14438
1.98957
1.64262
1.42326
1.40042
1.40001
1.40001
1.40001
1.40001
1.40001
1.40001
1.40001
1.40001
1.40001
1.40001
1.40001
1.40001
1.40001
1.40001
1.40001
1.40001
1.40001
1.40001
2.147
2.14938
2.15024
2.1513
2.15037
2.14716
2.14573
2.14997
2.15547
2.15794
2.14658
2.14382
2.13375
1.92597
1.55268
1.40953
1.40013
1.40001
1.40001
1.40001
1.40001
1.40001
1.40001
1.40001
1.40001
1.40001
1.40001
1.40001
1.40001
1.40001
1.40001
1.40001
1.40001
1.40001
1.40001
2.14691
2.14946
2.15123
2.15323
2.15245
2.14728
2.14494
2.14637
2.15598
2.16311
2.1508
2.1243
2.08951
1.82706
1.49049
1.40369
1.40004
1.40001
1.40001
1.40001
1.40001
1.40001
1.40001
1.40001
1.40001
1.40001
1.40001
1.40001
1.40001
1.40001
1.40001
1.40001
1.40001
1.40001
1.40001
2.14923
2.15042
2.15242
2.15416
2.15375
2.14895
2.14434
2.14472
2.15463
2.16491
2.15682
2.11512
2.0485
1.74155
1.45007
1.40133
1.40001
1.40001
1.40001
1.40001
1.40001
1.40001
1.40001
1.40001
1.40001
1.40001
1.40001
1.40001
1.40001
1.40001
1.40001
1.40001
1.40001
1.40001
1.40001
2.15224
2.15161
2.15321
2.15427
2.15406
2.15075
2.14518
2.14395
2.15251
2.16514
2.15909
2.11302
2.00351
1.63629
1.42185
1.4004
1.40001
1.40001
1.40001
1.40001
1.40001
1.40001
1.40001
1.40001
1.40001
1.40001
1.40001
1.40001
1.40001
1.40001
1.40001
1.40001
1.40001
1.40001
1.40001
2.1542
2.15282
2.15314
2.15321
2.15374
2.15214
2.14684
2.14463
2.15053
2.16315
2.15596
2.09299
1.91509
1.54594
1.40898
1.40012
1.40001
1.40001
1.40001
1.40001
1.40001
1.40001
1.40001
1.40001
1.40001
1.40001
1.40001
1.40001
1.40001
1.40001
1.40001
1.40001
1.40001
1.40001
1.40001
2.15551
2.15335
2.15152
2.14994
2.15143
2.15289
2.14965
2.14654
2.14863
2.16198
2.15331
2.06533
1.81811
1.48594
1.40331
1.40004
1.40001
1.40001
1.40001
1.40001
1.40001
1.40001
1.40001
1.40001
1.40001
1.40001
1.40001
1.40001
1.40001
1.40001
1.40001
1.40001
1.40001
1.40001
1.40001
2.15538
2.15273
2.14889
2.14646
2.14823
2.15238
2.153
2.14817
2.14504
2.15786
2.15398
2.04434
1.71276
1.44042
1.40099
1.40001
1.40001
1.40001
1.40001
1.40001
1.40001
1.40001
1.40001
1.40001
1.40001
1.40001
1.40001
1.40001
1.40001
1.40001
1.40001
1.40001
1.40001
1.40001
1.40001
2.15319
2.15107
2.1476
2.14494
2.14509
2.15123
2.15421
2.152
2.1395
2.14
2.14216
1.9778
1.60474
1.41683
1.40028
1.40001
1.40001
1.40001
1.40001
1.40001
1.40001
1.40001
1.40001
1.40001
1.40001
1.40001
1.40001
1.40001
1.40001
1.40001
1.40001
1.40001
1.40001
1.40001
1.40001
2.15057
2.15025
2.14735
2.14452
2.1431
2.14828
2.15443
2.15785
2.13926
2.1242
2.11183
1.88326
1.52776
1.40666
1.40008
1.40001
1.40001
1.40001
1.40001
1.40001
1.40001
1.40001
1.40001
1.40001
1.40001
1.40001
1.40001
1.40001
1.40001
1.40001
1.40001
1.40001
1.40001
1.40001
1.40001
2.14857
2.1501
2.14842
2.14664
2.14281
2.14472
2.15331
2.16008
2.15029
2.11839
2.0848
1.78799
1.46539
1.40207
1.40002
1.40001
1.40001
1.40001
1.40001
1.40001
1.40001
1.40001
1.40001
1.40001
1.40001
1.40001
1.40001
1.40001
1.40001
1.40001
1.40001
1.40001
1.40001
1.40001
1.40001
2.14739