/*--------------------------------*- C++ -*----------------------------------*\
  =========                 |
  \\      /  F ield         | OpenFOAM: The Open Source CFD Toolbox
   \\    /   O peration     | Website:  https://openfoam.org
    \\  /    A nd           | Version:  7
     \\/     M anipulation  |
\*---------------------------------------------------------------------------*/
FoamFile
{
    version     2.0;
    format      ascii;
    class       volScalarField;
    location    "1.5";
    object      p;
}
// * * * * * * * * * * * * * * * * * * * * * * * * * * * * * * * * * * * * * //

dimensions      [1 -1 -2 0 0 0 0];

internalField   nonuniform List<scalar> 
24000
(
0.4247
0.454653
0.488385
0.523576
0.558954
0.595771
0.632839
0.670112
0.707317
0.744199
0.779793
0.812666
0.845124
0.871993
0.899661
0.918597
0.940437
0.953846
0.963968
0.978079
0.97815
0.982223
0.98968
0.990514
1.00187
1.02297
1.03823
1.05842
1.075
1.083
1.08187
1.07774
1.07156
1.07354
1.08238
1.08786
1.08715
1.08588
1.08689
1.08846
1.08899
1.09047
1.08835
1.08471
1.08008
1.07883
1.07443
1.06315
1.04166
0.990198
0.400917
0.401038
0.401368
0.402158
0.403587
0.406224
0.410422
0.417243
0.426979
0.441496
0.460307
0.485877
0.516783
0.556084
0.599024
0.650081
0.701055
0.75587
0.804937
0.855215
0.893976
0.928848
0.961122
0.981547
1.01074
1.03934
1.04824
1.05887
1.0806
1.0853
1.07914
1.07072
1.07238
1.07907
1.08674
1.08784
1.08458
1.08259
1.08687
1.09132
1.09379
1.09349
1.08946
1.0845
1.07975
1.079
1.07428
1.06279
1.03963
0.989035
0.400246
0.400244
0.400249
0.400253
0.400259
0.400262
0.400271
0.400362
0.400475
0.400688
0.401081
0.401904
0.40337
0.406243
0.410996
0.420441
0.434843
0.459681
0.49583
0.543242
0.611287
0.684222
0.768478
0.847956
0.934552
0.979784
1.0122
1.04382
1.07355
1.07142
1.06063
1.06593
1.07675
1.08685
1.08943
1.08351
1.07971
1.08185
1.08835
1.0927
1.09552
1.09465
1.09004
1.08393
1.0812
1.07999
1.07379
1.06231
1.03756
0.987386
0.399929
0.399932
0.399933
0.399928
0.399929
0.399933
0.399945
0.399969
0.400004
0.400051
0.400103
0.400176
0.400259
0.400335
0.400418
0.400603
0.400908
0.401538
0.403003
0.406533
0.414832
0.432087
0.465682
0.530081
0.612559
0.723827
0.867754
0.971219
1.03549
1.03851
1.05478
1.07333
1.09501
1.09597
1.09267
1.07818
1.0772
1.08513
1.09362
1.09608
1.09712
1.09433
1.0899
1.0849
1.08299
1.08005
1.07335
1.06171
1.03504
0.984944
0.400189
0.400178
0.400165
0.400154
0.400145
0.400149
0.400176
0.400214
0.400285
0.400371
0.400432
0.40052
0.40067
0.400803
0.400921
0.401067
0.401223
0.401438
0.401584
0.401822
0.402248
0.403023
0.404566
0.408986
0.419246
0.450797
0.519091
0.641138
0.788029
0.920426
1.02347
1.05625
1.0747
1.08645
1.07872
1.07271
1.08292
1.09323
1.09358
1.09357
1.09372
1.08968
1.08875
1.0864
1.0847
1.07998
1.07397
1.06184
1.03311
0.982685
0.400477
0.400485
0.400509
0.400528
0.400544
0.400575
0.400624
0.400688
0.400781
0.400871
0.400951
0.401081
0.40125
0.401392
0.401526
0.401701
0.401849
0.401984
0.402146
0.402355
0.40267
0.403141
0.403815
0.405012
0.406705
0.410041
0.417415
0.437989
0.484076
0.587691
0.719111
0.851667
0.942765
1.02508
1.04442
1.07237
1.10151
1.10079
1.09434
1.08845
1.08237
1.08518
1.08845
1.08965
1.08633
1.07943
1.0745
1.0618
1.03142
0.980462
0.400615
0.400648
0.400714
0.400798
0.400843
0.400885
0.400942
0.401009
0.401106
0.401147
0.401188
0.401249
0.401332
0.401423
0.401498
0.401582
0.40165
0.401703
0.401784
0.401905
0.402138
0.40243
0.402861
0.403812
0.405332
0.407986
0.412642
0.420693
0.433908
0.455344
0.488966
0.553499
0.660747
0.802346
0.948605
1.04807
1.09087
1.08229
1.07767
1.07387
1.07517
1.08549
1.09362
1.09365
1.08664
1.07972
1.07801
1.06414
1.03105
0.978295
0.401315
0.401339
0.401361
0.401375
0.401391
0.401397
0.401394
0.401394
0.401382
0.401348
0.401338
0.40134
0.40133
0.401347
0.401368
0.401331
0.401298
0.401239
0.401136
0.401051
0.401069
0.401247
0.401705
0.402605
0.404159
0.406725
0.410918
0.417903
0.429668
0.448156
0.465954
0.475461
0.48913
0.527607
0.636632
0.785189
0.954765
1.00995
1.06712
1.0763
1.07823
1.09554
1.10069
1.09774
1.08396
1.08304
1.0823
1.06632
1.03264
0.979748
0.402041
0.402035
0.402015
0.401992
0.401962
0.401899
0.401836
0.40179
0.401725
0.401644
0.401577
0.401504
0.401366
0.401227
0.401116
0.400857
0.400659
0.400558
0.400359
0.400265
0.400315
0.400549
0.401085
0.402028
0.403576
0.405904
0.409596
0.415832
0.426325
0.443197
0.463317
0.474137
0.476079
0.477846
0.487745
0.529608
0.63715
0.823581
1.00805
1.06225
1.08559
1.10726
1.107
1.09231
1.08415
1.08966
1.0872
1.068
1.03606
0.981082
0.401858
0.401798
0.401748
0.401688
0.401584
0.401468
0.401391
0.401343
0.401297
0.401274
0.401242
0.401133
0.400978
0.40084
0.400591
0.400123
0.400014
0.399986
0.399901
0.399889
0.399989
0.400309
0.400917
0.401837
0.403334
0.405479
0.408663
0.414023
0.422748
0.436732
0.45611
0.471446
0.475511
0.47698
0.47859
0.48161
0.492671
0.547184
0.67806
0.863178
1.03001
1.09714
1.08749
1.08135
1.09265
1.09576
1.08968
1.06892
1.03708
0.981638
0.401549
0.401422
0.401227
0.401068
0.400982
0.400869
0.400786
0.400819
0.400836
0.400819
0.400785
0.40074
0.400702
0.400619
0.400354
0.399974
0.399882
0.39999
0.400162
0.400389
0.400582
0.400839
0.401272
0.402005
0.403233
0.405264
0.40809
0.412232
0.418891
0.430145
0.447569
0.465964
0.475525
0.477398
0.478734
0.480988
0.483539
0.487335
0.504432
0.580951
0.738604
0.935589
1.01384
1.07267
1.10384
1.1018
1.07973
1.06418
1.03621
0.980957
0.400723
0.400709
0.400662
0.400573
0.400574
0.400589
0.400573
0.400672
0.400665
0.400636
0.400642
0.400643
0.400722
0.400937
0.40108
0.401158
0.401387
0.401678
0.401767
0.401877
0.402131
0.40211
0.402118
0.402447
0.403257
0.404853
0.40721
0.410189
0.414829
0.423577
0.438654
0.457433
0.473049
0.479243
0.480667
0.482168
0.484671
0.487833
0.489867
0.494634
0.524227
0.6367
0.849794
1.03266
1.09619
1.08575
1.06887
1.06145
1.03471
0.979325
0.400674
0.400764
0.400753
0.400757
0.400812
0.400906
0.401304
0.401534
0.401544
0.401706
0.401833
0.401744
0.40173
0.401971
0.402076
0.402065
0.402303
0.402369
0.402326
0.402346
0.402631
0.402606
0.402332
0.402385
0.402802
0.403765
0.405407
0.407674
0.411259
0.418066
0.430544
0.449099
0.468532
0.480377
0.482623
0.484016
0.485953
0.489128
0.489425
0.490079
0.491452
0.502337
0.571689
0.746396
0.963028
1.03745
1.06612
1.06593
1.03566
0.975335
0.400366
0.400543
0.400678
0.400862
0.401196
0.401661
0.402447
0.40272
0.40277
0.402842
0.402765
0.40243
0.401918
0.401569
0.401571
0.401581
0.401369
0.40124
0.40141
0.401669
0.40174
0.401313
0.40056
0.400556
0.400807
0.401389
0.402675
0.404852
0.408356
0.413955
0.423428
0.440183
0.461679
0.477206
0.483818
0.486473
0.487143
0.488771
0.489173
0.489391
0.490503
0.492026
0.496881
0.534676
0.684662
0.921067
1.05167
1.0512
1.01519
0.967734
0.40143
0.401517
0.401503
0.401388
0.401361
0.401527
0.402009
0.402444
0.402598
0.402507
0.40211
0.401484
0.400489
0.399587
0.399368
0.399132
0.398712
0.398326
0.39847
0.398839
0.399003
0.39919
0.398985
0.398893
0.39908
0.399669
0.400953
0.403107
0.406274
0.410708
0.418205
0.431392
0.449958
0.468297
0.478279
0.483114
0.487943
0.48884
0.489138
0.490217
0.491411
0.493345
0.495942
0.498574
0.52034
0.623021
0.829736
0.948186
0.975215
0.970142
0.399897
0.399784
0.399625
0.399432
0.399252
0.399229
0.399239
0.399192
0.399034
0.398775
0.398338
0.397557
0.397011
0.39695
0.396966
0.396986
0.396959
0.39714
0.397814
0.398493
0.398913
0.3993
0.399349
0.399049
0.398852
0.399071
0.400221
0.402589
0.405708
0.409506
0.41534
0.424533
0.436995
0.45269
0.46709
0.47679
0.483831
0.487283
0.489479
0.492764
0.497631
0.501206
0.502087
0.502922
0.501222
0.508485
0.563546
0.707001
0.8986
0.960135
0.404942
0.405429
0.405588
0.405549
0.404597
0.404314
0.404671
0.40473
0.404498
0.404382
0.404475
0.404623
0.404601
0.404703
0.404834
0.404671
0.404585
0.404869
0.405654
0.406093
0.407013
0.409082
0.410563
0.410487
0.409671
0.408735
0.40883
0.409899
0.411654
0.413948
0.417744
0.423628
0.432227
0.444372
0.458836
0.471166
0.481405
0.486883
0.492749
0.500374
0.506037
0.506834
0.507043
0.507491
0.506391
0.503102
0.492533
0.50876
0.609798
0.827923
0.437656
0.438756
0.439918
0.440134
0.44012
0.439403
0.438507
0.438379
0.437748
0.436965
0.436569
0.436134
0.435671
0.435109
0.434388
0.433477
0.432329
0.430861
0.430454
0.430272
0.429775
0.428979
0.427907
0.426086
0.423684
0.421666
0.420257
0.4187
0.417689
0.418088
0.419775
0.422861
0.429434
0.440267
0.454585
0.469435
0.481137
0.492647
0.502887
0.511226
0.513904
0.513738
0.513414
0.512997
0.511466
0.503169
0.489578
0.478841
0.486266
0.626432
0.474795
0.475116
0.474844
0.473133
0.471917
0.471821
0.471859
0.471725
0.471036
0.469417
0.468967
0.469021
0.468634
0.46709
0.465832
0.464775
0.463091
0.460777
0.459062
0.458096
0.456714
0.454302
0.451233
0.448686
0.446908
0.444635
0.442153
0.441351
0.441189
0.44123
0.441247
0.44253
0.446894
0.453825
0.464326
0.47906
0.494501
0.506177
0.514913
0.521334
0.522482
0.522553
0.52228
0.521676
0.51763
0.506332
0.489939
0.47965
0.483376
0.53301
0.539151
0.53786
0.535267
0.534548
0.534904
0.534882
0.533671
0.533018
0.532593
0.530955
0.530499
0.530595
0.52993
0.527378
0.526694
0.52672
0.525969
0.523079
0.521911
0.521416
0.520237
0.517475
0.513339
0.512227
0.511564
0.510083
0.505724
0.502726
0.501197
0.499423
0.497029
0.495182
0.494374
0.495207
0.498801
0.504329
0.511491
0.51737
0.520308
0.523423
0.528556
0.534017
0.536295
0.536635
0.533906
0.524487
0.513096
0.514529
0.518513
0.543892
0.62026
0.620073
0.618891
0.61654
0.615248
0.615324
0.6147
0.612037
0.611704
0.611226
0.60959
0.607197
0.60504
0.603058
0.600416
0.5983
0.596471
0.59388
0.590222
0.586693
0.584619
0.582241
0.578605
0.573864
0.570024
0.567221
0.563237
0.558795
0.553908
0.549273
0.544485
0.538955
0.536654
0.537044
0.537308
0.537885
0.541838
0.548728
0.555842
0.562433
0.570924
0.578745
0.581063
0.581417
0.579288
0.57241
0.569809
0.573404
0.579717
0.603365
0.715865
0.715876
0.714535
0.710345
0.707357
0.707473
0.70815
0.707144
0.70377
0.70085
0.700228
0.699005
0.695454
0.692677
0.690656
0.688067
0.685035
0.681785
0.678536
0.674645
0.670877
0.667706
0.663907
0.658867
0.653858
0.648689
0.642845
0.637987
0.632948
0.627551
0.622259
0.615667
0.611945
0.610412
0.607761
0.607696
0.61021
0.612509
0.614424
0.615541
0.615808
0.615216
0.613353
0.610724
0.605998
0.601367
0.603846
0.612146
0.623059
0.65468
0.830142
0.828973
0.828045
0.825905
0.822721
0.82238
0.821512
0.819213
0.814497
0.812629
0.812427
0.810579
0.804256
0.80068
0.799751
0.797399
0.792604
0.787033
0.78292
0.77908
0.774071
0.768375
0.763257
0.757643
0.750959
0.744596
0.737959
0.730895
0.723176
0.715032
0.707662
0.699837
0.691567
0.684307
0.677713
0.672656
0.669313
0.667194
0.666507
0.666261
0.665619
0.664853
0.663696
0.659303
0.65395
0.655617
0.659824
0.668695
0.68584
0.72932
0.949533
0.947621
0.94446
0.94413
0.944214
0.942856
0.940429
0.938027
0.934033
0.932796
0.932298
0.930143
0.925016
0.921661
0.919407
0.916333
0.912289
0.907619
0.902952
0.898251
0.892989
0.887082
0.880795
0.874334
0.867212
0.859598
0.851553
0.842897
0.834119
0.824642
0.814501
0.804236
0.793626
0.783364
0.77376
0.765135
0.758323
0.753005
0.749404
0.747565
0.746317
0.745001
0.742751
0.739334
0.739835
0.743539
0.750481
0.763539
0.781268
0.824053
1.02175
1.02101
1.02068
1.02029
1.01973
1.01909
1.01833
1.01682
1.01532
1.01508
1.01459
1.01273
1.01068
1.00944
1.00804
1.00597
1.00347
1.00085
0.998148
0.995268
0.991939
0.988037
0.983677
0.978876
0.973516
0.967598
0.961156
0.953999
0.946104
0.937439
0.927919
0.917572
0.906212
0.894245
0.881978
0.869543
0.858173
0.848142
0.839021
0.831553
0.82606
0.821308
0.815567
0.813245
0.816085
0.822493
0.833311
0.851169
0.873083
0.912927
1.03398
1.0338
1.03339
1.03299
1.03301
1.03298
1.03272
1.03208
1.03155
1.0315
1.03135
1.03066
1.02993
1.02953
1.02903
1.0283
1.02746
1.02667
1.02585
1.0248
1.02353
1.02218
1.02075
1.01917
1.01739
1.01533
1.01297
1.01025
1.00709
1.00337
0.998979
0.993815
0.987647
0.980313
0.971696
0.961767
0.951134
0.940574
0.930251
0.920912
0.913622
0.907571
0.903056
0.903498
0.906954
0.913878
0.924793
0.939933
0.955342
0.97617
1.02988
1.02979
1.02969
1.02948
1.02929
1.0292
1.02906
1.02889
1.02873
1.02852
1.02823
1.028
1.02776
1.02739
1.02696
1.02654
1.02609
1.02559
1.02504
1.02435
1.02353
1.02272
1.02182
1.02079
1.01962
1.01835
1.01701
1.0156
1.01409
1.01248
1.01081
1.00909
1.0073
1.00535
1.00324
1.00036
0.996591
0.991988
0.986651
0.98109
0.976157
0.972073
0.970026
0.970439
0.97245
0.976396
0.981958
0.98812
0.993023
0.997404
1.01472
1.01473
1.0148
1.01484
1.01484
1.01481
1.01481
1.01481
1.01481
1.0148
1.0148
1.01481
1.01482
1.0148
1.01477
1.01473
1.01466
1.01459
1.01452
1.01442
1.01428
1.01409
1.01387
1.01357
1.01318
1.0127
1.01212
1.01144
1.01066
1.00975
1.00875
1.00764
1.00648
1.00523
1.0039
1.00291
1.00206
1.00122
1.00023
0.999003
0.997739
0.996686
0.996233
0.996303
0.996694
0.997451
0.99838
0.999178
0.999645
0.99991
1.00248
1.00249
1.0025
1.00254
1.00257
1.00257
1.00257
1.00259
1.00264
1.00267
1.00269
1.00271
1.00275
1.0028
1.00284
1.00287
1.00292
1.00297
1.00303
1.00309
1.00314
1.0032
1.00327
1.00332
1.00338
1.00342
1.00345
1.00344
1.0034
1.00332
1.00318
1.00297
1.0027
1.00239
1.00201
1.00159
1.00116
1.00075
1.00043
1.00022
1.00005
0.999922
0.999858
0.999855
0.999873
0.99991
0.999952
0.999981
0.999994
0.999999
1.0001
1.0001
1.0001
1.00011
1.00011
1.00011
1.00011
1.00011
1.00011
1.00012
1.00012
1.00012
1.00012
1.00013
1.00013
1.00014
1.00014
1.00015
1.00015
1.00016
1.00017
1.00018
1.00019
1.0002
1.00022
1.00023
1.00025
1.00027
1.00028
1.0003
1.00032
1.00032
1.00032
1.00031
1.0003
1.00026
1.00022
1.00016
1.00012
1.00007
1.00003
1.00001
1
0.999998
0.999998
0.999999
0.999999
1
1
1
1
1
1
1
1
1
1
1
1
1
1
1
1
1
1
1
1
1
1
1
1
1
1
1
1
1
1
1
1.00001
1.00001
1.00001
1.00001
1.00001
1.00001
1.00001
1.00001
1.00001
1.00001
1.00001
1.00001
1
1
1
1
1
1
1
1
1
1
1
1
1
1
1
1
1
1
1
1
1
1
1
1
1
1
1
1
1
1
1
1
1
1
1
1
1
1
1
1
1
1
1
1
1
1
1
1
1
1
1
1
1
1
1
1
1
1
1
1
1
1
1
1
1
1
1
1
1
1
1
1
1
1
1
1
1
1
1
1
1
1
1
1
1
1
1
1
1
1
1
1
1
1
1
1
1
1
1
1
1
1
1
1
1
1
1
1
1
1
1
1
1
1
1
1
1
1
1
1
1
1
1
1
1
1
1
1
1
1
1
1
1
1
1
1
1
1
1
1
1
1
1
1
1
1
1
1
1
1
1
1
1
1
1
1
1
1
1
1
1
1
1
1
1
1
1
1
1
1
1
1
1
1
1
1
1
1
1
1
1
1
1
1
1
1
1
1
1
1
1
1
1
1
1
1
1
1
1
1
1
1
1
1
1
1
1
1
1
1
1
1
1
1
1
1
1
1
1
1
1
1
1
1
1
1
1
1
1
1
1
1
1
1
1
1
1
1
1
1
1
1
1
1
1
1
1
1
1
1
1
1
1
1
1
1
1
1
1
1
1
1
1
1
1
1
1
1
1
1
1
1
1
1
1
1
1
1
1
1
1
1
1
1
1
1
1
1
1
1
1
1
1
1
1
1
1
1
1
1
1
1
1
1
1
1
1
1
1
1
1
1
1
1
1
1
1
1
1
1
1
1
1
1
1
1
1
1
1
1
1
1
1
1
1
1
1
1
1
1
1
1
1
1
1
1
1
1
1
1
1
1
1
1
1
1
1
1
1
1
1
1
1
1
1
1
1
1
1
1
1
1
1
1
1
1
1
1
1
1
1
1
1
1
1
1
1
1
1
1
1
1
1
1
1
1
1
1
1
1
1
1
1
1
1
1
1
1
1
1
1
1
1
1
1
1
1
1
1
1
1
1
1
1
1
1
1
1
1
1
1
1
1
1
1
1
1
1
1
1
1
1
1
1
1
1
1
1
1
1
1
1
1
1
1
1
1
1
1
1
0.401519
0.400889
0.400248
0.399925
0.400205
0.400464
0.400569
0.40124
0.40204
0.401912
0.401709
0.400722
0.400491
0.400149
0.401071
0.400005
0.40428
0.437366
0.473065
0.539539
0.620073
0.716692
0.831519
0.950479
1.02273
1.03419
1.02997
1.01472
1.00246
1.0001
1
1
1
1
1
1
1
1
1
1
0.401508
0.400829
0.400216
0.399922
0.400259
0.400454
0.400543
0.40116
0.402041
0.401951
0.401864
0.400678
0.400345
0.399876
0.400818
0.400254
0.404377
0.438446
0.472561
0.541
0.621449
0.720481
0.834497
0.952737
1.02375
1.03447
1.03003
1.01458
1.0024
1.0001
1
1
1
1
1
1
1
1
1
1
0.401462
0.400772
0.400195
0.399933
0.400324
0.400449
0.400529
0.401132
0.402039
0.401987
0.401967
0.400626
0.400269
0.399553
0.400841
0.400993
0.405788
0.441637
0.473307
0.543087
0.623443
0.723125
0.837475
0.955117
1.02464
1.03473
1.03015
1.01451
1.00234
1.00009
1
1
1
1
1
1
1
1
1
1
0.401392
0.400735
0.40019
0.400006
0.400404
0.400459
0.400512
0.401126
0.402021
0.40201
0.402028
0.400572
0.400203
0.399228
0.400929
0.401868
0.407564
0.442867
0.477161
0.546174
0.627025
0.725675
0.841472
0.958479
1.02567
1.03499
1.03028
1.01441
1.00228
1.00009
1
1
1
1
1
1
1
1
1
1
0.401327
0.400688
0.400185
0.400081
0.400488
0.40048
0.400431
0.401117
0.401969
0.402018
0.402062
0.400502
0.400052
0.398954
0.401168
0.402313
0.408261
0.442529
0.480701
0.548799
0.629935
0.729282
0.845695
0.962093
1.02682
1.03532
1.03036
1.01423
1.00223
1.00009
1
1
1
1
1
1
1
1
1
1
0.401245
0.400631
0.400178
0.400141
0.400567
0.400493
0.400339
0.40107
0.401958
0.402018
0.402076
0.400441
0.399808
0.398692
0.401616
0.402413
0.40871
0.441961
0.481921
0.551356
0.632637
0.73298
0.849272
0.964839
1.02791
1.03568
1.03041
1.01406
1.00217
1.00008
1
1
1
1
1
1
1
1
1
1
0.401155
0.400561
0.400175
0.400217
0.400634
0.400488
0.400281
0.400956
0.401961
0.402001
0.40208
0.4004
0.399567
0.398377
0.401877
0.402411
0.409534
0.442152
0.482473
0.553793
0.635202
0.736287
0.852833
0.967426
1.02887
1.03598
1.03045
1.01391
1.00211
1.00008
1
1
1
1
1
1
1
1
1
1
0.401062
0.400484
0.400171
0.400288
0.400692
0.400435
0.400233
0.400884
0.401957
0.401976
0.40208
0.400339
0.399307
0.397957
0.40196
0.402641
0.410446
0.444296
0.482256
0.556163
0.637768
0.739675
0.856673
0.970218
1.02986
1.0363
1.03054
1.01376
1.00205
1.00007
1
1
1
1
1
1
1
1
1
1
0.400968
0.400423
0.400169
0.400358
0.400751
0.400408
0.400195
0.400825
0.401945
0.401962
0.402059
0.400143
0.398933
0.397441
0.401991
0.403651
0.411188
0.447719
0.481767
0.558782
0.640327
0.743284
0.861052
0.973692
1.03096
1.03666
1.03065
1.0136
1.00198
1.00007
1
1
1
1
1
1
1
1
1
1
0.400867
0.400396
0.400183
0.400449
0.40081
0.400409
0.400171
0.400755
0.401933
0.401953
0.401875
0.399721
0.398413
0.396935
0.401963
0.404197
0.411635
0.449007
0.483277
0.561857
0.643039
0.747152
0.865602
0.977549
1.03208
1.03702
1.03074
1.01343
1.00192
1.00007
1
1
1
1
1
1
1
1
1
1
0.40076
0.400396
0.400236
0.400541
0.400843
0.40041
0.40016
0.400674
0.401856
0.401901
0.401411
0.399219
0.397823
0.396471
0.401816
0.404247
0.41162
0.448944
0.487509
0.565222
0.646176
0.75156
0.870405
0.981076
1.03313
1.03738
1.03076
1.01322
1.00185
1.00006
1
1
1
1
1
1
1
1
1
1
0.400644
0.4004
0.400308
0.400612
0.400843
0.400419
0.400158
0.400592
0.401538
0.401597
0.400895
0.398739
0.397285
0.396095
0.40181
0.404273
0.411482
0.447351
0.49143
0.568761
0.650349
0.756861
0.875575
0.984562
1.03412
1.03773
1.03075
1.01301
1.00179
1.00006
1
1
1
1
1
1
1
1
1
1
0.400501
0.400386
0.400354
0.400664
0.400842
0.400483
0.400179
0.400526
0.401208
0.401177
0.40046
0.398326
0.39684
0.395879
0.402148
0.404442
0.411693
0.446344
0.495553
0.572473
0.655816
0.762396
0.880867
0.988104
1.03508
1.0381
1.03076
1.0128
1.00172
1.00006
1
1
1
1
1
1
1
1
1
1
0.400308
0.400376
0.400417
0.400721
0.400867
0.400527
0.400205
0.400457
0.400911
0.400809
0.400128
0.398045
0.39649
0.395772
0.402535
0.404858
0.412946
0.446589
0.500595
0.57637
0.661117
0.767514
0.886279
0.991708
1.03603
1.03851
1.03077
1.01257
1.00165
1.00005
1
1
1
1
1
1
1
1
1
1
0.400085
0.400351
0.400477
0.400804
0.400926
0.400504
0.400151
0.400319
0.400599
0.400489
0.399894
0.397932
0.396233
0.395694
0.402647
0.4057
0.414053
0.449136
0.505446
0.580295
0.665872
0.772515
0.891889
0.995411
1.03695
1.03893
1.03076
1.01234
1.00159
1.00005
1
1
1
1
1
1
1
1
1
1
0.399877
0.400288
0.400516
0.400897
0.401017
0.400453
0.400013
0.400099
0.400291
0.400201
0.399765
0.397922
0.396064
0.395586
0.402511
0.406906
0.414964
0.454559
0.509558
0.583513
0.670713
0.777717
0.897716
0.999218
1.03784
1.03935
1.03071
1.01208
1.00152
1.00005
1
1
1
1
1
1
1
1
1
1
0.399701
0.400214
0.400546
0.400985
0.401039
0.400398
0.399897
0.399889
0.400005
0.399965
0.39974
0.397946
0.395973
0.395382
0.401807
0.408085
0.415984
0.458462
0.513037
0.585808
0.675745
0.783454
0.903953
1.00305
1.03871
1.03976
1.03071
1.01182
1.00145
1.00004
1
1
1
1
1
1
1
1
1
1
0.399538
0.400156
0.400586
0.401067
0.400971
0.400312
0.399792
0.399706
0.399758
0.3998
0.399759
0.398009
0.395947
0.395243
0.400636
0.408867
0.416734
0.460028
0.51623
0.587747
0.681336
0.790155
0.910654
1.00685
1.03954
1.04012
1.0306
1.01154
1.00138
1.00004
1
1
1
1
1
1
1
1
1
1
0.399372
0.400094
0.400629
0.40112
0.400879
0.400205
0.399667
0.399522
0.399554
0.399686
0.399781
0.398254
0.396038
0.395494
0.399659
0.409234
0.417528
0.460365
0.519865
0.590686
0.687681
0.797632
0.917513
1.0106
1.04034
1.04047
1.03037
1.01125
1.00132
1.00004
1
1
1
1
1
1
1
1
1
1
0.399212
0.400016
0.400651
0.401125
0.400794
0.400088
0.399526
0.399331
0.399372
0.3996
0.399834
0.398906
0.396584
0.396433
0.399241
0.409433
0.419633
0.459612
0.524329
0.59648
0.694517
0.805228
0.924467
1.01433
1.0411
1.04083
1.03022
1.01097
1.00125
1.00004
1
1
1
1
1
1
1
1
1
1
0.399088
0.399915
0.400658
0.401061
0.400665
0.399962
0.399393
0.39915
0.3992
0.399585
0.399932
0.399601
0.397482
0.3971
0.399163
0.410255
0.422465
0.460771
0.529389
0.602908
0.701478
0.812933
0.931661
1.01799
1.04184
1.04119
1.03007
1.01067
1.00118
1.00003
1
1
1
1
1
1
1
1
1
1
0.399013
0.399826
0.400606
0.400969
0.4005
0.399839
0.399322
0.399
0.399036
0.39962
0.400342
0.400167
0.398303
0.397259
0.399655
0.413049
0.423319
0.467738
0.534951
0.609012
0.708536
0.821086
0.939128
1.02154
1.04256
1.04154
1.02988
1.01036
1.00112
1.00003
1
1
1
1
1
1
1
1
1
1
0.398973
0.399777
0.400524
0.400843
0.400347
0.399721
0.399313
0.398889
0.398879
0.399699
0.400961
0.400737
0.398906
0.397209
0.400552
0.414612
0.422356
0.475179
0.540149
0.615523
0.715989
0.829713
0.946844
1.02496
1.04324
1.04185
1.02961
1.01004
1.00105
1.00003
1
1
1
1
1
1
1
1
1
1
0.398954
0.399735
0.400496
0.40072
0.40021
0.399618
0.399335
0.398823
0.398742
0.399755
0.401392
0.401235
0.399354
0.397101
0.400815
0.414888
0.421894
0.479423
0.544067
0.622581
0.7239
0.838947
0.954815
1.02825
1.04387
1.0421
1.0293
1.00971
1.00099
1.00003
1
1
1
1
1
1
1
1
1
1
0.398972
0.399688
0.400487
0.400594
0.400085
0.399571
0.399342
0.398807
0.398637
0.399702
0.401559
0.401552
0.399688
0.39689
0.400595
0.414623
0.423077
0.482681
0.546644
0.629989
0.732486
0.848993
0.962938
1.03132
1.04441
1.04229
1.02897
1.00938
1.00093
1.00002
1
1
1
1
1
1
1
1
1
1
0.399014
0.399673
0.400444
0.400437
0.399972
0.399563
0.399364
0.398807
0.398593
0.399483
0.401574
0.401728
0.39987
0.396069
0.399199
0.413728
0.428281
0.488462
0.5488
0.63825
0.742136
0.859681
0.971064
1.03413
1.04488
1.04241
1.02861
1.00904
1.00087
1.00002
1
1
1
1
1
1
1
1
1
1
0.399105
0.399644
0.400278
0.400239
0.399874
0.399578
0.399459
0.398892
0.398674
0.399429
0.401573
0.401799
0.399886
0.394765
0.397251
0.412947
0.43581
0.497134
0.554464
0.647897
0.752626
0.870609
0.979118
1.03666
1.04528
1.04246
1.02822
1.0087
1.00081
1.00002
1
1
1
1
1
1
1
1
1
1
0.399219
0.399601
0.400091
0.399995
0.399765
0.39964
0.399825
0.399267
0.398911
0.399587
0.401662
0.401803
0.399556
0.393825
0.395939
0.412744
0.443001
0.504804
0.565334
0.65852
0.763491
0.881779
0.987143
1.03894
1.04564
1.04249
1.0278
1.00836
1.00076
1.00002
1
1
1
1
1
1
1
1
1
1
0.399366
0.399617
0.399868
0.399705
0.399664
0.399803
0.400137
0.399669
0.399178
0.39971
0.401687
0.401773
0.399235
0.393306
0.395495
0.413538
0.44916
0.510584
0.575204
0.669217
0.774995
0.893565
0.995065
1.04095
1.04598
1.04252
1.02735
1.00802
1.0007
1.00002
1
1
1
1
1
1
1
1
1
1
0.399525
0.399692
0.399653
0.399367
0.399574
0.399913
0.400327
0.399928
0.39938
0.39975
0.401653
0.401732
0.39914
0.393075
0.395483
0.415913
0.454408
0.514683
0.584264
0.679982
0.787458
0.90613
1.00278
1.0427
1.0463
1.04243
1.02682
1.00767
1.00065
1.00001
1
1
1
1
1
1
1
1
1
1
0.399704
0.399735
0.399498
0.399058
0.399443
0.399945
0.400499
0.400067
0.399518
0.399732
0.401573
0.401661
0.399257
0.393024
0.395602
0.418922
0.459805
0.517221
0.593611
0.691243
0.801171
0.919247
1.01017
1.04418
1.04655
1.04237
1.02622
1.00731
1.0006
1.00001
1
1
1
1
1
1
1
1
1
1
0.399907
0.399696
0.399325
0.398865
0.399291
0.399943
0.400591
0.400153
0.399635
0.39963
0.400963
0.401227
0.399687
0.393843
0.396708
0.424661
0.466754
0.518871
0.603862
0.703364
0.816062
0.932648
1.01712
1.04533
1.0467
1.04213
1.02557
1.00695
1.00056
1.00001
1
1
1
1
1
1
1
1
1
1
0.400142
0.399637
0.399151
0.398745
0.399183
0.399854
0.400574
0.400204
0.399834
0.399408
0.399776
0.399932
0.399684
0.396823
0.400685
0.43374
0.473776
0.523249
0.616111
0.716584
0.831783
0.946224
1.02346
1.04613
1.04675
1.04159
1.02492
1.00661
1.00051
1.00001
1
1
1
1
1
1
1
1
1
1
0.400335
0.39964
0.39905
0.398682
0.399131
0.399783
0.400321
0.400141
0.400113
0.399189
0.398808
0.39816
0.399348
0.398008
0.403444
0.440064
0.477877
0.537113
0.63083
0.731198
0.848476
0.959869
1.02906
1.04659
1.04676
1.04125
1.02428
1.00626
1.00047
1.00001
1
1
1
1
1
1
1
1
1
1
0.400536
0.399734
0.399009
0.398652
0.399087
0.399726
0.400146
0.400038
0.40011
0.398938
0.398001
0.396504
0.398931
0.398416
0.40584
0.444496
0.479658
0.55303
0.645896
0.747657
0.866121
0.973283
1.03378
1.04683
1.04681
1.04087
1.02357
1.0059
1.00043
1.00001
1
1
1
1
1
1
1
1
1
1
0.400669
0.399898
0.39906
0.398712
0.399126
0.399592
0.399888
0.399813
0.399974
0.398754
0.397203
0.395093
0.397864
0.398905
0.408768
0.449516
0.482522
0.567363
0.660026
0.765727
0.88449
0.986158
1.03765
1.047
1.04677
1.0404
1.02278
1.00554
1.00039
1.00001
1
1
1
1
1
1
1
1
1
1
0.400714
0.399986
0.399327
0.399034
0.399239
0.399367
0.399489
0.399696
0.400022
0.398741
0.396495
0.393933
0.396742
0.399696
0.411653
0.454839
0.496136
0.583605
0.674549
0.785171
0.903454
0.998331
1.04077
1.04718
1.04668
1.03971
1.02194
1.00518
1.00035
1.00001
1
1
1
1
1
1
1
1
1
1
0.400585
0.399922
0.399528
0.399307
0.399311
0.399134
0.399085
0.399643
0.400176
0.398892
0.396053
0.393262
0.395993
0.401827
0.415185
0.459723
0.515223
0.59995
0.691122
0.806311
0.923024
1.00962
1.04319
1.04725
1.04657
1.03892
1.02108
1.00481
1.00031
1.00001
1
1
1
1
1
1
1
1
1
1
0.400092
0.399869
0.399711
0.399533
0.399293
0.398876
0.39868
0.399534
0.400486
0.399509
0.396082
0.393148
0.395925
0.40642
0.420603
0.464315
0.529894
0.614197
0.710963
0.829289
0.942818
1.01964
1.04497
1.04726
1.0462
1.03812
1.02017
1.00445
1.00028
1
1
1
1
1
1
1
1
1
1
1
0.399598
0.399737
0.399812
0.399722
0.399259
0.398661
0.398331
0.399122
0.400609
0.400049
0.396722
0.3936
0.396333
0.412431
0.426601
0.469947
0.544671
0.629331
0.733904
0.853622
0.96245
1.02815
1.04616
1.04719
1.04562
1.03731
1.01922
1.00408
1.00024
1
1
1
1
1
1
1
1
1
1
1
0.398931
0.399621
0.399985
0.399874
0.399266
0.398593
0.398196
0.398724
0.400676
0.400321
0.397384
0.393738
0.398059
0.417469
0.430791
0.482244
0.561906
0.648668
0.759389
0.879059
0.981208
1.03491
1.04681
1.0471
1.04517
1.03642
1.0182
1.0037
1.00021
1
1
1
1
1
1
1
1
1
1
1
0.398505
0.399389
0.400055
0.399975
0.399352
0.398609
0.398247
0.398704
0.400809
0.400723
0.398422
0.393964
0.399263
0.419258
0.433941
0.501012
0.579944
0.67259
0.786993
0.905551
0.998432
1.03989
1.04702
1.047
1.04472
1.0353
1.01712
1.00333
1.00018
1
1
1
1
1
1
1
1
1
1
1
0.398345
0.399085
0.399911
0.400006
0.399601
0.398969
0.398662
0.399073
0.40094
0.401122
0.399431
0.395006
0.39935
0.419608
0.443897
0.520716
0.59865
0.699433
0.816651
0.932741
1.01341
1.04319
1.04702
1.04673
1.04416
1.03409
1.01601
1.00296
1.00015
1
1
1
1
1
1
1
1
1
1
1
0.398414
0.398942
0.399507
0.399832
0.399804
0.399508
0.39939
0.399482
0.400522
0.400493
0.398979
0.394874
0.397642
0.421802
0.46634
0.541136
0.621331
0.728685
0.848409
0.959428
1.02558
1.04514
1.0469
1.04633
1.04344
1.03292
1.01486
1.00259
1.00012
1
1
1
1
1
1
1
1
1
1
1
0.398914
0.398933
0.399032
0.399522
0.399899
0.399937
0.400002
0.399535
0.399074
0.397657
0.396537
0.393688
0.396528
0.430992
0.488123
0.559351
0.648883
0.76138
0.882346
0.984194
1.03463
1.04611
1.04682
1.046
1.04273
1.03165
1.01363
1.00223
1.0001
1
1
1
1
1
1
1
1
1
1
1
0.399732
0.399153
0.398682
0.399086
0.399694
0.400152
0.40061
0.399255
0.397052
0.393963
0.39459
0.394308
0.399878
0.452674
0.507755
0.579399
0.680723
0.798367
0.917616
1.00568
1.04064
1.04641
1.04673
1.04574
1.04187
1.03014
1.01234
1.00187
1.00008
1
1
1
1
1
1
1
1
1
1
1
0.400277
0.399375
0.398639
0.39876
0.399399
0.400243
0.400901
0.399399
0.395777
0.391503
0.393897
0.399917
0.414669
0.469894
0.524517
0.608367
0.718054
0.839314
0.952216
1.02266
1.04409
1.04635
1.04655
1.04543
1.04087
1.02852
1.01104
1.00154
1.00006
1
1
1
1
1
1
1
1
1
1
1
0.4004
0.399819
0.399112
0.398703
0.399039
0.399919
0.401112
0.400315
0.395559
0.390566
0.394423
0.40885
0.427639
0.479965
0.545986
0.646555
0.760671
0.882451
0.983647
1.03456
1.04574
1.04615
1.04637
1.04493
1.0399
1.02682
1.00967
1.00123
1.00004
1
1
1
1
1
1
1
1
1
1
1
0.399966
0.400007
0.399731
0.399269
0.398897
0.399491
0.401226
0.400712
0.396578
0.390389
0.394912
0.417129
0.438645
0.496253
0.583842
0.689916
0.807345
0.925948
1.00966
1.04174
1.04641
1.04611
1.04623
1.04447
1.03878
1.02489
1.00828
1.00094
1.00003
1
1
1
1
1
1
1
1
1
1
1
0.399071
0.400106
0.400642
0.399801
0.399043
0.399072
0.400317
0.400162
0.397081
0.390835
0.394693
0.422952
0.455222
0.533546
0.627994
0.735567
0.858112
0.967606
1.0286
1.04532
1.04667
1.04611
1.04613
1.04391
1.03734
1.02275
1.00689
1.00069
1.00002
1
1
1
1
1
1
1
1
1
1
1
1
1
1
1
1
1
1
1
1
1
1
1
1
1
1
1
1.00003
1.00097
1.00895
1.02884
1.0459
1.0551
1.05592
1.05537
1.056
1.05631
1.05615
1.05559
1.05529
1.05526
1.05543
1.05561
1.05557
1.05542
1.05525
1.05517
1.05523
1.05528
1.05085
0.989299
1
1
1
1
1
1
1
1
1
1
1
1
1
1
1
1
1.00004
1.00108
1.00939
1.02972
1.04583
1.05514
1.05584
1.05526
1.05591
1.05622
1.05611
1.05553
1.0552
1.05519
1.05533
1.05546
1.05546
1.05533
1.05518
1.0551
1.05514
1.05493
1.03968
0.899847
1
1
1
1
1
1
1
1
1
1
1
1
1
1
1
1
1.00004
1.00117
1.01017
1.0308
1.04633
1.05513
1.05575
1.05511
1.05579
1.05617
1.05607
1.05547
1.05512
1.05507
1.05518
1.05537
1.05538
1.05526
1.0551
1.05502
1.05503
1.05401
1.01896
0.812003
1
1
1
1
1
1
1
1
1
1
1
1
1
1
1
1
1.00005
1.00131
1.01096
1.03164
1.04727
1.05504
1.05563
1.05507
1.05569
1.05616
1.056
1.05535
1.05499
1.05495
1.05509
1.05529
1.05527
1.05515
1.05498
1.05491
1.0549
1.05163
0.988919
0.73209
1
1
1
1
1
1
1
1
1
1
1
1
1
1
1
1
1.00006
1.00149
1.01152
1.03252
1.04788
1.05504
1.05554
1.05503
1.05564
1.05615
1.05593
1.0552
1.05488
1.05486
1.055
1.05517
1.05514
1.05501
1.05486
1.05477
1.05468
1.04712
0.955432
0.655803
1
1
1
1
1
1
1
1
1
1
1
1
1
1
1
1
1.00007
1.00168
1.01222
1.03408
1.04866
1.05516
1.05551
1.05494
1.05555
1.0561
1.05589
1.05517
1.05479
1.05476
1.05486
1.05499
1.05499
1.05488
1.05475
1.05462
1.05422
1.03902
0.911762
0.591176
1
1
1
1
1
1
1
1
1
1
1
1
1
1
1
1
1.00008
1.00192
1.01338
1.03474
1.04936
1.05558