/*--------------------------------*- C++ -*----------------------------------*\
  =========                 |
  \\      /  F ield         | OpenFOAM: The Open Source CFD Toolbox
   \\    /   O peration     | Website:  https://openfoam.org
    \\  /    A nd           | Version:  7
     \\/     M anipulation  |
\*---------------------------------------------------------------------------*/
FoamFile
{
    version     2.0;
    format      ascii;
    class       volScalarField;
    location    "8.5";
    object      p;
}
// * * * * * * * * * * * * * * * * * * * * * * * * * * * * * * * * * * * * * //

dimensions      [1 -1 -2 0 0 0 0];

internalField   nonuniform List<scalar> 
90000
(
0.121159
0.150148
0.181252
0.211525
0.235097
0.257555
0.282956
0.304995
0.32405
0.344204
0.365977
0.386489
0.407231
0.42897
0.451969
0.475416
0.500158
0.525801
0.552586
0.580369
0.609808
0.639859
0.672165
0.704423
0.739147
0.772116
0.807535
0.84037
0.87724
0.909047
0.940222
0.959859
0.968688
0.971514
0.969954
0.965347
0.959513
0.951319
0.944556
0.936936
0.930543
0.921593
0.915558
0.909206
0.905791
0.901098
0.893479
0.882297
0.869241
0.861318
0.861634
0.865759
0.876997
0.892904
0.907008
0.923523
0.941161
0.955355
0.964282
0.960122
0.946878
0.92701
0.908177
0.894159
0.886412
0.885756
0.893202
0.905765
0.922814
0.935816
0.943259
0.936635
0.924335
0.911365
0.90287
0.903135
0.911981
0.924617
0.938797
0.936324
0.925734
0.914438
0.908605
0.909885
0.918392
0.926271
0.922596
0.916396
0.910797
0.910954
0.915929
0.918651
0.91864
0.918022
0.918755
0.923218
0.928071
0.930816
0.932975
0.936572
0.0956148
0.0955752
0.0955329
0.0954915
0.0954508
0.0954152
0.0953818
0.0953486
0.095312
0.0952812
0.09525
0.0952339
0.0951598
0.0953232
0.0958763
0.0972866
0.0995601
0.103453
0.108604
0.116235
0.125561
0.138458
0.153706
0.173881
0.196175
0.224999
0.255861
0.295026
0.337293
0.388939
0.445175
0.506812
0.565838
0.621835
0.675802
0.720456
0.763676
0.795618
0.829137
0.849189
0.871081
0.878741
0.888479
0.888656
0.891065
0.887759
0.886827
0.88435
0.889062
0.900398
0.91433
0.924565
0.930566
0.931556
0.932246
0.936308
0.938729
0.93457
0.920601
0.906383
0.897503
0.896831
0.898964
0.904628
0.911336
0.913334
0.918396
0.924077
0.930724
0.92943
0.924568
0.915249
0.911359
0.908992
0.913874
0.918394
0.92623
0.934453
0.931996
0.922909
0.913428
0.90996
0.911662
0.919659
0.925958
0.923501
0.917723
0.912303
0.911244
0.914464
0.919343
0.920051
0.919957
0.918777
0.920874
0.925733
0.931181
0.935479
0.93584
0.937313
0.0955942
0.0955949
0.0955979
0.0956067
0.0956158
0.0956212
0.0956263
0.0956321
0.0956391
0.0956469
0.0956562
0.0956608
0.0956654
0.0956699
0.0956691
0.0956929
0.0956576
0.0956105
0.0955647
0.0955301
0.0955058
0.0954805
0.095463
0.095451
0.0954465
0.0954401
0.0954436
0.0954445
0.0954623
0.0954557
0.0962645
0.100807
0.1089
0.125315
0.146472
0.178928
0.21486
0.263774
0.315062
0.37882
0.442331
0.510559
0.578117
0.642092
0.707465
0.760849
0.819645
0.864096
0.917731
0.939267
0.955048
0.963913
0.964494
0.957099
0.949059
0.935507
0.915508
0.88842
0.857175
0.855484
0.86348
0.876036
0.89141
0.906069
0.9227
0.93629
0.94346
0.940702
0.929508
0.914719
0.90065
0.894147
0.899513
0.911339
0.928517
0.938377
0.938038
0.930031
0.918342
0.910207
0.908598
0.911314
0.917342
0.923932
0.923304
0.918307
0.912675
0.910951
0.9135
0.91864
0.920576
0.917439
0.915798
0.918423
0.923636
0.930938
0.935332
0.934083
0.933279
0.93806
0.0957763
0.0957671
0.0957551
0.095746
0.095735
0.0957214
0.0957109
0.095704
0.0956962
0.0956823
0.0956635
0.0956429
0.0956247
0.0956109
0.0956002
0.0955862
0.0955711
0.0955515
0.0955288
0.0955113
0.0954952
0.095477
0.0954654
0.0954596
0.0954543
0.0954505
0.0954509
0.0954534
0.0954636
0.0954797
0.0955068
0.0955263
0.0955282
0.0955321
0.095533
0.0955344
0.0955262
0.0955141
0.095503
0.0954952
0.0967584
0.104545
0.117578
0.144738
0.177961
0.230919
0.288189
0.366179
0.445612
0.528749
0.610321
0.677246
0.744712
0.779977
0.823532
0.836609
0.854629
0.853021
0.864741
0.877274
0.900624
0.91236
0.924014
0.933498
0.937513
0.94402
0.941237
0.925365
0.904941
0.902959
0.905669
0.90678
0.912825
0.920846
0.929764
0.936429
0.931385
0.920074
0.907325
0.904816
0.910013
0.919897
0.926952
0.92421
0.918781
0.912771
0.911048
0.910076
0.917365
0.922549
0.921839
0.918604
0.918116
0.923592
0.930445
0.934177
0.934657
0.934307
0.935814
0.94167
0.0955678
0.0955632
0.0955569
0.0955498
0.0955451
0.095545
0.0955419
0.0955368
0.0955307
0.0955153
0.0954894
0.0954678
0.0954541
0.0954427
0.0954286
0.0954097
0.0953906
0.0953768
0.0953681
0.0953607
0.0953477
0.0953341
0.0953289
0.0953306
0.0953345
0.0953353
0.0953356
0.0953357
0.0953418
0.095356
0.0953601
0.0953425
0.0953338
0.0953525
0.0953746
0.0953857
0.0953927
0.0954083
0.0954227
0.0954466
0.0955053
0.0955627
0.0955977
0.095618
0.0956256
0.0956199
0.0955706
0.0955389
0.0972772
0.110111
0.131702
0.177496
0.232294
0.315122
0.408334
0.512481
0.628052
0.729154
0.835221
0.873745
0.904869
0.913879
0.925968
0.933232
0.934121
0.925825
0.902985
0.871389
0.876615
0.89058
0.906597
0.928562
0.942081
0.942254
0.938106
0.925984
0.90751
0.902688
0.905575
0.907951
0.91613
0.923726
0.925333
0.920444
0.910536
0.906538
0.911366
0.920664
0.92115
0.917472
0.91509
0.915412
0.919468
0.92587
0.932212
0.935049
0.933962
0.934584
0.93709
0.943594
0.095508
0.0955143
0.0955192
0.0955226
0.0955291
0.0955313
0.0955299
0.0955277
0.0955232
0.0955053
0.0954764
0.0954571
0.095445
0.0954323
0.0954142
0.0953903
0.095377
0.0953794
0.095387
0.0953928
0.0953886
0.0953626
0.0953353
0.0953208
0.0953202
0.0953291
0.095336
0.0953412
0.0953494
0.0953607
0.0953613
0.0953328
0.0953167
0.0953439
0.0954071
0.0954388
0.0954566
0.0954748
0.0955059
0.0955809
0.0957075
0.0957593
0.095777
0.0957896
0.0957953
0.0957918
0.0957472
0.095672
0.0956556
0.0956541
0.0956402
0.0956227
0.0956157
0.0955871
0.0956888
0.108093
0.1339
0.199375
0.284096
0.404467
0.518699
0.615461
0.709742
0.758539
0.817849
0.830498
0.845514
0.862863
0.903477
0.925006
0.943638
0.952356
0.951864
0.94816
0.923937
0.900876
0.893964
0.896244
0.904185
0.920454
0.933531
0.93108
0.921715
0.908116
0.90591
0.906548
0.912807
0.925614
0.924828
0.919186
0.915176
0.918608
0.925426
0.933504
0.934686
0.935016
0.93515
0.935446
0.939445
0.946831
0.0957164
0.095714
0.0957092
0.0957052
0.0957009
0.095691
0.0956786
0.0956677
0.0956565
0.0956366
0.0956085
0.0955841
0.0955621
0.0955399
0.0955205
0.095507
0.0955024
0.0955003
0.0955046
0.0955105
0.0955108
0.0955051
0.0954929
0.0954688
0.0954379
0.0954301
0.0954429
0.0954611
0.0954744
0.0954781
0.0954725
0.095464
0.0954594
0.0954729
0.0955241
0.0955516
0.0955535
0.0955482
0.095555
0.0956168
0.0957458
0.0957853
0.0957961
0.0958011
0.0958049
0.0958054
0.0957773
0.0956931
0.0956417
0.0956452
0.0956591
0.0956507
0.0956279
0.0955985
0.0955492
0.0955309
0.0955139
0.0955486
0.0955783
0.097711
0.108355
0.15148
0.212178
0.315209
0.437427
0.571797
0.725582
0.827095
0.894936
0.908894
0.929612
0.938349
0.935878
0.917945
0.885221
0.886556
0.893723
0.912168
0.926815
0.934874
0.933838
0.919683
0.901093
0.899735
0.902871
0.916841
0.925898
0.924784
0.919418
0.914597
0.915155
0.920799
0.928699
0.934427
0.935285
0.934182
0.933783
0.937997
0.942453
0.948909
0.0956927
0.0956877
0.0956795
0.0956713
0.0956655
0.0956565
0.0956436
0.0956283
0.0956111
0.0955905
0.0955727
0.095559
0.0955419
0.095515
0.0955129
0.0955209
0.0955074
0.0955037
0.0955544
0.0956063
0.095624
0.0956314
0.0956356
0.0956305
0.0955853
0.0955385
0.09553
0.0955335
0.0955402
0.0955442
0.0955508
0.0955689
0.0955754
0.095568
0.0955753
0.0955885
0.0955882
0.09558
0.0955842
0.0956371
0.0957294
0.0957433
0.0957377
0.095727
0.095717
0.0957052
0.0956647
0.095593
0.0955538
0.0955417
0.0955467
0.0955713
0.0955854
0.0955706
0.0955044
0.0954281
0.0954519
0.0955112
0.0955096
0.0955053
0.0955332
0.0955831
0.0956029
0.0956315
0.0975234
0.12598
0.184179
0.306055
0.444993
0.575994
0.70084
0.766282
0.838622
0.844215
0.874196
0.895906
0.931341
0.945103
0.943462
0.939973
0.915429
0.895357
0.893964
0.8988
0.916065
0.933124
0.931348
0.919708
0.910974
0.912133
0.920895
0.932674
0.935901
0.935143
0.93413
0.933976
0.936452
0.93929
0.946187
0.951404
0.0956726
0.0956685
0.0956677
0.0956684
0.0956678
0.0956638
0.0956682
0.0956601
0.0956209
0.095608
0.0956025
0.0955921
0.0955763
0.0955644
0.0955539
0.0955212
0.0955173
0.0955715
0.0956883
0.095711
0.0957118
0.0957071
0.0957097
0.0957112
0.0956926
0.0956291
0.0955728
0.0955677
0.0955773
0.0956079
0.0956229
0.0956263
0.0956265
0.0956189
0.0955932
0.0955721
0.095547
0.0955257
0.0955154
0.0955322
0.0955912
0.095617
0.0956152
0.0956106
0.0956077
0.0956006
0.0955725
0.0955242
0.0955081
0.0954948
0.0954559
0.0954394
0.0954382
0.0953909
0.095319
0.0953304
0.0954192
0.0954557
0.095445
0.0954392
0.0954847
0.0955626
0.0956323
0.0957331
0.0957517
0.0957401
0.0957144
0.0956024
0.0980373
0.135442
0.201316
0.327612
0.495892
0.660618
0.834815
0.887726
0.927422
0.938384
0.937483
0.916554
0.873464
0.880467
0.899977
0.92323
0.934257
0.934158
0.922997
0.904924
0.906949
0.918519
0.933206
0.937438
0.936775
0.933698
0.933277
0.933904
0.938099
0.944864
0.947924
0.952311
0.0955625
0.0955608
0.0955675
0.0955924
0.0956201
0.0956278
0.0956329
0.0956362
0.0956347
0.0956084
0.0955239
0.0954899
0.0954772
0.0954412
0.095397
0.0954041
0.0954993
0.095666
0.0956986
0.0956996
0.0956986
0.095694
0.0956707
0.0956403
0.0956367
0.0956356
0.0956127
0.0955481
0.0955227
0.0955435
0.0955812
0.0955852
0.0955692
0.0955325
0.0954953
0.0954514
0.095407
0.0953892
0.0953957
0.0953912
0.0953778
0.0953857
0.0954287
0.0954683
0.0954817
0.0954928
0.0954942
0.0954782
0.095425
0.0953301
0.0952568
0.0952597
0.0952638
0.0952283
0.095221
0.0952946
0.0954362
0.0954574
0.0954361
0.0953809
0.0953868
0.0954574
0.095615
0.0957107
0.0957011
0.0955734
0.0954193
0.0950123
0.0944806
0.0940894
0.0937257
0.0931168
0.100632
0.164912
0.279901
0.460343
0.633888
0.735249
0.833985
0.841414
0.870644
0.903854
0.937834
0.943243
0.941336
0.919964
0.901327
0.901846
0.917883
0.937457
0.940874
0.939271
0.934476
0.931838
0.932374
0.936679
0.945237
0.950748
0.950787
0.952649
0.0955158
0.0955215
0.09555
0.0955988
0.095602
0.0955994
0.0956061
0.0956092
0.0955999
0.095525
0.0954736
0.095467
0.0954501
0.0954144
0.0954181
0.0954871
0.0956698
0.0957395
0.0957406
0.0957379
0.095727
0.0956891
0.0956062
0.0955585
0.0955614
0.0955621
0.0955385
0.0954486
0.0953596
0.0953541
0.0953705
0.0953914
0.095407
0.0954168
0.0954133
0.0953697
0.0952288
0.0951446
0.0951501
0.095176
0.0951861
0.0951992
0.0952587
0.0953588
0.0953917
0.0953912
0.0953756
0.0953377
0.0952656
0.0951681
0.0951471
0.0951691
0.0952321
0.0952523
0.0952672
0.0953647
0.0954566
0.0954631
0.0954258
0.0953316
0.09533
0.0954023
0.0955453
0.0954939
0.0951603
0.0946405
0.0939959
0.0934845
0.0931512
0.0928578
0.0925153
0.0921885
0.0919388
0.0918264
0.0917429
0.103619
0.146501
0.268545
0.452639
0.654695
0.847334
0.906627
0.938714
0.941863
0.925826
0.878984
0.887609
0.917453
0.939836
0.941943
0.94046
0.933424
0.931978
0.931361
0.935325
0.943545
0.948547
0.951592
0.95166
0.954963
0.0955012
0.0955065
0.095512
0.0955147
0.0955133
0.0955111
0.095517
0.0955452
0.0955482
0.095523
0.0954628
0.095346
0.0952654
0.0952566
0.0952853
0.0954375
0.0955192
0.0955225
0.0955217
0.0955151
0.0954934
0.0954437
0.0953747
0.0953522
0.0953436
0.0953218
0.0952545
0.0951706
0.0951606
0.0951699
0.0951686
0.0951546
0.0951124
0.0950455
0.0949879
0.0949428
0.0948776
0.0948447
0.0948538
0.0949084
0.0949741
0.095027
0.0951066
0.0952127
0.0952363
0.0952304
0.0952205
0.0951989
0.0951615
0.0951231
0.0951333
0.095184
0.0952596
0.0952812
0.0952896
0.0953663
0.0954394
0.0954276
0.0953129
0.0950311
0.0947807
0.0945433
0.0942422
0.0938252
0.093375
0.0928804
0.0924518
0.0921578
0.0919585
0.0917885
0.0916245
0.091464
0.0912488
0.0912656
0.091455
0.0916391
0.0915921
0.0912723
0.0954506
0.159928
0.305763
0.510016
0.690815
0.797008
0.853295
0.865189
0.924101
0.963645
0.953605
0.942717
0.932309
0.927693
0.929542
0.936623
0.944603
0.950851
0.949556
0.950088
0.95155
0.957784
0.0952805
0.0952843
0.0953013
0.0953116
0.0953121
0.0953056
0.0952881
0.0952439
0.0951115
0.0949889
0.0949686
0.0949805
0.0950625
0.0951369
0.0951083
0.0949901
0.0949431
0.0949586
0.0950301
0.0951385
0.0952174
0.0952277
0.0952356
0.0952471
0.0952445
0.0952203
0.0951454
0.0950963
0.0951074
0.0951164
0.0951108
0.0950786
0.0949988
0.0949039
0.094825
0.094801
0.0948049
0.0948137
0.0948388
0.0949349
0.0950094
0.0949861
0.0949741
0.0950238
0.095031
0.0950176
0.0950188
0.0950093
0.0949227
0.0948817
0.094977
0.0950815
0.0951344
0.0951393
0.0951082
0.095023
0.0949012
0.0947151
0.0943186
0.0936835
0.0929312
0.0923757
0.0920456
0.0918783
0.0917341
0.0915758
0.0914135
0.0912557
0.0911641
0.0910923
0.0911371
0.0911499
0.0911201
0.0911771
0.0915231
0.0917222
0.091651
0.0912419
0.0913347
0.0919821
0.0931275
0.113985
0.196157
0.369275
0.616874
0.815045
0.916821
0.941544
0.942248
0.916691
0.919943
0.927671
0.940603
0.944176
0.948878
0.949727
0.949161
0.951121
0.956455
0.961929
0.0947494
0.0947817
0.0947928
0.0947922
0.0947722
0.0947185
0.0947038
0.094704
0.0947065
0.0947252
0.0947354
0.0947413
0.0947956
0.0948802
0.0948733
0.0947594
0.094619
0.0946077
0.0946701
0.0948539
0.0950772
0.0952272
0.0952696
0.0952675
0.0952495
0.0952058
0.0951476
0.0951378
0.0951538
0.0951563
0.0951391
0.0950532
0.0949129
0.0948256
0.0947777
0.0947745
0.0947911
0.0948103
0.0948262
0.094891
0.0949014
0.0947828
0.0947167
0.0947406
0.0947253
0.0946026
0.0945015
0.0944267
0.0941958
0.0938227
0.0936599
0.0935417
0.0933963
0.0932152
0.0929666
0.092672
0.0924908
0.0923919
0.0922836
0.0920637
0.0917286
0.0914168
0.0912217
0.0910859
0.0909648
0.0909003
0.0908596
0.0908254
0.0908436
0.0908829
0.0910112
0.0915736
0.0919069
0.0918298
0.0917516
0.0916556
0.0917833
0.0930714
0.0952754
0.096569
0.0982265
0.0994761
0.0998991
0.100049
0.136034
0.306305
0.519341
0.686737
0.843863
0.860373
0.933339
0.946097
0.959191
0.947632
0.94735
0.946385
0.949544
0.955367
0.961646
0.962927
0.0947811
0.0948883
0.0949561
0.09496
0.0949611
0.0949651
0.0949357
0.0948451
0.0948266
0.0948392
0.0948609
0.094867
0.0949083
0.0949728
0.0949603
0.0948257
0.0946038
0.0945512
0.0945824
0.0947075
0.0949526
0.0951843
0.0952579
0.095249
0.0951705
0.0950128
0.0948848
0.09482
0.0947777
0.0947142
0.0946169
0.0944162
0.0940302
0.0936984
0.0936359
0.0936943
0.0938668
0.0939609
0.0939359
0.0937801
0.0934119
0.093096
0.0930588
0.0931264
0.0931917
0.0931789
0.0931315
0.0930823
0.0929869
0.0927118
0.0922827
0.0919856
0.0918796
0.0918158
0.0916618
0.0913564
0.0912217
0.0912266
0.0912278
0.0911881
0.091091
0.090945
0.090788
0.090654
0.0906241
0.090658
0.0907155
0.0907735
0.0908666
0.0911905
0.0918282
0.0927789
0.0940235
0.0941232
0.0937814
0.0939567
0.095124
0.0976416
0.100904
0.101911
0.1016
0.102211
0.104414
0.106641
0.107748
0.108524
0.124334
0.225802
0.435864
0.682678
0.87161
0.896307
0.935706
0.944299
0.961838
0.954207
0.955709
0.959348
0.961481
0.96421
0.0947282
0.0947345
0.0947043
0.0946365
0.094486
0.0943655
0.0943594
0.0943924
0.0945391
0.0946305
0.0945875
0.0944101
0.0941527
0.0936495
0.0930897
0.0930163
0.0930511
0.0931766
0.0933097
0.0933145
0.0932387
0.0932085
0.0932148
0.0931967
0.0930429
0.0927082
0.0924923
0.0924328
0.0924066
0.0923805
0.0923302
0.0921948
0.0919102
0.0916219
0.0915901
0.0916958
0.091956
0.092034
0.0920246
0.091949
0.0917889
0.0917204
0.0917297
0.0917675
0.0917709
0.0917705
0.0917838
0.0918177
0.0918169
0.0917357
0.0915272
0.0913479
0.0912697
0.0911847
0.0909889
0.0907196
0.0906335
0.0906623
0.0907861
0.0908618
0.090851
0.0907753
0.0906359
0.0905758
0.0906271
0.0908867
0.0914408
0.0923036
0.0930975
0.094127
0.0950563
0.0955966
0.0966159
0.0979922
0.0993149
0.100278
0.100919
0.101732
0.10375
0.106704
0.107489
0.107605
0.108954
0.11156
0.114244
0.116517
0.116752
0.117505
0.121967
0.207055
0.38952
0.610883
0.845789
0.888045
0.939914
0.950962
0.970413
0.966814
0.960764
0.963252
0.0917952
0.0917014
0.0915299
0.0913954
0.0913879
0.0914345
0.0917078
0.0919839
0.0920462
0.0919793
0.0913406
0.0905855
0.0904953
0.0905145
0.0905651
0.0906244
0.0906939
0.0907586
0.0908139
0.0908725
0.0909149
0.0909846
0.0912265
0.0913903
0.0913879
0.0912176
0.0910684
0.0911016
0.0911855
0.091204
0.091186
0.0910657
0.090917
0.0908834
0.0909166
0.0911416
0.0915213
0.0915938
0.0915923
0.0915795
0.0915015
0.0913936
0.0913147
0.0912289
0.0911849
0.091166
0.0911394
0.091121
0.0911079
0.091078
0.0910457
0.0910163
0.090992
0.0908986
0.0906788
0.0905103
0.0904959
0.0905321
0.0907165
0.0909155
0.0910128
0.0911178
0.0914024
0.0920378
0.0931767
0.094587
0.0961352
0.0977069
0.09925
0.0999095
0.1
0.100033
0.100251
0.101301
0.103387
0.105859
0.108242
0.10887
0.109308
0.111403
0.113947
0.114747
0.115117
0.116334
0.119377
0.122327
0.123111
0.123705
0.125474
0.128702
0.12966
0.197723
0.355074
0.590207
0.843397
0.892808
0.940904
0.967059
0.9679
0.970432
0.0895815
0.0895878
0.0895852
0.0896054
0.0897351
0.0899076
0.0900892
0.0901952
0.0901748
0.0898811
0.0894515
0.0893987
0.0894264
0.0895813
0.0898347
0.0899998
0.0900896
0.0901729
0.0902723
0.0904293
0.0905529
0.0906129
0.0908038
0.091129
0.0911782
0.091127
0.0909224
0.090887
0.0909083
0.0909173
0.0908989
0.0908002
0.0907301
0.0907244
0.090757
0.0908943
0.0912672
0.0914894
0.0915021
0.0914986
0.0914505
0.0913295
0.0911818
0.0909815
0.090918
0.090926
0.0909024
0.0908708
0.0908689
0.0908976
0.0909742
0.0910218
0.0910266
0.0909833
0.0908696
0.0909017
0.09106
0.0915509
0.0925829
0.0941662
0.0961144
0.0978035
0.0990796
0.100222
0.101315
0.102215
0.102571
0.102783
0.10356
0.103974
0.104045
0.104423
0.105583
0.107832
0.110433
0.113162
0.115728
0.117269
0.117048
0.11676
0.117504
0.11967
0.122028
0.124549
0.126543
0.127665
0.128664
0.129636
0.131254
0.134735
0.137376
0.137261
0.137483
0.194475
0.339775
0.581713
0.83875
0.909771
0.943352
0.978931
0.0909223
0.091026
0.0911342
0.0912799
0.0914027
0.0914094
0.0913642
0.0912519
0.0911802
0.0911942
0.0912626
0.0912975
0.0913327
0.0915502
0.0917627
0.091774
0.0917072
0.091651
0.0917006
0.0919573
0.0920658
0.0920714
0.0920848
0.0921295
0.0921604
0.0921363
0.0919378
0.0916618
0.0916511
0.0916808
0.0916724
0.0916495
0.0916768
0.0917647
0.091736
0.0916419
0.091645
0.0918829
0.0920257
0.0920344
0.0920304
0.0919323
0.0915487
0.0911952
0.0911634
0.0911964
0.0912372
0.091336
0.0916735
0.0924336
0.0935317
0.094614
0.0955335
0.0965393
0.0977935
0.0990578
0.100282
0.101353
0.102397
0.103738
0.105022
0.105959
0.10636
0.106449
0.106528
0.10658
0.106329
0.105987
0.106406
0.108065
0.111073
0.114194
0.116562
0.118565
0.120105
0.120785
0.121216
0.121959
0.122234
0.122655
0.123908
0.126782
0.129927
0.132735
0.132919
0.132761
0.133648
0.136672
0.138957
0.140519
0.142409
0.14369
0.145279
0.146523
0.147537
0.201108
0.336201
0.575305
0.835826
0.937735
0.0927178
0.092781
0.092809
0.0928291
0.0928379
0.0928342
0.0928246
0.0928633
0.0929827
0.0930084
0.0929538
0.0927719
0.0923543
0.0920269
0.0919694
0.0919361
0.0917553
0.0915292
0.0915281
0.0916953
0.0919572
0.0919982
0.0919762
0.0919064
0.0918299
0.0916961
0.0916696
0.0916898
0.0918571
0.0922069
0.0922651
0.0923461
0.0927034
0.0931059
0.0931438
0.0930421
0.0931082
0.0935372
0.0942971
0.0948905
0.0952865
0.0956534
0.0961212
0.0966749
0.097341
0.0982868
0.0996739
0.101344
0.102857
0.104164
0.105445
0.106553
0.1074
0.107923
0.108281
0.108577
0.108952
0.109089
0.109012
0.108984
0.109018
0.109162
0.109272
0.109331
0.1098
0.111125
0.113269
0.115812
0.118298
0.120659
0.122953
0.125161
0.126331
0.126378
0.126114
0.125473
0.125245
0.125745
0.127775
0.130905
0.134343
0.136356
0.137651
0.138026
0.138515
0.139771
0.142147
0.145258
0.147288
0.147066
0.147633
0.149547
0.152935
0.155021
0.155811
0.156617
0.157441
0.205282
0.339199
0.702418
0.0946944
0.0948073
0.0949686
0.095113
0.0952574
0.0952819
0.0953417
0.0959973
0.0966442
0.0966192
0.0961784
0.0960679
0.0961322
0.0965402
0.0975698
0.0980407
0.0980354
0.0980305
0.0981014
0.0981232
0.0980972
0.0981674
0.0984563
0.0987072
0.0988708
0.0989683
0.0991372
0.0996518
0.100325
0.101139
0.102349
0.104081
0.105335
0.105962
0.106425
0.106912
0.107423
0.107804
0.108116
0.108549
0.109201
0.109929
0.110399
0.110648
0.110893
0.111115
0.111343
0.111669
0.112019
0.112194
0.112369
0.112524
0.112548
0.112481
0.11247
0.112616
0.112895
0.112997
0.112996
0.11321
0.114217
0.116111
0.118254
0.120763
0.123363
0.125713
0.127814
0.129887
0.131249
0.131237
0.130638
0.13042
0.130468
0.130295
0.130065
0.130836
0.132833
0.135872
0.139536
0.141904
0.143923
0.144086
0.143838
0.144081
0.14516
0.147832
0.150249
0.151866
0.153657
0.154175
0.154549
0.156005
0.159032
0.162664
0.163255
0.163298
0.16474
0.167448
0.168372
0.301862
0.107891
0.108139
0.108341
0.108463
0.108585
0.108736
0.108871
0.108913
0.108916
0.10896
0.109154
0.109663
0.110082
0.11037
0.110751
0.111048
0.111038
0.110976
0.110972
0.110991
0.111108
0.111382
0.111693
0.11192
0.11213
0.112394
0.112789
0.11332
0.11353
0.113617
0.113947
0.114261
0.114218
0.114179
0.114207
0.114418
0.114624
0.11456
0.114458
0.114486
0.114787
0.115559
0.116011
0.116015
0.116016
0.115857
0.115708
0.115802
0.116291
0.116538
0.116814
0.117479
0.118446
0.119482
0.120605
0.122002
0.123746
0.125691
0.127662
0.129659
0.131611
0.133371
0.134713
0.135607
0.13593
0.135718
0.135469
0.135709
0.135856
0.135639
0.13432
0.134106
0.134905
0.13698
0.140508
0.144153
0.147175
0.148836
0.149647
0.149668
0.149588
0.149235
0.150005
0.151696
0.154593
0.157517
0.158806
0.159006
0.159852
0.161698
0.164013
0.165913
0.166515
0.168497
0.170676
0.171149
0.172084
0.175092
0.176886
0.178171
0.118793
0.118711
0.118448
0.118422
0.118434
0.118692
0.119224
0.119315
0.11922
0.118967
0.118929
0.119014
0.119096
0.119105
0.119174
0.119435
0.11964
0.119651
0.119614
0.119621
0.119804
0.120202
0.120687
0.120955
0.121018
0.121082
0.121232
0.121391
0.12144
0.121521
0.121856
0.121933
0.121977
0.122249
0.122786
0.123603
0.124706
0.125422
0.125482
0.125514
0.125792
0.126496
0.127425
0.128372
0.129252
0.130027
0.130692
0.131399
0.132254
0.133321
0.134439
0.135529
0.13668
0.137903
0.138942
0.139513
0.139695
0.139822
0.14005
0.140394
0.140567
0.140754
0.141094
0.141171
0.141018
0.140212
0.139422
0.139604
0.140566
0.14251
0.145486
0.148374
0.150934
0.153464
0.155083
0.156031
0.156391
0.156082
0.155032
0.154669
0.155245
0.157373
0.16052
0.163676
0.165985
0.167054
0.16734
0.167304
0.167589
0.168798
0.171597
0.174499
0.175325
0.175311
0.176569
0.178852
0.181314
0.182979
0.184186
0.186246
0.131299
0.131395
0.131532
0.131712
0.131908
0.132119
0.132325
0.132531
0.132718
0.1329
0.133042
0.133152
0.133248
0.13339
0.133672
0.133958
0.134419
0.134795
0.134843
0.134954
0.135216
0.135439
0.135585
0.135746
0.135939
0.135983
0.135961
0.135994
0.136324
0.136653
0.136784
0.136957
0.13753
0.138076
0.138073
0.138092
0.13841
0.139009
0.139476
0.13983
0.140282
0.140906
0.14154
0.142065
0.142522
0.143072
0.143539
0.143569
0.143482
0.143487
0.143584
0.143794
0.144072
0.144417
0.144872
0.145352
0.145398
0.145342
0.14551
0.14545
0.145175
0.145271
0.145933
0.147531
0.149727
0.152276
0.154878
0.156803
0.158383
0.159871
0.1614
0.162497
0.163248
0.163207
0.162871
0.162366
0.161833
0.161954
0.16302
0.165492
0.168658
0.171761
0.173257
0.17458
0.17424
0.173829
0.173934
0.175028
0.177309
0.180256
0.182031
0.183544
0.184495
0.184628
0.185104
0.187129
0.190469
0.191199
0.192038
0.193896
0.144173
0.144215
0.144258
0.144278
0.144313
0.144402
0.144521
0.144654
0.144879
0.145105
0.145106
0.144982
0.14493
0.144917
0.144923
0.145138
0.145295
0.14537
0.145552
0.145984
0.14644
0.146653
0.146797
0.147022
0.14735
0.147868
0.148543
0.148757
0.148712
0.148688
0.148758
0.149256
0.149596
0.149498
0.14929
0.14933
0.149453
0.149468
0.149493
0.149572
0.149657
0.149781
0.150058
0.150487
0.150936
0.151608
0.152709
0.15352
0.153997
0.154516
0.155584
0.156386
0.156434
0.15657
0.157082
0.158113
0.159589
0.161202
0.162608
0.163966
0.165292
0.166307
0.167025
0.1676
0.168262
0.168935
0.169715
0.170441
0.170474
0.170199
0.169693
0.169584
0.169329
0.169216
0.169486
0.170802
0.172975
0.17596
0.178717
0.180702
0.182433
0.182817
0.182381
0.181593
0.181435
0.182409
0.184464
0.18761
0.190042
0.192515
0.192749
0.192407
0.192462
0.193614
0.195535
0.198015
0.199812
0.20015
0.200603
0.20269
0.159086
0.159094
0.159185
0.159475
0.159615
0.159614
0.159614
0.159723
0.160317
0.160573
0.160405
0.160103
0.160076
0.160278
0.160816
0.160887
0.160675
0.160598
0.16069
0.1612
0.161777
0.161936
0.161944
0.161999
0.162401
0.162986
0.163287
0.163437
0.163611
0.163849
0.164196
0.164754
0.165039
0.16529
0.165782
0.166426
0.166867
0.167166
0.167585
0.168042
0.168459
0.168996
0.169707
0.170152
0.170384
0.170778
0.171069
0.171233
0.171377
0.171508
0.171943
0.172795
0.173608
0.174412
0.175248
0.17542
0.175235
0.174925
0.174907
0.175105
0.175445
0.175827
0.176324
0.176408
0.176171
0.175455
0.175137
0.175292
0.175873
0.176456
0.177443
0.179089
0.181465
0.18418
0.186939
0.189099
0.190759
0.191652
0.191826
0.191482
0.191086
0.190655
0.190739
0.191545
0.193893
0.196792
0.199477
0.200972
0.201628
0.201183
0.200689
0.201037
0.202208
0.205076
0.207489
0.20937
0.20962
0.209958
0.210543
0.212297
0.176884
0.176952
0.177151
0.177529
0.177606
0.17754
0.177401
0.177286
0.177275
0.17747
0.178293
0.179013
0.179065
0.179045
0.179076
0.179148
0.179094
0.179059
0.179194
0.179511
0.179728
0.179987
0.180181
0.180201
0.18024
0.180427
0.180563
0.180597
0.180762
0.181165
0.181307
0.181174
0.180956
0.180941
0.181045
0.181367
0.181686
0.181914
0.182337
0.182752
0.182898
0.183188
0.183564
0.183603
0.183618
0.183804
0.184174
0.184147
0.18409
0.184064
0.183868
0.183828
0.183793
0.183733
0.184014
0.184719
0.184942
0.185232
0.18607
0.186669
0.186829
0.187222
0.188241
0.1899
0.19186
0.193837
0.195328
0.196498
0.197874
0.199521
0.201094
0.202189
0.202876
0.202894
0.203143
0.20305
0.202771
0.202076
0.201336
0.200919
0.201545
0.202967
0.205528
0.208052
0.210475
0.211296
0.211938
0.211423
0.210932
0.210278
0.211192
0.212921
0.215745
0.218048
0.219101
0.218623
0.218708
0.219391
0.220892
0.223371
0.196179
0.196375
0.196412
0.196381
0.19625
0.19623
0.196462
0.196582
0.196412
0.195905
0.195912
0.19659
0.196817
0.196688
0.196595
0.196689
0.197017
0.19703
0.196746
0.196693
0.196839
0.196955
0.197155
0.197592
0.197802
0.197796
0.19779
0.197846
0.198164
0.198791
0.199254
0.19934
0.199331
0.199338
0.199494
0.199713
0.199703
0.199695
0.199727
0.199522
0.199169
0.199162
0.199306
0.19969
0.20038
0.201227
0.201842
0.20244
0.20312
0.203666
0.204391
0.20509
0.205137
0.20522
0.205812
0.206801
0.207447
0.207994
0.208874
0.209979
0.210861
0.211886
0.212268
0.212188
0.212192
0.212483
0.213017
0.213214
0.213034
0.21256
0.212092
0.211693
0.211077
0.210161
0.209334
0.209384
0.209955
0.211363
0.213525
0.216437
0.219371
0.221704
0.223466
0.224287
0.224047
0.223282
0.222771
0.222362
0.222821
0.224204
0.226655
0.228913
0.230822
0.230529
0.230337
0.230565
0.231046
0.232039
0.233517
0.235382
0.216679
0.216669
0.216757
0.217458
0.218217
0.218255
0.217973
0.217759
0.217843
0.217891
0.217675
0.217335
0.21739
0.217819
0.218012
0.218203
0.218666
0.218914
0.218881
0.218601
0.218485
0.218506
0.218627
0.218748
0.218945
0.219228
0.21928
0.219165
0.219158
0.219449
0.219655
0.21964
0.219543
0.219527
0.21958
0.21984
0.220365
0.220971
0.221433
0.221836
0.222242
0.222539
0.222814
0.223204
0.223492
0.223495
0.223344
0.223135
0.223112
0.223324
0.223998
0.224614
0.225169
0.225988
0.22648
0.226361
0.225799
0.225595
0.225609
0.225679
0.225884
0.22596
0.225881
0.22552
0.224899
0.224585
0.224673
0.224902
0.225104
0.225477
0.226314
0.227557
0.229155
0.231223
0.233393
0.235558
0.237258
0.238712
0.239448
0.239977
0.239762
0.239376
0.238688
0.237899
0.237084
0.236048
0.236292
0.237374
0.239319
0.24147
0.242695
0.243561
0.243247
0.242507
0.242116
0.242531
0.243162
0.244589
0.245205
0.24554
0.242605
0.242113
0.241966
0.242004
0.242645
0.243187
0.24316
0.242821
0.242664
0.242839
0.243211
0.243192
0.24295
0.242951
0.243047
0.242953
0.242904
0.243201
0.243541
0.243545
0.243388
0.24331
0.243316
0.243521
0.243742
0.243794
0.243929
0.244049
0.244072
0.244209
0.244634
0.244832
0.244831
0.244784
0.244775
0.244815
0.244892
0.244905
0.244952
0.244997
0.244983
0.244888
0.244831
0.244873
0.245088
0.245516
0.245973
0.24631
0.246534
0.246598
0.246502
0.246035
0.24532
0.245028
0.245087
0.245417
0.246176
0.247005
0.247137
0.246879
0.246733
0.246855
0.247242
0.247934
0.248832
0.249683
0.250291
0.250847
0.251527
0.25236
0.253025
0.253608
0.253949
0.254006
0.25385
0.253512
0.252855
0.251978
0.25078
0.249367
0.247696
0.2465
0.24547
0.245878
0.24727
0.249865
0.25272
0.255487
0.256705
0.257382
0.256867
0.255873
0.254957
0.254627
0.255219
0.256455
0.257958
0.259423
0.259594
0.259482
0.270425
0.270334
0.270248
0.2702
0.270201
0.270213
0.270155
0.269998
0.269988
0.270334
0.270778
0.270731
0.270491
0.270467
0.270647
0.270549
0.269939
0.269696
0.269796
0.270217
0.270399
0.270257
0.270015
0.270037
0.270183
0.270223
0.270058
0.26976
0.269677
0.26965
0.269645
0.269756
0.269884
0.269877
0.269768
0.269708
0.269719
0.269714
0.269774
0.26993
0.269945
0.269843
0.269715
0.269719
0.269758
0.269738
0.269606
0.269347
0.269131
0.269112
0.269189
0.269426
0.269818
0.27026
0.270488
0.27045
0.270262
0.270021
0.270034
0.270304
0.270894
0.271548
0.271792
0.271734
0.271522
0.271438
0.271412
0.271339
0.271097
0.270603
0.269908
0.269278
0.268564
0.267804
0.267229
0.266492
0.266316
0.266627
0.267483
0.268784
0.270703
0.272786
0.274878
0.276691
0.277652
0.277857
0.277474
0.276721
0.275523
0.274105
0.272735
0.271466
0.271308
0.27221
0.273728
0.27499
0.275477
0.274883
0.273975
0.272868
0.30261
0.302618
0.302594
0.302555
0.30256
0.302784
0.3029
0.302557
0.301763
0.301696
0.301947
0.301947
0.301884
0.30217
0.30275
0.302848
0.302537
0.301759
0.301661
0.301976
0.302292
0.302234
0.30179
0.30151
0.301583
0.301617
0.301545
0.30154
0.301551
0.30146
0.301413
0.301478
0.301564
0.301543
0.30141
0.301287
0.301183
0.301168
0.301185
0.301225
0.301195
0.300958
0.300817
0.300861
0.300979
0.300994
0.30089
0.300744
0.30069
0.300627
0.300551
0.30046
0.300327
0.300121
0.29997
0.299975
0.300079
0.30013
0.300062
0.299766
0.299277
0.29881