/*--------------------------------*- C++ -*----------------------------------*\
  =========                 |
  \\      /  F ield         | OpenFOAM: The Open Source CFD Toolbox
   \\    /   O peration     | Website:  https://openfoam.org
    \\  /    A nd           | Version:  7
     \\/     M anipulation  |
\*---------------------------------------------------------------------------*/
FoamFile
{
    version     2.0;
    format      ascii;
    class       volVectorField;
    location    "8.5";
    object      U;
}
// * * * * * * * * * * * * * * * * * * * * * * * * * * * * * * * * * * * * * //

dimensions      [0 1 -1 0 0 0 0];

internalField   nonuniform List<vector> 
90000
(
(5.00346 -1.30138 0)
(4.97825 -1.22724 0)
(4.94996 -1.07129 0)
(4.93573 -0.918613 0)
(4.93246 -0.936257 0)
(4.91826 -0.845932 0)
(4.90807 -0.738816 0)
(4.90626 -0.668586 0)
(4.91152 -0.654592 0)
(4.90616 -0.576199 0)
(4.90714 -0.53686 0)
(4.906 -0.472635 0)
(4.91088 -0.452533 0)
(4.90861 -0.386038 0)
(4.91298 -0.370173 0)
(4.91106 -0.306208 0)
(4.91644 -0.2983 0)
(4.91336 -0.235057 0)
(4.91843 -0.229714 0)
(4.91496 -0.168536 0)
(4.92011 -0.163906 0)
(4.91664 -0.106244 0)
(4.92124 -0.102248 0)
(4.91784 -0.0468936 0)
(4.92324 -0.0483141 0)
(4.92015 0.00883232 0)
(4.92673 0.000462259 0)
(4.92513 0.0514035 0)
(4.93324 0.04749 0)
(4.93581 0.0824801 0)
(4.94046 0.0833086 0)
(4.93325 0.0989222 0)
(4.93377 0.0938761 0)
(4.92872 0.105037 0)
(4.9281 0.104435 0)
(4.92719 0.105143 0)
(4.92769 0.0974777 0)
(4.92704 0.097552 0)
(4.92971 0.089551 0)
(4.92863 0.0868829 0)
(4.92932 0.0755077 0)
(4.92872 0.0761983 0)
(4.92823 0.0665698 0)
(4.92652 0.0653549 0)
(4.9223 0.0643535 0)
(4.91815 0.0636748 0)
(4.91211 0.0655623 0)
(4.90618 0.0733711 0)
(4.9023 0.0804696 0)
(4.90348 0.0899024 0)
(4.90449 0.0906067 0)
(4.90504 0.0846002 0)
(4.90269 0.0814229 0)
(4.89994 0.0750521 0)
(4.90086 0.0727386 0)
(4.9012 0.0630311 0)
(4.90051 0.059089 0)
(4.89979 0.0512133 0)
(4.90062 0.0513587 0)
(4.90095 0.057156 0)
(4.90206 0.0667628 0)
(4.90506 0.0835906 0)
(4.90657 0.0871835 0)
(4.90712 0.102124 0)
(4.9096 0.0959323 0)
(4.90919 0.0939084 0)
(4.90881 0.0908394 0)
(4.90841 0.0885565 0)
(4.90768 0.081971 0)
(4.90744 0.0732782 0)
(4.90723 0.0654624 0)
(4.90656 0.0671216 0)
(4.90872 0.080429 0)
(4.90909 0.0877581 0)
(4.91461 0.0995473 0)
(4.91481 0.0996887 0)
(4.91481 0.0940699 0)
(4.91481 0.087582 0)
(4.9151 0.0711703 0)
(4.91534 0.074118 0)
(4.91727 0.0851707 0)
(4.91723 0.0936434 0)
(4.92242 0.104309 0)
(4.92267 0.100231 0)
(4.92269 0.0943468 0)
(4.92285 0.0840972 0)
(4.92401 0.0895682 0)
(4.9251 0.0949009 0)
(4.92801 0.102625 0)
(4.9285 0.101071 0)
(4.92831 0.0945635 0)
(4.92965 0.0921517 0)
(4.92993 0.0953034 0)
(4.93059 0.0936487 0)
(4.93126 0.0909251 0)
(4.93161 0.0870417 0)
(4.93124 0.0817256 0)
(4.93133 0.0836909 0)
(4.93165 0.0824968 0)
(4.93197 0.0775011 0)
(5.0369 -1.41822 0)
(5.03718 -1.41788 0)
(5.03748 -1.41769 0)
(5.0377 -1.41798 0)
(5.03801 -1.41787 0)
(5.03844 -1.4174 0)
(5.03869 -1.41762 0)
(5.03904 -1.41768 0)
(5.03941 -1.41787 0)
(5.03993 -1.41761 0)
(5.04033 -1.41796 0)
(5.04095 -1.41768 0)
(5.04138 -1.4183 0)
(5.04177 -1.41751 0)
(5.04172 -1.41535 0)
(5.04069 -1.40663 0)
(5.0397 -1.39649 0)
(5.03763 -1.37616 0)
(5.03458 -1.35708 0)
(5.03003 -1.32034 0)
(5.02456 -1.29117 0)
(5.01726 -1.23389 0)
(5.00974 -1.19309 0)
(4.99956 -1.10913 0)
(4.99139 -1.06139 0)
(4.97847 -0.951034 0)
(4.97123 -0.899342 0)
(4.95575 -0.766449 0)
(4.95141 -0.716188 0)
(4.93442 -0.558111 0)
(4.93563 -0.520528 0)
(4.91475 -0.348807 0)
(4.92392 -0.329335 0)
(4.90378 -0.180456 0)
(4.91447 -0.170765 0)
(4.89633 -0.0501865 0)
(4.90683 -0.0502283 0)
(4.89101 0.039132 0)
(4.89874 0.0371535 0)
(4.8866 0.0997326 0)
(4.89319 0.100251 0)
(4.88477 0.134752 0)
(4.88911 0.14433 0)
(4.88326 0.163966 0)
(4.88558 0.179012 0)
(4.88347 0.191324 0)
(4.88479 0.199149 0)
(4.88259 0.196842 0)
(4.88179 0.181025 0)
(4.87895 0.149422 0)
(4.87936 0.119122 0)
(4.89078 0.099573 0)
(4.87619 0.077089 0)
(4.87457 0.0574241 0)
(4.87959 0.0538991 0)
(4.88412 0.0436045 0)
(4.88516 0.0482262 0)
(4.88674 0.0566001 0)
(4.89081 0.0811544 0)
(4.89003 0.102756 0)
(4.8882 0.131059 0)
(4.888 0.140589 0)
(4.88746 0.143935 0)
(4.88355 0.136605 0)
(4.88508 0.131347 0)
(4.88044 0.112799 0)
(4.87939 0.0963719 0)
(4.88004 0.0859571 0)
(4.88033 0.0735193 0)
(4.88524 0.0815152 0)
(4.88945 0.0980862 0)
(4.88979 0.110429 0)
(4.89445 0.120705 0)
(4.89464 0.119135 0)
(4.89458 0.114325 0)
(4.89292 0.0973852 0)
(4.89225 0.0844915 0)
(4.89374 0.0758662 0)
(4.895 0.0880069 0)
(4.8975 0.0940243 0)
(4.90254 0.104568 0)
(4.90321 0.10496 0)
(4.90434 0.0998792 0)
(4.90447 0.0975355 0)
(4.90663 0.0849135 0)
(4.90687 0.0942063 0)
(4.90803 0.0974643 0)
(4.91201 0.10061 0)
(4.91352 0.0998952 0)
(4.91469 0.0956153 0)
(4.91487 0.0932298 0)
(4.91667 0.0917294 0)
(4.91841 0.0936 0)
(4.92006 0.0948578 0)
(4.92104 0.0938771 0)
(4.92143 0.0887104 0)
(4.92149 0.0857882 0)
(4.92185 0.0781272 0)
(4.9232 0.0769534 0)
(4.92453 0.0768717 0)
(5.04546 -1.41922 0)
(5.04589 -1.41957 0)
(5.04666 -1.41874 0)
(5.04702 -1.41932 0)
(5.04753 -1.41946 0)
(5.04808 -1.41957 0)
(5.0488 -1.41922 0)
(5.04925 -1.41985 0)
(5.04993 -1.41974 0)
(5.05046 -1.42028 0)
(5.05123 -1.41996 0)
(5.05171 -1.42075 0)
(5.05253 -1.42025 0)
(5.05299 -1.42098 0)
(5.05372 -1.42075 0)
(5.05425 -1.42156 0)
(5.05473 -1.42137 0)
(5.05512 -1.42155 0)
(5.0556 -1.42121 0)
(5.05612 -1.42103 0)
(5.05651 -1.42128 0)
(5.05695 -1.42175 0)
(5.05755 -1.42146 0)
(5.05792 -1.42185 0)
(5.05838 -1.42176 0)
(5.05874 -1.42198 0)
(5.05925 -1.42172 0)
(5.05939 -1.42248 0)
(5.05981 -1.42214 0)
(5.05995 -1.42271 0)
(5.05935 -1.41885 0)
(5.05474 -1.39639 0)
(5.04748 -1.36647 0)
(5.03346 -1.29104 0)
(5.02017 -1.22869 0)
(5.00037 -1.09398 0)
(4.98835 -1.02031 0)
(4.96652 -0.846047 0)
(4.95916 -0.782477 0)
(4.93684 -0.587933 0)
(4.93954 -0.559102 0)
(4.91649 -0.372382 0)
(4.92534 -0.365603 0)
(4.90342 -0.205075 0)
(4.91254 -0.21008 0)
(4.89825 -0.0868257 0)
(4.90556 -0.106175 0)
(4.9009 -0.0272811 0)
(4.91189 -0.0446387 0)
(4.89404 0.00490423 0)
(4.89437 0.0161328 0)
(4.88875 0.0400537 0)
(4.88863 0.0469962 0)
(4.8871 0.047344 0)
(4.88746 0.0565225 0)
(4.88598 0.0658683 0)
(4.88177 0.0759755 0)
(4.87293 0.0793465 0)
(4.87184 0.0979572 0)
(4.87026 0.104837 0)
(4.8657 0.103922 0)
(4.86211 0.0992669 0)
(4.85972 0.0936806 0)
(4.85917 0.0880092 0)
(4.86021 0.0818609 0)
(4.86083 0.0882555 0)
(4.86175 0.0739619 0)
(4.86325 0.0718158 0)
(4.86636 0.0746147 0)
(4.86967 0.0868046 0)
(4.87282 0.0837518 0)
(4.87303 0.0900106 0)
(4.8722 0.0899366 0)
(4.86996 0.0911883 0)
(4.86951 0.084035 0)
(4.86979 0.0855068 0)
(4.87003 0.0753072 0)
(4.87208 0.0782119 0)
(4.87256 0.0827072 0)
(4.88011 0.0977614 0)
(4.88136 0.100126 0)
(4.88164 0.0952729 0)
(4.88177 0.0907304 0)
(4.88239 0.0798453 0)
(4.88457 0.0882509 0)
(4.88626 0.0918905 0)
(4.88957 0.0969535 0)
(4.89197 0.100554 0)
(4.89339 0.0982343 0)
(4.89477 0.0940881 0)
(4.89566 0.0888933 0)
(4.89842 0.0889974 0)
(4.90081 0.0914921 0)
(4.90302 0.0920662 0)
(4.90415 0.0841681 0)
(4.90514 0.0812686 0)
(4.90629 0.0741967 0)
(4.90776 0.0763682 0)
(4.90935 0.0806159 0)
(4.91139 0.0766541 0)
(5.05511 -1.42037 0)
(5.05534 -1.42079 0)
(5.05571 -1.42066 0)
(5.05618 -1.42043 0)
(5.05639 -1.42092 0)
(5.05672 -1.42112 0)
(5.05712 -1.42108 0)
(5.05747 -1.42123 0)
(5.0578 -1.42144 0)
(5.05815 -1.42156 0)
(5.05848 -1.42173 0)
(5.05882 -1.42187 0)
(5.0591 -1.42212 0)
(5.05941 -1.42213 0)
(5.05965 -1.4223 0)
(5.05993 -1.42233 0)
(5.06025 -1.42228 0)
(5.06048 -1.4225 0)
(5.06075 -1.42254 0)
(5.06111 -1.42249 0)
(5.06114 -1.4228 0)
(5.06117 -1.4231 0)
(5.06127 -1.42309 0)
(5.0613 -1.42317 0)
(5.06134 -1.42331 0)
(5.06146 -1.42322 0)
(5.06159 -1.42322 0)
(5.06166 -1.42346 0)
(5.06179 -1.42353 0)
(5.06191 -1.42336 0)
(5.06211 -1.42339 0)
(5.06215 -1.42368 0)
(5.06211 -1.42388 0)
(5.06207 -1.42418 0)
(5.06192 -1.4243 0)
(5.06173 -1.42456 0)
(5.06143 -1.42461 0)
(5.06091 -1.42472 0)
(5.06026 -1.42431 0)
(5.05896 -1.42349 0)
(5.05712 -1.41765 0)
(5.04852 -1.37988 0)
(5.03782 -1.33238 0)
(5.0177 -1.2121 0)
(5.00269 -1.1252 0)
(4.97543 -0.921202 0)
(4.96676 -0.831968 0)
(4.9354 -0.576323 0)
(4.94742 -0.527086 0)
(4.90919 -0.266192 0)
(4.93326 -0.253058 0)
(4.88724 -0.0353843 0)
(4.9105 -0.0280201 0)
(4.87544 0.105155 0)
(4.87912 0.120366 0)
(4.8562 0.182313 0)
(4.84591 0.214638 0)
(4.84285 0.218184 0)
(4.84598 0.193706 0)
(4.84272 0.144702 0)
(4.85108 0.108509 0)
(4.85358 0.0889234 0)
(4.85585 0.0775223 0)
(4.85706 0.0754766 0)
(4.85678 0.0682117 0)
(4.85686 0.0697839 0)
(4.85695 0.0765201 0)
(4.85987 0.0946801 0)
(4.85958 0.110139 0)
(4.85711 0.124387 0)
(4.85673 0.124173 0)
(4.85347 0.11075 0)
(4.85072 0.093859 0)
(4.84969 0.0811028 0)
(4.85104 0.0666652 0)
(4.85031 0.0769388 0)
(4.85196 0.0864978 0)
(4.8556 0.1014 0)
(4.85974 0.104318 0)
(4.86006 0.104453 0)
(4.85955 0.101479 0)
(4.85784 0.0968915 0)
(4.85902 0.0899069 0)
(4.86088 0.0895547 0)
(4.86271 0.0928484 0)
(4.86785 0.102351 0)
(4.86971 0.104695 0)
(4.87047 0.0956772 0)
(4.87085 0.0931661 0)
(4.87295 0.0901073 0)
(4.87448 0.0961476 0)
(4.87738 0.0994725 0)
(4.87979 0.0979593 0)
(4.88118 0.0926872 0)
(4.88228 0.0892317 0)
(4.88404 0.0800398 0)
(4.88624 0.0829043 0)
(4.88875 0.0831546 0)
(4.8907 0.0802994 0)
(4.89349 0.0738416 0)
(5.06035 -1.42407 0)
(5.06042 -1.42419 0)
(5.06049 -1.4244 0)
(5.06062 -1.42437 0)
(5.06078 -1.42429 0)
(5.06084 -1.4244 0)
(5.06089 -1.42454 0)
(5.06104 -1.42456 0)
(5.06119 -1.42454 0)
(5.06123 -1.42453 0)
(5.06131 -1.42453 0)
(5.06147 -1.42454 0)
(5.06155 -1.42455 0)
(5.06158 -1.4246 0)
(5.0616 -1.42463 0)
(5.06162 -1.42464 0)
(5.06163 -1.42464 0)
(5.06164 -1.42458 0)
(5.06164 -1.42454 0)
(5.06163 -1.42453 0)
(5.06163 -1.42448 0)
(5.06157 -1.42455 0)
(5.06153 -1.42456 0)
(5.06154 -1.42458 0)
(5.0615 -1.42458 0)
(5.06157 -1.42457 0)
(5.0617 -1.42462 0)
(5.06178 -1.42469 0)
(5.06184 -1.42467 0)
(5.06171 -1.42447 0)
(5.06155 -1.42434 0)
(5.06116 -1.42397 0)
(5.06098 -1.42362 0)
(5.06084 -1.42344 0)
(5.06028 -1.42318 0)
(5.05987 -1.42313 0)
(5.0592 -1.42301 0)
(5.05849 -1.42259 0)
(5.05757 -1.42195 0)
(5.05724 -1.42177 0)
(5.05678 -1.42166 0)
(5.05543 -1.42137 0)
(5.05438 -1.4212 0)
(5.05343 -1.42132 0)
(5.05258 -1.4214 0)
(5.0516 -1.42123 0)
(5.0505 -1.42092 0)
(5.05006 -1.42009 0)
(5.04787 -1.41218 0)
(5.0354 -1.35111 0)
(5.02294 -1.2779 0)
(4.99677 -1.08774 0)
(4.98819 -0.984602 0)
(4.95905 -0.70567 0)
(4.96266 -0.651713 0)
(4.93018 -0.379835 0)
(4.94739 -0.369111 0)
(4.91614 -0.153518 0)
(4.93712 -0.158876 0)
(4.88852 -0.0396548 0)
(4.88954 -0.0264412 0)
(4.87587 0.0185636 0)
(4.87407 0.0209439 0)
(4.8699 0.0366356 0)
(4.86512 0.0521218 0)
(4.85998 0.0642891 0)
(4.84356 0.0856132 0)
(4.84029 0.10955 0)
(4.83714 0.112126 0)
(4.83345 0.104704 0)
(4.83302 0.098932 0)
(4.83284 0.0821705 0)
(4.83489 0.0773713 0)
(4.83932 0.0667995 0)
(4.83919 0.0649996 0)
(4.8433 0.0795889 0)
(4.84287 0.086961 0)
(4.84796 0.105304 0)
(4.84892 0.109528 0)
(4.84756 0.101588 0)
(4.8468 0.091104 0)
(4.84545 0.0802611 0)
(4.84727 0.082298 0)
(4.84889 0.0897689 0)
(4.8506 0.0962535 0)
(4.85279 0.100179 0)
(4.85265 0.0998771 0)
(4.8537 0.100156 0)
(4.85383 0.0852428 0)
(4.85626 0.0845583 0)
(4.85761 0.0881963 0)
(4.85934 0.0902565 0)
(4.86029 0.0878724 0)
(4.86023 0.080653 0)
(4.86166 0.0747892 0)
(4.86386 0.0782091 0)
(4.86674 0.0752946 0)
(4.86926 0.075909 0)
(4.87103 0.0757384 0)
(4.87338 0.0704982 0)
(5.06223 -1.42519 0)
(5.06221 -1.42516 0)
(5.06219 -1.42511 0)
(5.06215 -1.42518 0)
(5.06212 -1.42515 0)
(5.0621 -1.42501 0)
(5.06208 -1.42489 0)
(5.06206 -1.42489 0)
(5.06201 -1.42496 0)
(5.06202 -1.4249 0)
(5.06208 -1.42474 0)
(5.06215 -1.4245 0)
(5.06216 -1.42423 0)
(5.06212 -1.42418 0)
(5.06204 -1.42421 0)
(5.06208 -1.42408 0)
(5.06212 -1.42381 0)
(5.0618 -1.42366 0)
(5.0615 -1.42363 0)
(5.0613 -1.42364 0)
(5.06102 -1.42368 0)
(5.06082 -1.42375 0)
(5.06083 -1.42366 0)
(5.06067 -1.42351 0)
(5.06048 -1.42354 0)
(5.06036 -1.42356 0)
(5.06025 -1.42345 0)
(5.06001 -1.42314 0)
(5.05947 -1.42275 0)
(5.05887 -1.42239 0)
(5.05816 -1.42208 0)
(5.05742 -1.42168 0)
(5.05727 -1.42145 0)
(5.05722 -1.42139 0)
(5.05671 -1.42109 0)
(5.05614 -1.42088 0)
(5.05573 -1.42059 0)
(5.05536 -1.42022 0)
(5.05478 -1.41993 0)
(5.05392 -1.41971 0)
(5.05258 -1.41962 0)
(5.05085 -1.41921 0)
(5.05003 -1.41912 0)
(5.04933 -1.41936 0)
(5.04856 -1.41958 0)
(5.04776 -1.41961 0)
(5.04665 -1.41944 0)
(5.04634 -1.41902 0)
(5.04635 -1.41864 0)
(5.04618 -1.41834 0)
(5.04584 -1.4179 0)
(5.04584 -1.41744 0)
(5.04558 -1.41698 0)
(5.04491 -1.41664 0)
(5.04432 -1.41607 0)
(5.03369 -1.35574 0)
(5.02326 -1.26646 0)
(4.9884 -0.991764 0)
(4.98921 -0.838404 0)
(4.93853 -0.442053 0)
(4.96517 -0.416132 0)
(4.90193 -0.102787 0)
(4.92999 -0.0931568 0)
(4.87691 0.0934575 0)
(4.87956 0.116725 0)
(4.8513 0.200738 0)
(4.83467 0.201156 0)
(4.8231 0.170887 0)
(4.83616 0.126281 0)
(4.83345 0.0894651 0)
(4.83827 0.0852223 0)
(4.83202 0.0727971 0)
(4.83278 0.0730533 0)
(4.83471 0.0735713 0)
(4.84111 0.0898337 0)
(4.84423 0.104541 0)
(4.8447 0.109066 0)
(4.8437 0.107516 0)
(4.84154 0.101024 0)
(4.83945 0.0898731 0)
(4.84025 0.0822103 0)
(4.8412 0.0807965 0)
(4.84378 0.0926149 0)
(4.84395 0.0973649 0)
(4.8463 0.106709 0)
(4.84607 0.103026 0)
(4.84489 0.092631 0)
(4.84372 0.0867977 0)
(4.84498 0.093115 0)
(4.84723 0.0966447 0)
(4.84805 0.0967603 0)
(4.84743 0.0953574 0)
(4.84604 0.0895482 0)
(4.84495 0.084843 0)
(4.84744 0.0804113 0)
(4.85008 0.0783046 0)
(4.85221 0.0826702 0)
(4.85303 0.078813 0)
(4.85356 0.0759071 0)
(4.85476 0.0698317 0)
(5.06233 -1.42401 0)
(5.06223 -1.42403 0)
(5.0622 -1.42393 0)
(5.06216 -1.42389 0)
(5.06206 -1.42402 0)
(5.062 -1.42399 0)
(5.06204 -1.42369 0)
(5.062 -1.42361 0)
(5.06187 -1.42372 0)
(5.06182 -1.42367 0)
(5.06184 -1.42347 0)
(5.06176 -1.42335 0)
(5.0617 -1.4231 0)
(5.06165 -1.42296 0)
(5.06148 -1.4231 0)
(5.06141 -1.42283 0)
(5.06114 -1.42248 0)
(5.06063 -1.42224 0)
(5.05995 -1.42208 0)
(5.05928 -1.422 0)
(5.05869 -1.422 0)
(5.05817 -1.4219 0)
(5.0576 -1.42172 0)
(5.05692 -1.42161 0)
(5.05634 -1.42157 0)
(5.05607 -1.42149 0)
(5.05589 -1.42139 0)
(5.05542 -1.42111 0)
(5.05488 -1.42082 0)
(5.05428 -1.42067 0)
(5.05379 -1.42056 0)
(5.05343 -1.42033 0)
(5.05313 -1.42002 0)
(5.05297 -1.41987 0)
(5.05257 -1.41933 0)
(5.05165 -1.4189 0)
(5.05133 -1.41873 0)
(5.05107 -1.41834 0)
(5.05102 -1.41818 0)
(5.05096 -1.41817 0)
(5.0503 -1.41839 0)
(5.04911 -1.41827 0)
(5.04863 -1.41841 0)
(5.04812 -1.41866 0)
(5.04752 -1.41895 0)
(5.04685 -1.41916 0)
(5.04586 -1.41921 0)
(5.04506 -1.41868 0)
(5.0449 -1.41816 0)
(5.04495 -1.41807 0)
(5.04465 -1.41765 0)
(5.0443 -1.41722 0)
(5.04384 -1.41655 0)
(5.04365 -1.41583 0)
(5.04332 -1.41531 0)
(5.04271 -1.41568 0)
(5.04197 -1.41648 0)
(5.0413 -1.41669 0)
(5.0402 -1.41845 0)
(5.0379 -1.41032 0)
(5.03238 -1.36771 0)
(5.00688 -1.18718 0)
(4.99787 -1.03363 0)
(4.96525 -0.706622 0)
(4.97555 -0.623595 0)
(4.93372 -0.313209 0)
(4.97049 -0.286306 0)
(4.9082 -0.106789 0)
(4.91542 -0.0614829 0)
(4.88489 0.0137262 0)
(4.88161 0.0222995 0)
(4.86448 0.0537305 0)
(4.85741 0.0762414 0)
(4.84698 0.093763 0)
(4.84342 0.120301 0)
(4.84248 0.121865 0)
(4.83822 0.112115 0)
(4.83481 0.0935395 0)
(4.83391 0.0772852 0)
(4.83383 0.0686759 0)
(4.83521 0.0733314 0)
(4.8391 0.0868941 0)
(4.8407 0.0976881 0)
(4.84352 0.105379 0)
(4.84273 0.103892 0)
(4.84114 0.0947658 0)
(4.83949 0.0815266 0)
(4.83965 0.0821772 0)
(4.84082 0.0868118 0)
(4.84248 0.0953017 0)
(4.8427 0.0937642 0)
(4.84222 0.0871722 0)
(4.84055 0.0804918 0)
(4.84008 0.0743877 0)
(4.84128 0.0766587 0)
(4.84216 0.0775615 0)
(4.84254 0.0759378 0)
(4.84164 0.0764015 0)
(4.84084 0.0708903 0)
(4.8412 0.0654181 0)
(5.06028 -1.42223 0)
(5.06009 -1.42231 0)
(5.05988 -1.42233 0)
(5.05977 -1.42201 0)
(5.05957 -1.42198 0)
(5.05922 -1.42214 0)
(5.05911 -1.42183 0)
(5.05896 -1.42138 0)
(5.05869 -1.42151 0)
(5.05839 -1.42142 0)
(5.05821 -1.42077 0)
(5.05785 -1.4206 0)
(5.05729 -1.42094 0)
(5.05712 -1.4209 0)
(5.05699 -1.42031 0)
(5.05649 -1.4199 0)
(5.05548 -1.41964 0)
(5.05533 -1.4197 0)
(5.0552 -1.41995 0)
(5.054 -1.42001 0)
(5.05331 -1.41999 0)
(5.05274 -1.42 0)
(5.05221 -1.41994 0)
(5.05154 -1.41997 0)
(5.05086 -1.42023 0)
(5.05075 -1.42029 0)
(5.05063 -1.42006 0)
(5.05054 -1.41999 0)
(5.05029 -1.41993 0)
(5.04994 -1.41991 0)
(5.04972 -1.41986 0)
(5.04913 -1.41964 0)
(5.04875 -1.41936 0)
(5.04846 -1.41873 0)
(5.04841 -1.41849 0)
(5.04815 -1.41816 0)
(5.04798 -1.41804 0)
(5.04784 -1.41764 0)
(5.0478 -1.41746 0)
(5.0476 -1.41738 0)
(5.04667 -1.41739 0)
(5.04585 -1.41729 0)
(5.04561 -1.41748 0)
(5.0452 -1.41764 0)
(5.04474 -1.41795 0)
(5.04406 -1.41835 0)
(5.043 -1.41857 0)
(5.04227 -1.41828 0)
(5.04205 -1.41797 0)
(5.04197 -1.41798 0)
(5.04185 -1.41814 0)
(5.04201 -1.41781 0)
(5.04241 -1.41701 0)
(5.0424 -1.41647 0)
(5.04214 -1.4161 0)
(5.04207 -1.41632 0)
(5.0421 -1.41638 0)
(5.0408 -1.41711 0)
(5.03951 -1.41847 0)
(5.03929 -1.42033 0)
(5.03976 -1.4211 0)
(5.03986 -1.42081 0)
(5.0408 -1.41913 0)
(5.04124 -1.4196 0)
(5.04072 -1.41254 0)
(5.02178 -1.28196 0)
(5.02068 -1.11171 0)
(4.97177 -0.650151 0)
(4.98854 -0.553735 0)
(4.9187 -0.143414 0)
(4.95146 -0.11893 0)
(4.89114 0.0950185 0)
(4.87407 0.15096 0)
(4.85552 0.209864 0)
(4.84417 0.177042 0)
(4.83541 0.125358 0)
(4.84041 0.106775 0)
(4.83237 0.0785383 0)
(4.83287 0.0763984 0)
(4.83411 0.0760735 0)
(4.8408 0.0898946 0)
(4.84233 0.123308 0)
(4.84482 0.115678 0)
(4.84209 0.108886 0)
(4.83769 0.0930928 0)
(4.83464 0.08466 0)
(4.83498 0.0836874 0)
(4.83828 0.0912933 0)
(4.83967 0.100479 0)
(4.83955 0.0987688 0)
(4.83849 0.0898305 0)
(4.83795 0.0817695 0)
(4.83774 0.0764047 0)
(4.83712 0.0767044 0)
(4.83724 0.0786006 0)
(4.83684 0.0791434 0)
(4.83604 0.0788728 0)
(4.8354 0.0723462 0)
(4.83369 0.0696443 0)
(4.83354 0.0650259 0)
(5.0566 -1.41952 0)
(5.05646 -1.41931 0)
(5.05625 -1.41933 0)
(5.05597 -1.41942 0)
(5.05576 -1.41923 0)
(5.05549 -1.41908 0)
(5.05522 -1.41931 0)
(5.0546 -1.41952 0)
(5.05459 -1.41908 0)
(5.05465 -1.41813 0)
(5.05425 -1.41758 0)
(5.05381 -1.41759 0)
(5.05345 -1.41805 0)
(5.05292 -1.41834 0)
(5.05228 -1.41826 0)
(5.05163 -1.41814 0)
(5.05162 -1.41819 0)
(5.05169 -1.41834 0)
(5.05069 -1.41863 0)
(5.0498 -1.41851 0)
(5.04951 -1.41857 0)
(5.04918 -1.41872 0)
(5.04901 -1.41903 0)
(5.04864 -1.41943 0)
(5.04799 -1.41974 0)
(5.04728 -1.41983 0)
(5.04721 -1.41982 0)
(5.04736 -1.41985 0)
(5.04747 -1.41993 0)
(5.04748 -1.41985 0)
(5.04679 -1.41964 0)
(5.0466 -1.41954 0)
(5.04641 -1.41931 0)
(5.04597 -1.41881 0)
(5.04554 -1.41813 0)
(5.04517 -1.41798 0)
(5.04506 -1.41775 0)
(5.04529 -1.41747 0)
(5.04541 -1.41734 0)
(5.04553 -1.41727 0)
(5.04533 -1.4172 0)
(5.04452 -1.41704 0)
(5.04418 -1.417 0)
(5.04383 -1.41711 0)
(5.04336 -1.41743 0)
(5.04276 -1.41777 0)
(5.042 -1.4179 0)
(5.04124 -1.41793 0)
(5.04045 -1.41825 0)
(5.03977 -1.41835 0)
(5.03958 -1.41876 0)
(5.04001 -1.41901 0)
(5.04038 -1.41891 0)
(5.04053 -1.41861 0)
(5.04176 -1.41712 0)
(5.0423 -1.41653 0)
(5.04214 -1.41687 0)
(5.04075 -1.41749 0)
(5.0395 -1.41876 0)
(5.03901 -1.42122 0)
(5.03975 -1.42273 0)
(5.04032 -1.42266 0)
(5.04114 -1.4211 0)
(5.04207 -1.42031 0)
(5.04234 -1.42088 0)
(5.04225 -1.42215 0)
(5.04198 -1.42241 0)
(5.04165 -1.42564 0)
(5.04015 -1.41384 0)
(5.01685 -1.25127 0)
(5.00823 -1.06629 0)
(4.96797 -0.66417 0)
(4.98589 -0.556371 0)
(4.93011 -0.192492 0)
(4.959 -0.173195 0)
(4.88359 -0.0083186 0)
(4.88554 0.00849643 0)
(4.85869 0.0455352 0)
(4.85457 0.0711484 0)
(4.84421 0.0923086 0)
(4.84052 0.116325 0)
(4.83663 0.117603 0)
(4.83157 0.101707 0)
(4.83063 0.0894385 0)
(4.82813 0.0704191 0)
(4.82875 0.074251 0)
(4.832 0.0870908 0)
(4.83476 0.0988681 0)
(4.8346 0.0988503 0)
(4.83401 0.0891044 0)
(4.83209 0.0770483 0)
(4.83045 0.0729648 0)
(4.83161 0.074656 0)
(4.83234 0.0760152 0)
(4.83291 0.07898 0)
(4.83307 0.0782973 0)
(4.83238 0.0750816 0)
(4.8322 0.0681521 0)
(4.83141 0.0643882 0)
(4.83049 0.0631248 0)
(5.0513 -1.41944 0)
(5.05117 -1.4194 0)
(5.05108 -1.41938 0)
(5.05095 -1.4193 0)
(5.05064 -1.41905 0)
(5.05034 -1.41893 0)
(5.05011 -1.41885 0)
(5.0499 -1.41887 0)
(5.04973 -1.41878 0)
(5.04953 -1.41807 0)
(5.04958 -1.4176 0)
(5.05019 -1.41829 0)
(5.05002 -1.41882 0)
(5.04972 -1.41882 0)
(5.04964 -1.41827 0)
(5.04962 -1.41809 0)
(5.04936 -1.41793 0)
(5.0481 -1.41848 0)
(5.04722 -1.41876 0)
(5.0471 -1.41881 0)
(5.04691 -1.41887 0)
(5.04664 -1.41889 0)
(5.0462 -1.4189 0)
(5.04588 -1.41946 0)
(5.04561 -1.42002 0)
(5.04539 -1.42014 0)
(5.04507 -1.42017 0)
(5.04466 -1.42017 0)
(5.04446 -1.4201 0)
(5.04436 -1.42 0)
(5.04405 -1.41969 0)
(5.04391 -1.41953 0)
(5.04393 -1.41921 0)
(5.04389 -1.41863 0)
(5.04378 -1.41804 0)
(5.04351 -1.41772 0)
(5.04343 -1.4183 0)
(5.04342 -1.41863 0)
(5.04336 -1.41859 0)
(5.04318 -1.41825 0)
(5.04323 -1.41753 0)
(5.0434 -1.41724 0)
(5.04356 -1.41699 0)
(5.04323 -1.41687 0)
(5.04282 -1.41694 0)
(5.04235 -1.41725 0)
(5.04175 -1.41773 0)
(5.04097 -1.41807 0)
(5.03998 -1.4184 0)
(5.03907 -1.41923 0)
(5.03939 -1.42095 0)
(5.03967 -1.42132 0)
(5.03991 -1.42105 0)
(5.04009 -1.41993 0)
(5.04096 -1.41806 0)
(5.04213 -1.41764 0)
(5.04167 -1.41821 0)
(5.04064 -1.41841 0)
(5.03953 -1.41925 0)
(5.03901 -1.42248 0)
(5.03964 -1.42416 0)
(5.04047 -1.42439 0)
(5.04118 -1.42294 0)
(5.0423 -1.42217 0)
(5.04274 -1.42239 0)
(5.04348 -1.42202 0)
(5.04362 -1.42489 0)
(5.04282 -1.42581 0)
(5.04194 -1.42273 0)
(5.04038 -1.42575 0)
(5.03919 -1.42927 0)
(5.03867 -1.43408 0)
(5.0357 -1.40075 0)
(4.99906 -1.12345 0)
(5.00779 -0.850083 0)
(4.92724 -0.305774 0)
(4.974 -0.246711 0)
(4.88539 0.0829407 0)
(4.87398 0.134537 0)
(4.85379 0.224391 0)
(4.83254 0.18075 0)
(4.82717 0.117312 0)
(4.82969 0.0923393 0)
(4.82541 0.0733825 0)
(4.82659 0.0729607 0)
(4.83072 0.0874695 0)
(4.83244 0.114413 0)
(4.83173 0.111148 0)
(4.82788 0.0933202 0)
(4.82955 0.0854704 0)
(4.82755 0.074155 0)
(4.82763 0.0744546 0)
(4.82838 0.0779017 0)
(4.82993 0.0788311 0)
(4.83014 0.0788076 0)
(4.8299 0.07489 0)
(4.82989 0.070245 0)
(4.8292 0.0677995 0)
(4.82919 0.0640596 0)
(4.82934 0.0620836 0)
(5.04743 -1.41742 0)
(5.0475 -1.41723 0)
(5.04774 -1.41709 0)
(5.04732 -1.41744 0)
(5.04697 -1.41778 0)
(5.04698 -1.41803 0)
(5.04707 -1.41827 0)
(5.04697 -1.41858 0)
(5.04683 -1.41877 0)
(5.04676 -1.41886 0)
(5.04782 -1.41856 0)
(5.0482 -1.4178 0)
(5.04805 -1.41734 0)
(5.04797 -1.4168 0)
(5.04797 -1.41662 0)
(5.04792 -1.41619 0)
(5.04701 -1.41683 0)
(5.04571 -1.41803 0)
(5.04547 -1.41827 0)
(5.04529 -1.41824 0)
(5.04504 -1.4181 0)
(5.04451 -1.41797 0)
(5.04377 -1.41829 0)
(5.0434 -1.41879 0)
(5.04327 -1.4191 0)
(5.04294 -1.41964 0)
(5.04253 -1.41976 0)
(5.04216 -1.41955 0)
(5.04179 -1.41945 0)
(5.04166 -1.41945 0)
(5.04145 -1.41931 0)
(5.04124 -1.41923 0)
(5.04122 -1.41926 0)
(5.04133 -1.41887 0)
(5.04138 -1.41833 0)
(5.04113 -1.41773 0)
(5.04095 -1.41828 0)
(5.04114 -1.41959 0)
(5.04114 -1.41981 0)
(5.04092 -1.41947 0)
(5.04105 -1.4186 0)
(5.0417 -1.41803 0)
(5.04253 -1.41747 0)
(5.04288 -1.41668 0)
(5.04225 -1.41683 0)
(5.042 -1.41734 0)
(5.04159 -1.41751 0)
(5.04099 -1.41728 0)
(5.04011 -1.41774 0)
(5.03946 -1.4198 0)
(5.03912 -1.42158 0)
(5.03961 -1.42269 0)
(5.03991 -1.42279 0)
(5.03968 -1.42142 0)
(5.04076 -1.41994 0)
(5.04233 -1.41947 0)
(5.04177 -1.41945 0)
(5.04124 -1.41938 0)
(5.04005 -1.41991 0)
(5.0399 -1.42363 0)
(5.0403 -1.42633 0)
(5.04081 -1.42596 0)
(5.04107 -1.42589 0)
(5.04103 -1.42599 0)
(5.04181 -1.42533 0)
(5.04305 -1.42457 0)
(5.04283 -1.42728 0)
(5.04222 -1.42607 0)
(5.04037 -1.42924 0)
(5.03917 -1.43024 0)
(5.03794 -1.43299 0)
(5.03839 -1.4308 0)
(5.03734 -1.43365 0)
(5.03692 -1.43942 0)
(5.03605 -1.44155 0)
(5.02874 -1.39497 0)
(5.01927 -1.23324 0)
(4.97746 -0.833279 0)
(4.97187 -0.58613 0)
(4.9294 -0.212566 0)
(4.93635 -0.148866 0)
(4.8736 -0.00412308 0)
(4.87129 0.0302375 0)
(4.85161 0.0642391 0)
(4.84047 0.0809265 0)
(4.83083 0.10928 0)
(4.82545 0.10775 0)
(4.82572 0.0931448 0)
(4.81433 0.0527817 0)
(4.82504 0.0653194 0)
(4.8279 0.0707285 0)
(4.83167 0.0755868 0)
(4.83069 0.0809389 0)
(4.83088 0.0801065 0)
(4.82999 0.0755577 0)
(4.82832 0.0706692 0)
(4.8276 0.0621419 0)
(4.82693 0.0640972 0)
(4.82743 0.0624724 0)
(4.82823 0.059337 0)
(5.04441 -1.41903 0)
(5.04447 -1.41886 0)
(5.04456 -1.41874 0)
(5.04459 -1.4188 0)
(5.04462 -1.4189 0)
(5.0447 -1.41897 0)
(5.04486 -1.4192 0)
(5.04515 -1.41991 0)
(5.04533 -1.42013 0)
(5.04556 -1.42026 0)
(5.04556 -1.4211 0)
(5.04574 -1.42113 0)
(5.04636 -1.419 0)
(5.04675 -1.41711 0)
(5.04717 -1.41671 0)
(5.04716 -1.41693 0)
(5.04543 -1.41676 0)
(5.04497 -1.41671 0)
(5.04458 -1.41674 0)
(5.04411 -1.41661 0)
(5.04356 -1.41641 0)
(5.04288 -1.41623 0)
(5.04248 -1.41701 0)
(5.04226 -1.41812 0)
(5.04191 -1.41855 0)
(5.0416 -1.41869 0)
(5.04136 -1.41883 0)
(5.04111 -1.4191 0)
(5.04099 -1.41919 0)
(5.0406 -1.41939 0)
(5.04033 -1.41959 0)
(5.04005 -1.41975 0)
(5.0399 -1.41985 0)
(5.03976 -1.41996 0)
(5.03972 -1.42011 0)
(5.03979 -1.42008 0)
(5.03987 -1.42036 0)
(5.03995 -1.421 0)
(5.03996 -1.42123 0)
(5.03996 -1.42126 0)
(5.04013 -1.42054 0)
(5.04079 -1.41968 0)
(5.04175 -1.41903 0)
(5.04223 -1.41804 0)
(5.04204 -1.41751 0)
(5.0419 -1.41741 0)
(5.04157 -1.4168 0)
(5.04069 -1.41649 0)
(5.04 -1.41808 0)
(5.03934 -1.42054 0)
(5.03931 -1.42281 0)
(5.04004 -1.42563 0)
(5.04092 -1.42613 0)
(5.04074 -1.42457 0)
(5.04165 -1.42251 0)
(5.0426 -1.42148 0)
(5.04188 -1.42073 0)
(5.04185 -1.42093 0)
(5.04243 -1.42279 0)
(5.04373 -1.42721 0)
(5.0432 -1.43239 0)
(5.04128 -1.43418 0)
(5.03979 -1.43282 0)
(5.03873 -1.43187 0)
(5.03933 -1.42902 0)
(5.03943 -1.43137 0)
(5.03964 -1.4311 0)
(5.03885 -1.43496 0)
(5.03837 -1.43525 0)
(5.03774 -1.43675 0)
(5.03728 -1.43774 0)
(5.03691 -1.43972 0)
(5.03659 -1.44129 0)
(5.03617 -1.44206 0)
(5.03565 -1.44261 0)
(5.03645 -1.44322 0)
(5.03673 -1.4433 0)
(5.03964 -1.44201 0)
(5.03924 -1.41957 0)
(5.00637 -1.16422 0)
(4.9832 -0.72198 0)
(4.93543 -0.326304 0)
(4.91247 -0.0770749 0)
(4.88945 0.0931846 0)
(4.86037 0.201636 0)
(4.83956 0.172665 0)
(4.85045 0.119007 0)
(4.8372 0.0765573 0)
(4.83973 0.0716283 0)
(4.84032 0.0725626 0)
(4.84036 0.0780791 0)
(4.84044 0.0843508 0)
(4.83795 0.0840605 0)
(4.83479 0.0780695 0)
(4.8328 0.0716451 0)
(4.83098 0.06391 0)
(4.83093 0.0636076 0)
(4.83076 0.0653944 0)
(4.83019 0.0642709 0)
(4.8294 0.0585655 0)
(5.04267 -1.42019 0)
(5.04274 -1.42002 0)
(5.04277 -1.41994 0)
(5.0426 -1.42033 0)
(5.04258 -1.42114 0)
(5.04243 -1.42141 0)
(5.0424 -1.42174 0)
(5.04233 -1.4227 0)
(5.04238 -1.42349 0)
(5.04362 -1.42195 0)
(5.04403 -1.42045 0)
(5.04417 -1.42022 0)
(5.04419 -1.42009 0)
(5.04405 -1.42002 0)
(5.04399 -1.41995 0)
(5.04488 -1.4183 0)
(5.04569 -1.4162 0)
(5.0457 -1.41569 0)
(5.04541 -1.4148 0)
(5.04475 -1.4142 0)
(5.04296 -1.41465 0)
(5.04216 -1.4156 0)
(5.04232 -1.41642 0)
(5.04221 -1.41742 0)
(5.04195 -1.41786 0)
(5.04165 -1.41803 0)
(5.0413 -1.41833 0)
(5.04108 -1.41866 0)
(5.04092 -1.41884 0)
(5.0404 -1.4192 0)
(5.04009 -1.41931 0)
(5.03967 -1.4195 0)
(5.03953 -1.41945 0)
(5.03938 -1.41924 0)
(5.03925 -1.41995 0)
(5.0391 -1.42085 0)
(5.03913 -1.4211 0)
(5.03914 -1.42145 0)
(5.03917 -1.42237 0)
(5.03956 -1.42311 0)
(5.03982 -1.42215 0)
(5.04042 -1.42138 0)
(5.04184 -1.42057 0)
(5.04313 -1.41859 0)
(5.04296 -1.41765 0)
(5.04254 -1.41681 0)
(5.0418 -1.41628 0)
(5.04071 -1.41639 0)
(5.03991 -1.41923 0)
(5.04104 -1.42219 0)
(5.04254 -1.42548 0)
(5.04173 -1.42975 0)
(5.04144 -1.43158 0)
(5.04079 -1.43132 0)
(5.04042 -1.43079 0)
(5.04003 -1.43029 0)
(5.04003 -1.431 0)
(5.04071 -1.43083 0)
(5.04169 -1.42987 0)
(5.04196 -1.43151 0)
(5.04097 -1.43647 0)
(5.0401 -1.43735 0)
(5.03893 -1.43691 0)
(5.0383 -1.43494 0)
(5.03768 -1.43614 0)
(5.03753 -1.43623 0)
(5.03727 -1.43839 0)
(5.03722 -1.43887 0)
(5.03708 -1.43994 0)
(5.03684 -1.44055 0)
(5.03651 -1.44141 0)
(5.03653 -1.44173 0)
(5.03672 -1.44177 0)
(5.03636 -1.44276 0)
(5.03542 -1.44514 0)
(5.03707 -1.44386 0)
(5.03826 -1.44354 0)
(5.04173 -1.43805 0)
(5.04308 -1.43491 0)
(5.04297 -1.43247 0)
(5.04018 -1.43742 0)
(5.02955 -1.33661 0)
(5.00631 -1.08173 0)
(4.95581 -0.583535 0)
(5.00056 -0.409224 0)
(4.91113 -0.0952598 0)
(4.93677 -0.0526957 0)
(4.87193 0.0288271 0)
(4.8742 0.07298 0)
(4.86079 0.0956559 0)
(4.85404 0.0952908 0)
(4.8476 0.085393 0)
(4.84267 0.0725894 0)
(4.84109 0.0600783 0)
(4.83981 0.0593097 0)
(4.83995 0.0628197 0)
(4.83936 0.0639591 0)
(4.83907 0.0623993 0)
(4.83794 0.0580263 0)
(4.83598 0.0516955 0)
(5.0404 -1.42053 0)
(5.04035 -1.42085 0)
(5.04025 -1.42095 0)
(5.04024 -1.42093 0)
(5.04021 -1.42091 0)
(5.04032 -1.4213 0)
(5.04046 -1.42161 0)
(5.04053 -1.42184 0)
(5.04077 -1.42221 0)
(5.0412 -1.42248 0)
(5.04145 -1.42213 0)
(5.04179 -1.42186 0)
(5.04221 -1.42195 0)
(5.04205 -1.42283 0)
(5.04191 -1.42314 0)
(5.04233 -1.42247 0)
(5.04395 -1.41856 0)
(5.04469 -1.41597 0)
(5.04509 -1.41512 0)
(5.04436 -1.41413 0)
(5.04292 -1.41389 0)
(5.04211 -1.41548 0)
(5.04214 -1.41726 0)
(5.04213 -1.41758 0)
(5.04215 -1.41756 0)
(5.04202 -1.41762 0)
(5.04159 -1.41787 0)
(5.04136 -1.41802 0)
(5.04098 -1.41833 0)
(5.04045 -1.41881 0)
(5.04003 -1.41866 0)
(5.03939 -1.41775 0)
(5.03892 -1.41879 0)
(5.0388 -1.42116 0)
(5.03852 -1.42249 0)
(5.03846 -1.42285 0)
(5.03844 -1.4235 0)
(5.03855 -1.42434 0)
(5.03904 -1.42453 0)
(5.03992 -1.42609 0)
(5.04068 -1.42831 0)
(5.04216 -1.42861 0)
(5.04435 -1.42815 0)
(5.04522 -1.42504 0)
(5.04375 -1.42149 0)
(5.04187 -1.42145 0)
(5.04126 -1.423 0)
(5.04101 -1.42298 0)
(5.03992 -1.42324 0)
(5.04086 -1.42879 0)
(5.04256 -1.43667 0)
(5.04128 -1.44063 0)
(5.03995 -1.44207 0)
(5.03912 -1.44173 0)
(5.03835 -1.43973 0)
(5.03772 -1.43748 0)
(5.03781 -1.43582 0)
(5.03775 -1.43676 0)
(5.03807 -1.43665 0)
(5.03841 -1.43811 0)
(5.03906 -1.43875 0)
(5.03881 -1.44069 0)
(5.03842 -1.43949 0)
(5.03741 -1.44026 0)
(5.03681 -1.44022 0)
(5.03638 -1.44103 0)
(5.03616 -1.441 0)
(5.03621 -1.44099 0)
(5.03631 -1.44109 0)
(5.03658 -1.4412 0)
(5.03611 -1.44287 0)
(5.03569 -1.44696 0)
(5.03861 -1.44304 0)
(5.03966 -1.444 0)
(5.04124 -1.44219 0)
(5.04059 -1.4363 0)
(5.04266 -1.42481 0)
(5.04248 -1.41938 0)
(5.04451 -1.41041 0)
(5.04407 -1.41491 0)
(5.04308 -1.41557 0)
(5.04411 -1.40661 0)
(5.04641 -1.39515 0)
(5.04971 -1.38701 0)
(5.04947 -1.2466 0)
(4.9735 -0.646232 0)
(4.99465 -0.460549 0)